% Model:              1 neuron.mph
% Version:            COMSOL 6.1.0.252
% Date:               Mar 18 2023, 12:09
% Dimension:          0
% Nodes:              14017
% Expressions:        14017
% Description:        Electric field norm, Electric field, X component, Electric field, Y component, Electric field, Z component, Tangential electric field, X component, Tangential electric field, Y component, Tangential electric field, Z component, Electric field, x component, Electric field, y component, Electric field, z component, Tangential electric field, x component, Tangential electric field, y component, Tangential electric field, z component, Electric potential
% Length unit:        mm
% x
2
% y
12.2
% z
1
% es.normE (V/m) @ t=0
0.7722636065229821
% es.EX (V/m) @ t=0
-0.4987187090680538
% es.EY (V/m) @ t=0
0.11080308765540015
% es.EZ (V/m) @ t=0
0.5687667367941822
% es.tEX (V/m) @ t=0
-0.4987187090680538
% es.tEY (V/m) @ t=0
0
% es.tEZ (V/m) @ t=0
0.568766736794188
% es.Ex (V/m) @ t=0
-0.4987187090680538
% es.Ey (V/m) @ t=0
0.11080308765540015
% es.Ez (V/m) @ t=0
0.5687667367941822
% es.tEx (V/m) @ t=0
-0.4987187090680538
% es.tEy (V/m) @ t=0
0
% es.tEz (V/m) @ t=0
0.568766736794188
% V (V) @ t=0
0.00747400622048187
% es.normE (V/m) @ t=0.02
0.6670147396663545
% es.EX (V/m) @ t=0.02
-0.43075023468679485
% es.EY (V/m) @ t=0.02
0.09570215691400946
% es.EZ (V/m) @ t=0.02
0.4912516836768046
% es.tEX (V/m) @ t=0.02
-0.4307502346867935
% es.tEY (V/m) @ t=0.02
0
% es.tEZ (V/m) @ t=0.02
0.4912516836768086
% es.Ex (V/m) @ t=0.02
-0.43075023468679485
% es.Ey (V/m) @ t=0.02
0.09570215691400946
% es.Ez (V/m) @ t=0.02
0.4912516836768046
% es.tEx (V/m) @ t=0.02
-0.4307502346867935
% es.tEy (V/m) @ t=0.02
0
% es.tEz (V/m) @ t=0.02
0.4912516836768086
% V (V) @ t=0.02
0.006455402337304183
% es.normE (V/m) @ t=0.04
0.6731523070770378
% es.EX (V/m) @ t=0.04
-0.43471380254867187
% es.EY (V/m) @ t=0.04
0.09658276559306828
% es.EZ (V/m) @ t=0.04
0.4957719593945229
% es.tEX (V/m) @ t=0.04
-0.43471380254867054
% es.tEY (V/m) @ t=0.04
0
% es.tEZ (V/m) @ t=0.04
0.4957719593945322
% es.Ex (V/m) @ t=0.04
-0.43471380254867187
% es.Ey (V/m) @ t=0.04
0.09658276559306828
% es.Ez (V/m) @ t=0.04
0.4957719593945229
% es.tEx (V/m) @ t=0.04
-0.43471380254867054
% es.tEy (V/m) @ t=0.04
0
% es.tEz (V/m) @ t=0.04
0.4957719593945322
% V (V) @ t=0.04
0.006514801928045538
% es.normE (V/m) @ t=0.06
0.6793465342334419
% es.EX (V/m) @ t=0.06
-0.4387139605824324
% es.EY (V/m) @ t=0.06
0.09747150375679747
% es.EZ (V/m) @ t=0.06
0.5003339646239318
% es.tEX (V/m) @ t=0.06
-0.43871396058243084
% es.tEY (V/m) @ t=0.06
0
% es.tEZ (V/m) @ t=0.06
0.5003339646239393
% es.Ex (V/m) @ t=0.06
-0.4387139605824324
% es.Ey (V/m) @ t=0.06
0.09747150375679747
% es.Ez (V/m) @ t=0.06
0.5003339646239318
% es.tEx (V/m) @ t=0.06
-0.43871396058243084
% es.tEy (V/m) @ t=0.06
0
% es.tEz (V/m) @ t=0.06
0.5003339646239393
% V (V) @ t=0.06
0.0065747498737190255
% es.normE (V/m) @ t=0.08
0.6856321966362644
% es.EX (V/m) @ t=0.08
-0.4427731679391542
% es.EY (V/m) @ t=0.08
0.098373358990191
% es.EZ (V/m) @ t=0.08
0.504963310505409
% es.tEX (V/m) @ t=0.08
-0.4427731679391529
% es.tEY (V/m) @ t=0.08
0
% es.tEZ (V/m) @ t=0.08
0.504963310505413
% es.Ex (V/m) @ t=0.08
-0.4427731679391542
% es.Ey (V/m) @ t=0.08
0.098373358990191
% es.Ez (V/m) @ t=0.08
0.504963310505409
% es.tEx (V/m) @ t=0.08
-0.4427731679391529
% es.tEy (V/m) @ t=0.08
0
% es.tEz (V/m) @ t=0.08
0.504963310505413
% V (V) @ t=0.08
0.006635582974675078
% es.normE (V/m) @ t=0.1
0.6919878717136208
% es.EX (V/m) @ t=0.1
-0.44687758981863945
% es.EY (V/m) @ t=0.1
0.09928525806516181
% es.EZ (V/m) @ t=0.1
0.5096442196443842
% es.tEX (V/m) @ t=0.1
-0.4468775898186379
% es.tEY (V/m) @ t=0.1
0
% es.tEZ (V/m) @ t=0.1
0.5096442196443882
% es.Ex (V/m) @ t=0.1
-0.44687758981863945
% es.Ey (V/m) @ t=0.1
0.09928525806516181
% es.Ez (V/m) @ t=0.1
0.5096442196443842
% es.tEx (V/m) @ t=0.1
-0.4468775898186379
% es.tEy (V/m) @ t=0.1
0
% es.tEz (V/m) @ t=0.1
0.5096442196443882
% V (V) @ t=0.1
0.006697093845868945
% es.normE (V/m) @ t=0.12
0.6983435467909734
% es.EX (V/m) @ t=0.12
-0.4509820116981189
% es.EY (V/m) @ t=0.12
0.10019715714014493
% es.EZ (V/m) @ t=0.12
0.5143251287833559
% es.tEX (V/m) @ t=0.12
-0.4509820116981189
% es.tEY (V/m) @ t=0.12
0
% es.tEZ (V/m) @ t=0.12
0.5143251287833634
% es.Ex (V/m) @ t=0.12
-0.4509820116981189
% es.Ey (V/m) @ t=0.12
0.10019715714014493
% es.Ez (V/m) @ t=0.12
0.5143251287833559
% es.tEx (V/m) @ t=0.12
-0.4509820116981189
% es.tEy (V/m) @ t=0.12
0
% es.tEz (V/m) @ t=0.12
0.5143251287833634
% V (V) @ t=0.12
0.00675860471706281
% es.normE (V/m) @ t=0.14
0.7047479879005247
% es.EX (V/m) @ t=0.14
-0.455117925728175
% es.EY (V/m) @ t=0.14
0.10111605356772457
% es.EZ (V/m) @ t=0.14
0.5190419539477769
% es.tEX (V/m) @ t=0.14
-0.4551179257281732
% es.tEY (V/m) @ t=0.14
0
% es.tEZ (V/m) @ t=0.14
0.519041953947784
% es.Ex (V/m) @ t=0.14
-0.455117925728175
% es.Ey (V/m) @ t=0.14
0.10111605356772457
% es.Ez (V/m) @ t=0.14
0.5190419539477769
% es.tEx (V/m) @ t=0.14
-0.4551179257281732
% es.tEy (V/m) @ t=0.14
0
% es.tEz (V/m) @ t=0.14
0.519041953947784
% V (V) @ t=0.14
0.0068205874909452865
% es.normE (V/m) @ t=0.16
0.7114453521648982
% es.EX (V/m) @ t=0.16
-0.4594430038070867
% es.EY (V/m) @ t=0.16
0.1020769810261431
% es.EZ (V/m) @ t=0.16
0.523974516071076
% es.tEX (V/m) @ t=0.16
-0.45944300380708514
% es.tEY (V/m) @ t=0.16
0
% es.tEZ (V/m) @ t=0.16
0.52397451607108
% es.Ex (V/m) @ t=0.16
-0.4594430038070867
% es.Ey (V/m) @ t=0.16
0.1020769810261431
% es.Ez (V/m) @ t=0.16
0.523974516071076
% es.tEx (V/m) @ t=0.16
-0.45944300380708514
% es.tEy (V/m) @ t=0.16
0
% es.tEz (V/m) @ t=0.16
0.52397451607108
% V (V) @ t=0.16
0.006885404844925139
% es.normE (V/m) @ t=0.18
0.7181427164292729
% es.EX (V/m) @ t=0.18
-0.4637680818859986
% es.EY (V/m) @ t=0.18
0.10303790848455735
% es.EZ (V/m) @ t=0.18
0.5289070781943783
% es.tEX (V/m) @ t=0.18
-0.4637680818859986
% es.tEY (V/m) @ t=0.18
0
% es.tEZ (V/m) @ t=0.18
0.5289070781943788
% es.Ex (V/m) @ t=0.18
-0.4637680818859986
% es.Ey (V/m) @ t=0.18
0.10303790848455735
% es.Ez (V/m) @ t=0.18
0.5289070781943783
% es.tEx (V/m) @ t=0.18
-0.4637680818859986
% es.tEy (V/m) @ t=0.18
0
% es.tEz (V/m) @ t=0.18
0.5289070781943788
% V (V) @ t=0.18
0.00695022219890499
% es.normE (V/m) @ t=0.2
0.7248400806936438
% es.EX (V/m) @ t=0.2
-0.4680931599649141
% es.EY (V/m) @ t=0.2
0.1039988359429741
% es.EZ (V/m) @ t=0.2
0.5338396403176722
% es.tEX (V/m) @ t=0.2
-0.4680931599649123
% es.tEY (V/m) @ t=0.2
0
% es.tEZ (V/m) @ t=0.2
0.5338396403176744
% es.Ex (V/m) @ t=0.2
-0.4680931599649141
% es.Ey (V/m) @ t=0.2
0.1039988359429741
% es.Ez (V/m) @ t=0.2
0.5338396403176722
% es.tEx (V/m) @ t=0.2
-0.4680931599649123
% es.tEy (V/m) @ t=0.2
0
% es.tEz (V/m) @ t=0.2
0.5338396403176744
% V (V) @ t=0.2
0.007015039552884843
% es.normE (V/m) @ t=0.22
0.7315374449580117
% es.EX (V/m) @ t=0.22
-0.47241823804382754
% es.EY (V/m) @ t=0.22
0.1049597634013883
% es.EZ (V/m) @ t=0.22
0.5387722024409642
% es.tEX (V/m) @ t=0.22
-0.472418238043826
% es.tEY (V/m) @ t=0.22
0
% es.tEZ (V/m) @ t=0.22
0.53877220244097
% es.Ex (V/m) @ t=0.22
-0.47241823804382754
% es.Ey (V/m) @ t=0.22
0.1049597634013883
% es.Ez (V/m) @ t=0.22
0.5387722024409642
% es.tEx (V/m) @ t=0.22
-0.472418238043826
% es.tEy (V/m) @ t=0.22
0
% es.tEz (V/m) @ t=0.22
0.53877220244097
% V (V) @ t=0.22
0.007079856906864695
% es.normE (V/m) @ t=0.24
0.7382348092223836
% es.EX (V/m) @ t=0.24
-0.47674331612273924
% es.EY (V/m) @ t=0.24
0.10592069085980332
% es.EZ (V/m) @ t=0.24
0.5437047645642639
% es.tEX (V/m) @ t=0.24
-0.47674331612273746
% es.tEY (V/m) @ t=0.24
0
% es.tEZ (V/m) @ t=0.24
0.5437047645642692
% es.Ex (V/m) @ t=0.24
-0.47674331612273924
% es.Ey (V/m) @ t=0.24
0.10592069085980332
% es.Ez (V/m) @ t=0.24
0.5437047645642639
% es.tEx (V/m) @ t=0.24
-0.47674331612273746
% es.tEy (V/m) @ t=0.24
0
% es.tEz (V/m) @ t=0.24
0.5437047645642692
% V (V) @ t=0.24
0.0071446742608445475
% es.normE (V/m) @ t=0.26
0.7449321734867551
% es.EX (V/m) @ t=0.26
-0.4810683942016507
% es.EY (V/m) @ t=0.26
0.10688161831821652
% es.EZ (V/m) @ t=0.26
0.5486373266875613
% es.tEX (V/m) @ t=0.26
-0.48106839420164915
% es.tEY (V/m) @ t=0.26
0
% es.tEZ (V/m) @ t=0.26
0.5486373266875653
% es.Ex (V/m) @ t=0.26
-0.4810683942016507
% es.Ey (V/m) @ t=0.26
0.10688161831821652
% es.Ez (V/m) @ t=0.26
0.5486373266875613
% es.tEx (V/m) @ t=0.26
-0.48106839420164915
% es.tEy (V/m) @ t=0.26
0
% es.tEz (V/m) @ t=0.26
0.5486373266875653
% V (V) @ t=0.26
0.007209491614824399
% es.normE (V/m) @ t=0.28
0.7518576198730934
% es.EX (V/m) @ t=0.28
-0.4855408441726763
% es.EY (V/m) @ t=0.28
0.10787517474642311
% es.EZ (V/m) @ t=0.28
0.5537378283386638
% es.tEX (V/m) @ t=0.28
-0.48554084417267473
% es.tEY (V/m) @ t=0.28
0
% es.tEZ (V/m) @ t=0.28
0.5537378283386714
% es.Ex (V/m) @ t=0.28
-0.4855408441726763
% es.Ey (V/m) @ t=0.28
0.10787517474642311
% es.Ez (V/m) @ t=0.28
0.5537378283386638
% es.tEx (V/m) @ t=0.28
-0.48554084417267473
% es.tEy (V/m) @ t=0.28
0
% es.tEz (V/m) @ t=0.28
0.5537378283386714
% V (V) @ t=0.28
0.007276529503834475
% es.normE (V/m) @ t=0.3
0.75932691130987
% es.EX (V/m) @ t=0.3
-0.49036469158502727
% es.EY (V/m) @ t=0.3
0.10894653255406289
% es.EZ (V/m) @ t=0.3
0.5592387694461847
% es.tEX (V/m) @ t=0.3
-0.4903646915850255
% es.tEY (V/m) @ t=0.3
0
% es.tEZ (V/m) @ t=0.3
0.5592387694461922
% es.Ex (V/m) @ t=0.3
-0.49036469158502727
% es.Ey (V/m) @ t=0.3
0.10894653255406289
% es.Ez (V/m) @ t=0.3
0.5592387694461847
% es.tEx (V/m) @ t=0.3
-0.4903646915850255
% es.tEy (V/m) @ t=0.3
0
% es.tEz (V/m) @ t=0.3
0.5592387694461922
% V (V) @ t=0.3
0.007348862095360869
% es.normE (V/m) @ t=0.32
0.7667962027469233
% es.EX (V/m) @ t=0.32
-0.4951885389973798
% es.EY (V/m) @ t=0.32
0.1100178903616964
% es.EZ (V/m) @ t=0.32
0.5647397105537024
% es.tEX (V/m) @ t=0.32
-0.4951885389973798
% es.tEY (V/m) @ t=0.32
0
% es.tEZ (V/m) @ t=0.32
0.5647397105537135
% es.Ex (V/m) @ t=0.32
-0.4951885389973798
% es.Ey (V/m) @ t=0.32
0.1100178903616964
% es.Ez (V/m) @ t=0.32
0.5647397105537024
% es.tEx (V/m) @ t=0.32
-0.4951885389973798
% es.tEy (V/m) @ t=0.32
0
% es.tEz (V/m) @ t=0.32
0.5647397105537135
% V (V) @ t=0.32
0.007421194686887263
% es.normE (V/m) @ t=0.34
0.7742654941842484
% es.EX (V/m) @ t=0.34
-0.500012386409733
% es.EY (V/m) @ t=0.34
0.11108924816934068
% es.EZ (V/m) @ t=0.34
0.570240651661214
% es.tEX (V/m) @ t=0.34
-0.500012386409735
% es.tEY (V/m) @ t=0.34
0
% es.tEZ (V/m) @ t=0.34
0.5702406516612197
% es.Ex (V/m) @ t=0.34
-0.500012386409733
% es.Ey (V/m) @ t=0.34
0.11108924816934068
% es.Ez (V/m) @ t=0.34
0.570240651661214
% es.tEx (V/m) @ t=0.34
-0.500012386409735
% es.tEy (V/m) @ t=0.34
0
% es.tEz (V/m) @ t=0.34
0.5702406516612197
% V (V) @ t=0.34
0.007493527278413655
% es.normE (V/m) @ t=0.36
0.7817347856218434
% es.EX (V/m) @ t=0.36
-0.5048362338220891
% es.EY (V/m) @ t=0.36
0.11216060597697242
% es.EZ (V/m) @ t=0.36
0.575741592768737
% es.tEX (V/m) @ t=0.36
-0.5048362338220891
% es.tEY (V/m) @ t=0.36
0
% es.tEZ (V/m) @ t=0.36
0.5757415927687517
% es.Ex (V/m) @ t=0.36
-0.5048362338220891
% es.Ey (V/m) @ t=0.36
0.11216060597697242
% es.Ez (V/m) @ t=0.36
0.575741592768737
% es.tEx (V/m) @ t=0.36
-0.5048362338220891
% es.tEy (V/m) @ t=0.36
0
% es.tEz (V/m) @ t=0.36
0.5757415927687517
% V (V) @ t=0.36
0.007565859869940047
% es.normE (V/m) @ t=0.38
0.7892040770596893
% es.EX (V/m) @ t=0.38
-0.5096600812344398
% es.EY (V/m) @ t=0.38
0.1132319637846122
% es.EZ (V/m) @ t=0.38
0.5812425338762512
% es.tEX (V/m) @ t=0.38
-0.5096600812344398
% es.tEY (V/m) @ t=0.38
0
% es.tEZ (V/m) @ t=0.38
0.5812425338762588
% es.Ex (V/m) @ t=0.38
-0.5096600812344398
% es.Ey (V/m) @ t=0.38
0.1132319637846122
% es.Ez (V/m) @ t=0.38
0.5812425338762512
% es.tEx (V/m) @ t=0.38
-0.5096600812344398
% es.tEy (V/m) @ t=0.38
0
% es.tEz (V/m) @ t=0.38
0.5812425338762588
% V (V) @ t=0.38
0.007638192461466442
% es.normE (V/m) @ t=0.4
0.7966733684977935
% es.EX (V/m) @ t=0.4
-0.5144839286467908
% es.EY (V/m) @ t=0.4
0.11430332159224932
% es.EZ (V/m) @ t=0.4
0.5867434749837792
% es.tEX (V/m) @ t=0.4
-0.5144839286467908
% es.tEY (V/m) @ t=0.4
0
% es.tEZ (V/m) @ t=0.4
0.5867434749837832
% es.Ex (V/m) @ t=0.4
-0.5144839286467908
% es.Ey (V/m) @ t=0.4
0.11430332159224932
% es.Ez (V/m) @ t=0.4
0.5867434749837792
% es.tEx (V/m) @ t=0.4
-0.5144839286467908
% es.tEy (V/m) @ t=0.4
0
% es.tEz (V/m) @ t=0.4
0.5867434749837832
% V (V) @ t=0.4
0.007710525052992836
% es.normE (V/m) @ t=0.42
0.8041426599361302
% es.EX (V/m) @ t=0.42
-0.5193077760591436
% es.EY (V/m) @ t=0.42
0.11537467939988821
% es.EZ (V/m) @ t=0.42
0.5922444160912912
% es.tEX (V/m) @ t=0.42
-0.5193077760591418
% es.tEY (V/m) @ t=0.42
0
% es.tEZ (V/m) @ t=0.42
0.592244416091297
% es.Ex (V/m) @ t=0.42
-0.5193077760591436
% es.Ey (V/m) @ t=0.42
0.11537467939988821
% es.Ez (V/m) @ t=0.42
0.5922444160912912
% es.tEx (V/m) @ t=0.42
-0.5193077760591418
% es.tEy (V/m) @ t=0.42
0
% es.tEz (V/m) @ t=0.42
0.592244416091297
% V (V) @ t=0.42
0.007782857644519226
% es.normE (V/m) @ t=0.44
0.8116119513747126
% es.EX (V/m) @ t=0.44
-0.5241316234714981
% es.EY (V/m) @ t=0.44
0.11644603720753238
% es.EZ (V/m) @ t=0.44
0.5977453571988138
% es.tEX (V/m) @ t=0.44
-0.5241316234714981
% es.tEY (V/m) @ t=0.44
0
% es.tEZ (V/m) @ t=0.44
0.5977453571988214
% es.Ex (V/m) @ t=0.44
-0.5241316234714981
% es.Ey (V/m) @ t=0.44
0.11644603720753238
% es.Ez (V/m) @ t=0.44
0.5977453571988138
% es.tEx (V/m) @ t=0.44
-0.5241316234714981
% es.tEy (V/m) @ t=0.44
0
% es.tEz (V/m) @ t=0.44
0.5977453571988214
% V (V) @ t=0.44
0.00785519023604562
% es.normE (V/m) @ t=0.46
0.8190812428135184
% es.EX (V/m) @ t=0.46
-0.5289554708838471
% es.EY (V/m) @ t=0.46
0.11751739501517211
% es.EZ (V/m) @ t=0.46
0.6032462983063334
% es.tEX (V/m) @ t=0.46
-0.5289554708838471
% es.tEY (V/m) @ t=0.46
0
% es.tEZ (V/m) @ t=0.46
0.6032462983063391
% es.Ex (V/m) @ t=0.46
-0.5289554708838471
% es.Ey (V/m) @ t=0.46
0.11751739501517211
% es.Ez (V/m) @ t=0.46
0.6032462983063334
% es.tEx (V/m) @ t=0.46
-0.5289554708838471
% es.tEy (V/m) @ t=0.46
0
% es.tEz (V/m) @ t=0.46
0.6032462983063391
% V (V) @ t=0.46
0.007927522827572012
% es.normE (V/m) @ t=0.48
0.8265505342525588
% es.EX (V/m) @ t=0.48
-0.5337793182962067
% es.EY (V/m) @ t=0.48
0.11858875282280923
% es.EZ (V/m) @ t=0.48
0.6087472394138582
% es.tEX (V/m) @ t=0.48
-0.533779318296205
% es.tEY (V/m) @ t=0.48
0
% es.tEZ (V/m) @ t=0.48
0.6087472394138604
% es.Ex (V/m) @ t=0.48
-0.5337793182962067
% es.Ey (V/m) @ t=0.48
0.11858875282280923
% es.Ez (V/m) @ t=0.48
0.6087472394138582
% es.tEx (V/m) @ t=0.48
-0.533779318296205
% es.tEy (V/m) @ t=0.48
0
% es.tEz (V/m) @ t=0.48
0.6087472394138604
% V (V) @ t=0.48
0.007999855419098407
% es.normE (V/m) @ t=0.5
0.8340198256918041
% es.EX (V/m) @ t=0.5
-0.5386031657085559
% es.EY (V/m) @ t=0.5
0.11966011063044285
% es.EZ (V/m) @ t=0.5
0.6142481805213773
% es.tEX (V/m) @ t=0.5
-0.5386031657085542
% es.tEY (V/m) @ t=0.5
0
% es.tEZ (V/m) @ t=0.5
0.6142481805213738
% es.Ex (V/m) @ t=0.5
-0.5386031657085559
% es.Ey (V/m) @ t=0.5
0.11966011063044285
% es.Ez (V/m) @ t=0.5
0.6142481805213773
% es.tEx (V/m) @ t=0.5
-0.5386031657085542
% es.tEy (V/m) @ t=0.5
0
% es.tEz (V/m) @ t=0.5
0.6142481805213738
% V (V) @ t=0.5
0.008072188010624799
% es.normE (V/m) @ t=0.52
0.8414891171312522
% es.EX (V/m) @ t=0.52
-0.5434270131209051
% es.EY (V/m) @ t=0.52
0.12073146843808702
% es.EZ (V/m) @ t=0.52
0.6197491216288809
% es.tEX (V/m) @ t=0.52
-0.5434270131209051
% es.tEY (V/m) @ t=0.52
0
% es.tEZ (V/m) @ t=0.52
0.6197491216288915
% es.Ex (V/m) @ t=0.52
-0.5434270131209051
% es.Ey (V/m) @ t=0.52
0.12073146843808702
% es.Ez (V/m) @ t=0.52
0.6197491216288809
% es.tEx (V/m) @ t=0.52
-0.5434270131209051
% es.tEy (V/m) @ t=0.52
0
% es.tEz (V/m) @ t=0.52
0.6197491216288915
% V (V) @ t=0.52
0.008144520602151192
% es.normE (V/m) @ t=0.54
0.8489584085709339
% es.EX (V/m) @ t=0.54
-0.548250860533263
% es.EY (V/m) @ t=0.54
0.12180282624571875
% es.EZ (V/m) @ t=0.54
0.6252500627364164
% es.tEX (V/m) @ t=0.54
-0.5482508605332592
% es.tEY (V/m) @ t=0.54
0
% es.tEZ (V/m) @ t=0.54
0.6252500627364235
% es.Ex (V/m) @ t=0.54
-0.548250860533263
% es.Ey (V/m) @ t=0.54
0.12180282624571875
% es.Ez (V/m) @ t=0.54
0.6252500627364164
% es.tEx (V/m) @ t=0.54
-0.5482508605332592
% es.tEy (V/m) @ t=0.54
0
% es.tEz (V/m) @ t=0.54
0.6252500627364235
% V (V) @ t=0.54
0.008216853193677588
% es.normE (V/m) @ t=0.56
0.8569485550548357
% es.EX (V/m) @ t=0.56
-0.5534106820972484
% es.EY (V/m) @ t=0.56
0.12294938467323013
% es.EZ (V/m) @ t=0.56
0.6311348128688312
% es.tEX (V/m) @ t=0.56
-0.5534106820972484
% es.tEY (V/m) @ t=0.56
0
% es.tEZ (V/m) @ t=0.56
0.6311348128688561
% es.Ex (V/m) @ t=0.56
-0.5534106820972484
% es.Ey (V/m) @ t=0.56
0.12294938467323013
% es.Ez (V/m) @ t=0.56
0.6311348128688312
% es.tEx (V/m) @ t=0.56
-0.5534106820972484
% es.tEy (V/m) @ t=0.56
0
% es.tEz (V/m) @ t=0.56
0.6311348128688561
% V (V) @ t=0.56
0.008294162127983106
% es.normE (V/m) @ t=0.58
0.8652845338778352
% es.EX (V/m) @ t=0.58
-0.558793580557349
% es.EY (V/m) @ t=0.58
0.12414587408731548
% es.EZ (V/m) @ t=0.58
0.637274400837958
% es.tEX (V/m) @ t=0.58
-0.558793580557347
% es.tEY (V/m) @ t=0.58
0
% es.tEZ (V/m) @ t=0.58
0.6372744008379678
% es.Ex (V/m) @ t=0.58
-0.558793580557349
% es.Ey (V/m) @ t=0.58
0.12414587408731548
% es.Ez (V/m) @ t=0.58
0.637274400837958
% es.tEx (V/m) @ t=0.58
-0.558793580557347
% es.tEy (V/m) @ t=0.58
0
% es.tEz (V/m) @ t=0.58
0.6372744008379678
% V (V) @ t=0.58
0.00837477520665745
% es.normE (V/m) @ t=0.6
0.8736205127014223
% es.EX (V/m) @ t=0.6
-0.5641764790174546
% es.EY (V/m) @ t=0.6
0.12534236350140793
% es.EZ (V/m) @ t=0.6
0.6434139888070796
% es.tEX (V/m) @ t=0.6
-0.5641764790174528
% es.tEY (V/m) @ t=0.6
0
% es.tEZ (V/m) @ t=0.6
0.6434139888070911
% es.Ex (V/m) @ t=0.6
-0.5641764790174546
% es.Ey (V/m) @ t=0.6
0.12534236350140793
% es.Ez (V/m) @ t=0.6
0.6434139888070796
% es.tEx (V/m) @ t=0.6
-0.5641764790174528
% es.tEy (V/m) @ t=0.6
0
% es.tEz (V/m) @ t=0.6
0.6434139888070911
% V (V) @ t=0.6
0.008455388285331794
% es.normE (V/m) @ t=0.62
0.8819564915255692
% es.EX (V/m) @ t=0.62
-0.5695593774775622
% es.EY (V/m) @ t=0.62
0.12653885291550487
% es.EZ (V/m) @ t=0.62
0.6495535767761842
% es.tEX (V/m) @ t=0.62
-0.5695593774775602
% es.tEY (V/m) @ t=0.62
0
% es.tEZ (V/m) @ t=0.62
0.6495535767761877
% es.Ex (V/m) @ t=0.62
-0.5695593774775622
% es.Ey (V/m) @ t=0.62
0.12653885291550487
% es.Ez (V/m) @ t=0.62
0.6495535767761842
% es.tEx (V/m) @ t=0.62
-0.5695593774775602
% es.tEy (V/m) @ t=0.62
0
% es.tEz (V/m) @ t=0.62
0.6495535767761877
% V (V) @ t=0.62
0.00853600136400614
% es.normE (V/m) @ t=0.64
0.890292470350269
% es.EX (V/m) @ t=0.64
-0.5749422759376626
% es.EY (V/m) @ t=0.64
0.1277353423296026
% es.EZ (V/m) @ t=0.64
0.6556931647452959
% es.tEX (V/m) @ t=0.64
-0.5749422759376641
% es.tEY (V/m) @ t=0.64
0
% es.tEZ (V/m) @ t=0.64
0.6556931647453004
% es.Ex (V/m) @ t=0.64
-0.5749422759376626
% es.Ey (V/m) @ t=0.64
0.1277353423296026
% es.Ez (V/m) @ t=0.64
0.6556931647452959
% es.tEx (V/m) @ t=0.64
-0.5749422759376641
% es.tEy (V/m) @ t=0.64
0
% es.tEz (V/m) @ t=0.64
0.6556931647453004
% V (V) @ t=0.64
0.008616614442680486
% es.normE (V/m) @ t=0.66
0.8986284491755141
% es.EX (V/m) @ t=0.66
-0.5803251743977662
% es.EY (V/m) @ t=0.66
0.12893183174369155
% es.EZ (V/m) @ t=0.66
0.6618327527144166
% es.tEX (V/m) @ t=0.66
-0.5803251743977678
% es.tEY (V/m) @ t=0.66
0
% es.tEZ (V/m) @ t=0.66
0.6618327527144192
% es.Ex (V/m) @ t=0.66
-0.5803251743977662
% es.Ey (V/m) @ t=0.66
0.12893183174369155
% es.Ez (V/m) @ t=0.66
0.6618327527144166
% es.tEx (V/m) @ t=0.66
-0.5803251743977678
% es.tEy (V/m) @ t=0.66
0
% es.tEz (V/m) @ t=0.66
0.6618327527144192
% V (V) @ t=0.66
0.00869722752135483
% es.normE (V/m) @ t=0.68
0.9069644280012774
% es.EX (V/m) @ t=0.68
-0.5857080728578703
% es.EY (V/m) @ t=0.68
0.1301283211577946
% es.EZ (V/m) @ t=0.68
0.6679723406835238
% es.tEX (V/m) @ t=0.68
-0.5857080728578683
% es.tEY (V/m) @ t=0.68
0
% es.tEZ (V/m) @ t=0.68
0.6679723406835238
% es.Ex (V/m) @ t=0.68
-0.5857080728578703
% es.Ey (V/m) @ t=0.68
0.1301283211577946
% es.Ez (V/m) @ t=0.68
0.6679723406835238
% es.tEx (V/m) @ t=0.68
-0.5857080728578683
% es.tEy (V/m) @ t=0.68
0
% es.tEz (V/m) @ t=0.68
0.6679723406835238
% V (V) @ t=0.68
0.008777840600029178
% es.normE (V/m) @ t=0.7
0.9153004068275424
% es.EX (V/m) @ t=0.7
-0.5910909713179742
% es.EY (V/m) @ t=0.7
0.13132481057188966
% es.EZ (V/m) @ t=0.7
0.6741119286526285
% es.tEX (V/m) @ t=0.7
-0.5910909713179722
% es.tEY (V/m) @ t=0.7
0
% es.tEZ (V/m) @ t=0.7
0.6741119286526436
% es.Ex (V/m) @ t=0.7
-0.5910909713179742
% es.Ey (V/m) @ t=0.7
0.13132481057188966
% es.Ez (V/m) @ t=0.7
0.6741119286526285
% es.tEx (V/m) @ t=0.7
-0.5910909713179722
% es.tEy (V/m) @ t=0.7
0
% es.tEz (V/m) @ t=0.7
0.6741119286526436
% V (V) @ t=0.7
0.008858453678703523
% es.normE (V/m) @ t=0.72
0.9236363856543144
% es.EX (V/m) @ t=0.72
-0.5964738697780745
% es.EY (V/m) @ t=0.72
0.13252129998598483
% es.EZ (V/m) @ t=0.72
0.6802515166217473
% es.tEX (V/m) @ t=0.72
-0.596473869778076
% es.tEY (V/m) @ t=0.72
0
% es.tEZ (V/m) @ t=0.72
0.6802515166217447
% es.Ex (V/m) @ t=0.72
-0.5964738697780745
% es.Ey (V/m) @ t=0.72
0.13252129998598483
% es.Ez (V/m) @ t=0.72
0.6802515166217473
% es.tEx (V/m) @ t=0.72
-0.596473869778076
% es.tEy (V/m) @ t=0.72
0
% es.tEz (V/m) @ t=0.72
0.6802515166217447
% V (V) @ t=0.72
0.008939066757377866
% es.normE (V/m) @ t=0.74
0.9319723644815625
% es.EX (V/m) @ t=0.74
-0.6018567682381821
% es.EY (V/m) @ t=0.74
0.13371778940008433
% es.EZ (V/m) @ t=0.74
0.6863911045908528
% es.tEX (V/m) @ t=0.74
-0.6018567682381837
% es.tEY (V/m) @ t=0.74
0
% es.tEZ (V/m) @ t=0.74
0.6863911045908635
% es.Ex (V/m) @ t=0.74
-0.6018567682381821
% es.Ey (V/m) @ t=0.74
0.13371778940008433
% es.Ez (V/m) @ t=0.74
0.6863911045908528
% es.tEx (V/m) @ t=0.74
-0.6018567682381837
% es.tEy (V/m) @ t=0.74
0
% es.tEz (V/m) @ t=0.74
0.6863911045908635
% V (V) @ t=0.74
0.009019679836052213
% es.normE (V/m) @ t=0.76
0.9403083433092903
% es.EX (V/m) @ t=0.76
-0.6072396666982862
% es.EY (V/m) @ t=0.76
0.1349142788141786
% es.EZ (V/m) @ t=0.76
0.6925306925599779
% es.tEX (V/m) @ t=0.76
-0.6072396666982842
% es.tEY (V/m) @ t=0.76
0
% es.tEZ (V/m) @ t=0.76
0.6925306925599752
% es.Ex (V/m) @ t=0.76
-0.6072396666982862
% es.Ey (V/m) @ t=0.76
0.1349142788141786
% es.Ez (V/m) @ t=0.76
0.6925306925599779
% es.tEx (V/m) @ t=0.76
-0.6072396666982842
% es.tEy (V/m) @ t=0.76
0
% es.tEz (V/m) @ t=0.76
0.6925306925599752
% V (V) @ t=0.76
0.009100292914726558
% es.normE (V/m) @ t=0.78
0.9486443221374563
% es.EX (V/m) @ t=0.78
-0.6126225651583903
% es.EY (V/m) @ t=0.78
0.13611076822828094
% es.EZ (V/m) @ t=0.78
0.6986702805290772
% es.tEX (V/m) @ t=0.78
-0.6126225651583881
% es.tEY (V/m) @ t=0.78
0
% es.tEZ (V/m) @ t=0.78
0.6986702805290941
% es.Ex (V/m) @ t=0.78
-0.6126225651583903
% es.Ey (V/m) @ t=0.78
0.13611076822828094
% es.Ez (V/m) @ t=0.78
0.6986702805290772
% es.tEx (V/m) @ t=0.78
-0.6126225651583881
% es.tEy (V/m) @ t=0.78
0
% es.tEz (V/m) @ t=0.78
0.6986702805290941
% V (V) @ t=0.78
0.009180905993400903
% es.normE (V/m) @ t=0.8
0.9569803009660796
% es.EX (V/m) @ t=0.8
-0.6180054636184942
% es.EY (V/m) @ t=0.8
0.1373072576423786
% es.EZ (V/m) @ t=0.8
0.7048098684981916
% es.tEX (V/m) @ t=0.8
-0.6180054636184955
% es.tEY (V/m) @ t=0.8
0
% es.tEZ (V/m) @ t=0.8
0.7048098684981952
% es.Ex (V/m) @ t=0.8
-0.6180054636184942
% es.Ey (V/m) @ t=0.8
0.1373072576423786
% es.Ez (V/m) @ t=0.8
0.7048098684981916
% es.tEx (V/m) @ t=0.8
-0.6180054636184955
% es.tEy (V/m) @ t=0.8
0
% es.tEz (V/m) @ t=0.8
0.7048098684981952
% V (V) @ t=0.8
0.009261519072075248
% es.normE (V/m) @ t=0.82
0.9653162797951362
% es.EX (V/m) @ t=0.82
-0.6233883620785978
% es.EY (V/m) @ t=0.82
0.1385037470564684
% es.EZ (V/m) @ t=0.82
0.7109494564673104
% es.tEX (V/m) @ t=0.82
-0.6233883620785958
% es.tEY (V/m) @ t=0.82
0
% es.tEZ (V/m) @ t=0.82
0.7109494564673149
% es.Ex (V/m) @ t=0.82
-0.6233883620785978
% es.Ey (V/m) @ t=0.82
0.1385037470564684
% es.Ez (V/m) @ t=0.82
0.7109494564673104
% es.tEx (V/m) @ t=0.82
-0.6233883620785958
% es.tEy (V/m) @ t=0.82
0
% es.tEz (V/m) @ t=0.82
0.7109494564673149
% V (V) @ t=0.82
0.009342132150749596
% es.normE (V/m) @ t=0.84
0.9745573472764893
% es.EX (V/m) @ t=0.84
-0.6293563473474466
% es.EY (V/m) @ t=0.84
0.139829382740577
% es.EZ (V/m) @ t=0.84
0.7177553261690646
% es.tEX (V/m) @ t=0.84
-0.6293563473474408
% es.tEY (V/m) @ t=0.84
0
% es.tEZ (V/m) @ t=0.84
0.7177553261690788
% es.Ex (V/m) @ t=0.84
-0.6293563473474466
% es.Ey (V/m) @ t=0.84
0.139829382740577
% es.Ez (V/m) @ t=0.84
0.7177553261690646
% es.tEx (V/m) @ t=0.84
-0.6293563473474408
% es.tEy (V/m) @ t=0.84
0
% es.tEz (V/m) @ t=0.84
0.7177553261690788
% V (V) @ t=0.84
0.009431603224038016
% es.normE (V/m) @ t=0.86
0.9838917984721003
% es.EX (V/m) @ t=0.86
-0.6353846997185413
% es.EY (V/m) @ t=0.86
0.14116834326122996
% es.EZ (V/m) @ t=0.86
0.7246299403663432
% es.tEX (V/m) @ t=0.86
-0.6353846997185426
% es.tEY (V/m) @ t=0.86
0
% es.tEZ (V/m) @ t=0.86
0.7246299403663512
% es.Ex (V/m) @ t=0.86
-0.6353846997185413
% es.Ey (V/m) @ t=0.86
0.14116834326122996
% es.Ez (V/m) @ t=0.86
0.7246299403663432
% es.tEx (V/m) @ t=0.86
-0.6353846997185426
% es.tEy (V/m) @ t=0.86
0
% es.tEz (V/m) @ t=0.86
0.7246299403663512
% V (V) @ t=0.86
0.009521988232589824
% es.normE (V/m) @ t=0.88
0.9932262496679423
% es.EX (V/m) @ t=0.88
-0.6414130520896435
% es.EY (V/m) @ t=0.88
0.1425073037818706
% es.EZ (V/m) @ t=0.88
0.7315045545635934
% es.tEX (V/m) @ t=0.88
-0.6414130520896448
% es.tEY (V/m) @ t=0.88
0
% es.tEZ (V/m) @ t=0.88
0.7315045545635943
% es.Ex (V/m) @ t=0.88
-0.6414130520896435
% es.Ey (V/m) @ t=0.88
0.1425073037818706
% es.Ez (V/m) @ t=0.88
0.7315045545635934
% es.tEx (V/m) @ t=0.88
-0.6414130520896448
% es.tEy (V/m) @ t=0.88
0
% es.tEz (V/m) @ t=0.88
0.7315045545635943
% V (V) @ t=0.88
0.009612373241141633
% es.normE (V/m) @ t=0.9
1.0025607008640407
% es.EX (V/m) @ t=0.9
-0.647441404460745
% es.EY (V/m) @ t=0.9
0.143846264302529
% es.EZ (V/m) @ t=0.9
0.7383791687608587
% es.tEX (V/m) @ t=0.9
-0.6474414044607393
% es.tEY (V/m) @ t=0.9
0
% es.tEZ (V/m) @ t=0.9
0.7383791687608596
% es.Ex (V/m) @ t=0.9
-0.647441404460745
% es.Ey (V/m) @ t=0.9
0.143846264302529
% es.Ez (V/m) @ t=0.9
0.7383791687608587
% es.tEx (V/m) @ t=0.9
-0.6474414044607393
% es.tEy (V/m) @ t=0.9
0
% es.tEz (V/m) @ t=0.9
0.7383791687608596
% V (V) @ t=0.9
0.009702758249693442
% es.normE (V/m) @ t=0.92
1.0118951520603678
% es.EX (V/m) @ t=0.92
-0.6534697568318404
% es.EY (V/m) @ t=0.92
0.14518522482317764
% es.EZ (V/m) @ t=0.92
0.7452537829581232
% es.tEX (V/m) @ t=0.92
-0.6534697568318382
% es.tEY (V/m) @ t=0.92
0
% es.tEZ (V/m) @ t=0.92
0.7452537829581161
% es.Ex (V/m) @ t=0.92
-0.6534697568318404
% es.Ey (V/m) @ t=0.92
0.14518522482317764
% es.Ez (V/m) @ t=0.92
0.7452537829581232
% es.tEx (V/m) @ t=0.92
-0.6534697568318382
% es.tEy (V/m) @ t=0.92
0
% es.tEz (V/m) @ t=0.92
0.7452537829581161
% V (V) @ t=0.92
0.009793143258245249
% es.normE (V/m) @ t=0.94
1.0212296032569237
% es.EX (V/m) @ t=0.94
-0.6594981092029457
% es.EY (V/m) @ t=0.94
0.1465241853438235
% es.EZ (V/m) @ t=0.94
0.7521283971553814
% es.tEX (V/m) @ t=0.94
-0.6594981092029435
% es.tEY (V/m) @ t=0.94
0
% es.tEZ (V/m) @ t=0.94
0.7521283971553814
% es.Ex (V/m) @ t=0.94
-0.6594981092029457
% es.Ey (V/m) @ t=0.94
0.1465241853438235
% es.Ez (V/m) @ t=0.94
0.7521283971553814
% es.tEx (V/m) @ t=0.94
-0.6594981092029435
% es.tEy (V/m) @ t=0.94
0
% es.tEz (V/m) @ t=0.94
0.7521283971553814
% V (V) @ t=0.94
0.009883528266797056
% es.normE (V/m) @ t=0.96
1.0305640544536945
% es.EX (V/m) @ t=0.96
-0.6655264615740513
% es.EY (V/m) @ t=0.96
0.14786314586447125
% es.EZ (V/m) @ t=0.96
0.7590030113526307
% es.tEX (V/m) @ t=0.96
-0.6655264615740455
% es.tEY (V/m) @ t=0.96
0
% es.tEZ (V/m) @ t=0.96
0.7590030113526458
% es.Ex (V/m) @ t=0.96
-0.6655264615740513
% es.Ey (V/m) @ t=0.96
0.14786314586447125
% es.Ez (V/m) @ t=0.96
0.7590030113526307
% es.tEx (V/m) @ t=0.96
-0.6655264615740455
% es.tEy (V/m) @ t=0.96
0
% es.tEz (V/m) @ t=0.96
0.7590030113526458
% V (V) @ t=0.96
0.009973913275348864
% es.normE (V/m) @ t=0.98
1.039898505650692
% es.EX (V/m) @ t=0.98
-0.6715548139451424
% es.EY (V/m) @ t=0.98
0.14920210638511
% es.EZ (V/m) @ t=0.98
0.7658776255499031
% es.tEX (V/m) @ t=0.98
-0.6715548139451435
% es.tEY (V/m) @ t=0.98
0
% es.tEZ (V/m) @ t=0.98
0.7658776255499111
% es.Ex (V/m) @ t=0.98
-0.6715548139451424
% es.Ey (V/m) @ t=0.98
0.14920210638511
% es.Ez (V/m) @ t=0.98
0.7658776255499031
% es.tEx (V/m) @ t=0.98
-0.6715548139451435
% es.tEy (V/m) @ t=0.98
0
% es.tEz (V/m) @ t=0.98
0.7658776255499111
% V (V) @ t=0.98
0.010064298283900673
% es.normE (V/m) @ t=1
1.0492329568478935
% es.EX (V/m) @ t=1
-0.6775831663162484
% es.EY (V/m) @ t=1
0.15054106690575864
% es.EZ (V/m) @ t=1
0.7727522397471533
% es.tEX (V/m) @ t=1
-0.6775831663162495
% es.tEY (V/m) @ t=1
0
% es.tEZ (V/m) @ t=1
0.7727522397471542
% es.Ex (V/m) @ t=1
-0.6775831663162484
% es.Ey (V/m) @ t=1
0.15054106690575864
% es.Ez (V/m) @ t=1
0.7727522397471533
% es.tEx (V/m) @ t=1
-0.6775831663162495
% es.tEy (V/m) @ t=1
0
% es.tEz (V/m) @ t=1
0.7727522397471542
% V (V) @ t=1
0.01015468329245248
% es.normE (V/m) @ t=1.02
1.058567408045309
% es.EX (V/m) @ t=1.02
-0.6836115186873462
% es.EY (V/m) @ t=1.02
0.15188002742641526
% es.EZ (V/m) @ t=1.02
0.7796268539444222
% es.tEX (V/m) @ t=1.02
-0.6836115186873475
% es.tEY (V/m) @ t=1.02
0
% es.tEZ (V/m) @ t=1.02
0.7796268539444258
% es.Ex (V/m) @ t=1.02
-0.6836115186873462
% es.Ey (V/m) @ t=1.02
0.15188002742641526
% es.Ez (V/m) @ t=1.02
0.7796268539444222
% es.tEx (V/m) @ t=1.02
-0.6836115186873475
% es.tEy (V/m) @ t=1.02
0
% es.tEz (V/m) @ t=1.02
0.7796268539444258
% V (V) @ t=1.02
0.010245068301004289
% es.normE (V/m) @ t=1.04
1.0679018592429155
% es.EX (V/m) @ t=1.04
-0.6896398710584517
% es.EY (V/m) @ t=1.04
0.1532189879470487
% es.EZ (V/m) @ t=1.04
0.786501468141676