% Model:              1 neuron.mph
% Version:            COMSOL 6.1.0.252
% Date:               Mar 18 2023, 12:04
% Dimension:          0
% Nodes:              14017
% Expressions:        14017
% Description:        Electric field norm, Electric field, X component, Electric field, Y component, Electric field, Z component, Tangential electric field, X component, Tangential electric field, Y component, Tangential electric field, Z component, Electric field, x component, Electric field, y component, Electric field, z component, Tangential electric field, x component, Tangential electric field, y component, Tangential electric field, z component, Electric potential
% Length unit:        mm
% x
1
% y
12.2
% z
1
% es.normE (V/m) @ t=0
0.7981145137393759
% es.EX (V/m) @ t=0
0.5419303588591475
% es.EY (V/m) @ t=0
0.15391492895814451
% es.EZ (V/m) @ t=0
0.5506250723154915
% es.tEX (V/m) @ t=0
0.5419303588591475
% es.tEY (V/m) @ t=0
0
% es.tEZ (V/m) @ t=0
0.55062507231548
% es.Ex (V/m) @ t=0
0.5419303588591475
% es.Ey (V/m) @ t=0
0.15391492895814451
% es.Ez (V/m) @ t=0
0.5506250723154915
% es.tEx (V/m) @ t=0
0.5419303588591475
% es.tEy (V/m) @ t=0
0
% es.tEz (V/m) @ t=0
0.55062507231548
% V (V) @ t=0
0.00748415452376142
% es.normE (V/m) @ t=0.02
0.6893402965536741
% es.EX (V/m) @ t=0.02
0.4680712189943641
% es.EY (V/m) @ t=0.02
0.1329380214669067
% es.EZ (V/m) @ t=0.02
0.4755809401033657
% es.tEX (V/m) @ t=0.02
0.46807121899437476
% es.tEY (V/m) @ t=0.02
0
% es.tEZ (V/m) @ t=0.02
0.47558094010336305
% es.Ex (V/m) @ t=0.02
0.4680712189943641
% es.Ey (V/m) @ t=0.02
0.1329380214669067
% es.Ez (V/m) @ t=0.02
0.4755809401033657
% es.tEx (V/m) @ t=0.02
0.46807121899437476
% es.tEy (V/m) @ t=0.02
0
% es.tEz (V/m) @ t=0.02
0.47558094010336305
% V (V) @ t=0.02
0.00646414662303719
% es.normE (V/m) @ t=0.04
0.6956812305599474
% es.EX (V/m) @ t=0.04
0.4723767948903408
% es.EY (V/m) @ t=0.04
0.13416086342526157
% es.EZ (V/m) @ t=0.04
0.4799555973621885
% es.tEX (V/m) @ t=0.04
0.47237679489033013
% es.tEY (V/m) @ t=0.04
0
% es.tEZ (V/m) @ t=0.04
0.47995559736218496
% es.Ex (V/m) @ t=0.04
0.4723767948903408
% es.Ey (V/m) @ t=0.04
0.13416086342526157
% es.Ez (V/m) @ t=0.04
0.4799555973621885
% es.tEx (V/m) @ t=0.04
0.47237679489033013
% es.tEy (V/m) @ t=0.04
0
% es.tEz (V/m) @ t=0.04
0.47995559736218496
% V (V) @ t=0.04
0.006523607260068633
% es.normE (V/m) @ t=0.06
0.7020799054880814
% es.EX (V/m) @ t=0.06
0.4767215802670357
% es.EY (V/m) @ t=0.06
0.1353948360531403
% es.EZ (V/m) @ t=0.06
0.48437009025092337
% es.tEX (V/m) @ t=0.06
0.47672158026703215
% es.tEY (V/m) @ t=0.06
0
% es.tEZ (V/m) @ t=0.06
0.48437009025091626
% es.Ex (V/m) @ t=0.06
0.4767215802670357
% es.Ey (V/m) @ t=0.06
0.1353948360531403
% es.Ez (V/m) @ t=0.06
0.48437009025092337
% es.tEx (V/m) @ t=0.06
0.47672158026703215
% es.tEy (V/m) @ t=0.06
0
% es.tEz (V/m) @ t=0.06
0.48437009025091626
% V (V) @ t=0.06
0.006583609523821015
% es.normE (V/m) @ t=0.08
0.7085747777532534
% es.EX (V/m) @ t=0.08
0.48113166164177024
% es.EY (V/m) @ t=0.08
0.13664740002272335
% es.EZ (V/m) @ t=0.08
0.4888509529057661
% es.tEX (V/m) @ t=0.08
0.48113166164175425
% es.tEY (V/m) @ t=0.08
0
% es.tEZ (V/m) @ t=0.08
0.4888509529057643
% es.Ex (V/m) @ t=0.08
0.48113166164177024
% es.Ey (V/m) @ t=0.08
0.13664740002272335
% es.Ez (V/m) @ t=0.08
0.4888509529057661
% es.tEx (V/m) @ t=0.08
0.48113166164175425
% es.tEy (V/m) @ t=0.08
0
% es.tEz (V/m) @ t=0.08
0.4888509529057643
% V (V) @ t=0.08
0.006644512347440105
% es.normE (V/m) @ t=0.1
0.7151392433189856
% es.EX (V/m) @ t=0.1
0.48558898095629743
% es.EY (V/m) @ t=0.1
0.137913413770284
% es.EZ (V/m) @ t=0.1
0.49337983031055543
% es.tEX (V/m) @ t=0.1
0.4855889809562939
% es.tEY (V/m) @ t=0.1
0
% es.tEZ (V/m) @ t=0.1
0.4933798303105448
% es.Ex (V/m) @ t=0.1
0.48558898095629743
% es.Ey (V/m) @ t=0.1
0.137913413770284
% es.Ez (V/m) @ t=0.1
0.49337983031055543
% es.tEx (V/m) @ t=0.1
0.4855889809562939
% es.tEy (V/m) @ t=0.1
0
% es.tEz (V/m) @ t=0.1
0.4933798303105448
% V (V) @ t=0.1
0.006706066674888585
% es.normE (V/m) @ t=0.12
0.721703708884736
% es.EX (V/m) @ t=0.12
0.49004630027083884
% es.EY (V/m) @ t=0.12
0.13917942751783752
% es.EZ (V/m) @ t=0.12
0.49790870771533413
% es.tEX (V/m) @ t=0.12
0.4900463002708193
% es.tEY (V/m) @ t=0.12
0
% es.tEZ (V/m) @ t=0.12
0.49790870771533235
% es.Ex (V/m) @ t=0.12
0.49004630027083884
% es.Ey (V/m) @ t=0.12
0.13917942751783752
% es.Ez (V/m) @ t=0.12
0.49790870771533413
% es.tEx (V/m) @ t=0.12
0.4900463002708193
% es.tEy (V/m) @ t=0.12
0
% es.tEz (V/m) @ t=0.12
0.49790870771533235
% V (V) @ t=0.12
0.006767621002337064
% es.normE (V/m) @ t=0.14
0.7283281303589956
% es.EX (V/m) @ t=0.14
0.4945443407950805
% es.EY (V/m) @ t=0.14
0.1404569859294238
% es.EZ (V/m) @ t=0.14
0.502478948020384
% es.tEX (V/m) @ t=0.14
0.49454434079507337
% es.tEY (V/m) @ t=0.14
0
% es.tEZ (V/m) @ t=0.14
0.5024789480203822
% es.Ex (V/m) @ t=0.14
0.4945443407950805
% es.Ey (V/m) @ t=0.14
0.1404569859294238
% es.Ez (V/m) @ t=0.14
0.502478948020384
% es.tEx (V/m) @ t=0.14
0.49454434079507337
% es.tEy (V/m) @ t=0.14
0
% es.tEz (V/m) @ t=0.14
0.5024789480203822
% V (V) @ t=0.14
0.006829738225512558
% es.normE (V/m) @ t=0.16
0.735244331684304
% es.EX (V/m) @ t=0.16
0.49924055408996004
% es.EY (V/m) @ t=0.16
0.14179072729992725
% es.EZ (V/m) @ t=0.16
0.5072504839305276
% es.tEX (V/m) @ t=0.16
0.49924055408995116
% es.tEY (V/m) @ t=0.16
0
% es.tEZ (V/m) @ t=0.16
0.5072504839305196
% es.Ex (V/m) @ t=0.16
0.49924055408996004
% es.Ey (V/m) @ t=0.16
0.14179072729992725
% es.Ez (V/m) @ t=0.16
0.5072504839305276
% es.tEx (V/m) @ t=0.16
0.49924055408995116
% es.tEy (V/m) @ t=0.16
0
% es.tEz (V/m) @ t=0.16
0.5072504839305196
% V (V) @ t=0.16
0.006894594822262386
% es.normE (V/m) @ t=0.18
0.7421605330096241
% es.EX (V/m) @ t=0.18
0.5039367673848609
% es.EY (V/m) @ t=0.18
0.14312446867042006
% es.EZ (V/m) @ t=0.18
0.5120220198406633
% es.tEX (V/m) @ t=0.18
0.5039367673848574
% es.tEY (V/m) @ t=0.18
0
% es.tEZ (V/m) @ t=0.18
0.5120220198406606
% es.Ex (V/m) @ t=0.18
0.5039367673848609
% es.Ey (V/m) @ t=0.18
0.14312446867042006
% es.Ez (V/m) @ t=0.18
0.5120220198406633
% es.tEx (V/m) @ t=0.18
0.5039367673848574
% es.tEy (V/m) @ t=0.18
0
% es.tEz (V/m) @ t=0.18
0.5120220198406606
% V (V) @ t=0.18
0.006959451419012214
% es.normE (V/m) @ t=0.2
0.7490767343349405
% es.EX (V/m) @ t=0.2
0.5086329806797512
% es.EY (V/m) @ t=0.2
0.14445821004090043
% es.EZ (V/m) @ t=0.2
0.5167935557508025
% es.tEX (V/m) @ t=0.2
0.5086329806797352
% es.tEY (V/m) @ t=0.2
0
% es.tEZ (V/m) @ t=0.2
0.516793555750791
% es.Ex (V/m) @ t=0.2
0.5086329806797512
% es.Ey (V/m) @ t=0.2
0.14445821004090043
% es.Ez (V/m) @ t=0.2
0.5167935557508025
% es.tEx (V/m) @ t=0.2
0.5086329806797352
% es.tEy (V/m) @ t=0.2
0
% es.tEz (V/m) @ t=0.2
0.516793555750791
% V (V) @ t=0.2
0.007024308015762043
% es.normE (V/m) @ t=0.22
0.7559929356602393
% es.EX (V/m) @ t=0.22
0.5133291939746183
% es.EY (V/m) @ t=0.22
0.14579195141139856
% es.EZ (V/m) @ t=0.22
0.5215650916609302
% es.tEX (V/m) @ t=0.22
0.513329193974613
% es.tEY (V/m) @ t=0.22
0
% es.tEZ (V/m) @ t=0.22
0.5215650916609249
% es.Ex (V/m) @ t=0.22
0.5133291939746183
% es.Ey (V/m) @ t=0.22
0.14579195141139856
% es.Ez (V/m) @ t=0.22
0.5215650916609302
% es.tEx (V/m) @ t=0.22
0.513329193974613
% es.tEy (V/m) @ t=0.22
0
% es.tEz (V/m) @ t=0.22
0.5215650916609249
% V (V) @ t=0.22
0.0070891646125118704
% es.normE (V/m) @ t=0.24
0.7629091369855765
% es.EX (V/m) @ t=0.24
0.5180254072695174
% es.EY (V/m) @ t=0.24
0.14712569278187715
% es.EZ (V/m) @ t=0.24
0.5263366275710819
% es.tEX (V/m) @ t=0.24
0.5180254072695263
% es.tEY (V/m) @ t=0.24
0
% es.tEZ (V/m) @ t=0.24
0.526336627571073
% es.Ex (V/m) @ t=0.24
0.5180254072695174
% es.Ey (V/m) @ t=0.24
0.14712569278187715
% es.Ez (V/m) @ t=0.24
0.5263366275710819
% es.tEx (V/m) @ t=0.24
0.5180254072695263
% es.tEy (V/m) @ t=0.24
0
% es.tEz (V/m) @ t=0.24
0.526336627571073
% V (V) @ t=0.24
0.007154021209261698
% es.normE (V/m) @ t=0.26
0.7698253383109008
% es.EX (V/m) @ t=0.26
0.5227216205644112
% es.EY (V/m) @ t=0.26
0.14845943415238416
% es.EZ (V/m) @ t=0.26
0.531108163481206
% es.tEX (V/m) @ t=0.26
0.5227216205644041
% es.tEY (V/m) @ t=0.26
0
% es.tEZ (V/m) @ t=0.26
0.5311081634811963
% es.Ex (V/m) @ t=0.26
0.5227216205644112
% es.Ey (V/m) @ t=0.26
0.14845943415238416
% es.Ez (V/m) @ t=0.26
0.531108163481206
% es.tEx (V/m) @ t=0.26
0.5227216205644041
% es.tEy (V/m) @ t=0.26
0
% es.tEz (V/m) @ t=0.26
0.5311081634811963
% V (V) @ t=0.26
0.007218877806011525
% es.normE (V/m) @ t=0.28
0.7770194783642258
% es.EX (V/m) @ t=0.28
0.5276066487911741
% es.EY (V/m) @ t=0.28
0.14984661888014905
% es.EZ (V/m) @ t=0.28
0.5360714420259711
% es.tEX (V/m) @ t=0.28
0.5276066487911777
% es.tEY (V/m) @ t=0.28
0
% es.tEZ (V/m) @ t=0.28
0.536071442025964
% es.Ex (V/m) @ t=0.28
0.5276066487911741
% es.Ey (V/m) @ t=0.28
0.14984661888014905
% es.Ez (V/m) @ t=0.28
0.5360714420259711
% es.tEx (V/m) @ t=0.28
0.5276066487911777
% es.tEy (V/m) @ t=0.28
0
% es.tEz (V/m) @ t=0.28
0.536071442025964
% V (V) @ t=0.28
0.007286346651296215
% es.normE (V/m) @ t=0.3
0.7847277443938583
% es.EX (V/m) @ t=0.3
0.5328409434257235
% es.EY (V/m) @ t=0.3
0.15133266215275398
% es.EZ (V/m) @ t=0.3
0.5413894025895232
% es.tEX (V/m) @ t=0.3
0.5328409434257111
% es.tEY (V/m) @ t=0.3
0
% es.tEZ (V/m) @ t=0.3
0.5413894025895161
% es.Ex (V/m) @ t=0.3
0.5328409434257235
% es.Ey (V/m) @ t=0.3
0.15133266215275398
% es.Ez (V/m) @ t=0.3
0.5413894025895232
% es.tEx (V/m) @ t=0.3
0.5328409434257111
% es.tEy (V/m) @ t=0.3
0
% es.tEz (V/m) @ t=0.3
0.5413894025895161
% V (V) @ t=0.3
0.007358647586145446
% es.normE (V/m) @ t=0.32
0.7924360104241571
% es.EX (V/m) @ t=0.32
0.5380752380602907
% es.EY (V/m) @ t=0.32
0.15281870542537668
% es.EZ (V/m) @ t=0.32
0.5467073631530752
% es.tEX (V/m) @ t=0.32
0.5380752380602871
% es.tEY (V/m) @ t=0.32
0
% es.tEZ (V/m) @ t=0.32
0.5467073631530681
% es.Ex (V/m) @ t=0.32
0.5380752380602907
% es.Ey (V/m) @ t=0.32
0.15281870542537668
% es.Ez (V/m) @ t=0.32
0.5467073631530752
% es.tEx (V/m) @ t=0.32
0.5380752380602871
% es.tEy (V/m) @ t=0.32
0
% es.tEz (V/m) @ t=0.32
0.5467073631530681
% V (V) @ t=0.32
0.007430948520994678
% es.normE (V/m) @ t=0.34
0.8001442764550651
% es.EX (V/m) @ t=0.34
0.5433095326948507
% es.EY (V/m) @ t=0.34
0.1543047486979905
% es.EZ (V/m) @ t=0.34
0.5520253237166104
% es.tEX (V/m) @ t=0.34
0.5433095326948347
% es.tEY (V/m) @ t=0.34
0
% es.tEZ (V/m) @ t=0.34
0.5520253237165988
% es.Ex (V/m) @ t=0.34
0.5433095326948507
% es.Ey (V/m) @ t=0.34
0.1543047486979905
% es.Ez (V/m) @ t=0.34
0.5520253237166104
% es.tEx (V/m) @ t=0.34
0.5433095326948347
% es.tEy (V/m) @ t=0.34
0
% es.tEz (V/m) @ t=0.34
0.5520253237165988
% V (V) @ t=0.34
0.0075032494558439095
% es.normE (V/m) @ t=0.36
0.8078525424865777
% es.EX (V/m) @ t=0.36
0.5485438273293965
% es.EY (V/m) @ t=0.36
0.15579079197060075
% es.EZ (V/m) @ t=0.36
0.5573432842801589
% es.tEX (V/m) @ t=0.36
0.5485438273293965
% es.tEY (V/m) @ t=0.36
0
% es.tEZ (V/m) @ t=0.36
0.5573432842801509
% es.Ex (V/m) @ t=0.36
0.5485438273293965
% es.Ey (V/m) @ t=0.36
0.15579079197060075
% es.Ez (V/m) @ t=0.36
0.5573432842801589
% es.tEx (V/m) @ t=0.36
0.5485438273293965
% es.tEy (V/m) @ t=0.36
0
% es.tEz (V/m) @ t=0.36
0.5573432842801509
% V (V) @ t=0.36
0.00757555039069314
% es.normE (V/m) @ t=0.38
0.8155608085186787
% es.EX (V/m) @ t=0.38
0.5537781219639584
% es.EY (V/m) @ t=0.38
0.15727683524322522
% es.EZ (V/m) @ t=0.38
0.562661244843687
% es.tEX (V/m) @ t=0.38
0.5537781219639442
% es.tEY (V/m) @ t=0.38
0
% es.tEZ (V/m) @ t=0.38
0.5626612448436781
% es.Ex (V/m) @ t=0.38
0.5537781219639584
% es.Ey (V/m) @ t=0.38
0.15727683524322522
% es.Ez (V/m) @ t=0.38
0.562661244843687
% es.tEx (V/m) @ t=0.38
0.5537781219639442
% es.tEy (V/m) @ t=0.38
0
% es.tEz (V/m) @ t=0.38
0.5626612448436781
% V (V) @ t=0.38
0.0076478513255423715
% es.normE (V/m) @ t=0.4
0.8232690745513913
% es.EX (V/m) @ t=0.4
0.559012416598538
% es.EY (V/m) @ t=0.4
0.15876287851582305
% es.EZ (V/m) @ t=0.4
0.5679792054072532
% es.tEX (V/m) @ t=0.4
0.5590124165985344
% es.tEY (V/m) @ t=0.4
0
% es.tEZ (V/m) @ t=0.4
0.5679792054072443
% es.Ex (V/m) @ t=0.4
0.559012416598538
% es.Ey (V/m) @ t=0.4
0.15876287851582305
% es.Ez (V/m) @ t=0.4
0.5679792054072532
% es.tEx (V/m) @ t=0.4
0.5590124165985344
% es.tEy (V/m) @ t=0.4
0
% es.tEz (V/m) @ t=0.4
0.5679792054072443
% V (V) @ t=0.4
0.007720152260391603
% es.normE (V/m) @ t=0.42
0.8309773405846267
% es.EX (V/m) @ t=0.42
0.5642467112330785
% es.EY (V/m) @ t=0.42
0.16024892178841732
% es.EZ (V/m) @ t=0.42
0.5732971659708124
% es.tEX (V/m) @ t=0.42
0.564246711233082
% es.tEY (V/m) @ t=0.42
0
% es.tEZ (V/m) @ t=0.42
0.5732971659708035
% es.Ex (V/m) @ t=0.42
0.5642467112330785
% es.Ey (V/m) @ t=0.42
0.16024892178841732
% es.Ez (V/m) @ t=0.42
0.5732971659708124
% es.tEx (V/m) @ t=0.42
0.564246711233082
% es.tEy (V/m) @ t=0.42
0
% es.tEz (V/m) @ t=0.42
0.5732971659708035
% V (V) @ t=0.42
0.007792453195240835
% es.normE (V/m) @ t=0.44
0.8386856066183994
% es.EX (V/m) @ t=0.44
0.5694810058676296
% es.EY (V/m) @ t=0.44
0.1617349650610258
% es.EZ (V/m) @ t=0.44
0.578615126534344
% es.tEX (V/m) @ t=0.44
0.5694810058676154
% es.tEY (V/m) @ t=0.44
0
% es.tEZ (V/m) @ t=0.44
0.5786151265343342
% es.Ex (V/m) @ t=0.44
0.5694810058676296
% es.Ey (V/m) @ t=0.44
0.1617349650610258
% es.Ez (V/m) @ t=0.44
0.578615126534344
% es.tEx (V/m) @ t=0.44
0.5694810058676154
% es.tEy (V/m) @ t=0.44
0
% es.tEz (V/m) @ t=0.44
0.5786151265343342
% V (V) @ t=0.44
0.007864754130090065
% es.normE (V/m) @ t=0.46
0.846393872652752
% es.EX (V/m) @ t=0.46
0.5747153005022234
% es.EY (V/m) @ t=0.46
0.1632210083336556
% es.EZ (V/m) @ t=0.46
0.5839330870979023
% es.tEX (V/m) @ t=0.46
0.5747153005022057
% es.tEY (V/m) @ t=0.46
0
% es.tEZ (V/m) @ t=0.46
0.5839330870978934
% es.Ex (V/m) @ t=0.46
0.5747153005022234
% es.Ey (V/m) @ t=0.46
0.1632210083336556
% es.Ez (V/m) @ t=0.46
0.5839330870979023
% es.tEx (V/m) @ t=0.46
0.5747153005022057
% es.tEy (V/m) @ t=0.46
0
% es.tEz (V/m) @ t=0.46
0.5839330870978934
% V (V) @ t=0.46
0.007937055064939299
% es.normE (V/m) @ t=0.48
0.85410213868756
% es.EX (V/m) @ t=0.48
0.5799495951367568
% es.EY (V/m) @ t=0.48
0.16470705160627475
% es.EZ (V/m) @ t=0.48
0.5892510476614339
% es.tEX (V/m) @ t=0.48
0.5799495951367533
% es.tEY (V/m) @ t=0.48
0
% es.tEZ (V/m) @ t=0.48
0.5892510476614312
% es.Ex (V/m) @ t=0.48
0.5799495951367568
% es.Ey (V/m) @ t=0.48
0.16470705160627475
% es.Ez (V/m) @ t=0.48
0.5892510476614339
% es.tEx (V/m) @ t=0.48
0.5799495951367533
% es.tEy (V/m) @ t=0.48
0
% es.tEz (V/m) @ t=0.48
0.5892510476614312
% V (V) @ t=0.48
0.008009355999788529
% es.normE (V/m) @ t=0.5
0.8618104047228989
% es.EX (V/m) @ t=0.5
0.5851838897713222
% es.EY (V/m) @ t=0.5
0.16619309487889034
% es.EZ (V/m) @ t=0.5
0.594569008224985
% es.tEX (V/m) @ t=0.5
0.5851838897713151
% es.tEY (V/m) @ t=0.5
0
% es.tEZ (V/m) @ t=0.5
0.5945690082249762
% es.Ex (V/m) @ t=0.5
0.5851838897713222
% es.Ey (V/m) @ t=0.5
0.16619309487889034
% es.Ez (V/m) @ t=0.5
0.594569008224985
% es.tEx (V/m) @ t=0.5
0.5851838897713151
% es.tEy (V/m) @ t=0.5
0
% es.tEz (V/m) @ t=0.5
0.5945690082249762
% V (V) @ t=0.5
0.008081656934637759
% es.normE (V/m) @ t=0.52
0.8695186707587057
% es.EX (V/m) @ t=0.52
0.5904181844058591
% es.EY (V/m) @ t=0.52
0.16767913815152546
% es.EZ (V/m) @ t=0.52
0.59988696878853
% es.tEX (V/m) @ t=0.52
0.5904181844058627
% es.tEY (V/m) @ t=0.52
0
% es.tEZ (V/m) @ t=0.52
0.5998869687885211
% es.Ex (V/m) @ t=0.52
0.5904181844058591
% es.Ey (V/m) @ t=0.52
0.16767913815152546
% es.Ez (V/m) @ t=0.52
0.59988696878853
% es.tEx (V/m) @ t=0.52
0.5904181844058627
% es.tEy (V/m) @ t=0.52
0
% es.tEz (V/m) @ t=0.52
0.5998869687885211
% V (V) @ t=0.52
0.00815395786948699
% es.normE (V/m) @ t=0.54
0.8772269367949961
% es.EX (V/m) @ t=0.54
0.5956524790404494
% es.EY (V/m) @ t=0.54
0.1691651814240931
% es.EZ (V/m) @ t=0.54
0.6052049293520589
% es.tEX (V/m) @ t=0.54
0.5956524790404387
% es.tEY (V/m) @ t=0.54
0
% es.tEZ (V/m) @ t=0.54
0.6052049293520518
% es.Ex (V/m) @ t=0.54
0.5956524790404494
% es.Ey (V/m) @ t=0.54
0.1691651814240931
% es.Ez (V/m) @ t=0.54
0.6052049293520589
% es.tEx (V/m) @ t=0.54
0.5956524790404387
% es.tEy (V/m) @ t=0.54
0
% es.tEz (V/m) @ t=0.54
0.6052049293520518
% V (V) @ t=0.54
0.008226258804336223
% es.normE (V/m) @ t=0.56
0.8855705691873137
% es.EX (V/m) @ t=0.56
0.6013176399659699
% es.EY (V/m) @ t=0.56
0.17077471189421445
% es.EZ (V/m) @ t=0.56
0.6109612912280653
% es.tEX (V/m) @ t=0.56
0.6013176399659699
% es.tEY (V/m) @ t=0.56
0
% es.tEZ (V/m) @ t=0.56
0.6109612912280546
% es.Ex (V/m) @ t=0.56
0.6013176399659699
% es.Ey (V/m) @ t=0.56
0.17077471189421445
% es.Ez (V/m) @ t=0.56
0.6109612912280653
% es.tEx (V/m) @ t=0.56
0.6013176399659699
% es.tEy (V/m) @ t=0.56
0
% es.tEz (V/m) @ t=0.56
0.6109612912280546
% V (V) @ t=0.56
0.008304481455375589
% es.normE (V/m) @ t=0.58
0.8941714572989428
% es.EX (V/m) @ t=0.58
0.6071572558588194
% es.EY (V/m) @ t=0.58
0.17243424152989562
% es.EZ (V/m) @ t=0.58
0.6168951589526923
% es.tEX (V/m) @ t=0.58
0.6071572558587945
% es.tEY (V/m) @ t=0.58
0
% es.tEZ (V/m) @ t=0.58
0.6168951589526834
% es.Ex (V/m) @ t=0.58
0.6071572558588194
% es.Ey (V/m) @ t=0.58
0.17243424152989562
% es.Ez (V/m) @ t=0.58
0.6168951589526923
% es.tEx (V/m) @ t=0.58
0.6071572558587945
% es.tEy (V/m) @ t=0.58
0
% es.tEz (V/m) @ t=0.58
0.6168951589526834
% V (V) @ t=0.58
0.008385101770901387
% es.normE (V/m) @ t=0.6
0.90277234541259
% es.EX (V/m) @ t=0.6
0.6129968717516086
% es.EY (V/m) @ t=0.6
0.17409377116553948
% es.EZ (V/m) @ t=0.6
0.6228290266772909
% es.tEX (V/m) @ t=0.6
0.612996871751605
% es.tEY (V/m) @ t=0.6
0
% es.tEZ (V/m) @ t=0.6
0.6228290266772731
% es.Ex (V/m) @ t=0.6
0.6129968717516086
% es.Ey (V/m) @ t=0.6
0.17409377116553948
% es.Ez (V/m) @ t=0.6
0.6228290266772909
% es.tEx (V/m) @ t=0.6
0.612996871751605
% es.tEy (V/m) @ t=0.6
0
% es.tEz (V/m) @ t=0.6
0.6228290266772731
% V (V) @ t=0.6
0.008465722086427183
% es.normE (V/m) @ t=0.62
0.9113732335283438
% es.EX (V/m) @ t=0.62
0.6188364876444723
% es.EY (V/m) @ t=0.62
0.17575330080119045
% es.EZ (V/m) @ t=0.62
0.6287628944019223
% es.tEX (V/m) @ t=0.62
0.6188364876444581
% es.tEY (V/m) @ t=0.62
0
% es.tEZ (V/m) @ t=0.62
0.6287628944019161
% es.Ex (V/m) @ t=0.62
0.6188364876444723
% es.Ey (V/m) @ t=0.62
0.17575330080119045
% es.Ez (V/m) @ t=0.62
0.6287628944019223
% es.tEx (V/m) @ t=0.62
0.6188364876444581
% es.tEy (V/m) @ t=0.62
0
% es.tEz (V/m) @ t=0.62
0.6287628944019161
% V (V) @ t=0.62
0.008546342401952981
% es.normE (V/m) @ t=0.64
0.919974121646022
% es.EX (V/m) @ t=0.64
0.6246761035372828
% es.EY (V/m) @ t=0.64
0.17741283043684497
% es.EZ (V/m) @ t=0.64
0.6346967621265405
% es.tEX (V/m) @ t=0.64
0.6246761035372685
% es.tEY (V/m) @ t=0.64
0
% es.tEZ (V/m) @ t=0.64
0.6346967621265307
% es.Ex (V/m) @ t=0.64
0.6246761035372828
% es.Ey (V/m) @ t=0.64
0.17741283043684497
% es.Ez (V/m) @ t=0.64
0.6346967621265405
% es.tEx (V/m) @ t=0.64
0.6246761035372685
% es.tEy (V/m) @ t=0.64
0
% es.tEz (V/m) @ t=0.64
0.6346967621265307
% V (V) @ t=0.64
0.008626962717478778
% es.normE (V/m) @ t=0.66
0.9285750097656431
% es.EX (V/m) @ t=0.66
0.6305157194301252
% es.EY (V/m) @ t=0.66
0.17907236007251548
% es.EZ (V/m) @ t=0.66
0.6406306298511586
% es.tEX (V/m) @ t=0.66
0.6305157194301074
% es.tEY (V/m) @ t=0.66
0
% es.tEZ (V/m) @ t=0.66
0.6406306298511524
% es.Ex (V/m) @ t=0.66
0.6305157194301252
% es.Ey (V/m) @ t=0.66
0.17907236007251548
% es.Ez (V/m) @ t=0.66
0.6406306298511586
% es.tEx (V/m) @ t=0.66
0.6305157194301074
% es.tEy (V/m) @ t=0.66
0
% es.tEz (V/m) @ t=0.66
0.6406306298511524
% V (V) @ t=0.66
0.008707583033004576
% es.normE (V/m) @ t=0.68
0.9371758978870852
% es.EX (V/m) @ t=0.68
0.6363553353229037
% es.EY (V/m) @ t=0.68
0.18073188970817533
% es.EZ (V/m) @ t=0.68
0.6465644975757749
% es.tEX (V/m) @ t=0.68
0.6363553353229037
% es.tEY (V/m) @ t=0.68
0
% es.tEZ (V/m) @ t=0.68
0.6465644975757527
% es.Ex (V/m) @ t=0.68
0.6363553353229037
% es.Ey (V/m) @ t=0.68
0.18073188970817533
% es.Ez (V/m) @ t=0.68
0.6465644975757749
% es.tEx (V/m) @ t=0.68
0.6363553353229037
% es.tEy (V/m) @ t=0.68
0
% es.tEz (V/m) @ t=0.68
0.6465644975757527
% V (V) @ t=0.68
0.008788203348530376
% es.normE (V/m) @ t=0.7
0.9457767860103786
% es.EX (V/m) @ t=0.7
0.6421949512157532
% es.EY (V/m) @ t=0.7
0.182391419343789
% es.EZ (V/m) @ t=0.7
0.6524983653003931
% es.tEX (V/m) @ t=0.7
0.6421949512157425
% es.tEY (V/m) @ t=0.7
0
% es.tEZ (V/m) @ t=0.7
0.6524983653003815
% es.Ex (V/m) @ t=0.7
0.6421949512157532
% es.Ey (V/m) @ t=0.7
0.182391419343789
% es.Ez (V/m) @ t=0.7
0.6524983653003931
% es.tEx (V/m) @ t=0.7
0.6421949512157425
% es.tEy (V/m) @ t=0.7
0
% es.tEz (V/m) @ t=0.7
0.6524983653003815
% V (V) @ t=0.7
0.008868823664056173
% es.normE (V/m) @ t=0.72
0.9543776741354317
% es.EX (V/m) @ t=0.72
0.6480345671085637
% es.EY (V/m) @ t=0.72
0.18405094897945773
% es.EZ (V/m) @ t=0.72
0.6584322330250227
% es.tEX (V/m) @ t=0.72
0.6480345671085672
% es.tEY (V/m) @ t=0.72
0
% es.tEZ (V/m) @ t=0.72
0.6584322330250174
% es.Ex (V/m) @ t=0.72
0.6480345671085637
% es.Ey (V/m) @ t=0.72
0.18405094897945773
% es.Ez (V/m) @ t=0.72
0.6584322330250227
% es.tEx (V/m) @ t=0.72
0.6480345671085672
% es.tEy (V/m) @ t=0.72
0
% es.tEz (V/m) @ t=0.72
0.6584322330250174
% V (V) @ t=0.72
0.00894944397958197
% es.normE (V/m) @ t=0.74
0.9629785622622031
% es.EX (V/m) @ t=0.74
0.6538741830013919
% es.EY (V/m) @ t=0.74
0.18571047861511225
% es.EZ (V/m) @ t=0.74
0.6643661007496444
% es.tEX (V/m) @ t=0.74
0.6538741830013919
% es.tEY (V/m) @ t=0.74
0
% es.tEZ (V/m) @ t=0.74
0.6643661007496391
% es.Ex (V/m) @ t=0.74
0.6538741830013919
% es.Ey (V/m) @ t=0.74
0.18571047861511225
% es.Ez (V/m) @ t=0.74
0.6643661007496444
% es.tEx (V/m) @ t=0.74
0.6538741830013919
% es.tEy (V/m) @ t=0.74
0
% es.tEz (V/m) @ t=0.74
0.6643661007496391
% V (V) @ t=0.74
0.009030064295107769
% es.normE (V/m) @ t=0.76
0.9715794503906245
% es.EX (V/m) @ t=0.76
0.6597137988942023
% es.EY (V/m) @ t=0.76
0.18737000825076677
% es.EZ (V/m) @ t=0.76
0.670299968474251
% es.tEX (V/m) @ t=0.76
0.6597137988941881
% es.tEY (V/m) @ t=0.76
0
% es.tEZ (V/m) @ t=0.76
0.6702999684742394
% es.Ex (V/m) @ t=0.76
0.6597137988942023
% es.Ey (V/m) @ t=0.76
0.18737000825076677
% es.Ez (V/m) @ t=0.76
0.670299968474251
% es.tEx (V/m) @ t=0.76
0.6597137988941881
% es.tEy (V/m) @ t=0.76
0
% es.tEz (V/m) @ t=0.76
0.6702999684742394
% V (V) @ t=0.76
0.009110684610633565
% es.normE (V/m) @ t=0.78
0.9801803385207135
% es.EX (V/m) @ t=0.78
0.6655534147870625
% es.EY (V/m) @ t=0.78
0.18902953788638577
% es.EZ (V/m) @ t=0.78
0.6762338361988753
% es.tEX (V/m) @ t=0.78
0.6655534147870412
% es.tEY (V/m) @ t=0.78
0
% es.tEZ (V/m) @ t=0.78
0.6762338361988611
% es.Ex (V/m) @ t=0.78
0.6655534147870625
% es.Ey (V/m) @ t=0.78
0.18902953788638577
% es.Ez (V/m) @ t=0.78
0.6762338361988753
% es.tEx (V/m) @ t=0.78
0.6655534147870412
% es.tEy (V/m) @ t=0.78
0
% es.tEz (V/m) @ t=0.78
0.6762338361988611
% V (V) @ t=0.78
0.009191304926159364
% es.normE (V/m) @ t=0.8
0.9887812266523762
% es.EX (V/m) @ t=0.8
0.6713930306798765
% es.EY (V/m) @ t=0.8
0.1906890675220776
% es.EZ (V/m) @ t=0.8
0.6821677039234961
% es.tEX (V/m) @ t=0.8
0.6713930306798517
% es.tEY (V/m) @ t=0.8
0
% es.tEZ (V/m) @ t=0.8
0.6821677039234899
% es.Ex (V/m) @ t=0.8
0.6713930306798765
% es.Ey (V/m) @ t=0.8
0.1906890675220776
% es.Ez (V/m) @ t=0.8
0.6821677039234961
% es.tEx (V/m) @ t=0.8
0.6713930306798517
% es.tEy (V/m) @ t=0.8
0
% es.tEz (V/m) @ t=0.8
0.6821677039234899
% V (V) @ t=0.8
0.00927192524168516
% es.normE (V/m) @ t=0.82
0.9974565274851843
% es.EX (V/m) @ t=0.82
0.6772832450013695
% es.EY (V/m) @ t=0.82
0.19236282479150013
% es.EZ (V/m) @ t=0.82
0.6881529021663768
% es.tEX (V/m) @ t=0.82
0.6772832450013624
% es.tEY (V/m) @ t=0.82
0
% es.tEZ (V/m) @ t=0.82
0.6881529021663653
% es.Ex (V/m) @ t=0.82
0.6772832450013695
% es.Ey (V/m) @ t=0.82
0.19236282479150013
% es.Ez (V/m) @ t=0.82
0.6881529021663768
% es.tEx (V/m) @ t=0.82
0.6772832450013624
% es.tEy (V/m) @ t=0.82
0
% es.tEz (V/m) @ t=0.82
0.6881529021663653
% V (V) @ t=0.82
0.009353247997215458
% es.normE (V/m) @ t=0.84
1.0070810956115035
% es.EX (V/m) @ t=0.84
0.6838189329264317
% es.EY (V/m) @ t=0.84
0.19421808101793303
% es.EZ (V/m) @ t=0.84
0.6947929131268014
% es.tEX (V/m) @ t=0.84
0.6838189329264424
% es.tEY (V/m) @ t=0.84
0
% es.tEZ (V/m) @ t=0.84
0.6947929131267898
% es.Ex (V/m) @ t=0.84
0.6838189329264317
% es.Ey (V/m) @ t=0.84
0.19421808101793303
% es.Ez (V/m) @ t=0.84
0.6947929131268014
% es.tEx (V/m) @ t=0.84
0.6838189329264424
% es.tEy (V/m) @ t=0.84
0
% es.tEz (V/m) @ t=0.84
0.6947929131267898
% V (V) @ t=0.84
0.009443531633406216
% es.normE (V/m) @ t=0.86
1.0167056637394905
% es.EX (V/m) @ t=0.86
0.6903546208514548
% es.EY (V/m) @ t=0.86
0.1960733372444281
% es.EZ (V/m) @ t=0.86
0.7014329240872419
% es.tEX (V/m) @ t=0.86
0.6903546208514655
% es.tEY (V/m) @ t=0.86
0
% es.tEZ (V/m) @ t=0.86
0.7014329240872286
% es.Ex (V/m) @ t=0.86
0.6903546208514548
% es.Ey (V/m) @ t=0.86
0.1960733372444281
% es.Ez (V/m) @ t=0.86
0.7014329240872419
% es.tEx (V/m) @ t=0.86
0.6903546208514655
% es.tEy (V/m) @ t=0.86
0
% es.tEz (V/m) @ t=0.86
0.7014329240872286
% V (V) @ t=0.86
0.009533815269596974
% es.normE (V/m) @ t=0.88
1.0263302318691179
% es.EX (V/m) @ t=0.88
0.6968903087765206
% es.EY (V/m) @ t=0.88
0.19792859347094804
% es.EZ (V/m) @ t=0.88
0.7080729350476584
% es.tEX (V/m) @ t=0.88
0.6968903087764886
% es.tEY (V/m) @ t=0.88
0
% es.tEZ (V/m) @ t=0.88
0.708072935047646
% es.Ex (V/m) @ t=0.88
0.6968903087765206
% es.Ey (V/m) @ t=0.88
0.19792859347094804
% es.Ez (V/m) @ t=0.88
0.7080729350476584
% es.tEx (V/m) @ t=0.88
0.6968903087764886
% es.tEy (V/m) @ t=0.88
0
% es.tEz (V/m) @ t=0.88
0.708072935047646
% V (V) @ t=0.88
0.00962409890578773
% es.normE (V/m) @ t=0.9
1.0359548000002907
% es.EX (V/m) @ t=0.9
0.7034259967015508
% es.EY (V/m) @ t=0.9
0.19978384969741825
% es.EZ (V/m) @ t=0.9
0.7147129460080963
% es.tEX (V/m) @ t=0.9
0.7034259967015402
% es.tEY (V/m) @ t=0.9
0
% es.tEZ (V/m) @ t=0.9
0.7147129460080848
% es.Ex (V/m) @ t=0.9
0.7034259967015508
% es.Ey (V/m) @ t=0.9
0.19978384969741825
% es.Ez (V/m) @ t=0.9
0.7147129460080963
% es.tEx (V/m) @ t=0.9
0.7034259967015402
% es.tEy (V/m) @ t=0.9
0
% es.tEz (V/m) @ t=0.9
0.7147129460080848
% V (V) @ t=0.9
0.00971438254197849
% es.normE (V/m) @ t=0.92
1.0455793681329824
% es.EX (V/m) @ t=0.92
0.7099616846265668
% es.EY (V/m) @ t=0.92
0.20163910592390977
% es.EZ (V/m) @ t=0.92
0.7213529569685146
% es.tEX (V/m) @ t=0.92
0.7099616846265917
% es.tEY (V/m) @ t=0.92
0
% es.tEZ (V/m) @ t=0.92
0.7213529569685022
% es.Ex (V/m) @ t=0.92
0.7099616846265668
% es.Ey (V/m) @ t=0.92
0.20163910592390977
% es.Ez (V/m) @ t=0.92
0.7213529569685146
% es.tEx (V/m) @ t=0.92
0.7099616846265917
% es.tEy (V/m) @ t=0.92
0
% es.tEz (V/m) @ t=0.92
0.7213529569685022
% V (V) @ t=0.92
0.009804666178169249
% es.normE (V/m) @ t=0.94
1.0552039362671963
% es.EX (V/m) @ t=0.94
0.7164973725516219
% es.EY (V/m) @ t=0.94
0.20349436215039596
% es.EZ (V/m) @ t=0.94
0.7279929679289499
% es.tEX (V/m) @ t=0.94
0.7164973725516433
% es.tEY (V/m) @ t=0.94
0
% es.tEZ (V/m) @ t=0.94
0.7279929679289268
% es.Ex (V/m) @ t=0.94
0.7164973725516219
% es.Ey (V/m) @ t=0.94
0.20349436215039596
% es.Ez (V/m) @ t=0.94
0.7279929679289499
% es.tEx (V/m) @ t=0.94
0.7164973725516433
% es.tEy (V/m) @ t=0.94
0
% es.tEz (V/m) @ t=0.94
0.7279929679289268
% V (V) @ t=0.94
0.009894949814360007
% es.normE (V/m) @ t=0.96
1.064828504402867
% es.EX (V/m) @ t=0.96
0.7230330604766877
% es.EY (V/m) @ t=0.96
0.20534961837686438
% es.EZ (V/m) @ t=0.96
0.7346329788893868
% es.tEX (V/m) @ t=0.96
0.7230330604766806
% es.tEY (V/m) @ t=0.96
0
% es.tEZ (V/m) @ t=0.96
0.7346329788893726
% es.Ex (V/m) @ t=0.96
0.7230330604766877
% es.Ey (V/m) @ t=0.96
0.20534961837686438
% es.Ez (V/m) @ t=0.96
0.7346329788893868
% es.tEx (V/m) @ t=0.96
0.7230330604766806
% es.tEy (V/m) @ t=0.96
0
% es.tEz (V/m) @ t=0.96
0.7346329788893726
% V (V) @ t=0.96
0.009985233450550763
% es.normE (V/m) @ t=0.98
1.0744530725399157
% es.EX (V/m) @ t=0.98
0.7295687484017073
% es.EY (V/m) @ t=0.98
0.20720487460336834
% es.EZ (V/m) @ t=0.98
0.7412729898498105
% es.tEX (V/m) @ t=0.98
0.7295687484017037
% es.tEY (V/m) @ t=0.98
0
% es.tEZ (V/m) @ t=0.98
0.7412729898498043
% es.Ex (V/m) @ t=0.98
0.7295687484017073
% es.Ey (V/m) @ t=0.98
0.20720487460336834
% es.Ez (V/m) @ t=0.98
0.7412729898498105
% es.tEx (V/m) @ t=0.98
0.7295687484017037
% es.tEy (V/m) @ t=0.98
0
% es.tEz (V/m) @ t=0.98
0.7412729898498043
% V (V) @ t=0.98
0.010075517086741523
% es.normE (V/m) @ t=1
1.0840776406783563
% es.EX (V/m) @ t=1
0.7361044363267695
% es.EY (V/m) @ t=1
0.20906013082982966
% es.EZ (V/m) @ t=1
0.7479130008102342
% es.tEX (V/m) @ t=1
0.7361044363267837
% es.tEY (V/m) @ t=1
0
% es.tEZ (V/m) @ t=1
0.7479130008102288
% es.Ex (V/m) @ t=1
0.7361044363267695
% es.Ey (V/m) @ t=1
0.20906013082982966
% es.Ez (V/m) @ t=1
0.7479130008102342
% es.tEx (V/m) @ t=1
0.7361044363267837
% es.tEy (V/m) @ t=1
0
% es.tEz (V/m) @ t=1
0.7479130008102288
% V (V) @ t=1
0.010165800722932281
% es.normE (V/m) @ t=1.02
1.093702208818133
% es.EX (V/m) @ t=1.02
0.7426401242518104
% es.EY (V/m) @ t=1.02
0.21091538705629098
% es.EZ (V/m) @ t=1.02
0.7545530117706853
% es.tEX (V/m) @ t=1.02
0.742640124251821
% es.tEY (V/m) @ t=1.02
0
% es.tEZ (V/m) @ t=1.02
0.7545530117706747
% es.Ex (V/m) @ t=1.02
0.7426401242518104
% es.Ey (V/m) @ t=1.02
0.21091538705629098
% es.Ez (V/m) @ t=1.02
0.7545530117706853
% es.tEx (V/m) @ t=1.02
0.742640124251821
% es.tEy (V/m) @ t=1.02
0
% es.tEz (V/m) @ t=1.02
0.7545530117706747
% V (V) @ t=1.02
0.010256084359123039
% es.normE (V/m) @ t=1.04
1.1033267769592197
% es.EX (V/m) @ t=1.04
0.7491758121768832
% es.EY (V/m) @ t=1.04
0.2127706432827683
% es.EZ (V/m) @ t=1.04
0.7611930227311108
% es.tEX (V/m) @ t=1.04
0.7491758121768584
% es.tEY (V/m) @ t=1.04
0
% es.tEZ (V/m) @ t=1.04
0.7611930227311063
% es.Ex (V/m) @ t=1.04
0.7491758121768832
% es.Ey (V/m) @ t=1.04