% Model:              1 neuron.mph
% Version:            COMSOL 6.0.0.405
% Date:               Mar 16 2023, 10:16
% Dimension:          0
% Nodes:              14017
% Expressions:        14017
% Description:        Electric field norm, Electric field, X component, Electric field, Y component, Electric field, Z component, Tangential electric field, X component, Tangential electric field, Y component, Tangential electric field, Z component, Electric field, x component, Electric field, y component, Electric field, z component, Tangential electric field, x component, Tangential electric field, y component, Tangential electric field, z component, Electric potential
% Length unit:        mm
% x
2
% y
12.2
% z
1.6599999999999997
% es.normE (V/m) @ t=0
1.2610364300926324
% es.EX (V/m) @ t=0
-1.2184944557523467
% es.EY (V/m) @ t=0
0.09386866407322791
% es.EZ (V/m) @ t=0
-0.31056219054082645
% es.tEX (V/m) @ t=0
-1.2184944557523512
% es.tEY (V/m) @ t=0
0
% es.tEZ (V/m) @ t=0
-0.31056219054081957
% es.Ex (V/m) @ t=0
-1.2184944557523467
% es.Ey (V/m) @ t=0
0.09386866407322791
% es.Ez (V/m) @ t=0
-0.31056219054082645
% es.tEx (V/m) @ t=0
-1.2184944557523512
% es.tEy (V/m) @ t=0
0
% es.tEz (V/m) @ t=0
-0.31056219054081957
% V (V) @ t=0
0.0073079646828511854
% es.normE (V/m) @ t=0.02
1.0891808684430655
% es.EX (V/m) @ t=0.02
-1.0524365573801715
% es.EY (V/m) @ t=0.02
0.08107614545545444
% es.EZ (V/m) @ t=0.02
-0.26823842831816624
% es.tEX (V/m) @ t=0.02
-1.0524365573801795
% es.tEY (V/m) @ t=0.02
0
% es.tEZ (V/m) @ t=0.02
-0.2682384283181678
% es.Ex (V/m) @ t=0.02
-1.0524365573801715
% es.Ey (V/m) @ t=0.02
0.08107614545545444
% es.Ez (V/m) @ t=0.02
-0.26823842831816624
% es.tEx (V/m) @ t=0.02
-1.0524365573801795
% es.tEy (V/m) @ t=0.02
0
% es.tEz (V/m) @ t=0.02
-0.2682384283181678
% V (V) @ t=0.02
0.006312025880290348
% es.normE (V/m) @ t=0.04
1.0991985436592275
% es.EX (V/m) @ t=0.04
-1.0621162692713493
% es.EY (V/m) @ t=0.04
0.08182185732574293
% es.EZ (V/m) @ t=0.04
-0.27070556692380454
% es.tEX (V/m) @ t=0.04
-1.062116269271348
% es.tEY (V/m) @ t=0.04
0
% es.tEZ (V/m) @ t=0.04
-0.27070556692380343
% es.Ex (V/m) @ t=0.04
-1.0621162692713493
% es.Ey (V/m) @ t=0.04
0.08182185732574293
% es.Ez (V/m) @ t=0.04
-0.27070556692380454
% es.tEx (V/m) @ t=0.04
-1.062116269271348
% es.tEy (V/m) @ t=0.04
0
% es.tEz (V/m) @ t=0.04
-0.27070556692380343
% V (V) @ t=0.04
0.006370079658933897
% es.normE (V/m) @ t=0.06
1.1093089054776328
% es.EX (V/m) @ t=0.06
-1.071885564898568
% es.EY (V/m) @ t=0.06
0.08257442199975817
% es.EZ (V/m) @ t=0.06
-0.2731954535141776
% es.tEX (V/m) @ t=0.06
-1.0718855648985635
% es.tEY (V/m) @ t=0.06
0
% es.tEZ (V/m) @ t=0.06
-0.27319545351417585
% es.Ex (V/m) @ t=0.06
-1.071885564898568
% es.Ey (V/m) @ t=0.06
0.08257442199975817
% es.Ez (V/m) @ t=0.06
-0.2731954535141776
% es.tEx (V/m) @ t=0.06
-1.0718855648985635
% es.tEy (V/m) @ t=0.06
0
% es.tEz (V/m) @ t=0.06
-0.27319545351417585
% V (V) @ t=0.06
0.006428672293142784
% es.normE (V/m) @ t=0.08
1.1195682478215818
% es.EX (V/m) @ t=0.08
-1.0817988241206247
% es.EY (V/m) @ t=0.08
0.0833380589065939
% es.EZ (V/m) @ t=0.08
-0.27572200078756226
% es.tEX (V/m) @ t=0.08
-1.0817988241206216
% es.tEY (V/m) @ t=0.08
0
% es.tEZ (V/m) @ t=0.08
-0.27572200078756204
% es.Ex (V/m) @ t=0.08
-1.0817988241206247
% es.Ey (V/m) @ t=0.08
0.0833380589065939
% es.Ez (V/m) @ t=0.08
-0.27572200078756226
% es.tEx (V/m) @ t=0.08
-1.0817988241206216
% es.tEy (V/m) @ t=0.08
0
% es.tEz (V/m) @ t=0.08
-0.27572200078756204
% V (V) @ t=0.08
0.0064881289469876265
% es.normE (V/m) @ t=0.1
1.129942260886939
% es.EX (V/m) @ t=0.1
-1.0918228925186808
% es.EY (V/m) @ t=0.1
0.08411021814159486
% es.EZ (V/m) @ t=0.1
-0.27827676588976025
% es.tEX (V/m) @ t=0.1
-1.0918228925186906
% es.tEY (V/m) @ t=0.1
0
% es.tEZ (V/m) @ t=0.1
-0.2782767658897516
% es.Ex (V/m) @ t=0.1
-1.0918228925186808
% es.Ey (V/m) @ t=0.1
0.08411021814159486
% es.Ez (V/m) @ t=0.1
-0.27827676588976025
% es.tEx (V/m) @ t=0.1
-1.0918228925186906
% es.tEy (V/m) @ t=0.1
0
% es.tEz (V/m) @ t=0.1
-0.2782767658897516
% V (V) @ t=0.1
0.00654825063912921
% es.normE (V/m) @ t=0.12
1.1403162739523207
% es.EX (V/m) @ t=0.12
-1.1018469609167507
% es.EY (V/m) @ t=0.12
0.08488237737659399
% es.EZ (V/m) @ t=0.12
-0.2808315309919478
% es.tEX (V/m) @ t=0.12
-1.1018469609167525
% es.tEY (V/m) @ t=0.12
0
% es.tEZ (V/m) @ t=0.12
-0.28083153099194114
% es.Ex (V/m) @ t=0.12
-1.1018469609167507
% es.Ey (V/m) @ t=0.12
0.08488237737659399
% es.Ez (V/m) @ t=0.12
-0.2808315309919478
% es.tEx (V/m) @ t=0.12
-1.1018469609167525
% es.tEy (V/m) @ t=0.12
0
% es.tEz (V/m) @ t=0.12
-0.28083153099194114
% V (V) @ t=0.12
0.006608372331270795
% es.normE (V/m) @ t=0.14
1.1507684375127187
% es.EX (V/m) @ t=0.14
-1.1119465334585588
% es.EY (V/m) @ t=0.14
0.08566037315725439
% es.EZ (V/m) @ t=0.14
-0.283405574973437
% es.tEX (V/m) @ t=0.14
-1.111946533458564
% es.tEY (V/m) @ t=0.14
0
% es.tEZ (V/m) @ t=0.14
-0.2834055749734361
% es.Ex (V/m) @ t=0.14
-1.1119465334585588
% es.Ey (V/m) @ t=0.14
0.08566037315725439
% es.Ez (V/m) @ t=0.14
-0.283405574973437
% es.tEx (V/m) @ t=0.14
-1.111946533458564
% es.tEy (V/m) @ t=0.14
0
% es.tEz (V/m) @ t=0.14
-0.2834055749734361
% V (V) @ t=0.14
0.006668946213450809
% es.normE (V/m) @ t=0.16
1.1617000026225246
% es.EX (V/m) @ t=0.16
-1.1225092739367186
% es.EY (V/m) @ t=0.16
0.08647417228147919
% es.EZ (V/m) @ t=0.16
-0.28609788211629317
% es.tEX (V/m) @ t=0.16
-1.1225092739367195
% es.tEY (V/m) @ t=0.16
0
% es.tEZ (V/m) @ t=0.16
-0.2860978821162945
% es.Ex (V/m) @ t=0.16
-1.1225092739367186
% es.Ey (V/m) @ t=0.16
0.08647417228147919
% es.Ez (V/m) @ t=0.16
-0.28609788211629317
% es.tEx (V/m) @ t=0.16
-1.1225092739367195
% es.tEy (V/m) @ t=0.16
0
% es.tEz (V/m) @ t=0.16
-0.2860978821162945
% V (V) @ t=0.16
0.0067322939821559714
% es.normE (V/m) @ t=0.18
1.1726315677323451
% es.EX (V/m) @ t=0.18
-1.1330720144148616
% es.EY (V/m) @ t=0.18
0.08728797140572447
% es.EZ (V/m) @ t=0.18
-0.2887901892591669
% es.tEX (V/m) @ t=0.18
-1.133072014414859
% es.tEY (V/m) @ t=0.18
0
% es.tEZ (V/m) @ t=0.18
-0.28879018925916355
% es.Ex (V/m) @ t=0.18
-1.1330720144148616
% es.Ey (V/m) @ t=0.18
0.08728797140572447
% es.Ez (V/m) @ t=0.18
-0.2887901892591669
% es.tEx (V/m) @ t=0.18
-1.133072014414859
% es.tEy (V/m) @ t=0.18
0
% es.tEz (V/m) @ t=0.18
-0.28879018925916355
% V (V) @ t=0.18
0.006795641750861131
% es.normE (V/m) @ t=0.2
1.1835631328421865
% es.EX (V/m) @ t=0.2
-1.1436347548930055
% es.EY (V/m) @ t=0.2
0.08810177052997242
% es.EZ (V/m) @ t=0.2
-0.29148249640202284
% es.tEX (V/m) @ t=0.2
-1.1436347548930001
% es.tEY (V/m) @ t=0.2
0
% es.tEZ (V/m) @ t=0.2
-0.2914824964020184
% es.Ex (V/m) @ t=0.2
-1.1436347548930055
% es.Ey (V/m) @ t=0.2
0.08810177052997242
% es.Ez (V/m) @ t=0.2
-0.29148249640202284
% es.tEx (V/m) @ t=0.2
-1.1436347548930001
% es.tEy (V/m) @ t=0.2
0
% es.tEz (V/m) @ t=0.2
-0.2914824964020184
% V (V) @ t=0.2
0.006858989519566292
% es.normE (V/m) @ t=0.22
1.1944946979520605
% es.EX (V/m) @ t=0.22
-1.1541974953711573
% es.EY (V/m) @ t=0.22
0.08891556965421588
% es.EZ (V/m) @ t=0.22
-0.2941748035448861
% es.tEX (V/m) @ t=0.22
-1.1541974953711485
% es.tEY (V/m) @ t=0.22
0
% es.tEZ (V/m) @ t=0.22
-0.2941748035448857
% es.Ex (V/m) @ t=0.22
-1.1541974953711573
% es.Ey (V/m) @ t=0.22
0.08891556965421588
% es.Ez (V/m) @ t=0.22
-0.2941748035448861
% es.tEx (V/m) @ t=0.22
-1.1541974953711485
% es.tEy (V/m) @ t=0.22
0
% es.tEz (V/m) @ t=0.22
-0.2941748035448857
% V (V) @ t=0.22
0.006922337288271453
% es.normE (V/m) @ t=0.24
1.2054262630619494
% es.EX (V/m) @ t=0.24
-1.1647602358492972
% es.EY (V/m) @ t=0.24
0.08972936877846827
% es.EZ (V/m) @ t=0.24
-0.29686711068775806
% es.tEX (V/m) @ t=0.24
-1.164760235849295
% es.tEY (V/m) @ t=0.24
0
% es.tEZ (V/m) @ t=0.24
-0.2968671106877565
% es.Ex (V/m) @ t=0.24
-1.1647602358492972
% es.Ey (V/m) @ t=0.24
0.08972936877846827
% es.Ez (V/m) @ t=0.24
-0.29686711068775806
% es.tEx (V/m) @ t=0.24
-1.164760235849295
% es.tEy (V/m) @ t=0.24
0
% es.tEz (V/m) @ t=0.24
-0.2968671106877565
% V (V) @ t=0.24
0.0069856850569766146
% es.normE (V/m) @ t=0.26
1.2163578281718688
% es.EX (V/m) @ t=0.26
-1.1753229763274526
% es.EY (V/m) @ t=0.26
0.09054316790270461
% es.EZ (V/m) @ t=0.26
-0.299559417830608
% es.tEX (V/m) @ t=0.26
-1.1753229763274575
% es.tEY (V/m) @ t=0.26
0
% es.tEZ (V/m) @ t=0.26
-0.29955941783060247
% es.Ex (V/m) @ t=0.26
-1.1753229763274526
% es.Ey (V/m) @ t=0.26
0.09054316790270461
% es.Ez (V/m) @ t=0.26
-0.299559417830608
% es.tEx (V/m) @ t=0.26
-1.1753229763274575
% es.tEy (V/m) @ t=0.26
0
% es.tEz (V/m) @ t=0.26
-0.29955941783060247
% V (V) @ t=0.26
0.007049032825681774
% es.normE (V/m) @ t=0.28
1.227654773256682
% es.EX (V/m) @ t=0.28
-1.1862389271558635
% es.EY (V/m) @ t=0.28
0.09138386062752935
% es.EZ (V/m) @ t=0.28
-0.30234119645439117
% es.tEX (V/m) @ t=0.28
-1.186238927155859
% es.tEY (V/m) @ t=0.28
0
% es.tEZ (V/m) @ t=0.28
-0.3023411964543943
% es.Ex (V/m) @ t=0.28
-1.1862389271558635
% es.Ey (V/m) @ t=0.28
0.09138386062752935
% es.Ez (V/m) @ t=0.28
-0.30234119645439117
% es.tEx (V/m) @ t=0.28
-1.186238927155859
% es.tEy (V/m) @ t=0.28
0
% es.tEz (V/m) @ t=0.28
-0.3023411964543943
% V (V) @ t=0.28
0.007114509270586613
% es.normE (V/m) @ t=0.3
1.239844671514431
% es.EX (V/m) @ t=0.3
-1.1980180897743793
% es.EY (V/m) @ t=0.3
0.09229027870019035
% es.EZ (V/m) @ t=0.3
-0.30534163468750086
% es.tEX (V/m) @ t=0.3
-1.198018089774381
% es.tEY (V/m) @ t=0.3
0
% es.tEZ (V/m) @ t=0.3
-0.3053416346875011
% es.Ex (V/m) @ t=0.3
-1.1980180897743793
% es.Ey (V/m) @ t=0.3
0.09229027870019035
% es.Ez (V/m) @ t=0.3
-0.30534163468750086
% es.tEx (V/m) @ t=0.3
-1.198018089774381
% es.tEy (V/m) @ t=0.3
0
% es.tEz (V/m) @ t=0.3
-0.3053416346875011
% V (V) @ t=0.3
0.007185187993373738
% es.normE (V/m) @ t=0.32
1.2520345697756081
% es.EX (V/m) @ t=0.32
-1.209797252392896
% es.EY (V/m) @ t=0.32
0.09319669677285575
% es.EZ (V/m) @ t=0.32
-0.3083420729206321
% es.tEX (V/m) @ t=0.32
-1.2097972523928977
% es.tEY (V/m) @ t=0.32
0
% es.tEZ (V/m) @ t=0.32
-0.30834207292063454
% es.Ex (V/m) @ t=0.32
-1.209797252392896
% es.Ey (V/m) @ t=0.32
0.09319669677285575
% es.Ez (V/m) @ t=0.32
-0.3083420729206321
% es.tEx (V/m) @ t=0.32
-1.2097972523928977
% es.tEy (V/m) @ t=0.32
0
% es.tEz (V/m) @ t=0.32
-0.30834207292063454
% V (V) @ t=0.32
0.007255866716160864
% es.normE (V/m) @ t=0.34
1.26422446804011
% es.EX (V/m) @ t=0.34
-1.2215764150114232
% es.EY (V/m) @ t=0.34
0.09410311484548478
% es.EZ (V/m) @ t=0.34
-0.3113425111537418
% es.tEX (V/m) @ t=0.34
-1.2215764150114214
% es.tEY (V/m) @ t=0.34
0
% es.tEZ (V/m) @ t=0.34
-0.31134251115374134
% es.Ex (V/m) @ t=0.34
-1.2215764150114232
% es.Ey (V/m) @ t=0.34
0.09410311484548478
% es.Ez (V/m) @ t=0.34
-0.3113425111537418
% es.tEx (V/m) @ t=0.34
-1.2215764150114214
% es.tEy (V/m) @ t=0.34
0
% es.tEz (V/m) @ t=0.34
-0.31134251115374134
% V (V) @ t=0.34
0.00732654543894799
% es.normE (V/m) @ t=0.36
1.276414366307838
% es.EX (V/m) @ t=0.36
-1.2333555776299452
% es.EY (V/m) @ t=0.36
0.09500953291812542
% es.EZ (V/m) @ t=0.36
-0.314342949386863
% es.tEX (V/m) @ t=0.36
-1.2333555776299505
% es.tEY (V/m) @ t=0.36
0
% es.tEZ (V/m) @ t=0.36
-0.31434294938686236
% es.Ex (V/m) @ t=0.36
-1.2333555776299452
% es.Ey (V/m) @ t=0.36
0.09500953291812542
% es.Ez (V/m) @ t=0.36
-0.314342949386863
% es.tEx (V/m) @ t=0.36
-1.2333555776299505
% es.tEy (V/m) @ t=0.36
0
% es.tEz (V/m) @ t=0.36
-0.31434294938686236
% V (V) @ t=0.36
0.007397224161735115
% es.normE (V/m) @ t=0.38
1.288604264578705
% es.EX (V/m) @ t=0.38
-1.245134740248469
% es.EY (V/m) @ t=0.38
0.09591595099077932
% es.EZ (V/m) @ t=0.38
-0.3173433876199854
% es.tEX (V/m) @ t=0.38
-1.24513474024846
% es.tEY (V/m) @ t=0.38
0
% es.tEZ (V/m) @ t=0.38
-0.3173433876199816
% es.Ex (V/m) @ t=0.38
-1.245134740248469
% es.Ey (V/m) @ t=0.38
0.09591595099077932
% es.Ez (V/m) @ t=0.38
-0.3173433876199854
% es.tEx (V/m) @ t=0.38
-1.24513474024846
% es.tEy (V/m) @ t=0.38
0
% es.tEz (V/m) @ t=0.38
-0.3173433876199816
% V (V) @ t=0.38
0.007467902884522241
% es.normE (V/m) @ t=0.4
1.3007941628526098
% es.EX (V/m) @ t=0.4
-1.256913902866983
% es.EY (V/m) @ t=0.4
0.09682236906342168
% es.EZ (V/m) @ t=0.4
-0.32034382585311016
% es.tEX (V/m) @ t=0.4
-1.2569139028669838
% es.tEY (V/m) @ t=0.4
0
% es.tEZ (V/m) @ t=0.4
-0.32034382585310794
% es.Ex (V/m) @ t=0.4
-1.256913902866983
% es.Ey (V/m) @ t=0.4
0.09682236906342168
% es.Ez (V/m) @ t=0.4
-0.32034382585311016
% es.tEx (V/m) @ t=0.4
-1.2569139028669838
% es.tEy (V/m) @ t=0.4
0
% es.tEz (V/m) @ t=0.4
-0.32034382585310794
% V (V) @ t=0.4
0.0075385816073093685
% es.normE (V/m) @ t=0.42
1.3129840611294914
% es.EX (V/m) @ t=0.42
-1.2686930654855164
% es.EY (V/m) @ t=0.42
0.09772878713605598
% es.EZ (V/m) @ t=0.42
-0.3233442640862174
% es.tEX (V/m) @ t=0.42
-1.26869306548552
% es.tEY (V/m) @ t=0.42
0
% es.tEZ (V/m) @ t=0.42
-0.32334426408622363
% es.Ex (V/m) @ t=0.42
-1.2686930654855164
% es.Ey (V/m) @ t=0.42
0.09772878713605598
% es.Ez (V/m) @ t=0.42
-0.3233442640862174
% es.tEx (V/m) @ t=0.42
-1.26869306548552
% es.tEy (V/m) @ t=0.42
0
% es.tEz (V/m) @ t=0.42
-0.32334426408622363
% V (V) @ t=0.42
0.007609260330096493
% es.normE (V/m) @ t=0.44
1.325173959409259
% es.EX (V/m) @ t=0.44
-1.2804722281040481
% es.EY (V/m) @ t=0.44
0.09863520520872854
% es.EZ (V/m) @ t=0.44
-0.32634470231933976
% es.tEX (V/m) @ t=0.44
-1.280472228104058
% es.tEY (V/m) @ t=0.44
0
% es.tEZ (V/m) @ t=0.44
-0.3263447023193393
% es.Ex (V/m) @ t=0.44
-1.2804722281040481
% es.Ey (V/m) @ t=0.44
0.09863520520872854
% es.Ez (V/m) @ t=0.44
-0.32634470231933976
% es.tEx (V/m) @ t=0.44
-1.280472228104058
% es.tEy (V/m) @ t=0.44
0
% es.tEz (V/m) @ t=0.44
-0.3263447023193393
% V (V) @ t=0.44
0.007679939052883618
% es.normE (V/m) @ t=0.46
1.337363857691808
% es.EX (V/m) @ t=0.46
-1.2922513907225621
% es.EY (V/m) @ t=0.46
0.09954162328136296
% es.EZ (V/m) @ t=0.46
-0.3293451405524581
% es.tEX (V/m) @ t=0.46
-1.2922513907225586
% es.tEY (V/m) @ t=0.46
0
% es.tEZ (V/m) @ t=0.46
-0.3293451405524568
% es.Ex (V/m) @ t=0.46
-1.2922513907225621
% es.Ey (V/m) @ t=0.46
0.09954162328136296
% es.Ez (V/m) @ t=0.46
-0.3293451405524581
% es.tEx (V/m) @ t=0.46
-1.2922513907225586
% es.tEy (V/m) @ t=0.46
0
% es.tEz (V/m) @ t=0.46
-0.3293451405524568
% V (V) @ t=0.46
0.007750617775670744
% es.normE (V/m) @ t=0.48
1.3495537559770945
% es.EX (V/m) @ t=0.48
-1.3040305533410868
% es.EY (V/m) @ t=0.48
0.10044804135400975
% es.EZ (V/m) @ t=0.48
-0.33234557878557647
% es.tEX (V/m) @ t=0.48
-1.304030553341084
% es.tEY (V/m) @ t=0.48
0
% es.tEZ (V/m) @ t=0.48
-0.332345578785576
% es.Ex (V/m) @ t=0.48
-1.3040305533410868
% es.Ey (V/m) @ t=0.48
0.10044804135400975
% es.Ez (V/m) @ t=0.48
-0.33234557878557647
% es.tEx (V/m) @ t=0.48
-1.304030553341084
% es.tEy (V/m) @ t=0.48
0
% es.tEz (V/m) @ t=0.48
-0.332345578785576
% V (V) @ t=0.48
0.00782129649845787
% es.normE (V/m) @ t=0.5
1.3617436542650405
% es.EX (V/m) @ t=0.5
-1.3158097159596176
% es.EY (V/m) @ t=0.5
0.10135445942665477
% es.EZ (V/m) @ t=0.5
-0.33534601701869704
% es.tEX (V/m) @ t=0.5
-1.3158097159596203
% es.tEY (V/m) @ t=0.5
0
% es.tEZ (V/m) @ t=0.5
-0.3353460170186988
% es.Ex (V/m) @ t=0.5
-1.3158097159596176
% es.Ey (V/m) @ t=0.5
0.10135445942665477
% es.Ez (V/m) @ t=0.5
-0.33534601701869704
% es.tEx (V/m) @ t=0.5
-1.3158097159596203
% es.tEy (V/m) @ t=0.5
0
% es.tEz (V/m) @ t=0.5
-0.3353460170186988
% V (V) @ t=0.5
0.007891975221244997
% es.normE (V/m) @ t=0.52
1.3739335525555578
% es.EX (V/m) @ t=0.52
-1.327588878578137
% es.EY (V/m) @ t=0.52
0.10226087749929264
% es.EZ (V/m) @ t=0.52
-0.3383464552518185
% es.tEX (V/m) @ t=0.52
-1.327588878578144
% es.tEY (V/m) @ t=0.52
0
% es.tEZ (V/m) @ t=0.52
-0.3383464552518145
% es.Ex (V/m) @ t=0.52
-1.327588878578137
% es.Ey (V/m) @ t=0.52
0.10226087749929264
% es.Ez (V/m) @ t=0.52
-0.3383464552518185
% es.tEx (V/m) @ t=0.52
-1.327588878578144
% es.tEy (V/m) @ t=0.52
0
% es.tEz (V/m) @ t=0.52
-0.3383464552518145
% V (V) @ t=0.52
0.007962653944032122
% es.normE (V/m) @ t=0.54
1.3861234508486036
% es.EX (V/m) @ t=0.54
-1.3393680411966722
% es.EY (V/m) @ t=0.54
0.10316729557193677
% es.EZ (V/m) @ t=0.54
-0.34134689348493374
% es.tEX (V/m) @ t=0.54
-1.3393680411966677
% es.tEY (V/m) @ t=0.54
0
% es.tEZ (V/m) @ t=0.54
-0.34134689348493374
% es.Ex (V/m) @ t=0.54
-1.3393680411966722
% es.Ey (V/m) @ t=0.54
0.10316729557193677
% es.Ez (V/m) @ t=0.54
-0.34134689348493374
% es.tEx (V/m) @ t=0.54
-1.3393680411966677
% es.tEy (V/m) @ t=0.54
0
% es.tEz (V/m) @ t=0.54
-0.34134689348493374
% V (V) @ t=0.54
0.008033332666819248
% es.normE (V/m) @ t=0.56
1.3991535672065756
% es.EX (V/m) @ t=0.56
-1.351958655384701
% es.EY (V/m) @ t=0.56
0.10413707565976149
% es.EZ (V/m) @ t=0.56
-0.34455563416089285
% es.tEX (V/m) @ t=0.56
-1.3519586553847045
% es.tEY (V/m) @ t=0.56
0
% es.tEZ (V/m) @ t=0.56
-0.3445556341608942
% es.Ex (V/m) @ t=0.56
-1.351958655384701
% es.Ey (V/m) @ t=0.56
0.10413707565976149
% es.Ez (V/m) @ t=0.56
-0.34455563416089285
% es.tEx (V/m) @ t=0.56
-1.3519586553847045
% es.tEy (V/m) @ t=0.56
0
% es.tEz (V/m) @ t=0.56
-0.3445556341608942
% V (V) @ t=0.56
0.008108850470797051
% es.normE (V/m) @ t=0.58
1.4127657069112929
% es.EX (V/m) @ t=0.58
-1.3651113662215497
% es.EY (V/m) @ t=0.58
0.1051507469392669
% es.EZ (V/m) @ t=0.58
-0.34790866700341483
% es.tEX (V/m) @ t=0.58
-1.3651113662215302
% es.tEY (V/m) @ t=0.58
0
% es.tEZ (V/m) @ t=0.58
-0.3479086670034146
% es.Ex (V/m) @ t=0.58
-1.3651113662215497
% es.Ey (V/m) @ t=0.58
0.1051507469392669
% es.Ez (V/m) @ t=0.58
-0.34790866700341483
% es.tEx (V/m) @ t=0.58
-1.3651113662215302
% es.tEy (V/m) @ t=0.58
0
% es.tEz (V/m) @ t=0.58
-0.3479086670034146
% V (V) @ t=0.58
0.008187720331043641
% es.normE (V/m) @ t=0.6
1.4263778466168981
% es.EX (V/m) @ t=0.6
-1.3782640770583567
% es.EY (V/m) @ t=0.6
0.1061644182187696
% es.EZ (V/m) @ t=0.6
-0.35126169984595235
% es.tEX (V/m) @ t=0.6
-1.3782640770583487
% es.tEY (V/m) @ t=0.6
0
% es.tEZ (V/m) @ t=0.6
-0.35126169984595634
% es.Ex (V/m) @ t=0.6
-1.3782640770583567
% es.Ey (V/m) @ t=0.6
0.1061644182187696
% es.Ez (V/m) @ t=0.6
-0.35126169984595235
% es.tEx (V/m) @ t=0.6
-1.3782640770583487
% es.tEy (V/m) @ t=0.6
0
% es.tEz (V/m) @ t=0.6
-0.35126169984595634
% V (V) @ t=0.6
0.008266590191290233
% es.normE (V/m) @ t=0.62
1.4399899863234182
% es.EX (V/m) @ t=0.62
-1.3914167878951753
% es.EY (V/m) @ t=0.62
0.10717808949828567
% es.EZ (V/m) @ t=0.62
-0.3546147326885054
% es.tEX (V/m) @ t=0.62
-1.391416787895169
% es.tEY (V/m) @ t=0.62
0
% es.tEZ (V/m) @ t=0.62
-0.3546147326885052
% es.Ex (V/m) @ t=0.62
-1.3914167878951753
% es.Ey (V/m) @ t=0.62
0.10717808949828567
% es.Ez (V/m) @ t=0.62
-0.3546147326885054
% es.tEx (V/m) @ t=0.62
-1.391416787895169
% es.tEy (V/m) @ t=0.62
0
% es.tEz (V/m) @ t=0.62
-0.3546147326885052
% V (V) @ t=0.62
0.008345460051536822
% es.normE (V/m) @ t=0.64
1.453602126030797
% es.EX (V/m) @ t=0.64
-1.4045694987319868
% es.EY (V/m) @ t=0.64
0.10819176077778303
% es.EZ (V/m) @ t=0.64
-0.3579677655310358
% es.tEX (V/m) @ t=0.64
-1.4045694987319735
% es.tEY (V/m) @ t=0.64
0
% es.tEZ (V/m) @ t=0.64
-0.35796776553103626
% es.Ex (V/m) @ t=0.64
-1.4045694987319868
% es.Ey (V/m) @ t=0.64
0.10819176077778303
% es.Ez (V/m) @ t=0.64
-0.3579677655310358
% es.tEx (V/m) @ t=0.64
-1.4045694987319735
% es.tEy (V/m) @ t=0.64
0
% es.tEz (V/m) @ t=0.64
-0.35796776553103626
% V (V) @ t=0.64
0.008424329911783414
% es.normE (V/m) @ t=0.66
1.4672142657390286
% es.EX (V/m) @ t=0.66
-1.4177222095687982
% es.EY (V/m) @ t=0.66
0.10920543205730188
% es.EZ (V/m) @ t=0.66
-0.36132079837357334
% es.tEX (V/m) @ t=0.66
-1.4177222095688062
% es.tEY (V/m) @ t=0.66
0
% es.tEZ (V/m) @ t=0.66
-0.36132079837358155
% es.Ex (V/m) @ t=0.66
-1.4177222095687982
% es.Ey (V/m) @ t=0.66
0.10920543205730188
% es.Ez (V/m) @ t=0.66
-0.36132079837357334
% es.tEx (V/m) @ t=0.66
-1.4177222095688062
% es.tEy (V/m) @ t=0.66
0
% es.tEz (V/m) @ t=0.66
-0.36132079837358155
% V (V) @ t=0.66
0.008503199772030004
% es.normE (V/m) @ t=0.68
1.480826405448112
% es.EX (V/m) @ t=0.68
-1.4308749204056426
% es.EY (V/m) @ t=0.68
0.1102191033367797
% es.EZ (V/m) @ t=0.68
-0.364673831216102
% es.tEX (V/m) @ t=0.68
-1.4308749204056337
% es.tEY (V/m) @ t=0.68
0
% es.tEZ (V/m) @ t=0.68
-0.36467383121610375
% es.Ex (V/m) @ t=0.68
-1.4308749204056426
% es.Ey (V/m) @ t=0.68
0.1102191033367797
% es.Ez (V/m) @ t=0.68
-0.364673831216102
% es.tEx (V/m) @ t=0.68
-1.4308749204056337
% es.tEy (V/m) @ t=0.68
0
% es.tEz (V/m) @ t=0.68
-0.36467383121610375
% V (V) @ t=0.68
0.008582069632276595
% es.normE (V/m) @ t=0.7
1.4944385451579727
% es.EX (V/m) @ t=0.7
-1.4440276312424531
% es.EY (V/m) @ t=0.7
0.11123277461630288
% es.EZ (V/m) @ t=0.7
-0.3680268640586435
% es.tEX (V/m) @ t=0.7
-1.4440276312424594
% es.tEY (V/m) @ t=0.7
0
% es.tEZ (V/m) @ t=0.7
-0.36802686405864016
% es.Ex (V/m) @ t=0.7
-1.4440276312424531
% es.Ey (V/m) @ t=0.7
0.11123277461630288
% es.Ez (V/m) @ t=0.7
-0.3680268640586435
% es.tEx (V/m) @ t=0.7
-1.4440276312424594
% es.tEy (V/m) @ t=0.7
0
% es.tEz (V/m) @ t=0.7
-0.36802686405864016
% V (V) @ t=0.7
0.008660939492523187
% es.normE (V/m) @ t=0.72
1.5080506848686384
% es.EX (V/m) @ t=0.72
-1.457180342079293
% es.EY (V/m) @ t=0.72
0.11224644589579402
% es.EZ (V/m) @ t=0.72
-0.37137989690117745
% es.tEX (V/m) @ t=0.72
-1.457180342079294
% es.tEY (V/m) @ t=0.72
0
% es.tEZ (V/m) @ t=0.72
-0.37137989690117656
% es.Ex (V/m) @ t=0.72
-1.457180342079293
% es.Ey (V/m) @ t=0.72
0.11224644589579402
% es.Ez (V/m) @ t=0.72
-0.37137989690117745
% es.tEx (V/m) @ t=0.72
-1.457180342079294
% es.tEy (V/m) @ t=0.72
0
% es.tEz (V/m) @ t=0.72
-0.37137989690117656
% V (V) @ t=0.72
0.008739809352769776
% es.normE (V/m) @ t=0.74
1.5216628245800372
% es.EX (V/m) @ t=0.74
-1.470333052916101
% es.EY (V/m) @ t=0.74
0.11326011717531448
% es.EZ (V/m) @ t=0.74
-0.37473292974371764
% es.tEX (V/m) @ t=0.74
-1.4703330529160983
% es.tEY (V/m) @ t=0.74
0
% es.tEZ (V/m) @ t=0.74
-0.37473292974371475
% es.Ex (V/m) @ t=0.74
-1.470333052916101
% es.Ey (V/m) @ t=0.74
0.11326011717531448
% es.Ez (V/m) @ t=0.74
-0.37473292974371764
% es.tEx (V/m) @ t=0.74
-1.4703330529160983
% es.tEy (V/m) @ t=0.74
0
% es.tEz (V/m) @ t=0.74
-0.37473292974371475
% V (V) @ t=0.74
0.008818679213016366
% es.normE (V/m) @ t=0.76
1.53527496429219
% es.EX (V/m) @ t=0.76
-1.483485763752924
% es.EY (V/m) @ t=0.76
0.11427378845482
% es.EZ (V/m) @ t=0.76
-0.37808596258626137
% es.tEX (V/m) @ t=0.76
-1.483485763752931
% es.tEY (V/m) @ t=0.76
0
% es.tEZ (V/m) @ t=0.76
-0.37808596258626714
% es.Ex (V/m) @ t=0.76
-1.483485763752924
% es.Ey (V/m) @ t=0.76
0.11427378845482
% es.Ez (V/m) @ t=0.76
-0.37808596258626137
% es.tEx (V/m) @ t=0.76
-1.483485763752931
% es.tEy (V/m) @ t=0.76
0
% es.tEz (V/m) @ t=0.76
-0.37808596258626714
% V (V) @ t=0.76
0.008897549073262958
% es.normE (V/m) @ t=0.78
1.5488871040050523
% es.EX (V/m) @ t=0.78
-1.4966384745897408
% es.EY (V/m) @ t=0.78
0.11528745973433951
% es.EZ (V/m) @ t=0.78
-0.3814389954287787
% es.tEX (V/m) @ t=0.78
-1.4966384745897514
% es.tEY (V/m) @ t=0.78
0
% es.tEZ (V/m) @ t=0.78
-0.38143899542877335
% es.Ex (V/m) @ t=0.78
-1.4966384745897408
% es.Ey (V/m) @ t=0.78
0.11528745973433951
% es.Ez (V/m) @ t=0.78
-0.3814389954287787
% es.tEx (V/m) @ t=0.78
-1.4966384745897514
% es.tEy (V/m) @ t=0.78
0
% es.tEz (V/m) @ t=0.78
-0.38143899542877335
% V (V) @ t=0.78
0.008976418933509547
% es.normE (V/m) @ t=0.8
1.5624992437186362
% es.EX (V/m) @ t=0.8
-1.5097911854265718
% es.EY (V/m) @ t=0.8
0.116301131013829
% es.EZ (V/m) @ t=0.8
-0.3847920282713315
% es.tEX (V/m) @ t=0.8
-1.5097911854265629
% es.tEY (V/m) @ t=0.8
0
% es.tEZ (V/m) @ t=0.8
-0.38479202827132575
% es.Ex (V/m) @ t=0.8
-1.5097911854265718
% es.Ey (V/m) @ t=0.8
0.116301131013829
% es.Ez (V/m) @ t=0.8
-0.3847920282713315
% es.tEx (V/m) @ t=0.8
-1.5097911854265629
% es.tEy (V/m) @ t=0.8
0
% es.tEz (V/m) @ t=0.8
-0.38479202827132575
% V (V) @ t=0.8
0.009055288793756139
% es.normE (V/m) @ t=0.82
1.5761113834328855
% es.EX (V/m) @ t=0.82
-1.5229438962633868
% es.EY (V/m) @ t=0.82
0.1173148022933414
% es.EZ (V/m) @ t=0.82
-0.38814506111386615
% es.tEX (V/m) @ t=0.82
-1.5229438962633814
% es.tEY (V/m) @ t=0.82
0
% es.tEZ (V/m) @ t=0.82
-0.3881450611138568
% es.Ex (V/m) @ t=0.82
-1.5229438962633868
% es.Ey (V/m) @ t=0.82
0.1173148022933414
% es.Ez (V/m) @ t=0.82
-0.38814506111386615
% es.tEx (V/m) @ t=0.82
-1.5229438962633814
% es.tEy (V/m) @ t=0.82
0
% es.tEz (V/m) @ t=0.82
-0.3881450611138568
% V (V) @ t=0.82
0.009134158654002729
% es.normE (V/m) @ t=0.84
1.5911679316121896
% es.EX (V/m) @ t=0.84
-1.53749241734178
% es.EY (V/m) @ t=0.84
0.11843573962241516
% es.EZ (V/m) @ t=0.84
-0.39185339118153717
% es.tEX (V/m) @ t=0.84
-1.537492417341788
% es.tEY (V/m) @ t=0.84
0
% es.tEZ (V/m) @ t=0.84
-0.39185339118153806
% es.Ex (V/m) @ t=0.84
-1.53749241734178
% es.Ey (V/m) @ t=0.84
0.11843573962241516
% es.Ez (V/m) @ t=0.84
-0.39185339118153717
% es.tEx (V/m) @ t=0.84
-1.537492417341788
% es.tEy (V/m) @ t=0.84
0
% es.tEz (V/m) @ t=0.84
-0.39185339118153806
% V (V) @ t=0.84
0.009221408443644592
% es.normE (V/m) @ t=0.86
1.6064008669678587
% es.EX (V/m) @ t=0.86
-1.5522113909155264
% es.EY (V/m) @ t=0.86
0.11956977598544699
% es.EZ (V/m) @ t=0.86
-0.39560510916597336
% es.tEX (V/m) @ t=0.86
-1.5522113909155255
% es.tEY (V/m) @ t=0.86
0
% es.tEZ (V/m) @ t=0.86
-0.39560510916597735
% es.Ex (V/m) @ t=0.86
-1.5522113909155264
% es.Ey (V/m) @ t=0.86
0.11956977598544699
% es.Ez (V/m) @ t=0.86
-0.39560510916597336
% es.tEx (V/m) @ t=0.86
-1.5522113909155255
% es.tEy (V/m) @ t=0.86
0
% es.tEz (V/m) @ t=0.86
-0.39560510916597735
% V (V) @ t=0.86
0.009309681567142038
% es.normE (V/m) @ t=0.88
1.621633802323642
% es.EX (V/m) @ t=0.88
-1.5669303644892638
% es.EY (V/m) @ t=0.88
0.12070381234852134
% es.EZ (V/m) @ t=0.88
-0.3993568271504384
% es.tEX (V/m) @ t=0.88
-1.5669303644892612
% es.tEY (V/m) @ t=0.88
0
% es.tEZ (V/m) @ t=0.88
-0.39935682715043797
% es.Ex (V/m) @ t=0.88
-1.5669303644892638
% es.Ey (V/m) @ t=0.88
0.12070381234852134
% es.Ez (V/m) @ t=0.88
-0.3993568271504384
% es.tEx (V/m) @ t=0.88
-1.5669303644892612
% es.tEy (V/m) @ t=0.88
0
% es.tEz (V/m) @ t=0.88
-0.39935682715043797
% V (V) @ t=0.88
0.009397954690639485
% es.normE (V/m) @ t=0.9
1.6368667376795105
% es.EX (V/m) @ t=0.9
-1.5816493380629781
% es.EY (V/m) @ t=0.9
0.12183784871159398
% es.EZ (V/m) @ t=0.9
-0.4031085451348986
% es.tEX (V/m) @ t=0.9
-1.5816493380629826
% es.tEY (V/m) @ t=0.9
0
% es.tEZ (V/m) @ t=0.9
-0.4031085451349057
% es.Ex (V/m) @ t=0.9
-1.5816493380629781
% es.Ey (V/m) @ t=0.9
0.12183784871159398
% es.Ez (V/m) @ t=0.9
-0.4031085451348986
% es.tEx (V/m) @ t=0.9
-1.5816493380629826
% es.tEy (V/m) @ t=0.9
0
% es.tEz (V/m) @ t=0.9
-0.4031085451349057
% V (V) @ t=0.9
0.009486227814136935
% es.normE (V/m) @ t=0.92
1.652099673035519
% es.EX (V/m) @ t=0.92
-1.5963683116367298
% es.EY (V/m) @ t=0.92
0.12297188507464618
% es.EZ (V/m) @ t=0.92
-0.40686026311935564
% es.tEX (V/m) @ t=0.92
-1.5963683116367378
% es.tEY (V/m) @ t=0.92
0
% es.tEZ (V/m) @ t=0.92
-0.4068602631193521
% es.Ex (V/m) @ t=0.92
-1.5963683116367298
% es.Ey (V/m) @ t=0.92
0.12297188507464618
% es.Ez (V/m) @ t=0.92
-0.40686026311935564
% es.tEx (V/m) @ t=0.92
-1.5963683116367378
% es.tEy (V/m) @ t=0.92
0
% es.tEz (V/m) @ t=0.92
-0.4068602631193521
% V (V) @ t=0.92
0.00957450093763438
% es.normE (V/m) @ t=0.94
1.6673326083916056
% es.EX (V/m) @ t=0.94
-1.611087285210453
% es.EY (V/m) @ t=0.94
0.12410592143771348
% es.EZ (V/m) @ t=0.94
-0.410611981103818
% es.tEX (V/m) @ t=0.94
-1.6110872852104325
% es.tEY (V/m) @ t=0.94
0
% es.tEZ (V/m) @ t=0.94
-0.41061198110382513
% es.Ex (V/m) @ t=0.94
-1.611087285210453
% es.Ey (V/m) @ t=0.94
0.12410592143771348
% es.Ez (V/m) @ t=0.94
-0.410611981103818
% es.tEx (V/m) @ t=0.94
-1.6110872852104325
% es.tEy (V/m) @ t=0.94
0
% es.tEz (V/m) @ t=0.94
-0.41061198110382513
% V (V) @ t=0.94
0.009662774061131828
% es.normE (V/m) @ t=0.96
1.6825655437478046
% es.EX (V/m) @ t=0.96
-1.6258062587841922
% es.EY (V/m) @ t=0.96
0.12523995780076735
% es.EZ (V/m) @ t=0.96
-0.41436369908827064
% es.tEX (V/m) @ t=0.96
-1.6258062587841948
% es.tEY (V/m) @ t=0.96
0
% es.tEZ (V/m) @ t=0.96
-0.4143636990882751
% es.Ex (V/m) @ t=0.96
-1.6258062587841922
% es.Ey (V/m) @ t=0.96
0.12523995780076735
% es.Ez (V/m) @ t=0.96
-0.41436369908827064
% es.tEx (V/m) @ t=0.96
-1.6258062587841948
% es.tEy (V/m) @ t=0.96
0
% es.tEz (V/m) @ t=0.96
-0.4143636990882751
% V (V) @ t=0.96
0.009751047184629276
% es.normE (V/m) @ t=0.98
1.6977984791041014
% es.EX (V/m) @ t=0.98
-1.640525232357934
% es.EY (V/m) @ t=0.98
0.12637399416383643
% es.EZ (V/m) @ t=0.98
-0.4181154170727095
% es.tEX (V/m) @ t=0.98
-1.6405252323579393
% es.tEY (V/m) @ t=0.98
0
% es.tEZ (V/m) @ t=0.98
-0.4181154170727126
% es.Ex (V/m) @ t=0.98
-1.640525232357934
% es.Ey (V/m) @ t=0.98
0.12637399416383643
% es.Ez (V/m) @ t=0.98
-0.4181154170727095
% es.tEx (V/m) @ t=0.98
-1.6405252323579393
% es.tEy (V/m) @ t=0.98
0
% es.tEz (V/m) @ t=0.98
-0.4181154170727126
% V (V) @ t=0.98
0.009839320308126724
% es.normE (V/m) @ t=1
1.7130314144604923
% es.EX (V/m) @ t=1
-1.6552442059316652
% es.EY (V/m) @ t=1
0.12750803052691084
% es.EZ (V/m) @ t=1
-0.4218671350571839
% es.tEX (V/m) @ t=1
-1.6552442059316608
% es.tEY (V/m) @ t=1
0
% es.tEZ (V/m) @ t=1
-0.4218671350571874
% es.Ex (V/m) @ t=1
-1.6552442059316652
% es.Ey (V/m) @ t=1
0.12750803052691084
% es.Ez (V/m) @ t=1
-0.4218671350571839
% es.tEx (V/m) @ t=1
-1.6552442059316608
% es.tEy (V/m) @ t=1
0
% es.tEz (V/m) @ t=1
-0.4218671350571874
% V (V) @ t=1
0.00992759343162417
% es.normE (V/m) @ t=1.02
1.728264349816969
% es.EX (V/m) @ t=1.02
-1.669963179505399
% es.EY (V/m) @ t=1.02
0.12864206688996216
% es.EZ (V/m) @ t=1.02
-0.42561885304162583
% es.tEX (V/m) @ t=1.02
-1.6699631795054088
% es.tEY (V/m) @ t=1.02
0
% es.tEZ (V/m) @ t=1.02
-0.4256188530416196
% es.Ex (V/m) @ t=1.02
-1.669963179505399
% es.Ey (V/m) @ t=1.02
0.12864206688996216
% es.Ez (V/m) @ t=1.02
-0.42561885304162583
% es.tEx (V/m) @ t=1.02