% Model:              1 neuron.mph
% Version:            COMSOL 6.0.0.405
% Date:               Mar 16 2023, 10:07
% Dimension:          0
% Nodes:              14017
% Expressions:        14017
% Description:        Electric field norm, Electric field, X component, Electric field, Y component, Electric field, Z component, Tangential electric field, X component, Tangential electric field, Y component, Tangential electric field, Z component, Electric field, x component, Electric field, y component, Electric field, z component, Tangential electric field, x component, Tangential electric field, y component, Tangential electric field, z component, Electric potential
% Length unit:        mm
% x
2
% y
12.2
% z
1.33
% es.normE (V/m) @ t=0
1.2951748831934462
% es.EX (V/m) @ t=0
-1.1912722018859427
% es.EY (V/m) @ t=0
0.09292742569525414
% es.EZ (V/m) @ t=0
0.4982132959574979
% es.tEX (V/m) @ t=0
-1.1912722018859379
% es.tEY (V/m) @ t=0
0
% es.tEZ (V/m) @ t=0
0.4982132959574983
% es.Ex (V/m) @ t=0
-1.1912722018859427
% es.Ey (V/m) @ t=0
0.09292742569525414
% es.Ez (V/m) @ t=0
0.4982132959574979
% es.tEx (V/m) @ t=0
-1.1912722018859379
% es.tEy (V/m) @ t=0
0
% es.tEz (V/m) @ t=0
0.4982132959574983
% V (V) @ t=0
0.007231219338766824
% es.normE (V/m) @ t=0.02
1.118667962915152
% es.EX (V/m) @ t=0.02
-1.02892517798981
% es.EY (V/m) @ t=0.02
0.0802632413136195
% es.EZ (V/m) @ t=0.02
0.43031660082340745
% es.tEX (V/m) @ t=0.02
-1.028925177989807
% es.tEY (V/m) @ t=0.02
0
% es.tEZ (V/m) @ t=0.02
0.43031660082341006
% es.Ex (V/m) @ t=0.02
-1.02892517798981
% es.Ey (V/m) @ t=0.02
0.0802632413136195
% es.Ez (V/m) @ t=0.02
0.43031660082340745
% es.tEx (V/m) @ t=0.02
-1.028925177989807
% es.tEy (V/m) @ t=0.02
0
% es.tEz (V/m) @ t=0.02
0.43031660082341006
% V (V) @ t=0.02
0.006245746038013759
% es.normE (V/m) @ t=0.04
1.1289581225169862
% es.EX (V/m) @ t=0.04
-1.03838983071218
% es.EY (V/m) @ t=0.04
0.08100154998126002
% es.EZ (V/m) @ t=0.04
0.43427490463948487
% es.tEX (V/m) @ t=0.04
-1.0383898307121777
% es.tEY (V/m) @ t=0.04
0
% es.tEZ (V/m) @ t=0.04
0.4342749046394907
% es.Ex (V/m) @ t=0.04
-1.03838983071218
% es.Ey (V/m) @ t=0.04
0.08100154998126002
% es.Ez (V/m) @ t=0.04
0.43427490463948487
% es.tEx (V/m) @ t=0.04
-1.0383898307121777
% es.tEy (V/m) @ t=0.04
0
% es.tEz (V/m) @ t=0.04
0.4342749046394907
% V (V) @ t=0.04
0.006303198010328564
% es.normE (V/m) @ t=0.06
1.1393407664044335
% es.EX (V/m) @ t=0.06
-1.0479395475363353
% es.EY (V/m) @ t=0.06
0.08174649539613538
% es.EZ (V/m) @ t=0.06
0.43826878612358244
% es.tEX (V/m) @ t=0.06
-1.0479395475363331
% es.tEY (V/m) @ t=0.06
0
% es.tEZ (V/m) @ t=0.06
0.43826878612357945
% es.Ex (V/m) @ t=0.06
-1.0479395475363353
% es.Ey (V/m) @ t=0.06
0.08174649539613538
% es.Ez (V/m) @ t=0.06
0.43826878612358244
% es.tEx (V/m) @ t=0.06
-1.0479395475363331
% es.tEy (V/m) @ t=0.06
0
% es.tEz (V/m) @ t=0.06
0.43826878612357945
% V (V) @ t=0.06
0.006361166272683636
% es.normE (V/m) @ t=0.08
1.1498825465778193
% es.EX (V/m) @ t=0.08
-1.0576356356315824
% es.EY (V/m) @ t=0.08
0.08250285686298492
% es.EZ (V/m) @ t=0.08
0.44232387931474637
% es.tEX (V/m) @ t=0.08
-1.0576356356315788
% es.tEY (V/m) @ t=0.08
0
% es.tEZ (V/m) @ t=0.08
0.44232387931474904
% es.Ex (V/m) @ t=0.08
-1.0576356356315824
% es.Ey (V/m) @ t=0.08
0.08250285686298492
% es.Ez (V/m) @ t=0.08
0.44232387931474637
% es.tEx (V/m) @ t=0.08
-1.0576356356315788
% es.tEy (V/m) @ t=0.08
0
% es.tEz (V/m) @ t=0.08
0.44232387931474904
% V (V) @ t=0.08
0.0064200231366781345
% es.normE (V/m) @ t=0.1
1.1605336107590598
% es.EX (V/m) @ t=0.1
-1.067432241588262
% es.EY (V/m) @ t=0.1
0.08326705810005569
% es.EZ (V/m) @ t=0.1
0.4464210085546861
% es.tEX (V/m) @ t=0.1
-1.067432241588258
% es.tEY (V/m) @ t=0.1
0
% es.tEZ (V/m) @ t=0.1
0.4464210085546867
% es.Ex (V/m) @ t=0.1
-1.067432241588262
% es.Ey (V/m) @ t=0.1
0.08326705810005569
% es.Ez (V/m) @ t=0.1
0.4464210085546861
% es.tEx (V/m) @ t=0.1
-1.067432241588258
% es.tEy (V/m) @ t=0.1
0
% es.tEz (V/m) @ t=0.1
0.4464210085546867
% V (V) @ t=0.1
0.006479490232009617
% es.normE (V/m) @ t=0.12
1.171184674940302
% es.EX (V/m) @ t=0.12
-1.0772288475449443
% es.EY (V/m) @ t=0.12
0.0840312593371238
% es.EZ (V/m) @ t=0.12
0.4505181377946242
% es.tEX (V/m) @ t=0.12
-1.077228847544939
% es.tEY (V/m) @ t=0.12
0
% es.tEZ (V/m) @ t=0.12
0.45051813779462435
% es.Ex (V/m) @ t=0.12
-1.0772288475449443
% es.Ey (V/m) @ t=0.12
0.0840312593371238
% es.Ez (V/m) @ t=0.12
0.4505181377946242
% es.tEx (V/m) @ t=0.12
-1.077228847544939
% es.tEy (V/m) @ t=0.12
0
% es.tEz (V/m) @ t=0.12
0.45051813779462435
% V (V) @ t=0.12
0.006538957327341099
% es.normE (V/m) @ t=0.14
1.1819468570151566
% es.EX (V/m) @ t=0.14
-1.0871276565644115
% es.EY (V/m) @ t=0.14
0.08480343401277451
% es.EZ (V/m) @ t=0.14
0.4546580120304841
% es.tEX (V/m) @ t=0.14
-1.0871276565644052
% es.tEY (V/m) @ t=0.14
0
% es.tEZ (V/m) @ t=0.14
0.4546580120304782
% es.Ex (V/m) @ t=0.14
-1.0871276565644115
% es.Ey (V/m) @ t=0.14
0.08480343401277451
% es.Ez (V/m) @ t=0.14
0.4546580120304841
% es.tEx (V/m) @ t=0.14
-1.0871276565644052
% es.tEy (V/m) @ t=0.14
0
% es.tEz (V/m) @ t=0.14
0.4546580120304782
% V (V) @ t=0.14
0.006599044763650903
% es.normE (V/m) @ t=0.16
1.1931657839135386
% es.EX (V/m) @ t=0.16
-1.097446566418748
% es.EY (V/m) @ t=0.16
0.08560838312897956
% es.EZ (V/m) @ t=0.16
0.458973587541677
% es.tEX (V/m) @ t=0.16
-1.0974465664187454
% es.tEY (V/m) @ t=0.16
0
% es.tEZ (V/m) @ t=0.16
0.4589735875416743
% es.Ex (V/m) @ t=0.16
-1.097446566418748
% es.Ey (V/m) @ t=0.16
0.08560838312897956
% es.Ez (V/m) @ t=0.16
0.458973587541677
% es.tEx (V/m) @ t=0.16
-1.0974465664187454
% es.tEy (V/m) @ t=0.16
0
% es.tEz (V/m) @ t=0.16
0.4589735875416743
% V (V) @ t=0.16
0.006661682082085387
% es.normE (V/m) @ t=0.18
1.2043847108119166
% es.EX (V/m) @ t=0.18
-1.1077654762730846
% es.EY (V/m) @ t=0.18
0.08641333224517389
% es.EZ (V/m) @ t=0.18
0.4632891630528619
% es.tEX (V/m) @ t=0.18
-1.1077654762730802
% es.tEY (V/m) @ t=0.18
0
% es.tEZ (V/m) @ t=0.18
0.46328916305285617
% es.Ex (V/m) @ t=0.18
-1.1077654762730846
% es.Ey (V/m) @ t=0.18
0.08641333224517389
% es.Ez (V/m) @ t=0.18
0.4632891630528619
% es.tEx (V/m) @ t=0.18
-1.1077654762730802
% es.tEy (V/m) @ t=0.18
0
% es.tEz (V/m) @ t=0.18
0.46328916305285617
% V (V) @ t=0.18
0.006724319400519872
% es.normE (V/m) @ t=0.2
1.2156036377102946
% es.EX (V/m) @ t=0.2
-1.1180843861274163
% es.EY (V/m) @ t=0.2
0.08721828136137366
% es.EZ (V/m) @ t=0.2
0.4676047385640565
% es.tEX (V/m) @ t=0.2
-1.1180843861274132
% es.tEY (V/m) @ t=0.2
0
% es.tEZ (V/m) @ t=0.2
0.4676047385640594
% es.Ex (V/m) @ t=0.2
-1.1180843861274163
% es.Ey (V/m) @ t=0.2
0.08721828136137366
% es.Ez (V/m) @ t=0.2
0.4676047385640565
% es.tEx (V/m) @ t=0.2
-1.1180843861274132
% es.tEy (V/m) @ t=0.2
0
% es.tEz (V/m) @ t=0.2
0.4676047385640594
% V (V) @ t=0.2
0.006786956718954357
% es.normE (V/m) @ t=0.22
1.22682256460867
% es.EX (V/m) @ t=0.22
-1.1284032959817512
% es.EY (V/m) @ t=0.22
0.0880232304775787
% es.EZ (V/m) @ t=0.22
0.471920314075237
% es.tEX (V/m) @ t=0.22
-1.1284032959817472
% es.tEY (V/m) @ t=0.22
0
% es.tEZ (V/m) @ t=0.22
0.47192031407523416
% es.Ex (V/m) @ t=0.22
-1.1284032959817512
% es.Ey (V/m) @ t=0.22
0.0880232304775787
% es.Ez (V/m) @ t=0.22
0.471920314075237
% es.tEx (V/m) @ t=0.22
-1.1284032959817472
% es.tEy (V/m) @ t=0.22
0
% es.tEz (V/m) @ t=0.22
0.47192031407523416
% V (V) @ t=0.22
0.006849594037388842
% es.normE (V/m) @ t=0.24
1.2380414915070568
% es.EX (V/m) @ t=0.24
-1.1387222058360904
% es.EY (V/m) @ t=0.24
0.0888281795937873
% es.EZ (V/m) @ t=0.24
0.4762358895864343
% es.tEX (V/m) @ t=0.24
-1.1387222058360855
% es.tEY (V/m) @ t=0.24
0
% es.tEZ (V/m) @ t=0.24
0.4762358895864338
% es.Ex (V/m) @ t=0.24
-1.1387222058360904
% es.Ey (V/m) @ t=0.24
0.0888281795937873
% es.Ez (V/m) @ t=0.24
0.4762358895864343
% es.tEx (V/m) @ t=0.24
-1.1387222058360855
% es.tEy (V/m) @ t=0.24
0
% es.tEz (V/m) @ t=0.24
0.4762358895864338
% V (V) @ t=0.24
0.006912231355823325
% es.normE (V/m) @ t=0.26
1.24926041840543
% es.EX (V/m) @ t=0.26
-1.149041115690421
% es.EY (V/m) @ t=0.26
0.08963312870998796
% es.EZ (V/m) @ t=0.26
0.4805514650976173
% es.tEX (V/m) @ t=0.26
-1.149041115690415
% es.tEY (V/m) @ t=0.26
0
% es.tEZ (V/m) @ t=0.26
0.48055146509761926
% es.Ex (V/m) @ t=0.26
-1.149041115690421
% es.Ey (V/m) @ t=0.26
0.08963312870998796
% es.Ez (V/m) @ t=0.26
0.4805514650976173
% es.tEx (V/m) @ t=0.26
-1.149041115690415
% es.tEy (V/m) @ t=0.26
0
% es.tEz (V/m) @ t=0.26
0.48055146509761926
% V (V) @ t=0.26
0.00697486867425781
% es.normE (V/m) @ t=0.28
1.2609918136848992
% es.EX (V/m) @ t=0.28
-1.159831378059896
% es.EY (V/m) @ t=0.28
0.09047485249082254
% es.EZ (V/m) @ t=0.28
0.48506418051772243
% es.tEX (V/m) @ t=0.28
-1.1598313780598888
% es.tEY (V/m) @ t=0.28
0
% es.tEZ (V/m) @ t=0.28
0.48506418051772116
% es.Ex (V/m) @ t=0.28
-1.159831378059896
% es.Ey (V/m) @ t=0.28
0.09047485249082254
% es.Ez (V/m) @ t=0.28
0.48506418051772243
% es.tEx (V/m) @ t=0.28
-1.1598313780598888
% es.tEy (V/m) @ t=0.28
0
% es.tEz (V/m) @ t=0.28
0.48506418051772116
% V (V) @ t=0.28
0.007040366861209428
% es.normE (V/m) @ t=0.3
1.2734877374556821
% es.EX (V/m) @ t=0.3
-1.1713248300125296
% es.EY (V/m) @ t=0.3
0.09137143873716286
% es.EZ (V/m) @ t=0.3
0.48987100008686085
% es.tEX (V/m) @ t=0.3
-1.171324830012522
% es.tEY (V/m) @ t=0.3
0
% es.tEZ (V/m) @ t=0.3
0.48987100008686113
% es.Ex (V/m) @ t=0.3
-1.1713248300125296
% es.Ey (V/m) @ t=0.3
0.09137143873716286
% es.Ez (V/m) @ t=0.3
0.48987100008686085
% es.tEx (V/m) @ t=0.3
-1.171324830012522
% es.tEy (V/m) @ t=0.3
0
% es.tEz (V/m) @ t=0.3
0.48987100008686113
% V (V) @ t=0.3
0.007110133049021177
% es.normE (V/m) @ t=0.32
1.2859836612264777
% es.EX (V/m) @ t=0.32
-1.182818281965171
% es.EY (V/m) @ t=0.32
0.09226802498349163
% es.EZ (V/m) @ t=0.32
0.49467781965601443
% es.tEX (V/m) @ t=0.32
-1.1828182819651651
% es.tEY (V/m) @ t=0.32
0
% es.tEZ (V/m) @ t=0.32
0.49467781965601176
% es.Ex (V/m) @ t=0.32
-1.182818281965171
% es.Ey (V/m) @ t=0.32
0.09226802498349163
% es.Ez (V/m) @ t=0.32
0.49467781965601443
% es.tEx (V/m) @ t=0.32
-1.1828182819651651
% es.tEy (V/m) @ t=0.32
0
% es.tEz (V/m) @ t=0.32
0.49467781965601176
% V (V) @ t=0.32
0.007179899236832926
% es.normE (V/m) @ t=0.34
1.2984795849972681
% es.EX (V/m) @ t=0.34
-1.1943117339178042
% es.EY (V/m) @ t=0.34
0.09316461122983011
% es.EZ (V/m) @ t=0.34
0.4994846392251672
% es.tEX (V/m) @ t=0.34
-1.1943117339177975
% es.tEY (V/m) @ t=0.34
0
% es.tEZ (V/m) @ t=0.34
0.49948463922516595
% es.Ex (V/m) @ t=0.34
-1.1943117339178042
% es.Ey (V/m) @ t=0.34
0.09316461122983011
% es.Ez (V/m) @ t=0.34
0.4994846392251672
% es.tEx (V/m) @ t=0.34
-1.1943117339177975
% es.tEy (V/m) @ t=0.34
0
% es.tEz (V/m) @ t=0.34
0.49948463922516595
% V (V) @ t=0.34
0.0072496654246446725
% es.normE (V/m) @ t=0.36
1.3109755087680635
% es.EX (V/m) @ t=0.36
-1.2058051858704437
% es.EY (V/m) @ t=0.36
0.0940611974761642
% es.EZ (V/m) @ t=0.36
0.5042914587943172
% es.tEX (V/m) @ t=0.36
-1.205805185870437
% es.tEY (V/m) @ t=0.36
0
% es.tEZ (V/m) @ t=0.36
0.5042914587943201
% es.Ex (V/m) @ t=0.36
-1.2058051858704437
% es.Ey (V/m) @ t=0.36
0.0940611974761642
% es.Ez (V/m) @ t=0.36
0.5042914587943172
% es.tEx (V/m) @ t=0.36
-1.205805185870437
% es.tEy (V/m) @ t=0.36
0
% es.tEz (V/m) @ t=0.36
0.5042914587943201
% V (V) @ t=0.36
0.007319431612456422
% es.normE (V/m) @ t=0.38
1.3234714325388586
% es.EX (V/m) @ t=0.38
-1.2172986378230783
% es.EY (V/m) @ t=0.38
0.09495778372249924
% es.EZ (V/m) @ t=0.38
0.5090982783634752
% es.tEX (V/m) @ t=0.38
-1.2172986378230721
% es.tEY (V/m) @ t=0.38
0
% es.tEZ (V/m) @ t=0.38
0.5090982783634779
% es.Ex (V/m) @ t=0.38
-1.2172986378230783
% es.Ey (V/m) @ t=0.38
0.09495778372249924
% es.Ez (V/m) @ t=0.38
0.5090982783634752
% es.tEx (V/m) @ t=0.38
-1.2172986378230721
% es.tEy (V/m) @ t=0.38
0
% es.tEz (V/m) @ t=0.38
0.5090982783634779
% V (V) @ t=0.38
0.007389197800268169
% es.normE (V/m) @ t=0.4
1.3359673563096575
% es.EX (V/m) @ t=0.4
-1.2287920897757192
% es.EY (V/m) @ t=0.4
0.09585436996883684
% es.EZ (V/m) @ t=0.4
0.5139050979326243
% es.tEX (V/m) @ t=0.4
-1.2287920897757116
% es.tEY (V/m) @ t=0.4
0
% es.tEZ (V/m) @ t=0.4
0.5139050979326214
% es.Ex (V/m) @ t=0.4
-1.2287920897757192
% es.Ey (V/m) @ t=0.4
0.09585436996883684
% es.Ez (V/m) @ t=0.4
0.5139050979326243
% es.tEx (V/m) @ t=0.4
-1.2287920897757116
% es.tEy (V/m) @ t=0.4
0
% es.tEz (V/m) @ t=0.4
0.5139050979326214
% V (V) @ t=0.4
0.007458963988079917
% es.normE (V/m) @ t=0.42
1.348463280080448
% es.EX (V/m) @ t=0.42
-1.2402855417283511
% es.EY (V/m) @ t=0.42
0.09675095621516738
% es.EZ (V/m) @ t=0.42
0.5187119175017725
% es.tEX (V/m) @ t=0.42
-1.240285541728345
% es.tEY (V/m) @ t=0.42
0
% es.tEZ (V/m) @ t=0.42
0.518711917501772
% es.Ex (V/m) @ t=0.42
-1.2402855417283511
% es.Ey (V/m) @ t=0.42
0.09675095621516738
% es.Ez (V/m) @ t=0.42
0.5187119175017725
% es.tEx (V/m) @ t=0.42
-1.240285541728345
% es.tEy (V/m) @ t=0.42
0
% es.tEz (V/m) @ t=0.42
0.518711917501772
% V (V) @ t=0.42
0.007528730175891667
% es.normE (V/m) @ t=0.44
1.3609592038512426
% es.EX (V/m) @ t=0.44
-1.2517789936809849
% es.EY (V/m) @ t=0.44
0.0976475424615032
% es.EZ (V/m) @ t=0.44
0.5235187370709236
% es.tEX (V/m) @ t=0.44
-1.251778993680981
% es.tEY (V/m) @ t=0.44
0
% es.tEZ (V/m) @ t=0.44
0.5235187370709227
% es.Ex (V/m) @ t=0.44
-1.2517789936809849
% es.Ey (V/m) @ t=0.44
0.0976475424615032
% es.Ez (V/m) @ t=0.44
0.5235187370709236
% es.tEx (V/m) @ t=0.44
-1.251778993680981
% es.tEy (V/m) @ t=0.44
0
% es.tEz (V/m) @ t=0.44
0.5235187370709227
% V (V) @ t=0.44
0.0075984963637034135
% es.normE (V/m) @ t=0.46
1.3734551276220412
% es.EX (V/m) @ t=0.46
-1.2632724456336213
% es.EY (V/m) @ t=0.46
0.0985441287078418
% es.EZ (V/m) @ t=0.46
0.528325556640076
% es.tEX (V/m) @ t=0.46
-1.263272445633616
% es.tEY (V/m) @ t=0.46
0
% es.tEZ (V/m) @ t=0.46
0.5283255566400769
% es.Ex (V/m) @ t=0.46
-1.2632724456336213
% es.Ey (V/m) @ t=0.46
0.0985441287078418
% es.Ez (V/m) @ t=0.46
0.528325556640076
% es.tEx (V/m) @ t=0.46
-1.263272445633616
% es.tEy (V/m) @ t=0.46
0
% es.tEz (V/m) @ t=0.46
0.5283255566400769
% V (V) @ t=0.46
0.007668262551515162
% es.normE (V/m) @ t=0.48
1.385951051392843
% es.EX (V/m) @ t=0.48
-1.2747658975862612
% es.EY (V/m) @ t=0.48
0.09944071495418122
% es.EZ (V/m) @ t=0.48
0.5331323762092253
% es.tEX (V/m) @ t=0.48
-1.2747658975862555
% es.tEY (V/m) @ t=0.48
0
% es.tEZ (V/m) @ t=0.48
0.5331323762092239
% es.Ex (V/m) @ t=0.48
-1.2747658975862612
% es.Ey (V/m) @ t=0.48
0.09944071495418122
% es.Ez (V/m) @ t=0.48
0.5331323762092253
% es.tEx (V/m) @ t=0.48
-1.2747658975862555
% es.tEy (V/m) @ t=0.48
0
% es.tEz (V/m) @ t=0.48
0.5331323762092239
% V (V) @ t=0.48
0.00773802873932691
% es.normE (V/m) @ t=0.5
1.3984469751636446
% es.EX (V/m) @ t=0.5
-1.2862593495388999
% es.EY (V/m) @ t=0.5
0.10033730120050904
% es.EZ (V/m) @ t=0.5
0.5379391957783761
% es.tEX (V/m) @ t=0.5
-1.286259349538895
% es.tEY (V/m) @ t=0.5
0
% es.tEZ (V/m) @ t=0.5
0.5379391957783746
% es.Ex (V/m) @ t=0.5
-1.2862593495388999
% es.Ey (V/m) @ t=0.5
0.10033730120050904
% es.Ez (V/m) @ t=0.5
0.5379391957783761
% es.tEx (V/m) @ t=0.5
-1.286259349538895
% es.tEy (V/m) @ t=0.5
0
% es.tEz (V/m) @ t=0.5
0.5379391957783746
% V (V) @ t=0.5
0.007807794927138659
% es.normE (V/m) @ t=0.52
1.4109428989344486
% es.EX (V/m) @ t=0.52
-1.297752801491539
% es.EY (V/m) @ t=0.52
0.10123388744684492
% es.EZ (V/m) @ t=0.52
0.5427460153475305
% es.tEX (V/m) @ t=0.52
-1.297752801491531
% es.tEY (V/m) @ t=0.52
0
% es.tEZ (V/m) @ t=0.52
0.5427460153475323
% es.Ex (V/m) @ t=0.52
-1.297752801491539
% es.Ey (V/m) @ t=0.52
0.10123388744684492
% es.Ez (V/m) @ t=0.52
0.5427460153475305
% es.tEx (V/m) @ t=0.52
-1.297752801491531
% es.tEy (V/m) @ t=0.52
0
% es.tEz (V/m) @ t=0.52
0.5427460153475323
% V (V) @ t=0.52
0.007877561114950409
% es.normE (V/m) @ t=0.54
1.423438822705242
% es.EX (V/m) @ t=0.54
-1.309246253444166
% es.EY (V/m) @ t=0.54
0.10213047369318257
% es.EZ (V/m) @ t=0.54
0.5475528349166816
% es.tEX (V/m) @ t=0.54
-1.3092462534441625
% es.tEY (V/m) @ t=0.54
0
% es.tEZ (V/m) @ t=0.54
0.5475528349166758
% es.Ex (V/m) @ t=0.54
-1.309246253444166
% es.Ey (V/m) @ t=0.54
0.10213047369318257
% es.Ez (V/m) @ t=0.54
0.5475528349166816
% es.tEx (V/m) @ t=0.54
-1.3092462534441625
% es.tEy (V/m) @ t=0.54
0
% es.tEz (V/m) @ t=0.54
0.5475528349166758
% V (V) @ t=0.54
0.007947327302762154
% es.normE (V/m) @ t=0.56
1.43711099931927
% es.EX (V/m) @ t=0.56
-1.321821606477695
% es.EY (V/m) @ t=0.56
0.10311144050800147
% es.EZ (V/m) @ t=0.56
0.5528120983291949
% es.tEX (V/m) @ t=0.56
-1.3218216064776849
% es.tEY (V/m) @ t=0.56
0
% es.tEZ (V/m) @ t=0.56
0.5528120983291984
% es.Ex (V/m) @ t=0.56
-1.321821606477695
% es.Ey (V/m) @ t=0.56
0.10311144050800147
% es.Ez (V/m) @ t=0.56
0.5528120983291949
% es.tEx (V/m) @ t=0.56
-1.3218216064776849
% es.tEy (V/m) @ t=0.56
0
% es.tEz (V/m) @ t=0.56
0.5528120983291984
% V (V) @ t=0.56
0.008023661626742647
% es.normE (V/m) @ t=0.58
1.4510544984131184
% es.EX (V/m) @ t=0.58
-1.33464651817191
% es.EY (V/m) @ t=0.58
0.10411187111857562
% es.EZ (V/m) @ t=0.58
0.5581757255154285
% es.tEX (V/m) @ t=0.58
-1.334646518171903
% es.tEY (V/m) @ t=0.58
0
% es.tEZ (V/m) @ t=0.58
0.5581757255154329
% es.Ex (V/m) @ t=0.58
-1.33464651817191
% es.Ey (V/m) @ t=0.58
0.10411187111857562
% es.Ez (V/m) @ t=0.58
0.5581757255154285
% es.tEx (V/m) @ t=0.58
-1.334646518171903
% es.tEy (V/m) @ t=0.58
0
% es.tEz (V/m) @ t=0.58
0.5581757255154329
% V (V) @ t=0.58
0.008101511001678016
% es.normE (V/m) @ t=0.6
1.4649979975069751
% es.EX (V/m) @ t=0.6
-1.3474714298661357
% es.EY (V/m) @ t=0.6
0.10511230172915342
% es.EZ (V/m) @ t=0.6
0.5635393527016586
% es.tEX (V/m) @ t=0.6
-1.3474714298661326
% es.tEY (V/m) @ t=0.6
0
% es.tEZ (V/m) @ t=0.6
0.5635393527016568
% es.Ex (V/m) @ t=0.6
-1.3474714298661357
% es.Ey (V/m) @ t=0.6
0.10511230172915342
% es.Ez (V/m) @ t=0.6
0.5635393527016586
% es.tEx (V/m) @ t=0.6
-1.3474714298661326
% es.tEy (V/m) @ t=0.6
0
% es.tEz (V/m) @ t=0.6
0.5635393527016568
% V (V) @ t=0.6
0.008179360376613385
% es.normE (V/m) @ t=0.62
1.4789414966008312
% es.EX (V/m) @ t=0.62
-1.3602963415603613
% es.EY (V/m) @ t=0.62
0.10611273233971341
% es.EZ (V/m) @ t=0.62
0.5689029798878895
% es.tEX (V/m) @ t=0.62
-1.3602963415603533
% es.tEY (V/m) @ t=0.62
0
% es.tEZ (V/m) @ t=0.62
0.5689029798878877
% es.Ex (V/m) @ t=0.62
-1.3602963415603613
% es.Ey (V/m) @ t=0.62
0.10611273233971341
% es.Ez (V/m) @ t=0.62
0.5689029798878895
% es.tEx (V/m) @ t=0.62
-1.3602963415603533
% es.tEy (V/m) @ t=0.62
0
% es.tEz (V/m) @ t=0.62
0.5689029798878877
% V (V) @ t=0.62
0.008257209751548754
% es.normE (V/m) @ t=0.64
1.4928849956946908
% es.EX (V/m) @ t=0.64
-1.3731212532545902
% es.EY (V/m) @ t=0.64
0.10711316295028583
% es.EZ (V/m) @ t=0.64
0.5742666070741196
% es.tEX (V/m) @ t=0.64
-1.3731212532545793
% es.tEY (V/m) @ t=0.64
0
% es.tEZ (V/m) @ t=0.64
0.5742666070741258
% es.Ex (V/m) @ t=0.64
-1.3731212532545902
% es.Ey (V/m) @ t=0.64
0.10711316295028583
% es.Ez (V/m) @ t=0.64
0.5742666070741196
% es.tEx (V/m) @ t=0.64
-1.3731212532545793
% es.tEy (V/m) @ t=0.64
0
% es.tEz (V/m) @ t=0.64
0.5742666070741258
% V (V) @ t=0.64
0.008335059126484122
% es.normE (V/m) @ t=0.66
1.5068284947885484
% es.EX (V/m) @ t=0.66
-1.3859461649488125
% es.EY (V/m) @ t=0.66
0.10811359356085826
% es.EZ (V/m) @ t=0.66
0.5796302342603603
% es.tEX (V/m) @ t=0.66
-1.385946164948809
% es.tEY (V/m) @ t=0.66
0
% es.tEZ (V/m) @ t=0.66
0.5796302342603639
% es.Ex (V/m) @ t=0.66
-1.3859461649488125
% es.Ey (V/m) @ t=0.66
0.10811359356085826
% es.Ez (V/m) @ t=0.66
0.5796302342603603
% es.tEx (V/m) @ t=0.66
-1.385946164948809
% es.tEy (V/m) @ t=0.66
0
% es.tEz (V/m) @ t=0.66
0.5796302342603639
% V (V) @ t=0.66
0.008412908501419491
% es.normE (V/m) @ t=0.68
1.5207719938824131
% es.EX (V/m) @ t=0.68
-1.3987710766430415
% es.EY (V/m) @ t=0.68
0.1091140241714324
% es.EZ (V/m) @ t=0.68
0.5849938614466028
% es.tEX (V/m) @ t=0.68
-1.3987710766430332
% es.tEY (V/m) @ t=0.68
0
% es.tEZ (V/m) @ t=0.68
0.5849938614466019
% es.Ex (V/m) @ t=0.68
-1.3987710766430415
% es.Ey (V/m) @ t=0.68
0.1091140241714324
% es.Ez (V/m) @ t=0.68
0.5849938614466028
% es.tEx (V/m) @ t=0.68
-1.3987710766430332
% es.tEy (V/m) @ t=0.68
0
% es.tEz (V/m) @ t=0.68
0.5849938614466019
% V (V) @ t=0.68
0.008490757876354863
% es.normE (V/m) @ t=0.7
1.5347154929762694
% es.EX (V/m) @ t=0.7
-1.4115959883372655
% es.EY (V/m) @ t=0.7
0.11011445478200654
% es.EZ (V/m) @ t=0.7
0.5903574886328347
% es.tEX (V/m) @ t=0.7
-1.4115959883372575
% es.tEY (V/m) @ t=0.7
0
% es.tEZ (V/m) @ t=0.7
0.5903574886328329
% es.Ex (V/m) @ t=0.7
-1.4115959883372655
% es.Ey (V/m) @ t=0.7
0.11011445478200654
% es.Ez (V/m) @ t=0.7
0.5903574886328347
% es.tEx (V/m) @ t=0.7
-1.4115959883372575
% es.tEy (V/m) @ t=0.7
0
% es.tEz (V/m) @ t=0.7
0.5903574886328329
% V (V) @ t=0.7
0.00856860725129023
% es.normE (V/m) @ t=0.72
1.5486589920701246
% es.EX (V/m) @ t=0.72
-1.424420900031489
% es.EY (V/m) @ t=0.72
0.1111148853925808
% es.EZ (V/m) @ t=0.72
0.5957211158190665
% es.tEX (V/m) @ t=0.72
-1.4244209000314836
% es.tEY (V/m) @ t=0.72
0
% es.tEZ (V/m) @ t=0.72
0.5957211158190638
% es.Ex (V/m) @ t=0.72
-1.424420900031489
% es.Ey (V/m) @ t=0.72
0.1111148853925808
% es.Ez (V/m) @ t=0.72
0.5957211158190665
% es.tEx (V/m) @ t=0.72
-1.4244209000314836
% es.tEy (V/m) @ t=0.72
0
% es.tEz (V/m) @ t=0.72
0.5957211158190638
% V (V) @ t=0.72
0.008646456626225601
% es.normE (V/m) @ t=0.74
1.5626024911639913
% es.EX (V/m) @ t=0.74
-1.4372458117257245
% es.EY (V/m) @ t=0.74
0.11211531600314611
% es.EZ (V/m) @ t=0.74
0.6010847430053001
% es.tEX (V/m) @ t=0.74
-1.4372458117257203
% es.tEY (V/m) @ t=0.74
0
% es.tEZ (V/m) @ t=0.74
0.6010847430053019
% es.Ex (V/m) @ t=0.74
-1.4372458117257245
% es.Ey (V/m) @ t=0.74
0.11211531600314611
% es.Ez (V/m) @ t=0.74
0.6010847430053001
% es.tEx (V/m) @ t=0.74
-1.4372458117257203
% es.tEy (V/m) @ t=0.74
0
% es.tEz (V/m) @ t=0.74
0.6010847430053019
% V (V) @ t=0.74
0.00872430600116097
% es.normE (V/m) @ t=0.76
1.5765459902578551
% es.EX (V/m) @ t=0.76
-1.4500707234199521
% es.EY (V/m) @ t=0.76
0.11311574661372736
% es.EZ (V/m) @ t=0.76
0.606448370191541
% es.tEX (V/m) @ t=0.76
-1.4500707234199464
% es.tEY (V/m) @ t=0.76
0
% es.tEZ (V/m) @ t=0.76
0.60644837019154
% es.Ex (V/m) @ t=0.76
-1.4500707234199521
% es.Ey (V/m) @ t=0.76
0.11311574661372736
% es.Ez (V/m) @ t=0.76
0.606448370191541
% es.tEx (V/m) @ t=0.76
-1.4500707234199464
% es.tEy (V/m) @ t=0.76
0
% es.tEz (V/m) @ t=0.76
0.60644837019154
% V (V) @ t=0.76
0.008802155376096339
% es.normE (V/m) @ t=0.78
1.5904894893517025
% es.EX (V/m) @ t=0.78
-1.4628956351141689
% es.EY (V/m) @ t=0.78
0.11411617722429096
% es.EZ (V/m) @ t=0.78
0.6118119973777709
% es.tEX (V/m) @ t=0.78
-1.4628956351141653
% es.tEY (V/m) @ t=0.78
0
% es.tEZ (V/m) @ t=0.78
0.6118119973777674
% es.Ex (V/m) @ t=0.78
-1.4628956351141689
% es.Ey (V/m) @ t=0.78
0.11411617722429096
% es.Ez (V/m) @ t=0.78
0.6118119973777709
% es.tEx (V/m) @ t=0.78
-1.4628956351141653
% es.tEy (V/m) @ t=0.78
0
% es.tEz (V/m) @ t=0.78
0.6118119973777674
% V (V) @ t=0.78
0.00888000475103171
% es.normE (V/m) @ t=0.8
1.6044329884455661
% es.EX (V/m) @ t=0.8
-1.4757205468083965
% es.EY (V/m) @ t=0.8
0.11511660783487221
% es.EZ (V/m) @ t=0.8
0.6171756245640116
% es.tEX (V/m) @ t=0.8
-1.4757205468083914
% es.tEY (V/m) @ t=0.8
0
% es.tEZ (V/m) @ t=0.8
0.617175624564009
% es.Ex (V/m) @ t=0.8
-1.4757205468083965
% es.Ey (V/m) @ t=0.8
0.11511660783487221
% es.Ez (V/m) @ t=0.8
0.6171756245640116
% es.tEx (V/m) @ t=0.8
-1.4757205468083914
% es.tEy (V/m) @ t=0.8
0
% es.tEz (V/m) @ t=0.8
0.617175624564009
% V (V) @ t=0.8
0.008957854125967077
% es.normE (V/m) @ t=0.82
1.618744355041175
% es.EX (V/m) @ t=0.82
-1.4888838134838471
% es.EY (V/m) @ t=0.82
0.1161434340658597
% es.EZ (V/m) @ t=0.82
0.6226807613975902
% es.tEX (V/m) @ t=0.82
-1.4888838134838434
% es.tEY (V/m) @ t=0.82
0
% es.tEZ (V/m) @ t=0.82
0.6226807613975893
% es.Ex (V/m) @ t=0.82
-1.4888838134838471
% es.Ey (V/m) @ t=0.82
0.1161434340658597
% es.Ez (V/m) @ t=0.82
0.6226807613975902
% es.tEx (V/m) @ t=0.82
-1.4888838134838434
% es.tEy (V/m) @ t=0.82
0
% es.tEz (V/m) @ t=0.82
0.6226807613975893
% V (V) @ t=0.82
0.009037757284882174
% es.normE (V/m) @ t=0.84
1.6343313833509727
% es.EX (V/m) @ t=0.84
-1.5032204006980714
% es.EY (V/m) @ t=0.84
0.11726179293358002
% es.EZ (V/m) @ t=0.84
0.6286766141504905
% es.tEX (V/m) @ t=0.84
-1.5032204006980727
% es.tEY (V/m) @ t=0.84
0
% es.tEZ (V/m) @ t=0.84
0.6286766141504856
% es.Ex (V/m) @ t=0.84
-1.5032204006980714
% es.Ey (V/m) @ t=0.84
0.11726179293358002
% es.Ez (V/m) @ t=0.84
0.6286766141504905
% es.tEx (V/m) @ t=0.84
-1.5032204006980727
% es.tEy (V/m) @ t=0.84
0
% es.tEz (V/m) @ t=0.84
0.6286766141504856
% V (V) @ t=0.84
0.009124782392813552
% es.normE (V/m) @ t=0.86
1.6499184116607948
% es.EX (V/m) @ t=0.86
-1.5175569879123152
% es.EY (V/m) @ t=0.86
0.1183801518013094
% es.EZ (V/m) @ t=0.86
0.6346724669034065
% es.tEX (V/m) @ t=0.86
-1.5175569879123163
% es.tEY (V/m) @ t=0.86
0
% es.tEZ (V/m) @ t=0.86
0.6346724669034067
% es.Ex (V/m) @ t=0.86
-1.5175569879123152
% es.Ey (V/m) @ t=0.86
0.1183801518013094
% es.Ez (V/m) @ t=0.86
0.6346724669034065
% es.tEx (V/m) @ t=0.86
-1.5175569879123163
% es.tEy (V/m) @ t=0.86
0
% es.tEz (V/m) @ t=0.86
0.6346724669034067
% V (V) @ t=0.86
0.00921180750074493
% es.normE (V/m) @ t=0.88
1.665505439970615
% es.EX (V/m) @ t=0.88
-1.531893575126556
% es.EY (V/m) @ t=0.88
0.11949851066903511
% es.EZ (V/m) @ t=0.88
0.6406683196563243
% es.tEX (V/m) @ t=0.88
-1.5318935751265546
% es.tEY (V/m) @ t=0.88
0
% es.tEZ (V/m) @ t=0.88
0.6406683196563208
% es.Ex (V/m) @ t=0.88
-1.531893575126556
% es.Ey (V/m) @ t=0.88
0.11949851066903511
% es.Ez (V/m) @ t=0.88
0.6406683196563243
% es.tEx (V/m) @ t=0.88
-1.5318935751265546
% es.tEy (V/m) @ t=0.88
0
% es.tEz (V/m) @ t=0.88
0.6406683196563208
% V (V) @ t=0.88
0.00929883260867631
% es.normE (V/m) @ t=0.9
1.68109246828043
% es.EX (V/m) @ t=0.9
-1.5462301623407997
% es.EY (V/m) @ t=0.9
0.12061686953675549
% es.EZ (V/m) @ t=0.9
0.6466641724092226
% es.tEX (V/m) @ t=0.9
-1.546230162340791
% es.tEY (V/m) @ t=0.9
0
% es.tEZ (V/m) @ t=0.9
0.6466641724092135
% es.Ex (V/m) @ t=0.9
-1.5462301623407997
% es.Ey (V/m) @ t=0.9
0.12061686953675549
% es.Ez (V/m) @ t=0.9
0.6466641724092226
% es.tEx (V/m) @ t=0.9
-1.546230162340791
% es.tEy (V/m) @ t=0.9
0
% es.tEz (V/m) @ t=0.9
0.6466641724092135
% V (V) @ t=0.9
0.00938585771660769
% es.normE (V/m) @ t=0.92
1.6966794965902467
% es.EX (V/m) @ t=0.92
-1.5605667495550333
% es.EY (V/m) @ t=0.92
0.12173522840449191
% es.EZ (V/m) @ t=0.92
0.6526600251621475
% es.tEX (V/m) @ t=0.92
-1.5605667495550328
% es.tEY (V/m) @ t=0.92
0
% es.tEZ (V/m) @ t=0.92
0.6526600251621382
% es.Ex (V/m) @ t=0.92
-1.5605667495550333
% es.Ey (V/m) @ t=0.92
0.12173522840449191
% es.Ez (V/m) @ t=0.92
0.6526600251621475
% es.tEx (V/m) @ t=0.92
-1.5605667495550328
% es.tEy (V/m) @ t=0.92
0
% es.tEz (V/m) @ t=0.92
0.6526600251621382
% V (V) @ t=0.92
0.009472882824539071
% es.normE (V/m) @ t=0.94
1.7122665249000697
% es.EX (V/m) @ t=0.94
-1.5749033367692813
% es.EY (V/m) @ t=0.94
0.12285358727221762
% es.EZ (V/m) @ t=0.94
0.6586558779150546
% es.tEX (V/m) @ t=0.94
-1.5749033367692746
% es.tEY (V/m) @ t=0.94
0
% es.tEZ (V/m) @ t=0.94
0.6586558779150522
% es.Ex (V/m) @ t=0.94
-1.5749033367692813
% es.Ey (V/m) @ t=0.94
0.12285358727221762
% es.Ez (V/m) @ t=0.94
0.6586558779150546
% es.tEx (V/m) @ t=0.94
-1.5749033367692746
% es.tEy (V/m) @ t=0.94
0
% es.tEz (V/m) @ t=0.94
0.6586558779150522
% V (V) @ t=0.94
0.00955990793247045
% es.normE (V/m) @ t=0.96
1.7278535532098829
% es.EX (V/m) @ t=0.96
-1.5892399239835184
% es.EY (V/m) @ t=0.96
0.12397194613992918
% es.EZ (V/m) @ t=0.96
0.6646517306679655
% es.tEX (V/m) @ t=0.96
-1.589239923983511
% es.tEY (V/m) @ t=0.96
0
% es.tEZ (V/m) @ t=0.96
0.6646517306679627
% es.Ex (V/m) @ t=0.96
-1.5892399239835184
% es.Ey (V/m) @ t=0.96
0.12397194613992918
% es.Ez (V/m) @ t=0.96
0.6646517306679655
% es.tEx (V/m) @ t=0.96
-1.589239923983511
% es.tEy (V/m) @ t=0.96
0
% es.tEz (V/m) @ t=0.96
0.6646517306679627
% V (V) @ t=0.96
0.00964693304040183
% es.normE (V/m) @ t=0.98
1.74344058151969
% es.EX (V/m) @ t=0.98
-1.6035765111977531
% es.EY (V/m) @ t=0.98
0.12509030500765134
% es.EZ (V/m) @ t=0.98
0.6706475834208638
% es.tEX (V/m) @ t=0.98
-1.603576511197744
% es.tEY (V/m) @ t=0.98
0
% es.tEZ (V/m) @ t=0.98
0.6706475834208625
% es.Ex (V/m) @ t=0.98
-1.6035765111977531
% es.Ey (V/m) @ t=0.98
0.12509030500765134
% es.Ez (V/m) @ t=0.98
0.6706475834208638
% es.tEx (V/m) @ t=0.98
-1.603576511197744
% es.tEy (V/m) @ t=0.98
0
% es.tEz (V/m) @ t=0.98
0.6706475834208625
% V (V) @ t=0.98
0.00973395814833321
% es.normE (V/m) @ t=1
1.7590276098295017
% es.EX (V/m) @ t=1
-1.6179130984119865
% es.EY (V/m) @ t=1
0.12620866387538243
% es.EZ (V/m) @ t=1
0.6766434361737761
% es.tEX (V/m) @ t=1
-1.6179130984119787
% es.tEY (V/m) @ t=1
0
% es.tEZ (V/m) @ t=1
0.6766434361737765
% es.Ex (V/m) @ t=1
-1.6179130984119865
% es.Ey (V/m) @ t=1
0.12620866387538243
% es.Ez (V/m) @ t=1
0.6766434361737761
% es.tEx (V/m) @ t=1
-1.6179130984119787
% es.tEy (V/m) @ t=1
0
% es.tEz (V/m) @ t=1
0.6766434361737765
% V (V) @ t=1
0.009820983256264586
% es.normE (V/m) @ t=1.02
1.774614638139318
% es.EX (V/m) @ t=1.02
-1.6322496856262267
% es.EY (V/m) @ t=1.02
0.1273270227431028
% es.EZ (V/m) @ t=1.02
0.6826392889266852
% es.tEX (V/m) @ t=1.02
-1.632249685626217
% es.tEY (V/m) @ t=1.02
0
% es.tEZ (V/m) @ t=1.02
0.6826392889266835
% es.Ex (V/m) @ t=1.02
-1.6322496856262267
% es.Ey (V/m) @ t=1.02
0.1273270227431028
% es.Ez (V/m) @ t=1.02
0.6826392889266852
% es.tEx (V/m) @ t=1.02
-1.632249685626217
% es.tEy (V/m) @ t=1.02
0
% es.tEz (V/m) @ t=1.02
0.6826392889266835
% V (V) @ t=1.02
0.009908008364195966
% es.normE (V/m) @ t=1.04
1.7902016664491351
% es.EX (V/m) @ t=1.04
-1.646586272840466
% es.EY (V/m) @ t=1.04
0.12844538161082508
% es.EZ (V/m) @ t=1.04
0.6886351416795994
% es.tEX (V/m) @ t=1.04