% Model:              1 neuron.mph
% Version:            COMSOL 6.0.0.405
% Date:               Mar 16 2023, 10:05
% Dimension:          0
% Nodes:              14017
% Expressions:        14017
% Description:        Electric field norm, Electric field, X component, Electric field, Y component, Electric field, Z component, Tangential electric field, X component, Tangential electric field, Y component, Tangential electric field, Z component, Electric field, x component, Electric field, y component, Electric field, z component, Tangential electric field, x component, Tangential electric field, y component, Tangential electric field, z component, Electric potential
% Length unit:        mm
% x
1
% y
12.2
% z
1.33
% es.normE (V/m) @ t=0
1.4671179394644858
% es.EX (V/m) @ t=0
1.3558085324166242
% es.EY (V/m) @ t=0
0.0853699650490869
% es.EZ (V/m) @ t=0
0.5481041439194687
% es.tEX (V/m) @ t=0
1.3558085324166305
% es.tEY (V/m) @ t=0
0
% es.tEZ (V/m) @ t=0
0.5481041439194687
% es.Ex (V/m) @ t=0
1.3558085324166242
% es.Ey (V/m) @ t=0
0.0853699650490869
% es.Ez (V/m) @ t=0
0.5481041439194687
% es.tEx (V/m) @ t=0
1.3558085324166305
% es.tEy (V/m) @ t=0
0
% es.tEz (V/m) @ t=0
0.5481041439194687
% V (V) @ t=0
0.007318223458790774
% es.normE (V/m) @ t=0.02
1.2671785100326138
% es.EX (V/m) @ t=0.02
1.171038394090104
% es.EY (V/m) @ t=0.02
0.07373571187000899
% es.EZ (V/m) @ t=0.02
0.4734082886513691
% es.tEX (V/m) @ t=0.02
1.1710383940901012
% es.tEY (V/m) @ t=0.02
0
% es.tEZ (V/m) @ t=0.02
0.4734082886513704
% es.Ex (V/m) @ t=0.02
1.171038394090104
% es.Ey (V/m) @ t=0.02
0.07373571187000899
% es.Ez (V/m) @ t=0.02
0.4734082886513691
% es.tEx (V/m) @ t=0.02
1.1710383940901012
% es.tEy (V/m) @ t=0.02
0
% es.tEz (V/m) @ t=0.02
0.4734082886513704
% V (V) @ t=0.02
0.006320892970974993
% es.normE (V/m) @ t=0.04
1.2788345317184362
% es.EX (V/m) @ t=0.04
1.181810079642366
% es.EY (V/m) @ t=0.04
0.07441396373430309
% es.EZ (V/m) @ t=0.04
0.47776289090147017
% es.tEX (V/m) @ t=0.04
1.1818100796423625
% es.tEY (V/m) @ t=0.04
0
% es.tEZ (V/m) @ t=0.04
0.4777628909014706
% es.Ex (V/m) @ t=0.04
1.181810079642366
% es.Ey (V/m) @ t=0.04
0.07441396373430309
% es.Ez (V/m) @ t=0.04
0.47776289090147017
% es.tEx (V/m) @ t=0.04
1.1818100796423625
% es.tEy (V/m) @ t=0.04
0
% es.tEz (V/m) @ t=0.04
0.4777628909014706
% V (V) @ t=0.04
0.006379035062573798
% es.normE (V/m) @ t=0.06
1.290596569715753
% es.EX (V/m) @ t=0.06
1.1926797395279083
% es.EY (V/m) @ t=0.06
0.07509838124804102
% es.EZ (V/m) @ t=0.06
0.48215709666211937
% es.tEX (V/m) @ t=0.06
1.192679739527903
% es.tEY (V/m) @ t=0.06
0
% es.tEZ (V/m) @ t=0.06
0.4821570966621205
% es.Ex (V/m) @ t=0.06
1.1926797395279083
% es.Ey (V/m) @ t=0.06
0.07509838124804102
% es.Ez (V/m) @ t=0.06
0.48215709666211937
% es.tEx (V/m) @ t=0.06
1.192679739527903
% es.tEy (V/m) @ t=0.06
0
% es.tEz (V/m) @ t=0.06
0.4821570966621205
% V (V) @ t=0.06
0.006437706147710948
% es.normE (V/m) @ t=0.08
1.3025359838303943
% es.EX (V/m) @ t=0.08
1.2037133175512125
% es.EY (V/m) @ t=0.08
0.07579312136867161
% es.EZ (V/m) @ t=0.08
0.4866175701158473
% es.tEX (V/m) @ t=0.08
1.2037133175512098
% es.tEY (V/m) @ t=0.08
0
% es.tEZ (V/m) @ t=0.08
0.48661757011584994
% es.Ex (V/m) @ t=0.08
1.2037133175512125
% es.Ey (V/m) @ t=0.08
0.07579312136867161
% es.Ez (V/m) @ t=0.08
0.4866175701158473
% es.tEx (V/m) @ t=0.08
1.2037133175512098
% es.tEy (V/m) @ t=0.08
0
% es.tEz (V/m) @ t=0.08
0.48661757011584994
% V (V) @ t=0.08
0.006497261949130781
% es.normE (V/m) @ t=0.1
1.3146031103327567
% es.EX (V/m) @ t=0.1
1.2148649180968256
% es.EY (V/m) @ t=0.1
0.07649529385840109
% es.EZ (V/m) @ t=0.1
0.4911257569001042
% es.tEX (V/m) @ t=0.1
1.214864918096823
% es.tEY (V/m) @ t=0.1
0
% es.tEZ (V/m) @ t=0.1
0.49112575690010507
% es.Ex (V/m) @ t=0.1
1.2148649180968256
% es.Ey (V/m) @ t=0.1
0.07649529385840109
% es.Ez (V/m) @ t=0.1
0.4911257569001042
% es.tEx (V/m) @ t=0.1
1.214864918096823
% es.tEy (V/m) @ t=0.1
0
% es.tEz (V/m) @ t=0.1
0.49112575690010507
% V (V) @ t=0.1
0.006557454754170965
% es.normE (V/m) @ t=0.12
1.3266702368351058
% es.EX (V/m) @ t=0.12
1.2260165186424286
% es.EY (V/m) @ t=0.12
0.07719746634812347
% es.EZ (V/m) @ t=0.12
0.4956339436843513
% es.tEX (V/m) @ t=0.12
1.226016518642428
% es.tEY (V/m) @ t=0.12
0
% es.tEZ (V/m) @ t=0.12
0.49563394368435176
% es.Ex (V/m) @ t=0.12
1.2260165186424286
% es.Ey (V/m) @ t=0.12
0.07719746634812347
% es.Ez (V/m) @ t=0.12
0.4956339436843513
% es.tEx (V/m) @ t=0.12
1.226016518642428
% es.tEy (V/m) @ t=0.12
0
% es.tEz (V/m) @ t=0.12
0.49563394368435176
% V (V) @ t=0.12
0.006617647559211149
% es.normE (V/m) @ t=0.14
1.338848892161809
% es.EX (V/m) @ t=0.14
1.2372711854607128
% es.EY (V/m) @ t=0.14
0.07790613063246116
% es.EZ (V/m) @ t=0.14
0.5001837989952365
% es.tEX (V/m) @ t=0.14
1.2372711854607124
% es.tEY (V/m) @ t=0.14
0
% es.tEZ (V/m) @ t=0.14
0.5001837989952351
% es.Ex (V/m) @ t=0.14
1.2372711854607128
% es.Ey (V/m) @ t=0.14
0.07790613063246116
% es.Ez (V/m) @ t=0.14
0.5001837989952365
% es.tEx (V/m) @ t=0.14
1.2372711854607124
% es.tEy (V/m) @ t=0.14
0
% es.tEz (V/m) @ t=0.14
0.5001837989952351
% V (V) @ t=0.14
0.006678396584263251
% es.normE (V/m) @ t=0.16
1.3515615489628168
% es.EX (V/m) @ t=0.16
1.249019334944844
% es.EY (V/m) @ t=0.16
0.07864587771458992
% es.EZ (V/m) @ t=0.16
0.5049331637584245
% es.tEX (V/m) @ t=0.16
1.2490193349448449
% es.tEY (V/m) @ t=0.16
0
% es.tEZ (V/m) @ t=0.16
0.5049331637584253
% es.Ex (V/m) @ t=0.16
1.249019334944844
% es.Ey (V/m) @ t=0.16
0.07864587771458992
% es.Ez (V/m) @ t=0.16
0.5049331637584245
% es.tEx (V/m) @ t=0.16
1.2490193349448449
% es.tEy (V/m) @ t=0.16
0
% es.tEz (V/m) @ t=0.16
0.5049331637584253
% V (V) @ t=0.16
0.006741808798030542
% es.normE (V/m) @ t=0.18
1.3642742057638308
% es.EX (V/m) @ t=0.18
1.260767484428981
% es.EY (V/m) @ t=0.18
0.0793856247967295
% es.EZ (V/m) @ t=0.18
0.5096825285216133
% es.tEX (V/m) @ t=0.18
1.2607674844289791
% es.tEY (V/m) @ t=0.18
0
% es.tEZ (V/m) @ t=0.18
0.5096825285216133
% es.Ex (V/m) @ t=0.18
1.260767484428981
% es.Ey (V/m) @ t=0.18
0.0793856247967295
% es.Ez (V/m) @ t=0.18
0.5096825285216133
% es.tEx (V/m) @ t=0.18
1.2607674844289791
% es.tEy (V/m) @ t=0.18
0
% es.tEz (V/m) @ t=0.18
0.5096825285216133
% V (V) @ t=0.18
0.006805221011797833
% es.normE (V/m) @ t=0.2
1.3769868625648503
% es.EX (V/m) @ t=0.2
1.2725156339131232
% es.EY (V/m) @ t=0.2
0.0801253718788556
% es.EZ (V/m) @ t=0.2
0.5144318932848035
% es.tEX (V/m) @ t=0.2
1.272515633913125
% es.tEY (V/m) @ t=0.2
0
% es.tEZ (V/m) @ t=0.2
0.5144318932848049
% es.Ex (V/m) @ t=0.2
1.2725156339131232
% es.Ey (V/m) @ t=0.2
0.0801253718788556
% es.Ez (V/m) @ t=0.2
0.5144318932848035
% es.tEx (V/m) @ t=0.2
1.272515633913125
% es.tEy (V/m) @ t=0.2
0
% es.tEz (V/m) @ t=0.2
0.5144318932848049
% V (V) @ t=0.2
0.006868633225565123
% es.normE (V/m) @ t=0.22
1.3896995193658583
% es.EX (V/m) @ t=0.22
1.2842637833972574
% es.EY (V/m) @ t=0.22
0.0808651189609862
% es.EZ (V/m) @ t=0.22
0.5191812580479829
% es.tEX (V/m) @ t=0.22
1.2842637833972592
% es.tEY (V/m) @ t=0.22
0
% es.tEZ (V/m) @ t=0.22
0.519181258047984
% es.Ex (V/m) @ t=0.22
1.2842637833972574
% es.Ey (V/m) @ t=0.22
0.0808651189609862
% es.Ez (V/m) @ t=0.22
0.5191812580479829
% es.tEx (V/m) @ t=0.22
1.2842637833972592
% es.tEy (V/m) @ t=0.22
0
% es.tEz (V/m) @ t=0.22
0.519181258047984
% V (V) @ t=0.22
0.006932045439332414
% es.normE (V/m) @ t=0.24
1.4024121761668775
% es.EX (V/m) @ t=0.24
1.2960119328813944
% es.EY (V/m) @ t=0.24
0.08160486604311423
% es.EZ (V/m) @ t=0.24
0.5239306228111835
% es.tEX (V/m) @ t=0.24
1.2960119328813908
% es.tEY (V/m) @ t=0.24
0
% es.tEZ (V/m) @ t=0.24
0.5239306228111853
% es.Ex (V/m) @ t=0.24
1.2960119328813944
% es.Ey (V/m) @ t=0.24
0.08160486604311423
% es.Ez (V/m) @ t=0.24
0.5239306228111835
% es.tEx (V/m) @ t=0.24
1.2960119328813908
% es.tEy (V/m) @ t=0.24
0
% es.tEz (V/m) @ t=0.24
0.5239306228111853
% V (V) @ t=0.24
0.006995457653099703
% es.normE (V/m) @ t=0.26
1.4151248329678943
% es.EX (V/m) @ t=0.26
1.3077600823655322
% es.EY (V/m) @ t=0.26
0.08234461312524127
% es.EZ (V/m) @ t=0.26
0.528679987574376
% es.tEX (V/m) @ t=0.26
1.3077600823655304
% es.tEY (V/m) @ t=0.26
0
% es.tEZ (V/m) @ t=0.26
0.5286799875743773
% es.Ex (V/m) @ t=0.26
1.3077600823655322
% es.Ey (V/m) @ t=0.26
0.08234461312524127
% es.Ez (V/m) @ t=0.26
0.528679987574376
% es.tEx (V/m) @ t=0.26
1.3077600823655304
% es.tEy (V/m) @ t=0.26
0
% es.tEz (V/m) @ t=0.26
0.5286799875743773
% V (V) @ t=0.26
0.007058869866866994
% es.normE (V/m) @ t=0.28
1.4283540591665114
% es.EX (V/m) @ t=0.28
1.3199856114123536
% es.EY (V/m) @ t=0.28
0.08311441447081142
% es.EZ (V/m) @ t=0.28
0.5336223339864818
% es.tEX (V/m) @ t=0.28
1.3199856114123518
% es.tEY (V/m) @ t=0.28
0
% es.tEZ (V/m) @ t=0.28
0.5336223339864814
% es.Ex (V/m) @ t=0.28
1.3199856114123536
% es.Ey (V/m) @ t=0.28
0.08311441447081142
% es.Ez (V/m) @ t=0.28
0.5336223339864818
% es.tEx (V/m) @ t=0.28
1.3199856114123518
% es.tEy (V/m) @ t=0.28
0
% es.tEz (V/m) @ t=0.28
0.5336223339864814
% V (V) @ t=0.28
0.007124859030853761
% es.normE (V/m) @ t=0.3
1.4425196803539437
% es.EX (V/m) @ t=0.3
1.3330764953027465
% es.EY (V/m) @ t=0.3
0.08393869574065443
% es.EZ (V/m) @ t=0.3
0.538914501835615
% es.tEX (V/m) @ t=0.3
1.3330764953027474
% es.tEY (V/m) @ t=0.3
0
% es.tEZ (V/m) @ t=0.3
0.538914501835619
% es.Ex (V/m) @ t=0.3
1.3330764953027465
% es.Ey (V/m) @ t=0.3
0.08393869574065443
% es.Ez (V/m) @ t=0.3
0.538914501835615
% es.tEx (V/m) @ t=0.3
1.3330764953027474
% es.tEy (V/m) @ t=0.3
0
% es.tEz (V/m) @ t=0.3
0.538914501835619
% V (V) @ t=0.3
0.00719551948060209
% es.normE (V/m) @ t=0.32
1.4566853015413668
% es.EX (V/m) @ t=0.32
1.3461673791931315
% es.EY (V/m) @ t=0.32
0.08476297701050362
% es.EZ (V/m) @ t=0.32
0.5442066696847405
% es.tEX (V/m) @ t=0.32
1.3461673791931315
% es.tEY (V/m) @ t=0.32
0
% es.tEZ (V/m) @ t=0.32
0.544206669684745
% es.Ex (V/m) @ t=0.32
1.3461673791931315
% es.Ey (V/m) @ t=0.32
0.08476297701050362
% es.Ez (V/m) @ t=0.32
0.5442066696847405
% es.tEx (V/m) @ t=0.32
1.3461673791931315
% es.tEy (V/m) @ t=0.32
0
% es.tEz (V/m) @ t=0.32
0.544206669684745
% V (V) @ t=0.32
0.00726617993035042
% es.normE (V/m) @ t=0.34
1.4708509227287858
% es.EX (V/m) @ t=0.34
1.3592582630835146
% es.EY (V/m) @ t=0.34
0.08558725828034841
% es.EZ (V/m) @ t=0.34
0.5494988375338639
% es.tEX (V/m) @ t=0.34
1.3592582630835128
% es.tEY (V/m) @ t=0.34
0
% es.tEZ (V/m) @ t=0.34
0.5494988375338656
% es.Ex (V/m) @ t=0.34
1.3592582630835146
% es.Ey (V/m) @ t=0.34
0.08558725828034841
% es.Ez (V/m) @ t=0.34
0.5494988375338639
% es.tEx (V/m) @ t=0.34
1.3592582630835128
% es.tEy (V/m) @ t=0.34
0
% es.tEz (V/m) @ t=0.34
0.5494988375338656
% V (V) @ t=0.34
0.007336840380098751
% es.normE (V/m) @ t=0.36
1.4850165439162155
% es.EX (V/m) @ t=0.36
1.3723491469739058
% es.EY (V/m) @ t=0.36
0.08641153955020203
% es.EZ (V/m) @ t=0.36
0.5547910053829916
% es.tEX (V/m) @ t=0.36
1.3723491469739084
% es.tEY (V/m) @ t=0.36
0
% es.tEZ (V/m) @ t=0.36
0.5547910053829925
% es.Ex (V/m) @ t=0.36
1.3723491469739058
% es.Ey (V/m) @ t=0.36
0.08641153955020203
% es.Ez (V/m) @ t=0.36
0.5547910053829916
% es.tEx (V/m) @ t=0.36
1.3723491469739084
% es.tEy (V/m) @ t=0.36
0
% es.tEz (V/m) @ t=0.36
0.5547910053829925
% V (V) @ t=0.36
0.007407500829847082
% es.normE (V/m) @ t=0.38
1.499182165103641
% es.EX (V/m) @ t=0.38
1.3854400308642925
% es.EY (V/m) @ t=0.38
0.08723582082004955
% es.EZ (V/m) @ t=0.38
0.5600831732321216
% es.tEX (V/m) @ t=0.38
1.385440030864289
% es.tEY (V/m) @ t=0.38
0
% es.tEZ (V/m) @ t=0.38
0.5600831732321199
% es.Ex (V/m) @ t=0.38
1.3854400308642925
% es.Ey (V/m) @ t=0.38
0.08723582082004955
% es.Ez (V/m) @ t=0.38
0.5600831732321216
% es.tEx (V/m) @ t=0.38
1.385440030864289
% es.tEy (V/m) @ t=0.38
0
% es.tEz (V/m) @ t=0.38
0.5600831732321199
% V (V) @ t=0.38
0.00747816127959541
% es.normE (V/m) @ t=0.4
1.5133477862910678
% es.EX (V/m) @ t=0.4
1.3985309147546783
% es.EY (V/m) @ t=0.4
0.0880601020899014
% es.EZ (V/m) @ t=0.4
0.565375341081255
% es.tEX (V/m) @ t=0.4
1.3985309147546765
% es.tEY (V/m) @ t=0.4
0
% es.tEZ (V/m) @ t=0.4
0.5653753410812543
% es.Ex (V/m) @ t=0.4
1.3985309147546783
% es.Ey (V/m) @ t=0.4
0.0880601020899014
% es.Ez (V/m) @ t=0.4
0.565375341081255
% es.tEx (V/m) @ t=0.4
1.3985309147546765
% es.tEy (V/m) @ t=0.4
0
% es.tEz (V/m) @ t=0.4
0.5653753410812543
% V (V) @ t=0.4
0.007548821729343742
% es.normE (V/m) @ t=0.42
1.5275134074784908
% es.EX (V/m) @ t=0.42
1.411621798645064
% es.EY (V/m) @ t=0.42
0.08888438335974885
% es.EZ (V/m) @ t=0.42
0.5706675089303808
% es.tEX (V/m) @ t=0.42
1.4116217986450632
% es.tEY (V/m) @ t=0.42
0
% es.tEZ (V/m) @ t=0.42
0.5706675089303799
% es.Ex (V/m) @ t=0.42
1.411621798645064
% es.Ey (V/m) @ t=0.42
0.08888438335974885
% es.Ez (V/m) @ t=0.42
0.5706675089303808
% es.tEx (V/m) @ t=0.42
1.4116217986450632
% es.tEy (V/m) @ t=0.42
0
% es.tEz (V/m) @ t=0.42
0.5706675089303799
% V (V) @ t=0.42
0.00761948217909207
% es.normE (V/m) @ t=0.44
1.541679028665917
% es.EX (V/m) @ t=0.44
1.4247126825354552
% es.EY (V/m) @ t=0.44
0.08970866462959892
% es.EZ (V/m) @ t=0.44
0.5759596767795006
% es.tEX (V/m) @ t=0.44
1.4247126825354588
% es.tEY (V/m) @ t=0.44
0
% es.tEZ (V/m) @ t=0.44
0.5759596767795014
% es.Ex (V/m) @ t=0.44
1.4247126825354552
% es.Ey (V/m) @ t=0.44
0.08970866462959892
% es.Ez (V/m) @ t=0.44
0.5759596767795006
% es.tEx (V/m) @ t=0.44
1.4247126825354588
% es.tEy (V/m) @ t=0.44
0
% es.tEz (V/m) @ t=0.44
0.5759596767795014
% V (V) @ t=0.44
0.007690142628840401
% es.normE (V/m) @ t=0.46
1.555844649853345
% es.EX (V/m) @ t=0.46
1.4378035664258437
% es.EY (V/m) @ t=0.46
0.09053294589945005
% es.EZ (V/m) @ t=0.46
0.5812518446286301
% es.tEX (V/m) @ t=0.46
1.4378035664258464
% es.tEY (V/m) @ t=0.46
0
% es.tEZ (V/m) @ t=0.46
0.581251844628631
% es.Ex (V/m) @ t=0.46
1.4378035664258437
% es.Ey (V/m) @ t=0.46
0.09053294589945005
% es.Ez (V/m) @ t=0.46
0.5812518446286301
% es.tEx (V/m) @ t=0.46
1.4378035664258464
% es.tEy (V/m) @ t=0.46
0
% es.tEz (V/m) @ t=0.46
0.581251844628631
% V (V) @ t=0.46
0.00776080307858873
% es.normE (V/m) @ t=0.48
1.5700102710407693
% es.EX (V/m) @ t=0.48
1.4508944503162295
% es.EY (V/m) @ t=0.48
0.09135722716929567
% es.EZ (V/m) @ t=0.48
0.5865440124777588
% es.tEX (V/m) @ t=0.48
1.4508944503162349
% es.tEY (V/m) @ t=0.48
0
% es.tEZ (V/m) @ t=0.48
0.5865440124777597
% es.Ex (V/m) @ t=0.48
1.4508944503162295
% es.Ey (V/m) @ t=0.48
0.09135722716929567
% es.Ez (V/m) @ t=0.48
0.5865440124777588
% es.tEx (V/m) @ t=0.48
1.4508944503162349
% es.tEy (V/m) @ t=0.48
0
% es.tEz (V/m) @ t=0.48
0.5865440124777597
% V (V) @ t=0.48
0.007831463528337058
% es.normE (V/m) @ t=0.5
1.584175892228192
% es.EX (V/m) @ t=0.5
1.4639853342066136
% es.EY (V/m) @ t=0.5
0.09218150843914491
% es.EZ (V/m) @ t=0.5
0.5918361803268868
% es.tEX (V/m) @ t=0.5
1.4639853342066127
% es.tEY (V/m) @ t=0.5
0
% es.tEZ (V/m) @ t=0.5
0.591836180326887
% es.Ex (V/m) @ t=0.5
1.4639853342066136
% es.Ey (V/m) @ t=0.5
0.09218150843914491
% es.Ez (V/m) @ t=0.5
0.5918361803268868
% es.tEx (V/m) @ t=0.5
1.4639853342066127
% es.tEy (V/m) @ t=0.5
0
% es.tEz (V/m) @ t=0.5
0.591836180326887
% V (V) @ t=0.5
0.00790212397808539
% es.normE (V/m) @ t=0.52
1.5983415134156194
% es.EX (V/m) @ t=0.52
1.4770762180970065
% es.EY (V/m) @ t=0.52
0.09300578970899664
% es.EZ (V/m) @ t=0.52
0.5971283481760068
% es.tEX (V/m) @ t=0.52
1.4770762180970047
% es.tEY (V/m) @ t=0.52
0
% es.tEZ (V/m) @ t=0.52
0.5971283481760086
% es.Ex (V/m) @ t=0.52
1.4770762180970065
% es.Ey (V/m) @ t=0.52
0.09300578970899664
% es.Ez (V/m) @ t=0.52
0.5971283481760068
% es.tEx (V/m) @ t=0.52
1.4770762180970047
% es.tEy (V/m) @ t=0.52
0
% es.tEz (V/m) @ t=0.52
0.5971283481760086
% V (V) @ t=0.52
0.007972784427833718
% es.normE (V/m) @ t=0.54
1.6125071346030424
% es.EX (V/m) @ t=0.54
1.4901671019873892
% es.EY (V/m) @ t=0.54
0.09383007097884333
% es.EZ (V/m) @ t=0.54
0.6024205160251395
% es.tEX (V/m) @ t=0.54
1.4901671019873914
% es.tEY (V/m) @ t=0.54
0
% es.tEZ (V/m) @ t=0.54
0.6024205160251412
% es.Ex (V/m) @ t=0.54
1.4901671019873892
% es.Ey (V/m) @ t=0.54
0.09383007097884333
% es.Ez (V/m) @ t=0.54
0.6024205160251395
% es.tEx (V/m) @ t=0.54
1.4901671019873914
% es.tEy (V/m) @ t=0.54
0
% es.tEz (V/m) @ t=0.54
0.6024205160251412
% V (V) @ t=0.54
0.008043444877582049
% es.normE (V/m) @ t=0.56
1.6278605755769846
% es.EX (V/m) @ t=0.56
1.5043556868913739
% es.EY (V/m) @ t=0.56
0.09472346893339112
% es.EZ (V/m) @ t=0.56
0.6081564433069226
% es.tEX (V/m) @ t=0.56
1.5043556868913726
% es.tEY (V/m) @ t=0.56
0
% es.tEZ (V/m) @ t=0.56
0.6081564433069238
% es.Ex (V/m) @ t=0.56
1.5043556868913739
% es.Ey (V/m) @ t=0.56
0.09472346893339112
% es.Ez (V/m) @ t=0.56
0.6081564433069226
% es.tEx (V/m) @ t=0.56
1.5043556868913726
% es.tEy (V/m) @ t=0.56
0
% es.tEz (V/m) @ t=0.56
0.6081564433069238
% V (V) @ t=0.56
0.008120030431060452
% es.normE (V/m) @ t=0.58
1.643673562308998
% es.EX (V/m) @ t=0.58
1.5189689522478567
% es.EY (V/m) @ t=0.58
0.09564360686957718
% es.EZ (V/m) @ t=0.58
0.6140640529997938
% es.tEX (V/m) @ t=0.58
1.5189689522478549
% es.tEY (V/m) @ t=0.58
0
% es.tEZ (V/m) @ t=0.58
0.614064052999792
% es.Ex (V/m) @ t=0.58
1.5189689522478567
% es.Ey (V/m) @ t=0.58
0.09564360686957718
% es.Ez (V/m) @ t=0.58
0.6140640529997938
% es.tEx (V/m) @ t=0.58
1.5189689522478549
% es.tEy (V/m) @ t=0.58
0
% es.tEz (V/m) @ t=0.58
0.614064052999792
% V (V) @ t=0.58
0.008198908298841269
% es.normE (V/m) @ t=0.6
1.6594865490409951
% es.EX (V/m) @ t=0.6
1.533582217604324
% es.EY (V/m) @ t=0.6
0.09656374480574648
% es.EZ (V/m) @ t=0.6
0.6199716626926648
% es.tEX (V/m) @ t=0.6
1.533582217604331
% es.tEY (V/m) @ t=0.6
0
% es.tEZ (V/m) @ t=0.6
0.6199716626926666
% es.Ex (V/m) @ t=0.6
1.533582217604324
% es.Ey (V/m) @ t=0.6
0.09656374480574648
% es.Ez (V/m) @ t=0.6
0.6199716626926648
% es.tEx (V/m) @ t=0.6
1.533582217604331
% es.tEy (V/m) @ t=0.6
0
% es.tEz (V/m) @ t=0.6
0.6199716626926666
% V (V) @ t=0.6
0.008277786166622086
% es.normE (V/m) @ t=0.62
1.6752995357730183
% es.EX (V/m) @ t=0.62
1.5481954829608187
% es.EY (V/m) @ t=0.62
0.0974838827419291
% es.EZ (V/m) @ t=0.62
0.625879272385536
% es.tEX (V/m) @ t=0.62
1.5481954829608204
% es.tEY (V/m) @ t=0.62
0
% es.tEZ (V/m) @ t=0.62
0.6258792723855375
% es.Ex (V/m) @ t=0.62
1.5481954829608187
% es.Ey (V/m) @ t=0.62
0.0974838827419291
% es.Ez (V/m) @ t=0.62
0.625879272385536
% es.tEx (V/m) @ t=0.62
1.5481954829608204
% es.tEy (V/m) @ t=0.62
0
% es.tEz (V/m) @ t=0.62
0.6258792723855375
% V (V) @ t=0.62
0.008356664034402904
% es.normE (V/m) @ t=0.64
1.6911125225050236
% es.EX (V/m) @ t=0.64
1.5628087483172974
% es.EY (V/m) @ t=0.64
0.0984040206780955
% es.EZ (V/m) @ t=0.64
0.6317868820783992
% es.tEX (V/m) @ t=0.64
1.5628087483172992
% es.tEY (V/m) @ t=0.64
0
% es.tEZ (V/m) @ t=0.64
0.631786882078401
% es.Ex (V/m) @ t=0.64
1.5628087483172974
% es.Ey (V/m) @ t=0.64
0.0984040206780955
% es.Ez (V/m) @ t=0.64
0.6317868820783992
% es.tEx (V/m) @ t=0.64
1.5628087483172992
% es.tEy (V/m) @ t=0.64
0
% es.tEz (V/m) @ t=0.64
0.631786882078401
% V (V) @ t=0.64
0.008435541902183721
% es.normE (V/m) @ t=0.66
1.706925509237029
% es.EX (V/m) @ t=0.66
1.5774220136737727
% es.EY (V/m) @ t=0.66
0.09932415861428612
% es.EZ (V/m) @ t=0.66
0.6376944917712701
% es.tEX (V/m) @ t=0.66
1.5774220136737744
% es.tEY (V/m) @ t=0.66
0
% es.tEZ (V/m) @ t=0.66
0.6376944917712648
% es.Ex (V/m) @ t=0.66
1.5774220136737727
% es.Ey (V/m) @ t=0.66
0.09932415861428612
% es.Ez (V/m) @ t=0.66
0.6376944917712701
% es.tEx (V/m) @ t=0.66
1.5774220136737744
% es.tEy (V/m) @ t=0.66
0
% es.tEz (V/m) @ t=0.66
0.6376944917712648
% V (V) @ t=0.66
0.00851441976996454
% es.normE (V/m) @ t=0.68
1.7227384959690464
% es.EX (V/m) @ t=0.68
1.592035279030259
% es.EY (V/m) @ t=0.68
0.10024429655045808
% es.EZ (V/m) @ t=0.68
0.6436021014641466
% es.tEX (V/m) @ t=0.68
1.5920352790302505
% es.tEY (V/m) @ t=0.68
0
% es.tEZ (V/m) @ t=0.68
0.6436021014641429
% es.Ex (V/m) @ t=0.68
1.592035279030259
% es.Ey (V/m) @ t=0.68
0.10024429655045808
% es.Ez (V/m) @ t=0.68
0.6436021014641466
% es.tEx (V/m) @ t=0.68
1.5920352790302505
% es.tEy (V/m) @ t=0.68
0
% es.tEz (V/m) @ t=0.68
0.6436021014641429
% V (V) @ t=0.68
0.008593297637745356
% es.normE (V/m) @ t=0.7
1.7385514827010597
% es.EX (V/m) @ t=0.7
1.6066485443867449
% es.EY (V/m) @ t=0.7
0.10116443448662904
% es.EZ (V/m) @ t=0.7
0.6495097111570134
% es.tEX (V/m) @ t=0.7
1.6066485443867409
% es.tEY (V/m) @ t=0.7
0
% es.tEZ (V/m) @ t=0.7
0.6495097111570134
% es.Ex (V/m) @ t=0.7
1.6066485443867449
% es.Ey (V/m) @ t=0.7
0.10116443448662904
% es.Ez (V/m) @ t=0.7
0.6495097111570134
% es.tEx (V/m) @ t=0.7
1.6066485443867409
% es.tEy (V/m) @ t=0.7
0
% es.tEz (V/m) @ t=0.7
0.6495097111570134
% V (V) @ t=0.7
0.008672175505526174
% es.normE (V/m) @ t=0.72
1.7543644694330625
% es.EX (V/m) @ t=0.72
1.6212618097432148
% es.EY (V/m) @ t=0.72
0.10208457242281066
% es.EZ (V/m) @ t=0.72
0.6554173208498901
% es.tEX (V/m) @ t=0.72
1.621261809743225
% es.tEY (V/m) @ t=0.72
0
% es.tEZ (V/m) @ t=0.72
0.6554173208498857
% es.Ex (V/m) @ t=0.72
1.6212618097432148
% es.Ey (V/m) @ t=0.72
0.10208457242281066
% es.Ez (V/m) @ t=0.72
0.6554173208498901
% es.tEx (V/m) @ t=0.72
1.621261809743225
% es.tEy (V/m) @ t=0.72
0
% es.tEz (V/m) @ t=0.72
0.6554173208498857
% V (V) @ t=0.72
0.008751053373306993
% es.normE (V/m) @ t=0.74
1.7701774561650687
% es.EX (V/m) @ t=0.74
1.6358750750996975
% es.EY (V/m) @ t=0.74
0.10300471035898173
% es.EZ (V/m) @ t=0.74
0.6613249305427469
% es.tEX (V/m) @ t=0.74
1.6358750750996975
% es.tEY (V/m) @ t=0.74
0
% es.tEZ (V/m) @ t=0.74
0.661324930542746
% es.Ex (V/m) @ t=0.74
1.6358750750996975
% es.Ey (V/m) @ t=0.74
0.10300471035898173
% es.Ez (V/m) @ t=0.74
0.6613249305427469
% es.tEx (V/m) @ t=0.74
1.6358750750996975
% es.tEy (V/m) @ t=0.74
0
% es.tEz (V/m) @ t=0.74
0.661324930542746
% V (V) @ t=0.74
0.00882993124108781
% es.normE (V/m) @ t=0.76
1.7859904428970814
% es.EX (V/m) @ t=0.76
1.6504883404561776
% es.EY (V/m) @ t=0.76
0.1039248482951678
% es.EZ (V/m) @ t=0.76
0.6672325402356245
% es.tEX (V/m) @ t=0.76
1.650488340456178
% es.tEY (V/m) @ t=0.76
0
% es.tEZ (V/m) @ t=0.76
0.6672325402356272
% es.Ex (V/m) @ t=0.76
1.6504883404561776
% es.Ey (V/m) @ t=0.76
0.1039248482951678
% es.Ez (V/m) @ t=0.76
0.6672325402356245
% es.tEx (V/m) @ t=0.76
1.650488340456178
% es.tEy (V/m) @ t=0.76
0
% es.tEz (V/m) @ t=0.76
0.6672325402356272
% V (V) @ t=0.76
0.008908809108868628
% es.normE (V/m) @ t=0.78
1.8018034296290995
% es.EX (V/m) @ t=0.78
1.665101605812664
% es.EY (V/m) @ t=0.78
0.10484498623133609
% es.EZ (V/m) @ t=0.78
0.6731401499285035
% es.tEX (V/m) @ t=0.78
1.665101605812664
% es.tEY (V/m) @ t=0.78
0
% es.tEZ (V/m) @ t=0.78
0.6731401499284999
% es.Ex (V/m) @ t=0.78
1.665101605812664
% es.Ey (V/m) @ t=0.78
0.10484498623133609
% es.Ez (V/m) @ t=0.78
0.6731401499285035
% es.tEx (V/m) @ t=0.78
1.665101605812664
% es.tEy (V/m) @ t=0.78
0
% es.tEz (V/m) @ t=0.78
0.6731401499284999
% V (V) @ t=0.78
0.008987686976649445
% es.normE (V/m) @ t=0.8
1.817616416361104
% es.EX (V/m) @ t=0.8
1.6797148711691445
% es.EY (V/m) @ t=0.8
0.1057651241675106
% es.EZ (V/m) @ t=0.8
0.6790477596213598
% es.tEX (V/m) @ t=0.8
1.6797148711691303
% es.tEY (V/m) @ t=0.8
0
% es.tEZ (V/m) @ t=0.8
0.6790477596213633
% es.Ex (V/m) @ t=0.8
1.6797148711691445
% es.Ey (V/m) @ t=0.8
0.1057651241675106
% es.Ez (V/m) @ t=0.8
0.6790477596213598
% es.tEx (V/m) @ t=0.8
1.6797148711691303
% es.tEy (V/m) @ t=0.8
0
% es.tEz (V/m) @ t=0.8
0.6790477596213633
% V (V) @ t=0.8
0.009066564844430264
% es.normE (V/m) @ t=0.82
1.8335913837086435
% es.EX (V/m) @ t=0.82
1.6944778278918187
% es.EY (V/m) @ t=0.82
0.10669468728177522
% es.EZ (V/m) @ t=0.82
0.6850158837390594
% es.tEX (V/m) @ t=0.82
1.6944778278918227
% es.tEY (V/m) @ t=0.82
0
% es.tEZ (V/m) @ t=0.82
0.6850158837390641
% es.Ex (V/m) @ t=0.82
1.6944778278918187
% es.Ey (V/m) @ t=0.82
0.10669468728177522
% es.Ez (V/m) @ t=0.82
0.6850158837390594
% es.tEx (V/m) @ t=0.82
1.6944778278918227
% es.tEy (V/m) @ t=0.82
0
% es.tEz (V/m) @ t=0.82
0.6850158837390641
% V (V) @ t=0.82
0.009146250712783702
% es.normE (V/m) @ t=0.84
1.8512757642789968
% es.EX (V/m) @ t=0.84
1.7108205069774316
% es.EY (V/m) @ t=0.84
0.10772371614992815
% es.EZ (V/m) @ t=0.84
0.6916226284573392
% es.tEX (V/m) @ t=0.84
1.7108205069774325
% es.tEY (V/m) @ t=0.84
0
% es.tEZ (V/m) @ t=0.84
0.6916226284573339
% es.Ex (V/m) @ t=0.84
1.7108205069774316
% es.Ey (V/m) @ t=0.84
0.10772371614992815
% es.Ez (V/m) @ t=0.84
0.6916226284573392
% es.tEx (V/m) @ t=0.84
1.7108205069774325
% es.tEy (V/m) @ t=0.84
0
% es.tEz (V/m) @ t=0.84
0.6916226284573339
% V (V) @ t=0.84
0.009234463569742064
% es.normE (V/m) @ t=0.86
1.868960144849341
% es.EX (V/m) @ t=0.86
1.7271631860630317
% es.EY (V/m) @ t=0.86
0.10875274501808208
% es.EZ (V/m) @ t=0.86
0.6982293731756264
% es.tEX (V/m) @ t=0.86
1.727163186063036
% es.tEY (V/m) @ t=0.86
0
% es.tEZ (V/m) @ t=0.86
0.6982293731756317
% es.Ex (V/m) @ t=0.86
1.7271631860630317
% es.Ey (V/m) @ t=0.86
0.10875274501808208
% es.Ez (V/m) @ t=0.86
0.6982293731756264
% es.tEx (V/m) @ t=0.86
1.727163186063036
% es.tEy (V/m) @ t=0.86
0
% es.tEz (V/m) @ t=0.86
0.6982293731756317
% V (V) @ t=0.86
0.009322676426700427
% es.normE (V/m) @ t=0.88
1.886644525419692
% es.EX (V/m) @ t=0.88
1.7435058651486335
% es.EY (V/m) @ t=0.88
0.10978177388624555
% es.EZ (V/m) @ t=0.88
0.7048361178939262
% es.tEX (V/m) @ t=0.88
1.7435058651486326
% es.tEY (V/m) @ t=0.88
0
% es.tEZ (V/m) @ t=0.88
0.7048361178939273
% es.Ex (V/m) @ t=0.88
1.7435058651486335
% es.Ey (V/m) @ t=0.88
0.10978177388624555
% es.Ez (V/m) @ t=0.88
0.7048361178939262
% es.tEx (V/m) @ t=0.88
1.7435058651486326
% es.tEy (V/m) @ t=0.88
0
% es.tEz (V/m) @ t=0.88
0.7048361178939273
% V (V) @ t=0.88
0.00941088928365879
% es.normE (V/m) @ t=0.9
1.9043289059900461
% es.EX (V/m) @ t=0.9
1.759848544234246
% es.EY (V/m) @ t=0.9
0.11081080275439936
% es.EZ (V/m) @ t=0.9
0.7114428626122078
% es.tEX (V/m) @ t=0.9
1.7598485442342433
% es.tEY (V/m) @ t=0.9
0
% es.tEZ (V/m) @ t=0.9
0.7114428626122078
% es.Ex (V/m) @ t=0.9
1.759848544234246
% es.Ey (V/m) @ t=0.9
0.11081080275439936
% es.Ez (V/m) @ t=0.9
0.7114428626122078
% es.tEx (V/m) @ t=0.9
1.7598485442342433
% es.tEy (V/m) @ t=0.9
0
% es.tEz (V/m) @ t=0.9
0.7114428626122078
% V (V) @ t=0.9
0.00949910214061715
% es.normE (V/m) @ t=0.92
1.9220132865604065
% es.EX (V/m) @ t=0.92
1.776191223319862
% es.EY (V/m) @ t=0.92
0.11183983162254962
% es.EZ (V/m) @ t=0.92
0.7180496073304996
% es.tEX (V/m) @ t=0.92
1.7761912233198665
% es.tEY (V/m) @ t=0.92
0
% es.tEZ (V/m) @ t=0.92
0.718049607330498
% es.Ex (V/m) @ t=0.92
1.776191223319862
% es.Ey (V/m) @ t=0.92
0.11183983162254962
% es.Ez (V/m) @ t=0.92
0.7180496073304996
% es.tEx (V/m) @ t=0.92
1.7761912233198665
% es.tEy (V/m) @ t=0.92
0
% es.tEz (V/m) @ t=0.92
0.718049607330498
% V (V) @ t=0.92
0.009587314997575515
% es.normE (V/m) @ t=0.94
1.9396976671307504
% es.EX (V/m) @ t=0.94
1.7925339024054603
% es.EY (V/m) @ t=0.94
0.11286886049069822
% es.EZ (V/m) @ t=0.94
0.7246563520487899
% es.tEX (V/m) @ t=0.94
1.7925339024054523
% es.tEY (V/m) @ t=0.94
0
% es.tEZ (V/m) @ t=0.94
0.7246563520487914
% es.Ex (V/m) @ t=0.94
1.7925339024054603
% es.Ey (V/m) @ t=0.94
0.11286886049069822
% es.Ez (V/m) @ t=0.94
0.7246563520487899
% es.tEx (V/m) @ t=0.94
1.7925339024054523
% es.tEy (V/m) @ t=0.94
0
% es.tEz (V/m) @ t=0.94
0.7246563520487914
% V (V) @ t=0.94
0.009675527854533876
% es.normE (V/m) @ t=0.96
1.9573820477011026
% es.EX (V/m) @ t=0.96
1.8088765814910648
% es.EY (V/m) @ t=0.96
0.11389788935886092
% es.EZ (V/m) @ t=0.96
0.731263096767087
% es.tEX (V/m) @ t=0.96
1.8088765814910648
% es.tEY (V/m) @ t=0.96
0
% es.tEZ (V/m) @ t=0.96
0.7312630967670852
% es.Ex (V/m) @ t=0.96
1.8088765814910648
% es.Ey (V/m) @ t=0.96
0.11389788935886092
% es.Ez (V/m) @ t=0.96
0.731263096767087
% es.tEx (V/m) @ t=0.96
1.8088765814910648
% es.tEy (V/m) @ t=0.96
0
% es.tEz (V/m) @ t=0.96
0.7312630967670852
% V (V) @ t=0.96
0.00976374071149224
% es.normE (V/m) @ t=0.98
1.9750664282714518
% es.EX (V/m) @ t=0.98
1.8252192605766764
% es.EY (V/m) @ t=0.98
0.1149269182270155
% es.EZ (V/m) @ t=0.98
0.7378698414853557
% es.tEX (V/m) @ t=0.98
1.8252192605766773
% es.tEY (V/m) @ t=0.98
0
% es.tEZ (V/m) @ t=0.98
0.7378698414853613
% es.Ex (V/m) @ t=0.98
1.8252192605766764
% es.Ey (V/m) @ t=0.98
0.1149269182270155
% es.Ez (V/m) @ t=0.98
0.7378698414853557
% es.tEx (V/m) @ t=0.98
1.8252192605766773
% es.tEy (V/m) @ t=0.98
0
% es.tEz (V/m) @ t=0.98
0.7378698414853613
% V (V) @ t=0.98
0.009851953568450604
% es.normE (V/m) @ t=1
1.9927508088417967
% es.EX (V/m) @ t=1
1.8415619396622755
% es.EY (V/m) @ t=1
0.11595594709516766
% es.EZ (V/m) @ t=1
0.7444765862036471
% es.tEX (V/m) @ t=1
1.8415619396622755
% es.tEY (V/m) @ t=1
0
% es.tEZ (V/m) @ t=1
0.7444765862036471
% es.Ex (V/m) @ t=1
1.8415619396622755
% es.Ey (V/m) @ t=1
0.11595594709516766
% es.Ez (V/m) @ t=1
0.7444765862036471
% es.tEx (V/m) @ t=1
1.8415619396622755
% es.tEy (V/m) @ t=1
0
% es.tEz (V/m) @ t=1
0.7444765862036471
% V (V) @ t=1
0.009940166425408967
% es.normE (V/m) @ t=1.02
2.0104351894121475
% es.EX (V/m) @ t=1.02
1.8579046187478783
% es.EY (V/m) @ t=1.02
0.1169849759633258
% es.EZ (V/m) @ t=1.02
0.7510833309219425
% es.tEX (V/m) @ t=1.02
1.8579046187478774
% es.tEY (V/m) @ t=1.02
0
% es.tEZ (V/m) @ t=1.02
0.7510833309219445
% es.Ex (V/m) @ t=1.02
1.8579046187478783
% es.Ey (V/m) @ t=1.02
0.1169849759633258
% es.Ez (V/m) @ t=1.02
0.7510833309219425
% es.tEx (V/m) @ t=1.02
1.8579046187478774
% es.tEy (V/m) @ t=1.02
0
% es.tEz (V/m) @ t=1.02
0.7510833309219445
% V (V) @ t=1.02
0.01002837928236733
% es.normE (V/m) @ t=1.04
2.0281195699824917
% es.EX (V/m) @ t=1.04
1.8742472978334783
% es.EY (V/m) @ t=1.04
0.11801400483147084
% es.EZ (V/m) @ t=1.04
0.7576900756402292
% es.tEX (V/m) @ t=1.04
1.874247297833481
% es.tEY (V/m) @ t=1.04
0
% es.tEZ (V/m) @ t=1.04
0.7576900756402236
% es.Ex (V/m) @ t=1.04
1.8742472978334783
% es.Ey (V/m) @ t=1.04
0.11801400483147084
% es.Ez (V/m) @ t=1.04
0.7576900756402292