% Model:              1 neuron.mph
% Version:            COMSOL 6.0.0.405
% Date:               Mar 16 2023, 10:09
% Dimension:          0
% Nodes:              14017
% Expressions:        14017
% Description:        Electric field norm, Electric field, X component, Electric field, Y component, Electric field, Z component, Tangential electric field, X component, Tangential electric field, Y component, Tangential electric field, Z component, Electric field, x component, Electric field, y component, Electric field, z component, Tangential electric field, x component, Tangential electric field, y component, Tangential electric field, z component, Electric potential
% Length unit:        mm
% x
1.66
% y
12.2
% z
1.33
% es.normE (V/m) @ t=0
7.725251147058218
% es.EX (V/m) @ t=0
-4.292462158226655
% es.EY (V/m) @ t=0
-0.4633338744526678
% es.EZ (V/m) @ t=0
5.747578106168117
% es.tEX (V/m) @ t=0
-4.2924621582266616
% es.tEY (V/m) @ t=0
0
% es.tEZ (V/m) @ t=0
5.747578106168111
% es.Ex (V/m) @ t=0
-4.292462158226655
% es.Ey (V/m) @ t=0
-0.4633338744526678
% es.Ez (V/m) @ t=0
5.747578106168117
% es.tEx (V/m) @ t=0
-4.2924621582266616
% es.tEy (V/m) @ t=0
0
% es.tEz (V/m) @ t=0
5.747578106168111
% V (V) @ t=0
0.006344478354881772
% es.normE (V/m) @ t=0.02
6.6724443157471285
% es.EX (V/m) @ t=0.02
-3.7074802251263517
% es.EY (V/m) @ t=0.02
-0.4001900836735408
% es.EZ (V/m) @ t=0.02
4.964290945959428
% es.tEX (V/m) @ t=0.02
-3.7074802251263623
% es.tEY (V/m) @ t=0.02
0
% es.tEZ (V/m) @ t=0.02
4.964290945959421
% es.Ex (V/m) @ t=0.02
-3.7074802251263517
% es.Ey (V/m) @ t=0.02
-0.4001900836735408
% es.Ez (V/m) @ t=0.02
4.964290945959428
% es.tEx (V/m) @ t=0.02
-3.7074802251263623
% es.tEy (V/m) @ t=0.02
0
% es.tEz (V/m) @ t=0.02
4.964290945959421
% V (V) @ t=0.02
0.005479844839128609
% es.normE (V/m) @ t=0.04
6.733814862782195
% es.EX (V/m) @ t=0.04
-3.741580262264308
% es.EY (V/m) @ t=0.04
-0.4038708377118907
% es.EZ (V/m) @ t=0.04
5.009950526491664
% es.tEX (V/m) @ t=0.04
-3.7415802622643106
% es.tEY (V/m) @ t=0.04
0
% es.tEZ (V/m) @ t=0.04
5.009950526491662
% es.Ex (V/m) @ t=0.04
-3.741580262264308
% es.Ey (V/m) @ t=0.04
-0.4038708377118907
% es.Ez (V/m) @ t=0.04
5.009950526491664
% es.tEx (V/m) @ t=0.04
-3.7415802622643106
% es.tEy (V/m) @ t=0.04
0
% es.tEz (V/m) @ t=0.04
5.009950526491662
% V (V) @ t=0.04
0.005530246259069696
% es.normE (V/m) @ t=0.06
6.795736269956034
% es.EX (V/m) @ t=0.06
-3.77598618902201
% es.EY (V/m) @ t=0.06
-0.40758472693398007
% es.EZ (V/m) @ t=0.06
5.056020037010024
% es.tEX (V/m) @ t=0.06
-3.7759861890220163
% es.tEY (V/m) @ t=0.06
0
% es.tEZ (V/m) @ t=0.06
5.056020037010023
% es.Ex (V/m) @ t=0.06
-3.77598618902201
% es.Ey (V/m) @ t=0.06
-0.40758472693398007
% es.Ez (V/m) @ t=0.06
5.056020037010024
% es.tEx (V/m) @ t=0.06
-3.7759861890220163
% es.tEy (V/m) @ t=0.06
0
% es.tEz (V/m) @ t=0.06
5.056020037010023
% V (V) @ t=0.06
0.005581100233561482
% es.normE (V/m) @ t=0.08
6.858609544212319
% es.EX (V/m) @ t=0.08
-3.8109209474552195
% es.EY (V/m) @ t=0.08
-0.4113557383736799
% es.EZ (V/m) @ t=0.08
5.102797766088557
% es.tEX (V/m) @ t=0.08
-3.8109209474552257
% es.tEY (V/m) @ t=0.08
0
% es.tEZ (V/m) @ t=0.08
5.1027977660885515
% es.Ex (V/m) @ t=0.08
-3.8109209474552195
% es.Ey (V/m) @ t=0.08
-0.4113557383736799
% es.Ez (V/m) @ t=0.08
5.102797766088557
% es.tEx (V/m) @ t=0.08
-3.8109209474552257
% es.tEy (V/m) @ t=0.08
0
% es.tEz (V/m) @ t=0.08
5.1027977660885515
% V (V) @ t=0.08
0.005632735994471888
% es.normE (V/m) @ t=0.1
6.922130816755656
% es.EX (V/m) @ t=0.1
-3.84621571625774
% es.EY (V/m) @ t=0.1
-0.41516563664941564
% es.EZ (V/m) @ t=0.1
5.150057625941745
% es.tEX (V/m) @ t=0.1
-3.8462157162577464
% es.tEY (V/m) @ t=0.1
0
% es.tEZ (V/m) @ t=0.1
5.150057625941734
% es.Ex (V/m) @ t=0.1
-3.84621571625774
% es.Ey (V/m) @ t=0.1
-0.41516563664941564
% es.Ez (V/m) @ t=0.1
5.150057625941745
% es.tEx (V/m) @ t=0.1
-3.8462157162577464
% es.tEy (V/m) @ t=0.1
0
% es.tEz (V/m) @ t=0.1
5.150057625941734
% V (V) @ t=0.1
0.005684903968618207
% es.normE (V/m) @ t=0.12
6.985652089299002
% es.EX (V/m) @ t=0.12
-3.881510485060245
% es.EY (V/m) @ t=0.12
-0.41897553492514406
% es.EZ (V/m) @ t=0.12
5.197317485794943
% es.tEX (V/m) @ t=0.12
-3.881510485060251
% es.tEY (V/m) @ t=0.12
0
% es.tEZ (V/m) @ t=0.12
5.1973174857949385
% es.Ex (V/m) @ t=0.12
-3.881510485060245
% es.Ey (V/m) @ t=0.12
-0.41897553492514406
% es.Ez (V/m) @ t=0.12
5.197317485794943
% es.tEx (V/m) @ t=0.12
-3.881510485060251
% es.tEy (V/m) @ t=0.12
0
% es.tEz (V/m) @ t=0.12
5.1973174857949385
% V (V) @ t=0.12
0.005737071942764526
% es.normE (V/m) @ t=0.14
7.049849795789612
% es.EX (V/m) @ t=0.14
-3.9171811293535654
% es.EY (V/m) @ t=0.14
-0.4228259925276814
% es.EZ (V/m) @ t=0.14
5.245080601551893
% es.tEX (V/m) @ t=0.14
-3.9171811293535717
% es.tEY (V/m) @ t=0.14
0
% es.tEZ (V/m) @ t=0.14
5.245080601551889
% es.Ex (V/m) @ t=0.14
-3.9171811293535654
% es.Ey (V/m) @ t=0.14
-0.4228259925276814
% es.Ez (V/m) @ t=0.14
5.245080601551893
% es.tEx (V/m) @ t=0.14
-3.9171811293535717
% es.tEy (V/m) @ t=0.14
0
% es.tEz (V/m) @ t=0.14
5.245080601551889
% V (V) @ t=0.14
0.005789795431309644
% es.normE (V/m) @ t=0.16
7.116755259762707
% es.EX (V/m) @ t=0.16
-3.954356399008849
% es.EY (V/m) @ t=0.16
-0.42683880865926915
% es.EZ (V/m) @ t=0.16
5.294858245031081
% es.tEX (V/m) @ t=0.16
-3.9543563990088515
% es.tEY (V/m) @ t=0.16
0
% es.tEZ (V/m) @ t=0.16
5.294858245031076
% es.Ex (V/m) @ t=0.16
-3.954356399008849
% es.Ey (V/m) @ t=0.16
-0.42683880865926915
% es.Ez (V/m) @ t=0.16
5.294858245031081
% es.tEx (V/m) @ t=0.16
-3.9543563990088515
% es.tEy (V/m) @ t=0.16
0
% es.tEz (V/m) @ t=0.16
5.294858245031076
% V (V) @ t=0.16
0.0058447426377448925
% es.normE (V/m) @ t=0.18
7.183660723735786
% es.EX (V/m) @ t=0.18
-3.9915316686641287
% es.EY (V/m) @ t=0.18
-0.43085162479084627
% es.EZ (V/m) @ t=0.18
5.344635888510255
% es.tEX (V/m) @ t=0.18
-3.991531668664135
% es.tEY (V/m) @ t=0.18
0
% es.tEZ (V/m) @ t=0.18
5.344635888510249
% es.Ex (V/m) @ t=0.18
-3.9915316686641287
% es.Ey (V/m) @ t=0.18
-0.43085162479084627
% es.Ez (V/m) @ t=0.18
5.344635888510255
% es.tEx (V/m) @ t=0.18
-3.991531668664135
% es.tEy (V/m) @ t=0.18
0
% es.tEz (V/m) @ t=0.18
5.344635888510249
% V (V) @ t=0.18
0.005899689844180138
% es.normE (V/m) @ t=0.2
7.250566187708875
% es.EX (V/m) @ t=0.2
-4.028706938319415
% es.EY (V/m) @ t=0.2
-0.43486444092240206
% es.EZ (V/m) @ t=0.2
5.394413531989438
% es.tEX (V/m) @ t=0.2
-4.028706938319422
% es.tEY (V/m) @ t=0.2
0
% es.tEZ (V/m) @ t=0.2
5.394413531989432
% es.Ex (V/m) @ t=0.2
-4.028706938319415
% es.Ey (V/m) @ t=0.2
-0.43486444092240206
% es.Ez (V/m) @ t=0.2
5.394413531989438
% es.tEx (V/m) @ t=0.2
-4.028706938319422
% es.tEy (V/m) @ t=0.2
0
% es.tEz (V/m) @ t=0.2
5.394413531989432
% V (V) @ t=0.2
0.005954637050615386
% es.normE (V/m) @ t=0.22
7.317471651681963
% es.EX (V/m) @ t=0.22
-4.065882207974705
% es.EY (V/m) @ t=0.22
-0.43887725705398273
% es.EZ (V/m) @ t=0.22
5.44419117546861
% es.tEX (V/m) @ t=0.22
-4.065882207974712
% es.tEY (V/m) @ t=0.22
0
% es.tEZ (V/m) @ t=0.22
5.444191175468607
% es.Ex (V/m) @ t=0.22
-4.065882207974705
% es.Ey (V/m) @ t=0.22
-0.43887725705398273
% es.Ez (V/m) @ t=0.22
5.44419117546861
% es.tEx (V/m) @ t=0.22
-4.065882207974712
% es.tEy (V/m) @ t=0.22
0
% es.tEz (V/m) @ t=0.22
5.444191175468607
% V (V) @ t=0.22
0.006009584257050634
% es.normE (V/m) @ t=0.24
7.384377115655072
% es.EX (V/m) @ t=0.24
-4.1030574776299815
% es.EY (V/m) @ t=0.24
-0.4428900731855565
% es.EZ (V/m) @ t=0.24
5.493968818947806
% es.tEX (V/m) @ t=0.24
-4.103057477629988
% es.tEY (V/m) @ t=0.24
0
% es.tEZ (V/m) @ t=0.24
5.4939688189478
% es.Ex (V/m) @ t=0.24
-4.1030574776299815
% es.Ey (V/m) @ t=0.24
-0.4428900731855565
% es.Ez (V/m) @ t=0.24
5.493968818947806
% es.tEx (V/m) @ t=0.24
-4.103057477629988
% es.tEy (V/m) @ t=0.24
0
% es.tEz (V/m) @ t=0.24
5.4939688189478
% V (V) @ t=0.24
0.006064531463485881
% es.normE (V/m) @ t=0.26
7.451282579628181
% es.EX (V/m) @ t=0.26
-4.140232747285276
% es.EY (V/m) @ t=0.26
-0.44690288931713895
% es.EZ (V/m) @ t=0.26
5.543746462426993
% es.tEX (V/m) @ t=0.26
-4.140232747285285
% es.tEY (V/m) @ t=0.26
0
% es.tEZ (V/m) @ t=0.26
5.543746462426986
% es.Ex (V/m) @ t=0.26
-4.140232747285276
% es.Ey (V/m) @ t=0.26
-0.44690288931713895
% es.Ez (V/m) @ t=0.26
5.543746462426993
% es.tEx (V/m) @ t=0.26
-4.140232747285285
% es.tEy (V/m) @ t=0.26
0
% es.tEz (V/m) @ t=0.26
5.543746462426986
% V (V) @ t=0.26
0.006119478669921128
% es.normE (V/m) @ t=0.28
7.521317601131504
% es.EX (V/m) @ t=0.28
-4.17914179212205
% es.EY (V/m) @ t=0.28
-0.4511060051957325
% es.EZ (V/m) @ t=0.28
5.595854935110787
% es.tEX (V/m) @ t=0.28
-4.1791417921220635
% es.tEY (V/m) @ t=0.28
0
% es.tEZ (V/m) @ t=0.28
5.595854935110781
% es.Ex (V/m) @ t=0.28
-4.17914179212205
% es.Ey (V/m) @ t=0.28
-0.4511060051957325
% es.Ez (V/m) @ t=0.28
5.595854935110787
% es.tEx (V/m) @ t=0.28
-4.1791417921220635
% es.tEy (V/m) @ t=0.28
0
% es.tEz (V/m) @ t=0.28
5.595854935110781
% V (V) @ t=0.28
0.006177000176631586
% es.normE (V/m) @ t=0.3
7.59586158011992
% es.EX (V/m) @ t=0.3
-4.220548799838298
% es.EY (V/m) @ t=0.3
-0.4555832983201187
% es.EZ (V/m) @ t=0.3
5.651321585310145
% es.tEX (V/m) @ t=0.3
-4.2205487998383004
% es.tEY (V/m) @ t=0.3
0
% es.tEZ (V/m) @ t=0.3
5.651321585310136
% es.Ex (V/m) @ t=0.3
-4.220548799838298
% es.Ey (V/m) @ t=0.3
-0.4555832983201187
% es.Ez (V/m) @ t=0.3
5.651321585310145
% es.tEx (V/m) @ t=0.3
-4.2205487998383004
% es.tEy (V/m) @ t=0.3
0
% es.tEz (V/m) @ t=0.3
5.651321585310136
% V (V) @ t=0.3
0.006238230645493985
% es.normE (V/m) @ t=0.32
7.670405559142177
% es.EX (V/m) @ t=0.32
-4.2619558075545525
% es.EY (V/m) @ t=0.32
-0.4600605914444795
% es.EZ (V/m) @ t=0.32
5.706788235509511
% es.tEX (V/m) @ t=0.32
-4.261955807554559
% es.tEY (V/m) @ t=0.32
0
% es.tEZ (V/m) @ t=0.32
5.706788235509508
% es.Ex (V/m) @ t=0.32
-4.2619558075545525
% es.Ey (V/m) @ t=0.32
-0.4600605914444795
% es.Ez (V/m) @ t=0.32
5.706788235509511
% es.tEx (V/m) @ t=0.32
-4.261955807554559
% es.tEy (V/m) @ t=0.32
0
% es.tEz (V/m) @ t=0.32
5.706788235509508
% V (V) @ t=0.32
0.006299461114356384
% es.normE (V/m) @ t=0.34
7.744949538197293
% es.EX (V/m) @ t=0.34
-4.3033628152708
% es.EY (V/m) @ t=0.34
-0.46453788456886747
% es.EZ (V/m) @ t=0.34
5.762254885708859
% es.tEX (V/m) @ t=0.34
-4.303362815270813
% es.tEY (V/m) @ t=0.34
0
% es.tEZ (V/m) @ t=0.34
5.762254885708854
% es.Ex (V/m) @ t=0.34
-4.3033628152708
% es.Ey (V/m) @ t=0.34
-0.46453788456886747
% es.Ez (V/m) @ t=0.34
5.762254885708859
% es.tEx (V/m) @ t=0.34
-4.303362815270813
% es.tEy (V/m) @ t=0.34
0
% es.tEz (V/m) @ t=0.34
5.762254885708854
% V (V) @ t=0.34
0.006360691583218782
% es.normE (V/m) @ t=0.36
7.819493517284348
% es.EX (V/m) @ t=0.36
-4.34476982298704
% es.EY (V/m) @ t=0.36
-0.46901517769325163
% es.EZ (V/m) @ t=0.36
5.817721535908237
% es.tEX (V/m) @ t=0.36
-4.344769822987057
% es.tEY (V/m) @ t=0.36
0
% es.tEZ (V/m) @ t=0.36
5.817721535908229
% es.Ex (V/m) @ t=0.36
-4.34476982298704
% es.Ey (V/m) @ t=0.36
-0.46901517769325163
% es.Ez (V/m) @ t=0.36
5.817721535908237
% es.tEx (V/m) @ t=0.36
-4.344769822987057
% es.tEy (V/m) @ t=0.36
0
% es.tEz (V/m) @ t=0.36
5.817721535908229
% V (V) @ t=0.36
0.0064219220520811806
% es.normE (V/m) @ t=0.38
7.89403749640241
% es.EX (V/m) @ t=0.38
-4.386176830703299
% es.EY (V/m) @ t=0.38
-0.4734924708176109
% es.EZ (V/m) @ t=0.38
5.873188186107587
% es.tEX (V/m) @ t=0.38
-4.386176830703305
% es.tEY (V/m) @ t=0.38
0
% es.tEZ (V/m) @ t=0.38
5.873188186107576
% es.Ex (V/m) @ t=0.38
-4.386176830703299
% es.Ey (V/m) @ t=0.38
-0.4734924708176109
% es.Ez (V/m) @ t=0.38
5.873188186107587
% es.tEx (V/m) @ t=0.38
-4.386176830703305
% es.tEy (V/m) @ t=0.38
0
% es.tEz (V/m) @ t=0.38
5.873188186107576
% V (V) @ t=0.38
0.006483152520943578
% es.normE (V/m) @ t=0.4
7.968581475550646
% es.EX (V/m) @ t=0.4
-4.427583838419557
% es.EY (V/m) @ t=0.4
-0.47796976394199153
% es.EZ (V/m) @ t=0.4
5.928654836306964
% es.tEX (V/m) @ t=0.4
-4.427583838419567
% es.tEY (V/m) @ t=0.4
0
% es.tEZ (V/m) @ t=0.4
5.928654836306951
% es.Ex (V/m) @ t=0.4
-4.427583838419557
% es.Ey (V/m) @ t=0.4
-0.47796976394199153
% es.Ez (V/m) @ t=0.4
5.928654836306964
% es.tEx (V/m) @ t=0.4
-4.427583838419567
% es.tEy (V/m) @ t=0.4
0
% es.tEz (V/m) @ t=0.4
5.928654836306951
% V (V) @ t=0.4
0.006544382989805978
% es.normE (V/m) @ t=0.42
8.043125454728159
% es.EX (V/m) @ t=0.42
-4.468990846135794
% es.EY (V/m) @ t=0.42
-0.4824470570663617
% es.EZ (V/m) @ t=0.42
5.984121486506314
% es.tEX (V/m) @ t=0.42
-4.4689908461358
% es.tEY (V/m) @ t=0.42
0
% es.tEZ (V/m) @ t=0.42
5.984121486506304
% es.Ex (V/m) @ t=0.42
-4.468990846135794
% es.Ey (V/m) @ t=0.42
-0.4824470570663617
% es.Ez (V/m) @ t=0.42
5.984121486506314
% es.tEx (V/m) @ t=0.42
-4.4689908461358
% es.tEy (V/m) @ t=0.42
0
% es.tEz (V/m) @ t=0.42
5.984121486506304
% V (V) @ t=0.42
0.006605613458668376
% es.normE (V/m) @ t=0.44
8.117669433934205
% es.EX (V/m) @ t=0.44
-4.510397853852052
% es.EY (V/m) @ t=0.44
-0.4869243501907494
% es.EZ (V/m) @ t=0.44
6.039588136705679
% es.tEX (V/m) @ t=0.44
-4.510397853852059
% es.tEY (V/m) @ t=0.44
0
% es.tEZ (V/m) @ t=0.44
6.039588136705671
% es.Ex (V/m) @ t=0.44
-4.510397853852052
% es.Ey (V/m) @ t=0.44
-0.4869243501907494
% es.Ez (V/m) @ t=0.44
6.039588136705679
% es.tEx (V/m) @ t=0.44
-4.510397853852059
% es.tEy (V/m) @ t=0.44
0
% es.tEz (V/m) @ t=0.44
6.039588136705671
% V (V) @ t=0.44
0.006666843927530775
% es.normE (V/m) @ t=0.46
8.192213413167979
% es.EX (V/m) @ t=0.46
-4.551804861568304
% es.EY (V/m) @ t=0.46
-0.4914016433151229
% es.EZ (V/m) @ t=0.46
6.095054786905048
% es.tEX (V/m) @ t=0.46
-4.551804861568311
% es.tEY (V/m) @ t=0.46
0
% es.tEZ (V/m) @ t=0.46
6.095054786905039
% es.Ex (V/m) @ t=0.46
-4.551804861568304
% es.Ey (V/m) @ t=0.46
-0.4914016433151229
% es.Ez (V/m) @ t=0.46
6.095054786905048
% es.tEx (V/m) @ t=0.46
-4.551804861568311
% es.tEy (V/m) @ t=0.46
0
% es.tEz (V/m) @ t=0.46
6.095054786905039
% V (V) @ t=0.46
0.006728074396393173
% es.normE (V/m) @ t=0.48
8.266757392428705
% es.EX (V/m) @ t=0.48
-4.593211869284555
% es.EY (V/m) @ t=0.48
-0.49587893643948044
% es.EZ (V/m) @ t=0.48
6.15052143710441
% es.tEX (V/m) @ t=0.48
-4.593211869284561
% es.tEY (V/m) @ t=0.48
0
% es.tEZ (V/m) @ t=0.48
6.150521437104399
% es.Ex (V/m) @ t=0.48
-4.593211869284555
% es.Ey (V/m) @ t=0.48
-0.49587893643948044
% es.Ez (V/m) @ t=0.48
6.15052143710441
% es.tEx (V/m) @ t=0.48
-4.593211869284561
% es.tEy (V/m) @ t=0.48
0
% es.tEz (V/m) @ t=0.48
6.150521437104399
% V (V) @ t=0.48
0.006789304865255571
% es.normE (V/m) @ t=0.5
8.34130137171569
% es.EX (V/m) @ t=0.5
-4.634618877000806
% es.EY (V/m) @ t=0.5
-0.5003562295638684
% es.EZ (V/m) @ t=0.5
6.205988087303761
% es.tEX (V/m) @ t=0.5
-4.634618877000819
% es.tEY (V/m) @ t=0.5
0
% es.tEZ (V/m) @ t=0.5
6.205988087303752
% es.Ex (V/m) @ t=0.5
-4.634618877000806
% es.Ey (V/m) @ t=0.5
-0.5003562295638684
% es.Ez (V/m) @ t=0.5
6.205988087303761
% es.tEx (V/m) @ t=0.5
-4.634618877000819
% es.tEy (V/m) @ t=0.5
0
% es.tEz (V/m) @ t=0.5
6.205988087303752
% V (V) @ t=0.5
0.00685053533411797
% es.normE (V/m) @ t=0.52
8.41584535102825
% es.EX (V/m) @ t=0.52
-4.676025884717049
% es.EY (V/m) @ t=0.52
-0.5048335226882541
% es.EZ (V/m) @ t=0.52
6.261454737503136
% es.tEX (V/m) @ t=0.52
-4.676025884717062
% es.tEY (V/m) @ t=0.52
0
% es.tEZ (V/m) @ t=0.52
6.261454737503126
% es.Ex (V/m) @ t=0.52
-4.676025884717049
% es.Ey (V/m) @ t=0.52
-0.5048335226882541
% es.Ez (V/m) @ t=0.52
6.261454737503136
% es.tEx (V/m) @ t=0.52
-4.676025884717062
% es.tEy (V/m) @ t=0.52
0
% es.tEz (V/m) @ t=0.52
6.261454737503126
% V (V) @ t=0.52
0.006911765802980367
% es.normE (V/m) @ t=0.54
8.49038933036567
% es.EX (V/m) @ t=0.54
-4.717432892433301
% es.EY (V/m) @ t=0.54
-0.5093108158126225
% es.EZ (V/m) @ t=0.54
6.316921387702492
% es.tEX (V/m) @ t=0.54
-4.717432892433304
% es.tEY (V/m) @ t=0.54
0
% es.tEZ (V/m) @ t=0.54
6.316921387702487
% es.Ex (V/m) @ t=0.54
-4.717432892433301
% es.Ey (V/m) @ t=0.54
-0.5093108158126225
% es.Ez (V/m) @ t=0.54
6.316921387702492
% es.tEx (V/m) @ t=0.54
-4.717432892433304
% es.tEy (V/m) @ t=0.54
0
% es.tEz (V/m) @ t=0.54
6.316921387702487
% V (V) @ t=0.54
0.006972996271842766
% es.normE (V/m) @ t=0.56
8.572047098754854
% es.EX (V/m) @ t=0.56
-4.762811208022161
% es.EY (V/m) @ t=0.56
-0.5142053501278849
% es.EZ (V/m) @ t=0.56
6.377671843106768
% es.tEX (V/m) @ t=0.56
-4.762811208022168
% es.tEY (V/m) @ t=0.56
0
% es.tEZ (V/m) @ t=0.56
6.377671843106757
% es.Ex (V/m) @ t=0.56
-4.762811208022161
% es.Ey (V/m) @ t=0.56
-0.5142053501278849
% es.Ez (V/m) @ t=0.56
6.377671843106768
% es.tEx (V/m) @ t=0.56
-4.762811208022168
% es.tEy (V/m) @ t=0.56
0
% es.tEz (V/m) @ t=0.56
6.377671843106757
% V (V) @ t=0.56
0.007040054180372503
% es.normE (V/m) @ t=0.58
8.655168504517103
% es.EX (V/m) @ t=0.58
-4.8090066063922094
% es.EY (V/m) @ t=0.58
-0.5191857303668748
% es.EZ (V/m) @ t=0.58
6.439509423053012
% es.tEX (V/m) @ t=0.58
-4.809006606392212
% es.tEY (V/m) @ t=0.58
0
% es.tEZ (V/m) @ t=0.58
6.439509423053002
% es.Ex (V/m) @ t=0.58
-4.8090066063922094
% es.Ey (V/m) @ t=0.58
-0.5191857303668748
% es.Ez (V/m) @ t=0.58
6.439509423053012
% es.tEx (V/m) @ t=0.58
-4.809006606392212
% es.tEy (V/m) @ t=0.58
0
% es.tEz (V/m) @ t=0.58
6.439509423053002
% V (V) @ t=0.58
0.007108311064343916
% es.normE (V/m) @ t=0.6
8.738289910303696
% es.EX (V/m) @ t=0.6
-4.85520200476226
% es.EY (V/m) @ t=0.6
-0.5241661106058584
% es.EZ (V/m) @ t=0.6
6.501347002999267
% es.tEX (V/m) @ t=0.6
-4.85520200476227
% es.tEY (V/m) @ t=0.6
0
% es.tEZ (V/m) @ t=0.6
6.501347002999258
% es.Ex (V/m) @ t=0.6
-4.85520200476226
% es.Ey (V/m) @ t=0.6
-0.5241661106058584
% es.Ez (V/m) @ t=0.6
6.501347002999267
% es.tEx (V/m) @ t=0.6
-4.85520200476227
% es.tEy (V/m) @ t=0.6
0
% es.tEz (V/m) @ t=0.6
6.501347002999258
% V (V) @ t=0.6
0.007176567948315328
% es.normE (V/m) @ t=0.62
8.821411316113933
% es.EX (V/m) @ t=0.62
-4.901397403132316
% es.EY (V/m) @ t=0.62
-0.5291464908448391
% es.EZ (V/m) @ t=0.62
6.563184582945517
% es.tEX (V/m) @ t=0.62
-4.901397403132322
% es.tEY (V/m) @ t=0.62
0
% es.tEZ (V/m) @ t=0.62
6.563184582945505
% es.Ex (V/m) @ t=0.62
-4.901397403132316
% es.Ey (V/m) @ t=0.62
-0.5291464908448391
% es.Ez (V/m) @ t=0.62
6.563184582945517
% es.tEx (V/m) @ t=0.62
-4.901397403132322
% es.tEy (V/m) @ t=0.62
0
% es.tEz (V/m) @ t=0.62
6.563184582945505
% V (V) @ t=0.62
0.007244824832286742
% es.normE (V/m) @ t=0.64
8.904532721947145
% es.EX (V/m) @ t=0.64
-4.947592801502343
% es.EY (V/m) @ t=0.64
-0.5341268710838445
% es.EZ (V/m) @ t=0.64
6.625022162891782
% es.tEX (V/m) @ t=0.64
-4.947592801502349
% es.tEY (V/m) @ t=0.64
0
% es.tEZ (V/m) @ t=0.64
6.625022162891779
% es.Ex (V/m) @ t=0.64
-4.947592801502343
% es.Ey (V/m) @ t=0.64
-0.5341268710838445
% es.Ez (V/m) @ t=0.64
6.625022162891782
% es.tEx (V/m) @ t=0.64
-4.947592801502349
% es.tEy (V/m) @ t=0.64
0
% es.tEz (V/m) @ t=0.64
6.625022162891779
% V (V) @ t=0.64
0.007313081716258154
% es.normE (V/m) @ t=0.66
8.987654127802703
% es.EX (V/m) @ t=0.66
-4.993788199872392
% es.EY (V/m) @ t=0.66
-0.5391072513228177
% es.EZ (V/m) @ t=0.66
6.6868597428380205
% es.tEX (V/m) @ t=0.66
-4.993788199872398
% es.tEY (V/m) @ t=0.66
0
% es.tEZ (V/m) @ t=0.66
6.686859742838016
% es.Ex (V/m) @ t=0.66
-4.993788199872392
% es.Ey (V/m) @ t=0.66
-0.5391072513228177
% es.Ez (V/m) @ t=0.66
6.6868597428380205
% es.tEx (V/m) @ t=0.66
-4.993788199872398
% es.tEy (V/m) @ t=0.66
0
% es.tEz (V/m) @ t=0.66
6.686859742838016
% V (V) @ t=0.66
0.007381338600229565
% es.normE (V/m) @ t=0.68
9.070775533680013
% es.EX (V/m) @ t=0.68
-5.0399835982424435
% es.EY (V/m) @ t=0.68
-0.5440876315618106
% es.EZ (V/m) @ t=0.68
6.748697322784289
% es.tEX (V/m) @ t=0.68
-5.039983598242453
% es.tEY (V/m) @ t=0.68
0
% es.tEZ (V/m) @ t=0.68
6.748697322784282
% es.Ex (V/m) @ t=0.68
-5.0399835982424435
% es.Ey (V/m) @ t=0.68
-0.5440876315618106
% es.Ez (V/m) @ t=0.68
6.748697322784289
% es.tEx (V/m) @ t=0.68
-5.039983598242453
% es.tEy (V/m) @ t=0.68
0
% es.tEz (V/m) @ t=0.68
6.748697322784282
% V (V) @ t=0.68
0.007449595484200978
% es.normE (V/m) @ t=0.7
9.153896939578425
% es.EX (V/m) @ t=0.7
-5.0861789966124835
% es.EY (V/m) @ t=0.7
-0.5490680118007893
% es.EZ (V/m) @ t=0.7
6.810534902730521
% es.tEX (V/m) @ t=0.7
-5.086178996612493
% es.tEY (V/m) @ t=0.7
0
% es.tEZ (V/m) @ t=0.7
6.810534902730515
% es.Ex (V/m) @ t=0.7
-5.0861789966124835
% es.Ey (V/m) @ t=0.7
-0.5490680118007893
% es.Ez (V/m) @ t=0.7
6.810534902730521
% es.tEx (V/m) @ t=0.7
-5.086178996612493
% es.tEy (V/m) @ t=0.7
0
% es.tEz (V/m) @ t=0.7
6.810534902730515
% V (V) @ t=0.7
0.00751785236817239
% es.normE (V/m) @ t=0.72
9.237018345497432
% es.EX (V/m) @ t=0.72
-5.132374394982525
% es.EY (V/m) @ t=0.72
-0.554048392039777
% es.EZ (V/m) @ t=0.72
6.872372482676796
% es.tEX (V/m) @ t=0.72
-5.132374394982535
% es.tEY (V/m) @ t=0.72
0
% es.tEZ (V/m) @ t=0.72
6.872372482676789
% es.Ex (V/m) @ t=0.72
-5.132374394982525
% es.Ey (V/m) @ t=0.72
-0.554048392039777
% es.Ez (V/m) @ t=0.72
6.872372482676796
% es.tEx (V/m) @ t=0.72
-5.132374394982535
% es.tEy (V/m) @ t=0.72
0
% es.tEz (V/m) @ t=0.72
6.872372482676789
% V (V) @ t=0.72
0.007586109252143803
% es.normE (V/m) @ t=0.74
9.320139751436447
% es.EX (V/m) @ t=0.74
-5.1785697933525805
% es.EY (V/m) @ t=0.74
-0.559028772278761
% es.EZ (V/m) @ t=0.74
6.934210062623037
% es.tEX (V/m) @ t=0.74
-5.178569793352587
% es.tEY (V/m) @ t=0.74
0
% es.tEZ (V/m) @ t=0.74
6.934210062623025
% es.Ex (V/m) @ t=0.74
-5.1785697933525805
% es.Ey (V/m) @ t=0.74
-0.559028772278761
% es.Ez (V/m) @ t=0.74
6.934210062623037
% es.tEx (V/m) @ t=0.74
-5.178569793352587
% es.tEy (V/m) @ t=0.74
0
% es.tEz (V/m) @ t=0.74
6.934210062623025
% V (V) @ t=0.74
0.007654366136115214
% es.normE (V/m) @ t=0.76
9.403261157394951
% es.EX (V/m) @ t=0.76
-5.224765191722621
% es.EY (V/m) @ t=0.76
-0.5640091525177484
% es.EZ (V/m) @ t=0.76
6.996047642569294
% es.tEX (V/m) @ t=0.76
-5.224765191722627
% es.tEY (V/m) @ t=0.76
0
% es.tEZ (V/m) @ t=0.76
6.996047642569286
% es.Ex (V/m) @ t=0.76
-5.224765191722621
% es.Ey (V/m) @ t=0.76
-0.5640091525177484
% es.Ez (V/m) @ t=0.76
6.996047642569294
% es.tEx (V/m) @ t=0.76
-5.224765191722627
% es.tEy (V/m) @ t=0.76
0
% es.tEz (V/m) @ t=0.76
6.996047642569286
% V (V) @ t=0.76
0.0077226230200866264
% es.normE (V/m) @ t=0.78
9.48638256337243
% es.EX (V/m) @ t=0.78
-5.270960590092674
% es.EY (V/m) @ t=0.78
-0.5689895327567411
% es.EZ (V/m) @ t=0.78
7.057885222515541
% es.tEX (V/m) @ t=0.78
-5.270960590092683
% es.tEY (V/m) @ t=0.78
0
% es.tEZ (V/m) @ t=0.78
7.057885222515534
% es.Ex (V/m) @ t=0.78
-5.270960590092674
% es.Ey (V/m) @ t=0.78
-0.5689895327567411
% es.Ez (V/m) @ t=0.78
7.057885222515541
% es.tEx (V/m) @ t=0.78
-5.270960590092683
% es.tEy (V/m) @ t=0.78
0
% es.tEz (V/m) @ t=0.78
7.057885222515534
% V (V) @ t=0.78
0.007790879904058039
% es.normE (V/m) @ t=0.8
9.569503969368393
% es.EX (V/m) @ t=0.8
-5.31715598846271
% es.EY (V/m) @ t=0.8
-0.5739699129957345
% es.EZ (V/m) @ t=0.8
7.1197228024618004
% es.tEX (V/m) @ t=0.8
-5.317155988462724
% es.tEY (V/m) @ t=0.8
0
% es.tEZ (V/m) @ t=0.8
7.119722802461787
% es.Ex (V/m) @ t=0.8
-5.31715598846271
% es.Ey (V/m) @ t=0.8
-0.5739699129957345
% es.Ez (V/m) @ t=0.8
7.1197228024618004
% es.tEx (V/m) @ t=0.8
-5.317155988462724
% es.tEy (V/m) @ t=0.8
0
% es.tEz (V/m) @ t=0.8
7.119722802461787
% V (V) @ t=0.8
0.00785913678802945
% es.normE (V/m) @ t=0.82
9.655082275576092
% es.EX (V/m) @ t=0.82
-5.3647079131480035
% es.EY (V/m) @ t=0.82
-0.5791020187718787
% es.EZ (V/m) @ t=0.82
7.183392416573827
% es.tEX (V/m) @ t=0.82
-5.36470791314801
% es.tEY (V/m) @ t=0.82
0
% es.tEZ (V/m) @ t=0.82
7.183392416573821
% es.Ex (V/m) @ t=0.82
-5.3647079131480035
% es.Ey (V/m) @ t=0.82
-0.5791020187718787
% es.Ez (V/m) @ t=0.82
7.183392416573827
% es.tEx (V/m) @ t=0.82
-5.36470791314801
% es.tEy (V/m) @ t=0.82
0
% es.tEz (V/m) @ t=0.82
7.183392416573821
% V (V) @ t=0.82
0.007929418333842727
% es.normE (V/m) @ t=0.84
9.748070123066968
% es.EX (V/m) @ t=0.84
-5.416350861825647
% es.EY (V/m) @ t=0.84
-0.5846916997574316
% es.EZ (V/m) @ t=0.84
7.252587095436036
% es.tEX (V/m) @ t=0.84
-5.416350861825657
% es.tEY (V/m) @ t=0.84
0
% es.tEZ (V/m) @ t=0.84
7.252587095436031
% es.Ex (V/m) @ t=0.84
-5.416350861825647
% es.Ey (V/m) @ t=0.84
-0.5846916997574316
% es.Ez (V/m) @ t=0.84
7.252587095436036
% es.tEx (V/m) @ t=0.84
-5.416350861825657
% es.tEy (V/m) @ t=0.84
0
% es.tEz (V/m) @ t=0.84
7.252587095436031
% V (V) @ t=0.84
0.008005805872645913
% es.normE (V/m) @ t=0.86
9.841057970657257
% es.EX (V/m) @ t=0.86
-5.4679938105033035
% es.EY (V/m) @ t=0.86
-0.5902813807430236
% es.EZ (V/m) @ t=0.86
7.321781774298224
% es.tEX (V/m) @ t=0.86
-5.46799381050331
% es.tEY (V/m) @ t=0.86
0
% es.tEZ (V/m) @ t=0.86
7.321781774298209
% es.Ex (V/m) @ t=0.86
-5.4679938105033035
% es.Ey (V/m) @ t=0.86
-0.5902813807430236
% es.Ez (V/m) @ t=0.86
7.321781774298224
% es.tEx (V/m) @ t=0.86
-5.46799381050331
% es.tEy (V/m) @ t=0.86
0
% es.tEz (V/m) @ t=0.86
7.321781774298209
% V (V) @ t=0.86
0.008082193411449098
% es.normE (V/m) @ t=0.88
9.934045818344167
% es.EX (V/m) @ t=0.88
-5.519636759180952
% es.EY (V/m) @ t=0.88
-0.5958710617285741
% es.EZ (V/m) @ t=0.88
7.39097645316043
% es.tEX (V/m) @ t=0.88
-5.519636759180962
% es.tEY (V/m) @ t=0.88
0
% es.tEZ (V/m) @ t=0.88
7.390976453160416
% es.Ex (V/m) @ t=0.88
-5.519636759180952
% es.Ey (V/m) @ t=0.88
-0.5958710617285741
% es.Ez (V/m) @ t=0.88
7.39097645316043
% es.tEx (V/m) @ t=0.88
-5.519636759180962
% es.tEy (V/m) @ t=0.88
0
% es.tEz (V/m) @ t=0.88
7.390976453160416
% V (V) @ t=0.88
0.008158580950252282
% es.normE (V/m) @ t=0.9
10.027033666125035
% es.EX (V/m) @ t=0.9
-5.571279707858606
% es.EY (V/m) @ t=0.9
-0.601460742714145
% es.EZ (V/m) @ t=0.9
7.460171132022652
% es.tEX (V/m) @ t=0.9
-5.571279707858619
% es.tEY (V/m) @ t=0.9
0
% es.tEZ (V/m) @ t=0.9
7.460171132022646
% es.Ex (V/m) @ t=0.9
-5.571279707858606
% es.Ey (V/m) @ t=0.9
-0.601460742714145
% es.Ez (V/m) @ t=0.9
7.460171132022652
% es.tEx (V/m) @ t=0.9
-5.571279707858619
% es.tEy (V/m) @ t=0.9
0
% es.tEz (V/m) @ t=0.9
7.460171132022646
% V (V) @ t=0.9
0.008234968489055468
% es.normE (V/m) @ t=0.92
10.120021513997202
% es.EX (V/m) @ t=0.92
-5.622922656536259
% es.EY (V/m) @ t=0.92
-0.6070504236997012
% es.EZ (V/m) @ t=0.92
7.529365810884826
% es.tEX (V/m) @ t=0.92
-5.622922656536269
% es.tEY (V/m) @ t=0.92
0
% es.tEZ (V/m) @ t=0.92
7.529365810884817
% es.Ex (V/m) @ t=0.92
-5.622922656536259
% es.Ey (V/m) @ t=0.92
-0.6070504236997012
% es.Ez (V/m) @ t=0.92
7.529365810884826
% es.tEx (V/m) @ t=0.92
-5.622922656536269
% es.tEy (V/m) @ t=0.92
0
% es.tEz (V/m) @ t=0.92
7.529365810884817
% V (V) @ t=0.92
0.008311356027858652
% es.normE (V/m) @ t=0.94
10.21300936195825
% es.EX (V/m) @ t=0.94
-5.674565605213902
% es.EY (V/m) @ t=0.94
-0.6126401046852714
% es.EZ (V/m) @ t=0.94
7.598560489747041
% es.tEX (V/m) @ t=0.94
-5.674565605213905
% es.tEY (V/m) @ t=0.94
0
% es.tEZ (V/m) @ t=0.94
7.598560489747034
% es.Ex (V/m) @ t=0.94
-5.674565605213902
% es.Ey (V/m) @ t=0.94
-0.6126401046852714
% es.Ez (V/m) @ t=0.94
7.598560489747041
% es.tEx (V/m) @ t=0.94
-5.674565605213905
% es.tEy (V/m) @ t=0.94
0
% es.tEz (V/m) @ t=0.94
7.598560489747034
% V (V) @ t=0.94
0.008387743566661837
% es.normE (V/m) @ t=0.96
10.305997210005735
% es.EX (V/m) @ t=0.96
-5.7262085538915475
% es.EY (V/m) @ t=0.96
-0.6182297856708523
% es.EZ (V/m) @ t=0.96
7.667755168609241
% es.tEX (V/m) @ t=0.96
-5.726208553891557
% es.tEY (V/m) @ t=0.96
0
% es.tEZ (V/m) @ t=0.96
7.667755168609235
% es.Ex (V/m) @ t=0.96
-5.7262085538915475
% es.Ey (V/m) @ t=0.96
-0.6182297856708523
% es.Ez (V/m) @ t=0.96
7.667755168609241
% es.tEx (V/m) @ t=0.96
-5.726208553891557
% es.tEy (V/m) @ t=0.96
0
% es.tEz (V/m) @ t=0.96
7.667755168609235
% V (V) @ t=0.96
0.008464131105465022
% es.normE (V/m) @ t=0.98
10.398985058137338
% es.EX (V/m) @ t=0.98
-5.777851502569197
% es.EY (V/m) @ t=0.98
-0.6238194666564087
% es.EZ (V/m) @ t=0.98
7.736949847471461
% es.tEX (V/m) @ t=0.98
-5.77785150256921
% es.tEY (V/m) @ t=0.98
0
% es.tEZ (V/m) @ t=0.98
7.7369498474714415
% es.Ex (V/m) @ t=0.98
-5.777851502569197
% es.Ey (V/m) @ t=0.98
-0.6238194666564087
% es.Ez (V/m) @ t=0.98
7.736949847471461
% es.tEx (V/m) @ t=0.98
-5.77785150256921
% es.tEy (V/m) @ t=0.98
0
% es.tEz (V/m) @ t=0.98
7.7369498474714415
% V (V) @ t=0.98
0.008540518644268207
% es.normE (V/m) @ t=1
10.491972906350847
% es.EX (V/m) @ t=1
-5.8294944512468545
% es.EY (V/m) @ t=1
-0.6294091476419865
% es.EZ (V/m) @ t=1
7.806144526333654
% es.tEX (V/m) @ t=1
-5.829494451246864
% es.tEY (V/m) @ t=1
0
% es.tEZ (V/m) @ t=1
7.806144526333642
% es.Ex (V/m) @ t=1
-5.8294944512468545
% es.Ey (V/m) @ t=1
-0.6294091476419865
% es.Ez (V/m) @ t=1
7.806144526333654
% es.tEx (V/m) @ t=1
-5.829494451246864
% es.tEy (V/m) @ t=1
0
% es.tEz (V/m) @ t=1
7.806144526333642
% V (V) @ t=1
0.008616906183071392
% es.normE (V/m) @ t=1.02
10.584960754644076
% es.EX (V/m) @ t=1.02
-5.881137399924503
% es.EY (V/m) @ t=1.02
-0.634998828627555
% es.EZ (V/m) @ t=1.02
7.875339205195853
% es.tEX (V/m) @ t=1.02
-5.8811373999245165
% es.tEY (V/m) @ t=1.02
0
% es.tEZ (V/m) @ t=1.02
7.875339205195842
% es.Ex (V/m) @ t=1.02
-5.881137399924503
% es.Ey (V/m) @ t=1.02
-0.634998828627555
% es.Ez (V/m) @ t=1.02
7.875339205195853
% es.tEx (V/m) @ t=1.02
-5.8811373999245165
% es.tEy (V/m) @ t=1.02
0
% es.tEz (V/m) @ t=1.02
7.875339205195842
% V (V) @ t=1.02
0.008693293721874577
% es.normE (V/m) @ t=1.04
10.677948603014936
% es.EX (V/m) @ t=1.04
-5.932780348602143
% es.EY (V/m) @ t=1.04
-0.6405885096131221
% es.EZ (V/m) @ t=1.04
7.944533884058051
% es.tEX (V/m) @ t=1.04
-5.932780348602156
% es.tEY (V/m) @ t=1.04
0
% es.tEZ (V/m) @ t=1.04
7.94453388405804
% es.Ex (V/m) @ t=1.04
-5.932780348602143
% es.Ey (V/m) @ t=1.04
-0.6405885096131221
% es.Ez (V/m) @ t=1.04
7.944533884058051
% es.tEx (V/m) @ t=1.04
-5.932780348602156
% es.tEy (V/m) @ t=1.04
0
% es.tEz (V/m) @ t=1.04
7.94453388405804
% V (V) @ t=1.04