% Model:              1 neuron.mph
% Version:            COMSOL 6.1.0.252
% Date:               Mar 18 2023, 12:06
% Dimension:          0
% Nodes:              14017
% Expressions:        14017
% Description:        Electric field norm, Electric field, X component, Electric field, Y component, Electric field, Z component, Tangential electric field, X component, Tangential electric field, Y component, Tangential electric field, Z component, Electric field, x component, Electric field, y component, Electric field, z component, Tangential electric field, x component, Tangential electric field, y component, Tangential electric field, z component, Electric potential
% Length unit:        mm
% x
1.66
% y
12.2
% z
1.33
% es.normE (V/m) @ t=0
7.713595046387349
% es.EX (V/m) @ t=0
-4.285986760559187
% es.EY (V/m) @ t=0
-0.4626350629703653
% es.EZ (V/m) @ t=0
5.738904703310309
% es.tEX (V/m) @ t=0
-4.285986760559207
% es.tEY (V/m) @ t=0
0
% es.tEZ (V/m) @ t=0
5.738904703310301
% es.Ex (V/m) @ t=0
-4.285986760559187
% es.Ey (V/m) @ t=0
-0.4626350629703653
% es.Ez (V/m) @ t=0
5.738904703310309
% es.tEx (V/m) @ t=0
-4.285986760559207
% es.tEy (V/m) @ t=0
0
% es.tEz (V/m) @ t=0
5.738904703310301
% V (V) @ t=0
0.006334906573914108
% es.normE (V/m) @ t=0.02
6.662322017026559
% es.EX (V/m) @ t=0.02
-3.701856773420592
% es.EY (V/m) @ t=0.02
-0.39958329267334136
% es.EZ (V/m) @ t=0.02
4.956758928039823
% es.tEX (V/m) @ t=0.02
-3.7018567734205945
% es.tEY (V/m) @ t=0.02
0
% es.tEZ (V/m) @ t=0.02
4.956758928039818
% es.Ex (V/m) @ t=0.02
-3.701856773420592
% es.Ey (V/m) @ t=0.02
-0.39958329267334136
% es.Ez (V/m) @ t=0.02
4.956758928039823
% es.tEx (V/m) @ t=0.02
-3.7018567734205945
% es.tEy (V/m) @ t=0.02
0
% es.tEz (V/m) @ t=0.02
4.956758928039818
% V (V) @ t=0.02
0.005471532689039039
% es.normE (V/m) @ t=0.04
6.7236076645183545
% es.EX (V/m) @ t=0.04
-3.735909585690563
% es.EY (V/m) @ t=0.04
-0.40325898693390494
% es.EZ (V/m) @ t=0.04
5.002355363550188
% es.tEX (V/m) @ t=0.04
-3.7359095856905693
% es.tEY (V/m) @ t=0.04
0
% es.tEZ (V/m) @ t=0.04
5.002355363550184
% es.Ex (V/m) @ t=0.04
-3.735909585690563
% es.Ey (V/m) @ t=0.04
-0.40325898693390494
% es.Ez (V/m) @ t=0.04
5.002355363550188
% es.tEx (V/m) @ t=0.04
-3.7359095856905693
% es.tEy (V/m) @ t=0.04
0
% es.tEz (V/m) @ t=0.04
5.002355363550184
% V (V) @ t=0.04
0.005521864439809495
% es.normE (V/m) @ t=0.06
6.785477568990739
% es.EX (V/m) @ t=0.06
-3.7702870298050337
% es.EY (V/m) @ t=0.06
-0.4069697257104803
% es.EZ (V/m) @ t=0.06
5.048386487497048
% es.tEX (V/m) @ t=0.06
-3.7702870298050444
% es.tEY (V/m) @ t=0.06
0
% es.tEZ (V/m) @ t=0.06
5.048386487497039
% es.Ex (V/m) @ t=0.06
-3.7702870298050337
% es.Ey (V/m) @ t=0.06
-0.4069697257104803
% es.Ez (V/m) @ t=0.06
5.048386487497048
% es.tEx (V/m) @ t=0.06
-3.7702870298050444
% es.tEy (V/m) @ t=0.06
0
% es.tEz (V/m) @ t=0.06
5.048386487497039
% V (V) @ t=0.06
0.00557267602436281
% es.normE (V/m) @ t=0.08
6.84821642700785
% es.EX (V/m) @ t=0.08
-3.805147288113745
% es.EY (V/m) @ t=0.08
-0.41073258785453426
% es.EZ (V/m) @ t=0.08
5.095064116394946
% es.tEX (V/m) @ t=0.08
-3.8051472881137514
% es.tEY (V/m) @ t=0.08
0
% es.tEZ (V/m) @ t=0.08
5.095064116394935
% es.Ex (V/m) @ t=0.08
-3.805147288113745
% es.Ey (V/m) @ t=0.08
-0.41073258785453426
% es.Ez (V/m) @ t=0.08
5.095064116394946
% es.tEx (V/m) @ t=0.08
-3.8051472881137514
% es.tEy (V/m) @ t=0.08
0
% es.tEz (V/m) @ t=0.08
5.095064116394935
% V (V) @ t=0.08
0.005624201260137152
% es.normE (V/m) @ t=0.1
6.911714437582662
% es.EX (V/m) @ t=0.1
-3.8404293522056046
% es.EY (V/m) @ t=0.1
-0.4145409870563408
% es.EZ (V/m) @ t=0.1
5.142306557865535
% es.tEX (V/m) @ t=0.1
-3.840429352205618
% es.tEY (V/m) @ t=0.1
0
% es.tEZ (V/m) @ t=0.1
5.142306557865529
% es.Ex (V/m) @ t=0.1
-3.8404293522056046
% es.Ey (V/m) @ t=0.1
-0.4145409870563408
% es.Ez (V/m) @ t=0.1
5.142306557865535
% es.tEx (V/m) @ t=0.1
-3.840429352205618
% es.tEy (V/m) @ t=0.1
0
% es.tEz (V/m) @ t=0.1
5.142306557865529
% V (V) @ t=0.1
0.005676349970150156
% es.normE (V/m) @ t=0.12
6.975212448157475
% es.EX (V/m) @ t=0.12
-3.8757114162974746
% es.EY (V/m) @ t=0.12
-0.4183493862581371
% es.EZ (V/m) @ t=0.12
5.1895489993361235
% es.tEX (V/m) @ t=0.12
-3.875711416297481
% es.tEY (V/m) @ t=0.12
0
% es.tEZ (V/m) @ t=0.12
5.189548999336114
% es.Ex (V/m) @ t=0.12
-3.8757114162974746
% es.Ey (V/m) @ t=0.12
-0.4183493862581371
% es.Ez (V/m) @ t=0.12
5.1895489993361235
% es.tEx (V/m) @ t=0.12
-3.875711416297481
% es.tEy (V/m) @ t=0.12
0
% es.tEz (V/m) @ t=0.12
5.189548999336114
% V (V) @ t=0.12
0.00572849868016316
% es.normE (V/m) @ t=0.14
7.038977916739797
% es.EX (V/m) @ t=0.14
-3.911142090664221
% es.EY (V/m) @ t=0.14
-0.42217382680370896
% es.EZ (V/m) @ t=0.14
5.236990429322736
% es.tEX (V/m) @ t=0.14
-3.9111420906642245
% es.tEY (V/m) @ t=0.14
0
% es.tEZ (V/m) @ t=0.14
5.236990429322731
% es.Ex (V/m) @ t=0.14
-3.911142090664221
% es.Ey (V/m) @ t=0.14
-0.42217382680370896
% es.Ez (V/m) @ t=0.14
5.236990429322736
% es.tEx (V/m) @ t=0.14
-3.9111420906642245
% es.tEy (V/m) @ t=0.14
0
% es.tEz (V/m) @ t=0.14
5.236990429322731
% V (V) @ t=0.14
0.005780867044334258
% es.normE (V/m) @ t=0.16
7.105924045019741
% es.EX (V/m) @ t=0.16
-3.9483400656865637
% es.EY (V/m) @ t=0.16
-0.4261890339528571
% es.EZ (V/m) @ t=0.16
5.286798267251492
% es.tEX (V/m) @ t=0.16
-3.94834006568657
% es.tEY (V/m) @ t=0.16
0
% es.tEZ (V/m) @ t=0.16
5.286798267251484
% es.Ex (V/m) @ t=0.16
-3.9483400656865637
% es.Ey (V/m) @ t=0.16
-0.4261890339528571
% es.Ez (V/m) @ t=0.16
5.286798267251492
% es.tEx (V/m) @ t=0.16
-3.94834006568657
% es.tEy (V/m) @ t=0.16
0
% es.tEz (V/m) @ t=0.16
5.286798267251484
% V (V) @ t=0.16
0.00583584757605476
% es.normE (V/m) @ t=0.18
7.172870173299679
% es.EX (V/m) @ t=0.18
-3.9855380407088896
% es.EY (V/m) @ t=0.18
-0.43020424110198796
% es.EZ (V/m) @ t=0.18
5.336606105180253
% es.tEX (V/m) @ t=0.18
-3.9855380407088887
% es.tEY (V/m) @ t=0.18
0
% es.tEZ (V/m) @ t=0.18
5.3366061051802465
% es.Ex (V/m) @ t=0.18
-3.9855380407088896
% es.Ey (V/m) @ t=0.18
-0.43020424110198796
% es.Ez (V/m) @ t=0.18
5.336606105180253
% es.tEx (V/m) @ t=0.18
-3.9855380407088887
% es.tEy (V/m) @ t=0.18
0
% es.tEz (V/m) @ t=0.18
5.3366061051802465
% V (V) @ t=0.18
0.0058908281077752625
% es.normE (V/m) @ t=0.2
7.239816301579632
% es.EX (V/m) @ t=0.2
-4.022736015731206
% es.EY (V/m) @ t=0.2
-0.4342194482511237
% es.EZ (V/m) @ t=0.2
5.386413943109042
% es.tEX (V/m) @ t=0.2
-4.0227360157312155
% es.tEY (V/m) @ t=0.2
0
% es.tEZ (V/m) @ t=0.2
5.386413943109032
% es.Ex (V/m) @ t=0.2
-4.022736015731206
% es.Ey (V/m) @ t=0.2
-0.4342194482511237
% es.Ez (V/m) @ t=0.2
5.386413943109042
% es.tEx (V/m) @ t=0.2
-4.0227360157312155
% es.tEy (V/m) @ t=0.2
0
% es.tEz (V/m) @ t=0.2
5.386413943109032
% V (V) @ t=0.2
0.005945808639495765
% es.normE (V/m) @ t=0.22
7.306762429859579
% es.EX (V/m) @ t=0.22
-4.059933990753531
% es.EY (V/m) @ t=0.22
-0.43823465540027007
% es.EZ (V/m) @ t=0.22
5.436221781037817
% es.tEX (V/m) @ t=0.22
-4.059933990753537
% es.tEY (V/m) @ t=0.22
0
% es.tEZ (V/m) @ t=0.22
5.436221781037812
% es.Ex (V/m) @ t=0.22
-4.059933990753531
% es.Ey (V/m) @ t=0.22
-0.43823465540027007
% es.Ez (V/m) @ t=0.22
5.436221781037817
% es.tEx (V/m) @ t=0.22
-4.059933990753537
% es.tEy (V/m) @ t=0.22
0
% es.tEz (V/m) @ t=0.22
5.436221781037812
% V (V) @ t=0.22
0.006000789171216265
% es.normE (V/m) @ t=0.24
7.373708558139519
% es.EX (V/m) @ t=0.24
-4.097131965775858
% es.EY (V/m) @ t=0.24
-0.44224986254939
% es.EZ (V/m) @ t=0.24
5.486029618966582
% es.tEX (V/m) @ t=0.24
-4.09713196577586
% es.tEY (V/m) @ t=0.24
0
% es.tEZ (V/m) @ t=0.24
5.486029618966578
% es.Ex (V/m) @ t=0.24
-4.097131965775858
% es.Ey (V/m) @ t=0.24
-0.44224986254939
% es.Ez (V/m) @ t=0.24
5.486029618966582
% es.tEx (V/m) @ t=0.24
-4.09713196577586
% es.tEy (V/m) @ t=0.24
0
% es.tEz (V/m) @ t=0.24
5.486029618966578
% V (V) @ t=0.24
0.006055769702936768
% es.normE (V/m) @ t=0.26
7.440654686419467
% es.EX (V/m) @ t=0.26
-4.134329940798181
% es.EY (V/m) @ t=0.26
-0.44626506969854374
% es.EZ (V/m) @ t=0.26
5.535837456895353
% es.tEX (V/m) @ t=0.26
-4.134329940798191
% es.tEY (V/m) @ t=0.26
0
% es.tEZ (V/m) @ t=0.26
5.535837456895347
% es.Ex (V/m) @ t=0.26
-4.134329940798181
% es.Ey (V/m) @ t=0.26
-0.44626506969854374
% es.Ez (V/m) @ t=0.26
5.535837456895353
% es.tEx (V/m) @ t=0.26
-4.134329940798191
% es.tEy (V/m) @ t=0.26
0
% es.tEz (V/m) @ t=0.26
5.535837456895347
% V (V) @ t=0.26
0.00611075023465727
% es.normE (V/m) @ t=0.28
7.508885442910549
% es.EX (V/m) @ t=0.28
-4.172241710294218
% es.EY (V/m) @ t=0.28
-0.45035732294071584
% es.EZ (V/m) @ t=0.28
5.586601055415269
% es.tEX (V/m) @ t=0.28
-4.1722417102942275
% es.tEY (V/m) @ t=0.28
0
% es.tEZ (V/m) @ t=0.28
5.58660105541526
% es.Ex (V/m) @ t=0.28
-4.172241710294218
% es.Ey (V/m) @ t=0.28
-0.45035732294071584
% es.Ez (V/m) @ t=0.28
5.586601055415269
% es.tEx (V/m) @ t=0.28
-4.1722417102942275
% es.tEy (V/m) @ t=0.28
0
% es.tEz (V/m) @ t=0.28
5.58660105541526
% V (V) @ t=0.28
0.00616678578425168
% es.normE (V/m) @ t=0.3
7.583605031905016
% es.EX (V/m) @ t=0.3
-4.213758953141558
% es.EY (V/m) @ t=0.3
-0.4548387465191308
% es.EZ (V/m) @ t=0.3
5.6421923311849085
% es.tEX (V/m) @ t=0.3
-4.213758953141564
% es.tEY (V/m) @ t=0.3
0
% es.tEZ (V/m) @ t=0.3
5.642192331184903
% es.Ex (V/m) @ t=0.3
-4.213758953141558
% es.Ey (V/m) @ t=0.3
-0.4548387465191308
% es.Ez (V/m) @ t=0.3
5.6421923311849085
% es.tEx (V/m) @ t=0.3
-4.213758953141564
% es.tEy (V/m) @ t=0.3
0
% es.tEz (V/m) @ t=0.3
5.642192331184903
% V (V) @ t=0.3
0.006228150373184072
% es.normE (V/m) @ t=0.32
7.658324620899467
% es.EX (V/m) @ t=0.32
-4.255276195988927
% es.EY (V/m) @ t=0.32
-0.45932017009752957
% es.EZ (V/m) @ t=0.32
5.697783606954534
% es.tEX (V/m) @ t=0.32
-4.255276195988929
% es.tEY (V/m) @ t=0.32
0
% es.tEZ (V/m) @ t=0.32
5.697783606954522
% es.Ex (V/m) @ t=0.32
-4.255276195988927
% es.Ey (V/m) @ t=0.32
-0.45932017009752957
% es.Ez (V/m) @ t=0.32
5.697783606954534
% es.tEx (V/m) @ t=0.32
-4.255276195988929
% es.tEy (V/m) @ t=0.32
0
% es.tEz (V/m) @ t=0.32
5.697783606954522
% V (V) @ t=0.32
0.006289514962116464
% es.normE (V/m) @ t=0.34
7.733044209893913
% es.EX (V/m) @ t=0.34
-4.29679343883627
% es.EY (V/m) @ t=0.34
-0.4638015936759232
% es.EZ (V/m) @ t=0.34
5.75337488272416
% es.tEX (V/m) @ t=0.34
-4.296793438836279
% es.tEY (V/m) @ t=0.34
0
% es.tEZ (V/m) @ t=0.34
5.7533748827241515
% es.Ex (V/m) @ t=0.34
-4.29679343883627
% es.Ey (V/m) @ t=0.34
-0.4638015936759232
% es.Ez (V/m) @ t=0.34
5.75337488272416
% es.tEx (V/m) @ t=0.34
-4.296793438836279
% es.tEy (V/m) @ t=0.34
0
% es.tEz (V/m) @ t=0.34
5.7533748827241515
% V (V) @ t=0.34
0.006350879551048856
% es.normE (V/m) @ t=0.36
7.8077637988883755
% es.EX (V/m) @ t=0.36
-4.338310681683613
% es.EY (V/m) @ t=0.36
-0.4682830172543524
% es.EZ (V/m) @ t=0.36
5.808966158493791
% es.tEX (V/m) @ t=0.36
-4.338310681683612
% es.tEY (V/m) @ t=0.36
0
% es.tEZ (V/m) @ t=0.36
5.808966158493786
% es.Ex (V/m) @ t=0.36
-4.338310681683613
% es.Ey (V/m) @ t=0.36
-0.4682830172543524
% es.Ez (V/m) @ t=0.36
5.808966158493791
% es.tEx (V/m) @ t=0.36
-4.338310681683612
% es.tEy (V/m) @ t=0.36
0
% es.tEz (V/m) @ t=0.36
5.808966158493786
% V (V) @ t=0.36
0.006412244139981246
% es.normE (V/m) @ t=0.38
7.882483387882829
% es.EX (V/m) @ t=0.38
-4.379827924530974
% es.EY (V/m) @ t=0.38
-0.47276444083275626
% es.EZ (V/m) @ t=0.38
5.864557434263412
% es.tEX (V/m) @ t=0.38
-4.37982792453098
% es.tEY (V/m) @ t=0.38
0
% es.tEZ (V/m) @ t=0.38
5.864557434263407
% es.Ex (V/m) @ t=0.38
-4.379827924530974
% es.Ey (V/m) @ t=0.38
-0.47276444083275626
% es.Ez (V/m) @ t=0.38
5.864557434263412
% es.tEx (V/m) @ t=0.38
-4.37982792453098
% es.tEy (V/m) @ t=0.38
0
% es.tEz (V/m) @ t=0.38
5.864557434263407
% V (V) @ t=0.38
0.006473608728913639
% es.normE (V/m) @ t=0.4
7.957202976877282
% es.EX (V/m) @ t=0.4
-4.421345167378328
% es.EY (V/m) @ t=0.4
-0.47724586441115724
% es.EZ (V/m) @ t=0.4
5.920148710033043
% es.tEX (V/m) @ t=0.4
-4.4213451673783375
% es.tEY (V/m) @ t=0.4
0
% es.tEZ (V/m) @ t=0.4
5.920148710033034
% es.Ex (V/m) @ t=0.4
-4.421345167378328
% es.Ey (V/m) @ t=0.4
-0.47724586441115724
% es.Ez (V/m) @ t=0.4
5.920148710033043
% es.tEx (V/m) @ t=0.4
-4.4213451673783375
% es.tEy (V/m) @ t=0.4
0
% es.tEz (V/m) @ t=0.4
5.920148710033034
% V (V) @ t=0.4
0.006534973317846031
% es.normE (V/m) @ t=0.42
8.031922565871724
% es.EX (V/m) @ t=0.42
-4.462862410225675
% es.EY (V/m) @ t=0.42
-0.48172728798956665
% es.EZ (V/m) @ t=0.42
5.9757399858026625
% es.tEX (V/m) @ t=0.42
-4.462862410225678
% es.tEY (V/m) @ t=0.42
0
% es.tEZ (V/m) @ t=0.42
5.975739985802655
% es.Ex (V/m) @ t=0.42
-4.462862410225675
% es.Ey (V/m) @ t=0.42
-0.48172728798956665
% es.Ez (V/m) @ t=0.42
5.9757399858026625
% es.tEx (V/m) @ t=0.42
-4.462862410225678
% es.tEy (V/m) @ t=0.42
0
% es.tEz (V/m) @ t=0.42
5.975739985802655
% V (V) @ t=0.42
0.006596337906778423
% es.normE (V/m) @ t=0.44
8.10664215486619
% es.EX (V/m) @ t=0.44
-4.504379653073036
% es.EY (V/m) @ t=0.44
-0.48620871156797274
% es.EZ (V/m) @ t=0.44
6.031331261572298
% es.tEX (V/m) @ t=0.44
-4.504379653073039
% es.tEY (V/m) @ t=0.44
0
% es.tEZ (V/m) @ t=0.44
6.031331261572291
% es.Ex (V/m) @ t=0.44
-4.504379653073036
% es.Ey (V/m) @ t=0.44
-0.48620871156797274
% es.Ez (V/m) @ t=0.44
6.031331261572298
% es.tEx (V/m) @ t=0.44
-4.504379653073039
% es.tEy (V/m) @ t=0.44
0
% es.tEz (V/m) @ t=0.44
6.031331261572291
% V (V) @ t=0.44
0.006657702495710815
% es.normE (V/m) @ t=0.46
8.181361743860638
% es.EX (V/m) @ t=0.46
-4.545896895920382
% es.EY (V/m) @ t=0.46
-0.4906901351463877
% es.EZ (V/m) @ t=0.46
6.08692253734193
% es.tEX (V/m) @ t=0.46
-4.545896895920396
% es.tEY (V/m) @ t=0.46
0
% es.tEZ (V/m) @ t=0.46
6.08692253734192
% es.Ex (V/m) @ t=0.46
-4.545896895920382
% es.Ey (V/m) @ t=0.46
-0.4906901351463877
% es.Ez (V/m) @ t=0.46
6.08692253734193
% es.tEx (V/m) @ t=0.46
-4.545896895920396
% es.tEy (V/m) @ t=0.46
0
% es.tEz (V/m) @ t=0.46
6.08692253734192
% V (V) @ t=0.46
0.006719067084643206
% es.normE (V/m) @ t=0.48
8.256081332855098
% es.EX (V/m) @ t=0.48
-4.587414138767737
% es.EY (V/m) @ t=0.48
-0.49517155872478136
% es.EZ (V/m) @ t=0.48
6.142513813111555
% es.tEX (V/m) @ t=0.48
-4.587414138767739
% es.tEY (V/m) @ t=0.48
0
% es.tEZ (V/m) @ t=0.48
6.142513813111543
% es.Ex (V/m) @ t=0.48
-4.587414138767737
% es.Ey (V/m) @ t=0.48
-0.49517155872478136
% es.Ez (V/m) @ t=0.48
6.142513813111555
% es.tEx (V/m) @ t=0.48
-4.587414138767739
% es.tEy (V/m) @ t=0.48
0
% es.tEz (V/m) @ t=0.48
6.142513813111543
% V (V) @ t=0.48
0.006780431673575597
% es.normE (V/m) @ t=0.5
8.330800921849564
% es.EX (V/m) @ t=0.5
-4.628931381615098
% es.EY (V/m) @ t=0.5
-0.49965298230320854
% es.EZ (V/m) @ t=0.5
6.198105088881191
% es.tEX (V/m) @ t=0.5
-4.6289313816151045
% es.tEY (V/m) @ t=0.5
0
% es.tEZ (V/m) @ t=0.5
6.19810508888118
% es.Ex (V/m) @ t=0.5
-4.628931381615098
% es.Ey (V/m) @ t=0.5
-0.49965298230320854
% es.Ez (V/m) @ t=0.5
6.198105088881191
% es.tEx (V/m) @ t=0.5
-4.6289313816151045
% es.tEy (V/m) @ t=0.5
0
% es.tEz (V/m) @ t=0.5
6.19810508888118
% V (V) @ t=0.5
0.006841796262507989
% es.normE (V/m) @ t=0.52
8.405520510844006
% es.EX (V/m) @ t=0.52
-4.670448624462441
% es.EY (V/m) @ t=0.52
-0.5041344058816002
% es.EZ (V/m) @ t=0.52
6.253696364650813
% es.tEX (V/m) @ t=0.52
-4.670448624462451
% es.tEY (V/m) @ t=0.52
0
% es.tEZ (V/m) @ t=0.52
6.2536963646508035
% es.Ex (V/m) @ t=0.52
-4.670448624462441
% es.Ey (V/m) @ t=0.52
-0.5041344058816002
% es.Ez (V/m) @ t=0.52
6.253696364650813
% es.tEx (V/m) @ t=0.52
-4.670448624462451
% es.tEy (V/m) @ t=0.52
0
% es.tEz (V/m) @ t=0.52
6.2536963646508035
% V (V) @ t=0.52
0.006903160851440381
% es.normE (V/m) @ t=0.54
8.480240099838458
% es.EX (V/m) @ t=0.54
-4.711965867309789
% es.EY (V/m) @ t=0.54
-0.5086158294600098
% es.EZ (V/m) @ t=0.54
6.309287640420442
% es.tEX (V/m) @ t=0.54
-4.711965867309791
% es.tEY (V/m) @ t=0.54
0
% es.tEZ (V/m) @ t=0.54
6.3092876404204405
% es.Ex (V/m) @ t=0.54
-4.711965867309789
% es.Ey (V/m) @ t=0.54
-0.5086158294600098
% es.Ez (V/m) @ t=0.54
6.309287640420442
% es.tEx (V/m) @ t=0.54
-4.711965867309791
% es.tEy (V/m) @ t=0.54
0
% es.tEz (V/m) @ t=0.54
6.3092876404204405
% V (V) @ t=0.54
0.006964525440372773
% es.normE (V/m) @ t=0.56
8.557967823977688
% es.EX (V/m) @ t=0.56
-4.755154551466404
% es.EY (V/m) @ t=0.56
-0.5132776710837474
% es.EZ (V/m) @ t=0.56
6.367116965119378
% es.tEX (V/m) @ t=0.56
-4.75515455146641
% es.tEY (V/m) @ t=0.56
0
% es.tEZ (V/m) @ t=0.56
6.367116965119376
% es.Ex (V/m) @ t=0.56
-4.755154551466404
% es.Ey (V/m) @ t=0.56
-0.5132776710837474
% es.Ez (V/m) @ t=0.56
6.367116965119378
% es.tEx (V/m) @ t=0.56
-4.75515455146641
% es.tEy (V/m) @ t=0.56
0
% es.tEz (V/m) @ t=0.56
6.367116965119376
% V (V) @ t=0.56
0.007028360506498167
% es.normE (V/m) @ t=0.58
8.641518197966846
% es.EX (V/m) @ t=0.58
-4.801578534909798
% es.EY (V/m) @ t=0.58
-0.5182887360814405
% es.EZ (V/m) @ t=0.58
6.429278334302757
% es.tEX (V/m) @ t=0.58
-4.801578534909805
% es.tEY (V/m) @ t=0.58
0
% es.tEZ (V/m) @ t=0.58
6.4292783343027455
% es.Ex (V/m) @ t=0.58
-4.801578534909798
% es.Ey (V/m) @ t=0.58
-0.5182887360814405
% es.Ez (V/m) @ t=0.58
6.429278334302757
% es.tEx (V/m) @ t=0.58
-4.801578534909805
% es.tEy (V/m) @ t=0.58
0
% es.tEz (V/m) @ t=0.58
6.4292783343027455
% V (V) @ t=0.58
0.007096977513249505
% es.normE (V/m) @ t=0.6
8.725068571955987
% es.EX (V/m) @ t=0.6
-4.848002518353192
% es.EY (V/m) @ t=0.6
-0.5232998010791279
% es.EZ (V/m) @ t=0.6
6.4914397034861295
% es.tEX (V/m) @ t=0.6
-4.848002518353198
% es.tEY (V/m) @ t=0.6
0
% es.tEZ (V/m) @ t=0.6
6.491439703486125
% es.Ex (V/m) @ t=0.6
-4.848002518353192
% es.Ey (V/m) @ t=0.6
-0.5232998010791279
% es.Ez (V/m) @ t=0.6
6.4914397034861295
% es.tEx (V/m) @ t=0.6
-4.848002518353198
% es.tEy (V/m) @ t=0.6
0
% es.tEz (V/m) @ t=0.6
6.491439703486125
% V (V) @ t=0.6
0.007165594520000843
% es.normE (V/m) @ t=0.62
8.808618945945122
% es.EX (V/m) @ t=0.62
-4.8944265017965956
% es.EY (V/m) @ t=0.62
-0.5283108660768225
% es.EZ (V/m) @ t=0.62
6.553601072669485
% es.tEX (V/m) @ t=0.62
-4.894426501796598
% es.tEY (V/m) @ t=0.62
0
% es.tEZ (V/m) @ t=0.62
6.5536010726694744
% es.Ex (V/m) @ t=0.62
-4.8944265017965956
% es.Ey (V/m) @ t=0.62
-0.5283108660768225
% es.Ez (V/m) @ t=0.62
6.553601072669485
% es.tEx (V/m) @ t=0.62
-4.894426501796598
% es.tEy (V/m) @ t=0.62
0
% es.tEz (V/m) @ t=0.62
6.5536010726694744
% V (V) @ t=0.62
0.007234211526752183
% es.normE (V/m) @ t=0.64
8.892169319934288
% es.EX (V/m) @ t=0.64
-4.940850485239995
% es.EY (V/m) @ t=0.64
-0.5333219310745045
% es.EZ (V/m) @ t=0.64
6.615762441852878
% es.tEX (V/m) @ t=0.64
-4.940850485240008
% es.tEY (V/m) @ t=0.64
0
% es.tEZ (V/m) @ t=0.64
6.615762441852877
% es.Ex (V/m) @ t=0.64
-4.940850485239995
% es.Ey (V/m) @ t=0.64
-0.5333219310745045
% es.Ez (V/m) @ t=0.64
6.615762441852878
% es.tEx (V/m) @ t=0.64
-4.940850485240008
% es.tEy (V/m) @ t=0.64
0
% es.tEz (V/m) @ t=0.64
6.615762441852877
% V (V) @ t=0.64
0.007302828533503522
% es.normE (V/m) @ t=0.66
8.97571969392345
% es.EX (V/m) @ t=0.66
-4.987274468683395
% es.EY (V/m) @ t=0.66
-0.5383329960722065
% es.EZ (V/m) @ t=0.66
6.677923811036261
% es.tEX (V/m) @ t=0.66
-4.987274468683405
% es.tEY (V/m) @ t=0.66
0
% es.tEZ (V/m) @ t=0.66
6.677923811036253
% es.Ex (V/m) @ t=0.66
-4.987274468683395
% es.Ey (V/m) @ t=0.66
-0.5383329960722065
% es.Ez (V/m) @ t=0.66
6.677923811036261
% es.tEx (V/m) @ t=0.66
-4.987274468683405
% es.tEy (V/m) @ t=0.66
0
% es.tEz (V/m) @ t=0.66
6.677923811036253
% V (V) @ t=0.66
0.007371445540254861
% es.normE (V/m) @ t=0.68
9.059270067912585
% es.EX (V/m) @ t=0.68
-5.033698452126789
% es.EY (V/m) @ t=0.68
-0.5433440610698832
% es.EZ (V/m) @ t=0.68
6.740085180219627
% es.tEX (V/m) @ t=0.68
-5.0336984521267985
% es.tEY (V/m) @ t=0.68
0
% es.tEZ (V/m) @ t=0.68
6.740085180219617
% es.Ex (V/m) @ t=0.68
-5.033698452126789
% es.Ey (V/m) @ t=0.68
-0.5433440610698832
% es.Ez (V/m) @ t=0.68
6.740085180219627
% es.tEx (V/m) @ t=0.68
-5.0336984521267985
% es.tEy (V/m) @ t=0.68
0
% es.tEz (V/m) @ t=0.68
6.740085180219617
% V (V) @ t=0.68
0.007440062547006197
% es.normE (V/m) @ t=0.7
9.142820441901746
% es.EX (V/m) @ t=0.7
-5.080122435570196
% es.EY (V/m) @ t=0.7
-0.5483551260675887
% es.EZ (V/m) @ t=0.7
6.802246549403009
% es.tEX (V/m) @ t=0.7
-5.080122435570202
% es.tEY (V/m) @ t=0.7
0
% es.tEZ (V/m) @ t=0.7
6.802246549403003
% es.Ex (V/m) @ t=0.7
-5.080122435570196
% es.Ey (V/m) @ t=0.7
-0.5483551260675887
% es.Ez (V/m) @ t=0.7
6.802246549403009
% es.tEx (V/m) @ t=0.7
-5.080122435570202
% es.tEy (V/m) @ t=0.7
0
% es.tEz (V/m) @ t=0.7
6.802246549403003
% V (V) @ t=0.7
0.007508679553757536
% es.normE (V/m) @ t=0.72
9.226370815890906
% es.EX (V/m) @ t=0.72
-5.1265464190136
% es.EY (V/m) @ t=0.72
-0.5533661910652565
% es.EZ (V/m) @ t=0.72
6.864407918586392
% es.tEX (V/m) @ t=0.72
-5.126546419013613
% es.tEY (V/m) @ t=0.72
0
% es.tEZ (V/m) @ t=0.72
6.864407918586379
% es.Ex (V/m) @ t=0.72
-5.1265464190136
% es.Ey (V/m) @ t=0.72
-0.5533661910652565
% es.Ez (V/m) @ t=0.72
6.864407918586392
% es.tEx (V/m) @ t=0.72
-5.126546419013613
% es.tEy (V/m) @ t=0.72
0
% es.tEz (V/m) @ t=0.72
6.864407918586379
% V (V) @ t=0.72
0.007577296560508874
% es.normE (V/m) @ t=0.74
9.309921189880047
% es.EX (V/m) @ t=0.74
-5.172970402456998
% es.EY (V/m) @ t=0.74
-0.5583772560629581
% es.EZ (V/m) @ t=0.74
6.926569287769761
% es.tEX (V/m) @ t=0.74
-5.172970402457008
% es.tEY (V/m) @ t=0.74
0
% es.tEZ (V/m) @ t=0.74
6.9265692877697544
% es.Ex (V/m) @ t=0.74
-5.172970402456998
% es.Ey (V/m) @ t=0.74
-0.5583772560629581
% es.Ez (V/m) @ t=0.74
6.926569287769761
% es.tEx (V/m) @ t=0.74
-5.172970402457008
% es.tEy (V/m) @ t=0.74
0
% es.tEz (V/m) @ t=0.74
6.9265692877697544
% V (V) @ t=0.74
0.0076459135672602135
% es.normE (V/m) @ t=0.76
9.393471563869198
% es.EX (V/m) @ t=0.76
-5.219394385900398
% es.EY (V/m) @ t=0.76
-0.5633883210606299
% es.EZ (V/m) @ t=0.76
6.98873065695314
% es.tEX (V/m) @ t=0.76
-5.219394385900404
% es.tEY (V/m) @ t=0.76
0
% es.tEZ (V/m) @ t=0.76
6.988730656953132
% es.Ex (V/m) @ t=0.76
-5.219394385900398
% es.Ey (V/m) @ t=0.76
-0.5633883210606299
% es.Ez (V/m) @ t=0.76
6.98873065695314
% es.tEx (V/m) @ t=0.76
-5.219394385900404
% es.tEy (V/m) @ t=0.76
0
% es.tEz (V/m) @ t=0.76
6.988730656953132
% V (V) @ t=0.76
0.007714530574011552
% es.normE (V/m) @ t=0.78
9.47702193785836
% es.EX (V/m) @ t=0.78
-5.265818369343795
% es.EY (V/m) @ t=0.78
-0.5683993860583172
% es.EZ (V/m) @ t=0.78
7.050892026136524
% es.tEX (V/m) @ t=0.78
-5.265818369343805
% es.tEY (V/m) @ t=0.78
0
% es.tEZ (V/m) @ t=0.78
7.050892026136508
% es.Ex (V/m) @ t=0.78
-5.265818369343795
% es.Ey (V/m) @ t=0.78
-0.5683993860583172
% es.Ez (V/m) @ t=0.78
7.050892026136524
% es.tEx (V/m) @ t=0.78
-5.265818369343805
% es.tEy (V/m) @ t=0.78
0
% es.tEz (V/m) @ t=0.78
7.050892026136508
% V (V) @ t=0.78
0.007783147580762891
% es.normE (V/m) @ t=0.8
9.56057231184751
% es.EX (V/m) @ t=0.8
-5.3122423527872025
% es.EY (V/m) @ t=0.8
-0.5734104510560227
% es.EZ (V/m) @ t=0.8
7.113053395319886
% es.tEX (V/m) @ t=0.8
-5.312242352787216
% es.tEY (V/m) @ t=0.8
0
% es.tEZ (V/m) @ t=0.8
7.113053395319877
% es.Ex (V/m) @ t=0.8
-5.3122423527872025
% es.Ey (V/m) @ t=0.8
-0.5734104510560227
% es.Ez (V/m) @ t=0.8
7.113053395319886
% es.tEx (V/m) @ t=0.8
-5.312242352787216
% es.tEy (V/m) @ t=0.8
0
% es.tEz (V/m) @ t=0.8
7.113053395319877
% V (V) @ t=0.8
0.007851764587514229
% es.normE (V/m) @ t=0.82
9.644122685836646
% es.EX (V/m) @ t=0.82
-5.358666336230606
% es.EY (V/m) @ t=0.82
-0.5784215160536956
% es.EZ (V/m) @ t=0.82
7.175214764503254
% es.tEX (V/m) @ t=0.82
-5.358666336230615
% es.tEY (V/m) @ t=0.82
0
% es.tEZ (V/m) @ t=0.82
7.175214764503244
% es.Ex (V/m) @ t=0.82
-5.358666336230606
% es.Ey (V/m) @ t=0.82
-0.5784215160536956
% es.Ez (V/m) @ t=0.82
7.175214764503254
% es.tEx (V/m) @ t=0.82
-5.358666336230615
% es.tEy (V/m) @ t=0.82
0
% es.tEz (V/m) @ t=0.82
7.175214764503244
% V (V) @ t=0.82
0.007920381594265568
% es.normE (V/m) @ t=0.84
9.732859978472614
% es.EX (V/m) @ t=0.84
-5.4079723743961505
% es.EY (V/m) @ t=0.84
-0.5837436789210593
% es.EZ (V/m) @ t=0.84
7.2412351976926805
% es.tEX (V/m) @ t=0.84
-5.40797237439616
% es.tEY (V/m) @ t=0.84
0
% es.tEZ (V/m) @ t=0.84
7.2412351976926725
% es.Ex (V/m) @ t=0.84
-5.4079723743961505
% es.Ey (V/m) @ t=0.84
-0.5837436789210593
% es.Ez (V/m) @ t=0.84
7.2412351976926805
% es.tEx (V/m) @ t=0.84
-5.40797237439616
% es.tEy (V/m) @ t=0.84
0
% es.tEz (V/m) @ t=0.84
7.2412351976926725
% V (V) @ t=0.84
0.007993258443277609
% es.normE (V/m) @ t=0.86
9.826462022942925
% es.EX (V/m) @ t=0.86
-5.459981458811534
% es.EY (V/m) @ t=0.86
-0.589357616931838
% es.EZ (V/m) @ t=0.86
7.310875002994986
% es.tEX (V/m) @ t=0.86
-5.45998145881154
% es.tEY (V/m) @ t=0.86
0
% es.tEZ (V/m) @ t=0.86
7.310875002994982
% es.Ex (V/m) @ t=0.86
-5.459981458811534
% es.Ey (V/m) @ t=0.86
-0.589357616931838
% es.Ez (V/m) @ t=0.86
7.310875002994986
% es.tEx (V/m) @ t=0.86
-5.45998145881154
% es.tEy (V/m) @ t=0.86
0
% es.tEz (V/m) @ t=0.86
7.310875002994982
% V (V) @ t=0.86
0.00807013054975614
% es.normE (V/m) @ t=0.88
9.92006406741324
% es.EX (V/m) @ t=0.88
-5.511990543226888
% es.EY (V/m) @ t=0.88
-0.5949715549426449
% es.EZ (V/m) @ t=0.88
7.3805148082973115
% es.tEX (V/m) @ t=0.88
-5.5119905432268945
% es.tEY (V/m) @ t=0.88
0
% es.tEZ (V/m) @ t=0.88
7.380514808297301
% es.Ex (V/m) @ t=0.88
-5.511990543226888
% es.Ey (V/m) @ t=0.88
-0.5949715549426449
% es.Ez (V/m) @ t=0.88
7.3805148082973115
% es.tEx (V/m) @ t=0.88
-5.5119905432268945
% es.tEy (V/m) @ t=0.88
0
% es.tEz (V/m) @ t=0.88
7.380514808297301
% V (V) @ t=0.88
0.00814700265623467
% es.normE (V/m) @ t=0.9
10.013666111883548
% es.EX (V/m) @ t=0.9
-5.5639996276422625
% es.EY (V/m) @ t=0.9
-0.600585492953408
% es.EZ (V/m) @ t=0.9
7.45015461359962
% es.tEX (V/m) @ t=0.9
-5.563999627642272
% es.tEY (V/m) @ t=0.9
0
% es.tEZ (V/m) @ t=0.9
7.450154613599611
% es.Ex (V/m) @ t=0.9
-5.5639996276422625
% es.Ey (V/m) @ t=0.9
-0.600585492953408
% es.Ez (V/m) @ t=0.9
7.45015461359962
% es.tEx (V/m) @ t=0.9
-5.563999627642272
% es.tEy (V/m) @ t=0.9
0
% es.tEz (V/m) @ t=0.9
7.450154613599611
% V (V) @ t=0.9
0.008223874762713199
% es.normE (V/m) @ t=0.92
10.107268156353857
% es.EX (V/m) @ t=0.92
-5.6160087120576065
% es.EY (V/m) @ t=0.92
-0.606199430964208
% es.EZ (V/m) @ t=0.92
7.519794418901953
% es.tEX (V/m) @ t=0.92
-5.616008712057613
% es.tEY (V/m) @ t=0.92
0
% es.tEZ (V/m) @ t=0.92
7.5197944189019434
% es.Ex (V/m) @ t=0.92
-5.6160087120576065
% es.Ey (V/m) @ t=0.92
-0.606199430964208
% es.Ez (V/m) @ t=0.92
7.519794418901953
% es.tEx (V/m) @ t=0.92
-5.616008712057613
% es.tEy (V/m) @ t=0.92
0
% es.tEz (V/m) @ t=0.92
7.5197944189019434
% V (V) @ t=0.92
0.008300746869191732
% es.normE (V/m) @ t=0.94
10.200870200824168
% es.EX (V/m) @ t=0.94
-5.668017796472993
% es.EY (V/m) @ t=0.94
-0.6118133689749938
% es.EZ (V/m) @ t=0.94
7.589434224204262
% es.tEX (V/m) @ t=0.94
-5.668017796472999
% es.tEY (V/m) @ t=0.94
0
% es.tEZ (V/m) @ t=0.94
7.589434224204253
% es.Ex (V/m) @ t=0.94
-5.668017796472993
% es.Ey (V/m) @ t=0.94
-0.6118133689749938
% es.Ez (V/m) @ t=0.94
7.589434224204262
% es.tEx (V/m) @ t=0.94
-5.668017796472999
% es.tEy (V/m) @ t=0.94
0
% es.tEz (V/m) @ t=0.94
7.589434224204253
% V (V) @ t=0.94
0.008377618975670263
% es.normE (V/m) @ t=0.96
10.294472245294486
% es.EX (V/m) @ t=0.96
-5.7200268808883585
% es.EY (V/m) @ t=0.96
-0.6174273069857854
% es.EZ (V/m) @ t=0.96
7.65907402950659
% es.tEX (V/m) @ t=0.96
-5.720026880888368
% es.tEY (V/m) @ t=0.96
0
% es.tEZ (V/m) @ t=0.96
7.659074029506576
% es.Ex (V/m) @ t=0.96
-5.7200268808883585
% es.Ey (V/m) @ t=0.96
-0.6174273069857854
% es.Ez (V/m) @ t=0.96
7.65907402950659
% es.tEx (V/m) @ t=0.96
-5.720026880888368
% es.tEy (V/m) @ t=0.96
0
% es.tEz (V/m) @ t=0.96
7.659074029506576
% V (V) @ t=0.96
0.008454491082148794
% es.normE (V/m) @ t=0.98
10.388074289764814
% es.EX (V/m) @ t=0.98
-5.772035965303727
% es.EY (V/m) @ t=0.98
-0.6230412449965745
% es.EZ (V/m) @ t=0.98
7.728713834808926
% es.tEX (V/m) @ t=0.98
-5.77203596530373
% es.tEY (V/m) @ t=0.98
0
% es.tEZ (V/m) @ t=0.98
7.728713834808918
% es.Ex (V/m) @ t=0.98
-5.772035965303727
% es.Ey (V/m) @ t=0.98
-0.6230412449965745
% es.Ez (V/m) @ t=0.98
7.728713834808926
% es.tEx (V/m) @ t=0.98
-5.77203596530373
% es.tEy (V/m) @ t=0.98
0
% es.tEz (V/m) @ t=0.98
7.728713834808918
% V (V) @ t=0.98
0.008531363188627326
% es.normE (V/m) @ t=1
10.481676334235107
% es.EX (V/m) @ t=1
-5.824045049719089
% es.EY (V/m) @ t=1
-0.6286551830073586
% es.EZ (V/m) @ t=1
7.798353640111236
% es.tEX (V/m) @ t=1
-5.824045049719106
% es.tEY (V/m) @ t=1
0
% es.tEZ (V/m) @ t=1
7.798353640111226
% es.Ex (V/m) @ t=1
-5.824045049719089
% es.Ey (V/m) @ t=1
-0.6286551830073586
% es.Ez (V/m) @ t=1
7.798353640111236
% es.tEx (V/m) @ t=1
-5.824045049719106
% es.tEy (V/m) @ t=1
0
% es.tEz (V/m) @ t=1
7.798353640111226
% V (V) @ t=1
0.008608235295105857
% es.normE (V/m) @ t=1.02
10.57527837870543
% es.EX (V/m) @ t=1.02
-5.876054134134457
% es.EY (V/m) @ t=1.02
-0.6342691210181393
% es.EZ (V/m) @ t=1.02
7.8679934454135605
% es.tEX (V/m) @ t=1.02
-5.876054134134467
% es.tEY (V/m) @ t=1.02
0
% es.tEZ (V/m) @ t=1.02
7.867993445413553
% es.Ex (V/m) @ t=1.02
-5.876054134134457
% es.Ey (V/m) @ t=1.02
-0.6342691210181393
% es.Ez (V/m) @ t=1.02
7.8679934454135605
% es.tEx (V/m) @ t=1.02
-5.876054134134467
% es.tEy (V/m) @ t=1.02
0
% es.tEz (V/m) @ t=1.02
7.867993445413553
% V (V) @ t=1.02
0.008685107401584388
% es.normE (V/m) @ t=1.04
10.668880423175732
% es.EX (V/m) @ t=1.04
-5.9280632185498225
% es.EY (V/m) @ t=1.04
-0.6398830590289339
% es.EZ (V/m) @ t=1.04
7.937633250715877
% es.tEX (V/m) @ t=1.04
-5.928063218549829
% es.tEY (V/m) @ t=1.04
0
% es.tEZ (V/m) @ t=1.04
7.9376332507158684
% es.Ex (V/m) @ t=1.04
-5.9280632185498225
% es.Ey (V/m) @ t=1.04
-0.6398830590289339
% es.Ez (V/m) @ t=1.04
7.937633250715877
% es.tEx (V/m) @ t=1.04
-5.928063218549829
% es.tEy (V/m) @ t=1.04
0
% es.tEz (V/m) @ t=1.04