% Model:              1 neuron.mph
% Version:            COMSOL 6.1.0.252
% Date:               Mar 18 2023, 12:04
% Dimension:          0
% Nodes:              14017
% Expressions:        14017
% Description:        Electric field norm, Electric field, X component, Electric field, Y component, Electric field, Z component, Tangential electric field, X component, Tangential electric field, Y component, Tangential electric field, Z component, Electric field, x component, Electric field, y component, Electric field, z component, Tangential electric field, x component, Tangential electric field, y component, Tangential electric field, z component, Electric potential
% Length unit:        mm
% x
1.3300000000000003
% y
12.200000000000001
% z
1.66
% es.normE (V/m) @ t=0
7.303142435423691
% es.EX (V/m) @ t=0
4.634569481526902
% es.EY (V/m) @ t=0
1.3858982581411665
% es.EZ (V/m) @ t=0
-5.0765613920999835
% es.tEX (V/m) @ t=0
4.634569481526896
% es.tEY (V/m) @ t=0
0
% es.tEZ (V/m) @ t=0
-5.076561392099969
% es.Ex (V/m) @ t=0
4.634569481526902
% es.Ey (V/m) @ t=0
1.3858982581411665
% es.Ez (V/m) @ t=0
-5.0765613920999835
% es.tEx (V/m) @ t=0
4.634569481526896
% es.tEy (V/m) @ t=0
0
% es.tEz (V/m) @ t=0
-5.076561392099969
% V (V) @ t=0
0.0062557140208095935
% es.normE (V/m) @ t=0.02
6.307804561653538
% es.EX (V/m) @ t=0.02
4.002928725897563
% es.EY (V/m) @ t=0.02
1.197015601241304
% es.EZ (V/m) @ t=0.02
-4.384681980054111
% es.tEX (V/m) @ t=0.02
4.0029287258975526
% es.tEY (V/m) @ t=0.02
0
% es.tEZ (V/m) @ t=0.02
-4.3846819800541
% es.Ex (V/m) @ t=0.02
4.002928725897563
% es.Ey (V/m) @ t=0.02
1.197015601241304
% es.Ez (V/m) @ t=0.02
-4.384681980054111
% es.tEx (V/m) @ t=0.02
4.0029287258975526
% es.tEy (V/m) @ t=0.02
0
% es.tEz (V/m) @ t=0.02
-4.3846819800541
% V (V) @ t=0.02
0.0054031290245361106
% es.normE (V/m) @ t=0.04
6.365827236681243
% es.EX (V/m) @ t=0.04
4.039749916174949
% es.EY (V/m) @ t=0.04
1.2080264360160493
% es.EZ (V/m) @ t=0.04
-4.425014688353677
% es.tEX (V/m) @ t=0.04
4.039749916174943
% es.tEY (V/m) @ t=0.04
0
% es.tEZ (V/m) @ t=0.04
-4.42501468835367
% es.Ex (V/m) @ t=0.04
4.039749916174949
% es.Ey (V/m) @ t=0.04
1.2080264360160493
% es.Ez (V/m) @ t=0.04
-4.425014688353677
% es.tEx (V/m) @ t=0.04
4.039749916174943
% es.tEy (V/m) @ t=0.04
0
% es.tEz (V/m) @ t=0.04
-4.42501468835367
% V (V) @ t=0.04
0.005452829823017003
% es.normE (V/m) @ t=0.06
6.424378276893314
% es.EX (V/m) @ t=0.06
4.076906367041703
% es.EY (V/m) @ t=0.06
1.2191375130531803
% es.EZ (V/m) @ t=0.06
-4.465714696476183
% es.tEX (V/m) @ t=0.06
4.076906367041695
% es.tEY (V/m) @ t=0.06
0
% es.tEZ (V/m) @ t=0.06
-4.465714696476176
% es.Ex (V/m) @ t=0.06
4.076906367041703
% es.Ey (V/m) @ t=0.06
1.2191375130531803
% es.Ez (V/m) @ t=0.06
-4.465714696476183
% es.tEx (V/m) @ t=0.06
4.076906367041695
% es.tEy (V/m) @ t=0.06
0
% es.tEz (V/m) @ t=0.06
-4.465714696476176
% V (V) @ t=0.06
0.005502983385814349
% es.normE (V/m) @ t=0.08
6.483809516062589
% es.EX (V/m) @ t=0.08
4.114621739016185
% es.EY (V/m) @ t=0.08
1.230415836684833
% es.EZ (V/m) @ t=0.08
-4.507026351101394
% es.tEX (V/m) @ t=0.08
4.1146217390161794
% es.tEY (V/m) @ t=0.08
0
% es.tEZ (V/m) @ t=0.08
-4.507026351101386
% es.Ex (V/m) @ t=0.08
4.114621739016185
% es.Ey (V/m) @ t=0.08
1.230415836684833
% es.Ez (V/m) @ t=0.08
-4.507026351101394
% es.tEx (V/m) @ t=0.08
4.1146217390161794
% es.tEy (V/m) @ t=0.08
0
% es.tEz (V/m) @ t=0.08
-4.507026351101386
% V (V) @ t=0.08
0.005553889343786901
% es.normE (V/m) @ t=0.1
6.543877529101709
% es.EX (V/m) @ t=0.1
4.152741458614248
% es.EY (V/m) @ t=0.1
1.241815153712734
% es.EZ (V/m) @ t=0.1
-4.548780497173814
% es.tEX (V/m) @ t=0.1
4.1527414586142415
% es.tEY (V/m) @ t=0.1
0
% es.tEZ (V/m) @ t=0.1
-4.548780497173807
% es.Ex (V/m) @ t=0.1
4.152741458614248
% es.Ey (V/m) @ t=0.1
1.241815153712734
% es.Ez (V/m) @ t=0.1
-4.548780497173814
% es.tEx (V/m) @ t=0.1
4.1527414586142415
% es.tEy (V/m) @ t=0.1
0
% es.tEz (V/m) @ t=0.1
-4.548780497173807
% V (V) @ t=0.1
0.005605339616863842
% es.normE (V/m) @ t=0.12
6.60394554214103
% es.EX (V/m) @ t=0.12
4.1908611782123195
% es.EY (V/m) @ t=0.12
1.2532144707406367
% es.EZ (V/m) @ t=0.12
-4.590534643246253
% es.tEX (V/m) @ t=0.12
4.190861178212318
% es.tEY (V/m) @ t=0.12
0
% es.tEZ (V/m) @ t=0.12
-4.590534643246242
% es.Ex (V/m) @ t=0.12
4.1908611782123195
% es.Ey (V/m) @ t=0.12
1.2532144707406367
% es.Ez (V/m) @ t=0.12
-4.590534643246253
% es.tEx (V/m) @ t=0.12
4.190861178212318
% es.tEy (V/m) @ t=0.12
0
% es.tEz (V/m) @ t=0.12
-4.590534643246242
% V (V) @ t=0.12
0.005656789889940783
% es.normE (V/m) @ t=0.14
6.664562205349409
% es.EX (V/m) @ t=0.14
4.229328916398315
% es.EY (V/m) @ t=0.14
1.2647178087275015
% es.EZ (V/m) @ t=0.14
-4.6326702549157535
% es.tEX (V/m) @ t=0.14
4.229328916398304
% es.tEY (V/m) @ t=0.14
0
% es.tEZ (V/m) @ t=0.14
-4.632670254915746
% es.Ex (V/m) @ t=0.14
4.229328916398315
% es.Ey (V/m) @ t=0.14
1.2647178087275015
% es.Ez (V/m) @ t=0.14
-4.6326702549157535
% es.tEx (V/m) @ t=0.14
4.229328916398304
% es.tEy (V/m) @ t=0.14
0
% es.tEz (V/m) @ t=0.14
-4.632670254915746
% V (V) @ t=0.14
0.005708710820330264
% es.normE (V/m) @ t=0.16
6.727848915072954
% es.EX (V/m) @ t=0.16
4.26949031271214
% es.EY (V/m) @ t=0.16
1.2767273723836905
% es.EZ (V/m) @ t=0.16
-4.676662297050061
% es.tEX (V/m) @ t=0.16
4.269490312712129
% es.tEY (V/m) @ t=0.16
0
% es.tEZ (V/m) @ t=0.16
-4.676662297050051
% es.Ex (V/m) @ t=0.16
4.26949031271214
% es.Ey (V/m) @ t=0.16
1.2767273723836905
% es.Ez (V/m) @ t=0.16
-4.676662297050061
% es.tEx (V/m) @ t=0.16
4.269490312712129
% es.tEy (V/m) @ t=0.16
0
% es.tEz (V/m) @ t=0.16
-4.676662297050051
% V (V) @ t=0.16
0.005762922239246584
% es.normE (V/m) @ t=0.18
6.791135624796561
% es.EX (V/m) @ t=0.18
4.309651709025955
% es.EY (V/m) @ t=0.18
1.2887369360398953
% es.EZ (V/m) @ t=0.18
-4.720654339184382
% es.tEX (V/m) @ t=0.18
4.309651709025944
% es.tEY (V/m) @ t=0.18
0
% es.tEZ (V/m) @ t=0.18
-4.720654339184374
% es.Ex (V/m) @ t=0.18
4.309651709025955
% es.Ey (V/m) @ t=0.18
1.2887369360398953
% es.Ez (V/m) @ t=0.18
-4.720654339184382
% es.tEx (V/m) @ t=0.18
4.309651709025944
% es.tEy (V/m) @ t=0.18
0
% es.tEz (V/m) @ t=0.18
-4.720654339184374
% V (V) @ t=0.18
0.005817133658162902
% es.normE (V/m) @ t=0.2
6.854422334520209
% es.EX (V/m) @ t=0.2
4.349813105339754
% es.EY (V/m) @ t=0.2
1.3007464996960738
% es.EZ (V/m) @ t=0.2
-4.764646381318707
% es.tEX (V/m) @ t=0.2
4.349813105339747
% es.tEY (V/m) @ t=0.2
0
% es.tEZ (V/m) @ t=0.2
-4.764646381318704
% es.Ex (V/m) @ t=0.2
4.349813105339754
% es.Ey (V/m) @ t=0.2
1.3007464996960738
% es.Ez (V/m) @ t=0.2
-4.764646381318707
% es.tEx (V/m) @ t=0.2
4.349813105339747
% es.tEy (V/m) @ t=0.2
0
% es.tEz (V/m) @ t=0.2
-4.764646381318704
% V (V) @ t=0.2
0.0058713450770792215
% es.normE (V/m) @ t=0.22
6.9177090442439155
% es.EX (V/m) @ t=0.22
4.389974501653569
% es.EY (V/m) @ t=0.22
1.3127560633522768
% es.EZ (V/m) @ t=0.22
-4.80863842345303
% es.tEX (V/m) @ t=0.22
4.389974501653565
% es.tEY (V/m) @ t=0.22
0
% es.tEZ (V/m) @ t=0.22
-4.8086384234530195
% es.Ex (V/m) @ t=0.22
4.389974501653569
% es.Ey (V/m) @ t=0.22
1.3127560633522768
% es.Ez (V/m) @ t=0.22
-4.80863842345303
% es.tEx (V/m) @ t=0.22
4.389974501653565
% es.tEy (V/m) @ t=0.22
0
% es.tEz (V/m) @ t=0.22
-4.8086384234530195
% V (V) @ t=0.22
0.00592555649599554
% es.normE (V/m) @ t=0.24
6.980995753967658
% es.EX (V/m) @ t=0.24
4.430135897967393
% es.EY (V/m) @ t=0.24
1.3247656270084744
% es.EZ (V/m) @ t=0.24
-4.852630465587332
% es.tEX (V/m) @ t=0.24
4.430135897967387
% es.tEY (V/m) @ t=0.24
0
% es.tEZ (V/m) @ t=0.24
-4.852630465587327
% es.Ex (V/m) @ t=0.24
4.430135897967393
% es.Ey (V/m) @ t=0.24
1.3247656270084744
% es.Ez (V/m) @ t=0.24
-4.852630465587332
% es.tEx (V/m) @ t=0.24
4.430135897967387
% es.tEy (V/m) @ t=0.24
0
% es.tEz (V/m) @ t=0.24
-4.852630465587327
% V (V) @ t=0.24
0.005979767914911859
% es.normE (V/m) @ t=0.26
7.044282463691468
% es.EX (V/m) @ t=0.26
4.4702972942812025
% es.EY (V/m) @ t=0.26
1.3367751906646868
% es.EZ (V/m) @ t=0.26
-4.896622507721661
% es.tEX (V/m) @ t=0.26
4.470297294281194
% es.tEY (V/m) @ t=0.26
0
% es.tEZ (V/m) @ t=0.26
-4.896622507721647
% es.Ex (V/m) @ t=0.26
4.4702972942812025
% es.Ey (V/m) @ t=0.26
1.3367751906646868
% es.Ez (V/m) @ t=0.26
-4.896622507721661
% es.tEx (V/m) @ t=0.26
4.470297294281194
% es.tEy (V/m) @ t=0.26
0
% es.tEz (V/m) @ t=0.26
-4.896622507721647
% V (V) @ t=0.26
0.006033979333828177
% es.normE (V/m) @ t=0.28
7.110112681719648
% es.EX (V/m) @ t=0.28
4.512071437789062
% es.EY (V/m) @ t=0.28
1.3492665943796223
% es.EZ (V/m) @ t=0.28
-4.942383367978323
% es.tEX (V/m) @ t=0.28
4.512071437789048
% es.tEY (V/m) @ t=0.28
0
% es.tEZ (V/m) @ t=0.28
-4.942383367978316
% es.Ex (V/m) @ t=0.28
4.512071437789062
% es.Ey (V/m) @ t=0.28
1.3492665943796223
% es.Ez (V/m) @ t=0.28
-4.942383367978323
% es.tEx (V/m) @ t=0.28
4.512071437789048
% es.tEy (V/m) @ t=0.28
0
% es.tEz (V/m) @ t=0.28
-4.942383367978316
% V (V) @ t=0.28
0.006090375591323373
% es.normE (V/m) @ t=0.3
7.180647834896696
% es.EX (V/m) @ t=0.3
4.5568288115609725
% es.EY (V/m) @ t=0.3
1.3626492970229827
% es.EZ (V/m) @ t=0.3
-4.991416155647929
% es.tEX (V/m) @ t=0.3
4.55682881156097
% es.tEY (V/m) @ t=0.3
0
% es.tEZ (V/m) @ t=0.3
-4.991416155647919
% es.Ex (V/m) @ t=0.3
4.5568288115609725
% es.Ey (V/m) @ t=0.3
1.3626492970229827
% es.Ez (V/m) @ t=0.3
-4.991416155647929
% es.tEx (V/m) @ t=0.3
4.55682881156097
% es.tEy (V/m) @ t=0.3
0
% es.tEz (V/m) @ t=0.3
-4.991416155647919
% V (V) @ t=0.3
0.006150813323263405
% es.normE (V/m) @ t=0.32
7.251182988081803
% es.EX (V/m) @ t=0.32
4.601586185332906
% es.EY (V/m) @ t=0.32
1.3760319996663257
% es.EZ (V/m) @ t=0.32
-5.04044894331754
% es.tEX (V/m) @ t=0.32
4.601586185332898
% es.tEY (V/m) @ t=0.32
0
% es.tEZ (V/m) @ t=0.32
-5.040448943317529
% es.Ex (V/m) @ t=0.32
4.601586185332906
% es.Ey (V/m) @ t=0.32
1.3760319996663257
% es.Ez (V/m) @ t=0.32
-5.04044894331754
% es.tEx (V/m) @ t=0.32
4.601586185332898
% es.tEy (V/m) @ t=0.32
0
% es.tEz (V/m) @ t=0.32
-5.040448943317529
% V (V) @ t=0.32
0.0062112510552034365
% es.normE (V/m) @ t=0.34
7.321718141274726
% es.EX (V/m) @ t=0.34
4.646343559104833
% es.EY (V/m) @ t=0.34
1.3894147023096843
% es.EZ (V/m) @ t=0.34
-5.0894817309871545
% es.tEX (V/m) @ t=0.34
4.646343559104822
% es.tEY (V/m) @ t=0.34
0
% es.tEZ (V/m) @ t=0.34
-5.089481730987139
% es.Ex (V/m) @ t=0.34
4.646343559104833
% es.Ey (V/m) @ t=0.34
1.3894147023096843
% es.Ez (V/m) @ t=0.34
-5.0894817309871545
% es.tEx (V/m) @ t=0.34
4.646343559104822
% es.tEy (V/m) @ t=0.34
0
% es.tEz (V/m) @ t=0.34
-5.089481730987139
% V (V) @ t=0.34
0.006271688787143469
% es.normE (V/m) @ t=0.36
7.392253294475246
% es.EX (V/m) @ t=0.36
4.691100932876761
% es.EY (V/m) @ t=0.36
1.4027974049530325
% es.EZ (V/m) @ t=0.36
-5.138514518656772
% es.tEX (V/m) @ t=0.36
4.691100932876746
% es.tEY (V/m) @ t=0.36
0
% es.tEZ (V/m) @ t=0.36
-5.1385145186567645
% es.Ex (V/m) @ t=0.36
4.691100932876761
% es.Ey (V/m) @ t=0.36
1.4027974049530325
% es.Ez (V/m) @ t=0.36
-5.138514518656772
% es.tEx (V/m) @ t=0.36
4.691100932876746
% es.tEy (V/m) @ t=0.36
0
% es.tEz (V/m) @ t=0.36
-5.1385145186567645
% V (V) @ t=0.36
0.006332126519083502
% es.normE (V/m) @ t=0.38
7.462788447683128
% es.EX (V/m) @ t=0.38
4.735858306648704
% es.EY (V/m) @ t=0.38
1.4161801075963845
% es.EZ (V/m) @ t=0.38
-5.187547306326371
% es.tEX (V/m) @ t=0.38
4.735858306648687
% es.tEY (V/m) @ t=0.38
0
% es.tEZ (V/m) @ t=0.38
-5.18754730632636
% es.Ex (V/m) @ t=0.38
4.735858306648704
% es.Ey (V/m) @ t=0.38
1.4161801075963845
% es.Ez (V/m) @ t=0.38
-5.187547306326371
% es.tEx (V/m) @ t=0.38
4.735858306648687
% es.tEy (V/m) @ t=0.38
0
% es.tEz (V/m) @ t=0.38
-5.18754730632636
% V (V) @ t=0.38
0.006392564251023533
% es.normE (V/m) @ t=0.4
7.53332360089818
% es.EX (V/m) @ t=0.4
4.780615680420621
% es.EY (V/m) @ t=0.4
1.4295628102397202
% es.EZ (V/m) @ t=0.4
-5.236580093995985
% es.tEX (V/m) @ t=0.4
4.780615680420619
% es.tEY (V/m) @ t=0.4
0
% es.tEZ (V/m) @ t=0.4
-5.23658009399597
% es.Ex (V/m) @ t=0.4
4.780615680420621
% es.Ey (V/m) @ t=0.4
1.4295628102397202
% es.Ez (V/m) @ t=0.4
-5.236580093995985
% es.tEx (V/m) @ t=0.4
4.780615680420619
% es.tEy (V/m) @ t=0.4
0
% es.tEz (V/m) @ t=0.4
-5.23658009399597
% V (V) @ t=0.4
0.006453001982963566
% es.normE (V/m) @ t=0.42
7.603858754120193
% es.EX (V/m) @ t=0.42
4.825373054192549
% es.EY (V/m) @ t=0.42
1.4429455128830702
% es.EZ (V/m) @ t=0.42
-5.285612881665592
% es.tEX (V/m) @ t=0.42
4.825373054192539
% es.tEY (V/m) @ t=0.42
0
% es.tEZ (V/m) @ t=0.42
-5.285612881665581
% es.Ex (V/m) @ t=0.42
4.825373054192549
% es.Ey (V/m) @ t=0.42
1.4429455128830702
% es.Ez (V/m) @ t=0.42
-5.285612881665592
% es.tEx (V/m) @ t=0.42
4.825373054192539
% es.tEy (V/m) @ t=0.42
0
% es.tEz (V/m) @ t=0.42
-5.285612881665581
% V (V) @ t=0.42
0.006513439714903597
% es.normE (V/m) @ t=0.44
7.6743939073489855
% es.EX (V/m) @ t=0.44
4.87013042796447
% es.EY (V/m) @ t=0.44
1.4563282155264163
% es.EZ (V/m) @ t=0.44
-5.334645669335206
% es.tEX (V/m) @ t=0.44
4.87013042796446
% es.tEY (V/m) @ t=0.44
0
% es.tEZ (V/m) @ t=0.44
-5.334645669335195
% es.Ex (V/m) @ t=0.44
4.87013042796447
% es.Ey (V/m) @ t=0.44
1.4563282155264163
% es.Ez (V/m) @ t=0.44
-5.334645669335206
% es.tEx (V/m) @ t=0.44
4.87013042796446
% es.tEy (V/m) @ t=0.44
0
% es.tEz (V/m) @ t=0.44
-5.334645669335195
% V (V) @ t=0.44
0.006573877446843629
% es.normE (V/m) @ t=0.46
7.744929060584381
% es.EX (V/m) @ t=0.46
4.914887801736409
% es.EY (V/m) @ t=0.46
1.4697109181697754
% es.EZ (V/m) @ t=0.46
-5.383678457004809
% es.tEX (V/m) @ t=0.46
4.914887801736391
% es.tEY (V/m) @ t=0.46
0
% es.tEZ (V/m) @ t=0.46
-5.383678457004795
% es.Ex (V/m) @ t=0.46
4.914887801736409
% es.Ey (V/m) @ t=0.46
1.4697109181697754
% es.Ez (V/m) @ t=0.46
-5.383678457004809
% es.tEx (V/m) @ t=0.46
4.914887801736391
% es.tEy (V/m) @ t=0.46
0
% es.tEz (V/m) @ t=0.46
-5.383678457004795
% V (V) @ t=0.46
0.00663431517878366
% es.normE (V/m) @ t=0.48
7.81546421382618
% es.EX (V/m) @ t=0.48
4.959645175508337
% es.EY (V/m) @ t=0.48
1.4830936208131342
% es.EZ (V/m) @ t=0.48
-5.432711244674426
% es.tEX (V/m) @ t=0.48
4.959645175508319
% es.tEY (V/m) @ t=0.48
0
% es.tEZ (V/m) @ t=0.48
-5.432711244674415
% es.Ex (V/m) @ t=0.48
4.959645175508337
% es.Ey (V/m) @ t=0.48
1.4830936208131342
% es.Ez (V/m) @ t=0.48
-5.432711244674426
% es.tEx (V/m) @ t=0.48
4.959645175508319
% es.tEy (V/m) @ t=0.48
0
% es.tEz (V/m) @ t=0.48
-5.432711244674415
% V (V) @ t=0.48
0.006694752910723693
% es.normE (V/m) @ t=0.5
7.885999367074211
% es.EX (V/m) @ t=0.5
5.004402549280262
% es.EY (V/m) @ t=0.5
1.4964763234564735
% es.EZ (V/m) @ t=0.5
-5.48174403234403
% es.tEX (V/m) @ t=0.5
5.0044025492802575
% es.tEY (V/m) @ t=0.5
0
% es.tEZ (V/m) @ t=0.5
-5.481744032344019
% es.Ex (V/m) @ t=0.5
5.004402549280262
% es.Ey (V/m) @ t=0.5
1.4964763234564735
% es.Ez (V/m) @ t=0.5
-5.48174403234403
% es.tEx (V/m) @ t=0.5
5.0044025492802575
% es.tEy (V/m) @ t=0.5
0
% es.tEz (V/m) @ t=0.5
-5.481744032344019
% V (V) @ t=0.5
0.006755190642663725
% es.normE (V/m) @ t=0.52
7.956534520328329
% es.EX (V/m) @ t=0.52
5.049159923052191
% es.EY (V/m) @ t=0.52
1.5098590260998093
% es.EZ (V/m) @ t=0.52
-5.530776820013644
% es.tEX (V/m) @ t=0.52
5.049159923052175
% es.tEY (V/m) @ t=0.52
0
% es.tEZ (V/m) @ t=0.52
-5.530776820013629
% es.Ex (V/m) @ t=0.52
5.049159923052191
% es.Ey (V/m) @ t=0.52
1.5098590260998093
% es.Ez (V/m) @ t=0.52
-5.530776820013644
% es.tEx (V/m) @ t=0.52
5.049159923052175
% es.tEy (V/m) @ t=0.52
0
% es.tEz (V/m) @ t=0.52
-5.530776820013629
% V (V) @ t=0.52
0.006815628374603756
% es.normE (V/m) @ t=0.54
8.027069673588365
% es.EX (V/m) @ t=0.54
5.0939172968241335
% es.EY (V/m) @ t=0.54
1.5232417287431572
% es.EZ (V/m) @ t=0.54
-5.57980960768325
% es.tEX (V/m) @ t=0.54
5.093917296824117
% es.tEY (V/m) @ t=0.54
0
% es.tEZ (V/m) @ t=0.54
-5.579809607683236
% es.Ex (V/m) @ t=0.54
5.0939172968241335
% es.Ey (V/m) @ t=0.54
1.5232417287431572
% es.Ez (V/m) @ t=0.54
-5.57980960768325
% es.tEx (V/m) @ t=0.54
5.093917296824117
% es.tEy (V/m) @ t=0.54
0
% es.tEz (V/m) @ t=0.54
-5.579809607683236
% V (V) @ t=0.54
0.006876066106543788
% es.normE (V/m) @ t=0.56
8.10341733735801
% es.EX (V/m) @ t=0.56
5.142371614960766
% es.EY (V/m) @ t=0.56
1.5377325656192218
% es.EZ (V/m) @ t=0.56
-5.63287805243816
% es.tEX (V/m) @ t=0.56
5.142371614960757
% es.tEY (V/m) @ t=0.56
0
% es.tEZ (V/m) @ t=0.56
-5.632878052438146
% es.Ex (V/m) @ t=0.56
5.142371614960766
% es.Ey (V/m) @ t=0.56
1.5377325656192218
% es.Ez (V/m) @ t=0.56
-5.63287805243816
% es.tEx (V/m) @ t=0.56
5.142371614960757
% es.tEy (V/m) @ t=0.56
0
% es.tEz (V/m) @ t=0.56
-5.632878052438146
% V (V) @ t=0.56
0.006941445241167518
% es.normE (V/m) @ t=0.58
8.182118448963553
% es.EX (V/m) @ t=0.58
5.192322801898107
% es.EY (V/m) @ t=0.58
1.5526720788604524
% es.EZ (V/m) @ t=0.58
-5.68758050857797
% es.tEX (V/m) @ t=0.58
5.192322801898097
% es.tEY (V/m) @ t=0.58
0
% es.tEZ (V/m) @ t=0.58
-5.687580508577955
% es.Ex (V/m) @ t=0.58
5.192322801898107
% es.Ey (V/m) @ t=0.58
1.5526720788604524
% es.Ez (V/m) @ t=0.58
-5.68758050857797
% es.tEx (V/m) @ t=0.58
5.192322801898097
% es.tEy (V/m) @ t=0.58
0
% es.tEz (V/m) @ t=0.58
-5.687580508577955
% V (V) @ t=0.58
0.007008825117695701
% es.normE (V/m) @ t=0.6
8.260819560595172
% es.EX (V/m) @ t=0.6
5.242273988835454
% es.EY (V/m) @ t=0.6
1.5676115921017078
% es.EZ (V/m) @ t=0.6
-5.742282964717786
% es.tEX (V/m) @ t=0.6
5.242273988835445
% es.tEY (V/m) @ t=0.6
0
% es.tEZ (V/m) @ t=0.6
-5.742282964717775
% es.Ex (V/m) @ t=0.6
5.242273988835454
% es.Ey (V/m) @ t=0.6
1.5676115921017078
% es.Ez (V/m) @ t=0.6
-5.742282964717786
% es.tEx (V/m) @ t=0.6
5.242273988835445
% es.tEy (V/m) @ t=0.6
0
% es.tEz (V/m) @ t=0.6
-5.742282964717775
% V (V) @ t=0.6
0.007076204994223883
% es.normE (V/m) @ t=0.62
8.339520672252098
% es.EX (V/m) @ t=0.62
5.292225175772792
% es.EY (V/m) @ t=0.62
1.582551105342959
% es.EZ (V/m) @ t=0.62
-5.796985420857599
% es.tEX (V/m) @ t=0.62
5.292225175772783
% es.tEY (V/m) @ t=0.62
0
% es.tEZ (V/m) @ t=0.62
-5.796985420857585
% es.Ex (V/m) @ t=0.62
5.292225175772792
% es.Ey (V/m) @ t=0.62
1.582551105342959
% es.Ez (V/m) @ t=0.62
-5.796985420857599
% es.tEx (V/m) @ t=0.62
5.292225175772783
% es.tEy (V/m) @ t=0.62
0
% es.tEz (V/m) @ t=0.62
-5.796985420857585
% V (V) @ t=0.62
0.007143584870752066
% es.normE (V/m) @ t=0.64
8.418221783933628
% es.EX (V/m) @ t=0.64
5.34217636271013
% es.EY (V/m) @ t=0.64
1.597490618584204
% es.EZ (V/m) @ t=0.64
-5.851687876997426
% es.tEX (V/m) @ t=0.64
5.342176362710116
% es.tEY (V/m) @ t=0.64
0
% es.tEZ (V/m) @ t=0.64
-5.851687876997412
% es.Ex (V/m) @ t=0.64
5.34217636271013
% es.Ey (V/m) @ t=0.64
1.597490618584204
% es.Ez (V/m) @ t=0.64
-5.851687876997426
% es.tEx (V/m) @ t=0.64
5.342176362710116
% es.tEy (V/m) @ t=0.64
0
% es.tEz (V/m) @ t=0.64
-5.851687876997412
% V (V) @ t=0.64
0.0072109647472802475
% es.normE (V/m) @ t=0.66
8.496922895639077
% es.EX (V/m) @ t=0.66
5.392127549647467
% es.EY (V/m) @ t=0.66
1.6124301318254552
% es.EZ (V/m) @ t=0.66
-5.906390333137239
% es.tEX (V/m) @ t=0.66
5.392127549647455
% es.tEY (V/m) @ t=0.66
0
% es.tEZ (V/m) @ t=0.66
-5.906390333137217
% es.Ex (V/m) @ t=0.66
5.392127549647467
% es.Ey (V/m) @ t=0.66
1.6124301318254552
% es.Ez (V/m) @ t=0.66
-5.906390333137239
% es.tEx (V/m) @ t=0.66
5.392127549647455
% es.tEy (V/m) @ t=0.66
0
% es.tEz (V/m) @ t=0.66
-5.906390333137217
% V (V) @ t=0.66
0.00727834462380843
% es.normE (V/m) @ t=0.68
8.575624007367775
% es.EX (V/m) @ t=0.68
5.442078736584808
% es.EY (V/m) @ t=0.68
1.6273696450666857
% es.EZ (V/m) @ t=0.68
-5.961092789277034
% es.tEX (V/m) @ t=0.68
5.442078736584795
% es.tEY (V/m) @ t=0.68
0
% es.tEZ (V/m) @ t=0.68
-5.961092789277027
% es.Ex (V/m) @ t=0.68
5.442078736584808
% es.Ey (V/m) @ t=0.68
1.6273696450666857
% es.Ez (V/m) @ t=0.68
-5.961092789277034
% es.tEx (V/m) @ t=0.68
5.442078736584795
% es.tEy (V/m) @ t=0.68
0
% es.tEz (V/m) @ t=0.68
-5.961092789277027
% V (V) @ t=0.68
0.007345724500336612
% es.normE (V/m) @ t=0.7
8.654325119119129
% es.EX (V/m) @ t=0.7
5.492029923522161
% es.EY (V/m) @ t=0.7
1.642309158307973
% es.EZ (V/m) @ t=0.7
-6.015795245416847
% es.tEX (V/m) @ t=0.7
5.492029923522155
% es.tEY (V/m) @ t=0.7
0
% es.tEZ (V/m) @ t=0.7
-6.0157952454168395
% es.Ex (V/m) @ t=0.7
5.492029923522161
% es.Ey (V/m) @ t=0.7
1.642309158307973
% es.Ez (V/m) @ t=0.7
-6.015795245416847
% es.tEx (V/m) @ t=0.7
5.492029923522155
% es.tEy (V/m) @ t=0.7
0
% es.tEz (V/m) @ t=0.7
-6.0157952454168395
% V (V) @ t=0.7
0.007413104376864793
% es.normE (V/m) @ t=0.72
8.733026230892488
% es.EX (V/m) @ t=0.72
5.54198111045949
% es.EY (V/m) @ t=0.72
1.657248671549203
% es.EZ (V/m) @ t=0.72
-6.070497701556674
% es.tEX (V/m) @ t=0.72
5.541981110459481
% es.tEY (V/m) @ t=0.72
0
% es.tEZ (V/m) @ t=0.72
-6.070497701556667
% es.Ex (V/m) @ t=0.72
5.54198111045949
% es.Ey (V/m) @ t=0.72
1.657248671549203
% es.Ez (V/m) @ t=0.72
-6.070497701556674
% es.tEx (V/m) @ t=0.72
5.541981110459481
% es.tEy (V/m) @ t=0.72
0
% es.tEz (V/m) @ t=0.72
-6.070497701556667
% V (V) @ t=0.72
0.007480484253392975
% es.normE (V/m) @ t=0.74
8.811727342687274
% es.EX (V/m) @ t=0.74
5.591932297396822
% es.EY (V/m) @ t=0.74
1.672188184790469
% es.EZ (V/m) @ t=0.74
-6.1252001576964945
% es.tEX (V/m) @ t=0.74
5.591932297396808
% es.tEY (V/m) @ t=0.74
0
% es.tEZ (V/m) @ t=0.74
-6.125200157696479
% es.Ex (V/m) @ t=0.74
5.591932297396822
% es.Ey (V/m) @ t=0.74
1.672188184790469
% es.Ez (V/m) @ t=0.74
-6.1252001576964945
% es.tEx (V/m) @ t=0.74
5.591932297396808
% es.tEy (V/m) @ t=0.74
0
% es.tEz (V/m) @ t=0.74
-6.125200157696479
% V (V) @ t=0.74
0.007547864129921156
% es.normE (V/m) @ t=0.76
8.89042845450291
% es.EX (V/m) @ t=0.76
5.64188348433417
% es.EY (V/m) @ t=0.76
1.6871276980317242
% es.EZ (V/m) @ t=0.76
-6.179902613836293
% es.tEX (V/m) @ t=0.76
5.64188348433416
% es.tEY (V/m) @ t=0.76
0
% es.tEZ (V/m) @ t=0.76
-6.179902613836279
% es.Ex (V/m) @ t=0.76
5.64188348433417
% es.Ey (V/m) @ t=0.76
1.6871276980317242
% es.Ez (V/m) @ t=0.76
-6.179902613836293
% es.tEx (V/m) @ t=0.76
5.64188348433416
% es.tEy (V/m) @ t=0.76
0
% es.tEz (V/m) @ t=0.76
-6.179902613836279
% V (V) @ t=0.76
0.0076152440064493395
% es.normE (V/m) @ t=0.78
8.969129566338857
% es.EX (V/m) @ t=0.78
5.691834671271507
% es.EY (V/m) @ t=0.78
1.7020672112729542
% es.EZ (V/m) @ t=0.78
-6.2346050699761095
% es.tEX (V/m) @ t=0.78
5.69183467127149
% es.tEY (V/m) @ t=0.78
0
% es.tEZ (V/m) @ t=0.78
-6.234605069976094
% es.Ex (V/m) @ t=0.78
5.691834671271507
% es.Ey (V/m) @ t=0.78
1.7020672112729542
% es.Ez (V/m) @ t=0.78
-6.2346050699761095
% es.tEx (V/m) @ t=0.78
5.69183467127149
% es.tEy (V/m) @ t=0.78
0
% es.tEz (V/m) @ t=0.78
-6.234605069976094
% V (V) @ t=0.78
0.0076826238829775205
% es.normE (V/m) @ t=0.8
9.047830678194586
% es.EX (V/m) @ t=0.8
5.741785858208859
% es.EY (V/m) @ t=0.8
1.7170067245141922
% es.EZ (V/m) @ t=0.8
-6.289307526115915
% es.tEX (V/m) @ t=0.8
5.741785858208849
% es.tEY (V/m) @ t=0.8
0
% es.tEZ (V/m) @ t=0.8
-6.289307526115907
% es.Ex (V/m) @ t=0.8
5.741785858208859
% es.Ey (V/m) @ t=0.8
1.7170067245141922
% es.Ez (V/m) @ t=0.8
-6.289307526115915
% es.tEx (V/m) @ t=0.8
5.741785858208849
% es.tEy (V/m) @ t=0.8
0
% es.tEz (V/m) @ t=0.8
-6.289307526115907
% V (V) @ t=0.8
0.007750003759505702
% es.normE (V/m) @ t=0.82
9.12721288292338
% es.EX (V/m) @ t=0.82
5.792168199337098
% es.EY (V/m) @ t=0.82
1.7320748322476547
% es.EZ (V/m) @ t=0.82
-6.344484030290699
% es.tEX (V/m) @ t=0.82
5.792168199337085
% es.tEY (V/m) @ t=0.82
0
% es.tEZ (V/m) @ t=0.82
-6.344484030290684
% es.Ex (V/m) @ t=0.82
5.792168199337098
% es.Ey (V/m) @ t=0.82
1.7320748322476547
% es.Ez (V/m) @ t=0.82
-6.344484030290699
% es.tEx (V/m) @ t=0.82
5.792168199337085
% es.tEy (V/m) @ t=0.82
0
% es.tEz (V/m) @ t=0.82
-6.344484030290684
% V (V) @ t=0.82
0.007817971845460526
% es.normE (V/m) @ t=0.84
9.215283647182545
% es.EX (V/m) @ t=0.84
5.84805068457179
% es.EY (V/m) @ t=0.84
1.7487833931028476
% es.EZ (V/m) @ t=0.84
-6.4057078663960425
% es.tEX (V/m) @ t=0.84
5.848050684571785
% es.tEY (V/m) @ t=0.84
0
% es.tEZ (V/m) @ t=0.84
-6.4057078663960345
% es.Ex (V/m) @ t=0.84
5.84805068457179
% es.Ey (V/m) @ t=0.84
1.7487833931028476
% es.Ez (V/m) @ t=0.84
-6.4057078663960425
% es.tEx (V/m) @ t=0.84
5.848050684571785
% es.tEy (V/m) @ t=0.84
0
% es.tEz (V/m) @ t=0.84
-6.4057078663960345
% V (V) @ t=0.84
0.007893443596414121
% es.normE (V/m) @ t=0.86
9.30335441146251
% es.EX (V/m) @ t=0.86
5.903933169806496
% es.EY (V/m) @ t=0.86
1.765491953958044
% es.EZ (V/m) @ t=0.86
-6.466931702501381
% es.tEX (V/m) @ t=0.86
5.90393316980648
% es.tEY (V/m) @ t=0.86
0
% es.tEZ (V/m) @ t=0.86
-6.466931702501367
% es.Ex (V/m) @ t=0.86
5.903933169806496
% es.Ey (V/m) @ t=0.86
1.765491953958044
% es.Ez (V/m) @ t=0.86
-6.466931702501381
% es.tEx (V/m) @ t=0.86
5.90393316980648
% es.tEy (V/m) @ t=0.86
0
% es.tEz (V/m) @ t=0.86
-6.466931702501367
% V (V) @ t=0.86
0.007968915347367713
% es.normE (V/m) @ t=0.88
9.391425175762684
% es.EX (V/m) @ t=0.88
5.95981565504121
% es.EY (V/m) @ t=0.88
1.7822005148131943
% es.EZ (V/m) @ t=0.88
-6.528155538606721
% es.tEX (V/m) @ t=0.88
5.9598156550411865
% es.tEY (V/m) @ t=0.88
0
% es.tEZ (V/m) @ t=0.88
-6.528155538606713
% es.Ex (V/m) @ t=0.88
5.95981565504121
% es.Ey (V/m) @ t=0.88
1.7822005148131943
% es.Ez (V/m) @ t=0.88
-6.528155538606721
% es.tEx (V/m) @ t=0.88
5.9598156550411865
% es.tEy (V/m) @ t=0.88
0
% es.tEz (V/m) @ t=0.88
-6.528155538606713
% V (V) @ t=0.88
0.008044387098321308
% es.normE (V/m) @ t=0.9
9.4794959400825
% es.EX (V/m) @ t=0.9
6.015698140275904
% es.EY (V/m) @ t=0.9
1.7989090756683943
% es.EZ (V/m) @ t=0.9
-6.5893793747120775
% es.tEX (V/m) @ t=0.9
6.015698140275896
% es.tEY (V/m) @ t=0.9
0
% es.tEZ (V/m) @ t=0.9
-6.589379374712063
% es.Ex (V/m) @ t=0.9
6.015698140275904
% es.Ey (V/m) @ t=0.9
1.7989090756683943
% es.Ez (V/m) @ t=0.9
-6.5893793747120775
% es.tEx (V/m) @ t=0.9
6.015698140275896
% es.tEy (V/m) @ t=0.9
0
% es.tEz (V/m) @ t=0.9
-6.589379374712063
% V (V) @ t=0.9
0.008119858849274903
% es.normE (V/m) @ t=0.92
9.56756670442142
% es.EX (V/m) @ t=0.92
6.071580625510598
% es.EY (V/m) @ t=0.92
1.8156176365235979
% es.EZ (V/m) @ t=0.92
-6.650603210817428
% es.tEX (V/m) @ t=0.92
6.071580625510588
% es.tEY (V/m) @ t=0.92
0
% es.tEZ (V/m) @ t=0.92
-6.650603210817414
% es.Ex (V/m) @ t=0.92
6.071580625510598
% es.Ey (V/m) @ t=0.92
1.8156176365235979
% es.Ez (V/m) @ t=0.92
-6.650603210817428
% es.tEx (V/m) @ t=0.92
6.071580625510588
% es.tEy (V/m) @ t=0.92
0
% es.tEz (V/m) @ t=0.92
-6.650603210817414
% V (V) @ t=0.92
0.008195330600228494
% es.normE (V/m) @ t=0.94
9.655637468778922
% es.EX (V/m) @ t=0.94
6.127463110745312
% es.EY (V/m) @ t=0.94
1.8323261973787908
% es.EZ (V/m) @ t=0.94
-6.711827046922789
% es.tEX (V/m) @ t=0.94
6.127463110745298
% es.tEY (V/m) @ t=0.94
0
% es.tEZ (V/m) @ t=0.94
-6.7118270469227665
% es.Ex (V/m) @ t=0.94
6.127463110745312
% es.Ey (V/m) @ t=0.94
1.8323261973787908
% es.Ez (V/m) @ t=0.94
-6.711827046922789
% es.tEx (V/m) @ t=0.94
6.127463110745298
% es.tEy (V/m) @ t=0.94
0
% es.tEz (V/m) @ t=0.94
-6.7118270469227665
% V (V) @ t=0.94
0.008270802351182091
% es.normE (V/m) @ t=0.96
9.743708233154496
% es.EX (V/m) @ t=0.96
6.183345595980013
% es.EY (V/m) @ t=0.96
1.849034758233973
% es.EZ (V/m) @ t=0.96
-6.773050883028132
% es.tEX (V/m) @ t=0.96
6.183345595979998
% es.tEY (V/m) @ t=0.96
0
% es.tEZ (V/m) @ t=0.96
-6.773050883028117
% es.Ex (V/m) @ t=0.96
6.183345595980013
% es.Ey (V/m) @ t=0.96
1.849034758233973
% es.Ez (V/m) @ t=0.96
-6.773050883028132
% es.tEx (V/m) @ t=0.96
6.183345595979998
% es.tEy (V/m) @ t=0.96
0
% es.tEz (V/m) @ t=0.96
-6.773050883028117
% V (V) @ t=0.96
0.008346274102135683
% es.normE (V/m) @ t=0.98
9.831778997547651
% es.EX (V/m) @ t=0.98
6.239228081214712
% es.EY (V/m) @ t=0.98
1.8657433190891552
% es.EZ (V/m) @ t=0.98
-6.834274719133481
% es.tEX (V/m) @ t=0.98
6.239228081214697
% es.tEY (V/m) @ t=0.98
0
% es.tEZ (V/m) @ t=0.98
-6.83427471913346
% es.Ex (V/m) @ t=0.98
6.239228081214712
% es.Ey (V/m) @ t=0.98
1.8657433190891552
% es.Ez (V/m) @ t=0.98
-6.834274719133481
% es.tEx (V/m) @ t=0.98
6.239228081214697
% es.tEy (V/m) @ t=0.98
0
% es.tEz (V/m) @ t=0.98
-6.83427471913346
% V (V) @ t=0.98
0.008421745853089278
% es.normE (V/m) @ t=1
9.919849761957932
% es.EX (V/m) @ t=1
6.295110566449408
% es.EY (V/m) @ t=1
1.8824518799443375
% es.EZ (V/m) @ t=1
-6.895498555238832
% es.tEX (V/m) @ t=1
6.29511056644939
% es.tEY (V/m) @ t=1
0
% es.tEZ (V/m) @ t=1
-6.895498555238817
% es.Ex (V/m) @ t=1
6.295110566449408
% es.Ey (V/m) @ t=1
1.8824518799443375
% es.Ez (V/m) @ t=1
-6.895498555238832
% es.tEx (V/m) @ t=1
6.29511056644939
% es.tEy (V/m) @ t=1
0
% es.tEz (V/m) @ t=1
-6.895498555238817
% V (V) @ t=1
0.008497217604042871
% es.normE (V/m) @ t=1.02
10.007920526384869
% es.EX (V/m) @ t=1.02
6.350993051684107
% es.EY (V/m) @ t=1.02
1.8991604407995268
% es.EZ (V/m) @ t=1.02
-6.956722391344174
% es.tEX (V/m) @ t=1.02
6.350993051684103
% es.tEY (V/m) @ t=1.02
0
% es.tEZ (V/m) @ t=1.02
-6.95672239134416
% es.Ex (V/m) @ t=1.02
6.350993051684107
% es.Ey (V/m) @ t=1.02
1.8991604407995268
% es.Ez (V/m) @ t=1.02
-6.956722391344174
% es.tEx (V/m) @ t=1.02
6.350993051684103
% es.tEy (V/m) @ t=1.02
0
% es.tEz (V/m) @ t=1.02
-6.95672239134416
% V (V) @ t=1.02
0.008572689354996466
% es.normE (V/m) @ t=1.04
10.095991290828058
% es.EX (V/m) @ t=1.04
6.406875536918834
% es.EY (V/m) @ t=1.04
1.915869001654702
% es.EZ (V/m) @ t=1.04
-7.017946227449514
% es.tEX (V/m) @ t=1.04
6.4068755369188235
% es.tEY (V/m) @ t=1.04
0
% es.tEZ (V/m) @ t=1.04
-7.0179462274494995
% es.Ex (V/m) @ t=1.04
6.406875536918834
% es.Ey (V/m) @ t=1.04
1.915869001654702
% es.Ez (V/m) @ t=1.04
-7.017946227449514
% es.tEx (V/m) @ t=1.04
6.4068755369188235
% es.tEy (V/m) @ t=1.04
0
% es.tEz (V/m) @ t=1.04
-7.0179462274494995
% V (V) @ t=1.04
0.008648161105950061
% es.normE (V/m) @ t=1.06
10.184062055287049
% es.EX (V/m) @ t=1.06
6.46275802215353
% es.EY (V/m) @ t=1.06
1.9325775625099055