% Model:              1 neuron.mph
% Version:            COMSOL 6.0.0.405
% Date:               Mar 16 2023, 10:05
% Dimension:          0
% Nodes:              14017
% Expressions:        14017
% Description:        Electric field norm, Electric field, X component, Electric field, Y component, Electric field, Z component, Tangential electric field, X component, Tangential electric field, Y component, Tangential electric field, Z component, Electric field, x component, Electric field, y component, Electric field, z component, Tangential electric field, x component, Tangential electric field, y component, Tangential electric field, z component, Electric potential
% Length unit:        mm
% x
1.66
% y
12.2
% z
2
% es.normE (V/m) @ t=0
1.4562324895387866
% es.EX (V/m) @ t=0
-0.43442486715921946
% es.EY (V/m) @ t=0
0.032449321760539974
% es.EZ (V/m) @ t=0
-1.3872067845747047
% es.tEX (V/m) @ t=0
-0.43442486715922257
% es.tEY (V/m) @ t=0
0
% es.tEZ (V/m) @ t=0
-1.3872067845747198
% es.Ex (V/m) @ t=0
-0.43442486715921946
% es.Ey (V/m) @ t=0
0.032449321760539974
% es.Ez (V/m) @ t=0
-1.3872067845747047
% es.tEx (V/m) @ t=0
-0.43442486715922257
% es.tEy (V/m) @ t=0
0
% es.tEz (V/m) @ t=0
-1.3872067845747198
% V (V) @ t=0
0.0073196358086866295
% es.normE (V/m) @ t=0.02
1.2577765344124363
% es.EX (V/m) @ t=0.02
-0.37522127011648443
% es.EY (V/m) @ t=0.02
0.028027115610766568
% es.EZ (V/m) @ t=0.02
-1.1981576804217169
% es.tEX (V/m) @ t=0.02
-0.3752212701164872
% es.tEY (V/m) @ t=0.02
0
% es.tEZ (V/m) @ t=0.02
-1.1981576804217293
% es.Ex (V/m) @ t=0.02
-0.37522127011648443
% es.Ey (V/m) @ t=0.02
0.028027115610766568
% es.Ez (V/m) @ t=0.02
-1.1981576804217169
% es.tEx (V/m) @ t=0.02
-0.3752212701164872
% es.tEy (V/m) @ t=0.02
0
% es.tEz (V/m) @ t=0.02
-1.1981576804217293
% V (V) @ t=0.02
0.0063221128450010045
% es.normE (V/m) @ t=0.04
1.2693460747415362
% es.EX (V/m) @ t=0.04
-0.3786727087388586
% es.EY (V/m) @ t=0.04
0.02828492185101595
% es.EZ (V/m) @ t=0.04
-1.2091788219535426
% es.tEX (V/m) @ t=0.04
-0.3786727087388613
% es.tEY (V/m) @ t=0.04
0
% es.tEZ (V/m) @ t=0.04
-1.2091788219535582
% es.Ex (V/m) @ t=0.04
-0.3786727087388586
% es.Ey (V/m) @ t=0.04
0.02828492185101595
% es.Ez (V/m) @ t=0.04
-1.2091788219535426
% es.tEx (V/m) @ t=0.04
-0.3786727087388613
% es.tEy (V/m) @ t=0.04
0
% es.tEz (V/m) @ t=0.04
-1.2091788219535582
% V (V) @ t=0.04
0.006380266156892796
% es.normE (V/m) @ t=0.06
1.2810208377972299
% es.EX (V/m) @ t=0.06
-0.38215553482221326
% es.EY (V/m) @ t=0.06
0.028545067417758217
% es.EZ (V/m) @ t=0.06
-1.2203001998484027
% es.tEX (V/m) @ t=0.06
-0.3821555348222141
% es.tEY (V/m) @ t=0.06
0
% es.tEZ (V/m) @ t=0.06
-1.2203001998484102
% es.Ex (V/m) @ t=0.06
-0.38215553482221326
% es.Ey (V/m) @ t=0.06
0.028545067417758217
% es.Ez (V/m) @ t=0.06
-1.2203001998484027
% es.tEx (V/m) @ t=0.06
-0.3821555348222141
% es.tEy (V/m) @ t=0.06
0
% es.tEz (V/m) @ t=0.06
-1.2203001998484102
% V (V) @ t=0.06
0.006438948566690365
% es.normE (V/m) @ t=0.08
1.2928716636302338
% es.EX (V/m) @ t=0.08
-0.3856908851957075
% es.EY (V/m) @ t=0.08
0.02880913828251328
% es.EZ (V/m) @ t=0.08
-1.231589294638205
% es.tEX (V/m) @ t=0.08
-0.3856908851957144
% es.tEY (V/m) @ t=0.08
0
% es.tEZ (V/m) @ t=0.08
-1.231589294638213
% es.Ex (V/m) @ t=0.08
-0.3856908851957075
% es.Ey (V/m) @ t=0.08
0.02880913828251328
% es.Ez (V/m) @ t=0.08
-1.231589294638205
% es.tEx (V/m) @ t=0.08
-0.3856908851957144
% es.tEy (V/m) @ t=0.08
0
% es.tEz (V/m) @ t=0.08
-1.231589294638213
% V (V) @ t=0.08
0.0064985158626249245
% es.normE (V/m) @ t=0.1
1.3048492562344407
% es.EX (V/m) @ t=0.1
-0.3892640535269446
% es.EY (V/m) @ t=0.1
0.02907603539686554
% es.EZ (V/m) @ t=0.1
-1.2429991470894084
% es.tEX (V/m) @ t=0.1
-0.3892640535269436
% es.tEY (V/m) @ t=0.1
0
% es.tEZ (V/m) @ t=0.1
-1.2429991470894226
% es.Ex (V/m) @ t=0.1
-0.3892640535269446
% es.Ey (V/m) @ t=0.1
0.02907603539686554
% es.Ez (V/m) @ t=0.1
-1.2429991470894084
% es.tEx (V/m) @ t=0.1
-0.3892640535269436
% es.tEy (V/m) @ t=0.1
0
% es.tEz (V/m) @ t=0.1
-1.2429991470894226
% V (V) @ t=0.1
0.006558720284476451
% es.normE (V/m) @ t=0.12
1.3168268488386472
% es.EX (V/m) @ t=0.12
-0.39283722185817915
% es.EY (V/m) @ t=0.12
0.02934293251123033
% es.EZ (V/m) @ t=0.12
-1.2544089995406122
% es.tEX (V/m) @ t=0.12
-0.39283722185817993
% es.tEY (V/m) @ t=0.12
0
% es.tEZ (V/m) @ t=0.12
-1.2544089995406233
% es.Ex (V/m) @ t=0.12
-0.39283722185817915
% es.Ey (V/m) @ t=0.12
0.02934293251123033
% es.Ez (V/m) @ t=0.12
-1.2544089995406122
% es.tEx (V/m) @ t=0.12
-0.39283722185817993
% es.tEy (V/m) @ t=0.12
0
% es.tEz (V/m) @ t=0.12
-1.2544089995406233
% V (V) @ t=0.12
0.006618924706327975
% es.normE (V/m) @ t=0.14
1.3289151472701226
% es.EX (V/m) @ t=0.14
-0.39644341779886993
% es.EY (V/m) @ t=0.14
0.029612299851011277
% es.EZ (V/m) @ t=0.14
-1.2659243095686743
% es.tEX (V/m) @ t=0.14
-0.3964434177988707
% es.tEY (V/m) @ t=0.14
0
% es.tEZ (V/m) @ t=0.14
-1.2659243095686845
% es.Ex (V/m) @ t=0.14
-0.39644341779886993
% es.Ey (V/m) @ t=0.14
0.029612299851011277
% es.Ez (V/m) @ t=0.14
-1.2659243095686743
% es.tEx (V/m) @ t=0.14
-0.3964434177988707
% es.tEy (V/m) @ t=0.14
0
% es.tEz (V/m) @ t=0.14
-1.2659243095686845
% V (V) @ t=0.14
0.00667968545406443
% es.normE (V/m) @ t=0.16
1.3415335066551553
% es.EX (V/m) @ t=0.16
-0.4002077503670337
% es.EY (V/m) @ t=0.16
0.029893494662538295
% es.EZ (V/m) @ t=0.16
-1.2779445518584578
% es.tEX (V/m) @ t=0.16
-0.40020775036703427
% es.tEY (V/m) @ t=0.16
0
% es.tEZ (V/m) @ t=0.16
-1.2779445518584716
% es.Ex (V/m) @ t=0.16
-0.4002077503670337
% es.Ey (V/m) @ t=0.16
0.029893494662538295
% es.Ez (V/m) @ t=0.16
-1.2779445518584578
% es.tEx (V/m) @ t=0.16
-0.40020775036703427
% es.tEy (V/m) @ t=0.16
0
% es.tEz (V/m) @ t=0.16
-1.2779445518584716
% V (V) @ t=0.16
0.0067431098974374375
% es.normE (V/m) @ t=0.18
1.3541518660402128
% es.EX (V/m) @ t=0.18
-0.40397208293519915
% es.EY (V/m) @ t=0.18
0.030174689474060892
% es.EZ (V/m) @ t=0.18
-1.2899647941482666
% es.tEX (V/m) @ t=0.18
-0.40397208293520137
% es.tEY (V/m) @ t=0.18
0
% es.tEZ (V/m) @ t=0.18
-1.2899647941482728
% es.Ex (V/m) @ t=0.18
-0.40397208293519915
% es.Ey (V/m) @ t=0.18
0.030174689474060892
% es.Ez (V/m) @ t=0.18
-1.2899647941482666
% es.tEx (V/m) @ t=0.18
-0.40397208293520137
% es.tEy (V/m) @ t=0.18
0
% es.tEz (V/m) @ t=0.18
-1.2899647941482728
% V (V) @ t=0.18
0.0068065343408104445
% es.normE (V/m) @ t=0.2
1.3667702254252392
% es.EX (V/m) @ t=0.2
-0.4077364155033611
% es.EY (V/m) @ t=0.2
0.030455884285577155
% es.EZ (V/m) @ t=0.2
-1.301985036438043
% es.tEX (V/m) @ t=0.2
-0.4077364155033685
% es.tEY (V/m) @ t=0.2
0
% es.tEZ (V/m) @ t=0.2
-1.3019850364380607
% es.Ex (V/m) @ t=0.2
-0.4077364155033611
% es.Ey (V/m) @ t=0.2
0.030455884285577155
% es.Ez (V/m) @ t=0.2
-1.301985036438043
% es.tEx (V/m) @ t=0.2
-0.4077364155033685
% es.tEy (V/m) @ t=0.2
0
% es.tEz (V/m) @ t=0.2
-1.3019850364380607
% V (V) @ t=0.2
0.006869958784183453
% es.normE (V/m) @ t=0.22
1.3793885848102687
% es.EX (V/m) @ t=0.22
-0.4115007480715204
% es.EY (V/m) @ t=0.22
0.030737079097097976
% es.EZ (V/m) @ t=0.22
-1.3140052787278234
% es.tEX (V/m) @ t=0.22
-0.4115007480715249
% es.tEY (V/m) @ t=0.22
0
% es.tEZ (V/m) @ t=0.22
-1.3140052787278407
% es.Ex (V/m) @ t=0.22
-0.4115007480715204
% es.Ey (V/m) @ t=0.22
0.030737079097097976
% es.Ez (V/m) @ t=0.22
-1.3140052787278234
% es.tEx (V/m) @ t=0.22
-0.4115007480715249
% es.tEy (V/m) @ t=0.22
0
% es.tEz (V/m) @ t=0.22
-1.3140052787278407
% V (V) @ t=0.22
0.006933383227556461
% es.normE (V/m) @ t=0.24
1.392006944195317
% es.EX (V/m) @ t=0.24
-0.41526508063968504
% es.EY (V/m) @ t=0.24
0.03101827390861979
% es.EZ (V/m) @ t=0.24
-1.326025521017621
% es.tEX (V/m) @ t=0.24
-0.4152650806396849
% es.tEY (V/m) @ t=0.24
0
% es.tEZ (V/m) @ t=0.24
-1.3260255210176348
% es.Ex (V/m) @ t=0.24
-0.41526508063968504
% es.Ey (V/m) @ t=0.24
0.03101827390861979
% es.Ez (V/m) @ t=0.24
-1.326025521017621
% es.tEx (V/m) @ t=0.24
-0.4152650806396849
% es.tEy (V/m) @ t=0.24
0
% es.tEz (V/m) @ t=0.24
-1.3260255210176348
% V (V) @ t=0.24
0.006996807670929471
% es.normE (V/m) @ t=0.26
1.4046253035803569
% es.EX (V/m) @ t=0.26
-0.4190294132078505
% es.EY (V/m) @ t=0.26
0.03129946872013695
% es.EZ (V/m) @ t=0.26
-1.3380457633074085
% es.tEX (V/m) @ t=0.26
-0.41902941320785203
% es.tEY (V/m) @ t=0.26
0
% es.tEZ (V/m) @ t=0.26
-1.3380457633074148
% es.Ex (V/m) @ t=0.26
-0.4190294132078505
% es.Ey (V/m) @ t=0.26
0.03129946872013695
% es.Ez (V/m) @ t=0.26
-1.3380457633074085
% es.tEx (V/m) @ t=0.26
-0.41902941320785203
% es.tEy (V/m) @ t=0.26
0
% es.tEz (V/m) @ t=0.26
-1.3380457633074148
% V (V) @ t=0.26
0.007060232114302478
% es.normE (V/m) @ t=0.28
1.4177563899529648
% es.EX (V/m) @ t=0.28
-0.4229466993718457
% es.EY (V/m) @ t=0.28
0.03159208154676497
% es.EZ (V/m) @ t=0.28
-1.3505544308691877
% es.tEX (V/m) @ t=0.28
-0.4229466993718489
% es.tEY (V/m) @ t=0.28
0
% es.tEZ (V/m) @ t=0.28
-1.3505544308691988
% es.Ex (V/m) @ t=0.28
-0.4229466993718457
% es.Ey (V/m) @ t=0.28
0.03159208154676497
% es.Ez (V/m) @ t=0.28
-1.3505544308691877
% es.tEx (V/m) @ t=0.28
-0.4229466993718489
% es.tEy (V/m) @ t=0.28
0
% es.tEz (V/m) @ t=0.28
-1.3505544308691988
% V (V) @ t=0.28
0.007126234008389319
% es.normE (V/m) @ t=0.3
1.431816906105972
% es.EX (V/m) @ t=0.3
-0.42714124737387316
% es.EY (V/m) @ t=0.3
0.03190539202249752
% es.EZ (V/m) @ t=0.3
-1.3639484760379492
% es.tEX (V/m) @ t=0.3
-0.4271412473738785
% es.tEY (V/m) @ t=0.3
0
% es.tEZ (V/m) @ t=0.3
-1.3639484760379608
% es.Ex (V/m) @ t=0.3
-0.42714124737387316
% es.Ey (V/m) @ t=0.3
0.03190539202249752
% es.Ez (V/m) @ t=0.3
-1.3639484760379492
% es.tEx (V/m) @ t=0.3
-0.4271412473738785
% es.tEy (V/m) @ t=0.3
0
% es.tEz (V/m) @ t=0.3
-1.3639484760379608
% V (V) @ t=0.3
0.007196908095493187
% es.normE (V/m) @ t=0.32
1.445877422258992
% es.EX (V/m) @ t=0.32
-0.4313357953759086
% es.EY (V/m) @ t=0.32
0.03221870249822712
% es.EZ (V/m) @ t=0.32
-1.3773425212067205
% es.tEX (V/m) @ t=0.32
-0.4313357953759116
% es.tEY (V/m) @ t=0.32
0
% es.tEZ (V/m) @ t=0.32
-1.3773425212067298
% es.Ex (V/m) @ t=0.32
-0.4313357953759086
% es.Ey (V/m) @ t=0.32
0.03221870249822712
% es.Ez (V/m) @ t=0.32
-1.3773425212067205
% es.tEx (V/m) @ t=0.32
-0.4313357953759116
% es.tEy (V/m) @ t=0.32
0
% es.tEz (V/m) @ t=0.32
-1.3773425212067298
% V (V) @ t=0.32
0.007267582182597057
% es.normE (V/m) @ t=0.34
1.4599379384120026
% es.EX (V/m) @ t=0.34
-0.43553034337793695
% es.EY (V/m) @ t=0.34
0.03253201297396142
% es.EZ (V/m) @ t=0.34
-1.3907365663754852
% es.tEX (V/m) @ t=0.34
-0.43553034337794116
% es.tEY (V/m) @ t=0.34
0
% es.tEZ (V/m) @ t=0.34
-1.3907365663755051
% es.Ex (V/m) @ t=0.34
-0.43553034337793695
% es.Ey (V/m) @ t=0.34
0.03253201297396142
% es.Ez (V/m) @ t=0.34
-1.3907365663754852
% es.tEx (V/m) @ t=0.34
-0.43553034337794116
% es.tEy (V/m) @ t=0.34
0
% es.tEz (V/m) @ t=0.34
-1.3907365663755051
% V (V) @ t=0.34
0.007338256269700925
% es.normE (V/m) @ t=0.36
1.4739984545650153
% es.EX (V/m) @ t=0.36
-0.4397248913799695
% es.EY (V/m) @ t=0.36
0.03284532344969819
% es.EZ (V/m) @ t=0.36
-1.4041306115442502
% es.tEX (V/m) @ t=0.36
-0.43972489137997073
% es.tEY (V/m) @ t=0.36
0
% es.tEZ (V/m) @ t=0.36
-1.4041306115442609
% es.Ex (V/m) @ t=0.36
-0.4397248913799695
% es.Ey (V/m) @ t=0.36
0.03284532344969819
% es.Ez (V/m) @ t=0.36
-1.4041306115442502
% es.tEx (V/m) @ t=0.36
-0.43972489137997073
% es.tEy (V/m) @ t=0.36
0
% es.tEz (V/m) @ t=0.36
-1.4041306115442609
% V (V) @ t=0.36
0.007408930356804794
% es.normE (V/m) @ t=0.38
1.4880589707180334
% es.EX (V/m) @ t=0.38
-0.44391943938199785
% es.EY (V/m) @ t=0.38
0.03315863392543338
% es.EZ (V/m) @ t=0.38
-1.417524656713022
% es.tEX (V/m) @ t=0.38
-0.4439194393820003
% es.tEY (V/m) @ t=0.38
0
% es.tEZ (V/m) @ t=0.38
-1.417524656713029
% es.Ex (V/m) @ t=0.38
-0.44391943938199785
% es.Ey (V/m) @ t=0.38
0.03315863392543338
% es.Ez (V/m) @ t=0.38
-1.417524656713022
% es.tEx (V/m) @ t=0.38
-0.4439194393820003
% es.tEy (V/m) @ t=0.38
0
% es.tEz (V/m) @ t=0.38
-1.417524656713029
% V (V) @ t=0.38
0.0074796044439086615
% es.normE (V/m) @ t=0.4
1.5021194868710377
% es.EX (V/m) @ t=0.4
-0.44811398738402797
% es.EY (V/m) @ t=0.4
0.03347194440116212
% es.EZ (V/m) @ t=0.4
-1.4309187018817795
% es.tEX (V/m) @ t=0.4
-0.4481139873840334
% es.tEY (V/m) @ t=0.4
0
% es.tEZ (V/m) @ t=0.4
-1.4309187018817981
% es.Ex (V/m) @ t=0.4
-0.44811398738402797
% es.Ey (V/m) @ t=0.4
0.03347194440116212
% es.Ez (V/m) @ t=0.4
-1.4309187018817795
% es.tEx (V/m) @ t=0.4
-0.4481139873840334
% es.tEy (V/m) @ t=0.4
0
% es.tEz (V/m) @ t=0.4
-1.4309187018817981
% V (V) @ t=0.4
0.007550278531012533
% es.normE (V/m) @ t=0.42
1.5161800030240498
% es.EX (V/m) @ t=0.42
-0.4523085353860615
% es.EY (V/m) @ t=0.42
0.03378525487690264
% es.EZ (V/m) @ t=0.42
-1.4443127470505441
% es.tEX (V/m) @ t=0.42
-0.45230853538606297
% es.tEY (V/m) @ t=0.42
0
% es.tEZ (V/m) @ t=0.42
-1.4443127470505601
% es.Ex (V/m) @ t=0.42
-0.4523085353860615
% es.Ey (V/m) @ t=0.42
0.03378525487690264
% es.Ez (V/m) @ t=0.42
-1.4443127470505441
% es.tEx (V/m) @ t=0.42
-0.45230853538606297
% es.tEy (V/m) @ t=0.42
0
% es.tEz (V/m) @ t=0.42
-1.4443127470505601
% V (V) @ t=0.42
0.0076209526181164
% es.normE (V/m) @ t=0.44
1.5302405191770607
% es.EX (V/m) @ t=0.44
-0.45650308338808987
% es.EY (V/m) @ t=0.44
0.034098565352624496
% es.EZ (V/m) @ t=0.44
-1.4577067922193088
% es.tEX (V/m) @ t=0.44
-0.4565030833880961
% es.tEY (V/m) @ t=0.44
0
% es.tEZ (V/m) @ t=0.44
-1.4577067922193212
% es.Ex (V/m) @ t=0.44
-0.45650308338808987
% es.Ey (V/m) @ t=0.44
0.034098565352624496
% es.Ez (V/m) @ t=0.44
-1.4577067922193088
% es.tEx (V/m) @ t=0.44
-0.4565030833880961
% es.tEy (V/m) @ t=0.44
0
% es.tEz (V/m) @ t=0.44
-1.4577067922193212
% V (V) @ t=0.44
0.007691626705220268
% es.normE (V/m) @ t=0.46
1.5443010353300703
% es.EX (V/m) @ t=0.46
-0.46069763139011555
% es.EY (V/m) @ t=0.46
0.03441187582836035
% es.EZ (V/m) @ t=0.46
-1.471100837388073
% es.tEX (V/m) @ t=0.46
-0.46069763139011854
% es.tEY (V/m) @ t=0.46
0
% es.tEZ (V/m) @ t=0.46
-1.4711008373880823
% es.Ex (V/m) @ t=0.46
-0.46069763139011555
% es.Ey (V/m) @ t=0.46
0.03441187582836035
% es.Ez (V/m) @ t=0.46
-1.471100837388073
% es.tEx (V/m) @ t=0.46
-0.46069763139011854
% es.tEy (V/m) @ t=0.46
0
% es.tEz (V/m) @ t=0.46
-1.4711008373880823
% V (V) @ t=0.46
0.0077623007923241375
% es.normE (V/m) @ t=0.48
1.5583615514830842
% es.EX (V/m) @ t=0.48
-0.46489217939215455
% es.EY (V/m) @ t=0.48
0.03472518630409553
% es.EZ (V/m) @ t=0.48
-1.4844948825568376
% es.tEX (V/m) @ t=0.48
-0.4648921793921552
% es.tEY (V/m) @ t=0.48
0
% es.tEZ (V/m) @ t=0.48
-1.4844948825568522
% es.Ex (V/m) @ t=0.48
-0.46489217939215455
% es.Ey (V/m) @ t=0.48
0.03472518630409553
% es.Ez (V/m) @ t=0.48
-1.4844948825568376
% es.tEx (V/m) @ t=0.48
-0.4648921793921552
% es.tEy (V/m) @ t=0.48
0
% es.tEz (V/m) @ t=0.48
-1.4844948825568522
% V (V) @ t=0.48
0.007832974879428006
% es.normE (V/m) @ t=0.5
1.572422067636103
% es.EX (V/m) @ t=0.5
-0.46908672739418555
% es.EY (V/m) @ t=0.5
0.03503849677982158
% es.EZ (V/m) @ t=0.5
-1.4978889277256093
% es.tEX (V/m) @ t=0.5
-0.4690867273941919
% es.tEY (V/m) @ t=0.5
0
% es.tEZ (V/m) @ t=0.5
-1.4978889277256213
% es.Ex (V/m) @ t=0.5
-0.46908672739418555
% es.Ey (V/m) @ t=0.5
0.03503849677982158
% es.Ez (V/m) @ t=0.5
-1.4978889277256093
% es.tEx (V/m) @ t=0.5
-0.4690867273941919
% es.tEy (V/m) @ t=0.5
0
% es.tEz (V/m) @ t=0.5
-1.4978889277256213
% V (V) @ t=0.5
0.007903648966531875
% es.normE (V/m) @ t=0.52
1.5864825837891003
% es.EX (V/m) @ t=0.52
-0.4732812753962148
% es.EY (V/m) @ t=0.52
0.03535180725555676
% es.EZ (V/m) @ t=0.52
-1.5112829728943593
% es.tEX (V/m) @ t=0.52
-0.47328127539622145
% es.tEY (V/m) @ t=0.52
0
% es.tEZ (V/m) @ t=0.52
-1.5112829728943824
% es.Ex (V/m) @ t=0.52
-0.4732812753962148
% es.Ey (V/m) @ t=0.52
0.03535180725555676
% es.Ez (V/m) @ t=0.52
-1.5112829728943593
% es.tEx (V/m) @ t=0.52
-0.47328127539622145
% es.tEy (V/m) @ t=0.52
0
% es.tEz (V/m) @ t=0.52
-1.5112829728943824
% V (V) @ t=0.52
0.007974323053635744
% es.normE (V/m) @ t=0.54
1.6005430999421275
% es.EX (V/m) @ t=0.54
-0.47747582339825273
% es.EY (V/m) @ t=0.54
0.03566511773129864
% es.EZ (V/m) @ t=0.54
-1.5246770180631386
% es.tEX (V/m) @ t=0.54
-0.47747582339825456
% es.tEY (V/m) @ t=0.54
0
% es.tEZ (V/m) @ t=0.54
-1.5246770180631586
% es.Ex (V/m) @ t=0.54
-0.47747582339825273
% es.Ey (V/m) @ t=0.54
0.03566511773129864
% es.Ez (V/m) @ t=0.54
-1.5246770180631386
% es.tEx (V/m) @ t=0.54
-0.47747582339825456
% es.tEy (V/m) @ t=0.54
0
% es.tEz (V/m) @ t=0.54
-1.5246770180631586
% V (V) @ t=0.54
0.00804499714073961
% es.normE (V/m) @ t=0.56
1.6157826204253705
% es.EX (V/m) @ t=0.56
-0.48202209232638327
% es.EY (V/m) @ t=0.56
0.03600469809283709
% es.EZ (V/m) @ t=0.56
-1.5391941829510714
% es.tEX (V/m) @ t=0.56
-0.48202209232638893
% es.tEY (V/m) @ t=0.56
0
% es.tEZ (V/m) @ t=0.56
-1.5391941829510936
% es.Ex (V/m) @ t=0.56
-0.48202209232638327
% es.Ey (V/m) @ t=0.56
0.03600469809283709
% es.Ez (V/m) @ t=0.56
-1.5391941829510714
% es.tEx (V/m) @ t=0.56
-0.48202209232638893
% es.tEy (V/m) @ t=0.56
0
% es.tEz (V/m) @ t=0.56
-1.5391941829510936
% V (V) @ t=0.56
0.008121597475796242
% es.normE (V/m) @ t=0.58
1.6314782761278368
% es.EX (V/m) @ t=0.58
-0.4867044356501957
% es.EY (V/m) @ t=0.58
0.036354441792917566
% es.EZ (V/m) @ t=0.58
-1.5541458623239626
% es.tEX (V/m) @ t=0.58
-0.4867044356501964
% es.tEY (V/m) @ t=0.58
0
% es.tEZ (V/m) @ t=0.58
-1.5541458623239768
% es.Ex (V/m) @ t=0.58
-0.4867044356501957
% es.Ey (V/m) @ t=0.58
0.036354441792917566
% es.Ez (V/m) @ t=0.58
-1.5541458623239626
% es.tEx (V/m) @ t=0.58
-0.4867044356501964
% es.tEy (V/m) @ t=0.58
0
% es.tEz (V/m) @ t=0.58
-1.5541458623239768
% V (V) @ t=0.58
0.008200490567834126
% es.normE (V/m) @ t=0.6
1.6471739318303018
% es.EX (V/m) @ t=0.6
-0.49138677897400473
% es.EY (V/m) @ t=0.6
0.03670418549297339
% es.EZ (V/m) @ t=0.6
-1.569097541696853
% es.tEX (V/m) @ t=0.6
-0.4913867789740074
% es.tEY (V/m) @ t=0.6
0
% es.tEZ (V/m) @ t=0.6
-1.569097541696867
% es.Ex (V/m) @ t=0.6
-0.49138677897400473
% es.Ey (V/m) @ t=0.6
0.03670418549297339
% es.Ez (V/m) @ t=0.6
-1.569097541696853
% es.tEx (V/m) @ t=0.6
-0.4913867789740074
% es.tEy (V/m) @ t=0.6
0
% es.tEz (V/m) @ t=0.6
-1.569097541696867
% V (V) @ t=0.6
0.00827938365987201
% es.normE (V/m) @ t=0.62
1.6628695875327826
% es.EX (V/m) @ t=0.62
-0.4960691222978227
% es.EY (V/m) @ t=0.62
0.03705392919304476
% es.EZ (V/m) @ t=0.62
-1.5840492210697579
% es.tEX (V/m) @ t=0.62
-0.4960691222978255
% es.tEY (V/m) @ t=0.62
0
% es.tEZ (V/m) @ t=0.62
-1.5840492210697725
% es.Ex (V/m) @ t=0.62
-0.4960691222978227
% es.Ey (V/m) @ t=0.62
0.03705392919304476
% es.Ez (V/m) @ t=0.62
-1.5840492210697579
% es.tEx (V/m) @ t=0.62
-0.4960691222978255
% es.tEy (V/m) @ t=0.62
0
% es.tEz (V/m) @ t=0.62
-1.5840492210697725
% V (V) @ t=0.62
0.008358276751909898
% es.normE (V/m) @ t=0.64
1.678565243235243
% es.EX (V/m) @ t=0.64
-0.5007514656216389
% es.EY (V/m) @ t=0.64
0.03740367289310944
% es.EZ (V/m) @ t=0.64
-1.599000900442641
% es.tEX (V/m) @ t=0.64
-0.5007514656216436
% es.tEY (V/m) @ t=0.64
0
% es.tEZ (V/m) @ t=0.64
-1.5990009004426566
% es.Ex (V/m) @ t=0.64
-0.5007514656216389
% es.Ey (V/m) @ t=0.64
0.03740367289310944
% es.Ez (V/m) @ t=0.64
-1.599000900442641
% es.tEx (V/m) @ t=0.64
-0.5007514656216436
% es.tEy (V/m) @ t=0.64
0
% es.tEz (V/m) @ t=0.64
-1.5990009004426566
% V (V) @ t=0.64
0.008437169843947783
% es.normE (V/m) @ t=0.66
1.6942608989377144
% es.EX (V/m) @ t=0.66
-0.5054338089454488
% es.EY (V/m) @ t=0.66
0.03775341659318636
% es.EZ (V/m) @ t=0.66
-1.6139525798155385
% es.tEX (V/m) @ t=0.66
-0.5054338089454511
% es.tEY (V/m) @ t=0.66
0
% es.tEZ (V/m) @ t=0.66
-1.6139525798155532
% es.Ex (V/m) @ t=0.66
-0.5054338089454488
% es.Ey (V/m) @ t=0.66
0.03775341659318636
% es.Ez (V/m) @ t=0.66
-1.6139525798155385
% es.tEx (V/m) @ t=0.66
-0.5054338089454511
% es.tEy (V/m) @ t=0.66
0
% es.tEz (V/m) @ t=0.66
-1.6139525798155532
% V (V) @ t=0.66
0.008516062935985667
% es.normE (V/m) @ t=0.68
1.7099565546401738
% es.EX (V/m) @ t=0.68
-0.5101161522692605
% es.EY (V/m) @ t=0.68
0.03810316029325795
% es.EZ (V/m) @ t=0.68
-1.6289042591884222
% es.tEX (V/m) @ t=0.68
-0.5101161522692657
% es.tEY (V/m) @ t=0.68
0
% es.tEZ (V/m) @ t=0.68
-1.6289042591884364
% es.Ex (V/m) @ t=0.68
-0.5101161522692605
% es.Ey (V/m) @ t=0.68
0.03810316029325795
% es.Ez (V/m) @ t=0.68
-1.6289042591884222
% es.tEx (V/m) @ t=0.68
-0.5101161522692657
% es.tEy (V/m) @ t=0.68
0
% es.tEz (V/m) @ t=0.68
-1.6289042591884364
% V (V) @ t=0.68
0.008594956028023553
% es.normE (V/m) @ t=0.7
1.7256522103426408
% es.EX (V/m) @ t=0.7
-0.5147984955930758
% es.EY (V/m) @ t=0.7
0.03845290399332951
% es.EZ (V/m) @ t=0.7
-1.6438559385613125
% es.tEX (V/m) @ t=0.7
-0.5147984955930838
% es.tEY (V/m) @ t=0.7
0
% es.tEZ (V/m) @ t=0.7
-1.6438559385613347
% es.Ex (V/m) @ t=0.7
-0.5147984955930758
% es.Ey (V/m) @ t=0.7
0.03845290399332951
% es.Ez (V/m) @ t=0.7
-1.6438559385613125
% es.tEx (V/m) @ t=0.7
-0.5147984955930838
% es.tEy (V/m) @ t=0.7
0
% es.tEz (V/m) @ t=0.7
-1.6438559385613347
% V (V) @ t=0.7
0.00867384912006144
% es.normE (V/m) @ t=0.72
1.7413478660451134
% es.EX (V/m) @ t=0.72
-0.5194808389168856
% es.EY (V/m) @ t=0.72
0.03880264769339426
% es.EZ (V/m) @ t=0.72
-1.6588076179342108
% es.tEX (V/m) @ t=0.72
-0.5194808389168912
% es.tEY (V/m) @ t=0.72
0
% es.tEZ (V/m) @ t=0.72
-1.658807617934225
% es.Ex (V/m) @ t=0.72
-0.5194808389168856
% es.Ey (V/m) @ t=0.72
0.03880264769339426
% es.Ez (V/m) @ t=0.72
-1.6588076179342108
% es.tEx (V/m) @ t=0.72
-0.5194808389168912
% es.tEy (V/m) @ t=0.72
0
% es.tEz (V/m) @ t=0.72
-1.658807617934225
% V (V) @ t=0.72
0.008752742212099325
% es.normE (V/m) @ t=0.74
1.7570435217475788
% es.EX (V/m) @ t=0.74
-0.5241631822406991
% es.EY (V/m) @ t=0.74
0.03915239139345868
% es.EZ (V/m) @ t=0.74
-1.6737592973071007
% es.tEX (V/m) @ t=0.74
-0.5241631822407022
% es.tEY (V/m) @ t=0.74
0
% es.tEZ (V/m) @ t=0.74
-1.6737592973071074
% es.Ex (V/m) @ t=0.74
-0.5241631822406991
% es.Ey (V/m) @ t=0.74
0.03915239139345868
% es.Ez (V/m) @ t=0.74
-1.6737592973071007
% es.tEx (V/m) @ t=0.74
-0.5241631822407022
% es.tEy (V/m) @ t=0.74
0
% es.tEz (V/m) @ t=0.74
-1.6737592973071074
% V (V) @ t=0.74
0.00883163530413721
% es.normE (V/m) @ t=0.76
1.7727391774500454
% es.EX (V/m) @ t=0.76
-0.5288455255645153
% es.EY (V/m) @ t=0.76
0.03950213509352853
% es.EZ (V/m) @ t=0.76
-1.6887109766799915
% es.tEX (V/m) @ t=0.76
-0.5288455255645204
% es.tEY (V/m) @ t=0.76
0
% es.tEZ (V/m) @ t=0.76
-1.6887109766800128
% es.Ex (V/m) @ t=0.76
-0.5288455255645153
% es.Ey (V/m) @ t=0.76
0.03950213509352853
% es.Ez (V/m) @ t=0.76
-1.6887109766799915
% es.tEx (V/m) @ t=0.76
-0.5288455255645204
% es.tEy (V/m) @ t=0.76
0
% es.tEz (V/m) @ t=0.76
-1.6887109766800128
% V (V) @ t=0.76
0.008910528396175095
% es.normE (V/m) @ t=0.78
1.7884348331525253
% es.EX (V/m) @ t=0.78
-0.533527868888326
% es.EY (V/m) @ t=0.78
0.03985187879361078
% es.EZ (V/m) @ t=0.78
-1.7036626560528965
% es.tEX (V/m) @ t=0.78
-0.5335278688883349
% es.tEY (V/m) @ t=0.78
0
% es.tEZ (V/m) @ t=0.78
-1.7036626560529031
% es.Ex (V/m) @ t=0.78
-0.533527868888326
% es.Ey (V/m) @ t=0.78
0.03985187879361078
% es.Ez (V/m) @ t=0.78
-1.7036626560528965
% es.tEx (V/m) @ t=0.78
-0.5335278688883349
% es.tEy (V/m) @ t=0.78
0
% es.tEz (V/m) @ t=0.78
-1.7036626560529031
% V (V) @ t=0.78
0.008989421488212981
% es.normE (V/m) @ t=0.8
1.8041304888549767
% es.EX (V/m) @ t=0.8
-0.5382102122121368
% es.EY (V/m) @ t=0.8
0.04020162249367368
% es.EZ (V/m) @ t=0.8
-1.7186143354257726
% es.tEX (V/m) @ t=0.8
-0.5382102122121388
% es.tEY (V/m) @ t=0.8
0
% es.tEZ (V/m) @ t=0.8
-1.7186143354257934
% es.Ex (V/m) @ t=0.8
-0.5382102122121368
% es.Ey (V/m) @ t=0.8
0.04020162249367368
% es.Ez (V/m) @ t=0.8
-1.7186143354257726
% es.tEx (V/m) @ t=0.8
-0.5382102122121388
% es.tEy (V/m) @ t=0.8
0
% es.tEz (V/m) @ t=0.8
-1.7186143354257934
% V (V) @ t=0.8
0.009068314580250866
% es.normE (V/m) @ t=0.82
1.819986922709883
% es.EX (V/m) @ t=0.82
-0.5429405188075511
% es.EY (V/m) @ t=0.82
0.04055494834620782
% es.EZ (V/m) @ t=0.82
-1.7337191721440748
% es.tEX (V/m) @ t=0.82
-0.5429405188075549
% es.tEY (V/m) @ t=0.82
0
% es.tEZ (V/m) @ t=0.82
-1.7337191721440872
% es.Ex (V/m) @ t=0.82
-0.5429405188075511
% es.Ey (V/m) @ t=0.82
0.04055494834620782
% es.Ez (V/m) @ t=0.82
-1.7337191721440748
% es.tEx (V/m) @ t=0.82
-0.5429405188075549
% es.tEy (V/m) @ t=0.82
0
% es.tEz (V/m) @ t=0.82
-1.7337191721440872
% V (V) @ t=0.82
0.009148015829003344
% es.normE (V/m) @ t=0.84
1.8375400799586412
% es.EX (V/m) @ t=0.84
-0.5481769912204706
% es.EY (V/m) @ t=0.84
0.040946077356671634
% es.EZ (V/m) @ t=0.84
-1.750440308384158
% es.tEX (V/m) @ t=0.84
-0.5481769912204761
% es.tEY (V/m) @ t=0.84
0
% es.tEZ (V/m) @ t=0.84
-1.7504403083841726
% es.Ex (V/m) @ t=0.84
-0.5481769912204706
% es.Ey (V/m) @ t=0.84
0.040946077356671634
% es.Ez (V/m) @ t=0.84
-1.750440308384158
% es.tEx (V/m) @ t=0.84
-0.5481769912204761
% es.tEy (V/m) @ t=0.84
0
% es.tEz (V/m) @ t=0.84
-1.7504403083841726
% V (V) @ t=0.84
0.009236245714157687
% es.normE (V/m) @ t=0.86
1.8550932372073867
% es.EX (V/m) @ t=0.86
-0.553413463633392
% es.EY (V/m) @ t=0.86
0.04133720636714429
% es.EZ (V/m) @ t=0.86
-1.767161444624226
% es.tEX (V/m) @ t=0.86
-0.5534134636333974
% es.tEY (V/m) @ t=0.86
0
% es.tEZ (V/m) @ t=0.86
-1.7671614446242385
% es.Ex (V/m) @ t=0.86
-0.553413463633392
% es.Ey (V/m) @ t=0.86
0.04133720636714429
% es.Ez (V/m) @ t=0.86
-1.767161444624226
% es.tEx (V/m) @ t=0.86
-0.5534134636333974
% es.tEy (V/m) @ t=0.86
0
% es.tEz (V/m) @ t=0.86
-1.7671614446242385
% V (V) @ t=0.86
0.009324475599312031
% es.normE (V/m) @ t=0.88
1.8726463944561405
% es.EX (V/m) @ t=0.88
-0.5586499360463029
% es.EY (V/m) @ t=0.88
0.041728335377615194
% es.EZ (V/m) @ t=0.88
-1.7838825808643084
% es.tEX (V/m) @ t=0.88
-0.558649936046308
% es.tEY (V/m) @ t=0.88
0
% es.tEZ (V/m) @ t=0.88
-1.7838825808643088
% es.Ex (V/m) @ t=0.88
-0.5586499360463029
% es.Ey (V/m) @ t=0.88
0.041728335377615194
% es.Ez (V/m) @ t=0.88
-1.7838825808643084
% es.tEx (V/m) @ t=0.88
-0.558649936046308
% es.tEy (V/m) @ t=0.88
0
% es.tEz (V/m) @ t=0.88
-1.7838825808643088
% V (V) @ t=0.88
0.009412705484466372
% es.normE (V/m) @ t=0.9
1.8901995517048658
% es.EX (V/m) @ t=0.9
-0.5638864084592262
% es.EY (V/m) @ t=0.9
0.04211946438809158
% es.EZ (V/m) @ t=0.9
-1.8006037171043547
% es.tEX (V/m) @ t=0.9
-0.5638864084592292
% es.tEY (V/m) @ t=0.9
0
% es.tEZ (V/m) @ t=0.9
-1.8006037171043747
% es.Ex (V/m) @ t=0.9
-0.5638864084592262
% es.Ey (V/m) @ t=0.9
0.04211946438809158
% es.Ez (V/m) @ t=0.9
-1.8006037171043547
% es.tEx (V/m) @ t=0.9
-0.5638864084592292
% es.tEy (V/m) @ t=0.9
0
% es.tEz (V/m) @ t=0.9
-1.8006037171043747
% V (V) @ t=0.9
0.009500935369620713
% es.normE (V/m) @ t=0.92
1.9077527089536155
% es.EX (V/m) @ t=0.92
-0.5691228808721405
% es.EY (V/m) @ t=0.92
0.04251059339853759
% es.EZ (V/m) @ t=0.92
-1.8173248533444304
% es.tEX (V/m) @ t=0.92
-0.5691228808721469
% es.tEY (V/m) @ t=0.92
0
% es.tEZ (V/m) @ t=0.92
-1.817324853344453
% es.Ex (V/m) @ t=0.92
-0.5691228808721405
% es.Ey (V/m) @ t=0.92
0.04251059339853759
% es.Ez (V/m) @ t=0.92
-1.8173248533444304
% es.tEx (V/m) @ t=0.92
-0.5691228808721469
% es.tEy (V/m) @ t=0.92
0
% es.tEz (V/m) @ t=0.92
-1.817324853344453
% V (V) @ t=0.92
0.009589165254775055
% es.normE (V/m) @ t=0.94
1.925305866202359
% es.EX (V/m) @ t=0.94
-0.5743593532850584
% es.EY (V/m) @ t=0.94
0.04290172240900869
% es.EZ (V/m) @ t=0.94
-1.8340459895844985
% es.tEX (V/m) @ t=0.94
-0.574359353285061
% es.tEY (V/m) @ t=0.94
0
% es.tEZ (V/m) @ t=0.94
-1.834045989584511
% es.Ex (V/m) @ t=0.94
-0.5743593532850584
% es.Ey (V/m) @ t=0.94
0.04290172240900869
% es.Ez (V/m) @ t=0.94
-1.8340459895844985
% es.tEx (V/m) @ t=0.94
-0.574359353285061
% es.tEy (V/m) @ t=0.94
0
% es.tEz (V/m) @ t=0.94
-1.834045989584511
% V (V) @ t=0.94
0.009677395139929398
% es.normE (V/m) @ t=0.96
1.9428590234511112
% es.EX (V/m) @ t=0.96
-0.5795958256979816
% es.EY (V/m) @ t=0.96
0.0432928514194776
% es.EZ (V/m) @ t=0.96
-1.8507671258245737
% es.tEX (V/m) @ t=0.96
-0.5795958256979858
% es.tEY (V/m) @ t=0.96
0
% es.tEZ (V/m) @ t=0.96
-1.8507671258245892
% es.Ex (V/m) @ t=0.96
-0.5795958256979816
% es.Ey (V/m) @ t=0.96
0.0432928514194776
% es.Ez (V/m) @ t=0.96
-1.8507671258245737
% es.tEx (V/m) @ t=0.96
-0.5795958256979858
% es.tEy (V/m) @ t=0.96
0
% es.tEz (V/m) @ t=0.96
-1.8507671258245892
% V (V) @ t=0.96
0.00976562502508374
% es.normE (V/m) @ t=0.98
1.9604121806998691
% es.EX (V/m) @ t=0.98
-0.5848322981108995
% es.EY (V/m) @ t=0.98
0.04368398042995025
% es.EZ (V/m) @ t=0.98
-1.8674882620646565
% es.tEX (V/m) @ t=0.98
-0.5848322981109071
% es.tEY (V/m) @ t=0.98
0
% es.tEZ (V/m) @ t=0.98
-1.8674882620646605
% es.Ex (V/m) @ t=0.98
-0.5848322981108995
% es.Ey (V/m) @ t=0.98
0.04368398042995025
% es.Ez (V/m) @ t=0.98
-1.8674882620646565
% es.tEx (V/m) @ t=0.98
-0.5848322981109071
% es.tEy (V/m) @ t=0.98
0
% es.tEz (V/m) @ t=0.98
-1.8674882620646605
% V (V) @ t=0.98
0.00985385491023808
% es.normE (V/m) @ t=1
1.9779653379486086
% es.EX (V/m) @ t=1
-0.5900687705238237
% es.EY (V/m) @ t=1
0.044075109440410695
% es.EZ (V/m) @ t=1
-1.8842093983047175
% es.tEX (V/m) @ t=1
-0.5900687705238319
% es.tEY (V/m) @ t=1
0
% es.tEZ (V/m) @ t=1
-1.8842093983047405
% es.Ex (V/m) @ t=1
-0.5900687705238237
% es.Ey (V/m) @ t=1
0.044075109440410695
% es.Ez (V/m) @ t=1
-1.8842093983047175
% es.tEx (V/m) @ t=1
-0.5900687705238319
% es.tEy (V/m) @ t=1
0
% es.tEz (V/m) @ t=1
-1.8842093983047405
% V (V) @ t=1
0.009942084795392422
% es.normE (V/m) @ t=1.02
1.9955184951973512
% es.EX (V/m) @ t=1.02
-0.5953052429367355
% es.EY (V/m) @ t=1.02
0.04446623845088886
% es.EZ (V/m) @ t=1.02
-1.900930534544785
% es.tEX (V/m) @ t=1.02
-0.5953052429367389
% es.tEY (V/m) @ t=1.02
0
% es.tEZ (V/m) @ t=1.02
-1.9009305345448055
% es.Ex (V/m) @ t=1.02
-0.5953052429367355
% es.Ey (V/m) @ t=1.02
0.04446623845088886
% es.Ez (V/m) @ t=1.02
-1.900930534544785