% Model:              1 neuron.mph
% Version:            COMSOL 6.0.0.405
% Date:               Mar 16 2023, 10:19
% Dimension:          0
% Nodes:              14017
% Expressions:        14017
% Description:        Electric field norm, Electric field, X component, Electric field, Y component, Electric field, Z component, Tangential electric field, X component, Tangential electric field, Y component, Tangential electric field, Z component, Electric field, x component, Electric field, y component, Electric field, z component, Tangential electric field, x component, Tangential electric field, y component, Tangential electric field, z component, Electric potential
% Length unit:        mm
% x
1
% y
12.2
% z
1.6599999999999997
% es.normE (V/m) @ t=0
1.6070735790122157
% es.EX (V/m) @ t=0
1.438667148676056
% es.EY (V/m) @ t=0
0.05535331634012958
% es.EZ (V/m) @ t=0
-0.7140436256047242
% es.tEX (V/m) @ t=0
1.4386671486760614
% es.tEY (V/m) @ t=0
0
% es.tEZ (V/m) @ t=0
-0.7140436256047202
% es.Ex (V/m) @ t=0
1.438667148676056
% es.Ey (V/m) @ t=0
0.05535331634012958
% es.Ez (V/m) @ t=0
-0.7140436256047242
% es.tEx (V/m) @ t=0
1.4386671486760614
% es.tEy (V/m) @ t=0
0
% es.tEz (V/m) @ t=0
-0.7140436256047202
% V (V) @ t=0
0.0072912785004107675
% es.normE (V/m) @ t=0.02
1.3880608407493067
% es.EX (V/m) @ t=0.02
1.2426049168339224
% es.EY (V/m) @ t=0.02
0.04780974142355321
% es.EZ (V/m) @ t=0.02
-0.616733427793596
% es.tEX (V/m) @ t=0.02
1.2426049168339173
% es.tEY (V/m) @ t=0.02
0
% es.tEZ (V/m) @ t=0.02
-0.6167334277935979
% es.Ex (V/m) @ t=0.02
1.2426049168339224
% es.Ey (V/m) @ t=0.02
0.04780974142355321
% es.Ez (V/m) @ t=0.02
-0.616733427793596
% es.tEx (V/m) @ t=0.02
1.2426049168339173
% es.tEy (V/m) @ t=0.02
0
% es.tEz (V/m) @ t=0.02
-0.6167334277935979
% V (V) @ t=0.02
0.006297619496991633
% es.normE (V/m) @ t=0.04
1.4008288392705626
% es.EX (V/m) @ t=0.04
1.254034944017141
% es.EY (V/m) @ t=0.04
0.04824952164507462
% es.EZ (V/m) @ t=0.04
-0.6224064213569769
% es.tEX (V/m) @ t=0.04
1.2540349440171399
% es.tEY (V/m) @ t=0.04
0
% es.tEZ (V/m) @ t=0.04
-0.622406421356974
% es.Ex (V/m) @ t=0.04
1.254034944017141
% es.Ey (V/m) @ t=0.04
0.04824952164507462
% es.Ez (V/m) @ t=0.04
-0.6224064213569769
% es.tEx (V/m) @ t=0.04
1.2540349440171399
% es.tEy (V/m) @ t=0.04
0
% es.tEz (V/m) @ t=0.04
-0.622406421356974
% V (V) @ t=0.04
0.006355546884680815
% es.normE (V/m) @ t=0.06
1.4137129382214477
% es.EX (V/m) @ t=0.06
1.2655689069841
% es.EY (V/m) @ t=0.06
0.04869329843666473
% es.EZ (V/m) @ t=0.06
-0.6281309967967452
% es.tEX (V/m) @ t=0.06
1.2655689069840999
% es.tEY (V/m) @ t=0.06
0
% es.tEZ (V/m) @ t=0.06
-0.6281309967967417
% es.Ex (V/m) @ t=0.06
1.2655689069841
% es.Ey (V/m) @ t=0.06
0.04869329843666473
% es.Ez (V/m) @ t=0.06
-0.6281309967967452
% es.tEx (V/m) @ t=0.06
1.2655689069840999
% es.tEy (V/m) @ t=0.06
0
% es.tEz (V/m) @ t=0.06
-0.6281309967967417
% V (V) @ t=0.06
0.006414001457442833
% es.normE (V/m) @ t=0.08
1.426791455892372
% es.EX (V/m) @ t=0.08
1.277276914426558
% es.EY (V/m) @ t=0.08
0.04914377297409053
% es.EZ (V/m) @ t=0.08
-0.6339419568350323
% es.tEX (V/m) @ t=0.08
1.2772769144265523
% es.tEY (V/m) @ t=0.08
0
% es.tEZ (V/m) @ t=0.08
-0.6339419568350344
% es.Ex (V/m) @ t=0.08
1.277276914426558
% es.Ey (V/m) @ t=0.08
0.04914377297409053
% es.Ez (V/m) @ t=0.08
-0.6339419568350323
% es.tEx (V/m) @ t=0.08
1.2772769144265523
% es.tEy (V/m) @ t=0.08
0
% es.tEz (V/m) @ t=0.08
-0.6339419568350344
% V (V) @ t=0.08
0.00647333784444753
% es.normE (V/m) @ t=0.1
1.4400096591014586
% es.EX (V/m) @ t=0.1
1.289109968964365
% es.EY (V/m) @ t=0.1
0.049599059693344494
% es.EZ (V/m) @ t=0.1
-0.639814982291373
% es.tEX (V/m) @ t=0.1
1.2891099689643681
% es.tEY (V/m) @ t=0.1
0
% es.tEZ (V/m) @ t=0.1
-0.6398149822913695
% es.Ex (V/m) @ t=0.1
1.289109968964365
% es.Ey (V/m) @ t=0.1
0.049599059693344494
% es.Ez (V/m) @ t=0.1
-0.639814982291373
% es.tEx (V/m) @ t=0.1
1.2891099689643681
% es.tEy (V/m) @ t=0.1
0
% es.tEz (V/m) @ t=0.1
-0.6398149822913695
% V (V) @ t=0.1
0.006533307795427055
% es.normE (V/m) @ t=0.12
1.4532278623105357
% es.EX (V/m) @ t=0.12
1.3009430235021688
% es.EY (V/m) @ t=0.12
0.050054346412593126
% es.EZ (V/m) @ t=0.12
-0.6456880077476994
% es.tEX (V/m) @ t=0.12
1.3009430235021702
% es.tEY (V/m) @ t=0.12
0
% es.tEZ (V/m) @ t=0.12
-0.6456880077476868
% es.Ex (V/m) @ t=0.12
1.3009430235021688
% es.Ey (V/m) @ t=0.12
0.050054346412593126
% es.Ez (V/m) @ t=0.12
-0.6456880077476994
% es.tEx (V/m) @ t=0.12
1.3009430235021702
% es.tEy (V/m) @ t=0.12
0
% es.tEz (V/m) @ t=0.12
-0.6456880077476868
% V (V) @ t=0.12
0.0065932777464065805
% es.normE (V/m) @ t=0.14
1.466568939704255
% es.EX (V/m) @ t=0.14
1.3128860753527158
% es.EY (V/m) @ t=0.14
0.05051386656492385
% es.EZ (V/m) @ t=0.14
-0.6516156293049677
% es.tEX (V/m) @ t=0.14
1.3128860753527158
% es.tEY (V/m) @ t=0.14
0
% es.tEZ (V/m) @ t=0.14
-0.6516156293049598
% es.Ex (V/m) @ t=0.14
1.3128860753527158
% es.Ey (V/m) @ t=0.14
0.05051386656492385
% es.Ez (V/m) @ t=0.14
-0.6516156293049677
% es.tEx (V/m) @ t=0.14
1.3128860753527158
% es.tEy (V/m) @ t=0.14
0
% es.tEz (V/m) @ t=0.14
-0.6516156293049598
% V (V) @ t=0.14
0.006653804959119077
% es.normE (V/m) @ t=0.16
1.480494107262216
% es.EX (V/m) @ t=0.16
1.3253520063471202
% es.EY (V/m) @ t=0.16
0.050993510607590053
% es.EZ (V/m) @ t=0.16
-0.6578027768615872
% es.tEX (V/m) @ t=0.16
1.3253520063471145
% es.tEY (V/m) @ t=0.16
0
% es.tEZ (V/m) @ t=0.16
-0.6578027768615904
% es.Ex (V/m) @ t=0.16
1.3253520063471202
% es.Ey (V/m) @ t=0.16
0.050993510607590053
% es.Ez (V/m) @ t=0.16
-0.6578027768615872
% es.tEx (V/m) @ t=0.16
1.3253520063471145
% es.tEy (V/m) @ t=0.16
0
% es.tEz (V/m) @ t=0.16
-0.6578027768615904
% V (V) @ t=0.16
0.006716981150525745
% es.normE (V/m) @ t=0.18
1.4944192748201837
% es.EX (V/m) @ t=0.18
1.3378179373415278
% es.EY (V/m) @ t=0.18
0.051473154650242936
% es.EZ (V/m) @ t=0.18
-0.6639899244182155
% es.tEX (V/m) @ t=0.18
1.3378179373415233
% es.tEY (V/m) @ t=0.18
0
% es.tEZ (V/m) @ t=0.18
-0.6639899244182068
% es.Ex (V/m) @ t=0.18
1.3378179373415278
% es.Ey (V/m) @ t=0.18
0.051473154650242936
% es.Ez (V/m) @ t=0.18
-0.6639899244182155
% es.tEx (V/m) @ t=0.18
1.3378179373415233
% es.tEy (V/m) @ t=0.18
0
% es.tEz (V/m) @ t=0.18
-0.6639899244182068
% V (V) @ t=0.18
0.006780157341932414
% es.normE (V/m) @ t=0.2
1.5083444423781596
% es.EX (V/m) @ t=0.2
1.3502838683359404
% es.EY (V/m) @ t=0.2
0.05195279869291533
% es.EZ (V/m) @ t=0.2
-0.6701770719748491
% es.tEX (V/m) @ t=0.2
1.3502838683359317
% es.tEY (V/m) @ t=0.2
0
% es.tEZ (V/m) @ t=0.2
-0.6701770719748446
% es.Ex (V/m) @ t=0.2
1.3502838683359404
% es.Ey (V/m) @ t=0.2
0.05195279869291533
% es.Ez (V/m) @ t=0.2
-0.6701770719748491
% es.tEx (V/m) @ t=0.2
1.3502838683359317
% es.tEy (V/m) @ t=0.2
0
% es.tEz (V/m) @ t=0.2
-0.6701770719748446
% V (V) @ t=0.2
0.006843333533339083
% es.normE (V/m) @ t=0.22
1.5222696099361221
% es.EX (V/m) @ t=0.22
1.3627497993303406
% es.EY (V/m) @ t=0.22
0.05243244273558109
% es.EZ (V/m) @ t=0.22
-0.6763642195314774
% es.tEX (V/m) @ t=0.22
1.3627497993303406
% es.tEY (V/m) @ t=0.22
0
% es.tEZ (V/m) @ t=0.22
-0.6763642195314716
% es.Ex (V/m) @ t=0.22
1.3627497993303406
% es.Ey (V/m) @ t=0.22
0.05243244273558109
% es.Ez (V/m) @ t=0.22
-0.6763642195314774
% es.tEx (V/m) @ t=0.22
1.3627497993303406
% es.tEy (V/m) @ t=0.22
0
% es.tEz (V/m) @ t=0.22
-0.6763642195314716
% V (V) @ t=0.22
0.006906509724745753
% es.normE (V/m) @ t=0.24
1.5361947774940923
% es.EX (V/m) @ t=0.24
1.3752157303247499
% es.EY (V/m) @ t=0.24
0.05291208677824463
% es.EZ (V/m) @ t=0.24
-0.682551367088104
% es.tEX (V/m) @ t=0.24
1.3752157303247525
% es.tEY (V/m) @ t=0.24
0
% es.tEZ (V/m) @ t=0.24
-0.6825513670881058
% es.Ex (V/m) @ t=0.24
1.3752157303247499
% es.Ey (V/m) @ t=0.24
0.05291208677824463
% es.Ez (V/m) @ t=0.24
-0.682551367088104
% es.tEx (V/m) @ t=0.24
1.3752157303247525
% es.tEy (V/m) @ t=0.24
0
% es.tEz (V/m) @ t=0.24
-0.6825513670881058
% V (V) @ t=0.24
0.006969685916152423
% es.normE (V/m) @ t=0.26
1.5501199450520664
% es.EX (V/m) @ t=0.26
1.3876816613191574
% es.EY (V/m) @ t=0.26
0.05339173082091883
% es.EZ (V/m) @ t=0.26
-0.6887385146447412
% es.tEX (V/m) @ t=0.26
1.3876816613191614
% es.tEY (V/m) @ t=0.26
0
% es.tEZ (V/m) @ t=0.26
-0.6887385146447436
% es.Ex (V/m) @ t=0.26
1.3876816613191574
% es.Ey (V/m) @ t=0.26
0.05339173082091883
% es.Ez (V/m) @ t=0.26
-0.6887385146447412
% es.tEx (V/m) @ t=0.26
1.3876816613191614
% es.tEy (V/m) @ t=0.26
0
% es.tEz (V/m) @ t=0.26
-0.6887385146447436
% V (V) @ t=0.26
0.007032862107559092
% es.normE (V/m) @ t=0.28
1.564613339973152
% es.EX (V/m) @ t=0.28
1.400656251230813
% es.EY (V/m) @ t=0.28
0.05389098118256083
% es.EZ (V/m) @ t=0.28
-0.6951781776014497
% es.tEX (V/m) @ t=0.28
1.4006562512308118
% es.tEY (V/m) @ t=0.28
0
% es.tEZ (V/m) @ t=0.28
-0.695178177601445
% es.Ex (V/m) @ t=0.28
1.400656251230813
% es.Ey (V/m) @ t=0.28
0.05389098118256083
% es.Ez (V/m) @ t=0.28
-0.6951781776014497
% es.tEx (V/m) @ t=0.28
1.4006562512308118
% es.tEy (V/m) @ t=0.28
0
% es.tEz (V/m) @ t=0.28
-0.695178177601445
% V (V) @ t=0.28
0.007098609937120381
% es.normE (V/m) @ t=0.3
1.5801275307607625
% es.EX (V/m) @ t=0.3
1.4145446248739293
% es.EY (V/m) @ t=0.3
0.054425453447755845
% es.EZ (V/m) @ t=0.3
-0.7020714735462172
% es.tEX (V/m) @ t=0.3
1.4145446248739315
% es.tEY (V/m) @ t=0.3
0
% es.tEZ (V/m) @ t=0.3
-0.7020714735462157
% es.Ex (V/m) @ t=0.3
1.4145446248739293
% es.Ey (V/m) @ t=0.3
0.054425453447755845
% es.Ez (V/m) @ t=0.3
-0.7020714735462172
% es.tEx (V/m) @ t=0.3
1.4145446248739315
% es.tEy (V/m) @ t=0.3
0
% es.tEz (V/m) @ t=0.3
-0.7020714735462157
% V (V) @ t=0.3
0.007168977603332944
% es.normE (V/m) @ t=0.32
1.5956417215484195
% es.EX (V/m) @ t=0.32
1.4284329985170456
% es.EY (V/m) @ t=0.32
0.05495992571296196
% es.EZ (V/m) @ t=0.32
-0.708964769491008
% es.tEX (V/m) @ t=0.32
1.4284329985170405
% es.tEY (V/m) @ t=0.32
0
% es.tEZ (V/m) @ t=0.32
-0.7089647694910042
% es.Ex (V/m) @ t=0.32
1.4284329985170456
% es.Ey (V/m) @ t=0.32
0.05495992571296196
% es.Ez (V/m) @ t=0.32
-0.708964769491008
% es.tEx (V/m) @ t=0.32
1.4284329985170405
% es.tEy (V/m) @ t=0.32
0
% es.tEz (V/m) @ t=0.32
-0.7089647694910042
% V (V) @ t=0.32
0.007239345269545506
% es.normE (V/m) @ t=0.34
1.611155912336094
% es.EX (V/m) @ t=0.34
1.4423213721601527
% es.EY (V/m) @ t=0.34
0.05549439797814856
% es.EZ (V/m) @ t=0.34
-0.7158580654357772
% es.tEX (V/m) @ t=0.34
1.4423213721601522
% es.tEY (V/m) @ t=0.34
0
% es.tEZ (V/m) @ t=0.34
-0.7158580654357749
% es.Ex (V/m) @ t=0.34
1.4423213721601527
% es.Ey (V/m) @ t=0.34
0.05549439797814856
% es.Ez (V/m) @ t=0.34
-0.7158580654357772
% es.tEx (V/m) @ t=0.34
1.4423213721601522
% es.tEy (V/m) @ t=0.34
0
% es.tEz (V/m) @ t=0.34
-0.7158580654357749
% V (V) @ t=0.34
0.007309712935758068
% es.normE (V/m) @ t=0.36
1.6266701031238302
% es.EX (V/m) @ t=0.36
1.4562097458032794
% es.EY (V/m) @ t=0.36
0.05602887024335959
% es.EZ (V/m) @ t=0.36
-0.722751361380568
% es.tEX (V/m) @ t=0.36
1.456209745803278
% es.tEY (V/m) @ t=0.36
0
% es.tEZ (V/m) @ t=0.36
-0.7227513613805634
% es.Ex (V/m) @ t=0.36
1.4562097458032794
% es.Ey (V/m) @ t=0.36
0.05602887024335959
% es.Ez (V/m) @ t=0.36
-0.722751361380568
% es.tEx (V/m) @ t=0.36
1.456209745803278
% es.tEy (V/m) @ t=0.36
0
% es.tEz (V/m) @ t=0.36
-0.7227513613805634
% V (V) @ t=0.36
0.00738008060197063
% es.normE (V/m) @ t=0.38
1.6421842939115843
% es.EX (V/m) @ t=0.38
1.4700981194463938
% es.EY (V/m) @ t=0.38
0.05656334250855327
% es.EZ (V/m) @ t=0.38
-0.7296446573253479
% es.tEX (V/m) @ t=0.38
1.4700981194463907
% es.tEY (V/m) @ t=0.38
0
% es.tEZ (V/m) @ t=0.38
-0.7296446573253448
% es.Ex (V/m) @ t=0.38
1.4700981194463938
% es.Ey (V/m) @ t=0.38
0.05656334250855327
% es.Ez (V/m) @ t=0.38
-0.7296446573253479
% es.tEx (V/m) @ t=0.38
1.4700981194463907
% es.tEy (V/m) @ t=0.38
0
% es.tEz (V/m) @ t=0.38
-0.7296446573253448
% V (V) @ t=0.38
0.007450448268183192
% es.normE (V/m) @ t=0.4
1.6576984846993628
% es.EX (V/m) @ t=0.4
1.483986493089501
% es.EY (V/m) @ t=0.4
0.05709781477375009
% es.EZ (V/m) @ t=0.4
-0.7365379532701262
% es.tEX (V/m) @ t=0.4
1.4839864930895024
% es.tEY (V/m) @ t=0.4
0
% es.tEZ (V/m) @ t=0.4
-0.7365379532701155
% es.Ex (V/m) @ t=0.4
1.483986493089501
% es.Ey (V/m) @ t=0.4
0.05709781477375009
% es.Ez (V/m) @ t=0.4
-0.7365379532701262
% es.tEx (V/m) @ t=0.4
1.4839864930895024
% es.tEy (V/m) @ t=0.4
0
% es.tEz (V/m) @ t=0.4
-0.7365379532701155
% V (V) @ t=0.4
0.007520815934395755
% es.normE (V/m) @ t=0.42
1.6732126754871819
% es.EX (V/m) @ t=0.42
1.4978748667326167
% es.EY (V/m) @ t=0.42
0.05763228703895443
% es.EZ (V/m) @ t=0.42
-0.7434312492149061
% es.tEX (V/m) @ t=0.42
1.497874866732615
% es.tEY (V/m) @ t=0.42
0
% es.tEZ (V/m) @ t=0.42
-0.7434312492149004
% es.Ex (V/m) @ t=0.42
1.4978748667326167
% es.Ey (V/m) @ t=0.42
0.05763228703895443
% es.Ez (V/m) @ t=0.42
-0.7434312492149061
% es.tEx (V/m) @ t=0.42
1.497874866732615
% es.tEy (V/m) @ t=0.42
0
% es.tEz (V/m) @ t=0.42
-0.7434312492149004
% V (V) @ t=0.42
0.007591183600608316
% es.normE (V/m) @ t=0.44
1.6887268662750312
% es.EX (V/m) @ t=0.44
1.5117632403757368
% es.EY (V/m) @ t=0.44
0.058166759304137006
% es.EZ (V/m) @ t=0.44
-0.7503245451596791
% es.tEX (V/m) @ t=0.44
1.5117632403757337
% es.tEY (V/m) @ t=0.44
0
% es.tEZ (V/m) @ t=0.44
-0.7503245451596747
% es.Ex (V/m) @ t=0.44
1.5117632403757368
% es.Ey (V/m) @ t=0.44
0.058166759304137006
% es.Ez (V/m) @ t=0.44
-0.7503245451596791
% es.tEx (V/m) @ t=0.44
1.5117632403757337
% es.tEy (V/m) @ t=0.44
0
% es.tEz (V/m) @ t=0.44
-0.7503245451596747
% V (V) @ t=0.44
0.007661551266820879
% es.normE (V/m) @ t=0.46
1.7042410570629152
% es.EX (V/m) @ t=0.46
1.5256516140188532
% es.EY (V/m) @ t=0.46
0.05870123156935203
% es.EZ (V/m) @ t=0.46
-0.7572178411044661
% es.tEX (V/m) @ t=0.46
1.5256516140188534
% es.tEY (V/m) @ t=0.46
0
% es.tEZ (V/m) @ t=0.46
-0.7572178411044597
% es.Ex (V/m) @ t=0.46
1.5256516140188532
% es.Ey (V/m) @ t=0.46
0.05870123156935203
% es.Ez (V/m) @ t=0.46
-0.7572178411044661
% es.tEx (V/m) @ t=0.46
1.5256516140188534
% es.tEy (V/m) @ t=0.46
0
% es.tEz (V/m) @ t=0.46
-0.7572178411044597
% V (V) @ t=0.46
0.00773191893303344
% es.normE (V/m) @ t=0.48
1.7197552478508147
% es.EX (V/m) @ t=0.48
1.5395399876619638
% es.EY (V/m) @ t=0.48
0.05923570383454571
% es.EZ (V/m) @ t=0.48
-0.7641111370492373
% es.tEX (V/m) @ t=0.48
1.539539987661958
% es.tEY (V/m) @ t=0.48
0
% es.tEZ (V/m) @ t=0.48
-0.764111137049234
% es.Ex (V/m) @ t=0.48
1.5395399876619638
% es.Ey (V/m) @ t=0.48
0.05923570383454571
% es.Ez (V/m) @ t=0.48
-0.7641111370492373
% es.tEx (V/m) @ t=0.48
1.539539987661958
% es.tEy (V/m) @ t=0.48
0
% es.tEz (V/m) @ t=0.48
-0.764111137049234
% V (V) @ t=0.48
0.007802286599246004
% es.normE (V/m) @ t=0.5
1.7352694386387453
% es.EX (V/m) @ t=0.5
1.5534283613050723
% es.EY (V/m) @ t=0.5
0.059770176099751826
% es.EZ (V/m) @ t=0.5
-0.7710044329940172
% es.tEX (V/m) @ t=0.5
1.5534283613050768
% es.tEY (V/m) @ t=0.5
0
% es.tEZ (V/m) @ t=0.5
-0.7710044329940118
% es.Ex (V/m) @ t=0.5
1.5534283613050723
% es.Ey (V/m) @ t=0.5
0.059770176099751826
% es.Ez (V/m) @ t=0.5
-0.7710044329940172
% es.tEx (V/m) @ t=0.5
1.5534283613050768
% es.tEy (V/m) @ t=0.5
0
% es.tEz (V/m) @ t=0.5
-0.7710044329940118
% V (V) @ t=0.5
0.007872654265458565
% es.normE (V/m) @ t=0.52
1.7507836294267154
% es.EX (V/m) @ t=0.52
1.5673167349481925
% es.EY (V/m) @ t=0.52
0.060304648364950864
% es.EZ (V/m) @ t=0.52
-0.7778977289388026
% es.tEX (V/m) @ t=0.52
1.5673167349481893
% es.tEY (V/m) @ t=0.52
0
% es.tEZ (V/m) @ t=0.52
-0.7778977289387932
% es.Ex (V/m) @ t=0.52
1.5673167349481925
% es.Ey (V/m) @ t=0.52
0.060304648364950864
% es.Ez (V/m) @ t=0.52
-0.7778977289388026
% es.tEx (V/m) @ t=0.52
1.5673167349481893
% es.tEy (V/m) @ t=0.52
0
% es.tEz (V/m) @ t=0.52
-0.7778977289387932
% V (V) @ t=0.52
0.007943021931671127
% es.normE (V/m) @ t=0.54
1.7662978202146995
% es.EX (V/m) @ t=0.54
1.5812051085913013
% es.EY (V/m) @ t=0.54
0.06083912063015476
% es.EZ (V/m) @ t=0.54
-0.7847910248835808
% es.tEX (V/m) @ t=0.54
1.5812051085913081
% es.tEY (V/m) @ t=0.54
0
% es.tEZ (V/m) @ t=0.54
-0.7847910248835781
% es.Ex (V/m) @ t=0.54
1.5812051085913013
% es.Ey (V/m) @ t=0.54
0.06083912063015476
% es.Ez (V/m) @ t=0.54
-0.7847910248835808
% es.tEx (V/m) @ t=0.54
1.5812051085913081
% es.tEy (V/m) @ t=0.54
0
% es.tEz (V/m) @ t=0.54
-0.7847910248835781
% V (V) @ t=0.54
0.00801338959788369
% es.normE (V/m) @ t=0.56
1.783122202998495
% es.EX (V/m) @ t=0.56
1.5962664293050761
% es.EY (V/m) @ t=0.56
0.061418645291239166
% es.EZ (V/m) @ t=0.56
-0.7922663590957512
% es.tEX (V/m) @ t=0.56
1.5962664293050723
% es.tEY (V/m) @ t=0.56
0
% es.tEZ (V/m) @ t=0.56
-0.7922663590957448
% es.Ex (V/m) @ t=0.56
1.5962664293050761
% es.Ey (V/m) @ t=0.56
0.061418645291239166
% es.Ez (V/m) @ t=0.56
-0.7922663590957512
% es.tEx (V/m) @ t=0.56
1.5962664293050723
% es.tEy (V/m) @ t=0.56
0
% es.tEz (V/m) @ t=0.56
-0.7922663590957448
% V (V) @ t=0.56
0.008089715523466311
% es.normE (V/m) @ t=0.58
1.8004431179591256
% es.EX (V/m) @ t=0.58
1.6117722695733636
% es.EY (V/m) @ t=0.58
0.062015243758546224
% es.EZ (V/m) @ t=0.58
-0.7999622722222028
% es.tEX (V/m) @ t=0.58
1.61177226957337
% es.tEY (V/m) @ t=0.58
0
% es.tEZ (V/m) @ t=0.58
-0.7999622722222028
% es.Ex (V/m) @ t=0.58
1.6117722695733636
% es.Ey (V/m) @ t=0.58
0.062015243758546224
% es.Ez (V/m) @ t=0.58
-0.7999622722222028
% es.tEx (V/m) @ t=0.58
1.61177226957337
% es.tEy (V/m) @ t=0.58
0
% es.tEz (V/m) @ t=0.58
-0.7999622722222028
% V (V) @ t=0.58
0.00816829949024038
% es.normE (V/m) @ t=0.6
1.8177640329197793
% es.EX (V/m) @ t=0.6
1.627278109841672
% es.EY (V/m) @ t=0.6
0.06261184222585775
% es.EZ (V/m) @ t=0.6
-0.8076581853486635
% es.tEX (V/m) @ t=0.6
1.627278109841673
% es.tEY (V/m) @ t=0.6
0
% es.tEZ (V/m) @ t=0.6
-0.8076581853486573
% es.Ex (V/m) @ t=0.6
1.627278109841672
% es.Ey (V/m) @ t=0.6
0.06261184222585775
% es.Ez (V/m) @ t=0.6
-0.8076581853486635
% es.tEx (V/m) @ t=0.6
1.627278109841673
% es.tEy (V/m) @ t=0.6
0
% es.tEz (V/m) @ t=0.6
-0.8076581853486573
% V (V) @ t=0.6
0.00824688345701445
% es.normE (V/m) @ t=0.62
1.8350849478804059
% es.EX (V/m) @ t=0.62
1.6427839501099595
% es.EY (V/m) @ t=0.62
0.06320844069314349
% es.EZ (V/m) @ t=0.62
-0.8153540984751064
% es.tEX (V/m) @ t=0.62
1.6427839501099557
% es.tEY (V/m) @ t=0.62
0
% es.tEZ (V/m) @ t=0.62
-0.8153540984751011
% es.Ex (V/m) @ t=0.62
1.6427839501099595
% es.Ey (V/m) @ t=0.62
0.06320844069314349
% es.Ez (V/m) @ t=0.62
-0.8153540984751064
% es.tEx (V/m) @ t=0.62
1.6427839501099557
% es.tEy (V/m) @ t=0.62
0
% es.tEz (V/m) @ t=0.62
-0.8153540984751011
% V (V) @ t=0.62
0.008325467423788518
% es.normE (V/m) @ t=0.64
1.8524058628410613
% es.EX (V/m) @ t=0.64
1.6582897903782678
% es.EY (V/m) @ t=0.64
0.06380503916045721
% es.EZ (V/m) @ t=0.64
-0.8230500116015688
% es.tEX (V/m) @ t=0.64
1.6582897903782658
% es.tEY (V/m) @ t=0.64
0
% es.tEZ (V/m) @ t=0.64
-0.8230500116015627
% es.Ex (V/m) @ t=0.64
1.6582897903782678
% es.Ey (V/m) @ t=0.64
0.06380503916045721
% es.Ez (V/m) @ t=0.64
-0.8230500116015688
% es.tEx (V/m) @ t=0.64
1.6582897903782658
% es.tEy (V/m) @ t=0.64
0
% es.tEz (V/m) @ t=0.64
-0.8230500116015627
% V (V) @ t=0.64
0.008404051390562588
% es.normE (V/m) @ t=0.66
1.8697267778016864
% es.EX (V/m) @ t=0.66
1.673795630646556
% es.EY (V/m) @ t=0.66
0.06440163762775544
% es.EZ (V/m) @ t=0.66
-0.8307459247280045
% es.tEX (V/m) @ t=0.66
1.6737956306465565
% es.tEY (V/m) @ t=0.66
0
% es.tEZ (V/m) @ t=0.66
-0.8307459247279958
% es.Ex (V/m) @ t=0.66
1.673795630646556
% es.Ey (V/m) @ t=0.66
0.06440163762775544
% es.Ez (V/m) @ t=0.66
-0.8307459247280045
% es.tEx (V/m) @ t=0.66
1.6737956306465565
% es.tEy (V/m) @ t=0.66
0
% es.tEz (V/m) @ t=0.66
-0.8307459247279958
% V (V) @ t=0.66
0.008482635357336657
% es.normE (V/m) @ t=0.68
1.8870476927623256
% es.EX (V/m) @ t=0.68
1.6893014709148462
% es.EY (V/m) @ t=0.68
0.06499823609505362
% es.EZ (V/m) @ t=0.68
-0.8384418378544669
% es.tEX (V/m) @ t=0.68
1.6893014709148444
% es.tEY (V/m) @ t=0.68
0
% es.tEZ (V/m) @ t=0.68
-0.8384418378544645
% es.Ex (V/m) @ t=0.68
1.6893014709148462
% es.Ey (V/m) @ t=0.68
0.06499823609505362
% es.Ez (V/m) @ t=0.68
-0.8384418378544669
% es.tEx (V/m) @ t=0.68
1.6893014709148444
% es.tEy (V/m) @ t=0.68
0
% es.tEz (V/m) @ t=0.68
-0.8384418378544645
% V (V) @ t=0.68
0.008561219324110726
% es.normE (V/m) @ t=0.7
1.9043686077229824
% es.EX (V/m) @ t=0.7
1.7048073111831554
% es.EY (V/m) @ t=0.7
0.0655948345623687
% es.EZ (V/m) @ t=0.7
-0.8461377509809294
% es.tEX (V/m) @ t=0.7
1.7048073111831483
% es.tEY (V/m) @ t=0.7
0
% es.tEZ (V/m) @ t=0.7
-0.8461377509809225
% es.Ex (V/m) @ t=0.7
1.7048073111831554
% es.Ey (V/m) @ t=0.7
0.0655948345623687
% es.Ez (V/m) @ t=0.7
-0.8461377509809294
% es.tEx (V/m) @ t=0.7
1.7048073111831483
% es.tEy (V/m) @ t=0.7
0
% es.tEz (V/m) @ t=0.7
-0.8461377509809225
% V (V) @ t=0.7
0.008639803290884795
% es.normE (V/m) @ t=0.72
1.921689522683606
% es.EX (V/m) @ t=0.72
1.720313151451439
% es.EY (V/m) @ t=0.72
0.06619143302967043
% es.EZ (V/m) @ t=0.72
-0.8538336641073686
% es.tEX (V/m) @ t=0.72
1.7203131514514451
% es.tEY (V/m) @ t=0.72
0
% es.tEZ (V/m) @ t=0.72
-0.8538336641073698
% es.Ex (V/m) @ t=0.72
1.720313151451439
% es.Ey (V/m) @ t=0.72
0.06619143302967043
% es.Ez (V/m) @ t=0.72
-0.8538336641073686
% es.tEx (V/m) @ t=0.72
1.7203131514514451
% es.tEy (V/m) @ t=0.72
0
% es.tEz (V/m) @ t=0.72
-0.8538336641073698
% V (V) @ t=0.72
0.008718387257658866
% es.normE (V/m) @ t=0.74
1.9390104376442392
% es.EX (V/m) @ t=0.74
1.7358189917197295
% es.EY (V/m) @ t=0.74
0.06678803149694379
% es.EZ (V/m) @ t=0.74
-0.8615295772338168
% es.tEX (V/m) @ t=0.74
1.7358189917197269
% es.tEY (V/m) @ t=0.74
0
% es.tEZ (V/m) @ t=0.74
-0.8615295772338172
% es.Ex (V/m) @ t=0.74
1.7358189917197295
% es.Ey (V/m) @ t=0.74
0.06678803149694379
% es.Ez (V/m) @ t=0.74
-0.8615295772338168
% es.tEx (V/m) @ t=0.74
1.7358189917197269
% es.tEy (V/m) @ t=0.74
0
% es.tEz (V/m) @ t=0.74
-0.8615295772338172
% V (V) @ t=0.74
0.008796971224432933
% es.normE (V/m) @ t=0.76
1.9563313526048802
% es.EX (V/m) @ t=0.76
1.7513248319880241
% es.EY (V/m) @ t=0.76
0.06738462996427039
% es.EZ (V/m) @ t=0.76
-0.8692254903602703
% es.tEX (V/m) @ t=0.76
1.7513248319880308
% es.tEY (V/m) @ t=0.76
0
% es.tEZ (V/m) @ t=0.76
-0.8692254903602645
% es.Ex (V/m) @ t=0.76
1.7513248319880241
% es.Ey (V/m) @ t=0.76
0.06738462996427039
% es.Ez (V/m) @ t=0.76
-0.8692254903602703
% es.tEx (V/m) @ t=0.76
1.7513248319880308
% es.tEy (V/m) @ t=0.76
0
% es.tEz (V/m) @ t=0.76
-0.8692254903602645
% V (V) @ t=0.76
0.008875555191207002
% es.normE (V/m) @ t=0.78
1.9736522675655168
% es.EX (V/m) @ t=0.78
1.7668306722563187
% es.EY (V/m) @ t=0.78
0.06798122843155394
% es.EZ (V/m) @ t=0.78
-0.8769214034867168
% es.tEX (V/m) @ t=0.78
1.7668306722563205
% es.tEY (V/m) @ t=0.78
0
% es.tEZ (V/m) @ t=0.78
-0.8769214034866977
% es.Ex (V/m) @ t=0.78
1.7668306722563187
% es.Ey (V/m) @ t=0.78
0.06798122843155394
% es.Ez (V/m) @ t=0.78
-0.8769214034867168
% es.tEx (V/m) @ t=0.78
1.7668306722563205
% es.tEy (V/m) @ t=0.78
0
% es.tEz (V/m) @ t=0.78
-0.8769214034866977
% V (V) @ t=0.78
0.008954139157981073
% es.normE (V/m) @ t=0.8
1.990973182526169
% es.EX (V/m) @ t=0.8
1.7823365125246236
% es.EY (V/m) @ t=0.8
0.06857782689886899
% es.EZ (V/m) @ t=0.8
-0.8846173166131738
% es.tEX (V/m) @ t=0.8
1.7823365125246227
% es.tEY (V/m) @ t=0.8
0
% es.tEZ (V/m) @ t=0.8
-0.8846173166131734
% es.Ex (V/m) @ t=0.8
1.7823365125246236
% es.Ey (V/m) @ t=0.8
0.06857782689886899
% es.Ez (V/m) @ t=0.8
-0.8846173166131738
% es.tEx (V/m) @ t=0.8
1.7823365125246227
% es.tEy (V/m) @ t=0.8
0
% es.tEz (V/m) @ t=0.8
-0.8846173166131734
% V (V) @ t=0.8
0.009032723124755143
% es.normE (V/m) @ t=0.82
2.00848431557346
% es.EX (V/m) @ t=0.82
1.7980126410489188
% es.EY (V/m) @ t=0.82
0.06918097234260179
% es.EZ (V/m) @ t=0.82
-0.8923977399008487
% es.tEX (V/m) @ t=0.82
1.7980126410489152
% es.tEY (V/m) @ t=0.82
0
% es.tEZ (V/m) @ t=0.82
-0.8923977399008507
% es.Ex (V/m) @ t=0.82
1.7980126410489188
% es.Ey (V/m) @ t=0.82
0.06918097234260179
% es.Ez (V/m) @ t=0.82
-0.8923977399008487
% es.tEx (V/m) @ t=0.82
1.7980126410489152
% es.tEy (V/m) @ t=0.82
0
% es.tEz (V/m) @ t=0.82
-0.8923977399008507
% V (V) @ t=0.82
0.009112170999570013
% es.normE (V/m) @ t=0.84
2.0278559777761984
% es.EX (V/m) @ t=0.84
1.8153543644211951
% es.EY (V/m) @ t=0.84
0.06984815397098168
% es.EZ (V/m) @ t=0.84
-0.9010047597633027
% es.tEX (V/m) @ t=0.84
1.8153543644211956
% es.tEY (V/m) @ t=0.84
0
% es.tEZ (V/m) @ t=0.84
-0.9010047597632962
% es.Ex (V/m) @ t=0.84
1.8153543644211951
% es.Ey (V/m) @ t=0.84
0.06984815397098168
% es.Ez (V/m) @ t=0.84
-0.9010047597633027
% es.tEx (V/m) @ t=0.84
1.8153543644211956
% es.tEy (V/m) @ t=0.84
0
% es.tEz (V/m) @ t=0.84
-0.9010047597632962
% V (V) @ t=0.84
0.009200068786408593
% es.normE (V/m) @ t=0.86
2.0472276399789346
% es.EX (V/m) @ t=0.86
1.8326960877934648
% es.EY (V/m) @ t=0.86
0.07051533559935846
% es.EZ (V/m) @ t=0.86
-0.9096117796257444
% es.tEX (V/m) @ t=0.86
1.832696087793468
% es.tEY (V/m) @ t=0.86
0
% es.tEZ (V/m) @ t=0.86
-0.9096117796257488
% es.Ex (V/m) @ t=0.86
1.8326960877934648
% es.Ey (V/m) @ t=0.86
0.07051533559935846
% es.Ez (V/m) @ t=0.86
-0.9096117796257444
% es.tEx (V/m) @ t=0.86
1.832696087793468
% es.tEy (V/m) @ t=0.86
0
% es.tEz (V/m) @ t=0.86
-0.9096117796257488
% V (V) @ t=0.86
0.009287966573247174
% es.normE (V/m) @ t=0.88
2.066599302181698
% es.EX (V/m) @ t=0.88
1.8500378111657485
% es.EY (V/m) @ t=0.88
0.07118251722773838
% es.EZ (V/m) @ t=0.88
-0.9182187994881967
% es.tEX (V/m) @ t=0.88
1.8500378111657412
% es.tEY (V/m) @ t=0.88
0
% es.tEZ (V/m) @ t=0.88
-0.9182187994881872
% es.Ex (V/m) @ t=0.88
1.8500378111657485
% es.Ey (V/m) @ t=0.88
0.07118251722773838
% es.Ez (V/m) @ t=0.88
-0.9182187994881967
% es.tEx (V/m) @ t=0.88
1.8500378111657412
% es.tEy (V/m) @ t=0.88
0
% es.tEz (V/m) @ t=0.88
-0.9182187994881872
% V (V) @ t=0.88
0.009375864360085754
% es.normE (V/m) @ t=0.9
2.085970964384469
% es.EX (V/m) @ t=0.9
1.8673795345380249
% es.EY (V/m) @ t=0.9
0.07184969885612186
% es.EZ (V/m) @ t=0.9
-0.9268258193506598
% es.tEX (V/m) @ t=0.9
1.8673795345380197
% es.tEY (V/m) @ t=0.9
0
% es.tEZ (V/m) @ t=0.9
-0.9268258193506469
% es.Ex (V/m) @ t=0.9
1.8673795345380249
% es.Ey (V/m) @ t=0.9
0.07184969885612186
% es.Ez (V/m) @ t=0.9
-0.9268258193506598
% es.tEx (V/m) @ t=0.9
1.8673795345380197
% es.tEy (V/m) @ t=0.9
0
% es.tEz (V/m) @ t=0.9
-0.9268258193506469
% V (V) @ t=0.9
0.009463762146924333
% es.normE (V/m) @ t=0.92
2.1053426265872206
% es.EX (V/m) @ t=0.92
1.8847212579102872
% es.EY (V/m) @ t=0.92
0.07251688048448979
% es.EZ (V/m) @ t=0.92
-0.9354328392130891
% es.tEX (V/m) @ t=0.92
1.884721257910293
% es.tEY (V/m) @ t=0.92
0
% es.tEZ (V/m) @ t=0.92
-0.9354328392130853
% es.Ex (V/m) @ t=0.92
1.8847212579102872
% es.Ey (V/m) @ t=0.92
0.07251688048448979
% es.Ez (V/m) @ t=0.92
-0.9354328392130891
% es.tEx (V/m) @ t=0.92
1.884721257910293
% es.tEy (V/m) @ t=0.92
0
% es.tEz (V/m) @ t=0.92
-0.9354328392130853
% V (V) @ t=0.92
0.009551659933762913
% es.normE (V/m) @ t=0.94
2.1247142887900132
% es.EX (V/m) @ t=0.94
1.9020629812825676
% es.EY (V/m) @ t=0.94
0.07318406211289813
% es.EZ (V/m) @ t=0.94
-0.9440398590755502
% es.tEX (V/m) @ t=0.94
1.9020629812825725
% es.tEY (V/m) @ t=0.94
0
% es.tEZ (V/m) @ t=0.94
-0.9440398590755379
% es.Ex (V/m) @ t=0.94
1.9020629812825676
% es.Ey (V/m) @ t=0.94
0.07318406211289813
% es.Ez (V/m) @ t=0.94
-0.9440398590755502
% es.tEx (V/m) @ t=0.94
1.9020629812825725
% es.tEy (V/m) @ t=0.94
0
% es.tEz (V/m) @ t=0.94
-0.9440398590755379
% V (V) @ t=0.94
0.009639557720601492
% es.normE (V/m) @ t=0.96
2.1440859509927988
% es.EX (V/m) @ t=0.96
1.9194047046548404
% es.EY (V/m) @ t=0.96
0.07385124374127716
% es.EZ (V/m) @ t=0.96
-0.9526468789379936
% es.tEX (V/m) @ t=0.96
1.9194047046548386
% es.tEY (V/m) @ t=0.96
0
% es.tEZ (V/m) @ t=0.96
-0.9526468789379905
% es.Ex (V/m) @ t=0.96
1.9194047046548404
% es.Ey (V/m) @ t=0.96
0.07385124374127716
% es.Ez (V/m) @ t=0.96
-0.9526468789379936
% es.tEx (V/m) @ t=0.96
1.9194047046548386
% es.tEy (V/m) @ t=0.96
0
% es.tEz (V/m) @ t=0.96
-0.9526468789379905
% V (V) @ t=0.96
0.00972745550744007
% es.normE (V/m) @ t=0.98
2.1634576131955843
% es.EX (V/m) @ t=0.98
1.9367464280271027
% es.EY (V/m) @ t=0.98
0.07451842536965353
% es.EZ (V/m) @ t=0.98
-0.9612538988004407
% es.tEX (V/m) @ t=0.98
1.936746428027103
% es.tEY (V/m) @ t=0.98
0
% es.tEZ (V/m) @ t=0.98
-0.961253898800436
% es.Ex (V/m) @ t=0.98
1.9367464280271027
% es.Ey (V/m) @ t=0.98
0.07451842536965353
% es.Ez (V/m) @ t=0.98
-0.9612538988004407
% es.tEx (V/m) @ t=0.98
1.936746428027103
% es.tEy (V/m) @ t=0.98
0
% es.tEz (V/m) @ t=0.98
-0.961253898800436
% V (V) @ t=0.98
0.00981535329427865
% es.normE (V/m) @ t=1
2.182829275398414
% es.EX (V/m) @ t=1
1.9540881513993975
% es.EY (V/m) @ t=1
0.07518560699805477
% es.EZ (V/m) @ t=1
-0.9698609186629019
% es.tEX (V/m) @ t=1
1.9540881513993984
% es.tEY (V/m) @ t=1
0
% es.tEZ (V/m) @ t=1
-0.9698609186628886
% es.Ex (V/m) @ t=1
1.9540881513993975
% es.Ey (V/m) @ t=1
0.07518560699805477
% es.Ez (V/m) @ t=1
-0.9698609186629019
% es.tEx (V/m) @ t=1
1.9540881513993984
% es.tEy (V/m) @ t=1
0
% es.tEz (V/m) @ t=1
-0.9698609186628886
% V (V) @ t=1
0.009903251081117233
% es.normE (V/m) @ t=1.02
2.2022009376012273
% es.EX (V/m) @ t=1.02
1.9714298747716703
% es.EY (V/m) @ t=1.02
0.0758527886264258
% es.EZ (V/m) @ t=1.02
-0.9784679385253525
% es.tEX (V/m) @ t=1.02
1.9714298747716628
% es.tEY (V/m) @ t=1.02
0
% es.tEZ (V/m) @ t=1.02
-0.9784679385253483
% es.Ex (V/m) @ t=1.02
1.9714298747716703
% es.Ey (V/m) @ t=1.02
0.0758527886264258
% es.Ez (V/m) @ t=1.02
-0.9784679385253525
% es.tEx (V/m) @ t=1.02
1.9714298747716628
% es.tEy (V/m) @ t=1.02
0
% es.tEz (V/m) @ t=1.02
-0.9784679385253483
% V (V) @ t=1.02
0.009991148867955813
% es.normE (V/m) @ t=1.04
2.2215725998040323
% es.EX (V/m) @ t=1.04
1.9887715981439325
% es.EY (V/m) @ t=1.04
0.07651997025479237
% es.EZ (V/m) @ t=1.04