% Model:              1 neuron.mph
% Version:            COMSOL 6.1.0.252
% Date:               Mar 18 2023, 12:07
% Dimension:          0
% Nodes:              14017
% Expressions:        14017
% Description:        Electric field norm, Electric field, X component, Electric field, Y component, Electric field, Z component, Tangential electric field, X component, Tangential electric field, Y component, Tangential electric field, Z component, Electric field, x component, Electric field, y component, Electric field, z component, Tangential electric field, x component, Tangential electric field, y component, Tangential electric field, z component, Electric potential
% Length unit:        mm
% x
1
% y
12.2
% z
1
% es.normE (V/m) @ t=0
0.7918124834784722
% es.EX (V/m) @ t=0
0.5376513950734001
% es.EY (V/m) @ t=0
0.15269955442075123
% es.EZ (V/m) @ t=0
0.5462770826711942
% es.tEX (V/m) @ t=0
0.5376513950733965
% es.tEY (V/m) @ t=0
0
% es.tEZ (V/m) @ t=0
0.5462770826711854
% es.Ex (V/m) @ t=0
0.5376513950734001
% es.Ey (V/m) @ t=0
0.15269955442075123
% es.Ez (V/m) @ t=0
0.5462770826711942
% es.tEx (V/m) @ t=0
0.5376513950733965
% es.tEy (V/m) @ t=0
0
% es.tEz (V/m) @ t=0
0.5462770826711854
% V (V) @ t=0
0.007425061083748767
% es.normE (V/m) @ t=0.02
0.6838966872970624
% es.EX (V/m) @ t=0.02
0.4643751080746128
% es.EY (V/m) @ t=0.02
0.1318881966615697
% es.EZ (V/m) @ t=0.02
0.47182520465383515
% es.tEX (V/m) @ t=0.02
0.4643751080746128
% es.tEY (V/m) @ t=0.02
0
% es.tEZ (V/m) @ t=0.02
0.47182520465382893
% es.Ex (V/m) @ t=0.02
0.4643751080746128
% es.Ey (V/m) @ t=0.02
0.1318881966615697
% es.Ez (V/m) @ t=0.02
0.47182520465383515
% es.tEx (V/m) @ t=0.02
0.4643751080746128
% es.tEy (V/m) @ t=0.02
0
% es.tEz (V/m) @ t=0.02
0.47182520465382893
% V (V) @ t=0.02
0.006413102528125745
% es.normE (V/m) @ t=0.04
0.6901869636745129
% es.EX (V/m) @ t=0.04
0.468646288067772
% es.EY (V/m) @ t=0.04
0.1331012721999585
% es.EZ (V/m) @ t=0.04
0.476164910410497
% es.tEX (V/m) @ t=0.04
0.46864628806777375
% es.tEY (V/m) @ t=0.04
0
% es.tEZ (V/m) @ t=0.04
0.4761649104104855
% es.Ex (V/m) @ t=0.04
0.468646288067772
% es.Ey (V/m) @ t=0.04
0.1331012721999585
% es.Ez (V/m) @ t=0.04
0.476164910410497
% es.tEx (V/m) @ t=0.04
0.46864628806777375
% es.tEy (V/m) @ t=0.04
0
% es.tEz (V/m) @ t=0.04
0.4761649104104855
% V (V) @ t=0.04
0.006472088067993614
% es.normE (V/m) @ t=0.06
0.6965352306635266
% es.EX (V/m) @ t=0.06
0.47295684564456586
% es.EY (V/m) @ t=0.06
0.13432552791256658
% es.EZ (V/m) @ t=0.06
0.4805446246458329
% es.tEX (V/m) @ t=0.06
0.4729568456445534
% es.tEY (V/m) @ t=0.06
0
% es.tEZ (V/m) @ t=0.06
0.4805446246458267
% es.Ex (V/m) @ t=0.06
0.47295684564456586
% es.Ey (V/m) @ t=0.06
0.13432552791256658
% es.Ez (V/m) @ t=0.06
0.4805446246458329
% es.tEx (V/m) @ t=0.06
0.4729568456445534
% es.tEy (V/m) @ t=0.06
0
% es.tEz (V/m) @ t=0.06
0.4805446246458267
% V (V) @ t=0.06
0.006531617494909676
% es.normE (V/m) @ t=0.08
0.7029774081421393
% es.EX (V/m) @ t=0.08
0.47733117093327415
% es.EY (V/m) @ t=0.08
0.13556789089473487
% es.EZ (V/m) @ t=0.08
0.4849891287393362
% es.tEX (V/m) @ t=0.08
0.4773311709332688
% es.tEY (V/m) @ t=0.08
0
% es.tEZ (V/m) @ t=0.08
0.4849891287393291
% es.Ex (V/m) @ t=0.08
0.47733117093327415
% es.Ey (V/m) @ t=0.08
0.13556789089473487
% es.Ez (V/m) @ t=0.08
0.4849891287393362
% es.tEx (V/m) @ t=0.08
0.4773311709332688
% es.tEy (V/m) @ t=0.08
0
% es.tEz (V/m) @ t=0.08
0.4849891287393291
% V (V) @ t=0.08
0.006592027667174247
% es.normE (V/m) @ t=0.1
0.7094910558530485
% es.EX (V/m) @ t=0.1
0.4817540264042979
% es.EY (V/m) @ t=0.1
0.13682403434771206
% es.EZ (V/m) @ t=0.1
0.4894829409158392
% es.tEX (V/m) @ t=0.1
0.4817540264042961
% es.tEY (V/m) @ t=0.1
0
% es.tEZ (V/m) @ t=0.1
0.4894829409158348
% es.Ex (V/m) @ t=0.1
0.4817540264042979
% es.Ey (V/m) @ t=0.1
0.13682403434771206
% es.Ez (V/m) @ t=0.1
0.4894829409158392
% es.tEx (V/m) @ t=0.1
0.4817540264042961
% es.tEy (V/m) @ t=0.1
0
% es.tEz (V/m) @ t=0.1
0.4894829409158348
% V (V) @ t=0.1
0.00665310812744275
% es.normE (V/m) @ t=0.12
0.7160047035639605
% es.EX (V/m) @ t=0.12
0.48617688187533226
% es.EY (V/m) @ t=0.12
0.13808017780065907
% es.EZ (V/m) @ t=0.12
0.4939767530923458
% es.tEX (V/m) @ t=0.12
0.4861768818753234
% es.tEY (V/m) @ t=0.12
0
% es.tEZ (V/m) @ t=0.12
0.4939767530923369
% es.Ex (V/m) @ t=0.12
0.48617688187533226
% es.Ey (V/m) @ t=0.12
0.13808017780065907
% es.Ez (V/m) @ t=0.12
0.4939767530923458
% es.tEx (V/m) @ t=0.12
0.4861768818753234
% es.tEy (V/m) @ t=0.12
0
% es.tEz (V/m) @ t=0.12
0.4939767530923369
% V (V) @ t=0.12
0.006714188587711254
% es.normE (V/m) @ t=0.14
0.7225692935195154
% es.EX (V/m) @ t=0.14
0.49063432357576353
% es.EY (V/m) @ t=0.14
0.13934615679485152
% es.EZ (V/m) @ t=0.14
0.49850570946728645
% es.tEX (V/m) @ t=0.14
0.49063432357576886
% es.tEY (V/m) @ t=0.14
0
% es.tEZ (V/m) @ t=0.14
0.498505709467274
% es.Ex (V/m) @ t=0.14
0.49063432357576353
% es.Ey (V/m) @ t=0.14
0.13934615679485152
% es.Ez (V/m) @ t=0.14
0.49850570946728645
% es.tEx (V/m) @ t=0.14
0.49063432357576886
% es.tEy (V/m) @ t=0.14
0
% es.tEz (V/m) @ t=0.14
0.498505709467274
% V (V) @ t=0.14
0.0067757463867263975
% es.normE (V/m) @ t=0.16
0.7294325449731796
% es.EX (V/m) @ t=0.16
0.4952945355930467
% es.EY (V/m) @ t=0.16
0.14066979907992572
% es.EZ (V/m) @ t=0.16
0.5032407073904785
% es.tEX (V/m) @ t=0.16
0.4952945355930325
% es.tEY (V/m) @ t=0.16
0
% es.tEZ (V/m) @ t=0.16
0.5032407073904679
% es.Ex (V/m) @ t=0.16
0.4952945355930467
% es.Ey (V/m) @ t=0.16
0.14066979907992572
% es.Ez (V/m) @ t=0.16
0.5032407073904785
% es.tEx (V/m) @ t=0.16
0.4952945355930325
% es.tEy (V/m) @ t=0.16
0
% es.tEz (V/m) @ t=0.16
0.5032407073904679
% V (V) @ t=0.16
0.006840102702103364
% es.normE (V/m) @ t=0.18
0.7362957964268599
% es.EX (V/m) @ t=0.18
0.4999547476103299
% es.EY (V/m) @ t=0.18
0.14199344136497416
% es.EZ (V/m) @ t=0.18
0.5079757053136849
% es.tEX (V/m) @ t=0.18
0.49995474761031033
% es.tEY (V/m) @ t=0.18
0
% es.tEZ (V/m) @ t=0.18
0.5079757053136795
% es.Ex (V/m) @ t=0.18
0.4999547476103299
% es.Ey (V/m) @ t=0.18
0.14199344136497416
% es.Ez (V/m) @ t=0.18
0.5079757053136849
% es.tEx (V/m) @ t=0.18
0.49995474761031033
% es.tEy (V/m) @ t=0.18
0
% es.tEz (V/m) @ t=0.18
0.5079757053136795
% V (V) @ t=0.18
0.006904459017480331
% es.normE (V/m) @ t=0.2
0.7431590478805526
% es.EX (V/m) @ t=0.2
0.5046149596276006
% es.EY (V/m) @ t=0.2
0.1433170836500679
% es.EZ (V/m) @ t=0.2
0.5127107032368796
% es.tEX (V/m) @ t=0.2
0.5046149596275953
% es.tEY (V/m) @ t=0.2
0
% es.tEZ (V/m) @ t=0.2
0.5127107032368734
% es.Ex (V/m) @ t=0.2
0.5046149596276006
% es.Ey (V/m) @ t=0.2
0.1433170836500679
% es.Ez (V/m) @ t=0.2
0.5127107032368796
% es.tEx (V/m) @ t=0.2
0.5046149596275953
% es.tEy (V/m) @ t=0.2
0
% es.tEz (V/m) @ t=0.2
0.5127107032368734
% V (V) @ t=0.2
0.006968815332857299
% es.normE (V/m) @ t=0.22
0.750022299334256
% es.EX (V/m) @ t=0.22
0.5092751716448731
% es.EY (V/m) @ t=0.22
0.14464072593514388
% es.EZ (V/m) @ t=0.22
0.5174457011600753
% es.tEX (V/m) @ t=0.22
0.509275171644866
% es.tEY (V/m) @ t=0.22
0
% es.tEZ (V/m) @ t=0.22
0.5174457011600637
% es.Ex (V/m) @ t=0.22
0.5092751716448731
% es.Ey (V/m) @ t=0.22
0.14464072593514388
% es.Ez (V/m) @ t=0.22
0.5174457011600753
% es.tEx (V/m) @ t=0.22
0.509275171644866
% es.tEy (V/m) @ t=0.22
0
% es.tEz (V/m) @ t=0.22
0.5174457011600637
% V (V) @ t=0.22
0.007033171648234264
% es.normE (V/m) @ t=0.24
0.7568855507879613
% es.EX (V/m) @ t=0.24
0.5139353836621385
% es.EY (V/m) @ t=0.24
0.14596436822021452
% es.EZ (V/m) @ t=0.24
0.52218069908327
% es.tEX (V/m) @ t=0.24
0.5139353836621368
% es.tEY (V/m) @ t=0.24
0
% es.tEZ (V/m) @ t=0.24
0.5221806990832611
% es.Ex (V/m) @ t=0.24
0.5139353836621385
% es.Ey (V/m) @ t=0.24
0.14596436822021452
% es.Ez (V/m) @ t=0.24
0.52218069908327
% es.tEx (V/m) @ t=0.24
0.5139353836621368
% es.tEy (V/m) @ t=0.24
0
% es.tEz (V/m) @ t=0.24
0.5221806990832611
% V (V) @ t=0.24
0.00709752796361123
% es.normE (V/m) @ t=0.26
0.7637488022416965
% es.EX (V/m) @ t=0.26
0.518595595679427
% es.EY (V/m) @ t=0.26
0.14728801050531182
% es.EZ (V/m) @ t=0.26
0.5269156970064559
% es.tEX (V/m) @ t=0.26
0.5185955956794146
% es.tEY (V/m) @ t=0.26
0
% es.tEZ (V/m) @ t=0.26
0.5269156970064479
% es.Ex (V/m) @ t=0.26
0.518595595679427
% es.Ey (V/m) @ t=0.26
0.14728801050531182
% es.Ez (V/m) @ t=0.26
0.5269156970064559
% es.tEx (V/m) @ t=0.26
0.5185955956794146
% es.tEy (V/m) @ t=0.26
0
% es.tEz (V/m) @ t=0.26
0.5269156970064479
% V (V) @ t=0.26
0.007161884278988197
% es.normE (V/m) @ t=0.28
0.7708497472270494
% es.EX (V/m) @ t=0.28
0.5234172151057219
% es.EY (V/m) @ t=0.28
0.14865746445049766
% es.EZ (V/m) @ t=0.28
0.5318146843016649
% es.tEX (V/m) @ t=0.28
0.5234172151057166
% es.tEY (V/m) @ t=0.28
0
% es.tEZ (V/m) @ t=0.28
0.5318146843016613
% es.Ex (V/m) @ t=0.28
0.5234172151057219
% es.Ey (V/m) @ t=0.28
0.14865746445049766
% es.Ez (V/m) @ t=0.28
0.5318146843016649
% es.tEx (V/m) @ t=0.28
0.5234172151057166
% es.tEy (V/m) @ t=0.28
0
% es.tEz (V/m) @ t=0.28
0.5318146843016613
% V (V) @ t=0.28
0.007228470500213847
% es.normE (V/m) @ t=0.3
0.7785014882311718
% es.EX (V/m) @ t=0.3
0.5286128563140675
% es.EY (V/m) @ t=0.3
0.15013307559672917
% es.EZ (V/m) @ t=0.3
0.537093676440155
% es.tEX (V/m) @ t=0.3
0.5286128563140622
% es.tEY (V/m) @ t=0.3
0
% es.tEZ (V/m) @ t=0.3
0.5370936764401506
% es.Ex (V/m) @ t=0.3
0.5286128563140675
% es.Ey (V/m) @ t=0.3
0.15013307559672917
% es.Ez (V/m) @ t=0.3
0.537093676440155
% es.tEx (V/m) @ t=0.3
0.5286128563140622
% es.tEy (V/m) @ t=0.3
0
% es.tEz (V/m) @ t=0.3
0.5370936764401506
% V (V) @ t=0.3
0.007300223977171694
% es.normE (V/m) @ t=0.32
0.786153229235276
% es.EX (V/m) @ t=0.32
0.5338084975224024
% es.EY (V/m) @ t=0.32
0.15160868674296601
% es.EZ (V/m) @ t=0.32
0.5423726685786212
% es.tEX (V/m) @ t=0.32
0.5338084975223865
% es.tEY (V/m) @ t=0.32
0
% es.tEZ (V/m) @ t=0.32
0.5423726685786114
% es.Ex (V/m) @ t=0.32
0.5338084975224024
% es.Ey (V/m) @ t=0.32
0.15160868674296601
% es.Ez (V/m) @ t=0.32
0.5423726685786212
% es.tEx (V/m) @ t=0.32
0.5338084975223865
% es.tEy (V/m) @ t=0.32
0
% es.tEz (V/m) @ t=0.32
0.5423726685786114
% V (V) @ t=0.32
0.0073719774541295404
% es.normE (V/m) @ t=0.34
0.7938049702394023
% es.EX (V/m) @ t=0.34
0.5390041387307605
% es.EY (V/m) @ t=0.34
0.15308429788919042
% es.EZ (V/m) @ t=0.34
0.5476516607171034
% es.tEX (V/m) @ t=0.34
0.5390041387307747
% es.tEY (V/m) @ t=0.34
0
% es.tEZ (V/m) @ t=0.34
0.5476516607170971
% es.Ex (V/m) @ t=0.34
0.5390041387307605
% es.Ey (V/m) @ t=0.34
0.15308429788919042
% es.Ez (V/m) @ t=0.34
0.5476516607171034
% es.tEx (V/m) @ t=0.34
0.5390041387307747
% es.tEy (V/m) @ t=0.34
0
% es.tEz (V/m) @ t=0.34
0.5476516607170971
% V (V) @ t=0.34
0.007443730931087389
% es.normE (V/m) @ t=0.36
0.801456711243538
% es.EX (V/m) @ t=0.36
0.5441997799391327
% es.EY (V/m) @ t=0.36
0.1545599090354095
% es.EZ (V/m) @ t=0.36
0.55293065285559
% es.tEX (V/m) @ t=0.36
0.5441997799391345
% es.tEY (V/m) @ t=0.36
0
% es.tEZ (V/m) @ t=0.36
0.5529306528555757
% es.Ex (V/m) @ t=0.36
0.5441997799391327
% es.Ey (V/m) @ t=0.36
0.1545599090354095
% es.Ez (V/m) @ t=0.36
0.55293065285559
% es.tEx (V/m) @ t=0.36
0.5441997799391345
% es.tEy (V/m) @ t=0.36
0
% es.tEz (V/m) @ t=0.36
0.5529306528555757
% V (V) @ t=0.36
0.007515484408045236
% es.normE (V/m) @ t=0.38
0.8091084522476666
% es.EX (V/m) @ t=0.38
0.5493954211474907
% es.EY (V/m) @ t=0.38
0.15603552018163747
% es.EZ (V/m) @ t=0.38
0.5582096449940721
% es.tEX (V/m) @ t=0.38
0.5493954211474943
% es.tEY (V/m) @ t=0.38
0
% es.tEZ (V/m) @ t=0.38
0.5582096449940579
% es.Ex (V/m) @ t=0.38
0.5493954211474907
% es.Ey (V/m) @ t=0.38
0.15603552018163747
% es.Ez (V/m) @ t=0.38
0.5582096449940721
% es.tEx (V/m) @ t=0.38
0.5493954211474943
% es.tEy (V/m) @ t=0.38
0
% es.tEz (V/m) @ t=0.38
0.5582096449940579
% V (V) @ t=0.38
0.007587237885003083
% es.normE (V/m) @ t=0.4
0.8167601932517777
% es.EX (V/m) @ t=0.4
0.5545910623558434
% es.EY (V/m) @ t=0.4
0.15751113132784766
% es.EZ (V/m) @ t=0.4
0.5634886371325409
% es.tEX (V/m) @ t=0.4
0.5545910623558399
% es.tEY (V/m) @ t=0.4
0
% es.tEZ (V/m) @ t=0.4
0.5634886371325329
% es.Ex (V/m) @ t=0.4
0.5545910623558434
% es.Ey (V/m) @ t=0.4
0.15751113132784766
% es.Ez (V/m) @ t=0.4
0.5634886371325409
% es.tEx (V/m) @ t=0.4
0.5545910623558399
% es.tEy (V/m) @ t=0.4
0
% es.tEz (V/m) @ t=0.4
0.5634886371325329
% V (V) @ t=0.4
0.00765899136196093
% es.normE (V/m) @ t=0.42
0.8244119342559071
% es.EX (V/m) @ t=0.42
0.5597867035642032
% es.EY (V/m) @ t=0.42
0.15898674247408806
% es.EZ (V/m) @ t=0.42
0.5687676292710195
% es.tEX (V/m) @ t=0.42
0.5597867035641997
% es.tEY (V/m) @ t=0.42
0
% es.tEZ (V/m) @ t=0.42
0.5687676292710115
% es.Ex (V/m) @ t=0.42
0.5597867035642032
% es.Ey (V/m) @ t=0.42
0.15898674247408806
% es.Ez (V/m) @ t=0.42
0.5687676292710195
% es.tEx (V/m) @ t=0.42
0.5597867035641997
% es.tEy (V/m) @ t=0.42
0
% es.tEz (V/m) @ t=0.42
0.5687676292710115
% V (V) @ t=0.42
0.007730744838918778
% es.normE (V/m) @ t=0.44
0.8320636752600231
% es.EX (V/m) @ t=0.44
0.5649823447725488
% es.EY (V/m) @ t=0.44
0.1604623536203107
% es.EZ (V/m) @ t=0.44
0.5740466214094919
% es.tEX (V/m) @ t=0.44
0.5649823447725453
% es.tEY (V/m) @ t=0.44
0
% es.tEZ (V/m) @ t=0.44
0.574046621409483
% es.Ex (V/m) @ t=0.44
0.5649823447725488
% es.Ey (V/m) @ t=0.44
0.1604623536203107
% es.Ez (V/m) @ t=0.44
0.5740466214094919
% es.tEx (V/m) @ t=0.44
0.5649823447725453
% es.tEy (V/m) @ t=0.44
0
% es.tEz (V/m) @ t=0.44
0.574046621409483
% V (V) @ t=0.44
0.007802498315876625
% es.normE (V/m) @ t=0.46
0.8397154162641771
% es.EX (V/m) @ t=0.46
0.5701779859809228
% es.EY (V/m) @ t=0.46
0.16193796476652977
% es.EZ (V/m) @ t=0.46
0.5793256135479927
% es.tEX (V/m) @ t=0.46
0.5701779859809193
% es.tEY (V/m) @ t=0.46
0
% es.tEZ (V/m) @ t=0.46
0.579325613547983
% es.Ex (V/m) @ t=0.46
0.5701779859809228
% es.Ey (V/m) @ t=0.46
0.16193796476652977
% es.Ez (V/m) @ t=0.46
0.5793256135479927
% es.tEx (V/m) @ t=0.46
0.5701779859809193
% es.tEy (V/m) @ t=0.46
0
% es.tEz (V/m) @ t=0.46
0.579325613547983
% V (V) @ t=0.46
0.007874251792834474
% es.normE (V/m) @ t=0.48
0.8473671572682959
% es.EX (V/m) @ t=0.48
0.5753736271892862
% es.EY (V/m) @ t=0.48
0.16341357591274708
% es.EZ (V/m) @ t=0.48
0.5846046056864562
% es.tEX (V/m) @ t=0.48
0.5753736271892791
% es.tEY (V/m) @ t=0.48
0
% es.tEZ (V/m) @ t=0.48
0.5846046056864473
% es.Ex (V/m) @ t=0.48
0.5753736271892862
% es.Ey (V/m) @ t=0.48
0.16341357591274708
% es.Ez (V/m) @ t=0.48
0.5846046056864562
% es.tEx (V/m) @ t=0.48
0.5753736271892791
% es.tEy (V/m) @ t=0.48
0
% es.tEz (V/m) @ t=0.48
0.5846046056864473
% V (V) @ t=0.48
0.00794600526979232
% es.normE (V/m) @ t=0.5
0.8550188982724178
% es.EX (V/m) @ t=0.5
0.5805692683976318
% es.EY (V/m) @ t=0.5
0.16488918705896793
% es.EZ (V/m) @ t=0.5
0.5898835978249419
% es.tEX (V/m) @ t=0.5
0.5805692683976247
% es.tEY (V/m) @ t=0.5
0
% es.tEZ (V/m) @ t=0.5
0.589883597824933
% es.Ex (V/m) @ t=0.5
0.5805692683976318
% es.Ey (V/m) @ t=0.5
0.16488918705896793
% es.Ez (V/m) @ t=0.5
0.5898835978249419
% es.tEx (V/m) @ t=0.5
0.5805692683976247
% es.tEy (V/m) @ t=0.5
0
% es.tEz (V/m) @ t=0.5
0.589883597824933
% V (V) @ t=0.5
0.008017758746750167
% es.normE (V/m) @ t=0.52
0.8626706392765375
% es.EX (V/m) @ t=0.52
0.5857649096059809
% es.EY (V/m) @ t=0.52
0.16636479820520478
% es.EZ (V/m) @ t=0.52
0.5951625899634072
% es.tEX (V/m) @ t=0.52
0.5857649096059703
% es.tEY (V/m) @ t=0.52
0
% es.tEZ (V/m) @ t=0.52
0.5951625899633974
% es.Ex (V/m) @ t=0.52
0.5857649096059809
% es.Ey (V/m) @ t=0.52
0.16636479820520478
% es.Ez (V/m) @ t=0.52
0.5951625899634072
% es.tEx (V/m) @ t=0.52
0.5857649096059703
% es.tEy (V/m) @ t=0.52
0
% es.tEz (V/m) @ t=0.52
0.5951625899633974
% V (V) @ t=0.52
0.008089512223708016
% es.normE (V/m) @ t=0.54
0.8703223802807005
% es.EX (V/m) @ t=0.54
0.5909605508143692
% es.EY (V/m) @ t=0.54
0.16784040935142386
% es.EZ (V/m) @ t=0.54
0.6004415821019018
% es.tEX (V/m) @ t=0.54
0.5909605508143585
% es.tEY (V/m) @ t=0.54
0
% es.tEZ (V/m) @ t=0.54
0.6004415821018938
% es.Ex (V/m) @ t=0.54
0.5909605508143692
% es.Ey (V/m) @ t=0.54
0.16784040935142386
% es.Ez (V/m) @ t=0.54
0.6004415821019018
% es.tEx (V/m) @ t=0.54
0.5909605508143585
% es.tEy (V/m) @ t=0.54
0
% es.tEz (V/m) @ t=0.54
0.6004415821018938
% V (V) @ t=0.54
0.008161265700665863
% es.normE (V/m) @ t=0.56
0.8785219131260322
% es.EX (V/m) @ t=0.56
0.5965281418667594
% es.EY (V/m) @ t=0.56
0.16942168310032812
% es.EZ (V/m) @ t=0.56
0.6060984973874408
% es.tEX (V/m) @ t=0.56
0.5965281418667558
% es.tEY (V/m) @ t=0.56
0
% es.tEZ (V/m) @ t=0.56
0.6060984973874284
% es.Ex (V/m) @ t=0.56
0.5965281418667594
% es.Ey (V/m) @ t=0.56
0.16942168310032812
% es.Ez (V/m) @ t=0.56
0.6060984973874408
% es.tEx (V/m) @ t=0.56
0.5965281418667558
% es.tEy (V/m) @ t=0.56
0
% es.tEz (V/m) @ t=0.56
0.6060984973874284
% V (V) @ t=0.56
0.008238155248082447
% es.normE (V/m) @ t=0.58
0.8870673744752222
% es.EX (V/m) @ t=0.58
0.6023306178578736
% es.EY (V/m) @ t=0.58
0.17106968238858222
% es.EZ (V/m) @ t=0.58
0.6119940697302875
% es.tEX (V/m) @ t=0.58
0.6023306178578736
% es.tEY (V/m) @ t=0.58
0
% es.tEZ (V/m) @ t=0.58
0.6119940697302724
% es.Ex (V/m) @ t=0.58
0.6023306178578736
% es.Ey (V/m) @ t=0.58
0.17106968238858222
% es.Ez (V/m) @ t=0.58
0.6119940697302875
% es.tEx (V/m) @ t=0.58
0.6023306178578736
% es.tEy (V/m) @ t=0.58
0
% es.tEz (V/m) @ t=0.58
0.6119940697302724
% V (V) @ t=0.58
0.00831828820483058
% es.normE (V/m) @ t=0.6
0.8956128358244165
% es.EX (V/m) @ t=0.6
0.6081330938489806
% es.EY (V/m) @ t=0.6
0.17271768167683987
% es.EZ (V/m) @ t=0.6
0.6178896420731448
% es.tEX (V/m) @ t=0.6
0.6081330938489771
% es.tEY (V/m) @ t=0.6
0
% es.tEZ (V/m) @ t=0.6
0.6178896420731377
% es.Ex (V/m) @ t=0.6
0.6081330938489806
% es.Ey (V/m) @ t=0.6
0.17271768167683987
% es.Ez (V/m) @ t=0.6
0.6178896420731448
% es.tEx (V/m) @ t=0.6
0.6081330938489771
% es.tEy (V/m) @ t=0.6
0
% es.tEz (V/m) @ t=0.6
0.6178896420731377
% V (V) @ t=0.6
0.00839842116157871
% es.normE (V/m) @ t=0.62
0.9041582971736445
% es.EX (V/m) @ t=0.62
0.6139355698401232
% es.EY (V/m) @ t=0.62
0.17436568096514726
% es.EZ (V/m) @ t=0.62
0.6237852144159941
% es.tEX (V/m) @ t=0.62
0.613935569840109
% es.tEY (V/m) @ t=0.62
0
% es.tEZ (V/m) @ t=0.62
0.6237852144159852
% es.Ex (V/m) @ t=0.62
0.6139355698401232
% es.Ey (V/m) @ t=0.62
0.17436568096514726
% es.Ez (V/m) @ t=0.62
0.6237852144159941
% es.tEx (V/m) @ t=0.62
0.613935569840109
% es.tEy (V/m) @ t=0.62
0
% es.tEz (V/m) @ t=0.62
0.6237852144159852
% V (V) @ t=0.62
0.008478554118326842
% es.normE (V/m) @ t=0.64
0.9127037585228442
% es.EX (V/m) @ t=0.64
0.6197380458312303
% es.EY (V/m) @ t=0.64
0.17601368025339958
% es.EZ (V/m) @ t=0.64
0.6296807867588603
% es.tEX (V/m) @ t=0.64
0.6197380458312267
% es.tEY (V/m) @ t=0.64
0
% es.tEZ (V/m) @ t=0.64
0.6296807867588505
% es.Ex (V/m) @ t=0.64
0.6197380458312303
% es.Ey (V/m) @ t=0.64
0.17601368025339958
% es.Ez (V/m) @ t=0.64
0.6296807867588603
% es.tEx (V/m) @ t=0.64
0.6197380458312267
% es.tEy (V/m) @ t=0.64
0
% es.tEz (V/m) @ t=0.64
0.6296807867588505
% V (V) @ t=0.64
0.008558687075074976
% es.normE (V/m) @ t=0.66
0.9212492198720543
% es.EX (V/m) @ t=0.66
0.6255405218223657
% es.EY (V/m) @ t=0.66
0.17766167954166256
% es.EZ (V/m) @ t=0.66
0.6355763591017105
% es.tEX (V/m) @ t=0.66
0.6255405218223586
% es.tEY (V/m) @ t=0.66
0
% es.tEZ (V/m) @ t=0.66
0.635576359101691
% es.Ex (V/m) @ t=0.66
0.6255405218223657
% es.Ey (V/m) @ t=0.66
0.17766167954166256
% es.Ez (V/m) @ t=0.66
0.6355763591017105
% es.tEx (V/m) @ t=0.66
0.6255405218223586
% es.tEy (V/m) @ t=0.66
0
% es.tEz (V/m) @ t=0.66
0.635576359101691
% V (V) @ t=0.66
0.008638820031823109
% es.normE (V/m) @ t=0.68
0.9297946812212603
% es.EX (V/m) @ t=0.68
0.6313429978135083
% es.EY (V/m) @ t=0.68
0.17930967882992555
% es.EZ (V/m) @ t=0.68
0.6414719314445412
% es.tEX (V/m) @ t=0.68
0.6313429978134906
% es.tEY (V/m) @ t=0.68
0
% es.tEZ (V/m) @ t=0.68
0.641471931444535
% es.Ex (V/m) @ t=0.68
0.6313429978135083
% es.Ey (V/m) @ t=0.68
0.17930967882992555
% es.Ez (V/m) @ t=0.68
0.6414719314445412
% es.tEx (V/m) @ t=0.68
0.6313429978134906
% es.tEy (V/m) @ t=0.68
0
% es.tEz (V/m) @ t=0.68
0.641471931444535
% V (V) @ t=0.68
0.00871895298857124
% es.normE (V/m) @ t=0.7
0.938340142570451
% es.EX (V/m) @ t=0.7
0.6371454738046083
% es.EY (V/m) @ t=0.7
0.1809576781181974
% es.EZ (V/m) @ t=0.7
0.6473675037873949
% es.tEX (V/m) @ t=0.7
0.6371454738046083
% es.tEY (V/m) @ t=0.7
0
% es.tEZ (V/m) @ t=0.7
0.6473675037873932
% es.Ex (V/m) @ t=0.7
0.6371454738046083
% es.Ey (V/m) @ t=0.7
0.1809576781181974
% es.Ez (V/m) @ t=0.7
0.6473675037873949
% es.tEx (V/m) @ t=0.7
0.6371454738046083
% es.tEy (V/m) @ t=0.7
0
% es.tEz (V/m) @ t=0.7
0.6473675037873932
% V (V) @ t=0.7
0.008799085945319373
% es.normE (V/m) @ t=0.72
0.9468856039196722
% es.EX (V/m) @ t=0.72
0.6429479497957509
% es.EY (V/m) @ t=0.72
0.18260567740645506
% es.EZ (V/m) @ t=0.72
0.6532630761302523
% es.tEX (V/m) @ t=0.72
0.6429479497957402
% es.tEY (V/m) @ t=0.72
0
% es.tEZ (V/m) @ t=0.72
0.6532630761302443
% es.Ex (V/m) @ t=0.72
0.6429479497957509
% es.Ey (V/m) @ t=0.72
0.18260567740645506
% es.Ez (V/m) @ t=0.72
0.6532630761302523
% es.tEx (V/m) @ t=0.72
0.6429479497957402
% es.tEy (V/m) @ t=0.72
0
% es.tEz (V/m) @ t=0.72
0.6532630761302443
% V (V) @ t=0.72
0.008879218902067505
% es.normE (V/m) @ t=0.74
0.9554310652688827
% es.EX (V/m) @ t=0.74
0.6487504257868828
% es.EY (V/m) @ t=0.74
0.18425367669470205
% es.EZ (V/m) @ t=0.74
0.659158648473098
% es.tEX (V/m) @ t=0.74
0.6487504257868721
% es.tEY (V/m) @ t=0.74
0
% es.tEZ (V/m) @ t=0.74
0.6591586484730954
% es.Ex (V/m) @ t=0.74
0.6487504257868828
% es.Ey (V/m) @ t=0.74
0.18425367669470205
% es.Ez (V/m) @ t=0.74
0.659158648473098
% es.tEx (V/m) @ t=0.74
0.6487504257868721
% es.tEy (V/m) @ t=0.74
0
% es.tEz (V/m) @ t=0.74
0.6591586484730954
% V (V) @ t=0.74
0.008959351858815637
% es.normE (V/m) @ t=0.76
0.9639765266181077
% es.EX (V/m) @ t=0.76
0.6545529017780183
% es.EY (V/m) @ t=0.76
0.18590167598296858
% es.EZ (V/m) @ t=0.76
0.6650542208159598
% es.tEX (V/m) @ t=0.76
0.6545529017780041
% es.tEY (V/m) @ t=0.76
0
% es.tEZ (V/m) @ t=0.76
0.6650542208159536
% es.Ex (V/m) @ t=0.76
0.6545529017780183
% es.Ey (V/m) @ t=0.76
0.18590167598296858
% es.Ez (V/m) @ t=0.76
0.6650542208159598
% es.tEx (V/m) @ t=0.76
0.6545529017780041
% es.tEy (V/m) @ t=0.76
0
% es.tEz (V/m) @ t=0.76
0.6650542208159536
% V (V) @ t=0.76
0.00903948481556377
% es.normE (V/m) @ t=0.78
0.9725219879672857
% es.EX (V/m) @ t=0.78
0.6603553777690934
% es.EY (V/m) @ t=0.78
0.18754967527128308
% es.EZ (V/m) @ t=0.78
0.670949793158802
% es.tEX (V/m) @ t=0.78
0.6603553777690792
% es.tEY (V/m) @ t=0.78
0
% es.tEZ (V/m) @ t=0.78
0.6709497931587975
% es.Ex (V/m) @ t=0.78
0.6603553777690934
% es.Ey (V/m) @ t=0.78
0.18754967527128308
% es.Ez (V/m) @ t=0.78
0.670949793158802
% es.tEx (V/m) @ t=0.78
0.6603553777690792
% es.tEy (V/m) @ t=0.78
0
% es.tEz (V/m) @ t=0.78
0.6709497931587975
% V (V) @ t=0.78
0.009119617772311902
% es.normE (V/m) @ t=0.8
0.9810674493165292
% es.EX (V/m) @ t=0.8
0.6661578537602644
% es.EY (V/m) @ t=0.8
0.1891976745595514
% es.EZ (V/m) @ t=0.8
0.6768453655016549
% es.tEX (V/m) @ t=0.8
0.6661578537602395
% es.tEY (V/m) @ t=0.8
0
% es.tEZ (V/m) @ t=0.8
0.6768453655016344
% es.Ex (V/m) @ t=0.8
0.6661578537602644
% es.Ey (V/m) @ t=0.8
0.1891976745595514
% es.Ez (V/m) @ t=0.8
0.6768453655016549
% es.tEx (V/m) @ t=0.8
0.6661578537602395
% es.tEy (V/m) @ t=0.8
0
% es.tEz (V/m) @ t=0.8
0.6768453655016344
% V (V) @ t=0.8
0.009199750729060034
% es.normE (V/m) @ t=0.82
0.9896129106657197
% es.EX (V/m) @ t=0.82
0.6719603297513608
% es.EY (V/m) @ t=0.82
0.19084567384780904
% es.EZ (V/m) @ t=0.82
0.6827409378445033
% es.tEX (V/m) @ t=0.82
0.6719603297513714
% es.tEY (V/m) @ t=0.82
0
% es.tEZ (V/m) @ t=0.82
0.6827409378444784
% es.Ex (V/m) @ t=0.82
0.6719603297513608
% es.Ey (V/m) @ t=0.82
0.19084567384780904
% es.Ez (V/m) @ t=0.82
0.6827409378445033
% es.tEx (V/m) @ t=0.82
0.6719603297513714
% es.tEy (V/m) @ t=0.82
0
% es.tEz (V/m) @ t=0.82
0.6827409378444784
% V (V) @ t=0.82
0.009279883685808166
% es.normE (V/m) @ t=0.84
0.9990976181933242
% es.EX (V/m) @ t=0.84
0.6784005803519371
% es.EY (V/m) @ t=0.84
0.19267476503373793
% es.EZ (V/m) @ t=0.84
0.6892845070218021
% es.tEX (V/m) @ t=0.84
0.6784005803519477
% es.tEY (V/m) @ t=0.84
0
% es.tEZ (V/m) @ t=0.84
0.689284507021803
% es.Ex (V/m) @ t=0.84
0.6784005803519371
% es.Ey (V/m) @ t=0.84
0.19267476503373793
% es.Ez (V/m) @ t=0.84
0.6892845070218021
% es.tEx (V/m) @ t=0.84
0.6784005803519477
% es.tEy (V/m) @ t=0.84
0
% es.tEz (V/m) @ t=0.84
0.689284507021803
% V (V) @ t=0.84
0.009368824869361095
% es.normE (V/m) @ t=0.86
1.0086591241494711
% es.EX (V/m) @ t=0.86
0.6848929792485592
% es.EY (V/m) @ t=0.86
0.1945186633846845
% es.EZ (V/m) @ t=0.86
0.6958810603258652
% es.tEX (V/m) @ t=0.86
0.6848929792485592
% es.tEY (V/m) @ t=0.86
0
% es.tEZ (V/m) @ t=0.86
0.6958810603258527
% es.Ex (V/m) @ t=0.86
0.6848929792485592
% es.Ey (V/m) @ t=0.86
0.1945186633846845
% es.Ez (V/m) @ t=0.86
0.6958810603258652
% es.tEx (V/m) @ t=0.86
0.6848929792485592
% es.tEy (V/m) @ t=0.86
0
% es.tEz (V/m) @ t=0.86
0.6958810603258527
% V (V) @ t=0.86
0.009458486266626126
% es.normE (V/m) @ t=0.88
1.0182206301056047
% es.EX (V/m) @ t=0.88
0.6913853781451564
% es.EY (V/m) @ t=0.88
0.19636256173566302
% es.EZ (V/m) @ t=0.88
0.702477613629922
% es.tEX (V/m) @ t=0.88
0.6913853781451706
% es.tEY (V/m) @ t=0.88
0
% es.tEZ (V/m) @ t=0.88
0.7024776136299167
% es.Ex (V/m) @ t=0.88
0.6913853781451564
% es.Ey (V/m) @ t=0.88
0.19636256173566302
% es.Ez (V/m) @ t=0.88
0.702477613629922
% es.tEx (V/m) @ t=0.88
0.6913853781451706
% es.tEy (V/m) @ t=0.88
0
% es.tEz (V/m) @ t=0.88
0.7024776136299167
% V (V) @ t=0.88
0.009548147663891157
% es.normE (V/m) @ t=0.9
1.0277821360617394
% es.EX (V/m) @ t=0.9
0.6978777770417501
% es.EY (V/m) @ t=0.9
0.19820646008667175
% es.EZ (V/m) @ t=0.9
0.7090741669339753
% es.tEX (V/m) @ t=0.9
0.6978777770417395
% es.tEY (V/m) @ t=0.9
0
% es.tEZ (V/m) @ t=0.9
0.7090741669339664
% es.Ex (V/m) @ t=0.9
0.6978777770417501
% es.Ey (V/m) @ t=0.9
0.19820646008667175
% es.Ez (V/m) @ t=0.9
0.7090741669339753
% es.tEx (V/m) @ t=0.9
0.6978777770417395
% es.tEy (V/m) @ t=0.9
0
% es.tEz (V/m) @ t=0.9
0.7090741669339664
% V (V) @ t=0.9
0.009637809061156188
% es.normE (V/m) @ t=0.92
1.0373436420178754
% es.EX (V/m) @ t=0.92
0.7043701759383687
% es.EY (V/m) @ t=0.92
0.20005035843760943
% es.EZ (V/m) @ t=0.92
0.715670720238033
% es.tEX (V/m) @ t=0.92
0.7043701759383367
% es.tEY (V/m) @ t=0.92
0
% es.tEZ (V/m) @ t=0.92
0.7156707202380304
% es.Ex (V/m) @ t=0.92
0.7043701759383687
% es.Ey (V/m) @ t=0.92
0.20005035843760943
% es.Ez (V/m) @ t=0.92
0.715670720238033
% es.tEx (V/m) @ t=0.92
0.7043701759383367
% es.tEy (V/m) @ t=0.92
0
% es.tEz (V/m) @ t=0.92
0.7156707202380304
% V (V) @ t=0.92
0.009727470458421218
% es.normE (V/m) @ t=0.94
1.0469051479740152
% es.EX (V/m) @ t=0.94
0.7108625748349731
% es.EY (V/m) @ t=0.94
0.20189425678859507
% es.EZ (V/m) @ t=0.94
0.7222672735420819
% es.tEX (V/m) @ t=0.94
0.7108625748349624
% es.tEY (V/m) @ t=0.94
0
% es.tEZ (V/m) @ t=0.94
0.722267273542073
% es.Ex (V/m) @ t=0.94
0.7108625748349731
% es.Ey (V/m) @ t=0.94
0.20189425678859507
% es.Ez (V/m) @ t=0.94
0.7222672735420819
% es.tEx (V/m) @ t=0.94
0.7108625748349624
% es.tEy (V/m) @ t=0.94
0
% es.tEz (V/m) @ t=0.94
0.722267273542073
% V (V) @ t=0.94
0.009817131855686249
% es.normE (V/m) @ t=0.96
1.056466653930184
% es.EX (V/m) @ t=0.96
0.7173549737316094
% es.EY (V/m) @ t=0.96
0.20373815513953808
% es.EZ (V/m) @ t=0.96
0.7288638268461609
% es.tEX (V/m) @ t=0.96
0.7173549737315881
% es.tEY (V/m) @ t=0.96
0
% es.tEZ (V/m) @ t=0.96
0.7288638268461511
% es.Ex (V/m) @ t=0.96
0.7173549737316094
% es.Ey (V/m) @ t=0.96
0.20373815513953808
% es.Ez (V/m) @ t=0.96
0.7288638268461609
% es.tEx (V/m) @ t=0.96
0.7173549737315881
% es.tEy (V/m) @ t=0.96
0
% es.tEz (V/m) @ t=0.96
0.7288638268461511
% V (V) @ t=0.96
0.009906793252951282
% es.normE (V/m) @ t=0.98
1.0660281598863042
% es.EX (V/m) @ t=0.98
0.7238473726282031
% es.EY (V/m) @ t=0.98
0.2055820534905255
% es.EZ (V/m) @ t=0.98
0.7354603801501947
% es.tEX (V/m) @ t=0.98
0.7238473726281711
% es.tEY (V/m) @ t=0.98
0
% es.tEZ (V/m) @ t=0.98
0.7354603801501796
% es.Ex (V/m) @ t=0.98
0.7238473726282031
% es.Ey (V/m) @ t=0.98
0.2055820534905255
% es.Ez (V/m) @ t=0.98
0.7354603801501947
% es.tEx (V/m) @ t=0.98
0.7238473726281711
% es.tEy (V/m) @ t=0.98
0
% es.tEz (V/m) @ t=0.98
0.7354603801501796
% V (V) @ t=0.98
0.00999645465021631
% es.normE (V/m) @ t=1
1.0755896658424442
% es.EX (V/m) @ t=1
0.7303397715247968
% es.EY (V/m) @ t=1
0.20742595184151114
% es.EZ (V/m) @ t=1
0.7420569334542559
% es.tEX (V/m) @ t=1
0.7303397715247684
% es.tEY (V/m) @ t=1
0
% es.tEZ (V/m) @ t=1
0.7420569334542435
% es.Ex (V/m) @ t=1
0.7303397715247968
% es.Ey (V/m) @ t=1
0.20742595184151114
% es.Ez (V/m) @ t=1
0.7420569334542559
% es.tEx (V/m) @ t=1
0.7303397715247684
% es.tEy (V/m) @ t=1
0
% es.tEz (V/m) @ t=1
0.7420569334542435
% V (V) @ t=1
0.010086116047481341
% es.normE (V/m) @ t=1.02
1.0851511717986009
% es.EX (V/m) @ t=1.02
0.7368321704214189
% es.EY (V/m) @ t=1.02
0.2092698501924275
% es.EZ (V/m) @ t=1.02
0.748653486758335
% es.tEX (V/m) @ t=1.02
0.7368321704214367
% es.tEY (V/m) @ t=1.02
0
% es.tEZ (V/m) @ t=1.02
0.7486534867583146
% es.Ex (V/m) @ t=1.02
0.7368321704214189
% es.Ey (V/m) @ t=1.02
0.2092698501924275
% es.Ez (V/m) @ t=1.02
0.748653486758335
% es.tEx (V/m) @ t=1.02
0.7368321704214367
% es.tEy (V/m) @ t=1.02
0
% es.tEz (V/m) @ t=1.02
0.7486534867583146
% V (V) @ t=1.02
0.010175777444746374
% es.normE (V/m) @ t=1.04
1.094712677754714
% es.EX (V/m) @ t=1.04
0.7433245693179913
% es.EY (V/m) @ t=1.04
0.21111374854340603
% es.EZ (V/m) @ t=1.04
0.7552500400623838
% es.tEX (V/m) @ t=1.04
0.7433245693179913
% es.tEY (V/m) @ t=1.04
0
% es.tEZ (V/m) @ t=1.04
0.7552500400623714
% es.Ex (V/m) @ t=1.04
0.7433245693179913
% es.Ey (V/m) @ t=1.04
0.21111374854340603