% Model:              1 neuron.mph
% Version:            COMSOL 6.0.0.405
% Date:               Mar 16 2023, 10:19
% Dimension:          0
% Nodes:              14017
% Expressions:        14017
% Description:        Electric field norm, Electric field, X component, Electric field, Y component, Electric field, Z component, Tangential electric field, X component, Tangential electric field, Y component, Tangential electric field, Z component, Electric field, x component, Electric field, y component, Electric field, z component, Tangential electric field, x component, Tangential electric field, y component, Tangential electric field, z component, Electric potential
% Length unit:        mm
% x
1
% y
12.2
% z
1.33
% es.normE (V/m) @ t=0
1.463481677678701
% es.EX (V/m) @ t=0
1.3524490095235864
% es.EY (V/m) @ t=0
0.08515822208621993
% es.EZ (V/m) @ t=0
0.5467435213612482
% es.tEX (V/m) @ t=0
1.352449009523589
% es.tEY (V/m) @ t=0
0
% es.tEZ (V/m) @ t=0
0.5467435213612464
% es.Ex (V/m) @ t=0
1.3524490095235864
% es.Ey (V/m) @ t=0
0.08515822208621993
% es.Ez (V/m) @ t=0
0.5467435213612482
% es.tEx (V/m) @ t=0
1.352449009523589
% es.tEy (V/m) @ t=0
0
% es.tEz (V/m) @ t=0
0.5467435213612464
% V (V) @ t=0
0.0073000894678248805
% es.normE (V/m) @ t=0.02
1.2640377127390692
% es.EX (V/m) @ t=0.02
1.1681366281566836
% es.EY (V/m) @ t=0.02
0.07355281995935864
% es.EZ (V/m) @ t=0.02
0.47223305960191864
% es.tEX (V/m) @ t=0.02
1.168136628156681
% es.tEY (V/m) @ t=0.02
0
% es.tEZ (V/m) @ t=0.02
0.4722330596019164
% es.Ex (V/m) @ t=0.02
1.1681366281566836
% es.Ey (V/m) @ t=0.02
0.07355281995935864
% es.Ez (V/m) @ t=0.02
0.47223305960191864
% es.tEx (V/m) @ t=0.02
1.168136628156681
% es.tEy (V/m) @ t=0.02
0
% es.tEz (V/m) @ t=0.02
0.4722330596019164
% V (V) @ t=0.02
0.006305229701049728
% es.normE (V/m) @ t=0.04
1.2756649022722597
% es.EX (V/m) @ t=0.04
1.178881675220568
% es.EY (V/m) @ t=0.04
0.07422939235012377
% es.EZ (V/m) @ t=0.04
0.47657687295479234
% es.tEX (V/m) @ t=0.04
1.1788816752205689
% es.tEY (V/m) @ t=0.04
0
% es.tEZ (V/m) @ t=0.04
0.4765768729547921
% es.Ex (V/m) @ t=0.04
1.178881675220568
% es.Ey (V/m) @ t=0.04
0.07422939235012377
% es.Ez (V/m) @ t=0.04
0.47657687295479234
% es.tEx (V/m) @ t=0.04
1.1788816752205689
% es.tEy (V/m) @ t=0.04
0
% es.tEz (V/m) @ t=0.04
0.4765768729547921
% V (V) @ t=0.04
0.006363227087420343
% es.normE (V/m) @ t=0.06
1.2873978135057125
% es.EX (V/m) @ t=0.06
1.1897244234889852
% es.EY (V/m) @ t=0.06
0.07491211644911833
% es.EZ (V/m) @ t=0.06
0.4809601827376859
% es.tEX (V/m) @ t=0.06
1.1897244234889879
% es.tEY (V/m) @ t=0.06
0
% es.tEZ (V/m) @ t=0.06
0.4809601827376837
% es.Ex (V/m) @ t=0.06
1.1897244234889852
% es.Ey (V/m) @ t=0.06
0.07491211644911833
% es.Ez (V/m) @ t=0.06
0.4809601827376859
% es.tEx (V/m) @ t=0.06
1.1897244234889879
% es.tEy (V/m) @ t=0.06
0
% es.tEz (V/m) @ t=0.06
0.4809601827376837
% V (V) @ t=0.06
0.006421752297012426
% es.normE (V/m) @ t=0.08
1.299307775239638
% es.EX (V/m) @ t=0.08
1.2007307893433925
% es.EY (V/m) @ t=0.08
0.07560514289066655
% es.EZ (V/m) @ t=0.08
0.4854096371415886
% es.tEX (V/m) @ t=0.08
1.2007307893433925
% es.tEY (V/m) @ t=0.08
0
% es.tEZ (V/m) @ t=0.08
0.4854096371415846
% es.Ex (V/m) @ t=0.08
1.2007307893433925
% es.Ey (V/m) @ t=0.08
0.07560514289066655
% es.Ez (V/m) @ t=0.08
0.4854096371415886
% es.tEx (V/m) @ t=0.08
1.2007307893433925
% es.tEy (V/m) @ t=0.08
0
% es.tEz (V/m) @ t=0.08
0.4854096371415846
% V (V) @ t=0.08
0.006481160385811476
% es.normE (V/m) @ t=0.1
1.3113449438312004
% es.EX (V/m) @ t=0.1
1.2118547108043254
% es.EY (V/m) @ t=0.1
0.07630557133683652
% es.EZ (V/m) @ t=0.1
0.48990661498859733
% es.tEX (V/m) @ t=0.1
1.2118547108043307
% es.tEY (V/m) @ t=0.1
0
% es.tEZ (V/m) @ t=0.1
0.48990661498859644
% es.Ex (V/m) @ t=0.1
1.2118547108043254
% es.Ey (V/m) @ t=0.1
0.07630557133683652
% es.Ez (V/m) @ t=0.1
0.48990661498859733
% es.tEx (V/m) @ t=0.1
1.2118547108043307
% es.tEy (V/m) @ t=0.1
0
% es.tEz (V/m) @ t=0.1
0.48990661498859644
% V (V) @ t=0.1
0.00654120280373857
% es.normE (V/m) @ t=0.12
1.3233821124227723
% es.EX (V/m) @ t=0.12
1.222978632265269
% es.EY (V/m) @ t=0.12
0.0770059997830091
% es.EZ (V/m) @ t=0.12
0.49440359283560364
% es.tEX (V/m) @ t=0.12
1.222978632265268
% es.tEY (V/m) @ t=0.12
0
% es.tEZ (V/m) @ t=0.12
0.494403592835607
% es.Ex (V/m) @ t=0.12
1.222978632265269
% es.Ey (V/m) @ t=0.12
0.0770059997830091
% es.Ez (V/m) @ t=0.12
0.49440359283560364
% es.tEx (V/m) @ t=0.12
1.222978632265268
% es.tEy (V/m) @ t=0.12
0
% es.tEz (V/m) @ t=0.12
0.494403592835607
% V (V) @ t=0.12
0.0066012452216656645
% es.normE (V/m) @ t=0.14
1.3355311789631652
% es.EX (V/m) @ t=0.14
1.2342059618671195
% es.EY (V/m) @ t=0.14
0.0777129395190857
% es.EZ (V/m) @ t=0.14
0.4989423748596651
% es.tEX (V/m) @ t=0.14
1.2342059618671177
% es.tEY (V/m) @ t=0.14
0
% es.tEZ (V/m) @ t=0.14
0.49894237485966464
% es.Ex (V/m) @ t=0.14
1.2342059618671195
% es.Ey (V/m) @ t=0.14
0.0777129395190857
% es.Ez (V/m) @ t=0.14
0.4989423748596651
% es.tEx (V/m) @ t=0.14
1.2342059618671177
% es.tEy (V/m) @ t=0.14
0
% es.tEz (V/m) @ t=0.14
0.49894237485966464
% V (V) @ t=0.14
0.006661845574194892
% es.normE (V/m) @ t=0.16
1.3482121594405996
% es.EX (V/m) @ t=0.16
1.245924848570168
% es.EY (V/m) @ t=0.16
0.07845083108124701
% es.EZ (V/m) @ t=0.16
0.5036798756684311
% es.tEX (V/m) @ t=0.16
1.2459248485701684
% es.tEY (V/m) @ t=0.16
0
% es.tEZ (V/m) @ t=0.16
0.5036798756684338
% es.Ex (V/m) @ t=0.16
1.245924848570168
% es.Ey (V/m) @ t=0.16
0.07845083108124701
% es.Ez (V/m) @ t=0.16
0.5036798756684311
% es.tEx (V/m) @ t=0.16
1.2459248485701684
% es.tEy (V/m) @ t=0.16
0
% es.tEz (V/m) @ t=0.16
0.5036798756684338
% V (V) @ t=0.16
0.0067250981039441715
% es.normE (V/m) @ t=0.18
1.3608931399180313
% es.EX (V/m) @ t=0.18
1.2576437352732155
% es.EY (V/m) @ t=0.18
0.07918872264340382
% es.EZ (V/m) @ t=0.18
0.5084173764771909
% es.tEX (V/m) @ t=0.18
1.2576437352732164
% es.tEY (V/m) @ t=0.18
0
% es.tEZ (V/m) @ t=0.18
0.5084173764771909
% es.Ex (V/m) @ t=0.18
1.2576437352732155
% es.Ey (V/m) @ t=0.18
0.07918872264340382
% es.Ez (V/m) @ t=0.18
0.5084173764771909
% es.tEx (V/m) @ t=0.18
1.2576437352732164
% es.tEy (V/m) @ t=0.18
0
% es.tEz (V/m) @ t=0.18
0.5084173764771909
% V (V) @ t=0.18
0.006788350633693454
% es.normE (V/m) @ t=0.2
1.373574120395468
% es.EX (V/m) @ t=0.2
1.269362621976267
% es.EY (V/m) @ t=0.2
0.07992661420556318
% es.EZ (V/m) @ t=0.2
0.5131548772859515
% es.tEX (V/m) @ t=0.2
1.269362621976267
% es.tEY (V/m) @ t=0.2
0
% es.tEZ (V/m) @ t=0.2
0.5131548772859529
% es.Ex (V/m) @ t=0.2
1.269362621976267
% es.Ey (V/m) @ t=0.2
0.07992661420556318
% es.Ez (V/m) @ t=0.2
0.5131548772859515
% es.tEx (V/m) @ t=0.2
1.269362621976267
% es.tEy (V/m) @ t=0.2
0
% es.tEz (V/m) @ t=0.2
0.5131548772859529
% V (V) @ t=0.2
0.006851603163442735
% es.normE (V/m) @ t=0.22
1.3862551008729023
% es.EX (V/m) @ t=0.22
1.2810815086793168
% es.EY (V/m) @ t=0.22
0.08066450576772177
% es.EZ (V/m) @ t=0.22
0.5178923780947087
% es.tEX (V/m) @ t=0.22
1.2810815086793177
% es.tEY (V/m) @ t=0.22
0
% es.tEZ (V/m) @ t=0.22
0.5178923780947082
% es.Ex (V/m) @ t=0.22
1.2810815086793168
% es.Ey (V/m) @ t=0.22
0.08066450576772177
% es.Ez (V/m) @ t=0.22
0.5178923780947087
% es.tEx (V/m) @ t=0.22
1.2810815086793177
% es.tEy (V/m) @ t=0.22
0
% es.tEz (V/m) @ t=0.22
0.5178923780947082
% V (V) @ t=0.22
0.006914855693192015
% es.normE (V/m) @ t=0.24
1.3989360813503435
% es.EX (V/m) @ t=0.24
1.2928003953823666
% es.EY (V/m) @ t=0.24
0.08140239732987248
% es.EZ (V/m) @ t=0.24
0.5226298789034836
% es.tEX (V/m) @ t=0.24
1.2928003953823675
% es.tEY (V/m) @ t=0.24
0
% es.tEZ (V/m) @ t=0.24
0.5226298789034809
% es.Ex (V/m) @ t=0.24
1.2928003953823666
% es.Ey (V/m) @ t=0.24
0.08140239732987248
% es.Ez (V/m) @ t=0.24
0.5226298789034836
% es.tEx (V/m) @ t=0.24
1.2928003953823675
% es.tEy (V/m) @ t=0.24
0
% es.tEz (V/m) @ t=0.24
0.5226298789034809
% V (V) @ t=0.24
0.006978108222941298
% es.normE (V/m) @ t=0.26
1.41161706182777
% es.EX (V/m) @ t=0.26
1.3045192820854075
% es.EY (V/m) @ t=0.26
0.08214028889203717
% es.EZ (V/m) @ t=0.26
0.5273673797122373
% es.tEX (V/m) @ t=0.26
1.3045192820854057
% es.tEY (V/m) @ t=0.26
0
% es.tEZ (V/m) @ t=0.26
0.5273673797122438
% es.Ex (V/m) @ t=0.26
1.3045192820854075
% es.Ey (V/m) @ t=0.26
0.08214028889203717
% es.Ez (V/m) @ t=0.26
0.5273673797122373
% es.tEx (V/m) @ t=0.26
1.3045192820854057
% es.tEy (V/m) @ t=0.26
0
% es.tEz (V/m) @ t=0.26
0.5273673797122438
% V (V) @ t=0.26
0.00704136075269058
% es.normE (V/m) @ t=0.28
1.4248155740534068
% es.EX (V/m) @ t=0.28
1.3167164288942637
% es.EY (V/m) @ t=0.28
0.0829082967654618
% es.EZ (V/m) @ t=0.28
0.5322982291859462
% es.tEX (V/m) @ t=0.28
1.3167164288942654
% es.tEY (V/m) @ t=0.28
0
% es.tEZ (V/m) @ t=0.28
0.5322982291859448
% es.Ex (V/m) @ t=0.28
1.3167164288942637
% es.Ey (V/m) @ t=0.28
0.0829082967654618
% es.Ez (V/m) @ t=0.28
0.5322982291859462
% es.tEx (V/m) @ t=0.28
1.3167164288942654
% es.tEy (V/m) @ t=0.28
0
% es.tEz (V/m) @ t=0.28
0.5322982291859448
% V (V) @ t=0.28
0.00710718801234992
% es.normE (V/m) @ t=0.3
1.4389438096673481
% es.EX (V/m) @ t=0.3
1.3297727492854046
% es.EY (V/m) @ t=0.3
0.08373040728872966
% es.EZ (V/m) @ t=0.3
0.5375764211686045
% es.tEX (V/m) @ t=0.3
1.3297727492853992
% es.tEY (V/m) @ t=0.3
0
% es.tEZ (V/m) @ t=0.3
0.5375764211686054
% es.Ex (V/m) @ t=0.3
1.3297727492854046
% es.Ey (V/m) @ t=0.3
0.08373040728872966
% es.Ez (V/m) @ t=0.3
0.5375764211686045
% es.tEx (V/m) @ t=0.3
1.3297727492853992
% es.tEy (V/m) @ t=0.3
0
% es.tEz (V/m) @ t=0.3
0.5375764211686054
% V (V) @ t=0.3
0.007177640662865374
% es.normE (V/m) @ t=0.32
1.453072045281334
% es.EX (V/m) @ t=0.32
1.3428290696765286
% es.EY (V/m) @ t=0.32
0.08455251781199391
% es.EZ (V/m) @ t=0.32
0.5428546131512686
% es.tEX (V/m) @ t=0.32
1.3428290696765304
% es.tEY (V/m) @ t=0.32
0
% es.tEZ (V/m) @ t=0.32
0.5428546131512704
% es.Ex (V/m) @ t=0.32
1.3428290696765286
% es.Ey (V/m) @ t=0.32
0.08455251781199391
% es.Ez (V/m) @ t=0.32
0.5428546131512686
% es.tEx (V/m) @ t=0.32
1.3428290696765304
% es.tEy (V/m) @ t=0.32
0
% es.tEz (V/m) @ t=0.32
0.5428546131512704
% V (V) @ t=0.32
0.007248093313380828
% es.normE (V/m) @ t=0.34
1.467200280895382
% es.EX (V/m) @ t=0.34
1.3558853900676588
% es.EY (V/m) @ t=0.34
0.08537462833526621
% es.EZ (V/m) @ t=0.34
0.5481328051339336
% es.tEX (V/m) @ t=0.34
1.355885390067657
% es.tEY (V/m) @ t=0.34
0
% es.tEZ (V/m) @ t=0.34
0.5481328051339336
% es.Ex (V/m) @ t=0.34
1.3558853900676588
% es.Ey (V/m) @ t=0.34
0.08537462833526621
% es.Ez (V/m) @ t=0.34
0.5481328051339336
% es.tEx (V/m) @ t=0.34
1.355885390067657
% es.tEy (V/m) @ t=0.34
0
% es.tEz (V/m) @ t=0.34
0.5481328051339336
% V (V) @ t=0.34
0.007318545963896284
% es.normE (V/m) @ t=0.36
1.4813285165094832
% es.EX (V/m) @ t=0.36
1.3689417104587904
% es.EY (V/m) @ t=0.36
0.08619673885852341
% es.EZ (V/m) @ t=0.36
0.5534109971165933
% es.tEX (V/m) @ t=0.36
1.36894171045879
% es.tEY (V/m) @ t=0.36
0
% es.tEZ (V/m) @ t=0.36
0.5534109971165933
% es.Ex (V/m) @ t=0.36
1.3689417104587904
% es.Ey (V/m) @ t=0.36
0.08619673885852341
% es.Ez (V/m) @ t=0.36
0.5534109971165933
% es.tEx (V/m) @ t=0.36
1.36894171045879
% es.tEy (V/m) @ t=0.36
0
% es.tEz (V/m) @ t=0.36
0.5534109971165933
% V (V) @ t=0.36
0.0073889986144117376
% es.normE (V/m) @ t=0.38
1.495456752123642
% es.EX (V/m) @ t=0.38
1.3819980308499256
% es.EY (V/m) @ t=0.38
0.087018849381793
% es.EZ (V/m) @ t=0.38
0.5586891890992538
% es.tEX (V/m) @ t=0.38
1.3819980308499247
% es.tEY (V/m) @ t=0.38
0
% es.tEZ (V/m) @ t=0.38
0.5586891890992582
% es.Ex (V/m) @ t=0.38
1.3819980308499256
% es.Ey (V/m) @ t=0.38
0.087018849381793
% es.Ez (V/m) @ t=0.38
0.5586891890992538
% es.tEx (V/m) @ t=0.38
1.3819980308499247
% es.tEy (V/m) @ t=0.38
0
% es.tEz (V/m) @ t=0.38
0.5586891890992582
% V (V) @ t=0.38
0.007459451264927195
% es.normE (V/m) @ t=0.4
1.5095849877378422
% es.EX (V/m) @ t=0.4
1.3950543512410514
% es.EY (V/m) @ t=0.4
0.08784095990506446
% es.EZ (V/m) @ t=0.4
0.5639673810819117
% es.tEX (V/m) @ t=0.4
1.3950543512410505
% es.tEY (V/m) @ t=0.4
0
% es.tEZ (V/m) @ t=0.4
0.5639673810819108
% es.Ex (V/m) @ t=0.4
1.3950543512410514
% es.Ey (V/m) @ t=0.4
0.08784095990506446
% es.Ez (V/m) @ t=0.4
0.5639673810819117
% es.tEx (V/m) @ t=0.4
1.3950543512410505
% es.tEy (V/m) @ t=0.4
0
% es.tEz (V/m) @ t=0.4
0.5639673810819108
% V (V) @ t=0.4
0.007529903915442648
% es.normE (V/m) @ t=0.42
1.5237132233521091
% es.EX (V/m) @ t=0.42
1.4081106716321896
% es.EY (V/m) @ t=0.42
0.0886630704283295
% es.EZ (V/m) @ t=0.42
0.5692455730645838
% es.tEX (V/m) @ t=0.42
1.4081106716321923
% es.tEY (V/m) @ t=0.42
0
% es.tEZ (V/m) @ t=0.42
0.5692455730645847
% es.Ex (V/m) @ t=0.42
1.4081106716321896
% es.Ey (V/m) @ t=0.42
0.0886630704283295
% es.Ez (V/m) @ t=0.42
0.5692455730645838
% es.tEx (V/m) @ t=0.42
1.4081106716321923
% es.tEy (V/m) @ t=0.42
0
% es.tEz (V/m) @ t=0.42
0.5692455730645847
% V (V) @ t=0.42
0.007600356565958104
% es.normE (V/m) @ t=0.44
1.5378414589664122
% es.EX (V/m) @ t=0.44
1.4211669920233208
% es.EY (V/m) @ t=0.44
0.08948518095159108
% es.EZ (V/m) @ t=0.44
0.5745237650472423
% es.tEX (V/m) @ t=0.44
1.4211669920233234
% es.tEY (V/m) @ t=0.44
0
% es.tEZ (V/m) @ t=0.44
0.5745237650472426
% es.Ex (V/m) @ t=0.44
1.4211669920233208
% es.Ey (V/m) @ t=0.44
0.08948518095159108
% es.Ez (V/m) @ t=0.44
0.5745237650472423
% es.tEx (V/m) @ t=0.44
1.4211669920233234
% es.tEy (V/m) @ t=0.44
0
% es.tEz (V/m) @ t=0.44
0.5745237650472426
% V (V) @ t=0.44
0.007670809216473559
% es.normE (V/m) @ t=0.46
1.5519696945807666
% es.EX (V/m) @ t=0.46
1.4342233124144501
% es.EY (V/m) @ t=0.46
0.09030729147485633
% es.EZ (V/m) @ t=0.46
0.579801957029912
% es.tEX (V/m) @ t=0.46
1.4342233124144492
% es.tEY (V/m) @ t=0.46
0
% es.tEZ (V/m) @ t=0.46
0.5798019570299147
% es.Ex (V/m) @ t=0.46
1.4342233124144501
% es.Ey (V/m) @ t=0.46
0.09030729147485633
% es.Ez (V/m) @ t=0.46
0.579801957029912
% es.tEx (V/m) @ t=0.46
1.4342233124144492
% es.tEy (V/m) @ t=0.46
0
% es.tEz (V/m) @ t=0.46
0.5798019570299147
% V (V) @ t=0.46
0.007741261866989014
% es.normE (V/m) @ t=0.48
1.5660979301951719
% es.EX (V/m) @ t=0.48
1.447279632805592
% es.EY (V/m) @ t=0.48
0.09112940199811881
% es.EZ (V/m) @ t=0.48
0.5850801490125646
% es.tEX (V/m) @ t=0.48
1.4472796328055875
% es.tEY (V/m) @ t=0.48
0
% es.tEZ (V/m) @ t=0.48
0.5850801490125672
% es.Ex (V/m) @ t=0.48
1.447279632805592
% es.Ey (V/m) @ t=0.48
0.09112940199811881
% es.Ez (V/m) @ t=0.48
0.5850801490125646
% es.tEx (V/m) @ t=0.48
1.4472796328055875
% es.tEy (V/m) @ t=0.48
0
% es.tEz (V/m) @ t=0.48
0.5850801490125672
% V (V) @ t=0.48
0.00781171451750447
% es.normE (V/m) @ t=0.5
1.58022616580961
% es.EX (V/m) @ t=0.5
1.460335953196716
% es.EY (V/m) @ t=0.5
0.09195151252140349
% es.EZ (V/m) @ t=0.5
0.5903583409952273
% es.tEX (V/m) @ t=0.5
1.460335953196715
% es.tEY (V/m) @ t=0.5
0
% es.tEZ (V/m) @ t=0.5
0.59035834099523
% es.Ex (V/m) @ t=0.5
1.460335953196716
% es.Ey (V/m) @ t=0.5
0.09195151252140349
% es.Ez (V/m) @ t=0.5
0.5903583409952273
% es.tEx (V/m) @ t=0.5
1.460335953196715
% es.tEy (V/m) @ t=0.5
0
% es.tEz (V/m) @ t=0.5
0.59035834099523
% V (V) @ t=0.5
0.007882167168019923
% es.normE (V/m) @ t=0.52
1.5943544014240936
% es.EX (V/m) @ t=0.52
1.4733922735878426
% es.EY (V/m) @ t=0.52
0.09277362304465453
% es.EZ (V/m) @ t=0.52
0.5956365329778928
% es.tEX (V/m) @ t=0.52
1.4733922735878453
% es.tEY (V/m) @ t=0.52
0
% es.tEZ (V/m) @ t=0.52
0.5956365329778937
% es.Ex (V/m) @ t=0.52
1.4733922735878426
% es.Ey (V/m) @ t=0.52
0.09277362304465453
% es.Ez (V/m) @ t=0.52
0.5956365329778928
% es.tEx (V/m) @ t=0.52
1.4733922735878453
% es.tEy (V/m) @ t=0.52
0
% es.tEz (V/m) @ t=0.52
0.5956365329778937
% V (V) @ t=0.52
0.00795261981853538
% es.normE (V/m) @ t=0.54
1.6084826370386267
% es.EX (V/m) @ t=0.54
1.4864485939789773
% es.EY (V/m) @ t=0.54
0.09359573356792944
% es.EZ (V/m) @ t=0.54
0.6009147249605542
% es.tEX (V/m) @ t=0.54
1.4864485939789835
% es.tEY (V/m) @ t=0.54
0
% es.tEZ (V/m) @ t=0.54
0.6009147249605533
% es.Ex (V/m) @ t=0.54
1.4864485939789773
% es.Ey (V/m) @ t=0.54
0.09359573356792944
% es.Ez (V/m) @ t=0.54
0.6009147249605542
% es.tEx (V/m) @ t=0.54
1.4864485939789835
% es.tEy (V/m) @ t=0.54
0
% es.tEz (V/m) @ t=0.54
0.6009147249605533
% V (V) @ t=0.54
0.008023072469050836
% es.normE (V/m) @ t=0.56
1.623803834961738
% es.EX (V/m) @ t=0.56
1.5006073834540272
% es.EY (V/m) @ t=0.56
0.09448725720247281
% es.EZ (V/m) @ t=0.56
0.6066385893044584
% es.tEX (V/m) @ t=0.56
1.5006073834540272
% es.tEY (V/m) @ t=0.56
0
% es.tEZ (V/m) @ t=0.56
0.606638589304461
% es.Ex (V/m) @ t=0.56
1.5006073834540272
% es.Ey (V/m) @ t=0.56
0.09448725720247281
% es.Ez (V/m) @ t=0.56
0.6066385893044584
% es.tEx (V/m) @ t=0.56
1.5006073834540272
% es.tEy (V/m) @ t=0.56
0
% es.tEz (V/m) @ t=0.56
0.606638589304461
% V (V) @ t=0.56
0.008099490613587956
% es.normE (V/m) @ t=0.58
1.6395771377472252
% es.EX (V/m) @ t=0.58
1.5151839829720979
% es.EY (V/m) @ t=0.58
0.09540508678557014
% es.EZ (V/m) @ t=0.58
0.6125313530679806
% es.tEX (V/m) @ t=0.58
1.515183982972097
% es.tEY (V/m) @ t=0.58
0
% es.tEZ (V/m) @ t=0.58
0.6125313530679812
% es.Ex (V/m) @ t=0.58
1.5151839829720979
% es.Ey (V/m) @ t=0.58
0.09540508678557014
% es.Ez (V/m) @ t=0.58
0.6125313530679806
% es.tEx (V/m) @ t=0.58
1.515183982972097
% es.tEy (V/m) @ t=0.58
0
% es.tEz (V/m) @ t=0.58
0.6125313530679812
% V (V) @ t=0.58
0.008178169541080577
% es.normE (V/m) @ t=0.6
1.6553504405327075
% es.EX (V/m) @ t=0.6
1.5297605824901637
% es.EY (V/m) @ t=0.6
0.09632291636866475
% es.EZ (V/m) @ t=0.6
0.618424116831501
% es.tEX (V/m) @ t=0.6
1.5297605824901659
% es.tEY (V/m) @ t=0.6
0
% es.tEZ (V/m) @ t=0.6
0.6184241168315019
% es.Ex (V/m) @ t=0.6
1.5297605824901637
% es.Ey (V/m) @ t=0.6
0.09632291636866475
% es.Ez (V/m) @ t=0.6
0.618424116831501
% es.tEx (V/m) @ t=0.6
1.5297605824901659
% es.tEy (V/m) @ t=0.6
0
% es.tEz (V/m) @ t=0.6
0.6184241168315019
% V (V) @ t=0.6
0.0082568484685732
% es.normE (V/m) @ t=0.62
1.6711237433181965
% es.EX (V/m) @ t=0.62
1.5443371820082383
% es.EY (V/m) @ t=0.62
0.09724074595177623
% es.EZ (V/m) @ t=0.62
0.6243168805950117
% es.tEX (V/m) @ t=0.62
1.5443371820082374
% es.tEY (V/m) @ t=0.62
0
% es.tEZ (V/m) @ t=0.62
0.6243168805950137
% es.Ex (V/m) @ t=0.62
1.5443371820082383
% es.Ey (V/m) @ t=0.62
0.09724074595177623
% es.Ez (V/m) @ t=0.62
0.6243168805950117
% es.tEx (V/m) @ t=0.62
1.5443371820082374
% es.tEy (V/m) @ t=0.62
0
% es.tEz (V/m) @ t=0.62
0.6243168805950137
% V (V) @ t=0.62
0.00833552739606582
% es.normE (V/m) @ t=0.64
1.6868970461036978
% es.EX (V/m) @ t=0.64
1.5589137815263143
% es.EY (V/m) @ t=0.64
0.09815857553487362
% es.EZ (V/m) @ t=0.64
0.6302096443585543
% es.tEX (V/m) @ t=0.64
1.5589137815263108
% es.tEY (V/m) @ t=0.64
0
% es.tEZ (V/m) @ t=0.64
0.6302096443585534
% es.Ex (V/m) @ t=0.64
1.5589137815263143
% es.Ey (V/m) @ t=0.64
0.09815857553487362
% es.Ez (V/m) @ t=0.64
0.6302096443585543
% es.tEx (V/m) @ t=0.64
1.5589137815263108
% es.tEy (V/m) @ t=0.64
0
% es.tEz (V/m) @ t=0.64
0.6302096443585534
% V (V) @ t=0.64
0.008414206323558441
% es.normE (V/m) @ t=0.66
1.7026703488891877
% es.EX (V/m) @ t=0.66
1.5734903810443868
% es.EY (V/m) @ t=0.66
0.09907640511797011
% es.EZ (V/m) @ t=0.66
0.6361024081220736
% es.tEX (V/m) @ t=0.66
1.5734903810443868
% es.tEY (V/m) @ t=0.66
0
% es.tEZ (V/m) @ t=0.66
0.6361024081220674
% es.Ex (V/m) @ t=0.66
1.5734903810443868
% es.Ey (V/m) @ t=0.66
0.09907640511797011
% es.Ez (V/m) @ t=0.66
0.6361024081220736
% es.tEx (V/m) @ t=0.66
1.5734903810443868
% es.tEy (V/m) @ t=0.66
0
% es.tEz (V/m) @ t=0.66
0.6361024081220674
% V (V) @ t=0.66
0.008492885251051062
% es.normE (V/m) @ t=0.68
1.71844365167467
% es.EX (V/m) @ t=0.68
1.5880669805624512
% es.EY (V/m) @ t=0.68
0.09999423470107005
% es.EZ (V/m) @ t=0.68
0.6419951718855914
% es.tEX (V/m) @ t=0.68
1.5880669805624494
% es.tEY (V/m) @ t=0.68
0
% es.tEZ (V/m) @ t=0.68
0.6419951718855894
% es.Ex (V/m) @ t=0.68
1.5880669805624512
% es.Ey (V/m) @ t=0.68
0.09999423470107005
% es.Ez (V/m) @ t=0.68
0.6419951718855914
% es.tEx (V/m) @ t=0.68
1.5880669805624494
% es.tEy (V/m) @ t=0.68
0
% es.tEz (V/m) @ t=0.68
0.6419951718855894
% V (V) @ t=0.68
0.008571564178543684
% es.normE (V/m) @ t=0.7
1.734216954460161
% es.EX (V/m) @ t=0.7
1.6026435800805192
% es.EY (V/m) @ t=0.7
0.10091206428417798
% es.EZ (V/m) @ t=0.7
0.6478879356491216
% es.tEX (V/m) @ t=0.7
1.6026435800805192
% es.tEY (V/m) @ t=0.7
0
% es.tEZ (V/m) @ t=0.7
0.6478879356491225
% es.Ex (V/m) @ t=0.7
1.6026435800805192
% es.Ey (V/m) @ t=0.7
0.10091206428417798
% es.Ez (V/m) @ t=0.7
0.6478879356491216
% es.tEx (V/m) @ t=0.7
1.6026435800805192
% es.tEy (V/m) @ t=0.7
0
% es.tEz (V/m) @ t=0.7
0.6478879356491225
% V (V) @ t=0.7
0.008650243106036305
% es.normE (V/m) @ t=0.72
1.7499902572456545
% es.EX (V/m) @ t=0.72
1.6172201795985948
% es.EY (V/m) @ t=0.72
0.10182989386727082
% es.EZ (V/m) @ t=0.72
0.6537806994126394
% es.tEX (V/m) @ t=0.72
1.6172201795985925
% es.tEY (V/m) @ t=0.72
0
% es.tEZ (V/m) @ t=0.72
0.6537806994126414
% es.Ex (V/m) @ t=0.72
1.6172201795985948
% es.Ey (V/m) @ t=0.72
0.10182989386727082
% es.Ez (V/m) @ t=0.72
0.6537806994126394
% es.tEx (V/m) @ t=0.72
1.6172201795985925
% es.tEy (V/m) @ t=0.72
0
% es.tEz (V/m) @ t=0.72
0.6537806994126414
% V (V) @ t=0.72
0.008728922033528924
% es.normE (V/m) @ t=0.74
1.7657635600311528
% es.EX (V/m) @ t=0.74
1.631796779116672
% es.EY (V/m) @ t=0.74
0.10274772345037708
% es.EZ (V/m) @ t=0.74
0.659673463176164
% es.tEX (V/m) @ t=0.74
1.631796779116672
% es.tEY (V/m) @ t=0.74
0
% es.tEZ (V/m) @ t=0.74
0.659673463176162
% es.Ex (V/m) @ t=0.74
1.631796779116672
% es.Ey (V/m) @ t=0.74
0.10274772345037708
% es.Ez (V/m) @ t=0.74
0.659673463176164
% es.tEx (V/m) @ t=0.74
1.631796779116672
% es.tEy (V/m) @ t=0.74
0
% es.tEz (V/m) @ t=0.74
0.659673463176162
% V (V) @ t=0.74
0.008807600961021544
% es.normE (V/m) @ t=0.76
1.7815368628166315
% es.EX (V/m) @ t=0.76
1.6463733786347294
% es.EY (V/m) @ t=0.76
0.1036655530334728
% es.EZ (V/m) @ t=0.76
0.6655662269396845
% es.tEX (V/m) @ t=0.76
1.6463733786347312
% es.tEY (V/m) @ t=0.76
0
% es.tEZ (V/m) @ t=0.76
0.6655662269396827
% es.Ex (V/m) @ t=0.76
1.6463733786347294
% es.Ey (V/m) @ t=0.76
0.1036655530334728
% es.Ez (V/m) @ t=0.76
0.6655662269396845
% es.tEx (V/m) @ t=0.76
1.6463733786347312
% es.tEy (V/m) @ t=0.76
0
% es.tEz (V/m) @ t=0.76
0.6655662269396827
% V (V) @ t=0.76
0.008886279888514167
% es.normE (V/m) @ t=0.78
1.797310165602127
% es.EX (V/m) @ t=0.78
1.660949978152805
% es.EY (V/m) @ t=0.78
0.10458338261657707
% es.EZ (V/m) @ t=0.78
0.671458990703204
% es.tEX (V/m) @ t=0.78
1.6609499781528116
% es.tEY (V/m) @ t=0.78
0
% es.tEZ (V/m) @ t=0.78
0.6714589907032011
% es.Ex (V/m) @ t=0.78
1.660949978152805
% es.Ey (V/m) @ t=0.78
0.10458338261657707
% es.Ez (V/m) @ t=0.78
0.671458990703204
% es.tEx (V/m) @ t=0.78
1.6609499781528116
% es.tEy (V/m) @ t=0.78
0
% es.tEz (V/m) @ t=0.78
0.6714589907032011
% V (V) @ t=0.78
0.008964958816006787
% es.normE (V/m) @ t=0.8
1.8130834683876271
% es.EX (V/m) @ t=0.8
1.6755265776708819
% es.EY (V/m) @ t=0.8
0.10550121219967346
% es.EZ (V/m) @ t=0.8
0.6773517544667325
% es.tEX (V/m) @ t=0.8
1.6755265776708965
% es.tEY (V/m) @ t=0.8
0
% es.tEZ (V/m) @ t=0.8
0.6773517544667342
% es.Ex (V/m) @ t=0.8
1.6755265776708819
% es.Ey (V/m) @ t=0.8
0.10550121219967346
% es.Ez (V/m) @ t=0.8
0.6773517544667325
% es.tEx (V/m) @ t=0.8
1.6755265776708965
% es.tEy (V/m) @ t=0.8
0
% es.tEz (V/m) @ t=0.8
0.6773517544667342
% V (V) @ t=0.8
0.00904363774349941
% es.normE (V/m) @ t=0.82
1.8290299827982417
% es.EX (V/m) @ t=0.82
1.6902632484351416
% es.EY (V/m) @ t=0.82
0.10642912050700881
% es.EZ (V/m) @ t=0.82
0.6833092280434867
% es.tEX (V/m) @ t=0.82
1.6902632484351416
% es.tEY (V/m) @ t=0.82
0
% es.tEZ (V/m) @ t=0.82
0.6833092280434885
% es.Ex (V/m) @ t=0.82
1.6902632484351416
% es.Ey (V/m) @ t=0.82
0.10642912050700881
% es.Ez (V/m) @ t=0.82
0.6833092280434867
% es.tEx (V/m) @ t=0.82
1.6902632484351416
% es.tEy (V/m) @ t=0.82
0
% es.tEz (V/m) @ t=0.82
0.6833092280434885
% V (V) @ t=0.82
0.009123181625208775
% es.normE (V/m) @ t=0.84
1.8466706856231325
% es.EX (V/m) @ t=0.84
1.7065655811493814
% es.EY (V/m) @ t=0.84
0.1074556091366149
% es.EZ (V/m) @ t=0.84
0.6898996303616101
% es.tEX (V/m) @ t=0.84
1.706565581149384
% es.tEY (V/m) @ t=0.84
0
% es.tEZ (V/m) @ t=0.84
0.6898996303616083
% es.Ex (V/m) @ t=0.84
1.7065655811493814
% es.Ey (V/m) @ t=0.84
0.1074556091366149
% es.Ez (V/m) @ t=0.84
0.6898996303616101
% es.tEx (V/m) @ t=0.84
1.706565581149384
% es.tEy (V/m) @ t=0.84
0
% es.tEz (V/m) @ t=0.84
0.6898996303616083
% V (V) @ t=0.84
0.009211185651622001
% es.normE (V/m) @ t=0.86
1.8643113884480473
% es.EX (V/m) @ t=0.86
1.7228679138636336
% es.EY (V/m) @ t=0.86
0.10848209776622186
% es.EZ (V/m) @ t=0.86
0.6964900326797241
% es.tEX (V/m) @ t=0.86
1.722867913863631
% es.tEY (V/m) @ t=0.86
0
% es.tEZ (V/m) @ t=0.86
0.6964900326797268
% es.Ex (V/m) @ t=0.86
1.7228679138636336
% es.Ey (V/m) @ t=0.86
0.10848209776622186
% es.Ez (V/m) @ t=0.86
0.6964900326797241
% es.tEx (V/m) @ t=0.86
1.722867913863631
% es.tEy (V/m) @ t=0.86
0
% es.tEz (V/m) @ t=0.86
0.6964900326797268
% V (V) @ t=0.86
0.009299189678035231
% es.normE (V/m) @ t=0.88
1.881952091272963
% es.EX (V/m) @ t=0.88
1.7391702465778787
% es.EY (V/m) @ t=0.88
0.10950858639582095
% es.EZ (V/m) @ t=0.88
0.7030804349978177
% es.tEX (V/m) @ t=0.88
1.7391702465778724
% es.tEY (V/m) @ t=0.88
0
% es.tEZ (V/m) @ t=0.88
0.7030804349978221
% es.Ex (V/m) @ t=0.88
1.7391702465778787
% es.Ey (V/m) @ t=0.88
0.10950858639582095
% es.Ez (V/m) @ t=0.88
0.7030804349978177
% es.tEx (V/m) @ t=0.88
1.7391702465778724
% es.tEy (V/m) @ t=0.88
0
% es.tEz (V/m) @ t=0.88
0.7030804349978221
% V (V) @ t=0.88
0.00938719370444846
% es.normE (V/m) @ t=0.9
1.8995927940979116
% es.EX (V/m) @ t=0.9
1.7554725792921282
% es.EY (V/m) @ t=0.9
0.11053507502542637
% es.EZ (V/m) @ t=0.9
0.7096708373159495
% es.tEX (V/m) @ t=0.9
1.755472579292121
% es.tEY (V/m) @ t=0.9
0
% es.tEZ (V/m) @ t=0.9
0.7096708373159477
% es.Ex (V/m) @ t=0.9
1.7554725792921282
% es.Ey (V/m) @ t=0.9
0.11053507502542637
% es.Ez (V/m) @ t=0.9
0.7096708373159495
% es.tEx (V/m) @ t=0.9
1.755472579292121
% es.tEy (V/m) @ t=0.9
0
% es.tEz (V/m) @ t=0.9
0.7096708373159477
% V (V) @ t=0.9
0.009475197730861692
% es.normE (V/m) @ t=0.92
1.9172334969228686
% es.EX (V/m) @ t=0.92
1.7717749120063813
% es.EY (V/m) @ t=0.92
0.11156156365503433
% es.EZ (V/m) @ t=0.92
0.7162612396340529
% es.tEX (V/m) @ t=0.92
1.771774912006384
% es.tEY (V/m) @ t=0.92
0
% es.tEZ (V/m) @ t=0.92
0.7162612396340484
% es.Ex (V/m) @ t=0.92
1.7717749120063813
% es.Ey (V/m) @ t=0.92
0.11156156365503433
% es.Ez (V/m) @ t=0.92
0.7162612396340529
% es.tEx (V/m) @ t=0.92
1.771774912006384
% es.tEy (V/m) @ t=0.92
0
% es.tEz (V/m) @ t=0.92
0.7162612396340484
% V (V) @ t=0.92
0.009563201757274917
% es.normE (V/m) @ t=0.94
1.9348741997478225
% es.EX (V/m) @ t=0.94
1.7880772447206157
% es.EY (V/m) @ t=0.94
0.11258805228463342
% es.EZ (V/m) @ t=0.94
0.7228516419521607
% es.tEX (V/m) @ t=0.94
1.7880772447206077
% es.tEY (V/m) @ t=0.94
0
% es.tEZ (V/m) @ t=0.94
0.7228516419521651
% es.Ex (V/m) @ t=0.94
1.7880772447206157
% es.Ey (V/m) @ t=0.94
0.11258805228463342
% es.Ez (V/m) @ t=0.94
0.7228516419521607
% es.tEx (V/m) @ t=0.94
1.7880772447206077
% es.tEy (V/m) @ t=0.94
0
% es.tEz (V/m) @ t=0.94
0.7228516419521651
% V (V) @ t=0.94
0.009651205783688149
% es.normE (V/m) @ t=0.96
1.9525149025728168
% es.EX (V/m) @ t=0.96
1.8043795774348714
% es.EY (V/m) @ t=0.96
0.11361454091425305
% es.EZ (V/m) @ t=0.96
0.7294420442702862
% es.tEX (V/m) @ t=0.96
1.804379577434867
% es.tEY (V/m) @ t=0.96
0
% es.tEZ (V/m) @ t=0.96
0.7294420442702854
% es.Ex (V/m) @ t=0.96
1.8043795774348714
% es.Ey (V/m) @ t=0.96
0.11361454091425305
% es.Ez (V/m) @ t=0.96
0.7294420442702862
% es.tEx (V/m) @ t=0.96
1.804379577434867
% es.tEy (V/m) @ t=0.96
0
% es.tEz (V/m) @ t=0.96
0.7294420442702854
% V (V) @ t=0.96
0.009739209810101377
% es.normE (V/m) @ t=0.98
1.9701556053978113
% es.EX (V/m) @ t=0.98
1.82068191014912
% es.EY (V/m) @ t=0.98
0.11464102954384303
% es.EZ (V/m) @ t=0.98
0.736032446588395
% es.tEX (V/m) @ t=0.98
1.820681910149121
% es.tEY (V/m) @ t=0.98
0
% es.tEZ (V/m) @ t=0.98
0.7360324465883932
% es.Ex (V/m) @ t=0.98
1.82068191014912
% es.Ey (V/m) @ t=0.98
0.11464102954384303
% es.Ez (V/m) @ t=0.98
0.736032446588395
% es.tEx (V/m) @ t=0.98
1.820681910149121
% es.tEy (V/m) @ t=0.98
0
% es.tEz (V/m) @ t=0.98
0.7360324465883932
% V (V) @ t=0.98
0.009827213836514605
% es.normE (V/m) @ t=1
1.9877963082228085
% es.EX (V/m) @ t=1
1.8369842428633545
% es.EY (V/m) @ t=1
0.115667518173451
% es.EZ (V/m) @ t=1
0.7426228489065108
% es.tEX (V/m) @ t=1
1.8369842428633554
% es.tEY (V/m) @ t=1
0
% es.tEZ (V/m) @ t=1
0.7426228489065116
% es.Ex (V/m) @ t=1
1.8369842428633545
% es.Ey (V/m) @ t=1
0.115667518173451
% es.Ez (V/m) @ t=1
0.7426228489065108
% es.tEx (V/m) @ t=1
1.8369842428633554
% es.tEy (V/m) @ t=1
0
% es.tEz (V/m) @ t=1
0.7426228489065116
% V (V) @ t=1
0.009915217862927836
% es.normE (V/m) @ t=1.02
2.0054370110478366
% es.EX (V/m) @ t=1.02
1.8532865755776182
% es.EY (V/m) @ t=1.02
0.1166940068030573
% es.EZ (V/m) @ t=1.02
0.7492132512246044
% es.tEX (V/m) @ t=1.02
1.8532865755776147
% es.tEY (V/m) @ t=1.02
0
% es.tEZ (V/m) @ t=1.02
0.7492132512246141
% es.Ex (V/m) @ t=1.02
1.8532865755776182
% es.Ey (V/m) @ t=1.02
0.1166940068030573
% es.Ez (V/m) @ t=1.02
0.7492132512246044
% es.tEx (V/m) @ t=1.02
1.8532865755776147
% es.tEy (V/m) @ t=1.02
0
% es.tEz (V/m) @ t=1.02
0.7492132512246141
% V (V) @ t=1.02
0.010003221889341064
% es.normE (V/m) @ t=1.04
2.0230777138728646
% es.EX (V/m) @ t=1.04
1.869588908291858
% es.EY (V/m) @ t=1.04
0.11772049543266161
% es.EZ (V/m) @ t=1.04
0.7558036535427233
% es.tEX (V/m) @ t=1.04
1.869588908291858
% es.tEY (V/m) @ t=1.04
0
% es.tEZ (V/m) @ t=1.04
0.755803653542718
% es.Ex (V/m) @ t=1.04
1.869588908291858
% es.Ey (V/m) @ t=1.04
0.11772049543266161
% es.Ez (V/m) @ t=1.04
0.7558036535427233