% Model:              1 neuron.mph
% Version:            COMSOL 6.0.0.405
% Date:               Mar 16 2023, 10:16
% Dimension:          0
% Nodes:              14017
% Expressions:        14017
% Description:        Electric field norm, Electric field, X component, Electric field, Y component, Electric field, Z component, Tangential electric field, X component, Tangential electric field, Y component, Tangential electric field, Z component, Electric field, x component, Electric field, y component, Electric field, z component, Tangential electric field, x component, Tangential electric field, y component, Tangential electric field, z component, Electric potential
% Length unit:        mm
% x
1.66
% y
12.2
% z
1
% es.normE (V/m) @ t=0
1.497436205275463
% es.EX (V/m) @ t=0
-0.5337425703396017
% es.EY (V/m) @ t=0
0.16956740404258552
% es.EZ (V/m) @ t=0
1.384468139604154
% es.tEX (V/m) @ t=0
-0.5337425703396088
% es.tEY (V/m) @ t=0
0
% es.tEZ (V/m) @ t=0
1.3844681396041603
% es.Ex (V/m) @ t=0
-0.5337425703396017
% es.Ey (V/m) @ t=0
0.16956740404258552
% es.Ez (V/m) @ t=0
1.384468139604154
% es.tEx (V/m) @ t=0
-0.5337425703396088
% es.tEy (V/m) @ t=0
0
% es.tEz (V/m) @ t=0
1.3844681396041603
% V (V) @ t=0
0.0072907057176638665
% es.normE (V/m) @ t=0.02
1.2933637589872207
% es.EX (V/m) @ t=0.02
-0.46100347901754024
% es.EY (V/m) @ t=0.02
0.1464585489489455
% es.EZ (V/m) @ t=0.02
1.1957911195667492
% es.tEX (V/m) @ t=0.02
-0.46100347901754557
% es.tEY (V/m) @ t=0.02
0
% es.tEZ (V/m) @ t=0.02
1.1957911195667448
% es.Ex (V/m) @ t=0.02
-0.46100347901754024
% es.Ey (V/m) @ t=0.02
0.1464585489489455
% es.Ez (V/m) @ t=0.02
1.1957911195667492
% es.tEx (V/m) @ t=0.02
-0.46100347901754557
% es.tEy (V/m) @ t=0.02
0
% es.tEz (V/m) @ t=0.02
1.1957911195667448
% V (V) @ t=0.02
0.006297118997250606
% es.normE (V/m) @ t=0.04
1.3052593477137755
% es.EX (V/m) @ t=0.04
-0.4652435166781266
% es.EY (V/m) @ t=0.04
0.14780558634171792
% es.EZ (V/m) @ t=0.04
1.206789292639837
% es.tEX (V/m) @ t=0.04
-0.46524351667813013
% es.tEY (V/m) @ t=0.04
0
% es.tEZ (V/m) @ t=0.04
1.2067892926398356
% es.Ex (V/m) @ t=0.04
-0.4652435166781266
% es.Ey (V/m) @ t=0.04
0.14780558634171792
% es.Ez (V/m) @ t=0.04
1.206789292639837
% es.tEx (V/m) @ t=0.04
-0.46524351667813013
% es.tEy (V/m) @ t=0.04
0
% es.tEz (V/m) @ t=0.04
1.2067892926398356
% V (V) @ t=0.04
0.006355035682191483
% es.normE (V/m) @ t=0.06
1.3172651124177266
% es.EX (V/m) @ t=0.06
-0.46952281898948856
% es.EY (V/m) @ t=0.06
0.14916510240405034
% es.EZ (V/m) @ t=0.06
1.2178893316090953
% es.tEX (V/m) @ t=0.06
-0.46952281898949566
% es.tEY (V/m) @ t=0.06
0
% es.tEZ (V/m) @ t=0.06
1.2178893316090944
% es.Ex (V/m) @ t=0.06
-0.46952281898948856
% es.Ey (V/m) @ t=0.06
0.14916510240405034
% es.Ez (V/m) @ t=0.06
1.2178893316090953
% es.tEx (V/m) @ t=0.06
-0.46952281898949566
% es.tEy (V/m) @ t=0.06
0
% es.tEz (V/m) @ t=0.06
1.2178893316090944
% V (V) @ t=0.06
0.006413489925972766
% es.normE (V/m) @ t=0.08
1.3294478294955925
% es.EX (V/m) @ t=0.08
-0.4738651914993258
% es.EY (V/m) @ t=0.08
0.1505446572966529
% es.EZ (V/m) @ t=0.08
1.2291529741014076
% es.tEX (V/m) @ t=0.08
-0.4738651914993294
% es.tEY (V/m) @ t=0.08
0
% es.tEZ (V/m) @ t=0.08
1.2291529741014093
% es.Ex (V/m) @ t=0.08
-0.4738651914993258
% es.Ey (V/m) @ t=0.08
0.1505446572966529
% es.Ez (V/m) @ t=0.08
1.2291529741014076
% es.tEx (V/m) @ t=0.08
-0.4738651914993294
% es.tEy (V/m) @ t=0.08
0
% es.tEz (V/m) @ t=0.08
1.2291529741014093
% V (V) @ t=0.08
0.006472806139724742
% es.normE (V/m) @ t=0.1
1.341766747303676
% es.EX (V/m) @ t=0.1
-0.47825610931484397
% es.EY (V/m) @ t=0.1
0.15193963613217332
% es.EZ (V/m) @ t=0.1
1.2405425426766272
% es.tEX (V/m) @ t=0.1
-0.47825610931485285
% es.tEY (V/m) @ t=0.1
0
% es.tEZ (V/m) @ t=0.1
1.2405425426766286
% es.Ex (V/m) @ t=0.1
-0.47825610931484397
% es.Ey (V/m) @ t=0.1
0.15193963613217332
% es.Ez (V/m) @ t=0.1
1.2405425426766272
% es.tEx (V/m) @ t=0.1
-0.47825610931485285
% es.tEy (V/m) @ t=0.1
0
% es.tEz (V/m) @ t=0.1
1.2405425426766286
% V (V) @ t=0.1
0.006532785814140453
% es.normE (V/m) @ t=0.12
1.3540856651117685
% es.EX (V/m) @ t=0.12
-0.4826470271303761
% es.EY (V/m) @ t=0.12
0.15333461496770107
% es.EZ (V/m) @ t=0.12
1.2519321112518496
% es.tEX (V/m) @ t=0.12
-0.4826470271303832
% es.tEY (V/m) @ t=0.12
0
% es.tEZ (V/m) @ t=0.12
1.2519321112518496
% es.Ex (V/m) @ t=0.12
-0.4826470271303761
% es.Ey (V/m) @ t=0.12
0.15333461496770107
% es.Ez (V/m) @ t=0.12
1.2519321112518496
% es.tEx (V/m) @ t=0.12
-0.4826470271303832
% es.tEy (V/m) @ t=0.12
0
% es.tEz (V/m) @ t=0.12
1.2519321112518496
% V (V) @ t=0.12
0.006592765488556163
% es.normE (V/m) @ t=0.14
1.3664973367888393
% es.EX (V/m) @ t=0.14
-0.48707100845462525
% es.EY (V/m) @ t=0.14
0.15474009605541628
% es.EZ (V/m) @ t=0.14
1.2634074355601892
% es.tEX (V/m) @ t=0.14
-0.48707100845463236
% es.tEY (V/m) @ t=0.14
0
% es.tEZ (V/m) @ t=0.14
1.2634074355601879
% es.Ex (V/m) @ t=0.14
-0.48707100845462525
% es.Ey (V/m) @ t=0.14
0.15474009605541628
% es.Ez (V/m) @ t=0.14
1.2634074355601892
% es.tEx (V/m) @ t=0.14
-0.48707100845463236
% es.tEy (V/m) @ t=0.14
0
% es.tEz (V/m) @ t=0.14
1.2634074355601879
% V (V) @ t=0.14
0.0066531962950530585
% es.normE (V/m) @ t=0.16
1.379477992046795
% es.EX (V/m) @ t=0.16
-0.49169781251597044
% es.EY (V/m) @ t=0.16
0.15621000150758224
% es.EZ (V/m) @ t=0.16
1.2754088145188565
% es.tEX (V/m) @ t=0.16
-0.4916978125159793
% es.tEY (V/m) @ t=0.16
0
% es.tEZ (V/m) @ t=0.16
1.2754088145188582
% es.Ex (V/m) @ t=0.16
-0.49169781251597044
% es.Ey (V/m) @ t=0.16
0.15621000150758224
% es.Ez (V/m) @ t=0.16
1.2754088145188565
% es.tEx (V/m) @ t=0.16
-0.4916978125159793
% es.tEy (V/m) @ t=0.16
0
% es.tEz (V/m) @ t=0.16
1.2754088145188582
% V (V) @ t=0.16
0.006716394498207799
% es.normE (V/m) @ t=0.18
1.3924586473047624
% es.EX (V/m) @ t=0.18
-0.49632461657732974
% es.EY (V/m) @ t=0.18
0.15767990695974243
% es.EZ (V/m) @ t=0.18
1.2874101934775313
% es.tEX (V/m) @ t=0.18
-0.4963246165773333
% es.tEY (V/m) @ t=0.18
0
% es.tEZ (V/m) @ t=0.18
1.2874101934775313
% es.Ex (V/m) @ t=0.18
-0.49632461657732974
% es.Ey (V/m) @ t=0.18
0.15767990695974243
% es.Ez (V/m) @ t=0.18
1.2874101934775313
% es.tEx (V/m) @ t=0.18
-0.4963246165773333
% es.tEy (V/m) @ t=0.18
0
% es.tEz (V/m) @ t=0.18
1.2874101934775313
% V (V) @ t=0.18
0.006779592701362541
% es.normE (V/m) @ t=0.2
1.4054393025627292
% es.EX (V/m) @ t=0.2
-0.5009514206386819
% es.EY (V/m) @ t=0.2
0.1591498124119075
% es.EZ (V/m) @ t=0.2
1.2994115724362088
% es.tEX (V/m) @ t=0.2
-0.5009514206386908
% es.tEY (V/m) @ t=0.2
0
% es.tEZ (V/m) @ t=0.2
1.2994115724362096
% es.Ex (V/m) @ t=0.2
-0.5009514206386819
% es.Ey (V/m) @ t=0.2
0.1591498124119075
% es.Ez (V/m) @ t=0.2
1.2994115724362088
% es.tEx (V/m) @ t=0.2
-0.5009514206386908
% es.tEy (V/m) @ t=0.2
0
% es.tEz (V/m) @ t=0.2
1.2994115724362096
% V (V) @ t=0.2
0.006842790904517283
% es.normE (V/m) @ t=0.22
1.4184199578206864
% es.EX (V/m) @ t=0.22
-0.5055782247000236
% es.EY (V/m) @ t=0.22
0.16061971786407803
% es.EZ (V/m) @ t=0.22
1.3114129513948778
% es.tEX (V/m) @ t=0.22
-0.5055782247000307
% es.tEY (V/m) @ t=0.22
0
% es.tEZ (V/m) @ t=0.22
1.311412951394881
% es.Ex (V/m) @ t=0.22
-0.5055782247000236
% es.Ey (V/m) @ t=0.22
0.16061971786407803
% es.Ez (V/m) @ t=0.22
1.3114129513948778
% es.tEx (V/m) @ t=0.22
-0.5055782247000307
% es.tEy (V/m) @ t=0.22
0
% es.tEz (V/m) @ t=0.22
1.311412951394881
% V (V) @ t=0.22
0.0069059891076720245
% es.normE (V/m) @ t=0.24
1.4314006130786465
% es.EX (V/m) @ t=0.24
-0.5102050287613722
% es.EY (V/m) @ t=0.24
0.1620896233162452
% es.EZ (V/m) @ t=0.24
1.3234143303535482
% es.tEX (V/m) @ t=0.24
-0.5102050287613811
% es.tEY (V/m) @ t=0.24
0
% es.tEZ (V/m) @ t=0.24
1.3234143303535504
% es.Ex (V/m) @ t=0.24
-0.5102050287613722
% es.Ey (V/m) @ t=0.24
0.1620896233162452
% es.Ez (V/m) @ t=0.24
1.3234143303535482
% es.tEx (V/m) @ t=0.24
-0.5102050287613811
% es.tEy (V/m) @ t=0.24
0
% es.tEz (V/m) @ t=0.24
1.3234143303535504
% V (V) @ t=0.24
0.0069691873108267645
% es.normE (V/m) @ t=0.26
1.4443812683366102
% es.EX (V/m) @ t=0.26
-0.5148318328227279
% es.EY (V/m) @ t=0.26
0.1635595287684085
% es.EZ (V/m) @ t=0.26
1.3354157093122194
% es.tEX (V/m) @ t=0.26
-0.514831832822735
% es.tEY (V/m) @ t=0.26
0
% es.tEZ (V/m) @ t=0.26
1.3354157093122199
% es.Ex (V/m) @ t=0.26
-0.5148318328227279
% es.Ey (V/m) @ t=0.26
0.1635595287684085
% es.Ez (V/m) @ t=0.26
1.3354157093122194
% es.tEx (V/m) @ t=0.26
-0.514831832822735
% es.tEy (V/m) @ t=0.26
0
% es.tEz (V/m) @ t=0.26
1.3354157093122199
% V (V) @ t=0.26
0.007032385513981506
% es.normE (V/m) @ t=0.28
1.4577965434277305
% es.EX (V/m) @ t=0.28
-0.5196135110415916
% es.EY (V/m) @ t=0.28
0.1650786662044602
% es.EZ (V/m) @ t=0.28
1.3478189311366577
% es.tEX (V/m) @ t=0.28
-0.5196135110415987
% es.tEY (V/m) @ t=0.28
0
% es.tEZ (V/m) @ t=0.28
1.3478189311366613
% es.Ex (V/m) @ t=0.28
-0.5196135110415916
% es.Ey (V/m) @ t=0.28
0.1650786662044602
% es.Ez (V/m) @ t=0.28
1.3478189311366577
% es.tEx (V/m) @ t=0.28
-0.5196135110415987
% es.tEy (V/m) @ t=0.28
0
% es.tEz (V/m) @ t=0.28
1.3478189311366613
% V (V) @ t=0.28
0.007097707208509055
% es.normE (V/m) @ t=0.3
1.4722739871782273
% es.EX (V/m) @ t=0.3
-0.5247736866591042
% es.EY (V/m) @ t=0.3
0.16671812182741597
% es.EZ (V/m) @ t=0.3
1.3612042178956556
% es.tEX (V/m) @ t=0.3
-0.5247736866591113
% es.tEY (V/m) @ t=0.3
0
% es.tEZ (V/m) @ t=0.3
1.361204217895657
% es.Ex (V/m) @ t=0.3
-0.5247736866591042
% es.Ey (V/m) @ t=0.3
0.16671812182741597
% es.Ez (V/m) @ t=0.3
1.3612042178956556
% es.tEx (V/m) @ t=0.3
-0.5247736866591113
% es.tEy (V/m) @ t=0.3
0
% es.tEz (V/m) @ t=0.3
1.361204217895657
% V (V) @ t=0.3
0.007168218509705601
% es.normE (V/m) @ t=0.32
1.4867514309287473
% es.EX (V/m) @ t=0.32
-0.5299338622766238
% es.EY (V/m) @ t=0.32
0.16835757745037638
% es.EZ (V/m) @ t=0.32
1.3745895046546526
% es.tEX (V/m) @ t=0.32
-0.5299338622766309
% es.tEY (V/m) @ t=0.32
0
% es.tEZ (V/m) @ t=0.32
1.3745895046546552
% es.Ex (V/m) @ t=0.32
-0.5299338622766238
% es.Ey (V/m) @ t=0.32
0.16835757745037638
% es.Ez (V/m) @ t=0.32
1.3745895046546526
% es.tEx (V/m) @ t=0.32
-0.5299338622766309
% es.tEy (V/m) @ t=0.32
0
% es.tEz (V/m) @ t=0.32
1.3745895046546552
% V (V) @ t=0.32
0.0072387298109021486
% es.normE (V/m) @ t=0.34
1.50122887467928
% es.EX (V/m) @ t=0.34
-0.5350940378941346
% es.EY (V/m) @ t=0.34
0.1699970330733348
% es.EZ (V/m) @ t=0.34
1.387974791413645
% es.tEX (V/m) @ t=0.34
-0.5350940378941363
% es.tEY (V/m) @ t=0.34
0
% es.tEZ (V/m) @ t=0.34
1.3879747914136473
% es.Ex (V/m) @ t=0.34
-0.5350940378941346
% es.Ey (V/m) @ t=0.34
0.1699970330733348
% es.Ez (V/m) @ t=0.34
1.387974791413645
% es.tEx (V/m) @ t=0.34
-0.5350940378941363
% es.tEy (V/m) @ t=0.34
0
% es.tEz (V/m) @ t=0.34
1.3879747914136473
% V (V) @ t=0.34
0.007309241112098696
% es.normE (V/m) @ t=0.36
1.515706318429837
% es.EX (V/m) @ t=0.36
-0.5402542135116559
% es.EY (V/m) @ t=0.36
0.1716364886962939
% es.EZ (V/m) @ t=0.36
1.401360078172639
% es.tEX (V/m) @ t=0.36
-0.540254213511663
% es.tEY (V/m) @ t=0.36
0
% es.tEZ (V/m) @ t=0.36
1.4013600781726394
% es.Ex (V/m) @ t=0.36
-0.5402542135116559
% es.Ey (V/m) @ t=0.36
0.1716364886962939
% es.Ez (V/m) @ t=0.36
1.401360078172639
% es.tEx (V/m) @ t=0.36
-0.540254213511663
% es.tEy (V/m) @ t=0.36
0
% es.tEz (V/m) @ t=0.36
1.4013600781726394
% V (V) @ t=0.36
0.007379752413295243
% es.normE (V/m) @ t=0.38
1.5301837621804113
% es.EX (V/m) @ t=0.38
-0.5454143891291755
% es.EY (V/m) @ t=0.38
0.17327594431925486
% es.EZ (V/m) @ t=0.38
1.4147453649316315
% es.tEX (V/m) @ t=0.38
-0.5454143891291826
% es.tEY (V/m) @ t=0.38
0
% es.tEZ (V/m) @ t=0.38
1.4147453649316333
% es.Ex (V/m) @ t=0.38
-0.5454143891291755
% es.Ey (V/m) @ t=0.38
0.17327594431925486
% es.Ez (V/m) @ t=0.38
1.4147453649316315
% es.tEx (V/m) @ t=0.38
-0.5454143891291826
% es.tEy (V/m) @ t=0.38
0
% es.tEz (V/m) @ t=0.38
1.4147453649316333
% V (V) @ t=0.38
0.007450263714491791
% es.normE (V/m) @ t=0.4
1.5446612059310034
% es.EX (V/m) @ t=0.4
-0.5505745647466845
% es.EY (V/m) @ t=0.4
0.17491539994220828
% es.EZ (V/m) @ t=0.4
1.428130651690629
% es.tEX (V/m) @ t=0.4
-0.5505745647466952
% es.tEY (V/m) @ t=0.4
0
% es.tEZ (V/m) @ t=0.4
1.4281306516906263
% es.Ex (V/m) @ t=0.4
-0.5505745647466845
% es.Ey (V/m) @ t=0.4
0.17491539994220828
% es.Ez (V/m) @ t=0.4
1.428130651690629
% es.tEx (V/m) @ t=0.4
-0.5505745647466952
% es.tEy (V/m) @ t=0.4
0
% es.tEz (V/m) @ t=0.4
1.4281306516906263
% V (V) @ t=0.4
0.00752077501568834
% es.normE (V/m) @ t=0.42
1.5591386496816124
% es.EX (V/m) @ t=0.42
-0.5557347403641935
% es.EY (V/m) @ t=0.42
0.17655485556515949
% es.EZ (V/m) @ t=0.42
1.441515938449625
% es.tEX (V/m) @ t=0.42
-0.5557347403642006
% es.tEY (V/m) @ t=0.42
0
% es.tEZ (V/m) @ t=0.42
1.4415159384496237
% es.Ex (V/m) @ t=0.42
-0.5557347403641935
% es.Ey (V/m) @ t=0.42
0.17655485556515949
% es.Ez (V/m) @ t=0.42
1.441515938449625
% es.tEx (V/m) @ t=0.42
-0.5557347403642006
% es.tEy (V/m) @ t=0.42
0
% es.tEz (V/m) @ t=0.42
1.4415159384496237
% V (V) @ t=0.42
0.007591286316884889
% es.normE (V/m) @ t=0.44
1.5736160934322418
% es.EX (V/m) @ t=0.44
-0.5608949159817203
% es.EY (V/m) @ t=0.44
0.17819431118812223
% es.EZ (V/m) @ t=0.44
1.4549012252086166
% es.tEX (V/m) @ t=0.44
-0.5608949159817274
% es.tEY (V/m) @ t=0.44
0
% es.tEZ (V/m) @ t=0.44
1.4549012252086149
% es.Ex (V/m) @ t=0.44
-0.5608949159817203
% es.Ey (V/m) @ t=0.44
0.17819431118812223
% es.Ez (V/m) @ t=0.44
1.4549012252086166
% es.tEx (V/m) @ t=0.44
-0.5608949159817274
% es.tEy (V/m) @ t=0.44
0
% es.tEz (V/m) @ t=0.44
1.4549012252086149
% V (V) @ t=0.44
0.007661797618081435
% es.normE (V/m) @ t=0.46
1.5880935371828908
% es.EX (V/m) @ t=0.46
-0.5660550915992328
% es.EY (V/m) @ t=0.46
0.17983376681108654
% es.EZ (V/m) @ t=0.46
1.4682865119676154
% es.tEX (V/m) @ t=0.46
-0.56605509159924
% es.tEY (V/m) @ t=0.46
0
% es.tEZ (V/m) @ t=0.46
1.468286511967615
% es.Ex (V/m) @ t=0.46
-0.5660550915992328
% es.Ey (V/m) @ t=0.46
0.17983376681108654
% es.Ez (V/m) @ t=0.46
1.4682865119676154
% es.tEx (V/m) @ t=0.46
-0.56605509159924
% es.tEy (V/m) @ t=0.46
0
% es.tEz (V/m) @ t=0.46
1.468286511967615
% V (V) @ t=0.46
0.007732308919277982
% es.normE (V/m) @ t=0.48
1.60257098093355
% es.EX (V/m) @ t=0.48
-0.5712152672167559
% es.EY (V/m) @ t=0.48
0.1814732224340344
% es.EZ (V/m) @ t=0.48
1.4816717987266057
% es.tEX (V/m) @ t=0.48
-0.5712152672167665
% es.tEY (V/m) @ t=0.48
0
% es.tEZ (V/m) @ t=0.48
1.4816717987266035
% es.Ex (V/m) @ t=0.48
-0.5712152672167559
% es.Ey (V/m) @ t=0.48
0.1814732224340344
% es.Ez (V/m) @ t=0.48
1.4816717987266057
% es.tEx (V/m) @ t=0.48
-0.5712152672167665
% es.tEy (V/m) @ t=0.48
0
% es.tEz (V/m) @ t=0.48
1.4816717987266035
% V (V) @ t=0.48
0.0078028202204745295
% es.normE (V/m) @ t=0.5
1.617048424684226
% es.EX (V/m) @ t=0.5
-0.5763754428342649
% es.EY (V/m) @ t=0.5
0.18311267805699505
% es.EZ (V/m) @ t=0.5
1.4950570854856013
% es.tEX (V/m) @ t=0.5
-0.576375442834272
% es.tEY (V/m) @ t=0.5
0
% es.tEZ (V/m) @ t=0.5
1.4950570854856027
% es.Ex (V/m) @ t=0.5
-0.5763754428342649
% es.Ey (V/m) @ t=0.5
0.18311267805699505
% es.Ez (V/m) @ t=0.5
1.4950570854856013
% es.tEx (V/m) @ t=0.5
-0.576375442834272
% es.tEy (V/m) @ t=0.5
0
% es.tEz (V/m) @ t=0.5
1.4950570854856027
% V (V) @ t=0.5
0.007873331521671079
% es.normE (V/m) @ t=0.52
1.6315258684349225
% es.EX (V/m) @ t=0.52
-0.5815356184517845
% es.EY (V/m) @ t=0.52
0.18475213367995735
% es.EZ (V/m) @ t=0.52
1.5084423722445979
% es.tEX (V/m) @ t=0.52
-0.5815356184517916
% es.tEY (V/m) @ t=0.52
0
% es.tEZ (V/m) @ t=0.52
1.5084423722446
% es.Ex (V/m) @ t=0.52
-0.5815356184517845
% es.Ey (V/m) @ t=0.52
0.18475213367995735
% es.Ez (V/m) @ t=0.52
1.5084423722445979
% es.tEx (V/m) @ t=0.52
-0.5815356184517916
% es.tEy (V/m) @ t=0.52
0
% es.tEz (V/m) @ t=0.52
1.5084423722446
% V (V) @ t=0.52
0.007943842822867626
% es.normE (V/m) @ t=0.54
1.6460033121856277
% es.EX (V/m) @ t=0.54
-0.5866957940692971
% es.EY (V/m) @ t=0.54
0.18639158930291244
% es.EZ (V/m) @ t=0.54
1.52182765900359
% es.tEX (V/m) @ t=0.54
-0.5866957940693042
% es.tEY (V/m) @ t=0.54
0
% es.tEZ (V/m) @ t=0.54
1.5218276590035913
% es.Ex (V/m) @ t=0.54
-0.5866957940692971
% es.Ey (V/m) @ t=0.54
0.18639158930291244
% es.Ez (V/m) @ t=0.54
1.52182765900359
% es.tEx (V/m) @ t=0.54
-0.5866957940693042
% es.tEy (V/m) @ t=0.54
0
% es.tEz (V/m) @ t=0.54
1.5218276590035913
% V (V) @ t=0.54
0.008014354124064173
% es.normE (V/m) @ t=0.56
1.6614764858720426
% es.EX (V/m) @ t=0.56
-0.5922109946356033
% es.EY (V/m) @ t=0.56
0.18814375598050626
% es.EZ (V/m) @ t=0.56
1.5361335268160379
% es.tEX (V/m) @ t=0.56
-0.5922109946356104
% es.tEY (V/m) @ t=0.56
0
% es.tEZ (V/m) @ t=0.56
1.5361335268160383
% es.Ex (V/m) @ t=0.56
-0.5922109946356033
% es.Ey (V/m) @ t=0.56
0.18814375598050626
% es.Ez (V/m) @ t=0.56
1.5361335268160379
% es.tEx (V/m) @ t=0.56
-0.5922109946356104
% es.tEy (V/m) @ t=0.56
0
% es.tEz (V/m) @ t=0.56
1.5361335268160383
% V (V) @ t=0.56
0.008089693501678454
% es.normE (V/m) @ t=0.58
1.6776394067731575
% es.EX (V/m) @ t=0.58
-0.5979721227981051
% es.EY (V/m) @ t=0.58
0.18997399818162453
% es.EZ (V/m) @ t=0.58
1.5510770858284437
% es.tEX (V/m) @ t=0.58
-0.5979721227981122
% es.tEY (V/m) @ t=0.58
0
% es.tEZ (V/m) @ t=0.58
1.5510770858284468
% es.Ex (V/m) @ t=0.58
-0.5979721227981051
% es.Ey (V/m) @ t=0.58
0.18997399818162453
% es.Ez (V/m) @ t=0.58
1.5510770858284437
% es.tEx (V/m) @ t=0.58
-0.5979721227981122
% es.tEy (V/m) @ t=0.58
0
% es.tEz (V/m) @ t=0.58
1.5510770858284468
% V (V) @ t=0.58
0.008168377312499074
% es.normE (V/m) @ t=0.6
1.693802327674279
% es.EX (V/m) @ t=0.6
-0.6037332509606279
% es.EY (V/m) @ t=0.6
0.19180424038271626
% es.EZ (V/m) @ t=0.6
1.566020644840847
% es.tEX (V/m) @ t=0.6
-0.6037332509606421
% es.tEY (V/m) @ t=0.6
0
% es.tEZ (V/m) @ t=0.6
1.5660206448408491
% es.Ex (V/m) @ t=0.6
-0.6037332509606279
% es.Ey (V/m) @ t=0.6
0.19180424038271626
% es.Ez (V/m) @ t=0.6
1.566020644840847
% es.tEx (V/m) @ t=0.6
-0.6037332509606421
% es.tEy (V/m) @ t=0.6
0
% es.tEz (V/m) @ t=0.6
1.5660206448408491
% V (V) @ t=0.6
0.008247061123319693
% es.normE (V/m) @ t=0.62
1.709965248575401
% es.EX (V/m) @ t=0.62
-0.6094943791231368
% es.EY (V/m) @ t=0.62
0.19363448258382387
% es.EZ (V/m) @ t=0.62
1.5809642038532483
% es.tEX (V/m) @ t=0.62
-0.609494379123151
% es.tEY (V/m) @ t=0.62
0
% es.tEZ (V/m) @ t=0.62
1.5809642038532505
% es.Ex (V/m) @ t=0.62
-0.6094943791231368
% es.Ey (V/m) @ t=0.62
0.19363448258382387
% es.Ez (V/m) @ t=0.62
1.5809642038532483
% es.tEx (V/m) @ t=0.62
-0.609494379123151
% es.tEy (V/m) @ t=0.62
0
% es.tEz (V/m) @ t=0.62
1.5809642038532505
% V (V) @ t=0.62
0.00832574493414031
% es.normE (V/m) @ t=0.64
1.726128169476529
% es.EX (V/m) @ t=0.64
-0.6152555072856456
% es.EY (V/m) @ t=0.64
0.19546472478492605
% es.EZ (V/m) @ t=0.64
1.5959077628656497
% es.tEX (V/m) @ t=0.64
-0.6152555072856527
% es.tEY (V/m) @ t=0.64
0
% es.tEZ (V/m) @ t=0.64
1.5959077628656493
% es.Ex (V/m) @ t=0.64
-0.6152555072856456
% es.Ey (V/m) @ t=0.64
0.19546472478492605
% es.Ez (V/m) @ t=0.64
1.5959077628656497
% es.tEx (V/m) @ t=0.64
-0.6152555072856527
% es.tEy (V/m) @ t=0.64
0
% es.tEz (V/m) @ t=0.64
1.5959077628656493
% V (V) @ t=0.64
0.008404428744960928
% es.normE (V/m) @ t=0.66
1.7422910903776652
% es.EX (V/m) @ t=0.66
-0.6210166354481614
% es.EY (V/m) @ t=0.66
0.19729496698603244
% es.EZ (V/m) @ t=0.66
1.610851321878053
% es.tEX (V/m) @ t=0.66
-0.6210166354481685
% es.tEY (V/m) @ t=0.66
0
% es.tEZ (V/m) @ t=0.66
1.6108513218780542
% es.Ex (V/m) @ t=0.66
-0.6210166354481614
% es.Ey (V/m) @ t=0.66
0.19729496698603244
% es.Ez (V/m) @ t=0.66
1.610851321878053
% es.tEx (V/m) @ t=0.66
-0.6210166354481685
% es.tEy (V/m) @ t=0.66
0
% es.tEz (V/m) @ t=0.66
1.6108513218780542
% V (V) @ t=0.66
0.008483112555781549
% es.normE (V/m) @ t=0.68
1.758454011278801
% es.EX (V/m) @ t=0.68
-0.6267777636106631
% es.EY (V/m) @ t=0.68
0.19912520918714716
% es.EZ (V/m) @ t=0.68
1.6257948808904543
% es.tEX (V/m) @ t=0.68
-0.6267777636106702
% es.tEY (V/m) @ t=0.68
0
% es.tEZ (V/m) @ t=0.68
1.6257948808904565
% es.Ex (V/m) @ t=0.68
-0.6267777636106631
% es.Ey (V/m) @ t=0.68
0.19912520918714716
% es.Ez (V/m) @ t=0.68
1.6257948808904543
% es.tEx (V/m) @ t=0.68
-0.6267777636106702
% es.tEy (V/m) @ t=0.68
0
% es.tEz (V/m) @ t=0.68
1.6257948808904565
% V (V) @ t=0.68
0.008561796366602165
% es.normE (V/m) @ t=0.7
1.7746169321799514
% es.EX (V/m) @ t=0.7
-0.6325388917731861
% es.EY (V/m) @ t=0.7
0.20095545138823967
% es.EZ (V/m) @ t=0.7
1.6407384399028602
% es.tEX (V/m) @ t=0.7
-0.6325388917731932
% es.tEY (V/m) @ t=0.7
0
% es.tEZ (V/m) @ t=0.7
1.6407384399028597
% es.Ex (V/m) @ t=0.7
-0.6325388917731861
% es.Ey (V/m) @ t=0.7
0.20095545138823967
% es.Ez (V/m) @ t=0.7
1.6407384399028602
% es.tEx (V/m) @ t=0.7
-0.6325388917731932
% es.tEy (V/m) @ t=0.7
0
% es.tEz (V/m) @ t=0.7
1.6407384399028597
% V (V) @ t=0.7
0.008640480177422784
% es.normE (V/m) @ t=0.72
1.7907798530810988
% es.EX (V/m) @ t=0.72
-0.638300019935702
% es.EY (V/m) @ t=0.72
0.20278569358934506
% es.EZ (V/m) @ t=0.72
1.6556819989152598
% es.tEX (V/m) @ t=0.72
-0.6383000199357091
% es.tEY (V/m) @ t=0.72
0
% es.tEZ (V/m) @ t=0.72
1.6556819989152602
% es.Ex (V/m) @ t=0.72
-0.638300019935702
% es.Ey (V/m) @ t=0.72
0.20278569358934506
% es.Ez (V/m) @ t=0.72
1.6556819989152598
% es.tEx (V/m) @ t=0.72
-0.6383000199357091
% es.tEy (V/m) @ t=0.72
0
% es.tEz (V/m) @ t=0.72
1.6556819989152602
% V (V) @ t=0.72
0.008719163988243402
% es.normE (V/m) @ t=0.74
1.8069427739822546
% es.EX (V/m) @ t=0.74
-0.6440611480982179
% es.EY (V/m) @ t=0.74
0.20461593579045578
% es.EZ (V/m) @ t=0.74
1.6706255579276612
% es.tEX (V/m) @ t=0.74
-0.644061148098225
% es.tEY (V/m) @ t=0.74
0
% es.tEZ (V/m) @ t=0.74
1.6706255579276617
% es.Ex (V/m) @ t=0.74
-0.6440611480982179
% es.Ey (V/m) @ t=0.74
0.20461593579045578
% es.Ez (V/m) @ t=0.74
1.6706255579276612
% es.tEx (V/m) @ t=0.74
-0.644061148098225
% es.tEy (V/m) @ t=0.74
0
% es.tEz (V/m) @ t=0.74
1.6706255579276617
% V (V) @ t=0.74
0.008797847799064019
% es.normE (V/m) @ t=0.76
1.8231056948834143
% es.EX (V/m) @ t=0.76
-0.6498222762607303
% es.EY (V/m) @ t=0.76
0.20644617799155895
% es.EZ (V/m) @ t=0.76
1.6855691169400653
% es.tEX (V/m) @ t=0.76
-0.649822276260741
% es.tEY (V/m) @ t=0.76
0
% es.tEZ (V/m) @ t=0.76
1.6855691169400693
% es.Ex (V/m) @ t=0.76
-0.6498222762607303
% es.Ey (V/m) @ t=0.76
0.20644617799155895
% es.Ez (V/m) @ t=0.76
1.6855691169400653
% es.tEx (V/m) @ t=0.76
-0.649822276260741
% es.tEy (V/m) @ t=0.76
0
% es.tEz (V/m) @ t=0.76
1.6855691169400693
% V (V) @ t=0.76
0.00887653160988464
% es.normE (V/m) @ t=0.78
1.8392686157845701
% es.EX (V/m) @ t=0.78
-0.6555834044232354
% es.EY (V/m) @ t=0.78
0.2082764201926628
% es.EZ (V/m) @ t=0.78
1.7005126759524636
% es.tEX (V/m) @ t=0.78
-0.6555834044232425
% es.tEY (V/m) @ t=0.78
0
% es.tEZ (V/m) @ t=0.78
1.7005126759524662
% es.Ex (V/m) @ t=0.78
-0.6555834044232354
% es.Ey (V/m) @ t=0.78
0.2082764201926628
% es.Ez (V/m) @ t=0.78
1.7005126759524636
% es.tEx (V/m) @ t=0.78
-0.6555834044232425
% es.tEy (V/m) @ t=0.78
0
% es.tEz (V/m) @ t=0.78
1.7005126759524662
% V (V) @ t=0.78
0.008955215420705258
% es.normE (V/m) @ t=0.8
1.8554315366857395
% es.EX (V/m) @ t=0.8
-0.6613445325857513
% es.EY (V/m) @ t=0.8
0.21010666239376752
% es.EZ (V/m) @ t=0.8
1.715456234964868
% es.tEX (V/m) @ t=0.8
-0.6613445325857655
% es.tEY (V/m) @ t=0.8
0
% es.tEZ (V/m) @ t=0.8
1.7154562349648765
% es.Ex (V/m) @ t=0.8
-0.6613445325857513
% es.Ey (V/m) @ t=0.8
0.21010666239376752
% es.Ez (V/m) @ t=0.8
1.715456234964868
% es.tEx (V/m) @ t=0.8
-0.6613445325857655
% es.tEy (V/m) @ t=0.8
0
% es.tEz (V/m) @ t=0.8
1.7154562349648765
% V (V) @ t=0.8
0.009033899231525876
% es.normE (V/m) @ t=0.82
1.8715944575869106
% es.EX (V/m) @ t=0.82
-0.6671056607482673
% es.EY (V/m) @ t=0.82
0.2119369045948698
% es.EZ (V/m) @ t=0.82
1.7303997939772686
% es.tEX (V/m) @ t=0.82
-0.6671056607482744
% es.tEY (V/m) @ t=0.82
0
% es.tEZ (V/m) @ t=0.82
1.7303997939772708
% es.Ex (V/m) @ t=0.82
-0.6671056607482673
% es.Ey (V/m) @ t=0.82
0.2119369045948698
% es.Ez (V/m) @ t=0.82
1.7303997939772686
% es.tEx (V/m) @ t=0.82
-0.6671056607482744
% es.tEy (V/m) @ t=0.82
0
% es.tEz (V/m) @ t=0.82
1.7303997939772708
% V (V) @ t=0.82
0.009112583042346493
% es.normE (V/m) @ t=0.84
1.8894731802488378
% es.EX (V/m) @ t=0.84
-0.6734783315429341
% es.EY (V/m) @ t=0.84
0.21396145554307466
% es.EZ (V/m) @ t=0.84
1.7469297221342308
% es.tEX (V/m) @ t=0.84
-0.6734783315429483
% es.tEY (V/m) @ t=0.84
0
% es.tEZ (V/m) @ t=0.84
1.746929722134233
% es.Ex (V/m) @ t=0.84
-0.6734783315429341
% es.Ey (V/m) @ t=0.84
0.21396145554307466
% es.Ez (V/m) @ t=0.84
1.7469297221342308
% es.tEx (V/m) @ t=0.84
-0.6734783315429483
% es.tEy (V/m) @ t=0.84
0
% es.tEz (V/m) @ t=0.84
1.746929722134233
% V (V) @ t=0.84
0.009199626861196455
% es.normE (V/m) @ t=0.86
1.907561431887503
% es.EX (V/m) @ t=0.86
-0.6799256822364773
% es.EY (V/m) @ t=0.86
0.21600973493932996
% es.EZ (V/m) @ t=0.86
1.763653373313967
% es.tEX (V/m) @ t=0.86
-0.6799256822364844
% es.tEY (V/m) @ t=0.86
0
% es.tEZ (V/m) @ t=0.86
1.7636533733139643
% es.Ex (V/m) @ t=0.86
-0.6799256822364773
% es.Ey (V/m) @ t=0.86
0.21600973493932996
% es.Ez (V/m) @ t=0.86
1.763653373313967
% es.tEx (V/m) @ t=0.86
-0.6799256822364844
% es.tEy (V/m) @ t=0.86
0
% es.tEz (V/m) @ t=0.86
1.7636533733139643
% V (V) @ t=0.86
0.00928769158115976
% es.normE (V/m) @ t=0.88
1.9256496835261645
% es.EX (V/m) @ t=0.88
-0.6863730329300062
% es.EY (V/m) @ t=0.88
0.21805801433557948
% es.EZ (V/m) @ t=0.88
1.7803770244937027
% es.tEX (V/m) @ t=0.88
-0.6863730329300133
% es.tEY (V/m) @ t=0.88
0
% es.tEZ (V/m) @ t=0.88
1.7803770244937045
% es.Ex (V/m) @ t=0.88
-0.6863730329300062
% es.Ey (V/m) @ t=0.88
0.21805801433557948
% es.Ez (V/m) @ t=0.88
1.7803770244937027
% es.tEx (V/m) @ t=0.88
-0.6863730329300133
% es.tEy (V/m) @ t=0.88
0
% es.tEz (V/m) @ t=0.88
1.7803770244937045
% V (V) @ t=0.88
0.009375756301123063
% es.normE (V/m) @ t=0.9
1.943737935164823
% es.EX (V/m) @ t=0.9
-0.6928203836235384
% es.EY (V/m) @ t=0.9
0.22010629373183077
% es.EZ (V/m) @ t=0.9
1.797100675673434
% es.tEX (V/m) @ t=0.9
-0.692820383623549
% es.tEY (V/m) @ t=0.9
0
% es.tEZ (V/m) @ t=0.9
1.797100675673434
% es.Ex (V/m) @ t=0.9
-0.6928203836235384
% es.Ey (V/m) @ t=0.9
0.22010629373183077
% es.Ez (V/m) @ t=0.9
1.797100675673434
% es.tEx (V/m) @ t=0.9
-0.692820383623549
% es.tEy (V/m) @ t=0.9
0
% es.tEz (V/m) @ t=0.9
1.797100675673434
% V (V) @ t=0.9
0.00946382102108637
% es.normE (V/m) @ t=0.92
1.9618261868034794
% es.EX (V/m) @ t=0.92
-0.6992677343170637
% es.EY (V/m) @ t=0.92
0.22215457312809095
% es.EZ (V/m) @ t=0.92
1.8138243268531653
% es.tEX (V/m) @ t=0.92
-0.6992677343170708
% es.tEY (V/m) @ t=0.92
0
% es.tEZ (V/m) @ t=0.92
1.813824326853167
% es.Ex (V/m) @ t=0.92
-0.6992677343170637
% es.Ey (V/m) @ t=0.92
0.22215457312809095
% es.Ez (V/m) @ t=0.92
1.8138243268531653
% es.tEx (V/m) @ t=0.92
-0.6992677343170708
% es.tEy (V/m) @ t=0.92
0
% es.tEz (V/m) @ t=0.92
1.813824326853167
% V (V) @ t=0.92
0.009551885741049673
% es.normE (V/m) @ t=0.94
1.9799144384421403
% es.EX (V/m) @ t=0.94
-0.705715085010596
% es.EY (V/m) @ t=0.94
0.2242028525243398
% es.EZ (V/m) @ t=0.94
1.8305479780328975
% es.tEX (V/m) @ t=0.94
-0.7057150850106138
% es.tEY (V/m) @ t=0.94
0
% es.tEZ (V/m) @ t=0.94
1.8305479780329037
% es.Ex (V/m) @ t=0.94
-0.705715085010596
% es.Ey (V/m) @ t=0.94
0.2242028525243398
% es.Ez (V/m) @ t=0.94
1.8305479780328975
% es.tEx (V/m) @ t=0.94
-0.7057150850106138
% es.tEy (V/m) @ t=0.94
0
% es.tEz (V/m) @ t=0.94
1.8305479780329037
% V (V) @ t=0.94
0.00963995046101298
% es.normE (V/m) @ t=0.96
1.9980026900808072
% es.EX (V/m) @ t=0.96
-0.7121624357041318
% es.EY (V/m) @ t=0.96
0.22625113192059798
% es.EZ (V/m) @ t=0.96
1.847271629212634
% es.tEX (V/m) @ t=0.96
-0.7121624357041425
% es.tEY (V/m) @ t=0.96
0
% es.tEZ (V/m) @ t=0.96
1.8472716292126297
% es.Ex (V/m) @ t=0.96
-0.7121624357041318
% es.Ey (V/m) @ t=0.96
0.22625113192059798
% es.Ez (V/m) @ t=0.96
1.847271629212634
% es.tEx (V/m) @ t=0.96
-0.7121624357041425
% es.tEy (V/m) @ t=0.96
0
% es.tEz (V/m) @ t=0.96
1.8472716292126297
% V (V) @ t=0.96
0.009728015180976286
% es.normE (V/m) @ t=0.98
2.0160909417194706
% es.EX (V/m) @ t=0.98
-0.7186097863976572
% es.EY (V/m) @ t=0.98
0.22829941131685416
% es.EZ (V/m) @ t=0.98
1.8639952803923698
% es.tEX (V/m) @ t=0.98
-0.7186097863976643
% es.tEY (V/m) @ t=0.98
0
% es.tEZ (V/m) @ t=0.98
1.8639952803923698
% es.Ex (V/m) @ t=0.98
-0.7186097863976572
% es.Ey (V/m) @ t=0.98
0.22829941131685416
% es.Ez (V/m) @ t=0.98
1.8639952803923698
% es.tEx (V/m) @ t=0.98
-0.7186097863976643
% es.tEy (V/m) @ t=0.98
0
% es.tEz (V/m) @ t=0.98
1.8639952803923698
% V (V) @ t=0.98
0.009816079900939592
% es.normE (V/m) @ t=1
2.0341791933581304
% es.EX (V/m) @ t=1
-0.7250571370911859
% es.EY (V/m) @ t=1
0.23034769071311145
% es.EZ (V/m) @ t=1
1.8807189315720994
% es.tEX (V/m) @ t=1
-0.725057137091193
% es.tEY (V/m) @ t=1
0
% es.tEZ (V/m) @ t=1
1.8807189315720922
% es.Ex (V/m) @ t=1
-0.7250571370911859
% es.Ey (V/m) @ t=1
0.23034769071311145
% es.Ez (V/m) @ t=1
1.8807189315720994
% es.tEx (V/m) @ t=1
-0.725057137091193
% es.tEy (V/m) @ t=1
0
% es.tEz (V/m) @ t=1
1.8807189315720922
% V (V) @ t=1
0.009904144620902895
% es.normE (V/m) @ t=1.02
2.052267444996791
% es.EX (V/m) @ t=1.02
-0.7315044877847147
% es.EY (V/m) @ t=1.02
0.2323959701093532
% es.EZ (V/m) @ t=1.02
1.8974425827518315
% es.tEX (V/m) @ t=1.02
-0.7315044877847218
% es.tEY (V/m) @ t=1.02
0
% es.tEZ (V/m) @ t=1.02
1.8974425827518289
% es.Ex (V/m) @ t=1.02
-0.7315044877847147
% es.Ey (V/m) @ t=1.02
0.2323959701093532
% es.Ez (V/m) @ t=1.02
1.8974425827518315
% es.tEx (V/m) @ t=1.02
-0.7315044877847218
% es.tEy (V/m) @ t=1.02
0
% es.tEz (V/m) @ t=1.02
1.8974425827518289
% V (V) @ t=1.02
0.009992209340866202
% es.normE (V/m) @ t=1.04
2.0703556966354526
% es.EX (V/m) @ t=1.04
-0.7379518384782435
% es.EY (V/m) @ t=1.04
0.23444424950560538
% es.EZ (V/m) @ t=1.04
1.9141662339315637
% es.tEX (V/m) @ t=1.04