% Model:              1 neuron.mph
% Version:            COMSOL 6.0.0.405
% Date:               Mar 16 2023, 10:17
% Dimension:          0
% Nodes:              14017
% Expressions:        14017
% Description:        Electric field norm, Electric field, X component, Electric field, Y component, Electric field, Z component, Tangential electric field, X component, Tangential electric field, Y component, Tangential electric field, Z component, Electric field, x component, Electric field, y component, Electric field, z component, Tangential electric field, x component, Tangential electric field, y component, Tangential electric field, z component, Electric potential
% Length unit:        mm
% x
1
% y
12.2
% z
1.33
% es.normE (V/m) @ t=0
1.4777465887942778
% es.EX (V/m) @ t=0
1.3656315533478285
% es.EY (V/m) @ t=0
0.0859882990571319
% es.EZ (V/m) @ t=0
0.552073025303446
% es.tEX (V/m) @ t=0
1.3656315533478312
% es.tEY (V/m) @ t=0
0
% es.tEZ (V/m) @ t=0
0.5520730253034523
% es.Ex (V/m) @ t=0
1.3656315533478285
% es.Ey (V/m) @ t=0
0.0859882990571319
% es.Ez (V/m) @ t=0
0.552073025303446
% es.tEx (V/m) @ t=0
1.3656315533478312
% es.tEy (V/m) @ t=0
0
% es.tEz (V/m) @ t=0
0.5520730253034523
% V (V) @ t=0
0.007371244680050955
% es.normE (V/m) @ t=0.02
1.276359631000442
% es.EX (V/m) @ t=0.02
1.1795236059013714
% es.EY (V/m) @ t=0.02
0.07426983463379594
% es.EZ (V/m) @ t=0.02
0.47683664406260773
% es.tEX (V/m) @ t=0.02
1.1795236059013714
% es.tEY (V/m) @ t=0.02
0
% es.tEZ (V/m) @ t=0.02
0.47683664406260595
% es.Ex (V/m) @ t=0.02
1.1795236059013714
% es.Ey (V/m) @ t=0.02
0.07426983463379594
% es.Ez (V/m) @ t=0.02
0.47683664406260773
% es.tEx (V/m) @ t=0.02
1.1795236059013714
% es.tEy (V/m) @ t=0.02
0
% es.tEz (V/m) @ t=0.02
0.47683664406260595
% V (V) @ t=0.02
0.0063666931555903476
% es.normE (V/m) @ t=0.04
1.2881014470913437
% es.EX (V/m) @ t=0.04
1.1903745829713754
% es.EY (V/m) @ t=0.04
0.07495307714476174
% es.EZ (V/m) @ t=0.04
0.4812232828192169
% es.tEX (V/m) @ t=0.04
1.1903745829713763
% es.tEY (V/m) @ t=0.04
0
% es.tEZ (V/m) @ t=0.04
0.48122328281921734
% es.Ex (V/m) @ t=0.04
1.1903745829713754
% es.Ey (V/m) @ t=0.04
0.07495307714476174
% es.Ez (V/m) @ t=0.04
0.4812232828192169
% es.tEx (V/m) @ t=0.04
1.1903745829713763
% es.tEy (V/m) @ t=0.04
0
% es.tEz (V/m) @ t=0.04
0.48122328281921734
% V (V) @ t=0.04
0.006425263264933679
% es.normE (V/m) @ t=0.06
1.2999480255198093
% es.EX (V/m) @ t=0.06
1.2013223759867993
% es.EY (V/m) @ t=0.06
0.07564241050275705
% es.EZ (V/m) @ t=0.06
0.48564905502659084
% es.tEX (V/m) @ t=0.06
1.201322375986801
% es.tEY (V/m) @ t=0.06
0
% es.tEZ (V/m) @ t=0.06
0.48564905502658995
% es.Ex (V/m) @ t=0.06
1.2013223759867993
% es.Ey (V/m) @ t=0.06
0.07564241050275705
% es.Ez (V/m) @ t=0.06
0.48564905502659084
% es.tEx (V/m) @ t=0.06
1.201322375986801
% es.tEy (V/m) @ t=0.06
0
% es.tEz (V/m) @ t=0.06
0.48564905502658995
% V (V) @ t=0.06
0.0064843561435097685
% es.normE (V/m) @ t=0.08
1.3119782545781091
% es.EX (V/m) @ t=0.08
1.2124398938804282
% es.EY (V/m) @ t=0.08
0.0763424115027646
% es.EZ (V/m) @ t=0.08
0.4901434170964112
% es.tEX (V/m) @ t=0.08
1.2124398938804273
% es.tEY (V/m) @ t=0.08
0
% es.tEZ (V/m) @ t=0.08
0.49014341709640963
% es.Ex (V/m) @ t=0.08
1.2124398938804282
% es.Ey (V/m) @ t=0.08
0.0763424115027646
% es.Ez (V/m) @ t=0.08
0.4901434170964112
% es.tEx (V/m) @ t=0.08
1.2124398938804273
% es.tEy (V/m) @ t=0.08
0
% es.tEz (V/m) @ t=0.08
0.49014341709640963
% V (V) @ t=0.08
0.006544365865007
% es.normE (V/m) @ t=0.1
1.3241306041749166
% es.EX (V/m) @ t=0.1
1.2236702722284063
% es.EY (V/m) @ t=0.1
0.07704950607052768
% es.EZ (V/m) @ t=0.1
0.4946833887617146
% es.tEX (V/m) @ t=0.1
1.2236702722284027
% es.tEY (V/m) @ t=0.1
0
% es.tEZ (V/m) @ t=0.1
0.49468338876171325
% es.Ex (V/m) @ t=0.1
1.2236702722284063
% es.Ey (V/m) @ t=0.1
0.07704950607052768
% es.Ez (V/m) @ t=0.1
0.4946833887617146
% es.tEx (V/m) @ t=0.1
1.2236702722284027
% es.tEy (V/m) @ t=0.1
0
% es.tEz (V/m) @ t=0.1
0.49468338876171325
% V (V) @ t=0.1
0.006604985251449875
% es.normE (V/m) @ t=0.12
1.3362829537717236
% es.EX (V/m) @ t=0.12
1.2349006505763862
% es.EY (V/m) @ t=0.12
0.07775660063829176
% es.EZ (V/m) @ t=0.12
0.49922336042699955
% es.tEX (V/m) @ t=0.12
1.234900650576387
% es.tEY (V/m) @ t=0.12
0
% es.tEZ (V/m) @ t=0.12
0.4992233604270009
% es.Ex (V/m) @ t=0.12
1.2349006505763862
% es.Ey (V/m) @ t=0.12
0.07775660063829176
% es.Ez (V/m) @ t=0.12
0.49922336042699955
% es.tEx (V/m) @ t=0.12
1.234900650576387
% es.tEy (V/m) @ t=0.12
0
% es.tEz (V/m) @ t=0.12
0.4992233604270009
% V (V) @ t=0.12
0.006665604637892751
% es.normE (V/m) @ t=0.14
1.3485702865406897
% es.EX (V/m) @ t=0.14
1.246255703739874
% es.EY (V/m) @ t=0.14
0.07847174631342857
% es.EZ (V/m) @ t=0.14
0.5038139398091541
% es.tEX (V/m) @ t=0.14
1.2462557037398687
% es.tEY (V/m) @ t=0.14
0
% es.tEZ (V/m) @ t=0.14
0.5038139398091519
% es.Ex (V/m) @ t=0.14
1.246255703739874
% es.Ey (V/m) @ t=0.14
0.07847174631342857
% es.Ez (V/m) @ t=0.14
0.5038139398091541
% es.tEx (V/m) @ t=0.14
1.2462557037398687
% es.tEy (V/m) @ t=0.14
0
% es.tEz (V/m) @ t=0.14
0.5038139398091519
% V (V) @ t=0.14
0.006726889894785064
% es.normE (V/m) @ t=0.16
1.3613618843251043
% es.EX (V/m) @ t=0.16
1.258076512349624
% es.EY (V/m) @ t=0.16
0.07921696901009889
% es.EZ (V/m) @ t=0.16
0.5085935775801489
% es.tEX (V/m) @ t=0.16
1.2580765123496267
% es.tEY (V/m) @ t=0.16
0
% es.tEZ (V/m) @ t=0.16
0.5085935775801493
% es.Ex (V/m) @ t=0.16
1.258076512349624
% es.Ey (V/m) @ t=0.16
0.07921696901009889
% es.Ez (V/m) @ t=0.16
0.5085935775801489
% es.tEx (V/m) @ t=0.16
1.2580765123496267
% es.tEy (V/m) @ t=0.16
0
% es.tEz (V/m) @ t=0.16
0.5085935775801493
% V (V) @ t=0.16
0.006790662685242871
% es.normE (V/m) @ t=0.18
1.3741534821119228
% es.EX (V/m) @ t=0.18
1.2698973209593785
% es.EY (V/m) @ t=0.18
0.07996219170676294
% es.EZ (V/m) @ t=0.18
0.5133732153511372
% es.tEX (V/m) @ t=0.18
1.2698973209593767
% es.tEY (V/m) @ t=0.18
0
% es.tEZ (V/m) @ t=0.18
0.5133732153511419
% es.Ex (V/m) @ t=0.18
1.2698973209593785
% es.Ey (V/m) @ t=0.18
0.07996219170676294
% es.Ez (V/m) @ t=0.18
0.5133732153511372
% es.tEx (V/m) @ t=0.18
1.2698973209593767
% es.tEy (V/m) @ t=0.18
0
% es.tEz (V/m) @ t=0.18
0.5133732153511419
% V (V) @ t=0.18
0.006854435475700678
% es.normE (V/m) @ t=0.2
1.3869450799010723
% es.EX (V/m) @ t=0.2
1.2817181295691267
% es.EY (V/m) @ t=0.2
0.08070741440342344
% es.EZ (V/m) @ t=0.2
0.51815285312213
% es.tEX (V/m) @ t=0.2
1.2817181295691258
% es.tEY (V/m) @ t=0.2
0
% es.tEZ (V/m) @ t=0.2
0.5181528531221282
% es.Ex (V/m) @ t=0.2
1.2817181295691267
% es.Ey (V/m) @ t=0.2
0.08070741440342344
% es.Ez (V/m) @ t=0.2
0.51815285312213
% es.tEx (V/m) @ t=0.2
1.2817181295691258
% es.tEy (V/m) @ t=0.2
0
% es.tEz (V/m) @ t=0.2
0.5181528531221282
% V (V) @ t=0.2
0.0069182082661584845
% es.normE (V/m) @ t=0.22
1.399736677692502
% es.EX (V/m) @ t=0.22
1.2935389381788864
% es.EY (V/m) @ t=0.22
0.08145263710009815
% es.EZ (V/m) @ t=0.22
0.522932490893115
% es.tEX (V/m) @ t=0.22
1.2935389381788829
% es.tEY (V/m) @ t=0.22
0
% es.tEZ (V/m) @ t=0.22
0.5229324908931137
% es.Ex (V/m) @ t=0.22
1.2935389381788864
% es.Ey (V/m) @ t=0.22
0.08145263710009815
% es.Ez (V/m) @ t=0.22
0.522932490893115
% es.tEx (V/m) @ t=0.22
1.2935389381788829
% es.tEy (V/m) @ t=0.22
0
% es.tEz (V/m) @ t=0.22
0.5229324908931137
% V (V) @ t=0.22
0.0069819810566162915
% es.normE (V/m) @ t=0.24
1.412528275486134
% es.EX (V/m) @ t=0.24
1.3053597467886338
% es.EY (V/m) @ t=0.24
0.0821978597967587
% es.EZ (V/m) @ t=0.24
0.527712128664112
% es.tEX (V/m) @ t=0.24
1.3053597467886302
% es.tEY (V/m) @ t=0.24
0
% es.tEZ (V/m) @ t=0.24
0.527712128664116
% es.Ex (V/m) @ t=0.24
1.3053597467886338
% es.Ey (V/m) @ t=0.24
0.0821978597967587
% es.Ez (V/m) @ t=0.24
0.527712128664112
% es.tEx (V/m) @ t=0.24
1.3053597467886302
% es.tEy (V/m) @ t=0.24
0
% es.tEz (V/m) @ t=0.24
0.527712128664116
% V (V) @ t=0.24
0.007045753847074097
% es.normE (V/m) @ t=0.26
1.425319873281918
% es.EX (V/m) @ t=0.26
1.3171805553983864
% es.EY (V/m) @ t=0.26
0.08294308249342103
% es.EZ (V/m) @ t=0.26
0.5324917664350992
% es.tEX (V/m) @ t=0.26
1.3171805553983855
% es.tEY (V/m) @ t=0.26
0
% es.tEZ (V/m) @ t=0.26
0.5324917664350948
% es.Ex (V/m) @ t=0.26
1.3171805553983864
% es.Ey (V/m) @ t=0.26
0.08294308249342103
% es.Ez (V/m) @ t=0.26
0.5324917664350992
% es.tEx (V/m) @ t=0.26
1.3171805553983855
% es.tEy (V/m) @ t=0.26
0
% es.tEz (V/m) @ t=0.26
0.5324917664350948
% V (V) @ t=0.26
0.0071095266375319046
% es.normE (V/m) @ t=0.28
1.4387450043765067
% es.EX (V/m) @ t=0.28
1.3295870680273962
% es.EY (V/m) @ t=0.28
0.08372447324935711
% es.EZ (V/m) @ t=0.28
0.5375074581700185
% es.tEX (V/m) @ t=0.28
1.3295870680274016
% es.tEY (V/m) @ t=0.28
0
% es.tEZ (V/m) @ t=0.28
0.5375074581700181
% es.Ex (V/m) @ t=0.28
1.3295870680273962
% es.Ey (V/m) @ t=0.28
0.08372447324935711
% es.Ez (V/m) @ t=0.28
0.5375074581700185
% es.tEx (V/m) @ t=0.28
1.3295870680274016
% es.tEy (V/m) @ t=0.28
0
% es.tEz (V/m) @ t=0.28
0.5375074581700181
% V (V) @ t=0.28
0.007176485880831441
% es.normE (V/m) @ t=0.3
1.4530022711367663
% es.EX (V/m) @ t=0.3
1.3427628933435587
% es.EY (V/m) @ t=0.3
0.08455337016190556
% es.EZ (V/m) @ t=0.3
0.5428332029408218
% es.tEX (V/m) @ t=0.3
1.3427628933435578
% es.tEY (V/m) @ t=0.3
0
% es.tEZ (V/m) @ t=0.3
0.5428332029408263
% es.Ex (V/m) @ t=0.3
1.3427628933435587
% es.Ey (V/m) @ t=0.3
0.08455337016190556
% es.Ez (V/m) @ t=0.3
0.5428332029408218
% es.tEx (V/m) @ t=0.3
1.3427628933435578
% es.tEy (V/m) @ t=0.3
0
% es.tEz (V/m) @ t=0.3
0.5428332029408263
% V (V) @ t=0.3
0.007247630478025675
% es.normE (V/m) @ t=0.32
1.4672595378986864
% es.EX (V/m) @ t=0.32
1.355938718659715
% es.EY (V/m) @ t=0.32
0.08538226707445495
% es.EZ (V/m) @ t=0.32
0.54815894771163
% es.tEX (V/m) @ t=0.32
1.3559387186597176
% es.tEY (V/m) @ t=0.32
0
% es.tEZ (V/m) @ t=0.32
0.5481589477116291
% es.Ex (V/m) @ t=0.32
1.355938718659715
% es.Ey (V/m) @ t=0.32
0.08538226707445495
% es.Ez (V/m) @ t=0.32
0.54815894771163
% es.tEx (V/m) @ t=0.32
1.3559387186597176
% es.tEy (V/m) @ t=0.32
0
% es.tEz (V/m) @ t=0.32
0.5481589477116291
% V (V) @ t=0.32
0.00731877507521991
% es.normE (V/m) @ t=0.34
1.4815168046622271
% es.EX (V/m) @ t=0.34
1.3691145439758747
% es.EY (V/m) @ t=0.34
0.08621116398700424
% es.EZ (V/m) @ t=0.34
0.5534846924824364
% es.tEX (V/m) @ t=0.34
1.3691145439758738
% es.tEY (V/m) @ t=0.34
0
% es.tEZ (V/m) @ t=0.34
0.553484692482439
% es.Ex (V/m) @ t=0.34
1.3691145439758747
% es.Ey (V/m) @ t=0.34
0.08621116398700424
% es.Ez (V/m) @ t=0.34
0.5534846924824364
% es.tEx (V/m) @ t=0.34
1.3691145439758738
% es.tEy (V/m) @ t=0.34
0
% es.tEz (V/m) @ t=0.34
0.553484692482439
% V (V) @ t=0.34
0.007389919672414148
% es.normE (V/m) @ t=0.36
1.495774071427331
% es.EX (V/m) @ t=0.36
1.38229036929203
% es.EY (V/m) @ t=0.36
0.08704006089955618
% es.EZ (V/m) @ t=0.36
0.5588104372532352
% es.tEX (V/m) @ t=0.36
1.38229036929203
% es.tEY (V/m) @ t=0.36
0
% es.tEZ (V/m) @ t=0.36
0.5588104372532343
% es.Ex (V/m) @ t=0.36
1.38229036929203
% es.Ey (V/m) @ t=0.36
0.08704006089955618
% es.Ez (V/m) @ t=0.36
0.5588104372532352
% es.tEx (V/m) @ t=0.36
1.38229036929203
% es.tEy (V/m) @ t=0.36
0
% es.tEz (V/m) @ t=0.36
0.5588104372532343
% V (V) @ t=0.36
0.007461064269608381
% es.normE (V/m) @ t=0.38
1.5100313381939698
% es.EX (V/m) @ t=0.38
1.3954661946081917
% es.EY (V/m) @ t=0.38
0.08786895781209403
% es.EZ (V/m) @ t=0.38
0.564136182024042
% es.tEX (V/m) @ t=0.38
1.3954661946081899
% es.tEY (V/m) @ t=0.38
0
% es.tEZ (V/m) @ t=0.38
0.5641361820240456
% es.Ex (V/m) @ t=0.38
1.3954661946081917
% es.Ey (V/m) @ t=0.38
0.08786895781209403
% es.Ez (V/m) @ t=0.38
0.564136182024042
% es.tEx (V/m) @ t=0.38
1.3954661946081899
% es.tEy (V/m) @ t=0.38
0
% es.tEz (V/m) @ t=0.38
0.5641361820240456
% V (V) @ t=0.38
0.007532208866802619
% es.normE (V/m) @ t=0.4
1.5242886049620887
% es.EX (V/m) @ t=0.4
1.4086420199243506
% es.EY (V/m) @ t=0.4
0.08869785472464509
% es.EZ (V/m) @ t=0.4
0.5694619267948462
% es.tEX (V/m) @ t=0.4
1.4086420199243541
% es.tEY (V/m) @ t=0.4
0
% es.tEZ (V/m) @ t=0.4
0.5694619267948444
% es.Ex (V/m) @ t=0.4
1.4086420199243506
% es.Ey (V/m) @ t=0.4
0.08869785472464509
% es.Ez (V/m) @ t=0.4
0.5694619267948462
% es.tEx (V/m) @ t=0.4
1.4086420199243541
% es.tEy (V/m) @ t=0.4
0
% es.tEz (V/m) @ t=0.4
0.5694619267948444
% V (V) @ t=0.4
0.007603353463996853
% es.normE (V/m) @ t=0.42
1.5385458717316578
% es.EX (V/m) @ t=0.42
1.4218178452405166
% es.EY (V/m) @ t=0.42
0.08952675163719442
% es.EZ (V/m) @ t=0.42
0.5747876715656561
% es.tEX (V/m) @ t=0.42
1.4218178452405157
% es.tEY (V/m) @ t=0.42
0
% es.tEZ (V/m) @ t=0.42
0.5747876715656579
% es.Ex (V/m) @ t=0.42
1.4218178452405166
% es.Ey (V/m) @ t=0.42
0.08952675163719442
% es.Ez (V/m) @ t=0.42
0.5747876715656561
% es.tEx (V/m) @ t=0.42
1.4218178452405157
% es.tEy (V/m) @ t=0.42
0
% es.tEz (V/m) @ t=0.42
0.5747876715656579
% V (V) @ t=0.42
0.007674498061191089
% es.normE (V/m) @ t=0.44
1.5528031385026155
% es.EX (V/m) @ t=0.44
1.4349936705566702
% es.EY (V/m) @ t=0.44
0.09035564854973493
% es.EZ (V/m) @ t=0.44
0.5801134163364576
% es.tEX (V/m) @ t=0.44
1.4349936705566693
% es.tEY (V/m) @ t=0.44
0
% es.tEZ (V/m) @ t=0.44
0.5801134163364585
% es.Ex (V/m) @ t=0.44
1.4349936705566702
% es.Ey (V/m) @ t=0.44
0.09035564854973493
% es.Ez (V/m) @ t=0.44
0.5801134163364576
% es.tEx (V/m) @ t=0.44
1.4349936705566693
% es.tEy (V/m) @ t=0.44
0
% es.tEz (V/m) @ t=0.44
0.5801134163364585
% V (V) @ t=0.44
0.007745642658385323
% es.normE (V/m) @ t=0.46
1.5670604052749477
% es.EX (V/m) @ t=0.46
1.44816949587283
% es.EY (V/m) @ t=0.46
0.09118454546228416
% es.EZ (V/m) @ t=0.46
0.5854391611072729
% es.tEX (V/m) @ t=0.46
1.4481694958728273
% es.tEY (V/m) @ t=0.46
0
% es.tEZ (V/m) @ t=0.46
0.5854391611072729
% es.Ex (V/m) @ t=0.46
1.44816949587283
% es.Ey (V/m) @ t=0.46
0.09118454546228416
% es.Ez (V/m) @ t=0.46
0.5854391611072729
% es.tEx (V/m) @ t=0.46
1.4481694958728273
% es.tEy (V/m) @ t=0.46
0
% es.tEz (V/m) @ t=0.46
0.5854391611072729
% V (V) @ t=0.46
0.00781678725557956
% es.normE (V/m) @ t=0.48
1.581317672048602
% es.EX (V/m) @ t=0.48
1.4613453211889933
% es.EY (V/m) @ t=0.48
0.09201344237483966
% es.EZ (V/m) @ t=0.48
0.5907649058780642
% es.tEX (V/m) @ t=0.48
1.4613453211890004
% es.tEY (V/m) @ t=0.48
0
% es.tEZ (V/m) @ t=0.48
0.5907649058780668
% es.Ex (V/m) @ t=0.48
1.4613453211889933
% es.Ey (V/m) @ t=0.48
0.09201344237483966
% es.Ez (V/m) @ t=0.48
0.5907649058780642
% es.tEx (V/m) @ t=0.48
1.4613453211890004
% es.tEy (V/m) @ t=0.48
0
% es.tEz (V/m) @ t=0.48
0.5907649058780668
% V (V) @ t=0.48
0.007887931852773799
% es.normE (V/m) @ t=0.5
1.5955749388235443
% es.EX (V/m) @ t=0.5
1.474521146505145
% es.EY (V/m) @ t=0.5
0.092842339287382
% es.EZ (V/m) @ t=0.5
0.596090650648875
% es.tEX (V/m) @ t=0.5
1.4745211465051522
% es.tEY (V/m) @ t=0.5
0
% es.tEZ (V/m) @ t=0.5
0.596090650648875
% es.Ex (V/m) @ t=0.5
1.474521146505145
% es.Ey (V/m) @ t=0.5
0.092842339287382
% es.Ez (V/m) @ t=0.5
0.596090650648875
% es.tEx (V/m) @ t=0.5
1.4745211465051522
% es.tEy (V/m) @ t=0.5
0
% es.tEz (V/m) @ t=0.5
0.596090650648875
% V (V) @ t=0.5
0.00795907644996803
% es.normE (V/m) @ t=0.52
1.6098322055997514
% es.EX (V/m) @ t=0.52
1.4876969718213058
% es.EY (V/m) @ t=0.52
0.09367123619992773
% es.EZ (V/m) @ t=0.52
0.6014163954196825
% es.tEX (V/m) @ t=0.52
1.487696971821305
% es.tEY (V/m) @ t=0.52
0
% es.tEZ (V/m) @ t=0.52
0.6014163954196805
% es.Ex (V/m) @ t=0.52
1.4876969718213058
% es.Ey (V/m) @ t=0.52
0.09367123619992773
% es.Ez (V/m) @ t=0.52
0.6014163954196825
% es.tEx (V/m) @ t=0.52
1.487696971821305
% es.tEy (V/m) @ t=0.52
0
% es.tEz (V/m) @ t=0.52
0.6014163954196805
% V (V) @ t=0.52
0.008030221047162268
% es.normE (V/m) @ t=0.54
1.6240894723771784
% es.EX (V/m) @ t=0.54
1.500872797137463
% es.EY (V/m) @ t=0.54
0.09450013311248323
% es.EZ (V/m) @ t=0.54
0.6067421401904887
% es.tEX (V/m) @ t=0.54
1.500872797137462
% es.tEY (V/m) @ t=0.54
0
% es.tEZ (V/m) @ t=0.54
0.6067421401904869
% es.Ex (V/m) @ t=0.54
1.500872797137463
% es.Ey (V/m) @ t=0.54
0.09450013311248323
% es.Ez (V/m) @ t=0.54
0.6067421401904887
% es.tEx (V/m) @ t=0.54
1.500872797137462
% es.tEy (V/m) @ t=0.54
0
% es.tEz (V/m) @ t=0.54
0.6067421401904869
% V (V) @ t=0.54
0.008101365644356505
% es.normE (V/m) @ t=0.56
1.6397758005058298
% es.EX (V/m) @ t=0.56
1.5153687762480557
% es.EY (V/m) @ t=0.56
0.09541363636550576
% es.EZ (V/m) @ t=0.56
0.6126030628764432
% es.tEX (V/m) @ t=0.56
1.5153687762480557
% es.tEY (V/m) @ t=0.56
0
% es.tEZ (V/m) @ t=0.56
0.6126030628764405
% es.Ex (V/m) @ t=0.56
1.5153687762480557
% es.Ey (V/m) @ t=0.56
0.09541363636550576
% es.Ez (V/m) @ t=0.56
0.6126030628764432
% es.tEx (V/m) @ t=0.56
1.5153687762480557
% es.tEy (V/m) @ t=0.56
0
% es.tEz (V/m) @ t=0.56
0.6126030628764405
% V (V) @ t=0.56
0.008179584137021533
% es.normE (V/m) @ t=0.58
1.6556673501742794
% es.EX (V/m) @ t=0.58
1.530054337136546
% es.EY (V/m) @ t=0.58
0.09633928958204613
% es.EZ (V/m) @ t=0.58
0.6185408402296821
% es.tEX (V/m) @ t=0.58
1.5300543371365452
% es.tEY (V/m) @ t=0.58
0
% es.tEZ (V/m) @ t=0.58
0.6185408402296804
% es.Ex (V/m) @ t=0.58
1.530054337136546
% es.Ey (V/m) @ t=0.58
0.09633928958204613
% es.Ez (V/m) @ t=0.58
0.6185408402296821
% es.tEx (V/m) @ t=0.58
1.5300543371365452
% es.tEy (V/m) @ t=0.58
0
% es.tEz (V/m) @ t=0.58
0.6185408402296804
% V (V) @ t=0.58
0.008258818482298275
% es.normE (V/m) @ t=0.6
1.671558899845007
% es.EX (V/m) @ t=0.6
1.5447398980250235
% es.EY (V/m) @ t=0.6
0.09726494279861031
% es.EZ (V/m) @ t=0.6
0.6244786175829289
% es.tEX (V/m) @ t=0.6
1.5447398980250258
% es.tEY (V/m) @ t=0.6
0
% es.tEZ (V/m) @ t=0.6
0.6244786175829291
% es.Ex (V/m) @ t=0.6
1.5447398980250235
% es.Ey (V/m) @ t=0.6
0.09726494279861031
% es.Ez (V/m) @ t=0.6
0.6244786175829289
% es.tEx (V/m) @ t=0.6
1.5447398980250258
% es.tEy (V/m) @ t=0.6
0
% es.tEz (V/m) @ t=0.6
0.6244786175829291
% V (V) @ t=0.6
0.00833805282757502
% es.normE (V/m) @ t=0.62
1.687450449517961
% es.EX (V/m) @ t=0.62
1.5594254589135055
% es.EY (V/m) @ t=0.62
0.09819059601515334
% es.EZ (V/m) @ t=0.62
0.630416394936179
% es.tEX (V/m) @ t=0.62
1.5594254589135055
% es.tEY (V/m) @ t=0.62
0
% es.tEZ (V/m) @ t=0.62
0.6304163949361765
% es.Ex (V/m) @ t=0.62
1.5594254589135055
% es.Ey (V/m) @ t=0.62
0.09819059601515334
% es.Ez (V/m) @ t=0.62
0.630416394936179
% es.tEx (V/m) @ t=0.62
1.5594254589135055
% es.tEy (V/m) @ t=0.62
0
% es.tEz (V/m) @ t=0.62
0.6304163949361765
% V (V) @ t=0.62
0.008417287172851761
% es.normE (V/m) @ t=0.64
1.703341999193076
% es.EX (V/m) @ t=0.64
1.5741110198019919
% es.EY (V/m) @ t=0.64
0.09911624923170426
% es.EZ (V/m) @ t=0.64
0.6363541722894257
% es.tEX (V/m) @ t=0.64
1.5741110198019896
% es.tEY (V/m) @ t=0.64
0
% es.tEZ (V/m) @ t=0.64
0.6363541722894248
% es.Ex (V/m) @ t=0.64
1.5741110198019919
% es.Ey (V/m) @ t=0.64
0.09911624923170426
% es.Ez (V/m) @ t=0.64
0.6363541722894257
% es.tEx (V/m) @ t=0.64
1.5741110198019896
% es.tEy (V/m) @ t=0.64
0
% es.tEz (V/m) @ t=0.64
0.6363541722894248
% V (V) @ t=0.64
0.008496521518128505
% es.normE (V/m) @ t=0.66
1.719233548870282
% es.EX (V/m) @ t=0.66
1.5887965806904694
% es.EY (V/m) @ t=0.66
0.10004190244825983
% es.EZ (V/m) @ t=0.66
0.6422919496426651
% es.tEX (V/m) @ t=0.66
1.588796580690473
% es.tEY (V/m) @ t=0.66
0
% es.tEZ (V/m) @ t=0.66
0.6422919496426687
% es.Ex (V/m) @ t=0.66
1.5887965806904694
% es.Ey (V/m) @ t=0.66
0.10004190244825983
% es.Ez (V/m) @ t=0.66
0.6422919496426651
% es.tEx (V/m) @ t=0.66
1.588796580690473
% es.tEy (V/m) @ t=0.66
0
% es.tEz (V/m) @ t=0.66
0.6422919496426687
% V (V) @ t=0.66
0.008575755863405246
% es.normE (V/m) @ t=0.68
1.7351250985495343
% es.EX (V/m) @ t=0.68
1.6034821415789504
% es.EY (V/m) @ t=0.68
0.10096755566481153
% es.EZ (V/m) @ t=0.68
0.6482297269959156
% es.tEX (V/m) @ t=0.68
1.603482141578958
% es.tEY (V/m) @ t=0.68
0
% es.tEZ (V/m) @ t=0.68
0.6482297269959174
% es.Ex (V/m) @ t=0.68
1.6034821415789504
% es.Ey (V/m) @ t=0.68
0.10096755566481153
% es.Ez (V/m) @ t=0.68
0.6482297269959156
% es.tEx (V/m) @ t=0.68
1.603482141578958
% es.tEy (V/m) @ t=0.68
0
% es.tEz (V/m) @ t=0.68
0.6482297269959174
% V (V) @ t=0.68
0.00865499020868199
% es.normE (V/m) @ t=0.7
1.7510166482307734
% es.EX (V/m) @ t=0.7
1.6181677024674332
% es.EY (V/m) @ t=0.7
0.10189320888135556
% es.EZ (V/m) @ t=0.7
0.6541675043491604
% es.tEX (V/m) @ t=0.7
1.6181677024674297
% es.tEY (V/m) @ t=0.7
0
% es.tEZ (V/m) @ t=0.7
0.6541675043491613
% es.Ex (V/m) @ t=0.7
1.6181677024674332
% es.Ey (V/m) @ t=0.7
0.10189320888135556
% es.Ez (V/m) @ t=0.7
0.6541675043491604
% es.tEx (V/m) @ t=0.7
1.6181677024674297
% es.tEy (V/m) @ t=0.7
0
% es.tEz (V/m) @ t=0.7
0.6541675043491613
% V (V) @ t=0.7
0.008734224553958735
% es.normE (V/m) @ t=0.72
1.7669081979139478
% es.EX (V/m) @ t=0.72
1.6328532633559214
% es.EY (V/m) @ t=0.72
0.10281886209790714
% es.EZ (V/m) @ t=0.72
0.6601052817024002
% es.tEX (V/m) @ t=0.72
1.6328532633559147
% es.tEY (V/m) @ t=0.72
0
% es.tEZ (V/m) @ t=0.72
0.6601052817024029
% es.Ex (V/m) @ t=0.72
1.6328532633559214
% es.Ey (V/m) @ t=0.72
0.10281886209790714
% es.Ez (V/m) @ t=0.72
0.6601052817024002
% es.tEx (V/m) @ t=0.72
1.6328532633559147
% es.tEy (V/m) @ t=0.72
0
% es.tEz (V/m) @ t=0.72
0.6601052817024029
% V (V) @ t=0.72
0.008813458899235477
% es.normE (V/m) @ t=0.74
1.7827997475989972
% es.EX (V/m) @ t=0.74
1.6475388242444042
% es.EY (V/m) @ t=0.74
0.10374451531446083
% es.EZ (V/m) @ t=0.74
0.6660430590556372
% es.tEX (V/m) @ t=0.74
1.6475388242444025
% es.tEY (V/m) @ t=0.74
0
% es.tEZ (V/m) @ t=0.74
0.6660430590556428
% es.Ex (V/m) @ t=0.74
1.6475388242444042
% es.Ey (V/m) @ t=0.74
0.10374451531446083
% es.Ez (V/m) @ t=0.74
0.6660430590556372
% es.tEx (V/m) @ t=0.74
1.6475388242444025
% es.tEy (V/m) @ t=0.74
0
% es.tEz (V/m) @ t=0.74
0.6660430590556428
% V (V) @ t=0.74
0.00889269324451222
% es.normE (V/m) @ t=0.76
1.7986912972858855
% es.EX (V/m) @ t=0.76
1.6622243851328857
% es.EY (V/m) @ t=0.76
0.10467016853100553
% es.EZ (V/m) @ t=0.76
0.6719808364088997
% es.tEX (V/m) @ t=0.76
1.6622243851328893
% es.tEY (V/m) @ t=0.76
0
% es.tEZ (V/m) @ t=0.76
0.6719808364089044
% es.Ex (V/m) @ t=0.76
1.6622243851328857
% es.Ey (V/m) @ t=0.76
0.10467016853100553
% es.Ez (V/m) @ t=0.76
0.6719808364088997
% es.tEx (V/m) @ t=0.76
1.6622243851328893
% es.tEy (V/m) @ t=0.76
0
% es.tEz (V/m) @ t=0.76
0.6719808364089044
% V (V) @ t=0.76
0.00897192758978896
% es.normE (V/m) @ t=0.78
1.8145828469745355
% es.EX (V/m) @ t=0.78
1.6769099460213592
% es.EY (V/m) @ t=0.78
0.10559582174755744
% es.EZ (V/m) @ t=0.78
0.6779186137621245
% es.tEX (V/m) @ t=0.78
1.6769099460213628
% es.tEY (V/m) @ t=0.78
0
% es.tEZ (V/m) @ t=0.78
0.677918613762126
% es.Ex (V/m) @ t=0.78
1.6769099460213592
% es.Ey (V/m) @ t=0.78
0.10559582174755744
% es.Ez (V/m) @ t=0.78
0.6779186137621245
% es.tEx (V/m) @ t=0.78
1.6769099460213628
% es.tEy (V/m) @ t=0.78
0
% es.tEz (V/m) @ t=0.78
0.677918613762126
% V (V) @ t=0.78
0.009051161935065704
% es.normE (V/m) @ t=0.8
1.8304743966649508
% es.EX (V/m) @ t=0.8
1.6915955069098478
% es.EY (V/m) @ t=0.8
0.10652147496411302
% es.EZ (V/m) @ t=0.8
0.6838563911153879
% es.tEX (V/m) @ t=0.8
1.6915955069098425
% es.tEY (V/m) @ t=0.8
0
% es.tEZ (V/m) @ t=0.8
0.6838563911153894
% es.Ex (V/m) @ t=0.8
1.6915955069098478
% es.Ey (V/m) @ t=0.8
0.10652147496411302
% es.Ez (V/m) @ t=0.8
0.6838563911153879
% es.tEx (V/m) @ t=0.8
1.6915955069098425
% es.tEy (V/m) @ t=0.8
0
% es.tEz (V/m) @ t=0.8
0.6838563911153894
% V (V) @ t=0.8
0.009130396280342446
% es.normE (V/m) @ t=0.82
1.846962156869613
% es.EX (V/m) @ t=0.82
1.7068322441889663
% es.EY (V/m) @ t=0.82
0.10748121965504487
% es.EZ (V/m) @ t=0.82
0.6900163763903377
% es.tEX (V/m) @ t=0.82
1.7068322441889698
% es.tEY (V/m) @ t=0.82
0
% es.tEZ (V/m) @ t=0.82
0.6900163763903384
% es.Ex (V/m) @ t=0.82
1.7068322441889663
% es.Ey (V/m) @ t=0.82
0.10748121965504487
% es.Ez (V/m) @ t=0.82
0.6900163763903377
% es.tEx (V/m) @ t=0.82
1.7068322441889698
% es.tEy (V/m) @ t=0.82
0
% es.tEz (V/m) @ t=0.82
0.6900163763903384
% V (V) @ t=0.82
0.009212627128593826
% es.normE (V/m) @ t=0.84
1.864736838751528
% es.EX (V/m) @ t=0.84
1.7232586968940486
% es.EY (V/m) @ t=0.84
0.10851455086681072
% es.EZ (V/m) @ t=0.84
0.6966559979427485
% es.tEX (V/m) @ t=0.84
1.7232586968940389
% es.tEY (V/m) @ t=0.84
0
% es.tEZ (V/m) @ t=0.84
0.69665599794275
% es.Ex (V/m) @ t=0.84
1.7232586968940486
% es.Ey (V/m) @ t=0.84
0.10851455086681072
% es.Ez (V/m) @ t=0.84
0.6966559979427485
% es.tEx (V/m) @ t=0.84
1.7232586968940389
% es.tEy (V/m) @ t=0.84
0
% es.tEz (V/m) @ t=0.84
0.69665599794275
% V (V) @ t=0.84
0.009301325934967773
% es.normE (V/m) @ t=0.86
1.8825115206357452
% es.EX (V/m) @ t=0.86
1.7396851495991195
% es.EY (V/m) @ t=0.86
0.10954788207858468
% es.EZ (V/m) @ t=0.86
0.7032956194951576
% es.tEX (V/m) @ t=0.86
1.739685149599108
% es.tEY (V/m) @ t=0.86
0
% es.tEZ (V/m) @ t=0.86
0.703295619495163
% es.Ex (V/m) @ t=0.86
1.7396851495991195
% es.Ey (V/m) @ t=0.86
0.10954788207858468
% es.Ez (V/m) @ t=0.86
0.7032956194951576
% es.tEx (V/m) @ t=0.86
1.739685149599108
% es.tEy (V/m) @ t=0.86
0
% es.tEz (V/m) @ t=0.86
0.703295619495163
% V (V) @ t=0.86
0.009390024741341721
% es.normE (V/m) @ t=0.88
1.9002862025222056
% es.EX (V/m) @ t=0.88
1.756111602304185
% es.EY (V/m) @ t=0.88
0.1105812132903512
% es.EZ (V/m) @ t=0.88
0.7099352410475643
% es.tEX (V/m) @ t=0.88
1.7561116023041894
% es.tEY (V/m) @ t=0.88
0
% es.tEZ (V/m) @ t=0.88
0.7099352410475706
% es.Ex (V/m) @ t=0.88
1.756111602304185
% es.Ey (V/m) @ t=0.88
0.1105812132903512
% es.Ez (V/m) @ t=0.88
0.7099352410475643
% es.tEx (V/m) @ t=0.88
1.7561116023041894
% es.tEy (V/m) @ t=0.88
0
% es.tEz (V/m) @ t=0.88
0.7099352410475706
% V (V) @ t=0.88
0.009478723547715668
% es.normE (V/m) @ t=0.9
1.9180608844108544
% es.EX (V/m) @ t=0.9
1.7725380550092504
% es.EY (V/m) @ t=0.9
0.11161454450212505
% es.EZ (V/m) @ t=0.9
0.7165748625999724
% es.tEX (V/m) @ t=0.9
1.7725380550092549
% es.tEY (V/m) @ t=0.9
0
% es.tEZ (V/m) @ t=0.9
0.7165748625999733
% es.Ex (V/m) @ t=0.9
1.7725380550092504
% es.Ey (V/m) @ t=0.9
0.11161454450212505
% es.Ez (V/m) @ t=0.9
0.7165748625999724
% es.tEx (V/m) @ t=0.9
1.7725380550092549
% es.tEy (V/m) @ t=0.9
0
% es.tEz (V/m) @ t=0.9
0.7165748625999733
% V (V) @ t=0.9
0.009567422354089613
% es.normE (V/m) @ t=0.92
1.9358355663016371
% es.EX (V/m) @ t=0.92
1.788964507714323
% es.EY (V/m) @ t=0.92
0.11264787571389256
% es.EZ (V/m) @ t=0.92
0.723214484152386
% es.tEX (V/m) @ t=0.92
1.7889645077143204
% es.tEY (V/m) @ t=0.92
0
% es.tEZ (V/m) @ t=0.92
0.723214484152388
% es.Ex (V/m) @ t=0.92
1.788964507714323
% es.Ey (V/m) @ t=0.92
0.11264787571389256
% es.Ez (V/m) @ t=0.92
0.723214484152386
% es.tEx (V/m) @ t=0.92
1.7889645077143204
% es.tEy (V/m) @ t=0.92
0
% es.tEz (V/m) @ t=0.92
0.723214484152388
% V (V) @ t=0.92
0.009656121160463561
% es.normE (V/m) @ t=0.94
1.9536102481944808
% es.EX (V/m) @ t=0.94
1.8053909604193876
% es.EY (V/m) @ t=0.94
0.1136812069256602
% es.EZ (V/m) @ t=0.94
0.7298541057048029
% es.tEX (V/m) @ t=0.94
1.8053909604193894
% es.tEY (V/m) @ t=0.94
0
% es.tEZ (V/m) @ t=0.94
0.7298541057048014
% es.Ex (V/m) @ t=0.94
1.8053909604193876
% es.Ey (V/m) @ t=0.94
0.1136812069256602
% es.Ez (V/m) @ t=0.94
0.7298541057048029
% es.tEx (V/m) @ t=0.94
1.8053909604193894
% es.tEy (V/m) @ t=0.94
0
% es.tEz (V/m) @ t=0.94
0.7298541057048014
% V (V) @ t=0.94
0.00974481996683751
% es.normE (V/m) @ t=0.96
1.9713849300893433
% es.EX (V/m) @ t=0.96
1.8218174131244629
% es.EY (V/m) @ t=0.96
0.11471453813743404
% es.EZ (V/m) @ t=0.96
0.7364937272572079
% es.tEX (V/m) @ t=0.96
1.8218174131244655
% es.tEY (V/m) @ t=0.96
0
% es.tEZ (V/m) @ t=0.96
0.7364937272572121
% es.Ex (V/m) @ t=0.96
1.8218174131244629
% es.Ey (V/m) @ t=0.96
0.11471453813743404
% es.Ez (V/m) @ t=0.96
0.7364937272572079
% es.tEx (V/m) @ t=0.96
1.8218174131244655
% es.tEy (V/m) @ t=0.96
0
% es.tEz (V/m) @ t=0.96
0.7364937272572121
% V (V) @ t=0.96
0.009833518773211456
% es.normE (V/m) @ t=0.98
1.9891596119861648
% es.EX (V/m) @ t=0.98
1.8382438658295364
% es.EY (V/m) @ t=0.98
0.11574786934920689
% es.EZ (V/m) @ t=0.98
0.743133348809617
% es.tEX (V/m) @ t=0.98
1.8382438658295435
% es.tEY (V/m) @ t=0.98
0
% es.tEZ (V/m) @ t=0.98
0.7431333488096179
% es.Ex (V/m) @ t=0.98
1.8382438658295364
% es.Ey (V/m) @ t=0.98
0.11574786934920689
% es.Ez (V/m) @ t=0.98
0.743133348809617
% es.tEx (V/m) @ t=0.98
1.8382438658295435
% es.tEy (V/m) @ t=0.98
0
% es.tEz (V/m) @ t=0.98
0.7431333488096179
% V (V) @ t=0.98
0.009922217579585405
% es.normE (V/m) @ t=1
2.0069342938848926
% es.EX (V/m) @ t=1
1.8546703185346134
% es.EY (V/m) @ t=1
0.11678120056096464
% es.EZ (V/m) @ t=1
0.74977297036202
% es.tEX (V/m) @ t=1
1.8546703185346107
% es.tEY (V/m) @ t=1
0
% es.tEZ (V/m) @ t=1
0.7497729703620184
% es.Ex (V/m) @ t=1
1.8546703185346134
% es.Ey (V/m) @ t=1
0.11678120056096464
% es.Ez (V/m) @ t=1
0.74977297036202
% es.tEx (V/m) @ t=1
1.8546703185346107
% es.tEy (V/m) @ t=1
0
% es.tEz (V/m) @ t=1
0.7497729703620184
% V (V) @ t=1
0.010010916385959351
% es.normE (V/m) @ t=1.02
2.024708975785469
% es.EX (V/m) @ t=1.02
1.8710967712396789
% es.EY (V/m) @ t=1.02
0.11781453177274648
% es.EZ (V/m) @ t=1.02
0.7564125919144289
% es.tEX (V/m) @ t=1.02
1.871096771239678
% es.tEY (V/m) @ t=1.02
0
% es.tEZ (V/m) @ t=1.02
0.7564125919144264
% es.Ex (V/m) @ t=1.02
1.8710967712396789
% es.Ey (V/m) @ t=1.02
0.11781453177274648
% es.Ez (V/m) @ t=1.02
0.7564125919144289
% es.tEx (V/m) @ t=1.02
1.871096771239678
% es.tEy (V/m) @ t=1.02
0
% es.tEz (V/m) @ t=1.02
0.7564125919144264
% V (V) @ t=1.02
0.0100996151923333
% es.normE (V/m) @ t=1.04
2.0424836576878564
% es.EX (V/m) @ t=1.04
1.8875232239447488
% es.EY (V/m) @ t=1.04
0.11884786298451233
% es.EZ (V/m) @ t=1.04
0.7630522134668383
% es.tEX (V/m) @ t=1.04
1.8875232239447488
% es.tEY (V/m) @ t=1.04
0
% es.tEZ (V/m) @ t=1.04
0.7630522134668425
% es.Ex (V/m) @ t=1.04
1.8875232239447488
% es.Ey (V/m) @ t=1.04
0.11884786298451233
% es.Ez (V/m) @ t=1.04
0.7630522134668383