% Model:              1 neuron.mph
% Version:            COMSOL 6.0.0.405
% Date:               Mar 16 2023, 10:03
% Dimension:          0
% Nodes:              14017
% Expressions:        14017
% Description:        Electric field norm, Electric field, X component, Electric field, Y component, Electric field, Z component, Tangential electric field, X component, Tangential electric field, Y component, Tangential electric field, Z component, Electric field, x component, Electric field, y component, Electric field, z component, Tangential electric field, x component, Tangential electric field, y component, Tangential electric field, z component, Electric potential
% Length unit:        mm
% x
2
% y
12.2
% z
1.33
% es.normE (V/m) @ t=0
1.3212915189698409
% es.EX (V/m) @ t=0
-1.2152934718744643
% es.EY (V/m) @ t=0
0.09480130901558242
% es.EZ (V/m) @ t=0
0.5082600565391833
% es.tEX (V/m) @ t=0
-1.2152934718744577
% es.tEY (V/m) @ t=0
0
% es.tEZ (V/m) @ t=0
0.5082600565391822
% es.Ex (V/m) @ t=0
-1.2152934718744643
% es.Ey (V/m) @ t=0
0.09480130901558242
% es.Ez (V/m) @ t=0
0.5082600565391833
% es.tEx (V/m) @ t=0
-1.2152934718744577
% es.tEy (V/m) @ t=0
0
% es.tEz (V/m) @ t=0
0.5082600565391822
% V (V) @ t=0
0.007377032516729248
% es.normE (V/m) @ t=0.02
1.1412238044125538
% es.EX (V/m) @ t=0.02
-1.0496713403608888
% es.EY (V/m) @ t=0.02
0.08188163550852412
% es.EZ (V/m) @ t=0.02
0.43899356528924366
% es.tEX (V/m) @ t=0.02
-1.049671340360887
% es.tEY (V/m) @ t=0.02
0
% es.tEZ (V/m) @ t=0.02
0.4389935652892447
% es.Ex (V/m) @ t=0.02
-1.0496713403608888
% es.Ey (V/m) @ t=0.02
0.08188163550852412
% es.Ez (V/m) @ t=0.02
0.43899356528924366
% es.tEx (V/m) @ t=0.02
-1.049671340360887
% es.tEy (V/m) @ t=0.02
0
% es.tEz (V/m) @ t=0.02
0.4389935652892447
% V (V) @ t=0.02
0.006371678707736115
% es.normE (V/m) @ t=0.04
1.1517196611915337
% es.EX (V/m) @ t=0.04
-1.059325187788332
% es.EY (V/m) @ t=0.04
0.08263470248624483
% es.EZ (V/m) @ t=0.04
0.4430309964473663
% es.tEX (V/m) @ t=0.04
-1.0593251877883265
% es.tEY (V/m) @ t=0.04
0
% es.tEZ (V/m) @ t=0.04
0.44303099644737287
% es.Ex (V/m) @ t=0.04
-1.059325187788332
% es.Ey (V/m) @ t=0.04
0.08263470248624483
% es.Ez (V/m) @ t=0.04
0.4430309964473663
% es.tEx (V/m) @ t=0.04
-1.0593251877883265
% es.tEy (V/m) @ t=0.04
0
% es.tEz (V/m) @ t=0.04
0.44303099644737287
% V (V) @ t=0.04
0.006430279050775678
% es.normE (V/m) @ t=0.06
1.1623110318468994
% es.EX (V/m) @ t=0.06
-1.0690668874020517
% es.EY (V/m) @ t=0.06
0.08339462254194302
% es.EZ (V/m) @ t=0.06
0.4471051671103622
% es.tEX (V/m) @ t=0.06
-1.0690668874020481
% es.tEY (V/m) @ t=0.06
0
% es.tEZ (V/m) @ t=0.06
0.4471051671103652
% es.Ex (V/m) @ t=0.06
-1.0690668874020517
% es.Ey (V/m) @ t=0.06
0.08339462254194302
% es.Ez (V/m) @ t=0.06
0.4471051671103622
% es.tEx (V/m) @ t=0.06
-1.0690668874020481
% es.tEy (V/m) @ t=0.06
0
% es.tEz (V/m) @ t=0.06
0.4471051671103652
% V (V) @ t=0.06
0.0064894124657783655
% es.normE (V/m) @ t=0.08
1.1730619604760697
% es.EX (V/m) @ t=0.08
-1.0789553425211205
% es.EY (V/m) @ t=0.08
0.08416599059380497
% es.EZ (V/m) @ t=0.08
0.45124072014961175
% es.tEX (V/m) @ t=0.08
-1.078955342521116
% es.tEY (V/m) @ t=0.08
0
% es.tEZ (V/m) @ t=0.08
0.4512407201496167
% es.Ex (V/m) @ t=0.08
-1.0789553425211205
% es.Ey (V/m) @ t=0.08
0.08416599059380497
% es.Ez (V/m) @ t=0.08
0.45124072014961175
% es.tEx (V/m) @ t=0.08
-1.078955342521116
% es.tEy (V/m) @ t=0.08
0
% es.tEz (V/m) @ t=0.08
0.4512407201496167
% V (V) @ t=0.08
0.006549437343717556
% es.normE (V/m) @ t=0.1
1.1839283074939144
% es.EX (V/m) @ t=0.1
-1.0889499551925366
% es.EY (V/m) @ t=0.1
0.084945639706417
% es.EZ (V/m) @ t=0.1
0.45542067494948707
% es.tEX (V/m) @ t=0.1
-1.0889499551925308
% es.tEY (V/m) @ t=0.1
0
% es.tEZ (V/m) @ t=0.1
0.45542067494948313
% es.Ex (V/m) @ t=0.1
-1.0889499551925366
% es.Ey (V/m) @ t=0.1
0.084945639706417
% es.Ez (V/m) @ t=0.1
0.45542067494948707
% es.tEx (V/m) @ t=0.1
-1.0889499551925308
% es.tEy (V/m) @ t=0.1
0
% es.tEz (V/m) @ t=0.1
0.45542067494948313
% V (V) @ t=0.1
0.006610107073263035
% es.normE (V/m) @ t=0.12
1.19479465451175
% es.EX (V/m) @ t=0.12
-1.0989445678639442
% es.EY (V/m) @ t=0.12
0.08572528881902108
% es.EZ (V/m) @ t=0.12
0.4596006297493624
% es.tEX (V/m) @ t=0.12
-1.0989445678639376
% es.tEY (V/m) @ t=0.12
0
% es.tEZ (V/m) @ t=0.12
0.45960062974936733
% es.Ex (V/m) @ t=0.12
-1.0989445678639442
% es.Ey (V/m) @ t=0.12
0.08572528881902108
% es.Ez (V/m) @ t=0.12
0.4596006297493624
% es.tEx (V/m) @ t=0.12
-1.0989445678639376
% es.tEy (V/m) @ t=0.12
0
% es.tEz (V/m) @ t=0.12
0.45960062974936733
% V (V) @ t=0.12
0.006670776802808512
% es.normE (V/m) @ t=0.14
1.2057600788701353
% es.EX (V/m) @ t=0.14
-1.109030312045419
% es.EY (V/m) @ t=0.14
0.08651204671133761
% es.EZ (V/m) @ t=0.14
0.4638186906844958
% es.tEX (V/m) @ t=0.14
-1.1090303120454124
% es.tEY (V/m) @ t=0.14
0
% es.tEZ (V/m) @ t=0.14
0.46381869068449433
% es.Ex (V/m) @ t=0.14
-1.109030312045419
% es.Ey (V/m) @ t=0.14
0.08651204671133761
% es.Ez (V/m) @ t=0.14
0.4638186906844958
% es.tEx (V/m) @ t=0.14
-1.1090303120454124
% es.tEy (V/m) @ t=0.14
0
% es.tEz (V/m) @ t=0.14
0.46381869068449433
% V (V) @ t=0.14
0.006731999023264086
% es.normE (V/m) @ t=0.16
1.217207487576525
% es.EX (V/m) @ t=0.16
-1.1195593862680395
% es.EY (V/m) @ t=0.16
0.08733338688588266
% es.EZ (V/m) @ t=0.16
0.4682221276163638
% es.tEX (V/m) @ t=0.16
-1.1195593862680315
% es.tEY (V/m) @ t=0.16
0
% es.tEZ (V/m) @ t=0.16
0.4682221276163645
% es.Ex (V/m) @ t=0.16
-1.1195593862680395
% es.Ey (V/m) @ t=0.16
0.08733338688588266
% es.Ez (V/m) @ t=0.16
0.4682221276163638
% es.tEx (V/m) @ t=0.16
-1.1195593862680315
% es.tEy (V/m) @ t=0.16
0
% es.tEz (V/m) @ t=0.16
0.4682221276163645
% V (V) @ t=0.16
0.006795908961916652
% es.normE (V/m) @ t=0.18
1.2286548962829191
% es.EX (V/m) @ t=0.18
-1.1300884604906631
% es.EY (V/m) @ t=0.18
0.08815472706041699
% es.EZ (V/m) @ t=0.18
0.4726255645482335
% es.tEX (V/m) @ t=0.18
-1.1300884604906551
% es.tEY (V/m) @ t=0.18
0
% es.tEZ (V/m) @ t=0.18
0.472625564548224
% es.Ex (V/m) @ t=0.18
-1.1300884604906631
% es.Ey (V/m) @ t=0.18
0.08815472706041699
% es.Ez (V/m) @ t=0.18
0.4726255645482335
% es.tEx (V/m) @ t=0.18
-1.1300884604906551
% es.tEy (V/m) @ t=0.18
0
% es.tEz (V/m) @ t=0.18
0.472625564548224
% V (V) @ t=0.18
0.006859818900569219
% es.normE (V/m) @ t=0.2
1.240102304989306
% es.EX (V/m) @ t=0.2
-1.1406175347132819
% es.EY (V/m) @ t=0.2
0.08897606723494156
% es.EZ (V/m) @ t=0.2
0.47702900148009625
% es.tEX (V/m) @ t=0.2
-1.1406175347132779
% es.tEY (V/m) @ t=0.2
0
% es.tEZ (V/m) @ t=0.2
0.4770290014801013
% es.Ex (V/m) @ t=0.2
-1.1406175347132819
% es.Ey (V/m) @ t=0.2
0.08897606723494156
% es.Ez (V/m) @ t=0.2
0.47702900148009625
% es.tEx (V/m) @ t=0.2
-1.1406175347132779
% es.tEy (V/m) @ t=0.2
0
% es.tEz (V/m) @ t=0.2
0.4770290014801013
% V (V) @ t=0.2
0.0069237288392217855
% es.normE (V/m) @ t=0.22
1.2515497136957006
% es.EX (V/m) @ t=0.22
-1.151146608935906
% es.EY (V/m) @ t=0.22
0.0897974074094795
% es.EZ (V/m) @ t=0.22
0.4814324384119642
% es.tEX (V/m) @ t=0.22
-1.151146608935898
% es.tEY (V/m) @ t=0.22
0
% es.tEZ (V/m) @ t=0.22
0.4814324384119679
% es.Ex (V/m) @ t=0.22
-1.151146608935906
% es.Ey (V/m) @ t=0.22
0.0897974074094795
% es.Ez (V/m) @ t=0.22
0.4814324384119642
% es.tEx (V/m) @ t=0.22
-1.151146608935898
% es.tEy (V/m) @ t=0.22
0
% es.tEz (V/m) @ t=0.22
0.4814324384119679
% V (V) @ t=0.22
0.0069876387778743535
% es.normE (V/m) @ t=0.24
1.2629971224021035
% es.EX (V/m) @ t=0.24
-1.1616756831585366
% es.EY (V/m) @ t=0.24
0.090618747584013
% es.EZ (V/m) @ t=0.24
0.4858358753438357
% es.tEX (V/m) @ t=0.24
-1.1616756831585286
% es.tEY (V/m) @ t=0.24
0
% es.tEZ (V/m) @ t=0.24
0.4858358753438381
% es.Ex (V/m) @ t=0.24
-1.1616756831585366
% es.Ey (V/m) @ t=0.24
0.090618747584013
% es.Ez (V/m) @ t=0.24
0.4858358753438357
% es.tEx (V/m) @ t=0.24
-1.1616756831585286
% es.tEy (V/m) @ t=0.24
0
% es.tEz (V/m) @ t=0.24
0.4858358753438381
% V (V) @ t=0.24
0.007051548716526921
% es.normE (V/m) @ t=0.26
1.2744445311084882
% es.EX (V/m) @ t=0.26
-1.17220475738115
% es.EY (V/m) @ t=0.26
0.09144008775854467
% es.EZ (V/m) @ t=0.26
0.49023931227569845
% es.tEX (V/m) @ t=0.26
-1.1722047573811478
% es.tEY (V/m) @ t=0.26
0
% es.tEZ (V/m) @ t=0.26
0.4902393122756976
% es.Ex (V/m) @ t=0.26
-1.17220475738115
% es.Ey (V/m) @ t=0.26
0.09144008775854467
% es.Ez (V/m) @ t=0.26
0.49023931227569845
% es.tEx (V/m) @ t=0.26
-1.1722047573811478
% es.tEy (V/m) @ t=0.26
0
% es.tEz (V/m) @ t=0.26
0.4902393122756976
% V (V) @ t=0.26
0.007115458655179487
% es.normE (V/m) @ t=0.28
1.286351562008942
% es.EX (V/m) @ t=0.28
-1.1831565722574613
% es.EY (V/m) @ t=0.28
0.09229440511259168
% es.EZ (V/m) @ t=0.28
0.4948195737046081
% es.tEX (V/m) @ t=0.28
-1.183156572257455
% es.tEY (V/m) @ t=0.28
0
% es.tEZ (V/m) @ t=0.28
0.49481957370460705
% es.Ex (V/m) @ t=0.28
-1.1831565722574613
% es.Ey (V/m) @ t=0.28
0.09229440511259168
% es.Ez (V/m) @ t=0.28
0.4948195737046081
% es.tEx (V/m) @ t=0.28
-1.183156572257455
% es.tEy (V/m) @ t=0.28
0
% es.tEz (V/m) @ t=0.28
0.49481957370460705
% V (V) @ t=0.28
0.007181937301807116
% es.normE (V/m) @ t=0.3
1.2991083936356036
% es.EX (V/m) @ t=0.3
-1.194889997158581
% es.EY (V/m) @ t=0.3
0.0932096943506252
% es.EZ (V/m) @ t=0.3
0.49972676796648713
% es.tEX (V/m) @ t=0.3
-1.1948899971585751
% es.tEY (V/m) @ t=0.3
0
% es.tEZ (V/m) @ t=0.3
0.49972676796648585
% es.Ex (V/m) @ t=0.3
-1.194889997158581
% es.Ey (V/m) @ t=0.3
0.0932096943506252
% es.Ez (V/m) @ t=0.3
0.49972676796648713
% es.tEx (V/m) @ t=0.3
-1.1948899971585751
% es.tEy (V/m) @ t=0.3
0
% es.tEz (V/m) @ t=0.3
0.49972676796648585
% V (V) @ t=0.3
0.0072531652619597
% es.normE (V/m) @ t=0.32
1.3118652252622607
% es.EX (V/m) @ t=0.32
-1.2066234220596996
% es.EY (V/m) @ t=0.32
0.09412498358864901
% es.EZ (V/m) @ t=0.32
0.5046339622283564
% es.tEX (V/m) @ t=0.32
-1.2066234220596916
% es.tEY (V/m) @ t=0.32
0
% es.tEZ (V/m) @ t=0.32
0.5046339622283575
% es.Ex (V/m) @ t=0.32
-1.2066234220596996
% es.Ey (V/m) @ t=0.32
0.09412498358864901
% es.Ez (V/m) @ t=0.32
0.5046339622283564
% es.tEx (V/m) @ t=0.32
-1.2066234220596916
% es.tEy (V/m) @ t=0.32
0
% es.tEz (V/m) @ t=0.32
0.5046339622283575
% V (V) @ t=0.32
0.0073243932221122845
% es.normE (V/m) @ t=0.34
1.3246220568889275
% es.EX (V/m) @ t=0.34
-1.218356846960821
% es.EY (V/m) @ t=0.34
0.09504027282668787
% es.EZ (V/m) @ t=0.34
0.5095411564902381
% es.tEX (V/m) @ t=0.34
-1.2183568469608161
% es.tEY (V/m) @ t=0.34
0
% es.tEZ (V/m) @ t=0.34
0.5095411564902363
% es.Ex (V/m) @ t=0.34
-1.218356846960821
% es.Ey (V/m) @ t=0.34
0.09504027282668787
% es.Ez (V/m) @ t=0.34
0.5095411564902381
% es.tEx (V/m) @ t=0.34
-1.2183568469608161
% es.tEy (V/m) @ t=0.34
0
% es.tEz (V/m) @ t=0.34
0.5095411564902363
% V (V) @ t=0.34
0.007395621182264869
% es.normE (V/m) @ t=0.36
1.3373788885155864
% es.EX (V/m) @ t=0.36
-1.2300902718619389
% es.EY (V/m) @ t=0.36
0.09595556206472311
% es.EZ (V/m) @ t=0.36
0.5144483507521065
% es.tEX (V/m) @ t=0.36
-1.2300902718619362
% es.tEY (V/m) @ t=0.36
0
% es.tEZ (V/m) @ t=0.36
0.514448350752108
% es.Ex (V/m) @ t=0.36
-1.2300902718619389
% es.Ey (V/m) @ t=0.36
0.09595556206472311
% es.Ez (V/m) @ t=0.36
0.5144483507521065
% es.tEx (V/m) @ t=0.36
-1.2300902718619362
% es.tEy (V/m) @ t=0.36
0
% es.tEz (V/m) @ t=0.36
0.514448350752108
% V (V) @ t=0.36
0.007466849142417453
% es.normE (V/m) @ t=0.38
1.3501357201422497
% es.EX (V/m) @ t=0.38
-1.2418236967630567
% es.EY (V/m) @ t=0.38
0.09687085130274153
% es.EZ (V/m) @ t=0.38
0.5193555450139855
% es.tEX (V/m) @ t=0.38
-1.2418236967630527
% es.tEY (V/m) @ t=0.38
0
% es.tEZ (V/m) @ t=0.38
0.5193555450139868
% es.Ex (V/m) @ t=0.38
-1.2418236967630567
% es.Ey (V/m) @ t=0.38
0.09687085130274153
% es.Ez (V/m) @ t=0.38
0.5193555450139855
% es.tEx (V/m) @ t=0.38
-1.2418236967630527
% es.tEy (V/m) @ t=0.38
0
% es.tEz (V/m) @ t=0.38
0.5193555450139868
% V (V) @ t=0.38
0.007538077102570037
% es.normE (V/m) @ t=0.4
1.362892551768917
% es.EX (V/m) @ t=0.4
-1.2535571216641772
% es.EY (V/m) @ t=0.4
0.09778614054078127
% es.EZ (V/m) @ t=0.4
0.5242627392758628
% es.tEX (V/m) @ t=0.4
-1.2535571216641728
% es.tEY (V/m) @ t=0.4
0
% es.tEZ (V/m) @ t=0.4
0.5242627392758585
% es.Ex (V/m) @ t=0.4
-1.2535571216641772
% es.Ey (V/m) @ t=0.4
0.09778614054078127
% es.Ez (V/m) @ t=0.4
0.5242627392758628
% es.tEx (V/m) @ t=0.4
-1.2535571216641728
% es.tEy (V/m) @ t=0.4
0
% es.tEz (V/m) @ t=0.4
0.5242627392758585
% V (V) @ t=0.4
0.0076093050627226225
% es.normE (V/m) @ t=0.42
1.375649383395578
% es.EX (V/m) @ t=0.42
-1.2652905465652933
% es.EY (V/m) @ t=0.42
0.09870142977881036
% es.EZ (V/m) @ t=0.42
0.5291699335377338
% es.tEX (V/m) @ t=0.42
-1.2652905465652866
% es.tEY (V/m) @ t=0.42
0
% es.tEZ (V/m) @ t=0.42
0.5291699335377302
% es.Ex (V/m) @ t=0.42
-1.2652905465652933
% es.Ey (V/m) @ t=0.42
0.09870142977881036
% es.Ez (V/m) @ t=0.42
0.5291699335377338
% es.tEx (V/m) @ t=0.42
-1.2652905465652866
% es.tEy (V/m) @ t=0.42
0
% es.tEz (V/m) @ t=0.42
0.5291699335377302
% V (V) @ t=0.42
0.007680533022875205
% es.normE (V/m) @ t=0.44
1.388406215022243
% es.EX (V/m) @ t=0.44
-1.2770239714664107
% es.EY (V/m) @ t=0.44
0.09961671901683233
% es.EZ (V/m) @ t=0.44
0.5340771277996093
% es.tEX (V/m) @ t=0.44
-1.2770239714664058
% es.tEY (V/m) @ t=0.44
0
% es.tEZ (V/m) @ t=0.44
0.534077127799609
% es.Ex (V/m) @ t=0.44
-1.2770239714664107
% es.Ey (V/m) @ t=0.44
0.09961671901683233
% es.Ez (V/m) @ t=0.44
0.5340771277996093
% es.tEx (V/m) @ t=0.44
-1.2770239714664058
% es.tEy (V/m) @ t=0.44
0
% es.tEz (V/m) @ t=0.44
0.534077127799609
% V (V) @ t=0.44
0.007751760983027791
% es.normE (V/m) @ t=0.46
1.4011630466489244
% es.EX (V/m) @ t=0.46
-1.2887573963675434
% es.EY (V/m) @ t=0.46
0.10053200825487119
% es.EZ (V/m) @ t=0.46
0.5389843220614856
% es.tEX (V/m) @ t=0.46
-1.2887573963675347
% es.tEY (V/m) @ t=0.46
0
% es.tEZ (V/m) @ t=0.46
0.5389843220614807
% es.Ex (V/m) @ t=0.46
-1.2887573963675434
% es.Ey (V/m) @ t=0.46
0.10053200825487119
% es.Ez (V/m) @ t=0.46
0.5389843220614856
% es.tEx (V/m) @ t=0.46
-1.2887573963675347
% es.tEy (V/m) @ t=0.46
0
% es.tEz (V/m) @ t=0.46
0.5389843220614807
% V (V) @ t=0.46
0.007822988943180375
% es.normE (V/m) @ t=0.48
1.4139198782755877
% es.EX (V/m) @ t=0.48
-1.300490821268658
% es.EY (V/m) @ t=0.48
0.10144729749288689
% es.EZ (V/m) @ t=0.48
0.5438915163233604
% es.tEX (V/m) @ t=0.48
-1.3004908212686477
% es.tEY (V/m) @ t=0.48
0
% es.tEZ (V/m) @ t=0.48
0.5438915163233595
% es.Ex (V/m) @ t=0.48
-1.300490821268658
% es.Ey (V/m) @ t=0.48
0.10144729749288689
% es.Ez (V/m) @ t=0.48
0.5438915163233604
% es.tEx (V/m) @ t=0.48
-1.3004908212686477
% es.tEy (V/m) @ t=0.48
0
% es.tEz (V/m) @ t=0.48
0.5438915163233595
% V (V) @ t=0.48
0.00789421690333296
% es.normE (V/m) @ t=0.5
1.4266767099022624
% es.EX (V/m) @ t=0.5
-1.3122242461697797
% es.EY (V/m) @ t=0.5
0.10236258673093113
% es.EZ (V/m) @ t=0.5
0.5487987105852403
% es.tEX (V/m) @ t=0.5
-1.3122242461697704
% es.tEY (V/m) @ t=0.5
0
% es.tEZ (V/m) @ t=0.5
0.5487987105852383
% es.Ex (V/m) @ t=0.5
-1.3122242461697797
% es.Ey (V/m) @ t=0.5
0.10236258673093113
% es.Ez (V/m) @ t=0.5
0.5487987105852403
% es.tEx (V/m) @ t=0.5
-1.3122242461697704
% es.tEy (V/m) @ t=0.5
0
% es.tEz (V/m) @ t=0.5
0.5487987105852383
% V (V) @ t=0.5
0.007965444863485542
% es.normE (V/m) @ t=0.52
1.439433541528924
% es.EX (V/m) @ t=0.52
-1.3239576710708953
% es.EY (V/m) @ t=0.52
0.10327787596895394
% es.EZ (V/m) @ t=0.52
0.5537059048471025
% es.tEX (V/m) @ t=0.52
-1.3239576710708887
% es.tEY (V/m) @ t=0.52
0
% es.tEZ (V/m) @ t=0.52
0.5537059048471029
% es.Ex (V/m) @ t=0.52
-1.3239576710708953
% es.Ey (V/m) @ t=0.52
0.10327787596895394
% es.Ez (V/m) @ t=0.52
0.5537059048471025
% es.tEx (V/m) @ t=0.52
-1.3239576710708887
% es.tEy (V/m) @ t=0.52
0
% es.tEz (V/m) @ t=0.52
0.5537059048471029
% V (V) @ t=0.52
0.008036672823638128
% es.normE (V/m) @ t=0.54
1.4521903731556054
% es.EX (V/m) @ t=0.54
-1.3356910959720198
% es.EY (V/m) @ t=0.54
0.10419316520698746
% es.EZ (V/m) @ t=0.54
0.5586130991089895
% es.tEX (V/m) @ t=0.54
-1.3356910959720105
% es.tEY (V/m) @ t=0.54
0
% es.tEZ (V/m) @ t=0.54
0.5586130991089853
% es.Ex (V/m) @ t=0.54
-1.3356910959720198
% es.Ey (V/m) @ t=0.54
0.10419316520698746
% es.Ez (V/m) @ t=0.54
0.5586130991089895
% es.tEx (V/m) @ t=0.54
-1.3356910959720105
% es.tEy (V/m) @ t=0.54
0
% es.tEz (V/m) @ t=0.54
0.5586130991089853
% V (V) @ t=0.54
0.00810790078379071
% es.normE (V/m) @ t=0.56
1.4660048912764172
% es.EX (V/m) @ t=0.56
-1.3483973353520549
% es.EY (V/m) @ t=0.56
0.10518434147455352
% es.EZ (V/m) @ t=0.56
0.5639272032279932
% es.tEX (V/m) @ t=0.56
-1.3483973353520469
% es.tEY (V/m) @ t=0.56
0
% es.tEZ (V/m) @ t=0.56
0.5639272032279941
% es.Ex (V/m) @ t=0.56
-1.3483973353520549
% es.Ey (V/m) @ t=0.56
0.10518434147455352
% es.Ez (V/m) @ t=0.56
0.5639272032279932
% es.tEx (V/m) @ t=0.56
-1.3483973353520469
% es.tEy (V/m) @ t=0.56
0
% es.tEz (V/m) @ t=0.56
0.5639272032279941
% V (V) @ t=0.56
0.008185039862781969
% es.normE (V/m) @ t=0.58
1.4802472125453283
% es.EX (V/m) @ t=0.58
-1.3614970496406746
% es.EY (V/m) @ t=0.58
0.10620621181859097
% es.EZ (V/m) @ t=0.58
0.5694058904430541
% es.tEX (V/m) @ t=0.58
-1.3614970496406649
% es.tEY (V/m) @ t=0.58
0
% es.tEZ (V/m) @ t=0.58
0.5694058904430506
% es.Ex (V/m) @ t=0.58
-1.3614970496406746
% es.Ey (V/m) @ t=0.58
0.10620621181859097
% es.Ez (V/m) @ t=0.58
0.5694058904430541
% es.tEx (V/m) @ t=0.58
-1.3614970496406649
% es.tEy (V/m) @ t=0.58
0
% es.tEz (V/m) @ t=0.58
0.5694058904430506
% V (V) @ t=0.58
0.008264569815876206
% es.normE (V/m) @ t=0.6
1.494489533814236
% es.EX (V/m) @ t=0.6
-1.3745967639292782
% es.EY (V/m) @ t=0.6
0.10722808216263191
% es.EZ (V/m) @ t=0.6
0.5748845776581215
% es.tEX (V/m) @ t=0.6
-1.3745967639292758
% es.tEY (V/m) @ t=0.6
0
% es.tEZ (V/m) @ t=0.6
0.5748845776581213
% es.Ex (V/m) @ t=0.6
-1.3745967639292782
% es.Ey (V/m) @ t=0.6
0.10722808216263191
% es.Ez (V/m) @ t=0.6
0.5748845776581215
% es.tEx (V/m) @ t=0.6
-1.3745967639292758
% es.tEy (V/m) @ t=0.6
0
% es.tEz (V/m) @ t=0.6
0.5748845776581213
% V (V) @ t=0.6
0.008344099768970444
% es.normE (V/m) @ t=0.62
1.5087318550831612
% es.EX (V/m) @ t=0.62
-1.3876964782178958
% es.EY (V/m) @ t=0.62
0.10824995250667829
% es.EZ (V/m) @ t=0.62
0.5803632648731807
% es.tEX (V/m) @ t=0.62
-1.3876964782178938
% es.tEY (V/m) @ t=0.62
0
% es.tEZ (V/m) @ t=0.62
0.5803632648731778
% es.Ex (V/m) @ t=0.62
-1.3876964782178958
% es.Ey (V/m) @ t=0.62
0.10824995250667829
% es.Ez (V/m) @ t=0.62
0.5803632648731807
% es.tEx (V/m) @ t=0.62
-1.3876964782178938
% es.tEy (V/m) @ t=0.62
0
% es.tEz (V/m) @ t=0.62
0.5803632648731778
% V (V) @ t=0.62
0.008423629722064683
% es.normE (V/m) @ t=0.64
1.5229741763520983
% es.EX (V/m) @ t=0.64
-1.4007961925065113
% es.EY (V/m) @ t=0.64
0.10927182285070863
% es.EZ (V/m) @ t=0.64
0.5858419520882558
% es.tEX (V/m) @ t=0.64
-1.4007961925065082
% es.tEY (V/m) @ t=0.64
0
% es.tEZ (V/m) @ t=0.64
0.5858419520882556
% es.Ex (V/m) @ t=0.64
-1.4007961925065113
% es.Ey (V/m) @ t=0.64
0.10927182285070863
% es.Ez (V/m) @ t=0.64
0.5858419520882558
% es.tEx (V/m) @ t=0.64
-1.4007961925065082
% es.tEy (V/m) @ t=0.64
0
% es.tEz (V/m) @ t=0.64
0.5858419520882556
% V (V) @ t=0.64
0.00850315967515892
% es.normE (V/m) @ t=0.66
1.5372164976210492
% es.EX (V/m) @ t=0.66
-1.4138959067951358
% es.EY (V/m) @ t=0.66
0.11029369319475324
% es.EZ (V/m) @ t=0.66
0.5913206393033257
% es.tEX (V/m) @ t=0.66
-1.4138959067951316
% es.tEY (V/m) @ t=0.66
0
% es.tEZ (V/m) @ t=0.66
0.5913206393033228
% es.Ex (V/m) @ t=0.66
-1.4138959067951358
% es.Ey (V/m) @ t=0.66
0.11029369319475324
% es.Ez (V/m) @ t=0.66
0.5913206393033257
% es.tEx (V/m) @ t=0.66
-1.4138959067951316
% es.tEy (V/m) @ t=0.66
0
% es.tEz (V/m) @ t=0.66
0.5913206393033228
% V (V) @ t=0.66
0.008582689628253157
% es.normE (V/m) @ t=0.68
1.5514588188899978
% es.EX (V/m) @ t=0.68
-1.426995621083752
% es.EY (V/m) @ t=0.68
0.11131556353879246
% es.EZ (V/m) @ t=0.68
0.5967993265183904
% es.tEX (V/m) @ t=0.68
-1.426995621083746
% es.tEY (V/m) @ t=0.68
0
% es.tEZ (V/m) @ t=0.68
0.59679932651839
% es.Ex (V/m) @ t=0.68
-1.426995621083752
% es.Ey (V/m) @ t=0.68
0.11131556353879246
% es.Ez (V/m) @ t=0.68
0.5967993265183904
% es.tEx (V/m) @ t=0.68
-1.426995621083746
% es.tEy (V/m) @ t=0.68
0
% es.tEz (V/m) @ t=0.68
0.59679932651839
% V (V) @ t=0.68
0.008662219581347398
% es.normE (V/m) @ t=0.7
1.5657011401589576
% es.EX (V/m) @ t=0.7
-1.4400953353723693
% es.EY (V/m) @ t=0.7
0.11233743388283174
% es.EZ (V/m) @ t=0.7
0.6022780137334638
% es.tEX (V/m) @ t=0.7
-1.440095335372364
% es.tEY (V/m) @ t=0.7
0
% es.tEZ (V/m) @ t=0.7
0.6022780137334678
% es.Ex (V/m) @ t=0.7
-1.4400953353723693
% es.Ey (V/m) @ t=0.7
0.11233743388283174
% es.Ez (V/m) @ t=0.7
0.6022780137334638
% es.tEx (V/m) @ t=0.7
-1.440095335372364
% es.tEy (V/m) @ t=0.7
0
% es.tEz (V/m) @ t=0.7
0.6022780137334678
% V (V) @ t=0.7
0.008741749534441633
% es.normE (V/m) @ t=0.72
1.5799434614279169
% es.EX (V/m) @ t=0.72
-1.4531950496609853
% es.EY (V/m) @ t=0.72
0.11335930422687446
% es.EZ (V/m) @ t=0.72
0.6077567009485212
% es.tEX (V/m) @ t=0.72
-1.453195049660975
% es.tEY (V/m) @ t=0.72
0
% es.tEZ (V/m) @ t=0.72
0.6077567009485172
% es.Ex (V/m) @ t=0.72
-1.4531950496609853
% es.Ey (V/m) @ t=0.72
0.11335930422687446
% es.Ez (V/m) @ t=0.72
0.6077567009485212
% es.tEx (V/m) @ t=0.72
-1.453195049660975
% es.tEy (V/m) @ t=0.72
0
% es.tEz (V/m) @ t=0.72
0.6077567009485172
% V (V) @ t=0.72
0.00882127948753587
% es.normE (V/m) @ t=0.74
1.5941857826968886
% es.EX (V/m) @ t=0.74
-1.4662947639496033
% es.EY (V/m) @ t=0.74
0.1143811745709119
% es.EZ (V/m) @ t=0.74
0.6132353881635877
% es.tEX (V/m) @ t=0.74
-1.466294763949593
% es.tEY (V/m) @ t=0.74
0
% es.tEZ (V/m) @ t=0.74
0.6132353881635844
% es.Ex (V/m) @ t=0.74
-1.4662947639496033
% es.Ey (V/m) @ t=0.74
0.1143811745709119
% es.Ez (V/m) @ t=0.74
0.6132353881635877
% es.tEx (V/m) @ t=0.74
-1.466294763949593
% es.tEy (V/m) @ t=0.74
0
% es.tEz (V/m) @ t=0.74
0.6132353881635844
% V (V) @ t=0.74
0.00890080944063011
% es.normE (V/m) @ t=0.76
1.608428103965867
% es.EX (V/m) @ t=0.76
-1.4793944782382207
% es.EY (V/m) @ t=0.76
0.11540304491495296
% es.EZ (V/m) @ t=0.76
0.6187140753786557
% es.tEX (V/m) @ t=0.76
-1.4793944782382145
% es.tEY (V/m) @ t=0.76
0
% es.tEZ (V/m) @ t=0.76
0.6187140753786551
% es.Ex (V/m) @ t=0.76
-1.4793944782382207
% es.Ey (V/m) @ t=0.76
0.11540304491495296
% es.Ez (V/m) @ t=0.76
0.6187140753786557
% es.tEx (V/m) @ t=0.76
-1.4793944782382145
% es.tEy (V/m) @ t=0.76
0
% es.tEz (V/m) @ t=0.76
0.6187140753786551
% V (V) @ t=0.76
0.008980339393724349
% es.normE (V/m) @ t=0.78
1.6226704252348474
% es.EX (V/m) @ t=0.78
-1.492494192526834
% es.EY (V/m) @ t=0.78
0.11642491525898147
% es.EZ (V/m) @ t=0.78
0.6241927625937238
% es.tEX (V/m) @ t=0.78
-1.4924941925268342
% es.tEY (V/m) @ t=0.78
0
% es.tEZ (V/m) @ t=0.78
0.6241927625937187
% es.Ex (V/m) @ t=0.78
-1.492494192526834
% es.Ey (V/m) @ t=0.78
0.11642491525898147
% es.Ez (V/m) @ t=0.78
0.6241927625937238
% es.tEx (V/m) @ t=0.78
-1.4924941925268342
% es.tEy (V/m) @ t=0.78
0
% es.tEz (V/m) @ t=0.78
0.6241927625937187
% V (V) @ t=0.78
0.009059869346818588
% es.normE (V/m) @ t=0.8
1.6369127465038393
% es.EX (V/m) @ t=0.8
-1.5055939068154538
% es.EY (V/m) @ t=0.8
0.11744678560302602
% es.EZ (V/m) @ t=0.8
0.6296714498087903
% es.tEX (V/m) @ t=0.8
-1.5055939068154487
% es.tEY (V/m) @ t=0.8
0
% es.tEZ (V/m) @ t=0.8
0.6296714498087894
% es.Ex (V/m) @ t=0.8
-1.5055939068154538
% es.Ey (V/m) @ t=0.8
0.11744678560302602
% es.Ez (V/m) @ t=0.8
0.6296714498087903
% es.tEx (V/m) @ t=0.8
-1.5055939068154487
% es.tEy (V/m) @ t=0.8
0
% es.tEz (V/m) @ t=0.8
0.6296714498087894
% V (V) @ t=0.8
0.009139399299912823
% es.normE (V/m) @ t=0.82
1.6512778988950658
% es.EX (V/m) @ t=0.82
-1.5188066053488265
% es.EY (V/m) @ t=0.82
0.11847746919049978
% es.EZ (V/m) @ t=0.82
0.6351973696450219
% es.tEX (V/m) @ t=0.82
-1.5188066053488143
% es.tEY (V/m) @ t=0.82
0
% es.tEZ (V/m) @ t=0.82
0.6351973696450273
% es.Ex (V/m) @ t=0.82
-1.5188066053488265
% es.Ey (V/m) @ t=0.82
0.11847746919049978
% es.Ez (V/m) @ t=0.82
0.6351973696450219
% es.tEx (V/m) @ t=0.82
-1.5188066053488143
% es.tEy (V/m) @ t=0.82
0
% es.tEz (V/m) @ t=0.82
0.6351973696450273
% V (V) @ t=0.82
0.00921961310996925
% es.normE (V/m) @ t=0.84
1.6672025434296858
% es.EX (V/m) @ t=0.84
-1.5334537778072215
% es.EY (V/m) @ t=0.84
0.11962004774113699
% es.EZ (V/m) @ t=0.84
0.6413229656894055
% es.tEX (V/m) @ t=0.84
-1.5334537778072121
% es.tEY (V/m) @ t=0.84
0
% es.tEZ (V/m) @ t=0.84
0.6413229656894153
% es.Ex (V/m) @ t=0.84
-1.5334537778072215
% es.Ey (V/m) @ t=0.84
0.11962004774113699
% es.Ez (V/m) @ t=0.84
0.6413229656894055
% es.tEx (V/m) @ t=0.84
-1.5334537778072121
% es.tEy (V/m) @ t=0.84
0
% es.tEz (V/m) @ t=0.84
0.6413229656894153
% V (V) @ t=0.84
0.009308509325106887
% es.normE (V/m) @ t=0.86
1.6831271879643284
% es.EX (V/m) @ t=0.86
-1.548100950265624
% es.EY (V/m) @ t=0.86
0.12076262629176882
% es.EZ (V/m) @ t=0.86
0.6474485617337946
% es.tEX (V/m) @ t=0.86
-1.5481009502656171
% es.tEY (V/m) @ t=0.86
0
% es.tEZ (V/m) @ t=0.86
0.6474485617338033
% es.Ex (V/m) @ t=0.86
-1.548100950265624
% es.Ey (V/m) @ t=0.86
0.12076262629176882
% es.Ez (V/m) @ t=0.86
0.6474485617337946
% es.tEx (V/m) @ t=0.86
-1.5481009502656171
% es.tEy (V/m) @ t=0.86
0
% es.tEz (V/m) @ t=0.86
0.6474485617338033
% V (V) @ t=0.86
0.009397405540244525
% es.normE (V/m) @ t=0.88
1.6990518324989756
% es.EX (V/m) @ t=0.88
-1.5627481227240219
% es.EY (V/m) @ t=0.88
0.12190520484239009
% es.EZ (V/m) @ t=0.88
0.6535741577781746
% es.tEX (V/m) @ t=0.88
-1.5627481227240185
% es.tEY (V/m) @ t=0.88
0
% es.tEZ (V/m) @ t=0.88
0.6535741577781735
% es.Ex (V/m) @ t=0.88
-1.5627481227240219
% es.Ey (V/m) @ t=0.88
0.12190520484239009
% es.Ez (V/m) @ t=0.88
0.6535741577781746
% es.tEx (V/m) @ t=0.88
-1.5627481227240185
% es.tEy (V/m) @ t=0.88
0
% es.tEz (V/m) @ t=0.88
0.6535741577781735
% V (V) @ t=0.88
0.00948630175538216
% es.normE (V/m) @ t=0.9
1.7149764770336446
% es.EX (V/m) @ t=0.9
-1.5773952951824224
% es.EY (V/m) @ t=0.9
0.12304778339303613
% es.EZ (V/m) @ t=0.9
0.6596997538225673
% es.tEX (V/m) @ t=0.9
-1.5773952951824164
% es.tEY (V/m) @ t=0.9
0
% es.tEZ (V/m) @ t=0.9
0.6596997538225544
% es.Ex (V/m) @ t=0.9
-1.5773952951824224
% es.Ey (V/m) @ t=0.9
0.12304778339303613
% es.Ez (V/m) @ t=0.9
0.6596997538225673
% es.tEx (V/m) @ t=0.9
-1.5773952951824164
% es.tEy (V/m) @ t=0.9
0
% es.tEz (V/m) @ t=0.9
0.6596997538225544
% V (V) @ t=0.9
0.009575197970519797
% es.normE (V/m) @ t=0.92
1.730901121568321
% es.EX (V/m) @ t=0.92
-1.5920424676408238
% es.EY (V/m) @ t=0.92
0.1241903619436538
% es.EZ (V/m) @ t=0.92
0.6658253498669491
% es.tEX (V/m) @ t=0.92
-1.592042467640816
% es.tEY (V/m) @ t=0.92
0
% es.tEZ (V/m) @ t=0.92
0.6658253498669389
% es.Ex (V/m) @ t=0.92
-1.5920424676408238
% es.Ey (V/m) @ t=0.92
0.1241903619436538
% es.Ez (V/m) @ t=0.92
0.6658253498669491
% es.tEx (V/m) @ t=0.92
-1.592042467640816
% es.tEy (V/m) @ t=0.92
0
% es.tEz (V/m) @ t=0.92
0.6658253498669389
% V (V) @ t=0.92
0.009664094185657432
% es.normE (V/m) @ t=0.94
1.7468257661030162
% es.EX (V/m) @ t=0.94
-1.6066896400992285
% es.EY (V/m) @ t=0.94
0.12533294049428745
% es.EZ (V/m) @ t=0.94
0.6719509459113381
% es.tEX (V/m) @ t=0.94
-1.6066896400992245
% es.tEY (V/m) @ t=0.94
0
% es.tEZ (V/m) @ t=0.94
0.6719509459113269
% es.Ex (V/m) @ t=0.94
-1.6066896400992285
% es.Ey (V/m) @ t=0.94
0.12533294049428745
% es.Ez (V/m) @ t=0.94
0.6719509459113381
% es.tEx (V/m) @ t=0.94
-1.6066896400992245
% es.tEy (V/m) @ t=0.94
0
% es.tEz (V/m) @ t=0.94
0.6719509459113269
% V (V) @ t=0.94
0.009752990400795069
% es.normE (V/m) @ t=0.96
1.7627504106377163
% es.EX (V/m) @ t=0.96
-1.6213368125576288
% es.EY (V/m) @ t=0.96
0.12647551904493337
% es.EZ (V/m) @ t=0.96
0.6780765419557166
% es.tEX (V/m) @ t=0.96
-1.6213368125576189
% es.tEY (V/m) @ t=0.96
0
% es.tEZ (V/m) @ t=0.96
0.6780765419557113
% es.Ex (V/m) @ t=0.96
-1.6213368125576288
% es.Ey (V/m) @ t=0.96
0.12647551904493337
% es.Ez (V/m) @ t=0.96
0.6780765419557166
% es.tEx (V/m) @ t=0.96
-1.6213368125576189
% es.tEy (V/m) @ t=0.96
0
% es.tEz (V/m) @ t=0.96
0.6780765419557113
% V (V) @ t=0.96
0.009841886615932705
% es.normE (V/m) @ t=0.98
1.778675055172429
% es.EX (V/m) @ t=0.98
-1.6359839850160285
% es.EY (V/m) @ t=0.98
0.12761809759554754
% es.EZ (V/m) @ t=0.98
0.6842021380001073
% es.tEX (V/m) @ t=0.98
-1.6359839850160238
% es.tEY (V/m) @ t=0.98
0
% es.tEZ (V/m) @ t=0.98
0.6842021380000993
% es.Ex (V/m) @ t=0.98
-1.6359839850160285
% es.Ey (V/m) @ t=0.98
0.12761809759554754
% es.Ez (V/m) @ t=0.98
0.6842021380001073
% es.tEx (V/m) @ t=0.98
-1.6359839850160238
% es.tEy (V/m) @ t=0.98
0
% es.tEz (V/m) @ t=0.98
0.6842021380000993
% V (V) @ t=0.98
0.009930782831070342
% es.normE (V/m) @ t=1
1.794599699707157
% es.EX (V/m) @ t=1
-1.65063115747443
% es.EY (V/m) @ t=1
0.12876067614619535
% es.EZ (V/m) @ t=1
0.6903277340444964
% es.tEX (V/m) @ t=1
-1.6506311574744217
% es.tEY (V/m) @ t=1
0
% es.tEZ (V/m) @ t=1
0.6903277340444944
% es.Ex (V/m) @ t=1
-1.65063115747443
% es.Ey (V/m) @ t=1
0.12876067614619535
% es.Ez (V/m) @ t=1
0.6903277340444964
% es.tEx (V/m) @ t=1
-1.6506311574744217
% es.tEy (V/m) @ t=1
0
% es.tEz (V/m) @ t=1
0.6903277340444944
% V (V) @ t=1
0.01001967904620798
% es.normE (V/m) @ t=1.02
1.810524344241897
% es.EX (V/m) @ t=1.02
-1.665278329932834
% es.EY (V/m) @ t=1.02
0.12990325469681485
% es.EZ (V/m) @ t=1.02
0.6964533300888871
% es.tEX (V/m) @ t=1.02
-1.665278329932832
% es.tEY (V/m) @ t=1.02
0
% es.tEZ (V/m) @ t=1.02
0.6964533300888824
% es.Ex (V/m) @ t=1.02
-1.665278329932834
% es.Ey (V/m) @ t=1.02
0.12990325469681485
% es.Ez (V/m) @ t=1.02
0.6964533300888871
% es.tEx (V/m) @ t=1.02
-1.665278329932832
% es.tEy (V/m) @ t=1.02
0
% es.tEz (V/m) @ t=1.02
0.6964533300888824
% V (V) @ t=1.02
0.010108575261345615
% es.normE (V/m) @ t=1.04
1.8264489887766384
% es.EX (V/m) @ t=1.04
-1.6799255023912325
% es.EY (V/m) @ t=1.04
0.13104583324745733
% es.EZ (V/m) @ t=1.04
0.7025789261332638