% Model:              1 neuron.mph
% Version:            COMSOL 6.0.0.405
% Date:               Mar 16 2023, 10:07
% Dimension:          0
% Nodes:              14017
% Expressions:        14017
% Description:        Electric field norm, Electric field, X component, Electric field, Y component, Electric field, Z component, Tangential electric field, X component, Tangential electric field, Y component, Tangential electric field, Z component, Electric field, x component, Electric field, y component, Electric field, z component, Tangential electric field, x component, Tangential electric field, y component, Tangential electric field, z component, Electric potential
% Length unit:        mm
% x
1.3300000000000003
% y
12.200000000000001
% z
1.66
% es.normE (V/m) @ t=0
7.239637380481499
% es.EX (V/m) @ t=0
4.594270520663631
% es.EY (V/m) @ t=0
1.3738472297544821
% es.EZ (V/m) @ t=0
-5.032416214716675
% es.tEX (V/m) @ t=0
4.594270520663626
% es.tEY (V/m) @ t=0
0
% es.tEZ (V/m) @ t=0
-5.03241621471666
% es.Ex (V/m) @ t=0
4.594270520663631
% es.Ey (V/m) @ t=0
1.3738472297544821
% es.Ez (V/m) @ t=0
-5.032416214716675
% es.tEx (V/m) @ t=0
4.594270520663626
% es.tEy (V/m) @ t=0
0
% es.tEz (V/m) @ t=0
-5.03241621471666
% V (V) @ t=0
0.006201318335276268
% es.normE (V/m) @ t=0.02
6.253016875441469
% es.EX (V/m) @ t=0.02
3.9681616093554473
% es.EY (V/m) @ t=0.02
1.1866188117193373
% es.EZ (V/m) @ t=0.02
-4.34659663770848
% es.tEX (V/m) @ t=0.02
3.968161609355436
% es.tEY (V/m) @ t=0.02
0
% es.tEZ (V/m) @ t=0.02
-4.346596637708473
% es.Ex (V/m) @ t=0.02
3.9681616093554473
% es.Ey (V/m) @ t=0.02
1.1866188117193373
% es.Ez (V/m) @ t=0.02
-4.34659663770848
% es.tEx (V/m) @ t=0.02
3.968161609355436
% es.tEy (V/m) @ t=0.02
0
% es.tEz (V/m) @ t=0.02
-4.346596637708473
% V (V) @ t=0.02
0.005356200330239238
% es.normE (V/m) @ t=0.04
6.3105357692800625
% es.EX (V/m) @ t=0.04
4.0046630858904555
% es.EY (V/m) @ t=0.04
1.197534019599599
% es.EZ (V/m) @ t=0.04
-4.3865791562652445
% es.tEX (V/m) @ t=0.04
4.004663085890451
% es.tEY (V/m) @ t=0.04
0
% es.tEZ (V/m) @ t=0.04
-4.386579156265234
% es.Ex (V/m) @ t=0.04
4.0046630858904555
% es.Ey (V/m) @ t=0.04
1.197534019599599
% es.Ez (V/m) @ t=0.04
-4.3865791562652445
% es.tEx (V/m) @ t=0.04
4.004663085890451
% es.tEy (V/m) @ t=0.04
0
% es.tEz (V/m) @ t=0.04
-4.386579156265234
% V (V) @ t=0.04
0.005405469741040599
% es.normE (V/m) @ t=0.06
6.3685716258131855
% es.EX (V/m) @ t=0.06
4.04149265020523
% es.EY (V/m) @ t=0.06
1.208547323753797
% es.EZ (V/m) @ t=0.06
-4.426921006707821
% es.tEX (V/m) @ t=0.06
4.041492650205226
% es.tEY (V/m) @ t=0.06
0
% es.tEZ (V/m) @ t=0.06
-4.426921006707807
% es.Ex (V/m) @ t=0.06
4.04149265020523
% es.Ey (V/m) @ t=0.06
1.208547323753797
% es.Ez (V/m) @ t=0.06
-4.426921006707821
% es.tEx (V/m) @ t=0.06
4.041492650205226
% es.tEy (V/m) @ t=0.06
0
% es.tEz (V/m) @ t=0.06
-4.426921006707807
% V (V) @ t=0.06
0.005455181896593096
% es.normE (V/m) @ t=0.08
6.427497000639814
% es.EX (V/m) @ t=0.08
4.078886663783244
% es.EY (V/m) @ t=0.08
1.2197294400093237
% es.EZ (V/m) @ t=0.08
-4.467881210589809
% es.tEX (V/m) @ t=0.08
4.078886663783243
% es.tEY (V/m) @ t=0.08
0
% es.tEZ (V/m) @ t=0.08
-4.467881210589795
% es.Ex (V/m) @ t=0.08
4.078886663783244
% es.Ey (V/m) @ t=0.08
1.2197294400093237
% es.Ez (V/m) @ t=0.08
-4.467881210589809
% es.tEx (V/m) @ t=0.08
4.078886663783243
% es.tEy (V/m) @ t=0.08
0
% es.tEz (V/m) @ t=0.08
-4.467881210589795
% V (V) @ t=0.08
0.005505656116847495
% es.normE (V/m) @ t=0.1
6.487033236299289
% es.EX (V/m) @ t=0.1
4.116668302831764
% es.EY (V/m) @ t=0.1
1.2310274849664316
% es.EZ (V/m) @ t=0.1
-4.509266057674454
% es.tEX (V/m) @ t=0.1
4.116668302831746
% es.tEY (V/m) @ t=0.1
0
% es.tEZ (V/m) @ t=0.1
-4.509266057674443
% es.Ex (V/m) @ t=0.1
4.116668302831764
% es.Ey (V/m) @ t=0.1
1.2310274849664316
% es.Ez (V/m) @ t=0.1
-4.509266057674454
% es.tEx (V/m) @ t=0.1
4.116668302831746
% es.tEy (V/m) @ t=0.1
0
% es.tEz (V/m) @ t=0.1
-4.509266057674443
% V (V) @ t=0.1
0.0055566536714524925
% es.normE (V/m) @ t=0.12
6.546569471958752
% es.EX (V/m) @ t=0.12
4.15444994188025
% es.EY (V/m) @ t=0.12
1.2423255299235627
% es.EZ (V/m) @ t=0.12
-4.550650904759099
% es.tEX (V/m) @ t=0.12
4.154449941880234
% es.tEY (V/m) @ t=0.12
0
% es.tEZ (V/m) @ t=0.12
-4.550650904759084
% es.Ex (V/m) @ t=0.12
4.15444994188025
% es.Ey (V/m) @ t=0.12
1.2423255299235627
% es.Ez (V/m) @ t=0.12
-4.550650904759099
% es.tEx (V/m) @ t=0.12
4.154449941880234
% es.tEy (V/m) @ t=0.12
0
% es.tEz (V/m) @ t=0.12
-4.550650904759084
% V (V) @ t=0.12
0.0056076512260574895
% es.normE (V/m) @ t=0.14
6.6067268257269385
% es.EX (V/m) @ t=0.14
4.1926257602071155
% es.EY (V/m) @ t=0.14
1.253741437917505
% es.EZ (V/m) @ t=0.14
-4.592467488714597
% es.tEX (V/m) @ t=0.14
4.1926257602070915
% es.tEY (V/m) @ t=0.14
0
% es.tEZ (V/m) @ t=0.14
-4.59246748871459
% es.Ex (V/m) @ t=0.14
4.1926257602071155
% es.Ey (V/m) @ t=0.14
1.253741437917505
% es.Ez (V/m) @ t=0.14
-4.592467488714597
% es.tEx (V/m) @ t=0.14
4.1926257602070915
% es.tEy (V/m) @ t=0.14
0
% es.tEz (V/m) @ t=0.14
-4.59246748871459
% V (V) @ t=0.14
0.005659180760020673
% es.normE (V/m) @ t=0.16
6.6694372559774955
% es.EX (V/m) @ t=0.16
4.232421833733835
% es.EY (V/m) @ t=0.16
1.2656418163257253
% es.EZ (V/m) @ t=0.16
-4.636058706569989
% es.tEX (V/m) @ t=0.16
4.232421833733827
% es.tEY (V/m) @ t=0.16
0
% es.tEZ (V/m) @ t=0.16
-4.636058706569975
% es.Ex (V/m) @ t=0.16
4.232421833733835
% es.Ey (V/m) @ t=0.16
1.2656418163257253
% es.Ez (V/m) @ t=0.16
-4.636058706569989
% es.tEx (V/m) @ t=0.16
4.232421833733827
% es.tEy (V/m) @ t=0.16
0
% es.tEz (V/m) @ t=0.16
-4.636058706569975
% V (V) @ t=0.16
0.005712896969866224
% es.normE (V/m) @ t=0.18
6.732147686228039
% es.EX (V/m) @ t=0.18
4.272217907260544
% es.EY (V/m) @ t=0.18
1.2775421947339758
% es.EZ (V/m) @ t=0.18
-4.679649924425357
% es.tEX (V/m) @ t=0.18
4.272217907260542
% es.tEY (V/m) @ t=0.18
0
% es.tEZ (V/m) @ t=0.18
-4.679649924425346
% es.Ex (V/m) @ t=0.18
4.272217907260544
% es.Ey (V/m) @ t=0.18
1.2775421947339758
% es.Ez (V/m) @ t=0.18
-4.679649924425357
% es.tEx (V/m) @ t=0.18
4.272217907260542
% es.tEy (V/m) @ t=0.18
0
% es.tEz (V/m) @ t=0.18
-4.679649924425346
% V (V) @ t=0.18
0.0057666131797117735
% es.normE (V/m) @ t=0.2
6.7948581164785855
% es.EX (V/m) @ t=0.2
4.312013980787268
% es.EY (V/m) @ t=0.2
1.2894425731422086
% es.EZ (V/m) @ t=0.2
-4.723241142280739
% es.tEX (V/m) @ t=0.2
4.31201398078726
% es.tEY (V/m) @ t=0.2
0
% es.tEZ (V/m) @ t=0.2
-4.723241142280735
% es.Ex (V/m) @ t=0.2
4.312013980787268
% es.Ey (V/m) @ t=0.2
1.2894425731422086
% es.Ez (V/m) @ t=0.2
-4.723241142280739
% es.tEx (V/m) @ t=0.2
4.31201398078726
% es.tEy (V/m) @ t=0.2
0
% es.tEz (V/m) @ t=0.2
-4.723241142280735
% V (V) @ t=0.2
0.005820329389557325
% es.normE (V/m) @ t=0.22
6.857568546729154
% es.EX (V/m) @ t=0.22
4.351810054313965
% es.EY (V/m) @ t=0.22
1.3013429515504717
% es.EZ (V/m) @ t=0.22
-4.766832360136146
% es.tEX (V/m) @ t=0.22
4.351810054313956
% es.tEY (V/m) @ t=0.22
0
% es.tEZ (V/m) @ t=0.22
-4.7668323601361315
% es.Ex (V/m) @ t=0.22
4.351810054313965
% es.Ey (V/m) @ t=0.22
1.3013429515504717
% es.Ez (V/m) @ t=0.22
-4.766832360136146
% es.tEx (V/m) @ t=0.22
4.351810054313956
% es.tEy (V/m) @ t=0.22
0
% es.tEz (V/m) @ t=0.22
-4.7668323601361315
% V (V) @ t=0.22
0.005874045599402874
% es.normE (V/m) @ t=0.24
6.920278976979693
% es.EX (V/m) @ t=0.24
4.391606127840685
% es.EY (V/m) @ t=0.24
1.313243329958676
% es.EZ (V/m) @ t=0.24
-4.810423577991513
% es.tEX (V/m) @ t=0.24
4.391606127840685
% es.tEY (V/m) @ t=0.24
0
% es.tEZ (V/m) @ t=0.24
-4.810423577991503
% es.Ex (V/m) @ t=0.24
4.391606127840685
% es.Ey (V/m) @ t=0.24
1.313243329958676
% es.Ez (V/m) @ t=0.24
-4.810423577991513
% es.tEx (V/m) @ t=0.24
4.391606127840685
% es.tEy (V/m) @ t=0.24
0
% es.tEz (V/m) @ t=0.24
-4.810423577991503
% V (V) @ t=0.24
0.005927761809248424
% es.normE (V/m) @ t=0.26
6.982989407230253
% es.EX (V/m) @ t=0.26
4.4314022013673995
% es.EY (V/m) @ t=0.26
1.3251437083669035
% es.EZ (V/m) @ t=0.26
-4.854014795846899
% es.tEX (V/m) @ t=0.26
4.431402201367392
% es.tEY (V/m) @ t=0.26
0
% es.tEZ (V/m) @ t=0.26
-4.854014795846888
% es.Ex (V/m) @ t=0.26
4.4314022013673995
% es.Ey (V/m) @ t=0.26
1.3251437083669035
% es.Ez (V/m) @ t=0.26
-4.854014795846899
% es.tEx (V/m) @ t=0.26
4.431402201367392
% es.tEy (V/m) @ t=0.26
0
% es.tEz (V/m) @ t=0.26
-4.854014795846888
% V (V) @ t=0.26
0.005981478019093973
% es.normE (V/m) @ t=0.28
7.048564398376707
% es.EX (V/m) @ t=0.28
4.473016242498193
% es.EY (V/m) @ t=0.28
1.3375876546850471
% es.EZ (V/m) @ t=0.28
-4.899597130271568
% es.tEX (V/m) @ t=0.28
4.473016242498185
% es.tEY (V/m) @ t=0.28
0
% es.tEZ (V/m) @ t=0.28
-4.899597130271553
% es.Ex (V/m) @ t=0.28
4.473016242498193
% es.Ey (V/m) @ t=0.28
1.3375876546850471
% es.Ez (V/m) @ t=0.28
-4.899597130271568
% es.tEx (V/m) @ t=0.28
4.473016242498185
% es.tEy (V/m) @ t=0.28
0
% es.tEz (V/m) @ t=0.28
-4.899597130271553
% V (V) @ t=0.28
0.0060376475744184435
% es.normE (V/m) @ t=0.3
7.1184128988768745
% es.EX (V/m) @ t=0.3
4.517342427599059
% es.EY (V/m) @ t=0.3
1.3508425254804621
% es.EZ (V/m) @ t=0.3
-4.948149921807262
% es.tEX (V/m) @ t=0.3
4.517342427599045
% es.tEY (V/m) @ t=0.3
0
% es.tEZ (V/m) @ t=0.3
-4.948149921807258
% es.Ex (V/m) @ t=0.3
4.517342427599059
% es.Ey (V/m) @ t=0.3
1.3508425254804621
% es.Ez (V/m) @ t=0.3
-4.948149921807262
% es.tEx (V/m) @ t=0.3
4.517342427599045
% es.tEy (V/m) @ t=0.3
0
% es.tEz (V/m) @ t=0.3
-4.948149921807258
% V (V) @ t=0.3
0.006097477165341027
% es.normE (V/m) @ t=0.32
7.188261399377083
% es.EX (V/m) @ t=0.32
4.561668612699918
% es.EY (V/m) @ t=0.32
1.3640973962758771
% es.EZ (V/m) @ t=0.32
-4.996702713342964
% es.tEX (V/m) @ t=0.32
4.561668612699906
% es.tEY (V/m) @ t=0.32
0
% es.tEZ (V/m) @ t=0.32
-4.99670271334295
% es.Ex (V/m) @ t=0.32
4.561668612699918
% es.Ey (V/m) @ t=0.32
1.3640973962758771
% es.Ez (V/m) @ t=0.32
-4.996702713342964
% es.tEx (V/m) @ t=0.32
4.561668612699906
% es.tEy (V/m) @ t=0.32
0
% es.tEz (V/m) @ t=0.32
-4.99670271334295
% V (V) @ t=0.32
0.00615730675626361
% es.normE (V/m) @ t=0.34
7.258109899877299
% es.EX (V/m) @ t=0.34
4.60599479780078
% es.EY (V/m) @ t=0.34
1.377352267071308
% es.EZ (V/m) @ t=0.34
-5.045255504878645
% es.tEX (V/m) @ t=0.34
4.605994797800761
% es.tEY (V/m) @ t=0.34
0
% es.tEZ (V/m) @ t=0.34
-5.045255504878634
% es.Ex (V/m) @ t=0.34
4.60599479780078
% es.Ey (V/m) @ t=0.34
1.377352267071308
% es.Ez (V/m) @ t=0.34
-5.045255504878645
% es.tEx (V/m) @ t=0.34
4.605994797800761
% es.tEy (V/m) @ t=0.34
0
% es.tEz (V/m) @ t=0.34
-5.045255504878634
% V (V) @ t=0.34
0.006217136347186195
% es.normE (V/m) @ t=0.36
7.327958400377548
% es.EX (V/m) @ t=0.36
4.6503209829016345
% es.EY (V/m) @ t=0.36
1.390607137866716
% es.EZ (V/m) @ t=0.36
-5.093808296414332
% es.tEX (V/m) @ t=0.36
4.650320982901629
% es.tEY (V/m) @ t=0.36
0
% es.tEZ (V/m) @ t=0.36
-5.093808296414325
% es.Ex (V/m) @ t=0.36
4.6503209829016345
% es.Ey (V/m) @ t=0.36
1.390607137866716
% es.Ez (V/m) @ t=0.36
-5.093808296414332
% es.tEx (V/m) @ t=0.36
4.650320982901629
% es.tEy (V/m) @ t=0.36
0
% es.tEz (V/m) @ t=0.36
-5.093808296414325
% V (V) @ t=0.36
0.006276965938108777
% es.normE (V/m) @ t=0.38
7.397806900877821
% es.EX (V/m) @ t=0.38
4.694647168002486
% es.EY (V/m) @ t=0.38
1.4038620086621347
% es.EZ (V/m) @ t=0.38
-5.1423610879500234
% es.tEX (V/m) @ t=0.38
4.6946471680024775
% es.tEY (V/m) @ t=0.38
0
% es.tEZ (V/m) @ t=0.38
-5.142361087950013
% es.Ex (V/m) @ t=0.38
4.694647168002486
% es.Ey (V/m) @ t=0.38
1.4038620086621347
% es.Ez (V/m) @ t=0.38
-5.1423610879500234
% es.tEx (V/m) @ t=0.38
4.6946471680024775
% es.tEy (V/m) @ t=0.38
0
% es.tEz (V/m) @ t=0.38
-5.142361087950013
% V (V) @ t=0.38
0.00633679552903136
% es.normE (V/m) @ t=0.4
7.467655401378136
% es.EX (V/m) @ t=0.4
4.738973353103354
% es.EY (V/m) @ t=0.4
1.4171168794575728
% es.EZ (V/m) @ t=0.4
-5.190913879485722
% es.tEX (V/m) @ t=0.4
4.738973353103344
% es.tEY (V/m) @ t=0.4
0
% es.tEZ (V/m) @ t=0.4
-5.190913879485711
% es.Ex (V/m) @ t=0.4
4.738973353103354
% es.Ey (V/m) @ t=0.4
1.4171168794575728
% es.Ez (V/m) @ t=0.4
-5.190913879485722
% es.tEx (V/m) @ t=0.4
4.738973353103344
% es.tEy (V/m) @ t=0.4
0
% es.tEz (V/m) @ t=0.4
-5.190913879485711
% V (V) @ t=0.4
0.006396625119953946
% es.normE (V/m) @ t=0.42
7.537503901878466
% es.EX (V/m) @ t=0.42
4.783299538204218
% es.EY (V/m) @ t=0.42
1.430371750252995
% es.EZ (V/m) @ t=0.42
-5.239466671021406
% es.tEX (V/m) @ t=0.42
4.783299538204208
% es.tEY (V/m) @ t=0.42
0
% es.tEZ (V/m) @ t=0.42
-5.2394666710213915
% es.Ex (V/m) @ t=0.42
4.783299538204218
% es.Ey (V/m) @ t=0.42
1.430371750252995
% es.Ez (V/m) @ t=0.42
-5.239466671021406
% es.tEx (V/m) @ t=0.42
4.783299538204208
% es.tEy (V/m) @ t=0.42
0
% es.tEz (V/m) @ t=0.42
-5.2394666710213915
% V (V) @ t=0.42
0.00645645471087653
% es.normE (V/m) @ t=0.44
7.607352402378826
% es.EX (V/m) @ t=0.44
4.827625723305074
% es.EY (V/m) @ t=0.44
1.443626621048419
% es.EZ (V/m) @ t=0.44
-5.288019462557097
% es.tEX (V/m) @ t=0.44
4.827625723305061
% es.tEY (V/m) @ t=0.44
0
% es.tEZ (V/m) @ t=0.44
-5.288019462557086
% es.Ex (V/m) @ t=0.44
4.827625723305074
% es.Ey (V/m) @ t=0.44
1.443626621048419
% es.Ez (V/m) @ t=0.44
-5.288019462557097
% es.tEx (V/m) @ t=0.44
4.827625723305061
% es.tEy (V/m) @ t=0.44
0
% es.tEz (V/m) @ t=0.44
-5.288019462557086
% V (V) @ t=0.44
0.006516284301799112
% es.normE (V/m) @ t=0.46
7.677200902879205
% es.EX (V/m) @ t=0.46
4.871951908405929
% es.EY (V/m) @ t=0.46
1.4568814918438306
% es.EZ (V/m) @ t=0.46
-5.336572254092788
% es.tEX (V/m) @ t=0.46
4.87195190840592
% es.tEY (V/m) @ t=0.46
0
% es.tEZ (V/m) @ t=0.46
-5.336572254092774
% es.Ex (V/m) @ t=0.46
4.871951908405929
% es.Ey (V/m) @ t=0.46
1.4568814918438306
% es.Ez (V/m) @ t=0.46
-5.336572254092788
% es.tEx (V/m) @ t=0.46
4.87195190840592
% es.tEy (V/m) @ t=0.46
0
% es.tEz (V/m) @ t=0.46
-5.336572254092774
% V (V) @ t=0.46
0.006576113892721695
% es.normE (V/m) @ t=0.48
7.747049403379622
% es.EX (V/m) @ t=0.48
4.916278093506794
% es.EY (V/m) @ t=0.48
1.4701363626392525
% es.EZ (V/m) @ t=0.48
-5.38512504562849
% es.tEX (V/m) @ t=0.48
4.916278093506785
% es.tEY (V/m) @ t=0.48
0
% es.tEZ (V/m) @ t=0.48
-5.385125045628479
% es.Ex (V/m) @ t=0.48
4.916278093506794
% es.Ey (V/m) @ t=0.48
1.4701363626392525
% es.Ez (V/m) @ t=0.48
-5.38512504562849
% es.tEx (V/m) @ t=0.48
4.916278093506785
% es.tEy (V/m) @ t=0.48
0
% es.tEz (V/m) @ t=0.48
-5.385125045628479
% V (V) @ t=0.48
0.006635943483644279
% es.normE (V/m) @ t=0.5
7.816897903880039
% es.EX (V/m) @ t=0.5
4.9606042786076525
% es.EY (V/m) @ t=0.5
1.4833912334346606
% es.EZ (V/m) @ t=0.5
-5.433677837164167
% es.tEX (V/m) @ t=0.5
4.960604278607651
% es.tEY (V/m) @ t=0.5
0
% es.tEZ (V/m) @ t=0.5
-5.43367783716416
% es.Ex (V/m) @ t=0.5
4.9606042786076525
% es.Ey (V/m) @ t=0.5
1.4833912334346606
% es.Ez (V/m) @ t=0.5
-5.433677837164167
% es.tEx (V/m) @ t=0.5
4.960604278607651
% es.tEy (V/m) @ t=0.5
0
% es.tEz (V/m) @ t=0.5
-5.43367783716416
% V (V) @ t=0.5
0.0066957730745668635
% es.normE (V/m) @ t=0.52
7.886746404380507
% es.EX (V/m) @ t=0.52
5.004930463708517
% es.EY (V/m) @ t=0.52
1.4966461042300971
% es.EZ (V/m) @ t=0.52
-5.482230628699872
% es.tEX (V/m) @ t=0.52
5.0049304637085
% es.tEY (V/m) @ t=0.52
0
% es.tEZ (V/m) @ t=0.52
-5.482230628699858
% es.Ex (V/m) @ t=0.52
5.004930463708517
% es.Ey (V/m) @ t=0.52
1.4966461042300971
% es.Ez (V/m) @ t=0.52
-5.482230628699872
% es.tEx (V/m) @ t=0.52
5.0049304637085
% es.tEy (V/m) @ t=0.52
0
% es.tEz (V/m) @ t=0.52
-5.482230628699858
% V (V) @ t=0.52
0.006755602665489447
% es.normE (V/m) @ t=0.54
7.956594904880967
% es.EX (V/m) @ t=0.54
5.049256648809376
% es.EY (V/m) @ t=0.54
1.509900975025505
% es.EZ (V/m) @ t=0.54
-5.530783420235549
% es.tEX (V/m) @ t=0.54
5.049256648809367
% es.tEY (V/m) @ t=0.54
0
% es.tEZ (V/m) @ t=0.54
-5.530783420235535
% es.Ex (V/m) @ t=0.54
5.049256648809376
% es.Ey (V/m) @ t=0.54
1.509900975025505
% es.Ez (V/m) @ t=0.54
-5.530783420235549
% es.tEx (V/m) @ t=0.54
5.049256648809367
% es.tEy (V/m) @ t=0.54
0
% es.tEz (V/m) @ t=0.54
-5.530783420235535
% V (V) @ t=0.54
0.00681543225641203
% es.normE (V/m) @ t=0.56
8.033018261201395
% es.EX (V/m) @ t=0.56
5.097754930858135
% es.EY (V/m) @ t=0.56
1.5244036223095734
% es.EZ (V/m) @ t=0.56
-5.58390677277253
% es.tEX (V/m) @ t=0.56
5.097754930858125
% es.tEY (V/m) @ t=0.56
0
% es.tEZ (V/m) @ t=0.56
-5.583906772772519
% es.Ex (V/m) @ t=0.56
5.097754930858135
% es.Ey (V/m) @ t=0.56
1.5244036223095734
% es.Ez (V/m) @ t=0.56
-5.58390677277253
% es.tEx (V/m) @ t=0.56
5.097754930858125
% es.tEy (V/m) @ t=0.56
0
% es.tEz (V/m) @ t=0.56
-5.583906772772519
% V (V) @ t=0.56
0.006880894690461053
% es.normE (V/m) @ t=0.58
8.110958218477128
% es.EX (V/m) @ t=0.58
5.147215577160971
% es.EY (V/m) @ t=0.58
1.5391940902039243
% es.EZ (V/m) @ t=0.58
-5.6380844019918825
% es.tEX (V/m) @ t=0.58
5.147215577160953
% es.tEY (V/m) @ t=0.58
0
% es.tEZ (V/m) @ t=0.58
-5.6380844019918746
% es.Ex (V/m) @ t=0.58
5.147215577160971
% es.Ey (V/m) @ t=0.58
1.5391940902039243
% es.Ez (V/m) @ t=0.58
-5.6380844019918825
% es.tEx (V/m) @ t=0.58
5.147215577160953
% es.tEy (V/m) @ t=0.58
0
% es.tEz (V/m) @ t=0.58
-5.6380844019918746
% V (V) @ t=0.58
0.00694765643441141
% es.normE (V/m) @ t=0.6
8.188898175752879
% es.EX (V/m) @ t=0.6
5.1966762234638235
% es.EY (V/m) @ t=0.6
1.5539845580982876
% es.EZ (V/m) @ t=0.6
-5.692262031211227
% es.tEX (V/m) @ t=0.6
5.196676223463813
% es.tEY (V/m) @ t=0.6
0
% es.tEZ (V/m) @ t=0.6
-5.692262031211213
% es.Ex (V/m) @ t=0.6
5.1966762234638235
% es.Ey (V/m) @ t=0.6
1.5539845580982876
% es.Ez (V/m) @ t=0.6
-5.692262031211227
% es.tEx (V/m) @ t=0.6
5.196676223463813
% es.tEy (V/m) @ t=0.6
0
% es.tEz (V/m) @ t=0.6
-5.692262031211213
% V (V) @ t=0.6
0.007014418178361768
% es.normE (V/m) @ t=0.62
8.266838133028614
% es.EX (V/m) @ t=0.62
5.24613686976666
% es.EY (V/m) @ t=0.62
1.5687750259926332
% es.EZ (V/m) @ t=0.62
-5.746439660430576
% es.tEX (V/m) @ t=0.62
5.246136869766654
% es.tEY (V/m) @ t=0.62
0
% es.tEZ (V/m) @ t=0.62
-5.746439660430561
% es.Ex (V/m) @ t=0.62
5.24613686976666
% es.Ey (V/m) @ t=0.62
1.5687750259926332
% es.Ez (V/m) @ t=0.62
-5.746439660430576
% es.tEx (V/m) @ t=0.62
5.246136869766654
% es.tEy (V/m) @ t=0.62
0
% es.tEz (V/m) @ t=0.62
-5.746439660430561
% V (V) @ t=0.62
0.0070811799223121285
% es.normE (V/m) @ t=0.64
8.344778090304363
% es.EX (V/m) @ t=0.64
5.295597516069512
% es.EY (V/m) @ t=0.64
1.5835654938869823
% es.EZ (V/m) @ t=0.64
-5.800617289649921
% es.tEX (V/m) @ t=0.64
5.295597516069499
% es.tEY (V/m) @ t=0.64
0
% es.tEZ (V/m) @ t=0.64
-5.800617289649907
% es.Ex (V/m) @ t=0.64
5.295597516069512
% es.Ey (V/m) @ t=0.64
1.5835654938869823
% es.Ez (V/m) @ t=0.64
-5.800617289649921
% es.tEx (V/m) @ t=0.64
5.295597516069499
% es.tEy (V/m) @ t=0.64
0
% es.tEz (V/m) @ t=0.64
-5.800617289649907
% V (V) @ t=0.64
0.007147941666262487
% es.normE (V/m) @ t=0.66
8.422718047580094
% es.EX (V/m) @ t=0.66
5.345058162372361
% es.EY (V/m) @ t=0.66
1.5983559617813101
% es.EZ (V/m) @ t=0.66
-5.854794918869258
% es.tEX (V/m) @ t=0.66
5.345058162372352
% es.tEY (V/m) @ t=0.66
0
% es.tEZ (V/m) @ t=0.66
-5.854794918869247
% es.Ex (V/m) @ t=0.66
5.345058162372361
% es.Ey (V/m) @ t=0.66
1.5983559617813101
% es.Ez (V/m) @ t=0.66
-5.854794918869258
% es.tEx (V/m) @ t=0.66
5.345058162372352
% es.tEy (V/m) @ t=0.66
0
% es.tEz (V/m) @ t=0.66
-5.854794918869247
% V (V) @ t=0.66
0.0072147034102128475
% es.normE (V/m) @ t=0.68
8.500658004855847
% es.EX (V/m) @ t=0.68
5.394518808675199
% es.EY (V/m) @ t=0.68
1.6131464296756803
% es.EZ (V/m) @ t=0.68
-5.908972548088611
% es.tEX (V/m) @ t=0.68
5.3945188086751905
% es.tEY (V/m) @ t=0.68
0
% es.tEZ (V/m) @ t=0.68
-5.908972548088589
% es.Ex (V/m) @ t=0.68
5.394518808675199
% es.Ey (V/m) @ t=0.68
1.6131464296756803
% es.Ez (V/m) @ t=0.68
-5.908972548088611
% es.tEx (V/m) @ t=0.68
5.3945188086751905
% es.tEy (V/m) @ t=0.68
0
% es.tEz (V/m) @ t=0.68
-5.908972548088589
% V (V) @ t=0.68
0.007281465154163206
% es.normE (V/m) @ t=0.7
8.578597962131592
% es.EX (V/m) @ t=0.7
5.443979454978045
% es.EY (V/m) @ t=0.7
1.6279368975700406
% es.EZ (V/m) @ t=0.7
-5.963150177307959
% es.tEX (V/m) @ t=0.7
5.4439794549780425
% es.tEY (V/m) @ t=0.7
0
% es.tEZ (V/m) @ t=0.7
-5.963150177307945
% es.Ex (V/m) @ t=0.7
5.443979454978045
% es.Ey (V/m) @ t=0.7
1.6279368975700406
% es.Ez (V/m) @ t=0.7
-5.963150177307959
% es.tEx (V/m) @ t=0.7
5.4439794549780425
% es.tEy (V/m) @ t=0.7
0
% es.tEz (V/m) @ t=0.7
-5.963150177307945
% V (V) @ t=0.7
0.007348226898113564
% es.normE (V/m) @ t=0.72
8.656537919407338
% es.EX (V/m) @ t=0.72
5.493440101280897
% es.EY (V/m) @ t=0.72
1.6427273654643715
% es.EZ (V/m) @ t=0.72
-6.017327806527301
% es.tEX (V/m) @ t=0.72
5.493440101280887
% es.tEY (V/m) @ t=0.72
0
% es.tEZ (V/m) @ t=0.72
-6.017327806527289
% es.Ex (V/m) @ t=0.72
5.493440101280897
% es.Ey (V/m) @ t=0.72
1.6427273654643715
% es.Ez (V/m) @ t=0.72
-6.017327806527301
% es.tEx (V/m) @ t=0.72
5.493440101280887
% es.tEy (V/m) @ t=0.72
0
% es.tEz (V/m) @ t=0.72
-6.017327806527289
% V (V) @ t=0.72
0.0074149886420639246
% es.normE (V/m) @ t=0.74
8.734477876683057
% es.EX (V/m) @ t=0.74
5.542900747583724
% es.EY (V/m) @ t=0.74
1.6575178333587282
% es.EZ (V/m) @ t=0.74
-6.071505435746628
% es.tEX (V/m) @ t=0.74
5.542900747583715
% es.tEY (V/m) @ t=0.74
0
% es.tEZ (V/m) @ t=0.74
-6.07150543574662
% es.Ex (V/m) @ t=0.74
5.542900747583724
% es.Ey (V/m) @ t=0.74
1.6575178333587282
% es.Ez (V/m) @ t=0.74
-6.071505435746628
% es.tEx (V/m) @ t=0.74
5.542900747583715
% es.tEy (V/m) @ t=0.74
0
% es.tEz (V/m) @ t=0.74
-6.07150543574662
% V (V) @ t=0.74
0.007481750386014284
% es.normE (V/m) @ t=0.76
8.812417833958843
% es.EX (V/m) @ t=0.76
5.592361393886584
% es.EY (V/m) @ t=0.76
1.6723083012530875
% es.EZ (V/m) @ t=0.76
-6.125683064966005
% es.tEX (V/m) @ t=0.76
5.592361393886568
% es.tEY (V/m) @ t=0.76
0
% es.tEZ (V/m) @ t=0.76
-6.125683064965983
% es.Ex (V/m) @ t=0.76
5.592361393886584
% es.Ey (V/m) @ t=0.76
1.6723083012530875
% es.Ez (V/m) @ t=0.76
-6.125683064966005
% es.tEx (V/m) @ t=0.76
5.592361393886568
% es.tEy (V/m) @ t=0.76
0
% es.tEz (V/m) @ t=0.76
-6.125683064965983
% V (V) @ t=0.76
0.007548512129964642
% es.normE (V/m) @ t=0.78
8.890357791234578
% es.EX (V/m) @ t=0.78
5.641822040189423
% es.EY (V/m) @ t=0.78
1.687098769147437
% es.EZ (V/m) @ t=0.78
-6.179860694185344
% es.tEX (V/m) @ t=0.78
5.641822040189406
% es.tEY (V/m) @ t=0.78
0
% es.tEZ (V/m) @ t=0.78
-6.179860694185321
% es.Ex (V/m) @ t=0.78
5.641822040189423
% es.Ey (V/m) @ t=0.78
1.687098769147437
% es.Ez (V/m) @ t=0.78
-6.179860694185344
% es.tEx (V/m) @ t=0.78
5.641822040189406
% es.tEy (V/m) @ t=0.78
0
% es.tEz (V/m) @ t=0.78
-6.179860694185321
% V (V) @ t=0.78
0.007615273873915002
% es.normE (V/m) @ t=0.8
8.96829774851033
% es.EX (V/m) @ t=0.8
5.691282686492257
% es.EY (V/m) @ t=0.8
1.7018892370417928
% es.EZ (V/m) @ t=0.8
-6.234038323404695
% es.tEX (V/m) @ t=0.8
5.691282686492244
% es.tEY (V/m) @ t=0.8
0
% es.tEZ (V/m) @ t=0.8
-6.234038323404681
% es.Ex (V/m) @ t=0.8
5.691282686492257
% es.Ey (V/m) @ t=0.8
1.7018892370417928
% es.Ez (V/m) @ t=0.8
-6.234038323404695
% es.tEx (V/m) @ t=0.8
5.691282686492244
% es.tEy (V/m) @ t=0.8
0
% es.tEz (V/m) @ t=0.8
-6.234038323404681
% V (V) @ t=0.8
0.007682035617865361
% es.normE (V/m) @ t=0.82
9.048293978769141
% es.EX (V/m) @ t=0.82
5.742048274818261
% es.EY (V/m) @ t=0.82
1.717069909675084
% es.EZ (V/m) @ t=0.82
-6.289645282725971
% es.tEX (V/m) @ t=0.82
5.742048274818248
% es.tEY (V/m) @ t=0.82
0
% es.tEZ (V/m) @ t=0.82
-6.289645282725957
% es.Ex (V/m) @ t=0.82
5.742048274818261
% es.Ey (V/m) @ t=0.82
1.717069909675084
% es.Ez (V/m) @ t=0.82
-6.289645282725971
% es.tEx (V/m) @ t=0.82
5.742048274818248
% es.tEy (V/m) @ t=0.82
0
% es.tEz (V/m) @ t=0.82
-6.289645282725957
% V (V) @ t=0.82
0.007750558619274311
% es.normE (V/m) @ t=0.84
9.135420789212365
% es.EX (V/m) @ t=0.84
5.797339037480882
% es.EY (V/m) @ t=0.84
1.7336037033201777
% es.EZ (V/m) @ t=0.84
-6.350208759487188
% es.tEX (V/m) @ t=0.84
5.797339037480869
% es.tEY (V/m) @ t=0.84
0
% es.tEZ (V/m) @ t=0.84
-6.350208759487174
% es.Ex (V/m) @ t=0.84
5.797339037480882
% es.Ey (V/m) @ t=0.84
1.7336037033201777
% es.Ez (V/m) @ t=0.84
-6.350208759487188
% es.tEx (V/m) @ t=0.84
5.797339037480869
% es.tEy (V/m) @ t=0.84
0
% es.tEz (V/m) @ t=0.84
-6.350208759487174
% V (V) @ t=0.84
0.007825189169455897
% es.normE (V/m) @ t=0.86
9.222547599655606
% es.EX (V/m) @ t=0.86
5.852629800143529
% es.EY (V/m) @ t=0.86
1.7501374969652463
% es.EZ (V/m) @ t=0.86
-6.41077223624842
% es.tEX (V/m) @ t=0.86
5.85262980014352
% es.tEY (V/m) @ t=0.86
0
% es.tEZ (V/m) @ t=0.86
-6.410772236248398
% es.Ex (V/m) @ t=0.86
5.852629800143529
% es.Ey (V/m) @ t=0.86
1.7501374969652463
% es.Ez (V/m) @ t=0.86
-6.41077223624842
% es.tEx (V/m) @ t=0.86
5.85262980014352
% es.tEy (V/m) @ t=0.86
0
% es.tEz (V/m) @ t=0.86
-6.410772236248398
% V (V) @ t=0.86
0.007899819719637484
% es.normE (V/m) @ t=0.88
9.30967441009884
% es.EX (V/m) @ t=0.88
5.907920562806144
% es.EY (V/m) @ t=0.88
1.766671290610355
% es.EZ (V/m) @ t=0.88
-6.471335713009651
% es.tEX (V/m) @ t=0.88
5.907920562806127
% es.tEY (V/m) @ t=0.88
0
% es.tEZ (V/m) @ t=0.88
-6.471335713009637
% es.Ex (V/m) @ t=0.88
5.907920562806144
% es.Ey (V/m) @ t=0.88
1.766671290610355
% es.Ez (V/m) @ t=0.88
-6.471335713009651
% es.tEx (V/m) @ t=0.88
5.907920562806127
% es.tEy (V/m) @ t=0.88
0
% es.tEz (V/m) @ t=0.88
-6.471335713009637
% V (V) @ t=0.88
0.007974450269819067
% es.normE (V/m) @ t=0.9
9.39680122054207
% es.EX (V/m) @ t=0.9
5.963211325468782
% es.EY (V/m) @ t=0.9
1.783205084255449
% es.EZ (V/m) @ t=0.9
-6.531899189770872
% es.tEX (V/m) @ t=0.9
5.9632113254687695
% es.tEY (V/m) @ t=0.9
0
% es.tEZ (V/m) @ t=0.9
-6.531899189770858
% es.Ex (V/m) @ t=0.9
5.963211325468782
% es.Ey (V/m) @ t=0.9
1.783205084255449
% es.Ez (V/m) @ t=0.9
-6.531899189770872
% es.tEx (V/m) @ t=0.9
5.9632113254687695
% es.tEy (V/m) @ t=0.9
0
% es.tEz (V/m) @ t=0.9
-6.531899189770858
% V (V) @ t=0.9
0.008049080820000654
% es.normE (V/m) @ t=0.92
9.483928030985311
% es.EX (V/m) @ t=0.92
6.01850208813142
% es.EY (V/m) @ t=0.92
1.7997388779004968
% es.EZ (V/m) @ t=0.92
-6.5924626665321
% es.tEX (V/m) @ t=0.92
6.018502088131413
% es.tEY (V/m) @ t=0.92
0
% es.tEZ (V/m) @ t=0.92
-6.592462666532086
% es.Ex (V/m) @ t=0.92
6.01850208813142
% es.Ey (V/m) @ t=0.92
1.7997388779004968
% es.Ez (V/m) @ t=0.92
-6.5924626665321
% es.tEx (V/m) @ t=0.92
6.018502088131413
% es.tEy (V/m) @ t=0.92
0
% es.tEz (V/m) @ t=0.92
-6.592462666532086
% V (V) @ t=0.92
0.00812371137018224
% es.normE (V/m) @ t=0.94
9.57105484142852
% es.EX (V/m) @ t=0.94
6.073792850794022
% es.EY (V/m) @ t=0.94
1.8162726715456046
% es.EZ (V/m) @ t=0.94
-6.653026143293311
% es.tEX (V/m) @ t=0.94
6.073792850794005
% es.tEY (V/m) @ t=0.94
0
% es.tEZ (V/m) @ t=0.94
-6.653026143293296
% es.Ex (V/m) @ t=0.94
6.073792850794022
% es.Ey (V/m) @ t=0.94
1.8162726715456046
% es.Ez (V/m) @ t=0.94
-6.653026143293311
% es.tEx (V/m) @ t=0.94
6.073792850794005
% es.tEy (V/m) @ t=0.94
0
% es.tEz (V/m) @ t=0.94
-6.653026143293296
% V (V) @ t=0.94
0.008198341920363825
% es.normE (V/m) @ t=0.96
9.658181651871772
% es.EX (V/m) @ t=0.96
6.129083613456657
% es.EY (V/m) @ t=0.96
1.8328064651907128
% es.EZ (V/m) @ t=0.96
-6.713589620054543
% es.tEX (V/m) @ t=0.96
6.129083613456645
% es.tEY (V/m) @ t=0.96
0
% es.tEZ (V/m) @ t=0.96
-6.713589620054528
% es.Ex (V/m) @ t=0.96
6.129083613456657
% es.Ey (V/m) @ t=0.96
1.8328064651907128
% es.Ez (V/m) @ t=0.96
-6.713589620054543
% es.tEx (V/m) @ t=0.96
6.129083613456645
% es.tEy (V/m) @ t=0.96
0
% es.tEz (V/m) @ t=0.96
-6.713589620054528
% V (V) @ t=0.96
0.008272972470545412
% es.normE (V/m) @ t=0.98
9.74530846231502
% es.EX (V/m) @ t=0.98
6.184374376119306
% es.EY (V/m) @ t=0.98
1.8493402588358032
% es.EZ (V/m) @ t=0.98
-6.7741530968157715
% es.tEX (V/m) @ t=0.98
6.184374376119299
% es.tEY (V/m) @ t=0.98
0
% es.tEZ (V/m) @ t=0.98
-6.774153096815756
% es.Ex (V/m) @ t=0.98
6.184374376119306
% es.Ey (V/m) @ t=0.98
1.8493402588358032
% es.Ez (V/m) @ t=0.98
-6.7741530968157715
% es.tEx (V/m) @ t=0.98
6.184374376119299
% es.tEy (V/m) @ t=0.98
0
% es.tEz (V/m) @ t=0.98
-6.774153096815756
% V (V) @ t=0.98
0.008347603020726997
% es.normE (V/m) @ t=1
9.832435272758254
% es.EX (V/m) @ t=1
6.2396651387819215
% es.EY (V/m) @ t=1
1.8658740524809074
% es.EZ (V/m) @ t=1
-6.834716573577007
% es.tEX (V/m) @ t=1
6.239665138781903
% es.tEY (V/m) @ t=1
0
% es.tEZ (V/m) @ t=1
-6.8347165735769915
% es.Ex (V/m) @ t=1
6.2396651387819215
% es.Ey (V/m) @ t=1
1.8658740524809074
% es.Ez (V/m) @ t=1
-6.834716573577007
% es.tEx (V/m) @ t=1
6.239665138781903
% es.tEy (V/m) @ t=1
0
% es.tEz (V/m) @ t=1
-6.8347165735769915
% V (V) @ t=1
0.008422233570908584
% es.normE (V/m) @ t=1.02
9.919562083201491
% es.EX (V/m) @ t=1.02
6.294955901444557
% es.EY (V/m) @ t=1.02
1.8824078461259623
% es.EZ (V/m) @ t=1.02
-6.895280050338213
% es.tEX (V/m) @ t=1.02
6.294955901444549
% es.tEY (V/m) @ t=1.02
0
% es.tEZ (V/m) @ t=1.02
-6.895280050338199
% es.Ex (V/m) @ t=1.02
6.294955901444557
% es.Ey (V/m) @ t=1.02
1.8824078461259623
% es.Ez (V/m) @ t=1.02
-6.895280050338213
% es.tEx (V/m) @ t=1.02
6.294955901444549
% es.tEy (V/m) @ t=1.02
0
% es.tEz (V/m) @ t=1.02
-6.895280050338199
% V (V) @ t=1.02
0.008496864121090169
% es.normE (V/m) @ t=1.04
10.006688893644728
% es.EX (V/m) @ t=1.04
6.350246664107178
% es.EY (V/m) @ t=1.04
1.8989416397710777
% es.EZ (V/m) @ t=1.04
-6.955843527099448
% es.tEX (V/m) @ t=1.04
6.350246664107168
% es.tEY (V/m) @ t=1.04
0
% es.tEZ (V/m) @ t=1.04
-6.955843527099434
% es.Ex (V/m) @ t=1.04
6.350246664107178
% es.Ey (V/m) @ t=1.04
1.8989416397710777
% es.Ez (V/m) @ t=1.04
-6.955843527099448
% es.tEx (V/m) @ t=1.04
6.350246664107168
% es.tEy (V/m) @ t=1.04
0
% es.tEz (V/m) @ t=1.04
-6.955843527099434
% V (V) @ t=1.04
0.008571494671271756
% es.normE (V/m) @ t=1.06
10.093815704087966
% es.EX (V/m) @ t=1.06
6.405537426769808
% es.EY (V/m) @ t=1.06