% Model:              1 neuron.mph
% Version:            COMSOL 6.0.0.405
% Date:               Mar 16 2023, 10:19
% Dimension:          0
% Nodes:              14017
% Expressions:        14017
% Description:        Electric field norm, Electric field, X component, Electric field, Y component, Electric field, Z component, Tangential electric field, X component, Tangential electric field, Y component, Tangential electric field, Z component, Electric field, x component, Electric field, y component, Electric field, z component, Tangential electric field, x component, Tangential electric field, y component, Tangential electric field, z component, Electric potential
% Length unit:        mm
% x
1.33
% y
12.2
% z
1
% es.normE (V/m) @ t=0
1.5611907737121893
% es.EX (V/m) @ t=0
0.4818824319969327
% es.EY (V/m) @ t=0
0.11674238248104518
% es.EZ (V/m) @ t=0
1.4803531669269248
% es.tEX (V/m) @ t=0
0.4818824319969366
% es.tEY (V/m) @ t=0
0
% es.tEZ (V/m) @ t=0
1.4803531669269336
% es.Ex (V/m) @ t=0
0.4818824319969327
% es.Ey (V/m) @ t=0
0.11674238248104518
% es.Ez (V/m) @ t=0
1.4803531669269248
% es.tEx (V/m) @ t=0
0.4818824319969366
% es.tEy (V/m) @ t=0
0
% es.tEz (V/m) @ t=0
1.4803531669269336
% V (V) @ t=0
0.007301733670459546
% es.normE (V/m) @ t=0.02
1.3484309628346827
% es.EX (V/m) @ t=0.02
0.4162112656254129
% es.EY (V/m) @ t=0.02
0.10083267334611268
% es.EZ (V/m) @ t=0.02
1.2786099440244636
% es.tEX (V/m) @ t=0.02
0.4162112656254138
% es.tEY (V/m) @ t=0.02
0
% es.tEZ (V/m) @ t=0.02
1.2786099440244616
% es.Ex (V/m) @ t=0.02
0.4162112656254129
% es.Ey (V/m) @ t=0.02
0.10083267334611268
% es.Ez (V/m) @ t=0.02
1.2786099440244636
% es.tEx (V/m) @ t=0.02
0.4162112656254138
% es.tEy (V/m) @ t=0.02
0
% es.tEz (V/m) @ t=0.02
1.2786099440244616
% V (V) @ t=0.02
0.006306649832136714
% es.normE (V/m) @ t=0.04
1.3608344128204246
% es.EX (V/m) @ t=0.04
0.42003974243071307
% es.EY (V/m) @ t=0.04
0.10176016188942727
% es.EZ (V/m) @ t=0.04
1.290371155754528
% es.tEX (V/m) @ t=0.04
0.42003974243071696
% es.tEY (V/m) @ t=0.04
0
% es.tEZ (V/m) @ t=0.04
1.2903711557545234
% es.Ex (V/m) @ t=0.04
0.42003974243071307
% es.Ey (V/m) @ t=0.04
0.10176016188942727
% es.Ez (V/m) @ t=0.04
1.290371155754528
% es.tEx (V/m) @ t=0.04
0.42003974243071696
% es.tEy (V/m) @ t=0.04
0
% es.tEz (V/m) @ t=0.04
1.2903711557545234
% V (V) @ t=0.04
0.0063646602879395995
% es.normE (V/m) @ t=0.06
1.3733506560456181
% es.EX (V/m) @ t=0.06
0.4239030412562531
% es.EY (V/m) @ t=0.06
0.10269609162405491
% es.EZ (V/m) @ t=0.06
1.3022393176095934
% es.tEX (V/m) @ t=0.06
0.4239030412562528
% es.tEY (V/m) @ t=0.06
0
% es.tEZ (V/m) @ t=0.06
1.302239317609592
% es.Ex (V/m) @ t=0.06
0.4239030412562531
% es.Ey (V/m) @ t=0.06
0.10269609162405491
% es.Ez (V/m) @ t=0.06
1.3022393176095934
% es.tEx (V/m) @ t=0.06
0.4239030412562528
% es.tEy (V/m) @ t=0.06
0
% es.tEz (V/m) @ t=0.06
1.302239317609592
% V (V) @ t=0.06
0.006423198682605047
% es.normE (V/m) @ t=0.08
1.3860557625950416
% es.EX (V/m) @ t=0.08
0.4278246310686853
% es.EY (V/m) @ t=0.08
0.10364614005568229
% es.EZ (V/m) @ t=0.08
1.31428656522213
% es.tEX (V/m) @ t=0.08
0.4278246310686882
% es.tEY (V/m) @ t=0.08
0
% es.tEZ (V/m) @ t=0.08
1.3142865652221252
% es.Ex (V/m) @ t=0.08
0.4278246310686853
% es.Ey (V/m) @ t=0.08
0.10364614005568229
% es.Ez (V/m) @ t=0.08
1.31428656522213
% es.tEx (V/m) @ t=0.08
0.4278246310686882
% es.tEy (V/m) @ t=0.08
0
% es.tEz (V/m) @ t=0.08
1.3142865652221252
% V (V) @ t=0.08
0.006482620157300592
% es.normE (V/m) @ t=0.1
1.3988965632539658
% es.EX (V/m) @ t=0.1
0.4317881016623253
% es.EY (V/m) @ t=0.1
0.1046063324579447
% es.EZ (V/m) @ t=0.1
1.3264624819793123
% es.tEX (V/m) @ t=0.1
0.43178810166232395
% es.tEY (V/m) @ t=0.1
0
% es.tEZ (V/m) @ t=0.1
1.3264624819793145
% es.Ex (V/m) @ t=0.1
0.4317881016623253
% es.Ey (V/m) @ t=0.1
0.1046063324579447
% es.Ez (V/m) @ t=0.1
1.3264624819793123
% es.tEx (V/m) @ t=0.1
0.43178810166232395
% es.tEy (V/m) @ t=0.1
0
% es.tEz (V/m) @ t=0.1
1.3264624819793145
% V (V) @ t=0.1
0.006542676105411151
% es.normE (V/m) @ t=0.12
1.4117373639128799
% es.EX (V/m) @ t=0.12
0.4357515722559585
% es.EY (V/m) @ t=0.12
0.10556652486022144
% es.EZ (V/m) @ t=0.12
1.3386383987364847
% es.tEX (V/m) @ t=0.12
0.4357515722559562
% es.tEY (V/m) @ t=0.12
0
% es.tEZ (V/m) @ t=0.12
1.3386383987364905
% es.Ex (V/m) @ t=0.12
0.4357515722559585
% es.Ey (V/m) @ t=0.12
0.10556652486022144
% es.Ez (V/m) @ t=0.12
1.3386383987364847
% es.tEx (V/m) @ t=0.12
0.4357515722559562
% es.tEy (V/m) @ t=0.12
0
% es.tEz (V/m) @ t=0.12
1.3386383987364905
% V (V) @ t=0.12
0.006602732053521711
% es.normE (V/m) @ t=0.14
1.4246975269494664
% es.EX (V/m) @ t=0.14
0.439751882274678
% es.EY (V/m) @ t=0.14
0.10653563958155066
% es.EZ (V/m) @ t=0.14
1.3509274986980153
% es.tEX (V/m) @ t=0.14
0.4397518822746811
% es.tEY (V/m) @ t=0.14
0
% es.tEZ (V/m) @ t=0.14
1.350927498698022
% es.Ex (V/m) @ t=0.14
0.439751882274678
% es.Ey (V/m) @ t=0.14
0.10653563958155066
% es.Ez (V/m) @ t=0.14
1.3509274986980153
% es.tEx (V/m) @ t=0.14
0.4397518822746811
% es.tEy (V/m) @ t=0.14
0
% es.tEz (V/m) @ t=0.14
1.350927498698022
% V (V) @ t=0.14
0.006663346063491518
% es.normE (V/m) @ t=0.16
1.438225086555172
% es.EX (V/m) @ t=0.16
0.4439273108174622
% es.EY (V/m) @ t=0.16
0.10754716710779832
% es.EZ (V/m) @ t=0.16
1.3637546221396764
% es.tEX (V/m) @ t=0.16
0.4439273108174646
% es.tEY (V/m) @ t=0.16
0
% es.tEZ (V/m) @ t=0.16
1.3637546221396786
% es.Ex (V/m) @ t=0.16
0.4439273108174622
% es.Ey (V/m) @ t=0.16
0.10754716710779832
% es.Ez (V/m) @ t=0.16
1.3637546221396764
% es.tEx (V/m) @ t=0.16
0.4439273108174646
% es.tEy (V/m) @ t=0.16
0
% es.tEz (V/m) @ t=0.16
1.3637546221396786
% V (V) @ t=0.16
0.006726612855606083
% es.normE (V/m) @ t=0.18
1.4517526461608767
% es.EX (V/m) @ t=0.18
0.4481027393602419
% es.EY (V/m) @ t=0.18
0.10855869463404944
% es.EZ (V/m) @ t=0.18
1.3765817455813347
% es.tEX (V/m) @ t=0.18
0.44810273936024103
% es.tEY (V/m) @ t=0.18
0
% es.tEZ (V/m) @ t=0.18
1.3765817455813423
% es.Ex (V/m) @ t=0.18
0.4481027393602419
% es.Ey (V/m) @ t=0.18
0.10855869463404944
% es.Ez (V/m) @ t=0.18
1.3765817455813347
% es.tEx (V/m) @ t=0.18
0.44810273936024103
% es.tEy (V/m) @ t=0.18
0
% es.tEz (V/m) @ t=0.18
1.3765817455813423
% V (V) @ t=0.18
0.006789879647720649
% es.normE (V/m) @ t=0.2
1.4652802057665855
% es.EX (V/m) @ t=0.2
0.4522781679030162
% es.EY (V/m) @ t=0.2
0.10957022216030377
% es.EZ (V/m) @ t=0.2
1.3894088690229962
% es.tEX (V/m) @ t=0.2
0.45227816790301745
% es.tEY (V/m) @ t=0.2
0
% es.tEZ (V/m) @ t=0.2
1.389408869022997
% es.Ex (V/m) @ t=0.2
0.4522781679030162
% es.Ey (V/m) @ t=0.2
0.10957022216030377
% es.Ez (V/m) @ t=0.2
1.3894088690229962
% es.tEx (V/m) @ t=0.2
0.45227816790301745
% es.tEy (V/m) @ t=0.2
0
% es.tEz (V/m) @ t=0.2
1.389408869022997
% V (V) @ t=0.2
0.006853146439835215
% es.normE (V/m) @ t=0.22
1.4788077653722937
% es.EX (V/m) @ t=0.22
0.4564535964458043
% es.EY (V/m) @ t=0.22
0.11058174968655154
% es.EZ (V/m) @ t=0.22
1.4022359924646506
% es.tEX (V/m) @ t=0.22
0.4564535964458045
% es.tEY (V/m) @ t=0.22
0
% es.tEZ (V/m) @ t=0.22
1.4022359924646537
% es.Ex (V/m) @ t=0.22
0.4564535964458043
% es.Ey (V/m) @ t=0.22
0.11058174968655154
% es.Ez (V/m) @ t=0.22
1.4022359924646506
% es.tEx (V/m) @ t=0.22
0.4564535964458045
% es.tEy (V/m) @ t=0.22
0
% es.tEz (V/m) @ t=0.22
1.4022359924646537
% V (V) @ t=0.22
0.00691641323194978
% es.normE (V/m) @ t=0.24
1.4923353249779994
% es.EX (V/m) @ t=0.24
0.46062902498857683
% es.EY (V/m) @ t=0.24
0.11159327721280277
% es.EZ (V/m) @ t=0.24
1.4150631159063045
% es.tEX (V/m) @ t=0.24
0.4606290249885774
% es.tEY (V/m) @ t=0.24
0
% es.tEZ (V/m) @ t=0.24
1.4150631159063032
% es.Ex (V/m) @ t=0.24
0.46062902498857683
% es.Ey (V/m) @ t=0.24
0.11159327721280277
% es.Ez (V/m) @ t=0.24
1.4150631159063045
% es.tEx (V/m) @ t=0.24
0.4606290249885774
% es.tEy (V/m) @ t=0.24
0
% es.tEz (V/m) @ t=0.24
1.4150631159063032
% V (V) @ t=0.24
0.006979680024064347
% es.normE (V/m) @ t=0.26
1.5058628845837205
% es.EX (V/m) @ t=0.26
0.46480445353136
% es.EY (V/m) @ t=0.26
0.11260480473905032
% es.EZ (V/m) @ t=0.26
1.4278902393479695
% es.tEX (V/m) @ t=0.26
0.46480445353135735
% es.tEY (V/m) @ t=0.26
0
% es.tEZ (V/m) @ t=0.26
1.427890239347974
% es.Ex (V/m) @ t=0.26
0.46480445353136
% es.Ey (V/m) @ t=0.26
0.11260480473905032
% es.Ez (V/m) @ t=0.26
1.4278902393479695
% es.tEx (V/m) @ t=0.26
0.46480445353135735
% es.tEy (V/m) @ t=0.26
0
% es.tEz (V/m) @ t=0.26
1.427890239347974
% V (V) @ t=0.26
0.007042946816178913
% es.normE (V/m) @ t=0.28
1.5199423385999458
% es.EX (V/m) @ t=0.28
0.469150131461637
% es.EY (V/m) @ t=0.28
0.113657503021106
% es.EZ (V/m) @ t=0.28
1.441240720375358
% es.tEX (V/m) @ t=0.28
0.46915013146163886
% es.tEY (V/m) @ t=0.28
0
% es.tEZ (V/m) @ t=0.28
1.4412407203753599
% es.Ex (V/m) @ t=0.28
0.469150131461637
% es.Ey (V/m) @ t=0.28
0.113657503021106
% es.Ez (V/m) @ t=0.28
1.441240720375358
% es.tEx (V/m) @ t=0.28
0.46915013146163886
% es.tEy (V/m) @ t=0.28
0
% es.tEz (V/m) @ t=0.28
1.4412407203753599
% V (V) @ t=0.28
0.00710878896537535
% es.normE (V/m) @ t=0.3
1.5350132470403537
% es.EX (V/m) @ t=0.3
0.47380165504862926
% es.EY (V/m) @ t=0.3
0.1147841627842594
% es.EZ (V/m) @ t=0.3
1.4555313906560596
% es.tEX (V/m) @ t=0.3
0.47380165504863214
% es.tEY (V/m) @ t=0.3
0
% es.tEZ (V/m) @ t=0.3
1.4555313906560627
% es.Ex (V/m) @ t=0.3
0.47380165504862926
% es.Ey (V/m) @ t=0.3
0.1147841627842594
% es.Ez (V/m) @ t=0.3
1.4555313906560596
% es.tEx (V/m) @ t=0.3
0.47380165504863214
% es.tEy (V/m) @ t=0.3
0
% es.tEz (V/m) @ t=0.3
1.4555313906560627
% V (V) @ t=0.3
0.007179257632114925
% es.normE (V/m) @ t=0.32
1.5500841554809677
% es.EX (V/m) @ t=0.32
0.4784531786356192
% es.EY (V/m) @ t=0.32
0.11591082254735718
% es.EZ (V/m) @ t=0.32
1.4698220609367607
% es.tEX (V/m) @ t=0.32
0.4784531786356254
% es.tEY (V/m) @ t=0.32
0
% es.tEZ (V/m) @ t=0.32
1.4698220609367603
% es.Ex (V/m) @ t=0.32
0.4784531786356192
% es.Ey (V/m) @ t=0.32
0.11591082254735718
% es.Ez (V/m) @ t=0.32
1.4698220609367607
% es.tEx (V/m) @ t=0.32
0.4784531786356254
% es.tEy (V/m) @ t=0.32
0
% es.tEz (V/m) @ t=0.32
1.4698220609367603
% V (V) @ t=0.32
0.007249726298854499
% es.normE (V/m) @ t=0.34
1.5651550639217766
% es.EX (V/m) @ t=0.34
0.48310470222260726
% es.EY (V/m) @ t=0.34
0.11703748231050737
% es.EZ (V/m) @ t=0.34
1.4841127312174485
% es.tEX (V/m) @ t=0.34
0.4831047022226116
% es.tEY (V/m) @ t=0.34
0
% es.tEZ (V/m) @ t=0.34
1.4841127312174507
% es.Ex (V/m) @ t=0.34
0.48310470222260726
% es.Ey (V/m) @ t=0.34
0.11703748231050737
% es.Ez (V/m) @ t=0.34
1.4841127312174485
% es.tEx (V/m) @ t=0.34
0.4831047022226116
% es.tEy (V/m) @ t=0.34
0
% es.tEz (V/m) @ t=0.34
1.4841127312174507
% V (V) @ t=0.34
0.0073201949655940755
% es.normE (V/m) @ t=0.36
1.5802259723628
% es.EX (V/m) @ t=0.36
0.48775622580960054
% es.EY (V/m) @ t=0.36
0.11816414207363124
% es.EZ (V/m) @ t=0.36
1.4984034014981527
% es.tEX (V/m) @ t=0.36
0.48775622580960487
% es.tEY (V/m) @ t=0.36
0
% es.tEZ (V/m) @ t=0.36
1.4984034014981553
% es.Ex (V/m) @ t=0.36
0.48775622580960054
% es.Ey (V/m) @ t=0.36
0.11816414207363124
% es.Ez (V/m) @ t=0.36
1.4984034014981527
% es.tEx (V/m) @ t=0.36
0.48775622580960487
% es.tEy (V/m) @ t=0.36
0
% es.tEz (V/m) @ t=0.36
1.4984034014981553
% V (V) @ t=0.36
0.007390663632333649
% es.normE (V/m) @ t=0.38
1.595296880803998
% es.EX (V/m) @ t=0.38
0.49240774939658594
% es.EY (V/m) @ t=0.38
0.11929080183675189
% es.EZ (V/m) @ t=0.38
1.5126940717788395
% es.tEX (V/m) @ t=0.38
0.49240774939659104
% es.tEY (V/m) @ t=0.38
0
% es.tEZ (V/m) @ t=0.38
1.5126940717788369
% es.Ex (V/m) @ t=0.38
0.49240774939658594
% es.Ey (V/m) @ t=0.38
0.11929080183675189
% es.Ez (V/m) @ t=0.38
1.5126940717788395
% es.tEx (V/m) @ t=0.38
0.49240774939659104
% es.tEy (V/m) @ t=0.38
0
% es.tEz (V/m) @ t=0.38
1.5126940717788369
% V (V) @ t=0.38
0.007461132299073225
% es.normE (V/m) @ t=0.4
1.61036778924539
% es.EX (V/m) @ t=0.4
0.4970592729835689
% es.EY (V/m) @ t=0.4
0.12041746159988453
% es.EZ (V/m) @ t=0.4
1.526984742059533
% es.tEX (V/m) @ t=0.4
0.4970592729835701
% es.tEY (V/m) @ t=0.4
0
% es.tEZ (V/m) @ t=0.4
1.5269847420595344
% es.Ex (V/m) @ t=0.4
0.4970592729835689
% es.Ey (V/m) @ t=0.4
0.12041746159988453
% es.Ez (V/m) @ t=0.4
1.526984742059533
% es.tEx (V/m) @ t=0.4
0.4970592729835701
% es.tEy (V/m) @ t=0.4
0
% es.tEz (V/m) @ t=0.4
1.5269847420595344
% V (V) @ t=0.4
0.007531600965812798
% es.normE (V/m) @ t=0.42
1.6254386976869668
% es.EX (V/m) @ t=0.42
0.5017107965705627
% es.EY (V/m) @ t=0.42
0.12154412136301174
% es.EZ (V/m) @ t=0.42
1.5412754123402252
% es.tEX (V/m) @ t=0.42
0.5017107965705563
% es.tEY (V/m) @ t=0.42
0
% es.tEZ (V/m) @ t=0.42
1.541275412340232
% es.Ex (V/m) @ t=0.42
0.5017107965705627
% es.Ey (V/m) @ t=0.42
0.12154412136301174
% es.Ez (V/m) @ t=0.42
1.5412754123402252
% es.tEx (V/m) @ t=0.42
0.5017107965705563
% es.tEy (V/m) @ t=0.42
0
% es.tEz (V/m) @ t=0.42
1.541275412340232
% V (V) @ t=0.42
0.0076020696325523746
% es.normE (V/m) @ t=0.44
1.6405096061287288
% es.EX (V/m) @ t=0.44
0.5063623201575477
% es.EY (V/m) @ t=0.44
0.12267078112613905
% es.EZ (V/m) @ t=0.44
1.5555660826209285
% es.tEX (V/m) @ t=0.44
0.5063623201575567
% es.tEY (V/m) @ t=0.44
0
% es.tEZ (V/m) @ t=0.44
1.5555660826209277
% es.Ex (V/m) @ t=0.44
0.5063623201575477
% es.Ey (V/m) @ t=0.44
0.12267078112613905
% es.Ez (V/m) @ t=0.44
1.5555660826209285
% es.tEx (V/m) @ t=0.44
0.5063623201575567
% es.tEy (V/m) @ t=0.44
0
% es.tEz (V/m) @ t=0.44
1.5555660826209277
% V (V) @ t=0.44
0.0076725382992919484
% es.normE (V/m) @ t=0.46
1.6555805145706475
% es.EX (V/m) @ t=0.46
0.511013843744541
% es.EY (V/m) @ t=0.46
0.12379744088926503
% es.EZ (V/m) @ t=0.46
1.5698567529016119
% es.tEX (V/m) @ t=0.46
0.5110138437445428
% es.tEY (V/m) @ t=0.46
0
% es.tEZ (V/m) @ t=0.46
1.569856752901611
% es.Ex (V/m) @ t=0.46
0.511013843744541
% es.Ey (V/m) @ t=0.46
0.12379744088926503
% es.Ez (V/m) @ t=0.46
1.5698567529016119
% es.tEx (V/m) @ t=0.46
0.5110138437445428
% es.tEy (V/m) @ t=0.46
0
% es.tEz (V/m) @ t=0.46
1.569856752901611
% V (V) @ t=0.46
0.007743006966031522
% es.normE (V/m) @ t=0.48
1.6706514230127492
% es.EX (V/m) @ t=0.48
0.5156653673315226
% es.EY (V/m) @ t=0.48
0.12492410065240822
% es.EZ (V/m) @ t=0.48
1.5841474231823138
% es.tEX (V/m) @ t=0.48
0.515665367331529
% es.tEY (V/m) @ t=0.48
0
% es.tEZ (V/m) @ t=0.48
1.5841474231823156
% es.Ex (V/m) @ t=0.48
0.5156653673315226
% es.Ey (V/m) @ t=0.48
0.12492410065240822
% es.Ez (V/m) @ t=0.48
1.5841474231823138
% es.tEx (V/m) @ t=0.48
0.515665367331529
% es.tEy (V/m) @ t=0.48
0
% es.tEz (V/m) @ t=0.48
1.5841474231823156
% V (V) @ t=0.48
0.007813475632771098
% es.normE (V/m) @ t=0.5
1.6857223314550238
% es.EX (V/m) @ t=0.5
0.520316890918525
% es.EY (V/m) @ t=0.5
0.12605076041555152
% es.EZ (V/m) @ t=0.5
1.5984380934630185
% es.tEX (V/m) @ t=0.5
0.5203168909185223
% es.tEY (V/m) @ t=0.5
0
% es.tEZ (V/m) @ t=0.5
1.598438093463015
% es.Ex (V/m) @ t=0.5
0.520316890918525
% es.Ey (V/m) @ t=0.5
0.12605076041555152
% es.Ez (V/m) @ t=0.5
1.5984380934630185
% es.tEx (V/m) @ t=0.5
0.5203168909185223
% es.tEy (V/m) @ t=0.5
0
% es.tEz (V/m) @ t=0.5
1.598438093463015
% V (V) @ t=0.5
0.007883944299510674
% es.normE (V/m) @ t=0.52
1.7007932398974228
% es.EX (V/m) @ t=0.52
0.5249684145055082
% es.EY (V/m) @ t=0.52
0.12717742017866673
% es.EZ (V/m) @ t=0.52
1.6127287637436947
% es.tEX (V/m) @ t=0.52
0.5249684145055156
% es.tEY (V/m) @ t=0.52
0
% es.tEZ (V/m) @ t=0.52
1.6127287637437053
% es.Ex (V/m) @ t=0.52
0.5249684145055082
% es.Ey (V/m) @ t=0.52
0.12717742017866673
% es.Ez (V/m) @ t=0.52
1.6127287637436947
% es.tEx (V/m) @ t=0.52
0.5249684145055156
% es.tEy (V/m) @ t=0.52
0
% es.tEz (V/m) @ t=0.52
1.6127287637437053
% V (V) @ t=0.52
0.007954412966250247
% es.normE (V/m) @ t=0.54
1.7158641483400143
% es.EX (V/m) @ t=0.54
0.5296199380925072
% es.EY (V/m) @ t=0.54
0.12830407994181137
% es.EZ (V/m) @ t=0.54
1.6270194340244033
% es.tEX (V/m) @ t=0.54
0.5296199380925088
% es.tEY (V/m) @ t=0.54
0
% es.tEZ (V/m) @ t=0.54
1.6270194340244082
% es.Ex (V/m) @ t=0.54
0.5296199380925072
% es.Ey (V/m) @ t=0.54
0.12830407994181137
% es.Ez (V/m) @ t=0.54
1.6270194340244033
% es.tEx (V/m) @ t=0.54
0.5296199380925088
% es.tEy (V/m) @ t=0.54
0
% es.tEz (V/m) @ t=0.54
1.6270194340244082
% V (V) @ t=0.54
0.008024881632989821
% es.normE (V/m) @ t=0.56
1.7322080807151914
% es.EX (V/m) @ t=0.56
0.5346646154367954
% es.EY (V/m) @ t=0.56
0.12952614821141206
% es.EZ (V/m) @ t=0.56
1.6425171248552837
% es.tEX (V/m) @ t=0.56
0.534664615436796
% es.tEY (V/m) @ t=0.56
0
% es.tEZ (V/m) @ t=0.56
1.642517124855292
% es.Ex (V/m) @ t=0.56
0.5346646154367954
% es.Ey (V/m) @ t=0.56
0.12952614821141206
% es.Ez (V/m) @ t=0.56
1.6425171248552837
% es.tEx (V/m) @ t=0.56
0.534664615436796
% es.tEy (V/m) @ t=0.56
0
% es.tEz (V/m) @ t=0.56
1.642517124855292
% V (V) @ t=0.56
0.008101317034589255
% es.normE (V/m) @ t=0.58
1.749034459439025
% es.EX (V/m) @ t=0.58
0.5398582888760203
% es.EY (V/m) @ t=0.58
0.13078437407744048
% es.EZ (V/m) @ t=0.58
1.6584722482939154
% es.tEX (V/m) @ t=0.58
0.5398582888760188
% es.tEY (V/m) @ t=0.58
0
% es.tEZ (V/m) @ t=0.58
1.658472248293915
% es.Ex (V/m) @ t=0.58
0.5398582888760203
% es.Ey (V/m) @ t=0.58
0.13078437407744048
% es.Ez (V/m) @ t=0.58
1.6584722482939154
% es.tEx (V/m) @ t=0.58
0.5398582888760188
% es.tEy (V/m) @ t=0.58
0
% es.tEz (V/m) @ t=0.58
1.658472248293915
% V (V) @ t=0.58
0.008180013689392892
% es.normE (V/m) @ t=0.6
1.76586083816286
% es.EX (V/m) @ t=0.6
0.5450519623152362
% es.EY (V/m) @ t=0.6
0.1320425999434618
% es.EZ (V/m) @ t=0.6
1.6744273717325502
% es.tEX (V/m) @ t=0.6
0.5450519623152346
% es.tEY (V/m) @ t=0.6
0
% es.tEZ (V/m) @ t=0.6
1.674427371732559
% es.Ex (V/m) @ t=0.6
0.5450519623152362
% es.Ey (V/m) @ t=0.6
0.1320425999434618
% es.Ez (V/m) @ t=0.6
1.6744273717325502
% es.tEx (V/m) @ t=0.6
0.5450519623152346
% es.tEy (V/m) @ t=0.6
0
% es.tEz (V/m) @ t=0.6
1.674427371732559
% V (V) @ t=0.6
0.00825871034419653
% es.normE (V/m) @ t=0.62
1.7826872168866827
% es.EX (V/m) @ t=0.62
0.5502456357544325
% es.EY (V/m) @ t=0.62
0.1333008258095022
% es.EZ (V/m) @ t=0.62
1.6903824951711748
% es.tEX (V/m) @ t=0.62
0.5502456357544361
% es.tEY (V/m) @ t=0.62
0
% es.tEZ (V/m) @ t=0.62
1.69038249517118
% es.Ex (V/m) @ t=0.62
0.5502456357544325
% es.Ey (V/m) @ t=0.62
0.1333008258095022
% es.Ez (V/m) @ t=0.62
1.6903824951711748
% es.tEx (V/m) @ t=0.62
0.5502456357544361
% es.tEy (V/m) @ t=0.62
0
% es.tEz (V/m) @ t=0.62
1.69038249517118
% V (V) @ t=0.62
0.008337406999000166
% es.normE (V/m) @ t=0.64
1.7995135956105264
% es.EX (V/m) @ t=0.64
0.5554393091936581
% es.EY (V/m) @ t=0.64
0.13455905167554283
% es.EZ (V/m) @ t=0.64
1.70633761860981
% es.tEX (V/m) @ t=0.64
0.5554393091936589
% es.tEY (V/m) @ t=0.64
0
% es.tEZ (V/m) @ t=0.64
1.70633761860981
% es.Ex (V/m) @ t=0.64
0.5554393091936581
% es.Ey (V/m) @ t=0.64
0.13455905167554283
% es.Ez (V/m) @ t=0.64
1.70633761860981
% es.tEx (V/m) @ t=0.64
0.5554393091936589
% es.tEy (V/m) @ t=0.64
0
% es.tEz (V/m) @ t=0.64
1.70633761860981
% V (V) @ t=0.64
0.008416103653803804
% es.normE (V/m) @ t=0.66
1.8163399743343684
% es.EX (V/m) @ t=0.66
0.5606329826328688
% es.EY (V/m) @ t=0.66
0.1358172775415588
% es.EZ (V/m) @ t=0.66
1.7222927420484488
% es.tEX (V/m) @ t=0.66
0.5606329826328675
% es.tEY (V/m) @ t=0.66
0
% es.tEZ (V/m) @ t=0.66
1.7222927420484524
% es.Ex (V/m) @ t=0.66
0.5606329826328688
% es.Ey (V/m) @ t=0.66
0.1358172775415588
% es.Ez (V/m) @ t=0.66
1.7222927420484488
% es.tEx (V/m) @ t=0.66
0.5606329826328675
% es.tEy (V/m) @ t=0.66
0
% es.tEz (V/m) @ t=0.66
1.7222927420484524
% V (V) @ t=0.66
0.00849480030860744
% es.normE (V/m) @ t=0.68
1.8331663530581888
% es.EX (V/m) @ t=0.68
0.5658266560720814
% es.EY (V/m) @ t=0.68
0.13707550340758146
% es.EZ (V/m) @ t=0.68
1.738247865487062
% es.tEX (V/m) @ t=0.68
0.5658266560720833
% es.tEY (V/m) @ t=0.68
0
% es.tEZ (V/m) @ t=0.68
1.7382478654870752
% es.Ex (V/m) @ t=0.68
0.5658266560720814
% es.Ey (V/m) @ t=0.68
0.13707550340758146
% es.Ez (V/m) @ t=0.68
1.738247865487062
% es.tEx (V/m) @ t=0.68
0.5658266560720833
% es.tEy (V/m) @ t=0.68
0
% es.tEz (V/m) @ t=0.68
1.7382478654870752
% V (V) @ t=0.68
0.008573496963411077
% es.normE (V/m) @ t=0.7
1.8499927317820353
% es.EX (V/m) @ t=0.7
0.5710203295112959
% es.EY (V/m) @ t=0.7
0.13833372927360676
% es.EZ (V/m) @ t=0.7
1.7542029889256998
% es.tEX (V/m) @ t=0.7
0.5710203295112919
% es.tEY (V/m) @ t=0.7
0
% es.tEZ (V/m) @ t=0.7
1.7542029889257122
% es.Ex (V/m) @ t=0.7
0.5710203295112959
% es.Ey (V/m) @ t=0.7
0.13833372927360676
% es.Ez (V/m) @ t=0.7
1.7542029889256998
% es.tEx (V/m) @ t=0.7
0.5710203295112919
% es.tEy (V/m) @ t=0.7
0
% es.tEz (V/m) @ t=0.7
1.7542029889257122
% V (V) @ t=0.7
0.008652193618214715
% es.normE (V/m) @ t=0.72
1.8668191105058873
% es.EX (V/m) @ t=0.72
0.576214002950512
% es.EY (V/m) @ t=0.72
0.13959195513966138
% es.EZ (V/m) @ t=0.72
1.770158112364339
% es.tEX (V/m) @ t=0.72
0.5762140029505147
% es.tEY (V/m) @ t=0.72
0
% es.tEZ (V/m) @ t=0.72
1.7701581123643404
% es.Ex (V/m) @ t=0.72
0.576214002950512
% es.Ey (V/m) @ t=0.72
0.13959195513966138
% es.Ez (V/m) @ t=0.72
1.770158112364339
% es.tEx (V/m) @ t=0.72
0.5762140029505147
% es.tEy (V/m) @ t=0.72
0
% es.tEz (V/m) @ t=0.72
1.7701581123643404
% V (V) @ t=0.72
0.00873089027301835
% es.normE (V/m) @ t=0.74
1.8836454892297234
% es.EX (V/m) @ t=0.74
0.581407676389724
% es.EY (V/m) @ t=0.74
0.14085018100569113
% es.EZ (V/m) @ t=0.74
1.7861132358029632
% es.tEX (V/m) @ t=0.74
0.5814076763897305
% es.tEY (V/m) @ t=0.74
0
% es.tEZ (V/m) @ t=0.74
1.7861132358029632
% es.Ex (V/m) @ t=0.74
0.581407676389724
% es.Ey (V/m) @ t=0.74
0.14085018100569113
% es.Ez (V/m) @ t=0.74
1.7861132358029632
% es.tEx (V/m) @ t=0.74
0.5814076763897305
% es.tEy (V/m) @ t=0.74
0
% es.tEz (V/m) @ t=0.74
1.7861132358029632
% V (V) @ t=0.74
0.00880958692782199
% es.normE (V/m) @ t=0.76
1.9004718679535717
% es.EX (V/m) @ t=0.76
0.5866013498289308
% es.EY (V/m) @ t=0.76
0.14210840687170367
% es.EZ (V/m) @ t=0.76
1.8020683592416016
% es.tEX (V/m) @ t=0.76
0.586601349828932
% es.tEY (V/m) @ t=0.76
0
% es.tEZ (V/m) @ t=0.76
1.8020683592415985
% es.Ex (V/m) @ t=0.76
0.5866013498289308
% es.Ey (V/m) @ t=0.76
0.14210840687170367
% es.Ez (V/m) @ t=0.76
1.8020683592416016
% es.tEx (V/m) @ t=0.76
0.586601349828932
% es.tEy (V/m) @ t=0.76
0
% es.tEz (V/m) @ t=0.76
1.8020683592415985
% V (V) @ t=0.76
0.008888283582625627
% es.normE (V/m) @ t=0.78
1.917298246677423
% es.EX (V/m) @ t=0.78
0.591795023268149
% es.EY (V/m) @ t=0.78
0.14336663273773198
% es.EZ (V/m) @ t=0.78
1.8180234826802368
% es.tEX (V/m) @ t=0.78
0.5917950232681548
% es.tEY (V/m) @ t=0.78
0
% es.tEZ (V/m) @ t=0.78
1.8180234826802355
% es.Ex (V/m) @ t=0.78
0.591795023268149
% es.Ey (V/m) @ t=0.78
0.14336663273773198
% es.Ez (V/m) @ t=0.78
1.8180234826802368
% es.tEx (V/m) @ t=0.78
0.5917950232681548
% es.tEy (V/m) @ t=0.78
0
% es.tEz (V/m) @ t=0.78
1.8180234826802355
% V (V) @ t=0.78
0.008966980237429263
% es.normE (V/m) @ t=0.8
1.9341246254012625
% es.EX (V/m) @ t=0.8
0.5969886967073635
% es.EY (V/m) @ t=0.8
0.14462485860378482
% es.EZ (V/m) @ t=0.8
1.8339786061188574
% es.tEX (V/m) @ t=0.8
0.5969886967073634
% es.tEY (V/m) @ t=0.8
0
% es.tEZ (V/m) @ t=0.8
1.8339786061188654
% es.Ex (V/m) @ t=0.8
0.5969886967073635
% es.Ey (V/m) @ t=0.8
0.14462485860378482
% es.Ez (V/m) @ t=0.8
1.8339786061188574
% es.tEx (V/m) @ t=0.8
0.5969886967073634
% es.tEy (V/m) @ t=0.8
0
% es.tEz (V/m) @ t=0.8
1.8339786061188654
% V (V) @ t=0.8
0.009045676892232901
% es.normE (V/m) @ t=0.82
1.9511358066349824
% es.EX (V/m) @ t=0.82
0.6022394258407364
% es.EY (V/m) @ t=0.82
0.14589691730727117
% es.EZ (V/m) @ t=0.82
1.850108957540225
% es.tEX (V/m) @ t=0.82
0.602239425840736
% es.tEY (V/m) @ t=0.82
0
% es.tEZ (V/m) @ t=0.82
1.8501089575402236
% es.Ex (V/m) @ t=0.82
0.6022394258407364
% es.Ey (V/m) @ t=0.82
0.14589691730727117
% es.Ez (V/m) @ t=0.82
1.850108957540225
% es.tEx (V/m) @ t=0.82
0.602239425840736
% es.tEy (V/m) @ t=0.82
0
% es.tEz (V/m) @ t=0.82
1.8501089575402236
% V (V) @ t=0.82
0.009125238689498853
% es.normE (V/m) @ t=0.84
1.969954547095413
% es.EX (V/m) @ t=0.84
0.6080482185333467
% es.EY (V/m) @ t=0.84
0.14730427543404934
% es.EZ (V/m) @ t=0.84
1.8679532194338337
% es.tEX (V/m) @ t=0.84
0.608048218533348
% es.tEY (V/m) @ t=0.84
0
% es.tEZ (V/m) @ t=0.84
1.8679532194338258
% es.Ex (V/m) @ t=0.84
0.6080482185333467
% es.Ey (V/m) @ t=0.84
0.14730427543404934
% es.Ez (V/m) @ t=0.84
1.8679532194338337
% es.tEx (V/m) @ t=0.84
0.608048218533348
% es.tEy (V/m) @ t=0.84
0
% es.tEz (V/m) @ t=0.84
1.8679532194338258
% V (V) @ t=0.84
0.009213262472704615
% es.normE (V/m) @ t=0.86
1.98877328755589
% es.EX (V/m) @ t=0.86
0.6138570112259589
% es.EY (V/m) @ t=0.86
0.14871163356082961
% es.EZ (V/m) @ t=0.86
1.88579748132743
% es.tEX (V/m) @ t=0.86
0.61385701122596
% es.tEY (V/m) @ t=0.86
0
% es.tEZ (V/m) @ t=0.86
1.885797481327435
% es.Ex (V/m) @ t=0.86
0.6138570112259589
% es.Ey (V/m) @ t=0.86
0.14871163356082961
% es.Ez (V/m) @ t=0.86
1.88579748132743
% es.tEx (V/m) @ t=0.86
0.61385701122596
% es.tEy (V/m) @ t=0.86
0
% es.tEz (V/m) @ t=0.86
1.885797481327435
% V (V) @ t=0.86
0.009301286255910377
% es.normE (V/m) @ t=0.88
2.007592028016413
% es.EX (V/m) @ t=0.88
0.6196658039185647
% es.EY (V/m) @ t=0.88
0.15011899168761544
% es.EZ (V/m) @ t=0.88
1.9036417432210189
% es.tEX (V/m) @ t=0.88
0.6196658039185721
% es.tEY (V/m) @ t=0.88
0
% es.tEZ (V/m) @ t=0.88
1.9036417432210246
% es.Ex (V/m) @ t=0.88
0.6196658039185647
% es.Ey (V/m) @ t=0.88
0.15011899168761544
% es.Ez (V/m) @ t=0.88
1.9036417432210189
% es.tEx (V/m) @ t=0.88
0.6196658039185721
% es.tEy (V/m) @ t=0.88
0
% es.tEz (V/m) @ t=0.88
1.9036417432210246
% V (V) @ t=0.88
0.009389310039116139
% es.normE (V/m) @ t=0.9
2.026410768477004
% es.EX (V/m) @ t=0.9
0.6254745966111721
% es.EY (V/m) @ t=0.9
0.1515263498144086
% es.EZ (V/m) @ t=0.9
1.9214860051146214
% es.tEX (V/m) @ t=0.9
0.625474596611177
% es.tEY (V/m) @ t=0.9
0
% es.tEZ (V/m) @ t=0.9
1.9214860051146339
% es.Ex (V/m) @ t=0.9
0.6254745966111721
% es.Ey (V/m) @ t=0.9
0.1515263498144086
% es.Ez (V/m) @ t=0.9
1.9214860051146214
% es.tEx (V/m) @ t=0.9
0.625474596611177
% es.tEy (V/m) @ t=0.9
0
% es.tEz (V/m) @ t=0.9
1.9214860051146339
% V (V) @ t=0.9
0.009477333822321903
% es.normE (V/m) @ t=0.92
2.045229508937666
% es.EX (V/m) @ t=0.92
0.6312833893037968
% es.EY (V/m) @ t=0.92
0.15293370794118533
% es.EZ (V/m) @ t=0.92
1.9393302670082386
% es.tEX (V/m) @ t=0.92
0.6312833893037961
% es.tEY (V/m) @ t=0.92
0
% es.tEZ (V/m) @ t=0.92
1.9393302670082377
% es.Ex (V/m) @ t=0.92
0.6312833893037968
% es.Ey (V/m) @ t=0.92
0.15293370794118533
% es.Ez (V/m) @ t=0.92
1.9393302670082386
% es.tEx (V/m) @ t=0.92
0.6312833893037961
% es.tEy (V/m) @ t=0.92
0
% es.tEz (V/m) @ t=0.92
1.9393302670082377
% V (V) @ t=0.92
0.009565357605527664
% es.normE (V/m) @ t=0.94
2.06404824939835
% es.EX (V/m) @ t=0.94
0.6370921819964039
% es.EY (V/m) @ t=0.94
0.15434106606797626
% es.EZ (V/m) @ t=0.94
1.9571745289018305
% es.tEX (V/m) @ t=0.94
0.6370921819964082
% es.tEY (V/m) @ t=0.94
0
% es.tEZ (V/m) @ t=0.94
1.9571745289018256
% es.Ex (V/m) @ t=0.94
0.6370921819964039
% es.Ey (V/m) @ t=0.94
0.15434106606797626
% es.Ez (V/m) @ t=0.94
1.9571745289018305
% es.tEx (V/m) @ t=0.94
0.6370921819964082
% es.tEy (V/m) @ t=0.94
0
% es.tEz (V/m) @ t=0.94
1.9571745289018256
% V (V) @ t=0.94
0.009653381388733426
% es.normE (V/m) @ t=0.96
2.0828669898590952
% es.EX (V/m) @ t=0.96
0.6429009746890091
% es.EY (V/m) @ t=0.96
0.15574842419477253
% es.EZ (V/m) @ t=0.96
1.9750187907954344
% es.tEX (V/m) @ t=0.96
0.6429009746890202
% es.tEY (V/m) @ t=0.96
0
% es.tEZ (V/m) @ t=0.96
1.9750187907954277
% es.Ex (V/m) @ t=0.96
0.6429009746890091
% es.Ey (V/m) @ t=0.96
0.15574842419477253
% es.Ez (V/m) @ t=0.96
1.9750187907954344
% es.tEx (V/m) @ t=0.96
0.6429009746890202
% es.tEy (V/m) @ t=0.96
0
% es.tEz (V/m) @ t=0.96
1.9750187907954277
% V (V) @ t=0.96
0.009741405171939188
% es.normE (V/m) @ t=0.98
2.101685730319871
% es.EX (V/m) @ t=0.98
0.6487097673816198
% es.EY (V/m) @ t=0.98
0.15715578232152116
% es.EZ (V/m) @ t=0.98
1.9928630526890223
% es.tEX (V/m) @ t=0.98
0.6487097673816251
% es.tEY (V/m) @ t=0.98
0
% es.tEZ (V/m) @ t=0.98
1.9928630526890299
% es.Ex (V/m) @ t=0.98
0.6487097673816198
% es.Ey (V/m) @ t=0.98
0.15715578232152116
% es.Ez (V/m) @ t=0.98
1.9928630526890223
% es.tEx (V/m) @ t=0.98
0.6487097673816251
% es.tEy (V/m) @ t=0.98
0
% es.tEz (V/m) @ t=0.98
1.9928630526890299
% V (V) @ t=0.98
0.00982942895514495
% es.normE (V/m) @ t=1
2.1205044707807215
% es.EX (V/m) @ t=1
0.6545185600742456
% es.EY (V/m) @ t=1
0.1585631404483191
% es.EZ (V/m) @ t=1
2.0107073145826297
% es.tEX (V/m) @ t=1
0.6545185600742442
% es.tEY (V/m) @ t=1
0
% es.tEZ (V/m) @ t=1
2.0107073145826337
% es.Ex (V/m) @ t=1
0.6545185600742456
% es.Ey (V/m) @ t=1
0.1585631404483191
% es.Ez (V/m) @ t=1
2.0107073145826297
% es.tEx (V/m) @ t=1
0.6545185600742442
% es.tEy (V/m) @ t=1
0
% es.tEz (V/m) @ t=1
2.0107073145826337
% V (V) @ t=1
0.00991745273835071
% es.normE (V/m) @ t=1.02
2.1393232112416083
% es.EX (V/m) @ t=1.02
0.6603273527668472
% es.EY (V/m) @ t=1.02
0.15997049857511936
% es.EZ (V/m) @ t=1.02
2.028551576476236
% es.tEX (V/m) @ t=1.02
0.6603273527668492
% es.tEY (V/m) @ t=1.02
0
% es.tEZ (V/m) @ t=1.02
2.0285515764762234
% es.Ex (V/m) @ t=1.02
0.6603273527668472
% es.Ey (V/m) @ t=1.02
0.15997049857511936
% es.Ez (V/m) @ t=1.02
2.028551576476236
% es.tEx (V/m) @ t=1.02
0.6603273527668492
% es.tEy (V/m) @ t=1.02
0
% es.tEz (V/m) @ t=1.02
2.0285515764762234
% V (V) @ t=1.02
0.010005476521556474
% es.normE (V/m) @ t=1.04
2.1581419517025298
% es.EX (V/m) @ t=1.04
0.6661361454594525
% es.EY (V/m) @ t=1.04
0.1613778567018872
% es.EZ (V/m) @ t=1.04
2.046395838369832
% es.tEX (V/m) @ t=1.04
0.6661361454594541
% es.tEY (V/m) @ t=1.04
0
% es.tEZ (V/m) @ t=1.04
2.0463958383698255
% es.Ex (V/m) @ t=1.04
0.6661361454594525
% es.Ey (V/m) @ t=1.04
0.1613778567018872
% es.Ez (V/m) @ t=1.04
2.046395838369832