% Model:              1 neuron.mph
% Version:            COMSOL 6.0.0.405
% Date:               Mar 16 2023, 10:21
% Dimension:          0
% Nodes:              14017
% Expressions:        14017
% Description:        Electric field norm, Electric field, X component, Electric field, Y component, Electric field, Z component, Tangential electric field, X component, Tangential electric field, Y component, Tangential electric field, Z component, Electric field, x component, Electric field, y component, Electric field, z component, Tangential electric field, x component, Tangential electric field, y component, Tangential electric field, z component, Electric potential
% Length unit:        mm
% x
1.33
% y
12.2
% z
2
% es.normE (V/m) @ t=0
1.4456445868722985
% es.EX (V/m) @ t=0
0.5761442124067775
% es.EY (V/m) @ t=0
0.15232217109196267
% es.EZ (V/m) @ t=0
-1.315927727092606
% es.tEX (V/m) @ t=0
0.5761442124067777
% es.tEY (V/m) @ t=0
0
% es.tEZ (V/m) @ t=0
-1.3159277270926104
% es.Ex (V/m) @ t=0
0.5761442124067775
% es.Ey (V/m) @ t=0
0.15232217109196267
% es.Ez (V/m) @ t=0
-1.315927727092606
% es.tEx (V/m) @ t=0
0.5761442124067777
% es.tEy (V/m) @ t=0
0
% es.tEz (V/m) @ t=0
-1.3159277270926104
% V (V) @ t=0
0.007228348162500073
% es.normE (V/m) @ t=0.02
1.2486292903743277
% es.EX (V/m) @ t=0.02
0.49762614258337146
% es.EY (V/m) @ t=0.02
0.1315634116553288
% es.EZ (V/m) @ t=0.02
-1.136590499594642
% es.tEX (V/m) @ t=0.02
0.4976261425833717
% es.tEY (V/m) @ t=0.02
0
% es.tEZ (V/m) @ t=0.02
-1.1365904995946448
% es.Ex (V/m) @ t=0.02
0.49762614258337146
% es.Ey (V/m) @ t=0.02
0.1315634116553288
% es.Ez (V/m) @ t=0.02
-1.136590499594642
% es.tEx (V/m) @ t=0.02
0.4976261425833717
% es.tEy (V/m) @ t=0.02
0
% es.tEz (V/m) @ t=0.02
-1.1365904995946448
% V (V) @ t=0.02
0.0062432543274969585
% es.normE (V/m) @ t=0.04
1.2601126610273823
% es.EX (V/m) @ t=0.04
0.5022027021213551
% es.EY (V/m) @ t=0.04
0.1327733965216802
% es.EZ (V/m) @ t=0.04
-1.147043471749435
% es.tEX (V/m) @ t=0.04
0.5022027021213553
% es.tEY (V/m) @ t=0.04
0
% es.tEZ (V/m) @ t=0.04
-1.1470434717494378
% es.Ex (V/m) @ t=0.04
0.5022027021213551
% es.Ey (V/m) @ t=0.04
0.1327733965216802
% es.Ez (V/m) @ t=0.04
-1.147043471749435
% es.tEx (V/m) @ t=0.04
0.5022027021213553
% es.tEy (V/m) @ t=0.04
0
% es.tEz (V/m) @ t=0.04
-1.1470434717494378
% V (V) @ t=0.04
0.006300671093415757
% es.normE (V/m) @ t=0.06
1.2716997377069559
% es.EX (V/m) @ t=0.06
0.5068205919442714
% es.EY (V/m) @ t=0.06
0.1339942915566521
% es.EZ (V/m) @ t=0.06
-1.1575908459802502
% es.tEX (V/m) @ t=0.06
0.5068205919442716
% es.tEY (V/m) @ t=0.06
0
% es.tEZ (V/m) @ t=0.06
-1.157590845980252
% es.Ex (V/m) @ t=0.06
0.5068205919442714
% es.Ey (V/m) @ t=0.06
0.1339942915566521
% es.Ez (V/m) @ t=0.06
-1.1575908459802502
% es.tEx (V/m) @ t=0.06
0.5068205919442716
% es.tEy (V/m) @ t=0.06
0
% es.tEz (V/m) @ t=0.06
-1.157590845980252
% V (V) @ t=0.06
0.006358607129490763
% es.normE (V/m) @ t=0.08
1.2834632648617783
% es.EX (V/m) @ t=0.08
0.5115088046032044
% es.EY (V/m) @ t=0.08
0.13523380394190054
% es.EZ (V/m) @ t=0.08
-1.1682988356379882
% es.tEX (V/m) @ t=0.08
0.5115088046032046
% es.tEY (V/m) @ t=0.08
0
% es.tEZ (V/m) @ t=0.08
-1.1682988356379873
% es.Ex (V/m) @ t=0.08
0.5115088046032044
% es.Ey (V/m) @ t=0.08
0.13523380394190054
% es.Ez (V/m) @ t=0.08
-1.1682988356379882
% es.tEx (V/m) @ t=0.08
0.5115088046032046
% es.tEy (V/m) @ t=0.08
0
% es.tEz (V/m) @ t=0.08
-1.1682988356379873
% V (V) @ t=0.08
0.006417424327193151
% es.normE (V/m) @ t=0.1
1.29534995397153
% es.EX (V/m) @ t=0.1
0.5162461024116465
% es.EY (V/m) @ t=0.1
0.13648631118735377
% es.EZ (V/m) @ t=0.1
-1.1791189344297113
% es.tEX (V/m) @ t=0.1
0.5162461024116465
% es.tEY (V/m) @ t=0.1
0
% es.tEZ (V/m) @ t=0.1
-1.1791189344297077
% es.Ex (V/m) @ t=0.1
0.5162461024116465
% es.Ey (V/m) @ t=0.1
0.13648631118735377
% es.Ez (V/m) @ t=0.1
-1.1791189344297113
% es.tEx (V/m) @ t=0.1
0.5162461024116465
% es.tEy (V/m) @ t=0.1
0
% es.tEz (V/m) @ t=0.1
-1.1791189344297077
% V (V) @ t=0.1
0.006476856573330456
% es.normE (V/m) @ t=0.12
1.3072366430812814
% es.EX (V/m) @ t=0.12
0.520983400220089
% es.EY (V/m) @ t=0.12
0.1377388184328101
% es.EZ (V/m) @ t=0.12
-1.189939033221429
% es.tEX (V/m) @ t=0.12
0.5209834002200893
% es.tEY (V/m) @ t=0.12
0
% es.tEZ (V/m) @ t=0.12
-1.1899390332214335
% es.Ex (V/m) @ t=0.12
0.520983400220089
% es.Ey (V/m) @ t=0.12
0.1377388184328101
% es.Ez (V/m) @ t=0.12
-1.189939033221429
% es.tEx (V/m) @ t=0.12
0.5209834002200893
% es.tEy (V/m) @ t=0.12
0
% es.tEz (V/m) @ t=0.12
-1.1899390332214335
% V (V) @ t=0.12
0.006536288819467757
% es.normE (V/m) @ t=0.14
1.3192426318352792
% es.EX (V/m) @ t=0.14
0.525768242823911
% es.EY (V/m) @ t=0.14
0.13900387115579882
% es.EZ (V/m) @ t=0.14
-1.2008677291631509
% es.tEX (V/m) @ t=0.14
0.5257682428239145
% es.tEY (V/m) @ t=0.14
0
% es.tEZ (V/m) @ t=0.14
-1.2008677291631535
% es.Ex (V/m) @ t=0.14
0.525768242823911
% es.Ey (V/m) @ t=0.14
0.13900387115579882
% es.Ez (V/m) @ t=0.14
-1.2008677291631509
% es.tEx (V/m) @ t=0.14
0.5257682428239145
% es.tEy (V/m) @ t=0.14
0
% es.tEz (V/m) @ t=0.14
-1.2008677291631535
% V (V) @ t=0.14
0.006596318645283378
% es.normE (V/m) @ t=0.16
1.3317644937056652
% es.EX (V/m) @ t=0.16
0.5307586776733626
% es.EY (V/m) @ t=0.16
0.14032317277989215
% es.EZ (V/m) @ t=0.16
-1.2122660187114223
% es.tEX (V/m) @ t=0.16
0.5307586776733664
% es.tEY (V/m) @ t=0.16
0
% es.tEZ (V/m) @ t=0.16
-1.2122660187114285
% es.Ex (V/m) @ t=0.16
0.5307586776733626
% es.Ey (V/m) @ t=0.16
0.14032317277989215
% es.Ez (V/m) @ t=0.16
-1.2122660187114223
% es.tEx (V/m) @ t=0.16
0.5307586776733664
% es.tEy (V/m) @ t=0.16
0
% es.tEz (V/m) @ t=0.16
-1.2122660187114285
% V (V) @ t=0.16
0.006658932513096067
% es.normE (V/m) @ t=0.18
1.3442863555760654
% es.EX (V/m) @ t=0.18
0.5357491125228113
% es.EY (V/m) @ t=0.18
0.1416424744039868
% es.EZ (V/m) @ t=0.18
-1.2236643082597007
% es.tEX (V/m) @ t=0.18
0.5357491125228115
% es.tEY (V/m) @ t=0.18
0
% es.tEZ (V/m) @ t=0.18
-1.223664308259707
% es.Ex (V/m) @ t=0.18
0.5357491125228113
% es.Ey (V/m) @ t=0.18
0.1416424744039868
% es.Ez (V/m) @ t=0.18
-1.2236643082597007
% es.tEx (V/m) @ t=0.18
0.5357491125228115
% es.tEy (V/m) @ t=0.18
0
% es.tEz (V/m) @ t=0.18
-1.223664308259707
% V (V) @ t=0.18
0.006721546380908756
% es.normE (V/m) @ t=0.2
1.356808217446478
% es.EX (V/m) @ t=0.2
0.5407395473722632
% es.EY (V/m) @ t=0.2
0.14296177602806814
% es.EZ (V/m) @ t=0.2
-1.2350625978079828
% es.tEX (V/m) @ t=0.2
0.5407395473722634
% es.tEY (V/m) @ t=0.2
0
% es.tEZ (V/m) @ t=0.2
-1.2350625978079854
% es.Ex (V/m) @ t=0.2
0.5407395473722632
% es.Ey (V/m) @ t=0.2
0.14296177602806814
% es.Ez (V/m) @ t=0.2
-1.2350625978079828
% es.tEx (V/m) @ t=0.2
0.5407395473722634
% es.tEy (V/m) @ t=0.2
0
% es.tEz (V/m) @ t=0.2
-1.2350625978079854
% V (V) @ t=0.2
0.0067841602487214445
% es.normE (V/m) @ t=0.22
1.3693300793168874
% es.EX (V/m) @ t=0.22
0.5457299822217012
% es.EY (V/m) @ t=0.22
0.14428107765216502
% es.EZ (V/m) @ t=0.22
-1.246460887356256
% es.tEX (V/m) @ t=0.22
0.5457299822217014
% es.tEY (V/m) @ t=0.22
0
% es.tEZ (V/m) @ t=0.22
-1.2464608873562586
% es.Ex (V/m) @ t=0.22
0.5457299822217012
% es.Ey (V/m) @ t=0.22
0.14428107765216502
% es.Ez (V/m) @ t=0.22
-1.246460887356256
% es.tEx (V/m) @ t=0.22
0.5457299822217014
% es.tEy (V/m) @ t=0.22
0
% es.tEz (V/m) @ t=0.22
-1.2464608873562586
% V (V) @ t=0.22
0.006846774116534133
% es.normE (V/m) @ t=0.24
1.3818519411873116
% es.EX (V/m) @ t=0.24
0.5507204170711526
% es.EY (V/m) @ t=0.24
0.14560037927624103
% es.EZ (V/m) @ t=0.24
-1.2578591769045326
% es.tEX (V/m) @ t=0.24
0.5507204170711528
% es.tEY (V/m) @ t=0.24
0
% es.tEZ (V/m) @ t=0.24
-1.2578591769045335
% es.Ex (V/m) @ t=0.24
0.5507204170711526
% es.Ey (V/m) @ t=0.24
0.14560037927624103
% es.Ez (V/m) @ t=0.24
-1.2578591769045326
% es.tEx (V/m) @ t=0.24
0.5507204170711528
% es.tEy (V/m) @ t=0.24
0
% es.tEz (V/m) @ t=0.24
-1.2578591769045335
% V (V) @ t=0.24
0.006909387984346823
% es.normE (V/m) @ t=0.26
1.3943738030577428
% es.EX (V/m) @ t=0.26
0.5557108519205978
% es.EY (V/m) @ t=0.26
0.14691968090033214
% es.EZ (V/m) @ t=0.26
-1.2692574664528093
% es.tEX (V/m) @ t=0.26
0.555710851920598
% es.tEY (V/m) @ t=0.26
0
% es.tEZ (V/m) @ t=0.26
-1.2692574664528138
% es.Ex (V/m) @ t=0.26
0.5557108519205978
% es.Ey (V/m) @ t=0.26
0.14691968090033214
% es.Ez (V/m) @ t=0.26
-1.2692574664528093
% es.tEx (V/m) @ t=0.26
0.555710851920598
% es.tEy (V/m) @ t=0.26
0
% es.tEz (V/m) @ t=0.26
-1.2692574664528138
% V (V) @ t=0.26
0.006972001852159512
% es.normE (V/m) @ t=0.28
1.407442913207794
% es.EX (V/m) @ t=0.28
0.5609194058927904
% es.EY (V/m) @ t=0.28
0.14829732934152728
% es.EZ (V/m) @ t=0.28
-1.2811538382078416
% es.tEX (V/m) @ t=0.28
0.5609194058927907
% es.tEY (V/m) @ t=0.28
0
% es.tEZ (V/m) @ t=0.28
-1.2811538382078478
% es.Ex (V/m) @ t=0.28
0.5609194058927904
% es.Ey (V/m) @ t=0.28
0.14829732934152728
% es.Ez (V/m) @ t=0.28
-1.2811538382078416
% es.tEx (V/m) @ t=0.28
0.5609194058927907
% es.tEy (V/m) @ t=0.28
0
% es.tEz (V/m) @ t=0.28
-1.2811538382078478
% V (V) @ t=0.28
0.00703732244425217
% es.normE (V/m) @ t=0.3
1.4213839546996425
% es.EX (V/m) @ t=0.3
0.5664754893244022
% es.EY (V/m) @ t=0.3
0.1497679418363047
% es.EZ (V/m) @ t=0.3
-1.2938438049393435
% es.tEX (V/m) @ t=0.3
0.5664754893243988
% es.tEY (V/m) @ t=0.3
0
% es.tEZ (V/m) @ t=0.3
-1.2938438049393461
% es.Ex (V/m) @ t=0.3
0.5664754893244022
% es.Ey (V/m) @ t=0.3
0.1497679418363047
% es.Ez (V/m) @ t=0.3
-1.2938438049393435
% es.tEx (V/m) @ t=0.3
0.5664754893243988
% es.tEy (V/m) @ t=0.3
0
% es.tEz (V/m) @ t=0.3
-1.2938438049393461
% V (V) @ t=0.3
0.007106955663381324
% es.normE (V/m) @ t=0.32
1.4353249961951253
% es.EX (V/m) @ t=0.32
0.5720315727560144
% es.EY (V/m) @ t=0.32
0.15123855433107503
% es.EZ (V/m) @ t=0.32
-1.3065337716708383
% es.tEX (V/m) @ t=0.32
0.5720315727560146
% es.tEY (V/m) @ t=0.32
0
% es.tEZ (V/m) @ t=0.32
-1.306533771670841
% es.Ex (V/m) @ t=0.32
0.5720315727560144
% es.Ey (V/m) @ t=0.32
0.15123855433107503
% es.Ez (V/m) @ t=0.32
-1.3065337716708383
% es.tEx (V/m) @ t=0.32
0.5720315727560146
% es.tEy (V/m) @ t=0.32
0
% es.tEz (V/m) @ t=0.32
-1.306533771670841
% V (V) @ t=0.32
0.007176588882510477
% es.normE (V/m) @ t=0.34
1.4492660376941515
% es.EX (V/m) @ t=0.34
0.5775876561876367
% es.EY (V/m) @ t=0.34
0.15270916682584312
% es.EZ (V/m) @ t=0.34
-1.3192237384023349
% es.tEX (V/m) @ t=0.34
0.577587656187637
% es.tEY (V/m) @ t=0.34
0
% es.tEZ (V/m) @ t=0.34
-1.3192237384023429
% es.Ex (V/m) @ t=0.34
0.5775876561876367
% es.Ey (V/m) @ t=0.34
0.15270916682584312
% es.Ez (V/m) @ t=0.34
-1.3192237384023349
% es.tEx (V/m) @ t=0.34
0.577587656187637
% es.tEy (V/m) @ t=0.34
0
% es.tEz (V/m) @ t=0.34
-1.3192237384023429
% V (V) @ t=0.34
0.007246222101639632
% es.normE (V/m) @ t=0.36
1.4632070791966143
% es.EX (V/m) @ t=0.36
0.5831437396192516
% es.EY (V/m) @ t=0.36
0.15417977932061966
% es.EZ (V/m) @ t=0.36
-1.3319137051338332
% es.tEX (V/m) @ t=0.36
0.5831437396192518
% es.tEY (V/m) @ t=0.36
0
% es.tEZ (V/m) @ t=0.36
-1.331913705133836
% es.Ex (V/m) @ t=0.36
0.5831437396192516
% es.Ey (V/m) @ t=0.36
0.15417977932061966
% es.Ez (V/m) @ t=0.36
-1.3319137051338332
% es.tEx (V/m) @ t=0.36
0.5831437396192518
% es.tEy (V/m) @ t=0.36
0
% es.tEz (V/m) @ t=0.36
-1.331913705133836
% V (V) @ t=0.36
0.0073158553207687835
% es.normE (V/m) @ t=0.38
1.4771481207024122
% es.EX (V/m) @ t=0.38
0.5886998230508673
% es.EY (V/m) @ t=0.38
0.15565039181538953
% es.EZ (V/m) @ t=0.38
-1.344603671865328
% es.tEX (V/m) @ t=0.38
0.5886998230508675
% es.tEY (V/m) @ t=0.38
0
% es.tEZ (V/m) @ t=0.38
-1.3446036718653342
% es.Ex (V/m) @ t=0.38
0.5886998230508673
% es.Ey (V/m) @ t=0.38
0.15565039181538953
% es.Ez (V/m) @ t=0.38
-1.344603671865328
% es.tEx (V/m) @ t=0.38
0.5886998230508675
% es.tEy (V/m) @ t=0.38
0
% es.tEz (V/m) @ t=0.38
-1.3446036718653342
% V (V) @ t=0.38
0.007385488539897938
% es.normE (V/m) @ t=0.4
1.491089162211464
% es.EX (V/m) @ t=0.4
0.5942559064824862
% es.EY (V/m) @ t=0.4
0.15712100431016873
% es.EZ (V/m) @ t=0.4
-1.35729363859683
% es.tEX (V/m) @ t=0.4
0.5942559064824828
% es.tEY (V/m) @ t=0.4
0
% es.tEZ (V/m) @ t=0.4
-1.3572936385968326
% es.Ex (V/m) @ t=0.4
0.5942559064824862
% es.Ey (V/m) @ t=0.4
0.15712100431016873
% es.Ez (V/m) @ t=0.4
-1.35729363859683
% es.tEx (V/m) @ t=0.4
0.5942559064824828
% es.tEy (V/m) @ t=0.4
0
% es.tEz (V/m) @ t=0.4
-1.3572936385968326
% V (V) @ t=0.4
0.00745512175902709
% es.normE (V/m) @ t=0.42
1.5050302037236643
% es.EX (V/m) @ t=0.42
0.5998119899141081
% es.EY (V/m) @ t=0.42
0.15859161680493417
% es.EZ (V/m) @ t=0.42
-1.3699836053283247
% es.tEX (V/m) @ t=0.42
0.5998119899141048
% es.tEY (V/m) @ t=0.42
0
% es.tEZ (V/m) @ t=0.42
-1.3699836053283292
% es.Ex (V/m) @ t=0.42
0.5998119899141081
% es.Ey (V/m) @ t=0.42
0.15859161680493417
% es.Ez (V/m) @ t=0.42
-1.3699836053283247
% es.tEx (V/m) @ t=0.42
0.5998119899141048
% es.tEy (V/m) @ t=0.42
0
% es.tEz (V/m) @ t=0.42
-1.3699836053283292
% V (V) @ t=0.42
0.007524754978156245
% es.normE (V/m) @ t=0.44
1.5189712452389328
% es.EX (V/m) @ t=0.44
0.6053680733457274
% es.EY (V/m) @ t=0.44
0.16006222929970404
% es.EZ (V/m) @ t=0.44
-1.3826735720598196
% es.tEX (V/m) @ t=0.44
0.6053680733457276
% es.tEY (V/m) @ t=0.44
0
% es.tEZ (V/m) @ t=0.44
-1.382673572059824
% es.Ex (V/m) @ t=0.44
0.6053680733457274
% es.Ey (V/m) @ t=0.44
0.16006222929970404
% es.Ez (V/m) @ t=0.44
-1.3826735720598196
% es.tEx (V/m) @ t=0.44
0.6053680733457276
% es.tEy (V/m) @ t=0.44
0
% es.tEz (V/m) @ t=0.44
-1.382673572059824
% V (V) @ t=0.44
0.007594388197285398
% es.normE (V/m) @ t=0.46
1.5329122867571932
% es.EX (V/m) @ t=0.46
0.6109241567773467
% es.EY (V/m) @ t=0.46
0.1615328417944708
% es.EZ (V/m) @ t=0.46
-1.3953635387913232
% es.tEX (V/m) @ t=0.46
0.6109241567773434
% es.tEY (V/m) @ t=0.46
0
% es.tEZ (V/m) @ t=0.46
-1.395363538791326
% es.Ex (V/m) @ t=0.46
0.6109241567773467
% es.Ey (V/m) @ t=0.46
0.1615328417944708
% es.Ez (V/m) @ t=0.46
-1.3953635387913232
% es.tEx (V/m) @ t=0.46
0.6109241567773434
% es.tEy (V/m) @ t=0.46
0
% es.tEz (V/m) @ t=0.46
-1.395363538791326
% V (V) @ t=0.46
0.007664021416414551
% es.normE (V/m) @ t=0.48
1.5468533282783454
% es.EX (V/m) @ t=0.48
0.6164802402089584
% es.EY (V/m) @ t=0.48
0.16300345428925356
% es.EZ (V/m) @ t=0.48
-1.4080535055228145
% es.tEX (V/m) @ t=0.48
0.6164802402089586
% es.tEY (V/m) @ t=0.48
0
% es.tEZ (V/m) @ t=0.48
-1.4080535055228172
% es.Ex (V/m) @ t=0.48
0.6164802402089584
% es.Ey (V/m) @ t=0.48
0.16300345428925356
% es.Ez (V/m) @ t=0.48
-1.4080535055228145
% es.tEx (V/m) @ t=0.48
0.6164802402089586
% es.tEy (V/m) @ t=0.48
0
% es.tEz (V/m) @ t=0.48
-1.4080535055228172
% V (V) @ t=0.48
0.007733654635543702
% es.normE (V/m) @ t=0.5
1.5607943698023308
% es.EX (V/m) @ t=0.5
0.6220363236405733
% es.EY (V/m) @ t=0.5
0.16447406678402254
% es.EZ (V/m) @ t=0.5
-1.4207434722543146
% es.tEX (V/m) @ t=0.5
0.6220363236405735
% es.tEY (V/m) @ t=0.5
0
% es.tEZ (V/m) @ t=0.5
-1.4207434722543173
% es.Ex (V/m) @ t=0.5
0.6220363236405733
% es.Ey (V/m) @ t=0.5
0.16447406678402254
% es.Ez (V/m) @ t=0.5
-1.4207434722543146
% es.tEx (V/m) @ t=0.5
0.6220363236405735
% es.tEy (V/m) @ t=0.5
0
% es.tEz (V/m) @ t=0.5
-1.4207434722543173
% V (V) @ t=0.5
0.0078032878546728576
% es.normE (V/m) @ t=0.52
1.574735411329069
% es.EX (V/m) @ t=0.52
0.6275924070721925
% es.EY (V/m) @ t=0.52
0.16594467927879997
% es.EZ (V/m) @ t=0.52
-1.433433438985813
% es.tEX (V/m) @ t=0.52
0.6275924070721892
% es.tEY (V/m) @ t=0.52
0
% es.tEZ (V/m) @ t=0.52
-1.433433438985812
% es.Ex (V/m) @ t=0.52
0.6275924070721925
% es.Ey (V/m) @ t=0.52
0.16594467927879997
% es.Ez (V/m) @ t=0.52
-1.433433438985813
% es.tEx (V/m) @ t=0.52
0.6275924070721892
% es.tEy (V/m) @ t=0.52
0
% es.tEz (V/m) @ t=0.52
-1.433433438985812
% V (V) @ t=0.52
0.007872921073802013
% es.normE (V/m) @ t=0.54
1.5886764528584814
% es.EX (V/m) @ t=0.54
0.6331484905038114
% es.EY (V/m) @ t=0.54
0.1674152917735685
% es.EZ (V/m) @ t=0.54
-1.4461234057173078
% es.tEX (V/m) @ t=0.54
0.6331484905038116
% es.tEY (V/m) @ t=0.54
0
% es.tEZ (V/m) @ t=0.54
-1.4461234057173105
% es.Ex (V/m) @ t=0.54
0.6331484905038114
% es.Ey (V/m) @ t=0.54
0.1674152917735685
% es.Ez (V/m) @ t=0.54
-1.4461234057173078
% es.tEx (V/m) @ t=0.54
0.6331484905038116
% es.tEy (V/m) @ t=0.54
0
% es.tEz (V/m) @ t=0.54
-1.4461234057173105
% V (V) @ t=0.54
0.007942554292931166
% es.normE (V/m) @ t=0.56
1.6038954835511912
% es.EX (V/m) @ t=0.56
0.6392138131283398
% es.EY (V/m) @ t=0.56
0.1690175456767724
% es.EZ (V/m) @ t=0.56
-1.459976960511649
% es.tEX (V/m) @ t=0.56
0.63921381312834
% es.tEY (V/m) @ t=0.56
0
% es.tEZ (V/m) @ t=0.56
-1.4599769605116535
% es.Ex (V/m) @ t=0.56
0.6392138131283398
% es.Ey (V/m) @ t=0.56
0.1690175456767724
% es.Ez (V/m) @ t=0.56
-1.459976960511649
% es.tEx (V/m) @ t=0.56
0.63921381312834
% es.tEy (V/m) @ t=0.56
0
% es.tEz (V/m) @ t=0.56
-1.4599769605116535
% V (V) @ t=0.56
0.008018707633513152
% es.normE (V/m) @ t=0.58
1.6194724936874607
% es.EX (V/m) @ t=0.58
0.6454217794977815
% es.EY (V/m) @ t=0.58
0.17065667384996708
% es.EZ (V/m) @ t=0.58
-1.4741564496825177
% es.tEX (V/m) @ t=0.58
0.6454217794977817
% es.tEY (V/m) @ t=0.58
0
% es.tEZ (V/m) @ t=0.58
-1.474156449682523
% es.Ex (V/m) @ t=0.58
0.6454217794977815
% es.Ey (V/m) @ t=0.58
0.17065667384996708
% es.Ez (V/m) @ t=0.58
-1.4741564496825177
% es.tEx (V/m) @ t=0.58
0.6454217794977817
% es.tEy (V/m) @ t=0.58
0
% es.tEz (V/m) @ t=0.58
-1.474156449682523
% V (V) @ t=0.58
0.008096687334977008
% es.normE (V/m) @ t=0.6
1.6350495038299766
% es.EX (V/m) @ t=0.6
0.651629745867216
% es.EY (V/m) @ t=0.6
0.1722958020231662
% es.EZ (V/m) @ t=0.6
-1.4883359388533846
% es.tEX (V/m) @ t=0.6
0.6516297458672162
% es.tEY (V/m) @ t=0.6
0
% es.tEZ (V/m) @ t=0.6
-1.4883359388533854
% es.Ex (V/m) @ t=0.6
0.651629745867216
% es.Ey (V/m) @ t=0.6
0.1722958020231662
% es.Ez (V/m) @ t=0.6
-1.4883359388533846
% es.tEx (V/m) @ t=0.6
0.6516297458672162
% es.tEy (V/m) @ t=0.6
0
% es.tEz (V/m) @ t=0.6
-1.4883359388533854
% V (V) @ t=0.6
0.008174667036440866
% es.normE (V/m) @ t=0.62
1.6506265139785707
% es.EX (V/m) @ t=0.62
0.6578377122366683
% es.EY (V/m) @ t=0.62
0.17393493019635153
% es.EZ (V/m) @ t=0.62
-1.5025154280242505
% es.tEX (V/m) @ t=0.62
0.657837712236665
% es.tEY (V/m) @ t=0.62
0
% es.tEZ (V/m) @ t=0.62
-1.5025154280242496
% es.Ex (V/m) @ t=0.62
0.6578377122366683
% es.Ey (V/m) @ t=0.62
0.17393493019635153
% es.Ez (V/m) @ t=0.62
-1.5025154280242505
% es.tEx (V/m) @ t=0.62
0.657837712236665
% es.tEy (V/m) @ t=0.62
0
% es.tEz (V/m) @ t=0.62
-1.5025154280242496
% V (V) @ t=0.62
0.00825264673790472
% es.normE (V/m) @ t=0.64
1.6662035241330708
% es.EX (V/m) @ t=0.64
0.6640456786061206
% es.EY (V/m) @ t=0.64
0.17557405836954887
% es.EZ (V/m) @ t=0.64
-1.5166949171951183
% es.tEX (V/m) @ t=0.64
0.6640456786061208
% es.tEY (V/m) @ t=0.64
0
% es.tEZ (V/m) @ t=0.64
-1.5166949171951192
% es.Ex (V/m) @ t=0.64
0.6640456786061206
% es.Ey (V/m) @ t=0.64
0.17557405836954887
% es.Ez (V/m) @ t=0.64
-1.5166949171951183
% es.tEx (V/m) @ t=0.64
0.6640456786061208
% es.tEy (V/m) @ t=0.64
0
% es.tEz (V/m) @ t=0.64
-1.5166949171951192
% V (V) @ t=0.64
0.008330626439368575
% es.normE (V/m) @ t=0.66
1.681780534293298
% es.EX (V/m) @ t=0.66
0.6702536449755583
% es.EY (V/m) @ t=0.66
0.17721318654274487
% es.EZ (V/m) @ t=0.66
-1.530874406365979
% es.tEX (V/m) @ t=0.66
0.670253644975555
% es.tEY (V/m) @ t=0.66
0
% es.tEZ (V/m) @ t=0.66
-1.530874406365987
% es.Ex (V/m) @ t=0.66
0.6702536449755583
% es.Ey (V/m) @ t=0.66
0.17721318654274487
% es.Ez (V/m) @ t=0.66
-1.530874406365979
% es.tEx (V/m) @ t=0.66
0.670253644975555
% es.tEy (V/m) @ t=0.66
0
% es.tEz (V/m) @ t=0.66
-1.530874406365987
% V (V) @ t=0.66
0.008408606140832432
% es.normE (V/m) @ t=0.68
1.6973575444591185
% es.EX (V/m) @ t=0.68
0.6764616113449968
% es.EY (V/m) @ t=0.68
0.17885231471594576
% es.EZ (V/m) @ t=0.68
-1.545053895536852
% es.tEX (V/m) @ t=0.68
0.676461611344997
% es.tEY (V/m) @ t=0.68
0
% es.tEZ (V/m) @ t=0.68
-1.5450538955368547
% es.Ex (V/m) @ t=0.68
0.6764616113449968
% es.Ey (V/m) @ t=0.68
0.17885231471594576
% es.Ez (V/m) @ t=0.68
-1.545053895536852
% es.tEx (V/m) @ t=0.68
0.676461611344997
% es.tEy (V/m) @ t=0.68
0
% es.tEz (V/m) @ t=0.68
-1.5450538955368547
% V (V) @ t=0.68
0.00848658584229629
% es.normE (V/m) @ t=0.7
1.7129345546303658
% es.EX (V/m) @ t=0.7
0.68266957771446
% es.EY (V/m) @ t=0.7
0.18049144288912888
% es.EZ (V/m) @ t=0.7
-1.5592333847077144
% es.tEX (V/m) @ t=0.7
0.6826695777144605
% es.tEY (V/m) @ t=0.7
0
% es.tEZ (V/m) @ t=0.7
-1.5592333847077207
% es.Ex (V/m) @ t=0.7
0.68266957771446
% es.Ey (V/m) @ t=0.7
0.18049144288912888
% es.Ez (V/m) @ t=0.7
-1.5592333847077144
% es.tEx (V/m) @ t=0.7
0.6826695777144605
% es.tEy (V/m) @ t=0.7
0
% es.tEz (V/m) @ t=0.7
-1.5592333847077207
% V (V) @ t=0.7
0.008564565543760144
% es.normE (V/m) @ t=0.72
1.7285115648068932
% es.EX (V/m) @ t=0.72
0.6888775440838979
% es.EY (V/m) @ t=0.72
0.18213057106232844
% es.EZ (V/m) @ t=0.72
-1.573412873878584
% es.tEX (V/m) @ t=0.72
0.6888775440838946
% es.tEY (V/m) @ t=0.72
0
% es.tEZ (V/m) @ t=0.72
-1.5734128738785849
% es.Ex (V/m) @ t=0.72
0.6888775440838979
% es.Ey (V/m) @ t=0.72
0.18213057106232844
% es.Ez (V/m) @ t=0.72
-1.573412873878584
% es.tEx (V/m) @ t=0.72
0.6888775440838946
% es.tEy (V/m) @ t=0.72
0
% es.tEz (V/m) @ t=0.72
-1.5734128738785849
% V (V) @ t=0.72
0.008642545245223999
% es.normE (V/m) @ t=0.74
1.7440885749885657
% es.EX (V/m) @ t=0.74
0.6950855104533502
% es.EY (V/m) @ t=0.74
0.18376969923552045
% es.EZ (V/m) @ t=0.74
-1.5875923630494535
% es.tEX (V/m) @ t=0.74
0.6950855104533504
% es.tEY (V/m) @ t=0.74
0
% es.tEZ (V/m) @ t=0.74
-1.5875923630494508
% es.Ex (V/m) @ t=0.74
0.6950855104533502
% es.Ey (V/m) @ t=0.74
0.18376969923552045
% es.Ez (V/m) @ t=0.74
-1.5875923630494535
% es.tEx (V/m) @ t=0.74
0.6950855104533504
% es.tEy (V/m) @ t=0.74
0
% es.tEz (V/m) @ t=0.74
-1.5875923630494508
% V (V) @ t=0.74
0.008720524946687857
% es.normE (V/m) @ t=0.76
1.7596655851752256
% es.EX (V/m) @ t=0.76
0.7012934768227883
% es.EY (V/m) @ t=0.76
0.185408827408708
% es.EZ (V/m) @ t=0.76
-1.6017718522203115
% es.tEX (V/m) @ t=0.76
0.701293476822785
% es.tEY (V/m) @ t=0.76
0
% es.tEZ (V/m) @ t=0.76
-1.6017718522203204
% es.Ex (V/m) @ t=0.76
0.7012934768227883
% es.Ey (V/m) @ t=0.76
0.185408827408708
% es.Ez (V/m) @ t=0.76
-1.6017718522203115
% es.tEx (V/m) @ t=0.76
0.701293476822785
% es.tEy (V/m) @ t=0.76
0
% es.tEz (V/m) @ t=0.76
-1.6017718522203204
% V (V) @ t=0.76
0.008798504648151713
% es.normE (V/m) @ t=0.78
1.7752425953667714
% es.EX (V/m) @ t=0.78
0.7075014431922371
% es.EY (V/m) @ t=0.78
0.18704795558190312
% es.EZ (V/m) @ t=0.78
-1.6159513413911784
% es.tEX (V/m) @ t=0.78
0.7075014431922337
% es.tEY (V/m) @ t=0.78
0
% es.tEZ (V/m) @ t=0.78
-1.6159513413911828
% es.Ex (V/m) @ t=0.78
0.7075014431922371
% es.Ey (V/m) @ t=0.78
0.18704795558190312
% es.Ez (V/m) @ t=0.78
-1.6159513413911784
% es.tEx (V/m) @ t=0.78
0.7075014431922337
% es.tEy (V/m) @ t=0.78
0
% es.tEz (V/m) @ t=0.78
-1.6159513413911828
% V (V) @ t=0.78
0.00887648434961557
% es.normE (V/m) @ t=0.8
1.790819605563068
% es.EX (V/m) @ t=0.8
0.713709409561682
% es.EY (V/m) @ t=0.8
0.18868708375509957
% es.EZ (V/m) @ t=0.8
-1.6301308305620532
% es.tEX (V/m) @ t=0.8
0.7137094095616825
% es.tEY (V/m) @ t=0.8
0
% es.tEZ (V/m) @ t=0.8
-1.6301308305620577
% es.Ex (V/m) @ t=0.8
0.713709409561682
% es.Ey (V/m) @ t=0.8
0.18868708375509957
% es.Ez (V/m) @ t=0.8
-1.6301308305620532
% es.tEx (V/m) @ t=0.8
0.7137094095616825
% es.tEy (V/m) @ t=0.8
0
% es.tEz (V/m) @ t=0.8
-1.6301308305620577
% V (V) @ t=0.8
0.008954464051079422
% es.normE (V/m) @ t=0.82
1.8067186675060385
% es.EX (V/m) @ t=0.82
0.7200457427471936
% es.EY (V/m) @ t=0.82
0.19036072787866853
% es.EZ (V/m) @ t=0.82
-1.6446034214106469
% es.tEX (V/m) @ t=0.82
0.7200457427471938
% es.tEY (V/m) @ t=0.82
0
% es.tEZ (V/m) @ t=0.82
-1.6446034214106486
% es.Ex (V/m) @ t=0.82
0.7200457427471936
% es.Ey (V/m) @ t=0.82
0.19036072787866853
% es.Ez (V/m) @ t=0.82
-1.6446034214106469
% es.tEx (V/m) @ t=0.82
0.7200457427471938
% es.tEy (V/m) @ t=0.82
0
% es.tEz (V/m) @ t=0.82
-1.6446034214106486
% V (V) @ t=0.82
0.009034028910590148
% es.normE (V/m) @ t=0.84
1.8241177007348233
% es.EX (V/m) @ t=0.84
0.7269799504747718
% es.EY (V/m) @ t=0.84
0.19219513168019242
% es.EZ (V/m) @ t=0.84
-1.660441147242854
% es.tEX (V/m) @ t=0.84
0.7269799504747723
% es.tEY (V/m) @ t=0.84
0
% es.tEZ (V/m) @ t=0.84
-1.6604411472428584
% es.Ex (V/m) @ t=0.84
0.7269799504747718
% es.Ey (V/m) @ t=0.84
0.19219513168019242
% es.Ez (V/m) @ t=0.84
-1.660441147242854
% es.tEx (V/m) @ t=0.84
0.7269799504747723
% es.tEy (V/m) @ t=0.84
0
% es.tEz (V/m) @ t=0.84
-1.6604411472428584
% V (V) @ t=0.84
0.009120976718984377
% es.normE (V/m) @ t=0.86
1.8415167339650362
% es.EX (V/m) @ t=0.86
0.7339141582023572
% es.EY (V/m) @ t=0.86
0.19402953548175184
% es.EZ (V/m) @ t=0.86
-1.6762788730750708
% es.tEX (V/m) @ t=0.86
0.7339141582023574
% es.tEY (V/m) @ t=0.86
0
% es.tEZ (V/m) @ t=0.86
-1.6762788730750788
% es.Ex (V/m) @ t=0.86
0.7339141582023572
% es.Ey (V/m) @ t=0.86
0.19402953548175184
% es.Ez (V/m) @ t=0.86
-1.6762788730750708
% es.tEx (V/m) @ t=0.86
0.7339141582023574
% es.tEy (V/m) @ t=0.86
0
% es.tEz (V/m) @ t=0.86
-1.6762788730750788
% V (V) @ t=0.86
0.009207924527378609
% es.normE (V/m) @ t=0.88
1.858915767196617
% es.EX (V/m) @ t=0.88
0.7408483659299498
% es.EY (V/m) @ t=0.88
0.19586393928327883
% es.EZ (V/m) @ t=0.88
-1.6921165989072806
% es.tEX (V/m) @ t=0.88
0.7408483659299501
% es.tEY (V/m) @ t=0.88
0
% es.tEZ (V/m) @ t=0.88
-1.692116598907285
% es.Ex (V/m) @ t=0.88
0.7408483659299498
% es.Ey (V/m) @ t=0.88
0.19586393928327883
% es.Ez (V/m) @ t=0.88
-1.6921165989072806
% es.tEx (V/m) @ t=0.88
0.7408483659299501
% es.tEy (V/m) @ t=0.88
0
% es.tEz (V/m) @ t=0.88
-1.692116598907285
% V (V) @ t=0.88
0.009294872335772838
% es.normE (V/m) @ t=0.9
1.8763148004295278
% es.EX (V/m) @ t=0.9
0.7477825736575283
% es.EY (V/m) @ t=0.9
0.1976983430848156
% es.EZ (V/m) @ t=0.9
-1.7079543247394904
% es.tEX (V/m) @ t=0.9
0.7477825736575285
% es.tEY (V/m) @ t=0.9
0
% es.tEZ (V/m) @ t=0.9
-1.7079543247394966
% es.Ex (V/m) @ t=0.9
0.7477825736575283
% es.Ey (V/m) @ t=0.9
0.1976983430848156
% es.Ez (V/m) @ t=0.9
-1.7079543247394904
% es.tEx (V/m) @ t=0.9
0.7477825736575285
% es.tEy (V/m) @ t=0.9
0
% es.tEz (V/m) @ t=0.9
-1.7079543247394966
% V (V) @ t=0.9
0.009381820144167068
% es.normE (V/m) @ t=0.92
1.8937138336637362
% es.EX (V/m) @ t=0.92
0.7547167813850995
% es.EY (V/m) @ t=0.92
0.19953274688636213
% es.EZ (V/m) @ t=0.92
-1.723792050571702
% es.tEX (V/m) @ t=0.92
0.7547167813850999
% es.tEY (V/m) @ t=0.92
0
% es.tEZ (V/m) @ t=0.92
-1.7237920505717028
% es.Ex (V/m) @ t=0.92
0.7547167813850995
% es.Ey (V/m) @ t=0.92
0.19953274688636213
% es.Ez (V/m) @ t=0.92
-1.723792050571702
% es.tEx (V/m) @ t=0.92
0.7547167813850999
% es.tEy (V/m) @ t=0.92
0
% es.tEz (V/m) @ t=0.92
-1.7237920505717028
% V (V) @ t=0.92
0.0094687679525613
% es.normE (V/m) @ t=0.94
1.9111128668992134
% es.EX (V/m) @ t=0.94
0.7616509891126855
% es.EY (V/m) @ t=0.94
0.2013671506879131
% es.EZ (V/m) @ t=0.94
-1.7396297764039108
% es.tEX (V/m) @ t=0.94
0.7616509891126859
% es.tEY (V/m) @ t=0.94
0
% es.tEZ (V/m) @ t=0.94
-1.7396297764039197
% es.Ex (V/m) @ t=0.94
0.7616509891126855
% es.Ey (V/m) @ t=0.94
0.2013671506879131
% es.Ez (V/m) @ t=0.94
-1.7396297764039108
% es.tEx (V/m) @ t=0.94
0.7616509891126859
% es.tEy (V/m) @ t=0.94
0
% es.tEz (V/m) @ t=0.94
-1.7396297764039197
% V (V) @ t=0.94
0.00955571576095553
% es.normE (V/m) @ t=0.96
1.9285119001359248
% es.EX (V/m) @ t=0.96
0.7685851968402744
% es.EY (V/m) @ t=0.96
0.20320155448944988
% es.EZ (V/m) @ t=0.96
-1.7554675022361268
% es.tEX (V/m) @ t=0.96
0.7685851968402782
% es.tEY (V/m) @ t=0.96
0
% es.tEZ (V/m) @ t=0.96
-1.7554675022361295
% es.Ex (V/m) @ t=0.96
0.7685851968402744
% es.Ey (V/m) @ t=0.96
0.20320155448944988
% es.Ez (V/m) @ t=0.96
-1.7554675022361268
% es.tEx (V/m) @ t=0.96
0.7685851968402782
% es.tEy (V/m) @ t=0.96
0
% es.tEz (V/m) @ t=0.96
-1.7554675022361295
% V (V) @ t=0.96
0.009642663569349761
% es.normE (V/m) @ t=0.98
1.9459109333738183
% es.EX (V/m) @ t=0.98
0.7755194045678493
% es.EY (V/m) @ t=0.98
0.20503595829098042
% es.EZ (V/m) @ t=0.98
-1.7713052280683348
% es.tEX (V/m) @ t=0.98
0.7755194045678495
% es.tEY (V/m) @ t=0.98
0
% es.tEZ (V/m) @ t=0.98
-1.7713052280683357
% es.Ex (V/m) @ t=0.98
0.7755194045678493
% es.Ey (V/m) @ t=0.98
0.20503595829098042
% es.Ez (V/m) @ t=0.98
-1.7713052280683348
% es.tEx (V/m) @ t=0.98
0.7755194045678495
% es.tEy (V/m) @ t=0.98
0
% es.tEz (V/m) @ t=0.98
-1.7713052280683357
% V (V) @ t=0.98
0.009729611377743993
% es.normE (V/m) @ t=1
1.9633099666128822
% es.EX (V/m) @ t=1
0.7824536122954275
% es.EY (V/m) @ t=1
0.20687036209254028
% es.EZ (V/m) @ t=1
-1.7871429539005437
% es.tEX (V/m) @ t=1
0.782453612295428
% es.tEY (V/m) @ t=1
0
% es.tEZ (V/m) @ t=1
-1.7871429539005508
% es.Ex (V/m) @ t=1
0.7824536122954275
% es.Ey (V/m) @ t=1
0.20687036209254028
% es.Ez (V/m) @ t=1
-1.7871429539005437
% es.tEx (V/m) @ t=1
0.782453612295428
% es.tEy (V/m) @ t=1
0
% es.tEz (V/m) @ t=1
-1.7871429539005508
% V (V) @ t=1
0.009816559186138222
% es.normE (V/m) @ t=1.02
1.9807089998530882
% es.EX (V/m) @ t=1.02
0.7893878200230207
% es.EY (V/m) @ t=1.02
0.20870476589406994
% es.EZ (V/m) @ t=1.02
-1.8029806797327597
% es.tEX (V/m) @ t=1.02
0.7893878200230211
% es.tEY (V/m) @ t=1.02
0
% es.tEZ (V/m) @ t=1.02
-1.8029806797327659
% es.Ex (V/m) @ t=1.02
0.7893878200230207
% es.Ey (V/m) @ t=1.02
0.20870476589406994
% es.Ez (V/m) @ t=1.02
-1.8029806797327597
% es.tEx (V/m) @ t=1.02
0.7893878200230211
% es.tEy (V/m) @ t=1.02
0
% es.tEz (V/m) @ t=1.02
-1.8029806797327659
% V (V) @ t=1.02
0.009903506994532454
% es.normE (V/m) @ t=1.04
1.9981080330943846
% es.EX (V/m) @ t=1.04
0.7963220277505882
% es.EY (V/m) @ t=1.04
0.21053916969562358
% es.EZ (V/m) @ t=1.04
-1.8188184055649694
% es.tEX (V/m) @ t=1.04
0.7963220277505849