% Model:              1 neuron.mph
% Version:            COMSOL 6.0.0.405
% Date:               Mar 16 2023, 10:16
% Dimension:          0
% Nodes:              14017
% Expressions:        14017
% Description:        Electric field norm, Electric field, X component, Electric field, Y component, Electric field, Z component, Tangential electric field, X component, Tangential electric field, Y component, Tangential electric field, Z component, Electric field, x component, Electric field, y component, Electric field, z component, Tangential electric field, x component, Tangential electric field, y component, Tangential electric field, z component, Electric potential
% Length unit:        mm
% x
1.66
% y
12.2
% z
2
% es.normE (V/m) @ t=0
1.4551384579222701
% es.EX (V/m) @ t=0
-0.43409801790796776
% es.EY (V/m) @ t=0
0.03242534266838219
% es.EZ (V/m) @ t=0
-1.3861647320902164
% es.tEX (V/m) @ t=0
-0.43409801790797076
% es.tEY (V/m) @ t=0
0
% es.tEZ (V/m) @ t=0
-1.386164732090232
% es.Ex (V/m) @ t=0
-0.43409801790796776
% es.Ey (V/m) @ t=0
0.03242534266838219
% es.Ez (V/m) @ t=0
-1.3861647320902164
% es.tEx (V/m) @ t=0
-0.43409801790797076
% es.tEy (V/m) @ t=0
0
% es.tEz (V/m) @ t=0
-1.386164732090232
% V (V) @ t=0
0.00731412945069652
% es.normE (V/m) @ t=0.02
1.2568304425626415
% es.EX (V/m) @ t=0.02
-0.3749386304917041
% es.EY (V/m) @ t=0.02
0.02800639240700703
% es.EZ (V/m) @ t=0.02
-1.1972565343692883
% es.tEX (V/m) @ t=0.02
-0.37493863049170884
% es.tEY (V/m) @ t=0.02
0
% es.tEZ (V/m) @ t=0.02
-1.1972565343693007
% es.Ex (V/m) @ t=0.02
-0.3749386304917041
% es.Ey (V/m) @ t=0.02
0.02800639240700703
% es.Ez (V/m) @ t=0.02
-1.1972565343692883
% es.tEx (V/m) @ t=0.02
-0.37493863049170884
% es.tEy (V/m) @ t=0.02
0
% es.tEz (V/m) @ t=0.02
-1.1972565343693007
% V (V) @ t=0.02
0.006317350506017537
% es.normE (V/m) @ t=0.04
1.268390069582174
% es.EX (V/m) @ t=0.04
-0.37838712095266147
% es.EY (V/m) @ t=0.04
0.028263996798827545
% es.EZ (V/m) @ t=0.04
-1.2082682283849215
% es.tEX (V/m) @ t=0.04
-0.378387120952663
% es.tEY (V/m) @ t=0.04
0
% es.tEZ (V/m) @ t=0.04
-1.2082682283849238
% es.Ex (V/m) @ t=0.04
-0.37838712095266147
% es.Ey (V/m) @ t=0.04
0.028263996798827545
% es.Ez (V/m) @ t=0.04
-1.2082682283849215
% es.tEx (V/m) @ t=0.04
-0.378387120952663
% es.tEy (V/m) @ t=0.04
0
% es.tEz (V/m) @ t=0.04
-1.2082682283849238
% V (V) @ t=0.04
0.006375453257436142
% es.normE (V/m) @ t=0.06
1.2800566375289821
% es.EX (V/m) @ t=0.06
-0.38186748068998955
% es.EY (V/m) @ t=0.06
0.02852394190948975
% es.EZ (V/m) @ t=0.06
-1.2193818074771219
% es.tEX (V/m) @ t=0.06
-0.3818674806899942
% es.tEY (V/m) @ t=0.06
0
% es.tEZ (V/m) @ t=0.06
-1.2193818074771365
% es.Ex (V/m) @ t=0.06
-0.38186748068998955
% es.Ey (V/m) @ t=0.06
0.02852394190948975
% es.Ez (V/m) @ t=0.06
-1.2193818074771219
% es.tEx (V/m) @ t=0.06
-0.3818674806899942
% es.tEy (V/m) @ t=0.06
0
% es.tEz (V/m) @ t=0.06
-1.2193818074771365
% V (V) @ t=0.06
0.006434095317897751
% es.normE (V/m) @ t=0.08
1.2918951129312344
% es.EX (V/m) @ t=0.08
-0.3853991112661404
% es.EY (V/m) @ t=0.08
0.028787701837082798
% es.EZ (V/m) @ t=0.08
-1.2306591505886537
% es.tEX (V/m) @ t=0.08
-0.38539911126614257
% es.tEY (V/m) @ t=0.08
0
% es.tEZ (V/m) @ t=0.08
-1.2306591505886653
% es.Ex (V/m) @ t=0.08
-0.3853991112661404
% es.Ey (V/m) @ t=0.08
0.028787701837082798
% es.Ez (V/m) @ t=0.08
-1.2306591505886537
% es.tEx (V/m) @ t=0.08
-0.38539911126614257
% es.tEy (V/m) @ t=0.08
0
% es.tEz (V/m) @ t=0.08
-1.2306591505886653
% V (V) @ t=0.08
0.006493602126487714
% es.normE (V/m) @ t=0.1
1.3038659059760704
% es.EX (V/m) @ t=0.1
-0.388970205148334
% es.EY (V/m) @ t=0.1
0.029054398039791388
% es.EZ (V/m) @ t=0.1
-1.242062543317532
% es.tEX (V/m) @ t=0.1
-0.38897020514833613
% es.tEY (V/m) @ t=0.1
0
% es.tEZ (V/m) @ t=0.1
-1.242062543317549
% es.Ex (V/m) @ t=0.1
-0.388970205148334
% es.Ey (V/m) @ t=0.1
0.029054398039791388
% es.Ez (V/m) @ t=0.1
-1.242062543317532
% es.tEx (V/m) @ t=0.1
-0.38897020514833613
% es.tEy (V/m) @ t=0.1
0
% es.tEz (V/m) @ t=0.1
-1.242062543317549
% V (V) @ t=0.1
0.006553774534097029
% es.normE (V/m) @ t=0.12
1.315836699020912
% es.EX (V/m) @ t=0.12
-0.39254129903053103
% es.EY (V/m) @ t=0.12
0.029321094242497472
% es.EZ (V/m) @ t=0.12
-1.2534659360464104
% es.tEX (V/m) @ t=0.12
-0.39254129903053325
% es.tEY (V/m) @ t=0.12
0
% es.tEZ (V/m) @ t=0.12
-1.2534659360464184
% es.Ex (V/m) @ t=0.12
-0.39254129903053103
% es.Ey (V/m) @ t=0.12
0.029321094242497472
% es.Ez (V/m) @ t=0.12
-1.2534659360464104
% es.tEx (V/m) @ t=0.12
-0.39254129903053325
% es.tEy (V/m) @ t=0.12
0
% es.tEz (V/m) @ t=0.12
-1.2534659360464184
% V (V) @ t=0.12
0.006613946941706342
% es.normE (V/m) @ t=0.14
1.3278976767101363
% es.EX (V/m) @ t=0.14
-0.39613931068999697
% es.EY (V/m) @ t=0.14
0.029589817470102142
% es.EZ (V/m) @ t=0.14
-1.2649552332179335
% es.tEX (V/m) @ t=0.14
-0.3961393106900033
% es.tEY (V/m) @ t=0.14
0
% es.tEZ (V/m) @ t=0.14
-1.2649552332179415
% es.Ex (V/m) @ t=0.14
-0.39613931068999697
% es.Ey (V/m) @ t=0.14
0.029589817470102142
% es.Ez (V/m) @ t=0.14
-1.2649552332179335
% es.tEx (V/m) @ t=0.14
-0.3961393106900033
% es.tEy (V/m) @ t=0.14
0
% es.tEz (V/m) @ t=0.14
-1.2649552332179415
% V (V) @ t=0.14
0.006674571921239905
% es.normE (V/m) @ t=0.16
1.340511877488272
% es.EX (V/m) @ t=0.16
-0.39990244509279327
% es.EY (V/m) @ t=0.16
0.029870975153474803
% es.EZ (V/m) @ t=0.16
-1.2769714972743276
% es.tEX (V/m) @ t=0.16
-0.39990244509279904
% es.tEY (V/m) @ t=0.16
0
% es.tEZ (V/m) @ t=0.16
-1.2769714972743351
% es.Ex (V/m) @ t=0.16
-0.39990244509279327
% es.Ey (V/m) @ t=0.16
0.029870975153474803
% es.Ez (V/m) @ t=0.16
-1.2769714972743276
% es.tEx (V/m) @ t=0.16
-0.39990244509279904
% es.tEy (V/m) @ t=0.16
0
% es.tEz (V/m) @ t=0.16
-1.2769714972743351
% V (V) @ t=0.16
0.006737973129915294
% es.normE (V/m) @ t=0.18
1.3531260782664192
% es.EX (V/m) @ t=0.18
-0.4036655794955839
% es.EY (V/m) @ t=0.18
0.030152132836853446
% es.EZ (V/m) @ t=0.18
-1.2889877613307248
% es.tEX (V/m) @ t=0.18
-0.4036655794955877
% es.tEY (V/m) @ t=0.18
0
% es.tEZ (V/m) @ t=0.18
-1.288987761330728
% es.Ex (V/m) @ t=0.18
-0.4036655794955839
% es.Ey (V/m) @ t=0.18
0.030152132836853446
% es.Ez (V/m) @ t=0.18
-1.2889877613307248
% es.tEx (V/m) @ t=0.18
-0.4036655794955877
% es.tEy (V/m) @ t=0.18
0
% es.tEz (V/m) @ t=0.18
-1.288987761330728
% V (V) @ t=0.18
0.006801374338590685
% es.normE (V/m) @ t=0.2
1.365740279044564
% es.EX (V/m) @ t=0.2
-0.40742871389837765
% es.EY (V/m) @ t=0.2
0.030433290520225205
% es.EZ (V/m) @ t=0.2
-1.3010040253871118
% es.tEX (V/m) @ t=0.2
-0.40742871389837987
% es.tEY (V/m) @ t=0.2
0
% es.tEZ (V/m) @ t=0.2
-1.3010040253871216
% es.Ex (V/m) @ t=0.2
-0.40742871389837765
% es.Ey (V/m) @ t=0.2
0.030433290520225205
% es.Ez (V/m) @ t=0.2
-1.3010040253871118
% es.tEx (V/m) @ t=0.2
-0.40742871389837987
% es.tEy (V/m) @ t=0.2
0
% es.tEz (V/m) @ t=0.2
-1.3010040253871216
% V (V) @ t=0.2
0.006864775547266074
% es.normE (V/m) @ t=0.22
1.378354479822732
% es.EX (V/m) @ t=0.22
-0.4111918483011732
% es.EY (V/m) @ t=0.22
0.030714448203595958
% es.EZ (V/m) @ t=0.22
-1.313020289443513
% es.tEX (V/m) @ t=0.22
-0.41119184830117916
% es.tEY (V/m) @ t=0.22
0
% es.tEZ (V/m) @ t=0.22
-1.3130202894435223
% es.Ex (V/m) @ t=0.22
-0.4111918483011732
% es.Ey (V/m) @ t=0.22
0.030714448203595958
% es.Ez (V/m) @ t=0.22
-1.313020289443513
% es.tEx (V/m) @ t=0.22
-0.41119184830117916
% es.tEy (V/m) @ t=0.22
0
% es.tEz (V/m) @ t=0.22
-1.3130202894435223
% V (V) @ t=0.22
0.006928176755941462
% es.normE (V/m) @ t=0.24
1.3909686806008965
% es.EX (V/m) @ t=0.24
-0.41495498270396425
% es.EY (V/m) @ t=0.24
0.030995605886971166
% es.EZ (V/m) @ t=0.24
-1.3250365534999036
% es.tEX (V/m) @ t=0.24
-0.4149549827039678
% es.tEY (V/m) @ t=0.24
0
% es.tEZ (V/m) @ t=0.24
-1.3250365534999151
% es.Ex (V/m) @ t=0.24
-0.41495498270396425
% es.Ey (V/m) @ t=0.24
0.030995605886971166
% es.Ez (V/m) @ t=0.24
-1.3250365534999036
% es.tEx (V/m) @ t=0.24
-0.4149549827039678
% es.tEy (V/m) @ t=0.24
0
% es.tEz (V/m) @ t=0.24
-1.3250365534999151
% V (V) @ t=0.24
0.006991577964616853
% es.normE (V/m) @ t=0.26
1.4035828813790734
% es.EX (V/m) @ t=0.26
-0.41871811710676154
% es.EY (V/m) @ t=0.26
0.03127676357034926
% es.EZ (V/m) @ t=0.26
-1.3370528175562977
% es.tEX (V/m) @ t=0.26
-0.41871811710677065
% es.tEY (V/m) @ t=0.26
0
% es.tEZ (V/m) @ t=0.26
-1.3370528175563159
% es.Ex (V/m) @ t=0.26
-0.41871811710676154
% es.Ey (V/m) @ t=0.26
0.03127676357034926
% es.Ez (V/m) @ t=0.26
-1.3370528175562977
% es.tEx (V/m) @ t=0.26
-0.41871811710677065
% es.tEy (V/m) @ t=0.26
0
% es.tEz (V/m) @ t=0.26
-1.3370528175563159
% V (V) @ t=0.26
0.007054979173292241
% es.normE (V/m) @ t=0.28
1.416618622405831
% es.EX (V/m) @ t=0.28
-0.42260678744161917
% es.EY (V/m) @ t=0.28
0.031567038127405224
% es.EZ (V/m) @ t=0.28
-1.3494707267813713
% es.tEX (V/m) @ t=0.28
-0.42260678744162306
% es.tEY (V/m) @ t=0.28
0
% es.tEZ (V/m) @ t=0.28
-1.349470726781381
% es.Ex (V/m) @ t=0.28
-0.42260678744161917
% es.Ey (V/m) @ t=0.28
0.031567038127405224
% es.Ez (V/m) @ t=0.28
-1.3494707267813713
% es.tEx (V/m) @ t=0.28
-0.42260678744162306
% es.tEy (V/m) @ t=0.28
0
% es.tEz (V/m) @ t=0.28
-1.349470726781381
% V (V) @ t=0.28
0.0071205108467314706
% es.normE (V/m) @ t=0.3
1.430684566858341
% es.EX (V/m) @ t=0.3
-0.4268022554016351
% es.EY (V/m) @ t=0.3
0.03187959343823704
% es.EZ (V/m) @ t=0.3
-1.3628702177884904
% es.tEX (V/m) @ t=0.3
-0.4268022554016362
% es.tEY (V/m) @ t=0.3
0
% es.tEZ (V/m) @ t=0.3
-1.3628702177884948
% es.Ex (V/m) @ t=0.3
-0.4268022554016351
% es.Ey (V/m) @ t=0.3
0.03187959343823704
% es.Ez (V/m) @ t=0.3
-1.3628702177884904
% es.tEx (V/m) @ t=0.3
-0.4268022554016362
% es.tEy (V/m) @ t=0.3
0
% es.tEz (V/m) @ t=0.3
-1.3628702177884948
% V (V) @ t=0.3
0.007191249169130088
% es.normE (V/m) @ t=0.32
1.4447505113120196
% es.EX (V/m) @ t=0.32
-0.430997723361659
% es.EY (V/m) @ t=0.32
0.03219214874906068
% es.EZ (V/m) @ t=0.32
-1.3762697087956055
% es.tEX (V/m) @ t=0.32
-0.43099772336166
% es.tEY (V/m) @ t=0.32
0
% es.tEZ (V/m) @ t=0.32
-1.3762697087956237
% es.Ex (V/m) @ t=0.32
-0.430997723361659
% es.Ey (V/m) @ t=0.32
0.03219214874906068
% es.Ez (V/m) @ t=0.32
-1.3762697087956055
% es.tEx (V/m) @ t=0.32
-0.43099772336166
% es.tEy (V/m) @ t=0.32
0
% es.tEz (V/m) @ t=0.32
-1.3762697087956237
% V (V) @ t=0.32
0.007261987491528706
% es.normE (V/m) @ t=0.34
1.4588164557668386
% es.EX (V/m) @ t=0.34
-0.4351931913216731
% es.EY (V/m) @ t=0.34
0.03250470405989519
% es.EZ (V/m) @ t=0.34
-1.3896691998027282
% es.tEX (V/m) @ t=0.34
-0.43519319132167666
% es.tEY (V/m) @ t=0.34
0
% es.tEZ (V/m) @ t=0.34
-1.3896691998027384
% es.Ex (V/m) @ t=0.34
-0.4351931913216731
% es.Ey (V/m) @ t=0.34
0.03250470405989519
% es.Ez (V/m) @ t=0.34
-1.3896691998027282
% es.tEx (V/m) @ t=0.34
-0.43519319132167666
% es.tEy (V/m) @ t=0.34
0
% es.tEz (V/m) @ t=0.34
-1.3896691998027384
% V (V) @ t=0.34
0.007332725813927322
% es.normE (V/m) @ t=0.36
1.47288240022274
% es.EX (V/m) @ t=0.36
-0.439388659281689
% es.EY (V/m) @ t=0.36
0.032817259370724564
% es.EZ (V/m) @ t=0.36
-1.403068690809829
% es.tEX (V/m) @ t=0.36
-0.4393886592816898
% es.tEY (V/m) @ t=0.36
0
% es.tEZ (V/m) @ t=0.36
-1.403068690809845
% es.Ex (V/m) @ t=0.36
-0.439388659281689
% es.Ey (V/m) @ t=0.36
0.032817259370724564
% es.Ez (V/m) @ t=0.36
-1.403068690809829
% es.tEx (V/m) @ t=0.36
-0.4393886592816898
% es.tEy (V/m) @ t=0.36
0
% es.tEz (V/m) @ t=0.36
-1.403068690809845
% V (V) @ t=0.36
0.007403464136325939
% es.normE (V/m) @ t=0.38
1.4869483446797491
% es.EX (V/m) @ t=0.38
-0.4435841272417058
% es.EY (V/m) @ t=0.38
0.033129814681552856
% es.EZ (V/m) @ t=0.38
-1.416468181816966
% es.tEX (V/m) @ t=0.38
-0.4435841272417136
% es.tEY (V/m) @ t=0.38
0
% es.tEZ (V/m) @ t=0.38
-1.416468181816974
% es.Ex (V/m) @ t=0.38
-0.4435841272417058
% es.Ey (V/m) @ t=0.38
0.033129814681552856
% es.Ez (V/m) @ t=0.38
-1.416468181816966
% es.tEx (V/m) @ t=0.38
-0.4435841272417136
% es.tEy (V/m) @ t=0.38
0
% es.tEz (V/m) @ t=0.38
-1.416468181816974
% V (V) @ t=0.38
0.007474202458724555
% es.normE (V/m) @ t=0.4
1.501014289137781
% es.EX (V/m) @ t=0.4
-0.4477795952017315
% es.EY (V/m) @ t=0.4
0.03344236999238093
% es.EZ (V/m) @ t=0.4
-1.4298676728240811
% es.tEX (V/m) @ t=0.4
-0.4477795952017374
% es.tEY (V/m) @ t=0.4
0
% es.tEZ (V/m) @ t=0.4
-1.4298676728240887
% es.Ex (V/m) @ t=0.4
-0.4477795952017315
% es.Ey (V/m) @ t=0.4
0.03344236999238093
% es.Ez (V/m) @ t=0.4
-1.4298676728240811
% es.tEx (V/m) @ t=0.4
-0.4477795952017374
% es.tEy (V/m) @ t=0.4
0
% es.tEz (V/m) @ t=0.4
-1.4298676728240887
% V (V) @ t=0.4
0.007544940781123171
% es.normE (V/m) @ t=0.42
1.515080233596816
% es.EX (V/m) @ t=0.42
-0.45197506316174474
% es.EY (V/m) @ t=0.42
0.03375492530321453
% es.EZ (V/m) @ t=0.42
-1.4432671638311896
% es.tEX (V/m) @ t=0.42
-0.4519750631617505
% es.tEY (V/m) @ t=0.42
0
% es.tEZ (V/m) @ t=0.42
-1.4432671638312025
% es.Ex (V/m) @ t=0.42
-0.45197506316174474
% es.Ey (V/m) @ t=0.42
0.03375492530321453
% es.Ez (V/m) @ t=0.42
-1.4432671638311896
% es.tEx (V/m) @ t=0.42
-0.4519750631617505
% es.tEy (V/m) @ t=0.42
0
% es.tEz (V/m) @ t=0.42
-1.4432671638312025
% V (V) @ t=0.42
0.0076156791035217886
% es.normE (V/m) @ t=0.44
1.529146178056851
% es.EX (V/m) @ t=0.44
-0.4561705311217633
% es.EY (V/m) @ t=0.44
0.03406748061403839
% es.EZ (V/m) @ t=0.44
-1.4566666548383123
% es.tEX (V/m) @ t=0.44
-0.4561705311217672
% es.tEY (V/m) @ t=0.44
0
% es.tEZ (V/m) @ t=0.44
-1.4566666548383242
% es.Ex (V/m) @ t=0.44
-0.4561705311217633
% es.Ey (V/m) @ t=0.44
0.03406748061403839
% es.Ez (V/m) @ t=0.44
-1.4566666548383123
% es.tEx (V/m) @ t=0.44
-0.4561705311217672
% es.tEy (V/m) @ t=0.44
0
% es.tEz (V/m) @ t=0.44
-1.4566666548383242
% V (V) @ t=0.44
0.007686417425920406
% es.normE (V/m) @ t=0.46
1.5432121225178352
% es.EX (V/m) @ t=0.46
-0.46036599908177567
% es.EY (V/m) @ t=0.46
0.03438003592486223
% es.EZ (V/m) @ t=0.46
-1.4700661458454274
% es.tEX (V/m) @ t=0.46
-0.4603659990817768
% es.tEY (V/m) @ t=0.46
0
% es.tEZ (V/m) @ t=0.46
-1.470066145845439
% es.Ex (V/m) @ t=0.46
-0.46036599908177567
% es.Ey (V/m) @ t=0.46
0.03438003592486223
% es.Ez (V/m) @ t=0.46
-1.4700661458454274
% es.tEx (V/m) @ t=0.46
-0.4603659990817768
% es.tEy (V/m) @ t=0.46
0
% es.tEz (V/m) @ t=0.46
-1.470066145845439
% V (V) @ t=0.46
0.007757155748319024
% es.normE (V/m) @ t=0.48
1.557278066979762
% es.EX (V/m) @ t=0.48
-0.46456146704180046
% es.EY (V/m) @ t=0.48
0.03469259123568964
% es.EZ (V/m) @ t=0.48
-1.48346563685255
% es.tEX (V/m) @ t=0.48
-0.4645614670418041
% es.tEY (V/m) @ t=0.48
0
% es.tEZ (V/m) @ t=0.48
-1.4834656368525678
% es.Ex (V/m) @ t=0.48
-0.46456146704180046
% es.Ey (V/m) @ t=0.48
0.03469259123568964
% es.Ez (V/m) @ t=0.48
-1.48346563685255
% es.tEx (V/m) @ t=0.48
-0.4645614670418041
% es.tEy (V/m) @ t=0.48
0
% es.tEz (V/m) @ t=0.48
-1.4834656368525678
% V (V) @ t=0.48
0.00782789407071764
% es.normE (V/m) @ t=0.5
1.5713440114425774
% es.EX (V/m) @ t=0.5
-0.4687569350018084
% es.EY (V/m) @ t=0.5
0.03500514654651524
% es.EZ (V/m) @ t=0.5
-1.496865127859658
% es.tEX (V/m) @ t=0.5
-0.4687569350018137
% es.tEY (V/m) @ t=0.5
0
% es.tEZ (V/m) @ t=0.5
-1.4968651278596745
% es.Ex (V/m) @ t=0.5
-0.4687569350018084
% es.Ey (V/m) @ t=0.5
0.03500514654651524
% es.Ez (V/m) @ t=0.5
-1.496865127859658
% es.tEx (V/m) @ t=0.5
-0.4687569350018137
% es.tEy (V/m) @ t=0.5
0
% es.tEz (V/m) @ t=0.5
-1.4968651278596745
% V (V) @ t=0.5
0.007898632393116256
% es.normE (V/m) @ t=0.52
1.5854099559063082
% es.EX (V/m) @ t=0.52
-0.47295240296183405
% es.EY (V/m) @ t=0.52
0.03531770185735508
% es.EZ (V/m) @ t=0.52
-1.510264618866795
% es.tEX (V/m) @ t=0.52
-0.4729524029618375
% es.tEY (V/m) @ t=0.52
0
% es.tEZ (V/m) @ t=0.52
-1.5102646188667963
% es.Ex (V/m) @ t=0.52
-0.47295240296183405
% es.Ey (V/m) @ t=0.52
0.03531770185735508
% es.Ez (V/m) @ t=0.52
-1.510264618866795
% es.tEx (V/m) @ t=0.52
-0.4729524029618375
% es.tEy (V/m) @ t=0.52
0
% es.tEz (V/m) @ t=0.52
-1.5102646188667963
% V (V) @ t=0.52
0.007969370715514873
% es.normE (V/m) @ t=0.54
1.5994759003708827
% es.EX (V/m) @ t=0.54
-0.4771478709218535
% es.EY (V/m) @ t=0.54
0.035630257168187345
% es.EZ (V/m) @ t=0.54
-1.5236641098739172
% es.tEX (V/m) @ t=0.54
-0.4771478709218613
% es.tEY (V/m) @ t=0.54
0
% es.tEZ (V/m) @ t=0.54
-1.5236641098739394
% es.Ex (V/m) @ t=0.54
-0.4771478709218535
% es.Ey (V/m) @ t=0.54
0.035630257168187345
% es.Ez (V/m) @ t=0.54
-1.5236641098739172
% es.tEx (V/m) @ t=0.54
-0.4771478709218613
% es.tEy (V/m) @ t=0.54
0
% es.tEz (V/m) @ t=0.54
-1.5236641098739394
% V (V) @ t=0.54
0.00804010903791349
% es.normE (V/m) @ t=0.56
1.6145116059189863
% es.EX (V/m) @ t=0.56
-0.48163322533154607
% es.EY (V/m) @ t=0.56
0.035965164749638526
% es.EZ (V/m) @ t=0.56
-1.5379871641522684
% es.tEX (V/m) @ t=0.56
-0.4816332253315494
% es.tEY (V/m) @ t=0.56
0
% es.tEZ (V/m) @ t=0.56
-1.5379871641522902
% es.Ex (V/m) @ t=0.56
-0.48163322533154607
% es.Ey (V/m) @ t=0.56
0.035965164749638526
% es.Ez (V/m) @ t=0.56
-1.5379871641522684
% es.tEx (V/m) @ t=0.56
-0.4816332253315494
% es.tEy (V/m) @ t=0.56
0
% es.tEz (V/m) @ t=0.56
-1.5379871641522902
% V (V) @ t=0.56
0.008115690542722508
% es.normE (V/m) @ t=0.58
1.630219069925073
% es.EX (V/m) @ t=0.58
-0.4863193855662673
% es.EY (V/m) @ t=0.58
0.03631555586317253
% es.EZ (V/m) @ t=0.58
-1.5529499754281018
% es.tEX (V/m) @ t=0.58
-0.48631938556626864
% es.tEY (V/m) @ t=0.58
0
% es.tEZ (V/m) @ t=0.58
-1.552949975428123
% es.Ex (V/m) @ t=0.58
-0.4863193855662673
% es.Ey (V/m) @ t=0.58
0.03631555586317253
% es.Ez (V/m) @ t=0.58
-1.5529499754281018
% es.tEx (V/m) @ t=0.58
-0.48631938556626864
% es.tEy (V/m) @ t=0.58
0
% es.tEz (V/m) @ t=0.58
-1.552949975428123
% V (V) @ t=0.58
0.008194626944736176
% es.normE (V/m) @ t=0.6
1.645926533931482
% es.EX (V/m) @ t=0.6
-0.4910055458009923
% es.EY (V/m) @ t=0.6
0.036665946976706304
% es.EZ (V/m) @ t=0.6
-1.5679127867039413
% es.tEX (V/m) @ t=0.6
-0.4910055458010021
% es.tEY (V/m) @ t=0.6
0
% es.tEZ (V/m) @ t=0.6
-1.5679127867039622
% es.Ex (V/m) @ t=0.6
-0.4910055458009923
% es.Ey (V/m) @ t=0.6
0.036665946976706304
% es.Ez (V/m) @ t=0.6
-1.5679127867039413
% es.tEx (V/m) @ t=0.6
-0.4910055458010021
% es.tEy (V/m) @ t=0.6
0
% es.tEz (V/m) @ t=0.6
-1.5679127867039622
% V (V) @ t=0.6
0.008273563346749844
% es.normE (V/m) @ t=0.62
1.6616339979381918
% es.EX (V/m) @ t=0.62
-0.49569170603571633
% es.EY (V/m) @ t=0.62
0.03701633809023985
% es.EZ (V/m) @ t=0.62
-1.5828755979797737
% es.tEX (V/m) @ t=0.62
-0.4956917060357213
% es.tEY (V/m) @ t=0.62
0
% es.tEZ (V/m) @ t=0.62
-1.582875597979796
% es.Ex (V/m) @ t=0.62
-0.49569170603571633
% es.Ey (V/m) @ t=0.62
0.03701633809023985
% es.Ez (V/m) @ t=0.62
-1.5828755979797737
% es.tEx (V/m) @ t=0.62
-0.4956917060357213
% es.tEy (V/m) @ t=0.62
0
% es.tEz (V/m) @ t=0.62
-1.582875597979796
% V (V) @ t=0.62
0.008352499748763512
% es.normE (V/m) @ t=0.64
1.6773414619451978
% es.EX (V/m) @ t=0.64
-0.5003778662704342
% es.EY (V/m) @ t=0.64
0.0373667292037774
% es.EZ (V/m) @ t=0.64
-1.5978384092556062
% es.tEX (V/m) @ t=0.64
-0.5003778662704406
% es.tEY (V/m) @ t=0.64
0
% es.tEZ (V/m) @ t=0.64
-1.5978384092556288
% es.Ex (V/m) @ t=0.64
-0.5003778662704342
% es.Ey (V/m) @ t=0.64
0.0373667292037774
% es.Ez (V/m) @ t=0.64
-1.5978384092556062
% es.tEx (V/m) @ t=0.64
-0.5003778662704406
% es.tEy (V/m) @ t=0.64
0
% es.tEz (V/m) @ t=0.64
-1.5978384092556288
% V (V) @ t=0.64
0.00843143615077718
% es.normE (V/m) @ t=0.66
1.693048925952502
% es.EX (V/m) @ t=0.66
-0.5050640265051574
% es.EY (V/m) @ t=0.66
0.037717120317314695
% es.EZ (V/m) @ t=0.66
-1.6128012205314453
% es.tEX (V/m) @ t=0.66
-0.5050640265051598
% es.tEY (V/m) @ t=0.66
0
% es.tEZ (V/m) @ t=0.66
-1.612801220531468
% es.Ex (V/m) @ t=0.66
-0.5050640265051574
% es.Ey (V/m) @ t=0.66
0.037717120317314695
% es.Ez (V/m) @ t=0.66
-1.6128012205314453
% es.tEx (V/m) @ t=0.66
-0.5050640265051598
% es.tEy (V/m) @ t=0.66
0
% es.tEz (V/m) @ t=0.66
-1.612801220531468
% V (V) @ t=0.66
0.008510372552790847
% es.normE (V/m) @ t=0.68
1.7087563899600835
% es.EX (V/m) @ t=0.68
-0.5097501867398804
% es.EY (V/m) @ t=0.68
0.038067511430841625
% es.EZ (V/m) @ t=0.68
-1.6277640318072786
% es.tEX (V/m) @ t=0.68
-0.5097501867398861
% es.tEY (V/m) @ t=0.68
0
% es.tEZ (V/m) @ t=0.68
-1.6277640318072946
% es.Ex (V/m) @ t=0.68
-0.5097501867398804
% es.Ey (V/m) @ t=0.68
0.038067511430841625
% es.Ez (V/m) @ t=0.68
-1.6277640318072786
% es.tEx (V/m) @ t=0.68
-0.5097501867398861
% es.tEy (V/m) @ t=0.68
0
% es.tEz (V/m) @ t=0.68
-1.6277640318072946
% V (V) @ t=0.68
0.008589308954804515
% es.normE (V/m) @ t=0.7
1.7244638539679293
% es.EX (V/m) @ t=0.7
-0.5144363469745993
% es.EY (V/m) @ t=0.7
0.03841790254438779
% es.EZ (V/m) @ t=0.7
-1.642726843083103
% es.tEX (V/m) @ t=0.7
-0.5144363469746054
% es.tEY (V/m) @ t=0.7
0
% es.tEZ (V/m) @ t=0.7
-1.6427268430831203
% es.Ex (V/m) @ t=0.7
-0.5144363469745993
% es.Ey (V/m) @ t=0.7
0.03841790254438779
% es.Ez (V/m) @ t=0.7
-1.642726843083103
% es.tEx (V/m) @ t=0.7
-0.5144363469746054
% es.tEy (V/m) @ t=0.7
0
% es.tEz (V/m) @ t=0.7
-1.6427268430831203
% V (V) @ t=0.7
0.008668245356818184
% es.normE (V/m) @ t=0.72
1.740171317976059
% es.EX (V/m) @ t=0.72
-0.5191225072093233
% es.EY (V/m) @ t=0.72
0.038768293657925126
% es.EZ (V/m) @ t=0.72
-1.6576896543589434
% es.tEX (V/m) @ t=0.72
-0.5191225072093246
% es.tEY (V/m) @ t=0.72
0
% es.tEZ (V/m) @ t=0.72
-1.6576896543589674
% es.Ex (V/m) @ t=0.72
-0.5191225072093233
% es.Ey (V/m) @ t=0.72
0.038768293657925126
% es.Ez (V/m) @ t=0.72
-1.6576896543589434
% es.tEx (V/m) @ t=0.72
-0.5191225072093246
% es.tEy (V/m) @ t=0.72
0
% es.tEz (V/m) @ t=0.72
-1.6576896543589674
% V (V) @ t=0.72
0.008747181758831848
% es.normE (V/m) @ t=0.74
1.7558787819844341
% es.EX (V/m) @ t=0.74
-0.5238086674440482
% es.EY (V/m) @ t=0.74
0.03911868477145357
% es.EZ (V/m) @ t=0.74
-1.6726524656347688
% es.tEX (V/m) @ t=0.74
-0.5238086674440545
% es.tEY (V/m) @ t=0.74
0
% es.tEZ (V/m) @ t=0.74
-1.6726524656347932
% es.Ex (V/m) @ t=0.74
-0.5238086674440482
% es.Ey (V/m) @ t=0.74
0.03911868477145357
% es.Ez (V/m) @ t=0.74
-1.6726524656347688
% es.tEx (V/m) @ t=0.74
-0.5238086674440545
% es.tEy (V/m) @ t=0.74
0
% es.tEz (V/m) @ t=0.74
-1.6726524656347932
% V (V) @ t=0.74
0.008826118160845518
% es.normE (V/m) @ t=0.76
1.7715862459930733
% es.EX (V/m) @ t=0.76
-0.5284948276787669
% es.EY (V/m) @ t=0.76
0.03946907588498401
% es.EZ (V/m) @ t=0.76
-1.6876152769106079
% es.tEX (V/m) @ t=0.76
-0.5284948276787773
% es.tEY (V/m) @ t=0.76
0
% es.tEZ (V/m) @ t=0.76
-1.6876152769106252
% es.Ex (V/m) @ t=0.76
-0.5284948276787669
% es.Ey (V/m) @ t=0.76
0.03946907588498401
% es.Ez (V/m) @ t=0.76
-1.6876152769106079
% es.tEx (V/m) @ t=0.76
-0.5284948276787773
% es.tEy (V/m) @ t=0.76
0
% es.tEz (V/m) @ t=0.76
-1.6876152769106252
% V (V) @ t=0.76
0.008905054562859184
% es.normE (V/m) @ t=0.78
1.7872937100019535
% es.EX (V/m) @ t=0.78
-0.5331809879134854
% es.EY (V/m) @ t=0.78
0.039819466998526704
% es.EZ (V/m) @ t=0.78
-1.7025780881864412
% es.tEX (V/m) @ t=0.78
-0.533180987913493
% es.tEY (V/m) @ t=0.78
0
% es.tEZ (V/m) @ t=0.78
-1.702578088186459
% es.Ex (V/m) @ t=0.78
-0.5331809879134854
% es.Ey (V/m) @ t=0.78
0.039819466998526704
% es.Ez (V/m) @ t=0.78
-1.7025780881864412
% es.tEx (V/m) @ t=0.78
-0.533180987913493
% es.tEy (V/m) @ t=0.78
0
% es.tEz (V/m) @ t=0.78
-1.702578088186459
% V (V) @ t=0.78
0.008983990964872854
% es.normE (V/m) @ t=0.8
1.8030011740110736
% es.EX (V/m) @ t=0.8
-0.537867148148208
% es.EY (V/m) @ t=0.8
0.040169858112071063
% es.EZ (V/m) @ t=0.8
-1.7175408994622727
% es.tEX (V/m) @ t=0.8
-0.5378671481482122
% es.tEY (V/m) @ t=0.8
0
% es.tEZ (V/m) @ t=0.8
-1.7175408994622918
% es.Ex (V/m) @ t=0.8
-0.537867148148208
% es.Ey (V/m) @ t=0.8
0.040169858112071063
% es.Ez (V/m) @ t=0.8
-1.7175408994622727
% es.tEx (V/m) @ t=0.8
-0.5378671481482122
% es.tEy (V/m) @ t=0.8
0
% es.tEz (V/m) @ t=0.8
-1.7175408994622918
% V (V) @ t=0.8
0.00906292736688652
% es.normE (V/m) @ t=0.82
1.8187086380204351
% es.EX (V/m) @ t=0.82
-0.542553308382931
% es.EY (V/m) @ t=0.82
0.0405202492256031
% es.EZ (V/m) @ t=0.82
-1.7325037107381132
% es.tEX (V/m) @ t=0.82
-0.542553308382935
% es.tEY (V/m) @ t=0.82
0
% es.tEZ (V/m) @ t=0.82
-1.732503710738131
% es.Ex (V/m) @ t=0.82
-0.542553308382931
% es.Ey (V/m) @ t=0.82
0.0405202492256031
% es.Ez (V/m) @ t=0.82
-1.7325037107381132
% es.tEx (V/m) @ t=0.82
-0.542553308382935
% es.tEy (V/m) @ t=0.82
0
% es.tEz (V/m) @ t=0.82
-1.732503710738131
% V (V) @ t=0.82
0.009141863768900188
% es.normE (V/m) @ t=0.84
1.8360827728203983
% es.EX (V/m) @ t=0.84
-0.5477364897932753
% es.EY (V/m) @ t=0.84
0.04090755059572289
% es.EZ (V/m) @ t=0.84
-1.7490542638082833
% es.tEX (V/m) @ t=0.84
-0.5477364897932802
% es.tEY (V/m) @ t=0.84
0
% es.tEZ (V/m) @ t=0.84
-1.7490542638083078
% es.Ex (V/m) @ t=0.84
-0.5477364897932753
% es.Ey (V/m) @ t=0.84
0.04090755059572289
% es.Ez (V/m) @ t=0.84
-1.7490542638082833
% es.tEx (V/m) @ t=0.84
-0.5477364897932802
% es.tEy (V/m) @ t=0.84
0
% es.tEz (V/m) @ t=0.84
-1.7490542638083078
% V (V) @ t=0.84
0.009229187163553516
% es.normE (V/m) @ t=0.86
1.8536604368586143
% es.EX (V/m) @ t=0.86
-0.5529803660581971
% es.EY (V/m) @ t=0.86
0.04129935934452021
% es.EZ (V/m) @ t=0.86
-1.7657987075254415
% es.tEX (V/m) @ t=0.86
-0.552980366058204
% es.tEY (V/m) @ t=0.86
0
% es.tEZ (V/m) @ t=0.86
-1.765798707525457
% es.Ex (V/m) @ t=0.86
-0.5529803660581971
% es.Ey (V/m) @ t=0.86
0.04129935934452021
% es.Ez (V/m) @ t=0.86
-1.7657987075254415
% es.tEx (V/m) @ t=0.86
-0.552980366058204
% es.tEy (V/m) @ t=0.86
0
% es.tEz (V/m) @ t=0.86
-1.765798707525457
% V (V) @ t=0.86
0.009317534754606348
% es.normE (V/m) @ t=0.88
1.8712381008968686
% es.EX (V/m) @ t=0.88
-0.5582242423231201
% es.EY (V/m) @ t=0.88
0.041691168093344416
% es.EZ (V/m) @ t=0.88
-1.7825431512425998
% es.tEX (V/m) @ t=0.88
-0.5582242423231278
% es.tEY (V/m) @ t=0.88
0
% es.tEZ (V/m) @ t=0.88
-1.7825431512426055
% es.Ex (V/m) @ t=0.88
-0.5582242423231201
% es.Ey (V/m) @ t=0.88
0.041691168093344416
% es.Ez (V/m) @ t=0.88
-1.7825431512425998
% es.tEx (V/m) @ t=0.88
-0.5582242423231278
% es.tEy (V/m) @ t=0.88
0
% es.tEz (V/m) @ t=0.88
-1.7825431512426055
% V (V) @ t=0.88
0.009405882345659176
% es.normE (V/m) @ t=0.9
1.888815764935159
% es.EX (V/m) @ t=0.9
-0.5634681185880367
% es.EY (V/m) @ t=0.9
0.042082976842145084
% es.EZ (V/m) @ t=0.9
-1.799287594959758
% es.tEX (V/m) @ t=0.9
-0.5634681185880481
% es.tEY (V/m) @ t=0.9
0
% es.tEZ (V/m) @ t=0.9
-1.7992875949597753
% es.Ex (V/m) @ t=0.9
-0.5634681185880367
% es.Ey (V/m) @ t=0.9
0.042082976842145084
% es.Ez (V/m) @ t=0.9
-1.799287594959758
% es.tEx (V/m) @ t=0.9
-0.5634681185880481
% es.tEy (V/m) @ t=0.9
0
% es.tEz (V/m) @ t=0.9
-1.7992875949597753
% V (V) @ t=0.9
0.00949422993671201
% es.normE (V/m) @ t=0.92
1.9063934289734852
% es.EX (V/m) @ t=0.92
-0.5687119948529531
% es.EY (V/m) @ t=0.92
0.04247478559096397
% es.EZ (V/m) @ t=0.92
-1.8160320386769166
% es.tEX (V/m) @ t=0.92
-0.5687119948529578
% es.tEY (V/m) @ t=0.92
0
% es.tEZ (V/m) @ t=0.92
-1.81603203867693
% es.Ex (V/m) @ t=0.92
-0.5687119948529531
% es.Ey (V/m) @ t=0.92
0.04247478559096397
% es.Ez (V/m) @ t=0.92
-1.8160320386769166
% es.tEx (V/m) @ t=0.92
-0.5687119948529578
% es.tEy (V/m) @ t=0.92
0
% es.tEz (V/m) @ t=0.92
-1.81603203867693
% V (V) @ t=0.92
0.009582577527764839
% es.normE (V/m) @ t=0.94
1.9239710930118483
% es.EX (V/m) @ t=0.94
-0.5739558711178752
% es.EY (V/m) @ t=0.94
0.042866594339771955
% es.EZ (V/m) @ t=0.94
-1.8327764823940749
% es.tEX (V/m) @ t=0.94
-0.5739558711178745
% es.tEY (V/m) @ t=0.94
0
% es.tEZ (V/m) @ t=0.94
-1.8327764823940864
% es.Ex (V/m) @ t=0.94
-0.5739558711178752
% es.Ey (V/m) @ t=0.94
0.042866594339771955
% es.Ez (V/m) @ t=0.94
-1.8327764823940749
% es.tEx (V/m) @ t=0.94
-0.5739558711178745
% es.tEy (V/m) @ t=0.94
0
% es.tEz (V/m) @ t=0.94
-1.8327764823940864
% V (V) @ t=0.94
0.00967092511881767
% es.normE (V/m) @ t=0.96
1.941548757050231
% es.EX (V/m) @ t=0.96
-0.57919974738279
% es.EY (V/m) @ t=0.96
0.043258403088583725
% es.EZ (V/m) @ t=0.96
-1.8495209261112189
% es.tEX (V/m) @ t=0.96
-0.5791997473827877
% es.tEY (V/m) @ t=0.96
0
% es.tEZ (V/m) @ t=0.96
-1.849520926111234
% es.Ex (V/m) @ t=0.96
-0.57919974738279
% es.Ey (V/m) @ t=0.96
0.043258403088583725
% es.Ez (V/m) @ t=0.96
-1.8495209261112189
% es.tEx (V/m) @ t=0.96
-0.5791997473827877
% es.tEy (V/m) @ t=0.96
0
% es.tEz (V/m) @ t=0.96
-1.849520926111234
% V (V) @ t=0.96
0.0097592727098705
% es.normE (V/m) @ t=0.98
1.9591264210886634
% es.EX (V/m) @ t=0.98
-0.5844436236477135
% es.EY (V/m) @ t=0.98
0.04365021183740064
% es.EZ (V/m) @ t=0.98
-1.866265369828378
% es.tEX (V/m) @ t=0.98
-0.5844436236477151
% es.tEY (V/m) @ t=0.98
0
% es.tEZ (V/m) @ t=0.98
-1.8662653698283975
% es.Ex (V/m) @ t=0.98
-0.5844436236477135
% es.Ey (V/m) @ t=0.98
0.04365021183740064
% es.Ez (V/m) @ t=0.98
-1.866265369828378
% es.tEx (V/m) @ t=0.98
-0.5844436236477151
% es.tEy (V/m) @ t=0.98
0
% es.tEz (V/m) @ t=0.98
-1.8662653698283975
% V (V) @ t=0.98
0.009847620300923331
% es.normE (V/m) @ t=1
1.976704085127132
% es.EX (V/m) @ t=1
-0.5896874999126303
% es.EY (V/m) @ t=1
0.04404202058620506
% es.EZ (V/m) @ t=1
-1.8830098135455433
% es.tEX (V/m) @ t=1
-0.5896874999126354
% es.tEY (V/m) @ t=1
0
% es.tEZ (V/m) @ t=1
-1.883009813545553
% es.Ex (V/m) @ t=1
-0.5896874999126303
% es.Ey (V/m) @ t=1
0.04404202058620506
% es.Ez (V/m) @ t=1
-1.8830098135455433
% es.tEx (V/m) @ t=1
-0.5896874999126354
% es.tEy (V/m) @ t=1
0
% es.tEz (V/m) @ t=1
-1.883009813545553
% V (V) @ t=1
0.00993596789197616
% es.normE (V/m) @ t=1.02
1.9942817491656175
% es.EX (V/m) @ t=1.02
-0.5949313761775433
% es.EY (V/m) @ t=1.02
0.04443382933501504
% es.EZ (V/m) @ t=1.02
-1.8997542572626944
% es.tEX (V/m) @ t=1.02
-0.5949313761775485
% es.tEY (V/m) @ t=1.02
0
% es.tEZ (V/m) @ t=1.02
-1.8997542572627157
% es.Ex (V/m) @ t=1.02
-0.5949313761775433
% es.Ey (V/m) @ t=1.02
0.04443382933501504
% es.Ez (V/m) @ t=1.02
-1.8997542572626944
% es.tEx (V/m) @ t=1.02
-0.5949313761775485