% Model:              1 neuron.mph
% Version:            COMSOL 6.0.0.405
% Date:               Mar 16 2023, 10:14
% Dimension:          0
% Nodes:              14017
% Expressions:        14017
% Description:        Electric field norm, Electric field, X component, Electric field, Y component, Electric field, Z component, Tangential electric field, X component, Tangential electric field, Y component, Tangential electric field, Z component, Electric field, x component, Electric field, y component, Electric field, z component, Tangential electric field, x component, Tangential electric field, y component, Tangential electric field, z component, Electric potential
% Length unit:        mm
% x
2
% y
12.199999999999998
% z
2
% es.normE (V/m) @ t=0
0.7472687031080805
% es.EX (V/m) @ t=0
-0.5349757500511311
% es.EY (V/m) @ t=0
0.2037372615316133
% es.EZ (V/m) @ t=0
-0.477383625882152
% es.tEX (V/m) @ t=0
-0.5349757500511279
% es.tEY (V/m) @ t=0
0
% es.tEZ (V/m) @ t=0
-0.4773836258821573
% es.Ex (V/m) @ t=0
-0.5349757500511311
% es.Ey (V/m) @ t=0
0.2037372615316133
% es.Ez (V/m) @ t=0
-0.477383625882152
% es.tEx (V/m) @ t=0
-0.5349757500511279
% es.tEy (V/m) @ t=0
0
% es.tEz (V/m) @ t=0
-0.4773836258821573
% V (V) @ t=0
0.007604804064185529
% es.normE (V/m) @ t=0.02
0.6454309859272929
% es.EX (V/m) @ t=0.02
-0.46206929918501183
% es.EY (V/m) @ t=0.02
0.17597196606314802
% es.EZ (V/m) @ t=0.02
-0.4123258236804439
% es.tEX (V/m) @ t=0.02
-0.4620692991850126
% es.tEY (V/m) @ t=0.02
0
% es.tEZ (V/m) @ t=0.02
-0.41232582368044834
% es.Ex (V/m) @ t=0.02
-0.46206929918501183
% es.Ey (V/m) @ t=0.02
0.17597196606314802
% es.Ez (V/m) @ t=0.02
-0.4123258236804439
% es.tEx (V/m) @ t=0.02
-0.4620692991850126
% es.tEy (V/m) @ t=0.02
0
% es.tEz (V/m) @ t=0.02
-0.41232582368044834
% V (V) @ t=0.02
0.0065684218918790754
% es.normE (V/m) @ t=0.04
0.6513684152334276
% es.EX (V/m) @ t=0.04
-0.4663199531571097
% es.EY (V/m) @ t=0.04
0.17759076226455162
% es.EZ (V/m) @ t=0.04
-0.4161188789199386
% es.tEX (V/m) @ t=0.04
-0.4663199531571076
% es.tEY (V/m) @ t=0.04
0
% es.tEZ (V/m) @ t=0.04
-0.4161188789199377
% es.Ex (V/m) @ t=0.04
-0.4663199531571097
% es.Ey (V/m) @ t=0.04
0.17759076226455162
% es.Ez (V/m) @ t=0.04
-0.4161188789199386
% es.tEx (V/m) @ t=0.04
-0.4663199531571076
% es.tEy (V/m) @ t=0.04
0
% es.tEz (V/m) @ t=0.04
-0.4161188789199377
% V (V) @ t=0.04
0.006628845909567596
% es.normE (V/m) @ t=0.06
0.6573591525839066
% es.EX (V/m) @ t=0.06
-0.47060877070660434
% es.EY (V/m) @ t=0.06
0.17922409097015835
% es.EZ (V/m) @ t=0.06
-0.41994599023059065
% es.tEX (V/m) @ t=0.06
-0.47060877070660156
% es.tEY (V/m) @ t=0.06
0
% es.tEZ (V/m) @ t=0.06
-0.4199459902305893
% es.Ex (V/m) @ t=0.06
-0.47060877070660434
% es.Ey (V/m) @ t=0.06
0.17922409097015835
% es.Ez (V/m) @ t=0.06
-0.41994599023059065
% es.tEx (V/m) @ t=0.06
-0.47060877070660156
% es.tEy (V/m) @ t=0.06
0
% es.tEz (V/m) @ t=0.06
-0.4199459902305893
% V (V) @ t=0.06
0.006689812524130571
% es.normE (V/m) @ t=0.08
0.663441803845181
% es.EX (V/m) @ t=0.08
-0.474963391616786
% es.EY (V/m) @ t=0.08
0.18088249635198395
% es.EZ (V/m) @ t=0.08
-0.4238318095264253
% es.tEX (V/m) @ t=0.08
-0.47496339161678325
% es.tEY (V/m) @ t=0.08
0
% es.tEZ (V/m) @ t=0.08
-0.4238318095264244
% es.Ex (V/m) @ t=0.08
-0.474963391616786
% es.Ey (V/m) @ t=0.08
0.18088249635198395
% es.Ez (V/m) @ t=0.08
-0.4238318095264253
% es.tEx (V/m) @ t=0.08
-0.47496339161678325
% es.tEy (V/m) @ t=0.08
0
% es.tEz (V/m) @ t=0.08
-0.4238318095264244
% V (V) @ t=0.08
0.006751713512162668
% es.normE (V/m) @ t=0.1
0.6695872636678046
% es.EX (V/m) @ t=0.1
-0.47936297867388555
% es.EY (V/m) @ t=0.1
0.18255803765960144
% es.EZ (V/m) @ t=0.1
-0.4277577464068316
% es.tEX (V/m) @ t=0.1
-0.479362978673886
% es.tEY (V/m) @ t=0.1
0
% es.tEZ (V/m) @ t=0.1
-0.4277577464068312
% es.Ex (V/m) @ t=0.1
-0.47936297867388555
% es.Ey (V/m) @ t=0.1
0.18255803765960144
% es.Ez (V/m) @ t=0.1
-0.4277577464068316
% es.tEx (V/m) @ t=0.1
-0.479362978673886
% es.tEy (V/m) @ t=0.1
0
% es.tEz (V/m) @ t=0.1
-0.4277577464068312
% V (V) @ t=0.1
0.00681425299607476
% es.normE (V/m) @ t=0.12
0.675732723490426
% es.EX (V/m) @ t=0.12
-0.4837625657309853
% es.EY (V/m) @ t=0.12
0.18423357896721426
% es.EZ (V/m) @ t=0.12
-0.4316836832872357
% es.tEX (V/m) @ t=0.12
-0.48376256573098164
% es.tEY (V/m) @ t=0.12
0
% es.tEZ (V/m) @ t=0.12
-0.4316836832872353
% es.Ex (V/m) @ t=0.12
-0.4837625657309853
% es.Ey (V/m) @ t=0.12
0.18423357896721426
% es.Ez (V/m) @ t=0.12
-0.4316836832872357
% es.tEx (V/m) @ t=0.12
-0.48376256573098164
% es.tEy (V/m) @ t=0.12
0
% es.tEz (V/m) @ t=0.12
-0.4316836832872353
% V (V) @ t=0.12
0.006876792479986851
% es.normE (V/m) @ t=0.14
0.6819430775691687
% es.EX (V/m) @ t=0.14
-0.4882086104286404
% es.EY (V/m) @ t=0.14
0.18592680511546766
% es.EZ (V/m) @ t=0.14
-0.4356510818893664
% es.tEX (V/m) @ t=0.14
-0.48820861042863783
% es.tEY (V/m) @ t=0.14
0
% es.tEZ (V/m) @ t=0.14
-0.43565108188936996
% es.Ex (V/m) @ t=0.14
-0.4882086104286404
% es.Ey (V/m) @ t=0.14
0.18592680511546766
% es.Ez (V/m) @ t=0.14
-0.4356510818893664
% es.tEx (V/m) @ t=0.14
-0.48820861042863783
% es.tEy (V/m) @ t=0.14
0
% es.tEz (V/m) @ t=0.14
-0.43565108188936996
% V (V) @ t=0.14
0.00693999286280551
% es.normE (V/m) @ t=0.16
0.6884161827913065
% es.EX (V/m) @ t=0.16
-0.49284275803253574
% es.EY (V/m) @ t=0.16
0.18769163563016655
% es.EZ (V/m) @ t=0.16
-0.4397863553612482
% es.tEX (V/m) @ t=0.16
-0.4928427580325334
% es.tEY (V/m) @ t=0.16
0
% es.tEZ (V/m) @ t=0.16
-0.43978635536124866
% es.Ex (V/m) @ t=0.16
-0.49284275803253574
% es.Ey (V/m) @ t=0.16
0.18769163563016655
% es.Ez (V/m) @ t=0.16
-0.4397863553612482
% es.tEx (V/m) @ t=0.16
-0.4928427580325334
% es.tEy (V/m) @ t=0.16
0
% es.tEz (V/m) @ t=0.16
-0.43978635536124866
% V (V) @ t=0.16
0.007005869167250932
% es.normE (V/m) @ t=0.18
0.6948892880134485
% es.EX (V/m) @ t=0.18
-0.4974769056364329
% es.EY (V/m) @ t=0.18
0.1894564661448641
% es.EZ (V/m) @ t=0.18
-0.44392162883313446
% es.tEX (V/m) @ t=0.18
-0.49747690563643276
% es.tEY (V/m) @ t=0.18
0
% es.tEZ (V/m) @ t=0.18
-0.443921628833138
% es.Ex (V/m) @ t=0.18
-0.4974769056364329
% es.Ey (V/m) @ t=0.18
0.1894564661448641
% es.Ez (V/m) @ t=0.18
-0.44392162883313446
% es.tEx (V/m) @ t=0.18
-0.49747690563643276
% es.tEy (V/m) @ t=0.18
0
% es.tEz (V/m) @ t=0.18
-0.443921628833138
% V (V) @ t=0.18
0.0070717454716963555
% es.normE (V/m) @ t=0.2
0.7013623932355901
% es.EX (V/m) @ t=0.2
-0.5021110532403342
% es.EY (V/m) @ t=0.2
0.19122129665956056
% es.EZ (V/m) @ t=0.2
-0.4480569023050158
% es.tEX (V/m) @ t=0.2
-0.5021110532403319
% es.tEY (V/m) @ t=0.2
0
% es.tEZ (V/m) @ t=0.2
-0.4480569023050167
% es.Ex (V/m) @ t=0.2
-0.5021110532403342
% es.Ey (V/m) @ t=0.2
0.19122129665956056
% es.Ez (V/m) @ t=0.2
-0.4480569023050158
% es.tEx (V/m) @ t=0.2
-0.5021110532403319
% es.tEy (V/m) @ t=0.2
0
% es.tEz (V/m) @ t=0.2
-0.4480569023050167
% V (V) @ t=0.2
0.007137621776141776
% es.normE (V/m) @ t=0.22
0.7078354984577291
% es.EX (V/m) @ t=0.22
-0.5067452008442305
% es.EY (V/m) @ t=0.22
0.19298612717425434
% es.EZ (V/m) @ t=0.22
-0.4521921757768985
% es.tEX (V/m) @ t=0.22
-0.506745200844229
% es.tEY (V/m) @ t=0.22
0
% es.tEZ (V/m) @ t=0.22
-0.45219217577689896
% es.Ex (V/m) @ t=0.22
-0.5067452008442305
% es.Ey (V/m) @ t=0.22
0.19298612717425434
% es.Ez (V/m) @ t=0.22
-0.4521921757768985
% es.tEx (V/m) @ t=0.22
-0.506745200844229
% es.tEy (V/m) @ t=0.22
0
% es.tEz (V/m) @ t=0.22
-0.45219217577689896
% V (V) @ t=0.22
0.0072034980805872
% es.normE (V/m) @ t=0.24
0.7143086036798716
% es.EX (V/m) @ t=0.24
-0.5113793484481329
% es.EY (V/m) @ t=0.24
0.1947509576889599
% es.EZ (V/m) @ t=0.24
-0.456327449248775
% es.tEX (V/m) @ t=0.24
-0.5113793484481324
% es.tEY (V/m) @ t=0.24
0
% es.tEZ (V/m) @ t=0.24
-0.45632744924877766
% es.Ex (V/m) @ t=0.24
-0.5113793484481329
% es.Ey (V/m) @ t=0.24
0.1947509576889599
% es.Ez (V/m) @ t=0.24
-0.456327449248775
% es.tEx (V/m) @ t=0.24
-0.5113793484481324
% es.tEy (V/m) @ t=0.24
0
% es.tEz (V/m) @ t=0.24
-0.45632744924877766
% V (V) @ t=0.24
0.007269374385032622
% es.normE (V/m) @ t=0.26
0.7207817089020196
% es.EX (V/m) @ t=0.26
-0.5160134960520345
% es.EY (V/m) @ t=0.26
0.19651578820366367
% es.EZ (V/m) @ t=0.26
-0.4604627227206599
% es.tEX (V/m) @ t=0.26
-0.5160134960520317
% es.tEY (V/m) @ t=0.26
0
% es.tEZ (V/m) @ t=0.26
-0.46046272272066346
% es.Ex (V/m) @ t=0.26
-0.5160134960520345
% es.Ey (V/m) @ t=0.26
0.19651578820366367
% es.Ez (V/m) @ t=0.26
-0.4604627227206599
% es.tEx (V/m) @ t=0.26
-0.5160134960520317
% es.tEy (V/m) @ t=0.26
0
% es.tEz (V/m) @ t=0.26
-0.46046272272066346
% V (V) @ t=0.26
0.007335250689478045
% es.normE (V/m) @ t=0.28
0.7275544663006918
% es.EX (V/m) @ t=0.28
-0.5208621401609254
% es.EY (V/m) @ t=0.28
0.19836197625353647
% es.EZ (V/m) @ t=0.28
-0.464789625557406
% es.tEX (V/m) @ t=0.28
-0.5208621401609244
% es.tEY (V/m) @ t=0.28
0
% es.tEZ (V/m) @ t=0.28
-0.4647896255574038
% es.Ex (V/m) @ t=0.28
-0.5208621401609254
% es.Ey (V/m) @ t=0.28
0.19836197625353647
% es.Ez (V/m) @ t=0.28
-0.464789625557406
% es.tEx (V/m) @ t=0.28
-0.5208621401609244
% es.tEy (V/m) @ t=0.28
0
% es.tEz (V/m) @ t=0.28
-0.4647896255574038
% V (V) @ t=0.28
0.007404196688748209
% es.normE (V/m) @ t=0.3
0.7347654963271681
% es.EX (V/m) @ t=0.3
-0.5260245078266556
% es.EY (V/m) @ t=0.3
0.20032715820175784
% es.EZ (V/m) @ t=0.3
-0.4693968063685956
% es.tEX (V/m) @ t=0.3
-0.5260245078266532
% es.tEY (V/m) @ t=0.3
0
% es.tEZ (V/m) @ t=0.3
-0.46939680636860004
% es.Ex (V/m) @ t=0.3
-0.5260245078266556
% es.Ey (V/m) @ t=0.3
0.20032715820175784
% es.Ez (V/m) @ t=0.3
-0.4693968063685956
% es.tEx (V/m) @ t=0.3
-0.5260245078266532
% es.tEy (V/m) @ t=0.3
0
% es.tEz (V/m) @ t=0.3
-0.46939680636860004
% V (V) @ t=0.3
0.0074776324375317475
% es.normE (V/m) @ t=0.32
0.7419765263553246
% es.EX (V/m) @ t=0.32
-0.5311868754923977
% es.EY (V/m) @ t=0.32
0.20229234014998254
% es.EZ (V/m) @ t=0.32
-0.4740039871797759
% es.tEX (V/m) @ t=0.32
-0.5311868754923985
% es.tEY (V/m) @ t=0.32
0
% es.tEZ (V/m) @ t=0.32
-0.47400398717977943
% es.Ex (V/m) @ t=0.32
-0.5311868754923977
% es.Ey (V/m) @ t=0.32
0.20229234014998254
% es.Ez (V/m) @ t=0.32
-0.4740039871797759
% es.tEx (V/m) @ t=0.32
-0.5311868754923985
% es.tEy (V/m) @ t=0.32
0
% es.tEz (V/m) @ t=0.32
-0.47400398717977943
% V (V) @ t=0.32
0.007551068186315285
% es.normE (V/m) @ t=0.34
0.7491875563851202
% es.EX (V/m) @ t=0.34
-0.5363492431581421
% es.EY (V/m) @ t=0.34
0.20425752209820347
% es.EZ (V/m) @ t=0.34
-0.4786111679909686
% es.tEX (V/m) @ t=0.34
-0.5363492431581411
% es.tEY (V/m) @ t=0.34
0
% es.tEZ (V/m) @ t=0.34
-0.4786111679909757
% es.Ex (V/m) @ t=0.34
-0.5363492431581421
% es.Ey (V/m) @ t=0.34
0.20425752209820347
% es.Ez (V/m) @ t=0.34
-0.4786111679909686
% es.tEx (V/m) @ t=0.34
-0.5363492431581411
% es.tEy (V/m) @ t=0.34
0
% es.tEz (V/m) @ t=0.34
-0.4786111679909757
% V (V) @ t=0.34
0.007624503935098822
% es.normE (V/m) @ t=0.36
0.7563985864164906
% es.EX (V/m) @ t=0.36
-0.5415116108238763
% es.EY (V/m) @ t=0.36
0.20622270404641574
% es.EZ (V/m) @ t=0.36
-0.48321834880216397
% es.tEX (V/m) @ t=0.36
-0.5415116108238758
% es.tEY (V/m) @ t=0.36
0
% es.tEZ (V/m) @ t=0.36
-0.48321834880216574
% es.Ex (V/m) @ t=0.36
-0.5415116108238763
% es.Ey (V/m) @ t=0.36
0.20622270404641574
% es.Ez (V/m) @ t=0.36
-0.48321834880216397
% es.tEx (V/m) @ t=0.36
-0.5415116108238758
% es.tEy (V/m) @ t=0.36
0
% es.tEz (V/m) @ t=0.36
-0.48321834880216574
% V (V) @ t=0.36
0.007697939683882357
% es.normE (V/m) @ t=0.38
0.7636096164493932
% es.EX (V/m) @ t=0.38
-0.5466739784896147
% es.EY (V/m) @ t=0.38
0.20818788599463556
% es.EZ (V/m) @ t=0.38
-0.48782552961334336
% es.tEX (V/m) @ t=0.38
-0.546673978489612
% es.tEY (V/m) @ t=0.38
0
% es.tEZ (V/m) @ t=0.38
-0.4878255296133487
% es.Ex (V/m) @ t=0.38
-0.5466739784896147
% es.Ey (V/m) @ t=0.38
0.20818788599463556
% es.Ez (V/m) @ t=0.38
-0.48782552961334336
% es.tEx (V/m) @ t=0.38
-0.546673978489612
% es.tEy (V/m) @ t=0.38
0
% es.tEz (V/m) @ t=0.38
-0.4878255296133487
% V (V) @ t=0.38
0.007771375432665894
% es.normE (V/m) @ t=0.4
0.7708206464837954
% es.EX (V/m) @ t=0.4
-0.551836346155351
% es.EY (V/m) @ t=0.4
0.2101530679428656
% es.EZ (V/m) @ t=0.4
-0.49243271042452896
% es.tEX (V/m) @ t=0.4
-0.5518363461553513
% es.tEY (V/m) @ t=0.4
0
% es.tEZ (V/m) @ t=0.4
-0.49243271042452985
% es.Ex (V/m) @ t=0.4
-0.551836346155351
% es.Ey (V/m) @ t=0.4
0.2101530679428656
% es.Ez (V/m) @ t=0.4
-0.49243271042452896
% es.tEx (V/m) @ t=0.4
-0.5518363461553513
% es.tEy (V/m) @ t=0.4
0
% es.tEz (V/m) @ t=0.4
-0.49243271042452985
% V (V) @ t=0.4
0.007844811181449432
% es.normE (V/m) @ t=0.42
0.7780316765196627
% es.EX (V/m) @ t=0.42
-0.5569987138210984
% es.EY (V/m) @ t=0.42
0.21211824989109251
% es.EZ (V/m) @ t=0.42
-0.497039891235719
% es.tEX (V/m) @ t=0.42
-0.5569987138210979
% es.tEY (V/m) @ t=0.42
0
% es.tEZ (V/m) @ t=0.42
-0.49703989123572345
% es.Ex (V/m) @ t=0.42
-0.5569987138210984
% es.Ey (V/m) @ t=0.42
0.21211824989109251
% es.Ez (V/m) @ t=0.42
-0.497039891235719
% es.tEx (V/m) @ t=0.42
-0.5569987138210979
% es.tEy (V/m) @ t=0.42
0
% es.tEz (V/m) @ t=0.42
-0.49703989123572345
% V (V) @ t=0.42
0.007918246930232969
% es.normE (V/m) @ t=0.44
0.7852427065569341
% es.EX (V/m) @ t=0.44
-0.5621610814868422
% es.EY (V/m) @ t=0.44
0.21408343183930612
% es.EZ (V/m) @ t=0.44
-0.5016470720469073
% es.tEX (V/m) @ t=0.44
-0.5621610814868407
% es.tEY (V/m) @ t=0.44
0
% es.tEZ (V/m) @ t=0.44
-0.501647072046917
% es.Ex (V/m) @ t=0.44
-0.5621610814868422
% es.Ey (V/m) @ t=0.44
0.21408343183930612
% es.Ez (V/m) @ t=0.44
-0.5016470720469073
% es.tEx (V/m) @ t=0.44
-0.5621610814868407
% es.tEy (V/m) @ t=0.44
0
% es.tEz (V/m) @ t=0.44
-0.501647072046917
% V (V) @ t=0.44
0.007991682679016506
% es.normE (V/m) @ t=0.46
0.7924537365955775
% es.EX (V/m) @ t=0.46
-0.5673234491525717
% es.EY (V/m) @ t=0.46
0.21604861378753037
% es.EZ (V/m) @ t=0.46
-0.5062542528581004
% es.tEX (V/m) @ t=0.46
-0.5673234491525685
% es.tEY (V/m) @ t=0.46
0
% es.tEZ (V/m) @ t=0.46
-0.5062542528581035
% es.Ex (V/m) @ t=0.46
-0.5673234491525717
% es.Ey (V/m) @ t=0.46
0.21604861378753037
% es.Ez (V/m) @ t=0.46
-0.5062542528581004
% es.tEx (V/m) @ t=0.46
-0.5673234491525685
% es.tEy (V/m) @ t=0.46
0
% es.tEz (V/m) @ t=0.46
-0.5062542528581035
% V (V) @ t=0.46
0.008065118427800042
% es.normE (V/m) @ t=0.48
0.7996647666355576
% es.EX (V/m) @ t=0.48
-0.5724858168183126
% es.EY (V/m) @ t=0.48
0.21801379573574708
% es.EZ (V/m) @ t=0.48
-0.5108614336692829
% es.tEX (V/m) @ t=0.48
-0.5724858168183151
% es.tEY (V/m) @ t=0.48
0
% es.tEZ (V/m) @ t=0.48
-0.5108614336692918
% es.Ex (V/m) @ t=0.48
-0.5724858168183126
% es.Ey (V/m) @ t=0.48
0.21801379573574708
% es.Ez (V/m) @ t=0.48
-0.5108614336692829
% es.tEx (V/m) @ t=0.48
-0.5724858168183151
% es.tEy (V/m) @ t=0.48
0
% es.tEz (V/m) @ t=0.48
-0.5108614336692918
% V (V) @ t=0.48
0.008138554176583579
% es.normE (V/m) @ t=0.5
0.8068757966768504
% es.EX (V/m) @ t=0.5
-0.5776481844840554
% es.EY (V/m) @ t=0.5
0.21997897768396601
% es.EZ (V/m) @ t=0.5
-0.515468614480481
% es.tEX (V/m) @ t=0.5
-0.5776481844840544
% es.tEY (V/m) @ t=0.5
0
% es.tEZ (V/m) @ t=0.5
-0.5154686144804854
% es.Ex (V/m) @ t=0.5
-0.5776481844840554
% es.Ey (V/m) @ t=0.5
0.21997897768396601
% es.Ez (V/m) @ t=0.5
-0.515468614480481
% es.tEx (V/m) @ t=0.5
-0.5776481844840544
% es.tEy (V/m) @ t=0.5
0
% es.tEz (V/m) @ t=0.5
-0.5154686144804854
% V (V) @ t=0.5
0.008211989925367116
% es.normE (V/m) @ t=0.52
0.8140868267194004
% es.EX (V/m) @ t=0.52
-0.582810552149792
% es.EY (V/m) @ t=0.52
0.22194415963219116
% es.EZ (V/m) @ t=0.52
-0.5200757952916675
% es.tEX (V/m) @ t=0.52
-0.582810552149791
% es.tEY (V/m) @ t=0.52
0
% es.tEZ (V/m) @ t=0.52
-0.520075795291671
% es.Ex (V/m) @ t=0.52
-0.582810552149792
% es.Ey (V/m) @ t=0.52
0.22194415963219116
% es.Ez (V/m) @ t=0.52
-0.5200757952916675
% es.tEx (V/m) @ t=0.52
-0.582810552149791
% es.tEy (V/m) @ t=0.52
0
% es.tEz (V/m) @ t=0.52
-0.520075795291671
% V (V) @ t=0.52
0.008285425674150651
% es.normE (V/m) @ t=0.54
0.8212978567631792
% es.EX (V/m) @ t=0.54
-0.5879729198155262
% es.EY (V/m) @ t=0.54
0.22390934158040388
% es.EZ (V/m) @ t=0.54
-0.524682976102854
% es.tEX (V/m) @ t=0.54
-0.5879729198155268
% es.tEY (V/m) @ t=0.54
0
% es.tEZ (V/m) @ t=0.54
-0.5246829761028575
% es.Ex (V/m) @ t=0.54
-0.5879729198155262
% es.Ey (V/m) @ t=0.54
0.22390934158040388
% es.Ez (V/m) @ t=0.54
-0.524682976102854
% es.tEx (V/m) @ t=0.54
-0.5879729198155268
% es.tEy (V/m) @ t=0.54
0
% es.tEz (V/m) @ t=0.54
-0.5246829761028575
% V (V) @ t=0.54
0.00835886142293419
% es.normE (V/m) @ t=0.56
0.8291931316955944
% es.EX (V/m) @ t=0.56
-0.5936252576469992
% es.EY (V/m) @ t=0.56
0.22606251001523314
% es.EZ (V/m) @ t=0.56
-0.5297264359992107
% es.tEX (V/m) @ t=0.56
-0.5936252576469994
% es.tEY (V/m) @ t=0.56
0
% es.tEZ (V/m) @ t=0.56
-0.5297264359992093
% es.Ex (V/m) @ t=0.56
-0.5936252576469992
% es.Ey (V/m) @ t=0.56
0.22606251001523314
% es.Ez (V/m) @ t=0.56
-0.5297264359992107
% es.tEx (V/m) @ t=0.56
-0.5936252576469994
% es.tEy (V/m) @ t=0.56
0
% es.tEz (V/m) @ t=0.56
-0.5297264359992093
% V (V) @ t=0.56
0.008439175660787968
% es.normE (V/m) @ t=0.58
0.8372364777514619
% es.EX (V/m) @ t=0.58
-0.5993836254002823
% es.EY (V/m) @ t=0.58
0.2282563588707618
% es.EZ (V/m) @ t=0.58
-0.534864307026143
% es.tEX (V/m) @ t=0.58
-0.5993836254002831
% es.tEY (V/m) @ t=0.58
0
% es.tEZ (V/m) @ t=0.58
-0.5348643070261421
% es.Ex (V/m) @ t=0.58
-0.5993836254002823
% es.Ey (V/m) @ t=0.58
0.2282563588707618
% es.Ez (V/m) @ t=0.58
-0.534864307026143
% es.tEx (V/m) @ t=0.58
-0.5993836254002831
% es.tEy (V/m) @ t=0.58
0
% es.tEz (V/m) @ t=0.58
-0.5348643070261421
% V (V) @ t=0.58
0.008520978408982634
% es.normE (V/m) @ t=0.6
0.8452798238093715
% es.EX (V/m) @ t=0.6
-0.6051419931535754
% es.EY (V/m) @ t=0.6
0.23045020772627423
% es.EZ (V/m) @ t=0.6
-0.5400021780530944
% es.tEX (V/m) @ t=0.6
-0.605141993153578
% es.tEY (V/m) @ t=0.6
0
% es.tEZ (V/m) @ t=0.6
-0.5400021780531006
% es.Ex (V/m) @ t=0.6
-0.6051419931535754
% es.Ey (V/m) @ t=0.6
0.23045020772627423
% es.Ez (V/m) @ t=0.6
-0.5400021780530944
% es.tEx (V/m) @ t=0.6
-0.605141993153578
% es.tEy (V/m) @ t=0.6
0
% es.tEz (V/m) @ t=0.6
-0.5400021780531006
% V (V) @ t=0.6
0.008602781157177304
% es.normE (V/m) @ t=0.62
0.8533231698692518
% es.EX (V/m) @ t=0.62
-0.6109003609068676
% es.EY (V/m) @ t=0.62
0.23264405658181264
% es.EZ (V/m) @ t=0.62
-0.5451400490800338
% es.tEX (V/m) @ t=0.62
-0.6109003609068684
% es.tEY (V/m) @ t=0.62
0
% es.tEZ (V/m) @ t=0.62
-0.5451400490800298
% es.Ex (V/m) @ t=0.62
-0.6109003609068676
% es.Ey (V/m) @ t=0.62
0.23264405658181264
% es.Ez (V/m) @ t=0.62
-0.5451400490800338
% es.tEx (V/m) @ t=0.62
-0.6109003609068684
% es.tEy (V/m) @ t=0.62
0
% es.tEz (V/m) @ t=0.62
-0.5451400490800298
% V (V) @ t=0.62
0.00868458390537197
% es.normE (V/m) @ t=0.64
0.8613665159310415
% es.EX (V/m) @ t=0.64
-0.6166587286601647
% es.EY (V/m) @ t=0.64
0.23483790543735417
% es.EZ (V/m) @ t=0.64
-0.5502779201069576
% es.tEX (V/m) @ t=0.64
-0.6166587286601657
% es.tEY (V/m) @ t=0.64
0
% es.tEZ (V/m) @ t=0.64
-0.5502779201069536
% es.Ex (V/m) @ t=0.64
-0.6166587286601647
% es.Ey (V/m) @ t=0.64
0.23483790543735417
% es.Ez (V/m) @ t=0.64
-0.5502779201069576
% es.tEx (V/m) @ t=0.64
-0.6166587286601657
% es.tEy (V/m) @ t=0.64
0
% es.tEz (V/m) @ t=0.64
-0.5502779201069536
% V (V) @ t=0.64
0.00876638665356664
% es.normE (V/m) @ t=0.66
0.8694098619946934
% es.EX (V/m) @ t=0.66
-0.62241709641346
% es.EY (V/m) @ t=0.66
0.23703175429286882
% es.EZ (V/m) @ t=0.66
-0.5554157911338948
% es.tEX (V/m) @ t=0.66
-0.622417096413457
% es.tEY (V/m) @ t=0.66
0
% es.tEZ (V/m) @ t=0.66
-0.5554157911338988
% es.Ex (V/m) @ t=0.66
-0.62241709641346
% es.Ey (V/m) @ t=0.66
0.23703175429286882
% es.Ez (V/m) @ t=0.66
-0.5554157911338948
% es.tEx (V/m) @ t=0.66
-0.622417096413457
% es.tEy (V/m) @ t=0.66
0
% es.tEz (V/m) @ t=0.66
-0.5554157911338988
% V (V) @ t=0.66
0.008848189401761308
% es.normE (V/m) @ t=0.68
0.8774532080601558
% es.EX (V/m) @ t=0.68
-0.628175464166744
% es.EY (V/m) @ t=0.68
0.23922560314839925
% es.EZ (V/m) @ t=0.68
-0.5605536621608374
% es.tEX (V/m) @ t=0.68
-0.6281754641667443
% es.tEY (V/m) @ t=0.68
0
% es.tEZ (V/m) @ t=0.68
-0.5605536621608387
% es.Ex (V/m) @ t=0.68
-0.628175464166744
% es.Ey (V/m) @ t=0.68
0.23922560314839925
% es.Ez (V/m) @ t=0.68
-0.5605536621608374
% es.tEx (V/m) @ t=0.68
-0.6281754641667443
% es.tEy (V/m) @ t=0.68
0
% es.tEz (V/m) @ t=0.68
-0.5605536621608387
% V (V) @ t=0.68
0.008929992149955974
% es.normE (V/m) @ t=0.7
0.8854965541273812
% es.EX (V/m) @ t=0.7
-0.6339338319200268
% es.EY (V/m) @ t=0.7
0.24141945200393544
% es.EZ (V/m) @ t=0.7
-0.5656915331877794
% es.tEX (V/m) @ t=0.7
-0.6339338319200276
% es.tEY (V/m) @ t=0.7
0
% es.tEZ (V/m) @ t=0.7
-0.5656915331877768
% es.Ex (V/m) @ t=0.7
-0.6339338319200268
% es.Ey (V/m) @ t=0.7
0.24141945200393544
% es.Ez (V/m) @ t=0.7
-0.5656915331877794
% es.tEx (V/m) @ t=0.7
-0.6339338319200276
% es.tEy (V/m) @ t=0.7
0
% es.tEz (V/m) @ t=0.7
-0.5656915331877768
% V (V) @ t=0.7
0.009011794898150642
% es.normE (V/m) @ t=0.72
0.8935399001963211
% es.EX (V/m) @ t=0.72
-0.639692199673323
% es.EY (V/m) @ t=0.72
0.243613300859451
% es.EZ (V/m) @ t=0.72
-0.570829404214718
% es.tEX (V/m) @ t=0.72
-0.639692199673326
% es.tEY (V/m) @ t=0.72
0
% es.tEZ (V/m) @ t=0.72
-0.5708294042147228
% es.Ex (V/m) @ t=0.72
-0.639692199673323
% es.Ey (V/m) @ t=0.72
0.243613300859451
% es.Ez (V/m) @ t=0.72
-0.570829404214718
% es.tEx (V/m) @ t=0.72
-0.639692199673326
% es.tEy (V/m) @ t=0.72
0
% es.tEz (V/m) @ t=0.72
-0.5708294042147228
% V (V) @ t=0.72
0.009093597646345312
% es.normE (V/m) @ t=0.74
0.9015832462669318
% es.EX (V/m) @ t=0.74
-0.6454505674266161
% es.EY (V/m) @ t=0.74
0.24580714971499407
% es.EZ (V/m) @ t=0.74
-0.5759672752416503
% es.tEX (V/m) @ t=0.74
-0.6454505674266167
% es.tEY (V/m) @ t=0.74
0
% es.tEZ (V/m) @ t=0.74
-0.5759672752416547
% es.Ex (V/m) @ t=0.74
-0.6454505674266161
% es.Ey (V/m) @ t=0.74
0.24580714971499407
% es.Ez (V/m) @ t=0.74
-0.5759672752416503
% es.tEx (V/m) @ t=0.74
-0.6454505674266167
% es.tEy (V/m) @ t=0.74
0
% es.tEz (V/m) @ t=0.74
-0.5759672752416547
% V (V) @ t=0.74
0.009175400394539979
% es.normE (V/m) @ t=0.76
0.9096265923391629
% es.EX (V/m) @ t=0.76
-0.651208935179906
% es.EY (V/m) @ t=0.76
0.24800099857051583
% es.EZ (V/m) @ t=0.76
-0.5811051462685914
% es.tEX (V/m) @ t=0.76
-0.6512089351799066
% es.tEY (V/m) @ t=0.76
0
% es.tEZ (V/m) @ t=0.76
-0.5811051462685937
% es.Ex (V/m) @ t=0.76
-0.651208935179906
% es.Ey (V/m) @ t=0.76
0.24800099857051583
% es.Ez (V/m) @ t=0.76
-0.5811051462685914
% es.tEx (V/m) @ t=0.76
-0.6512089351799066
% es.tEy (V/m) @ t=0.76
0
% es.tEz (V/m) @ t=0.76
-0.5811051462685937
% V (V) @ t=0.76
0.009257203142734649
% es.normE (V/m) @ t=0.78
0.9176699384129823
% es.EX (V/m) @ t=0.78
-0.6569673029332004
% es.EY (V/m) @ t=0.78
0.2501948474260476
% es.EZ (V/m) @ t=0.78
-0.5862430172955335
% es.tEX (V/m) @ t=0.78
-0.6569673029331988
% es.tEY (V/m) @ t=0.78
0
% es.tEZ (V/m) @ t=0.78
-0.5862430172955388
% es.Ex (V/m) @ t=0.78
-0.6569673029332004
% es.Ey (V/m) @ t=0.78
0.2501948474260476
% es.Ez (V/m) @ t=0.78
-0.5862430172955335
% es.tEx (V/m) @ t=0.78
-0.6569673029331988
% es.tEy (V/m) @ t=0.78
0
% es.tEz (V/m) @ t=0.78
-0.5862430172955388
% V (V) @ t=0.78
0.009339005890929316
% es.normE (V/m) @ t=0.8
0.9257132844883289
% es.EX (V/m) @ t=0.8
-0.6627256706864879
% es.EY (V/m) @ t=0.8
0.25238869628157534
% es.EZ (V/m) @ t=0.8
-0.5913808883224649
% es.tEX (V/m) @ t=0.8
-0.6627256706864855
% es.tEY (V/m) @ t=0.8
0
% es.tEZ (V/m) @ t=0.8
-0.591380888322468
% es.Ex (V/m) @ t=0.8
-0.6627256706864879
% es.Ey (V/m) @ t=0.8
0.25238869628157534
% es.Ez (V/m) @ t=0.8
-0.5913808883224649
% es.tEx (V/m) @ t=0.8
-0.6627256706864855
% es.tEy (V/m) @ t=0.8
0
% es.tEz (V/m) @ t=0.8
-0.591380888322468
% V (V) @ t=0.8
0.009420808639123984
% es.normE (V/m) @ t=0.82
0.9339826920070526
% es.EX (V/m) @ t=0.82
-0.6686458593512226
% es.EY (V/m) @ t=0.82
0.25464394958492975
% es.EZ (V/m) @ t=0.82
-0.5966633111146193
% es.tEX (V/m) @ t=0.82
-0.6686458593512179
% es.tEY (V/m) @ t=0.82
0
% es.tEZ (V/m) @ t=0.82
-0.5966633111146153
% es.Ex (V/m) @ t=0.82
-0.6686458593512226
% es.Ey (V/m) @ t=0.82
0.25464394958492975
% es.Ez (V/m) @ t=0.82
-0.5966633111146193
% es.tEx (V/m) @ t=0.82
-0.6686458593512179
% es.tEy (V/m) @ t=0.82
0
% es.tEz (V/m) @ t=0.82
-0.5966633111146153
% V (V) @ t=0.82
0.009504925565441222
% es.normE (V/m) @ t=0.84
0.9429753941778323
% es.EX (V/m) @ t=0.84
-0.675083801945058
% es.EY (V/m) @ t=0.84
0.2570956694255302
% es.EZ (V/m) @ t=0.84
-0.6024082343569979
% es.tEX (V/m) @ t=0.84
-0.6750838019450627
% es.tEY (V/m) @ t=0.84
0
% es.tEZ (V/m) @ t=0.84
-0.6024082343570054
% es.Ex (V/m) @ t=0.84
-0.675083801945058
% es.Ey (V/m) @ t=0.84
0.2570956694255302
% es.Ez (V/m) @ t=0.84
-0.6024082343569979
% es.tEx (V/m) @ t=0.84
-0.6750838019450627
% es.tEy (V/m) @ t=0.84
0
% es.tEz (V/m) @ t=0.84
-0.6024082343570054
% V (V) @ t=0.84
0.009596446817966878
% es.normE (V/m) @ t=0.86
0.951968096348637
% es.EX (V/m) @ t=0.86
-0.6815217445389052
% es.EY (V/m) @ t=0.86
0.2595473892661313
% es.EZ (V/m) @ t=0.86
-0.6081531575993853
% es.tEX (V/m) @ t=0.86
-0.6815217445389021
% es.tEY (V/m) @ t=0.86
0
% es.tEZ (V/m) @ t=0.86
-0.6081531575993813
% es.Ex (V/m) @ t=0.86
-0.6815217445389052
% es.Ey (V/m) @ t=0.86
0.2595473892661313
% es.Ez (V/m) @ t=0.86
-0.6081531575993853
% es.tEx (V/m) @ t=0.86
-0.6815217445389021
% es.tEy (V/m) @ t=0.86
0
% es.tEz (V/m) @ t=0.86
-0.6081531575993813
% V (V) @ t=0.86
0.009687968070492535
% es.normE (V/m) @ t=0.88
0.9609607985194524
% es.EX (V/m) @ t=0.88
-0.6879596871327558
% es.EY (V/m) @ t=0.88
0.26199910910675217
% es.EZ (V/m) @ t=0.88
-0.6138980808417616
% es.tEX (V/m) @ t=0.88
-0.6879596871327545
% es.tEY (V/m) @ t=0.88
0
% es.tEZ (V/m) @ t=0.88
-0.6138980808417713
% es.Ex (V/m) @ t=0.88
-0.6879596871327558
% es.Ey (V/m) @ t=0.88
0.26199910910675217
% es.Ez (V/m) @ t=0.88
-0.6138980808417616
% es.tEx (V/m) @ t=0.88
-0.6879596871327545
% es.tEy (V/m) @ t=0.88
0
% es.tEz (V/m) @ t=0.88
-0.6138980808417713
% V (V) @ t=0.88
0.009779489323018191
% es.normE (V/m) @ t=0.9
0.9699535006902912
% es.EX (V/m) @ t=0.9
-0.6943976297266126
% es.EY (V/m) @ t=0.9
0.2644508289473526
% es.EZ (V/m) @ t=0.9
-0.6196430040841587
% es.tEX (V/m) @ t=0.9
-0.6943976297266095
% es.tEY (V/m) @ t=0.9
0
% es.tEZ (V/m) @ t=0.9
-0.6196430040841534
% es.Ex (V/m) @ t=0.9
-0.6943976297266126
% es.Ey (V/m) @ t=0.9
0.2644508289473526
% es.Ez (V/m) @ t=0.9
-0.6196430040841587
% es.tEx (V/m) @ t=0.9
-0.6943976297266095
% es.tEy (V/m) @ t=0.9
0
% es.tEz (V/m) @ t=0.9
-0.6196430040841534
% V (V) @ t=0.9
0.009871010575543848
% es.normE (V/m) @ t=0.92
0.9789462028611207
% es.EX (V/m) @ t=0.92
-0.7008355723204525
% es.EY (V/m) @ t=0.92
0.26690254878796993
% es.EZ (V/m) @ t=0.92
-0.6253879273265364
% es.tEX (V/m) @ t=0.92
-0.7008355723204507
% es.tEY (V/m) @ t=0.92
0
% es.tEZ (V/m) @ t=0.92
-0.6253879273265364
% es.Ex (V/m) @ t=0.92
-0.7008355723204525
% es.Ey (V/m) @ t=0.92
0.26690254878796993
% es.Ez (V/m) @ t=0.92
-0.6253879273265364
% es.tEx (V/m) @ t=0.92
-0.7008355723204507
% es.tEy (V/m) @ t=0.92
0
% es.tEz (V/m) @ t=0.92
-0.6253879273265364
% V (V) @ t=0.92
0.009962531828069505
% es.normE (V/m) @ t=0.94
0.9879389050319587
% es.EX (V/m) @ t=0.94
-0.7072735149142952
% es.EY (V/m) @ t=0.94
0.2693542686285757
% es.EZ (V/m) @ t=0.94
-0.6311328505689127
% es.tEX (V/m) @ t=0.94
-0.7072735149142959
% es.tEY (V/m) @ t=0.94
0
% es.tEZ (V/m) @ t=0.94
-0.6311328505689193
% es.Ex (V/m) @ t=0.94
-0.7072735149142952
% es.Ey (V/m) @ t=0.94
0.2693542686285757
% es.Ez (V/m) @ t=0.94
-0.6311328505689127
% es.tEx (V/m) @ t=0.94
-0.7072735149142959
% es.tEy (V/m) @ t=0.94
0
% es.tEz (V/m) @ t=0.94
-0.6311328505689193
% V (V) @ t=0.94
0.010054053080595161
% es.normE (V/m) @ t=0.96
0.9969316072028171
% es.EX (V/m) @ t=0.96
-0.7137114575081425
% es.EY (V/m) @ t=0.96
0.2718059884691819
% es.EZ (V/m) @ t=0.96
-0.6368777738113005
% es.tEX (V/m) @ t=0.96
-0.7137114575081407
% es.tEY (V/m) @ t=0.96
0
% es.tEZ (V/m) @ t=0.96
-0.6368777738113032
% es.Ex (V/m) @ t=0.96
-0.7137114575081425
% es.Ey (V/m) @ t=0.96
0.2718059884691819
% es.Ez (V/m) @ t=0.96
-0.6368777738113005
% es.tEx (V/m) @ t=0.96
-0.7137114575081407
% es.tEy (V/m) @ t=0.96
0
% es.tEz (V/m) @ t=0.96
-0.6368777738113032
% V (V) @ t=0.96
0.010145574333120818
% es.normE (V/m) @ t=0.98
1.0059243093736816
% es.EX (V/m) @ t=0.98
-0.7201494001019877
% es.EY (V/m) @ t=0.98
0.2742577083097886
% es.EZ (V/m) @ t=0.98
-0.6426226970536879
% es.tEX (V/m) @ t=0.98
-0.720149400101993
% es.tEY (V/m) @ t=0.98
0
% es.tEZ (V/m) @ t=0.98
-0.6426226970536941
% es.Ex (V/m) @ t=0.98
-0.7201494001019877
% es.Ey (V/m) @ t=0.98
0.2742577083097886
% es.Ez (V/m) @ t=0.98
-0.6426226970536879
% es.tEx (V/m) @ t=0.98
-0.720149400101993
% es.tEy (V/m) @ t=0.98
0
% es.tEz (V/m) @ t=0.98
-0.6426226970536941
% V (V) @ t=0.98
0.010237095585646474
% es.normE (V/m) @ t=1
1.0149170115445592
% es.EX (V/m) @ t=1
-0.7265873426958376
% es.EY (V/m) @ t=1
0.2767094281504068
% es.EZ (V/m) @ t=1
-0.6483676202960682
% es.tEX (V/m) @ t=1
-0.7265873426958311
% es.tEY (V/m) @ t=1
0
% es.tEZ (V/m) @ t=1
-0.6483676202960691
% es.Ex (V/m) @ t=1
-0.7265873426958376
% es.Ey (V/m) @ t=1
0.2767094281504068
% es.Ez (V/m) @ t=1
-0.6483676202960682
% es.tEx (V/m) @ t=1
-0.7265873426958311
% es.tEy (V/m) @ t=1
0
% es.tEz (V/m) @ t=1
-0.6483676202960691
% V (V) @ t=1
0.010328616838172131
% es.normE (V/m) @ t=1.02
1.0239097137154447
% es.EX (V/m) @ t=1.02
-0.7330252852896908
% es.EY (V/m) @ t=1.02
0.27916114799101055
% es.EZ (V/m) @ t=1.02
-0.6541125435384503
% es.tEX (V/m) @ t=1.02
-0.7330252852896826
% es.tEY (V/m) @ t=1.02
0
% es.tEZ (V/m) @ t=1.02
-0.6541125435384512
% es.Ex (V/m) @ t=1.02
-0.7330252852896908
% es.Ey (V/m) @ t=1.02
0.27916114799101055
% es.Ez (V/m) @ t=1.02
-0.6541125435384503
% es.tEx (V/m) @ t=1.02
-0.7330252852896826
% es.tEy (V/m) @ t=1.02
0