% Model:              1 neuron.mph
% Version:            COMSOL 6.1.0.252
% Date:               Mar 18 2023, 12:09
% Dimension:          0
% Nodes:              14017
% Expressions:        14017
% Description:        Electric field norm, Electric field, X component, Electric field, Y component, Electric field, Z component, Tangential electric field, X component, Tangential electric field, Y component, Tangential electric field, Z component, Electric field, x component, Electric field, y component, Electric field, z component, Tangential electric field, x component, Tangential electric field, y component, Tangential electric field, z component, Electric potential
% Length unit:        mm
% x
2
% y
12.2
% z
1.6599999999999997
% es.normE (V/m) @ t=0
1.256717586375372
% es.EX (V/m) @ t=0
-1.2143208628824533
% es.EY (V/m) @ t=0
0.09354737353508352
% es.EZ (V/m) @ t=0
-0.30950027746368836
% es.tEX (V/m) @ t=0
-1.2143208628824471
% es.tEY (V/m) @ t=0
0
% es.tEZ (V/m) @ t=0
-0.30950027746368924
% es.Ex (V/m) @ t=0
-1.2143208628824533
% es.Ey (V/m) @ t=0
0.09354737353508352
% es.Ez (V/m) @ t=0
-0.30950027746368836
% es.tEx (V/m) @ t=0
-1.2143208628824471
% es.tEy (V/m) @ t=0
0
% es.tEz (V/m) @ t=0
-0.30950027746368924
% V (V) @ t=0
0.00728293333251559
% es.normE (V/m) @ t=0.02
1.0854443310088155
% es.EX (V/m) @ t=0.02
-1.0488256954591333
% es.EY (V/m) @ t=0.02
0.0807981594796019
% es.EZ (V/m) @ t=0.02
-0.26731966295624665
% es.tEX (V/m) @ t=0.02
-1.0488256954591328
% es.tEY (V/m) @ t=0.02
0
% es.tEZ (V/m) @ t=0.02
-0.26731966295624154
% es.Ex (V/m) @ t=0.02
-1.0488256954591333
% es.Ey (V/m) @ t=0.02
0.0807981594796019
% es.Ez (V/m) @ t=0.02
-0.26731966295624665
% es.tEx (V/m) @ t=0.02
-1.0488256954591328
% es.tEy (V/m) @ t=0.02
0
% es.tEz (V/m) @ t=0.02
-0.26731966295624154
% V (V) @ t=0.02
0.00629037004567285
% es.normE (V/m) @ t=0.04
1.0954320980362167
% es.EX (V/m) @ t=0.04
-1.0584765140901657
% es.EY (V/m) @ t=0.04
0.08154163188686925
% es.EZ (V/m) @ t=0.04
-0.26977941740996525
% es.tEX (V/m) @ t=0.04
-1.058476514090172
% es.tEY (V/m) @ t=0.04
0
% es.tEZ (V/m) @ t=0.04
-0.26977941740996325
% es.Ex (V/m) @ t=0.04
-1.0584765140901657
% es.Ey (V/m) @ t=0.04
0.08154163188686925
% es.Ez (V/m) @ t=0.04
-0.26977941740996525
% es.tEx (V/m) @ t=0.04
-1.058476514090172
% es.tEy (V/m) @ t=0.04
0
% es.tEz (V/m) @ t=0.04
-0.26977941740996325
% V (V) @ t=0.04
0.006348251083606173
% es.normE (V/m) @ t=0.06
1.1055120683486914
% es.EX (V/m) @ t=0.06
-1.0682164254259705
% es.EY (V/m) @ t=0.06
0.08229196771480618
% es.EZ (V/m) @ t=0.06
-0.27226187939553426
% es.tEX (V/m) @ t=0.06
-1.0682164254259714
% es.tEY (V/m) @ t=0.06
0
% es.tEZ (V/m) @ t=0.06
-0.27226187939553714
% es.Ex (V/m) @ t=0.06
-1.0682164254259705
% es.Ey (V/m) @ t=0.06
0.08229196771480618
% es.Ez (V/m) @ t=0.06
-0.27226187939553426
% es.tEx (V/m) @ t=0.06
-1.0682164254259714
% es.tEy (V/m) @ t=0.06
0
% es.tEz (V/m) @ t=0.06
-0.27226187939553714
% V (V) @ t=0.06
0.0064066664577601806
% es.normE (V/m) @ t=0.08
1.11574083235663
% es.EX (V/m) @ t=0.08
-1.0781001114884208
% es.EY (V/m) @ t=0.08
0.08305336854309997
% es.EZ (V/m) @ t=0.08
-0.27478098579474475
% es.tEX (V/m) @ t=0.08
-1.07810011148843
% es.tEY (V/m) @ t=0.08
0
% es.tEZ (V/m) @ t=0.08
-0.2747809857947461
% es.Ex (V/m) @ t=0.08
-1.0781001114884208
% es.Ey (V/m) @ t=0.08
0.08305336854309997
% es.Ez (V/m) @ t=0.08
-0.27478098579474475
% es.tEx (V/m) @ t=0.08
-1.07810011148843
% es.tEy (V/m) @ t=0.08
0
% es.tEz (V/m) @ t=0.08
-0.2747809857947461
% V (V) @ t=0.08
0.00646594436545263
% es.normE (V/m) @ t=0.1
1.1260835288466347
% es.EX (V/m) @ t=0.1
-1.0880938869697387
% es.EY (V/m) @ t=0.1
0.08382324192764296
% es.EZ (V/m) @ t=0.1
-0.27732815110457154
% es.tEX (V/m) @ t=0.1
-1.0880938869697392
% es.tEY (V/m) @ t=0.1
0
% es.tEZ (V/m) @ t=0.1
-0.27732815110456954
% es.Ex (V/m) @ t=0.1
-1.0880938869697387
% es.Ey (V/m) @ t=0.1
0.08382324192764296
% es.Ez (V/m) @ t=0.1
-0.27732815110457154
% es.tEx (V/m) @ t=0.1
-1.0880938869697392
% es.tEy (V/m) @ t=0.1
0
% es.tEz (V/m) @ t=0.1
-0.27732815110456954
% V (V) @ t=0.1
0.006525882721738662
% es.normE (V/m) @ t=0.12
1.136426225336638
% es.EX (V/m) @ t=0.12
-1.0980876624510572
% es.EY (V/m) @ t=0.12
0.08459311531217928
% es.EZ (V/m) @ t=0.12
-0.2798753164143908
% es.tEX (V/m) @ t=0.12
-1.0980876624510643
% es.tEY (V/m) @ t=0.12
0
% es.tEZ (V/m) @ t=0.12
-0.279875316414385
% es.Ex (V/m) @ t=0.12
-1.0980876624510572
% es.Ey (V/m) @ t=0.12
0.08459311531217928
% es.Ez (V/m) @ t=0.12
-0.2798753164143908
% es.tEx (V/m) @ t=0.12
-1.0980876624510643
% es.tEy (V/m) @ t=0.12
0
% es.tEz (V/m) @ t=0.12
-0.279875316414385
% V (V) @ t=0.12
0.006585821078024695
% es.normE (V/m) @ t=0.14
1.1468482796547264
% es.EX (V/m) @ t=0.14
-1.1081581183600333
% es.EY (V/m) @ t=0.14
0.08536889849778218
% es.EZ (V/m) @ t=0.14
-0.2824420257181659
% es.tEX (V/m) @ t=0.14
-1.1081581183600324
% es.tEY (V/m) @ t=0.14
0
% es.tEZ (V/m) @ t=0.14
-0.2824420257181597
% es.Ex (V/m) @ t=0.14
-1.1081581183600333
% es.Ey (V/m) @ t=0.14
0.08536889849778218
% es.Ez (V/m) @ t=0.14
-0.2824420257181659
% es.tEx (V/m) @ t=0.14
-1.1081581183600324
% es.tEy (V/m) @ t=0.14
0
% es.tEz (V/m) @ t=0.14
-0.2824420257181597
% V (V) @ t=0.14
0.00664621927108642
% es.normE (V/m) @ t=0.16
1.1577470130116962
% es.EX (V/m) @ t=0.16
-1.1186891709541644
% es.EY (V/m) @ t=0.16
0.08618018011328937
% es.EZ (V/m) @ t=0.16
-0.2851261300222414
% es.tEX (V/m) @ t=0.16
-1.1186891709541626
% es.tEY (V/m) @ t=0.16
0
% es.tEZ (V/m) @ t=0.16
-0.2851261300222365
% es.Ex (V/m) @ t=0.16
-1.1186891709541644
% es.Ey (V/m) @ t=0.16
0.08618018011328937
% es.Ez (V/m) @ t=0.16
-0.2851261300222414
% es.tEx (V/m) @ t=0.16
-1.1186891709541626
% es.tEy (V/m) @ t=0.16
0
% es.tEz (V/m) @ t=0.16
-0.2851261300222365
% V (V) @ t=0.16
0.006709379567869699
% es.normE (V/m) @ t=0.18
1.1686457463686777
% es.EX (V/m) @ t=0.18
-1.1292202235483066
% es.EY (V/m) @ t=0.18
0.08699146172880196
% es.EZ (V/m) @ t=0.18
-0.2878102343263176
% es.tEX (V/m) @ t=0.18
-1.1292202235483089
% es.tEY (V/m) @ t=0.18
0
% es.tEZ (V/m) @ t=0.18
-0.28781023432631336
% es.Ex (V/m) @ t=0.18
-1.1292202235483066
% es.Ey (V/m) @ t=0.18
0.08699146172880196
% es.Ez (V/m) @ t=0.18
-0.2878102343263176
% es.tEx (V/m) @ t=0.18
-1.1292202235483089
% es.tEy (V/m) @ t=0.18
0
% es.tEz (V/m) @ t=0.18
-0.28781023432631336
% V (V) @ t=0.18
0.0067725398646529805
% es.normE (V/m) @ t=0.2
1.1795444797256673
% es.EX (V/m) @ t=0.2
-1.1397512761424582
% es.EY (V/m) @ t=0.2
0.0878027433443101
% es.EZ (V/m) @ t=0.2
-0.290494338630394
% es.tEX (V/m) @ t=0.2
-1.1397512761424569
% es.tEY (V/m) @ t=0.2
0
% es.tEZ (V/m) @ t=0.2
-0.290494338630392
% es.Ex (V/m) @ t=0.2
-1.1397512761424582
% es.Ey (V/m) @ t=0.2
0.0878027433443101
% es.Ez (V/m) @ t=0.2
-0.290494338630394
% es.tEx (V/m) @ t=0.2
-1.1397512761424569
% es.tEy (V/m) @ t=0.2
0
% es.tEz (V/m) @ t=0.2
-0.290494338630392
% V (V) @ t=0.2
0.006835700161436262
% es.normE (V/m) @ t=0.22
1.1904432130826343
% es.EX (V/m) @ t=0.22
-1.150282328736584
% es.EY (V/m) @ t=0.22
0.0886140249598315
% es.EZ (V/m) @ t=0.22
-0.2931784429344737
% es.tEX (V/m) @ t=0.22
-1.1502823287365818
% es.tEY (V/m) @ t=0.22
0
% es.tEZ (V/m) @ t=0.22
-0.29317844293445816
% es.Ex (V/m) @ t=0.22
-1.150282328736584
% es.Ey (V/m) @ t=0.22
0.0886140249598315
% es.Ez (V/m) @ t=0.22
-0.2931784429344737
% es.tEx (V/m) @ t=0.22
-1.1502823287365818
% es.tEy (V/m) @ t=0.22
0
% es.tEz (V/m) @ t=0.22
-0.29317844293445816
% V (V) @ t=0.22
0.006898860458219544
% es.normE (V/m) @ t=0.24
1.2013419464396242
% es.EX (V/m) @ t=0.24
-1.1608133813307364
% es.EY (V/m) @ t=0.24
0.08942530657533698
% es.EZ (V/m) @ t=0.24
-0.2958625472385472
% es.tEX (V/m) @ t=0.24
-1.1608133813307475
% es.tEY (V/m) @ t=0.24
0
% es.tEZ (V/m) @ t=0.24
-0.2958625472385492
% es.Ex (V/m) @ t=0.24
-1.1608133813307364
% es.Ey (V/m) @ t=0.24
0.08942530657533698
% es.Ez (V/m) @ t=0.24
-0.2958625472385472
% es.tEx (V/m) @ t=0.24
-1.1608133813307475
% es.tEy (V/m) @ t=0.24
0
% es.tEz (V/m) @ t=0.24
-0.2958625472385492
% V (V) @ t=0.24
0.006962020755002823
% es.normE (V/m) @ t=0.26
1.2122406797965972
% es.EX (V/m) @ t=0.26
-1.1713444339248689
% es.EY (V/m) @ t=0.26
0.09023658819086372
% es.EZ (V/m) @ t=0.26
-0.29854665154262383
% es.tEX (V/m) @ t=0.26
-1.1713444339248653
% es.tEY (V/m) @ t=0.26
0
% es.tEZ (V/m) @ t=0.26
-0.2985466515426243
% es.Ex (V/m) @ t=0.26
-1.1713444339248689
% es.Ey (V/m) @ t=0.26
0.09023658819086372
% es.Ez (V/m) @ t=0.26
-0.29854665154262383
% es.tEx (V/m) @ t=0.26
-1.1713444339248653
% es.tEy (V/m) @ t=0.26
0
% es.tEz (V/m) @ t=0.26
-0.2985466515426243
% V (V) @ t=0.26
0.007025181051786104
% es.normE (V/m) @ t=0.28
1.2235105330281049
% es.EX (V/m) @ t=0.28
-1.182234127119834
% es.EY (V/m) @ t=0.28
0.09107489074565006
% es.EZ (V/m) @ t=0.28
-0.30132215584170763
% es.tEX (V/m) @ t=0.28
-1.1822341271198322
% es.tEY (V/m) @ t=0.28
0
% es.tEZ (V/m) @ t=0.28
-0.3013221558417065
% es.Ex (V/m) @ t=0.28
-1.182234127119834
% es.Ey (V/m) @ t=0.28
0.09107489074565006
% es.Ez (V/m) @ t=0.28
-0.30132215584170763
% es.tEx (V/m) @ t=0.28
-1.1822341271198322
% es.tEy (V/m) @ t=0.28
0
% es.tEz (V/m) @ t=0.28
-0.3013221558417065
% V (V) @ t=0.28
0.007090505513010068
% es.normE (V/m) @ t=0.3
1.2356652943173936
% es.EX (V/m) @ t=0.3
-1.1939789724586776
% es.EY (V/m) @ t=0.3
0.09197762274346233
% es.EZ (V/m) @ t=0.3
-0.3043155967087825
% es.tEX (V/m) @ t=0.3
-1.1939789724586802
% es.tEY (V/m) @ t=0.3
0
% es.tEZ (V/m) @ t=0.3
-0.3043155967087774
% es.Ex (V/m) @ t=0.3
-1.1939789724586776
% es.Ey (V/m) @ t=0.3
0.09197762274346233
% es.Ez (V/m) @ t=0.3
-0.3043155967087825
% es.tEx (V/m) @ t=0.3
-1.1939789724586802
% es.tEy (V/m) @ t=0.3
0
% es.tEz (V/m) @ t=0.3
-0.3043155967087774
% V (V) @ t=0.3
0.007160990265224193
% es.normE (V/m) @ t=0.32
1.2478200556116383
% es.EX (V/m) @ t=0.32
-1.2057238177975274
% es.EY (V/m) @ t=0.32
0.09288035474126671
% es.EZ (V/m) @ t=0.32
-0.30730903757585204
% es.tEX (V/m) @ t=0.32
-1.2057238177975211
% es.tEY (V/m) @ t=0.32
0
% es.tEZ (V/m) @ t=0.32
-0.30730903757585537
% es.Ex (V/m) @ t=0.32
-1.2057238177975274
% es.Ey (V/m) @ t=0.32
0.09288035474126671
% es.Ez (V/m) @ t=0.32
-0.30730903757585204
% es.tEx (V/m) @ t=0.32
-1.2057238177975211
% es.tEy (V/m) @ t=0.32
0
% es.tEz (V/m) @ t=0.32
-0.30730903757585537
% V (V) @ t=0.32
0.00723147501743832
% es.normE (V/m) @ t=0.34
1.2599748169106806
% es.EX (V/m) @ t=0.34
-1.2174686631363603
% es.EY (V/m) @ t=0.34
0.09378308673908436
% es.EZ (V/m) @ t=0.34
-0.310302478442934
% es.tEX (V/m) @ t=0.34
-1.217468663136355
% es.tEY (V/m) @ t=0.34
0
% es.tEZ (V/m) @ t=0.34
-0.31030247844294045
% es.Ex (V/m) @ t=0.34
-1.2174686631363603
% es.Ey (V/m) @ t=0.34
0.09378308673908436
% es.Ez (V/m) @ t=0.34
-0.310302478442934
% es.tEx (V/m) @ t=0.34
-1.217468663136355
% es.tEy (V/m) @ t=0.34
0
% es.tEz (V/m) @ t=0.34
-0.31030247844294045
% V (V) @ t=0.34
0.007301959769652444
% es.normE (V/m) @ t=0.36
1.272129578214395
% es.EX (V/m) @ t=0.36
-1.2292135084751976
% es.EY (V/m) @ t=0.36
0.0946858187368958
% es.EZ (V/m) @ t=0.36
-0.3132959193100038
% es.tEX (V/m) @ t=0.36
-1.2292135084751976
% es.tEY (V/m) @ t=0.36
0
% es.tEZ (V/m) @ t=0.36
-0.31329591931001843
% es.Ex (V/m) @ t=0.36
-1.2292135084751976
% es.Ey (V/m) @ t=0.36
0.0946858187368958
% es.Ez (V/m) @ t=0.36
-0.3132959193100038
% es.tEx (V/m) @ t=0.36
-1.2292135084751976
% es.tEy (V/m) @ t=0.36
0
% es.tEz (V/m) @ t=0.36
-0.31329591931001843
% V (V) @ t=0.36
0.00737244452186657
% es.normE (V/m) @ t=0.38
1.284284339522649
% es.EX (V/m) @ t=0.38
-1.2409583538140332
% es.EY (V/m) @ t=0.38
0.09558855073471523
% es.EZ (V/m) @ t=0.38
-0.3162893601770822
% es.tEX (V/m) @ t=0.38
-1.2409583538140385
% es.tEY (V/m) @ t=0.38
0
% es.tEZ (V/m) @ t=0.38
-0.3162893601770822
% es.Ex (V/m) @ t=0.38
-1.2409583538140332
% es.Ey (V/m) @ t=0.38
0.09558855073471523
% es.Ez (V/m) @ t=0.38
-0.3162893601770822
% es.tEx (V/m) @ t=0.38
-1.2409583538140385
% es.tEy (V/m) @ t=0.38
0
% es.tEz (V/m) @ t=0.38
-0.3162893601770822
% V (V) @ t=0.38
0.007442929274080694
% es.normE (V/m) @ t=0.4
1.296439100835319
% es.EX (V/m) @ t=0.4
-1.2527031991528768
% es.EY (V/m) @ t=0.4
0.09649128273251778
% es.EZ (V/m) @ t=0.4
-0.3192828010441535
% es.tEX (V/m) @ t=0.4
-1.2527031991528794
% es.tEY (V/m) @ t=0.4
0
% es.tEZ (V/m) @ t=0.4
-0.3192828010441531
% es.Ex (V/m) @ t=0.4
-1.2527031991528768
% es.Ey (V/m) @ t=0.4
0.09649128273251778
% es.Ez (V/m) @ t=0.4
-0.3192828010441535
% es.tEx (V/m) @ t=0.4
-1.2527031991528794
% es.tEy (V/m) @ t=0.4
0
% es.tEz (V/m) @ t=0.4
-0.3192828010441531
% V (V) @ t=0.4
0.007513414026294821
% es.normE (V/m) @ t=0.42
1.3085938621522941
% es.EX (V/m) @ t=0.42
-1.2644480444917336
% es.EY (V/m) @ t=0.42
0.09739401473033266
% es.EZ (V/m) @ t=0.42
-0.3222762419112377
% es.tEX (V/m) @ t=0.42
-1.2644480444917292
% es.tEY (V/m) @ t=0.42
0
% es.tEZ (V/m) @ t=0.42
-0.3222762419112346
% es.Ex (V/m) @ t=0.42
-1.2644480444917336
% es.Ey (V/m) @ t=0.42
0.09739401473033266
% es.Ez (V/m) @ t=0.42
-0.3222762419112377
% es.tEx (V/m) @ t=0.42
-1.2644480444917292
% es.tEy (V/m) @ t=0.42
0
% es.tEz (V/m) @ t=0.42
-0.3222762419112346
% V (V) @ t=0.42
0.007583898778508945
% es.normE (V/m) @ t=0.44
1.320748623473405
% es.EX (V/m) @ t=0.44
-1.2761928898305586
% es.EY (V/m) @ t=0.44
0.09829674672814853
% es.EZ (V/m) @ t=0.44
-0.32526968277830903
% es.tEX (V/m) @ t=0.44
-1.276192889830563
% es.tEY (V/m) @ t=0.44
0
% es.tEZ (V/m) @ t=0.44
-0.3252696827783055
% es.Ex (V/m) @ t=0.44
-1.2761928898305586
% es.Ey (V/m) @ t=0.44
0.09829674672814853
% es.Ez (V/m) @ t=0.44
-0.32526968277830903
% es.tEx (V/m) @ t=0.44
-1.276192889830563
% es.tEy (V/m) @ t=0.44
0
% es.tEz (V/m) @ t=0.44
-0.3252696827783055
% V (V) @ t=0.44
0.007654383530723072
% es.normE (V/m) @ t=0.46
1.3329033847985827
% es.EX (V/m) @ t=0.46
-1.287937735169395
% es.EY (V/m) @ t=0.46
0.09919947872594842
% es.EZ (V/m) @ t=0.46
-0.3282631236453841
% es.tEX (V/m) @ t=0.46
-1.2879377351693968
% es.tEY (V/m) @ t=0.46
0
% es.tEZ (V/m) @ t=0.46
-0.328263123645387
% es.Ex (V/m) @ t=0.46
-1.287937735169395
% es.Ey (V/m) @ t=0.46
0.09919947872594842
% es.Ez (V/m) @ t=0.46
-0.3282631236453841
% es.tEx (V/m) @ t=0.46
-1.2879377351693968
% es.tEy (V/m) @ t=0.46
0
% es.tEz (V/m) @ t=0.46
-0.328263123645387
% V (V) @ t=0.46
0.007724868282937196
% es.normE (V/m) @ t=0.48
1.345058146127711
% es.EX (V/m) @ t=0.48
-1.299682580508236
% es.EY (V/m) @ t=0.48
0.10010221072376696
% es.EZ (V/m) @ t=0.48
-0.33125656451245633
% es.tEX (V/m) @ t=0.48
-1.2996825805082324
% es.tEY (V/m) @ t=0.48
0
% es.tEZ (V/m) @ t=0.48
-0.33125656451245256
% es.Ex (V/m) @ t=0.48
-1.299682580508236
% es.Ey (V/m) @ t=0.48
0.10010221072376696
% es.Ez (V/m) @ t=0.48
-0.33125656451245633
% es.tEx (V/m) @ t=0.48
-1.2996825805082324
% es.tEy (V/m) @ t=0.48
0
% es.tEz (V/m) @ t=0.48
-0.33125656451245256
% V (V) @ t=0.48
0.0077953530351513225
% es.normE (V/m) @ t=0.5
1.357212907460678
% es.EX (V/m) @ t=0.5
-1.3114274258470724
% es.EY (V/m) @ t=0.5
0.10100494272157567
% es.EZ (V/m) @ t=0.5
-0.3342500053795454
% es.tEX (V/m) @ t=0.5
-1.3114274258470662
% es.tEY (V/m) @ t=0.5
0
% es.tEZ (V/m) @ t=0.5
-0.33425000537954297
% es.Ex (V/m) @ t=0.5
-1.3114274258470724
% es.Ey (V/m) @ t=0.5
0.10100494272157567
% es.Ez (V/m) @ t=0.5
-0.3342500053795454
% es.tEx (V/m) @ t=0.5
-1.3114274258470662
% es.tEy (V/m) @ t=0.5
0
% es.tEz (V/m) @ t=0.5
-0.33425000537954297
% V (V) @ t=0.5
0.007865837787365448
% es.normE (V/m) @ t=0.52
1.3693676687973806
% es.EX (V/m) @ t=0.52
-1.3231722711859115
% es.EY (V/m) @ t=0.52
0.10190767471939244
% es.EZ (V/m) @ t=0.52
-0.3372434462466125
% es.tEX (V/m) @ t=0.52
-1.3231722711859142
% es.tEY (V/m) @ t=0.52
0
% es.tEZ (V/m) @ t=0.52
-0.33724344624661207
% es.Ex (V/m) @ t=0.52
-1.3231722711859115
% es.Ey (V/m) @ t=0.52
0.10190767471939244
% es.Ez (V/m) @ t=0.52
-0.3372434462466125
% es.tEx (V/m) @ t=0.52
-1.3231722711859142
% es.tEy (V/m) @ t=0.52
0
% es.tEz (V/m) @ t=0.52
-0.33724344624661207
% V (V) @ t=0.52
0.007936322539579573
% es.normE (V/m) @ t=0.54
1.3815224301377051
% es.EX (V/m) @ t=0.54
-1.3349171165247302
% es.EY (V/m) @ t=0.54
0.10281040671720487
% es.EZ (V/m) @ t=0.54
-0.34023688711369315
% es.tEX (V/m) @ t=0.54
-1.3349171165247355
% es.tEY (V/m) @ t=0.54
0
% es.tEZ (V/m) @ t=0.54
-0.3402368871136936
% es.Ex (V/m) @ t=0.54
-1.3349171165247302
% es.Ey (V/m) @ t=0.54
0.10281040671720487
% es.Ez (V/m) @ t=0.54
-0.34023688711369315
% es.tEx (V/m) @ t=0.54
-1.3349171165247355
% es.tEy (V/m) @ t=0.54
0
% es.tEz (V/m) @ t=0.54
-0.3402368871136936
% V (V) @ t=0.54
0.008006807291793698
% es.normE (V/m) @ t=0.56
1.394524996675106
% es.EX (V/m) @ t=0.56
-1.3474809649852855
% es.EY (V/m) @ t=0.56
0.10377921563257136
% es.EZ (V/m) @ t=0.56
-0.34343911345143163
% es.tEX (V/m) @ t=0.56
-1.3474809649852855
% es.tEY (V/m) @ t=0.56
0
% es.tEZ (V/m) @ t=0.56
-0.34343911345142963
% es.Ex (V/m) @ t=0.56
-1.3474809649852855
% es.Ey (V/m) @ t=0.56
0.10377921563257136
% es.Ez (V/m) @ t=0.56
-0.34343911345143163
% es.tEx (V/m) @ t=0.56
-1.3474809649852855
% es.tEy (V/m) @ t=0.56
0
% es.tEz (V/m) @ t=0.56
-0.34343911345142963
% V (V) @ t=0.56
0.008082139216024823
% es.normE (V/m) @ t=0.58
1.4080904807859556
% es.EX (V/m) @ t=0.58
-1.3605886072865312
% es.EY (V/m) @ t=0.58
0.10479189766617353
% es.EZ (V/m) @ t=0.58
-0.3467799671643246
% es.tEX (V/m) @ t=0.58
-1.360588607286541
% es.tEY (V/m) @ t=0.58
0
% es.tEZ (V/m) @ t=0.58
-0.34677996716432524
% es.Ex (V/m) @ t=0.58
-1.3605886072865312
% es.Ey (V/m) @ t=0.58
0.10479189766617353
% es.Ez (V/m) @ t=0.58
-0.3467799671643246
% es.tEx (V/m) @ t=0.58
-1.360588607286541
% es.tEy (V/m) @ t=0.58
0
% es.tEz (V/m) @ t=0.58
-0.34677996716432524
% V (V) @ t=0.58
0.008160689519060535
% es.normE (V/m) @ t=0.6
1.421655964907214
% es.EX (V/m) @ t=0.6
-1.3736962495877671
% es.EY (V/m) @ t=0.6
0.10580457969978563
% es.EZ (V/m) @ t=0.6
-0.35012082087721863
% es.tEX (V/m) @ t=0.6
-1.3736962495877716
% es.tEY (V/m) @ t=0.6
0
% es.tEZ (V/m) @ t=0.6
-0.3501208208772226
% es.Ex (V/m) @ t=0.6
-1.3736962495877671
% es.Ey (V/m) @ t=0.6
0.10580457969978563
% es.Ez (V/m) @ t=0.6
-0.35012082087721863
% es.tEx (V/m) @ t=0.6
-1.3736962495877716
% es.tEy (V/m) @ t=0.6
0
% es.tEz (V/m) @ t=0.6
-0.3501208208772226
% V (V) @ t=0.6
0.008239239822096246
% es.normE (V/m) @ t=0.62
1.4352214490386166
% es.EX (V/m) @ t=0.62
-1.386803891889028
% es.EY (V/m) @ t=0.62
0.10681726173339312
% es.EZ (V/m) @ t=0.62
-0.35346167459010625
% es.tEX (V/m) @ t=0.62
-1.3868038918890218
% es.tEY (V/m) @ t=0.62
0
% es.tEZ (V/m) @ t=0.62
-0.35346167459010935
% es.Ex (V/m) @ t=0.62
-1.386803891889028
% es.Ey (V/m) @ t=0.62
0.10681726173339312
% es.Ez (V/m) @ t=0.62
-0.35346167459010625
% es.tEx (V/m) @ t=0.62
-1.3868038918890218
% es.tEy (V/m) @ t=0.62
0
% es.tEz (V/m) @ t=0.62
-0.35346167459010935
% V (V) @ t=0.62
0.008317790125131959
% es.normE (V/m) @ t=0.64
1.4487869331798566
% es.EX (V/m) @ t=0.64
-1.399911534190288
% es.EY (V/m) @ t=0.64
0.10782994376700955
% es.EZ (V/m) @ t=0.64
-0.3568025283029963
% es.tEX (V/m) @ t=0.64
-1.3999115341902861
% es.tEY (V/m) @ t=0.64
0
% es.tEZ (V/m) @ t=0.64
-0.3568025283029925
% es.Ex (V/m) @ t=0.64
-1.399911534190288
% es.Ey (V/m) @ t=0.64
0.10782994376700955
% es.Ez (V/m) @ t=0.64
-0.3568025283029963
% es.tEx (V/m) @ t=0.64
-1.3999115341902861
% es.tEy (V/m) @ t=0.64
0
% es.tEz (V/m) @ t=0.64
-0.3568025283029925
% V (V) @ t=0.64
0.00839634042816767
% es.normE (V/m) @ t=0.66
1.4623524173306384
% es.EX (V/m) @ t=0.66
-1.41301917649153
% es.EY (V/m) @ t=0.66
0.10884262580060561
% es.EZ (V/m) @ t=0.66
-0.3601433820158739
% es.tEX (V/m) @ t=0.66
-1.4130191764915363
% es.tEY (V/m) @ t=0.66
0
% es.tEZ (V/m) @ t=0.66
-0.3601433820158757
% es.Ex (V/m) @ t=0.66
-1.41301917649153
% es.Ey (V/m) @ t=0.66
0.10884262580060561
% es.Ez (V/m) @ t=0.66
-0.3601433820158739
% es.tEx (V/m) @ t=0.66
-1.4130191764915363
% es.tEy (V/m) @ t=0.66
0
% es.tEz (V/m) @ t=0.66
-0.3601433820158757
% V (V) @ t=0.66
0.008474890731203381
% es.normE (V/m) @ t=0.68
1.4759179014907353
% es.EX (V/m) @ t=0.68
-1.4261268187927882
% es.EY (V/m) @ t=0.68
0.1098553078342025
% es.EZ (V/m) @ t=0.68
-0.3634842357287513
% es.tEX (V/m) @ t=0.68
-1.4261268187927882
% es.tEY (V/m) @ t=0.68
0
% es.tEZ (V/m) @ t=0.68
-0.36348423572875177
% es.Ex (V/m) @ t=0.68
-1.4261268187927882
% es.Ey (V/m) @ t=0.68
0.1098553078342025
% es.Ez (V/m) @ t=0.68
-0.3634842357287513
% es.tEx (V/m) @ t=0.68
-1.4261268187927882
% es.tEy (V/m) @ t=0.68
0
% es.tEz (V/m) @ t=0.68
-0.36348423572875177
% V (V) @ t=0.68
0.008553441034239094
% es.normE (V/m) @ t=0.7
1.4894833856598677
% es.EX (V/m) @ t=0.7
-1.4392344610940286
% es.EY (V/m) @ t=0.7
0.1108679898678101
% es.EZ (V/m) @ t=0.7
-0.36682508944165204
% es.tEX (V/m) @ t=0.7
-1.4392344610940295
% es.tEY (V/m) @ t=0.7
0
% es.tEZ (V/m) @ t=0.7
-0.36682508944164915
% es.Ex (V/m) @ t=0.7
-1.4392344610940286
% es.Ey (V/m) @ t=0.7
0.1108679898678101
% es.Ez (V/m) @ t=0.7
-0.36682508944165204
% es.tEx (V/m) @ t=0.7
-1.4392344610940295
% es.tEy (V/m) @ t=0.7
0
% es.tEz (V/m) @ t=0.7
-0.36682508944164915
% V (V) @ t=0.7
0.008631991337274807
% es.normE (V/m) @ t=0.72
1.5030488698378137
% es.EX (V/m) @ t=0.72
-1.4523421033952824
% es.EY (V/m) @ t=0.72
0.11188067190142742
% es.EZ (V/m) @ t=0.72
-0.370165943154549
% es.tEX (V/m) @ t=0.72
-1.452342103395294
% es.tEY (V/m) @ t=0.72
0
% es.tEZ (V/m) @ t=0.72
-0.37016594315454654
% es.Ex (V/m) @ t=0.72
-1.4523421033952824
% es.Ey (V/m) @ t=0.72
0.11188067190142742
% es.Ez (V/m) @ t=0.72
-0.370165943154549
% es.tEx (V/m) @ t=0.72
-1.452342103395294
% es.tEy (V/m) @ t=0.72
0
% es.tEz (V/m) @ t=0.72
-0.37016594315454654
% V (V) @ t=0.72
0.008710541640310517
% es.normE (V/m) @ t=0.74
1.5166143540243167
% es.EX (V/m) @ t=0.74
-1.4654497456965343
% es.EY (V/m) @ t=0.74
0.11289335393504035
% es.EZ (V/m) @ t=0.74
-0.37350679686742305
% es.tEX (V/m) @ t=0.74
-1.465449745696544
% es.tEY (V/m) @ t=0.74
0
% es.tEZ (V/m) @ t=0.74
-0.3735067968674244
% es.Ex (V/m) @ t=0.74
-1.4654497456965343
% es.Ey (V/m) @ t=0.74
0.11289335393504035
% es.Ez (V/m) @ t=0.74
-0.37350679686742305
% es.tEx (V/m) @ t=0.74
-1.465449745696544
% es.tEy (V/m) @ t=0.74
0
% es.tEz (V/m) @ t=0.74
-0.3735067968674244
% V (V) @ t=0.74
0.00878909194334623
% es.normE (V/m) @ t=0.76
1.5301798382191574
% es.EX (V/m) @ t=0.76
-1.478557387997788
% es.EY (V/m) @ t=0.76
0.11390603596863103
% es.EZ (V/m) @ t=0.76
-0.37684765058030134
% es.tEX (V/m) @ t=0.76
-1.47855738799778
% es.tEY (V/m) @ t=0.76
0
% es.tEZ (V/m) @ t=0.76
-0.3768476505803058
% es.Ex (V/m) @ t=0.76
-1.478557387997788
% es.Ey (V/m) @ t=0.76
0.11390603596863103
% es.Ez (V/m) @ t=0.76
-0.37684765058030134
% es.tEx (V/m) @ t=0.76
-1.47855738799778
% es.tEy (V/m) @ t=0.76
0
% es.tEz (V/m) @ t=0.76
-0.3768476505803058
% V (V) @ t=0.76
0.00886764224638194
% es.normE (V/m) @ t=0.78
1.5437453224221196
% es.EX (V/m) @ t=0.78
-1.4916650302990409
% es.EY (V/m) @ t=0.78
0.11491871800224485
% es.EZ (V/m) @ t=0.78
-0.38018850429319473
% es.tEX (V/m) @ t=0.78
-1.4916650302990497
% es.tEY (V/m) @ t=0.78
0
% es.tEZ (V/m) @ t=0.78
-0.38018850429319784
% es.Ex (V/m) @ t=0.78
-1.4916650302990409
% es.Ey (V/m) @ t=0.78
0.11491871800224485
% es.Ez (V/m) @ t=0.78
-0.38018850429319473
% es.tEx (V/m) @ t=0.78
-1.4916650302990497
% es.tEy (V/m) @ t=0.78
0
% es.tEz (V/m) @ t=0.78
-0.38018850429319784
% V (V) @ t=0.78
0.00894619254941765
% es.normE (V/m) @ t=0.8
1.5573108066329797
% es.EX (V/m) @ t=0.8
-1.5047726726002875
% es.EY (V/m) @ t=0.8
0.11593140003584257
% es.EZ (V/m) @ t=0.8
-0.38352935800608634
% es.tEX (V/m) @ t=0.8
-1.5047726726002946
% es.tEY (V/m) @ t=0.8
0
% es.tEZ (V/m) @ t=0.8
-0.3835293580060952
% es.Ex (V/m) @ t=0.8
-1.5047726726002875
% es.Ey (V/m) @ t=0.8
0.11593140003584257
% es.Ez (V/m) @ t=0.8
-0.38352935800608634
% es.tEx (V/m) @ t=0.8
-1.5047726726002946
% es.tEy (V/m) @ t=0.8
0
% es.tEz (V/m) @ t=0.8
-0.3835293580060952
% V (V) @ t=0.8
0.009024742852453364
% es.normE (V/m) @ t=0.82
1.5708762908515355
% es.EX (V/m) @ t=0.82
-1.5178803149015314
% es.EY (V/m) @ t=0.82
0.11694408206945645
% es.EZ (V/m) @ t=0.82
-0.3868702117189651
% es.tEX (V/m) @ t=0.82
-1.5178803149015359
% es.tEY (V/m) @ t=0.82
0
% es.tEZ (V/m) @ t=0.82
-0.38687021171896596
% es.Ex (V/m) @ t=0.82
-1.5178803149015314
% es.Ey (V/m) @ t=0.82
0.11694408206945645
% es.Ez (V/m) @ t=0.82
-0.3868702117189651
% es.tEx (V/m) @ t=0.82
-1.5178803149015359
% es.tEy (V/m) @ t=0.82
0
% es.tEz (V/m) @ t=0.82
-0.38687021171896596
% V (V) @ t=0.82
0.009103293155489075
% es.normE (V/m) @ t=0.84
1.58591431760178
% es.EX (V/m) @ t=0.84
-1.5324111281269044
% es.EY (V/m) @ t=0.84
0.11806184364823802
% es.EZ (V/m) @ t=0.84
-0.390573732950362
% es.tEX (V/m) @ t=0.84
-1.5324111281268884
% es.tEY (V/m) @ t=0.84
0
% es.tEZ (V/m) @ t=0.84
-0.39057373295036335
% es.Ex (V/m) @ t=0.84
-1.5324111281269044
% es.Ey (V/m) @ t=0.84
0.11806184364823802
% es.Ez (V/m) @ t=0.84
-0.390573732950362
% es.tEx (V/m) @ t=0.84
-1.5324111281268884
% es.tEy (V/m) @ t=0.84
0
% es.tEz (V/m) @ t=0.84
-0.39057373295036335
% V (V) @ t=0.84
0.009190477976923917
% es.normE (V/m) @ t=0.86
1.6011042758715042
% es.EX (V/m) @ t=0.86
-1.5470887788871677
% es.EY (V/m) @ t=0.86
0.11919044694750036
% es.EZ (V/m) @ t=0.86
-0.39431467288072897
% es.tEX (V/m) @ t=0.86
-1.5470887788871703
% es.tEY (V/m) @ t=0.86
0
% es.tEZ (V/m) @ t=0.86
-0.39431467288071964
% es.Ex (V/m) @ t=0.86
-1.5470887788871677
% es.Ey (V/m) @ t=0.86
0.11919044694750036
% es.Ez (V/m) @ t=0.86
-0.39431467288072897
% es.tEx (V/m) @ t=0.86
-1.5470887788871703
% es.tEy (V/m) @ t=0.86
0
% es.tEz (V/m) @ t=0.86
-0.39431467288071964
% V (V) @ t=0.86
0.009278553676169272
% es.normE (V/m) @ t=0.88
1.616294234145688
% es.EX (V/m) @ t=0.88
-1.5617664296474265
% es.EY (V/m) @ t=0.88
0.12031905024678768
% es.EZ (V/m) @ t=0.88
-0.3980556128111066
% es.tEX (V/m) @ t=0.88
-1.5617664296474345
% es.tEY (V/m) @ t=0.88
0
% es.tEZ (V/m) @ t=0.88
-0.39805561281110435
% es.Ex (V/m) @ t=0.88
-1.5617664296474265
% es.Ey (V/m) @ t=0.88
0.12031905024678768
% es.Ez (V/m) @ t=0.88
-0.3980556128111066
% es.tEx (V/m) @ t=0.88
-1.5617664296474345
% es.tEy (V/m) @ t=0.88
0
% es.tEz (V/m) @ t=0.88
-0.39805561281110435
% V (V) @ t=0.88
0.009366629375414626
% es.normE (V/m) @ t=0.9
1.6314841924242245
% es.EX (V/m) @ t=0.9
-1.5764440804077093
% es.EY (V/m) @ t=0.9
0.12144765354603937
% es.EZ (V/m) @ t=0.9
-0.40179655274147485
% es.tEX (V/m) @ t=0.9
-1.5764440804077076
% es.tEY (V/m) @ t=0.9
0
% es.tEZ (V/m) @ t=0.9
-0.40179655274147663
% es.Ex (V/m) @ t=0.9
-1.5764440804077093
% es.Ey (V/m) @ t=0.9
0.12144765354603937
% es.Ez (V/m) @ t=0.9
-0.40179655274147485
% es.tEx (V/m) @ t=0.9
-1.5764440804077076
% es.tEy (V/m) @ t=0.9
0
% es.tEz (V/m) @ t=0.9
-0.40179655274147663
% V (V) @ t=0.9
0.00945470507465998
% es.normE (V/m) @ t=0.92
1.6466741507069451
% es.EX (V/m) @ t=0.92
-1.591121731167953
% es.EY (V/m) @ t=0.92
0.12257625684531326
% es.EZ (V/m) @ t=0.92
-0.40553749267186445
% es.tEX (V/m) @ t=0.92
-1.5911217311679593
% es.tEY (V/m) @ t=0.92
0
% es.tEZ (V/m) @ t=0.92
-0.405537492671856
% es.Ex (V/m) @ t=0.92
-1.591121731167953
% es.Ey (V/m) @ t=0.92
0.12257625684531326
% es.Ez (V/m) @ t=0.92
-0.40553749267186445
% es.tEx (V/m) @ t=0.92
-1.5911217311679593
% es.tEy (V/m) @ t=0.92
0
% es.tEz (V/m) @ t=0.92
-0.405537492671856
% V (V) @ t=0.92
0.009542780773905333
% es.normE (V/m) @ t=0.94
1.6618641089937758
% es.EX (V/m) @ t=0.94
-1.6057993819282101
% es.EY (V/m) @ t=0.94
0.12370486014460413
% es.EZ (V/m) @ t=0.94
-0.4092784326022403
% es.tEX (V/m) @ t=0.94
-1.6057993819282022
% es.tEY (V/m) @ t=0.94
0
% es.tEZ (V/m) @ t=0.94
-0.4092784326022336
% es.Ex (V/m) @ t=0.94
-1.6057993819282101
% es.Ey (V/m) @ t=0.94
0.12370486014460413
% es.Ez (V/m) @ t=0.94
-0.4092784326022403
% es.tEx (V/m) @ t=0.94
-1.6057993819282022
% es.tEy (V/m) @ t=0.94
0
% es.tEz (V/m) @ t=0.94
-0.4092784326022336
% V (V) @ t=0.94
0.009630856473150687
% es.normE (V/m) @ t=0.96
1.6770540672846201
% es.EX (V/m) @ t=0.96
-1.6204770326885019
% es.EY (V/m) @ t=0.96
0.12483346344386559
% es.EZ (V/m) @ t=0.96
-0.41301937253259613
% es.tEX (V/m) @ t=0.96
-1.6204770326885178
% es.tEY (V/m) @ t=0.96
0
% es.tEZ (V/m) @ t=0.96
-0.4130193725325917
% es.Ex (V/m) @ t=0.96
-1.6204770326885019
% es.Ey (V/m) @ t=0.96
0.12483346344386559
% es.Ez (V/m) @ t=0.96
-0.41301937253259613
% es.tEx (V/m) @ t=0.96
-1.6204770326885178
% es.tEy (V/m) @ t=0.96
0
% es.tEz (V/m) @ t=0.96
-0.4130193725325917
% V (V) @ t=0.96
0.009718932172396038
% es.normE (V/m) @ t=0.98
1.6922440255793287
% es.EX (V/m) @ t=0.98
-1.6351546834487678
% es.EY (V/m) @ t=0.98
0.12596206674314492
% es.EZ (V/m) @ t=0.98
-0.4167603124629786
% es.tEX (V/m) @ t=0.98
-1.6351546834487536
% es.tEY (V/m) @ t=0.98
0
% es.tEZ (V/m) @ t=0.98
-0.4167603124629853
% es.Ex (V/m) @ t=0.98
-1.6351546834487678
% es.Ey (V/m) @ t=0.98
0.12596206674314492
% es.Ez (V/m) @ t=0.98
-0.4167603124629786
% es.tEx (V/m) @ t=0.98
-1.6351546834487536
% es.tEy (V/m) @ t=0.98
0
% es.tEz (V/m) @ t=0.98
-0.4167603124629853
% V (V) @ t=0.98
0.009807007871641392
% es.normE (V/m) @ t=1
1.7074339838778043
% es.EX (V/m) @ t=1
-1.6498323342090258
% es.EY (V/m) @ t=1
0.12709067004242058
% es.EZ (V/m) @ t=1
-0.4205012523933558
% es.tEX (V/m) @ t=1
-1.6498323342090409
% es.tEY (V/m) @ t=1
0
% es.tEZ (V/m) @ t=1
-0.4205012523933487
% es.Ex (V/m) @ t=1
-1.6498323342090258
% es.Ey (V/m) @ t=1
0.12709067004242058
% es.Ez (V/m) @ t=1
-0.4205012523933558
% es.tEx (V/m) @ t=1
-1.6498323342090409
% es.tEy (V/m) @ t=1
0
% es.tEz (V/m) @ t=1
-0.4205012523933487
% V (V) @ t=1
0.009895083570886747
% es.normE (V/m) @ t=1.02
1.7226239421799692
% es.EX (V/m) @ t=1.02
-1.6645099849692997
% es.EY (V/m) @ t=1.02
0.12821927334167937
% es.EZ (V/m) @ t=1.02
-0.4242421923237245
% es.tEX (V/m) @ t=1.02
-1.6645099849693015
% es.tEY (V/m) @ t=1.02
0
% es.tEZ (V/m) @ t=1.02
-0.4242421923237192
% es.Ex (V/m) @ t=1.02
-1.6645099849692997
% es.Ey (V/m) @ t=1.02
0.12821927334167937
% es.Ez (V/m) @ t=1.02
-0.4242421923237245
% es.tEx (V/m) @ t=1.02