% Model:              1 neuron.mph
% Version:            COMSOL 6.0.0.405
% Date:               Mar 16 2023, 10:05
% Dimension:          0
% Nodes:              14017
% Expressions:        14017
% Description:        Electric field norm, Electric field, X component, Electric field, Y component, Electric field, Z component, Tangential electric field, X component, Tangential electric field, Y component, Tangential electric field, Z component, Electric field, x component, Electric field, y component, Electric field, z component, Tangential electric field, x component, Tangential electric field, y component, Tangential electric field, z component, Electric potential
% Length unit:        mm
% x
1.33
% y
12.2
% z
1.33
% es.normE (V/m) @ t=0
7.748788082774079
% es.EX (V/m) @ t=0
6.004412580869792
% es.EY (V/m) @ t=0
-0.9200537647866049
% es.EZ (V/m) @ t=0
4.796875002192103
% es.tEX (V/m) @ t=0
6.004412580869809
% es.tEY (V/m) @ t=0
0
% es.tEZ (V/m) @ t=0
4.79687500219211
% es.Ex (V/m) @ t=0
6.004412580869792
% es.Ey (V/m) @ t=0
-0.9200537647866049
% es.Ez (V/m) @ t=0
4.796875002192103
% es.tEx (V/m) @ t=0
6.004412580869809
% es.tEy (V/m) @ t=0
0
% es.tEz (V/m) @ t=0
4.79687500219211
% V (V) @ t=0
0.006399203064458776
% es.normE (V/m) @ t=0.02
6.692780081086958
% es.EX (V/m) @ t=0.02
5.186128781111721
% es.EY (V/m) @ t=0.02
-0.7946684564063258
% es.EZ (V/m) @ t=0.02
4.143154925366289
% es.tEX (V/m) @ t=0.02
5.1861287811117585
% es.tEY (V/m) @ t=0.02
0
% es.tEZ (V/m) @ t=0.02
4.1431549253662885
% es.Ex (V/m) @ t=0.02
5.186128781111721
% es.Ey (V/m) @ t=0.02
-0.7946684564063258
% es.Ez (V/m) @ t=0.02
4.143154925366289
% es.tEx (V/m) @ t=0.02
5.1861287811117585
% es.tEy (V/m) @ t=0.02
0
% es.tEz (V/m) @ t=0.02
4.1431549253662885
% V (V) @ t=0.02
0.005527117049790283
% es.normE (V/m) @ t=0.04
6.754342960646449
% es.EX (V/m) @ t=0.04
5.233832869083072
% es.EY (V/m) @ t=0.04
-0.8019781219718523
% es.EZ (V/m) @ t=0.04
4.181265342373271
% es.tEX (V/m) @ t=0.04
5.233832869083091
% es.tEY (V/m) @ t=0.04
0
% es.tEZ (V/m) @ t=0.04
4.181265342373269
% es.Ex (V/m) @ t=0.04
5.233832869083072
% es.Ey (V/m) @ t=0.04
-0.8019781219718523
% es.Ez (V/m) @ t=0.04
4.181265342373271
% es.tEx (V/m) @ t=0.04
5.233832869083091
% es.tEy (V/m) @ t=0.04
0
% es.tEz (V/m) @ t=0.04
4.181265342373269
% V (V) @ t=0.04
0.005577957668796838
% es.normE (V/m) @ t=0.06
6.816465873453495
% es.EX (V/m) @ t=0.06
5.281970947208803
% es.EY (V/m) @ t=0.06
-0.8093543364121691
% es.EZ (V/m) @ t=0.06
4.219722394970491
% es.tEX (V/m) @ t=0.06
5.281970947208823
% es.tEY (V/m) @ t=0.06
0
% es.tEZ (V/m) @ t=0.06
4.219722394970491
% es.Ex (V/m) @ t=0.06
5.281970947208803
% es.Ey (V/m) @ t=0.06
-0.8093543364121691
% es.Ez (V/m) @ t=0.06
4.219722394970491
% es.tEx (V/m) @ t=0.06
5.281970947208823
% es.tEy (V/m) @ t=0.06
0
% es.tEz (V/m) @ t=0.06
4.219722394970491
% V (V) @ t=0.06
0.005629260870933866
% es.normE (V/m) @ t=0.08
6.87952558683827
% es.EX (V/m) @ t=0.08
5.330834925799993
% es.EY (V/m) @ t=0.08
-0.8168417613581642
% es.EZ (V/m) @ t=0.08
4.258759392740899
% es.tEX (V/m) @ t=0.08
5.330834925799997
% es.tEY (V/m) @ t=0.08
0
% es.tEZ (V/m) @ t=0.08
4.2587593927408935
% es.Ex (V/m) @ t=0.08
5.330834925799993
% es.Ey (V/m) @ t=0.08
-0.8168417613581642
% es.Ez (V/m) @ t=0.08
4.258759392740899
% es.tEx (V/m) @ t=0.08
5.330834925799997
% es.tEy (V/m) @ t=0.08
0
% es.tEz (V/m) @ t=0.08
4.2587593927408935
% V (V) @ t=0.08
0.005681337679004708
% es.normE (V/m) @ t=0.1
6.943259805000746
% es.EX (V/m) @ t=0.1
5.3802215592056015
% es.EY (V/m) @ t=0.1
-0.8244092588608236
% es.EZ (V/m) @ t=0.1
4.298213956212505
% es.tEX (V/m) @ t=0.1
5.380221559205623
% es.tEY (V/m) @ t=0.1
0
% es.tEZ (V/m) @ t=0.1
4.298213956212498
% es.Ex (V/m) @ t=0.1
5.3802215592056015
% es.Ey (V/m) @ t=0.1
-0.8244092588608236
% es.Ez (V/m) @ t=0.1
4.298213956212505
% es.tEx (V/m) @ t=0.1
5.380221559205623
% es.tEy (V/m) @ t=0.1
0
% es.tEz (V/m) @ t=0.1
4.298213956212498
% V (V) @ t=0.1
0.0057339714902529615
% es.normE (V/m) @ t=0.12
7.0069940231632355
% es.EX (V/m) @ t=0.12
5.429608192611223
% es.EY (V/m) @ t=0.12
-0.8319767563635301
% es.EZ (V/m) @ t=0.12
4.337668519684105
% es.tEX (V/m) @ t=0.12
5.429608192611248
% es.tEY (V/m) @ t=0.12
0
% es.tEZ (V/m) @ t=0.12
4.337668519684098
% es.Ex (V/m) @ t=0.12
5.429608192611223
% es.Ey (V/m) @ t=0.12
-0.8319767563635301
% es.Ez (V/m) @ t=0.12
4.337668519684105
% es.tEx (V/m) @ t=0.12
5.429608192611248
% es.tEy (V/m) @ t=0.12
0
% es.tEz (V/m) @ t=0.12
4.337668519684098
% V (V) @ t=0.12
0.005786605301501216
% es.normE (V/m) @ t=0.14
7.0713172387356344
% es.EX (V/m) @ t=0.14
5.479451212103693
% es.EY (V/m) @ t=0.14
-0.8396141549313594
% es.EZ (V/m) @ t=0.14
4.37748773414567
% es.tEX (V/m) @ t=0.14
5.479451212103717
% es.tEY (V/m) @ t=0.14
0
% es.tEZ (V/m) @ t=0.14
4.377487734145668
% es.Ex (V/m) @ t=0.14
5.479451212103693
% es.Ey (V/m) @ t=0.14
-0.8396141549313594
% es.Ez (V/m) @ t=0.14
4.37748773414567
% es.tEx (V/m) @ t=0.14
5.479451212103717
% es.tEy (V/m) @ t=0.14
0
% es.tEz (V/m) @ t=0.14
4.377487734145668
% V (V) @ t=0.14
0.005839725470022034
% es.normE (V/m) @ t=0.16
7.138460581634728
% es.EX (V/m) @ t=0.16
5.531479414168116
% es.EY (V/m) @ t=0.16
-0.847586240716228
% es.EZ (V/m) @ t=0.16
4.419052902331593
% es.tEX (V/m) @ t=0.16
5.531479414168114
% es.tEY (V/m) @ t=0.16
0
% es.tEZ (V/m) @ t=0.16
4.419052902331595
% es.Ex (V/m) @ t=0.16
5.531479414168116
% es.Ey (V/m) @ t=0.16
-0.847586240716228
% es.Ez (V/m) @ t=0.16
4.419052902331593
% es.tEx (V/m) @ t=0.16
5.531479414168114
% es.tEy (V/m) @ t=0.16
0
% es.tEz (V/m) @ t=0.16
4.419052902331595
% V (V) @ t=0.16
0.005895174323545363
% es.normE (V/m) @ t=0.18
7.205603924533879
% es.EX (V/m) @ t=0.18
5.583507616232564
% es.EY (V/m) @ t=0.18
-0.8555583265011419
% es.EZ (V/m) @ t=0.18
4.460618070517537
% es.tEX (V/m) @ t=0.18
5.5835076162325965
% es.tEY (V/m) @ t=0.18
0
% es.tEZ (V/m) @ t=0.18
4.460618070517546
% es.Ex (V/m) @ t=0.18
5.583507616232564
% es.Ey (V/m) @ t=0.18
-0.8555583265011419
% es.Ez (V/m) @ t=0.18
4.460618070517537
% es.tEx (V/m) @ t=0.18
5.5835076162325965
% es.tEy (V/m) @ t=0.18
0
% es.tEz (V/m) @ t=0.18
4.460618070517546
% V (V) @ t=0.18
0.0059506231770686925
% es.normE (V/m) @ t=0.2
7.272747267433015
% es.EX (V/m) @ t=0.2
5.635535818296969
% es.EY (V/m) @ t=0.2
-0.8635304122860035
% es.EZ (V/m) @ t=0.2
4.502183238703488
% es.tEX (V/m) @ t=0.2
5.6355358182969795
% es.tEY (V/m) @ t=0.2
0
% es.tEZ (V/m) @ t=0.2
4.502183238703486
% es.Ex (V/m) @ t=0.2
5.635535818296969
% es.Ey (V/m) @ t=0.2
-0.8635304122860035
% es.Ez (V/m) @ t=0.2
4.502183238703488
% es.tEx (V/m) @ t=0.2
5.6355358182969795
% es.tEy (V/m) @ t=0.2
0
% es.tEz (V/m) @ t=0.2
4.502183238703486
% V (V) @ t=0.2
0.006006072030592021
% es.normE (V/m) @ t=0.22
7.3398906103321995
% es.EX (V/m) @ t=0.22
5.68756402036142
% es.EY (V/m) @ t=0.22
-0.871502498070889
% es.EZ (V/m) @ t=0.22
4.543748406889428
% es.tEX (V/m) @ t=0.22
5.6875640203614335
% es.tEY (V/m) @ t=0.22
0
% es.tEZ (V/m) @ t=0.22
4.543748406889426
% es.Ex (V/m) @ t=0.22
5.68756402036142
% es.Ey (V/m) @ t=0.22
-0.871502498070889
% es.Ez (V/m) @ t=0.22
4.543748406889428
% es.tEx (V/m) @ t=0.22
5.6875640203614335
% es.tEy (V/m) @ t=0.22
0
% es.tEz (V/m) @ t=0.22
4.543748406889426
% V (V) @ t=0.22
0.006061520884115351
% es.normE (V/m) @ t=0.24
7.407033953231411
% es.EX (V/m) @ t=0.24
5.739592222425879
% es.EY (V/m) @ t=0.24
-0.8794745838557763
% es.EZ (V/m) @ t=0.24
4.5853135750753715
% es.tEX (V/m) @ t=0.24
5.739592222425902
% es.tEY (V/m) @ t=0.24
0
% es.tEZ (V/m) @ t=0.24
4.585313575075368
% es.Ex (V/m) @ t=0.24
5.739592222425879
% es.Ey (V/m) @ t=0.24
-0.8794745838557763
% es.Ez (V/m) @ t=0.24
4.5853135750753715
% es.tEx (V/m) @ t=0.24
5.739592222425902
% es.tEy (V/m) @ t=0.24
0
% es.tEz (V/m) @ t=0.24
4.585313575075368
% V (V) @ t=0.24
0.006116969737638679
% es.normE (V/m) @ t=0.26
7.474177296130611
% es.EX (V/m) @ t=0.26
5.791620424490287
% es.EY (V/m) @ t=0.26
-0.88744666964066
% es.EZ (V/m) @ t=0.26
4.626878743261326
% es.tEX (V/m) @ t=0.26
5.791620424490314
% es.tEY (V/m) @ t=0.26
0
% es.tEZ (V/m) @ t=0.26
4.626878743261322
% es.Ex (V/m) @ t=0.26
5.791620424490287
% es.Ey (V/m) @ t=0.26
-0.88744666964066
% es.Ez (V/m) @ t=0.26
4.626878743261326
% es.tEx (V/m) @ t=0.26
5.791620424490314
% es.tEy (V/m) @ t=0.26
0
% es.tEz (V/m) @ t=0.26
4.626878743261322
% V (V) @ t=0.26
0.006172418591162008
% es.normE (V/m) @ t=0.28
7.544049092470701
% es.EX (V/m) @ t=0.28
5.84576290129113
% es.EY (V/m) @ t=0.28
-0.8957427901124859
% es.EZ (V/m) @ t=0.28
4.670132886037391
% es.tEX (V/m) @ t=0.28
5.845762901291152
% es.tEY (V/m) @ t=0.28
0
% es.tEZ (V/m) @ t=0.28
4.670132886037387
% es.Ex (V/m) @ t=0.28
5.84576290129113
% es.Ey (V/m) @ t=0.28
-0.8957427901124859
% es.Ez (V/m) @ t=0.28
4.670132886037391
% es.tEx (V/m) @ t=0.28
5.845762901291152
% es.tEy (V/m) @ t=0.28
0
% es.tEz (V/m) @ t=0.28
4.670132886037387
% V (V) @ t=0.28
0.006230120809119428
% es.normE (V/m) @ t=0.3
7.6188668072895975
% es.EX (V/m) @ t=0.3
5.903737963369558
% es.EY (V/m) @ t=0.3
-0.9046262943094483
% es.EZ (V/m) @ t=0.3
4.716448664577673
% es.tEX (V/m) @ t=0.3
5.903737963369586
% es.tEY (V/m) @ t=0.3
0
% es.tEZ (V/m) @ t=0.3
4.716448664577667
% es.Ex (V/m) @ t=0.3
5.903737963369558
% es.Ey (V/m) @ t=0.3
-0.9046262943094483
% es.Ez (V/m) @ t=0.3
4.716448664577673
% es.tEx (V/m) @ t=0.3
5.903737963369586
% es.tEy (V/m) @ t=0.3
0
% es.tEz (V/m) @ t=0.3
4.716448664577667
% V (V) @ t=0.3
0.006291907742845524
% es.normE (V/m) @ t=0.32
7.693684522108496
% es.EX (V/m) @ t=0.32
5.961713025447981
% es.EY (V/m) @ t=0.32
-0.9135097985064364
% es.EZ (V/m) @ t=0.32
4.762764443117957
% es.tEX (V/m) @ t=0.32
5.961713025448006
% es.tEY (V/m) @ t=0.32
0
% es.tEZ (V/m) @ t=0.32
4.762764443117947
% es.Ex (V/m) @ t=0.32
5.961713025447981
% es.Ey (V/m) @ t=0.32
-0.9135097985064364
% es.Ez (V/m) @ t=0.32
4.762764443117957
% es.tEx (V/m) @ t=0.32
5.961713025448006
% es.tEy (V/m) @ t=0.32
0
% es.tEz (V/m) @ t=0.32
4.762764443117947
% V (V) @ t=0.32
0.006353694676571618
% es.normE (V/m) @ t=0.34
7.768502236927394
% es.EX (V/m) @ t=0.34
6.019688087526408
% es.EY (V/m) @ t=0.34
-0.922393302703381
% es.EZ (V/m) @ t=0.34
4.809080221658243
% es.tEX (V/m) @ t=0.34
6.019688087526426
% es.tEY (V/m) @ t=0.34
0
% es.tEZ (V/m) @ t=0.34
4.809080221658242
% es.Ex (V/m) @ t=0.34
6.019688087526408
% es.Ey (V/m) @ t=0.34
-0.922393302703381
% es.Ez (V/m) @ t=0.34
4.809080221658243
% es.tEx (V/m) @ t=0.34
6.019688087526426
% es.tEy (V/m) @ t=0.34
0
% es.tEz (V/m) @ t=0.34
4.809080221658242
% V (V) @ t=0.34
0.006415481610297715
% es.normE (V/m) @ t=0.36
7.843319951746267
% es.EX (V/m) @ t=0.36
6.077663149604799
% es.EY (V/m) @ t=0.36
-0.9312768069003718
% es.EZ (V/m) @ t=0.36
4.855396000198525
% es.tEX (V/m) @ t=0.36
6.077663149604817
% es.tEY (V/m) @ t=0.36
0
% es.tEZ (V/m) @ t=0.36
4.855396000198516
% es.Ex (V/m) @ t=0.36
6.077663149604799
% es.Ey (V/m) @ t=0.36
-0.9312768069003718
% es.Ez (V/m) @ t=0.36
4.855396000198525
% es.tEx (V/m) @ t=0.36
6.077663149604817
% es.tEy (V/m) @ t=0.36
0
% es.tEz (V/m) @ t=0.36
4.855396000198516
% V (V) @ t=0.36
0.006477268544023808
% es.normE (V/m) @ t=0.38
7.91813766656519
% es.EX (V/m) @ t=0.38
6.135638211683261
% es.EY (V/m) @ t=0.38
-0.9401603110973307
% es.EZ (V/m) @ t=0.38
4.901711778738802
% es.tEX (V/m) @ t=0.38
6.135638211683266
% es.tEY (V/m) @ t=0.38
0
% es.tEZ (V/m) @ t=0.38
4.901711778738802
% es.Ex (V/m) @ t=0.38
6.135638211683261
% es.Ey (V/m) @ t=0.38
-0.9401603110973307
% es.Ez (V/m) @ t=0.38
4.901711778738802
% es.tEx (V/m) @ t=0.38
6.135638211683266
% es.tEy (V/m) @ t=0.38
0
% es.tEz (V/m) @ t=0.38
4.901711778738802
% V (V) @ t=0.38
0.006539055477749904
% es.normE (V/m) @ t=0.4
7.992955381384075
% es.EX (V/m) @ t=0.4
6.193613273761663
% es.EY (V/m) @ t=0.4
-0.949043815294309
% es.EZ (V/m) @ t=0.4
4.94802755727909
% es.tEX (V/m) @ t=0.4
6.193613273761671
% es.tEY (V/m) @ t=0.4
0
% es.tEZ (V/m) @ t=0.4
4.948027557279083
% es.Ex (V/m) @ t=0.4
6.193613273761663
% es.Ey (V/m) @ t=0.4
-0.949043815294309
% es.Ez (V/m) @ t=0.4
4.94802755727909
% es.tEx (V/m) @ t=0.4
6.193613273761671
% es.tEy (V/m) @ t=0.4
0
% es.tEz (V/m) @ t=0.4
4.948027557279083
% V (V) @ t=0.4
0.006600842411476
% es.normE (V/m) @ t=0.42
8.067773096202979
% es.EX (V/m) @ t=0.42
6.2515883358401085
% es.EY (V/m) @ t=0.42
-0.9579273194912519
% es.EZ (V/m) @ t=0.42
4.9943433358193605
% es.tEX (V/m) @ t=0.42
6.25158833584012
% es.tEY (V/m) @ t=0.42
0
% es.tEZ (V/m) @ t=0.42
4.994343335819362
% es.Ex (V/m) @ t=0.42
6.2515883358401085
% es.Ey (V/m) @ t=0.42
-0.9579273194912519
% es.Ez (V/m) @ t=0.42
4.9943433358193605
% es.tEx (V/m) @ t=0.42
6.25158833584012
% es.tEy (V/m) @ t=0.42
0
% es.tEz (V/m) @ t=0.42
4.994343335819362
% V (V) @ t=0.42
0.006662629345202094
% es.normE (V/m) @ t=0.44
8.142590811021865
% es.EX (V/m) @ t=0.44
6.30956339791851
% es.EY (V/m) @ t=0.44
-0.9668108236882338
% es.EZ (V/m) @ t=0.44
5.040659114359654
% es.tEX (V/m) @ t=0.44
6.309563397918554
% es.tEY (V/m) @ t=0.44
0
% es.tEZ (V/m) @ t=0.44
5.04065911435965
% es.Ex (V/m) @ t=0.44
6.30956339791851
% es.Ey (V/m) @ t=0.44
-0.9668108236882338
% es.Ez (V/m) @ t=0.44
5.040659114359654
% es.tEx (V/m) @ t=0.44
6.309563397918554
% es.tEy (V/m) @ t=0.44
0
% es.tEz (V/m) @ t=0.44
5.04065911435965
% V (V) @ t=0.44
0.00672441627892819
% es.normE (V/m) @ t=0.46
8.217408525840774
% es.EX (V/m) @ t=0.46
6.367538459996955
% es.EY (V/m) @ t=0.46
-0.9756943278851953
% es.EZ (V/m) @ t=0.46
5.086974892899928
% es.tEX (V/m) @ t=0.46
6.3675384599969735
% es.tEY (V/m) @ t=0.46
0
% es.tEZ (V/m) @ t=0.46
5.0869748928999226
% es.Ex (V/m) @ t=0.46
6.367538459996955
% es.Ey (V/m) @ t=0.46
-0.9756943278851953
% es.Ez (V/m) @ t=0.46
5.086974892899928
% es.tEx (V/m) @ t=0.46
6.3675384599969735
% es.tEy (V/m) @ t=0.46
0
% es.tEz (V/m) @ t=0.46
5.0869748928999226
% V (V) @ t=0.46
0.006786203212654284
% es.normE (V/m) @ t=0.48
8.292226240659671
% es.EX (V/m) @ t=0.48
6.425513522075378
% es.EY (V/m) @ t=0.48
-0.9845778320821372
% es.EZ (V/m) @ t=0.48
5.1332906714402124
% es.tEX (V/m) @ t=0.48
6.425513522075407
% es.tEY (V/m) @ t=0.48
0
% es.tEZ (V/m) @ t=0.48
5.133290671440203
% es.Ex (V/m) @ t=0.48
6.425513522075378
% es.Ey (V/m) @ t=0.48
-0.9845778320821372
% es.Ez (V/m) @ t=0.48
5.1332906714402124
% es.tEx (V/m) @ t=0.48
6.425513522075407
% es.tEy (V/m) @ t=0.48
0
% es.tEz (V/m) @ t=0.48
5.133290671440203
% V (V) @ t=0.48
0.00684799014638038
% es.normE (V/m) @ t=0.5
8.367043955478566
% es.EX (V/m) @ t=0.5
6.483488584153794
% es.EY (V/m) @ t=0.5
-0.9934613362790987
% es.EZ (V/m) @ t=0.5
5.179606449980502
% es.tEX (V/m) @ t=0.5
6.483488584153813
% es.tEY (V/m) @ t=0.5
0
% es.tEZ (V/m) @ t=0.5
5.179606449980499
% es.Ex (V/m) @ t=0.5
6.483488584153794
% es.Ey (V/m) @ t=0.5
-0.9934613362790987
% es.Ez (V/m) @ t=0.5
5.179606449980502
% es.tEx (V/m) @ t=0.5
6.483488584153813
% es.tEy (V/m) @ t=0.5
0
% es.tEz (V/m) @ t=0.5
5.179606449980499
% V (V) @ t=0.5
0.006909777080106474
% es.normE (V/m) @ t=0.52
8.441861670297474
% es.EX (V/m) @ t=0.52
6.541463646232232
% es.EY (V/m) @ t=0.52
-1.0023448404760762
% es.EZ (V/m) @ t=0.52
5.22592222852078
% es.tEX (V/m) @ t=0.52
6.541463646232248
% es.tEY (V/m) @ t=0.52
0
% es.tEZ (V/m) @ t=0.52
5.225922228520771
% es.Ex (V/m) @ t=0.52
6.541463646232232
% es.Ey (V/m) @ t=0.52
-1.0023448404760762
% es.Ez (V/m) @ t=0.52
5.22592222852078
% es.tEx (V/m) @ t=0.52
6.541463646232248
% es.tEy (V/m) @ t=0.52
0
% es.tEz (V/m) @ t=0.52
5.225922228520771
% V (V) @ t=0.52
0.00697156401383257
% es.normE (V/m) @ t=0.54
8.51667938511637
% es.EX (V/m) @ t=0.54
6.599438708310656
% es.EY (V/m) @ t=0.54
-1.0112283446730324
% es.EZ (V/m) @ t=0.54
5.272238007061064
% es.tEX (V/m) @ t=0.54
6.599438708310682
% es.tEY (V/m) @ t=0.54
0
% es.tEZ (V/m) @ t=0.54
5.272238007061065
% es.Ex (V/m) @ t=0.54
6.599438708310656
% es.Ey (V/m) @ t=0.54
-1.0112283446730324
% es.Ez (V/m) @ t=0.54
5.272238007061064
% es.tEx (V/m) @ t=0.54
6.599438708310682
% es.tEy (V/m) @ t=0.54
0
% es.tEz (V/m) @ t=0.54
5.272238007061065
% V (V) @ t=0.54
0.007033350947558666
% es.normE (V/m) @ t=0.56
8.59777077351729
% es.EX (V/m) @ t=0.56
6.662275150617585
% es.EY (V/m) @ t=0.56
-1.0208567739396877
% es.EZ (V/m) @ t=0.56
5.322437474686465
% es.tEX (V/m) @ t=0.56
6.662275150617619
% es.tEY (V/m) @ t=0.56
0
% es.tEZ (V/m) @ t=0.56
5.322437474686461
% es.Ex (V/m) @ t=0.56
6.662275150617585
% es.Ey (V/m) @ t=0.56
-1.0208567739396877
% es.Ez (V/m) @ t=0.56
5.322437474686465
% es.tEx (V/m) @ t=0.56
6.662275150617619
% es.tEy (V/m) @ t=0.56
0
% es.tEz (V/m) @ t=0.56
5.322437474686461
% V (V) @ t=0.56
0.007100318920015272
% es.normE (V/m) @ t=0.58
8.68128933152332
% es.EX (V/m) @ t=0.58
6.726992372052633
% es.EY (V/m) @ t=0.58
-1.0307734010960683
% es.EZ (V/m) @ t=0.58
5.374139470612017
% es.tEX (V/m) @ t=0.58
6.726992372052653
% es.tEY (V/m) @ t=0.58
0
% es.tEZ (V/m) @ t=0.58
5.374139470612018
% es.Ex (V/m) @ t=0.58
6.726992372052633
% es.Ey (V/m) @ t=0.58
-1.0307734010960683
% es.Ez (V/m) @ t=0.58
5.374139470612017
% es.tEx (V/m) @ t=0.58
6.726992372052653
% es.tEy (V/m) @ t=0.58
0
% es.tEz (V/m) @ t=0.58
5.374139470612018
% V (V) @ t=0.58
0.007169291341629969
% es.normE (V/m) @ t=0.6
8.764807889529376
% es.EX (V/m) @ t=0.6
6.791709593487678
% es.EY (V/m) @ t=0.6
-1.0406900282524543
% es.EZ (V/m) @ t=0.6
5.425841466537612
% es.tEX (V/m) @ t=0.6
6.791709593487688
% es.tEY (V/m) @ t=0.6
0
% es.tEZ (V/m) @ t=0.6
5.425841466537611
% es.Ex (V/m) @ t=0.6
6.791709593487678
% es.Ey (V/m) @ t=0.6
-1.0406900282524543
% es.Ez (V/m) @ t=0.6
5.425841466537612
% es.tEx (V/m) @ t=0.6
6.791709593487688
% es.tEy (V/m) @ t=0.6
0
% es.tEz (V/m) @ t=0.6
5.425841466537611
% V (V) @ t=0.6
0.007238263763244662
% es.normE (V/m) @ t=0.62
8.848326447535415
% es.EX (V/m) @ t=0.62
6.856426814922726
% es.EY (V/m) @ t=0.62
-1.0506066554088296
% es.EZ (V/m) @ t=0.62
5.47754346246318
% es.tEX (V/m) @ t=0.62
6.856426814922738
% es.tEY (V/m) @ t=0.62
0
% es.tEZ (V/m) @ t=0.62
5.477543462463182
% es.Ex (V/m) @ t=0.62
6.856426814922726
% es.Ey (V/m) @ t=0.62
-1.0506066554088296
% es.Ez (V/m) @ t=0.62
5.47754346246318
% es.tEx (V/m) @ t=0.62
6.856426814922738
% es.tEy (V/m) @ t=0.62
0
% es.tEz (V/m) @ t=0.62
5.477543462463182
% V (V) @ t=0.62
0.007307236184859359
% es.normE (V/m) @ t=0.64
8.93184500554145
% es.EX (V/m) @ t=0.64
6.921144036357751
% es.EY (V/m) @ t=0.64
-1.060523282565212
% es.EZ (V/m) @ t=0.64
5.529245458388764
% es.tEX (V/m) @ t=0.64
6.921144036357786
% es.tEY (V/m) @ t=0.64
0
% es.tEZ (V/m) @ t=0.64
5.529245458388762
% es.Ex (V/m) @ t=0.64
6.921144036357751
% es.Ey (V/m) @ t=0.64
-1.060523282565212
% es.Ez (V/m) @ t=0.64
5.529245458388764
% es.tEx (V/m) @ t=0.64
6.921144036357786
% es.tEy (V/m) @ t=0.64
0
% es.tEz (V/m) @ t=0.64
5.529245458388762
% V (V) @ t=0.64
0.007376208606474054
% es.normE (V/m) @ t=0.66
9.015363563547492
% es.EX (V/m) @ t=0.66
6.985861257792785
% es.EY (V/m) @ t=0.66
-1.0704399097215873
% es.EZ (V/m) @ t=0.66
5.5809474543143445
% es.tEX (V/m) @ t=0.66
6.985861257792822
% es.tEY (V/m) @ t=0.66
0
% es.tEZ (V/m) @ t=0.66
5.580947454314347
% es.Ex (V/m) @ t=0.66
6.985861257792785
% es.Ey (V/m) @ t=0.66
-1.0704399097215873
% es.Ez (V/m) @ t=0.66
5.5809474543143445
% es.tEx (V/m) @ t=0.66
6.985861257792822
% es.tEy (V/m) @ t=0.66
0
% es.tEz (V/m) @ t=0.66
5.580947454314347
% V (V) @ t=0.66
0.007445181028088749
% es.normE (V/m) @ t=0.68
9.098882121553551
% es.EX (V/m) @ t=0.68
7.0505784792278465
% es.EY (V/m) @ t=0.68
-1.0803565368779733
% es.EZ (V/m) @ t=0.68
5.632649450239919
% es.tEX (V/m) @ t=0.68
7.050578479227886
% es.tEY (V/m) @ t=0.68
0
% es.tEZ (V/m) @ t=0.68
5.632649450239919
% es.Ex (V/m) @ t=0.68
7.0505784792278465
% es.Ey (V/m) @ t=0.68
-1.0803565368779733
% es.Ez (V/m) @ t=0.68
5.632649450239919
% es.tEx (V/m) @ t=0.68
7.050578479227886
% es.tEy (V/m) @ t=0.68
0
% es.tEz (V/m) @ t=0.68
5.632649450239919
% V (V) @ t=0.68
0.007514153449703445
% es.normE (V/m) @ t=0.7
9.182400679559583
% es.EX (V/m) @ t=0.7
7.115295700662873
% es.EY (V/m) @ t=0.7
-1.090273164034338
% es.EZ (V/m) @ t=0.7
5.684351446165496
% es.tEX (V/m) @ t=0.7
7.115295700662892
% es.tEY (V/m) @ t=0.7
0
% es.tEZ (V/m) @ t=0.7
5.684351446165498
% es.Ex (V/m) @ t=0.7
7.115295700662873
% es.Ey (V/m) @ t=0.7
-1.090273164034338
% es.Ez (V/m) @ t=0.7
5.684351446165496
% es.tEx (V/m) @ t=0.7
7.115295700662892
% es.tEy (V/m) @ t=0.7
0
% es.tEz (V/m) @ t=0.7
5.684351446165498
% V (V) @ t=0.7
0.00758312587131814
% es.normE (V/m) @ t=0.72
9.265919237565623
% es.EX (V/m) @ t=0.72
7.1800129220979
% es.EY (V/m) @ t=0.72
-1.1001897911907204
% es.EZ (V/m) @ t=0.72
5.736053442091077
% es.tEX (V/m) @ t=0.72
7.1800129220979265
% es.tEY (V/m) @ t=0.72
0
% es.tEZ (V/m) @ t=0.72
5.736053442091084
% es.Ex (V/m) @ t=0.72
7.1800129220979
% es.Ey (V/m) @ t=0.72
-1.1001897911907204
% es.Ez (V/m) @ t=0.72
5.736053442091077
% es.tEx (V/m) @ t=0.72
7.1800129220979265
% es.tEy (V/m) @ t=0.72
0
% es.tEz (V/m) @ t=0.72
5.736053442091084
% V (V) @ t=0.72
0.007652098292932833
% es.normE (V/m) @ t=0.74
9.349437795571678
% es.EX (V/m) @ t=0.74
7.244730143532955
% es.EY (V/m) @ t=0.74
-1.1101064183470903
% es.EZ (V/m) @ t=0.74
5.787755438016655
% es.tEX (V/m) @ t=0.74
7.244730143532976
% es.tEY (V/m) @ t=0.74
0
% es.tEZ (V/m) @ t=0.74
5.7877554380166485
% es.Ex (V/m) @ t=0.74
7.244730143532955
% es.Ey (V/m) @ t=0.74
-1.1101064183470903
% es.Ez (V/m) @ t=0.74
5.787755438016655
% es.tEx (V/m) @ t=0.74
7.244730143532976
% es.tEy (V/m) @ t=0.74
0
% es.tEz (V/m) @ t=0.74
5.7877554380166485
% V (V) @ t=0.74
0.0077210707145475305
% es.normE (V/m) @ t=0.76
9.43295635357773
% es.EX (V/m) @ t=0.76
7.309447364967995
% es.EY (V/m) @ t=0.76
-1.1200230455034905
% es.EZ (V/m) @ t=0.76
5.839457433942233
% es.tEX (V/m) @ t=0.76
7.309447364968024
% es.tEY (V/m) @ t=0.76
0
% es.tEZ (V/m) @ t=0.76
5.839457433942227
% es.Ex (V/m) @ t=0.76
7.309447364967995
% es.Ey (V/m) @ t=0.76
-1.1200230455034905
% es.Ez (V/m) @ t=0.76
5.839457433942233
% es.tEx (V/m) @ t=0.76
7.309447364968024
% es.tEy (V/m) @ t=0.76
0
% es.tEz (V/m) @ t=0.76
5.839457433942227
% V (V) @ t=0.76
0.0077900431361622256
% es.normE (V/m) @ t=0.78
9.516474911583785
% es.EX (V/m) @ t=0.78
7.374164586403043
% es.EY (V/m) @ t=0.78
-1.1299396726598587
% es.EZ (V/m) @ t=0.78
5.891159429867814
% es.tEX (V/m) @ t=0.78
7.374164586403074
% es.tEY (V/m) @ t=0.78
0
% es.tEZ (V/m) @ t=0.78
5.8911594298678205
% es.Ex (V/m) @ t=0.78
7.374164586403043
% es.Ey (V/m) @ t=0.78
-1.1299396726598587
% es.Ez (V/m) @ t=0.78
5.891159429867814
% es.tEx (V/m) @ t=0.78
7.374164586403074
% es.tEy (V/m) @ t=0.78
0
% es.tEz (V/m) @ t=0.78
5.8911594298678205
% V (V) @ t=0.78
0.00785901555777692
% es.normE (V/m) @ t=0.8
9.599993469589814
% es.EX (V/m) @ t=0.8
7.438881807838062
% es.EY (V/m) @ t=0.8
-1.1398562998162465
% es.EZ (V/m) @ t=0.8
5.942861425793384
% es.tEX (V/m) @ t=0.8
7.4388818078380945
% es.tEY (V/m) @ t=0.8
0
% es.tEZ (V/m) @ t=0.8
5.942861425793378
% es.Ex (V/m) @ t=0.8
7.438881807838062
% es.Ey (V/m) @ t=0.8
-1.1398562998162465
% es.Ez (V/m) @ t=0.8
5.942861425793384
% es.tEx (V/m) @ t=0.8
7.4388818078380945
% es.tEy (V/m) @ t=0.8
0
% es.tEz (V/m) @ t=0.8
5.942861425793378
% V (V) @ t=0.8
0.007927987979391616
% es.normE (V/m) @ t=0.82
9.684367559097563
% es.EX (V/m) @ t=0.82
7.504261969647489
% es.EY (V/m) @ t=0.82
-1.1498745134231072
% es.EZ (V/m) @ t=0.82
5.99509303247234
% es.tEX (V/m) @ t=0.82
7.504261969647505
% es.tEY (V/m) @ t=0.82
0
% es.tEZ (V/m) @ t=0.82
5.995093032472353
% es.Ex (V/m) @ t=0.82
7.504261969647489
% es.Ey (V/m) @ t=0.82
-1.1498745134231072
% es.Ez (V/m) @ t=0.82
5.99509303247234
% es.tEx (V/m) @ t=0.82
7.504261969647505
% es.tEy (V/m) @ t=0.82
0
% es.tEz (V/m) @ t=0.82
5.995093032472353
% V (V) @ t=0.82
0.007997666934922687
% es.normE (V/m) @ t=0.84
9.777770240431908
% es.EX (V/m) @ t=0.84
7.576638271322604
% es.EY (V/m) @ t=0.84
-1.1609647887774042
% es.EZ (V/m) @ t=0.84
6.052913725362689
% es.tEX (V/m) @ t=0.84
7.576638271322629
% es.tEY (V/m) @ t=0.84
0
% es.tEZ (V/m) @ t=0.84
6.052913725362677
% es.Ex (V/m) @ t=0.84
7.576638271322604
% es.Ey (V/m) @ t=0.84
-1.1609647887774042
% es.Ez (V/m) @ t=0.84
6.052913725362689
% es.tEx (V/m) @ t=0.84
7.576638271322629
% es.tEy (V/m) @ t=0.84
0
% es.tEz (V/m) @ t=0.84
6.052913725362677
% V (V) @ t=0.84
0.008074802081523521
% es.normE (V/m) @ t=0.86
9.87117292176629
% es.EX (V/m) @ t=0.86
7.649014572997799
% es.EY (V/m) @ t=0.86
-1.172055064131703
% es.EZ (V/m) @ t=0.86
6.110734418252996
% es.tEX (V/m) @ t=0.86
7.649014572997812
% es.tEY (V/m) @ t=0.86
0
% es.tEZ (V/m) @ t=0.86
6.110734418252986
% es.Ex (V/m) @ t=0.86
7.649014572997799
% es.Ey (V/m) @ t=0.86
-1.172055064131703
% es.Ez (V/m) @ t=0.86
6.110734418252996
% es.tEx (V/m) @ t=0.86
7.649014572997812
% es.tEy (V/m) @ t=0.86
0
% es.tEz (V/m) @ t=0.86
6.110734418252986
% V (V) @ t=0.86
0.008151937228124356
% es.normE (V/m) @ t=0.88
9.964575603100656
% es.EX (V/m) @ t=0.88
7.7213908746729505
% es.EY (V/m) @ t=0.88
-1.1831453394860105
% es.EZ (V/m) @ t=0.88
6.16855511114332
% es.tEX (V/m) @ t=0.88
7.721390874672981
% es.tEY (V/m) @ t=0.88
0
% es.tEZ (V/m) @ t=0.88
6.16855511114331
% es.Ex (V/m) @ t=0.88
7.7213908746729505
% es.Ey (V/m) @ t=0.88
-1.1831453394860105
% es.Ez (V/m) @ t=0.88
6.16855511114332
% es.tEx (V/m) @ t=0.88
7.721390874672981
% es.tEy (V/m) @ t=0.88
0
% es.tEz (V/m) @ t=0.88
6.16855511114331
% V (V) @ t=0.88
0.00822907237472519
% es.normE (V/m) @ t=0.9
10.057978284435045
% es.EX (V/m) @ t=0.9
7.793767176348123
% es.EY (V/m) @ t=0.9
-1.1942356148402915
% es.EZ (V/m) @ t=0.9
6.226375804033655
% es.tEX (V/m) @ t=0.9
7.793767176348148
% es.tEY (V/m) @ t=0.9
0
% es.tEZ (V/m) @ t=0.9
6.226375804033656
% es.Ex (V/m) @ t=0.9
7.793767176348123
% es.Ey (V/m) @ t=0.9
-1.1942356148402915
% es.Ez (V/m) @ t=0.9
6.226375804033655
% es.tEx (V/m) @ t=0.9
7.793767176348148
% es.tEy (V/m) @ t=0.9
0
% es.tEz (V/m) @ t=0.9
6.226375804033656
% V (V) @ t=0.9
0.008306207521326027
% es.normE (V/m) @ t=0.92
10.151380965769413
% es.EX (V/m) @ t=0.92
7.866143478023275
% es.EY (V/m) @ t=0.92
-1.2053258901946045
% es.EZ (V/m) @ t=0.92
6.284196496923974
% es.tEX (V/m) @ t=0.92
7.866143478023304
% es.tEY (V/m) @ t=0.92
0
% es.tEZ (V/m) @ t=0.92
6.284196496923978
% es.Ex (V/m) @ t=0.92
7.866143478023275
% es.Ey (V/m) @ t=0.92
-1.2053258901946045
% es.Ez (V/m) @ t=0.92
6.284196496923974
% es.tEx (V/m) @ t=0.92
7.866143478023304
% es.tEy (V/m) @ t=0.92
0
% es.tEz (V/m) @ t=0.92
6.284196496923978
% V (V) @ t=0.92
0.00838334266792686
% es.normE (V/m) @ t=0.94
10.244783647103791
% es.EX (V/m) @ t=0.94
7.9385197796984475
% es.EY (V/m) @ t=0.94
-1.2164161655488765
% es.EZ (V/m) @ t=0.94
6.342017189814284
% es.tEX (V/m) @ t=0.94
7.938519779698486
% es.tEY (V/m) @ t=0.94
0
% es.tEZ (V/m) @ t=0.94
6.342017189814301
% es.Ex (V/m) @ t=0.94
7.9385197796984475
% es.Ey (V/m) @ t=0.94
-1.2164161655488765
% es.Ez (V/m) @ t=0.94
6.342017189814284
% es.tEx (V/m) @ t=0.94
7.938519779698486
% es.tEy (V/m) @ t=0.94
0
% es.tEz (V/m) @ t=0.94
6.342017189814301
% V (V) @ t=0.94
0.008460477814527696
% es.normE (V/m) @ t=0.96
10.338186328438194
% es.EX (V/m) @ t=0.96
8.010896081373613
% es.EY (V/m) @ t=0.96
-1.227506440903177
% es.EZ (V/m) @ t=0.96
6.399837882704633
% es.tEX (V/m) @ t=0.96
8.01089608137364
% es.tEY (V/m) @ t=0.96
0
% es.tEZ (V/m) @ t=0.96
6.399837882704626
% es.Ex (V/m) @ t=0.96
8.010896081373613
% es.Ey (V/m) @ t=0.96
-1.227506440903177
% es.Ez (V/m) @ t=0.96
6.399837882704633
% es.tEx (V/m) @ t=0.96
8.01089608137364
% es.tEy (V/m) @ t=0.96
0
% es.tEz (V/m) @ t=0.96
6.399837882704626
% V (V) @ t=0.96
0.008537612961128531
% es.normE (V/m) @ t=0.98
10.431589009772575
% es.EX (V/m) @ t=0.98
8.083272383048772
% es.EY (V/m) @ t=0.98
-1.2385967162574438
% es.EZ (V/m) @ t=0.98
6.457658575594953
% es.tEX (V/m) @ t=0.98
8.083272383048794
% es.tEY (V/m) @ t=0.98
0
% es.tEZ (V/m) @ t=0.98
6.457658575594935
% es.Ex (V/m) @ t=0.98
8.083272383048772
% es.Ey (V/m) @ t=0.98
-1.2385967162574438
% es.Ez (V/m) @ t=0.98
6.457658575594953
% es.tEx (V/m) @ t=0.98
8.083272383048794
% es.tEy (V/m) @ t=0.98
0
% es.tEz (V/m) @ t=0.98
6.457658575594935
% V (V) @ t=0.98
0.008614748107729367
% es.normE (V/m) @ t=1
10.524991691106997
% es.EX (V/m) @ t=1
8.155648684723959
% es.EY (V/m) @ t=1
-1.2496869916117639
% es.EZ (V/m) @ t=1
6.515479268485292
% es.tEX (V/m) @ t=1
8.155648684723976
% es.tEY (V/m) @ t=1
0
% es.tEZ (V/m) @ t=1
6.515479268485266
% es.Ex (V/m) @ t=1
8.155648684723959
% es.Ey (V/m) @ t=1
-1.2496869916117639
% es.Ez (V/m) @ t=1
6.515479268485292
% es.tEx (V/m) @ t=1
8.155648684723976
% es.tEy (V/m) @ t=1
0
% es.tEz (V/m) @ t=1
6.515479268485266
% V (V) @ t=1
0.008691883254330202
% es.normE (V/m) @ t=1.02
10.618394372441363
% es.EX (V/m) @ t=1.02
8.228024986399102
% es.EY (V/m) @ t=1.02
-1.2607772669660608
% es.EZ (V/m) @ t=1.02
6.573299961375594
% es.tEX (V/m) @ t=1.02
8.228024986399145
% es.tEY (V/m) @ t=1.02
0
% es.tEZ (V/m) @ t=1.02
6.5732999613755965
% es.Ex (V/m) @ t=1.02
8.228024986399102
% es.Ey (V/m) @ t=1.02
-1.2607772669660608
% es.Ez (V/m) @ t=1.02
6.573299961375594
% es.tEx (V/m) @ t=1.02
8.228024986399145
% es.tEy (V/m) @ t=1.02
0
% es.tEz (V/m) @ t=1.02
6.5732999613755965
% V (V) @ t=1.02
0.008769018400931038
% es.normE (V/m) @ t=1.04
10.711797053775804
% es.EX (V/m) @ t=1.04
8.300401288074326
% es.EY (V/m) @ t=1.04
-1.2718675423203667
% es.EZ (V/m) @ t=1.04
6.6311206542659145
% es.tEX (V/m) @ t=1.04
8.30040128807434
% es.tEY (V/m) @ t=1.04
0
% es.tEZ (V/m) @ t=1.04
6.631120654265927
% es.Ex (V/m) @ t=1.04
8.300401288074326
% es.Ey (V/m) @ t=1.04
-1.2718675423203667
% es.Ez (V/m) @ t=1.04
6.6311206542659145
% es.tEx (V/m) @ t=1.04
8.30040128807434
% es.tEy (V/m) @ t=1.04
0
% es.tEz (V/m) @ t=1.04
6.631120654265927
% V (V) @ t=1.04
0.008846153547531873
% es.normE (V/m) @ t=1.06
10.805199735110183
% es.EX (V/m) @ t=1.06
8.372777589749457
% es.EY (V/m) @ t=1.06
-1.2829578176746583
% es.EZ (V/m) @ t=1.06
6.688941347156245
% es.tEX (V/m) @ t=1.06
8.372777589749509
% es.tEY (V/m) @ t=1.06
0