% Model:              1 neuron.mph
% Version:            COMSOL 6.1.0.252
% Date:               Mar 18 2023, 13:10
% Dimension:          0
% Nodes:              14017
% Expressions:        14017
% Description:        Electric field norm, Electric field, X component, Electric field, Y component, Electric field, Z component, Tangential electric field, X component, Tangential electric field, Y component, Tangential electric field, Z component, Electric field, x component, Electric field, y component, Electric field, z component, Tangential electric field, x component, Tangential electric field, y component, Tangential electric field, z component, Electric potential
% Length unit:        mm
% x
1
% y
12.2
% z
1.33
% es.normE (V/m) @ t=0
2.208119770736631
% es.EX (V/m) @ t=0
2.040592163241411
% es.EY (V/m) @ t=0
0.12848815972620642
% es.EZ (V/m) @ t=0
0.8249338618846414
% es.tEX (V/m) @ t=0
2.040592163241408
% es.tEY (V/m) @ t=0
0
% es.tEZ (V/m) @ t=0
0.8249338618846362
% es.Ex (V/m) @ t=0
2.040592163241411
% es.Ey (V/m) @ t=0
0.12848815972620642
% es.Ez (V/m) @ t=0
0.8249338618846414
% es.tEx (V/m) @ t=0
2.040592163241408
% es.tEy (V/m) @ t=0
0
% es.tEz (V/m) @ t=0
0.8249338618846362
% V (V) @ t=0
0.011014461885312719
% es.normE (V/m) @ t=0.02
1.9071749380563507
% es.EX (V/m) @ t=0.02
1.7624796821123434
% es.EY (V/m) @ t=0.02
0.1109764993552439
% es.EZ (V/m) @ t=0.02
0.712503556159833
% es.tEX (V/m) @ t=0.02
1.7624796821123372
% es.tEY (V/m) @ t=0.02
0
% es.tEZ (V/m) @ t=0.02
0.712503556159827
% es.Ex (V/m) @ t=0.02
1.7624796821123434
% es.Ey (V/m) @ t=0.02
0.1109764993552439
% es.Ez (V/m) @ t=0.02
0.712503556159833
% es.tEx (V/m) @ t=0.02
1.7624796821123372
% es.tEy (V/m) @ t=0.02
0
% es.tEz (V/m) @ t=0.02
0.712503556159827
% V (V) @ t=0.02
0.00951329987946022
% es.normE (V/m) @ t=0.04
1.9247186475213964
% es.EX (V/m) @ t=0.04
1.778692369441008
% es.EY (V/m) @ t=0.04
0.11199735051840864
% es.EZ (V/m) @ t=0.04
0.7190577302652481
% es.tEX (V/m) @ t=0.04
1.7786923694410088
% es.tEY (V/m) @ t=0.04
0
% es.tEZ (V/m) @ t=0.04
0.7190577302652499
% es.Ex (V/m) @ t=0.04
1.778692369441008
% es.Ey (V/m) @ t=0.04
0.11199735051840864
% es.Ez (V/m) @ t=0.04
0.7190577302652481
% es.tEx (V/m) @ t=0.04
1.7786923694410088
% es.tEy (V/m) @ t=0.04
0
% es.tEz (V/m) @ t=0.04
0.7190577302652499
% V (V) @ t=0.04
0.009600810731573404
% es.normE (V/m) @ t=0.06
1.9424012198651663
% es.EX (V/m) @ t=0.06
1.7950333853222125
% es.EY (V/m) @ t=0.06
0.11302627712770985
% es.EZ (V/m) @ t=0.06
0.7256637799109917
% es.tEX (V/m) @ t=0.06
1.7950333853222151
% es.tEY (V/m) @ t=0.06
0
% es.tEZ (V/m) @ t=0.06
0.7256637799109962
% es.Ex (V/m) @ t=0.06
1.7950333853222125
% es.Ey (V/m) @ t=0.06
0.11302627712770985
% es.Ez (V/m) @ t=0.06
0.7256637799109917
% es.tEx (V/m) @ t=0.06
1.7950333853222151
% es.tEy (V/m) @ t=0.06
0
% es.tEz (V/m) @ t=0.06
0.7256637799109962
% V (V) @ t=0.06
0.009689014383244567
% es.normE (V/m) @ t=0.08
1.9603982950821774
% es.EX (V/m) @ t=0.08
1.811665043147305
% es.EY (V/m) @ t=0.08
0.11407350413746509
% es.EZ (V/m) @ t=0.08
0.7323873248973334
% es.tEX (V/m) @ t=0.08
1.8116650431473076
% es.tEY (V/m) @ t=0.08
0
% es.tEZ (V/m) @ t=0.08
0.732387324897334
% es.Ex (V/m) @ t=0.08
1.811665043147305
% es.Ey (V/m) @ t=0.08
0.11407350413746509
% es.Ez (V/m) @ t=0.08
0.7323873248973334
% es.tEx (V/m) @ t=0.08
1.8116650431473076
% es.tEy (V/m) @ t=0.08
0
% es.tEz (V/m) @ t=0.08
0.732387324897334
% V (V) @ t=0.08
0.009778786833407174
% es.normE (V/m) @ t=0.1
1.9785212045308171
% es.EX (V/m) @ t=0.1
1.82841298832236
% es.EY (V/m) @ t=0.1
0.11512805323241393
% es.EZ (V/m) @ t=0.1
0.7391578803791892
% es.tEX (V/m) @ t=0.1
1.828412988322368
% es.tEY (V/m) @ t=0.1
0
% es.tEZ (V/m) @ t=0.1
0.7391578803791918
% es.Ex (V/m) @ t=0.1
1.82841298832236
% es.Ey (V/m) @ t=0.1
0.11512805323241393
% es.Ez (V/m) @ t=0.1
0.7391578803791892
% es.tEx (V/m) @ t=0.1
1.828412988322368
% es.tEy (V/m) @ t=0.1
0
% es.tEz (V/m) @ t=0.1
0.7391578803791918
% V (V) @ t=0.1
0.009869186967987236
% es.normE (V/m) @ t=0.12
1.9966441139794542
% es.EX (V/m) @ t=0.12
1.8451609334974153
% es.EY (V/m) @ t=0.12
0.11618260232736921
% es.EZ (V/m) @ t=0.12
0.7459284358610412
% es.tEX (V/m) @ t=0.12
1.8451609334974233
% es.tEY (V/m) @ t=0.12
0
% es.tEZ (V/m) @ t=0.12
0.7459284358610412
% es.Ex (V/m) @ t=0.12
1.8451609334974153
% es.Ey (V/m) @ t=0.12
0.11618260232736921
% es.Ez (V/m) @ t=0.12
0.7459284358610412
% es.tEx (V/m) @ t=0.12
1.8451609334974233
% es.tEy (V/m) @ t=0.12
0
% es.tEz (V/m) @ t=0.12
0.7459284358610412
% V (V) @ t=0.12
0.009959587102567297
% es.normE (V/m) @ t=0.14
2.0151742420695973
% es.EX (V/m) @ t=0.14
1.8622851974378198
% es.EY (V/m) @ t=0.14
0.11726086880484954
% es.EZ (V/m) @ t=0.14
0.7528511352206146
% es.tEX (V/m) @ t=0.14
1.8622851974378172
% es.tEY (V/m) @ t=0.14
0
% es.tEZ (V/m) @ t=0.14
0.7528511352206126
% es.Ex (V/m) @ t=0.14
1.8622851974378198
% es.Ey (V/m) @ t=0.14
0.11726086880484954
% es.Ez (V/m) @ t=0.14
0.7528511352206146
% es.tEx (V/m) @ t=0.14
1.8622851974378172
% es.tEy (V/m) @ t=0.14
0
% es.tEz (V/m) @ t=0.14
0.7528511352206126
% V (V) @ t=0.14
0.010052017939950217
% es.normE (V/m) @ t=0.16
2.0342267423184834
% es.EX (V/m) @ t=0.16
1.8798921957764003
% es.EY (V/m) @ t=0.16
0.11836955947969752
% es.EZ (V/m) @ t=0.16
0.7599690017894927
% es.tEX (V/m) @ t=0.16
1.8798921957764083
% es.tEY (V/m) @ t=0.16
0
% es.tEZ (V/m) @ t=0.16
0.7599690017894898
% es.Ex (V/m) @ t=0.16
1.8798921957764003
% es.Ey (V/m) @ t=0.16
0.11836955947969752
% es.Ez (V/m) @ t=0.16
0.7599690017894927
% es.tEx (V/m) @ t=0.16
1.8798921957764083
% es.tEy (V/m) @ t=0.16
0
% es.tEz (V/m) @ t=0.16
0.7599690017894898
% V (V) @ t=0.16
0.010147053723420464
% es.normE (V/m) @ t=0.18
2.0532792425673567
% es.EX (V/m) @ t=0.18
1.897499194114971
% es.EY (V/m) @ t=0.18
0.11947825015454738
% es.EZ (V/m) @ t=0.18
0.7670868683583547
% es.tEX (V/m) @ t=0.18
1.897499194114971
% es.tEY (V/m) @ t=0.18
0
% es.tEZ (V/m) @ t=0.18
0.7670868683583523
% es.Ex (V/m) @ t=0.18
1.897499194114971
% es.Ey (V/m) @ t=0.18
0.11947825015454738
% es.Ez (V/m) @ t=0.18
0.7670868683583547
% es.tEx (V/m) @ t=0.18
1.897499194114971
% es.tEy (V/m) @ t=0.18
0
% es.tEz (V/m) @ t=0.18
0.7670868683583523
% V (V) @ t=0.18
0.01024208950689071
% es.normE (V/m) @ t=0.2
2.0723317428162455
% es.EX (V/m) @ t=0.2
1.9151061924535497
% es.EY (V/m) @ t=0.2
0.12058694082939636
% es.EZ (V/m) @ t=0.2
0.7742047349272316
% es.tEX (V/m) @ t=0.2
1.9151061924535497
% es.tEY (V/m) @ t=0.2
0
% es.tEZ (V/m) @ t=0.2
0.7742047349272299
% es.Ex (V/m) @ t=0.2
1.9151061924535497
% es.Ey (V/m) @ t=0.2
0.12058694082939636
% es.Ez (V/m) @ t=0.2
0.7742047349272316
% es.tEx (V/m) @ t=0.2
1.9151061924535497
% es.tEy (V/m) @ t=0.2
0
% es.tEz (V/m) @ t=0.2
0.7742047349272299
% V (V) @ t=0.2
0.010337125290360957
% es.normE (V/m) @ t=0.22
2.091384243065133
% es.EX (V/m) @ t=0.22
1.9327131907921267
% es.EY (V/m) @ t=0.22
0.12169563150425045
% es.EZ (V/m) @ t=0.22
0.7813226014961054
% es.tEX (V/m) @ t=0.22
1.9327131907921196
% es.tEY (V/m) @ t=0.22
0
% es.tEZ (V/m) @ t=0.22
0.7813226014960981
% es.Ex (V/m) @ t=0.22
1.9327131907921267
% es.Ey (V/m) @ t=0.22
0.12169563150425045
% es.Ez (V/m) @ t=0.22
0.7813226014961054
% es.tEx (V/m) @ t=0.22
1.9327131907921196
% es.tEy (V/m) @ t=0.22
0
% es.tEz (V/m) @ t=0.22
0.7813226014960981
% V (V) @ t=0.22
0.010432161073831206
% es.normE (V/m) @ t=0.24
2.1104367433140103
% es.EX (V/m) @ t=0.24
1.9503201891306974
% es.EY (V/m) @ t=0.24
0.12280432217910464
% es.EZ (V/m) @ t=0.24
0.7884404680649613
% es.tEX (V/m) @ t=0.24
1.950320189130693
% es.tEY (V/m) @ t=0.24
0
% es.tEZ (V/m) @ t=0.24
0.7884404680649624
% es.Ex (V/m) @ t=0.24
1.9503201891306974
% es.Ey (V/m) @ t=0.24
0.12280432217910464
% es.Ez (V/m) @ t=0.24
0.7884404680649613
% es.tEx (V/m) @ t=0.24
1.950320189130693
% es.tEy (V/m) @ t=0.24
0
% es.tEz (V/m) @ t=0.24
0.7884404680649624
% V (V) @ t=0.24
0.010527196857301453
% es.normE (V/m) @ t=0.26
2.1294892435628934
% es.EX (V/m) @ t=0.26
1.9679271874692619
% es.EY (V/m) @ t=0.26
0.1239130128539554
% es.EZ (V/m) @ t=0.26
0.7955583346338471
% es.tEX (V/m) @ t=0.26
1.9679271874692574
% es.tEY (V/m) @ t=0.26
0
% es.tEZ (V/m) @ t=0.26
0.7955583346338506
% es.Ex (V/m) @ t=0.26
1.9679271874692619
% es.Ey (V/m) @ t=0.26
0.1239130128539554
% es.Ez (V/m) @ t=0.26
0.7955583346338471
% es.tEx (V/m) @ t=0.26
1.9679271874692574
% es.tEy (V/m) @ t=0.26
0
% es.tEz (V/m) @ t=0.26
0.7955583346338506
% V (V) @ t=0.26
0.0106222326407717
% es.normE (V/m) @ t=0.28
2.1503844397235365
% es.EX (V/m) @ t=0.28
1.9872370113521987
% es.EY (V/m) @ t=0.28
0.12512924157691752
% es.EZ (V/m) @ t=0.28
0.8033647692365802
% es.tEX (V/m) @ t=0.28
1.9872370113521907
% es.tEY (V/m) @ t=0.28
0
% es.tEZ (V/m) @ t=0.28
0.8033647692365871
% es.Ex (V/m) @ t=0.28
1.9872370113521987
% es.Ey (V/m) @ t=0.28
0.12512924157691752
% es.Ez (V/m) @ t=0.28
0.8033647692365802
% es.tEx (V/m) @ t=0.28
1.9872370113521907
% es.tEy (V/m) @ t=0.28
0
% es.tEz (V/m) @ t=0.28
0.8033647692365871
% V (V) @ t=0.28
0.010726451857206502
% es.normE (V/m) @ t=0.3
2.1715173834231787
% es.EX (V/m) @ t=0.3
2.006766536478148
% es.EY (V/m) @ t=0.3
0.12635934502880564
% es.EZ (V/m) @ t=0.3
0.8112600439752933
% es.tEX (V/m) @ t=0.3
2.006766536478141
% es.tEY (V/m) @ t=0.3
0
% es.tEZ (V/m) @ t=0.3
0.8112600439752891
% es.Ex (V/m) @ t=0.3
2.006766536478148
% es.Ey (V/m) @ t=0.3
0.12635934502880564
% es.Ez (V/m) @ t=0.3
0.8112600439752933
% es.tEx (V/m) @ t=0.3
2.006766536478141
% es.tEy (V/m) @ t=0.3
0
% es.tEz (V/m) @ t=0.3
0.8112600439752891
% V (V) @ t=0.3
0.010831855934676664
% es.normE (V/m) @ t=0.32
2.192650327122964
% es.EX (V/m) @ t=0.32
2.0262960616040964
% es.EY (V/m) @ t=0.32
0.12758944848070086
% es.EZ (V/m) @ t=0.32
0.8191553187140383
% es.tEX (V/m) @ t=0.32
2.0262960616041
% es.tEY (V/m) @ t=0.32
0
% es.tEZ (V/m) @ t=0.32
0.819155318714039
% es.Ex (V/m) @ t=0.32
2.0262960616040964
% es.Ey (V/m) @ t=0.32
0.12758944848070086
% es.Ez (V/m) @ t=0.32
0.8191553187140383
% es.tEx (V/m) @ t=0.32
2.0262960616041
% es.tEy (V/m) @ t=0.32
0
% es.tEz (V/m) @ t=0.32
0.819155318714039
% V (V) @ t=0.32
0.010937260012146824
% es.normE (V/m) @ t=0.34
2.213783270822866
% es.EX (V/m) @ t=0.34
2.0458255867300386
% es.EY (V/m) @ t=0.34
0.1288195519325962
% es.EZ (V/m) @ t=0.34
0.827050593452763
% es.tEX (V/m) @ t=0.34
2.0458255867300466
% es.tEY (V/m) @ t=0.34
0
% es.tEZ (V/m) @ t=0.34
0.8270505934527637
% es.Ex (V/m) @ t=0.34
2.0458255867300386
% es.Ey (V/m) @ t=0.34
0.1288195519325962
% es.Ez (V/m) @ t=0.34
0.827050593452763
% es.tEx (V/m) @ t=0.34
2.0458255867300466
% es.tEy (V/m) @ t=0.34
0
% es.tEz (V/m) @ t=0.34
0.8270505934527637
% V (V) @ t=0.34
0.011042664089616983
% es.normE (V/m) @ t=0.36
2.2349162145229116
% es.EX (V/m) @ t=0.36
2.0653551118559994
% es.EY (V/m) @ t=0.36
0.13004965538448177
% es.EZ (V/m) @ t=0.36
0.834945868191493
% es.tEX (V/m) @ t=0.36
2.0653551118559914
% es.tEY (V/m) @ t=0.36
0
% es.tEZ (V/m) @ t=0.36
0.8349458681914994
% es.Ex (V/m) @ t=0.36
2.0653551118559994
% es.Ey (V/m) @ t=0.36
0.13004965538448177
% es.Ez (V/m) @ t=0.36
0.834945868191493
% es.tEx (V/m) @ t=0.36
2.0653551118559914
% es.tEy (V/m) @ t=0.36
0
% es.tEz (V/m) @ t=0.36
0.8349458681914994
% V (V) @ t=0.36
0.011148068167087143
% es.normE (V/m) @ t=0.38
2.256049158223063
% es.EX (V/m) @ t=0.38
2.0848846369819487
% es.EY (V/m) @ t=0.38
0.13127975883637755
% es.EZ (V/m) @ t=0.38
0.8428411429302047
% es.tEX (V/m) @ t=0.38
2.084884636981954
% es.tEY (V/m) @ t=0.38
0
% es.tEZ (V/m) @ t=0.38
0.8428411429301987
% es.Ex (V/m) @ t=0.38
2.0848846369819487
% es.Ey (V/m) @ t=0.38
0.13127975883637755
% es.Ez (V/m) @ t=0.38
0.8428411429302047
% es.tEx (V/m) @ t=0.38
2.084884636981954
% es.tEy (V/m) @ t=0.38
0
% es.tEz (V/m) @ t=0.38
0.8428411429301987
% V (V) @ t=0.38
0.011253472244557304
% es.normE (V/m) @ t=0.4
2.277182101923339
% es.EX (V/m) @ t=0.4
2.104414162107889
% es.EY (V/m) @ t=0.4
0.13250986228827377
% es.EZ (V/m) @ t=0.4
0.8507364176689569
% es.tEX (V/m) @ t=0.4
2.10441416210789
% es.tEY (V/m) @ t=0.4
0
% es.tEZ (V/m) @ t=0.4
0.85073641766895
% es.Ex (V/m) @ t=0.4
2.104414162107889
% es.Ey (V/m) @ t=0.4
0.13250986228827377
% es.Ez (V/m) @ t=0.4
0.8507364176689569
% es.tEx (V/m) @ t=0.4
2.10441416210789
% es.tEy (V/m) @ t=0.4
0
% es.tEz (V/m) @ t=0.4
0.85073641766895
% V (V) @ t=0.4
0.011358876322027462
% es.normE (V/m) @ t=0.42
2.2983150456237285
% es.EX (V/m) @ t=0.42
2.1239436872338393
% es.EY (V/m) @ t=0.42
0.13373996574015468
% es.EZ (V/m) @ t=0.42
0.858631692407678
% es.tEX (V/m) @ t=0.42
2.123943687233842
% es.tEY (V/m) @ t=0.42
0
% es.tEZ (V/m) @ t=0.42
0.8586316924076818
% es.Ex (V/m) @ t=0.42
2.1239436872338393
% es.Ey (V/m) @ t=0.42
0.13373996574015468
% es.Ez (V/m) @ t=0.42
0.858631692407678
% es.tEx (V/m) @ t=0.42
2.123943687233842
% es.tEy (V/m) @ t=0.42
0
% es.tEz (V/m) @ t=0.42
0.8586316924076818
% V (V) @ t=0.42
0.011464280399497626
% es.normE (V/m) @ t=0.44
2.319447989324229
% es.EX (V/m) @ t=0.44
2.143473212359784
% es.EY (V/m) @ t=0.44
0.13497006919205545
% es.EZ (V/m) @ t=0.44
0.8665269671464098
% es.tEX (V/m) @ t=0.44
2.143473212359776
% es.tEY (V/m) @ t=0.44
0
% es.tEZ (V/m) @ t=0.44
0.8665269671464122
% es.Ex (V/m) @ t=0.44
2.143473212359784
% es.Ey (V/m) @ t=0.44
0.13497006919205545
% es.Ez (V/m) @ t=0.44
0.8665269671464098
% es.tEx (V/m) @ t=0.44
2.143473212359776
% es.tEy (V/m) @ t=0.44
0
% es.tEz (V/m) @ t=0.44
0.8665269671464122
% V (V) @ t=0.44
0.011569684476967783
% es.normE (V/m) @ t=0.46
2.3405809330248353
% es.EX (V/m) @ t=0.46
2.1630027374857317
% es.EY (V/m) @ t=0.46
0.1362001726439419
% es.EZ (V/m) @ t=0.46
0.8744222418851273
% es.tEX (V/m) @ t=0.46
2.163002737485737
% es.tEY (V/m) @ t=0.46
0
% es.tEZ (V/m) @ t=0.46
0.8744222418851302
% es.Ex (V/m) @ t=0.46
2.1630027374857317
% es.Ey (V/m) @ t=0.46
0.1362001726439419
% es.Ez (V/m) @ t=0.46
0.8744222418851273
% es.tEx (V/m) @ t=0.46
2.163002737485737
% es.tEy (V/m) @ t=0.46
0
% es.tEz (V/m) @ t=0.46
0.8744222418851302
% V (V) @ t=0.46
0.011675088554437944
% es.normE (V/m) @ t=0.48
2.361713876725563
% es.EX (V/m) @ t=0.48
2.1825322626116908
% es.EY (V/m) @ t=0.48
0.13743027609583425
% es.EZ (V/m) @ t=0.48
0.882317516623859
% es.tEX (V/m) @ t=0.48
2.182532262611687
% es.tEY (V/m) @ t=0.48
0
% es.tEZ (V/m) @ t=0.48
0.882317516623869
% es.Ex (V/m) @ t=0.48
2.1825322626116908
% es.Ey (V/m) @ t=0.48
0.13743027609583425
% es.Ez (V/m) @ t=0.48
0.882317516623859
% es.tEx (V/m) @ t=0.48
2.182532262611687
% es.tEy (V/m) @ t=0.48
0
% es.tEz (V/m) @ t=0.48
0.882317516623869
% V (V) @ t=0.48
0.011780492631908106
% es.normE (V/m) @ t=0.5
2.3828468204263844
% es.EX (V/m) @ t=0.5
2.2020617877376347
% es.EY (V/m) @ t=0.5
0.13866037954773658
% es.EZ (V/m) @ t=0.5
0.8902127913625957
% es.tEX (V/m) @ t=0.5
2.2020617877376303
% es.tEY (V/m) @ t=0.5
0
% es.tEZ (V/m) @ t=0.5
0.8902127913625968
% es.Ex (V/m) @ t=0.5
2.2020617877376347
% es.Ey (V/m) @ t=0.5
0.13866037954773658
% es.Ez (V/m) @ t=0.5
0.8902127913625957
% es.tEx (V/m) @ t=0.5
2.2020617877376303
% es.tEy (V/m) @ t=0.5
0
% es.tEz (V/m) @ t=0.5
0.8902127913625968
% V (V) @ t=0.5
0.011885896709378268
% es.normE (V/m) @ t=0.52
2.403979764127314
% es.EX (V/m) @ t=0.52
2.2215913128635885
% es.EY (V/m) @ t=0.52
0.1398904829996257
% es.EZ (V/m) @ t=0.52
0.8981080661013305
% es.tEX (V/m) @ t=0.52
2.2215913128635947
% es.tEY (V/m) @ t=0.52
0
% es.tEZ (V/m) @ t=0.52
0.8981080661013334
% es.Ex (V/m) @ t=0.52
2.2215913128635885
% es.Ey (V/m) @ t=0.52
0.1398904829996257
% es.Ez (V/m) @ t=0.52
0.8981080661013305
% es.tEx (V/m) @ t=0.52
2.2215913128635947
% es.tEy (V/m) @ t=0.52
0
% es.tEz (V/m) @ t=0.52
0.8981080661013334
% V (V) @ t=0.52
0.011991300786848425
% es.normE (V/m) @ t=0.54
2.426948622115682
% es.EX (V/m) @ t=0.54
2.242817663880393
% es.EY (V/m) @ t=0.54
0.14122647483147122
% es.EZ (V/m) @ t=0.54
0.9066887641499408
% es.tEX (V/m) @ t=0.54
2.242817663880393
% es.tEY (V/m) @ t=0.54
0
% es.tEZ (V/m) @ t=0.54
0.9066887641499379
% es.Ex (V/m) @ t=0.54
2.242817663880393
% es.Ey (V/m) @ t=0.54
0.14122647483147122
% es.Ez (V/m) @ t=0.54
0.9066887641499408
% es.tEx (V/m) @ t=0.54
2.242817663880393
% es.tEy (V/m) @ t=0.54
0
% es.tEz (V/m) @ t=0.54
0.9066887641499379
% V (V) @ t=0.54
0.01210588732250956
% es.normE (V/m) @ t=0.56
2.4504321574790286
% es.EX (V/m) @ t=0.56
2.264519700445506
% es.EY (V/m) @ t=0.56
0.1425921512481244
% es.EZ (V/m) @ t=0.56
0.9154616127101212
% es.tEX (V/m) @ t=0.56
2.264519700445506
% es.tEY (V/m) @ t=0.56
0
% es.tEZ (V/m) @ t=0.56
0.9154616127101192
% es.Ex (V/m) @ t=0.56
2.264519700445506
% es.Ey (V/m) @ t=0.56
0.1425921512481244
% es.Ez (V/m) @ t=0.56
0.9154616127101212
% es.tEx (V/m) @ t=0.56
2.264519700445506
% es.tEy (V/m) @ t=0.56
0
% es.tEz (V/m) @ t=0.56
0.9154616127101192
% V (V) @ t=0.56
0.012223048054311217
% es.normE (V/m) @ t=0.58
2.4739156928429304
% es.EX (V/m) @ t=0.58
2.2862217370106164
% es.EY (V/m) @ t=0.58
0.14395782766479548
% es.EZ (V/m) @ t=0.58
0.9242344612703097
% es.tEX (V/m) @ t=0.58
2.2862217370106084
% es.tEY (V/m) @ t=0.58
0
% es.tEZ (V/m) @ t=0.58
0.924234461270304
% es.Ex (V/m) @ t=0.58
2.2862217370106164
% es.Ey (V/m) @ t=0.58
0.14395782766479548
% es.Ez (V/m) @ t=0.58
0.9242344612703097
% es.tEx (V/m) @ t=0.58
2.2862217370106084
% es.tEy (V/m) @ t=0.58
0
% es.tEz (V/m) @ t=0.58
0.924234461270304
% V (V) @ t=0.58
0.01234020878611287
% es.normE (V/m) @ t=0.6
2.4973992282073656
% es.EX (V/m) @ t=0.6
2.3079237735757303
% es.EY (V/m) @ t=0.6
0.14532350408145422
% es.EZ (V/m) @ t=0.6
0.9330073098304803
% es.tEX (V/m) @ t=0.6
2.307923773575718
% es.tEY (V/m) @ t=0.6
0
% es.tEZ (V/m) @ t=0.6
0.9330073098304794
% es.Ex (V/m) @ t=0.6
2.3079237735757303
% es.Ey (V/m) @ t=0.6
0.14532350408145422
% es.Ez (V/m) @ t=0.6
0.9330073098304803
% es.tEx (V/m) @ t=0.6
2.307923773575718
% es.tEy (V/m) @ t=0.6
0
% es.tEz (V/m) @ t=0.6
0.9330073098304794
% V (V) @ t=0.6
0.012457369517914527
% es.normE (V/m) @ t=0.62
2.5208827635723257
% es.EX (V/m) @ t=0.62
2.3296258101408336
% es.EY (V/m) @ t=0.62
0.14668918049812174
% es.EZ (V/m) @ t=0.62
0.9417801583906824
% es.tEX (V/m) @ t=0.62
2.329625810140829
% es.tEY (V/m) @ t=0.62
0
% es.tEZ (V/m) @ t=0.62
0.9417801583906762
% es.Ex (V/m) @ t=0.62
2.3296258101408336
% es.Ey (V/m) @ t=0.62
0.14668918049812174
% es.Ez (V/m) @ t=0.62
0.9417801583906824
% es.tEx (V/m) @ t=0.62
2.329625810140829
% es.tEy (V/m) @ t=0.62
0
% es.tEz (V/m) @ t=0.62
0.9417801583906762
% V (V) @ t=0.62
0.012574530249716184
% es.normE (V/m) @ t=0.64
2.544366298937795
% es.EX (V/m) @ t=0.64
2.3513278467059475
% es.EY (V/m) @ t=0.64
0.1480548569147767
% es.EZ (V/m) @ t=0.64
0.9505530069508601
% es.tEX (V/m) @ t=0.64
2.351327846705951
% es.tEY (V/m) @ t=0.64
0
% es.tEZ (V/m) @ t=0.64
0.9505530069508588
% es.Ex (V/m) @ t=0.64
2.3513278467059475
% es.Ey (V/m) @ t=0.64
0.1480548569147767
% es.Ez (V/m) @ t=0.64
0.9505530069508601
% es.tEx (V/m) @ t=0.64
2.351327846705951
% es.tEy (V/m) @ t=0.64
0
% es.tEz (V/m) @ t=0.64
0.9505530069508588
% V (V) @ t=0.64
0.012691690981517843
% es.normE (V/m) @ t=0.66
2.5678498343037672
% es.EX (V/m) @ t=0.66
2.373029883271066
% es.EY (V/m) @ t=0.66
0.14942053333143723
% es.EZ (V/m) @ t=0.66
0.9593258555110484
% es.tEX (V/m) @ t=0.66
2.3730298832710677
% es.tEY (V/m) @ t=0.66
0
% es.tEZ (V/m) @ t=0.66
0.9593258555110493
% es.Ex (V/m) @ t=0.66
2.373029883271066
% es.Ey (V/m) @ t=0.66
0.14942053333143723
% es.Ez (V/m) @ t=0.66
0.9593258555110484
% es.tEx (V/m) @ t=0.66
2.3730298832710677
% es.tEy (V/m) @ t=0.66
0
% es.tEz (V/m) @ t=0.66
0.9593258555110493
% V (V) @ t=0.66
0.012808851713319495
% es.normE (V/m) @ t=0.68
2.5913333696702106
% es.EX (V/m) @ t=0.68
2.3947319198361665
% es.EY (V/m) @ t=0.68
0.15078620974810653
% es.EZ (V/m) @ t=0.68
0.9680987040712568
% es.tEX (V/m) @ t=0.68
2.394731919836156
% es.tEY (V/m) @ t=0.68
0
% es.tEZ (V/m) @ t=0.68
0.9680987040712656
% es.Ex (V/m) @ t=0.68
2.3947319198361665
% es.Ey (V/m) @ t=0.68
0.15078620974810653
% es.Ez (V/m) @ t=0.68
0.9680987040712568
% es.tEx (V/m) @ t=0.68
2.394731919836156
% es.tEy (V/m) @ t=0.68
0
% es.tEz (V/m) @ t=0.68
0.9680987040712656
% V (V) @ t=0.68
0.012926012445121152
% es.normE (V/m) @ t=0.7
2.614816905037123
% es.EX (V/m) @ t=0.7
2.4164339564012796
% es.EY (V/m) @ t=0.7
0.15215188616475084
% es.EZ (V/m) @ t=0.7
0.9768715526314362
% es.tEX (V/m) @ t=0.7
2.4164339564012796
% es.tEY (V/m) @ t=0.7
0
% es.tEZ (V/m) @ t=0.7
0.9768715526314375
% es.Ex (V/m) @ t=0.7
2.4164339564012796
% es.Ey (V/m) @ t=0.7
0.15215188616475084
% es.Ez (V/m) @ t=0.7
0.9768715526314362
% es.tEx (V/m) @ t=0.7
2.4164339564012796
% es.tEy (V/m) @ t=0.7
0
% es.tEz (V/m) @ t=0.7
0.9768715526314375
% V (V) @ t=0.7
0.013043173176922811
% es.normE (V/m) @ t=0.72
2.638300440404495
% es.EX (V/m) @ t=0.72
2.438135992966399
% es.EY (V/m) @ t=0.72
0.1535175625814299
% es.EZ (V/m) @ t=0.72
0.9856444011916086
% es.tEX (V/m) @ t=0.72
2.4381359929664015
% es.tEY (V/m) @ t=0.72
0
% es.tEZ (V/m) @ t=0.72
0.9856444011916112
% es.Ex (V/m) @ t=0.72
2.438135992966399
% es.Ey (V/m) @ t=0.72
0.1535175625814299
% es.Ez (V/m) @ t=0.72
0.9856444011916086
% es.tEx (V/m) @ t=0.72
2.4381359929664015
% es.tEy (V/m) @ t=0.72
0
% es.tEz (V/m) @ t=0.72
0.9856444011916112
% V (V) @ t=0.72
0.013160333908724467
% es.normE (V/m) @ t=0.74
2.661783975772301
% es.EX (V/m) @ t=0.74
2.4598380295315057
% es.EY (V/m) @ t=0.74
0.15488323899807888
% es.EZ (V/m) @ t=0.74
0.9944172497517902
% es.tEX (V/m) @ t=0.74
2.4598380295315057
% es.tEY (V/m) @ t=0.74
0
% es.tEZ (V/m) @ t=0.74
0.9944172497517947
% es.Ex (V/m) @ t=0.74
2.4598380295315057
% es.Ey (V/m) @ t=0.74
0.15488323899807888
% es.Ez (V/m) @ t=0.74
0.9944172497517902
% es.tEx (V/m) @ t=0.74
2.4598380295315057
% es.tEy (V/m) @ t=0.74
0
% es.tEz (V/m) @ t=0.74
0.9944172497517947
% V (V) @ t=0.74
0.013277494640526124
% es.normE (V/m) @ t=0.76
2.685267511140548
% es.EX (V/m) @ t=0.76
2.481540066096615
% es.EY (V/m) @ t=0.76
0.15624891541473995
% es.EZ (V/m) @ t=0.76
1.0031900983119906
% es.tEX (V/m) @ t=0.76
2.4815400660966134
% es.tEY (V/m) @ t=0.76
0
% es.tEZ (V/m) @ t=0.76
1.003190098311988
% es.Ex (V/m) @ t=0.76
2.481540066096615
% es.Ey (V/m) @ t=0.76
0.15624891541473995
% es.Ez (V/m) @ t=0.76
1.0031900983119906
% es.tEx (V/m) @ t=0.76
2.4815400660966134
% es.tEy (V/m) @ t=0.76
0
% es.tEz (V/m) @ t=0.76
1.003190098311988
% V (V) @ t=0.76
0.01339465537232778
% es.normE (V/m) @ t=0.78
2.70875104650922
% es.EX (V/m) @ t=0.78
2.5032421026617335
% es.EY (V/m) @ t=0.78
0.1576145918313907
% es.EZ (V/m) @ t=0.78
1.0119629468721758
% es.tEX (V/m) @ t=0.78
2.5032421026617353
% es.tEY (V/m) @ t=0.78
0
% es.tEZ (V/m) @ t=0.78
1.0119629468721723
% es.Ex (V/m) @ t=0.78
2.5032421026617335
% es.Ey (V/m) @ t=0.78
0.1576145918313907
% es.Ez (V/m) @ t=0.78
1.0119629468721758
% es.tEx (V/m) @ t=0.78
2.5032421026617353
% es.tEy (V/m) @ t=0.78
0
% es.tEz (V/m) @ t=0.78
1.0119629468721723
% V (V) @ t=0.78
0.013511816104129437
% es.normE (V/m) @ t=0.8
2.734023226734811
% es.EX (V/m) @ t=0.8
2.52659663293782
% es.EY (V/m) @ t=0.8
0.1590864595276229
% es.EZ (V/m) @ t=0.8
1.0214050423321348
% es.tEX (V/m) @ t=0.8
2.5265966329378227
% es.tEY (V/m) @ t=0.8
0
% es.tEZ (V/m) @ t=0.8
1.021405042332133
% es.Ex (V/m) @ t=0.8
2.52659663293782
% es.Ey (V/m) @ t=0.8
0.1590864595276229
% es.Ez (V/m) @ t=0.8
1.0214050423321348
% es.tEx (V/m) @ t=0.8
2.5265966329378227
% es.tEy (V/m) @ t=0.8
0
% es.tEz (V/m) @ t=0.8
1.021405042332133
% V (V) @ t=0.8
0.013637843760970445
% es.normE (V/m) @ t=0.82
2.7601512613393555
% es.EX (V/m) @ t=0.82
2.5507418701942175
% es.EY (V/m) @ t=0.82
0.16060913902747243
% es.EZ (V/m) @ t=0.82
1.0311673678732394
% es.tEX (V/m) @ t=0.82
2.550741870194214
% es.tEY (V/m) @ t=0.82
0
% es.tEZ (V/m) @ t=0.82
1.0311673678732376
% es.Ex (V/m) @ t=0.82
2.5507418701942175
% es.Ey (V/m) @ t=0.82
0.16060913902747243
% es.Ez (V/m) @ t=0.82
1.0311673678732394
% es.tEx (V/m) @ t=0.82
2.550741870194214
% es.tEy (V/m) @ t=0.82
0
% es.tEz (V/m) @ t=0.82
1.0311673678732376
% V (V) @ t=0.82
0.013768114181021768
% es.normE (V/m) @ t=0.84
2.786279295947626
% es.EX (V/m) @ t=0.84
2.5748871074506106
% es.EY (V/m) @ t=0.84
0.16213181852730996
% es.EZ (V/m) @ t=0.84
1.0409296934143475
% es.tEX (V/m) @ t=0.84
2.574887107450614
% es.tEY (V/m) @ t=0.84
0
% es.tEZ (V/m) @ t=0.84
1.0409296934143413
% es.Ex (V/m) @ t=0.84
2.5748871074506106
% es.Ey (V/m) @ t=0.84
0.16213181852730996
% es.Ez (V/m) @ t=0.84
1.0409296934143475
% es.tEx (V/m) @ t=0.84
2.574887107450614
% es.tEy (V/m) @ t=0.84
0
% es.tEz (V/m) @ t=0.84
1.0409296934143413
% V (V) @ t=0.84
0.013898384601073094
% es.normE (V/m) @ t=0.86
2.8124073305595068
% es.EX (V/m) @ t=0.86
2.5990323447069894
% es.EY (V/m) @ t=0.86
0.1636544980271687
% es.EZ (V/m) @ t=0.86
1.050692018955444
% es.tEX (V/m) @ t=0.86
2.5990323447069876
% es.tEY (V/m) @ t=0.86
0
% es.tEZ (V/m) @ t=0.86
1.0506920189554432
% es.Ex (V/m) @ t=0.86
2.5990323447069894
% es.Ey (V/m) @ t=0.86
0.1636544980271687
% es.Ez (V/m) @ t=0.86
1.050692018955444
% es.tEx (V/m) @ t=0.86
2.5990323447069876
% es.tEy (V/m) @ t=0.86
0
% es.tEz (V/m) @ t=0.86
1.0506920189554432
% V (V) @ t=0.86
0.014028655021124417
% es.normE (V/m) @ t=0.88
2.838535365174925
% es.EX (V/m) @ t=0.88
2.6231775819633807
% es.EY (V/m) @ t=0.88
0.16517717752704697
% es.EZ (V/m) @ t=0.88
1.0604543444965397
% es.tEX (V/m) @ t=0.88
2.623177581963379
% es.tEY (V/m) @ t=0.88
0
% es.tEZ (V/m) @ t=0.88
1.0604543444965362
% es.Ex (V/m) @ t=0.88
2.6231775819633807
% es.Ey (V/m) @ t=0.88
0.16517717752704697
% es.Ez (V/m) @ t=0.88
1.0604543444965397
% es.tEx (V/m) @ t=0.88
2.623177581963379
% es.tEy (V/m) @ t=0.88
0
% es.tEz (V/m) @ t=0.88
1.0604543444965362
% V (V) @ t=0.88
0.014158925441175746
% es.normE (V/m) @ t=0.9
2.864663399793786
% es.EX (V/m) @ t=0.9
2.647322819219781
% es.EY (V/m) @ t=0.9
0.1666998570269005
% es.EZ (V/m) @ t=0.9
1.0702166700376523
% es.tEX (V/m) @ t=0.9
2.647322819219795
% es.tEY (V/m) @ t=0.9
0
% es.tEZ (V/m) @ t=0.9
1.0702166700376639
% es.Ex (V/m) @ t=0.9
2.647322819219781
% es.Ey (V/m) @ t=0.9
0.1666998570269005
% es.Ez (V/m) @ t=0.9
1.0702166700376523
% es.tEx (V/m) @ t=0.9
2.647322819219795
% es.tEy (V/m) @ t=0.9
0
% es.tEz (V/m) @ t=0.9
1.0702166700376639
% V (V) @ t=0.9
0.014289195861227072
% es.normE (V/m) @ t=0.92
2.8907914344159544
% es.EX (V/m) @ t=0.92
2.671468056476158
% es.EY (V/m) @ t=0.92
0.16822253652676444
% es.EZ (V/m) @ t=0.92
1.0799789955787462
% es.tEX (V/m) @ t=0.92
2.671468056476158
% es.tEY (V/m) @ t=0.92
0
% es.tEZ (V/m) @ t=0.92
1.0799789955787462
% es.Ex (V/m) @ t=0.92
2.671468056476158
% es.Ey (V/m) @ t=0.92
0.16822253652676444
% es.Ez (V/m) @ t=0.92
1.0799789955787462
% es.tEx (V/m) @ t=0.92
2.671468056476158
% es.tEy (V/m) @ t=0.92
0
% es.tEz (V/m) @ t=0.92
1.0799789955787462
% V (V) @ t=0.92
0.014419466281278395
% es.normE (V/m) @ t=0.94
2.916919469041404
% es.EX (V/m) @ t=0.94
2.6956132937325616
% es.EY (V/m) @ t=0.94
0.1697452160266214
% es.EZ (V/m) @ t=0.94
1.089741321119864
% es.tEX (V/m) @ t=0.94
2.695613293732574
% es.tEY (V/m) @ t=0.94
0
% es.tEZ (V/m) @ t=0.94
1.0897413211198623
% es.Ex (V/m) @ t=0.94
2.6956132937325616
% es.Ey (V/m) @ t=0.94
0.1697452160266214
% es.Ez (V/m) @ t=0.94
1.089741321119864
% es.tEx (V/m) @ t=0.94
2.695613293732574
% es.tEy (V/m) @ t=0.94
0
% es.tEz (V/m) @ t=0.94
1.0897413211198623
% V (V) @ t=0.94
0.01454973670132972
% es.normE (V/m) @ t=0.96
2.9430475036699764
% es.EX (V/m) @ t=0.96
2.7197585309889387
% es.EY (V/m) @ t=0.96
0.1712678955264766
% es.EZ (V/m) @ t=0.96
1.099503646660951
% es.tEX (V/m) @ t=0.96
2.719758530988937
% es.tEY (V/m) @ t=0.96
0
% es.tEZ (V/m) @ t=0.96
1.0995036466609527
% es.Ex (V/m) @ t=0.96
2.7197585309889387
% es.Ey (V/m) @ t=0.96
0.1712678955264766
% es.Ez (V/m) @ t=0.96
1.099503646660951
% es.tEx (V/m) @ t=0.96
2.719758530988937
% es.tEy (V/m) @ t=0.96
0
% es.tEz (V/m) @ t=0.96
1.0995036466609527
% V (V) @ t=0.96
0.014680007121381046
% es.normE (V/m) @ t=0.98
2.9691755383016494
% es.EX (V/m) @ t=0.98
2.74390376824533
% es.EY (V/m) @ t=0.98
0.17279057502633166
% es.EZ (V/m) @ t=0.98
1.1092659722020652
% es.tEX (V/m) @ t=0.98
2.7439037682453264
% es.tEY (V/m) @ t=0.98
0
% es.tEZ (V/m) @ t=0.98
1.1092659722020617
% es.Ex (V/m) @ t=0.98
2.74390376824533
% es.Ey (V/m) @ t=0.98
0.17279057502633166
% es.Ez (V/m) @ t=0.98
1.1092659722020652
% es.tEx (V/m) @ t=0.98
2.7439037682453264
% es.tEy (V/m) @ t=0.98
0
% es.tEz (V/m) @ t=0.98
1.1092659722020617
% V (V) @ t=0.98
0.014810277541432371
% es.normE (V/m) @ t=1
2.995303572936307
% es.EX (V/m) @ t=1
2.768049005501716
% es.EY (V/m) @ t=1
0.17431325452618351
% es.EZ (V/m) @ t=1
1.1190282977431636
% es.tEX (V/m) @ t=1
2.768049005501716
% es.tEY (V/m) @ t=1
0
% es.tEZ (V/m) @ t=1
1.1190282977431671
% es.Ex (V/m) @ t=1
2.768049005501716
% es.Ey (V/m) @ t=1
0.17431325452618351
% es.Ez (V/m) @ t=1
1.1190282977431636
% es.tEx (V/m) @ t=1
2.768049005501716
% es.tEy (V/m) @ t=1
0
% es.tEz (V/m) @ t=1
1.1190282977431671
% V (V) @ t=1
0.014940547961483695
% es.normE (V/m) @ t=1.02
3.0214316075738745
% es.EX (V/m) @ t=1.02
2.7921942427580966
% es.EY (V/m) @ t=1.02
0.17583593402605824
% es.EZ (V/m) @ t=1.02
1.1287906232842477
% es.tEX (V/m) @ t=1.02
2.792194242758095
% es.tEY (V/m) @ t=1.02
0
% es.tEZ (V/m) @ t=1.02
1.1287906232842513
% es.Ex (V/m) @ t=1.02
2.7921942427580966
% es.Ey (V/m) @ t=1.02
0.17583593402605824
% es.Ez (V/m) @ t=1.02
1.1287906232842477
% es.tEx (V/m) @ t=1.02
2.792194242758095
% es.tEy (V/m) @ t=1.02
0
% es.tEz (V/m) @ t=1.02
1.1287906232842513
% V (V) @ t=1.02
0.01507081838153502
% es.normE (V/m) @ t=1.04
3.04755964221431
% es.EX (V/m) @ t=1.04
2.8163394800144896
% es.EY (V/m) @ t=1.04
0.1773586135259062
% es.EZ (V/m) @ t=1.04
1.1385529488253692
% es.tEX (V/m) @ t=1.04
2.816339480014495
% es.tEY (V/m) @ t=1.04
0
% es.tEZ (V/m) @ t=1.04
1.1385529488253745
% es.Ex (V/m) @ t=1.04
2.8163394800144896
% es.Ey (V/m) @ t=1.04
0.1773586135259062
% es.Ez (V/m) @ t=1.04
1.1385529488253692
% es.tEx (V/m) @ t=1.04
2.816339480014495
% es.tEy (V/m) @ t=1.04
0
% es.tEz (V/m) @ t=1.04