% Model:              1 neuron.mph
% Version:            COMSOL 6.0.0.405
% Date:               Mar 16 2023, 17:50
% Dimension:          0
% Nodes:              14017
% Expressions:        14017
% Description:        Electric field norm, Electric field, X component, Electric field, Y component, Electric field, Z component, Tangential electric field, X component, Tangential electric field, Y component, Tangential electric field, Z component, Electric field, x component, Electric field, y component, Electric field, z component, Tangential electric field, x component, Tangential electric field, y component, Tangential electric field, z component, Electric potential
% Length unit:        mm
% x
1.33
% y
12.2
% z
1.33
% es.normE (V/m) @ t=0
10.462089849113688
% es.EX (V/m) @ t=0
8.10690759435996
% es.EY (V/m) @ t=0
-1.2422181580417249
% es.EZ (V/m) @ t=0
6.476539349321416
% es.tEX (V/m) @ t=0
8.106907594359981
% es.tEY (V/m) @ t=0
0
% es.tEZ (V/m) @ t=0
6.476539349321417
% es.Ex (V/m) @ t=0
8.10690759435996
% es.Ey (V/m) @ t=0
-1.2422181580417249
% es.Ez (V/m) @ t=0
6.476539349321416
% es.tEx (V/m) @ t=0
8.106907594359981
% es.tEy (V/m) @ t=0
0
% es.tEz (V/m) @ t=0
6.476539349321417
% V (V) @ t=0
0.008639936522824292
% es.normE (V/m) @ t=0.02
9.036297222224576
% es.EX (V/m) @ t=0.02
7.002083478133814
% es.EY (V/m) @ t=0.02
-1.0729263670912026
% es.EZ (V/m) @ t=0.02
5.5939048115271355
% es.tEX (V/m) @ t=0.02
7.002083478133844
% es.tEY (V/m) @ t=0.02
0
% es.tEZ (V/m) @ t=0.02
5.593904811527138
% es.Ex (V/m) @ t=0.02
7.002083478133814
% es.Ey (V/m) @ t=0.02
-1.0729263670912026
% es.Ez (V/m) @ t=0.02
5.5939048115271355
% es.tEx (V/m) @ t=0.02
7.002083478133844
% es.tEy (V/m) @ t=0.02
0
% es.tEz (V/m) @ t=0.02
5.593904811527138
% V (V) @ t=0.02
0.007462470111793727
% es.normE (V/m) @ t=0.04
9.119409522095742
% es.EX (V/m) @ t=0.04
7.066485873596767
% es.EY (V/m) @ t=0.04
-1.0827946825640815
% es.EZ (V/m) @ t=0.04
5.645355361417774
% es.tEX (V/m) @ t=0.04
7.066485873596801
% es.tEY (V/m) @ t=0.04
0
% es.tEZ (V/m) @ t=0.04
5.645355361417776
% es.Ex (V/m) @ t=0.04
7.066485873596767
% es.Ey (V/m) @ t=0.04
-1.0827946825640815
% es.Ez (V/m) @ t=0.04
5.645355361417774
% es.tEx (V/m) @ t=0.04
7.066485873596801
% es.tEy (V/m) @ t=0.04
0
% es.tEz (V/m) @ t=0.04
5.645355361417776
% V (V) @ t=0.04
0.0075311068289680115
% es.normE (V/m) @ t=0.06
9.203235860875346
% es.EX (V/m) @ t=0.06
7.131441577858006
% es.EY (V/m) @ t=0.06
-1.0927478321912787
% es.EZ (V/m) @ t=0.06
5.697247910499133
% es.tEX (V/m) @ t=0.06
7.131441577858027
% es.tEY (V/m) @ t=0.06
0
% es.tEZ (V/m) @ t=0.06
5.6972479104991285
% es.Ex (V/m) @ t=0.06
7.131441577858006
% es.Ey (V/m) @ t=0.06
-1.0927478321912787
% es.Ez (V/m) @ t=0.06
5.697247910499133
% es.tEx (V/m) @ t=0.06
7.131441577858027
% es.tEy (V/m) @ t=0.06
0
% es.tEz (V/m) @ t=0.06
5.6972479104991285
% V (V) @ t=0.06
0.007600333416820703
% es.normE (V/m) @ t=0.08
9.28842444995395
% es.EX (V/m) @ t=0.08
7.197452872299223
% es.EY (V/m) @ t=0.08
-1.1028627472434476
% es.EZ (V/m) @ t=0.08
5.749983749428779
% es.tEX (V/m) @ t=0.08
7.197452872299252
% es.tEY (V/m) @ t=0.08
0
% es.tEZ (V/m) @ t=0.08
5.749983749428785
% es.Ex (V/m) @ t=0.08
7.197452872299223
% es.Ey (V/m) @ t=0.08
-1.1028627472434476
% es.Ez (V/m) @ t=0.08
5.749983749428779
% es.tEx (V/m) @ t=0.08
7.197452872299252
% es.tEy (V/m) @ t=0.08
0
% es.tEz (V/m) @ t=0.08
5.749983749428785
% V (V) @ t=0.08
0.007670685062838871
% es.normE (V/m) @ t=0.1
9.374388684753498
% es.EX (V/m) @ t=0.1
7.264065204601703
% es.EY (V/m) @ t=0.1
-1.113069769201191
% es.EZ (V/m) @ t=0.1
5.803199745465218
% es.tEX (V/m) @ t=0.1
7.26406520460173
% es.tEY (V/m) @ t=0.1
0
% es.tEZ (V/m) @ t=0.1
5.803199745465213
% es.Ex (V/m) @ t=0.1
7.264065204601703
% es.Ey (V/m) @ t=0.1
-1.113069769201191
% es.Ez (V/m) @ t=0.1
5.803199745465218
% es.tEx (V/m) @ t=0.1
7.26406520460173
% es.tEy (V/m) @ t=0.1
0
% es.tEz (V/m) @ t=0.1
5.803199745465213
% V (V) @ t=0.1
0.007741677300789657
% es.normE (V/m) @ t=0.12
9.46035291955299
% es.EX (V/m) @ t=0.12
7.330677536904134
% es.EY (V/m) @ t=0.12
-1.1232767911589256
% es.EZ (V/m) @ t=0.12
5.856415741501626
% es.tEX (V/m) @ t=0.12
7.3306775369041635
% es.tEY (V/m) @ t=0.12
0
% es.tEZ (V/m) @ t=0.12
5.856415741501635
% es.Ex (V/m) @ t=0.12
7.330677536904134
% es.Ey (V/m) @ t=0.12
-1.1232767911589256
% es.Ez (V/m) @ t=0.12
5.856415741501626
% es.tEx (V/m) @ t=0.12
7.3306775369041635
% es.tEy (V/m) @ t=0.12
0
% es.tEz (V/m) @ t=0.12
5.856415741501635
% V (V) @ t=0.12
0.007812669538740444
% es.normE (V/m) @ t=0.14
9.547601352830128
% es.EX (V/m) @ t=0.14
7.398284946669704
% es.EY (V/m) @ t=0.14
-1.1336361662334333
% es.EZ (V/m) @ t=0.14
5.9104267798687005
% es.tEX (V/m) @ t=0.14
7.398284946669731
% es.tEY (V/m) @ t=0.14
0
% es.tEZ (V/m) @ t=0.14
5.910426779868712
% es.Ex (V/m) @ t=0.14
7.398284946669704
% es.Ey (V/m) @ t=0.14
-1.1336361662334333
% es.Ez (V/m) @ t=0.14
5.9104267798687005
% es.tEx (V/m) @ t=0.14
7.398284946669731
% es.tEy (V/m) @ t=0.14
0
% es.tEz (V/m) @ t=0.14
5.910426779868712
% V (V) @ t=0.14
0.007884721845851051
% es.normE (V/m) @ t=0.16
9.6380841158091
% es.EX (V/m) @ t=0.16
7.468398517788598
% es.EY (V/m) @ t=0.16
-1.1443792516294131
% es.EZ (V/m) @ t=0.16
5.966440179295222
% es.tEX (V/m) @ t=0.16
7.468398517788627
% es.tEY (V/m) @ t=0.16
0
% es.tEZ (V/m) @ t=0.16
5.9664401792952155
% es.Ex (V/m) @ t=0.16
7.468398517788598
% es.Ey (V/m) @ t=0.16
-1.1443792516294131
% es.Ez (V/m) @ t=0.16
5.966440179295222
% es.tEx (V/m) @ t=0.16
7.468398517788627
% es.tEy (V/m) @ t=0.16
0
% es.tEz (V/m) @ t=0.16
5.9664401792952155
% V (V) @ t=0.16
0.00795944399974103
% es.normE (V/m) @ t=0.18
9.728566878788104
% es.EX (V/m) @ t=0.18
7.538512088907508
% es.EY (V/m) @ t=0.18
-1.1551223370253982
% es.EZ (V/m) @ t=0.18
6.022453578721744
% es.tEX (V/m) @ t=0.18
7.5385120889075345
% es.tEY (V/m) @ t=0.18
0
% es.tEZ (V/m) @ t=0.18
6.022453578721735
% es.Ex (V/m) @ t=0.18
7.538512088907508
% es.Ey (V/m) @ t=0.18
-1.1551223370253982
% es.Ez (V/m) @ t=0.18
6.022453578721744
% es.tEx (V/m) @ t=0.18
7.5385120889075345
% es.tEy (V/m) @ t=0.18
0
% es.tEz (V/m) @ t=0.18
6.022453578721735
% V (V) @ t=0.18
0.00803416615363101
% es.normE (V/m) @ t=0.2
9.81904964176712
% es.EX (V/m) @ t=0.2
7.608625660026402
% es.EY (V/m) @ t=0.2
-1.1658654224213691
% es.EZ (V/m) @ t=0.2
6.078466978148266
% es.tEX (V/m) @ t=0.2
7.608625660026429
% es.tEY (V/m) @ t=0.2
0
% es.tEZ (V/m) @ t=0.2
6.078466978148267
% es.Ex (V/m) @ t=0.2
7.608625660026402
% es.Ey (V/m) @ t=0.2
-1.1658654224213691
% es.Ez (V/m) @ t=0.2
6.078466978148266
% es.tEx (V/m) @ t=0.2
7.608625660026429
% es.tEy (V/m) @ t=0.2
0
% es.tEz (V/m) @ t=0.2
6.078466978148267
% V (V) @ t=0.2
0.008108888307520988
% es.normE (V/m) @ t=0.22
9.909532404746145
% es.EX (V/m) @ t=0.22
7.678739231145284
% es.EY (V/m) @ t=0.22
-1.176608507817388
% es.EZ (V/m) @ t=0.22
6.134480377574777
% es.tEX (V/m) @ t=0.22
7.678739231145309
% es.tEY (V/m) @ t=0.22
0
% es.tEZ (V/m) @ t=0.22
6.1344803775747785
% es.Ex (V/m) @ t=0.22
7.678739231145284
% es.Ey (V/m) @ t=0.22
-1.176608507817388
% es.Ez (V/m) @ t=0.22
6.134480377574777
% es.tEx (V/m) @ t=0.22
7.678739231145309
% es.tEy (V/m) @ t=0.22
0
% es.tEz (V/m) @ t=0.22
6.1344803775747785
% V (V) @ t=0.22
0.008183610461410968
% es.normE (V/m) @ t=0.24
10.000015167725195
% es.EX (V/m) @ t=0.24
7.748852802264171
% es.EY (V/m) @ t=0.24
-1.1873515932133216
% es.EZ (V/m) @ t=0.24
6.190493777001307
% es.tEX (V/m) @ t=0.24
7.748852802264189
% es.tEY (V/m) @ t=0.24
0
% es.tEZ (V/m) @ t=0.24
6.190493777001311
% es.Ex (V/m) @ t=0.24
7.748852802264171
% es.Ey (V/m) @ t=0.24
-1.1873515932133216
% es.Ez (V/m) @ t=0.24
6.190493777001307
% es.tEx (V/m) @ t=0.24
7.748852802264189
% es.tEy (V/m) @ t=0.24
0
% es.tEz (V/m) @ t=0.24
6.190493777001311
% V (V) @ t=0.24
0.008258332615300946
% es.normE (V/m) @ t=0.26
10.090497930704268
% es.EX (V/m) @ t=0.26
7.818966373383065
% es.EY (V/m) @ t=0.26
-1.1980946786093085
% es.EZ (V/m) @ t=0.26
6.246507176427825
% es.tEX (V/m) @ t=0.26
7.818966373383083
% es.tEY (V/m) @ t=0.26
0
% es.tEZ (V/m) @ t=0.26
6.246507176427815
% es.Ex (V/m) @ t=0.26
7.818966373383065
% es.Ey (V/m) @ t=0.26
-1.1980946786093085
% es.Ez (V/m) @ t=0.26
6.246507176427825
% es.tEx (V/m) @ t=0.26
7.818966373383083
% es.tEy (V/m) @ t=0.26
0
% es.tEz (V/m) @ t=0.26
6.246507176427815
% V (V) @ t=0.26
0.008333054769190926
% es.normE (V/m) @ t=0.28
10.186860897593121
% es.EX (V/m) @ t=0.28
7.893637296238145
% es.EY (V/m) @ t=0.28
-1.2095399612680726
% es.EZ (V/m) @ t=0.28
6.306158758889046
% es.tEX (V/m) @ t=0.28
7.893637296238166
% es.tEY (V/m) @ t=0.28
0
% es.tEZ (V/m) @ t=0.28
6.306158758889049
% es.Ex (V/m) @ t=0.28
7.893637296238145
% es.Ey (V/m) @ t=0.28
-1.2095399612680726
% es.Ez (V/m) @ t=0.28
6.306158758889046
% es.tEx (V/m) @ t=0.28
7.893637296238166
% es.tEy (V/m) @ t=0.28
0
% es.tEz (V/m) @ t=0.28
6.306158758889049
% V (V) @ t=0.28
0.008412647711923281
% es.normE (V/m) @ t=0.3
10.287512841677433
% es.EX (V/m) @ t=0.3
7.971632317704032
% es.EY (V/m) @ t=0.3
-1.2214974214108967
% es.EZ (V/m) @ t=0.3
6.368464005116407
% es.tEX (V/m) @ t=0.3
7.971632317704087
% es.tEY (V/m) @ t=0.3
0
% es.tEZ (V/m) @ t=0.3
6.3684640051164045
% es.Ex (V/m) @ t=0.3
7.971632317704032
% es.Ey (V/m) @ t=0.3
-1.2214974214108967
% es.Ez (V/m) @ t=0.3
6.368464005116407
% es.tEx (V/m) @ t=0.3
7.971632317704087
% es.tEy (V/m) @ t=0.3
0
% es.tEz (V/m) @ t=0.3
6.3684640051164045
% V (V) @ t=0.3
0.008495793371970935
% es.normE (V/m) @ t=0.32
10.388164785767309
% es.EX (V/m) @ t=0.32
8.04962733917002
% es.EY (V/m) @ t=0.32
-1.2334548815537065
% es.EZ (V/m) @ t=0.32
6.430769251343775
% es.tEX (V/m) @ t=0.32
8.049627339170051
% es.tEY (V/m) @ t=0.32
0
% es.tEZ (V/m) @ t=0.32
6.430769251343772
% es.Ex (V/m) @ t=0.32
8.04962733917002
% es.Ey (V/m) @ t=0.32
-1.2334548815537065
% es.Ez (V/m) @ t=0.32
6.430769251343775
% es.tEx (V/m) @ t=0.32
8.049627339170051
% es.tEy (V/m) @ t=0.32
0
% es.tEz (V/m) @ t=0.32
6.430769251343772
% V (V) @ t=0.32
0.008578939032018588
% es.normE (V/m) @ t=0.34
10.488816729862444
% es.EX (V/m) @ t=0.34
8.12762236063592
% es.EY (V/m) @ t=0.34
-1.2454123416964862
% es.EZ (V/m) @ t=0.34
6.493074497571161
% es.tEX (V/m) @ t=0.34
8.127622360635971
% es.tEY (V/m) @ t=0.34
0
% es.tEZ (V/m) @ t=0.34
6.493074497571141
% es.Ex (V/m) @ t=0.34
8.12762236063592
% es.Ey (V/m) @ t=0.34
-1.2454123416964862
% es.Ez (V/m) @ t=0.34
6.493074497571161
% es.tEx (V/m) @ t=0.34
8.127622360635971
% es.tEy (V/m) @ t=0.34
0
% es.tEz (V/m) @ t=0.34
6.493074497571141
% V (V) @ t=0.34
0.00866208469206624
% es.normE (V/m) @ t=0.36
10.589468673962784
% es.EX (V/m) @ t=0.36
8.205617382101892
% es.EY (V/m) @ t=0.36
-1.2573698018392765
% es.EZ (V/m) @ t=0.36
6.555379743798511
% es.tEX (V/m) @ t=0.36
8.205617382101906
% es.tEY (V/m) @ t=0.36
0
% es.tEZ (V/m) @ t=0.36
6.555379743798495
% es.Ex (V/m) @ t=0.36
8.205617382101892
% es.Ey (V/m) @ t=0.36
-1.2573698018392765
% es.Ez (V/m) @ t=0.36
6.555379743798511
% es.tEx (V/m) @ t=0.36
8.205617382101906
% es.tEy (V/m) @ t=0.36
0
% es.tEz (V/m) @ t=0.36
6.555379743798495
% V (V) @ t=0.36
0.008745230352113892
% es.normE (V/m) @ t=0.38
10.690120618068125
% es.EX (V/m) @ t=0.38
8.283612403567814
% es.EY (V/m) @ t=0.38
-1.2693272619821148
% es.EZ (V/m) @ t=0.38
6.617684990025875
% es.tEX (V/m) @ t=0.38
8.283612403567842
% es.tEY (V/m) @ t=0.38
0
% es.tEZ (V/m) @ t=0.38
6.617684990025878
% es.Ex (V/m) @ t=0.38
8.283612403567814
% es.Ey (V/m) @ t=0.38
-1.2693272619821148
% es.Ez (V/m) @ t=0.38
6.617684990025875
% es.tEx (V/m) @ t=0.38
8.283612403567842
% es.tEy (V/m) @ t=0.38
0
% es.tEz (V/m) @ t=0.38
6.617684990025878
% V (V) @ t=0.38
0.008828376012161547
% es.normE (V/m) @ t=0.4
10.790772562178411
% es.EX (V/m) @ t=0.4
8.3616074250338
% es.EY (V/m) @ t=0.4
-1.2812847221248962
% es.EZ (V/m) @ t=0.4
6.679990236253271
% es.tEX (V/m) @ t=0.4
8.361607425033835
% es.tEY (V/m) @ t=0.4
0
% es.tEZ (V/m) @ t=0.4
6.679990236253267
% es.Ex (V/m) @ t=0.4
8.3616074250338
% es.Ey (V/m) @ t=0.4
-1.2812847221248962
% es.Ez (V/m) @ t=0.4
6.679990236253271
% es.tEx (V/m) @ t=0.4
8.361607425033835
% es.tEy (V/m) @ t=0.4
0
% es.tEz (V/m) @ t=0.4
6.679990236253267
% V (V) @ t=0.4
0.0089115216722092
% es.normE (V/m) @ t=0.42
10.891424506293399
% es.EX (V/m) @ t=0.42
8.439602446499766
% es.EY (V/m) @ t=0.42
-1.2932421822676545
% es.EZ (V/m) @ t=0.42
6.742295482480623
% es.tEX (V/m) @ t=0.42
8.439602446499784
% es.tEY (V/m) @ t=0.42
0
% es.tEZ (V/m) @ t=0.42
6.742295482480607
% es.Ex (V/m) @ t=0.42
8.439602446499766
% es.Ey (V/m) @ t=0.42
-1.2932421822676545
% es.Ez (V/m) @ t=0.42
6.742295482480623
% es.tEx (V/m) @ t=0.42
8.439602446499784
% es.tEy (V/m) @ t=0.42
0
% es.tEz (V/m) @ t=0.42
6.742295482480607
% V (V) @ t=0.42
0.008994667332256852
% es.normE (V/m) @ t=0.44
10.992076450412988
% es.EX (V/m) @ t=0.44
8.517597467965688
% es.EY (V/m) @ t=0.44
-1.3051996424104768
% es.EZ (V/m) @ t=0.44
6.804600728707991
% es.tEX (V/m) @ t=0.44
8.517597467965704
% es.tEY (V/m) @ t=0.44
0
% es.tEZ (V/m) @ t=0.44
6.804600728707998
% es.Ex (V/m) @ t=0.44
8.517597467965688
% es.Ey (V/m) @ t=0.44
-1.3051996424104768
% es.Ez (V/m) @ t=0.44
6.804600728707991
% es.tEx (V/m) @ t=0.44
8.517597467965704
% es.tEy (V/m) @ t=0.44
0
% es.tEz (V/m) @ t=0.44
6.804600728707998
% V (V) @ t=0.44
0.009077812992304504
% es.normE (V/m) @ t=0.46
11.092728394537103
% es.EX (V/m) @ t=0.46
8.595592489431645
% es.EY (V/m) @ t=0.46
-1.3171571025533044
% es.EZ (V/m) @ t=0.46
6.866905974935369
% es.tEX (V/m) @ t=0.46
8.595592489431667
% es.tEY (V/m) @ t=0.46
0
% es.tEZ (V/m) @ t=0.46
6.866905974935352
% es.Ex (V/m) @ t=0.46
8.595592489431645
% es.Ey (V/m) @ t=0.46
-1.3171571025533044
% es.Ez (V/m) @ t=0.46
6.866905974935369
% es.tEx (V/m) @ t=0.46
8.595592489431667
% es.tEy (V/m) @ t=0.46
0
% es.tEz (V/m) @ t=0.46
6.866905974935352
% V (V) @ t=0.46
0.009160958652352159
% es.normE (V/m) @ t=0.48
11.193380338665518
% es.EX (V/m) @ t=0.48
8.673587510897546
% es.EY (V/m) @ t=0.48
-1.3291145626960947
% es.EZ (V/m) @ t=0.48
6.929211221162709
% es.tEX (V/m) @ t=0.48
8.673587510897574
% es.tEY (V/m) @ t=0.48
0
% es.tEZ (V/m) @ t=0.48
6.929211221162706
% es.Ex (V/m) @ t=0.48
8.673587510897546
% es.Ey (V/m) @ t=0.48
-1.3291145626960947
% es.Ez (V/m) @ t=0.48
6.929211221162709
% es.tEx (V/m) @ t=0.48
8.673587510897574
% es.tEy (V/m) @ t=0.48
0
% es.tEz (V/m) @ t=0.48
6.929211221162706
% V (V) @ t=0.48
0.009244104312399812
% es.normE (V/m) @ t=0.5
11.294032282798254
% es.EX (V/m) @ t=0.5
8.751582532363496
% es.EY (V/m) @ t=0.5
-1.3410720228389241
% es.EZ (V/m) @ t=0.5
6.991516467390087
% es.tEX (V/m) @ t=0.5
8.751582532363525
% es.tEY (V/m) @ t=0.5
0
% es.tEZ (V/m) @ t=0.5
6.991516467390088
% es.Ex (V/m) @ t=0.5
8.751582532363496
% es.Ey (V/m) @ t=0.5
-1.3410720228389241
% es.Ez (V/m) @ t=0.5
6.991516467390087
% es.tEx (V/m) @ t=0.5
8.751582532363525
% es.tEy (V/m) @ t=0.5
0
% es.tEz (V/m) @ t=0.5
6.991516467390088
% V (V) @ t=0.5
0.009327249972447464
% es.normE (V/m) @ t=0.52
11.394684226935107
% es.EX (V/m) @ t=0.52
8.829577553829427
% es.EY (V/m) @ t=0.52
-1.3530294829816842
% es.EZ (V/m) @ t=0.52
7.053821713617467
% es.tEX (V/m) @ t=0.52
8.82957755382946
% es.tEY (V/m) @ t=0.52
0
% es.tEZ (V/m) @ t=0.52
7.05382171361745
% es.Ex (V/m) @ t=0.52
8.829577553829427
% es.Ey (V/m) @ t=0.52
-1.3530294829816842
% es.Ez (V/m) @ t=0.52
7.053821713617467
% es.tEx (V/m) @ t=0.52
8.82957755382946
% es.tEy (V/m) @ t=0.52
0
% es.tEz (V/m) @ t=0.52
7.05382171361745
% V (V) @ t=0.52
0.009410395632495117
% es.normE (V/m) @ t=0.54
11.497233306221858
% es.EX (V/m) @ t=0.54
8.909041724626054
% es.EY (V/m) @ t=0.54
-1.3652080269298512
% es.EZ (V/m) @ t=0.54
7.117303404990879
% es.tEX (V/m) @ t=0.54
8.909041724626086
% es.tEY (V/m) @ t=0.54
0
% es.tEZ (V/m) @ t=0.54
7.117303404990878
% es.Ex (V/m) @ t=0.54
8.909041724626054
% es.Ey (V/m) @ t=0.54
-1.3652080269298512
% es.Ez (V/m) @ t=0.54
7.117303404990879
% es.tEx (V/m) @ t=0.54
8.909041724626086
% es.tEy (V/m) @ t=0.54
0
% es.tEz (V/m) @ t=0.54
7.117303404990878
% V (V) @ t=0.54
0.009495092693163183
% es.normE (V/m) @ t=0.56
11.609293254610002
% es.EX (V/m) @ t=0.56
8.995871151907053
% es.EY (V/m) @ t=0.56
-1.3784949258265815
% es.EZ (V/m) @ t=0.56
7.186682944907848
% es.tEX (V/m) @ t=0.56
8.995871151907084
% es.tEY (V/m) @ t=0.56
0
% es.tEZ (V/m) @ t=0.56
7.186682944907829
% es.Ex (V/m) @ t=0.56
8.995871151907053
% es.Ey (V/m) @ t=0.56
-1.3784949258265815
% es.Ez (V/m) @ t=0.56
7.186682944907848
% es.tEx (V/m) @ t=0.56
8.995871151907084
% es.tEy (V/m) @ t=0.56
0
% es.tEz (V/m) @ t=0.56
7.186682944907829
% V (V) @ t=0.56
0.009587567359034703
% es.normE (V/m) @ t=0.58
11.721353203040884
% es.EX (V/m) @ t=0.58
9.082700579187998
% es.EY (V/m) @ t=0.58
-1.391781824723358
% es.EZ (V/m) @ t=0.58
7.256062484824788
% es.tEX (V/m) @ t=0.58
9.08270057918801
% es.tEY (V/m) @ t=0.58
0
% es.tEZ (V/m) @ t=0.58
7.2560624848247866
% es.Ex (V/m) @ t=0.58
9.082700579187998
% es.Ey (V/m) @ t=0.58
-1.391781824723358
% es.Ez (V/m) @ t=0.58
7.256062484824788
% es.tEx (V/m) @ t=0.58
9.08270057918801
% es.tEy (V/m) @ t=0.58
0
% es.tEz (V/m) @ t=0.58
7.2560624848247866
% V (V) @ t=0.58
0.009680042024906221
% es.normE (V/m) @ t=0.6
11.833413151513348
% es.EX (V/m) @ t=0.6
9.169530006468921
% es.EY (V/m) @ t=0.6
-1.405068723620083
% es.EZ (V/m) @ t=0.6
7.325442024741758
% es.tEX (V/m) @ t=0.6
9.169530006468966
% es.tEY (V/m) @ t=0.6
0
% es.tEZ (V/m) @ t=0.6
7.3254420247417515
% es.Ex (V/m) @ t=0.6
9.169530006468921
% es.Ey (V/m) @ t=0.6
-1.405068723620083
% es.Ez (V/m) @ t=0.6
7.325442024741758
% es.tEx (V/m) @ t=0.6
9.169530006468966
% es.tEy (V/m) @ t=0.6
0
% es.tEz (V/m) @ t=0.6
7.3254420247417515
% V (V) @ t=0.6
0.009772516690777739
% es.normE (V/m) @ t=0.62
11.94547310002628
% es.EX (V/m) @ t=0.62
9.256359433749914
% es.EY (V/m) @ t=0.62
-1.418355622516824
% es.EZ (V/m) @ t=0.62
7.394821564658723
% es.tEX (V/m) @ t=0.62
9.25635943374995
% es.tEY (V/m) @ t=0.62
0
% es.tEZ (V/m) @ t=0.62
7.3948215646587165
% es.Ex (V/m) @ t=0.62
9.256359433749914
% es.Ey (V/m) @ t=0.62
-1.418355622516824
% es.Ez (V/m) @ t=0.62
7.394821564658723
% es.tEx (V/m) @ t=0.62
9.25635943374995
% es.tEy (V/m) @ t=0.62
0
% es.tEz (V/m) @ t=0.62
7.3948215646587165
% V (V) @ t=0.62
0.009864991356649259
% es.normE (V/m) @ t=0.64
12.057533048578463
% es.EX (V/m) @ t=0.64
9.343188861030878
% es.EY (V/m) @ t=0.64
-1.4316425214136093
% es.EZ (V/m) @ t=0.64
7.464201104575663
% es.tEX (V/m) @ t=0.64
9.343188861030892
% es.tEY (V/m) @ t=0.64
0
% es.tEZ (V/m) @ t=0.64
7.464201104575666
% es.Ex (V/m) @ t=0.64
9.343188861030878
% es.Ey (V/m) @ t=0.64
-1.4316425214136093
% es.Ez (V/m) @ t=0.64
7.464201104575663
% es.tEx (V/m) @ t=0.64
9.343188861030892
% es.tEy (V/m) @ t=0.64
0
% es.tEz (V/m) @ t=0.64
7.464201104575666
% V (V) @ t=0.64
0.009957466022520777
% es.normE (V/m) @ t=0.66
12.169592997168849
% es.EX (V/m) @ t=0.66
9.430018288311823
% es.EY (V/m) @ t=0.66
-1.4449294203103786
% es.EZ (V/m) @ t=0.66
7.533580644492625
% es.tEX (V/m) @ t=0.66
9.430018288311832
% es.tEY (V/m) @ t=0.66
0
% es.tEZ (V/m) @ t=0.66
7.533580644492618
% es.Ex (V/m) @ t=0.66
9.430018288311823
% es.Ey (V/m) @ t=0.66
-1.4449294203103786
% es.Ez (V/m) @ t=0.66
7.533580644492625
% es.tEx (V/m) @ t=0.66
9.430018288311832
% es.tEy (V/m) @ t=0.66
0
% es.tEz (V/m) @ t=0.66
7.533580644492618
% V (V) @ t=0.66
0.010049940688392295
% es.normE (V/m) @ t=0.68
12.281652945796392
% es.EX (V/m) @ t=0.68
9.516847715592775
% es.EY (V/m) @ t=0.68
-1.4582163192071231
% es.EZ (V/m) @ t=0.68
7.602960184409591
% es.tEX (V/m) @ t=0.68
9.516847715592831
% es.tEY (V/m) @ t=0.68
0
% es.tEZ (V/m) @ t=0.68
7.602960184409569
% es.Ex (V/m) @ t=0.68
9.516847715592775
% es.Ey (V/m) @ t=0.68
-1.4582163192071231
% es.Ez (V/m) @ t=0.68
7.602960184409591
% es.tEx (V/m) @ t=0.68
9.516847715592831
% es.tEy (V/m) @ t=0.68
0
% es.tEz (V/m) @ t=0.68
7.602960184409569
% V (V) @ t=0.68
0.010142415354263815
% es.normE (V/m) @ t=0.7
12.393712894460098
% es.EX (V/m) @ t=0.7
9.603677142873739
% es.EY (V/m) @ t=0.7
-1.471503218103848
% es.EZ (V/m) @ t=0.7
7.672339724326559
% es.tEX (V/m) @ t=0.7
9.603677142873787
% es.tEY (V/m) @ t=0.7
0
% es.tEZ (V/m) @ t=0.7
7.672339724326539
% es.Ex (V/m) @ t=0.7
9.603677142873739
% es.Ey (V/m) @ t=0.7
-1.471503218103848
% es.Ez (V/m) @ t=0.7
7.672339724326559
% es.tEx (V/m) @ t=0.7
9.603677142873787
% es.tEy (V/m) @ t=0.7
0
% es.tEz (V/m) @ t=0.7
7.672339724326539
% V (V) @ t=0.7
0.01023489002013533
% es.normE (V/m) @ t=0.72
12.505772843158963
% es.EX (V/m) @ t=0.72
9.690506570154698
% es.EY (V/m) @ t=0.72
-1.4847901170006317
% es.EZ (V/m) @ t=0.72
7.741719264243507
% es.tEX (V/m) @ t=0.72
9.690506570154728
% es.tEY (V/m) @ t=0.72
0
% es.tEZ (V/m) @ t=0.72
7.741719264243512
% es.Ex (V/m) @ t=0.72
9.690506570154698
% es.Ey (V/m) @ t=0.72
-1.4847901170006317
% es.Ez (V/m) @ t=0.72
7.741719264243507
% es.tEx (V/m) @ t=0.72
9.690506570154728
% es.tEy (V/m) @ t=0.72
0
% es.tEz (V/m) @ t=0.72
7.741719264243512
% V (V) @ t=0.72
0.010327364686006849
% es.normE (V/m) @ t=0.74
12.617832791892031
% es.EX (V/m) @ t=0.74
9.777335997435626
% es.EY (V/m) @ t=0.74
-1.498077015897378
% es.EZ (V/m) @ t=0.74
7.811098804160434
% es.tEX (V/m) @ t=0.74
9.777335997435639
% es.tEY (V/m) @ t=0.74
0
% es.tEZ (V/m) @ t=0.74
7.811098804160456
% es.Ex (V/m) @ t=0.74
9.777335997435626
% es.Ey (V/m) @ t=0.74
-1.498077015897378
% es.Ez (V/m) @ t=0.74
7.811098804160434
% es.tEx (V/m) @ t=0.74
9.777335997435639
% es.tEy (V/m) @ t=0.74
0
% es.tEz (V/m) @ t=0.74
7.811098804160456
% V (V) @ t=0.74
0.010419839351878367
% es.normE (V/m) @ t=0.76
12.729892740658487
% es.EX (V/m) @ t=0.76
9.864165424716578
% es.EY (V/m) @ t=0.76
-1.5113639147941207
% es.EZ (V/m) @ t=0.76
7.880478344077416
% es.tEX (V/m) @ t=0.76
9.86416542471661
% es.tEY (V/m) @ t=0.76
0
% es.tEZ (V/m) @ t=0.76
7.880478344077414
% es.Ex (V/m) @ t=0.76
9.864165424716578
% es.Ey (V/m) @ t=0.76
-1.5113639147941207
% es.Ez (V/m) @ t=0.76
7.880478344077416
% es.tEx (V/m) @ t=0.76
9.86416542471661
% es.tEy (V/m) @ t=0.76
0
% es.tEz (V/m) @ t=0.76
7.880478344077414
% V (V) @ t=0.76
0.010512314017749885
% es.normE (V/m) @ t=0.78
12.841952689457383
% es.EX (V/m) @ t=0.78
9.950994851997521
% es.EY (V/m) @ t=0.78
-1.524650813690867
% es.EZ (V/m) @ t=0.78
7.949857883994378
% es.tEX (V/m) @ t=0.78
9.95099485199758
% es.tEY (V/m) @ t=0.78
0
% es.tEZ (V/m) @ t=0.78
7.949857883994385
% es.Ex (V/m) @ t=0.78
9.950994851997521
% es.Ey (V/m) @ t=0.78
-1.524650813690867
% es.Ez (V/m) @ t=0.78
7.949857883994378
% es.tEx (V/m) @ t=0.78
9.95099485199758
% es.tEy (V/m) @ t=0.78
0
% es.tEz (V/m) @ t=0.78
7.949857883994385
% V (V) @ t=0.78
0.010604788683621405
% es.normE (V/m) @ t=0.8
12.95401263828796
% es.EX (V/m) @ t=0.8
10.03782427927852
% es.EY (V/m) @ t=0.8
-1.5379377125876275
% es.EZ (V/m) @ t=0.8
8.019237423911358
% es.tEX (V/m) @ t=0.8
10.037824279278578
% es.tEY (V/m) @ t=0.8
0
% es.tEZ (V/m) @ t=0.8
8.019237423911365
% es.Ex (V/m) @ t=0.8
10.03782427927852
% es.Ey (V/m) @ t=0.8
-1.5379377125876275
% es.Ez (V/m) @ t=0.8
8.019237423911358
% es.tEx (V/m) @ t=0.8
10.037824279278578
% es.tEy (V/m) @ t=0.8
0
% es.tEz (V/m) @ t=0.8
8.019237423911365
% V (V) @ t=0.8
0.010697263349492923
% es.normE (V/m) @ t=0.82
13.075949896397908
% es.EX (V/m) @ t=0.82
10.132311951605727
% es.EY (V/m) @ t=0.82
-1.5524178958064638
% es.EZ (V/m) @ t=0.82
8.094721538222743
% es.tEX (V/m) @ t=0.82
10.132311951605725
% es.tEY (V/m) @ t=0.82
0
% es.tEZ (V/m) @ t=0.82
8.094721538222753
% es.Ex (V/m) @ t=0.82
10.132311951605727
% es.Ey (V/m) @ t=0.82
-1.5524178958064638
% es.Ez (V/m) @ t=0.82
8.094721538222743
% es.tEx (V/m) @ t=0.82
10.132311951605725
% es.tEy (V/m) @ t=0.82
0
% es.tEz (V/m) @ t=0.82
8.094721538222753
% V (V) @ t=0.82
0.010797970246691897
% es.normE (V/m) @ t=0.84
13.201103481977425
% es.EX (V/m) @ t=0.84
10.229293362175943
% es.EY (V/m) @ t=0.84
-1.5672866456917642
% es.EZ (V/m) @ t=0.84
8.172193472267324
% es.tEX (V/m) @ t=0.84
10.229293362175977
% es.tEY (V/m) @ t=0.84
0
% es.tEZ (V/m) @ t=0.84
8.17219347226731
% es.Ex (V/m) @ t=0.84
10.229293362175943
% es.Ey (V/m) @ t=0.84
-1.5672866456917642
% es.Ez (V/m) @ t=0.84
8.172193472267324
% es.tEx (V/m) @ t=0.84
10.229293362175977
% es.tEy (V/m) @ t=0.84
0
% es.tEz (V/m) @ t=0.84
8.17219347226731
% V (V) @ t=0.84
0.010901357788080568
% es.normE (V/m) @ t=0.86
13.326257067567234
% es.EX (V/m) @ t=0.86
10.326274772746151
% es.EY (V/m) @ t=0.86
-1.5821553955770984
% es.EZ (V/m) @ t=0.86
8.249665406311909
% es.tEX (V/m) @ t=0.86
10.3262747727462
% es.tEY (V/m) @ t=0.86
0
% es.tEZ (V/m) @ t=0.86
8.249665406311909
% es.Ex (V/m) @ t=0.86
10.326274772746151
% es.Ey (V/m) @ t=0.86
-1.5821553955770984
% es.Ez (V/m) @ t=0.86
8.249665406311909
% es.tEx (V/m) @ t=0.86
10.3262747727462
% es.tEy (V/m) @ t=0.86
0
% es.tEz (V/m) @ t=0.86
8.249665406311909
% V (V) @ t=0.86
0.01100474532946924
% es.normE (V/m) @ t=0.88
13.451410653167144
% es.EX (V/m) @ t=0.88
10.423256183316452
% es.EY (V/m) @ t=0.88
-1.5970241454623615
% es.EZ (V/m) @ t=0.88
8.32713734035653
% es.tEX (V/m) @ t=0.88
10.423256183316479
% es.tEY (V/m) @ t=0.88
0
% es.tEZ (V/m) @ t=0.88
8.327137340356519
% es.Ex (V/m) @ t=0.88
10.423256183316452
% es.Ey (V/m) @ t=0.88
-1.5970241454623615
% es.Ez (V/m) @ t=0.88
8.32713734035653
% es.tEx (V/m) @ t=0.88
10.423256183316479
% es.tEy (V/m) @ t=0.88
0
% es.tEz (V/m) @ t=0.88
8.327137340356519
% V (V) @ t=0.88
0.011108132870857912
% es.normE (V/m) @ t=0.9
13.576564238776637
% es.EX (V/m) @ t=0.9
10.52023759388659
% es.EY (V/m) @ t=0.9
-1.6118928953476903
% es.EZ (V/m) @ t=0.9
8.404609274401109
% es.tEX (V/m) @ t=0.9
10.520237593886616
% es.tEY (V/m) @ t=0.9
0
% es.tEZ (V/m) @ t=0.9
8.404609274401103
% es.Ex (V/m) @ t=0.9
10.52023759388659
% es.Ey (V/m) @ t=0.9
-1.6118928953476903
% es.Ez (V/m) @ t=0.9
8.404609274401109
% es.tEx (V/m) @ t=0.9
10.520237593886616
% es.tEy (V/m) @ t=0.9
0
% es.tEz (V/m) @ t=0.9
8.404609274401103
% V (V) @ t=0.9
0.011211520412246583
% es.normE (V/m) @ t=0.92
13.7017178243957
% es.EX (V/m) @ t=0.92
10.617219004456855
% es.EY (V/m) @ t=0.92
-1.6267616452330191
% es.EZ (V/m) @ t=0.92
8.482081208445699
% es.tEX (V/m) @ t=0.92
10.617219004456896
% es.tEY (V/m) @ t=0.92
0
% es.tEZ (V/m) @ t=0.92
8.482081208445688
% es.Ex (V/m) @ t=0.92
10.617219004456855
% es.Ey (V/m) @ t=0.92
-1.6267616452330191
% es.Ez (V/m) @ t=0.92
8.482081208445699
% es.tEx (V/m) @ t=0.92
10.617219004456896
% es.tEy (V/m) @ t=0.92
0
% es.tEz (V/m) @ t=0.92
8.482081208445688
% V (V) @ t=0.92
0.011314907953635255
% es.normE (V/m) @ t=0.94
13.826871410023944
% es.EX (V/m) @ t=0.94
10.714200415027092
% es.EY (V/m) @ t=0.94
-1.6416303951183124
% es.EZ (V/m) @ t=0.94
8.559553142490284
% es.tEX (V/m) @ t=0.94
10.714200415027118
% es.tEY (V/m) @ t=0.94
0
% es.tEZ (V/m) @ t=0.94
8.55955314249028
% es.Ex (V/m) @ t=0.94
10.714200415027092
% es.Ey (V/m) @ t=0.94
-1.6416303951183124
% es.Ez (V/m) @ t=0.94
8.559553142490284
% es.tEx (V/m) @ t=0.94
10.714200415027118
% es.tEy (V/m) @ t=0.94
0
% es.tEz (V/m) @ t=0.94
8.55955314249028
% V (V) @ t=0.94
0.01141829549502393
% es.normE (V/m) @ t=0.96
13.952024995661167
% es.EX (V/m) @ t=0.96
10.81118182559735
% es.EY (V/m) @ t=0.96
-1.6564991450036413
% es.EZ (V/m) @ t=0.96
8.637025076534869
% es.tEX (V/m) @ t=0.96
10.811181825597398
% es.tEY (V/m) @ t=0.96
0
% es.tEZ (V/m) @ t=0.96
8.637025076534865
% es.Ex (V/m) @ t=0.96
10.81118182559735
% es.Ey (V/m) @ t=0.96
-1.6564991450036413
% es.Ez (V/m) @ t=0.96
8.637025076534869
% es.tEx (V/m) @ t=0.96
10.811181825597398
% es.tEy (V/m) @ t=0.96
0
% es.tEz (V/m) @ t=0.96
8.637025076534865
% V (V) @ t=0.96
0.011521683036412602
% es.normE (V/m) @ t=0.98
14.077178581307066
% es.EX (V/m) @ t=0.98
10.908163236167537
% es.EY (V/m) @ t=0.98
-1.6713678948889417
% es.EZ (V/m) @ t=0.98
8.714497010579464
% es.tEX (V/m) @ t=0.98
10.908163236167592
% es.tEY (V/m) @ t=0.98
0
% es.tEZ (V/m) @ t=0.98
8.714497010579478
% es.Ex (V/m) @ t=0.98
10.908163236167537
% es.Ey (V/m) @ t=0.98
-1.6713678948889417
% es.Ez (V/m) @ t=0.98
8.714497010579464
% es.tEx (V/m) @ t=0.98
10.908163236167592
% es.tEy (V/m) @ t=0.98
0
% es.tEz (V/m) @ t=0.98
8.714497010579478
% V (V) @ t=0.98
0.011625070577801272
% es.normE (V/m) @ t=1
14.202332166961483
% es.EX (V/m) @ t=1
11.00514464673776
% es.EY (V/m) @ t=1
-1.686236644774226
% es.EZ (V/m) @ t=1
8.791968944624069
% es.tEX (V/m) @ t=1
11.005144646737815
% es.tEY (V/m) @ t=1
0
% es.tEZ (V/m) @ t=1
8.791968944624061
% es.Ex (V/m) @ t=1
11.00514464673776
% es.Ey (V/m) @ t=1
-1.686236644774226
% es.Ez (V/m) @ t=1
8.791968944624069
% es.tEx (V/m) @ t=1
11.005144646737815
% es.tEy (V/m) @ t=1
0
% es.tEz (V/m) @ t=1
8.791968944624061
% V (V) @ t=1
0.011728458119189943
% es.normE (V/m) @ t=1.02
14.327485752624161
% es.EX (V/m) @ t=1.02
11.10212605730799
% es.EY (V/m) @ t=1.02
-1.7011053946595673
% es.EZ (V/m) @ t=1.02
8.869440878668645
% es.tEX (V/m) @ t=1.02
11.10212605730801
% es.tEY (V/m) @ t=1.02
0
% es.tEZ (V/m) @ t=1.02
8.869440878668632
% es.Ex (V/m) @ t=1.02
11.10212605730799
% es.Ey (V/m) @ t=1.02
-1.7011053946595673
% es.Ez (V/m) @ t=1.02
8.869440878668645
% es.tEx (V/m) @ t=1.02
11.10212605730801
% es.tEy (V/m) @ t=1.02
0
% es.tEz (V/m) @ t=1.02
8.869440878668632
% V (V) @ t=1.02
0.011831845660578615
% es.normE (V/m) @ t=1.04
14.452639338294885
% es.EX (V/m) @ t=1.04
11.199107467878177
% es.EY (V/m) @ t=1.04
-1.7159741445448837
% es.EZ (V/m) @ t=1.04
8.94691281271326
% es.tEX (V/m) @ t=1.04
11.199107467878203
% es.tEY (V/m) @ t=1.04
0
% es.tEZ (V/m) @ t=1.04
8.946912812713238
% es.Ex (V/m) @ t=1.04
11.199107467878177
% es.Ey (V/m) @ t=1.04
-1.7159741445448837
% es.Ez (V/m) @ t=1.04
8.94691281271326
% es.tEx (V/m) @ t=1.04
11.199107467878203
% es.tEy (V/m) @ t=1.04
0
% es.tEz (V/m) @ t=1.04
8.946912812713238
% V (V) @ t=1.04
0.011935233201967288
% es.normE (V/m) @ t=1.06
14.577792923973472
% es.EX (V/m) @ t=1.06
11.296088878448435
% es.EY (V/m) @ t=1.06
-1.7308428944301752
% es.EZ (V/m) @ t=1.06
9.024384746757818
% es.tEX (V/m) @ t=1.06