% Model:              1 neuron.mph
% Version:            COMSOL 6.0.0.405
% Date:               Mar 16 2023, 17:59
% Dimension:          0
% Nodes:              14017
% Expressions:        14017
% Description:        Electric field norm, Electric field, X component, Electric field, Y component, Electric field, Z component, Tangential electric field, X component, Tangential electric field, Y component, Tangential electric field, Z component, Electric field, x component, Electric field, y component, Electric field, z component, Tangential electric field, x component, Tangential electric field, y component, Tangential electric field, z component, Electric potential
% Length unit:        mm
% x
1.0000000000000002
% y
12.2
% z
2
% es.normE (V/m) @ t=0
1.0394155104414855
% es.EX (V/m) @ t=0
0.72198611402105
% es.EY (V/m) @ t=0
0.10810886537083303
% es.EZ (V/m) @ t=0
-0.720932868298195
% es.tEX (V/m) @ t=0
0.721986114021056
% es.tEY (V/m) @ t=0
0
% es.tEZ (V/m) @ t=0
-0.7209328682981804
% es.Ex (V/m) @ t=0
0.72198611402105
% es.Ey (V/m) @ t=0
0.10810886537083303
% es.Ez (V/m) @ t=0
-0.720932868298195
% es.tEx (V/m) @ t=0
0.721986114021056
% es.tEy (V/m) @ t=0
0
% es.tEz (V/m) @ t=0
-0.7209328682981804
% V (V) @ t=0
0.011130785036625634
% es.normE (V/m) @ t=0.02
0.8977624577666432
% es.EX (V/m) @ t=0.02
0.623592799674717
% es.EY (V/m) @ t=0.02
0.09337563261178172
% es.EZ (V/m) @ t=0.02
-0.6226830917966681
% es.tEX (V/m) @ t=0.02
0.6235927996747148
% es.tEY (V/m) @ t=0.02
0
% es.tEZ (V/m) @ t=0.02
-0.6226830917966537
% es.Ex (V/m) @ t=0.02
0.623592799674717
% es.Ey (V/m) @ t=0.02
0.09337563261178172
% es.Ez (V/m) @ t=0.02
-0.6226830917966681
% es.tEx (V/m) @ t=0.02
0.6235927996747148
% es.tEy (V/m) @ t=0.02
0
% es.tEz (V/m) @ t=0.02
-0.6226830917966537
% V (V) @ t=0.02
0.00961386550290828
% es.normE (V/m) @ t=0.04
0.9060205626203613
% es.EX (V/m) @ t=0.04
0.6293289436407361
% es.EY (V/m) @ t=0.04
0.09423455244300366
% es.EZ (V/m) @ t=0.04
-0.6284108677598583
% es.tEX (V/m) @ t=0.04
0.6293289436407377
% es.tEY (V/m) @ t=0.04
0
% es.tEZ (V/m) @ t=0.04
-0.6284108677598472
% es.Ex (V/m) @ t=0.04
0.6293289436407361
% es.Ey (V/m) @ t=0.04
0.09423455244300366
% es.Ez (V/m) @ t=0.04
-0.6284108677598583
% es.tEx (V/m) @ t=0.04
0.6293289436407377
% es.tEy (V/m) @ t=0.04
0
% es.tEz (V/m) @ t=0.04
-0.6284108677598472
% V (V) @ t=0.04
0.009702299020888223
% es.normE (V/m) @ t=0.06
0.9143446272066531
% es.EX (V/m) @ t=0.06
0.6351109037845344
% es.EY (V/m) @ t=0.06
0.09510033235704163
% es.EZ (V/m) @ t=0.06
-0.6341843930869997
% es.tEX (V/m) @ t=0.06
0.635110903784537
% es.tEY (V/m) @ t=0.06
0
% es.tEZ (V/m) @ t=0.06
-0.6341843930869886
% es.Ex (V/m) @ t=0.06
0.6351109037845344
% es.Ey (V/m) @ t=0.06
0.09510033235704163
% es.Ez (V/m) @ t=0.06
-0.6341843930869997
% es.tEx (V/m) @ t=0.06
0.635110903784537
% es.tEy (V/m) @ t=0.06
0
% es.tEz (V/m) @ t=0.06
-0.6341843930869886
% V (V) @ t=0.06
0.009791438909882776
% es.normE (V/m) @ t=0.08
0.9228153761771273
% es.EX (V/m) @ t=0.08
0.6409947520809218
% es.EY (V/m) @ t=0.08
0.09598136844360977
% es.EZ (V/m) @ t=0.08
-0.6400596579552031
% es.tEX (V/m) @ t=0.08
0.6409947520809194
% es.tEY (V/m) @ t=0.08
0
% es.tEZ (V/m) @ t=0.08
-0.640059657955192
% es.Ex (V/m) @ t=0.08
0.6409947520809218
% es.Ey (V/m) @ t=0.08
0.09598136844360977
% es.Ez (V/m) @ t=0.08
-0.6400596579552031
% es.tEx (V/m) @ t=0.08
0.6409947520809194
% es.tEy (V/m) @ t=0.08
0
% es.tEz (V/m) @ t=0.08
-0.640059657955192
% V (V) @ t=0.08
0.009882149626609577
% es.normE (V/m) @ t=0.1
0.9313472731086834
% es.EX (V/m) @ t=0.1
0.6469210742426987
% es.EY (V/m) @ t=0.1
0.09686876433355379
% es.EZ (V/m) @ t=0.1
-0.6459773347374871
% es.tEX (V/m) @ t=0.1
0.6469210742426985
% es.tEY (V/m) @ t=0.1
0
% es.tEZ (V/m) @ t=0.1
-0.6459773347374798
% es.Ex (V/m) @ t=0.1
0.6469210742426987
% es.Ey (V/m) @ t=0.1
0.09686876433355379
% es.Ez (V/m) @ t=0.1
-0.6459773347374871
% es.tEx (V/m) @ t=0.1
0.6469210742426985
% es.tEy (V/m) @ t=0.1
0
% es.tEz (V/m) @ t=0.1
-0.6459773347374798
% V (V) @ t=0.1
0.009973515170457675
% es.normE (V/m) @ t=0.12
0.9398791700402509
% es.EX (V/m) @ t=0.12
0.6528473964044792
% es.EY (V/m) @ t=0.12
0.09775616022350458
% es.EZ (V/m) @ t=0.12
-0.6518950115197828
% es.tEX (V/m) @ t=0.12
0.6528473964044785
% es.tEY (V/m) @ t=0.12
0
% es.tEZ (V/m) @ t=0.12
-0.6518950115197755
% es.Ex (V/m) @ t=0.12
0.6528473964044792
% es.Ey (V/m) @ t=0.12
0.09775616022350458
% es.Ez (V/m) @ t=0.12
-0.6518950115197828
% es.tEx (V/m) @ t=0.12
0.6528473964044785
% es.tEy (V/m) @ t=0.12
0
% es.tEz (V/m) @ t=0.12
-0.6518950115197755
% V (V) @ t=0.12
0.010064880714305773
% es.normE (V/m) @ t=0.14
0.9485959209079113
% es.EX (V/m) @ t=0.14
0.6589021195385978
% es.EY (V/m) @ t=0.14
0.09866278279460305
% es.EZ (V/m) @ t=0.14
-0.6579409019423026
% es.tEX (V/m) @ t=0.14
0.6589021195386047
% es.tEY (V/m) @ t=0.14
0
% es.tEZ (V/m) @ t=0.14
-0.6579409019422879
% es.Ex (V/m) @ t=0.14
0.6589021195385978
% es.Ey (V/m) @ t=0.14
0.09866278279460305
% es.Ez (V/m) @ t=0.14
-0.6579409019423026
% es.tEx (V/m) @ t=0.14
0.6589021195386047
% es.tEy (V/m) @ t=0.14
0
% es.tEz (V/m) @ t=0.14
-0.6579409019422879
% V (V) @ t=0.14
0.010158225790940221
% es.normE (V/m) @ t=0.16
0.9575667054875228
% es.EX (V/m) @ t=0.16
0.6651332964519061
% es.EY (V/m) @ t=0.16
0.0995958274440093
% es.EZ (V/m) @ t=0.16
-0.6641629887046874
% es.tEX (V/m) @ t=0.16
0.6651332964519114
% es.tEY (V/m) @ t=0.16
0
% es.tEZ (V/m) @ t=0.16
-0.6641629887046765
% es.Ex (V/m) @ t=0.16
0.6651332964519061
% es.Ey (V/m) @ t=0.16
0.0995958274440093
% es.Ez (V/m) @ t=0.16
-0.6641629887046874
% es.tEx (V/m) @ t=0.16
0.6651332964519114
% es.tEy (V/m) @ t=0.16
0
% es.tEz (V/m) @ t=0.16
-0.6641629887046765
% V (V) @ t=0.16
0.010254291221126243
% es.normE (V/m) @ t=0.18
0.9665374900671337
% es.EX (V/m) @ t=0.18
0.6713644733652004
% es.EY (V/m) @ t=0.18
0.10052887209343092
% es.EZ (V/m) @ t=0.18
-0.6703850754670815
% es.tEX (V/m) @ t=0.18
0.6713644733652031
% es.tEY (V/m) @ t=0.18
0
% es.tEZ (V/m) @ t=0.18
-0.6703850754670704
% es.Ex (V/m) @ t=0.18
0.6713644733652004
% es.Ey (V/m) @ t=0.18
0.10052887209343092
% es.Ez (V/m) @ t=0.18
-0.6703850754670815
% es.tEx (V/m) @ t=0.18
0.6713644733652031
% es.tEy (V/m) @ t=0.18
0
% es.tEz (V/m) @ t=0.18
-0.6703850754670704
% V (V) @ t=0.18
0.010350356651312264
% es.normE (V/m) @ t=0.2
0.9755082746467522
% es.EX (V/m) @ t=0.2
0.6775956502785065
% es.EY (V/m) @ t=0.2
0.10146191674285404
% es.EZ (V/m) @ t=0.2
-0.6766071622294769
% es.tEX (V/m) @ t=0.2
0.6775956502785059
% es.tEY (V/m) @ t=0.2
0
% es.tEZ (V/m) @ t=0.2
-0.676607162229466
% es.Ex (V/m) @ t=0.2
0.6775956502785065
% es.Ey (V/m) @ t=0.2
0.10146191674285404
% es.Ez (V/m) @ t=0.2
-0.6766071622294769
% es.tEx (V/m) @ t=0.2
0.6775956502785059
% es.tEy (V/m) @ t=0.2
0
% es.tEz (V/m) @ t=0.2
-0.676607162229466
% V (V) @ t=0.2
0.010446422081498286
% es.normE (V/m) @ t=0.22
0.9844790592263639
% es.EX (V/m) @ t=0.22
0.6838268271918029
% es.EY (V/m) @ t=0.22
0.10239496139225951
% es.EZ (V/m) @ t=0.22
-0.6828292489918681
% es.tEX (V/m) @ t=0.22
0.6838268271918087
% es.tEY (V/m) @ t=0.22
0
% es.tEZ (V/m) @ t=0.22
-0.6828292489918608
% es.Ex (V/m) @ t=0.22
0.6838268271918029
% es.Ey (V/m) @ t=0.22
0.10239496139225951
% es.Ez (V/m) @ t=0.22
-0.6828292489918681
% es.tEx (V/m) @ t=0.22
0.6838268271918087
% es.tEy (V/m) @ t=0.22
0
% es.tEz (V/m) @ t=0.22
-0.6828292489918608
% V (V) @ t=0.22
0.010542487511684311
% es.normE (V/m) @ t=0.24
0.9934498438059778
% es.EX (V/m) @ t=0.24
0.6900580041051041
% es.EY (V/m) @ t=0.24
0.10332800604167547
% es.EZ (V/m) @ t=0.24
-0.6890513357542631
% es.tEX (V/m) @ t=0.24
0.6900580041051083
% es.tEY (V/m) @ t=0.24
0
% es.tEZ (V/m) @ t=0.24
-0.6890513357542556
% es.Ex (V/m) @ t=0.24
0.6900580041051041
% es.Ey (V/m) @ t=0.24
0.10332800604167547
% es.Ez (V/m) @ t=0.24
-0.6890513357542631
% es.tEx (V/m) @ t=0.24
0.6900580041051083
% es.tEy (V/m) @ t=0.24
0
% es.tEz (V/m) @ t=0.24
-0.6890513357542556
% V (V) @ t=0.24
0.010638552941870332
% es.normE (V/m) @ t=0.26
1.0024206283855897
% es.EX (V/m) @ t=0.26
0.6962891810184051
% es.EY (V/m) @ t=0.26
0.10426105069110847
% es.EZ (V/m) @ t=0.26
-0.6952734225166508
% es.tEX (V/m) @ t=0.26
0.696289181018404
% es.tEY (V/m) @ t=0.26
0
% es.tEZ (V/m) @ t=0.26
-0.6952734225166433
% es.Ex (V/m) @ t=0.26
0.6962891810184051
% es.Ey (V/m) @ t=0.26
0.10426105069110847
% es.Ez (V/m) @ t=0.26
-0.6952734225166508
% es.tEx (V/m) @ t=0.26
0.696289181018404
% es.tEy (V/m) @ t=0.26
0
% es.tEz (V/m) @ t=0.26
-0.6952734225166433
% V (V) @ t=0.26
0.010734618372056358
% es.normE (V/m) @ t=0.28
1.012228701711516
% es.EX (V/m) @ t=0.28
0.7031019770230564
% es.EY (V/m) @ t=0.28
0.10528087073287279
% es.EZ (V/m) @ t=0.28
-0.7020762975272969
% es.tEX (V/m) @ t=0.28
0.7031019770230587
% es.tEY (V/m) @ t=0.28
0
% es.tEZ (V/m) @ t=0.28
-0.7020762975272934
% es.Ex (V/m) @ t=0.28
0.7031019770230564
% es.Ey (V/m) @ t=0.28
0.10528087073287279
% es.Ez (V/m) @ t=0.28
-0.7020762975272969
% es.tEx (V/m) @ t=0.28
0.7031019770230587
% es.tEy (V/m) @ t=0.28
0
% es.tEz (V/m) @ t=0.28
-0.7020762975272934
% V (V) @ t=0.28
0.010839676028899072
% es.normE (V/m) @ t=0.3
1.0221822223468697
% es.EX (V/m) @ t=0.3
0.7100158073867917
% es.EY (V/m) @ t=0.3
0.1063157647229897
% es.EZ (V/m) @ t=0.3
-0.7089800625694349
% es.tEX (V/m) @ t=0.3
0.7100158073867915
% es.tEY (V/m) @ t=0.3
0
% es.tEZ (V/m) @ t=0.3
-0.7089800625694167
% es.Ex (V/m) @ t=0.3
0.7100158073867917
% es.Ey (V/m) @ t=0.3
0.1063157647229897
% es.Ez (V/m) @ t=0.3
-0.7089800625694349
% es.tEx (V/m) @ t=0.3
0.7100158073867915
% es.tEy (V/m) @ t=0.3
0
% es.tEz (V/m) @ t=0.3
-0.7089800625694167
% V (V) @ t=0.3
0.010946295745637154
% es.normE (V/m) @ t=0.32
1.0321357429823594
% es.EX (V/m) @ t=0.32
0.7169296377505165
% es.EY (V/m) @ t=0.32
0.10735065871310023
% es.EZ (V/m) @ t=0.32
-0.7158838276115524
% es.tEX (V/m) @ t=0.32
0.716929637750523
% es.tEY (V/m) @ t=0.32
0
% es.tEZ (V/m) @ t=0.32
-0.7158838276115489
% es.Ex (V/m) @ t=0.32
0.7169296377505165
% es.Ey (V/m) @ t=0.32
0.10735065871310023
% es.Ez (V/m) @ t=0.32
-0.7158838276115524
% es.tEx (V/m) @ t=0.32
0.716929637750523
% es.tEy (V/m) @ t=0.32
0
% es.tEz (V/m) @ t=0.32
-0.7158838276115489
% V (V) @ t=0.32
0.011052915462375242
% es.normE (V/m) @ t=0.34
1.0420892636180055
% es.EX (V/m) @ t=0.34
0.7238434681142527
% es.EY (V/m) @ t=0.34
0.10838555270324224
% es.EZ (V/m) @ t=0.34
-0.7227875926536655
% es.tEX (V/m) @ t=0.34
0.7238434681142549
% es.tEY (V/m) @ t=0.34
0
% es.tEZ (V/m) @ t=0.34
-0.7227875926536509
% es.Ex (V/m) @ t=0.34
0.7238434681142527
% es.Ey (V/m) @ t=0.34
0.10838555270324224
% es.Ez (V/m) @ t=0.34
-0.7227875926536655
% es.tEx (V/m) @ t=0.34
0.7238434681142549
% es.tEy (V/m) @ t=0.34
0
% es.tEz (V/m) @ t=0.34
-0.7227875926536509
% V (V) @ t=0.34
0.011159535179113325
% es.normE (V/m) @ t=0.36
1.052042784253793
% es.EX (V/m) @ t=0.36
0.730757298477984
% es.EY (V/m) @ t=0.36
0.10942044669336293
% es.EZ (V/m) @ t=0.36
-0.7296913576957818
% es.tEX (V/m) @ t=0.36
0.7307572984779847
% es.tEY (V/m) @ t=0.36
0
% es.tEZ (V/m) @ t=0.36
-0.7296913576957671
% es.Ex (V/m) @ t=0.36
0.730757298477984
% es.Ey (V/m) @ t=0.36
0.10942044669336293
% es.Ez (V/m) @ t=0.36
-0.7296913576957818
% es.tEx (V/m) @ t=0.36
0.7307572984779847
% es.tEy (V/m) @ t=0.36
0
% es.tEz (V/m) @ t=0.36
-0.7296913576957671
% V (V) @ t=0.36
0.01126615489585141
% es.normE (V/m) @ t=0.38
1.0619963048897294
% es.EX (V/m) @ t=0.38
0.7376711288417146
% es.EY (V/m) @ t=0.38
0.11045534068349921
% es.EZ (V/m) @ t=0.38
-0.736595122737913
% es.tEX (V/m) @ t=0.38
0.737671128841717
% es.tEY (V/m) @ t=0.38
0
% es.tEZ (V/m) @ t=0.38
-0.7365951227379055
% es.Ex (V/m) @ t=0.38
0.7376711288417146
% es.Ey (V/m) @ t=0.38
0.11045534068349921
% es.Ez (V/m) @ t=0.38
-0.736595122737913
% es.tEx (V/m) @ t=0.38
0.737671128841717
% es.tEy (V/m) @ t=0.38
0
% es.tEz (V/m) @ t=0.38
-0.7365951227379055
% V (V) @ t=0.38
0.011372774612589495
% es.normE (V/m) @ t=0.4
1.0719498255257882
% es.EX (V/m) @ t=0.4
0.7445849592054419
% es.EY (V/m) @ t=0.4
0.1114902346736188
% es.EZ (V/m) @ t=0.4
-0.7434988877800266
% es.tEX (V/m) @ t=0.4
0.7445849592054459
% es.tEY (V/m) @ t=0.4
0
% es.tEZ (V/m) @ t=0.4
-0.7434988877800084
% es.Ex (V/m) @ t=0.4
0.7445849592054419
% es.Ey (V/m) @ t=0.4
0.1114902346736188
% es.Ez (V/m) @ t=0.4
-0.7434988877800266
% es.tEx (V/m) @ t=0.4
0.7445849592054459
% es.tEy (V/m) @ t=0.4
0
% es.tEz (V/m) @ t=0.4
-0.7434988877800084
% V (V) @ t=0.4
0.011479394329327578
% es.normE (V/m) @ t=0.42
1.0819033461619871
% es.EX (V/m) @ t=0.42
0.7514987895691705
% es.EY (V/m) @ t=0.42
0.11252512866374392
% es.EZ (V/m) @ t=0.42
-0.7504026528221428
% es.tEX (V/m) @ t=0.42
0.7514987895691712
% es.tEY (V/m) @ t=0.42
0
% es.tEZ (V/m) @ t=0.42
-0.7504026528221388
% es.Ex (V/m) @ t=0.42
0.7514987895691705
% es.Ey (V/m) @ t=0.42
0.11252512866374392
% es.Ez (V/m) @ t=0.42
-0.7504026528221428
% es.tEx (V/m) @ t=0.42
0.7514987895691712
% es.tEy (V/m) @ t=0.42
0
% es.tEz (V/m) @ t=0.42
-0.7504026528221388
% V (V) @ t=0.42
0.011586014046065666
% es.normE (V/m) @ t=0.44
1.0918568667983297
% es.EX (V/m) @ t=0.44
0.7584126199329069
% es.EY (V/m) @ t=0.44
0.11356002265387127
% es.EZ (V/m) @ t=0.44
-0.7573064178642706
% es.tEX (V/m) @ t=0.44
0.7584126199329111
% es.tEY (V/m) @ t=0.44
0
% es.tEZ (V/m) @ t=0.44
-0.7573064178642559
% es.Ex (V/m) @ t=0.44
0.7584126199329069
% es.Ey (V/m) @ t=0.44
0.11356002265387127
% es.Ez (V/m) @ t=0.44
-0.7573064178642706
% es.tEx (V/m) @ t=0.44
0.7584126199329111
% es.tEy (V/m) @ t=0.44
0
% es.tEz (V/m) @ t=0.44
-0.7573064178642559
% V (V) @ t=0.44
0.011692633762803752
% es.normE (V/m) @ t=0.46
1.101810387434798
% es.EX (V/m) @ t=0.46
0.7653264502966475
% es.EY (V/m) @ t=0.46
0.11459491664399268
% es.EZ (V/m) @ t=0.46
-0.7642101829064014
% es.tEX (V/m) @ t=0.46
0.7653264502966461
% es.tEY (V/m) @ t=0.46
0
% es.tEZ (V/m) @ t=0.46
-0.7642101829063943
% es.Ex (V/m) @ t=0.46
0.7653264502966475
% es.Ey (V/m) @ t=0.46
0.11459491664399268
% es.Ez (V/m) @ t=0.46
-0.7642101829064014
% es.tEx (V/m) @ t=0.46
0.7653264502966461
% es.tEy (V/m) @ t=0.46
0
% es.tEz (V/m) @ t=0.46
-0.7642101829063943
% V (V) @ t=0.46
0.011799253479541834
% es.normE (V/m) @ t=0.48
1.1117639080713757
% es.EX (V/m) @ t=0.48
0.7722402806603788
% es.EY (V/m) @ t=0.48
0.11562981063412292
% es.EZ (V/m) @ t=0.48
-0.7711139479485181
% es.tEX (V/m) @ t=0.48
0.7722402806603754
% es.tEY (V/m) @ t=0.48
0
% es.tEZ (V/m) @ t=0.48
-0.7711139479485034
% es.Ex (V/m) @ t=0.48
0.7722402806603788
% es.Ey (V/m) @ t=0.48
0.11562981063412292
% es.Ez (V/m) @ t=0.48
-0.7711139479485181
% es.tEx (V/m) @ t=0.48
0.7722402806603754
% es.tEy (V/m) @ t=0.48
0
% es.tEz (V/m) @ t=0.48
-0.7711139479485034
% V (V) @ t=0.48
0.011905873196279917
% es.normE (V/m) @ t=0.5
1.1217174287080707
% es.EX (V/m) @ t=0.5
0.7791541110241045
% es.EY (V/m) @ t=0.5
0.11666470462425693
% es.EZ (V/m) @ t=0.5
-0.7780177129906307
% es.tEX (V/m) @ t=0.5
0.7791541110241051
% es.tEY (V/m) @ t=0.5
0
% es.tEZ (V/m) @ t=0.5
-0.7780177129906125
% es.Ex (V/m) @ t=0.5
0.7791541110241045
% es.Ey (V/m) @ t=0.5
0.11666470462425693
% es.Ez (V/m) @ t=0.5
-0.7780177129906307
% es.tEx (V/m) @ t=0.5
0.7791541110241051
% es.tEy (V/m) @ t=0.5
0
% es.tEz (V/m) @ t=0.5
-0.7780177129906125
% V (V) @ t=0.5
0.012012492913018005
% es.normE (V/m) @ t=0.52
1.1316709493448869
% es.EX (V/m) @ t=0.52
0.7860679413878375
% es.EY (V/m) @ t=0.52
0.11769959861438078
% es.EZ (V/m) @ t=0.52
-0.7849214780327523
% es.tEX (V/m) @ t=0.52
0.7860679413878362
% es.tEY (V/m) @ t=0.52
0
% es.tEZ (V/m) @ t=0.52
-0.7849214780327447
% es.Ex (V/m) @ t=0.52
0.7860679413878375
% es.Ey (V/m) @ t=0.52
0.11769959861438078
% es.Ez (V/m) @ t=0.52
-0.7849214780327523
% es.tEx (V/m) @ t=0.52
0.7860679413878362
% es.tEy (V/m) @ t=0.52
0
% es.tEz (V/m) @ t=0.52
-0.7849214780327447
% V (V) @ t=0.52
0.012119112629756089
% es.normE (V/m) @ t=0.54
1.142416026805106
% es.EX (V/m) @ t=0.54
0.793531572008582
% es.EY (V/m) @ t=0.54
0.11881703101526142
% es.EZ (V/m) @ t=0.54
-0.7923742291539835
% es.tEX (V/m) @ t=0.54
0.7935315720085834
% es.tEY (V/m) @ t=0.54
0
% es.tEZ (V/m) @ t=0.54
-0.7923742291539764
% es.Ex (V/m) @ t=0.54
0.793531572008582
% es.Ey (V/m) @ t=0.54
0.11881703101526142
% es.Ez (V/m) @ t=0.54
-0.7923742291539835
% es.tEx (V/m) @ t=0.54
0.7935315720085834
% es.tEy (V/m) @ t=0.54
0
% es.tEz (V/m) @ t=0.54
-0.7923742291539764
% V (V) @ t=0.54
0.012234191345951547
% es.normE (V/m) @ t=0.56
1.153478763879055
% es.EX (V/m) @ t=0.56
0.8012158429322482
% es.EY (V/m) @ t=0.56
0.11996758690001763
% es.EZ (V/m) @ t=0.56
-0.8000472938404326
% es.tEX (V/m) @ t=0.56
0.8012158429322467
% es.tEY (V/m) @ t=0.56
0
% es.tEZ (V/m) @ t=0.56
-0.800047293840418
% es.Ex (V/m) @ t=0.56
0.8012158429322482
% es.Ey (V/m) @ t=0.56
0.11996758690001763
% es.Ez (V/m) @ t=0.56
-0.8000472938404326
% es.tEx (V/m) @ t=0.56
0.8012158429322467
% es.tEy (V/m) @ t=0.56
0
% es.tEz (V/m) @ t=0.56
-0.800047293840418
% V (V) @ t=0.56
0.012352664742631116
% es.normE (V/m) @ t=0.58
1.1645415009530256
% es.EX (V/m) @ t=0.58
0.8089001138559164
% es.EY (V/m) @ t=0.58
0.12111814278477334
% es.EZ (V/m) @ t=0.58
-0.807720358526923
% es.tEX (V/m) @ t=0.58
0.8089001138559189
% es.tEY (V/m) @ t=0.58
0
% es.tEZ (V/m) @ t=0.58
-0.8077203585269048
% es.Ex (V/m) @ t=0.58
0.8089001138559164
% es.Ey (V/m) @ t=0.58
0.12111814278477334
% es.Ez (V/m) @ t=0.58
-0.807720358526923
% es.tEx (V/m) @ t=0.58
0.8089001138559189
% es.tEy (V/m) @ t=0.58
0
% es.tEz (V/m) @ t=0.58
-0.8077203585269048
% V (V) @ t=0.58
0.01247113813931068
% es.normE (V/m) @ t=0.6
1.1756042380269922
% es.EX (V/m) @ t=0.6
0.8165843847795868
% es.EY (V/m) @ t=0.6
0.12226869866953932
% es.EZ (V/m) @ t=0.6
-0.8153934232133899
% es.tEX (V/m) @ t=0.6
0.8165843847795902
% es.tEY (V/m) @ t=0.6
0
% es.tEZ (V/m) @ t=0.6
-0.8153934232133757
% es.Ex (V/m) @ t=0.6
0.8165843847795868
% es.Ey (V/m) @ t=0.6
0.12226869866953932
% es.Ez (V/m) @ t=0.6
-0.8153934232133899
% es.tEx (V/m) @ t=0.6
0.8165843847795902
% es.tEy (V/m) @ t=0.6
0
% es.tEz (V/m) @ t=0.6
-0.8153934232133757
% V (V) @ t=0.6
0.01258961153599025
% es.normE (V/m) @ t=0.62
1.1866669751009518
% es.EX (V/m) @ t=0.62
0.8242686557032564
% es.EY (V/m) @ t=0.62
0.12341925455432295
% es.EZ (V/m) @ t=0.62
-0.8230664878998541
% es.tEX (V/m) @ t=0.62
0.8242686557032632
% es.tEY (V/m) @ t=0.62
0
% es.tEZ (V/m) @ t=0.62
-0.8230664878998395
% es.Ex (V/m) @ t=0.62
0.8242686557032564
% es.Ey (V/m) @ t=0.62
0.12341925455432295
% es.Ez (V/m) @ t=0.62
-0.8230664878998541
% es.tEx (V/m) @ t=0.62
0.8242686557032632
% es.tEy (V/m) @ t=0.62
0
% es.tEz (V/m) @ t=0.62
-0.8230664878998395
% V (V) @ t=0.62
0.012708084932669814
% es.normE (V/m) @ t=0.64
1.197729712174916
% es.EX (V/m) @ t=0.64
0.8319529266269232
% es.EY (V/m) @ t=0.64
0.124569810439071
% es.EZ (V/m) @ t=0.64
-0.8307395525863259
% es.tEX (V/m) @ t=0.64
0.8319529266269257
% es.tEY (V/m) @ t=0.64
0
% es.tEZ (V/m) @ t=0.64
-0.8307395525863113
% es.Ex (V/m) @ t=0.64
0.8319529266269232
% es.Ey (V/m) @ t=0.64
0.124569810439071
% es.Ez (V/m) @ t=0.64
-0.8307395525863259
% es.tEx (V/m) @ t=0.64
0.8319529266269257
% es.tEy (V/m) @ t=0.64
0
% es.tEz (V/m) @ t=0.64
-0.8307395525863113
% V (V) @ t=0.64
0.012826558329349383
% es.normE (V/m) @ t=0.66
1.208792449248879
% es.EX (V/m) @ t=0.66
0.8396371975505925
% es.EY (V/m) @ t=0.66
0.12572036632383787
% es.EZ (V/m) @ t=0.66
-0.8384126172727968
% es.tEX (V/m) @ t=0.66
0.839637197550601
% es.tEY (V/m) @ t=0.66
0
% es.tEZ (V/m) @ t=0.66
-0.8384126172727822
% es.Ex (V/m) @ t=0.66
0.8396371975505925
% es.Ey (V/m) @ t=0.66
0.12572036632383787
% es.Ez (V/m) @ t=0.66
-0.8384126172727968
% es.tEx (V/m) @ t=0.66
0.839637197550601
% es.tEy (V/m) @ t=0.66
0
% es.tEz (V/m) @ t=0.66
-0.8384126172727822
% V (V) @ t=0.66
0.012945031726028948
% es.normE (V/m) @ t=0.68
1.2198551863228428
% es.EX (V/m) @ t=0.68
0.8473214684742603
% es.EY (V/m) @ t=0.68
0.12687092220860818
% es.EZ (V/m) @ t=0.68
-0.8460856819592646
% es.tEX (V/m) @ t=0.68
0.8473214684742634
% es.tEY (V/m) @ t=0.68
0
% es.tEZ (V/m) @ t=0.68
-0.8460856819592539
% es.Ex (V/m) @ t=0.68
0.8473214684742603
% es.Ey (V/m) @ t=0.68
0.12687092220860818
% es.Ez (V/m) @ t=0.68
-0.8460856819592646
% es.tEx (V/m) @ t=0.68
0.8473214684742634
% es.tEy (V/m) @ t=0.68
0
% es.tEz (V/m) @ t=0.68
-0.8460856819592539
% V (V) @ t=0.68
0.013063505122708513
% es.normE (V/m) @ t=0.7
1.2309179233968028
% es.EX (V/m) @ t=0.7
0.8550057393979273
% es.EY (V/m) @ t=0.7
0.12802147809336495
% es.EZ (V/m) @ t=0.7
-0.8537587466457288
% es.tEX (V/m) @ t=0.7
0.8550057393979285
% es.tEY (V/m) @ t=0.7
0
% es.tEZ (V/m) @ t=0.7
-0.8537587466457248
% es.Ex (V/m) @ t=0.7
0.8550057393979273
% es.Ey (V/m) @ t=0.7
0.12802147809336495
% es.Ez (V/m) @ t=0.7
-0.8537587466457288
% es.tEx (V/m) @ t=0.7
0.8550057393979285
% es.tEy (V/m) @ t=0.7
0
% es.tEz (V/m) @ t=0.7
-0.8537587466457248
% V (V) @ t=0.7
0.01318197851938808
% es.normE (V/m) @ t=0.72
1.2419806604707677
% es.EX (V/m) @ t=0.72
0.8626900103215951
% es.EY (V/m) @ t=0.72
0.12917203397813182
% es.EZ (V/m) @ t=0.72
-0.8614318113321997
% es.tEX (V/m) @ t=0.72
0.8626900103215949
% es.tEY (V/m) @ t=0.72
0
% es.tEZ (V/m) @ t=0.72
-0.8614318113321815
% es.Ex (V/m) @ t=0.72
0.8626900103215951
% es.Ey (V/m) @ t=0.72
0.12917203397813182
% es.Ez (V/m) @ t=0.72
-0.8614318113321997
% es.tEx (V/m) @ t=0.72
0.8626900103215949
% es.tEy (V/m) @ t=0.72
0
% es.tEz (V/m) @ t=0.72
-0.8614318113321815
% V (V) @ t=0.72
0.013300451916067645
% es.normE (V/m) @ t=0.74
1.253043397544737
% es.EX (V/m) @ t=0.74
0.8703742812452575
% es.EY (V/m) @ t=0.74
0.1303225898628897
% es.EZ (V/m) @ t=0.74
-0.8691048760186786
% es.tEX (V/m) @ t=0.74
0.8703742812452591
% es.tEY (V/m) @ t=0.74
0
% es.tEZ (V/m) @ t=0.74
-0.8691048760186675
% es.Ex (V/m) @ t=0.74
0.8703742812452575
% es.Ey (V/m) @ t=0.74
0.1303225898628897
% es.Ez (V/m) @ t=0.74
-0.8691048760186786
% es.tEx (V/m) @ t=0.74
0.8703742812452591
% es.tEy (V/m) @ t=0.74
0
% es.tEz (V/m) @ t=0.74
-0.8691048760186675
% V (V) @ t=0.74
0.013418925312747213
% es.normE (V/m) @ t=0.76
1.2641061346187035
% es.EX (V/m) @ t=0.76
0.8780585521689324
% es.EY (V/m) @ t=0.76
0.13147314574765373
% es.EZ (V/m) @ t=0.76
-0.8767779407051424
% es.tEX (V/m) @ t=0.76
0.8780585521689317
% es.tEY (V/m) @ t=0.76
0
% es.tEZ (V/m) @ t=0.76
-0.8767779407051242
% es.Ex (V/m) @ t=0.76
0.8780585521689324
% es.Ey (V/m) @ t=0.76
0.13147314574765373
% es.Ez (V/m) @ t=0.76
-0.8767779407051424
% es.tEx (V/m) @ t=0.76
0.8780585521689317
% es.tEy (V/m) @ t=0.76
0
% es.tEz (V/m) @ t=0.76
-0.8767779407051242
% V (V) @ t=0.76
0.013537398709426779
% es.normE (V/m) @ t=0.78
1.2751688716926681
% es.EX (V/m) @ t=0.78
0.8857428230925997
% es.EY (V/m) @ t=0.78
0.13262370163239912
% es.EZ (V/m) @ t=0.78
-0.8844510053916141
% es.tEX (V/m) @ t=0.78
0.8857428230926048
% es.tEY (V/m) @ t=0.78
0
% es.tEZ (V/m) @ t=0.78
-0.884451005391603
% es.Ex (V/m) @ t=0.78
0.8857428230925997
% es.Ey (V/m) @ t=0.78
0.13262370163239912
% es.Ez (V/m) @ t=0.78
-0.8844510053916141
% es.tEx (V/m) @ t=0.78
0.8857428230926048
% es.tEy (V/m) @ t=0.78
0
% es.tEz (V/m) @ t=0.78
-0.884451005391603
% V (V) @ t=0.78
0.013655872106106344
% es.normE (V/m) @ t=0.8
1.2869522640594135
% es.EX (V/m) @ t=0.8
0.8939277143011601
% es.EY (V/m) @ t=0.8
0.13384874936998303
% es.EZ (V/m) @ t=0.8
-0.8926239862102672
% es.tEX (V/m) @ t=0.8
0.8939277143011592
% es.tEY (V/m) @ t=0.8
0
% es.tEZ (V/m) @ t=0.8
-0.8926239862102561
% es.Ex (V/m) @ t=0.8
0.8939277143011601
% es.Ey (V/m) @ t=0.8
0.13384874936998303
% es.Ez (V/m) @ t=0.8
-0.8926239862102672
% es.tEx (V/m) @ t=0.8
0.8939277143011592
% es.tEy (V/m) @ t=0.8
0
% es.tEz (V/m) @ t=0.8
-0.8926239862102561
% V (V) @ t=0.8
0.013782101483413906
% es.normE (V/m) @ t=0.82
1.2992677952039267
% es.EX (V/m) @ t=0.82
0.9024822683276394
% es.EY (V/m) @ t=0.82
0.13512880260580218
% es.EZ (V/m) @ t=0.82
-0.9011661098937434
% es.tEX (V/m) @ t=0.82
0.9024822683276512
% es.tEY (V/m) @ t=0.82
0
% es.tEZ (V/m) @ t=0.82
-0.9011661098937251
% es.Ex (V/m) @ t=0.82
0.9024822683276394
% es.Ey (V/m) @ t=0.82
0.13512880260580218
% es.Ez (V/m) @ t=0.82
-0.9011661098937434
% es.tEx (V/m) @ t=0.82
0.9024822683276512
% es.tEy (V/m) @ t=0.82
0
% es.tEz (V/m) @ t=0.82
-0.9011661098937251
% V (V) @ t=0.82
0.013914057951175608
% es.normE (V/m) @ t=0.84
1.3115833263490746
% es.EX (V/m) @ t=0.84
0.911036822354139
% es.EY (V/m) @ t=0.84
0.13640885584164264
% es.EZ (V/m) @ t=0.84
-0.9097082335772204
% es.tEX (V/m) @ t=0.84
0.9110368223541436
% es.tEY (V/m) @ t=0.84
0
% es.tEZ (V/m) @ t=0.84
-0.9097082335772022
% es.Ex (V/m) @ t=0.84
0.911036822354139
% es.Ey (V/m) @ t=0.84
0.13640885584164264
% es.Ez (V/m) @ t=0.84
-0.9097082335772204
% es.tEx (V/m) @ t=0.84
0.9110368223541436
% es.tEy (V/m) @ t=0.84
0
% es.tEz (V/m) @ t=0.84
-0.9097082335772022
% V (V) @ t=0.84
0.01404601441893731
% es.normE (V/m) @ t=0.86
1.3238988574948054
% es.EX (V/m) @ t=0.86
0.9195913763806278
% es.EY (V/m) @ t=0.86
0.1376889090774724
% es.EZ (V/m) @ t=0.86
-0.918250357260685
% es.tEX (V/m) @ t=0.86
0.9195913763806396
% es.tEY (V/m) @ t=0.86
0
% es.tEZ (V/m) @ t=0.86
-0.9182503572606704
% es.Ex (V/m) @ t=0.86
0.9195913763806278
% es.Ey (V/m) @ t=0.86
0.1376889090774724
% es.Ez (V/m) @ t=0.86
-0.918250357260685
% es.tEx (V/m) @ t=0.86
0.9195913763806396
% es.tEy (V/m) @ t=0.86
0
% es.tEz (V/m) @ t=0.86
-0.9182503572606704
% V (V) @ t=0.86
0.014177970886699007
% es.normE (V/m) @ t=0.88
1.336214388641135
% es.EX (V/m) @ t=0.88
0.9281459304071216
% es.EY (V/m) @ t=0.88
0.13896896231331035
% es.EZ (V/m) @ t=0.88
-0.9267924809441577
% es.tEX (V/m) @ t=0.88
0.9281459304071245
% es.tEY (V/m) @ t=0.88
0
% es.tEZ (V/m) @ t=0.88
-0.9267924809441395
% es.Ex (V/m) @ t=0.88
0.9281459304071216
% es.Ey (V/m) @ t=0.88
0.13896896231331035
% es.Ez (V/m) @ t=0.88
-0.9267924809441577
% es.tEx (V/m) @ t=0.88
0.9281459304071245
% es.tEy (V/m) @ t=0.88
0
% es.tEz (V/m) @ t=0.88
-0.9267924809441395
% V (V) @ t=0.88
0.01430992735446071
% es.normE (V/m) @ t=0.9
1.3485299197880325
% es.EX (V/m) @ t=0.9
0.9367004844336175
% es.EY (V/m) @ t=0.9
0.14024901554915636
% es.EZ (V/m) @ t=0.9
-0.9353346046276338
% es.tEX (V/m) @ t=0.9
0.93670048443362
% es.tEY (V/m) @ t=0.9
0
% es.tEZ (V/m) @ t=0.9
-0.9353346046276156
% es.Ex (V/m) @ t=0.9
0.9367004844336175
% es.Ey (V/m) @ t=0.9
0.14024901554915636
% es.Ez (V/m) @ t=0.9
-0.9353346046276338
% es.tEx (V/m) @ t=0.9
0.93670048443362
% es.tEy (V/m) @ t=0.9
0
% es.tEz (V/m) @ t=0.9
-0.9353346046276156
% V (V) @ t=0.9
0.014441883822222409
% es.normE (V/m) @ t=0.92
1.3608454509354866
% es.EX (V/m) @ t=0.92
0.9452550384601108
% es.EY (V/m) @ t=0.92
0.14152906878499683
% es.EZ (V/m) @ t=0.92
-0.94387672831111
% es.tEX (V/m) @ t=0.92
0.9452550384601146
% es.tEY (V/m) @ t=0.92
0
% es.tEZ (V/m) @ t=0.92
-0.943876728311106
% es.Ex (V/m) @ t=0.92
0.9452550384601108
% es.Ey (V/m) @ t=0.92
0.14152906878499683
% es.Ez (V/m) @ t=0.92
-0.94387672831111
% es.tEx (V/m) @ t=0.92
0.9452550384601146
% es.tEy (V/m) @ t=0.92
0
% es.tEz (V/m) @ t=0.92
-0.943876728311106
% V (V) @ t=0.92
0.01457384028998411
% es.normE (V/m) @ t=0.94
1.3731609820834731
% es.EX (V/m) @ t=0.94
0.9538095924866046
% es.EY (V/m) @ t=0.94
0.1428091220208268
% es.EZ (V/m) @ t=0.94
-0.9524188519945862
% es.tEX (V/m) @ t=0.94
0.9538095924866066
% es.tEY (V/m) @ t=0.94
0
% es.tEZ (V/m) @ t=0.94
-0.952418851994568
% es.Ex (V/m) @ t=0.94
0.9538095924866046
% es.Ey (V/m) @ t=0.94
0.1428091220208268
% es.Ez (V/m) @ t=0.94
-0.9524188519945862
% es.tEx (V/m) @ t=0.94
0.9538095924866066
% es.tEy (V/m) @ t=0.94
0
% es.tEz (V/m) @ t=0.94
-0.952418851994568
% V (V) @ t=0.94
0.014705796757745812
% es.normE (V/m) @ t=0.96
1.3854765132319713
% es.EX (V/m) @ t=0.96
0.9623641465130846
% es.EY (V/m) @ t=0.96
0.14408917525664344
% es.EZ (V/m) @ t=0.96
-0.9609609756780553
% es.tEX (V/m) @ t=0.96
0.9623641465130883
% es.tEY (V/m) @ t=0.96
0
% es.tEZ (V/m) @ t=0.96
-0.9609609756780371
% es.Ex (V/m) @ t=0.96
0.9623641465130846
% es.Ey (V/m) @ t=0.96
0.14408917525664344
% es.Ez (V/m) @ t=0.96
-0.9609609756780553
% es.tEx (V/m) @ t=0.96
0.9623641465130883
% es.tEy (V/m) @ t=0.96
0
% es.tEz (V/m) @ t=0.96
-0.9609609756780371
% V (V) @ t=0.96
0.014837753225507514
% es.normE (V/m) @ t=0.98
1.3977920443809846
% es.EX (V/m) @ t=0.98
0.9709187005395761
% es.EY (V/m) @ t=0.98
0.1453692284924893
% es.EZ (V/m) @ t=0.98
-0.9695030993615172
% es.tEX (V/m) @ t=0.98
0.9709187005395798
% es.tEY (V/m) @ t=0.98
0
% es.tEZ (V/m) @ t=0.98
-0.969503099361499
% es.Ex (V/m) @ t=0.98
0.9709187005395761
% es.Ey (V/m) @ t=0.98
0.1453692284924893
% es.Ez (V/m) @ t=0.98
-0.9695030993615172
% es.tEx (V/m) @ t=0.98
0.9709187005395798
% es.tEy (V/m) @ t=0.98
0
% es.tEz (V/m) @ t=0.98
-0.969503099361499
% V (V) @ t=0.98
0.014969709693269216
% es.normE (V/m) @ t=1
1.4101075755305148
% es.EX (V/m) @ t=1
0.979473254566074
% es.EY (V/m) @ t=1
0.14664928172832686
% es.EZ (V/m) @ t=1
-0.9780452230450085
% es.tEX (V/m) @ t=1
0.9794732545660785
% es.tEY (V/m) @ t=1
0
% es.tEZ (V/m) @ t=1
-0.9780452230449903
% es.Ex (V/m) @ t=1
0.979473254566074
% es.Ey (V/m) @ t=1
0.14664928172832686
% es.Ez (V/m) @ t=1
-0.9780452230450085
% es.tEx (V/m) @ t=1
0.9794732545660785
% es.tEy (V/m) @ t=1
0
% es.tEz (V/m) @ t=1
-0.9780452230449903
% V (V) @ t=1
0.015101666161030917
% es.normE (V/m) @ t=1.02
1.4224231066805046
% es.EX (V/m) @ t=1.02
0.9880278085925684
% es.EY (V/m) @ t=1.02
0.14792933496416322
% es.EZ (V/m) @ t=1.02
-0.9865873467284625
% es.tEX (V/m) @ t=1.02
0.9880278085925722
% es.tEY (V/m) @ t=1.02
0
% es.tEZ (V/m) @ t=1.02
-0.9865873467284443
% es.Ex (V/m) @ t=1.02
0.9880278085925684
% es.Ey (V/m) @ t=1.02
0.14792933496416322
% es.Ez (V/m) @ t=1.02
-0.9865873467284625
% es.tEx (V/m) @ t=1.02
0.9880278085925722
% es.tEy (V/m) @ t=1.02
0
% es.tEz (V/m) @ t=1.02
-0.9865873467284443
% V (V) @ t=1.02
0.015233622628792617
% es.normE (V/m) @ t=1.04
1.4347386378309832
% es.EX (V/m) @ t=1.04
0.9965823626190609
% es.EY (V/m) @ t=1.04
0.14920938819999835
% es.EZ (V/m) @ t=1.04
-0.9951294704119458