% Model:              1 neuron.mph
% Version:            COMSOL 6.0.0.405
% Date:               Mar 16 2023, 18:02
% Dimension:          0
% Nodes:              14017
% Expressions:        14017
% Description:        Electric field norm, Electric field, X component, Electric field, Y component, Electric field, Z component, Tangential electric field, X component, Tangential electric field, Y component, Tangential electric field, Z component, Electric field, x component, Electric field, y component, Electric field, z component, Tangential electric field, x component, Tangential electric field, y component, Tangential electric field, z component, Electric potential
% Length unit:        mm
% x
2
% y
12.2
% z
1
% es.normE (V/m) @ t=0
1.1586457644857182
% es.EX (V/m) @ t=0
-0.7482381613414708
% es.EY (V/m) @ t=0
0.1662406170934071
% es.EZ (V/m) @ t=0
0.8533358688608832
% es.tEX (V/m) @ t=0
-0.7482381613414681
% es.tEY (V/m) @ t=0
0
% es.tEZ (V/m) @ t=0
0.8533358688608876
% es.Ex (V/m) @ t=0
-0.7482381613414708
% es.Ey (V/m) @ t=0
0.1662406170934071
% es.Ez (V/m) @ t=0
0.8533358688608832
% es.tEx (V/m) @ t=0
-0.7482381613414681
% es.tEy (V/m) @ t=0
0
% es.tEz (V/m) @ t=0
0.8533358688608876
% V (V) @ t=0
0.011213427717599488
% es.normE (V/m) @ t=0.02
1.0007430135774396
% es.EX (V/m) @ t=0.02
-0.6462666462916167
% es.EY (V/m) @ t=0.02
0.14358498629015348
% es.EZ (V/m) @ t=0.02
0.7370414108772776
% es.tEX (V/m) @ t=0.02
-0.6462666462916145
% es.tEY (V/m) @ t=0.02
0
% es.tEZ (V/m) @ t=0.02
0.7370414108772847
% es.Ex (V/m) @ t=0.02
-0.6462666462916167
% es.Ey (V/m) @ t=0.02
0.14358498629015348
% es.Ez (V/m) @ t=0.02
0.7370414108772776
% es.tEx (V/m) @ t=0.02
-0.6462666462916145
% es.tEy (V/m) @ t=0.02
0
% es.tEz (V/m) @ t=0.02
0.7370414108772847
% V (V) @ t=0.02
0.009685237528673143
% es.normE (V/m) @ t=0.04
1.0099475955314237
% es.EX (V/m) @ t=0.04
-0.6522108439806724
% es.EY (V/m) @ t=0.04
0.14490564484335489
% es.EZ (V/m) @ t=0.04
0.7438205319503473
% es.tEX (V/m) @ t=0.04
-0.6522108439806702
% es.tEY (V/m) @ t=0.04
0
% es.tEZ (V/m) @ t=0.04
0.7438205319503695
% es.Ex (V/m) @ t=0.04
-0.6522108439806724
% es.Ey (V/m) @ t=0.04
0.14490564484335489
% es.Ez (V/m) @ t=0.04
0.7438205319503473
% es.tEx (V/m) @ t=0.04
-0.6522108439806702
% es.tEy (V/m) @ t=0.04
0
% es.tEz (V/m) @ t=0.04
0.7438205319503695
% V (V) @ t=0.04
0.00977431989907933
% es.normE (V/m) @ t=0.06
1.0192253052212554
% es.EX (V/m) @ t=0.06
-0.6582022665985559
% es.EY (V/m) @ t=0.06
0.14623679535545475
% es.EZ (V/m) @ t=0.06
0.7506535113009285
% es.tEX (V/m) @ t=0.06
-0.6582022665985572
% es.tEY (V/m) @ t=0.06
0
% es.tEZ (V/m) @ t=0.06
0.7506535113009498
% es.Ex (V/m) @ t=0.06
-0.6582022665985559
% es.Ey (V/m) @ t=0.06
0.14623679535545475
% es.Ez (V/m) @ t=0.06
0.7506535113009285
% es.tEx (V/m) @ t=0.06
-0.6582022665985572
% es.tEy (V/m) @ t=0.06
0
% es.tEz (V/m) @ t=0.06
0.7506535113009498
% V (V) @ t=0.06
0.009864110025820487
% es.normE (V/m) @ t=0.08
1.0286673925702685
% es.EX (V/m) @ t=0.08
-0.664299842142462
% es.EY (V/m) @ t=0.08
0.14759153070563258
% es.EZ (V/m) @ t=0.08
0.7576075537536777
% es.tEX (V/m) @ t=0.08
-0.6642998421424633
% es.tEY (V/m) @ t=0.08
0
% es.tEZ (V/m) @ t=0.08
0.7576075537536893
% es.Ex (V/m) @ t=0.08
-0.664299842142462
% es.Ey (V/m) @ t=0.08
0.14759153070563258
% es.Ez (V/m) @ t=0.08
0.7576075537536777
% es.tEx (V/m) @ t=0.08
-0.6642998421424633
% es.tEy (V/m) @ t=0.08
0
% es.tEz (V/m) @ t=0.08
0.7576075537536893
% V (V) @ t=0.08
0.009955490990701697
% es.normE (V/m) @ t=0.1
1.038176370913403
% es.EX (V/m) @ t=0.1
-0.6704406150088209
% es.EY (V/m) @ t=0.1
0.14895586354778945
% es.EZ (V/m) @ t=0.1
0.7646108609988467
% es.tEX (V/m) @ t=0.1
-0.6704406150088187
% es.tEY (V/m) @ t=0.1
0
% es.tEZ (V/m) @ t=0.1
0.7646108609988547
% es.Ex (V/m) @ t=0.1
-0.6704406150088209
% es.Ey (V/m) @ t=0.1
0.14895586354778945
% es.Ez (V/m) @ t=0.1
0.7646108609988467
% es.tEx (V/m) @ t=0.1
-0.6704406150088187
% es.tEy (V/m) @ t=0.1
0
% es.tEz (V/m) @ t=0.1
0.7646108609988547
% V (V) @ t=0.1
0.010047519323024364
% es.normE (V/m) @ t=0.12
1.047685349256526
% es.EX (V/m) @ t=0.12
-0.676581387875187
% es.EY (V/m) @ t=0.12
0.15032019638993654
% es.EZ (V/m) @ t=0.12
0.7716141682439988
% es.tEX (V/m) @ t=0.12
-0.676581387875181
% es.tEY (V/m) @ t=0.12
0
% es.tEZ (V/m) @ t=0.12
0.7716141682439925
% es.Ex (V/m) @ t=0.12
-0.676581387875187
% es.Ey (V/m) @ t=0.12
0.15032019638993654
% es.Ez (V/m) @ t=0.12
0.7716141682439988
% es.tEx (V/m) @ t=0.12
-0.676581387875181
% es.tEy (V/m) @ t=0.12
0
% es.tEz (V/m) @ t=0.12
0.7716141682439925
% V (V) @ t=0.12
0.010139547655347029
% es.normE (V/m) @ t=0.14
1.0574048602441632
% es.EX (V/m) @ t=0.14
-0.68285811994983
% es.EY (V/m) @ t=0.14
0.15171473612573283
% es.EZ (V/m) @ t=0.14
0.7787725315490333
% es.tEX (V/m) @ t=0.14
-0.6828581199498311
% es.tEY (V/m) @ t=0.14
0
% es.tEZ (V/m) @ t=0.14
0.7787725315490412
% es.Ex (V/m) @ t=0.14
-0.68285811994983
% es.Ey (V/m) @ t=0.14
0.15171473612573283
% es.Ez (V/m) @ t=0.14
0.7787725315490333
% es.tEx (V/m) @ t=0.14
-0.6828581199498311
% es.tEy (V/m) @ t=0.14
0
% es.tEz (V/m) @ t=0.14
0.7787725315490412
% V (V) @ t=0.14
0.010233613530072832
% es.normE (V/m) @ t=0.16
1.0674021567798992
% es.EX (V/m) @ t=0.16
-0.6893142422719014
% es.EY (V/m) @ t=0.16
0.1531491320963132
% es.EZ (V/m) @ t=0.16
0.7861354822836297
% es.tEX (V/m) @ t=0.16
-0.6893142422718956
% es.tEY (V/m) @ t=0.16
0
% es.tEZ (V/m) @ t=0.16
0.7861354822836448
% es.Ex (V/m) @ t=0.16
-0.6893142422719014
% es.Ey (V/m) @ t=0.16
0.1531491320963132
% es.Ez (V/m) @ t=0.16
0.7861354822836297
% es.tEx (V/m) @ t=0.16
-0.6893142422718956
% es.tEy (V/m) @ t=0.16
0
% es.tEz (V/m) @ t=0.16
0.7861354822836448
% V (V) @ t=0.16
0.010330367823188677
% es.normE (V/m) @ t=0.18
1.0773994533156426
% es.EX (V/m) @ t=0.18
-0.6957703645939732
% es.EY (V/m) @ t=0.18
0.15458352806688302
% es.EZ (V/m) @ t=0.18
0.7934984330182386
% es.tEX (V/m) @ t=0.18
-0.6957703645939708
% es.tEY (V/m) @ t=0.18
0
% es.tEZ (V/m) @ t=0.18
0.7934984330182537
% es.Ex (V/m) @ t=0.18
-0.6957703645939732
% es.Ey (V/m) @ t=0.18
0.15458352806688302
% es.Ez (V/m) @ t=0.18
0.7934984330182386
% es.tEx (V/m) @ t=0.18
-0.6957703645939708
% es.tEy (V/m) @ t=0.18
0
% es.tEz (V/m) @ t=0.18
0.7934984330182537
% V (V) @ t=0.18
0.01042712211630452
% es.normE (V/m) @ t=0.2
1.087396749851382
% es.EX (V/m) @ t=0.2
-0.7022264869160404
% es.EY (V/m) @ t=0.2
0.15601792403742343
% es.EZ (V/m) @ t=0.2
0.8008613837528529
% es.tEX (V/m) @ t=0.2
-0.7022264869160415
% es.tEY (V/m) @ t=0.2
0
% es.tEZ (V/m) @ t=0.2
0.8008613837528573
% es.Ex (V/m) @ t=0.2
-0.7022264869160404
% es.Ey (V/m) @ t=0.2
0.15601792403742343
% es.Ez (V/m) @ t=0.2
0.8008613837528529
% es.tEx (V/m) @ t=0.2
-0.7022264869160415
% es.tEy (V/m) @ t=0.2
0
% es.tEz (V/m) @ t=0.2
0.8008613837528573
% V (V) @ t=0.2
0.010523876409420365
% es.normE (V/m) @ t=0.22
1.0973940463871261
% es.EX (V/m) @ t=0.22
-0.7086826092381151
% es.EY (V/m) @ t=0.22
0.15745232000799936
% es.EZ (V/m) @ t=0.22
0.80822433448746
% es.tEX (V/m) @ t=0.22
-0.7086826092381164
% es.tEY (V/m) @ t=0.22
0
% es.tEZ (V/m) @ t=0.22
0.8082243344874822
% es.Ex (V/m) @ t=0.22
-0.7086826092381151
% es.Ey (V/m) @ t=0.22
0.15745232000799936
% es.Ez (V/m) @ t=0.22
0.80822433448746
% es.tEx (V/m) @ t=0.22
-0.7086826092381164
% es.tEy (V/m) @ t=0.22
0
% es.tEz (V/m) @ t=0.22
0.8082243344874822
% V (V) @ t=0.22
0.01062063070253621
% es.normE (V/m) @ t=0.24
1.1073913429228737
% es.EX (V/m) @ t=0.24
-0.7151387315601865
% es.EY (V/m) @ t=0.24
0.15888671597856996
% es.EZ (V/m) @ t=0.24
0.8155872852220734
% es.tEX (V/m) @ t=0.24
-0.7151387315601805
% es.tEY (V/m) @ t=0.24
0
% es.tEZ (V/m) @ t=0.24
0.8155872852220849
% es.Ex (V/m) @ t=0.24
-0.7151387315601865
% es.Ey (V/m) @ t=0.24
0.15888671597856996
% es.Ez (V/m) @ t=0.24
0.8155872852220734
% es.tEx (V/m) @ t=0.24
-0.7151387315601805
% es.tEy (V/m) @ t=0.24
0
% es.tEz (V/m) @ t=0.24
0.8155872852220849
% V (V) @ t=0.24
0.010717384995652057
% es.normE (V/m) @ t=0.26
1.1173886394585972
% es.EX (V/m) @ t=0.26
-0.7215948538822541
% es.EY (V/m) @ t=0.26
0.16032111194912635
% es.EZ (V/m) @ t=0.26
0.8229502359566627
% es.tEX (V/m) @ t=0.26
-0.7215948538822552
% es.tEY (V/m) @ t=0.26
0
% es.tEZ (V/m) @ t=0.26
0.8229502359566734
% es.Ex (V/m) @ t=0.26
-0.7215948538822541
% es.Ey (V/m) @ t=0.26
0.16032111194912635
% es.Ez (V/m) @ t=0.26
0.8229502359566627
% es.tEx (V/m) @ t=0.26
-0.7215948538822552
% es.tEy (V/m) @ t=0.26
0
% es.tEz (V/m) @ t=0.26
0.8229502359566734
% V (V) @ t=0.26
0.010814139288767899
% es.normE (V/m) @ t=0.28
1.1283394398810587
% es.EX (V/m) @ t=0.28
-0.7286667362935599
% es.EY (V/m) @ t=0.28
0.16189230408748123
% es.EZ (V/m) @ t=0.28
0.8310154418999778
% es.tEX (V/m) @ t=0.28
-0.728666736293561
% es.tEY (V/m) @ t=0.28
0
% es.tEZ (V/m) @ t=0.28
0.8310154418999787
% es.Ex (V/m) @ t=0.28
-0.7286667362935599
% es.Ey (V/m) @ t=0.28
0.16189230408748123
% es.Ez (V/m) @ t=0.28
0.8310154418999778
% es.tEx (V/m) @ t=0.28
-0.728666736293561
% es.tEy (V/m) @ t=0.28
0
% es.tEz (V/m) @ t=0.28
0.8310154418999787
% V (V) @ t=0.28
0.010920122645877604
% es.normE (V/m) @ t=0.3
1.139430348710603
% es.EX (V/m) @ t=0.3
-0.7358290988449647
% es.EY (V/m) @ t=0.3
0.16348359713305682
% es.EZ (V/m) @ t=0.3
0.839183837625761
% es.tEX (V/m) @ t=0.3
-0.7358290988449656
% es.tEY (V/m) @ t=0.3
0
% es.tEZ (V/m) @ t=0.3
0.8391838376257681
% es.Ex (V/m) @ t=0.3
-0.7358290988449647
% es.Ey (V/m) @ t=0.3
0.16348359713305682
% es.Ez (V/m) @ t=0.3
0.839183837625761
% es.tEx (V/m) @ t=0.3
-0.7358290988449656
% es.tEy (V/m) @ t=0.3
0
% es.tEz (V/m) @ t=0.3
0.8391838376257681
% V (V) @ t=0.3
0.011027462126934978
% es.normE (V/m) @ t=0.32
1.1505212575401498
% es.EX (V/m) @ t=0.32
-0.7429914613963666
% es.EY (V/m) @ t=0.32
0.16507489017861654
% es.EZ (V/m) @ t=0.32
0.8473522333515522
% es.tEX (V/m) @ t=0.32
-0.742991461396364
% es.tEY (V/m) @ t=0.32
0
% es.tEZ (V/m) @ t=0.32
0.8473522333515566
% es.Ex (V/m) @ t=0.32
-0.7429914613963666
% es.Ey (V/m) @ t=0.32
0.16507489017861654
% es.Ez (V/m) @ t=0.32
0.8473522333515522
% es.tEx (V/m) @ t=0.32
-0.742991461396364
% es.tEy (V/m) @ t=0.32
0
% es.tEz (V/m) @ t=0.32
0.8473522333515566
% V (V) @ t=0.32
0.011134801607992354
% es.normE (V/m) @ t=0.34
1.1616121663696728
% es.EX (V/m) @ t=0.34
-0.7501538239477681
% es.EY (V/m) @ t=0.34
0.1666661832241939
% es.EZ (V/m) @ t=0.34
0.8555206290773096
% es.tEX (V/m) @ t=0.34
-0.7501538239477619
% es.tEY (V/m) @ t=0.34
0
% es.tEZ (V/m) @ t=0.34
0.8555206290773247
% es.Ex (V/m) @ t=0.34
-0.7501538239477681
% es.Ey (V/m) @ t=0.34
0.1666661832241939
% es.Ez (V/m) @ t=0.34
0.8555206290773096
% es.tEx (V/m) @ t=0.34
-0.7501538239477619
% es.tEy (V/m) @ t=0.34
0
% es.tEz (V/m) @ t=0.34
0.8555206290773247
% V (V) @ t=0.34
0.011242141089049728
% es.normE (V/m) @ t=0.36
1.1727030751992198
% es.EX (V/m) @ t=0.36
-0.757316186499162
% es.EY (V/m) @ t=0.36
0.16825747626975707
% es.EZ (V/m) @ t=0.36
0.863689024803107
% es.tEX (V/m) @ t=0.36
-0.7573161864991629
% es.tEY (V/m) @ t=0.36
0
% es.tEZ (V/m) @ t=0.36
0.8636890248031284
% es.Ex (V/m) @ t=0.36
-0.757316186499162
% es.Ey (V/m) @ t=0.36
0.16825747626975707
% es.Ez (V/m) @ t=0.36
0.863689024803107
% es.tEx (V/m) @ t=0.36
-0.7573161864991629
% es.tEy (V/m) @ t=0.36
0
% es.tEz (V/m) @ t=0.36
0.8636890248031284
% V (V) @ t=0.36
0.011349480570107104
% es.normE (V/m) @ t=0.38
1.1837939840287524
% es.EX (V/m) @ t=0.38
-0.7644785490505639
% es.EY (V/m) @ t=0.38
0.16984876931532567
% es.EZ (V/m) @ t=0.38
0.8718574205288743
% es.tEX (V/m) @ t=0.38
-0.7644785490505648
% es.tEY (V/m) @ t=0.38
0
% es.tEZ (V/m) @ t=0.38
0.8718574205288823
% es.Ex (V/m) @ t=0.38
-0.7644785490505639
% es.Ey (V/m) @ t=0.38
0.16984876931532567
% es.Ez (V/m) @ t=0.38
0.8718574205288743
% es.tEx (V/m) @ t=0.38
-0.7644785490505648
% es.tEy (V/m) @ t=0.38
0
% es.tEz (V/m) @ t=0.38
0.8718574205288823
% V (V) @ t=0.38
0.011456820051164478
% es.normE (V/m) @ t=0.4
1.1948848928583011
% es.EX (V/m) @ t=0.4
-0.7716409116019656
% es.EY (V/m) @ t=0.4
0.1714400623608996
% es.EZ (V/m) @ t=0.4
0.8800258162546628
% es.tEX (V/m) @ t=0.4
-0.7716409116019629
% es.tEY (V/m) @ t=0.4
0
% es.tEZ (V/m) @ t=0.4
0.8800258162546566
% es.Ex (V/m) @ t=0.4
-0.7716409116019656
% es.Ey (V/m) @ t=0.4
0.1714400623608996
% es.Ez (V/m) @ t=0.4
0.8800258162546628
% es.tEx (V/m) @ t=0.4
-0.7716409116019629
% es.tEy (V/m) @ t=0.4
0
% es.tEz (V/m) @ t=0.4
0.8800258162546566
% V (V) @ t=0.4
0.01156415953222185
% es.normE (V/m) @ t=0.42
1.205975801687833
% es.EX (V/m) @ t=0.42
-0.7788032741533595
% es.EY (V/m) @ t=0.42
0.17303135540646453
% es.EZ (V/m) @ t=0.42
0.8881942119804389
% es.tEX (V/m) @ t=0.42
-0.7788032741533604
% es.tEY (V/m) @ t=0.42
0
% es.tEZ (V/m) @ t=0.42
0.888194211980446
% es.Ex (V/m) @ t=0.42
-0.7788032741533595
% es.Ey (V/m) @ t=0.42
0.17303135540646453
% es.Ez (V/m) @ t=0.42
0.8881942119804389
% es.tEx (V/m) @ t=0.42
-0.7788032741533604
% es.tEy (V/m) @ t=0.42
0
% es.tEz (V/m) @ t=0.42
0.888194211980446
% V (V) @ t=0.42
0.011671499013279229
% es.normE (V/m) @ t=0.44
1.217066710517381
% es.EX (V/m) @ t=0.44
-0.7859656367047618
% es.EY (V/m) @ t=0.44
0.17462264845205444
% es.EZ (V/m) @ t=0.44
0.8963626077062203
% es.tEX (V/m) @ t=0.44
-0.7859656367047623
% es.tEY (V/m) @ t=0.44
0
% es.tEZ (V/m) @ t=0.44
0.8963626077062283
% es.Ex (V/m) @ t=0.44
-0.7859656367047618
% es.Ey (V/m) @ t=0.44
0.17462264845205444
% es.Ez (V/m) @ t=0.44
0.8963626077062203
% es.tEx (V/m) @ t=0.44
-0.7859656367047623
% es.tEy (V/m) @ t=0.44
0
% es.tEz (V/m) @ t=0.44
0.8963626077062283
% V (V) @ t=0.44
0.011778838494336603
% es.normE (V/m) @ t=0.46
1.228157619346919
% es.EX (V/m) @ t=0.46
-0.7931279992561628
% es.EY (V/m) @ t=0.46
0.17621394149761938
% es.EZ (V/m) @ t=0.46
0.9045310034319956
% es.tEX (V/m) @ t=0.46
-0.7931279992561566
% es.tEY (V/m) @ t=0.46
0
% es.tEZ (V/m) @ t=0.46
0.9045310034319964
% es.Ex (V/m) @ t=0.46
-0.7931279992561628
% es.Ey (V/m) @ t=0.46
0.17621394149761938
% es.Ez (V/m) @ t=0.46
0.9045310034319956
% es.tEx (V/m) @ t=0.46
-0.7931279992561566
% es.tEy (V/m) @ t=0.46
0
% es.tEz (V/m) @ t=0.46
0.9045310034319964
% V (V) @ t=0.46
0.011886177975393979
% es.normE (V/m) @ t=0.48
1.239248528176463
% es.EX (V/m) @ t=0.48
-0.8002903618075639
% es.EY (V/m) @ t=0.48
0.17780523454320019
% es.EZ (V/m) @ t=0.48
0.9126993991577752
% es.tEX (V/m) @ t=0.48
-0.8002903618075612
% es.tEY (V/m) @ t=0.48
0
% es.tEZ (V/m) @ t=0.48
0.9126993991577788
% es.Ex (V/m) @ t=0.48
-0.8002903618075639
% es.Ey (V/m) @ t=0.48
0.17780523454320019
% es.Ez (V/m) @ t=0.48
0.9126993991577752
% es.tEx (V/m) @ t=0.48
-0.8002903618075612
% es.tEy (V/m) @ t=0.48
0
% es.tEz (V/m) @ t=0.48
0.9126993991577788
% V (V) @ t=0.48
0.011993517456451353
% es.normE (V/m) @ t=0.5
1.250339437006002
% es.EX (V/m) @ t=0.5
-0.8074527243589515
% es.EY (V/m) @ t=0.5
0.17939652758875646
% es.EZ (V/m) @ t=0.5
0.9208677948835664
% es.tEX (V/m) @ t=0.5
-0.8074527243589524
% es.tEY (V/m) @ t=0.5
0
% es.tEZ (V/m) @ t=0.5
0.9208677948835602
% es.Ex (V/m) @ t=0.5
-0.8074527243589515
% es.Ey (V/m) @ t=0.5
0.17939652758875646
% es.Ez (V/m) @ t=0.5
0.9208677948835664
% es.tEx (V/m) @ t=0.5
-0.8074527243589524
% es.tEy (V/m) @ t=0.5
0
% es.tEz (V/m) @ t=0.5
0.9208677948835602
% V (V) @ t=0.5
0.012100856937508729
% es.normE (V/m) @ t=0.52
1.2614303458355476
% es.EX (V/m) @ t=0.52
-0.8146150869103561
% es.EY (V/m) @ t=0.52
0.1809878206343214
% es.EZ (V/m) @ t=0.52
0.9290361906093487
% es.tEX (V/m) @ t=0.52
-0.8146150869103534
% es.tEY (V/m) @ t=0.52
0
% es.tEZ (V/m) @ t=0.52
0.9290361906093567
% es.Ex (V/m) @ t=0.52
-0.8146150869103561
% es.Ey (V/m) @ t=0.52
0.1809878206343214
% es.Ez (V/m) @ t=0.52
0.9290361906093487
% es.tEx (V/m) @ t=0.52
-0.8146150869103534
% es.tEy (V/m) @ t=0.52
0
% es.tEz (V/m) @ t=0.52
0.9290361906093567
% V (V) @ t=0.52
0.012208196418566103
% es.normE (V/m) @ t=0.54
1.273450466943245
% es.EX (V/m) @ t=0.54
-0.8223775226177308
% es.EY (V/m) @ t=0.54
0.18271244424758326
% es.EZ (V/m) @ t=0.54
0.9378889417312939
% es.tEX (V/m) @ t=0.54
-0.8223775226177277
% es.tEY (V/m) @ t=0.54
0
% es.tEZ (V/m) @ t=0.54
0.9378889417313161
% es.Ex (V/m) @ t=0.54
-0.8223775226177308
% es.Ey (V/m) @ t=0.54
0.18271244424758326
% es.Ez (V/m) @ t=0.54
0.9378889417312939
% es.tEx (V/m) @ t=0.54
-0.8223775226177277
% es.tEy (V/m) @ t=0.54
0
% es.tEz (V/m) @ t=0.54
0.9378889417313161
% V (V) @ t=0.54
0.012324528067276418
% es.normE (V/m) @ t=0.56
1.2857747706099762
% es.EX (V/m) @ t=0.56
-0.8303363954498182
% es.EY (V/m) @ t=0.56
0.1844807143281061
% es.EZ (V/m) @ t=0.56
0.946965720215557
% es.tEX (V/m) @ t=0.56
-0.8303363954498191
% es.tEY (V/m) @ t=0.56
0
% es.tEZ (V/m) @ t=0.56
0.9469657202155721
% es.Ex (V/m) @ t=0.56
-0.8303363954498182
% es.Ey (V/m) @ t=0.56
0.1844807143281061
% es.Ez (V/m) @ t=0.56
0.946965720215557
% es.tEx (V/m) @ t=0.56
-0.8303363954498191
% es.tEy (V/m) @ t=0.56
0
% es.tEz (V/m) @ t=0.56
0.9469657202155721
% V (V) @ t=0.56
0.012443803349677322
% es.normE (V/m) @ t=0.58
1.2980990742766978
% es.EX (V/m) @ t=0.58
-0.8382952682819105
% es.EY (V/m) @ t=0.58
0.18624898440860593
% es.EZ (V/m) @ t=0.58
0.9560424986998122
% es.tEX (V/m) @ t=0.58
-0.8382952682819074
% es.tEY (V/m) @ t=0.58
0
% es.tEZ (V/m) @ t=0.58
0.9560424986998131
% es.Ex (V/m) @ t=0.58
-0.8382952682819105
% es.Ey (V/m) @ t=0.58
0.18624898440860593
% es.Ez (V/m) @ t=0.58
0.9560424986998122
% es.tEx (V/m) @ t=0.58
-0.8382952682819074
% es.tEy (V/m) @ t=0.58
0
% es.tEz (V/m) @ t=0.58
0.9560424986998131
% V (V) @ t=0.58
0.012563078632078225
% es.normE (V/m) @ t=0.6
1.3104233779434198
% es.EX (V/m) @ t=0.6
-0.8462541411140019
% es.EY (V/m) @ t=0.6
0.1880172544891412
% es.EZ (V/m) @ t=0.6
0.9651192771840602
% es.tEX (V/m) @ t=0.6
-0.8462541411139988
% es.tEY (V/m) @ t=0.6
0
% es.tEZ (V/m) @ t=0.6
0.9651192771840682
% es.Ex (V/m) @ t=0.6
-0.8462541411140019
% es.Ey (V/m) @ t=0.6
0.1880172544891412
% es.Ez (V/m) @ t=0.6
0.9651192771840602
% es.tEx (V/m) @ t=0.6
-0.8462541411139988
% es.tEy (V/m) @ t=0.6
0
% es.tEz (V/m) @ t=0.6
0.9651192771840682
% V (V) @ t=0.6
0.012682353914479132
% es.normE (V/m) @ t=0.62
1.3227476816101427
% es.EX (V/m) @ t=0.62
-0.8542130139460973
% es.EY (V/m) @ t=0.62
0.18978552456963393
% es.EZ (V/m) @ t=0.62
0.9741960556683154
% es.tEX (V/m) @ t=0.62
-0.8542130139460977
% es.tEY (V/m) @ t=0.62
0
% es.tEZ (V/m) @ t=0.62
0.9741960556683225
% es.Ex (V/m) @ t=0.62
-0.8542130139460973
% es.Ey (V/m) @ t=0.62
0.18978552456963393
% es.Ez (V/m) @ t=0.62
0.9741960556683154
% es.tEx (V/m) @ t=0.62
-0.8542130139460977
% es.tEy (V/m) @ t=0.62
0
% es.tEz (V/m) @ t=0.62
0.9741960556683225
% V (V) @ t=0.62
0.012801629196880035
% es.normE (V/m) @ t=0.64
1.3350719852768638
% es.EX (V/m) @ t=0.64
-0.8621718867781811
% es.EY (V/m) @ t=0.64
0.19155379465015676
% es.EZ (V/m) @ t=0.64
0.9832728341525705
% es.tEX (V/m) @ t=0.64
-0.8621718867781785
% es.tEY (V/m) @ t=0.64
0
% es.tEZ (V/m) @ t=0.64
0.9832728341525785
% es.Ex (V/m) @ t=0.64
-0.8621718867781811
% es.Ey (V/m) @ t=0.64
0.19155379465015676
% es.Ez (V/m) @ t=0.64
0.9832728341525705
% es.tEx (V/m) @ t=0.64
-0.8621718867781785
% es.tEy (V/m) @ t=0.64
0
% es.tEz (V/m) @ t=0.64
0.9832728341525785
% V (V) @ t=0.64
0.01292090447928094
% es.normE (V/m) @ t=0.66
1.3473962889435909
% es.EX (V/m) @ t=0.66
-0.8701307596102694
% es.EY (V/m) @ t=0.66
0.1933220647306797
% es.EZ (V/m) @ t=0.66
0.9923496126368292
% es.tEX (V/m) @ t=0.66
-0.8701307596102659
% es.tEY (V/m) @ t=0.66
0
% es.tEZ (V/m) @ t=0.66
0.9923496126368336
% es.Ex (V/m) @ t=0.66
-0.8701307596102694
% es.Ey (V/m) @ t=0.66
0.1933220647306797
% es.Ez (V/m) @ t=0.66
0.9923496126368292
% es.tEx (V/m) @ t=0.66
-0.8701307596102659
% es.tEy (V/m) @ t=0.66
0
% es.tEz (V/m) @ t=0.66
0.9923496126368336
% V (V) @ t=0.66
0.013040179761681843
% es.normE (V/m) @ t=0.68
1.3597205926103104
% es.EX (V/m) @ t=0.68
-0.8780896324423648
% es.EY (V/m) @ t=0.68
0.19509033481118843
% es.EZ (V/m) @ t=0.68
1.0014263911210772
% es.tEX (V/m) @ t=0.68
-0.8780896324423617
% es.tEY (V/m) @ t=0.68
0
% es.tEZ (V/m) @ t=0.68
1.0014263911210888
% es.Ex (V/m) @ t=0.68
-0.8780896324423648
% es.Ey (V/m) @ t=0.68
0.19509033481118843
% es.Ez (V/m) @ t=0.68
1.0014263911210772
% es.tEx (V/m) @ t=0.68
-0.8780896324423617
% es.tEy (V/m) @ t=0.68
0
% es.tEz (V/m) @ t=0.68
1.0014263911210888
% V (V) @ t=0.68
0.013159455044082748
% es.normE (V/m) @ t=0.7
1.3720448962770302
% es.EX (V/m) @ t=0.7
-0.8860485052744567
% es.EY (V/m) @ t=0.7
0.19685860489171314
% es.EZ (V/m) @ t=0.7
1.0105031696053253
% es.tEX (V/m) @ t=0.7
-0.8860485052744571
% es.tEY (V/m) @ t=0.7
0
% es.tEZ (V/m) @ t=0.7
1.0105031696053368
% es.Ex (V/m) @ t=0.7
-0.8860485052744567
% es.Ey (V/m) @ t=0.7
0.19685860489171314
% es.Ez (V/m) @ t=0.7
1.0105031696053253
% es.tEx (V/m) @ t=0.7
-0.8860485052744571
% es.tEy (V/m) @ t=0.7
0
% es.tEz (V/m) @ t=0.7
1.0105031696053368
% V (V) @ t=0.7
0.013278730326483652
% es.normE (V/m) @ t=0.72
1.3843691999437544
% es.EX (V/m) @ t=0.72
-0.8940073781065441
% es.EY (V/m) @ t=0.72
0.19862687497221465
% es.EZ (V/m) @ t=0.72
1.0195799480895849
% es.tEX (V/m) @ t=0.72
-0.894007378106541
% es.tEY (V/m) @ t=0.72
0
% es.tEZ (V/m) @ t=0.72
1.0195799480895857
% es.Ex (V/m) @ t=0.72
-0.8940073781065441
% es.Ey (V/m) @ t=0.72
0.19862687497221465
% es.Ez (V/m) @ t=0.72
1.0195799480895849
% es.tEx (V/m) @ t=0.72
-0.894007378106541
% es.tEy (V/m) @ t=0.72
0
% es.tEz (V/m) @ t=0.72
1.0195799480895857
% V (V) @ t=0.72
0.013398005608884558
% es.normE (V/m) @ t=0.74
1.3966935036104742
% es.EX (V/m) @ t=0.74
-0.9019662509386395
% es.EY (V/m) @ t=0.74
0.2003951450527357
% es.EZ (V/m) @ t=0.74
1.028656726573833
% es.tEX (V/m) @ t=0.74
-0.9019662509386364
% es.tEY (V/m) @ t=0.74
0
% es.tEZ (V/m) @ t=0.74
1.02865672657384
% es.Ex (V/m) @ t=0.74
-0.9019662509386395
% es.Ey (V/m) @ t=0.74
0.2003951450527357
% es.Ez (V/m) @ t=0.74
1.028656726573833
% es.tEx (V/m) @ t=0.74
-0.9019662509386364
% es.tEy (V/m) @ t=0.74
0
% es.tEz (V/m) @ t=0.74
1.02865672657384
% V (V) @ t=0.74
0.01351728089128546
% es.normE (V/m) @ t=0.76
1.4090178072771846
% es.EX (V/m) @ t=0.76
-0.909925123770718
% es.EY (V/m) @ t=0.76
0.202163415133241
% es.EZ (V/m) @ t=0.76
1.0377335050580827
% es.tEX (V/m) @ t=0.76
-0.909925123770718
% es.tEY (V/m) @ t=0.76
0
% es.tEZ (V/m) @ t=0.76
1.0377335050580871
% es.Ex (V/m) @ t=0.76
-0.909925123770718
% es.Ey (V/m) @ t=0.76
0.202163415133241
% es.Ez (V/m) @ t=0.76
1.0377335050580827
% es.tEx (V/m) @ t=0.76
-0.909925123770718
% es.tEy (V/m) @ t=0.76
0
% es.tEz (V/m) @ t=0.76
1.0377335050580871
% V (V) @ t=0.76
0.013636556173686365
% es.normE (V/m) @ t=0.78
1.4213421109439115
% es.EX (V/m) @ t=0.78
-0.917883996602809
% es.EY (V/m) @ t=0.78
0.2039316852137515
% es.EZ (V/m) @ t=0.78
1.0468102835423414
% es.tEX (V/m) @ t=0.78
-0.9178839966028063
% es.tEY (V/m) @ t=0.78
0
% es.tEZ (V/m) @ t=0.78
1.0468102835423565
% es.Ex (V/m) @ t=0.78
-0.917883996602809
% es.Ey (V/m) @ t=0.78
0.2039316852137515
% es.Ez (V/m) @ t=0.78
1.0468102835423414
% es.tEx (V/m) @ t=0.78
-0.9178839966028063
% es.tEy (V/m) @ t=0.78
0
% es.tEz (V/m) @ t=0.78
1.0468102835423565
% V (V) @ t=0.78
0.01375583145608727
% es.normE (V/m) @ t=0.8
1.4345512632149446
% es.EX (V/m) @ t=0.8
-0.9264142930145458
% es.EY (V/m) @ t=0.8
0.20582691320975255
% es.EZ (V/m) @ t=0.8
1.0565387472907304
% es.tEX (V/m) @ t=0.8
-0.9264142930145423
% es.tEY (V/m) @ t=0.8
0
% es.tEZ (V/m) @ t=0.8
1.0565387472907384
% es.Ex (V/m) @ t=0.8
-0.9264142930145458
% es.Ey (V/m) @ t=0.8
0.20582691320975255
% es.Ez (V/m) @ t=0.8
1.0565387472907304
% es.tEx (V/m) @ t=0.8
-0.9264142930145423
% es.tEy (V/m) @ t=0.8
0
% es.tEz (V/m) @ t=0.8
1.0565387472907384
% V (V) @ t=0.8
0.013883670230041075
% es.normE (V/m) @ t=0.82
1.4482693127679411
% es.EX (V/m) @ t=0.82
-0.9352732285913681
% es.EY (V/m) @ t=0.82
0.2077951576944459
% es.EZ (V/m) @ t=0.82
1.066642010590118
% es.tEX (V/m) @ t=0.82
-0.9352732285913685
% es.tEY (V/m) @ t=0.82
0
% es.tEZ (V/m) @ t=0.82
1.066642010590133
% es.Ex (V/m) @ t=0.82
-0.9352732285913681
% es.Ey (V/m) @ t=0.82
0.2077951576944459
% es.Ez (V/m) @ t=0.82
1.066642010590118
% es.tEx (V/m) @ t=0.82
-0.9352732285913685
% es.tEy (V/m) @ t=0.82
0
% es.tEz (V/m) @ t=0.82
1.066642010590133
% V (V) @ t=0.82
0.014016434069768246
% es.normE (V/m) @ t=0.84
1.4619873623209574
% es.EX (V/m) @ t=0.84
-0.9441321641681863
% es.EY (V/m) @ t=0.84
0.2097634021791409
% es.EZ (V/m) @ t=0.84
1.076745273889535
% es.tEX (V/m) @ t=0.84
-0.9441321641681872
% es.tEY (V/m) @ t=0.84
0
% es.tEZ (V/m) @ t=0.84
1.0767452738895429
% es.Ex (V/m) @ t=0.84
-0.9441321641681863
% es.Ey (V/m) @ t=0.84
0.2097634021791409
% es.Ez (V/m) @ t=0.84
1.076745273889535
% es.tEx (V/m) @ t=0.84
-0.9441321641681872
% es.tEy (V/m) @ t=0.84
0
% es.tEz (V/m) @ t=0.84
1.0767452738895429
% V (V) @ t=0.84
0.01414919790949542
% es.normE (V/m) @ t=0.86
1.475705411873966
% es.EX (V/m) @ t=0.86
-0.9529910997450126
% es.EY (V/m) @ t=0.86
0.21173164666384137
% es.EZ (V/m) @ t=0.86
1.0868485371889367
% es.tEX (V/m) @ t=0.86
-0.9529910997450091
% es.tEY (V/m) @ t=0.86
0
% es.tEZ (V/m) @ t=0.86
1.0868485371889518
% es.Ex (V/m) @ t=0.86
-0.9529910997450126
% es.Ey (V/m) @ t=0.86
0.21173164666384137
% es.Ez (V/m) @ t=0.86
1.0868485371889367
% es.tEx (V/m) @ t=0.86
-0.9529910997450091
% es.tEy (V/m) @ t=0.86
0
% es.tEz (V/m) @ t=0.86
1.0868485371889518
% V (V) @ t=0.86
0.014281961749222595
% es.normE (V/m) @ t=0.88
1.4894234614269755
% es.EX (V/m) @ t=0.88
-0.9618500353218309
% es.EY (V/m) @ t=0.88
0.21369989114853283
% es.EZ (V/m) @ t=0.88
1.0969518004883447
% es.tEX (V/m) @ t=0.88
-0.9618500353218273
% es.tEY (V/m) @ t=0.88
0
% es.tEZ (V/m) @ t=0.88
1.0969518004883554
% es.Ex (V/m) @ t=0.88
-0.9618500353218309
% es.Ey (V/m) @ t=0.88
0.21369989114853283
% es.Ez (V/m) @ t=0.88
1.0969518004883447
% es.tEx (V/m) @ t=0.88
-0.9618500353218273
% es.tEy (V/m) @ t=0.88
0
% es.tEz (V/m) @ t=0.88
1.0969518004883554
% V (V) @ t=0.88
0.014414725588949767
% es.normE (V/m) @ t=0.9
1.503141510979987
% es.EX (V/m) @ t=0.9
-0.9707089708986532
% es.EY (V/m) @ t=0.9
0.21566813563322085
% es.EZ (V/m) @ t=0.9
1.1070550637877572
% es.tEX (V/m) @ t=0.9
-0.9707089708986536
% es.tEY (V/m) @ t=0.9
0
% es.tEZ (V/m) @ t=0.9
1.1070550637877652
% es.Ex (V/m) @ t=0.9
-0.9707089708986532
% es.Ey (V/m) @ t=0.9
0.21566813563322085
% es.Ez (V/m) @ t=0.9
1.1070550637877572
% es.tEx (V/m) @ t=0.9
-0.9707089708986536
% es.tEy (V/m) @ t=0.9
0
% es.tEz (V/m) @ t=0.9
1.1070550637877652
% V (V) @ t=0.9
0.014547489428676941
% es.normE (V/m) @ t=0.92
1.5168595605329944
% es.EX (V/m) @ t=0.92
-0.9795679064754785
% es.EY (V/m) @ t=0.92
0.2176363801179212
% es.EZ (V/m) @ t=0.92
1.1171583270871563
% es.tEX (V/m) @ t=0.92
-0.979567906475479
% es.tEY (V/m) @ t=0.92
0
% es.tEZ (V/m) @ t=0.92
1.117158327087168
% es.Ex (V/m) @ t=0.92
-0.9795679064754785
% es.Ey (V/m) @ t=0.92
0.2176363801179212
% es.Ez (V/m) @ t=0.92
1.1171583270871563
% es.tEx (V/m) @ t=0.92
-0.979567906475479
% es.tEy (V/m) @ t=0.92
0
% es.tEz (V/m) @ t=0.92
1.117158327087168
% V (V) @ t=0.92
0.014680253268404112
% es.normE (V/m) @ t=0.94
1.530577610086005
% es.EX (V/m) @ t=0.94
-0.9884268420522972
% es.EY (V/m) @ t=0.94
0.21960462460262165
% es.EZ (V/m) @ t=0.94
1.1272615903865617
% es.tEX (V/m) @ t=0.94
-0.9884268420522937
% es.tEY (V/m) @ t=0.94
0
% es.tEZ (V/m) @ t=0.94
1.1272615903865768
% es.Ex (V/m) @ t=0.94
-0.9884268420522972
% es.Ey (V/m) @ t=0.94
0.21960462460262165
% es.Ez (V/m) @ t=0.94
1.1272615903865617
% es.tEx (V/m) @ t=0.94
-0.9884268420522937
% es.tEy (V/m) @ t=0.94
0
% es.tEz (V/m) @ t=0.94
1.1272615903865768
% V (V) @ t=0.94
0.01481301710813129
% es.normE (V/m) @ t=0.96
1.5442956596390205
% es.EX (V/m) @ t=0.96
-0.9972857776291231
% es.EY (V/m) @ t=0.96
0.22157286908730067
% es.EZ (V/m) @ t=0.96
1.1373648536859786
% es.tEX (V/m) @ t=0.96
-0.9972857776291231
% es.tEY (V/m) @ t=0.96
0
% es.tEZ (V/m) @ t=0.96
1.1373648536859795
% es.Ex (V/m) @ t=0.96
-0.9972857776291231
% es.Ey (V/m) @ t=0.96
0.22157286908730067
% es.Ez (V/m) @ t=0.96
1.1373648536859786
% es.tEx (V/m) @ t=0.96
-0.9972857776291231
% es.tEy (V/m) @ t=0.96
0
% es.tEz (V/m) @ t=0.96
1.1373648536859795
% V (V) @ t=0.96
0.014945780947858462
% es.normE (V/m) @ t=0.98
1.558013709192033
% es.EX (V/m) @ t=0.98
-1.0061447132059453
% es.EY (V/m) @ t=0.98
0.22354111357199757
% es.EZ (V/m) @ t=0.98
1.1474681169853875
% es.tEX (V/m) @ t=0.98
-1.0061447132059453
% es.tEY (V/m) @ t=0.98
0
% es.tEZ (V/m) @ t=0.98
1.1474681169853955
% es.Ex (V/m) @ t=0.98
-1.0061447132059453
% es.Ey (V/m) @ t=0.98
0.22354111357199757
% es.Ez (V/m) @ t=0.98
1.1474681169853875
% es.tEx (V/m) @ t=0.98
-1.0061447132059453
% es.tEy (V/m) @ t=0.98
0
% es.tEz (V/m) @ t=0.98
1.1474681169853955
% V (V) @ t=0.98
0.015078544787585637
% es.normE (V/m) @ t=1
1.5717317587450261
% es.EX (V/m) @ t=1
-1.0150036487827636
% es.EY (V/m) @ t=1
0.2255093580567139
% es.EZ (V/m) @ t=1
1.1575713802847698
% es.tEX (V/m) @ t=1
-1.0150036487827605
% es.tEY (V/m) @ t=1
0
% es.tEZ (V/m) @ t=1
1.157571380284785
% es.Ex (V/m) @ t=1
-1.0150036487827636
% es.Ey (V/m) @ t=1
0.2255093580567139
% es.Ez (V/m) @ t=1
1.1575713802847698
% es.tEx (V/m) @ t=1
-1.0150036487827605
% es.tEy (V/m) @ t=1
0
% es.tEz (V/m) @ t=1
1.157571380284785
% V (V) @ t=1
0.015211308627312807
% es.normE (V/m) @ t=1.02
1.5854498082980455
% es.EX (V/m) @ t=1.02
-1.0238625843595823
% es.EY (V/m) @ t=1.02
0.22747760254139482
% es.EZ (V/m) @ t=1.02
1.1676746435841938
% es.tEX (V/m) @ t=1.02
-1.0238625843595788
% es.tEY (V/m) @ t=1.02
0
% es.tEZ (V/m) @ t=1.02
1.1676746435842018
% es.Ex (V/m) @ t=1.02
-1.0238625843595823
% es.Ey (V/m) @ t=1.02
0.22747760254139482
% es.Ez (V/m) @ t=1.02
1.1676746435841938
% es.tEx (V/m) @ t=1.02
-1.0238625843595788
% es.tEy (V/m) @ t=1.02
0
% es.tEz (V/m) @ t=1.02
1.1676746435842018
% V (V) @ t=1.02
0.015344072467039983
% es.normE (V/m) @ t=1.04
1.599167857851056
% es.EX (V/m) @ t=1.04
-1.0327215199364046
% es.EY (V/m) @ t=1.04
0.22944584702609694
% es.EZ (V/m) @ t=1.04
1.1777779068836
% es.tEX (V/m) @ t=1.04
-1.0327215199364046