% Model:              1 neuron.mph
% Version:            COMSOL 6.1.0.252
% Date:               Mar 18 2023, 13:10
% Dimension:          0
% Nodes:              14017
% Expressions:        14017
% Description:        Electric field norm, Electric field, X component, Electric field, Y component, Electric field, Z component, Tangential electric field, X component, Tangential electric field, Y component, Tangential electric field, Z component, Electric field, x component, Electric field, y component, Electric field, z component, Tangential electric field, x component, Tangential electric field, y component, Tangential electric field, z component, Electric potential
% Length unit:        mm
% x
1.33
% y
12.2
% z
2
% es.normE (V/m) @ t=0
2.2013213567346033
% es.EX (V/m) @ t=0
0.8773109895442692
% es.EY (V/m) @ t=0
0.2319450579300515
% es.EZ (V/m) @ t=0
-2.003797647341986
% es.tEX (V/m) @ t=0
0.8773109895442626
% es.tEY (V/m) @ t=0
0
% es.tEZ (V/m) @ t=0
-2.0037976473419885
% es.Ex (V/m) @ t=0
0.8773109895442692
% es.Ey (V/m) @ t=0
0.2319450579300515
% es.Ez (V/m) @ t=0
-2.003797647341986
% es.tEx (V/m) @ t=0
0.8773109895442626
% es.tEy (V/m) @ t=0
0
% es.tEz (V/m) @ t=0
-2.0037976473419885
% V (V) @ t=0
0.011006797262071042
% es.normE (V/m) @ t=0.02
1.9013030849966586
% es.EX (V/m) @ t=0.02
0.7577422025740843
% es.EY (V/m) @ t=0.02
0.20033324883528714
% es.EZ (V/m) @ t=0.02
-1.7306998978169208
% es.tEX (V/m) @ t=0.02
0.757742202574081
% es.tEY (V/m) @ t=0.02
0
% es.tEZ (V/m) @ t=0.02
-1.7306998978169261
% es.Ex (V/m) @ t=0.02
0.7577422025740843
% es.Ey (V/m) @ t=0.02
0.20033324883528714
% es.Ez (V/m) @ t=0.02
-1.7306998978169208
% es.tEx (V/m) @ t=0.02
0.757742202574081
% es.tEy (V/m) @ t=0.02
0
% es.tEz (V/m) @ t=0.02
-1.7306998978169261
% V (V) @ t=0.02
0.009506679867506078
% es.normE (V/m) @ t=0.04
1.9187927835057959
% es.EX (V/m) @ t=0.04
0.7647125190025397
% es.EY (V/m) @ t=0.04
0.20217607484482958
% es.EZ (V/m) @ t=0.04
-1.7466202520422112
% es.tEX (V/m) @ t=0.04
0.7647125190025399
% es.tEY (V/m) @ t=0.04
0
% es.tEZ (V/m) @ t=0.04
-1.7466202520422147
% es.Ex (V/m) @ t=0.04
0.7647125190025397
% es.Ey (V/m) @ t=0.04
0.20217607484482958
% es.Ez (V/m) @ t=0.04
-1.7466202520422112
% es.tEx (V/m) @ t=0.04
0.7647125190025399
% es.tEy (V/m) @ t=0.04
0
% es.tEz (V/m) @ t=0.04
-1.7466202520422147
% V (V) @ t=0.04
0.009594129822920572
% es.normE (V/m) @ t=0.06
1.9364209062488373
% es.EX (V/m) @ t=0.06
0.7717380000106953
% es.EY (V/m) @ t=0.06
0.20403348045677117
% es.EZ (V/m) @ t=0.06
-1.762666611361241
% es.tEX (V/m) @ t=0.06
0.771738000010699
% es.tEY (V/m) @ t=0.06
0
% es.tEZ (V/m) @ t=0.06
-1.7626666113612455
% es.Ex (V/m) @ t=0.06
0.7717380000106953
% es.Ey (V/m) @ t=0.06
0.20403348045677117
% es.Ez (V/m) @ t=0.06
-1.762666611361241
% es.tEx (V/m) @ t=0.06
0.771738000010699
% es.tEy (V/m) @ t=0.06
0
% es.tEz (V/m) @ t=0.06
-1.7626666113612455
% V (V) @ t=0.06
0.009682272098036642
% es.normE (V/m) @ t=0.08
1.9543625629199841
% es.EX (V/m) @ t=0.08
0.7788884361444268
% es.EY (V/m) @ t=0.08
0.20592392175950192
% es.EZ (V/m) @ t=0.08
-1.7789983714188145
% es.tEX (V/m) @ t=0.08
0.7788884361444235
% es.tEY (V/m) @ t=0.08
0
% es.tEZ (V/m) @ t=0.08
-1.778998371418819
% es.Ex (V/m) @ t=0.08
0.7788884361444268
% es.Ey (V/m) @ t=0.08
0.20592392175950192
% es.Ez (V/m) @ t=0.08
-1.7789983714188145
% es.tEx (V/m) @ t=0.08
0.7788884361444235
% es.tEy (V/m) @ t=0.08
0
% es.tEz (V/m) @ t=0.08
-1.778998371418819
% V (V) @ t=0.08
0.009771982080086542
% es.normE (V/m) @ t=0.1
1.9724296661427734
% es.EX (V/m) @ t=0.1
0.7860888674722941
% es.EY (V/m) @ t=0.1
0.20782758081356967
% es.EZ (V/m) @ t=0.1
-1.7954443217929077
% es.tEX (V/m) @ t=0.1
0.7860888674722943
% es.tEY (V/m) @ t=0.1
0
% es.tEZ (V/m) @ t=0.1
-1.7954443217929104
% es.Ex (V/m) @ t=0.1
0.7860888674722941
% es.Ey (V/m) @ t=0.1
0.20782758081356967
% es.Ez (V/m) @ t=0.1
-1.7954443217929077
% es.tEx (V/m) @ t=0.1
0.7860888674722943
% es.tEy (V/m) @ t=0.1
0
% es.tEz (V/m) @ t=0.1
-1.7954443217929104
% V (V) @ t=0.1
0.009862319309816035
% es.normE (V/m) @ t=0.12
1.9904967693655753
% es.EX (V/m) @ t=0.12
0.7932892988001827
% es.EY (V/m) @ t=0.12
0.20973123986764186
% es.EZ (V/m) @ t=0.12
-1.8118902721670045
% es.tEX (V/m) @ t=0.12
0.7932892988001865
% es.tEY (V/m) @ t=0.12
0
% es.tEZ (V/m) @ t=0.12
-1.811890272167009
% es.Ex (V/m) @ t=0.12
0.7932892988001827
% es.Ey (V/m) @ t=0.12
0.20973123986764186
% es.Ez (V/m) @ t=0.12
-1.8118902721670045
% es.tEx (V/m) @ t=0.12
0.7932892988001865
% es.tEy (V/m) @ t=0.12
0
% es.tEz (V/m) @ t=0.12
-1.811890272167009
% V (V) @ t=0.12
0.009952656539545524
% es.normE (V/m) @ t=0.14
2.0089698864451786
% es.EX (V/m) @ t=0.14
0.8006515544477781
% es.EY (V/m) @ t=0.14
0.21167770452084422
% es.EZ (V/m) @ t=0.14
-1.8287057978052745
% es.tEX (V/m) @ t=0.14
0.8006515544477786
% es.tEY (V/m) @ t=0.14
0
% es.tEZ (V/m) @ t=0.14
-1.828705797805279
% es.Ex (V/m) @ t=0.14
0.8006515544477781
% es.Ey (V/m) @ t=0.14
0.21167770452084422
% es.Ez (V/m) @ t=0.14
-1.8287057978052745
% es.tEx (V/m) @ t=0.14
0.8006515544477786
% es.tEy (V/m) @ t=0.14
0
% es.tEz (V/m) @ t=0.14
-1.828705797805279
% V (V) @ t=0.14
0.010045023049049017
% es.normE (V/m) @ t=0.16
2.027963830209132
% es.EX (V/m) @ t=0.16
0.8082213951875237
% es.EY (V/m) @ t=0.16
0.21367907936473252
% es.EZ (V/m) @ t=0.16
-1.8459954074094673
% es.tEX (V/m) @ t=0.16
0.8082213951875206
% es.tEY (V/m) @ t=0.16
0
% es.tEZ (V/m) @ t=0.16
-1.8459954074094664
% es.Ex (V/m) @ t=0.16
0.8082213951875237
% es.Ey (V/m) @ t=0.16
0.21367907936473252
% es.Ez (V/m) @ t=0.16
-1.8459954074094673
% es.tEx (V/m) @ t=0.16
0.8082213951875206
% es.tEy (V/m) @ t=0.16
0
% es.tEz (V/m) @ t=0.16
-1.8459954074094664
% V (V) @ t=0.16
0.010139992679206077
% es.normE (V/m) @ t=0.18
2.0469577739730953
% es.EX (V/m) @ t=0.18
0.8157912359272794
% es.EY (V/m) @ t=0.18
0.21568045420860127
% es.EZ (V/m) @ t=0.18
-1.8632850170136663
% es.tEX (V/m) @ t=0.18
0.8157912359272763
% es.tEY (V/m) @ t=0.18
0
% es.tEZ (V/m) @ t=0.18
-1.8632850170136734
% es.Ex (V/m) @ t=0.18
0.8157912359272794
% es.Ey (V/m) @ t=0.18
0.21568045420860127
% es.Ez (V/m) @ t=0.18
-1.8632850170136663
% es.tEx (V/m) @ t=0.18
0.8157912359272763
% es.tEy (V/m) @ t=0.18
0
% es.tEz (V/m) @ t=0.18
-1.8632850170136734
% V (V) @ t=0.18
0.010234962309363143
% es.normE (V/m) @ t=0.2
2.0659517177370503
% es.EX (V/m) @ t=0.2
0.8233610766670207
% es.EY (V/m) @ t=0.2
0.21768182905247002
% es.EZ (V/m) @ t=0.2
-1.8805746266178582
% es.tEX (V/m) @ t=0.2
0.8233610766670174
% es.tEY (V/m) @ t=0.2
0
% es.tEZ (V/m) @ t=0.2
-1.880574626617861
% es.Ex (V/m) @ t=0.2
0.8233610766670207
% es.Ey (V/m) @ t=0.2
0.21768182905247002
% es.Ez (V/m) @ t=0.2
-1.8805746266178582
% es.tEx (V/m) @ t=0.2
0.8233610766670174
% es.tEy (V/m) @ t=0.2
0
% es.tEz (V/m) @ t=0.2
-1.880574626617861
% V (V) @ t=0.2
0.010329931939520203
% es.normE (V/m) @ t=0.22
2.08494566150101
% es.EX (V/m) @ t=0.22
0.8309309174067729
% es.EY (V/m) @ t=0.22
0.21968320389633345
% es.EZ (V/m) @ t=0.22
-1.8978642362220475
% es.tEX (V/m) @ t=0.22
0.8309309174067732
% es.tEY (V/m) @ t=0.22
0
% es.tEZ (V/m) @ t=0.22
-1.8978642362220572
% es.Ex (V/m) @ t=0.22
0.8309309174067729
% es.Ey (V/m) @ t=0.22
0.21968320389633345
% es.Ez (V/m) @ t=0.22
-1.8978642362220475
% es.tEx (V/m) @ t=0.22
0.8309309174067732
% es.tEy (V/m) @ t=0.22
0
% es.tEz (V/m) @ t=0.22
-1.8978642362220572
% V (V) @ t=0.22
0.010424901569677267
% es.normE (V/m) @ t=0.24
2.103939605264978
% es.EX (V/m) @ t=0.24
0.838500758146522
% es.EY (V/m) @ t=0.24
0.22168457874021108
% es.EZ (V/m) @ t=0.24
-1.915153845826242
% es.tEX (V/m) @ t=0.24
0.8385007581465223
% es.tEY (V/m) @ t=0.24
0
% es.tEZ (V/m) @ t=0.24
-1.9151538458262554
% es.Ex (V/m) @ t=0.24
0.838500758146522
% es.Ey (V/m) @ t=0.24
0.22168457874021108
% es.Ez (V/m) @ t=0.24
-1.915153845826242
% es.tEx (V/m) @ t=0.24
0.8385007581465223
% es.tEy (V/m) @ t=0.24
0
% es.tEz (V/m) @ t=0.24
-1.9151538458262554
% V (V) @ t=0.24
0.010519871199834331
% es.normE (V/m) @ t=0.26
2.1229335490289545
% es.EX (V/m) @ t=0.26
0.8460705988862631
% es.EY (V/m) @ t=0.26
0.2236859535840825
% es.EZ (V/m) @ t=0.26
-1.9324434554304473
% es.tEX (V/m) @ t=0.26
0.8460705988862633
% es.tEY (V/m) @ t=0.26
0
% es.tEZ (V/m) @ t=0.26
-1.9324434554304446
% es.Ex (V/m) @ t=0.26
0.8460705988862631
% es.Ey (V/m) @ t=0.26
0.2236859535840825
% es.Ez (V/m) @ t=0.26
-1.9324434554304473
% es.tEx (V/m) @ t=0.26
0.8460705988862633
% es.tEy (V/m) @ t=0.26
0
% es.tEz (V/m) @ t=0.26
-1.9324434554304446
% V (V) @ t=0.26
0.010614840829991395
% es.normE (V/m) @ t=0.28
2.1437652234792957
% es.EX (V/m) @ t=0.28
0.8543730226743533
% es.EY (V/m) @ t=0.28
0.22588132928380666
% es.EZ (V/m) @ t=0.28
-1.9514057939053124
% es.tEX (V/m) @ t=0.28
0.8543730226743502
% es.tEY (V/m) @ t=0.28
0
% es.tEZ (V/m) @ t=0.28
-1.951405793905316
% es.Ex (V/m) @ t=0.28
0.8543730226743533
% es.Ey (V/m) @ t=0.28
0.22588132928380666
% es.Ez (V/m) @ t=0.28
-1.9514057939053124
% es.tEx (V/m) @ t=0.28
0.8543730226743502
% es.tEy (V/m) @ t=0.28
0
% es.tEz (V/m) @ t=0.28
-1.951405793905316
% V (V) @ t=0.28
0.010718987359296543
% es.normE (V/m) @ t=0.3
2.1648340048475374
% es.EX (V/m) @ t=0.3
0.8627699654851784
% es.EY (V/m) @ t=0.3
0.2281017352805641
% es.EZ (V/m) @ t=0.3
-1.9705839505028004
% es.tEX (V/m) @ t=0.3
0.8627699654851786
% es.tEY (V/m) @ t=0.3
0
% es.tEZ (V/m) @ t=0.3
-1.9705839505028084
% es.Ex (V/m) @ t=0.3
0.8627699654851784
% es.Ey (V/m) @ t=0.3
0.2281017352805641
% es.Ez (V/m) @ t=0.3
-1.9705839505028004
% es.tEx (V/m) @ t=0.3
0.8627699654851786
% es.tEy (V/m) @ t=0.3
0
% es.tEz (V/m) @ t=0.3
-1.9705839505028084
% V (V) @ t=0.3
0.010824317906633721
% es.normE (V/m) @ t=0.32
2.185902786215995
% es.EX (V/m) @ t=0.32
0.8711669082959717
% es.EY (V/m) @ t=0.32
0.23032214127735617
% es.EZ (V/m) @ t=0.32
-1.9897621071002716
% es.tEX (V/m) @ t=0.32
0.8711669082959719
% es.tEY (V/m) @ t=0.32
0
% es.tEZ (V/m) @ t=0.32
-1.9897621071002813
% es.Ex (V/m) @ t=0.32
0.8711669082959717
% es.Ey (V/m) @ t=0.32
0.23032214127735617
% es.Ez (V/m) @ t=0.32
-1.9897621071002716
% es.tEx (V/m) @ t=0.32
0.8711669082959719
% es.tEy (V/m) @ t=0.32
0
% es.tEz (V/m) @ t=0.32
-1.9897621071002813
% V (V) @ t=0.32
0.010929648453970901
% es.normE (V/m) @ t=0.34
2.206971567584716
% es.EX (V/m) @ t=0.34
0.8795638511067903
% es.EY (V/m) @ t=0.34
0.23254254727411006
% es.EZ (V/m) @ t=0.34
-2.0089402636977685
% es.tEX (V/m) @ t=0.34
0.8795638511067869
% es.tEY (V/m) @ t=0.34
0
% es.tEZ (V/m) @ t=0.34
-2.0089402636977756
% es.Ex (V/m) @ t=0.34
0.8795638511067903
% es.Ey (V/m) @ t=0.34
0.23254254727411006
% es.Ez (V/m) @ t=0.34
-2.0089402636977685
% es.tEx (V/m) @ t=0.34
0.8795638511067869
% es.tEy (V/m) @ t=0.34
0
% es.tEz (V/m) @ t=0.34
-2.0089402636977756
% V (V) @ t=0.34
0.011034979001308079
% es.normE (V/m) @ t=0.36
2.2280403489536544
% es.EX (V/m) @ t=0.36
0.8879607939175986
% es.EY (V/m) @ t=0.36
0.23476295327087904
% es.EZ (V/m) @ t=0.36
-2.0281184202952582
% es.tEX (V/m) @ t=0.36
0.8879607939175953
% es.tEY (V/m) @ t=0.36
0
% es.tEZ (V/m) @ t=0.36
-2.02811842029527
% es.Ex (V/m) @ t=0.36
0.8879607939175986
% es.Ey (V/m) @ t=0.36
0.23476295327087904
% es.Ez (V/m) @ t=0.36
-2.0281184202952582
% es.tEx (V/m) @ t=0.36
0.8879607939175953
% es.tEy (V/m) @ t=0.36
0
% es.tEz (V/m) @ t=0.36
-2.02811842029527
% V (V) @ t=0.36
0.011140309548645255
% es.normE (V/m) @ t=0.38
2.249109130322821
% es.EX (V/m) @ t=0.38
0.8963577367284168
% es.EY (V/m) @ t=0.38
0.23698335926763647
% es.EZ (V/m) @ t=0.38
-2.0472965768927542
% es.tEX (V/m) @ t=0.38
0.896357736728417
% es.tEY (V/m) @ t=0.38
0
% es.tEZ (V/m) @ t=0.38
-2.0472965768927605
% es.Ex (V/m) @ t=0.38
0.8963577367284168
% es.Ey (V/m) @ t=0.38
0.23698335926763647
% es.Ez (V/m) @ t=0.38
-2.0472965768927542
% es.tEx (V/m) @ t=0.38
0.896357736728417
% es.tEy (V/m) @ t=0.38
0
% es.tEz (V/m) @ t=0.38
-2.0472965768927605
% V (V) @ t=0.38
0.011245640095982433
% es.normE (V/m) @ t=0.4
2.2701779116921994
% es.EX (V/m) @ t=0.4
0.9047546795392387
% es.EY (V/m) @ t=0.4
0.23920376526438503
% es.EZ (V/m) @ t=0.4
-2.0664747334902467
% es.tEX (V/m) @ t=0.4
0.9047546795392392
% es.tEY (V/m) @ t=0.4
0
% es.tEZ (V/m) @ t=0.4
-2.0664747334902493
% es.Ex (V/m) @ t=0.4
0.9047546795392387
% es.Ey (V/m) @ t=0.4
0.23920376526438503
% es.Ez (V/m) @ t=0.4
-2.0664747334902467
% es.tEx (V/m) @ t=0.4
0.9047546795392392
% es.tEy (V/m) @ t=0.4
0
% es.tEz (V/m) @ t=0.4
-2.0664747334902493
% V (V) @ t=0.4
0.011350970643319613
% es.normE (V/m) @ t=0.42
2.2912466930617787
% es.EX (V/m) @ t=0.42
0.9131516223500538
% es.EY (V/m) @ t=0.42
0.24142417126114957
% es.EZ (V/m) @ t=0.42
-2.085652890087732
% es.tEX (V/m) @ t=0.42
0.9131516223500542
% es.tEY (V/m) @ t=0.42
0
% es.tEZ (V/m) @ t=0.42
-2.0856528900877382
% es.Ex (V/m) @ t=0.42
0.9131516223500538
% es.Ey (V/m) @ t=0.42
0.24142417126114957
% es.Ez (V/m) @ t=0.42
-2.085652890087732
% es.tEx (V/m) @ t=0.42
0.9131516223500542
% es.tEy (V/m) @ t=0.42
0
% es.tEz (V/m) @ t=0.42
-2.0856528900877382
% V (V) @ t=0.42
0.01145630119065679
% es.normE (V/m) @ t=0.44
2.3123154744315615
% es.EX (V/m) @ t=0.44
0.9215485651608688
% es.EY (V/m) @ t=0.44
0.24364457725791944
% es.EZ (V/m) @ t=0.44
-2.1048310466852183
% es.tEX (V/m) @ t=0.44
0.9215485651608692
% es.tEY (V/m) @ t=0.44
0
% es.tEZ (V/m) @ t=0.44
-2.104831046685222
% es.Ex (V/m) @ t=0.44
0.9215485651608688
% es.Ey (V/m) @ t=0.44
0.24364457725791944
% es.Ez (V/m) @ t=0.44
-2.1048310466852183
% es.tEx (V/m) @ t=0.44
0.9215485651608692
% es.tEy (V/m) @ t=0.44
0
% es.tEz (V/m) @ t=0.44
-2.104831046685222
% V (V) @ t=0.44
0.011561631737993967
% es.normE (V/m) @ t=0.46
2.3333842558015374
% es.EX (V/m) @ t=0.46
0.9299455079716727
% es.EY (V/m) @ t=0.46
0.24586498325468042
% es.EZ (V/m) @ t=0.46
-2.1240092032827054
% es.tEX (V/m) @ t=0.46
0.9299455079716696
% es.tEY (V/m) @ t=0.46
0
% es.tEZ (V/m) @ t=0.46
-2.124009203282709
% es.Ex (V/m) @ t=0.46
0.9299455079716727
% es.Ey (V/m) @ t=0.46
0.24586498325468042
% es.Ez (V/m) @ t=0.46
-2.1240092032827054
% es.tEx (V/m) @ t=0.46
0.9299455079716696
% es.tEy (V/m) @ t=0.46
0
% es.tEz (V/m) @ t=0.46
-2.124009203282709
% V (V) @ t=0.46
0.011666962285331147
% es.normE (V/m) @ t=0.48
2.354453037171708
% es.EX (V/m) @ t=0.48
0.9383424507824918
% es.EY (V/m) @ t=0.48
0.24808538925145118
% es.EZ (V/m) @ t=0.48
-2.143187359880189
% es.tEX (V/m) @ t=0.48
0.9383424507824922
% es.tEY (V/m) @ t=0.48
0
% es.tEZ (V/m) @ t=0.48
-2.1431873598801925
% es.Ex (V/m) @ t=0.48
0.9383424507824918
% es.Ey (V/m) @ t=0.48
0.24808538925145118
% es.Ez (V/m) @ t=0.48
-2.143187359880189
% es.tEx (V/m) @ t=0.48
0.9383424507824922
% es.tEy (V/m) @ t=0.48
0
% es.tEz (V/m) @ t=0.48
-2.1431873598801925
% V (V) @ t=0.48
0.011772292832668327
% es.normE (V/m) @ t=0.5
2.3755218185420657
% es.EX (V/m) @ t=0.5
0.9467393935933064
% es.EY (V/m) @ t=0.5
0.2503057952482113
% es.EZ (V/m) @ t=0.5
-2.162365516477676
% es.tEX (V/m) @ t=0.5
0.9467393935933068
% es.tEY (V/m) @ t=0.5
0
% es.tEZ (V/m) @ t=0.5
-2.1623655164776867
% es.Ex (V/m) @ t=0.5
0.9467393935933064
% es.Ey (V/m) @ t=0.5
0.2503057952482113
% es.Ez (V/m) @ t=0.5
-2.162365516477676
% es.tEx (V/m) @ t=0.5
0.9467393935933068
% es.tEy (V/m) @ t=0.5
0
% es.tEz (V/m) @ t=0.5
-2.1623655164776867
% V (V) @ t=0.5
0.011877623380005503
% es.normE (V/m) @ t=0.52
2.3965905999126043
% es.EX (V/m) @ t=0.52
0.9551363364041141
% es.EY (V/m) @ t=0.52
0.2525262012449776
% es.EZ (V/m) @ t=0.52
-2.1815436730751623
% es.tEX (V/m) @ t=0.52
0.9551363364041143
% es.tEY (V/m) @ t=0.52
0
% es.tEZ (V/m) @ t=0.52
-2.1815436730751685
% es.Ex (V/m) @ t=0.52
0.9551363364041141
% es.Ey (V/m) @ t=0.52
0.2525262012449776
% es.Ez (V/m) @ t=0.52
-2.1815436730751623
% es.tEx (V/m) @ t=0.52
0.9551363364041143
% es.tEy (V/m) @ t=0.52
0
% es.tEz (V/m) @ t=0.52
-2.1815436730751685
% V (V) @ t=0.52
0.011982953927342683
% es.normE (V/m) @ t=0.54
2.419487531848067
% es.EX (V/m) @ t=0.54
0.964261340687874
% es.EY (V/m) @ t=0.54
0.2549381328883866
% es.EZ (V/m) @ t=0.54
-2.202386248351713
% es.tEX (V/m) @ t=0.54
0.9642613406878744
% es.tEY (V/m) @ t=0.54
0
% es.tEZ (V/m) @ t=0.54
-2.202386248351715
% es.Ex (V/m) @ t=0.54
0.964261340687874
% es.Ey (V/m) @ t=0.54
0.2549381328883866
% es.Ez (V/m) @ t=0.54
-2.202386248351713
% es.tEx (V/m) @ t=0.54
0.9642613406878744
% es.tEy (V/m) @ t=0.54
0
% es.tEz (V/m) @ t=0.54
-2.202386248351715
% V (V) @ t=0.54
0.012097460971363098
% es.normE (V/m) @ t=0.56
2.442896964688912
% es.EX (V/m) @ t=0.56
0.9735904485999405
% es.EY (V/m) @ t=0.56
0.25740375653561465
% es.EZ (V/m) @ t=0.56
-2.2236954241888895
% es.tEX (V/m) @ t=0.56
0.9735904485999409
% es.tEY (V/m) @ t=0.56
0
% es.tEZ (V/m) @ t=0.56
-2.223695424188893
% es.Ex (V/m) @ t=0.56
0.9735904485999405
% es.Ey (V/m) @ t=0.56
0.25740375653561465
% es.Ez (V/m) @ t=0.56
-2.2236954241888895
% es.tEx (V/m) @ t=0.56
0.9735904485999409
% es.tEy (V/m) @ t=0.56
0
% es.tEz (V/m) @ t=0.56
-2.223695424188893
% V (V) @ t=0.56
0.012214540540284168
% es.normE (V/m) @ t=0.58
2.4663063975307637
% es.EX (V/m) @ t=0.58
0.982919556512035
% es.EY (V/m) @ t=0.58
0.259869380182848
% es.EZ (V/m) @ t=0.58
-2.245004600026064
% es.tEX (V/m) @ t=0.58
0.9829195565120283
% es.tEY (V/m) @ t=0.58
0
% es.tEZ (V/m) @ t=0.58
-2.2450046000260713
% es.Ex (V/m) @ t=0.58
0.982919556512035
% es.Ey (V/m) @ t=0.58
0.259869380182848
% es.Ez (V/m) @ t=0.58
-2.245004600026064
% es.tEx (V/m) @ t=0.58
0.9829195565120283
% es.tEy (V/m) @ t=0.58
0
% es.tEz (V/m) @ t=0.58
-2.2450046000260713
% V (V) @ t=0.58
0.012331620109205242
% es.normE (V/m) @ t=0.6
2.4897158303735614
% es.EX (V/m) @ t=0.6
0.9922486644240869
% es.EY (V/m) @ t=0.6
0.2623350038301009
% es.EZ (V/m) @ t=0.6
-2.26631377586323
% es.tEX (V/m) @ t=0.6
0.9922486644240873
% es.tEY (V/m) @ t=0.6
0
% es.tEZ (V/m) @ t=0.6
-2.266313775863228
% es.Ex (V/m) @ t=0.6
0.9922486644240869
% es.Ey (V/m) @ t=0.6
0.2623350038301009
% es.Ez (V/m) @ t=0.6
-2.26631377586323
% es.tEx (V/m) @ t=0.6
0.9922486644240873
% es.tEy (V/m) @ t=0.6
0
% es.tEz (V/m) @ t=0.6
-2.266313775863228
% V (V) @ t=0.6
0.012448699678126316
% es.normE (V/m) @ t=0.62
2.513125263217324
% es.EX (V/m) @ t=0.62
1.001577772336168
% es.EY (V/m) @ t=0.62
0.26480062747732536
% es.EZ (V/m) @ t=0.62
-2.2876229517004116
% es.tEX (V/m) @ t=0.62
1.0015777723361685
% es.tEY (V/m) @ t=0.62
0
% es.tEZ (V/m) @ t=0.62
-2.28762295170041
% es.Ex (V/m) @ t=0.62
1.001577772336168
% es.Ey (V/m) @ t=0.62
0.26480062747732536
% es.Ez (V/m) @ t=0.62
-2.2876229517004116
% es.tEx (V/m) @ t=0.62
1.0015777723361685
% es.tEy (V/m) @ t=0.62
0
% es.tEz (V/m) @ t=0.62
-2.28762295170041
% V (V) @ t=0.62
0.012565779247047387
% es.normE (V/m) @ t=0.64
2.536534696061989
% es.EX (V/m) @ t=0.64
1.0109068802482484
% es.EY (V/m) @ t=0.64
0.26726625112458624
% es.EZ (V/m) @ t=0.64
-2.3089321275375756
% es.tEX (V/m) @ t=0.64
1.0109068802482488
% es.tEY (V/m) @ t=0.64
0
% es.tEZ (V/m) @ t=0.64
-2.308932127537581
% es.Ex (V/m) @ t=0.64
1.0109068802482484
% es.Ey (V/m) @ t=0.64
0.26726625112458624
% es.Ez (V/m) @ t=0.64
-2.3089321275375756
% es.tEx (V/m) @ t=0.64
1.0109068802482488
% es.tEy (V/m) @ t=0.64
0
% es.tEz (V/m) @ t=0.64
-2.308932127537581
% V (V) @ t=0.64
0.012682858815968461
% es.normE (V/m) @ t=0.66
2.55994412890756
% es.EX (V/m) @ t=0.66
1.0202359881603296
% es.EY (V/m) @ t=0.66
0.2697318747718356
% es.EZ (V/m) @ t=0.66
-2.3302413033747573
% es.tEX (V/m) @ t=0.66
1.02023598816033
% es.tEY (V/m) @ t=0.66
0
% es.tEZ (V/m) @ t=0.66
-2.3302413033747555
% es.Ex (V/m) @ t=0.66
1.0202359881603296
% es.Ey (V/m) @ t=0.66
0.2697318747718356
% es.Ez (V/m) @ t=0.66
-2.3302413033747573
% es.tEx (V/m) @ t=0.66
1.02023598816033
% es.tEy (V/m) @ t=0.66
0
% es.tEz (V/m) @ t=0.66
-2.3302413033747555
% V (V) @ t=0.66
0.012799938384889534
% es.normE (V/m) @ t=0.68
2.5833535617539907
% es.EX (V/m) @ t=0.68
1.0295650960724099
% es.EY (V/m) @ t=0.68
0.2721974984190654
% es.EZ (V/m) @ t=0.68
-2.3515504792119355
% es.tEX (V/m) @ t=0.68
1.0295650960724103
% es.tEY (V/m) @ t=0.68
0
% es.tEZ (V/m) @ t=0.68
-2.3515504792119373
% es.Ex (V/m) @ t=0.68
1.0295650960724099
% es.Ey (V/m) @ t=0.68
0.2721974984190654
% es.Ez (V/m) @ t=0.68
-2.3515504792119355
% es.tEx (V/m) @ t=0.68
1.0295650960724103
% es.tEy (V/m) @ t=0.68
0
% es.tEz (V/m) @ t=0.68
-2.3515504792119373
% V (V) @ t=0.68
0.012917017953810606
% es.normE (V/m) @ t=0.7
2.6067629946012687
% es.EX (V/m) @ t=0.7
1.0388942039844973
% es.EY (V/m) @ t=0.7
0.2746631220663005
% es.EZ (V/m) @ t=0.7
-2.3728596550491137
% es.tEX (V/m) @ t=0.7
1.0388942039844906
% es.tEY (V/m) @ t=0.7
0
% es.tEZ (V/m) @ t=0.7
-2.372859655049126
% es.Ex (V/m) @ t=0.7
1.0388942039844973
% es.Ey (V/m) @ t=0.7
0.2746631220663005
% es.Ez (V/m) @ t=0.7
-2.3728596550491137
% es.tEx (V/m) @ t=0.7
1.0388942039844906
% es.tEy (V/m) @ t=0.7
0
% es.tEz (V/m) @ t=0.7
-2.372859655049126
% V (V) @ t=0.7
0.01303409752273168
% es.normE (V/m) @ t=0.72
2.630172427449361
% es.EX (V/m) @ t=0.72
1.0482233118965714
% es.EY (V/m) @ t=0.72
0.2771287457135312
% es.EZ (V/m) @ t=0.72
-2.394168830886292
% es.tEX (V/m) @ t=0.72
1.0482233118965718
% es.tEY (V/m) @ t=0.72
0
% es.tEZ (V/m) @ t=0.72
-2.3941688308862936
% es.Ex (V/m) @ t=0.72
1.0482233118965714
% es.Ey (V/m) @ t=0.72
0.2771287457135312
% es.Ez (V/m) @ t=0.72
-2.394168830886292
% es.tEx (V/m) @ t=0.72
1.0482233118965718
% es.tEy (V/m) @ t=0.72
0
% es.tEz (V/m) @ t=0.72
-2.3941688308862936
% V (V) @ t=0.72
0.013151177091652751
% es.normE (V/m) @ t=0.74
2.6535818602982433
% es.EX (V/m) @ t=0.74
1.0575524198086375
% es.EY (V/m) @ t=0.74
0.2795943693607663
% es.EZ (V/m) @ t=0.74
-2.415478006723463
% es.tEX (V/m) @ t=0.74
1.057552419808638
% es.tEY (V/m) @ t=0.74
0
% es.tEZ (V/m) @ t=0.74
-2.4154780067234682
% es.Ex (V/m) @ t=0.74
1.0575524198086375
% es.Ey (V/m) @ t=0.74
0.2795943693607663
% es.Ez (V/m) @ t=0.74
-2.415478006723463
% es.tEx (V/m) @ t=0.74
1.057552419808638
% es.tEy (V/m) @ t=0.74
0
% es.tEz (V/m) @ t=0.74
-2.4154780067234682
% V (V) @ t=0.74
0.013268256660573826
% es.normE (V/m) @ t=0.76
2.67699129314791
% es.EX (V/m) @ t=0.76
1.0668815277207044
% es.EY (V/m) @ t=0.76
0.2820599930080121
% es.EZ (V/m) @ t=0.76
-2.436787182560641
% es.tEX (V/m) @ t=0.76
1.0668815277207049
% es.tEY (V/m) @ t=0.76
0
% es.tEZ (V/m) @ t=0.76
-2.43678718256065
% es.Ex (V/m) @ t=0.76
1.0668815277207044
% es.Ey (V/m) @ t=0.76
0.2820599930080121
% es.Ez (V/m) @ t=0.76
-2.436787182560641
% es.tEx (V/m) @ t=0.76
1.0668815277207049
% es.tEy (V/m) @ t=0.76
0
% es.tEz (V/m) @ t=0.76
-2.43678718256065
% V (V) @ t=0.76
0.013385336229494896
% es.normE (V/m) @ t=0.78
2.7004007259983416
% es.EX (V/m) @ t=0.78
1.076210635632798
% es.EY (V/m) @ t=0.78
0.2845256166552481
% es.EZ (V/m) @ t=0.78
-2.4580963583978157
% es.tEX (V/m) @ t=0.78
1.0762106356327985
% es.tEY (V/m) @ t=0.78
0
% es.tEZ (V/m) @ t=0.78
-2.4580963583978175
% es.Ex (V/m) @ t=0.78
1.076210635632798
% es.Ey (V/m) @ t=0.78
0.2845256166552481
% es.Ez (V/m) @ t=0.78
-2.4580963583978157
% es.tEx (V/m) @ t=0.78
1.0762106356327985
% es.tEy (V/m) @ t=0.78
0
% es.tEz (V/m) @ t=0.78
-2.4580963583978175
% V (V) @ t=0.78
0.01350241579841597
% es.normE (V/m) @ t=0.8
2.7255980199396124
% es.EX (V/m) @ t=0.8
1.086253452321826
% es.EY (V/m) @ t=0.8
0.2871820879831297
% es.EZ (V/m) @ t=0.8
-2.481032283372306
% es.tEX (V/m) @ t=0.8
1.0862534523218264
% es.tEY (V/m) @ t=0.8
0
% es.tEZ (V/m) @ t=0.8
-2.4810322833723077
% es.Ex (V/m) @ t=0.8
1.086253452321826
% es.Ey (V/m) @ t=0.8
0.2871820879831297
% es.Ez (V/m) @ t=0.8
-2.481032283372306
% es.tEx (V/m) @ t=0.8
1.0862534523218264
% es.tEy (V/m) @ t=0.8
0
% es.tEz (V/m) @ t=0.8
-2.4810322833723077
% V (V) @ t=0.8
0.01362835516331307
% es.normE (V/m) @ t=0.82
2.7516507932355525
% es.EX (V/m) @ t=0.82
1.0966377737973034
% es.EY (V/m) @ t=0.82
0.2899298786256743
% es.EZ (V/m) @ t=0.82
-2.5047465967240026
% es.tEX (V/m) @ t=0.82
1.0966377737973039
% es.tEY (V/m) @ t=0.82
0
% es.tEZ (V/m) @ t=0.82
-2.5047465967240043
% es.Ex (V/m) @ t=0.82
1.0966377737973034
% es.Ey (V/m) @ t=0.82
0.2899298786256743
% es.Ez (V/m) @ t=0.82
-2.5047465967240026
% es.tEx (V/m) @ t=0.82
1.0966377737973039
% es.tEy (V/m) @ t=0.82
0
% es.tEz (V/m) @ t=0.82
-2.5047465967240043
% V (V) @ t=0.82
0.013758533880212262
% es.normE (V/m) @ t=0.84
2.7777035665382024
% es.EX (V/m) @ t=0.84
1.1070220952727667
% es.EY (V/m) @ t=0.84
0.29267766926824024
% es.EZ (V/m) @ t=0.84
-2.5284609100756956
% es.tEX (V/m) @ t=0.84
1.1070220952727672
% es.tEY (V/m) @ t=0.84
0
% es.tEZ (V/m) @ t=0.84
-2.528460910075701
% es.Ex (V/m) @ t=0.84
1.1070220952727667
% es.Ey (V/m) @ t=0.84
0.29267766926824024
% es.Ez (V/m) @ t=0.84
-2.5284609100756956
% es.tEx (V/m) @ t=0.84
1.1070220952727672
% es.tEy (V/m) @ t=0.84
0
% es.tEz (V/m) @ t=0.84
-2.528460910075701
% V (V) @ t=0.84
0.013888712597111455
% es.normE (V/m) @ t=0.86
2.803756339847402
% es.EX (V/m) @ t=0.86
1.1174064167482372
% es.EY (V/m) @ t=0.86
0.29542545991080527
% es.EZ (V/m) @ t=0.86
-2.55217522342741
% es.tEX (V/m) @ t=0.86
1.1174064167482305
% es.tEY (V/m) @ t=0.86
0
% es.tEZ (V/m) @ t=0.86
-2.5521752234274118
% es.Ex (V/m) @ t=0.86
1.1174064167482372
% es.Ey (V/m) @ t=0.86
0.29542545991080527
% es.Ez (V/m) @ t=0.86
-2.55217522342741
% es.tEx (V/m) @ t=0.86
1.1174064167482305
% es.tEy (V/m) @ t=0.86
0
% es.tEz (V/m) @ t=0.86
-2.5521752234274118
% V (V) @ t=0.86
0.01401889131401065
% es.normE (V/m) @ t=0.88
2.8298091131629475
% es.EX (V/m) @ t=0.88
1.1277907382237076
% es.EY (V/m) @ t=0.88
0.29817325055336674
% es.EZ (V/m) @ t=0.88
-2.575889536779121
% es.tEX (V/m) @ t=0.88
1.127790738223708
% es.tEY (V/m) @ t=0.88
0
% es.tEZ (V/m) @ t=0.88
-2.575889536779126
% es.Ex (V/m) @ t=0.88
1.1277907382237076
% es.Ey (V/m) @ t=0.88
0.29817325055336674
% es.Ez (V/m) @ t=0.88
-2.575889536779121
% es.tEx (V/m) @ t=0.88
1.127790738223708
% es.tEy (V/m) @ t=0.88
0
% es.tEz (V/m) @ t=0.88
-2.575889536779126
% V (V) @ t=0.88
0.014149070030909846
% es.normE (V/m) @ t=0.9
2.8558618864846492
% es.EX (V/m) @ t=0.9
1.1381750596991567
% es.EY (V/m) @ t=0.9
0.3009210411959291
% es.EZ (V/m) @ t=0.9
-2.599603850130821
% es.tEX (V/m) @ t=0.9
1.138175059699157
% es.tEY (V/m) @ t=0.9
0
% es.tEZ (V/m) @ t=0.9
-2.5996038501308227
% es.Ex (V/m) @ t=0.9
1.1381750596991567
% es.Ey (V/m) @ t=0.9
0.3009210411959291
% es.Ez (V/m) @ t=0.9
-2.599603850130821
% es.tEx (V/m) @ t=0.9
1.138175059699157
% es.tEy (V/m) @ t=0.9
0
% es.tEz (V/m) @ t=0.9
-2.5996038501308227
% V (V) @ t=0.9
0.014279248747809038
% es.normE (V/m) @ t=0.92
2.881914659812363
% es.EX (V/m) @ t=0.92
1.14855938117462
% es.EY (V/m) @ t=0.92
0.30366883183849946
% es.EZ (V/m) @ t=0.92
-2.6233181634825176
% es.tEX (V/m) @ t=0.92
1.1485593811746204
% es.tEY (V/m) @ t=0.92
0
% es.tEZ (V/m) @ t=0.92
-2.6233181634825264
% es.Ex (V/m) @ t=0.92
1.14855938117462
% es.Ey (V/m) @ t=0.92
0.30366883183849946
% es.Ez (V/m) @ t=0.92
-2.6233181634825176
% es.tEx (V/m) @ t=0.92
1.1485593811746204
% es.tEy (V/m) @ t=0.92
0
% es.tEz (V/m) @ t=0.92
-2.6233181634825264
% V (V) @ t=0.92
0.014409427464708227
% es.normE (V/m) @ t=0.94
2.9079674331459335
% es.EX (V/m) @ t=0.94
1.1589437026500833
% es.EY (V/m) @ t=0.94
0.30641662248106183
% es.EZ (V/m) @ t=0.94
-2.6470324768342284
% es.tEX (V/m) @ t=0.94
1.1589437026500837
% es.tEY (V/m) @ t=0.94
0
% es.tEZ (V/m) @ t=0.94
-2.64703247683423
% es.Ex (V/m) @ t=0.94
1.1589437026500833
% es.Ey (V/m) @ t=0.94
0.30641662248106183
% es.Ez (V/m) @ t=0.94
-2.6470324768342284
% es.tEx (V/m) @ t=0.94
1.1589437026500837
% es.tEy (V/m) @ t=0.94
0
% es.tEz (V/m) @ t=0.94
-2.64703247683423
% V (V) @ t=0.94
0.014539606181607424
% es.normE (V/m) @ t=0.96
2.9340202064851937
% es.EX (V/m) @ t=0.96
1.1693280241255537
% es.EY (V/m) @ t=0.96
0.3091644131236233
% es.EZ (V/m) @ t=0.96
-2.6707467901859356
% es.tEX (V/m) @ t=0.96
1.1693280241255612
% es.tEY (V/m) @ t=0.96
0
% es.tEZ (V/m) @ t=0.96
-2.670746790185934
% es.Ex (V/m) @ t=0.96
1.1693280241255537
% es.Ey (V/m) @ t=0.96
0.3091644131236233
% es.Ez (V/m) @ t=0.96
-2.6707467901859356
% es.tEx (V/m) @ t=0.96
1.1693280241255612
% es.tEy (V/m) @ t=0.96
0
% es.tEz (V/m) @ t=0.96
-2.670746790185934
% V (V) @ t=0.96
0.014669784898506618
% es.normE (V/m) @ t=0.98
2.9600729798299774
% es.EX (V/m) @ t=0.98
1.179712345601009
% es.EY (V/m) @ t=0.98
0.3119122037661688
% es.EZ (V/m) @ t=0.98
-2.6944611035376322
% es.tEX (V/m) @ t=0.98
1.1797123456010095
% es.tEY (V/m) @ t=0.98
0
% es.tEZ (V/m) @ t=0.98
-2.6944611035376447
% es.Ex (V/m) @ t=0.98
1.179712345601009
% es.Ey (V/m) @ t=0.98
0.3119122037661688
% es.Ez (V/m) @ t=0.98
-2.6944611035376322
% es.tEx (V/m) @ t=0.98
1.1797123456010095
% es.tEy (V/m) @ t=0.98
0
% es.tEz (V/m) @ t=0.98
-2.6944611035376447
% V (V) @ t=0.98
0.014799963615405809
% es.normE (V/m) @ t=1
2.9861257531801693
% es.EX (V/m) @ t=1
1.1900966670764865
% es.EY (V/m) @ t=1
0.3146599944087347
% es.EZ (V/m) @ t=1
-2.7181754168893324
% es.tEX (V/m) @ t=1
1.190096667076487
% es.tEY (V/m) @ t=1
0
% es.tEZ (V/m) @ t=1
-2.7181754168893413
% es.Ex (V/m) @ t=1
1.1900966670764865
% es.Ey (V/m) @ t=1
0.3146599944087347
% es.Ez (V/m) @ t=1
-2.7181754168893324
% es.tEx (V/m) @ t=1
1.190096667076487
% es.tEy (V/m) @ t=1
0
% es.tEz (V/m) @ t=1
-2.7181754168893413
% V (V) @ t=1
0.014930142332305009
% es.normE (V/m) @ t=1.02
3.012178526535621
% es.EX (V/m) @ t=1.02
1.2004809885519498
% es.EY (V/m) @ t=1.02
0.31740778505130773
% es.EZ (V/m) @ t=1.02
-2.741889730241043
% es.tEX (V/m) @ t=1.02
1.2004809885519503
% es.tEY (V/m) @ t=1.02
0
% es.tEZ (V/m) @ t=1.02
-2.741889730241045
% es.Ex (V/m) @ t=1.02
1.2004809885519498
% es.Ey (V/m) @ t=1.02
0.31740778505130773
% es.Ez (V/m) @ t=1.02
-2.741889730241043
% es.tEx (V/m) @ t=1.02
1.2004809885519503
% es.tEy (V/m) @ t=1.02
0
% es.tEz (V/m) @ t=1.02
-2.741889730241045
% V (V) @ t=1.02
0.0150603210492042
% es.normE (V/m) @ t=1.04
3.0382312998961787
% es.EX (V/m) @ t=1.04
1.210865310027399
% es.EY (V/m) @ t=1.04
0.3201555756938843
% es.EZ (V/m) @ t=1.04
-2.7656040435927434
% es.tEX (V/m) @ t=1.04
1.2108653100273994
% es.tEY (V/m) @ t=1.04
0
% es.tEZ (V/m) @ t=1.04
-2.7656040435927487