% Model:              1 neuron.mph
% Version:            COMSOL 6.0.0.405
% Date:               Mar 16 2023, 17:59
% Dimension:          0
% Nodes:              14017
% Expressions:        14017
% Description:        Electric field norm, Electric field, X component, Electric field, Y component, Electric field, Z component, Tangential electric field, X component, Tangential electric field, Y component, Tangential electric field, Z component, Electric field, x component, Electric field, y component, Electric field, z component, Tangential electric field, x component, Tangential electric field, y component, Tangential electric field, z component, Electric potential
% Length unit:        mm
% x
2
% y
12.199999999999998
% z
2
% es.normE (V/m) @ t=0
1.0915432723608907
% es.EX (V/m) @ t=0
-0.7814445710273914
% es.EY (V/m) @ t=0
0.2976011271395973
% es.EZ (V/m) @ t=0
-0.6973194925112205
% es.tEX (V/m) @ t=0
-0.7814445710273934
% es.tEY (V/m) @ t=0
0
% es.tEZ (V/m) @ t=0
-0.697319492511232
% es.Ex (V/m) @ t=0
-0.7814445710273914
% es.Ey (V/m) @ t=0
0.2976011271395973
% es.Ez (V/m) @ t=0
-0.6973194925112205
% es.tEx (V/m) @ t=0
-0.7814445710273934
% es.tEy (V/m) @ t=0
0
% es.tEz (V/m) @ t=0
-0.697319492511232
% V (V) @ t=0
0.011108423879748176
% es.normE (V/m) @ t=0.02
0.9427861726710018
% es.EX (V/m) @ t=0.02
-0.6749481719804045
% es.EY (V/m) @ t=0.02
0.2570436141910508
% es.EZ (V/m) @ t=0.02
-0.602287780980729
% es.tEX (V/m) @ t=0.02
-0.6749481719804016
% es.tEY (V/m) @ t=0.02
0
% es.tEZ (V/m) @ t=0.02
-0.6022877809807321
% es.Ex (V/m) @ t=0.02
-0.6749481719804045
% es.Ey (V/m) @ t=0.02
0.2570436141910508
% es.Ez (V/m) @ t=0.02
-0.602287780980729
% es.tEx (V/m) @ t=0.02
-0.6749481719804016
% es.tEy (V/m) @ t=0.02
0
% es.tEz (V/m) @ t=0.02
-0.6022877809807321
% V (V) @ t=0.02
0.009594551756939093
% es.normE (V/m) @ t=0.04
0.9514584299422908
% es.EX (V/m) @ t=0.04
-0.6811567104804828
% es.EY (V/m) @ t=0.04
0.25940804061397627
% es.EZ (V/m) @ t=0.04
-0.6078279496623762
% es.tEX (V/m) @ t=0.04
-0.6811567104804777
% es.tEY (V/m) @ t=0.04
0
% es.tEZ (V/m) @ t=0.04
-0.6078279496623757
% es.Ex (V/m) @ t=0.04
-0.6811567104804828
% es.Ey (V/m) @ t=0.04
0.25940804061397627
% es.Ez (V/m) @ t=0.04
-0.6078279496623762
% es.tEx (V/m) @ t=0.04
-0.6811567104804777
% es.tEy (V/m) @ t=0.04
0
% es.tEz (V/m) @ t=0.04
-0.6078279496623757
% V (V) @ t=0.04
0.009682807616678765
% es.normE (V/m) @ t=0.06
0.9601999550077198
% es.EX (V/m) @ t=0.06
-0.6874148382495247
% es.EY (V/m) @ t=0.06
0.2617913520858133
% es.EZ (V/m) @ t=0.06
-0.6134123695192448
% es.tEX (V/m) @ t=0.06
-0.6874148382495235
% es.tEY (V/m) @ t=0.06
0
% es.tEZ (V/m) @ t=0.06
-0.6134123695192404
% es.Ex (V/m) @ t=0.06
-0.6874148382495247
% es.Ey (V/m) @ t=0.06
0.2617913520858133
% es.Ez (V/m) @ t=0.06
-0.6134123695192448
% es.tEx (V/m) @ t=0.06
-0.6874148382495235
% es.tEy (V/m) @ t=0.06
0
% es.tEz (V/m) @ t=0.06
-0.6134123695192404
% V (V) @ t=0.06
0.009771768428350534
% es.normE (V/m) @ t=0.08
0.9690955209464021
% es.EX (V/m) @ t=0.08
-0.6937832450147603
% es.EY (V/m) @ t=0.08
0.2642166613464345
% es.EZ (V/m) @ t=0.08
-0.6190951968313168
% es.tEX (V/m) @ t=0.08
-0.6937832450147545
% es.tEY (V/m) @ t=0.08
0
% es.tEZ (V/m) @ t=0.08
-0.6190951968313199
% es.Ex (V/m) @ t=0.08
-0.6937832450147603
% es.Ey (V/m) @ t=0.08
0.2642166613464345
% es.Ez (V/m) @ t=0.08
-0.6190951968313168
% es.tEx (V/m) @ t=0.08
-0.6937832450147545
% es.tEy (V/m) @ t=0.08
0
% es.tEz (V/m) @ t=0.08
-0.6190951968313199
% V (V) @ t=0.08
0.009862296912031169
% es.normE (V/m) @ t=0.1
0.9780553015277915
% es.EX (V/m) @ t=0.1
-0.7001976235158551
% es.EY (V/m) @ t=0.1
0.2666594781227023
% es.EZ (V/m) @ t=0.1
-0.6248190470189772
% es.tEX (V/m) @ t=0.1
-0.7001976235158538
% es.tEY (V/m) @ t=0.1
0
% es.tEZ (V/m) @ t=0.1
-0.6248190470189803
% es.Ex (V/m) @ t=0.1
-0.7001976235158551
% es.Ey (V/m) @ t=0.1
0.2666594781227023
% es.Ez (V/m) @ t=0.1
-0.6248190470189772
% es.tEx (V/m) @ t=0.1
-0.7001976235158538
% es.tEy (V/m) @ t=0.1
0
% es.tEz (V/m) @ t=0.1
-0.6248190470189803
% V (V) @ t=0.1
0.009953478907314404
% es.normE (V/m) @ t=0.12
0.9870150821091757
% es.EX (V/m) @ t=0.12
-0.7066120020169433
% es.EY (V/m) @ t=0.12
0.2691022948989761
% es.EZ (V/m) @ t=0.12
-0.6305428972066323
% es.tEX (V/m) @ t=0.12
-0.7066120020169451
% es.tEY (V/m) @ t=0.12
0
% es.tEZ (V/m) @ t=0.12
-0.6305428972066283
% es.Ex (V/m) @ t=0.12
-0.7066120020169433
% es.Ey (V/m) @ t=0.12
0.2691022948989761
% es.Ez (V/m) @ t=0.12
-0.6305428972066323
% es.tEx (V/m) @ t=0.12
-0.7066120020169451
% es.tEy (V/m) @ t=0.12
0
% es.tEz (V/m) @ t=0.12
-0.6305428972066283
% V (V) @ t=0.12
0.01004466090259764
% es.normE (V/m) @ t=0.14
0.9961689871993145
% es.EX (V/m) @ t=0.14
-0.7131653558411266
% es.EY (V/m) @ t=0.14
0.2715980383990486
% es.EZ (V/m) @ t=0.14
-0.6363907614360977
% es.tEX (V/m) @ t=0.14
-0.7131653558411273
% es.tEY (V/m) @ t=0.14
0
% es.tEZ (V/m) @ t=0.14
-0.6363907614360969
% es.Ex (V/m) @ t=0.14
-0.7131653558411266
% es.Ey (V/m) @ t=0.14
0.2715980383990486
% es.Ez (V/m) @ t=0.14
-0.6363907614360977
% es.tEx (V/m) @ t=0.14
-0.7131653558411273
% es.tEy (V/m) @ t=0.14
0
% es.tEz (V/m) @ t=0.14
-0.6363907614360969
% V (V) @ t=0.14
0.010137818453893341
% es.normE (V/m) @ t=0.16
1.005589665995056
% es.EX (V/m) @ t=0.16
-0.719909695142462
% es.EY (V/m) @ t=0.16
0.27416651593116903
% es.EZ (V/m) @ t=0.16
-0.6424090507483466
% es.tEX (V/m) @ t=0.16
-0.7199096951424626
% es.tEY (V/m) @ t=0.16
0
% es.tEZ (V/m) @ t=0.16
-0.6424090507483484
% es.Ex (V/m) @ t=0.16
-0.719909695142462
% es.Ey (V/m) @ t=0.16
0.27416651593116903
% es.Ez (V/m) @ t=0.16
-0.6424090507483466
% es.tEx (V/m) @ t=0.16
-0.7199096951424626
% es.tEy (V/m) @ t=0.16
0
% es.tEz (V/m) @ t=0.16
-0.6424090507483484
% V (V) @ t=0.16
0.010233690893698038
% es.normE (V/m) @ t=0.18
1.0150103447908112
% es.EX (V/m) @ t=0.18
-0.7266540344437991
% es.EY (V/m) @ t=0.18
0.2767349934632817
% es.EZ (V/m) @ t=0.18
-0.648427340060616
% es.tEX (V/m) @ t=0.18
-0.7266540344437993
% es.tEY (V/m) @ t=0.18
0
% es.tEZ (V/m) @ t=0.18
-0.6484273400606178
% es.Ex (V/m) @ t=0.18
-0.7266540344437991
% es.Ey (V/m) @ t=0.18
0.2767349934632817
% es.Ez (V/m) @ t=0.18
-0.648427340060616
% es.tEx (V/m) @ t=0.18
-0.7266540344437993
% es.tEy (V/m) @ t=0.18
0
% es.tEz (V/m) @ t=0.18
-0.6484273400606178
% V (V) @ t=0.18
0.01032956333350273
% es.normE (V/m) @ t=0.2
1.024431023586554
% es.EX (V/m) @ t=0.2
-0.7333983737451268
% es.EY (V/m) @ t=0.2
0.27930347099539454
% es.EZ (V/m) @ t=0.2
-0.6544456293728755
% es.tEX (V/m) @ t=0.2
-0.733398373745128
% es.tEY (V/m) @ t=0.2
0
% es.tEZ (V/m) @ t=0.2
-0.6544456293728711
% es.Ex (V/m) @ t=0.2
-0.7333983737451268
% es.Ey (V/m) @ t=0.2
0.27930347099539454
% es.Ez (V/m) @ t=0.2
-0.6544456293728755
% es.tEx (V/m) @ t=0.2
-0.733398373745128
% es.tEy (V/m) @ t=0.2
0
% es.tEz (V/m) @ t=0.2
-0.6544456293728711
% V (V) @ t=0.2
0.01042543577330743
% es.normE (V/m) @ t=0.22
1.0338517023823086
% es.EX (V/m) @ t=0.22
-0.7401427130464706
% es.EY (V/m) @ t=0.22
0.2818719485275101
% es.EZ (V/m) @ t=0.22
-0.6604639186851369
% es.tEX (V/m) @ t=0.22
-0.7401427130464713
% es.tEY (V/m) @ t=0.22
0
% es.tEZ (V/m) @ t=0.22
-0.6604639186851387
% es.Ex (V/m) @ t=0.22
-0.7401427130464706
% es.Ey (V/m) @ t=0.22
0.2818719485275101
% es.Ez (V/m) @ t=0.22
-0.6604639186851369
% es.tEx (V/m) @ t=0.22
-0.7401427130464713
% es.tEy (V/m) @ t=0.22
0
% es.tEz (V/m) @ t=0.22
-0.6604639186851387
% V (V) @ t=0.22
0.010521308213112127
% es.normE (V/m) @ t=0.24
1.0432723811780567
% es.EX (V/m) @ t=0.24
-0.7468870523478055
% es.EY (V/m) @ t=0.24
0.2844404260596365
% es.EZ (V/m) @ t=0.24
-0.6664822079973929
% es.tEX (V/m) @ t=0.24
-0.7468870523478106
% es.tEY (V/m) @ t=0.24
0
% es.tEZ (V/m) @ t=0.24
-0.6664822079973938
% es.Ex (V/m) @ t=0.24
-0.7468870523478055
% es.Ey (V/m) @ t=0.24
0.2844404260596365
% es.Ez (V/m) @ t=0.24
-0.6664822079973929
% es.tEx (V/m) @ t=0.24
-0.7468870523478106
% es.tEy (V/m) @ t=0.24
0
% es.tEz (V/m) @ t=0.24
-0.6664822079973938
% V (V) @ t=0.24
0.010617180652916823
% es.normE (V/m) @ t=0.26
1.0526930599738074
% es.EX (V/m) @ t=0.26
-0.7536313916491368
% es.EY (V/m) @ t=0.26
0.28700890359173603
% es.EZ (V/m) @ t=0.26
-0.6725004973096658
% es.tEX (V/m) @ t=0.26
-0.7536313916491388
% es.tEY (V/m) @ t=0.26
0
% es.tEZ (V/m) @ t=0.26
-0.6725004973096684
% es.Ex (V/m) @ t=0.26
-0.7536313916491368
% es.Ey (V/m) @ t=0.26
0.28700890359173603
% es.Ez (V/m) @ t=0.26
-0.6725004973096658
% es.tEx (V/m) @ t=0.26
-0.7536313916491388
% es.tEy (V/m) @ t=0.26
0
% es.tEz (V/m) @ t=0.26
-0.6725004973096684
% V (V) @ t=0.26
0.010713053092721522
% es.normE (V/m) @ t=0.28
1.0629931235906191
% es.EX (V/m) @ t=0.28
-0.7610051945197249
% es.EY (V/m) @ t=0.28
0.289816866353221
% es.EZ (V/m) @ t=0.28
-0.67908081762506
% es.tEX (V/m) @ t=0.28
-0.761005194519722
% es.tEY (V/m) @ t=0.28
0
% es.tEZ (V/m) @ t=0.28
-0.6790808176250565
% es.Ex (V/m) @ t=0.28
-0.7610051945197249
% es.Ey (V/m) @ t=0.28
0.289816866353221
% es.Ez (V/m) @ t=0.28
-0.67908081762506
% es.tEx (V/m) @ t=0.28
-0.761005194519722
% es.tEy (V/m) @ t=0.28
0
% es.tEz (V/m) @ t=0.28
-0.6790808176250565
% V (V) @ t=0.28
0.010817899674095917
% es.normE (V/m) @ t=0.3
1.0734459471206153
% es.EX (V/m) @ t=0.3
-0.7684883429211224
% es.EY (V/m) @ t=0.3
0.2926664306319433
% es.EZ (V/m) @ t=0.3
-0.6857587696087251
% es.tEX (V/m) @ t=0.3
-0.7684883429211169
% es.tEY (V/m) @ t=0.3
0
% es.tEZ (V/m) @ t=0.3
-0.6857587696087251
% es.Ex (V/m) @ t=0.3
-0.7684883429211224
% es.Ey (V/m) @ t=0.3
0.2926664306319433
% es.Ez (V/m) @ t=0.3
-0.6857587696087251
% es.tEx (V/m) @ t=0.3
-0.7684883429211169
% es.tEy (V/m) @ t=0.3
0
% es.tEz (V/m) @ t=0.3
-0.6857587696087251
% V (V) @ t=0.3
0.010924305173764592
% es.normE (V/m) @ t=0.32
1.0838987706508572
% es.EX (V/m) @ t=0.32
-0.7759714913225335
% es.EY (V/m) @ t=0.32
0.29551599491067737
% es.EZ (V/m) @ t=0.32
-0.6924367215923928
% es.tEX (V/m) @ t=0.32
-0.7759714913225335
% es.tEY (V/m) @ t=0.32
0
% es.tEZ (V/m) @ t=0.32
-0.692436721592399
% es.Ex (V/m) @ t=0.32
-0.7759714913225335
% es.Ey (V/m) @ t=0.32
0.29551599491067737
% es.Ez (V/m) @ t=0.32
-0.6924367215923928
% es.tEx (V/m) @ t=0.32
-0.7759714913225335
% es.tEy (V/m) @ t=0.32
0
% es.tEz (V/m) @ t=0.32
-0.692436721592399
% V (V) @ t=0.32
0.011030710673433267
% es.normE (V/m) @ t=0.34
1.0943515941813198
% es.EX (V/m) @ t=0.34
-0.7834546397239326
% es.EY (V/m) @ t=0.34
0.2983655591893828
% es.EZ (V/m) @ t=0.34
-0.6991146735760774
% es.tEX (V/m) @ t=0.34
-0.7834546397239315
% es.tEY (V/m) @ t=0.34
0
% es.tEZ (V/m) @ t=0.34
-0.6991146735760747
% es.Ex (V/m) @ t=0.34
-0.7834546397239326
% es.Ey (V/m) @ t=0.34
0.2983655591893828
% es.Ez (V/m) @ t=0.34
-0.6991146735760774
% es.tEx (V/m) @ t=0.34
-0.7834546397239315
% es.tEy (V/m) @ t=0.34
0
% es.tEz (V/m) @ t=0.34
-0.6991146735760747
% V (V) @ t=0.34
0.011137116173101941
% es.normE (V/m) @ t=0.36
1.1048044177119973
% es.EX (V/m) @ t=0.36
-0.7909377881253439
% es.EY (V/m) @ t=0.36
0.30121512346811685
% es.EZ (V/m) @ t=0.36
-0.7057926255597353
% es.tEX (V/m) @ t=0.36
-0.7909377881253445
% es.tEY (V/m) @ t=0.36
0
% es.tEZ (V/m) @ t=0.36
-0.7057926255597433
% es.Ex (V/m) @ t=0.36
-0.7909377881253439
% es.Ey (V/m) @ t=0.36
0.30121512346811685
% es.Ez (V/m) @ t=0.36
-0.7057926255597353
% es.tEx (V/m) @ t=0.36
-0.7909377881253445
% es.tEy (V/m) @ t=0.36
0
% es.tEz (V/m) @ t=0.36
-0.7057926255597433
% V (V) @ t=0.36
0.011243521672770613
% es.normE (V/m) @ t=0.38
1.115257241242905
% es.EX (V/m) @ t=0.38
-0.79842093652676
% es.EY (V/m) @ t=0.38
0.30406468774686135
% es.EZ (V/m) @ t=0.38
-0.7124705775434119
% es.tEX (V/m) @ t=0.38
-0.798420936526751
% es.tEY (V/m) @ t=0.38
0
% es.tEZ (V/m) @ t=0.38
-0.7124705775434119
% es.Ex (V/m) @ t=0.38
-0.79842093652676
% es.Ey (V/m) @ t=0.38
0.30406468774686135
% es.Ez (V/m) @ t=0.38
-0.7124705775434119
% es.tEx (V/m) @ t=0.38
-0.798420936526751
% es.tEy (V/m) @ t=0.38
0
% es.tEz (V/m) @ t=0.38
-0.7124705775434119
% V (V) @ t=0.38
0.011349927172439286
% es.normE (V/m) @ t=0.4
1.1257100647739917
% es.EX (V/m) @ t=0.4
-0.8059040849281545
% es.EY (V/m) @ t=0.4
0.30691425202556255
% es.EZ (V/m) @ t=0.4
-0.719148529527085
% es.tEX (V/m) @ t=0.4
-0.8059040849281551
% es.tEY (V/m) @ t=0.4
0
% es.tEZ (V/m) @ t=0.4
-0.719148529527093
% es.Ex (V/m) @ t=0.4
-0.8059040849281545
% es.Ey (V/m) @ t=0.4
0.30691425202556255
% es.Ez (V/m) @ t=0.4
-0.719148529527085
% es.tEx (V/m) @ t=0.4
-0.8059040849281551
% es.tEy (V/m) @ t=0.4
0
% es.tEz (V/m) @ t=0.4
-0.719148529527093
% V (V) @ t=0.4
0.011456332672107963
% es.normE (V/m) @ t=0.42
1.1361628883052983
% es.EX (V/m) @ t=0.42
-0.8133872333295669
% es.EY (V/m) @ t=0.42
0.3097638163042955
% es.EZ (V/m) @ t=0.42
-0.7258264815107589
% es.tEX (V/m) @ t=0.42
-0.8133872333295611
% es.tEY (V/m) @ t=0.42
0
% es.tEZ (V/m) @ t=0.42
-0.7258264815107545
% es.Ex (V/m) @ t=0.42
-0.8133872333295669
% es.Ey (V/m) @ t=0.42
0.3097638163042955
% es.Ez (V/m) @ t=0.42
-0.7258264815107589
% es.tEx (V/m) @ t=0.42
-0.8133872333295611
% es.tEy (V/m) @ t=0.42
0
% es.tEz (V/m) @ t=0.42
-0.7258264815107545
% V (V) @ t=0.42
0.011562738171776634
% es.normE (V/m) @ t=0.44
1.146615711836783
% es.EX (V/m) @ t=0.44
-0.8208703817309673
% es.EY (V/m) @ t=0.44
0.31261338058301713
% es.EZ (V/m) @ t=0.44
-0.732504433494424
% es.tEX (V/m) @ t=0.44
-0.8208703817309706
% es.tEY (V/m) @ t=0.44
0
% es.tEZ (V/m) @ t=0.44
-0.7325044334944231
% es.Ex (V/m) @ t=0.44
-0.8208703817309673
% es.Ey (V/m) @ t=0.44
0.31261338058301713
% es.Ez (V/m) @ t=0.44
-0.732504433494424
% es.tEx (V/m) @ t=0.44
-0.8208703817309706
% es.tEy (V/m) @ t=0.44
0
% es.tEz (V/m) @ t=0.44
-0.7325044334944231
% V (V) @ t=0.44
0.011669143671445305
% es.normE (V/m) @ t=0.46
1.1570685353684713
% es.EX (V/m) @ t=0.46
-0.8283535301323706
% es.EY (V/m) @ t=0.46
0.3154629448617441
% es.EZ (V/m) @ t=0.46
-0.7391823854781068
% es.tEX (V/m) @ t=0.46
-0.8283535301323646
% es.tEY (V/m) @ t=0.46
0
% es.tEZ (V/m) @ t=0.46
-0.7391823854781183
% es.Ex (V/m) @ t=0.46
-0.8283535301323706
% es.Ey (V/m) @ t=0.46
0.3154629448617441
% es.Ez (V/m) @ t=0.46
-0.7391823854781068
% es.tEx (V/m) @ t=0.46
-0.8283535301323646
% es.tEy (V/m) @ t=0.46
0
% es.tEz (V/m) @ t=0.46
-0.7391823854781183
% V (V) @ t=0.46
0.011775549171113982
% es.normE (V/m) @ t=0.48
1.167521358900341
% es.EX (V/m) @ t=0.48
-0.8358366785337814
% es.EY (V/m) @ t=0.48
0.3183125091404646
% es.EZ (V/m) @ t=0.48
-0.7458603374617763
% es.tEX (V/m) @ t=0.48
-0.8358366785337847
% es.tEY (V/m) @ t=0.48
0
% es.tEZ (V/m) @ t=0.48
-0.7458603374617727
% es.Ex (V/m) @ t=0.48
-0.8358366785337814
% es.Ey (V/m) @ t=0.48
0.3183125091404646
% es.Ez (V/m) @ t=0.48
-0.7458603374617763
% es.tEx (V/m) @ t=0.48
-0.8358366785337847
% es.tEy (V/m) @ t=0.48
0
% es.tEz (V/m) @ t=0.48
-0.7458603374617727
% V (V) @ t=0.48
0.011881954670782655
% es.normE (V/m) @ t=0.5
1.17797418243239
% es.EX (V/m) @ t=0.5
-0.8433198269351918
% es.EY (V/m) @ t=0.5
0.3211620734192042
% es.EZ (V/m) @ t=0.5
-0.7525382894454404
% es.tEX (V/m) @ t=0.5
-0.8433198269351898
% es.tEY (V/m) @ t=0.5
0
% es.tEZ (V/m) @ t=0.5
-0.7525382894454467
% es.Ex (V/m) @ t=0.5
-0.8433198269351918
% es.Ey (V/m) @ t=0.5
0.3211620734192042
% es.Ez (V/m) @ t=0.5
-0.7525382894454404
% es.tEx (V/m) @ t=0.5
-0.8433198269351898
% es.tEy (V/m) @ t=0.5
0
% es.tEz (V/m) @ t=0.5
-0.7525382894454467
% V (V) @ t=0.5
0.01198836017045133
% es.normE (V/m) @ t=0.52
1.1884270059646127
% es.EX (V/m) @ t=0.52
-0.8508029753365989
% es.EY (V/m) @ t=0.52
0.3240116376979194
% es.EZ (V/m) @ t=0.52
-0.7592162414291161
% es.tEX (V/m) @ t=0.52
-0.8508029753365962
% es.tEY (V/m) @ t=0.52
0
% es.tEZ (V/m) @ t=0.52
-0.7592162414291153
% es.Ex (V/m) @ t=0.52
-0.8508029753365989
% es.Ey (V/m) @ t=0.52
0.3240116376979194
% es.Ez (V/m) @ t=0.52
-0.7592162414291161
% es.tEx (V/m) @ t=0.52
-0.8508029753365962
% es.tEy (V/m) @ t=0.52
0
% es.tEz (V/m) @ t=0.52
-0.7592162414291153
% V (V) @ t=0.52
0.012094765670120002
% es.normE (V/m) @ t=0.54
1.1997110129793631
% es.EX (V/m) @ t=0.54
-0.8588812388945131
% es.EY (V/m) @ t=0.54
0.32708800115216263
% es.EZ (V/m) @ t=0.54
-0.7664250191015638
% es.tEX (V/m) @ t=0.54
-0.8588812388945186
% es.tEY (V/m) @ t=0.54
0
% es.tEZ (V/m) @ t=0.54
-0.7664250191015771
% es.Ex (V/m) @ t=0.54
-0.8588812388945131
% es.Ey (V/m) @ t=0.54
0.32708800115216263
% es.Ez (V/m) @ t=0.54
-0.7664250191015638
% es.tEx (V/m) @ t=0.54
-0.8588812388945186
% es.tEy (V/m) @ t=0.54
0
% es.tEz (V/m) @ t=0.54
-0.7664250191015771
% V (V) @ t=0.54
0.012209613189051496
% es.normE (V/m) @ t=0.56
1.2113285821796664
% es.EX (V/m) @ t=0.56
-0.8671983280745155
% es.EY (V/m) @ t=0.56
0.3302553813677709
% es.EZ (V/m) @ t=0.56
-0.7738468223942787
% es.tEX (V/m) @ t=0.56
-0.8671983280745157
% es.tEY (V/m) @ t=0.56
0
% es.tEZ (V/m) @ t=0.56
-0.7738468223942814
% es.Ex (V/m) @ t=0.56
-0.8671983280745155
% es.Ey (V/m) @ t=0.56
0.3302553813677709
% es.Ez (V/m) @ t=0.56
-0.7738468223942787
% es.tEx (V/m) @ t=0.56
-0.8671983280745157
% es.tEy (V/m) @ t=0.56
0
% es.tEz (V/m) @ t=0.56
-0.7738468223942814
% V (V) @ t=0.56
0.0123278485741464
% es.normE (V/m) @ t=0.58
1.2229461513799569
% es.EX (V/m) @ t=0.58
-0.8755154172545034
% es.EY (V/m) @ t=0.58
0.33342276158337203
% es.EZ (V/m) @ t=0.58
-0.7812686256869901
% es.tEX (V/m) @ t=0.58
-0.8755154172545061
% es.tEY (V/m) @ t=0.58
0
% es.tEZ (V/m) @ t=0.58
-0.7812686256869874
% es.Ex (V/m) @ t=0.58
-0.8755154172545034
% es.Ey (V/m) @ t=0.58
0.33342276158337203
% es.Ez (V/m) @ t=0.58
-0.7812686256869901
% es.tEx (V/m) @ t=0.58
-0.8755154172545061
% es.tEy (V/m) @ t=0.58
0
% es.tEz (V/m) @ t=0.58
-0.7812686256869874
% V (V) @ t=0.58
0.012446083959241301
% es.normE (V/m) @ t=0.6
1.2345637205802515
% es.EX (V/m) @ t=0.6
-0.883832506434495
% es.EY (V/m) @ t=0.6
0.3365901417989874
% es.EZ (V/m) @ t=0.6
-0.7886904289796952
% es.tEX (V/m) @ t=0.6
-0.883832506434489
% es.tEY (V/m) @ t=0.6
0
% es.tEZ (V/m) @ t=0.6
-0.7886904289797005
% es.Ex (V/m) @ t=0.6
-0.883832506434495
% es.Ey (V/m) @ t=0.6
0.3365901417989874
% es.Ez (V/m) @ t=0.6
-0.7886904289796952
% es.tEx (V/m) @ t=0.6
-0.883832506434489
% es.tEy (V/m) @ t=0.6
0
% es.tEz (V/m) @ t=0.6
-0.7886904289797005
% V (V) @ t=0.6
0.012564319344336203
% es.normE (V/m) @ t=0.62
1.2461812897805495
% es.EX (V/m) @ t=0.62
-0.892149595614492
% es.EY (V/m) @ t=0.62
0.33975752201459297
% es.EZ (V/m) @ t=0.62
-0.7961122322724057
% es.tEX (V/m) @ t=0.62
-0.8921495956144936
% es.tEY (V/m) @ t=0.62
0
% es.tEZ (V/m) @ t=0.62
-0.7961122322724137
% es.Ex (V/m) @ t=0.62
-0.892149595614492
% es.Ey (V/m) @ t=0.62
0.33975752201459297
% es.Ez (V/m) @ t=0.62
-0.7961122322724057
% es.tEx (V/m) @ t=0.62
-0.8921495956144936
% es.tEy (V/m) @ t=0.62
0
% es.tEz (V/m) @ t=0.62
-0.7961122322724137
% V (V) @ t=0.62
0.012682554729431104
% es.normE (V/m) @ t=0.64
1.2577988589808542
% es.EX (V/m) @ t=0.64
-0.9004666847944873
% es.EY (V/m) @ t=0.64
0.34292490223019456
% es.EZ (V/m) @ t=0.64
-0.8035340355651241
% es.tEX (V/m) @ t=0.64
-0.9004666847944862
% es.tEY (V/m) @ t=0.64
0
% es.tEZ (V/m) @ t=0.64
-0.8035340355651339
% es.Ex (V/m) @ t=0.64
-0.9004666847944873
% es.Ey (V/m) @ t=0.64
0.34292490223019456
% es.Ez (V/m) @ t=0.64
-0.8035340355651241
% es.tEx (V/m) @ t=0.64
-0.9004666847944862
% es.tEy (V/m) @ t=0.64
0
% es.tEz (V/m) @ t=0.64
-0.8035340355651339
% V (V) @ t=0.64
0.012800790114526006
% es.normE (V/m) @ t=0.66
1.269416428181164
% es.EX (V/m) @ t=0.66
-0.9087837739744931
% es.EY (V/m) @ t=0.66
0.34609228244580725
% es.EZ (V/m) @ t=0.66
-0.8109558388578364
% es.tEX (V/m) @ t=0.66
-0.908783773974494
% es.tEY (V/m) @ t=0.66
0
% es.tEZ (V/m) @ t=0.66
-0.8109558388578382
% es.Ex (V/m) @ t=0.66
-0.9087837739744931
% es.Ey (V/m) @ t=0.66
0.34609228244580725
% es.Ez (V/m) @ t=0.66
-0.8109558388578364
% es.tEx (V/m) @ t=0.66
-0.908783773974494
% es.tEy (V/m) @ t=0.66
0
% es.tEz (V/m) @ t=0.66
-0.8109558388578382
% V (V) @ t=0.66
0.012919025499620908
% es.normE (V/m) @ t=0.68
1.2810339973814702
% es.EX (V/m) @ t=0.68
-0.9171008631544966
% es.EY (V/m) @ t=0.68
0.3492596626614133
% es.EZ (V/m) @ t=0.68
-0.8183776421505469
% es.tEX (V/m) @ t=0.68
-0.9171008631544915
% es.tEY (V/m) @ t=0.68
0
% es.tEZ (V/m) @ t=0.68
-0.8183776421505495
% es.Ex (V/m) @ t=0.68
-0.9171008631544966
% es.Ey (V/m) @ t=0.68
0.3492596626614133
% es.Ez (V/m) @ t=0.68
-0.8183776421505469
% es.tEx (V/m) @ t=0.68
-0.9171008631544915
% es.tEy (V/m) @ t=0.68
0
% es.tEz (V/m) @ t=0.68
-0.8183776421505495
% V (V) @ t=0.68
0.013037260884715811
% es.normE (V/m) @ t=0.7
1.2926515665817537
% es.EX (V/m) @ t=0.7
-0.9254179523344688
% es.EY (V/m) @ t=0.7
0.35242704287700466
% es.EZ (V/m) @ t=0.7
-0.8257994454432618
% es.tEX (V/m) @ t=0.7
-0.925417952334473
% es.tEY (V/m) @ t=0.7
0
% es.tEZ (V/m) @ t=0.7
-0.8257994454432627
% es.Ex (V/m) @ t=0.7
-0.9254179523344688
% es.Ey (V/m) @ t=0.7
0.35242704287700466
% es.Ez (V/m) @ t=0.7
-0.8257994454432618
% es.tEx (V/m) @ t=0.7
-0.925417952334473
% es.tEy (V/m) @ t=0.7
0
% es.tEz (V/m) @ t=0.7
-0.8257994454432627
% V (V) @ t=0.7
0.013155496269810715
% es.normE (V/m) @ t=0.72
1.3042691357820628
% es.EX (V/m) @ t=0.72
-0.9337350415144694
% es.EY (V/m) @ t=0.72
0.35559442309262046
% es.EZ (V/m) @ t=0.72
-0.8332212487359696
% es.tEX (V/m) @ t=0.72
-0.933735041514471
% es.tEY (V/m) @ t=0.72
0
% es.tEZ (V/m) @ t=0.72
-0.8332212487359687
% es.Ex (V/m) @ t=0.72
-0.9337350415144694
% es.Ey (V/m) @ t=0.72
0.35559442309262046
% es.Ez (V/m) @ t=0.72
-0.8332212487359696
% es.tEx (V/m) @ t=0.72
-0.933735041514471
% es.tEy (V/m) @ t=0.72
0
% es.tEz (V/m) @ t=0.72
-0.8332212487359687
% V (V) @ t=0.72
0.013273731654905616
% es.normE (V/m) @ t=0.74
1.3158867049823708
% es.EX (V/m) @ t=0.74
-0.9420521306944682
% es.EY (V/m) @ t=0.74
0.35876180330823493
% es.EZ (V/m) @ t=0.74
-0.8406430520286818
% es.tEX (V/m) @ t=0.74
-0.9420521306944654
% es.tEY (V/m) @ t=0.74
0
% es.tEZ (V/m) @ t=0.74
-0.8406430520286818
% es.Ex (V/m) @ t=0.74
-0.9420521306944682
% es.Ey (V/m) @ t=0.74
0.35876180330823493
% es.Ez (V/m) @ t=0.74
-0.8406430520286818
% es.tEx (V/m) @ t=0.74
-0.9420521306944654
% es.tEy (V/m) @ t=0.74
0
% es.tEz (V/m) @ t=0.74
-0.8406430520286818
% V (V) @ t=0.74
0.013391967040000518
% es.normE (V/m) @ t=0.76
1.3275042741826821
% es.EX (V/m) @ t=0.76
-0.9503692198744631
% es.EY (V/m) @ t=0.76
0.3619291835238512
% es.EZ (V/m) @ t=0.76
-0.8480648553213994
% es.tEX (V/m) @ t=0.76
-0.9503692198744615
% es.tEY (V/m) @ t=0.76
0
% es.tEZ (V/m) @ t=0.76
-0.8480648553214092
% es.Ex (V/m) @ t=0.76
-0.9503692198744631
% es.Ey (V/m) @ t=0.76
0.3619291835238512
% es.Ez (V/m) @ t=0.76
-0.8480648553213994
% es.tEx (V/m) @ t=0.76
-0.9503692198744615
% es.tEy (V/m) @ t=0.76
0
% es.tEz (V/m) @ t=0.76
-0.8480648553214092
% V (V) @ t=0.76
0.01351020242509542
% es.normE (V/m) @ t=0.78
1.3391218433829915
% es.EX (V/m) @ t=0.78
-0.9586863090544686
% es.EY (V/m) @ t=0.78
0.36509656373945143
% es.EZ (V/m) @ t=0.78
-0.8554866586141072
% es.tEX (V/m) @ t=0.78
-0.9586863090544688
% es.tEY (V/m) @ t=0.78
0
% es.tEZ (V/m) @ t=0.78
-0.8554866586141063
% es.Ex (V/m) @ t=0.78
-0.9586863090544686
% es.Ey (V/m) @ t=0.78
0.36509656373945143
% es.Ez (V/m) @ t=0.78
-0.8554866586141072
% es.tEx (V/m) @ t=0.78
-0.9586863090544688
% es.tEy (V/m) @ t=0.78
0
% es.tEz (V/m) @ t=0.78
-0.8554866586141063
% V (V) @ t=0.78
0.013628437810190321
% es.normE (V/m) @ t=0.8
1.3514963664237651
% es.EX (V/m) @ t=0.8
-0.967545165792594
% es.EY (V/m) @ t=0.8
0.36846991539035256
% es.EZ (V/m) @ t=0.8
-0.863392400385047
% es.tEX (V/m) @ t=0.8
-0.9675451657925946
% es.tEY (V/m) @ t=0.8
0
% es.tEZ (V/m) @ t=0.8
-0.8633924003850453
% es.Ex (V/m) @ t=0.8
-0.967545165792594
% es.Ey (V/m) @ t=0.8
0.36846991539035256
% es.Ez (V/m) @ t=0.8
-0.863392400385047
% es.tEx (V/m) @ t=0.8
-0.9675451657925946
% es.tEy (V/m) @ t=0.8
0
% es.tEz (V/m) @ t=0.8
-0.8633924003850453
% V (V) @ t=0.8
0.013754413564464926
% es.normE (V/m) @ t=0.82
1.3644298314381826
% es.EX (V/m) @ t=0.82
-0.9768040688896746
% es.EY (V/m) @ t=0.82
0.3719953583237574
% es.EZ (V/m) @ t=0.82
-0.8716554869679705
% es.tEX (V/m) @ t=0.82
-0.9768040688896753
% es.tEY (V/m) @ t=0.82
0
% es.tEZ (V/m) @ t=0.82
-0.8716554869679687
% es.Ex (V/m) @ t=0.82
-0.9768040688896746
% es.Ey (V/m) @ t=0.82
0.3719953583237574
% es.Ez (V/m) @ t=0.82
-0.8716554869679705
% es.tEx (V/m) @ t=0.82
-0.9768040688896753
% es.tEy (V/m) @ t=0.82
0
% es.tEz (V/m) @ t=0.82
-0.8716554869679687
% V (V) @ t=0.82
0.013886104881550586
% es.normE (V/m) @ t=0.84
1.3773632964535043
% es.EX (V/m) @ t=0.84
-0.986062971986742
% es.EY (V/m) @ t=0.84
0.375520801257168
% es.EZ (V/m) @ t=0.84
-0.8799185735508672
% es.tEX (V/m) @ t=0.84
-0.9860629719867409
% es.tEY (V/m) @ t=0.84
0
% es.tEZ (V/m) @ t=0.84
-0.8799185735508743
% es.Ex (V/m) @ t=0.84
-0.986062971986742
% es.Ey (V/m) @ t=0.84
0.375520801257168
% es.Ez (V/m) @ t=0.84
-0.8799185735508672
% es.tEx (V/m) @ t=0.84
-0.9860629719867409
% es.tEy (V/m) @ t=0.84
0
% es.tEz (V/m) @ t=0.84
-0.8799185735508743
% V (V) @ t=0.84
0.014017796198636242
% es.normE (V/m) @ t=0.86
1.3902967614697526
% es.EX (V/m) @ t=0.86
-0.9953218750838382
% es.EY (V/m) @ t=0.86
0.3790462441905822
% es.EZ (V/m) @ t=0.86
-0.8881816601337675
% es.tEX (V/m) @ t=0.86
-0.9953218750838362
% es.tEY (V/m) @ t=0.86
0
% es.tEZ (V/m) @ t=0.86
-0.8881816601337675
% es.Ex (V/m) @ t=0.86
-0.9953218750838382
% es.Ey (V/m) @ t=0.86
0.3790462441905822
% es.Ez (V/m) @ t=0.86
-0.8881816601337675
% es.tEx (V/m) @ t=0.86
-0.9953218750838362
% es.tEy (V/m) @ t=0.86
0
% es.tEz (V/m) @ t=0.86
-0.8881816601337675
% V (V) @ t=0.86
0.014149487515721896
% es.normE (V/m) @ t=0.88
1.4032302264868721
% es.EX (V/m) @ t=0.88
-1.0045807781809197
% es.EY (V/m) @ t=0.88
0.3825716871239768
% es.EZ (V/m) @ t=0.88
-0.8964447467166865
% es.tEX (V/m) @ t=0.88
-1.004580778180915
% es.tEY (V/m) @ t=0.88
0
% es.tEZ (V/m) @ t=0.88
-0.8964447467166963
% es.Ex (V/m) @ t=0.88
-1.0045807781809197
% es.Ey (V/m) @ t=0.88
0.3825716871239768
% es.Ez (V/m) @ t=0.88
-0.8964447467166865
% es.tEx (V/m) @ t=0.88
-1.004580778180915
% es.tEy (V/m) @ t=0.88
0
% es.tEz (V/m) @ t=0.88
-0.8964447467166963
% V (V) @ t=0.88
0.014281178832807556
% es.normE (V/m) @ t=0.9
1.4161636915048543
% es.EX (V/m) @ t=0.9
-1.0138396812780084
% es.EY (V/m) @ t=0.9
0.38609713005740876
% es.EZ (V/m) @ t=0.9
-0.904707833299593
% es.tEX (V/m) @ t=0.9
-1.0138396812780033
% es.tEY (V/m) @ t=0.9
0
% es.tEZ (V/m) @ t=0.9
-0.9047078332996019
% es.Ex (V/m) @ t=0.9
-1.0138396812780084
% es.Ey (V/m) @ t=0.9
0.38609713005740876
% es.Ez (V/m) @ t=0.9
-0.904707833299593
% es.tEx (V/m) @ t=0.9
-1.0138396812780033
% es.tEy (V/m) @ t=0.9
0
% es.tEz (V/m) @ t=0.9
-0.9047078332996019
% V (V) @ t=0.9
0.01441287014989321
% es.normE (V/m) @ t=0.92
1.4290971565236599
% es.EX (V/m) @ t=0.92
-1.0230985843750993
% es.EY (V/m) @ t=0.92
0.38962257299081626
% es.EZ (V/m) @ t=0.92
-0.9129709198824969
% es.tEX (V/m) @ t=0.92
-1.0230985843751
% es.tEY (V/m) @ t=0.92
0
% es.tEZ (V/m) @ t=0.92
-0.9129709198825005
% es.Ex (V/m) @ t=0.92
-1.0230985843750993
% es.Ey (V/m) @ t=0.92
0.38962257299081626
% es.Ez (V/m) @ t=0.92
-0.9129709198824969
% es.tEx (V/m) @ t=0.92
-1.0230985843751
% es.tEy (V/m) @ t=0.92
0
% es.tEz (V/m) @ t=0.92
-0.9129709198825005
% V (V) @ t=0.92
0.01454456146697887
% es.normE (V/m) @ t=0.94
1.44203062154327
% es.EX (V/m) @ t=0.94
-1.0323574874721808
% es.EY (V/m) @ t=0.94
0.3931480159242251
% es.EZ (V/m) @ t=0.94
-0.9212340064654079
% es.tEX (V/m) @ t=0.94
-1.0323574874721806
% es.tEY (V/m) @ t=0.94
0
% es.tEZ (V/m) @ t=0.94
-0.921234006465415
% es.Ex (V/m) @ t=0.94
-1.0323574874721808
% es.Ey (V/m) @ t=0.94
0.3931480159242251
% es.Ez (V/m) @ t=0.94
-0.9212340064654079
% es.tEx (V/m) @ t=0.94
-1.0323574874721806
% es.tEy (V/m) @ t=0.94
0
% es.tEz (V/m) @ t=0.94
-0.921234006465415
% V (V) @ t=0.94
0.014676252784064522
% es.normE (V/m) @ t=0.96
1.4549640865636582
% es.EX (V/m) @ t=0.96
-1.0416163905692504
% es.EY (V/m) @ t=0.96
0.3966734588576175
% es.EZ (V/m) @ t=0.96
-0.9294970930483242
% es.tEX (V/m) @ t=0.96
-1.0416163905692546
% es.tEY (V/m) @ t=0.96
0
% es.tEZ (V/m) @ t=0.96
-0.9294970930483224
% es.Ex (V/m) @ t=0.96
-1.0416163905692504
% es.Ey (V/m) @ t=0.96
0.3966734588576175
% es.Ez (V/m) @ t=0.96
-0.9294970930483242
% es.tEx (V/m) @ t=0.96
-1.0416163905692546
% es.tEy (V/m) @ t=0.96
0
% es.tEz (V/m) @ t=0.96
-0.9294970930483224
% V (V) @ t=0.96
0.014807944101150184
% es.normE (V/m) @ t=0.98
1.467897551584821
% es.EX (V/m) @ t=0.98
-1.0508752936663355
% es.EY (V/m) @ t=0.98
0.4001989017910419
% es.EZ (V/m) @ t=0.98
-0.9377601796312209
% es.tEX (V/m) @ t=0.98
-1.0508752936663335
% es.tEY (V/m) @ t=0.98
0
% es.tEZ (V/m) @ t=0.98
-0.9377601796312209
% es.Ex (V/m) @ t=0.98
-1.0508752936663355
% es.Ey (V/m) @ t=0.98
0.4001989017910419
% es.Ez (V/m) @ t=0.98
-0.9377601796312209
% es.tEx (V/m) @ t=0.98
-1.0508752936663335
% es.tEy (V/m) @ t=0.98
0
% es.tEz (V/m) @ t=0.98
-0.9377601796312209
% V (V) @ t=0.98
0.014939635418235842
% es.normE (V/m) @ t=1
1.4808310166067287
% es.EX (V/m) @ t=1
-1.060134196763426
% es.EY (V/m) @ t=1
0.4037243447244552
% es.EZ (V/m) @ t=1
-0.9460232662141213
% es.tEX (V/m) @ t=1
-1.0601341967634212
% es.tEY (V/m) @ t=1
0
% es.tEZ (V/m) @ t=1
-0.9460232662141213
% es.Ex (V/m) @ t=1
-1.060134196763426
% es.Ey (V/m) @ t=1
0.4037243447244552
% es.Ez (V/m) @ t=1
-0.9460232662141213
% es.tEx (V/m) @ t=1
-1.0601341967634212
% es.tEy (V/m) @ t=1
0
% es.tEz (V/m) @ t=1
-0.9460232662141213
% V (V) @ t=1
0.015071326735321498
% es.normE (V/m) @ t=1.02
1.4937644816293798
% es.EX (V/m) @ t=1.02
-1.0693930998605172
% es.EY (V/m) @ t=1.02
0.40724978765785913
% es.EZ (V/m) @ t=1.02
-0.95428635279705
% es.tEX (V/m) @ t=1.02
-1.0693930998605126
% es.tEY (V/m) @ t=1.02
0
% es.tEZ (V/m) @ t=1.02
-0.9542863527970518
% es.Ex (V/m) @ t=1.02
-1.0693930998605172
% es.Ey (V/m) @ t=1.02
0.40724978765785913
% es.Ez (V/m) @ t=1.02
-0.95428635279705
% es.tEx (V/m) @ t=1.02
-1.0693930998605126
% es.tEy (V/m) @ t=1.02
0
% es.tEz (V/m) @ t=1.02
-0.9542863527970518
% V (V) @ t=1.02
0.015203018052407152
% es.normE (V/m) @ t=1.04