% Model:              1 neuron.mph
% Version:            COMSOL 6.0.0.405
% Date:               Mar 16 2023, 18:01
% Dimension:          0
% Nodes:              14017
% Expressions:        14017
% Description:        Electric field norm, Electric field, X component, Electric field, Y component, Electric field, Z component, Tangential electric field, X component, Tangential electric field, Y component, Tangential electric field, Z component, Electric field, x component, Electric field, y component, Electric field, z component, Tangential electric field, x component, Tangential electric field, y component, Tangential electric field, z component, Electric potential
% Length unit:        mm
% x
1
% y
12.2
% z
1.6599999999999997
% es.normE (V/m) @ t=0
2.4136064579302685
% es.EX (V/m) @ t=0
2.160683544390615
% es.EY (V/m) @ t=0
0.08313323111570539
% es.EZ (V/m) @ t=0
-1.0723952359805409
% es.tEX (V/m) @ t=0
2.1606835443906176
% es.tEY (V/m) @ t=0
0
% es.tEZ (V/m) @ t=0
-1.0723952359805082
% es.Ex (V/m) @ t=0
2.160683544390615
% es.Ey (V/m) @ t=0
0.08313323111570539
% es.Ez (V/m) @ t=0
-1.0723952359805409
% es.tEx (V/m) @ t=0
2.1606835443906176
% es.tEy (V/m) @ t=0
0
% es.tEz (V/m) @ t=0
-1.0723952359805082
% V (V) @ t=0
0.010950511390217429
% es.normE (V/m) @ t=0.02
2.0846771298744375
% es.EX (V/m) @ t=0.02
1.866222872672524
% es.EY (V/m) @ t=0.02
0.07180373117714192
% es.EZ (V/m) @ t=0.02
-0.9262478561197437
% es.tEX (V/m) @ t=0.02
1.8662228726725152
% es.tEY (V/m) @ t=0.02
0
% es.tEZ (V/m) @ t=0.02
-0.926247856119744
% es.Ex (V/m) @ t=0.02
1.866222872672524
% es.Ey (V/m) @ t=0.02
0.07180373117714192
% es.Ez (V/m) @ t=0.02
-0.9262478561197437
% es.tEx (V/m) @ t=0.02
1.8662228726725152
% es.tEy (V/m) @ t=0.02
0
% es.tEz (V/m) @ t=0.02
-0.926247856119744
% V (V) @ t=0.02
0.009458161476745785
% es.normE (V/m) @ t=0.04
2.103853524704964
% es.EX (V/m) @ t=0.04
1.8833897648459388
% es.EY (V/m) @ t=0.04
0.0724642350192736
% es.EZ (V/m) @ t=0.04
-0.9347681648887911
% es.tEX (V/m) @ t=0.04
1.8833897648459361
% es.tEY (V/m) @ t=0.04
0
% es.tEZ (V/m) @ t=0.04
-0.9347681648887729
% es.Ex (V/m) @ t=0.04
1.8833897648459388
% es.Ey (V/m) @ t=0.04
0.0724642350192736
% es.Ez (V/m) @ t=0.04
-0.9347681648887911
% es.tEx (V/m) @ t=0.04
1.8833897648459361
% es.tEy (V/m) @ t=0.04
0
% es.tEz (V/m) @ t=0.04
-0.9347681648887729
% V (V) @ t=0.04
0.009545164550049955
% es.normE (V/m) @ t=0.06
2.123184017572048
% es.EX (V/m) @ t=0.06
1.9006946037550567
% es.EY (V/m) @ t=0.06
0.07313004460436429
% es.EZ (V/m) @ t=0.06
-0.9433569481198694
% es.tEX (V/m) @ t=0.06
1.9006946037550545
% es.tEY (V/m) @ t=0.06
0
% es.tEZ (V/m) @ t=0.06
-0.9433569481198489
% es.Ex (V/m) @ t=0.06
1.9006946037550567
% es.Ey (V/m) @ t=0.06
0.07313004460436429
% es.Ez (V/m) @ t=0.06
-0.9433569481198694
% es.tEx (V/m) @ t=0.06
1.9006946037550545
% es.tEy (V/m) @ t=0.06
0
% es.tEz (V/m) @ t=0.06
-0.9433569481198489
% V (V) @ t=0.06
0.009632867227249441
% es.normE (V/m) @ t=0.08
2.1428532684556423
% es.EX (V/m) @ t=0.08
1.9183027003198554
% es.EY (V/m) @ t=0.08
0.07380752131233267
% es.EZ (V/m) @ t=0.08
-0.9520962493395372
% es.tEX (V/m) @ t=0.08
1.9183027003198596
% es.tEY (V/m) @ t=0.08
0
% es.tEZ (V/m) @ t=0.08
-0.9520962493395331
% es.Ex (V/m) @ t=0.08
1.9183027003198554
% es.Ey (V/m) @ t=0.08
0.07380752131233267
% es.Ez (V/m) @ t=0.08
-0.9520962493395372
% es.tEx (V/m) @ t=0.08
1.9183027003198596
% es.tEy (V/m) @ t=0.08
0
% es.tEz (V/m) @ t=0.08
-0.9520962493395331
% V (V) @ t=0.08
0.009722107089550104
% es.normE (V/m) @ t=0.1
2.1626672339109665
% es.EX (V/m) @ t=0.1
1.9360403460012103
% es.EY (V/m) @ t=0.1
0.07448998211689029
% es.EZ (V/m) @ t=0.1
-0.9608998505763169
% es.tEX (V/m) @ t=0.1
1.9360403460012163
% es.tEY (V/m) @ t=0.1
0
% es.tEZ (V/m) @ t=0.1
-0.9608998505763182
% es.Ex (V/m) @ t=0.1
1.9360403460012103
% es.Ey (V/m) @ t=0.1
0.07448998211689029
% es.Ez (V/m) @ t=0.1
-0.9608998505763169
% es.tEx (V/m) @ t=0.1
1.9360403460012163
% es.tEy (V/m) @ t=0.1
0
% es.tEz (V/m) @ t=0.1
-0.9608998505763182
% V (V) @ t=0.1
0.00981200362438027
% es.normE (V/m) @ t=0.12
2.18248119936631
% es.EX (V/m) @ t=0.12
1.9537779916825795
% es.EY (V/m) @ t=0.12
0.07517244292147807
% es.EZ (V/m) @ t=0.12
-0.9697034518131071
% es.tEX (V/m) @ t=0.12
1.9537779916825722
% es.tEY (V/m) @ t=0.12
0
% es.tEZ (V/m) @ t=0.12
-0.9697034518130963
% es.Ex (V/m) @ t=0.12
1.9537779916825795
% es.Ey (V/m) @ t=0.12
0.07517244292147807
% es.Ez (V/m) @ t=0.12
-0.9697034518131071
% es.tEx (V/m) @ t=0.12
1.9537779916825722
% es.tEy (V/m) @ t=0.12
0
% es.tEz (V/m) @ t=0.12
-0.9697034518130963
% V (V) @ t=0.12
0.009901900159210433
% es.normE (V/m) @ t=0.14
2.2027146265251805
% es.EX (V/m) @ t=0.14
1.9718911484983201
% es.EY (V/m) @ t=0.14
0.07586935444244178
% es.EZ (V/m) @ t=0.14
-0.9786934147484396
% es.tEX (V/m) @ t=0.14
1.9718911484983188
% es.tEY (V/m) @ t=0.14
0
% es.tEZ (V/m) @ t=0.14
-0.9786934147484274
% es.Ex (V/m) @ t=0.14
1.9718911484983201
% es.Ey (V/m) @ t=0.14
0.07586935444244178
% es.Ez (V/m) @ t=0.14
-0.9786934147484396
% es.tEx (V/m) @ t=0.14
1.9718911484983188
% es.tEy (V/m) @ t=0.14
0
% es.tEz (V/m) @ t=0.14
-0.9786934147484274
% V (V) @ t=0.14
0.00999369908553756
% es.normE (V/m) @ t=0.16
2.2235492016436433
% es.EX (V/m) @ t=0.16
1.990542465890668
% es.EY (V/m) @ t=0.16
0.0765869758842049
% es.EZ (V/m) @ t=0.16
-0.9879504603611066
% es.tEX (V/m) @ t=0.16
1.9905424658906572
% es.tEY (V/m) @ t=0.16
0
% es.tEZ (V/m) @ t=0.16
-0.9879504603611053
% es.Ex (V/m) @ t=0.16
1.990542465890668
% es.Ey (V/m) @ t=0.16
0.0765869758842049
% es.Ez (V/m) @ t=0.16
-0.9879504603611066
% es.tEx (V/m) @ t=0.16
1.9905424658906572
% es.tEy (V/m) @ t=0.16
0
% es.tEz (V/m) @ t=0.16
-0.9879504603611053
% V (V) @ t=0.16
0.01008822440799836
% es.normE (V/m) @ t=0.18
2.244383776762114
% es.EX (V/m) @ t=0.18
2.0091937832830125
% es.EY (V/m) @ t=0.18
0.07730459732595918
% es.EZ (V/m) @ t=0.18
-0.9972075059737984
% es.tEX (V/m) @ t=0.18
2.009193783283016
% es.tEY (V/m) @ t=0.18
0
% es.tEZ (V/m) @ t=0.18
-0.9972075059737975
% es.Ex (V/m) @ t=0.18
2.0091937832830125
% es.Ey (V/m) @ t=0.18
0.07730459732595918
% es.Ez (V/m) @ t=0.18
-0.9972075059737984
% es.tEx (V/m) @ t=0.18
2.009193783283016
% es.tEy (V/m) @ t=0.18
0
% es.tEz (V/m) @ t=0.18
-0.9972075059737975
% V (V) @ t=0.18
0.010182749730459163
% es.normE (V/m) @ t=0.2
2.2652183518805953
% es.EX (V/m) @ t=0.2
2.0278451006753633
% es.EY (V/m) @ t=0.2
0.07802221876773827
% es.EZ (V/m) @ t=0.2
-1.0064645515864972
% es.tEX (V/m) @ t=0.2
2.0278451006753606
% es.tEY (V/m) @ t=0.2
0
% es.tEZ (V/m) @ t=0.2
-1.0064645515864825
% es.Ex (V/m) @ t=0.2
2.0278451006753633
% es.Ey (V/m) @ t=0.2
0.07802221876773827
% es.Ez (V/m) @ t=0.2
-1.0064645515864972
% es.tEx (V/m) @ t=0.2
2.0278451006753606
% es.tEy (V/m) @ t=0.2
0
% es.tEz (V/m) @ t=0.2
-1.0064645515864825
% V (V) @ t=0.2
0.010277275052919964
% es.normE (V/m) @ t=0.22
2.286052926999057
% es.EX (V/m) @ t=0.22
2.0464964180677114
% es.EY (V/m) @ t=0.22
0.07873984020949429
% es.EZ (V/m) @ t=0.22
-1.0157215971991607
% es.tEX (V/m) @ t=0.22
2.046496418067713
% es.tEY (V/m) @ t=0.22
0
% es.tEZ (V/m) @ t=0.22
-1.0157215971991675
% es.Ex (V/m) @ t=0.22
2.0464964180677114
% es.Ey (V/m) @ t=0.22
0.07873984020949429
% es.Ez (V/m) @ t=0.22
-1.0157215971991607
% es.tEx (V/m) @ t=0.22
2.046496418067713
% es.tEy (V/m) @ t=0.22
0
% es.tEz (V/m) @ t=0.22
-1.0157215971991675
% V (V) @ t=0.22
0.010371800375380769
% es.normE (V/m) @ t=0.24
2.3068875021175432
% es.EX (V/m) @ t=0.24
2.0651477354600662
% es.EY (V/m) @ t=0.24
0.07945746165127426
% es.EZ (V/m) @ t=0.24
-1.024978642811863
% es.tEX (V/m) @ t=0.24
2.065147735460058
% es.tEY (V/m) @ t=0.24
0
% es.tEZ (V/m) @ t=0.24
-1.0249786428118526
% es.Ex (V/m) @ t=0.24
2.0651477354600662
% es.Ey (V/m) @ t=0.24
0.07945746165127426
% es.Ez (V/m) @ t=0.24
-1.024978642811863
% es.tEx (V/m) @ t=0.24
2.065147735460058
% es.tEy (V/m) @ t=0.24
0
% es.tEz (V/m) @ t=0.24
-1.0249786428118526
% V (V) @ t=0.24
0.010466325697841571
% es.normE (V/m) @ t=0.26
2.3277220772360216
% es.EX (V/m) @ t=0.26
2.0837990528524215
% es.EY (V/m) @ t=0.26
0.0801750830930463
% es.EZ (V/m) @ t=0.26
-1.0342356884245478
% es.tEX (V/m) @ t=0.26
2.0837990528524246
% es.tEY (V/m) @ t=0.26
0
% es.tEZ (V/m) @ t=0.26
-1.0342356884245376
% es.Ex (V/m) @ t=0.26
2.0837990528524215
% es.Ey (V/m) @ t=0.26
0.0801750830930463
% es.Ez (V/m) @ t=0.26
-1.0342356884245478
% es.tEx (V/m) @ t=0.26
2.0837990528524246
% es.tEy (V/m) @ t=0.26
0
% es.tEz (V/m) @ t=0.26
-1.0342356884245376
% V (V) @ t=0.26
0.010560851020302374
% es.normE (V/m) @ t=0.28
2.350458883810478
% es.EX (V/m) @ t=0.28
2.104153257276401
% es.EY (V/m) @ t=0.28
0.08095821878816709
% es.EZ (V/m) @ t=0.28
-1.0443379370356523
% es.tEX (V/m) @ t=0.28
2.104153257276396
% es.tEY (V/m) @ t=0.28
0
% es.tEZ (V/m) @ t=0.28
-1.0443379370356425
% es.Ex (V/m) @ t=0.28
2.104153257276401
% es.Ey (V/m) @ t=0.28
0.08095821878816709
% es.Ez (V/m) @ t=0.28
-1.0443379370356523
% es.tEx (V/m) @ t=0.28
2.104153257276396
% es.tEy (V/m) @ t=0.28
0
% es.tEz (V/m) @ t=0.28
-1.0443379370356425
% V (V) @ t=0.28
0.010664007979772645
% es.normE (V/m) @ t=0.3
2.3735808385059984
% es.EX (V/m) @ t=0.3
2.1248522482081245
% es.EY (V/m) @ t=0.3
0.0817546192684851
% es.EZ (V/m) @ t=0.3
-1.0546113153721661
% es.tEX (V/m) @ t=0.3
2.1248522482081196
% es.tEY (V/m) @ t=0.3
0
% es.tEZ (V/m) @ t=0.3
-1.0546113153721635
% es.Ex (V/m) @ t=0.3
2.1248522482081245
% es.Ey (V/m) @ t=0.3
0.0817546192684851
% es.Ez (V/m) @ t=0.3
-1.0546113153721661
% es.tEx (V/m) @ t=0.3
2.1248522482081196
% es.tEy (V/m) @ t=0.3
0
% es.tEz (V/m) @ t=0.3
-1.0546113153721635
% V (V) @ t=0.3
0.010768912601844885
% es.normE (V/m) @ t=0.32
2.3967027932015235
% es.EX (V/m) @ t=0.32
2.145551239139848
% es.EY (V/m) @ t=0.32
0.08255101974879075
% es.EZ (V/m) @ t=0.32
-1.0648846937086909
% es.tEX (V/m) @ t=0.32
2.1455512391398432
% es.tEY (V/m) @ t=0.32
0
% es.tEZ (V/m) @ t=0.32
-1.0648846937086773
% es.Ex (V/m) @ t=0.32
2.145551239139848
% es.Ey (V/m) @ t=0.32
0.08255101974879075
% es.Ez (V/m) @ t=0.32
-1.0648846937086909
% es.tEx (V/m) @ t=0.32
2.1455512391398432
% es.tEy (V/m) @ t=0.32
0
% es.tEz (V/m) @ t=0.32
-1.0648846937086773
% V (V) @ t=0.32
0.010873817223917122
% es.normE (V/m) @ t=0.34
2.4198247478970405
% es.EX (V/m) @ t=0.34
2.166250230071565
% es.EY (V/m) @ t=0.34
0.0833474202290955
% es.EZ (V/m) @ t=0.34
-1.075158072045212
% es.tEX (V/m) @ t=0.34
2.166250230071567
% es.tEY (V/m) @ t=0.34
0
% es.tEZ (V/m) @ t=0.34
-1.0751580720451912
% es.Ex (V/m) @ t=0.34
2.166250230071565
% es.Ey (V/m) @ t=0.34
0.0833474202290955
% es.Ez (V/m) @ t=0.34
-1.075158072045212
% es.tEx (V/m) @ t=0.34
2.166250230071567
% es.tEy (V/m) @ t=0.34
0
% es.tEz (V/m) @ t=0.34
-1.0751580720451912
% V (V) @ t=0.34
0.010978721845989364
% es.normE (V/m) @ t=0.36
2.4429467025925735
% es.EX (V/m) @ t=0.36
2.186949221003295
% es.EY (V/m) @ t=0.36
0.08414382070941798
% es.EZ (V/m) @ t=0.36
-1.0854314503817402
% es.tEX (V/m) @ t=0.36
2.1869492210032897
% es.tEY (V/m) @ t=0.36
0
% es.tEZ (V/m) @ t=0.36
-1.0854314503817406
% es.Ex (V/m) @ t=0.36
2.186949221003295
% es.Ey (V/m) @ t=0.36
0.08414382070941798
% es.Ez (V/m) @ t=0.36
-1.0854314503817402
% es.tEx (V/m) @ t=0.36
2.1869492210032897
% es.tEy (V/m) @ t=0.36
0
% es.tEz (V/m) @ t=0.36
-1.0854314503817406
% V (V) @ t=0.36
0.0110836264680616
% es.normE (V/m) @ t=0.38
2.4660686572880897
% es.EX (V/m) @ t=0.38
2.2076482119350156
% es.EY (V/m) @ t=0.38
0.08494022118969163
% es.EZ (V/m) @ t=0.38
-1.0957048287182543
% es.tEX (V/m) @ t=0.38
2.2076482119350143
% es.tEY (V/m) @ t=0.38
0
% es.tEZ (V/m) @ t=0.38
-1.0957048287182545
% es.Ex (V/m) @ t=0.38
2.2076482119350156
% es.Ey (V/m) @ t=0.38
0.08494022118969163
% es.Ez (V/m) @ t=0.38
-1.0957048287182543
% es.tEx (V/m) @ t=0.38
2.2076482119350143
% es.tEy (V/m) @ t=0.38
0
% es.tEz (V/m) @ t=0.38
-1.0957048287182545
% V (V) @ t=0.38
0.011188531090133838
% es.normE (V/m) @ t=0.4
2.489190611983628
% es.EX (V/m) @ t=0.4
2.228347202866746
% es.EY (V/m) @ t=0.4
0.08573662167004081
% es.EZ (V/m) @ t=0.4
-1.1059782070547932
% es.tEX (V/m) @ t=0.4
2.228347202866744
% es.tEY (V/m) @ t=0.4
0
% es.tEZ (V/m) @ t=0.4
-1.1059782070547897
% es.Ex (V/m) @ t=0.4
2.228347202866746
% es.Ey (V/m) @ t=0.4
0.08573662167004081
% es.Ez (V/m) @ t=0.4
-1.1059782070547932
% es.tEx (V/m) @ t=0.4
2.228347202866744
% es.tEy (V/m) @ t=0.4
0
% es.tEz (V/m) @ t=0.4
-1.1059782070547897
% V (V) @ t=0.4
0.011293435712206076
% es.normE (V/m) @ t=0.42
2.5123125666791477
% es.EX (V/m) @ t=0.42
2.249046193798462
% es.EY (V/m) @ t=0.42
0.08653302215032954
% es.EZ (V/m) @ t=0.42
-1.1162515853913215
% es.tEX (V/m) @ t=0.42
2.249046193798467
% es.tEY (V/m) @ t=0.42
0
% es.tEZ (V/m) @ t=0.42
-1.1162515853913106
% es.Ex (V/m) @ t=0.42
2.249046193798462
% es.Ey (V/m) @ t=0.42
0.08653302215032954
% es.Ez (V/m) @ t=0.42
-1.1162515853913215
% es.tEx (V/m) @ t=0.42
2.249046193798467
% es.tEy (V/m) @ t=0.42
0
% es.tEz (V/m) @ t=0.42
-1.1162515853913106
% V (V) @ t=0.42
0.011398340334278317
% es.normE (V/m) @ t=0.44
2.5354345213746625
% es.EX (V/m) @ t=0.44
2.2697451847301795
% es.EY (V/m) @ t=0.44
0.08732942263063342
% es.EZ (V/m) @ t=0.44
-1.1265249637278356
% es.tEX (V/m) @ t=0.44
2.2697451847301764
% es.tEY (V/m) @ t=0.44
0
% es.tEZ (V/m) @ t=0.44
-1.1265249637278245
% es.Ex (V/m) @ t=0.44
2.2697451847301795
% es.Ey (V/m) @ t=0.44
0.08732942263063342
% es.Ez (V/m) @ t=0.44
-1.1265249637278356
% es.tEx (V/m) @ t=0.44
2.2697451847301764
% es.tEy (V/m) @ t=0.44
0
% es.tEz (V/m) @ t=0.44
-1.1265249637278245
% V (V) @ t=0.44
0.011503244956350555
% es.normE (V/m) @ t=0.46
2.5585564760701813
% es.EX (V/m) @ t=0.46
2.290444175661903
% es.EY (V/m) @ t=0.46
0.08812582311094169
% es.EZ (V/m) @ t=0.46
-1.136798342064346
% es.tEX (V/m) @ t=0.46
2.2904441756619
% es.tEY (V/m) @ t=0.46
0
% es.tEZ (V/m) @ t=0.46
-1.1367983420643455
% es.Ex (V/m) @ t=0.46
2.290444175661903
% es.Ey (V/m) @ t=0.46
0.08812582311094169
% es.Ez (V/m) @ t=0.46
-1.136798342064346
% es.tEx (V/m) @ t=0.46
2.2904441756619
% es.tEy (V/m) @ t=0.46
0
% es.tEz (V/m) @ t=0.46
-1.1367983420643455
% V (V) @ t=0.46
0.011608149578422794
% es.normE (V/m) @ t=0.48
2.5816784307657112
% es.EX (V/m) @ t=0.48
2.311143166593634
% es.EY (V/m) @ t=0.48
0.08892222359125262
% es.EZ (V/m) @ t=0.48
-1.1470717204008671
% es.tEX (V/m) @ t=0.48
2.311143166593631
% es.tEY (V/m) @ t=0.48
0
% es.tEZ (V/m) @ t=0.48
-1.1470717204008665
% es.Ex (V/m) @ t=0.48
2.311143166593634
% es.Ey (V/m) @ t=0.48
0.08892222359125262
% es.Ez (V/m) @ t=0.48
-1.1470717204008671
% es.tEx (V/m) @ t=0.48
2.311143166593631
% es.tEy (V/m) @ t=0.48
0
% es.tEz (V/m) @ t=0.48
-1.1470717204008665
% V (V) @ t=0.48
0.011713054200495033
% es.normE (V/m) @ t=0.5
2.6048003854612487
% es.EX (V/m) @ t=0.5
2.3318421575253643
% es.EY (V/m) @ t=0.5
0.0897186240715574
% es.EZ (V/m) @ t=0.5
-1.157345098737406
% es.tEX (V/m) @ t=0.5
2.3318421575253607
% es.tEY (V/m) @ t=0.5
0
% es.tEZ (V/m) @ t=0.5
-1.1573450987374017
% es.Ex (V/m) @ t=0.5
2.3318421575253643
% es.Ey (V/m) @ t=0.5
0.0897186240715574
% es.Ez (V/m) @ t=0.5
-1.157345098737406
% es.tEx (V/m) @ t=0.5
2.3318421575253607
% es.tEy (V/m) @ t=0.5
0
% es.tEz (V/m) @ t=0.5
-1.1573450987374017
% V (V) @ t=0.5
0.011817958822567273
% es.normE (V/m) @ t=0.52
2.6279223401567573
% es.EX (V/m) @ t=0.52
2.3525411484570773
% es.EY (V/m) @ t=0.52
0.09051502455187721
% es.EZ (V/m) @ t=0.52
-1.1676184770739129
% es.tEX (V/m) @ t=0.52
2.3525411484570773
% es.tEY (V/m) @ t=0.52
0
% es.tEZ (V/m) @ t=0.52
-1.1676184770739155
% es.Ex (V/m) @ t=0.52
2.3525411484570773
% es.Ey (V/m) @ t=0.52
0.09051502455187721
% es.Ez (V/m) @ t=0.52
-1.1676184770739129
% es.tEx (V/m) @ t=0.52
2.3525411484570773
% es.tEy (V/m) @ t=0.52
0
% es.tEz (V/m) @ t=0.52
-1.1676184770739155
% V (V) @ t=0.52
0.011922863444639512
% es.normE (V/m) @ t=0.54
2.6527784138010917
% es.EX (V/m) @ t=0.54
2.374792636278654
% es.EY (V/m) @ t=0.54
0.09137120963707085
% es.EZ (V/m) @ t=0.54
-1.1786621460720539
% es.tEX (V/m) @ t=0.54
2.374792636278648
% es.tEY (V/m) @ t=0.54
0
% es.tEZ (V/m) @ t=0.54
-1.1786621460720283
% es.Ex (V/m) @ t=0.54
2.374792636278654
% es.Ey (V/m) @ t=0.54
0.09137120963707085
% es.Ez (V/m) @ t=0.54
-1.1786621460720539
% es.tEx (V/m) @ t=0.54
2.374792636278648
% es.tEy (V/m) @ t=0.54
0
% es.tEz (V/m) @ t=0.54
-1.1786621460720283
% V (V) @ t=0.54
0.012035622192079409
% es.normE (V/m) @ t=0.56
2.67847753355764
% es.EX (V/m) @ t=0.56
2.397798874210133
% es.EY (V/m) @ t=0.56
0.09225645915222003
% es.EZ (V/m) @ t=0.56
-1.1900802937343409
% es.tEX (V/m) @ t=0.56
2.3977988742101255
% es.tEY (V/m) @ t=0.56
0
% es.tEZ (V/m) @ t=0.56
-1.1900802937343329
% es.Ex (V/m) @ t=0.56
2.397798874210133
% es.Ey (V/m) @ t=0.56
0.09225645915222003
% es.Ez (V/m) @ t=0.56
-1.1900802937343409
% es.tEx (V/m) @ t=0.56
2.3977988742101255
% es.tEy (V/m) @ t=0.56
0
% es.tEz (V/m) @ t=0.56
-1.1900802937343329
% V (V) @ t=0.56
0.012152199241522492
% es.normE (V/m) @ t=0.58
2.7041766533142604
% es.EX (V/m) @ t=0.58
2.420805112141626
% es.EY (V/m) @ t=0.58
0.09314170866735677
% es.EZ (V/m) @ t=0.58
-1.2014984413966527
% es.tEX (V/m) @ t=0.58
2.4208051121416094
% es.tEY (V/m) @ t=0.58
0
% es.tEZ (V/m) @ t=0.58
-1.2014984413966516
% es.Ex (V/m) @ t=0.58
2.420805112141626
% es.Ey (V/m) @ t=0.58
0.09314170866735677
% es.Ez (V/m) @ t=0.58
-1.2014984413966527
% es.tEx (V/m) @ t=0.58
2.4208051121416094
% es.tEy (V/m) @ t=0.58
0
% es.tEz (V/m) @ t=0.58
-1.2014984413966516
% V (V) @ t=0.58
0.012268776290965577
% es.normE (V/m) @ t=0.6
2.729875773070903
% es.EX (V/m) @ t=0.6
2.4438113500730894
% es.EY (V/m) @ t=0.6
0.09402695818249357
% es.EZ (V/m) @ t=0.6
-1.2129165890589646
% es.tEX (V/m) @ t=0.6
2.4438113500730934
% es.tEY (V/m) @ t=0.6
0
% es.tEZ (V/m) @ t=0.6
-1.212916589058949
% es.Ex (V/m) @ t=0.6
2.4438113500730894
% es.Ey (V/m) @ t=0.6
0.09402695818249357
% es.Ez (V/m) @ t=0.6
-1.2129165890589646
% es.tEx (V/m) @ t=0.6
2.4438113500730934
% es.tEy (V/m) @ t=0.6
0
% es.tEz (V/m) @ t=0.6
-1.212916589058949
% V (V) @ t=0.6
0.012385353340408663
% es.normE (V/m) @ t=0.62
2.755574892827606
% es.EX (V/m) @ t=0.62
2.4668175880045755
% es.EY (V/m) @ t=0.62
0.09491220769763126
% es.EZ (V/m) @ t=0.62
-1.224334736721262
% es.tEX (V/m) @ t=0.62
2.466817588004571
% es.tEY (V/m) @ t=0.62
0
% es.tEZ (V/m) @ t=0.62
-1.2243347367212678
% es.Ex (V/m) @ t=0.62
2.4668175880045755
% es.Ey (V/m) @ t=0.62
0.09491220769763126
% es.Ez (V/m) @ t=0.62
-1.224334736721262
% es.tEx (V/m) @ t=0.62
2.466817588004571
% es.tEy (V/m) @ t=0.62
0
% es.tEz (V/m) @ t=0.62
-1.2243347367212678
% V (V) @ t=0.62
0.012501930389851746
% es.normE (V/m) @ t=0.64
2.7812740125843507
% es.EX (V/m) @ t=0.64
2.4898238259360532
% es.EY (V/m) @ t=0.64
0.09579745721279648
% es.EZ (V/m) @ t=0.64
-1.2357528843835668
% es.tEX (V/m) @ t=0.64
2.489823825936047
% es.tEY (V/m) @ t=0.64
0
% es.tEZ (V/m) @ t=0.64
-1.2357528843835581
% es.Ex (V/m) @ t=0.64
2.4898238259360532
% es.Ey (V/m) @ t=0.64
0.09579745721279648
% es.Ez (V/m) @ t=0.64
-1.2357528843835668
% es.tEx (V/m) @ t=0.64
2.489823825936047
% es.tEy (V/m) @ t=0.64
0
% es.tEz (V/m) @ t=0.64
-1.2357528843835581
% V (V) @ t=0.64
0.01261850743929483
% es.normE (V/m) @ t=0.66
2.806973132341142
% es.EX (V/m) @ t=0.66
2.5128300638675354
% es.EY (V/m) @ t=0.66
0.0966827067279048
% es.EZ (V/m) @ t=0.66
-1.2471710320458715
% es.tEX (V/m) @ t=0.66
2.512830063867532
% es.tEY (V/m) @ t=0.66
0
% es.tEZ (V/m) @ t=0.66
-1.2471710320458627
% es.Ex (V/m) @ t=0.66
2.5128300638675354
% es.Ey (V/m) @ t=0.66
0.0966827067279048
% es.Ez (V/m) @ t=0.66
-1.2471710320458715
% es.tEx (V/m) @ t=0.66
2.512830063867532
% es.tEy (V/m) @ t=0.66
0
% es.tEz (V/m) @ t=0.66
-1.2471710320458627
% V (V) @ t=0.66
0.012735084488737917
% es.normE (V/m) @ t=0.68
2.832672252097984
% es.EX (V/m) @ t=0.68
2.5358363017990166
% es.EY (V/m) @ t=0.68
0.0975679562430718
% es.EZ (V/m) @ t=0.68
-1.2585891797081903
% es.tEX (V/m) @ t=0.68
2.535836301799015
% es.tEY (V/m) @ t=0.68
0
% es.tEZ (V/m) @ t=0.68
-1.2585891797081885
% es.Ex (V/m) @ t=0.68
2.5358363017990166
% es.Ey (V/m) @ t=0.68
0.0975679562430718
% es.Ez (V/m) @ t=0.68
-1.2585891797081903
% es.tEx (V/m) @ t=0.68
2.535836301799015
% es.tEy (V/m) @ t=0.68
0
% es.tEz (V/m) @ t=0.68
-1.2585891797081885
% V (V) @ t=0.68
0.012851661538181002
% es.normE (V/m) @ t=0.7
2.858371371854844
% es.EX (V/m) @ t=0.7
2.5588425397304846
% es.EY (V/m) @ t=0.7
0.09845320575819877
% es.EZ (V/m) @ t=0.7
-1.270007327370488
% es.tEX (V/m) @ t=0.7
2.5588425397304846
% es.tEY (V/m) @ t=0.7
0
% es.tEZ (V/m) @ t=0.7
-1.2700073273704788
% es.Ex (V/m) @ t=0.7
2.5588425397304846
% es.Ey (V/m) @ t=0.7
0.09845320575819877
% es.Ez (V/m) @ t=0.7
-1.270007327370488
% es.tEx (V/m) @ t=0.7
2.5588425397304846
% es.tEy (V/m) @ t=0.7
0
% es.tEz (V/m) @ t=0.7
-1.2700073273704788
% V (V) @ t=0.7
0.012968238587624085
% es.normE (V/m) @ t=0.72
2.8840704916117694
% es.EX (V/m) @ t=0.72
2.58184877766197
% es.EY (V/m) @ t=0.72
0.0993384552733515
% es.EZ (V/m) @ t=0.72
-1.2814254750328034
% es.tEX (V/m) @ t=0.72
2.5818487776619676
% es.tEY (V/m) @ t=0.72
0
% es.tEZ (V/m) @ t=0.72
-1.2814254750328118
% es.Ex (V/m) @ t=0.72
2.58184877766197
% es.Ey (V/m) @ t=0.72
0.0993384552733515
% es.Ez (V/m) @ t=0.72
-1.2814254750328034
% es.tEx (V/m) @ t=0.72
2.5818487776619676
% es.tEy (V/m) @ t=0.72
0
% es.tEz (V/m) @ t=0.72
-1.2814254750328118
% V (V) @ t=0.72
0.013084815637067171
% es.normE (V/m) @ t=0.74
2.9097696113687324
% es.EX (V/m) @ t=0.74
2.6048550155934596
% es.EY (V/m) @ t=0.74
0.10022370478850429
% es.EZ (V/m) @ t=0.74
-1.2928436226951043
% es.tEX (V/m) @ t=0.74
2.6048550155934453
% es.tEY (V/m) @ t=0.74
0
% es.tEZ (V/m) @ t=0.74
-1.2928436226951021
% es.Ex (V/m) @ t=0.74
2.6048550155934596
% es.Ey (V/m) @ t=0.74
0.10022370478850429
% es.Ez (V/m) @ t=0.74
-1.2928436226951043
% es.tEx (V/m) @ t=0.74
2.6048550155934453
% es.tEy (V/m) @ t=0.74
0
% es.tEz (V/m) @ t=0.74
-1.2928436226951021
% V (V) @ t=0.74
0.013201392686510256
% es.normE (V/m) @ t=0.76
2.935468731125722
% es.EX (V/m) @ t=0.76
2.6278612535249266
% es.EY (V/m) @ t=0.76
0.1011089543036357
% es.EZ (V/m) @ t=0.76
-1.3042617703574269
% es.tEX (V/m) @ t=0.76
2.6278612535249284
% es.tEY (V/m) @ t=0.76
0
% es.tEZ (V/m) @ t=0.76
-1.3042617703574209
% es.Ex (V/m) @ t=0.76
2.6278612535249266
% es.Ey (V/m) @ t=0.76
0.1011089543036357
% es.Ez (V/m) @ t=0.76
-1.3042617703574269
% es.tEx (V/m) @ t=0.76
2.6278612535249284
% es.tEy (V/m) @ t=0.76
0
% es.tEz (V/m) @ t=0.76
-1.3042617703574209
% V (V) @ t=0.76
0.013317969735953342
% es.normE (V/m) @ t=0.78
2.9611678508827586
% es.EX (V/m) @ t=0.78
2.6508674914564123
% es.EY (V/m) @ t=0.78
0.10199420381878133
% es.EZ (V/m) @ t=0.78
-1.3156799180197316
% es.tEX (V/m) @ t=0.78
2.650867491456414
% es.tEY (V/m) @ t=0.78
0
% es.tEZ (V/m) @ t=0.78
-1.3156799180197254
% es.Ex (V/m) @ t=0.78
2.6508674914564123
% es.Ey (V/m) @ t=0.78
0.10199420381878133
% es.Ez (V/m) @ t=0.78
-1.3156799180197316
% es.tEx (V/m) @ t=0.78
2.650867491456414
% es.tEy (V/m) @ t=0.78
0
% es.tEz (V/m) @ t=0.78
-1.3156799180197254
% V (V) @ t=0.78
0.013434546785396425
% es.normE (V/m) @ t=0.8
2.9883642803669503
% es.EX (V/m) @ t=0.8
2.675214241352066
% es.EY (V/m) @ t=0.8
0.10293108870989859
% es.EZ (V/m) @ t=0.8
-1.3277631204683402
% es.tEX (V/m) @ t=0.8
2.6752142413520614
% es.tEY (V/m) @ t=0.8
0
% es.tEZ (V/m) @ t=0.8
-1.3277631204683331
% es.Ex (V/m) @ t=0.8
2.675214241352066
% es.Ey (V/m) @ t=0.8
0.10293108870989859
% es.Ez (V/m) @ t=0.8
-1.3277631204683402
% es.tEx (V/m) @ t=0.8
2.6752142413520614
% es.tEy (V/m) @ t=0.8
0
% es.tEz (V/m) @ t=0.8
-1.3277631204683331
% V (V) @ t=0.8
0.013557902253312309
% es.normE (V/m) @ t=0.82
3.0169756799999927
% es.EX (V/m) @ t=0.82
2.700827786205938
% es.EY (V/m) @ t=0.82
0.10391676946088763
% es.EZ (V/m) @ t=0.82
-1.340474805222783
% es.tEX (V/m) @ t=0.82
2.700827786205938
% es.tEY (V/m) @ t=0.82
0
% es.tEZ (V/m) @ t=0.82
-1.3404748052227902
% es.Ex (V/m) @ t=0.82
2.700827786205938
% es.Ey (V/m) @ t=0.82
0.10391676946088763
% es.Ez (V/m) @ t=0.82
-1.340474805222783
% es.tEx (V/m) @ t=0.82
2.700827786205938
% es.tEy (V/m) @ t=0.82
0
% es.tEz (V/m) @ t=0.82
-1.3404748052227902
% V (V) @ t=0.82
0.01368766338307638
% es.normE (V/m) @ t=0.84
3.045587079633262
% es.EX (V/m) @ t=0.84
2.726441331059788
% es.EY (V/m) @ t=0.84
0.10490245021187844
% es.EZ (V/m) @ t=0.84
-1.3531864899772366
% es.tEX (V/m) @ t=0.84
2.7264413310597915
% es.tEY (V/m) @ t=0.84
0
% es.tEZ (V/m) @ t=0.84
-1.353186489977226
% es.Ex (V/m) @ t=0.84
2.726441331059788
% es.Ey (V/m) @ t=0.84
0.10490245021187844
% es.Ez (V/m) @ t=0.84
-1.3531864899772366
% es.tEx (V/m) @ t=0.84
2.7264413310597915
% es.tEy (V/m) @ t=0.84
0
% es.tEz (V/m) @ t=0.84
-1.353186489977226
% V (V) @ t=0.84
0.013817424512840449
% es.normE (V/m) @ t=0.86
3.074198479266793
% es.EX (V/m) @ t=0.86
2.75205487591366
% es.EY (V/m) @ t=0.86
0.10588813096282845
% es.EZ (V/m) @ t=0.86
-1.3658981747317078
% es.tEX (V/m) @ t=0.86
2.752054875913659
% es.tEY (V/m) @ t=0.86
0
% es.tEZ (V/m) @ t=0.86
-1.3658981747317043
% es.Ex (V/m) @ t=0.86
2.75205487591366
% es.Ey (V/m) @ t=0.86
0.10588813096282845
% es.Ez (V/m) @ t=0.86
-1.3658981747317078
% es.tEx (V/m) @ t=0.86
2.752054875913659
% es.tEy (V/m) @ t=0.86
0
% es.tEz (V/m) @ t=0.86
-1.3658981747317043
% V (V) @ t=0.86
0.013947185642604519
% es.normE (V/m) @ t=0.88
3.1028098789005325
% es.EX (V/m) @ t=0.88
2.7776684207675246
% es.EY (V/m) @ t=0.88
0.1068738117138388
% es.EZ (V/m) @ t=0.88
-1.3786098594861436
% es.tEX (V/m) @ t=0.88
2.777668420767527
% es.tEY (V/m) @ t=0.88
0
% es.tEZ (V/m) @ t=0.88
-1.3786098594861187
% es.Ex (V/m) @ t=0.88
2.7776684207675246
% es.Ey (V/m) @ t=0.88
0.1068738117138388
% es.Ez (V/m) @ t=0.88
-1.3786098594861436
% es.tEx (V/m) @ t=0.88
2.777668420767527
% es.tEy (V/m) @ t=0.88
0
% es.tEz (V/m) @ t=0.88
-1.3786098594861187
% V (V) @ t=0.88
0.014076946772368593
% es.normE (V/m) @ t=0.9
3.13142127853449
% es.EX (V/m) @ t=0.9
2.8032819656213825
% es.EY (V/m) @ t=0.9
0.10785949246482163
% es.EZ (V/m) @ t=0.9
-1.3913215442405829
% es.tEX (V/m) @ t=0.9
2.8032819656213803
% es.tEY (V/m) @ t=0.9
0
% es.tEZ (V/m) @ t=0.9
-1.39132154424059
% es.Ex (V/m) @ t=0.9
2.8032819656213825
% es.Ey (V/m) @ t=0.9
0.10785949246482163
% es.Ez (V/m) @ t=0.9
-1.3913215442405829
% es.tEx (V/m) @ t=0.9
2.8032819656213803
% es.tEy (V/m) @ t=0.9
0
% es.tEz (V/m) @ t=0.9
-1.39132154424059
% V (V) @ t=0.9
0.014206707902132661
% es.normE (V/m) @ t=0.92
3.1600326781686787
% es.EX (V/m) @ t=0.92
2.8288955104752502
% es.EY (V/m) @ t=0.92
0.10884517321579384
% es.EZ (V/m) @ t=0.92
-1.4040332289950364
% es.tEX (V/m) @ t=0.92
2.828895510475249
% es.tEY (V/m) @ t=0.92
0
% es.tEZ (V/m) @ t=0.92
-1.4040332289950186
% es.Ex (V/m) @ t=0.92
2.8288955104752502
% es.Ey (V/m) @ t=0.92
0.10884517321579384
% es.Ez (V/m) @ t=0.92
-1.4040332289950364
% es.tEx (V/m) @ t=0.92
2.828895510475249
% es.tEy (V/m) @ t=0.92
0
% es.tEz (V/m) @ t=0.92
-1.4040332289950186
% V (V) @ t=0.92
0.014336469031896733
% es.normE (V/m) @ t=0.94
3.18864407780308
% es.EX (V/m) @ t=0.94
2.8545090553291192
% es.EY (V/m) @ t=0.94
0.10983085396678649
% es.EZ (V/m) @ t=0.94
-1.4167449137494899
% es.tEX (V/m) @ t=0.94
2.8545090553291246
% es.tEY (V/m) @ t=0.94
0
% es.tEZ (V/m) @ t=0.94
-1.4167449137494827
% es.Ex (V/m) @ t=0.94
2.8545090553291192
% es.Ey (V/m) @ t=0.94
0.10983085396678649
% es.Ez (V/m) @ t=0.94
-1.4167449137494899
% es.tEx (V/m) @ t=0.94
2.8545090553291246
% es.tEy (V/m) @ t=0.94
0
% es.tEz (V/m) @ t=0.94
-1.4167449137494827
% V (V) @ t=0.94
0.014466230161660803
% es.normE (V/m) @ t=0.96
3.2172554774376776
% es.EX (V/m) @ t=0.96
2.880122600182984
% es.EY (V/m) @ t=0.96
0.11081653471776926
% es.EZ (V/m) @ t=0.96
-1.4294565985039325
% es.tEX (V/m) @ t=0.96
2.8801226001829843
% es.tEY (V/m) @ t=0.96
0
% es.tEZ (V/m) @ t=0.96
-1.4294565985039185
% es.Ex (V/m) @ t=0.96
2.880122600182984
% es.Ey (V/m) @ t=0.96
0.11081653471776926
% es.Ez (V/m) @ t=0.96
-1.4294565985039325
% es.tEx (V/m) @ t=0.96
2.8801226001829843
% es.tEy (V/m) @ t=0.96
0
% es.tEz (V/m) @ t=0.96
-1.4294565985039185
% V (V) @ t=0.96
0.014595991291424873
% es.normE (V/m) @ t=0.98
3.2458668770724755
% es.EX (V/m) @ t=0.98
2.905736145036842
% es.EY (V/m) @ t=0.98
0.11180221546874858
% es.EZ (V/m) @ t=0.98
-1.4421682832583895
% es.tEX (V/m) @ t=0.98
2.9057361450368386
% es.tEY (V/m) @ t=0.98
0
% es.tEZ (V/m) @ t=0.98
-1.4421682832583826
% es.Ex (V/m) @ t=0.98
2.905736145036842
% es.Ey (V/m) @ t=0.98
0.11180221546874858
% es.Ez (V/m) @ t=0.98
-1.4421682832583895
% es.tEx (V/m) @ t=0.98
2.9057361450368386
% es.tEy (V/m) @ t=0.98
0
% es.tEz (V/m) @ t=0.98
-1.4421682832583826
% V (V) @ t=0.98
0.014725752421188943
% es.normE (V/m) @ t=1
3.2744782767074523
% es.EX (V/m) @ t=1
2.9313496898906957
% es.EY (V/m) @ t=1
0.11278789621971713
% es.EZ (V/m) @ t=1
-1.4548799680128217
% es.tEX (V/m) @ t=1
2.9313496898906912
% es.tEY (V/m) @ t=1
0
% es.tEZ (V/m) @ t=1
-1.4548799680128255
% es.Ex (V/m) @ t=1
2.9313496898906957
% es.Ey (V/m) @ t=1
0.11278789621971713
% es.Ez (V/m) @ t=1
-1.4548799680128217
% es.tEx (V/m) @ t=1
2.9313496898906912
% es.tEy (V/m) @ t=1
0
% es.tEz (V/m) @ t=1
-1.4548799680128255
% V (V) @ t=1
0.014855513550953011
% es.normE (V/m) @ t=1.02
3.303089676342675
% es.EX (V/m) @ t=1.02
2.956963234744589
% es.EY (V/m) @ t=1.02
0.11377357697072399
% es.EZ (V/m) @ t=1.02
-1.4675916527672965
% es.tEX (V/m) @ t=1.02
2.956963234744567
% es.tEY (V/m) @ t=1.02
0
% es.tEZ (V/m) @ t=1.02
-1.4675916527672896
% es.Ex (V/m) @ t=1.02
2.956963234744589
% es.Ey (V/m) @ t=1.02
0.11377357697072399
% es.Ez (V/m) @ t=1.02
-1.4675916527672965
% es.tEx (V/m) @ t=1.02
2.956963234744567
% es.tEy (V/m) @ t=1.02
0
% es.tEz (V/m) @ t=1.02
-1.4675916527672896
% V (V) @ t=1.02
0.014985274680717085
% es.normE (V/m) @ t=1.04
3.331701075978014
% es.EX (V/m) @ t=1.04
2.982576779598433
% es.EY (V/m) @ t=1.04
0.11475925772168816
% es.EZ (V/m) @ t=1.04
-1.4803033375217216
% es.tEX (V/m) @ t=1.04
2.9825767795984355
% es.tEY (V/m) @ t=1.04
0
% es.tEZ (V/m) @ t=1.04