% Model:              1 neuron.mph
% Version:            COMSOL 6.1.0.252
% Date:               Mar 18 2023, 13:04
% Dimension:          0
% Nodes:              14017
% Expressions:        14017
% Description:        Electric field norm, Electric field, X component, Electric field, Y component, Electric field, Z component, Tangential electric field, X component, Tangential electric field, Y component, Tangential electric field, Z component, Electric field, x component, Electric field, y component, Electric field, z component, Tangential electric field, x component, Tangential electric field, y component, Tangential electric field, z component, Electric potential
% Length unit:        mm
% x
1.33
% y
12.2
% z
1
% es.normE (V/m) @ t=0
2.358826985819225
% es.EX (V/m) @ t=0
0.7280833358070414
% es.EY (V/m) @ t=0
0.17638819911276638
% es.EZ (V/m) @ t=0
2.2366882474857346
% es.tEX (V/m) @ t=0
0.7280833358070424
% es.tEY (V/m) @ t=0
0
% es.tEZ (V/m) @ t=0
2.2366882474857483
% es.Ex (V/m) @ t=0
0.7280833358070414
% es.Ey (V/m) @ t=0
0.17638819911276638
% es.Ez (V/m) @ t=0
2.2366882474857346
% es.tEx (V/m) @ t=0
0.7280833358070424
% es.tEy (V/m) @ t=0
0
% es.tEz (V/m) @ t=0
2.2366882474857483
% V (V) @ t=0
0.011032293572184538
% es.normE (V/m) @ t=0.02
2.0373427055380215
% es.EX (V/m) @ t=0.02
0.6288529350172035
% es.EY (V/m) @ t=0.02
0.15234827012378604
% es.EZ (V/m) @ t=0.02
1.931850242926958
% es.tEX (V/m) @ t=0.02
0.628852935017207
% es.tEY (V/m) @ t=0.02
0
% es.tEZ (V/m) @ t=0.02
1.9318502429269522
% es.Ex (V/m) @ t=0.02
0.6288529350172035
% es.Ey (V/m) @ t=0.02
0.15234827012378604
% es.Ez (V/m) @ t=0.02
1.931850242926958
% es.tEx (V/m) @ t=0.02
0.628852935017207
% es.tEy (V/m) @ t=0.02
0
% es.tEz (V/m) @ t=0.02
1.9318502429269522
% V (V) @ t=0.02
0.009528703442693846
% es.normE (V/m) @ t=0.04
2.056083931536944
% es.EX (V/m) @ t=0.04
0.6346376637801728
% es.EY (V/m) @ t=0.04
0.15374970022356427
% es.EZ (V/m) @ t=0.04
1.9496210587583613
% es.tEX (V/m) @ t=0.04
0.6346376637801683
% es.tEY (V/m) @ t=0.04
0
% es.tEZ (V/m) @ t=0.04
1.9496210587583676
% es.Ex (V/m) @ t=0.04
0.6346376637801728
% es.Ey (V/m) @ t=0.04
0.15374970022356427
% es.Ez (V/m) @ t=0.04
1.9496210587583613
% es.tEx (V/m) @ t=0.04
0.6346376637801683
% es.tEy (V/m) @ t=0.04
0
% es.tEz (V/m) @ t=0.04
1.9496210587583676
% V (V) @ t=0.04
0.009616356618065982
% es.normE (V/m) @ t=0.06
2.07497645017719
% es.EX (V/m) @ t=0.06
0.6404690910085817
% es.EY (V/m) @ t=0.06
0.1551624436623309
% es.EZ (V/m) @ t=0.06
1.9675353333900798
% es.tEX (V/m) @ t=0.06
0.6404690910085833
% es.tEY (V/m) @ t=0.06
0
% es.tEZ (V/m) @ t=0.06
1.9675353333900656
% es.Ex (V/m) @ t=0.06
0.6404690910085817
% es.Ey (V/m) @ t=0.06
0.1551624436623309
% es.Ez (V/m) @ t=0.06
1.9675353333900798
% es.tEx (V/m) @ t=0.06
0.6404690910085833
% es.tEy (V/m) @ t=0.06
0
% es.tEz (V/m) @ t=0.06
1.9675353333900656
% V (V) @ t=0.06
0.009704717434428809
% es.normE (V/m) @ t=0.08
2.094198285489494
% es.EX (V/m) @ t=0.08
0.6464021662331195
% es.EY (V/m) @ t=0.08
0.1565998127181364
% es.EZ (V/m) @ t=0.08
1.9857618728541793
% es.tEX (V/m) @ t=0.08
0.6464021662331234
% es.tEY (V/m) @ t=0.08
0
% es.tEZ (V/m) @ t=0.08
1.9857618728541802
% es.Ex (V/m) @ t=0.08
0.6464021662331195
% es.Ey (V/m) @ t=0.08
0.1565998127181364
% es.Ez (V/m) @ t=0.08
1.9857618728541793
% es.tEx (V/m) @ t=0.08
0.6464021662331234
% es.tEy (V/m) @ t=0.08
0
% es.tEz (V/m) @ t=0.08
1.9857618728541802
% V (V) @ t=0.08
0.009794618453272655
% es.normE (V/m) @ t=0.1
2.1135639319874535
% es.EX (V/m) @ t=0.1
0.6523796307038957
% es.EY (V/m) @ t=0.1
0.15804793567580777
% es.EZ (V/m) @ t=0.1
2.0041247770382986
% es.tEX (V/m) @ t=0.1
0.6523796307038978
% es.tEY (V/m) @ t=0.1
0
% es.tEZ (V/m) @ t=0.1
2.0041247770382977
% es.Ex (V/m) @ t=0.1
0.6523796307038957
% es.Ey (V/m) @ t=0.1
0.15804793567580777
% es.Ez (V/m) @ t=0.1
2.0041247770382986
% es.tEx (V/m) @ t=0.1
0.6523796307038978
% es.tEy (V/m) @ t=0.1
0
% es.tEz (V/m) @ t=0.1
2.0041247770382977
% V (V) @ t=0.1
0.009885192071968665
% es.normE (V/m) @ t=0.12
2.13292957848539
% es.EX (V/m) @ t=0.12
0.6583570951746622
% es.EY (V/m) @ t=0.12
0.15949605863348393
% es.EZ (V/m) @ t=0.12
2.022487681222396
% es.tEX (V/m) @ t=0.12
0.6583570951746651
% es.tEY (V/m) @ t=0.12
0
% es.tEZ (V/m) @ t=0.12
2.022487681222403
% es.Ex (V/m) @ t=0.12
0.6583570951746622
% es.Ey (V/m) @ t=0.12
0.15949605863348393
% es.Ez (V/m) @ t=0.12
2.022487681222396
% es.tEx (V/m) @ t=0.12
0.6583570951746651
% es.tEy (V/m) @ t=0.12
0
% es.tEz (V/m) @ t=0.12
2.022487681222403
% V (V) @ t=0.12
0.009975765690664676
% es.normE (V/m) @ t=0.14
2.152696656512936
% es.EX (V/m) @ t=0.14
0.6644584669397879
% es.EY (V/m) @ t=0.14
0.16097419970360471
% es.EZ (V/m) @ t=0.14
2.041231231008549
% es.tEX (V/m) @ t=0.14
0.6644584669397915
% es.tEY (V/m) @ t=0.14
0
% es.tEZ (V/m) @ t=0.14
2.041231231008558
% es.Ex (V/m) @ t=0.14
0.6644584669397879
% es.Ey (V/m) @ t=0.14
0.16097419970360471
% es.Ez (V/m) @ t=0.14
2.041231231008549
% es.tEx (V/m) @ t=0.14
0.6644584669397915
% es.tEy (V/m) @ t=0.14
0
% es.tEz (V/m) @ t=0.14
2.041231231008558
% V (V) @ t=0.14
0.010068216811004055
% es.normE (V/m) @ t=0.16
2.173061548868808
% es.EX (V/m) @ t=0.16
0.6707443622175716
% es.EY (V/m) @ t=0.16
0.16249704393331155
% es.EZ (V/m) @ t=0.16
2.0605416405905674
% es.tEX (V/m) @ t=0.16
0.6707443622175759
% es.tEY (V/m) @ t=0.16
0
% es.tEZ (V/m) @ t=0.16
2.060541640590582
% es.Ex (V/m) @ t=0.16
0.6707443622175716
% es.Ey (V/m) @ t=0.16
0.16249704393331155
% es.Ez (V/m) @ t=0.16
2.0605416405905674
% es.tEx (V/m) @ t=0.16
0.6707443622175759
% es.tEy (V/m) @ t=0.16
0
% es.tEz (V/m) @ t=0.16
2.060541640590582
% V (V) @ t=0.16
0.010163463918457545
% es.normE (V/m) @ t=0.18
2.1934264412246858
% es.EX (V/m) @ t=0.18
0.6770302574953572
% es.EY (V/m) @ t=0.18
0.16401988816300817
% es.EZ (V/m) @ t=0.18
2.079852050172593
% es.tEX (V/m) @ t=0.18
0.6770302574953604
% es.tEY (V/m) @ t=0.18
0
% es.tEZ (V/m) @ t=0.18
2.079852050172615
% es.Ex (V/m) @ t=0.18
0.6770302574953572
% es.Ey (V/m) @ t=0.18
0.16401988816300817
% es.Ez (V/m) @ t=0.18
2.079852050172593
% es.tEx (V/m) @ t=0.18
0.6770302574953604
% es.tEy (V/m) @ t=0.18
0
% es.tEz (V/m) @ t=0.18
2.079852050172615
% V (V) @ t=0.18
0.010258711025911034
% es.normE (V/m) @ t=0.2
2.2137913335805663
% es.EX (V/m) @ t=0.2
0.6833161527731433
% es.EY (V/m) @ t=0.2
0.1655427323926969
% es.EZ (V/m) @ t=0.2
2.0991624597546217
% es.tEX (V/m) @ t=0.2
0.6833161527731519
% es.tEY (V/m) @ t=0.2
0
% es.tEZ (V/m) @ t=0.2
2.09916245975462
% es.Ex (V/m) @ t=0.2
0.6833161527731433
% es.Ey (V/m) @ t=0.2
0.1655427323926969
% es.Ez (V/m) @ t=0.2
2.0991624597546217
% es.tEx (V/m) @ t=0.2
0.6833161527731519
% es.tEy (V/m) @ t=0.2
0
% es.tEz (V/m) @ t=0.2
2.09916245975462
% V (V) @ t=0.2
0.010353958133364526
% es.normE (V/m) @ t=0.22
2.234156225936455
% es.EX (V/m) @ t=0.22
0.6896020480509305
% es.EY (V/m) @ t=0.22
0.16706557662238597
% es.EZ (V/m) @ t=0.22
2.1184728693366575
% es.tEX (V/m) @ t=0.22
0.6896020480509364
% es.tEY (V/m) @ t=0.22
0
% es.tEZ (V/m) @ t=0.22
2.1184728693366726
% es.Ex (V/m) @ t=0.22
0.6896020480509305
% es.Ey (V/m) @ t=0.22
0.16706557662238597
% es.Ez (V/m) @ t=0.22
2.1184728693366575
% es.tEx (V/m) @ t=0.22
0.6896020480509364
% es.tEy (V/m) @ t=0.22
0
% es.tEz (V/m) @ t=0.22
2.1184728693366726
% V (V) @ t=0.22
0.010449205240818013
% es.normE (V/m) @ t=0.24
2.254521118292322
% es.EX (V/m) @ t=0.24
0.6958879433287158
% es.EY (V/m) @ t=0.24
0.16858842085208936
% es.EZ (V/m) @ t=0.24
2.1377832789186715
% es.tEX (V/m) @ t=0.24
0.6958879433287208
% es.tEY (V/m) @ t=0.24
0
% es.tEZ (V/m) @ t=0.24
2.137783278918679
% es.Ex (V/m) @ t=0.24
0.6958879433287158
% es.Ey (V/m) @ t=0.24
0.16858842085208936
% es.Ez (V/m) @ t=0.24
2.1377832789186715
% es.tEx (V/m) @ t=0.24
0.6958879433287208
% es.tEy (V/m) @ t=0.24
0
% es.tEz (V/m) @ t=0.24
2.137783278918679
% V (V) @ t=0.24
0.010544452348271505
% es.normE (V/m) @ t=0.26
2.2748860106482107
% es.EX (V/m) @ t=0.26
0.7021738386065052
% es.EY (V/m) @ t=0.26
0.17011126508178076
% es.EZ (V/m) @ t=0.26
2.157093688500707
% es.tEX (V/m) @ t=0.26
0.7021738386065124
% es.tEY (V/m) @ t=0.26
0
% es.tEZ (V/m) @ t=0.26
2.157093688500712
% es.Ex (V/m) @ t=0.26
0.7021738386065052
% es.Ey (V/m) @ t=0.26
0.17011126508178076
% es.Ez (V/m) @ t=0.26
2.157093688500707
% es.tEx (V/m) @ t=0.26
0.7021738386065124
% es.tEy (V/m) @ t=0.26
0
% es.tEz (V/m) @ t=0.26
2.157093688500712
% V (V) @ t=0.26
0.010639699455724993
% es.normE (V/m) @ t=0.28
2.297071176402998
% es.EX (V/m) @ t=0.28
0.7090215849806865
% es.EY (V/m) @ t=0.28
0.1717702254893836
% es.EZ (V/m) @ t=0.28
2.178130118919631
% es.tEX (V/m) @ t=0.28
0.7090215849806896
% es.tEY (V/m) @ t=0.28
0
% es.tEZ (V/m) @ t=0.28
2.17813011891964
% es.Ex (V/m) @ t=0.28
0.7090215849806865
% es.Ey (V/m) @ t=0.28
0.1717702254893836
% es.Ez (V/m) @ t=0.28
2.178130118919631
% es.tEx (V/m) @ t=0.28
0.7090215849806896
% es.tEy (V/m) @ t=0.28
0
% es.tEz (V/m) @ t=0.28
2.17813011891964
% V (V) @ t=0.28
0.010743459951379288
% es.normE (V/m) @ t=0.3
2.3196746962354187
% es.EX (V/m) @ t=0.3
0.7159984617906363
% es.EY (V/m) @ t=0.3
0.17346046952617467
% es.EZ (V/m) @ t=0.3
2.1995632413165986
% es.tEX (V/m) @ t=0.3
0.7159984617906403
% es.tEY (V/m) @ t=0.3
0
% es.tEZ (V/m) @ t=0.3
2.1995632413165946
% es.Ex (V/m) @ t=0.3
0.7159984617906363
% es.Ey (V/m) @ t=0.3
0.17346046952617467
% es.Ez (V/m) @ t=0.3
2.1995632413165986
% es.tEx (V/m) @ t=0.3
0.7159984617906403
% es.tEy (V/m) @ t=0.3
0
% es.tEz (V/m) @ t=0.3
2.1995632413165946
% V (V) @ t=0.3
0.010849177082047955
% es.normE (V/m) @ t=0.32
2.342278216067805
% es.EX (V/m) @ t=0.32
0.7229753386005753
% es.EY (V/m) @ t=0.32
0.17515071356299505
% es.EZ (V/m) @ t=0.32
2.220996363713531
% es.tEX (V/m) @ t=0.32
0.7229753386005768
% es.tEY (V/m) @ t=0.32
0
% es.tEZ (V/m) @ t=0.32
2.2209963637135477
% es.Ex (V/m) @ t=0.32
0.7229753386005753
% es.Ey (V/m) @ t=0.32
0.17515071356299505
% es.Ez (V/m) @ t=0.32
2.220996363713531
% es.tEx (V/m) @ t=0.32
0.7229753386005768
% es.tEy (V/m) @ t=0.32
0
% es.tEz (V/m) @ t=0.32
2.2209963637135477
% V (V) @ t=0.32
0.010954894212716615
% es.normE (V/m) @ t=0.34
2.364881735900226
% es.EX (V/m) @ t=0.34
0.7299522154105262
% es.EY (V/m) @ t=0.34
0.1768409575997898
% es.EZ (V/m) @ t=0.34
2.2424294861104985
% es.tEX (V/m) @ t=0.34
0.7299522154105347
% es.tEY (V/m) @ t=0.34
0
% es.tEZ (V/m) @ t=0.34
2.242429486110483
% es.Ex (V/m) @ t=0.34
0.7299522154105262
% es.Ey (V/m) @ t=0.34
0.1768409575997898
% es.Ez (V/m) @ t=0.34
2.2424294861104985
% es.tEx (V/m) @ t=0.34
0.7299522154105347
% es.tEy (V/m) @ t=0.34
0
% es.tEz (V/m) @ t=0.34
2.242429486110483
% V (V) @ t=0.34
0.01106061134338528
% es.normE (V/m) @ t=0.36
2.387485255732602
% es.EX (V/m) @ t=0.36
0.736929092220458
% es.EY (V/m) @ t=0.36
0.17853120163658798
% es.EZ (V/m) @ t=0.36
2.2638626085074236
% es.tEX (V/m) @ t=0.36
0.736929092220457
% es.tEY (V/m) @ t=0.36
0
% es.tEZ (V/m) @ t=0.36
2.263862608507427
% es.Ex (V/m) @ t=0.36
0.736929092220458
% es.Ey (V/m) @ t=0.36
0.17853120163658798
% es.Ez (V/m) @ t=0.36
2.2638626085074236
% es.tEx (V/m) @ t=0.36
0.736929092220457
% es.tEy (V/m) @ t=0.36
0
% es.tEz (V/m) @ t=0.36
2.263862608507427
% V (V) @ t=0.36
0.011166328474053943
% es.normE (V/m) @ t=0.38
2.410088775565003
% es.EX (V/m) @ t=0.38
0.7439059690303921
% es.EY (V/m) @ t=0.38
0.18022144567340126
% es.EZ (V/m) @ t=0.38
2.285295730904374
% es.tEX (V/m) @ t=0.38
0.7439059690303935
% es.tEY (V/m) @ t=0.38
0
% es.tEZ (V/m) @ t=0.38
2.2852957309043873
% es.Ex (V/m) @ t=0.38
0.7439059690303921
% es.Ey (V/m) @ t=0.38
0.18022144567340126
% es.Ez (V/m) @ t=0.38
2.285295730904374
% es.tEx (V/m) @ t=0.38
0.7439059690303935
% es.tEy (V/m) @ t=0.38
0
% es.tEz (V/m) @ t=0.38
2.2852957309043873
% V (V) @ t=0.38
0.011272045604722608
% es.normE (V/m) @ t=0.4
2.432692295397426
% es.EX (V/m) @ t=0.4
0.7508828458403484
% es.EY (V/m) @ t=0.4
0.1819116897101941
% es.EZ (V/m) @ t=0.4
2.3067288533013417
% es.tEX (V/m) @ t=0.4
0.7508828458403443
% es.tEY (V/m) @ t=0.4
0
% es.tEZ (V/m) @ t=0.4
2.3067288533013635
% es.Ex (V/m) @ t=0.4
0.7508828458403484
% es.Ey (V/m) @ t=0.4
0.1819116897101941
% es.Ez (V/m) @ t=0.4
2.3067288533013417
% es.tEx (V/m) @ t=0.4
0.7508828458403443
% es.tEy (V/m) @ t=0.4
0
% es.tEz (V/m) @ t=0.4
2.3067288533013635
% V (V) @ t=0.4
0.011377762735391272
% es.normE (V/m) @ t=0.42
2.4552958152298405
% es.EX (V/m) @ t=0.42
0.7578597226502944
% es.EY (V/m) @ t=0.42
0.1836019337469923
% es.EZ (V/m) @ t=0.42
2.328161975698303
% es.tEX (V/m) @ t=0.42
0.757859722650295
% es.tEY (V/m) @ t=0.42
0
% es.tEZ (V/m) @ t=0.42
2.328161975698311
% es.Ex (V/m) @ t=0.42
0.7578597226502944
% es.Ey (V/m) @ t=0.42
0.1836019337469923
% es.Ez (V/m) @ t=0.42
2.328161975698303
% es.tEx (V/m) @ t=0.42
0.757859722650295
% es.tEy (V/m) @ t=0.42
0
% es.tEz (V/m) @ t=0.42
2.328161975698311
% V (V) @ t=0.42
0.011483479866059933
% es.normE (V/m) @ t=0.44
2.4778993350622405
% es.EX (V/m) @ t=0.44
0.7648365994602315
% es.EY (V/m) @ t=0.44
0.18529217778378615
% es.EZ (V/m) @ t=0.44
2.3495950980952527
% es.tEX (V/m) @ t=0.44
0.7648365994602386
% es.tEY (V/m) @ t=0.44
0
% es.tEZ (V/m) @ t=0.44
2.3495950980952447
% es.Ex (V/m) @ t=0.44
0.7648365994602315
% es.Ey (V/m) @ t=0.44
0.18529217778378615
% es.Ez (V/m) @ t=0.44
2.3495950980952527
% es.tEx (V/m) @ t=0.44
0.7648365994602386
% es.tEy (V/m) @ t=0.44
0
% es.tEz (V/m) @ t=0.44
2.3495950980952447
% V (V) @ t=0.44
0.011589196996728602
% es.normE (V/m) @ t=0.46
2.5005028548946493
% es.EX (V/m) @ t=0.46
0.771813476270181
% es.EY (V/m) @ t=0.46
0.18698242182059988
% es.EZ (V/m) @ t=0.46
2.371028220492206
% es.tEX (V/m) @ t=0.46
0.7718134762701823
% es.tEY (V/m) @ t=0.46
0
% es.tEZ (V/m) @ t=0.46
2.371028220492205
% es.Ex (V/m) @ t=0.46
0.771813476270181
% es.Ey (V/m) @ t=0.46
0.18698242182059988
% es.Ez (V/m) @ t=0.46
2.371028220492206
% es.tEx (V/m) @ t=0.46
0.7718134762701823
% es.tEy (V/m) @ t=0.46
0
% es.tEz (V/m) @ t=0.46
2.371028220492205
% V (V) @ t=0.46
0.011694914127397264
% es.normE (V/m) @ t=0.48
2.523106374727038
% es.EX (V/m) @ t=0.48
0.7787903530801092
% es.EY (V/m) @ t=0.48
0.18867266585740738
% es.EZ (V/m) @ t=0.48
2.3924613428891455
% es.tEX (V/m) @ t=0.48
0.7787903530801046
% es.tEY (V/m) @ t=0.48
0
% es.tEZ (V/m) @ t=0.48
2.392461342889135
% es.Ex (V/m) @ t=0.48
0.7787903530801092
% es.Ey (V/m) @ t=0.48
0.18867266585740738
% es.Ez (V/m) @ t=0.48
2.3924613428891455
% es.tEx (V/m) @ t=0.48
0.7787903530801046
% es.tEy (V/m) @ t=0.48
0
% es.tEz (V/m) @ t=0.48
2.392461342889135
% V (V) @ t=0.48
0.011800631258065925
% es.normE (V/m) @ t=0.5
2.5457098945594625
% es.EX (V/m) @ t=0.5
0.7857672298900605
% es.EY (V/m) @ t=0.5
0.19036290989419014
% es.EZ (V/m) @ t=0.5
2.4138944652861167
% es.tEX (V/m) @ t=0.5
0.7857672298900624
% es.tEY (V/m) @ t=0.5
0
% es.tEZ (V/m) @ t=0.5
2.4138944652861127
% es.Ex (V/m) @ t=0.5
0.7857672298900605
% es.Ey (V/m) @ t=0.5
0.19036290989419014
% es.Ez (V/m) @ t=0.5
2.4138944652861167
% es.tEx (V/m) @ t=0.5
0.7857672298900624
% es.tEy (V/m) @ t=0.5
0
% es.tEz (V/m) @ t=0.5
2.4138944652861127
% V (V) @ t=0.5
0.011906348388734589
% es.normE (V/m) @ t=0.52
2.5683134143918487
% es.EX (V/m) @ t=0.52
0.7927441067000071
% es.EY (V/m) @ t=0.52
0.19205315393097222
% es.EZ (V/m) @ t=0.52
2.43532758768305
% es.tEX (V/m) @ t=0.52
0.7927441067000132
% es.tEY (V/m) @ t=0.52
0
% es.tEZ (V/m) @ t=0.52
2.435327587683073
% es.Ex (V/m) @ t=0.52
0.7927441067000071
% es.Ey (V/m) @ t=0.52
0.19205315393097222
% es.Ez (V/m) @ t=0.52
2.43532758768305
% es.tEx (V/m) @ t=0.52
0.7927441067000132
% es.tEy (V/m) @ t=0.52
0
% es.tEz (V/m) @ t=0.52
2.435327587683073
% V (V) @ t=0.52
0.012012065519403252
% es.normE (V/m) @ t=0.54
2.5925237400517656
% es.EX (V/m) @ t=0.54
0.8002169455425496
% es.EY (V/m) @ t=0.54
0.19386355190715943
% es.EZ (V/m) @ t=0.54
2.458284316366783
% es.tEX (V/m) @ t=0.54
0.8002169455425445
% es.tEY (V/m) @ t=0.54
0
% es.tEZ (V/m) @ t=0.54
2.458284316366802
% es.Ex (V/m) @ t=0.54
0.8002169455425496
% es.Ey (V/m) @ t=0.54
0.19386355190715943
% es.Ez (V/m) @ t=0.54
2.458284316366783
% es.tEx (V/m) @ t=0.54
0.8002169455425445
% es.tEy (V/m) @ t=0.54
0
% es.tEz (V/m) @ t=0.54
2.458284316366802
% V (V) @ t=0.54
0.012125297779066926
% es.normE (V/m) @ t=0.56
2.617654113829931
% es.EX (V/m) @ t=0.56
0.8079737694983153
% es.EY (V/m) @ t=0.56
0.19574274936360503
% es.EZ (V/m) @ t=0.56
2.4821134535724996
% es.tEX (V/m) @ t=0.56
0.807973769498318
% es.tEY (V/m) @ t=0.56
0
% es.tEZ (V/m) @ t=0.56
2.482113453572506
% es.Ex (V/m) @ t=0.56
0.8079737694983153
% es.Ey (V/m) @ t=0.56
0.19574274936360503
% es.Ez (V/m) @ t=0.56
2.4821134535724996
% es.tEx (V/m) @ t=0.56
0.807973769498318
% es.tEy (V/m) @ t=0.56
0
% es.tEz (V/m) @ t=0.56
2.482113453572506
% V (V) @ t=0.56
0.012242833159973907
% es.normE (V/m) @ t=0.58
2.6427844876081164
% es.EX (V/m) @ t=0.58
0.8157305934540997
% es.EY (V/m) @ t=0.58
0.19762194682003953
% es.EZ (V/m) @ t=0.58
2.5059425907782313
% es.tEX (V/m) @ t=0.58
0.8157305934541128
% es.tEY (V/m) @ t=0.58
0
% es.tEZ (V/m) @ t=0.58
2.5059425907782416
% es.Ex (V/m) @ t=0.58
0.8157305934540997
% es.Ey (V/m) @ t=0.58
0.19762194682003953
% es.Ez (V/m) @ t=0.58
2.5059425907782313
% es.tEx (V/m) @ t=0.58
0.8157305934541128
% es.tEy (V/m) @ t=0.58
0
% es.tEz (V/m) @ t=0.58
2.5059425907782416
% V (V) @ t=0.58
0.012360368540880889
% es.normE (V/m) @ t=0.6
2.667914861386261
% es.EX (V/m) @ t=0.6
0.8234874174098439
% es.EY (V/m) @ t=0.6
0.1995011442764889
% es.EZ (V/m) @ t=0.6
2.529771727983933
% es.tEX (V/m) @ t=0.6
0.8234874174098437
% es.tEY (V/m) @ t=0.6
0
% es.tEZ (V/m) @ t=0.6
2.529771727983956
% es.Ex (V/m) @ t=0.6
0.8234874174098439
% es.Ey (V/m) @ t=0.6
0.1995011442764889
% es.Ez (V/m) @ t=0.6
2.529771727983933
% es.tEx (V/m) @ t=0.6
0.8234874174098437
% es.tEy (V/m) @ t=0.6
0
% es.tEz (V/m) @ t=0.6
2.529771727983956
% V (V) @ t=0.6
0.012477903921787874
% es.normE (V/m) @ t=0.62
2.6930452351644503
% es.EX (V/m) @ t=0.62
0.8312442413656238
% es.EY (V/m) @ t=0.62
0.2013803417329163
% es.EZ (V/m) @ t=0.62
2.553600865189671
% es.tEX (V/m) @ t=0.62
0.8312442413656242
% es.tEY (V/m) @ t=0.62
0
% es.tEZ (V/m) @ t=0.62
2.5536008651896758
% es.Ex (V/m) @ t=0.62
0.8312442413656238
% es.Ey (V/m) @ t=0.62
0.2013803417329163
% es.Ez (V/m) @ t=0.62
2.553600865189671
% es.tEx (V/m) @ t=0.62
0.8312442413656242
% es.tEy (V/m) @ t=0.62
0
% es.tEz (V/m) @ t=0.62
2.5536008651896758
% V (V) @ t=0.62
0.012595439302694855
% es.normE (V/m) @ t=0.64
2.7181756089426257
% es.EX (V/m) @ t=0.64
0.8390010653213837
% es.EY (V/m) @ t=0.64
0.20325953918936146
% es.EZ (V/m) @ t=0.64
2.5774300023954
% es.tEX (V/m) @ t=0.64
0.8390010653213835
% es.tEY (V/m) @ t=0.64
0
% es.tEZ (V/m) @ t=0.64
2.5774300023954186
% es.Ex (V/m) @ t=0.64
0.8390010653213837
% es.Ey (V/m) @ t=0.64
0.20325953918936146
% es.Ez (V/m) @ t=0.64
2.5774300023954
% es.tEx (V/m) @ t=0.64
0.8390010653213835
% es.tEy (V/m) @ t=0.64
0
% es.tEz (V/m) @ t=0.64
2.5774300023954186
% V (V) @ t=0.64
0.01271297468360184
% es.normE (V/m) @ t=0.66
2.7433059827208055
% es.EX (V/m) @ t=0.66
0.8467578892771557
% es.EY (V/m) @ t=0.66
0.20513873664581395
% es.EZ (V/m) @ t=0.66
2.6012591396011286
% es.tEX (V/m) @ t=0.66
0.8467578892771641
% es.tEY (V/m) @ t=0.66
0
% es.tEZ (V/m) @ t=0.66
2.60125913960114
% es.Ex (V/m) @ t=0.66
0.8467578892771557
% es.Ey (V/m) @ t=0.66
0.20513873664581395
% es.Ez (V/m) @ t=0.66
2.6012591396011286
% es.tEx (V/m) @ t=0.66
0.8467578892771641
% es.tEy (V/m) @ t=0.66
0
% es.tEz (V/m) @ t=0.66
2.60125913960114
% V (V) @ t=0.66
0.012830510064508822
% es.normE (V/m) @ t=0.68
2.7684363564989756
% es.EX (V/m) @ t=0.68
0.8545147132329223
% es.EY (V/m) @ t=0.68
0.20701793410222802
% es.EZ (V/m) @ t=0.68
2.625088276806852
% es.tEX (V/m) @ t=0.68
0.8545147132329234
% es.tEY (V/m) @ t=0.68
0
% es.tEZ (V/m) @ t=0.68
2.625088276806844
% es.Ex (V/m) @ t=0.68
0.8545147132329223
% es.Ey (V/m) @ t=0.68
0.20701793410222802
% es.Ez (V/m) @ t=0.68
2.625088276806852
% es.tEx (V/m) @ t=0.68
0.8545147132329234
% es.tEy (V/m) @ t=0.68
0
% es.tEz (V/m) @ t=0.68
2.625088276806844
% V (V) @ t=0.68
0.012948045445415805
% es.normE (V/m) @ t=0.7
2.7935667302771363
% es.EX (V/m) @ t=0.7
0.8622715371886922
% es.EY (V/m) @ t=0.7
0.20889713155868783
% es.EZ (V/m) @ t=0.7
2.648917414012561
% es.tEX (V/m) @ t=0.7
0.8622715371886898
% es.tEY (V/m) @ t=0.7
0
% es.tEZ (V/m) @ t=0.7
2.648917414012576
% es.Ex (V/m) @ t=0.7
0.8622715371886922
% es.Ey (V/m) @ t=0.7
0.20889713155868783
% es.Ez (V/m) @ t=0.7
2.648917414012561
% es.tEx (V/m) @ t=0.7
0.8622715371886898
% es.tEy (V/m) @ t=0.7
0
% es.tEz (V/m) @ t=0.7
2.648917414012576
% V (V) @ t=0.7
0.013065580826322786
% es.normE (V/m) @ t=0.72
2.818697104055339
% es.EX (V/m) @ t=0.72
0.8700283611444659
% es.EY (V/m) @ t=0.72
0.21077632901513654
% es.EZ (V/m) @ t=0.72
2.6727465512183137
% es.tEX (V/m) @ t=0.72
0.8700283611444632
% es.tEY (V/m) @ t=0.72
0
% es.tEZ (V/m) @ t=0.72
2.6727465512183066
% es.Ex (V/m) @ t=0.72
0.8700283611444659
% es.Ey (V/m) @ t=0.72
0.21077632901513654
% es.Ez (V/m) @ t=0.72
2.6727465512183137
% es.tEx (V/m) @ t=0.72
0.8700283611444632
% es.tEy (V/m) @ t=0.72
0
% es.tEz (V/m) @ t=0.72
2.6727465512183066
% V (V) @ t=0.72
0.013183116207229771
% es.normE (V/m) @ t=0.74
2.8438274778335
% es.EX (V/m) @ t=0.74
0.8777851851002227
% es.EY (V/m) @ t=0.74
0.21265552647154284
% es.EZ (V/m) @ t=0.74
2.6965756884240317
% es.tEX (V/m) @ t=0.74
0.8777851851002296
% es.tEY (V/m) @ t=0.74
0
% es.tEZ (V/m) @ t=0.74
2.6965756884240264
% es.Ex (V/m) @ t=0.74
0.8777851851002227
% es.Ey (V/m) @ t=0.74
0.21265552647154284
% es.Ez (V/m) @ t=0.74
2.6965756884240317
% es.tEx (V/m) @ t=0.74
0.8777851851002296
% es.tEy (V/m) @ t=0.74
0
% es.tEz (V/m) @ t=0.74
2.6965756884240264
% V (V) @ t=0.74
0.01330065158813675
% es.normE (V/m) @ t=0.76
2.8689578516116407
% es.EX (V/m) @ t=0.76
0.8855420090559918
% es.EY (V/m) @ t=0.76
0.2145347239280062
% es.EZ (V/m) @ t=0.76
2.7204048256297195
% es.tEX (V/m) @ t=0.76
0.8855420090559889
% es.tEY (V/m) @ t=0.76
0
% es.tEZ (V/m) @ t=0.76
2.7204048256297426
% es.Ex (V/m) @ t=0.76
0.8855420090559918
% es.Ey (V/m) @ t=0.76
0.2145347239280062
% es.Ez (V/m) @ t=0.76
2.7204048256297195
% es.tEx (V/m) @ t=0.76
0.8855420090559889
% es.tEy (V/m) @ t=0.76
0
% es.tEz (V/m) @ t=0.76
2.7204048256297426
% V (V) @ t=0.76
0.013418186969043733
% es.normE (V/m) @ t=0.78
2.8940882253898375
% es.EX (V/m) @ t=0.78
0.8932988330117531
% es.EY (V/m) @ t=0.78
0.21641392138443005
% es.EZ (V/m) @ t=0.78
2.744233962835472
% es.tEX (V/m) @ t=0.78
0.8932988330117553
% es.tEY (V/m) @ t=0.78
0
% es.tEZ (V/m) @ t=0.78
2.7442339628354873
% es.Ex (V/m) @ t=0.78
0.8932988330117531
% es.Ey (V/m) @ t=0.78
0.21641392138443005
% es.Ez (V/m) @ t=0.78
2.744233962835472
% es.tEx (V/m) @ t=0.78
0.8932988330117553
% es.tEy (V/m) @ t=0.78
0
% es.tEz (V/m) @ t=0.78
2.7442339628354873
% V (V) @ t=0.78
0.013535722349950716
% es.normE (V/m) @ t=0.8
2.920528976025772
% es.EX (V/m) @ t=0.8
0.901460122169863
% es.EY (V/m) @ t=0.8
0.21839110615424984
% es.EZ (V/m) @ t=0.8
2.7693056263333213
% es.tEX (V/m) @ t=0.8
0.9014601221698655
% es.tEY (V/m) @ t=0.8
0
% es.tEZ (V/m) @ t=0.8
2.76930562633331
% es.Ex (V/m) @ t=0.8
0.901460122169863
% es.Ey (V/m) @ t=0.8
0.21839110615424984
% es.Ez (V/m) @ t=0.8
2.7693056263333213
% es.tEx (V/m) @ t=0.8
0.9014601221698655
% es.tEy (V/m) @ t=0.8
0
% es.tEz (V/m) @ t=0.8
2.76930562633331
% V (V) @ t=0.8
0.013659386397836006
% es.normE (V/m) @ t=0.82
2.948516296324514
% es.EX (V/m) @ t=0.82
0.9100987805732166
% es.EY (V/m) @ t=0.82
0.22048394025445917
% es.EZ (V/m) @ t=0.82
2.7958437789997426
% es.tEX (V/m) @ t=0.82
0.9100987805732217
% es.tEY (V/m) @ t=0.82
0
% es.tEZ (V/m) @ t=0.82
2.795843778999746
% es.Ex (V/m) @ t=0.82
0.9100987805732166
% es.Ey (V/m) @ t=0.82
0.22048394025445917
% es.Ez (V/m) @ t=0.82
2.7958437789997426
% es.tEx (V/m) @ t=0.82
0.9100987805732217
% es.tEy (V/m) @ t=0.82
0
% es.tEz (V/m) @ t=0.82
2.795843778999746
% V (V) @ t=0.82
0.013790283792652114
% es.normE (V/m) @ t=0.84
2.976503616623255
% es.EX (V/m) @ t=0.84
0.9187374389765799
% es.EY (V/m) @ t=0.84
0.22257677435468293
% es.EZ (V/m) @ t=0.84
2.8223819316661594
% es.tEX (V/m) @ t=0.84
0.9187374389765779
% es.tEY (V/m) @ t=0.84
0
% es.tEZ (V/m) @ t=0.84
2.822381931666154
% es.Ex (V/m) @ t=0.84
0.9187374389765799
% es.Ey (V/m) @ t=0.84
0.22257677435468293
% es.Ez (V/m) @ t=0.84
2.8223819316661594
% es.tEx (V/m) @ t=0.84
0.9187374389765779
% es.tEy (V/m) @ t=0.84
0
% es.tEz (V/m) @ t=0.84
2.822381931666154
% V (V) @ t=0.84
0.013921181187468223
% es.normE (V/m) @ t=0.86
3.004490936921964
% es.EX (V/m) @ t=0.86
0.927376097379933
% es.EY (V/m) @ t=0.86
0.22466960845492112
% es.EZ (V/m) @ t=0.86
2.848920084332544
% es.tEX (V/m) @ t=0.86
0.9273760973799341
% es.tEY (V/m) @ t=0.86
0
% es.tEZ (V/m) @ t=0.86
2.848920084332562
% es.Ex (V/m) @ t=0.86
0.927376097379933
% es.Ey (V/m) @ t=0.86
0.22466960845492112
% es.Ez (V/m) @ t=0.86
2.848920084332544
% es.tEx (V/m) @ t=0.86
0.9273760973799341
% es.tEy (V/m) @ t=0.86
0
% es.tEz (V/m) @ t=0.86
2.848920084332562
% V (V) @ t=0.86
0.014052078582284334
% es.normE (V/m) @ t=0.88
3.032478257220734
% es.EX (V/m) @ t=0.88
0.9360147557832867
% es.EY (V/m) @ t=0.88
0.22676244255513445
% es.EZ (V/m) @ t=0.88
2.8754582369989947
% es.tEX (V/m) @ t=0.88
0.9360147557832903
% es.tEY (V/m) @ t=0.88
0
% es.tEZ (V/m) @ t=0.88
2.875458236999002
% es.Ex (V/m) @ t=0.88
0.9360147557832867
% es.Ey (V/m) @ t=0.88
0.22676244255513445
% es.Ez (V/m) @ t=0.88
2.8754582369989947
% es.tEx (V/m) @ t=0.88
0.9360147557832903
% es.tEy (V/m) @ t=0.88
0
% es.tEz (V/m) @ t=0.88
2.875458236999002
% V (V) @ t=0.88
0.014182975977100446
% es.normE (V/m) @ t=0.9
3.0604655775194773
% es.EX (V/m) @ t=0.9
0.94465341418665
% es.EY (V/m) @ t=0.9
0.22885527665531913
% es.EZ (V/m) @ t=0.9
2.901996389665417
% es.tEX (V/m) @ t=0.9
0.9446534141866465
% es.tEY (V/m) @ t=0.9
0
% es.tEZ (V/m) @ t=0.9
2.9019963896654097
% es.Ex (V/m) @ t=0.9
0.94465341418665
% es.Ey (V/m) @ t=0.9
0.22885527665531913
% es.Ez (V/m) @ t=0.9
2.901996389665417
% es.tEx (V/m) @ t=0.9
0.9446534141866465
% es.tEy (V/m) @ t=0.9
0
% es.tEz (V/m) @ t=0.9
2.9019963896654097
% V (V) @ t=0.9
0.014313873371916553
% es.normE (V/m) @ t=0.92
3.0884528978182106
% es.EX (V/m) @ t=0.92
0.9532920725900036
% es.EY (V/m) @ t=0.92
0.23094811075557486
% es.EZ (V/m) @ t=0.92
2.9285345423318256
% es.tEX (V/m) @ t=0.92
0.9532920725900027
% es.tEY (V/m) @ t=0.92
0
% es.tEZ (V/m) @ t=0.92
2.928534542331832
% es.Ex (V/m) @ t=0.92
0.9532920725900036
% es.Ey (V/m) @ t=0.92
0.23094811075557486
% es.Ez (V/m) @ t=0.92
2.9285345423318256
% es.tEx (V/m) @ t=0.92
0.9532920725900027
% es.tEy (V/m) @ t=0.92
0
% es.tEz (V/m) @ t=0.92
2.928534542331832
% V (V) @ t=0.92
0.014444770766732663
% es.normE (V/m) @ t=0.94
3.116440218116965
% es.EX (V/m) @ t=0.94
0.9619307309933767
% es.EY (V/m) @ t=0.94
0.23304094485578486
% es.EZ (V/m) @ t=0.94
2.955072694998254
% es.tEX (V/m) @ t=0.94
0.9619307309933731
% es.tEY (V/m) @ t=0.94
0
% es.tEZ (V/m) @ t=0.94
2.9550726949982575
% es.Ex (V/m) @ t=0.94
0.9619307309933767
% es.Ey (V/m) @ t=0.94
0.23304094485578486
% es.Ez (V/m) @ t=0.94
2.955072694998254
% es.tEx (V/m) @ t=0.94
0.9619307309933731
% es.tEy (V/m) @ t=0.94
0
% es.tEz (V/m) @ t=0.94
2.9550726949982575
% V (V) @ t=0.94
0.014575668161548773
% es.normE (V/m) @ t=0.96
3.1444275384157088
% es.EX (V/m) @ t=0.96
0.9705693893967271
% es.EY (V/m) @ t=0.96
0.23513377895602194
% es.EZ (V/m) @ t=0.96
2.981610847664676
% es.tEX (V/m) @ t=0.96
0.9705693893967293
% es.tEY (V/m) @ t=0.96
0
% es.tEZ (V/m) @ t=0.96
2.9816108476646797
% es.Ex (V/m) @ t=0.96
0.9705693893967271
% es.Ey (V/m) @ t=0.96
0.23513377895602194
% es.Ez (V/m) @ t=0.96
2.981610847664676
% es.tEx (V/m) @ t=0.96
0.9705693893967293
% es.tEy (V/m) @ t=0.96
0
% es.tEz (V/m) @ t=0.96
2.9816108476646797
% V (V) @ t=0.96
0.01470656555636488
% es.normE (V/m) @ t=0.98
3.172414858714452
% es.EX (V/m) @ t=0.98
0.9792080478001
% es.EY (V/m) @ t=0.98
0.23722661305624193
% es.EZ (V/m) @ t=0.98
3.008149000331092
% es.tEX (V/m) @ t=0.98
0.9792080478000997
% es.tEY (V/m) @ t=0.98
0
% es.tEZ (V/m) @ t=0.98
3.0081490003311053
% es.Ex (V/m) @ t=0.98
0.9792080478001
% es.Ey (V/m) @ t=0.98
0.23722661305624193
% es.Ez (V/m) @ t=0.98
3.008149000331092
% es.tEx (V/m) @ t=0.98
0.9792080478000997
% es.tEy (V/m) @ t=0.98
0
% es.tEz (V/m) @ t=0.98
3.0081490003311053
% V (V) @ t=0.98
0.014837462951180993
% es.normE (V/m) @ t=1
3.2004021790132127
% es.EX (V/m) @ t=1
0.9878467062034448
% es.EY (V/m) @ t=1
0.2393194471564657
% es.EZ (V/m) @ t=1
3.0346871529975354
% es.tEX (V/m) @ t=1
0.9878467062034417
% es.tEY (V/m) @ t=1
0
% es.tEZ (V/m) @ t=1
3.0346871529975274
% es.Ex (V/m) @ t=1
0.9878467062034448
% es.Ey (V/m) @ t=1
0.2393194471564657
% es.Ez (V/m) @ t=1
3.0346871529975354
% es.tEx (V/m) @ t=1
0.9878467062034417
% es.tEy (V/m) @ t=1
0
% es.tEz (V/m) @ t=1
3.0346871529975274
% V (V) @ t=1
0.0149683603459971
% es.normE (V/m) @ t=1.02
3.228389499311952
% es.EX (V/m) @ t=1.02
0.9964853646068144
% es.EY (V/m) @ t=1.02
0.24141228125665837
% es.EZ (V/m) @ t=1.02
3.0612253056639505
% es.tEX (V/m) @ t=1.02
0.9964853646068121
% es.tEY (V/m) @ t=1.02
0
% es.tEZ (V/m) @ t=1.02
3.061225305663964
% es.Ex (V/m) @ t=1.02
0.9964853646068144
% es.Ey (V/m) @ t=1.02
0.24141228125665837
% es.Ez (V/m) @ t=1.02
3.0612253056639505
% es.tEx (V/m) @ t=1.02
0.9964853646068121
% es.tEy (V/m) @ t=1.02
0
% es.tEz (V/m) @ t=1.02
3.061225305663964
% V (V) @ t=1.02
0.01509925774081321
% es.normE (V/m) @ t=1.04
3.2563768196106926
% es.EX (V/m) @ t=1.04
1.005124023010176
% es.EY (V/m) @ t=1.04
0.24350511535692387
% es.EZ (V/m) @ t=1.04
3.0877634583303637
% es.tEX (V/m) @ t=1.04
1.0051240230101826
% es.tEY (V/m) @ t=1.04
0
% es.tEZ (V/m) @ t=1.04
3.0877634583303717
% es.Ex (V/m) @ t=1.04
1.005124023010176
% es.Ey (V/m) @ t=1.04
0.24350511535692387
% es.Ez (V/m) @ t=1.04
3.0877634583303637
% es.tEx (V/m) @ t=1.04
1.0051240230101826
% es.tEy (V/m) @ t=1.04
0
% es.tEz (V/m) @ t=1.04