% Model:              1 neuron.mph
% Version:            COMSOL 6.0.0.405
% Date:               Mar 16 2023, 17:53
% Dimension:          0
% Nodes:              14017
% Expressions:        14017
% Description:        Electric field norm, Electric field, X component, Electric field, Y component, Electric field, Z component, Tangential electric field, X component, Tangential electric field, Y component, Tangential electric field, Z component, Electric field, x component, Electric field, y component, Electric field, z component, Tangential electric field, x component, Tangential electric field, y component, Tangential electric field, z component, Electric potential
% Length unit:        mm
% x
1.0000000000000002
% y
12.2
% z
2
% es.normE (V/m) @ t=0
1.011560047231281
% es.EX (V/m) @ t=0
0.7026378113530132
% es.EY (V/m) @ t=0
0.10521153383827148
% es.EZ (V/m) @ t=0
-0.7016121847833858
% es.tEX (V/m) @ t=0
0.7026378113530165
% es.tEY (V/m) @ t=0
0
% es.tEZ (V/m) @ t=0
-0.7016121847833716
% es.Ex (V/m) @ t=0
0.7026378113530132
% es.Ey (V/m) @ t=0
0.10521153383827148
% es.Ez (V/m) @ t=0
-0.7016121847833858
% es.tEx (V/m) @ t=0
0.7026378113530165
% es.tEy (V/m) @ t=0
0
% es.tEz (V/m) @ t=0
-0.7016121847833716
% V (V) @ t=0
0.01083249381174585
% es.normE (V/m) @ t=0.02
0.873702937020332
% es.EX (V/m) @ t=0.02
0.6068811446691582
% es.EY (V/m) @ t=0.02
0.0908731289400044
% es.EZ (V/m) @ t=0.02
-0.6059952921991594
% es.tEX (V/m) @ t=0.02
0.606881144669162
% es.tEY (V/m) @ t=0.02
0
% es.tEZ (V/m) @ t=0.02
-0.605995292199152
% es.Ex (V/m) @ t=0.02
0.6068811446691582
% es.Ey (V/m) @ t=0.02
0.0908731289400044
% es.Ez (V/m) @ t=0.02
-0.6059952921991594
% es.tEx (V/m) @ t=0.02
0.606881144669162
% es.tEy (V/m) @ t=0.02
0
% es.tEz (V/m) @ t=0.02
-0.605995292199152
% V (V) @ t=0.02
0.009356223242506487
% es.normE (V/m) @ t=0.04
0.8817391402443963
% es.EX (V/m) @ t=0.04
0.6124631563665712
% es.EY (V/m) @ t=0.04
0.09170896928012179
% es.EZ (V/m) @ t=0.04
-0.6115691558922294
% es.tEX (V/m) @ t=0.04
0.6124631563665752
% es.tEY (V/m) @ t=0.04
0
% es.tEZ (V/m) @ t=0.04
-0.6115691558922149
% es.Ex (V/m) @ t=0.04
0.6124631563665712
% es.Ey (V/m) @ t=0.04
0.09170896928012179
% es.Ez (V/m) @ t=0.04
-0.6115691558922294
% es.tEx (V/m) @ t=0.04
0.6124631563665752
% es.tEy (V/m) @ t=0.04
0
% es.tEz (V/m) @ t=0.04
-0.6115691558922149
% V (V) @ t=0.04
0.009442280438760907
% es.normE (V/m) @ t=0.06
0.8898431849118853
% es.EX (V/m) @ t=0.06
0.6180922910763755
% es.EY (V/m) @ t=0.06
0.092551867015217
% es.EZ (V/m) @ t=0.06
-0.6171900737703517
% es.tEX (V/m) @ t=0.06
0.6180922910763771
% es.tEY (V/m) @ t=0.06
0
% es.tEZ (V/m) @ t=0.06
-0.6171900737703444
% es.Ex (V/m) @ t=0.06
0.6180922910763755
% es.Ey (V/m) @ t=0.06
0.092551867015217
% es.Ez (V/m) @ t=0.06
-0.6171900737703517
% es.tEx (V/m) @ t=0.06
0.6180922910763771
% es.tEy (V/m) @ t=0.06
0
% es.tEz (V/m) @ t=0.06
-0.6171900737703444
% V (V) @ t=0.06
0.00952906403975945
% es.normE (V/m) @ t=0.08
0.8980816883054681
% es.EX (V/m) @ t=0.08
0.6238148220943651
% es.EY (V/m) @ t=0.08
0.09340874840688734
% es.EZ (V/m) @ t=0.08
-0.6229042517079699
% es.tEX (V/m) @ t=0.08
0.6238148220943684
% es.tEY (V/m) @ t=0.08
0
% es.tEZ (V/m) @ t=0.08
-0.6229042517079519
% es.Ex (V/m) @ t=0.08
0.6238148220943651
% es.Ey (V/m) @ t=0.08
0.09340874840688734
% es.Ez (V/m) @ t=0.08
-0.6229042517079699
% es.tEx (V/m) @ t=0.08
0.6238148220943684
% es.tEy (V/m) @ t=0.08
0
% es.tEz (V/m) @ t=0.08
-0.6229042517079519
% V (V) @ t=0.08
0.009617287611092148
% es.normE (V/m) @ t=0.1
0.9063914181769266
% es.EX (V/m) @ t=0.1
0.6295868277003791
% es.EY (V/m) @ t=0.1
0.09427303732525544
% es.EZ (V/m) @ t=0.1
-0.628667832058923
% es.tEX (V/m) @ t=0.1
0.6295868277003804
% es.tEY (V/m) @ t=0.1
0
% es.tEZ (V/m) @ t=0.1
-0.6286678320589085
% es.Ex (V/m) @ t=0.1
0.6295868277003791
% es.Ey (V/m) @ t=0.1
0.09427303732525544
% es.Ez (V/m) @ t=0.1
-0.628667832058923
% es.tEx (V/m) @ t=0.1
0.6295868277003804
% es.tEy (V/m) @ t=0.1
0
% es.tEz (V/m) @ t=0.1
-0.6286678320589085
% V (V) @ t=0.1
0.009706273974235772
% es.normE (V/m) @ t=0.12
0.9147011480483929
% es.EX (V/m) @ t=0.12
0.6353588333063931
% es.EY (V/m) @ t=0.12
0.09513732624361021
% es.EZ (V/m) @ t=0.12
-0.6344314124098895
% es.tEX (V/m) @ t=0.12
0.6353588333063969
% es.tEY (V/m) @ t=0.12
0
% es.tEZ (V/m) @ t=0.12
-0.6344314124098784
% es.Ex (V/m) @ t=0.12
0.6353588333063931
% es.Ey (V/m) @ t=0.12
0.09513732624361021
% es.Ez (V/m) @ t=0.12
-0.6344314124098895
% es.tEx (V/m) @ t=0.12
0.6353588333063969
% es.tEy (V/m) @ t=0.12
0
% es.tEz (V/m) @ t=0.12
-0.6344314124098784
% V (V) @ t=0.12
0.009795260337379395
% es.normE (V/m) @ t=0.14
0.923148717439549
% es.EX (V/m) @ t=0.14
0.6412265826391703
% es.EY (V/m) @ t=0.14
0.09601595669937207
% es.EZ (V/m) @ t=0.14
-0.6402905964204872
% es.tEX (V/m) @ t=0.14
0.6412265826391716
% es.tEY (V/m) @ t=0.14
0
% es.tEZ (V/m) @ t=0.14
-0.6402905964204764
% es.Ex (V/m) @ t=0.14
0.6412265826391703
% es.Ey (V/m) @ t=0.14
0.09601595669937207
% es.Ez (V/m) @ t=0.14
-0.6402905964204872
% es.tEx (V/m) @ t=0.14
0.6412265826391716
% es.tEy (V/m) @ t=0.14
0
% es.tEz (V/m) @ t=0.14
-0.6402905964204764
% V (V) @ t=0.14
0.009885722441260465
% es.normE (V/m) @ t=0.16
0.9318930017089768
% es.EX (V/m) @ t=0.16
0.6473004309796839
% es.EY (V/m) @ t=0.16
0.09692545890753357
% es.EZ (V/m) @ t=0.16
-0.6463555779287116
% es.tEX (V/m) @ t=0.16
0.6473004309796839
% es.tEY (V/m) @ t=0.16
0
% es.tEZ (V/m) @ t=0.16
-0.6463555779287078
% es.Ex (V/m) @ t=0.16
0.6473004309796839
% es.Ey (V/m) @ t=0.16
0.09692545890753357
% es.Ez (V/m) @ t=0.16
-0.6463555779287116
% es.tEx (V/m) @ t=0.16
0.6473004309796839
% es.tEy (V/m) @ t=0.16
0
% es.tEz (V/m) @ t=0.16
-0.6463555779287078
% V (V) @ t=0.16
0.009979361241013958
% es.normE (V/m) @ t=0.18
0.9406372859784031
% es.EX (V/m) @ t=0.18
0.6533742793201893
% es.EY (V/m) @ t=0.18
0.09783496111569973
% es.EZ (V/m) @ t=0.18
-0.6524205594369425
% es.tEX (V/m) @ t=0.18
0.6533742793201944
% es.tEY (V/m) @ t=0.18
0
% es.tEZ (V/m) @ t=0.18
-0.6524205594369317
% es.Ex (V/m) @ t=0.18
0.6533742793201893
% es.Ey (V/m) @ t=0.18
0.09783496111569973
% es.Ez (V/m) @ t=0.18
-0.6524205594369425
% es.tEx (V/m) @ t=0.18
0.6533742793201944
% es.tEy (V/m) @ t=0.18
0
% es.tEz (V/m) @ t=0.18
-0.6524205594369317
% V (V) @ t=0.18
0.010073000040767452
% es.normE (V/m) @ t=0.2
0.9493815702478277
% es.EX (V/m) @ t=0.2
0.6594481276606936
% es.EY (V/m) @ t=0.2
0.09874446332386388
% es.EZ (V/m) @ t=0.2
-0.658485540945174
% es.tEX (V/m) @ t=0.2
0.6594481276606952
% es.tEY (V/m) @ t=0.2
0
% es.tEZ (V/m) @ t=0.2
-0.6584855409451631
% es.Ex (V/m) @ t=0.2
0.6594481276606936
% es.Ey (V/m) @ t=0.2
0.09874446332386388
% es.Ez (V/m) @ t=0.2
-0.658485540945174
% es.tEx (V/m) @ t=0.2
0.6594481276606952
% es.tEy (V/m) @ t=0.2
0
% es.tEz (V/m) @ t=0.2
-0.6584855409451631
% V (V) @ t=0.2
0.010166638840520947
% es.normE (V/m) @ t=0.22
0.9581258545172517
% es.EX (V/m) @ t=0.22
0.6655219760011961
% es.EY (V/m) @ t=0.22
0.09965396553201228
% es.EZ (V/m) @ t=0.22
-0.664550522453405
% es.tEX (V/m) @ t=0.22
0.6655219760011959
% es.tEY (V/m) @ t=0.22
0
% es.tEZ (V/m) @ t=0.22
-0.664550522453387
% es.Ex (V/m) @ t=0.22
0.6655219760011961
% es.Ey (V/m) @ t=0.22
0.09965396553201228
% es.Ez (V/m) @ t=0.22
-0.664550522453405
% es.tEx (V/m) @ t=0.22
0.6655219760011959
% es.tEy (V/m) @ t=0.22
0
% es.tEz (V/m) @ t=0.22
-0.664550522453387
% V (V) @ t=0.22
0.010260277640274436
% es.normE (V/m) @ t=0.24
0.9668701387866816
% es.EX (V/m) @ t=0.24
0.6715958243417037
% es.EY (V/m) @ t=0.24
0.10056346774017555
% es.EZ (V/m) @ t=0.24
-0.6706155039616364
% es.tEX (V/m) @ t=0.24
0.6715958243417033
% es.tEY (V/m) @ t=0.24
0
% es.tEZ (V/m) @ t=0.24
-0.6706155039616255
% es.Ex (V/m) @ t=0.24
0.6715958243417037
% es.Ey (V/m) @ t=0.24
0.10056346774017555
% es.Ez (V/m) @ t=0.24
-0.6706155039616364
% es.tEx (V/m) @ t=0.24
0.6715958243417033
% es.tEy (V/m) @ t=0.24
0
% es.tEz (V/m) @ t=0.24
-0.6706155039616255
% V (V) @ t=0.24
0.010353916440027927
% es.normE (V/m) @ t=0.26
0.9756144230561021
% es.EX (V/m) @ t=0.26
0.6776696726822058
% es.EY (V/m) @ t=0.26
0.10147296994832306
% es.EZ (V/m) @ t=0.26
-0.6766804854698605
% es.tEX (V/m) @ t=0.26
0.6776696726822102
% es.tEY (V/m) @ t=0.26
0
% es.tEZ (V/m) @ t=0.26
-0.6766804854698494
% es.Ex (V/m) @ t=0.26
0.6776696726822058
% es.Ey (V/m) @ t=0.26
0.10147296994832306
% es.Ez (V/m) @ t=0.26
-0.6766804854698605
% es.tEx (V/m) @ t=0.26
0.6776696726822102
% es.tEy (V/m) @ t=0.26
0
% es.tEz (V/m) @ t=0.26
-0.6766804854698494
% V (V) @ t=0.26
0.010447555239781421
% es.normE (V/m) @ t=0.28
0.9849868911163604
% es.EX (V/m) @ t=0.28
0.6841798663558456
% es.EY (V/m) @ t=0.28
0.10244778369441687
% es.EZ (V/m) @ t=0.28
-0.6831811768208469
% es.tEX (V/m) @ t=0.28
0.6841798663558434
% es.tEY (V/m) @ t=0.28
0
% es.tEZ (V/m) @ t=0.28
-0.6831811768208431
% es.Ex (V/m) @ t=0.28
0.6841798663558456
% es.Ey (V/m) @ t=0.28
0.10244778369441687
% es.Ez (V/m) @ t=0.28
-0.6831811768208469
% es.tEx (V/m) @ t=0.28
0.6841798663558434
% es.tEy (V/m) @ t=0.28
0
% es.tEz (V/m) @ t=0.28
-0.6831811768208431
% V (V) @ t=0.28
0.010547922811221824
% es.normE (V/m) @ t=0.3
0.9947063590581905
% es.EX (V/m) @ t=0.3
0.6909310910480062
% es.EY (V/m) @ t=0.3
0.10345867461450015
% es.EZ (V/m) @ t=0.3
-0.6899225481544216
% es.tEX (V/m) @ t=0.3
0.6909310910480131
% es.tEY (V/m) @ t=0.3
0
% es.tEZ (V/m) @ t=0.3
-0.6899225481544105
% es.Ex (V/m) @ t=0.3
0.6909310910480062
% es.Ey (V/m) @ t=0.3
0.10345867461450015
% es.Ez (V/m) @ t=0.3
-0.6899225481544216
% es.tEx (V/m) @ t=0.3
0.6909310910480131
% es.tEy (V/m) @ t=0.3
0
% es.tEz (V/m) @ t=0.3
-0.6899225481544105
% V (V) @ t=0.3
0.010652007261404686
% es.normE (V/m) @ t=0.32
1.0044258270000406
% es.EX (V/m) @ t=0.32
0.6976823157401708
% es.EY (V/m) @ t=0.32
0.10446956553460174
% es.EZ (V/m) @ t=0.32
-0.6966639194880164
% es.tEX (V/m) @ t=0.32
0.6976823157401753
% es.tEY (V/m) @ t=0.32
0
% es.tEZ (V/m) @ t=0.32
-0.6966639194880053
% es.Ex (V/m) @ t=0.32
0.6976823157401708
% es.Ey (V/m) @ t=0.32
0.10446956553460174
% es.Ez (V/m) @ t=0.32
-0.6966639194880164
% es.tEx (V/m) @ t=0.32
0.6976823157401753
% es.tEy (V/m) @ t=0.32
0
% es.tEz (V/m) @ t=0.32
-0.6966639194880053
% V (V) @ t=0.32
0.01075609171158755
% es.normE (V/m) @ t=0.34
1.014145294941876
% es.EX (V/m) @ t=0.34
0.704433540432335
% es.EY (V/m) @ t=0.34
0.1054804564546834
% es.EZ (V/m) @ t=0.34
-0.7034052908215869
% es.tEX (V/m) @ t=0.34
0.7044335404323339
% es.tEY (V/m) @ t=0.34
0
% es.tEZ (V/m) @ t=0.34
-0.7034052908215722
% es.Ex (V/m) @ t=0.34
0.704433540432335
% es.Ey (V/m) @ t=0.34
0.1054804564546834
% es.Ez (V/m) @ t=0.34
-0.7034052908215869
% es.tEx (V/m) @ t=0.34
0.7044335404323339
% es.tEy (V/m) @ t=0.34
0
% es.tEz (V/m) @ t=0.34
-0.7034052908215722
% V (V) @ t=0.34
0.010860176161770416
% es.normE (V/m) @ t=0.36
1.023864762883711
% es.EX (V/m) @ t=0.36
0.7111847651244962
% es.EY (V/m) @ t=0.36
0.10649134737477856
% es.EZ (V/m) @ t=0.36
-0.7101466621551604
% es.tEX (V/m) @ t=0.36
0.7111847651244978
% es.tEY (V/m) @ t=0.36
0
% es.tEZ (V/m) @ t=0.36
-0.7101466621551458
% es.Ex (V/m) @ t=0.36
0.7111847651244962
% es.Ey (V/m) @ t=0.36
0.10649134737477856
% es.Ez (V/m) @ t=0.36
-0.7101466621551604
% es.tEx (V/m) @ t=0.36
0.7111847651244978
% es.tEy (V/m) @ t=0.36
0
% es.tEz (V/m) @ t=0.36
-0.7101466621551458
% V (V) @ t=0.36
0.010964260611953278
% es.normE (V/m) @ t=0.38
1.0335842308255452
% es.EX (V/m) @ t=0.38
0.7179359898166608
% es.EY (V/m) @ t=0.38
0.10750223829486649
% es.EZ (V/m) @ t=0.38
-0.7168880334887318
% es.tEX (V/m) @ t=0.38
0.7179359898166671
% es.tEY (V/m) @ t=0.38
0
% es.tEZ (V/m) @ t=0.38
-0.716888033488714
% es.Ex (V/m) @ t=0.38
0.7179359898166608
% es.Ey (V/m) @ t=0.38
0.10750223829486649
% es.Ez (V/m) @ t=0.38
-0.7168880334887318
% es.tEx (V/m) @ t=0.38
0.7179359898166671
% es.tEy (V/m) @ t=0.38
0
% es.tEz (V/m) @ t=0.38
-0.716888033488714
% V (V) @ t=0.38
0.011068345062136144
% es.normE (V/m) @ t=0.4
1.0433036987673847
% es.EX (V/m) @ t=0.4
0.7246872145088246
% es.EY (V/m) @ t=0.4
0.10851312921495637
% es.EZ (V/m) @ t=0.4
-0.7236294048223089
% es.tEX (V/m) @ t=0.4
0.724687214508827
% es.tEY (V/m) @ t=0.4
0
% es.tEZ (V/m) @ t=0.4
-0.7236294048222947
% es.Ex (V/m) @ t=0.4
0.7246872145088246
% es.Ey (V/m) @ t=0.4
0.10851312921495637
% es.Ez (V/m) @ t=0.4
-0.7236294048223089
% es.tEx (V/m) @ t=0.4
0.724687214508827
% es.tEy (V/m) @ t=0.4
0
% es.tEz (V/m) @ t=0.4
-0.7236294048222947
% V (V) @ t=0.4
0.011172429512319003
% es.normE (V/m) @ t=0.42
1.0530231667092194
% es.EX (V/m) @ t=0.42
0.731438439200988
% es.EY (V/m) @ t=0.42
0.10952402013504092
% es.EZ (V/m) @ t=0.42
-0.7303707761558722
% es.tEX (V/m) @ t=0.42
0.7314384392009852
% es.tEY (V/m) @ t=0.42
0
% es.tEZ (V/m) @ t=0.42
-0.730370776155854
% es.Ex (V/m) @ t=0.42
0.731438439200988
% es.Ey (V/m) @ t=0.42
0.10952402013504092
% es.Ez (V/m) @ t=0.42
-0.7303707761558722
% es.tEx (V/m) @ t=0.42
0.7314384392009852
% es.tEy (V/m) @ t=0.42
0
% es.tEz (V/m) @ t=0.42
-0.730370776155854
% V (V) @ t=0.42
0.011276513962501867
% es.normE (V/m) @ t=0.44
1.062742634651063
% es.EX (V/m) @ t=0.44
0.7381896638931567
% es.EY (V/m) @ t=0.44
0.11053491105512186
% es.EZ (V/m) @ t=0.44
-0.7371121474894493
% es.tEX (V/m) @ t=0.44
0.7381896638931562
% es.tEY (V/m) @ t=0.44
0
% es.tEZ (V/m) @ t=0.44
-0.7371121474894347
% es.Ex (V/m) @ t=0.44
0.7381896638931567
% es.Ey (V/m) @ t=0.44
0.11053491105512186
% es.Ez (V/m) @ t=0.44
-0.7371121474894493
% es.tEx (V/m) @ t=0.44
0.7381896638931562
% es.tEy (V/m) @ t=0.44
0
% es.tEz (V/m) @ t=0.44
-0.7371121474894347
% V (V) @ t=0.44
0.01138059841268473
% es.normE (V/m) @ t=0.46
1.0724621025929038
% es.EX (V/m) @ t=0.46
0.7449408885853164
% es.EY (V/m) @ t=0.46
0.11154580197522135
% es.EZ (V/m) @ t=0.46
-0.7438535188230273
% es.tEX (V/m) @ t=0.46
0.7449408885853259
% es.tEY (V/m) @ t=0.46
0
% es.tEZ (V/m) @ t=0.46
-0.7438535188230162
% es.Ex (V/m) @ t=0.46
0.7449408885853164
% es.Ey (V/m) @ t=0.46
0.11154580197522135
% es.Ez (V/m) @ t=0.46
-0.7438535188230273
% es.tEx (V/m) @ t=0.46
0.7449408885853259
% es.tEy (V/m) @ t=0.46
0
% es.tEz (V/m) @ t=0.46
-0.7438535188230162
% V (V) @ t=0.46
0.011484682862867595
% es.normE (V/m) @ t=0.48
1.0821815705347497
% es.EX (V/m) @ t=0.48
0.7516921132774785
% es.EY (V/m) @ t=0.48
0.11255669289531917
% es.EZ (V/m) @ t=0.48
-0.750594890156608
% es.tEX (V/m) @ t=0.48
0.7516921132774845
% es.tEY (V/m) @ t=0.48
0
% es.tEZ (V/m) @ t=0.48
-0.7505948901565969
% es.Ex (V/m) @ t=0.48
0.7516921132774785
% es.Ey (V/m) @ t=0.48
0.11255669289531917
% es.Ez (V/m) @ t=0.48
-0.750594890156608
% es.tEx (V/m) @ t=0.48
0.7516921132774845
% es.tEy (V/m) @ t=0.48
0
% es.tEz (V/m) @ t=0.48
-0.7505948901565969
% V (V) @ t=0.48
0.011588767313050455
% es.normE (V/m) @ t=0.5
1.0919010384765897
% es.EX (V/m) @ t=0.5
0.7584433379696454
% es.EY (V/m) @ t=0.5
0.11356758381541548
% es.EZ (V/m) @ t=0.5
-0.7573362614901709
% es.tEX (V/m) @ t=0.5
0.758443337969644
% es.tEY (V/m) @ t=0.5
0
% es.tEZ (V/m) @ t=0.5
-0.7573362614901562
% es.Ex (V/m) @ t=0.5
0.7584433379696454
% es.Ey (V/m) @ t=0.5
0.11356758381541548
% es.Ez (V/m) @ t=0.5
-0.7573362614901709
% es.tEx (V/m) @ t=0.5
0.758443337969644
% es.tEy (V/m) @ t=0.5
0
% es.tEz (V/m) @ t=0.5
-0.7573362614901562
% V (V) @ t=0.5
0.011692851763233321
% es.normE (V/m) @ t=0.52
1.1016205064184383
% es.EX (V/m) @ t=0.52
0.7651945626618126
% es.EY (V/m) @ t=0.52
0.11457847473549893
% es.EZ (V/m) @ t=0.52
-0.7640776328237453
% es.tEX (V/m) @ t=0.52
0.7651945626618115
% es.tEY (V/m) @ t=0.52
0
% es.tEZ (V/m) @ t=0.52
-0.7640776328237378
% es.Ex (V/m) @ t=0.52
0.7651945626618126
% es.Ey (V/m) @ t=0.52
0.11457847473549893
% es.Ez (V/m) @ t=0.52
-0.7640776328237453
% es.tEx (V/m) @ t=0.52
0.7651945626618115
% es.tEy (V/m) @ t=0.52
0
% es.tEz (V/m) @ t=0.52
-0.7640776328237378
% V (V) @ t=0.52
0.011796936213416187
% es.normE (V/m) @ t=0.54
1.1116686504856013
% es.EX (V/m) @ t=0.54
0.7721740869805538
% es.EY (V/m) @ t=0.54
0.11562356086290498
% es.EZ (V/m) @ t=0.54
-0.7710469699867328
% es.tEX (V/m) @ t=0.54
0.7721740869805553
% es.tEY (V/m) @ t=0.54
0
% es.tEZ (V/m) @ t=0.54
-0.7710469699867151
% es.Ex (V/m) @ t=0.54
0.7721740869805538
% es.Ey (V/m) @ t=0.54
0.11562356086290498
% es.Ez (V/m) @ t=0.54
-0.7710469699867328
% es.tEx (V/m) @ t=0.54
0.7721740869805553
% es.tEy (V/m) @ t=0.54
0
% es.tEz (V/m) @ t=0.54
-0.7710469699867151
% V (V) @ t=0.54
0.011904539680609501
% es.normE (V/m) @ t=0.56
1.122490635278588
% es.EX (V/m) @ t=0.56
0.7796911238690345
% es.EY (V/m) @ t=0.56
0.11674915677489972
% es.EZ (V/m) @ t=0.56
-0.7785530338216913
% es.tEX (V/m) @ t=0.56
0.7796911238690316
% es.tEY (V/m) @ t=0.56
0
% es.tEZ (V/m) @ t=0.56
-0.7785530338216873
% es.Ex (V/m) @ t=0.56
0.7796911238690345
% es.Ey (V/m) @ t=0.56
0.11674915677489972
% es.Ez (V/m) @ t=0.56
-0.7785530338216913
% es.tEx (V/m) @ t=0.56
0.7796911238690316
% es.tEy (V/m) @ t=0.56
0
% es.tEz (V/m) @ t=0.56
-0.7785530338216873
% V (V) @ t=0.56
0.012020428382012675
% es.normE (V/m) @ t=0.58
1.1333126200715746
% es.EX (V/m) @ t=0.58
0.7872081607575205
% es.EY (V/m) @ t=0.58
0.11787475268691222
% es.EZ (V/m) @ t=0.58
-0.7860590976566395
% es.tEX (V/m) @ t=0.58
0.787208160757523
% es.tEY (V/m) @ t=0.58
0
% es.tEZ (V/m) @ t=0.58
-0.7860590976566249
% es.Ex (V/m) @ t=0.58
0.7872081607575205
% es.Ey (V/m) @ t=0.58
0.11787475268691222
% es.Ez (V/m) @ t=0.58
-0.7860590976566395
% es.tEx (V/m) @ t=0.58
0.787208160757523
% es.tEy (V/m) @ t=0.58
0
% es.tEz (V/m) @ t=0.58
-0.7860590976566249
% V (V) @ t=0.58
0.012136317083415844
% es.normE (V/m) @ t=0.6
1.144134604864556
% es.EX (V/m) @ t=0.6
0.7947251976460021
% es.EY (V/m) @ t=0.6
0.11900034859892317
% es.EZ (V/m) @ t=0.6
-0.7935651614915837
% es.tEX (V/m) @ t=0.6
0.794725197646009
% es.tEY (V/m) @ t=0.6
0
% es.tEZ (V/m) @ t=0.6
-0.7935651614915695
% es.Ex (V/m) @ t=0.6
0.7947251976460021
% es.Ey (V/m) @ t=0.6
0.11900034859892317
% es.Ez (V/m) @ t=0.6
-0.7935651614915837
% es.tEx (V/m) @ t=0.6
0.794725197646009
% es.tEy (V/m) @ t=0.6
0
% es.tEz (V/m) @ t=0.6
-0.7935651614915695
% V (V) @ t=0.6
0.01225220578481902
% es.normE (V/m) @ t=0.62
1.1549565896575364
% es.EX (V/m) @ t=0.62
0.8022422345344828
% es.EY (V/m) @ t=0.62
0.12012594451093056
% es.EZ (V/m) @ t=0.62
-0.8010712253265275
% es.tEX (V/m) @ t=0.62
0.8022422345344902
% es.tEY (V/m) @ t=0.62
0
% es.tEZ (V/m) @ t=0.62
-0.8010712253265204
% es.Ex (V/m) @ t=0.62
0.8022422345344828
% es.Ey (V/m) @ t=0.62
0.12012594451093056
% es.Ez (V/m) @ t=0.62
-0.8010712253265275
% es.tEx (V/m) @ t=0.62
0.8022422345344902
% es.tEy (V/m) @ t=0.62
0
% es.tEz (V/m) @ t=0.62
-0.8010712253265204
% V (V) @ t=0.62
0.012368094486222189
% es.normE (V/m) @ t=0.64
1.1657785744505247
% es.EX (V/m) @ t=0.64
0.8097592714229729
% es.EY (V/m) @ t=0.64
0.12125154042292885
% es.EZ (V/m) @ t=0.64
-0.8085772891614753
% es.tEX (V/m) @ t=0.64
0.8097592714229735
% es.tEY (V/m) @ t=0.64
0
% es.tEZ (V/m) @ t=0.64
-0.8085772891614571
% es.Ex (V/m) @ t=0.64
0.8097592714229729
% es.Ey (V/m) @ t=0.64
0.12125154042292885
% es.Ez (V/m) @ t=0.64
-0.8085772891614753
% es.tEx (V/m) @ t=0.64
0.8097592714229735
% es.tEy (V/m) @ t=0.64
0
% es.tEz (V/m) @ t=0.64
-0.8085772891614571
% V (V) @ t=0.64
0.012483983187625362
% es.normE (V/m) @ t=0.66
1.1766005592435085
% es.EX (V/m) @ t=0.66
0.8172763083114509
% es.EY (V/m) @ t=0.66
0.12237713633493802
% es.EZ (V/m) @ t=0.66
-0.8160833529964271
% es.tEX (V/m) @ t=0.66
0.817276308311456
% es.tEY (V/m) @ t=0.66
0
% es.tEZ (V/m) @ t=0.66
-0.8160833529964089
% es.Ex (V/m) @ t=0.66
0.8172763083114509
% es.Ey (V/m) @ t=0.66
0.12237713633493802
% es.Ez (V/m) @ t=0.66
-0.8160833529964271
% es.tEx (V/m) @ t=0.66
0.817276308311456
% es.tEy (V/m) @ t=0.66
0
% es.tEz (V/m) @ t=0.66
-0.8160833529964089
% V (V) @ t=0.66
0.012599871889028535
% es.normE (V/m) @ t=0.68
1.18742254403649
% es.EX (V/m) @ t=0.68
0.8247933451999363
% es.EY (V/m) @ t=0.68
0.12350273224693825
% es.EZ (V/m) @ t=0.68
-0.8235894168313638
% es.tEX (V/m) @ t=0.68
0.8247933451999394
% es.tEY (V/m) @ t=0.68
0
% es.tEZ (V/m) @ t=0.68
-0.8235894168313527
% es.Ex (V/m) @ t=0.68
0.8247933451999363
% es.Ey (V/m) @ t=0.68
0.12350273224693825
% es.Ez (V/m) @ t=0.68
-0.8235894168313638
% es.tEx (V/m) @ t=0.68
0.8247933451999394
% es.tEy (V/m) @ t=0.68
0
% es.tEz (V/m) @ t=0.68
-0.8235894168313527
% V (V) @ t=0.68
0.01271576059043171
% es.normE (V/m) @ t=0.7
1.1982445288294823
% es.EX (V/m) @ t=0.7
0.8323103820884237
% es.EY (V/m) @ t=0.7
0.12462832815894193
% es.EZ (V/m) @ t=0.7
-0.8310954806663222
% es.tEX (V/m) @ t=0.7
0.8323103820884237
% es.tEY (V/m) @ t=0.7
0
% es.tEZ (V/m) @ t=0.7
-0.8310954806663045
% es.Ex (V/m) @ t=0.7
0.8323103820884237
% es.Ey (V/m) @ t=0.7
0.12462832815894193
% es.Ez (V/m) @ t=0.7
-0.8310954806663222
% es.tEx (V/m) @ t=0.7
0.8323103820884237
% es.tEy (V/m) @ t=0.7
0
% es.tEz (V/m) @ t=0.7
-0.8310954806663045
% V (V) @ t=0.7
0.012831649291834878
% es.normE (V/m) @ t=0.72
1.2090665136224625
% es.EX (V/m) @ t=0.72
0.8398274189769075
% es.EY (V/m) @ t=0.72
0.12575392407095198
% es.EZ (V/m) @ t=0.72
-0.8386015445012629
% es.tEX (V/m) @ t=0.72
0.839827418976907
% es.tEY (V/m) @ t=0.72
0
% es.tEZ (V/m) @ t=0.72
-0.8386015445012482
% es.Ex (V/m) @ t=0.72
0.8398274189769075
% es.Ey (V/m) @ t=0.72
0.12575392407095198
% es.Ez (V/m) @ t=0.72
-0.8386015445012629
% es.tEx (V/m) @ t=0.72
0.839827418976907
% es.tEy (V/m) @ t=0.72
0
% es.tEz (V/m) @ t=0.72
-0.8386015445012482
% V (V) @ t=0.72
0.012947537993238051
% es.normE (V/m) @ t=0.74
1.2198884984154479
% es.EX (V/m) @ t=0.74
0.847344455865396
% es.EY (V/m) @ t=0.74
0.12687951998295294
% es.EZ (V/m) @ t=0.74
-0.846107608336204
% es.tEX (V/m) @ t=0.74
0.8473444558654011
% es.tEY (V/m) @ t=0.74
0
% es.tEZ (V/m) @ t=0.74
-0.8461076083361929
% es.Ex (V/m) @ t=0.74
0.847344455865396
% es.Ey (V/m) @ t=0.74
0.12687951998295294
% es.Ez (V/m) @ t=0.74
-0.846107608336204
% es.tEx (V/m) @ t=0.74
0.8473444558654011
% es.tEy (V/m) @ t=0.74
0
% es.tEz (V/m) @ t=0.74
-0.8461076083361929
% V (V) @ t=0.74
0.013063426694641226
% es.normE (V/m) @ t=0.76
1.2307104832084361
% es.EX (V/m) @ t=0.76
0.8548614927538718
% es.EY (V/m) @ t=0.76
0.12800511589496189
% es.EZ (V/m) @ t=0.76
-0.8536136721711625
% es.tEX (V/m) @ t=0.76
0.8548614927538738
% es.tEY (V/m) @ t=0.76
0
% es.tEZ (V/m) @ t=0.76
-0.8536136721711518
% es.Ex (V/m) @ t=0.76
0.8548614927538718
% es.Ey (V/m) @ t=0.76
0.12800511589496189
% es.Ez (V/m) @ t=0.76
-0.8536136721711625
% es.tEx (V/m) @ t=0.76
0.8548614927538738
% es.tEy (V/m) @ t=0.76
0
% es.tEz (V/m) @ t=0.76
-0.8536136721711518
% V (V) @ t=0.76
0.013179315396044396
% es.normE (V/m) @ t=0.78
1.2415324680014215
% es.EX (V/m) @ t=0.78
0.8623785296423556
% es.EY (V/m) @ t=0.78
0.12913071180697122
% es.EZ (V/m) @ t=0.78
-0.8611197360061063
% es.tEX (V/m) @ t=0.78
0.8623785296423603
% es.tEY (V/m) @ t=0.78
0
% es.tEZ (V/m) @ t=0.78
-0.8611197360060885
% es.Ex (V/m) @ t=0.78
0.8623785296423556
% es.Ey (V/m) @ t=0.78
0.12913071180697122
% es.Ez (V/m) @ t=0.78
-0.8611197360061063
% es.tEx (V/m) @ t=0.78
0.8623785296423603
% es.tEy (V/m) @ t=0.78
0
% es.tEz (V/m) @ t=0.78
-0.8611197360060885
% V (V) @ t=0.78
0.013295204097447569
% es.normE (V/m) @ t=0.8
1.252354452794402
% es.EX (V/m) @ t=0.8
0.8698955665308394
% es.EY (V/m) @ t=0.8
0.13025630771896157
% es.EZ (V/m) @ t=0.8
-0.8686257998410469
% es.tEX (V/m) @ t=0.8
0.8698955665308516
% es.tEY (V/m) @ t=0.8
0
% es.tEZ (V/m) @ t=0.8
-0.8686257998410323
% es.Ex (V/m) @ t=0.8
0.8698955665308394
% es.Ey (V/m) @ t=0.8
0.13025630771896157
% es.Ez (V/m) @ t=0.8
-0.8686257998410469
% es.tEx (V/m) @ t=0.8
0.8698955665308516
% es.tEy (V/m) @ t=0.8
0
% es.tEz (V/m) @ t=0.8
-0.8686257998410323
% V (V) @ t=0.8
0.013411092798850742
% es.normE (V/m) @ t=0.82
1.2643653349927286
% es.EX (V/m) @ t=0.82
0.8782384200768234
% es.EY (V/m) @ t=0.82
0.1315055674319653
% es.EZ (V/m) @ t=0.82
-0.8769564744687659
% es.tEX (V/m) @ t=0.82
0.878238420076825
% es.tEY (V/m) @ t=0.82
0
% es.tEZ (V/m) @ t=0.82
-0.8769564744687512
% es.Ex (V/m) @ t=0.82
0.8782384200768234
% es.Ey (V/m) @ t=0.82
0.1315055674319653
% es.Ez (V/m) @ t=0.82
-0.8769564744687659
% es.tEx (V/m) @ t=0.82
0.878238420076825
% es.tEy (V/m) @ t=0.82
0
% es.tEz (V/m) @ t=0.82
-0.8769564744687512
% V (V) @ t=0.82
0.013539712528337708
% es.normE (V/m) @ t=0.84
1.276436084155686
% es.EX (V/m) @ t=0.84
0.8866228576454456
% es.EY (V/m) @ t=0.84
0.13276105423936674
% es.EZ (V/m) @ t=0.84
-0.8853286723977747
% es.tEX (V/m) @ t=0.84
0.8866228576454502
% es.tEY (V/m) @ t=0.84
0
% es.tEZ (V/m) @ t=0.84
-0.8853286723977565
% es.Ex (V/m) @ t=0.84
0.8866228576454456
% es.Ey (V/m) @ t=0.84
0.13276105423936674
% es.Ez (V/m) @ t=0.84
-0.8853286723977747
% es.tEx (V/m) @ t=0.84
0.8866228576454502
% es.tEy (V/m) @ t=0.84
0
% es.tEz (V/m) @ t=0.84
-0.8853286723977565
% V (V) @ t=0.84
0.013668973329127098
% es.normE (V/m) @ t=0.86
1.2885068333186478
% es.EX (V/m) @ t=0.86
0.8950072952140766
% es.EY (V/m) @ t=0.86
0.13401654104679434
% es.EZ (V/m) @ t=0.86
-0.8937008703267848
% es.tEX (V/m) @ t=0.86
0.8950072952140853
% es.tEY (V/m) @ t=0.86
0
% es.tEZ (V/m) @ t=0.86
-0.893700870326767
% es.Ex (V/m) @ t=0.86
0.8950072952140766
% es.Ey (V/m) @ t=0.86
0.13401654104679434
% es.Ez (V/m) @ t=0.86
-0.8937008703267848
% es.tEx (V/m) @ t=0.86
0.8950072952140853
% es.tEy (V/m) @ t=0.86
0
% es.tEz (V/m) @ t=0.86
-0.893700870326767
% V (V) @ t=0.86
0.013798234129916487
% es.normE (V/m) @ t=0.88
1.3005775824816173
% es.EX (V/m) @ t=0.88
0.9033917327827103
% es.EY (V/m) @ t=0.88
0.13527202785421594
% es.EZ (V/m) @ t=0.88
-0.9020730682557949
% es.tEX (V/m) @ t=0.88
0.9033917327827155
% es.tEY (V/m) @ t=0.88
0
% es.tEZ (V/m) @ t=0.88
-0.9020730682557767
% es.Ex (V/m) @ t=0.88
0.9033917327827103
% es.Ey (V/m) @ t=0.88
0.13527202785421594
% es.Ez (V/m) @ t=0.88
-0.9020730682557949
% es.tEx (V/m) @ t=0.88
0.9033917327827155
% es.tEy (V/m) @ t=0.88
0
% es.tEz (V/m) @ t=0.88
-0.9020730682557767
% V (V) @ t=0.88
0.013927494930705874
% es.normE (V/m) @ t=0.9
1.3126483316445623
% es.EX (V/m) @ t=0.9
0.9117761703513352
% es.EY (V/m) @ t=0.9
0.13652751466162133
% es.EZ (V/m) @ t=0.9
-0.9104452661847913
% es.tEX (V/m) @ t=0.9
0.9117761703513363
% es.tEY (V/m) @ t=0.9
0
% es.tEZ (V/m) @ t=0.9
-0.9104452661847731
% es.Ex (V/m) @ t=0.9
0.9117761703513352
% es.Ey (V/m) @ t=0.9
0.13652751466162133
% es.Ez (V/m) @ t=0.9
-0.9104452661847913
% es.tEx (V/m) @ t=0.9
0.9117761703513363
% es.tEy (V/m) @ t=0.9
0
% es.tEz (V/m) @ t=0.9
-0.9104452661847731
% V (V) @ t=0.9
0.01405675573149526
% es.normE (V/m) @ t=0.92
1.3247190808075247
% es.EX (V/m) @ t=0.92
0.9201606079199609
% es.EY (V/m) @ t=0.92
0.1377830014690382
% es.EZ (V/m) @ t=0.92
-0.9188174641138018
% es.tEX (V/m) @ t=0.92
0.9201606079199633
% es.tEY (V/m) @ t=0.92
0
% es.tEZ (V/m) @ t=0.92
-0.9188174641137836
% es.Ex (V/m) @ t=0.92
0.9201606079199609
% es.Ey (V/m) @ t=0.92
0.1377830014690382
% es.Ez (V/m) @ t=0.92
-0.9188174641138018
% es.tEx (V/m) @ t=0.92
0.9201606079199633
% es.tEy (V/m) @ t=0.92
0
% es.tEz (V/m) @ t=0.92
-0.9188174641137836
% V (V) @ t=0.92
0.014186016532284646
% es.normE (V/m) @ t=0.94
1.3367898299705019
% es.EX (V/m) @ t=0.94
0.9285450454886053
% es.EY (V/m) @ t=0.94
0.13903848827646847
% es.EZ (V/m) @ t=0.94
-0.9271896620428124
% es.tEX (V/m) @ t=0.94
0.9285450454886082
% es.tEY (V/m) @ t=0.94
0
% es.tEZ (V/m) @ t=0.94
-0.9271896620428013
% es.Ex (V/m) @ t=0.94
0.9285450454886053
% es.Ey (V/m) @ t=0.94
0.13903848827646847
% es.Ez (V/m) @ t=0.94
-0.9271896620428124
% es.tEx (V/m) @ t=0.94
0.9285450454886082
% es.tEy (V/m) @ t=0.94
0
% es.tEz (V/m) @ t=0.94
-0.9271896620428013
% V (V) @ t=0.94
0.014315277333074033
% es.normE (V/m) @ t=0.96
1.3488605791334551
% es.EX (V/m) @ t=0.96
0.9369294830572235
% es.EY (V/m) @ t=0.96
0.14029397508389063
% es.EZ (V/m) @ t=0.96
-0.9355618599718238
% es.tEX (V/m) @ t=0.96
0.9369294830572281
% es.tEY (V/m) @ t=0.96
0
% es.tEZ (V/m) @ t=0.96
-0.9355618599718127
% es.Ex (V/m) @ t=0.96
0.9369294830572235
% es.Ey (V/m) @ t=0.96
0.14029397508389063
% es.Ez (V/m) @ t=0.96
-0.9355618599718238
% es.tEx (V/m) @ t=0.96
0.9369294830572281
% es.tEy (V/m) @ t=0.96
0
% es.tEz (V/m) @ t=0.96
-0.9355618599718127
% V (V) @ t=0.96
0.01444453813386342
% es.normE (V/m) @ t=0.98
1.3609313282964264
% es.EX (V/m) @ t=0.98
0.9453139206258576
% es.EY (V/m) @ t=0.98
0.14154946189129958
% es.EZ (V/m) @ t=0.98
-0.943934057900838
% es.tEX (V/m) @ t=0.98
0.9453139206258614
% es.tEY (V/m) @ t=0.98
0
% es.tEZ (V/m) @ t=0.98
-0.9439340579008233
% es.Ex (V/m) @ t=0.98
0.9453139206258576
% es.Ey (V/m) @ t=0.98
0.14154946189129958
% es.Ez (V/m) @ t=0.98
-0.943934057900838
% es.tEx (V/m) @ t=0.98
0.9453139206258614
% es.tEy (V/m) @ t=0.98
0
% es.tEz (V/m) @ t=0.98
-0.9439340579008233
% V (V) @ t=0.98
0.01457379893465281
% es.normE (V/m) @ t=1
1.373002077459394
% es.EX (V/m) @ t=1
0.953698358194482
% es.EY (V/m) @ t=1
0.14280494869871024
% es.EZ (V/m) @ t=1
-0.9523062558298592
% es.tEX (V/m) @ t=1
0.9536983581944938
% es.tEY (V/m) @ t=1
0
% es.tEZ (V/m) @ t=1
-0.952306255829841
% es.Ex (V/m) @ t=1
0.953698358194482
% es.Ey (V/m) @ t=1
0.14280494869871024
% es.Ez (V/m) @ t=1
-0.9523062558298592
% es.tEx (V/m) @ t=1
0.9536983581944938
% es.tEy (V/m) @ t=1
0
% es.tEz (V/m) @ t=1
-0.952306255829841
% V (V) @ t=1
0.014703059735442196
% es.normE (V/m) @ t=1.02
1.3850728266223493
% es.EX (V/m) @ t=1.02
0.9620827957631166
% es.EY (V/m) @ t=1.02
0.14406043550612896
% es.EZ (V/m) @ t=1.02
-0.9606784537588484
% es.tEX (V/m) @ t=1.02
0.9620827957631168
% es.tEY (V/m) @ t=1.02
0
% es.tEZ (V/m) @ t=1.02
-0.9606784537588302
% es.Ex (V/m) @ t=1.02
0.9620827957631166
% es.Ey (V/m) @ t=1.02
0.14406043550612896
% es.Ez (V/m) @ t=1.02
-0.9606784537588484
% es.tEx (V/m) @ t=1.02
0.9620827957631168
% es.tEy (V/m) @ t=1.02
0
% es.tEz (V/m) @ t=1.02
-0.9606784537588302
% V (V) @ t=1.02
0.014832320536231586
% es.normE (V/m) @ t=1.04
1.397143575785328
% es.EX (V/m) @ t=1.04
0.9704672333317521
% es.EY (V/m) @ t=1.04
0.14531592231356283
% es.EZ (V/m) @ t=1.04
-0.9690506516878741