% Model:              1 neuron.mph
% Version:            COMSOL 6.0.0.405
% Date:               Mar 16 2023, 18:03
% Dimension:          0
% Nodes:              14017
% Expressions:        14017
% Description:        Electric field norm, Electric field, X component, Electric field, Y component, Electric field, Z component, Tangential electric field, X component, Tangential electric field, Y component, Tangential electric field, Z component, Electric field, x component, Electric field, y component, Electric field, z component, Tangential electric field, x component, Tangential electric field, y component, Tangential electric field, z component, Electric potential
% Length unit:        mm
% x
1.66
% y
12.2
% z
2
% es.normE (V/m) @ t=0
2.175699939966454
% es.EX (V/m) @ t=0
-0.6490558802198838
% es.EY (V/m) @ t=0
0.04848174483557084
% es.EZ (V/m) @ t=0
-2.0725717115397915
% es.tEX (V/m) @ t=0
-0.6490558802198976
% es.tEY (V/m) @ t=0
0
% es.tEZ (V/m) @ t=0
-2.072571711539805
% es.Ex (V/m) @ t=0
-0.6490558802198838
% es.Ey (V/m) @ t=0
0.04848174483557084
% es.Ez (V/m) @ t=0
-2.0725717115397915
% es.tEx (V/m) @ t=0
-0.6490558802198976
% es.tEy (V/m) @ t=0
0
% es.tEz (V/m) @ t=0
-2.072571711539805
% V (V) @ t=0
0.010935972512407348
% es.normE (V/m) @ t=0.02
1.8791908465361569
% es.EX (V/m) @ t=0.02
-0.5606011411848539
% es.EY (V/m) @ t=0.02
0.04187454799104515
% es.EZ (V/m) @ t=0.02
-1.7901171560826503
% es.tEX (V/m) @ t=0.02
-0.5606011411848613
% es.tEY (V/m) @ t=0.02
0
% es.tEZ (V/m) @ t=0.02
-1.7901171560826565
% es.Ex (V/m) @ t=0.02
-0.5606011411848539
% es.Ey (V/m) @ t=0.02
0.04187454799104515
% es.Ez (V/m) @ t=0.02
-1.7901171560826503
% es.tEx (V/m) @ t=0.02
-0.5606011411848613
% es.tEy (V/m) @ t=0.02
0
% es.tEz (V/m) @ t=0.02
-1.7901171560826565
% V (V) @ t=0.02
0.009445594518897813
% es.normE (V/m) @ t=0.04
1.8964751703696408
% es.EX (V/m) @ t=0.04
-0.5657574092545015
% es.EY (V/m) @ t=0.04
0.04225969964365629
% es.EZ (V/m) @ t=0.04
-1.806582202536604
% es.tEX (V/m) @ t=0.04
-0.565757409254509
% es.tEY (V/m) @ t=0.04
0
% es.tEZ (V/m) @ t=0.04
-1.8065822025366245
% es.Ex (V/m) @ t=0.04
-0.5657574092545015
% es.Ey (V/m) @ t=0.04
0.04225969964365629
% es.Ez (V/m) @ t=0.04
-1.806582202536604
% es.tEx (V/m) @ t=0.04
-0.565757409254509
% es.tEy (V/m) @ t=0.04
0
% es.tEz (V/m) @ t=0.04
-1.8065822025366245
% V (V) @ t=0.04
0.009532472713280718
% es.normE (V/m) @ t=0.06
1.9138968114613293
% es.EX (V/m) @ t=0.06
-0.5709546414251975
% es.EY (V/m) @ t=0.06
0.04264791031822984
% es.EZ (V/m) @ t=0.06
-1.8231780575964156
% es.tEX (V/m) @ t=0.06
-0.570954641425196
% es.tEY (V/m) @ t=0.06
0
% es.tEZ (V/m) @ t=0.06
-1.823178057596432
% es.Ex (V/m) @ t=0.06
-0.5709546414251975
% es.Ey (V/m) @ t=0.06
0.04264791031822984
% es.Ez (V/m) @ t=0.06
-1.8231780575964156
% es.tEx (V/m) @ t=0.06
-0.570954641425196
% es.tEy (V/m) @ t=0.06
0
% es.tEz (V/m) @ t=0.06
-1.823178057596432
% V (V) @ t=0.06
0.009620041152802532
% es.normE (V/m) @ t=0.08
1.931627121469466
% es.EX (V/m) @ t=0.08
-0.5762439561937067
% es.EY (V/m) @ t=0.08
0.04304299976457318
% es.EZ (V/m) @ t=0.08
-1.8400679505203654
% es.tEX (V/m) @ t=0.08
-0.5762439561937143
% es.tEY (V/m) @ t=0.08
0
% es.tEZ (V/m) @ t=0.08
-1.8400679505203819
% es.Ex (V/m) @ t=0.08
-0.5762439561937067
% es.Ey (V/m) @ t=0.08
0.04304299976457318
% es.Ez (V/m) @ t=0.08
-1.8400679505203654
% es.tEx (V/m) @ t=0.08
-0.5762439561937143
% es.tEy (V/m) @ t=0.08
0
% es.tEz (V/m) @ t=0.08
-1.8400679505203819
% V (V) @ t=0.08
0.009709161067494539
% es.normE (V/m) @ t=0.1
1.949483039609351
% es.EX (V/m) @ t=0.1
-0.5815707425781242
% es.EY (V/m) @ t=0.1
0.04344088842269585
% es.EZ (V/m) @ t=0.1
-1.8570774976913396
% es.tEX (V/m) @ t=0.1
-0.5815707425781298
% es.tEY (V/m) @ t=0.1
0
% es.tEZ (V/m) @ t=0.1
-1.8570774976913684
% es.Ex (V/m) @ t=0.1
-0.5815707425781242
% es.Ey (V/m) @ t=0.1
0.04344088842269585
% es.Ez (V/m) @ t=0.1
-1.8570774976913396
% es.tEx (V/m) @ t=0.1
-0.5815707425781298
% es.tEy (V/m) @ t=0.1
0
% es.tEz (V/m) @ t=0.1
-1.8570774976913684
% V (V) @ t=0.1
0.00979891233146472
% es.normE (V/m) @ t=0.12
1.9673389577492584
% es.EX (V/m) @ t=0.12
-0.5868975289625515
% es.EY (V/m) @ t=0.12
0.04383877708083252
% es.EZ (V/m) @ t=0.12
-1.874087044862335
% es.tEX (V/m) @ t=0.12
-0.5868975289625631
% es.tEY (V/m) @ t=0.12
0
% es.tEZ (V/m) @ t=0.12
-1.8740870448623488
% es.Ex (V/m) @ t=0.12
-0.5868975289625515
% es.Ey (V/m) @ t=0.12
0.04383877708083252
% es.Ez (V/m) @ t=0.12
-1.874087044862335
% es.tEx (V/m) @ t=0.12
-0.5868975289625631
% es.tEy (V/m) @ t=0.12
0
% es.tEz (V/m) @ t=0.12
-1.8740870448623488
% V (V) @ t=0.12
0.009888663595434898
% es.normE (V/m) @ t=0.14
1.9855902134098828
% es.EX (V/m) @ t=0.14
-0.5923422526883217
% es.EY (V/m) @ t=0.14
0.04424547523324733
% es.EZ (V/m) @ t=0.14
-1.8914731905247666
% es.tEX (V/m) @ t=0.14
-0.5923422526883222
% es.tEY (V/m) @ t=0.14
0
% es.tEZ (V/m) @ t=0.14
-1.8914731905247777
% es.Ex (V/m) @ t=0.14
-0.5923422526883217
% es.Ey (V/m) @ t=0.14
0.04424547523324733
% es.Ez (V/m) @ t=0.14
-1.8914731905247666
% es.tEx (V/m) @ t=0.14
-0.5923422526883222
% es.tEy (V/m) @ t=0.14
0
% es.tEz (V/m) @ t=0.14
-1.8914731905247777
% V (V) @ t=0.14
0.009980401986538864
% es.normE (V/m) @ t=0.16
2.0043630938766306
% es.EX (V/m) @ t=0.16
-0.5979425878589643
% es.EY (V/m) @ t=0.16
0.04466379699969816
% es.EZ (V/m) @ t=0.16
-1.9093562359368783
% es.tEX (V/m) @ t=0.16
-0.5979425878589737
% es.tEY (V/m) @ t=0.16
0
% es.tEZ (V/m) @ t=0.16
-1.909356235936893
% es.Ex (V/m) @ t=0.16
-0.5979425878589643
% es.Ey (V/m) @ t=0.16
0.04466379699969816
% es.Ez (V/m) @ t=0.16
-1.9093562359368783
% es.tEx (V/m) @ t=0.16
-0.5979425878589737
% es.tEy (V/m) @ t=0.16
0
% es.tEz (V/m) @ t=0.16
-1.909356235936893
% V (V) @ t=0.16
0.010074762276024728
% es.normE (V/m) @ t=0.18
2.023135974343382
% es.EX (V/m) @ t=0.18
-0.6035429230296147
% es.EY (V/m) @ t=0.18
0.04508211876615774
% es.EZ (V/m) @ t=0.18
-1.9272392813489905
% es.tEX (V/m) @ t=0.18
-0.6035429230296216
% es.tEY (V/m) @ t=0.18
0
% es.tEZ (V/m) @ t=0.18
-1.927239281349003
% es.Ex (V/m) @ t=0.18
-0.6035429230296147
% es.Ey (V/m) @ t=0.18
0.04508211876615774
% es.Ez (V/m) @ t=0.18
-1.9272392813489905
% es.tEx (V/m) @ t=0.18
-0.6035429230296216
% es.tEy (V/m) @ t=0.18
0
% es.tEz (V/m) @ t=0.18
-1.927239281349003
% V (V) @ t=0.18
0.01016912256551059
% es.normE (V/m) @ t=0.2
2.0419088548101225
% es.EX (V/m) @ t=0.2
-0.6091432582002563
% es.EY (V/m) @ t=0.2
0.04550044053259791
% es.EZ (V/m) @ t=0.2
-1.945122326761095
% es.tEX (V/m) @ t=0.2
-0.6091432582002625
% es.tEY (V/m) @ t=0.2
0
% es.tEZ (V/m) @ t=0.2
-1.9451223267611182
% es.Ex (V/m) @ t=0.2
-0.6091432582002563
% es.Ey (V/m) @ t=0.2
0.04550044053259791
% es.Ez (V/m) @ t=0.2
-1.945122326761095
% es.tEx (V/m) @ t=0.2
-0.6091432582002625
% es.tEy (V/m) @ t=0.2
0
% es.tEz (V/m) @ t=0.2
-1.9451223267611182
% V (V) @ t=0.2
0.010263482854996455
% es.normE (V/m) @ t=0.22
2.0606817352768743
% es.EX (V/m) @ t=0.22
-0.6147435933709067
% es.EY (V/m) @ t=0.22
0.0459187622990435
% es.EZ (V/m) @ t=0.22
-1.9630053721732077
% es.tEX (V/m) @ t=0.22
-0.6147435933709069
% es.tEY (V/m) @ t=0.22
0
% es.tEZ (V/m) @ t=0.22
-1.9630053721732263
% es.Ex (V/m) @ t=0.22
-0.6147435933709067
% es.Ey (V/m) @ t=0.22
0.0459187622990435
% es.Ez (V/m) @ t=0.22
-1.9630053721732077
% es.tEx (V/m) @ t=0.22
-0.6147435933709069
% es.tEy (V/m) @ t=0.22
0
% es.tEz (V/m) @ t=0.22
-1.9630053721732263
% V (V) @ t=0.22
0.010357843144482319
% es.normE (V/m) @ t=0.24
2.0794546157436287
% es.EX (V/m) @ t=0.24
-0.6203439285415513
% es.EY (V/m) @ t=0.24
0.04633708406549944
% es.EZ (V/m) @ t=0.24
-1.9808884175853256
% es.tEX (V/m) @ t=0.24
-0.6203439285415548
% es.tEY (V/m) @ t=0.24
0
% es.tEZ (V/m) @ t=0.24
-1.9808884175853425
% es.Ex (V/m) @ t=0.24
-0.6203439285415513
% es.Ey (V/m) @ t=0.24
0.04633708406549944
% es.Ez (V/m) @ t=0.24
-1.9808884175853256
% es.tEx (V/m) @ t=0.24
-0.6203439285415548
% es.tEy (V/m) @ t=0.24
0
% es.tEz (V/m) @ t=0.24
-1.9808884175853425
% V (V) @ t=0.24
0.010452203433968181
% es.normE (V/m) @ t=0.26
2.0982274962103835
% es.EX (V/m) @ t=0.26
-0.6259442637121917
% es.EY (V/m) @ t=0.26
0.04675540583193792
% es.EZ (V/m) @ t=0.26
-1.9987714629974458
% es.tEX (V/m) @ t=0.26
-0.6259442637121957
% es.tEY (V/m) @ t=0.26
0
% es.tEZ (V/m) @ t=0.26
-1.9987714629974649
% es.Ex (V/m) @ t=0.26
-0.6259442637121917
% es.Ey (V/m) @ t=0.26
0.04675540583193792
% es.Ez (V/m) @ t=0.26
-1.9987714629974458
% es.tEx (V/m) @ t=0.26
-0.6259442637121957
% es.tEy (V/m) @ t=0.26
0
% es.tEz (V/m) @ t=0.26
-1.9987714629974649
% V (V) @ t=0.26
0.010546563723454045
% es.normE (V/m) @ t=0.28
2.1187907811967635
% es.EX (V/m) @ t=0.28
-0.6320786923363875
% es.EY (V/m) @ t=0.28
0.04721358691280561
% es.EZ (V/m) @ t=0.28
-2.0183600562524187
% es.tEX (V/m) @ t=0.28
-0.6320786923363961
% es.tEY (V/m) @ t=0.28
0
% es.tEZ (V/m) @ t=0.28
-2.0183600562524395
% es.Ex (V/m) @ t=0.28
-0.6320786923363875
% es.Ey (V/m) @ t=0.28
0.04721358691280561
% es.Ez (V/m) @ t=0.28
-2.0183600562524187
% es.tEx (V/m) @ t=0.28
-0.6320786923363961
% es.tEy (V/m) @ t=0.28
0
% es.tEz (V/m) @ t=0.28
-2.0183600562524395
% V (V) @ t=0.28
0.010649924762674644
% es.normE (V/m) @ t=0.3
2.1396171492484397
% es.EX (V/m) @ t=0.3
-0.6382916009584558
% es.EY (V/m) @ t=0.3
0.04767762494415377
% es.EZ (V/m) @ t=0.3
-2.03819926368402
% es.tEX (V/m) @ t=0.3
-0.6382916009584605
% es.tEY (V/m) @ t=0.3
0
% es.tEZ (V/m) @ t=0.3
-2.038199263684043
% es.Ex (V/m) @ t=0.3
-0.6382916009584558
% es.Ey (V/m) @ t=0.3
0.04767762494415377
% es.Ez (V/m) @ t=0.3
-2.03819926368402
% es.tEx (V/m) @ t=0.3
-0.6382916009584605
% es.tEy (V/m) @ t=0.3
0
% es.tEz (V/m) @ t=0.3
-2.038199263684043
% V (V) @ t=0.3
0.010754608377214949
% es.normE (V/m) @ t=0.32
2.160443517300127
% es.EX (V/m) @ t=0.32
-0.6445045095805293
% es.EY (V/m) @ t=0.32
0.04814166297548447
% es.EZ (V/m) @ t=0.32
-2.058038471115629
% es.tEX (V/m) @ t=0.32
-0.6445045095805355
% es.tEY (V/m) @ t=0.32
0
% es.tEZ (V/m) @ t=0.32
-2.0580384711156388
% es.Ex (V/m) @ t=0.32
-0.6445045095805293
% es.Ey (V/m) @ t=0.32
0.04814166297548447
% es.Ez (V/m) @ t=0.32
-2.058038471115629
% es.tEx (V/m) @ t=0.32
-0.6445045095805355
% es.tEy (V/m) @ t=0.32
0
% es.tEz (V/m) @ t=0.32
-2.0580384711156388
% V (V) @ t=0.32
0.010859291991755253
% es.normE (V/m) @ t=0.34
2.1812698853518073
% es.EX (V/m) @ t=0.34
-0.6507174182026003
% es.EY (V/m) @ t=0.34
0.048605701006818436
% es.EZ (V/m) @ t=0.34
-2.07787767854723
% es.tEX (V/m) @ t=0.34
-0.650717418202607
% es.tEY (V/m) @ t=0.34
0
% es.tEZ (V/m) @ t=0.34
-2.0778776785472557
% es.Ex (V/m) @ t=0.34
-0.6507174182026003
% es.Ey (V/m) @ t=0.34
0.048605701006818436
% es.Ez (V/m) @ t=0.34
-2.07787767854723
% es.tEx (V/m) @ t=0.34
-0.650717418202607
% es.tEy (V/m) @ t=0.34
0
% es.tEz (V/m) @ t=0.34
-2.0778776785472557
% V (V) @ t=0.34
0.010963975606295556
% es.normE (V/m) @ t=0.36
2.202096253403468
% es.EX (V/m) @ t=0.36
-0.6569303268246685
% es.EY (V/m) @ t=0.36
0.04906973903817245
% es.EZ (V/m) @ t=0.36
-2.0977168859788105
% es.tEX (V/m) @ t=0.36
-0.6569303268246784
% es.tEY (V/m) @ t=0.36
0
% es.tEZ (V/m) @ t=0.36
-2.097716885978838
% es.Ex (V/m) @ t=0.36
-0.6569303268246685
% es.Ey (V/m) @ t=0.36
0.04906973903817245
% es.Ez (V/m) @ t=0.36
-2.0977168859788105
% es.tEx (V/m) @ t=0.36
-0.6569303268246784
% es.tEy (V/m) @ t=0.36
0
% es.tEz (V/m) @ t=0.36
-2.097716885978838
% V (V) @ t=0.36
0.01106865922083586
% es.normE (V/m) @ t=0.38
2.2229226214551625
% es.EX (V/m) @ t=0.38
-0.6631432354467353
% es.EY (V/m) @ t=0.38
0.049533777069509705
% es.EZ (V/m) @ t=0.38
-2.1175560934104256
% es.tEX (V/m) @ t=0.38
-0.6631432354467428
% es.tEY (V/m) @ t=0.38
0
% es.tEZ (V/m) @ t=0.38
-2.117556093410447
% es.Ex (V/m) @ t=0.38
-0.6631432354467353
% es.Ey (V/m) @ t=0.38
0.049533777069509705
% es.Ez (V/m) @ t=0.38
-2.1175560934104256
% es.tEx (V/m) @ t=0.38
-0.6631432354467428
% es.tEy (V/m) @ t=0.38
0
% es.tEz (V/m) @ t=0.38
-2.117556093410447
% V (V) @ t=0.38
0.011173342835376163
% es.normE (V/m) @ t=0.4
2.243748989506847
% es.EX (V/m) @ t=0.4
-0.6693561440688078
% es.EY (V/m) @ t=0.4
0.04999781510084217
% es.EZ (V/m) @ t=0.4
-2.1373953008420274
% es.tEX (V/m) @ t=0.4
-0.6693561440688178
% es.tEY (V/m) @ t=0.4
0
% es.tEZ (V/m) @ t=0.4
-2.1373953008420434
% es.Ex (V/m) @ t=0.4
-0.6693561440688078
% es.Ey (V/m) @ t=0.4
0.04999781510084217
% es.Ez (V/m) @ t=0.4
-2.1373953008420274
% es.tEx (V/m) @ t=0.4
-0.6693561440688178
% es.tEy (V/m) @ t=0.4
0
% es.tEz (V/m) @ t=0.4
-2.1373953008420434
% V (V) @ t=0.4
0.01127802644991647
% es.normE (V/m) @ t=0.42
2.264575357558525
% es.EX (V/m) @ t=0.42
-0.6755690526908789
% es.EY (V/m) @ t=0.42
0.05046185313217638
% es.EZ (V/m) @ t=0.42
-2.1572345082736213
% es.tEX (V/m) @ t=0.42
-0.6755690526908822
% es.tEY (V/m) @ t=0.42
0
% es.tEZ (V/m) @ t=0.42
-2.157234508273639
% es.Ex (V/m) @ t=0.42
-0.6755690526908789
% es.Ey (V/m) @ t=0.42
0.05046185313217638
% es.Ez (V/m) @ t=0.42
-2.1572345082736213
% es.tEx (V/m) @ t=0.42
-0.6755690526908822
% es.tEy (V/m) @ t=0.42
0
% es.tEz (V/m) @ t=0.42
-2.157234508273639
% V (V) @ t=0.42
0.011382710064456774
% es.normE (V/m) @ t=0.44
2.2854017256101975
% es.EX (V/m) @ t=0.44
-0.6817819613129497
% es.EY (V/m) @ t=0.44
0.05092589116351594
% es.EZ (V/m) @ t=0.44
-2.177073715705209
% es.tEX (V/m) @ t=0.44
-0.6817819613129572
% es.tEY (V/m) @ t=0.44
0
% es.tEZ (V/m) @ t=0.44
-2.1770737157052285
% es.Ex (V/m) @ t=0.44
-0.6817819613129497
% es.Ey (V/m) @ t=0.44
0.05092589116351594
% es.Ez (V/m) @ t=0.44
-2.177073715705209
% es.tEx (V/m) @ t=0.44
-0.6817819613129572
% es.tEy (V/m) @ t=0.44
0
% es.tEz (V/m) @ t=0.44
-2.1770737157052285
% V (V) @ t=0.44
0.011487393678997078
% es.normE (V/m) @ t=0.46
2.306228093661898
% es.EX (V/m) @ t=0.46
-0.6879948699350198
% es.EY (V/m) @ t=0.46
0.05138992919485526
% es.EZ (V/m) @ t=0.46
-2.196912923136824
% es.tEX (V/m) @ t=0.46
-0.6879948699350251
% es.tEY (V/m) @ t=0.46
0
% es.tEZ (V/m) @ t=0.46
-2.1969129231368374
% es.Ex (V/m) @ t=0.46
-0.6879948699350198
% es.Ey (V/m) @ t=0.46
0.05138992919485526
% es.Ez (V/m) @ t=0.46
-2.196912923136824
% es.tEx (V/m) @ t=0.46
-0.6879948699350251
% es.tEy (V/m) @ t=0.46
0
% es.tEz (V/m) @ t=0.46
-2.1969129231368374
% V (V) @ t=0.46
0.011592077293537383
% es.normE (V/m) @ t=0.48
2.32705446171357
% es.EX (V/m) @ t=0.48
-0.6942077785570826
% es.EY (V/m) @ t=0.48
0.051853967226187694
% es.EZ (V/m) @ t=0.48
-2.2167521305684117
% es.tEX (V/m) @ t=0.48
-0.6942077785570966
% es.tEY (V/m) @ t=0.48
0
% es.tEZ (V/m) @ t=0.48
-2.216752130568433
% es.Ex (V/m) @ t=0.48
-0.6942077785570826
% es.Ey (V/m) @ t=0.48
0.051853967226187694
% es.Ez (V/m) @ t=0.48
-2.2167521305684117
% es.tEx (V/m) @ t=0.48
-0.6942077785570966
% es.tEy (V/m) @ t=0.48
0
% es.tEz (V/m) @ t=0.48
-2.216752130568433
% V (V) @ t=0.48
0.011696760908077688
% es.normE (V/m) @ t=0.5
2.34788082976526
% es.EX (V/m) @ t=0.5
-0.7004206871791546
% es.EY (V/m) @ t=0.5
0.05231800525752009
% es.EZ (V/m) @ t=0.5
-2.2365913380000126
% es.tEX (V/m) @ t=0.5
-0.700420687179161
% es.tEY (V/m) @ t=0.5
0
% es.tEZ (V/m) @ t=0.5
-2.2365913380000366
% es.Ex (V/m) @ t=0.5
-0.7004206871791546
% es.Ey (V/m) @ t=0.5
0.05231800525752009
% es.Ez (V/m) @ t=0.5
-2.2365913380000126
% es.tEx (V/m) @ t=0.5
-0.700420687179161
% es.tEy (V/m) @ t=0.5
0
% es.tEz (V/m) @ t=0.5
-2.2365913380000366
% V (V) @ t=0.5
0.01180144452261799
% es.normE (V/m) @ t=0.52
2.368707197816921
% es.EX (V/m) @ t=0.52
-0.7066335958012203
% es.EY (V/m) @ t=0.52
0.052782043288868485
% es.EZ (V/m) @ t=0.52
-2.256430545431585
% es.tEX (V/m) @ t=0.52
-0.7066335958012253
% es.tEY (V/m) @ t=0.52
0
% es.tEZ (V/m) @ t=0.52
-2.256430545431603
% es.Ex (V/m) @ t=0.52
-0.7066335958012203
% es.Ey (V/m) @ t=0.52
0.052782043288868485
% es.Ez (V/m) @ t=0.52
-2.256430545431585
% es.tEx (V/m) @ t=0.52
-0.7066335958012253
% es.tEy (V/m) @ t=0.52
0
% es.tEz (V/m) @ t=0.52
-2.256430545431603
% V (V) @ t=0.52
0.011906128137158294
% es.normE (V/m) @ t=0.54
2.391278499963617
% es.EX (V/m) @ t=0.54
-0.7133670704128146
% es.EY (V/m) @ t=0.54
0.053284993093387606
% es.EZ (V/m) @ t=0.54
-2.277931970341438
% es.tEX (V/m) @ t=0.54
-0.7133670704128221
% es.tEY (V/m) @ t=0.54
0
% es.tEZ (V/m) @ t=0.54
-2.2779319703414584
% es.Ex (V/m) @ t=0.54
-0.7133670704128146
% es.Ey (V/m) @ t=0.54
0.053284993093387606
% es.Ez (V/m) @ t=0.54
-2.277931970341438
% es.tEx (V/m) @ t=0.54
-0.7133670704128221
% es.tEy (V/m) @ t=0.54
0
% es.tEz (V/m) @ t=0.54
-2.2779319703414584
% V (V) @ t=0.54
0.012019581392440902
% es.normE (V/m) @ t=0.56
2.4144210155249315
% es.EX (V/m) @ t=0.56
-0.7202709550572376
% es.EY (V/m) @ t=0.56
0.05380068087285972
% es.EZ (V/m) @ t=0.56
-2.299977530943469
% es.tEX (V/m) @ t=0.56
-0.720270955057245
% es.tEY (V/m) @ t=0.56
0
% es.tEZ (V/m) @ t=0.56
-2.299977530943484
% es.Ex (V/m) @ t=0.56
-0.7202709550572376
% es.Ey (V/m) @ t=0.56
0.05380068087285972
% es.Ez (V/m) @ t=0.56
-2.299977530943469
% es.tEx (V/m) @ t=0.56
-0.720270955057245
% es.tEy (V/m) @ t=0.56
0
% es.tEz (V/m) @ t=0.56
-2.299977530943484
% V (V) @ t=0.56
0.012135905436051718
% es.normE (V/m) @ t=0.58
2.4375635310862505
% es.EX (V/m) @ t=0.58
-0.727174839701658
% es.EY (V/m) @ t=0.58
0.054316368652353134
% es.EZ (V/m) @ t=0.58
-2.322023091545507
% es.tEX (V/m) @ t=0.58
-0.7271748397016644
% es.tEY (V/m) @ t=0.58
0
% es.tEZ (V/m) @ t=0.58
-2.322023091545515
% es.Ex (V/m) @ t=0.58
-0.727174839701658
% es.Ey (V/m) @ t=0.58
0.054316368652353134
% es.Ez (V/m) @ t=0.58
-2.322023091545507
% es.tEx (V/m) @ t=0.58
-0.7271748397016644
% es.tEy (V/m) @ t=0.58
0
% es.tEz (V/m) @ t=0.58
-2.322023091545515
% V (V) @ t=0.58
0.012252229479662535
% es.normE (V/m) @ t=0.6
2.460706046647555
% es.EX (V/m) @ t=0.6
-0.734078724346072
% es.EY (V/m) @ t=0.6
0.054832056431846604
% es.EZ (V/m) @ t=0.6
-2.3440686521475316
% es.tEX (V/m) @ t=0.6
-0.7340787243460802
% es.tEY (V/m) @ t=0.6
0
% es.tEZ (V/m) @ t=0.6
-2.3440686521475405
% es.Ex (V/m) @ t=0.6
-0.734078724346072
% es.Ey (V/m) @ t=0.6
0.054832056431846604
% es.Ez (V/m) @ t=0.6
-2.3440686521475316
% es.tEx (V/m) @ t=0.6
-0.7340787243460802
% es.tEy (V/m) @ t=0.6
0
% es.tEz (V/m) @ t=0.6
-2.3440686521475405
% V (V) @ t=0.6
0.012368553523273354
% es.normE (V/m) @ t=0.62
2.4838485622088395
% es.EX (V/m) @ t=0.62
-0.74098260899048
% es.EY (V/m) @ t=0.62
0.05534774421132761
% es.EZ (V/m) @ t=0.62
-2.366114212749534
% es.tEX (V/m) @ t=0.62
-0.7409826089904854
% es.tEY (V/m) @ t=0.62
0
% es.tEZ (V/m) @ t=0.62
-2.3661142127495634
% es.Ex (V/m) @ t=0.62
-0.74098260899048
% es.Ey (V/m) @ t=0.62
0.05534774421132761
% es.Ez (V/m) @ t=0.62
-2.366114212749534
% es.tEx (V/m) @ t=0.62
-0.7409826089904854
% es.tEy (V/m) @ t=0.62
0
% es.tEz (V/m) @ t=0.62
-2.3661142127495634
% V (V) @ t=0.62
0.012484877566884173
% es.normE (V/m) @ t=0.64
2.506991077770161
% es.EX (V/m) @ t=0.64
-0.7478864936349057
% es.EY (V/m) @ t=0.64
0.05586343199083148
% es.EZ (V/m) @ t=0.64
-2.388159773351572
% es.tEX (V/m) @ t=0.64
-0.7478864936349154
% es.tEY (V/m) @ t=0.64
0
% es.tEZ (V/m) @ t=0.64
-2.388159773351596
% es.Ex (V/m) @ t=0.64
-0.7478864936349057
% es.Ey (V/m) @ t=0.64
0.05586343199083148
% es.Ez (V/m) @ t=0.64
-2.388159773351572
% es.tEx (V/m) @ t=0.64
-0.7478864936349154
% es.tEy (V/m) @ t=0.64
0
% es.tEz (V/m) @ t=0.64
-2.388159773351596
% V (V) @ t=0.64
0.01260120161049499
% es.normE (V/m) @ t=0.66
2.530133593331466
% es.EX (V/m) @ t=0.66
-0.7547903782793197
% es.EY (V/m) @ t=0.66
0.05637911977029676
% es.EZ (V/m) @ t=0.66
-2.410205333953596
% es.tEX (V/m) @ t=0.66
-0.7547903782793206
% es.tEY (V/m) @ t=0.66
0
% es.tEZ (V/m) @ t=0.66
-2.4102053339536127
% es.Ex (V/m) @ t=0.66
-0.7547903782793197
% es.Ey (V/m) @ t=0.66
0.05637911977029676
% es.Ez (V/m) @ t=0.66
-2.410205333953596
% es.tEx (V/m) @ t=0.66
-0.7547903782793206
% es.tEy (V/m) @ t=0.66
0
% es.tEz (V/m) @ t=0.66
-2.4102053339536127
% V (V) @ t=0.66
0.012717525654105806
% es.normE (V/m) @ t=0.68
2.5532761088927742
% es.EX (V/m) @ t=0.68
-0.7616942629237436
% es.EY (V/m) @ t=0.68
0.05689480754978797
% es.EZ (V/m) @ t=0.68
-2.4322508945556196
% es.tEX (V/m) @ t=0.68
-0.7616942629237471
% es.tEY (V/m) @ t=0.68
0
% es.tEZ (V/m) @ t=0.68
-2.4322508945556525
% es.Ex (V/m) @ t=0.68
-0.7616942629237436
% es.Ey (V/m) @ t=0.68
0.05689480754978797
% es.Ez (V/m) @ t=0.68
-2.4322508945556196
% es.tEx (V/m) @ t=0.68
-0.7616942629237471
% es.tEy (V/m) @ t=0.68
0
% es.tEz (V/m) @ t=0.68
-2.4322508945556525
% V (V) @ t=0.68
0.012833849697716627
% es.normE (V/m) @ t=0.7
2.5764186244540657
% es.EX (V/m) @ t=0.7
-0.7685981475681605
% es.EY (V/m) @ t=0.7
0.05741049532927453
% es.EZ (V/m) @ t=0.7
-2.454296455157629
% es.tEX (V/m) @ t=0.7
-0.7685981475681629
% es.tEY (V/m) @ t=0.7
0
% es.tEZ (V/m) @ t=0.7
-2.454296455157662
% es.Ex (V/m) @ t=0.7
-0.7685981475681605
% es.Ey (V/m) @ t=0.7
0.05741049532927453
% es.Ez (V/m) @ t=0.7
-2.454296455157629
% es.tEx (V/m) @ t=0.7
-0.7685981475681629
% es.tEy (V/m) @ t=0.7
0
% es.tEz (V/m) @ t=0.7
-2.454296455157662
% V (V) @ t=0.7
0.012950173741327446
% es.normE (V/m) @ t=0.72
2.599561140015381
% es.EX (V/m) @ t=0.72
-0.7755020322125832
% es.EY (V/m) @ t=0.72
0.0579261831087749
% es.EZ (V/m) @ t=0.72
-2.476342015759662
% es.tEX (V/m) @ t=0.72
-0.7755020322125858
% es.tEY (V/m) @ t=0.72
0
% es.tEZ (V/m) @ t=0.72
-2.4763420157596876
% es.Ex (V/m) @ t=0.72
-0.7755020322125832
% es.Ey (V/m) @ t=0.72
0.0579261831087749
% es.Ez (V/m) @ t=0.72
-2.476342015759662
% es.tEx (V/m) @ t=0.72
-0.7755020322125858
% es.tEy (V/m) @ t=0.72
0
% es.tEz (V/m) @ t=0.72
-2.4763420157596876
% V (V) @ t=0.72
0.013066497784938264
% es.normE (V/m) @ t=0.74
2.6227036555766996
% es.EX (V/m) @ t=0.74
-0.7824059168569956
% es.EY (V/m) @ t=0.74
0.058441870888254116
% es.EZ (V/m) @ t=0.74
-2.4983875763617
% es.tEX (V/m) @ t=0.74
-0.7824059168570017
% es.tEY (V/m) @ t=0.74
0
% es.tEZ (V/m) @ t=0.74
-2.498387576361724
% es.Ex (V/m) @ t=0.74
-0.7824059168569956
% es.Ey (V/m) @ t=0.74
0.058441870888254116
% es.Ez (V/m) @ t=0.74
-2.4983875763617
% es.tEx (V/m) @ t=0.74
-0.7824059168570017
% es.tEy (V/m) @ t=0.74
0
% es.tEz (V/m) @ t=0.74
-2.498387576361724
% V (V) @ t=0.74
0.01318282182854908
% es.normE (V/m) @ t=0.76
2.6458461711380057
% es.EX (V/m) @ t=0.76
-0.7893098015014149
% es.EY (V/m) @ t=0.76
0.05895755866773694
% es.EZ (V/m) @ t=0.76
-2.5204331369637236
% es.tEX (V/m) @ t=0.76
-0.7893098015014175
% es.tEY (V/m) @ t=0.76
0
% es.tEZ (V/m) @ t=0.76
-2.520433136963735
% es.Ex (V/m) @ t=0.76
-0.7893098015014149
% es.Ey (V/m) @ t=0.76
0.05895755866773694
% es.Ez (V/m) @ t=0.76
-2.5204331369637236
% es.tEx (V/m) @ t=0.76
-0.7893098015014175
% es.tEy (V/m) @ t=0.76
0
% es.tEz (V/m) @ t=0.76
-2.520433136963735
% V (V) @ t=0.76
0.013299145872159896
% es.normE (V/m) @ t=0.78
2.6689886866993104
% es.EX (V/m) @ t=0.78
-0.7962136861458291
% es.EY (V/m) @ t=0.78
0.059473246447228595
% es.EZ (V/m) @ t=0.78
-2.5424786975657474
% es.tEX (V/m) @ t=0.78
-0.7962136861458333
% es.tEY (V/m) @ t=0.78
0
% es.tEZ (V/m) @ t=0.78
-2.542478697565773
% es.Ex (V/m) @ t=0.78
-0.7962136861458291
% es.Ey (V/m) @ t=0.78
0.059473246447228595
% es.Ez (V/m) @ t=0.78
-2.5424786975657474
% es.tEx (V/m) @ t=0.78
-0.7962136861458333
% es.tEy (V/m) @ t=0.78
0
% es.tEz (V/m) @ t=0.78
-2.542478697565773
% V (V) @ t=0.78
0.013415469915770717
% es.normE (V/m) @ t=0.8
2.693792776209327
% es.EX (V/m) @ t=0.8
-0.8036132547126883
% es.EY (V/m) @ t=0.8
0.06002596373919862
% es.EZ (V/m) @ t=0.8
-2.566107072505429
% es.tEX (V/m) @ t=0.8
-0.8036132547127011
% es.tEY (V/m) @ t=0.8
0
% es.tEZ (V/m) @ t=0.8
-2.566107072505453
% es.Ex (V/m) @ t=0.8
-0.8036132547126883
% es.Ey (V/m) @ t=0.8
0.06002596373919862
% es.Ez (V/m) @ t=0.8
-2.566107072505429
% es.tEx (V/m) @ t=0.8
-0.8036132547127011
% es.tEy (V/m) @ t=0.8
0
% es.tEz (V/m) @ t=0.8
-2.566107072505453
% V (V) @ t=0.8
0.013540145558714424
% es.normE (V/m) @ t=0.82
2.7195524760488436
% es.EX (V/m) @ t=0.82
-0.8112979027831202
% es.EY (V/m) @ t=0.82
0.06059997757627883
% es.EZ (V/m) @ t=0.82
-2.590645761266484
% es.tEX (V/m) @ t=0.82
-0.8112979027831244
% es.tEY (V/m) @ t=0.82
0
% es.tEZ (V/m) @ t=0.82
-2.590645761266501
% es.Ex (V/m) @ t=0.82
-0.8112979027831202
% es.Ey (V/m) @ t=0.82
0.06059997757627883
% es.Ez (V/m) @ t=0.82
-2.590645761266484
% es.tEx (V/m) @ t=0.82
-0.8112979027831244
% es.tEy (V/m) @ t=0.82
0
% es.tEz (V/m) @ t=0.82
-2.590645761266501
% V (V) @ t=0.82
0.013669624403222965
% es.normE (V/m) @ t=0.84
2.7453121758883814
% es.EX (V/m) @ t=0.84
-0.8189825508535553
% es.EY (V/m) @ t=0.84
0.06117399141340303
% es.EZ (V/m) @ t=0.84
-2.615184450027562
% es.tEX (V/m) @ t=0.84
-0.818982550853562
% es.tEY (V/m) @ t=0.84
0
% es.tEZ (V/m) @ t=0.84
-2.615184450027577
% es.Ex (V/m) @ t=0.84
-0.8189825508535553
% es.Ey (V/m) @ t=0.84
0.06117399141340303
% es.Ez (V/m) @ t=0.84
-2.615184450027562
% es.tEx (V/m) @ t=0.84
-0.818982550853562
% es.tEy (V/m) @ t=0.84
0
% es.tEz (V/m) @ t=0.84
-2.615184450027577
% V (V) @ t=0.84
0.013799103247731504
% es.normE (V/m) @ t=0.86
2.7710718757278983
% es.EX (V/m) @ t=0.86
-0.8266671989239871
% es.EY (V/m) @ t=0.86
0.0617480052505328
% es.EZ (V/m) @ t=0.86
-2.639723138788618
% es.tEX (V/m) @ t=0.86
-0.8266671989239853
% es.tEY (V/m) @ t=0.86
0
% es.tEZ (V/m) @ t=0.86
-2.6397231387886126
% es.Ex (V/m) @ t=0.86
-0.8266671989239871
% es.Ey (V/m) @ t=0.86
0.0617480052505328
% es.Ez (V/m) @ t=0.86
-2.639723138788618
% es.tEx (V/m) @ t=0.86
-0.8266671989239853
% es.tEy (V/m) @ t=0.86
0
% es.tEz (V/m) @ t=0.86
-2.6397231387886126
% V (V) @ t=0.86
0.013928582092240044
% es.normE (V/m) @ t=0.88
2.7968315755674373
% es.EX (V/m) @ t=0.88
-0.8343518469944294
% es.EY (V/m) @ t=0.88
0.062322019087635724
% es.EZ (V/m) @ t=0.88
-2.664261827549695
% es.tEX (V/m) @ t=0.88
-0.8343518469944371
% es.tEY (V/m) @ t=0.88
0
% es.tEZ (V/m) @ t=0.88
-2.6642618275497174
% es.Ex (V/m) @ t=0.88
-0.8343518469944294
% es.Ey (V/m) @ t=0.88
0.062322019087635724
% es.Ez (V/m) @ t=0.88
-2.664261827549695
% es.tEx (V/m) @ t=0.88
-0.8343518469944371
% es.tEy (V/m) @ t=0.88
0
% es.tEz (V/m) @ t=0.88
-2.6642618275497174
% V (V) @ t=0.88
0.01405806093674858
% es.normE (V/m) @ t=0.9
2.82259127540694
% es.EX (V/m) @ t=0.9
-0.8420364950648596
% es.EY (V/m) @ t=0.9
0.06289603292475276
% es.EZ (V/m) @ t=0.9
-2.688800516310736
% es.tEX (V/m) @ t=0.9
-0.8420364950648747
% es.tEY (V/m) @ t=0.9
0
% es.tEZ (V/m) @ t=0.9
-2.6888005163107653
% es.Ex (V/m) @ t=0.9
-0.8420364950648596
% es.Ey (V/m) @ t=0.9
0.06289603292475276
% es.Ez (V/m) @ t=0.9
-2.688800516310736
% es.tEx (V/m) @ t=0.9
-0.8420364950648747
% es.tEy (V/m) @ t=0.9
0
% es.tEz (V/m) @ t=0.9
-2.6888005163107653
% V (V) @ t=0.9
0.014187539781257122
% es.normE (V/m) @ t=0.92
2.8483509752464697
% es.EX (V/m) @ t=0.92
-0.8497211431352911
% es.EY (V/m) @ t=0.92
0.06347004676186853
% es.EZ (V/m) @ t=0.92
-2.713339205071806
% es.tEX (V/m) @ t=0.92
-0.8497211431353051
% es.tEY (V/m) @ t=0.92
0
% es.tEZ (V/m) @ t=0.92
-2.713339205071815
% es.Ex (V/m) @ t=0.92
-0.8497211431352911
% es.Ey (V/m) @ t=0.92
0.06347004676186853
% es.Ez (V/m) @ t=0.92
-2.713339205071806
% es.tEx (V/m) @ t=0.92
-0.8497211431353051
% es.tEy (V/m) @ t=0.92
0
% es.tEz (V/m) @ t=0.92
-2.713339205071815
% V (V) @ t=0.92
0.01431701862576566
% es.normE (V/m) @ t=0.94
2.874110675085989
% es.EX (V/m) @ t=0.94
-0.8574057912057302
% es.EY (V/m) @ t=0.94
0.06404406059898562
% es.EZ (V/m) @ t=0.94
-2.737877893832862
% es.tEX (V/m) @ t=0.94
-0.8574057912057427
% es.tEY (V/m) @ t=0.94
0
% es.tEZ (V/m) @ t=0.94
-2.7378778938328914
% es.Ex (V/m) @ t=0.94
-0.8574057912057302
% es.Ey (V/m) @ t=0.94
0.06404406059898562
% es.Ez (V/m) @ t=0.94
-2.737877893832862
% es.tEx (V/m) @ t=0.94
-0.8574057912057427
% es.tEy (V/m) @ t=0.94
0
% es.tEz (V/m) @ t=0.94
-2.7378778938328914
% V (V) @ t=0.94
0.014446497470274202
% es.normE (V/m) @ t=0.96
2.8998703749255057
% es.EX (V/m) @ t=0.96
-0.8650904392761636
% es.EY (V/m) @ t=0.96
0.0646180744360974
% es.EZ (V/m) @ t=0.96
-2.762416582593918
% es.tEX (V/m) @ t=0.96
-0.8650904392761731
% es.tEY (V/m) @ t=0.96
0
% es.tEZ (V/m) @ t=0.96
-2.7624165825939375
% es.Ex (V/m) @ t=0.96
-0.8650904392761636
% es.Ey (V/m) @ t=0.96
0.0646180744360974
% es.Ez (V/m) @ t=0.96
-2.762416582593918
% es.tEx (V/m) @ t=0.96
-0.8650904392761731
% es.tEy (V/m) @ t=0.96
0
% es.tEz (V/m) @ t=0.96
-2.7624165825939375
% V (V) @ t=0.96
0.014575976314782739
% es.normE (V/m) @ t=0.98
2.92563007476505
% es.EX (V/m) @ t=0.98
-0.8727750873465989
% es.EY (V/m) @ t=0.98
0.0651920882732074
% es.EZ (V/m) @ t=0.98
-2.7869552713550023
% es.tEX (V/m) @ t=0.98
-0.8727750873466036
% es.tEY (V/m) @ t=0.98
0
% es.tEZ (V/m) @ t=0.98
-2.786955271355014
% es.Ex (V/m) @ t=0.98
-0.8727750873465989
% es.Ey (V/m) @ t=0.98
0.0651920882732074
% es.Ez (V/m) @ t=0.98
-2.7869552713550023
% es.tEx (V/m) @ t=0.98
-0.8727750873466036
% es.tEy (V/m) @ t=0.98
0
% es.tEz (V/m) @ t=0.98
-2.786955271355014
% V (V) @ t=0.98
0.01470545515929128
% es.normE (V/m) @ t=1
2.951389774604565
% es.EX (V/m) @ t=1
-0.8804597354170252
% es.EY (V/m) @ t=1
0.06576610211032673
% es.EZ (V/m) @ t=1
-2.8114939601160582
% es.tEX (V/m) @ t=1
-0.8804597354170411
% es.tEY (V/m) @ t=1
0
% es.tEZ (V/m) @ t=1
-2.8114939601160778
% es.Ex (V/m) @ t=1
-0.8804597354170252
% es.Ey (V/m) @ t=1
0.06576610211032673
% es.Ez (V/m) @ t=1
-2.8114939601160582
% es.tEx (V/m) @ t=1
-0.8804597354170411
% es.tEy (V/m) @ t=1
0
% es.tEz (V/m) @ t=1
-2.8114939601160778
% V (V) @ t=1
0.01483493400379982
% es.normE (V/m) @ t=1.02
2.9771494744440696
% es.EX (V/m) @ t=1.02
-0.8881443834874589
% es.EY (V/m) @ t=1.02
0.06634011594743311
% es.EZ (V/m) @ t=1.02
-2.8360326488771
% es.tEX (V/m) @ t=1.02
-0.8881443834874645
% es.tEY (V/m) @ t=1.02
0
% es.tEZ (V/m) @ t=1.02
-2.836032648877154
% es.Ex (V/m) @ t=1.02
-0.8881443834874589
% es.Ey (V/m) @ t=1.02
0.06634011594743311
% es.Ez (V/m) @ t=1.02
-2.8360326488771
% es.tEx (V/m) @ t=1.02
-0.8881443834874645
% es.tEy (V/m) @ t=1.02
0
% es.tEz (V/m) @ t=1.02
-2.836032648877154
% V (V) @ t=1.02
0.014964412848308361
% es.normE (V/m) @ t=1.04
3.0029091742836145