% Model:              1 neuron.mph
% Version:            COMSOL 6.0.0.405
% Date:               Mar 16 2023, 17:45
% Dimension:          0
% Nodes:              14017
% Expressions:        14017
% Description:        Electric field norm, Electric field, X component, Electric field, Y component, Electric field, Z component, Tangential electric field, X component, Tangential electric field, Y component, Tangential electric field, Z component, Electric field, x component, Electric field, y component, Electric field, z component, Tangential electric field, x component, Tangential electric field, y component, Tangential electric field, z component, Electric potential
% Length unit:        mm
% x
1.33
% y
12.2
% z
1.33
% es.normE (V/m) @ t=0
11.306881470674444
% es.EX (V/m) @ t=0
8.76152292533365
% es.EY (V/m) @ t=0
-1.3425245435080804
% es.EZ (V/m) @ t=0
6.999506608002315
% es.tEX (V/m) @ t=0
8.761522925333692
% es.tEY (V/m) @ t=0
0
% es.tEZ (V/m) @ t=0
6.999506608002309
% es.Ex (V/m) @ t=0
8.76152292533365
% es.Ey (V/m) @ t=0
-1.3425245435080804
% es.Ez (V/m) @ t=0
6.999506608002315
% es.tEx (V/m) @ t=0
8.761522925333692
% es.tEy (V/m) @ t=0
0
% es.tEz (V/m) @ t=0
6.999506608002309
% V (V) @ t=0
0.00933759288940001
% es.normE (V/m) @ t=0.02
9.765966593775605
% es.EX (V/m) @ t=0.02
7.567492423834236
% es.EY (V/m) @ t=0.02
-1.1595636875885198
% es.EZ (V/m) @ t=0.02
6.045605806369695
% es.tEX (V/m) @ t=0.02
7.5674924238342625
% es.tEY (V/m) @ t=0.02
0
% es.tEZ (V/m) @ t=0.02
6.045605806369688
% es.Ex (V/m) @ t=0.02
7.567492423834236
% es.Ey (V/m) @ t=0.02
-1.1595636875885198
% es.Ez (V/m) @ t=0.02
6.045605806369695
% es.tEx (V/m) @ t=0.02
7.5674924238342625
% es.tEy (V/m) @ t=0.02
0
% es.tEz (V/m) @ t=0.02
6.045605806369688
% V (V) @ t=0.02
0.00806505472378982
% es.normE (V/m) @ t=0.04
9.855799755963425
% es.EX (V/m) @ t=0.04
7.637102683776599
% es.EY (V/m) @ t=0.04
-1.1702299812157193
% es.EZ (V/m) @ t=0.04
6.101216932227372
% es.tEX (V/m) @ t=0.04
7.637102683776624
% es.tEY (V/m) @ t=0.04
0
% es.tEZ (V/m) @ t=0.04
6.101216932227374
% es.Ex (V/m) @ t=0.04
7.637102683776599
% es.Ey (V/m) @ t=0.04
-1.1702299812157193
% es.Ez (V/m) @ t=0.04
6.101216932227372
% es.tEx (V/m) @ t=0.04
7.637102683776624
% es.tEy (V/m) @ t=0.04
0
% es.tEz (V/m) @ t=0.04
6.101216932227374
% V (V) @ t=0.04
0.008139241666090273
% es.normE (V/m) @ t=0.06
9.946374380295696
% es.EX (V/m) @ t=0.06
7.70728756545069
% es.EY (V/m) @ t=0.06
-1.18098446245771
% es.EZ (V/m) @ t=0.06
6.157286932726358
% es.tEX (V/m) @ t=0.06
7.707287565450724
% es.tEY (V/m) @ t=0.06
0
% es.tEZ (V/m) @ t=0.06
6.157286932726343
% es.Ex (V/m) @ t=0.06
7.70728756545069
% es.Ey (V/m) @ t=0.06
-1.18098446245771
% es.Ez (V/m) @ t=0.06
6.157286932726358
% es.tEx (V/m) @ t=0.06
7.707287565450724
% es.tEy (V/m) @ t=0.06
0
% es.tEz (V/m) @ t=0.06
6.157286932726343
% V (V) @ t=0.06
0.008214041472083886
% es.normE (V/m) @ t=0.08
10.03849149432535
% es.EX (V/m) @ t=0.08
7.778667680068565
% es.EY (V/m) @ t=0.08
-1.191922055526339
% es.EZ (V/m) @ t=0.08
6.214311839204348
% es.tEX (V/m) @ t=0.08
7.778667680068592
% es.tEY (V/m) @ t=0.08
0
% es.tEZ (V/m) @ t=0.08
6.21431183920436
% es.Ex (V/m) @ t=0.08
7.778667680068565
% es.Ey (V/m) @ t=0.08
-1.191922055526339
% es.Ez (V/m) @ t=0.08
6.214311839204348
% es.tEx (V/m) @ t=0.08
7.778667680068592
% es.tEy (V/m) @ t=0.08
0
% es.tEz (V/m) @ t=0.08
6.21431183920436
% V (V) @ t=0.08
0.008290114986181103
% es.normE (V/m) @ t=0.1
10.131348605455996
% es.EX (V/m) @ t=0.1
7.8506211981360146
% es.EY (V/m) @ t=0.1
-1.2029474950299175
% es.EZ (V/m) @ t=0.1
6.271794854191837
% es.tEX (V/m) @ t=0.1
7.850621198136032
% es.tEY (V/m) @ t=0.1
0
% es.tEZ (V/m) @ t=0.1
6.27179485419184
% es.Ex (V/m) @ t=0.1
7.8506211981360146
% es.Ey (V/m) @ t=0.1
-1.2029474950299175
% es.Ez (V/m) @ t=0.1
6.271794854191837
% es.tEx (V/m) @ t=0.1
7.850621198136032
% es.tEy (V/m) @ t=0.1
0
% es.tEz (V/m) @ t=0.1
6.27179485419184
% V (V) @ t=0.1
0.008366799551558442
% es.normE (V/m) @ t=0.12
10.2242057165866
% es.EX (V/m) @ t=0.12
7.922574716203408
% es.EY (V/m) @ t=0.12
-1.213972934533503
% es.EZ (V/m) @ t=0.12
6.329277869179325
% es.tEX (V/m) @ t=0.12
7.922574716203446
% es.tEY (V/m) @ t=0.12
0
% es.tEZ (V/m) @ t=0.12
6.329277869179326
% es.Ex (V/m) @ t=0.12
7.922574716203408
% es.Ey (V/m) @ t=0.12
-1.213972934533503
% es.Ez (V/m) @ t=0.12
6.329277869179325
% es.tEx (V/m) @ t=0.12
7.922574716203446
% es.tEy (V/m) @ t=0.12
0
% es.tEz (V/m) @ t=0.12
6.329277869179326
% V (V) @ t=0.12
0.00844348411693578
% es.normE (V/m) @ t=0.14
10.318805160763436
% es.EX (V/m) @ t=0.14
7.995878321746875
% es.EY (V/m) @ t=0.14
-1.2252052124848003
% es.EZ (V/m) @ t=0.14
6.387839504382487
% es.tEX (V/m) @ t=0.14
7.9958783217468925
% es.tEY (V/m) @ t=0.14
0
% es.tEZ (V/m) @ t=0.14
6.387839504382475
% es.Ex (V/m) @ t=0.14
7.995878321746875
% es.Ey (V/m) @ t=0.14
-1.2252052124848003
% es.Ez (V/m) @ t=0.14
6.387839504382487
% es.tEx (V/m) @ t=0.14
7.9958783217468925
% es.tEy (V/m) @ t=0.14
0
% es.tEz (V/m) @ t=0.14
6.387839504382475
% V (V) @ t=0.14
0.008521607421322557
% es.normE (V/m) @ t=0.16
10.416484706413286
% es.EX (V/m) @ t=0.16
8.07156861589315
% es.EY (V/m) @ t=0.16
-1.236803140051137
% es.EZ (V/m) @ t=0.16
6.448307927568738
% es.tEX (V/m) @ t=0.16
8.071568615893174
% es.tEY (V/m) @ t=0.16
0
% es.tEZ (V/m) @ t=0.16
6.4483079275687265
% es.Ex (V/m) @ t=0.16
8.07156861589315
% es.Ey (V/m) @ t=0.16
-1.236803140051137
% es.Ez (V/m) @ t=0.16
6.448307927568738
% es.tEx (V/m) @ t=0.16
8.071568615893174
% es.tEy (V/m) @ t=0.16
0
% es.tEz (V/m) @ t=0.16
6.4483079275687265
% V (V) @ t=0.16
0.008602274132753086
% es.normE (V/m) @ t=0.18
10.514164252063129
% es.EX (V/m) @ t=0.18
8.14725891003939
% es.EY (V/m) @ t=0.18
-1.2484010676174737
% es.EZ (V/m) @ t=0.18
6.5087763507550145
% es.tEX (V/m) @ t=0.18
8.147258910039415
% es.tEY (V/m) @ t=0.18
0
% es.tEZ (V/m) @ t=0.18
6.508776350755006
% es.Ex (V/m) @ t=0.18
8.14725891003939
% es.Ey (V/m) @ t=0.18
-1.2484010676174737
% es.Ez (V/m) @ t=0.18
6.5087763507550145
% es.tEx (V/m) @ t=0.18
8.147258910039415
% es.tEy (V/m) @ t=0.18
0
% es.tEz (V/m) @ t=0.18
6.508776350755006
% V (V) @ t=0.18
0.00868294084418361
% es.normE (V/m) @ t=0.2
10.611843797712943
% es.EX (V/m) @ t=0.2
8.22294920418561
% es.EY (V/m) @ t=0.2
-1.259998995183853
% es.EZ (V/m) @ t=0.2
6.56924477394127
% es.tEX (V/m) @ t=0.2
8.222949204185639
% es.tEY (V/m) @ t=0.2
0
% es.tEZ (V/m) @ t=0.2
6.569244773941273
% es.Ex (V/m) @ t=0.2
8.22294920418561
% es.Ey (V/m) @ t=0.2
-1.259998995183853
% es.Ez (V/m) @ t=0.2
6.56924477394127
% es.tEx (V/m) @ t=0.2
8.222949204185639
% es.tEy (V/m) @ t=0.2
0
% es.tEz (V/m) @ t=0.2
6.569244773941273
% V (V) @ t=0.2
0.008763607555614138
% es.normE (V/m) @ t=0.22
10.709523343362793
% es.EX (V/m) @ t=0.22
8.298639498331864
% es.EY (V/m) @ t=0.22
-1.2715969227501898
% es.EZ (V/m) @ t=0.22
6.629713197127539
% es.tEX (V/m) @ t=0.22
8.298639498331893
% es.tEY (V/m) @ t=0.22
0
% es.tEZ (V/m) @ t=0.22
6.629713197127547
% es.Ex (V/m) @ t=0.22
8.298639498331864
% es.Ey (V/m) @ t=0.22
-1.2715969227501898
% es.Ez (V/m) @ t=0.22
6.629713197127539
% es.tEx (V/m) @ t=0.22
8.298639498331893
% es.tEy (V/m) @ t=0.22
0
% es.tEz (V/m) @ t=0.22
6.629713197127547
% V (V) @ t=0.22
0.008844274267044663
% es.normE (V/m) @ t=0.24
10.807202889012643
% es.EX (V/m) @ t=0.24
8.374329792478147
% es.EY (V/m) @ t=0.24
-1.283194850316498
% es.EZ (V/m) @ t=0.24
6.69018162031378
% es.tEX (V/m) @ t=0.24
8.37432979247816
% es.tEY (V/m) @ t=0.24
0
% es.tEZ (V/m) @ t=0.24
6.690181620313791
% es.Ex (V/m) @ t=0.24
8.374329792478147
% es.Ey (V/m) @ t=0.24
-1.283194850316498
% es.Ez (V/m) @ t=0.24
6.69018162031378
% es.tEx (V/m) @ t=0.24
8.37432979247816
% es.tEy (V/m) @ t=0.24
0
% es.tEz (V/m) @ t=0.24
6.690181620313791
% V (V) @ t=0.24
0.008924940978475192
% es.normE (V/m) @ t=0.26
10.904882434662486
% es.EX (V/m) @ t=0.26
8.45002008662438
% es.EY (V/m) @ t=0.26
-1.29479277788284
% es.EZ (V/m) @ t=0.26
6.750650043500059
% es.tEX (V/m) @ t=0.26
8.450020086624399
% es.tEY (V/m) @ t=0.26
0
% es.tEZ (V/m) @ t=0.26
6.750650043500057
% es.Ex (V/m) @ t=0.26
8.45002008662438
% es.Ey (V/m) @ t=0.26
-1.29479277788284
% es.Ez (V/m) @ t=0.26
6.750650043500059
% es.tEx (V/m) @ t=0.26
8.450020086624399
% es.tEy (V/m) @ t=0.26
0
% es.tEz (V/m) @ t=0.26
6.750650043500057
% V (V) @ t=0.26
0.009005607689905716
% es.normE (V/m) @ t=0.28
11.01048633356342
% es.EX (V/m) @ t=0.28
8.531851630205239
% es.EY (V/m) @ t=0.28
-1.3073332046528918
% es.EZ (V/m) @ t=0.28
6.816022678510848
% es.tEX (V/m) @ t=0.28
8.531851630205265
% es.tEY (V/m) @ t=0.28
0
% es.tEZ (V/m) @ t=0.28
6.816022678510839
% es.Ex (V/m) @ t=0.28
8.531851630205239
% es.Ey (V/m) @ t=0.28
-1.3073332046528918
% es.Ez (V/m) @ t=0.28
6.816022678510848
% es.tEx (V/m) @ t=0.28
8.531851630205265
% es.tEy (V/m) @ t=0.28
0
% es.tEz (V/m) @ t=0.28
6.816022678510839
% V (V) @ t=0.28
0.009092824372101328
% es.normE (V/m) @ t=0.3
11.118986986144979
% es.EX (V/m) @ t=0.3
8.615928112437292
% es.EY (V/m) @ t=0.3
-1.3202181627620106
% es.EZ (V/m) @ t=0.3
6.883188052083298
% es.tEX (V/m) @ t=0.3
8.615928112437324
% es.tEY (V/m) @ t=0.3
0
% es.tEZ (V/m) @ t=0.3
6.883188052083281
% es.Ex (V/m) @ t=0.3
8.615928112437292
% es.Ey (V/m) @ t=0.3
-1.3202181627620106
% es.Ez (V/m) @ t=0.3
6.883188052083298
% es.tEx (V/m) @ t=0.3
8.615928112437324
% es.tEy (V/m) @ t=0.3
0
% es.tEz (V/m) @ t=0.3
6.883188052083281
% V (V) @ t=0.3
0.00918243540135791
% es.normE (V/m) @ t=0.32
11.22748763872736
% es.EX (V/m) @ t=0.32
8.700004594669359
% es.EY (V/m) @ t=0.32
-1.3331031208710886
% es.EZ (V/m) @ t=0.32
6.950353425655749
% es.tEX (V/m) @ t=0.32
8.700004594669396
% es.tEY (V/m) @ t=0.32
0
% es.tEZ (V/m) @ t=0.32
6.950353425655754
% es.Ex (V/m) @ t=0.32
8.700004594669359
% es.Ey (V/m) @ t=0.32
-1.3331031208710886
% es.Ez (V/m) @ t=0.32
6.950353425655749
% es.tEx (V/m) @ t=0.32
8.700004594669396
% es.tEy (V/m) @ t=0.32
0
% es.tEz (V/m) @ t=0.32
6.950353425655754
% V (V) @ t=0.32
0.009272046430614491
% es.normE (V/m) @ t=0.34
11.335988291310535
% es.EX (V/m) @ t=0.34
8.784081076901414
% es.EY (V/m) @ t=0.34
-1.3459880789802163
% es.EZ (V/m) @ t=0.34
7.017518799228213
% es.tEX (V/m) @ t=0.34
8.784081076901426
% es.tEY (V/m) @ t=0.34
0
% es.tEZ (V/m) @ t=0.34
7.017518799228197
% es.Ex (V/m) @ t=0.34
8.784081076901414
% es.Ey (V/m) @ t=0.34
-1.3459880789802163
% es.Ez (V/m) @ t=0.34
7.017518799228213
% es.tEx (V/m) @ t=0.34
8.784081076901426
% es.tEy (V/m) @ t=0.34
0
% es.tEz (V/m) @ t=0.34
7.017518799228197
% V (V) @ t=0.34
0.009361657459871069
% es.normE (V/m) @ t=0.36
11.444488943894406
% es.EX (V/m) @ t=0.36
8.86815755913341
% es.EY (V/m) @ t=0.36
-1.3588730370893316
% es.EZ (V/m) @ t=0.36
7.084684172800639
% es.tEX (V/m) @ t=0.36
8.868157559133468
% es.tEY (V/m) @ t=0.36
0
% es.tEZ (V/m) @ t=0.36
7.0846841728006265
% es.Ex (V/m) @ t=0.36
8.86815755913341
% es.Ey (V/m) @ t=0.36
-1.3588730370893316
% es.Ez (V/m) @ t=0.36
7.084684172800639
% es.tEx (V/m) @ t=0.36
8.868157559133468
% es.tEy (V/m) @ t=0.36
0
% es.tEz (V/m) @ t=0.36
7.0846841728006265
% V (V) @ t=0.36
0.009451268489127654
% es.normE (V/m) @ t=0.38
11.55298959647909
% es.EX (V/m) @ t=0.38
8.952234041365472
% es.EY (V/m) @ t=0.38
-1.3717579951984558
% es.EZ (V/m) @ t=0.38
7.151849546373089
% es.tEX (V/m) @ t=0.38
8.9522340413655
% es.tEY (V/m) @ t=0.38
0
% es.tEZ (V/m) @ t=0.38
7.151849546373083
% es.Ex (V/m) @ t=0.38
8.952234041365472
% es.Ey (V/m) @ t=0.38
-1.3717579951984558
% es.Ez (V/m) @ t=0.38
7.151849546373089
% es.tEx (V/m) @ t=0.38
8.9522340413655
% es.tEy (V/m) @ t=0.38
0
% es.tEz (V/m) @ t=0.38
7.151849546373083
% V (V) @ t=0.38
0.009540879518384233
% es.normE (V/m) @ t=0.4
11.661490249064522
% es.EX (V/m) @ t=0.4
9.036310523597567
% es.EY (V/m) @ t=0.4
-1.3846429533075266
% es.EZ (V/m) @ t=0.4
7.219014919945536
% es.tEX (V/m) @ t=0.4
9.036310523597585
% es.tEY (V/m) @ t=0.4
0
% es.tEZ (V/m) @ t=0.4
7.219014919945556
% es.Ex (V/m) @ t=0.4
9.036310523597567
% es.Ey (V/m) @ t=0.4
-1.3846429533075266
% es.Ez (V/m) @ t=0.4
7.219014919945536
% es.tEx (V/m) @ t=0.4
9.036310523597585
% es.tEy (V/m) @ t=0.4
0
% es.tEz (V/m) @ t=0.4
7.219014919945556
% V (V) @ t=0.4
0.009630490547640815
% es.normE (V/m) @ t=0.42
11.769990901650583
% es.EX (V/m) @ t=0.42
9.12038700582957
% es.EY (V/m) @ t=0.42
-1.3975279114166472
% es.EZ (V/m) @ t=0.42
7.286180293517976
% es.tEX (V/m) @ t=0.42
9.12038700582963
% es.tEY (V/m) @ t=0.42
0
% es.tEZ (V/m) @ t=0.42
7.286180293517964
% es.Ex (V/m) @ t=0.42
9.12038700582957
% es.Ey (V/m) @ t=0.42
-1.3975279114166472
% es.Ez (V/m) @ t=0.42
7.286180293517976
% es.tEx (V/m) @ t=0.42
9.12038700582963
% es.tEy (V/m) @ t=0.42
0
% es.tEz (V/m) @ t=0.42
7.286180293517964
% V (V) @ t=0.42
0.009720101576897395
% es.normE (V/m) @ t=0.44
11.878491554237378
% es.EX (V/m) @ t=0.44
9.204463488061602
% es.EY (V/m) @ t=0.44
-1.4104128695257803
% es.EZ (V/m) @ t=0.44
7.353345667090449
% es.tEX (V/m) @ t=0.44
9.204463488061629
% es.tEY (V/m) @ t=0.44
0
% es.tEZ (V/m) @ t=0.44
7.353345667090443
% es.Ex (V/m) @ t=0.44
9.204463488061602
% es.Ey (V/m) @ t=0.44
-1.4104128695257803
% es.Ez (V/m) @ t=0.44
7.353345667090449
% es.tEx (V/m) @ t=0.44
9.204463488061629
% es.tEy (V/m) @ t=0.44
0
% es.tEz (V/m) @ t=0.44
7.353345667090443
% V (V) @ t=0.44
0.009809712606153976
% es.normE (V/m) @ t=0.46
11.986992206824816
% es.EX (V/m) @ t=0.46
9.288539970293629
% es.EY (V/m) @ t=0.46
-1.4232978276348884
% es.EZ (V/m) @ t=0.46
7.420511040662895
% es.tEX (V/m) @ t=0.46
9.288539970293673
% es.tEY (V/m) @ t=0.46
0
% es.tEZ (V/m) @ t=0.46
7.420511040662887
% es.Ex (V/m) @ t=0.46
9.288539970293629
% es.Ey (V/m) @ t=0.46
-1.4232978276348884
% es.Ez (V/m) @ t=0.46
7.420511040662895
% es.tEx (V/m) @ t=0.46
9.288539970293673
% es.tEy (V/m) @ t=0.46
0
% es.tEz (V/m) @ t=0.46
7.420511040662887
% V (V) @ t=0.46
0.009899323635410556
% es.normE (V/m) @ t=0.48
12.095492859412907
% es.EX (V/m) @ t=0.48
9.37261645252566
% es.EY (V/m) @ t=0.48
-1.4361827857439717
% es.EZ (V/m) @ t=0.48
7.487676414235346
% es.tEX (V/m) @ t=0.48
9.372616452525703
% es.tEY (V/m) @ t=0.48
0
% es.tEZ (V/m) @ t=0.48
7.487676414235338
% es.Ex (V/m) @ t=0.48
9.37261645252566
% es.Ey (V/m) @ t=0.48
-1.4361827857439717
% es.Ez (V/m) @ t=0.48
7.487676414235346
% es.tEx (V/m) @ t=0.48
9.372616452525703
% es.tEy (V/m) @ t=0.48
0
% es.tEz (V/m) @ t=0.48
7.487676414235338
% V (V) @ t=0.48
0.009988934664667137
% es.normE (V/m) @ t=0.5
12.203993512001677
% es.EX (V/m) @ t=0.5
9.456692934757744
% es.EY (V/m) @ t=0.5
-1.4490677438530781
% es.EZ (V/m) @ t=0.5
7.554841787807804
% es.tEX (V/m) @ t=0.5
9.456692934757761
% es.tEY (V/m) @ t=0.5
0
% es.tEZ (V/m) @ t=0.5
7.55484178780781
% es.Ex (V/m) @ t=0.5
9.456692934757744
% es.Ey (V/m) @ t=0.5
-1.4490677438530781
% es.Ez (V/m) @ t=0.5
7.554841787807804
% es.tEx (V/m) @ t=0.5
9.456692934757761
% es.tEy (V/m) @ t=0.5
0
% es.tEz (V/m) @ t=0.5
7.55484178780781
% V (V) @ t=0.5
0.010078545693923717
% es.normE (V/m) @ t=0.52
12.312494164591044
% es.EX (V/m) @ t=0.52
9.54076941698981
% es.EY (V/m) @ t=0.52
-1.461952701962181
% es.EZ (V/m) @ t=0.52
7.6220071613802505
% es.tEX (V/m) @ t=0.52
9.540769416989818
% es.tEY (V/m) @ t=0.52
0
% es.tEZ (V/m) @ t=0.52
7.622007161380252
% es.Ex (V/m) @ t=0.52
9.54076941698981
% es.Ey (V/m) @ t=0.52
-1.461952701962181
% es.Ez (V/m) @ t=0.52
7.6220071613802505
% es.tEx (V/m) @ t=0.52
9.540769416989818
% es.tEy (V/m) @ t=0.52
0
% es.tEz (V/m) @ t=0.52
7.622007161380252
% V (V) @ t=0.52
0.010168156723180298
% es.normE (V/m) @ t=0.54
12.426787143187553
% es.EX (V/m) @ t=0.54
9.629334060563005
% es.EY (V/m) @ t=0.54
-1.4755249694368828
% es.EZ (V/m) @ t=0.54
7.6927586381879
% es.tEX (V/m) @ t=0.54
9.629334060563057
% es.tEY (V/m) @ t=0.54
0
% es.tEZ (V/m) @ t=0.54
7.692758638187903
% es.Ex (V/m) @ t=0.54
9.629334060563005
% es.Ey (V/m) @ t=0.54
-1.4755249694368828
% es.Ez (V/m) @ t=0.54
7.6927586381879
% es.tEx (V/m) @ t=0.54
9.629334060563057
% es.tEy (V/m) @ t=0.54
0
% es.tEz (V/m) @ t=0.54
7.692758638187903
% V (V) @ t=0.54
0.010262549643713464
% es.normE (V/m) @ t=0.56
12.547499625192625
% es.EX (V/m) @ t=0.56
9.72287283145466
% es.EY (V/m) @ t=0.56
-1.4898589662772448
% es.EZ (V/m) @ t=0.56
7.7674845117948355
% es.tEX (V/m) @ t=0.56
9.722872831454684
% es.tEY (V/m) @ t=0.56
0
% es.tEZ (V/m) @ t=0.56
7.767484511794834
% es.Ex (V/m) @ t=0.56
9.72287283145466
% es.Ey (V/m) @ t=0.56
-1.4898589662772448
% es.Ez (V/m) @ t=0.56
7.7674845117948355
% es.tEx (V/m) @ t=0.56
9.722872831454684
% es.tEy (V/m) @ t=0.56
0
% es.tEz (V/m) @ t=0.56
7.767484511794834
% V (V) @ t=0.56
0.010362242225783868
% es.normE (V/m) @ t=0.58
12.668212107197828
% es.EX (V/m) @ t=0.58
9.816411602346307
% es.EY (V/m) @ t=0.58
-1.5041929631176032
% es.EZ (V/m) @ t=0.58
7.842210385401769
% es.tEX (V/m) @ t=0.58
9.81641160234638
% es.tEY (V/m) @ t=0.58
0
% es.tEZ (V/m) @ t=0.58
7.842210385401766
% es.Ex (V/m) @ t=0.58
9.816411602346307
% es.Ey (V/m) @ t=0.58
-1.5041929631176032
% es.Ez (V/m) @ t=0.58
7.842210385401769
% es.tEx (V/m) @ t=0.58
9.81641160234638
% es.tEy (V/m) @ t=0.58
0
% es.tEz (V/m) @ t=0.58
7.842210385401766
% V (V) @ t=0.58
0.010461934807854272
% es.normE (V/m) @ t=0.6
12.788924589203173
% es.EX (V/m) @ t=0.6
9.909950373237976
% es.EY (V/m) @ t=0.6
-1.5185269599579598
% es.EZ (V/m) @ t=0.6
7.916936259008704
% es.tEX (V/m) @ t=0.6
9.909950373238004
% es.tEY (V/m) @ t=0.6
0
% es.tEZ (V/m) @ t=0.6
7.916936259008697
% es.Ex (V/m) @ t=0.6
9.909950373237976
% es.Ey (V/m) @ t=0.6
-1.5185269599579598
% es.Ez (V/m) @ t=0.6
7.916936259008704
% es.tEx (V/m) @ t=0.6
9.909950373238004
% es.tEy (V/m) @ t=0.6
0
% es.tEz (V/m) @ t=0.6
7.916936259008697
% V (V) @ t=0.6
0.010561627389924675
% es.normE (V/m) @ t=0.62
12.909637071208651
% es.EX (V/m) @ t=0.62
10.003489144129624
% es.EY (V/m) @ t=0.62
-1.532860956798329
% es.EZ (V/m) @ t=0.62
7.991662132615663
% es.tEX (V/m) @ t=0.62
10.00348914412966
% es.tEY (V/m) @ t=0.62
0
% es.tEZ (V/m) @ t=0.62
7.991662132615665
% es.Ex (V/m) @ t=0.62
10.003489144129624
% es.Ey (V/m) @ t=0.62
-1.532860956798329
% es.Ez (V/m) @ t=0.62
7.991662132615663
% es.tEx (V/m) @ t=0.62
10.00348914412966
% es.tEy (V/m) @ t=0.62
0
% es.tEz (V/m) @ t=0.62
7.991662132615665
% V (V) @ t=0.62
0.010661319971995079
% es.normE (V/m) @ t=0.64
13.030349553214277
% es.EX (V/m) @ t=0.64
10.097027915021314
% es.EY (V/m) @ t=0.64
-1.547194953638698
% es.EZ (V/m) @ t=0.64
8.066388006222615
% es.tEX (V/m) @ t=0.64
10.097027915021341
% es.tEY (V/m) @ t=0.64
0
% es.tEZ (V/m) @ t=0.64
8.066388006222603
% es.Ex (V/m) @ t=0.64
10.097027915021314
% es.Ey (V/m) @ t=0.64
-1.547194953638698
% es.Ez (V/m) @ t=0.64
8.066388006222615
% es.tEx (V/m) @ t=0.64
10.097027915021341
% es.tEy (V/m) @ t=0.64
0
% es.tEz (V/m) @ t=0.64
8.066388006222603
% V (V) @ t=0.64
0.010761012554065483
% es.normE (V/m) @ t=0.66
13.151062035219946
% es.EX (V/m) @ t=0.66
10.190566685912918
% es.EY (V/m) @ t=0.66
-1.5615289504790528
% es.EZ (V/m) @ t=0.66
8.14111387982955
% es.tEX (V/m) @ t=0.66
10.190566685912966
% es.tEY (V/m) @ t=0.66
0
% es.tEZ (V/m) @ t=0.66
8.14111387982955
% es.Ex (V/m) @ t=0.66
10.190566685912918
% es.Ey (V/m) @ t=0.66
-1.5615289504790528
% es.Ez (V/m) @ t=0.66
8.14111387982955
% es.tEx (V/m) @ t=0.66
10.190566685912966
% es.tEy (V/m) @ t=0.66
0
% es.tEz (V/m) @ t=0.66
8.14111387982955
% V (V) @ t=0.66
0.010860705136135887
% es.normE (V/m) @ t=0.68
13.271774517225788
% es.EX (V/m) @ t=0.68
10.284105456804593
% es.EY (V/m) @ t=0.68
-1.5758629473194645
% es.EZ (V/m) @ t=0.68
8.215839753436484
% es.tEX (V/m) @ t=0.68
10.284105456804593
% es.tEY (V/m) @ t=0.68
0
% es.tEZ (V/m) @ t=0.68
8.215839753436482
% es.Ex (V/m) @ t=0.68
10.284105456804593
% es.Ey (V/m) @ t=0.68
-1.5758629473194645
% es.Ez (V/m) @ t=0.68
8.215839753436484
% es.tEx (V/m) @ t=0.68
10.284105456804593
% es.tEy (V/m) @ t=0.68
0
% es.tEz (V/m) @ t=0.68
8.215839753436482
% V (V) @ t=0.68
0.010960397718206293
% es.normE (V/m) @ t=0.7
13.392486999231773
% es.EX (V/m) @ t=0.7
10.377644227696297
% es.EY (V/m) @ t=0.7
-1.5901969441598336
% es.EZ (V/m) @ t=0.7
8.290565627043435
% es.tEX (V/m) @ t=0.7
10.377644227696331
% es.tEY (V/m) @ t=0.7
0
% es.tEZ (V/m) @ t=0.7
8.290565627043435
% es.Ex (V/m) @ t=0.7
10.377644227696297
% es.Ey (V/m) @ t=0.7
-1.5901969441598336
% es.Ez (V/m) @ t=0.7
8.290565627043435
% es.tEx (V/m) @ t=0.7
10.377644227696331
% es.tEy (V/m) @ t=0.7
0
% es.tEz (V/m) @ t=0.7
8.290565627043435
% V (V) @ t=0.7
0.011060090300276696
% es.normE (V/m) @ t=0.72
13.513199481237796
% es.EX (V/m) @ t=0.72
10.47118299858791
% es.EY (V/m) @ t=0.72
-1.6045309410002009
% es.EZ (V/m) @ t=0.72
8.365291500650384
% es.tEX (V/m) @ t=0.72
10.471182998587985
% es.tEY (V/m) @ t=0.72
0
% es.tEZ (V/m) @ t=0.72
8.365291500650393
% es.Ex (V/m) @ t=0.72
10.47118299858791
% es.Ey (V/m) @ t=0.72
-1.6045309410002009
% es.Ez (V/m) @ t=0.72
8.365291500650384
% es.tEx (V/m) @ t=0.72
10.471182998587985
% es.tEy (V/m) @ t=0.72
0
% es.tEz (V/m) @ t=0.72
8.365291500650393
% V (V) @ t=0.72
0.011159782882347098
% es.normE (V/m) @ t=0.74
13.633911963243968
% es.EX (V/m) @ t=0.74
10.564721769479572
% es.EY (V/m) @ t=0.74
-1.6188649378405628
% es.EZ (V/m) @ t=0.74
8.44001737425734
% es.tEX (V/m) @ t=0.74
10.564721769479583
% es.tEY (V/m) @ t=0.74
0
% es.tEZ (V/m) @ t=0.74
8.440017374257327
% es.Ex (V/m) @ t=0.74
10.564721769479572
% es.Ey (V/m) @ t=0.74
-1.6188649378405628
% es.Ez (V/m) @ t=0.74
8.44001737425734
% es.tEx (V/m) @ t=0.74
10.564721769479583
% es.tEy (V/m) @ t=0.74
0
% es.tEz (V/m) @ t=0.74
8.440017374257327
% V (V) @ t=0.74
0.0112594754644175
% es.normE (V/m) @ t=0.76
13.754624445250254
% es.EX (V/m) @ t=0.76
10.658260540371268
% es.EY (V/m) @ t=0.76
-1.6331989346808946
% es.EZ (V/m) @ t=0.76
8.514743247864278
% es.tEX (V/m) @ t=0.76
10.658260540371291
% es.tEY (V/m) @ t=0.76
0
% es.tEZ (V/m) @ t=0.76
8.514743247864281
% es.Ex (V/m) @ t=0.76
10.658260540371268
% es.Ey (V/m) @ t=0.76
-1.6331989346808946
% es.Ez (V/m) @ t=0.76
8.514743247864278
% es.tEx (V/m) @ t=0.76
10.658260540371291
% es.tEy (V/m) @ t=0.76
0
% es.tEz (V/m) @ t=0.76
8.514743247864281
% V (V) @ t=0.76
0.011359168046487908
% es.normE (V/m) @ t=0.78
13.875336927256566
% es.EX (V/m) @ t=0.78
10.75179931126286
% es.EY (V/m) @ t=0.78
-1.6475329315213099
% es.EZ (V/m) @ t=0.78
8.58946912147121
% es.tEX (V/m) @ t=0.78
10.751799311262861
% es.tEY (V/m) @ t=0.78
0
% es.tEZ (V/m) @ t=0.78
8.589469121471197
% es.Ex (V/m) @ t=0.78
10.75179931126286
% es.Ey (V/m) @ t=0.78
-1.6475329315213099
% es.Ez (V/m) @ t=0.78
8.58946912147121
% es.tEx (V/m) @ t=0.78
10.751799311262861
% es.tEy (V/m) @ t=0.78
0
% es.tEz (V/m) @ t=0.78
8.589469121471197
% V (V) @ t=0.78
0.01145886062855831
% es.normE (V/m) @ t=0.8
13.999042897270625
% es.EX (V/m) @ t=0.8
10.84765821818047
% es.EY (V/m) @ t=0.8
-1.6622234279229726
% es.EZ (V/m) @ t=0.8
8.666047210829671
% es.tEX (V/m) @ t=0.8
10.847658218180515
% es.tEY (V/m) @ t=0.8
0
% es.tEZ (V/m) @ t=0.8
8.666047210829664
% es.Ex (V/m) @ t=0.8
10.84765821818047
% es.Ey (V/m) @ t=0.8
-1.6622234279229726
% es.Ez (V/m) @ t=0.8
8.666047210829671
% es.tEx (V/m) @ t=0.8
10.847658218180515
% es.tEy (V/m) @ t=0.8
0
% es.tEz (V/m) @ t=0.8
8.666047210829664
% V (V) @ t=0.8
0.011561029188525931
% es.normE (V/m) @ t=0.82
14.133592558421128
% es.EX (V/m) @ t=0.82
10.951921647978807
% es.EY (V/m) @ t=0.82
-1.6782053178837142
% es.EZ (V/m) @ t=0.82
8.749334816134473
% es.tEX (V/m) @ t=0.82
10.951921647978821
% es.tEY (V/m) @ t=0.82
0
% es.tEZ (V/m) @ t=0.82
8.749334816134478
% es.Ex (V/m) @ t=0.82
10.951921647978807
% es.Ey (V/m) @ t=0.82
-1.6782053178837142
% es.Ez (V/m) @ t=0.82
8.749334816134473
% es.tEx (V/m) @ t=0.82
10.951921647978821
% es.tEy (V/m) @ t=0.82
0
% es.tEz (V/m) @ t=0.82
8.749334816134478
% V (V) @ t=0.82
0.011672166797142867
% es.normE (V/m) @ t=0.84
14.268142219576326
% es.EX (V/m) @ t=0.84
11.056185077777187
% es.EY (V/m) @ t=0.84
-1.694187207844486
% es.EZ (V/m) @ t=0.84
8.832622421439254
% es.tEX (V/m) @ t=0.84
11.056185077777215
% es.tEY (V/m) @ t=0.84
0
% es.tEZ (V/m) @ t=0.84
8.832622421439243
% es.Ex (V/m) @ t=0.84
11.056185077777187
% es.Ey (V/m) @ t=0.84
-1.694187207844486
% es.Ez (V/m) @ t=0.84
8.832622421439254
% es.tEx (V/m) @ t=0.84
11.056185077777215
% es.tEy (V/m) @ t=0.84
0
% es.tEz (V/m) @ t=0.84
8.832622421439243
% V (V) @ t=0.84
0.011783304405759804
% es.normE (V/m) @ t=0.86
14.402691880736047
% es.EX (V/m) @ t=0.86
11.160448507575529
% es.EY (V/m) @ t=0.86
-1.7101690978052133
% es.EZ (V/m) @ t=0.86
8.915910026744042
% es.tEX (V/m) @ t=0.86
11.160448507575548
% es.tEY (V/m) @ t=0.86
0
% es.tEZ (V/m) @ t=0.86
8.915910026744037
% es.Ex (V/m) @ t=0.86
11.160448507575529
% es.Ey (V/m) @ t=0.86
-1.7101690978052133
% es.Ez (V/m) @ t=0.86
8.915910026744042
% es.tEx (V/m) @ t=0.86
11.160448507575548
% es.tEy (V/m) @ t=0.86
0
% es.tEz (V/m) @ t=0.86
8.915910026744037
% V (V) @ t=0.86
0.011894442014376738
% es.normE (V/m) @ t=0.88
14.537241541900197
% es.EX (V/m) @ t=0.88
11.264711937373857
% es.EY (V/m) @ t=0.88
-1.726150987766001
% es.EZ (V/m) @ t=0.88
8.999197632048848
% es.tEX (V/m) @ t=0.88
11.264711937373914
% es.tEY (V/m) @ t=0.88
0
% es.tEZ (V/m) @ t=0.88
8.99919763204883
% es.Ex (V/m) @ t=0.88
11.264711937373857
% es.Ey (V/m) @ t=0.88
-1.726150987766001
% es.Ez (V/m) @ t=0.88
8.999197632048848
% es.tEx (V/m) @ t=0.88
11.264711937373914
% es.tEy (V/m) @ t=0.88
0
% es.tEz (V/m) @ t=0.88
8.99919763204883
% V (V) @ t=0.88
0.012005579622993676
% es.normE (V/m) @ t=0.9
14.671791203068668
% es.EX (V/m) @ t=0.9
11.36897536717223
% es.EY (V/m) @ t=0.9
-1.742132877726748
% es.EZ (V/m) @ t=0.9
9.082485237353639
% es.tEX (V/m) @ t=0.9
11.368975367172247
% es.tEY (V/m) @ t=0.9
0
% es.tEZ (V/m) @ t=0.9
9.082485237353623
% es.Ex (V/m) @ t=0.9
11.36897536717223
% es.Ey (V/m) @ t=0.9
-1.742132877726748
% es.Ez (V/m) @ t=0.9
9.082485237353639
% es.tEx (V/m) @ t=0.9
11.368975367172247
% es.tEy (V/m) @ t=0.9
0
% es.tEz (V/m) @ t=0.9
9.082485237353623
% V (V) @ t=0.9
0.012116717231610612
% es.normE (V/m) @ t=0.92
14.806340864241314
% es.EX (V/m) @ t=0.92
11.4732387969706
% es.EY (V/m) @ t=0.92
-1.7581147676874647
% es.EZ (V/m) @ t=0.92
9.165772842658424
% es.tEX (V/m) @ t=0.92
11.473238796970639
% es.tEY (V/m) @ t=0.92
0
% es.tEZ (V/m) @ t=0.92
9.165772842658402
% es.Ex (V/m) @ t=0.92
11.4732387969706
% es.Ey (V/m) @ t=0.92
-1.7581147676874647
% es.Ez (V/m) @ t=0.92
9.165772842658424
% es.tEx (V/m) @ t=0.92
11.473238796970639
% es.tEy (V/m) @ t=0.92
0
% es.tEz (V/m) @ t=0.92
9.165772842658402
% V (V) @ t=0.92
0.012227854840227549
% es.normE (V/m) @ t=0.94
14.940890525418004
% es.EX (V/m) @ t=0.94
11.577502226768923
% es.EY (V/m) @ t=0.94
-1.7740966576482418
% es.EZ (V/m) @ t=0.94
9.249060447963215
% es.tEX (V/m) @ t=0.94
11.577502226768946
% es.tEY (V/m) @ t=0.94
0
% es.tEZ (V/m) @ t=0.94
9.249060447963224
% es.Ex (V/m) @ t=0.94
11.577502226768923
% es.Ey (V/m) @ t=0.94
-1.7740966576482418
% es.Ez (V/m) @ t=0.94
9.249060447963215
% es.tEx (V/m) @ t=0.94
11.577502226768946
% es.tEy (V/m) @ t=0.94
0
% es.tEz (V/m) @ t=0.94
9.249060447963224
% V (V) @ t=0.94
0.012338992448844486
% es.normE (V/m) @ t=0.96
15.075440186598716
% es.EX (V/m) @ t=0.96
11.681765656567322
% es.EY (V/m) @ t=0.96
-1.790078547609001
% es.EZ (V/m) @ t=0.96
9.332348053268007
% es.tEX (V/m) @ t=0.96
11.681765656567368
% es.tEY (V/m) @ t=0.96
0
% es.tEZ (V/m) @ t=0.96
9.332348053268003
% es.Ex (V/m) @ t=0.96
11.681765656567322
% es.Ey (V/m) @ t=0.96
-1.790078547609001
% es.Ez (V/m) @ t=0.96
9.332348053268007
% es.tEx (V/m) @ t=0.96
11.681765656567368
% es.tEy (V/m) @ t=0.96
0
% es.tEz (V/m) @ t=0.96
9.332348053268003
% V (V) @ t=0.96
0.012450130057461421
% es.normE (V/m) @ t=0.98
15.209989847783199
% es.EX (V/m) @ t=0.98
11.786029086365602
% es.EY (V/m) @ t=0.98
-1.806060437569764
% es.EZ (V/m) @ t=0.98
9.41563565857282
% es.tEX (V/m) @ t=0.98
11.786029086365616
% es.tEY (V/m) @ t=0.98
0
% es.tEZ (V/m) @ t=0.98
9.41563565857281
% es.Ex (V/m) @ t=0.98
11.786029086365602
% es.Ey (V/m) @ t=0.98
-1.806060437569764
% es.Ez (V/m) @ t=0.98
9.41563565857282
% es.tEx (V/m) @ t=0.98
11.786029086365616
% es.tEy (V/m) @ t=0.98
0
% es.tEz (V/m) @ t=0.98
9.41563565857281
% V (V) @ t=0.98
0.012561267666078357
% es.normE (V/m) @ t=1
15.344539508971444
% es.EX (V/m) @ t=1
11.890292516163925
% es.EY (V/m) @ t=1
-1.822042327530525
% es.EZ (V/m) @ t=1
9.49892326387759
% es.tEX (V/m) @ t=1
11.890292516163981
% es.tEY (V/m) @ t=1
0
% es.tEZ (V/m) @ t=1
9.498923263877575
% es.Ex (V/m) @ t=1
11.890292516163925
% es.Ey (V/m) @ t=1
-1.822042327530525
% es.Ez (V/m) @ t=1
9.49892326387759
% es.tEx (V/m) @ t=1
11.890292516163981
% es.tEy (V/m) @ t=1
0
% es.tEz (V/m) @ t=1
9.498923263877575
% V (V) @ t=1
0.012672405274695295
% es.normE (V/m) @ t=1.02
15.479089170163405
% es.EX (V/m) @ t=1.02
11.994555945962302
% es.EY (V/m) @ t=1.02
-1.8380242174912844
% es.EZ (V/m) @ t=1.02
9.582210869182381
% es.tEX (V/m) @ t=1.02
11.994555945962343
% es.tEY (V/m) @ t=1.02
0
% es.tEZ (V/m) @ t=1.02
9.582210869182385
% es.Ex (V/m) @ t=1.02
11.994555945962302
% es.Ey (V/m) @ t=1.02
-1.8380242174912844
% es.Ez (V/m) @ t=1.02
9.582210869182381
% es.tEx (V/m) @ t=1.02
11.994555945962343
% es.tEy (V/m) @ t=1.02
0
% es.tEz (V/m) @ t=1.02
9.582210869182385
% V (V) @ t=1.02
0.012783542883312229
% es.normE (V/m) @ t=1.04
15.613638831358903
% es.EX (V/m) @ t=1.04
12.098819375760659
% es.EY (V/m) @ t=1.04
-1.8540061074520153
% es.EZ (V/m) @ t=1.04
9.665498474487165
% es.tEX (V/m) @ t=1.04
12.098819375760678
% es.tEY (V/m) @ t=1.04
0
% es.tEZ (V/m) @ t=1.04
9.665498474487164
% es.Ex (V/m) @ t=1.04
12.098819375760659
% es.Ey (V/m) @ t=1.04
-1.8540061074520153
% es.Ez (V/m) @ t=1.04
9.665498474487165
% es.tEx (V/m) @ t=1.04
12.098819375760678
% es.tEy (V/m) @ t=1.04
0
% es.tEz (V/m) @ t=1.04
9.665498474487164
% V (V) @ t=1.04
0.012894680491929166
% es.normE (V/m) @ t=1.06
15.748188492557865
% es.EX (V/m) @ t=1.06
12.203082805558982
% es.EY (V/m) @ t=1.06
-1.8699879974127516
% es.EZ (V/m) @ t=1.06
9.748786079791978
% es.tEX (V/m) @ t=1.06