% Model:              1 neuron.mph
% Version:            COMSOL 6.1.0.252
% Date:               Mar 18 2023, 13:12
% Dimension:          0
% Nodes:              14017
% Expressions:        14017
% Description:        Electric field norm, Electric field, X component, Electric field, Y component, Electric field, Z component, Tangential electric field, X component, Tangential electric field, Y component, Tangential electric field, Z component, Electric field, x component, Electric field, y component, Electric field, z component, Tangential electric field, x component, Tangential electric field, y component, Tangential electric field, z component, Electric potential
% Length unit:        mm
% x
1
% y
12.2
% z
1.6599999999999997
% es.normE (V/m) @ t=0
2.428577614913742
% es.EX (V/m) @ t=0
2.1740854109919603
% es.EY (V/m) @ t=0
0.08364935278207739
% es.EZ (V/m) @ t=0
-1.0790479894106122
% es.tEX (V/m) @ t=0
2.174085410991961
% es.tEY (V/m) @ t=0
0
% es.tEZ (V/m) @ t=0
-1.0790479894106184
% es.Ex (V/m) @ t=0
2.1740854109919603
% es.Ey (V/m) @ t=0
0.08364935278207739
% es.Ez (V/m) @ t=0
-1.0790479894106122
% es.tEx (V/m) @ t=0
2.174085410991961
% es.tEy (V/m) @ t=0
0
% es.tEz (V/m) @ t=0
-1.0790479894106184
% V (V) @ t=0
0.011018431297319924
% es.normE (V/m) @ t=0.02
2.097580000925692
% es.EX (V/m) @ t=0.02
1.877773248992691
% es.EY (V/m) @ t=0.02
0.07224854937305769
% es.EZ (V/m) @ t=0.02
-0.9319815305620822
% es.tEX (V/m) @ t=0.02
1.877773248992682
% es.tEY (V/m) @ t=0.02
0
% es.tEZ (V/m) @ t=0.02
-0.9319815305620693
% es.Ex (V/m) @ t=0.02
1.877773248992691
% es.Ey (V/m) @ t=0.02
0.07224854937305769
% es.Ez (V/m) @ t=0.02
-0.9319815305620822
% es.tEx (V/m) @ t=0.02
1.877773248992682
% es.tEy (V/m) @ t=0.02
0
% es.tEz (V/m) @ t=0.02
-0.9319815305620693
% V (V) @ t=0.02
0.009516698573864085
% es.normE (V/m) @ t=0.04
2.116868141735799
% es.EX (V/m) @ t=0.04
1.8950401727536526
% es.EY (V/m) @ t=0.04
0.07291291311251102
% es.EZ (V/m) @ t=0.04
-0.9405514976285548
% es.tEX (V/m) @ t=0.04
1.8950401727536512
% es.tEY (V/m) @ t=0.04
0
% es.tEZ (V/m) @ t=0.04
-0.9405514976285332
% es.Ex (V/m) @ t=0.04
1.8950401727536526
% es.Ey (V/m) @ t=0.04
0.07291291311251102
% es.Ez (V/m) @ t=0.04
-0.9405514976285548
% es.tEx (V/m) @ t=0.04
1.8950401727536512
% es.tEy (V/m) @ t=0.04
0
% es.tEz (V/m) @ t=0.04
-0.9405514976285332
% V (V) @ t=0.04
0.009604208468017862
% es.normE (V/m) @ t=0.06
2.1363108308830103
% es.EX (V/m) @ t=0.06
1.9124454487941303
% es.EY (V/m) @ t=0.06
0.07358261528772952
% es.EZ (V/m) @ t=0.06
-0.9491901329990887
% es.tEX (V/m) @ t=0.06
1.9124454487941307
% es.tEY (V/m) @ t=0.06
0
% es.tEZ (V/m) @ t=0.06
-0.9491901329990782
% es.Ex (V/m) @ t=0.06
1.9124454487941303
% es.Ey (V/m) @ t=0.06
0.07358261528772952
% es.Ez (V/m) @ t=0.06
-0.9491901329990887
% es.tEx (V/m) @ t=0.06
1.9124454487941307
% es.tEy (V/m) @ t=0.06
0
% es.tEz (V/m) @ t=0.06
-0.9491901329990782
% V (V) @ t=0.06
0.00969241914670117
% es.normE (V/m) @ t=0.08
2.156094966619391
% es.EX (V/m) @ t=0.08
1.9301563923350025
% es.EY (V/m) @ t=0.08
0.07426405427098184
% es.EZ (V/m) @ t=0.08
-0.9579804766415836
% es.tEX (V/m) @ t=0.08
1.930156392335003
% es.tEY (V/m) @ t=0.08
0
% es.tEZ (V/m) @ t=0.08
-0.9579804766415805
% es.Ex (V/m) @ t=0.08
1.9301563923350025
% es.Ey (V/m) @ t=0.08
0.07426405427098184
% es.Ez (V/m) @ t=0.08
-0.9579804766415836
% es.tEx (V/m) @ t=0.08
1.930156392335003
% es.tEy (V/m) @ t=0.08
0
% es.tEz (V/m) @ t=0.08
-0.9579804766415805
% V (V) @ t=0.08
0.009782179593340113
% es.normE (V/m) @ t=0.1
2.176023494032302
% es.EX (V/m) @ t=0.1
1.9479965972134898
% es.EY (V/m) @ t=0.1
0.07495045654115323
% es.EZ (V/m) @ t=0.1
-0.9668349750082174
% es.tEX (V/m) @ t=0.1
1.9479965972134803
% es.tEY (V/m) @ t=0.1
0
% es.tEZ (V/m) @ t=0.1
-0.9668349750082044
% es.Ex (V/m) @ t=0.1
1.9479965972134898
% es.Ey (V/m) @ t=0.1
0.07495045654115323
% es.Ez (V/m) @ t=0.1
-0.9668349750082174
% es.tEx (V/m) @ t=0.1
1.9479965972134803
% es.tEy (V/m) @ t=0.1
0
% es.tEz (V/m) @ t=0.1
-0.9668349750082044
% V (V) @ t=0.1
0.009872595409223915
% es.normE (V/m) @ t=0.12
2.1959520214451773
% es.EX (V/m) @ t=0.12
1.9658368020919523
% es.EY (V/m) @ t=0.12
0.07563685881131754
% es.EZ (V/m) @ t=0.12
-0.9756894733748226
% es.tEX (V/m) @ t=0.12
1.9658368020919497
% es.tEY (V/m) @ t=0.12
0
% es.tEZ (V/m) @ t=0.12
-0.975689473374814
% es.Ex (V/m) @ t=0.12
1.9658368020919523
% es.Ey (V/m) @ t=0.12
0.07563685881131754
% es.Ez (V/m) @ t=0.12
-0.9756894733748226
% es.tEx (V/m) @ t=0.12
1.9658368020919497
% es.tEy (V/m) @ t=0.12
0
% es.tEz (V/m) @ t=0.12
-0.975689473374814
% V (V) @ t=0.12
0.009963011225107715
% es.normE (V/m) @ t=0.14
2.2163065748864055
% es.EX (V/m) @ t=0.14
1.9840583897735486
% es.EY (V/m) @ t=0.14
0.07633792933498529
% es.EZ (V/m) @ t=0.14
-0.9847332603425561
% es.tEX (V/m) @ t=0.14
1.984058389773545
% es.tEY (V/m) @ t=0.14
0
% es.tEZ (V/m) @ t=0.14
-0.9847332603425443
% es.Ex (V/m) @ t=0.14
1.9840583897735486
% es.Ey (V/m) @ t=0.14
0.07633792933498529
% es.Ez (V/m) @ t=0.14
-0.9847332603425561
% es.tEx (V/m) @ t=0.14
1.984058389773545
% es.tEy (V/m) @ t=0.14
0
% es.tEz (V/m) @ t=0.14
-0.9847332603425443
% V (V) @ t=0.14
0.01005536006687364
% es.normE (V/m) @ t=0.16
2.2372611041150217
% es.EX (V/m) @ t=0.16
2.0028170818393383
% es.EY (V/m) @ t=0.16
0.07705965727476422
% es.EZ (V/m) @ t=0.16
-0.9940436239275464
% es.tEX (V/m) @ t=0.16
2.0028170818393374
% es.tEY (V/m) @ t=0.16
0
% es.tEZ (V/m) @ t=0.16
-0.9940436239275385
% es.Ex (V/m) @ t=0.16
2.0028170818393383
% es.Ey (V/m) @ t=0.16
0.07705965727476422
% es.Ez (V/m) @ t=0.16
-0.9940436239275464
% es.tEx (V/m) @ t=0.16
2.0028170818393374
% es.tEy (V/m) @ t=0.16
0
% es.tEz (V/m) @ t=0.16
-0.9940436239275385
% V (V) @ t=0.16
0.010150431204106383
% es.normE (V/m) @ t=0.18
2.2582156333436485
% es.EX (V/m) @ t=0.18
2.021575773905139
% es.EY (V/m) @ t=0.18
0.07778138521455646
% es.EZ (V/m) @ t=0.18
-1.0033539875125368
% es.tEX (V/m) @ t=0.18
2.0215757739051297
% es.tEY (V/m) @ t=0.18
0
% es.tEZ (V/m) @ t=0.18
-1.0033539875125257
% es.Ex (V/m) @ t=0.18
2.021575773905139
% es.Ey (V/m) @ t=0.18
0.07778138521455646
% es.Ez (V/m) @ t=0.18
-1.0033539875125368
% es.tEx (V/m) @ t=0.18
2.0215757739051297
% es.tEy (V/m) @ t=0.18
0
% es.tEz (V/m) @ t=0.18
-1.0033539875125257
% V (V) @ t=0.18
0.01024550234133912
% es.normE (V/m) @ t=0.2
2.2791701625722744
% es.EX (V/m) @ t=0.2
2.0403344659709353
% es.EY (V/m) @ t=0.2
0.07850311315433367
% es.EZ (V/m) @ t=0.2
-1.0126643510975342
% es.tEX (V/m) @ t=0.2
2.0403344659709353
% es.tEY (V/m) @ t=0.2
0
% es.tEZ (V/m) @ t=0.2
-1.01266435109752
% es.Ex (V/m) @ t=0.2
2.0403344659709353
% es.Ey (V/m) @ t=0.2
0.07850311315433367
% es.Ez (V/m) @ t=0.2
-1.0126643510975342
% es.tEx (V/m) @ t=0.2
2.0403344659709353
% es.tEy (V/m) @ t=0.2
0
% es.tEz (V/m) @ t=0.2
-1.01266435109752
% V (V) @ t=0.2
0.010340573478571867
% es.normE (V/m) @ t=0.22
2.300124691800898
% es.EX (V/m) @ t=0.22
2.059093158036736
% es.EY (V/m) @ t=0.22
0.07922484109411795
% es.EZ (V/m) @ t=0.22
-1.0219747146825173
% es.tEX (V/m) @ t=0.22
2.0590931580367418
% es.tEY (V/m) @ t=0.22
0
% es.tEZ (V/m) @ t=0.22
-1.0219747146825071
% es.Ex (V/m) @ t=0.22
2.059093158036736
% es.Ey (V/m) @ t=0.22
0.07922484109411795
% es.Ez (V/m) @ t=0.22
-1.0219747146825173
% es.tEx (V/m) @ t=0.22
2.0590931580367418
% es.tEy (V/m) @ t=0.22
0
% es.tEz (V/m) @ t=0.22
-1.0219747146825071
% V (V) @ t=0.22
0.010435644615804608
% es.normE (V/m) @ t=0.24
2.3210792210295237
% es.EX (V/m) @ t=0.24
2.0778518501025287
% es.EY (V/m) @ t=0.24
0.07994656903391109
% es.EZ (V/m) @ t=0.24
-1.0312850782675183
% es.tEX (V/m) @ t=0.24
2.077851850102526
% es.tEY (V/m) @ t=0.24
0
% es.tEZ (V/m) @ t=0.24
-1.0312850782675227
% es.Ex (V/m) @ t=0.24
2.0778518501025287
% es.Ey (V/m) @ t=0.24
0.07994656903391109
% es.Ez (V/m) @ t=0.24
-1.0312850782675183
% es.tEx (V/m) @ t=0.24
2.077851850102526
% es.tEy (V/m) @ t=0.24
0
% es.tEz (V/m) @ t=0.24
-1.0312850782675227
% V (V) @ t=0.24
0.01053071575303735
% es.normE (V/m) @ t=0.26
2.3420337502581576
% es.EX (V/m) @ t=0.26
2.096610542168333
% es.EY (V/m) @ t=0.26
0.08066829697368738
% es.EZ (V/m) @ t=0.26
-1.0405954418525156
% es.tEX (V/m) @ t=0.26
2.0966105421683254
% es.tEY (V/m) @ t=0.26
0
% es.tEZ (V/m) @ t=0.26
-1.0405954418525027
% es.Ex (V/m) @ t=0.26
2.096610542168333
% es.Ey (V/m) @ t=0.26
0.08066829697368738
% es.Ez (V/m) @ t=0.26
-1.0405954418525156
% es.tEx (V/m) @ t=0.26
2.0966105421683254
% es.tEy (V/m) @ t=0.26
0
% es.tEz (V/m) @ t=0.26
-1.0405954418525027
% V (V) @ t=0.26
0.010625786890270092
% es.normE (V/m) @ t=0.28
2.364918867829381
% es.EX (V/m) @ t=0.28
2.1170974596463847
% es.EY (V/m) @ t=0.28
0.0814575164393036
% es.EZ (V/m) @ t=0.28
-1.0507636246957173
% es.tEX (V/m) @ t=0.28
2.1170974596463843
% es.tEY (V/m) @ t=0.28
0
% es.tEZ (V/m) @ t=0.28
-1.050763624695719
% es.Ex (V/m) @ t=0.28
2.1170974596463847
% es.Ey (V/m) @ t=0.28
0.0814575164393036
% es.Ez (V/m) @ t=0.28
-1.0507636246957173
% es.tEx (V/m) @ t=0.28
2.1170974596463843
% es.tEy (V/m) @ t=0.28
0
% es.tEz (V/m) @ t=0.28
-1.050763624695719
% V (V) @ t=0.28
0.010729590765989953
% es.normE (V/m) @ t=0.3
2.3881714698105228
% es.EX (V/m) @ t=0.3
2.137913342072939
% es.EY (V/m) @ t=0.3
0.08225958280911716
% es.EZ (V/m) @ t=0.3
-1.0610950920653972
% es.tEX (V/m) @ t=0.3
2.1379133420729346
% es.tEY (V/m) @ t=0.3
0
% es.tEZ (V/m) @ t=0.3
-1.0610950920654005
% es.Ex (V/m) @ t=0.3
2.137913342072939
% es.Ey (V/m) @ t=0.3
0.08225958280911716
% es.Ez (V/m) @ t=0.3
-1.0610950920653972
% es.tEx (V/m) @ t=0.3
2.1379133420729346
% es.tEy (V/m) @ t=0.3
0
% es.tEz (V/m) @ t=0.3
-1.0610950920654005
% V (V) @ t=0.3
0.010835056904540988
% es.normE (V/m) @ t=0.32
2.4114240717923927
% es.EX (V/m) @ t=0.32
2.158729224499515
% es.EY (V/m) @ t=0.32
0.08306164917896977
% es.EZ (V/m) @ t=0.32
-1.0714265594351164
% es.tEX (V/m) @ t=0.32
2.1587292244995124
% es.tEY (V/m) @ t=0.32
0
% es.tEZ (V/m) @ t=0.32
-1.0714265594351176
% es.Ex (V/m) @ t=0.32
2.158729224499515
% es.Ey (V/m) @ t=0.32
0.08306164917896977
% es.Ez (V/m) @ t=0.32
-1.0714265594351164
% es.tEx (V/m) @ t=0.32
2.1587292244995124
% es.tEy (V/m) @ t=0.32
0
% es.tEz (V/m) @ t=0.32
-1.0714265594351176
% V (V) @ t=0.32
0.010940523043092027
% es.normE (V/m) @ t=0.34
2.4346766737748915
% es.EX (V/m) @ t=0.34
2.179545106926073
% es.EY (V/m) @ t=0.34
0.08386371554878688
% es.EZ (V/m) @ t=0.34
-1.0817580268047786
% es.tEX (V/m) @ t=0.34
2.17954510692607
% es.tEY (V/m) @ t=0.34
0
% es.tEZ (V/m) @ t=0.34
-1.0817580268047848
% es.Ex (V/m) @ t=0.34
2.179545106926073
% es.Ey (V/m) @ t=0.34
0.08386371554878688
% es.Ez (V/m) @ t=0.34
-1.0817580268047786
% es.tEx (V/m) @ t=0.34
2.17954510692607
% es.tEy (V/m) @ t=0.34
0
% es.tEz (V/m) @ t=0.34
-1.0817580268047848
% V (V) @ t=0.34
0.011045989181643066
% es.normE (V/m) @ t=0.36
2.4579292757580538
% es.EX (V/m) @ t=0.36
2.200360989352632
% es.EY (V/m) @ t=0.36
0.0846657819186235
% es.EZ (V/m) @ t=0.36
-1.0920894941744623
% es.tEX (V/m) @ t=0.36
2.200360989352629
% es.tEY (V/m) @ t=0.36
0
% es.tEZ (V/m) @ t=0.36
-1.0920894941744663
% es.Ex (V/m) @ t=0.36
2.200360989352632
% es.Ey (V/m) @ t=0.36
0.0846657819186235
% es.Ez (V/m) @ t=0.36
-1.0920894941744623
% es.tEx (V/m) @ t=0.36
2.200360989352629
% es.tEy (V/m) @ t=0.36
0
% es.tEz (V/m) @ t=0.36
-1.0920894941744663
% V (V) @ t=0.36
0.011151455320194101
% es.normE (V/m) @ t=0.38
2.481181877741866
% es.EX (V/m) @ t=0.38
2.221176871779197
% es.EY (V/m) @ t=0.38
0.08546784828846013
% es.EZ (V/m) @ t=0.38
-1.102420961544171
% es.tEX (V/m) @ t=0.38
2.2211768717791927
% es.tEY (V/m) @ t=0.38
0
% es.tEZ (V/m) @ t=0.38
-1.102420961544155
% es.Ex (V/m) @ t=0.38
2.221176871779197
% es.Ey (V/m) @ t=0.38
0.08546784828846013
% es.Ez (V/m) @ t=0.38
-1.102420961544171
% es.tEx (V/m) @ t=0.38
2.2211768717791927
% es.tEy (V/m) @ t=0.38
0
% es.tEz (V/m) @ t=0.38
-1.102420961544155
% V (V) @ t=0.38
0.01125692145874514
% es.normE (V/m) @ t=0.4
2.504434479726286
% es.EX (V/m) @ t=0.4
2.2419927542057616
% es.EY (V/m) @ t=0.4
0.08626991465828346
% es.EZ (V/m) @ t=0.4
-1.1127524289138617
% es.tEX (V/m) @ t=0.4
2.241992754205757
% es.tEY (V/m) @ t=0.4
0
% es.tEZ (V/m) @ t=0.4
-1.1127524289138577
% es.Ex (V/m) @ t=0.4
2.2419927542057616
% es.Ey (V/m) @ t=0.4
0.08626991465828346
% es.Ez (V/m) @ t=0.4
-1.1127524289138617
% es.tEx (V/m) @ t=0.4
2.241992754205757
% es.tEy (V/m) @ t=0.4
0
% es.tEz (V/m) @ t=0.4
-1.1127524289138577
% V (V) @ t=0.4
0.01136238759729618
% es.normE (V/m) @ t=0.42
2.527687081711316
% es.EX (V/m) @ t=0.42
2.262808636632331
% es.EY (V/m) @ t=0.42
0.08707198102812008
% es.EZ (V/m) @ t=0.42
-1.1230838962835668
% es.tEX (V/m) @ t=0.42
2.262808636632329
% es.tEY (V/m) @ t=0.42
0
% es.tEZ (V/m) @ t=0.42
-1.1230838962835463
% es.Ex (V/m) @ t=0.42
2.262808636632331
% es.Ey (V/m) @ t=0.42
0.08707198102812008
% es.Ez (V/m) @ t=0.42
-1.1230838962835668
% es.tEx (V/m) @ t=0.42
2.262808636632329
% es.tEy (V/m) @ t=0.42
0
% es.tEz (V/m) @ t=0.42
-1.1230838962835463
% V (V) @ t=0.42
0.011467853735847217
% es.normE (V/m) @ t=0.44
2.550939683696918
% es.EX (V/m) @ t=0.44
2.2836245190588955
% es.EY (V/m) @ t=0.44
0.08787404739797267
% es.EZ (V/m) @ t=0.44
-1.1334153636532538
% es.tEX (V/m) @ t=0.44
2.2836245190588853
% es.tEY (V/m) @ t=0.44
0
% es.tEZ (V/m) @ t=0.44
-1.1334153636532491
% es.Ex (V/m) @ t=0.44
2.2836245190588955
% es.Ey (V/m) @ t=0.44
0.08787404739797267
% es.Ez (V/m) @ t=0.44
-1.1334153636532538
% es.tEx (V/m) @ t=0.44
2.2836245190588853
% es.tEy (V/m) @ t=0.44
0
% es.tEz (V/m) @ t=0.44
-1.1334153636532491
% V (V) @ t=0.44
0.011573319874398254
% es.normE (V/m) @ t=0.46
2.5741922856830737
% es.EX (V/m) @ t=0.46
2.304440401485447
% es.EY (V/m) @ t=0.46
0.08867611376779866
% es.EZ (V/m) @ t=0.46
-1.143746831022941
% es.tEX (V/m) @ t=0.46
2.3044404014854436
% es.tEY (V/m) @ t=0.46
0
% es.tEZ (V/m) @ t=0.46
-1.1437468310229235
% es.Ex (V/m) @ t=0.46
2.304440401485447
% es.Ey (V/m) @ t=0.46
0.08867611376779866
% es.Ez (V/m) @ t=0.46
-1.143746831022941
% es.tEx (V/m) @ t=0.46
2.3044404014854436
% es.tEy (V/m) @ t=0.46
0
% es.tEz (V/m) @ t=0.46
-1.1437468310229235
% V (V) @ t=0.46
0.011678786012949294
% es.normE (V/m) @ t=0.48
2.5974448876697886
% es.EX (V/m) @ t=0.48
2.325256283912008
% es.EY (V/m) @ t=0.48
0.08947818013763525
% es.EZ (V/m) @ t=0.48
-1.1540782983926245
% es.tEX (V/m) @ t=0.48
2.3252562839120072
% es.tEY (V/m) @ t=0.48
0
% es.tEZ (V/m) @ t=0.48
-1.1540782983926192
% es.Ex (V/m) @ t=0.48
2.325256283912008
% es.Ey (V/m) @ t=0.48
0.08947818013763525
% es.Ez (V/m) @ t=0.48
-1.1540782983926245
% es.tEx (V/m) @ t=0.48
2.3252562839120072
% es.tEy (V/m) @ t=0.48
0
% es.tEz (V/m) @ t=0.48
-1.1540782983926192
% V (V) @ t=0.48
0.01178425215150033
% es.normE (V/m) @ t=0.5
2.6206974896570534
% es.EX (V/m) @ t=0.5
2.346072166338573
% es.EY (V/m) @ t=0.5
0.09028024650746835
% es.EZ (V/m) @ t=0.5
-1.1644097657623296
% es.tEX (V/m) @ t=0.5
2.346072166338571
% es.tEY (V/m) @ t=0.5
0
% es.tEZ (V/m) @ t=0.5
-1.1644097657623291
% es.Ex (V/m) @ t=0.5
2.346072166338573
% es.Ey (V/m) @ t=0.5
0.09028024650746835
% es.Ez (V/m) @ t=0.5
-1.1644097657623296
% es.tEx (V/m) @ t=0.5
2.346072166338571
% es.tEy (V/m) @ t=0.5
0
% es.tEz (V/m) @ t=0.5
-1.1644097657623291
% V (V) @ t=0.5
0.011889718290051369
% es.normE (V/m) @ t=0.52
2.6439500916448337
% es.EX (V/m) @ t=0.52
2.366888048765142
% es.EY (V/m) @ t=0.52
0.09108231287728369
% es.EZ (V/m) @ t=0.52
-1.1747412331320097
% es.tEX (V/m) @ t=0.52
2.3668880487651363
% es.tEY (V/m) @ t=0.52
0
% es.tEZ (V/m) @ t=0.52
-1.1747412331320035
% es.Ex (V/m) @ t=0.52
2.366888048765142
% es.Ey (V/m) @ t=0.52
0.09108231287728369
% es.Ez (V/m) @ t=0.52
-1.1747412331320097
% es.tEx (V/m) @ t=0.52
2.3668880487651363
% es.tEy (V/m) @ t=0.52
0
% es.tEz (V/m) @ t=0.52
-1.1747412331320035
% V (V) @ t=0.52
0.011995184428602408
% es.normE (V/m) @ t=0.54
2.668992048661611
% es.EX (V/m) @ t=0.54
2.3893059106697554
% es.EY (V/m) @ t=0.54
0.09194363744808226
% es.EZ (V/m) @ t=0.54
-1.1858676519593718
% es.tEX (V/m) @ t=0.54
2.3893059106697514
% es.tEY (V/m) @ t=0.54
0
% es.tEZ (V/m) @ t=0.54
-1.1858676519593558
% es.Ex (V/m) @ t=0.54
2.3893059106697554
% es.Ey (V/m) @ t=0.54
0.09194363744808226
% es.Ez (V/m) @ t=0.54
-1.1858676519593718
% es.tEx (V/m) @ t=0.54
2.3893059106697514
% es.tEy (V/m) @ t=0.54
0
% es.tEz (V/m) @ t=0.54
-1.1858676519593558
% V (V) @ t=0.54
0.012108831674233716
% es.normE (V/m) @ t=0.56
2.694838625936649
% es.EX (V/m) @ t=0.56
2.4124441355638093
% es.EY (V/m) @ t=0.56
0.09283160868658813
% es.EZ (V/m) @ t=0.56
-1.1973515370441734
% es.tEX (V/m) @ t=0.56
2.412444135563808
% es.tEY (V/m) @ t=0.56
0
% es.tEZ (V/m) @ t=0.56
-1.1973515370441632
% es.Ex (V/m) @ t=0.56
2.4124441355638093
% es.Ey (V/m) @ t=0.56
0.09283160868658813
% es.Ez (V/m) @ t=0.56
-1.1973515370441734
% es.tEx (V/m) @ t=0.56
2.412444135563808
% es.tEy (V/m) @ t=0.56
0
% es.tEz (V/m) @ t=0.56
-1.1973515370441632
% V (V) @ t=0.56
0.012226157722767288
% es.normE (V/m) @ t=0.58
2.7206852032143622
% es.EX (V/m) @ t=0.58
2.4355823604578575
% es.EY (V/m) @ t=0.58
0.09371957992505492
% es.EZ (V/m) @ t=0.58
-1.2088354221289535
% es.tEX (V/m) @ t=0.58
2.435582360457852
% es.tEY (V/m) @ t=0.58
0
% es.tEZ (V/m) @ t=0.58
-1.2088354221289421
% es.Ex (V/m) @ t=0.58
2.4355823604578575
% es.Ey (V/m) @ t=0.58
0.09371957992505492
% es.Ez (V/m) @ t=0.58
-1.2088354221289535
% es.tEx (V/m) @ t=0.58
2.435582360457852
% es.tEy (V/m) @ t=0.58
0
% es.tEz (V/m) @ t=0.58
-1.2088354221289421
% V (V) @ t=0.58
0.012343483771300852
% es.normE (V/m) @ t=0.6
2.7465317804946885
% es.EX (V/m) @ t=0.6
2.4587205853519047
% es.EY (V/m) @ t=0.6
0.09460755116353858
% es.EZ (V/m) @ t=0.6
-1.22031930721373
% es.tEX (V/m) @ t=0.6
2.4587205853519096
% es.tEY (V/m) @ t=0.6
0
% es.tEZ (V/m) @ t=0.6
-1.2203193072137353
% es.Ex (V/m) @ t=0.6
2.4587205853519047
% es.Ey (V/m) @ t=0.6
0.09460755116353858
% es.Ez (V/m) @ t=0.6
-1.22031930721373
% es.tEx (V/m) @ t=0.6
2.4587205853519096
% es.tEy (V/m) @ t=0.6
0
% es.tEz (V/m) @ t=0.6
-1.2203193072137353
% V (V) @ t=0.6
0.012460809819834424
% es.normE (V/m) @ t=0.62
2.772378357777581
% es.EX (V/m) @ t=0.62
2.481858810245962
% es.EY (V/m) @ t=0.62
0.09549552240201864
% es.EZ (V/m) @ t=0.62
-1.2318031922985422
% es.tEX (V/m) @ t=0.62
2.481858810245959
% es.tEY (V/m) @ t=0.62
0
% es.tEZ (V/m) @ t=0.62
-1.2318031922985284
% es.Ex (V/m) @ t=0.62
2.481858810245962
% es.Ey (V/m) @ t=0.62
0.09549552240201864
% es.Ez (V/m) @ t=0.62
-1.2318031922985422
% es.tEx (V/m) @ t=0.62
2.481858810245959
% es.tEy (V/m) @ t=0.62
0
% es.tEz (V/m) @ t=0.62
-1.2318031922985284
% V (V) @ t=0.62
0.012578135868367993
% es.normE (V/m) @ t=0.64
2.7982249350629407
% es.EX (V/m) @ t=0.64
2.504997035140021
% es.EY (V/m) @ t=0.64
0.09638349364052273
% es.EZ (V/m) @ t=0.64
-1.24328707738334
% es.tEX (V/m) @ t=0.64
2.5049970351400175
% es.tEY (V/m) @ t=0.64
0
% es.tEZ (V/m) @ t=0.64
-1.2432870773833145
% es.Ex (V/m) @ t=0.64
2.504997035140021
% es.Ey (V/m) @ t=0.64
0.09638349364052273
% es.Ez (V/m) @ t=0.64
-1.24328707738334
% es.tEx (V/m) @ t=0.64
2.5049970351400175
% es.tEy (V/m) @ t=0.64
0
% es.tEz (V/m) @ t=0.64
-1.2432870773833145
% V (V) @ t=0.64
0.012695461916901562
% es.normE (V/m) @ t=0.66
2.824071512350678
% es.EX (V/m) @ t=0.66
2.528135260034061
% es.EY (V/m) @ t=0.66
0.09727146487898775
% es.EZ (V/m) @ t=0.66
-1.25477096246812
% es.tEX (V/m) @ t=0.66
2.5281352600340607
% es.tEY (V/m) @ t=0.66
0
% es.tEZ (V/m) @ t=0.66
-1.2547709624681076
% es.Ex (V/m) @ t=0.66
2.528135260034061
% es.Ey (V/m) @ t=0.66
0.09727146487898775
% es.Ez (V/m) @ t=0.66
-1.25477096246812
% es.tEx (V/m) @ t=0.66
2.5281352600340607
% es.tEy (V/m) @ t=0.66
0
% es.tEz (V/m) @ t=0.66
-1.2547709624681076
% V (V) @ t=0.66
0.01281278796543513
% es.normE (V/m) @ t=0.68
2.849918089640764
% es.EX (V/m) @ t=0.68
2.551273484928112
% es.EY (V/m) @ t=0.68
0.09815943611748923
% es.EZ (V/m) @ t=0.68
-1.2662548475529
% es.tEX (V/m) @ t=0.68
2.5512734849281102
% es.tEY (V/m) @ t=0.68
0
% es.tEZ (V/m) @ t=0.68
-1.2662548475528936
% es.Ex (V/m) @ t=0.68
2.551273484928112
% es.Ey (V/m) @ t=0.68
0.09815943611748923
% es.Ez (V/m) @ t=0.68
-1.2662548475529
% es.tEx (V/m) @ t=0.68
2.5512734849281102
% es.tEy (V/m) @ t=0.68
0
% es.tEz (V/m) @ t=0.68
-1.2662548475528936
% V (V) @ t=0.68
0.012930114013968699
% es.normE (V/m) @ t=0.7
2.875764666933124
% es.EX (V/m) @ t=0.7
2.574411709822164
% es.EY (V/m) @ t=0.7
0.09904740735596218
% es.EZ (V/m) @ t=0.7
-1.2777387326376801
% es.tEX (V/m) @ t=0.7
2.5744117098221553
% es.tEY (V/m) @ t=0.7
0
% es.tEZ (V/m) @ t=0.7
-1.2777387326376655
% es.Ex (V/m) @ t=0.7
2.574411709822164
% es.Ey (V/m) @ t=0.7
0.09904740735596218
% es.Ez (V/m) @ t=0.7
-1.2777387326376801
% es.tEx (V/m) @ t=0.7
2.5744117098221553
% es.tEy (V/m) @ t=0.7
0
% es.tEz (V/m) @ t=0.7
-1.2777387326376655
% V (V) @ t=0.7
0.01304744006250227
% es.normE (V/m) @ t=0.72
2.9016112442277113
% es.EX (V/m) @ t=0.72
2.5975499347162216
% es.EY (V/m) @ t=0.72
0.09993537859445029
% es.EZ (V/m) @ t=0.72
-1.2892226177224746
% es.tEX (V/m) @ t=0.72
2.5975499347162128
% es.tEY (V/m) @ t=0.72
0
% es.tEZ (V/m) @ t=0.72
-1.289222617722487
% es.Ex (V/m) @ t=0.72
2.5975499347162216
% es.Ey (V/m) @ t=0.72
0.09993537859445029
% es.Ez (V/m) @ t=0.72
-1.2892226177224746
% es.tEx (V/m) @ t=0.72
2.5975499347162128
% es.tEy (V/m) @ t=0.72
0
% es.tEz (V/m) @ t=0.72
-1.289222617722487
% V (V) @ t=0.72
0.013164766111035835
% es.normE (V/m) @ t=0.74
2.927457821524456
% es.EX (V/m) @ t=0.74
2.6206881596102725
% es.EY (V/m) @ t=0.74
0.10082334983295077
% es.EZ (V/m) @ t=0.74
-1.3007065028072866
% es.tEX (V/m) @ t=0.74
2.6206881596102773
% es.tEY (V/m) @ t=0.74
0
% es.tEZ (V/m) @ t=0.74
-1.300706502807273
% es.Ex (V/m) @ t=0.74
2.6206881596102725
% es.Ey (V/m) @ t=0.74
0.10082334983295077
% es.Ez (V/m) @ t=0.74
-1.3007065028072866
% es.tEx (V/m) @ t=0.74
2.6206881596102773
% es.tEy (V/m) @ t=0.74
0
% es.tEz (V/m) @ t=0.74
-1.300706502807273
% V (V) @ t=0.74
0.013282092159569403
% es.normE (V/m) @ t=0.76
2.9533043988232697
% es.EX (V/m) @ t=0.76
2.6438263845043166
% es.EY (V/m) @ t=0.76
0.10171132107139891
% es.EZ (V/m) @ t=0.76
-1.312190387892049
% es.tEX (V/m) @ t=0.76
2.6438263845043135
% es.tEY (V/m) @ t=0.76
0
% es.tEZ (V/m) @ t=0.76
-1.312190387892052
% es.Ex (V/m) @ t=0.76
2.6438263845043166
% es.Ey (V/m) @ t=0.76
0.10171132107139891
% es.Ez (V/m) @ t=0.76
-1.312190387892049
% es.tEx (V/m) @ t=0.76
2.6438263845043135
% es.tEy (V/m) @ t=0.76
0
% es.tEz (V/m) @ t=0.76
-1.312190387892052
% V (V) @ t=0.76
0.013399418208102972
% es.normE (V/m) @ t=0.78
2.979150976124161
% es.EX (V/m) @ t=0.78
2.6669646093983745
% es.EY (V/m) @ t=0.78
0.10259929230990744
% es.EZ (V/m) @ t=0.78
-1.3236742729768538
% es.tEX (V/m) @ t=0.78
2.666964609398378
% es.tEY (V/m) @ t=0.78
0
% es.tEZ (V/m) @ t=0.78
-1.323674272976838
% es.Ex (V/m) @ t=0.78
2.6669646093983745
% es.Ey (V/m) @ t=0.78
0.10259929230990744
% es.Ez (V/m) @ t=0.78
-1.3236742729768538
% es.tEx (V/m) @ t=0.78
2.666964609398378
% es.tEy (V/m) @ t=0.78
0
% es.tEz (V/m) @ t=0.78
-1.323674272976838
% V (V) @ t=0.78
0.013516744256636543
% es.normE (V/m) @ t=0.8
3.0065784126516553
% es.EX (V/m) @ t=0.8
2.6915179155790043
% es.EY (V/m) @ t=0.8
0.10354384726758675
% es.EZ (V/m) @ t=0.8
-1.335860627490064
% es.tEX (V/m) @ t=0.8
2.691517915579009
% es.tEY (V/m) @ t=0.8
0
% es.tEZ (V/m) @ t=0.8
-1.3358606274900424
% es.Ex (V/m) @ t=0.8
2.6915179155790043
% es.Ey (V/m) @ t=0.8
0.10354384726758675
% es.Ez (V/m) @ t=0.8
-1.335860627490064
% es.tEx (V/m) @ t=0.8
2.691517915579009
% es.tEy (V/m) @ t=0.8
0
% es.tEz (V/m) @ t=0.8
-1.3358606274900424
% V (V) @ t=0.8
0.013641186194926807
% es.normE (V/m) @ t=0.82
3.0353550375636127
% es.EX (V/m) @ t=0.82
2.7172789265337585
% es.EY (V/m) @ t=0.82
0.10453669374640623
% es.EZ (V/m) @ t=0.82
-1.348646506348908
% es.tEX (V/m) @ t=0.82
2.717278926533753
% es.tEY (V/m) @ t=0.82
0
% es.tEZ (V/m) @ t=0.82
-1.3486465063489135
% es.Ex (V/m) @ t=0.82
2.7172789265337585
% es.Ey (V/m) @ t=0.82
0.10453669374640623
% es.Ez (V/m) @ t=0.82
-1.348646506348908
% es.tEx (V/m) @ t=0.82
2.717278926533753
% es.tEy (V/m) @ t=0.82
0
% es.tEz (V/m) @ t=0.82
-1.3486465063489135
% V (V) @ t=0.82
0.013771701207684728
% es.normE (V/m) @ t=0.84
3.0641316624769166
% es.EX (V/m) @ t=0.84
2.743039937488501
% es.EY (V/m) @ t=0.84
0.10552954022525407
% es.EZ (V/m) @ t=0.84
-1.3614323852077912
% es.tEX (V/m) @ t=0.84
2.7430399374885033
% es.tEY (V/m) @ t=0.84
0
% es.tEZ (V/m) @ t=0.84
-1.3614323852077703
% es.Ex (V/m) @ t=0.84
2.743039937488501
% es.Ey (V/m) @ t=0.84
0.10552954022525407
% es.Ez (V/m) @ t=0.84
-1.3614323852077912
% es.tEx (V/m) @ t=0.84
2.7430399374885033
% es.tEy (V/m) @ t=0.84
0
% es.tEz (V/m) @ t=0.84
-1.3614323852077703
% V (V) @ t=0.84
0.013902216220442649
% es.normE (V/m) @ t=0.86
3.0929082873914853
% es.EX (V/m) @ t=0.86
2.7688009484432343
% es.EY (V/m) @ t=0.86
0.1065223867040958
% es.EZ (V/m) @ t=0.86
-1.3742182640666138
% es.tEX (V/m) @ t=0.86
2.768800948443233
% es.tEY (V/m) @ t=0.86
0
% es.tEZ (V/m) @ t=0.86
-1.37421826406662
% es.Ex (V/m) @ t=0.86
2.7688009484432343
% es.Ey (V/m) @ t=0.86
0.1065223867040958
% es.Ez (V/m) @ t=0.86
-1.3742182640666138
% es.tEx (V/m) @ t=0.86
2.768800948443233
% es.tEy (V/m) @ t=0.86
0
% es.tEz (V/m) @ t=0.86
-1.37421826406662
% V (V) @ t=0.86
0.014032731233200568
% es.normE (V/m) @ t=0.88
3.121684912307348
% es.EX (V/m) @ t=0.88
2.7945619593979774
% es.EY (V/m) @ t=0.88
0.10751523318291883
% es.EZ (V/m) @ t=0.88
-1.3870041429254862
% es.tEX (V/m) @ t=0.88
2.794561959397984
% es.tEY (V/m) @ t=0.88
0
% es.tEZ (V/m) @ t=0.88
-1.3870041429254911
% es.Ex (V/m) @ t=0.88
2.7945619593979774
% es.Ey (V/m) @ t=0.88
0.10751523318291883
% es.Ez (V/m) @ t=0.88
-1.3870041429254862
% es.tEx (V/m) @ t=0.88
2.794561959397984
% es.tEy (V/m) @ t=0.88
0
% es.tEz (V/m) @ t=0.88
-1.3870041429254911
% V (V) @ t=0.88
0.014163246245958487
% es.normE (V/m) @ t=0.9
3.1504615372244373
% es.EX (V/m) @ t=0.9
2.8203229703527173
% es.EY (V/m) @ t=0.9
0.10850807966176762
% es.EZ (V/m) @ t=0.9
-1.399790021784355
% es.tEX (V/m) @ t=0.9
2.820322970352713
% es.tEY (V/m) @ t=0.9
0
% es.tEZ (V/m) @ t=0.9
-1.399790021784348
% es.Ex (V/m) @ t=0.9
2.8203229703527173
% es.Ey (V/m) @ t=0.9
0.10850807966176762
% es.Ez (V/m) @ t=0.9
-1.399790021784355
% es.tEx (V/m) @ t=0.9
2.820322970352713
% es.tEy (V/m) @ t=0.9
0
% es.tEz (V/m) @ t=0.9
-1.399790021784348
% V (V) @ t=0.9
0.014293761258716405
% es.normE (V/m) @ t=0.92
3.1792381621427386
% es.EX (V/m) @ t=0.92
2.846083981307475
% es.EY (V/m) @ t=0.92
0.10950092614060125
% es.EZ (V/m) @ t=0.92
-1.412575900643224
% es.tEX (V/m) @ t=0.92
2.846083981307471
% es.tEY (V/m) @ t=0.92
0
% es.tEZ (V/m) @ t=0.92
-1.412575900643212
% es.Ex (V/m) @ t=0.92
2.846083981307475
% es.Ey (V/m) @ t=0.92
0.10950092614060125
% es.Ez (V/m) @ t=0.92
-1.412575900643224
% es.tEx (V/m) @ t=0.92
2.846083981307471
% es.tEy (V/m) @ t=0.92
0
% es.tEz (V/m) @ t=0.92
-1.412575900643212
% V (V) @ t=0.92
0.014424276271474325
% es.normE (V/m) @ t=0.94
3.2080147870621696
% es.EX (V/m) @ t=0.94
2.8718449922622042
% es.EY (V/m) @ t=0.94
0.11049377261941806
% es.EZ (V/m) @ t=0.94
-1.425361779502075
% es.tEX (V/m) @ t=0.94
2.871844992262208
% es.tEY (V/m) @ t=0.94
0
% es.tEZ (V/m) @ t=0.94
-1.4253617795020688
% es.Ex (V/m) @ t=0.94
2.8718449922622042
% es.Ey (V/m) @ t=0.94
0.11049377261941806
% es.Ez (V/m) @ t=0.94
-1.425361779502075
% es.tEx (V/m) @ t=0.94
2.871844992262208
% es.tEy (V/m) @ t=0.94
0
% es.tEz (V/m) @ t=0.94
-1.4253617795020688
% V (V) @ t=0.94
0.014554791284232245
% es.normE (V/m) @ t=0.96
3.2367914119827623
% es.EX (V/m) @ t=0.96
2.8976060032169584
% es.EY (V/m) @ t=0.96
0.11148661909826596
% es.EZ (V/m) @ t=0.96
-1.4381476583609367
% es.tEX (V/m) @ t=0.96
2.8976060032169517
% es.tEY (V/m) @ t=0.96
0
% es.tEZ (V/m) @ t=0.96
-1.4381476583609185
% es.Ex (V/m) @ t=0.96
2.8976060032169584
% es.Ey (V/m) @ t=0.96
0.11148661909826596
% es.Ez (V/m) @ t=0.96
-1.4381476583609367
% es.tEx (V/m) @ t=0.96
2.8976060032169517
% es.tEy (V/m) @ t=0.96
0
% es.tEz (V/m) @ t=0.96
-1.4381476583609185
% V (V) @ t=0.96
0.014685306296990162
% es.normE (V/m) @ t=0.98
3.2655680369044227
% es.EX (V/m) @ t=0.98
2.9233670141716797
% es.EY (V/m) @ t=0.98
0.11247946557705074
% es.EZ (V/m) @ t=0.98
-1.4509335372197916
% es.tEX (V/m) @ t=0.98
2.9233670141716797
% es.tEY (V/m) @ t=0.98
0
% es.tEZ (V/m) @ t=0.98
-1.4509335372197825
% es.Ex (V/m) @ t=0.98
2.9233670141716797
% es.Ey (V/m) @ t=0.98
0.11247946557705074
% es.Ez (V/m) @ t=0.98
-1.4509335372197916
% es.tEx (V/m) @ t=0.98
2.9233670141716797
% es.tEy (V/m) @ t=0.98
0
% es.tEz (V/m) @ t=0.98
-1.4509335372197825
% V (V) @ t=0.98
0.014815821309748083
% es.normE (V/m) @ t=1
3.2943446618272074
% es.EX (V/m) @ t=1
2.949128025126448
% es.EY (V/m) @ t=1
0.11347231205592268
% es.EZ (V/m) @ t=1
-1.4637194160786569
% es.tEX (V/m) @ t=1
2.9491280251264396
% es.tEY (V/m) @ t=1
0
% es.tEZ (V/m) @ t=1
-1.4637194160786393
% es.Ex (V/m) @ t=1
2.949128025126448
% es.Ey (V/m) @ t=1
0.11347231205592268
% es.Ez (V/m) @ t=1
-1.4637194160786569
% es.tEx (V/m) @ t=1
2.9491280251264396
% es.tEy (V/m) @ t=1
0
% es.tEz (V/m) @ t=1
-1.4637194160786393
% V (V) @ t=1
0.014946336322506006
% es.normE (V/m) @ t=1.02
3.3231212867509967
% es.EX (V/m) @ t=1.02
2.974889036081178
% es.EY (V/m) @ t=1.02
0.11446515853474659
% es.EZ (V/m) @ t=1.02
-1.476505294937508
% es.tEX (V/m) @ t=1.02
2.9748890360811764
% es.tEY (V/m) @ t=1.02
0
% es.tEZ (V/m) @ t=1.02
-1.4765052949374962
% es.Ex (V/m) @ t=1.02
2.974889036081178
% es.Ey (V/m) @ t=1.02
0.11446515853474659
% es.Ez (V/m) @ t=1.02
-1.476505294937508
% es.tEx (V/m) @ t=1.02
2.9748890360811764
% es.tEy (V/m) @ t=1.02
0
% es.tEz (V/m) @ t=1.02
-1.4765052949374962
% V (V) @ t=1.02
0.015076851335263921
% es.normE (V/m) @ t=1.04
3.3518979116758514
% es.EX (V/m) @ t=1.04
3.000650047035942
% es.EY (V/m) @ t=1.04
0.11545800501358028
% es.EZ (V/m) @ t=1.04
-1.4892911737963948
% es.tEX (V/m) @ t=1.04
3.0006500470359256
% es.tEY (V/m) @ t=1.04
0
% es.tEZ (V/m) @ t=1.04