% Model:              1 neuron.mph
% Version:            COMSOL 6.0.0.405
% Date:               Mar 16 2023, 17:56
% Dimension:          0
% Nodes:              14017
% Expressions:        14017
% Description:        Electric field norm, Electric field, X component, Electric field, Y component, Electric field, Z component, Tangential electric field, X component, Tangential electric field, Y component, Tangential electric field, Z component, Electric field, x component, Electric field, y component, Electric field, z component, Tangential electric field, x component, Tangential electric field, y component, Tangential electric field, z component, Electric potential
% Length unit:        mm
% x
1.66
% y
12.2
% z
1.33
% es.normE (V/m) @ t=0
11.220298886436915
% es.EX (V/m) @ t=0
-6.234451892448284
% es.EY (V/m) @ t=0
-0.6729549268644628
% es.EZ (V/m) @ t=0
8.347889614556584
% es.tEX (V/m) @ t=0
-6.234451892448294
% es.tEY (V/m) @ t=0
0
% es.tEZ (V/m) @ t=0
8.347889614556578
% es.Ex (V/m) @ t=0
-6.234451892448284
% es.Ey (V/m) @ t=0
-0.6729549268644628
% es.Ez (V/m) @ t=0
8.347889614556584
% es.tEx (V/m) @ t=0
-6.234451892448294
% es.tEy (V/m) @ t=0
0
% es.tEz (V/m) @ t=0
8.347889614556578
% V (V) @ t=0
0.00921483924486079
% es.normE (V/m) @ t=0.02
9.691179554939811
% es.EX (V/m) @ t=0.02
-5.384811490651415
% es.EY (V/m) @ t=0.02
-0.5812434545925151
% es.EZ (V/m) @ t=0.02
7.210226542431764
% es.tEX (V/m) @ t=0.02
-5.384811490651421
% es.tEY (V/m) @ t=0.02
0
% es.tEZ (V/m) @ t=0.02
7.210226542431761
% es.Ex (V/m) @ t=0.02
-5.384811490651415
% es.Ey (V/m) @ t=0.02
-0.5812434545925151
% es.Ez (V/m) @ t=0.02
7.210226542431764
% es.tEx (V/m) @ t=0.02
-5.384811490651421
% es.tEy (V/m) @ t=0.02
0
% es.tEz (V/m) @ t=0.02
7.210226542431761
% V (V) @ t=0.02
0.007959026723419704
% es.normE (V/m) @ t=0.04
9.780322283179919
% es.EX (V/m) @ t=0.04
-5.434342974040088
% es.EY (V/m) @ t=0.04
-0.5865897417774366
% es.EZ (V/m) @ t=0.04
7.276548596912761
% es.tEX (V/m) @ t=0.04
-5.4343429740400975
% es.tEY (V/m) @ t=0.04
0
% es.tEZ (V/m) @ t=0.04
7.27654859691275
% es.Ex (V/m) @ t=0.04
-5.434342974040088
% es.Ey (V/m) @ t=0.04
-0.5865897417774366
% es.Ez (V/m) @ t=0.04
7.276548596912761
% es.tEx (V/m) @ t=0.04
-5.4343429740400975
% es.tEy (V/m) @ t=0.04
0
% es.tEz (V/m) @ t=0.04
7.27654859691275
% V (V) @ t=0.04
0.008032236206530114
% es.normE (V/m) @ t=0.06
9.870188568606498
% es.EX (V/m) @ t=0.06
-5.484276319958302
% es.EY (V/m) @ t=0.06
-0.5919796092813447
% es.EZ (V/m) @ t=0.06
7.343409010604246
% es.tEX (V/m) @ t=0.06
-5.484276319958308
% es.tEY (V/m) @ t=0.06
0
% es.tEZ (V/m) @ t=0.06
7.343409010604237
% es.Ex (V/m) @ t=0.06
-5.484276319958302
% es.Ey (V/m) @ t=0.06
-0.5919796092813447
% es.Ez (V/m) @ t=0.06
7.343409010604246
% es.tEx (V/m) @ t=0.06
-5.484276319958308
% es.tEy (V/m) @ t=0.06
0
% es.tEz (V/m) @ t=0.06
7.343409010604237
% V (V) @ t=0.06
0.008106040240002336
% es.normE (V/m) @ t=0.08
9.961613190739818
% es.EX (V/m) @ t=0.08
-5.535075432161849
% es.EY (V/m) @ t=0.08
-0.5974630547706963
% es.EZ (V/m) @ t=0.08
7.411428845653454
% es.tEX (V/m) @ t=0.08
-5.535075432161863
% es.tEY (V/m) @ t=0.08
0
% es.tEZ (V/m) @ t=0.08
7.411428845653444
% es.Ex (V/m) @ t=0.08
-5.535075432161849
% es.Ey (V/m) @ t=0.08
-0.5974630547706963
% es.Ez (V/m) @ t=0.08
7.411428845653454
% es.tEx (V/m) @ t=0.08
-5.535075432161863
% es.tEy (V/m) @ t=0.08
0
% es.tEz (V/m) @ t=0.08
7.411428845653444
% V (V) @ t=0.08
0.008181124278372004
% es.normE (V/m) @ t=0.1
10.05373370059018
% es.EX (V/m) @ t=0.1
-5.586261159222876
% es.EY (V/m) @ t=0.1
-0.6029882882577078
% es.EZ (V/m) @ t=0.1
7.479966429580805
% es.tEX (V/m) @ t=0.1
-5.586261159222893
% es.tEY (V/m) @ t=0.1
0
% es.tEZ (V/m) @ t=0.1
7.479966429580796
% es.Ex (V/m) @ t=0.1
-5.586261159222876
% es.Ey (V/m) @ t=0.1
-0.6029882882577078
% es.Ez (V/m) @ t=0.1
7.479966429580805
% es.tEx (V/m) @ t=0.1
-5.586261159222893
% es.tEy (V/m) @ t=0.1
0
% es.tEz (V/m) @ t=0.1
7.479966429580796
% V (V) @ t=0.1
0.008256779913163707
% es.normE (V/m) @ t=0.12
10.145854210440561
% es.EX (V/m) @ t=0.12
-5.637446886283934
% es.EY (V/m) @ t=0.12
-0.6085135217447304
% es.EZ (V/m) @ t=0.12
7.548504013508171
% es.tEX (V/m) @ t=0.12
-5.637446886283944
% es.tEY (V/m) @ t=0.12
0
% es.tEZ (V/m) @ t=0.12
7.548504013508159
% es.Ex (V/m) @ t=0.12
-5.637446886283934
% es.Ey (V/m) @ t=0.12
-0.6085135217447304
% es.Ez (V/m) @ t=0.12
7.548504013508171
% es.tEx (V/m) @ t=0.12
-5.637446886283944
% es.tEy (V/m) @ t=0.12
0
% es.tEz (V/m) @ t=0.12
7.548504013508159
% V (V) @ t=0.12
0.008332435547955408
% es.normE (V/m) @ t=0.14
10.239842434317616
% es.EX (V/m) @ t=0.14
-5.689670253040039
% es.EY (V/m) @ t=0.14
-0.6141509191417787
% es.EZ (V/m) @ t=0.14
7.61843120077197
% es.tEX (V/m) @ t=0.14
-5.689670253040042
% es.tEY (V/m) @ t=0.14
0
% es.tEZ (V/m) @ t=0.14
7.618431200771957
% es.Ex (V/m) @ t=0.14
-5.689670253040039
% es.Ey (V/m) @ t=0.14
-0.6141509191417787
% es.Ez (V/m) @ t=0.14
7.61843120077197
% es.tEx (V/m) @ t=0.14
-5.689670253040042
% es.tEy (V/m) @ t=0.14
0
% es.tEz (V/m) @ t=0.14
7.618431200771957
% V (V) @ t=0.14
0.00840962532136267
% es.normE (V/m) @ t=0.16
10.336724393162115
% es.EX (V/m) @ t=0.16
-5.74350128254654
% es.EY (V/m) @ t=0.16
-0.6199620972267861
% es.EZ (V/m) @ t=0.16
7.690511364191724
% es.tEX (V/m) @ t=0.16
-5.74350128254655
% es.tEY (V/m) @ t=0.16
0
% es.tEZ (V/m) @ t=0.16
7.690511364191714
% es.Ex (V/m) @ t=0.16
-5.74350128254654
% es.Ey (V/m) @ t=0.16
-0.6199620972267861
% es.Ez (V/m) @ t=0.16
7.690511364191724
% es.tEx (V/m) @ t=0.16
-5.74350128254655
% es.tEy (V/m) @ t=0.16
0
% es.tEz (V/m) @ t=0.16
7.690511364191714
% V (V) @ t=0.16
0.008489192006059985
% es.normE (V/m) @ t=0.18
10.433606352006716
% es.EX (V/m) @ t=0.18
-5.797332312053054
% es.EY (V/m) @ t=0.18
-0.6257732753118455
% es.EZ (V/m) @ t=0.18
7.7625915276114865
% es.tEX (V/m) @ t=0.18
-5.797332312053071
% es.tEY (V/m) @ t=0.18
0
% es.tEZ (V/m) @ t=0.18
7.762591527611474
% es.Ex (V/m) @ t=0.18
-5.797332312053054
% es.Ey (V/m) @ t=0.18
-0.6257732753118455
% es.Ez (V/m) @ t=0.18
7.7625915276114865
% es.tEx (V/m) @ t=0.18
-5.797332312053071
% es.tEy (V/m) @ t=0.18
0
% es.tEz (V/m) @ t=0.18
7.762591527611474
% V (V) @ t=0.18
0.008568758690757301
% es.normE (V/m) @ t=0.2
10.530488310851368
% es.EX (V/m) @ t=0.2
-5.851163341559575
% es.EY (V/m) @ t=0.2
-0.6315844533968722
% es.EZ (V/m) @ t=0.2
7.834671691031237
% es.tEX (V/m) @ t=0.2
-5.851163341559585
% es.tEY (V/m) @ t=0.2
0
% es.tEZ (V/m) @ t=0.2
7.834671691031222
% es.Ex (V/m) @ t=0.2
-5.851163341559575
% es.Ey (V/m) @ t=0.2
-0.6315844533968722
% es.Ez (V/m) @ t=0.2
7.834671691031237
% es.tEx (V/m) @ t=0.2
-5.851163341559585
% es.tEy (V/m) @ t=0.2
0
% es.tEz (V/m) @ t=0.2
7.834671691031222
% V (V) @ t=0.2
0.008648325375454619
% es.normE (V/m) @ t=0.22
10.627370269696078
% es.EX (V/m) @ t=0.22
-5.904994371066101
% es.EY (V/m) @ t=0.22
-0.637395631481892
% es.EZ (V/m) @ t=0.22
7.906751854450979
% es.tEX (V/m) @ t=0.22
-5.9049943710661
% es.tEY (V/m) @ t=0.22
0
% es.tEZ (V/m) @ t=0.22
7.906751854450961
% es.Ex (V/m) @ t=0.22
-5.904994371066101
% es.Ey (V/m) @ t=0.22
-0.637395631481892
% es.Ez (V/m) @ t=0.22
7.906751854450979
% es.tEx (V/m) @ t=0.22
-5.9049943710661
% es.tEy (V/m) @ t=0.22
0
% es.tEz (V/m) @ t=0.22
7.906751854450961
% V (V) @ t=0.22
0.008727892060151936
% es.normE (V/m) @ t=0.24
10.724252228540825
% es.EX (V/m) @ t=0.24
-5.95882540057262
% es.EY (V/m) @ t=0.24
-0.643206809566923
% es.EZ (V/m) @ t=0.24
7.978832017870701
% es.tEX (V/m) @ t=0.24
-5.958825400572633
% es.tEY (V/m) @ t=0.24
0
% es.tEZ (V/m) @ t=0.24
7.9788320178706895
% es.Ex (V/m) @ t=0.24
-5.95882540057262
% es.Ey (V/m) @ t=0.24
-0.643206809566923
% es.Ez (V/m) @ t=0.24
7.978832017870701
% es.tEx (V/m) @ t=0.24
-5.958825400572633
% es.tEy (V/m) @ t=0.24
0
% es.tEz (V/m) @ t=0.24
7.9788320178706895
% V (V) @ t=0.24
0.008807458744849252
% es.normE (V/m) @ t=0.26
10.82113418738567
% es.EX (V/m) @ t=0.26
-6.012656430079141
% es.EY (V/m) @ t=0.26
-0.6490179876519302
% es.EZ (V/m) @ t=0.26
8.050912181290467
% es.tEX (V/m) @ t=0.26
-6.012656430079147
% es.tEY (V/m) @ t=0.26
0
% es.tEZ (V/m) @ t=0.26
8.05091218129045
% es.Ex (V/m) @ t=0.26
-6.012656430079141
% es.Ey (V/m) @ t=0.26
-0.6490179876519302
% es.Ez (V/m) @ t=0.26
8.050912181290467
% es.tEx (V/m) @ t=0.26
-6.012656430079147
% es.tEy (V/m) @ t=0.26
0
% es.tEz (V/m) @ t=0.26
8.05091218129045
% V (V) @ t=0.26
0.00888702542954657
% es.normE (V/m) @ t=0.28
10.926538966139468
% es.EX (V/m) @ t=0.28
-6.071197567092926
% es.EY (V/m) @ t=0.28
-0.6553671628141096
% es.EZ (V/m) @ t=0.28
8.12933817071736
% es.tEX (V/m) @ t=0.28
-6.071197567092928
% es.tEY (V/m) @ t=0.28
0
% es.tEZ (V/m) @ t=0.28
8.129338170717354
% es.Ex (V/m) @ t=0.28
-6.071197567092926
% es.Ey (V/m) @ t=0.28
-0.6553671628141096
% es.Ez (V/m) @ t=0.28
8.12933817071736
% es.tEx (V/m) @ t=0.28
-6.071197567092928
% es.tEy (V/m) @ t=0.28
0
% es.tEz (V/m) @ t=0.28
8.129338170717354
% V (V) @ t=0.28
0.008973637980651246
% es.normE (V/m) @ t=0.3
11.034152520722827
% es.EX (V/m) @ t=0.3
-6.130959376439412
% es.EY (V/m) @ t=0.3
-0.6618557653982897
% es.EZ (V/m) @ t=0.3
8.209408745585907
% es.tEX (V/m) @ t=0.3
-6.130959376439429
% es.tEY (V/m) @ t=0.3
0
% es.tEZ (V/m) @ t=0.3
8.2094087455859
% es.Ex (V/m) @ t=0.3
-6.130959376439412
% es.Ey (V/m) @ t=0.3
-0.6618557653982897
% es.Ez (V/m) @ t=0.3
8.209408745585907
% es.tEx (V/m) @ t=0.3
-6.130959376439429
% es.tEy (V/m) @ t=0.3
0
% es.tEz (V/m) @ t=0.3
8.2094087455859
% V (V) @ t=0.3
0.009062076539797166
% es.normE (V/m) @ t=0.32
11.141766075572711
% es.EX (V/m) @ t=0.32
-6.190721185785898
% es.EY (V/m) @ t=0.32
-0.6683443679824816
% es.EZ (V/m) @ t=0.32
8.289479320454458
% es.tEX (V/m) @ t=0.32
-6.190721185785897
% es.tEY (V/m) @ t=0.32
0
% es.tEZ (V/m) @ t=0.32
8.289479320454447
% es.Ex (V/m) @ t=0.32
-6.190721185785898
% es.Ey (V/m) @ t=0.32
-0.6683443679824816
% es.Ez (V/m) @ t=0.32
8.289479320454458
% es.tEx (V/m) @ t=0.32
-6.190721185785897
% es.tEy (V/m) @ t=0.32
0
% es.tEz (V/m) @ t=0.32
8.289479320454447
% V (V) @ t=0.32
0.009150515098943086
% es.normE (V/m) @ t=0.34
11.249379630681439
% es.EX (V/m) @ t=0.34
-6.250482995132386
% es.EY (V/m) @ t=0.34
-0.674832970566662
% es.EZ (V/m) @ t=0.34
8.369549895322974
% es.tEX (V/m) @ t=0.34
-6.250482995132392
% es.tEY (V/m) @ t=0.34
0
% es.tEZ (V/m) @ t=0.34
8.369549895322962
% es.Ex (V/m) @ t=0.34
-6.250482995132386
% es.Ey (V/m) @ t=0.34
-0.674832970566662
% es.Ez (V/m) @ t=0.34
8.369549895322974
% es.tEx (V/m) @ t=0.34
-6.250482995132392
% es.tEy (V/m) @ t=0.34
0
% es.tEz (V/m) @ t=0.34
8.369549895322962
% V (V) @ t=0.34
0.009238953658089005
% es.normE (V/m) @ t=0.36
11.356993186041702
% es.EX (V/m) @ t=0.36
-6.310244804478869
% es.EY (V/m) @ t=0.36
-0.6813215731508446
% es.EZ (V/m) @ t=0.36
8.449620470191533
% es.tEX (V/m) @ t=0.36
-6.310244804478878
% es.tEY (V/m) @ t=0.36
0
% es.tEZ (V/m) @ t=0.36
8.449620470191523
% es.Ex (V/m) @ t=0.36
-6.310244804478869
% es.Ey (V/m) @ t=0.36
-0.6813215731508446
% es.Ez (V/m) @ t=0.36
8.449620470191533
% es.tEx (V/m) @ t=0.36
-6.310244804478878
% es.tEy (V/m) @ t=0.36
0
% es.tEz (V/m) @ t=0.36
8.449620470191523
% V (V) @ t=0.36
0.009327392217234923
% es.normE (V/m) @ t=0.38
11.464606741646373
% es.EX (V/m) @ t=0.38
-6.370006613825343
% es.EY (V/m) @ t=0.38
-0.6878101757350361
% es.EZ (V/m) @ t=0.38
8.529691045060094
% es.tEX (V/m) @ t=0.38
-6.370006613825356
% es.tEY (V/m) @ t=0.38
0
% es.tEZ (V/m) @ t=0.38
8.52969104506008
% es.Ex (V/m) @ t=0.38
-6.370006613825343
% es.Ey (V/m) @ t=0.38
-0.6878101757350361
% es.Ez (V/m) @ t=0.38
8.529691045060094
% es.tEx (V/m) @ t=0.38
-6.370006613825356
% es.tEy (V/m) @ t=0.38
0
% es.tEz (V/m) @ t=0.38
8.52969104506008
% V (V) @ t=0.38
0.009415830776380843
% es.normE (V/m) @ t=0.4
11.572220297488641
% es.EX (V/m) @ t=0.4
-6.429768423171812
% es.EY (V/m) @ t=0.4
-0.6942987783192307
% es.EZ (V/m) @ t=0.4
8.60976161992862
% es.tEX (V/m) @ t=0.4
-6.429768423171833
% es.tEY (V/m) @ t=0.4
0
% es.tEZ (V/m) @ t=0.4
8.609761619928612
% es.Ex (V/m) @ t=0.4
-6.429768423171812
% es.Ey (V/m) @ t=0.4
-0.6942987783192307
% es.Ez (V/m) @ t=0.4
8.60976161992862
% es.tEx (V/m) @ t=0.4
-6.429768423171833
% es.tEy (V/m) @ t=0.4
0
% es.tEz (V/m) @ t=0.4
8.609761619928612
% V (V) @ t=0.4
0.009504269335526765
% es.normE (V/m) @ t=0.42
11.67983385356197
% es.EX (V/m) @ t=0.42
-6.489530232518329
% es.EY (V/m) @ t=0.42
-0.700787380903412
% es.EZ (V/m) @ t=0.42
8.689832194797171
% es.tEX (V/m) @ t=0.42
-6.4895302325183355
% es.tEY (V/m) @ t=0.42
0
% es.tEZ (V/m) @ t=0.42
8.689832194797159
% es.Ex (V/m) @ t=0.42
-6.489530232518329
% es.Ey (V/m) @ t=0.42
-0.700787380903412
% es.Ez (V/m) @ t=0.42
8.689832194797171
% es.tEx (V/m) @ t=0.42
-6.4895302325183355
% es.tEy (V/m) @ t=0.42
0
% es.tEz (V/m) @ t=0.42
8.689832194797159
% V (V) @ t=0.42
0.009592707894672684
% es.normE (V/m) @ t=0.44
11.787447409859993
% es.EX (V/m) @ t=0.44
-6.549292041864801
% es.EY (V/m) @ t=0.44
-0.7072759834875944
% es.EZ (V/m) @ t=0.44
8.769902769665725
% es.tEX (V/m) @ t=0.44
-6.549292041864818
% es.tEY (V/m) @ t=0.44
0
% es.tEZ (V/m) @ t=0.44
8.769902769665714
% es.Ex (V/m) @ t=0.44
-6.549292041864801
% es.Ey (V/m) @ t=0.44
-0.7072759834875944
% es.Ez (V/m) @ t=0.44
8.769902769665725
% es.tEx (V/m) @ t=0.44
-6.549292041864818
% es.tEy (V/m) @ t=0.44
0
% es.tEz (V/m) @ t=0.44
8.769902769665714
% V (V) @ t=0.44
0.009681146453818606
% es.normE (V/m) @ t=0.46
11.895060966376613
% es.EX (V/m) @ t=0.46
-6.609053851211282
% es.EY (V/m) @ t=0.46
-0.7137645860717821
% es.EZ (V/m) @ t=0.46
8.849973344534266
% es.tEX (V/m) @ t=0.46
-6.609053851211299
% es.tEY (V/m) @ t=0.46
0
% es.tEZ (V/m) @ t=0.46
8.849973344534263
% es.Ex (V/m) @ t=0.46
-6.609053851211282
% es.Ey (V/m) @ t=0.46
-0.7137645860717821
% es.Ez (V/m) @ t=0.46
8.849973344534266
% es.tEx (V/m) @ t=0.46
-6.609053851211299
% es.tEy (V/m) @ t=0.46
0
% es.tEz (V/m) @ t=0.46
8.849973344534263
% V (V) @ t=0.46
0.009769585012964523
% es.normE (V/m) @ t=0.48
12.002674523105988
% es.EX (V/m) @ t=0.48
-6.6688156605577875
% es.EY (V/m) @ t=0.48
-0.7202531886559593
% es.EZ (V/m) @ t=0.48
8.930043919402816
% es.tEX (V/m) @ t=0.48
-6.668815660557793
% es.tEY (V/m) @ t=0.48
0
% es.tEZ (V/m) @ t=0.48
8.93004391940281
% es.Ex (V/m) @ t=0.48
-6.6688156605577875
% es.Ey (V/m) @ t=0.48
-0.7202531886559593
% es.Ez (V/m) @ t=0.48
8.930043919402816
% es.tEx (V/m) @ t=0.48
-6.668815660557793
% es.tEy (V/m) @ t=0.48
0
% es.tEz (V/m) @ t=0.48
8.93004391940281
% V (V) @ t=0.48
0.009858023572110445
% es.normE (V/m) @ t=0.5
12.110288080042373
% es.EX (V/m) @ t=0.5
-6.728577469904251
% es.EY (V/m) @ t=0.5
-0.7267417912401344
% es.EZ (V/m) @ t=0.5
9.010114494271354
% es.tEX (V/m) @ t=0.5
-6.7285774699042635
% es.tEY (V/m) @ t=0.5
0
% es.tEZ (V/m) @ t=0.5
9.01011449427134
% es.Ex (V/m) @ t=0.5
-6.728577469904251
% es.Ey (V/m) @ t=0.5
-0.7267417912401344
% es.Ez (V/m) @ t=0.5
9.010114494271354
% es.tEx (V/m) @ t=0.5
-6.7285774699042635
% es.tEy (V/m) @ t=0.5
0
% es.tEz (V/m) @ t=0.5
9.01011449427134
% V (V) @ t=0.5
0.009946462131256363
% es.normE (V/m) @ t=0.52
12.217901637180393
% es.EX (V/m) @ t=0.52
-6.788339279250748
% es.EY (V/m) @ t=0.52
-0.7332303938243352
% es.EZ (V/m) @ t=0.52
9.09018506913991
% es.tEX (V/m) @ t=0.52
-6.788339279250751
% es.tEY (V/m) @ t=0.52
0
% es.tEZ (V/m) @ t=0.52
9.090185069139888
% es.Ex (V/m) @ t=0.52
-6.788339279250748
% es.Ey (V/m) @ t=0.52
-0.7332303938243352
% es.Ez (V/m) @ t=0.52
9.09018506913991
% es.tEx (V/m) @ t=0.52
-6.788339279250751
% es.tEy (V/m) @ t=0.52
0
% es.tEz (V/m) @ t=0.52
9.090185069139888
% V (V) @ t=0.52
0.010034900690402283
% es.normE (V/m) @ t=0.54
12.332636558335253
% es.EX (V/m) @ t=0.54
-6.852099600672932
% es.EY (V/m) @ t=0.54
-0.7401023812547634
% es.EZ (V/m) @ t=0.54
9.175546015421055
% es.tEX (V/m) @ t=0.54
-6.852099600672948
% es.tEY (V/m) @ t=0.54
0
% es.tEZ (V/m) @ t=0.54
9.175546015421045
% es.Ex (V/m) @ t=0.54
-6.852099600672932
% es.Ey (V/m) @ t=0.54
-0.7401023812547634
% es.Ez (V/m) @ t=0.54
9.175546015421055
% es.tEx (V/m) @ t=0.54
-6.852099600672948
% es.tEy (V/m) @ t=0.54
0
% es.tEz (V/m) @ t=0.54
9.175546015421045
% V (V) @ t=0.54
0.010129112191120795
% es.normE (V/m) @ t=0.56
12.452158245106414
% es.EX (V/m) @ t=0.56
-6.918547600917419
% es.EY (V/m) @ t=0.56
-0.747232068377633
% es.EZ (V/m) @ t=0.56
9.264462989279123
% es.tEX (V/m) @ t=0.56
-6.918547600917428
% es.tEY (V/m) @ t=0.56
0
% es.tEZ (V/m) @ t=0.56
9.264462989279107
% es.Ex (V/m) @ t=0.56
-6.918547600917419
% es.Ey (V/m) @ t=0.56
-0.747232068377633
% es.Ez (V/m) @ t=0.56
9.264462989279123
% es.tEx (V/m) @ t=0.56
-6.918547600917428
% es.tEy (V/m) @ t=0.56
0
% es.tEz (V/m) @ t=0.56
9.264462989279107
% V (V) @ t=0.56
0.010227204088475174
% es.normE (V/m) @ t=0.58
12.571679932255442
% es.EX (V/m) @ t=0.58
-6.984995601161904
% es.EY (V/m) @ t=0.58
-0.7543617555004776
% es.EZ (V/m) @ t=0.58
9.353379963137174
% es.tEX (V/m) @ t=0.58
-6.984995601161927
% es.tEY (V/m) @ t=0.58
0
% es.tEZ (V/m) @ t=0.58
9.35337996313715
% es.Ex (V/m) @ t=0.58
-6.984995601161904
% es.Ey (V/m) @ t=0.58
-0.7543617555004776
% es.Ez (V/m) @ t=0.58
9.353379963137174
% es.tEx (V/m) @ t=0.58
-6.984995601161927
% es.tEy (V/m) @ t=0.58
0
% es.tEz (V/m) @ t=0.58
9.35337996313715
% V (V) @ t=0.58
0.010325295985829552
% es.normE (V/m) @ t=0.6
12.691201619771707
% es.EX (V/m) @ t=0.6
-7.051443601406419
% es.EY (V/m) @ t=0.6
-0.7614914426233441
% es.EZ (V/m) @ t=0.6
9.44229693699521
% es.tEX (V/m) @ t=0.6
-7.051443601406419
% es.tEY (V/m) @ t=0.6
0
% es.tEZ (V/m) @ t=0.6
9.442296936995197
% es.Ex (V/m) @ t=0.6
-7.051443601406419
% es.Ey (V/m) @ t=0.6
-0.7614914426233441
% es.Ez (V/m) @ t=0.6
9.44229693699521
% es.tEx (V/m) @ t=0.6
-7.051443601406419
% es.tEy (V/m) @ t=0.6
0
% es.tEz (V/m) @ t=0.6
9.442296936995197
% V (V) @ t=0.6
0.010423387883183931
% es.normE (V/m) @ t=0.62
12.810723307644913
% es.EX (V/m) @ t=0.62
-7.117891601650912
% es.EY (V/m) @ t=0.62
-0.7686211297461927
% es.EZ (V/m) @ t=0.62
9.531213910853268
% es.tEX (V/m) @ t=0.62
-7.117891601650911
% es.tEY (V/m) @ t=0.62
0
% es.tEZ (V/m) @ t=0.62
9.53121391085326
% es.Ex (V/m) @ t=0.62
-7.117891601650912
% es.Ey (V/m) @ t=0.62
-0.7686211297461927
% es.Ez (V/m) @ t=0.62
9.531213910853268
% es.tEx (V/m) @ t=0.62
-7.117891601650911
% es.tEy (V/m) @ t=0.62
0
% es.tEz (V/m) @ t=0.62
9.53121391085326
% V (V) @ t=0.62
0.010521479780538313
% es.normE (V/m) @ t=0.64
12.930244995865161
% es.EX (V/m) @ t=0.64
-7.184339601895397
% es.EY (V/m) @ t=0.64
-0.7757508168690532
% es.EZ (V/m) @ t=0.64
9.620130884711319
% es.tEX (V/m) @ t=0.64
-7.1843396018954095
% es.tEY (V/m) @ t=0.64
0
% es.tEZ (V/m) @ t=0.64
9.620130884711312
% es.Ex (V/m) @ t=0.64
-7.184339601895397
% es.Ey (V/m) @ t=0.64
-0.7757508168690532
% es.Ez (V/m) @ t=0.64
9.620130884711319
% es.tEx (V/m) @ t=0.64
-7.1843396018954095
% es.tEy (V/m) @ t=0.64
0
% es.tEz (V/m) @ t=0.64
9.620130884711312
% V (V) @ t=0.64
0.010619571677892693
% es.normE (V/m) @ t=0.66
13.049766684422927
% es.EX (V/m) @ t=0.66
-7.250787602139873
% es.EY (V/m) @ t=0.66
-0.782880503991918
% es.EZ (V/m) @ t=0.66
9.709047858569381
% es.tEX (V/m) @ t=0.66
-7.250787602139894
% es.tEY (V/m) @ t=0.66
0
% es.tEZ (V/m) @ t=0.66
9.70904785856937
% es.Ex (V/m) @ t=0.66
-7.250787602139873
% es.Ey (V/m) @ t=0.66
-0.782880503991918
% es.Ez (V/m) @ t=0.66
9.709047858569381
% es.tEx (V/m) @ t=0.66
-7.250787602139894
% es.tEy (V/m) @ t=0.66
0
% es.tEz (V/m) @ t=0.66
9.70904785856937
% V (V) @ t=0.66
0.010717663575247071
% es.normE (V/m) @ t=0.68
13.16928837330901
% es.EX (V/m) @ t=0.68
-7.317235602384379
% es.EY (V/m) @ t=0.68
-0.7900101911147419
% es.EZ (V/m) @ t=0.68
9.797964832427425
% es.tEX (V/m) @ t=0.68
-7.317235602384384
% es.tEY (V/m) @ t=0.68
0
% es.tEZ (V/m) @ t=0.68
9.797964832427414
% es.Ex (V/m) @ t=0.68
-7.317235602384379
% es.Ey (V/m) @ t=0.68
-0.7900101911147419
% es.Ez (V/m) @ t=0.68
9.797964832427425
% es.tEx (V/m) @ t=0.68
-7.317235602384384
% es.tEy (V/m) @ t=0.68
0
% es.tEz (V/m) @ t=0.68
9.797964832427414
% V (V) @ t=0.68
0.010815755472601454
% es.normE (V/m) @ t=0.7
13.288810062514564
% es.EX (V/m) @ t=0.7
-7.383683602628871
% es.EY (V/m) @ t=0.7
-0.7971398782376298
% es.EZ (V/m) @ t=0.7
9.886881806285462
% es.tEX (V/m) @ t=0.7
-7.383683602628883
% es.tEY (V/m) @ t=0.7
0
% es.tEZ (V/m) @ t=0.7
9.88688180628546
% es.Ex (V/m) @ t=0.7
-7.383683602628871
% es.Ey (V/m) @ t=0.7
-0.7971398782376298
% es.Ez (V/m) @ t=0.7
9.886881806285462
% es.tEx (V/m) @ t=0.7
-7.383683602628883
% es.tEy (V/m) @ t=0.7
0
% es.tEz (V/m) @ t=0.7
9.88688180628546
% V (V) @ t=0.7
0.01091384736995583
% es.normE (V/m) @ t=0.72
13.408331752031046
% es.EX (V/m) @ t=0.72
-7.450131602873368
% es.EY (V/m) @ t=0.72
-0.8042695653604675
% es.EZ (V/m) @ t=0.72
9.975798780143522
% es.tEX (V/m) @ t=0.72
-7.450131602873389
% es.tEY (V/m) @ t=0.72
0
% es.tEZ (V/m) @ t=0.72
9.975798780143501
% es.Ex (V/m) @ t=0.72
-7.450131602873368
% es.Ey (V/m) @ t=0.72
-0.8042695653604675
% es.Ez (V/m) @ t=0.72
9.975798780143522
% es.tEx (V/m) @ t=0.72
-7.450131602873389
% es.tEy (V/m) @ t=0.72
0
% es.tEz (V/m) @ t=0.72
9.975798780143501
% V (V) @ t=0.72
0.011011939267310212
% es.normE (V/m) @ t=0.74
13.527853441850201
% es.EX (V/m) @ t=0.74
-7.516579603117831
% es.EY (V/m) @ t=0.74
-0.8113992524833371
% es.EZ (V/m) @ t=0.74
10.064715754001572
% es.tEX (V/m) @ t=0.74
-7.516579603117851
% es.tEY (V/m) @ t=0.74
0
% es.tEZ (V/m) @ t=0.74
10.064715754001558
% es.Ex (V/m) @ t=0.74
-7.516579603117831
% es.Ey (V/m) @ t=0.74
-0.8113992524833371
% es.Ez (V/m) @ t=0.74
10.064715754001572
% es.tEx (V/m) @ t=0.74
-7.516579603117851
% es.tEy (V/m) @ t=0.74
0
% es.tEz (V/m) @ t=0.74
10.064715754001558
% V (V) @ t=0.74
0.011110031164664587
% es.normE (V/m) @ t=0.76
13.647375131964102
% es.EX (V/m) @ t=0.76
-7.583027603362332
% es.EY (V/m) @ t=0.76
-0.8185289396061894
% es.EZ (V/m) @ t=0.76
10.153632727859641
% es.tEX (V/m) @ t=0.76
-7.5830276033623445
% es.tEY (V/m) @ t=0.76
0
% es.tEZ (V/m) @ t=0.76
10.153632727859623
% es.Ex (V/m) @ t=0.76
-7.583027603362332
% es.Ey (V/m) @ t=0.76
-0.8185289396061894
% es.Ez (V/m) @ t=0.76
10.153632727859641
% es.tEx (V/m) @ t=0.76
-7.5830276033623445
% es.tEy (V/m) @ t=0.76
0
% es.tEz (V/m) @ t=0.76
10.153632727859623
% V (V) @ t=0.76
0.011208123062018968
% es.normE (V/m) @ t=0.78
13.766896822365066
% es.EX (V/m) @ t=0.78
-7.649475603606838
% es.EY (V/m) @ t=0.78
-0.8256586267290449
% es.EZ (V/m) @ t=0.78
10.242549701717692
% es.tEX (V/m) @ t=0.78
-7.6494756036068505
% es.tEY (V/m) @ t=0.78
0
% es.tEZ (V/m) @ t=0.78
10.242549701717676
% es.Ex (V/m) @ t=0.78
-7.649475603606838
% es.Ey (V/m) @ t=0.78
-0.8256586267290449
% es.Ez (V/m) @ t=0.78
10.242549701717692
% es.tEx (V/m) @ t=0.78
-7.6494756036068505
% es.tEy (V/m) @ t=0.78
0
% es.tEz (V/m) @ t=0.78
10.242549701717676
% V (V) @ t=0.78
0.01130621495937335
% es.normE (V/m) @ t=0.8
13.891923302448834
% es.EX (V/m) @ t=0.8
-7.718965999468246
% es.EY (V/m) @ t=0.8
-0.8331355977645805
% es.EZ (V/m) @ t=0.8
10.335565333718147
% es.tEX (V/m) @ t=0.8
-7.718965999468251
% es.tEY (V/m) @ t=0.8
0
% es.tEZ (V/m) @ t=0.8
10.335565333718138
% es.Ex (V/m) @ t=0.8
-7.718965999468246
% es.Ey (V/m) @ t=0.8
-0.8331355977645805
% es.Ez (V/m) @ t=0.8
10.335565333718147
% es.tEx (V/m) @ t=0.8
-7.718965999468251
% es.tEy (V/m) @ t=0.8
0
% es.tEz (V/m) @ t=0.8
10.335565333718138
% V (V) @ t=0.8
0.011408857349986715
% es.normE (V/m) @ t=0.82
14.025142905140855
% es.EX (V/m) @ t=0.82
-7.79298458310001
% es.EY (V/m) @ t=0.82
-0.8411294531781239
% es.EZ (V/m) @ t=0.82
10.434681255099823
% es.tEX (V/m) @ t=0.82
-7.792984583100022
% es.tEY (V/m) @ t=0.82
0
% es.tEZ (V/m) @ t=0.82
10.434681255099814
% es.Ex (V/m) @ t=0.82
-7.79298458310001
% es.Ey (V/m) @ t=0.82
-0.8411294531781239
% es.Ez (V/m) @ t=0.82
10.434681255099823
% es.tEx (V/m) @ t=0.82
-7.792984583100022
% es.tEy (V/m) @ t=0.82
0
% es.tEz (V/m) @ t=0.82
10.434681255099814
% V (V) @ t=0.82
0.011518272524458261
% es.normE (V/m) @ t=0.84
14.158362507836248
% es.EX (V/m) @ t=0.84
-7.867003166731767
% es.EY (V/m) @ t=0.84
-0.8491233085916643
% es.EZ (V/m) @ t=0.84
10.533797176481496
% es.tEX (V/m) @ t=0.84
-7.867003166731772
% es.tEY (V/m) @ t=0.84
0
% es.tEZ (V/m) @ t=0.84
10.533797176481484
% es.Ex (V/m) @ t=0.84
-7.867003166731767
% es.Ey (V/m) @ t=0.84
-0.8491233085916643
% es.Ez (V/m) @ t=0.84
10.533797176481496
% es.tEx (V/m) @ t=0.84
-7.867003166731772
% es.tEy (V/m) @ t=0.84
0
% es.tEz (V/m) @ t=0.84
10.533797176481484
% V (V) @ t=0.84
0.011627687698929806
% es.normE (V/m) @ t=0.86
14.291582110534963
% es.EX (V/m) @ t=0.86
-7.941021750363536
% es.EY (V/m) @ t=0.86
-0.8571171640052184
% es.EZ (V/m) @ t=0.86
10.632913097863192
% es.tEX (V/m) @ t=0.86
-7.941021750363541
% es.tEY (V/m) @ t=0.86
0
% es.tEZ (V/m) @ t=0.86
10.632913097863174
% es.Ex (V/m) @ t=0.86
-7.941021750363536
% es.Ey (V/m) @ t=0.86
-0.8571171640052184
% es.Ez (V/m) @ t=0.86
10.632913097863192
% es.tEx (V/m) @ t=0.86
-7.941021750363541
% es.tEy (V/m) @ t=0.86
0
% es.tEz (V/m) @ t=0.86
10.632913097863174
% V (V) @ t=0.86
0.01173710287340135
% es.normE (V/m) @ t=0.88
14.424801713236846
% es.EX (V/m) @ t=0.88
-8.015040333995286
% es.EY (V/m) @ t=0.88
-0.8651110194187512
% es.EZ (V/m) @ t=0.88
10.732029019244862
% es.tEX (V/m) @ t=0.88
-8.015040333995305
% es.tEY (V/m) @ t=0.88
0
% es.tEZ (V/m) @ t=0.88
10.732029019244848
% es.Ex (V/m) @ t=0.88
-8.015040333995286
% es.Ey (V/m) @ t=0.88
-0.8651110194187512
% es.Ez (V/m) @ t=0.88
10.732029019244862
% es.tEx (V/m) @ t=0.88
-8.015040333995305
% es.tEy (V/m) @ t=0.88
0
% es.tEz (V/m) @ t=0.88
10.732029019244848
% V (V) @ t=0.88
0.011846518047872897
% es.normE (V/m) @ t=0.9
14.558021315941861
% es.EX (V/m) @ t=0.9
-8.08905891762706
% es.EY (V/m) @ t=0.9
-0.8731048748323267
% es.EZ (V/m) @ t=0.9
10.831144940626537
% es.tEX (V/m) @ t=0.9
-8.089058917627074
% es.tEY (V/m) @ t=0.9
0
% es.tEZ (V/m) @ t=0.9
10.831144940626526
% es.Ex (V/m) @ t=0.9
-8.08905891762706
% es.Ey (V/m) @ t=0.9
-0.8731048748323267
% es.Ez (V/m) @ t=0.9
10.831144940626537
% es.tEx (V/m) @ t=0.9
-8.089058917627074
% es.tEy (V/m) @ t=0.9
0
% es.tEz (V/m) @ t=0.9
10.831144940626526
% V (V) @ t=0.9
0.01195593322234444
% es.normE (V/m) @ t=0.92
14.691240918649912
% es.EX (V/m) @ t=0.92
-8.163077501258824
% es.EY (V/m) @ t=0.92
-0.8810987302458311
% es.EZ (V/m) @ t=0.92
10.930260862008236
% es.tEX (V/m) @ t=0.92
-8.16307750125883
% es.tEY (V/m) @ t=0.92
0
% es.tEZ (V/m) @ t=0.92
10.93026086200822
% es.Ex (V/m) @ t=0.92
-8.163077501258824
% es.Ey (V/m) @ t=0.92
-0.8810987302458311
% es.Ez (V/m) @ t=0.92
10.930260862008236
% es.tEx (V/m) @ t=0.92
-8.16307750125883
% es.tEy (V/m) @ t=0.92
0
% es.tEz (V/m) @ t=0.92
10.93026086200822
% V (V) @ t=0.92
0.012065348396815985
% es.normE (V/m) @ t=0.94
14.824460521360944
% es.EX (V/m) @ t=0.94
-8.237096084890581
% es.EY (V/m) @ t=0.94
-0.8890925856593999
% es.EZ (V/m) @ t=0.94
11.029376783389946
% es.tEX (V/m) @ t=0.94
-8.237096084890593
% es.tEY (V/m) @ t=0.94
0
% es.tEZ (V/m) @ t=0.94
11.029376783389935
% es.Ex (V/m) @ t=0.94
-8.237096084890581
% es.Ey (V/m) @ t=0.94
-0.8890925856593999
% es.Ez (V/m) @ t=0.94
11.029376783389946
% es.tEx (V/m) @ t=0.94
-8.237096084890593
% es.tEy (V/m) @ t=0.94
0
% es.tEz (V/m) @ t=0.94
11.029376783389935
% V (V) @ t=0.94
0.01217476357128753
% es.normE (V/m) @ t=0.96
14.957680124074798
% es.EX (V/m) @ t=0.96
-8.311114668522364
% es.EY (V/m) @ t=0.96
-0.8970864410729327
% es.EZ (V/m) @ t=0.96
11.128492704771617
% es.tEX (V/m) @ t=0.96
-8.311114668522379
% es.tEY (V/m) @ t=0.96
0
% es.tEZ (V/m) @ t=0.96
11.128492704771602
% es.Ex (V/m) @ t=0.96
-8.311114668522364
% es.Ey (V/m) @ t=0.96
-0.8970864410729327
% es.Ez (V/m) @ t=0.96
11.128492704771617
% es.tEx (V/m) @ t=0.96
-8.311114668522379
% es.tEy (V/m) @ t=0.96
0
% es.tEz (V/m) @ t=0.96
11.128492704771602
% V (V) @ t=0.96
0.012284178745759074
% es.normE (V/m) @ t=0.98
15.090899726791449
% es.EX (V/m) @ t=0.98
-8.385133252154114
% es.EY (V/m) @ t=0.98
-0.9050802964864655
% es.EZ (V/m) @ t=0.98
11.227608626153296
% es.tEX (V/m) @ t=0.98
-8.38513325215412
% es.tEY (V/m) @ t=0.98
0
% es.tEZ (V/m) @ t=0.98
11.227608626153286
% es.Ex (V/m) @ t=0.98
-8.385133252154114
% es.Ey (V/m) @ t=0.98
-0.9050802964864655
% es.Ez (V/m) @ t=0.98
11.227608626153296
% es.tEx (V/m) @ t=0.98
-8.38513325215412
% es.tEy (V/m) @ t=0.98
0
% es.tEz (V/m) @ t=0.98
11.227608626153286
% V (V) @ t=0.98
0.012393593920230619
% es.normE (V/m) @ t=1
15.224119329510836
% es.EX (V/m) @ t=1
-8.459151835785885
% es.EY (V/m) @ t=1
-0.9130741519000374
% es.EZ (V/m) @ t=1
11.326724547535003
% es.tEX (V/m) @ t=1
-8.459151835785905
% es.tEY (V/m) @ t=1
0
% es.tEZ (V/m) @ t=1
11.32672454753499
% es.Ex (V/m) @ t=1
-8.459151835785885
% es.Ey (V/m) @ t=1
-0.9130741519000374
% es.Ez (V/m) @ t=1
11.326724547535003
% es.tEx (V/m) @ t=1
-8.459151835785905
% es.tEy (V/m) @ t=1
0
% es.tEz (V/m) @ t=1
11.32672454753499
% V (V) @ t=1
0.012503009094702163
% es.normE (V/m) @ t=1.02
15.357338932232869
% es.EX (V/m) @ t=1.02
-8.533170419417633
% es.EY (V/m) @ t=1.02
-0.9210680073136022
% es.EZ (V/m) @ t=1.02
11.425840468916679
% es.tEX (V/m) @ t=1.02
-8.533170419417653
% es.tEY (V/m) @ t=1.02
0
% es.tEZ (V/m) @ t=1.02
11.425840468916661
% es.Ex (V/m) @ t=1.02
-8.533170419417633
% es.Ey (V/m) @ t=1.02
-0.9210680073136022
% es.Ez (V/m) @ t=1.02
11.425840468916679
% es.tEx (V/m) @ t=1.02
-8.533170419417653
% es.tEy (V/m) @ t=1.02
0
% es.tEz (V/m) @ t=1.02
11.425840468916661
% V (V) @ t=1.02
0.01261242426917371
% es.normE (V/m) @ t=1.04
15.490558534957476
% es.EX (V/m) @ t=1.04
-8.607189003049426
% es.EY (V/m) @ t=1.04
-0.929061862727103
% es.EZ (V/m) @ t=1.04
11.524956390298378
% es.tEX (V/m) @ t=1.04
-8.607189003049452
% es.tEY (V/m) @ t=1.04
0
% es.tEZ (V/m) @ t=1.04
11.524956390298362
% es.Ex (V/m) @ t=1.04
-8.607189003049426
% es.Ey (V/m) @ t=1.04
-0.929061862727103
% es.Ez (V/m) @ t=1.04
11.524956390298378
% es.tEx (V/m) @ t=1.04
-8.607189003049452
% es.tEy (V/m) @ t=1.04
0
% es.tEz (V/m) @ t=1.04
11.524956390298362