% Model:              1 neuron.mph
% Version:            COMSOL 6.1.0.252
% Date:               Mar 18 2023, 13:12
% Dimension:          0
% Nodes:              14017
% Expressions:        14017
% Description:        Electric field norm, Electric field, X component, Electric field, Y component, Electric field, Z component, Tangential electric field, X component, Tangential electric field, Y component, Tangential electric field, Z component, Electric field, x component, Electric field, y component, Electric field, z component, Tangential electric field, x component, Tangential electric field, y component, Tangential electric field, z component, Electric potential
% Length unit:        mm
% x
1
% y
12.2
% z
1.33
% es.normE (V/m) @ t=0
2.2115846760138833
% es.EX (V/m) @ t=0
2.043794286504877
% es.EY (V/m) @ t=0
0.12868985163333024
% es.EZ (V/m) @ t=0
0.8262280735631065
% es.tEX (V/m) @ t=0
2.043794286504884
% es.tEY (V/m) @ t=0
0
% es.tEZ (V/m) @ t=0
0.8262280735631129
% es.Ex (V/m) @ t=0
2.043794286504877
% es.Ey (V/m) @ t=0
0.12868985163333024
% es.Ez (V/m) @ t=0
0.8262280735631065
% es.tEx (V/m) @ t=0
2.043794286504884
% es.tEy (V/m) @ t=0
0
% es.tEz (V/m) @ t=0
0.8262280735631129
% V (V) @ t=0
0.011031746347411104
% es.normE (V/m) @ t=0.02
1.9101616345890797
% es.EX (V/m) @ t=0.02
1.7652398650591392
% es.EY (V/m) @ t=0.02
0.11115035300108522
% es.EZ (V/m) @ t=0.02
0.713619145900285
% es.tEX (V/m) @ t=0.02
1.7652398650591437
% es.tEY (V/m) @ t=0.02
0
% es.tEZ (V/m) @ t=0.02
0.7136191459002834
% es.Ex (V/m) @ t=0.02
1.7652398650591392
% es.Ey (V/m) @ t=0.02
0.11115035300108522
% es.Ez (V/m) @ t=0.02
0.713619145900285
% es.tEx (V/m) @ t=0.02
1.7652398650591437
% es.tEy (V/m) @ t=0.02
0
% es.tEz (V/m) @ t=0.02
0.7136191459002834
% V (V) @ t=0.02
0.009528198878656389
% es.normE (V/m) @ t=0.04
1.9277263798750308
% es.EX (V/m) @ t=0.04
1.7814719927404248
% es.EY (V/m) @ t=0.04
0.11217243077493178
% es.EZ (V/m) @ t=0.04
0.7201811772994324
% es.tEX (V/m) @ t=0.04
1.7814719927404212
% es.tEY (V/m) @ t=0.04
0
% es.tEZ (V/m) @ t=0.04
0.7201811772994278
% es.Ex (V/m) @ t=0.04
1.7814719927404248
% es.Ey (V/m) @ t=0.04
0.11217243077493178
% es.Ez (V/m) @ t=0.04
0.7201811772994324
% es.tEx (V/m) @ t=0.04
1.7814719927404212
% es.tEy (V/m) @ t=0.04
0
% es.tEz (V/m) @ t=0.04
0.7201811772994278
% V (V) @ t=0.04
0.009615814522953015
% es.normE (V/m) @ t=0.06
1.9454318568545663
% es.EX (V/m) @ t=0.06
1.7978341738624257
% es.EY (V/m) @ t=0.06
0.11320270401493271
% es.EZ (V/m) @ t=0.06
0.7267957869751231
% es.tEX (V/m) @ t=0.06
1.7978341738624284
% es.tEY (V/m) @ t=0.06
0
% es.tEZ (V/m) @ t=0.06
0.7267957869751229
% es.Ex (V/m) @ t=0.06
1.7978341738624257
% es.Ey (V/m) @ t=0.06
0.11320270401493271
% es.Ez (V/m) @ t=0.06
0.7267957869751231
% es.tEx (V/m) @ t=0.06
1.7978341738624284
% es.tEy (V/m) @ t=0.06
0
% es.tEz (V/m) @ t=0.06
0.7267957869751229
% V (V) @ t=0.06
0.00970413179900395
% es.normE (V/m) @ t=0.08
1.963448284469078
% es.EX (V/m) @ t=0.08
1.8144837158863298
% es.EY (V/m) @ t=0.08
0.11425106105631289
% es.EZ (V/m) @ t=0.08
0.733526561555564
% es.tEX (V/m) @ t=0.08
1.814483715886345
% es.tEY (V/m) @ t=0.08
0
% es.tEZ (V/m) @ t=0.08
0.733526561555562
% es.Ex (V/m) @ t=0.08
1.8144837158863298
% es.Ey (V/m) @ t=0.08
0.11425106105631289
% es.Ez (V/m) @ t=0.08
0.733526561555564
% es.tEx (V/m) @ t=0.08
1.814483715886345
% es.tEy (V/m) @ t=0.08
0
% es.tEz (V/m) @ t=0.08
0.733526561555562
% V (V) @ t=0.08
0.009794000715215858
% es.normE (V/m) @ t=0.1
1.9815962075646318
% es.EX (V/m) @ t=0.1
1.8312547777136388
% es.EY (V/m) @ t=0.1
0.11530706541495395
% es.EZ (V/m) @ t=0.1
0.7403064602036451
% es.tEX (V/m) @ t=0.1
1.8312547777136388
% es.tEY (V/m) @ t=0.1
0
% es.tEZ (V/m) @ t=0.1
0.7403064602036427
% es.Ex (V/m) @ t=0.1
1.8312547777136388
% es.Ey (V/m) @ t=0.1
0.11530706541495395
% es.Ez (V/m) @ t=0.1
0.7403064602036451
% es.tEx (V/m) @ t=0.1
1.8312547777136388
% es.tEy (V/m) @ t=0.1
0
% es.tEz (V/m) @ t=0.1
0.7403064602036427
% V (V) @ t=0.1
0.009884525792394887
% es.normE (V/m) @ t=0.12
1.9997441306601775
% es.EX (V/m) @ t=0.12
1.8480258395409423
% es.EY (V/m) @ t=0.12
0.11636306977360378
% es.EZ (V/m) @ t=0.12
0.7470863588517165
% es.tEX (V/m) @ t=0.12
1.8480258395409486
% es.tEY (V/m) @ t=0.12
0
% es.tEZ (V/m) @ t=0.12
0.7470863588517163
% es.Ex (V/m) @ t=0.12
1.8480258395409423
% es.Ey (V/m) @ t=0.12
0.11636306977360378
% es.Ez (V/m) @ t=0.12
0.7470863588517165
% es.tEx (V/m) @ t=0.12
1.8480258395409486
% es.tEy (V/m) @ t=0.12
0
% es.tEz (V/m) @ t=0.12
0.7470863588517163
% V (V) @ t=0.12
0.00997505086957392
% es.normE (V/m) @ t=0.14
2.0182800173844693
% es.EX (V/m) @ t=0.14
1.865155431063875
% es.EY (V/m) @ t=0.14
0.11744164695656589
% es.EZ (V/m) @ t=0.14
0.7540111963679832
% es.tEX (V/m) @ t=0.14
1.8651554310638705
% es.tEY (V/m) @ t=0.14
0
% es.tEZ (V/m) @ t=0.14
0.7540111963679847
% es.Ex (V/m) @ t=0.14
1.865155431063875
% es.Ey (V/m) @ t=0.14
0.11744164695656589
% es.Ez (V/m) @ t=0.14
0.7540111963679832
% es.tEx (V/m) @ t=0.14
1.8651554310638705
% es.tEy (V/m) @ t=0.14
0
% es.tEz (V/m) @ t=0.14
0.7540111963679847
% V (V) @ t=0.14
0.010067511308423673
% es.normE (V/m) @ t=0.16
2.0373622763211303
% es.EX (V/m) @ t=0.16
1.8827899427609882
% es.EY (V/m) @ t=0.16
0.11855201362455092
% es.EZ (V/m) @ t=0.16
0.7611401524257888
% es.tEX (V/m) @ t=0.16
1.8827899427609847
% es.tEY (V/m) @ t=0.16
0
% es.tEZ (V/m) @ t=0.16
0.7611401524257886
% es.Ex (V/m) @ t=0.16
1.8827899427609882
% es.Ey (V/m) @ t=0.16
0.11855201362455092
% es.Ez (V/m) @ t=0.16
0.7611401524257888
% es.tEx (V/m) @ t=0.16
1.8827899427609847
% es.tEy (V/m) @ t=0.16
0
% es.tEz (V/m) @ t=0.16
0.7611401524257886
% V (V) @ t=0.16
0.010162697332249596
% es.normE (V/m) @ t=0.18
2.056444535257806
% es.EX (V/m) @ t=0.18
1.9004244544581086
% es.EY (V/m) @ t=0.18
0.11966238029252796
% es.EZ (V/m) @ t=0.18
0.768269108483622
% es.tEX (V/m) @ t=0.18
1.9004244544581272
% es.tEY (V/m) @ t=0.18
0
% es.tEZ (V/m) @ t=0.18
0.7682691084836226
% es.Ex (V/m) @ t=0.18
1.9004244544581086
% es.Ey (V/m) @ t=0.18
0.11966238029252796
% es.Ez (V/m) @ t=0.18
0.768269108483622
% es.tEx (V/m) @ t=0.18
1.9004244544581272
% es.tEy (V/m) @ t=0.18
0
% es.tEz (V/m) @ t=0.18
0.7682691084836226
% V (V) @ t=0.18
0.01025788335607552
% es.normE (V/m) @ t=0.2
2.075526794194479
% es.EX (V/m) @ t=0.2
1.9180589661552387
% es.EY (V/m) @ t=0.2
0.12077274696050011
% es.EZ (V/m) @ t=0.2
0.7753980645414209
% es.tEX (V/m) @ t=0.2
1.9180589661552414
% es.tEY (V/m) @ t=0.2
0
% es.tEZ (V/m) @ t=0.2
0.7753980645414162
% es.Ex (V/m) @ t=0.2
1.9180589661552387
% es.Ey (V/m) @ t=0.2
0.12077274696050011
% es.Ez (V/m) @ t=0.2
0.7753980645414209
% es.tEx (V/m) @ t=0.2
1.9180589661552414
% es.tEy (V/m) @ t=0.2
0
% es.tEz (V/m) @ t=0.2
0.7753980645414162
% V (V) @ t=0.2
0.010353069379901448
% es.normE (V/m) @ t=0.22
2.094609053131151
% es.EX (V/m) @ t=0.22
1.9356934778523636
% es.EY (V/m) @ t=0.22
0.12188311362847193
% es.EZ (V/m) @ t=0.22
0.7825270205992296
% es.tEX (V/m) @ t=0.22
1.935693477852361
% es.tEY (V/m) @ t=0.22
0
% es.tEZ (V/m) @ t=0.22
0.7825270205992263
% es.Ex (V/m) @ t=0.22
1.9356934778523636
% es.Ey (V/m) @ t=0.22
0.12188311362847193
% es.Ez (V/m) @ t=0.22
0.7825270205992296
% es.tEx (V/m) @ t=0.22
1.935693477852361
% es.tEy (V/m) @ t=0.22
0
% es.tEz (V/m) @ t=0.22
0.7825270205992263
% V (V) @ t=0.22
0.010448255403727374
% es.normE (V/m) @ t=0.24
2.113691312067817
% es.EX (V/m) @ t=0.24
1.9533279895494715
% es.EY (V/m) @ t=0.24
0.12299348029645707
% es.EZ (V/m) @ t=0.24
0.7896559766570637
% es.tEX (V/m) @ t=0.24
1.9533279895494715
% es.tEY (V/m) @ t=0.24
0
% es.tEZ (V/m) @ t=0.24
0.7896559766570586
% es.Ex (V/m) @ t=0.24
1.9533279895494715
% es.Ey (V/m) @ t=0.24
0.12299348029645707
% es.Ez (V/m) @ t=0.24
0.7896559766570637
% es.tEx (V/m) @ t=0.24
1.9533279895494715
% es.tEy (V/m) @ t=0.24
0
% es.tEz (V/m) @ t=0.24
0.7896559766570586
% V (V) @ t=0.24
0.010543441427553299
% es.normE (V/m) @ t=0.26
2.1327735710044875
% es.EX (V/m) @ t=0.26
1.9709625012465937
% es.EY (V/m) @ t=0.26
0.12410384696443955
% es.EZ (V/m) @ t=0.26
0.796784932714875
% es.tEX (V/m) @ t=0.26
1.9709625012465946
% es.tEY (V/m) @ t=0.26
0
% es.tEZ (V/m) @ t=0.26
0.7967849327148842
% es.Ex (V/m) @ t=0.26
1.9709625012465937
% es.Ey (V/m) @ t=0.26
0.12410384696443955
% es.Ez (V/m) @ t=0.26
0.796784932714875
% es.tEx (V/m) @ t=0.26
1.9709625012465946
% es.tEy (V/m) @ t=0.26
0
% es.tEz (V/m) @ t=0.26
0.7967849327148842
% V (V) @ t=0.26
0.010638627451379223
% es.normE (V/m) @ t=0.28
2.1536134047490165
% es.EX (V/m) @ t=0.28
1.9902211681928232
% es.EY (V/m) @ t=0.28
0.12531690105988647
% es.EZ (V/m) @ t=0.28
0.8045706515460564
% es.tEX (V/m) @ t=0.28
1.9902211681928232
% es.tEY (V/m) @ t=0.28
0
% es.tEZ (V/m) @ t=0.28
0.8045706515460558
% es.Ex (V/m) @ t=0.28
1.9902211681928232
% es.Ey (V/m) @ t=0.28
0.12531690105988647
% es.Ez (V/m) @ t=0.28
0.8045706515460564
% es.tEx (V/m) @ t=0.28
1.9902211681928232
% es.tEy (V/m) @ t=0.28
0
% es.tEz (V/m) @ t=0.28
0.8045706515460558
% V (V) @ t=0.28
0.010742556792393363
% es.normE (V/m) @ t=0.3
2.1747877900527577
% es.EX (V/m) @ t=0.3
2.0097889904980875
% es.EY (V/m) @ t=0.3
0.1265495015432312
% es.EZ (V/m) @ t=0.3
0.8124813841227871
% es.tEX (V/m) @ t=0.3
2.009788990498084
% es.tEY (V/m) @ t=0.3
0
% es.tEZ (V/m) @ t=0.3
0.8124813841227865
% es.Ex (V/m) @ t=0.3
2.0097889904980875
% es.Ey (V/m) @ t=0.3
0.1265495015432312
% es.Ez (V/m) @ t=0.3
0.8124813841227871
% es.tEx (V/m) @ t=0.3
2.009788990498084
% es.tEy (V/m) @ t=0.3
0
% es.tEz (V/m) @ t=0.3
0.8124813841227865
% V (V) @ t=0.3
0.010848150409877544
% es.normE (V/m) @ t=0.32
2.1959621753566516
% es.EX (V/m) @ t=0.32
2.029356812803364
% es.EY (V/m) @ t=0.32
0.12778210202658558
% es.EZ (V/m) @ t=0.32
0.8203921166995014
% es.tEX (V/m) @ t=0.32
2.0293568128033534
% es.tEY (V/m) @ t=0.32
0
% es.tEZ (V/m) @ t=0.32
0.8203921166994919
% es.Ex (V/m) @ t=0.32
2.029356812803364
% es.Ey (V/m) @ t=0.32
0.12778210202658558
% es.Ez (V/m) @ t=0.32
0.8203921166995014
% es.tEx (V/m) @ t=0.32
2.0293568128033534
% es.tEy (V/m) @ t=0.32
0
% es.tEz (V/m) @ t=0.32
0.8203921166994919
% V (V) @ t=0.32
0.010953744027361727
% es.normE (V/m) @ t=0.34
2.217136560660703
% es.EX (V/m) @ t=0.34
2.048924635108656
% es.EY (V/m) @ t=0.34
0.12901470250993685
% es.EZ (V/m) @ t=0.34
0.8283028492762277
% es.tEX (V/m) @ t=0.34
2.048924635108646
% es.tEY (V/m) @ t=0.34
0
% es.tEZ (V/m) @ t=0.34
0.8283028492762279
% es.Ex (V/m) @ t=0.34
2.048924635108656
% es.Ey (V/m) @ t=0.34
0.12901470250993685
% es.Ez (V/m) @ t=0.34
0.8283028492762277
% es.tEx (V/m) @ t=0.34
2.048924635108646
% es.tEy (V/m) @ t=0.34
0
% es.tEz (V/m) @ t=0.34
0.8283028492762279
% V (V) @ t=0.34
0.011059337644845912
% es.normE (V/m) @ t=0.36
2.238310945964871
% es.EX (V/m) @ t=0.36
2.068492457413929
% es.EY (V/m) @ t=0.36
0.13024730299328424
% es.EZ (V/m) @ t=0.36
0.8362135818529424
% es.tEX (V/m) @ t=0.36
2.068492457413919
% es.tEY (V/m) @ t=0.36
0
% es.tEZ (V/m) @ t=0.36
0.8362135818529479
% es.Ex (V/m) @ t=0.36
2.068492457413929
% es.Ey (V/m) @ t=0.36
0.13024730299328424
% es.Ez (V/m) @ t=0.36
0.8362135818529424
% es.tEx (V/m) @ t=0.36
2.068492457413919
% es.tEy (V/m) @ t=0.36
0
% es.tEz (V/m) @ t=0.36
0.8362135818529479
% V (V) @ t=0.36
0.01116493126233009
% es.normE (V/m) @ t=0.38
2.259485331269171
% es.EX (V/m) @ t=0.38
2.0880602797191985
% es.EY (V/m) @ t=0.38
0.13147990347663596
% es.EZ (V/m) @ t=0.38
0.8441243144296602
% es.tEX (V/m) @ t=0.38
2.0880602797192065
% es.tEY (V/m) @ t=0.38
0
% es.tEZ (V/m) @ t=0.38
0.84412431442966
% es.Ex (V/m) @ t=0.38
2.0880602797191985
% es.Ey (V/m) @ t=0.38
0.13147990347663596
% es.Ez (V/m) @ t=0.38
0.8441243144296602
% es.tEx (V/m) @ t=0.38
2.0880602797192065
% es.tEy (V/m) @ t=0.38
0
% es.tEz (V/m) @ t=0.38
0.84412431442966
% V (V) @ t=0.38
0.01127052487981427
% es.normE (V/m) @ t=0.4
2.280659716573614
% es.EX (V/m) @ t=0.4
2.107628102024485
% es.EY (V/m) @ t=0.4
0.13271250396000123
% es.EZ (V/m) @ t=0.4
0.852035047006374
% es.tEX (V/m) @ t=0.4
2.107628102024485
% es.tEY (V/m) @ t=0.4
0
% es.tEZ (V/m) @ t=0.4
0.8520350470063782
% es.Ex (V/m) @ t=0.4
2.107628102024485
% es.Ey (V/m) @ t=0.4
0.13271250396000123
% es.Ez (V/m) @ t=0.4
0.852035047006374
% es.tEx (V/m) @ t=0.4
2.107628102024485
% es.tEy (V/m) @ t=0.4
0
% es.tEz (V/m) @ t=0.4
0.8520350470063782
% V (V) @ t=0.4
0.011376118497298457
% es.normE (V/m) @ t=0.42
2.3018341018781765
% es.EX (V/m) @ t=0.42
2.1271959243297545
% es.EY (V/m) @ t=0.42
0.13394510444333196
% es.EZ (V/m) @ t=0.42
0.8599457795831136
% es.tEX (V/m) @ t=0.42
2.1271959243297562
% es.tEY (V/m) @ t=0.42
0
% es.tEZ (V/m) @ t=0.42
0.8599457795831054
% es.Ex (V/m) @ t=0.42
2.1271959243297545
% es.Ey (V/m) @ t=0.42
0.13394510444333196
% es.Ez (V/m) @ t=0.42
0.8599457795831136
% es.tEx (V/m) @ t=0.42
2.1271959243297562
% es.tEy (V/m) @ t=0.42
0
% es.tEz (V/m) @ t=0.42
0.8599457795831054
% V (V) @ t=0.42
0.011481712114782636
% es.normE (V/m) @ t=0.44
2.3230084871828645
% es.EX (V/m) @ t=0.44
2.1467637466350364
% es.EY (V/m) @ t=0.44
0.13517770492669423
% es.EZ (V/m) @ t=0.44
0.8678565121598298
% es.tEX (V/m) @ t=0.44
2.146763746635038
% es.tEY (V/m) @ t=0.44
0
% es.tEZ (V/m) @ t=0.44
0.8678565121598298
% es.Ex (V/m) @ t=0.44
2.1467637466350364
% es.Ey (V/m) @ t=0.44
0.13517770492669423
% es.Ez (V/m) @ t=0.44
0.8678565121598298
% es.tEx (V/m) @ t=0.44
2.146763746635038
% es.tEy (V/m) @ t=0.44
0
% es.tEz (V/m) @ t=0.44
0.8678565121598298
% V (V) @ t=0.44
0.01158730573226682
% es.normE (V/m) @ t=0.46
2.344182872487674
% es.EX (V/m) @ t=0.46
2.166331568940321
% es.EY (V/m) @ t=0.46
0.13641030541004795
% es.EZ (V/m) @ t=0.46
0.8757672447365419
% es.tEX (V/m) @ t=0.46
2.1663315689403095
% es.tEY (V/m) @ t=0.46
0
% es.tEZ (V/m) @ t=0.46
0.8757672447365374
% es.Ex (V/m) @ t=0.46
2.166331568940321
% es.Ey (V/m) @ t=0.46
0.13641030541004795
% es.Ez (V/m) @ t=0.46
0.8757672447365419
% es.tEx (V/m) @ t=0.46
2.1663315689403095
% es.tEy (V/m) @ t=0.46
0
% es.tEz (V/m) @ t=0.46
0.8757672447365374
% V (V) @ t=0.46
0.011692899349751
% es.normE (V/m) @ t=0.48
2.365357257792595
% es.EX (V/m) @ t=0.48
2.1858993912455977
% es.EY (V/m) @ t=0.48
0.13764290589340789
% es.EZ (V/m) @ t=0.48
0.883677977313263
% es.tEX (V/m) @ t=0.48
2.185899391245597
% es.tEY (V/m) @ t=0.48
0
% es.tEZ (V/m) @ t=0.48
0.8836779773132641
% es.Ex (V/m) @ t=0.48
2.1858993912455977
% es.Ey (V/m) @ t=0.48
0.13764290589340789
% es.Ez (V/m) @ t=0.48
0.883677977313263
% es.tEx (V/m) @ t=0.48
2.185899391245597
% es.tEy (V/m) @ t=0.48
0
% es.tEz (V/m) @ t=0.48
0.8836779773132641
% V (V) @ t=0.48
0.011798492967235182
% es.normE (V/m) @ t=0.5
2.386531643097629
% es.EX (V/m) @ t=0.5
2.205467213550869
% es.EY (V/m) @ t=0.5
0.13887550637674828
% es.EZ (V/m) @ t=0.5
0.891588709889999
% es.tEX (V/m) @ t=0.5
2.205467213550877
% es.tEY (V/m) @ t=0.5
0
% es.tEZ (V/m) @ t=0.5
0.8915887098900055
% es.Ex (V/m) @ t=0.5
2.205467213550869
% es.Ey (V/m) @ t=0.5
0.13887550637674828
% es.Ez (V/m) @ t=0.5
0.891588709889999
% es.tEx (V/m) @ t=0.5
2.205467213550877
% es.tEy (V/m) @ t=0.5
0
% es.tEz (V/m) @ t=0.5
0.8915887098900055
% V (V) @ t=0.5
0.011904086584719366
% es.normE (V/m) @ t=0.52
2.407706028402776
% es.EX (V/m) @ t=0.52
2.2250350358561493
% es.EY (V/m) @ t=0.52
0.14010810686010733
% es.EZ (V/m) @ t=0.52
0.8994994424667178
% es.tEX (V/m) @ t=0.52
2.22503503585615
% es.tEY (V/m) @ t=0.52
0
% es.tEZ (V/m) @ t=0.52
0.8994994424667127
% es.Ex (V/m) @ t=0.52
2.2250350358561493
% es.Ey (V/m) @ t=0.52
0.14010810686010733
% es.Ez (V/m) @ t=0.52
0.8994994424667178
% es.tEx (V/m) @ t=0.52
2.22503503585615
% es.tEy (V/m) @ t=0.52
0
% es.tEz (V/m) @ t=0.52
0.8994994424667127
% V (V) @ t=0.52
0.012009680202203549
% es.normE (V/m) @ t=0.54
2.430511121634545
% es.EX (V/m) @ t=0.54
2.2461100237964393
% es.EY (V/m) @ t=0.54
0.14143460428693688
% es.EZ (V/m) @ t=0.54
0.9080190376124204
% es.tEX (V/m) @ t=0.54
2.24611002379644
% es.tEY (V/m) @ t=0.54
0
% es.tEZ (V/m) @ t=0.54
0.9080190376124184
% es.Ex (V/m) @ t=0.54
2.2461100237964393
% es.Ey (V/m) @ t=0.54
0.14143460428693688
% es.Ez (V/m) @ t=0.54
0.9080190376124204
% es.tEx (V/m) @ t=0.54
2.24611002379644
% es.tEy (V/m) @ t=0.54
0
% es.tEz (V/m) @ t=0.54
0.9080190376124184
% V (V) @ t=0.54
0.012123464751532975
% es.normE (V/m) @ t=0.56
2.4540494961934143
% es.EX (V/m) @ t=0.56
2.2678627397334115
% es.EY (V/m) @ t=0.56
0.14280332440379084
% es.EZ (V/m) @ t=0.56
0.9168124203230781
% es.tEX (V/m) @ t=0.56
2.2678627397334026
% es.tEY (V/m) @ t=0.56
0
% es.tEZ (V/m) @ t=0.56
0.9168124203230801
% es.Ex (V/m) @ t=0.56
2.2678627397334115
% es.Ey (V/m) @ t=0.56
0.14280332440379084
% es.Ez (V/m) @ t=0.56
0.9168124203230781
% es.tEx (V/m) @ t=0.56
2.2678627397334026
% es.tEy (V/m) @ t=0.56
0
% es.tEz (V/m) @ t=0.56
0.9168124203230801
% V (V) @ t=0.56
0.012240932521672108
% es.normE (V/m) @ t=0.58
2.477587870752849
% es.EX (V/m) @ t=0.58
2.2896154556703863
% es.EY (V/m) @ t=0.58
0.14417204452063592
% es.EZ (V/m) @ t=0.58
0.9256058030337306
% es.tEX (V/m) @ t=0.58
2.2896154556703845
% es.tEY (V/m) @ t=0.58
0
% es.tEZ (V/m) @ t=0.58
0.925605803033724
% es.Ex (V/m) @ t=0.58
2.2896154556703863
% es.Ey (V/m) @ t=0.58
0.14417204452063592
% es.Ez (V/m) @ t=0.58
0.9256058030337306
% es.tEx (V/m) @ t=0.58
2.2896154556703845
% es.tEy (V/m) @ t=0.58
0
% es.tEz (V/m) @ t=0.58
0.925605803033724
% V (V) @ t=0.58
0.012358400291811242
% es.normE (V/m) @ t=0.6
2.5011262453128396
% es.EX (V/m) @ t=0.6
2.3113681716073637
% es.EY (V/m) @ t=0.6
0.14554076463748555
% es.EZ (V/m) @ t=0.6
0.9343991857443923
% es.tEX (V/m) @ t=0.6
2.3113681716073753
% es.tEY (V/m) @ t=0.6
0
% es.tEZ (V/m) @ t=0.6
0.9343991857443923
% es.Ex (V/m) @ t=0.6
2.3113681716073637
% es.Ey (V/m) @ t=0.6
0.14554076463748555
% es.Ez (V/m) @ t=0.6
0.9343991857443923
% es.tEx (V/m) @ t=0.6
2.3113681716073753
% es.tEy (V/m) @ t=0.6
0
% es.tEz (V/m) @ t=0.6
0.9343991857443923
% V (V) @ t=0.6
0.012475868061950378
% es.normE (V/m) @ t=0.62
2.524664619873354
% es.EX (V/m) @ t=0.62
2.3331208875443394
% es.EY (V/m) @ t=0.62
0.14690948475433163
% es.EZ (V/m) @ t=0.62
0.9431925684550273
% es.tEX (V/m) @ t=0.62
2.3331208875443377
% es.tEY (V/m) @ t=0.62
0
% es.tEZ (V/m) @ t=0.62
0.9431925684550224
% es.Ex (V/m) @ t=0.62
2.3331208875443394
% es.Ey (V/m) @ t=0.62
0.14690948475433163
% es.Ez (V/m) @ t=0.62
0.9431925684550273
% es.tEx (V/m) @ t=0.62
2.3331208875443377
% es.tEy (V/m) @ t=0.62
0
% es.tEz (V/m) @ t=0.62
0.9431925684550224
% V (V) @ t=0.62
0.012593335832089513
% es.normE (V/m) @ t=0.64
2.548202994434404
% es.EX (V/m) @ t=0.64
2.354873603481324
% es.EY (V/m) @ t=0.64
0.14827820487118037
% es.EZ (V/m) @ t=0.64
0.9519859511656827
% es.tEX (V/m) @ t=0.64
2.3548736034813125
% es.tEY (V/m) @ t=0.64
0
% es.tEZ (V/m) @ t=0.64
0.9519859511656934
% es.Ex (V/m) @ t=0.64
2.354873603481324
% es.Ey (V/m) @ t=0.64
0.14827820487118037
% es.Ez (V/m) @ t=0.64
0.9519859511656827
% es.tEx (V/m) @ t=0.64
2.3548736034813125
% es.tEy (V/m) @ t=0.64
0
% es.tEz (V/m) @ t=0.64
0.9519859511656934
% V (V) @ t=0.64
0.012710803602228643
% es.normE (V/m) @ t=0.66
2.5717413689959527
% es.EX (V/m) @ t=0.66
2.376626319418305
% es.EY (V/m) @ t=0.66
0.149646924988045
% es.EZ (V/m) @ t=0.66
0.9607793338763271
% es.tEX (V/m) @ t=0.66
2.3766263194182997
% es.tEY (V/m) @ t=0.66
0
% es.tEZ (V/m) @ t=0.66
0.960779333876328
% es.Ex (V/m) @ t=0.66
2.376626319418305
% es.Ey (V/m) @ t=0.66
0.149646924988045
% es.Ez (V/m) @ t=0.66
0.9607793338763271
% es.tEx (V/m) @ t=0.66
2.3766263194182997
% es.tEy (V/m) @ t=0.66
0
% es.tEz (V/m) @ t=0.66
0.960779333876328
% V (V) @ t=0.66
0.012828271372367778
% es.normE (V/m) @ t=0.68
2.595279743557985
% es.EX (V/m) @ t=0.68
2.398379035355278
% es.EY (V/m) @ t=0.68
0.15101564510487764
% es.EZ (V/m) @ t=0.68
0.9695727165869759
% es.tEX (V/m) @ t=0.68
2.398379035355278
% es.tEY (V/m) @ t=0.68
0
% es.tEZ (V/m) @ t=0.68
0.9695727165869714
% es.Ex (V/m) @ t=0.68
2.398379035355278
% es.Ey (V/m) @ t=0.68
0.15101564510487764
% es.Ez (V/m) @ t=0.68
0.9695727165869759
% es.tEx (V/m) @ t=0.68
2.398379035355278
% es.tEy (V/m) @ t=0.68
0
% es.tEz (V/m) @ t=0.68
0.9695727165869714
% V (V) @ t=0.68
0.012945739142506914
% es.normE (V/m) @ t=0.7
2.618818118120511
% es.EX (V/m) @ t=0.7
2.4201317512922627
% es.EY (V/m) @ t=0.7
0.15238436522174226
% es.EZ (V/m) @ t=0.7
0.9783660992976264
% es.tEX (V/m) @ t=0.7
2.4201317512922653
% es.tEY (V/m) @ t=0.7
0
% es.tEZ (V/m) @ t=0.7
0.9783660992976184
% es.Ex (V/m) @ t=0.7
2.4201317512922627
% es.Ey (V/m) @ t=0.7
0.15238436522174226
% es.Ez (V/m) @ t=0.7
0.9783660992976264
% es.tEx (V/m) @ t=0.7
2.4201317512922653
% es.tEy (V/m) @ t=0.7
0
% es.tEz (V/m) @ t=0.7
0.9783660992976184
% V (V) @ t=0.7
0.013063206912646045
% es.normE (V/m) @ t=0.72
2.6423564926834846
% es.EX (V/m) @ t=0.72
2.441884467229233
% es.EY (V/m) @ t=0.72
0.15375308533858933
% es.EZ (V/m) @ t=0.72
0.9871594820082725
% es.tEX (V/m) @ t=0.72
2.441884467229235
% es.tEY (V/m) @ t=0.72
0
% es.tEZ (V/m) @ t=0.72
0.9871594820082779
% es.Ex (V/m) @ t=0.72
2.441884467229233
% es.Ey (V/m) @ t=0.72
0.15375308533858933
% es.Ez (V/m) @ t=0.72
0.9871594820082725
% es.tEx (V/m) @ t=0.72
2.441884467229235
% es.tEy (V/m) @ t=0.72
0
% es.tEz (V/m) @ t=0.72
0.9871594820082779
% V (V) @ t=0.72
0.013180674682785182
% es.normE (V/m) @ t=0.74
2.665894867246938
% es.EX (V/m) @ t=0.74
2.4636371831662256
% es.EY (V/m) @ t=0.74
0.1551218054554362
% es.EZ (V/m) @ t=0.74
0.9959528647189333
% es.tEX (V/m) @ t=0.74
2.4636371831662114
% es.tEY (V/m) @ t=0.74
0
% es.tEZ (V/m) @ t=0.74
0.9959528647189391
% es.Ex (V/m) @ t=0.74
2.4636371831662256
% es.Ey (V/m) @ t=0.74
0.1551218054554362
% es.Ez (V/m) @ t=0.74
0.9959528647189333
% es.tEx (V/m) @ t=0.74
2.4636371831662114
% es.tEy (V/m) @ t=0.74
0
% es.tEz (V/m) @ t=0.74
0.9959528647189391
% V (V) @ t=0.74
0.013298142452924315
% es.normE (V/m) @ t=0.76
2.689433241810809
% es.EX (V/m) @ t=0.76
2.485389899103195
% es.EY (V/m) @ t=0.76
0.15649052557229015
% es.EZ (V/m) @ t=0.76
1.0047462474295843
% es.tEX (V/m) @ t=0.76
2.4853898991031986
% es.tEY (V/m) @ t=0.76
0
% es.tEZ (V/m) @ t=0.76
1.004746247429579
% es.Ex (V/m) @ t=0.76
2.485389899103195
% es.Ey (V/m) @ t=0.76
0.15649052557229015
% es.Ez (V/m) @ t=0.76
1.0047462474295843
% es.tEx (V/m) @ t=0.76
2.4853898991031986
% es.tEy (V/m) @ t=0.76
0
% es.tEz (V/m) @ t=0.76
1.004746247429579
% V (V) @ t=0.76
0.013415610223063448
% es.normE (V/m) @ t=0.78
2.7129716163751167
% es.EX (V/m) @ t=0.78
2.507142615040175
% es.EY (V/m) @ t=0.78
0.15785924568913878
% es.EZ (V/m) @ t=0.78
1.0135396301402286
% es.tEX (V/m) @ t=0.78
2.5071426150401734
% es.tEY (V/m) @ t=0.78
0
% es.tEZ (V/m) @ t=0.78
1.0135396301402277
% es.Ex (V/m) @ t=0.78
2.507142615040175
% es.Ey (V/m) @ t=0.78
0.15785924568913878
% es.Ez (V/m) @ t=0.78
1.0135396301402286
% es.tEx (V/m) @ t=0.78
2.5071426150401734
% es.tEy (V/m) @ t=0.78
0
% es.tEz (V/m) @ t=0.78
1.0135396301402277
% V (V) @ t=0.78
0.013533077993202582
% es.normE (V/m) @ t=0.8
2.737948494050151
% es.EX (V/m) @ t=0.8
2.5302245368200964
% es.EY (V/m) @ t=0.8
0.15931256225367996
% es.EZ (V/m) @ t=0.8
1.0228707439603233
% es.tEX (V/m) @ t=0.8
2.5302245368200946
% es.tEY (V/m) @ t=0.8
0
% es.tEZ (V/m) @ t=0.8
1.0228707439603166
% es.Ex (V/m) @ t=0.8
2.5302245368200964
% es.Ey (V/m) @ t=0.8
0.15931256225367996
% es.Ez (V/m) @ t=0.8
1.0228707439603233
% es.tEx (V/m) @ t=0.8
2.5302245368200946
% es.tEy (V/m) @ t=0.8
0
% es.tEz (V/m) @ t=0.8
1.0228707439603166
% V (V) @ t=0.8
0.013657670307550517
% es.normE (V/m) @ t=0.82
2.7641530659155027
% es.EX (V/m) @ t=0.82
2.5544408727552836
% es.EY (V/m) @ t=0.82
0.16083807787469384
% es.EZ (V/m) @ t=0.82
1.0326607857827605
% es.tEX (V/m) @ t=0.82
2.55444087275529
% es.tEY (V/m) @ t=0.82
0
% es.tEZ (V/m) @ t=0.82
1.0326607857827614
% es.Ex (V/m) @ t=0.82
2.5544408727552836
% es.Ey (V/m) @ t=0.82
0.16083807787469384
% es.Ez (V/m) @ t=0.82
1.0326607857827605
% es.tEx (V/m) @ t=0.82
2.55444087275529
% es.tEy (V/m) @ t=0.82
0
% es.tEz (V/m) @ t=0.82
1.0326607857827614
% V (V) @ t=0.82
0.013788343082530576
% es.normE (V/m) @ t=0.84
2.7903576377811423
% es.EX (V/m) @ t=0.84
2.5786572086904584
% es.EY (V/m) @ t=0.84
0.16236359349571483
% es.EZ (V/m) @ t=0.84
1.0424508276052489
% es.tEX (V/m) @ t=0.84
2.5786572086904602
% es.tEY (V/m) @ t=0.84
0
% es.tEZ (V/m) @ t=0.84
1.0424508276052507
% es.Ex (V/m) @ t=0.84
2.5786572086904584
% es.Ey (V/m) @ t=0.84
0.16236359349571483
% es.Ez (V/m) @ t=0.84
1.0424508276052489
% es.tEx (V/m) @ t=0.84
2.5786572086904602
% es.tEy (V/m) @ t=0.84
0
% es.tEz (V/m) @ t=0.84
1.0424508276052507
% V (V) @ t=0.84
0.013919015857510635
% es.normE (V/m) @ t=0.86
2.816562209647032
% es.EX (V/m) @ t=0.86
2.602873544625613
% es.EY (V/m) @ t=0.86
0.16388910911675358
% es.EZ (V/m) @ t=0.86
1.0522408694277186
% es.tEX (V/m) @ t=0.86
2.6028735446256093
% es.tEY (V/m) @ t=0.86
0
% es.tEZ (V/m) @ t=0.86
1.0522408694277168
% es.Ex (V/m) @ t=0.86
2.602873544625613
% es.Ey (V/m) @ t=0.86
0.16388910911675358
% es.Ez (V/m) @ t=0.86
1.0522408694277186
% es.tEx (V/m) @ t=0.86
2.6028735446256093
% es.tEy (V/m) @ t=0.86
0
% es.tEz (V/m) @ t=0.86
1.0522408694277168
% V (V) @ t=0.86
0.014049688632490695
% es.normE (V/m) @ t=0.88
2.842766781513215
% es.EX (V/m) @ t=0.88
2.6270898805607965
% es.EY (V/m) @ t=0.88
0.16541462473776913
% es.EZ (V/m) @ t=0.88
1.0620309112501976
% es.tEX (V/m) @ t=0.88
2.6270898805608027
% es.tEY (V/m) @ t=0.88
0
% es.tEZ (V/m) @ t=0.88
1.0620309112502024
% es.Ex (V/m) @ t=0.88
2.6270898805607965
% es.Ey (V/m) @ t=0.88
0.16541462473776913
% es.Ez (V/m) @ t=0.88
1.0620309112501976
% es.tEx (V/m) @ t=0.88
2.6270898805608027
% es.tEy (V/m) @ t=0.88
0
% es.tEz (V/m) @ t=0.88
1.0620309112502024
% V (V) @ t=0.88
0.014180361407470756
% es.normE (V/m) @ t=0.9
2.868971353379643
% es.EX (V/m) @ t=0.9
2.6513062164959678
% es.EY (V/m) @ t=0.9
0.16694014035879012
% es.EZ (V/m) @ t=0.9
1.0718209530726615
% es.tEX (V/m) @ t=0.9
2.651306216495973
% es.tEY (V/m) @ t=0.9
0
% es.tEZ (V/m) @ t=0.9
1.0718209530726641
% es.Ex (V/m) @ t=0.9
2.6513062164959678
% es.Ey (V/m) @ t=0.9
0.16694014035879012
% es.Ez (V/m) @ t=0.9
1.0718209530726615
% es.tEx (V/m) @ t=0.9
2.651306216495973
% es.tEy (V/m) @ t=0.9
0
% es.tEz (V/m) @ t=0.9
1.0718209530726641
% V (V) @ t=0.9
0.014311034182450815
% es.normE (V/m) @ t=0.92
2.895175925246327
% es.EX (V/m) @ t=0.92
2.6755225524311435
% es.EY (V/m) @ t=0.92
0.1684656559798129
% es.EZ (V/m) @ t=0.92
1.0816109948951338
% es.tEX (V/m) @ t=0.92
2.6755225524311523
% es.tEY (V/m) @ t=0.92
0
% es.tEZ (V/m) @ t=0.92
1.0816109948951285
% es.Ex (V/m) @ t=0.92
2.6755225524311435
% es.Ey (V/m) @ t=0.92
0.1684656559798129
% es.Ez (V/m) @ t=0.92
1.0816109948951338
% es.tEx (V/m) @ t=0.92
2.6755225524311523
% es.tEy (V/m) @ t=0.92
0
% es.tEz (V/m) @ t=0.92
1.0816109948951285
% V (V) @ t=0.92
0.014441706957430871
% es.normE (V/m) @ t=0.94
2.9213804971132555
% es.EX (V/m) @ t=0.94
2.699738888366319
% es.EY (V/m) @ t=0.94
0.1699911716008463
% es.EZ (V/m) @ t=0.94
1.0914010367176017
% es.tEX (V/m) @ t=0.94
2.6997388883663174
% es.tEY (V/m) @ t=0.94
0
% es.tEZ (V/m) @ t=0.94
1.0914010367176123
% es.Ex (V/m) @ t=0.94
2.699738888366319
% es.Ey (V/m) @ t=0.94
0.1699911716008463
% es.Ez (V/m) @ t=0.94
1.0914010367176017
% es.tEx (V/m) @ t=0.94
2.6997388883663174
% es.tEy (V/m) @ t=0.94
0
% es.tEz (V/m) @ t=0.94
1.0914010367176123
% V (V) @ t=0.94
0.014572379732410937
% es.normE (V/m) @ t=0.96
2.947585068980418
% es.EX (V/m) @ t=0.96
2.7239552243014913
% es.EY (V/m) @ t=0.96
0.17151668722186364
% es.EZ (V/m) @ t=0.96
1.101191078540067
% es.tEX (V/m) @ t=0.96
2.7239552243014824
% es.tEY (V/m) @ t=0.96
0
% es.tEZ (V/m) @ t=0.96
1.1011910785400705
% es.Ex (V/m) @ t=0.96
2.7239552243014913
% es.Ey (V/m) @ t=0.96
0.17151668722186364
% es.Ez (V/m) @ t=0.96
1.101191078540067
% es.tEx (V/m) @ t=0.96
2.7239552243014824
% es.tEy (V/m) @ t=0.96
0
% es.tEz (V/m) @ t=0.96
1.1011910785400705
% V (V) @ t=0.96
0.01470305250739099
% es.normE (V/m) @ t=0.98
2.9737896408478166
% es.EX (V/m) @ t=0.98
2.7481715602366634
% es.EY (V/m) @ t=0.98
0.17304220284289173
% es.EZ (V/m) @ t=0.98
1.1109811203625428
% es.tEX (V/m) @ t=0.98
2.7481715602366616
% es.tEY (V/m) @ t=0.98
0
% es.tEZ (V/m) @ t=0.98
1.1109811203625428
% es.Ex (V/m) @ t=0.98
2.7481715602366634
% es.Ey (V/m) @ t=0.98
0.17304220284289173
% es.Ez (V/m) @ t=0.98
1.1109811203625428
% es.tEx (V/m) @ t=0.98
2.7481715602366616
% es.tEy (V/m) @ t=0.98
0
% es.tEz (V/m) @ t=0.98
1.1109811203625428
% V (V) @ t=0.98
0.014833725282371053
% es.normE (V/m) @ t=1
2.999994212715433
% es.EX (V/m) @ t=1
2.772387896171832
% es.EY (V/m) @ t=1
0.17456771846390906
% es.EZ (V/m) @ t=1
1.1207711621850098
% es.tEX (V/m) @ t=1
2.7723878961718214
% es.tEY (V/m) @ t=1
0
% es.tEZ (V/m) @ t=1
1.1207711621850027
% es.Ex (V/m) @ t=1
2.772387896171832
% es.Ey (V/m) @ t=1
0.17456771846390906
% es.Ez (V/m) @ t=1
1.1207711621850098
% es.tEx (V/m) @ t=1
2.7723878961718214
% es.tEy (V/m) @ t=1
0
% es.tEz (V/m) @ t=1
1.1207711621850027
% V (V) @ t=1
0.014964398057351112
% es.normE (V/m) @ t=1.02
3.026198784583266
% es.EX (V/m) @ t=1.02
2.7966042321069953
% es.EY (V/m) @ t=1.02
0.17609323408493371
% es.EZ (V/m) @ t=1.02
1.130561204007476
% es.tEX (V/m) @ t=1.02
2.7966042321069917
% es.tEY (V/m) @ t=1.02
0
% es.tEZ (V/m) @ t=1.02
1.130561204007476
% es.Ex (V/m) @ t=1.02
2.7966042321069953
% es.Ey (V/m) @ t=1.02
0.17609323408493371
% es.Ez (V/m) @ t=1.02
1.130561204007476
% es.tEx (V/m) @ t=1.02
2.7966042321069917
% es.tEy (V/m) @ t=1.02
0
% es.tEz (V/m) @ t=1.02
1.130561204007476
% V (V) @ t=1.02
0.015095070832331171
% es.normE (V/m) @ t=1.04
3.0524033564513267
% es.EX (V/m) @ t=1.04
2.8208205680421763
% es.EY (V/m) @ t=1.04
0.17761874970595992
% es.EZ (V/m) @ t=1.04
1.1403512458299376
% es.tEX (V/m) @ t=1.04
2.8208205680421745
% es.tEY (V/m) @ t=1.04
0
% es.tEZ (V/m) @ t=1.04
1.1403512458299412
% es.Ex (V/m) @ t=1.04
2.8208205680421763
% es.Ey (V/m) @ t=1.04
0.17761874970595992
% es.Ez (V/m) @ t=1.04
1.1403512458299376
% es.tEx (V/m) @ t=1.04
2.8208205680421745