% Model:              1 neuron.mph
% Version:            COMSOL 6.0.0.405
% Date:               Mar 16 2023, 18:01
% Dimension:          0
% Nodes:              14017
% Expressions:        14017
% Description:        Electric field norm, Electric field, X component, Electric field, Y component, Electric field, Z component, Tangential electric field, X component, Tangential electric field, Y component, Tangential electric field, Z component, Electric field, x component, Electric field, y component, Electric field, z component, Tangential electric field, x component, Tangential electric field, y component, Tangential electric field, z component, Electric potential
% Length unit:        mm
% x
1.33
% y
12.2
% z
2
% es.normE (V/m) @ t=0
2.191183942571785
% es.EX (V/m) @ t=0
0.873271147205934
% es.EY (V/m) @ t=0
0.2308766308610517
% es.EZ (V/m) @ t=0
-1.9945697422110982
% es.tEX (V/m) @ t=0
0.8732711472059309
% es.tEY (V/m) @ t=0
0
% es.tEZ (V/m) @ t=0
-1.9945697422111017
% es.Ex (V/m) @ t=0
0.873271147205934
% es.Ey (V/m) @ t=0
0.2308766308610517
% es.Ez (V/m) @ t=0
-1.9945697422110982
% es.tEx (V/m) @ t=0
0.8732711472059309
% es.tEy (V/m) @ t=0
0
% es.tEz (V/m) @ t=0
-1.9945697422111017
% V (V) @ t=0
0.01095611484475227
% es.normE (V/m) @ t=0.02
1.892566661174936
% es.EX (V/m) @ t=0.02
0.754260671647023
% es.EY (V/m) @ t=0.02
0.19941248348913287
% es.EZ (V/m) @ t=0.02
-1.7227472860965092
% es.tEX (V/m) @ t=0.02
0.7542606716470233
% es.tEY (V/m) @ t=0.02
0
% es.tEZ (V/m) @ t=0.02
-1.7227472860965118
% es.Ex (V/m) @ t=0.02
0.754260671647023
% es.Ey (V/m) @ t=0.02
0.19941248348913287
% es.Ez (V/m) @ t=0.02
-1.7227472860965092
% es.tEx (V/m) @ t=0.02
0.7542606716470233
% es.tEy (V/m) @ t=0.02
0
% es.tEz (V/m) @ t=0.02
-1.7227472860965118
% V (V) @ t=0.02
0.00946300128473592
% es.normE (V/m) @ t=0.04
1.9099758859792266
% es.EX (V/m) @ t=0.04
0.7611989187652204
% es.EY (V/m) @ t=0.04
0.20124682777049507
% es.EZ (V/m) @ t=0.04
-1.738594386508023
% es.tEX (V/m) @ t=0.04
0.7611989187652171
% es.tEY (V/m) @ t=0.04
0
% es.tEZ (V/m) @ t=0.04
-1.7385943865080282
% es.Ex (V/m) @ t=0.04
0.7611989187652204
% es.Ey (V/m) @ t=0.04
0.20124682777049507
% es.Ez (V/m) @ t=0.04
-1.738594386508023
% es.tEx (V/m) @ t=0.04
0.7611989187652171
% es.tEy (V/m) @ t=0.04
0
% es.tEz (V/m) @ t=0.04
-1.7385943865080282
% V (V) @ t=0.04
0.009550048878039579
% es.normE (V/m) @ t=0.06
1.9275249803382573
% es.EX (V/m) @ t=0.06
0.7681929027772256
% es.EY (V/m) @ t=0.06
0.20309590089956053
% es.EZ (V/m) @ t=0.06
-1.7545688096026373
% es.tEX (V/m) @ t=0.06
0.7681929027772259
% es.tEY (V/m) @ t=0.06
0
% es.tEZ (V/m) @ t=0.06
-1.75456880960264
% es.Ex (V/m) @ t=0.06
0.7681929027772256
% es.Ey (V/m) @ t=0.06
0.20309590089956053
% es.Ez (V/m) @ t=0.06
-1.7545688096026373
% es.tEx (V/m) @ t=0.06
0.7681929027772259
% es.tEy (V/m) @ t=0.06
0
% es.tEz (V/m) @ t=0.06
-1.75456880960264
% V (V) @ t=0.06
0.009637796433859907
% es.normE (V/m) @ t=0.08
1.945381600216449
% es.EX (V/m) @ t=0.08
0.7753094441870874
% es.EY (V/m) @ t=0.08
0.20497737229893875
% es.EZ (V/m) @ t=0.08
-1.7708231659051368
% es.tEX (V/m) @ t=0.08
0.7753094441870876
% es.tEY (V/m) @ t=0.08
0
% es.tEZ (V/m) @ t=0.08
-1.7708231659051386
% es.Ex (V/m) @ t=0.08
0.7753094441870874
% es.Ey (V/m) @ t=0.08
0.20497737229893875
% es.Ez (V/m) @ t=0.08
-1.7708231659051368
% es.tEx (V/m) @ t=0.08
0.7753094441870876
% es.tEy (V/m) @ t=0.08
0
% es.tEz (V/m) @ t=0.08
-1.7708231659051386
% V (V) @ t=0.08
0.009727081961663865
% es.normE (V/m) @ t=0.1
1.9633695924065282
% es.EX (V/m) @ t=0.1
0.7824783410851603
% es.EY (V/m) @ t=0.1
0.2068726839665791
% es.EZ (V/m) @ t=0.1
-1.787197107316521
% es.tEX (V/m) @ t=0.1
0.7824783410851608
% es.tEY (V/m) @ t=0.1
0
% es.tEZ (V/m) @ t=0.1
-1.7871971073165227
% es.Ex (V/m) @ t=0.1
0.7824783410851603
% es.Ey (V/m) @ t=0.1
0.2068726839665791
% es.Ez (V/m) @ t=0.1
-1.787197107316521
% es.tEx (V/m) @ t=0.1
0.7824783410851608
% es.tEy (V/m) @ t=0.1
0
% es.tEz (V/m) @ t=0.1
-1.7871971073165227
% V (V) @ t=0.1
0.009817024498146885
% es.normE (V/m) @ t=0.12
1.9813575845966138
% es.EX (V/m) @ t=0.12
0.7896472379832369
% es.EY (V/m) @ t=0.12
0.2087679956342443
% es.EZ (V/m) @ t=0.12
-1.8035710487279077
% es.tEX (V/m) @ t=0.12
0.7896472379832336
% es.tEY (V/m) @ t=0.12
0
% es.tEZ (V/m) @ t=0.12
-1.8035710487279104
% es.Ex (V/m) @ t=0.12
0.7896472379832369
% es.Ey (V/m) @ t=0.12
0.2087679956342443
% es.Ez (V/m) @ t=0.12
-1.8035710487279077
% es.tEx (V/m) @ t=0.12
0.7896472379832336
% es.tEy (V/m) @ t=0.12
0
% es.tEz (V/m) @ t=0.12
-1.8035710487279104
% V (V) @ t=0.12
0.009906967034629906
% es.normE (V/m) @ t=0.14
1.9997264258183798
% es.EX (V/m) @ t=0.14
0.7969679277547908
% es.EY (V/m) @ t=0.14
0.21070344908546357
% es.EZ (V/m) @ t=0.14
-1.8202916602856885
% es.tEX (V/m) @ t=0.14
0.7969679277547912
% es.tEY (V/m) @ t=0.14
0
% es.tEZ (V/m) @ t=0.14
-1.8202916602856956
% es.Ex (V/m) @ t=0.14
0.7969679277547908
% es.Ey (V/m) @ t=0.14
0.21070344908546357
% es.Ez (V/m) @ t=0.14
-1.8202916602856885
% es.tEx (V/m) @ t=0.14
0.7969679277547912
% es.tEy (V/m) @ t=0.14
0
% es.tEz (V/m) @ t=0.14
-1.8202916602856956
% V (V) @ t=0.14
0.009998812935123988
% es.normE (V/m) @ t=0.16
2.0186410775786823
% es.EX (V/m) @ t=0.16
0.8045061581871398
% es.EY (V/m) @ t=0.16
0.21269643139115946
% es.EZ (V/m) @ t=0.16
-1.8375090992043353
% es.tEX (V/m) @ t=0.16
0.8045061581871402
% es.tEY (V/m) @ t=0.16
0
% es.tEZ (V/m) @ t=0.16
-1.8375090992043415
% es.Ex (V/m) @ t=0.16
0.8045061581871398
% es.Ey (V/m) @ t=0.16
0.21269643139115946
% es.Ez (V/m) @ t=0.16
-1.8375090992043353
% es.tEx (V/m) @ t=0.16
0.8045061581871402
% es.tEy (V/m) @ t=0.16
0
% es.tEz (V/m) @ t=0.16
-1.8375090992043415
% V (V) @ t=0.16
0.010093386625502028
% es.normE (V/m) @ t=0.18
2.0375557293389974
% es.EX (V/m) @ t=0.18
0.8120443886194957
% es.EY (V/m) @ t=0.18
0.21468941369685623
% es.EZ (V/m) @ t=0.18
-1.8547265381229927
% es.tEX (V/m) @ t=0.18
0.8120443886194959
% es.tEY (V/m) @ t=0.18
0
% es.tEZ (V/m) @ t=0.18
-1.854726538123007
% es.Ex (V/m) @ t=0.18
0.8120443886194957
% es.Ey (V/m) @ t=0.18
0.21468941369685623
% es.Ez (V/m) @ t=0.18
-1.8547265381229927
% es.tEx (V/m) @ t=0.18
0.8120443886194959
% es.tEy (V/m) @ t=0.18
0
% es.tEz (V/m) @ t=0.18
-1.854726538123007
% V (V) @ t=0.18
0.010187960315880068
% es.normE (V/m) @ t=0.2
2.0564703810993192
% es.EX (V/m) @ t=0.2
0.8195826190518589
% es.EY (V/m) @ t=0.2
0.21668239600256367
% es.EZ (V/m) @ t=0.2
-1.871943977041652
% es.tEX (V/m) @ t=0.2
0.8195826190518591
% es.tEY (V/m) @ t=0.2
0
% es.tEZ (V/m) @ t=0.2
-1.8719439770416493
% es.Ex (V/m) @ t=0.2
0.8195826190518589
% es.Ey (V/m) @ t=0.2
0.21668239600256367
% es.Ez (V/m) @ t=0.2
-1.871943977041652
% es.tEx (V/m) @ t=0.2
0.8195826190518591
% es.tEy (V/m) @ t=0.2
0
% es.tEz (V/m) @ t=0.2
-1.8719439770416493
% V (V) @ t=0.2
0.01028253400625811
% es.normE (V/m) @ t=0.22
2.0753850328596233
% es.EX (V/m) @ t=0.22
0.8271208494842073
% es.EY (V/m) @ t=0.22
0.218675378308256
% es.EZ (V/m) @ t=0.22
-1.8891614159603005
% es.tEX (V/m) @ t=0.22
0.8271208494842077
% es.tEY (V/m) @ t=0.22
0
% es.tEZ (V/m) @ t=0.22
-1.8891614159603058
% es.Ex (V/m) @ t=0.22
0.8271208494842073
% es.Ey (V/m) @ t=0.22
0.218675378308256
% es.Ez (V/m) @ t=0.22
-1.8891614159603005
% es.tEx (V/m) @ t=0.22
0.8271208494842077
% es.tEy (V/m) @ t=0.22
0
% es.tEz (V/m) @ t=0.22
-1.8891614159603058
% V (V) @ t=0.22
0.01037710769663615
% es.normE (V/m) @ t=0.24
2.0942996846199295
% es.EX (V/m) @ t=0.24
0.8346590799165492
% es.EY (V/m) @ t=0.24
0.22066836061393857
% es.EZ (V/m) @ t=0.24
-1.9063788548789544
% es.tEX (V/m) @ t=0.24
0.8346590799165496
% es.tEY (V/m) @ t=0.24
0
% es.tEZ (V/m) @ t=0.24
-1.9063788548789589
% es.Ex (V/m) @ t=0.24
0.8346590799165492
% es.Ey (V/m) @ t=0.24
0.22066836061393857
% es.Ez (V/m) @ t=0.24
-1.9063788548789544
% es.tEx (V/m) @ t=0.24
0.8346590799165496
% es.tEy (V/m) @ t=0.24
0
% es.tEz (V/m) @ t=0.24
-1.9063788548789589
% V (V) @ t=0.24
0.01047168138701419
% es.normE (V/m) @ t=0.26
2.1132143363802425
% es.EX (V/m) @ t=0.26
0.8421973103489089
% es.EY (V/m) @ t=0.26
0.22266134291963446
% es.EZ (V/m) @ t=0.26
-1.9235962937976057
% es.tEX (V/m) @ t=0.26
0.8421973103489058
% es.tEY (V/m) @ t=0.26
0
% es.tEZ (V/m) @ t=0.26
-1.9235962937976137
% es.Ex (V/m) @ t=0.26
0.8421973103489089
% es.Ey (V/m) @ t=0.26
0.22266134291963446
% es.Ez (V/m) @ t=0.26
-1.9235962937976057
% es.tEx (V/m) @ t=0.26
0.8421973103489058
% es.tEy (V/m) @ t=0.26
0
% es.tEz (V/m) @ t=0.26
-1.9235962937976137
% V (V) @ t=0.26
0.010566255077392228
% es.normE (V/m) @ t=0.28
2.1338558484682437
% es.EX (V/m) @ t=0.28
0.8504237437028412
% es.EY (V/m) @ t=0.28
0.22483625468908208
% es.EZ (V/m) @ t=0.28
-1.942385652002244
% es.tEX (V/m) @ t=0.28
0.8504237437028417
% es.tEY (V/m) @ t=0.28
0
% es.tEZ (V/m) @ t=0.28
-1.9423856520022476
% es.Ex (V/m) @ t=0.28
0.8504237437028412
% es.Ey (V/m) @ t=0.28
0.22483625468908208
% es.Ez (V/m) @ t=0.28
-1.942385652002244
% es.tEx (V/m) @ t=0.28
0.8504237437028417
% es.tEy (V/m) @ t=0.28
0
% es.tEz (V/m) @ t=0.28
-1.9423856520022476
% V (V) @ t=0.28
0.01066946482338945
% es.normE (V/m) @ t=0.3
2.1548470009790495
% es.EX (V/m) @ t=0.3
0.8587895187027557
% es.EY (V/m) @ t=0.3
0.2270480020344552
% es.EZ (V/m) @ t=0.3
-1.9614932794467057
% es.tEX (V/m) @ t=0.3
0.8587895187027561
% es.tEY (V/m) @ t=0.3
0
% es.tEZ (V/m) @ t=0.3
-1.9614932794467155
% es.Ex (V/m) @ t=0.3
0.8587895187027557
% es.Ey (V/m) @ t=0.3
0.2270480020344552
% es.Ez (V/m) @ t=0.3
-1.9614932794467057
% es.tEx (V/m) @ t=0.3
0.8587895187027561
% es.tEy (V/m) @ t=0.3
0
% es.tEz (V/m) @ t=0.3
-1.9614932794467155
% V (V) @ t=0.3
0.010774423126632253
% es.normE (V/m) @ t=0.32
2.175838153489858
% es.EX (V/m) @ t=0.32
0.8671552937026694
% es.EY (V/m) @ t=0.32
0.22925974937979365
% es.EZ (V/m) @ t=0.32
-1.9806009068911727
% es.tEX (V/m) @ t=0.32
0.8671552937026696
% es.tEY (V/m) @ t=0.32
0
% es.tEZ (V/m) @ t=0.32
-1.9806009068911834
% es.Ex (V/m) @ t=0.32
0.8671552937026694
% es.Ey (V/m) @ t=0.32
0.22925974937979365
% es.Ez (V/m) @ t=0.32
-1.9806009068911727
% es.tEx (V/m) @ t=0.32
0.8671552937026696
% es.tEy (V/m) @ t=0.32
0
% es.tEz (V/m) @ t=0.32
-1.9806009068911834
% V (V) @ t=0.32
0.010879381429875054
% es.normE (V/m) @ t=0.34
2.196829306000664
% es.EX (V/m) @ t=0.34
0.8755210687025943
% es.EY (V/m) @ t=0.34
0.231471496725149
% es.EZ (V/m) @ t=0.34
-1.999708534335631
% es.tEX (V/m) @ t=0.34
0.8755210687025912
% es.tEY (V/m) @ t=0.34
0
% es.tEZ (V/m) @ t=0.34
-1.9997085343356442
% es.Ex (V/m) @ t=0.34
0.8755210687025943
% es.Ey (V/m) @ t=0.34
0.231471496725149
% es.Ez (V/m) @ t=0.34
-1.999708534335631
% es.tEx (V/m) @ t=0.34
0.8755210687025912
% es.tEy (V/m) @ t=0.34
0
% es.tEz (V/m) @ t=0.34
-1.9997085343356442
% V (V) @ t=0.34
0.010984339733117856
% es.normE (V/m) @ t=0.36
2.2178204585114747
% es.EX (V/m) @ t=0.36
0.8838868437025116
% es.EY (V/m) @ t=0.36
0.23368324407048036
% es.EZ (V/m) @ t=0.36
-2.0188161617801006
% es.tEX (V/m) @ t=0.36
0.8838868437025118
% es.tEY (V/m) @ t=0.36
0
% es.tEZ (V/m) @ t=0.36
-2.0188161617801033
% es.Ex (V/m) @ t=0.36
0.8838868437025116
% es.Ey (V/m) @ t=0.36
0.23368324407048036
% es.Ez (V/m) @ t=0.36
-2.0188161617801006
% es.tEx (V/m) @ t=0.36
0.8838868437025118
% es.tEy (V/m) @ t=0.36
0
% es.tEz (V/m) @ t=0.36
-2.0188161617801033
% V (V) @ t=0.36
0.011089298036360658
% es.normE (V/m) @ t=0.38
2.238811611022274
% es.EX (V/m) @ t=0.38
0.89225261870243
% es.EY (V/m) @ t=0.38
0.23589499141583925
% es.EZ (V/m) @ t=0.38
-2.0379237892245543
% es.tEX (V/m) @ t=0.38
0.8922526187024338
% es.tEY (V/m) @ t=0.38
0
% es.tEZ (V/m) @ t=0.38
-2.0379237892245676
% es.Ex (V/m) @ t=0.38
0.89225261870243
% es.Ey (V/m) @ t=0.38
0.23589499141583925
% es.Ez (V/m) @ t=0.38
-2.0379237892245543
% es.tEx (V/m) @ t=0.38
0.8922526187024338
% es.tEy (V/m) @ t=0.38
0
% es.tEz (V/m) @ t=0.38
-2.0379237892245676
% V (V) @ t=0.38
0.01119425633960346
% es.normE (V/m) @ t=0.4
2.2598027635330844
% es.EX (V/m) @ t=0.4
0.9006183937023406
% es.EY (V/m) @ t=0.4
0.23810673876118393
% es.EZ (V/m) @ t=0.4
-2.057031416669023
% es.tEX (V/m) @ t=0.4
0.9006183937023411
% es.tEY (V/m) @ t=0.4
0
% es.tEZ (V/m) @ t=0.4
-2.05703141666903
% es.Ex (V/m) @ t=0.4
0.9006183937023406
% es.Ey (V/m) @ t=0.4
0.23810673876118393
% es.Ez (V/m) @ t=0.4
-2.057031416669023
% es.tEx (V/m) @ t=0.4
0.9006183937023411
% es.tEy (V/m) @ t=0.4
0
% es.tEz (V/m) @ t=0.4
-2.05703141666903
% V (V) @ t=0.4
0.01129921464284626
% es.normE (V/m) @ t=0.42
2.2807939160438977
% es.EX (V/m) @ t=0.42
0.9089841687022757
% es.EY (V/m) @ t=0.42
0.24031848610652062
% es.EZ (V/m) @ t=0.42
-2.0761390441134866
% es.tEX (V/m) @ t=0.42
0.9089841687022759
% es.tEY (V/m) @ t=0.42
0
% es.tEZ (V/m) @ t=0.42
-2.0761390441134893
% es.Ex (V/m) @ t=0.42
0.9089841687022757
% es.Ey (V/m) @ t=0.42
0.24031848610652062
% es.Ez (V/m) @ t=0.42
-2.0761390441134866
% es.tEx (V/m) @ t=0.42
0.9089841687022759
% es.tEy (V/m) @ t=0.42
0
% es.tEz (V/m) @ t=0.42
-2.0761390441134893
% V (V) @ t=0.42
0.011404172946089062
% es.normE (V/m) @ t=0.44
2.3017850685547137
% es.EX (V/m) @ t=0.44
0.9173499437022037
% es.EY (V/m) @ t=0.44
0.24253023345188574
% es.EZ (V/m) @ t=0.44
-2.0952466715579527
% es.tEX (V/m) @ t=0.44
0.9173499437022041
% es.tEY (V/m) @ t=0.44
0
% es.tEZ (V/m) @ t=0.44
-2.0952466715579554
% es.Ex (V/m) @ t=0.44
0.9173499437022037
% es.Ey (V/m) @ t=0.44
0.24253023345188574
% es.Ez (V/m) @ t=0.44
-2.0952466715579527
% es.tEx (V/m) @ t=0.44
0.9173499437022041
% es.tEy (V/m) @ t=0.44
0
% es.tEz (V/m) @ t=0.44
-2.0952466715579554
% V (V) @ t=0.44
0.011509131249331863
% es.normE (V/m) @ t=0.46
2.322776221065507
% es.EX (V/m) @ t=0.46
0.9257157187021037
% es.EY (V/m) @ t=0.46
0.24474198079721265
% es.EZ (V/m) @ t=0.46
-2.114354299002411
% es.tEX (V/m) @ t=0.46
0.9257157187021039
% es.tEY (V/m) @ t=0.46
0
% es.tEZ (V/m) @ t=0.46
-2.114354299002411
% es.Ex (V/m) @ t=0.46
0.9257157187021037
% es.Ey (V/m) @ t=0.46
0.24474198079721265
% es.Ez (V/m) @ t=0.46
-2.114354299002411
% es.tEx (V/m) @ t=0.46
0.9257157187021039
% es.tEy (V/m) @ t=0.46
0
% es.tEz (V/m) @ t=0.46
-2.114354299002411
% V (V) @ t=0.46
0.011614089552574666
% es.normE (V/m) @ t=0.48
2.34376737357632
% es.EX (V/m) @ t=0.48
0.9340814937020245
% es.EY (V/m) @ t=0.48
0.24695372814256533
% es.EZ (V/m) @ t=0.48
-2.133461926446878
% es.tEX (V/m) @ t=0.48
0.934081493702025
% es.tEY (V/m) @ t=0.48
0
% es.tEZ (V/m) @ t=0.48
-2.1334619264468806
% es.Ex (V/m) @ t=0.48
0.9340814937020245
% es.Ey (V/m) @ t=0.48
0.24695372814256533
% es.Ez (V/m) @ t=0.48
-2.133461926446878
% es.tEx (V/m) @ t=0.48
0.934081493702025
% es.tEy (V/m) @ t=0.48
0
% es.tEz (V/m) @ t=0.48
-2.1334619264468806
% V (V) @ t=0.48
0.011719047855817469
% es.normE (V/m) @ t=0.5
2.3647585260871287
% es.EX (V/m) @ t=0.5
0.942447268701953
% es.EY (V/m) @ t=0.5
0.24916547548789492
% es.EZ (V/m) @ t=0.5
-2.1525695538913396
% es.tEX (V/m) @ t=0.5
0.9424472687019532
% es.tEY (V/m) @ t=0.5
0
% es.tEZ (V/m) @ t=0.5
-2.1525695538913467
% es.Ex (V/m) @ t=0.5
0.942447268701953
% es.Ey (V/m) @ t=0.5
0.24916547548789492
% es.Ez (V/m) @ t=0.5
-2.1525695538913396
% es.tEx (V/m) @ t=0.5
0.9424472687019532
% es.tEy (V/m) @ t=0.5
0
% es.tEz (V/m) @ t=0.5
-2.1525695538913467
% V (V) @ t=0.5
0.01182400615906027
% es.normE (V/m) @ t=0.52
2.3857496785979397
% es.EX (V/m) @ t=0.52
0.9508130437018809
% es.EY (V/m) @ t=0.52
0.25137722283324404
% es.EZ (V/m) @ t=0.52
-2.1716771813358022
% es.tEX (V/m) @ t=0.52
0.9508130437018814
% es.tEY (V/m) @ t=0.52
0
% es.tEZ (V/m) @ t=0.52
-2.171677181335806
% es.Ex (V/m) @ t=0.52
0.9508130437018809
% es.Ey (V/m) @ t=0.52
0.25137722283324404
% es.Ez (V/m) @ t=0.52
-2.1716771813358022
% es.tEx (V/m) @ t=0.52
0.9508130437018814
% es.tEy (V/m) @ t=0.52
0
% es.tEz (V/m) @ t=0.52
-2.171677181335806
% V (V) @ t=0.52
0.011928964462303071
% es.normE (V/m) @ t=0.54
2.4083159615696417
% es.EX (V/m) @ t=0.54
0.9598067584993049
% es.EY (V/m) @ t=0.54
0.2537551892808514
% es.EZ (V/m) @ t=0.54
-2.1922184989675113
% es.tEX (V/m) @ t=0.54
0.9598067584993051
% es.tEY (V/m) @ t=0.54
0
% es.tEZ (V/m) @ t=0.54
-2.1922184989675166
% es.Ex (V/m) @ t=0.54
0.9598067584993049
% es.Ey (V/m) @ t=0.54
0.2537551892808514
% es.Ez (V/m) @ t=0.54
-2.1922184989675113
% es.tEx (V/m) @ t=0.54
0.9598067584993051
% es.tEy (V/m) @ t=0.54
0
% es.tEz (V/m) @ t=0.54
-2.1922184989675166
% V (V) @ t=0.54
0.012041780892077192
% es.normE (V/m) @ t=0.56
2.4316479980165657
% es.EX (V/m) @ t=0.56
0.9691057477448486
% es.EY (V/m) @ t=0.56
0.2562139635462275
% es.EZ (V/m) @ t=0.56
-2.213456808543917
% es.tEX (V/m) @ t=0.56
0.9691057477448419
% es.tEY (V/m) @ t=0.56
0
% es.tEZ (V/m) @ t=0.56
-2.213456808543924
% es.Ex (V/m) @ t=0.56
0.9691057477448486
% es.Ey (V/m) @ t=0.56
0.2562139635462275
% es.Ez (V/m) @ t=0.56
-2.213456808543917
% es.tEx (V/m) @ t=0.56
0.9691057477448419
% es.tEy (V/m) @ t=0.56
0
% es.tEz (V/m) @ t=0.56
-2.213456808543924
% V (V) @ t=0.56
0.012158417569029878
% es.normE (V/m) @ t=0.58
2.4549800344635915
% es.EX (V/m) @ t=0.58
0.9784047369903655
% es.EY (V/m) @ t=0.58
0.2586727378115814
% es.EZ (V/m) @ t=0.58
-2.234695118120312
% es.tEX (V/m) @ t=0.58
0.9784047369903588
% es.tEY (V/m) @ t=0.58
0
% es.tEZ (V/m) @ t=0.58
-2.2346951181203174
% es.Ex (V/m) @ t=0.58
0.9784047369903655
% es.Ey (V/m) @ t=0.58
0.2586727378115814
% es.Ez (V/m) @ t=0.58
-2.234695118120312
% es.tEx (V/m) @ t=0.58
0.9784047369903588
% es.tEy (V/m) @ t=0.58
0
% es.tEz (V/m) @ t=0.58
-2.2346951181203174
% V (V) @ t=0.58
0.012275054245982556
% es.normE (V/m) @ t=0.6
2.4783120709107607
% es.EX (V/m) @ t=0.6
0.9877037262359094
% es.EY (V/m) @ t=0.6
0.26113151207691043
% es.EZ (V/m) @ t=0.6
-2.255933427696725
% es.tEX (V/m) @ t=0.6
0.9877037262359094
% es.tEY (V/m) @ t=0.6
0
% es.tEZ (V/m) @ t=0.6
-2.2559334276967284
% es.Ex (V/m) @ t=0.6
0.9877037262359094
% es.Ey (V/m) @ t=0.6
0.26113151207691043
% es.Ez (V/m) @ t=0.6
-2.255933427696725
% es.tEx (V/m) @ t=0.6
0.9877037262359094
% es.tEy (V/m) @ t=0.6
0
% es.tEz (V/m) @ t=0.6
-2.2559334276967284
% V (V) @ t=0.6
0.012391690922935242
% es.normE (V/m) @ t=0.62
2.501644107358027
% es.EX (V/m) @ t=0.62
0.99700271548144
% es.EY (V/m) @ t=0.62
0.2635902863422652
% es.EZ (V/m) @ t=0.62
-2.277171737273118
% es.tEX (V/m) @ t=0.62
0.9970027154814405
% es.tEY (V/m) @ t=0.62
0
% es.tEZ (V/m) @ t=0.62
-2.2771717372731253
% es.Ex (V/m) @ t=0.62
0.99700271548144
% es.Ey (V/m) @ t=0.62
0.2635902863422652
% es.Ez (V/m) @ t=0.62
-2.277171737273118
% es.tEx (V/m) @ t=0.62
0.9970027154814405
% es.tEy (V/m) @ t=0.62
0
% es.tEz (V/m) @ t=0.62
-2.2771717372731253
% V (V) @ t=0.62
0.012508327599887924
% es.normE (V/m) @ t=0.64
2.5249761438054206
% es.EX (V/m) @ t=0.64
1.0063017047269702
% es.EY (V/m) @ t=0.64
0.26604906060762357
% es.EZ (V/m) @ t=0.64
-2.2984100468495257
% es.tEX (V/m) @ t=0.64
1.0063017047269636
% es.tEY (V/m) @ t=0.64
0
% es.tEZ (V/m) @ t=0.64
-2.2984100468495363
% es.Ex (V/m) @ t=0.64
1.0063017047269702
% es.Ey (V/m) @ t=0.64
0.26604906060762357
% es.Ez (V/m) @ t=0.64
-2.2984100468495257
% es.tEx (V/m) @ t=0.64
1.0063017047269636
% es.tEy (V/m) @ t=0.64
0
% es.tEz (V/m) @ t=0.64
-2.2984100468495363
% V (V) @ t=0.64
0.012624964276840605
% es.normE (V/m) @ t=0.66
2.548308180252915
% es.EX (V/m) @ t=0.66
1.0156006939724862
% es.EY (V/m) @ t=0.66
0.2685078348729819
% es.EZ (V/m) @ t=0.66
-2.319648356425928
% es.tEX (V/m) @ t=0.66
1.0156006939724866
% es.tEY (V/m) @ t=0.66
0
% es.tEZ (V/m) @ t=0.66
-2.319648356425933
% es.Ex (V/m) @ t=0.66
1.0156006939724862
% es.Ey (V/m) @ t=0.66
0.2685078348729819
% es.Ez (V/m) @ t=0.66
-2.319648356425928
% es.tEx (V/m) @ t=0.66
1.0156006939724866
% es.tEy (V/m) @ t=0.66
0
% es.tEz (V/m) @ t=0.66
-2.319648356425933
% V (V) @ t=0.66
0.012741600953793288
% es.normE (V/m) @ t=0.68
2.571640216700525
% es.EX (V/m) @ t=0.68
1.0248996832180244
% es.EY (V/m) @ t=0.68
0.2709666091383216
% es.EZ (V/m) @ t=0.68
-2.3408866660023318
% es.tEX (V/m) @ t=0.68
1.0248996832180248
% es.tEY (V/m) @ t=0.68
0
% es.tEZ (V/m) @ t=0.68
-2.3408866660023335
% es.Ex (V/m) @ t=0.68
1.0248996832180244
% es.Ey (V/m) @ t=0.68
0.2709666091383216
% es.Ez (V/m) @ t=0.68
-2.3408866660023318
% es.tEx (V/m) @ t=0.68
1.0248996832180248
% es.tEy (V/m) @ t=0.68
0
% es.tEz (V/m) @ t=0.68
-2.3408866660023335
% V (V) @ t=0.68
0.01285823763074597
% es.normE (V/m) @ t=0.7
2.594972253148234
% es.EX (V/m) @ t=0.7
1.0341986724635608
% es.EY (V/m) @ t=0.7
0.2734253834036773
% es.EZ (V/m) @ t=0.7
-2.3621249755787286
% es.tEX (V/m) @ t=0.7
1.0341986724635612
% es.tEY (V/m) @ t=0.7
0
% es.tEZ (V/m) @ t=0.7
-2.3621249755787304
% es.Ex (V/m) @ t=0.7
1.0341986724635608
% es.Ey (V/m) @ t=0.7
0.2734253834036773
% es.Ez (V/m) @ t=0.7
-2.3621249755787286
% es.tEx (V/m) @ t=0.7
1.0341986724635612
% es.tEy (V/m) @ t=0.7
0
% es.tEz (V/m) @ t=0.7
-2.3621249755787304
% V (V) @ t=0.7
0.01297487430769865
% es.normE (V/m) @ t=0.72
2.618304289596046
% es.EX (V/m) @ t=0.72
1.0434976617090768
% es.EY (V/m) @ t=0.72
0.27588415766902763
% es.EZ (V/m) @ t=0.72
-2.383363285155136
% es.tEX (V/m) @ t=0.72
1.0434976617090843
% es.tEY (V/m) @ t=0.72
0
% es.tEZ (V/m) @ t=0.72
-2.3833632851551485
% es.Ex (V/m) @ t=0.72
1.0434976617090768
% es.Ey (V/m) @ t=0.72
0.27588415766902763
% es.Ez (V/m) @ t=0.72
-2.383363285155136
% es.tEx (V/m) @ t=0.72
1.0434976617090843
% es.tEy (V/m) @ t=0.72
0
% es.tEz (V/m) @ t=0.72
-2.3833632851551485
% V (V) @ t=0.72
0.013091510984651333
% es.normE (V/m) @ t=0.74
2.6416363260439724
% es.EX (V/m) @ t=0.74
1.0527966509546212
% es.EY (V/m) @ t=0.74
0.2783429319343833
% es.EZ (V/m) @ t=0.74
-2.404601594731547
% es.tEX (V/m) @ t=0.74
1.0527966509546216
% es.tEY (V/m) @ t=0.74
0
% es.tEZ (V/m) @ t=0.74
-2.404601594731556
% es.Ex (V/m) @ t=0.74
1.0527966509546212
% es.Ey (V/m) @ t=0.74
0.2783429319343833
% es.Ez (V/m) @ t=0.74
-2.404601594731547
% es.tEx (V/m) @ t=0.74
1.0527966509546216
% es.tEy (V/m) @ t=0.74
0
% es.tEz (V/m) @ t=0.74
-2.404601594731556
% V (V) @ t=0.74
0.013208147661604018
% es.normE (V/m) @ t=0.76
2.6649683624919733
% es.EX (V/m) @ t=0.76
1.0620956402001451
% es.EY (V/m) @ t=0.76
0.28080170619972655
% es.EZ (V/m) @ t=0.76
-2.425839904307944
% es.tEX (V/m) @ t=0.76
1.0620956402001456
% es.tEY (V/m) @ t=0.76
0
% es.tEZ (V/m) @ t=0.76
-2.4258399043079493
% es.Ex (V/m) @ t=0.76
1.0620956402001451
% es.Ey (V/m) @ t=0.76
0.28080170619972655
% es.Ez (V/m) @ t=0.76
-2.425839904307944
% es.tEx (V/m) @ t=0.76
1.0620956402001456
% es.tEy (V/m) @ t=0.76
0
% es.tEz (V/m) @ t=0.76
-2.4258399043079493
% V (V) @ t=0.76
0.0133247843385567
% es.normE (V/m) @ t=0.78
2.6883003989400875
% es.EX (V/m) @ t=0.78
1.0713946294456895
% es.EY (V/m) @ t=0.78
0.28326048046508134
% es.EZ (V/m) @ t=0.78
-2.4470782138843514
% es.tEX (V/m) @ t=0.78
1.0713946294456829
% es.tEY (V/m) @ t=0.78
0
% es.tEZ (V/m) @ t=0.78
-2.447078213884353
% es.Ex (V/m) @ t=0.78
1.0713946294456895
% es.Ey (V/m) @ t=0.78
0.28326048046508134
% es.Ez (V/m) @ t=0.78
-2.4470782138843514
% es.tEx (V/m) @ t=0.78
1.0713946294456829
% es.tEy (V/m) @ t=0.78
0
% es.tEz (V/m) @ t=0.78
-2.447078213884353
% V (V) @ t=0.78
0.01344142101550938
% es.normE (V/m) @ t=0.8
2.7129926558753215
% es.EX (V/m) @ t=0.8
1.0812359279078652
% es.EY (V/m) @ t=0.8
0.28586285485386664
% es.EZ (V/m) @ t=0.8
-2.469554576915856
% es.tEX (V/m) @ t=0.8
1.0812359279078656
% es.tEY (V/m) @ t=0.8
0
% es.tEZ (V/m) @ t=0.8
-2.469554576915858
% es.Ex (V/m) @ t=0.8
1.0812359279078652
% es.Ey (V/m) @ t=0.8
0.28586285485386664
% es.Ez (V/m) @ t=0.8
-2.469554576915856
% es.tEx (V/m) @ t=0.8
1.0812359279078656
% es.tEy (V/m) @ t=0.8
0
% es.tEz (V/m) @ t=0.8
-2.469554576915858
% V (V) @ t=0.8
0.013564839559268915
% es.normE (V/m) @ t=0.82
2.738970332487319
% es.EX (V/m) @ t=0.82
1.0915897130913579
% es.EY (V/m) @ t=0.82
0.28860093255397157
% es.EZ (V/m) @ t=0.82
-2.4932009107621145
% es.tEX (V/m) @ t=0.82
1.0915897130913583
% es.tEY (V/m) @ t=0.82
0
% es.tEZ (V/m) @ t=0.82
-2.4932009107621305
% es.Ex (V/m) @ t=0.82
1.0915897130913579
% es.Ey (V/m) @ t=0.82
0.28860093255397157
% es.Ez (V/m) @ t=0.82
-2.4932009107621145
% es.tEx (V/m) @ t=0.82
1.0915897130913583
% es.tEy (V/m) @ t=0.82
0
% es.tEz (V/m) @ t=0.82
-2.4932009107621305
% V (V) @ t=0.82
0.013694667023581008
% es.normE (V/m) @ t=0.84
2.7649480090999226
% es.EX (V/m) @ t=0.84
1.1019434982748648
% es.EY (V/m) @ t=0.84
0.29133901025404185
% es.EZ (V/m) @ t=0.84
-2.5168472446083676
% es.tEX (V/m) @ t=0.84
1.1019434982748653
% es.tEY (V/m) @ t=0.84
0
% es.tEZ (V/m) @ t=0.84
-2.516847244608371
% es.Ex (V/m) @ t=0.84
1.1019434982748648
% es.Ey (V/m) @ t=0.84
0.29133901025404185
% es.Ez (V/m) @ t=0.84
-2.5168472446083676
% es.tEx (V/m) @ t=0.84
1.1019434982748653
% es.tEy (V/m) @ t=0.84
0
% es.tEz (V/m) @ t=0.84
-2.516847244608371
% V (V) @ t=0.84
0.013824494487893099
% es.normE (V/m) @ t=0.86
2.7909256857131375
% es.EX (V/m) @ t=0.86
1.1122972834583718
% es.EY (V/m) @ t=0.86
0.2940770879541539
% es.EZ (V/m) @ t=0.86
-2.540493578454635
% es.tEX (V/m) @ t=0.86
1.1122972834583722
% es.tEY (V/m) @ t=0.86
0
% es.tEZ (V/m) @ t=0.86
-2.5404935784546403
% es.Ex (V/m) @ t=0.86
1.1122972834583718
% es.Ey (V/m) @ t=0.86
0.2940770879541539
% es.Ez (V/m) @ t=0.86
-2.540493578454635
% es.tEx (V/m) @ t=0.86
1.1122972834583722
% es.tEy (V/m) @ t=0.86
0
% es.tEz (V/m) @ t=0.86
-2.5404935784546403
% V (V) @ t=0.86
0.01395432195220519
% es.normE (V/m) @ t=0.88
2.816903362326921
% es.EX (V/m) @ t=0.88
1.1226510686418725
% es.EY (V/m) @ t=0.88
0.2968151656542366
% es.EZ (V/m) @ t=0.88
-2.5641399123009005
% es.tEX (V/m) @ t=0.88
1.1226510686418658
% es.tEY (V/m) @ t=0.88
0
% es.tEZ (V/m) @ t=0.88
-2.564139912300913
% es.Ex (V/m) @ t=0.88
1.1226510686418725
% es.Ey (V/m) @ t=0.88
0.2968151656542366
% es.Ez (V/m) @ t=0.88
-2.5641399123009005
% es.tEx (V/m) @ t=0.88
1.1226510686418658
% es.tEy (V/m) @ t=0.88
0
% es.tEz (V/m) @ t=0.88
-2.564139912300913
% V (V) @ t=0.88
0.014084149416517281
% es.normE (V/m) @ t=0.9
2.8428810389412646
% es.EX (V/m) @ t=0.9
1.1330048538253865
% es.EY (V/m) @ t=0.9
0.29955324335433087
% es.EZ (V/m) @ t=0.9
-2.587786246147159
% es.tEX (V/m) @ t=0.9
1.133004853825387
% es.tEY (V/m) @ t=0.9
0
% es.tEZ (V/m) @ t=0.9
-2.5877862461471643
% es.Ex (V/m) @ t=0.9
1.1330048538253865
% es.Ey (V/m) @ t=0.9
0.29955324335433087
% es.Ez (V/m) @ t=0.9
-2.587786246147159
% es.tEx (V/m) @ t=0.9
1.133004853825387
% es.tEy (V/m) @ t=0.9
0
% es.tEz (V/m) @ t=0.9
-2.5877862461471643
% V (V) @ t=0.9
0.014213976880829373
% es.normE (V/m) @ t=0.92
2.868858715556157
% es.EX (V/m) @ t=0.92
1.1433586390088997
% es.EY (V/m) @ t=0.92
0.3022913210544127
% es.EZ (V/m) @ t=0.92
-2.611432579993421
% es.tEX (V/m) @ t=0.92
1.143358639008893
% es.tEY (V/m) @ t=0.92
0
% es.tEZ (V/m) @ t=0.92
-2.6114325799934264
% es.Ex (V/m) @ t=0.92
1.1433586390088997
% es.Ey (V/m) @ t=0.92
0.3022913210544127
% es.Ez (V/m) @ t=0.92
-2.611432579993421
% es.tEx (V/m) @ t=0.92
1.143358639008893
% es.tEy (V/m) @ t=0.92
0
% es.tEz (V/m) @ t=0.92
-2.6114325799934264
% V (V) @ t=0.92
0.014343804345141466
% es.normE (V/m) @ t=0.94
2.8948363921715723
% es.EX (V/m) @ t=0.94
1.1537124241923933
% es.EY (V/m) @ t=0.94
0.3050293987545203
% es.EZ (V/m) @ t=0.94
-2.6350789138396795
% es.tEX (V/m) @ t=0.94
1.1537124241923866
% es.tEY (V/m) @ t=0.94
0
% es.tEZ (V/m) @ t=0.94
-2.635078913839692
% es.Ex (V/m) @ t=0.94
1.1537124241923933
% es.Ey (V/m) @ t=0.94
0.3050293987545203
% es.Ez (V/m) @ t=0.94
-2.6350789138396795
% es.tEx (V/m) @ t=0.94
1.1537124241923866
% es.tEy (V/m) @ t=0.94
0
% es.tEz (V/m) @ t=0.94
-2.635078913839692
% V (V) @ t=0.94
0.014473631809453557
% es.normE (V/m) @ t=0.96
2.9208140687875153
% es.EX (V/m) @ t=0.96
1.1640662093759215
% es.EY (V/m) @ t=0.96
0.3077674764545719
% es.EZ (V/m) @ t=0.96
-2.658725247685945
% es.tEX (V/m) @ t=0.96
1.164066209375922
% es.tEY (V/m) @ t=0.96
0
% es.tEZ (V/m) @ t=0.96
-2.6587252476859504
% es.Ex (V/m) @ t=0.96
1.1640662093759215
% es.Ey (V/m) @ t=0.96
0.3077674764545719
% es.Ez (V/m) @ t=0.96
-2.658725247685945
% es.tEx (V/m) @ t=0.96
1.164066209375922
% es.tEy (V/m) @ t=0.96
0
% es.tEz (V/m) @ t=0.96
-2.6587252476859504
% V (V) @ t=0.96
0.01460345927376565
% es.normE (V/m) @ t=0.98
2.946791745403955
% es.EX (V/m) @ t=0.98
1.1744199945594294
% es.EY (V/m) @ t=0.98
0.31050555415467684
% es.EZ (V/m) @ t=0.98
-2.6823715815322036
% es.tEX (V/m) @ t=0.98
1.1744199945594298
% es.tEY (V/m) @ t=0.98
0
% es.tEZ (V/m) @ t=0.98
-2.682371581532209
% es.Ex (V/m) @ t=0.98
1.1744199945594294
% es.Ey (V/m) @ t=0.98
0.31050555415467684
% es.Ez (V/m) @ t=0.98
-2.6823715815322036
% es.tEx (V/m) @ t=0.98
1.1744199945594298
% es.tEy (V/m) @ t=0.98
0
% es.tEz (V/m) @ t=0.98
-2.682371581532209
% V (V) @ t=0.98
0.014733286738077741
% es.normE (V/m) @ t=1
2.972769422020874
% es.EX (V/m) @ t=1
1.1847737797429212
% es.EY (V/m) @ t=1
0.31324363185478266
% es.EZ (V/m) @ t=1
-2.7060179153784585
% es.tEX (V/m) @ t=1
1.1847737797429216
% es.tEY (V/m) @ t=1
0
% es.tEZ (V/m) @ t=1
-2.706017915378464
% es.Ex (V/m) @ t=1
1.1847737797429212
% es.Ey (V/m) @ t=1
0.31324363185478266
% es.Ez (V/m) @ t=1
-2.7060179153784585
% es.tEx (V/m) @ t=1
1.1847737797429216
% es.tEy (V/m) @ t=1
0
% es.tEz (V/m) @ t=1
-2.706017915378464
% V (V) @ t=1
0.014863114202389834
% es.normE (V/m) @ t=1.02
2.998747098638285
% es.EX (V/m) @ t=1.02
1.1951275649264281
% es.EY (V/m) @ t=1.02
0.3159817095548698
% es.EZ (V/m) @ t=1.02
-2.729664249224724
% es.tEX (V/m) @ t=1.02
1.1951275649264286
% es.tEY (V/m) @ t=1.02
0
% es.tEZ (V/m) @ t=1.02
-2.7296642492247294
% es.Ex (V/m) @ t=1.02
1.1951275649264281
% es.Ey (V/m) @ t=1.02
0.3159817095548698
% es.Ez (V/m) @ t=1.02
-2.729664249224724
% es.tEx (V/m) @ t=1.02
1.1951275649264286
% es.tEy (V/m) @ t=1.02
0
% es.tEz (V/m) @ t=1.02
-2.7296642492247294
% V (V) @ t=1.02
0.014992941666701922
% es.normE (V/m) @ t=1.04
3.024724775256157
% es.EX (V/m) @ t=1.04
1.2054813501099502
% es.EY (V/m) @ t=1.04
0.31871978725494987
% es.EZ (V/m) @ t=1.04
-2.7533105830709825
% es.tEX (V/m) @ t=1.04
1.2054813501099506
% es.tEY (V/m) @ t=1.04
0
% es.tEZ (V/m) @ t=1.04
-2.753310583070995