% Model:              1 neuron.mph
% Version:            COMSOL 6.0.0.405
% Date:               Mar 16 2023, 18:01
% Dimension:          0
% Nodes:              14017
% Expressions:        14017
% Description:        Electric field norm, Electric field, X component, Electric field, Y component, Electric field, Z component, Tangential electric field, X component, Tangential electric field, Y component, Tangential electric field, Z component, Electric field, x component, Electric field, y component, Electric field, z component, Tangential electric field, x component, Tangential electric field, y component, Tangential electric field, z component, Electric potential
% Length unit:        mm
% x
1.66
% y
12.2
% z
1.33
% es.normE (V/m) @ t=0
11.451158231972265
% es.EX (V/m) @ t=0
-6.36272696125468
% es.EY (V/m) @ t=0
-0.6868011574656907
% es.EZ (V/m) @ t=0
8.519648381892855
% es.tEX (V/m) @ t=0
-6.362726961254689
% es.tEY (V/m) @ t=0
0
% es.tEZ (V/m) @ t=0
8.51964838189285
% es.Ex (V/m) @ t=0
-6.36272696125468
% es.Ey (V/m) @ t=0
-0.6868011574656907
% es.Ez (V/m) @ t=0
8.519648381892855
% es.tEx (V/m) @ t=0
-6.362726961254689
% es.tEy (V/m) @ t=0
0
% es.tEz (V/m) @ t=0
8.51964838189285
% V (V) @ t=0
0.009404436249669633
% es.normE (V/m) @ t=0.02
9.89057987468653
% es.EX (V/m) @ t=0.02
-5.495606642223323
% es.EY (V/m) @ t=0.02
-0.593202805276126
% es.EZ (V/m) @ t=0.02
7.358579883841537
% es.tEX (V/m) @ t=0.02
-5.495606642223322
% es.tEY (V/m) @ t=0.02
0
% es.tEZ (V/m) @ t=0.02
7.358579883841526
% es.Ex (V/m) @ t=0.02
-5.495606642223323
% es.Ey (V/m) @ t=0.02
-0.593202805276126
% es.Ez (V/m) @ t=0.02
7.358579883841537
% es.tEx (V/m) @ t=0.02
-5.495606642223322
% es.tEy (V/m) @ t=0.02
0
% es.tEz (V/m) @ t=0.02
7.358579883841526
% V (V) @ t=0.02
0.00812278740321696
% es.normE (V/m) @ t=0.04
9.981560696865095
% es.EX (V/m) @ t=0.04
-5.546159294986828
% es.EY (V/m) @ t=0.04
-0.5986594909720906
% es.EZ (V/m) @ t=0.04
7.4262695064078565
% es.tEX (V/m) @ t=0.04
-5.546159294986845
% es.tEY (V/m) @ t=0.04
0
% es.tEZ (V/m) @ t=0.04
7.426269506407849
% es.Ex (V/m) @ t=0.04
-5.546159294986828
% es.Ey (V/m) @ t=0.04
-0.5986594909720906
% es.Ez (V/m) @ t=0.04
7.4262695064078565
% es.tEx (V/m) @ t=0.04
-5.546159294986845
% es.tEy (V/m) @ t=0.04
0
% es.tEz (V/m) @ t=0.04
7.426269506407849
% V (V) @ t=0.04
0.008197506722665317
% es.normE (V/m) @ t=0.06
10.073272722119619
% es.EX (V/m) @ t=0.06
-5.597118043102572
% es.EY (V/m) @ t=0.06
-0.6041602674369582
% es.EZ (V/m) @ t=0.06
7.494503165240904
% es.tEX (V/m) @ t=0.06
-5.597118043102582
% es.tEY (V/m) @ t=0.06
0
% es.tEZ (V/m) @ t=0.06
7.494503165240894
% es.Ex (V/m) @ t=0.06
-5.597118043102572
% es.Ey (V/m) @ t=0.06
-0.6041602674369582
% es.Ez (V/m) @ t=0.06
7.494503165240904
% es.tEx (V/m) @ t=0.06
-5.597118043102582
% es.tEy (V/m) @ t=0.06
0
% es.tEz (V/m) @ t=0.06
7.494503165240894
% V (V) @ t=0.06
0.008272826936712812
% es.normE (V/m) @ t=0.08
10.166592008303159
% es.EX (V/m) @ t=0.08
-5.648969750767279
% es.EY (V/m) @ t=0.08
-0.6097575662518595
% es.EZ (V/m) @ t=0.08
7.563932635217455
% es.tEX (V/m) @ t=0.08
-5.648969750767285
% es.tEY (V/m) @ t=0.08
0
% es.tEZ (V/m) @ t=0.08
7.563932635217444
% es.Ex (V/m) @ t=0.08
-5.648969750767279
% es.Ey (V/m) @ t=0.08
-0.6097575662518595
% es.Ez (V/m) @ t=0.08
7.563932635217455
% es.tEx (V/m) @ t=0.08
-5.648969750767285
% es.tEy (V/m) @ t=0.08
0
% es.tEz (V/m) @ t=0.08
7.563932635217444
% V (V) @ t=0.08
0.008349467339163164
% es.normE (V/m) @ t=0.1
10.260597902819729
% es.EX (V/m) @ t=0.1
-5.701202923231072
% es.EY (V/m) @ t=0.1
-0.6153960986018332
% es.EZ (V/m) @ t=0.1
7.633872945643731
% es.tEX (V/m) @ t=0.1
-5.701202923231082
% es.tEY (V/m) @ t=0.1
0
% es.tEZ (V/m) @ t=0.1
7.633872945643721
% es.Ex (V/m) @ t=0.1
-5.701202923231072
% es.Ey (V/m) @ t=0.1
-0.6153960986018332
% es.Ez (V/m) @ t=0.1
7.633872945643731
% es.tEx (V/m) @ t=0.1
-5.701202923231082
% es.tEy (V/m) @ t=0.1
0
% es.tEz (V/m) @ t=0.1
7.633872945643721
% V (V) @ t=0.1
0.00842667171498098
% es.normE (V/m) @ t=0.12
10.354603797336303
% es.EX (V/m) @ t=0.12
-5.7534360956948545
% es.EY (V/m) @ t=0.12
-0.6210346309517782
% es.EZ (V/m) @ t=0.12
7.70381325607
% es.tEX (V/m) @ t=0.12
-5.75343609569486
% es.tEY (V/m) @ t=0.12
0
% es.tEZ (V/m) @ t=0.12
7.703813256069987
% es.Ex (V/m) @ t=0.12
-5.7534360956948545
% es.Ey (V/m) @ t=0.12
-0.6210346309517782
% es.Ez (V/m) @ t=0.12
7.70381325607
% es.tEx (V/m) @ t=0.12
-5.75343609569486
% es.tEy (V/m) @ t=0.12
0
% es.tEz (V/m) @ t=0.12
7.703813256069987
% V (V) @ t=0.12
0.008503876090798794
% es.normE (V/m) @ t=0.14
10.450599645192872
% es.EX (V/m) @ t=0.14
-5.8067752563139
% es.EY (V/m) @ t=0.14
-0.6267921556487634
% es.EZ (V/m) @ t=0.14
7.7752340561658375
% es.tEX (V/m) @ t=0.14
-5.806775256313916
% es.tEY (V/m) @ t=0.14
0
% es.tEZ (V/m) @ t=0.14
7.775234056165824
% es.Ex (V/m) @ t=0.14
-5.8067752563139
% es.Ey (V/m) @ t=0.14
-0.6267921556487634
% es.Ez (V/m) @ t=0.14
7.7752340561658375
% es.tEx (V/m) @ t=0.14
-5.806775256313916
% es.tEy (V/m) @ t=0.14
0
% es.tEz (V/m) @ t=0.14
7.775234056165824
% V (V) @ t=0.14
0.008582714163984208
% es.normE (V/m) @ t=0.16
10.549447377690907
% es.EX (V/m) @ t=0.16
-5.861699454416082
% es.EY (V/m) @ t=0.16
-0.6327202132119536
% es.EZ (V/m) @ t=0.16
7.848776607393059
% es.tEX (V/m) @ t=0.16
-5.861699454416081
% es.tEY (V/m) @ t=0.16
0
% es.tEZ (V/m) @ t=0.16
7.848776607393053
% es.Ex (V/m) @ t=0.16
-5.861699454416082
% es.Ey (V/m) @ t=0.16
-0.6327202132119536
% es.Ez (V/m) @ t=0.16
7.848776607393059
% es.tEx (V/m) @ t=0.16
-5.861699454416081
% es.tEy (V/m) @ t=0.16
0
% es.tEz (V/m) @ t=0.16
7.848776607393053
% V (V) @ t=0.16
0.008663893556605564
% es.normE (V/m) @ t=0.18
10.648295110189009
% es.EX (V/m) @ t=0.18
-5.91662365251826
% es.EY (V/m) @ t=0.18
-0.6386482707751793
% es.EZ (V/m) @ t=0.18
7.922319158620299
% es.tEX (V/m) @ t=0.18
-5.9166236525182665
% es.tEY (V/m) @ t=0.18
0
% es.tEZ (V/m) @ t=0.18
7.922319158620289
% es.Ex (V/m) @ t=0.18
-5.91662365251826
% es.Ey (V/m) @ t=0.18
-0.6386482707751793
% es.Ez (V/m) @ t=0.18
7.922319158620299
% es.tEx (V/m) @ t=0.18
-5.9166236525182665
% es.tEy (V/m) @ t=0.18
0
% es.tEz (V/m) @ t=0.18
7.922319158620289
% V (V) @ t=0.18
0.008745072949226919
% es.normE (V/m) @ t=0.2
10.747142842687168
% es.EX (V/m) @ t=0.2
-5.971547850620454
% es.EY (V/m) @ t=0.2
-0.6445763283383887
% es.EZ (V/m) @ t=0.2
7.995861709847549
% es.tEX (V/m) @ t=0.2
-5.9715478506204605
% es.tEY (V/m) @ t=0.2
0
% es.tEZ (V/m) @ t=0.2
7.995861709847541
% es.Ex (V/m) @ t=0.2
-5.971547850620454
% es.Ey (V/m) @ t=0.2
-0.6445763283383887
% es.Ez (V/m) @ t=0.2
7.995861709847549
% es.tEx (V/m) @ t=0.2
-5.9715478506204605
% es.tEy (V/m) @ t=0.2
0
% es.tEz (V/m) @ t=0.2
7.995861709847541
% V (V) @ t=0.2
0.008826252341848277
% es.normE (V/m) @ t=0.22
10.845990575185358
% es.EX (V/m) @ t=0.22
-6.026472048722611
% es.EY (V/m) @ t=0.22
-0.650504385901612
% es.EZ (V/m) @ t=0.22
8.069404261074784
% es.tEX (V/m) @ t=0.22
-6.026472048722621
% es.tEY (V/m) @ t=0.22
0
% es.tEZ (V/m) @ t=0.22
8.069404261074776
% es.Ex (V/m) @ t=0.22
-6.026472048722611
% es.Ey (V/m) @ t=0.22
-0.650504385901612
% es.Ez (V/m) @ t=0.22
8.069404261074784
% es.tEx (V/m) @ t=0.22
-6.026472048722621
% es.tEy (V/m) @ t=0.22
0
% es.tEz (V/m) @ t=0.22
8.069404261074776
% V (V) @ t=0.22
0.00890743173446963
% es.normE (V/m) @ t=0.24
10.944838307683618
% es.EX (V/m) @ t=0.24
-6.081396246824808
% es.EY (V/m) @ t=0.24
-0.656432443464829
% es.EZ (V/m) @ t=0.24
8.142946812302021
% es.tEX (V/m) @ t=0.24
-6.081396246824814
% es.tEY (V/m) @ t=0.24
0
% es.tEZ (V/m) @ t=0.24
8.142946812302014
% es.Ex (V/m) @ t=0.24
-6.081396246824808
% es.Ey (V/m) @ t=0.24
-0.656432443464829
% es.Ez (V/m) @ t=0.24
8.142946812302021
% es.tEx (V/m) @ t=0.24
-6.081396246824814
% es.tEy (V/m) @ t=0.24
0
% es.tEz (V/m) @ t=0.24
8.142946812302014
% V (V) @ t=0.24
0.008988611127090988
% es.normE (V/m) @ t=0.26
11.04368604018192
% es.EX (V/m) @ t=0.26
-6.136320444926994
% es.EY (V/m) @ t=0.26
-0.6623605010280578
% es.EZ (V/m) @ t=0.26
8.216489363529261
% es.tEX (V/m) @ t=0.26
-6.136320444927001
% es.tEY (V/m) @ t=0.26
0
% es.tEZ (V/m) @ t=0.26
8.216489363529245
% es.Ex (V/m) @ t=0.26
-6.136320444926994
% es.Ey (V/m) @ t=0.26
-0.6623605010280578
% es.Ez (V/m) @ t=0.26
8.216489363529261
% es.tEx (V/m) @ t=0.26
-6.136320444927001
% es.tEy (V/m) @ t=0.26
0
% es.tEz (V/m) @ t=0.26
8.216489363529245
% V (V) @ t=0.26
0.009069790519712346
% es.normE (V/m) @ t=0.28
11.151559013843736
% es.EX (V/m) @ t=0.28
-6.1962589247158135
% es.EY (V/m) @ t=0.28
-0.6688304875269058
% es.EZ (V/m) @ t=0.28
8.296746743151736
% es.tEX (V/m) @ t=0.28
-6.196258924715823
% es.tEY (V/m) @ t=0.28
0
% es.tEZ (V/m) @ t=0.28
8.296746743151724
% es.Ex (V/m) @ t=0.28
-6.1962589247158135
% es.Ey (V/m) @ t=0.28
-0.6688304875269058
% es.Ez (V/m) @ t=0.28
8.296746743151736
% es.tEx (V/m) @ t=0.28
-6.196258924715823
% es.tEy (V/m) @ t=0.28
0
% es.tEz (V/m) @ t=0.28
8.296746743151724
% V (V) @ t=0.28
0.009158383045841
% es.normE (V/m) @ t=0.3
11.261259343827195
% es.EX (V/m) @ t=0.3
-6.257212654864428
% es.EY (V/m) @ t=0.3
-0.6754101993226929
% es.EZ (V/m) @ t=0.3
8.378363685792467
% es.tEX (V/m) @ t=0.3
-6.257212654864441
% es.tEY (V/m) @ t=0.3
0
% es.tEZ (V/m) @ t=0.3
8.378363685792454
% es.Ex (V/m) @ t=0.3
-6.257212654864428
% es.Ey (V/m) @ t=0.3
-0.6754101993226929
% es.Ez (V/m) @ t=0.3
8.378363685792467
% es.tEx (V/m) @ t=0.3
-6.257212654864441
% es.tEy (V/m) @ t=0.3
0
% es.tEz (V/m) @ t=0.3
8.378363685792454
% V (V) @ t=0.3
0.009248476522042035
% es.normE (V/m) @ t=0.32
11.370959673810646
% es.EX (V/m) @ t=0.32
-6.318166385013028
% es.EY (V/m) @ t=0.32
-0.6819899111184582
% es.EZ (V/m) @ t=0.32
8.459980628433188
% es.tEX (V/m) @ t=0.32
-6.318166385013042
% es.tEY (V/m) @ t=0.32
0
% es.tEZ (V/m) @ t=0.32
8.459980628433183
% es.Ex (V/m) @ t=0.32
-6.318166385013028
% es.Ey (V/m) @ t=0.32
-0.6819899111184582
% es.Ez (V/m) @ t=0.32
8.459980628433188
% es.tEx (V/m) @ t=0.32
-6.318166385013042
% es.tEy (V/m) @ t=0.32
0
% es.tEz (V/m) @ t=0.32
8.459980628433183
% V (V) @ t=0.32
0.009338569998243066
% es.normE (V/m) @ t=0.34
11.480660003794132
% es.EX (V/m) @ t=0.34
-6.379120115161626
% es.EY (V/m) @ t=0.34
-0.6885696229142364
% es.EZ (V/m) @ t=0.34
8.541597571073913
% es.tEX (V/m) @ t=0.34
-6.379120115161629
% es.tEY (V/m) @ t=0.34
0
% es.tEZ (V/m) @ t=0.34
8.541597571073911
% es.Ex (V/m) @ t=0.34
-6.379120115161626
% es.Ey (V/m) @ t=0.34
-0.6885696229142364
% es.Ez (V/m) @ t=0.34
8.541597571073913
% es.tEx (V/m) @ t=0.34
-6.379120115161629
% es.tEy (V/m) @ t=0.34
0
% es.tEz (V/m) @ t=0.34
8.541597571073911
% V (V) @ t=0.34
0.009428663474444099
% es.normE (V/m) @ t=0.36
11.590360333777618
% es.EX (V/m) @ t=0.36
-6.440073845310216
% es.EY (V/m) @ t=0.36
-0.6951493347100179
% es.EZ (V/m) @ t=0.36
8.623214513714638
% es.tEX (V/m) @ t=0.36
-6.440073845310237
% es.tEY (V/m) @ t=0.36
0
% es.tEZ (V/m) @ t=0.36
8.623214513714629
% es.Ex (V/m) @ t=0.36
-6.440073845310216
% es.Ey (V/m) @ t=0.36
-0.6951493347100179
% es.Ez (V/m) @ t=0.36
8.623214513714638
% es.tEx (V/m) @ t=0.36
-6.440073845310237
% es.tEy (V/m) @ t=0.36
0
% es.tEz (V/m) @ t=0.36
8.623214513714629
% V (V) @ t=0.36
0.009518756950645128
% es.normE (V/m) @ t=0.38
11.70006066376114
% es.EX (V/m) @ t=0.38
-6.501027575458835
% es.EY (V/m) @ t=0.38
-0.7017290465057822
% es.EZ (V/m) @ t=0.38
8.704831456355372
% es.tEX (V/m) @ t=0.38
-6.501027575458838
% es.tEY (V/m) @ t=0.38
0
% es.tEZ (V/m) @ t=0.38
8.70483145635535
% es.Ex (V/m) @ t=0.38
-6.501027575458835
% es.Ey (V/m) @ t=0.38
-0.7017290465057822
% es.Ez (V/m) @ t=0.38
8.704831456355372
% es.tEx (V/m) @ t=0.38
-6.501027575458838
% es.tEy (V/m) @ t=0.38
0
% es.tEz (V/m) @ t=0.38
8.70483145635535
% V (V) @ t=0.38
0.009608850426846163
% es.normE (V/m) @ t=0.4
11.809760993744653
% es.EX (V/m) @ t=0.4
-6.56198130560743
% es.EY (V/m) @ t=0.4
-0.7083087583015604
% es.EZ (V/m) @ t=0.4
8.786448398996084
% es.tEX (V/m) @ t=0.4
-6.56198130560745
% es.tEY (V/m) @ t=0.4
0
% es.tEZ (V/m) @ t=0.4
8.786448398996075
% es.Ex (V/m) @ t=0.4
-6.56198130560743
% es.Ey (V/m) @ t=0.4
-0.7083087583015604
% es.Ez (V/m) @ t=0.4
8.786448398996084
% es.tEx (V/m) @ t=0.4
-6.56198130560745
% es.tEy (V/m) @ t=0.4
0
% es.tEz (V/m) @ t=0.4
8.786448398996075
% V (V) @ t=0.4
0.009698943903047194
% es.normE (V/m) @ t=0.42
11.919461323728203
% es.EX (V/m) @ t=0.42
-6.622935035756042
% es.EY (V/m) @ t=0.42
-0.7148884700973333
% es.EZ (V/m) @ t=0.42
8.868065341636822
% es.tEX (V/m) @ t=0.42
-6.6229350357560435
% es.tEY (V/m) @ t=0.42
0
% es.tEZ (V/m) @ t=0.42
8.868065341636811
% es.Ex (V/m) @ t=0.42
-6.622935035756042
% es.Ey (V/m) @ t=0.42
-0.7148884700973333
% es.Ez (V/m) @ t=0.42
8.868065341636822
% es.tEx (V/m) @ t=0.42
-6.6229350357560435
% es.tEy (V/m) @ t=0.42
0
% es.tEz (V/m) @ t=0.42
8.868065341636811
% V (V) @ t=0.42
0.009789037379248225
% es.normE (V/m) @ t=0.44
12.02916165371176
% es.EX (V/m) @ t=0.44
-6.683888765904653
% es.EY (V/m) @ t=0.44
-0.7214681818931197
% es.EZ (V/m) @ t=0.44
8.94968228427755
% es.tEX (V/m) @ t=0.44
-6.6838887659046655
% es.tEY (V/m) @ t=0.44
0
% es.tEZ (V/m) @ t=0.44
8.94968228427754
% es.Ex (V/m) @ t=0.44
-6.683888765904653
% es.Ey (V/m) @ t=0.44
-0.7214681818931197
% es.Ez (V/m) @ t=0.44
8.94968228427755
% es.tEx (V/m) @ t=0.44
-6.6838887659046655
% es.tEy (V/m) @ t=0.44
0
% es.tEz (V/m) @ t=0.44
8.94968228427754
% V (V) @ t=0.44
0.009879130855449258
% es.normE (V/m) @ t=0.46
12.138861983695332
% es.EX (V/m) @ t=0.46
-6.744842496053259
% es.EY (V/m) @ t=0.46
-0.7280478936889174
% es.EZ (V/m) @ t=0.46
9.03129922691827
% es.tEX (V/m) @ t=0.46
-6.744842496053269
% es.tEY (V/m) @ t=0.46
0
% es.tEZ (V/m) @ t=0.46
9.031299226918257
% es.Ex (V/m) @ t=0.46
-6.744842496053259
% es.Ey (V/m) @ t=0.46
-0.7280478936889174
% es.Ez (V/m) @ t=0.46
9.03129922691827
% es.tEx (V/m) @ t=0.46
-6.744842496053269
% es.tEy (V/m) @ t=0.46
0
% es.tEz (V/m) @ t=0.46
9.031299226918257
% V (V) @ t=0.46
0.009969224331650288
% es.normE (V/m) @ t=0.48
12.248562313678919
% es.EX (V/m) @ t=0.48
-6.80579622620187
% es.EY (V/m) @ t=0.48
-0.734627605484671
% es.EZ (V/m) @ t=0.48
9.112916169559012
% es.tEX (V/m) @ t=0.48
-6.805796226201883
% es.tEY (V/m) @ t=0.48
0
% es.tEZ (V/m) @ t=0.48
9.112916169558993
% es.Ex (V/m) @ t=0.48
-6.80579622620187
% es.Ey (V/m) @ t=0.48
-0.734627605484671
% es.Ez (V/m) @ t=0.48
9.112916169559012
% es.tEx (V/m) @ t=0.48
-6.805796226201883
% es.tEy (V/m) @ t=0.48
0
% es.tEz (V/m) @ t=0.48
9.112916169558993
% V (V) @ t=0.48
0.010059317807851324
% es.normE (V/m) @ t=0.5
12.358262643662485
% es.EX (V/m) @ t=0.5
-6.86674995635047
% es.EY (V/m) @ t=0.5
-0.7412073172804456
% es.EZ (V/m) @ t=0.5
9.19453311219972
% es.tEX (V/m) @ t=0.5
-6.866749956350477
% es.tEY (V/m) @ t=0.5
0
% es.tEZ (V/m) @ t=0.5
9.194533112199714
% es.Ex (V/m) @ t=0.5
-6.86674995635047
% es.Ey (V/m) @ t=0.5
-0.7412073172804456
% es.Ez (V/m) @ t=0.5
9.19453311219972
% es.tEx (V/m) @ t=0.5
-6.866749956350477
% es.tEy (V/m) @ t=0.5
0
% es.tEz (V/m) @ t=0.5
9.194533112199714
% V (V) @ t=0.5
0.010149411284052353
% es.normE (V/m) @ t=0.52
12.467962973646078
% es.EX (V/m) @ t=0.52
-6.927703686499052
% es.EY (V/m) @ t=0.52
-0.7477870290762341
% es.EZ (V/m) @ t=0.52
9.27615005484045
% es.tEX (V/m) @ t=0.52
-6.927703686499072
% es.tEY (V/m) @ t=0.52
0
% es.tEZ (V/m) @ t=0.52
9.276150054840434
% es.Ex (V/m) @ t=0.52
-6.927703686499052
% es.Ey (V/m) @ t=0.52
-0.7477870290762341
% es.Ez (V/m) @ t=0.52
9.27615005484045
% es.tEx (V/m) @ t=0.52
-6.927703686499072
% es.tEy (V/m) @ t=0.52
0
% es.tEz (V/m) @ t=0.52
9.276150054840434
% V (V) @ t=0.52
0.010239504760253385
% es.normE (V/m) @ t=0.54
12.585887827106637
% es.EX (V/m) @ t=0.54
-6.9932328755910955
% es.EY (V/m) @ t=0.54
-0.7548531004600663
% es.EZ (V/m) @ t=0.54
9.36388539963047
% es.tEX (V/m) @ t=0.54
-6.993232875591103
% es.tEY (V/m) @ t=0.54
0
% es.tEZ (V/m) @ t=0.54
9.363885399630457
% es.Ex (V/m) @ t=0.54
-6.9932328755910955
% es.Ey (V/m) @ t=0.54
-0.7548531004600663
% es.Ez (V/m) @ t=0.54
9.36388539963047
% es.tEx (V/m) @ t=0.54
-6.993232875591103
% es.tEy (V/m) @ t=0.54
0
% es.tEz (V/m) @ t=0.54
9.363885399630457
% V (V) @ t=0.54
0.010336341523969596
% es.normE (V/m) @ t=0.56
12.70781105251999
% es.EX (V/m) @ t=0.56
-7.06098643509122
% es.EY (V/m) @ t=0.56
-0.7621556167314254
% es.EZ (V/m) @ t=0.56
9.454595220391989
% es.tEX (V/m) @ t=0.56
-7.060986435091232
% es.tEY (V/m) @ t=0.56
0
% es.tEZ (V/m) @ t=0.56
9.454595220391969
% es.Ex (V/m) @ t=0.56
-7.06098643509122
% es.Ey (V/m) @ t=0.56
-0.7621556167314254
% es.Ez (V/m) @ t=0.56
9.454595220391989
% es.tEx (V/m) @ t=0.56
-7.060986435091232
% es.tEy (V/m) @ t=0.56
0
% es.tEz (V/m) @ t=0.56
9.454595220391969
% V (V) @ t=0.56
0.010436456553186039
% es.normE (V/m) @ t=0.58
12.829734277950585
% es.EX (V/m) @ t=0.58
-7.128739994591342
% es.EY (V/m) @ t=0.58
-0.7694581330027992
% es.EZ (V/m) @ t=0.58
9.545305041153478
% es.tEX (V/m) @ t=0.58
-7.128739994591347
% es.tEY (V/m) @ t=0.58
0
% es.tEZ (V/m) @ t=0.58
9.545305041153473
% es.Ex (V/m) @ t=0.58
-7.128739994591342
% es.Ey (V/m) @ t=0.58
-0.7694581330027992
% es.Ez (V/m) @ t=0.58
9.545305041153478
% es.tEx (V/m) @ t=0.58
-7.128739994591347
% es.tEy (V/m) @ t=0.58
0
% es.tEz (V/m) @ t=0.58
9.545305041153473
% V (V) @ t=0.58
0.01053657158240248
% es.normE (V/m) @ t=0.6
12.951657503397955
% es.EX (V/m) @ t=0.6
-7.196493554091472
% es.EY (V/m) @ t=0.6
-0.7767606492741659
% es.EZ (V/m) @ t=0.6
9.636014861914978
% es.tEX (V/m) @ t=0.6
-7.196493554091484
% es.tEY (V/m) @ t=0.6
0
% es.tEZ (V/m) @ t=0.6
9.636014861914964
% es.Ex (V/m) @ t=0.6
-7.196493554091472
% es.Ey (V/m) @ t=0.6
-0.7767606492741659
% es.Ez (V/m) @ t=0.6
9.636014861914978
% es.tEx (V/m) @ t=0.6
-7.196493554091484
% es.tEy (V/m) @ t=0.6
0
% es.tEz (V/m) @ t=0.6
9.636014861914964
% V (V) @ t=0.6
0.01063668661161892
% es.normE (V/m) @ t=0.62
13.073580728861593
% es.EX (V/m) @ t=0.62
-7.264247113591573
% es.EY (V/m) @ t=0.62
-0.7840631655455126
% es.EZ (V/m) @ t=0.62
9.726724682676457
% es.tEX (V/m) @ t=0.62
-7.264247113591585
% es.tEY (V/m) @ t=0.62
0
% es.tEZ (V/m) @ t=0.62
9.726724682676444
% es.Ex (V/m) @ t=0.62
-7.264247113591573
% es.Ey (V/m) @ t=0.62
-0.7840631655455126
% es.Ez (V/m) @ t=0.62
9.726724682676457
% es.tEx (V/m) @ t=0.62
-7.264247113591585
% es.tEy (V/m) @ t=0.62
0
% es.tEz (V/m) @ t=0.62
9.726724682676444
% V (V) @ t=0.62
0.010736801640835365
% es.normE (V/m) @ t=0.64
13.195503954341117
% es.EX (V/m) @ t=0.64
-7.332000673091695
% es.EY (V/m) @ t=0.64
-0.7913656818168988
% es.EZ (V/m) @ t=0.64
9.817434503437976
% es.tEX (V/m) @ t=0.64
-7.332000673091715
% es.tEY (V/m) @ t=0.64
0
% es.tEZ (V/m) @ t=0.64
9.817434503437969
% es.Ex (V/m) @ t=0.64
-7.332000673091695
% es.Ey (V/m) @ t=0.64
-0.7913656818168988
% es.Ez (V/m) @ t=0.64
9.817434503437976
% es.tEx (V/m) @ t=0.64
-7.332000673091715
% es.tEy (V/m) @ t=0.64
0
% es.tEz (V/m) @ t=0.64
9.817434503437969
% V (V) @ t=0.64
0.010836916670051808
% es.normE (V/m) @ t=0.66
13.317427179836029
% es.EX (V/m) @ t=0.66
-7.399754232591832
% es.EY (V/m) @ t=0.66
-0.7986681980882615
% es.EZ (V/m) @ t=0.66
9.908144324199453
% es.tEX (V/m) @ t=0.66
-7.399754232591844
% es.tEY (V/m) @ t=0.66
0
% es.tEZ (V/m) @ t=0.66
9.908144324199437
% es.Ex (V/m) @ t=0.66
-7.399754232591832
% es.Ey (V/m) @ t=0.66
-0.7986681980882615
% es.Ez (V/m) @ t=0.66
9.908144324199453
% es.tEx (V/m) @ t=0.66
-7.399754232591844
% es.tEy (V/m) @ t=0.66
0
% es.tEz (V/m) @ t=0.66
9.908144324199437
% V (V) @ t=0.66
0.01093703169926825
% es.normE (V/m) @ t=0.68
13.439350405345937
% es.EX (V/m) @ t=0.68
-7.467507792091949
% es.EY (V/m) @ t=0.68
-0.8059707143596171
% es.EZ (V/m) @ t=0.68
9.998854144960957
% es.tEX (V/m) @ t=0.68
-7.467507792091947
% es.tEY (V/m) @ t=0.68
0
% es.tEZ (V/m) @ t=0.68
9.998854144960944
% es.Ex (V/m) @ t=0.68
-7.467507792091949
% es.Ey (V/m) @ t=0.68
-0.8059707143596171
% es.Ez (V/m) @ t=0.68
9.998854144960957
% es.tEx (V/m) @ t=0.68
-7.467507792091947
% es.tEy (V/m) @ t=0.68
0
% es.tEz (V/m) @ t=0.68
9.998854144960944
% V (V) @ t=0.68
0.01103714672848469
% es.normE (V/m) @ t=0.7
13.561273630870437
% es.EX (V/m) @ t=0.7
-7.5352613515920694
% es.EY (V/m) @ t=0.7
-0.8132732306309878
% es.EZ (V/m) @ t=0.7
10.089563965722448
% es.tEX (V/m) @ t=0.7
-7.535261351592089
% es.tEY (V/m) @ t=0.7
0
% es.tEZ (V/m) @ t=0.7
10.08956396572243
% es.Ex (V/m) @ t=0.7
-7.5352613515920694
% es.Ey (V/m) @ t=0.7
-0.8132732306309878
% es.Ez (V/m) @ t=0.7
10.089563965722448
% es.tEx (V/m) @ t=0.7
-7.535261351592089
% es.tEy (V/m) @ t=0.7
0
% es.tEz (V/m) @ t=0.7
10.08956396572243
% V (V) @ t=0.7
0.011137261757701133
% es.normE (V/m) @ t=0.72
13.683196856409154
% es.EX (V/m) @ t=0.72
-7.603014911092201
% es.EY (V/m) @ t=0.72
-0.8205757469023753
% es.EZ (V/m) @ t=0.72
10.180273786483959
% es.tEX (V/m) @ t=0.72
-7.603014911092213
% es.tEY (V/m) @ t=0.72
0
% es.tEZ (V/m) @ t=0.72
10.180273786483948
% es.Ex (V/m) @ t=0.72
-7.603014911092201
% es.Ey (V/m) @ t=0.72
-0.8205757469023753
% es.Ez (V/m) @ t=0.72
10.180273786483959
% es.tEx (V/m) @ t=0.72
-7.603014911092213
% es.tEy (V/m) @ t=0.72
0
% es.tEz (V/m) @ t=0.72
10.180273786483948
% V (V) @ t=0.72
0.011237376786917577
% es.normE (V/m) @ t=0.74
13.805120081961658
% es.EX (V/m) @ t=0.74
-7.670768470592302
% es.EY (V/m) @ t=0.74
-0.8278782631737132
% es.EZ (V/m) @ t=0.74
10.270983607245453
% es.tEX (V/m) @ t=0.74
-7.670768470592321
% es.tEY (V/m) @ t=0.74
0
% es.tEZ (V/m) @ t=0.74
10.270983607245435
% es.Ex (V/m) @ t=0.74
-7.670768470592302
% es.Ey (V/m) @ t=0.74
-0.8278782631737132
% es.Ez (V/m) @ t=0.74
10.270983607245453
% es.tEx (V/m) @ t=0.74
-7.670768470592321
% es.tEy (V/m) @ t=0.74
0
% es.tEz (V/m) @ t=0.74
10.270983607245435
% V (V) @ t=0.74
0.01133749181613402
% es.normE (V/m) @ t=0.76
13.927043307527633
% es.EX (V/m) @ t=0.76
-7.738522030092438
% es.EY (V/m) @ t=0.76
-0.8351807794450585
% es.EZ (V/m) @ t=0.76
10.361693428006962
% es.tEX (V/m) @ t=0.76
-7.738522030092444
% es.tEY (V/m) @ t=0.76
0
% es.tEZ (V/m) @ t=0.76
10.361693428006951
% es.Ex (V/m) @ t=0.76
-7.738522030092438
% es.Ey (V/m) @ t=0.76
-0.8351807794450585
% es.Ez (V/m) @ t=0.76
10.361693428006962
% es.tEx (V/m) @ t=0.76
-7.738522030092444
% es.tEy (V/m) @ t=0.76
0
% es.tEz (V/m) @ t=0.76
10.361693428006951
% V (V) @ t=0.76
0.011437606845350461
% es.normE (V/m) @ t=0.78
14.048966533106716
% es.EX (V/m) @ t=0.78
-7.806275589592547
% es.EY (V/m) @ t=0.78
-0.842483295716443
% es.EZ (V/m) @ t=0.78
10.452403248768446
% es.tEX (V/m) @ t=0.78
-7.806275589592552
% es.tEY (V/m) @ t=0.78
0
% es.tEZ (V/m) @ t=0.78
10.45240324876843
% es.Ex (V/m) @ t=0.78
-7.806275589592547
% es.Ey (V/m) @ t=0.78
-0.842483295716443
% es.Ez (V/m) @ t=0.78
10.452403248768446
% es.tEx (V/m) @ t=0.78
-7.806275589592552
% es.tEy (V/m) @ t=0.78
0
% es.tEz (V/m) @ t=0.78
10.45240324876843
% V (V) @ t=0.78
0.011537721874566899
% es.normE (V/m) @ t=0.8
14.177990484033796
% es.EX (V/m) @ t=0.8
-7.877980725401638
% es.EY (V/m) @ t=0.8
-0.8502041123469377
% es.EZ (V/m) @ t=0.8
10.548395295064129
% es.tEX (V/m) @ t=0.8
-7.877980725401651
% es.tEY (V/m) @ t=0.8
0
% es.tEZ (V/m) @ t=0.8
10.548395295064116
% es.Ex (V/m) @ t=0.8
-7.877980725401638
% es.Ey (V/m) @ t=0.8
-0.8502041123469377
% es.Ez (V/m) @ t=0.8
10.548395295064129
% es.tEx (V/m) @ t=0.8
-7.877980725401651
% es.tEy (V/m) @ t=0.8
0
% es.tEz (V/m) @ t=0.8
10.548395295064116
% V (V) @ t=0.8
0.011643656173231678
% es.normE (V/m) @ t=0.82
14.313724679543935
% es.EX (V/m) @ t=0.82
-7.953420133696904
% es.EY (V/m) @ t=0.82
-0.8583202262967662
% es.EZ (V/m) @ t=0.82
10.649379088433804
% es.tEX (V/m) @ t=0.82
-7.953420133696923
% es.tEY (V/m) @ t=0.82
0
% es.tEZ (V/m) @ t=0.82
10.649379088433797
% es.Ex (V/m) @ t=0.82
-7.953420133696904
% es.Ey (V/m) @ t=0.82
-0.8583202262967662
% es.Ez (V/m) @ t=0.82
10.649379088433804
% es.tEx (V/m) @ t=0.82
-7.953420133696923
% es.tEy (V/m) @ t=0.82
0
% es.tEz (V/m) @ t=0.82
10.649379088433797
% V (V) @ t=0.82
0.011755089729937121
% es.normE (V/m) @ t=0.84
14.449458875138475
% es.EX (V/m) @ t=0.84
-8.028859541992164
% es.EY (V/m) @ t=0.84
-0.866436340246544
% es.EZ (V/m) @ t=0.84
10.750362881803488
% es.tEX (V/m) @ t=0.84
-8.028859541992183
% es.tEY (V/m) @ t=0.84
0
% es.tEZ (V/m) @ t=0.84
10.750362881803472
% es.Ex (V/m) @ t=0.84
-8.028859541992164
% es.Ey (V/m) @ t=0.84
-0.866436340246544
% es.Ez (V/m) @ t=0.84
10.750362881803488
% es.tEx (V/m) @ t=0.84
-8.028859541992183
% es.tEy (V/m) @ t=0.84
0
% es.tEz (V/m) @ t=0.84
10.750362881803472
% V (V) @ t=0.84
0.011866523286642566
% es.normE (V/m) @ t=0.86
14.585193070815105
% es.EX (V/m) @ t=0.86
-8.104298950287466
% es.EY (V/m) @ t=0.86
-0.874552454196369
% es.EZ (V/m) @ t=0.86
10.851346675173176
% es.tEX (V/m) @ t=0.86
-8.104298950287472
% es.tEY (V/m) @ t=0.86
0
% es.tEZ (V/m) @ t=0.86
10.85134667517315
% es.Ex (V/m) @ t=0.86
-8.104298950287466
% es.Ey (V/m) @ t=0.86
-0.874552454196369
% es.Ez (V/m) @ t=0.86
10.851346675173176
% es.tEx (V/m) @ t=0.86
-8.104298950287472
% es.tEy (V/m) @ t=0.86
0
% es.tEz (V/m) @ t=0.86
10.85134667517315
% V (V) @ t=0.86
0.011977956843348007
% es.normE (V/m) @ t=0.88
14.720927266571469
% es.EX (V/m) @ t=0.88
-8.179738358582698
% es.EY (V/m) @ t=0.88
-0.8826685681461575
% es.EZ (V/m) @ t=0.88
10.952330468542886
% es.tEX (V/m) @ t=0.88
-8.17973835858271
% es.tEY (V/m) @ t=0.88
0
% es.tEZ (V/m) @ t=0.88
10.952330468542865
% es.Ex (V/m) @ t=0.88
-8.179738358582698
% es.Ey (V/m) @ t=0.88
-0.8826685681461575
% es.Ez (V/m) @ t=0.88
10.952330468542886
% es.tEx (V/m) @ t=0.88
-8.17973835858271
% es.tEy (V/m) @ t=0.88
0
% es.tEz (V/m) @ t=0.88
10.952330468542865
% V (V) @ t=0.88
0.012089390400053449
% es.normE (V/m) @ t=0.9
14.856661462405404
% es.EX (V/m) @ t=0.9
-8.255177766877987
% es.EY (V/m) @ t=0.9
-0.8907846820959535
% es.EZ (V/m) @ t=0.9
11.053314261912536
% es.tEX (V/m) @ t=0.9
-8.255177766878015
% es.tEY (V/m) @ t=0.9
0
% es.tEZ (V/m) @ t=0.9
11.053314261912519
% es.Ex (V/m) @ t=0.9
-8.255177766877987
% es.Ey (V/m) @ t=0.9
-0.8907846820959535
% es.Ez (V/m) @ t=0.9
11.053314261912536
% es.tEx (V/m) @ t=0.9
-8.255177766878015
% es.tEy (V/m) @ t=0.9
0
% es.tEz (V/m) @ t=0.9
11.053314261912519
% V (V) @ t=0.9
0.012200823956758896
% es.normE (V/m) @ t=0.92
14.992395658314852
% es.EX (V/m) @ t=0.92
-8.330617175173252
% es.EY (V/m) @ t=0.92
-0.8989007960457358
% es.EZ (V/m) @ t=0.92
11.154298055282224
% es.tEX (V/m) @ t=0.92
-8.330617175173257
% es.tEY (V/m) @ t=0.92
0
% es.tEZ (V/m) @ t=0.92
11.154298055282217
% es.Ex (V/m) @ t=0.92
-8.330617175173252
% es.Ey (V/m) @ t=0.92
-0.8989007960457358
% es.Ez (V/m) @ t=0.92
11.154298055282224
% es.tEx (V/m) @ t=0.92
-8.330617175173257
% es.tEy (V/m) @ t=0.92
0
% es.tEz (V/m) @ t=0.92
11.154298055282217
% V (V) @ t=0.92
0.012312257513464337
% es.normE (V/m) @ t=0.94
15.12812985429775
% es.EX (V/m) @ t=0.94
-8.406056583468521
% es.EY (V/m) @ t=0.94
-0.9070169099955745
% es.EZ (V/m) @ t=0.94
11.255281848651915
% es.tEX (V/m) @ t=0.94
-8.406056583468526
% es.tEY (V/m) @ t=0.94
0
% es.tEZ (V/m) @ t=0.94
11.255281848651904
% es.Ex (V/m) @ t=0.94
-8.406056583468521
% es.Ey (V/m) @ t=0.94
-0.9070169099955745
% es.Ez (V/m) @ t=0.94
11.255281848651915
% es.tEx (V/m) @ t=0.94
-8.406056583468526
% es.tEy (V/m) @ t=0.94
0
% es.tEz (V/m) @ t=0.94
11.255281848651904
% V (V) @ t=0.94
0.01242369107016978
% es.normE (V/m) @ t=0.96
15.263864050352094
% es.EX (V/m) @ t=0.96
-8.481495991763765
% es.EY (V/m) @ t=0.96
-0.9151330239453674
% es.EZ (V/m) @ t=0.96
11.35626564202157
% es.tEX (V/m) @ t=0.96
-8.481495991763785
% es.tEY (V/m) @ t=0.96
0
% es.tEZ (V/m) @ t=0.96
11.356265642021553
% es.Ex (V/m) @ t=0.96
-8.481495991763765
% es.Ey (V/m) @ t=0.96
-0.9151330239453674
% es.Ez (V/m) @ t=0.96
11.35626564202157
% es.tEx (V/m) @ t=0.96
-8.481495991763785
% es.tEy (V/m) @ t=0.96
0
% es.tEz (V/m) @ t=0.96
11.356265642021553
% V (V) @ t=0.96
0.012535124626875224
% es.normE (V/m) @ t=0.98
15.399598246476106
% es.EX (V/m) @ t=0.98
-8.55693540005906
% es.EY (V/m) @ t=0.98
-0.9232491378951808
% es.EZ (V/m) @ t=0.98
11.457249435391269
% es.tEX (V/m) @ t=0.98
-8.556935400059075
% es.tEY (V/m) @ t=0.98
0
% es.tEZ (V/m) @ t=0.98
11.457249435391253
% es.Ex (V/m) @ t=0.98
-8.55693540005906
% es.Ey (V/m) @ t=0.98
-0.9232491378951808
% es.Ez (V/m) @ t=0.98
11.457249435391269
% es.tEx (V/m) @ t=0.98
-8.556935400059075
% es.tEy (V/m) @ t=0.98
0
% es.tEz (V/m) @ t=0.98
11.457249435391253
% V (V) @ t=0.98
0.012646558183580667
% es.normE (V/m) @ t=1
15.535332442667833
% es.EX (V/m) @ t=1
-8.632374808354319
% es.EY (V/m) @ t=1
-0.9313652518449449
% es.EZ (V/m) @ t=1
11.558233228760928
% es.tEX (V/m) @ t=1
-8.632374808354324
% es.tEY (V/m) @ t=1
0
% es.tEZ (V/m) @ t=1
11.558233228760919
% es.Ex (V/m) @ t=1
-8.632374808354319
% es.Ey (V/m) @ t=1
-0.9313652518449449
% es.Ez (V/m) @ t=1
11.558233228760928
% es.tEx (V/m) @ t=1
-8.632374808354324
% es.tEy (V/m) @ t=1
0
% es.tEz (V/m) @ t=1
11.558233228760919
% V (V) @ t=1
0.01275799174028611
% es.normE (V/m) @ t=1.02
15.671066638925613
% es.EX (V/m) @ t=1.02
-8.707814216649574
% es.EY (V/m) @ t=1.02
-0.9394813657947663
% es.EZ (V/m) @ t=1.02
11.659217022130624
% es.tEX (V/m) @ t=1.02
-8.707814216649586
% es.tEY (V/m) @ t=1.02
0
% es.tEZ (V/m) @ t=1.02
11.659217022130605
% es.Ex (V/m) @ t=1.02
-8.707814216649574
% es.Ey (V/m) @ t=1.02
-0.9394813657947663
% es.Ez (V/m) @ t=1.02
11.659217022130624
% es.tEx (V/m) @ t=1.02
-8.707814216649586
% es.tEy (V/m) @ t=1.02
0
% es.tEz (V/m) @ t=1.02
11.659217022130605
% V (V) @ t=1.02
0.012869425296991553
% es.normE (V/m) @ t=1.04
15.806800835247703
% es.EX (V/m) @ t=1.04
-8.783253624944841
% es.EY (V/m) @ t=1.04
-0.9475974797445867
% es.EZ (V/m) @ t=1.04
11.76020081550031
% es.tEX (V/m) @ t=1.04
-8.783253624944853
% es.tEY (V/m) @ t=1.04
0
% es.tEZ (V/m) @ t=1.04
11.76020081550029
% es.Ex (V/m) @ t=1.04
-8.783253624944841
% es.Ey (V/m) @ t=1.04
-0.9475974797445867
% es.Ez (V/m) @ t=1.04
11.76020081550031
% es.tEx (V/m) @ t=1.04
-8.783253624944853
% es.tEy (V/m) @ t=1.04
0
% es.tEz (V/m) @ t=1.04
11.76020081550029