% Model:              1 neuron.mph
% Version:            COMSOL 6.1.0.252
% Date:               Mar 18 2023, 13:04
% Dimension:          0
% Nodes:              14017
% Expressions:        14017
% Description:        Electric field norm, Electric field, X component, Electric field, Y component, Electric field, Z component, Tangential electric field, X component, Tangential electric field, Y component, Tangential electric field, Z component, Electric field, x component, Electric field, y component, Electric field, z component, Tangential electric field, x component, Tangential electric field, y component, Tangential electric field, z component, Electric potential
% Length unit:        mm
% x
1.0000000000000002
% y
12.2
% z
2
% es.normE (V/m) @ t=0
1.056531856081675
% es.EX (V/m) @ t=0
0.733874891870909
% es.EY (V/m) @ t=0
0.10988959843123286
% es.EZ (V/m) @ t=0
-0.7328048904011584
% es.tEX (V/m) @ t=0
0.7338748918709124
% es.tEY (V/m) @ t=0
0
% es.tEZ (V/m) @ t=0
-0.7328048904011437
% es.Ex (V/m) @ t=0
0.733874891870909
% es.Ey (V/m) @ t=0
0.10988959843123286
% es.Ez (V/m) @ t=0
-0.7328048904011584
% es.tEx (V/m) @ t=0
0.7338748918709124
% es.tEy (V/m) @ t=0
0
% es.tEz (V/m) @ t=0
-0.7328048904011437
% V (V) @ t=0
0.011314066532118632
% es.normE (V/m) @ t=0.02
0.9125372412793447
% es.EX (V/m) @ t=0.02
0.633855160543529
% es.EY (V/m) @ t=0.02
0.0949127568625262
% es.EZ (V/m) @ t=0.02
-0.6329309894341819
% es.tEX (V/m) @ t=0.02
0.6338551605435381
% es.tEY (V/m) @ t=0.02
0
% es.tEZ (V/m) @ t=0.02
-0.6329309894341781
% es.Ex (V/m) @ t=0.02
0.633855160543529
% es.Ey (V/m) @ t=0.02
0.0949127568625262
% es.Ez (V/m) @ t=0.02
-0.6329309894341819
% es.tEx (V/m) @ t=0.02
0.6338551605435381
% es.tEy (V/m) @ t=0.02
0
% es.tEz (V/m) @ t=0.02
-0.6329309894341781
% V (V) @ t=0.02
0.009772073595676327
% es.normE (V/m) @ t=0.04
0.9209315417766091
% es.EX (V/m) @ t=0.04
0.6396859041221061
% es.EY (V/m) @ t=0.04
0.09578584621321978
% es.EZ (V/m) @ t=0.04
-0.6387532316278437
% es.tEX (V/m) @ t=0.04
0.6396859041221061
% es.tEY (V/m) @ t=0.04
0
% es.tEZ (V/m) @ t=0.04
-0.6387532316278328
% es.Ex (V/m) @ t=0.04
0.6396859041221061
% es.Ey (V/m) @ t=0.04
0.09578584621321978
% es.Ez (V/m) @ t=0.04
-0.6387532316278437
% es.tEx (V/m) @ t=0.04
0.6396859041221061
% es.tEy (V/m) @ t=0.04
0
% es.tEz (V/m) @ t=0.04
-0.6387532316278328
% V (V) @ t=0.04
0.009861965498356171
% es.normE (V/m) @ t=0.06
0.9293936066887911
% es.EX (V/m) @ t=0.06
0.6455637174696534
% es.EY (V/m) @ t=0.06
0.09666598257729225
% es.EZ (V/m) @ t=0.06
-0.6446224751499467
% es.tEX (V/m) @ t=0.06
0.6455637174696549
% es.tEY (V/m) @ t=0.06
0
% es.tEZ (V/m) @ t=0.06
-0.6446224751499359
% es.Ex (V/m) @ t=0.06
0.6455637174696534
% es.Ey (V/m) @ t=0.06
0.09666598257729225
% es.Ez (V/m) @ t=0.06
-0.6446224751499467
% es.tEx (V/m) @ t=0.06
0.6455637174696549
% es.tEy (V/m) @ t=0.06
0
% es.tEz (V/m) @ t=0.06
-0.6446224751499359
% V (V) @ t=0.06
0.009952583115054255
% es.normE (V/m) @ t=0.08
0.9380031746010996
% es.EX (V/m) @ t=0.08
0.6515439874499938
% es.EY (V/m) @ t=0.08
0.09756146123443954
% es.EZ (V/m) @ t=0.08
-0.6505940258340093
% es.tEX (V/m) @ t=0.08
0.6515439874499953
% es.tEY (V/m) @ t=0.08
0
% es.tEZ (V/m) @ t=0.08
-0.6505940258339948
% es.Ex (V/m) @ t=0.08
0.6515439874499938
% es.Ey (V/m) @ t=0.08
0.09756146123443954
% es.Ez (V/m) @ t=0.08
-0.6505940258340093
% es.tEx (V/m) @ t=0.08
0.6515439874499953
% es.tEy (V/m) @ t=0.08
0
% es.tEz (V/m) @ t=0.08
-0.6505940258339948
% V (V) @ t=0.08
0.010044780272463825
% es.normE (V/m) @ t=0.1
0.9466771564442399
% es.EX (V/m) @ t=0.1
0.6575689998047414
% es.EY (V/m) @ t=0.1
0.09846363980550576
% es.EZ (V/m) @ t=0.1
-0.6566102536192135
% es.tEX (V/m) @ t=0.1
0.6575689998047465
% es.tEY (V/m) @ t=0.1
0
% es.tEZ (V/m) @ t=0.1
-0.6566102536191991
% es.Ex (V/m) @ t=0.1
0.6575689998047414
% es.Ey (V/m) @ t=0.1
0.09846363980550576
% es.Ez (V/m) @ t=0.1
-0.6566102536192135
% es.tEx (V/m) @ t=0.1
0.6575689998047465
% es.tEy (V/m) @ t=0.1
0
% es.tEz (V/m) @ t=0.1
-0.6566102536191991
% V (V) @ t=0.1
0.010137667208562958
% es.normE (V/m) @ t=0.12
0.9553511382873838
% es.EX (V/m) @ t=0.12
0.663594012159481
% es.EY (V/m) @ t=0.12
0.09936581837658492
% es.EZ (V/m) @ t=0.12
-0.6626264814044307
% es.tEX (V/m) @ t=0.12
0.6635940121594861
% es.tEY (V/m) @ t=0.12
0
% es.tEZ (V/m) @ t=0.12
-0.6626264814044163
% es.Ex (V/m) @ t=0.12
0.663594012159481
% es.Ey (V/m) @ t=0.12
0.09936581837658492
% es.Ez (V/m) @ t=0.12
-0.6626264814044307
% es.tEx (V/m) @ t=0.12
0.6635940121594861
% es.tEy (V/m) @ t=0.12
0
% es.tEz (V/m) @ t=0.12
-0.6626264814044163
% V (V) @ t=0.12
0.010230554144662092
% es.normE (V/m) @ t=0.14
0.9642049238292115
% es.EX (V/m) @ t=0.14
0.6697439174941171
% es.EY (V/m) @ t=0.14
0.10028669830161169
% es.EZ (V/m) @ t=0.14
-0.668767420094843
% es.tEX (V/m) @ t=0.14
0.6697439174941198
% es.tEY (V/m) @ t=0.14
0
% es.tEZ (V/m) @ t=0.14
-0.6687674200948321
% es.Ex (V/m) @ t=0.14
0.6697439174941171
% es.Ey (V/m) @ t=0.14
0.10028669830161169
% es.Ez (V/m) @ t=0.14
-0.668767420094843
% es.tEx (V/m) @ t=0.14
0.6697439174941198
% es.tEy (V/m) @ t=0.14
0
% es.tEz (V/m) @ t=0.14
-0.6687674200948321
% V (V) @ t=0.14
0.010325366535339024
% es.normE (V/m) @ t=0.16
0.9733264741564562
% es.EX (V/m) @ t=0.16
0.6760798142305018
% es.EY (V/m) @ t=0.16
0.10123542839915955
% es.EZ (V/m) @ t=0.16
-0.6750940790402737
% es.tEX (V/m) @ t=0.16
0.6760798142305027
% es.tEY (V/m) @ t=0.16
0
% es.tEZ (V/m) @ t=0.16
-0.6750940790402558
% es.Ex (V/m) @ t=0.16
0.6760798142305018
% es.Ey (V/m) @ t=0.16
0.10123542839915955
% es.Ez (V/m) @ t=0.16
-0.6750940790402737
% es.tEx (V/m) @ t=0.16
0.6760798142305027
% es.tEy (V/m) @ t=0.16
0
% es.tEz (V/m) @ t=0.16
-0.6750940790402558
% V (V) @ t=0.16
0.010423046324937993
% es.normE (V/m) @ t=0.18
0.9824480244836895
% es.EX (V/m) @ t=0.18
0.6824157109668849
% es.EY (V/m) @ t=0.18
0.1021841584967017
% es.EZ (V/m) @ t=0.18
-0.6814207379856976
% es.tEX (V/m) @ t=0.18
0.6824157109668865
% es.tEY (V/m) @ t=0.18
0
% es.tEZ (V/m) @ t=0.18
-0.6814207379856865
% es.Ex (V/m) @ t=0.18
0.6824157109668849
% es.Ey (V/m) @ t=0.18
0.1021841584967017
% es.Ez (V/m) @ t=0.18
-0.6814207379856976
% es.tEx (V/m) @ t=0.18
0.6824157109668865
% es.tEy (V/m) @ t=0.18
0
% es.tEz (V/m) @ t=0.18
-0.6814207379856865
% V (V) @ t=0.18
0.010520726114536963
% es.normE (V/m) @ t=0.2
0.9915695748109237
% es.EX (V/m) @ t=0.2
0.6887516077032703
% es.EY (V/m) @ t=0.2
0.10313288859423964
% es.EZ (V/m) @ t=0.2
-0.6877473969311145
% es.tEX (V/m) @ t=0.2
0.6887516077032734
% es.tEY (V/m) @ t=0.2
0
% es.tEZ (V/m) @ t=0.2
-0.6877473969311034
% es.Ex (V/m) @ t=0.2
0.6887516077032703
% es.Ey (V/m) @ t=0.2
0.10313288859423964
% es.Ez (V/m) @ t=0.2
-0.6877473969311145
% es.tEx (V/m) @ t=0.2
0.6887516077032734
% es.tEy (V/m) @ t=0.2
0
% es.tEz (V/m) @ t=0.2
-0.6877473969311034
% V (V) @ t=0.2
0.010618405904135932
% es.normE (V/m) @ t=0.22
1.0006911251381705
% es.EX (V/m) @ t=0.22
0.6950875044396534
% es.EY (V/m) @ t=0.22
0.10408161869178839
% es.EZ (V/m) @ t=0.22
-0.6940740558765521
% es.tEX (V/m) @ t=0.22
0.6950875044396558
% es.tEY (V/m) @ t=0.22
0
% es.tEZ (V/m) @ t=0.22
-0.6940740558765413
% es.Ex (V/m) @ t=0.22
0.6950875044396534
% es.Ey (V/m) @ t=0.22
0.10408161869178839
% es.Ez (V/m) @ t=0.22
-0.6940740558765521
% es.tEx (V/m) @ t=0.22
0.6950875044396558
% es.tEy (V/m) @ t=0.22
0
% es.tEz (V/m) @ t=0.22
-0.6940740558765413
% V (V) @ t=0.22
0.010716085693734901
% es.normE (V/m) @ t=0.24
1.0098126754654053
% es.EX (V/m) @ t=0.24
0.7014234011760412
% es.EY (V/m) @ t=0.24
0.1050303487893236
% es.EZ (V/m) @ t=0.24
-0.7004007148219684
% es.tEX (V/m) @ t=0.24
0.7014234011760458
% es.tEY (V/m) @ t=0.24
0
% es.tEZ (V/m) @ t=0.24
-0.7004007148219573
% es.Ex (V/m) @ t=0.24
0.7014234011760412
% es.Ey (V/m) @ t=0.24
0.1050303487893236
% es.Ez (V/m) @ t=0.24
-0.7004007148219684
% es.tEx (V/m) @ t=0.24
0.7014234011760458
% es.tEy (V/m) @ t=0.24
0
% es.tEz (V/m) @ t=0.24
-0.7004007148219573
% V (V) @ t=0.24
0.010813765483333869
% es.normE (V/m) @ t=0.26
1.018934225792633
% es.EX (V/m) @ t=0.26
0.7077592979124152
% es.EY (V/m) @ t=0.26
0.10597907888687108
% es.EZ (V/m) @ t=0.26
-0.7067273737673894
% es.tEX (V/m) @ t=0.26
0.7077592979124221
% es.tEY (V/m) @ t=0.26
0
% es.tEZ (V/m) @ t=0.26
-0.7067273737673752
% es.Ex (V/m) @ t=0.26
0.7077592979124152
% es.Ey (V/m) @ t=0.26
0.10597907888687108
% es.Ez (V/m) @ t=0.26
-0.7067273737673894
% es.tEx (V/m) @ t=0.26
0.7077592979124221
% es.tEy (V/m) @ t=0.26
0
% es.tEz (V/m) @ t=0.26
-0.7067273737673752
% V (V) @ t=0.26
0.01091144527293284
% es.normE (V/m) @ t=0.28
1.028871087312928
% es.EX (V/m) @ t=0.28
0.7146615158443552
% es.EY (V/m) @ t=0.28
0.10701261136464407
% es.EZ (V/m) @ t=0.28
-0.7136195275349695
% es.tEX (V/m) @ t=0.28
0.7146615158443574
% es.tEY (V/m) @ t=0.28
0
% es.tEZ (V/m) @ t=0.28
-0.7136195275349584
% es.Ex (V/m) @ t=0.28
0.7146615158443552
% es.Ey (V/m) @ t=0.28
0.10701261136464407
% es.Ez (V/m) @ t=0.28
-0.7136195275349695
% es.tEx (V/m) @ t=0.28
0.7146615158443574
% es.tEy (V/m) @ t=0.28
0
% es.tEz (V/m) @ t=0.28
-0.7136195275349584
% V (V) @ t=0.28
0.01101785589030835
% es.normE (V/m) @ t=0.3
1.0389953320924312
% es.EX (V/m) @ t=0.3
0.7216938915765085
% es.EY (V/m) @ t=0.3
0.10806563400340502
% es.EZ (V/m) @ t=0.3
-0.7206416491770806
% es.tEX (V/m) @ t=0.3
0.721693891576511
% es.tEY (V/m) @ t=0.3
0
% es.tEZ (V/m) @ t=0.3
-0.7206416491770664
% es.Ex (V/m) @ t=0.3
0.7216938915765085
% es.Ey (V/m) @ t=0.3
0.10806563400340502
% es.Ez (V/m) @ t=0.3
-0.7206416491770806
% es.tEx (V/m) @ t=0.3
0.721693891576511
% es.tEy (V/m) @ t=0.3
0
% es.tEz (V/m) @ t=0.3
-0.7206416491770664
% V (V) @ t=0.3
0.011126273116912654
% es.normE (V/m) @ t=0.32
1.0491195768719144
% es.EX (V/m) @ t=0.32
0.7287262673086536
% es.EY (V/m) @ t=0.32
0.10911865664216425
% es.EZ (V/m) @ t=0.32
-0.7276637708191713
% es.tEX (V/m) @ t=0.32
0.728726267308657
% es.tEY (V/m) @ t=0.32
0
% es.tEZ (V/m) @ t=0.32
-0.7276637708191531
% es.Ex (V/m) @ t=0.32
0.7287262673086536
% es.Ey (V/m) @ t=0.32
0.10911865664216425
% es.Ez (V/m) @ t=0.32
-0.7276637708191713
% es.tEx (V/m) @ t=0.32
0.728726267308657
% es.tEy (V/m) @ t=0.32
0
% es.tEz (V/m) @ t=0.32
-0.7276637708191531
% V (V) @ t=0.32
0.011234690343516953
% es.normE (V/m) @ t=0.34
1.059243821651409
% es.EX (V/m) @ t=0.34
0.7357586430408125
% es.EY (V/m) @ t=0.34
0.11017167928092458
% es.EZ (V/m) @ t=0.34
-0.7346858924612643
% es.tEX (V/m) @ t=0.34
0.735758643040815
% es.tEY (V/m) @ t=0.34
0
% es.tEZ (V/m) @ t=0.34
-0.7346858924612532
% es.Ex (V/m) @ t=0.34
0.7357586430408125
% es.Ey (V/m) @ t=0.34
0.11017167928092458
% es.Ez (V/m) @ t=0.34
-0.7346858924612643
% es.tEx (V/m) @ t=0.34
0.735758643040815
% es.tEy (V/m) @ t=0.34
0
% es.tEz (V/m) @ t=0.34
-0.7346858924612532
% V (V) @ t=0.34
0.011343107570121254
% es.normE (V/m) @ t=0.36
1.069368066430907
% es.EX (V/m) @ t=0.36
0.742791018772962
% es.EY (V/m) @ t=0.36
0.11122470191970135
% es.EZ (V/m) @ t=0.36
-0.7417080141033723
% es.tEX (V/m) @ t=0.36
0.7427910187729609
% es.tEY (V/m) @ t=0.36
0
% es.tEZ (V/m) @ t=0.36
-0.7417080141033683
% es.Ex (V/m) @ t=0.36
0.742791018772962
% es.Ey (V/m) @ t=0.36
0.11122470191970135
% es.Ez (V/m) @ t=0.36
-0.7417080141033723
% es.tEx (V/m) @ t=0.36
0.7427910187729609
% es.tEy (V/m) @ t=0.36
0
% es.tEz (V/m) @ t=0.36
-0.7417080141033683
% V (V) @ t=0.36
0.011451524796725553
% es.normE (V/m) @ t=0.38
1.0794923112103956
% es.EX (V/m) @ t=0.38
0.7498233945051058
% es.EY (V/m) @ t=0.38
0.11227772455845098
% es.EZ (V/m) @ t=0.38
-0.7487301357454732
% es.tEX (V/m) @ t=0.38
0.7498233945051136
% es.tEY (V/m) @ t=0.38
0
% es.tEZ (V/m) @ t=0.38
-0.748730135745455
% es.Ex (V/m) @ t=0.38
0.7498233945051058
% es.Ey (V/m) @ t=0.38
0.11227772455845098
% es.Ez (V/m) @ t=0.38
-0.7487301357454732
% es.tEx (V/m) @ t=0.38
0.7498233945051136
% es.tEy (V/m) @ t=0.38
0
% es.tEz (V/m) @ t=0.38
-0.748730135745455
% V (V) @ t=0.38
0.011559942023329852
% es.normE (V/m) @ t=0.4
1.0896165559898887
% es.EX (V/m) @ t=0.4
0.7568557702372556
% es.EY (V/m) @ t=0.4
0.11333074719721842
% es.EZ (V/m) @ t=0.4
-0.7557522573875697
% es.tEX (V/m) @ t=0.4
0.756855770237256
% es.tEY (V/m) @ t=0.4
0
% es.tEZ (V/m) @ t=0.4
-0.755752257387555
% es.Ex (V/m) @ t=0.4
0.7568557702372556
% es.Ey (V/m) @ t=0.4
0.11333074719721842
% es.Ez (V/m) @ t=0.4
-0.7557522573875697
% es.tEx (V/m) @ t=0.4
0.756855770237256
% es.tEy (V/m) @ t=0.4
0
% es.tEz (V/m) @ t=0.4
-0.755752257387555
% V (V) @ t=0.4
0.011668359249934155
% es.normE (V/m) @ t=0.42
1.0997408007693767
% es.EX (V/m) @ t=0.42
0.7638881459694036
% es.EY (V/m) @ t=0.42
0.11438376983598114
% es.EZ (V/m) @ t=0.42
-0.7627743790296666
% es.tEX (V/m) @ t=0.42
0.7638881459694096
% es.tEY (V/m) @ t=0.42
0
% es.tEZ (V/m) @ t=0.42
-0.762774379029663
% es.Ex (V/m) @ t=0.42
0.7638881459694036
% es.Ey (V/m) @ t=0.42
0.11438376983598114
% es.Ez (V/m) @ t=0.42
-0.7627743790296666
% es.tEx (V/m) @ t=0.42
0.7638881459694096
% es.tEy (V/m) @ t=0.42
0
% es.tEz (V/m) @ t=0.42
-0.762774379029663
% V (V) @ t=0.42
0.011776776476538454
% es.normE (V/m) @ t=0.44
1.10986504554888
% es.EX (V/m) @ t=0.44
0.7709205217015589
% es.EY (V/m) @ t=0.44
0.11543679247475214
% es.EZ (V/m) @ t=0.44
-0.7697965006717742
% es.tEX (V/m) @ t=0.44
0.7709205217015631
% es.tEY (V/m) @ t=0.44
0
% es.tEZ (V/m) @ t=0.44
-0.7697965006717631
% es.Ex (V/m) @ t=0.44
0.7709205217015589
% es.Ey (V/m) @ t=0.44
0.11543679247475214
% es.Ez (V/m) @ t=0.44
-0.7697965006717742
% es.tEx (V/m) @ t=0.44
0.7709205217015631
% es.tEy (V/m) @ t=0.44
0
% es.tEz (V/m) @ t=0.44
-0.7697965006717631
% V (V) @ t=0.44
0.011885193703142756
% es.normE (V/m) @ t=0.46
1.11998929032838
% es.EX (V/m) @ t=0.46
0.7779528974337111
% es.EY (V/m) @ t=0.46
0.11648981511352113
% es.EZ (V/m) @ t=0.46
-0.7768186223138787
% es.tEX (V/m) @ t=0.46
0.7779528974337153
% es.tEY (V/m) @ t=0.46
0
% es.tEZ (V/m) @ t=0.46
-0.776818622313864
% es.Ex (V/m) @ t=0.46
0.7779528974337111
% es.Ey (V/m) @ t=0.46
0.11648981511352113
% es.Ez (V/m) @ t=0.46
-0.7768186223138787
% es.tEx (V/m) @ t=0.46
0.7779528974337153
% es.tEy (V/m) @ t=0.46
0
% es.tEz (V/m) @ t=0.46
-0.776818622313864
% V (V) @ t=0.46
0.011993610929747055
% es.normE (V/m) @ t=0.48
1.1301135351078655
% es.EX (V/m) @ t=0.48
0.7849852731658602
% es.EY (V/m) @ t=0.48
0.11754283775228652
% es.EZ (V/m) @ t=0.48
-0.7838407439559689
% es.tEX (V/m) @ t=0.48
0.7849852731658591
% es.tEY (V/m) @ t=0.48
0
% es.tEZ (V/m) @ t=0.48
-0.7838407439559507
% es.Ex (V/m) @ t=0.48
0.7849852731658602
% es.Ey (V/m) @ t=0.48
0.11754283775228652
% es.Ez (V/m) @ t=0.48
-0.7838407439559689
% es.tEx (V/m) @ t=0.48
0.7849852731658591
% es.tEy (V/m) @ t=0.48
0
% es.tEz (V/m) @ t=0.48
-0.7838407439559507
% V (V) @ t=0.48
0.012102028156351356
% es.normE (V/m) @ t=0.5
1.140237779887352
% es.EX (V/m) @ t=0.5
0.792017648898006
% es.EY (V/m) @ t=0.5
0.11859586039103243
% es.EZ (V/m) @ t=0.5
-0.7908628655980663
% es.tEX (V/m) @ t=0.5
0.7920176488980109
% es.tEY (V/m) @ t=0.5
0
% es.tEZ (V/m) @ t=0.5
-0.7908628655980516
% es.Ex (V/m) @ t=0.5
0.792017648898006
% es.Ey (V/m) @ t=0.5
0.11859586039103243
% es.Ez (V/m) @ t=0.5
-0.7908628655980663
% es.tEx (V/m) @ t=0.5
0.7920176488980109
% es.tEy (V/m) @ t=0.5
0
% es.tEz (V/m) @ t=0.5
-0.7908628655980516
% V (V) @ t=0.5
0.012210445382955657
% es.normE (V/m) @ t=0.52
1.1503620246668618
% es.EX (V/m) @ t=0.52
0.7990500246301611
% es.EY (V/m) @ t=0.52
0.11964888302980164
% es.EZ (V/m) @ t=0.52
-0.7978849872401841
% es.tEX (V/m) @ t=0.52
0.7990500246301679
% es.tEY (V/m) @ t=0.52
0
% es.tEZ (V/m) @ t=0.52
-0.797884987240173
% es.Ex (V/m) @ t=0.52
0.7990500246301611
% es.Ey (V/m) @ t=0.52
0.11964888302980164
% es.Ez (V/m) @ t=0.52
-0.7978849872401841
% es.tEx (V/m) @ t=0.52
0.7990500246301679
% es.tEy (V/m) @ t=0.52
0
% es.tEz (V/m) @ t=0.52
-0.797884987240173
% V (V) @ t=0.52
0.012318862609559956
% es.normE (V/m) @ t=0.54
1.1612059658190872
% es.EX (V/m) @ t=0.54
0.8065823068635884
% es.EY (V/m) @ t=0.54
0.12077675973581581
% es.EZ (V/m) @ t=0.54
-0.8054062868673233
% es.tEX (V/m) @ t=0.54
0.8065823068635951
% es.tEY (V/m) @ t=0.54
0
% es.tEZ (V/m) @ t=0.54
-0.8054062868673126
% es.Ex (V/m) @ t=0.54
0.8065823068635884
% es.Ey (V/m) @ t=0.54
0.12077675973581581
% es.Ez (V/m) @ t=0.54
-0.8054062868673233
% es.tEx (V/m) @ t=0.54
0.8065823068635951
% es.tEy (V/m) @ t=0.54
0
% es.tEz (V/m) @ t=0.54
-0.8054062868673126
% V (V) @ t=0.54
0.012434986905930095
% es.normE (V/m) @ t=0.56
1.1724620011286473
% es.EX (V/m) @ t=0.56
0.8144008327911523
% es.EY (V/m) @ t=0.56
0.12194749746616546
% es.EZ (V/m) @ t=0.56
-0.8132134130442474
% es.tEX (V/m) @ t=0.56
0.8144008327911538
% es.tEY (V/m) @ t=0.56
0
% es.tEZ (V/m) @ t=0.56
-0.8132134130442292
% es.Ex (V/m) @ t=0.56
0.8144008327911523
% es.Ey (V/m) @ t=0.56
0.12194749746616546
% es.Ez (V/m) @ t=0.56
-0.8132134130442474
% es.tEx (V/m) @ t=0.56
0.8144008327911538
% es.tEy (V/m) @ t=0.56
0
% es.tEz (V/m) @ t=0.56
-0.8132134130442292
% V (V) @ t=0.56
0.012555524227765943
% es.normE (V/m) @ t=0.58
1.183718036438193
% es.EX (V/m) @ t=0.58
0.8222193587187061
% es.EY (V/m) @ t=0.58
0.12311823519651266
% es.EZ (V/m) @ t=0.58
-0.8210205392211578
% es.tEX (V/m) @ t=0.58
0.8222193587187094
% es.tEY (V/m) @ t=0.58
0
% es.tEZ (V/m) @ t=0.58
-0.8210205392211467
% es.Ex (V/m) @ t=0.58
0.8222193587187061
% es.Ey (V/m) @ t=0.58
0.12311823519651266
% es.Ez (V/m) @ t=0.58
-0.8210205392211578
% es.tEx (V/m) @ t=0.58
0.8222193587187094
% es.tEy (V/m) @ t=0.58
0
% es.tEz (V/m) @ t=0.58
-0.8210205392211467
% V (V) @ t=0.58
0.012676061549601795
% es.normE (V/m) @ t=0.6
1.1949740717477422
% es.EX (V/m) @ t=0.6
0.8300378846462582
% es.EY (V/m) @ t=0.6
0.12428897292688612
% es.EZ (V/m) @ t=0.6
-0.8288276653980753
% es.tEX (V/m) @ t=0.6
0.8300378846462633
% es.tEY (V/m) @ t=0.6
0
% es.tEZ (V/m) @ t=0.6
-0.8288276653980713
% es.Ex (V/m) @ t=0.6
0.8300378846462582
% es.Ey (V/m) @ t=0.6
0.12428897292688612
% es.Ez (V/m) @ t=0.6
-0.8288276653980753
% es.tEx (V/m) @ t=0.6
0.8300378846462633
% es.tEy (V/m) @ t=0.6
0
% es.tEz (V/m) @ t=0.6
-0.8288276653980713
% V (V) @ t=0.6
0.012796598871437644
% es.normE (V/m) @ t=0.62
1.2062301070572932
% es.EX (V/m) @ t=0.62
0.8378564105738142
% es.EY (V/m) @ t=0.62
0.1254597106572395
% es.EZ (V/m) @ t=0.62
-0.8366347915749954
% es.tEX (V/m) @ t=0.62
0.8378564105738122
% es.tEY (V/m) @ t=0.62
0
% es.tEZ (V/m) @ t=0.62
-0.8366347915749879
% es.Ex (V/m) @ t=0.62
0.8378564105738142
% es.Ey (V/m) @ t=0.62
0.1254597106572395
% es.Ez (V/m) @ t=0.62
-0.8366347915749954
% es.tEx (V/m) @ t=0.62
0.8378564105738122
% es.tEy (V/m) @ t=0.62
0
% es.tEz (V/m) @ t=0.62
-0.8366347915749879
% V (V) @ t=0.62
0.01291713619327349
% es.normE (V/m) @ t=0.64
1.21748614236685
% es.EX (V/m) @ t=0.64
0.8456749365013763
% es.EY (V/m) @ t=0.64
0.12663044838759535
% es.EZ (V/m) @ t=0.64
-0.8444419177519156
% es.tEX (V/m) @ t=0.64
0.8456749365013811
% es.tEY (V/m) @ t=0.64
0
% es.tEZ (V/m) @ t=0.64
-0.8444419177519045
% es.Ex (V/m) @ t=0.64
0.8456749365013763
% es.Ey (V/m) @ t=0.64
0.12663044838759535
% es.Ez (V/m) @ t=0.64
-0.8444419177519156
% es.tEx (V/m) @ t=0.64
0.8456749365013811
% es.tEy (V/m) @ t=0.64
0
% es.tEz (V/m) @ t=0.64
-0.8444419177519045
% V (V) @ t=0.64
0.01303767351510934
% es.normE (V/m) @ t=0.66
1.2287421776764011
% es.EX (V/m) @ t=0.66
0.8534934624289259
% es.EY (V/m) @ t=0.66
0.12780118611796099
% es.EZ (V/m) @ t=0.66
-0.8522490439288402
% es.tEX (V/m) @ t=0.66
0.8534934624289292
% es.tEY (V/m) @ t=0.66
0
% es.tEZ (V/m) @ t=0.66
-0.852249043928829
% es.Ex (V/m) @ t=0.66
0.8534934624289259
% es.Ey (V/m) @ t=0.66
0.12780118611796099
% es.Ez (V/m) @ t=0.66
-0.8522490439288402
% es.tEx (V/m) @ t=0.66
0.8534934624289292
% es.tEy (V/m) @ t=0.66
0
% es.tEz (V/m) @ t=0.66
-0.852249043928829
% V (V) @ t=0.66
0.013158210836945187
% es.normE (V/m) @ t=0.68
1.239998212985962
% es.EX (V/m) @ t=0.68
0.8613119883564884
% es.EY (V/m) @ t=0.68
0.128971923848322
% es.EZ (V/m) @ t=0.68
-0.8600561701057683
% es.tEX (V/m) @ t=0.68
0.8613119883564915
% es.tEY (V/m) @ t=0.68
0
% es.tEZ (V/m) @ t=0.68
-0.8600561701057536
% es.Ex (V/m) @ t=0.68
0.8613119883564884
% es.Ey (V/m) @ t=0.68
0.128971923848322
% es.Ez (V/m) @ t=0.68
-0.8600561701057683
% es.tEx (V/m) @ t=0.68
0.8613119883564915
% es.tEy (V/m) @ t=0.68
0
% es.tEz (V/m) @ t=0.68
-0.8600561701057536
% V (V) @ t=0.68
0.013278748158781033
% es.normE (V/m) @ t=0.7
1.2512542482955142
% es.EX (V/m) @ t=0.7
0.8691305142840438
% es.EY (V/m) @ t=0.7
0.1301426615786807
% es.EZ (V/m) @ t=0.7
-0.8678632962826849
% es.tEX (V/m) @ t=0.7
0.8691305142840471
% es.tEY (V/m) @ t=0.7
0
% es.tEZ (V/m) @ t=0.7
-0.8678632962826702
% es.Ex (V/m) @ t=0.7
0.8691305142840438
% es.Ey (V/m) @ t=0.7
0.1301426615786807
% es.Ez (V/m) @ t=0.7
-0.8678632962826849
% es.tEx (V/m) @ t=0.7
0.8691305142840471
% es.tEy (V/m) @ t=0.7
0
% es.tEz (V/m) @ t=0.7
-0.8678632962826702
% V (V) @ t=0.7
0.013399285480616883
% es.normE (V/m) @ t=0.72
1.2625102836050655
% es.EX (V/m) @ t=0.72
0.8769490402116047
% es.EY (V/m) @ t=0.72
0.13131339930904368
% es.EZ (V/m) @ t=0.72
-0.8756704224595988
% es.tEX (V/m) @ t=0.72
0.8769490402116027
% es.tEY (V/m) @ t=0.72
0
% es.tEZ (V/m) @ t=0.72
-0.8756704224595948
% es.Ex (V/m) @ t=0.72
0.8769490402116047
% es.Ey (V/m) @ t=0.72
0.13131339930904368
% es.Ez (V/m) @ t=0.72
-0.8756704224595988
% es.tEx (V/m) @ t=0.72
0.8769490402116027
% es.tEy (V/m) @ t=0.72
0
% es.tEz (V/m) @ t=0.72
-0.8756704224595948
% V (V) @ t=0.72
0.013519822802452732
% es.normE (V/m) @ t=0.74
1.2737663189146164
% es.EX (V/m) @ t=0.74
0.884767566139155
% es.EY (V/m) @ t=0.74
0.13248413703940293
% es.EZ (V/m) @ t=0.74
-0.8834775486365198
% es.tEX (V/m) @ t=0.74
0.8847675661391565
% es.tEY (V/m) @ t=0.74
0
% es.tEZ (V/m) @ t=0.74
-0.8834775486365123
% es.Ex (V/m) @ t=0.74
0.884767566139155
% es.Ey (V/m) @ t=0.74
0.13248413703940293
% es.Ez (V/m) @ t=0.74
-0.8834775486365198
% es.tEx (V/m) @ t=0.74
0.8847675661391565
% es.tEy (V/m) @ t=0.74
0
% es.tEz (V/m) @ t=0.74
-0.8834775486365123
% V (V) @ t=0.74
0.01364036012428858
% es.normE (V/m) @ t=0.76
1.285022354224156
% es.EX (V/m) @ t=0.76
0.8925860920667035
% es.EY (V/m) @ t=0.76
0.13365487476975546
% es.EZ (V/m) @ t=0.76
-0.8912846748134267
% es.tEX (V/m) @ t=0.76
0.8925860920667121
% es.tEY (V/m) @ t=0.76
0
% es.tEZ (V/m) @ t=0.76
-0.8912846748134156
% es.Ex (V/m) @ t=0.76
0.8925860920667035
% es.Ey (V/m) @ t=0.76
0.13365487476975546
% es.Ez (V/m) @ t=0.76
-0.8912846748134267
% es.tEx (V/m) @ t=0.76
0.8925860920667121
% es.tEy (V/m) @ t=0.76
0
% es.tEz (V/m) @ t=0.76
-0.8912846748134156
% V (V) @ t=0.76
0.013760897446124432
% es.normE (V/m) @ t=0.78
1.2962783895337222
% es.EX (V/m) @ t=0.78
0.9004046179942657
% es.EY (V/m) @ t=0.78
0.13482561250011593
% es.EZ (V/m) @ t=0.78
-0.8990918009903637
% es.tEX (V/m) @ t=0.78
0.9004046179942709
% es.tEY (V/m) @ t=0.78
0
% es.tEZ (V/m) @ t=0.78
-0.8990918009903455
% es.Ex (V/m) @ t=0.78
0.9004046179942657
% es.Ey (V/m) @ t=0.78
0.13482561250011593
% es.Ez (V/m) @ t=0.78
-0.8990918009903637
% es.tEx (V/m) @ t=0.78
0.9004046179942709
% es.tEy (V/m) @ t=0.78
0
% es.tEz (V/m) @ t=0.78
-0.8990918009903455
% V (V) @ t=0.78
0.013881434767960278
% es.normE (V/m) @ t=0.8
1.3081213498847846
% es.EX (V/m) @ t=0.8
0.9086308264288363
% es.EY (V/m) @ t=0.8
0.1360573961483787
% es.EZ (V/m) @ t=0.8
-0.9073060152526611
% es.tEX (V/m) @ t=0.8
0.9086308264288414
% es.tEY (V/m) @ t=0.8
0
% es.tEZ (V/m) @ t=0.8
-0.9073060152526429
% es.Ex (V/m) @ t=0.8
0.9086308264288363
% es.Ey (V/m) @ t=0.8
0.1360573961483787
% es.Ez (V/m) @ t=0.8
-0.9073060152526611
% es.tEx (V/m) @ t=0.8
0.9086308264288414
% es.tEy (V/m) @ t=0.8
0
% es.tEz (V/m) @ t=0.8
-0.9073060152526429
% V (V) @ t=0.8
0.01400825728741964
% es.normE (V/m) @ t=0.82
1.3206570273410057
% es.EX (V/m) @ t=0.82
0.9173382013260951
% es.EY (V/m) @ t=0.82
0.13736122911901205
% es.EZ (V/m) @ t=0.82
-0.9160006944126953
% es.tEX (V/m) @ t=0.82
0.9173382013261002
% es.tEY (V/m) @ t=0.82
0
% es.tEZ (V/m) @ t=0.82
-0.9160006944126842
% es.Ex (V/m) @ t=0.82
0.9173382013260951
% es.Ey (V/m) @ t=0.82
0.13736122911901205
% es.Ez (V/m) @ t=0.82
-0.9160006944126953
% es.tEx (V/m) @ t=0.82
0.9173382013261002
% es.tEy (V/m) @ t=0.82
0
% es.tEz (V/m) @ t=0.82
-0.9160006944126842
% V (V) @ t=0.82
0.014142497898790428
% es.normE (V/m) @ t=0.84
1.3331927047972543
% es.EX (V/m) @ t=0.84
0.926045576223349
% es.EY (V/m) @ t=0.84
0.13866506208966545
% es.EZ (V/m) @ t=0.84
-0.9246953735727668
% es.tEX (V/m) @ t=0.84
0.9260455762233537
% es.tEY (V/m) @ t=0.84
0
% es.tEZ (V/m) @ t=0.84
-0.9246953735727557
% es.Ex (V/m) @ t=0.84
0.926045576223349
% es.Ey (V/m) @ t=0.84
0.13866506208966545
% es.Ez (V/m) @ t=0.84
-0.9246953735727668
% es.tEx (V/m) @ t=0.84
0.9260455762233537
% es.tEy (V/m) @ t=0.84
0
% es.tEz (V/m) @ t=0.84
-0.9246953735727557
% V (V) @ t=0.84
0.014276738510161221
% es.normE (V/m) @ t=0.86
1.3457283822534953
% es.EX (V/m) @ t=0.86
0.934752951120611
% es.EY (V/m) @ t=0.86
0.13996889506030147
% es.EZ (V/m) @ t=0.86
-0.9333900527328223
% es.tEX (V/m) @ t=0.86
0.9347529511206156
% es.tEY (V/m) @ t=0.86
0
% es.tEZ (V/m) @ t=0.86
-0.9333900527328041
% es.Ex (V/m) @ t=0.86
0.934752951120611
% es.Ey (V/m) @ t=0.86
0.13996889506030147
% es.Ez (V/m) @ t=0.86
-0.9333900527328223
% es.tEx (V/m) @ t=0.86
0.9347529511206156
% es.tEy (V/m) @ t=0.86
0
% es.tEz (V/m) @ t=0.86
-0.9333900527328041
% V (V) @ t=0.86
0.014410979121532011
% es.normE (V/m) @ t=0.88
1.3582640597097382
% es.EX (V/m) @ t=0.88
0.943460326017868
% es.EY (V/m) @ t=0.88
0.14127272803096497
% es.EZ (V/m) @ t=0.88
-0.9420847318928849
% es.tEX (V/m) @ t=0.88
0.9434603260178744
% es.tEY (V/m) @ t=0.88
0
% es.tEZ (V/m) @ t=0.88
-0.9420847318928667
% es.Ex (V/m) @ t=0.88
0.943460326017868
% es.Ey (V/m) @ t=0.88
0.14127272803096497
% es.Ez (V/m) @ t=0.88
-0.9420847318928849
% es.tEx (V/m) @ t=0.88
0.9434603260178744
% es.tEy (V/m) @ t=0.88
0
% es.tEz (V/m) @ t=0.88
-0.9420847318928667
% V (V) @ t=0.88
0.0145452197329028
% es.normE (V/m) @ t=0.9
1.3707997371659726
% es.EX (V/m) @ t=0.9
0.9521677009151233
% es.EY (V/m) @ t=0.9
0.14257656100160188
% es.EZ (V/m) @ t=0.9
-0.9507794110529404
% es.tEX (V/m) @ t=0.9
0.9521677009151288
% es.tEY (V/m) @ t=0.9
0
% es.tEZ (V/m) @ t=0.9
-0.9507794110529293
% es.Ex (V/m) @ t=0.9
0.9521677009151233
% es.Ey (V/m) @ t=0.9
0.14257656100160188
% es.Ez (V/m) @ t=0.9
-0.9507794110529404
% es.tEx (V/m) @ t=0.9
0.9521677009151288
% es.tEy (V/m) @ t=0.9
0
% es.tEz (V/m) @ t=0.9
-0.9507794110529293
% V (V) @ t=0.9
0.01467946034427359
% es.normE (V/m) @ t=0.92
1.3833354146222065
% es.EX (V/m) @ t=0.92
0.9608750758123767
% es.EY (V/m) @ t=0.92
0.14388039397223235
% es.EZ (V/m) @ t=0.92
-0.9594740902129959
% es.tEX (V/m) @ t=0.92
0.9608750758123796
% es.tEY (V/m) @ t=0.92
0
% es.tEZ (V/m) @ t=0.92
-0.9594740902129848
% es.Ex (V/m) @ t=0.92
0.9608750758123767
% es.Ey (V/m) @ t=0.92
0.14388039397223235
% es.Ez (V/m) @ t=0.92
-0.9594740902129959
% es.tEx (V/m) @ t=0.92
0.9608750758123796
% es.tEy (V/m) @ t=0.92
0
% es.tEz (V/m) @ t=0.92
-0.9594740902129848
% V (V) @ t=0.92
0.014813700955644382
% es.normE (V/m) @ t=0.94
1.395871092078441
% es.EX (V/m) @ t=0.94
0.9695824507096267
% es.EY (V/m) @ t=0.94
0.1451842269428808
% es.EZ (V/m) @ t=0.94
-0.9681687693730514
% es.tEX (V/m) @ t=0.94
0.9695824507096313
% es.tEY (V/m) @ t=0.94
0
% es.tEZ (V/m) @ t=0.94
-0.9681687693730332
% es.Ex (V/m) @ t=0.94
0.9695824507096267
% es.Ey (V/m) @ t=0.94
0.1451842269428808
% es.Ez (V/m) @ t=0.94
-0.9681687693730514
% es.tEx (V/m) @ t=0.94
0.9695824507096313
% es.tEy (V/m) @ t=0.94
0
% es.tEz (V/m) @ t=0.94
-0.9681687693730332
% V (V) @ t=0.94
0.014947941567015172
% es.normE (V/m) @ t=0.96
1.4084067695346747
% es.EX (V/m) @ t=0.96
0.978289825606893
% es.EY (V/m) @ t=0.96
0.14648805991351993
% es.EZ (V/m) @ t=0.96
-0.9768634485330936
% es.tEX (V/m) @ t=0.96
0.9782898256068968
% es.tEY (V/m) @ t=0.96
0
% es.tEZ (V/m) @ t=0.96
-0.9768634485330825
% es.Ex (V/m) @ t=0.96
0.978289825606893
% es.Ey (V/m) @ t=0.96
0.14648805991351993
% es.Ez (V/m) @ t=0.96
-0.9768634485330936
% es.tEx (V/m) @ t=0.96
0.9782898256068968
% es.tEy (V/m) @ t=0.96
0
% es.tEz (V/m) @ t=0.96
-0.9768634485330825
% V (V) @ t=0.96
0.015082182178385962
% es.normE (V/m) @ t=0.98
1.420942446990915
% es.EX (V/m) @ t=0.98
0.9869972005041479
% es.EY (V/m) @ t=0.98
0.14779189288417266
% es.EZ (V/m) @ t=0.98
-0.9855581276931571
% es.tEX (V/m) @ t=0.98
0.9869972005041516
% es.tEY (V/m) @ t=0.98
0
% es.tEZ (V/m) @ t=0.98
-0.9855581276931389
% es.Ex (V/m) @ t=0.98
0.9869972005041479
% es.Ey (V/m) @ t=0.98
0.14779189288417266
% es.Ez (V/m) @ t=0.98
-0.9855581276931571
% es.tEx (V/m) @ t=0.98
0.9869972005041516
% es.tEy (V/m) @ t=0.98
0
% es.tEz (V/m) @ t=0.98
-0.9855581276931389
% V (V) @ t=0.98
0.015216422789756752
% es.normE (V/m) @ t=1
1.4334781244471484
% es.EX (V/m) @ t=1
0.9957045754014049
% es.EY (V/m) @ t=1
0.14909572585481573
% es.EZ (V/m) @ t=1
-0.9942528068532055
% es.tEX (V/m) @ t=1
0.9957045754014069
% es.tEY (V/m) @ t=1
0
% es.tEZ (V/m) @ t=1
-0.9942528068531873
% es.Ex (V/m) @ t=1
0.9957045754014049
% es.Ey (V/m) @ t=1
0.14909572585481573
% es.Ez (V/m) @ t=1
-0.9942528068532055
% es.tEx (V/m) @ t=1
0.9957045754014069
% es.tEy (V/m) @ t=1
0
% es.tEz (V/m) @ t=1
-0.9942528068531873
% V (V) @ t=1
0.015350663401127545
% es.normE (V/m) @ t=1.02
1.4460138019033812
% es.EX (V/m) @ t=1.02
1.0044119502986597
% es.EY (V/m) @ t=1.02
0.15039955882546685
% es.EZ (V/m) @ t=1.02
-1.002947486013254
% es.tEX (V/m) @ t=1.02
1.0044119502986617
% es.tEY (V/m) @ t=1.02
0
% es.tEZ (V/m) @ t=1.02
-1.0029474860132428
% es.Ex (V/m) @ t=1.02
1.0044119502986597
% es.Ey (V/m) @ t=1.02
0.15039955882546685
% es.Ez (V/m) @ t=1.02
-1.002947486013254
% es.tEx (V/m) @ t=1.02
1.0044119502986617
% es.tEy (V/m) @ t=1.02
0
% es.tEz (V/m) @ t=1.02
-1.0029474860132428
% V (V) @ t=1.02
0.015484904012498333
% es.normE (V/m) @ t=1.04
1.4585494793596259
% es.EX (V/m) @ t=1.04
1.013119325195914
% es.EY (V/m) @ t=1.04
0.15170339179610814
% es.EZ (V/m) @ t=1.04
-1.0116421651733236