% Model:              1 neuron.mph
% Version:            COMSOL 6.0.0.405
% Date:               Mar 16 2023, 17:52
% Dimension:          0
% Nodes:              14017
% Expressions:        14017
% Description:        Electric field norm, Electric field, X component, Electric field, Y component, Electric field, Z component, Tangential electric field, X component, Tangential electric field, Y component, Tangential electric field, Z component, Electric field, x component, Electric field, y component, Electric field, z component, Tangential electric field, x component, Tangential electric field, y component, Tangential electric field, z component, Electric potential
% Length unit:        mm
% x
1
% y
12.2
% z
1.33
% es.normE (V/m) @ t=0
2.0449941399335625
% es.EX (V/m) @ t=0
1.889842046215164
% es.EY (V/m) @ t=0
0.11899599456191223
% es.EZ (V/m) @ t=0
0.7639931916363014
% es.tEX (V/m) @ t=0
1.8898420462151613
% es.tEY (V/m) @ t=0
0
% es.tEZ (V/m) @ t=0
0.7639931916363025
% es.Ex (V/m) @ t=0
1.889842046215164
% es.Ey (V/m) @ t=0
0.11899599456191223
% es.Ez (V/m) @ t=0
0.7639931916363014
% es.tEx (V/m) @ t=0
1.8898420462151613
% es.tEy (V/m) @ t=0
0
% es.tEz (V/m) @ t=0
0.7639931916363025
% V (V) @ t=0
0.010200763550491782
% es.normE (V/m) @ t=0.02
1.7662992709990077
% es.EX (V/m) @ t=0.02
1.6322915366326916
% es.EY (V/m) @ t=0.02
0.10277904278598593
% es.EZ (V/m) @ t=0.02
0.6598750550001973
% es.tEX (V/m) @ t=0.02
1.632291536632688
% es.tEY (V/m) @ t=0.02
0
% es.tEZ (V/m) @ t=0.02
0.6598750550001973
% es.Ex (V/m) @ t=0.02
1.6322915366326916
% es.Ey (V/m) @ t=0.02
0.10277904278598593
% es.Ez (V/m) @ t=0.02
0.6598750550001973
% es.tEx (V/m) @ t=0.02
1.632291536632688
% es.tEy (V/m) @ t=0.02
0
% es.tEz (V/m) @ t=0.02
0.6598750550001973
% V (V) @ t=0.02
0.008810587962860677
% es.normE (V/m) @ t=0.04
1.782545800420829
% es.EX (V/m) @ t=0.04
1.6473054546417165
% es.EY (V/m) @ t=0.04
0.10372441080984185
% es.EZ (V/m) @ t=0.04
0.6659446264196438
% es.tEX (V/m) @ t=0.04
1.6473054546417147
% es.tEY (V/m) @ t=0.04
0
% es.tEZ (V/m) @ t=0.04
0.6659446264196411
% es.Ex (V/m) @ t=0.04
1.6473054546417165
% es.Ey (V/m) @ t=0.04
0.10372441080984185
% es.Ez (V/m) @ t=0.04
0.6659446264196438
% es.tEx (V/m) @ t=0.04
1.6473054546417147
% es.tEy (V/m) @ t=0.04
0
% es.tEz (V/m) @ t=0.04
0.6659446264196411
% V (V) @ t=0.04
0.008891628281871226
% es.normE (V/m) @ t=0.06
1.7989299838359905
% es.EX (V/m) @ t=0.06
1.6624465833242232
% es.EY (V/m) @ t=0.06
0.10467778823856577
% es.EZ (V/m) @ t=0.06
0.6720656234482323
% es.tEX (V/m) @ t=0.06
1.6624465833242263
% es.tEY (V/m) @ t=0.06
0
% es.tEZ (V/m) @ t=0.06
0.6720656234482338
% es.Ex (V/m) @ t=0.06
1.6624465833242232
% es.Ey (V/m) @ t=0.06
0.10467778823856577
% es.Ez (V/m) @ t=0.06
0.6720656234482323
% es.tEx (V/m) @ t=0.06
1.6624465833242263
% es.tEy (V/m) @ t=0.06
0
% es.tEz (V/m) @ t=0.06
0.6720656234482338
% V (V) @ t=0.06
0.008973355374383008
% es.normE (V/m) @ t=0.08
1.815584733594224
% es.EX (V/m) @ t=0.08
1.6778377503818436
% es.EY (V/m) @ t=0.08
0.10564690997649329
% es.EZ (V/m) @ t=0.08
0.6782877025437044
% es.tEX (V/m) @ t=0.08
1.6778377503818422
% es.tEY (V/m) @ t=0.08
0
% es.tEZ (V/m) @ t=0.08
0.678287702543706
% es.Ex (V/m) @ t=0.08
1.6778377503818436
% es.Ey (V/m) @ t=0.08
0.10564690997649329
% es.Ez (V/m) @ t=0.08
0.6782877025437044
% es.tEx (V/m) @ t=0.08
1.6778377503818422
% es.tEy (V/m) @ t=0.08
0
% es.tEz (V/m) @ t=0.08
0.678287702543706
% V (V) @ t=0.08
0.009056432004235665
% es.normE (V/m) @ t=0.1
1.832384964461347
% es.EX (V/m) @ t=0.1
1.6933633608431085
% es.EY (V/m) @ t=0.1
0.10662449728901746
% es.EZ (V/m) @ t=0.1
0.6845641325647871
% es.tEX (V/m) @ t=0.1
1.693363360843108
% es.tEY (V/m) @ t=0.1
0
% es.tEZ (V/m) @ t=0.1
0.6845641325647844
% es.Ex (V/m) @ t=0.1
1.6933633608431085
% es.Ey (V/m) @ t=0.1
0.10662449728901746
% es.Ez (V/m) @ t=0.1
0.6845641325647871
% es.tEx (V/m) @ t=0.1
1.693363360843108
% es.tEy (V/m) @ t=0.1
0
% es.tEz (V/m) @ t=0.1
0.6845641325647844
% V (V) @ t=0.1
0.009140234268276879
% es.normE (V/m) @ t=0.12
1.8491851953284497
% es.EX (V/m) @ t=0.12
1.7088889713043551
% es.EY (V/m) @ t=0.12
0.10760208460153542
% es.EZ (V/m) @ t=0.12
0.6908405625858622
% es.tEX (V/m) @ t=0.12
1.708888971304356
% es.tEY (V/m) @ t=0.12
0
% es.tEZ (V/m) @ t=0.12
0.6908405625858682
% es.Ex (V/m) @ t=0.12
1.7088889713043551
% es.Ey (V/m) @ t=0.12
0.10760208460153542
% es.Ez (V/m) @ t=0.12
0.6908405625858622
% es.tEx (V/m) @ t=0.12
1.708888971304356
% es.tEy (V/m) @ t=0.12
0
% es.tEz (V/m) @ t=0.12
0.6908405625858682
% V (V) @ t=0.12
0.00922403653231809
% es.normE (V/m) @ t=0.14
1.8662585401056462
% es.EX (V/m) @ t=0.14
1.7246669741429637
% es.EY (V/m) @ t=0.14
0.10859556494691458
% es.EZ (V/m) @ t=0.14
0.6972190270019298
% es.tEX (V/m) @ t=0.14
1.7246669741429574
% es.tEY (V/m) @ t=0.14
0
% es.tEZ (V/m) @ t=0.14
0.6972190270019301
% es.Ex (V/m) @ t=0.14
1.7246669741429637
% es.Ey (V/m) @ t=0.14
0.10859556494691458
% es.Ez (V/m) @ t=0.14
0.6972190270019298
% es.tEx (V/m) @ t=0.14
1.7246669741429574
% es.tEy (V/m) @ t=0.14
0
% es.tEz (V/m) @ t=0.14
0.6972190270019301
% V (V) @ t=0.14
0.009309200919793151
% es.normE (V/m) @ t=0.16
1.8839385456657598
% es.EX (V/m) @ t=0.16
1.741005609565958
% es.EY (V/m) @ t=0.16
0.10962434807036225
% es.EZ (V/m) @ t=0.16
0.703824137750072
% es.tEX (V/m) @ t=0.16
1.7410056095659598
% es.tEY (V/m) @ t=0.16
0
% es.tEZ (V/m) @ t=0.16
0.7038241377500771
% es.Ex (V/m) @ t=0.16
1.741005609565958
% es.Ey (V/m) @ t=0.16
0.10962434807036225
% es.Ez (V/m) @ t=0.16
0.703824137750072
% es.tEx (V/m) @ t=0.16
1.7410056095659598
% es.tEy (V/m) @ t=0.16
0
% es.tEz (V/m) @ t=0.16
0.7038241377500771
% V (V) @ t=0.16
0.009397390956414373
% es.normE (V/m) @ t=0.18
1.9016185512258847
% es.EX (V/m) @ t=0.18
1.7573442449889676
% es.EY (V/m) @ t=0.18
0.11065313119380038
% es.EZ (V/m) @ t=0.18
0.7104292484982082
% es.tEX (V/m) @ t=0.18
1.7573442449889711
% es.tEY (V/m) @ t=0.18
0
% es.tEZ (V/m) @ t=0.18
0.7104292484982064
% es.Ex (V/m) @ t=0.18
1.7573442449889676
% es.Ey (V/m) @ t=0.18
0.11065313119380038
% es.Ez (V/m) @ t=0.18
0.7104292484982082
% es.tEx (V/m) @ t=0.18
1.7573442449889711
% es.tEy (V/m) @ t=0.18
0
% es.tEz (V/m) @ t=0.18
0.7104292484982064
% V (V) @ t=0.18
0.009485580993035593
% es.normE (V/m) @ t=0.2
1.919298556786002
% es.EX (V/m) @ t=0.2
1.7736828804119638
% es.EY (V/m) @ t=0.2
0.11168191431724017
% es.EZ (V/m) @ t=0.2
0.7170343592463568
% es.tEX (V/m) @ t=0.2
1.773682880411961
% es.tEY (V/m) @ t=0.2
0
% es.tEZ (V/m) @ t=0.2
0.7170343592463566
% es.Ex (V/m) @ t=0.2
1.7736828804119638
% es.Ey (V/m) @ t=0.2
0.11168191431724017
% es.Ez (V/m) @ t=0.2
0.7170343592463568
% es.tEx (V/m) @ t=0.2
1.773682880411961
% es.tEy (V/m) @ t=0.2
0
% es.tEz (V/m) @ t=0.2
0.7170343592463566
% V (V) @ t=0.2
0.009573771029656813
% es.normE (V/m) @ t=0.22
1.9369785623461162
% es.EX (V/m) @ t=0.22
1.7900215158349662
% es.EY (V/m) @ t=0.22
0.1127106974406843
% es.EZ (V/m) @ t=0.22
0.7236394699944817
% es.tEX (V/m) @ t=0.22
1.7900215158349742
% es.tEY (V/m) @ t=0.22
0
% es.tEZ (V/m) @ t=0.22
0.723639469994489
% es.Ex (V/m) @ t=0.22
1.7900215158349662
% es.Ey (V/m) @ t=0.22
0.1127106974406843
% es.Ez (V/m) @ t=0.22
0.7236394699944817
% es.tEx (V/m) @ t=0.22
1.7900215158349742
% es.tEy (V/m) @ t=0.22
0
% es.tEz (V/m) @ t=0.22
0.723639469994489
% V (V) @ t=0.22
0.009661961066278035
% es.normE (V/m) @ t=0.24
1.9546585679062423
% es.EX (V/m) @ t=0.24
1.806360151257974
% es.EY (V/m) @ t=0.24
0.11373948056412131
% es.EZ (V/m) @ t=0.24
0.730244580742627
% es.tEX (V/m) @ t=0.24
1.8063601512579677
% es.tEY (V/m) @ t=0.24
0
% es.tEZ (V/m) @ t=0.24
0.7302445807426285
% es.Ex (V/m) @ t=0.24
1.806360151257974
% es.Ey (V/m) @ t=0.24
0.11373948056412131
% es.Ez (V/m) @ t=0.24
0.730244580742627
% es.tEx (V/m) @ t=0.24
1.8063601512579677
% es.tEy (V/m) @ t=0.24
0
% es.tEz (V/m) @ t=0.24
0.7302445807426285
% V (V) @ t=0.24
0.009750151102899257
% es.normE (V/m) @ t=0.26
1.9723385734663554
% es.EX (V/m) @ t=0.26
1.8226987866809656
% es.EY (V/m) @ t=0.26
0.11476826368756743
% es.EZ (V/m) @ t=0.26
0.7368496914907734
% es.tEX (V/m) @ t=0.26
1.8226987866809665
% es.tEY (V/m) @ t=0.26
0
% es.tEZ (V/m) @ t=0.26
0.7368496914907707
% es.Ex (V/m) @ t=0.26
1.8226987866809656
% es.Ey (V/m) @ t=0.26
0.11476826368756743
% es.Ez (V/m) @ t=0.26
0.7368496914907734
% es.tEx (V/m) @ t=0.26
1.8226987866809665
% es.tEy (V/m) @ t=0.26
0
% es.tEz (V/m) @ t=0.26
0.7368496914907707
% V (V) @ t=0.26
0.009838341139520477
% es.normE (V/m) @ t=0.28
1.991263714022086
% es.EX (V/m) @ t=0.28
1.8401880842099319
% es.EY (V/m) @ t=0.28
0.1158695070589345
% es.EZ (V/m) @ t=0.28
0.7439199862231294
% es.tEX (V/m) @ t=0.28
1.8401880842099327
% es.tEY (V/m) @ t=0.28
0
% es.tEZ (V/m) @ t=0.28
0.7439199862231312
% es.Ex (V/m) @ t=0.28
1.8401880842099319
% es.Ey (V/m) @ t=0.28
0.1158695070589345
% es.Ez (V/m) @ t=0.28
0.7439199862231294
% es.tEx (V/m) @ t=0.28
1.8401880842099327
% es.tEy (V/m) @ t=0.28
0
% es.tEz (V/m) @ t=0.28
0.7439199862231312
% V (V) @ t=0.28
0.009932740256017673
% es.normE (V/m) @ t=0.3
2.0109180646663614
% es.EX (V/m) @ t=0.3
1.8583512640240638
% es.EY (V/m) @ t=0.3
0.11701318658703341
% es.EZ (V/m) @ t=0.3
0.7512627147522164
% es.tEX (V/m) @ t=0.3
1.8583512640240603
% es.tEY (V/m) @ t=0.3
0
% es.tEZ (V/m) @ t=0.3
0.7512627147522206
% es.Ex (V/m) @ t=0.3
1.8583512640240638
% es.Ey (V/m) @ t=0.3
0.11701318658703341
% es.Ez (V/m) @ t=0.3
0.7512627147522164
% es.tEx (V/m) @ t=0.3
1.8583512640240603
% es.tEy (V/m) @ t=0.3
0
% es.tEz (V/m) @ t=0.3
0.7512627147522206
% V (V) @ t=0.3
0.010030775704078999
% es.normE (V/m) @ t=0.32
2.0305724153106404
% es.EX (V/m) @ t=0.32
1.8765144438381895
% es.EY (V/m) @ t=0.32
0.11815686611513232
% es.EZ (V/m) @ t=0.32
0.7586054432813276
% es.tEX (V/m) @ t=0.32
1.8765144438381895
% es.tEY (V/m) @ t=0.32
0
% es.tEZ (V/m) @ t=0.32
0.7586054432813265
% es.Ex (V/m) @ t=0.32
1.8765144438381895
% es.Ey (V/m) @ t=0.32
0.11815686611513232
% es.Ez (V/m) @ t=0.32
0.7586054432813276
% es.tEx (V/m) @ t=0.32
1.8765144438381895
% es.tEy (V/m) @ t=0.32
0
% es.tEz (V/m) @ t=0.32
0.7586054432813265
% V (V) @ t=0.32
0.010128811152140326
% es.normE (V/m) @ t=0.34
2.0502267659549034
% es.EX (V/m) @ t=0.34
1.8946776236523064
% es.EY (V/m) @ t=0.34
0.11930054564321879
% es.EZ (V/m) @ t=0.34
0.765948171810418
% es.tEX (V/m) @ t=0.34
1.8946776236523135
% es.tEY (V/m) @ t=0.34
0
% es.tEZ (V/m) @ t=0.34
0.7659481718104124
% es.Ex (V/m) @ t=0.34
1.8946776236523064
% es.Ey (V/m) @ t=0.34
0.11930054564321879
% es.Ez (V/m) @ t=0.34
0.765948171810418
% es.tEx (V/m) @ t=0.34
1.8946776236523135
% es.tEy (V/m) @ t=0.34
0
% es.tEz (V/m) @ t=0.34
0.7659481718104124
% V (V) @ t=0.34
0.010226846600201652
% es.normE (V/m) @ t=0.36
2.0698811165991833
% es.EX (V/m) @ t=0.36
1.9128408034664366
% es.EY (V/m) @ t=0.36
0.1204442251713248
% es.EZ (V/m) @ t=0.36
0.773290900339515
% es.tEX (V/m) @ t=0.36
1.9128408034664357
% es.tEY (V/m) @ t=0.36
0
% es.tEZ (V/m) @ t=0.36
0.7732909003395116
% es.Ex (V/m) @ t=0.36
1.9128408034664366
% es.Ey (V/m) @ t=0.36
0.1204442251713248
% es.Ez (V/m) @ t=0.36
0.773290900339515
% es.tEx (V/m) @ t=0.36
1.9128408034664357
% es.tEy (V/m) @ t=0.36
0
% es.tEz (V/m) @ t=0.36
0.7732909003395116
% V (V) @ t=0.36
0.010324882048262976
% es.normE (V/m) @ t=0.38
2.0895354672434605
% es.EX (V/m) @ t=0.38
1.931003983280565
% es.EY (V/m) @ t=0.38
0.12158790469940861
% es.EZ (V/m) @ t=0.38
0.7806336288686146
% es.tEX (V/m) @ t=0.38
1.931003983280558
% es.tEY (V/m) @ t=0.38
0
% es.tEZ (V/m) @ t=0.38
0.7806336288686162
% es.Ex (V/m) @ t=0.38
1.931003983280565
% es.Ey (V/m) @ t=0.38
0.12158790469940861
% es.Ez (V/m) @ t=0.38
0.7806336288686146
% es.tEx (V/m) @ t=0.38
1.931003983280558
% es.tEy (V/m) @ t=0.38
0
% es.tEz (V/m) @ t=0.38
0.7806336288686162
% V (V) @ t=0.38
0.010422917496324301
% es.normE (V/m) @ t=0.4
2.1091898178877333
% es.EX (V/m) @ t=0.4
1.949167163094689
% es.EY (V/m) @ t=0.4
0.12273158422751729
% es.EZ (V/m) @ t=0.4
0.7879763573977041
% es.tEX (V/m) @ t=0.4
1.949167163094689
% es.tEY (V/m) @ t=0.4
0
% es.tEZ (V/m) @ t=0.4
0.7879763573977074
% es.Ex (V/m) @ t=0.4
1.949167163094689
% es.Ey (V/m) @ t=0.4
0.12273158422751729
% es.Ez (V/m) @ t=0.4
0.7879763573977041
% es.tEx (V/m) @ t=0.4
1.949167163094689
% es.tEy (V/m) @ t=0.4
0
% es.tEz (V/m) @ t=0.4
0.7879763573977074
% V (V) @ t=0.4
0.010520952944385627
% es.normE (V/m) @ t=0.42
2.128844168532005
% es.EX (V/m) @ t=0.42
1.9673303429088103
% es.EY (V/m) @ t=0.42
0.12387526375560831
% es.EZ (V/m) @ t=0.42
0.7953190859268051
% es.tEX (V/m) @ t=0.42
1.9673303429088111
% es.tEY (V/m) @ t=0.42
0
% es.tEZ (V/m) @ t=0.42
0.7953190859268071
% es.Ex (V/m) @ t=0.42
1.9673303429088103
% es.Ey (V/m) @ t=0.42
0.12387526375560831
% es.Ez (V/m) @ t=0.42
0.7953190859268051
% es.tEx (V/m) @ t=0.42
1.9673303429088111
% es.tEy (V/m) @ t=0.42
0
% es.tEz (V/m) @ t=0.42
0.7953190859268071
% V (V) @ t=0.42
0.010618988392446951
% es.normE (V/m) @ t=0.44
2.1484985191762815
% es.EX (V/m) @ t=0.44
1.9854935227229342
% es.EY (V/m) @ t=0.44
0.1250189432837
% es.EZ (V/m) @ t=0.44
0.8026618144559052
% es.tEX (V/m) @ t=0.44
1.9854935227229387
% es.tEY (V/m) @ t=0.44
0
% es.tEZ (V/m) @ t=0.44
0.8026618144559126
% es.Ex (V/m) @ t=0.44
1.9854935227229342
% es.Ey (V/m) @ t=0.44
0.1250189432837
% es.Ez (V/m) @ t=0.44
0.8026618144559052
% es.tEx (V/m) @ t=0.44
1.9854935227229387
% es.tEy (V/m) @ t=0.44
0
% es.tEz (V/m) @ t=0.44
0.8026618144559126
% V (V) @ t=0.44
0.010717023840508277
% es.normE (V/m) @ t=0.46
2.1681528698205557
% es.EX (V/m) @ t=0.46
2.0036567025370546
% es.EY (V/m) @ t=0.46
0.12616262281180513
% es.EZ (V/m) @ t=0.46
0.810004542985008
% es.tEX (V/m) @ t=0.46
2.003656702537052
% es.tEY (V/m) @ t=0.46
0
% es.tEZ (V/m) @ t=0.46
0.810004542985002
% es.Ex (V/m) @ t=0.46
2.0036567025370546
% es.Ey (V/m) @ t=0.46
0.12616262281180513
% es.Ez (V/m) @ t=0.46
0.810004542985008
% es.tEx (V/m) @ t=0.46
2.003656702537052
% es.tEy (V/m) @ t=0.46
0
% es.tEz (V/m) @ t=0.46
0.810004542985002
% V (V) @ t=0.46
0.010815059288569604
% es.normE (V/m) @ t=0.48
2.187807220464837
% es.EX (V/m) @ t=0.48
2.021819882351193
% es.EY (V/m) @ t=0.48
0.12730630233988616
% es.EZ (V/m) @ t=0.48
0.8173472715140913
% es.tEX (V/m) @ t=0.48
2.0218198823511866
% es.tEY (V/m) @ t=0.48
0
% es.tEZ (V/m) @ t=0.48
0.817347271514095
% es.Ex (V/m) @ t=0.48
2.021819882351193
% es.Ey (V/m) @ t=0.48
0.12730630233988616
% es.Ez (V/m) @ t=0.48
0.8173472715140913
% es.tEx (V/m) @ t=0.48
2.0218198823511866
% es.tEy (V/m) @ t=0.48
0
% es.tEz (V/m) @ t=0.48
0.817347271514095
% V (V) @ t=0.48
0.010913094736630928
% es.normE (V/m) @ t=0.5
2.2074615711091115
% es.EX (V/m) @ t=0.5
2.039983062165309
% es.EY (V/m) @ t=0.5
0.12844998186798862
% es.EZ (V/m) @ t=0.5
0.8246900000432038
% es.tEX (V/m) @ t=0.5
2.039983062165309
% es.tEY (V/m) @ t=0.5
0
% es.tEZ (V/m) @ t=0.5
0.8246900000432098
% es.Ex (V/m) @ t=0.5
2.039983062165309
% es.Ey (V/m) @ t=0.5
0.12844998186798862
% es.Ez (V/m) @ t=0.5
0.8246900000432038
% es.tEx (V/m) @ t=0.5
2.039983062165309
% es.tEy (V/m) @ t=0.5
0
% es.tEz (V/m) @ t=0.5
0.8246900000432098
% V (V) @ t=0.5
0.011011130184692252
% es.normE (V/m) @ t=0.52
2.227115921753386
% es.EX (V/m) @ t=0.52
2.0581462419794363
% es.EY (V/m) @ t=0.52
0.1295936613960771
% es.EZ (V/m) @ t=0.52
0.8320327285722862
% es.tEX (V/m) @ t=0.52
2.058146241979429
% es.tEY (V/m) @ t=0.52
0
% es.tEZ (V/m) @ t=0.52
0.8320327285722797
% es.Ex (V/m) @ t=0.52
2.0581462419794363
% es.Ey (V/m) @ t=0.52
0.1295936613960771
% es.Ez (V/m) @ t=0.52
0.8320327285722862
% es.tEx (V/m) @ t=0.52
2.058146241979429
% es.tEy (V/m) @ t=0.52
0
% es.tEz (V/m) @ t=0.52
0.8320327285722797
% V (V) @ t=0.52
0.011109165632753578
% es.normE (V/m) @ t=0.54
2.2473754773932595
% es.EX (V/m) @ t=0.54
2.0768687132862453
% es.EY (V/m) @ t=0.54
0.13077255328995618
% es.EZ (V/m) @ t=0.54
0.8396015505485146
% es.tEX (V/m) @ t=0.54
2.0768687132862347
% es.tEY (V/m) @ t=0.54
0
% es.tEZ (V/m) @ t=0.54
0.8396015505485157
% es.Ex (V/m) @ t=0.54
2.0768687132862453
% es.Ey (V/m) @ t=0.54
0.13077255328995618
% es.Ez (V/m) @ t=0.54
0.8396015505485146
% es.tEx (V/m) @ t=0.54
2.0768687132862347
% es.tEy (V/m) @ t=0.54
0
% es.tEz (V/m) @ t=0.54
0.8396015505485157
% V (V) @ t=0.54
0.011210220937068697
% es.normE (V/m) @ t=0.56
2.269262238916024
% es.EX (V/m) @ t=0.56
2.0970949435073907
% es.EY (V/m) @ t=0.56
0.1320461201603892
% es.EZ (V/m) @ t=0.56
0.8477782666927933
% es.tEX (V/m) @ t=0.56
2.0970949435073933
% es.tEY (V/m) @ t=0.56
0
% es.tEZ (V/m) @ t=0.56
0.8477782666927918
% es.Ex (V/m) @ t=0.56
2.0970949435073907
% es.Ey (V/m) @ t=0.56
0.1320461201603892
% es.Ez (V/m) @ t=0.56
0.8477782666927933
% es.tEx (V/m) @ t=0.56
2.0970949435073933
% es.tEy (V/m) @ t=0.56
0
% es.tEz (V/m) @ t=0.56
0.8477782666927918
% V (V) @ t=0.56
0.011319395685039198
% es.normE (V/m) @ t=0.58
2.2911490004387955
% es.EX (V/m) @ t=0.58
2.11732117372855
% es.EY (V/m) @ t=0.58
0.13331968703081998
% es.EZ (V/m) @ t=0.58
0.8559549828370521
% es.tEX (V/m) @ t=0.58
2.1173211737285467
% es.tEY (V/m) @ t=0.58
0
% es.tEZ (V/m) @ t=0.58
0.8559549828370479
% es.Ex (V/m) @ t=0.58
2.11732117372855
% es.Ey (V/m) @ t=0.58
0.13331968703081998
% es.Ez (V/m) @ t=0.58
0.8559549828370521
% es.tEx (V/m) @ t=0.58
2.1173211737285467
% es.tEy (V/m) @ t=0.58
0
% es.tEz (V/m) @ t=0.58
0.8559549828370479
% V (V) @ t=0.58
0.011428570433009698
% es.normE (V/m) @ t=0.6
2.313035761961561
% es.EX (V/m) @ t=0.6
2.1375474039497
% es.EY (V/m) @ t=0.6
0.13459325390124632
% es.EZ (V/m) @ t=0.6
0.8641316989813197
% es.tEX (V/m) @ t=0.6
2.1375474039497036
% es.tEY (V/m) @ t=0.6
0
% es.tEZ (V/m) @ t=0.6
0.8641316989813284
% es.Ex (V/m) @ t=0.6
2.1375474039497
% es.Ey (V/m) @ t=0.6
0.13459325390124632
% es.Ez (V/m) @ t=0.6
0.8641316989813197
% es.tEx (V/m) @ t=0.6
2.1375474039497036
% es.tEy (V/m) @ t=0.6
0
% es.tEz (V/m) @ t=0.6
0.8641316989813284
% V (V) @ t=0.6
0.0115377451809802
% es.normE (V/m) @ t=0.62
2.3349225234843214
% es.EX (V/m) @ t=0.62
2.1577736341708524
% es.EY (V/m) @ t=0.62
0.13586682077165824
% es.EZ (V/m) @ t=0.62
0.8723084151255702
% es.tEX (V/m) @ t=0.62
2.1577736341708604
% es.tEY (V/m) @ t=0.62
0
% es.tEZ (V/m) @ t=0.62
0.8723084151255684
% es.Ex (V/m) @ t=0.62
2.1577736341708524
% es.Ey (V/m) @ t=0.62
0.13586682077165824
% es.Ez (V/m) @ t=0.62
0.8723084151255702
% es.tEx (V/m) @ t=0.62
2.1577736341708604
% es.tEy (V/m) @ t=0.62
0
% es.tEz (V/m) @ t=0.62
0.8723084151255684
% V (V) @ t=0.62
0.0116469199289507
% es.normE (V/m) @ t=0.64
2.3568092850070896
% es.EX (V/m) @ t=0.64
2.1779998643920058
% es.EY (V/m) @ t=0.64
0.13714038764206937
% es.EZ (V/m) @ t=0.64
0.8804851312698372
% es.tEX (V/m) @ t=0.64
2.17799986439201
% es.tEY (V/m) @ t=0.64
0
% es.tEZ (V/m) @ t=0.64
0.8804851312698414
% es.Ex (V/m) @ t=0.64
2.1779998643920058
% es.Ey (V/m) @ t=0.64
0.13714038764206937
% es.Ez (V/m) @ t=0.64
0.8804851312698372
% es.tEx (V/m) @ t=0.64
2.17799986439201
% es.tEy (V/m) @ t=0.64
0
% es.tEz (V/m) @ t=0.64
0.8804851312698414
% V (V) @ t=0.64
0.011756094676921198
% es.normE (V/m) @ t=0.66
2.3786960465298495
% es.EX (V/m) @ t=0.66
2.1982260946131547
% es.EY (V/m) @ t=0.66
0.1384139545125188
% es.EZ (V/m) @ t=0.66
0.8886618474140897
% es.tEX (V/m) @ t=0.66
2.19822609461316
% es.tEY (V/m) @ t=0.66
0
% es.tEZ (V/m) @ t=0.66
0.8886618474140922
% es.Ex (V/m) @ t=0.66
2.1982260946131547
% es.Ey (V/m) @ t=0.66
0.1384139545125188
% es.Ez (V/m) @ t=0.66
0.8886618474140897
% es.tEx (V/m) @ t=0.66
2.19822609461316
% es.tEy (V/m) @ t=0.66
0
% es.tEz (V/m) @ t=0.66
0.8886618474140922
% V (V) @ t=0.66
0.0118652694248917
% es.normE (V/m) @ t=0.68
2.400582808052623
% es.EX (V/m) @ t=0.68
2.218452324834315
% es.EY (V/m) @ t=0.68
0.1396875213829325
% es.EZ (V/m) @ t=0.68
0.896838563558356
% es.tEX (V/m) @ t=0.68
2.2184523248343204
% es.tEY (V/m) @ t=0.68
0
% es.tEZ (V/m) @ t=0.68
0.8968385635583571
% es.Ex (V/m) @ t=0.68
2.218452324834315
% es.Ey (V/m) @ t=0.68
0.1396875213829325
% es.Ez (V/m) @ t=0.68
0.896838563558356
% es.tEx (V/m) @ t=0.68
2.2184523248343204
% es.tEy (V/m) @ t=0.68
0
% es.tEz (V/m) @ t=0.68
0.8968385635583571
% V (V) @ t=0.68
0.011974444172862201
% es.normE (V/m) @ t=0.7
2.422469569575398
% es.EX (V/m) @ t=0.7
2.238678555055473
% es.EY (V/m) @ t=0.7
0.14096108825335962
% es.EZ (V/m) @ t=0.7
0.9050152797026294
% es.tEX (V/m) @ t=0.7
2.2386785550554755
% es.tEY (V/m) @ t=0.7
0
% es.tEZ (V/m) @ t=0.7
0.9050152797026354
% es.Ex (V/m) @ t=0.7
2.238678555055473
% es.Ey (V/m) @ t=0.7
0.14096108825335962
% es.Ez (V/m) @ t=0.7
0.9050152797026294
% es.tEx (V/m) @ t=0.7
2.2386785550554755
% es.tEy (V/m) @ t=0.7
0
% es.tEz (V/m) @ t=0.7
0.9050152797026354
% V (V) @ t=0.7
0.012083618920832699
% es.normE (V/m) @ t=0.72
2.4443563310981666
% es.EX (V/m) @ t=0.72
2.2589047852766324
% es.EY (V/m) @ t=0.72
0.1422346551237752
% es.EZ (V/m) @ t=0.72
0.9131919958468819
% es.tEX (V/m) @ t=0.72
2.2589047852766324
% es.tEY (V/m) @ t=0.72
0
% es.tEZ (V/m) @ t=0.72
0.9131919958468733
% es.Ex (V/m) @ t=0.72
2.2589047852766324
% es.Ey (V/m) @ t=0.72
0.1422346551237752
% es.Ez (V/m) @ t=0.72
0.9131919958468819
% es.tEx (V/m) @ t=0.72
2.2589047852766324
% es.tEy (V/m) @ t=0.72
0
% es.tEz (V/m) @ t=0.72
0.9131919958468733
% V (V) @ t=0.72
0.0121927936688032
% es.normE (V/m) @ t=0.74
2.4662430926209247
% es.EX (V/m) @ t=0.74
2.2791310154977733
% es.EY (V/m) @ t=0.74
0.14350822199420954
% es.EZ (V/m) @ t=0.74
0.9213687119911542
% es.tEX (V/m) @ t=0.74
2.2791310154977715
% es.tEY (V/m) @ t=0.74
0
% es.tEZ (V/m) @ t=0.74
0.9213687119911631
% es.Ex (V/m) @ t=0.74
2.2791310154977733
% es.Ey (V/m) @ t=0.74
0.14350822199420954
% es.Ez (V/m) @ t=0.74
0.9213687119911542
% es.tEx (V/m) @ t=0.74
2.2791310154977715
% es.tEy (V/m) @ t=0.74
0
% es.tEz (V/m) @ t=0.74
0.9213687119911631
% V (V) @ t=0.74
0.0123019684167737
% es.normE (V/m) @ t=0.76
2.4881298541436863
% es.EX (V/m) @ t=0.76
2.2993572457189266
% es.EY (V/m) @ t=0.76
0.14478178886462412
% es.EZ (V/m) @ t=0.76
0.9295454281354028
% es.tEX (V/m) @ t=0.76
2.299357245718932
% es.tEY (V/m) @ t=0.76
0
% es.tEZ (V/m) @ t=0.76
0.9295454281354134
% es.Ex (V/m) @ t=0.76
2.2993572457189266
% es.Ey (V/m) @ t=0.76
0.14478178886462412
% es.Ez (V/m) @ t=0.76
0.9295454281354028
% es.tEx (V/m) @ t=0.76
2.299357245718932
% es.tEy (V/m) @ t=0.76
0
% es.tEz (V/m) @ t=0.76
0.9295454281354134
% V (V) @ t=0.76
0.012411143164744202
% es.normE (V/m) @ t=0.78
2.5100166156664487
% es.EX (V/m) @ t=0.78
2.3195834759400737
% es.EY (V/m) @ t=0.78
0.1460553557350478
% es.EZ (V/m) @ t=0.78
0.9377221442796695
% es.tEX (V/m) @ t=0.78
2.319583475940071
% es.tEY (V/m) @ t=0.78
0
% es.tEZ (V/m) @ t=0.78
0.9377221442796646
% es.Ex (V/m) @ t=0.78
2.3195834759400737
% es.Ey (V/m) @ t=0.78
0.1460553557350478
% es.Ez (V/m) @ t=0.78
0.9377221442796695
% es.tEx (V/m) @ t=0.78
2.319583475940071
% es.tEy (V/m) @ t=0.78
0
% es.tEz (V/m) @ t=0.78
0.9377221442796646
% V (V) @ t=0.78
0.012520317912714704
% es.normE (V/m) @ t=0.8
2.5319033771892294
% es.EX (V/m) @ t=0.8
2.339809706161242
% es.EY (V/m) @ t=0.8
0.1473289226054677
% es.EZ (V/m) @ t=0.8
0.9458988604239322
% es.tEX (V/m) @ t=0.8
2.339809706161244
% es.tEY (V/m) @ t=0.8
0
% es.tEZ (V/m) @ t=0.8
0.9458988604239371
% es.Ex (V/m) @ t=0.8
2.339809706161242
% es.Ey (V/m) @ t=0.8
0.1473289226054677
% es.Ez (V/m) @ t=0.8
0.9458988604239322
% es.tEx (V/m) @ t=0.8
2.339809706161244
% es.tEy (V/m) @ t=0.8
0
% es.tEz (V/m) @ t=0.8
0.9458988604239371
% V (V) @ t=0.8
0.012629492660685204
% es.normE (V/m) @ t=0.82
2.5560944019649705
% es.EX (V/m) @ t=0.82
2.3621652520546057
% es.EY (V/m) @ t=0.82
0.14873673500147921
% es.EZ (V/m) @ t=0.82
0.9549366969011395
% es.tEX (V/m) @ t=0.82
2.362165252054602
% es.tEY (V/m) @ t=0.82
0
% es.tEZ (V/m) @ t=0.82
0.9549366969011324
% es.Ex (V/m) @ t=0.82
2.3621652520546057
% es.Ey (V/m) @ t=0.82
0.14873673500147921
% es.Ez (V/m) @ t=0.82
0.9549366969011395
% es.tEx (V/m) @ t=0.82
2.362165252054602
% es.tEy (V/m) @ t=0.82
0
% es.tEz (V/m) @ t=0.82
0.9549366969011324
% V (V) @ t=0.82
0.012750119315767122
% es.normE (V/m) @ t=0.84
2.580509039227471
% es.EX (V/m) @ t=0.84
2.3847274330066295
% es.EY (V/m) @ t=0.84
0.15015757497832594
% es.EZ (V/m) @ t=0.84
0.9640580990294243
% es.tEX (V/m) @ t=0.84
2.3847274330066313
% es.tEY (V/m) @ t=0.84
0
% es.tEZ (V/m) @ t=0.84
0.9640580990294207
% es.Ex (V/m) @ t=0.84
2.3847274330066295
% es.Ey (V/m) @ t=0.84
0.15015757497832594
% es.Ez (V/m) @ t=0.84
0.9640580990294243
% es.tEx (V/m) @ t=0.84
2.3847274330066313
% es.tEy (V/m) @ t=0.84
0
% es.tEz (V/m) @ t=0.84
0.9640580990294207
% V (V) @ t=0.84
0.01287185729761404
% es.normE (V/m) @ t=0.86
2.6049236764900208
% es.EX (V/m) @ t=0.86
2.407289613958648
% es.EY (V/m) @ t=0.86
0.15157841495519575
% es.EZ (V/m) @ t=0.86
0.9731795011577047
% es.tEX (V/m) @ t=0.86
2.4072896139586497
% es.tEY (V/m) @ t=0.86
0
% es.tEZ (V/m) @ t=0.86
0.9731795011577145
% es.Ex (V/m) @ t=0.86
2.407289613958648
% es.Ey (V/m) @ t=0.86
0.15157841495519575
% es.Ez (V/m) @ t=0.86
0.9731795011577047
% es.tEx (V/m) @ t=0.86
2.4072896139586497
% es.tEy (V/m) @ t=0.86
0
% es.tEz (V/m) @ t=0.86
0.9731795011577145
% V (V) @ t=0.86
0.012993595279460953
% es.normE (V/m) @ t=0.88
2.629338313752629
% es.EX (V/m) @ t=0.88
2.4298517949106673
% es.EY (V/m) @ t=0.88
0.15299925493201938
% es.EZ (V/m) @ t=0.88
0.9823009032859988
% es.tEX (V/m) @ t=0.88
2.429851794910668
% es.tEY (V/m) @ t=0.88
0
% es.tEZ (V/m) @ t=0.88
0.9823009032859922
% es.Ex (V/m) @ t=0.88
2.4298517949106673
% es.Ey (V/m) @ t=0.88
0.15299925493201938
% es.Ez (V/m) @ t=0.88
0.9823009032859988
% es.tEx (V/m) @ t=0.88
2.429851794910668
% es.tEy (V/m) @ t=0.88
0
% es.tEz (V/m) @ t=0.88
0.9823009032859922
% V (V) @ t=0.88
0.013115333261307873
% es.normE (V/m) @ t=0.9
2.6537529510152886
% es.EX (V/m) @ t=0.9
2.4524139758626804
% es.EY (V/m) @ t=0.9
0.15442009490888375
% es.EZ (V/m) @ t=0.9
0.9914223054142983
% es.tEX (V/m) @ t=0.9
2.4524139758626813
% es.tEY (V/m) @ t=0.9
0
% es.tEZ (V/m) @ t=0.9
0.9914223054142957
% es.Ex (V/m) @ t=0.9
2.4524139758626804
% es.Ey (V/m) @ t=0.9
0.15442009490888375
% es.Ez (V/m) @ t=0.9
0.9914223054142983
% es.tEx (V/m) @ t=0.9
2.4524139758626813
% es.tEy (V/m) @ t=0.9
0
% es.tEz (V/m) @ t=0.9
0.9914223054142957
% V (V) @ t=0.9
0.01323707124315479
% es.normE (V/m) @ t=0.92
2.678167588278005
% es.EX (V/m) @ t=0.92
2.4749761568147104
% es.EY (V/m) @ t=0.92
0.15584093488574458
% es.EZ (V/m) @ t=0.92
1.0005437075425752
% es.tEX (V/m) @ t=0.92
2.474976156814707
% es.tEY (V/m) @ t=0.92
0
% es.tEZ (V/m) @ t=0.92
1.0005437075425752
% es.Ex (V/m) @ t=0.92
2.4749761568147104
% es.Ey (V/m) @ t=0.92
0.15584093488574458
% es.Ez (V/m) @ t=0.92
1.0005437075425752
% es.tEx (V/m) @ t=0.92
2.474976156814707
% es.tEy (V/m) @ t=0.92
0
% es.tEz (V/m) @ t=0.92
1.0005437075425752
% V (V) @ t=0.92
0.013358809225001706
% es.normE (V/m) @ t=0.94
2.7025822255407634
% es.EX (V/m) @ t=0.94
2.497538337766729
% es.EY (V/m) @ t=0.94
0.1572617748625844
% es.EZ (V/m) @ t=0.94
1.0096651096708609
% es.tEX (V/m) @ t=0.94
2.497538337766734
% es.tEY (V/m) @ t=0.94
0
% es.tEZ (V/m) @ t=0.94
1.0096651096708582
% es.Ex (V/m) @ t=0.94
2.497538337766729
% es.Ey (V/m) @ t=0.94
0.1572617748625844
% es.Ez (V/m) @ t=0.94
1.0096651096708609
% es.tEx (V/m) @ t=0.94
2.497538337766734
% es.tEy (V/m) @ t=0.94
0
% es.tEz (V/m) @ t=0.94
1.0096651096708582
% V (V) @ t=0.94
0.013480547206848622
% es.normE (V/m) @ t=0.96
2.726996862803579
% es.EX (V/m) @ t=0.96
2.5201005187187455
% es.EY (V/m) @ t=0.96
0.15868261483945778
% es.EZ (V/m) @ t=0.96
1.0187865117991675
% es.tEX (V/m) @ t=0.96
2.520100518718756
% es.tEY (V/m) @ t=0.96
0
% es.tEZ (V/m) @ t=0.96
1.0187865117991608
% es.Ex (V/m) @ t=0.96
2.5201005187187455
% es.Ey (V/m) @ t=0.96
0.15868261483945778
% es.Ez (V/m) @ t=0.96
1.0187865117991675
% es.tEx (V/m) @ t=0.96
2.520100518718756
% es.tEy (V/m) @ t=0.96
0
% es.tEz (V/m) @ t=0.96
1.0187865117991608
% V (V) @ t=0.96
0.013602285188695539
% es.normE (V/m) @ t=0.98
2.7514115000664274
% es.EX (V/m) @ t=0.98
2.5426626996707666
% es.EY (V/m) @ t=0.98
0.16010345481629018
% es.EZ (V/m) @ t=0.98
1.0279079139274288
% es.tEX (V/m) @ t=0.98
2.54266269967078
% es.tEY (V/m) @ t=0.98
0
% es.tEZ (V/m) @ t=0.98
1.0279079139274314
% es.Ex (V/m) @ t=0.98
2.5426626996707666
% es.Ey (V/m) @ t=0.98
0.16010345481629018
% es.Ez (V/m) @ t=0.98
1.0279079139274288
% es.tEx (V/m) @ t=0.98
2.54266269967078
% es.tEy (V/m) @ t=0.98
0
% es.tEz (V/m) @ t=0.98
1.0279079139274314
% V (V) @ t=0.98
0.013724023170542454
% es.normE (V/m) @ t=1
2.775826137329326
% es.EX (V/m) @ t=1
2.5652248806227798
% es.EY (V/m) @ t=1
0.16152429479313524
% es.EZ (V/m) @ t=1
1.0370293160557233
% es.tEX (V/m) @ t=1
2.5652248806227806
% es.tEY (V/m) @ t=1
0
% es.tEZ (V/m) @ t=1
1.0370293160557242
% es.Ex (V/m) @ t=1
2.5652248806227798
% es.Ey (V/m) @ t=1
0.16152429479313524
% es.Ez (V/m) @ t=1
1.0370293160557233
% es.tEx (V/m) @ t=1
2.5652248806227806
% es.tEy (V/m) @ t=1
0
% es.tEz (V/m) @ t=1
1.0370293160557242
% V (V) @ t=1
0.01384576115238937
% es.normE (V/m) @ t=1.02
2.8002407745922753
% es.EX (V/m) @ t=1.02
2.587787061574801
% es.EY (V/m) @ t=1.02
0.16294513476999772
% es.EZ (V/m) @ t=1.02
1.0461507181840108
% es.tEX (V/m) @ t=1.02
2.587787061574806
% es.tEY (V/m) @ t=1.02
0
% es.tEZ (V/m) @ t=1.02
1.0461507181840037
% es.Ex (V/m) @ t=1.02
2.587787061574801
% es.Ey (V/m) @ t=1.02
0.16294513476999772
% es.Ez (V/m) @ t=1.02
1.0461507181840108
% es.tEx (V/m) @ t=1.02
2.587787061574806
% es.tEy (V/m) @ t=1.02
0
% es.tEz (V/m) @ t=1.02
1.0461507181840037
% V (V) @ t=1.02
0.013967499134236288
% es.normE (V/m) @ t=1.04
2.8246554118552765
% es.EX (V/m) @ t=1.04
2.61034924252683
% es.EY (V/m) @ t=1.04
0.16436597474684433
% es.EZ (V/m) @ t=1.04
1.0552721203123019
% es.tEX (V/m) @ t=1.04
2.61034924252683
% es.tEY (V/m) @ t=1.04
0
% es.tEZ (V/m) @ t=1.04
1.0552721203123054
% es.Ex (V/m) @ t=1.04
2.61034924252683
% es.Ey (V/m) @ t=1.04
0.16436597474684433
% es.Ez (V/m) @ t=1.04
1.0552721203123019
% es.tEx (V/m) @ t=1.04
2.61034924252683
% es.tEy (V/m) @ t=1.04
0