% Model:              1 neuron.mph
% Version:            COMSOL 6.0.0.405
% Date:               Mar 16 2023, 17:55
% Dimension:          0
% Nodes:              14017
% Expressions:        14017
% Description:        Electric field norm, Electric field, X component, Electric field, Y component, Electric field, Z component, Tangential electric field, X component, Tangential electric field, Y component, Tangential electric field, Z component, Electric field, x component, Electric field, y component, Electric field, z component, Tangential electric field, x component, Tangential electric field, y component, Tangential electric field, z component, Electric potential
% Length unit:        mm
% x
2
% y
12.2
% z
1.33
% es.normE (V/m) @ t=0
1.922639527173474
% es.EX (V/m) @ t=0
-1.7684001434563392
% es.EY (V/m) @ t=0
0.13794714927671836
% es.EZ (V/m) @ t=0
0.7395785611684889
% es.tEX (V/m) @ t=0
-1.7684001434563381
% es.tEY (V/m) @ t=0
0
% es.tEZ (V/m) @ t=0
0.7395785611684822
% es.Ex (V/m) @ t=0
-1.7684001434563392
% es.Ey (V/m) @ t=0
0.13794714927671836
% es.Ez (V/m) @ t=0
0.7395785611684889
% es.tEx (V/m) @ t=0
-1.7684001434563381
% es.tEy (V/m) @ t=0
0
% es.tEz (V/m) @ t=0
0.7395785611684822
% V (V) @ t=0
0.010734484755084947
% es.normE (V/m) @ t=0.02
1.6606193146382633
% es.EX (V/m) @ t=0.02
-1.5273999056106977
% es.EY (V/m) @ t=0.02
0.11914750313258266
% es.EZ (V/m) @ t=0.02
0.6387876826262
% es.tEX (V/m) @ t=0.02
-1.5273999056106966
% es.tEY (V/m) @ t=0.02
0
% es.tEZ (V/m) @ t=0.02
0.638787682626198
% es.Ex (V/m) @ t=0.02
-1.5273999056106977
% es.Ey (V/m) @ t=0.02
0.11914750313258266
% es.Ez (V/m) @ t=0.02
0.6387876826262
% es.tEx (V/m) @ t=0.02
-1.5273999056106966
% es.tEy (V/m) @ t=0.02
0
% es.tEz (V/m) @ t=0.02
0.638787682626198
% V (V) @ t=0.02
0.009271572654433331
% es.normE (V/m) @ t=0.04
1.6758942675465833
% es.EX (V/m) @ t=0.04
-1.5414494589709806
% es.EY (V/m) @ t=0.04
0.12024346235730043
% es.EZ (V/m) @ t=0.04
0.644663476396089
% es.tEX (V/m) @ t=0.04
-1.5414494589709804
% es.tEY (V/m) @ t=0.04
0
% es.tEZ (V/m) @ t=0.04
0.6446634763960901
% es.Ex (V/m) @ t=0.04
-1.5414494589709806
% es.Ey (V/m) @ t=0.04
0.12024346235730043
% es.Ez (V/m) @ t=0.04
0.644663476396089
% es.tEx (V/m) @ t=0.04
-1.5414494589709804
% es.tEy (V/m) @ t=0.04
0
% es.tEz (V/m) @ t=0.04
0.6446634763960901
% V (V) @ t=0.04
0.009356855392219126
% es.normE (V/m) @ t=0.06
1.691293186729228
% es.EX (V/m) @ t=0.06
-1.5556130348636086
% es.EY (V/m) @ t=0.06
0.12134831687757835
% es.EZ (V/m) @ t=0.06
0.6505869531674832
% es.tEX (V/m) @ t=0.06
-1.5556130348635993
% es.tEY (V/m) @ t=0.06
0
% es.tEZ (V/m) @ t=0.06
0.6505869531674833
% es.Ex (V/m) @ t=0.06
-1.5556130348636086
% es.Ey (V/m) @ t=0.06
0.12134831687757835
% es.Ez (V/m) @ t=0.06
0.6505869531674832
% es.tEx (V/m) @ t=0.06
-1.5556130348635993
% es.tEy (V/m) @ t=0.06
0
% es.tEz (V/m) @ t=0.06
0.6505869531674833
% V (V) @ t=0.06
0.009442830661189379
% es.normE (V/m) @ t=0.08
1.706959121536487
% es.EX (V/m) @ t=0.08
-1.5700222063849358
% es.EY (V/m) @ t=0.08
0.1224723299967031
% es.EZ (V/m) @ t=0.08
0.6566131405984509
% es.tEX (V/m) @ t=0.08
-1.5700222063849303
% es.tEY (V/m) @ t=0.08
0
% es.tEZ (V/m) @ t=0.08
0.6566131405984486
% es.Ex (V/m) @ t=0.08
-1.5700222063849358
% es.Ey (V/m) @ t=0.08
0.1224723299967031
% es.Ez (V/m) @ t=0.08
0.6566131405984509
% es.tEx (V/m) @ t=0.08
-1.5700222063849303
% es.tEy (V/m) @ t=0.08
0
% es.tEz (V/m) @ t=0.08
0.6566131405984486
% V (V) @ t=0.08
0.009530296982013192
% es.normE (V/m) @ t=0.1
1.7227442943060085
% es.EX (V/m) @ t=0.1
-1.5845410505980768
% es.EY (V/m) @ t=0.1
0.12360489854133211
% es.EZ (V/m) @ t=0.1
0.6626851942957319
% es.tEX (V/m) @ t=0.1
-1.5845410505980677
% es.tEY (V/m) @ t=0.1
0
% es.tEZ (V/m) @ t=0.1
0.6626851942957224
% es.Ex (V/m) @ t=0.1
-1.5845410505980768
% es.Ey (V/m) @ t=0.1
0.12360489854133211
% es.Ez (V/m) @ t=0.1
0.6626851942957319
% es.tEx (V/m) @ t=0.1
-1.5845410505980677
% es.tEy (V/m) @ t=0.1
0
% es.tEz (V/m) @ t=0.1
0.6626851942957224
% V (V) @ t=0.1
0.009618429143964843
% es.normE (V/m) @ t=0.12
1.7385294670755318
% es.EX (V/m) @ t=0.12
-1.599059894811216
% es.EY (V/m) @ t=0.12
0.12473746708598243
% es.EZ (V/m) @ t=0.12
0.6687572479930166
% es.tEX (V/m) @ t=0.12
-1.599059894811214
% es.tEY (V/m) @ t=0.12
0
% es.tEZ (V/m) @ t=0.12
0.668757247993014
% es.Ex (V/m) @ t=0.12
-1.599059894811216
% es.Ey (V/m) @ t=0.12
0.12473746708598243
% es.Ez (V/m) @ t=0.12
0.6687572479930166
% es.tEx (V/m) @ t=0.12
-1.599059894811214
% es.tEy (V/m) @ t=0.12
0
% es.tEz (V/m) @ t=0.12
0.668757247993014
% V (V) @ t=0.12
0.009706561305916496
% es.normE (V/m) @ t=0.14
1.7546346654229186
% es.EX (V/m) @ t=0.14
-1.613873092199569
% es.EY (V/m) @ t=0.14
0.1258929977765783
% es.EZ (V/m) @ t=0.14
0.6749524031147466
% es.tEX (V/m) @ t=0.14
-1.6138730921995563
% es.tEY (V/m) @ t=0.14
0
% es.tEZ (V/m) @ t=0.14
0.674952403114748
% es.Ex (V/m) @ t=0.14
-1.613873092199569
% es.Ey (V/m) @ t=0.14
0.1258929977765783
% es.Ez (V/m) @ t=0.14
0.6749524031147466
% es.tEx (V/m) @ t=0.14
-1.6138730921995563
% es.tEy (V/m) @ t=0.14
0
% es.tEz (V/m) @ t=0.14
0.674952403114748
% V (V) @ t=0.14
0.009796480552014262
% es.normE (V/m) @ t=0.16
1.7712356940696887
% es.EX (V/m) @ t=0.16
-1.62914234445692
% es.EY (V/m) @ t=0.16
0.1270841047725696
% es.EZ (V/m) @ t=0.16
0.6813382849169809
% es.tEX (V/m) @ t=0.16
-1.6291423444569197
% es.tEY (V/m) @ t=0.16
0
% es.tEZ (V/m) @ t=0.16
0.6813382849169827
% es.Ex (V/m) @ t=0.16
-1.62914234445692
% es.Ey (V/m) @ t=0.16
0.1270841047725696
% es.Ez (V/m) @ t=0.16
0.6813382849169809
% es.tEx (V/m) @ t=0.16
-1.6291423444569197
% es.tEy (V/m) @ t=0.16
0
% es.tEz (V/m) @ t=0.16
0.6813382849169827
% V (V) @ t=0.16
0.009889168609508928
% es.normE (V/m) @ t=0.18
1.7878367227164809
% es.EX (V/m) @ t=0.18
-1.644411596714288
% es.EY (V/m) @ t=0.18
0.12827521176856438
% es.EZ (V/m) @ t=0.18
0.6877241667192311
% es.tEX (V/m) @ t=0.18
-1.644411596714285
% es.tEY (V/m) @ t=0.18
0
% es.tEZ (V/m) @ t=0.18
0.6877241667192457
% es.Ex (V/m) @ t=0.18
-1.644411596714288
% es.Ey (V/m) @ t=0.18
0.12827521176856438
% es.Ez (V/m) @ t=0.18
0.6877241667192311
% es.tEx (V/m) @ t=0.18
-1.644411596714285
% es.tEy (V/m) @ t=0.18
0
% es.tEz (V/m) @ t=0.18
0.6877241667192457
% V (V) @ t=0.18
0.009981856667003592
% es.normE (V/m) @ t=0.2
1.8044377513632632
% es.EX (V/m) @ t=0.2
-1.6596808489716448
% es.EY (V/m) @ t=0.2
0.1294663187645717
% es.EZ (V/m) @ t=0.2
0.6941100485214813
% es.tEX (V/m) @ t=0.2
-1.659680848971643
% es.tEY (V/m) @ t=0.2
0
% es.tEZ (V/m) @ t=0.2
0.6941100485214697
% es.Ex (V/m) @ t=0.2
-1.6596808489716448
% es.Ey (V/m) @ t=0.2
0.1294663187645717
% es.Ez (V/m) @ t=0.2
0.6941100485214813
% es.tEx (V/m) @ t=0.2
-1.659680848971643
% es.tEy (V/m) @ t=0.2
0
% es.tEz (V/m) @ t=0.2
0.6941100485214697
% V (V) @ t=0.2
0.010074544724498256
% es.normE (V/m) @ t=0.22
1.821038780010054
% es.EX (V/m) @ t=0.22
-1.6749501012290133
% es.EY (V/m) @ t=0.22
0.13065742576056294
% es.EZ (V/m) @ t=0.22
0.7004959303237264
% es.tEX (V/m) @ t=0.22
-1.6749501012290118
% es.tEY (V/m) @ t=0.22
0
% es.tEZ (V/m) @ t=0.22
0.7004959303237257
% es.Ex (V/m) @ t=0.22
-1.6749501012290133
% es.Ey (V/m) @ t=0.22
0.13065742576056294
% es.Ez (V/m) @ t=0.22
0.7004959303237264
% es.tEx (V/m) @ t=0.22
-1.6749501012290118
% es.tEy (V/m) @ t=0.22
0
% es.tEz (V/m) @ t=0.22
0.7004959303237257
% V (V) @ t=0.22
0.010167232781992924
% es.normE (V/m) @ t=0.24
1.8376398086568222
% es.EX (V/m) @ t=0.24
-1.6902193534863639
% es.EY (V/m) @ t=0.24
0.13184853275655428
% es.EZ (V/m) @ t=0.24
0.706881812125957
% es.tEX (V/m) @ t=0.24
-1.690219353486361
% es.tEY (V/m) @ t=0.24
0
% es.tEZ (V/m) @ t=0.24
0.7068818121259532
% es.Ex (V/m) @ t=0.24
-1.6902193534863639
% es.Ey (V/m) @ t=0.24
0.13184853275655428
% es.Ez (V/m) @ t=0.24
0.706881812125957
% es.tEx (V/m) @ t=0.24
-1.690219353486361
% es.tEy (V/m) @ t=0.24
0
% es.tEz (V/m) @ t=0.24
0.7068818121259532
% V (V) @ t=0.24
0.010259920839487588
% es.normE (V/m) @ t=0.26
1.8542408373036205
% es.EX (V/m) @ t=0.26
-1.7054886057437353
% es.EY (V/m) @ t=0.26
0.1330396397525686
% es.EZ (V/m) @ t=0.26
0.713267693928211
% es.tEX (V/m) @ t=0.26
-1.7054886057437262
% es.tEY (V/m) @ t=0.26
0
% es.tEZ (V/m) @ t=0.26
0.7132676939282163
% es.Ex (V/m) @ t=0.26
-1.7054886057437353
% es.Ey (V/m) @ t=0.26
0.1330396397525686
% es.Ez (V/m) @ t=0.26
0.713267693928211
% es.tEx (V/m) @ t=0.26
-1.7054886057437262
% es.tEy (V/m) @ t=0.26
0
% es.tEz (V/m) @ t=0.26
0.7132676939282163
% V (V) @ t=0.26
0.010352608896982255
% es.normE (V/m) @ t=0.28
1.872299671543689
% es.EX (V/m) @ t=0.28
-1.7220988851249168
% es.EY (V/m) @ t=0.28
0.13433546868558355
% es.EZ (V/m) @ t=0.28
0.7202139243975509
% es.tEX (V/m) @ t=0.28
-1.7220988851249057
% es.tEY (V/m) @ t=0.28
0
% es.tEZ (V/m) @ t=0.28
0.720213924397548
% es.Ex (V/m) @ t=0.28
-1.7220988851249168
% es.Ey (V/m) @ t=0.28
0.13433546868558355
% es.Ez (V/m) @ t=0.28
0.7202139243975509
% es.tEx (V/m) @ t=0.28
-1.7220988851249057
% es.tEy (V/m) @ t=0.28
0
% es.tEz (V/m) @ t=0.28
0.720213924397548
% V (V) @ t=0.28
0.010453494836593458
% es.normE (V/m) @ t=0.3
1.890736310951142
% es.EX (V/m) @ t=0.3
-1.739056705343553
% es.EY (V/m) @ t=0.3
0.13565843737517358
% es.EZ (V/m) @ t=0.3
0.7273053749311051
% es.tEX (V/m) @ t=0.3
-1.739056705343538
% es.tEY (V/m) @ t=0.3
0
% es.tEZ (V/m) @ t=0.3
0.727305374931106
% es.Ex (V/m) @ t=0.3
-1.739056705343553
% es.Ey (V/m) @ t=0.3
0.13565843737517358
% es.Ez (V/m) @ t=0.3
0.7273053749311051
% es.tEx (V/m) @ t=0.3
-1.739056705343538
% es.tEy (V/m) @ t=0.3
0
% es.tEz (V/m) @ t=0.3
0.727305374931106
% V (V) @ t=0.3
0.01055650534085016
% es.normE (V/m) @ t=0.32
1.9091729503587882
% es.EX (V/m) @ t=0.32
-1.756014525562183
% es.EY (V/m) @ t=0.32
0.13698140606475473
% es.EZ (V/m) @ t=0.32
0.7343968254646647
% es.tEX (V/m) @ t=0.32
-1.756014525562172
% es.tEY (V/m) @ t=0.32
0
% es.tEZ (V/m) @ t=0.32
0.7343968254646711
% es.Ex (V/m) @ t=0.32
-1.756014525562183
% es.Ey (V/m) @ t=0.32
0.13698140606475473
% es.Ez (V/m) @ t=0.32
0.7343968254646647
% es.tEx (V/m) @ t=0.32
-1.756014525562172
% es.tEy (V/m) @ t=0.32
0
% es.tEz (V/m) @ t=0.32
0.7343968254646711
% V (V) @ t=0.32
0.010659515845106864
% es.normE (V/m) @ t=0.34
1.9276095897666166
% es.EX (V/m) @ t=0.34
-1.7729723457808095
% es.EY (V/m) @ t=0.34
0.1383043747543483
% es.EZ (V/m) @ t=0.34
0.74148827599821
% es.tEX (V/m) @ t=0.34
-1.77297234578079
% es.tEY (V/m) @ t=0.34
0
% es.tEZ (V/m) @ t=0.34
0.7414882759982042
% es.Ex (V/m) @ t=0.34
-1.7729723457808095
% es.Ey (V/m) @ t=0.34
0.1383043747543483
% es.Ez (V/m) @ t=0.34
0.74148827599821
% es.tEx (V/m) @ t=0.34
-1.77297234578079
% es.tEy (V/m) @ t=0.34
0
% es.tEz (V/m) @ t=0.34
0.7414882759982042
% V (V) @ t=0.34
0.010762526349363569
% es.normE (V/m) @ t=0.36
1.9460462291746332
% es.EX (V/m) @ t=0.36
-1.789930165999434
% es.EY (V/m) @ t=0.36
0.139627343443949
% es.EZ (V/m) @ t=0.36
0.7485797265317606
% es.tEX (V/m) @ t=0.36
-1.7899301659994293
% es.tEY (V/m) @ t=0.36
0
% es.tEZ (V/m) @ t=0.36
0.7485797265317693
% es.Ex (V/m) @ t=0.36
-1.789930165999434
% es.Ey (V/m) @ t=0.36
0.139627343443949
% es.Ez (V/m) @ t=0.36
0.7485797265317606
% es.tEx (V/m) @ t=0.36
-1.7899301659994293
% es.tEy (V/m) @ t=0.36
0
% es.tEz (V/m) @ t=0.36
0.7485797265317693
% V (V) @ t=0.36
0.01086553685362027
% es.normE (V/m) @ t=0.38
1.9644828685828237
% es.EX (V/m) @ t=0.38
-1.8068879862180551
% es.EY (V/m) @ t=0.38
0.14095031213353548
% es.EZ (V/m) @ t=0.38
0.7556711770653078
% es.tEX (V/m) @ t=0.38
-1.806887986218058
% es.tEY (V/m) @ t=0.38
0
% es.tEZ (V/m) @ t=0.38
0.7556711770653024
% es.Ex (V/m) @ t=0.38
-1.8068879862180551
% es.Ey (V/m) @ t=0.38
0.14095031213353548
% es.Ez (V/m) @ t=0.38
0.7556711770653078
% es.tEx (V/m) @ t=0.38
-1.806887986218058
% es.tEy (V/m) @ t=0.38
0
% es.tEz (V/m) @ t=0.38
0.7556711770653024
% V (V) @ t=0.38
0.010968547357876975
% es.normE (V/m) @ t=0.4
1.9829195079911999
% es.EX (V/m) @ t=0.4
-1.8238458064366874
% es.EY (V/m) @ t=0.4
0.14227328082309176
% es.EZ (V/m) @ t=0.4
0.7627626275988586
% es.tEX (V/m) @ t=0.4
-1.8238458064366796
% es.tEY (V/m) @ t=0.4
0
% es.tEZ (V/m) @ t=0.4
0.7627626275988568
% es.Ex (V/m) @ t=0.4
-1.8238458064366874
% es.Ey (V/m) @ t=0.4
0.14227328082309176
% es.Ez (V/m) @ t=0.4
0.7627626275988586
% es.tEx (V/m) @ t=0.4
-1.8238458064366796
% es.tEy (V/m) @ t=0.4
0
% es.tEz (V/m) @ t=0.4
0.7627626275988568
% V (V) @ t=0.4
0.01107155786213368
% es.normE (V/m) @ t=0.42
2.00135614739975
% es.EX (V/m) @ t=0.42
-1.8408036266553174
% es.EY (V/m) @ t=0.42
0.14359624951270844
% es.EZ (V/m) @ t=0.42
0.7698540781324128
% es.tEX (V/m) @ t=0.42
-1.8408036266553136
% es.tEY (V/m) @ t=0.42
0
% es.tEZ (V/m) @ t=0.42
0.7698540781324184
% es.Ex (V/m) @ t=0.42
-1.8408036266553174
% es.Ey (V/m) @ t=0.42
0.14359624951270844
% es.Ez (V/m) @ t=0.42
0.7698540781324128
% es.tEx (V/m) @ t=0.42
-1.8408036266553136
% es.tEy (V/m) @ t=0.42
0
% es.tEz (V/m) @ t=0.42
0.7698540781324184
% V (V) @ t=0.42
0.011174568366390381
% es.normE (V/m) @ t=0.44
2.0197927868084546
% es.EX (V/m) @ t=0.44
-1.8577614468739403
% es.EY (V/m) @ t=0.44
0.14491921820228248
% es.EZ (V/m) @ t=0.44
0.77694552866596
% es.tEX (V/m) @ t=0.44
-1.8577614468739334
% es.tEY (V/m) @ t=0.44
0
% es.tEZ (V/m) @ t=0.44
0.776945528665955
% es.Ex (V/m) @ t=0.44
-1.8577614468739403
% es.Ey (V/m) @ t=0.44
0.14491921820228248
% es.Ez (V/m) @ t=0.44
0.77694552866596
% es.tEx (V/m) @ t=0.44
-1.8577614468739334
% es.tEy (V/m) @ t=0.44
0
% es.tEz (V/m) @ t=0.44
0.776945528665955
% V (V) @ t=0.44
0.011277578870647086
% es.normE (V/m) @ t=0.46
2.0382294262173355
% es.EX (V/m) @ t=0.46
-1.874719267092573
% es.EY (V/m) @ t=0.46
0.14624218689186896
% es.EZ (V/m) @ t=0.46
0.7840369791995213
% es.tEX (V/m) @ t=0.46
-1.8747192670925692
% es.tEY (V/m) @ t=0.46
0
% es.tEZ (V/m) @ t=0.46
0.7840369791995236
% es.Ex (V/m) @ t=0.46
-1.874719267092573
% es.Ey (V/m) @ t=0.46
0.14624218689186896
% es.Ez (V/m) @ t=0.46
0.7840369791995213
% es.tEx (V/m) @ t=0.46
-1.8747192670925692
% es.tEy (V/m) @ t=0.46
0
% es.tEz (V/m) @ t=0.46
0.7840369791995236
% V (V) @ t=0.46
0.01138058937490379
% es.normE (V/m) @ t=0.48
2.056666065626369
% es.EX (V/m) @ t=0.48
-1.8916770873112057
% es.EY (V/m) @ t=0.48
0.14756515558146077
% es.EZ (V/m) @ t=0.48
0.7911284297330702
% es.tEX (V/m) @ t=0.48
-1.891677087311196
% es.tEY (V/m) @ t=0.48
0
% es.tEZ (V/m) @ t=0.48
0.7911284297330639
% es.Ex (V/m) @ t=0.48
-1.8916770873112057
% es.Ey (V/m) @ t=0.48
0.14756515558146077
% es.Ez (V/m) @ t=0.48
0.7911284297330702
% es.tEx (V/m) @ t=0.48
-1.891677087311196
% es.tEy (V/m) @ t=0.48
0
% es.tEz (V/m) @ t=0.48
0.7911284297330639
% V (V) @ t=0.48
0.011483599879160492
% es.normE (V/m) @ t=0.5
2.0751027050355493
% es.EX (V/m) @ t=0.5
-1.9086349075298326
% es.EY (V/m) @ t=0.5
0.14888812427103648
% es.EZ (V/m) @ t=0.5
0.7982198802666193
% es.tEX (V/m) @ t=0.5
-1.9086349075298248
% es.tEY (V/m) @ t=0.5
0
% es.tEZ (V/m) @ t=0.5
0.7982198802666254
% es.Ex (V/m) @ t=0.5
-1.9086349075298326
% es.Ey (V/m) @ t=0.5
0.14888812427103648
% es.Ez (V/m) @ t=0.5
0.7982198802666193
% es.tEx (V/m) @ t=0.5
-1.9086349075298248
% es.tEy (V/m) @ t=0.5
0
% es.tEz (V/m) @ t=0.5
0.7982198802666254
% V (V) @ t=0.5
0.011586610383417196
% es.normE (V/m) @ t=0.52
2.093539344444883
% es.EX (V/m) @ t=0.52
-1.925592727748465
% es.EY (V/m) @ t=0.52
0.15021109296061952
% es.EZ (V/m) @ t=0.52
0.8053113308001646
% es.tEX (V/m) @ t=0.52
-1.9255927277484464
% es.tEY (V/m) @ t=0.52
0
% es.tEZ (V/m) @ t=0.52
0.805311330800162
% es.Ex (V/m) @ t=0.52
-1.925592727748465
% es.Ey (V/m) @ t=0.52
0.15021109296061952
% es.Ez (V/m) @ t=0.52
0.8053113308001646
% es.tEx (V/m) @ t=0.52
-1.9255927277484464
% es.tEy (V/m) @ t=0.52
0
% es.tEz (V/m) @ t=0.52
0.805311330800162
% V (V) @ t=0.52
0.0116896208876739
% es.normE (V/m) @ t=0.54
2.113200512448553
% es.EX (V/m) @ t=0.54
-1.9436765633456468
% es.EY (V/m) @ t=0.54
0.15162171462261154
% es.EZ (V/m) @ t=0.54
0.8128745082190951
% es.tEX (V/m) @ t=0.54
-1.9436765633456403
% es.tEY (V/m) @ t=0.54
0
% es.tEZ (V/m) @ t=0.54
0.8128745082190996
% es.Ex (V/m) @ t=0.54
-1.9436765633456468
% es.Ey (V/m) @ t=0.54
0.15162171462261154
% es.Ez (V/m) @ t=0.54
0.8128745082190951
% es.tEx (V/m) @ t=0.54
-1.9436765633456403
% es.tEy (V/m) @ t=0.54
0
% es.tEz (V/m) @ t=0.54
0.8128745082190996
% V (V) @ t=0.54
0.011799372565640169
% es.normE (V/m) @ t=0.56
2.1336847715192846
% es.EX (V/m) @ t=0.56
-1.962517272407091
% es.EY (V/m) @ t=0.56
0.15309125396025347
% es.EZ (V/m) @ t=0.56
0.8207547661759285
% es.tEX (V/m) @ t=0.56
-1.96251727240708
% es.tEY (V/m) @ t=0.56
0
% es.tEZ (V/m) @ t=0.56
0.8207547661759271
% es.Ex (V/m) @ t=0.56
-1.962517272407091
% es.Ey (V/m) @ t=0.56
0.15309125396025347
% es.Ez (V/m) @ t=0.56
0.8207547661759285
% es.tEx (V/m) @ t=0.56
-1.96251727240708
% es.tEy (V/m) @ t=0.56
0
% es.tEz (V/m) @ t=0.56
0.8207547661759271
% V (V) @ t=0.56
0.011913655456586078
% es.normE (V/m) @ t=0.58
2.1541690305902943
% es.EX (V/m) @ t=0.58
-1.9813579814685258
% es.EY (V/m) @ t=0.58
0.15456079329790262
% es.EZ (V/m) @ t=0.58
0.8286350241327793
% es.tEX (V/m) @ t=0.58
-1.9813579814685216
% es.tEY (V/m) @ t=0.58
0
% es.tEZ (V/m) @ t=0.58
0.8286350241327867
% es.Ex (V/m) @ t=0.58
-1.9813579814685258
% es.Ey (V/m) @ t=0.58
0.15456079329790262
% es.Ez (V/m) @ t=0.58
0.8286350241327793
% es.tEx (V/m) @ t=0.58
-1.9813579814685216
% es.tEy (V/m) @ t=0.58
0
% es.tEz (V/m) @ t=0.58
0.8286350241327867
% V (V) @ t=0.58
0.012027938347531988
% es.normE (V/m) @ t=0.6
2.1746532896615767
% es.EX (V/m) @ t=0.6
-2.0001986905299716
% es.EY (V/m) @ t=0.6
0.15603033263553034
% es.EZ (V/m) @ t=0.6
0.8365152820896126
% es.tEX (V/m) @ t=0.6
-2.0001986905299614
% es.tEY (V/m) @ t=0.6
0
% es.tEZ (V/m) @ t=0.6
0.8365152820896178
% es.Ex (V/m) @ t=0.6
-2.0001986905299716
% es.Ey (V/m) @ t=0.6
0.15603033263553034
% es.Ez (V/m) @ t=0.6
0.8365152820896126
% es.tEx (V/m) @ t=0.6
-2.0001986905299614
% es.tEy (V/m) @ t=0.6
0
% es.tEz (V/m) @ t=0.6
0.8365152820896178
% V (V) @ t=0.6
0.012142221238477895
% es.normE (V/m) @ t=0.62
2.19513754873309
% es.EX (V/m) @ t=0.62
-2.019039399591386
% es.EY (V/m) @ t=0.62
0.15749987197317583
% es.EZ (V/m) @ t=0.62
0.84439554004643
% es.tEX (V/m) @ t=0.62
-2.01903939959138
% es.tEY (V/m) @ t=0.62
0
% es.tEZ (V/m) @ t=0.62
0.8443955400464382
% es.Ex (V/m) @ t=0.62
-2.019039399591386
% es.Ey (V/m) @ t=0.62
0.15749987197317583
% es.Ez (V/m) @ t=0.62
0.84439554004643
% es.tEx (V/m) @ t=0.62
-2.01903939959138
% es.tEy (V/m) @ t=0.62
0
% es.tEz (V/m) @ t=0.62
0.8443955400464382
% V (V) @ t=0.62
0.012256504129423805
% es.normE (V/m) @ t=0.64
2.215621807804898
% es.EX (V/m) @ t=0.64
-2.0378801086528364
% es.EY (V/m) @ t=0.64
0.15896941131080722
% es.EZ (V/m) @ t=0.64
0.852275798003265
% es.tEX (V/m) @ t=0.64
-2.0378801086528266
% es.tEY (V/m) @ t=0.64
0
% es.tEZ (V/m) @ t=0.64
0.8522757980032729
% es.Ex (V/m) @ t=0.64
-2.0378801086528364
% es.Ey (V/m) @ t=0.64
0.15896941131080722
% es.Ez (V/m) @ t=0.64
0.852275798003265
% es.tEx (V/m) @ t=0.64
-2.0378801086528266
% es.tEy (V/m) @ t=0.64
0
% es.tEz (V/m) @ t=0.64
0.8522757980032729
% V (V) @ t=0.64
0.012370787020369716
% es.normE (V/m) @ t=0.66
2.2361060668769452
% es.EX (V/m) @ t=0.66
-2.0567208177142717
% es.EY (V/m) @ t=0.66
0.1604389506484598
% es.EZ (V/m) @ t=0.66
0.8601560559601055
% es.tEX (V/m) @ t=0.66
-2.0567208177142575
% es.tEY (V/m) @ t=0.66
0
% es.tEZ (V/m) @ t=0.66
0.860156055960104
% es.Ex (V/m) @ t=0.66
-2.0567208177142717
% es.Ey (V/m) @ t=0.66
0.1604389506484598
% es.Ez (V/m) @ t=0.66
0.8601560559601055
% es.tEx (V/m) @ t=0.66
-2.0567208177142575
% es.tEy (V/m) @ t=0.66
0
% es.tEz (V/m) @ t=0.66
0.860156055960104
% V (V) @ t=0.66
0.012485069911315625
% es.normE (V/m) @ t=0.68
2.256590325949224
% es.EX (V/m) @ t=0.68
-2.0755615267757035
% es.EY (V/m) @ t=0.68
0.16190848998609642
% es.EZ (V/m) @ t=0.68
0.8680363139169297
% es.tEX (V/m) @ t=0.68
-2.0755615267756973
% es.tEY (V/m) @ t=0.68
0
% es.tEZ (V/m) @ t=0.68
0.868036313916928
% es.Ex (V/m) @ t=0.68
-2.0755615267757035
% es.Ey (V/m) @ t=0.68
0.16190848998609642
% es.Ez (V/m) @ t=0.68
0.8680363139169297
% es.tEx (V/m) @ t=0.68
-2.0755615267756973
% es.tEy (V/m) @ t=0.68
0
% es.tEz (V/m) @ t=0.68
0.868036313916928
% V (V) @ t=0.68
0.012599352802261534
% es.normE (V/m) @ t=0.7
2.277074585021758
% es.EX (V/m) @ t=0.7
-2.094402235837147
% es.EY (V/m) @ t=0.7
0.16337802932374734
% es.EZ (V/m) @ t=0.7
0.8759165718737735
% es.tEX (V/m) @ t=0.7
-2.0944022358371424
% es.tEY (V/m) @ t=0.7
0
% es.tEZ (V/m) @ t=0.7
0.8759165718737663
% es.Ex (V/m) @ t=0.7
-2.094402235837147
% es.Ey (V/m) @ t=0.7
0.16337802932374734
% es.Ez (V/m) @ t=0.7
0.8759165718737735
% es.tEx (V/m) @ t=0.7
-2.0944022358371424
% es.tEy (V/m) @ t=0.7
0
% es.tEz (V/m) @ t=0.7
0.8759165718737663
% V (V) @ t=0.7
0.012713635693207444
% es.normE (V/m) @ t=0.72
2.2975588440945227
% es.EX (V/m) @ t=0.72
-2.1132429448985883
% es.EY (V/m) @ t=0.72
0.16484756866139993
% es.EZ (V/m) @ t=0.72
0.883796829830621
% es.tEX (V/m) @ t=0.72
-2.1132429448985803
% es.tEY (V/m) @ t=0.72
0
% es.tEZ (V/m) @ t=0.72
0.8837968298306258
% es.Ex (V/m) @ t=0.72
-2.1132429448985883
% es.Ey (V/m) @ t=0.72
0.16484756866139993
% es.Ez (V/m) @ t=0.72
0.883796829830621
% es.tEx (V/m) @ t=0.72
-2.1132429448985803
% es.tEy (V/m) @ t=0.72
0
% es.tEz (V/m) @ t=0.72
0.8837968298306258
% V (V) @ t=0.72
0.012827918584153351
% es.normE (V/m) @ t=0.74
2.318043103167475
% es.EX (V/m) @ t=0.74
-2.1320836539600068
% es.EY (V/m) @ t=0.74
0.16631710799901878
% es.EZ (V/m) @ t=0.74
0.8916770877874401
% es.tEX (V/m) @ t=0.74
-2.1320836539599988
% es.tEY (V/m) @ t=0.74
0
% es.tEZ (V/m) @ t=0.74
0.8916770877874498
% es.Ex (V/m) @ t=0.74
-2.1320836539600068
% es.Ey (V/m) @ t=0.74
0.16631710799901878
% es.Ez (V/m) @ t=0.74
0.8916770877874401
% es.tEx (V/m) @ t=0.74
-2.1320836539599988
% es.tEy (V/m) @ t=0.74
0
% es.tEz (V/m) @ t=0.74
0.8916770877874498
% V (V) @ t=0.74
0.01294220147509926
% es.normE (V/m) @ t=0.76
2.338527362240675
% es.EX (V/m) @ t=0.76
-2.15092436302145
% es.EY (V/m) @ t=0.76
0.16778664733666082
% es.EZ (V/m) @ t=0.76
0.8995573457442699
% es.tEX (V/m) @ t=0.76
-2.150924363021442
% es.tEY (V/m) @ t=0.76
0
% es.tEZ (V/m) @ t=0.76
0.8995573457442774
% es.Ex (V/m) @ t=0.76
-2.15092436302145
% es.Ey (V/m) @ t=0.76
0.16778664733666082
% es.Ez (V/m) @ t=0.76
0.8995573457442699
% es.tEx (V/m) @ t=0.76
-2.150924363021442
% es.tEy (V/m) @ t=0.76
0
% es.tEz (V/m) @ t=0.76
0.8995573457442774
% V (V) @ t=0.76
0.01305648436604517
% es.normE (V/m) @ t=0.78
2.3590116213140853
% es.EX (V/m) @ t=0.78
-2.169765072082888
% es.EY (V/m) @ t=0.78
0.1692561866743134
% es.EZ (V/m) @ t=0.78
0.9074376037011049
% es.tEX (V/m) @ t=0.78
-2.1697650720828836
% es.tEY (V/m) @ t=0.78
0
% es.tEZ (V/m) @ t=0.78
0.9074376037010978
% es.Ex (V/m) @ t=0.78
-2.169765072082888
% es.Ey (V/m) @ t=0.78
0.1692561866743134
% es.Ez (V/m) @ t=0.78
0.9074376037011049
% es.tEx (V/m) @ t=0.78
-2.1697650720828836
% es.tEy (V/m) @ t=0.78
0
% es.tEz (V/m) @ t=0.78
0.9074376037010978
% V (V) @ t=0.78
0.013170767256991081
% es.normE (V/m) @ t=0.8
2.380437479647422
% es.EX (V/m) @ t=0.8
-2.1894719516908667
% es.EY (V/m) @ t=0.8
0.17079336515379606
% es.EZ (V/m) @ t=0.8
0.9156797950668042
% es.tEX (V/m) @ t=0.8
-2.189471951690857
% es.tEY (V/m) @ t=0.8
0
% es.tEZ (V/m) @ t=0.8
0.9156797950668008
% es.Ex (V/m) @ t=0.8
-2.1894719516908667
% es.Ey (V/m) @ t=0.8
0.17079336515379606
% es.Ez (V/m) @ t=0.8
0.9156797950668042
% es.tEx (V/m) @ t=0.8
-2.189471951690857
% es.tEy (V/m) @ t=0.8
0
% es.tEz (V/m) @ t=0.8
0.9156797950668008
% V (V) @ t=0.8
0.013290344731927868
% es.normE (V/m) @ t=0.82
2.4032647790783246
% es.EX (V/m) @ t=0.82
-2.210468007122687
% es.EY (V/m) @ t=0.82
0.1724312152005053
% es.EZ (V/m) @ t=0.82
0.9244606745723744
% es.tEX (V/m) @ t=0.82
-2.210468007122685
% es.tEY (V/m) @ t=0.82
0
% es.tEZ (V/m) @ t=0.82
0.9244606745723729
% es.Ex (V/m) @ t=0.82
-2.210468007122687
% es.Ey (V/m) @ t=0.82
0.1724312152005053
% es.Ez (V/m) @ t=0.82
0.9244606745723744
% es.tEx (V/m) @ t=0.82
-2.210468007122685
% es.tEy (V/m) @ t=0.82
0
% es.tEz (V/m) @ t=0.82
0.9244606745723729
% V (V) @ t=0.82
0.013417802467519556
% es.normE (V/m) @ t=0.84
2.4260920785092326
% es.EX (V/m) @ t=0.84
-2.2314640625545055
% es.EY (V/m) @ t=0.84
0.17406906524720378
% es.EZ (V/m) @ t=0.84
0.9332415540779536
% es.tEX (V/m) @ t=0.84
-2.231464062554501
% es.tEY (V/m) @ t=0.84
0
% es.tEZ (V/m) @ t=0.84
0.9332415540779593
% es.Ex (V/m) @ t=0.84
-2.2314640625545055
% es.Ey (V/m) @ t=0.84
0.17406906524720378
% es.Ez (V/m) @ t=0.84
0.9332415540779536
% es.tEx (V/m) @ t=0.84
-2.231464062554501
% es.tEy (V/m) @ t=0.84
0
% es.tEz (V/m) @ t=0.84
0.9332415540779593
% V (V) @ t=0.84
0.013545260203111243
% es.normE (V/m) @ t=0.86
2.44891937794017
% es.EX (V/m) @ t=0.86
-2.252460117986348
% es.EY (V/m) @ t=0.86
0.1757069152939057
% es.EZ (V/m) @ t=0.86
0.9420224335835453
% es.tEX (V/m) @ t=0.86
-2.2524601179863346
% es.tEY (V/m) @ t=0.86
0
% es.tEZ (V/m) @ t=0.86
0.9420224335835456
% es.Ex (V/m) @ t=0.86
-2.252460117986348
% es.Ey (V/m) @ t=0.86
0.1757069152939057
% es.Ez (V/m) @ t=0.86
0.9420224335835453
% es.tEx (V/m) @ t=0.86
-2.2524601179863346
% es.tEy (V/m) @ t=0.86
0
% es.tEz (V/m) @ t=0.86
0.9420224335835456
% V (V) @ t=0.86
0.013672717938702934
% es.normE (V/m) @ t=0.88
2.471746677371071
% es.EX (V/m) @ t=0.88
-2.2734561734181566
% es.EY (V/m) @ t=0.88
0.17734476534060606
% es.EZ (V/m) @ t=0.88
0.9508033130891173
% es.tEX (V/m) @ t=0.88
-2.2734561734181487
% es.tEY (V/m) @ t=0.88
0
% es.tEZ (V/m) @ t=0.88
0.9508033130891178
% es.Ex (V/m) @ t=0.88
-2.2734561734181566
% es.Ey (V/m) @ t=0.88
0.17734476534060606
% es.Ez (V/m) @ t=0.88
0.9508033130891173
% es.tEx (V/m) @ t=0.88
-2.2734561734181487
% es.tEy (V/m) @ t=0.88
0
% es.tEz (V/m) @ t=0.88
0.9508033130891178
% V (V) @ t=0.88
0.013800175674294621
% es.normE (V/m) @ t=0.9
2.494573976802001
% es.EX (V/m) @ t=0.9
-2.2944522288499885
% es.EY (V/m) @ t=0.9
0.17898261538730809
% es.EZ (V/m) @ t=0.9
0.9595841925947053
% es.tEX (V/m) @ t=0.9
-2.2944522288499805
% es.tEY (V/m) @ t=0.9
0
% es.tEZ (V/m) @ t=0.9
0.9595841925947042
% es.Ex (V/m) @ t=0.9
-2.2944522288499885
% es.Ey (V/m) @ t=0.9
0.17898261538730809
% es.Ez (V/m) @ t=0.9
0.9595841925947053
% es.tEx (V/m) @ t=0.9
-2.2944522288499805
% es.tEy (V/m) @ t=0.9
0
% es.tEz (V/m) @ t=0.9
0.9595841925947042
% V (V) @ t=0.9
0.01392763340988631
% es.normE (V/m) @ t=0.92
2.517401276232907
% es.EX (V/m) @ t=0.92
-2.315448284281798
% es.EY (V/m) @ t=0.92
0.18062046543400467
% es.EZ (V/m) @ t=0.92
0.9683650721002776
% es.tEX (V/m) @ t=0.92
-2.315448284281789
% es.tEY (V/m) @ t=0.92
0
% es.tEZ (V/m) @ t=0.92
0.9683650721002763
% es.Ex (V/m) @ t=0.92
-2.315448284281798
% es.Ey (V/m) @ t=0.92
0.18062046543400467
% es.Ez (V/m) @ t=0.92
0.9683650721002776
% es.tEx (V/m) @ t=0.92
-2.315448284281789
% es.tEy (V/m) @ t=0.92
0
% es.tEz (V/m) @ t=0.92
0.9683650721002763
% V (V) @ t=0.92
0.014055091145478
% es.normE (V/m) @ t=0.94
2.5402285756638427
% es.EX (V/m) @ t=0.94
-2.3364443397136316
% es.EY (V/m) @ t=0.94
0.18225831548070326
% es.EZ (V/m) @ t=0.94
0.9771459516058619
% es.tEX (V/m) @ t=0.94
-2.3364443397136174
% es.tEY (V/m) @ t=0.94
0
% es.tEZ (V/m) @ t=0.94
0.9771459516058485
% es.Ex (V/m) @ t=0.94
-2.3364443397136316
% es.Ey (V/m) @ t=0.94
0.18225831548070326
% es.Ez (V/m) @ t=0.94
0.9771459516058619
% es.tEx (V/m) @ t=0.94
-2.3364443397136174
% es.tEy (V/m) @ t=0.94
0
% es.tEz (V/m) @ t=0.94
0.9771459516058485
% V (V) @ t=0.94
0.014182548881069687
% es.normE (V/m) @ t=0.96
2.563055875094773
% es.EX (V/m) @ t=0.96
-2.3574403951454563
% es.EY (V/m) @ t=0.96
0.1838961655274053
% es.EZ (V/m) @ t=0.96
0.9859268311114481
% es.tEX (V/m) @ t=0.96
-2.357440395145444
% es.tEY (V/m) @ t=0.96
0
% es.tEZ (V/m) @ t=0.96
0.9859268311114491
% es.Ex (V/m) @ t=0.96
-2.3574403951454563
% es.Ey (V/m) @ t=0.96
0.1838961655274053
% es.Ez (V/m) @ t=0.96
0.9859268311114481
% es.tEx (V/m) @ t=0.96
-2.357440395145444
% es.tEy (V/m) @ t=0.96
0
% es.tEz (V/m) @ t=0.96
0.9859268311114491
% V (V) @ t=0.96
0.014310006616661375
% es.normE (V/m) @ t=0.98
2.5858831745256996
% es.EX (V/m) @ t=0.98
-2.3784364505772837
% es.EY (V/m) @ t=0.98
0.18553401557409832
% es.EZ (V/m) @ t=0.98
0.9947077106170185
% es.tEX (V/m) @ t=0.98
-2.378436450577272
% es.tEY (V/m) @ t=0.98
0
% es.tEZ (V/m) @ t=0.98
0.9947077106170212
% es.Ex (V/m) @ t=0.98
-2.3784364505772837
% es.Ey (V/m) @ t=0.98
0.18553401557409832
% es.Ez (V/m) @ t=0.98
0.9947077106170185
% es.tEx (V/m) @ t=0.98
-2.378436450577272
% es.tEy (V/m) @ t=0.98
0
% es.tEz (V/m) @ t=0.98
0.9947077106170212
% V (V) @ t=0.98
0.014437464352253064
% es.normE (V/m) @ t=1
2.6087104739566285
% es.EX (V/m) @ t=1
-2.399432506009103
% es.EY (V/m) @ t=1
0.1871718656208129
% es.EZ (V/m) @ t=1
1.003488590122601
% es.tEX (V/m) @ t=1
-2.3994325060090933
% es.tEY (V/m) @ t=1
0
% es.tEZ (V/m) @ t=1
1.0034885901226005
% es.Ex (V/m) @ t=1
-2.399432506009103
% es.Ey (V/m) @ t=1
0.1871718656208129
% es.Ez (V/m) @ t=1
1.003488590122601
% es.tEx (V/m) @ t=1
-2.3994325060090933
% es.tEy (V/m) @ t=1
0
% es.tEz (V/m) @ t=1
1.0034885901226005
% V (V) @ t=1
0.014564922087844753
% es.normE (V/m) @ t=1.02
2.631537773387543
% es.EX (V/m) @ t=1.02
-2.420428561440912
% es.EY (V/m) @ t=1.02
0.18880971566750426
% es.EZ (V/m) @ t=1.02
1.0122694696281713
% es.tEX (V/m) @ t=1.02
-2.4204285614408985
% es.tEY (V/m) @ t=1.02
0
% es.tEZ (V/m) @ t=1.02
1.0122694696281727
% es.Ex (V/m) @ t=1.02
-2.420428561440912
% es.Ey (V/m) @ t=1.02
0.18880971566750426
% es.Ez (V/m) @ t=1.02
1.0122694696281713
% es.tEx (V/m) @ t=1.02
-2.4204285614408985
% es.tEy (V/m) @ t=1.02
0
% es.tEz (V/m) @ t=1.02
1.0122694696281727
% V (V) @ t=1.02
0.014692379823436442
% es.normE (V/m) @ t=1.04
2.6543650728184884
% es.EX (V/m) @ t=1.04
-2.441424616872747
% es.EY (V/m) @ t=1.04
0.1904475657142063
% es.EZ (V/m) @ t=1.04
1.0210503491337524
% es.tEX (V/m) @ t=1.04
-2.4414246168727356
% es.tEY (V/m) @ t=1.04
0
% es.tEZ (V/m) @ t=1.04
1.021050349133752
% es.Ex (V/m) @ t=1.04