% Model:              1 neuron.mph
% Version:            COMSOL 6.0.0.405
% Date:               Mar 16 2023, 17:50
% Dimension:          0
% Nodes:              14017
% Expressions:        14017
% Description:        Electric field norm, Electric field, X component, Electric field, Y component, Electric field, Z component, Tangential electric field, X component, Tangential electric field, Y component, Tangential electric field, Z component, Electric field, x component, Electric field, y component, Electric field, z component, Tangential electric field, x component, Tangential electric field, y component, Tangential electric field, z component, Electric potential
% Length unit:        mm
% x
1
% y
12.2
% z
1
% es.normE (V/m) @ t=0
1.0802379973088292
% es.EX (V/m) @ t=0
0.7334946871044608
% es.EY (V/m) @ t=0
0.208322251331035
% es.EZ (V/m) @ t=0
0.7452652079829134
% es.tEX (V/m) @ t=0
0.7334946871044679
% es.tEY (V/m) @ t=0
0
% es.tEZ (V/m) @ t=0
0.7452652079829036
% es.Ex (V/m) @ t=0
0.7334946871044608
% es.Ey (V/m) @ t=0
0.208322251331035
% es.Ez (V/m) @ t=0
0.7452652079829134
% es.tEx (V/m) @ t=0
0.7334946871044679
% es.tEy (V/m) @ t=0
0
% es.tEz (V/m) @ t=0
0.7452652079829036
% V (V) @ t=0
0.010129688898913641
% es.normE (V/m) @ t=0.02
0.9330211983110441
% es.EX (V/m) @ t=0.02
0.6335326956638099
% es.EY (V/m) @ t=0.02
0.17993171938020502
% es.EZ (V/m) @ t=0.02
0.6436991096604672
% es.tEX (V/m) @ t=0.02
0.6335326956638028
% es.tEY (V/m) @ t=0.02
0
% es.tEZ (V/m) @ t=0.02
0.643699109660453
% es.Ex (V/m) @ t=0.02
0.6335326956638099
% es.Ey (V/m) @ t=0.02
0.17993171938020502
% es.Ez (V/m) @ t=0.02
0.6436991096604672
% es.tEx (V/m) @ t=0.02
0.6335326956638028
% es.tEy (V/m) @ t=0.02
0
% es.tEz (V/m) @ t=0.02
0.643699109660453
% V (V) @ t=0.02
0.008749196330309798
% es.normE (V/m) @ t=0.04
0.941602758949466
% es.EX (V/m) @ t=0.04
0.6393596779991242
% es.EY (V/m) @ t=0.04
0.18158666338523588
% es.EZ (V/m) @ t=0.04
0.649619599662695
% es.tEX (V/m) @ t=0.04
0.6393596779991242
% es.tEY (V/m) @ t=0.04
0
% es.tEZ (V/m) @ t=0.04
0.6496195996626923
% es.Ex (V/m) @ t=0.04
0.6393596779991242
% es.Ey (V/m) @ t=0.04
0.18158666338523588
% es.Ez (V/m) @ t=0.04
0.649619599662695
% es.tEx (V/m) @ t=0.04
0.6393596779991242
% es.tEy (V/m) @ t=0.04
0
% es.tEz (V/m) @ t=0.04
0.6496195996626923
% V (V) @ t=0.04
0.008829667852580101
% es.normE (V/m) @ t=0.06
0.9502580466967987
% es.EX (V/m) @ t=0.06
0.6452367237033165
% es.EY (V/m) @ t=0.06
0.18325582132133356
% es.EZ (V/m) @ t=0.06
0.6555909550026566
% es.tEX (V/m) @ t=0.06
0.6452367237033201
% es.tEY (V/m) @ t=0.06
0
% es.tEZ (V/m) @ t=0.06
0.6555909550026442
% es.Ex (V/m) @ t=0.06
0.6452367237033165
% es.Ey (V/m) @ t=0.06
0.18325582132133356
% es.Ez (V/m) @ t=0.06
0.6555909550026566
% es.tEx (V/m) @ t=0.06
0.6452367237033201
% es.tEy (V/m) @ t=0.06
0
% es.tEz (V/m) @ t=0.06
0.6555909550026442
% V (V) @ t=0.06
0.008910830915039506
% es.normE (V/m) @ t=0.08
0.9590539906400963
% es.EX (V/m) @ t=0.08
0.651209277292466
% es.EY (V/m) @ t=0.08
0.18495210310872423
% es.EZ (V/m) @ t=0.08
0.661659350356409
% es.tEX (V/m) @ t=0.08
0.651209277292466
% es.tEY (V/m) @ t=0.08
0
% es.tEZ (V/m) @ t=0.08
0.6616593503564019
% es.Ex (V/m) @ t=0.08
0.651209277292466
% es.Ey (V/m) @ t=0.08
0.18495210310872423
% es.Ez (V/m) @ t=0.08
0.661659350356409
% es.tEx (V/m) @ t=0.08
0.651209277292466
% es.tEy (V/m) @ t=0.08
0
% es.tEz (V/m) @ t=0.08
0.6616593503564019
% V (V) @ t=0.08
0.008993313011556033
% es.normE (V/m) @ t=0.1
0.9679300221977651
% es.EX (V/m) @ t=0.1
0.6572362116972705
% es.EY (V/m) @ t=0.1
0.18666382882670263
% es.EZ (V/m) @ t=0.1
0.6677829988979189
% es.tEX (V/m) @ t=0.1
0.657236211697267
% es.tEY (V/m) @ t=0.1
0
% es.tEZ (V/m) @ t=0.1
0.6677829988979056
% es.Ex (V/m) @ t=0.1
0.6572362116972705
% es.Ey (V/m) @ t=0.1
0.18666382882670263
% es.Ez (V/m) @ t=0.1
0.6677829988979189
% es.tEx (V/m) @ t=0.1
0.657236211697267
% es.tEy (V/m) @ t=0.1
0
% es.tEz (V/m) @ t=0.1
0.6677829988979056
% V (V) @ t=0.1
0.00907654614708705
% es.normE (V/m) @ t=0.12
0.9768060537554216
% es.EX (V/m) @ t=0.12
0.6632631461020466
% es.EY (V/m) @ t=0.12
0.18837555454473787
% es.EZ (V/m) @ t=0.12
0.6739066474394217
% es.tEX (V/m) @ t=0.12
0.6632631461020253
% es.tEY (V/m) @ t=0.12
0
% es.tEZ (V/m) @ t=0.12
0.6739066474394093
% es.Ex (V/m) @ t=0.12
0.6632631461020466
% es.Ey (V/m) @ t=0.12
0.18837555454473787
% es.Ez (V/m) @ t=0.12
0.6739066474394217
% es.tEx (V/m) @ t=0.12
0.6632631461020253
% es.tEy (V/m) @ t=0.12
0
% es.tEz (V/m) @ t=0.12
0.6739066474394093
% V (V) @ t=0.12
0.009159779282618068
% es.normE (V/m) @ t=0.14
0.9858146803208171
% es.EX (V/m) @ t=0.14
0.6693801098612369
% es.EY (V/m) @ t=0.14
0.19011286116894333
% es.EZ (V/m) @ t=0.14
0.6801217734654905
% es.tEX (V/m) @ t=0.14
0.6693801098612511
% es.tEY (V/m) @ t=0.14
0
% es.tEZ (V/m) @ t=0.14
0.6801217734654799
% es.Ex (V/m) @ t=0.14
0.6693801098612369
% es.Ey (V/m) @ t=0.14
0.19011286116894333
% es.Ez (V/m) @ t=0.14
0.6801217734654905
% es.tEx (V/m) @ t=0.14
0.6693801098612511
% es.tEy (V/m) @ t=0.14
0
% es.tEz (V/m) @ t=0.14
0.6801217734654799
% V (V) @ t=0.14
0.009244255366120866
% es.normE (V/m) @ t=0.16
0.9951572552434058
% es.EX (V/m) @ t=0.16
0.6757238178660323
% es.EY (V/m) @ t=0.16
0.19191459481617912
% es.EZ (V/m) @ t=0.16
0.6865672909384779
% es.tEX (V/m) @ t=0.16
0.675723817866043
% es.tEY (V/m) @ t=0.16
0
% es.tEZ (V/m) @ t=0.16
0.6865672909384699
% es.Ex (V/m) @ t=0.16
0.6757238178660323
% es.Ey (V/m) @ t=0.16
0.19191459481617912
% es.Ez (V/m) @ t=0.16
0.6865672909384779
% es.tEx (V/m) @ t=0.16
0.675723817866043
% es.tEy (V/m) @ t=0.16
0
% es.tEz (V/m) @ t=0.16
0.6865672909384699
% V (V) @ t=0.16
0.009331861887490517
% es.normE (V/m) @ t=0.18
1.0044998301659986
% es.EX (V/m) @ t=0.18
0.6820675258708242
% es.EY (V/m) @ t=0.18
0.19371632846339182
% es.EZ (V/m) @ t=0.18
0.6930128084114742
% es.tEX (V/m) @ t=0.18
0.6820675258708206
% es.tEY (V/m) @ t=0.18
0
% es.tEZ (V/m) @ t=0.18
0.6930128084114671
% es.Ex (V/m) @ t=0.18
0.6820675258708242
% es.Ey (V/m) @ t=0.18
0.19371632846339182
% es.Ez (V/m) @ t=0.18
0.6930128084114742
% es.tEx (V/m) @ t=0.18
0.6820675258708206
% es.tEy (V/m) @ t=0.18
0
% es.tEz (V/m) @ t=0.18
0.6930128084114671
% V (V) @ t=0.18
0.00941946840886017
% es.normE (V/m) @ t=0.2
1.01384240508863
% es.EX (V/m) @ t=0.2
0.6884112338756552
% es.EY (V/m) @ t=0.2
0.1955180621105903
% es.EZ (V/m) @ t=0.2
0.6994583258844909
% es.tEX (V/m) @ t=0.2
0.6884112338756694
% es.tEY (V/m) @ t=0.2
0
% es.tEZ (V/m) @ t=0.2
0.6994583258844713
% es.Ex (V/m) @ t=0.2
0.6884112338756552
% es.Ey (V/m) @ t=0.2
0.1955180621105903
% es.Ez (V/m) @ t=0.2
0.6994583258844909
% es.tEx (V/m) @ t=0.2
0.6884112338756694
% es.tEy (V/m) @ t=0.2
0
% es.tEz (V/m) @ t=0.2
0.6994583258844713
% V (V) @ t=0.2
0.009507074930229823
% es.normE (V/m) @ t=0.22
1.0231849800112183
% es.EX (V/m) @ t=0.22
0.6947549418804542
% es.EY (V/m) @ t=0.22
0.19731979575780123
% es.EZ (V/m) @ t=0.22
0.7059038433574738
% es.tEX (V/m) @ t=0.22
0.6947549418804471
% es.tEY (V/m) @ t=0.22
0
% es.tEZ (V/m) @ t=0.22
0.7059038433574685
% es.Ex (V/m) @ t=0.22
0.6947549418804542
% es.Ey (V/m) @ t=0.22
0.19731979575780123
% es.Ez (V/m) @ t=0.22
0.7059038433574738
% es.tEx (V/m) @ t=0.22
0.6947549418804471
% es.tEy (V/m) @ t=0.22
0
% es.tEz (V/m) @ t=0.22
0.7059038433574685
% V (V) @ t=0.22
0.009594681451599474
% es.normE (V/m) @ t=0.24
1.0325275549337973
% es.EX (V/m) @ t=0.24
0.7010986498852212
% es.EY (V/m) @ t=0.24
0.19912152940505123
% es.EZ (V/m) @ t=0.24
0.7123493608304567
% es.tEX (V/m) @ t=0.24
0.7010986498851963
% es.tEY (V/m) @ t=0.24
0
% es.tEZ (V/m) @ t=0.24
0.7123493608304443
% es.Ex (V/m) @ t=0.24
0.7010986498852212
% es.Ey (V/m) @ t=0.24
0.19912152940505123
% es.Ez (V/m) @ t=0.24
0.7123493608304567
% es.tEx (V/m) @ t=0.24
0.7010986498851963
% es.tEy (V/m) @ t=0.24
0
% es.tEz (V/m) @ t=0.24
0.7123493608304443
% V (V) @ t=0.24
0.009682287972969125
% es.normE (V/m) @ t=0.26
1.0418701298564135
% es.EX (V/m) @ t=0.26
0.7074423578900451
% es.EY (V/m) @ t=0.26
0.20092326305224617
% es.EZ (V/m) @ t=0.26
0.7187948783034521
% es.tEX (V/m) @ t=0.26
0.7074423578900166
% es.tEY (V/m) @ t=0.26
0
% es.tEZ (V/m) @ t=0.26
0.7187948783034415
% es.Ex (V/m) @ t=0.26
0.7074423578900451
% es.Ey (V/m) @ t=0.26
0.20092326305224617
% es.Ez (V/m) @ t=0.26
0.7187948783034521
% es.tEx (V/m) @ t=0.26
0.7074423578900166
% es.tEy (V/m) @ t=0.26
0
% es.tEz (V/m) @ t=0.26
0.7187948783034415
% V (V) @ t=0.26
0.009769894494338778
% es.normE (V/m) @ t=0.28
1.051819908073301
% es.EX (V/m) @ t=0.28
0.714198499440279
% es.EY (V/m) @ t=0.28
0.20284177278034754
% es.EZ (V/m) @ t=0.28
0.7256593394535438
% es.tEX (V/m) @ t=0.28
0.7141984994402861
% es.tEY (V/m) @ t=0.28
0
% es.tEZ (V/m) @ t=0.28
0.7256593394535287
% es.Ex (V/m) @ t=0.28
0.714198499440279
% es.Ey (V/m) @ t=0.28
0.20284177278034754
% es.Ez (V/m) @ t=0.28
0.7256593394535438
% es.tEx (V/m) @ t=0.28
0.7141984994402861
% es.tEy (V/m) @ t=0.28
0
% es.tEz (V/m) @ t=0.28
0.7256593394535287
% V (V) @ t=0.28
0.009863208641573808
% es.normE (V/m) @ t=0.3
1.0622125758773842
% es.EX (V/m) @ t=0.3
0.721255466964724
% es.EY (V/m) @ t=0.3
0.20484545811719457
% es.EZ (V/m) @ t=0.3
0.7328293750195627
% es.tEX (V/m) @ t=0.3
0.7212554669647346
% es.tEY (V/m) @ t=0.3
0
% es.tEZ (V/m) @ t=0.3
0.7328293750195485
% es.Ex (V/m) @ t=0.3
0.721255466964724
% es.Ey (V/m) @ t=0.3
0.20484545811719457
% es.Ez (V/m) @ t=0.3
0.7328293750195627
% es.tEx (V/m) @ t=0.3
0.7212554669647346
% es.tEy (V/m) @ t=0.3
0
% es.tEz (V/m) @ t=0.3
0.7328293750195485
% V (V) @ t=0.3
0.00996068588885225
% es.normE (V/m) @ t=0.32
1.0726052436819749
% es.EX (V/m) @ t=0.32
0.7283124344891476
% es.EY (V/m) @ t=0.32
0.20684914345405758
% es.EZ (V/m) @ t=0.32
0.7399994105855914
% es.tEX (V/m) @ t=0.32
0.7283124344891547
% es.tEY (V/m) @ t=0.32
0
% es.tEZ (V/m) @ t=0.32
0.7399994105855754
% es.Ex (V/m) @ t=0.32
0.7283124344891476
% es.Ey (V/m) @ t=0.32
0.20684914345405758
% es.Ez (V/m) @ t=0.32
0.7399994105855914
% es.tEx (V/m) @ t=0.32
0.7283124344891547
% es.tEy (V/m) @ t=0.32
0
% es.tEz (V/m) @ t=0.32
0.7399994105855754
% V (V) @ t=0.32
0.010058163136130692
% es.normE (V/m) @ t=0.34
1.0829979114870212
% es.EX (V/m) @ t=0.34
0.7353694020135464
% es.EY (V/m) @ t=0.34
0.20885282879088507
% es.EZ (V/m) @ t=0.34
0.7471694461516059
% es.tEX (V/m) @ t=0.34
0.7353694020135464
% es.tEY (V/m) @ t=0.34
0
% es.tEZ (V/m) @ t=0.34
0.7471694461515952
% es.Ex (V/m) @ t=0.34
0.7353694020135464
% es.Ey (V/m) @ t=0.34
0.20885282879088507
% es.Ez (V/m) @ t=0.34
0.7471694461516059
% es.tEx (V/m) @ t=0.34
0.7353694020135464
% es.tEy (V/m) @ t=0.34
0
% es.tEz (V/m) @ t=0.34
0.7471694461515952
% V (V) @ t=0.34
0.010155640383409137
% es.normE (V/m) @ t=0.36
1.0933905792925676
% es.EX (V/m) @ t=0.36
0.74242636953797
% es.EY (V/m) @ t=0.36
0.2108565141277321
% es.EZ (V/m) @ t=0.36
0.7543394817176141
% es.tEX (V/m) @ t=0.36
0.7424263695379949
% es.tEY (V/m) @ t=0.36
0
% es.tEZ (V/m) @ t=0.36
0.7543394817175937
% es.Ex (V/m) @ t=0.36
0.74242636953797
% es.Ey (V/m) @ t=0.36
0.2108565141277321
% es.Ez (V/m) @ t=0.36
0.7543394817176141
% es.tEx (V/m) @ t=0.36
0.7424263695379949
% es.tEy (V/m) @ t=0.36
0
% es.tEz (V/m) @ t=0.36
0.7543394817175937
% V (V) @ t=0.36
0.01025311763068758
% es.normE (V/m) @ t=0.38
1.1037832470986073
% es.EX (V/m) @ t=0.38
0.7494833370623972
% es.EY (V/m) @ t=0.38
0.21286019946458268
% es.EZ (V/m) @ t=0.38
0.7615095172836481
% es.tEX (V/m) @ t=0.38
0.749483337062415
% es.tEY (V/m) @ t=0.38
0
% es.tEZ (V/m) @ t=0.38
0.7615095172836348
% es.Ex (V/m) @ t=0.38
0.7494833370623972
% es.Ey (V/m) @ t=0.38
0.21286019946458268
% es.Ez (V/m) @ t=0.38
0.7615095172836481
% es.tEx (V/m) @ t=0.38
0.749483337062415
% es.tEy (V/m) @ t=0.38
0
% es.tEz (V/m) @ t=0.38
0.7615095172836348
% V (V) @ t=0.38
0.010350594877966024
% es.normE (V/m) @ t=0.4
1.114175914905065
% es.EX (V/m) @ t=0.4
0.7565403045867853
% es.EY (V/m) @ t=0.4
0.2148638848014528
% es.EZ (V/m) @ t=0.4
0.768679552849659
% es.tEX (V/m) @ t=0.4
0.7565403045868067
% es.tEY (V/m) @ t=0.4
0
% es.tEZ (V/m) @ t=0.4
0.7686795528496475
% es.Ex (V/m) @ t=0.4
0.7565403045867853
% es.Ey (V/m) @ t=0.4
0.2148638848014528
% es.Ez (V/m) @ t=0.4
0.768679552849659
% es.tEx (V/m) @ t=0.4
0.7565403045868067
% es.tEy (V/m) @ t=0.4
0
% es.tEz (V/m) @ t=0.4
0.7686795528496475
% V (V) @ t=0.4
0.010448072125244467
% es.normE (V/m) @ t=0.42
1.1245685827119973
% es.EX (V/m) @ t=0.42
0.7635972721112161
% es.EY (V/m) @ t=0.42
0.21686757013829094
% es.EZ (V/m) @ t=0.42
0.7758495884156815
% es.tEX (V/m) @ t=0.42
0.7635972721112267
% es.tEY (V/m) @ t=0.42
0
% es.tEZ (V/m) @ t=0.42
0.7758495884156744
% es.Ex (V/m) @ t=0.42
0.7635972721112161
% es.Ey (V/m) @ t=0.42
0.21686757013829094
% es.Ez (V/m) @ t=0.42
0.7758495884156815
% es.tEx (V/m) @ t=0.42
0.7635972721112267
% es.tEy (V/m) @ t=0.42
0
% es.tEz (V/m) @ t=0.42
0.7758495884156744
% V (V) @ t=0.42
0.01054554937252291
% es.normE (V/m) @ t=0.44
1.1349612505193625
% es.EX (V/m) @ t=0.44
0.7706542396356504
% es.EY (V/m) @ t=0.44
0.21887125547510422
% es.EZ (V/m) @ t=0.44
0.7830196239817173
% es.tEX (V/m) @ t=0.44
0.7706542396356468
% es.tEY (V/m) @ t=0.44
0
% es.tEZ (V/m) @ t=0.44
0.7830196239817013
% es.Ex (V/m) @ t=0.44
0.7706542396356504
% es.Ey (V/m) @ t=0.44
0.21887125547510422
% es.Ez (V/m) @ t=0.44
0.7830196239817173
% es.tEx (V/m) @ t=0.44
0.7706542396356468
% es.tEy (V/m) @ t=0.44
0
% es.tEz (V/m) @ t=0.44
0.7830196239817013
% V (V) @ t=0.44
0.010643026619801352
% es.normE (V/m) @ t=0.46
1.1453539183271226
% es.EX (V/m) @ t=0.46
0.7777112071600598
% es.EY (V/m) @ t=0.46
0.22087494081198145
% es.EZ (V/m) @ t=0.46
0.7901896595477211
% es.tEX (V/m) @ t=0.46
0.7777112071600385
% es.tEY (V/m) @ t=0.46
0
% es.tEZ (V/m) @ t=0.46
0.7901896595477069
% es.Ex (V/m) @ t=0.46
0.7777112071600598
% es.Ey (V/m) @ t=0.46
0.22087494081198145
% es.Ez (V/m) @ t=0.46
0.7901896595477211
% es.tEx (V/m) @ t=0.46
0.7777112071600385
% es.tEy (V/m) @ t=0.46
0
% es.tEz (V/m) @ t=0.46
0.7901896595477069
% V (V) @ t=0.46
0.010740503867079795
% es.normE (V/m) @ t=0.48
1.1557465861353093
% es.EX (V/m) @ t=0.48
0.7847681746844799
% es.EY (V/m) @ t=0.48
0.22287862614879472
% es.EZ (V/m) @ t=0.48
0.797359695113756
% es.tEX (V/m) @ t=0.48
0.7847681746844586
% es.tEY (V/m) @ t=0.48
0
% es.tEZ (V/m) @ t=0.48
0.797359695113748
% es.Ex (V/m) @ t=0.48
0.7847681746844799
% es.Ey (V/m) @ t=0.48
0.22287862614879472
% es.Ez (V/m) @ t=0.48
0.797359695113756
% es.tEx (V/m) @ t=0.48
0.7847681746844586
% es.tEy (V/m) @ t=0.48
0
% es.tEz (V/m) @ t=0.48
0.797359695113748
% V (V) @ t=0.48
0.010837981114358238
% es.normE (V/m) @ t=0.5
1.166139253943899
% es.EX (V/m) @ t=0.5
0.7918251422089497
% es.EY (V/m) @ t=0.5
0.22488231148563287
% es.EZ (V/m) @ t=0.5
0.8045297306797528
% es.tEX (V/m) @ t=0.5
0.7918251422089213
% es.tEY (V/m) @ t=0.5
0
% es.tEZ (V/m) @ t=0.5
0.8045297306797465
% es.Ex (V/m) @ t=0.5
0.7918251422089497
% es.Ey (V/m) @ t=0.5
0.22488231148563287
% es.Ez (V/m) @ t=0.5
0.8045297306797528
% es.tEx (V/m) @ t=0.5
0.7918251422089213
% es.tEy (V/m) @ t=0.5
0
% es.tEz (V/m) @ t=0.5
0.8045297306797465
% V (V) @ t=0.5
0.010935458361636681
% es.normE (V/m) @ t=0.52
1.1765319217528494
% es.EX (V/m) @ t=0.52
0.7988821097333165
% es.EY (V/m) @ t=0.52
0.2268859968225012
% es.EZ (V/m) @ t=0.52
0.8116997662458028
% es.tEX (V/m) @ t=0.52
0.7988821097332988
% es.tEY (V/m) @ t=0.52
0
% es.tEZ (V/m) @ t=0.52
0.8116997662457877
% es.Ex (V/m) @ t=0.52
0.7988821097333165
% es.Ey (V/m) @ t=0.52
0.2268859968225012
% es.Ez (V/m) @ t=0.52
0.8116997662458028
% es.tEx (V/m) @ t=0.52
0.7988821097332988
% es.tEy (V/m) @ t=0.52
0
% es.tEz (V/m) @ t=0.52
0.8116997662457877
% V (V) @ t=0.52
0.011032935608915124
% es.normE (V/m) @ t=0.54
1.1871204135836462
% es.EX (V/m) @ t=0.54
0.8060719033769566
% es.EY (V/m) @ t=0.54
0.22892778176633222
% es.EZ (V/m) @ t=0.54
0.8190048723673957
% es.tEX (V/m) @ t=0.54
0.8060719033769317
% es.tEY (V/m) @ t=0.54
0
% es.tEZ (V/m) @ t=0.54
0.8190048723673868
% es.Ex (V/m) @ t=0.54
0.8060719033769566
% es.Ey (V/m) @ t=0.54
0.22892778176633222
% es.Ez (V/m) @ t=0.54
0.8190048723673957
% es.tEx (V/m) @ t=0.54
0.8060719033769317
% es.tEy (V/m) @ t=0.54
0
% es.tEz (V/m) @ t=0.54
0.8190048723673868
% V (V) @ t=0.54
0.011132234894891237
% es.normE (V/m) @ t=0.56
1.198690626004217
% es.EX (V/m) @ t=0.56
0.813927591504779
% es.EY (V/m) @ t=0.56
0.23116057069550244
% es.EZ (V/m) @ t=0.56
0.8269871249604019
% es.tEX (V/m) @ t=0.56
0.8139275915048074
% es.tEY (V/m) @ t=0.56
0
% es.tEZ (V/m) @ t=0.56
0.8269871249603966
% es.Ex (V/m) @ t=0.56
0.813927591504779
% es.Ey (V/m) @ t=0.56
0.23116057069550244
% es.Ez (V/m) @ t=0.56
0.8269871249604019
% es.tEx (V/m) @ t=0.56
0.8139275915048074
% es.tEy (V/m) @ t=0.56
0
% es.tEz (V/m) @ t=0.56
0.8269871249603966
% V (V) @ t=0.56
0.011240668570443701
% es.normE (V/m) @ t=0.58
1.2102608384287914
% es.EX (V/m) @ t=0.58
0.8217832796325943
% es.EY (V/m) @ t=0.58
0.23339335962476504
% es.EZ (V/m) @ t=0.58
0.8349693775534037
% es.tEX (V/m) @ t=0.58
0.8217832796325837
% es.tEY (V/m) @ t=0.58
0
% es.tEZ (V/m) @ t=0.58
0.8349693775533922
% es.Ex (V/m) @ t=0.58
0.8217832796325943
% es.Ey (V/m) @ t=0.58
0.23339335962476504
% es.Ez (V/m) @ t=0.58
0.8349693775534037
% es.tEx (V/m) @ t=0.58
0.8217832796325837
% es.tEy (V/m) @ t=0.58
0
% es.tEz (V/m) @ t=0.58
0.8349693775533922
% V (V) @ t=0.58
0.011349102245996168
% es.normE (V/m) @ t=0.6
1.2218310508572146
% es.EX (V/m) @ t=0.6
0.82963896776036
% es.EY (V/m) @ t=0.6
0.23562614855405783
% es.EZ (V/m) @ t=0.6
0.8429516301463966
% es.tEX (V/m) @ t=0.6
0.82963896776036
% es.tEY (V/m) @ t=0.6
0
% es.tEZ (V/m) @ t=0.6
0.8429516301463877
% es.Ex (V/m) @ t=0.6
0.82963896776036
% es.Ey (V/m) @ t=0.6
0.23562614855405783
% es.Ez (V/m) @ t=0.6
0.8429516301463966
% es.tEx (V/m) @ t=0.6
0.82963896776036
% es.tEy (V/m) @ t=0.6
0
% es.tEz (V/m) @ t=0.6
0.8429516301463877
% V (V) @ t=0.6
0.01145753592154863
% es.normE (V/m) @ t=0.62
1.2334012632894236
% es.EX (V/m) @ t=0.62
0.837494655888186
% es.EY (V/m) @ t=0.62
0.2378589374832707
% es.EZ (V/m) @ t=0.62
0.8509338827393931
% es.tEX (V/m) @ t=0.62
0.8374946558881504
% es.tEY (V/m) @ t=0.62
0
% es.tEZ (V/m) @ t=0.62
0.8509338827393833
% es.Ex (V/m) @ t=0.62
0.837494655888186
% es.Ey (V/m) @ t=0.62
0.2378589374832707
% es.Ez (V/m) @ t=0.62
0.8509338827393931
% es.tEx (V/m) @ t=0.62
0.8374946558881504
% es.tEy (V/m) @ t=0.62
0
% es.tEz (V/m) @ t=0.62
0.8509338827393833
% V (V) @ t=0.62
0.011565969597101095
% es.normE (V/m) @ t=0.64
1.2449714757253085
% es.EX (V/m) @ t=0.64
0.8453503440159942
% es.EY (V/m) @ t=0.64
0.24009172641251908
% es.EZ (V/m) @ t=0.64
0.8589161353324046
% es.tEX (V/m) @ t=0.64
0.8453503440159835
% es.tEY (V/m) @ t=0.64
0
% es.tEZ (V/m) @ t=0.64
0.858916135332386
% es.Ex (V/m) @ t=0.64
0.8453503440159942
% es.Ey (V/m) @ t=0.64
0.24009172641251908
% es.Ez (V/m) @ t=0.64
0.8589161353324046
% es.tEx (V/m) @ t=0.64
0.8453503440159835
% es.tEy (V/m) @ t=0.64
0
% es.tEz (V/m) @ t=0.64
0.858916135332386
% V (V) @ t=0.64
0.01167440327265356
% es.normE (V/m) @ t=0.66
1.256541688164729
% es.EX (V/m) @ t=0.66
0.8532060321437918
% es.EY (V/m) @ t=0.66
0.2423245153417799
% es.EZ (V/m) @ t=0.66
0.8668983879253878
% es.tEX (V/m) @ t=0.66
0.8532060321437882
% es.tEY (V/m) @ t=0.66
0
% es.tEZ (V/m) @ t=0.66
0.8668983879253744
% es.Ex (V/m) @ t=0.66
0.8532060321437918
% es.Ey (V/m) @ t=0.66
0.2423245153417799
% es.Ez (V/m) @ t=0.66
0.8668983879253878
% es.tEx (V/m) @ t=0.66
0.8532060321437882
% es.tEy (V/m) @ t=0.66
0
% es.tEz (V/m) @ t=0.66
0.8668983879253744
% V (V) @ t=0.66
0.011782836948206026
% es.normE (V/m) @ t=0.68
1.2681119006076333
% es.EX (V/m) @ t=0.68
0.8610617202715893
% es.EY (V/m) @ t=0.68
0.2445573042710123
% es.EZ (V/m) @ t=0.68
0.8748806405184055
% es.tEX (V/m) @ t=0.68
0.8610617202715787
% es.tEY (V/m) @ t=0.68
0
% es.tEZ (V/m) @ t=0.68
0.8748806405183913
% es.Ex (V/m) @ t=0.68
0.8610617202715893
% es.Ey (V/m) @ t=0.68
0.2445573042710123
% es.Ez (V/m) @ t=0.68
0.8748806405184055
% es.tEx (V/m) @ t=0.68
0.8610617202715787
% es.tEy (V/m) @ t=0.68
0
% es.tEz (V/m) @ t=0.68
0.8748806405183913
% V (V) @ t=0.68
0.011891270623758488
% es.normE (V/m) @ t=0.7
1.2796821130538958
% es.EX (V/m) @ t=0.7
0.8689174083993763
% es.EY (V/m) @ t=0.7
0.2467900932002749
% es.EZ (V/m) @ t=0.7
0.8828628931114029
% es.tEX (V/m) @ t=0.7
0.8689174083993834
% es.tEY (V/m) @ t=0.7
0
% es.tEZ (V/m) @ t=0.7
0.8828628931113869
% es.Ex (V/m) @ t=0.7
0.8689174083993763
% es.Ey (V/m) @ t=0.7
0.2467900932002749
% es.Ez (V/m) @ t=0.7
0.8828628931114029
% es.tEx (V/m) @ t=0.7
0.8689174083993834
% es.tEy (V/m) @ t=0.7
0
% es.tEz (V/m) @ t=0.7
0.8828628931113869
% V (V) @ t=0.7
0.011999704299310954
% es.normE (V/m) @ t=0.72
1.2912523255034882
% es.EX (V/m) @ t=0.72
0.8767730965272484
% es.EY (V/m) @ t=0.72
0.24902288212948953
% es.EZ (V/m) @ t=0.72
0.8908451457044144
% es.tEX (V/m) @ t=0.72
0.8767730965272165
% es.tEY (V/m) @ t=0.72
0
% es.tEZ (V/m) @ t=0.72
0.8908451457043967
% es.Ex (V/m) @ t=0.72
0.8767730965272484
% es.Ey (V/m) @ t=0.72
0.24902288212948953
% es.Ez (V/m) @ t=0.72
0.8908451457044144
% es.tEx (V/m) @ t=0.72
0.8767730965272165
% es.tEy (V/m) @ t=0.72
0
% es.tEz (V/m) @ t=0.72
0.8908451457043967
% V (V) @ t=0.72
0.012108137974863419
% es.normE (V/m) @ t=0.74
1.3028225379561802
% es.EX (V/m) @ t=0.74
0.884628784654975
% es.EY (V/m) @ t=0.74
0.2512556710587752
% es.EZ (V/m) @ t=0.74
0.8988273982974011
% es.tEX (V/m) @ t=0.74
0.8846287846549501
% es.tEY (V/m) @ t=0.74
0
% es.tEZ (V/m) @ t=0.74
0.8988273982973851
% es.Ex (V/m) @ t=0.74
0.884628784654975
% es.Ey (V/m) @ t=0.74
0.2512556710587752
% es.Ez (V/m) @ t=0.74
0.8988273982974011
% es.tEx (V/m) @ t=0.74
0.8846287846549501
% es.tEy (V/m) @ t=0.74
0
% es.tEz (V/m) @ t=0.74
0.8988273982973851
% V (V) @ t=0.74
0.012216571650415883
% es.normE (V/m) @ t=0.76
1.3143927504120683
% es.EX (V/m) @ t=0.76
0.8924844727828543
% es.EY (V/m) @ t=0.76
0.25348845998795966
% es.EZ (V/m) @ t=0.76
0.906809650890402
% es.tEX (V/m) @ t=0.76
0.89248447278284
% es.tEY (V/m) @ t=0.76
0
% es.tEZ (V/m) @ t=0.76
0.9068096508903949
% es.Ex (V/m) @ t=0.76
0.8924844727828543
% es.Ey (V/m) @ t=0.76
0.25348845998795966
% es.Ez (V/m) @ t=0.76
0.906809650890402
% es.tEx (V/m) @ t=0.76
0.89248447278284
% es.tEy (V/m) @ t=0.76
0
% es.tEz (V/m) @ t=0.76
0.9068096508903949
% V (V) @ t=0.76
0.01232500532596835
% es.normE (V/m) @ t=0.78
1.3259629628709546
% es.EX (V/m) @ t=0.78
0.9003401609106518
% es.EY (V/m) @ t=0.78
0.25572124891722936
% es.EZ (V/m) @ t=0.78
0.9147919034834189
% es.tEX (V/m) @ t=0.78
0.9003401609106305
% es.tEY (V/m) @ t=0.78
0
% es.tEZ (V/m) @ t=0.78
0.9147919034834047
% es.Ex (V/m) @ t=0.78
0.9003401609106518
% es.Ey (V/m) @ t=0.78
0.25572124891722936
% es.Ez (V/m) @ t=0.78
0.9147919034834189
% es.tEx (V/m) @ t=0.78
0.9003401609106305
% es.tEy (V/m) @ t=0.78
0
% es.tEz (V/m) @ t=0.78
0.9147919034834047
% V (V) @ t=0.78
0.012433439001520812
% es.normE (V/m) @ t=0.8
1.3375331753327644
% es.EX (V/m) @ t=0.8
0.9081958490384316
% es.EY (V/m) @ t=0.8
0.2579540378464742
% es.EZ (V/m) @ t=0.8
0.9227741560764233
% es.tEX (V/m) @ t=0.8
0.9081958490384352
% es.tEY (V/m) @ t=0.8
0
% es.tEZ (V/m) @ t=0.8
0.9227741560764073
% es.Ex (V/m) @ t=0.8
0.9081958490384316
% es.Ey (V/m) @ t=0.8
0.2579540378464742
% es.Ez (V/m) @ t=0.8
0.9227741560764233
% es.tEx (V/m) @ t=0.8
0.9081958490384352
% es.tEy (V/m) @ t=0.8
0
% es.tEz (V/m) @ t=0.8
0.9227741560764073
% V (V) @ t=0.8
0.012541872677073278
% es.normE (V/m) @ t=0.82
1.350123543603819
% es.EX (V/m) @ t=0.82
0.9167449272511625
% es.EY (V/m) @ t=0.82
0.26038191524252774
% es.EZ (V/m) @ t=0.82
0.9314603699939568
% es.tEX (V/m) @ t=0.82
0.9167449272511305
% es.tEY (V/m) @ t=0.82
0
% es.tEZ (V/m) @ t=0.82
0.9314603699939425
% es.Ex (V/m) @ t=0.82
0.9167449272511625
% es.Ey (V/m) @ t=0.82
0.26038191524252774
% es.Ez (V/m) @ t=0.82
0.9314603699939568
% es.tEx (V/m) @ t=0.82
0.9167449272511305
% es.tEy (V/m) @ t=0.82
0
% es.tEz (V/m) @ t=0.82
0.9314603699939425
% V (V) @ t=0.82
0.012659942636993656
% es.normE (V/m) @ t=0.84
1.363046103067794
% es.EX (V/m) @ t=0.84
0.925519792620328
% es.EY (V/m) @ t=0.84
0.2628733188860828
% es.EZ (V/m) @ t=0.84
0.9403758133584805
% es.tEX (V/m) @ t=0.84
0.9255197926202925
% es.tEY (V/m) @ t=0.84
0
% es.tEZ (V/m) @ t=0.84
0.9403758133584716
% es.Ex (V/m) @ t=0.84
0.925519792620328
% es.Ey (V/m) @ t=0.84
0.2628733188860828
% es.Ez (V/m) @ t=0.84
0.9403758133584805
% es.tEx (V/m) @ t=0.84
0.9255197926202925
% es.tEy (V/m) @ t=0.84
0
% es.tEz (V/m) @ t=0.84
0.9403758133584716
% V (V) @ t=0.84
0.01278115043994512
% es.normE (V/m) @ t=0.86
1.375968662532633
% es.EX (V/m) @ t=0.86
0.9342946579893869
% es.EY (V/m) @ t=0.86
0.26536472252966625
% es.EZ (V/m) @ t=0.86
0.9492912567229634
% es.tEX (V/m) @ t=0.86
0.9342946579893692
% es.tEY (V/m) @ t=0.86
0
% es.tEZ (V/m) @ t=0.86
0.9492912567229439
% es.Ex (V/m) @ t=0.86
0.9342946579893869
% es.Ey (V/m) @ t=0.86
0.26536472252966625
% es.Ez (V/m) @ t=0.86
0.9492912567229634
% es.tEx (V/m) @ t=0.86
0.9342946579893692
% es.tEy (V/m) @ t=0.86
0
% es.tEz (V/m) @ t=0.86
0.9492912567229439
% V (V) @ t=0.86
0.012902358242896586
% es.normE (V/m) @ t=0.88
1.3888912219984881
% es.EX (V/m) @ t=0.88
0.9430695233585418
% es.EY (V/m) @ t=0.88
0.2678561261732302
% es.EZ (V/m) @ t=0.88
0.9582067000874783
% es.tEX (V/m) @ t=0.88
0.9430695233585169
% es.tEY (V/m) @ t=0.88
0
% es.tEZ (V/m) @ t=0.88
0.9582067000874588
% es.Ex (V/m) @ t=0.88
0.9430695233585418
% es.Ey (V/m) @ t=0.88
0.2678561261732302
% es.Ez (V/m) @ t=0.88
0.9582067000874783
% es.tEx (V/m) @ t=0.88
0.9430695233585169
% es.tEy (V/m) @ t=0.88
0
% es.tEz (V/m) @ t=0.88
0.9582067000874588
% V (V) @ t=0.88
0.013023566045848051
% es.normE (V/m) @ t=0.9
1.401813781465174
% es.EX (V/m) @ t=0.9
0.9518443887275794
% es.EY (V/m) @ t=0.9
0.27034752981682253
% es.EZ (V/m) @ t=0.9
0.9671221434519772
% es.tEX (V/m) @ t=0.9
0.9518443887275936
% es.tEY (V/m) @ t=0.9
0
% es.tEZ (V/m) @ t=0.9
0.9671221434519666
% es.Ex (V/m) @ t=0.9
0.9518443887275794
% es.Ey (V/m) @ t=0.9
0.27034752981682253
% es.Ez (V/m) @ t=0.9
0.9671221434519772
% es.tEx (V/m) @ t=0.9
0.9518443887275936
% es.tEy (V/m) @ t=0.9
0
% es.tEz (V/m) @ t=0.9
0.9671221434519666
% V (V) @ t=0.9
0.013144773848799515
% es.normE (V/m) @ t=0.92
1.4147363409328078
% es.EX (V/m) @ t=0.92
0.9606192540967413
% es.EY (V/m) @ t=0.92
0.2728389334603474
% es.EZ (V/m) @ t=0.92
0.976037586816485
% es.tEX (V/m) @ t=0.92
0.9606192540967555
% es.tEY (V/m) @ t=0.92
0
% es.tEZ (V/m) @ t=0.92
0.9760375868164601
% es.Ex (V/m) @ t=0.92
0.9606192540967413
% es.Ey (V/m) @ t=0.92
0.2728389334603474
% es.Ez (V/m) @ t=0.92
0.976037586816485
% es.tEx (V/m) @ t=0.92
0.9606192540967555
% es.tEy (V/m) @ t=0.92
0
% es.tEz (V/m) @ t=0.92
0.9760375868164601
% V (V) @ t=0.92
0.01326598165175098
% es.normE (V/m) @ t=0.94
1.427658900401323
% es.EX (V/m) @ t=0.94
0.9693941194658962
% es.EY (V/m) @ t=0.94
0.27533033710396104
% es.EZ (V/m) @ t=0.94
0.9849530301809821
% es.tEX (V/m) @ t=0.94
0.9693941194658748
% es.tEY (V/m) @ t=0.94
0
% es.tEZ (V/m) @ t=0.94
0.9849530301809608
% es.Ex (V/m) @ t=0.94
0.9693941194658962
% es.Ey (V/m) @ t=0.94
0.27533033710396104
% es.Ez (V/m) @ t=0.94
0.9849530301809821
% es.tEx (V/m) @ t=0.94
0.9693941194658748
% es.tEy (V/m) @ t=0.94
0
% es.tEz (V/m) @ t=0.94
0.9849530301809608
% V (V) @ t=0.94
0.013387189454702443
% es.normE (V/m) @ t=0.96
1.4405814598706632
% es.EX (V/m) @ t=0.96
0.9781689848350332
% es.EY (V/m) @ t=0.96
0.27782174074752497
% es.EZ (V/m) @ t=0.96
0.9938684735455112
% es.tEX (V/m) @ t=0.96
0.9781689848350226
% es.tEY (V/m) @ t=0.96
0
% es.tEZ (V/m) @ t=0.96
0.9938684735454899
% es.Ex (V/m) @ t=0.96
0.9781689848350332
% es.Ey (V/m) @ t=0.96
0.27782174074752497
% es.Ez (V/m) @ t=0.96
0.9938684735455112
% es.tEx (V/m) @ t=0.96
0.9781689848350226
% es.tEy (V/m) @ t=0.96
0
% es.tEz (V/m) @ t=0.96
0.9938684735454899
% V (V) @ t=0.96
0.013508397257653907
% es.normE (V/m) @ t=0.98
1.4535040193407296
% es.EX (V/m) @ t=0.98
0.9869438502041028
% es.EY (V/m) @ t=0.98
0.28031314439107824
% es.EZ (V/m) @ t=0.98
1.0027839169099888
% es.tEX (V/m) @ t=0.98
0.986943850204085
% es.tEY (V/m) @ t=0.98
0
% es.tEZ (V/m) @ t=0.98
1.0027839169099764
% es.Ex (V/m) @ t=0.98
0.9869438502041028
% es.Ey (V/m) @ t=0.98
0.28031314439107824
% es.Ez (V/m) @ t=0.98
1.0027839169099888
% es.tEx (V/m) @ t=0.98
0.986943850204085
% es.tEy (V/m) @ t=0.98
0
% es.tEz (V/m) @ t=0.98
1.0027839169099764
% V (V) @ t=0.98
0.013629605060605373
% es.normE (V/m) @ t=1
1.4664265788116624
% es.EX (V/m) @ t=1
0.995718715573247
% es.EY (V/m) @ t=1
0.2828045480346457
% es.EZ (V/m) @ t=1
1.0116993602744877
% es.tEX (V/m) @ t=1
0.9957187155732328
% es.tEY (V/m) @ t=1
0
% es.tEZ (V/m) @ t=1
1.01169936027447
% es.Ex (V/m) @ t=1
0.995718715573247
% es.Ey (V/m) @ t=1
0.2828045480346457
% es.Ez (V/m) @ t=1
1.0116993602744877
% es.tEx (V/m) @ t=1
0.9957187155732328
% es.tEy (V/m) @ t=1
0
% es.tEz (V/m) @ t=1
1.01169936027447
% V (V) @ t=1
0.013750812863556838
% es.normE (V/m) @ t=1.02
1.4793491382833563
% es.EX (V/m) @ t=1.02
1.0044935809423734
% es.EY (V/m) @ t=1.02
0.28529595167817945
% es.EZ (V/m) @ t=1.02
1.0206148036390097
% es.tEX (V/m) @ t=1.02
1.0044935809423663
% es.tEY (V/m) @ t=1.02
0
% es.tEZ (V/m) @ t=1.02
1.020614803638992
% es.Ex (V/m) @ t=1.02
1.0044935809423734
% es.Ey (V/m) @ t=1.02
0.28529595167817945
% es.Ez (V/m) @ t=1.02
1.0206148036390097
% es.tEx (V/m) @ t=1.02
1.0044935809423663
% es.tEy (V/m) @ t=1.02
0
% es.tEz (V/m) @ t=1.02
1.020614803638992
% V (V) @ t=1.02
0.013872020666508302
% es.normE (V/m) @ t=1.04
1.492271697755753
% es.EX (V/m) @ t=1.04
1.0132684463114323
% es.EY (V/m) @ t=1.04
0.287787355321786
% es.EZ (V/m) @ t=1.04
1.0295302470034997
% es.tEX (V/m) @ t=1.04
1.0132684463114288
% es.tEY (V/m) @ t=1.04
0
% es.tEZ (V/m) @ t=1.04
1.0295302470034855
% es.Ex (V/m) @ t=1.04
1.0132684463114323
% es.Ey (V/m) @ t=1.04
0.287787355321786
% es.Ez (V/m) @ t=1.04
1.0295302470034997
% es.tEx (V/m) @ t=1.04