% Model:              1 neuron.mph
% Version:            COMSOL 6.0.0.405
% Date:               Mar 16 2023, 17:50
% Dimension:          0
% Nodes:              14017
% Expressions:        14017
% Description:        Electric field norm, Electric field, X component, Electric field, Y component, Electric field, Z component, Tangential electric field, X component, Tangential electric field, Y component, Tangential electric field, Z component, Electric field, x component, Electric field, y component, Electric field, z component, Tangential electric field, x component, Tangential electric field, y component, Tangential electric field, z component, Electric potential
% Length unit:        mm
% x
1
% y
12.2
% z
1.6599999999999997
% es.normE (V/m) @ t=0
2.1751927853891777
% es.EX (V/m) @ t=0
1.9472538637330403
% es.EY (V/m) @ t=0
0.07492132816486025
% es.EZ (V/m) @ t=0
-0.9664640576161838
% es.tEX (V/m) @ t=0
1.9472538637330414
% es.tEY (V/m) @ t=0
0
% es.tEZ (V/m) @ t=0
-0.9664640576161858
% es.Ex (V/m) @ t=0
1.9472538637330403
% es.Ey (V/m) @ t=0
0.07492132816486025
% es.Ez (V/m) @ t=0
-0.9664640576161838
% es.tEx (V/m) @ t=0
1.9472538637330414
% es.tEy (V/m) @ t=0
0
% es.tEz (V/m) @ t=0
-0.9664640576161858
% V (V) @ t=0
0.009868833052711416
% es.normE (V/m) @ t=0.02
1.878753570007936
% es.EX (V/m) @ t=0.02
1.6818785788379995
% es.EY (V/m) @ t=0.02
0.06471092218778171
% es.EZ (V/m) @ t=0.02
-0.8347525812392046
% es.tEX (V/m) @ t=0.02
1.6818785788379964
% es.tEY (V/m) @ t=0.02
0
% es.tEZ (V/m) @ t=0.02
-0.83475258123919
% es.Ex (V/m) @ t=0.02
1.6818785788379995
% es.Ey (V/m) @ t=0.02
0.06471092218778171
% es.Ez (V/m) @ t=0.02
-0.8347525812392046
% es.tEx (V/m) @ t=0.02
1.6818785788379964
% es.tEy (V/m) @ t=0.02
0
% es.tEz (V/m) @ t=0.02
-0.83475258123919
% V (V) @ t=0.02
0.008523890390986342
% es.normE (V/m) @ t=0.04
1.8960336161539784
% es.EX (V/m) @ t=0.04
1.6973478462343055
% es.EY (V/m) @ t=0.04
0.06530611591768748
% es.EZ (V/m) @ t=0.04
-0.8424303088605247
% es.tEX (V/m) @ t=0.04
1.6973478462342984
% es.tEY (V/m) @ t=0.04
0
% es.tEZ (V/m) @ t=0.04
-0.842430308860525
% es.Ex (V/m) @ t=0.04
1.6973478462343055
% es.Ey (V/m) @ t=0.04
0.06530611591768748
% es.Ez (V/m) @ t=0.04
-0.8424303088605247
% es.tEx (V/m) @ t=0.04
1.6973478462342984
% es.tEy (V/m) @ t=0.04
0
% es.tEz (V/m) @ t=0.04
-0.842430308860525
% V (V) @ t=0.04
0.008602289636088058
% es.normE (V/m) @ t=0.06
1.9134621037922055
% es.EX (V/m) @ t=0.06
1.7129499985233279
% es.EY (V/m) @ t=0.06
0.06590641181713505
% es.EZ (V/m) @ t=0.06
-0.8501739944204958
% es.tEX (V/m) @ t=0.06
1.7129499985233263
% es.tEY (V/m) @ t=0.06
0
% es.tEZ (V/m) @ t=0.06
-0.8501739944204907
% es.Ex (V/m) @ t=0.06
1.7129499985233279
% es.Ey (V/m) @ t=0.06
0.06590641181713505
% es.Ez (V/m) @ t=0.06
-0.8501739944204958
% es.tEx (V/m) @ t=0.06
1.7129499985233263
% es.tEy (V/m) @ t=0.06
0
% es.tEz (V/m) @ t=0.06
-0.8501739944204907
% V (V) @ t=0.06
0.008681362620618067
% es.normE (V/m) @ t=0.08
1.9311738140561447
% es.EX (V/m) @ t=0.08
1.7288056939957763
% es.EY (V/m) @ t=0.08
0.06651645919404309
% es.EZ (V/m) @ t=0.08
-0.8580435204252012
% es.tEX (V/m) @ t=0.08
1.7288056939957723
% es.tEY (V/m) @ t=0.08
0
% es.tEZ (V/m) @ t=0.08
-0.8580435204252055
% es.Ex (V/m) @ t=0.08
1.7288056939957763
% es.Ey (V/m) @ t=0.08
0.06651645919404309
% es.Ez (V/m) @ t=0.08
-0.8580435204252012
% es.tEx (V/m) @ t=0.08
1.7288056939957723
% es.tEy (V/m) @ t=0.08
0
% es.tEz (V/m) @ t=0.08
-0.8580435204252055
% V (V) @ t=0.08
0.008761720674559105
% es.normE (V/m) @ t=0.1
1.9490467872082813
% es.EX (V/m) @ t=0.1
1.7448057533089876
% es.EY (V/m) @ t=0.1
0.06713205892191274
% es.EZ (V/m) @ t=0.1
-0.8659846981686244
% es.tEX (V/m) @ t=0.1
1.7448057533089862
% es.tEY (V/m) @ t=0.1
0
% es.tEZ (V/m) @ t=0.1
-0.8659846981686172
% es.Ex (V/m) @ t=0.1
1.7448057533089876
% es.Ey (V/m) @ t=0.1
0.06713205892191274
% es.Ez (V/m) @ t=0.1
-0.8659846981686244
% es.tEx (V/m) @ t=0.1
1.7448057533089862
% es.tEy (V/m) @ t=0.1
0
% es.tEz (V/m) @ t=0.1
-0.8659846981686172
% V (V) @ t=0.1
0.008842810428533819
% es.normE (V/m) @ t=0.12
1.9669197603604358
% es.EX (V/m) @ t=0.12
1.7608058126222172
% es.EY (V/m) @ t=0.12
0.06774765864978147
% es.EZ (V/m) @ t=0.12
-0.8739258759120513
% es.tEX (V/m) @ t=0.12
1.7608058126222152
% es.tEY (V/m) @ t=0.12
0
% es.tEZ (V/m) @ t=0.12
-0.8739258759120432
% es.Ex (V/m) @ t=0.12
1.7608058126222172
% es.Ey (V/m) @ t=0.12
0.06774765864978147
% es.Ez (V/m) @ t=0.12
-0.8739258759120513
% es.tEx (V/m) @ t=0.12
1.7608058126222152
% es.tEy (V/m) @ t=0.12
0
% es.tEz (V/m) @ t=0.12
-0.8739258759120432
% V (V) @ t=0.12
0.008923900182508531
% es.normE (V/m) @ t=0.14
1.9850597711805524
% es.EX (V/m) @ t=0.14
1.7770449299894318
% es.EY (V/m) @ t=0.14
0.0683724816788934
% es.EZ (V/m) @ t=0.14
-0.881985692995815
% es.tEX (V/m) @ t=0.14
1.777044929989425
% es.tEY (V/m) @ t=0.14
0
% es.tEZ (V/m) @ t=0.14
-0.8819856929957979
% es.Ex (V/m) @ t=0.14
1.7770449299894318
% es.Ey (V/m) @ t=0.14
0.0683724816788934
% es.Ez (V/m) @ t=0.14
-0.881985692995815
% es.tEx (V/m) @ t=0.14
1.777044929989425
% es.tEy (V/m) @ t=0.14
0
% es.tEz (V/m) @ t=0.14
-0.8819856929957979
% V (V) @ t=0.14
0.009006200858528234
% es.normE (V/m) @ t=0.16
2.003872332136865
% es.EX (V/m) @ t=0.16
1.793886129182737
% es.EY (V/m) @ t=0.16
0.06902053413689319
% es.EZ (V/m) @ t=0.16
-0.8903443102642767
% es.tEX (V/m) @ t=0.16
1.793886129182729
% es.tEY (V/m) @ t=0.16
0
% es.tEZ (V/m) @ t=0.16
-0.8903443102642683
% es.Ex (V/m) @ t=0.16
1.793886129182737
% es.Ey (V/m) @ t=0.16
0.06902053413689319
% es.Ez (V/m) @ t=0.16
-0.8903443102642767
% es.tEx (V/m) @ t=0.16
1.793886129182729
% es.tEy (V/m) @ t=0.16
0
% es.tEz (V/m) @ t=0.16
-0.8903443102642683
% V (V) @ t=0.16
0.009091551313226939
% es.normE (V/m) @ t=0.18
2.0226848930931487
% es.EX (V/m) @ t=0.18
1.8107273283760172
% es.EY (V/m) @ t=0.18
0.06966858659490985
% es.EZ (V/m) @ t=0.18
-0.8987029275327154
% es.tEX (V/m) @ t=0.18
1.8107273283760197
% es.tEY (V/m) @ t=0.18
0
% es.tEZ (V/m) @ t=0.18
-0.8987029275326961
% es.Ex (V/m) @ t=0.18
1.8107273283760172
% es.Ey (V/m) @ t=0.18
0.06966858659490985
% es.Ez (V/m) @ t=0.18
-0.8987029275327154
% es.tEx (V/m) @ t=0.18
1.8107273283760197
% es.tEy (V/m) @ t=0.18
0
% es.tEz (V/m) @ t=0.18
-0.8987029275326961
% V (V) @ t=0.18
0.009176901767925644
% es.normE (V/m) @ t=0.2
2.0414974540494706
% es.EX (V/m) @ t=0.2
1.827568527569326
% es.EY (V/m) @ t=0.2
0.07031663905290653
% es.EZ (V/m) @ t=0.2
-0.9070615448011737
% es.tEX (V/m) @ t=0.2
1.8275685275693307
% es.tEY (V/m) @ t=0.2
0
% es.tEZ (V/m) @ t=0.2
-0.9070615448011736
% es.Ex (V/m) @ t=0.2
1.827568527569326
% es.Ey (V/m) @ t=0.2
0.07031663905290653
% es.Ez (V/m) @ t=0.2
-0.9070615448011737
% es.tEx (V/m) @ t=0.2
1.8275685275693307
% es.tEy (V/m) @ t=0.2
0
% es.tEz (V/m) @ t=0.2
-0.9070615448011736
% V (V) @ t=0.2
0.00926225222262435
% es.normE (V/m) @ t=0.22
2.0603100150057934
% es.EX (V/m) @ t=0.22
1.8444097267626351
% es.EY (V/m) @ t=0.22
0.07096469151092136
% es.EZ (V/m) @ t=0.22
-0.9154201620696248
% es.tEX (V/m) @ t=0.22
1.8444097267626285
% es.tEY (V/m) @ t=0.22
0
% es.tEZ (V/m) @ t=0.22
-0.9154201620696227
% es.Ex (V/m) @ t=0.22
1.8444097267626351
% es.Ey (V/m) @ t=0.22
0.07096469151092136
% es.Ez (V/m) @ t=0.22
-0.9154201620696248
% es.tEx (V/m) @ t=0.22
1.8444097267626285
% es.tEy (V/m) @ t=0.22
0
% es.tEz (V/m) @ t=0.22
-0.9154201620696227
% V (V) @ t=0.22
0.009347602677323055
% es.normE (V/m) @ t=0.24
2.0791225759621055
% es.EX (V/m) @ t=0.24
1.8612509259559336
% es.EY (V/m) @ t=0.24
0.07161274396891984
% es.EZ (V/m) @ t=0.24
-0.9237787793380672
% es.tEX (V/m) @ t=0.24
1.8612509259559396
% es.tEY (V/m) @ t=0.24
0
% es.tEZ (V/m) @ t=0.24
-0.9237787793380718
% es.Ex (V/m) @ t=0.24
1.8612509259559336
% es.Ey (V/m) @ t=0.24
0.07161274396891984
% es.Ez (V/m) @ t=0.24
-0.9237787793380672
% es.tEx (V/m) @ t=0.24
1.8612509259559396
% es.tEy (V/m) @ t=0.24
0
% es.tEz (V/m) @ t=0.24
-0.9237787793380718
% V (V) @ t=0.24
0.00943295313202176
% es.normE (V/m) @ t=0.26
2.0979351369184416
% es.EX (V/m) @ t=0.26
1.8780921251492388
% es.EY (V/m) @ t=0.26
0.07226079642693073
% es.EZ (V/m) @ t=0.26
-0.9321373966065414
% es.tEX (V/m) @ t=0.26
1.8780921251492364
% es.tEY (V/m) @ t=0.26
0
% es.tEZ (V/m) @ t=0.26
-0.932137396606521
% es.Ex (V/m) @ t=0.26
1.8780921251492388
% es.Ey (V/m) @ t=0.26
0.07226079642693073
% es.Ez (V/m) @ t=0.26
-0.9321373966065414
% es.tEx (V/m) @ t=0.26
1.8780921251492364
% es.tEy (V/m) @ t=0.26
0
% es.tEz (V/m) @ t=0.26
-0.932137396606521
% V (V) @ t=0.26
0.009518303586720466
% es.normE (V/m) @ t=0.28
2.1179690697062057
% es.EX (V/m) @ t=0.28
1.8960266029663688
% es.EY (V/m) @ t=0.28
0.07295010596601553
% es.EZ (V/m) @ t=0.28
-0.9410389592047863
% es.tEX (V/m) @ t=0.28
1.8960266029663568
% es.tEY (V/m) @ t=0.28
0
% es.tEZ (V/m) @ t=0.28
-0.941038959204775
% es.Ex (V/m) @ t=0.28
1.8960266029663688
% es.Ey (V/m) @ t=0.28
0.07295010596601553
% es.Ez (V/m) @ t=0.28
-0.9410389592047863
% es.tEx (V/m) @ t=0.28
1.8960266029663568
% es.tEy (V/m) @ t=0.28
0
% es.tEz (V/m) @ t=0.28
-0.941038959204775
% V (V) @ t=0.28
0.00960921525815903
% es.normE (V/m) @ t=0.3
2.1388938620647857
% es.EX (V/m) @ t=0.3
1.914758510116398
% es.EY (V/m) @ t=0.3
0.07366950811454984
% es.EZ (V/m) @ t=0.3
-0.9503365421062864
% es.tEX (V/m) @ t=0.3
1.914758510116381
% es.tEY (V/m) @ t=0.3
0
% es.tEZ (V/m) @ t=0.3
-0.9503365421062853
% es.Ex (V/m) @ t=0.3
1.914758510116398
% es.Ey (V/m) @ t=0.3
0.07366950811454984
% es.Ez (V/m) @ t=0.3
-0.9503365421062864
% es.tEx (V/m) @ t=0.3
1.914758510116381
% es.tEy (V/m) @ t=0.3
0
% es.tEz (V/m) @ t=0.3
-0.9503365421062853
% V (V) @ t=0.3
0.009704183239908959
% es.normE (V/m) @ t=0.32
2.159818654424321
% es.EX (V/m) @ t=0.32
1.933490417266428
% es.EY (V/m) @ t=0.32
0.07438891026308245
% es.EZ (V/m) @ t=0.32
-0.9596341250078112
% es.tEX (V/m) @ t=0.32
1.9334904172664205
% es.tEY (V/m) @ t=0.32
0
% es.tEZ (V/m) @ t=0.32
-0.9596341250078098
% es.Ex (V/m) @ t=0.32
1.933490417266428
% es.Ey (V/m) @ t=0.32
0.07438891026308245
% es.Ez (V/m) @ t=0.32
-0.9596341250078112
% es.tEx (V/m) @ t=0.32
1.9334904172664205
% es.tEy (V/m) @ t=0.32
0
% es.tEz (V/m) @ t=0.32
-0.9596341250078098
% V (V) @ t=0.32
0.009799151221658886
% es.normE (V/m) @ t=0.34
2.1807434467847404
% es.EX (V/m) @ t=0.34
1.9522223244164394
% es.EY (V/m) @ t=0.34
0.0751083124115848
% es.EZ (V/m) @ t=0.34
-0.968931707909304
% es.tEX (V/m) @ t=0.34
1.9522223244164376
% es.tEY (V/m) @ t=0.34
0
% es.tEZ (V/m) @ t=0.34
-0.9689317079092987
% es.Ex (V/m) @ t=0.34
1.9522223244164394
% es.Ey (V/m) @ t=0.34
0.0751083124115848
% es.Ez (V/m) @ t=0.34
-0.968931707909304
% es.tEx (V/m) @ t=0.34
1.9522223244164376
% es.tEy (V/m) @ t=0.34
0
% es.tEz (V/m) @ t=0.34
-0.9689317079092987
% V (V) @ t=0.34
0.009894119203408817
% es.normE (V/m) @ t=0.36
2.201668239146101
% es.EX (V/m) @ t=0.36
1.9709542315664867
% es.EY (V/m) @ t=0.36
0.07582771456013518
% es.EZ (V/m) @ t=0.36
-0.9782292908108361
% es.tEX (V/m) @ t=0.36
1.9709542315664779
% es.tEY (V/m) @ t=0.36
0
% es.tEZ (V/m) @ t=0.36
-0.9782292908108232
% es.Ex (V/m) @ t=0.36
1.9709542315664867
% es.Ey (V/m) @ t=0.36
0.07582771456013518
% es.Ez (V/m) @ t=0.36
-0.9782292908108361
% es.tEx (V/m) @ t=0.36
1.9709542315664779
% es.tEy (V/m) @ t=0.36
0
% es.tEz (V/m) @ t=0.36
-0.9782292908108232
% V (V) @ t=0.36
0.009989087185158745
% es.normE (V/m) @ t=0.38
2.2225930315082874
% es.EX (V/m) @ t=0.38
1.9896861387165061
% es.EY (V/m) @ t=0.38
0.07654711670865438
% es.EZ (V/m) @ t=0.38
-0.9875268737123396
% es.tEX (V/m) @ t=0.38
1.989686138716503
% es.tEY (V/m) @ t=0.38
0
% es.tEZ (V/m) @ t=0.38
-0.9875268737123264
% es.Ex (V/m) @ t=0.38
1.9896861387165061
% es.Ey (V/m) @ t=0.38
0.07654711670865438
% es.Ez (V/m) @ t=0.38
-0.9875268737123396
% es.tEx (V/m) @ t=0.38
1.989686138716503
% es.tEy (V/m) @ t=0.38
0
% es.tEz (V/m) @ t=0.38
-0.9875268737123264
% V (V) @ t=0.38
0.010084055166908672
% es.normE (V/m) @ t=0.4
2.243517823871314
% es.EX (V/m) @ t=0.4
2.0084180458665246
% es.EY (V/m) @ t=0.4
0.07726651885716926
% es.EZ (V/m) @ t=0.4
-0.9968244566138432
% es.tEX (V/m) @ t=0.4
2.0084180458665273
% es.tEY (V/m) @ t=0.4
0
% es.tEZ (V/m) @ t=0.4
-0.9968244566138367
% es.Ex (V/m) @ t=0.4
2.0084180458665246
% es.Ey (V/m) @ t=0.4
0.07726651885716926
% es.Ez (V/m) @ t=0.4
-0.9968244566138432
% es.tEx (V/m) @ t=0.4
2.0084180458665273
% es.tEy (V/m) @ t=0.4
0
% es.tEz (V/m) @ t=0.4
-0.9968244566138367
% V (V) @ t=0.4
0.010179023148658602
% es.normE (V/m) @ t=0.42
2.2644426162351716
% es.EX (V/m) @ t=0.42
2.0271499530165578
% es.EY (V/m) @ t=0.42
0.07798592100571244
% es.EZ (V/m) @ t=0.42
-1.0061220395153467
% es.tEX (V/m) @ t=0.42
2.0271499530165604
% es.tEY (V/m) @ t=0.42
0
% es.tEZ (V/m) @ t=0.42
-1.006122039515347
% es.Ex (V/m) @ t=0.42
2.0271499530165578
% es.Ey (V/m) @ t=0.42
0.07798592100571244
% es.Ez (V/m) @ t=0.42
-1.0061220395153467
% es.tEx (V/m) @ t=0.42
2.0271499530165604
% es.tEy (V/m) @ t=0.42
0
% es.tEz (V/m) @ t=0.42
-1.006122039515347
% V (V) @ t=0.42
0.010273991130408531
% es.normE (V/m) @ t=0.44
2.2853674085998223
% es.EX (V/m) @ t=0.44
2.0458818601665874
% es.EY (V/m) @ t=0.44
0.07870532315423262
% es.EZ (V/m) @ t=0.44
-1.015419622416854
% es.tEX (V/m) @ t=0.44
2.0458818601665856
% es.tEY (V/m) @ t=0.44
0
% es.tEZ (V/m) @ t=0.44
-1.0154196224168572
% es.Ex (V/m) @ t=0.44
2.0458818601665874
% es.Ey (V/m) @ t=0.44
0.07870532315423262
% es.Ez (V/m) @ t=0.44
-1.015419622416854
% es.tEx (V/m) @ t=0.44
2.0458818601665856
% es.tEy (V/m) @ t=0.44
0
% es.tEz (V/m) @ t=0.44
-1.0154196224168572
% V (V) @ t=0.44
0.01036895911215846
% es.normE (V/m) @ t=0.46
2.3062922009652427
% es.EX (V/m) @ t=0.46
2.0646137673166134
% es.EY (V/m) @ t=0.46
0.07942472530275543
% es.EZ (V/m) @ t=0.46
-1.0247172053183609
% es.tEX (V/m) @ t=0.46
2.06461376731661
% es.tEY (V/m) @ t=0.46
0
% es.tEZ (V/m) @ t=0.46
-1.0247172053183533
% es.Ex (V/m) @ t=0.46
2.0646137673166134
% es.Ey (V/m) @ t=0.46
0.07942472530275543
% es.Ez (V/m) @ t=0.46
-1.0247172053183609
% es.tEx (V/m) @ t=0.46
2.06461376731661
% es.tEy (V/m) @ t=0.46
0
% es.tEz (V/m) @ t=0.46
-1.0247172053183533
% V (V) @ t=0.46
0.010463927093908388
% es.normE (V/m) @ t=0.48
2.3272169933314206
% es.EX (V/m) @ t=0.48
2.0833456744666354
% es.EY (V/m) @ t=0.48
0.08014412745128888
% es.EZ (V/m) @ t=0.48
-1.0340147882198858
% es.tEX (V/m) @ t=0.48
2.083345674466634
% es.tEY (V/m) @ t=0.48
0
% es.tEZ (V/m) @ t=0.48
-1.0340147882198778
% es.Ex (V/m) @ t=0.48
2.0833456744666354
% es.Ey (V/m) @ t=0.48
0.08014412745128888
% es.Ez (V/m) @ t=0.48
-1.0340147882198858
% es.tEx (V/m) @ t=0.48
2.083345674466634
% es.tEy (V/m) @ t=0.48
0
% es.tEz (V/m) @ t=0.48
-1.0340147882198778
% V (V) @ t=0.48
0.010558895075658315
% es.normE (V/m) @ t=0.5
2.34814178569834
% es.EX (V/m) @ t=0.5
2.1020775816166757
% es.EY (V/m) @ t=0.5
0.08086352959981521
% es.EZ (V/m) @ t=0.5
-1.0433123711213965
% es.tEX (V/m) @ t=0.5
2.1020775816166744
% es.tEY (V/m) @ t=0.5
0
% es.tEZ (V/m) @ t=0.5
-1.043312371121381
% es.Ex (V/m) @ t=0.5
2.1020775816166757
% es.Ey (V/m) @ t=0.5
0.08086352959981521
% es.Ez (V/m) @ t=0.5
-1.0433123711213965
% es.tEx (V/m) @ t=0.5
2.1020775816166744
% es.tEy (V/m) @ t=0.5
0
% es.tEz (V/m) @ t=0.5
-1.043312371121381
% V (V) @ t=0.5
0.010653863057408246
% es.normE (V/m) @ t=0.52
2.3690665780659526
% es.EX (V/m) @ t=0.52
2.1208094887666986
% es.EY (V/m) @ t=0.52
0.0815829317483345
% es.EZ (V/m) @ t=0.52
-1.0526099540228966
% es.tEX (V/m) @ t=0.52
2.1208094887666853
% es.tEY (V/m) @ t=0.52
0
% es.tEZ (V/m) @ t=0.52
-1.0526099540228913
% es.Ex (V/m) @ t=0.52
2.1208094887666986
% es.Ey (V/m) @ t=0.52
0.0815829317483345
% es.Ez (V/m) @ t=0.52
-1.0526099540228966
% es.tEx (V/m) @ t=0.52
2.1208094887666853
% es.tEy (V/m) @ t=0.52
0
% es.tEz (V/m) @ t=0.52
-1.0526099540228913
% V (V) @ t=0.52
0.010748831039158174
% es.normE (V/m) @ t=0.54
2.3903870467408472
% es.EX (V/m) @ t=0.54
2.1398957188643024
% es.EY (V/m) @ t=0.54
0.08231680618776377
% es.EZ (V/m) @ t=0.54
-1.0620830542552904
% es.tEX (V/m) @ t=0.54
2.139895718864297
% es.tEY (V/m) @ t=0.54
0
% es.tEZ (V/m) @ t=0.54
-1.0620830542552966
% es.Ex (V/m) @ t=0.54
2.1398957188643024
% es.Ey (V/m) @ t=0.54
0.08231680618776377
% es.Ez (V/m) @ t=0.54
-1.0620830542552904
% es.tEx (V/m) @ t=0.54
2.139895718864297
% es.tEy (V/m) @ t=0.54
0
% es.tEz (V/m) @ t=0.54
-1.0620830542552966
% V (V) @ t=0.54
0.010845573544724103
% es.normE (V/m) @ t=0.56
2.413691151407446
% es.EX (V/m) @ t=0.56
2.160758268994606
% es.EY (V/m) @ t=0.56
0.08312323426901266
% es.EZ (V/m) @ t=0.56
-1.072436071955852
% es.tEX (V/m) @ t=0.56
2.160758268994609
% es.tEY (V/m) @ t=0.56
0
% es.tEZ (V/m) @ t=0.56
-1.072436071955856
% es.Ex (V/m) @ t=0.56
2.160758268994606
% es.Ey (V/m) @ t=0.56
0.08312323426901266
% es.Ez (V/m) @ t=0.56
-1.072436071955852
% es.tEx (V/m) @ t=0.56
2.160758268994609
% es.tEy (V/m) @ t=0.56
0
% es.tEz (V/m) @ t=0.56
-1.072436071955856
% V (V) @ t=0.56
0.010951212234475715
% es.normE (V/m) @ t=0.58
2.436995256081384
% es.EX (V/m) @ t=0.58
2.1816208191248916
% es.EY (V/m) @ t=0.58
0.08392966235025356
% es.EZ (V/m) @ t=0.58
-1.08278908965641
% es.tEX (V/m) @ t=0.58
2.181620819124901
% es.tEY (V/m) @ t=0.58
0
% es.tEZ (V/m) @ t=0.58
-1.0827890896564156
% es.Ex (V/m) @ t=0.58
2.1816208191248916
% es.Ey (V/m) @ t=0.58
0.08392966235025356
% es.Ez (V/m) @ t=0.58
-1.08278908965641
% es.tEx (V/m) @ t=0.58
2.181620819124901
% es.tEy (V/m) @ t=0.58
0
% es.tEz (V/m) @ t=0.58
-1.0827890896564156
% V (V) @ t=0.58
0.011056850924227321
% es.normE (V/m) @ t=0.6
2.460299360762491
% es.EX (V/m) @ t=0.6
2.202483369255207
% es.EY (V/m) @ t=0.6
0.08473609043146874
% es.EZ (V/m) @ t=0.6
-1.0931421073569538
% es.tEX (V/m) @ t=0.6
2.2024833692552006
% es.tEY (V/m) @ t=0.6
0
% es.tEZ (V/m) @ t=0.6
-1.0931421073569467
% es.Ex (V/m) @ t=0.6
2.202483369255207
% es.Ey (V/m) @ t=0.6
0.08473609043146874
% es.Ez (V/m) @ t=0.6
-1.0931421073569538
% es.tEx (V/m) @ t=0.6
2.2024833692552006
% es.tEy (V/m) @ t=0.6
0
% es.tEz (V/m) @ t=0.6
-1.0931421073569467
% V (V) @ t=0.6
0.01116248961397893
% es.normE (V/m) @ t=0.62
2.483603465450544
% es.EX (V/m) @ t=0.62
2.22334591938551
% es.EY (V/m) @ t=0.62
0.08554251851273989
% es.EZ (V/m) @ t=0.62
-1.1034951250575156
% es.tEX (V/m) @ t=0.62
2.2233459193854994
% es.tEY (V/m) @ t=0.62
0
% es.tEZ (V/m) @ t=0.62
-1.1034951250575133
% es.Ex (V/m) @ t=0.62
2.22334591938551
% es.Ey (V/m) @ t=0.62
0.08554251851273989
% es.Ez (V/m) @ t=0.62
-1.1034951250575156
% es.tEx (V/m) @ t=0.62
2.2233459193854994
% es.tEy (V/m) @ t=0.62
0
% es.tEz (V/m) @ t=0.62
-1.1034951250575133
% V (V) @ t=0.62
0.01126812830373054
% es.normE (V/m) @ t=0.64
2.506907570145323
% es.EX (V/m) @ t=0.64
2.244208469515788
% es.EY (V/m) @ t=0.64
0.08634894659396569
% es.EZ (V/m) @ t=0.64
-1.1138481427580702
% es.tEX (V/m) @ t=0.64
2.2442084695157893
% es.tEY (V/m) @ t=0.64
0
% es.tEZ (V/m) @ t=0.64
-1.11384814275808
% es.Ex (V/m) @ t=0.64
2.244208469515788
% es.Ey (V/m) @ t=0.64
0.08634894659396569
% es.Ez (V/m) @ t=0.64
-1.1138481427580702
% es.tEx (V/m) @ t=0.64
2.2442084695157893
% es.tEy (V/m) @ t=0.64
0
% es.tEz (V/m) @ t=0.64
-1.11384814275808
% V (V) @ t=0.64
0.011373766993482148
% es.normE (V/m) @ t=0.66
2.530211674846731
% es.EX (V/m) @ t=0.66
2.2650710196461126
% es.EY (V/m) @ t=0.66
0.08715537467522438
% es.EZ (V/m) @ t=0.66
-1.1242011604586672
% es.tEX (V/m) @ t=0.66
2.2650710196461086
% es.tEY (V/m) @ t=0.66
0
% es.tEZ (V/m) @ t=0.66
-1.1242011604586395
% es.Ex (V/m) @ t=0.66
2.2650710196461126
% es.Ey (V/m) @ t=0.66
0.08715537467522438
% es.Ez (V/m) @ t=0.66
-1.1242011604586672
% es.tEx (V/m) @ t=0.66
2.2650710196461086
% es.tEy (V/m) @ t=0.66
0
% es.tEz (V/m) @ t=0.66
-1.1242011604586395
% V (V) @ t=0.66
0.011479405683233758
% es.normE (V/m) @ t=0.68
2.553515779554478
% es.EX (V/m) @ t=0.68
2.2859335697764136
% es.EY (V/m) @ t=0.68
0.08796180275646798
% es.EZ (V/m) @ t=0.68
-1.134554178159204
% es.tEX (V/m) @ t=0.68
2.285933569776409
% es.tEY (V/m) @ t=0.68
0
% es.tEZ (V/m) @ t=0.68
-1.134554178159192
% es.Ex (V/m) @ t=0.68
2.2859335697764136
% es.Ey (V/m) @ t=0.68
0.08796180275646798
% es.Ez (V/m) @ t=0.68
-1.134554178159204
% es.tEx (V/m) @ t=0.68
2.285933569776409
% es.tEy (V/m) @ t=0.68
0
% es.tEz (V/m) @ t=0.68
-1.134554178159192
% V (V) @ t=0.68
0.011585044372985364
% es.normE (V/m) @ t=0.7
2.576819884268433
% es.EX (V/m) @ t=0.7
2.3067961199067026
% es.EY (V/m) @ t=0.7
0.08876823083770086
% es.EZ (V/m) @ t=0.7
-1.144907195859755
% es.tEX (V/m) @ t=0.7
2.3067961199067
% es.tEY (V/m) @ t=0.7
0
% es.tEZ (V/m) @ t=0.7
-1.14490719585973
% es.Ex (V/m) @ t=0.7
2.3067961199067026
% es.Ey (V/m) @ t=0.7
0.08876823083770086
% es.Ez (V/m) @ t=0.7
-1.144907195859755
% es.tEx (V/m) @ t=0.7
2.3067961199067
% es.tEy (V/m) @ t=0.7
0
% es.tEz (V/m) @ t=0.7
-1.14490719585973
% V (V) @ t=0.7
0.011690683062736974
% es.normE (V/m) @ t=0.72
2.60012398898846
% es.EX (V/m) @ t=0.72
2.3276586700370094
% es.EY (V/m) @ t=0.72
0.08957465891894179
% es.EZ (V/m) @ t=0.72
-1.1552602135603236
% es.tEX (V/m) @ t=0.72
2.327658670037013
% es.tEY (V/m) @ t=0.72
0
% es.tEZ (V/m) @ t=0.72
-1.155260213560311
% es.Ex (V/m) @ t=0.72
2.3276586700370094
% es.Ey (V/m) @ t=0.72
0.08957465891894179
% es.Ez (V/m) @ t=0.72
-1.1552602135603236
% es.tEx (V/m) @ t=0.72
2.327658670037013
% es.tEy (V/m) @ t=0.72
0
% es.tEz (V/m) @ t=0.72
-1.155260213560311
% V (V) @ t=0.72
0.011796321752488584
% es.normE (V/m) @ t=0.74
2.623428093714364
% es.EX (V/m) @ t=0.74
2.3485212201673136
% es.EY (V/m) @ t=0.74
0.09038108700018543
% es.EZ (V/m) @ t=0.74
-1.165613231260878
% es.tEX (V/m) @ t=0.74
2.348521220167312
% es.tEY (V/m) @ t=0.74
0
% es.tEZ (V/m) @ t=0.74
-1.1656132312608634
% es.Ex (V/m) @ t=0.74
2.3485212201673136
% es.Ey (V/m) @ t=0.74
0.09038108700018543
% es.Ez (V/m) @ t=0.74
-1.165613231260878
% es.tEx (V/m) @ t=0.74
2.348521220167312
% es.tEy (V/m) @ t=0.74
0
% es.tEz (V/m) @ t=0.74
-1.1656132312608634
% V (V) @ t=0.74
0.011901960442240192
% es.normE (V/m) @ t=0.76
2.646732198446
% es.EX (V/m) @ t=0.76
2.369383770297617
% es.EY (V/m) @ t=0.76
0.09118751508142453
% es.EZ (V/m) @ t=0.76
-1.1759662489614398
% es.tEX (V/m) @ t=0.76
2.3693837702976177
% es.tEY (V/m) @ t=0.76
0
% es.tEZ (V/m) @ t=0.76
-1.1759662489614229
% es.Ex (V/m) @ t=0.76
2.369383770297617
% es.Ey (V/m) @ t=0.76
0.09118751508142453
% es.Ez (V/m) @ t=0.76
-1.1759662489614398
% es.tEx (V/m) @ t=0.76
2.3693837702976177
% es.tEy (V/m) @ t=0.76
0
% es.tEz (V/m) @ t=0.76
-1.1759662489614229
% V (V) @ t=0.76
0.012007599131991802
% es.normE (V/m) @ t=0.78
2.6700363031831866
% es.EX (V/m) @ t=0.78
2.3902463204278988
% es.EY (V/m) @ t=0.78
0.09199394316266457
% es.EZ (V/m) @ t=0.78
-1.1863192666619766
% es.tEX (V/m) @ t=0.78
2.3902463204278943
% es.tEY (V/m) @ t=0.78
0
% es.tEZ (V/m) @ t=0.78
-1.1863192666619682
% es.Ex (V/m) @ t=0.78
2.3902463204278988
% es.Ey (V/m) @ t=0.78
0.09199394316266457
% es.Ez (V/m) @ t=0.78
-1.1863192666619766
% es.tEx (V/m) @ t=0.78
2.3902463204278943
% es.tEy (V/m) @ t=0.78
0
% es.tEz (V/m) @ t=0.78
-1.1863192666619682
% V (V) @ t=0.78
0.012113237821743408
% es.normE (V/m) @ t=0.8
2.6933404079258514
% es.EX (V/m) @ t=0.8
2.411108870558213
% es.EY (V/m) @ t=0.8
0.09280037124390195
% es.EZ (V/m) @ t=0.8
-1.1966722843625452
% es.tEX (V/m) @ t=0.8
2.4111088705582144
% es.tEY (V/m) @ t=0.8
0
% es.tEZ (V/m) @ t=0.8
-1.196672284362549
% es.Ex (V/m) @ t=0.8
2.411108870558213
% es.Ey (V/m) @ t=0.8
0.09280037124390195
% es.Ez (V/m) @ t=0.8
-1.1966722843625452
% es.tEx (V/m) @ t=0.8
2.4111088705582144
% es.tEy (V/m) @ t=0.8
0
% es.tEz (V/m) @ t=0.8
-1.196672284362549
% V (V) @ t=0.8
0.012218876511495018
% es.normE (V/m) @ t=0.82
2.7186920382687094
% es.EX (V/m) @ t=0.82
2.4338038471419745
% es.EY (V/m) @ t=0.82
0.09367317909693312
% es.EZ (V/m) @ t=0.82
-1.2079364486801003
% es.tEX (V/m) @ t=0.82
2.4338038471419754
% es.tEY (V/m) @ t=0.82
0
% es.tEZ (V/m) @ t=0.82
-1.2079364486801012
% es.Ex (V/m) @ t=0.82
2.4338038471419745
% es.Ey (V/m) @ t=0.82
0.09367317909693312
% es.Ez (V/m) @ t=0.82
-1.2079364486801003
% es.tEx (V/m) @ t=0.82
2.4338038471419754
% es.tEy (V/m) @ t=0.82
0
% es.tEz (V/m) @ t=0.82
-1.2079364486801012
% V (V) @ t=0.82
0.012333906255455294
% es.normE (V/m) @ t=0.84
2.7447104000710443
% es.EX (V/m) @ t=0.84
2.457095512901497
% es.EY (V/m) @ t=0.84
0.09456760205556558
% es.EZ (V/m) @ t=0.84
-1.2194973077560847
% es.tEX (V/m) @ t=0.84
2.4570955129014918
% es.tEY (V/m) @ t=0.84
0
% es.tEZ (V/m) @ t=0.84
-1.2194973077560647
% es.Ex (V/m) @ t=0.84
2.457095512901497
% es.Ey (V/m) @ t=0.84
0.09456760205556558
% es.Ez (V/m) @ t=0.84
-1.2194973077560847
% es.tEx (V/m) @ t=0.84
2.4570955129014918
% es.tEy (V/m) @ t=0.84
0
% es.tEz (V/m) @ t=0.84
-1.2194973077560647
% V (V) @ t=0.84
0.012451993988665176
% es.normE (V/m) @ t=0.86
2.770728761875138
% es.EX (V/m) @ t=0.86
2.4803871786610188
% es.EY (V/m) @ t=0.86
0.09546202501422107
% es.EZ (V/m) @ t=0.86
-1.231058166832048
% es.tEX (V/m) @ t=0.86
2.4803871786610143
% es.tEY (V/m) @ t=0.86
0
% es.tEZ (V/m) @ t=0.86
-1.2310581668320424
% es.Ex (V/m) @ t=0.86
2.4803871786610188
% es.Ey (V/m) @ t=0.86
0.09546202501422107
% es.Ez (V/m) @ t=0.86
-1.231058166832048
% es.tEx (V/m) @ t=0.86
2.4803871786610143
% es.tEy (V/m) @ t=0.86
0
% es.tEz (V/m) @ t=0.86
-1.2310581668320424
% V (V) @ t=0.86
0.012570081721875057
% es.normE (V/m) @ t=0.88
2.7967471236809467
% es.EX (V/m) @ t=0.88
2.503678844420537
% es.EY (V/m) @ t=0.88
0.09635644797283932
% es.EZ (V/m) @ t=0.88
-1.2426190259080112
% es.tEX (V/m) @ t=0.88
2.503678844420538
% es.tEY (V/m) @ t=0.88
0
% es.tEZ (V/m) @ t=0.88
-1.24261902590802
% es.Ex (V/m) @ t=0.88
2.503678844420537
% es.Ey (V/m) @ t=0.88
0.09635644797283932
% es.Ez (V/m) @ t=0.88
-1.2426190259080112
% es.tEx (V/m) @ t=0.88
2.503678844420538
% es.tEy (V/m) @ t=0.88
0
% es.tEz (V/m) @ t=0.88
-1.24261902590802
% V (V) @ t=0.88
0.012688169455084936
% es.normE (V/m) @ t=0.9
2.822765485488443
% es.EX (V/m) @ t=0.9
2.5269705101800635
% es.EY (V/m) @ t=0.9
0.09725087093149137
% es.EZ (V/m) @ t=0.9
-1.2541798849839922
% es.tEX (V/m) @ t=0.9
2.526970510180062
% es.tEY (V/m) @ t=0.9
0
% es.tEZ (V/m) @ t=0.9
-1.2541798849839836
% es.Ex (V/m) @ t=0.9
2.5269705101800635
% es.Ey (V/m) @ t=0.9
0.09725087093149137
% es.Ez (V/m) @ t=0.9
-1.2541798849839922
% es.tEx (V/m) @ t=0.9
2.526970510180062
% es.tEy (V/m) @ t=0.9
0
% es.tEz (V/m) @ t=0.9
-1.2541798849839836
% V (V) @ t=0.9
0.012806257188294817
% es.normE (V/m) @ t=0.92
2.8487838472975238
% es.EX (V/m) @ t=0.92
2.5502621759395643
% es.EY (V/m) @ t=0.92
0.0981452938900963
% es.EZ (V/m) @ t=0.92
-1.2657407440599342
% es.tEX (V/m) @ t=0.92
2.5502621759395643
% es.tEY (V/m) @ t=0.92
0
% es.tEZ (V/m) @ t=0.92
-1.26574074405994
% es.Ex (V/m) @ t=0.92
2.5502621759395643
% es.Ey (V/m) @ t=0.92
0.0981452938900963
% es.Ez (V/m) @ t=0.92
-1.2657407440599342
% es.tEx (V/m) @ t=0.92
2.5502621759395643
% es.tEy (V/m) @ t=0.92
0
% es.tEz (V/m) @ t=0.92
-1.26574074405994
% V (V) @ t=0.92
0.012924344921504696
% es.normE (V/m) @ t=0.94
2.8748022091082204
% es.EX (V/m) @ t=0.94
2.5735538416990824
% es.EY (V/m) @ t=0.94
0.09903971684874474
% es.EZ (V/m) @ t=0.94
-1.277301603135915
% es.tEX (V/m) @ t=0.94
2.573553841699086
% es.tEY (V/m) @ t=0.94
0
% es.tEZ (V/m) @ t=0.94
-1.2773016031359106
% es.Ex (V/m) @ t=0.94
2.5735538416990824
% es.Ey (V/m) @ t=0.94
0.09903971684874474
% es.Ez (V/m) @ t=0.94
-1.277301603135915
% es.tEx (V/m) @ t=0.94
2.573553841699086
% es.tEy (V/m) @ t=0.94
0
% es.tEz (V/m) @ t=0.94
-1.2773016031359106
% V (V) @ t=0.94
0.013042432654714576
% es.normE (V/m) @ t=0.96
2.900820570920474
% es.EX (V/m) @ t=0.96
2.5968455074586236
% es.EY (V/m) @ t=0.96
0.09993413980737897
% es.EZ (V/m) @ t=0.96
-1.2888624622118927
% es.tEX (V/m) @ t=0.96
2.5968455074586183
% es.tEY (V/m) @ t=0.96
0
% es.tEZ (V/m) @ t=0.96
-1.288862462211874
% es.Ex (V/m) @ t=0.96
2.5968455074586236
% es.Ey (V/m) @ t=0.96
0.09993413980737897
% es.Ez (V/m) @ t=0.96
-1.2888624622118927
% es.tEx (V/m) @ t=0.96
2.5968455074586183
% es.tEy (V/m) @ t=0.96
0
% es.tEz (V/m) @ t=0.96
-1.288862462211874
% V (V) @ t=0.96
0.013160520387924458
% es.normE (V/m) @ t=0.98
2.9268389327342
% es.EX (V/m) @ t=0.98
2.6201371732181387
% es.EY (V/m) @ t=0.98
0.10082856276603092
% es.EZ (V/m) @ t=0.98
-1.3004233212878629
% es.tEX (V/m) @ t=0.98
2.6201371732181418
% es.tEY (V/m) @ t=0.98
0
% es.tEZ (V/m) @ t=0.98
-1.3004233212878447
% es.Ex (V/m) @ t=0.98
2.6201371732181387
% es.Ey (V/m) @ t=0.98
0.10082856276603092
% es.Ez (V/m) @ t=0.98
-1.3004233212878629
% es.tEx (V/m) @ t=0.98
2.6201371732181418
% es.tEy (V/m) @ t=0.98
0
% es.tEz (V/m) @ t=0.98
-1.3004233212878447
% V (V) @ t=0.98
0.013278608121134338
% es.normE (V/m) @ t=1
2.952857294549399
% es.EX (V/m) @ t=1
2.643428838977671
% es.EY (V/m) @ t=1
0.10172298572464383
% es.EZ (V/m) @ t=1
-1.3119841803638332
% es.tEX (V/m) @ t=1
2.6434288389776652
% es.tEY (V/m) @ t=1
0
% es.tEZ (V/m) @ t=1
-1.3119841803638224
% es.Ex (V/m) @ t=1
2.643428838977671
% es.Ey (V/m) @ t=1
0.10172298572464383
% es.Ez (V/m) @ t=1
-1.3119841803638332
% es.tEx (V/m) @ t=1
2.6434288389776652
% es.tEy (V/m) @ t=1
0
% es.tEz (V/m) @ t=1
-1.3119841803638224
% V (V) @ t=1
0.013396695854344219
% es.normE (V/m) @ t=1.02
2.9788756563660064
% es.EX (V/m) @ t=1.02
2.666720504737193
% es.EY (V/m) @ t=1.02
0.10261740868329589
% es.EZ (V/m) @ t=1.02
-1.3235450394397965
% es.tEX (V/m) @ t=1.02
2.6667205047371807
% es.tEY (V/m) @ t=1.02
0
% es.tEZ (V/m) @ t=1.02
-1.3235450394398072
% es.Ex (V/m) @ t=1.02
2.666720504737193
% es.Ey (V/m) @ t=1.02
0.10261740868329589
% es.Ez (V/m) @ t=1.02
-1.3235450394397965
% es.tEx (V/m) @ t=1.02
2.6667205047371807
% es.tEy (V/m) @ t=1.02
0
% es.tEz (V/m) @ t=1.02
-1.3235450394398072
% V (V) @ t=1.02
0.0135147835875541
% es.normE (V/m) @ t=1.04
3.0048940181840065
% es.EX (V/m) @ t=1.04
2.6900121704967157
% es.EY (V/m) @ t=1.04
0.10351183164191236
% es.EZ (V/m) @ t=1.04
-1.3351058985157809
% es.tEX (V/m) @ t=1.04
2.690012170496704
% es.tEY (V/m) @ t=1.04
0
% es.tEZ (V/m) @ t=1.04