% Model:              1 neuron.mph
% Version:            COMSOL 6.0.0.405
% Date:               Mar 16 2023, 17:52
% Dimension:          0
% Nodes:              14017
% Expressions:        14017
% Description:        Electric field norm, Electric field, X component, Electric field, Y component, Electric field, Z component, Tangential electric field, X component, Tangential electric field, Y component, Tangential electric field, Z component, Electric field, x component, Electric field, y component, Electric field, z component, Tangential electric field, x component, Tangential electric field, y component, Tangential electric field, z component, Electric potential
% Length unit:        mm
% x
1.66
% y
12.2
% z
1
% es.normE (V/m) @ t=0
2.0888268555156437
% es.EX (V/m) @ t=0
-0.7445353772770713
% es.EY (V/m) @ t=0
0.236535779227927
% es.EZ (V/m) @ t=0
1.9312441075841287
% es.tEX (V/m) @ t=0
-0.7445353772770784
% es.tEY (V/m) @ t=0
0
% es.tEZ (V/m) @ t=0
1.9312441075841278
% es.Ex (V/m) @ t=0
-0.7445353772770713
% es.Ey (V/m) @ t=0
0.236535779227927
% es.Ez (V/m) @ t=0
1.9312441075841287
% es.tEx (V/m) @ t=0
-0.7445353772770784
% es.tEy (V/m) @ t=0
0
% es.tEz (V/m) @ t=0
1.9312441075841278
% V (V) @ t=0
0.010170059425554247
% es.normE (V/m) @ t=0.02
1.8041583977905935
% es.EX (V/m) @ t=0.02
-0.6430689797234553
% es.EY (V/m) @ t=0.02
0.2043003270828092
% es.EZ (V/m) @ t=0.02
1.6680512628360287
% es.tEX (V/m) @ t=0.02
-0.6430689797234624
% es.tEY (V/m) @ t=0.02
0
% es.tEZ (V/m) @ t=0.02
1.6680512628360304
% es.Ex (V/m) @ t=0.02
-0.6430689797234553
% es.Ey (V/m) @ t=0.02
0.2043003270828092
% es.Ez (V/m) @ t=0.02
1.6680512628360287
% es.tEx (V/m) @ t=0.02
-0.6430689797234624
% es.tEy (V/m) @ t=0.02
0
% es.tEz (V/m) @ t=0.02
1.6680512628360304
% V (V) @ t=0.02
0.008784068243323178
% es.normE (V/m) @ t=0.04
1.820753157756745
% es.EX (V/m) @ t=0.04
-0.6489839678590467
% es.EY (V/m) @ t=0.04
0.20617949404237867
% es.EZ (V/m) @ t=0.04
1.6833941009616202
% es.tEX (V/m) @ t=0.04
-0.6489839678590538
% es.tEY (V/m) @ t=0.04
0
% es.tEZ (V/m) @ t=0.04
1.6833941009616202
% es.Ex (V/m) @ t=0.04
-0.6489839678590467
% es.Ey (V/m) @ t=0.04
0.20617949404237867
% es.Ez (V/m) @ t=0.04
1.6833941009616202
% es.tEx (V/m) @ t=0.04
-0.6489839678590538
% es.tEy (V/m) @ t=0.04
0
% es.tEz (V/m) @ t=0.04
1.6833941009616202
% V (V) @ t=0.04
0.008864864632399253
% es.normE (V/m) @ t=0.06
1.8374885225036697
% es.EX (V/m) @ t=0.06
-0.654949072263977
% es.EY (V/m) @ t=0.06
0.20807458356270958
% es.EZ (V/m) @ t=0.06
1.6988669367619451
% es.tEX (V/m) @ t=0.06
-0.6549490722639912
% es.tEY (V/m) @ t=0.06
0
% es.tEZ (V/m) @ t=0.06
1.6988669367619496
% es.Ex (V/m) @ t=0.06
-0.654949072263977
% es.Ey (V/m) @ t=0.06
0.20807458356270958
% es.Ez (V/m) @ t=0.06
1.6988669367619451
% es.tEx (V/m) @ t=0.06
-0.6549490722639912
% es.tEy (V/m) @ t=0.06
0
% es.tEz (V/m) @ t=0.06
1.6988669367619496
% V (V) @ t=0.06
0.008946345727498261
% es.normE (V/m) @ t=0.08
1.854500252619259
% es.EX (V/m) @ t=0.08
-0.661012683825533
% es.EY (V/m) @ t=0.08
0.21000096782809896
% es.EZ (V/m) @ t=0.08
1.714595288569401
% es.tEX (V/m) @ t=0.08
-0.6610126838255508
% es.tEY (V/m) @ t=0.08
0
% es.tEZ (V/m) @ t=0.08
1.7145952885694014
% es.Ex (V/m) @ t=0.08
-0.661012683825533
% es.Ey (V/m) @ t=0.08
0.21000096782809896
% es.Ez (V/m) @ t=0.08
1.714595288569401
% es.tEx (V/m) @ t=0.08
-0.6610126838255508
% es.tEy (V/m) @ t=0.08
0
% es.tEz (V/m) @ t=0.08
1.7145952885694014
% V (V) @ t=0.08
0.00902917229811556
% es.normE (V/m) @ t=0.1
1.8716605819280545
% es.EX (V/m) @ t=0.1
-0.6671292618064285
% es.EY (V/m) @ t=0.1
0.21194417899870488
% es.EZ (V/m) @ t=0.1
1.7304610290543585
% es.tEX (V/m) @ t=0.1
-0.6671292618064356
% es.tEY (V/m) @ t=0.1
0
% es.tEZ (V/m) @ t=0.1
1.7304610290543598
% es.Ex (V/m) @ t=0.1
-0.6671292618064285
% es.Ey (V/m) @ t=0.1
0.21194417899870488
% es.Ez (V/m) @ t=0.1
1.7304610290543585
% es.tEx (V/m) @ t=0.1
-0.6671292618064356
% es.tEy (V/m) @ t=0.1
0
% es.tEz (V/m) @ t=0.1
1.7304610290543598
% V (V) @ t=0.1
0.009112722318915644
% es.normE (V/m) @ t=0.12
1.888820911236846
% es.EX (V/m) @ t=0.12
-0.6732458397873168
% es.EY (V/m) @ t=0.12
0.21388739016932212
% es.EZ (V/m) @ t=0.12
1.7463267695393134
% es.tEX (V/m) @ t=0.12
-0.6732458397873345
% es.tEY (V/m) @ t=0.12
0
% es.tEZ (V/m) @ t=0.12
1.746326769539313
% es.Ex (V/m) @ t=0.12
-0.6732458397873168
% es.Ey (V/m) @ t=0.12
0.21388739016932212
% es.Ez (V/m) @ t=0.12
1.7463267695393134
% es.tEx (V/m) @ t=0.12
-0.6732458397873345
% es.tEy (V/m) @ t=0.12
0
% es.tEz (V/m) @ t=0.12
1.746326769539313
% V (V) @ t=0.12
0.009196272339715726
% es.normE (V/m) @ t=0.14
1.9062602080683837
% es.EX (V/m) @ t=0.14
-0.6794618528600258
% es.EY (V/m) @ t=0.14
0.2158621900644846
% es.EZ (V/m) @ t=0.14
1.7624504316763288
% es.tEX (V/m) @ t=0.14
-0.6794618528600329
% es.tEY (V/m) @ t=0.14
0
% es.tEZ (V/m) @ t=0.14
1.7624504316763332
% es.Ex (V/m) @ t=0.14
-0.6794618528600258
% es.Ey (V/m) @ t=0.14
0.2158621900644846
% es.Ez (V/m) @ t=0.14
1.7624504316763288
% es.tEx (V/m) @ t=0.14
-0.6794618528600329
% es.tEy (V/m) @ t=0.14
0
% es.tEz (V/m) @ t=0.14
1.7624504316763332
% V (V) @ t=0.14
0.009281180384384458
% es.normE (V/m) @ t=0.16
1.9243191681595317
% es.EX (V/m) @ t=0.16
-0.6858987385007048
% es.EY (V/m) @ t=0.16
0.2179071571670359
% es.EZ (V/m) @ t=0.16
1.779147008431007
% es.tEX (V/m) @ t=0.16
-0.685898738500719
% es.tEY (V/m) @ t=0.16
0
% es.tEZ (V/m) @ t=0.16
1.7791470084310106
% es.Ex (V/m) @ t=0.16
-0.6858987385007048
% es.Ey (V/m) @ t=0.16
0.2179071571670359
% es.Ez (V/m) @ t=0.16
1.779147008431007
% es.tEx (V/m) @ t=0.16
-0.685898738500719
% es.tEy (V/m) @ t=0.16
0
% es.tEz (V/m) @ t=0.16
1.7791470084310106
% V (V) @ t=0.16
0.009369104971942425
% es.normE (V/m) @ t=0.18
1.9423781282506773
% es.EX (V/m) @ t=0.18
-0.6923356241413768
% es.EY (V/m) @ t=0.18
0.21995212426958366
% es.EZ (V/m) @ t=0.18
1.7958435851856844
% es.tEX (V/m) @ t=0.18
-0.6923356241413839
% es.tEY (V/m) @ t=0.18
0
% es.tEZ (V/m) @ t=0.18
1.795843585185688
% es.Ex (V/m) @ t=0.18
-0.6923356241413768
% es.Ey (V/m) @ t=0.18
0.21995212426958366
% es.Ez (V/m) @ t=0.18
1.7958435851856844
% es.tEx (V/m) @ t=0.18
-0.6923356241413839
% es.tEy (V/m) @ t=0.18
0
% es.tEz (V/m) @ t=0.18
1.795843585185688
% V (V) @ t=0.18
0.009457029559500393
% es.normE (V/m) @ t=0.2
1.9604370883418205
% es.EX (V/m) @ t=0.2
-0.698772509782056
% es.EY (V/m) @ t=0.2
0.22199709137212698
% es.EZ (V/m) @ t=0.2
1.8125401619403583
% es.tEX (V/m) @ t=0.2
-0.6987725097820631
% es.tEY (V/m) @ t=0.2
0
% es.tEZ (V/m) @ t=0.2
1.8125401619403583
% es.Ex (V/m) @ t=0.2
-0.698772509782056
% es.Ey (V/m) @ t=0.2
0.22199709137212698
% es.Ez (V/m) @ t=0.2
1.8125401619403583
% es.tEx (V/m) @ t=0.2
-0.6987725097820631
% es.tEy (V/m) @ t=0.2
0
% es.tEz (V/m) @ t=0.2
1.8125401619403583
% V (V) @ t=0.2
0.009544954147058363
% es.normE (V/m) @ t=0.22
1.978496048432969
% es.EX (V/m) @ t=0.22
-0.7052093954227244
% es.EY (V/m) @ t=0.22
0.22404205847468384
% es.EZ (V/m) @ t=0.22
1.8292367386950392
% es.tEX (V/m) @ t=0.22
-0.7052093954227351
% es.tEY (V/m) @ t=0.22
0
% es.tEZ (V/m) @ t=0.22
1.8292367386950374
% es.Ex (V/m) @ t=0.22
-0.7052093954227244
% es.Ey (V/m) @ t=0.22
0.22404205847468384
% es.Ez (V/m) @ t=0.22
1.8292367386950392
% es.tEx (V/m) @ t=0.22
-0.7052093954227351
% es.tEy (V/m) @ t=0.22
0
% es.tEz (V/m) @ t=0.22
1.8292367386950374
% V (V) @ t=0.22
0.009632878734616332
% es.normE (V/m) @ t=0.24
1.9965550085241202
% es.EX (V/m) @ t=0.24
-0.7116462810634
% es.EY (V/m) @ t=0.24
0.22608702557724425
% es.EZ (V/m) @ t=0.24
1.8459333154497193
% es.tEX (V/m) @ t=0.24
-0.7116462810634071
% es.tEY (V/m) @ t=0.24
0
% es.tEZ (V/m) @ t=0.24
1.845933315449722
% es.Ex (V/m) @ t=0.24
-0.7116462810634
% es.Ey (V/m) @ t=0.24
0.22608702557724425
% es.Ez (V/m) @ t=0.24
1.8459333154497193
% es.tEx (V/m) @ t=0.24
-0.7116462810634071
% es.tEy (V/m) @ t=0.24
0
% es.tEz (V/m) @ t=0.24
1.845933315449722
% V (V) @ t=0.24
0.009720803322174301
% es.normE (V/m) @ t=0.26
2.0146139686152607
% es.EX (V/m) @ t=0.26
-0.718083166704065
% es.EY (V/m) @ t=0.26
0.22813199267978312
% es.EZ (V/m) @ t=0.26
1.862629892204395
% es.tEX (V/m) @ t=0.26
-0.7180831667040721
% es.tEY (V/m) @ t=0.26
0
% es.tEZ (V/m) @ t=0.26
1.862629892204394
% es.Ex (V/m) @ t=0.26
-0.718083166704065
% es.Ey (V/m) @ t=0.26
0.22813199267978312
% es.Ez (V/m) @ t=0.26
1.862629892204395
% es.tEx (V/m) @ t=0.26
-0.7180831667040721
% es.tEy (V/m) @ t=0.26
0
% es.tEz (V/m) @ t=0.26
1.862629892204394
% V (V) @ t=0.26
0.009808727909732268
% es.normE (V/m) @ t=0.28
2.03394474807736
% es.EX (V/m) @ t=0.28
-0.7249733820933278
% es.EY (V/m) @ t=0.28
0.23032096879418074
% es.EZ (V/m) @ t=0.28
1.880502338343808
% es.tEX (V/m) @ t=0.28
-0.7249733820933421
% es.tEY (V/m) @ t=0.28
0
% es.tEZ (V/m) @ t=0.28
1.8805023383438098
% es.Ex (V/m) @ t=0.28
-0.7249733820933278
% es.Ey (V/m) @ t=0.28
0.23032096879418074
% es.Ez (V/m) @ t=0.28
1.880502338343808
% es.tEx (V/m) @ t=0.28
-0.7249733820933421
% es.tEy (V/m) @ t=0.28
0
% es.tEz (V/m) @ t=0.28
1.8805023383438098
% V (V) @ t=0.28
0.009902842891968482
% es.normE (V/m) @ t=0.3
2.054020365263365
% es.EX (V/m) @ t=0.3
-0.7321290888769111
% es.EY (V/m) @ t=0.3
0.23259428341377286
% es.EZ (V/m) @ t=0.3
1.8990634293459525
% es.tEX (V/m) @ t=0.3
-0.7321290888769182
% es.tEY (V/m) @ t=0.3
0
% es.tEZ (V/m) @ t=0.3
1.8990634293459525
% es.Ex (V/m) @ t=0.3
-0.7321290888769111
% es.Ey (V/m) @ t=0.3
0.23259428341377286
% es.Ez (V/m) @ t=0.3
1.8990634293459525
% es.tEx (V/m) @ t=0.3
-0.7321290888769182
% es.tEy (V/m) @ t=0.3
0
% es.tEz (V/m) @ t=0.3
1.8990634293459525
% V (V) @ t=0.3
0.010000583262831118
% es.normE (V/m) @ t=0.32
2.0740959824493705
% es.EX (V/m) @ t=0.32
-0.7392847956604942
% es.EY (V/m) @ t=0.32
0.23486759803333945
% es.EZ (V/m) @ t=0.32
1.9176245203481024
% es.tEX (V/m) @ t=0.32
-0.7392847956605084
% es.tEY (V/m) @ t=0.32
0
% es.tEZ (V/m) @ t=0.32
1.9176245203481042
% es.Ex (V/m) @ t=0.32
-0.7392847956604942
% es.Ey (V/m) @ t=0.32
0.23486759803333945
% es.Ez (V/m) @ t=0.32
1.9176245203481024
% es.tEx (V/m) @ t=0.32
-0.7392847956605084
% es.tEy (V/m) @ t=0.32
0
% es.tEz (V/m) @ t=0.32
1.9176245203481042
% V (V) @ t=0.32
0.010098323633693755
% es.normE (V/m) @ t=0.34
2.094171599635388
% es.EX (V/m) @ t=0.34
-0.7464405024440702
% es.EY (V/m) @ t=0.34
0.23714091265294046
% es.EZ (V/m) @ t=0.34
1.9361856113502585
% es.tEX (V/m) @ t=0.34
-0.7464405024440844
% es.tEY (V/m) @ t=0.34
0
% es.tEZ (V/m) @ t=0.34
1.936185611350254
% es.Ex (V/m) @ t=0.34
-0.7464405024440702
% es.Ey (V/m) @ t=0.34
0.23714091265294046
% es.Ez (V/m) @ t=0.34
1.9361856113502585
% es.tEx (V/m) @ t=0.34
-0.7464405024440844
% es.tEy (V/m) @ t=0.34
0
% es.tEz (V/m) @ t=0.34
1.936185611350254
% V (V) @ t=0.34
0.010196064004556391
% es.normE (V/m) @ t=0.36
2.114247216821392
% es.EX (V/m) @ t=0.36
-0.7535962092276464
% es.EY (V/m) @ t=0.36
0.2394142272725166
% es.EZ (V/m) @ t=0.36
1.9547467023524048
% es.tEX (V/m) @ t=0.36
-0.7535962092276606
% es.tEY (V/m) @ t=0.36
0
% es.tEZ (V/m) @ t=0.36
1.9547467023524092
% es.Ex (V/m) @ t=0.36
-0.7535962092276464
% es.Ey (V/m) @ t=0.36
0.2394142272725166
% es.Ez (V/m) @ t=0.36
1.9547467023524048
% es.tEx (V/m) @ t=0.36
-0.7535962092276606
% es.tEy (V/m) @ t=0.36
0
% es.tEz (V/m) @ t=0.36
1.9547467023524092
% V (V) @ t=0.36
0.010293804375419028
% es.normE (V/m) @ t=0.38
2.134322834007412
% es.EX (V/m) @ t=0.38
-0.7607519160112295
% es.EY (V/m) @ t=0.38
0.24168754189210961
% es.EZ (V/m) @ t=0.38
1.9733077933545635
% es.tEX (V/m) @ t=0.38
-0.7607519160112366
% es.tEY (V/m) @ t=0.38
0
% es.tEZ (V/m) @ t=0.38
1.973307793354559
% es.Ex (V/m) @ t=0.38
-0.7607519160112295
% es.Ey (V/m) @ t=0.38
0.24168754189210961
% es.Ez (V/m) @ t=0.38
1.9733077933545635
% es.tEx (V/m) @ t=0.38
-0.7607519160112366
% es.tEy (V/m) @ t=0.38
0
% es.tEz (V/m) @ t=0.38
1.973307793354559
% V (V) @ t=0.38
0.010391544746281666
% es.normE (V/m) @ t=0.4
2.154398451193429
% es.EX (V/m) @ t=0.4
-0.7679076227948128
% es.EY (V/m) @ t=0.4
0.24396085651170885
% es.EZ (V/m) @ t=0.4
1.9918688843567125
% es.tEX (V/m) @ t=0.4
-0.7679076227948199
% es.tEY (V/m) @ t=0.4
0
% es.tEZ (V/m) @ t=0.4
1.9918688843567125
% es.Ex (V/m) @ t=0.4
-0.7679076227948128
% es.Ey (V/m) @ t=0.4
0.24396085651170885
% es.Ez (V/m) @ t=0.4
1.9918688843567125
% es.tEx (V/m) @ t=0.4
-0.7679076227948199
% es.tEy (V/m) @ t=0.4
0
% es.tEz (V/m) @ t=0.4
1.9918688843567125
% V (V) @ t=0.4
0.0104892851171443
% es.normE (V/m) @ t=0.42
2.1744740683794452
% es.EX (V/m) @ t=0.42
-0.775063329578403
% es.EY (V/m) @ t=0.42
0.246234171131269
% es.EZ (V/m) @ t=0.42
2.010429975358866
% es.tEX (V/m) @ t=0.42
-0.7750633295784101
% es.tEY (V/m) @ t=0.42
0
% es.tEZ (V/m) @ t=0.42
2.0104299753588695
% es.Ex (V/m) @ t=0.42
-0.775063329578403
% es.Ey (V/m) @ t=0.42
0.246234171131269
% es.Ez (V/m) @ t=0.42
2.010429975358866
% es.tEx (V/m) @ t=0.42
-0.7750633295784101
% es.tEy (V/m) @ t=0.42
0
% es.tEz (V/m) @ t=0.42
2.0104299753588695
% V (V) @ t=0.42
0.010587025488006937
% es.normE (V/m) @ t=0.44
2.194549685565466
% es.EX (V/m) @ t=0.44
-0.7822190363619754
% es.EY (V/m) @ t=0.44
0.24850748575087178
% es.EZ (V/m) @ t=0.44
2.028991066361022
% es.tEX (V/m) @ t=0.44
-0.7822190363619861
% es.tEY (V/m) @ t=0.44
0
% es.tEZ (V/m) @ t=0.44
2.028991066361021
% es.Ex (V/m) @ t=0.44
-0.7822190363619754
% es.Ey (V/m) @ t=0.44
0.24850748575087178
% es.Ez (V/m) @ t=0.44
2.028991066361022
% es.tEx (V/m) @ t=0.44
-0.7822190363619861
% es.tEy (V/m) @ t=0.44
0
% es.tEz (V/m) @ t=0.44
2.028991066361021
% V (V) @ t=0.44
0.010684765858869573
% es.normE (V/m) @ t=0.46
2.2146253027514797
% es.EX (V/m) @ t=0.46
-0.7893747431455588
% es.EY (V/m) @ t=0.46
0.25078080037045347
% es.EZ (V/m) @ t=0.46
2.047552157363169
% es.tEX (V/m) @ t=0.46
-0.7893747431455765
% es.tEY (V/m) @ t=0.46
0
% es.tEZ (V/m) @ t=0.46
2.0475521573631745
% es.Ex (V/m) @ t=0.46
-0.7893747431455588
% es.Ey (V/m) @ t=0.46
0.25078080037045347
% es.Ez (V/m) @ t=0.46
2.047552157363169
% es.tEx (V/m) @ t=0.46
-0.7893747431455765
% es.tEy (V/m) @ t=0.46
0
% es.tEz (V/m) @ t=0.46
2.0475521573631745
% V (V) @ t=0.46
0.01078250622973221
% es.normE (V/m) @ t=0.48
2.2347009199375
% es.EX (V/m) @ t=0.48
-0.7965304499291418
% es.EY (V/m) @ t=0.48
0.2530541149900587
% es.EZ (V/m) @ t=0.48
2.06611324836532
% es.tEX (V/m) @ t=0.48
-0.7965304499291525
% es.tEY (V/m) @ t=0.48
0
% es.tEZ (V/m) @ t=0.48
2.0661132483653155
% es.Ex (V/m) @ t=0.48
-0.7965304499291418
% es.Ey (V/m) @ t=0.48
0.2530541149900587
% es.Ez (V/m) @ t=0.48
2.06611324836532
% es.tEx (V/m) @ t=0.48
-0.7965304499291525
% es.tEy (V/m) @ t=0.48
0
% es.tEz (V/m) @ t=0.48
2.0661132483653155
% V (V) @ t=0.48
0.01088024660059485
% es.normE (V/m) @ t=0.5
2.254776537123508
% es.EX (V/m) @ t=0.5
-0.8036861567127072
% es.EY (V/m) @ t=0.5
0.2553274296096206
% es.EZ (V/m) @ t=0.5
2.084674339367469
% es.tEX (V/m) @ t=0.5
-0.8036861567127214
% es.tEY (V/m) @ t=0.5
0
% es.tEZ (V/m) @ t=0.5
2.0846743393674707
% es.Ex (V/m) @ t=0.5
-0.8036861567127072
% es.Ey (V/m) @ t=0.5
0.2553274296096206
% es.Ez (V/m) @ t=0.5
2.084674339367469
% es.tEx (V/m) @ t=0.5
-0.8036861567127214
% es.tEy (V/m) @ t=0.5
0
% es.tEz (V/m) @ t=0.5
2.0846743393674707
% V (V) @ t=0.5
0.010977986971457486
% es.normE (V/m) @ t=0.52
2.274852154309539
% es.EX (V/m) @ t=0.52
-0.8108418634962976
% es.EY (V/m) @ t=0.52
0.2576007442292094
% es.EZ (V/m) @ t=0.52
2.103235430369627
% es.tEX (V/m) @ t=0.52
-0.8108418634963047
% es.tEY (V/m) @ t=0.52
0
% es.tEZ (V/m) @ t=0.52
2.103235430369624
% es.Ex (V/m) @ t=0.52
-0.8108418634962976
% es.Ey (V/m) @ t=0.52
0.2576007442292094
% es.Ez (V/m) @ t=0.52
2.103235430369627
% es.tEx (V/m) @ t=0.52
-0.8108418634963047
% es.tEy (V/m) @ t=0.52
0
% es.tEz (V/m) @ t=0.52
2.103235430369624
% V (V) @ t=0.52
0.011075727342320119
% es.normE (V/m) @ t=0.54
2.2955459506640796
% es.EX (V/m) @ t=0.54
-0.8182179089642049
% es.EY (V/m) @ t=0.54
0.2599440659437111
% es.EZ (V/m) @ t=0.54
2.122368066188617
% es.tEX (V/m) @ t=0.54
-0.8182179089642191
% es.tEY (V/m) @ t=0.54
0
% es.tEZ (V/m) @ t=0.54
2.1223680661886153
% es.Ex (V/m) @ t=0.54
-0.8182179089642049
% es.Ey (V/m) @ t=0.54
0.2599440659437111
% es.Ez (V/m) @ t=0.54
2.122368066188617
% es.tEx (V/m) @ t=0.54
-0.8182179089642191
% es.tEy (V/m) @ t=0.54
0
% es.tEz (V/m) @ t=0.54
2.1223680661886153
% V (V) @ t=0.54
0.011176478477590533
% es.normE (V/m) @ t=0.56
2.317901836371857
% es.EX (V/m) @ t=0.56
-0.8261863758529698
% es.EY (V/m) @ t=0.56
0.2624756147176237
% es.EZ (V/m) @ t=0.56
2.1430374062566795
% es.tEX (V/m) @ t=0.56
-0.8261863758529769
% es.tEY (V/m) @ t=0.56
0
% es.tEZ (V/m) @ t=0.56
2.1430374062566777
% es.Ex (V/m) @ t=0.56
-0.8261863758529698
% es.Ey (V/m) @ t=0.56
0.2624756147176237
% es.Ez (V/m) @ t=0.56
2.1430374062566795
% es.tEx (V/m) @ t=0.56
-0.8261863758529769
% es.tEy (V/m) @ t=0.56
0
% es.tEz (V/m) @ t=0.56
2.1430374062566777
% V (V) @ t=0.56
0.011285324611401975
% es.normE (V/m) @ t=0.58
2.3402577220796257
% es.EX (V/m) @ t=0.58
-0.8341548427416994
% es.EY (V/m) @ t=0.58
0.2650071634915434
% es.EZ (V/m) @ t=0.58
2.1637067463247446
% es.tEX (V/m) @ t=0.58
-0.8341548427417136
% es.tEY (V/m) @ t=0.58
0
% es.tEZ (V/m) @ t=0.58
2.163706746324749
% es.Ex (V/m) @ t=0.58
-0.8341548427416994
% es.Ey (V/m) @ t=0.58
0.2650071634915434
% es.Ez (V/m) @ t=0.58
2.1637067463247446
% es.tEx (V/m) @ t=0.58
-0.8341548427417136
% es.tEy (V/m) @ t=0.58
0
% es.tEz (V/m) @ t=0.58
2.163706746324749
% V (V) @ t=0.58
0.011394170745213416
% es.normE (V/m) @ t=0.6
2.3626136077874103
% es.EX (V/m) @ t=0.6
-0.8421233096304431
% es.EY (V/m) @ t=0.6
0.26753871226544446
% es.EZ (V/m) @ t=0.6
2.184376086392823
% es.tEX (V/m) @ t=0.6
-0.8421233096304502
% es.tEY (V/m) @ t=0.6
0
% es.tEZ (V/m) @ t=0.6
2.1843760863928257
% es.Ex (V/m) @ t=0.6
-0.8421233096304431
% es.Ey (V/m) @ t=0.6
0.26753871226544446
% es.Ez (V/m) @ t=0.6
2.184376086392823
% es.tEx (V/m) @ t=0.6
-0.8421233096304502
% es.tEy (V/m) @ t=0.6
0
% es.tEz (V/m) @ t=0.6
2.1843760863928257
% V (V) @ t=0.6
0.01150301687902486
% es.normE (V/m) @ t=0.62
2.3849694934951806
% es.EX (V/m) @ t=0.62
-0.8500917765191761
% es.EY (V/m) @ t=0.62
0.2700702610393677
% es.EZ (V/m) @ t=0.62
2.205045426460889
% es.tEX (V/m) @ t=0.62
-0.8500917765191939
% es.tEY (V/m) @ t=0.62
0
% es.tEZ (V/m) @ t=0.62
2.20504542646089
% es.Ex (V/m) @ t=0.62
-0.8500917765191761
% es.Ey (V/m) @ t=0.62
0.2700702610393677
% es.Ez (V/m) @ t=0.62
2.205045426460889
% es.tEx (V/m) @ t=0.62
-0.8500917765191939
% es.tEy (V/m) @ t=0.62
0
% es.tEz (V/m) @ t=0.62
2.20504542646089
% V (V) @ t=0.62
0.011611863012836302
% es.normE (V/m) @ t=0.64
2.407325379202961
% es.EX (V/m) @ t=0.64
-0.8580602434079235
% es.EY (V/m) @ t=0.64
0.27260180981328475
% es.EZ (V/m) @ t=0.64
2.2257147665289594
% es.tEX (V/m) @ t=0.64
-0.8580602434079306
% es.tEY (V/m) @ t=0.64
0
% es.tEZ (V/m) @ t=0.64
2.225714766528961
% es.Ex (V/m) @ t=0.64
-0.8580602434079235
% es.Ey (V/m) @ t=0.64
0.27260180981328475
% es.Ez (V/m) @ t=0.64
2.2257147665289594
% es.tEx (V/m) @ t=0.64
-0.8580602434079306
% es.tEy (V/m) @ t=0.64
0
% es.tEz (V/m) @ t=0.64
2.225714766528961
% V (V) @ t=0.64
0.011720709146647742
% es.normE (V/m) @ t=0.66
2.4296812649107435
% es.EX (V/m) @ t=0.66
-0.8660287102966673
% es.EY (V/m) @ t=0.66
0.27513335858718757
% es.EZ (V/m) @ t=0.66
2.246384106597038
% es.tEX (V/m) @ t=0.66
-0.8660287102966815
% es.tEY (V/m) @ t=0.66
0
% es.tEZ (V/m) @ t=0.66
2.2463841065970396
% es.Ex (V/m) @ t=0.66
-0.8660287102966673
% es.Ey (V/m) @ t=0.66
0.27513335858718757
% es.Ez (V/m) @ t=0.66
2.246384106597038
% es.tEx (V/m) @ t=0.66
-0.8660287102966815
% es.tEy (V/m) @ t=0.66
0
% es.tEz (V/m) @ t=0.66
2.2463841065970396
% V (V) @ t=0.66
0.011829555280459187
% es.normE (V/m) @ t=0.68
2.4520371506185086
% es.EX (V/m) @ t=0.68
-0.8739971771854109
% es.EY (V/m) @ t=0.68
0.2776649073611124
% es.EZ (V/m) @ t=0.68
2.267053446665095
% es.tEX (V/m) @ t=0.68
-0.8739971771854251
% es.tEY (V/m) @ t=0.68
0
% es.tEZ (V/m) @ t=0.68
2.2670534466651002
% es.Ex (V/m) @ t=0.68
-0.8739971771854109
% es.Ey (V/m) @ t=0.68
0.2776649073611124
% es.Ez (V/m) @ t=0.68
2.267053446665095
% es.tEx (V/m) @ t=0.68
-0.8739971771854251
% es.tEy (V/m) @ t=0.68
0
% es.tEz (V/m) @ t=0.68
2.2670534466651002
% V (V) @ t=0.68
0.01193840141427063
% es.normE (V/m) @ t=0.7
2.4743930363262874
% es.EX (V/m) @ t=0.7
-0.8819656440741512
% es.EY (V/m) @ t=0.7
0.28019645613502253
% es.EZ (V/m) @ t=0.7
2.287722786733166
% es.tEX (V/m) @ t=0.7
-0.8819656440741619
% es.tEY (V/m) @ t=0.7
0
% es.tEZ (V/m) @ t=0.7
2.287722786733166
% es.Ex (V/m) @ t=0.7
-0.8819656440741512
% es.Ey (V/m) @ t=0.7
0.28019645613502253
% es.Ez (V/m) @ t=0.7
2.287722786733166
% es.tEx (V/m) @ t=0.7
-0.8819656440741619
% es.tEy (V/m) @ t=0.7
0
% es.tEz (V/m) @ t=0.7
2.287722786733166
% V (V) @ t=0.7
0.01204724754808207
% es.normE (V/m) @ t=0.72
2.4967489220340626
% es.EX (V/m) @ t=0.72
-0.8899341109628878
% es.EY (V/m) @ t=0.72
0.28272800490893757
% es.EZ (V/m) @ t=0.72
2.3083921268012375
% es.tEX (V/m) @ t=0.72
-0.8899341109629055
% es.tEY (V/m) @ t=0.72
0
% es.tEZ (V/m) @ t=0.72
2.308392126801232
% es.Ex (V/m) @ t=0.72
-0.8899341109628878
% es.Ey (V/m) @ t=0.72
0.28272800490893757
% es.Ez (V/m) @ t=0.72
2.3083921268012375
% es.tEx (V/m) @ t=0.72
-0.8899341109629055
% es.tEy (V/m) @ t=0.72
0
% es.tEz (V/m) @ t=0.72
2.308392126801232
% V (V) @ t=0.72
0.012156093681893512
% es.normE (V/m) @ t=0.74
2.5191048077418454
% es.EX (V/m) @ t=0.74
-0.8979025778516421
% es.EY (V/m) @ t=0.74
0.28525955368285105
% es.EZ (V/m) @ t=0.74
2.3290614668693097
% es.tEX (V/m) @ t=0.74
-0.8979025778516492
% es.tEY (V/m) @ t=0.74
0
% es.tEZ (V/m) @ t=0.74
2.3290614668693035
% es.Ex (V/m) @ t=0.74
-0.8979025778516421
% es.Ey (V/m) @ t=0.74
0.28525955368285105
% es.Ez (V/m) @ t=0.74
2.3290614668693097
% es.tEx (V/m) @ t=0.74
-0.8979025778516492
% es.tEy (V/m) @ t=0.74
0
% es.tEz (V/m) @ t=0.74
2.3290614668693035
% V (V) @ t=0.74
0.012264939815704954
% es.normE (V/m) @ t=0.76
2.5414606934496113
% es.EX (V/m) @ t=0.76
-0.9058710447403717
% es.EY (V/m) @ t=0.76
0.2877911024567612
% es.EZ (V/m) @ t=0.76
2.349730806937374
% es.tEX (V/m) @ t=0.76
-0.9058710447403859
% es.tEY (V/m) @ t=0.76
0
% es.tEZ (V/m) @ t=0.76
2.3497308069373783
% es.Ex (V/m) @ t=0.76
-0.9058710447403717
% es.Ey (V/m) @ t=0.76
0.2877911024567612
% es.Ez (V/m) @ t=0.76
2.349730806937374
% es.tEx (V/m) @ t=0.76
-0.9058710447403859
% es.tEy (V/m) @ t=0.76
0
% es.tEz (V/m) @ t=0.76
2.3497308069373783
% V (V) @ t=0.76
0.012373785949516398
% es.normE (V/m) @ t=0.78
2.5638165791573986
% es.EX (V/m) @ t=0.78
-0.9138395116291227
% es.EY (V/m) @ t=0.78
0.2903226512306756
% es.EZ (V/m) @ t=0.78
2.3704001470054497
% es.tEX (V/m) @ t=0.78
-0.9138395116291298
% es.tEY (V/m) @ t=0.78
0
% es.tEZ (V/m) @ t=0.78
2.3704001470054568
% es.Ex (V/m) @ t=0.78
-0.9138395116291227
% es.Ey (V/m) @ t=0.78
0.2903226512306756
% es.Ez (V/m) @ t=0.78
2.3704001470054497
% es.tEx (V/m) @ t=0.78
-0.9138395116291298
% es.tEy (V/m) @ t=0.78
0
% es.tEz (V/m) @ t=0.78
2.3704001470054568
% V (V) @ t=0.78
0.01248263208332784
% es.normE (V/m) @ t=0.8
2.5861724648651707
% es.EX (V/m) @ t=0.8
-0.921807978517859
% es.EY (V/m) @ t=0.8
0.2928542000045826
% es.EZ (V/m) @ t=0.8
2.3910694870735174
% es.tEX (V/m) @ t=0.8
-0.9218079785178732
% es.tEY (V/m) @ t=0.8
0
% es.tEZ (V/m) @ t=0.8
2.3910694870735245
% es.Ex (V/m) @ t=0.8
-0.921807978517859
% es.Ey (V/m) @ t=0.8
0.2928542000045826
% es.Ez (V/m) @ t=0.8
2.3910694870735174
% es.tEx (V/m) @ t=0.8
-0.9218079785178732
% es.tEy (V/m) @ t=0.8
0
% es.tEz (V/m) @ t=0.8
2.3910694870735245
% V (V) @ t=0.8
0.012591478217139278
% es.normE (V/m) @ t=0.82
2.610881910334416
% es.EX (V/m) @ t=0.82
-0.9306154802808415
% es.EY (V/m) @ t=0.82
0.2956520357453023
% es.EZ (V/m) @ t=0.82
2.41391476626507
% es.tEX (V/m) @ t=0.82
-0.9306154802808593
% es.tEY (V/m) @ t=0.82
0
% es.tEZ (V/m) @ t=0.82
2.4139147662650675
% es.Ex (V/m) @ t=0.82
-0.9306154802808415
% es.Ey (V/m) @ t=0.82
0.2956520357453023
% es.Ez (V/m) @ t=0.82
2.41391476626507
% es.tEx (V/m) @ t=0.82
-0.9306154802808593
% es.tEy (V/m) @ t=0.82
0
% es.tEz (V/m) @ t=0.82
2.4139147662650675
% V (V) @ t=0.82
0.012711741879515143
% es.normE (V/m) @ t=0.84
2.635819752168753
% es.EX (V/m) @ t=0.84
-0.9395044044569689
% es.EY (V/m) @ t=0.84
0.29847571275686846
% es.EZ (V/m) @ t=0.84
2.436971204992197
% es.tEX (V/m) @ t=0.84
-0.9395044044569831
% es.tEY (V/m) @ t=0.84
0
% es.tEZ (V/m) @ t=0.84
2.4369712049922025
% es.Ex (V/m) @ t=0.84
-0.9395044044569689
% es.Ey (V/m) @ t=0.84
0.29847571275686846
% es.Ez (V/m) @ t=0.84
2.436971204992197
% es.tEx (V/m) @ t=0.84
-0.9395044044569831
% es.tEy (V/m) @ t=0.84
0
% es.tEz (V/m) @ t=0.84
2.4369712049922025
% V (V) @ t=0.84
0.012833113532460635
% es.normE (V/m) @ t=0.86
2.6607575940032273
% es.EX (V/m) @ t=0.86
-0.9483933286331172
% es.EY (V/m) @ t=0.86
0.30129938976844595
% es.EZ (V/m) @ t=0.86
2.4600276437193065
% es.tEX (V/m) @ t=0.86
-0.9483933286331208
% es.tEY (V/m) @ t=0.86
0
% es.tEZ (V/m) @ t=0.86
2.460027643719311
% es.Ex (V/m) @ t=0.86
-0.9483933286331172
% es.Ey (V/m) @ t=0.86
0.30129938976844595
% es.Ez (V/m) @ t=0.86
2.4600276437193065
% es.tEx (V/m) @ t=0.86
-0.9483933286331208
% es.tEy (V/m) @ t=0.86
0
% es.tEz (V/m) @ t=0.86
2.460027643719311
% V (V) @ t=0.86
0.012954485185406126
% es.normE (V/m) @ t=0.88
2.685695435837838
% es.EX (V/m) @ t=0.88
-0.9572822528092659
% es.EY (V/m) @ t=0.88
0.3041230667800239
% es.EZ (V/m) @ t=0.88
2.4830840824464095
% es.tEX (V/m) @ t=0.88
-0.9572822528092801
% es.tEY (V/m) @ t=0.88
0
% es.tEZ (V/m) @ t=0.88
2.4830840824464087
% es.Ex (V/m) @ t=0.88
-0.9572822528092659
% es.Ey (V/m) @ t=0.88
0.3041230667800239
% es.Ez (V/m) @ t=0.88
2.4830840824464095
% es.tEx (V/m) @ t=0.88
-0.9572822528092801
% es.tEy (V/m) @ t=0.88
0
% es.tEz (V/m) @ t=0.88
2.4830840824464087
% V (V) @ t=0.88
0.013075856838351623
% es.normE (V/m) @ t=0.9
2.7106332776725877
% es.EX (V/m) @ t=0.9
-0.9661711769853969
% es.EY (V/m) @ t=0.9
0.3069467437915936
% es.EZ (V/m) @ t=0.9
2.5061405211735206
% es.tEX (V/m) @ t=0.9
-0.9661711769854111
% es.tEY (V/m) @ t=0.9
0
% es.tEZ (V/m) @ t=0.9
2.5061405211735295
% es.Ex (V/m) @ t=0.9
-0.9661711769853969
% es.Ey (V/m) @ t=0.9
0.3069467437915936
% es.Ez (V/m) @ t=0.9
2.5061405211735206
% es.tEx (V/m) @ t=0.9
-0.9661711769854111
% es.tEy (V/m) @ t=0.9
0
% es.tEz (V/m) @ t=0.9
2.5061405211735295
% V (V) @ t=0.9
0.013197228491297116
% es.normE (V/m) @ t=0.92
2.735571119507494
% es.EX (V/m) @ t=0.92
-0.9750601011615525
% es.EY (V/m) @ t=0.92
0.30977042080315087
% es.EZ (V/m) @ t=0.92
2.5291969599006485
% es.tEX (V/m) @ t=0.92
-0.9750601011615703
% es.tEY (V/m) @ t=0.92
0
% es.tEZ (V/m) @ t=0.92
2.529196959900654
% es.Ex (V/m) @ t=0.92
-0.9750601011615525
% es.Ey (V/m) @ t=0.92
0.30977042080315087
% es.Ez (V/m) @ t=0.92
2.5291969599006485
% es.tEx (V/m) @ t=0.92
-0.9750601011615703
% es.tEy (V/m) @ t=0.92
0
% es.tEz (V/m) @ t=0.92
2.529196959900654
% V (V) @ t=0.92
0.013318600144242609
% es.normE (V/m) @ t=0.94
2.760508961342515
% es.EX (V/m) @ t=0.94
-0.9839490253377048
% es.EY (V/m) @ t=0.94
0.31259409781471637
% es.EZ (V/m) @ t=0.94
2.552253398627758
% es.tEX (V/m) @ t=0.94
-0.9839490253377225
% es.tEY (V/m) @ t=0.94
0
% es.tEZ (V/m) @ t=0.94
2.552253398627755
% es.Ex (V/m) @ t=0.94
-0.9839490253377048
% es.Ey (V/m) @ t=0.94
0.31259409781471637
% es.Ez (V/m) @ t=0.94
2.552253398627758
% es.tEx (V/m) @ t=0.94
-0.9839490253377225
% es.tEy (V/m) @ t=0.94
0
% es.tEz (V/m) @ t=0.94
2.552253398627755
% V (V) @ t=0.94
0.013439971797188102
% es.normE (V/m) @ t=0.96
2.785446803177656
% es.EX (V/m) @ t=0.96
-0.9928379495138318
% es.EY (V/m) @ t=0.96
0.31541777482630007
% es.EZ (V/m) @ t=0.96
2.575309837354868
% es.tEX (V/m) @ t=0.96
-0.9928379495138389
% es.tEY (V/m) @ t=0.96
0
% es.tEZ (V/m) @ t=0.96
2.5753098373548635
% es.Ex (V/m) @ t=0.96
-0.9928379495138318
% es.Ey (V/m) @ t=0.96
0.31541777482630007
% es.Ez (V/m) @ t=0.96
2.575309837354868
% es.tEx (V/m) @ t=0.96
-0.9928379495138389
% es.tEy (V/m) @ t=0.96
0
% es.tEz (V/m) @ t=0.96
2.5753098373548635
% V (V) @ t=0.96
0.013561343450133599
% es.normE (V/m) @ t=0.98
2.8103846450129364
% es.EX (V/m) @ t=0.98
-1.0017268736899911
% es.EY (V/m) @ t=0.98
0.31824145183785757
% es.EZ (V/m) @ t=0.98
2.5983662760819852
% es.tEX (V/m) @ t=0.98
-1.0017268736900053
% es.tEY (V/m) @ t=0.98
0
% es.tEZ (V/m) @ t=0.98
2.598366276081988
% es.Ex (V/m) @ t=0.98
-1.0017268736899911
% es.Ey (V/m) @ t=0.98
0.31824145183785757
% es.Ez (V/m) @ t=0.98
2.5983662760819852
% es.tEx (V/m) @ t=0.98
-1.0017268736900053
% es.tEy (V/m) @ t=0.98
0
% es.tEz (V/m) @ t=0.98
2.598366276081988
% V (V) @ t=0.98
0.013682715103079092
% es.normE (V/m) @ t=1
2.8353224868483298
% es.EX (V/m) @ t=1
-1.010615797866136
% es.EY (V/m) @ t=1
0.32106512884942173
% es.EZ (V/m) @ t=1
2.621422714809099
% es.tEX (V/m) @ t=1
-1.0106157978661503
% es.tEY (V/m) @ t=1
0
% es.tEZ (V/m) @ t=1
2.6214227148091034
% es.Ex (V/m) @ t=1
-1.010615797866136
% es.Ey (V/m) @ t=1
0.32106512884942173
% es.Ez (V/m) @ t=1
2.621422714809099
% es.tEx (V/m) @ t=1
-1.0106157978661503
% es.tEy (V/m) @ t=1
0
% es.tEz (V/m) @ t=1
2.6214227148091034
% V (V) @ t=1
0.013804086756024585
% es.normE (V/m) @ t=1.02
2.860260328683841
% es.EX (V/m) @ t=1.02
-1.0195047220422777
% es.EY (V/m) @ t=1.02
0.3238888058609952
% es.EZ (V/m) @ t=1.02
2.6444791535362127
% es.tEX (V/m) @ t=1.02
-1.0195047220422955
% es.tEY (V/m) @ t=1.02
0
% es.tEZ (V/m) @ t=1.02
2.64447915353621
% es.Ex (V/m) @ t=1.02
-1.0195047220422777
% es.Ey (V/m) @ t=1.02
0.3238888058609952
% es.Ez (V/m) @ t=1.02
2.6444791535362127
% es.tEx (V/m) @ t=1.02
-1.0195047220422955
% es.tEy (V/m) @ t=1.02
0
% es.tEz (V/m) @ t=1.02
2.64447915353621
% V (V) @ t=1.02
0.013925458408970082
% es.normE (V/m) @ t=1.04
2.8851981705194576
% es.EX (V/m) @ t=1.04
-1.0283936462184156
% es.EY (V/m) @ t=1.04
0.32671248287254473
% es.EZ (V/m) @ t=1.04
2.667535592263322
% es.tEX (V/m) @ t=1.04
-1.0283936462184333
% es.tEY (V/m) @ t=1.04
0
% es.tEZ (V/m) @ t=1.04
2.66753559226332