% Model:              1 neuron.mph
% Version:            COMSOL 6.0.0.405
% Date:               Mar 9 2023, 14:16
% Dimension:          0
% Nodes:              14017
% Expressions:        14017
% Description:        Electric field norm, Electric field, X component, Electric field, Y component, Electric field, Z component, Tangential electric field, X component, Tangential electric field, Y component, Tangential electric field, Z component, Electric field, x component, Electric field, y component, Electric field, z component, Tangential electric field, x component, Tangential electric field, y component, Tangential electric field, z component, Electric potential
% Length unit:        mm
% x
1.0000000000000002
% y
12.2
% z
2
% es.normE (V/m) @ t=0
0.7095927344099542
% es.EX (V/m) @ t=0
0.4928884867805835
% es.EY (V/m) @ t=0
0.07380423573743067
% es.EZ (V/m) @ t=0
-0.4921697646262426
% es.tEX (V/m) @ t=0
0.49288848678058983
% es.tEY (V/m) @ t=0
0
% es.tEZ (V/m) @ t=0
-0.4921697646262353
% es.Ex (V/m) @ t=0
0.4928884867805835
% es.Ey (V/m) @ t=0
0.07380423573743067
% es.Ez (V/m) @ t=0
-0.4921697646262426
% es.tEx (V/m) @ t=0
0.49288848678058983
% es.tEy (V/m) @ t=0
0
% es.tEz (V/m) @ t=0
-0.4921697646262353
% V (V) @ t=0
0.0075988129422985655
% es.normE (V/m) @ t=0.02
0.6128887838972479
% es.EX (V/m) @ t=0.02
0.42571719040999
% es.EY (V/m) @ t=0.02
0.0637461268661074
% es.EZ (V/m) @ t=0.02
-0.4250964163907667
% es.tEX (V/m) @ t=0.02
0.4257171904099917
% es.tEY (V/m) @ t=0.02
0
% es.tEZ (V/m) @ t=0.02
-0.42509641639075957
% es.Ex (V/m) @ t=0.02
0.42571719040999
% es.Ey (V/m) @ t=0.02
0.0637461268661074
% es.Ez (V/m) @ t=0.02
-0.4250964163907667
% es.tEx (V/m) @ t=0.02
0.4257171904099917
% es.tEy (V/m) @ t=0.02
0
% es.tEz (V/m) @ t=0.02
-0.42509641639075957
% V (V) @ t=0.02
0.006563239713602794
% es.normE (V/m) @ t=0.04
0.6185261370335842
% es.EX (V/m) @ t=0.04
0.4296329385126635
% es.EY (V/m) @ t=0.04
0.06433246442745849
% es.EZ (V/m) @ t=0.04
-0.4290064546343031
% es.tEX (V/m) @ t=0.04
0.4296329385126654
% es.tEY (V/m) @ t=0.04
0
% es.tEZ (V/m) @ t=0.04
-0.42900645463429576
% es.Ex (V/m) @ t=0.04
0.4296329385126635
% es.Ey (V/m) @ t=0.04
0.06433246442745849
% es.Ez (V/m) @ t=0.04
-0.4290064546343031
% es.tEx (V/m) @ t=0.04
0.4296329385126654
% es.tEy (V/m) @ t=0.04
0
% es.tEz (V/m) @ t=0.04
-0.42900645463429576
% V (V) @ t=0.04
0.00662360839419811
% es.normE (V/m) @ t=0.06
0.6242140404674764
% es.EX (V/m) @ t=0.06
0.4335837993217393
% es.EY (V/m) @ t=0.06
0.06492405922579139
% es.EZ (V/m) @ t=0.06
-0.43295155433542765
% es.tEX (V/m) @ t=0.06
0.4335837993217382
% es.tEY (V/m) @ t=0.06
0
% es.tEZ (V/m) @ t=0.06
-0.43295155433541854
% es.Ex (V/m) @ t=0.06
0.4335837993217393
% es.Ey (V/m) @ t=0.06
0.06492405922579139
% es.Ez (V/m) @ t=0.06
-0.43295155433542765
% es.tEx (V/m) @ t=0.06
0.4335837993217382
% es.tEy (V/m) @ t=0.06
0
% es.tEz (V/m) @ t=0.06
-0.43295155433541854
% V (V) @ t=0.06
0.006684518423827054
% es.normE (V/m) @ t=0.08
0.6299894075399955
% es.EX (V/m) @ t=0.08
0.4375954129309815
% es.EY (V/m) @ t=0.08
0.06552475167154326
% es.EZ (V/m) @ t=0.08
-0.4369573182921169
% es.tEX (V/m) @ t=0.08
0.43759541293098225
% es.tEY (V/m) @ t=0.08
0
% es.tEZ (V/m) @ t=0.08
-0.4369573182921114
% es.Ex (V/m) @ t=0.08
0.4375954129309815
% es.Ey (V/m) @ t=0.08
0.06552475167154326
% es.Ez (V/m) @ t=0.08
-0.4369573182921169
% es.tEx (V/m) @ t=0.08
0.43759541293098225
% es.tEy (V/m) @ t=0.08
0
% es.tEz (V/m) @ t=0.08
-0.4369573182921114
% V (V) @ t=0.08
0.00674636504720089
% es.normE (V/m) @ t=0.1
0.6358242570014547
% es.EX (V/m) @ t=0.1
0.4416483433862287
% es.EY (V/m) @ t=0.1
0.06613163125760688
% es.EZ (V/m) @ t=0.1
-0.4410043388772904
% es.tEX (V/m) @ t=0.1
0.44164834338623016
% es.tEY (V/m) @ t=0.1
0
% es.tEZ (V/m) @ t=0.1
-0.44100433887728485
% es.Ex (V/m) @ t=0.1
0.4416483433862287
% es.Ey (V/m) @ t=0.1
0.06613163125760688
% es.Ez (V/m) @ t=0.1
-0.4410043388772904
% es.tEx (V/m) @ t=0.1
0.44164834338623016
% es.tEy (V/m) @ t=0.1
0
% es.tEz (V/m) @ t=0.1
-0.44100433887728485
% V (V) @ t=0.1
0.006808848630507892
% es.normE (V/m) @ t=0.12
0.6416591064629147
% es.EX (V/m) @ t=0.12
0.4457012738414824
% es.EY (V/m) @ t=0.12
0.06673851084365989
% es.EZ (V/m) @ t=0.12
-0.4450513594624599
% es.tEX (V/m) @ t=0.12
0.44570127384148583
% es.tEY (V/m) @ t=0.12
0
% es.tEZ (V/m) @ t=0.12
-0.44505135946245433
% es.Ex (V/m) @ t=0.12
0.4457012738414824
% es.Ey (V/m) @ t=0.12
0.06673851084365989
% es.Ez (V/m) @ t=0.12
-0.4450513594624599
% es.tEx (V/m) @ t=0.12
0.44570127384148583
% es.tEy (V/m) @ t=0.12
0
% es.tEz (V/m) @ t=0.12
-0.44505135946245433
% V (V) @ t=0.12
0.006871332213814893
% es.normE (V/m) @ t=0.14
0.6475562379093529
% es.EX (V/m) @ t=0.14
0.44979746575604784
% es.EY (V/m) @ t=0.14
0.06735186862837961
% es.EZ (V/m) @ t=0.14
-0.44914157850404224
% es.tEX (V/m) @ t=0.14
0.4497974657560482
% es.tEY (V/m) @ t=0.14
0
% es.tEZ (V/m) @ t=0.14
-0.4491415785040349
% es.Ex (V/m) @ t=0.14
0.44979746575604784
% es.Ey (V/m) @ t=0.14
0.06735186862837961
% es.Ez (V/m) @ t=0.14
-0.44914157850404224
% es.tEx (V/m) @ t=0.14
0.4497974657560482
% es.tEy (V/m) @ t=0.14
0
% es.tEz (V/m) @ t=0.14
-0.4491415785040349
% V (V) @ t=0.14
0.00693448274051644
% es.normE (V/m) @ t=0.16
0.653701930960563
% es.EX (V/m) @ t=0.16
0.4540663101279193
% es.EY (V/m) @ t=0.16
0.06799108030095488
% es.EZ (V/m) @ t=0.16
-0.453404198564211
% es.tEX (V/m) @ t=0.16
0.45406631012792364
% es.tEY (V/m) @ t=0.16
0
% es.tEZ (V/m) @ t=0.16
-0.45340419856420366
% es.Ex (V/m) @ t=0.16
0.4540663101279193
% es.Ey (V/m) @ t=0.16
0.06799108030095488
% es.Ez (V/m) @ t=0.16
-0.453404198564211
% es.tEx (V/m) @ t=0.16
0.45406631012792364
% es.tEy (V/m) @ t=0.16
0
% es.tEz (V/m) @ t=0.16
-0.45340419856420366
% V (V) @ t=0.16
0.007000294976225961
% es.normE (V/m) @ t=0.18
0.6598476240117681
% es.EX (V/m) @ t=0.18
0.45833515449978923
% es.EY (V/m) @ t=0.18
0.06863029197352072
% es.EZ (V/m) @ t=0.18
-0.4576668186243693
% es.tEX (V/m) @ t=0.18
0.45833515449979156
% es.tEY (V/m) @ t=0.18
0
% es.tEZ (V/m) @ t=0.18
-0.4576668186243622
% es.Ex (V/m) @ t=0.18
0.45833515449978923
% es.Ey (V/m) @ t=0.18
0.06863029197352072
% es.Ez (V/m) @ t=0.18
-0.4576668186243693
% es.tEx (V/m) @ t=0.18
0.45833515449979156
% es.tEy (V/m) @ t=0.18
0
% es.tEz (V/m) @ t=0.18
-0.4576668186243622
% V (V) @ t=0.18
0.0070661072119354825
% es.normE (V/m) @ t=0.2
0.6659933170629826
% es.EX (V/m) @ t=0.2
0.46260399887166403
% es.EY (V/m) @ t=0.2
0.069269503646095
% es.EZ (V/m) @ t=0.2
-0.4619294386845383
% es.tEX (V/m) @ t=0.2
0.46260399887166637
% es.tEY (V/m) @ t=0.2
0
% es.tEZ (V/m) @ t=0.2
-0.4619294386845345
% es.Ex (V/m) @ t=0.2
0.46260399887166403
% es.Ey (V/m) @ t=0.2
0.069269503646095
% es.Ez (V/m) @ t=0.2
-0.4619294386845383
% es.tEx (V/m) @ t=0.2
0.46260399887166637
% es.tEy (V/m) @ t=0.2
0
% es.tEz (V/m) @ t=0.2
-0.4619294386845345
% V (V) @ t=0.2
0.007131919447645004
% es.normE (V/m) @ t=0.22
0.6721390101141981
% es.EX (V/m) @ t=0.22
0.4668728432435375
% es.EY (V/m) @ t=0.22
0.06990871531867593
% es.EZ (V/m) @ t=0.22
-0.4661920587447088
% es.tEX (V/m) @ t=0.22
0.46687284324353784
% es.tEY (V/m) @ t=0.22
0
% es.tEZ (V/m) @ t=0.22
-0.4661920587446997
% es.Ex (V/m) @ t=0.22
0.4668728432435375
% es.Ey (V/m) @ t=0.22
0.06990871531867593
% es.Ez (V/m) @ t=0.22
-0.4661920587447088
% es.tEx (V/m) @ t=0.22
0.46687284324353784
% es.tEy (V/m) @ t=0.22
0
% es.tEz (V/m) @ t=0.22
-0.4661920587446997
% V (V) @ t=0.22
0.007197731683354525
% es.normE (V/m) @ t=0.24
0.6782847031654093
% es.EX (V/m) @ t=0.24
0.47114168761540587
% es.EY (V/m) @ t=0.24
0.0705479269912424
% es.EZ (V/m) @ t=0.24
-0.4704546788048807
% es.tEX (V/m) @ t=0.24
0.47114168761540776
% es.tEY (V/m) @ t=0.24
0
% es.tEZ (V/m) @ t=0.24
-0.4704546788048716
% es.Ex (V/m) @ t=0.24
0.47114168761540587
% es.Ey (V/m) @ t=0.24
0.0705479269912424
% es.Ez (V/m) @ t=0.24
-0.4704546788048807
% es.tEx (V/m) @ t=0.24
0.47114168761540776
% es.tEy (V/m) @ t=0.24
0
% es.tEz (V/m) @ t=0.24
-0.4704546788048716
% V (V) @ t=0.24
0.007263543919064044
% es.normE (V/m) @ t=0.26
0.6844303962166206
% es.EX (V/m) @ t=0.26
0.47541053198727823
% es.EY (V/m) @ t=0.26
0.07118713866382778
% es.EZ (V/m) @ t=0.26
-0.4747172988650463
% es.tEX (V/m) @ t=0.26
0.47541053198728145
% es.tEY (V/m) @ t=0.26
0
% es.tEZ (V/m) @ t=0.26
-0.4747172988650372
% es.Ex (V/m) @ t=0.26
0.47541053198727823
% es.Ey (V/m) @ t=0.26
0.07118713866382778
% es.Ez (V/m) @ t=0.26
-0.4747172988650463
% es.tEx (V/m) @ t=0.26
0.47541053198728145
% es.tEy (V/m) @ t=0.26
0
% es.tEz (V/m) @ t=0.26
-0.4747172988650372
% V (V) @ t=0.26
0.007329356154773567
% es.normE (V/m) @ t=0.28
0.6908631364834876
% es.EX (V/m) @ t=0.28
0.4798787597100135
% es.EY (V/m) @ t=0.28
0.07185621479056542
% es.EZ (V/m) @ t=0.28
-0.47917901278516717
% es.tEX (V/m) @ t=0.28
0.47987875971001537
% es.tEY (V/m) @ t=0.28
0
% es.tEZ (V/m) @ t=0.28
-0.47917901278515806
% es.Ex (V/m) @ t=0.28
0.4798787597100135
% es.Ey (V/m) @ t=0.28
0.07185621479056542
% es.Ez (V/m) @ t=0.28
-0.47917901278516717
% es.tEx (V/m) @ t=0.28
0.47987875971001537
% es.tEy (V/m) @ t=0.28
0
% es.tEz (V/m) @ t=0.28
-0.47917901278515806
% V (V) @ t=0.28
0.007398241869020039
% es.normE (V/m) @ t=0.3
0.6977077946305426
% es.EX (V/m) @ t=0.3
0.48463310610154753
% es.EY (V/m) @ t=0.3
0.07256814694231983
% es.EZ (V/m) @ t=0.3
-0.48392642994950985
% es.tEX (V/m) @ t=0.3
0.4846331061015505
% es.tEY (V/m) @ t=0.3
0
% es.tEZ (V/m) @ t=0.3
-0.48392642994950075
% es.Ex (V/m) @ t=0.3
0.48463310610154753
% es.Ey (V/m) @ t=0.3
0.07256814694231983
% es.Ez (V/m) @ t=0.3
-0.48392642994950985
% es.tEx (V/m) @ t=0.3
0.4846331061015505
% es.tEy (V/m) @ t=0.3
0
% es.tEz (V/m) @ t=0.3
-0.48392642994950075
% V (V) @ t=0.3
0.0074715380798490135
% es.normE (V/m) @ t=0.32
0.7045524527775928
% es.EX (V/m) @ t=0.32
0.4893874524930818
% es.EY (V/m) @ t=0.32
0.07328007909408962
% es.EZ (V/m) @ t=0.32
-0.488673847113845
% es.tEX (V/m) @ t=0.32
0.4893874524930837
% es.tEY (V/m) @ t=0.32
0
% es.tEZ (V/m) @ t=0.32
-0.4886738471138359
% es.Ex (V/m) @ t=0.32
0.4893874524930818
% es.Ey (V/m) @ t=0.32
0.07328007909408962
% es.Ez (V/m) @ t=0.32
-0.488673847113845
% es.tEx (V/m) @ t=0.32
0.4893874524930837
% es.tEy (V/m) @ t=0.32
0
% es.tEz (V/m) @ t=0.32
-0.4886738471138359
% V (V) @ t=0.32
0.007544834290677985
% es.normE (V/m) @ t=0.34
0.7113971109246571
% es.EX (V/m) @ t=0.34
0.49414179888462184
% es.EY (V/m) @ t=0.34
0.07399201124584609
% es.EZ (V/m) @ t=0.34
-0.4934212642781908
% es.tEX (V/m) @ t=0.34
0.49414179888462284
% es.tEY (V/m) @ t=0.34
0
% es.tEZ (V/m) @ t=0.34
-0.49342126427818167
% es.Ex (V/m) @ t=0.34
0.49414179888462184
% es.Ey (V/m) @ t=0.34
0.07399201124584609
% es.Ez (V/m) @ t=0.34
-0.4934212642781908
% es.tEx (V/m) @ t=0.34
0.49414179888462284
% es.tEy (V/m) @ t=0.34
0
% es.tEz (V/m) @ t=0.34
-0.49342126427818167
% V (V) @ t=0.34
0.007618130501506958
% es.normE (V/m) @ t=0.36
0.7182417690717142
% es.EX (V/m) @ t=0.36
0.49889614527615833
% es.EY (V/m) @ t=0.36
0.07470394339761846
% es.EZ (V/m) @ t=0.36
-0.49816868144252635
% es.tEX (V/m) @ t=0.36
0.49889614527615933
% es.tEY (V/m) @ t=0.36
0
% es.tEZ (V/m) @ t=0.36
-0.4981686814425137
% es.Ex (V/m) @ t=0.36
0.49889614527615833
% es.Ey (V/m) @ t=0.36
0.07470394339761846
% es.Ez (V/m) @ t=0.36
-0.49816868144252635
% es.tEx (V/m) @ t=0.36
0.49889614527615933
% es.tEy (V/m) @ t=0.36
0
% es.tEz (V/m) @ t=0.36
-0.4981686814425137
% V (V) @ t=0.36
0.00769142671233593
% es.normE (V/m) @ t=0.38
0.7250864272187689
% es.EX (V/m) @ t=0.38
0.5036504916676953
% es.EY (V/m) @ t=0.38
0.07541587554936888
% es.EZ (V/m) @ t=0.38
-0.5029160986068602
% es.tEX (V/m) @ t=0.38
0.503650491667698
% es.tEY (V/m) @ t=0.38
0
% es.tEZ (V/m) @ t=0.38
-0.5029160986068528
% es.Ex (V/m) @ t=0.38
0.5036504916676953
% es.Ey (V/m) @ t=0.38
0.07541587554936888
% es.Ez (V/m) @ t=0.38
-0.5029160986068602
% es.tEx (V/m) @ t=0.38
0.503650491667698
% es.tEy (V/m) @ t=0.38
0
% es.tEz (V/m) @ t=0.38
-0.5029160986068528
% V (V) @ t=0.38
0.007764722923164903
% es.normE (V/m) @ t=0.4
0.7319310853658287
% es.EX (V/m) @ t=0.4
0.508404838059234
% es.EY (V/m) @ t=0.4
0.0761278077011299
% es.EZ (V/m) @ t=0.4
-0.5076635157711984
% es.tEX (V/m) @ t=0.4
0.5084048380592314
% es.tEY (V/m) @ t=0.4
0
% es.tEZ (V/m) @ t=0.4
-0.5076635157711875
% es.Ex (V/m) @ t=0.4
0.508404838059234
% es.Ey (V/m) @ t=0.4
0.0761278077011299
% es.Ez (V/m) @ t=0.4
-0.5076635157711984
% es.tEx (V/m) @ t=0.4
0.5084048380592314
% es.tEy (V/m) @ t=0.4
0
% es.tEz (V/m) @ t=0.4
-0.5076635157711875
% V (V) @ t=0.4
0.007838019133993875
% es.normE (V/m) @ t=0.42
0.7387757435128854
% es.EX (V/m) @ t=0.42
0.5131591844507631
% es.EY (V/m) @ t=0.42
0.07683973985289808
% es.EZ (V/m) @ t=0.42
-0.5124109329355384
% es.tEX (V/m) @ t=0.42
0.5131591844507659
% es.tEY (V/m) @ t=0.42
0
% es.tEZ (V/m) @ t=0.42
-0.5124109329355311
% es.Ex (V/m) @ t=0.42
0.5131591844507631
% es.Ey (V/m) @ t=0.42
0.07683973985289808
% es.Ez (V/m) @ t=0.42
-0.5124109329355384
% es.tEx (V/m) @ t=0.42
0.5131591844507659
% es.tEy (V/m) @ t=0.42
0
% es.tEz (V/m) @ t=0.42
-0.5124109329355311
% V (V) @ t=0.42
0.00791131534482285
% es.normE (V/m) @ t=0.44
0.7456204016599468
% es.EX (V/m) @ t=0.44
0.517913530842303
% es.EY (V/m) @ t=0.44
0.0775516720046541
% es.EZ (V/m) @ t=0.44
-0.5171583500998731
% es.tEX (V/m) @ t=0.44
0.5179135308423053
% es.tEY (V/m) @ t=0.44
0
% es.tEZ (V/m) @ t=0.44
-0.5171583500998658
% es.Ex (V/m) @ t=0.44
0.517913530842303
% es.Ey (V/m) @ t=0.44
0.0775516720046541
% es.Ez (V/m) @ t=0.44
-0.5171583500998731
% es.tEx (V/m) @ t=0.44
0.5179135308423053
% es.tEy (V/m) @ t=0.44
0
% es.tEz (V/m) @ t=0.44
-0.5171583500998658
% V (V) @ t=0.44
0.00798461155565182
% es.normE (V/m) @ t=0.46
0.7524650598070052
% es.EX (V/m) @ t=0.46
0.5226678772338355
% es.EY (V/m) @ t=0.46
0.07826360415641315
% es.EZ (V/m) @ t=0.46
-0.5219057672642118
% es.tEX (V/m) @ t=0.46
0.52266787723384
% es.tEY (V/m) @ t=0.46
0
% es.tEZ (V/m) @ t=0.46
-0.5219057672642009
% es.Ex (V/m) @ t=0.46
0.5226678772338355
% es.Ey (V/m) @ t=0.46
0.07826360415641315
% es.Ez (V/m) @ t=0.46
-0.5219057672642118
% es.tEx (V/m) @ t=0.46
0.52266787723384
% es.tEy (V/m) @ t=0.46
0
% es.tEz (V/m) @ t=0.46
-0.5219057672642009
% V (V) @ t=0.46
0.008057907766480792
% es.normE (V/m) @ t=0.48
0.759309717954063
% es.EX (V/m) @ t=0.48
0.5274222236253748
% es.EY (V/m) @ t=0.48
0.07897553630817264
% es.EZ (V/m) @ t=0.48
-0.5266531844285438
% es.tEX (V/m) @ t=0.48
0.5274222236253754
% es.tEY (V/m) @ t=0.48
0
% es.tEZ (V/m) @ t=0.48
-0.5266531844285329
% es.Ex (V/m) @ t=0.48
0.5274222236253748
% es.Ey (V/m) @ t=0.48
0.07897553630817264
% es.Ez (V/m) @ t=0.48
-0.5266531844285438
% es.tEx (V/m) @ t=0.48
0.5274222236253754
% es.tEy (V/m) @ t=0.48
0
% es.tEz (V/m) @ t=0.48
-0.5266531844285329
% V (V) @ t=0.48
0.008131203977309766
% es.normE (V/m) @ t=0.5
0.76615437610113
% es.EX (V/m) @ t=0.5
0.532176570016912
% es.EY (V/m) @ t=0.5
0.07968746845993746
% es.EZ (V/m) @ t=0.5
-0.5314006015928865
% es.tEX (V/m) @ t=0.5
0.5321765700169148
% es.tEY (V/m) @ t=0.5
0
% es.tEZ (V/m) @ t=0.5
-0.5314006015928792
% es.Ex (V/m) @ t=0.5
0.532176570016912
% es.Ey (V/m) @ t=0.5
0.07968746845993746
% es.Ez (V/m) @ t=0.5
-0.5314006015928865
% es.tEx (V/m) @ t=0.5
0.5321765700169148
% es.tEy (V/m) @ t=0.5
0
% es.tEz (V/m) @ t=0.5
-0.5314006015928792
% V (V) @ t=0.5
0.008204500188138737
% es.normE (V/m) @ t=0.52
0.7729990342481926
% es.EX (V/m) @ t=0.52
0.5369309164084485
% es.EY (V/m) @ t=0.52
0.08039940061170406
% es.EZ (V/m) @ t=0.52
-0.5361480187572216
% es.tEX (V/m) @ t=0.52
0.5369309164084526
% es.tEY (V/m) @ t=0.52
0
% es.tEZ (V/m) @ t=0.52
-0.5361480187572072
% es.Ex (V/m) @ t=0.52
0.5369309164084485
% es.Ey (V/m) @ t=0.52
0.08039940061170406
% es.Ez (V/m) @ t=0.52
-0.5361480187572216
% es.tEx (V/m) @ t=0.52
0.5369309164084526
% es.tEy (V/m) @ t=0.52
0
% es.tEz (V/m) @ t=0.52
-0.5361480187572072
% V (V) @ t=0.52
0.00827779639896771
% es.normE (V/m) @ t=0.54
0.7798436923952564
% es.EX (V/m) @ t=0.54
0.5416852627999859
% es.EY (V/m) @ t=0.54
0.08111133276345645
% es.EZ (V/m) @ t=0.54
-0.5408954359215572
% es.tEX (V/m) @ t=0.54
0.541685262799992
% es.tEY (V/m) @ t=0.54
0
% es.tEZ (V/m) @ t=0.54
-0.5408954359215463
% es.Ex (V/m) @ t=0.54
0.5416852627999859
% es.Ey (V/m) @ t=0.54
0.08111133276345645
% es.Ez (V/m) @ t=0.54
-0.5408954359215572
% es.tEx (V/m) @ t=0.54
0.541685262799992
% es.tEy (V/m) @ t=0.54
0
% es.tEz (V/m) @ t=0.54
-0.5408954359215463
% V (V) @ t=0.54
0.008351092609796683
% es.normE (V/m) @ t=0.56
0.7873469279273804
% es.EX (V/m) @ t=0.56
0.5468970663140663
% es.EY (V/m) @ t=0.56
0.08189174214733994
% es.EZ (V/m) @ t=0.56
-0.5460996402225715
% es.tEX (V/m) @ t=0.56
0.5468970663140653
% es.tEY (V/m) @ t=0.56
0
% es.tEZ (V/m) @ t=0.56
-0.5460996402225571
% es.Ex (V/m) @ t=0.56
0.5468970663140663
% es.Ey (V/m) @ t=0.56
0.08189174214733994
% es.Ez (V/m) @ t=0.56
-0.5460996402225715
% es.tEx (V/m) @ t=0.56
0.5468970663140653
% es.tEy (V/m) @ t=0.56
0
% es.tEz (V/m) @ t=0.56
-0.5460996402225571
% V (V) @ t=0.56
0.008431442322737062
% es.normE (V/m) @ t=0.58
0.7949838166873742
% es.EX (V/m) @ t=0.58
0.5522017072416762
% es.EY (V/m) @ t=0.58
0.08268604846016356
% es.EZ (V/m) @ t=0.58
-0.5513965459686228
% es.tEX (V/m) @ t=0.58
0.5522017072416805
% es.tEY (V/m) @ t=0.58
0
% es.tEZ (V/m) @ t=0.58
-0.5513965459686081
% es.Ex (V/m) @ t=0.58
0.5522017072416762
% es.Ey (V/m) @ t=0.58
0.08268604846016356
% es.Ez (V/m) @ t=0.58
-0.5513965459686228
% es.tEx (V/m) @ t=0.58
0.5522017072416805
% es.tEy (V/m) @ t=0.58
0
% es.tEz (V/m) @ t=0.58
-0.5513965459686081
% V (V) @ t=0.58
0.008513223489818447
% es.normE (V/m) @ t=0.6
0.8026207054473713
% es.EX (V/m) @ t=0.6
0.5575063481692969
% es.EY (V/m) @ t=0.6
0.08348035477296092
% es.EZ (V/m) @ t=0.6
-0.5566934517146735
% es.tEX (V/m) @ t=0.6
0.5575063481693008
% es.tEY (V/m) @ t=0.6
0
% es.tEZ (V/m) @ t=0.6
-0.5566934517146627
% es.Ex (V/m) @ t=0.6
0.5575063481692969
% es.Ey (V/m) @ t=0.6
0.08348035477296092
% es.Ez (V/m) @ t=0.6
-0.5566934517146735
% es.tEx (V/m) @ t=0.6
0.5575063481693008
% es.tEy (V/m) @ t=0.6
0
% es.tEz (V/m) @ t=0.6
-0.5566934517146627
% V (V) @ t=0.6
0.008595004656899831
% es.normE (V/m) @ t=0.62
0.8102575942073542
% es.EX (V/m) @ t=0.62
0.5628109890969104
% es.EY (V/m) @ t=0.62
0.0842746610857607
% es.EZ (V/m) @ t=0.62
-0.5619903574607028
% es.tEX (V/m) @ t=0.62
0.5628109890969129
% es.tEY (V/m) @ t=0.62
0
% es.tEZ (V/m) @ t=0.62
-0.5619903574606955
% es.Ex (V/m) @ t=0.62
0.5628109890969104
% es.Ey (V/m) @ t=0.62
0.0842746610857607
% es.Ez (V/m) @ t=0.62
-0.5619903574607028
% es.tEx (V/m) @ t=0.62
0.5628109890969129
% es.tEy (V/m) @ t=0.62
0
% es.tEz (V/m) @ t=0.62
-0.5619903574606955
% V (V) @ t=0.62
0.008676785823981216
% es.normE (V/m) @ t=0.64
0.817894482967356
% es.EX (V/m) @ t=0.64
0.5681156300245235
% es.EY (V/m) @ t=0.64
0.0850689673985805
% es.EZ (V/m) @ t=0.64
-0.5672872632067676
% es.tEX (V/m) @ t=0.64
0.5681156300245256
% es.tEY (V/m) @ t=0.64
0
% es.tEZ (V/m) @ t=0.64
-0.5672872632067567
% es.Ex (V/m) @ t=0.64
0.5681156300245235
% es.Ey (V/m) @ t=0.64
0.0850689673985805
% es.Ez (V/m) @ t=0.64
-0.5672872632067676
% es.tEx (V/m) @ t=0.64
0.5681156300245256
% es.tEy (V/m) @ t=0.64
0
% es.tEz (V/m) @ t=0.64
-0.5672872632067567
% V (V) @ t=0.64
0.0087585669910626
% es.normE (V/m) @ t=0.66
0.8255313717273555
% es.EX (V/m) @ t=0.66
0.573420270952139
% es.EY (V/m) @ t=0.66
0.08586327371140051
% es.EZ (V/m) @ t=0.66
-0.5725841689528217
% es.tEX (V/m) @ t=0.66
0.573420270952143
% es.tEY (V/m) @ t=0.66
0
% es.tEZ (V/m) @ t=0.66
-0.5725841689528108
% es.Ex (V/m) @ t=0.66
0.573420270952139
% es.Ey (V/m) @ t=0.66
0.08586327371140051
% es.Ez (V/m) @ t=0.66
-0.5725841689528217
% es.tEx (V/m) @ t=0.66
0.573420270952143
% es.tEy (V/m) @ t=0.66
0
% es.tEz (V/m) @ t=0.66
-0.5725841689528108
% V (V) @ t=0.66
0.008840348158143985
% es.normE (V/m) @ t=0.68
0.8331682604873477
% es.EX (V/m) @ t=0.68
0.5787249118797545
% es.EY (V/m) @ t=0.68
0.08665758002419366
% es.EZ (V/m) @ t=0.68
-0.5778810746988656
% es.tEX (V/m) @ t=0.68
0.5787249118797548
% es.tEY (V/m) @ t=0.68
0
% es.tEZ (V/m) @ t=0.68
-0.5778810746988512
% es.Ex (V/m) @ t=0.68
0.5787249118797545
% es.Ey (V/m) @ t=0.68
0.08665758002419366
% es.Ez (V/m) @ t=0.68
-0.5778810746988656
% es.tEx (V/m) @ t=0.68
0.5787249118797548
% es.tEy (V/m) @ t=0.68
0
% es.tEz (V/m) @ t=0.68
-0.5778810746988512
% V (V) @ t=0.68
0.008922129325225372
% es.normE (V/m) @ t=0.7
0.8408051492473435
% es.EX (V/m) @ t=0.7
0.584029552807375
% es.EY (V/m) @ t=0.7
0.08745188633699791
% es.EZ (V/m) @ t=0.7
-0.5831779804449162
% es.tEX (V/m) @ t=0.7
0.5840295528073773
% es.tEY (V/m) @ t=0.7
0
% es.tEZ (V/m) @ t=0.7
-0.5831779804449053
% es.Ex (V/m) @ t=0.7
0.584029552807375
% es.Ey (V/m) @ t=0.7
0.08745188633699791
% es.Ez (V/m) @ t=0.7
-0.5831779804449162
% es.tEx (V/m) @ t=0.7
0.5840295528073773
% es.tEy (V/m) @ t=0.7
0
% es.tEz (V/m) @ t=0.7
-0.5831779804449053
% V (V) @ t=0.7
0.009003910492306755
% es.normE (V/m) @ t=0.72
0.8484420380073381
% es.EX (V/m) @ t=0.72
0.589334193734987
% es.EY (V/m) @ t=0.72
0.08824619264980416
% es.EZ (V/m) @ t=0.72
-0.5884748861909668
% es.tEX (V/m) @ t=0.72
0.5893341937349854
% es.tEY (V/m) @ t=0.72
0
% es.tEZ (V/m) @ t=0.72
-0.5884748861909523
% es.Ex (V/m) @ t=0.72
0.589334193734987
% es.Ey (V/m) @ t=0.72
0.08824619264980416
% es.Ez (V/m) @ t=0.72
-0.5884748861909668
% es.tEx (V/m) @ t=0.72
0.5893341937349854
% es.tEy (V/m) @ t=0.72
0
% es.tEz (V/m) @ t=0.72
-0.5884748861909523
% V (V) @ t=0.72
0.009085691659388138
% es.normE (V/m) @ t=0.74
0.8560789267673309
% es.EX (V/m) @ t=0.74
0.5946388346626006
% es.EY (V/m) @ t=0.74
0.08904049896261373
% es.EZ (V/m) @ t=0.74
-0.5937717919370138
% es.tEX (V/m) @ t=0.74
0.5946388346626046
% es.tEY (V/m) @ t=0.74
0
% es.tEZ (V/m) @ t=0.74
-0.5937717919369994
% es.Ex (V/m) @ t=0.74
0.5946388346626006
% es.Ey (V/m) @ t=0.74
0.08904049896261373
% es.Ez (V/m) @ t=0.74
-0.5937717919370138
% es.tEx (V/m) @ t=0.74
0.5946388346626046
% es.tEy (V/m) @ t=0.74
0
% es.tEz (V/m) @ t=0.74
-0.5937717919369994
% V (V) @ t=0.74
0.009167472826469522
% es.normE (V/m) @ t=0.76
0.8637158155273329
% es.EX (V/m) @ t=0.76
0.5999434755902229
% es.EY (V/m) @ t=0.76
0.08983480527543158
% es.EZ (V/m) @ t=0.76
-0.5990686976830653
% es.tEX (V/m) @ t=0.76
0.5999434755902233
% es.tEY (V/m) @ t=0.76
0
% es.tEZ (V/m) @ t=0.76
-0.5990686976830544
% es.Ex (V/m) @ t=0.76
0.5999434755902229
% es.Ey (V/m) @ t=0.76
0.08983480527543158
% es.Ez (V/m) @ t=0.76
-0.5990686976830653
% es.tEx (V/m) @ t=0.76
0.5999434755902233
% es.tEy (V/m) @ t=0.76
0
% es.tEz (V/m) @ t=0.76
-0.5990686976830544
% V (V) @ t=0.76
0.009249253993550907
% es.normE (V/m) @ t=0.78
0.8713527042873208
% es.EX (V/m) @ t=0.78
0.6052481165178334
% es.EY (V/m) @ t=0.78
0.09062911158823134
% es.EZ (V/m) @ t=0.78
-0.6043656034291118
% es.tEX (V/m) @ t=0.78
0.6052481165178389
% es.tEY (V/m) @ t=0.78
0
% es.tEZ (V/m) @ t=0.78
-0.6043656034290938
% es.Ex (V/m) @ t=0.78
0.6052481165178334
% es.Ey (V/m) @ t=0.78
0.09062911158823134
% es.Ez (V/m) @ t=0.78
-0.6043656034291118
% es.tEx (V/m) @ t=0.78
0.6052481165178389
% es.tEy (V/m) @ t=0.78
0
% es.tEz (V/m) @ t=0.78
-0.6043656034290938
% V (V) @ t=0.78
0.009331035160632294
% es.normE (V/m) @ t=0.8
0.8789895930473173
% es.EX (V/m) @ t=0.8
0.6105527574454506
% es.EY (V/m) @ t=0.8
0.09142341790103203
% es.EZ (V/m) @ t=0.8
-0.6096625091751589
% es.tEX (V/m) @ t=0.8
0.6105527574454506
% es.tEY (V/m) @ t=0.8
0
% es.tEZ (V/m) @ t=0.8
-0.609662509175148
% es.Ex (V/m) @ t=0.8
0.6105527574454506
% es.Ey (V/m) @ t=0.8
0.09142341790103203
% es.Ez (V/m) @ t=0.8
-0.6096625091751589
% es.tEx (V/m) @ t=0.8
0.6105527574454506
% es.tEy (V/m) @ t=0.8
0
% es.tEz (V/m) @ t=0.8
-0.609662509175148
% V (V) @ t=0.8
0.009412816327713677
% es.normE (V/m) @ t=0.82
0.8868530595759586
% es.EX (V/m) @ t=0.82
0.6160147806010035
% es.EY (V/m) @ t=0.82
0.09224129250439983
% es.EZ (V/m) @ t=0.82
-0.6151165679026256
% es.tEX (V/m) @ t=0.82
0.6160147806010072
% es.tEY (V/m) @ t=0.82
0
% es.tEZ (V/m) @ t=0.82
-0.6151165679026147
% es.Ex (V/m) @ t=0.82
0.6160147806010035
% es.Ey (V/m) @ t=0.82
0.09224129250439983
% es.Ez (V/m) @ t=0.82
-0.6151165679026256
% es.tEx (V/m) @ t=0.82
0.6160147806010072
% es.tEy (V/m) @ t=0.82
0
% es.tEz (V/m) @ t=0.82
-0.6151165679026147
% V (V) @ t=0.82
0.009497023748799757
% es.normE (V/m) @ t=0.84
0.8953893680971465
% es.EX (V/m) @ t=0.84
0.6219441636942524
% es.EY (V/m) @ t=0.84
0.09312915515500236
% es.EZ (V/m) @ t=0.84
-0.621037305800703
% es.tEX (V/m) @ t=0.84
0.6219441636942538
% es.tEY (V/m) @ t=0.84
0
% es.tEZ (V/m) @ t=0.84
-0.6210373058006957
% es.Ex (V/m) @ t=0.84
0.6219441636942524
% es.Ey (V/m) @ t=0.84
0.09312915515500236
% es.Ez (V/m) @ t=0.84
-0.621037305800703
% es.tEx (V/m) @ t=0.84
0.6219441636942538
% es.tEy (V/m) @ t=0.84
0
% es.tEz (V/m) @ t=0.84
-0.6210373058006957
% V (V) @ t=0.84
0.00958843613791352
% es.normE (V/m) @ t=0.86
0.903925676618321
% es.EX (V/m) @ t=0.86
0.6278735467874845
% es.EY (V/m) @ t=0.86
0.09401701780559363
% es.EZ (V/m) @ t=0.86
-0.626958043698777
% es.tEX (V/m) @ t=0.86
0.6278735467874896
% es.tEY (V/m) @ t=0.86
0
% es.tEZ (V/m) @ t=0.86
-0.6269580436987696
% es.Ex (V/m) @ t=0.86
0.6278735467874845
% es.Ey (V/m) @ t=0.86
0.09401701780559363
% es.Ez (V/m) @ t=0.86
-0.626958043698777
% es.tEx (V/m) @ t=0.86
0.6278735467874896
% es.tEy (V/m) @ t=0.86
0
% es.tEz (V/m) @ t=0.86
-0.6269580436987696
% V (V) @ t=0.86
0.009679848527027286
% es.normE (V/m) @ t=0.88
0.9124619851395038
% es.EX (V/m) @ t=0.88
0.6338029298807277
% es.EY (V/m) @ t=0.88
0.09490488045620599
% es.EZ (V/m) @ t=0.88
-0.6328787815968517
% es.tEX (V/m) @ t=0.88
0.6338029298807362
% es.tEY (V/m) @ t=0.88
0
% es.tEZ (V/m) @ t=0.88
-0.6328787815968373
% es.Ex (V/m) @ t=0.88
0.6338029298807277
% es.Ey (V/m) @ t=0.88
0.09490488045620599
% es.Ez (V/m) @ t=0.88
-0.6328787815968517
% es.tEx (V/m) @ t=0.88
0.6338029298807362
% es.tEy (V/m) @ t=0.88
0
% es.tEz (V/m) @ t=0.88
-0.6328787815968373
% V (V) @ t=0.88
0.009771260916141045
% es.normE (V/m) @ t=0.9
0.9209982936606739
% es.EX (V/m) @ t=0.9
0.6397323129739696
% es.EY (V/m) @ t=0.9
0.09579274310680613
% es.EZ (V/m) @ t=0.9
-0.638799519494915
% es.tEX (V/m) @ t=0.9
0.6397323129739694
% es.tEY (V/m) @ t=0.9
0
% es.tEZ (V/m) @ t=0.9
-0.6387995194949041
% es.Ex (V/m) @ t=0.9
0.6397323129739696
% es.Ey (V/m) @ t=0.9
0.09579274310680613
% es.Ez (V/m) @ t=0.9
-0.638799519494915
% es.tEx (V/m) @ t=0.9
0.6397323129739694
% es.tEy (V/m) @ t=0.9
0
% es.tEz (V/m) @ t=0.9
-0.6387995194949041
% V (V) @ t=0.9
0.009862673305254806
% es.normE (V/m) @ t=0.92
0.9295346021818546
% es.EX (V/m) @ t=0.92
0.6456616960672088
% es.EY (V/m) @ t=0.92
0.09668060575740445
% es.EZ (V/m) @ t=0.92
-0.6447202573929889
% es.tEX (V/m) @ t=0.92
0.6456616960672119
% es.tEY (V/m) @ t=0.92
0
% es.tEZ (V/m) @ t=0.92
-0.644720257392978
% es.Ex (V/m) @ t=0.92
0.6456616960672088
% es.Ey (V/m) @ t=0.92
0.09668060575740445
% es.Ez (V/m) @ t=0.92
-0.6447202573929889
% es.tEx (V/m) @ t=0.92
0.6456616960672119
% es.tEy (V/m) @ t=0.92
0
% es.tEz (V/m) @ t=0.92
-0.644720257392978
% V (V) @ t=0.92
0.009954085694368573
% es.normE (V/m) @ t=0.94
0.9380709107030303
% es.EX (V/m) @ t=0.94
0.6515910791604484
% es.EY (V/m) @ t=0.94
0.09756846840801148
% es.EZ (V/m) @ t=0.94
-0.6506409952910566
% es.tEX (V/m) @ t=0.94
0.6515910791604518
% es.tEY (V/m) @ t=0.94
0
% es.tEZ (V/m) @ t=0.94
-0.6506409952910457
% es.Ex (V/m) @ t=0.94
0.6515910791604484
% es.Ey (V/m) @ t=0.94
0.09756846840801148
% es.Ez (V/m) @ t=0.94
-0.6506409952910566
% es.tEx (V/m) @ t=0.94
0.6515910791604518
% es.tEy (V/m) @ t=0.94
0
% es.tEz (V/m) @ t=0.94
-0.6506409952910457
% V (V) @ t=0.94
0.010045498083482336
% es.normE (V/m) @ t=0.96
0.9466072192242163
% es.EX (V/m) @ t=0.96
0.6575204622536923
% es.EY (V/m) @ t=0.96
0.09845633105860274
% es.EZ (V/m) @ t=0.96
-0.656561733189134
% es.tEX (V/m) @ t=0.96
0.6575204622536921
% es.tEY (V/m) @ t=0.96
0
% es.tEZ (V/m) @ t=0.96
-0.6565617331891267
% es.Ex (V/m) @ t=0.96
0.6575204622536923
% es.Ey (V/m) @ t=0.96
0.09845633105860274
% es.Ez (V/m) @ t=0.96
-0.656561733189134
% es.tEx (V/m) @ t=0.96
0.6575204622536921
% es.tEy (V/m) @ t=0.96
0
% es.tEz (V/m) @ t=0.96
-0.6565617331891267
% V (V) @ t=0.96
0.010136910472596097
% es.normE (V/m) @ t=0.98
0.9551435277453842
% es.EX (V/m) @ t=0.98
0.6634498453469295
% es.EY (V/m) @ t=0.98
0.09934419370920994
% es.EZ (V/m) @ t=0.98
-0.6624824710871937
% es.tEX (V/m) @ t=0.98
0.6634498453469311
% es.tEY (V/m) @ t=0.98
0
% es.tEZ (V/m) @ t=0.98
-0.6624824710871864
% es.Ex (V/m) @ t=0.98
0.6634498453469295
% es.Ey (V/m) @ t=0.98
0.09934419370920994
% es.Ez (V/m) @ t=0.98
-0.6624824710871937
% es.tEx (V/m) @ t=0.98
0.6634498453469311
% es.tEy (V/m) @ t=0.98
0
% es.tEz (V/m) @ t=0.98
-0.6624824710871864
% V (V) @ t=0.98
0.010228322861709861
% es.normE (V/m) @ t=1
0.9636798362665693
% es.EX (V/m) @ t=1
0.6693792284401694
% es.EY (V/m) @ t=1
0.10023205635980992
% es.EZ (V/m) @ t=1
-0.6684032089852754
% es.tEX (V/m) @ t=1
0.6693792284401745
% es.tEY (V/m) @ t=1
0
% es.tEZ (V/m) @ t=1
-0.6684032089852607
% es.Ex (V/m) @ t=1
0.6693792284401694
% es.Ey (V/m) @ t=1
0.10023205635980992
% es.Ez (V/m) @ t=1
-0.6684032089852754
% es.tEx (V/m) @ t=1
0.6693792284401745
% es.tEy (V/m) @ t=1
0
% es.tEz (V/m) @ t=1
-0.6684032089852607
% V (V) @ t=1
0.010319735250823626
% es.normE (V/m) @ t=1.02
0.9722161447877444
% es.EX (V/m) @ t=1.02
0.6753086115334104
% es.EY (V/m) @ t=1.02
0.10111991901041423
% es.EZ (V/m) @ t=1.02
-0.6743239468833386
% es.tEX (V/m) @ t=1.02
0.675308611533417
% es.tEY (V/m) @ t=1.02
0
% es.tEZ (V/m) @ t=1.02
-0.6743239468833346
% es.Ex (V/m) @ t=1.02
0.6753086115334104
% es.Ey (V/m) @ t=1.02
0.10111991901041423
% es.Ez (V/m) @ t=1.02
-0.6743239468833386
% es.tEx (V/m) @ t=1.02
0.675308611533417
% es.tEy (V/m) @ t=1.02
0
% es.tEz (V/m) @ t=1.02
-0.6743239468833346
% V (V) @ t=1.02
0.010411147639937389
% es.normE (V/m) @ t=1.04
0.980752453308932
% es.EX (V/m) @ t=1.04
0.6812379946266518