% Model:              1 neuron.mph
% Version:            COMSOL 6.1.0.252
% Date:               Mar 18 2023, 12:00
% Dimension:          0
% Nodes:              14017
% Expressions:        14017
% Description:        Electric field norm, Electric field, X component, Electric field, Y component, Electric field, Z component, Tangential electric field, X component, Tangential electric field, Y component, Tangential electric field, Z component, Electric field, x component, Electric field, y component, Electric field, z component, Tangential electric field, x component, Tangential electric field, y component, Tangential electric field, z component, Electric potential
% Length unit:        mm
% x
2
% y
12.2
% z
1.33
% es.normE (V/m) @ t=0
1.3055019720660073
% es.EX (V/m) @ t=0
-1.200771892618298
% es.EY (V/m) @ t=0
0.09366817514765424
% es.EZ (V/m) @ t=0
0.5021832610730037
% es.tEX (V/m) @ t=0
-1.2007718926182935
% es.tEY (V/m) @ t=0
0
% es.tEZ (V/m) @ t=0
0.5021832610730002
% es.Ex (V/m) @ t=0
-1.200771892618298
% es.Ey (V/m) @ t=0
0.09366817514765424
% es.Ez (V/m) @ t=0
0.5021832610730037
% es.tEx (V/m) @ t=0
-1.2007718926182935
% es.tEy (V/m) @ t=0
0
% es.tEz (V/m) @ t=0
0.5021832610730002
% V (V) @ t=0
0.007288883760339347
% es.normE (V/m) @ t=0.02
1.1275758769073456
% es.EX (V/m) @ t=0.02
-1.0371193972825012
% es.EY (V/m) @ t=0.02
0.08090219842290935
% es.EZ (V/m) @ t=0.02
0.4337410020891325
% es.tEX (V/m) @ t=0.02
-1.0371193972825008
% es.tEY (V/m) @ t=0.02
0
% es.tEZ (V/m) @ t=0.02
0.43374100208913546
% es.Ex (V/m) @ t=0.02
-1.0371193972825012
% es.Ey (V/m) @ t=0.02
0.08090219842290935
% es.Ez (V/m) @ t=0.02
0.4337410020891325
% es.tEx (V/m) @ t=0.02
-1.0371193972825008
% es.tEy (V/m) @ t=0.02
0
% es.tEz (V/m) @ t=0.02
0.43374100208913546
% V (V) @ t=0.02
0.006295485957584283
% es.normE (V/m) @ t=0.04
1.1379472827116284
% es.EX (V/m) @ t=0.04
-1.0466587880967282
% es.EY (V/m) @ t=0.04
0.0816463315834196
% es.EZ (V/m) @ t=0.04
0.43773053614318397
% es.tEX (V/m) @ t=0.04
-1.0466587880967246
% es.tEY (V/m) @ t=0.04
0
% es.tEZ (V/m) @ t=0.04
0.4377305361431816
% es.Ex (V/m) @ t=0.04
-1.0466587880967282
% es.Ey (V/m) @ t=0.04
0.0816463315834196
% es.Ez (V/m) @ t=0.04
0.43773053614318397
% es.tEx (V/m) @ t=0.04
-1.0466587880967246
% es.tEy (V/m) @ t=0.04
0
% es.tEz (V/m) @ t=0.04
0.4377305361431816
% V (V) @ t=0.04
0.006353391718639612
% es.normE (V/m) @ t=0.06
1.1484139593325504
% es.EX (V/m) @ t=0.06
-1.0562858065754583
% es.EY (V/m) @ t=0.06
0.0823973014630634
% es.EZ (V/m) @ t=0.06
0.44175671835179836
% es.tEX (V/m) @ t=0.06
-1.0562858065754535
% es.tEY (V/m) @ t=0.06
0
% es.tEZ (V/m) @ t=0.06
0.4417567183517974
% es.Ex (V/m) @ t=0.06
-1.0562858065754583
% es.Ey (V/m) @ t=0.06
0.0823973014630634
% es.Ez (V/m) @ t=0.06
0.44175671835179836
% es.tEx (V/m) @ t=0.06
-1.0562858065754535
% es.tEy (V/m) @ t=0.06
0
% es.tEz (V/m) @ t=0.06
0.4417567183517974
% V (V) @ t=0.06
0.006411829356508131
% es.normE (V/m) @ t=0.08
1.1590361936511095
% es.EX (V/m) @ t=0.08
-1.066055903400755
% es.EY (V/m) @ t=0.08
0.08315943307452595
% es.EZ (V/m) @ t=0.08
0.44584273880856023
% es.tEX (V/m) @ t=0.08
-1.0660559034007502
% es.tEY (V/m) @ t=0.08
0
% es.tEZ (V/m) @ t=0.08
0.44584273880856173
% es.Ex (V/m) @ t=0.08
-1.066055903400755
% es.Ey (V/m) @ t=0.08
0.08315943307452595
% es.Ez (V/m) @ t=0.08
0.44584273880856023
% es.tEx (V/m) @ t=0.08
-1.0660559034007502
% es.tEy (V/m) @ t=0.08
0
% es.tEz (V/m) @ t=0.08
0.44584273880856173
% V (V) @ t=0.08
0.006471135483185963
% es.normE (V/m) @ t=0.1
1.1697751901284155
% es.EX (V/m) @ t=0.1
-1.075933395339693
% es.EY (V/m) @ t=0.1
0.0839299427214284
% es.EZ (V/m) @ t=0.1
0.449973674066287
% es.tEX (V/m) @ t=0.1
-1.0759333953396863
% es.tEY (V/m) @ t=0.1
0
% es.tEZ (V/m) @ t=0.1
0.44997367406628896
% es.Ex (V/m) @ t=0.1
-1.075933395339693
% es.Ey (V/m) @ t=0.1
0.0839299427214284
% es.Ez (V/m) @ t=0.1
0.449973674066287
% es.tEx (V/m) @ t=0.1
-1.0759333953396863
% es.tEy (V/m) @ t=0.1
0
% es.tEz (V/m) @ t=0.1
0.44997367406628896
% V (V) @ t=0.1
0.0065310935006397995
% es.normE (V/m) @ t=0.12
1.180514186605725
% es.EX (V/m) @ t=0.12
-1.0858108872786327
% es.EY (V/m) @ t=0.12
0.08470045236832724
% es.EZ (V/m) @ t=0.12
0.4541046093240211
% es.tEX (V/m) @ t=0.12
-1.0858108872786234
% es.tEY (V/m) @ t=0.12
0
% es.tEZ (V/m) @ t=0.12
0.45410460932401975
% es.Ex (V/m) @ t=0.12
-1.0858108872786327
% es.Ey (V/m) @ t=0.12
0.08470045236832724
% es.Ez (V/m) @ t=0.12
0.4541046093240211
% es.tEx (V/m) @ t=0.12
-1.0858108872786234
% es.tEy (V/m) @ t=0.12
0
% es.tEz (V/m) @ t=0.12
0.45410460932401975
% V (V) @ t=0.12
0.006591051518093636
% es.normE (V/m) @ t=0.14
1.1913410787410195
% es.EX (V/m) @ t=0.14
-1.0957692233488374
% es.EY (V/m) @ t=0.14
0.08547726969079306
% es.EZ (V/m) @ t=0.14
0.4582693558026289
% es.tEX (V/m) @ t=0.14
-1.0957692233488308
% es.tEY (V/m) @ t=0.14
0
% es.tEZ (V/m) @ t=0.14
0.4582693558026314
% es.Ex (V/m) @ t=0.14
-1.0957692233488374
% es.Ey (V/m) @ t=0.14
0.08547726969079306
% es.Ez (V/m) @ t=0.14
0.4582693558026289
% es.tEx (V/m) @ t=0.14
-1.0957692233488308
% es.tEy (V/m) @ t=0.14
0
% es.tEz (V/m) @ t=0.14
0.4582693558026314
% V (V) @ t=0.14
0.006651500231678588
% es.normE (V/m) @ t=0.16
1.2026565195458245
% es.EX (V/m) @ t=0.16
-1.10617691372929
% es.EY (V/m) @ t=0.16
0.08628914683958316
% es.EZ (V/m) @ t=0.16
0.4626220345107838
% es.tEX (V/m) @ t=0.16
-1.1061769137292865
% es.tEY (V/m) @ t=0.16
0
% es.tEZ (V/m) @ t=0.16
0.46262203451077966
% es.Ex (V/m) @ t=0.16
-1.10617691372929
% es.Ey (V/m) @ t=0.16
0.08628914683958316
% es.Ez (V/m) @ t=0.16
0.4626220345107838
% es.tEx (V/m) @ t=0.16
-1.1061769137292865
% es.tEy (V/m) @ t=0.16
0
% es.tEz (V/m) @ t=0.16
0.46262203451077966
% V (V) @ t=0.16
0.006714676371708662
% es.normE (V/m) @ t=0.18
1.2139719603506396
% es.EX (V/m) @ t=0.18
-1.1165846041097538
% es.EY (V/m) @ t=0.18
0.08710102398835023
% es.EZ (V/m) @ t=0.18
0.4669747132189404
% es.tEX (V/m) @ t=0.18
-1.1165846041097494
% es.tEY (V/m) @ t=0.18
0
% es.tEZ (V/m) @ t=0.18
0.4669747132189386
% es.Ex (V/m) @ t=0.18
-1.1165846041097538
% es.Ey (V/m) @ t=0.18
0.08710102398835023
% es.Ez (V/m) @ t=0.18
0.4669747132189404
% es.tEx (V/m) @ t=0.18
-1.1165846041097494
% es.tEy (V/m) @ t=0.18
0
% es.tEz (V/m) @ t=0.18
0.4669747132189386
% V (V) @ t=0.18
0.0067778525117387365
% es.normE (V/m) @ t=0.2
1.2252874011554566
% es.EX (V/m) @ t=0.2
-1.126992294490214
% es.EY (V/m) @ t=0.2
0.08791290113714667
% es.EZ (V/m) @ t=0.2
0.4713273919271049
% es.tEX (V/m) @ t=0.2
-1.126992294490206
% es.tEY (V/m) @ t=0.2
0
% es.tEZ (V/m) @ t=0.2
0.47132739192710815
% es.Ex (V/m) @ t=0.2
-1.126992294490214
% es.Ey (V/m) @ t=0.2
0.08791290113714667
% es.Ez (V/m) @ t=0.2
0.4713273919271049
% es.tEx (V/m) @ t=0.2
-1.126992294490206
% es.tEy (V/m) @ t=0.2
0
% es.tEz (V/m) @ t=0.2
0.47132739192710815
% V (V) @ t=0.2
0.0068410286517688115
% es.normE (V/m) @ t=0.22
1.236602841960268
% es.EX (V/m) @ t=0.22
-1.1373999848706742
% es.EY (V/m) @ t=0.22
0.08872477828592795
% es.EZ (V/m) @ t=0.22
0.47568007063525714
% es.tEX (V/m) @ t=0.22
-1.1373999848706697
% es.tEY (V/m) @ t=0.22
0
% es.tEZ (V/m) @ t=0.22
0.4756800706352564
% es.Ex (V/m) @ t=0.22
-1.1373999848706742
% es.Ey (V/m) @ t=0.22
0.08872477828592795
% es.Ez (V/m) @ t=0.22
0.47568007063525714
% es.tEx (V/m) @ t=0.22
-1.1373999848706697
% es.tEy (V/m) @ t=0.22
0
% es.tEz (V/m) @ t=0.22
0.4756800706352564
% V (V) @ t=0.22
0.006904204791798887
% es.normE (V/m) @ t=0.24
1.2479182827650739
% es.EX (V/m) @ t=0.24
-1.1478076752511268
% es.EY (V/m) @ t=0.24
0.08953665543471279
% es.EZ (V/m) @ t=0.24
0.4800327493434137
% es.tEX (V/m) @ t=0.24
-1.1478076752511228
% es.tEY (V/m) @ t=0.24
0
% es.tEZ (V/m) @ t=0.24
0.4800327493434082
% es.Ex (V/m) @ t=0.24
-1.1478076752511268
% es.Ey (V/m) @ t=0.24
0.08953665543471279
% es.Ez (V/m) @ t=0.24
0.4800327493434137
% es.tEx (V/m) @ t=0.24
-1.1478076752511228
% es.tEy (V/m) @ t=0.24
0
% es.tEz (V/m) @ t=0.24
0.4800327493434082
% V (V) @ t=0.24
0.006967380931828962
% es.normE (V/m) @ t=0.26
1.2592337235698827
% es.EX (V/m) @ t=0.26
-1.1582153656315826
% es.EY (V/m) @ t=0.26
0.0903485325835065
% es.EZ (V/m) @ t=0.26
0.48438542805156765
% es.tEX (V/m) @ t=0.26
-1.1582153656315777
% es.tEY (V/m) @ t=0.26
0
% es.tEZ (V/m) @ t=0.26
0.48438542805156715
% es.Ex (V/m) @ t=0.26
-1.1582153656315826
% es.Ey (V/m) @ t=0.26
0.0903485325835065
% es.Ez (V/m) @ t=0.26
0.48438542805156765
% es.tEx (V/m) @ t=0.26
-1.1582153656315777
% es.tEy (V/m) @ t=0.26
0
% es.tEz (V/m) @ t=0.26
0.48438542805156715
% V (V) @ t=0.26
0.007030557071859037
% es.normE (V/m) @ t=0.28
1.2709579351091331
% es.EX (V/m) @ t=0.28
-1.1689990806441823
% es.EY (V/m) @ t=0.28
0.09118957266963984
% es.EZ (V/m) @ t=0.28
0.4888952584186736
% es.tEX (V/m) @ t=0.28
-1.1689990806441752
% es.tEY (V/m) @ t=0.28
0
% es.tEZ (V/m) @ t=0.28
0.4888952584186761
% es.Ex (V/m) @ t=0.28
-1.1689990806441823
% es.Ey (V/m) @ t=0.28
0.09118957266963984
% es.Ez (V/m) @ t=0.28
0.4888952584186736
% es.tEx (V/m) @ t=0.28
-1.1689990806441752
% es.tEy (V/m) @ t=0.28
0
% es.tEz (V/m) @ t=0.28
0.4888952584186761
% V (V) @ t=0.28
0.007096021071540815
% es.normE (V/m) @ t=0.3
1.283571168364905
% es.EX (V/m) @ t=0.3
-1.1806005989769806
% es.EY (V/m) @ t=0.3
0.09209403824695533
% es.EZ (V/m) @ t=0.3
0.49374687264109257
% es.tEX (V/m) @ t=0.3
-1.1806005989769748
% es.tEY (V/m) @ t=0.3
0
% es.tEZ (V/m) @ t=0.3
0.49374687264108985
% es.Ex (V/m) @ t=0.3
-1.1806005989769806
% es.Ey (V/m) @ t=0.3
0.09209403824695533
% es.Ez (V/m) @ t=0.3
0.49374687264109257
% es.tEx (V/m) @ t=0.3
-1.1806005989769748
% es.tEy (V/m) @ t=0.3
0
% es.tEz (V/m) @ t=0.3
0.49374687264108985
% V (V) @ t=0.3
0.007166460860198544
% es.normE (V/m) @ t=0.32
1.2961844016210446
% es.EX (V/m) @ t=0.32
-1.1922021173097708
% es.EY (V/m) @ t=0.32
0.09299850382427255
% es.EZ (V/m) @ t=0.32
0.49859848686349834
% es.tEX (V/m) @ t=0.32
-1.1922021173097646
% es.tEY (V/m) @ t=0.32
0
% es.tEZ (V/m) @ t=0.32
0.4985984868634965
% es.Ex (V/m) @ t=0.32
-1.1922021173097708
% es.Ey (V/m) @ t=0.32
0.09299850382427255
% es.Ez (V/m) @ t=0.32
0.49859848686349834
% es.tEx (V/m) @ t=0.32
-1.1922021173097646
% es.tEy (V/m) @ t=0.32
0
% es.tEz (V/m) @ t=0.32
0.4985984868634965
% V (V) @ t=0.32
0.007236900648856274
% es.normE (V/m) @ t=0.34
1.3087976348775667
% es.EX (V/m) @ t=0.34
-1.203803635642569
% es.EY (V/m) @ t=0.34
0.09390296940159959
% es.EZ (V/m) @ t=0.34
0.5034501010859191
% es.tEX (V/m) @ t=0.34
-1.2038036356425659
% es.tEY (V/m) @ t=0.34
0
% es.tEZ (V/m) @ t=0.34
0.5034501010859209
% es.Ex (V/m) @ t=0.34
-1.203803635642569
% es.Ey (V/m) @ t=0.34
0.09390296940159959
% es.Ez (V/m) @ t=0.34
0.5034501010859191
% es.tEx (V/m) @ t=0.34
-1.2038036356425659
% es.tEy (V/m) @ t=0.34
0
% es.tEz (V/m) @ t=0.34
0.5034501010859209
% V (V) @ t=0.34
0.007307340437514005
% es.normE (V/m) @ t=0.36
1.3214108681344383
% es.EX (V/m) @ t=0.36
-1.2154051539753636
% es.EY (V/m) @ t=0.36
0.09480743497890787
% es.EZ (V/m) @ t=0.36
0.5083017153083293
% es.tEX (V/m) @ t=0.36
-1.2154051539753619
% es.tEY (V/m) @ t=0.36
0
% es.tEZ (V/m) @ t=0.36
0.5083017153083276
% es.Ex (V/m) @ t=0.36
-1.2154051539753636
% es.Ey (V/m) @ t=0.36
0.09480743497890787
% es.Ez (V/m) @ t=0.36
0.5083017153083293
% es.tEx (V/m) @ t=0.36
-1.2154051539753619
% es.tEy (V/m) @ t=0.36
0
% es.tEz (V/m) @ t=0.36
0.5083017153083276
% V (V) @ t=0.36
0.007377780226171735
% es.normE (V/m) @ t=0.38
1.334024101391659
% es.EX (V/m) @ t=0.38
-1.2270066723081579
% es.EY (V/m) @ t=0.38
0.09571190055622425
% es.EZ (V/m) @ t=0.38
0.5131533295307402
% es.tEX (V/m) @ t=0.38
-1.2270066723081525
% es.tEY (V/m) @ t=0.38
0
% es.tEZ (V/m) @ t=0.38
0.5131533295307413
% es.Ex (V/m) @ t=0.38
-1.2270066723081579
% es.Ey (V/m) @ t=0.38
0.09571190055622425
% es.Ez (V/m) @ t=0.38
0.5131533295307402
% es.tEx (V/m) @ t=0.38
-1.2270066723081525
% es.tEy (V/m) @ t=0.38
0
% es.tEz (V/m) @ t=0.38
0.5131533295307413
% V (V) @ t=0.38
0.007448220014829463
% es.normE (V/m) @ t=0.4
1.3466373346492206
% es.EX (V/m) @ t=0.4
-1.2386081906409547
% es.EY (V/m) @ t=0.4
0.09661636613354146
% es.EZ (V/m) @ t=0.4
0.5180049437531522
% es.tEX (V/m) @ t=0.4
-1.2386081906409538
% es.tEY (V/m) @ t=0.4
0
% es.tEZ (V/m) @ t=0.4
0.518004943753148
% es.Ex (V/m) @ t=0.4
-1.2386081906409547
% es.Ey (V/m) @ t=0.4
0.09661636613354146
% es.Ez (V/m) @ t=0.4
0.5180049437531522
% es.tEx (V/m) @ t=0.4
-1.2386081906409538
% es.tEy (V/m) @ t=0.4
0
% es.tEz (V/m) @ t=0.4
0.518004943753148
% V (V) @ t=0.4
0.007518659803487192
% es.normE (V/m) @ t=0.42
1.3592505679071103
% es.EX (V/m) @ t=0.42
-1.2502097089737507
% es.EY (V/m) @ t=0.42
0.09752083171085701
% es.EZ (V/m) @ t=0.42
0.522856557975564
% es.tEX (V/m) @ t=0.42
-1.2502097089737436
% es.tEY (V/m) @ t=0.42
0
% es.tEZ (V/m) @ t=0.42
0.5228565579755617
% es.Ex (V/m) @ t=0.42
-1.2502097089737507
% es.Ey (V/m) @ t=0.42
0.09752083171085701
% es.Ez (V/m) @ t=0.42
0.522856557975564
% es.tEx (V/m) @ t=0.42
-1.2502097089737436
% es.tEy (V/m) @ t=0.42
0
% es.tEz (V/m) @ t=0.42
0.5228565579755617
% V (V) @ t=0.42
0.007589099592144922
% es.normE (V/m) @ t=0.44
1.3718638011653153
% es.EX (V/m) @ t=0.44
-1.2618112273065418
% es.EY (V/m) @ t=0.44
0.09842529728816884
% es.EZ (V/m) @ t=0.44
0.5277081721979759
% es.tEX (V/m) @ t=0.44
-1.261811227306536
% es.tEY (V/m) @ t=0.44
0
% es.tEZ (V/m) @ t=0.44
0.5277081721979755
% es.Ex (V/m) @ t=0.44
-1.2618112273065418
% es.Ey (V/m) @ t=0.44
0.09842529728816884
% es.Ez (V/m) @ t=0.44
0.5277081721979759
% es.tEx (V/m) @ t=0.44
-1.261811227306536
% es.tEy (V/m) @ t=0.44
0
% es.tEz (V/m) @ t=0.44
0.5277081721979755
% V (V) @ t=0.44
0.007659539380802651
% es.normE (V/m) @ t=0.46
1.3844770344238355
% es.EX (V/m) @ t=0.46
-1.2734127456393365
% es.EY (V/m) @ t=0.46
0.09932976286547895
% es.EZ (V/m) @ t=0.46
0.5325597864203915
% es.tEX (V/m) @ t=0.46
-1.2734127456393294
% es.tEY (V/m) @ t=0.46
0
% es.tEZ (V/m) @ t=0.46
0.5325597864203928
% es.Ex (V/m) @ t=0.46
-1.2734127456393365
% es.Ey (V/m) @ t=0.46
0.09932976286547895
% es.Ez (V/m) @ t=0.46
0.5325597864203915
% es.tEx (V/m) @ t=0.46
-1.2734127456393294
% es.tEy (V/m) @ t=0.46
0
% es.tEz (V/m) @ t=0.46
0.5325597864203928
% V (V) @ t=0.46
0.00772997916946038
% es.normE (V/m) @ t=0.48
1.397090267682653
% es.EX (V/m) @ t=0.48
-1.2850142639721276
% es.EY (V/m) @ t=0.48
0.10023422844281393
% es.EZ (V/m) @ t=0.48
0.5374114006427964
% es.tEX (V/m) @ t=0.48
-1.2850142639721236
% es.tEY (V/m) @ t=0.48
0
% es.tEZ (V/m) @ t=0.48
0.5374114006427959
% es.Ex (V/m) @ t=0.48
-1.2850142639721276
% es.Ey (V/m) @ t=0.48
0.10023422844281393
% es.Ez (V/m) @ t=0.48
0.5374114006427964
% es.tEx (V/m) @ t=0.48
-1.2850142639721236
% es.tEy (V/m) @ t=0.48
0
% es.tEz (V/m) @ t=0.48
0.5374114006427959
% V (V) @ t=0.48
0.00780041895811811
% es.normE (V/m) @ t=0.5
1.409703500941779
% es.EX (V/m) @ t=0.5
-1.296615782304929
% es.EY (V/m) @ t=0.5
0.10113869402011882
% es.EZ (V/m) @ t=0.5
0.5422630148652179
% es.tEX (V/m) @ t=0.5
-1.2966157823049267
% es.tEY (V/m) @ t=0.5
0
% es.tEZ (V/m) @ t=0.5
0.5422630148652203
% es.Ex (V/m) @ t=0.5
-1.296615782304929
% es.Ey (V/m) @ t=0.5
0.10113869402011882
% es.Ez (V/m) @ t=0.5
0.5422630148652179
% es.tEx (V/m) @ t=0.5
-1.2966157823049267
% es.tEy (V/m) @ t=0.5
0
% es.tEz (V/m) @ t=0.5
0.5422630148652203
% V (V) @ t=0.5
0.00787085874677584
% es.normE (V/m) @ t=0.52
1.4223167342011833
% es.EX (V/m) @ t=0.52
-1.3082173006377253
% es.EY (V/m) @ t=0.52
0.10204315959744847
% es.EZ (V/m) @ t=0.52
0.5471146290876263
% es.tEX (V/m) @ t=0.52
-1.3082173006377165
% es.tEY (V/m) @ t=0.52
0
% es.tEZ (V/m) @ t=0.52
0.547114629087627
% es.Ex (V/m) @ t=0.52
-1.3082173006377253
% es.Ey (V/m) @ t=0.52
0.10204315959744847
% es.Ez (V/m) @ t=0.52
0.5471146290876263
% es.tEx (V/m) @ t=0.52
-1.3082173006377165
% es.tEy (V/m) @ t=0.52
0
% es.tEz (V/m) @ t=0.52
0.547114629087627
% V (V) @ t=0.52
0.007941298535433568
% es.normE (V/m) @ t=0.54
1.434929967460863
% es.EX (V/m) @ t=0.54
-1.3198188189705164
% es.EY (V/m) @ t=0.54
0.1029476251747532
% es.EZ (V/m) @ t=0.54
0.5519662433100401
% es.tEX (V/m) @ t=0.54
-1.3198188189705133
% es.tEY (V/m) @ t=0.54
0
% es.tEZ (V/m) @ t=0.54
0.5519662433100372
% es.Ex (V/m) @ t=0.54
-1.3198188189705164
% es.Ey (V/m) @ t=0.54
0.1029476251747532
% es.Ez (V/m) @ t=0.54
0.5519662433100401
% es.tEx (V/m) @ t=0.54
-1.3198188189705133
% es.tEy (V/m) @ t=0.54
0
% es.tEz (V/m) @ t=0.54
0.5519662433100372
% V (V) @ t=0.54
0.0080117383240913
% es.normE (V/m) @ t=0.56
1.4484856902711143
% es.EX (V/m) @ t=0.56
-1.3322876107496886
% es.EY (V/m) @ t=0.56
0.10391831472764573
% es.EZ (V/m) @ t=0.56
0.5571796485394505
% es.tEX (V/m) @ t=0.56
-1.3322876107496864
% es.tEY (V/m) @ t=0.56
0
% es.tEZ (V/m) @ t=0.56
0.5571796485394493
% es.Ex (V/m) @ t=0.56
-1.3322876107496886
% es.Ey (V/m) @ t=0.56
0.10391831472764573
% es.Ez (V/m) @ t=0.56
0.5571796485394505
% es.tEx (V/m) @ t=0.56
-1.3322876107496864
% es.tEy (V/m) @ t=0.56
0
% es.tEz (V/m) @ t=0.56
0.5571796485394493
% V (V) @ t=0.56
0.00808748756903323
% es.normE (V/m) @ t=0.58
1.4625716470991614
% es.EX (V/m) @ t=0.58
-1.3452443208061196
% es.EY (V/m) @ t=0.58
0.10492626114363979
% es.EZ (V/m) @ t=0.58
0.5625965933163977
% es.tEX (V/m) @ t=0.58
-1.3452443208061204
% es.tEY (V/m) @ t=0.58
0
% es.tEZ (V/m) @ t=0.58
0.5625965933163961
% es.Ex (V/m) @ t=0.58
-1.3452443208061196
% es.Ey (V/m) @ t=0.58
0.10492626114363979
% es.Ez (V/m) @ t=0.58
0.5625965933163977
% es.tEx (V/m) @ t=0.58
-1.3452443208061204
% es.tEy (V/m) @ t=0.58
0
% es.tEz (V/m) @ t=0.58
0.5625965933163961
% V (V) @ t=0.58
0.008166223854307406
% es.normE (V/m) @ t=0.6
1.4766576039357648
% es.EX (V/m) @ t=0.6
-1.3582010308625514
% es.EY (V/m) @ t=0.6
0.10593420755962851
% es.EZ (V/m) @ t=0.6
0.5680135380933415
% es.tEX (V/m) @ t=0.6
-1.3582010308625438
% es.tEY (V/m) @ t=0.6
0
% es.tEZ (V/m) @ t=0.6
0.5680135380933393
% es.Ex (V/m) @ t=0.6
-1.3582010308625514
% es.Ey (V/m) @ t=0.6
0.10593420755962851
% es.Ez (V/m) @ t=0.6
0.5680135380933415
% es.tEx (V/m) @ t=0.6
-1.3582010308625438
% es.tEy (V/m) @ t=0.6
0
% es.tEz (V/m) @ t=0.6
0.5680135380933393
% V (V) @ t=0.6
0.008244960139581581
% es.normE (V/m) @ t=0.62
1.490743560780695
% es.EX (V/m) @ t=0.62
-1.3711577409189954
% es.EY (V/m) @ t=0.62
0.1069421539756279
% es.EZ (V/m) @ t=0.62
0.5734304828702836
% es.tEX (V/m) @ t=0.62
-1.371157740918994
% es.tEY (V/m) @ t=0.62
0
% es.tEZ (V/m) @ t=0.62
0.5734304828702861
% es.Ex (V/m) @ t=0.62
-1.3711577409189954
% es.Ey (V/m) @ t=0.62
0.1069421539756279
% es.Ez (V/m) @ t=0.62
0.5734304828702836
% es.tEx (V/m) @ t=0.62
-1.371157740918994
% es.tEy (V/m) @ t=0.62
0
% es.tEz (V/m) @ t=0.62
0.5734304828702861
% V (V) @ t=0.62
0.00832369642485576
% es.normE (V/m) @ t=0.64
1.50482951763369
% es.EX (V/m) @ t=0.64
-1.384114450975423
% es.EY (V/m) @ t=0.64
0.1079501003916078
% es.EZ (V/m) @ t=0.64
0.5788474276472255
% es.tEX (V/m) @ t=0.64
-1.3841144509754173
% es.tEY (V/m) @ t=0.64
0
% es.tEZ (V/m) @ t=0.64
0.5788474276472293
% es.Ex (V/m) @ t=0.64
-1.384114450975423
% es.Ey (V/m) @ t=0.64
0.1079501003916078
% es.Ez (V/m) @ t=0.64
0.5788474276472255
% es.tEx (V/m) @ t=0.64
-1.3841144509754173
% es.tEy (V/m) @ t=0.64
0
% es.tEz (V/m) @ t=0.64
0.5788474276472293
% V (V) @ t=0.64
0.008402432710129934
% es.normE (V/m) @ t=0.66
1.5189154744945519
% es.EX (V/m) @ t=0.66
-1.3970711610318576
% es.EY (V/m) @ t=0.66
0.10895804680761073
% es.EZ (V/m) @ t=0.66
0.5842643724241718
% es.tEX (V/m) @ t=0.66
-1.3970711610318531
% es.tEY (V/m) @ t=0.66
0
% es.tEZ (V/m) @ t=0.66
0.5842643724241725
% es.Ex (V/m) @ t=0.66
-1.3970711610318576
% es.Ey (V/m) @ t=0.66
0.10895804680761073
% es.Ez (V/m) @ t=0.66
0.5842643724241718
% es.tEx (V/m) @ t=0.66
-1.3970711610318531
% es.tEy (V/m) @ t=0.66
0
% es.tEz (V/m) @ t=0.66
0.5842643724241725
% V (V) @ t=0.66
0.00848116899540411
% es.normE (V/m) @ t=0.68
1.5330014313630649
% es.EX (V/m) @ t=0.68
-1.4100278710883016
% es.EY (V/m) @ t=0.68
0.1099659932236084
% es.EZ (V/m) @ t=0.68
0.5896813172011255
% es.tEX (V/m) @ t=0.68
-1.4100278710882996
% es.tEY (V/m) @ t=0.68
0
% es.tEZ (V/m) @ t=0.68
0.5896813172011228
% es.Ex (V/m) @ t=0.68
-1.4100278710883016
% es.Ey (V/m) @ t=0.68
0.1099659932236084
% es.Ez (V/m) @ t=0.68
0.5896813172011255
% es.tEx (V/m) @ t=0.68
-1.4100278710882996
% es.tEy (V/m) @ t=0.68
0
% es.tEz (V/m) @ t=0.68
0.5896813172011228
% V (V) @ t=0.68
0.008559905280678286
% es.normE (V/m) @ t=0.7
1.547087388238992
% es.EX (V/m) @ t=0.7
-1.422984581144735
% es.EY (V/m) @ t=0.7
0.11097393963959534
% es.EZ (V/m) @ t=0.7
0.5950982619780611
% es.tEX (V/m) @ t=0.7
-1.4229845811447266
% es.tEY (V/m) @ t=0.7
0
% es.tEZ (V/m) @ t=0.7
0.5950982619780589
% es.Ex (V/m) @ t=0.7
-1.422984581144735
% es.Ey (V/m) @ t=0.7
0.11097393963959534
% es.Ez (V/m) @ t=0.7
0.5950982619780611
% es.tEx (V/m) @ t=0.7
-1.4229845811447266
% es.tEy (V/m) @ t=0.7
0
% es.tEz (V/m) @ t=0.7
0.5950982619780589
% V (V) @ t=0.7
0.008638641565952463
% es.normE (V/m) @ t=0.72
1.5611733451221572
% es.EX (V/m) @ t=0.72
-1.4359412912011735
% es.EY (V/m) @ t=0.72
0.11198188605559117
% es.EZ (V/m) @ t=0.72
0.6005152067550041
% es.tEX (V/m) @ t=0.72
-1.435941291201166
% es.tEY (V/m) @ t=0.72
0
% es.tEZ (V/m) @ t=0.72
0.6005152067550092
% es.Ex (V/m) @ t=0.72
-1.4359412912011735
% es.Ey (V/m) @ t=0.72
0.11198188605559117
% es.Ez (V/m) @ t=0.72
0.6005152067550041
% es.tEx (V/m) @ t=0.72
-1.435941291201166
% es.tEy (V/m) @ t=0.72
0
% es.tEz (V/m) @ t=0.72
0.6005152067550092
% V (V) @ t=0.72
0.008717377851226638
% es.normE (V/m) @ t=0.74
1.575259302012352
% es.EX (V/m) @ t=0.74
-1.4488980012576012
% es.EY (V/m) @ t=0.74
0.11298983247158345
% es.EZ (V/m) @ t=0.74
0.6059321515319542
% es.tEX (V/m) @ t=0.74
-1.4488980012575965
% es.tEY (V/m) @ t=0.74
0
% es.tEZ (V/m) @ t=0.74
0.6059321515319525
% es.Ex (V/m) @ t=0.74
-1.4488980012576012
% es.Ey (V/m) @ t=0.74
0.11298983247158345
% es.Ez (V/m) @ t=0.74
0.6059321515319542
% es.tEx (V/m) @ t=0.74
-1.4488980012575965
% es.tEy (V/m) @ t=0.74
0
% es.tEz (V/m) @ t=0.74
0.6059321515319525
% V (V) @ t=0.74
0.008796114136500815
% es.normE (V/m) @ t=0.76
1.5893452589093897
% es.EX (V/m) @ t=0.76
-1.4618547113140303
% es.EY (V/m) @ t=0.76
0.11399777888757578
% es.EZ (V/m) @ t=0.76
0.6113490963088863
% es.tEX (V/m) @ t=0.76
-1.4618547113140288
% es.tEY (V/m) @ t=0.76
0
% es.tEZ (V/m) @ t=0.76
0.611349096308885
% es.Ex (V/m) @ t=0.76
-1.4618547113140303
% es.Ey (V/m) @ t=0.76
0.11399777888757578
% es.Ez (V/m) @ t=0.76
0.6113490963088863
% es.tEx (V/m) @ t=0.76
-1.4618547113140288
% es.tEy (V/m) @ t=0.76
0
% es.tEz (V/m) @ t=0.76
0.611349096308885
% V (V) @ t=0.76
0.00887485042177499
% es.normE (V/m) @ t=0.78
1.6034312158131176
% es.EX (V/m) @ t=0.78
-1.4748114213704748
% es.EY (V/m) @ t=0.78
0.11500572530356806
% es.EZ (V/m) @ t=0.78
0.6167660410858362
% es.tEX (V/m) @ t=0.78
-1.474811421370461
% es.tEY (V/m) @ t=0.78
0
% es.tEZ (V/m) @ t=0.78
0.6167660410858318
% es.Ex (V/m) @ t=0.78
-1.4748114213704748
% es.Ey (V/m) @ t=0.78
0.11500572530356806
% es.Ez (V/m) @ t=0.78
0.6167660410858362
% es.tEx (V/m) @ t=0.78
-1.474811421370461
% es.tEy (V/m) @ t=0.78
0
% es.tEz (V/m) @ t=0.78
0.6167660410858318
% V (V) @ t=0.78
0.008953586707049167
% es.normE (V/m) @ t=0.8
1.617517172723332
% es.EX (V/m) @ t=0.8
-1.4877681314269113
% es.EY (V/m) @ t=0.8
0.11601367171956034
% es.EZ (V/m) @ t=0.8
0.6221829858627845
% es.tEX (V/m) @ t=0.8
-1.4877681314269058
% es.tEY (V/m) @ t=0.8
0
% es.tEZ (V/m) @ t=0.8
0.6221829858627856
% es.Ex (V/m) @ t=0.8
-1.4877681314269113
% es.Ey (V/m) @ t=0.8
0.11601367171956034
% es.Ez (V/m) @ t=0.8
0.6221829858627845
% es.tEx (V/m) @ t=0.8
-1.4877681314269058
% es.tEy (V/m) @ t=0.8
0
% es.tEz (V/m) @ t=0.8
0.6221829858627856
% V (V) @ t=0.8
0.009032322992323344
% es.normE (V/m) @ t=0.82
1.6316031296398639
% es.EX (V/m) @ t=0.82
-1.5007248414833418
% es.EY (V/m) @ t=0.82
0.11702161813554907
% es.EZ (V/m) @ t=0.82
0.6275999306397255
% es.tEX (V/m) @ t=0.82
-1.500724841483338
% es.tEY (V/m) @ t=0.82
0
% es.tEZ (V/m) @ t=0.82
0.6275999306397217
% es.Ex (V/m) @ t=0.82
-1.5007248414833418
% es.Ey (V/m) @ t=0.82
0.11702161813554907
% es.Ez (V/m) @ t=0.82
0.6275999306397255
% es.tEx (V/m) @ t=0.82
-1.500724841483338
% es.tEy (V/m) @ t=0.82
0
% es.tEz (V/m) @ t=0.82
0.6275999306397217
% V (V) @ t=0.82
0.00911105927759752
% es.normE (V/m) @ t=0.84
1.6473016534129317
% es.EX (V/m) @ t=0.84
-1.515163589736355
% es.EY (V/m) @ t=0.84
0.11814942220172503
% es.EZ (V/m) @ t=0.84
0.6336394135291799
% es.tEX (V/m) @ t=0.84
-1.5151635897363427
% es.tEY (V/m) @ t=0.84
0
% es.tEZ (V/m) @ t=0.84
0.6336394135291847
% es.Ex (V/m) @ t=0.84
-1.515163589736355
% es.Ey (V/m) @ t=0.84
0.11814942220172503
% es.Ez (V/m) @ t=0.84
0.6336394135291799
% es.tEx (V/m) @ t=0.84
-1.5151635897363427
% es.tEy (V/m) @ t=0.84
0
% es.tEz (V/m) @ t=0.84
0.6336394135291847
% V (V) @ t=0.84
0.00919865812703736
% es.normE (V/m) @ t=0.86
1.6630587447388874
% es.EX (V/m) @ t=0.86
-1.5296561648081668
% es.EY (V/m) @ t=0.86
0.1192815794323594
% es.EZ (V/m) @ t=0.86
0.6397015066632609
% es.tEX (V/m) @ t=0.86
-1.5296561648081592
% es.tEY (V/m) @ t=0.86
0
% es.tEZ (V/m) @ t=0.86
0.6397015066632683
% es.Ex (V/m) @ t=0.86
-1.5296561648081668
% es.Ey (V/m) @ t=0.86
0.1192815794323594
% es.Ez (V/m) @ t=0.86
0.6397015066632609
% es.tEx (V/m) @ t=0.86
-1.5296561648081592
% es.tEy (V/m) @ t=0.86
0
% es.tEz (V/m) @ t=0.86
0.6397015066632683
% V (V) @ t=0.86
0.009286578859972907
% es.normE (V/m) @ t=0.88
1.6788158360692824
% es.EX (V/m) @ t=0.88
-1.5441487398799785
% es.EY (V/m) @ t=0.88
0.1204137366629956
% es.EZ (V/m) @ t=0.88
0.64576359979734
% es.tEX (V/m) @ t=0.88
-1.5441487398799758
% es.tEY (V/m) @ t=0.88
0
% es.tEZ (V/m) @ t=0.88
0.6457635997973412
% es.Ex (V/m) @ t=0.88
-1.5441487398799785
% es.Ey (V/m) @ t=0.88
0.1204137366629956
% es.Ez (V/m) @ t=0.88
0.64576359979734
% es.tEx (V/m) @ t=0.88
-1.5441487398799758
% es.tEy (V/m) @ t=0.88
0
% es.tEz (V/m) @ t=0.88
0.6457635997973412
% V (V) @ t=0.88
0.009374499592908458
% es.normE (V/m) @ t=0.9
1.694572927404002
% es.EX (V/m) @ t=0.9
-1.5586413149517964
% es.EY (V/m) @ t=0.9
0.12154589389362647
% es.EZ (V/m) @ t=0.9
0.6518256929314261
% es.tEX (V/m) @ t=0.9
-1.5586413149517924
% es.tEY (V/m) @ t=0.9
0
% es.tEZ (V/m) @ t=0.9
0.6518256929314248
% es.Ex (V/m) @ t=0.9
-1.5586413149517964
% es.Ey (V/m) @ t=0.9
0.12154589389362647
% es.Ez (V/m) @ t=0.9
0.6518256929314261
% es.tEx (V/m) @ t=0.9
-1.5586413149517924
% es.tEy (V/m) @ t=0.9
0
% es.tEz (V/m) @ t=0.9
0.6518256929314248
% V (V) @ t=0.9
0.009462420325844004
% es.normE (V/m) @ t=0.92
1.7103300187429085
% es.EX (V/m) @ t=0.92
-1.5731338900236063
% es.EY (V/m) @ t=0.92
0.12267805112425906
% es.EZ (V/m) @ t=0.92
0.657887786065507
% es.tEX (V/m) @ t=0.92
-1.5731338900235983
% es.tEY (V/m) @ t=0.92
0
% es.tEZ (V/m) @ t=0.92
0.6578877860655084
% es.Ex (V/m) @ t=0.92
-1.5731338900236063
% es.Ey (V/m) @ t=0.92
0.12267805112425906
% es.Ez (V/m) @ t=0.92
0.657887786065507
% es.tEx (V/m) @ t=0.92
-1.5731338900235983
% es.tEy (V/m) @ t=0.92
0
% es.tEz (V/m) @ t=0.92
0.6578877860655084
% V (V) @ t=0.92
0.009550341058779555
% es.normE (V/m) @ t=0.94
1.7260871100859112
% es.EX (V/m) @ t=0.94
-1.5876264650954288
% es.EY (V/m) @ t=0.94
0.12381020835489165
% es.EZ (V/m) @ t=0.94
0.6639498791995935
% es.tEX (V/m) @ t=0.94
-1.587626465095422
% es.tEY (V/m) @ t=0.94
0
% es.tEZ (V/m) @ t=0.94
0.663949879199599
% es.Ex (V/m) @ t=0.94
-1.5876264650954288
% es.Ey (V/m) @ t=0.94
0.12381020835489165
% es.Ez (V/m) @ t=0.94
0.6639498791995935
% es.tEx (V/m) @ t=0.94
-1.587626465095422
% es.tEy (V/m) @ t=0.94
0
% es.tEz (V/m) @ t=0.94
0.663949879199599
% V (V) @ t=0.94
0.009638261791715102
% es.normE (V/m) @ t=0.96
1.7418442014328603
% es.EX (V/m) @ t=0.96
-1.6021190401672316
% es.EY (V/m) @ t=0.96
0.12494236558552252
% es.EZ (V/m) @ t=0.96
0.6700119723336637
% es.tEX (V/m) @ t=0.96
-1.6021190401672332
% es.tEY (V/m) @ t=0.96
0
% es.tEZ (V/m) @ t=0.96
0.6700119723336613
% es.Ex (V/m) @ t=0.96
-1.6021190401672316
% es.Ey (V/m) @ t=0.96
0.12494236558552252
% es.Ez (V/m) @ t=0.96
0.6700119723336637
% es.tEx (V/m) @ t=0.96
-1.6021190401672332
% es.tEy (V/m) @ t=0.96
0
% es.tEz (V/m) @ t=0.96
0.6700119723336613
% V (V) @ t=0.96
0.00972618252465065
% es.normE (V/m) @ t=0.98
1.7576012927836961
% es.EX (V/m) @ t=0.98
-1.61661161523905
% es.EY (V/m) @ t=0.98
0.12607452281615328
% es.EZ (V/m) @ t=0.98
0.6760740654677536
% es.tEX (V/m) @ t=0.98
-1.6166116152390408
% es.tEY (V/m) @ t=0.98
0
% es.tEZ (V/m) @ t=0.98
0.6760740654677484
% es.Ex (V/m) @ t=0.98
-1.61661161523905
% es.Ey (V/m) @ t=0.98
0.12607452281615328
% es.Ez (V/m) @ t=0.98
0.6760740654677536
% es.tEx (V/m) @ t=0.98
-1.6166116152390408
% es.tEy (V/m) @ t=0.98
0
% es.tEz (V/m) @ t=0.98
0.6760740654677484
% V (V) @ t=0.98
0.009814103257586198
% es.normE (V/m) @ t=1
1.773358384138289
% es.EX (V/m) @ t=1
-1.6311041903108643
% es.EY (V/m) @ t=1
0.1272066800467948
% es.EZ (V/m) @ t=1
0.6821361586018415
% es.tEX (V/m) @ t=1
-1.6311041903108592
% es.tEY (V/m) @ t=1
0
% es.tEZ (V/m) @ t=1
0.6821361586018462
% es.Ex (V/m) @ t=1
-1.6311041903108643
% es.Ey (V/m) @ t=1
0.1272066800467948
% es.Ez (V/m) @ t=1
0.6821361586018415
% es.tEx (V/m) @ t=1
-1.6311041903108592
% es.tEy (V/m) @ t=1
0
% es.tEz (V/m) @ t=1
0.6821361586018462
% V (V) @ t=1
0.009902023990521744
% es.normE (V/m) @ t=1.02
1.789115475496529
% es.EX (V/m) @ t=1.02
-1.64559676538267
% es.EY (V/m) @ t=1.02
0.12833883727742557
% es.EZ (V/m) @ t=1.02
0.6881982517359138
% es.tEX (V/m) @ t=1.02
-1.6455967653826704
% es.tEY (V/m) @ t=1.02
0
% es.tEZ (V/m) @ t=1.02
0.688198251735912
% es.Ex (V/m) @ t=1.02
-1.64559676538267
% es.Ey (V/m) @ t=1.02
0.12833883727742557
% es.Ez (V/m) @ t=1.02
0.6881982517359138
% es.tEx (V/m) @ t=1.02
-1.6455967653826704
% es.tEy (V/m) @ t=1.02
0
% es.tEz (V/m) @ t=1.02
0.688198251735912
% V (V) @ t=1.02
0.009989944723457293
% es.normE (V/m) @ t=1.04
1.8048725668583718
% es.EX (V/m) @ t=1.04
-1.660089340454503
% es.EY (V/m) @ t=1.04
0.12947099450806
% es.EZ (V/m) @ t=1.04
0.6942603448700142