% Model:              1 neuron.mph
% Version:            COMSOL 6.0.0.405
% Date:               Mar 9 2023, 14:07
% Dimension:          0
% Nodes:              14017
% Expressions:        14017
% Description:        Electric field norm, Electric field, X component, Electric field, Y component, Electric field, Z component, Tangential electric field, X component, Tangential electric field, Y component, Tangential electric field, Z component, Electric field, x component, Electric field, y component, Electric field, z component, Tangential electric field, x component, Tangential electric field, y component, Tangential electric field, z component, Electric potential
% Length unit:        mm
% x
1
% y
12.2
% z
1
% es.normE (V/m) @ t=0
0.8085417963362691
% es.EX (V/m) @ t=0
0.5490093163766652
% es.EY (V/m) @ t=0
0.1559260935398168
% es.EZ (V/m) @ t=0
0.5578200611368116
% es.tEX (V/m) @ t=0
0.5490093163766545
% es.tEY (V/m) @ t=0
0
% es.tEZ (V/m) @ t=0
0.5578200611368054
% es.Ex (V/m) @ t=0
0.5490093163766652
% es.Ey (V/m) @ t=0
0.1559260935398168
% es.Ez (V/m) @ t=0
0.5578200611368116
% es.tEx (V/m) @ t=0
0.5490093163766545
% es.tEy (V/m) @ t=0
0
% es.tEz (V/m) @ t=0
0.5578200611368054
% V (V) @ t=0
0.007581916152318489
% es.normE (V/m) @ t=0.02
0.6983537177820747
% es.EX (V/m) @ t=0.02
0.47419032452440035
% es.EY (V/m) @ t=0.02
0.13467648592934456
% es.EZ (V/m) @ t=0.02
0.48180034144499206
% es.tEX (V/m) @ t=0.02
0.47419032452439325
% es.tEY (V/m) @ t=0.02
0
% es.tEZ (V/m) @ t=0.02
0.4818003414449912
% es.Ex (V/m) @ t=0.02
0.47419032452440035
% es.Ey (V/m) @ t=0.02
0.13467648592934456
% es.Ez (V/m) @ t=0.02
0.48180034144499206
% es.tEx (V/m) @ t=0.02
0.47419032452439325
% es.tEy (V/m) @ t=0.02
0
% es.tEz (V/m) @ t=0.02
0.4818003414449912
% V (V) @ t=0.02
0.006548652559645138
% es.normE (V/m) @ t=0.04
0.7047778483736675
% es.EX (V/m) @ t=0.04
0.4785523838504808
% es.EY (V/m) @ t=0.04
0.13591537065318793
% es.EZ (V/m) @ t=0.04
0.4862324053569713
% es.tEX (V/m) @ t=0.04
0.47855238385047016
% es.tEY (V/m) @ t=0.04
0
% es.tEZ (V/m) @ t=0.04
0.4862324053569651
% es.Ex (V/m) @ t=0.04
0.4785523838504808
% es.Ey (V/m) @ t=0.04
0.13591537065318793
% es.Ez (V/m) @ t=0.04
0.4862324053569713
% es.tEx (V/m) @ t=0.04
0.47855238385047016
% es.tEy (V/m) @ t=0.04
0
% es.tEz (V/m) @ t=0.04
0.4862324053569651
% V (V) @ t=0.04
0.0066088933540730775
% es.normE (V/m) @ t=0.06
0.7112595431201294
% es.EX (V/m) @ t=0.06
0.48295353009573816
% es.EY (V/m) @ t=0.06
0.13716535619465553
% es.EZ (V/m) @ t=0.06
0.490704183281534
% es.tEX (V/m) @ t=0.06
0.4829535300957346
% es.tEY (V/m) @ t=0.06
0
% es.tEZ (V/m) @ t=0.06
0.490704183281526
% es.Ex (V/m) @ t=0.06
0.48295353009573816
% es.Ey (V/m) @ t=0.06
0.13716535619465553
% es.Ez (V/m) @ t=0.06
0.490704183281534
% es.tEx (V/m) @ t=0.06
0.4829535300957346
% es.tEy (V/m) @ t=0.06
0
% es.tEz (V/m) @ t=0.06
0.490704183281526
% V (V) @ t=0.06
0.006669673956558632
% es.normE (V/m) @ t=0.08
0.7178410226019154
% es.EX (V/m) @ t=0.08
0.48742243319623313
% es.EY (V/m) @ t=0.08
0.13843458159707822
% es.EZ (V/m) @ t=0.08
0.4952448035748702
% es.tEX (V/m) @ t=0.08
0.4874224331962296
% es.tEY (V/m) @ t=0.08
0
% es.tEZ (V/m) @ t=0.08
0.495244803574856
% es.Ex (V/m) @ t=0.08
0.48742243319623313
% es.Ey (V/m) @ t=0.08
0.13843458159707822
% es.Ez (V/m) @ t=0.08
0.4952448035748702
% es.tEx (V/m) @ t=0.08
0.4874224331962296
% es.tEy (V/m) @ t=0.08
0
% es.tEz (V/m) @ t=0.08
0.495244803574856
% V (V) @ t=0.08
0.00673139040367921
% es.normE (V/m) @ t=0.1
0.7244901468780545
% es.EX (V/m) @ t=0.1
0.49193726915935976
% es.EY (V/m) @ t=0.1
0.13971684984049482
% es.EZ (V/m) @ t=0.1
0.49983209260828776
% es.tEX (V/m) @ t=0.1
0.4919372691593509
% es.tEY (V/m) @ t=0.1
0
% es.tEZ (V/m) @ t=0.1
0.49983209260827977
% es.Ex (V/m) @ t=0.1
0.49193726915935976
% es.Ey (V/m) @ t=0.1
0.13971684984049482
% es.Ez (V/m) @ t=0.1
0.49983209260828776
% es.tEx (V/m) @ t=0.1
0.4919372691593509
% es.tEy (V/m) @ t=0.1
0
% es.tEz (V/m) @ t=0.1
0.49983209260827977
% V (V) @ t=0.1
0.006793741266651471
% es.normE (V/m) @ t=0.12
0.7311392711541909
% es.EX (V/m) @ t=0.12
0.49645210512249527
% es.EY (V/m) @ t=0.12
0.14099911808390608
% es.EZ (V/m) @ t=0.12
0.5044193816416938
% es.tEX (V/m) @ t=0.12
0.4964521051224864
% es.tEY (V/m) @ t=0.12
0
% es.tEZ (V/m) @ t=0.12
0.5044193816416893
% es.Ex (V/m) @ t=0.12
0.49645210512249527
% es.Ey (V/m) @ t=0.12
0.14099911808390608
% es.Ez (V/m) @ t=0.12
0.5044193816416938
% es.tEx (V/m) @ t=0.12
0.4964521051224864
% es.tEy (V/m) @ t=0.12
0
% es.tEz (V/m) @ t=0.12
0.5044193816416893
% V (V) @ t=0.12
0.0068560921296237295
% es.normE (V/m) @ t=0.14
0.737859886126242
% es.EX (V/m) @ t=0.14
0.5010154824363156
% es.EY (V/m) @ t=0.14
0.14229517632075606
% es.EZ (V/m) @ t=0.14
0.5090559927289631
% es.tEX (V/m) @ t=0.14
0.5010154824363084
% es.tEY (V/m) @ t=0.14
0
% es.tEZ (V/m) @ t=0.14
0.5090559927289533
% es.Ex (V/m) @ t=0.14
0.5010154824363156
% es.Ey (V/m) @ t=0.14
0.14229517632075606
% es.Ez (V/m) @ t=0.14
0.5090559927289631
% es.tEx (V/m) @ t=0.14
0.5010154824363084
% es.tEy (V/m) @ t=0.14
0
% es.tEz (V/m) @ t=0.14
0.5090559927289533
% V (V) @ t=0.14
0.006919113258447367
% es.normE (V/m) @ t=0.16
0.7448630919839792
% es.EX (V/m) @ t=0.16
0.5057707356734387
% es.EY (V/m) @ t=0.16
0.14364574411874642
% es.EZ (V/m) @ t=0.16
0.5138875657298465
% es.tEX (V/m) @ t=0.16
0.5057707356734298
% es.tEY (V/m) @ t=0.16
0
% es.tEZ (V/m) @ t=0.16
0.5138875657298385
% es.Ex (V/m) @ t=0.16
0.5057707356734387
% es.Ey (V/m) @ t=0.16
0.14364574411874642
% es.Ez (V/m) @ t=0.16
0.5138875657298465
% es.tEx (V/m) @ t=0.16
0.5057707356734298
% es.tEy (V/m) @ t=0.16
0
% es.tEz (V/m) @ t=0.16
0.5138875657298385
% V (V) @ t=0.16
0.006984783837219061
% es.normE (V/m) @ t=0.18
0.7518662978417281
% es.EX (V/m) @ t=0.18
0.5105259889105973
% es.EY (V/m) @ t=0.18
0.14499631191668527
% es.EZ (V/m) @ t=0.18
0.5187191387307326
% es.tEX (V/m) @ t=0.18
0.5105259889105866
% es.tEY (V/m) @ t=0.18
0
% es.tEZ (V/m) @ t=0.18
0.5187191387307273
% es.Ex (V/m) @ t=0.18
0.5105259889105973
% es.Ey (V/m) @ t=0.18
0.14499631191668527
% es.Ez (V/m) @ t=0.18
0.5187191387307326
% es.tEx (V/m) @ t=0.18
0.5105259889105866
% es.tEy (V/m) @ t=0.18
0
% es.tEz (V/m) @ t=0.18
0.5187191387307273
% V (V) @ t=0.18
0.007050454415990757
% es.normE (V/m) @ t=0.2
0.7588695036994525
% es.EX (V/m) @ t=0.2
0.5152812421477098
% es.EY (V/m) @ t=0.2
0.1463468797146703
% es.EZ (V/m) @ t=0.2
0.5235507117316134
% es.tEX (V/m) @ t=0.2
0.515281242147708
% es.tEY (V/m) @ t=0.2
0
% es.tEZ (V/m) @ t=0.2
0.5235507117316054
% es.Ex (V/m) @ t=0.2
0.5152812421477098
% es.Ey (V/m) @ t=0.2
0.1463468797146703
% es.Ez (V/m) @ t=0.2
0.5235507117316134
% es.tEx (V/m) @ t=0.2
0.515281242147708
% es.tEy (V/m) @ t=0.2
0
% es.tEz (V/m) @ t=0.2
0.5235507117316054
% V (V) @ t=0.2
0.007116124994762448
% es.normE (V/m) @ t=0.22
0.765872709557198
% es.EX (V/m) @ t=0.22
0.520036495384872
% es.EY (V/m) @ t=0.22
0.1476974475126145
% es.EZ (V/m) @ t=0.22
0.5283822847324817
% es.tEX (V/m) @ t=0.22
0.5200364953848648
% es.tEY (V/m) @ t=0.22
0
% es.tEZ (V/m) @ t=0.22
0.52838228473248
% es.Ex (V/m) @ t=0.22
0.520036495384872
% es.Ey (V/m) @ t=0.22
0.1476974475126145
% es.Ez (V/m) @ t=0.22
0.5283822847324817
% es.tEx (V/m) @ t=0.22
0.5200364953848648
% es.tEy (V/m) @ t=0.22
0
% es.tEz (V/m) @ t=0.22
0.52838228473248
% V (V) @ t=0.22
0.007181795573534145
% es.normE (V/m) @ t=0.24
0.7728759154149195
% es.EX (V/m) @ t=0.24
0.5247917486219933
% es.EY (V/m) @ t=0.24
0.14904801531056933
% es.EZ (V/m) @ t=0.24
0.5332138577333598
% es.tEX (V/m) @ t=0.24
0.5247917486219791
% es.tEY (V/m) @ t=0.24
0
% es.tEZ (V/m) @ t=0.24
0.533213857733358
% es.Ex (V/m) @ t=0.24
0.5247917486219933
% es.Ey (V/m) @ t=0.24
0.14904801531056933
% es.Ez (V/m) @ t=0.24
0.5332138577333598
% es.tEx (V/m) @ t=0.24
0.5247917486219791
% es.tEy (V/m) @ t=0.24
0
% es.tEz (V/m) @ t=0.24
0.533213857733358
% V (V) @ t=0.24
0.007247466152305838
% es.normE (V/m) @ t=0.26
0.7798791212726721
% es.EX (V/m) @ t=0.26
0.5295470018591288
% es.EY (V/m) @ t=0.26
0.15039858310856324
% es.EZ (V/m) @ t=0.26
0.5380454307342477
% es.tEX (V/m) @ t=0.26
0.5295470018591146
% es.tEY (V/m) @ t=0.26
0
% es.tEZ (V/m) @ t=0.26
0.5380454307342397
% es.Ex (V/m) @ t=0.26
0.5295470018591288
% es.Ey (V/m) @ t=0.26
0.15039858310856324
% es.Ez (V/m) @ t=0.26
0.5380454307342477
% es.tEx (V/m) @ t=0.26
0.5295470018591146
% es.tEy (V/m) @ t=0.26
0
% es.tEz (V/m) @ t=0.26
0.5380454307342397
% V (V) @ t=0.26
0.0073131367310775314
% es.normE (V/m) @ t=0.28
0.7872119305190078
% es.EX (V/m) @ t=0.28
0.5345260624534003
% es.EY (V/m) @ t=0.28
0.15181270917725698
% es.EZ (V/m) @ t=0.28
0.5431044000018428
% es.tEX (V/m) @ t=0.28
0.5345260624533807
% es.tEY (V/m) @ t=0.28
0
% es.tEZ (V/m) @ t=0.28
0.5431044000018375
% es.Ex (V/m) @ t=0.28
0.5345260624534003
% es.Ey (V/m) @ t=0.28
0.15181270917725698
% es.Ez (V/m) @ t=0.28
0.5431044000018428
% es.tEx (V/m) @ t=0.28
0.5345260624533807
% es.tEy (V/m) @ t=0.28
0
% es.tEz (V/m) @ t=0.28
0.5431044000018375
% V (V) @ t=0.28
0.007381898295841032
% es.normE (V/m) @ t=0.3
0.7950117555705107
% es.EX (V/m) @ t=0.3
0.5398222362106679
% es.EY (V/m) @ t=0.3
0.15331689110707813
% es.EZ (V/m) @ t=0.3
0.5484855675667362
% es.tEX (V/m) @ t=0.3
0.5398222362106537
% es.tEY (V/m) @ t=0.3
0
% es.tEZ (V/m) @ t=0.3
0.5484855675667255
% es.Ex (V/m) @ t=0.3
0.5398222362106679
% es.Ey (V/m) @ t=0.3
0.15331689110707813
% es.Ez (V/m) @ t=0.3
0.5484855675667362
% es.tEx (V/m) @ t=0.3
0.5398222362106537
% es.tEy (V/m) @ t=0.3
0
% es.tEz (V/m) @ t=0.3
0.5484855675667255
% V (V) @ t=0.3
0.007455039485819286
% es.normE (V/m) @ t=0.32
0.802811580622008
% es.EX (V/m) @ t=0.32
0.545118409967932
% es.EY (V/m) @ t=0.32
0.15482107303686554
% es.EZ (V/m) @ t=0.32
0.5538667351316322
% es.tEX (V/m) @ t=0.32
0.5451184099679125
% es.tEY (V/m) @ t=0.32
0
% es.tEZ (V/m) @ t=0.32
0.5538667351316242
% es.Ex (V/m) @ t=0.32
0.545118409967932
% es.Ey (V/m) @ t=0.32
0.15482107303686554
% es.Ez (V/m) @ t=0.32
0.5538667351316322
% es.tEx (V/m) @ t=0.32
0.5451184099679125
% es.tEy (V/m) @ t=0.32
0
% es.tEz (V/m) @ t=0.32
0.5538667351316242
% V (V) @ t=0.32
0.00752818067579754
% es.normE (V/m) @ t=0.34
0.8106114056734854
% es.EX (V/m) @ t=0.34
0.5504145837251713
% es.EY (V/m) @ t=0.34
0.15632525496668492
% es.EZ (V/m) @ t=0.34
0.5592479026965105
% es.tEX (V/m) @ t=0.34
0.5504145837251713
% es.tEY (V/m) @ t=0.34
0
% es.tEZ (V/m) @ t=0.34
0.5592479026965016
% es.Ex (V/m) @ t=0.34
0.5504145837251713
% es.Ey (V/m) @ t=0.34
0.15632525496668492
% es.Ez (V/m) @ t=0.34
0.5592479026965105
% es.tEx (V/m) @ t=0.34
0.5504145837251713
% es.tEy (V/m) @ t=0.34
0
% es.tEz (V/m) @ t=0.34
0.5592479026965016
% V (V) @ t=0.34
0.007601321865775794
% es.normE (V/m) @ t=0.36
0.8184112307250133
% es.EX (V/m) @ t=0.36
0.5557107574824727
% es.EY (V/m) @ t=0.36
0.15782943689649187
% es.EZ (V/m) @ t=0.36
0.5646290702614074
% es.tEX (V/m) @ t=0.36
0.5557107574824585
% es.tEY (V/m) @ t=0.36
0
% es.tEZ (V/m) @ t=0.36
0.5646290702613967
% es.Ex (V/m) @ t=0.36
0.5557107574824727
% es.Ey (V/m) @ t=0.36
0.15782943689649187
% es.Ez (V/m) @ t=0.36
0.5646290702614074
% es.tEx (V/m) @ t=0.36
0.5557107574824585
% es.tEy (V/m) @ t=0.36
0
% es.tEz (V/m) @ t=0.36
0.5646290702613967
% V (V) @ t=0.36
0.007674463055754048
% es.normE (V/m) @ t=0.38
0.8262110557764761
% es.EX (V/m) @ t=0.38
0.5610069312396888
% es.EY (V/m) @ t=0.38
0.15933361882629882
% es.EZ (V/m) @ t=0.38
0.5700102378262928
% es.tEX (V/m) @ t=0.38
0.561006931239703
% es.tEY (V/m) @ t=0.38
0
% es.tEZ (V/m) @ t=0.38
0.5700102378262812
% es.Ex (V/m) @ t=0.38
0.5610069312396888
% es.Ey (V/m) @ t=0.38
0.15933361882629882
% es.Ez (V/m) @ t=0.38
0.5700102378262928
% es.tEx (V/m) @ t=0.38
0.561006931239703
% es.tEy (V/m) @ t=0.38
0
% es.tEz (V/m) @ t=0.38
0.5700102378262812
% V (V) @ t=0.38
0.0077476042457323025
% es.normE (V/m) @ t=0.4
0.8340108808279711
% es.EX (V/m) @ t=0.4
0.5663031049969476
% es.EY (V/m) @ t=0.4
0.160837800756104
% es.EZ (V/m) @ t=0.4
0.5753914053911906
% es.tEX (V/m) @ t=0.4
0.5663031049969334
% es.tEY (V/m) @ t=0.4
0
% es.tEZ (V/m) @ t=0.4
0.5753914053911835
% es.Ex (V/m) @ t=0.4
0.5663031049969476
% es.Ey (V/m) @ t=0.4
0.160837800756104
% es.Ez (V/m) @ t=0.4
0.5753914053911906
% es.tEx (V/m) @ t=0.4
0.5663031049969334
% es.tEy (V/m) @ t=0.4
0
% es.tEz (V/m) @ t=0.4
0.5753914053911835
% V (V) @ t=0.4
0.007820745435710555
% es.normE (V/m) @ t=0.42
0.8418107058794779
% es.EX (V/m) @ t=0.42
0.5715992787542206
% es.EY (V/m) @ t=0.42
0.16234198268589495
% es.EZ (V/m) @ t=0.42
0.5807725729560911
% es.tEX (V/m) @ t=0.42
0.5715992787542206
% es.tEY (V/m) @ t=0.42
0
% es.tEZ (V/m) @ t=0.42
0.5807725729560858
% es.Ex (V/m) @ t=0.42
0.5715992787542206
% es.Ey (V/m) @ t=0.42
0.16234198268589495
% es.Ez (V/m) @ t=0.42
0.5807725729560911
% es.tEx (V/m) @ t=0.42
0.5715992787542206
% es.tEy (V/m) @ t=0.42
0
% es.tEz (V/m) @ t=0.42
0.5807725729560858
% V (V) @ t=0.42
0.00789388662568881
% es.normE (V/m) @ t=0.44
0.8496105309309863
% es.EX (V/m) @ t=0.44
0.5768954525114829
% es.EY (V/m) @ t=0.44
0.16384616461575874
% es.EZ (V/m) @ t=0.44
0.5861537405209756
% es.tEX (V/m) @ t=0.44
0.5768954525114651
% es.tEY (V/m) @ t=0.44
0
% es.tEZ (V/m) @ t=0.44
0.5861537405209631
% es.Ex (V/m) @ t=0.44
0.5768954525114829
% es.Ey (V/m) @ t=0.44
0.16384616461575874
% es.Ez (V/m) @ t=0.44
0.5861537405209756
% es.tEx (V/m) @ t=0.44
0.5768954525114651
% es.tEy (V/m) @ t=0.44
0
% es.tEz (V/m) @ t=0.44
0.5861537405209631
% V (V) @ t=0.44
0.007967027815667063
% es.normE (V/m) @ t=0.46
0.8574103559824472
% es.EX (V/m) @ t=0.46
0.5821916262687132
% es.EY (V/m) @ t=0.46
0.16535034654554082
% es.EZ (V/m) @ t=0.46
0.5915349080858583
% es.tEX (V/m) @ t=0.46
0.5821916262687097
% es.tEY (V/m) @ t=0.46
0
% es.tEZ (V/m) @ t=0.46
0.5915349080858476
% es.Ex (V/m) @ t=0.46
0.5821916262687132
% es.Ey (V/m) @ t=0.46
0.16535034654554082
% es.Ez (V/m) @ t=0.46
0.5915349080858583
% es.tEx (V/m) @ t=0.46
0.5821916262687097
% es.tEy (V/m) @ t=0.46
0
% es.tEz (V/m) @ t=0.46
0.5915349080858476
% V (V) @ t=0.46
0.008040169005645317
% es.normE (V/m) @ t=0.48
0.8652101810339579
% es.EX (V/m) @ t=0.48
0.5874878000259933
% es.EY (V/m) @ t=0.48
0.1668545284753442
% es.EZ (V/m) @ t=0.48
0.5969160756507517
% es.tEX (V/m) @ t=0.48
0.5874878000259969
% es.tEY (V/m) @ t=0.48
0
% es.tEZ (V/m) @ t=0.48
0.5969160756507428
% es.Ex (V/m) @ t=0.48
0.5874878000259933
% es.Ey (V/m) @ t=0.48
0.1668545284753442
% es.Ez (V/m) @ t=0.48
0.5969160756507517
% es.tEx (V/m) @ t=0.48
0.5874878000259969
% es.tEy (V/m) @ t=0.48
0
% es.tEz (V/m) @ t=0.48
0.5969160756507428
% V (V) @ t=0.48
0.008113310195623571
% es.normE (V/m) @ t=0.5
0.8730100060854458
% es.EX (V/m) @ t=0.5
0.5927839737832556
% es.EY (V/m) @ t=0.5
0.16835871040513872
% es.EZ (V/m) @ t=0.5
0.6022972432156362
% es.tEX (V/m) @ t=0.5
0.5927839737832556
% es.tEY (V/m) @ t=0.5
0
% es.tEZ (V/m) @ t=0.5
0.6022972432156273
% es.Ex (V/m) @ t=0.5
0.5927839737832556
% es.Ey (V/m) @ t=0.5
0.16835871040513872
% es.Ez (V/m) @ t=0.5
0.6022972432156362
% es.tEx (V/m) @ t=0.5
0.5927839737832556
% es.tEy (V/m) @ t=0.5
0
% es.tEz (V/m) @ t=0.5
0.6022972432156273
% V (V) @ t=0.5
0.008186451385601826
% es.normE (V/m) @ t=0.52
0.8808098311369479
% es.EX (V/m) @ t=0.52
0.5980801475405144
% es.EY (V/m) @ t=0.52
0.169862892334935
% es.EZ (V/m) @ t=0.52
0.6076784107805366
% es.tEX (V/m) @ t=0.52
0.5980801475405144
% es.tEY (V/m) @ t=0.52
0
% es.tEZ (V/m) @ t=0.52
0.607678410780526
% es.Ex (V/m) @ t=0.52
0.5980801475405144
% es.Ey (V/m) @ t=0.52
0.169862892334935
% es.Ez (V/m) @ t=0.52
0.6076784107805366
% es.tEx (V/m) @ t=0.52
0.5980801475405144
% es.tEy (V/m) @ t=0.52
0
% es.tEz (V/m) @ t=0.52
0.607678410780526
% V (V) @ t=0.52
0.00825959257558008
% es.normE (V/m) @ t=0.54
0.8886096561884371
% es.EX (V/m) @ t=0.54
0.6033763212977838
% es.EY (V/m) @ t=0.54
0.17136707426473485
% es.EZ (V/m) @ t=0.54
0.6130595783454158
% es.tEX (V/m) @ t=0.54
0.6033763212977874
% es.tEY (V/m) @ t=0.54
0
% es.tEZ (V/m) @ t=0.54
0.6130595783454069
% es.Ex (V/m) @ t=0.54
0.6033763212977838
% es.Ey (V/m) @ t=0.54
0.17136707426473485
% es.Ez (V/m) @ t=0.54
0.6130595783454158
% es.tEx (V/m) @ t=0.54
0.6033763212977874
% es.tEy (V/m) @ t=0.54
0
% es.tEz (V/m) @ t=0.54
0.6130595783454069
% V (V) @ t=0.54
0.008332733765558334
% es.normE (V/m) @ t=0.56
0.8971653628756024
% es.EX (V/m) @ t=0.56
0.6091857473680697
% es.EY (V/m) @ t=0.56
0.17301702711684364
% es.EZ (V/m) @ t=0.56
0.6189622352647515
% es.tEX (V/m) @ t=0.56
0.6091857473680733
% es.tEY (V/m) @ t=0.56
0
% es.tEZ (V/m) @ t=0.56
0.6189622352647426
% es.Ex (V/m) @ t=0.56
0.6091857473680697
% es.Ey (V/m) @ t=0.56
0.17301702711684364
% es.Ez (V/m) @ t=0.56
0.6189622352647515
% es.tEx (V/m) @ t=0.56
0.6091857473680733
% es.tEy (V/m) @ t=0.56
0
% es.tEz (V/m) @ t=0.56
0.6189622352647426
% V (V) @ t=0.56
0.00841296305262258
% es.normE (V/m) @ t=0.58
0.9058677880223294
% es.EX (V/m) @ t=0.58
0.6150947969576954
% es.EY (V/m) @ t=0.58
0.17469527445865474
% es.EZ (V/m) @ t=0.58
0.6249661145331196
% es.tEX (V/m) @ t=0.58
0.6150947969576777
% es.tEY (V/m) @ t=0.58
0
% es.tEZ (V/m) @ t=0.58
0.6249661145331125
% es.Ex (V/m) @ t=0.58
0.6150947969576954
% es.Ey (V/m) @ t=0.58
0.17469527445865474
% es.Ez (V/m) @ t=0.58
0.6249661145331196
% es.tEx (V/m) @ t=0.58
0.6150947969576777
% es.tEy (V/m) @ t=0.58
0
% es.tEz (V/m) @ t=0.58
0.6249661145331125
% V (V) @ t=0.58
0.008494568156529651
% es.normE (V/m) @ t=0.6
0.9145702131690479
% es.EX (V/m) @ t=0.6
0.6210038465473282
% es.EY (V/m) @ t=0.6
0.17637352180042853
% es.EZ (V/m) @ t=0.6
0.6309699938014832
% es.tEX (V/m) @ t=0.6
0.6210038465473247
% es.tEY (V/m) @ t=0.6
0
% es.tEZ (V/m) @ t=0.6
0.6309699938014752
% es.Ex (V/m) @ t=0.6
0.6210038465473282
% es.Ey (V/m) @ t=0.6
0.17637352180042853
% es.Ez (V/m) @ t=0.6
0.6309699938014832
% es.tEx (V/m) @ t=0.6
0.6210038465473247
% es.tEy (V/m) @ t=0.6
0
% es.tEz (V/m) @ t=0.6
0.6309699938014752
% V (V) @ t=0.6
0.008576173260436724
% es.normE (V/m) @ t=0.62
0.9232726383157687
% es.EX (V/m) @ t=0.62
0.6269128961369468
% es.EY (V/m) @ t=0.62
0.17805176914222542
% es.EZ (V/m) @ t=0.62
0.6369738730698531
% es.tEX (V/m) @ t=0.62
0.6269128961369432
% es.tEY (V/m) @ t=0.62
0
% es.tEZ (V/m) @ t=0.62
0.6369738730698344
% es.Ex (V/m) @ t=0.62
0.6269128961369468
% es.Ey (V/m) @ t=0.62
0.17805176914222542
% es.Ez (V/m) @ t=0.62
0.6369738730698531
% es.tEx (V/m) @ t=0.62
0.6269128961369432
% es.tEy (V/m) @ t=0.62
0
% es.tEz (V/m) @ t=0.62
0.6369738730698344
% V (V) @ t=0.62
0.008657778364343798
% es.normE (V/m) @ t=0.64
0.9319750634624648
% es.EX (V/m) @ t=0.64
0.6328219457265405
% es.EY (V/m) @ t=0.64
0.1797300164840454
% es.EZ (V/m) @ t=0.64
0.6429777523382079
% es.tEX (V/m) @ t=0.64
0.6328219457265334
% es.tEY (V/m) @ t=0.64
0
% es.tEZ (V/m) @ t=0.64
0.6429777523381901
% es.Ex (V/m) @ t=0.64
0.6328219457265405
% es.Ey (V/m) @ t=0.64
0.1797300164840454
% es.Ez (V/m) @ t=0.64
0.6429777523382079
% es.tEx (V/m) @ t=0.64
0.6328219457265334
% es.tEy (V/m) @ t=0.64
0
% es.tEz (V/m) @ t=0.64
0.6429777523381901
% V (V) @ t=0.64
0.00873938346825087
% es.normE (V/m) @ t=0.66
0.9406774886091864
% es.EX (V/m) @ t=0.66
0.6387309953161697
% es.EY (V/m) @ t=0.66
0.1814082638258281
% es.EZ (V/m) @ t=0.66
0.6489816316065795
% es.tEX (V/m) @ t=0.66
0.6387309953161662
% es.tEY (V/m) @ t=0.66
0
% es.tEZ (V/m) @ t=0.66
0.6489816316065671
% es.Ex (V/m) @ t=0.66
0.6387309953161697
% es.Ey (V/m) @ t=0.66
0.1814082638258281
% es.Ez (V/m) @ t=0.66
0.6489816316065795
% es.tEx (V/m) @ t=0.66
0.6387309953161662
% es.tEy (V/m) @ t=0.66
0
% es.tEz (V/m) @ t=0.66
0.6489816316065671
% V (V) @ t=0.66
0.008820988572157943
% es.normE (V/m) @ t=0.68
0.9493799137559435
% es.EX (V/m) @ t=0.68
0.6446400449058416
% es.EY (V/m) @ t=0.68
0.1830865111676072
% es.EZ (V/m) @ t=0.68
0.6549855108749547
% es.tEX (V/m) @ t=0.68
0.6446400449058274
% es.tEY (V/m) @ t=0.68
0
% es.tEZ (V/m) @ t=0.68
0.654985510874944
% es.Ex (V/m) @ t=0.68
0.6446400449058416
% es.Ey (V/m) @ t=0.68
0.1830865111676072
% es.Ez (V/m) @ t=0.68
0.6549855108749547
% es.tEx (V/m) @ t=0.68
0.6446400449058274
% es.tEy (V/m) @ t=0.68
0
% es.tEz (V/m) @ t=0.68
0.654985510874944
% V (V) @ t=0.68
0.008902593676065015
% es.normE (V/m) @ t=0.7
0.9580823389026392
% es.EX (V/m) @ t=0.7
0.6505490944954353
% es.EY (V/m) @ t=0.7
0.1847647585094272
% es.EZ (V/m) @ t=0.7
0.6609893901433104
% es.tEX (V/m) @ t=0.7
0.6505490944954317
% es.tEY (V/m) @ t=0.7
0
% es.tEZ (V/m) @ t=0.7
0.6609893901432997
% es.Ex (V/m) @ t=0.7
0.6505490944954353
% es.Ey (V/m) @ t=0.7
0.1847647585094272
% es.Ez (V/m) @ t=0.7
0.6609893901433104
% es.tEx (V/m) @ t=0.7
0.6505490944954317
% es.tEy (V/m) @ t=0.7
0
% es.tEz (V/m) @ t=0.7
0.6609893901432997
% V (V) @ t=0.7
0.00898419877997209
% es.normE (V/m) @ t=0.72
0.9667847640493437
% es.EX (V/m) @ t=0.72
0.6564581440850326
% es.EY (V/m) @ t=0.72
0.18644300585122586
% es.EZ (V/m) @ t=0.72
0.6669932694116802
% es.tEX (V/m) @ t=0.72
0.6564581440850361
% es.tEY (V/m) @ t=0.72
0
% es.tEZ (V/m) @ t=0.72
0.6669932694116625
% es.Ex (V/m) @ t=0.72
0.6564581440850326
% es.Ey (V/m) @ t=0.72
0.18644300585122586
% es.Ez (V/m) @ t=0.72
0.6669932694116802
% es.tEx (V/m) @ t=0.72
0.6564581440850361
% es.tEy (V/m) @ t=0.72
0
% es.tEz (V/m) @ t=0.72
0.6669932694116625
% V (V) @ t=0.72
0.00906580388387916
% es.normE (V/m) @ t=0.74
0.9754871891960878
% es.EX (V/m) @ t=0.74
0.6623671936746973
% es.EY (V/m) @ t=0.74
0.18812125319302986
% es.EZ (V/m) @ t=0.74
0.6729971486800359
% es.tEX (V/m) @ t=0.74
0.6623671936746831
% es.tEY (V/m) @ t=0.74
0
% es.tEZ (V/m) @ t=0.74
0.6729971486800324
% es.Ex (V/m) @ t=0.74
0.6623671936746973
% es.Ey (V/m) @ t=0.74
0.18812125319302986
% es.Ez (V/m) @ t=0.74
0.6729971486800359
% es.tEx (V/m) @ t=0.74
0.6623671936746831
% es.tEy (V/m) @ t=0.74
0
% es.tEz (V/m) @ t=0.74
0.6729971486800324
% V (V) @ t=0.74
0.009147408987786232
% es.normE (V/m) @ t=0.76
0.9841896143427837
% es.EX (V/m) @ t=0.76
0.6682762432642946
% es.EY (V/m) @ t=0.76
0.1897995005348232
% es.EZ (V/m) @ t=0.76
0.6790010279483942
% es.tEX (V/m) @ t=0.76
0.6682762432643017
% es.tEY (V/m) @ t=0.76
0
% es.tEZ (V/m) @ t=0.76
0.679001027948388
% es.Ex (V/m) @ t=0.76
0.6682762432642946
% es.Ey (V/m) @ t=0.76
0.1897995005348232
% es.Ez (V/m) @ t=0.76
0.6790010279483942
% es.tEx (V/m) @ t=0.76
0.6682762432643017
% es.tEy (V/m) @ t=0.76
0
% es.tEz (V/m) @ t=0.76
0.679001027948388
% V (V) @ t=0.76
0.009229014091693305
% es.normE (V/m) @ t=0.78
0.992892039489512
% es.EX (V/m) @ t=0.78
0.6741852928539309
% es.EY (V/m) @ t=0.78
0.19147774787660232
% es.EZ (V/m) @ t=0.78
0.6850049072167632
% es.tEX (V/m) @ t=0.78
0.674185292853906
% es.tEY (V/m) @ t=0.78
0
% es.tEZ (V/m) @ t=0.78
0.6850049072167508
% es.Ex (V/m) @ t=0.78
0.6741852928539309
% es.Ey (V/m) @ t=0.78
0.19147774787660232
% es.Ez (V/m) @ t=0.78
0.6850049072167632
% es.tEx (V/m) @ t=0.78
0.674185292853906
% es.tEy (V/m) @ t=0.78
0
% es.tEz (V/m) @ t=0.78
0.6850049072167508
% V (V) @ t=0.78
0.009310619195600375
% es.normE (V/m) @ t=0.8
1.00159446463624
% es.EX (V/m) @ t=0.8
0.6800943424435602
% es.EY (V/m) @ t=0.8
0.19315599521842053
% es.EZ (V/m) @ t=0.8
0.6910087864851295
% es.tEX (V/m) @ t=0.8
0.680094342443553
% es.tEY (V/m) @ t=0.8
0
% es.tEZ (V/m) @ t=0.8
0.6910087864851135
% es.Ex (V/m) @ t=0.8
0.6800943424435602
% es.Ey (V/m) @ t=0.8
0.19315599521842053
% es.Ez (V/m) @ t=0.8
0.6910087864851295
% es.tEx (V/m) @ t=0.8
0.680094342443553
% es.tEy (V/m) @ t=0.8
0
% es.tEz (V/m) @ t=0.8
0.6910087864851135
% V (V) @ t=0.8
0.00939222429950745
% es.normE (V/m) @ t=0.82
1.0105645011563287
% es.EX (V/m) @ t=0.82
0.6861851042628295
% es.EY (V/m) @ t=0.82
0.19488584917921337
% es.EZ (V/m) @ t=0.82
0.6971972931831001
% es.tEX (V/m) @ t=0.82
0.6861851042628473
% es.tEY (V/m) @ t=0.82
0
% es.tEZ (V/m) @ t=0.82
0.6971972931830948
% es.Ex (V/m) @ t=0.82
0.6861851042628295
% es.Ey (V/m) @ t=0.82
0.19488584917921337
% es.Ez (V/m) @ t=0.82
0.6971972931831001
% es.tEx (V/m) @ t=0.82
0.6861851042628473
% es.tEy (V/m) @ t=0.82
0
% es.tEz (V/m) @ t=0.82
0.6971972931830948
% V (V) @ t=0.82
0.009476338939811544
% es.normE (V/m) @ t=0.84
1.0202916862047802
% es.EX (V/m) @ t=0.84
0.6927899815532115
% es.EY (V/m) @ t=0.84
0.19676171291202849
% es.EZ (V/m) @ t=0.84
0.7039081632800022
% es.tEX (V/m) @ t=0.84
0.6927899815531902
% es.tEY (V/m) @ t=0.84
0
% es.tEZ (V/m) @ t=0.84
0.7039081632799835
% es.Ex (V/m) @ t=0.84
0.6927899815532115
% es.Ey (V/m) @ t=0.84
0.19676171291202849
% es.Ez (V/m) @ t=0.84
0.7039081632800022
% es.tEx (V/m) @ t=0.84
0.6927899815531902
% es.tEy (V/m) @ t=0.84
0
% es.tEz (V/m) @ t=0.84
0.7039081632799835
% V (V) @ t=0.84
0.009567553770834687
% es.normE (V/m) @ t=0.86
1.0300188712532348
% es.EX (V/m) @ t=0.86
0.699394858843597
% es.EY (V/m) @ t=0.86
0.1986375766448436
% es.EZ (V/m) @ t=0.86
0.7106190333769122
% es.tEX (V/m) @ t=0.86
0.6993948588435899
% es.tEY (V/m) @ t=0.86
0
% es.tEZ (V/m) @ t=0.86
0.7106190333769007
% es.Ex (V/m) @ t=0.86
0.699394858843597
% es.Ey (V/m) @ t=0.86
0.1986375766448436
% es.Ez (V/m) @ t=0.86
0.7106190333769122
% es.tEx (V/m) @ t=0.86
0.6993948588435899
% es.tEy (V/m) @ t=0.86
0
% es.tEz (V/m) @ t=0.86
0.7106190333769007
% V (V) @ t=0.86
0.009658768601857833
% es.normE (V/m) @ t=0.88
1.0397460563016985
% es.EX (V/m) @ t=0.88
0.7059997361339825
% es.EY (V/m) @ t=0.88
0.20051344037765162
% es.EZ (V/m) @ t=0.88
0.7173299034738365
% es.tEX (V/m) @ t=0.88
0.7059997361339612
% es.tEY (V/m) @ t=0.88
0
% es.tEZ (V/m) @ t=0.88
0.7173299034738179
% es.Ex (V/m) @ t=0.88
0.7059997361339825
% es.Ey (V/m) @ t=0.88
0.20051344037765162
% es.Ez (V/m) @ t=0.88
0.7173299034738365
% es.tEx (V/m) @ t=0.88
0.7059997361339612
% es.tEy (V/m) @ t=0.88
0
% es.tEz (V/m) @ t=0.88
0.7173299034738179
% V (V) @ t=0.88
0.009749983432880978
% es.normE (V/m) @ t=0.9
1.0494732413501282
% es.EX (V/m) @ t=0.9
0.7126046134243289
% es.EY (V/m) @ t=0.9
0.20238930411047562
% es.EZ (V/m) @ t=0.9
0.7240407735707413
% es.tEX (V/m) @ t=0.9
0.7126046134243182
% es.tEY (V/m) @ t=0.9
0
% es.tEZ (V/m) @ t=0.9
0.7240407735707279
% es.Ex (V/m) @ t=0.9
0.7126046134243289
% es.Ey (V/m) @ t=0.9
0.20238930411047562
% es.Ez (V/m) @ t=0.9
0.7240407735707413
% es.tEx (V/m) @ t=0.9
0.7126046134243182
% es.tEy (V/m) @ t=0.9
0
% es.tEz (V/m) @ t=0.9
0.7240407735707279
% V (V) @ t=0.9
0.00984119826390412
% es.normE (V/m) @ t=0.92
1.0592004263985744
% es.EX (V/m) @ t=0.92
0.7192094907146824
% es.EY (V/m) @ t=0.92
0.2042651678433245
% es.EZ (V/m) @ t=0.92
0.7307516436676558
% es.tEX (V/m) @ t=0.92
0.7192094907146611
% es.tEY (V/m) @ t=0.92
0
% es.tEZ (V/m) @ t=0.92
0.730751643667638
% es.Ex (V/m) @ t=0.92
0.7192094907146824
% es.Ey (V/m) @ t=0.92
0.2042651678433245
% es.Ez (V/m) @ t=0.92
0.7307516436676558
% es.tEx (V/m) @ t=0.92
0.7192094907146611
% es.tEy (V/m) @ t=0.92
0
% es.tEz (V/m) @ t=0.92
0.730751643667638
% V (V) @ t=0.92
0.009932413094927265
% es.normE (V/m) @ t=0.94
1.0689276114469994
% es.EX (V/m) @ t=0.94
0.7258143680050253
% es.EY (V/m) @ t=0.94
0.20614103157615027
% es.EZ (V/m) @ t=0.94
0.7374625137645578
% es.tEX (V/m) @ t=0.94
0.725814368005004
% es.tEY (V/m) @ t=0.94
0
% es.tEZ (V/m) @ t=0.94
0.7374625137645481
% es.Ex (V/m) @ t=0.94
0.7258143680050253
% es.Ey (V/m) @ t=0.94
0.20614103157615027
% es.Ez (V/m) @ t=0.94
0.7374625137645578
% es.tEx (V/m) @ t=0.94
0.725814368005004
% es.tEy (V/m) @ t=0.94
0
% es.tEz (V/m) @ t=0.94
0.7374625137645481
% V (V) @ t=0.94
0.01002362792595041
% es.normE (V/m) @ t=0.96
1.0786547964954458
% es.EX (V/m) @ t=0.96
0.732419245295393
% es.EY (V/m) @ t=0.96
0.20801689530898138
% es.EZ (V/m) @ t=0.96
0.7441733838614644
% es.tEX (V/m) @ t=0.96
0.7324192452953611
% es.tEY (V/m) @ t=0.96
0
% es.tEZ (V/m) @ t=0.96
0.744173383861451
% es.Ex (V/m) @ t=0.96
0.732419245295393
% es.Ey (V/m) @ t=0.96
0.20801689530898138
% es.Ez (V/m) @ t=0.96
0.7441733838614644
% es.tEx (V/m) @ t=0.96
0.7324192452953611
% es.tEy (V/m) @ t=0.96
0
% es.tEz (V/m) @ t=0.96
0.744173383861451
% V (V) @ t=0.96
0.010114842756973552
% es.normE (V/m) @ t=0.98
1.088381981543895
% es.EX (V/m) @ t=0.98
0.739024122585775
% es.EY (V/m) @ t=0.98
0.20989275904176274
% es.EZ (V/m) @ t=0.98
0.7508842539583824
% es.tEX (V/m) @ t=0.98
0.7390241225857466
% es.tEY (V/m) @ t=0.98
0
% es.tEZ (V/m) @ t=0.98
0.7508842539583611
% es.Ex (V/m) @ t=0.98
0.739024122585775
% es.Ey (V/m) @ t=0.98
0.20989275904176274
% es.Ez (V/m) @ t=0.98
0.7508842539583824
% es.tEx (V/m) @ t=0.98
0.7390241225857466
% es.tEy (V/m) @ t=0.98
0
% es.tEz (V/m) @ t=0.98
0.7508842539583611
% V (V) @ t=0.98
0.010206057587996697
% es.normE (V/m) @ t=1
1.0981091665923475
% es.EX (V/m) @ t=1
0.7456289998761463
% es.EY (V/m) @ t=1
0.21176862277458675
% es.EZ (V/m) @ t=1
0.7575951240552969
% es.tEX (V/m) @ t=1
0.7456289998761321
% es.tEY (V/m) @ t=1
0
% es.tEZ (V/m) @ t=1
0.7575951240552783
% es.Ex (V/m) @ t=1
0.7456289998761463
% es.Ey (V/m) @ t=1
0.21176862277458675
% es.Ez (V/m) @ t=1
0.7575951240552969
% es.tEx (V/m) @ t=1
0.7456289998761321
% es.tEy (V/m) @ t=1
0
% es.tEz (V/m) @ t=1
0.7575951240552783
% V (V) @ t=1
0.010297272419019841
% es.normE (V/m) @ t=1.02
1.1078363516407863
% es.EX (V/m) @ t=1.02
0.7522338771665176
% es.EY (V/m) @ t=1.02
0.21364448650741785
% es.EZ (V/m) @ t=1.02
0.7643059941521892
% es.tEX (V/m) @ t=1.02
0.7522338771665318
% es.tEY (V/m) @ t=1.02
0
% es.tEZ (V/m) @ t=1.02
0.7643059941521813
% es.Ex (V/m) @ t=1.02
0.7522338771665176
% es.Ey (V/m) @ t=1.02
0.21364448650741785
% es.Ez (V/m) @ t=1.02
0.7643059941521892
% es.tEx (V/m) @ t=1.02
0.7522338771665318
% es.tEy (V/m) @ t=1.02
0
% es.tEz (V/m) @ t=1.02
0.7643059941521813
% V (V) @ t=1.02
0.010388487250042985
% es.normE (V/m) @ t=1.04
1.1175635366891985
% es.EX (V/m) @ t=1.04
0.7588387544568356
% es.EY (V/m) @ t=1.04
0.21552035024026317
% es.EZ (V/m) @ t=1.04
0.7710168642490931
% es.tEX (V/m) @ t=1.04
0.7588387544568462
% es.tEY (V/m) @ t=1.04
0
% es.tEZ (V/m) @ t=1.04
0.7710168642490913
% es.Ex (V/m) @ t=1.04
0.7588387544568356
% es.Ey (V/m) @ t=1.04
0.21552035024026317