% Model:              1 neuron.mph
% Version:            COMSOL 6.0.0.405
% Date:               Mar 9 2023, 14:23
% Dimension:          0
% Nodes:              14017
% Expressions:        14017
% Description:        Electric field norm, Electric field, X component, Electric field, Y component, Electric field, Z component, Tangential electric field, X component, Tangential electric field, Y component, Tangential electric field, Z component, Electric field, x component, Electric field, y component, Electric field, z component, Tangential electric field, x component, Tangential electric field, y component, Tangential electric field, z component, Electric potential
% Length unit:        mm
% x
2
% y
12.2
% z
1.33
% es.normE (V/m) @ t=0
1.317951832756052
% es.EX (V/m) @ t=0
-1.2122227799988954
% es.EY (V/m) @ t=0
0.09456141721991673
% es.EZ (V/m) @ t=0
0.5069728358892123
% es.tEX (V/m) @ t=0
-1.21222277999889
% es.tEY (V/m) @ t=0
0
% es.tEZ (V/m) @ t=0
0.5069728358892114
% es.Ex (V/m) @ t=0
-1.2122227799988954
% es.Ey (V/m) @ t=0
0.09456141721991673
% es.Ez (V/m) @ t=0
0.5069728358892123
% es.tEx (V/m) @ t=0
-1.21222277999889
% es.tEy (V/m) @ t=0
0
% es.tEz (V/m) @ t=0
0.5069728358892114
% V (V) @ t=0
0.007358393971345401
% es.normE (V/m) @ t=0.02
1.1383398647802676
% es.EX (V/m) @ t=0.02
-1.04701968659674
% es.EY (V/m) @ t=0.02
0.08167448083794293
% es.EZ (V/m) @ t=0.02
0.43788200480134937
% es.tEX (V/m) @ t=0.02
-1.0470196865967392
% es.tEY (V/m) @ t=0.02
0
% es.tEZ (V/m) @ t=0.02
0.43788200480135053
% es.Ex (V/m) @ t=0.02
-1.04701968659674
% es.Ey (V/m) @ t=0.02
0.08167448083794293
% es.Ez (V/m) @ t=0.02
0.43788200480134937
% es.tEx (V/m) @ t=0.02
-1.0470196865967392
% es.tEy (V/m) @ t=0.02
0
% es.tEz (V/m) @ t=0.02
0.43788200480135053
% V (V) @ t=0.02
0.006355583667726437
% es.normE (V/m) @ t=0.04
1.14881019890251
% es.EX (V/m) @ t=0.04
-1.0566500666167407
% es.EY (V/m) @ t=0.04
0.08242571493543088
% es.EZ (V/m) @ t=0.04
0.4419095997858293
% es.tEX (V/m) @ t=0.04
-1.0566500666167364
% es.tEY (V/m) @ t=0.04
0
% es.tEZ (V/m) @ t=0.04
0.44190959978582356
% es.Ex (V/m) @ t=0.04
-1.0566500666167407
% es.Ey (V/m) @ t=0.04
0.08242571493543088
% es.Ez (V/m) @ t=0.04
0.4419095997858293
% es.tEx (V/m) @ t=0.04
-1.0566500666167364
% es.tEy (V/m) @ t=0.04
0
% es.tEz (V/m) @ t=0.04
0.44190959978582356
% V (V) @ t=0.04
0.006414041642221447
% es.normE (V/m) @ t=0.06
1.1593734186280682
% es.EX (V/m) @ t=0.06
-1.066365881254829
% es.EY (V/m) @ t=0.06
0.08318361279529635
% es.EZ (V/m) @ t=0.06
0.4459729236795151
% es.tEX (V/m) @ t=0.06
-1.0663658812548231
% es.tEY (V/m) @ t=0.06
0
% es.tEZ (V/m) @ t=0.06
0.4459729236795198
% es.Ex (V/m) @ t=0.06
-1.066365881254829
% es.Ey (V/m) @ t=0.06
0.08318361279529635
% es.Ez (V/m) @ t=0.06
0.4459729236795151
% es.tEx (V/m) @ t=0.06
-1.0663658812548231
% es.tEy (V/m) @ t=0.06
0
% es.tEz (V/m) @ t=0.06
0.4459729236795198
% V (V) @ t=0.06
0.006473018261695787
% es.normE (V/m) @ t=0.08
1.1701014125086853
% es.EX (V/m) @ t=0.08
-1.0762332512158617
% es.EY (V/m) @ t=0.08
0.08395333335747068
% es.EZ (V/m) @ t=0.08
0.4500996314134945
% es.tEX (V/m) @ t=0.08
-1.0762332512158572
% es.tEY (V/m) @ t=0.08
0
% es.tEZ (V/m) @ t=0.08
0.45009963141349374
% es.Ex (V/m) @ t=0.08
-1.0762332512158617
% es.Ey (V/m) @ t=0.08
0.08395333335747068
% es.Ez (V/m) @ t=0.08
0.4500996314134945
% es.tEx (V/m) @ t=0.08
-1.0762332512158572
% es.tEy (V/m) @ t=0.08
0
% es.tEz (V/m) @ t=0.08
0.45009963141349374
% V (V) @ t=0.08
0.006532914823714229
% es.normE (V/m) @ t=0.1
1.1809366180076943
% es.EX (V/m) @ t=0.1
-1.0861992318567242
% es.EY (V/m) @ t=0.1
0.0847307464551974
% es.EZ (V/m) @ t=0.1
0.4542675803487776
% es.tEX (V/m) @ t=0.1
-1.0861992318567202
% es.tEY (V/m) @ t=0.1
0
% es.tEZ (V/m) @ t=0.1
0.4542675803487768
% es.Ex (V/m) @ t=0.1
-1.0861992318567242
% es.Ey (V/m) @ t=0.1
0.0847307464551974
% es.Ez (V/m) @ t=0.1
0.4542675803487776
% es.tEx (V/m) @ t=0.1
-1.0861992318567202
% es.tEy (V/m) @ t=0.1
0
% es.tEz (V/m) @ t=0.1
0.4542675803487768
% V (V) @ t=0.1
0.00659340995368745
% es.normE (V/m) @ t=0.12
1.19177182350671
% es.EX (V/m) @ t=0.12
-1.0961652124975907
% es.EY (V/m) @ t=0.12
0.08550815955293395
% es.EZ (V/m) @ t=0.12
0.4584355292840678
% es.tEX (V/m) @ t=0.12
-1.0961652124975831
% es.tEY (V/m) @ t=0.12
0
% es.tEZ (V/m) @ t=0.12
0.4584355292840705
% es.Ex (V/m) @ t=0.12
-1.0961652124975907
% es.Ey (V/m) @ t=0.12
0.08550815955293395
% es.Ez (V/m) @ t=0.12
0.4584355292840678
% es.tEx (V/m) @ t=0.12
-1.0961652124975831
% es.tEy (V/m) @ t=0.12
0
% es.tEz (V/m) @ t=0.12
0.4584355292840705
% V (V) @ t=0.12
0.006653905083660673
% es.normE (V/m) @ t=0.14
1.2027344976678358
% es.EX (V/m) @ t=0.14
-1.1062484361911427
% es.EY (V/m) @ t=0.14
0.08629471809110933
% es.EZ (V/m) @ t=0.14
0.46265251075533115
% es.tEX (V/m) @ t=0.14
-1.1062484361911409
% es.tEY (V/m) @ t=0.14
0
% es.tEZ (V/m) @ t=0.14
0.4626525107553334
% es.Ex (V/m) @ t=0.14
-1.1062484361911427
% es.Ey (V/m) @ t=0.14
0.08629471809110933
% es.Ez (V/m) @ t=0.14
0.46265251075533115
% es.tEx (V/m) @ t=0.14
-1.1062484361911409
% es.tEy (V/m) @ t=0.14
0
% es.tEz (V/m) @ t=0.14
0.4626525107553334
% V (V) @ t=0.14
0.006715111916251037
% es.normE (V/m) @ t=0.16
1.2141450450873612
% es.EX (V/m) @ t=0.16
-1.1167436044925796
% es.EY (V/m) @ t=0.16
0.08711341000341527
% es.EZ (V/m) @ t=0.16
0.46704177270159747
% es.tEX (V/m) @ t=0.16
-1.1167436044925747
% es.tEY (V/m) @ t=0.16
0
% es.tEZ (V/m) @ t=0.16
0.46704177270159875
% es.Ex (V/m) @ t=0.16
-1.1167436044925796
% es.Ey (V/m) @ t=0.16
0.08711341000341527
% es.Ez (V/m) @ t=0.16
0.46704177270159747
% es.tEx (V/m) @ t=0.16
-1.1167436044925747
% es.tEy (V/m) @ t=0.16
0
% es.tEz (V/m) @ t=0.16
0.46704177270159875
% V (V) @ t=0.16
0.00677881938362396
% es.normE (V/m) @ t=0.18
1.2255555925068906
% es.EX (V/m) @ t=0.18
-1.1272387727940214
% es.EY (V/m) @ t=0.18
0.08793210191573464
% es.EZ (V/m) @ t=0.18
0.4714310346478609
% es.tEX (V/m) @ t=0.18
-1.1272387727940174
% es.tEY (V/m) @ t=0.18
0
% es.tEZ (V/m) @ t=0.18
0.47143103464786407
% es.Ex (V/m) @ t=0.18
-1.1272387727940214
% es.Ey (V/m) @ t=0.18
0.08793210191573464
% es.Ez (V/m) @ t=0.18
0.4714310346478609
% es.tEx (V/m) @ t=0.18
-1.1272387727940174
% es.tEy (V/m) @ t=0.18
0
% es.tEz (V/m) @ t=0.18
0.47143103464786407
% V (V) @ t=0.18
0.006842526850996882
% es.normE (V/m) @ t=0.2
1.2369661399264114
% es.EX (V/m) @ t=0.2
-1.1377339410954534
% es.EY (V/m) @ t=0.2
0.08875079382803436
% es.EZ (V/m) @ t=0.2
0.475820296594128
% es.tEX (V/m) @ t=0.2
-1.1377339410954477
% es.tEY (V/m) @ t=0.2
0
% es.tEZ (V/m) @ t=0.2
0.47582029659412584
% es.Ex (V/m) @ t=0.2
-1.1377339410954534
% es.Ey (V/m) @ t=0.2
0.08875079382803436
% es.Ez (V/m) @ t=0.2
0.475820296594128
% es.tEx (V/m) @ t=0.2
-1.1377339410954477
% es.tEy (V/m) @ t=0.2
0
% es.tEz (V/m) @ t=0.2
0.47582029659412584
% V (V) @ t=0.2
0.006906234318369804
% es.normE (V/m) @ t=0.22
1.2483766873459339
% es.EX (V/m) @ t=0.22
-1.1482291093968886
% es.EY (V/m) @ t=0.22
0.08956948574034124
% es.EZ (V/m) @ t=0.22
0.4802095585403899
% es.tEX (V/m) @ t=0.22
-1.1482291093968824
% es.tEY (V/m) @ t=0.22
0
% es.tEZ (V/m) @ t=0.22
0.48020955854039116
% es.Ex (V/m) @ t=0.22
-1.1482291093968886
% es.Ey (V/m) @ t=0.22
0.08956948574034124
% es.Ez (V/m) @ t=0.22
0.4802095585403899
% es.tEx (V/m) @ t=0.22
-1.1482291093968824
% es.tEy (V/m) @ t=0.22
0
% es.tEz (V/m) @ t=0.22
0.48020955854039116
% V (V) @ t=0.22
0.006969941785742727
% es.normE (V/m) @ t=0.24
1.259787234765457
% es.EX (V/m) @ t=0.24
-1.1587242776983229
% es.EY (V/m) @ t=0.24
0.09038817765265528
% es.EZ (V/m) @ t=0.24
0.4845988204866551
% es.tEX (V/m) @ t=0.24
-1.1587242776983162
% es.tEY (V/m) @ t=0.24
0
% es.tEZ (V/m) @ t=0.24
0.4845988204866565
% es.Ex (V/m) @ t=0.24
-1.1587242776983229
% es.Ey (V/m) @ t=0.24
0.09038817765265528
% es.Ez (V/m) @ t=0.24
0.4845988204866551
% es.tEx (V/m) @ t=0.24
-1.1587242776983162
% es.tEy (V/m) @ t=0.24
0
% es.tEz (V/m) @ t=0.24
0.4845988204866565
% V (V) @ t=0.24
0.0070336492531156486
% es.normE (V/m) @ t=0.26
1.2711977821849807
% es.EX (V/m) @ t=0.26
-1.1692194459997598
% es.EY (V/m) @ t=0.26
0.09120686956495944
% es.EZ (V/m) @ t=0.26
0.48898808243291686
% es.tEX (V/m) @ t=0.26
-1.169219445999758
% es.tEY (V/m) @ t=0.26
0
% es.tEZ (V/m) @ t=0.26
0.48898808243291825
% es.Ex (V/m) @ t=0.26
-1.1692194459997598
% es.Ey (V/m) @ t=0.26
0.09120686956495944
% es.Ez (V/m) @ t=0.26
0.48898808243291686
% es.tEx (V/m) @ t=0.26
-1.169219445999758
% es.tEy (V/m) @ t=0.26
0
% es.tEz (V/m) @ t=0.26
0.48898808243291825
% V (V) @ t=0.26
0.0070973567204885716
% es.normE (V/m) @ t=0.28
1.283194491962947
% es.EX (V/m) @ t=0.28
-1.1802537961798358
% es.EY (V/m) @ t=0.28
0.09206756132469185
% es.EZ (V/m) @ t=0.28
0.4936027259313624
% es.tEX (V/m) @ t=0.28
-1.1802537961798292
% es.tEY (V/m) @ t=0.28
0
% es.tEZ (V/m) @ t=0.28
0.49360272593136045
% es.Ex (V/m) @ t=0.28
-1.1802537961798358
% es.Ey (V/m) @ t=0.28
0.09206756132469185
% es.Ez (V/m) @ t=0.28
0.4936027259313624
% es.tEx (V/m) @ t=0.28
-1.1802537961798292
% es.tEy (V/m) @ t=0.28
0
% es.tEz (V/m) @ t=0.28
0.49360272593136045
% V (V) @ t=0.28
0.007164340701522478
% es.normE (V/m) @ t=0.3
1.2958989371517298
% es.EX (V/m) @ t=0.3
-1.1919391573005926
% es.EY (V/m) @ t=0.3
0.09297896391364308
% es.EZ (V/m) @ t=0.3
0.4984894962614101
% es.tEX (V/m) @ t=0.3
-1.1919391573005909
% es.tEY (V/m) @ t=0.3
0
% es.tEZ (V/m) @ t=0.3
0.4984894962614099
% es.Ex (V/m) @ t=0.3
-1.1919391573005926
% es.Ey (V/m) @ t=0.3
0.09297896391364308
% es.Ez (V/m) @ t=0.3
0.4984894962614101
% es.tEx (V/m) @ t=0.3
-1.1919391573005909
% es.tEy (V/m) @ t=0.3
0
% es.tEz (V/m) @ t=0.3
0.4984894962614099
% V (V) @ t=0.3
0.0072352807618036785
% es.normE (V/m) @ t=0.32
1.3086033823405823
% es.EX (V/m) @ t=0.32
-1.2036245184213552
% es.EY (V/m) @ t=0.32
0.09389036650258809
% es.EZ (V/m) @ t=0.32
0.5033762665914638
% es.tEX (V/m) @ t=0.32
-1.2036245184213499
% es.tEY (V/m) @ t=0.32
0
% es.tEZ (V/m) @ t=0.32
0.5033762665914594
% es.Ex (V/m) @ t=0.32
-1.2036245184213552
% es.Ey (V/m) @ t=0.32
0.09389036650258809
% es.Ez (V/m) @ t=0.32
0.5033762665914638
% es.tEx (V/m) @ t=0.32
-1.2036245184213499
% es.tEy (V/m) @ t=0.32
0
% es.tEz (V/m) @ t=0.32
0.5033762665914594
% V (V) @ t=0.32
0.00730622082208488
% es.normE (V/m) @ t=0.34
1.3213078275294992
% es.EX (V/m) @ t=0.34
-1.2153098795421196
% es.EY (V/m) @ t=0.34
0.09480176909156324
% es.EZ (V/m) @ t=0.34
0.5082630369215151
% es.tEX (V/m) @ t=0.34
-1.2153098795421151
% es.tEY (V/m) @ t=0.34
0
% es.tEZ (V/m) @ t=0.34
0.5082630369215124
% es.Ex (V/m) @ t=0.34
-1.2153098795421196
% es.Ey (V/m) @ t=0.34
0.09480176909156324
% es.Ez (V/m) @ t=0.34
0.5082630369215151
% es.tEx (V/m) @ t=0.34
-1.2153098795421151
% es.tEy (V/m) @ t=0.34
0
% es.tEz (V/m) @ t=0.34
0.5082630369215124
% V (V) @ t=0.34
0.007377160882366083
% es.normE (V/m) @ t=0.36
1.3340122727184751
% es.EX (V/m) @ t=0.36
-1.2269952406628835
% es.EY (V/m) @ t=0.36
0.09571317168051269
% es.EZ (V/m) @ t=0.36
0.5131498072515716
% es.tEX (V/m) @ t=0.36
-1.2269952406628777
% es.tEY (V/m) @ t=0.36
0
% es.tEZ (V/m) @ t=0.36
0.5131498072515726
% es.Ex (V/m) @ t=0.36
-1.2269952406628835
% es.Ey (V/m) @ t=0.36
0.09571317168051269
% es.Ez (V/m) @ t=0.36
0.5131498072515716
% es.tEx (V/m) @ t=0.36
-1.2269952406628777
% es.tEy (V/m) @ t=0.36
0
% es.tEz (V/m) @ t=0.36
0.5131498072515726
% V (V) @ t=0.36
0.007448100942647284
% es.normE (V/m) @ t=0.38
1.3467167179075004
% es.EX (V/m) @ t=0.38
-1.2386806017836411
% es.EY (V/m) @ t=0.38
0.0966245742694728
% es.EZ (V/m) @ t=0.38
0.51803657758162
% es.tEX (V/m) @ t=0.38
-1.2386806017836358
% es.tEY (V/m) @ t=0.38
0
% es.tEZ (V/m) @ t=0.38
0.5180365775816185
% es.Ex (V/m) @ t=0.38
-1.2386806017836411
% es.Ey (V/m) @ t=0.38
0.0966245742694728
% es.Ez (V/m) @ t=0.38
0.51803657758162
% es.tEx (V/m) @ t=0.38
-1.2386806017836358
% es.tEy (V/m) @ t=0.38
0
% es.tEz (V/m) @ t=0.38
0.5180365775816185
% V (V) @ t=0.38
0.007519041002928485
% es.normE (V/m) @ t=0.4
1.3594211630965818
% es.EX (V/m) @ t=0.4
-1.2503659629044006
% es.EY (V/m) @ t=0.4
0.0975359768584213
% es.EZ (V/m) @ t=0.4
0.5229233479116633
% es.tEX (V/m) @ t=0.4
-1.250365962904394
% es.tEY (V/m) @ t=0.4
0
% es.tEZ (V/m) @ t=0.4
0.5229233479116644
% es.Ex (V/m) @ t=0.4
-1.2503659629044006
% es.Ey (V/m) @ t=0.4
0.0975359768584213
% es.Ez (V/m) @ t=0.4
0.5229233479116633
% es.tEx (V/m) @ t=0.4
-1.250365962904394
% es.tEy (V/m) @ t=0.4
0
% es.tEz (V/m) @ t=0.4
0.5229233479116644
% V (V) @ t=0.4
0.007589981063209688
% es.normE (V/m) @ t=0.42
1.3721256082857358
% es.EX (V/m) @ t=0.42
-1.2620513240251694
% es.EY (V/m) @ t=0.42
0.09844737944738585
% es.EZ (V/m) @ t=0.42
0.5278101182417287
% es.tEX (V/m) @ t=0.42
-1.2620513240251627
% es.tEY (V/m) @ t=0.42
0
% es.tEZ (V/m) @ t=0.42
0.5278101182417316
% es.Ex (V/m) @ t=0.42
-1.2620513240251694
% es.Ey (V/m) @ t=0.42
0.09844737944738585
% es.Ez (V/m) @ t=0.42
0.5278101182417287
% es.tEx (V/m) @ t=0.42
-1.2620513240251627
% es.tEy (V/m) @ t=0.42
0
% es.tEz (V/m) @ t=0.42
0.5278101182417316
% V (V) @ t=0.42
0.007660921123490889
% es.normE (V/m) @ t=0.44
1.3848300534749167
% es.EX (V/m) @ t=0.44
-1.2737366851459226
% es.EY (V/m) @ t=0.44
0.09935878203634069
% es.EZ (V/m) @ t=0.44
0.5326968885717656
% es.tEX (V/m) @ t=0.44
-1.273736685145919
% es.tEY (V/m) @ t=0.44
0
% es.tEZ (V/m) @ t=0.44
0.5326968885717669
% es.Ex (V/m) @ t=0.44
-1.2737366851459226
% es.Ey (V/m) @ t=0.44
0.09935878203634069
% es.Ez (V/m) @ t=0.44
0.5326968885717656
% es.tEx (V/m) @ t=0.44
-1.273736685145919
% es.tEy (V/m) @ t=0.44
0
% es.tEz (V/m) @ t=0.44
0.5326968885717669
% V (V) @ t=0.44
0.00773186118377209
% es.normE (V/m) @ t=0.46
1.3975344986641693
% es.EX (V/m) @ t=0.46
-1.285422046266687
% es.EY (V/m) @ t=0.46
0.1002701846253044
% es.EZ (V/m) @ t=0.46
0.5375836589018255
% es.tEX (V/m) @ t=0.46
-1.2854220462666799
% es.tEY (V/m) @ t=0.46
0
% es.tEZ (V/m) @ t=0.46
0.537583658901827
% es.Ex (V/m) @ t=0.46
-1.285422046266687
% es.Ey (V/m) @ t=0.46
0.1002701846253044
% es.Ez (V/m) @ t=0.46
0.5375836589018255
% es.tEx (V/m) @ t=0.46
-1.2854220462666799
% es.tEy (V/m) @ t=0.46
0
% es.tEz (V/m) @ t=0.46
0.537583658901827
% V (V) @ t=0.46
0.007802801244053291
% es.normE (V/m) @ t=0.48
1.4102389438534635
% es.EX (V/m) @ t=0.48
-1.2971074073874473
% es.EY (V/m) @ t=0.48
0.1011815872142538
% es.EZ (V/m) @ t=0.48
0.542470429231874
% es.tEX (V/m) @ t=0.48
-1.297107407387439
% es.tEY (V/m) @ t=0.48
0
% es.tEZ (V/m) @ t=0.48
0.5424704292318729
% es.Ex (V/m) @ t=0.48
-1.2971074073874473
% es.Ey (V/m) @ t=0.48
0.1011815872142538
% es.Ez (V/m) @ t=0.48
0.542470429231874
% es.tEx (V/m) @ t=0.48
-1.297107407387439
% es.tEy (V/m) @ t=0.48
0
% es.tEz (V/m) @ t=0.48
0.5424704292318729
% V (V) @ t=0.48
0.007873741304334495
% es.normE (V/m) @ t=0.5
1.4229433890428131
% es.EX (V/m) @ t=0.5
-1.30879276850821
% es.EY (V/m) @ t=0.5
0.10209298980320852
% es.EZ (V/m) @ t=0.5
0.5473571995619342
% es.tEX (V/m) @ t=0.5
-1.3087927685082033
% es.tEY (V/m) @ t=0.5
0
% es.tEZ (V/m) @ t=0.5
0.5473571995619331
% es.Ex (V/m) @ t=0.5
-1.30879276850821
% es.Ey (V/m) @ t=0.5
0.10209298980320852
% es.Ez (V/m) @ t=0.5
0.5473571995619342
% es.tEx (V/m) @ t=0.5
-1.3087927685082033
% es.tEy (V/m) @ t=0.5
0
% es.tEz (V/m) @ t=0.5
0.5473571995619331
% V (V) @ t=0.5
0.007944681364615696
% es.normE (V/m) @ t=0.52
1.4356478342322023
% es.EX (V/m) @ t=0.52
-1.320478129628969
% es.EY (V/m) @ t=0.52
0.10300439239216508
% es.EZ (V/m) @ t=0.52
0.552243969891981
% es.tEX (V/m) @ t=0.52
-1.3204781296289667
% es.tEY (V/m) @ t=0.52
0
% es.tEZ (V/m) @ t=0.52
0.552243969891979
% es.Ex (V/m) @ t=0.52
-1.320478129628969
% es.Ey (V/m) @ t=0.52
0.10300439239216508
% es.Ez (V/m) @ t=0.52
0.552243969891981
% es.tEx (V/m) @ t=0.52
-1.3204781296289667
% es.tEy (V/m) @ t=0.52
0
% es.tEz (V/m) @ t=0.52
0.552243969891979
% V (V) @ t=0.52
0.008015621424896896
% es.normE (V/m) @ t=0.54
1.448352279421647
% es.EX (V/m) @ t=0.54
-1.3321634907497333
% es.EY (V/m) @ t=0.54
0.10391579498112158
% es.EZ (V/m) @ t=0.54
0.5571307402220358
% es.tEX (V/m) @ t=0.54
-1.3321634907497257
% es.tEY (V/m) @ t=0.54
0
% es.tEZ (V/m) @ t=0.54
0.5571307402220356
% es.Ex (V/m) @ t=0.54
-1.3321634907497333
% es.Ey (V/m) @ t=0.54
0.10391579498112158
% es.Ez (V/m) @ t=0.54
0.5571307402220358
% es.tEx (V/m) @ t=0.54
-1.3321634907497257
% es.tEy (V/m) @ t=0.54
0
% es.tEz (V/m) @ t=0.54
0.5571307402220356
% V (V) @ t=0.54
0.0080865614851781
% es.normE (V/m) @ t=0.56
1.4623995589333485
% es.EX (V/m) @ t=0.56
-1.3450841335798729
% es.EY (V/m) @ t=0.56
0.10492331614040784
% es.EZ (V/m) @ t=0.56
0.5625336680596982
% es.tEX (V/m) @ t=0.56
-1.3450841335798724
% es.tEY (V/m) @ t=0.56
0
% es.tEZ (V/m) @ t=0.56
0.5625336680597002
% es.Ex (V/m) @ t=0.56
-1.3450841335798729
% es.Ey (V/m) @ t=0.56
0.10492331614040784
% es.Ez (V/m) @ t=0.56
0.5625336680596982
% es.tEx (V/m) @ t=0.56
-1.3450841335798724
% es.tEy (V/m) @ t=0.56
0
% es.tEz (V/m) @ t=0.56
0.5625336680597002
% V (V) @ t=0.56
0.00816501435209426
% es.normE (V/m) @ t=0.58
1.4765700507751331
% es.EX (V/m) @ t=0.58
-1.3581181202042982
% es.EY (V/m) @ t=0.58
0.10593965669964917
% es.EZ (V/m) @ t=0.58
0.5679839561471844
% es.tEX (V/m) @ t=0.58
-1.3581181202042938
% es.tEY (V/m) @ t=0.58
0
% es.tEZ (V/m) @ t=0.58
0.567983956147188
% es.Ex (V/m) @ t=0.58
-1.3581181202042982
% es.Ey (V/m) @ t=0.58
0.10593965669964917
% es.Ez (V/m) @ t=0.58
0.5679839561471844
% es.tEx (V/m) @ t=0.58
-1.3581181202042938
% es.tEy (V/m) @ t=0.58
0
% es.tEz (V/m) @ t=0.58
0.567983956147188
% V (V) @ t=0.58
0.008244156559752192
% es.normE (V/m) @ t=0.6
1.4907405426173694
% es.EX (V/m) @ t=0.6
-1.3711521068287296
% es.EY (V/m) @ t=0.6
0.10695599725890464
% es.EZ (V/m) @ t=0.6
0.5734342442346646
% es.tEX (V/m) @ t=0.6
-1.3711521068287187
% es.tEY (V/m) @ t=0.6
0
% es.tEZ (V/m) @ t=0.6
0.5734342442346616
% es.Ex (V/m) @ t=0.6
-1.3711521068287296
% es.Ey (V/m) @ t=0.6
0.10695599725890464
% es.Ez (V/m) @ t=0.6
0.5734342442346646
% es.tEx (V/m) @ t=0.6
-1.3711521068287187
% es.tEy (V/m) @ t=0.6
0
% es.tEz (V/m) @ t=0.6
0.5734342442346616
% V (V) @ t=0.6
0.008323298767410121
% es.normE (V/m) @ t=0.62
1.5049110344600372
% es.EX (V/m) @ t=0.62
-1.3841860934531525
% es.EY (V/m) @ t=0.62
0.10797233781814602
% es.EZ (V/m) @ t=0.62
0.5788845323221616
% es.tEX (V/m) @ t=0.62
-1.3841860934531454
% es.tEY (V/m) @ t=0.62
0
% es.tEZ (V/m) @ t=0.62
0.5788845323221636
% es.Ex (V/m) @ t=0.62
-1.3841860934531525
% es.Ey (V/m) @ t=0.62
0.10797233781814602
% es.Ez (V/m) @ t=0.62
0.5788845323221616
% es.tEx (V/m) @ t=0.62
-1.3841860934531454
% es.tEy (V/m) @ t=0.62
0
% es.tEz (V/m) @ t=0.62
0.5788845323221636
% V (V) @ t=0.62
0.008402440975068051
% es.normE (V/m) @ t=0.64
1.5190815263031334
% es.EX (V/m) @ t=0.64
-1.3972200800775854
% es.EY (V/m) @ t=0.64
0.10898867837739623
% es.EZ (V/m) @ t=0.64
0.5843348204096497
% es.tEX (V/m) @ t=0.64
-1.3972200800775774
% es.tEY (V/m) @ t=0.64
0
% es.tEZ (V/m) @ t=0.64
0.5843348204096479
% es.Ex (V/m) @ t=0.64
-1.3972200800775854
% es.Ey (V/m) @ t=0.64
0.10898867837739623
% es.Ez (V/m) @ t=0.64
0.5843348204096497
% es.tEx (V/m) @ t=0.64
-1.3972200800775774
% es.tEy (V/m) @ t=0.64
0
% es.tEz (V/m) @ t=0.64
0.5843348204096479
% V (V) @ t=0.64
0.008481583182725983
% es.normE (V/m) @ t=0.66
1.5332520181466407
% es.EX (V/m) @ t=0.66
-1.4102540667020151
% es.EY (V/m) @ t=0.66
0.1100050189366446
% es.EZ (V/m) @ t=0.66
0.5897851084971468
% es.tEX (V/m) @ t=0.66
-1.4102540667020111
% es.tEY (V/m) @ t=0.66
0
% es.tEZ (V/m) @ t=0.66
0.5897851084971464
% es.Ex (V/m) @ t=0.66
-1.4102540667020151
% es.Ey (V/m) @ t=0.66
0.1100050189366446
% es.Ez (V/m) @ t=0.66
0.5897851084971468
% es.tEx (V/m) @ t=0.66
-1.4102540667020111
% es.tEy (V/m) @ t=0.66
0
% es.tEz (V/m) @ t=0.66
0.5897851084971464
% V (V) @ t=0.66
0.008560725390383911
% es.normE (V/m) @ t=0.68
1.5474225099905443
% es.EX (V/m) @ t=0.68
-1.4232880533264487
% es.EY (V/m) @ t=0.68
0.11102135949588776
% es.EZ (V/m) @ t=0.68
0.5952353965846295
% es.tEX (V/m) @ t=0.68
-1.423288053326445
% es.tEY (V/m) @ t=0.68
0
% es.tEZ (V/m) @ t=0.68
0.5952353965846271
% es.Ex (V/m) @ t=0.68
-1.4232880533264487
% es.Ey (V/m) @ t=0.68
0.11102135949588776
% es.Ez (V/m) @ t=0.68
0.5952353965846295
% es.tEx (V/m) @ t=0.68
-1.423288053326445
% es.tEy (V/m) @ t=0.68
0
% es.tEz (V/m) @ t=0.68
0.5952353965846271
% V (V) @ t=0.68
0.008639867598041844
% es.normE (V/m) @ t=0.7
1.5615930018348338
% es.EX (V/m) @ t=0.7
-1.4363220399508763
% es.EY (V/m) @ t=0.7
0.11203770005513258
% es.EZ (V/m) @ t=0.7
0.6006856846721196
% es.tEX (V/m) @ t=0.7
-1.4363220399508716
% es.tEY (V/m) @ t=0.7
0
% es.tEZ (V/m) @ t=0.7
0.6006856846721185
% es.Ex (V/m) @ t=0.7
-1.4363220399508763
% es.Ey (V/m) @ t=0.7
0.11203770005513258
% es.Ez (V/m) @ t=0.7
0.6006856846721196
% es.tEx (V/m) @ t=0.7
-1.4363220399508716
% es.tEy (V/m) @ t=0.7
0
% es.tEz (V/m) @ t=0.7
0.6006856846721185
% V (V) @ t=0.7
0.008719009805699772
% es.normE (V/m) @ t=0.72
1.5757634936795049
% es.EX (V/m) @ t=0.72
-1.4493560265753052
% es.EY (V/m) @ t=0.72
0.1130540406143899
% es.EZ (V/m) @ t=0.72
0.6061359727596147
% es.tEX (V/m) @ t=0.72
-1.4493560265753
% es.tEY (V/m) @ t=0.72
0
% es.tEZ (V/m) @ t=0.72
0.6061359727596063
% es.Ex (V/m) @ t=0.72
-1.4493560265753052
% es.Ey (V/m) @ t=0.72
0.1130540406143899
% es.Ez (V/m) @ t=0.72
0.6061359727596147
% es.tEx (V/m) @ t=0.72
-1.4493560265753
% es.tEy (V/m) @ t=0.72
0
% es.tEz (V/m) @ t=0.72
0.6061359727596063
% V (V) @ t=0.72
0.008798152013357702
% es.normE (V/m) @ t=0.74
1.5899339855245462
% es.EX (V/m) @ t=0.74
-1.4623900131997352
% es.EY (V/m) @ t=0.74
0.11407038117363294
% es.EZ (V/m) @ t=0.74
0.6115862608471154
% es.tEX (V/m) @ t=0.74
-1.462390013199732
% es.tEY (V/m) @ t=0.74
0
% es.tEZ (V/m) @ t=0.74
0.6115862608471154
% es.Ex (V/m) @ t=0.74
-1.4623900131997352
% es.Ey (V/m) @ t=0.74
0.11407038117363294
% es.Ez (V/m) @ t=0.74
0.6115862608471154
% es.tEx (V/m) @ t=0.74
-1.462390013199732
% es.tEy (V/m) @ t=0.74
0
% es.tEz (V/m) @ t=0.74
0.6115862608471154
% V (V) @ t=0.74
0.008877294221015634
% es.normE (V/m) @ t=0.76
1.604104477369944
% es.EX (V/m) @ t=0.76
-1.4754239998241725
% es.EY (V/m) @ t=0.76
0.11508672173287421
% es.EZ (V/m) @ t=0.76
0.6170365489345964
% es.tEX (V/m) @ t=0.76
-1.475423999824164
% es.tEY (V/m) @ t=0.76
0
% es.tEZ (V/m) @ t=0.76
0.6170365489345997
% es.Ex (V/m) @ t=0.76
-1.4754239998241725
% es.Ey (V/m) @ t=0.76
0.11508672173287421
% es.Ez (V/m) @ t=0.76
0.6170365489345964
% es.tEx (V/m) @ t=0.76
-1.475423999824164
% es.tEy (V/m) @ t=0.76
0
% es.tEz (V/m) @ t=0.76
0.6170365489345997
% V (V) @ t=0.76
0.008956436428673564
% es.normE (V/m) @ t=0.78
1.6182749692156828
% es.EX (V/m) @ t=0.78
-1.4884579864485978
% es.EY (V/m) @ t=0.78
0.11610306229212802
% es.EZ (V/m) @ t=0.78
0.6224868370220846
% es.tEX (V/m) @ t=0.78
-1.4884579864485943
% es.tEY (V/m) @ t=0.78
0
% es.tEZ (V/m) @ t=0.78
0.6224868370220911
% es.Ex (V/m) @ t=0.78
-1.4884579864485978
% es.Ey (V/m) @ t=0.78
0.11610306229212802
% es.Ez (V/m) @ t=0.78
0.6224868370220846
% es.tEx (V/m) @ t=0.78
-1.4884579864485943
% es.tEy (V/m) @ t=0.78
0
% es.tEz (V/m) @ t=0.78
0.6224868370220911
% V (V) @ t=0.78
0.009035578636331493
% es.normE (V/m) @ t=0.8
1.632445461061779
% es.EX (V/m) @ t=0.8
-1.5014919730730385
% es.EY (V/m) @ t=0.8
0.11711940285136752
% es.EZ (V/m) @ t=0.8
0.6279371251095833
% es.tEX (V/m) @ t=0.8
-1.5014919730730352
% es.tEY (V/m) @ t=0.8
0
% es.tEZ (V/m) @ t=0.8
0.6279371251095824
% es.Ex (V/m) @ t=0.8
-1.5014919730730385
% es.Ey (V/m) @ t=0.8
0.11711940285136752
% es.Ez (V/m) @ t=0.8
0.6279371251095833
% es.tEx (V/m) @ t=0.8
-1.5014919730730352
% es.tEy (V/m) @ t=0.8
0
% es.tEz (V/m) @ t=0.8
0.6279371251095824
% V (V) @ t=0.8
0.009114720843989423
% es.normE (V/m) @ t=0.82
1.647244010933752
% es.EX (V/m) @ t=0.82
-1.5151032307473065
% es.EY (V/m) @ t=0.82
0.11818133832134603
% es.EZ (V/m) @ t=0.82
0.6336299092538018
% es.tEX (V/m) @ t=0.82
-1.515103230747302
% es.tEY (V/m) @ t=0.82
0
% es.tEZ (V/m) @ t=0.82
0.6336299092538056
% es.Ex (V/m) @ t=0.82
-1.5151032307473065
% es.Ey (V/m) @ t=0.82
0.11818133832134603
% es.Ez (V/m) @ t=0.82
0.6336299092538018
% es.tEx (V/m) @ t=0.82
-1.515103230747302
% es.tEy (V/m) @ t=0.82
0
% es.tEz (V/m) @ t=0.82
0.6336299092538056
% V (V) @ t=0.82
0.009197333441117722
% es.normE (V/m) @ t=0.84
1.6630721224312
% es.EX (V/m) @ t=0.84
-1.5296607960788886
% es.EY (V/m) @ t=0.84
0.11931801651943313
% es.EZ (V/m) @ t=0.84
0.6397202118175169
% es.tEX (V/m) @ t=0.84
-1.5296607960788755
% es.tEY (V/m) @ t=0.84
0
% es.tEZ (V/m) @ t=0.84
0.6397202118175151
% es.Ex (V/m) @ t=0.84
-1.5296607960788886
% es.Ey (V/m) @ t=0.84
0.11931801651943313
% es.Ez (V/m) @ t=0.84
0.6397202118175169
% es.tEx (V/m) @ t=0.84
-1.5296607960788755
% es.tEy (V/m) @ t=0.84
0
% es.tEz (V/m) @ t=0.84
0.6397202118175151
% V (V) @ t=0.84
0.009285634970906979
% es.normE (V/m) @ t=0.86
1.6789002339324126
% es.EX (V/m) @ t=0.86
-1.5442183614104783
% es.EY (V/m) @ t=0.86
0.12045469471753256
% es.EZ (V/m) @ t=0.86
0.6458105143812325
% es.tEX (V/m) @ t=0.86
-1.5442183614104685
% es.tEY (V/m) @ t=0.86
0
% es.tEZ (V/m) @ t=0.86
0.6458105143812318
% es.Ex (V/m) @ t=0.86
-1.5442183614104783
% es.Ey (V/m) @ t=0.86
0.12045469471753256
% es.Ez (V/m) @ t=0.86
0.6458105143812325
% es.tEx (V/m) @ t=0.86
-1.5442183614104685
% es.tEy (V/m) @ t=0.86
0
% es.tEz (V/m) @ t=0.86
0.6458105143812318
% V (V) @ t=0.86
0.009373936500696232
% es.normE (V/m) @ t=0.88
1.6947283454372792
% es.EX (V/m) @ t=0.88
-1.558775926742067
% es.EY (V/m) @ t=0.88
0.12159137291562683
% es.EZ (V/m) @ t=0.88
0.6519008169449565
% es.tEX (V/m) @ t=0.88
-1.5587759267420598
% es.tEY (V/m) @ t=0.88
0
% es.tEZ (V/m) @ t=0.88
0.6519008169449592
% es.Ex (V/m) @ t=0.88
-1.558775926742067
% es.Ey (V/m) @ t=0.88
0.12159137291562683
% es.Ez (V/m) @ t=0.88
0.6519008169449565
% es.tEx (V/m) @ t=0.88
-1.5587759267420598
% es.tEy (V/m) @ t=0.88
0
% es.tEz (V/m) @ t=0.88
0.6519008169449592
% V (V) @ t=0.88
0.00946223803048549
% es.normE (V/m) @ t=0.9
1.7105564569456893
% es.EX (V/m) @ t=0.9
-1.5733334920736517
% es.EY (V/m) @ t=0.9
0.12272805111372631
% es.EZ (V/m) @ t=0.9
0.6579911195086735
% es.tEX (V/m) @ t=0.9
-1.5733334920736457
% es.tEY (V/m) @ t=0.9
0
% es.tEZ (V/m) @ t=0.9
0.6579911195086794
% es.Ex (V/m) @ t=0.9
-1.5733334920736517
% es.Ey (V/m) @ t=0.9
0.12272805111372631
% es.Ez (V/m) @ t=0.9
0.6579911195086735
% es.tEx (V/m) @ t=0.9
-1.5733334920736457
% es.tEy (V/m) @ t=0.9
0
% es.tEz (V/m) @ t=0.9
0.6579911195086794
% V (V) @ t=0.9
0.009550539560274742
% es.normE (V/m) @ t=0.92
1.7263845684575525
% es.EX (V/m) @ t=0.92
-1.5878910574052392
% es.EY (V/m) @ t=0.92
0.12386472931182407
% es.EZ (V/m) @ t=0.92
0.6640814220723852
% es.tEX (V/m) @ t=0.92
-1.5878910574052316
% es.tEY (V/m) @ t=0.92
0
% es.tEZ (V/m) @ t=0.92
0.6640814220723783
% es.Ex (V/m) @ t=0.92
-1.5878910574052392
% es.Ey (V/m) @ t=0.92
0.12386472931182407
% es.Ez (V/m) @ t=0.92
0.6640814220723852
% es.tEx (V/m) @ t=0.92
-1.5878910574052316
% es.tEy (V/m) @ t=0.92
0
% es.tEz (V/m) @ t=0.92
0.6640814220723783
% V (V) @ t=0.92
0.009638841090063998
% es.normE (V/m) @ t=0.94
1.7422126799727802
% es.EX (V/m) @ t=0.94
-1.6024486227368266
% es.EY (V/m) @ t=0.94
0.12500140750993066
% es.EZ (V/m) @ t=0.94
0.6701717246361112
% es.tEX (V/m) @ t=0.94
-1.6024486227368229
% es.tEY (V/m) @ t=0.94
0
% es.tEZ (V/m) @ t=0.94
0.6701717246361127
% es.Ex (V/m) @ t=0.94
-1.6024486227368266
% es.Ey (V/m) @ t=0.94
0.12500140750993066
% es.Ez (V/m) @ t=0.94
0.6701717246361112
% es.tEx (V/m) @ t=0.94
-1.6024486227368229
% es.tEy (V/m) @ t=0.94
0
% es.tEz (V/m) @ t=0.94
0.6701717246361127
% V (V) @ t=0.94
0.009727142619853253
% es.normE (V/m) @ t=0.96
1.7580407914912684
% es.EX (V/m) @ t=0.96
-1.6170061880684128
% es.EY (V/m) @ t=0.96
0.1261380857080212
% es.EZ (V/m) @ t=0.96
0.6762620271998248
% es.tEX (V/m) @ t=0.96
-1.6170061880684088
% es.tEY (V/m) @ t=0.96
0
% es.tEZ (V/m) @ t=0.96
0.6762620271998223
% es.Ex (V/m) @ t=0.96
-1.6170061880684128
% es.Ey (V/m) @ t=0.96
0.1261380857080212
% es.Ez (V/m) @ t=0.96
0.6762620271998248
% es.tEx (V/m) @ t=0.96
-1.6170061880684088
% es.tEy (V/m) @ t=0.96
0
% es.tEz (V/m) @ t=0.96
0.6762620271998223
% V (V) @ t=0.96
0.00981544414964251
% es.normE (V/m) @ t=0.98
1.773868903012945
% es.EX (V/m) @ t=0.98
-1.6315637534000051
% es.EY (V/m) @ t=0.98
0.12727476390612258
% es.EZ (V/m) @ t=0.98
0.6823523297635452
% es.tEX (V/m) @ t=0.98
-1.6315637534
% es.tEY (V/m) @ t=0.98
0
% es.tEZ (V/m) @ t=0.98
0.6823523297635496
% es.Ex (V/m) @ t=0.98
-1.6315637534000051
% es.Ey (V/m) @ t=0.98
0.12727476390612258
% es.Ez (V/m) @ t=0.98
0.6823523297635452
% es.tEx (V/m) @ t=0.98
-1.6315637534
% es.tEy (V/m) @ t=0.98
0
% es.tEz (V/m) @ t=0.98
0.6823523297635496
% V (V) @ t=0.98
0.009903745679431765
% es.normE (V/m) @ t=1
1.7896970145377151
% es.EX (V/m) @ t=1
-1.6461213187315942
% es.EY (V/m) @ t=1
0.1284114421042274
% es.EZ (V/m) @ t=1
0.6884426323272641
% es.tEX (V/m) @ t=1
-1.6461213187315842
% es.tEY (V/m) @ t=1
0
% es.tEZ (V/m) @ t=1
0.6884426323272592
% es.Ex (V/m) @ t=1
-1.6461213187315942
% es.Ey (V/m) @ t=1
0.1284114421042274
% es.Ez (V/m) @ t=1
0.6884426323272641
% es.tEx (V/m) @ t=1
-1.6461213187315842
% es.tEy (V/m) @ t=1
0
% es.tEz (V/m) @ t=1
0.6884426323272592
% V (V) @ t=1
0.009992047209221021
% es.normE (V/m) @ t=1.02
1.8055251260654912
% es.EX (V/m) @ t=1.02
-1.6606788840631757
% es.EY (V/m) @ t=1.02
0.1295481203023341
% es.EZ (V/m) @ t=1.02
0.6945329348909794
% es.tEX (V/m) @ t=1.02
-1.660678884063163
% es.tEY (V/m) @ t=1.02
0
% es.tEZ (V/m) @ t=1.02
0.6945329348909759
% es.Ex (V/m) @ t=1.02
-1.6606788840631757
% es.Ey (V/m) @ t=1.02
0.1295481203023341
% es.Ez (V/m) @ t=1.02
0.6945329348909794
% es.tEx (V/m) @ t=1.02
-1.660678884063163
% es.tEy (V/m) @ t=1.02
0
% es.tEz (V/m) @ t=1.02
0.6945329348909759
% V (V) @ t=1.02
0.010080348739010274
% es.normE (V/m) @ t=1.04
1.8213532375962111
% es.EX (V/m) @ t=1.04
-1.6752364493947647
% es.EY (V/m) @ t=1.04
0.13068479850042292
% es.EZ (V/m) @ t=1.04
0.7006232374547017
% es.tEX (V/m) @ t=1.04