% Model:              1 neuron.mph
% Version:            COMSOL 6.0.0.405
% Date:               Mar 9 2023, 14:09
% Dimension:          0
% Nodes:              14017
% Expressions:        14017
% Description:        Electric field norm, Electric field, X component, Electric field, Y component, Electric field, Z component, Tangential electric field, X component, Tangential electric field, Y component, Tangential electric field, Z component, Electric field, x component, Electric field, y component, Electric field, z component, Tangential electric field, x component, Tangential electric field, y component, Tangential electric field, z component, Electric potential
% Length unit:        mm
% x
1.33
% y
12.2
% z
2
% es.normE (V/m) @ t=0
1.4715738790820914
% es.EX (V/m) @ t=0
0.5864791131374274
% es.EY (V/m) @ t=0
0.15505390488166926
% es.EZ (V/m) @ t=0
-1.3395299344334957
% es.tEX (V/m) @ t=0
0.5864791131374276
% es.tEY (V/m) @ t=0
0
% es.tEZ (V/m) @ t=0
-1.3395299344334983
% es.Ex (V/m) @ t=0
0.5864791131374274
% es.Ey (V/m) @ t=0
0.15505390488166926
% es.Ez (V/m) @ t=0
-1.3395299344334957
% es.tEx (V/m) @ t=0
0.5864791131374276
% es.tEy (V/m) @ t=0
0
% es.tEz (V/m) @ t=0
-1.3395299344334983
% V (V) @ t=0
0.007358005304363286
% es.normE (V/m) @ t=0.02
1.2710286101891346
% es.EX (V/m) @ t=0.02
0.5065540691099992
% es.EY (V/m) @ t=0.02
0.13392324686704038
% es.EZ (V/m) @ t=0.02
-1.1569795393652447
% es.tEX (V/m) @ t=0.02
0.5065540691099959
% es.tEY (V/m) @ t=0.02
0
% es.tEZ (V/m) @ t=0.02
-1.156979539365242
% es.Ex (V/m) @ t=0.02
0.5065540691099992
% es.Ey (V/m) @ t=0.02
0.13392324686704038
% es.Ez (V/m) @ t=0.02
-1.1569795393652447
% es.tEx (V/m) @ t=0.02
0.5065540691099959
% es.tEy (V/m) @ t=0.02
0
% es.tEz (V/m) @ t=0.02
-1.156979539365242
% V (V) @ t=0.02
0.006355260133483533
% es.normE (V/m) @ t=0.04
1.2827216857319679
% es.EX (V/m) @ t=0.04
0.5112142173257703
% es.EY (V/m) @ t=0.04
0.13515530310821688
% es.EZ (V/m) @ t=0.04
-1.167623395694597
% es.tEX (V/m) @ t=0.04
0.5112142173257705
% es.tEY (V/m) @ t=0.04
0
% es.tEZ (V/m) @ t=0.04
-1.1676233956945978
% es.Ex (V/m) @ t=0.04
0.5112142173257703
% es.Ey (V/m) @ t=0.04
0.13515530310821688
% es.Ez (V/m) @ t=0.04
-1.167623395694597
% es.tEx (V/m) @ t=0.04
0.5112142173257705
% es.tEy (V/m) @ t=0.04
0
% es.tEz (V/m) @ t=0.04
-1.1676233956945978
% V (V) @ t=0.04
0.006413726046236483
% es.normE (V/m) @ t=0.06
1.2945191331915993
% es.EX (V/m) @ t=0.06
0.5159159523020025
% es.EY (V/m) @ t=0.06
0.13639835079647034
% es.EZ (V/m) @ t=0.06
-1.1783622632526942
% es.tEX (V/m) @ t=0.06
0.5159159523020027
% es.tEY (V/m) @ t=0.06
0
% es.tEZ (V/m) @ t=0.06
-1.1783622632526978
% es.Ex (V/m) @ t=0.06
0.5159159523020025
% es.Ey (V/m) @ t=0.06
0.13639835079647034
% es.Ez (V/m) @ t=0.06
-1.1783622632526942
% es.tEx (V/m) @ t=0.06
0.5159159523020027
% es.tEy (V/m) @ t=0.06
0
% es.tEz (V/m) @ t=0.06
-1.1783622632526978
% V (V) @ t=0.06
0.006472714802203182
% es.normE (V/m) @ t=0.08
1.3064991657677893
% es.EX (V/m) @ t=0.08
0.5206905101275006
% es.EY (V/m) @ t=0.08
0.13766067076504163
% es.EZ (V/m) @ t=0.08
-1.1892673057808656
% es.tEX (V/m) @ t=0.08
0.5206905101275008
% es.tEY (V/m) @ t=0.08
0
% es.tEZ (V/m) @ t=0.08
-1.1892673057808665
% es.Ex (V/m) @ t=0.08
0.5206905101275006
% es.Ey (V/m) @ t=0.08
0.13766067076504163
% es.Ez (V/m) @ t=0.08
-1.1892673057808656
% es.tEx (V/m) @ t=0.08
0.5206905101275008
% es.tEy (V/m) @ t=0.08
0
% es.tEz (V/m) @ t=0.08
-1.1892673057808665
% V (V) @ t=0.08
0.006532610787416166
% es.normE (V/m) @ t=0.1
1.3186010036873066
% es.EX (V/m) @ t=0.1
0.5255136491973296
% es.EY (V/m) @ t=0.1
0.13893584756861355
% es.EZ (V/m) @ t=0.1
-1.2002832061908917
% es.tEX (V/m) @ t=0.1
0.5255136491973298
% es.tEY (V/m) @ t=0.1
0
% es.tEZ (V/m) @ t=0.1
-1.2002832061908926
% es.Ex (V/m) @ t=0.1
0.5255136491973296
% es.Ey (V/m) @ t=0.1
0.13893584756861355
% es.Ez (V/m) @ t=0.1
-1.2002832061908917
% es.tEx (V/m) @ t=0.1
0.5255136491973298
% es.tEy (V/m) @ t=0.1
0
% es.tEz (V/m) @ t=0.1
-1.2002832061908926
% V (V) @ t=0.1
0.006593111999231832
% es.normE (V/m) @ t=0.12
1.3307028416068227
% es.EX (V/m) @ t=0.12
0.5303367882671444
% es.EY (V/m) @ t=0.12
0.14021102437217747
% es.EZ (V/m) @ t=0.12
-1.2112991066009107
% es.tEX (V/m) @ t=0.12
0.5303367882671446
% es.tEY (V/m) @ t=0.12
0
% es.tEZ (V/m) @ t=0.12
-1.2112991066009133
% es.Ex (V/m) @ t=0.12
0.5303367882671444
% es.Ey (V/m) @ t=0.12
0.14021102437217747
% es.Ez (V/m) @ t=0.12
-1.2112991066009107
% es.tEx (V/m) @ t=0.12
0.5303367882671446
% es.tEy (V/m) @ t=0.12
0
% es.tEz (V/m) @ t=0.12
-1.2112991066009133
% V (V) @ t=0.12
0.006653613211047501
% es.normE (V/m) @ t=0.14
1.3429396257360233
% es.EX (V/m) @ t=0.14
0.5352136809071808
% es.EY (V/m) @ t=0.14
0.14150040298241295
% es.EZ (V/m) @ t=0.14
-1.2224378579013324
% es.tEX (V/m) @ t=0.14
0.535213680907181
% es.tEY (V/m) @ t=0.14
0
% es.tEZ (V/m) @ t=0.14
-1.2224378579013333
% es.Ex (V/m) @ t=0.14
0.5352136809071808
% es.Ey (V/m) @ t=0.14
0.14150040298241295
% es.Ez (V/m) @ t=0.14
-1.2224378579013324
% es.tEx (V/m) @ t=0.14
0.535213680907181
% es.tEy (V/m) @ t=0.14
0
% es.tEz (V/m) @ t=0.14
-1.2224378579013333
% V (V) @ t=0.14
0.0067147920132693386
% es.normE (V/m) @ t=0.16
1.3556852623952191
% es.EX (V/m) @ t=0.16
0.5402932664592435
% es.EY (V/m) @ t=0.16
0.14284333348759715
% es.EZ (V/m) @ t=0.16
-1.2340398529382375
% es.tEX (V/m) @ t=0.16
0.5402932664592437
% es.tEY (V/m) @ t=0.16
0
% es.tEZ (V/m) @ t=0.16
-1.2340398529382401
% es.Ex (V/m) @ t=0.16
0.5402932664592435
% es.Ey (V/m) @ t=0.16
0.14284333348759715
% es.Ez (V/m) @ t=0.16
-1.2340398529382375
% es.tEx (V/m) @ t=0.16
0.5402932664592437
% es.tEy (V/m) @ t=0.16
0
% es.tEz (V/m) @ t=0.16
-1.2340398529382401
% V (V) @ t=0.16
0.0067785258601515625
% es.normE (V/m) @ t=0.18
1.368430899054411
% es.EX (V/m) @ t=0.18
0.5453728520112953
% es.EY (V/m) @ t=0.18
0.14418626399278045
% es.EZ (V/m) @ t=0.18
-1.245641847975139
% es.tEX (V/m) @ t=0.18
0.5453728520112917
% es.tEY (V/m) @ t=0.18
0
% es.tEZ (V/m) @ t=0.18
-1.2456418479751452
% es.Ex (V/m) @ t=0.18
0.5453728520112953
% es.Ey (V/m) @ t=0.18
0.14418626399278045
% es.Ez (V/m) @ t=0.18
-1.245641847975139
% es.tEx (V/m) @ t=0.18
0.5453728520112917
% es.tEy (V/m) @ t=0.18
0
% es.tEz (V/m) @ t=0.18
-1.2456418479751452
% V (V) @ t=0.18
0.006842259707033787
% es.normE (V/m) @ t=0.2
1.3811765357136039
% es.EX (V/m) @ t=0.2
0.55045243756334
% es.EY (V/m) @ t=0.2
0.14552919449797264
% es.EZ (V/m) @ t=0.2
-1.2572438430120405
% es.tEX (V/m) @ t=0.2
0.5504524375633402
% es.tEY (V/m) @ t=0.2
0
% es.tEZ (V/m) @ t=0.2
-1.2572438430120432
% es.Ex (V/m) @ t=0.2
0.55045243756334
% es.Ey (V/m) @ t=0.2
0.14552919449797264
% es.Ez (V/m) @ t=0.2
-1.2572438430120405
% es.tEx (V/m) @ t=0.2
0.5504524375633402
% es.tEy (V/m) @ t=0.2
0
% es.tEz (V/m) @ t=0.2
-1.2572438430120432
% V (V) @ t=0.2
0.0069059935539160094
% es.normE (V/m) @ t=0.22
1.3939221723728092
% es.EX (V/m) @ t=0.22
0.5555320231153955
% es.EY (V/m) @ t=0.22
0.1468721250031555
% es.EZ (V/m) @ t=0.22
-1.2688458380489491
% es.tEX (V/m) @ t=0.22
0.5555320231153957
% es.tEY (V/m) @ t=0.22
0
% es.tEZ (V/m) @ t=0.22
-1.2688458380489536
% es.Ex (V/m) @ t=0.22
0.5555320231153955
% es.Ey (V/m) @ t=0.22
0.1468721250031555
% es.Ez (V/m) @ t=0.22
-1.2688458380489491
% es.tEx (V/m) @ t=0.22
0.5555320231153957
% es.tEy (V/m) @ t=0.22
0
% es.tEz (V/m) @ t=0.22
-1.2688458380489536
% V (V) @ t=0.22
0.006969727400798234
% es.normE (V/m) @ t=0.24
1.406667809032015
% es.EX (V/m) @ t=0.24
0.5606116086674546
% es.EY (V/m) @ t=0.24
0.14821505550835035
% es.EZ (V/m) @ t=0.24
-1.2804478330858515
% es.tEX (V/m) @ t=0.24
0.5606116086674513
% es.tEY (V/m) @ t=0.24
0
% es.tEZ (V/m) @ t=0.24
-1.2804478330858569
% es.Ex (V/m) @ t=0.24
0.5606116086674546
% es.Ey (V/m) @ t=0.24
0.14821505550835035
% es.Ez (V/m) @ t=0.24
-1.2804478330858515
% es.tEx (V/m) @ t=0.24
0.5606116086674513
% es.tEy (V/m) @ t=0.24
0
% es.tEz (V/m) @ t=0.24
-1.2804478330858569
% V (V) @ t=0.24
0.007033461247680457
% es.normE (V/m) @ t=0.26
1.4194134456912244
% es.EX (V/m) @ t=0.26
0.5656911942195137
% es.EY (V/m) @ t=0.26
0.1495579860135372
% es.EZ (V/m) @ t=0.26
-1.2920498281227557
% es.tEX (V/m) @ t=0.26
0.565691194219514
% es.tEY (V/m) @ t=0.26
0
% es.tEZ (V/m) @ t=0.26
-1.2920498281227566
% es.Ex (V/m) @ t=0.26
0.5656911942195137
% es.Ey (V/m) @ t=0.26
0.1495579860135372
% es.Ez (V/m) @ t=0.26
-1.2920498281227557
% es.tEx (V/m) @ t=0.26
0.565691194219514
% es.tEy (V/m) @ t=0.26
0
% es.tEz (V/m) @ t=0.26
-1.2920498281227566
% V (V) @ t=0.26
0.007097195094562682
% es.normE (V/m) @ t=0.28
1.4327804892276124
% es.EX (V/m) @ t=0.28
0.5710181517201323
% es.EY (V/m) @ t=0.28
0.1509662174684756
% es.EZ (V/m) @ t=0.28
-1.3042176078463195
% es.tEX (V/m) @ t=0.28
0.5710181517201325
% es.tEY (V/m) @ t=0.28
0
% es.tEZ (V/m) @ t=0.28
-1.3042176078463221
% es.Ex (V/m) @ t=0.28
0.5710181517201323
% es.Ey (V/m) @ t=0.28
0.1509662174684756
% es.Ez (V/m) @ t=0.28
-1.3042176078463195
% es.tEx (V/m) @ t=0.28
0.5710181517201325
% es.tEy (V/m) @ t=0.28
0
% es.tEz (V/m) @ t=0.28
-1.3042176078463221
% V (V) @ t=0.28
0.007164065119121353
% es.normE (V/m) @ t=0.3
1.44697411732897
% es.EX (V/m) @ t=0.3
0.5766741590621287
% es.EY (V/m) @ t=0.3
0.152461311105192
% es.EZ (V/m) @ t=0.3
-1.3171379844689328
% es.tEX (V/m) @ t=0.3
0.5766741590621289
% es.tEY (V/m) @ t=0.3
0
% es.tEZ (V/m) @ t=0.3
-1.3171379844689355
% es.Ex (V/m) @ t=0.3
0.5766741590621287
% es.Ey (V/m) @ t=0.3
0.152461311105192
% es.Ez (V/m) @ t=0.3
-1.3171379844689328
% es.tEx (V/m) @ t=0.3
0.5766741590621289
% es.tEy (V/m) @ t=0.3
0
% es.tEz (V/m) @ t=0.3
-1.3171379844689355
% V (V) @ t=0.3
0.007235106832398074
% es.normE (V/m) @ t=0.32
1.4611677454310068
% es.EX (V/m) @ t=0.32
0.5823301664041367
% es.EY (V/m) @ t=0.32
0.15395640474188665
% es.EZ (V/m) @ t=0.32
-1.3300583610915586
% es.tEX (V/m) @ t=0.32
0.5823301664041334
% es.tEY (V/m) @ t=0.32
0
% es.tEZ (V/m) @ t=0.32
-1.330058361091563
% es.Ex (V/m) @ t=0.32
0.5823301664041367
% es.Ey (V/m) @ t=0.32
0.15395640474188665
% es.Ez (V/m) @ t=0.32
-1.3300583610915586
% es.tEx (V/m) @ t=0.32
0.5823301664041334
% es.tEy (V/m) @ t=0.32
0
% es.tEz (V/m) @ t=0.32
-1.330058361091563
% V (V) @ t=0.32
0.007306148545674797
% es.normE (V/m) @ t=0.34
1.4753613735336892
% es.EX (V/m) @ t=0.34
0.5879861737461447
% es.EY (V/m) @ t=0.34
0.1554514983786044
% es.EZ (V/m) @ t=0.34
-1.3429787377141809
% es.tEX (V/m) @ t=0.34
0.5879861737461449
% es.tEY (V/m) @ t=0.34
0
% es.tEZ (V/m) @ t=0.34
-1.342978737714187
% es.Ex (V/m) @ t=0.34
0.5879861737461447
% es.Ey (V/m) @ t=0.34
0.1554514983786044
% es.Ez (V/m) @ t=0.34
-1.3429787377141809
% es.tEx (V/m) @ t=0.34
0.5879861737461449
% es.tEy (V/m) @ t=0.34
0
% es.tEz (V/m) @ t=0.34
-1.342978737714187
% V (V) @ t=0.34
0.007377190258951518
% es.normE (V/m) @ t=0.36
1.4895550016369996
% es.EX (V/m) @ t=0.36
0.5936421810881629
% es.EY (V/m) @ t=0.36
0.15694659201530303
% es.EZ (V/m) @ t=0.36
-1.3558991143368013
% es.tEX (V/m) @ t=0.36
0.5936421810881631
% es.tEY (V/m) @ t=0.36
0
% es.tEZ (V/m) @ t=0.36
-1.355899114336804
% es.Ex (V/m) @ t=0.36
0.5936421810881629
% es.Ey (V/m) @ t=0.36
0.15694659201530303
% es.Ez (V/m) @ t=0.36
-1.3558991143368013
% es.tEx (V/m) @ t=0.36
0.5936421810881631
% es.tEy (V/m) @ t=0.36
0
% es.tEz (V/m) @ t=0.36
-1.355899114336804
% V (V) @ t=0.36
0.007448231972228239
% es.normE (V/m) @ t=0.38
1.5037486297409157
% es.EX (V/m) @ t=0.38
0.5992981884301669
% es.EY (V/m) @ t=0.38
0.1584416856520119
% es.EZ (V/m) @ t=0.38
-1.3688194909594218
% es.tEX (V/m) @ t=0.38
0.5992981884301671
% es.tEY (V/m) @ t=0.38
0
% es.tEZ (V/m) @ t=0.38
-1.3688194909594245
% es.Ex (V/m) @ t=0.38
0.5992981884301669
% es.Ey (V/m) @ t=0.38
0.1584416856520119
% es.Ez (V/m) @ t=0.38
-1.3688194909594218
% es.tEx (V/m) @ t=0.38
0.5992981884301671
% es.tEy (V/m) @ t=0.38
0
% es.tEz (V/m) @ t=0.38
-1.3688194909594245
% V (V) @ t=0.38
0.007519273685504962
% es.normE (V/m) @ t=0.4
1.5179422578454198
% es.EX (V/m) @ t=0.4
0.6049541957721714
% es.EY (V/m) @ t=0.4
0.15993677928872074
% es.EZ (V/m) @ t=0.4
-1.381739867582037
% es.tEX (V/m) @ t=0.4
0.6049541957721716
% es.tEY (V/m) @ t=0.4
0
% es.tEZ (V/m) @ t=0.4
-1.3817398675820431
% es.Ex (V/m) @ t=0.4
0.6049541957721714
% es.Ey (V/m) @ t=0.4
0.15993677928872074
% es.Ez (V/m) @ t=0.4
-1.381739867582037
% es.tEx (V/m) @ t=0.4
0.6049541957721716
% es.tEy (V/m) @ t=0.4
0
% es.tEz (V/m) @ t=0.4
-1.3817398675820431
% V (V) @ t=0.4
0.007590315398781685
% es.normE (V/m) @ t=0.42
1.532135885950514
% es.EX (V/m) @ t=0.42
0.6106102031141829
% es.EY (V/m) @ t=0.42
0.16143187292542072
% es.EZ (V/m) @ t=0.42
-1.3946602442046645
% es.tEX (V/m) @ t=0.42
0.6106102031141831
% es.tEY (V/m) @ t=0.42
0
% es.tEZ (V/m) @ t=0.42
-1.3946602442046654
% es.Ex (V/m) @ t=0.42
0.6106102031141829
% es.Ey (V/m) @ t=0.42
0.16143187292542072
% es.Ez (V/m) @ t=0.42
-1.3946602442046645
% es.tEx (V/m) @ t=0.42
0.6106102031141831
% es.tEy (V/m) @ t=0.42
0
% es.tEz (V/m) @ t=0.42
-1.3946602442046654
% V (V) @ t=0.42
0.007661357112058406
% es.normE (V/m) @ t=0.44
1.5463295140561621
% es.EX (V/m) @ t=0.44
0.6162662104561865
% es.EY (V/m) @ t=0.44
0.16292696656213757
% es.EZ (V/m) @ t=0.44
-1.4075806208272867
% es.tEX (V/m) @ t=0.44
0.6162662104561867
% es.tEY (V/m) @ t=0.44
0
% es.tEZ (V/m) @ t=0.44
-1.4075806208272894
% es.Ex (V/m) @ t=0.44
0.6162662104561865
% es.Ey (V/m) @ t=0.44
0.16292696656213757
% es.Ez (V/m) @ t=0.44
-1.4075806208272867
% es.tEx (V/m) @ t=0.44
0.6162662104561867
% es.tEy (V/m) @ t=0.44
0
% es.tEz (V/m) @ t=0.44
-1.4075806208272894
% V (V) @ t=0.44
0.007732398825335127
% es.normE (V/m) @ t=0.46
1.5605231421623567
% es.EX (V/m) @ t=0.46
0.621922217798198
% es.EY (V/m) @ t=0.46
0.16442206019883
% es.EZ (V/m) @ t=0.46
-1.420500997449909
% es.tEX (V/m) @ t=0.46
0.6219222177981982
% es.tEY (V/m) @ t=0.46
0
% es.tEZ (V/m) @ t=0.46
-1.4205009974499099
% es.Ex (V/m) @ t=0.46
0.621922217798198
% es.Ey (V/m) @ t=0.46
0.16442206019883
% es.Ez (V/m) @ t=0.46
-1.420500997449909
% es.tEx (V/m) @ t=0.46
0.6219222177981982
% es.tEy (V/m) @ t=0.46
0
% es.tEz (V/m) @ t=0.46
-1.4205009974499099
% V (V) @ t=0.46
0.00780344053861185
% es.normE (V/m) @ t=0.48
1.574716770269079
% es.EX (V/m) @ t=0.48
0.6275782251402091
% es.EY (V/m) @ t=0.48
0.16591715383554506
% es.EZ (V/m) @ t=0.48
-1.433421374072526
% es.tEX (V/m) @ t=0.48
0.6275782251402093
% es.tEY (V/m) @ t=0.48
0
% es.tEZ (V/m) @ t=0.48
-1.4334213740725268
% es.Ex (V/m) @ t=0.48
0.6275782251402091
% es.Ey (V/m) @ t=0.48
0.16591715383554506
% es.Ez (V/m) @ t=0.48
-1.433421374072526
% es.tEx (V/m) @ t=0.48
0.6275782251402093
% es.tEy (V/m) @ t=0.48
0
% es.tEz (V/m) @ t=0.48
-1.4334213740725268
% V (V) @ t=0.48
0.007874482251888571
% es.normE (V/m) @ t=0.5
1.588910398376318
% es.EX (V/m) @ t=0.5
0.6332342324822136
% es.EY (V/m) @ t=0.5
0.16741224747224814
% es.EZ (V/m) @ t=0.5
-1.4463417506951481
% es.tEX (V/m) @ t=0.5
0.6332342324822138
% es.tEY (V/m) @ t=0.5
0
% es.tEZ (V/m) @ t=0.5
-1.4463417506951473
% es.Ex (V/m) @ t=0.5
0.6332342324822136
% es.Ey (V/m) @ t=0.5
0.16741224747224814
% es.Ez (V/m) @ t=0.5
-1.4463417506951481
% es.tEx (V/m) @ t=0.5
0.6332342324822138
% es.tEy (V/m) @ t=0.5
0
% es.tEz (V/m) @ t=0.5
-1.4463417506951473
% V (V) @ t=0.5
0.007945523965165294
% es.normE (V/m) @ t=0.52
1.6031040264840521
% es.EX (V/m) @ t=0.52
0.63889023982421
% es.EY (V/m) @ t=0.52
0.16890734110895256
% es.EZ (V/m) @ t=0.52
-1.459262127317765
% es.tEX (V/m) @ t=0.52
0.6388902398242102
% es.tEY (V/m) @ t=0.52
0
% es.tEZ (V/m) @ t=0.52
-1.4592621273177677
% es.Ex (V/m) @ t=0.52
0.63889023982421
% es.Ey (V/m) @ t=0.52
0.16890734110895256
% es.Ez (V/m) @ t=0.52
-1.459262127317765
% es.tEx (V/m) @ t=0.52
0.6388902398242102
% es.tEy (V/m) @ t=0.52
0
% es.tEz (V/m) @ t=0.52
-1.4592621273177677
% V (V) @ t=0.52
0.008016565678442016
% es.normE (V/m) @ t=0.54
1.617297654592293
% es.EX (V/m) @ t=0.54
0.6445462471662287
% es.EY (V/m) @ t=0.54
0.17040243474565964
% es.EZ (V/m) @ t=0.54
-1.4721825039403909
% es.tEX (V/m) @ t=0.54
0.6445462471662289
% es.tEY (V/m) @ t=0.54
0
% es.tEZ (V/m) @ t=0.54
-1.4721825039403917
% es.Ex (V/m) @ t=0.54
0.6445462471662287
% es.Ey (V/m) @ t=0.54
0.17040243474565964
% es.Ez (V/m) @ t=0.54
-1.4721825039403909
% es.tEx (V/m) @ t=0.54
0.6445462471662289
% es.tEy (V/m) @ t=0.54
0
% es.tEz (V/m) @ t=0.54
-1.4721825039403917
% V (V) @ t=0.54
0.008087607391718736
% es.normE (V/m) @ t=0.56
1.6329151766328978
% es.EX (V/m) @ t=0.56
0.6507705636600998
% es.EY (V/m) @ t=0.56
0.17204807050065085
% es.EZ (V/m) @ t=0.56
-1.4863986071270618
% es.tEX (V/m) @ t=0.56
0.6507705636601
% es.tEY (V/m) @ t=0.56
0
% es.tEZ (V/m) @ t=0.56
-1.4863986071270663
% es.Ex (V/m) @ t=0.56
0.6507705636600998
% es.Ey (V/m) @ t=0.56
0.17204807050065085
% es.Ez (V/m) @ t=0.56
-1.4863986071270618
% es.tEx (V/m) @ t=0.56
0.6507705636601
% es.tEy (V/m) @ t=0.56
0
% es.tEz (V/m) @ t=0.56
-1.4863986071270663
% V (V) @ t=0.56
0.008165683086996708
% es.normE (V/m) @ t=0.58
1.6487487930883464
% es.EX (V/m) @ t=0.58
0.6570811284557496
% es.EY (V/m) @ t=0.58
0.17371655297910538
% es.EZ (V/m) @ t=0.58
-1.5008113536641696
% es.tEX (V/m) @ t=0.58
0.6570811284557534
% es.tEY (V/m) @ t=0.58
0
% es.tEZ (V/m) @ t=0.58
-1.500811353664174
% es.Ex (V/m) @ t=0.58
0.6570811284557496
% es.Ey (V/m) @ t=0.58
0.17371655297910538
% es.Ez (V/m) @ t=0.58
-1.5008113536641696
% es.tEx (V/m) @ t=0.58
0.6570811284557534
% es.tEy (V/m) @ t=0.58
0
% es.tEz (V/m) @ t=0.58
-1.500811353664174
% V (V) @ t=0.58
0.00824482628048456
% es.normE (V/m) @ t=0.6
1.664582409543946
% es.EX (V/m) @ t=0.6
0.6633916932514003
% es.EY (V/m) @ t=0.6
0.1753850354575719
% es.EZ (V/m) @ t=0.6
-1.5152241002012845
% es.tEX (V/m) @ t=0.6
0.6633916932514006
% es.tEY (V/m) @ t=0.6
0
% es.tEZ (V/m) @ t=0.6
-1.5152241002012872
% es.Ex (V/m) @ t=0.6
0.6633916932514003
% es.Ey (V/m) @ t=0.6
0.1753850354575719
% es.Ez (V/m) @ t=0.6
-1.5152241002012845
% es.tEx (V/m) @ t=0.6
0.6633916932514006
% es.tEy (V/m) @ t=0.6
0
% es.tEz (V/m) @ t=0.6
-1.5152241002012872
% V (V) @ t=0.6
0.008323969473972409
% es.normE (V/m) @ t=0.62
1.6804160259996848
% es.EX (V/m) @ t=0.62
0.6697022580470648
% es.EY (V/m) @ t=0.62
0.1770535179360282
% es.EZ (V/m) @ t=0.62
-1.5296368467383958
% es.tEX (V/m) @ t=0.62
0.6697022580470615
% es.tEY (V/m) @ t=0.62
0
% es.tEZ (V/m) @ t=0.62
-1.5296368467383967
% es.Ex (V/m) @ t=0.62
0.6697022580470648
% es.Ey (V/m) @ t=0.62
0.1770535179360282
% es.Ez (V/m) @ t=0.62
-1.5296368467383958
% es.tEx (V/m) @ t=0.62
0.6697022580470615
% es.tEy (V/m) @ t=0.62
0
% es.tEz (V/m) @ t=0.62
-1.5296368467383967
% V (V) @ t=0.62
0.00840311266746026
% es.normE (V/m) @ t=0.64
1.696249642455548
% es.EX (V/m) @ t=0.64
0.6760128228427085
% es.EY (V/m) @ t=0.64
0.17872200041450315
% es.EZ (V/m) @ t=0.64
-1.5440495932755018
% es.tEX (V/m) @ t=0.64
0.6760128228427087
% es.tEY (V/m) @ t=0.64
0
% es.tEZ (V/m) @ t=0.64
-1.5440495932755027
% es.Ex (V/m) @ t=0.64
0.6760128228427085
% es.Ey (V/m) @ t=0.64
0.17872200041450315
% es.Ez (V/m) @ t=0.64
-1.5440495932755018
% es.tEx (V/m) @ t=0.64
0.6760128228427087
% es.tEy (V/m) @ t=0.64
0
% es.tEz (V/m) @ t=0.64
-1.5440495932755027
% V (V) @ t=0.64
0.00848225586094811
% es.normE (V/m) @ t=0.66
1.7120832589115498
% es.EX (V/m) @ t=0.66
0.6823233876383628
% es.EY (V/m) @ t=0.66
0.1803904828929661
% es.EZ (V/m) @ t=0.66
-1.5584623398126132
% es.tEX (V/m) @ t=0.66
0.682323387638363
% es.tEY (V/m) @ t=0.66
0
% es.tEZ (V/m) @ t=0.66
-1.5584623398126158
% es.Ex (V/m) @ t=0.66
0.6823233876383628
% es.Ey (V/m) @ t=0.66
0.1803904828929661
% es.Ez (V/m) @ t=0.66
-1.5584623398126132
% es.tEx (V/m) @ t=0.66
0.682323387638363
% es.tEy (V/m) @ t=0.66
0
% es.tEz (V/m) @ t=0.66
-1.5584623398126158
% V (V) @ t=0.66
0.00856139905443596
% es.normE (V/m) @ t=0.68
1.727916875367669
% es.EX (V/m) @ t=0.68
0.6886339524340093
% es.EY (V/m) @ t=0.68
0.18205896537142952
% es.EZ (V/m) @ t=0.68
-1.5728750863497156
% es.tEX (V/m) @ t=0.68
0.6886339524340097
% es.tEY (V/m) @ t=0.68
0
% es.tEZ (V/m) @ t=0.68
-1.5728750863497236
% es.Ex (V/m) @ t=0.68
0.6886339524340093
% es.Ey (V/m) @ t=0.68
0.18205896537142952
% es.Ez (V/m) @ t=0.68
-1.5728750863497156
% es.tEx (V/m) @ t=0.68
0.6886339524340097
% es.tEy (V/m) @ t=0.68
0
% es.tEz (V/m) @ t=0.68
-1.5728750863497236
% V (V) @ t=0.68
0.008640542247923813
% es.normE (V/m) @ t=0.7
1.743750491823929
% es.EX (V/m) @ t=0.7
0.6949445172296633
% es.EY (V/m) @ t=0.7
0.1837274478498867
% es.EZ (V/m) @ t=0.7
-1.587287832886835
% es.tEX (V/m) @ t=0.7
0.6949445172296635
% es.tEY (V/m) @ t=0.7
0
% es.tEZ (V/m) @ t=0.7
-1.5872878328868367
% es.Ex (V/m) @ t=0.7
0.6949445172296633
% es.Ey (V/m) @ t=0.7
0.1837274478498867
% es.Ez (V/m) @ t=0.7
-1.587287832886835
% es.tEx (V/m) @ t=0.7
0.6949445172296635
% es.tEy (V/m) @ t=0.7
0
% es.tEz (V/m) @ t=0.7
-1.5872878328868367
% V (V) @ t=0.7
0.008719685441411665
% es.normE (V/m) @ t=0.72
1.7595841082802979
% es.EX (V/m) @ t=0.72
0.7012550820253141
% es.EY (V/m) @ t=0.72
0.18539593032836033
% es.EZ (V/m) @ t=0.72
-1.60170057942394
% es.tEX (V/m) @ t=0.72
0.7012550820253178
% es.tEY (V/m) @ t=0.72
0
% es.tEZ (V/m) @ t=0.72
-1.6017005794239445
% es.Ex (V/m) @ t=0.72
0.7012550820253141
% es.Ey (V/m) @ t=0.72
0.18539593032836033
% es.Ez (V/m) @ t=0.72
-1.60170057942394
% es.tEx (V/m) @ t=0.72
0.7012550820253178
% es.tEy (V/m) @ t=0.72
0
% es.tEz (V/m) @ t=0.72
-1.6017005794239445
% V (V) @ t=0.72
0.008798828634899516
% es.normE (V/m) @ t=0.74
1.7754177247367882
% es.EX (V/m) @ t=0.74
0.7075656468209572
% es.EY (V/m) @ t=0.74
0.18706441280682906
% es.EZ (V/m) @ t=0.74
-1.6161133259610532
% es.tEX (V/m) @ t=0.74
0.7075656468209575
% es.tEY (V/m) @ t=0.74
0
% es.tEZ (V/m) @ t=0.74
-1.6161133259610558
% es.Ex (V/m) @ t=0.74
0.7075656468209572
% es.Ey (V/m) @ t=0.74
0.18706441280682906
% es.Ez (V/m) @ t=0.74
-1.6161133259610532
% es.tEx (V/m) @ t=0.74
0.7075656468209575
% es.tEy (V/m) @ t=0.74
0
% es.tEz (V/m) @ t=0.74
-1.6161133259610558
% V (V) @ t=0.74
0.008877971828387366
% es.normE (V/m) @ t=0.76
1.7912513411933941
% es.EX (V/m) @ t=0.76
0.7138762116166115
% es.EY (V/m) @ t=0.76
0.18873289528528447
% es.EZ (V/m) @ t=0.76
-1.6305260724981645
% es.tEX (V/m) @ t=0.76
0.7138762116166117
% es.tEY (V/m) @ t=0.76
0
% es.tEZ (V/m) @ t=0.76
-1.6305260724981654
% es.Ex (V/m) @ t=0.76
0.7138762116166115
% es.Ey (V/m) @ t=0.76
0.18873289528528447
% es.Ez (V/m) @ t=0.76
-1.6305260724981645
% es.tEx (V/m) @ t=0.76
0.7138762116166117
% es.tEy (V/m) @ t=0.76
0
% es.tEz (V/m) @ t=0.76
-1.6305260724981654
% V (V) @ t=0.76
0.008957115021875215
% es.normE (V/m) @ t=0.78
1.8070849576501127
% es.EX (V/m) @ t=0.78
0.7201867764122587
% es.EY (V/m) @ t=0.78
0.1904013777637581
% es.EZ (V/m) @ t=0.78
-1.6449388190352776
% es.tEX (V/m) @ t=0.78
0.7201867764122589
% es.tEY (V/m) @ t=0.78
0
% es.tEZ (V/m) @ t=0.78
-1.644938819035275
% es.Ex (V/m) @ t=0.78
0.7201867764122587
% es.Ey (V/m) @ t=0.78
0.1904013777637581
% es.Ez (V/m) @ t=0.78
-1.6449388190352776
% es.tEx (V/m) @ t=0.78
0.7201867764122589
% es.tEy (V/m) @ t=0.78
0
% es.tEz (V/m) @ t=0.78
-1.644938819035275
% V (V) @ t=0.78
0.009036258215363068
% es.normE (V/m) @ t=0.8
1.8229185741069336
% es.EX (V/m) @ t=0.8
0.726497341207913
% es.EY (V/m) @ t=0.8
0.1920698602422135
% es.EZ (V/m) @ t=0.8
-1.6593515655723845
% es.tEX (V/m) @ t=0.8
0.7264973412079132
% es.tEY (V/m) @ t=0.8
0
% es.tEZ (V/m) @ t=0.8
-1.6593515655723916
% es.Ex (V/m) @ t=0.8
0.726497341207913
% es.Ey (V/m) @ t=0.8
0.1920698602422135
% es.Ez (V/m) @ t=0.8
-1.6593515655723845
% es.tEx (V/m) @ t=0.8
0.7264973412079132
% es.tEy (V/m) @ t=0.8
0
% es.tEz (V/m) @ t=0.8
-1.6593515655723916
% V (V) @ t=0.8
0.009115401408850917
% es.normE (V/m) @ t=0.82
1.8393244503443333
% es.EX (V/m) @ t=0.82
0.7330360319981775
% es.EY (V/m) @ t=0.82
0.19379867582221477
% es.EZ (V/m) @ t=0.82
-1.6742851949687578
% es.tEX (V/m) @ t=0.82
0.7330360319981777
% es.tEY (V/m) @ t=0.82
0
% es.tEZ (V/m) @ t=0.82
-1.6742851949687623
% es.Ex (V/m) @ t=0.82
0.7330360319981775
% es.Ey (V/m) @ t=0.82
0.19379867582221477
% es.Ez (V/m) @ t=0.82
-1.6742851949687578
% es.tEx (V/m) @ t=0.82
0.7330360319981777
% es.tEy (V/m) @ t=0.82
0
% es.tEz (V/m) @ t=0.82
-1.6742851949687623
% V (V) @ t=0.82
0.009197399952941361
% es.normE (V/m) @ t=0.84
1.8570201798519541
% es.EX (V/m) @ t=0.84
0.740088910697801
% es.EY (V/m) @ t=0.84
0.19566348007547152
% es.EZ (V/m) @ t=0.84
-1.6903928758750233
% es.tEX (V/m) @ t=0.84
0.7400889106978012
% es.tEY (V/m) @ t=0.84
0
% es.tEZ (V/m) @ t=0.84
-1.6903928758750304
% es.Ex (V/m) @ t=0.84
0.740088910697801
% es.Ey (V/m) @ t=0.84
0.19566348007547152
% es.Ez (V/m) @ t=0.84
-1.6903928758750233
% es.tEx (V/m) @ t=0.84
0.7400889106978012
% es.tEy (V/m) @ t=0.84
0
% es.tEz (V/m) @ t=0.84
-1.6903928758750304
% V (V) @ t=0.84
0.009285834356124803
% es.normE (V/m) @ t=0.86
1.8747159093598214
% es.EX (V/m) @ t=0.86
0.7471417893973968
% es.EY (V/m) @ t=0.86
0.1975282843287296
% es.EZ (V/m) @ t=0.86
-1.7065005567812763
% es.tEX (V/m) @ t=0.86
0.7471417893973973
% es.tEY (V/m) @ t=0.86
0
% es.tEZ (V/m) @ t=0.86
-1.7065005567812772
% es.Ex (V/m) @ t=0.86
0.7471417893973968
% es.Ey (V/m) @ t=0.86
0.1975282843287296
% es.Ez (V/m) @ t=0.86
-1.7065005567812763
% es.tEx (V/m) @ t=0.86
0.7471417893973973
% es.tEy (V/m) @ t=0.86
0
% es.tEz (V/m) @ t=0.86
-1.7065005567812772
% V (V) @ t=0.86
0.009374268759308248
% es.normE (V/m) @ t=0.88
1.8924116388679626
% es.EX (V/m) @ t=0.88
0.7541946680970066
% es.EY (V/m) @ t=0.88
0.1993930885820019
% es.EZ (V/m) @ t=0.88
-1.7226082376875356
% es.tEX (V/m) @ t=0.88
0.7541946680970071
% es.tEY (V/m) @ t=0.88
0
% es.tEZ (V/m) @ t=0.88
-1.72260823768754
% es.Ex (V/m) @ t=0.88
0.7541946680970066
% es.Ey (V/m) @ t=0.88
0.1993930885820019
% es.Ez (V/m) @ t=0.88
-1.7226082376875356
% es.tEx (V/m) @ t=0.88
0.7541946680970071
% es.tEy (V/m) @ t=0.88
0
% es.tEz (V/m) @ t=0.88
-1.72260823768754
% V (V) @ t=0.88
0.009462703162491691
% es.normE (V/m) @ t=0.9
1.910107368376363
% es.EX (V/m) @ t=0.9
0.7612475467966202
% es.EY (V/m) @ t=0.9
0.20125789283526352
% es.EZ (V/m) @ t=0.9
-1.7387159185938001
% es.tEX (V/m) @ t=0.9
0.7612475467966169
% es.tEY (V/m) @ t=0.9
0
% es.tEZ (V/m) @ t=0.9
-1.73871591859381
% es.Ex (V/m) @ t=0.9
0.7612475467966202
% es.Ey (V/m) @ t=0.9
0.20125789283526352
% es.Ez (V/m) @ t=0.9
-1.7387159185938001
% es.tEx (V/m) @ t=0.9
0.7612475467966169
% es.tEy (V/m) @ t=0.9
0
% es.tEz (V/m) @ t=0.9
-1.73871591859381
% V (V) @ t=0.9
0.009551137565675136
% es.normE (V/m) @ t=0.92
1.9278030978850014
% es.EX (V/m) @ t=0.92
0.7683004254962265
% es.EY (V/m) @ t=0.92
0.20312269708851804
% es.EZ (V/m) @ t=0.92
-1.7548235995000603
% es.tEX (V/m) @ t=0.92
0.7683004254962267
% es.tEY (V/m) @ t=0.92
0
% es.tEZ (V/m) @ t=0.92
-1.7548235995000656
% es.Ex (V/m) @ t=0.92
0.7683004254962265
% es.Ey (V/m) @ t=0.92
0.20312269708851804
% es.Ez (V/m) @ t=0.92
-1.7548235995000603
% es.tEx (V/m) @ t=0.92
0.7683004254962267
% es.tEy (V/m) @ t=0.92
0
% es.tEz (V/m) @ t=0.92
-1.7548235995000656
% V (V) @ t=0.92
0.009639571968858578
% es.normE (V/m) @ t=0.94
1.9454988273938838
% es.EX (V/m) @ t=0.94
0.7753533041958429
% es.EY (V/m) @ t=0.94
0.20498750134176014
% es.EZ (V/m) @ t=0.94
-1.7709312804063204
% es.tEX (V/m) @ t=0.94
0.7753533041958431
% es.tEY (V/m) @ t=0.94
0
% es.tEZ (V/m) @ t=0.94
-1.7709312804063249
% es.Ex (V/m) @ t=0.94
0.7753533041958429
% es.Ey (V/m) @ t=0.94
0.20498750134176014
% es.Ez (V/m) @ t=0.94
-1.7709312804063204
% es.tEx (V/m) @ t=0.94
0.7753533041958431
% es.tEy (V/m) @ t=0.94
0
% es.tEz (V/m) @ t=0.94
-1.7709312804063249
% V (V) @ t=0.94
0.009728006372042023
% es.normE (V/m) @ t=0.96
1.9631945569029952
% es.EX (V/m) @ t=0.96
0.782406182895445
% es.EY (V/m) @ t=0.96
0.20685230559504397
% es.EZ (V/m) @ t=0.96
-1.787038961312578
% es.tEX (V/m) @ t=0.96
0.7824061828954454
% es.tEY (V/m) @ t=0.96
0
% es.tEZ (V/m) @ t=0.96
-1.7870389613125806
% es.Ex (V/m) @ t=0.96
0.782406182895445
% es.Ey (V/m) @ t=0.96
0.20685230559504397
% es.Ez (V/m) @ t=0.96
-1.787038961312578
% es.tEx (V/m) @ t=0.96
0.7824061828954454
% es.tEy (V/m) @ t=0.96
0
% es.tEz (V/m) @ t=0.96
-1.7870389613125806
% V (V) @ t=0.96
0.009816440775225465
% es.normE (V/m) @ t=0.98
1.9808902864123301
% es.EX (V/m) @ t=0.98
0.7894590615950476
% es.EY (V/m) @ t=0.98
0.20871710984829672
% es.EZ (V/m) @ t=0.98
-1.8031466422188336
% es.tEX (V/m) @ t=0.98
0.7894590615950481
% es.tEY (V/m) @ t=0.98
0
% es.tEZ (V/m) @ t=0.98
-1.8031466422188362
% es.Ex (V/m) @ t=0.98
0.7894590615950476
% es.Ey (V/m) @ t=0.98
0.20871710984829672
% es.Ez (V/m) @ t=0.98
-1.8031466422188336
% es.tEx (V/m) @ t=0.98
0.7894590615950481
% es.tEy (V/m) @ t=0.98
0
% es.tEz (V/m) @ t=0.98
-1.8031466422188362
% V (V) @ t=0.98
0.009904875178408908
% es.normE (V/m) @ t=1
1.9985860159218984
% es.EX (V/m) @ t=1
0.7965119402946648
% es.EY (V/m) @ t=1
0.21058191410155835
% es.EZ (V/m) @ t=1
-1.8192543231250964
% es.tEX (V/m) @ t=1
0.796511940294665
% es.tEY (V/m) @ t=1
0
% es.tEZ (V/m) @ t=1
-1.819254323125099
% es.Ex (V/m) @ t=1
0.7965119402946648
% es.Ey (V/m) @ t=1
0.21058191410155835
% es.Ez (V/m) @ t=1
-1.8192543231250964
% es.tEx (V/m) @ t=1
0.796511940294665
% es.tEy (V/m) @ t=1
0
% es.tEz (V/m) @ t=1
-1.819254323125099
% V (V) @ t=1
0.009993309581592353
% es.normE (V/m) @ t=1.02
2.0162817454316766
% es.EX (V/m) @ t=1.02
0.8035648189942739
% es.EY (V/m) @ t=1.02
0.21244671835482087
% es.EZ (V/m) @ t=1.02
-1.8353620040313556
% es.tEX (V/m) @ t=1.02
0.8035648189942743
% es.tEY (V/m) @ t=1.02
0
% es.tEZ (V/m) @ t=1.02
-1.8353620040313583
% es.Ex (V/m) @ t=1.02
0.8035648189942739
% es.Ey (V/m) @ t=1.02
0.21244671835482087
% es.Ez (V/m) @ t=1.02
-1.8353620040313556
% es.tEx (V/m) @ t=1.02
0.8035648189942743
% es.tEy (V/m) @ t=1.02
0
% es.tEz (V/m) @ t=1.02
-1.8353620040313583
% V (V) @ t=1.02
0.010081743984775798
% es.normE (V/m) @ t=1.04
2.033977474941657
% es.EX (V/m) @ t=1.04
0.8106176976938804
% es.EY (V/m) @ t=1.04
0.21431152260809228
% es.EZ (V/m) @ t=1.04
-1.8514696849376078
% es.tEX (V/m) @ t=1.04
0.810617697693877