% Model:              1 neuron.mph
% Version:            COMSOL 6.1.0.252
% Date:               Mar 18 2023, 12:00
% Dimension:          0
% Nodes:              14017
% Expressions:        14017
% Description:        Electric field norm, Electric field, X component, Electric field, Y component, Electric field, Z component, Tangential electric field, X component, Tangential electric field, Y component, Tangential electric field, Z component, Electric field, x component, Electric field, y component, Electric field, z component, Tangential electric field, x component, Tangential electric field, y component, Tangential electric field, z component, Electric potential
% Length unit:        mm
% x
1.66
% y
12.2
% z
1.33
% es.normE (V/m) @ t=0
7.6187579253068884
% es.EX (V/m) @ t=0
-4.233291328003894
% es.EY (V/m) @ t=0
-0.456947136140911
% es.EZ (V/m) @ t=0
5.668345957113819
% es.tEX (V/m) @ t=0
-4.233291328003896
% es.tEY (V/m) @ t=0
0
% es.tEZ (V/m) @ t=0
5.668345957113811
% es.Ex (V/m) @ t=0
-4.233291328003894
% es.Ey (V/m) @ t=0
-0.456947136140911
% es.Ez (V/m) @ t=0
5.668345957113819
% es.tEx (V/m) @ t=0
-4.233291328003896
% es.tEy (V/m) @ t=0
0
% es.tEz (V/m) @ t=0
5.668345957113811
% V (V) @ t=0
0.006257020410230812
% es.normE (V/m) @ t=0.02
6.580401862175616
% es.EX (V/m) @ t=0.02
-3.6563385776804154
% es.EY (V/m) @ t=0.02
-0.394670037760805
% es.EZ (V/m) @ t=0.02
4.895810382385507
% es.tEX (V/m) @ t=0.02
-3.6563385776804145
% es.tEY (V/m) @ t=0.02
0
% es.tEZ (V/m) @ t=0.02
4.895810382385504
% es.Ex (V/m) @ t=0.02
-3.6563385776804154
% es.Ey (V/m) @ t=0.02
-0.394670037760805
% es.Ez (V/m) @ t=0.02
4.895810382385507
% es.tEx (V/m) @ t=0.02
-3.6563385776804145
% es.tEy (V/m) @ t=0.02
0
% es.tEz (V/m) @ t=0.02
4.895810382385504
% V (V) @ t=0.02
0.005404254657666559
% es.normE (V/m) @ t=0.04
6.640928203616172
% es.EX (V/m) @ t=0.04
-3.6899694368370826
% es.EY (V/m) @ t=0.04
-0.3983002293411273
% es.EZ (V/m) @ t=0.04
4.940841914164147
% es.tEX (V/m) @ t=0.04
-3.689969436837086
% es.tEY (V/m) @ t=0.04
0
% es.tEZ (V/m) @ t=0.04
4.9408419141641415
% es.Ex (V/m) @ t=0.04
-3.6899694368370826
% es.Ey (V/m) @ t=0.04
-0.3983002293411273
% es.Ez (V/m) @ t=0.04
4.940841914164147
% es.tEx (V/m) @ t=0.04
-3.689969436837086
% es.tEy (V/m) @ t=0.04
0
% es.tEz (V/m) @ t=0.04
4.9408419141641415
% V (V) @ t=0.04
0.00545396290136097
% es.normE (V/m) @ t=0.06
6.702010524794411
% es.EX (V/m) @ t=0.06
-3.7239092365405746
% es.EY (V/m) @ t=0.06
-0.4019637540399206
% es.EZ (V/m) @ t=0.06
4.986287088352773
% es.tEX (V/m) @ t=0.06
-3.7239092365405844
% es.tEY (V/m) @ t=0.06
0
% es.tEZ (V/m) @ t=0.06
4.986287088352768
% es.Ex (V/m) @ t=0.06
-3.7239092365405746
% es.Ey (V/m) @ t=0.06
-0.4019637540399206
% es.Ez (V/m) @ t=0.06
4.986287088352773
% es.tEx (V/m) @ t=0.06
-3.7239092365405844
% es.tEy (V/m) @ t=0.06
0
% es.tEz (V/m) @ t=0.06
4.986287088352768
% V (V) @ t=0.06
0.005504127720744796
% es.normE (V/m) @ t=0.08
6.7640006574676494
% es.EX (V/m) @ t=0.08
-3.7583534616208665
% es.EY (V/m) @ t=0.08
-0.40568171905838124
% es.EZ (V/m) @ t=0.08
5.03240767009138
% es.tEX (V/m) @ t=0.08
-3.758353461620869
% es.tEY (V/m) @ t=0.08
0
% es.tEZ (V/m) @ t=0.08
5.032407670091378
% es.Ex (V/m) @ t=0.08
-3.7583534616208665
% es.Ey (V/m) @ t=0.08
-0.40568171905838124
% es.Ez (V/m) @ t=0.08
5.03240767009138
% es.tEx (V/m) @ t=0.08
-3.758353461620869
% es.tEy (V/m) @ t=0.08
0
% es.tEz (V/m) @ t=0.08
5.032407670091378
% V (V) @ t=0.08
0.005555038077059256
% es.normE (V/m) @ t=0.1
6.826672196664005
% es.EX (V/m) @ t=0.1
-3.793176310175384
% es.EY (V/m) @ t=0.1
-0.4094405471735445
% es.EZ (V/m) @ t=0.1
5.079035215128941
% es.tEX (V/m) @ t=0.1
-3.79317631017539
% es.tEY (V/m) @ t=0.1
0
% es.tEZ (V/m) @ t=0.1
5.0790352151289335
% es.Ex (V/m) @ t=0.1
-3.793176310175384
% es.Ey (V/m) @ t=0.1
-0.4094405471735445
% es.Ez (V/m) @ t=0.1
5.079035215128941
% es.tEx (V/m) @ t=0.1
-3.79317631017539
% es.tEy (V/m) @ t=0.1
0
% es.tEz (V/m) @ t=0.1
5.0790352151289335
% V (V) @ t=0.1
0.00560650803603415
% es.normE (V/m) @ t=0.12
6.889343735860381
% es.EX (V/m) @ t=0.12
-3.8279991587299005
% es.EY (V/m) @ t=0.12
-0.41319937528871464
% es.EZ (V/m) @ t=0.12
5.1256627601665254
% es.tEX (V/m) @ t=0.12
-3.8279991587299103
% es.tEY (V/m) @ t=0.12
0
% es.tEZ (V/m) @ t=0.12
5.125662760166518
% es.Ex (V/m) @ t=0.12
-3.8279991587299005
% es.Ey (V/m) @ t=0.12
-0.41319937528871464
% es.Ez (V/m) @ t=0.12
5.1256627601665254
% es.tEx (V/m) @ t=0.12
-3.8279991587299103
% es.tEy (V/m) @ t=0.12
0
% es.tEz (V/m) @ t=0.12
5.125662760166518
% V (V) @ t=0.12
0.005657977995009045
% es.normE (V/m) @ t=0.14
6.952528213234347
% es.EX (V/m) @ t=0.14
-3.8631070335123985
% es.EY (V/m) @ t=0.14
-0.4169889539335603
% es.EZ (V/m) @ t=0.14
5.172671924258238
% es.tEX (V/m) @ t=0.14
-3.863107033512401
% es.tEY (V/m) @ t=0.14
0
% es.tEZ (V/m) @ t=0.14
5.1726719242582355
% es.Ex (V/m) @ t=0.14
-3.8631070335123985
% es.Ey (V/m) @ t=0.14
-0.4169889539335603
% es.Ez (V/m) @ t=0.14
5.172671924258238
% es.tEx (V/m) @ t=0.14
-3.863107033512401
% es.tEy (V/m) @ t=0.14
0
% es.tEz (V/m) @ t=0.14
5.1726719242582355
% V (V) @ t=0.14
0.005709869178343056
% es.normE (V/m) @ t=0.16
7.018563744573486
% es.EX (V/m) @ t=0.16
-3.899799163850407
% es.EY (V/m) @ t=0.16
-0.42094945262957806
% es.EZ (V/m) @ t=0.16
5.221802233869988
% es.tEX (V/m) @ t=0.16
-3.8997991638504166
% es.tEY (V/m) @ t=0.16
0
% es.tEZ (V/m) @ t=0.16
5.221802233869985
% es.Ex (V/m) @ t=0.16
-3.899799163850407
% es.Ey (V/m) @ t=0.16
-0.42094945262957806
% es.Ez (V/m) @ t=0.16
5.221802233869988
% es.tEx (V/m) @ t=0.16
-3.8997991638504166
% es.tEy (V/m) @ t=0.16
0
% es.tEz (V/m) @ t=0.16
5.221802233869985
% V (V) @ t=0.16
0.005764101644567921
% es.normE (V/m) @ t=0.18
7.084599275912626
% es.EX (V/m) @ t=0.18
-3.936491294188409
% es.EY (V/m) @ t=0.18
-0.4249099513256114
% es.EZ (V/m) @ t=0.18
5.270932543481749
% es.tEX (V/m) @ t=0.18
-3.936491294188415
% es.tEY (V/m) @ t=0.18
0
% es.tEZ (V/m) @ t=0.18
5.270932543481742
% es.Ex (V/m) @ t=0.18
-3.936491294188409
% es.Ey (V/m) @ t=0.18
-0.4249099513256114
% es.Ez (V/m) @ t=0.18
5.270932543481749
% es.tEx (V/m) @ t=0.18
-3.936491294188415
% es.tEy (V/m) @ t=0.18
0
% es.tEz (V/m) @ t=0.18
5.270932543481742
% V (V) @ t=0.18
0.005818334110792787
% es.normE (V/m) @ t=0.2
7.150634807251757
% es.EX (V/m) @ t=0.2
-3.9731834245264137
% es.EY (V/m) @ t=0.2
-0.4288704500216163
% es.EZ (V/m) @ t=0.2
5.3200628530934955
% es.tEX (V/m) @ t=0.2
-3.9731834245264244
% es.tEY (V/m) @ t=0.2
0
% es.tEZ (V/m) @ t=0.2
5.320062853093494
% es.Ex (V/m) @ t=0.2
-3.9731834245264137
% es.Ey (V/m) @ t=0.2
-0.4288704500216163
% es.Ez (V/m) @ t=0.2
5.3200628530934955
% es.tEx (V/m) @ t=0.2
-3.9731834245264244
% es.tEy (V/m) @ t=0.2
0
% es.tEz (V/m) @ t=0.2
5.320062853093494
% V (V) @ t=0.2
0.005872566577017652
% es.normE (V/m) @ t=0.22
7.216670338590895
% es.EX (V/m) @ t=0.22
-4.009875554864416
% es.EY (V/m) @ t=0.22
-0.4328309487176374
% es.EZ (V/m) @ t=0.22
5.369193162705246
% es.tEX (V/m) @ t=0.22
-4.009875554864422
% es.tEY (V/m) @ t=0.22
0
% es.tEZ (V/m) @ t=0.22
5.369193162705239
% es.Ex (V/m) @ t=0.22
-4.009875554864416
% es.Ey (V/m) @ t=0.22
-0.4328309487176374
% es.Ez (V/m) @ t=0.22
5.369193162705246
% es.tEx (V/m) @ t=0.22
-4.009875554864422
% es.tEy (V/m) @ t=0.22
0
% es.tEz (V/m) @ t=0.22
5.369193162705239
% V (V) @ t=0.22
0.005926799043242517
% es.normE (V/m) @ t=0.24
7.282705869930044
% es.EX (V/m) @ t=0.24
-4.0465676852024215
% es.EY (V/m) @ t=0.24
-0.43679144741366405
% es.EZ (V/m) @ t=0.24
5.418323472316998
% es.tEX (V/m) @ t=0.24
-4.046567685202424
% es.tEY (V/m) @ t=0.24
0
% es.tEZ (V/m) @ t=0.24
5.4183234723169935
% es.Ex (V/m) @ t=0.24
-4.0465676852024215
% es.Ey (V/m) @ t=0.24
-0.43679144741366405
% es.Ez (V/m) @ t=0.24
5.418323472316998
% es.tEx (V/m) @ t=0.24
-4.046567685202424
% es.tEy (V/m) @ t=0.24
0
% es.tEz (V/m) @ t=0.24
5.4183234723169935
% V (V) @ t=0.24
0.005981031509467382
% es.normE (V/m) @ t=0.26
7.348741401269194
% es.EX (V/m) @ t=0.26
-4.083259815540422
% es.EY (V/m) @ t=0.26
-0.44075194610969226
% es.EZ (V/m) @ t=0.26
5.467453781928752
% es.tEX (V/m) @ t=0.26
-4.083259815540428
% es.tEY (V/m) @ t=0.26
0
% es.tEZ (V/m) @ t=0.26
5.467453781928745
% es.Ex (V/m) @ t=0.26
-4.083259815540422
% es.Ey (V/m) @ t=0.26
-0.44075194610969226
% es.Ez (V/m) @ t=0.26
5.467453781928752
% es.tEx (V/m) @ t=0.26
-4.083259815540428
% es.tEy (V/m) @ t=0.26
0
% es.tEz (V/m) @ t=0.26
5.467453781928745
% V (V) @ t=0.26
0.006035263975692248
% es.normE (V/m) @ t=0.28
7.417163850817886
% es.EX (V/m) @ t=0.28
-4.1212760141365035
% es.EY (V/m) @ t=0.28
-0.44485739561795556
% es.EZ (V/m) @ t=0.28
5.518360769227123
% es.tEX (V/m) @ t=0.28
-4.12127601413651
% es.tEY (V/m) @ t=0.28
0
% es.tEZ (V/m) @ t=0.28
5.51836076922712
% es.Ex (V/m) @ t=0.28
-4.1212760141365035
% es.Ey (V/m) @ t=0.28
-0.44485739561795556
% es.Ez (V/m) @ t=0.28
5.518360769227123
% es.tEx (V/m) @ t=0.28
-4.12127601413651
% es.tEy (V/m) @ t=0.28
0
% es.tEz (V/m) @ t=0.28
5.51836076922712
% V (V) @ t=0.28
0.006091461134653901
% es.normE (V/m) @ t=0.3
7.490777528475566
% es.EX (V/m) @ t=0.3
-4.162171884235637
% es.EY (V/m) @ t=0.3
-0.4492780937706051
% es.EZ (V/m) @ t=0.3
5.5731317930455
% es.tEX (V/m) @ t=0.3
-4.162171884235644
% es.tEY (V/m) @ t=0.3
0
% es.tEZ (V/m) @ t=0.3
5.573131793045489
% es.Ex (V/m) @ t=0.3
-4.162171884235637
% es.Ey (V/m) @ t=0.3
-0.4492780937706051
% es.Ez (V/m) @ t=0.3
5.5731317930455
% es.tEx (V/m) @ t=0.3
-4.162171884235644
% es.tEy (V/m) @ t=0.3
0
% es.tEz (V/m) @ t=0.3
5.573131793045489
% V (V) @ t=0.3
0.0061519312377419765
% es.normE (V/m) @ t=0.32
7.564391206146153
% es.EX (V/m) @ t=0.32
-4.203067754334754
% es.EY (V/m) @ t=0.32
-0.4536987919232649
% es.EZ (V/m) @ t=0.32
5.62790281686391
% es.tEX (V/m) @ t=0.32
-4.20306775433476
% es.tEY (V/m) @ t=0.32
0
% es.tEZ (V/m) @ t=0.32
5.627902816863896
% es.Ex (V/m) @ t=0.32
-4.203067754334754
% es.Ey (V/m) @ t=0.32
-0.4536987919232649
% es.Ez (V/m) @ t=0.32
5.62790281686391
% es.tEx (V/m) @ t=0.32
-4.20306775433476
% es.tEy (V/m) @ t=0.32
0
% es.tEz (V/m) @ t=0.32
5.627902816863896
% V (V) @ t=0.32
0.0062124013408300545
% es.normE (V/m) @ t=0.34
7.638004883829204
% es.EX (V/m) @ t=0.34
-4.243963624433877
% es.EY (V/m) @ t=0.34
-0.4581194900759056
% es.EZ (V/m) @ t=0.34
5.682673840682285
% es.tEX (V/m) @ t=0.34
-4.243963624433887
% es.tEY (V/m) @ t=0.34
0
% es.tEZ (V/m) @ t=0.34
5.6826738406822805
% es.Ex (V/m) @ t=0.34
-4.243963624433877
% es.Ey (V/m) @ t=0.34
-0.4581194900759056
% es.Ez (V/m) @ t=0.34
5.682673840682285
% es.tEx (V/m) @ t=0.34
-4.243963624433887
% es.tEy (V/m) @ t=0.34
0
% es.tEz (V/m) @ t=0.34
5.6826738406822805
% V (V) @ t=0.34
0.0062728714439181325
% es.normE (V/m) @ t=0.36
7.711618561524441
% es.EX (V/m) @ t=0.36
-4.284859494532997
% es.EY (V/m) @ t=0.36
-0.4625401882285549
% es.EZ (V/m) @ t=0.36
5.737444864500691
% es.tEX (V/m) @ t=0.36
-4.28485949453301
% es.tEY (V/m) @ t=0.36
0
% es.tEZ (V/m) @ t=0.36
5.737444864500684
% es.Ex (V/m) @ t=0.36
-4.284859494532997
% es.Ey (V/m) @ t=0.36
-0.4625401882285549
% es.Ez (V/m) @ t=0.36
5.737444864500691
% es.tEx (V/m) @ t=0.36
-4.28485949453301
% es.tEy (V/m) @ t=0.36
0
% es.tEz (V/m) @ t=0.36
5.737444864500684
% V (V) @ t=0.36
0.00633334154700621
% es.normE (V/m) @ t=0.38
7.785232239231464
% es.EX (V/m) @ t=0.38
-4.325755364632114
% es.EY (V/m) @ t=0.38
-0.46696088638122024
% es.EZ (V/m) @ t=0.38
5.7922158883190775
% es.tEX (V/m) @ t=0.38
-4.32575536463212
% es.tEY (V/m) @ t=0.38
0
% es.tEZ (V/m) @ t=0.38
5.792215888319071
% es.Ex (V/m) @ t=0.38
-4.325755364632114
% es.Ey (V/m) @ t=0.38
-0.46696088638122024
% es.Ez (V/m) @ t=0.38
5.7922158883190775
% es.tEx (V/m) @ t=0.38
-4.32575536463212
% es.tEy (V/m) @ t=0.38
0
% es.tEz (V/m) @ t=0.38
5.792215888319071
% V (V) @ t=0.38
0.006393811650094286
% es.normE (V/m) @ t=0.4
7.858845916949951
% es.EX (V/m) @ t=0.4
-4.366651234731234
% es.EY (V/m) @ t=0.4
-0.47138158453385537
% es.EZ (V/m) @ t=0.4
5.846986912137468
% es.tEX (V/m) @ t=0.4
-4.36665123473124
% es.tEY (V/m) @ t=0.4
0
% es.tEZ (V/m) @ t=0.4
5.846986912137457
% es.Ex (V/m) @ t=0.4
-4.366651234731234
% es.Ey (V/m) @ t=0.4
-0.47138158453385537
% es.Ez (V/m) @ t=0.4
5.846986912137468
% es.tEx (V/m) @ t=0.4
-4.36665123473124
% es.tEy (V/m) @ t=0.4
0
% es.tEz (V/m) @ t=0.4
5.846986912137457
% V (V) @ t=0.4
0.006454281753182365
% es.normE (V/m) @ t=0.42
7.932459594679619
% es.EX (V/m) @ t=0.42
-4.407547104830358
% es.EY (V/m) @ t=0.42
-0.4758022826865138
% es.EZ (V/m) @ t=0.42
5.901757935955881
% es.tEX (V/m) @ t=0.42
-4.407547104830364
% es.tEY (V/m) @ t=0.42
0
% es.tEZ (V/m) @ t=0.42
5.901757935955872
% es.Ex (V/m) @ t=0.42
-4.407547104830358
% es.Ey (V/m) @ t=0.42
-0.4758022826865138
% es.Ez (V/m) @ t=0.42
5.901757935955881
% es.tEx (V/m) @ t=0.42
-4.407547104830364
% es.tEy (V/m) @ t=0.42
0
% es.tEz (V/m) @ t=0.42
5.901757935955872
% V (V) @ t=0.42
0.006514751856270442
% es.normE (V/m) @ t=0.44
8.006073272420094
% es.EX (V/m) @ t=0.44
-4.44844297492948
% es.EY (V/m) @ t=0.44
-0.4802229808391647
% es.EZ (V/m) @ t=0.44
5.956528959774251
% es.tEX (V/m) @ t=0.44
-4.448442974929494
% es.tEY (V/m) @ t=0.44
0
% es.tEZ (V/m) @ t=0.44
5.956528959774249
% es.Ex (V/m) @ t=0.44
-4.44844297492948
% es.Ey (V/m) @ t=0.44
-0.4802229808391647
% es.Ez (V/m) @ t=0.44
5.956528959774251
% es.tEx (V/m) @ t=0.44
-4.448442974929494
% es.tEy (V/m) @ t=0.44
0
% es.tEz (V/m) @ t=0.44
5.956528959774249
% V (V) @ t=0.44
0.00657522195935852
% es.normE (V/m) @ t=0.46
8.079686950171158
% es.EX (V/m) @ t=0.46
-4.4893388450286045
% es.EY (V/m) @ t=0.46
-0.48464367899181626
% es.EZ (V/m) @ t=0.46
6.011299983592667
% es.tEX (V/m) @ t=0.46
-4.489338845028607
% es.tEY (V/m) @ t=0.46
0
% es.tEZ (V/m) @ t=0.46
6.01129998359266
% es.Ex (V/m) @ t=0.46
-4.4893388450286045
% es.Ey (V/m) @ t=0.46
-0.48464367899181626
% es.Ez (V/m) @ t=0.46
6.011299983592667
% es.tEx (V/m) @ t=0.46
-4.489338845028607
% es.tEy (V/m) @ t=0.46
0
% es.tEz (V/m) @ t=0.46
6.01129998359266
% V (V) @ t=0.46
0.006635692062446597
% es.normE (V/m) @ t=0.48
8.15330062793246
% es.EX (V/m) @ t=0.48
-4.53023471512771
% es.EY (V/m) @ t=0.48
-0.4890643771444618
% es.EZ (V/m) @ t=0.48
6.0660710074110655
% es.tEX (V/m) @ t=0.48
-4.53023471512772
% es.tEY (V/m) @ t=0.48
0
% es.tEZ (V/m) @ t=0.48
6.066071007411053
% es.Ex (V/m) @ t=0.48
-4.53023471512771
% es.Ey (V/m) @ t=0.48
-0.4890643771444618
% es.Ez (V/m) @ t=0.48
6.0660710074110655
% es.tEx (V/m) @ t=0.48
-4.53023471512772
% es.tEy (V/m) @ t=0.48
0
% es.tEz (V/m) @ t=0.48
6.066071007411053
% V (V) @ t=0.48
0.006696162165534673
% es.normE (V/m) @ t=0.5
8.226914305703756
% es.EX (V/m) @ t=0.5
-4.571130585226833
% es.EY (V/m) @ t=0.5
-0.49348507529713603
% es.EZ (V/m) @ t=0.5
6.120842031229457
% es.tEX (V/m) @ t=0.5
-4.571130585226847
% es.tEY (V/m) @ t=0.5
0
% es.tEZ (V/m) @ t=0.5
6.1208420312294525
% es.Ex (V/m) @ t=0.5
-4.571130585226833
% es.Ey (V/m) @ t=0.5
-0.49348507529713603
% es.Ez (V/m) @ t=0.5
6.120842031229457
% es.tEx (V/m) @ t=0.5
-4.571130585226847
% es.tEy (V/m) @ t=0.5
0
% es.tEz (V/m) @ t=0.5
6.1208420312294525
% V (V) @ t=0.5
0.006756632268622751
% es.normE (V/m) @ t=0.52
8.300527983484756
% es.EX (V/m) @ t=0.52
-4.612026455325957
% es.EY (V/m) @ t=0.52
-0.49790577344977494
% es.EZ (V/m) @ t=0.52
6.175613055047838
% es.tEX (V/m) @ t=0.52
-4.612026455325963
% es.tEY (V/m) @ t=0.52
0
% es.tEZ (V/m) @ t=0.52
6.175613055047828
% es.Ex (V/m) @ t=0.52
-4.612026455325957
% es.Ey (V/m) @ t=0.52
-0.49790577344977494
% es.Ez (V/m) @ t=0.52
6.175613055047838
% es.tEx (V/m) @ t=0.52
-4.612026455325963
% es.tEy (V/m) @ t=0.52
0
% es.tEz (V/m) @ t=0.52
6.175613055047828
% V (V) @ t=0.52
0.006817102371710829
% es.normE (V/m) @ t=0.54
8.374141661275242
% es.EX (V/m) @ t=0.54
-4.6529223254250835
% es.EY (V/m) @ t=0.54
-0.502326471602426
% es.EZ (V/m) @ t=0.54
6.230384078866229
% es.tEX (V/m) @ t=0.54
-4.652922325425097
% es.tEY (V/m) @ t=0.54
0
% es.tEZ (V/m) @ t=0.54
6.230384078866219
% es.Ex (V/m) @ t=0.54
-4.6529223254250835
% es.Ey (V/m) @ t=0.54
-0.502326471602426
% es.Ez (V/m) @ t=0.54
6.230384078866229
% es.tEx (V/m) @ t=0.54
-4.652922325425097
% es.tEy (V/m) @ t=0.54
0
% es.tEz (V/m) @ t=0.54
6.230384078866219
% V (V) @ t=0.54
0.006877572474798907
% es.normE (V/m) @ t=0.56
8.453267238304345
% es.EX (V/m) @ t=0.56
-4.6968622759107195
% es.EY (V/m) @ t=0.56
-0.5070929023807935
% es.EZ (V/m) @ t=0.56
6.289262789697267
% es.tEX (V/m) @ t=0.56
-4.696862275910733
% es.tEY (V/m) @ t=0.56
0
% es.tEZ (V/m) @ t=0.56
6.289262789697258
% es.Ex (V/m) @ t=0.56
-4.6968622759107195
% es.Ey (V/m) @ t=0.56
-0.5070929023807935
% es.Ez (V/m) @ t=0.56
6.289262789697267
% es.tEx (V/m) @ t=0.56
-4.696862275910733
% es.tEy (V/m) @ t=0.56
0
% es.tEz (V/m) @ t=0.56
6.289262789697258
% V (V) @ t=0.56
0.006942606450872307
% es.normE (V/m) @ t=0.58
8.535493748033268
% es.EX (V/m) @ t=0.58
-4.742514791751903
% es.EY (V/m) @ t=0.58
-0.5120538384422071
% es.EZ (V/m) @ t=0.58
6.350452438997749
% es.tEX (V/m) @ t=0.58
-4.742514791751909
% es.tEY (V/m) @ t=0.58
0
% es.tEZ (V/m) @ t=0.58
6.350452438997739
% es.Ex (V/m) @ t=0.58
-4.742514791751903
% es.Ey (V/m) @ t=0.58
-0.5120538384422071
% es.Ez (V/m) @ t=0.58
6.350452438997749
% es.tEx (V/m) @ t=0.58
-4.742514791751909
% es.tEy (V/m) @ t=0.58
0
% es.tEz (V/m) @ t=0.58
6.350452438997739
% V (V) @ t=0.58
0.007010208010507691
% es.normE (V/m) @ t=0.6
8.617720258052291
% es.EX (V/m) @ t=0.6
-4.788167307593077
% es.EY (V/m) @ t=0.6
-0.5170147745036018
% es.EZ (V/m) @ t=0.6
6.411642088298236
% es.tEX (V/m) @ t=0.6
-4.788167307593087
% es.tEY (V/m) @ t=0.6
0
% es.tEZ (V/m) @ t=0.6
6.411642088298223
% es.Ex (V/m) @ t=0.6
-4.788167307593077
% es.Ey (V/m) @ t=0.6
-0.5170147745036018
% es.Ez (V/m) @ t=0.6
6.411642088298236
% es.tEx (V/m) @ t=0.6
-4.788167307593087
% es.tEy (V/m) @ t=0.6
0
% es.tEz (V/m) @ t=0.6
6.411642088298223
% V (V) @ t=0.6
0.007077809570143076
% es.normE (V/m) @ t=0.62
8.699946768353183
% es.EX (V/m) @ t=0.62
-4.833819823434259
% es.EY (V/m) @ t=0.62
-0.5219757105650067
% es.EZ (V/m) @ t=0.62
6.472831737598704
% es.tEX (V/m) @ t=0.62
-4.833819823434268
% es.tEY (V/m) @ t=0.62
0
% es.tEZ (V/m) @ t=0.62
6.472831737598696
% es.Ex (V/m) @ t=0.62
-4.833819823434259
% es.Ey (V/m) @ t=0.62
-0.5219757105650067
% es.Ez (V/m) @ t=0.62
6.472831737598704
% es.tEx (V/m) @ t=0.62
-4.833819823434268
% es.tEy (V/m) @ t=0.62
0
% es.tEz (V/m) @ t=0.62
6.472831737598696
% V (V) @ t=0.62
0.00714541112977846
% es.normE (V/m) @ t=0.64
8.782173278928052
% es.EX (V/m) @ t=0.64
-4.879472339275442
% es.EY (V/m) @ t=0.64
-0.5269366466264132
% es.EZ (V/m) @ t=0.64
6.534021386899193
% es.tEX (V/m) @ t=0.64
-4.8794723392754555
% es.tEY (V/m) @ t=0.64
0
% es.tEZ (V/m) @ t=0.64
6.534021386899182
% es.Ex (V/m) @ t=0.64
-4.879472339275442
% es.Ey (V/m) @ t=0.64
-0.5269366466264132
% es.Ez (V/m) @ t=0.64
6.534021386899193
% es.tEx (V/m) @ t=0.64
-4.8794723392754555
% es.tEy (V/m) @ t=0.64
0
% es.tEz (V/m) @ t=0.64
6.534021386899182
% V (V) @ t=0.64
0.007213012689413845
% es.normE (V/m) @ t=0.66
8.864399789769251
% es.EX (V/m) @ t=0.66
-4.925124855116616
% es.EY (V/m) @ t=0.66
-0.5318975826878076
% es.EZ (V/m) @ t=0.66
6.595211036199678
% es.tEX (V/m) @ t=0.66
-4.925124855116622
% es.tEY (V/m) @ t=0.66
0
% es.tEZ (V/m) @ t=0.66
6.595211036199665
% es.Ex (V/m) @ t=0.66
-4.925124855116616
% es.Ey (V/m) @ t=0.66
-0.5318975826878076
% es.Ez (V/m) @ t=0.66
6.595211036199678
% es.tEx (V/m) @ t=0.66
-4.925124855116622
% es.tEy (V/m) @ t=0.66
0
% es.tEz (V/m) @ t=0.66
6.595211036199665
% V (V) @ t=0.66
0.00728061424904923
% es.normE (V/m) @ t=0.68
8.94662630086944
% es.EX (V/m) @ t=0.68
-4.970777370957801
% es.EY (V/m) @ t=0.68
-0.5368585187492054
% es.EZ (V/m) @ t=0.68
6.65640068550015
% es.tEX (V/m) @ t=0.68
-4.970777370957807
% es.tEY (V/m) @ t=0.68
0
% es.tEZ (V/m) @ t=0.68
6.656400685500139
% es.Ex (V/m) @ t=0.68
-4.970777370957801
% es.Ey (V/m) @ t=0.68
-0.5368585187492054
% es.Ez (V/m) @ t=0.68
6.65640068550015
% es.tEx (V/m) @ t=0.68
-4.970777370957807
% es.tEy (V/m) @ t=0.68
0
% es.tEz (V/m) @ t=0.68
6.656400685500139
% V (V) @ t=0.68
0.007348215808684617
% es.normE (V/m) @ t=0.7
9.028852812221565
% es.EX (V/m) @ t=0.7
-5.016429886798981
% es.EY (V/m) @ t=0.7
-0.5418194548106083
% es.EZ (V/m) @ t=0.7
6.717590334800652
% es.tEX (V/m) @ t=0.7
-5.016429886798984
% es.tEY (V/m) @ t=0.7
0
% es.tEZ (V/m) @ t=0.7
6.717590334800641
% es.Ex (V/m) @ t=0.7
-5.016429886798981
% es.Ey (V/m) @ t=0.7
-0.5418194548106083
% es.Ez (V/m) @ t=0.7
6.717590334800652
% es.tEx (V/m) @ t=0.7
-5.016429886798984
% es.tEy (V/m) @ t=0.7
0
% es.tEz (V/m) @ t=0.7
6.717590334800641
% V (V) @ t=0.7
0.007415817368320002
% es.normE (V/m) @ t=0.72
9.11107932381876
% es.EX (V/m) @ t=0.72
-5.062082402640163
% es.EY (V/m) @ t=0.72
-0.546780390872001
% es.EZ (V/m) @ t=0.72
6.778779984101116
% es.tEX (V/m) @ t=0.72
-5.062082402640169
% es.tEY (V/m) @ t=0.72
0
% es.tEZ (V/m) @ t=0.72
6.7787799841011145
% es.Ex (V/m) @ t=0.72
-5.062082402640163
% es.Ey (V/m) @ t=0.72
-0.546780390872001
% es.Ez (V/m) @ t=0.72
6.778779984101116
% es.tEx (V/m) @ t=0.72
-5.062082402640169
% es.tEy (V/m) @ t=0.72
0
% es.tEz (V/m) @ t=0.72
6.7787799841011145
% V (V) @ t=0.72
0.007483418927955386
% es.normE (V/m) @ t=0.74
9.193305835654478
% es.EX (V/m) @ t=0.74
-5.107734918481347
% es.EY (V/m) @ t=0.74
-0.5517413269334042
% es.EZ (V/m) @ t=0.74
6.839969633401587
% es.tEX (V/m) @ t=0.74
-5.1077349184813565
% es.tEY (V/m) @ t=0.74
0
% es.tEZ (V/m) @ t=0.74
6.83996963340158
% es.Ex (V/m) @ t=0.74
-5.107734918481347
% es.Ey (V/m) @ t=0.74
-0.5517413269334042
% es.Ez (V/m) @ t=0.74
6.839969633401587
% es.tEx (V/m) @ t=0.74
-5.1077349184813565
% es.tEy (V/m) @ t=0.74
0
% es.tEz (V/m) @ t=0.74
6.83996963340158
% V (V) @ t=0.74
0.007551020487590773
% es.normE (V/m) @ t=0.76
9.275532347722391
% es.EX (V/m) @ t=0.76
-5.1533874343225285
% es.EY (V/m) @ t=0.76
-0.5567022629948093
% es.EZ (V/m) @ t=0.76
6.901159282702075
% es.tEX (V/m) @ t=0.76
-5.153387434322535
% es.tEY (V/m) @ t=0.76
0
% es.tEZ (V/m) @ t=0.76
6.901159282702065
% es.Ex (V/m) @ t=0.76
-5.1533874343225285
% es.Ey (V/m) @ t=0.76
-0.5567022629948093
% es.Ez (V/m) @ t=0.76
6.901159282702075
% es.tEx (V/m) @ t=0.76
-5.153387434322535
% es.tEy (V/m) @ t=0.76
0
% es.tEz (V/m) @ t=0.76
6.901159282702065
% V (V) @ t=0.76
0.007618622047226157
% es.normE (V/m) @ t=0.78
9.357758860016357
% es.EX (V/m) @ t=0.78
-5.199039950163702
% es.EY (V/m) @ t=0.78
-0.5616631990562051
% es.EZ (V/m) @ t=0.78
6.962348932002572
% es.tEX (V/m) @ t=0.78
-5.199039950163705
% es.tEY (V/m) @ t=0.78
0
% es.tEZ (V/m) @ t=0.78
6.962348932002554
% es.Ex (V/m) @ t=0.78
-5.199039950163702
% es.Ey (V/m) @ t=0.78
-0.5616631990562051
% es.Ez (V/m) @ t=0.78
6.962348932002572
% es.tEx (V/m) @ t=0.78
-5.199039950163705
% es.tEy (V/m) @ t=0.78
0
% es.tEz (V/m) @ t=0.78
6.962348932002554
% V (V) @ t=0.78
0.007686223606861543
% es.normE (V/m) @ t=0.8
9.439985372530437
% es.EX (V/m) @ t=0.8
-5.244692466004893
% es.EY (V/m) @ t=0.8
-0.5666241351176105
% es.EZ (V/m) @ t=0.8
7.02353858130302
% es.tEX (V/m) @ t=0.8
-5.244692466004903
% es.tEY (V/m) @ t=0.8
0
% es.tEZ (V/m) @ t=0.8
7.023538581303016
% es.Ex (V/m) @ t=0.8
-5.244692466004893
% es.Ey (V/m) @ t=0.8
-0.5666241351176105
% es.Ez (V/m) @ t=0.8
7.02353858130302
% es.tEx (V/m) @ t=0.8
-5.244692466004903
% es.tEy (V/m) @ t=0.8
0
% es.tEz (V/m) @ t=0.8
7.023538581303016
% V (V) @ t=0.8
0.007753825166496926
% es.normE (V/m) @ t=0.82
9.522211885258997
% es.EX (V/m) @ t=0.82
-5.290344981846082
% es.EY (V/m) @ t=0.82
-0.5715850711789923
% es.EZ (V/m) @ t=0.82
7.084728230603515
% es.tEX (V/m) @ t=0.82
-5.290344981846092
% es.tEY (V/m) @ t=0.82
0
% es.tEZ (V/m) @ t=0.82
7.084728230603506
% es.Ex (V/m) @ t=0.82
-5.290344981846082
% es.Ey (V/m) @ t=0.82
-0.5715850711789923
% es.Ez (V/m) @ t=0.82
7.084728230603515
% es.tEx (V/m) @ t=0.82
-5.290344981846092
% es.tEy (V/m) @ t=0.82
0
% es.tEz (V/m) @ t=0.82
7.084728230603506
% V (V) @ t=0.82
0.007821426726132312
% es.normE (V/m) @ t=0.84
9.613814544790724
% es.EX (V/m) @ t=0.84
-5.341262433578839
% es.EY (V/m) @ t=0.84
-0.5770633506406133
% es.EZ (V/m) @ t=0.84
7.152873371698072
% es.tEX (V/m) @ t=0.84
-5.341262433578849
% es.tEY (V/m) @ t=0.84
0
% es.tEZ (V/m) @ t=0.84
7.152873371698064
% es.Ex (V/m) @ t=0.84
-5.341262433578839
% es.Ey (V/m) @ t=0.84
-0.5770633506406133
% es.Ez (V/m) @ t=0.84
7.152873371698072
% es.tEx (V/m) @ t=0.84
-5.341262433578849
% es.tEy (V/m) @ t=0.84
0
% es.tEz (V/m) @ t=0.84
7.152873371698064
% V (V) @ t=0.84
0.007896618196171124
% es.normE (V/m) @ t=0.86
9.70575774100756
% es.EX (V/m) @ t=0.86
-5.39237110491103
% es.EY (V/m) @ t=0.86
-0.582560419732304
% es.EZ (V/m) @ t=0.86
7.221271132460196
% es.tEX (V/m) @ t=0.86
-5.392371104911036
% es.tEY (V/m) @ t=0.86
0
% es.tEZ (V/m) @ t=0.86
7.221271132460189
% es.Ex (V/m) @ t=0.86
-5.39237110491103
% es.Ey (V/m) @ t=0.86
-0.582560419732304
% es.Ez (V/m) @ t=0.86
7.221271132460196
% es.tEx (V/m) @ t=0.86
-5.392371104911036
% es.tEy (V/m) @ t=0.86
0
% es.tEz (V/m) @ t=0.86
7.221271132460189
% V (V) @ t=0.86
0.007972085327615265
% es.normE (V/m) @ t=0.88
9.797700937374877
% es.EX (V/m) @ t=0.88
-5.443479776243205
% es.EY (V/m) @ t=0.88
-0.5880574888239605
% es.EZ (V/m) @ t=0.88
7.289668893222301
% es.tEX (V/m) @ t=0.88
-5.443479776243211
% es.tEY (V/m) @ t=0.88
0
% es.tEZ (V/m) @ t=0.88
7.289668893222285
% es.Ex (V/m) @ t=0.88
-5.443479776243205
% es.Ey (V/m) @ t=0.88
-0.5880574888239605
% es.Ez (V/m) @ t=0.88
7.289668893222301
% es.tEx (V/m) @ t=0.88
-5.443479776243211
% es.tEy (V/m) @ t=0.88
0
% es.tEz (V/m) @ t=0.88
7.289668893222285
% V (V) @ t=0.88
0.00804755245905941
% es.normE (V/m) @ t=0.9
9.889644133888524
% es.EX (V/m) @ t=0.9
-5.494588447575385
% es.EY (V/m) @ t=0.9
-0.5935545579156443
% es.EZ (V/m) @ t=0.9
7.3580666539844115
% es.tEX (V/m) @ t=0.9
-5.494588447575388
% es.tEY (V/m) @ t=0.9
0
% es.tEZ (V/m) @ t=0.9
7.358066653984402
% es.Ex (V/m) @ t=0.9
-5.494588447575385
% es.Ey (V/m) @ t=0.9
-0.5935545579156443
% es.Ez (V/m) @ t=0.9
7.3580666539844115
% es.tEx (V/m) @ t=0.9
-5.494588447575388
% es.tEy (V/m) @ t=0.9
0
% es.tEz (V/m) @ t=0.9
7.358066653984402
% V (V) @ t=0.9
0.008123019590503551
% es.normE (V/m) @ t=0.92
9.98158733054441
% es.EX (V/m) @ t=0.92
-5.545697118907549
% es.EY (V/m) @ t=0.92
-0.5990516270073489
% es.EZ (V/m) @ t=0.92
7.426464414746497
% es.tEX (V/m) @ t=0.92
-5.545697118907555
% es.tEY (V/m) @ t=0.92
0
% es.tEZ (V/m) @ t=0.92
7.426464414746489
% es.Ex (V/m) @ t=0.92
-5.545697118907549
% es.Ey (V/m) @ t=0.92
-0.5990516270073489
% es.Ez (V/m) @ t=0.92
7.426464414746497
% es.tEx (V/m) @ t=0.92
-5.545697118907555
% es.tEy (V/m) @ t=0.92
0
% es.tEz (V/m) @ t=0.92
7.426464414746489
% V (V) @ t=0.92
0.008198486721947692
% es.normE (V/m) @ t=0.94
10.073530527338702
% es.EX (V/m) @ t=0.94
-5.596805790239732
% es.EY (V/m) @ t=0.94
-0.604548696099009
% es.EZ (V/m) @ t=0.94
7.494862175508614
% es.tEX (V/m) @ t=0.94
-5.596805790239738
% es.tEY (V/m) @ t=0.94
0
% es.tEZ (V/m) @ t=0.94
7.494862175508605
% es.Ex (V/m) @ t=0.94
-5.596805790239732
% es.Ey (V/m) @ t=0.94
-0.604548696099009
% es.Ez (V/m) @ t=0.94
7.494862175508614
% es.tEx (V/m) @ t=0.94
-5.596805790239738
% es.tEy (V/m) @ t=0.94
0
% es.tEz (V/m) @ t=0.94
7.494862175508605
% V (V) @ t=0.94
0.008273953853391835
% es.normE (V/m) @ t=0.96
10.165473724267603
% es.EX (V/m) @ t=0.96
-5.647914461571909
% es.EY (V/m) @ t=0.96
-0.6100457651906832
% es.EZ (V/m) @ t=0.96
7.563259936270711
% es.tEX (V/m) @ t=0.96
-5.647914461571915
% es.tEY (V/m) @ t=0.96
0
% es.tEZ (V/m) @ t=0.96
7.563259936270704
% es.Ex (V/m) @ t=0.96
-5.647914461571909
% es.Ey (V/m) @ t=0.96
-0.6100457651906832
% es.Ez (V/m) @ t=0.96
7.563259936270711
% es.tEx (V/m) @ t=0.96
-5.647914461571915
% es.tEy (V/m) @ t=0.96
0
% es.tEz (V/m) @ t=0.96
7.563259936270704
% V (V) @ t=0.96
0.008349420984835982
% es.normE (V/m) @ t=0.98
10.257416921327518
% es.EX (V/m) @ t=0.98
-5.699023132904085
% es.EY (V/m) @ t=0.98
-0.6155428342823774
% es.EZ (V/m) @ t=0.98
7.631657697032827
% es.tEX (V/m) @ t=0.98
-5.699023132904098
% es.tEY (V/m) @ t=0.98
0
% es.tEZ (V/m) @ t=0.98
7.631657697032807
% es.Ex (V/m) @ t=0.98
-5.699023132904085
% es.Ey (V/m) @ t=0.98
-0.6155428342823774
% es.Ez (V/m) @ t=0.98
7.631657697032827
% es.tEx (V/m) @ t=0.98
-5.699023132904098
% es.tEy (V/m) @ t=0.98
0
% es.tEz (V/m) @ t=0.98
7.631657697032807
% V (V) @ t=0.98
0.008424888116280123
% es.normE (V/m) @ t=1
10.349360118514937
% es.EX (V/m) @ t=1
-5.750131804236264
% es.EY (V/m) @ t=1
-0.6210399033740575
% es.EZ (V/m) @ t=1
7.700055457794947
% es.tEX (V/m) @ t=1
-5.75013180423628
% es.tEY (V/m) @ t=1
0
% es.tEZ (V/m) @ t=1
7.700055457794937
% es.Ex (V/m) @ t=1
-5.750131804236264
% es.Ey (V/m) @ t=1
-0.6210399033740575
% es.Ez (V/m) @ t=1
7.700055457794947
% es.tEx (V/m) @ t=1
-5.75013180423628
% es.tEy (V/m) @ t=1
0
% es.tEz (V/m) @ t=1
7.700055457794937
% V (V) @ t=1
0.008500355247724266
% es.normE (V/m) @ t=1.02
10.44130331582648
% es.EX (V/m) @ t=1.02
-5.801240475568448
% es.EY (V/m) @ t=1.02
-0.6265369724657335
% es.EZ (V/m) @ t=1.02
7.76845321855703
% es.tEX (V/m) @ t=1.02
-5.801240475568464
% es.tEY (V/m) @ t=1.02
0
% es.tEZ (V/m) @ t=1.02
7.768453218557026
% es.Ex (V/m) @ t=1.02
-5.801240475568448
% es.Ey (V/m) @ t=1.02
-0.6265369724657335
% es.Ez (V/m) @ t=1.02
7.76845321855703
% es.tEx (V/m) @ t=1.02
-5.801240475568464
% es.tEy (V/m) @ t=1.02
0
% es.tEz (V/m) @ t=1.02
7.768453218557026
% V (V) @ t=1.02
0.008575822379168405
% es.normE (V/m) @ t=1.04
10.533246513258923
% es.EX (V/m) @ t=1.04
-5.85234914690063
% es.EY (V/m) @ t=1.04
-0.6320340415574237
% es.EZ (V/m) @ t=1.04
7.8368509793191325
% es.tEX (V/m) @ t=1.04
-5.8523491469006395
% es.tEY (V/m) @ t=1.04
0
% es.tEZ (V/m) @ t=1.04
7.836850979319127
% es.Ex (V/m) @ t=1.04
-5.85234914690063
% es.Ey (V/m) @ t=1.04
-0.6320340415574237
% es.Ez (V/m) @ t=1.04
7.8368509793191325
% es.tEx (V/m) @ t=1.04
-5.8523491469006395
% es.tEy (V/m) @ t=1.04
0
% es.tEz (V/m) @ t=1.04
7.836850979319127
% V (V) @ t=1.04