% Model:              1 neuron.mph
% Version:            COMSOL 6.1.0.252
% Date:               Mar 18 2023, 11:53
% Dimension:          0
% Nodes:              14017
% Expressions:        14017
% Description:        Electric field norm, Electric field, X component, Electric field, Y component, Electric field, Z component, Tangential electric field, X component, Tangential electric field, Y component, Tangential electric field, Z component, Electric field, x component, Electric field, y component, Electric field, z component, Tangential electric field, x component, Tangential electric field, y component, Tangential electric field, z component, Electric potential
% Length unit:        mm
% x
2
% y
12.2
% z
1.6599999999999997
% es.normE (V/m) @ t=0
1.2547529737281016
% es.EX (V/m) @ t=0
-1.2124227451481895
% es.EY (V/m) @ t=0
0.09340097469097214
% es.EZ (V/m) @ t=0
-0.3090156280778491
% es.tEX (V/m) @ t=0
-1.2124227451481868
% es.tEY (V/m) @ t=0
0
% es.tEZ (V/m) @ t=0
-0.3090156280778569
% es.Ex (V/m) @ t=0
-1.2124227451481895
% es.Ey (V/m) @ t=0
0.09340097469097214
% es.Ez (V/m) @ t=0
-0.3090156280778491
% es.tEx (V/m) @ t=0
-1.2124227451481868
% es.tEy (V/m) @ t=0
0
% es.tEz (V/m) @ t=0
-0.3090156280778569
% V (V) @ t=0
0.00727155057435782
% es.normE (V/m) @ t=0.02
1.0837444814295847
% es.EX (V/m) @ t=0.02
-1.0471833787724263
% es.EY (V/m) @ t=0.02
0.08067149102533172
% es.EZ (V/m) @ t=0.02
-0.26690033057384466
% es.tEX (V/m) @ t=0.02
-1.047183378772429
% es.tEY (V/m) @ t=0.02
0
% es.tEZ (V/m) @ t=0.02
-0.26690033057384266
% es.Ex (V/m) @ t=0.02
-1.0471833787724263
% es.Ey (V/m) @ t=0.02
0.08067149102533172
% es.Ez (V/m) @ t=0.02
-0.26690033057384466
% es.tEx (V/m) @ t=0.02
-1.047183378772429
% es.tEy (V/m) @ t=0.02
0
% es.tEz (V/m) @ t=0.02
-0.26690033057384266
% V (V) @ t=0.02
0.006280521271290935
% es.normE (V/m) @ t=0.04
1.093713844083998
% es.EX (V/m) @ t=0.04
-1.0568164146978694
% es.EY (V/m) @ t=0.04
0.08141359232439538
% es.EZ (V/m) @ t=0.04
-0.2693555495341444
% es.tEX (V/m) @ t=0.04
-1.0568164146978702
% es.tEY (V/m) @ t=0.04
0
% es.tEZ (V/m) @ t=0.04
-0.26935554953414176
% es.Ex (V/m) @ t=0.04
-1.0568164146978694
% es.Ey (V/m) @ t=0.04
0.08141359232439538
% es.Ez (V/m) @ t=0.04
-0.2693555495341444
% es.tEx (V/m) @ t=0.04
-1.0568164146978702
% es.tEy (V/m) @ t=0.04
0
% es.tEz (V/m) @ t=0.04
-0.26935554953414176
% V (V) @ t=0.04
0.006338295648470573
% es.normE (V/m) @ t=0.06
1.1037737919849735
% es.EX (V/m) @ t=0.06
-1.066536981534552
% es.EY (V/m) @ t=0.06
0.08216243066411816
% es.EZ (V/m) @ t=0.06
-0.27183307283132563
% es.tEX (V/m) @ t=0.06
-1.0665369815345525
% es.tEY (V/m) @ t=0.06
0
% es.tEZ (V/m) @ t=0.06
-0.27183307283132585
% es.Ex (V/m) @ t=0.06
-1.066536981534552
% es.Ey (V/m) @ t=0.06
0.08216243066411816
% es.Ez (V/m) @ t=0.06
-0.27183307283132563
% es.tEx (V/m) @ t=0.06
-1.0665369815345525
% es.tEy (V/m) @ t=0.06
0
% es.tEz (V/m) @ t=0.06
-0.27183307283132585
% V (V) @ t=0.06
0.0063965951461438355
% es.normE (V/m) @ t=0.08
1.1139856269129984
% es.EX (V/m) @ t=0.08
-1.0764043116628574
% es.EY (V/m) @ t=0.08
0.08292257402120368
% es.EZ (V/m) @ t=0.08
-0.2743480013846773
% es.tEX (V/m) @ t=0.08
-1.0764043116628734
% es.tEY (V/m) @ t=0.08
0
% es.tEZ (V/m) @ t=0.08
-0.27434800138467885
% es.Ex (V/m) @ t=0.08
-1.0764043116628574
% es.Ey (V/m) @ t=0.08
0.08292257402120368
% es.Ez (V/m) @ t=0.08
-0.2743480013846773
% es.tEx (V/m) @ t=0.08
-1.0764043116628734
% es.tEy (V/m) @ t=0.08
0
% es.tEz (V/m) @ t=0.08
-0.27434800138467885
% V (V) @ t=0.08
0.0064557748907336
% es.normE (V/m) @ t=0.1
1.1243064730996135
% es.EX (V/m) @ t=0.1
-1.0863769756794208
% es.EY (V/m) @ t=0.1
0.08369083113358661
% es.EZ (V/m) @ t=0.1
-0.27688977616796384
% es.tEX (V/m) @ t=0.1
-1.0863769756794177
% es.tEY (V/m) @ t=0.1
0
% es.tEZ (V/m) @ t=0.1
-0.2768897761679625
% es.Ex (V/m) @ t=0.1
-1.0863769756794208
% es.Ey (V/m) @ t=0.1
0.08369083113358661
% es.Ez (V/m) @ t=0.1
-0.27688977616796384
% es.tEx (V/m) @ t=0.1
-1.0863769756794177
% es.tEy (V/m) @ t=0.1
0
% es.tEz (V/m) @ t=0.1
-0.2768897761679625
% V (V) @ t=0.1
0.006515586399774087
% es.normE (V/m) @ t=0.12
1.1346273192861958
% es.EX (V/m) @ t=0.12
-1.0963496396959513
% es.EY (V/m) @ t=0.12
0.08445908824595755
% es.EZ (V/m) @ t=0.12
-0.27943155095124905
% es.tEX (V/m) @ t=0.12
-1.0963496396959407
% es.tEY (V/m) @ t=0.12
0
% es.tEZ (V/m) @ t=0.12
-0.27943155095124794
% es.Ex (V/m) @ t=0.12
-1.0963496396959513
% es.Ey (V/m) @ t=0.12
0.08445908824595755
% es.Ez (V/m) @ t=0.12
-0.27943155095124905
% es.tEx (V/m) @ t=0.12
-1.0963496396959407
% es.tEy (V/m) @ t=0.12
0
% es.tEz (V/m) @ t=0.12
-0.27943155095124794
% V (V) @ t=0.12
0.006575397908814577
% es.normE (V/m) @ t=0.14
1.1450444111067986
% es.EX (V/m) @ t=0.14
-1.106415302100412
% es.EY (V/m) @ t=0.14
0.08523451079170719
% es.EZ (V/m) @ t=0.14
-0.2819970296154082
% es.tEX (V/m) @ t=0.14
-1.1064153021004213
% es.tEY (V/m) @ t=0.14
0
% es.tEZ (V/m) @ t=0.14
-0.28199702961540396
% es.Ex (V/m) @ t=0.14
-1.106415302100412
% es.Ey (V/m) @ t=0.14
0.08523451079170719
% es.Ez (V/m) @ t=0.14
-0.2819970296154082
% es.tEx (V/m) @ t=0.14
-1.1064153021004213
% es.tEy (V/m) @ t=0.14
0
% es.tEz (V/m) @ t=0.14
-0.28199702961540396
% V (V) @ t=0.14
0.006635767150442959
% es.normE (V/m) @ t=0.16
1.1559173683993085
% es.EX (V/m) @ t=0.16
-1.1169214494622532
% es.EY (V/m) @ t=0.16
0.08604387226571408
% es.EZ (V/m) @ t=0.16
-0.2846747812252819
% es.tEX (V/m) @ t=0.16
-1.1169214494622572
% es.tEY (V/m) @ t=0.16
0
% es.tEZ (V/m) @ t=0.16
-0.28467478122527723
% es.Ex (V/m) @ t=0.16
-1.1169214494622532
% es.Ey (V/m) @ t=0.16
0.08604387226571408
% es.Ez (V/m) @ t=0.16
-0.2846747812252819
% es.tEx (V/m) @ t=0.16
-1.1169214494622572
% es.tEy (V/m) @ t=0.16
0
% es.tEz (V/m) @ t=0.16
-0.28467478122527723
% V (V) @ t=0.16
0.006698778081036909
% es.normE (V/m) @ t=0.18
1.1667903256917984
% es.EX (V/m) @ t=0.18
-1.127427596824072
% es.EY (V/m) @ t=0.18
0.08685323373971926
% es.EZ (V/m) @ t=0.18
-0.28735253283516404
% es.tEX (V/m) @ t=0.18
-1.1274275968240648
% es.tEY (V/m) @ t=0.18
0
% es.tEZ (V/m) @ t=0.18
-0.2873525328351558
% es.Ex (V/m) @ t=0.18
-1.127427596824072
% es.Ey (V/m) @ t=0.18
0.08685323373971926
% es.Ez (V/m) @ t=0.18
-0.28735253283516404
% es.tEx (V/m) @ t=0.18
-1.1274275968240648
% es.tEy (V/m) @ t=0.18
0
% es.tEz (V/m) @ t=0.18
-0.2873525328351558
% V (V) @ t=0.18
0.006761789011630861
% es.normE (V/m) @ t=0.2
1.17766328298429
% es.EX (V/m) @ t=0.2
-1.1379337441858963
% es.EY (V/m) @ t=0.2
0.08766259521370656
% es.EZ (V/m) @ t=0.2
-0.2900302844450362
% es.tEX (V/m) @ t=0.2
-1.1379337441859008
% es.tEY (V/m) @ t=0.2
0
% es.tEZ (V/m) @ t=0.2
-0.29003028444502554
% es.Ex (V/m) @ t=0.2
-1.1379337441858963
% es.Ey (V/m) @ t=0.2
0.08766259521370656
% es.Ez (V/m) @ t=0.2
-0.2900302844450362
% es.tEx (V/m) @ t=0.2
-1.1379337441859008
% es.tEy (V/m) @ t=0.2
0
% es.tEz (V/m) @ t=0.2
-0.29003028444502554
% V (V) @ t=0.2
0.0068247999422248115
% es.normE (V/m) @ t=0.22
1.1885362402767892
% es.EX (V/m) @ t=0.22
-1.148439891547727
% es.EY (V/m) @ t=0.22
0.08847195668770286
% es.EZ (V/m) @ t=0.22
-0.29270803605491125
% es.tEX (V/m) @ t=0.22
-1.1484398915477225
% es.tEY (V/m) @ t=0.22
0
% es.tEZ (V/m) @ t=0.22
-0.29270803605490947
% es.Ex (V/m) @ t=0.22
-1.148439891547727
% es.Ey (V/m) @ t=0.22
0.08847195668770286
% es.Ez (V/m) @ t=0.22
-0.29270803605491125
% es.tEx (V/m) @ t=0.22
-1.1484398915477225
% es.tEy (V/m) @ t=0.22
0
% es.tEz (V/m) @ t=0.22
-0.29270803605490947
% V (V) @ t=0.22
0.006887810872818761
% es.normE (V/m) @ t=0.24
1.199409197569278
% es.EX (V/m) @ t=0.24
-1.1589460389095434
% es.EY (V/m) @ t=0.24
0.08928131816172219
% es.EZ (V/m) @ t=0.24
-0.29538578766479207
% es.tEX (V/m) @ t=0.24
-1.1589460389095514
% es.tEY (V/m) @ t=0.24
0
% es.tEZ (V/m) @ t=0.24
-0.2953857876647916
% es.Ex (V/m) @ t=0.24
-1.1589460389095434
% es.Ey (V/m) @ t=0.24
0.08928131816172219
% es.Ez (V/m) @ t=0.24
-0.29538578766479207
% es.tEx (V/m) @ t=0.24
-1.1589460389095514
% es.tEy (V/m) @ t=0.24
0
% es.tEz (V/m) @ t=0.24
-0.2953857876647916
% V (V) @ t=0.24
0.0069508218034127125
% es.normE (V/m) @ t=0.26
1.2102821548617793
% es.EX (V/m) @ t=0.26
-1.1694521862713794
% es.EY (V/m) @ t=0.26
0.09009067963571937
% es.EZ (V/m) @ t=0.26
-0.2980635392746549
% es.tEX (V/m) @ t=0.26
-1.1694521862713856
% es.tEY (V/m) @ t=0.26
0
% es.tEZ (V/m) @ t=0.26
-0.29806353927465423
% es.Ex (V/m) @ t=0.26
-1.1694521862713794
% es.Ey (V/m) @ t=0.26
0.09009067963571937
% es.Ez (V/m) @ t=0.26
-0.2980635392746549
% es.tEx (V/m) @ t=0.26
-1.1694521862713856
% es.tEy (V/m) @ t=0.26
0
% es.tEz (V/m) @ t=0.26
-0.29806353927465423
% V (V) @ t=0.26
0.007013832734006664
% es.normE (V/m) @ t=0.28
1.2216006882415902
% es.EX (V/m) @ t=0.28
-1.1803889308128905
% es.EY (V/m) @ t=0.28
0.09093301840681067
% es.EZ (V/m) @ t=0.28
-0.3008508753902466
% es.tEX (V/m) @ t=0.28
-1.1803889308128905
% es.tEY (V/m) @ t=0.28
0
% es.tEZ (V/m) @ t=0.28
-0.3008508753902479
% es.Ex (V/m) @ t=0.28
-1.1803889308128905
% es.Ey (V/m) @ t=0.28
0.09093301840681067
% es.Ez (V/m) @ t=0.28
-0.3008508753902466
% es.tEx (V/m) @ t=0.28
-1.1803889308128905
% es.tEy (V/m) @ t=0.28
0
% es.tEz (V/m) @ t=0.28
-0.3008508753902479
% V (V) @ t=0.28
0.007079431033555815
% es.normE (V/m) @ t=0.3
1.2337160856989955
% es.EX (V/m) @ t=0.3
-1.1920957512944224
% es.EY (V/m) @ t=0.3
0.09183433346539577
% es.EZ (V/m) @ t=0.3
-0.30383419140361223
% es.tEX (V/m) @ t=0.3
-1.1920957512944348
% es.tEY (V/m) @ t=0.3
0
% es.tEZ (V/m) @ t=0.3
-0.30383419140360424
% es.Ex (V/m) @ t=0.3
-1.1920957512944224
% es.Ey (V/m) @ t=0.3
0.09183433346539577
% es.Ez (V/m) @ t=0.3
-0.30383419140361223
% es.tEx (V/m) @ t=0.3
-1.1920957512944348
% es.tEy (V/m) @ t=0.3
0
% es.tEz (V/m) @ t=0.3
-0.30383419140360424
% V (V) @ t=0.3
0.007149656559372193
% es.normE (V/m) @ t=0.32
1.24583148315679
% es.EX (V/m) @ t=0.32
-1.2038025717759755
% es.EY (V/m) @ t=0.32
0.09273564852397737
% es.EZ (V/m) @ t=0.32
-0.3068175074169581
% es.tEX (V/m) @ t=0.32
-1.2038025717759862
% es.tEY (V/m) @ t=0.32
0
% es.tEZ (V/m) @ t=0.32
-0.3068175074169499
% es.Ex (V/m) @ t=0.32
-1.2038025717759755
% es.Ey (V/m) @ t=0.32
0.09273564852397737
% es.Ez (V/m) @ t=0.32
-0.3068175074169581
% es.tEx (V/m) @ t=0.32
-1.2038025717759862
% es.tEy (V/m) @ t=0.32
0
% es.tEz (V/m) @ t=0.32
-0.3068175074169499
% V (V) @ t=0.32
0.007219882085188574
% es.normE (V/m) @ t=0.34
1.2579468806149507
% es.EX (V/m) @ t=0.34
-1.215509392257526
% es.EY (V/m) @ t=0.34
0.09363696358255796
% es.EZ (V/m) @ t=0.34
-0.3098008234303249
% es.tEX (V/m) @ t=0.34
-1.2155093922575286
% es.tEY (V/m) @ t=0.34
0
% es.tEZ (V/m) @ t=0.34
-0.30980082343032045
% es.Ex (V/m) @ t=0.34
-1.215509392257526
% es.Ey (V/m) @ t=0.34
0.09363696358255796
% es.Ez (V/m) @ t=0.34
-0.3098008234303249
% es.tEx (V/m) @ t=0.34
-1.2155093922575286
% es.tEy (V/m) @ t=0.34
0
% es.tEz (V/m) @ t=0.34
-0.30980082343032045
% V (V) @ t=0.34
0.007290107611004954
% es.normE (V/m) @ t=0.36
1.2700622780734432
% es.EX (V/m) @ t=0.36
-1.227216212739057
% es.EY (V/m) @ t=0.36
0.09453827864115999
% es.EZ (V/m) @ t=0.36
-0.3127841394436781
% es.tEX (V/m) @ t=0.36
-1.2272162127390587
% es.tEY (V/m) @ t=0.36
0
% es.tEZ (V/m) @ t=0.36
-0.31278413944368033
% es.Ex (V/m) @ t=0.36
-1.227216212739057
% es.Ey (V/m) @ t=0.36
0.09453827864115999
% es.Ez (V/m) @ t=0.36
-0.3127841394436781
% es.tEx (V/m) @ t=0.36
-1.2272162127390587
% es.tEy (V/m) @ t=0.36
0
% es.tEz (V/m) @ t=0.36
-0.31278413944368033
% V (V) @ t=0.36
0.007360333136821331
% es.normE (V/m) @ t=0.38
1.2821776755323038
% es.EX (V/m) @ t=0.38
-1.2389230332206145
% es.EY (V/m) @ t=0.38
0.09543959369972554
% es.EZ (V/m) @ t=0.38
-0.3157674554570411
% es.tEX (V/m) @ t=0.38
-1.2389230332206171
% es.tEY (V/m) @ t=0.38
0
% es.tEZ (V/m) @ t=0.38
-0.315767455457042
% es.Ex (V/m) @ t=0.38
-1.2389230332206145
% es.Ey (V/m) @ t=0.38
0.09543959369972554
% es.Ez (V/m) @ t=0.38
-0.3157674554570411
% es.tEx (V/m) @ t=0.38
-1.2389230332206171
% es.tEy (V/m) @ t=0.38
0
% es.tEz (V/m) @ t=0.38
-0.315767455457042
% V (V) @ t=0.38
0.0074305586626377115
% es.normE (V/m) @ t=0.4
1.2942930729914734
% es.EX (V/m) @ t=0.4
-1.2506298537021445
% es.EY (V/m) @ t=0.4
0.09634090875831419
% es.EZ (V/m) @ t=0.4
-0.31875077147040654
% es.tEX (V/m) @ t=0.4
-1.2506298537021525
% es.tEY (V/m) @ t=0.4
0
% es.tEZ (V/m) @ t=0.4
-0.3187507714704001
% es.Ex (V/m) @ t=0.4
-1.2506298537021445
% es.Ey (V/m) @ t=0.4
0.09634090875831419
% es.Ez (V/m) @ t=0.4
-0.31875077147040654
% es.tEx (V/m) @ t=0.4
-1.2506298537021525
% es.tEy (V/m) @ t=0.4
0
% es.tEz (V/m) @ t=0.4
-0.3187507714704001
% V (V) @ t=0.4
0.007500784188454092
% es.normE (V/m) @ t=0.42
1.3064084704509784
% es.EX (V/m) @ t=0.42
-1.262336674183687
% es.EY (V/m) @ t=0.42
0.09724222381692155
% es.EZ (V/m) @ t=0.42
-0.32173408748376486
% es.tEX (V/m) @ t=0.42
-1.2623366741836897
% es.tEY (V/m) @ t=0.42
0
% es.tEZ (V/m) @ t=0.42
-0.3217340874837653
% es.Ex (V/m) @ t=0.42
-1.262336674183687
% es.Ey (V/m) @ t=0.42
0.09724222381692155
% es.Ez (V/m) @ t=0.42
-0.32173408748376486
% es.tEx (V/m) @ t=0.42
-1.2623366741836897
% es.tEy (V/m) @ t=0.42
0
% es.tEz (V/m) @ t=0.42
-0.3217340874837653
% V (V) @ t=0.42
0.007571009714270471
% es.normE (V/m) @ t=0.44
1.3185238679108238
% es.EX (V/m) @ t=0.44
-1.2740434946652597
% es.EY (V/m) @ t=0.44
0.09814353887550126
% es.EZ (V/m) @ t=0.44
-0.32471740349711564
% es.tEX (V/m) @ t=0.44
-1.2740434946652623
% es.tEY (V/m) @ t=0.44
0
% es.tEZ (V/m) @ t=0.44
-0.3247174034971181
% es.Ex (V/m) @ t=0.44
-1.2740434946652597
% es.Ey (V/m) @ t=0.44
0.09814353887550126
% es.Ez (V/m) @ t=0.44
-0.32471740349711564
% es.tEx (V/m) @ t=0.44
-1.2740434946652623
% es.tEy (V/m) @ t=0.44
0
% es.tEz (V/m) @ t=0.44
-0.3247174034971181
% V (V) @ t=0.44
0.007641235240086849
% es.normE (V/m) @ t=0.46
1.330639265370937
% es.EX (V/m) @ t=0.46
-1.2857503151467906
% es.EY (V/m) @ t=0.46
0.09904485393408907
% es.EZ (V/m) @ t=0.46
-0.3277007195104731
% es.tEX (V/m) @ t=0.46
-1.2857503151467995
% es.tEY (V/m) @ t=0.46
0
% es.tEZ (V/m) @ t=0.46
-0.32770071951047086
% es.Ex (V/m) @ t=0.46
-1.2857503151467906
% es.Ey (V/m) @ t=0.46
0.09904485393408907
% es.Ez (V/m) @ t=0.46
-0.3277007195104731
% es.tEx (V/m) @ t=0.46
-1.2857503151467995
% es.tEy (V/m) @ t=0.46
0
% es.tEz (V/m) @ t=0.46
-0.32770071951047086
% V (V) @ t=0.46
0.007711460765903231
% es.normE (V/m) @ t=0.48
1.3427546628313574
% es.EX (V/m) @ t=0.48
-1.2974571356283295
% es.EY (V/m) @ t=0.48
0.09994616899266257
% es.EZ (V/m) @ t=0.48
-0.33068403552383896
% es.tEX (V/m) @ t=0.48
-1.2974571356283349
% es.tEY (V/m) @ t=0.48
0
% es.tEZ (V/m) @ t=0.48
-0.3306840355238325
% es.Ex (V/m) @ t=0.48
-1.2974571356283295
% es.Ey (V/m) @ t=0.48
0.09994616899266257
% es.Ez (V/m) @ t=0.48
-0.33068403552383896
% es.tEx (V/m) @ t=0.48
-1.2974571356283349
% es.tEy (V/m) @ t=0.48
0
% es.tEz (V/m) @ t=0.48
-0.3306840355238325
% V (V) @ t=0.48
0.00778168629171961
% es.normE (V/m) @ t=0.5
1.354870060292078
% es.EX (V/m) @ t=0.5
-1.30916395610988
% es.EY (V/m) @ t=0.5
0.10084748405126104
% es.EZ (V/m) @ t=0.5
-0.33366735153719396
% es.tEX (V/m) @ t=0.5
-1.309163956109881
% es.tEY (V/m) @ t=0.5
0
% es.tEZ (V/m) @ t=0.5
-0.3336673515371942
% es.Ex (V/m) @ t=0.5
-1.30916395610988
% es.Ey (V/m) @ t=0.5
0.10084748405126104
% es.Ez (V/m) @ t=0.5
-0.33366735153719396
% es.tEx (V/m) @ t=0.5
-1.309163956109881
% es.tEy (V/m) @ t=0.5
0
% es.tEz (V/m) @ t=0.5
-0.3336673515371942
% V (V) @ t=0.5
0.00785191181753599
% es.normE (V/m) @ t=0.52
1.3669854577530758
% es.EX (V/m) @ t=0.52
-1.3208707765914287
% es.EY (V/m) @ t=0.52
0.10174879910983198
% es.EZ (V/m) @ t=0.52
-0.3366506675505443
% es.tEX (V/m) @ t=0.52
-1.3208707765914305
% es.tEY (V/m) @ t=0.52
0
% es.tEZ (V/m) @ t=0.52
-0.3366506675505434
% es.Ex (V/m) @ t=0.52
-1.3208707765914287
% es.Ey (V/m) @ t=0.52
0.10174879910983198
% es.Ez (V/m) @ t=0.52
-0.3366506675505443
% es.tEx (V/m) @ t=0.52
-1.3208707765914305
% es.tEy (V/m) @ t=0.52
0
% es.tEz (V/m) @ t=0.52
-0.3366506675505434
% V (V) @ t=0.52
0.00792213734335237
% es.normE (V/m) @ t=0.54
1.3791008552143458
% es.EX (V/m) @ t=0.54
-1.332577597072973
% es.EY (V/m) @ t=0.54
0.10265011416840203
% es.EZ (V/m) @ t=0.54
-0.33963398356390173
% es.tEX (V/m) @ t=0.54
-1.332577597072973
% es.tEY (V/m) @ t=0.54
0
% es.tEZ (V/m) @ t=0.54
-0.3396339835639033
% es.Ex (V/m) @ t=0.54
-1.332577597072973
% es.Ey (V/m) @ t=0.54
0.10265011416840203
% es.Ez (V/m) @ t=0.54
-0.33963398356390173
% es.tEx (V/m) @ t=0.54
-1.332577597072973
% es.tEy (V/m) @ t=0.54
0
% es.tEz (V/m) @ t=0.54
-0.3396339835639033
% V (V) @ t=0.54
0.007992362869168749
% es.normE (V/m) @ t=0.56
1.3922406995326706
% es.EX (V/m) @ t=0.56
-1.3452743828327565
% es.EY (V/m) @ t=0.56
0.10362740404421295
% es.EZ (V/m) @ t=0.56
-0.34286937191333355
% es.tEX (V/m) @ t=0.56
-1.3452743828327538
% es.tEY (V/m) @ t=0.56
0
% es.tEZ (V/m) @ t=0.56
-0.34286937191333244
% es.Ex (V/m) @ t=0.56
-1.3452743828327565
% es.Ey (V/m) @ t=0.56
0.10362740404421295
% es.Ez (V/m) @ t=0.56
-0.34286937191333355
% es.tEx (V/m) @ t=0.56
-1.3452743828327538
% es.tEy (V/m) @ t=0.56
0
% es.tEz (V/m) @ t=0.56
-0.34286937191333244
% V (V) @ t=0.56
0.008068532988083004
% es.normE (V/m) @ t=0.58
1.4057647679237386
% es.EX (V/m) @ t=0.58
-1.3583424601708147
% es.EY (V/m) @ t=0.58
0.10463318866664584
% es.EZ (V/m) @ t=0.58
-0.3461993012911617
% es.tEX (V/m) @ t=0.58
-1.3583424601707996
% es.tEY (V/m) @ t=0.58
0
% es.tEZ (V/m) @ t=0.58
-0.34619930129116305
% es.Ex (V/m) @ t=0.58
-1.3583424601708147
% es.Ey (V/m) @ t=0.58
0.10463318866664584
% es.Ez (V/m) @ t=0.58
-0.3461993012911617
% es.tEx (V/m) @ t=0.58
-1.3583424601707996
% es.tEy (V/m) @ t=0.58
0
% es.tEz (V/m) @ t=0.58
-0.34619930129116305
% V (V) @ t=0.58
0.008146932657267304
% es.normE (V/m) @ t=0.6
1.4192888363156344
% es.EX (V/m) @ t=0.6
-1.3714105375088597
% es.EY (V/m) @ t=0.6
0.10563897328910077
% es.EZ (V/m) @ t=0.6
-0.349529230668985
% es.tEX (V/m) @ t=0.6
-1.3714105375088579
% es.tEY (V/m) @ t=0.6
0
% es.tEZ (V/m) @ t=0.6
-0.34952923066898656
% es.Ex (V/m) @ t=0.6
-1.3714105375088597
% es.Ey (V/m) @ t=0.6
0.10563897328910077
% es.Ez (V/m) @ t=0.6
-0.349529230668985
% es.tEx (V/m) @ t=0.6
-1.3714105375088579
% es.tEy (V/m) @ t=0.6
0
% es.tEz (V/m) @ t=0.6
-0.34952923066898656
% V (V) @ t=0.6
0.008225332326451605
% es.normE (V/m) @ t=0.62
1.4328129047083418
% es.EX (V/m) @ t=0.62
-1.3844786148469002
% es.EY (V/m) @ t=0.62
0.1066447579115336
% es.EZ (V/m) @ t=0.62
-0.35285916004681606
% es.tEX (V/m) @ t=0.62
-1.3844786148469037
% es.tEY (V/m) @ t=0.62
0
% es.tEZ (V/m) @ t=0.62
-0.35285916004681894
% es.Ex (V/m) @ t=0.62
-1.3844786148469002
% es.Ey (V/m) @ t=0.62
0.1066447579115336
% es.Ez (V/m) @ t=0.62
-0.35285916004681606
% es.tEx (V/m) @ t=0.62
-1.3844786148469037
% es.tEy (V/m) @ t=0.62
0
% es.tEz (V/m) @ t=0.62
-0.35285916004681894
% V (V) @ t=0.62
0.008303731995635905
% es.normE (V/m) @ t=0.64
1.44633697310186
% es.EX (V/m) @ t=0.64
-1.397546692184961
% es.EY (V/m) @ t=0.64
0.10765054253394873
% es.EZ (V/m) @ t=0.64
-0.35618908942464667
% es.tEX (V/m) @ t=0.64
-1.397546692184969
% es.tEY (V/m) @ t=0.64
0
% es.tEZ (V/m) @ t=0.64
-0.356189089424646
% es.Ex (V/m) @ t=0.64
-1.397546692184961
% es.Ey (V/m) @ t=0.64
0.10765054253394873
% es.Ez (V/m) @ t=0.64
-0.35618908942464667
% es.tEx (V/m) @ t=0.64
-1.397546692184969
% es.tEy (V/m) @ t=0.64
0
% es.tEz (V/m) @ t=0.64
-0.356189089424646
% V (V) @ t=0.64
0.008382131664820205
% es.normE (V/m) @ t=0.66
1.4598610414961266
% es.EX (V/m) @ t=0.66
-1.410614769522991
% es.EY (V/m) @ t=0.66
0.10865632715640289
% es.EZ (V/m) @ t=0.66
-0.3595190188024928
% es.tEX (V/m) @ t=0.66
-1.4106147695229936
% es.tEY (V/m) @ t=0.66
0
% es.tEZ (V/m) @ t=0.66
-0.3595190188024908
% es.Ex (V/m) @ t=0.66
-1.410614769522991
% es.Ey (V/m) @ t=0.66
0.10865632715640289
% es.Ez (V/m) @ t=0.66
-0.3595190188024928
% es.tEx (V/m) @ t=0.66
-1.4106147695229936
% es.tEy (V/m) @ t=0.66
0
% es.tEz (V/m) @ t=0.66
-0.3595190188024908
% V (V) @ t=0.66
0.008460531334004507
% es.normE (V/m) @ t=0.68
1.4733851098911535
% es.EX (V/m) @ t=0.68
-1.423682846861042
% es.EY (V/m) @ t=0.68
0.10966211177883389
% es.EZ (V/m) @ t=0.68
-0.362848948180307
% es.tEX (V/m) @ t=0.68
-1.4236828468610447
% es.tEY (V/m) @ t=0.68
0
% es.tEZ (V/m) @ t=0.68
-0.3628489481803143
% es.Ex (V/m) @ t=0.68
-1.423682846861042
% es.Ey (V/m) @ t=0.68
0.10966211177883389
% es.Ez (V/m) @ t=0.68
-0.362848948180307
% es.tEx (V/m) @ t=0.68
-1.4236828468610447
% es.tEy (V/m) @ t=0.68
0
% es.tEz (V/m) @ t=0.68
-0.3628489481803143
% V (V) @ t=0.68
0.008538931003188806
% es.normE (V/m) @ t=0.7
1.4869091782869224
% es.EX (V/m) @ t=0.7
-1.4367509241991012
% es.EY (V/m) @ t=0.7
0.11066789640127295
% es.EZ (V/m) @ t=0.7
-0.3661788775581387
% es.tEX (V/m) @ t=0.7
-1.4367509241990906
% es.tEY (V/m) @ t=0.7
0
% es.tEZ (V/m) @ t=0.7
-0.3661788775581307
% es.Ex (V/m) @ t=0.7
-1.4367509241991012
% es.Ey (V/m) @ t=0.7
0.11066789640127295
% es.Ez (V/m) @ t=0.7
-0.3661788775581387
% es.tEx (V/m) @ t=0.7
-1.4367509241990906
% es.tEy (V/m) @ t=0.7
0
% es.tEz (V/m) @ t=0.7
-0.3661788775581307
% V (V) @ t=0.7
0.008617330672373106
% es.normE (V/m) @ t=0.72
1.5004332466833885
% es.EX (V/m) @ t=0.72
-1.4498190015371462
% es.EY (V/m) @ t=0.72
0.11167368102371639
% es.EZ (V/m) @ t=0.72
-0.3695088069359742
% es.tEX (V/m) @ t=0.72
-1.4498190015371417
% es.tEY (V/m) @ t=0.72
0
% es.tEZ (V/m) @ t=0.72
-0.36950880693597377
% es.Ex (V/m) @ t=0.72
-1.4498190015371462
% es.Ey (V/m) @ t=0.72
0.11167368102371639
% es.Ez (V/m) @ t=0.72
-0.3695088069359742
% es.tEx (V/m) @ t=0.72
-1.4498190015371417
% es.tEy (V/m) @ t=0.72
0
% es.tEz (V/m) @ t=0.72
-0.36950880693597377
% V (V) @ t=0.72
0.008695730341557406
% es.normE (V/m) @ t=0.74
1.5139573150805534
% es.EX (V/m) @ t=0.74
-1.4628870788752026
% es.EY (V/m) @ t=0.74
0.11267946564614745
% es.EZ (V/m) @ t=0.74
-0.3728387363138026
% es.tEX (V/m) @ t=0.74
-1.462887078875207
% es.tEY (V/m) @ t=0.74
0
% es.tEZ (V/m) @ t=0.74
-0.37283873631380615
% es.Ex (V/m) @ t=0.74
-1.4628870788752026
% es.Ey (V/m) @ t=0.74
0.11267946564614745
% es.Ez (V/m) @ t=0.74
-0.3728387363138026
% es.tEx (V/m) @ t=0.74
-1.462887078875207
% es.tEy (V/m) @ t=0.74
0
% es.tEz (V/m) @ t=0.74
-0.37283873631380615
% V (V) @ t=0.74
0.008774130010741708
% es.normE (V/m) @ t=0.76
1.5274813834783858
% es.EX (V/m) @ t=0.76
-1.4759551562132565
% es.EY (V/m) @ t=0.76
0.11368525026857679
% es.EZ (V/m) @ t=0.76
-0.37616866569162344
% es.tEX (V/m) @ t=0.76
-1.4759551562132511
% es.tEY (V/m) @ t=0.76
0
% es.tEZ (V/m) @ t=0.76
-0.37616866569162255
% es.Ex (V/m) @ t=0.76
-1.4759551562132565
% es.Ey (V/m) @ t=0.76
0.11368525026857679
% es.Ez (V/m) @ t=0.76
-0.37616866569162344
% es.tEx (V/m) @ t=0.76
-1.4759551562132511
% es.tEy (V/m) @ t=0.76
0
% es.tEz (V/m) @ t=0.76
-0.37616866569162255
% V (V) @ t=0.76
0.008852529679926006
% es.normE (V/m) @ t=0.78
1.5410054518768757
% es.EX (V/m) @ t=0.78
-1.489023233551305
% es.EY (V/m) @ t=0.78
0.11469103489102378
% es.EZ (V/m) @ t=0.78
-0.3794985950694705
% es.tEX (V/m) @ t=0.78
-1.4890232335513112
% es.tEY (V/m) @ t=0.78
0
% es.tEZ (V/m) @ t=0.78
-0.37949859506946737
% es.Ex (V/m) @ t=0.78
-1.489023233551305
% es.Ey (V/m) @ t=0.78
0.11469103489102378
% es.Ez (V/m) @ t=0.78
-0.3794985950694705
% es.tEx (V/m) @ t=0.78
-1.4890232335513112
% es.tEy (V/m) @ t=0.78
0
% es.tEz (V/m) @ t=0.78
-0.37949859506946737
% V (V) @ t=0.78
0.008930929349110307
% es.normE (V/m) @ t=0.8
1.5545295202760137
% es.EX (V/m) @ t=0.8
-1.502091310889373
% es.EY (V/m) @ t=0.8
0.11569681951346994
% es.EZ (V/m) @ t=0.8
-0.38282852444728555
% es.tEX (V/m) @ t=0.8
-1.5020913108893694
% es.tEY (V/m) @ t=0.8
0
% es.tEZ (V/m) @ t=0.8
-0.3828285244472909
% es.Ex (V/m) @ t=0.8
-1.502091310889373
% es.Ey (V/m) @ t=0.8
0.11569681951346994
% es.Ez (V/m) @ t=0.8
-0.38282852444728555
% es.tEx (V/m) @ t=0.8
-1.5020913108893694
% es.tEy (V/m) @ t=0.8
0
% es.tEz (V/m) @ t=0.8
-0.3828285244472909
% V (V) @ t=0.8
0.009009329018294609
% es.normE (V/m) @ t=0.82
1.5682069537215124
% es.EX (V/m) @ t=0.82
-1.515307562130431
% es.EY (V/m) @ t=0.82
0.11671408209238665
% es.EZ (V/m) @ t=0.82
-0.3861962728354307
% es.tEX (V/m) @ t=0.82
-1.51530756213044
% es.tEY (V/m) @ t=0.82
0
% es.tEZ (V/m) @ t=0.82
-0.3861962728354378
% es.Ex (V/m) @ t=0.82
-1.515307562130431
% es.Ey (V/m) @ t=0.82
0.11671408209238665
% es.Ez (V/m) @ t=0.82
-0.3861962728354307
% es.tEx (V/m) @ t=0.82
-1.51530756213044
% es.tEy (V/m) @ t=0.82
0
% es.tEz (V/m) @ t=0.82
-0.3861962728354378
% V (V) @ t=0.82
0.009088615789487308
% es.normE (V/m) @ t=0.84
1.5833309529428816
% es.EX (V/m) @ t=0.84
-1.529921415386183
% es.EY (V/m) @ t=0.84
0.11783960675242738
% es.EZ (V/m) @ t=0.84
-0.38992073670399785
% es.tEX (V/m) @ t=0.84
-1.5299214153861858
% es.tEY (V/m) @ t=0.84
0
% es.tEZ (V/m) @ t=0.84
-0.3899207367039903
% es.Ex (V/m) @ t=0.84
-1.529921415386183
% es.Ey (V/m) @ t=0.84
0.11783960675242738
% es.Ez (V/m) @ t=0.84
-0.38992073670399785
% es.tEx (V/m) @ t=0.84
-1.5299214153861858
% es.tEy (V/m) @ t=0.84
0
% es.tEz (V/m) @ t=0.84
-0.3899207367039903
% V (V) @ t=0.84
0.009176269861053266
% es.normE (V/m) @ t=0.86
1.5984549521642744
% es.EX (V/m) @ t=0.86
-1.5445352686419538
% es.EY (V/m) @ t=0.86
0.11896513141247617
% es.EZ (V/m) @ t=0.86
-0.3936452005725566
% es.tEX (V/m) @ t=0.86
-1.5445352686419582
% es.tEY (V/m) @ t=0.86
0
% es.tEZ (V/m) @ t=0.86
-0.3936452005725517
% es.Ex (V/m) @ t=0.86
-1.5445352686419538
% es.Ey (V/m) @ t=0.86
0.11896513141247617
% es.Ez (V/m) @ t=0.86
-0.3936452005725566
% es.tEx (V/m) @ t=0.86
-1.5445352686419582
% es.tEy (V/m) @ t=0.86
0
% es.tEz (V/m) @ t=0.86
-0.3936452005725517
% V (V) @ t=0.86
0.009263923932619222
% es.normE (V/m) @ t=0.88
1.6135789513856347
% es.EX (V/m) @ t=0.88
-1.5591491218976845
% es.EY (V/m) @ t=0.88
0.12009065607253022
% es.EZ (V/m) @ t=0.88
-0.39736966444110866
% es.tEX (V/m) @ t=0.88
-1.5591491218976916
% es.tEY (V/m) @ t=0.88
0
% es.tEZ (V/m) @ t=0.88
-0.3973696644411131
% es.Ex (V/m) @ t=0.88
-1.5591491218976845
% es.Ey (V/m) @ t=0.88
0.12009065607253022
% es.Ez (V/m) @ t=0.88
-0.39736966444110866
% es.tEx (V/m) @ t=0.88
-1.5591491218976916
% es.tEy (V/m) @ t=0.88
0
% es.tEz (V/m) @ t=0.88
-0.3973696644411131
% V (V) @ t=0.88
0.009351578004185183
% es.normE (V/m) @ t=0.9
1.6287029506070265
% es.EX (V/m) @ t=0.9
-1.5737629751534374
% es.EY (V/m) @ t=0.9
0.121216180732586
% es.EZ (V/m) @ t=0.9
-0.40109412830967717
% es.tEX (V/m) @ t=0.9
-1.5737629751534428
% es.tEY (V/m) @ t=0.9
0
% es.tEZ (V/m) @ t=0.9
-0.4010941283096745
% es.Ex (V/m) @ t=0.9
-1.5737629751534374
% es.Ey (V/m) @ t=0.9
0.121216180732586
% es.Ez (V/m) @ t=0.9
-0.40109412830967717
% es.tEx (V/m) @ t=0.9
-1.5737629751534428
% es.tEy (V/m) @ t=0.9
0
% es.tEz (V/m) @ t=0.9
-0.4010941283096745
% V (V) @ t=0.9
0.00943923207575114
% es.normE (V/m) @ t=0.92
1.643826949828428
% es.EX (V/m) @ t=0.92
-1.5883768284091966
% es.EY (V/m) @ t=0.92
0.122341705392633
% es.EZ (V/m) @ t=0.92
-0.40481859217823324
% es.tEX (V/m) @ t=0.92
-1.5883768284092046
% es.tEY (V/m) @ t=0.92
0
% es.tEZ (V/m) @ t=0.92
-0.40481859217823235
% es.Ex (V/m) @ t=0.92
-1.5883768284091966
% es.Ey (V/m) @ t=0.92
0.122341705392633
% es.Ez (V/m) @ t=0.92
-0.40481859217823324
% es.tEx (V/m) @ t=0.92
-1.5883768284092046
% es.tEy (V/m) @ t=0.92
0
% es.tEz (V/m) @ t=0.92
-0.40481859217823235
% V (V) @ t=0.92
0.009526886147317096
% es.normE (V/m) @ t=0.94
1.6589509490498378
% es.EX (V/m) @ t=0.94
-1.602990681664953
% es.EY (V/m) @ t=0.94
0.12346723005269866
% es.EZ (V/m) @ t=0.94
-0.4085430560468035
% es.tEX (V/m) @ t=0.94
-1.6029906816649575
% es.tEY (V/m) @ t=0.94
0
% es.tEZ (V/m) @ t=0.94
-0.40854305604680263
% es.Ex (V/m) @ t=0.94
-1.602990681664953
% es.Ey (V/m) @ t=0.94
0.12346723005269866
% es.Ez (V/m) @ t=0.94
-0.4085430560468035
% es.tEx (V/m) @ t=0.94
-1.6029906816649575
% es.tEy (V/m) @ t=0.94
0
% es.tEz (V/m) @ t=0.94
-0.40854305604680263
% V (V) @ t=0.94
0.009614540218883054
% es.normE (V/m) @ t=0.96
1.6740749482712403
% es.EX (V/m) @ t=0.96
-1.6176045349207016
% es.EY (V/m) @ t=0.96
0.12459275471273756
% es.EZ (V/m) @ t=0.96
-0.41226751991536004
% es.tEX (V/m) @ t=0.96
-1.6176045349207246
% es.tEY (V/m) @ t=0.96
0
% es.tEZ (V/m) @ t=0.96
-0.41226751991535515
% es.Ex (V/m) @ t=0.96
-1.6176045349207016
% es.Ey (V/m) @ t=0.96
0.12459275471273756
% es.Ez (V/m) @ t=0.96
-0.41226751991536004
% es.tEx (V/m) @ t=0.96
-1.6176045349207246
% es.tEy (V/m) @ t=0.96
0
% es.tEz (V/m) @ t=0.96
-0.41226751991535515
% V (V) @ t=0.96
0.009702194290449011
% es.normE (V/m) @ t=0.98
1.6891989474926583
% es.EX (V/m) @ t=0.98
-1.6322183881764554
% es.EY (V/m) @ t=0.98
0.12571827937279423
% es.EZ (V/m) @ t=0.98
-0.41599198378392765
% es.tEX (V/m) @ t=0.98
-1.6322183881764687
% es.tEY (V/m) @ t=0.98
0
% es.tEZ (V/m) @ t=0.98
-0.41599198378392543
% es.Ex (V/m) @ t=0.98
-1.6322183881764554
% es.Ey (V/m) @ t=0.98
0.12571827937279423
% es.Ez (V/m) @ t=0.98
-0.41599198378392765
% es.tEx (V/m) @ t=0.98
-1.6322183881764687
% es.tEy (V/m) @ t=0.98
0
% es.tEz (V/m) @ t=0.98
-0.41599198378392543
% V (V) @ t=0.98
0.00978984836201497
% es.normE (V/m) @ t=1
1.7043229467140661
% es.EX (V/m) @ t=1
-1.6468322414321994
% es.EY (V/m) @ t=1
0.12684380403283768
% es.EZ (V/m) @ t=1
-0.4197164476524735
% es.tEX (V/m) @ t=1
-1.6468322414322092
% es.tEY (V/m) @ t=1
0
% es.tEZ (V/m) @ t=1
-0.41971644765247085
% es.Ex (V/m) @ t=1
-1.6468322414321994
% es.Ey (V/m) @ t=1
0.12684380403283768
% es.Ez (V/m) @ t=1
-0.4197164476524735
% es.tEx (V/m) @ t=1
-1.6468322414322092
% es.tEy (V/m) @ t=1
0
% es.tEz (V/m) @ t=1
-0.41971644765247085
% V (V) @ t=1
0.009877502433580928
% es.normE (V/m) @ t=1.02
1.7194469459355135
% es.EX (V/m) @ t=1.02
-1.661446094687971
% es.EY (V/m) @ t=1.02
0.12796932869289268
% es.EZ (V/m) @ t=1.02
-0.4234409115210438
% es.tEX (V/m) @ t=1.02
-1.6614460946879692
% es.tEY (V/m) @ t=1.02
0
% es.tEZ (V/m) @ t=1.02
-0.4234409115210447
% es.Ex (V/m) @ t=1.02
-1.661446094687971
% es.Ey (V/m) @ t=1.02
0.12796932869289268
% es.Ez (V/m) @ t=1.02
-0.4234409115210438