% Model:              1 neuron.mph
% Version:            COMSOL 6.1.0.252
% Date:               Mar 18 2023, 11:54
% Dimension:          0
% Nodes:              14017
% Expressions:        14017
% Description:        Electric field norm, Electric field, X component, Electric field, Y component, Electric field, Z component, Tangential electric field, X component, Tangential electric field, Y component, Tangential electric field, Z component, Electric field, x component, Electric field, y component, Electric field, z component, Tangential electric field, x component, Tangential electric field, y component, Tangential electric field, z component, Electric potential
% Length unit:        mm
% x
1.33
% y
12.2
% z
1
% es.normE (V/m) @ t=0
1.5575597532518235
% es.EX (V/m) @ t=0
0.4807617800343237
% es.EY (V/m) @ t=0
0.11647084224930448
% es.EZ (V/m) @ t=0
1.476910124113398
% es.tEX (V/m) @ t=0
0.4807617800343209
% es.tEY (V/m) @ t=0
0
% es.tEZ (V/m) @ t=0
1.4769101241134024
% es.Ex (V/m) @ t=0
0.4807617800343237
% es.Ey (V/m) @ t=0
0.11647084224930448
% es.Ez (V/m) @ t=0
1.476910124113398
% es.tEx (V/m) @ t=0
0.4807617800343209
% es.tEy (V/m) @ t=0
0
% es.tEz (V/m) @ t=0
1.4769101241134024
% V (V) @ t=0
0.007284751811899534
% es.normE (V/m) @ t=0.02
1.345280325633234
% es.EX (V/m) @ t=0.02
0.41523887918152336
% es.EY (V/m) @ t=0.02
0.10059706168498916
% es.EZ (V/m) @ t=0.02
1.275622413637253
% es.tEX (V/m) @ t=0.02
0.4152388791815227
% es.tEY (V/m) @ t=0.02
0
% es.tEZ (V/m) @ t=0.02
1.2756224136372571
% es.Ex (V/m) @ t=0.02
0.41523887918152336
% es.Ey (V/m) @ t=0.02
0.10059706168498916
% es.Ez (V/m) @ t=0.02
1.275622413637253
% es.tEx (V/m) @ t=0.02
0.4152388791815227
% es.tEy (V/m) @ t=0.02
0
% es.tEz (V/m) @ t=0.02
1.2756224136372571
% V (V) @ t=0.02
0.006291914728875835
% es.normE (V/m) @ t=0.04
1.3576535609020781
% es.EX (V/m) @ t=0.04
0.41905806262492873
% es.EY (V/m) @ t=0.04
0.10152232535599509
% es.EZ (V/m) @ t=0.04
1.2873549618433475
% es.tEX (V/m) @ t=0.04
0.4190580626249343
% es.tEY (V/m) @ t=0.04
0
% es.tEZ (V/m) @ t=0.04
1.2873549618433442
% es.Ex (V/m) @ t=0.04
0.41905806262492873
% es.Ey (V/m) @ t=0.04
0.10152232535599509
% es.Ez (V/m) @ t=0.04
1.2873549618433475
% es.tEx (V/m) @ t=0.04
0.4190580626249343
% es.tEy (V/m) @ t=0.04
0
% es.tEz (V/m) @ t=0.04
1.2873549618433442
% V (V) @ t=0.04
0.006349783430417607
% es.normE (V/m) @ t=0.06
1.370137582471381
% es.EX (V/m) @ t=0.06
0.4229114651475131
% es.EY (V/m) @ t=0.06
0.10245590430275786
% es.EZ (V/m) @ t=0.06
1.2991925498944632
% es.tEX (V/m) @ t=0.06
0.4229114651475143
% es.tEY (V/m) @ t=0.06
0
% es.tEZ (V/m) @ t=0.06
1.299192549894462
% es.Ex (V/m) @ t=0.06
0.4229114651475131
% es.Ey (V/m) @ t=0.06
0.10245590430275786
% es.Ez (V/m) @ t=0.06
1.2991925498944632
% es.tEx (V/m) @ t=0.06
0.4229114651475143
% es.tEy (V/m) @ t=0.06
0
% es.tEz (V/m) @ t=0.06
1.299192549894462
% V (V) @ t=0.06
0.006408168477720754
% es.normE (V/m) @ t=0.08
1.3828136008751595
% es.EX (V/m) @ t=0.08
0.4268240927185688
% es.EY (V/m) @ t=0.08
0.10340379319172055
% es.EZ (V/m) @ t=0.08
1.3112122090809502
% es.tEX (V/m) @ t=0.08
0.4268240927185687
% es.tEY (V/m) @ t=0.08
0
% es.tEZ (V/m) @ t=0.08
1.3112122090809546
% es.Ex (V/m) @ t=0.08
0.4268240927185688
% es.Ey (V/m) @ t=0.08
0.10340379319172055
% es.Ez (V/m) @ t=0.08
1.3112122090809502
% es.tEx (V/m) @ t=0.08
0.4268240927185687
% es.tEy (V/m) @ t=0.08
0
% es.tEz (V/m) @ t=0.08
1.3112122090809546
% V (V) @ t=0.08
0.006467454302118316
% es.normE (V/m) @ t=0.1
1.395621580111293
% es.EX (V/m) @ t=0.1
0.4307774260997611
% es.EY (V/m) @ t=0.1
0.10436151740885213
% es.EZ (V/m) @ t=0.1
1.3233570070940144
% es.tEX (V/m) @ t=0.1
0.43077742609976255
% es.tEY (V/m) @ t=0.1
0
% es.tEZ (V/m) @ t=0.1
1.3233570070940122
% es.Ex (V/m) @ t=0.1
0.4307774260997611
% es.Ey (V/m) @ t=0.1
0.10436151740885213
% es.Ez (V/m) @ t=0.1
1.3233570070940144
% es.tEx (V/m) @ t=0.1
0.43077742609976255
% es.tEy (V/m) @ t=0.1
0
% es.tEz (V/m) @ t=0.1
1.3233570070940122
% V (V) @ t=0.1
0.006527359237218766
% es.normE (V/m) @ t=0.12
1.4084295593474305
% es.EX (V/m) @ t=0.12
0.4347307594809675
% es.EY (V/m) @ t=0.12
0.10531924162597983
% es.EZ (V/m) @ t=0.12
1.3355018051070777
% es.tEX (V/m) @ t=0.12
0.43473075948096707
% es.tEY (V/m) @ t=0.12
0
% es.tEZ (V/m) @ t=0.12
1.3355018051070857
% es.Ex (V/m) @ t=0.12
0.4347307594809675
% es.Ey (V/m) @ t=0.12
0.10531924162597983
% es.Ez (V/m) @ t=0.12
1.3355018051070777
% es.tEx (V/m) @ t=0.12
0.43473075948096707
% es.tEy (V/m) @ t=0.12
0
% es.tEz (V/m) @ t=0.12
1.3355018051070857
% V (V) @ t=0.12
0.006587264172319217
% es.normE (V/m) @ t=0.14
1.4213691489992057
% es.EX (V/m) @ t=0.14
0.43872480371653677
% es.EY (V/m) @ t=0.14
0.10628692610712043
% es.EZ (V/m) @ t=0.14
1.3477713611799702
% es.tEX (V/m) @ t=0.14
0.4387248037165392
% es.tEY (V/m) @ t=0.14
0
% es.tEZ (V/m) @ t=0.14
1.3477713611799746
% es.Ex (V/m) @ t=0.14
0.43872480371653677
% es.Ey (V/m) @ t=0.14
0.10628692610712043
% es.Ez (V/m) @ t=0.14
1.3477713611799702
% es.tEx (V/m) @ t=0.14
0.4387248037165392
% es.tEy (V/m) @ t=0.14
0
% es.tEz (V/m) @ t=0.14
1.3477713611799746
% V (V) @ t=0.14
0.006647777802182937
% es.normE (V/m) @ t=0.16
1.4348511071186218
% es.EX (V/m) @ t=0.16
0.4428866179844567
% es.EY (V/m) @ t=0.16
0.10729565698338339
% es.EZ (V/m) @ t=0.16
1.360555047060712
% es.tEX (V/m) @ t=0.16
0.44288661798445617
% es.tEY (V/m) @ t=0.16
0
% es.tEZ (V/m) @ t=0.16
1.3605550470607053
% es.Ex (V/m) @ t=0.16
0.4428866179844567
% es.Ey (V/m) @ t=0.16
0.10729565698338339
% es.Ez (V/m) @ t=0.16
1.360555047060712
% es.tEx (V/m) @ t=0.16
0.44288661798445617
% es.tEy (V/m) @ t=0.16
0
% es.tEz (V/m) @ t=0.16
1.3605550470607053
% V (V) @ t=0.16
0.0067107998721594045
% es.normE (V/m) @ t=0.18
1.4483330652384718
% es.EX (V/m) @ t=0.18
0.447048432252389
% es.EY (V/m) @ t=0.18
0.10830438785966734
% es.EZ (V/m) @ t=0.18
1.3733387329414524
% es.tEX (V/m) @ t=0.18
0.44704843225239443
% es.tEY (V/m) @ t=0.18
0
% es.tEZ (V/m) @ t=0.18
1.3733387329414644
% es.Ex (V/m) @ t=0.18
0.447048432252389
% es.Ey (V/m) @ t=0.18
0.10830438785966734
% es.Ez (V/m) @ t=0.18
1.3733387329414524
% es.tEx (V/m) @ t=0.18
0.44704843225239443
% es.tEy (V/m) @ t=0.18
0
% es.tEz (V/m) @ t=0.18
1.3733387329414644
% V (V) @ t=0.18
0.00677382194213587
% es.normE (V/m) @ t=0.2
1.4618150233587461
% es.EX (V/m) @ t=0.2
0.45121024652031927
% es.EY (V/m) @ t=0.2
0.1093131187359282
% es.EZ (V/m) @ t=0.2
1.3861224188222017
% es.tEX (V/m) @ t=0.2
0.4512102465203114
% es.tEY (V/m) @ t=0.2
0
% es.tEZ (V/m) @ t=0.2
1.3861224188222039
% es.Ex (V/m) @ t=0.2
0.45121024652031927
% es.Ey (V/m) @ t=0.2
0.1093131187359282
% es.Ez (V/m) @ t=0.2
1.3861224188222017
% es.tEx (V/m) @ t=0.2
0.4512102465203114
% es.tEy (V/m) @ t=0.2
0
% es.tEz (V/m) @ t=0.2
1.3861224188222039
% V (V) @ t=0.2
0.006836844012112339
% es.normE (V/m) @ t=0.22
1.47529698147941
% es.EX (V/m) @ t=0.22
0.45537206078823955
% es.EY (V/m) @ t=0.22
0.11032184961220326
% es.EZ (V/m) @ t=0.22
1.3989061047029354
% es.tEX (V/m) @ t=0.22
0.45537206078823544
% es.tEY (V/m) @ t=0.22
0
% es.tEZ (V/m) @ t=0.22
1.3989061047029416
% es.Ex (V/m) @ t=0.22
0.45537206078823955
% es.Ey (V/m) @ t=0.22
0.11032184961220326
% es.Ez (V/m) @ t=0.22
1.3989061047029354
% es.tEx (V/m) @ t=0.22
0.45537206078823544
% es.tEy (V/m) @ t=0.22
0
% es.tEz (V/m) @ t=0.22
1.3989061047029416
% V (V) @ t=0.22
0.0068998660820888055
% es.normE (V/m) @ t=0.24
1.4887789396004731
% es.EX (V/m) @ t=0.24
0.45953387505616883
% es.EY (V/m) @ t=0.24
0.111330580488475
% es.EZ (V/m) @ t=0.24
1.4116897905836705
% es.tEX (V/m) @ t=0.24
0.4595338750561737
% es.tEY (V/m) @ t=0.24
0
% es.tEZ (V/m) @ t=0.24
1.4116897905836723
% es.Ex (V/m) @ t=0.24
0.45953387505616883
% es.Ey (V/m) @ t=0.24
0.111330580488475
% es.Ez (V/m) @ t=0.24
1.4116897905836705
% es.tEx (V/m) @ t=0.24
0.4595338750561737
% es.tEy (V/m) @ t=0.24
0
% es.tEz (V/m) @ t=0.24
1.4116897905836723
% V (V) @ t=0.24
0.006962888152065272
% es.normE (V/m) @ t=0.26
1.5022608977219356
% es.EX (V/m) @ t=0.26
0.463695689324088
% es.EY (V/m) @ t=0.26
0.11233931136473241
% es.EZ (V/m) @ t=0.26
1.4244734764644251
% es.tEX (V/m) @ t=0.26
0.46369568932409067
% es.tEY (V/m) @ t=0.26
0
% es.tEZ (V/m) @ t=0.26
1.424473476464426
% es.Ex (V/m) @ t=0.26
0.463695689324088
% es.Ey (V/m) @ t=0.26
0.11233931136473241
% es.Ez (V/m) @ t=0.26
1.4244734764644251
% es.tEx (V/m) @ t=0.26
0.46369568932409067
% es.tEy (V/m) @ t=0.26
0
% es.tEz (V/m) @ t=0.26
1.424473476464426
% V (V) @ t=0.26
0.00702591022204174
% es.normE (V/m) @ t=0.28
1.5163634901866985
% es.EX (V/m) @ t=0.28
0.46804879713741454
% es.EY (V/m) @ t=0.28
0.11339407780509769
% es.EZ (V/m) @ t=0.28
1.4378457784403014
% es.tEX (V/m) @ t=0.28
0.46804879713741343
% es.tEY (V/m) @ t=0.28
0
% es.tEZ (V/m) @ t=0.28
1.4378457784403018
% es.Ex (V/m) @ t=0.28
0.46804879713741454
% es.Ey (V/m) @ t=0.28
0.11339407780509769
% es.Ez (V/m) @ t=0.28
1.4378457784403014
% es.tEx (V/m) @ t=0.28
0.46804879713741343
% es.tEy (V/m) @ t=0.28
0
% es.tEz (V/m) @ t=0.28
1.4378457784403018
% V (V) @ t=0.28
0.007091856531726266
% es.normE (V/m) @ t=0.3
1.5313950937201768
% es.EX (V/m) @ t=0.3
0.47268824717947555
% es.EY (V/m) @ t=0.3
0.11451775365896433
% es.EZ (V/m) @ t=0.3
1.4520991642197
% es.tEX (V/m) @ t=0.3
0.47268824717947666
% es.tEY (V/m) @ t=0.3
0
% es.tEZ (V/m) @ t=0.3
1.4520991642197032
% es.Ex (V/m) @ t=0.3
0.47268824717947555
% es.Ey (V/m) @ t=0.3
0.11451775365896433
% es.Ez (V/m) @ t=0.3
1.4520991642197
% es.tEx (V/m) @ t=0.3
0.47268824717947666
% es.tEy (V/m) @ t=0.3
0
% es.tEz (V/m) @ t=0.3
1.4520991642197032
% V (V) @ t=0.3
0.007162180058183624
% es.normE (V/m) @ t=0.32
1.5464266972538627
% es.EX (V/m) @ t=0.32
0.47732769722155843
% es.EY (V/m) @ t=0.32
0.11564142951282541
% es.EZ (V/m) @ t=0.32
1.466352549999118
% es.tEX (V/m) @ t=0.32
0.4773276972215541
% es.tEY (V/m) @ t=0.32
0
% es.tEZ (V/m) @ t=0.32
1.4663525499991117
% es.Ex (V/m) @ t=0.32
0.47732769722155843
% es.Ey (V/m) @ t=0.32
0.11564142951282541
% es.Ez (V/m) @ t=0.32
1.466352549999118
% es.tEx (V/m) @ t=0.32
0.4773276972215541
% es.tEy (V/m) @ t=0.32
0
% es.tEz (V/m) @ t=0.32
1.4663525499991117
% V (V) @ t=0.32
0.007232503584640982
% es.normE (V/m) @ t=0.34
1.561458300787699
% es.EX (V/m) @ t=0.34
0.4819671472636291
% es.EY (V/m) @ t=0.34
0.11676510536669149
% es.EZ (V/m) @ t=0.34
1.4806059357785104
% es.tEX (V/m) @ t=0.34
0.48196714726363155
% es.tEY (V/m) @ t=0.34
0
% es.tEZ (V/m) @ t=0.34
1.4806059357785148
% es.Ex (V/m) @ t=0.34
0.4819671472636291
% es.Ey (V/m) @ t=0.34
0.11676510536669149
% es.Ez (V/m) @ t=0.34
1.4806059357785104
% es.tEx (V/m) @ t=0.34
0.48196714726363155
% es.tEy (V/m) @ t=0.34
0
% es.tEz (V/m) @ t=0.34
1.4806059357785148
% V (V) @ t=0.34
0.007302827111098342
% es.normE (V/m) @ t=0.36
1.5764899043217184
% es.EX (V/m) @ t=0.36
0.48660659730569533
% es.EY (V/m) @ t=0.36
0.11788878122055979
% es.EZ (V/m) @ t=0.36
1.4948593215579153
% es.tEX (V/m) @ t=0.36
0.48660659730568767
% es.tEY (V/m) @ t=0.36
0
% es.tEZ (V/m) @ t=0.36
1.4948593215579145
% es.Ex (V/m) @ t=0.36
0.48660659730569533
% es.Ey (V/m) @ t=0.36
0.11788878122055979
% es.Ez (V/m) @ t=0.36
1.4948593215579153
% es.tEx (V/m) @ t=0.36
0.48660659730568767
% es.tEy (V/m) @ t=0.36
0
% es.tEz (V/m) @ t=0.36
1.4948593215579145
% V (V) @ t=0.36
0.007373150637555699
% es.normE (V/m) @ t=0.38
1.5915215078559042
% es.EX (V/m) @ t=0.38
0.4912460473477672
% es.EY (V/m) @ t=0.38
0.11901245707441221
% es.EZ (V/m) @ t=0.38
1.509112707337318
% es.tEX (V/m) @ t=0.38
0.4912460473477722
% es.tEY (V/m) @ t=0.38
0
% es.tEZ (V/m) @ t=0.38
1.5091127073373247
% es.Ex (V/m) @ t=0.38
0.4912460473477672
% es.Ey (V/m) @ t=0.38
0.11901245707441221
% es.Ez (V/m) @ t=0.38
1.509112707337318
% es.tEx (V/m) @ t=0.38
0.4912460473477722
% es.tEy (V/m) @ t=0.38
0
% es.tEz (V/m) @ t=0.38
1.5091127073373247
% V (V) @ t=0.38
0.007443474164013059
% es.normE (V/m) @ t=0.4
1.6065531113902676
% es.EX (V/m) @ t=0.4
0.49588549738983934
% es.EY (V/m) @ t=0.4
0.12013613292828396
% es.EZ (V/m) @ t=0.4
1.523366093116735
% es.tEX (V/m) @ t=0.4
0.49588549738984256
% es.tEY (V/m) @ t=0.4
0
% es.tEZ (V/m) @ t=0.4
1.5233660931167332
% es.Ex (V/m) @ t=0.4
0.49588549738983934
% es.Ey (V/m) @ t=0.4
0.12013613292828396
% es.Ez (V/m) @ t=0.4
1.523366093116735
% es.tEx (V/m) @ t=0.4
0.49588549738984256
% es.tEy (V/m) @ t=0.4
0
% es.tEz (V/m) @ t=0.4
1.5233660931167332
% V (V) @ t=0.4
0.007513797690470417
% es.normE (V/m) @ t=0.42
1.6215847149247664
% es.EX (V/m) @ t=0.42
0.500524947431914
% es.EY (V/m) @ t=0.42
0.12125980878215226
% es.EZ (V/m) @ t=0.42
1.537619478896127
% es.tEX (V/m) @ t=0.42
0.50052494743192
% es.tEY (V/m) @ t=0.42
0
% es.tEZ (V/m) @ t=0.42
1.5376194788961346
% es.Ex (V/m) @ t=0.42
0.500524947431914
% es.Ey (V/m) @ t=0.42
0.12125980878215226
% es.Ez (V/m) @ t=0.42
1.537619478896127
% es.tEx (V/m) @ t=0.42
0.50052494743192
% es.tEy (V/m) @ t=0.42
0
% es.tEz (V/m) @ t=0.42
1.5376194788961346
% V (V) @ t=0.42
0.007584121216927776
% es.normE (V/m) @ t=0.44
1.6366163184594327
% es.EX (V/m) @ t=0.44
0.5051643974739873
% es.EY (V/m) @ t=0.44
0.12238348463601478
% es.EZ (V/m) @ t=0.44
1.5518728646755338
% es.tEX (V/m) @ t=0.44
0.5051643974739903
% es.tEY (V/m) @ t=0.44
0
% es.tEZ (V/m) @ t=0.44
1.551872864675536
% es.Ex (V/m) @ t=0.44
0.5051643974739873
% es.Ey (V/m) @ t=0.44
0.12238348463601478
% es.Ez (V/m) @ t=0.44
1.5518728646755338
% es.tEx (V/m) @ t=0.44
0.5051643974739903
% es.tEy (V/m) @ t=0.44
0
% es.tEz (V/m) @ t=0.44
1.551872864675536
% V (V) @ t=0.44
0.0076544447433851345
% es.normE (V/m) @ t=0.46
1.651647921994252
% es.EX (V/m) @ t=0.46
0.5098038475160597
% es.EY (V/m) @ t=0.46
0.12350716048988664
% es.EZ (V/m) @ t=0.46
1.5661262504549436
% es.tEX (V/m) @ t=0.46
0.5098038475160678
% es.tEY (V/m) @ t=0.46
0
% es.tEZ (V/m) @ t=0.46
1.5661262504549462
% es.Ex (V/m) @ t=0.46
0.5098038475160597
% es.Ey (V/m) @ t=0.46
0.12350716048988664
% es.Ez (V/m) @ t=0.46
1.5661262504549436
% es.tEx (V/m) @ t=0.46
0.5098038475160678
% es.tEy (V/m) @ t=0.46
0
% es.tEz (V/m) @ t=0.46
1.5661262504549462
% V (V) @ t=0.46
0.007724768269842494
% es.normE (V/m) @ t=0.48
1.666679525529215
% es.EX (V/m) @ t=0.48
0.5144432975581276
% es.EY (V/m) @ t=0.48
0.12463083634375316
% es.EZ (V/m) @ t=0.48
1.580379636234353
% es.tEX (V/m) @ t=0.48
0.514443297558131
% es.tEY (V/m) @ t=0.48
0
% es.tEZ (V/m) @ t=0.48
1.580379636234353
% es.Ex (V/m) @ t=0.48
0.5144432975581276
% es.Ey (V/m) @ t=0.48
0.12463083634375316
% es.Ez (V/m) @ t=0.48
1.580379636234353
% es.tEx (V/m) @ t=0.48
0.514443297558131
% es.tEy (V/m) @ t=0.48
0
% es.tEz (V/m) @ t=0.48
1.580379636234353
% V (V) @ t=0.48
0.007795091796299851
% es.normE (V/m) @ t=0.5
1.6817111290643298
% es.EX (V/m) @ t=0.5
0.5190827476002073
% es.EY (V/m) @ t=0.5
0.12575451219760903
% es.EZ (V/m) @ t=0.5
1.5946330220137699
% es.tEX (V/m) @ t=0.5
0.5190827476002084
% es.tEY (V/m) @ t=0.5
0
% es.tEZ (V/m) @ t=0.5
1.5946330220137774
% es.Ex (V/m) @ t=0.5
0.5190827476002073
% es.Ey (V/m) @ t=0.5
0.12575451219760903
% es.Ez (V/m) @ t=0.5
1.5946330220137699
% es.tEx (V/m) @ t=0.5
0.5190827476002084
% es.tEy (V/m) @ t=0.5
0
% es.tEz (V/m) @ t=0.5
1.5946330220137774
% V (V) @ t=0.5
0.00786541532275721
% es.normE (V/m) @ t=0.52
1.696742732599561
% es.EX (V/m) @ t=0.52
0.523722197642276
% es.EY (V/m) @ t=0.52
0.12687818805148787
% es.EZ (V/m) @ t=0.52
1.6088864077931655
% es.tEX (V/m) @ t=0.52
0.5237221976422788
% es.tEY (V/m) @ t=0.52
0
% es.tEZ (V/m) @ t=0.52
1.6088864077931664
% es.Ex (V/m) @ t=0.52
0.523722197642276
% es.Ey (V/m) @ t=0.52
0.12687818805148787
% es.Ez (V/m) @ t=0.52
1.6088864077931655
% es.tEx (V/m) @ t=0.52
0.5237221976422788
% es.tEy (V/m) @ t=0.52
0
% es.tEz (V/m) @ t=0.52
1.6088864077931664
% V (V) @ t=0.52
0.007935738849214568
% es.normE (V/m) @ t=0.54
1.7117743361349536
% es.EX (V/m) @ t=0.54
0.5283616476843549
% es.EY (V/m) @ t=0.54
0.12800186390536694
% es.EZ (V/m) @ t=0.54
1.623139793572586
% es.tEX (V/m) @ t=0.54
0.5283616476843562
% es.tEY (V/m) @ t=0.54
0
% es.tEZ (V/m) @ t=0.54
1.623139793572589
% es.Ex (V/m) @ t=0.54
0.5283616476843549
% es.Ey (V/m) @ t=0.54
0.12800186390536694
% es.Ez (V/m) @ t=0.54
1.623139793572586
% es.tEx (V/m) @ t=0.54
0.5283616476843562
% es.tEy (V/m) @ t=0.54
0
% es.tEz (V/m) @ t=0.54
1.623139793572589
% V (V) @ t=0.54
0.008006062375671929
% es.normE (V/m) @ t=0.56
1.7282128438670061
% es.EX (V/m) @ t=0.56
0.5334355968634331
% es.EY (V/m) @ t=0.56
0.12923108014156393
% es.EZ (V/m) @ t=0.56
1.6387271311053069
% es.tEX (V/m) @ t=0.56
0.5334355968634412
% es.tEY (V/m) @ t=0.56
0
% es.tEZ (V/m) @ t=0.56
1.6387271311053038
% es.Ex (V/m) @ t=0.56
0.5334355968634331
% es.Ey (V/m) @ t=0.56
0.12923108014156393
% es.Ez (V/m) @ t=0.56
1.6387271311053069
% es.tEx (V/m) @ t=0.56
0.5334355968634412
% es.tEy (V/m) @ t=0.56
0
% es.tEz (V/m) @ t=0.56
1.6387271311053038
% V (V) @ t=0.56
0.008082946947894815
% es.normE (V/m) @ t=0.58
1.7449793206618378
% es.EX (V/m) @ t=0.58
0.5386108338736987
% es.EY (V/m) @ t=0.58
0.13048489931830676
% es.EZ (V/m) @ t=0.58
1.6546254314650426
% es.tEX (V/m) @ t=0.58
0.5386108338736904
% es.tEY (V/m) @ t=0.58
0
% es.tEZ (V/m) @ t=0.58
1.6546254314650444
% es.Ex (V/m) @ t=0.58
0.5386108338736987
% es.Ey (V/m) @ t=0.58
0.13048489931830676
% es.Ez (V/m) @ t=0.58
1.6546254314650426
% es.tEx (V/m) @ t=0.58
0.5386108338736904
% es.tEy (V/m) @ t=0.58
0
% es.tEz (V/m) @ t=0.58
1.6546254314650444
% V (V) @ t=0.58
0.008161360991730426
% es.normE (V/m) @ t=0.6
1.7617457974566784
% es.EX (V/m) @ t=0.6
0.5437860708839628
% es.EY (V/m) @ t=0.6
0.13173871849505303
% es.EZ (V/m) @ t=0.6
1.6705237318247832
% es.tEX (V/m) @ t=0.6
0.5437860708839608
% es.tEY (V/m) @ t=0.6
0
% es.tEZ (V/m) @ t=0.6
1.6705237318247868
% es.Ex (V/m) @ t=0.6
0.5437860708839628
% es.Ey (V/m) @ t=0.6
0.13173871849505303
% es.Ez (V/m) @ t=0.6
1.6705237318247832
% es.tEx (V/m) @ t=0.6
0.5437860708839608
% es.tEy (V/m) @ t=0.6
0
% es.tEz (V/m) @ t=0.6
1.6705237318247868
% V (V) @ t=0.6
0.00823977503556604
% es.normE (V/m) @ t=0.62
1.7785122742515322
% es.EX (V/m) @ t=0.62
0.5489613078942286
% es.EY (V/m) @ t=0.62
0.13299253767178743
% es.EZ (V/m) @ t=0.62
1.6864220321845336
% es.tEX (V/m) @ t=0.62
0.5489613078942313
% es.tEY (V/m) @ t=0.62
0
% es.tEZ (V/m) @ t=0.62
1.6864220321845362
% es.Ex (V/m) @ t=0.62
0.5489613078942286
% es.Ey (V/m) @ t=0.62
0.13299253767178743
% es.Ez (V/m) @ t=0.62
1.6864220321845336
% es.tEx (V/m) @ t=0.62
0.5489613078942313
% es.tEy (V/m) @ t=0.62
0
% es.tEz (V/m) @ t=0.62
1.6864220321845362
% V (V) @ t=0.62
0.008318189079401652
% es.normE (V/m) @ t=0.64
1.7952787510463821
% es.EX (V/m) @ t=0.64
0.5541365449044837
% es.EY (V/m) @ t=0.64
0.13424635684854092
% es.EZ (V/m) @ t=0.64
1.7023203325442768
% es.tEX (V/m) @ t=0.64
0.5541365449044875
% es.tEY (V/m) @ t=0.64
0
% es.tEZ (V/m) @ t=0.64
1.7023203325442893
% es.Ex (V/m) @ t=0.64
0.5541365449044837
% es.Ey (V/m) @ t=0.64
0.13424635684854092
% es.Ez (V/m) @ t=0.64
1.7023203325442768
% es.tEx (V/m) @ t=0.64
0.5541365449044875
% es.tEy (V/m) @ t=0.64
0
% es.tEz (V/m) @ t=0.64
1.7023203325442893
% V (V) @ t=0.64
0.008396603123237265
% es.normE (V/m) @ t=0.66
1.8120452278412502
% es.EX (V/m) @ t=0.66
0.5593117819147572
% es.EY (V/m) @ t=0.66
0.13550017602526232
% es.EZ (V/m) @ t=0.66
1.7182186329040317
% es.tEX (V/m) @ t=0.66
0.5593117819147508
% es.tEY (V/m) @ t=0.66
0
% es.tEZ (V/m) @ t=0.66
1.7182186329040388
% es.Ex (V/m) @ t=0.66
0.5593117819147572
% es.Ey (V/m) @ t=0.66
0.13550017602526232
% es.Ez (V/m) @ t=0.66
1.7182186329040317
% es.tEx (V/m) @ t=0.66
0.5593117819147508
% es.tEy (V/m) @ t=0.66
0
% es.tEz (V/m) @ t=0.66
1.7182186329040388
% V (V) @ t=0.66
0.008475017167072876
% es.normE (V/m) @ t=0.68
1.8288117046361152
% es.EX (V/m) @ t=0.68
0.5644870189250212
% es.EY (V/m) @ t=0.68
0.13675399520202647
% es.EZ (V/m) @ t=0.68
1.7341169332637785
% es.tEX (V/m) @ t=0.68
0.5644870189250213
% es.tEY (V/m) @ t=0.68
0
% es.tEZ (V/m) @ t=0.68
1.734116933263774
% es.Ex (V/m) @ t=0.68
0.5644870189250212
% es.Ey (V/m) @ t=0.68
0.13675399520202647
% es.Ez (V/m) @ t=0.68
1.7341169332637785
% es.tEx (V/m) @ t=0.68
0.5644870189250213
% es.tEy (V/m) @ t=0.68
0
% es.tEz (V/m) @ t=0.68
1.734116933263774
% V (V) @ t=0.68
0.008553431210908489
% es.normE (V/m) @ t=0.7
1.8455781814309906
% es.EX (V/m) @ t=0.7
0.5696622559352887
% es.EY (V/m) @ t=0.7
0.13800781437876564
% es.EZ (V/m) @ t=0.7
1.7500152336235333
% es.tEX (V/m) @ t=0.7
0.5696622559352917
% es.tEY (V/m) @ t=0.7
0
% es.tEZ (V/m) @ t=0.7
1.7500152336235377
% es.Ex (V/m) @ t=0.7
0.5696622559352887
% es.Ey (V/m) @ t=0.7
0.13800781437876564
% es.Ez (V/m) @ t=0.7
1.7500152336235333
% es.tEx (V/m) @ t=0.7
0.5696622559352917
% es.tEy (V/m) @ t=0.7
0
% es.tEz (V/m) @ t=0.7
1.7500152336235377
% V (V) @ t=0.7
0.008631845254744102
% es.normE (V/m) @ t=0.72
1.8623446582258363
% es.EX (V/m) @ t=0.72
0.5748374929455436
% es.EY (V/m) @ t=0.72
0.13926163355548582
% es.EZ (V/m) @ t=0.72
1.7659135339832583
% es.tEX (V/m) @ t=0.72
0.574837492945548
% es.tEY (V/m) @ t=0.72
0
% es.tEZ (V/m) @ t=0.72
1.7659135339832623
% es.Ex (V/m) @ t=0.72
0.5748374929455436
% es.Ey (V/m) @ t=0.72
0.13926163355548582
% es.Ez (V/m) @ t=0.72
1.7659135339832583
% es.tEx (V/m) @ t=0.72
0.574837492945548
% es.tEy (V/m) @ t=0.72
0
% es.tEz (V/m) @ t=0.72
1.7659135339832623
% V (V) @ t=0.72
0.008710259298579713
% es.normE (V/m) @ t=0.74
1.8791111350207168
% es.EX (V/m) @ t=0.74
0.5800127299558097
% es.EY (V/m) @ t=0.74
0.1405154527322482
% es.EZ (V/m) @ t=0.74
1.7818118343430092
% es.tEX (V/m) @ t=0.74
0.5800127299558113
% es.tEY (V/m) @ t=0.74
0
% es.tEZ (V/m) @ t=0.74
1.7818118343430118
% es.Ex (V/m) @ t=0.74
0.5800127299558097
% es.Ey (V/m) @ t=0.74
0.1405154527322482
% es.Ez (V/m) @ t=0.74
1.7818118343430092
% es.tEx (V/m) @ t=0.74
0.5800127299558113
% es.tEy (V/m) @ t=0.74
0
% es.tEz (V/m) @ t=0.74
1.7818118343430118
% V (V) @ t=0.74
0.008788673342415326
% es.normE (V/m) @ t=0.76
1.8958776118155916
% es.EX (V/m) @ t=0.76
0.5851879669660736
% es.EY (V/m) @ t=0.76
0.14176927190898025
% es.EZ (V/m) @ t=0.76
1.7977101347027529
% es.tEX (V/m) @ t=0.76
0.5851879669660747
% es.tEY (V/m) @ t=0.76
0
% es.tEZ (V/m) @ t=0.76
1.7977101347027595
% es.Ex (V/m) @ t=0.76
0.5851879669660736
% es.Ey (V/m) @ t=0.76
0.14176927190898025
% es.Ez (V/m) @ t=0.76
1.7977101347027529
% es.tEx (V/m) @ t=0.76
0.5851879669660747
% es.tEy (V/m) @ t=0.76
0
% es.tEz (V/m) @ t=0.76
1.7977101347027595
% V (V) @ t=0.76
0.008867087386250938
% es.normE (V/m) @ t=0.78
1.9126440886104672
% es.EX (V/m) @ t=0.78
0.5903632039763281
% es.EY (V/m) @ t=0.78
0.14302309108572853
% es.EZ (V/m) @ t=0.78
1.8136084350624957
% es.tEX (V/m) @ t=0.78
0.5903632039763309
% es.tEY (V/m) @ t=0.78
0
% es.tEZ (V/m) @ t=0.78
1.813608435062493
% es.Ex (V/m) @ t=0.78
0.5903632039763281
% es.Ey (V/m) @ t=0.78
0.14302309108572853
% es.Ez (V/m) @ t=0.78
1.8136084350624957
% es.tEx (V/m) @ t=0.78
0.5903632039763309
% es.tEy (V/m) @ t=0.78
0
% es.tEz (V/m) @ t=0.78
1.813608435062493
% V (V) @ t=0.78
0.00894550143008655
% es.normE (V/m) @ t=0.8
1.9294105654053375
% es.EX (V/m) @ t=0.8
0.595538440986594
% es.EY (V/m) @ t=0.8
0.14427691026248735
% es.EZ (V/m) @ t=0.8
1.8295067354222252
% es.tEX (V/m) @ t=0.8
0.5955384409865943
% es.tEY (V/m) @ t=0.8
0
% es.tEZ (V/m) @ t=0.8
1.8295067354222354
% es.Ex (V/m) @ t=0.8
0.595538440986594
% es.Ey (V/m) @ t=0.8
0.14427691026248735
% es.Ez (V/m) @ t=0.8
1.8295067354222252
% es.tEx (V/m) @ t=0.8
0.5955384409865943
% es.tEy (V/m) @ t=0.8
0
% es.tEz (V/m) @ t=0.8
1.8295067354222354
% V (V) @ t=0.8
0.009023915473922162
% es.normE (V/m) @ t=0.82
1.946614086472021
% es.EX (V/m) @ t=0.82
0.6008486101537933
% es.EY (V/m) @ t=0.82
0.14556344185008252
% es.EZ (V/m) @ t=0.82
1.8458194371125667
% es.tEX (V/m) @ t=0.82
0.6008486101537969
% es.tEY (V/m) @ t=0.82
0
% es.tEZ (V/m) @ t=0.82
1.8458194371125742
% es.Ex (V/m) @ t=0.82
0.6008486101537933
% es.Ey (V/m) @ t=0.82
0.14556344185008252
% es.Ez (V/m) @ t=0.82
1.8458194371125667
% es.tEx (V/m) @ t=0.82
0.6008486101537969
% es.tEy (V/m) @ t=0.82
0
% es.tEz (V/m) @ t=0.82
1.8458194371125742
% V (V) @ t=0.82
0.009104371477221863
% es.normE (V/m) @ t=0.84
1.965354484404356
% es.EX (V/m) @ t=0.84
0.6066332715493382
% es.EY (V/m) @ t=0.84
0.1469650074301324
% es.EZ (V/m) @ t=0.84
1.8635893912122867
% es.tEX (V/m) @ t=0.84
0.6066332715493346
% es.tEY (V/m) @ t=0.84
0
% es.tEZ (V/m) @ t=0.84
1.8635893912122885
% es.Ex (V/m) @ t=0.84
0.6066332715493382
% es.Ey (V/m) @ t=0.84
0.1469650074301324
% es.Ez (V/m) @ t=0.84
1.8635893912122867
% es.tEx (V/m) @ t=0.84
0.6066332715493346
% es.tEy (V/m) @ t=0.84
0
% es.tEz (V/m) @ t=0.84
1.8635893912122885
% V (V) @ t=0.84
0.009192008080894425
% es.normE (V/m) @ t=0.86
1.984094882336727
% es.EX (V/m) @ t=0.86
0.6124179329448789
% es.EY (V/m) @ t=0.86
0.14836657301016554
% es.EZ (V/m) @ t=0.86
1.8813593453120014
% es.tEX (V/m) @ t=0.86
0.6124179329448793
% es.tEY (V/m) @ t=0.86
0
% es.tEZ (V/m) @ t=0.86
1.8813593453120028
% es.Ex (V/m) @ t=0.86
0.6124179329448789
% es.Ey (V/m) @ t=0.86
0.14836657301016554
% es.Ez (V/m) @ t=0.86
1.8813593453120014
% es.tEx (V/m) @ t=0.86
0.6124179329448793
% es.tEy (V/m) @ t=0.86
0
% es.tEz (V/m) @ t=0.86
1.8813593453120028
% V (V) @ t=0.86
0.009279644684566987
% es.normE (V/m) @ t=0.88
2.002835280269146
% es.EX (V/m) @ t=0.88
0.6182025943404261
% es.EY (V/m) @ t=0.88
0.14976813859020777
% es.EZ (V/m) @ t=0.88
1.8991292994117188
% es.tEX (V/m) @ t=0.88
0.6182025943404312
% es.tEY (V/m) @ t=0.88
0
% es.tEZ (V/m) @ t=0.88
1.8991292994117241
% es.Ex (V/m) @ t=0.88
0.6182025943404261
% es.Ey (V/m) @ t=0.88
0.14976813859020777
% es.Ez (V/m) @ t=0.88
1.8991292994117188
% es.tEx (V/m) @ t=0.88
0.6182025943404312
% es.tEy (V/m) @ t=0.88
0
% es.tEz (V/m) @ t=0.88
1.8991292994117241
% V (V) @ t=0.88
0.00936728128823955
% es.normE (V/m) @ t=0.9
2.0215756782016108
% es.EX (V/m) @ t=0.9
0.6239872557359822
% es.EY (V/m) @ t=0.9
0.15116970417026832
% es.EZ (V/m) @ t=0.9
1.9168992535114375
% es.tEX (V/m) @ t=0.9
0.623987255735976
% es.tEY (V/m) @ t=0.9
0
% es.tEZ (V/m) @ t=0.9
1.9168992535114544
% es.Ex (V/m) @ t=0.9
0.6239872557359822
% es.Ey (V/m) @ t=0.9
0.15116970417026832
% es.Ez (V/m) @ t=0.9
1.9168992535114375
% es.tEx (V/m) @ t=0.9
0.623987255735976
% es.tEy (V/m) @ t=0.9
0
% es.tEz (V/m) @ t=0.9
1.9168992535114544
% V (V) @ t=0.9
0.009454917891912112
% es.normE (V/m) @ t=0.92
2.0403160761341184
% es.EX (V/m) @ t=0.92
0.6297719171315327
% es.EY (V/m) @ t=0.92
0.1525712697503262
% es.EZ (V/m) @ t=0.92
1.9346692076111611
% es.tEX (V/m) @ t=0.92
0.629771917131535
% es.tEY (V/m) @ t=0.92
0
% es.tEZ (V/m) @ t=0.92
1.9346692076111598
% es.Ex (V/m) @ t=0.92
0.6297719171315327
% es.Ey (V/m) @ t=0.92
0.1525712697503262
% es.Ez (V/m) @ t=0.92
1.9346692076111611
% es.tEx (V/m) @ t=0.92
0.629771917131535
% es.tEy (V/m) @ t=0.92
0
% es.tEz (V/m) @ t=0.92
1.9346692076111598
% V (V) @ t=0.92
0.009542554495584676
% es.normE (V/m) @ t=0.94
2.0590564740666344
% es.EX (V/m) @ t=0.94
0.6355565785270743
% es.EY (V/m) @ t=0.94
0.15397283533034634
% es.EZ (V/m) @ t=0.94
1.9524391617108585
% es.tEX (V/m) @ t=0.94
0.6355565785270727
% es.tEY (V/m) @ t=0.94
0
% es.tEZ (V/m) @ t=0.94
1.952439161710867
% es.Ex (V/m) @ t=0.94
0.6355565785270743
% es.Ey (V/m) @ t=0.94
0.15397283533034634
% es.Ez (V/m) @ t=0.94
1.9524391617108585
% es.tEx (V/m) @ t=0.94
0.6355565785270727
% es.tEy (V/m) @ t=0.94
0
% es.tEz (V/m) @ t=0.94
1.952439161710867
% V (V) @ t=0.94
0.009630191099257236
% es.normE (V/m) @ t=0.96
2.077796871999224
% es.EX (V/m) @ t=0.96
0.6413412399226187
% es.EY (V/m) @ t=0.96
0.15537440091040766
% es.EZ (V/m) @ t=0.96
1.9702091158105892
% es.tEX (V/m) @ t=0.96
0.6413412399226246
% es.tEY (V/m) @ t=0.96
0
% es.tEZ (V/m) @ t=0.96
1.9702091158105812
% es.Ex (V/m) @ t=0.96
0.6413412399226187
% es.Ey (V/m) @ t=0.96
0.15537440091040766
% es.Ez (V/m) @ t=0.96
1.9702091158105892
% es.tEx (V/m) @ t=0.96
0.6413412399226246
% es.tEy (V/m) @ t=0.96
0
% es.tEz (V/m) @ t=0.96
1.9702091158105812
% V (V) @ t=0.96
0.009717827702929798
% es.normE (V/m) @ t=0.98
2.0965372699318414
% es.EX (V/m) @ t=0.98
0.6471259013181693
% es.EY (V/m) @ t=0.98
0.15677596649046066
% es.EZ (V/m) @ t=0.98
1.9879790699103088
% es.tEX (V/m) @ t=0.98
0.6471259013181694
% es.tEY (V/m) @ t=0.98
0
% es.tEZ (V/m) @ t=0.98
1.9879790699103168
% es.Ex (V/m) @ t=0.98
0.6471259013181693
% es.Ey (V/m) @ t=0.98
0.15677596649046066
% es.Ez (V/m) @ t=0.98
1.9879790699103088
% es.tEx (V/m) @ t=0.98
0.6471259013181694
% es.tEy (V/m) @ t=0.98
0
% es.tEz (V/m) @ t=0.98
1.9879790699103168
% V (V) @ t=0.98
0.009805464306602361
% es.normE (V/m) @ t=1
2.115277667864491
% es.EX (V/m) @ t=1
0.6529105627137178
% es.EY (V/m) @ t=1
0.1581775320705141
% es.EZ (V/m) @ t=1
2.0057490240100253
% es.tEX (V/m) @ t=1
0.6529105627137142
% es.tEY (V/m) @ t=1
0
% es.tEZ (V/m) @ t=1
2.0057490240100186
% es.Ex (V/m) @ t=1
0.6529105627137178
% es.Ey (V/m) @ t=1
0.1581775320705141
% es.Ez (V/m) @ t=1
2.0057490240100253
% es.tEx (V/m) @ t=1
0.6529105627137142
% es.tEy (V/m) @ t=1
0
% es.tEz (V/m) @ t=1
2.0057490240100186
% V (V) @ t=1
0.009893100910274923
% es.normE (V/m) @ t=1.02
2.1340180657971706
% es.EX (V/m) @ t=1.02
0.6586952241092594
% es.EY (V/m) @ t=1.02
0.1595790976505902
% es.EZ (V/m) @ t=1.02
2.023518978109737
% es.tEX (V/m) @ t=1.02
0.658695224109259
% es.tEY (V/m) @ t=1.02
0
% es.tEZ (V/m) @ t=1.02
2.0235189781097525
% es.Ex (V/m) @ t=1.02
0.6586952241092594
% es.Ey (V/m) @ t=1.02
0.1595790976505902
% es.Ez (V/m) @ t=1.02
2.023518978109737
% es.tEx (V/m) @ t=1.02
0.658695224109259
% es.tEy (V/m) @ t=1.02
0
% es.tEz (V/m) @ t=1.02
2.0235189781097525
% V (V) @ t=1.02
0.009980737513947485
% es.normE (V/m) @ t=1.04
2.1527584637298944
% es.EX (V/m) @ t=1.04
0.6644798855048119
% es.EY (V/m) @ t=1.04
0.16098066323061255
% es.EZ (V/m) @ t=1.04
2.0412889322094605
% es.tEX (V/m) @ t=1.04
0.664479885504818
% es.tEY (V/m) @ t=1.04
0
% es.tEZ (V/m) @ t=1.04
2.0412889322094596
% es.Ex (V/m) @ t=1.04
0.6644798855048119
% es.Ey (V/m) @ t=1.04
0.16098066323061255