% Model:              1 neuron.mph
% Version:            COMSOL 6.1.0.252
% Date:               Mar 18 2023, 11:54
% Dimension:          0
% Nodes:              14017
% Expressions:        14017
% Description:        Electric field norm, Electric field, X component, Electric field, Y component, Electric field, Z component, Tangential electric field, X component, Tangential electric field, Y component, Tangential electric field, Z component, Electric field, x component, Electric field, y component, Electric field, z component, Tangential electric field, x component, Tangential electric field, y component, Tangential electric field, z component, Electric potential
% Length unit:        mm
% x
1.66
% y
12.2
% z
1.33
% es.normE (V/m) @ t=0
7.606895482561429
% es.EX (V/m) @ t=0
-4.226699834558357
% es.EY (V/m) @ t=0
-0.4562355956198425
% es.EZ (V/m) @ t=0
5.659520594641262
% es.tEX (V/m) @ t=0
-4.226699834558363
% es.tEY (V/m) @ t=0
0
% es.tEZ (V/m) @ t=0
5.659520594641257
% es.Ex (V/m) @ t=0
-4.226699834558357
% es.Ey (V/m) @ t=0
-0.4562355956198425
% es.Ez (V/m) @ t=0
5.659520594641262
% es.tEx (V/m) @ t=0
-4.226699834558363
% es.tEy (V/m) @ t=0
0
% es.tEz (V/m) @ t=0
5.659520594641257
% V (V) @ t=0
0.006247277940317196
% es.normE (V/m) @ t=0.02
6.570153548897045
% es.EX (V/m) @ t=0.02
-3.650643992734322
% es.EY (V/m) @ t=0.02
-0.3940553242624878
% es.EZ (V/m) @ t=0.02
4.88818589909055
% es.tEX (V/m) @ t=0.02
-3.650643992734321
% es.tEY (V/m) @ t=0.02
0
% es.tEZ (V/m) @ t=0.02
4.8881858990905425
% es.Ex (V/m) @ t=0.02
-3.650643992734322
% es.Ey (V/m) @ t=0.02
-0.3940553242624878
% es.Ez (V/m) @ t=0.02
4.88818589909055
% es.tEx (V/m) @ t=0.02
-3.650643992734321
% es.tEy (V/m) @ t=0.02
0
% es.tEz (V/m) @ t=0.02
4.8881858990905425
% V (V) @ t=0.02
0.0053958379128275225
% es.normE (V/m) @ t=0.04
6.630581780747947
% es.EX (V/m) @ t=0.04
-3.684221082267877
% es.EY (V/m) @ t=0.04
-0.39767913145824796
% es.EZ (V/m) @ t=0.04
4.933144262451209
% es.tEX (V/m) @ t=0.04
-3.684221082267877
% es.tEY (V/m) @ t=0.04
0
% es.tEZ (V/m) @ t=0.04
4.933144262451201
% es.Ex (V/m) @ t=0.04
-3.684221082267877
% es.Ey (V/m) @ t=0.04
-0.39767913145824796
% es.Ez (V/m) @ t=0.04
4.933144262451209
% es.tEx (V/m) @ t=0.04
-3.684221082267877
% es.tEy (V/m) @ t=0.04
0
% es.tEz (V/m) @ t=0.04
4.933144262451201
% V (V) @ t=0.04
0.005445464966996328
% es.normE (V/m) @ t=0.06
6.6915498727854
% es.EX (V/m) @ t=0.06
-3.7180991394883245
% es.EY (V/m) @ t=0.06
-0.4013346561771054
% es.EZ (V/m) @ t=0.06
4.97850404827644
% es.tEX (V/m) @ t=0.06
-3.718099139488327
% es.tEY (V/m) @ t=0.06
0
% es.tEZ (V/m) @ t=0.06
4.978504048276432
% es.Ex (V/m) @ t=0.06
-3.7180991394883245
% es.Ey (V/m) @ t=0.06
-0.4013346561771054
% es.Ez (V/m) @ t=0.06
4.97850404827644
% es.tEx (V/m) @ t=0.06
-3.718099139488327
% es.tEy (V/m) @ t=0.06
0
% es.tEz (V/m) @ t=0.06
4.978504048276432
% V (V) @ t=0.06
0.005495534619806583
% es.normE (V/m) @ t=0.08
6.753457518699425
% es.EX (V/m) @ t=0.08
-3.7524976952622264
% es.EY (V/m) @ t=0.08
-0.4050475622699523
% es.EZ (V/m) @ t=0.08
5.0245632224113415
% es.tEX (V/m) @ t=0.08
-3.7524976952622335
% es.tEY (V/m) @ t=0.08
0
% es.tEZ (V/m) @ t=0.08
5.02456322241134
% es.Ex (V/m) @ t=0.08
-3.7524976952622264
% es.Ey (V/m) @ t=0.08
-0.4050475622699523
% es.Ez (V/m) @ t=0.08
5.0245632224113415
% es.tEx (V/m) @ t=0.08
-3.7524976952622335
% es.tEy (V/m) @ t=0.08
0
% es.tEz (V/m) @ t=0.08
5.02456322241134
% V (V) @ t=0.08
0.005546377091114033
% es.normE (V/m) @ t=0.1
6.816010926882848
% es.EX (V/m) @ t=0.1
-3.787253993509027
% es.EY (V/m) @ t=0.1
-0.40879990700190016
% es.EZ (V/m) @ t=0.1
5.071103091260501
% es.tEX (V/m) @ t=0.1
-3.7872539935090366
% es.tEY (V/m) @ t=0.1
0
% es.tEZ (V/m) @ t=0.1
5.071103091260492
% es.Ex (V/m) @ t=0.1
-3.787253993509027
% es.Ey (V/m) @ t=0.1
-0.40879990700190016
% es.Ez (V/m) @ t=0.1
5.071103091260501
% es.tEx (V/m) @ t=0.1
-3.7872539935090366
% es.tEy (V/m) @ t=0.1
0
% es.tEz (V/m) @ t=0.1
5.071103091260492
% V (V) @ t=0.1
0.005597750726242114
% es.normE (V/m) @ t=0.12
6.878564335066583
% es.EX (V/m) @ t=0.12
-3.8220102917558236
% es.EY (V/m) @ t=0.12
-0.41255225173386934
% es.EZ (V/m) @ t=0.12
5.117642960109676
% es.tEX (V/m) @ t=0.12
-3.8220102917558343
% es.tEY (V/m) @ t=0.12
0
% es.tEZ (V/m) @ t=0.12
5.117642960109667
% es.Ex (V/m) @ t=0.12
-3.8220102917558236
% es.Ey (V/m) @ t=0.12
-0.41255225173386934
% es.Ez (V/m) @ t=0.12
5.117642960109676
% es.tEx (V/m) @ t=0.12
-3.8220102917558343
% es.tEy (V/m) @ t=0.12
0
% es.tEz (V/m) @ t=0.12
5.117642960109667
% V (V) @ t=0.12
0.005649124361370196
% es.normE (V/m) @ t=0.14
6.9417559389636185
% es.EX (V/m) @ t=0.14
-3.85712498637486
% es.EY (V/m) @ t=0.14
-0.41634036605729086
% es.EZ (V/m) @ t=0.14
5.164656762159467
% es.tEX (V/m) @ t=0.14
-3.8571249863748696
% es.tEY (V/m) @ t=0.14
0
% es.tEZ (V/m) @ t=0.14
5.1646567621594635
% es.Ex (V/m) @ t=0.14
-3.85712498637486
% es.Ey (V/m) @ t=0.14
-0.41634036605729086
% es.Ez (V/m) @ t=0.14
5.164656762159467
% es.tEx (V/m) @ t=0.14
-3.8571249863748696
% es.tEy (V/m) @ t=0.14
0
% es.tEz (V/m) @ t=0.14
5.1646567621594635
% V (V) @ t=0.14
0.0057010192039565
% es.normE (V/m) @ t=0.16
7.007577556889874
% es.EX (V/m) @ t=0.16
-3.89371663773911
% es.EY (V/m) @ t=0.16
-0.4202758873956427
% es.EZ (V/m) @ t=0.16
5.213623649931439
% es.tEX (V/m) @ t=0.16
-3.893716637739116
% es.tEY (V/m) @ t=0.16
0
% es.tEZ (V/m) @ t=0.16
5.213623649931428
% es.Ex (V/m) @ t=0.16
-3.89371663773911
% es.Ey (V/m) @ t=0.16
-0.4202758873956427
% es.Ez (V/m) @ t=0.16
5.213623649931439
% es.tEx (V/m) @ t=0.16
-3.893716637739116
% es.tEy (V/m) @ t=0.16
0
% es.tEz (V/m) @ t=0.16
5.213623649931428
% V (V) @ t=0.16
0.005755061950178849
% es.normE (V/m) @ t=0.18
7.073399174924893
% es.EX (V/m) @ t=0.18
-3.9303082891033494
% es.EY (V/m) @ t=0.18
-0.424211408733991
% es.EZ (V/m) @ t=0.18
5.262590537703414
% es.tEX (V/m) @ t=0.18
-3.930308289103359
% es.tEY (V/m) @ t=0.18
0
% es.tEZ (V/m) @ t=0.18
5.262590537703406
% es.Ex (V/m) @ t=0.18
-3.9303082891033494
% es.Ey (V/m) @ t=0.18
-0.424211408733991
% es.Ez (V/m) @ t=0.18
5.262590537703414
% es.tEx (V/m) @ t=0.18
-3.930308289103359
% es.tEy (V/m) @ t=0.18
0
% es.tEz (V/m) @ t=0.18
5.262590537703406
% V (V) @ t=0.18
0.0058091046964012
% es.normE (V/m) @ t=0.2
7.139220793065691
% es.EX (V/m) @ t=0.2
-3.9668999404675995
% es.EY (V/m) @ t=0.2
-0.42814693007233573
% es.EZ (V/m) @ t=0.2
5.31155742547539
% es.tEX (V/m) @ t=0.2
-3.96689994046761
% es.tEY (V/m) @ t=0.2
0
% es.tEZ (V/m) @ t=0.2
5.311557425475378
% es.Ex (V/m) @ t=0.2
-3.9668999404675995
% es.Ey (V/m) @ t=0.2
-0.42814693007233573
% es.Ez (V/m) @ t=0.2
5.31155742547539
% es.tEx (V/m) @ t=0.2
-3.96689994046761
% es.tEy (V/m) @ t=0.2
0
% es.tEz (V/m) @ t=0.2
5.311557425475378
% V (V) @ t=0.2
0.005863147442623551
% es.normE (V/m) @ t=0.22
7.205042411309346
% es.EX (V/m) @ t=0.22
-4.0034915918318354
% es.EY (V/m) @ t=0.22
-0.4320824514106931
% es.EZ (V/m) @ t=0.22
5.3605243132473515
% es.tEX (V/m) @ t=0.22
-4.0034915918318426
% es.tEY (V/m) @ t=0.22
0
% es.tEZ (V/m) @ t=0.22
5.360524313247342
% es.Ex (V/m) @ t=0.22
-4.0034915918318354
% es.Ey (V/m) @ t=0.22
-0.4320824514106931
% es.Ez (V/m) @ t=0.22
5.3605243132473515
% es.tEx (V/m) @ t=0.22
-4.0034915918318426
% es.tEy (V/m) @ t=0.22
0
% es.tEz (V/m) @ t=0.22
5.360524313247342
% V (V) @ t=0.22
0.0059171901888459
% es.normE (V/m) @ t=0.24
7.270864029653081
% es.EX (V/m) @ t=0.24
-4.040083243196071
% es.EY (V/m) @ t=0.24
-0.4360179727490432
% es.EZ (V/m) @ t=0.24
5.409491201019328
% es.tEX (V/m) @ t=0.24
-4.040083243196082
% es.tEY (V/m) @ t=0.24
0
% es.tEZ (V/m) @ t=0.24
5.409491201019323
% es.Ex (V/m) @ t=0.24
-4.040083243196071
% es.Ey (V/m) @ t=0.24
-0.4360179727490432
% es.Ez (V/m) @ t=0.24
5.409491201019328
% es.tEx (V/m) @ t=0.24
-4.040083243196082
% es.tEy (V/m) @ t=0.24
0
% es.tEz (V/m) @ t=0.24
5.409491201019323
% V (V) @ t=0.24
0.005971232935068249
% es.normE (V/m) @ t=0.26
7.336685648094199
% es.EX (V/m) @ t=0.26
-4.076674894560314
% es.EY (V/m) @ t=0.26
-0.4399534940873915
% es.EZ (V/m) @ t=0.26
5.4584580887912955
% es.tEX (V/m) @ t=0.26
-4.076674894560324
% es.tEY (V/m) @ t=0.26
0
% es.tEZ (V/m) @ t=0.26
5.458458088791284
% es.Ex (V/m) @ t=0.26
-4.076674894560314
% es.Ey (V/m) @ t=0.26
-0.4399534940873915
% es.Ez (V/m) @ t=0.26
5.4584580887912955
% es.tEx (V/m) @ t=0.26
-4.076674894560324
% es.tEy (V/m) @ t=0.26
0
% es.tEz (V/m) @ t=0.26
5.458458088791284
% V (V) @ t=0.26
0.006025275681290599
% es.normE (V/m) @ t=0.28
7.405552707548804
% es.EX (V/m) @ t=0.28
-4.114946822656638
% es.EY (V/m) @ t=0.28
-0.4440795405658735
% es.EZ (V/m) @ t=0.28
5.50969355600259
% es.tEX (V/m) @ t=0.28
-4.11494682265664
% es.tEY (V/m) @ t=0.28
0
% es.tEZ (V/m) @ t=0.28
5.509693556002584
% es.Ex (V/m) @ t=0.28
-4.114946822656638
% es.Ey (V/m) @ t=0.28
-0.4440795405658735
% es.Ez (V/m) @ t=0.28
5.50969355600259
% es.tEx (V/m) @ t=0.28
-4.11494682265664
% es.tEy (V/m) @ t=0.28
0
% es.tEz (V/m) @ t=0.28
5.509693556002584
% V (V) @ t=0.28
0.006081828712833257
% es.normE (V/m) @ t=0.3
7.478978406711212
% es.EX (V/m) @ t=0.3
-4.155733912377465
% es.EY (V/m) @ t=0.3
-0.44849077906763934
% es.EZ (V/m) @ t=0.3
5.564324799539921
% es.tEX (V/m) @ t=0.3
-4.155733912377478
% es.tEY (V/m) @ t=0.3
0
% es.tEZ (V/m) @ t=0.3
5.564324799539911
% es.Ex (V/m) @ t=0.3
-4.155733912377465
% es.Ey (V/m) @ t=0.3
-0.44849077906763934
% es.Ez (V/m) @ t=0.3
5.564324799539921
% es.tEx (V/m) @ t=0.3
-4.155733912377478
% es.tEy (V/m) @ t=0.3
0
% es.tEz (V/m) @ t=0.3
5.564324799539911
% V (V) @ t=0.3
0.006142139323817285
% es.normE (V/m) @ t=0.32
7.552404105919688
% es.EX (V/m) @ t=0.32
-4.196521002098293
% es.EY (V/m) @ t=0.32
-0.4529020175694358
% es.EZ (V/m) @ t=0.32
5.61895604307726
% es.tEX (V/m) @ t=0.32
-4.196521002098306
% es.tEY (V/m) @ t=0.32
0
% es.tEZ (V/m) @ t=0.32
5.618956043077251
% es.Ex (V/m) @ t=0.32
-4.196521002098293
% es.Ey (V/m) @ t=0.32
-0.4529020175694358
% es.Ez (V/m) @ t=0.32
5.61895604307726
% es.tEx (V/m) @ t=0.32
-4.196521002098306
% es.tEy (V/m) @ t=0.32
0
% es.tEz (V/m) @ t=0.32
5.618956043077251
% V (V) @ t=0.32
0.0062024499348013115
% es.normE (V/m) @ t=0.34
7.625829805172861
% es.EX (V/m) @ t=0.34
-4.237308091819134
% es.EY (V/m) @ t=0.34
-0.457313256071211
% es.EZ (V/m) @ t=0.34
5.673587286614588
% es.tEX (V/m) @ t=0.34
-4.237308091819137
% es.tEY (V/m) @ t=0.34
0
% es.tEZ (V/m) @ t=0.34
5.673587286614582
% es.Ex (V/m) @ t=0.34
-4.237308091819134
% es.Ey (V/m) @ t=0.34
-0.457313256071211
% es.Ez (V/m) @ t=0.34
5.673587286614588
% es.tEx (V/m) @ t=0.34
-4.237308091819137
% es.tEy (V/m) @ t=0.34
0
% es.tEz (V/m) @ t=0.34
5.673587286614582
% V (V) @ t=0.34
0.006262760545785342
% es.normE (V/m) @ t=0.36
7.699255504469494
% es.EX (V/m) @ t=0.36
-4.278095181539961
% es.EY (V/m) @ t=0.36
-0.46172449457300013
% es.EZ (V/m) @ t=0.36
5.728218530151943
% es.tEX (V/m) @ t=0.36
-4.2780951815399675
% es.tEY (V/m) @ t=0.36
0
% es.tEZ (V/m) @ t=0.36
5.728218530151935
% es.Ex (V/m) @ t=0.36
-4.278095181539961
% es.Ey (V/m) @ t=0.36
-0.46172449457300013
% es.Ez (V/m) @ t=0.36
5.728218530151943
% es.tEx (V/m) @ t=0.36
-4.2780951815399675
% es.tEy (V/m) @ t=0.36
0
% es.tEz (V/m) @ t=0.36
5.728218530151935
% V (V) @ t=0.36
0.00632307115676937
% es.normE (V/m) @ t=0.38
7.772681203808297
% es.EX (V/m) @ t=0.38
-4.3188822712607955
% es.EY (V/m) @ t=0.38
-0.4661357330747642
% es.EZ (V/m) @ t=0.38
5.782849773689264
% es.tEX (V/m) @ t=0.38
-4.318882271260798
% es.tEY (V/m) @ t=0.38
0
% es.tEZ (V/m) @ t=0.38
5.782849773689259
% es.Ex (V/m) @ t=0.38
-4.3188822712607955
% es.Ey (V/m) @ t=0.38
-0.4661357330747642
% es.Ez (V/m) @ t=0.38
5.782849773689264
% es.tEx (V/m) @ t=0.38
-4.318882271260798
% es.tEy (V/m) @ t=0.38
0
% es.tEz (V/m) @ t=0.38
5.782849773689259
% V (V) @ t=0.38
0.006383381767753397
% es.normE (V/m) @ t=0.4
7.846106903188151
% es.EX (V/m) @ t=0.4
-4.35966936098163
% es.EY (V/m) @ t=0.4
-0.4705469715765551
% es.EZ (V/m) @ t=0.4
5.837481017226612
% es.tEX (V/m) @ t=0.4
-4.359669360981636
% es.tEY (V/m) @ t=0.4
0
% es.tEZ (V/m) @ t=0.4
5.837481017226601
% es.Ex (V/m) @ t=0.4
-4.35966936098163
% es.Ey (V/m) @ t=0.4
-0.4705469715765551
% es.Ez (V/m) @ t=0.4
5.837481017226612
% es.tEx (V/m) @ t=0.4
-4.359669360981636
% es.tEy (V/m) @ t=0.4
0
% es.tEz (V/m) @ t=0.4
5.837481017226601
% V (V) @ t=0.4
0.006443692378737424
% es.normE (V/m) @ t=0.42
7.919532602607861
% es.EX (V/m) @ t=0.42
-4.4004564507024675
% es.EY (V/m) @ t=0.42
-0.47495821007833183
% es.EZ (V/m) @ t=0.42
5.89211226076394
% es.tEX (V/m) @ t=0.42
-4.400456450702477
% es.tEY (V/m) @ t=0.42
0
% es.tEZ (V/m) @ t=0.42
5.892112260763939
% es.Ex (V/m) @ t=0.42
-4.4004564507024675
% es.Ey (V/m) @ t=0.42
-0.47495821007833183
% es.Ez (V/m) @ t=0.42
5.89211226076394
% es.tEx (V/m) @ t=0.42
-4.400456450702477
% es.tEy (V/m) @ t=0.42
0
% es.tEz (V/m) @ t=0.42
5.892112260763939
% V (V) @ t=0.42
0.006504002989721453
% es.normE (V/m) @ t=0.44
7.992958302066345
% es.EX (V/m) @ t=0.44
-4.441243540423299
% es.EY (V/m) @ t=0.44
-0.4793694485801052
% es.EZ (V/m) @ t=0.44
5.946743504301273
% es.tEX (V/m) @ t=0.44
-4.441243540423312
% es.tEY (V/m) @ t=0.44
0
% es.tEZ (V/m) @ t=0.44
5.946743504301267
% es.Ex (V/m) @ t=0.44
-4.441243540423299
% es.Ey (V/m) @ t=0.44
-0.4793694485801052
% es.Ez (V/m) @ t=0.44
5.946743504301273
% es.tEx (V/m) @ t=0.44
-4.441243540423312
% es.tEy (V/m) @ t=0.44
0
% es.tEz (V/m) @ t=0.44
5.946743504301267
% V (V) @ t=0.44
0.0065643136007054815
% es.normE (V/m) @ t=0.46
8.066384001562568
% es.EX (V/m) @ t=0.46
-4.482030630144136
% es.EY (V/m) @ t=0.46
-0.4837806870818908
% es.EZ (V/m) @ t=0.46
6.0013747478386135
% es.tEX (V/m) @ t=0.46
-4.482030630144135
% es.tEY (V/m) @ t=0.46
0
% es.tEZ (V/m) @ t=0.46
6.001374747838611
% es.Ex (V/m) @ t=0.46
-4.482030630144136
% es.Ey (V/m) @ t=0.46
-0.4837806870818908
% es.Ez (V/m) @ t=0.46
6.0013747478386135
% es.tEx (V/m) @ t=0.46
-4.482030630144135
% es.tEy (V/m) @ t=0.46
0
% es.tEz (V/m) @ t=0.46
6.001374747838611
% V (V) @ t=0.46
0.0066246242116895105
% es.normE (V/m) @ t=0.48
8.139809701095476
% es.EX (V/m) @ t=0.48
-4.5228177198649675
% es.EY (V/m) @ t=0.48
-0.488191925583664
% es.EZ (V/m) @ t=0.48
6.056005991375947
% es.tEX (V/m) @ t=0.48
-4.522817719864981
% es.tEY (V/m) @ t=0.48
0
% es.tEZ (V/m) @ t=0.48
6.0560059913759385
% es.Ex (V/m) @ t=0.48
-4.5228177198649675
% es.Ey (V/m) @ t=0.48
-0.488191925583664
% es.Ez (V/m) @ t=0.48
6.056005991375947
% es.tEx (V/m) @ t=0.48
-4.522817719864981
% es.tEy (V/m) @ t=0.48
0
% es.tEz (V/m) @ t=0.48
6.0560059913759385
% V (V) @ t=0.48
0.006684934822673538
% es.normE (V/m) @ t=0.5
8.213235400664106
% es.EX (V/m) @ t=0.5
-4.563604809585795
% es.EY (V/m) @ t=0.5
-0.4926031640854547
% es.EZ (V/m) @ t=0.5
6.110637234913284
% es.tEX (V/m) @ t=0.5
-4.563604809585801
% es.tEY (V/m) @ t=0.5
0
% es.tEZ (V/m) @ t=0.5
6.1106372349132805
% es.Ex (V/m) @ t=0.5
-4.563604809585795
% es.Ey (V/m) @ t=0.5
-0.4926031640854547
% es.Ez (V/m) @ t=0.5
6.110637234913284
% es.tEx (V/m) @ t=0.5
-4.563604809585801
% es.tEy (V/m) @ t=0.5
0
% es.tEz (V/m) @ t=0.5
6.1106372349132805
% V (V) @ t=0.5
0.006745245433657567
% es.normE (V/m) @ t=0.52
8.28666110026749
% es.EX (V/m) @ t=0.52
-4.604391899306632
% es.EY (V/m) @ t=0.52
-0.49701440258724405
% es.EZ (V/m) @ t=0.52
6.165268478450614
% es.tEX (V/m) @ t=0.52
-4.604391899306639
% es.tEY (V/m) @ t=0.52
0
% es.tEZ (V/m) @ t=0.52
6.165268478450606
% es.Ex (V/m) @ t=0.52
-4.604391899306632
% es.Ey (V/m) @ t=0.52
-0.49701440258724405
% es.Ez (V/m) @ t=0.52
6.165268478450614
% es.tEx (V/m) @ t=0.52
-4.604391899306639
% es.tEy (V/m) @ t=0.52
0
% es.tEz (V/m) @ t=0.52
6.165268478450606
% V (V) @ t=0.52
0.006805556044641595
% es.normE (V/m) @ t=0.54
8.360086799904733
% es.EX (V/m) @ t=0.54
-4.6451789890274675
% es.EY (V/m) @ t=0.54
-0.5014256410890119
% es.EZ (V/m) @ t=0.54
6.219899721987951
% es.tEX (V/m) @ t=0.54
-4.64517898902747
% es.tEY (V/m) @ t=0.54
0
% es.tEZ (V/m) @ t=0.54
6.219899721987939
% es.Ex (V/m) @ t=0.54
-4.6451789890274675
% es.Ey (V/m) @ t=0.54
-0.5014256410890119
% es.Ez (V/m) @ t=0.54
6.219899721987951
% es.tEx (V/m) @ t=0.54
-4.64517898902747
% es.tEy (V/m) @ t=0.54
0
% es.tEz (V/m) @ t=0.54
6.219899721987939
% V (V) @ t=0.54
0.006865866655625623
% es.normE (V/m) @ t=0.56
8.440370881726825
% es.EX (V/m) @ t=0.56
-4.68978741208167
% es.EY (V/m) @ t=0.56
-0.5062412508496061
% es.EZ (V/m) @ t=0.56
6.279631131584986
% es.tEX (V/m) @ t=0.56
-4.689787412081676
% es.tEY (V/m) @ t=0.56
0
% es.tEZ (V/m) @ t=0.56
6.279631131584978
% es.Ex (V/m) @ t=0.56
-4.68978741208167
% es.Ey (V/m) @ t=0.56
-0.5062412508496061
% es.Ez (V/m) @ t=0.56
6.279631131584986
% es.tEx (V/m) @ t=0.56
-4.689787412081676
% es.tEy (V/m) @ t=0.56
0
% es.tEz (V/m) @ t=0.56
6.279631131584978
% V (V) @ t=0.56
0.006931801684102084
% es.normE (V/m) @ t=0.58
8.522253748439624
% es.EX (V/m) @ t=0.58
-4.735286641428818
% es.EY (V/m) @ t=0.58
-0.5111511252112046
% es.EZ (V/m) @ t=0.58
6.340551461285171
% es.tEX (V/m) @ t=0.58
-4.735286641428824
% es.tEY (V/m) @ t=0.58
0
% es.tEZ (V/m) @ t=0.58
6.340551461285162
% es.Ex (V/m) @ t=0.58
-4.735286641428818
% es.Ey (V/m) @ t=0.58
-0.5111511252112046
% es.Ez (V/m) @ t=0.58
6.340551461285171
% es.tEx (V/m) @ t=0.58
-4.735286641428824
% es.tEy (V/m) @ t=0.58
0
% es.tEz (V/m) @ t=0.58
6.340551461285162
% V (V) @ t=0.58
0.00699904784302942
% es.normE (V/m) @ t=0.6
8.604136615153518
% es.EX (V/m) @ t=0.6
-4.780785870775963
% es.EY (V/m) @ t=0.6
-0.516060999572808
% es.EZ (V/m) @ t=0.6
6.401471790985375
% es.tEX (V/m) @ t=0.6
-4.780785870775969
% es.tEY (V/m) @ t=0.6
0
% es.tEZ (V/m) @ t=0.6
6.401471790985366
% es.Ex (V/m) @ t=0.6
-4.780785870775963
% es.Ey (V/m) @ t=0.6
-0.516060999572808
% es.Ez (V/m) @ t=0.6
6.401471790985375
% es.tEx (V/m) @ t=0.6
-4.780785870775969
% es.tEy (V/m) @ t=0.6
0
% es.tEz (V/m) @ t=0.6
6.401471790985366
% V (V) @ t=0.6
0.007066294001956758
% es.normE (V/m) @ t=0.62
8.686019481868456
% es.EX (V/m) @ t=0.62
-4.826285100123117
% es.EY (V/m) @ t=0.62
-0.5209708739343994
% es.EZ (V/m) @ t=0.62
6.4623921206855695
% es.tEX (V/m) @ t=0.62
-4.826285100123127
% es.tEY (V/m) @ t=0.62
0
% es.tEZ (V/m) @ t=0.62
6.462392120685568
% es.Ex (V/m) @ t=0.62
-4.826285100123117
% es.Ey (V/m) @ t=0.62
-0.5209708739343994
% es.Ez (V/m) @ t=0.62
6.4623921206855695
% es.tEx (V/m) @ t=0.62
-4.826285100123127
% es.tEy (V/m) @ t=0.62
0
% es.tEz (V/m) @ t=0.62
6.462392120685568
% V (V) @ t=0.62
0.007133540160884097
% es.normE (V/m) @ t=0.64
8.767902348584425
% es.EX (V/m) @ t=0.64
-4.87178432947027
% es.EY (V/m) @ t=0.64
-0.5258807482959997
% es.EZ (V/m) @ t=0.64
6.523312450385766
% es.tEX (V/m) @ t=0.64
-4.871784329470276
% es.tEY (V/m) @ t=0.64
0
% es.tEZ (V/m) @ t=0.64
6.523312450385758
% es.Ex (V/m) @ t=0.64
-4.87178432947027
% es.Ey (V/m) @ t=0.64
-0.5258807482959997
% es.Ez (V/m) @ t=0.64
6.523312450385766
% es.tEx (V/m) @ t=0.64
-4.871784329470276
% es.tEy (V/m) @ t=0.64
0
% es.tEz (V/m) @ t=0.64
6.523312450385758
% V (V) @ t=0.64
0.007200786319811433
% es.normE (V/m) @ t=0.66
8.84978521530136
% es.EX (V/m) @ t=0.66
-4.91728355881741
% es.EY (V/m) @ t=0.66
-0.5307906226576127
% es.EZ (V/m) @ t=0.66
6.584232780085951
% es.tEX (V/m) @ t=0.66
-4.917283558817417
% es.tEY (V/m) @ t=0.66
0
% es.tEZ (V/m) @ t=0.66
6.584232780085947
% es.Ex (V/m) @ t=0.66
-4.91728355881741
% es.Ey (V/m) @ t=0.66
-0.5307906226576127
% es.Ez (V/m) @ t=0.66
6.584232780085951
% es.tEx (V/m) @ t=0.66
-4.917283558817417
% es.tEy (V/m) @ t=0.66
0
% es.tEz (V/m) @ t=0.66
6.584232780085947
% V (V) @ t=0.66
0.007268032478738771
% es.normE (V/m) @ t=0.68
8.931668082019279
% es.EX (V/m) @ t=0.68
-4.962782788164568
% es.EY (V/m) @ t=0.68
-0.535700497019209
% es.EZ (V/m) @ t=0.68
6.645153109786152
% es.tEX (V/m) @ t=0.68
-4.962782788164574
% es.tEY (V/m) @ t=0.68
0
% es.tEZ (V/m) @ t=0.68
6.645153109786142
% es.Ex (V/m) @ t=0.68
-4.962782788164568
% es.Ey (V/m) @ t=0.68
-0.535700497019209
% es.Ez (V/m) @ t=0.68
6.645153109786152
% es.tEx (V/m) @ t=0.68
-4.962782788164574
% es.tEy (V/m) @ t=0.68
0
% es.tEz (V/m) @ t=0.68
6.645153109786142
% V (V) @ t=0.68
0.007335278637666111
% es.normE (V/m) @ t=0.7
9.013550948738152
% es.EX (V/m) @ t=0.7
-5.00828201751171
% es.EY (V/m) @ t=0.7
-0.5406103713808164
% es.EZ (V/m) @ t=0.7
6.706073439486372
% es.tEX (V/m) @ t=0.7
-5.008282017511716
% es.tEY (V/m) @ t=0.7
0
% es.tEZ (V/m) @ t=0.7
6.706073439486364
% es.Ex (V/m) @ t=0.7
-5.00828201751171
% es.Ey (V/m) @ t=0.7
-0.5406103713808164
% es.Ez (V/m) @ t=0.7
6.706073439486372
% es.tEx (V/m) @ t=0.7
-5.008282017511716
% es.tEy (V/m) @ t=0.7
0
% es.tEz (V/m) @ t=0.7
6.706073439486364
% V (V) @ t=0.7
0.0074025247965934455
% es.normE (V/m) @ t=0.72
9.095433815457907
% es.EX (V/m) @ t=0.72
-5.053781246858861
% es.EY (V/m) @ t=0.72
-0.5455202457424202
% es.EZ (V/m) @ t=0.72
6.766993769186553
% es.tEX (V/m) @ t=0.72
-5.053781246858864
% es.tEY (V/m) @ t=0.72
0
% es.tEZ (V/m) @ t=0.72
6.766993769186542
% es.Ex (V/m) @ t=0.72
-5.053781246858861
% es.Ey (V/m) @ t=0.72
-0.5455202457424202
% es.Ez (V/m) @ t=0.72
6.766993769186553
% es.tEx (V/m) @ t=0.72
-5.053781246858864
% es.tEy (V/m) @ t=0.72
0
% es.tEz (V/m) @ t=0.72
6.766993769186542
% V (V) @ t=0.72
0.007469770955520784
% es.normE (V/m) @ t=0.74
9.177316682178539
% es.EX (V/m) @ t=0.74
-5.0992804762060056
% es.EY (V/m) @ t=0.74
-0.5504301201039974
% es.EZ (V/m) @ t=0.74
6.827914098886748
% es.tEX (V/m) @ t=0.74
-5.099280476206015
% es.tEY (V/m) @ t=0.74
0
% es.tEZ (V/m) @ t=0.74
6.827914098886739
% es.Ex (V/m) @ t=0.74
-5.0992804762060056
% es.Ey (V/m) @ t=0.74
-0.5504301201039974
% es.Ez (V/m) @ t=0.74
6.827914098886748
% es.tEx (V/m) @ t=0.74
-5.099280476206015
% es.tEy (V/m) @ t=0.74
0
% es.tEz (V/m) @ t=0.74
6.827914098886739
% V (V) @ t=0.74
0.007537017114448121
% es.normE (V/m) @ t=0.76
9.25919954890007
% es.EX (V/m) @ t=0.76
-5.144779705553154
% es.EY (V/m) @ t=0.76
-0.5553399944656188
% es.EZ (V/m) @ t=0.76
6.888834428586949
% es.tEX (V/m) @ t=0.76
-5.144779705553164
% es.tEY (V/m) @ t=0.76
0
% es.tEZ (V/m) @ t=0.76
6.888834428586941
% es.Ex (V/m) @ t=0.76
-5.144779705553154
% es.Ey (V/m) @ t=0.76
-0.5553399944656188
% es.Ez (V/m) @ t=0.76
6.888834428586949
% es.tEx (V/m) @ t=0.76
-5.144779705553164
% es.tEy (V/m) @ t=0.76
0
% es.tEz (V/m) @ t=0.76
6.888834428586941
% V (V) @ t=0.76
0.007604263273375459
% es.normE (V/m) @ t=0.78
9.341082415622413
% es.EX (V/m) @ t=0.78
-5.190278934900301
% es.EY (V/m) @ t=0.78
-0.560249868827212
% es.EZ (V/m) @ t=0.78
6.9497547582871375
% es.tEX (V/m) @ t=0.78
-5.190278934900311
% es.tEY (V/m) @ t=0.78
0
% es.tEZ (V/m) @ t=0.78
6.949754758287127
% es.Ex (V/m) @ t=0.78
-5.190278934900301
% es.Ey (V/m) @ t=0.78
-0.560249868827212
% es.Ez (V/m) @ t=0.78
6.9497547582871375
% es.tEx (V/m) @ t=0.78
-5.190278934900311
% es.tEy (V/m) @ t=0.78
0
% es.tEz (V/m) @ t=0.78
6.949754758287127
% V (V) @ t=0.78
0.007671509432302796
% es.normE (V/m) @ t=0.8
9.42296528234559
% es.EX (V/m) @ t=0.8
-5.235778164247449
% es.EY (V/m) @ t=0.8
-0.5651597431888227
% es.EZ (V/m) @ t=0.8
7.010675087987333
% es.tEX (V/m) @ t=0.8
-5.2357781642474555
% es.tEY (V/m) @ t=0.8
0
% es.tEZ (V/m) @ t=0.8
7.010675087987327
% es.Ex (V/m) @ t=0.8
-5.235778164247449
% es.Ey (V/m) @ t=0.8
-0.5651597431888227
% es.Ez (V/m) @ t=0.8
7.010675087987333
% es.tEx (V/m) @ t=0.8
-5.2357781642474555
% es.tEy (V/m) @ t=0.8
0
% es.tEz (V/m) @ t=0.8
7.010675087987327
% V (V) @ t=0.8
0.007738755591230134
% es.normE (V/m) @ t=0.82
9.506981203745543
% es.EX (V/m) @ t=0.82
-5.2824637931132115
% es.EY (V/m) @ t=0.82
-0.5701967624358768
% es.EZ (V/m) @ t=0.82
7.073182135718598
% es.tEX (V/m) @ t=0.82
-5.282463793113218
% es.tEY (V/m) @ t=0.82
0
% es.tEZ (V/m) @ t=0.82
7.073182135718591
% es.Ex (V/m) @ t=0.82
-5.2824637931132115
% es.Ey (V/m) @ t=0.82
-0.5701967624358768
% es.Ez (V/m) @ t=0.82
7.073182135718598
% es.tEx (V/m) @ t=0.82
-5.282463793113218
% es.tEy (V/m) @ t=0.82
0
% es.tEz (V/m) @ t=0.82
7.073182135718591
% V (V) @ t=0.82
0.007807752650570929
% es.normE (V/m) @ t=0.84
9.598498064065634
% es.EX (V/m) @ t=0.84
-5.3333214248887595
% es.EY (V/m) @ t=0.84
-0.5756808897808137
% es.EZ (V/m) @ t=0.84
7.141268916194699
% es.tEX (V/m) @ t=0.84
-5.333321424888773
% es.tEY (V/m) @ t=0.84
0
% es.tEZ (V/m) @ t=0.84
7.141268916194693
% es.Ex (V/m) @ t=0.84
-5.3333214248887595
% es.Ey (V/m) @ t=0.84
-0.5756808897808137
% es.Ez (V/m) @ t=0.84
7.141268916194699
% es.tEx (V/m) @ t=0.84
-5.333321424888773
% es.tEy (V/m) @ t=0.84
0
% es.tEz (V/m) @ t=0.84
7.141268916194693
% V (V) @ t=0.84
0.007882906794017864
% es.normE (V/m) @ t=0.86
9.690014924397696
% es.EX (V/m) @ t=0.86
-5.384179056664295
% es.EY (V/m) @ t=0.86
-0.5811650171257399
% es.EZ (V/m) @ t=0.86
7.209355696670782
% es.tEX (V/m) @ t=0.86
-5.384179056664305
% es.tEY (V/m) @ t=0.86
0
% es.tEZ (V/m) @ t=0.86
7.20935569667077
% es.Ex (V/m) @ t=0.86
-5.384179056664295
% es.Ey (V/m) @ t=0.86
-0.5811650171257399
% es.Ez (V/m) @ t=0.86
7.209355696670782
% es.tEx (V/m) @ t=0.86
-5.384179056664305
% es.tEy (V/m) @ t=0.86
0
% es.tEz (V/m) @ t=0.86
7.20935569667077
% V (V) @ t=0.86
0.007958060937464798
% es.normE (V/m) @ t=0.88
9.78153178474144
% es.EX (V/m) @ t=0.88
-5.435036688439827
% es.EY (V/m) @ t=0.88
-0.5866491444706772
% es.EZ (V/m) @ t=0.88
7.277442477146876
% es.tEX (V/m) @ t=0.88
-5.435036688439826
% es.tEY (V/m) @ t=0.88
0
% es.tEZ (V/m) @ t=0.88
7.2774424771468675
% es.Ex (V/m) @ t=0.88
-5.435036688439827
% es.Ey (V/m) @ t=0.88
-0.5866491444706772
% es.Ez (V/m) @ t=0.88
7.277442477146876
% es.tEx (V/m) @ t=0.88
-5.435036688439826
% es.tEy (V/m) @ t=0.88
0
% es.tEz (V/m) @ t=0.88
7.2774424771468675
% V (V) @ t=0.88
0.008033215080911734
% es.normE (V/m) @ t=0.9
9.873048645096517
% es.EX (V/m) @ t=0.9
-5.485894320215373
% es.EY (V/m) @ t=0.9
-0.5921332718155963
% es.EZ (V/m) @ t=0.9
7.345529257622977
% es.tEX (V/m) @ t=0.9
-5.485894320215383
% es.tEY (V/m) @ t=0.9
0
% es.tEZ (V/m) @ t=0.9
7.345529257622974
% es.Ex (V/m) @ t=0.9
-5.485894320215373
% es.Ey (V/m) @ t=0.9
-0.5921332718155963
% es.Ez (V/m) @ t=0.9
7.345529257622977
% es.tEx (V/m) @ t=0.9
-5.485894320215383
% es.tEy (V/m) @ t=0.9
0
% es.tEz (V/m) @ t=0.9
7.345529257622974
% V (V) @ t=0.9
0.008108369224358668
% es.normE (V/m) @ t=0.92
9.964565505462613
% es.EX (V/m) @ t=0.92
-5.536751951990892
% es.EY (V/m) @ t=0.92
-0.5976173991605296
% es.EZ (V/m) @ t=0.92
7.413616038099071
% es.tEX (V/m) @ t=0.92
-5.536751951990897
% es.tEY (V/m) @ t=0.92
0
% es.tEZ (V/m) @ t=0.92
7.41361603809906
% es.Ex (V/m) @ t=0.92
-5.536751951990892
% es.Ey (V/m) @ t=0.92
-0.5976173991605296
% es.Ez (V/m) @ t=0.92
7.413616038099071
% es.tEx (V/m) @ t=0.92
-5.536751951990897
% es.tEy (V/m) @ t=0.92
0
% es.tEz (V/m) @ t=0.92
7.41361603809906
% V (V) @ t=0.92
0.008183523367805604
% es.normE (V/m) @ t=0.94
10.05608236583944
% es.EX (V/m) @ t=0.94
-5.587609583766438
% es.EY (V/m) @ t=0.94
-0.6031015265054434
% es.EZ (V/m) @ t=0.94
7.481702818575172
% es.tEX (V/m) @ t=0.94
-5.587609583766447
% es.tEY (V/m) @ t=0.94
0
% es.tEZ (V/m) @ t=0.94
7.4817028185751555
% es.Ex (V/m) @ t=0.94
-5.587609583766438
% es.Ey (V/m) @ t=0.94
-0.6031015265054434
% es.Ez (V/m) @ t=0.94
7.481702818575172
% es.tEx (V/m) @ t=0.94
-5.587609583766447
% es.tEy (V/m) @ t=0.94
0
% es.tEz (V/m) @ t=0.94
7.4817028185751555
% V (V) @ t=0.94
0.008258677511252538
% es.normE (V/m) @ t=0.96
10.147599226226689
% es.EX (V/m) @ t=0.96
-5.638467215541963
% es.EY (V/m) @ t=0.96
-0.6085856538503713
% es.EZ (V/m) @ t=0.96
7.549789599051272
% es.tEX (V/m) @ t=0.96
-5.6384672155419695
% es.tEY (V/m) @ t=0.96
0
% es.tEZ (V/m) @ t=0.96
7.5497895990512625
% es.Ex (V/m) @ t=0.96
-5.638467215541963
% es.Ey (V/m) @ t=0.96
-0.6085856538503713
% es.Ez (V/m) @ t=0.96
7.549789599051272
% es.tEx (V/m) @ t=0.96
-5.6384672155419695
% es.tEy (V/m) @ t=0.96
0
% es.tEz (V/m) @ t=0.96
7.5497895990512625
% V (V) @ t=0.96
0.008333831654699473
% es.normE (V/m) @ t=0.98
10.239116086624108
% es.EX (V/m) @ t=0.98
-5.689324847317502
% es.EY (V/m) @ t=0.98
-0.6140697811953069
% es.EZ (V/m) @ t=0.98
7.617876379527372
% es.tEX (V/m) @ t=0.98
-5.689324847317519
% es.tEY (V/m) @ t=0.98
0
% es.tEZ (V/m) @ t=0.98
7.617876379527363
% es.Ex (V/m) @ t=0.98
-5.689324847317502
% es.Ey (V/m) @ t=0.98
-0.6140697811953069
% es.Ez (V/m) @ t=0.98
7.617876379527372
% es.tEx (V/m) @ t=0.98
-5.689324847317519
% es.tEy (V/m) @ t=0.98
0
% es.tEz (V/m) @ t=0.98
7.617876379527363
% V (V) @ t=0.98
0.008408985798146409
% es.normE (V/m) @ t=1
10.33063294703139
% es.EX (V/m) @ t=1
-5.740182479093042
% es.EY (V/m) @ t=1
-0.6195539085402331
% es.EZ (V/m) @ t=1
7.685963160003456
% es.tEX (V/m) @ t=1
-5.740182479093055
% es.tEY (V/m) @ t=1
0
% es.tEZ (V/m) @ t=1
7.685963160003444
% es.Ex (V/m) @ t=1
-5.740182479093042
% es.Ey (V/m) @ t=1
-0.6195539085402331
% es.Ez (V/m) @ t=1
7.685963160003456
% es.tEx (V/m) @ t=1
-5.740182479093055
% es.tEy (V/m) @ t=1
0
% es.tEz (V/m) @ t=1
7.685963160003444
% V (V) @ t=1
0.008484139941593343
% es.normE (V/m) @ t=1.02
10.422149807448303
% es.EX (V/m) @ t=1.02
-5.791040110868577
% es.EY (V/m) @ t=1.02
-0.6250380358851628
% es.EZ (V/m) @ t=1.02
7.754049940479542
% es.tEX (V/m) @ t=1.02
-5.791040110868583
% es.tEY (V/m) @ t=1.02
0
% es.tEZ (V/m) @ t=1.02
7.754049940479536
% es.Ex (V/m) @ t=1.02
-5.791040110868577
% es.Ey (V/m) @ t=1.02
-0.6250380358851628
% es.Ez (V/m) @ t=1.02
7.754049940479542
% es.tEx (V/m) @ t=1.02
-5.791040110868583
% es.tEy (V/m) @ t=1.02
0
% es.tEz (V/m) @ t=1.02
7.754049940479536
% V (V) @ t=1.02
0.008559294085040279
% es.normE (V/m) @ t=1.04
10.51366666787461
% es.EX (V/m) @ t=1.04
-5.84189774264411
% es.EY (V/m) @ t=1.04
-0.6305221632301055
% es.EZ (V/m) @ t=1.04
7.822136720955661
% es.tEX (V/m) @ t=1.04
-5.841897742644112
% es.tEY (V/m) @ t=1.04
0
% es.tEZ (V/m) @ t=1.04
7.822136720955651
% es.Ex (V/m) @ t=1.04
-5.84189774264411
% es.Ey (V/m) @ t=1.04
-0.6305221632301055
% es.Ez (V/m) @ t=1.04
7.822136720955661
% es.tEx (V/m) @ t=1.04
-5.841897742644112
% es.tEy (V/m) @ t=1.04
0
% es.tEz (V/m) @ t=1.04
7.822136720955651
% V (V) @ t=1.04