% Model:              1 neuron.mph
% Version:            COMSOL 6.0.0.405
% Date:               Mar 9 2023, 14:13
% Dimension:          0
% Nodes:              14017
% Expressions:        14017
% Description:        Electric field norm, Electric field, X component, Electric field, Y component, Electric field, Z component, Tangential electric field, X component, Tangential electric field, Y component, Tangential electric field, Z component, Electric field, x component, Electric field, y component, Electric field, z component, Tangential electric field, x component, Tangential electric field, y component, Tangential electric field, z component, Electric potential
% Length unit:        mm
% x
1.3300000000000003
% y
12.200000000000001
% z
1.66
% es.normE (V/m) @ t=0
7.339264879505082
% es.EX (V/m) @ t=0
4.657494001548324
% es.EY (V/m) @ t=0
1.3927532387570125
% es.EZ (V/m) @ t=0
-5.101669460911172
% es.tEX (V/m) @ t=0
4.657494001548305
% es.tEY (V/m) @ t=0
0
% es.tEZ (V/m) @ t=0
-5.101669460911161
% es.Ex (V/m) @ t=0
4.657494001548324
% es.Ey (V/m) @ t=0
1.3927532387570125
% es.Ez (V/m) @ t=0
-5.101669460911172
% es.tEx (V/m) @ t=0
4.657494001548305
% es.tEy (V/m) @ t=0
0
% es.tEz (V/m) @ t=0
-5.101669460911161
% V (V) @ t=0
0.006286656707169757
% es.normE (V/m) @ t=0.02
6.3390508876484635
% es.EX (V/m) @ t=0.02
4.022758680228515
% es.EY (V/m) @ t=0.02
1.2029452269401095
% es.EZ (V/m) @ t=0.02
-4.406400756000109
% es.tEX (V/m) @ t=0.02
4.022758680228501
% es.tEY (V/m) @ t=0.02
0
% es.tEZ (V/m) @ t=0.02
-4.406400756000102
% es.Ex (V/m) @ t=0.02
4.022758680228515
% es.Ey (V/m) @ t=0.02
1.2029452269401095
% es.Ez (V/m) @ t=0.02
-4.406400756000109
% es.tEx (V/m) @ t=0.02
4.022758680228501
% es.tEy (V/m) @ t=0.02
0
% es.tEz (V/m) @ t=0.02
-4.406400756000102
% V (V) @ t=0.02
0.005429894872507293
% es.normE (V/m) @ t=0.04
6.397346024559868
% es.EX (V/m) @ t=0.04
4.059752747265236
% es.EY (V/m) @ t=0.04
1.2140077437852859
% es.EZ (V/m) @ t=0.04
-4.446922868233257
% es.tEX (V/m) @ t=0.04
4.059752747265231
% es.tEY (V/m) @ t=0.04
0
% es.tEZ (V/m) @ t=0.04
-4.446922868233249
% es.Ex (V/m) @ t=0.04
4.059752747265236
% es.Ey (V/m) @ t=0.04
1.2140077437852859
% es.Ez (V/m) @ t=0.04
-4.446922868233257
% es.tEx (V/m) @ t=0.04
4.059752747265231
% es.tEy (V/m) @ t=0.04
0
% es.tEz (V/m) @ t=0.04
-4.446922868233249
% V (V) @ t=0.04
0.0054798292326721084
% es.normE (V/m) @ t=0.06
6.4561564889073075
% es.EX (V/m) @ t=0.06
4.0970738366609645
% es.EY (V/m) @ t=0.06
1.2251680525474817
% es.EZ (V/m) @ t=0.06
-4.4878031978021244
% es.tEX (V/m) @ t=0.06
4.0970738366609565
% es.tEY (V/m) @ t=0.06
0
% es.tEZ (V/m) @ t=0.06
-4.48780319780211
% es.Ex (V/m) @ t=0.06
4.0970738366609645
% es.Ey (V/m) @ t=0.06
1.2251680525474817
% es.Ez (V/m) @ t=0.06
-4.4878031978021244
% es.tEx (V/m) @ t=0.06
4.0970738366609565
% es.tEy (V/m) @ t=0.06
0
% es.tEz (V/m) @ t=0.06
-4.48780319780211
% V (V) @ t=0.06
0.005530205022589065
% es.normE (V/m) @ t=0.08
6.515888538452627
% es.EX (V/m) @ t=0.08
4.134979765083864
% es.EY (V/m) @ t=0.08
1.2365032482919736
% es.EZ (V/m) @ t=0.08
-4.529324138572255
% es.tEX (V/m) @ t=0.08
4.134979765083854
% es.tEY (V/m) @ t=0.08
0
% es.tEZ (V/m) @ t=0.08
-4.529324138572247
% es.Ex (V/m) @ t=0.08
4.134979765083864
% es.Ey (V/m) @ t=0.08
1.2365032482919736
% es.Ez (V/m) @ t=0.08
-4.529324138572255
% es.tEx (V/m) @ t=0.08
4.134979765083854
% es.tEy (V/m) @ t=0.08
0
% es.tEz (V/m) @ t=0.08
-4.529324138572247
% V (V) @ t=0.08
0.00558137021854694
% es.normE (V/m) @ t=0.1
6.576211634314804
% es.EX (V/m) @ t=0.1
4.1732607721796136
% es.EY (V/m) @ t=0.1
1.2479506054589693
% es.EZ (V/m) @ t=0.1
-4.571255926751742
% es.tEX (V/m) @ t=0.1
4.173260772179611
% es.tEY (V/m) @ t=0.1
0
% es.tEZ (V/m) @ t=0.1
-4.571255926751734
% es.Ex (V/m) @ t=0.1
4.1732607721796136
% es.Ey (V/m) @ t=0.1
1.2479506054589693
% es.Ez (V/m) @ t=0.1
-4.571255926751742
% es.tEx (V/m) @ t=0.1
4.173260772179611
% es.tEy (V/m) @ t=0.1
0
% es.tEz (V/m) @ t=0.1
-4.571255926751734
% V (V) @ t=0.1
0.005633041689490666
% es.normE (V/m) @ t=0.12
6.636534730177001
% es.EX (V/m) @ t=0.12
4.211541779275397
% es.EY (V/m) @ t=0.12
1.2593979626259706
% es.EZ (V/m) @ t=0.12
-4.613187714931225
% es.tEX (V/m) @ t=0.12
4.211541779275382
% es.tEY (V/m) @ t=0.12
0
% es.tEZ (V/m) @ t=0.12
-4.613187714931215
% es.Ex (V/m) @ t=0.12
4.211541779275397
% es.Ey (V/m) @ t=0.12
1.2593979626259706
% es.Ez (V/m) @ t=0.12
-4.613187714931225
% es.tEx (V/m) @ t=0.12
4.211541779275382
% es.tEy (V/m) @ t=0.12
0
% es.tEz (V/m) @ t=0.12
-4.613187714931215
% V (V) @ t=0.12
0.0056847131604343916
% es.normE (V/m) @ t=0.14
6.6975886329187
% es.EX (V/m) @ t=0.14
4.2502865561910586
% es.EY (V/m) @ t=0.14
1.270984003129611
% es.EZ (V/m) @ t=0.14
-4.655627501470062
% es.tEX (V/m) @ t=0.14
4.250286556191048
% es.tEY (V/m) @ t=0.14
0
% es.tEZ (V/m) @ t=0.14
-4.655627501470054
% es.Ex (V/m) @ t=0.14
4.2502865561910586
% es.Ey (V/m) @ t=0.14
1.270984003129611
% es.Ez (V/m) @ t=0.14
-4.655627501470062
% es.tEx (V/m) @ t=0.14
4.250286556191048
% es.tEy (V/m) @ t=0.14
0
% es.tEz (V/m) @ t=0.14
-4.655627501470054
% V (V) @ t=0.14
0.00573701062452365
% es.normE (V/m) @ t=0.16
6.76111107393398
% es.EX (V/m) @ t=0.16
4.290597866732332
% es.EY (V/m) @ t=0.16
1.283038491774615
% es.EZ (V/m) @ t=0.16
-4.699783217932464
% es.tEX (V/m) @ t=0.16
4.290597866732328
% es.tEY (V/m) @ t=0.16
0
% es.tEZ (V/m) @ t=0.16
-4.699783217932457
% es.Ex (V/m) @ t=0.16
4.290597866732332
% es.Ey (V/m) @ t=0.16
1.283038491774615
% es.Ez (V/m) @ t=0.16
-4.699783217932464
% es.tEx (V/m) @ t=0.16
4.290597866732328
% es.tEy (V/m) @ t=0.16
0
% es.tEz (V/m) @ t=0.16
-4.699783217932457
% V (V) @ t=0.16
0.005791422584360047
% es.normE (V/m) @ t=0.18
6.8246335149492445
% es.EX (V/m) @ t=0.18
4.33090917727359
% es.EY (V/m) @ t=0.18
1.2950929804196103
% es.EZ (V/m) @ t=0.18
-4.743938934394856
% es.tEX (V/m) @ t=0.18
4.330909177273572
% es.tEY (V/m) @ t=0.18
0
% es.tEZ (V/m) @ t=0.18
-4.743938934394852
% es.Ex (V/m) @ t=0.18
4.33090917727359
% es.Ey (V/m) @ t=0.18
1.2950929804196103
% es.Ez (V/m) @ t=0.18
-4.743938934394856
% es.tEx (V/m) @ t=0.18
4.330909177273572
% es.tEy (V/m) @ t=0.18
0
% es.tEz (V/m) @ t=0.18
-4.743938934394852
% V (V) @ t=0.18
0.005845834544196446
% es.normE (V/m) @ t=0.2
6.888155955964512
% es.EX (V/m) @ t=0.2
4.371220487814834
% es.EY (V/m) @ t=0.2
1.3071474690646039
% es.EZ (V/m) @ t=0.2
-4.788094650857272
% es.tEX (V/m) @ t=0.2
4.371220487814822
% es.tEY (V/m) @ t=0.2
0
% es.tEZ (V/m) @ t=0.2
-4.7880946508572615
% es.Ex (V/m) @ t=0.2
4.371220487814834
% es.Ey (V/m) @ t=0.2
1.3071474690646039
% es.Ez (V/m) @ t=0.2
-4.788094650857272
% es.tEx (V/m) @ t=0.2
4.371220487814822
% es.tEy (V/m) @ t=0.2
0
% es.tEz (V/m) @ t=0.2
-4.7880946508572615
% V (V) @ t=0.2
0.005900246504032843
% es.normE (V/m) @ t=0.22
6.951678396979796
% es.EX (V/m) @ t=0.22
4.411531798356092
% es.EY (V/m) @ t=0.22
1.3192019577095973
% es.EZ (V/m) @ t=0.22
-4.832250367319686
% es.tEX (V/m) @ t=0.22
4.411531798356082
% es.tEY (V/m) @ t=0.22
0
% es.tEZ (V/m) @ t=0.22
-4.832250367319671
% es.Ex (V/m) @ t=0.22
4.411531798356092
% es.Ey (V/m) @ t=0.22
1.3192019577095973
% es.Ez (V/m) @ t=0.22
-4.832250367319686
% es.tEx (V/m) @ t=0.22
4.411531798356082
% es.tEy (V/m) @ t=0.22
0
% es.tEz (V/m) @ t=0.22
-4.832250367319671
% V (V) @ t=0.22
0.005954658463869241
% es.normE (V/m) @ t=0.24
7.015200837995048
% es.EX (V/m) @ t=0.24
4.451843108897337
% es.EY (V/m) @ t=0.24
1.3312564463545997
% es.EZ (V/m) @ t=0.24
-4.876406083782085
% es.tEX (V/m) @ t=0.24
4.451843108897325
% es.tEY (V/m) @ t=0.24
0
% es.tEZ (V/m) @ t=0.24
-4.87640608378207
% es.Ex (V/m) @ t=0.24
4.451843108897337
% es.Ey (V/m) @ t=0.24
1.3312564463545997
% es.Ez (V/m) @ t=0.24
-4.876406083782085
% es.tEx (V/m) @ t=0.24
4.451843108897325
% es.tEy (V/m) @ t=0.24
0
% es.tEz (V/m) @ t=0.24
-4.87640608378207
% V (V) @ t=0.24
0.0060090704237056375
% es.normE (V/m) @ t=0.26
7.078723279010327
% es.EX (V/m) @ t=0.26
4.492154419438595
% es.EY (V/m) @ t=0.26
1.3433109349995933
% es.EZ (V/m) @ t=0.26
-4.920561800244494
% es.tEX (V/m) @ t=0.26
4.492154419438584
% es.tEY (V/m) @ t=0.26
0
% es.tEZ (V/m) @ t=0.26
-4.92056180024448
% es.Ex (V/m) @ t=0.26
4.492154419438595
% es.Ey (V/m) @ t=0.26
1.3433109349995933
% es.Ez (V/m) @ t=0.26
-4.920561800244494
% es.tEx (V/m) @ t=0.26
4.492154419438584
% es.tEy (V/m) @ t=0.26
0
% es.tEz (V/m) @ t=0.26
-4.92056180024448
% V (V) @ t=0.26
0.006063482383542035
% es.normE (V/m) @ t=0.28
7.145602888332144
% es.EX (V/m) @ t=0.28
4.534596127223359
% es.EY (V/m) @ t=0.28
1.3560024973483573
% es.EZ (V/m) @ t=0.28
-4.967051194025114
% es.tEX (V/m) @ t=0.28
4.534596127223354
% es.tEY (V/m) @ t=0.28
0
% es.tEZ (V/m) @ t=0.28
-4.967051194025099
% es.Ex (V/m) @ t=0.28
4.534596127223359
% es.Ey (V/m) @ t=0.28
1.3560024973483573
% es.Ez (V/m) @ t=0.28
-4.967051194025114
% es.tEx (V/m) @ t=0.28
4.534596127223354
% es.tEy (V/m) @ t=0.28
0
% es.tEz (V/m) @ t=0.28
-4.967051194025099
% V (V) @ t=0.28
0.006120770183017483
% es.normE (V/m) @ t=0.3
7.2163179372607695
% es.EX (V/m) @ t=0.3
4.579471734419704
% es.EY (V/m) @ t=0.3
1.3694218926482293
% es.EZ (V/m) @ t=0.3
-5.016206727122733
% es.tEX (V/m) @ t=0.3
4.5794717344196965
% es.tEY (V/m) @ t=0.3
0
% es.tEZ (V/m) @ t=0.3
-5.0162067271227215
% es.Ex (V/m) @ t=0.3
4.579471734419704
% es.Ey (V/m) @ t=0.3
1.3694218926482293
% es.Ez (V/m) @ t=0.3
-5.016206727122733
% es.tEx (V/m) @ t=0.3
4.5794717344196965
% es.tEy (V/m) @ t=0.3
0
% es.tEz (V/m) @ t=0.3
-5.0162067271227215
% V (V) @ t=0.3
0.0061813435220451005
% es.normE (V/m) @ t=0.32
7.2870329861893985
% es.EX (V/m) @ t=0.32
4.624347341616064
% es.EY (V/m) @ t=0.32
1.382841287948073
% es.EZ (V/m) @ t=0.32
-5.065362260220352
% es.tEX (V/m) @ t=0.32
4.6243473416160565
% es.tEY (V/m) @ t=0.32
0
% es.tEZ (V/m) @ t=0.32
-5.065362260220342
% es.Ex (V/m) @ t=0.32
4.624347341616064
% es.Ey (V/m) @ t=0.32
1.382841287948073
% es.Ez (V/m) @ t=0.32
-5.065362260220352
% es.tEx (V/m) @ t=0.32
4.6243473416160565
% es.tEy (V/m) @ t=0.32
0
% es.tEz (V/m) @ t=0.32
-5.065362260220342
% V (V) @ t=0.32
0.0062419168610727185
% es.normE (V/m) @ t=0.34
7.357748035118021
% es.EX (V/m) @ t=0.34
4.669222948812397
% es.EY (V/m) @ t=0.34
1.3962606832479556
% es.EZ (V/m) @ t=0.34
-5.1145177933179635
% es.tEX (V/m) @ t=0.34
4.6692229488123935
% es.tEY (V/m) @ t=0.34
0
% es.tEZ (V/m) @ t=0.34
-5.114517793317949
% es.Ex (V/m) @ t=0.34
4.669222948812397
% es.Ey (V/m) @ t=0.34
1.3962606832479556
% es.Ez (V/m) @ t=0.34
-5.1145177933179635
% es.tEx (V/m) @ t=0.34
4.6692229488123935
% es.tEy (V/m) @ t=0.34
0
% es.tEz (V/m) @ t=0.34
-5.114517793317949
% V (V) @ t=0.34
0.0063024902001003365
% es.normE (V/m) @ t=0.36
7.428463084046676
% es.EX (V/m) @ t=0.36
4.714098556008757
% es.EY (V/m) @ t=0.36
1.4096800785478065
% es.EZ (V/m) @ t=0.36
-5.163673326415598
% es.tEX (V/m) @ t=0.36
4.714098556008739
% es.tEY (V/m) @ t=0.36
0
% es.tEZ (V/m) @ t=0.36
-5.163673326415586
% es.Ex (V/m) @ t=0.36
4.714098556008757
% es.Ey (V/m) @ t=0.36
1.4096800785478065
% es.Ez (V/m) @ t=0.36
-5.163673326415598
% es.tEx (V/m) @ t=0.36
4.714098556008739
% es.tEy (V/m) @ t=0.36
0
% es.tEz (V/m) @ t=0.36
-5.163673326415586
% V (V) @ t=0.36
0.006363063539127954
% es.normE (V/m) @ t=0.38
7.499178132975301
% es.EX (V/m) @ t=0.38
4.758974163205109
% es.EY (V/m) @ t=0.38
1.4230994738476872
% es.EZ (V/m) @ t=0.38
-5.212828859513191
% es.tEX (V/m) @ t=0.38
4.758974163205101
% es.tEY (V/m) @ t=0.38
0
% es.tEZ (V/m) @ t=0.38
-5.212828859513177
% es.Ex (V/m) @ t=0.38
4.758974163205109
% es.Ey (V/m) @ t=0.38
1.4230994738476872
% es.Ez (V/m) @ t=0.38
-5.212828859513191
% es.tEx (V/m) @ t=0.38
4.758974163205101
% es.tEy (V/m) @ t=0.38
0
% es.tEz (V/m) @ t=0.38
-5.212828859513177
% V (V) @ t=0.38
0.0064236368781555725
% es.normE (V/m) @ t=0.4
7.569893181903951
% es.EX (V/m) @ t=0.4
4.8038497704014524
% es.EY (V/m) @ t=0.4
1.4365188691475361
% es.EZ (V/m) @ t=0.4
-5.261984392610822
% es.tEX (V/m) @ t=0.4
4.803849770401447
% es.tEY (V/m) @ t=0.4
0
% es.tEZ (V/m) @ t=0.4
-5.2619843926108185
% es.Ex (V/m) @ t=0.4
4.8038497704014524
% es.Ey (V/m) @ t=0.4
1.4365188691475361
% es.Ez (V/m) @ t=0.4
-5.261984392610822
% es.tEx (V/m) @ t=0.4
4.803849770401447
% es.tEy (V/m) @ t=0.4
0
% es.tEz (V/m) @ t=0.4
-5.2619843926108185
% V (V) @ t=0.4
0.006484210217183191
% es.normE (V/m) @ t=0.42
7.640608230832603
% es.EX (V/m) @ t=0.42
4.848725377597804
% es.EY (V/m) @ t=0.42
1.4499382644473993
% es.EZ (V/m) @ t=0.42
-5.311139925708445
% es.tEX (V/m) @ t=0.42
4.848725377597786
% es.tEY (V/m) @ t=0.42
0
% es.tEZ (V/m) @ t=0.42
-5.31113992570843
% es.Ex (V/m) @ t=0.42
4.848725377597804
% es.Ey (V/m) @ t=0.42
1.4499382644473993
% es.Ez (V/m) @ t=0.42
-5.311139925708445
% es.tEx (V/m) @ t=0.42
4.848725377597786
% es.tEy (V/m) @ t=0.42
0
% es.tEz (V/m) @ t=0.42
-5.31113992570843
% V (V) @ t=0.42
0.006544783556210808
% es.normE (V/m) @ t=0.44
7.7113232797612525
% es.EX (V/m) @ t=0.44
4.89360098479416
% es.EY (V/m) @ t=0.44
1.4633576597472695
% es.EZ (V/m) @ t=0.44
-5.360295458806046
% es.tEX (V/m) @ t=0.44
4.893600984794145
% es.tEY (V/m) @ t=0.44
0
% es.tEZ (V/m) @ t=0.44
-5.360295458806036
% es.Ex (V/m) @ t=0.44
4.89360098479416
% es.Ey (V/m) @ t=0.44
1.4633576597472695
% es.Ez (V/m) @ t=0.44
-5.360295458806046
% es.tEx (V/m) @ t=0.44
4.893600984794145
% es.tEy (V/m) @ t=0.44
0
% es.tEz (V/m) @ t=0.44
-5.360295458806036
% V (V) @ t=0.44
0.006605356895238425
% es.normE (V/m) @ t=0.46
7.7820383286899
% es.EX (V/m) @ t=0.46
4.938476591990506
% es.EY (V/m) @ t=0.46
1.476777055047138
% es.EZ (V/m) @ t=0.46
-5.4094509919036655
% es.tEX (V/m) @ t=0.46
4.938476591990501
% es.tEY (V/m) @ t=0.46
0
% es.tEZ (V/m) @ t=0.46
-5.409450991903654
% es.Ex (V/m) @ t=0.46
4.938476591990506
% es.Ey (V/m) @ t=0.46
1.476777055047138
% es.Ez (V/m) @ t=0.46
-5.4094509919036655
% es.tEx (V/m) @ t=0.46
4.938476591990501
% es.tEy (V/m) @ t=0.46
0
% es.tEz (V/m) @ t=0.46
-5.409450991903654
% V (V) @ t=0.46
0.006665930234266044
% es.normE (V/m) @ t=0.48
7.852753377618558
% es.EX (V/m) @ t=0.48
4.983352199186854
% es.EY (V/m) @ t=0.48
1.490196450346994
% es.EZ (V/m) @ t=0.48
-5.458606525001278
% es.tEX (V/m) @ t=0.48
4.983352199186836
% es.tEY (V/m) @ t=0.48
0
% es.tEZ (V/m) @ t=0.48
-5.4586065250012705
% es.Ex (V/m) @ t=0.48
4.983352199186854
% es.Ey (V/m) @ t=0.48
1.490196450346994
% es.Ez (V/m) @ t=0.48
-5.458606525001278
% es.tEx (V/m) @ t=0.48
4.983352199186836
% es.tEy (V/m) @ t=0.48
0
% es.tEz (V/m) @ t=0.48
-5.4586065250012705
% V (V) @ t=0.48
0.006726503573293661
% es.normE (V/m) @ t=0.5
7.92346842654723
% es.EX (V/m) @ t=0.5
5.028227806383217
% es.EY (V/m) @ t=0.5
1.5036158456468556
% es.EZ (V/m) @ t=0.5
-5.5077620580989075
% es.tEX (V/m) @ t=0.5
5.028227806383201
% es.tEY (V/m) @ t=0.5
0
% es.tEZ (V/m) @ t=0.5
-5.507762058098892
% es.Ex (V/m) @ t=0.5
5.028227806383217
% es.Ey (V/m) @ t=0.5
1.5036158456468556
% es.Ez (V/m) @ t=0.5
-5.5077620580989075
% es.tEx (V/m) @ t=0.5
5.028227806383201
% es.tEy (V/m) @ t=0.5
0
% es.tEz (V/m) @ t=0.5
-5.507762058098892
% V (V) @ t=0.5
0.0067870769123212805
% es.normE (V/m) @ t=0.52
7.994183475475891
% es.EX (V/m) @ t=0.52
5.073103413579554
% es.EY (V/m) @ t=0.52
1.5170352409467152
% es.EZ (V/m) @ t=0.52
-5.55691759119652
% es.tEX (V/m) @ t=0.52
5.07310341357955
% es.tEY (V/m) @ t=0.52
0
% es.tEZ (V/m) @ t=0.52
-5.5569175911965045
% es.Ex (V/m) @ t=0.52
5.073103413579554
% es.Ey (V/m) @ t=0.52
1.5170352409467152
% es.Ez (V/m) @ t=0.52
-5.55691759119652
% es.tEx (V/m) @ t=0.52
5.07310341357955
% es.tEy (V/m) @ t=0.52
0
% es.tEz (V/m) @ t=0.52
-5.5569175911965045
% V (V) @ t=0.52
0.006847650251348895
% es.normE (V/m) @ t=0.54
8.064898524404558
% es.EX (V/m) @ t=0.54
5.117979020775913
% es.EY (V/m) @ t=0.54
1.5304546362465834
% es.EZ (V/m) @ t=0.54
-5.606073124294132
% es.tEX (V/m) @ t=0.54
5.117979020775896
% es.tEY (V/m) @ t=0.54
0
% es.tEZ (V/m) @ t=0.54
-5.60607312429412
% es.Ex (V/m) @ t=0.54
5.117979020775913
% es.Ey (V/m) @ t=0.54
1.5304546362465834
% es.Ez (V/m) @ t=0.54
-5.606073124294132
% es.tEx (V/m) @ t=0.54
5.117979020775896
% es.tEy (V/m) @ t=0.54
0
% es.tEz (V/m) @ t=0.54
-5.60607312429412
% V (V) @ t=0.54
0.006908223590376515
% es.normE (V/m) @ t=0.56
8.1432979316465
% es.EX (V/m) @ t=0.56
5.16773121203053
% es.EY (V/m) @ t=0.56
1.5453322838736847
% es.EZ (V/m) @ t=0.56
-5.660570141618603
% es.tEX (V/m) @ t=0.56
5.1677312120305245
% es.tEY (V/m) @ t=0.56
0
% es.tEZ (V/m) @ t=0.56
-5.660570141618589
% es.Ex (V/m) @ t=0.56
5.16773121203053
% es.Ey (V/m) @ t=0.56
1.5453322838736847
% es.Ez (V/m) @ t=0.56
-5.660570141618603
% es.tEx (V/m) @ t=0.56
5.1677312120305245
% es.tEy (V/m) @ t=0.56
0
% es.tEz (V/m) @ t=0.56
-5.660570141618589
% V (V) @ t=0.56
0.00697537893384592
% es.normE (V/m) @ t=0.58
8.222158281866069
% es.EX (V/m) @ t=0.58
5.2177759231137255
% es.EY (V/m) @ t=0.58
1.560297404148795
% es.EZ (V/m) @ t=0.58
-5.715387565611262
% es.tEX (V/m) @ t=0.58
5.217775923113713
% es.tEY (V/m) @ t=0.58
0
% es.tEZ (V/m) @ t=0.58
-5.7153875656112465
% es.Ex (V/m) @ t=0.58
5.2177759231137255
% es.Ey (V/m) @ t=0.58
1.560297404148795
% es.Ez (V/m) @ t=0.58
-5.715387565611262
% es.tEx (V/m) @ t=0.58
5.217775923113713
% es.tEy (V/m) @ t=0.58
0
% es.tEz (V/m) @ t=0.58
-5.7153875656112465
% V (V) @ t=0.58
0.007042929096063008
% es.normE (V/m) @ t=0.6
8.301018632085611
% es.EX (V/m) @ t=0.6
5.267820634196893
% es.EY (V/m) @ t=0.6
1.5752625244239014
% es.EZ (V/m) @ t=0.6
-5.770204989603927
% es.tEX (V/m) @ t=0.6
5.26782063419688
% es.tEY (V/m) @ t=0.6
0
% es.tEZ (V/m) @ t=0.6
-5.770204989603912
% es.Ex (V/m) @ t=0.6
5.267820634196893
% es.Ey (V/m) @ t=0.6
1.5752625244239014
% es.Ez (V/m) @ t=0.6
-5.770204989603927
% es.tEx (V/m) @ t=0.6
5.26782063419688
% es.tEy (V/m) @ t=0.6
0
% es.tEz (V/m) @ t=0.6
-5.770204989603912
% V (V) @ t=0.6
0.007110479258280097
% es.normE (V/m) @ t=0.62
8.37987898230516
% es.EX (V/m) @ t=0.62
5.317865345280081
% es.EY (V/m) @ t=0.62
1.5902276446990113
% es.EZ (V/m) @ t=0.62
-5.825022413596578
% es.tEX (V/m) @ t=0.62
5.317865345280069
% es.tEY (V/m) @ t=0.62
0
% es.tEZ (V/m) @ t=0.62
-5.825022413596564
% es.Ex (V/m) @ t=0.62
5.317865345280081
% es.Ey (V/m) @ t=0.62
1.5902276446990113
% es.Ez (V/m) @ t=0.62
-5.825022413596578
% es.tEx (V/m) @ t=0.62
5.317865345280069
% es.tEy (V/m) @ t=0.62
0
% es.tEz (V/m) @ t=0.62
-5.825022413596564
% V (V) @ t=0.62
0.007178029420497185
% es.normE (V/m) @ t=0.64
8.458739332524718
% es.EX (V/m) @ t=0.64
5.36791005636327
% es.EY (V/m) @ t=0.64
1.6051927649741078
% es.EZ (V/m) @ t=0.64
-5.879839837589236
% es.tEX (V/m) @ t=0.64
5.367910056363253
% es.tEY (V/m) @ t=0.64
0
% es.tEZ (V/m) @ t=0.64
-5.879839837589225
% es.Ex (V/m) @ t=0.64
5.36791005636327
% es.Ey (V/m) @ t=0.64
1.6051927649741078
% es.Ez (V/m) @ t=0.64
-5.879839837589236
% es.tEx (V/m) @ t=0.64
5.367910056363253
% es.tEy (V/m) @ t=0.64
0
% es.tEz (V/m) @ t=0.64
-5.879839837589225
% V (V) @ t=0.64
0.007245579582714273
% es.normE (V/m) @ t=0.66
8.537599682744283
% es.EX (V/m) @ t=0.66
5.417954767446455
% es.EY (V/m) @ t=0.66
1.6201578852492036
% es.EZ (V/m) @ t=0.66
-5.934657261581917
% es.tEX (V/m) @ t=0.66
5.417954767446439
% es.tEY (V/m) @ t=0.66
0
% es.tEZ (V/m) @ t=0.66
-5.9346572615819015
% es.Ex (V/m) @ t=0.66
5.417954767446455
% es.Ey (V/m) @ t=0.66
1.6201578852492036
% es.Ez (V/m) @ t=0.66
-5.934657261581917
% es.tEx (V/m) @ t=0.66
5.417954767446439
% es.tEy (V/m) @ t=0.66
0
% es.tEz (V/m) @ t=0.66
-5.9346572615819015
% V (V) @ t=0.66
0.007313129744931362
% es.normE (V/m) @ t=0.68
8.61646003296384
% es.EX (V/m) @ t=0.68
5.467999478529643
% es.EY (V/m) @ t=0.68
1.635123005524317
% es.EZ (V/m) @ t=0.68
-5.989474685574571
% es.tEX (V/m) @ t=0.68
5.467999478529634
% es.tEY (V/m) @ t=0.68
0
% es.tEZ (V/m) @ t=0.68
-5.989474685574557
% es.Ex (V/m) @ t=0.68
5.467999478529643
% es.Ey (V/m) @ t=0.68
1.635123005524317
% es.Ez (V/m) @ t=0.68
-5.989474685574571
% es.tEx (V/m) @ t=0.68
5.467999478529634
% es.tEy (V/m) @ t=0.68
0
% es.tEz (V/m) @ t=0.68
-5.989474685574557
% V (V) @ t=0.68
0.0073806799071484495
% es.normE (V/m) @ t=0.7
8.695320383183386
% es.EX (V/m) @ t=0.7
5.518044189612815
% es.EY (V/m) @ t=0.7
1.6500881257994382
% es.EZ (V/m) @ t=0.7
-6.044292109567236
% es.tEX (V/m) @ t=0.7
5.518044189612814
% es.tEY (V/m) @ t=0.7
0
% es.tEZ (V/m) @ t=0.7
-6.0442921095672215
% es.Ex (V/m) @ t=0.7
5.518044189612815
% es.Ey (V/m) @ t=0.7
1.6500881257994382
% es.Ez (V/m) @ t=0.7
-6.044292109567236
% es.tEx (V/m) @ t=0.7
5.518044189612814
% es.tEy (V/m) @ t=0.7
0
% es.tEz (V/m) @ t=0.7
-6.0442921095672215
% V (V) @ t=0.7
0.0074482300693655395
% es.normE (V/m) @ t=0.72
8.774180733402947
% es.EX (V/m) @ t=0.72
5.568088900696002
% es.EY (V/m) @ t=0.72
1.6650532460745198
% es.EZ (V/m) @ t=0.72
-6.099109533559902
% es.tEX (V/m) @ t=0.72
5.568088900695985
% es.tEY (V/m) @ t=0.72
0
% es.tEZ (V/m) @ t=0.72
-6.09910953355988
% es.Ex (V/m) @ t=0.72
5.568088900696002
% es.Ey (V/m) @ t=0.72
1.6650532460745198
% es.Ez (V/m) @ t=0.72
-6.099109533559902
% es.tEx (V/m) @ t=0.72
5.568088900695985
% es.tEy (V/m) @ t=0.72
0
% es.tEz (V/m) @ t=0.72
-6.09910953355988
% V (V) @ t=0.72
0.007515780231582625
% es.normE (V/m) @ t=0.74
8.853041083622482
% es.EX (V/m) @ t=0.74
5.618133611779186
% es.EY (V/m) @ t=0.74
1.6800183663496089
% es.EZ (V/m) @ t=0.74
-6.153926957552539
% es.tEX (V/m) @ t=0.74
5.61813361177917
% es.tEY (V/m) @ t=0.74
0
% es.tEZ (V/m) @ t=0.74
-6.153926957552527
% es.Ex (V/m) @ t=0.74
5.618133611779186
% es.Ey (V/m) @ t=0.74
1.6800183663496089
% es.Ez (V/m) @ t=0.74
-6.153926957552539
% es.tEx (V/m) @ t=0.74
5.61813361177917
% es.tEy (V/m) @ t=0.74
0
% es.tEz (V/m) @ t=0.74
-6.153926957552527
% V (V) @ t=0.74
0.0075833303937997126
% es.normE (V/m) @ t=0.76
8.931901433842043
% es.EX (V/m) @ t=0.76
5.66817832286236
% es.EY (V/m) @ t=0.76
1.694983486624726
% es.EZ (V/m) @ t=0.76
-6.208744381545211
% es.tEX (V/m) @ t=0.76
5.668178322862341
% es.tEY (V/m) @ t=0.76
0
% es.tEZ (V/m) @ t=0.76
-6.208744381545197
% es.Ex (V/m) @ t=0.76
5.66817832286236
% es.Ey (V/m) @ t=0.76
1.694983486624726
% es.Ez (V/m) @ t=0.76
-6.208744381545211
% es.tEx (V/m) @ t=0.76
5.668178322862341
% es.tEy (V/m) @ t=0.76
0
% es.tEz (V/m) @ t=0.76
-6.208744381545197
% V (V) @ t=0.76
0.007650880556016801
% es.normE (V/m) @ t=0.78
9.010761784061598
% es.EX (V/m) @ t=0.78
5.718223033945542
% es.EY (V/m) @ t=0.78
1.709948606899843
% es.EZ (V/m) @ t=0.78
-6.2635618055378695
% es.tEX (V/m) @ t=0.78
5.718223033945533
% es.tEY (V/m) @ t=0.78
0
% es.tEZ (V/m) @ t=0.78
-6.263561805537862
% es.Ex (V/m) @ t=0.78
5.718223033945542
% es.Ey (V/m) @ t=0.78
1.709948606899843
% es.Ez (V/m) @ t=0.78
-6.2635618055378695
% es.tEx (V/m) @ t=0.78
5.718223033945533
% es.tEy (V/m) @ t=0.78
0
% es.tEz (V/m) @ t=0.78
-6.263561805537862
% V (V) @ t=0.78
0.00771843071823389
% es.normE (V/m) @ t=0.8
9.089622134281157
% es.EX (V/m) @ t=0.8
5.768267745028734
% es.EY (V/m) @ t=0.8
1.7249137271749464
% es.EZ (V/m) @ t=0.8
-6.318379229530535
% es.tEX (V/m) @ t=0.8
5.768267745028725
% es.tEY (V/m) @ t=0.8
0
% es.tEZ (V/m) @ t=0.8
-6.318379229530527
% es.Ex (V/m) @ t=0.8
5.768267745028734
% es.Ey (V/m) @ t=0.8
1.7249137271749464
% es.Ez (V/m) @ t=0.8
-6.318379229530535
% es.tEx (V/m) @ t=0.8
5.768267745028725
% es.tEy (V/m) @ t=0.8
0
% es.tEz (V/m) @ t=0.8
-6.318379229530527
% V (V) @ t=0.8
0.007785980880450979
% es.normE (V/m) @ t=0.82
9.172364916237008
% es.EX (V/m) @ t=0.82
5.82077624517013
% es.EY (V/m) @ t=0.82
1.740615606400488
% es.EZ (V/m) @ t=0.82
-6.375895409484867
% es.tEX (V/m) @ t=0.82
5.820776245170114
% es.tEY (V/m) @ t=0.82
0
% es.tEZ (V/m) @ t=0.82
-6.375895409484853
% es.Ex (V/m) @ t=0.82
5.82077624517013
% es.Ey (V/m) @ t=0.82
1.740615606400488
% es.Ez (V/m) @ t=0.82
-6.375895409484867
% es.tEx (V/m) @ t=0.82
5.820776245170114
% es.tEy (V/m) @ t=0.82
0
% es.tEz (V/m) @ t=0.82
-6.375895409484853
% V (V) @ t=0.82
0.007856856651066472
% es.normE (V/m) @ t=0.84
9.260467669975679
% es.EX (V/m) @ t=0.84
5.876686180475826
% es.EY (V/m) @ t=0.84
1.7573346334997013
% es.EZ (V/m) @ t=0.84
-6.437137413043001
% es.tEX (V/m) @ t=0.84
5.876686180475818
% es.tEY (V/m) @ t=0.84
0
% es.tEZ (V/m) @ t=0.84
-6.437137413042986
% es.Ex (V/m) @ t=0.84
5.876686180475826
% es.Ey (V/m) @ t=0.84
1.7573346334997013
% es.Ez (V/m) @ t=0.84
-6.437137413043001
% es.tEx (V/m) @ t=0.84
5.876686180475818
% es.tEy (V/m) @ t=0.84
0
% es.tEz (V/m) @ t=0.84
-6.437137413042986
% V (V) @ t=0.84
0.007932323659438873
% es.normE (V/m) @ t=0.86
9.348570423714385
% es.EX (V/m) @ t=0.86
5.932596115781548
% es.EY (V/m) @ t=0.86
1.7740536605989252
% es.EZ (V/m) @ t=0.86
-6.498379416601162
% es.tEX (V/m) @ t=0.86
5.932596115781536
% es.tEY (V/m) @ t=0.86
0
% es.tEZ (V/m) @ t=0.86
-6.49837941660114
% es.Ex (V/m) @ t=0.86
5.932596115781548
% es.Ey (V/m) @ t=0.86
1.7740536605989252
% es.Ez (V/m) @ t=0.86
-6.498379416601162
% es.tEx (V/m) @ t=0.86
5.932596115781536
% es.tEy (V/m) @ t=0.86
0
% es.tEz (V/m) @ t=0.86
-6.49837941660114
% V (V) @ t=0.86
0.008007790667811278
% es.normE (V/m) @ t=0.88
9.436673177453088
% es.EX (V/m) @ t=0.88
5.988506051087267
% es.EY (V/m) @ t=0.88
1.7907726876981238
% es.EZ (V/m) @ t=0.88
-6.559621420159324
% es.tEX (V/m) @ t=0.88
5.988506051087258
% es.tEY (V/m) @ t=0.88
0
% es.tEZ (V/m) @ t=0.88
-6.559621420159309
% es.Ex (V/m) @ t=0.88
5.988506051087267
% es.Ey (V/m) @ t=0.88
1.7907726876981238
% es.Ez (V/m) @ t=0.88
-6.559621420159324
% es.tEx (V/m) @ t=0.88
5.988506051087258
% es.tEy (V/m) @ t=0.88
0
% es.tEz (V/m) @ t=0.88
-6.559621420159309
% V (V) @ t=0.88
0.00808325767618368
% es.normE (V/m) @ t=0.9
9.524775931191767
% es.EX (V/m) @ t=0.9
6.044415986392955
% es.EY (V/m) @ t=0.9
1.8074917147973228
% es.EZ (V/m) @ t=0.9
-6.6208634237174815
% es.tEX (V/m) @ t=0.9
6.044415986392943
% es.tEY (V/m) @ t=0.9
0
% es.tEZ (V/m) @ t=0.9
-6.620863423717467
% es.Ex (V/m) @ t=0.9
6.044415986392955
% es.Ey (V/m) @ t=0.9
1.8074917147973228
% es.Ez (V/m) @ t=0.9
-6.6208634237174815
% es.tEx (V/m) @ t=0.9
6.044415986392943
% es.tEy (V/m) @ t=0.9
0
% es.tEz (V/m) @ t=0.9
-6.620863423717467
% V (V) @ t=0.9
0.008158724684556081
% es.normE (V/m) @ t=0.92
9.612878684930468
% es.EX (V/m) @ t=0.92
6.100325921698687
% es.EY (V/m) @ t=0.92
1.824210741896529
% es.EZ (V/m) @ t=0.92
-6.682105427275628
% es.tEX (V/m) @ t=0.92
6.100325921698668
% es.tEY (V/m) @ t=0.92
0
% es.tEZ (V/m) @ t=0.92
-6.682105427275614
% es.Ex (V/m) @ t=0.92
6.100325921698687
% es.Ey (V/m) @ t=0.92
1.824210741896529
% es.Ez (V/m) @ t=0.92
-6.682105427275628
% es.tEx (V/m) @ t=0.92
6.100325921698668
% es.tEy (V/m) @ t=0.92
0
% es.tEz (V/m) @ t=0.92
-6.682105427275614
% V (V) @ t=0.92
0.008234191692928484
% es.normE (V/m) @ t=0.94
9.70098143866915
% es.EX (V/m) @ t=0.94
6.156235857004386
% es.EY (V/m) @ t=0.94
1.8409297689957493
% es.EZ (V/m) @ t=0.94
-6.743347430833776
% es.tEX (V/m) @ t=0.94
6.156235857004379
% es.tEY (V/m) @ t=0.94
0
% es.tEZ (V/m) @ t=0.94
-6.7433474308337615
% es.Ex (V/m) @ t=0.94
6.156235857004386
% es.Ey (V/m) @ t=0.94
1.8409297689957493
% es.Ez (V/m) @ t=0.94
-6.743347430833776
% es.tEx (V/m) @ t=0.94
6.156235857004379
% es.tEy (V/m) @ t=0.94
0
% es.tEz (V/m) @ t=0.94
-6.7433474308337615
% V (V) @ t=0.94
0.008309658701300886
% es.normE (V/m) @ t=0.96
9.789084192407852
% es.EX (V/m) @ t=0.96
6.212145792310105
% es.EY (V/m) @ t=0.96
1.8576487960949337
% es.EZ (V/m) @ t=0.96
-6.8045894343919375
% es.tEX (V/m) @ t=0.96
6.2121457923100944
% es.tEY (V/m) @ t=0.96
0
% es.tEZ (V/m) @ t=0.96
-6.804589434391923
% es.Ex (V/m) @ t=0.96
6.212145792310105
% es.Ey (V/m) @ t=0.96
1.8576487960949337
% es.Ez (V/m) @ t=0.96
-6.8045894343919375
% es.tEx (V/m) @ t=0.96
6.2121457923100944
% es.tEy (V/m) @ t=0.96
0
% es.tEz (V/m) @ t=0.96
-6.804589434391923
% V (V) @ t=0.96
0.008385125709673287
% es.normE (V/m) @ t=0.98
9.87718694614654
% es.EX (V/m) @ t=0.98
6.268055727615805
% es.EY (V/m) @ t=0.98
1.8743678231941505
% es.EZ (V/m) @ t=0.98
-6.865831437950096
% es.tEX (V/m) @ t=0.98
6.268055727615794
% es.tEY (V/m) @ t=0.98
0
% es.tEZ (V/m) @ t=0.98
-6.865831437950081
% es.Ex (V/m) @ t=0.98
6.268055727615805
% es.Ey (V/m) @ t=0.98
1.8743678231941505
% es.Ez (V/m) @ t=0.98
-6.865831437950096
% es.tEx (V/m) @ t=0.98
6.268055727615794
% es.tEy (V/m) @ t=0.98
0
% es.tEz (V/m) @ t=0.98
-6.865831437950081
% V (V) @ t=0.98
0.00846059271804569
% es.normE (V/m) @ t=1
9.96528969988524
% es.EX (V/m) @ t=1
6.32396566292152
% es.EY (V/m) @ t=1
1.891086850293378
% es.EZ (V/m) @ t=1
-6.927073441508257
% es.tEX (V/m) @ t=1
6.323965662921501
% es.tEY (V/m) @ t=1
0
% es.tEZ (V/m) @ t=1
-6.927073441508242
% es.Ex (V/m) @ t=1
6.32396566292152
% es.Ey (V/m) @ t=1
1.891086850293378
% es.Ez (V/m) @ t=1
-6.927073441508257
% es.tEx (V/m) @ t=1
6.323965662921501
% es.tEy (V/m) @ t=1
0
% es.tEz (V/m) @ t=1
-6.927073441508242
% V (V) @ t=1
0.008536059726418091
% es.normE (V/m) @ t=1.02
10.053392453623935
% es.EX (V/m) @ t=1.02
6.379875598227248
% es.EY (V/m) @ t=1.02
1.907805877392577
% es.EZ (V/m) @ t=1.02
-6.988315445066403
% es.tEX (V/m) @ t=1.02
6.379875598227223
% es.tEY (V/m) @ t=1.02
0
% es.tEZ (V/m) @ t=1.02
-6.988315445066389
% es.Ex (V/m) @ t=1.02
6.379875598227248
% es.Ey (V/m) @ t=1.02
1.907805877392577
% es.Ez (V/m) @ t=1.02
-6.988315445066403
% es.tEx (V/m) @ t=1.02
6.379875598227223
% es.tEy (V/m) @ t=1.02
0
% es.tEz (V/m) @ t=1.02
-6.988315445066389
% V (V) @ t=1.02
0.008611526734790494
% es.normE (V/m) @ t=1.04
10.141495207362635
% es.EX (V/m) @ t=1.04
6.435785533532959
% es.EY (V/m) @ t=1.04
1.9245249044917614
% es.EZ (V/m) @ t=1.04
-7.049557448624565
% es.tEX (V/m) @ t=1.04
6.435785533532944
% es.tEY (V/m) @ t=1.04
0
% es.tEZ (V/m) @ t=1.04
-7.049557448624551
% es.Ex (V/m) @ t=1.04
6.435785533532959
% es.Ey (V/m) @ t=1.04
1.9245249044917614
% es.Ez (V/m) @ t=1.04
-7.049557448624565
% es.tEx (V/m) @ t=1.04
6.435785533532944
% es.tEy (V/m) @ t=1.04
0
% es.tEz (V/m) @ t=1.04
-7.049557448624551
% V (V) @ t=1.04
0.008686993743162896
% es.normE (V/m) @ t=1.06
10.229597961101321
% es.EX (V/m) @ t=1.06
6.49169546883867