% Model:              1 neuron.mph
% Version:            COMSOL 6.1.0.252
% Date:               Mar 18 2023, 11:58
% Dimension:          0
% Nodes:              14017
% Expressions:        14017
% Description:        Electric field norm, Electric field, X component, Electric field, Y component, Electric field, Z component, Tangential electric field, X component, Tangential electric field, Y component, Tangential electric field, Z component, Electric field, x component, Electric field, y component, Electric field, z component, Tangential electric field, x component, Tangential electric field, y component, Tangential electric field, z component, Electric potential
% Length unit:        mm
% x
1.3300000000000003
% y
12.200000000000001
% z
1.66
% es.normE (V/m) @ t=0
7.1721037908191425
% es.EX (V/m) @ t=0
4.551412444244743
% es.EY (V/m) @ t=0
1.3610313641350398
% es.EZ (V/m) @ t=0
-4.985473873062258
% es.tEX (V/m) @ t=0
4.551412444244736
% es.tEY (V/m) @ t=0
0
% es.tEZ (V/m) @ t=0
-4.985473873062247
% es.Ex (V/m) @ t=0
4.551412444244743
% es.Ey (V/m) @ t=0
1.3610313641350398
% es.Ez (V/m) @ t=0
-4.985473873062258
% es.tEx (V/m) @ t=0
4.551412444244736
% es.tEy (V/m) @ t=0
0
% es.tEz (V/m) @ t=0
-4.985473873062247
% V (V) @ t=0
0.0061434688376603725
% es.normE (V/m) @ t=0.02
6.194620845564961
% es.EX (V/m) @ t=0.02
3.9311023983689846
% es.EY (V/m) @ t=0.02
1.175536985281778
% es.EZ (V/m) @ t=0.02
-4.306005778851195
% es.tEX (V/m) @ t=0.02
3.93110239836897
% es.tEY (V/m) @ t=0.02
0
% es.tEZ (V/m) @ t=0.02
-4.306005778851184
% es.Ex (V/m) @ t=0.02
3.9311023983689846
% es.Ey (V/m) @ t=0.02
1.175536985281778
% es.Ez (V/m) @ t=0.02
-4.306005778851195
% es.tEx (V/m) @ t=0.02
3.93110239836897
% es.tEy (V/m) @ t=0.02
0
% es.tEz (V/m) @ t=0.02
-4.306005778851184
% V (V) @ t=0.02
0.005306178102010226
% es.normE (V/m) @ t=0.04
6.251596836895992
% es.EX (V/m) @ t=0.04
3.967259325791956
% es.EY (V/m) @ t=0.04
1.1863491700698257
% es.EZ (V/m) @ t=0.04
-4.345610938538606
% es.tEX (V/m) @ t=0.04
3.9672593257919484
% es.tEY (V/m) @ t=0.04
0
% es.tEZ (V/m) @ t=0.04
-4.345610938538599
% es.Ex (V/m) @ t=0.04
3.967259325791956
% es.Ey (V/m) @ t=0.04
1.1863491700698257
% es.Ez (V/m) @ t=0.04
-4.345610938538606
% es.tEx (V/m) @ t=0.04
3.9672593257919484
% es.tEy (V/m) @ t=0.04
0
% es.tEz (V/m) @ t=0.04
-4.345610938538599
% V (V) @ t=0.04
0.005354982502497467
% es.normE (V/m) @ t=0.06
6.309103185362485
% es.EX (V/m) @ t=0.06
4.003752814295188
% es.EY (V/m) @ t=0.06
1.1972619964306443
% es.EZ (V/m) @ t=0.06
-4.3855847632889375
% es.tEX (V/m) @ t=0.06
4.0037528142951775
% es.tEY (V/m) @ t=0.06
0
% es.tEZ (V/m) @ t=0.06
-4.385584763288927
% es.Ex (V/m) @ t=0.06
4.003752814295188
% es.Ey (V/m) @ t=0.06
1.1972619964306443
% es.Ez (V/m) @ t=0.06
-4.3855847632889375
% es.tEx (V/m) @ t=0.06
4.0037528142951775
% es.tEy (V/m) @ t=0.06
0
% es.tEz (V/m) @ t=0.06
-4.385584763288927
% V (V) @ t=0.06
0.005404241210786741
% es.normE (V/m) @ t=0.08
6.367447744249109
% es.EX (V/m) @ t=0.08
4.040778232788666
% es.EY (V/m) @ t=0.08
1.2083338897710425
% es.EZ (V/m) @ t=0.08
-4.426141242851671
% es.tEX (V/m) @ t=0.08
4.0407782327886475
% es.tEY (V/m) @ t=0.08
0
% es.tEZ (V/m) @ t=0.08
-4.4261412428516635
% es.Ex (V/m) @ t=0.08
4.040778232788666
% es.Ey (V/m) @ t=0.08
1.2083338897710425
% es.Ez (V/m) @ t=0.08
-4.426141242851671
% es.tEx (V/m) @ t=0.08
4.0407782327886475
% es.tEy (V/m) @ t=0.08
0
% es.tEz (V/m) @ t=0.08
-4.4261412428516635
% V (V) @ t=0.08
0.005454217901508607
% es.normE (V/m) @ t=0.1
6.426456255850549
% es.EX (V/m) @ t=0.1
4.078224996987972
% es.EY (V/m) @ t=0.1
1.219531781250327
% es.EZ (V/m) @ t=0.1
-4.467159247629566
% es.tEX (V/m) @ t=0.1
4.078224996987947
% es.tEY (V/m) @ t=0.1
0
% es.tEZ (V/m) @ t=0.1
-4.467159247629556
% es.Ex (V/m) @ t=0.1
4.078224996987972
% es.Ey (V/m) @ t=0.1
1.219531781250327
% es.Ez (V/m) @ t=0.1
-4.467159247629566
% es.tEx (V/m) @ t=0.1
4.078224996987947
% es.tEy (V/m) @ t=0.1
0
% es.tEz (V/m) @ t=0.1
-4.467159247629556
% V (V) @ t=0.1
0.005504763311461191
% es.normE (V/m) @ t=0.12
6.485464767451991
% es.EX (V/m) @ t=0.12
4.115671761187285
% es.EY (V/m) @ t=0.12
1.2307296727296135
% es.EZ (V/m) @ t=0.12
-4.508177252407458
% es.tEX (V/m) @ t=0.12
4.115671761187271
% es.tEY (V/m) @ t=0.12
0
% es.tEZ (V/m) @ t=0.12
-4.508177252407451
% es.Ex (V/m) @ t=0.12
4.115671761187285
% es.Ey (V/m) @ t=0.12
1.2307296727296135
% es.Ez (V/m) @ t=0.12
-4.508177252407458
% es.tEx (V/m) @ t=0.12
4.115671761187271
% es.tEy (V/m) @ t=0.12
0
% es.tEz (V/m) @ t=0.12
-4.508177252407451
% V (V) @ t=0.12
0.005555308721413778
% es.normE (V/m) @ t=0.14
6.54487417714762
% es.EX (V/m) @ t=0.14
4.1533729344678
% es.EY (V/m) @ t=0.14
1.2420036410597317
% es.EZ (V/m) @ t=0.14
-4.549473930105776
% es.tEX (V/m) @ t=0.14
4.153372934467791
% es.tEY (V/m) @ t=0.14
0
% es.tEZ (V/m) @ t=0.14
-4.549473930105761
% es.Ex (V/m) @ t=0.14
4.1533729344678
% es.Ey (V/m) @ t=0.14
1.2420036410597317
% es.Ez (V/m) @ t=0.14
-4.549473930105776
% es.tEx (V/m) @ t=0.14
4.153372934467791
% es.tEy (V/m) @ t=0.14
0
% es.tEz (V/m) @ t=0.14
-4.549473930105761
% V (V) @ t=0.14
0.005606197534803369
% es.normE (V/m) @ t=0.16
6.607062929592839
% es.EX (V/m) @ t=0.16
4.192837872768749
% es.EY (V/m) @ t=0.16
1.2538050343060918
% es.EZ (V/m) @ t=0.16
-4.592702588953663
% es.tEX (V/m) @ t=0.16
4.192837872768738
% es.tEY (V/m) @ t=0.16
0
% es.tEZ (V/m) @ t=0.16
-4.592702588953652
% es.Ex (V/m) @ t=0.16
4.192837872768749
% es.Ey (V/m) @ t=0.16
1.2538050343060918
% es.Ez (V/m) @ t=0.16
-4.592702588953663
% es.tEx (V/m) @ t=0.16
4.192837872768738
% es.tEy (V/m) @ t=0.16
0
% es.tEz (V/m) @ t=0.16
-4.592702588953652
% V (V) @ t=0.16
0.005659467092493395
% es.normE (V/m) @ t=0.18
6.669251682038059
% es.EX (V/m) @ t=0.18
4.232302811069708
% es.EY (V/m) @ t=0.18
1.2656064275524272
% es.EZ (V/m) @ t=0.18
-4.635931247801529
% es.tEX (V/m) @ t=0.18
4.232302811069686
% es.tEY (V/m) @ t=0.18
0
% es.tEZ (V/m) @ t=0.18
-4.635931247801518
% es.Ex (V/m) @ t=0.18
4.232302811069708
% es.Ey (V/m) @ t=0.18
1.2656064275524272
% es.Ez (V/m) @ t=0.18
-4.635931247801529
% es.tEx (V/m) @ t=0.18
4.232302811069686
% es.tEy (V/m) @ t=0.18
0
% es.tEz (V/m) @ t=0.18
-4.635931247801518
% V (V) @ t=0.18
0.0057127366501834205
% es.normE (V/m) @ t=0.2
6.731440434483268
% es.EX (V/m) @ t=0.2
4.271767749370653
% es.EY (V/m) @ t=0.2
1.2774078207987785
% es.EZ (V/m) @ t=0.2
-4.679159906649413
% es.tEX (V/m) @ t=0.2
4.271767749370651
% es.tEY (V/m) @ t=0.2
0
% es.tEZ (V/m) @ t=0.2
-4.679159906649406
% es.Ex (V/m) @ t=0.2
4.271767749370653
% es.Ey (V/m) @ t=0.2
1.2774078207987785
% es.Ez (V/m) @ t=0.2
-4.679159906649413
% es.tEx (V/m) @ t=0.2
4.271767749370651
% es.tEy (V/m) @ t=0.2
0
% es.tEz (V/m) @ t=0.2
-4.679159906649406
% V (V) @ t=0.2
0.005766006207873448
% es.normE (V/m) @ t=0.22
6.793629186928481
% es.EX (V/m) @ t=0.22
4.3112326876715885
% es.EY (V/m) @ t=0.22
1.2892092140451277
% es.EZ (V/m) @ t=0.22
-4.722388565497294
% es.tEX (V/m) @ t=0.22
4.3112326876715805
% es.tEY (V/m) @ t=0.22
0
% es.tEZ (V/m) @ t=0.22
-4.722388565497282
% es.Ex (V/m) @ t=0.22
4.3112326876715885
% es.Ey (V/m) @ t=0.22
1.2892092140451277
% es.Ez (V/m) @ t=0.22
-4.722388565497294
% es.tEx (V/m) @ t=0.22
4.3112326876715805
% es.tEy (V/m) @ t=0.22
0
% es.tEz (V/m) @ t=0.22
-4.722388565497282
% V (V) @ t=0.22
0.005819275765563473
% es.normE (V/m) @ t=0.24
6.855817939373691
% es.EX (V/m) @ t=0.24
4.350697625972542
% es.EY (V/m) @ t=0.24
1.301010607291479
% es.EZ (V/m) @ t=0.24
-4.765617224345163
% es.tEX (V/m) @ t=0.24
4.350697625972532
% es.tEY (V/m) @ t=0.24
0
% es.tEZ (V/m) @ t=0.24
-4.765617224345152
% es.Ex (V/m) @ t=0.24
4.350697625972542
% es.Ey (V/m) @ t=0.24
1.301010607291479
% es.Ez (V/m) @ t=0.24
-4.765617224345163
% es.tEx (V/m) @ t=0.24
4.350697625972532
% es.tEy (V/m) @ t=0.24
0
% es.tEz (V/m) @ t=0.24
-4.765617224345152
% V (V) @ t=0.24
0.0058725453232534985
% es.normE (V/m) @ t=0.26
6.918006691818909
% es.EX (V/m) @ t=0.26
4.390162564273487
% es.EY (V/m) @ t=0.26
1.3128120005378143
% es.EZ (V/m) @ t=0.26
-4.80884588319305
% es.tEX (V/m) @ t=0.26
4.390162564273469
% es.tEY (V/m) @ t=0.26
0
% es.tEZ (V/m) @ t=0.26
-4.808845883193039
% es.Ex (V/m) @ t=0.26
4.390162564273487
% es.Ey (V/m) @ t=0.26
1.3128120005378143
% es.Ez (V/m) @ t=0.26
-4.80884588319305
% es.tEx (V/m) @ t=0.26
4.390162564273469
% es.tEy (V/m) @ t=0.26
0
% es.tEz (V/m) @ t=0.26
-4.808845883193039
% V (V) @ t=0.26
0.005925814880943525
% es.normE (V/m) @ t=0.28
6.982073778168212
% es.EX (V/m) @ t=0.28
4.43081941457244
% es.EY (V/m) @ t=0.28
1.3249697703120944
% es.EZ (V/m) @ t=0.28
-4.85338028525722
% es.tEX (V/m) @ t=0.28
4.430819414572429
% es.tEY (V/m) @ t=0.28
0
% es.tEZ (V/m) @ t=0.28
-4.853380285257216
% es.Ex (V/m) @ t=0.28
4.43081941457244
% es.Ey (V/m) @ t=0.28
1.3249697703120944
% es.Ez (V/m) @ t=0.28
-4.85338028525722
% es.tEx (V/m) @ t=0.28
4.430819414572429
% es.tEy (V/m) @ t=0.28
0
% es.tEz (V/m) @ t=0.28
-4.853380285257216
% V (V) @ t=0.28
0.005980693748217729
% es.normE (V/m) @ t=0.3
7.051427024373628
% es.EX (V/m) @ t=0.3
4.474830640439053
% es.EY (V/m) @ t=0.3
1.3381304838609047
% es.EZ (V/m) @ t=0.3
-4.90158941595046
% es.tEX (V/m) @ t=0.3
4.474830640439048
% es.tEY (V/m) @ t=0.3
0
% es.tEZ (V/m) @ t=0.3
-4.901589415950446
% es.Ex (V/m) @ t=0.3
4.474830640439053
% es.Ey (V/m) @ t=0.3
1.3381304838609047
% es.Ez (V/m) @ t=0.3
-4.90158941595046
% es.tEx (V/m) @ t=0.3
4.474830640439048
% es.tEy (V/m) @ t=0.3
0
% es.tEz (V/m) @ t=0.3
-4.901589415950446
% V (V) @ t=0.3
0.006040101665253174
% es.normE (V/m) @ t=0.32
7.120780270579095
% es.EX (V/m) @ t=0.32
4.5188418663056815
% es.EY (V/m) @ t=0.32
1.351291197409722
% es.EZ (V/m) @ t=0.32
-4.9497985466437155
% es.tEX (V/m) @ t=0.32
4.518841866305673
% es.tEY (V/m) @ t=0.32
0
% es.tEZ (V/m) @ t=0.32
-4.949798546643704
% es.Ex (V/m) @ t=0.32
4.5188418663056815
% es.Ey (V/m) @ t=0.32
1.351291197409722
% es.Ez (V/m) @ t=0.32
-4.9497985466437155
% es.tEx (V/m) @ t=0.32
4.518841866305673
% es.tEy (V/m) @ t=0.32
0
% es.tEz (V/m) @ t=0.32
-4.949798546643704
% V (V) @ t=0.32
0.0060995095822886205
% es.normE (V/m) @ t=0.34
7.190133516784593
% es.EX (V/m) @ t=0.34
4.562853092172311
% es.EY (V/m) @ t=0.34
1.3644519109585393
% es.EZ (V/m) @ t=0.34
-4.998007677336949
% es.tEX (V/m) @ t=0.34
4.562853092172299
% es.tEY (V/m) @ t=0.34
0
% es.tEZ (V/m) @ t=0.34
-4.998007677336934
% es.Ex (V/m) @ t=0.34
4.562853092172311
% es.Ey (V/m) @ t=0.34
1.3644519109585393
% es.Ez (V/m) @ t=0.34
-4.998007677336949
% es.tEx (V/m) @ t=0.34
4.562853092172299
% es.tEy (V/m) @ t=0.34
0
% es.tEz (V/m) @ t=0.34
-4.998007677336934
% V (V) @ t=0.34
0.006158917499324068
% es.normE (V/m) @ t=0.36
7.259486762990118
% es.EX (V/m) @ t=0.36
4.606864318038926
% es.EY (V/m) @ t=0.36
1.37761262450736
% es.EZ (V/m) @ t=0.36
-5.046216808030197
% es.tEX (V/m) @ t=0.36
4.606864318038918
% es.tEY (V/m) @ t=0.36
0
% es.tEZ (V/m) @ t=0.36
-5.046216808030193
% es.Ex (V/m) @ t=0.36
4.606864318038926
% es.Ey (V/m) @ t=0.36
1.37761262450736
% es.Ez (V/m) @ t=0.36
-5.046216808030197
% es.tEx (V/m) @ t=0.36
4.606864318038918
% es.tEy (V/m) @ t=0.36
0
% es.tEz (V/m) @ t=0.36
-5.046216808030193
% V (V) @ t=0.36
0.006218325416359513
% es.normE (V/m) @ t=0.38
7.328840009195681
% es.EX (V/m) @ t=0.38
4.650875543905547
% es.EY (V/m) @ t=0.38
1.390773338056181
% es.EZ (V/m) @ t=0.38
-5.094425938723445
% es.tEX (V/m) @ t=0.38
4.650875543905534
% es.tEY (V/m) @ t=0.38
0
% es.tEZ (V/m) @ t=0.38
-5.094425938723438
% es.Ex (V/m) @ t=0.38
4.650875543905547
% es.Ey (V/m) @ t=0.38
1.390773338056181
% es.Ez (V/m) @ t=0.38
-5.094425938723445
% es.tEx (V/m) @ t=0.38
4.650875543905534
% es.tEy (V/m) @ t=0.38
0
% es.tEz (V/m) @ t=0.38
-5.094425938723438
% V (V) @ t=0.38
0.006277733333394959
% es.normE (V/m) @ t=0.4
7.398193255401285
% es.EX (V/m) @ t=0.4
4.694886769772181
% es.EY (V/m) @ t=0.4
1.4039340516049843
% es.EZ (V/m) @ t=0.4
-5.142635069416697
% es.tEX (V/m) @ t=0.4
4.694886769772172
% es.tEY (V/m) @ t=0.4
0
% es.tEZ (V/m) @ t=0.4
-5.142635069416682
% es.Ex (V/m) @ t=0.4
4.694886769772181
% es.Ey (V/m) @ t=0.4
1.4039340516049843
% es.Ez (V/m) @ t=0.4
-5.142635069416697
% es.tEx (V/m) @ t=0.4
4.694886769772172
% es.tEy (V/m) @ t=0.4
0
% es.tEz (V/m) @ t=0.4
-5.142635069416682
% V (V) @ t=0.4
0.006337141250430407
% es.normE (V/m) @ t=0.42
7.467546501606909
% es.EX (V/m) @ t=0.42
4.73889799563879
% es.EY (V/m) @ t=0.42
1.4170947651538122
% es.EZ (V/m) @ t=0.42
-5.19084420010994
% es.tEX (V/m) @ t=0.42
4.738897995638773
% es.tEY (V/m) @ t=0.42
0
% es.tEZ (V/m) @ t=0.42
-5.19084420010993
% es.Ex (V/m) @ t=0.42
4.73889799563879
% es.Ey (V/m) @ t=0.42
1.4170947651538122
% es.Ez (V/m) @ t=0.42
-5.19084420010994
% es.tEx (V/m) @ t=0.42
4.738897995638773
% es.tEy (V/m) @ t=0.42
0
% es.tEz (V/m) @ t=0.42
-5.19084420010993
% V (V) @ t=0.42
0.0063965491674658525
% es.normE (V/m) @ t=0.44
7.536899747812546
% es.EX (V/m) @ t=0.44
4.782909221505401
% es.EY (V/m) @ t=0.44
1.4302554787026134
% es.EZ (V/m) @ t=0.44
-5.239053330803171
% es.tEX (V/m) @ t=0.44
4.7829092215054
% es.tEY (V/m) @ t=0.44
0
% es.tEZ (V/m) @ t=0.44
-5.239053330803156
% es.Ex (V/m) @ t=0.44
4.782909221505401
% es.Ey (V/m) @ t=0.44
1.4302554787026134
% es.Ez (V/m) @ t=0.44
-5.239053330803171
% es.tEx (V/m) @ t=0.44
4.7829092215054
% es.tEy (V/m) @ t=0.44
0
% es.tEz (V/m) @ t=0.44
-5.239053330803156
% V (V) @ t=0.44
0.0064559570845012975
% es.normE (V/m) @ t=0.46
7.606252994018245
% es.EX (V/m) @ t=0.46
4.82692044737205
% es.EY (V/m) @ t=0.46
1.4434161922514273
% es.EZ (V/m) @ t=0.46
-5.287262461496411
% es.tEX (V/m) @ t=0.46
4.826920447372027
% es.tEY (V/m) @ t=0.46
0
% es.tEZ (V/m) @ t=0.46
-5.287262461496407
% es.Ex (V/m) @ t=0.46
4.82692044737205
% es.Ey (V/m) @ t=0.46
1.4434161922514273
% es.Ez (V/m) @ t=0.46
-5.287262461496411
% es.tEx (V/m) @ t=0.46
4.826920447372027
% es.tEy (V/m) @ t=0.46
0
% es.tEz (V/m) @ t=0.46
-5.287262461496407
% V (V) @ t=0.46
0.006515365001536745
% es.normE (V/m) @ t=0.48
7.675606240223959
% es.EX (V/m) @ t=0.48
4.870931673238656
% es.EY (V/m) @ t=0.48
1.4565769058002498
% es.EZ (V/m) @ t=0.48
-5.335471592189663
% es.tEX (V/m) @ t=0.48
4.870931673238653
% es.tEY (V/m) @ t=0.48
0
% es.tEZ (V/m) @ t=0.48
-5.335471592189652
% es.Ex (V/m) @ t=0.48
4.870931673238656
% es.Ey (V/m) @ t=0.48
1.4565769058002498
% es.Ez (V/m) @ t=0.48
-5.335471592189663
% es.tEx (V/m) @ t=0.48
4.870931673238653
% es.tEy (V/m) @ t=0.48
0
% es.tEz (V/m) @ t=0.48
-5.335471592189652
% V (V) @ t=0.48
0.00657477291857219
% es.normE (V/m) @ t=0.5
7.744959486429707
% es.EX (V/m) @ t=0.5
4.914942899105279
% es.EY (V/m) @ t=0.5
1.4697376193490566
% es.EZ (V/m) @ t=0.5
-5.383680722882918
% es.tEX (V/m) @ t=0.5
4.914942899105266
% es.tEY (V/m) @ t=0.5
0
% es.tEZ (V/m) @ t=0.5
-5.383680722882903
% es.Ex (V/m) @ t=0.5
4.914942899105279
% es.Ey (V/m) @ t=0.5
1.4697376193490566
% es.Ez (V/m) @ t=0.5
-5.383680722882918
% es.tEx (V/m) @ t=0.5
4.914942899105266
% es.tEy (V/m) @ t=0.5
0
% es.tEz (V/m) @ t=0.5
-5.383680722882903
% V (V) @ t=0.5
0.006634180835607636
% es.normE (V/m) @ t=0.52
7.814312732635468
% es.EX (V/m) @ t=0.52
4.958954124971896
% es.EY (V/m) @ t=0.52
1.4828983328978704
% es.EZ (V/m) @ t=0.52
-5.431889853576151
% es.tEX (V/m) @ t=0.52
4.958954124971889
% es.tEY (V/m) @ t=0.52
0
% es.tEZ (V/m) @ t=0.52
-5.43188985357614
% es.Ex (V/m) @ t=0.52
4.958954124971896
% es.Ey (V/m) @ t=0.52
1.4828983328978704
% es.Ez (V/m) @ t=0.52
-5.431889853576151
% es.tEx (V/m) @ t=0.52
4.958954124971889
% es.tEy (V/m) @ t=0.52
0
% es.tEz (V/m) @ t=0.52
-5.43188985357614
% V (V) @ t=0.52
0.006693588752643084
% es.normE (V/m) @ t=0.54
7.883665978841283
% es.EX (V/m) @ t=0.54
5.002965350838531
% es.EY (V/m) @ t=0.54
1.4960590464467036
% es.EZ (V/m) @ t=0.54
-5.480098984269399
% es.tEX (V/m) @ t=0.54
5.002965350838515
% es.tEY (V/m) @ t=0.54
0
% es.tEZ (V/m) @ t=0.54
-5.480098984269384
% es.Ex (V/m) @ t=0.54
5.002965350838531
% es.Ey (V/m) @ t=0.54
1.4960590464467036
% es.Ez (V/m) @ t=0.54
-5.480098984269399
% es.tEx (V/m) @ t=0.54
5.002965350838515
% es.tEy (V/m) @ t=0.54
0
% es.tEz (V/m) @ t=0.54
-5.480098984269384
% V (V) @ t=0.54
0.00675299666967853
% es.normE (V/m) @ t=0.56
7.957363166099986
% es.EX (V/m) @ t=0.56
5.049733301500595
% es.EY (V/m) @ t=0.56
1.5100441551084787
% es.EZ (V/m) @ t=0.56
-5.531327615037571
% es.tEX (V/m) @ t=0.56
5.049733301500586
% es.tEY (V/m) @ t=0.56
0
% es.tEZ (V/m) @ t=0.56
-5.531327615037556
% es.Ex (V/m) @ t=0.56
5.049733301500595
% es.Ey (V/m) @ t=0.56
1.5100441551084787
% es.Ez (V/m) @ t=0.56
-5.531327615037571
% es.tEx (V/m) @ t=0.56
5.049733301500586
% es.tEy (V/m) @ t=0.56
0
% es.tEz (V/m) @ t=0.56
-5.531327615037556
% V (V) @ t=0.56
0.006816125213269922
% es.normE (V/m) @ t=0.58
8.034845048980717
% es.EX (V/m) @ t=0.58
5.098903072108539
% es.EY (V/m) @ t=0.58
1.5247475250304579
% es.EZ (V/m) @ t=0.58
-5.585187010950838
% es.tEX (V/m) @ t=0.58
5.098903072108532
% es.tEY (V/m) @ t=0.58
0
% es.tEZ (V/m) @ t=0.58
-5.585187010950823
% es.Ex (V/m) @ t=0.58
5.098903072108539
% es.Ey (V/m) @ t=0.58
1.5247475250304579
% es.Ez (V/m) @ t=0.58
-5.585187010950838
% es.tEx (V/m) @ t=0.58
5.098903072108532
% es.tEy (V/m) @ t=0.58
0
% es.tEz (V/m) @ t=0.58
-5.585187010950823
% V (V) @ t=0.58
0.006882495384421639
% es.normE (V/m) @ t=0.6
8.11232693186146
% es.EX (V/m) @ t=0.6
5.148072842716474
% es.EY (V/m) @ t=0.6
1.539450894952455
% es.EZ (V/m) @ t=0.6
-5.639046406864114
% es.tEX (V/m) @ t=0.6
5.148072842716461
% es.tEY (V/m) @ t=0.6
0
% es.tEZ (V/m) @ t=0.6
-5.639046406864104
% es.Ex (V/m) @ t=0.6
5.148072842716474
% es.Ey (V/m) @ t=0.6
1.539450894952455
% es.Ez (V/m) @ t=0.6
-5.639046406864114
% es.tEx (V/m) @ t=0.6
5.148072842716461
% es.tEy (V/m) @ t=0.6
0
% es.tEz (V/m) @ t=0.6
-5.639046406864104
% V (V) @ t=0.6
0.006948865555573355
% es.normE (V/m) @ t=0.62
8.189808814742214
% es.EX (V/m) @ t=0.62
5.1972426133244145
% es.EY (V/m) @ t=0.62
1.5541542648744269
% es.EZ (V/m) @ t=0.62
-5.69290580277738
% es.tEX (V/m) @ t=0.62
5.197242613324405
% es.tEY (V/m) @ t=0.62
0
% es.tEZ (V/m) @ t=0.62
-5.69290580277737
% es.Ex (V/m) @ t=0.62
5.1972426133244145
% es.Ey (V/m) @ t=0.62
1.5541542648744269
% es.Ez (V/m) @ t=0.62
-5.69290580277738
% es.tEx (V/m) @ t=0.62
5.197242613324405
% es.tEy (V/m) @ t=0.62
0
% es.tEz (V/m) @ t=0.62
-5.69290580277737
% V (V) @ t=0.62
0.007015235726725071
% es.normE (V/m) @ t=0.64
8.267290697622983
% es.EX (V/m) @ t=0.64
5.246412383932364
% es.EY (V/m) @ t=0.64
1.5688576347963992
% es.EZ (V/m) @ t=0.64
-5.746765198690654
% es.tEX (V/m) @ t=0.64
5.24641238393234
% es.tEY (V/m) @ t=0.64
0
% es.tEZ (V/m) @ t=0.64
-5.7467651986906425
% es.Ex (V/m) @ t=0.64
5.246412383932364
% es.Ey (V/m) @ t=0.64
1.5688576347963992
% es.Ez (V/m) @ t=0.64
-5.746765198690654
% es.tEx (V/m) @ t=0.64
5.24641238393234
% es.tEy (V/m) @ t=0.64
0
% es.tEz (V/m) @ t=0.64
-5.7467651986906425
% V (V) @ t=0.64
0.007081605897876787
% es.normE (V/m) @ t=0.66
8.34477258050375
% es.EX (V/m) @ t=0.66
5.295582154540297
% es.EY (V/m) @ t=0.66
1.5835610047183892
% es.EZ (V/m) @ t=0.66
-5.800624594603928
% es.tEX (V/m) @ t=0.66
5.295582154540287
% es.tEY (V/m) @ t=0.66
0
% es.tEZ (V/m) @ t=0.66
-5.80062459460392
% es.Ex (V/m) @ t=0.66
5.295582154540297
% es.Ey (V/m) @ t=0.66
1.5835610047183892
% es.Ez (V/m) @ t=0.66
-5.800624594603928
% es.tEx (V/m) @ t=0.66
5.295582154540287
% es.tEy (V/m) @ t=0.66
0
% es.tEz (V/m) @ t=0.66
-5.80062459460392
% V (V) @ t=0.66
0.007147976069028505
% es.normE (V/m) @ t=0.68
8.422254463384517
% es.EX (V/m) @ t=0.68
5.344751925148232
% es.EY (V/m) @ t=0.68
1.598264374640379
% es.EZ (V/m) @ t=0.68
-5.854483990517194
% es.tEX (V/m) @ t=0.68
5.34475192514822
% es.tEY (V/m) @ t=0.68
0
% es.tEZ (V/m) @ t=0.68
-5.8544839905171795
% es.Ex (V/m) @ t=0.68
5.344751925148232
% es.Ey (V/m) @ t=0.68
1.598264374640379
% es.Ez (V/m) @ t=0.68
-5.854483990517194
% es.tEx (V/m) @ t=0.68
5.34475192514822
% es.tEy (V/m) @ t=0.68
0
% es.tEz (V/m) @ t=0.68
-5.8544839905171795
% V (V) @ t=0.68
0.0072143462401802185
% es.normE (V/m) @ t=0.7
8.499736346265289
% es.EX (V/m) @ t=0.7
5.393921695756179
% es.EY (V/m) @ t=0.7
1.6129677445623374
% es.EZ (V/m) @ t=0.7
-5.908343386430449
% es.tEX (V/m) @ t=0.7
5.393921695756163
% es.tEY (V/m) @ t=0.7
0
% es.tEZ (V/m) @ t=0.7
-5.908343386430442
% es.Ex (V/m) @ t=0.7
5.393921695756179
% es.Ey (V/m) @ t=0.7
1.6129677445623374
% es.Ez (V/m) @ t=0.7
-5.908343386430449
% es.tEx (V/m) @ t=0.7
5.393921695756163
% es.tEy (V/m) @ t=0.7
0
% es.tEz (V/m) @ t=0.7
-5.908343386430442
% V (V) @ t=0.7
0.007280716411331936
% es.normE (V/m) @ t=0.72
8.577218229146066
% es.EX (V/m) @ t=0.72
5.4430914663640975
% es.EY (V/m) @ t=0.72
1.6276711144843232
% es.EZ (V/m) @ t=0.72
-5.962202782343731
% es.tEX (V/m) @ t=0.72
5.443091466364088
% es.tEY (V/m) @ t=0.72
0
% es.tEZ (V/m) @ t=0.72
-5.962202782343723
% es.Ex (V/m) @ t=0.72
5.4430914663640975
% es.Ey (V/m) @ t=0.72
1.6276711144843232
% es.Ez (V/m) @ t=0.72
-5.962202782343731
% es.tEx (V/m) @ t=0.72
5.443091466364088
% es.tEy (V/m) @ t=0.72
0
% es.tEz (V/m) @ t=0.72
-5.962202782343723
% V (V) @ t=0.72
0.007347086582483652
% es.normE (V/m) @ t=0.74
8.65470011202687
% es.EX (V/m) @ t=0.74
5.492261236972055
% es.EY (V/m) @ t=0.74
1.6423744844063166
% es.EZ (V/m) @ t=0.74
-6.016062178257004
% es.tEX (V/m) @ t=0.74
5.492261236972046
% es.tEY (V/m) @ t=0.74
0
% es.tEZ (V/m) @ t=0.74
-6.0160621782569965
% es.Ex (V/m) @ t=0.74
5.492261236972055
% es.Ey (V/m) @ t=0.74
1.6423744844063166
% es.Ez (V/m) @ t=0.74
-6.016062178257004
% es.tEx (V/m) @ t=0.74
5.492261236972046
% es.tEy (V/m) @ t=0.74
0
% es.tEz (V/m) @ t=0.74
-6.0160621782569965
% V (V) @ t=0.74
0.007413456753635369
% es.normE (V/m) @ t=0.76
8.732181994907652
% es.EX (V/m) @ t=0.76
5.541431007579991
% es.EY (V/m) @ t=0.76
1.6570778543282643
% es.EZ (V/m) @ t=0.76
-6.069921574170262
% es.tEX (V/m) @ t=0.76
5.541431007579978
% es.tEY (V/m) @ t=0.76
0
% es.tEZ (V/m) @ t=0.76
-6.069921574170248
% es.Ex (V/m) @ t=0.76
5.541431007579991
% es.Ey (V/m) @ t=0.76
1.6570778543282643
% es.Ez (V/m) @ t=0.76
-6.069921574170262
% es.tEx (V/m) @ t=0.76
5.541431007579978
% es.tEy (V/m) @ t=0.76
0
% es.tEz (V/m) @ t=0.76
-6.069921574170248
% V (V) @ t=0.76
0.007479826924787086
% es.normE (V/m) @ t=0.78
8.809663877788475
% es.EX (V/m) @ t=0.78
5.590600778187934
% es.EY (V/m) @ t=0.78
1.671781224250279
% es.EZ (V/m) @ t=0.78
-6.123780970083554
% es.tEX (V/m) @ t=0.78
5.590600778187921
% es.tEY (V/m) @ t=0.78
0
% es.tEZ (V/m) @ t=0.78
-6.123780970083532
% es.Ex (V/m) @ t=0.78
5.590600778187934
% es.Ey (V/m) @ t=0.78
1.671781224250279
% es.Ez (V/m) @ t=0.78
-6.123780970083554
% es.tEx (V/m) @ t=0.78
5.590600778187921
% es.tEy (V/m) @ t=0.78
0
% es.tEz (V/m) @ t=0.78
-6.123780970083532
% V (V) @ t=0.78
0.007546197095938801
% es.normE (V/m) @ t=0.8
8.887145760669267
% es.EX (V/m) @ t=0.8
5.639770548795865
% es.EY (V/m) @ t=0.8
1.6864845941722653
% es.EZ (V/m) @ t=0.8
-6.177640365996813
% es.tEX (V/m) @ t=0.8
5.639770548795848
% es.tEY (V/m) @ t=0.8
0
% es.tEZ (V/m) @ t=0.8
-6.177640365996798
% es.Ex (V/m) @ t=0.8
5.639770548795865
% es.Ey (V/m) @ t=0.8
1.6864845941722653
% es.Ez (V/m) @ t=0.8
-6.177640365996813
% es.tEx (V/m) @ t=0.8
5.639770548795848
% es.tEy (V/m) @ t=0.8
0
% es.tEz (V/m) @ t=0.8
-6.177640365996798
% V (V) @ t=0.8
0.007612567267090517
% es.normE (V/m) @ t=0.82
8.964627643550077
% es.EX (V/m) @ t=0.82
5.688940319403804
% es.EY (V/m) @ t=0.82
1.7011879640942515
% es.EZ (V/m) @ t=0.82
-6.231499761910076
% es.tEX (V/m) @ t=0.82
5.688940319403795
% es.tEY (V/m) @ t=0.82
0
% es.tEZ (V/m) @ t=0.82
-6.231499761910061
% es.Ex (V/m) @ t=0.82
5.688940319403804
% es.Ey (V/m) @ t=0.82
1.7011879640942515
% es.Ez (V/m) @ t=0.82
-6.231499761910076
% es.tEx (V/m) @ t=0.82
5.688940319403795
% es.tEy (V/m) @ t=0.82
0
% es.tEz (V/m) @ t=0.82
-6.231499761910061
% V (V) @ t=0.82
0.007678937438242234
% es.normE (V/m) @ t=0.84
9.04956525025447
% es.EX (V/m) @ t=0.84
5.742841554890774
% es.EY (V/m) @ t=0.84
1.7173062478059862
% es.EZ (V/m) @ t=0.84
-6.290541716033649
% es.tEX (V/m) @ t=0.84
5.742841554890758
% es.tEY (V/m) @ t=0.84
0
% es.tEZ (V/m) @ t=0.84
-6.290541716033628
% es.Ex (V/m) @ t=0.84
5.742841554890774
% es.Ey (V/m) @ t=0.84
1.7173062478059862
% es.Ez (V/m) @ t=0.84
-6.290541716033649
% es.tEx (V/m) @ t=0.84
5.742841554890758
% es.tEy (V/m) @ t=0.84
0
% es.tEz (V/m) @ t=0.84
-6.290541716033628
% V (V) @ t=0.84
0.007751693700670841
% es.normE (V/m) @ t=0.86
9.136290222549643
% es.EX (V/m) @ t=0.86
5.797877067574522
% es.EY (V/m) @ t=0.86
1.733763729733993
% es.EZ (V/m) @ t=0.86
-6.350826088255921
% es.tEX (V/m) @ t=0.86
5.797877067574508
% es.tEY (V/m) @ t=0.86
0
% es.tEZ (V/m) @ t=0.86
-6.350826088255913
% es.Ex (V/m) @ t=0.86
5.797877067574522
% es.Ey (V/m) @ t=0.86
1.733763729733993
% es.Ez (V/m) @ t=0.86
-6.350826088255921
% es.tEx (V/m) @ t=0.86
5.797877067574508
% es.tEy (V/m) @ t=0.86
0
% es.tEz (V/m) @ t=0.86
-6.350826088255913
% V (V) @ t=0.86
0.007825980904974165
% es.normE (V/m) @ t=0.88
9.223015194844816
% es.EX (V/m) @ t=0.88
5.85291258025829
% es.EY (V/m) @ t=0.88
1.7502212116619789
% es.EZ (V/m) @ t=0.88
-6.41111046047819
% es.tEX (V/m) @ t=0.88
5.852912580258273
% es.tEY (V/m) @ t=0.88
0
% es.tEZ (V/m) @ t=0.88
-6.411110460478175
% es.Ex (V/m) @ t=0.88
5.85291258025829
% es.Ey (V/m) @ t=0.88
1.7502212116619789
% es.Ez (V/m) @ t=0.88
-6.41111046047819
% es.tEx (V/m) @ t=0.88
5.852912580258273
% es.tEy (V/m) @ t=0.88
0
% es.tEz (V/m) @ t=0.88
-6.411110460478175
% V (V) @ t=0.88
0.007900268109277488
% es.normE (V/m) @ t=0.9
9.309740167139996
% es.EX (V/m) @ t=0.9
5.907948092942048
% es.EY (V/m) @ t=0.9
1.7666786935900105
% es.EZ (V/m) @ t=0.9
-6.471394832700461
% es.tEX (V/m) @ t=0.9
5.907948092942032
% es.tEY (V/m) @ t=0.9
0
% es.tEZ (V/m) @ t=0.9
-6.4713948327004385
% es.Ex (V/m) @ t=0.9
5.907948092942048
% es.Ey (V/m) @ t=0.9
1.7666786935900105
% es.Ez (V/m) @ t=0.9
-6.471394832700461
% es.tEx (V/m) @ t=0.9
5.907948092942032
% es.tEy (V/m) @ t=0.9
0
% es.tEz (V/m) @ t=0.9
-6.4713948327004385
% V (V) @ t=0.9
0.007974555313580814
% es.normE (V/m) @ t=0.92
9.396465139435161
% es.EX (V/m) @ t=0.92
5.9629836056258085
% es.EY (V/m) @ t=0.92
1.7831361755179786
% es.EZ (V/m) @ t=0.92
-6.5316792049227175
% es.tEX (V/m) @ t=0.92
5.962983605625796
% es.tEY (V/m) @ t=0.92
0
% es.tEZ (V/m) @ t=0.92
-6.531679204922696
% es.Ex (V/m) @ t=0.92
5.9629836056258085
% es.Ey (V/m) @ t=0.92
1.7831361755179786
% es.Ez (V/m) @ t=0.92
-6.5316792049227175
% es.tEx (V/m) @ t=0.92
5.962983605625796
% es.tEy (V/m) @ t=0.92
0
% es.tEz (V/m) @ t=0.92
-6.531679204922696
% V (V) @ t=0.92
0.008048842517884135
% es.normE (V/m) @ t=0.94
9.483190111730334
% es.EX (V/m) @ t=0.94
6.018019118309576
% es.EY (V/m) @ t=0.94
1.7995936574459925
% es.EZ (V/m) @ t=0.94
-6.591963577144982
% es.tEX (V/m) @ t=0.94
6.018019118309562
% es.tEY (V/m) @ t=0.94
0
% es.tEZ (V/m) @ t=0.94
-6.591963577144975
% es.Ex (V/m) @ t=0.94
6.018019118309576
% es.Ey (V/m) @ t=0.94
1.7995936574459925
% es.Ez (V/m) @ t=0.94
-6.591963577144982
% es.tEx (V/m) @ t=0.94
6.018019118309562
% es.tEy (V/m) @ t=0.94
0
% es.tEz (V/m) @ t=0.94
-6.591963577144975
% V (V) @ t=0.94
0.008123129722187462
% es.normE (V/m) @ t=0.96
9.569915084025492
% es.EX (V/m) @ t=0.96
6.073054630993313
% es.EY (V/m) @ t=0.96
1.8160511393740135
% es.EZ (V/m) @ t=0.96
-6.6522479493672435
% es.tEX (V/m) @ t=0.96
6.073054630993305
% es.tEY (V/m) @ t=0.96
0
% es.tEZ (V/m) @ t=0.96
-6.6522479493672355
% es.Ex (V/m) @ t=0.96
6.073054630993313
% es.Ey (V/m) @ t=0.96
1.8160511393740135
% es.Ez (V/m) @ t=0.96
-6.6522479493672435
% es.tEx (V/m) @ t=0.96
6.073054630993305
% es.tEy (V/m) @ t=0.96
0
% es.tEz (V/m) @ t=0.96
-6.6522479493672355
% V (V) @ t=0.96
0.008197416926490784
% es.normE (V/m) @ t=0.98
9.656640056320683
% es.EX (V/m) @ t=0.98
6.128090143677085
% es.EY (V/m) @ t=0.98
1.8325086213019817
% es.EZ (V/m) @ t=0.98
-6.712532321589525
% es.tEX (V/m) @ t=0.98
6.128090143677074
% es.tEY (V/m) @ t=0.98
0
% es.tEZ (V/m) @ t=0.98
-6.712532321589511
% es.Ex (V/m) @ t=0.98
6.128090143677085
% es.Ey (V/m) @ t=0.98
1.8325086213019817
% es.Ez (V/m) @ t=0.98
-6.712532321589525
% es.tEx (V/m) @ t=0.98
6.128090143677074
% es.tEy (V/m) @ t=0.98
0
% es.tEz (V/m) @ t=0.98
-6.712532321589511
% V (V) @ t=0.98
0.00827170413079411
% es.normE (V/m) @ t=1
9.743365028615843
% es.EX (V/m) @ t=1
6.183125656360847
% es.EY (V/m) @ t=1
1.8489661032299773
% es.EZ (V/m) @ t=1
-6.772816693811776
% es.tEX (V/m) @ t=1
6.183125656360836
% es.tEY (V/m) @ t=1
0
% es.tEZ (V/m) @ t=1
-6.772816693811769
% es.Ex (V/m) @ t=1
6.183125656360847
% es.Ey (V/m) @ t=1
1.8489661032299773
% es.Ez (V/m) @ t=1
-6.772816693811776
% es.tEx (V/m) @ t=1
6.183125656360836
% es.tEy (V/m) @ t=1
0
% es.tEz (V/m) @ t=1
-6.772816693811769
% V (V) @ t=1
0.008345991335097433
% es.normE (V/m) @ t=1.02
9.830090000911023
% es.EX (V/m) @ t=1.02
6.238161169044622
% es.EY (V/m) @ t=1.02
1.8654235851579744
% es.EZ (V/m) @ t=1.02
-6.83310106603404
% es.tEX (V/m) @ t=1.02
6.238161169044611
% es.tEY (V/m) @ t=1.02
0
% es.tEZ (V/m) @ t=1.02
-6.8331010660340255
% es.Ex (V/m) @ t=1.02
6.238161169044622
% es.Ey (V/m) @ t=1.02
1.8654235851579744
% es.Ez (V/m) @ t=1.02
-6.83310106603404
% es.tEx (V/m) @ t=1.02
6.238161169044611
% es.tEy (V/m) @ t=1.02
0
% es.tEz (V/m) @ t=1.02
-6.8331010660340255
% V (V) @ t=1.02
0.008420278539400756
% es.normE (V/m) @ t=1.04
9.916814973206208
% es.EX (V/m) @ t=1.04
6.293196681728363
% es.EY (V/m) @ t=1.04
1.8818810670859953
% es.EZ (V/m) @ t=1.04
-6.893385438256329
% es.tEX (V/m) @ t=1.04
6.293196681728351
% es.tEY (V/m) @ t=1.04
0
% es.tEZ (V/m) @ t=1.04
-6.893385438256322
% es.Ex (V/m) @ t=1.04
6.293196681728363
% es.Ey (V/m) @ t=1.04
1.8818810670859953
% es.Ez (V/m) @ t=1.04
-6.893385438256329
% es.tEx (V/m) @ t=1.04
6.293196681728351
% es.tEy (V/m) @ t=1.04
0
% es.tEz (V/m) @ t=1.04
-6.893385438256322
% V (V) @ t=1.04
0.00849456574370408
% es.normE (V/m) @ t=1.06
10.003539945501373
% es.EX (V/m) @ t=1.06
6.348232194412123
% es.EY (V/m) @ t=1.06