% Model:              1 neuron.mph
% Version:            COMSOL 6.0.0.405
% Date:               Mar 9 2023, 14:09
% Dimension:          0
% Nodes:              14017
% Expressions:        14017
% Description:        Electric field norm, Electric field, X component, Electric field, Y component, Electric field, Z component, Tangential electric field, X component, Tangential electric field, Y component, Tangential electric field, Z component, Electric field, x component, Electric field, y component, Electric field, z component, Tangential electric field, x component, Tangential electric field, y component, Tangential electric field, z component, Electric potential
% Length unit:        mm
% x
1.3300000000000003
% y
12.200000000000001
% z
1.66
% es.normE (V/m) @ t=0
7.366057159460166
% es.EX (V/m) @ t=0
4.674496645482579
% es.EY (V/m) @ t=0
1.3978375708584347
% es.EZ (V/m) @ t=0
-5.120292982629671
% es.tEX (V/m) @ t=0
4.674496645482564
% es.tEY (V/m) @ t=0
0
% es.tEZ (V/m) @ t=0
-5.1202929826296595
% es.Ex (V/m) @ t=0
4.674496645482579
% es.Ey (V/m) @ t=0
1.3978375708584347
% es.Ez (V/m) @ t=0
-5.120292982629671
% es.tEx (V/m) @ t=0
4.674496645482564
% es.tEy (V/m) @ t=0
0
% es.tEz (V/m) @ t=0
-5.1202929826296595
% V (V) @ t=0
0.006309606685172949
% es.normE (V/m) @ t=0.02
6.362214858946547
% es.EX (V/m) @ t=0.02
4.0374588245499385
% es.EY (V/m) @ t=0.02
1.207341032440826
% es.EZ (V/m) @ t=0.02
-4.4225021619940215
% es.tEX (V/m) @ t=0.02
4.037458824549924
% es.tEY (V/m) @ t=0.02
0
% es.tEZ (V/m) @ t=0.02
-4.422502161994014
% es.Ex (V/m) @ t=0.02
4.0374588245499385
% es.Ey (V/m) @ t=0.02
1.207341032440826
% es.Ez (V/m) @ t=0.02
-4.4225021619940215
% es.tEx (V/m) @ t=0.02
4.037458824549924
% es.tEy (V/m) @ t=0.02
0
% es.tEz (V/m) @ t=0.02
-4.422502161994014
% V (V) @ t=0.02
0.005449736707285273
% es.normE (V/m) @ t=0.04
6.420745060208515
% es.EX (V/m) @ t=0.04
4.074602177389366
% es.EY (V/m) @ t=0.04
1.218448179340659
% es.EZ (V/m) @ t=0.04
-4.463187577177559
% es.tEX (V/m) @ t=0.04
4.074602177389355
% es.tEY (V/m) @ t=0.04
0
% es.tEZ (V/m) @ t=0.04
-4.463187577177551
% es.Ex (V/m) @ t=0.04
4.074602177389366
% es.Ey (V/m) @ t=0.04
1.218448179340659
% es.Ez (V/m) @ t=0.04
-4.463187577177559
% es.tEx (V/m) @ t=0.04
4.074602177389355
% es.tEy (V/m) @ t=0.04
0
% es.tEz (V/m) @ t=0.04
-4.463187577177551
% V (V) @ t=0.04
0.005499872103642541
% es.normE (V/m) @ t=0.06
6.4797981239448195
% es.EX (V/m) @ t=0.06
4.112077136974863
% es.EY (V/m) @ t=0.06
1.2296545084769384
% es.EZ (V/m) @ t=0.06
-4.504236610690352
% es.tEX (V/m) @ t=0.06
4.112077136974852
% es.tEY (V/m) @ t=0.06
0
% es.tEZ (V/m) @ t=0.06
-4.504236610690349
% es.Ex (V/m) @ t=0.06
4.112077136974863
% es.Ey (V/m) @ t=0.06
1.2296545084769384
% es.Ez (V/m) @ t=0.06
-4.504236610690352
% es.tEx (V/m) @ t=0.06
4.112077136974852
% es.tEy (V/m) @ t=0.06
0
% es.tEz (V/m) @ t=0.06
-4.504236610690349
% V (V) @ t=0.06
0.005550455943938184
% es.normE (V/m) @ t=0.08
6.539762652028244
% es.EX (V/m) @ t=0.08
4.150131693385024
% es.EY (V/m) @ t=0.08
1.2410340388713592
% es.EZ (V/m) @ t=0.08
-4.5459182464184895
% es.tEX (V/m) @ t=0.08
4.15013169338502
% es.tEY (V/m) @ t=0.08
0
% es.tEZ (V/m) @ t=0.08
-4.545918246418486
% es.Ex (V/m) @ t=0.08
4.150131693385024
% es.Ey (V/m) @ t=0.08
1.2410340388713592
% es.Ez (V/m) @ t=0.08
-4.5459182464184895
% es.tEx (V/m) @ t=0.08
4.15013169338502
% es.tEy (V/m) @ t=0.08
0
% es.tEz (V/m) @ t=0.08
-4.545918246418486
% V (V) @ t=0.08
0.00560181717560954
% es.normE (V/m) @ t=0.1
6.600335232016155
% es.EX (V/m) @ t=0.1
4.188572907763453
% es.EY (V/m) @ t=0.1
1.2525291144926418
% es.EZ (V/m) @ t=0.1
-4.588021900827389
% es.tEX (V/m) @ t=0.1
4.188572907763451
% es.tEY (V/m) @ t=0.1
0
% es.tEZ (V/m) @ t=0.1
-4.5880219008273775
% es.Ex (V/m) @ t=0.1
4.188572907763453
% es.Ey (V/m) @ t=0.1
1.2525291144926418
% es.Ez (V/m) @ t=0.1
-4.588021900827389
% es.tEx (V/m) @ t=0.1
4.188572907763451
% es.tEy (V/m) @ t=0.1
0
% es.tEz (V/m) @ t=0.1
-4.5880219008273775
% V (V) @ t=0.1
0.00565369701704046
% es.normE (V/m) @ t=0.12
6.660907812005005
% es.EX (V/m) @ t=0.12
4.227014122141894
% es.EY (V/m) @ t=0.12
1.2640241901138975
% es.EZ (V/m) @ t=0.12
-4.630125555236249
% es.tEX (V/m) @ t=0.12
4.22701412214189
% es.tEY (V/m) @ t=0.12
0
% es.tEZ (V/m) @ t=0.12
-4.630125555236245
% es.Ex (V/m) @ t=0.12
4.227014122141894
% es.Ey (V/m) @ t=0.12
1.2640241901138975
% es.Ez (V/m) @ t=0.12
-4.630125555236249
% es.tEx (V/m) @ t=0.12
4.22701412214189
% es.tEy (V/m) @ t=0.12
0
% es.tEz (V/m) @ t=0.12
-4.630125555236245
% V (V) @ t=0.12
0.00570557685847138
% es.normE (V/m) @ t=0.14
6.722157108239253
% es.EX (V/m) @ t=0.14
4.265884191390617
% es.EY (V/m) @ t=0.14
1.275647567308779
% es.EZ (V/m) @ t=0.14
-4.672700094321981
% es.tEX (V/m) @ t=0.14
4.265884191390615
% es.tEY (V/m) @ t=0.14
0
% es.tEZ (V/m) @ t=0.14
-4.672700094321966
% es.Ex (V/m) @ t=0.14
4.265884191390617
% es.Ey (V/m) @ t=0.14
1.275647567308779
% es.Ez (V/m) @ t=0.14
-4.672700094321981
% es.tEx (V/m) @ t=0.14
4.265884191390615
% es.tEy (V/m) @ t=0.14
0
% es.tEz (V/m) @ t=0.14
-4.672700094321966
% V (V) @ t=0.14
0.005758038029562484
% es.normE (V/m) @ t=0.16
6.785958152862456
% es.EX (V/m) @ t=0.16
4.306371378202465
% es.EY (V/m) @ t=0.16
1.2877547415699018
% es.EZ (V/m) @ t=0.16
-4.717050236143928
% es.tEX (V/m) @ t=0.16
4.3063713782024555
% es.tEY (V/m) @ t=0.16
0
% es.tEZ (V/m) @ t=0.16
-4.717050236143917
% es.Ex (V/m) @ t=0.16
4.306371378202465
% es.Ey (V/m) @ t=0.16
1.2877547415699018
% es.Ez (V/m) @ t=0.16
-4.717050236143928
% es.tEx (V/m) @ t=0.16
4.3063713782024555
% es.tEy (V/m) @ t=0.16
0
% es.tEz (V/m) @ t=0.16
-4.717050236143917
% V (V) @ t=0.16
0.005812691267174376
% es.normE (V/m) @ t=0.18
6.849759197485904
% es.EX (V/m) @ t=0.18
4.346858565014312
% es.EY (V/m) @ t=0.18
1.2998619158310227
% es.EZ (V/m) @ t=0.18
-4.761400377965861
% es.tEX (V/m) @ t=0.18
4.346858565014303
% es.tEY (V/m) @ t=0.18
0
% es.tEZ (V/m) @ t=0.18
-4.761400377965854
% es.Ex (V/m) @ t=0.18
4.346858565014312
% es.Ey (V/m) @ t=0.18
1.2998619158310227
% es.Ez (V/m) @ t=0.18
-4.761400377965861
% es.tEx (V/m) @ t=0.18
4.346858565014303
% es.tEy (V/m) @ t=0.18
0
% es.tEz (V/m) @ t=0.18
-4.761400377965854
% V (V) @ t=0.18
0.005867344504786267
% es.normE (V/m) @ t=0.2
6.913560242109614
% es.EX (V/m) @ t=0.2
4.387345751826144
% es.EY (V/m) @ t=0.2
1.3119690900921526
% es.EZ (V/m) @ t=0.2
-4.8057505197878125
% es.tEX (V/m) @ t=0.2
4.3873457518261425
% es.tEY (V/m) @ t=0.2
0
% es.tEZ (V/m) @ t=0.2
-4.805750519787802
% es.Ex (V/m) @ t=0.2
4.387345751826144
% es.Ey (V/m) @ t=0.2
1.3119690900921526
% es.Ez (V/m) @ t=0.2
-4.8057505197878125
% es.tEx (V/m) @ t=0.2
4.3873457518261425
% es.tEy (V/m) @ t=0.2
0
% es.tEz (V/m) @ t=0.2
-4.805750519787802
% V (V) @ t=0.2
0.0059219977423981595
% es.normE (V/m) @ t=0.22
6.977361286733581
% es.EX (V/m) @ t=0.22
4.42783293863799
% es.EY (V/m) @ t=0.22
1.324076264353275
% es.EZ (V/m) @ t=0.22
-4.85010066160976
% es.tEX (V/m) @ t=0.22
4.4278329386379855
% es.tEY (V/m) @ t=0.22
0
% es.tEZ (V/m) @ t=0.22
-4.850100661609752
% es.Ex (V/m) @ t=0.22
4.42783293863799
% es.Ey (V/m) @ t=0.22
1.324076264353275
% es.Ez (V/m) @ t=0.22
-4.85010066160976
% es.tEx (V/m) @ t=0.22
4.4278329386379855
% es.tEy (V/m) @ t=0.22
0
% es.tEz (V/m) @ t=0.22
-4.850100661609752
% V (V) @ t=0.22
0.0059766509800100506
% es.normE (V/m) @ t=0.24
7.041162331357783
% es.EX (V/m) @ t=0.24
4.468320125449823
% es.EY (V/m) @ t=0.24
1.3361834386144014
% es.EZ (V/m) @ t=0.24
-4.894450803431714
% es.tEX (V/m) @ t=0.24
4.468320125449808
% es.tEY (V/m) @ t=0.24
0
% es.tEZ (V/m) @ t=0.24
-4.894450803431703
% es.Ex (V/m) @ t=0.24
4.468320125449823
% es.Ey (V/m) @ t=0.24
1.3361834386144014
% es.Ez (V/m) @ t=0.24
-4.894450803431714
% es.tEx (V/m) @ t=0.24
4.468320125449808
% es.tEy (V/m) @ t=0.24
0
% es.tEz (V/m) @ t=0.24
-4.894450803431703
% V (V) @ t=0.24
0.0060313042176219425
% es.normE (V/m) @ t=0.26
7.104963375982212
% es.EX (V/m) @ t=0.26
4.508807312261663
% es.EY (V/m) @ t=0.26
1.348290612875524
% es.EZ (V/m) @ t=0.26
-4.938800945253658
% es.tEX (V/m) @ t=0.26
4.508807312261652
% es.tEY (V/m) @ t=0.26
0
% es.tEZ (V/m) @ t=0.26
-4.938800945253643
% es.Ex (V/m) @ t=0.26
4.508807312261663
% es.Ey (V/m) @ t=0.26
1.348290612875524
% es.Ez (V/m) @ t=0.26
-4.938800945253658
% es.tEx (V/m) @ t=0.26
4.508807312261652
% es.tEy (V/m) @ t=0.26
0
% es.tEz (V/m) @ t=0.26
-4.938800945253643
% V (V) @ t=0.26
0.006085957455233833
% es.normE (V/m) @ t=0.28
7.171887523585493
% es.EX (V/m) @ t=0.28
4.551270401981869
% es.EY (V/m) @ t=0.28
1.3609892463500892
% es.EZ (V/m) @ t=0.28
-4.985326981029689
% es.tEX (V/m) @ t=0.28
4.551270401981853
% es.tEY (V/m) @ t=0.28
0
% es.tEZ (V/m) @ t=0.28
-4.9853269810296785
% es.Ex (V/m) @ t=0.28
4.551270401981869
% es.Ey (V/m) @ t=0.28
1.3609892463500892
% es.Ez (V/m) @ t=0.28
-4.985326981029689
% es.tEx (V/m) @ t=0.28
4.551270401981853
% es.tEy (V/m) @ t=0.28
0
% es.tEz (V/m) @ t=0.28
-4.9853269810296785
% V (V) @ t=0.28
0.006143302927734582
% es.normE (V/m) @ t=0.3
7.242965968213175
% es.EX (V/m) @ t=0.3
4.596361803207723
% es.EY (V/m) @ t=0.3
1.374474628530361
% es.EZ (V/m) @ t=0.3
-5.0347473529041284
% es.tEX (V/m) @ t=0.3
4.596361803207721
% es.tEY (V/m) @ t=0.3
0
% es.tEZ (V/m) @ t=0.3
-5.034747352904118
% es.Ex (V/m) @ t=0.3
4.596361803207723
% es.Ey (V/m) @ t=0.3
1.374474628530361
% es.Ez (V/m) @ t=0.3
-5.0347473529041284
% es.tEx (V/m) @ t=0.3
4.596361803207721
% es.tEy (V/m) @ t=0.3
0
% es.tEz (V/m) @ t=0.3
-5.034747352904118
% V (V) @ t=0.3
0.006204229564018407
% es.normE (V/m) @ t=0.32
7.314044412896546
% es.EX (V/m) @ t=0.32
4.641453204433576
% es.EY (V/m) @ t=0.32
1.3879600107106453
% es.EZ (V/m) @ t=0.32
-5.084167724778575
% es.tEX (V/m) @ t=0.32
4.641453204433562
% es.tEY (V/m) @ t=0.32
0
% es.tEZ (V/m) @ t=0.32
-5.084167724778563
% es.Ex (V/m) @ t=0.32
4.641453204433576
% es.Ey (V/m) @ t=0.32
1.3879600107106453
% es.Ez (V/m) @ t=0.32
-5.084167724778575
% es.tEx (V/m) @ t=0.32
4.641453204433562
% es.tEy (V/m) @ t=0.32
0
% es.tEz (V/m) @ t=0.32
-5.084167724778563
% V (V) @ t=0.32
0.006265156200302231
% es.normE (V/m) @ t=0.34
7.385122857633975
% es.EX (V/m) @ t=0.34
4.686544605659426
% es.EY (V/m) @ t=0.34
1.4014453928909314
% es.EZ (V/m) @ t=0.34
-5.133588096653021
% es.tEX (V/m) @ t=0.34
4.68654460565942
% es.tEY (V/m) @ t=0.34
0
% es.tEZ (V/m) @ t=0.34
-5.133588096653006
% es.Ex (V/m) @ t=0.34
4.686544605659426
% es.Ey (V/m) @ t=0.34
1.4014453928909314
% es.Ez (V/m) @ t=0.34
-5.133588096653021
% es.tEx (V/m) @ t=0.34
4.68654460565942
% es.tEy (V/m) @ t=0.34
0
% es.tEz (V/m) @ t=0.34
-5.133588096653006
% V (V) @ t=0.34
0.006326082836586057
% es.normE (V/m) @ t=0.36
7.456201302423941
% es.EX (V/m) @ t=0.36
4.731636006885276
% es.EY (V/m) @ t=0.36
1.4149307750712317
% es.EZ (V/m) @ t=0.36
-5.1830084685274596
% es.tEX (V/m) @ t=0.36
4.731636006885264
% es.tEY (V/m) @ t=0.36
0
% es.tEZ (V/m) @ t=0.36
-5.183008468527449
% es.Ex (V/m) @ t=0.36
4.731636006885276
% es.Ey (V/m) @ t=0.36
1.4149307750712317
% es.Ez (V/m) @ t=0.36
-5.1830084685274596
% es.tEx (V/m) @ t=0.36
4.731636006885264
% es.tEy (V/m) @ t=0.36
0
% es.tEz (V/m) @ t=0.36
-5.183008468527449
% V (V) @ t=0.36
0.006387009472869881
% es.normE (V/m) @ t=0.38
7.527279747264944
% es.EX (V/m) @ t=0.38
4.7767274081111335
% es.EY (V/m) @ t=0.38
1.4284161572515144
% es.EZ (V/m) @ t=0.38
-5.232428840401895
% es.tEX (V/m) @ t=0.38
4.776727408111126
% es.tEY (V/m) @ t=0.38
0
% es.tEZ (V/m) @ t=0.38
-5.232428840401884
% es.Ex (V/m) @ t=0.38
4.7767274081111335
% es.Ey (V/m) @ t=0.38
1.4284161572515144
% es.Ez (V/m) @ t=0.38
-5.232428840401895
% es.tEx (V/m) @ t=0.38
4.776727408111126
% es.tEy (V/m) @ t=0.38
0
% es.tEz (V/m) @ t=0.38
-5.232428840401884
% V (V) @ t=0.38
0.0064479361091537065
% es.normE (V/m) @ t=0.4
7.598358192155565
% es.EX (V/m) @ t=0.4
4.821818809336982
% es.EY (V/m) @ t=0.4
1.4419015394318235
% es.EZ (V/m) @ t=0.4
-5.281849212276342
% es.tEX (V/m) @ t=0.4
4.82181880933698
% es.tEY (V/m) @ t=0.4
0
% es.tEZ (V/m) @ t=0.4
-5.28184921227633
% es.Ex (V/m) @ t=0.4
4.821818809336982
% es.Ey (V/m) @ t=0.4
1.4419015394318235
% es.Ez (V/m) @ t=0.4
-5.281849212276342
% es.tEx (V/m) @ t=0.4
4.82181880933698
% es.tEy (V/m) @ t=0.4
0
% es.tEz (V/m) @ t=0.4
-5.28184921227633
% V (V) @ t=0.4
0.006508862745437532
% es.normE (V/m) @ t=0.42
7.6694366370944085
% es.EX (V/m) @ t=0.42
4.866910210562834
% es.EY (V/m) @ t=0.42
1.4553869216121045
% es.EZ (V/m) @ t=0.42
-5.331269584150791
% es.tEX (V/m) @ t=0.42
4.8669102105628275
% es.tEY (V/m) @ t=0.42
0
% es.tEZ (V/m) @ t=0.42
-5.33126958415078
% es.Ex (V/m) @ t=0.42
4.866910210562834
% es.Ey (V/m) @ t=0.42
1.4553869216121045
% es.Ez (V/m) @ t=0.42
-5.331269584150791
% es.tEx (V/m) @ t=0.42
4.8669102105628275
% es.tEy (V/m) @ t=0.42
0
% es.tEz (V/m) @ t=0.42
-5.33126958415078
% V (V) @ t=0.42
0.006569789381721356
% es.normE (V/m) @ t=0.44
7.740515082080145
% es.EX (V/m) @ t=0.44
4.912001611788689
% es.EY (V/m) @ t=0.44
1.4688723037923923
% es.EZ (V/m) @ t=0.44
-5.380689956025223
% es.tEX (V/m) @ t=0.44
4.9120016117886784
% es.tEY (V/m) @ t=0.44
0
% es.tEZ (V/m) @ t=0.44
-5.380689956025208
% es.Ex (V/m) @ t=0.44
4.912001611788689
% es.Ey (V/m) @ t=0.44
1.4688723037923923
% es.Ez (V/m) @ t=0.44
-5.380689956025223
% es.tEx (V/m) @ t=0.44
4.9120016117886784
% es.tEy (V/m) @ t=0.44
0
% es.tEz (V/m) @ t=0.44
-5.380689956025208
% V (V) @ t=0.44
0.00663071601800518
% es.normE (V/m) @ t=0.46
7.811593527111505
% es.EX (V/m) @ t=0.46
4.957093013014543
% es.EY (V/m) @ t=0.46
1.4823576859726801
% es.EZ (V/m) @ t=0.46
-5.430110327899669
% es.tEX (V/m) @ t=0.46
4.957093013014529
% es.tEY (V/m) @ t=0.46
0
% es.tEZ (V/m) @ t=0.46
-5.430110327899658
% es.Ex (V/m) @ t=0.46
4.957093013014543
% es.Ey (V/m) @ t=0.46
1.4823576859726801
% es.Ez (V/m) @ t=0.46
-5.430110327899669
% es.tEx (V/m) @ t=0.46
4.957093013014529
% es.tEy (V/m) @ t=0.46
0
% es.tEz (V/m) @ t=0.46
-5.430110327899658
% V (V) @ t=0.46
0.006691642654289006
% es.normE (V/m) @ t=0.48
7.882671972187249
% es.EX (V/m) @ t=0.48
5.002184414240397
% es.EY (V/m) @ t=0.48
1.495843068152968
% es.EZ (V/m) @ t=0.48
-5.4795306997741005
% es.tEX (V/m) @ t=0.48
5.0021844142403875
% es.tEY (V/m) @ t=0.48
0
% es.tEZ (V/m) @ t=0.48
-5.47953069977409
% es.Ex (V/m) @ t=0.48
5.002184414240397
% es.Ey (V/m) @ t=0.48
1.495843068152968
% es.Ez (V/m) @ t=0.48
-5.4795306997741005
% es.tEx (V/m) @ t=0.48
5.0021844142403875
% es.tEy (V/m) @ t=0.48
0
% es.tEz (V/m) @ t=0.48
-5.47953069977409
% V (V) @ t=0.48
0.00675256929057283
% es.normE (V/m) @ t=0.5
7.953750417306194
% es.EX (V/m) @ t=0.5
5.047275815466255
% es.EY (V/m) @ t=0.5
1.5093284503332522
% es.EZ (V/m) @ t=0.5
-5.528951071648544
% es.tEX (V/m) @ t=0.5
5.047275815466239
% es.tEY (V/m) @ t=0.5
0
% es.tEZ (V/m) @ t=0.5
-5.528951071648533
% es.Ex (V/m) @ t=0.5
5.047275815466255
% es.Ey (V/m) @ t=0.5
1.5093284503332522
% es.Ez (V/m) @ t=0.5
-5.528951071648544
% es.tEx (V/m) @ t=0.5
5.047275815466239
% es.tEy (V/m) @ t=0.5
0
% es.tEz (V/m) @ t=0.5
-5.528951071648533
% V (V) @ t=0.5
0.006813495926856656
% es.normE (V/m) @ t=0.52
8.024828862467187
% es.EX (V/m) @ t=0.52
5.092367216692113
% es.EY (V/m) @ t=0.52
1.5228138325135543
% es.EZ (V/m) @ t=0.52
-5.57837144352299
% es.tEX (V/m) @ t=0.52
5.0923672166920975
% es.tEY (V/m) @ t=0.52
0
% es.tEZ (V/m) @ t=0.52
-5.578371443522979
% es.Ex (V/m) @ t=0.52
5.092367216692113
% es.Ey (V/m) @ t=0.52
1.5228138325135543
% es.Ez (V/m) @ t=0.52
-5.57837144352299
% es.tEx (V/m) @ t=0.52
5.0923672166920975
% es.tEy (V/m) @ t=0.52
0
% es.tEz (V/m) @ t=0.52
-5.578371443522979
% V (V) @ t=0.52
0.006874422563140481
% es.normE (V/m) @ t=0.54
8.095907307669128
% es.EX (V/m) @ t=0.54
5.137458617917964
% es.EY (V/m) @ t=0.54
1.5362992146938566
% es.EZ (V/m) @ t=0.54
-5.62779181539744
% es.tEX (V/m) @ t=0.54
5.137458617917941
% es.tEY (V/m) @ t=0.54
0
% es.tEZ (V/m) @ t=0.54
-5.6277918153974245
% es.Ex (V/m) @ t=0.54
5.137458617917964
% es.Ey (V/m) @ t=0.54
1.5362992146938566
% es.Ez (V/m) @ t=0.54
-5.62779181539744
% es.tEx (V/m) @ t=0.54
5.137458617917941
% es.tEy (V/m) @ t=0.54
0
% es.tEz (V/m) @ t=0.54
-5.6277918153974245
% V (V) @ t=0.54
0.006935349199424305
% es.normE (V/m) @ t=0.56
8.174076022429986
% es.EX (V/m) @ t=0.56
5.1870672122129635
% es.EY (V/m) @ t=0.56
1.5511336460092708
% es.EZ (V/m) @ t=0.56
-5.682126166726778
% es.tEX (V/m) @ t=0.56
5.187067212212947
% es.tEY (V/m) @ t=0.56
0
% es.tEZ (V/m) @ t=0.56
-5.682126166726764
% es.Ex (V/m) @ t=0.56
5.1870672122129635
% es.Ey (V/m) @ t=0.56
1.5511336460092708
% es.Ez (V/m) @ t=0.56
-5.682126166726778
% es.tEx (V/m) @ t=0.56
5.187067212212947
% es.tEy (V/m) @ t=0.56
0
% es.tEz (V/m) @ t=0.56
-5.682126166726764
% V (V) @ t=0.56
0.007002299013543799
% es.normE (V/m) @ t=0.58
8.25332077777738
% es.EX (V/m) @ t=0.58
5.237361349279352
% es.EY (V/m) @ t=0.58
1.5661728130684525
% es.EZ (V/m) @ t=0.58
-5.737206278319714
% es.tEX (V/m) @ t=0.58
5.237361349279347
% es.tEY (V/m) @ t=0.58
0
% es.tEZ (V/m) @ t=0.58
-5.737206278319704
% es.Ex (V/m) @ t=0.58
5.237361349279352
% es.Ey (V/m) @ t=0.58
1.5661728130684525
% es.Ez (V/m) @ t=0.58
-5.737206278319714
% es.tEx (V/m) @ t=0.58
5.237361349279347
% es.tEy (V/m) @ t=0.58
0
% es.tEz (V/m) @ t=0.58
-5.737206278319704
% V (V) @ t=0.58
0.007070162923200672
% es.normE (V/m) @ t=0.6
8.33256553313678
% es.EX (V/m) @ t=0.6
5.287655486345752
% es.EY (V/m) @ t=0.6
1.5812119801276585
% es.EZ (V/m) @ t=0.6
-5.792286389912656
% es.tEX (V/m) @ t=0.6
5.287655486345739
% es.tEY (V/m) @ t=0.6
0
% es.tEZ (V/m) @ t=0.6
-5.792286389912641
% es.Ex (V/m) @ t=0.6
5.287655486345752
% es.Ey (V/m) @ t=0.6
1.5812119801276585
% es.Ez (V/m) @ t=0.6
-5.792286389912656
% es.tEx (V/m) @ t=0.6
5.287655486345739
% es.tEy (V/m) @ t=0.6
0
% es.tEz (V/m) @ t=0.6
-5.792286389912641
% V (V) @ t=0.6
0.007138026832857547
% es.normE (V/m) @ t=0.62
8.411810288507812
% es.EX (V/m) @ t=0.62
5.337949623412136
% es.EY (V/m) @ t=0.62
1.5962511471868754
% es.EZ (V/m) @ t=0.62
-5.847366501505602
% es.tEX (V/m) @ t=0.62
5.337949623412127
% es.tEY (V/m) @ t=0.62
0
% es.tEZ (V/m) @ t=0.62
-5.847366501505592
% es.Ex (V/m) @ t=0.62
5.337949623412136
% es.Ey (V/m) @ t=0.62
1.5962511471868754
% es.Ez (V/m) @ t=0.62
-5.847366501505602
% es.tEx (V/m) @ t=0.62
5.337949623412127
% es.tEy (V/m) @ t=0.62
0
% es.tEz (V/m) @ t=0.62
-5.847366501505592
% V (V) @ t=0.62
0.007205890742514419
% es.normE (V/m) @ t=0.64
8.49105504389016
% es.EX (V/m) @ t=0.64
5.388243760478529
% es.EY (V/m) @ t=0.64
1.6112903142460642
% es.EZ (V/m) @ t=0.64
-5.902446613098562
% es.tEX (V/m) @ t=0.64
5.388243760478519
% es.tEY (V/m) @ t=0.64
0
% es.tEZ (V/m) @ t=0.64
-5.9024466130985465
% es.Ex (V/m) @ t=0.64
5.388243760478529
% es.Ey (V/m) @ t=0.64
1.6112903142460642
% es.Ez (V/m) @ t=0.64
-5.902446613098562
% es.tEx (V/m) @ t=0.64
5.388243760478519
% es.tEy (V/m) @ t=0.64
0
% es.tEz (V/m) @ t=0.64
-5.9024466130985465
% V (V) @ t=0.64
0.007273754652171297
% es.normE (V/m) @ t=0.66
8.570299799283518
% es.EX (V/m) @ t=0.66
5.438537897544921
% es.EY (V/m) @ t=0.66
1.626329481305263
% es.EZ (V/m) @ t=0.66
-5.957526724691512
% es.tEX (V/m) @ t=0.66
5.438537897544904
% es.tEY (V/m) @ t=0.66
0
% es.tEZ (V/m) @ t=0.66
-5.957526724691505
% es.Ex (V/m) @ t=0.66
5.438537897544921
% es.Ey (V/m) @ t=0.66
1.626329481305263
% es.Ez (V/m) @ t=0.66
-5.957526724691512
% es.tEx (V/m) @ t=0.66
5.438537897544904
% es.tEy (V/m) @ t=0.66
0
% es.tEz (V/m) @ t=0.66
-5.957526724691505
% V (V) @ t=0.66
0.00734161856182817
% es.normE (V/m) @ t=0.68
8.649544554687568
% es.EX (V/m) @ t=0.68
5.488832034611303
% es.EY (V/m) @ t=0.68
1.6413686483644838
% es.EZ (V/m) @ t=0.68
-6.012606836284471
% es.tEX (V/m) @ t=0.68
5.48883203461129
% es.tEY (V/m) @ t=0.68
0
% es.tEZ (V/m) @ t=0.68
-6.012606836284456
% es.Ex (V/m) @ t=0.68
5.488832034611303
% es.Ey (V/m) @ t=0.68
1.6413686483644838
% es.Ez (V/m) @ t=0.68
-6.012606836284471
% es.tEx (V/m) @ t=0.68
5.48883203461129
% es.tEy (V/m) @ t=0.68
0
% es.tEz (V/m) @ t=0.68
-6.012606836284456
% V (V) @ t=0.68
0.007409482471485046
% es.normE (V/m) @ t=0.7
8.72878931010203
% es.EX (V/m) @ t=0.7
5.53912617167771
% es.EY (V/m) @ t=0.7
1.6564078154236896
% es.EZ (V/m) @ t=0.7
-6.067686947877418
% es.tEX (V/m) @ t=0.7
5.539126171677694
% es.tEY (V/m) @ t=0.7
0
% es.tEZ (V/m) @ t=0.7
-6.067686947877403
% es.Ex (V/m) @ t=0.7
5.53912617167771
% es.Ey (V/m) @ t=0.7
1.6564078154236896
% es.Ez (V/m) @ t=0.7
-6.067686947877418
% es.tEx (V/m) @ t=0.7
5.539126171677694
% es.tEy (V/m) @ t=0.7
0
% es.tEz (V/m) @ t=0.7
-6.067686947877403
% V (V) @ t=0.7
0.007477346381141919
% es.normE (V/m) @ t=0.72
8.808034065526591
% es.EX (V/m) @ t=0.72
5.589420308744091
% es.EY (V/m) @ t=0.72
1.671446982482903
% es.EZ (V/m) @ t=0.72
-6.122767059470352
% es.tEX (V/m) @ t=0.72
5.589420308744085
% es.tEY (V/m) @ t=0.72
0
% es.tEZ (V/m) @ t=0.72
-6.122767059470344
% es.Ex (V/m) @ t=0.72
5.589420308744091
% es.Ey (V/m) @ t=0.72
1.671446982482903
% es.Ez (V/m) @ t=0.72
-6.122767059470352
% es.tEx (V/m) @ t=0.72
5.589420308744085
% es.tEy (V/m) @ t=0.72
0
% es.tEz (V/m) @ t=0.72
-6.122767059470344
% V (V) @ t=0.72
0.007545210290798795
% es.normE (V/m) @ t=0.74
8.887278820961045
% es.EX (V/m) @ t=0.74
5.639714445810485
% es.EY (V/m) @ t=0.74
1.6864861495421057
% es.EZ (V/m) @ t=0.74
-6.177847171063309
% es.tEX (V/m) @ t=0.74
5.639714445810477
% es.tEY (V/m) @ t=0.74
0
% es.tEZ (V/m) @ t=0.74
-6.177847171063295
% es.Ex (V/m) @ t=0.74
5.639714445810485
% es.Ey (V/m) @ t=0.74
1.6864861495421057
% es.Ez (V/m) @ t=0.74
-6.177847171063309
% es.tEx (V/m) @ t=0.74
5.639714445810477
% es.tEy (V/m) @ t=0.74
0
% es.tEz (V/m) @ t=0.74
-6.177847171063295
% V (V) @ t=0.74
0.007613074200455669
% es.normE (V/m) @ t=0.76
8.96652357640508
% es.EX (V/m) @ t=0.76
5.690008582876878
% es.EY (V/m) @ t=0.76
1.7015253166012765
% es.EZ (V/m) @ t=0.76
-6.232927282656265
% es.tEX (V/m) @ t=0.76
5.690008582876863
% es.tEY (V/m) @ t=0.76
0
% es.tEZ (V/m) @ t=0.76
-6.232927282656253
% es.Ex (V/m) @ t=0.76
5.690008582876878
% es.Ey (V/m) @ t=0.76
1.7015253166012765
% es.Ez (V/m) @ t=0.76
-6.232927282656265
% es.tEx (V/m) @ t=0.76
5.690008582876863
% es.tEy (V/m) @ t=0.76
0
% es.tEz (V/m) @ t=0.76
-6.232927282656253
% V (V) @ t=0.76
0.007680938110112542
% es.normE (V/m) @ t=0.78
9.045768331858454
% es.EX (V/m) @ t=0.78
5.74030271994326
% es.EY (V/m) @ t=0.78
1.7165644836605076
% es.EZ (V/m) @ t=0.78
-6.288007394249211
% es.tEX (V/m) @ t=0.78
5.740302719943244
% es.tEY (V/m) @ t=0.78
0
% es.tEZ (V/m) @ t=0.78
-6.28800739424919
% es.Ex (V/m) @ t=0.78
5.74030271994326
% es.Ey (V/m) @ t=0.78
1.7165644836605076
% es.Ez (V/m) @ t=0.78
-6.288007394249211
% es.tEx (V/m) @ t=0.78
5.740302719943244
% es.tEy (V/m) @ t=0.78
0
% es.tEz (V/m) @ t=0.78
-6.28800739424919
% V (V) @ t=0.78
0.007748802019769416
% es.normE (V/m) @ t=0.8
9.125013087320943
% es.EX (V/m) @ t=0.8
5.7905968570096675
% es.EY (V/m) @ t=0.8
1.731603650719721
% es.EZ (V/m) @ t=0.8
-6.343087505842166
% es.tEX (V/m) @ t=0.8
5.790596857009651
% es.tEY (V/m) @ t=0.8
0
% es.tEZ (V/m) @ t=0.8
-6.343087505842144
% es.Ex (V/m) @ t=0.8
5.7905968570096675
% es.Ey (V/m) @ t=0.8
1.731603650719721
% es.Ez (V/m) @ t=0.8
-6.343087505842166
% es.tEx (V/m) @ t=0.8
5.790596857009651
% es.tEy (V/m) @ t=0.8
0
% es.tEz (V/m) @ t=0.8
-6.343087505842144
% V (V) @ t=0.8
0.007816665929426292
% es.normE (V/m) @ t=0.82
9.207119722932255
% es.EX (V/m) @ t=0.82
5.842708384208382
% es.EY (V/m) @ t=0.82
1.7471861546720997
% es.EZ (V/m) @ t=0.82
-6.400155943028428
% es.tEX (V/m) @ t=0.82
5.8427083842083665
% es.tEY (V/m) @ t=0.82
0
% es.tEZ (V/m) @ t=0.82
-6.400155943028413
% es.Ex (V/m) @ t=0.82
5.842708384208382
% es.Ey (V/m) @ t=0.82
1.7471861546720997
% es.Ez (V/m) @ t=0.82
-6.400155943028428
% es.tEx (V/m) @ t=0.82
5.8427083842083665
% es.tEy (V/m) @ t=0.82
0
% es.tEz (V/m) @ t=0.82
-6.400155943028413
% V (V) @ t=0.82
0.007886977746691335
% es.normE (V/m) @ t=0.84
9.295676935000554
% es.EX (V/m) @ t=0.84
5.898916244375143
% es.EY (V/m) @ t=0.84
1.7639933207312737
% es.EZ (V/m) @ t=0.84
-6.461705995655546
% es.tEX (V/m) @ t=0.84
5.898916244375128
% es.tEY (V/m) @ t=0.84
0
% es.tEZ (V/m) @ t=0.84
-6.461705995655539
% es.Ex (V/m) @ t=0.84
5.898916244375143
% es.Ey (V/m) @ t=0.84
1.7639933207312737
% es.Ez (V/m) @ t=0.84
-6.461705995655546
% es.tEx (V/m) @ t=0.84
5.898916244375128
% es.tEy (V/m) @ t=0.84
0
% es.tEz (V/m) @ t=0.84
-6.461705995655539
% V (V) @ t=0.84
0.007962807060975678
% es.normE (V/m) @ t=0.86
9.384234147091277
% es.EX (V/m) @ t=0.86
5.955124104541897
% es.EY (V/m) @ t=0.86
1.7808004867904446
% es.EZ (V/m) @ t=0.86
-6.523256048282668
% es.tEX (V/m) @ t=0.86
5.955124104541888
% es.tEY (V/m) @ t=0.86
0
% es.tEZ (V/m) @ t=0.86
-6.5232560482826525
% es.Ex (V/m) @ t=0.86
5.955124104541897
% es.Ey (V/m) @ t=0.86
1.7808004867904446
% es.Ez (V/m) @ t=0.86
-6.523256048282668
% es.tEx (V/m) @ t=0.86
5.955124104541888
% es.tEy (V/m) @ t=0.86
0
% es.tEz (V/m) @ t=0.86
-6.5232560482826525
% V (V) @ t=0.86
0.008038636375260021
% es.normE (V/m) @ t=0.88
9.472791359203796
% es.EX (V/m) @ t=0.88
6.011331964708648
% es.EY (V/m) @ t=0.88
1.7976076528496079
% es.EZ (V/m) @ t=0.88
-6.584806100909789
% es.tEX (V/m) @ t=0.88
6.0113319647086385
% es.tEY (V/m) @ t=0.88
0
% es.tEZ (V/m) @ t=0.88
-6.584806100909775
% es.Ex (V/m) @ t=0.88
6.011331964708648
% es.Ey (V/m) @ t=0.88
1.7976076528496079
% es.Ez (V/m) @ t=0.88
-6.584806100909789
% es.tEx (V/m) @ t=0.88
6.0113319647086385
% es.tEy (V/m) @ t=0.88
0
% es.tEz (V/m) @ t=0.88
-6.584806100909775
% V (V) @ t=0.88
0.008114465689544366
% es.normE (V/m) @ t=0.9
9.56134857133753
% es.EX (V/m) @ t=0.9
6.06753982487542
% es.EY (V/m) @ t=0.9
1.8144148189088174
% es.EZ (V/m) @ t=0.9
-6.64635615353691
% es.tEX (V/m) @ t=0.9
6.0675398248754036
% es.tEY (V/m) @ t=0.9
0
% es.tEZ (V/m) @ t=0.9
-6.646356153536896
% es.Ex (V/m) @ t=0.9
6.06753982487542
% es.Ey (V/m) @ t=0.9
1.8144148189088174
% es.Ez (V/m) @ t=0.9
-6.64635615353691
% es.tEx (V/m) @ t=0.9
6.0675398248754036
% es.tEy (V/m) @ t=0.9
0
% es.tEz (V/m) @ t=0.9
-6.646356153536896
% V (V) @ t=0.9
0.008190295003828708
% es.normE (V/m) @ t=0.92
9.649905783491874
% es.EX (V/m) @ t=0.92
6.123747685042192
% es.EY (V/m) @ t=0.92
1.8312219849679776
% es.EZ (V/m) @ t=0.92
-6.707906206164047
% es.tEX (V/m) @ t=0.92
6.123747685042167
% es.tEY (V/m) @ t=0.92
0
% es.tEZ (V/m) @ t=0.92
-6.707906206164025
% es.Ex (V/m) @ t=0.92
6.123747685042192
% es.Ey (V/m) @ t=0.92
1.8312219849679776
% es.Ez (V/m) @ t=0.92
-6.707906206164047
% es.tEx (V/m) @ t=0.92
6.123747685042167
% es.tEy (V/m) @ t=0.92
0
% es.tEz (V/m) @ t=0.92
-6.707906206164025
% V (V) @ t=0.92
0.008266124318113051
% es.normE (V/m) @ t=0.94
9.738462995666243
% es.EX (V/m) @ t=0.94
6.179955545208958
% es.EY (V/m) @ t=0.94
1.848029151027148
% es.EZ (V/m) @ t=0.94
-6.769456258791154
% es.tEX (V/m) @ t=0.94
6.1799555452089425
% es.tEY (V/m) @ t=0.94
0
% es.tEZ (V/m) @ t=0.94
-6.769456258791132
% es.Ex (V/m) @ t=0.94
6.179955545208958
% es.Ey (V/m) @ t=0.94
1.848029151027148
% es.Ez (V/m) @ t=0.94
-6.769456258791154
% es.tEx (V/m) @ t=0.94
6.1799555452089425
% es.tEy (V/m) @ t=0.94
0
% es.tEz (V/m) @ t=0.94
-6.769456258791132
% V (V) @ t=0.94
0.008341953632397396
% es.normE (V/m) @ t=0.96
9.82702020786011
% es.EX (V/m) @ t=0.96
6.236163405375699
% es.EY (V/m) @ t=0.96
1.8648363170863185
% es.EZ (V/m) @ t=0.96
-6.831006311418262
% es.tEX (V/m) @ t=0.96
6.236163405375684
% es.tEY (V/m) @ t=0.96
0
% es.tEZ (V/m) @ t=0.96
-6.831006311418247
% es.Ex (V/m) @ t=0.96
6.236163405375699
% es.Ey (V/m) @ t=0.96
1.8648363170863185
% es.Ez (V/m) @ t=0.96
-6.831006311418262
% es.tEx (V/m) @ t=0.96
6.236163405375684
% es.tEy (V/m) @ t=0.96
0
% es.tEz (V/m) @ t=0.96
-6.831006311418247
% V (V) @ t=0.96
0.008417782946681739
% es.normE (V/m) @ t=0.98
9.915577420073005
% es.EX (V/m) @ t=0.98
6.292371265542479
% es.EY (V/m) @ t=0.98
1.8816434831454711
% es.EZ (V/m) @ t=0.98
-6.892556364045402
% es.tEX (V/m) @ t=0.98
6.292371265542474
% es.tEY (V/m) @ t=0.98
0
% es.tEZ (V/m) @ t=0.98
-6.8925563640453795
% es.Ex (V/m) @ t=0.98
6.292371265542479
% es.Ey (V/m) @ t=0.98
1.8816434831454711
% es.Ez (V/m) @ t=0.98
-6.892556364045402
% es.tEx (V/m) @ t=0.98
6.292371265542474
% es.tEy (V/m) @ t=0.98
0
% es.tEz (V/m) @ t=0.98
-6.8925563640453795
% V (V) @ t=0.98
0.008493612260966081
% es.normE (V/m) @ t=1
10.00413463230435
% es.EX (V/m) @ t=1
6.348579125709223
% es.EY (V/m) @ t=1
1.8984506492046562
% es.EZ (V/m) @ t=1
-6.9541064166725235
% es.tEX (V/m) @ t=1
6.3485791257092075
% es.tEY (V/m) @ t=1
0
% es.tEZ (V/m) @ t=1
-6.9541064166725155
% es.Ex (V/m) @ t=1
6.348579125709223
% es.Ey (V/m) @ t=1
1.8984506492046562
% es.Ez (V/m) @ t=1
-6.9541064166725235
% es.tEx (V/m) @ t=1
6.3485791257092075
% es.tEy (V/m) @ t=1
0
% es.tEz (V/m) @ t=1
-6.9541064166725155
% V (V) @ t=1
0.008569441575250424
% es.normE (V/m) @ t=1.02
10.092691844553688
% es.EX (V/m) @ t=1.02
6.404786985875999
% es.EY (V/m) @ t=1.02
1.9152578152638409
% es.EZ (V/m) @ t=1.02
-7.01565646929963
% es.tEX (V/m) @ t=1.02
6.40478698587597
% es.tEY (V/m) @ t=1.02
0
% es.tEZ (V/m) @ t=1.02
-7.015656469299616
% es.Ex (V/m) @ t=1.02
6.404786985875999
% es.Ey (V/m) @ t=1.02
1.9152578152638409
% es.Ez (V/m) @ t=1.02
-7.01565646929963
% es.tEx (V/m) @ t=1.02
6.40478698587597
% es.tEy (V/m) @ t=1.02
0
% es.tEz (V/m) @ t=1.02
-7.015656469299616
% V (V) @ t=1.02
0.008645270889534767
% es.normE (V/m) @ t=1.04
10.18124905682054
% es.EX (V/m) @ t=1.04
6.460994846042743
% es.EY (V/m) @ t=1.04
1.9320649813230149
% es.EZ (V/m) @ t=1.04
-7.077206521926753
% es.tEX (V/m) @ t=1.04
6.460994846042725
% es.tEY (V/m) @ t=1.04
0
% es.tEZ (V/m) @ t=1.04
-7.077206521926738
% es.Ex (V/m) @ t=1.04
6.460994846042743
% es.Ey (V/m) @ t=1.04
1.9320649813230149
% es.Ez (V/m) @ t=1.04
-7.077206521926753
% es.tEx (V/m) @ t=1.04
6.460994846042725
% es.tEy (V/m) @ t=1.04
0
% es.tEz (V/m) @ t=1.04
-7.077206521926738
% V (V) @ t=1.04
0.008721100203819113
% es.normE (V/m) @ t=1.06
10.269806269104482
% es.EX (V/m) @ t=1.06
6.517202706209504