% Model:              1 neuron.mph
% Version:            COMSOL 6.0.0.405
% Date:               Mar 9 2023, 14:06
% Dimension:          0
% Nodes:              14017
% Expressions:        14017
% Description:        Electric field norm, Electric field, X component, Electric field, Y component, Electric field, Z component, Tangential electric field, X component, Tangential electric field, Y component, Tangential electric field, Z component, Electric field, x component, Electric field, y component, Electric field, z component, Tangential electric field, x component, Tangential electric field, y component, Tangential electric field, z component, Electric potential
% Length unit:        mm
% x
1.3300000000000003
% y
12.200000000000001
% z
1.66
% es.normE (V/m) @ t=0
7.459140489667311
% es.EX (V/m) @ t=0
4.7335675509508865
% es.EY (V/m) @ t=0
1.415501781766846
% es.EZ (V/m) @ t=0
-5.184996747054507
% es.tEX (V/m) @ t=0
4.733567550950877
% es.tEY (V/m) @ t=0
0
% es.tEZ (V/m) @ t=0
-5.184996747054493
% es.Ex (V/m) @ t=0
4.7335675509508865
% es.Ey (V/m) @ t=0
1.415501781766846
% es.Ez (V/m) @ t=0
-5.184996747054507
% es.tEx (V/m) @ t=0
4.733567550950877
% es.tEy (V/m) @ t=0
0
% es.tEz (V/m) @ t=0
-5.184996747054493
% V (V) @ t=0
0.006389340137700963
% es.normE (V/m) @ t=0.02
6.442598612133488
% es.EX (V/m) @ t=0.02
4.088470508348401
% es.EY (V/m) @ t=0.02
1.222595260068194
% es.EZ (V/m) @ t=0.02
-4.478378273443325
% es.tEX (V/m) @ t=0.02
4.088470508348387
% es.tEY (V/m) @ t=0.02
0
% es.tEZ (V/m) @ t=0.02
-4.478378273443314
% es.Ex (V/m) @ t=0.02
4.088470508348401
% es.Ey (V/m) @ t=0.02
1.222595260068194
% es.Ez (V/m) @ t=0.02
-4.478378273443325
% es.tEx (V/m) @ t=0.02
4.088470508348387
% es.tEy (V/m) @ t=0.02
0
% es.tEz (V/m) @ t=0.02
-4.478378273443314
% V (V) @ t=0.02
0.00551859203647467
% es.normE (V/m) @ t=0.04
6.5018531311909324
% es.EX (V/m) @ t=0.04
4.126073460349442
% es.EY (V/m) @ t=0.04
1.2338398341448558
% es.EZ (V/m) @ t=0.04
-4.519567220854938
% es.tEX (V/m) @ t=0.04
4.126073460349421
% es.tEY (V/m) @ t=0.04
0
% es.tEZ (V/m) @ t=0.04
-4.519567220854934
% es.Ex (V/m) @ t=0.04
4.126073460349442
% es.Ey (V/m) @ t=0.04
1.2338398341448558
% es.Ez (V/m) @ t=0.04
-4.519567220854938
% es.tEx (V/m) @ t=0.04
4.126073460349421
% es.tEy (V/m) @ t=0.04
0
% es.tEz (V/m) @ t=0.04
-4.519567220854934
% V (V) @ t=0.04
0.00556934799156484
% es.normE (V/m) @ t=0.06
6.561640668699825
% es.EX (V/m) @ t=0.06
4.164014578948366
% es.EY (V/m) @ t=0.06
1.2451855616071226
% es.EZ (V/m) @ t=0.06
-4.561126748675338
% es.tEX (V/m) @ t=0.06
4.164014578948354
% es.tEY (V/m) @ t=0.06
0
% es.tEZ (V/m) @ t=0.06
-4.561126748675331
% es.Ex (V/m) @ t=0.06
4.164014578948366
% es.Ey (V/m) @ t=0.06
1.2451855616071226
% es.Ez (V/m) @ t=0.06
-4.561126748675338
% es.tEx (V/m) @ t=0.06
4.164014578948354
% es.tEy (V/m) @ t=0.06
0
% es.tEz (V/m) @ t=0.06
-4.561126748675331
% V (V) @ t=0.06
0.00562056081454716
% es.normE (V/m) @ t=0.08
6.622344010269966
% es.EX (V/m) @ t=0.08
4.20253686974177
% es.EY (V/m) @ t=0.08
1.256705078712499
% es.EZ (V/m) @ t=0.08
-4.6033228674751
% es.tEX (V/m) @ t=0.08
4.202536869741763
% es.tEY (V/m) @ t=0.08
0
% es.tEZ (V/m) @ t=0.08
-4.6033228674750895
% es.Ex (V/m) @ t=0.08
4.20253686974177
% es.Ey (V/m) @ t=0.08
1.256705078712499
% es.Ez (V/m) @ t=0.08
-4.6033228674751
% es.tEx (V/m) @ t=0.08
4.202536869741763
% es.tEy (V/m) @ t=0.08
0
% es.tEz (V/m) @ t=0.08
-4.6033228674750895
% V (V) @ t=0.08
0.005672558084402691
% es.normE (V/m) @ t=0.1
6.683677154067746
% es.EX (V/m) @ t=0.1
4.241458835048741
% es.EY (V/m) @ t=0.1
1.268344111671741
% es.EZ (V/m) @ t=0.1
-4.64595677251524
% es.tEX (V/m) @ t=0.1
4.241458835048735
% es.tEY (V/m) @ t=0.1
0
% es.tEZ (V/m) @ t=0.1
-4.645956772515225
% es.Ex (V/m) @ t=0.1
4.241458835048741
% es.Ey (V/m) @ t=0.1
1.268344111671741
% es.Ez (V/m) @ t=0.1
-4.64595677251524
% es.tEx (V/m) @ t=0.1
4.241458835048735
% es.tEy (V/m) @ t=0.1
0
% es.tEz (V/m) @ t=0.1
-4.645956772515225
% V (V) @ t=0.1
0.005725094821606196
% es.normE (V/m) @ t=0.12
6.745010297865518
% es.EX (V/m) @ t=0.12
4.280380800355729
% es.EY (V/m) @ t=0.12
1.2799831446309784
% es.EZ (V/m) @ t=0.12
-4.688590677555358
% es.tEX (V/m) @ t=0.12
4.280380800355713
% es.tEY (V/m) @ t=0.12
0
% es.tEZ (V/m) @ t=0.12
-4.688590677555347
% es.Ex (V/m) @ t=0.12
4.280380800355729
% es.Ey (V/m) @ t=0.12
1.2799831446309784
% es.Ez (V/m) @ t=0.12
-4.688590677555358
% es.tEx (V/m) @ t=0.12
4.280380800355713
% es.tEy (V/m) @ t=0.12
0
% es.tEz (V/m) @ t=0.12
-4.688590677555347
% V (V) @ t=0.12
0.0057776315588097
% es.normE (V/m) @ t=0.14
6.806981034331989
% es.EX (V/m) @ t=0.14
4.319707421175922
% es.EY (V/m) @ t=0.14
1.291743170169595
% es.EZ (V/m) @ t=0.14
-4.731667754659547
% es.tEX (V/m) @ t=0.14
4.319707421175911
% es.tEY (V/m) @ t=0.14
0
% es.tEZ (V/m) @ t=0.14
-4.731667754659536
% es.Ex (V/m) @ t=0.14
4.319707421175922
% es.Ey (V/m) @ t=0.14
1.291743170169595
% es.Ez (V/m) @ t=0.14
-4.731667754659547
% es.tEx (V/m) @ t=0.14
4.319707421175911
% es.tEy (V/m) @ t=0.14
0
% es.tEz (V/m) @ t=0.14
-4.731667754659536
% V (V) @ t=0.14
0.005830714309653501
% es.normE (V/m) @ t=0.16
6.871583959093458
% es.EX (V/m) @ t=0.16
4.360704590541687
% es.EY (V/m) @ t=0.16
1.3040026921215262
% es.EZ (V/m) @ t=0.16
-4.776574389061038
% es.tEX (V/m) @ t=0.16
4.360704590541684
% es.tEY (V/m) @ t=0.16
0
% es.tEZ (V/m) @ t=0.16
-4.776574389061026
% es.Ex (V/m) @ t=0.16
4.360704590541687
% es.Ey (V/m) @ t=0.16
1.3040026921215262
% es.Ez (V/m) @ t=0.16
-4.776574389061038
% es.tEx (V/m) @ t=0.16
4.360704590541684
% es.tEy (V/m) @ t=0.16
0
% es.tEz (V/m) @ t=0.16
-4.776574389061026
% V (V) @ t=0.16
0.005886051181009442
% es.normE (V/m) @ t=0.18
6.936186883854926
% es.EX (V/m) @ t=0.18
4.401701759907456
% es.EY (V/m) @ t=0.18
1.3162622140734663
% es.EZ (V/m) @ t=0.18
-4.821481023462503
% es.tEX (V/m) @ t=0.18
4.4017017599074535
% es.tEY (V/m) @ t=0.18
0
% es.tEZ (V/m) @ t=0.18
-4.821481023462492
% es.Ex (V/m) @ t=0.18
4.401701759907456
% es.Ey (V/m) @ t=0.18
1.3162622140734663
% es.Ez (V/m) @ t=0.18
-4.821481023462503
% es.tEx (V/m) @ t=0.18
4.4017017599074535
% es.tEy (V/m) @ t=0.18
0
% es.tEz (V/m) @ t=0.18
-4.821481023462492
% V (V) @ t=0.18
0.005941388052365383
% es.normE (V/m) @ t=0.2
7.000789808616419
% es.EX (V/m) @ t=0.2
4.442698929273236
% es.EY (V/m) @ t=0.2
1.328521736025396
% es.EZ (V/m) @ t=0.2
-4.866387657863987
% es.tEX (V/m) @ t=0.2
4.442698929273224
% es.tEY (V/m) @ t=0.2
0
% es.tEZ (V/m) @ t=0.2
-4.866387657863979
% es.Ex (V/m) @ t=0.2
4.442698929273236
% es.Ey (V/m) @ t=0.2
1.328521736025396
% es.Ez (V/m) @ t=0.2
-4.866387657863987
% es.tEx (V/m) @ t=0.2
4.442698929273224
% es.tEy (V/m) @ t=0.2
0
% es.tEz (V/m) @ t=0.2
-4.866387657863979
% V (V) @ t=0.2
0.005996724923721322
% es.normE (V/m) @ t=0.22
7.065392733377896
% es.EX (V/m) @ t=0.22
4.483696098639001
% es.EY (V/m) @ t=0.22
1.3407812579773537
% es.EZ (V/m) @ t=0.22
-4.911294292265449
% es.tEX (V/m) @ t=0.22
4.483696098638993
% es.tEY (V/m) @ t=0.22
0
% es.tEZ (V/m) @ t=0.22
-4.911294292265438
% es.Ex (V/m) @ t=0.22
4.483696098639001
% es.Ey (V/m) @ t=0.22
1.3407812579773537
% es.Ez (V/m) @ t=0.22
-4.911294292265449
% es.tEx (V/m) @ t=0.22
4.483696098638993
% es.tEy (V/m) @ t=0.22
0
% es.tEz (V/m) @ t=0.22
-4.911294292265438
% V (V) @ t=0.22
0.006052061795077262
% es.normE (V/m) @ t=0.24
7.129995658139424
% es.EX (V/m) @ t=0.24
4.524693268004788
% es.EY (V/m) @ t=0.24
1.3530407799292992
% es.EZ (V/m) @ t=0.24
-4.956200926666943
% es.tEX (V/m) @ t=0.24
4.52469326800477
% es.tEY (V/m) @ t=0.24
0
% es.tEZ (V/m) @ t=0.24
-4.956200926666929
% es.Ex (V/m) @ t=0.24
4.524693268004788
% es.Ey (V/m) @ t=0.24
1.3530407799292992
% es.Ez (V/m) @ t=0.24
-4.956200926666943
% es.tEx (V/m) @ t=0.24
4.52469326800477
% es.tEy (V/m) @ t=0.24
0
% es.tEz (V/m) @ t=0.24
-4.956200926666929
% V (V) @ t=0.24
0.006107398666433205
% es.normE (V/m) @ t=0.26
7.19459858290092
% es.EX (V/m) @ t=0.26
4.565690437370561
% es.EY (V/m) @ t=0.26
1.3653003018812393
% es.EZ (V/m) @ t=0.26
-5.001107561068405
% es.tEX (V/m) @ t=0.26
4.5656904373705505
% es.tEY (V/m) @ t=0.26
0
% es.tEZ (V/m) @ t=0.26
-5.001107561068395
% es.Ex (V/m) @ t=0.26
4.565690437370561
% es.Ey (V/m) @ t=0.26
1.3653003018812393
% es.Ez (V/m) @ t=0.26
-5.001107561068405
% es.tEx (V/m) @ t=0.26
4.5656904373705505
% es.tEy (V/m) @ t=0.26
0
% es.tEz (V/m) @ t=0.26
-5.001107561068395
% V (V) @ t=0.26
0.006162735537789144
% es.normE (V/m) @ t=0.28
7.262153200476218
% es.EX (V/m) @ t=0.28
4.608557106622442
% es.EY (V/m) @ t=0.28
1.3781201147869777
% es.EZ (V/m) @ t=0.28
-5.048068863003136
% es.tEX (V/m) @ t=0.28
4.608557106622428
% es.tEY (V/m) @ t=0.28
0
% es.tEZ (V/m) @ t=0.28
-5.048068863003122
% es.Ex (V/m) @ t=0.28
4.608557106622442
% es.Ey (V/m) @ t=0.28
1.3781201147869777
% es.Ez (V/m) @ t=0.28
-5.048068863003136
% es.tEx (V/m) @ t=0.28
4.608557106622428
% es.tEy (V/m) @ t=0.28
0
% es.tEz (V/m) @ t=0.28
-5.048068863003122
% V (V) @ t=0.28
0.00622061318968617
% es.normE (V/m) @ t=0.3
7.334136376762702
% es.EX (V/m) @ t=0.3
4.654228671405205
% es.EY (V/m) @ t=0.3
1.3917805576408544
% es.EZ (V/m) @ t=0.3
-5.098112875894019
% es.tEX (V/m) @ t=0.3
4.654228671405196
% es.tEY (V/m) @ t=0.3
0
% es.tEZ (V/m) @ t=0.3
-5.098112875894004
% es.Ex (V/m) @ t=0.3
4.654228671405205
% es.Ey (V/m) @ t=0.3
1.3917805576408544
% es.Ez (V/m) @ t=0.3
-5.098112875894019
% es.tEx (V/m) @ t=0.3
4.654228671405196
% es.tEy (V/m) @ t=0.3
0
% es.tEz (V/m) @ t=0.3
-5.098112875894004
% V (V) @ t=0.3
0.006282302889948425
% es.normE (V/m) @ t=0.32
7.406119553067285
% es.EX (V/m) @ t=0.32
4.699900236187977
% es.EY (V/m) @ t=0.32
1.405441000494733
% es.EZ (V/m) @ t=0.32
-5.148156888784904
% es.tEX (V/m) @ t=0.32
4.699900236187967
% es.tEY (V/m) @ t=0.32
0
% es.tEZ (V/m) @ t=0.32
-5.148156888784893
% es.Ex (V/m) @ t=0.32
4.699900236187977
% es.Ey (V/m) @ t=0.32
1.405441000494733
% es.Ez (V/m) @ t=0.32
-5.148156888784904
% es.tEx (V/m) @ t=0.32
4.699900236187967
% es.tEy (V/m) @ t=0.32
0
% es.tEz (V/m) @ t=0.32
-5.148156888784893
% V (V) @ t=0.32
0.006343992590210678
% es.normE (V/m) @ t=0.34
7.478102729389449
% es.EX (V/m) @ t=0.34
4.745571800970758
% es.EY (V/m) @ t=0.34
1.4191014433486273
% es.EZ (V/m) @ t=0.34
-5.198200901675779
% es.tEX (V/m) @ t=0.34
4.7455718009707395
% es.tEY (V/m) @ t=0.34
0
% es.tEZ (V/m) @ t=0.34
-5.198200901675769
% es.Ex (V/m) @ t=0.34
4.745571800970758
% es.Ey (V/m) @ t=0.34
1.4191014433486273
% es.Ez (V/m) @ t=0.34
-5.198200901675779
% es.tEx (V/m) @ t=0.34
4.7455718009707395
% es.tEy (V/m) @ t=0.34
0
% es.tEz (V/m) @ t=0.34
-5.198200901675769
% V (V) @ t=0.34
0.006405682290472932
% es.normE (V/m) @ t=0.36
7.550085905728691
% es.EX (V/m) @ t=0.36
4.791243365753532
% es.EY (V/m) @ t=0.36
1.432761886202511
% es.EZ (V/m) @ t=0.36
-5.248244914566672
% es.tEX (V/m) @ t=0.36
4.791243365753522
% es.tEY (V/m) @ t=0.36
0
% es.tEZ (V/m) @ t=0.36
-5.248244914566661
% es.Ex (V/m) @ t=0.36
4.791243365753532
% es.Ey (V/m) @ t=0.36
1.432761886202511
% es.Ez (V/m) @ t=0.36
-5.248244914566672
% es.tEx (V/m) @ t=0.36
4.791243365753522
% es.tEy (V/m) @ t=0.36
0
% es.tEz (V/m) @ t=0.36
-5.248244914566661
% V (V) @ t=0.36
0.006467371990735186
% es.normE (V/m) @ t=0.38
7.622069082084506
% es.EX (V/m) @ t=0.38
4.836914930536309
% es.EY (V/m) @ t=0.38
1.4464223290563667
% es.EZ (V/m) @ t=0.38
-5.29828892745755
% es.tEX (V/m) @ t=0.38
4.83691493053629
% es.tEY (V/m) @ t=0.38
0
% es.tEZ (V/m) @ t=0.38
-5.2982889274575395
% es.Ex (V/m) @ t=0.38
4.836914930536309
% es.Ey (V/m) @ t=0.38
1.4464223290563667
% es.Ez (V/m) @ t=0.38
-5.29828892745755
% es.tEx (V/m) @ t=0.38
4.83691493053629
% es.tEy (V/m) @ t=0.38
0
% es.tEz (V/m) @ t=0.38
-5.2982889274575395
% V (V) @ t=0.38
0.006529061690997441
% es.normE (V/m) @ t=0.4
7.694052258456463
% es.EX (V/m) @ t=0.4
4.882586495319071
% es.EY (V/m) @ t=0.4
1.4600827719102594
% es.EZ (V/m) @ t=0.4
-5.348332940348447
% es.tEX (V/m) @ t=0.4
4.882586495319062
% es.tEY (V/m) @ t=0.4
0
% es.tEZ (V/m) @ t=0.4
-5.348332940348432
% es.Ex (V/m) @ t=0.4
4.882586495319071
% es.Ey (V/m) @ t=0.4
1.4600827719102594
% es.Ez (V/m) @ t=0.4
-5.348332940348447
% es.tEx (V/m) @ t=0.4
4.882586495319062
% es.tEy (V/m) @ t=0.4
0
% es.tEz (V/m) @ t=0.4
-5.348332940348432
% V (V) @ t=0.4
0.006590751391259694
% es.normE (V/m) @ t=0.42
7.7660354348440945
% es.EX (V/m) @ t=0.42
4.928258060101843
% es.EY (V/m) @ t=0.42
1.4737432147641503
% es.EZ (V/m) @ t=0.42
-5.398376953239343
% es.tEX (V/m) @ t=0.42
4.928258060101831
% es.tEY (V/m) @ t=0.42
0
% es.tEZ (V/m) @ t=0.42
-5.398376953239328
% es.Ex (V/m) @ t=0.42
4.928258060101843
% es.Ey (V/m) @ t=0.42
1.4737432147641503
% es.Ez (V/m) @ t=0.42
-5.398376953239343
% es.tEx (V/m) @ t=0.42
4.928258060101831
% es.tEy (V/m) @ t=0.42
0
% es.tEz (V/m) @ t=0.42
-5.398376953239328
% V (V) @ t=0.42
0.006652441091521951
% es.normE (V/m) @ t=0.44
7.838018611246952
% es.EX (V/m) @ t=0.44
4.9739296248846046
% es.EY (V/m) @ t=0.44
1.4874036576180412
% es.EZ (V/m) @ t=0.44
-5.448420966130225
% es.tEX (V/m) @ t=0.44
4.973929624884599
% es.tEY (V/m) @ t=0.44
0
% es.tEZ (V/m) @ t=0.44
-5.448420966130211
% es.Ex (V/m) @ t=0.44
4.9739296248846046
% es.Ey (V/m) @ t=0.44
1.4874036576180412
% es.Ez (V/m) @ t=0.44
-5.448420966130225
% es.tEx (V/m) @ t=0.44
4.973929624884599
% es.tEy (V/m) @ t=0.44
0
% es.tEz (V/m) @ t=0.44
-5.448420966130211
% V (V) @ t=0.44
0.006714130791784203
% es.normE (V/m) @ t=0.46
7.910001787664648
% es.EX (V/m) @ t=0.46
5.019601189667377
% es.EY (V/m) @ t=0.46
1.5010641004719179
% es.EZ (V/m) @ t=0.46
-5.498464979021111
% es.tEX (V/m) @ t=0.46
5.019601189667375
% es.tEY (V/m) @ t=0.46
0
% es.tEZ (V/m) @ t=0.46
-5.498464979021096
% es.Ex (V/m) @ t=0.46
5.019601189667377
% es.Ey (V/m) @ t=0.46
1.5010641004719179
% es.Ez (V/m) @ t=0.46
-5.498464979021111
% es.tEx (V/m) @ t=0.46
5.019601189667375
% es.tEy (V/m) @ t=0.46
0
% es.tEz (V/m) @ t=0.46
-5.498464979021096
% V (V) @ t=0.46
0.006775820492046459
% es.normE (V/m) @ t=0.48
7.981984964096771
% es.EX (V/m) @ t=0.48
5.065272754450156
% es.EY (V/m) @ t=0.48
1.5147245433257945
% es.EZ (V/m) @ t=0.48
-5.5485089919119925
% es.tEX (V/m) @ t=0.48
5.065272754450146
% es.tEY (V/m) @ t=0.48
0
% es.tEZ (V/m) @ t=0.48
-5.548508991911978
% es.Ex (V/m) @ t=0.48
5.065272754450156
% es.Ey (V/m) @ t=0.48
1.5147245433257945
% es.Ez (V/m) @ t=0.48
-5.5485089919119925
% es.tEx (V/m) @ t=0.48
5.065272754450146
% es.tEy (V/m) @ t=0.48
0
% es.tEz (V/m) @ t=0.48
-5.548508991911978
% V (V) @ t=0.48
0.006837510192308712
% es.normE (V/m) @ t=0.5
8.053968140542922
% es.EX (V/m) @ t=0.5
5.110944319232913
% es.EY (V/m) @ t=0.5
1.5283849861796768
% es.EZ (V/m) @ t=0.5
-5.598553004802875
% es.tEX (V/m) @ t=0.5
5.11094431923291
% es.tEY (V/m) @ t=0.5
0
% es.tEZ (V/m) @ t=0.5
-5.59855300480286
% es.Ex (V/m) @ t=0.5
5.110944319232913
% es.Ey (V/m) @ t=0.5
1.5283849861796768
% es.Ez (V/m) @ t=0.5
-5.598553004802875
% es.tEx (V/m) @ t=0.5
5.11094431923291
% es.tEy (V/m) @ t=0.5
0
% es.tEz (V/m) @ t=0.5
-5.59855300480286
% V (V) @ t=0.5
0.006899199892570968
% es.normE (V/m) @ t=0.52
8.125951317002759
% es.EX (V/m) @ t=0.52
5.156615884015702
% es.EY (V/m) @ t=0.52
1.5420454290335588
% es.EZ (V/m) @ t=0.52
-5.648597017693749
% es.tEX (V/m) @ t=0.52
5.1566158840157
% es.tEY (V/m) @ t=0.52
0
% es.tEZ (V/m) @ t=0.52
-5.648597017693735
% es.Ex (V/m) @ t=0.52
5.156615884015702
% es.Ey (V/m) @ t=0.52
1.5420454290335588
% es.Ez (V/m) @ t=0.52
-5.648597017693749
% es.tEx (V/m) @ t=0.52
5.1566158840157
% es.tEy (V/m) @ t=0.52
0
% es.tEz (V/m) @ t=0.52
-5.648597017693735
% V (V) @ t=0.52
0.006960889592833222
% es.normE (V/m) @ t=0.54
8.197934493475898
% es.EX (V/m) @ t=0.54
5.20228744879847
% es.EY (V/m) @ t=0.54
1.5557058718874301
% es.EZ (V/m) @ t=0.54
-5.69864103058465
% es.tEX (V/m) @ t=0.54
5.2022874487984545
% es.tEY (V/m) @ t=0.54
0
% es.tEZ (V/m) @ t=0.54
-5.698641030584639
% es.Ex (V/m) @ t=0.54
5.20228744879847
% es.Ey (V/m) @ t=0.54
1.5557058718874301
% es.Ez (V/m) @ t=0.54
-5.69864103058465
% es.tEx (V/m) @ t=0.54
5.2022874487984545
% es.tEy (V/m) @ t=0.54
0
% es.tEz (V/m) @ t=0.54
-5.698641030584639
% V (V) @ t=0.54
0.007022579293095477
% es.normE (V/m) @ t=0.56
8.276643030175636
% es.EX (V/m) @ t=0.56
5.252236702575092
% es.EY (V/m) @ t=0.56
1.5706421509231616
% es.EZ (V/m) @ t=0.56
-5.753352226095847
% es.tEX (V/m) @ t=0.56
5.252236702575075
% es.tEY (V/m) @ t=0.56
0
% es.tEZ (V/m) @ t=0.56
-5.753352226095837
% es.Ex (V/m) @ t=0.56
5.252236702575092
% es.Ey (V/m) @ t=0.56
1.5706421509231616
% es.Ez (V/m) @ t=0.56
-5.753352226095847
% es.tEx (V/m) @ t=0.56
5.252236702575075
% es.tEy (V/m) @ t=0.56
0
% es.tEz (V/m) @ t=0.56
-5.753352226095837
% V (V) @ t=0.56
0.007089996449584565
% es.normE (V/m) @ t=0.58
8.35693072831737
% es.EX (V/m) @ t=0.58
5.303190387532421
% es.EY (V/m) @ t=0.58
1.585878005183812
% es.EZ (V/m) @ t=0.58
-5.809159308605059
% es.tEX (V/m) @ t=0.58
5.303190387532409
% es.tEY (V/m) @ t=0.58
0
% es.tEZ (V/m) @ t=0.58
-5.809159308605044
% es.Ex (V/m) @ t=0.58
5.303190387532421
% es.Ey (V/m) @ t=0.58
1.585878005183812
% es.Ez (V/m) @ t=0.58
-5.809159308605059
% es.tEx (V/m) @ t=0.58
5.303190387532409
% es.tEy (V/m) @ t=0.58
0
% es.tEz (V/m) @ t=0.58
-5.809159308605044
% V (V) @ t=0.58
0.007158758452701964
% es.normE (V/m) @ t=0.6
8.437218426462778
% es.EX (V/m) @ t=0.6
5.354144072489754
% es.EY (V/m) @ t=0.6
1.6011138594444692
% es.EZ (V/m) @ t=0.6
-5.864966391114263
% es.tEX (V/m) @ t=0.6
5.3541440724897456
% es.tEY (V/m) @ t=0.6
0
% es.tEZ (V/m) @ t=0.6
-5.864966391114248
% es.Ex (V/m) @ t=0.6
5.354144072489754
% es.Ey (V/m) @ t=0.6
1.6011138594444692
% es.Ez (V/m) @ t=0.6
-5.864966391114263
% es.tEx (V/m) @ t=0.6
5.3541440724897456
% es.tEy (V/m) @ t=0.6
0
% es.tEz (V/m) @ t=0.6
-5.864966391114248
% V (V) @ t=0.6
0.0072275204558193635
% es.normE (V/m) @ t=0.62
8.517506124611735
% es.EX (V/m) @ t=0.62
5.40509775744707
% es.EY (V/m) @ t=0.62
1.616349713705123
% es.EZ (V/m) @ t=0.62
-5.920773473623452
% es.tEX (V/m) @ t=0.62
5.405097757447057
% es.tEY (V/m) @ t=0.62
0
% es.tEZ (V/m) @ t=0.62
-5.920773473623431
% es.Ex (V/m) @ t=0.62
5.40509775744707
% es.Ey (V/m) @ t=0.62
1.616349713705123
% es.Ez (V/m) @ t=0.62
-5.920773473623452
% es.tEx (V/m) @ t=0.62
5.405097757447057
% es.tEy (V/m) @ t=0.62
0
% es.tEz (V/m) @ t=0.62
-5.920773473623431
% V (V) @ t=0.62
0.007296282458936761
% es.normE (V/m) @ t=0.64
8.597793822764197
% es.EX (V/m) @ t=0.64
5.456051442404407
% es.EY (V/m) @ t=0.64
1.6315855679657805
% es.EZ (V/m) @ t=0.64
-5.976580556132657
% es.tEX (V/m) @ t=0.64
5.45605144240439
% es.tEY (V/m) @ t=0.64
0
% es.tEZ (V/m) @ t=0.64
-5.976580556132642
% es.Ex (V/m) @ t=0.64
5.456051442404407
% es.Ey (V/m) @ t=0.64
1.6315855679657805
% es.Ez (V/m) @ t=0.64
-5.976580556132657
% es.tEx (V/m) @ t=0.64
5.45605144240439
% es.tEy (V/m) @ t=0.64
0
% es.tEz (V/m) @ t=0.64
-5.976580556132642
% V (V) @ t=0.64
0.007365044462054162
% es.normE (V/m) @ t=0.66
8.678081520920033
% es.EX (V/m) @ t=0.66
5.507005127361731
% es.EY (V/m) @ t=0.66
1.6468214222264308
% es.EZ (V/m) @ t=0.66
-6.03238763864187
% es.tEX (V/m) @ t=0.66
5.507005127361722
% es.tEY (V/m) @ t=0.66
0
% es.tEZ (V/m) @ t=0.66
-6.032387638641849
% es.Ex (V/m) @ t=0.66
5.507005127361731
% es.Ey (V/m) @ t=0.66
1.6468214222264308
% es.Ez (V/m) @ t=0.66
-6.03238763864187
% es.tEx (V/m) @ t=0.66
5.507005127361722
% es.tEy (V/m) @ t=0.66
0
% es.tEz (V/m) @ t=0.66
-6.032387638641849
% V (V) @ t=0.66
0.00743380646517156
% es.normE (V/m) @ t=0.68
8.758369219079135
% es.EX (V/m) @ t=0.68
5.5579588123190575
% es.EY (V/m) @ t=0.68
1.662057276487109
% es.EZ (V/m) @ t=0.68
-6.088194721151057
% es.tEX (V/m) @ t=0.68
5.557958812319049
% es.tEY (V/m) @ t=0.68
0
% es.tEZ (V/m) @ t=0.68
-6.0881947211510425
% es.Ex (V/m) @ t=0.68
5.5579588123190575
% es.Ey (V/m) @ t=0.68
1.662057276487109
% es.Ez (V/m) @ t=0.68
-6.088194721151057
% es.tEx (V/m) @ t=0.68
5.557958812319049
% es.tEy (V/m) @ t=0.68
0
% es.tEz (V/m) @ t=0.68
-6.0881947211510425
% V (V) @ t=0.68
0.007502568468288961
% es.normE (V/m) @ t=0.7
8.838656917241446
% es.EX (V/m) @ t=0.7
5.608912497276384
% es.EY (V/m) @ t=0.7
1.6772931307477625
% es.EZ (V/m) @ t=0.7
-6.144001803660265
% es.tEX (V/m) @ t=0.7
5.608912497276375
% es.tEY (V/m) @ t=0.7
0
% es.tEZ (V/m) @ t=0.7
-6.144001803660251
% es.Ex (V/m) @ t=0.7
5.608912497276384
% es.Ey (V/m) @ t=0.7
1.6772931307477625
% es.Ez (V/m) @ t=0.7
-6.144001803660265
% es.tEx (V/m) @ t=0.7
5.608912497276375
% es.tEy (V/m) @ t=0.7
0
% es.tEz (V/m) @ t=0.7
-6.144001803660251
% V (V) @ t=0.7
0.00757133047140636
% es.normE (V/m) @ t=0.72
8.91894461540687
% es.EX (V/m) @ t=0.72
5.659866182233717
% es.EY (V/m) @ t=0.72
1.6925289850084058
% es.EZ (V/m) @ t=0.72
-6.199808886169466
% es.tEX (V/m) @ t=0.72
5.659866182233707
% es.tEY (V/m) @ t=0.72
0
% es.tEZ (V/m) @ t=0.72
-6.199808886169444
% es.Ex (V/m) @ t=0.72
5.659866182233717
% es.Ey (V/m) @ t=0.72
1.6925289850084058
% es.Ez (V/m) @ t=0.72
-6.199808886169466
% es.tEx (V/m) @ t=0.72
5.659866182233707
% es.tEy (V/m) @ t=0.72
0
% es.tEz (V/m) @ t=0.72
-6.199808886169444
% V (V) @ t=0.72
0.007640092474523758
% es.normE (V/m) @ t=0.74
8.999232313575318
% es.EX (V/m) @ t=0.74
5.710819867191036
% es.EY (V/m) @ t=0.74
1.707764839269081
% es.EZ (V/m) @ t=0.74
-6.255615968678687
% es.tEX (V/m) @ t=0.74
5.7108198671910335
% es.tEY (V/m) @ t=0.74
0
% es.tEZ (V/m) @ t=0.74
-6.255615968678672
% es.Ex (V/m) @ t=0.74
5.710819867191036
% es.Ey (V/m) @ t=0.74
1.707764839269081
% es.Ez (V/m) @ t=0.74
-6.255615968678687
% es.tEx (V/m) @ t=0.74
5.7108198671910335
% es.tEy (V/m) @ t=0.74
0
% es.tEz (V/m) @ t=0.74
-6.255615968678672
% V (V) @ t=0.74
0.007708854477641159
% es.normE (V/m) @ t=0.76
9.079520011746698
% es.EX (V/m) @ t=0.76
5.761773552148373
% es.EY (V/m) @ t=0.76
1.7230006935296958
% es.EZ (V/m) @ t=0.76
-6.311423051187873
% es.tEX (V/m) @ t=0.76
5.761773552148362
% es.tEY (V/m) @ t=0.76
0
% es.tEZ (V/m) @ t=0.76
-6.311423051187852
% es.Ex (V/m) @ t=0.76
5.761773552148373
% es.Ey (V/m) @ t=0.76
1.7230006935296958
% es.Ez (V/m) @ t=0.76
-6.311423051187873
% es.tEx (V/m) @ t=0.76
5.761773552148362
% es.tEy (V/m) @ t=0.76
0
% es.tEz (V/m) @ t=0.76
-6.311423051187852
% V (V) @ t=0.76
0.0077776164807585564
% es.normE (V/m) @ t=0.78
9.159807709920948
% es.EX (V/m) @ t=0.78
5.81272723710569
% es.EY (V/m) @ t=0.78
1.7382365477903745
% es.EZ (V/m) @ t=0.78
-6.367230133697067
% es.tEX (V/m) @ t=0.78
5.8127272371056735
% es.tEY (V/m) @ t=0.78
0
% es.tEZ (V/m) @ t=0.78
-6.367230133697052
% es.Ex (V/m) @ t=0.78
5.81272723710569
% es.Ey (V/m) @ t=0.78
1.7382365477903745
% es.Ez (V/m) @ t=0.78
-6.367230133697067
% es.tEx (V/m) @ t=0.78
5.8127272371056735
% es.tEy (V/m) @ t=0.78
0
% es.tEz (V/m) @ t=0.78
-6.367230133697052
% V (V) @ t=0.78
0.007846378483875956
% es.normE (V/m) @ t=0.8
9.240095408098014
% es.EX (V/m) @ t=0.8
5.86368092206303
% es.EY (V/m) @ t=0.8
1.753472402051032
% es.EZ (V/m) @ t=0.8
-6.423037216206273
% es.tEX (V/m) @ t=0.8
5.86368092206302
% es.tEY (V/m) @ t=0.8
0
% es.tEZ (V/m) @ t=0.8
-6.423037216206252
% es.Ex (V/m) @ t=0.8
5.86368092206303
% es.Ey (V/m) @ t=0.8
1.753472402051032
% es.Ez (V/m) @ t=0.8
-6.423037216206273
% es.tEx (V/m) @ t=0.8
5.86368092206302
% es.tEy (V/m) @ t=0.8
0
% es.tEz (V/m) @ t=0.8
-6.423037216206252
% V (V) @ t=0.8
0.007915140486993356
% es.normE (V/m) @ t=0.82
9.322464988744107
% es.EX (V/m) @ t=0.82
5.9159550754720645
% es.EY (V/m) @ t=0.82
1.7691033593944887
% es.EZ (V/m) @ t=0.82
-6.480292006029236
% es.tEX (V/m) @ t=0.82
5.915955075472052
% es.tEY (V/m) @ t=0.82
0
% es.tEZ (V/m) @ t=0.82
-6.480292006029229
% es.Ex (V/m) @ t=0.82
5.9159550754720645
% es.Ey (V/m) @ t=0.82
1.7691033593944887
% es.Ez (V/m) @ t=0.82
-6.480292006029236
% es.tEx (V/m) @ t=0.82
5.915955075472052
% es.tEy (V/m) @ t=0.82
0
% es.tEz (V/m) @ t=0.82
-6.480292006029229
% V (V) @ t=0.82
0.007985688150333152
% es.normE (V/m) @ t=0.84
9.41222691642865
% es.EX (V/m) @ t=0.84
5.972917947483149
% es.EY (V/m) @ t=0.84
1.7861372485320164
% es.EZ (V/m) @ t=0.84
-6.542687314130606
% es.tEX (V/m) @ t=0.84
5.972917947483138
% es.tEY (V/m) @ t=0.84
0
% es.tEZ (V/m) @ t=0.84
-6.542687314130585
% es.Ex (V/m) @ t=0.84
5.972917947483149
% es.Ey (V/m) @ t=0.84
1.7861372485320164
% es.Ez (V/m) @ t=0.84
-6.542687314130606
% es.tEx (V/m) @ t=0.84
5.972917947483138
% es.tEy (V/m) @ t=0.84
0
% es.tEz (V/m) @ t=0.84
-6.542687314130585
% V (V) @ t=0.84
0.008062576334940747
% es.normE (V/m) @ t=0.86
9.501988844113319
% es.EX (V/m) @ t=0.86
6.029880819494224
% es.EY (V/m) @ t=0.86
1.8031711376695512
% es.EZ (V/m) @ t=0.86
-6.60508262223201
% es.tEX (V/m) @ t=0.86
6.029880819494211
% es.tEY (V/m) @ t=0.86
0
% es.tEZ (V/m) @ t=0.86
-6.605082622231988
% es.Ex (V/m) @ t=0.86
6.029880819494224
% es.Ey (V/m) @ t=0.86
1.8031711376695512
% es.Ez (V/m) @ t=0.86
-6.60508262223201
% es.tEx (V/m) @ t=0.86
6.029880819494211
% es.tEy (V/m) @ t=0.86
0
% es.tEz (V/m) @ t=0.86
-6.605082622231988
% V (V) @ t=0.86
0.008139464519548343
% es.normE (V/m) @ t=0.88
9.591750771798043
% es.EX (V/m) @ t=0.88
6.086843691505287
% es.EY (V/m) @ t=0.88
1.8202050268070713
% es.EZ (V/m) @ t=0.88
-6.667477930333386
% es.tEX (V/m) @ t=0.88
6.086843691505274
% es.tEY (V/m) @ t=0.88
0
% es.tEZ (V/m) @ t=0.88
-6.667477930333371
% es.Ex (V/m) @ t=0.88
6.086843691505287
% es.Ey (V/m) @ t=0.88
1.8202050268070713
% es.Ez (V/m) @ t=0.88
-6.667477930333386
% es.tEx (V/m) @ t=0.88
6.086843691505274
% es.tEy (V/m) @ t=0.88
0
% es.tEz (V/m) @ t=0.88
-6.667477930333371
% V (V) @ t=0.88
0.008216352704155938
% es.normE (V/m) @ t=0.9
9.681512699482889
% es.EX (V/m) @ t=0.9
6.143806563516356
% es.EY (V/m) @ t=0.9
1.8372389159446199
% es.EZ (V/m) @ t=0.9
-6.729873238434791
% es.tEX (V/m) @ t=0.9
6.143806563516337
% es.tEY (V/m) @ t=0.9
0
% es.tEZ (V/m) @ t=0.9
-6.7298732384347755
% es.Ex (V/m) @ t=0.9
6.143806563516356
% es.Ey (V/m) @ t=0.9
1.8372389159446199
% es.Ez (V/m) @ t=0.9
-6.729873238434791
% es.tEx (V/m) @ t=0.9
6.143806563516337
% es.tEy (V/m) @ t=0.9
0
% es.tEz (V/m) @ t=0.9
-6.7298732384347755
% V (V) @ t=0.9
0.008293240888763534
% es.normE (V/m) @ t=0.92
9.771274627167797
% es.EX (V/m) @ t=0.92
6.200769435527447
% es.EY (V/m) @ t=0.92
1.8542728050821262
% es.EZ (V/m) @ t=0.92
-6.792268546536152
% es.tEX (V/m) @ t=0.92
6.200769435527432
% es.tEY (V/m) @ t=0.92
0
% es.tEZ (V/m) @ t=0.92
-6.792268546536137
% es.Ex (V/m) @ t=0.92
6.200769435527447
% es.Ey (V/m) @ t=0.92
1.8542728050821262
% es.Ez (V/m) @ t=0.92
-6.792268546536152
% es.tEx (V/m) @ t=0.92
6.200769435527432
% es.tEy (V/m) @ t=0.92
0
% es.tEz (V/m) @ t=0.92
-6.792268546536137
% V (V) @ t=0.92
0.008370129073371129
% es.normE (V/m) @ t=0.94
9.86103655485282
% es.EX (V/m) @ t=0.94
6.2577323075385065
% es.EY (V/m) @ t=0.94
1.871306694219661
% es.EZ (V/m) @ t=0.94
-6.854663854637563
% es.tEX (V/m) @ t=0.94
6.257732307538491
% es.tEY (V/m) @ t=0.94
0
% es.tEZ (V/m) @ t=0.94
-6.854663854637542
% es.Ex (V/m) @ t=0.94
6.2577323075385065
% es.Ey (V/m) @ t=0.94
1.871306694219661
% es.Ez (V/m) @ t=0.94
-6.854663854637563
% es.tEx (V/m) @ t=0.94
6.257732307538491
% es.tEy (V/m) @ t=0.94
0
% es.tEz (V/m) @ t=0.94
-6.854663854637542
% V (V) @ t=0.94
0.008447017257978725
% es.normE (V/m) @ t=0.96
9.950798482537891
% es.EX (V/m) @ t=0.96
6.3146951795495845
% es.EY (V/m) @ t=0.96
1.8883405833571922
% es.EZ (V/m) @ t=0.96
-6.9170591627389175
% es.tEX (V/m) @ t=0.96
6.314695179549566
% es.tEY (V/m) @ t=0.96
0
% es.tEZ (V/m) @ t=0.96
-6.917059162738903
% es.Ex (V/m) @ t=0.96
6.3146951795495845
% es.Ey (V/m) @ t=0.96
1.8883405833571922
% es.Ez (V/m) @ t=0.96
-6.9170591627389175
% es.tEx (V/m) @ t=0.96
6.314695179549566
% es.tEy (V/m) @ t=0.96
0
% es.tEz (V/m) @ t=0.96
-6.917059162738903
% V (V) @ t=0.96
0.00852390544258632
% es.normE (V/m) @ t=0.98
10.040560410223065
% es.EX (V/m) @ t=0.98
6.371658051560644
% es.EY (V/m) @ t=0.98
1.9053744724947372
% es.EZ (V/m) @ t=0.98
-6.979454470840323
% es.tEX (V/m) @ t=0.98
6.371658051560633
% es.tEY (V/m) @ t=0.98
0
% es.tEZ (V/m) @ t=0.98
-6.979454470840309
% es.Ex (V/m) @ t=0.98
6.371658051560644
% es.Ey (V/m) @ t=0.98
1.9053744724947372
% es.Ez (V/m) @ t=0.98
-6.979454470840323
% es.tEx (V/m) @ t=0.98
6.371658051560633
% es.tEy (V/m) @ t=0.98
0
% es.tEz (V/m) @ t=0.98
-6.979454470840309
% V (V) @ t=0.98
0.008600793627193912
% es.normE (V/m) @ t=1
10.130322337908307
% es.EX (V/m) @ t=1
6.428620923571728
% es.EY (V/m) @ t=1
1.9224083616322543
% es.EZ (V/m) @ t=1
-7.041849778941699
% es.tEX (V/m) @ t=1
6.4286209235717
% es.tEY (V/m) @ t=1
0
% es.tEZ (V/m) @ t=1
-7.041849778941684
% es.Ex (V/m) @ t=1
6.428620923571728
% es.Ey (V/m) @ t=1
1.9224083616322543
% es.Ez (V/m) @ t=1
-7.041849778941699
% es.tEx (V/m) @ t=1
6.4286209235717
% es.tEy (V/m) @ t=1
0
% es.tEz (V/m) @ t=1
-7.041849778941684
% V (V) @ t=1
0.008677681811801511
% es.normE (V/m) @ t=1.02
10.220084265593641
% es.EX (V/m) @ t=1.02
6.485583795582788
% es.EY (V/m) @ t=1.02
1.9394422507697886
% es.EZ (V/m) @ t=1.02
-7.104245087043103
% es.tEX (V/m) @ t=1.02
6.48558379558278
% es.tEY (V/m) @ t=1.02
0
% es.tEZ (V/m) @ t=1.02
-7.104245087043081
% es.Ex (V/m) @ t=1.02
6.485583795582788
% es.Ey (V/m) @ t=1.02
1.9394422507697886
% es.Ez (V/m) @ t=1.02
-7.104245087043103
% es.tEx (V/m) @ t=1.02
6.48558379558278
% es.tEy (V/m) @ t=1.02
0
% es.tEz (V/m) @ t=1.02
-7.104245087043081
% V (V) @ t=1.02
0.008754569996409105
% es.normE (V/m) @ t=1.04
10.30984619327904
% es.EX (V/m) @ t=1.04
6.54254666759387
% es.EY (V/m) @ t=1.04
1.9564761399073127
% es.EZ (V/m) @ t=1.04
-7.1666403951444755
% es.tEX (V/m) @ t=1.04
6.542546667593855
% es.tEY (V/m) @ t=1.04
0
% es.tEZ (V/m) @ t=1.04
-7.16664039514446
% es.Ex (V/m) @ t=1.04
6.54254666759387
% es.Ey (V/m) @ t=1.04
1.9564761399073127
% es.Ez (V/m) @ t=1.04
-7.1666403951444755
% es.tEx (V/m) @ t=1.04
6.542546667593855
% es.tEy (V/m) @ t=1.04
0
% es.tEz (V/m) @ t=1.04
-7.16664039514446
% V (V) @ t=1.04
0.0088314581810167
% es.normE (V/m) @ t=1.06
10.399608120964531
% es.EX (V/m) @ t=1.06
6.59950953960495
% es.EY (V/m) @ t=1.06
1.973510029044851