% Model:              1 neuron.mph
% Version:            COMSOL 6.1.0.252
% Date:               Mar 18 2023, 11:53
% Dimension:          0
% Nodes:              14017
% Expressions:        14017
% Description:        Electric field norm, Electric field, X component, Electric field, Y component, Electric field, Z component, Tangential electric field, X component, Tangential electric field, Y component, Tangential electric field, Z component, Electric field, x component, Electric field, y component, Electric field, z component, Tangential electric field, x component, Tangential electric field, y component, Tangential electric field, z component, Electric potential
% Length unit:        mm
% x
1
% y
12.2
% z
1.6599999999999997
% es.normE (V/m) @ t=0
1.6018326522777082
% es.EX (V/m) @ t=0
1.4339752826188792
% es.EY (V/m) @ t=0
0.055173102809491725
% es.EZ (V/m) @ t=0
-0.7117152722893806
% es.tEX (V/m) @ t=0
1.4339752826188796
% es.tEY (V/m) @ t=0
0
% es.tEZ (V/m) @ t=0
-0.7117152722893785
% es.Ex (V/m) @ t=0
1.4339752826188792
% es.Ey (V/m) @ t=0
0.055173102809491725
% es.Ez (V/m) @ t=0
-0.7117152722893806
% es.tEx (V/m) @ t=0
1.4339752826188796
% es.tEy (V/m) @ t=0
0
% es.tEz (V/m) @ t=0
-0.7117152722893785
% V (V) @ t=0
0.007267496981862119
% es.normE (V/m) @ t=0.02
1.3835211651094181
% es.EX (V/m) @ t=0.02
1.238540837465763
% es.EY (V/m) @ t=0.02
0.04765364073775122
% es.EZ (V/m) @ t=0.02
-0.6147166118668104
% es.tEX (V/m) @ t=0.02
1.238540837465759
% es.tEY (V/m) @ t=0.02
0
% es.tEZ (V/m) @ t=0.02
-0.6147166118668075
% es.Ex (V/m) @ t=0.02
1.238540837465763
% es.Ey (V/m) @ t=0.02
0.04765364073775122
% es.Ez (V/m) @ t=0.02
-0.6147166118668104
% es.tEx (V/m) @ t=0.02
1.238540837465759
% es.tEy (V/m) @ t=0.02
0
% es.tEz (V/m) @ t=0.02
-0.6147166118668075
% V (V) @ t=0.02
0.006277020137168005
% es.normE (V/m) @ t=0.04
1.3962481709306238
% es.EX (V/m) @ t=0.04
1.2499341711174448
% es.EY (V/m) @ t=0.04
0.04809200970608035
% es.EZ (V/m) @ t=0.04
-0.620371384711742
% es.tEX (V/m) @ t=0.04
1.249934171117447
% es.tEY (V/m) @ t=0.04
0
% es.tEZ (V/m) @ t=0.04
-0.6203713847117349
% es.Ex (V/m) @ t=0.04
1.2499341711174448
% es.Ey (V/m) @ t=0.04
0.04809200970608035
% es.Ez (V/m) @ t=0.04
-0.620371384711742
% es.tEx (V/m) @ t=0.04
1.249934171117447
% es.tEy (V/m) @ t=0.04
0
% es.tEz (V/m) @ t=0.04
-0.6203713847117349
% V (V) @ t=0.04
0.006334762307512367
% es.normE (V/m) @ t=0.06
1.4090908213075022
% es.EX (V/m) @ t=0.06
1.261431029115923
% es.EY (V/m) @ t=0.06
0.04853435750405574
% es.EZ (V/m) @ t=0.06
-0.626077543758383
% es.tEX (V/m) @ t=0.06
1.2614310291159225
% es.tEY (V/m) @ t=0.06
0
% es.tEZ (V/m) @ t=0.06
-0.6260775437583881
% es.Ex (V/m) @ t=0.06
1.261431029115923
% es.Ey (V/m) @ t=0.06
0.04853435750405574
% es.Ez (V/m) @ t=0.06
-0.626077543758383
% es.tEx (V/m) @ t=0.06
1.2614310291159225
% es.tEy (V/m) @ t=0.06
0
% es.tEz (V/m) @ t=0.06
-0.6260775437583881
% V (V) @ t=0.06
0.006393029305597155
% es.normE (V/m) @ t=0.08
1.4221273729233248
% es.EX (V/m) @ t=0.08
1.2731014689559577
% es.EY (V/m) @ t=0.08
0.04898338317402326
% es.EZ (V/m) @ t=0.08
-0.6318698563904912
% es.tEX (V/m) @ t=0.08
1.2731014689559594
% es.tEY (V/m) @ t=0.08
0
% es.tEZ (V/m) @ t=0.08
-0.6318698563904874
% es.Ex (V/m) @ t=0.08
1.2731014689559577
% es.Ey (V/m) @ t=0.08
0.04898338317402326
% es.Ez (V/m) @ t=0.08
-0.6318698563904912
% es.tEx (V/m) @ t=0.08
1.2731014689559594
% es.tEy (V/m) @ t=0.08
0
% es.tEz (V/m) @ t=0.08
-0.6318698563904874
% V (V) @ t=0.08
0.0064521760598961865
% es.normE (V/m) @ t=0.1
1.4353030899340211
% es.EX (V/m) @ t=0.1
1.2848964906999327
% es.EY (V/m) @ t=0.1
0.049437201637959505
% es.EZ (V/m) @ t=0.1
-0.6377240025508686
% es.tEX (V/m) @ t=0.1
1.2848964906999316
% es.tEY (V/m) @ t=0.1
0
% es.tEZ (V/m) @ t=0.1
-0.6377240025508648
% es.Ex (V/m) @ t=0.1
1.2848964906999327
% es.Ey (V/m) @ t=0.1
0.049437201637959505
% es.Ez (V/m) @ t=0.1
-0.6377240025508686
% es.tEx (V/m) @ t=0.1
1.2848964906999316
% es.tEy (V/m) @ t=0.1
0
% es.tEz (V/m) @ t=0.1
-0.6377240025508648
% V (V) @ t=0.1
0.006511954226462667
% es.normE (V/m) @ t=0.12
1.4484788069447188
% es.EX (V/m) @ t=0.12
1.296691512443906
% es.EY (V/m) @ t=0.12
0.04989102010190821
% es.EZ (V/m) @ t=0.12
-0.6435781487112513
% es.tEX (V/m) @ t=0.12
1.2966915124439078
% es.tEY (V/m) @ t=0.12
0
% es.tEZ (V/m) @ t=0.12
-0.6435781487112493
% es.Ex (V/m) @ t=0.12
1.296691512443906
% es.Ey (V/m) @ t=0.12
0.04989102010190821
% es.Ez (V/m) @ t=0.12
-0.6435781487112513
% es.tEx (V/m) @ t=0.12
1.2966915124439078
% es.tEy (V/m) @ t=0.12
0
% es.tEz (V/m) @ t=0.12
-0.6435781487112493
% V (V) @ t=0.12
0.006571732393029145
% es.normE (V/m) @ t=0.14
1.46177739183903
% es.EX (V/m) @ t=0.14
1.3085965269718072
% es.EY (V/m) @ t=0.14
0.05034907143561965
% es.EZ (V/m) @ t=0.14
-0.6494868859597583
% es.tEX (V/m) @ t=0.14
1.3085965269718036
% es.tEY (V/m) @ t=0.14
0
% es.tEZ (V/m) @ t=0.14
-0.6494868859597425
% es.Ex (V/m) @ t=0.14
1.3085965269718072
% es.Ey (V/m) @ t=0.14
0.05034907143561965
% es.Ez (V/m) @ t=0.14
-0.6494868859597583
% es.tEx (V/m) @ t=0.14
1.3085965269718036
% es.tEy (V/m) @ t=0.14
0
% es.tEz (V/m) @ t=0.14
-0.6494868859597425
% V (V) @ t=0.14
0.0066320679812784675
% es.normE (V/m) @ t=0.16
1.4756579379445778
% es.EX (V/m) @ t=0.16
1.3210225200652936
% es.EY (V/m) @ t=0.16
0.050827171670177446
% es.EZ (V/m) @ t=0.16
-0.6556541927777422
% es.tEX (V/m) @ t=0.16
1.3210225200652923
% es.tEY (V/m) @ t=0.16
0
% es.tEZ (V/m) @ t=0.16
-0.6556541927777388
% es.Ex (V/m) @ t=0.16
1.3210225200652936
% es.Ey (V/m) @ t=0.16
0.050827171670177446
% es.Ez (V/m) @ t=0.16
-0.6556541927777422
% es.tEx (V/m) @ t=0.16
1.3210225200652923
% es.tEy (V/m) @ t=0.16
0
% es.tEz (V/m) @ t=0.16
-0.6556541927777388
% V (V) @ t=0.16
0.006695043785897954
% es.normE (V/m) @ t=0.18
1.489538484050123
% es.EX (V/m) @ t=0.18
1.3334485131587779
% es.EY (V/m) @ t=0.18
0.051305271904733024
% es.EZ (V/m) @ t=0.18
-0.6618214995957241
% es.tEX (V/m) @ t=0.18
1.333448513158773
% es.tEY (V/m) @ t=0.18
0
% es.tEZ (V/m) @ t=0.18
-0.661821499595721
% es.Ex (V/m) @ t=0.18
1.3334485131587779
% es.Ey (V/m) @ t=0.18
0.051305271904733024
% es.Ez (V/m) @ t=0.18
-0.6618214995957241
% es.tEx (V/m) @ t=0.18
1.333448513158773
% es.tEy (V/m) @ t=0.18
0
% es.tEz (V/m) @ t=0.18
-0.661821499595721
% V (V) @ t=0.18
0.006758019590517439
% es.normE (V/m) @ t=0.2
1.503419030155662
% es.EX (V/m) @ t=0.2
1.345874506252259
% es.EY (V/m) @ t=0.2
0.05178337213926598
% es.EZ (V/m) @ t=0.2
-0.6679888064137007
% es.tEX (V/m) @ t=0.2
1.345874506252251
% es.tEY (V/m) @ t=0.2
0
% es.tEZ (V/m) @ t=0.2
-0.6679888064137032
% es.Ex (V/m) @ t=0.2
1.345874506252259
% es.Ey (V/m) @ t=0.2
0.05178337213926598
% es.Ez (V/m) @ t=0.2
-0.6679888064137007
% es.tEx (V/m) @ t=0.2
1.345874506252251
% es.tEy (V/m) @ t=0.2
0
% es.tEz (V/m) @ t=0.2
-0.6679888064137032
% V (V) @ t=0.2
0.006820995395136925
% es.normE (V/m) @ t=0.22
1.517299576261217
% es.EX (V/m) @ t=0.22
1.3583004993457486
% es.EY (V/m) @ t=0.22
0.052261472373826445
% es.EZ (V/m) @ t=0.22
-0.6741561132316934
% es.tEX (V/m) @ t=0.22
1.3583004993457464
% es.tEY (V/m) @ t=0.22
0
% es.tEZ (V/m) @ t=0.22
-0.6741561132316924
% es.Ex (V/m) @ t=0.22
1.3583004993457486
% es.Ey (V/m) @ t=0.22
0.052261472373826445
% es.Ez (V/m) @ t=0.22
-0.6741561132316934
% es.tEx (V/m) @ t=0.22
1.3583004993457464
% es.tEy (V/m) @ t=0.22
0
% es.tEz (V/m) @ t=0.22
-0.6741561132316924
% V (V) @ t=0.22
0.006883971199756412
% es.normE (V/m) @ t=0.24
1.5311801223667578
% es.EX (V/m) @ t=0.24
1.3707264924392297
% es.EY (V/m) @ t=0.24
0.052739572608390906
% es.EZ (V/m) @ t=0.24
-0.6803234200496718
% es.tEX (V/m) @ t=0.24
1.370726492439231
% es.tEY (V/m) @ t=0.24
0
% es.tEZ (V/m) @ t=0.24
-0.680323420049664
% es.Ex (V/m) @ t=0.24
1.3707264924392297
% es.Ey (V/m) @ t=0.24
0.052739572608390906
% es.Ez (V/m) @ t=0.24
-0.6803234200496718
% es.tEx (V/m) @ t=0.24
1.370726492439231
% es.tEy (V/m) @ t=0.24
0
% es.tEz (V/m) @ t=0.24
-0.680323420049664
% V (V) @ t=0.24
0.006946947004375899
% es.normE (V/m) @ t=0.26
1.5450606684723032
% es.EX (V/m) @ t=0.26
1.3831524855327122
% es.EY (V/m) @ t=0.26
0.05321767284293094
% es.EZ (V/m) @ t=0.26
-0.6864907268676592
% es.tEX (V/m) @ t=0.26
1.3831524855327122
% es.tEY (V/m) @ t=0.26
0
% es.tEZ (V/m) @ t=0.26
-0.6864907268676568
% es.Ex (V/m) @ t=0.26
1.3831524855327122
% es.Ey (V/m) @ t=0.26
0.05321767284293094
% es.Ez (V/m) @ t=0.26
-0.6864907268676592
% es.tEx (V/m) @ t=0.26
1.3831524855327122
% es.tEy (V/m) @ t=0.26
0
% es.tEz (V/m) @ t=0.26
-0.6864907268676568
% V (V) @ t=0.26
0.007009922808995385
% es.normE (V/m) @ t=0.28
1.559510122016352
% es.EX (V/m) @ t=0.28
1.3960877137646253
% es.EY (V/m) @ t=0.28
0.053715230999435676
% es.EZ (V/m) @ t=0.28
-0.6929109302682186
% es.tEX (V/m) @ t=0.28
1.3960877137646261
% es.tEY (V/m) @ t=0.28
0
% es.tEZ (V/m) @ t=0.28
-0.6929109302682157
% es.Ex (V/m) @ t=0.28
1.3960877137646253
% es.Ey (V/m) @ t=0.28
0.053715230999435676
% es.Ez (V/m) @ t=0.28
-0.6929109302682186
% es.tEx (V/m) @ t=0.28
1.3960877137646261
% es.tEy (V/m) @ t=0.28
0
% es.tEz (V/m) @ t=0.28
-0.6929109302682157
% V (V) @ t=0.28
0.007075484542888483
% es.normE (V/m) @ t=0.3
1.5749770042646325
% es.EX (V/m) @ t=0.3
1.4099336533212639
% es.EY (V/m) @ t=0.3
0.054247587520273866
% es.EZ (V/m) @ t=0.3
-0.6997834115348407
% es.tEX (V/m) @ t=0.3
1.4099336533212652
% es.tEY (V/m) @ t=0.3
0
% es.tEZ (V/m) @ t=0.3
-0.6997834115348347
% es.Ex (V/m) @ t=0.3
1.4099336533212639
% es.Ey (V/m) @ t=0.3
0.054247587520273866
% es.Ez (V/m) @ t=0.3
-0.6997834115348407
% es.tEx (V/m) @ t=0.3
1.4099336533212652
% es.tEy (V/m) @ t=0.3
0
% es.tEz (V/m) @ t=0.3
-0.6997834115348347
% V (V) @ t=0.3
0.007145670928335821
% es.normE (V/m) @ t=0.32
1.5904438865131316
% es.EX (V/m) @ t=0.32
1.4237795928779073
% es.EY (V/m) @ t=0.32
0.054779944041101813
% es.EZ (V/m) @ t=0.32
-0.706655892801461
% es.tEX (V/m) @ t=0.32
1.4237795928779002
% es.tEY (V/m) @ t=0.32
0
% es.tEZ (V/m) @ t=0.32
-0.7066558928014572
% es.Ex (V/m) @ t=0.32
1.4237795928779073
% es.Ey (V/m) @ t=0.32
0.054779944041101813
% es.Ez (V/m) @ t=0.32
-0.706655892801461
% es.tEx (V/m) @ t=0.32
1.4237795928779002
% es.tEy (V/m) @ t=0.32
0
% es.tEz (V/m) @ t=0.32
-0.7066558928014572
% V (V) @ t=0.32
0.0072158573137831574
% es.normE (V/m) @ t=0.34
1.6059107687618426
% es.EX (V/m) @ t=0.34
1.4376255324345486
% es.EY (V/m) @ t=0.34
0.05531230056193823
% es.EZ (V/m) @ t=0.34
-0.7135283740680902
% es.tEX (V/m) @ t=0.34
1.4376255324345477
% es.tEY (V/m) @ t=0.34
0
% es.tEZ (V/m) @ t=0.34
-0.7135283740680869
% es.Ex (V/m) @ t=0.34
1.4376255324345486
% es.Ey (V/m) @ t=0.34
0.05531230056193823
% es.Ez (V/m) @ t=0.34
-0.7135283740680902
% es.tEx (V/m) @ t=0.34
1.4376255324345477
% es.tEy (V/m) @ t=0.34
0
% es.tEz (V/m) @ t=0.34
-0.7135283740680869
% V (V) @ t=0.34
0.007286043699230494
% es.normE (V/m) @ t=0.36
1.6213776510107494
% es.EX (V/m) @ t=0.36
1.4514714719911854
% es.EY (V/m) @ t=0.36
0.05584465708276931
% es.EZ (V/m) @ t=0.36
-0.7204008553347105
% es.tEX (V/m) @ t=0.36
1.4514714719911836
% es.tEY (V/m) @ t=0.36
0
% es.tEZ (V/m) @ t=0.36
-0.7204008553347059
% es.Ex (V/m) @ t=0.36
1.4514714719911854
% es.Ey (V/m) @ t=0.36
0.05584465708276931
% es.Ez (V/m) @ t=0.36
-0.7204008553347105
% es.tEx (V/m) @ t=0.36
1.4514714719911836
% es.tEy (V/m) @ t=0.36
0
% es.tEz (V/m) @ t=0.36
-0.7204008553347059
% V (V) @ t=0.36
0.007356230084677831
% es.normE (V/m) @ t=0.38
1.6368445332598602
% es.EX (V/m) @ t=0.38
1.4653174115478296
% es.EY (V/m) @ t=0.38
0.0563770136035964
% es.EZ (V/m) @ t=0.38
-0.727273336601331
% es.tEX (V/m) @ t=0.38
1.4653174115478267
% es.tEY (V/m) @ t=0.38
0
% es.tEZ (V/m) @ t=0.38
-0.7272733366013284
% es.Ex (V/m) @ t=0.38
1.4653174115478296
% es.Ey (V/m) @ t=0.38
0.0563770136035964
% es.Ez (V/m) @ t=0.38
-0.727273336601331
% es.tEx (V/m) @ t=0.38
1.4653174115478267
% es.tEy (V/m) @ t=0.38
0
% es.tEz (V/m) @ t=0.38
-0.7272733366013284
% V (V) @ t=0.38
0.007426416470125169
% es.normE (V/m) @ t=0.4
1.6523114155091527
% es.EX (V/m) @ t=0.4
1.479163351104463
% es.EY (V/m) @ t=0.4
0.05690937012443503
% es.EZ (V/m) @ t=0.4
-0.7341458178679477
% es.tEX (V/m) @ t=0.4
1.4791633511044626
% es.tEY (V/m) @ t=0.4
0
% es.tEZ (V/m) @ t=0.4
-0.7341458178679439
% es.Ex (V/m) @ t=0.4
1.479163351104463
% es.Ey (V/m) @ t=0.4
0.05690937012443503
% es.Ez (V/m) @ t=0.4
-0.7341458178679477
% es.tEx (V/m) @ t=0.4
1.4791633511044626
% es.tEy (V/m) @ t=0.4
0
% es.tEz (V/m) @ t=0.4
-0.7341458178679439
% V (V) @ t=0.4
0.007496602855572506
% es.normE (V/m) @ t=0.42
1.667778297758649
% es.EX (V/m) @ t=0.42
1.4930092906611065
% es.EY (V/m) @ t=0.42
0.057441726645275
% es.EZ (V/m) @ t=0.42
-0.7410182991345823
% es.tEX (V/m) @ t=0.42
1.4930092906611048
% es.tEY (V/m) @ t=0.42
0
% es.tEZ (V/m) @ t=0.42
-0.7410182991345735
% es.Ex (V/m) @ t=0.42
1.4930092906611065
% es.Ey (V/m) @ t=0.42
0.057441726645275
% es.Ez (V/m) @ t=0.42
-0.7410182991345823
% es.tEx (V/m) @ t=0.42
1.4930092906611048
% es.tEy (V/m) @ t=0.42
0
% es.tEz (V/m) @ t=0.42
-0.7410182991345735
% V (V) @ t=0.42
0.007566789241019841
% es.normE (V/m) @ t=0.44
1.6832451800083228
% es.EX (V/m) @ t=0.44
1.506855230217751
% es.EY (V/m) @ t=0.44
0.057974083166098506
% es.EZ (V/m) @ t=0.44
-0.7478907804012062
% es.tEX (V/m) @ t=0.44
1.5068552302177487
% es.tEY (V/m) @ t=0.44
0
% es.tEZ (V/m) @ t=0.44
-0.7478907804012032
% es.Ex (V/m) @ t=0.44
1.506855230217751
% es.Ey (V/m) @ t=0.44
0.057974083166098506
% es.Ez (V/m) @ t=0.44
-0.7478907804012062
% es.tEx (V/m) @ t=0.44
1.5068552302177487
% es.tEy (V/m) @ t=0.44
0
% es.tEz (V/m) @ t=0.44
-0.7478907804012032
% V (V) @ t=0.44
0.007636975626467179
% es.normE (V/m) @ t=0.46
1.698712062258158
% es.EX (V/m) @ t=0.46
1.5207011697743806
% es.EY (V/m) @ t=0.46
0.0585064396869176
% es.EZ (V/m) @ t=0.46
-0.7547632616678266
% es.tEX (V/m) @ t=0.46
1.5207011697743766
% es.tEY (V/m) @ t=0.46
0
% es.tEZ (V/m) @ t=0.46
-0.7547632616678221
% es.Ex (V/m) @ t=0.46
1.5207011697743806
% es.Ey (V/m) @ t=0.46
0.0585064396869176
% es.Ez (V/m) @ t=0.46
-0.7547632616678266
% es.tEx (V/m) @ t=0.46
1.5207011697743766
% es.tEy (V/m) @ t=0.46
0
% es.tEz (V/m) @ t=0.46
-0.7547632616678221
% V (V) @ t=0.46
0.007707162011914516
% es.normE (V/m) @ t=0.48
1.7141789445081779
% es.EX (V/m) @ t=0.48
1.5345471093310268
% es.EY (V/m) @ t=0.48
0.059038796207753985
% es.EZ (V/m) @ t=0.48
-0.7616357429344398
% es.tEX (V/m) @ t=0.48
1.5345471093310241
% es.tEY (V/m) @ t=0.48
0
% es.tEZ (V/m) @ t=0.48
-0.761635742934434
% es.Ex (V/m) @ t=0.48
1.5345471093310268
% es.Ey (V/m) @ t=0.48
0.059038796207753985
% es.Ez (V/m) @ t=0.48
-0.7616357429344398
% es.tEx (V/m) @ t=0.48
1.5345471093310241
% es.tEy (V/m) @ t=0.48
0
% es.tEz (V/m) @ t=0.48
-0.761635742934434
% V (V) @ t=0.48
0.007777348397361852
% es.normE (V/m) @ t=0.5
1.729645826758376
% es.EX (V/m) @ t=0.5
1.5483930488876738
% es.EY (V/m) @ t=0.5
0.0595711527286113
% es.EZ (V/m) @ t=0.5
-0.7685082242010743
% es.tEX (V/m) @ t=0.5
1.5483930488876734
% es.tEY (V/m) @ t=0.5
0
% es.tEZ (V/m) @ t=0.5
-0.7685082242010779
% es.Ex (V/m) @ t=0.5
1.5483930488876738
% es.Ey (V/m) @ t=0.5
0.0595711527286113
% es.Ez (V/m) @ t=0.5
-0.7685082242010743
% es.tEx (V/m) @ t=0.5
1.5483930488876734
% es.tEy (V/m) @ t=0.5
0
% es.tEz (V/m) @ t=0.5
-0.7685082242010779
% V (V) @ t=0.5
0.00784753478280919
% es.normE (V/m) @ t=0.52
1.7451127090087217
% es.EX (V/m) @ t=0.52
1.562238988444309
% es.EY (V/m) @ t=0.52
0.060103509249437026
% es.EZ (V/m) @ t=0.52
-0.7753807054677
% es.tEX (V/m) @ t=0.52
1.5622389884443058
% es.tEY (V/m) @ t=0.52
0
% es.tEZ (V/m) @ t=0.52
-0.7753807054676969
% es.Ex (V/m) @ t=0.52
1.562238988444309
% es.Ey (V/m) @ t=0.52
0.060103509249437026
% es.Ez (V/m) @ t=0.52
-0.7753807054677
% es.tEx (V/m) @ t=0.52
1.5622389884443058
% es.tEy (V/m) @ t=0.52
0
% es.tEz (V/m) @ t=0.52
-0.7753807054676969
% V (V) @ t=0.52
0.007917721168256528
% es.normE (V/m) @ t=0.54
1.7605795912592275
% es.EX (V/m) @ t=0.54
1.5760849280009501
% es.EY (V/m) @ t=0.54
0.060635865770255704
% es.EZ (V/m) @ t=0.54
-0.7822531867343185
% es.tEX (V/m) @ t=0.54
1.5760849280009461
% es.tEY (V/m) @ t=0.54
0
% es.tEZ (V/m) @ t=0.54
-0.7822531867343123
% es.Ex (V/m) @ t=0.54
1.5760849280009501
% es.Ey (V/m) @ t=0.54
0.060635865770255704
% es.Ez (V/m) @ t=0.54
-0.7822531867343185
% es.tEx (V/m) @ t=0.54
1.5760849280009461
% es.tEy (V/m) @ t=0.54
0
% es.tEz (V/m) @ t=0.54
-0.7822531867343123
% V (V) @ t=0.54
0.007987907553703865
% es.normE (V/m) @ t=0.56
1.7773544125477967
% es.EX (V/m) @ t=0.56
1.5911016629821397
% es.EY (V/m) @ t=0.56
0.061213068184746866
% es.EZ (V/m) @ t=0.56
-0.7897069867972759
% es.tEX (V/m) @ t=0.56
1.5911016629821422
% es.tEY (V/m) @ t=0.56
0
% es.tEZ (V/m) @ t=0.56
-0.7897069867972704
% es.Ex (V/m) @ t=0.56
1.5911016629821397
% es.Ey (V/m) @ t=0.56
0.061213068184746866
% es.Ez (V/m) @ t=0.56
-0.7897069867972759
% es.tEx (V/m) @ t=0.56
1.5911016629821422
% es.tEy (V/m) @ t=0.56
0
% es.tEz (V/m) @ t=0.56
-0.7897069867972704
% V (V) @ t=0.56
0.008064035221260903
% es.normE (V/m) @ t=0.58
1.794619783111969
% es.EX (V/m) @ t=0.58
1.6065575108196788
% es.EY (V/m) @ t=0.58
0.06180709028272385
% es.EZ (V/m) @ t=0.58
-0.797378813469964
% es.tEX (V/m) @ t=0.58
1.6065575108196786
% es.tEY (V/m) @ t=0.58
0
% es.tEZ (V/m) @ t=0.58
-0.7973788134699547
% es.Ex (V/m) @ t=0.58
1.6065575108196788
% es.Ey (V/m) @ t=0.58
0.06180709028272385
% es.Ez (V/m) @ t=0.58
-0.797378813469964
% es.tEx (V/m) @ t=0.58
1.6065575108196786
% es.tEy (V/m) @ t=0.58
0
% es.tEz (V/m) @ t=0.58
-0.7973788134699547
% V (V) @ t=0.58
0.008142391197284809
% es.normE (V/m) @ t=0.6
1.8118851536766363
% es.EX (V/m) @ t=0.6
1.6220133586572243
% es.EY (V/m) @ t=0.6
0.06240111238066973
% es.EZ (V/m) @ t=0.6
-0.8050506401426645
% es.tEX (V/m) @ t=0.6
1.622013358657214
% es.tEY (V/m) @ t=0.6
0
% es.tEZ (V/m) @ t=0.6
-0.8050506401426603
% es.Ex (V/m) @ t=0.6
1.6220133586572243
% es.Ey (V/m) @ t=0.6
0.06240111238066973
% es.Ez (V/m) @ t=0.6
-0.8050506401426645
% es.tEx (V/m) @ t=0.6
1.622013358657214
% es.tEy (V/m) @ t=0.6
0
% es.tEz (V/m) @ t=0.6
-0.8050506401426603
% V (V) @ t=0.6
0.008220747173308719
% es.normE (V/m) @ t=0.62
1.8291505242417407
% es.EX (V/m) @ t=0.62
1.637469206494746
% es.EY (V/m) @ t=0.62
0.0629951344786325
% es.EZ (V/m) @ t=0.62
-0.8127224668153348
% es.tEX (V/m) @ t=0.62
1.6374692064947434
% es.tEY (V/m) @ t=0.62
0
% es.tEZ (V/m) @ t=0.62
-0.8127224668153303
% es.Ex (V/m) @ t=0.62
1.637469206494746
% es.Ey (V/m) @ t=0.62
0.0629951344786325
% es.Ez (V/m) @ t=0.62
-0.8127224668153348
% es.tEx (V/m) @ t=0.62
1.6374692064947434
% es.tEy (V/m) @ t=0.62
0
% es.tEz (V/m) @ t=0.62
-0.8127224668153303
% V (V) @ t=0.62
0.008299103149332627
% es.normE (V/m) @ t=0.64
1.8464158948073264
% es.EX (V/m) @ t=0.64
1.652925054332285
% es.EY (V/m) @ t=0.64
0.0635891565766015
% es.EZ (V/m) @ t=0.64
-0.8203942934880228
% es.tEX (V/m) @ t=0.64
1.6529250543322878
% es.tEY (V/m) @ t=0.64
0
% es.tEZ (V/m) @ t=0.64
-0.8203942934880111
% es.Ex (V/m) @ t=0.64
1.652925054332285
% es.Ey (V/m) @ t=0.64
0.0635891565766015
% es.Ez (V/m) @ t=0.64
-0.8203942934880228
% es.tEx (V/m) @ t=0.64
1.6529250543322878
% es.tEy (V/m) @ t=0.64
0
% es.tEz (V/m) @ t=0.64
-0.8203942934880111
% V (V) @ t=0.64
0.008377459125356533
% es.normE (V/m) @ t=0.66
1.8636812653733614
% es.EX (V/m) @ t=0.66
1.6683809021698237
% es.EY (V/m) @ t=0.66
0.06418317867455983
% es.EZ (V/m) @ t=0.66
-0.8280661201607216
% es.tEX (V/m) @ t=0.66
1.6683809021698233
% es.tEY (V/m) @ t=0.66
0
% es.tEZ (V/m) @ t=0.66
-0.8280661201607167
% es.Ex (V/m) @ t=0.66
1.6683809021698237
% es.Ey (V/m) @ t=0.66
0.06418317867455983
% es.Ez (V/m) @ t=0.66
-0.8280661201607216
% es.tEx (V/m) @ t=0.66
1.6683809021698233
% es.tEy (V/m) @ t=0.66
0
% es.tEz (V/m) @ t=0.66
-0.8280661201607167
% V (V) @ t=0.66
0.00845581510138044
% es.normE (V/m) @ t=0.68
1.880946635939805
% es.EX (V/m) @ t=0.68
1.683836750007349
% es.EY (V/m) @ t=0.68
0.06477720077252747
% es.EZ (V/m) @ t=0.68
-0.8357379468333919
% es.tEX (V/m) @ t=0.68
1.6838367500073526
% es.tEY (V/m) @ t=0.68
0
% es.tEZ (V/m) @ t=0.68
-0.8357379468333903
% es.Ex (V/m) @ t=0.68
1.683836750007349
% es.Ey (V/m) @ t=0.68
0.06477720077252747
% es.Ez (V/m) @ t=0.68
-0.8357379468333919
% es.tEx (V/m) @ t=0.68
1.6838367500073526
% es.tEy (V/m) @ t=0.68
0
% es.tEz (V/m) @ t=0.68
-0.8357379468333903
% V (V) @ t=0.68
0.008534171077404349
% es.normE (V/m) @ t=0.7
1.8982120065066814
% es.EX (V/m) @ t=0.7
1.6992925978448774
% es.EY (V/m) @ t=0.7
0.06537122287049735
% es.EZ (V/m) @ t=0.7
-0.8434097735060817
% es.tEX (V/m) @ t=0.7
1.6992925978448756
% es.tEY (V/m) @ t=0.7
0
% es.tEZ (V/m) @ t=0.7
-0.8434097735060675
% es.Ex (V/m) @ t=0.7
1.6992925978448774
% es.Ey (V/m) @ t=0.7
0.06537122287049735
% es.Ez (V/m) @ t=0.7
-0.8434097735060817
% es.tEx (V/m) @ t=0.7
1.6992925978448756
% es.tEy (V/m) @ t=0.7
0
% es.tEz (V/m) @ t=0.7
-0.8434097735060675
% V (V) @ t=0.7
0.008612527053428255
% es.normE (V/m) @ t=0.72
1.9154773770739801
% es.EX (V/m) @ t=0.72
1.7147484456824234
% es.EY (V/m) @ t=0.72
0.0659652449684468
% es.EZ (V/m) @ t=0.72
-0.8510816001787662
% es.tEX (V/m) @ t=0.72
1.7147484456824191
% es.tEY (V/m) @ t=0.72
0
% es.tEZ (V/m) @ t=0.72
-0.8510816001787589
% es.Ex (V/m) @ t=0.72
1.7147484456824234
% es.Ey (V/m) @ t=0.72
0.0659652449684468
% es.Ez (V/m) @ t=0.72
-0.8510816001787662
% es.tEx (V/m) @ t=0.72
1.7147484456824191
% es.tEy (V/m) @ t=0.72
0
% es.tEz (V/m) @ t=0.72
-0.8510816001787589
% V (V) @ t=0.72
0.008690883029452165
% es.normE (V/m) @ t=0.74
1.932742747641671
% es.EX (V/m) @ t=0.74
1.7302042935199553
% es.EY (V/m) @ t=0.74
0.06655926706642731
% es.EZ (V/m) @ t=0.74
-0.8587534268514614
% es.tEX (V/m) @ t=0.74
1.7302042935199475
% es.tEY (V/m) @ t=0.74
0
% es.tEZ (V/m) @ t=0.74
-0.8587534268514503
% es.Ex (V/m) @ t=0.74
1.7302042935199553
% es.Ey (V/m) @ t=0.74
0.06655926706642731
% es.Ez (V/m) @ t=0.74
-0.8587534268514614
% es.tEx (V/m) @ t=0.74
1.7302042935199475
% es.tEy (V/m) @ t=0.74
0
% es.tEz (V/m) @ t=0.74
-0.8587534268514503
% V (V) @ t=0.74
0.008769239005476069
% es.normE (V/m) @ t=0.76
1.9500081182097584
% es.EX (V/m) @ t=0.76
1.7456601413574977
% es.EY (V/m) @ t=0.76
0.06715328916438917
% es.EZ (V/m) @ t=0.76
-0.8664252535241564
% es.tEX (V/m) @ t=0.76
1.745660141357492
% es.tEY (V/m) @ t=0.76
0
% es.tEZ (V/m) @ t=0.76
-0.8664252535241417
% es.Ex (V/m) @ t=0.76
1.7456601413574977
% es.Ey (V/m) @ t=0.76
0.06715328916438917
% es.Ez (V/m) @ t=0.76
-0.8664252535241564
% es.tEx (V/m) @ t=0.76
1.745660141357492
% es.tEy (V/m) @ t=0.76
0
% es.tEz (V/m) @ t=0.76
-0.8664252535241417
% V (V) @ t=0.76
0.008847594981499979
% es.normE (V/m) @ t=0.78
1.9672734887782173
% es.EX (V/m) @ t=0.78
1.7611159891950403
% es.EY (V/m) @ t=0.78
0.06774731126234754
% es.EZ (V/m) @ t=0.78
-0.8740970801968356
% es.tEX (V/m) @ t=0.78
1.7611159891950354
% es.tEY (V/m) @ t=0.78
0
% es.tEZ (V/m) @ t=0.78
-0.8740970801968331
% es.Ex (V/m) @ t=0.78
1.7611159891950403
% es.Ey (V/m) @ t=0.78
0.06774731126234754
% es.Ez (V/m) @ t=0.78
-0.8740970801968356
% es.tEx (V/m) @ t=0.78
1.7611159891950354
% es.tEy (V/m) @ t=0.78
0
% es.tEz (V/m) @ t=0.78
-0.8740970801968331
% V (V) @ t=0.78
0.008925950957523887
% es.normE (V/m) @ t=0.8
1.9845388593470341
% es.EX (V/m) @ t=0.8
1.7765718370325652
% es.EY (V/m) @ t=0.8
0.0683413333603223
% es.EZ (V/m) @ t=0.8
-0.8817689068695272
% es.tEX (V/m) @ t=0.8
1.7765718370325638
% es.tEY (V/m) @ t=0.8
0
% es.tEZ (V/m) @ t=0.8
-0.8817689068695245
% es.Ex (V/m) @ t=0.8
1.7765718370325652
% es.Ey (V/m) @ t=0.8
0.0683413333603223
% es.Ez (V/m) @ t=0.8
-0.8817689068695272
% es.tEx (V/m) @ t=0.8
1.7765718370325638
% es.tEy (V/m) @ t=0.8
0
% es.tEz (V/m) @ t=0.8
-0.8817689068695245
% V (V) @ t=0.8
0.009004306933547795
% es.normE (V/m) @ t=0.82
2.0019999917225486
% es.EX (V/m) @ t=0.82
1.792202950853122
% es.EY (V/m) @ t=0.82
0.06894214285232222
% es.EZ (V/m) @ t=0.82
-0.8895276729100845
% es.tEX (V/m) @ t=0.82
1.7922029508531194
% es.tEY (V/m) @ t=0.82
0
% es.tEZ (V/m) @ t=0.82
-0.8895276729100914
% es.Ex (V/m) @ t=0.82
1.792202950853122
% es.Ey (V/m) @ t=0.82
0.06894214285232222
% es.Ez (V/m) @ t=0.82
-0.8895276729100845
% es.tEx (V/m) @ t=0.82
1.7922029508531194
% es.tEy (V/m) @ t=0.82
0
% es.tEz (V/m) @ t=0.82
-0.8895276729100914
% V (V) @ t=0.82
0.009083549516263535
% es.normE (V/m) @ t=0.84
2.021307583490425
% es.EX (V/m) @ t=0.84
1.809487203897005
% es.EY (V/m) @ t=0.84
0.06960697222494
% es.EZ (V/m) @ t=0.84
-0.8981064661836128
% es.tEX (V/m) @ t=0.84
1.8094872038970022
% es.tEY (V/m) @ t=0.84
0
% es.tEZ (V/m) @ t=0.84
-0.8981064661836058
% es.Ex (V/m) @ t=0.84
1.809487203897005
% es.Ey (V/m) @ t=0.84
0.06960697222494
% es.Ez (V/m) @ t=0.84
-0.8981064661836128
% es.tEx (V/m) @ t=0.84
1.8094872038970022
% es.tEy (V/m) @ t=0.84
0
% es.tEz (V/m) @ t=0.84
-0.8981064661836058
% V (V) @ t=0.84
0.00917115472744055
% es.normE (V/m) @ t=0.86
2.0406151752583215
% es.EX (V/m) @ t=0.86
1.826771456940902
% es.EY (V/m) @ t=0.86
0.07027180159757337
% es.EZ (V/m) @ t=0.86
-0.9066852594571464
% es.tEX (V/m) @ t=0.86
1.8267714569408922
% es.tEY (V/m) @ t=0.86
0
% es.tEZ (V/m) @ t=0.86
-0.9066852594571557
% es.Ex (V/m) @ t=0.86
1.826771456940902
% es.Ey (V/m) @ t=0.86
0.07027180159757337
% es.Ez (V/m) @ t=0.86
-0.9066852594571464
% es.tEx (V/m) @ t=0.86
1.8267714569408922
% es.tEy (V/m) @ t=0.86
0
% es.tEz (V/m) @ t=0.86
-0.9066852594571557
% V (V) @ t=0.86
0.009258759938617566
% es.normE (V/m) @ t=0.88
2.0599227670261833
% es.EX (V/m) @ t=0.88
1.844055709984767
% es.EY (V/m) @ t=0.88
0.07093663097020361
% es.EZ (V/m) @ t=0.88
-0.915264052730657
% es.tEX (V/m) @ t=0.88
1.8440557099847608
% es.tEY (V/m) @ t=0.88
0
% es.tEZ (V/m) @ t=0.88
-0.9152640527306559
% es.Ex (V/m) @ t=0.88
1.844055709984767
% es.Ey (V/m) @ t=0.88
0.07093663097020361
% es.Ez (V/m) @ t=0.88
-0.915264052730657
% es.tEx (V/m) @ t=0.88
1.8440557099847608
% es.tEy (V/m) @ t=0.88
0
% es.tEz (V/m) @ t=0.88
-0.9152640527306559
% V (V) @ t=0.88
0.00934636514979458
% es.normE (V/m) @ t=0.9
2.079230358794082
% es.EX (V/m) @ t=0.9
1.861339963028661
% es.EY (V/m) @ t=0.9
0.07160146034282058
% es.EZ (V/m) @ t=0.9
-0.9238428460041871
% es.tEX (V/m) @ t=0.9
1.8613399630286578
% es.tEY (V/m) @ t=0.9
0
% es.tEZ (V/m) @ t=0.9
-0.9238428460041916
% es.Ex (V/m) @ t=0.9
1.861339963028661
% es.Ey (V/m) @ t=0.9
0.07160146034282058
% es.Ez (V/m) @ t=0.9
-0.9238428460041871
% es.tEx (V/m) @ t=0.9
1.8613399630286578
% es.tEy (V/m) @ t=0.9
0
% es.tEz (V/m) @ t=0.9
-0.9238428460041916
% V (V) @ t=0.9
0.009433970360971598
% es.normE (V/m) @ t=0.92
2.0985379505619735
% es.EX (V/m) @ t=0.92
1.878624216072544
% es.EY (V/m) @ t=0.92
0.0722662897154504
% es.EZ (V/m) @ t=0.92
-0.9324216392777118
% es.tEX (V/m) @ t=0.92
1.8786242160725406
% es.tEY (V/m) @ t=0.92
0
% es.tEZ (V/m) @ t=0.92
-0.9324216392777132
% es.Ex (V/m) @ t=0.92
1.878624216072544
% es.Ey (V/m) @ t=0.92
0.0722662897154504
% es.Ez (V/m) @ t=0.92
-0.9324216392777118
% es.tEx (V/m) @ t=0.92
1.8786242160725406
% es.tEy (V/m) @ t=0.92
0
% es.tEz (V/m) @ t=0.92
-0.9324216392777132
% V (V) @ t=0.92
0.009521575572148612
% es.normE (V/m) @ t=0.94
2.117845542329867
% es.EX (V/m) @ t=0.94
1.8959084691164274
% es.EY (V/m) @ t=0.94
0.07293111908807531
% es.EZ (V/m) @ t=0.94
-0.9410004325512331
% es.tEX (V/m) @ t=0.94
1.8959084691164243
% es.tEY (V/m) @ t=0.94
0
% es.tEZ (V/m) @ t=0.94
-0.9410004325512276
% es.Ex (V/m) @ t=0.94
1.8959084691164274
% es.Ey (V/m) @ t=0.94
0.07293111908807531
% es.Ez (V/m) @ t=0.94
-0.9410004325512331
% es.tEx (V/m) @ t=0.94
1.8959084691164243
% es.tEy (V/m) @ t=0.94
0
% es.tEz (V/m) @ t=0.94
-0.9410004325512276
% V (V) @ t=0.94
0.009609180783325627
% es.normE (V/m) @ t=0.96
2.1371531340977707
% es.EX (V/m) @ t=0.96
1.9131927221603102
% es.EY (V/m) @ t=0.96
0.07359594846072598
% es.EZ (V/m) @ t=0.96
-0.9495792258247685
% es.tEX (V/m) @ t=0.96
1.9131927221603142
% es.tEY (V/m) @ t=0.96
0
% es.tEZ (V/m) @ t=0.96
-0.9495792258247562
% es.Ex (V/m) @ t=0.96
1.9131927221603102
% es.Ey (V/m) @ t=0.96
0.07359594846072598
% es.Ez (V/m) @ t=0.96
-0.9495792258247685
% es.tEx (V/m) @ t=0.96
1.9131927221603142
% es.tEy (V/m) @ t=0.96
0
% es.tEz (V/m) @ t=0.96
-0.9495792258247562
% V (V) @ t=0.96
0.009696785994502645
% es.normE (V/m) @ t=0.98
2.1564607258656716
% es.EX (V/m) @ t=0.98
1.930476975204197
% es.EY (V/m) @ t=0.98
0.07426077783331894
% es.EZ (V/m) @ t=0.98
-0.9581580190982861
% es.tEX (V/m) @ t=0.98
1.930476975204197
% es.tEY (V/m) @ t=0.98
0
% es.tEZ (V/m) @ t=0.98
-0.9581580190982777
% es.Ex (V/m) @ t=0.98
1.930476975204197
% es.Ey (V/m) @ t=0.98
0.07426077783331894
% es.Ez (V/m) @ t=0.98
-0.9581580190982861
% es.tEx (V/m) @ t=0.98
1.930476975204197
% es.tEy (V/m) @ t=0.98
0
% es.tEz (V/m) @ t=0.98
-0.9581580190982777
% V (V) @ t=0.98
0.009784391205679659
% es.normE (V/m) @ t=1
2.1757683176335894
% es.EX (V/m) @ t=1
1.9477612282480905
% es.EY (V/m) @ t=1
0.07492560720594829
% es.EZ (V/m) @ t=1
-0.9667368123718181
% es.tEX (V/m) @ t=1
1.9477612282480798
% es.tEY (V/m) @ t=1
0
% es.tEZ (V/m) @ t=1
-0.9667368123718205
% es.Ex (V/m) @ t=1
1.9477612282480905
% es.Ey (V/m) @ t=1
0.07492560720594829
% es.Ez (V/m) @ t=1
-0.9667368123718181
% es.tEx (V/m) @ t=1
1.9477612282480798
% es.tEy (V/m) @ t=1
0
% es.tEz (V/m) @ t=1
-0.9667368123718205
% V (V) @ t=1
0.009871996416856677
% es.normE (V/m) @ t=1.02
2.195075909401499
% es.EX (V/m) @ t=1.02
1.9650454812919702
% es.EY (V/m) @ t=1.02
0.07559043657859274
% es.EZ (V/m) @ t=1.02
-0.9753156056453499
% es.tEX (V/m) @ t=1.02
1.9650454812919769
% es.tEY (V/m) @ t=1.02
0
% es.tEZ (V/m) @ t=1.02
-0.9753156056453349
% es.Ex (V/m) @ t=1.02
1.9650454812919702
% es.Ey (V/m) @ t=1.02
0.07559043657859274
% es.Ez (V/m) @ t=1.02
-0.9753156056453499
% es.tEx (V/m) @ t=1.02
1.9650454812919769
% es.tEy (V/m) @ t=1.02
0
% es.tEz (V/m) @ t=1.02
-0.9753156056453349
% V (V) @ t=1.02
0.009959601628033691
% es.normE (V/m) @ t=1.04
2.2143835011694
% es.EX (V/m) @ t=1.04
1.9823297343358466
% es.EY (V/m) @ t=1.04
0.07625526595121859
% es.EZ (V/m) @ t=1.04
-0.983894398918864