% Model:              1 neuron.mph
% Version:            COMSOL 6.0.0.405
% Date:               Mar 9 2023, 14:20
% Dimension:          0
% Nodes:              14017
% Expressions:        14017
% Description:        Electric field norm, Electric field, X component, Electric field, Y component, Electric field, Z component, Tangential electric field, X component, Tangential electric field, Y component, Tangential electric field, Z component, Electric field, x component, Electric field, y component, Electric field, z component, Tangential electric field, x component, Tangential electric field, y component, Tangential electric field, z component, Electric potential
% Length unit:        mm
% x
1.66
% y
12.2
% z
1.33
% es.normE (V/m) @ t=0
7.597431466641202
% es.EX (V/m) @ t=0
-4.221440771318094
% es.EY (V/m) @ t=0
-0.45566791566245834
% es.EZ (V/m) @ t=0
5.652479797894119
% es.tEX (V/m) @ t=0
-4.221440771318097
% es.tEY (V/m) @ t=0
0
% es.tEZ (V/m) @ t=0
5.652479797894115
% es.Ex (V/m) @ t=0
-4.221440771318094
% es.Ey (V/m) @ t=0
-0.45566791566245834
% es.Ez (V/m) @ t=0
5.652479797894119
% es.tEx (V/m) @ t=0
-4.221440771318097
% es.tEy (V/m) @ t=0
0
% es.tEz (V/m) @ t=0
5.652479797894115
% V (V) @ t=0
0.006239505303754653
% es.normE (V/m) @ t=0.02
6.562047091990857
% es.EX (V/m) @ t=0.02
-3.6461392696980246
% es.EY (V/m) @ t=0.02
-0.39356910280391855
% es.EZ (V/m) @ t=0.02
4.882155072908841
% es.tEX (V/m) @ t=0.02
-3.6461392696980273
% es.tEY (V/m) @ t=0.02
0
% es.tEZ (V/m) @ t=0.02
4.882155072908833
% es.Ex (V/m) @ t=0.02
-3.6461392696980246
% es.Ey (V/m) @ t=0.02
-0.39356910280391855
% es.Ez (V/m) @ t=0.02
4.882155072908841
% es.tEx (V/m) @ t=0.02
-3.6461392696980273
% es.tEy (V/m) @ t=0.02
0
% es.tEz (V/m) @ t=0.02
4.882155072908833
% V (V) @ t=0.02
0.0053891802440898025
% es.normE (V/m) @ t=0.04
6.622405421747098
% es.EX (V/m) @ t=0.04
-3.6796768662958703
% es.EY (V/m) @ t=0.04
-0.3971891618374992
% es.EZ (V/m) @ t=0.04
4.927061562996484
% es.tEX (V/m) @ t=0.04
-3.6796768662958765
% es.tEY (V/m) @ t=0.04
0
% es.tEZ (V/m) @ t=0.04
4.927061562996481
% es.Ex (V/m) @ t=0.04
-3.6796768662958703
% es.Ey (V/m) @ t=0.04
-0.3971891618374992
% es.Ez (V/m) @ t=0.04
4.927061562996484
% es.tEx (V/m) @ t=0.04
-3.6796768662958765
% es.tEy (V/m) @ t=0.04
0
% es.tEz (V/m) @ t=0.04
4.927061562996481
% V (V) @ t=0.04
0.005438750381459217
% es.normE (V/m) @ t=0.06
6.683307403784603
% es.EX (V/m) @ t=0.06
-3.713516543871531
% es.EY (V/m) @ t=0.06
-0.40084182482499475
% es.EZ (V/m) @ t=0.06
4.972372526613635
% es.tEX (V/m) @ t=0.06
-3.7135165438715374
% es.tEY (V/m) @ t=0.06
0
% es.tEZ (V/m) @ t=0.06
4.972372526613631
% es.Ex (V/m) @ t=0.06
-3.713516543871531
% es.Ey (V/m) @ t=0.06
-0.40084182482499475
% es.Ez (V/m) @ t=0.06
4.972372526613635
% es.tEx (V/m) @ t=0.06
-3.7135165438715374
% es.tEy (V/m) @ t=0.06
0
% es.tEz (V/m) @ t=0.06
4.972372526613631
% V (V) @ t=0.06
0.005488766996711217
% es.normE (V/m) @ t=0.08
6.74514013454837
% es.EX (V/m) @ t=0.08
-3.7478732936910806
% es.EY (V/m) @ t=0.08
-0.4045503491316258
% es.EZ (V/m) @ t=0.08
5.018376014625008
% es.tEX (V/m) @ t=0.08
-3.7478732936910797
% es.tEY (V/m) @ t=0.08
0
% es.tEZ (V/m) @ t=0.08
5.018376014625003
% es.Ex (V/m) @ t=0.08
-3.7478732936910806
% es.Ey (V/m) @ t=0.08
-0.4045503491316258
% es.Ez (V/m) @ t=0.08
5.018376014625008
% es.tEx (V/m) @ t=0.08
-3.7478732936910797
% es.tEy (V/m) @ t=0.08
0
% es.tEz (V/m) @ t=0.08
5.018376014625003
% V (V) @ t=0.08
0.005539548077810651
% es.normE (V/m) @ t=0.1
6.807617487622046
% es.EX (V/m) @ t=0.1
-3.782588159825865
% es.EY (V/m) @ t=0.1
-0.40829756213217916
% es.EZ (V/m) @ t=0.1
5.0648591344232
% es.tEX (V/m) @ t=0.1
-3.782588159825875
% es.tEY (V/m) @ t=0.1
0
% es.tEZ (V/m) @ t=0.1
5.064859134423191
% es.Ex (V/m) @ t=0.1
-3.782588159825865
% es.Ey (V/m) @ t=0.1
-0.40829756213217916
% es.Ez (V/m) @ t=0.1
5.0648591344232
% es.tEx (V/m) @ t=0.1
-3.782588159825875
% es.tEy (V/m) @ t=0.1
0
% es.tEz (V/m) @ t=0.1
5.064859134423191
% V (V) @ t=0.1
0.005590858616245388
% es.normE (V/m) @ t=0.12
6.870094840695707
% es.EX (V/m) @ t=0.12
-3.8173030259606504
% es.EY (V/m) @ t=0.12
-0.4120447751327365
% es.EZ (V/m) @ t=0.12
5.1113422542213796
% es.tEX (V/m) @ t=0.12
-3.817303025960654
% es.tEY (V/m) @ t=0.12
0
% es.tEZ (V/m) @ t=0.12
5.111342254221376
% es.Ex (V/m) @ t=0.12
-3.8173030259606504
% es.Ey (V/m) @ t=0.12
-0.4120447751327365
% es.Ez (V/m) @ t=0.12
5.1113422542213796
% es.tEx (V/m) @ t=0.12
-3.817303025960654
% es.tEy (V/m) @ t=0.12
0
% es.tEz (V/m) @ t=0.12
5.111342254221376
% V (V) @ t=0.12
0.005642169154680122
% es.normE (V/m) @ t=0.14
6.933210515472541
% es.EX (V/m) @ t=0.14
-3.85237274847003
% es.EY (V/m) @ t=0.14
-0.41583019600876114
% es.EZ (V/m) @ t=0.14
5.158300187646558
% es.tEX (V/m) @ t=0.14
-3.852372748470036
% es.tEY (V/m) @ t=0.14
0
% es.tEZ (V/m) @ t=0.14
5.1583001876465495
% es.Ex (V/m) @ t=0.14
-3.85237274847003
% es.Ey (V/m) @ t=0.14
-0.41583019600876114
% es.Ez (V/m) @ t=0.14
5.158300187646558
% es.tEx (V/m) @ t=0.14
-3.852372748470036
% es.tEy (V/m) @ t=0.14
0
% es.tEz (V/m) @ t=0.14
5.1583001876465495
% V (V) @ t=0.14
0.0056940037756140725
% es.normE (V/m) @ t=0.16
6.999019689108433
% es.EX (V/m) @ t=0.16
-3.88893984328453
% es.EY (V/m) @ t=0.16
-0.4197768410268936
% es.EZ (V/m) @ t=0.16
5.2072616718772
% es.tEX (V/m) @ t=0.16
-3.888939843284536
% es.tEY (V/m) @ t=0.16
0
% es.tEZ (V/m) @ t=0.16
5.207261671877197
% es.Ex (V/m) @ t=0.16
-3.88893984328453
% es.Ey (V/m) @ t=0.16
-0.4197768410268936
% es.Ez (V/m) @ t=0.16
5.2072616718772
% es.tEx (V/m) @ t=0.16
-3.888939843284536
% es.tEy (V/m) @ t=0.16
0
% es.tEz (V/m) @ t=0.16
5.207261671877197
% V (V) @ t=0.16
0.005748049845111735
% es.normE (V/m) @ t=0.18
7.064828862744497
% es.EX (V/m) @ t=0.18
-3.925506938099039
% es.EY (V/m) @ t=0.18
-0.42372348604502585
% es.EZ (V/m) @ t=0.18
5.256223156107845
% es.tEX (V/m) @ t=0.18
-3.925506938099045
% es.tEY (V/m) @ t=0.18
0
% es.tEZ (V/m) @ t=0.18
5.256223156107842
% es.Ex (V/m) @ t=0.18
-3.925506938099039
% es.Ey (V/m) @ t=0.18
-0.42372348604502585
% es.Ez (V/m) @ t=0.18
5.256223156107845
% es.tEx (V/m) @ t=0.18
-3.925506938099045
% es.tEy (V/m) @ t=0.18
0
% es.tEz (V/m) @ t=0.18
5.256223156107842
% V (V) @ t=0.18
0.0058020959146093945
% es.normE (V/m) @ t=0.2
7.130638036380708
% es.EX (V/m) @ t=0.2
-3.962074032913536
% es.EY (V/m) @ t=0.2
-0.427670131063171
% es.EZ (V/m) @ t=0.2
5.305184640338501
% es.tEX (V/m) @ t=0.2
-3.9620740329135424
% es.tEY (V/m) @ t=0.2
0
% es.tEZ (V/m) @ t=0.2
5.305184640338494
% es.Ex (V/m) @ t=0.2
-3.962074032913536
% es.Ey (V/m) @ t=0.2
-0.427670131063171
% es.Ez (V/m) @ t=0.2
5.305184640338501
% es.tEx (V/m) @ t=0.2
-3.9620740329135424
% es.tEy (V/m) @ t=0.2
0
% es.tEz (V/m) @ t=0.2
5.305184640338494
% V (V) @ t=0.2
0.0058561419841070585
% es.normE (V/m) @ t=0.22
7.196447210017075
% es.EX (V/m) @ t=0.22
-3.9986411277280443
% es.EY (V/m) @ t=0.22
-0.4316167760813212
% es.EZ (V/m) @ t=0.22
5.354146124569145
% es.tEX (V/m) @ t=0.22
-3.9986411277280434
% es.tEY (V/m) @ t=0.22
0
% es.tEZ (V/m) @ t=0.22
5.354146124569141
% es.Ex (V/m) @ t=0.22
-3.9986411277280443
% es.Ey (V/m) @ t=0.22
-0.4316167760813212
% es.Ez (V/m) @ t=0.22
5.354146124569145
% es.tEx (V/m) @ t=0.22
-3.9986411277280434
% es.tEy (V/m) @ t=0.22
0
% es.tEz (V/m) @ t=0.22
5.354146124569141
% V (V) @ t=0.22
0.005910188053604719
% es.normE (V/m) @ t=0.24
7.262256383653583
% es.EX (V/m) @ t=0.24
-4.035208222542534
% es.EY (V/m) @ t=0.24
-0.43556342109946256
% es.EZ (V/m) @ t=0.24
5.403107608799806
% es.tEX (V/m) @ t=0.24
-4.035208222542541
% es.tEY (V/m) @ t=0.24
0
% es.tEZ (V/m) @ t=0.24
5.403107608799797
% es.Ex (V/m) @ t=0.24
-4.035208222542534
% es.Ey (V/m) @ t=0.24
-0.43556342109946256
% es.Ez (V/m) @ t=0.24
5.403107608799806
% es.tEx (V/m) @ t=0.24
-4.035208222542541
% es.tEy (V/m) @ t=0.24
0
% es.tEz (V/m) @ t=0.24
5.403107608799797
% V (V) @ t=0.24
0.005964234123102381
% es.normE (V/m) @ t=0.26
7.328065557290225
% es.EX (V/m) @ t=0.26
-4.07177531735704
% es.EY (V/m) @ t=0.26
-0.4395100661176006
% es.EZ (V/m) @ t=0.26
5.452069093030434
% es.tEX (V/m) @ t=0.26
-4.07177531735705
% es.tEY (V/m) @ t=0.26
0
% es.tEZ (V/m) @ t=0.26
5.452069093030428
% es.Ex (V/m) @ t=0.26
-4.07177531735704
% es.Ey (V/m) @ t=0.26
-0.4395100661176006
% es.Ez (V/m) @ t=0.26
5.452069093030434
% es.tEx (V/m) @ t=0.26
-4.07177531735705
% es.tEy (V/m) @ t=0.26
0
% es.tEz (V/m) @ t=0.26
5.452069093030428
% V (V) @ t=0.26
0.0060182801926000435
% es.normE (V/m) @ t=0.28
7.3968269884466755
% es.EX (V/m) @ t=0.28
-4.1099791824845315
% es.EY (V/m) @ t=0.28
-0.4436353250473233
% es.EZ (V/m) @ t=0.28
5.503229016399123
% es.tEX (V/m) @ t=0.28
-4.109979182484531
% es.tEY (V/m) @ t=0.28
0
% es.tEZ (V/m) @ t=0.28
5.5032290163991195
% es.Ex (V/m) @ t=0.28
-4.1099791824845315
% es.Ey (V/m) @ t=0.28
-0.4436353250473233
% es.Ez (V/m) @ t=0.28
5.503229016399123
% es.tEx (V/m) @ t=0.28
-4.109979182484531
% es.tEy (V/m) @ t=0.28
0
% es.tEz (V/m) @ t=0.28
5.5032290163991195
% V (V) @ t=0.28
0.006074753861818623
% es.normE (V/m) @ t=0.3
7.470145867816219
% es.EX (V/m) @ t=0.3
-4.150709756705488
% es.EY (V/m) @ t=0.3
-0.4480363131927261
% es.EZ (V/m) @ t=0.3
5.557782706209851
% es.tEX (V/m) @ t=0.3
-4.150709756705497
% es.tEY (V/m) @ t=0.3
0
% es.tEZ (V/m) @ t=0.3
5.557782706209844
% es.Ex (V/m) @ t=0.3
-4.150709756705488
% es.Ey (V/m) @ t=0.3
-0.4480363131927261
% es.Ez (V/m) @ t=0.3
5.557782706209851
% es.tEx (V/m) @ t=0.3
-4.150709756705497
% es.tEy (V/m) @ t=0.3
0
% es.tEz (V/m) @ t=0.3
5.557782706209844
% V (V) @ t=0.3
0.00613497505641784
% es.normE (V/m) @ t=0.32
7.543464747200216
% es.EX (V/m) @ t=0.32
-4.191440330926467
% es.EY (V/m) @ t=0.32
-0.45243730133811844
% es.EZ (V/m) @ t=0.32
5.612336396020558
% es.tEX (V/m) @ t=0.32
-4.191440330926473
% es.tEY (V/m) @ t=0.32
0
% es.tEZ (V/m) @ t=0.32
5.612336396020555
% es.Ex (V/m) @ t=0.32
-4.191440330926467
% es.Ey (V/m) @ t=0.32
-0.45243730133811844
% es.Ez (V/m) @ t=0.32
5.612336396020558
% es.tEx (V/m) @ t=0.32
-4.191440330926473
% es.tEy (V/m) @ t=0.32
0
% es.tEz (V/m) @ t=0.32
5.612336396020555
% V (V) @ t=0.32
0.006195196251017058
% es.normE (V/m) @ t=0.34
7.616783626598274
% es.EX (V/m) @ t=0.34
-4.2321709051474325
% es.EY (V/m) @ t=0.34
-0.4568382894835017
% es.EZ (V/m) @ t=0.34
5.66689008583129
% es.tEX (V/m) @ t=0.34
-4.232170905147439
% es.tEY (V/m) @ t=0.34
0
% es.tEZ (V/m) @ t=0.34
5.6668900858312785
% es.Ex (V/m) @ t=0.34
-4.2321709051474325
% es.Ey (V/m) @ t=0.34
-0.4568382894835017
% es.Ez (V/m) @ t=0.34
5.66689008583129
% es.tEx (V/m) @ t=0.34
-4.232170905147439
% es.tEy (V/m) @ t=0.34
0
% es.tEz (V/m) @ t=0.34
5.6668900858312785
% V (V) @ t=0.34
0.006255417445616274
% es.normE (V/m) @ t=0.36
7.690102506009963
% es.EX (V/m) @ t=0.36
-4.2729014793684055
% es.EY (V/m) @ t=0.36
-0.46123927762889916
% es.EZ (V/m) @ t=0.36
5.721443775641998
% es.tEX (V/m) @ t=0.36
-4.272901479368412
% es.tEY (V/m) @ t=0.36
0
% es.tEZ (V/m) @ t=0.36
5.721443775641994
% es.Ex (V/m) @ t=0.36
-4.2729014793684055
% es.Ey (V/m) @ t=0.36
-0.46123927762889916
% es.Ez (V/m) @ t=0.36
5.721443775641998
% es.tEx (V/m) @ t=0.36
-4.272901479368412
% es.tEy (V/m) @ t=0.36
0
% es.tEz (V/m) @ t=0.36
5.721443775641994
% V (V) @ t=0.36
0.006315638640215489
% es.normE (V/m) @ t=0.38
7.763421385434919
% es.EX (V/m) @ t=0.38
-4.313632053589368
% es.EY (V/m) @ t=0.38
-0.4656402657743002
% es.EZ (V/m) @ t=0.38
5.775997465452727
% es.tEX (V/m) @ t=0.38
-4.3136320535893775
% es.tEY (V/m) @ t=0.38
0
% es.tEZ (V/m) @ t=0.38
5.775997465452721
% es.Ex (V/m) @ t=0.38
-4.313632053589368
% es.Ey (V/m) @ t=0.38
-0.4656402657743002
% es.Ez (V/m) @ t=0.38
5.775997465452727
% es.tEx (V/m) @ t=0.38
-4.3136320535893775
% es.tEy (V/m) @ t=0.38
0
% es.tEz (V/m) @ t=0.38
5.775997465452721
% V (V) @ t=0.38
0.006375859834814706
% es.normE (V/m) @ t=0.4
7.836740264872755
% es.EX (V/m) @ t=0.4
-4.354362627810336
% es.EY (V/m) @ t=0.4
-0.47004125391968343
% es.EZ (V/m) @ t=0.4
5.830551155263441
% es.tEX (V/m) @ t=0.4
-4.354362627810346
% es.tEY (V/m) @ t=0.4
0
% es.tEZ (V/m) @ t=0.4
5.8305511552634375
% es.Ex (V/m) @ t=0.4
-4.354362627810336
% es.Ey (V/m) @ t=0.4
-0.47004125391968343
% es.Ez (V/m) @ t=0.4
5.830551155263441
% es.tEx (V/m) @ t=0.4
-4.354362627810346
% es.tEy (V/m) @ t=0.4
0
% es.tEz (V/m) @ t=0.4
5.8305511552634375
% V (V) @ t=0.4
0.006436081029413922
% es.normE (V/m) @ t=0.42
7.9100591443231245
% es.EX (V/m) @ t=0.42
-4.39509320203131
% es.EY (V/m) @ t=0.42
-0.4744422420650791
% es.EZ (V/m) @ t=0.42
5.885104845074162
% es.tEX (V/m) @ t=0.42
-4.395093202031316
% es.tEY (V/m) @ t=0.42
0
% es.tEZ (V/m) @ t=0.42
5.885104845074153
% es.Ex (V/m) @ t=0.42
-4.39509320203131
% es.Ey (V/m) @ t=0.42
-0.4744422420650791
% es.Ez (V/m) @ t=0.42
5.885104845074162
% es.tEx (V/m) @ t=0.42
-4.395093202031316
% es.tEy (V/m) @ t=0.42
0
% es.tEz (V/m) @ t=0.42
5.885104845074153
% V (V) @ t=0.42
0.00649630222401314
% es.normE (V/m) @ t=0.44
7.983378023785669
% es.EX (V/m) @ t=0.44
-4.435823776252276
% es.EY (V/m) @ t=0.44
-0.4788432302104835
% es.EZ (V/m) @ t=0.44
5.9396585348848765
% es.tEX (V/m) @ t=0.44
-4.435823776252282
% es.tEY (V/m) @ t=0.44
0
% es.tEZ (V/m) @ t=0.44
5.93965853488487
% es.Ex (V/m) @ t=0.44
-4.435823776252276
% es.Ey (V/m) @ t=0.44
-0.4788432302104835
% es.Ez (V/m) @ t=0.44
5.9396585348848765
% es.tEx (V/m) @ t=0.44
-4.435823776252282
% es.tEy (V/m) @ t=0.44
0
% es.tEz (V/m) @ t=0.44
5.93965853488487
% V (V) @ t=0.44
0.0065565234186123564
% es.normE (V/m) @ t=0.46
8.056696903260075
% es.EX (V/m) @ t=0.46
-4.476554350473249
% es.EY (V/m) @ t=0.46
-0.48324421835587406
% es.EZ (V/m) @ t=0.46
5.994212224695598
% es.tEX (V/m) @ t=0.46
-4.476554350473255
% es.tEY (V/m) @ t=0.46
0
% es.tEZ (V/m) @ t=0.46
5.994212224695585
% es.Ex (V/m) @ t=0.46
-4.476554350473249
% es.Ey (V/m) @ t=0.46
-0.48324421835587406
% es.Ez (V/m) @ t=0.46
5.994212224695598
% es.tEx (V/m) @ t=0.46
-4.476554350473255
% es.tEy (V/m) @ t=0.46
0
% es.tEz (V/m) @ t=0.46
5.994212224695585
% V (V) @ t=0.46
0.0066167446132115735
% es.normE (V/m) @ t=0.48
8.130015782745993
% es.EX (V/m) @ t=0.48
-4.517284924694214
% es.EY (V/m) @ t=0.48
-0.48764520650126086
% es.EZ (V/m) @ t=0.48
6.048765914506317
% es.tEX (V/m) @ t=0.48
-4.51728492469422
% es.tEY (V/m) @ t=0.48
0
% es.tEZ (V/m) @ t=0.48
6.048765914506308
% es.Ex (V/m) @ t=0.48
-4.517284924694214
% es.Ey (V/m) @ t=0.48
-0.48764520650126086
% es.Ez (V/m) @ t=0.48
6.048765914506317
% es.tEx (V/m) @ t=0.48
-4.51728492469422
% es.tEy (V/m) @ t=0.48
0
% es.tEz (V/m) @ t=0.48
6.048765914506308
% V (V) @ t=0.48
0.006676965807810789
% es.normE (V/m) @ t=0.5
8.20333466224314
% es.EX (V/m) @ t=0.5
-4.558015498915183
% es.EY (V/m) @ t=0.5
-0.4920461946466601
% es.EZ (V/m) @ t=0.5
6.103319604317036
% es.tEX (V/m) @ t=0.5
-4.558015498915189
% es.tEY (V/m) @ t=0.5
0
% es.tEZ (V/m) @ t=0.5
6.1033196043170275
% es.Ex (V/m) @ t=0.5
-4.558015498915183
% es.Ey (V/m) @ t=0.5
-0.4920461946466601
% es.Ez (V/m) @ t=0.5
6.103319604317036
% es.tEx (V/m) @ t=0.5
-4.558015498915189
% es.tEy (V/m) @ t=0.5
0
% es.tEz (V/m) @ t=0.5
6.1033196043170275
% V (V) @ t=0.5
0.006737187002410005
% es.normE (V/m) @ t=0.52
8.276653541751205
% es.EX (V/m) @ t=0.52
-4.598746073136149
% es.EY (V/m) @ t=0.52
-0.4964471827920469
% es.EZ (V/m) @ t=0.52
6.1578732941277545
% es.tEX (V/m) @ t=0.52
-4.598746073136155
% es.tEY (V/m) @ t=0.52
0
% es.tEZ (V/m) @ t=0.52
6.15787329412775
% es.Ex (V/m) @ t=0.52
-4.598746073136149
% es.Ey (V/m) @ t=0.52
-0.4964471827920469
% es.Ez (V/m) @ t=0.52
6.1578732941277545
% es.tEx (V/m) @ t=0.52
-4.598746073136155
% es.tEy (V/m) @ t=0.52
0
% es.tEz (V/m) @ t=0.52
6.15787329412775
% V (V) @ t=0.52
0.006797408197009224
% es.normE (V/m) @ t=0.54
8.349972421269918
% es.EX (V/m) @ t=0.54
-4.6394766473571245
% es.EY (V/m) @ t=0.54
-0.5008481709374426
% es.EZ (V/m) @ t=0.54
6.2124269839384745
% es.tEX (V/m) @ t=0.54
-4.639476647357131
% es.tEY (V/m) @ t=0.54
0
% es.tEZ (V/m) @ t=0.54
6.212426983938462
% es.Ex (V/m) @ t=0.54
-4.6394766473571245
% es.Ey (V/m) @ t=0.54
-0.5008481709374426
% es.Ez (V/m) @ t=0.54
6.2124269839384745
% es.tEx (V/m) @ t=0.54
-4.639476647357131
% es.tEy (V/m) @ t=0.54
0
% es.tEz (V/m) @ t=0.54
6.212426983938462
% V (V) @ t=0.54
0.006857629391608439
% es.normE (V/m) @ t=0.56
8.43000444052041
% es.EX (V/m) @ t=0.56
-4.683977997552462
% es.EY (V/m) @ t=0.56
-0.50563441396642
% es.EZ (V/m) @ t=0.56
6.271953202176569
% es.tEX (V/m) @ t=0.56
-4.683977997552468
% es.tEY (V/m) @ t=0.56
0
% es.tEZ (V/m) @ t=0.56
6.271953202176561
% es.Ex (V/m) @ t=0.56
-4.683977997552462
% es.Ey (V/m) @ t=0.56
-0.50563441396642
% es.Ez (V/m) @ t=0.56
6.271953202176569
% es.tEx (V/m) @ t=0.56
-4.683977997552468
% es.tEy (V/m) @ t=0.56
0
% es.tEz (V/m) @ t=0.56
6.271953202176561
% V (V) @ t=0.56
0.006923330019850802
% es.normE (V/m) @ t=0.58
8.511754690046335
% es.EX (V/m) @ t=0.58
-4.729444478896707
% es.EY (V/m) @ t=0.58
-0.5105192630889308
% es.EZ (V/m) @ t=0.58
6.332752140434808
% es.tEX (V/m) @ t=0.58
-4.7294444788967205
% es.tEY (V/m) @ t=0.58
0
% es.tEZ (V/m) @ t=0.58
6.3327521404348035
% es.Ex (V/m) @ t=0.58
-4.729444478896707
% es.Ey (V/m) @ t=0.58
-0.5105192630889308
% es.Ez (V/m) @ t=0.58
6.332752140434808
% es.tEx (V/m) @ t=0.58
-4.7294444788967205
% es.tEy (V/m) @ t=0.58
0
% es.tEz (V/m) @ t=0.58
6.3327521404348035
% V (V) @ t=0.58
0.0069904331106428776
% es.normE (V/m) @ t=0.6
8.59350493991286
% es.EX (V/m) @ t=0.6
-4.774910960240955
% es.EY (V/m) @ t=0.6
-0.5154041122114323
% es.EZ (V/m) @ t=0.6
6.393551078693063
% es.tEX (V/m) @ t=0.6
-4.774910960240962
% es.tEY (V/m) @ t=0.6
0
% es.tEZ (V/m) @ t=0.6
6.393551078693057
% es.Ex (V/m) @ t=0.6
-4.774910960240955
% es.Ey (V/m) @ t=0.6
-0.5154041122114323
% es.Ez (V/m) @ t=0.6
6.393551078693063
% es.tEx (V/m) @ t=0.6
-4.774910960240962
% es.tEy (V/m) @ t=0.6
0
% es.tEz (V/m) @ t=0.6
6.393551078693057
% V (V) @ t=0.6
0.007057536201434953
% es.normE (V/m) @ t=0.62
8.675255190110358
% es.EX (V/m) @ t=0.62
-4.8203774415852125
% es.EY (V/m) @ t=0.62
-0.5202889613339465
% es.EZ (V/m) @ t=0.62
6.454350016951323
% es.tEX (V/m) @ t=0.62
-4.820377441585222
% es.tEY (V/m) @ t=0.62
0
% es.tEZ (V/m) @ t=0.62
6.454350016951315
% es.Ex (V/m) @ t=0.62
-4.8203774415852125
% es.Ey (V/m) @ t=0.62
-0.5202889613339465
% es.Ez (V/m) @ t=0.62
6.454350016951323
% es.tEx (V/m) @ t=0.62
-4.820377441585222
% es.tEy (V/m) @ t=0.62
0
% es.tEz (V/m) @ t=0.62
6.454350016951315
% V (V) @ t=0.62
0.007124639292227027
% es.normE (V/m) @ t=0.64
8.757005440629547
% es.EX (V/m) @ t=0.64
-4.865843922929471
% es.EY (V/m) @ t=0.64
-0.5251738104564465
% es.EZ (V/m) @ t=0.64
6.515148955209573
% es.tEX (V/m) @ t=0.64
-4.865843922929481
% es.tEY (V/m) @ t=0.64
0
% es.tEZ (V/m) @ t=0.64
6.515148955209569
% es.Ex (V/m) @ t=0.64
-4.865843922929471
% es.Ey (V/m) @ t=0.64
-0.5251738104564465
% es.Ez (V/m) @ t=0.64
6.515148955209573
% es.tEx (V/m) @ t=0.64
-4.865843922929481
% es.tEy (V/m) @ t=0.64
0
% es.tEz (V/m) @ t=0.64
6.515148955209569
% V (V) @ t=0.64
0.007191742383019101
% es.normE (V/m) @ t=0.66
8.838755691461506
% es.EX (V/m) @ t=0.66
-4.911310404273703
% es.EY (V/m) @ t=0.66
-0.5300586595789736
% es.EZ (V/m) @ t=0.66
6.575947893467839
% es.tEX (V/m) @ t=0.66
-4.911310404273713
% es.tEY (V/m) @ t=0.66
0
% es.tEZ (V/m) @ t=0.66
6.57594789346783
% es.Ex (V/m) @ t=0.66
-4.911310404273703
% es.Ey (V/m) @ t=0.66
-0.5300586595789736
% es.Ez (V/m) @ t=0.66
6.575947893467839
% es.tEx (V/m) @ t=0.66
-4.911310404273713
% es.tEy (V/m) @ t=0.66
0
% es.tEz (V/m) @ t=0.66
6.57594789346783
% V (V) @ t=0.66
0.007258845473811176
% es.normE (V/m) @ t=0.68
8.920505942597615
% es.EX (V/m) @ t=0.68
-4.956776885617962
% es.EY (V/m) @ t=0.68
-0.5349435087014682
% es.EZ (V/m) @ t=0.68
6.636746831726075
% es.tEX (V/m) @ t=0.68
-4.956776885617968
% es.tEY (V/m) @ t=0.68
0
% es.tEZ (V/m) @ t=0.68
6.636746831726065
% es.Ex (V/m) @ t=0.68
-4.956776885617962
% es.Ey (V/m) @ t=0.68
-0.5349435087014682
% es.Ez (V/m) @ t=0.68
6.636746831726075
% es.tEx (V/m) @ t=0.68
-4.956776885617968
% es.tEy (V/m) @ t=0.68
0
% es.tEz (V/m) @ t=0.68
6.636746831726065
% V (V) @ t=0.68
0.00732594856460325
% es.normE (V/m) @ t=0.7
9.002256194029624
% es.EX (V/m) @ t=0.7
-5.0022433669622135
% es.EY (V/m) @ t=0.7
-0.5398283578239771
% es.EZ (V/m) @ t=0.7
6.697545769984321
% es.tEX (V/m) @ t=0.7
-5.002243366962223
% es.tEY (V/m) @ t=0.7
0
% es.tEZ (V/m) @ t=0.7
6.697545769984308
% es.Ex (V/m) @ t=0.7
-5.0022433669622135
% es.Ey (V/m) @ t=0.7
-0.5398283578239771
% es.Ez (V/m) @ t=0.7
6.697545769984321
% es.tEx (V/m) @ t=0.7
-5.002243366962223
% es.tEy (V/m) @ t=0.7
0
% es.tEz (V/m) @ t=0.7
6.697545769984308
% V (V) @ t=0.7
0.007393051655395324
% es.normE (V/m) @ t=0.72
9.084006445749534
% es.EX (V/m) @ t=0.72
-5.047709848306478
% es.EY (V/m) @ t=0.72
-0.5447132069464806
% es.EZ (V/m) @ t=0.72
6.758344708242583
% es.tEX (V/m) @ t=0.72
-5.047709848306484
% es.tEY (V/m) @ t=0.72
0
% es.tEZ (V/m) @ t=0.72
6.758344708242575
% es.Ex (V/m) @ t=0.72
-5.047709848306478
% es.Ey (V/m) @ t=0.72
-0.5447132069464806
% es.Ez (V/m) @ t=0.72
6.758344708242583
% es.tEx (V/m) @ t=0.72
-5.047709848306484
% es.tEy (V/m) @ t=0.72
0
% es.tEz (V/m) @ t=0.72
6.758344708242575
% V (V) @ t=0.72
0.0074601547461874
% es.normE (V/m) @ t=0.74
9.165756697749632
% es.EX (V/m) @ t=0.74
-5.09317632965072
% es.EY (V/m) @ t=0.74
-0.5495980560689913
% es.EZ (V/m) @ t=0.74
6.81914364650084
% es.tEX (V/m) @ t=0.74
-5.093176329650732
% es.tEY (V/m) @ t=0.74
0
% es.tEZ (V/m) @ t=0.74
6.819143646500832
% es.Ex (V/m) @ t=0.74
-5.09317632965072
% es.Ey (V/m) @ t=0.74
-0.5495980560689913
% es.Ez (V/m) @ t=0.74
6.81914364650084
% es.tEx (V/m) @ t=0.74
-5.093176329650732
% es.tEy (V/m) @ t=0.74
0
% es.tEz (V/m) @ t=0.74
6.819143646500832
% V (V) @ t=0.74
0.0075272578369794734
% es.normE (V/m) @ t=0.76
9.24750695002248
% es.EX (V/m) @ t=0.76
-5.138642810994968
% es.EY (V/m) @ t=0.76
-0.5544829051914915
% es.EZ (V/m) @ t=0.76
6.879942584759085
% es.tEX (V/m) @ t=0.76
-5.138642810994981
% es.tEY (V/m) @ t=0.76
0
% es.tEZ (V/m) @ t=0.76
6.879942584759074
% es.Ex (V/m) @ t=0.76
-5.138642810994968
% es.Ey (V/m) @ t=0.76
-0.5544829051914915
% es.Ez (V/m) @ t=0.76
6.879942584759085
% es.tEx (V/m) @ t=0.76
-5.138642810994981
% es.tEy (V/m) @ t=0.76
0
% es.tEz (V/m) @ t=0.76
6.879942584759074
% V (V) @ t=0.76
0.007594360927771549
% es.normE (V/m) @ t=0.78
9.329257202560921
% es.EX (V/m) @ t=0.78
-5.184109292339225
% es.EY (V/m) @ t=0.78
-0.5593677543140003
% es.EZ (V/m) @ t=0.78
6.940741523017331
% es.tEX (V/m) @ t=0.78
-5.184109292339231
% es.tEY (V/m) @ t=0.78
0
% es.tEZ (V/m) @ t=0.78
6.940741523017321
% es.Ex (V/m) @ t=0.78
-5.184109292339225
% es.Ey (V/m) @ t=0.78
-0.5593677543140003
% es.Ez (V/m) @ t=0.78
6.940741523017331
% es.tEx (V/m) @ t=0.78
-5.184109292339231
% es.tEy (V/m) @ t=0.78
0
% es.tEz (V/m) @ t=0.78
6.940741523017321
% V (V) @ t=0.78
0.0076614640185636235
% es.normE (V/m) @ t=0.8
9.411007455358044
% es.EX (V/m) @ t=0.8
-5.229575773683483
% es.EY (V/m) @ t=0.8
-0.5642526034365125
% es.EZ (V/m) @ t=0.8
7.001540461275591
% es.tEX (V/m) @ t=0.8
-5.2295757736834965
% es.tEY (V/m) @ t=0.8
0
% es.tEZ (V/m) @ t=0.8
7.001540461275579
% es.Ex (V/m) @ t=0.8
-5.229575773683483
% es.Ey (V/m) @ t=0.8
-0.5642526034365125
% es.Ez (V/m) @ t=0.8
7.001540461275591
% es.tEx (V/m) @ t=0.8
-5.2295757736834965
% es.tEy (V/m) @ t=0.8
0
% es.tEz (V/m) @ t=0.8
7.001540461275579
% V (V) @ t=0.8
0.0077285671093556985
% es.normE (V/m) @ t=0.82
9.494694366239036
% es.EX (V/m) @ t=0.82
-5.27610795743455
% es.EY (V/m) @ t=0.82
-0.5692580419654538
% es.EZ (V/m) @ t=0.82
7.06378589637527
% es.tEX (V/m) @ t=0.82
-5.276107957434555
% es.tEY (V/m) @ t=0.82
0
% es.tEZ (V/m) @ t=0.82
7.0637858963752596
% es.Ex (V/m) @ t=0.82
-5.27610795743455
% es.Ey (V/m) @ t=0.82
-0.5692580419654538
% es.Ez (V/m) @ t=0.82
7.06378589637527
% es.tEx (V/m) @ t=0.82
-5.276107957434555
% es.tEy (V/m) @ t=0.82
0
% es.tEz (V/m) @ t=0.82
7.0637858963752596
% V (V) @ t=0.82
0.007797269345699496
% es.normE (V/m) @ t=0.84
9.58616220495067
% es.EX (V/m) @ t=0.84
-5.3269218233980595
% es.EY (V/m) @ t=0.84
-0.574747973644854
% es.EZ (V/m) @ t=0.84
7.131842934936318
% es.tEX (V/m) @ t=0.84
-5.326921823398068
% es.tEY (V/m) @ t=0.84
0
% es.tEZ (V/m) @ t=0.84
7.13184293493631
% es.Ex (V/m) @ t=0.84
-5.3269218233980595
% es.Ey (V/m) @ t=0.84
-0.574747973644854
% es.Ez (V/m) @ t=0.84
7.131842934936318
% es.tEx (V/m) @ t=0.84
-5.326921823398068
% es.tEy (V/m) @ t=0.84
0
% es.tEz (V/m) @ t=0.84
7.13184293493631
% V (V) @ t=0.84
0.007872396483610601
% es.normE (V/m) @ t=0.86
9.677630043693277
% es.EX (V/m) @ t=0.86
-5.377735689361555
% es.EY (V/m) @ t=0.86
-0.5802379053242435
% es.EZ (V/m) @ t=0.86
7.199899973497352
% es.tEX (V/m) @ t=0.86
-5.377735689361567
% es.tEY (V/m) @ t=0.86
0
% es.tEZ (V/m) @ t=0.86
7.19989997349734
% es.Ex (V/m) @ t=0.86
-5.377735689361555
% es.Ey (V/m) @ t=0.86
-0.5802379053242435
% es.Ez (V/m) @ t=0.86
7.199899973497352
% es.tEx (V/m) @ t=0.86
-5.377735689361567
% es.tEy (V/m) @ t=0.86
0
% es.tEz (V/m) @ t=0.86
7.19989997349734
% V (V) @ t=0.86
0.007947523621521704
% es.normE (V/m) @ t=0.88
9.769097882466035
% es.EX (V/m) @ t=0.88
-5.42854955532505
% es.EY (V/m) @ t=0.88
-0.5857278370036436
% es.EZ (V/m) @ t=0.88
7.26795701205841
% es.tEX (V/m) @ t=0.88
-5.428549555325056
% es.tEY (V/m) @ t=0.88
0
% es.tEZ (V/m) @ t=0.88
7.267957012058404
% es.Ex (V/m) @ t=0.88
-5.42854955532505
% es.Ey (V/m) @ t=0.88
-0.5857278370036436
% es.Ez (V/m) @ t=0.88
7.26795701205841
% es.tEx (V/m) @ t=0.88
-5.428549555325056
% es.tEy (V/m) @ t=0.88
0
% es.tEz (V/m) @ t=0.88
7.267957012058404
% V (V) @ t=0.88
0.008022650759432811
% es.normE (V/m) @ t=0.9
9.86056572126808
% es.EX (V/m) @ t=0.9
-5.479363421288546
% es.EY (V/m) @ t=0.9
-0.5912177686830491
% es.EZ (V/m) @ t=0.9
7.336014050619446
% es.tEX (V/m) @ t=0.9
-5.479363421288551
% es.tEY (V/m) @ t=0.9
0
% es.tEZ (V/m) @ t=0.9
7.336014050619437
% es.Ex (V/m) @ t=0.9
-5.479363421288546
% es.Ey (V/m) @ t=0.9
-0.5912177686830491
% es.Ez (V/m) @ t=0.9
7.336014050619446
% es.tEx (V/m) @ t=0.9
-5.479363421288551
% es.tEy (V/m) @ t=0.9
0
% es.tEz (V/m) @ t=0.9
7.336014050619437
% V (V) @ t=0.9
0.008097777897343913
% es.normE (V/m) @ t=0.92
9.95203356009861
% es.EX (V/m) @ t=0.92
-5.530177287252037
% es.EY (V/m) @ t=0.92
-0.5967077003624437
% es.EZ (V/m) @ t=0.92
7.404071089180501
% es.tEX (V/m) @ t=0.92
-5.53017728725205
% es.tEY (V/m) @ t=0.92
0
% es.tEZ (V/m) @ t=0.92
7.404071089180495
% es.Ex (V/m) @ t=0.92
-5.530177287252037
% es.Ey (V/m) @ t=0.92
-0.5967077003624437
% es.Ez (V/m) @ t=0.92
7.404071089180501
% es.tEx (V/m) @ t=0.92
-5.53017728725205
% es.tEy (V/m) @ t=0.92
0
% es.tEz (V/m) @ t=0.92
7.404071089180495
% V (V) @ t=0.92
0.008172905035255017
% es.normE (V/m) @ t=0.94
10.043501398956842
% es.EX (V/m) @ t=0.94
-5.5809911532155425
% es.EY (V/m) @ t=0.94
-0.6021976320418367
% es.EZ (V/m) @ t=0.94
7.472128127741543
% es.tEX (V/m) @ t=0.94
-5.580991153215549
% es.tEY (V/m) @ t=0.94
0
% es.tEZ (V/m) @ t=0.94
7.472128127741543
% es.Ex (V/m) @ t=0.94
-5.5809911532155425
% es.Ey (V/m) @ t=0.94
-0.6021976320418367
% es.Ez (V/m) @ t=0.94
7.472128127741543
% es.tEx (V/m) @ t=0.94
-5.580991153215549
% es.tEy (V/m) @ t=0.94
0
% es.tEz (V/m) @ t=0.94
7.472128127741543
% V (V) @ t=0.94
0.008248032173166123
% es.normE (V/m) @ t=0.96
10.134969237842046
% es.EX (V/m) @ t=0.96
-5.63180501917904
% es.EY (V/m) @ t=0.96
-0.6076875637212655
% es.EZ (V/m) @ t=0.96
7.5401851663025905
% es.tEX (V/m) @ t=0.96
-5.631805019179049
% es.tEY (V/m) @ t=0.96
0
% es.tEZ (V/m) @ t=0.96
7.540185166302575
% es.Ex (V/m) @ t=0.96
-5.63180501917904
% es.Ey (V/m) @ t=0.96
-0.6076875637212655
% es.Ez (V/m) @ t=0.96
7.5401851663025905
% es.tEx (V/m) @ t=0.96
-5.631805019179049
% es.tEy (V/m) @ t=0.96
0
% es.tEz (V/m) @ t=0.96
7.540185166302575
% V (V) @ t=0.96
0.008323159311077227
% es.normE (V/m) @ t=0.98
10.226437076753484
% es.EX (V/m) @ t=0.98
-5.682618885142546
% es.EY (V/m) @ t=0.98
-0.6131774954006621
% es.EZ (V/m) @ t=0.98
7.6082422048636476
% es.tEX (V/m) @ t=0.98
-5.682618885142555
% es.tEY (V/m) @ t=0.98
0
% es.tEZ (V/m) @ t=0.98
7.608242204863646
% es.Ex (V/m) @ t=0.98
-5.682618885142546
% es.Ey (V/m) @ t=0.98
-0.6131774954006621
% es.Ez (V/m) @ t=0.98
7.6082422048636476
% es.tEx (V/m) @ t=0.98
-5.682618885142555
% es.tEy (V/m) @ t=0.98
0
% es.tEz (V/m) @ t=0.98
7.608242204863646
% V (V) @ t=0.98
0.00839828644898833
% es.normE (V/m) @ t=1
10.317904915690438
% es.EX (V/m) @ t=1
-5.733432751106043
% es.EY (V/m) @ t=1
-0.6186674270800425
% es.EZ (V/m) @ t=1
7.676299243424694
% es.tEX (V/m) @ t=1
-5.7334327511060525
% es.tEY (V/m) @ t=1
0
% es.tEZ (V/m) @ t=1
7.6762992434246735
% es.Ex (V/m) @ t=1
-5.733432751106043
% es.Ey (V/m) @ t=1
-0.6186674270800425
% es.Ez (V/m) @ t=1
7.676299243424694
% es.tEx (V/m) @ t=1
-5.7334327511060525
% es.tEy (V/m) @ t=1
0
% es.tEz (V/m) @ t=1
7.6762992434246735
% V (V) @ t=1
0.008473413586899438
% es.normE (V/m) @ t=1.02
10.409372754652246
% es.EX (V/m) @ t=1.02
-5.7842466170695435
% es.EY (V/m) @ t=1.02
-0.6241573587594411
% es.EZ (V/m) @ t=1.02
7.744356281985722
% es.tEX (V/m) @ t=1.02
-5.784246617069546
% es.tEY (V/m) @ t=1.02
0
% es.tEZ (V/m) @ t=1.02
7.744356281985718
% es.Ex (V/m) @ t=1.02
-5.7842466170695435
% es.Ey (V/m) @ t=1.02
-0.6241573587594411
% es.Ez (V/m) @ t=1.02
7.744356281985722
% es.tEx (V/m) @ t=1.02
-5.784246617069546
% es.tEy (V/m) @ t=1.02
0
% es.tEz (V/m) @ t=1.02
7.744356281985718
% V (V) @ t=1.02
0.008548540724810542
% es.normE (V/m) @ t=1.04
10.5008405936383
% es.EX (V/m) @ t=1.04
-5.835060483033042
% es.EY (V/m) @ t=1.04
-0.6296472904388377
% es.EZ (V/m) @ t=1.04
7.812413320546788
% es.tEX (V/m) @ t=1.04
-5.835060483033045
% es.tEY (V/m) @ t=1.04
0
% es.tEZ (V/m) @ t=1.04
7.812413320546776
% es.Ex (V/m) @ t=1.04
-5.835060483033042
% es.Ey (V/m) @ t=1.04
-0.6296472904388377
% es.Ez (V/m) @ t=1.04
7.812413320546788
% es.tEx (V/m) @ t=1.04
-5.835060483033045
% es.tEy (V/m) @ t=1.04
0
% es.tEz (V/m) @ t=1.04
7.812413320546776