% Model:              1 neuron.mph
% Version:            COMSOL 6.0.0.405
% Date:               Mar 9 2023, 14:09
% Dimension:          0
% Nodes:              14017
% Expressions:        14017
% Description:        Electric field norm, Electric field, X component, Electric field, Y component, Electric field, Z component, Tangential electric field, X component, Tangential electric field, Y component, Tangential electric field, Z component, Electric field, x component, Electric field, y component, Electric field, z component, Tangential electric field, x component, Tangential electric field, y component, Tangential electric field, z component, Electric potential
% Length unit:        mm
% x
2
% y
12.2
% z
1
% es.normE (V/m) @ t=0
0.7802615535629229
% es.EX (V/m) @ t=0
-0.5038820512592264
% es.EY (V/m) @ t=0
0.11195086059812248
% es.EZ (V/m) @ t=0
0.5746585304422682
% es.tEX (V/m) @ t=0
-0.5038820512592248
% es.tEY (V/m) @ t=0
0
% es.tEZ (V/m) @ t=0
0.5746585304422722
% es.Ex (V/m) @ t=0
-0.5038820512592264
% es.Ey (V/m) @ t=0
0.11195086059812248
% es.Ez (V/m) @ t=0
0.5746585304422682
% es.tEx (V/m) @ t=0
-0.5038820512592248
% es.tEy (V/m) @ t=0
0
% es.tEz (V/m) @ t=0
0.5746585304422722
% V (V) @ t=0
0.007551397803971268
% es.normE (V/m) @ t=0.02
0.6739279340569355
% es.EX (V/m) @ t=0.02
-0.4352132783965714
% es.EY (V/m) @ t=0.02
0.09669426214093774
% es.EZ (V/m) @ t=0.02
0.4963443786886801
% es.tEX (V/m) @ t=0.02
-0.43521327839657165
% es.tEY (V/m) @ t=0.02
0
% es.tEZ (V/m) @ t=0.02
0.49634437868868586
% es.Ex (V/m) @ t=0.02
-0.4352132783965714
% es.Ey (V/m) @ t=0.02
0.09669426214093774
% es.Ez (V/m) @ t=0.02
0.4963443786886801
% es.tEx (V/m) @ t=0.02
-0.43521327839657165
% es.tEy (V/m) @ t=0.02
0
% es.tEz (V/m) @ t=0.02
0.49634437868868586
% V (V) @ t=0.02
0.006522297213751132
% es.normE (V/m) @ t=0.04
0.6801278487394342
% es.EX (V/m) @ t=0.04
-0.43921709453048274
% es.EY (V/m) @ t=0.04
0.09758382428274637
% es.EZ (V/m) @ t=0.04
0.500910582809432
% es.tEX (V/m) @ t=0.04
-0.4392170945304814
% es.tEY (V/m) @ t=0.04
0
% es.tEZ (V/m) @ t=0.04
0.5009105828094396
% es.Ex (V/m) @ t=0.04
-0.43921709453048274
% es.Ey (V/m) @ t=0.04
0.09758382428274637
% es.Ez (V/m) @ t=0.04
0.500910582809432
% es.tEx (V/m) @ t=0.04
-0.4392170945304814
% es.tEy (V/m) @ t=0.04
0
% es.tEz (V/m) @ t=0.04
0.5009105828094396
% V (V) @ t=0.04
0.006582299821722166
% es.normE (V/m) @ t=0.06
0.6863831338652155
% es.EX (V/m) @ t=0.06
-0.44325667255416756
% es.EY (V/m) @ t=0.06
0.09848131859698395
% es.EZ (V/m) @ t=0.06
0.5055175677578747
% es.tEX (V/m) @ t=0.06
-0.4432566725541678
% es.tEY (V/m) @ t=0.06
0
% es.tEZ (V/m) @ t=0.06
0.5055175677578823
% es.Ex (V/m) @ t=0.06
-0.44325667255416756
% es.Ey (V/m) @ t=0.06
0.09848131859698395
% es.Ez (V/m) @ t=0.06
0.5055175677578747
% es.tEx (V/m) @ t=0.06
-0.4432566725541678
% es.tEy (V/m) @ t=0.06
0
% es.tEz (V/m) @ t=0.06
0.5055175677578823
% V (V) @ t=0.06
0.006642838980303342
% es.normE (V/m) @ t=0.08
0.6927350531127745
% es.EX (V/m) @ t=0.08
-0.4473586295683081
% es.EY (V/m) @ t=0.08
0.09939275009428139
% es.EZ (V/m) @ t=0.08
0.5101957185791837
% es.tEX (V/m) @ t=0.08
-0.4473586295683083
% es.tEY (V/m) @ t=0.08
0
% es.tEZ (V/m) @ t=0.08
0.5101957185791894
% es.Ex (V/m) @ t=0.08
-0.4473586295683081
% es.Ey (V/m) @ t=0.08
0.09939275009428139
% es.Ez (V/m) @ t=0.08
0.5101957185791837
% es.tEx (V/m) @ t=0.08
-0.4473586295683083
% es.tEy (V/m) @ t=0.08
0
% es.tEz (V/m) @ t=0.08
0.5101957185791894
% V (V) @ t=0.08
0.006704309416286304
% es.normE (V/m) @ t=0.1
0.6991514384712938
% es.EX (V/m) @ t=0.1
-0.45150220056770096
% es.EY (V/m) @ t=0.1
0.10031347930105544
% es.EZ (V/m) @ t=0.1
0.5149213452503254
% es.tEX (V/m) @ t=0.1
-0.45150220056770096
% es.tEY (V/m) @ t=0.1
0
% es.tEZ (V/m) @ t=0.1
0.5149213452503294
% es.Ex (V/m) @ t=0.1
-0.45150220056770096
% es.Ey (V/m) @ t=0.1
0.10031347930105544
% es.Ez (V/m) @ t=0.1
0.5149213452503254
% es.tEx (V/m) @ t=0.1
-0.45150220056770096
% es.tEy (V/m) @ t=0.1
0
% es.tEz (V/m) @ t=0.1
0.5149213452503294
% V (V) @ t=0.1
0.006766401121766866
% es.normE (V/m) @ t=0.12
0.70556782382985
% es.EX (V/m) @ t=0.12
-0.4556457715670921
% es.EY (V/m) @ t=0.12
0.10123420850782872
% es.EZ (V/m) @ t=0.12
0.5196469719214685
% es.tEX (V/m) @ t=0.12
-0.4556457715670903
% es.tEY (V/m) @ t=0.12
0
% es.tEZ (V/m) @ t=0.12
0.5196469719214614
% es.Ex (V/m) @ t=0.12
-0.4556457715670921
% es.Ey (V/m) @ t=0.12
0.10123420850782872
% es.Ez (V/m) @ t=0.12
0.5196469719214685
% es.tEx (V/m) @ t=0.12
-0.4556457715670903
% es.tEy (V/m) @ t=0.12
0
% es.tEz (V/m) @ t=0.12
0.5196469719214614
% V (V) @ t=0.12
0.00682849282724743
% es.normE (V/m) @ t=0.14
0.7120558487106493
% es.EX (V/m) @ t=0.14
-0.45983561931796735
% es.EY (V/m) @ t=0.14
0.1021651804567118
% es.EZ (V/m) @ t=0.14
0.5244253630400748
% es.tEX (V/m) @ t=0.14
-0.459835619317966
% es.tEY (V/m) @ t=0.14
0
% es.tEZ (V/m) @ t=0.14
0.5244253630400806
% es.Ex (V/m) @ t=0.14
-0.45983561931796735
% es.Ey (V/m) @ t=0.14
0.1021651804567118
% es.Ez (V/m) @ t=0.14
0.5244253630400748
% es.tEx (V/m) @ t=0.14
-0.459835619317966
% es.tEy (V/m) @ t=0.14
0
% es.tEz (V/m) @ t=0.14
0.5244253630400806
% V (V) @ t=0.14
0.0068912798311772695
% es.normE (V/m) @ t=0.16
0.7188140105016717
% es.EX (V/m) @ t=0.16
-0.46419996653887274
% es.EY (V/m) @ t=0.16
0.10313477553735334
% es.EZ (V/m) @ t=0.16
0.5294027173059672
% es.tEX (V/m) @ t=0.16
-0.46419996653887297
% es.tEY (V/m) @ t=0.16
0
% es.tEZ (V/m) @ t=0.16
0.5294027173059748
% es.Ex (V/m) @ t=0.16
-0.46419996653887274
% es.Ey (V/m) @ t=0.16
0.10313477553735334
% es.Ez (V/m) @ t=0.16
0.5294027173059672
% es.tEx (V/m) @ t=0.16
-0.46419996653887297
% es.tEy (V/m) @ t=0.16
0
% es.tEz (V/m) @ t=0.16
0.5294027173059748
% V (V) @ t=0.16
0.006956688652910345
% es.normE (V/m) @ t=0.18
0.7255721722927115
% es.EX (V/m) @ t=0.18
-0.468564313759787
% es.EY (V/m) @ t=0.18
0.10410437061798505
% es.EZ (V/m) @ t=0.18
0.5343800715718614
% es.tEX (V/m) @ t=0.18
-0.46856431375978524
% es.tEY (V/m) @ t=0.18
0
% es.tEZ (V/m) @ t=0.18
0.5343800715718654
% es.Ex (V/m) @ t=0.18
-0.468564313759787
% es.Ey (V/m) @ t=0.18
0.10410437061798505
% es.Ez (V/m) @ t=0.18
0.5343800715718614
% es.tEx (V/m) @ t=0.18
-0.46856431375978524
% es.tEy (V/m) @ t=0.18
0
% es.tEz (V/m) @ t=0.18
0.5343800715718654
% V (V) @ t=0.18
0.0070220974746434215
% es.normE (V/m) @ t=0.2
0.7323303340837571
% es.EX (V/m) @ t=0.2
-0.47292866098069575
% es.EY (V/m) @ t=0.2
0.10507396569862659
% es.EZ (V/m) @ t=0.2
0.5393574258377538
% es.tEX (V/m) @ t=0.2
-0.47292866098069397
% es.tEY (V/m) @ t=0.2
0
% es.tEZ (V/m) @ t=0.2
0.5393574258377667
% es.Ex (V/m) @ t=0.2
-0.47292866098069575
% es.Ey (V/m) @ t=0.2
0.10507396569862659
% es.Ez (V/m) @ t=0.2
0.5393574258377538
% es.tEx (V/m) @ t=0.2
-0.47292866098069397
% es.tEy (V/m) @ t=0.2
0
% es.tEz (V/m) @ t=0.2
0.5393574258377667
% V (V) @ t=0.2
0.007087506296376499
% es.normE (V/m) @ t=0.22
0.7390884958748138
% es.EX (V/m) @ t=0.22
-0.4772930082016027
% es.EY (V/m) @ t=0.22
0.10604356077926363
% es.EZ (V/m) @ t=0.22
0.5443347801036498
% es.tEX (V/m) @ t=0.22
-0.4772930082016027
% es.tEY (V/m) @ t=0.22
0
% es.tEZ (V/m) @ t=0.22
0.5443347801036502
% es.Ex (V/m) @ t=0.22
-0.4772930082016027
% es.Ey (V/m) @ t=0.22
0.10604356077926363
% es.Ez (V/m) @ t=0.22
0.5443347801036498
% es.tEx (V/m) @ t=0.22
-0.4772930082016027
% es.tEy (V/m) @ t=0.22
0
% es.tEz (V/m) @ t=0.22
0.5443347801036502
% V (V) @ t=0.22
0.007152915118109575
% es.normE (V/m) @ t=0.24
0.7458466576658769
% es.EX (V/m) @ t=0.24
-0.4816573554225132
% es.EY (V/m) @ t=0.24
0.10701315585990245
% es.EZ (V/m) @ t=0.24
0.54931213436954
% es.tEX (V/m) @ t=0.24
-0.4816573554225114
% es.tEY (V/m) @ t=0.24
0
% es.tEZ (V/m) @ t=0.24
0.5493121343695475
% es.Ex (V/m) @ t=0.24
-0.4816573554225132
% es.Ey (V/m) @ t=0.24
0.10701315585990245
% es.Ez (V/m) @ t=0.24
0.54931213436954
% es.tEx (V/m) @ t=0.24
-0.4816573554225114
% es.tEy (V/m) @ t=0.24
0
% es.tEz (V/m) @ t=0.24
0.5493121343695475
% V (V) @ t=0.24
0.007218323939842652
% es.normE (V/m) @ t=0.26
0.7526048194569548
% es.EX (V/m) @ t=0.26
-0.48602170264341815
% es.EY (V/m) @ t=0.26
0.10798275094053417
% es.EZ (V/m) @ t=0.26
0.5542894886354435
% es.tEX (V/m) @ t=0.26
-0.4860217026434166
% es.tEY (V/m) @ t=0.26
0
% es.tEZ (V/m) @ t=0.26
0.5542894886354492
% es.Ex (V/m) @ t=0.26
-0.48602170264341815
% es.Ey (V/m) @ t=0.26
0.10798275094053417
% es.Ez (V/m) @ t=0.26
0.5542894886354435
% es.tEx (V/m) @ t=0.26
-0.4860217026434166
% es.tEy (V/m) @ t=0.26
0
% es.tEz (V/m) @ t=0.26
0.5542894886354492
% V (V) @ t=0.26
0.007283732761575728
% es.normE (V/m) @ t=0.28
0.7596933643421044
% es.EX (V/m) @ t=0.28
-0.4905995388952762
% es.EY (V/m) @ t=0.28
0.10899937952954947
% es.EZ (V/m) @ t=0.28
0.5595101926752122
% es.tEX (V/m) @ t=0.28
-0.4905995388952744
% es.tEY (V/m) @ t=0.28
0
% es.tEZ (V/m) @ t=0.28
0.5595101926752162
% es.Ex (V/m) @ t=0.28
-0.4905995388952762
% es.Ey (V/m) @ t=0.28
0.10899937952954947
% es.Ez (V/m) @ t=0.28
0.5595101926752122
% es.tEx (V/m) @ t=0.28
-0.4905995388952744
% es.tEy (V/m) @ t=0.28
0
% es.tEz (V/m) @ t=0.28
0.5595101926752162
% V (V) @ t=0.28
0.007352359154506773
% es.normE (V/m) @ t=0.3
0.7672213790447513
% es.EX (V/m) @ t=0.3
-0.49546135452385287
% es.EY (V/m) @ t=0.3
0.11007857126916615
% es.EZ (V/m) @ t=0.3
0.5650545963299267
% es.tEX (V/m) @ t=0.3
-0.49546135452385287
% es.tEY (V/m) @ t=0.3
0
% es.tEZ (V/m) @ t=0.3
0.5650545963299325
% es.Ex (V/m) @ t=0.3
-0.49546135452385287
% es.Ey (V/m) @ t=0.3
0.11007857126916615
% es.Ez (V/m) @ t=0.3
0.5650545963299267
% es.tEx (V/m) @ t=0.3
-0.49546135452385287
% es.tEy (V/m) @ t=0.3
0
% es.tEz (V/m) @ t=0.3
0.5650545963299325
% V (V) @ t=0.3
0.007425265504395256
% es.normE (V/m) @ t=0.32
0.774749393749534
% es.EX (V/m) @ t=0.32
-0.5003231701524311
% es.EY (V/m) @ t=0.32
0.11115776300878455
% es.EZ (V/m) @ t=0.32
0.570598999984635
% es.tEX (V/m) @ t=0.32
-0.5003231701524293
% es.tEY (V/m) @ t=0.32
0
% es.tEZ (V/m) @ t=0.32
0.5705989999846355
% es.Ex (V/m) @ t=0.32
-0.5003231701524311
% es.Ey (V/m) @ t=0.32
0.11115776300878455
% es.Ez (V/m) @ t=0.32
0.570598999984635
% es.tEx (V/m) @ t=0.32
-0.5003231701524293
% es.tEy (V/m) @ t=0.32
0
% es.tEz (V/m) @ t=0.32
0.5705989999846355
% V (V) @ t=0.32
0.007498171854283743
% es.normE (V/m) @ t=0.34
0.7822774084563859
% es.EX (V/m) @ t=0.34
-0.5051849857810073
% es.EY (V/m) @ t=0.34
0.11223695474839585
% es.EZ (V/m) @ t=0.34
0.5761434036393416
% es.tEX (V/m) @ t=0.34
-0.5051849857810073
% es.tEY (V/m) @ t=0.34
0
% es.tEZ (V/m) @ t=0.34
0.576143403639342
% es.Ex (V/m) @ t=0.34
-0.5051849857810073
% es.Ey (V/m) @ t=0.34
0.11223695474839585
% es.Ez (V/m) @ t=0.34
0.5761434036393416
% es.tEx (V/m) @ t=0.34
-0.5051849857810073
% es.tEy (V/m) @ t=0.34
0
% es.tEz (V/m) @ t=0.34
0.576143403639342
% V (V) @ t=0.34
0.00757107820417223
% es.normE (V/m) @ t=0.36
0.7898054231652563
% es.EX (V/m) @ t=0.36
-0.510046801409584
% es.EY (V/m) @ t=0.36
0.11331614648800892
% es.EZ (V/m) @ t=0.36
0.5816878072940512
% es.tEX (V/m) @ t=0.36
-0.5100468014095823
% es.tEY (V/m) @ t=0.36
0
% es.tEZ (V/m) @ t=0.36
0.5816878072940552
% es.Ex (V/m) @ t=0.36
-0.510046801409584
% es.Ey (V/m) @ t=0.36
0.11331614648800892
% es.Ez (V/m) @ t=0.36
0.5816878072940512
% es.tEx (V/m) @ t=0.36
-0.5100468014095823
% es.tEy (V/m) @ t=0.36
0
% es.tEz (V/m) @ t=0.36
0.5816878072940552
% V (V) @ t=0.36
0.007643984554060715
% es.normE (V/m) @ t=0.38
0.7973334378760828
% es.EX (V/m) @ t=0.38
-0.5149086170381623
% es.EY (V/m) @ t=0.38
0.11439533822762554
% es.EZ (V/m) @ t=0.38
0.5872322109487556
% es.tEX (V/m) @ t=0.38
-0.5149086170381605
% es.tEY (V/m) @ t=0.38
0
% es.tEZ (V/m) @ t=0.38
0.5872322109487578
% es.Ex (V/m) @ t=0.38
-0.5149086170381623
% es.Ey (V/m) @ t=0.38
0.11439533822762554
% es.Ez (V/m) @ t=0.38
0.5872322109487556
% es.tEx (V/m) @ t=0.38
-0.5149086170381605
% es.tEy (V/m) @ t=0.38
0
% es.tEz (V/m) @ t=0.38
0.5872322109487578
% V (V) @ t=0.38
0.007716890903949203
% es.normE (V/m) @ t=0.4
0.8048614525888113
% es.EX (V/m) @ t=0.4
-0.5197704326667387
% es.EY (V/m) @ t=0.4
0.11547452996723861
% es.EZ (V/m) @ t=0.4
0.5927766146034599
% es.tEX (V/m) @ t=0.4
-0.519770432666737
% es.tEY (V/m) @ t=0.4
0
% es.tEZ (V/m) @ t=0.4
0.5927766146034745
% es.Ex (V/m) @ t=0.4
-0.5197704326667387
% es.Ey (V/m) @ t=0.4
0.11547452996723861
% es.Ez (V/m) @ t=0.4
0.5927766146034599
% es.tEx (V/m) @ t=0.4
-0.519770432666737
% es.tEy (V/m) @ t=0.4
0
% es.tEz (V/m) @ t=0.4
0.5927766146034745
% V (V) @ t=0.4
0.007789797253837687
% es.normE (V/m) @ t=0.42
0.812389467303392
% es.EX (V/m) @ t=0.42
-0.5246322482953141
% es.EY (V/m) @ t=0.42
0.11655372170685091
% es.EZ (V/m) @ t=0.42
0.5983210182581691
% es.tEX (V/m) @ t=0.42
-0.5246322482953141
% es.tEY (V/m) @ t=0.42
0
% es.tEZ (V/m) @ t=0.42
0.5983210182581731
% es.Ex (V/m) @ t=0.42
-0.5246322482953141
% es.Ey (V/m) @ t=0.42
0.11655372170685091
% es.Ez (V/m) @ t=0.42
0.5983210182581691
% es.tEx (V/m) @ t=0.42
-0.5246322482953141
% es.tEy (V/m) @ t=0.42
0
% es.tEz (V/m) @ t=0.42
0.5983210182581731
% V (V) @ t=0.42
0.007862703603726174
% es.normE (V/m) @ t=0.44
0.819917482019777
% es.EX (V/m) @ t=0.44
-0.5294940639238881
% es.EY (V/m) @ t=0.44
0.1176329134464541
% es.EZ (V/m) @ t=0.44
0.6038654219128867
% es.tEX (V/m) @ t=0.44
-0.5294940639238881
% es.tEY (V/m) @ t=0.44
0
% es.tEZ (V/m) @ t=0.44
0.6038654219128943
% es.Ex (V/m) @ t=0.44
-0.5294940639238881
% es.Ey (V/m) @ t=0.44
0.1176329134464541
% es.Ez (V/m) @ t=0.44
0.6038654219128867
% es.tEx (V/m) @ t=0.44
-0.5294940639238881
% es.tEy (V/m) @ t=0.44
0
% es.tEz (V/m) @ t=0.44
0.6038654219128943
% V (V) @ t=0.44
0.007935609953614661
% es.normE (V/m) @ t=0.46
0.8274454967379106
% es.EX (V/m) @ t=0.46
-0.5343558795524701
% es.EY (V/m) @ t=0.46
0.11871210518608671
% es.EZ (V/m) @ t=0.46
0.6094098255675893
% es.tEX (V/m) @ t=0.46
-0.5343558795524646
% es.tEY (V/m) @ t=0.46
0
% es.tEZ (V/m) @ t=0.46
0.6094098255675933
% es.Ex (V/m) @ t=0.46
-0.5343558795524701
% es.Ey (V/m) @ t=0.46
0.11871210518608671
% es.Ez (V/m) @ t=0.46
0.6094098255675893
% es.tEx (V/m) @ t=0.46
-0.5343558795524646
% es.tEy (V/m) @ t=0.46
0
% es.tEz (V/m) @ t=0.46
0.6094098255675933
% V (V) @ t=0.46
0.008008516303503148
% es.normE (V/m) @ t=0.48
0.8349735114577455
% es.EX (V/m) @ t=0.48
-0.5392176951810483
% es.EY (V/m) @ t=0.48
0.1197912969256909
% es.EZ (V/m) @ t=0.48
0.6149542292222971
% es.tEX (V/m) @ t=0.48
-0.5392176951810466
% es.tEY (V/m) @ t=0.48
0
% es.tEZ (V/m) @ t=0.48
0.6149542292223069
% es.Ex (V/m) @ t=0.48
-0.5392176951810483
% es.Ey (V/m) @ t=0.48
0.1197912969256909
% es.Ez (V/m) @ t=0.48
0.6149542292222971
% es.tEx (V/m) @ t=0.48
-0.5392176951810466
% es.tEy (V/m) @ t=0.48
0
% es.tEz (V/m) @ t=0.48
0.6149542292223069
% V (V) @ t=0.48
0.008081422653391634
% es.normE (V/m) @ t=0.5
0.8425015261792377
% es.EX (V/m) @ t=0.5
-0.5440795108096212
% es.EY (V/m) @ t=0.5
0.12087048866530042
% es.EZ (V/m) @ t=0.5
0.6204986328770108
% es.tEX (V/m) @ t=0.5
-0.5440795108096212
% es.tEY (V/m) @ t=0.5
0
% es.tEZ (V/m) @ t=0.5
0.6204986328770126
% es.Ex (V/m) @ t=0.5
-0.5440795108096212
% es.Ey (V/m) @ t=0.5
0.12087048866530042
% es.Ez (V/m) @ t=0.5
0.6204986328770108
% es.tEx (V/m) @ t=0.5
-0.5440795108096212
% es.tEy (V/m) @ t=0.5
0
% es.tEz (V/m) @ t=0.5
0.6204986328770126
% V (V) @ t=0.5
0.008154329003280121
% es.normE (V/m) @ t=0.52
0.8500295409023386
% es.EX (V/m) @ t=0.52
-0.5489413264381966
% es.EY (V/m) @ t=0.52
0.12194968040491361
% es.EZ (V/m) @ t=0.52
0.6260430365317156
% es.tEX (V/m) @ t=0.52
-0.5489413264381964
% es.tEY (V/m) @ t=0.52
0
% es.tEZ (V/m) @ t=0.52
0.6260430365317218
% es.Ex (V/m) @ t=0.52
-0.5489413264381966
% es.Ey (V/m) @ t=0.52
0.12194968040491361
% es.Ez (V/m) @ t=0.52
0.6260430365317156
% es.tEx (V/m) @ t=0.52
-0.5489413264381964
% es.tEy (V/m) @ t=0.52
0
% es.tEz (V/m) @ t=0.52
0.6260430365317218
% V (V) @ t=0.52
0.008227235353168605
% es.normE (V/m) @ t=0.54
0.857557555627023
% es.EX (V/m) @ t=0.54
-0.5538031420667802
% es.EY (V/m) @ t=0.54
0.12302887214452579
% es.EZ (V/m) @ t=0.54
0.6315874401864292
% es.tEX (V/m) @ t=0.54
-0.5538031420667799
% es.tEY (V/m) @ t=0.54
0
% es.tEZ (V/m) @ t=0.54
0.6315874401864319
% es.Ex (V/m) @ t=0.54
-0.5538031420667802
% es.Ey (V/m) @ t=0.54
0.12302887214452579
% es.Ez (V/m) @ t=0.54
0.6315874401864292
% es.tEx (V/m) @ t=0.54
-0.5538031420667799
% es.tEy (V/m) @ t=0.54
0
% es.tEz (V/m) @ t=0.54
0.6315874401864319
% V (V) @ t=0.54
0.00830014170305709
% es.normE (V/m) @ t=0.56
0.8658379037701501
% es.EX (V/m) @ t=0.56
-0.5591504150725766
% es.EY (V/m) @ t=0.56
0.1242170947405829
% es.EZ (V/m) @ t=0.56
0.6376858617265828
% es.tEX (V/m) @ t=0.56
-0.5591504150725763
% es.tEY (V/m) @ t=0.56
0
% es.tEZ (V/m) @ t=0.56
0.6376858617265864
% es.Ex (V/m) @ t=0.56
-0.5591504150725766
% es.Ey (V/m) @ t=0.56
0.1242170947405829
% es.Ez (V/m) @ t=0.56
0.6376858617265828
% es.tEx (V/m) @ t=0.56
-0.5591504150725763
% es.tEy (V/m) @ t=0.56
0
% es.tEz (V/m) @ t=0.56
0.6376858617265864
% V (V) @ t=0.56
0.008380269959657556
% es.normE (V/m) @ t=0.58
0.8742324282901139
% es.EX (V/m) @ t=0.58
-0.5645713625462891
% es.EY (V/m) @ t=0.58
0.1254218641864931
% es.EZ (V/m) @ t=0.58
0.6438683626830297
% es.tEX (V/m) @ t=0.58
-0.5645713625462871
% es.tEY (V/m) @ t=0.58
0
% es.tEZ (V/m) @ t=0.58
0.6438683626830235
% es.Ex (V/m) @ t=0.58
-0.5645713625462891
% es.Ey (V/m) @ t=0.58
0.1254218641864931
% es.Ez (V/m) @ t=0.58
0.6438683626830297
% es.tEx (V/m) @ t=0.58
-0.5645713625462871
% es.tEy (V/m) @ t=0.58
0
% es.tEz (V/m) @ t=0.58
0.6438683626830235
% V (V) @ t=0.58
0.00846149423448576
% es.normE (V/m) @ t=0.6
0.8826269528105329
% es.EX (V/m) @ t=0.6
-0.5699923100200015
% es.EY (V/m) @ t=0.6
0.12662663363239351
% es.EZ (V/m) @ t=0.6
0.6500508636394775
% es.tEX (V/m) @ t=0.6
-0.5699923100199995
% es.tEY (V/m) @ t=0.6
0
% es.tEZ (V/m) @ t=0.6
0.6500508636394775
% es.Ex (V/m) @ t=0.6
-0.5699923100200015
% es.Ey (V/m) @ t=0.6
0.12662663363239351
% es.Ez (V/m) @ t=0.6
0.6500508636394775
% es.tEx (V/m) @ t=0.6
-0.5699923100199995
% es.tEy (V/m) @ t=0.6
0
% es.tEz (V/m) @ t=0.6
0.6500508636394775
% V (V) @ t=0.6
0.008542718509313965
% es.normE (V/m) @ t=0.62
0.8910214773314025
% es.EX (V/m) @ t=0.62
-0.5754132574937103
% es.EY (V/m) @ t=0.62
0.12783140307830276
% es.EZ (V/m) @ t=0.62
0.6562333645959306
% es.tEX (V/m) @ t=0.62
-0.5754132574937048
% es.tEY (V/m) @ t=0.62
0
% es.tEZ (V/m) @ t=0.62
0.6562333645959475
% es.Ex (V/m) @ t=0.62
-0.5754132574937103
% es.Ey (V/m) @ t=0.62
0.12783140307830276
% es.Ez (V/m) @ t=0.62
0.6562333645959306
% es.tEx (V/m) @ t=0.62
-0.5754132574937048
% es.tEy (V/m) @ t=0.62
0
% es.tEz (V/m) @ t=0.62
0.6562333645959475
% V (V) @ t=0.62
0.008623942784142167
% es.normE (V/m) @ t=0.64
0.8994160018527133
% es.EX (V/m) @ t=0.64
-0.5808342049674189
% es.EY (V/m) @ t=0.64
0.12903617252420319
% es.EZ (V/m) @ t=0.64
0.6624158655523944
% es.tEX (V/m) @ t=0.64
-0.5808342049674169
% es.tEY (V/m) @ t=0.64
0
% es.tEZ (V/m) @ t=0.64
0.6624158655524015
% es.Ex (V/m) @ t=0.64
-0.5808342049674189
% es.Ey (V/m) @ t=0.64
0.12903617252420319
% es.Ez (V/m) @ t=0.64
0.6624158655523944
% es.tEx (V/m) @ t=0.64
-0.5808342049674169
% es.tEy (V/m) @ t=0.64
0
% es.tEz (V/m) @ t=0.64
0.6624158655524015
% V (V) @ t=0.64
0.008705167058970372
% es.normE (V/m) @ t=0.66
0.9078105263744378
% es.EX (V/m) @ t=0.66
-0.5862551524411315
% es.EY (V/m) @ t=0.66
0.13024094197011166
% es.EZ (V/m) @ t=0.66
0.6685983665088395
% es.tEX (V/m) @ t=0.66
-0.5862551524411295
% es.tEY (V/m) @ t=0.66
0
% es.tEZ (V/m) @ t=0.66
0.6685983665088493
% es.Ex (V/m) @ t=0.66
-0.5862551524411315
% es.Ey (V/m) @ t=0.66
0.13024094197011166
% es.Ez (V/m) @ t=0.66
0.6685983665088395
% es.tEx (V/m) @ t=0.66
-0.5862551524411295
% es.tEy (V/m) @ t=0.66
0
% es.tEz (V/m) @ t=0.66
0.6685983665088493
% V (V) @ t=0.66
0.008786391333798578
% es.normE (V/m) @ t=0.68
0.9162050508965607
% es.EX (V/m) @ t=0.68
-0.5916760999148336
% es.EY (V/m) @ t=0.68
0.1314457114160183
% es.EZ (V/m) @ t=0.68
0.674780867465282
% es.tEX (V/m) @ t=0.68
-0.5916760999148352
% es.tEY (V/m) @ t=0.68
0
% es.tEZ (V/m) @ t=0.68
0.6747808674652891
% es.Ex (V/m) @ t=0.68
-0.5916760999148336
% es.Ey (V/m) @ t=0.68
0.1314457114160183
% es.Ez (V/m) @ t=0.68
0.674780867465282
% es.tEx (V/m) @ t=0.68
-0.5916760999148352
% es.tEy (V/m) @ t=0.68
0
% es.tEz (V/m) @ t=0.68
0.6747808674652891
% V (V) @ t=0.68
0.00886761560862678
% es.normE (V/m) @ t=0.7
0.9245995754191036
% es.EX (V/m) @ t=0.7
-0.597097047388542
% es.EY (V/m) @ t=0.7
0.13265048086192932
% es.EZ (V/m) @ t=0.7
0.6809633684217422
% es.tEX (V/m) @ t=0.7
-0.5970970473885435
% es.tEY (V/m) @ t=0.7
0
% es.tEZ (V/m) @ t=0.7
0.680963368421752
% es.Ex (V/m) @ t=0.7
-0.597097047388542
% es.Ey (V/m) @ t=0.7
0.13265048086192932
% es.Ez (V/m) @ t=0.7
0.6809633684217422
% es.tEx (V/m) @ t=0.7
-0.5970970473885435
% es.tEy (V/m) @ t=0.7
0
% es.tEz (V/m) @ t=0.7
0.680963368421752
% V (V) @ t=0.7
0.008948839883454985
% es.normE (V/m) @ t=0.72
0.932994099942039
% es.EX (V/m) @ t=0.72
-0.6025179948622505
% es.EY (V/m) @ t=0.72
0.13385525030783507
% es.EZ (V/m) @ t=0.72
0.6871458693782095
% es.tEX (V/m) @ t=0.72
-0.6025179948622486
% es.tEY (V/m) @ t=0.72
0
% es.tEZ (V/m) @ t=0.72
0.6871458693782131
% es.Ex (V/m) @ t=0.72
-0.6025179948622505
% es.Ey (V/m) @ t=0.72
0.13385525030783507
% es.Ez (V/m) @ t=0.72
0.6871458693782095
% es.tEx (V/m) @ t=0.72
-0.6025179948622486
% es.tEy (V/m) @ t=0.72
0
% es.tEz (V/m) @ t=0.72
0.6871458693782131
% V (V) @ t=0.72
0.009030064158283191
% es.normE (V/m) @ t=0.74
0.9413886244653369
% es.EX (V/m) @ t=0.74
-0.60793894233596
% es.EY (V/m) @ t=0.74
0.1350600197537346
% es.EZ (V/m) @ t=0.74
0.6933283703346564
% es.tEX (V/m) @ t=0.74
-0.6079389423359578
% es.tEY (V/m) @ t=0.74
0
% es.tEZ (V/m) @ t=0.74
0.6933283703346609
% es.Ex (V/m) @ t=0.74
-0.60793894233596
% es.Ey (V/m) @ t=0.74
0.1350600197537346
% es.Ez (V/m) @ t=0.74
0.6933283703346564
% es.tEx (V/m) @ t=0.74
-0.6079389423359578
% es.tEy (V/m) @ t=0.74
0
% es.tEz (V/m) @ t=0.74
0.6933283703346609
% V (V) @ t=0.74
0.009111288433111393
% es.normE (V/m) @ t=0.76
0.9497831489890163
% es.EX (V/m) @ t=0.76
-0.6133598898096686
% es.EY (V/m) @ t=0.76
0.1362647891996457
% es.EZ (V/m) @ t=0.76
0.6995108712911184
% es.tEX (V/m) @ t=0.76
-0.6133598898096664
% es.tEY (V/m) @ t=0.76
0
% es.tEZ (V/m) @ t=0.76
0.6995108712911158
% es.Ex (V/m) @ t=0.76
-0.6133598898096686
% es.Ey (V/m) @ t=0.76
0.1362647891996457
% es.Ez (V/m) @ t=0.76
0.6995108712911184
% es.tEx (V/m) @ t=0.76
-0.6133598898096664
% es.tEy (V/m) @ t=0.76
0
% es.tEz (V/m) @ t=0.76
0.6995108712911158
% V (V) @ t=0.76
0.009192512707939597
% es.normE (V/m) @ t=0.78
0.9581776735130347
% es.EX (V/m) @ t=0.78
-0.6187808372833807
% es.EY (V/m) @ t=0.78
0.13746955864554522
% es.EZ (V/m) @ t=0.78
0.7056933722475556
% es.tEX (V/m) @ t=0.78
-0.6187808372833785
% es.tEY (V/m) @ t=0.78
0
% es.tEZ (V/m) @ t=0.78
0.7056933722475565
% es.Ex (V/m) @ t=0.78
-0.6187808372833807
% es.Ey (V/m) @ t=0.78
0.13746955864554522
% es.Ez (V/m) @ t=0.78
0.7056933722475556
% es.tEx (V/m) @ t=0.78
-0.6187808372833785
% es.tEy (V/m) @ t=0.78
0
% es.tEz (V/m) @ t=0.78
0.7056933722475565
% V (V) @ t=0.78
0.0092737369827678
% es.normE (V/m) @ t=0.8
0.9665721980374237
% es.EX (V/m) @ t=0.8
-0.6242017847570862
% es.EY (V/m) @ t=0.8
0.1386743280914634
% es.EZ (V/m) @ t=0.8
0.7118758732040211
% es.tEX (V/m) @ t=0.8
-0.6242017847570842
% es.tEY (V/m) @ t=0.8
0
% es.tEZ (V/m) @ t=0.8
0.7118758732040256
% es.Ex (V/m) @ t=0.8
-0.6242017847570862
% es.Ey (V/m) @ t=0.8
0.1386743280914634
% es.Ez (V/m) @ t=0.8
0.7118758732040211
% es.tEx (V/m) @ t=0.8
-0.6242017847570842
% es.tEy (V/m) @ t=0.8
0
% es.tEz (V/m) @ t=0.8
0.7118758732040256
% V (V) @ t=0.8
0.009354961257596005
% es.normE (V/m) @ t=0.82
0.9752699621729084
% es.EX (V/m) @ t=0.82
-0.6298185327670911
% es.EY (V/m) @ t=0.82
0.13992268216334136
% es.EZ (V/m) @ t=0.82
0.7182817036294962
% es.tEX (V/m) @ t=0.82
-0.6298185327670889
% es.tEY (V/m) @ t=0.82
0
% es.tEZ (V/m) @ t=0.82
0.7182817036295033
% es.Ex (V/m) @ t=0.82
-0.6298185327670911
% es.Ey (V/m) @ t=0.82
0.13992268216334136
% es.Ez (V/m) @ t=0.82
0.7182817036294962
% es.tEx (V/m) @ t=0.82
-0.6298185327670889
% es.tEy (V/m) @ t=0.82
0
% es.tEz (V/m) @ t=0.82
0.7182817036295033
% V (V) @ t=0.82
0.009439116144218567
% es.normE (V/m) @ t=0.84
0.9846512176479676
% es.EX (V/m) @ t=0.84
-0.6358766082486715
% es.EY (V/m) @ t=0.84
0.14126927443799298
% es.EZ (V/m) @ t=0.84
0.7251909107655967
% es.tEX (V/m) @ t=0.84
-0.6358766082486729
% es.tEY (V/m) @ t=0.84
0
% es.tEZ (V/m) @ t=0.84
0.7251909107656012
% es.Ex (V/m) @ t=0.84
-0.6358766082486715
% es.Ey (V/m) @ t=0.84
0.14126927443799298
% es.Ez (V/m) @ t=0.84
0.7251909107655967
% es.tEx (V/m) @ t=0.84
-0.6358766082486729
% es.tEy (V/m) @ t=0.84
0
% es.tEz (V/m) @ t=0.84
0.7251909107656012
% V (V) @ t=0.84
0.009529876525993857
% es.normE (V/m) @ t=0.86
0.9940324731238788
% es.EX (V/m) @ t=0.86
-0.641934683730252
% es.EY (V/m) @ t=0.86
0.1426158667126357
% es.EZ (V/m) @ t=0.86
0.7321001179016866
% es.tEX (V/m) @ t=0.86
-0.6419346837302533
% es.tEY (V/m) @ t=0.86
0
% es.tEZ (V/m) @ t=0.86
0.732100117901691
% es.Ex (V/m) @ t=0.86
-0.641934683730252
% es.Ey (V/m) @ t=0.86
0.1426158667126357
% es.Ez (V/m) @ t=0.86
0.7321001179016866
% es.tEx (V/m) @ t=0.86
-0.6419346837302533
% es.tEy (V/m) @ t=0.86
0
% es.tEz (V/m) @ t=0.86
0.732100117901691
% V (V) @ t=0.86
0.00962063690776915
% es.normE (V/m) @ t=0.88
1.0034137286006284
% es.EX (V/m) @ t=0.88
-0.6479927592118364
% es.EY (V/m) @ t=0.88
0.14396245898727666
% es.EZ (V/m) @ t=0.88
0.7390093250377765
% es.tEX (V/m) @ t=0.88
-0.6479927592118377
% es.tEY (V/m) @ t=0.88
0
% es.tEZ (V/m) @ t=0.88
0.7390093250377809
% es.Ex (V/m) @ t=0.88
-0.6479927592118364
% es.Ey (V/m) @ t=0.88
0.14396245898727666
% es.Ez (V/m) @ t=0.88
0.7390093250377765
% es.tEx (V/m) @ t=0.88
-0.6479927592118377
% es.tEy (V/m) @ t=0.88
0
% es.tEz (V/m) @ t=0.88
0.7390093250377809
% V (V) @ t=0.88
0.009711397289544444
% es.normE (V/m) @ t=0.9
1.0127949840781818
% es.EX (V/m) @ t=0.9
-0.654050834693424
% es.EY (V/m) @ t=0.9
0.14530905126191762
% es.EZ (V/m) @ t=0.9
0.7459185321738522
% es.tEX (V/m) @ t=0.9
-0.6540508346934217
% es.tEY (V/m) @ t=0.9
0
% es.tEZ (V/m) @ t=0.9
0.7459185321738708
% es.Ex (V/m) @ t=0.9
-0.654050834693424
% es.Ey (V/m) @ t=0.9
0.14530905126191762
% es.Ez (V/m) @ t=0.9
0.7459185321738522
% es.tEx (V/m) @ t=0.9
-0.6540508346934217
% es.tEy (V/m) @ t=0.9
0
% es.tEz (V/m) @ t=0.9
0.7459185321738708
% V (V) @ t=0.9
0.009802157671319736
% es.normE (V/m) @ t=0.92
1.0221762395565308
% es.EX (V/m) @ t=0.92
-0.6601089101750082
% es.EY (V/m) @ t=0.92
0.1466556435365649
% es.EZ (V/m) @ t=0.92
0.752827739309935
% es.tEX (V/m) @ t=0.92
-0.660108910175006
% es.tEY (V/m) @ t=0.92
0
% es.tEZ (V/m) @ t=0.92
0.7528277393099607
% es.Ex (V/m) @ t=0.92
-0.6601089101750082
% es.Ey (V/m) @ t=0.92
0.1466556435365649
% es.Ez (V/m) @ t=0.92
0.752827739309935
% es.tEx (V/m) @ t=0.92
-0.660108910175006
% es.tEy (V/m) @ t=0.92
0
% es.tEz (V/m) @ t=0.92
0.7528277393099607
% V (V) @ t=0.92
0.009892918053095029
% es.normE (V/m) @ t=0.94
1.0315574950356634
% es.EX (V/m) @ t=0.94
-0.6661669856565888
% es.EY (V/m) @ t=0.94
0.1480022358112023
% es.EZ (V/m) @ t=0.94
0.7597369464460435
% es.tEX (V/m) @ t=0.94
-0.6661669856565902
% es.tEY (V/m) @ t=0.94
0
% es.tEZ (V/m) @ t=0.94
0.7597369464460577
% es.Ex (V/m) @ t=0.94
-0.6661669856565888
% es.Ey (V/m) @ t=0.94
0.1480022358112023
% es.Ez (V/m) @ t=0.94
0.7597369464460435
% es.tEx (V/m) @ t=0.94
-0.6661669856565902
% es.tEy (V/m) @ t=0.94
0
% es.tEz (V/m) @ t=0.94
0.7597369464460577
% V (V) @ t=0.94
0.009983678434870323
% es.normE (V/m) @ t=0.96
1.0409387505155359
% es.EX (V/m) @ t=0.96
-0.6722250611381726
% es.EY (V/m) @ t=0.96
0.14934882808585026
% es.EZ (V/m) @ t=0.96
0.7666461535821343
% es.tEX (V/m) @ t=0.96
-0.6722250611381739
% es.tEY (V/m) @ t=0.96
0
% es.tEZ (V/m) @ t=0.96
0.7666461535821485
% es.Ex (V/m) @ t=0.96
-0.6722250611381726
% es.Ey (V/m) @ t=0.96
0.14934882808585026
% es.Ez (V/m) @ t=0.96
0.7666461535821343
% es.tEx (V/m) @ t=0.96
-0.6722250611381739
% es.tEy (V/m) @ t=0.96
0
% es.tEz (V/m) @ t=0.96
0.7666461535821485
% V (V) @ t=0.96
0.010074438816645612
% es.normE (V/m) @ t=0.98
1.0503200059961344
% es.EX (V/m) @ t=0.98
-0.678283136619753
% es.EY (V/m) @ t=0.98
0.1506954203604869
% es.EZ (V/m) @ t=0.98
0.7735553607182277
% es.tEX (V/m) @ t=0.98
-0.6782831366197544
% es.tEY (V/m) @ t=0.98
0
% es.tEZ (V/m) @ t=0.98
0.7735553607182464
% es.Ex (V/m) @ t=0.98
-0.678283136619753
% es.Ey (V/m) @ t=0.98
0.1506954203604869
% es.Ez (V/m) @ t=0.98
0.7735553607182277
% es.tEx (V/m) @ t=0.98
-0.6782831366197544
% es.tEy (V/m) @ t=0.98
0
% es.tEz (V/m) @ t=0.98
0.7735553607182464
% V (V) @ t=0.98
0.010165199198420904
% es.normE (V/m) @ t=1
1.0597012614774377
% es.EX (V/m) @ t=1
-0.684341212101341
% es.EY (V/m) @ t=1
0.15204201263511186
% es.EZ (V/m) @ t=1
0.7804645678543141
% es.tEX (V/m) @ t=1
-0.6843412121013424
% es.tEY (V/m) @ t=1
0
% es.tEZ (V/m) @ t=1
0.7804645678543292
% es.Ex (V/m) @ t=1
-0.684341212101341
% es.Ey (V/m) @ t=1
0.15204201263511186
% es.Ez (V/m) @ t=1
0.7804645678543141
% es.tEx (V/m) @ t=1
-0.6843412121013424
% es.tEy (V/m) @ t=1
0
% es.tEz (V/m) @ t=1
0.7804645678543292
% V (V) @ t=1
0.010255959580196197
% es.normE (V/m) @ t=1.02
1.0690825169594413
% es.EX (V/m) @ t=1.02
-0.6903992875829255
% es.EY (V/m) @ t=1.02
0.15338860490976447
% es.EZ (V/m) @ t=1.02
0.7873737749904102
% es.tEX (V/m) @ t=1.02
-0.6903992875829268
% es.tEY (V/m) @ t=1.02
0
% es.tEZ (V/m) @ t=1.02
0.7873737749904253
% es.Ex (V/m) @ t=1.02
-0.6903992875829255
% es.Ey (V/m) @ t=1.02
0.15338860490976447
% es.Ez (V/m) @ t=1.02
0.7873737749904102
% es.tEx (V/m) @ t=1.02
-0.6903992875829268
% es.tEy (V/m) @ t=1.02
0
% es.tEz (V/m) @ t=1.02
0.7873737749904253
% V (V) @ t=1.02
0.01034671996197149
% es.normE (V/m) @ t=1.04
1.0784637724421193
% es.EX (V/m) @ t=1.04
-0.6964573630645088
% es.EY (V/m) @ t=1.04
0.15473519718440354
% es.EZ (V/m) @ t=1.04