% Model:              1 neuron.mph
% Version:            COMSOL 6.0.0.405
% Date:               Mar 9 2023, 14:06
% Dimension:          0
% Nodes:              14017
% Expressions:        14017
% Description:        Electric field norm, Electric field, X component, Electric field, Y component, Electric field, Z component, Tangential electric field, X component, Tangential electric field, Y component, Tangential electric field, Z component, Electric field, x component, Electric field, y component, Electric field, z component, Tangential electric field, x component, Tangential electric field, y component, Tangential electric field, z component, Electric potential
% Length unit:        mm
% x
1.33
% y
12.2
% z
1.33
% es.normE (V/m) @ t=0
7.894858413936513
% es.EX (V/m) @ t=0
6.1176001530680875
% es.EY (V/m) @ t=0
-0.9373973470457377
% es.EZ (V/m) @ t=0
4.887299638670024
% es.tEX (V/m) @ t=0
6.117600153068121
% es.tEY (V/m) @ t=0
0
% es.tEZ (V/m) @ t=0
4.887299638670017
% es.Ex (V/m) @ t=0
6.1176001530680875
% es.Ey (V/m) @ t=0
-0.9373973470457377
% es.Ez (V/m) @ t=0
4.887299638670024
% es.tEx (V/m) @ t=0
6.117600153068121
% es.tEy (V/m) @ t=0
0
% es.tEz (V/m) @ t=0
4.887299638670017
% V (V) @ t=0
0.006519832462842788
% es.normE (V/m) @ t=0.02
6.818936266491505
% es.EX (V/m) @ t=0.02
5.2838851858573515
% es.EY (V/m) @ t=0.02
-0.8096475381242021
% es.EZ (V/m) @ t=0.02
4.221251756020469
% es.tEX (V/m) @ t=0.02
5.283885185857388
% es.tEY (V/m) @ t=0.02
0
% es.tEZ (V/m) @ t=0.02
4.221251756020465
% es.Ex (V/m) @ t=0.02
5.2838851858573515
% es.Ey (V/m) @ t=0.02
-0.8096475381242021
% es.Ez (V/m) @ t=0.02
4.221251756020469
% es.tEx (V/m) @ t=0.02
5.283885185857388
% es.tEy (V/m) @ t=0.02
0
% es.tEz (V/m) @ t=0.02
4.221251756020465
% V (V) @ t=0.02
0.005631300691705242
% es.normE (V/m) @ t=0.04
6.881651990920487
% es.EX (V/m) @ t=0.04
5.3324825621357945
% es.EY (V/m) @ t=0.04
-0.8170940729717531
% es.EZ (V/m) @ t=0.04
4.26007588626072
% es.tEX (V/m) @ t=0.04
5.332482562135824
% es.tEY (V/m) @ t=0.04
0
% es.tEZ (V/m) @ t=0.04
4.260075886260725
% es.Ex (V/m) @ t=0.04
5.3324825621357945
% es.Ey (V/m) @ t=0.04
-0.8170940729717531
% es.Ez (V/m) @ t=0.04
4.26007588626072
% es.tEx (V/m) @ t=0.04
5.332482562135824
% es.tEy (V/m) @ t=0.04
0
% es.tEz (V/m) @ t=0.04
4.260075886260725
% V (V) @ t=0.04
0.0056830932691304785
% es.normE (V/m) @ t=0.06
6.9449319973852965
% es.EX (V/m) @ t=0.06
5.381517252203369
% es.EY (V/m) @ t=0.06
-0.8246076486781364
% es.EZ (V/m) @ t=0.06
4.299249244728524
% es.tEX (V/m) @ t=0.06
5.381517252203393
% es.tEY (V/m) @ t=0.06
0
% es.tEZ (V/m) @ t=0.06
4.299249244728526
% es.Ex (V/m) @ t=0.06
5.381517252203369
% es.Ey (V/m) @ t=0.06
-0.8246076486781364
% es.Ez (V/m) @ t=0.06
4.299249244728524
% es.tEx (V/m) @ t=0.06
5.381517252203393
% es.tEy (V/m) @ t=0.06
0
% es.tEz (V/m) @ t=0.06
4.299249244728526
% V (V) @ t=0.06
0.005735352028886087
% es.normE (V/m) @ t=0.08
7.009181298775809
% es.EX (V/m) @ t=0.08
5.431303031159157
% es.EY (V/m) @ t=0.08
-0.8322363122342571
% es.EZ (V/m) @ t=0.08
4.339022647125878
% es.tEX (V/m) @ t=0.08
5.431303031159182
% es.tEY (V/m) @ t=0.08
0
% es.tEZ (V/m) @ t=0.08
4.339022647125882
% es.Ex (V/m) @ t=0.08
5.431303031159157
% es.Ey (V/m) @ t=0.08
-0.8322363122342571
% es.Ez (V/m) @ t=0.08
4.339022647125878
% es.tEx (V/m) @ t=0.08
5.431303031159182
% es.tEy (V/m) @ t=0.08
0
% es.tEz (V/m) @ t=0.08
4.339022647125882
% V (V) @ t=0.08
0.005788411257240988
% es.normE (V/m) @ t=0.1
7.07409718828189
% es.EX (V/m) @ t=0.1
5.481605337039175
% es.EY (V/m) @ t=0.1
-0.8399441221790545
% es.EZ (V/m) @ t=0.1
4.379208702206749
% es.tEX (V/m) @ t=0.1
5.481605337039195
% es.tEY (V/m) @ t=0.1
0
% es.tEZ (V/m) @ t=0.1
4.379208702206754
% es.Ex (V/m) @ t=0.1
5.481605337039175
% es.Ey (V/m) @ t=0.1
-0.8399441221790545
% es.Ez (V/m) @ t=0.1
4.379208702206749
% es.tEx (V/m) @ t=0.1
5.481605337039195
% es.tEy (V/m) @ t=0.1
0
% es.tEz (V/m) @ t=0.1
4.379208702206754
% V (V) @ t=0.1
0.0058420209711509295
% es.normE (V/m) @ t=0.12
7.1390130777879754
% es.EX (V/m) @ t=0.12
5.531907642919197
% es.EY (V/m) @ t=0.12
-0.8476519321237728
% es.EZ (V/m) @ t=0.12
4.419394757287642
% es.tEX (V/m) @ t=0.12
5.531907642919222
% es.tEY (V/m) @ t=0.12
0
% es.tEZ (V/m) @ t=0.12
4.419394757287638
% es.Ex (V/m) @ t=0.12
5.531907642919197
% es.Ey (V/m) @ t=0.12
-0.8476519321237728
% es.Ez (V/m) @ t=0.12
4.419394757287642
% es.tEx (V/m) @ t=0.12
5.531907642919222
% es.tEy (V/m) @ t=0.12
0
% es.tEz (V/m) @ t=0.12
4.419394757287638
% V (V) @ t=0.12
0.005895630685060869
% es.normE (V/m) @ t=0.14
7.204603746071205
% es.EX (V/m) @ t=0.14
5.582732796534801
% es.EY (V/m) @ t=0.14
-0.8554398434871482
% es.EZ (V/m) @ t=0.14
4.459998573937913
% es.tEX (V/m) @ t=0.14
5.582732796534825
% es.tEY (V/m) @ t=0.14
0
% es.tEZ (V/m) @ t=0.14
4.459998573937915
% es.Ex (V/m) @ t=0.14
5.582732796534801
% es.Ey (V/m) @ t=0.14
-0.8554398434871482
% es.Ez (V/m) @ t=0.14
4.459998573937913
% es.tEx (V/m) @ t=0.14
5.582732796534825
% es.tEy (V/m) @ t=0.14
0
% es.tEz (V/m) @ t=0.14
4.459998573937915
% V (V) @ t=0.14
0.005949797571541935
% es.normE (V/m) @ t=0.16
7.272980118905476
% es.EX (V/m) @ t=0.16
5.635716434331981
% es.EY (V/m) @ t=0.16
-0.8635584393560798
% es.EZ (V/m) @ t=0.16
4.502327045163134
% es.tEX (V/m) @ t=0.16
5.635716434331995
% es.tEY (V/m) @ t=0.16
0
% es.tEZ (V/m) @ t=0.16
4.502327045163138
% es.Ex (V/m) @ t=0.16
5.635716434331981
% es.Ey (V/m) @ t=0.16
-0.8635584393560798
% es.Ez (V/m) @ t=0.16
4.502327045163134
% es.tEx (V/m) @ t=0.16
5.635716434331995
% es.tEy (V/m) @ t=0.16
0
% es.tEz (V/m) @ t=0.16
4.502327045163138
% V (V) @ t=0.16
0.0060062646462027275
% es.normE (V/m) @ t=0.18
7.341356491739782
% es.EX (V/m) @ t=0.18
5.688700072129187
% es.EY (V/m) @ t=0.18
-0.8716770352250363
% es.EZ (V/m) @ t=0.18
4.544655516388362
% es.tEX (V/m) @ t=0.18
5.688700072129208
% es.tEY (V/m) @ t=0.18
0
% es.tEZ (V/m) @ t=0.18
4.54465551638837
% es.Ex (V/m) @ t=0.18
5.688700072129187
% es.Ey (V/m) @ t=0.18
-0.8716770352250363
% es.Ez (V/m) @ t=0.18
4.544655516388362
% es.tEx (V/m) @ t=0.18
5.688700072129208
% es.tEy (V/m) @ t=0.18
0
% es.tEz (V/m) @ t=0.18
4.54465551638837
% V (V) @ t=0.18
0.00606273172086352
% es.normE (V/m) @ t=0.2
7.409732864574083
% es.EX (V/m) @ t=0.2
5.741683709926374
% es.EY (V/m) @ t=0.2
-0.8797956310939714
% es.EZ (V/m) @ t=0.2
4.58698398761359
% es.tEX (V/m) @ t=0.2
5.741683709926379
% es.tEY (V/m) @ t=0.2
0
% es.tEZ (V/m) @ t=0.2
4.5869839876135785
% es.Ex (V/m) @ t=0.2
5.741683709926374
% es.Ey (V/m) @ t=0.2
-0.8797956310939714
% es.Ez (V/m) @ t=0.2
4.58698398761359
% es.tEx (V/m) @ t=0.2
5.741683709926379
% es.tEy (V/m) @ t=0.2
0
% es.tEz (V/m) @ t=0.2
4.5869839876135785
% V (V) @ t=0.2
0.006119198795524313
% es.normE (V/m) @ t=0.22
7.4781092374083835
% es.EX (V/m) @ t=0.22
5.794667347723547
% es.EY (V/m) @ t=0.22
-0.8879142269628968
% es.EZ (V/m) @ t=0.22
4.629312458838818
% es.tEX (V/m) @ t=0.22
5.794667347723562
% es.tEY (V/m) @ t=0.22
0
% es.tEZ (V/m) @ t=0.22
4.629312458838816
% es.Ex (V/m) @ t=0.22
5.794667347723547
% es.Ey (V/m) @ t=0.22
-0.8879142269628968
% es.Ez (V/m) @ t=0.22
4.629312458838818
% es.tEx (V/m) @ t=0.22
5.794667347723562
% es.tEy (V/m) @ t=0.22
0
% es.tEz (V/m) @ t=0.22
4.629312458838816
% V (V) @ t=0.22
0.006175665870185104
% es.normE (V/m) @ t=0.24
7.546485610242707
% es.EX (V/m) @ t=0.24
5.847650985520742
% es.EY (V/m) @ t=0.24
-0.8960328228318231
% es.EZ (V/m) @ t=0.24
4.671640930064039
% es.tEX (V/m) @ t=0.24
5.8476509855207475
% es.tEY (V/m) @ t=0.24
0
% es.tEZ (V/m) @ t=0.24
4.671640930064041
% es.Ex (V/m) @ t=0.24
5.847650985520742
% es.Ey (V/m) @ t=0.24
-0.8960328228318231
% es.Ez (V/m) @ t=0.24
4.671640930064039
% es.tEx (V/m) @ t=0.24
5.8476509855207475
% es.tEy (V/m) @ t=0.24
0
% es.tEz (V/m) @ t=0.24
4.671640930064041
% V (V) @ t=0.24
0.006232132944845897
% es.normE (V/m) @ t=0.26
7.614861983077056
% es.EX (V/m) @ t=0.26
5.900634623317943
% es.EY (V/m) @ t=0.26
-0.9041514187007786
% es.EZ (V/m) @ t=0.26
4.713969401289271
% es.tEX (V/m) @ t=0.26
5.900634623317946
% es.tEY (V/m) @ t=0.26
0
% es.tEZ (V/m) @ t=0.26
4.7139694012892654
% es.Ex (V/m) @ t=0.26
5.900634623317943
% es.Ey (V/m) @ t=0.26
-0.9041514187007786
% es.Ez (V/m) @ t=0.26
4.713969401289271
% es.tEx (V/m) @ t=0.26
5.900634623317946
% es.tEy (V/m) @ t=0.26
0
% es.tEz (V/m) @ t=0.26
4.7139694012892654
% V (V) @ t=0.26
0.006288600019506689
% es.normE (V/m) @ t=0.28
7.686367837706518
% es.EX (V/m) @ t=0.28
5.956045798955262
% es.EY (V/m) @ t=0.28
-0.9126433087526422
% es.EZ (V/m) @ t=0.28
4.7582313978922395
% es.tEX (V/m) @ t=0.28
5.956045798955287
% es.tEY (V/m) @ t=0.28
0
% es.tEZ (V/m) @ t=0.28
4.7582313978922315
% es.Ex (V/m) @ t=0.28
5.956045798955262
% es.Ey (V/m) @ t=0.28
-0.9126433087526422
% es.Ez (V/m) @ t=0.28
4.7582313978922395
% es.tEx (V/m) @ t=0.28
5.956045798955287
% es.tEy (V/m) @ t=0.28
0
% es.tEz (V/m) @ t=0.28
4.7582313978922315
% V (V) @ t=0.28
0.00634765907725945
% es.normE (V/m) @ t=0.3
7.762568995930922
% es.EX (V/m) @ t=0.3
6.015099119793763
% es.EY (V/m) @ t=0.3
-0.9216952690100451
% es.EZ (V/m) @ t=0.3
4.805394350377129
% es.tEX (V/m) @ t=0.3
6.015099119793801
% es.tEY (V/m) @ t=0.3
0
% es.tEZ (V/m) @ t=0.3
4.805394350377129
% es.Ex (V/m) @ t=0.3
6.015099119793763
% es.Ey (V/m) @ t=0.3
-0.9216952690100451
% es.Ez (V/m) @ t=0.3
4.805394350377129
% es.tEx (V/m) @ t=0.3
6.015099119793801
% es.tEy (V/m) @ t=0.3
0
% es.tEz (V/m) @ t=0.3
4.805394350377129
% V (V) @ t=0.3
0.006410607004888479
% es.normE (V/m) @ t=0.32
7.838770154181361
% es.EX (V/m) @ t=0.32
6.074152440632245
% es.EY (V/m) @ t=0.32
-0.9307472292674506
% es.EZ (V/m) @ t=0.32
4.852557302862011
% es.tEX (V/m) @ t=0.32
6.074152440632259
% es.tEY (V/m) @ t=0.32
0
% es.tEZ (V/m) @ t=0.32
4.85255730286201
% es.Ex (V/m) @ t=0.32
6.074152440632245
% es.Ey (V/m) @ t=0.32
-0.9307472292674506
% es.Ez (V/m) @ t=0.32
4.852557302862011
% es.tEx (V/m) @ t=0.32
6.074152440632259
% es.tEy (V/m) @ t=0.32
0
% es.tEz (V/m) @ t=0.32
4.85255730286201
% V (V) @ t=0.32
0.00647355493251751
% es.normE (V/m) @ t=0.34
7.914971312457119
% es.EX (V/m) @ t=0.34
6.133205761470743
% es.EY (V/m) @ t=0.34
-0.9397991895248445
% es.EZ (V/m) @ t=0.34
4.899720255346908
% es.tEX (V/m) @ t=0.34
6.133205761470773
% es.tEY (V/m) @ t=0.34
0
% es.tEZ (V/m) @ t=0.34
4.8997202553469075
% es.Ex (V/m) @ t=0.34
6.133205761470743
% es.Ey (V/m) @ t=0.34
-0.9397991895248445
% es.Ez (V/m) @ t=0.34
4.899720255346908
% es.tEx (V/m) @ t=0.34
6.133205761470773
% es.tEy (V/m) @ t=0.34
0
% es.tEz (V/m) @ t=0.34
4.8997202553469075
% V (V) @ t=0.34
0.00653650286014654
% es.normE (V/m) @ t=0.36
7.991172470757451
% es.EX (V/m) @ t=0.36
6.192259082309231
% es.EY (V/m) @ t=0.36
-0.9488511497822509
% es.EZ (V/m) @ t=0.36
4.946883207831808
% es.tEX (V/m) @ t=0.36
6.192259082309258
% es.tEY (V/m) @ t=0.36
0
% es.tEZ (V/m) @ t=0.36
4.946883207831812
% es.Ex (V/m) @ t=0.36
6.192259082309231
% es.Ey (V/m) @ t=0.36
-0.9488511497822509
% es.Ez (V/m) @ t=0.36
4.946883207831808
% es.tEx (V/m) @ t=0.36
6.192259082309258
% es.tEy (V/m) @ t=0.36
0
% es.tEz (V/m) @ t=0.36
4.946883207831812
% V (V) @ t=0.36
0.00659945078777557
% es.normE (V/m) @ t=0.38
8.06737362908163
% es.EX (V/m) @ t=0.38
6.251312403147693
% es.EY (V/m) @ t=0.38
-0.957903110039636
% es.EZ (V/m) @ t=0.38
4.994046160316694
% es.tEX (V/m) @ t=0.38
6.251312403147715
% es.tEY (V/m) @ t=0.38
0
% es.tEZ (V/m) @ t=0.38
4.994046160316694
% es.Ex (V/m) @ t=0.38
6.251312403147693
% es.Ey (V/m) @ t=0.38
-0.957903110039636
% es.Ez (V/m) @ t=0.38
4.994046160316694
% es.tEx (V/m) @ t=0.38
6.251312403147715
% es.tEy (V/m) @ t=0.38
0
% es.tEz (V/m) @ t=0.38
4.994046160316694
% V (V) @ t=0.38
0.0066623987154046
% es.normE (V/m) @ t=0.4
8.143574787429053
% es.EX (V/m) @ t=0.4
6.310365723986194
% es.EY (V/m) @ t=0.4
-0.9669550702970326
% es.EZ (V/m) @ t=0.4
5.041209112801587
% es.tEX (V/m) @ t=0.4
6.310365723986228
% es.tEY (V/m) @ t=0.4
0
% es.tEZ (V/m) @ t=0.4
5.041209112801591
% es.Ex (V/m) @ t=0.4
6.310365723986194
% es.Ey (V/m) @ t=0.4
-0.9669550702970326
% es.Ez (V/m) @ t=0.4
5.041209112801587
% es.tEx (V/m) @ t=0.4
6.310365723986228
% es.tEy (V/m) @ t=0.4
0
% es.tEz (V/m) @ t=0.4
5.041209112801591
% V (V) @ t=0.4
0.006725346643033631
% es.normE (V/m) @ t=0.42
8.219775945799011
% es.EX (V/m) @ t=0.42
6.3694190448246655
% es.EY (V/m) @ t=0.42
-0.9760070305544506
% es.EZ (V/m) @ t=0.42
5.088372065286469
% es.tEX (V/m) @ t=0.42
6.369419044824671
% es.tEY (V/m) @ t=0.42
0
% es.tEZ (V/m) @ t=0.42
5.088372065286481
% es.Ex (V/m) @ t=0.42
6.3694190448246655
% es.Ey (V/m) @ t=0.42
-0.9760070305544506
% es.Ez (V/m) @ t=0.42
5.088372065286469
% es.tEx (V/m) @ t=0.42
6.369419044824671
% es.tEy (V/m) @ t=0.42
0
% es.tEz (V/m) @ t=0.42
5.088372065286481
% V (V) @ t=0.42
0.0067882945706626615
% es.normE (V/m) @ t=0.44
8.295977104190948
% es.EX (V/m) @ t=0.44
6.428472365663167
% es.EY (V/m) @ t=0.44
-0.9850589908118286
% es.EZ (V/m) @ t=0.44
5.135535017771376
% es.tEX (V/m) @ t=0.44
6.4284723656631995
% es.tEY (V/m) @ t=0.44
0
% es.tEZ (V/m) @ t=0.44
5.13553501777137
% es.Ex (V/m) @ t=0.44
6.428472365663167
% es.Ey (V/m) @ t=0.44
-0.9850589908118286
% es.Ez (V/m) @ t=0.44
5.135535017771376
% es.tEx (V/m) @ t=0.44
6.4284723656631995
% es.tEy (V/m) @ t=0.44
0
% es.tEz (V/m) @ t=0.44
5.13553501777137
% V (V) @ t=0.44
0.006851242498291691
% es.normE (V/m) @ t=0.46
8.372178262604203
% es.EX (V/m) @ t=0.46
6.487525686501645
% es.EY (V/m) @ t=0.46
-0.9941109510692527
% es.EZ (V/m) @ t=0.46
5.182697970256266
% es.tEX (V/m) @ t=0.46
6.487525686501671
% es.tEY (V/m) @ t=0.46
0
% es.tEZ (V/m) @ t=0.46
5.182697970256267
% es.Ex (V/m) @ t=0.46
6.487525686501645
% es.Ey (V/m) @ t=0.46
-0.9941109510692527
% es.Ez (V/m) @ t=0.46
5.182697970256266
% es.tEx (V/m) @ t=0.46
6.487525686501671
% es.tEy (V/m) @ t=0.46
0
% es.tEz (V/m) @ t=0.46
5.182697970256267
% V (V) @ t=0.46
0.006914190425920721
% es.normE (V/m) @ t=0.48
8.44837942103823
% es.EX (V/m) @ t=0.48
6.5465790073401315
% es.EY (V/m) @ t=0.48
-1.0031629113266565
% es.EZ (V/m) @ t=0.48
5.229860922741159
% es.tEX (V/m) @ t=0.48
6.546579007340142
% es.tEY (V/m) @ t=0.48
0
% es.tEZ (V/m) @ t=0.48
5.229860922741158
% es.Ex (V/m) @ t=0.48
6.5465790073401315
% es.Ey (V/m) @ t=0.48
-1.0031629113266565
% es.Ez (V/m) @ t=0.48
5.229860922741159
% es.tEx (V/m) @ t=0.48
6.546579007340142
% es.tEy (V/m) @ t=0.48
0
% es.tEz (V/m) @ t=0.48
5.229860922741158
% V (V) @ t=0.48
0.006977138353549751
% es.normE (V/m) @ t=0.5
8.524580579492469
% es.EX (V/m) @ t=0.5
6.605632328178621
% es.EY (V/m) @ t=0.5
-1.012214871584062
% es.EZ (V/m) @ t=0.5
5.277023875226056
% es.tEX (V/m) @ t=0.5
6.605632328178656
% es.tEY (V/m) @ t=0.5
0
% es.tEZ (V/m) @ t=0.5
5.277023875226053
% es.Ex (V/m) @ t=0.5
6.605632328178621
% es.Ey (V/m) @ t=0.5
-1.012214871584062
% es.Ez (V/m) @ t=0.5
5.277023875226056
% es.tEx (V/m) @ t=0.5
6.605632328178656
% es.tEy (V/m) @ t=0.5
0
% es.tEz (V/m) @ t=0.5
5.277023875226053
% V (V) @ t=0.5
0.007040086281178783
% es.normE (V/m) @ t=0.52
8.600781737966415
% es.EX (V/m) @ t=0.52
6.664685649017157
% es.EY (V/m) @ t=0.52
-1.021266831841455
% es.EZ (V/m) @ t=0.52
5.324186827710953
% es.tEX (V/m) @ t=0.52
6.664685649017169
% es.tEY (V/m) @ t=0.52
0
% es.tEZ (V/m) @ t=0.52
5.3241868277109505
% es.Ex (V/m) @ t=0.52
6.664685649017157
% es.Ey (V/m) @ t=0.52
-1.021266831841455
% es.Ez (V/m) @ t=0.52
5.324186827710953
% es.tEx (V/m) @ t=0.52
6.664685649017169
% es.tEy (V/m) @ t=0.52
0
% es.tEz (V/m) @ t=0.52
5.3241868277109505
% V (V) @ t=0.52
0.007103034208807812
% es.normE (V/m) @ t=0.54
8.676982896459448
% es.EX (V/m) @ t=0.54
6.723738969855618
% es.EY (V/m) @ t=0.54
-1.0303187920988695
% es.EZ (V/m) @ t=0.54
5.371349780195835
% es.tEX (V/m) @ t=0.54
6.723738969855612
% es.tEY (V/m) @ t=0.54
0
% es.tEZ (V/m) @ t=0.54
5.371349780195833
% es.Ex (V/m) @ t=0.54
6.723738969855618
% es.Ey (V/m) @ t=0.54
-1.0303187920988695
% es.Ez (V/m) @ t=0.54
5.371349780195835
% es.tEx (V/m) @ t=0.54
6.723738969855612
% es.tEy (V/m) @ t=0.54
0
% es.tEz (V/m) @ t=0.54
5.371349780195833
% V (V) @ t=0.54
0.007165982136436842
% es.normE (V/m) @ t=0.56
8.760287860674175
% es.EX (V/m) @ t=0.56
6.788290066915031
% es.EY (V/m) @ t=0.56
-1.0402096219230863
% es.EZ (V/m) @ t=0.56
5.422920465677578
% es.tEX (V/m) @ t=0.56
6.788290066915065
% es.tEY (V/m) @ t=0.56
0
% es.tEZ (V/m) @ t=0.56
5.422920465677569
% es.Ex (V/m) @ t=0.56
6.788290066915031
% es.Ey (V/m) @ t=0.56
-1.0402096219230863
% es.Ez (V/m) @ t=0.56
5.422920465677578
% es.tEx (V/m) @ t=0.56
6.788290066915065
% es.tEy (V/m) @ t=0.56
0
% es.tEz (V/m) @ t=0.56
5.422920465677569
% V (V) @ t=0.56
0.007234776343785047
% es.normE (V/m) @ t=0.58
8.845260847970685
% es.EX (V/m) @ t=0.58
6.8541320801370995
% es.EY (V/m) @ t=0.58
-1.0502974241664784
% es.EZ (V/m) @ t=0.58
5.4755261175780054
% es.tEX (V/m) @ t=0.58
6.854132080137136
% es.tEY (V/m) @ t=0.58
0
% es.tEZ (V/m) @ t=0.58
5.47552611757801
% es.Ex (V/m) @ t=0.58
6.8541320801370995
% es.Ey (V/m) @ t=0.58
-1.0502974241664784
% es.Ez (V/m) @ t=0.58
5.4755261175780054
% es.tEx (V/m) @ t=0.58
6.854132080137136
% es.tEy (V/m) @ t=0.58
0
% es.tEz (V/m) @ t=0.58
5.47552611757801
% V (V) @ t=0.58
0.007304943298345469
% es.normE (V/m) @ t=0.6
8.930233835272485
% es.EX (V/m) @ t=0.6
6.919974093359161
% es.EY (V/m) @ t=0.6
-1.0603852264098599
% es.EZ (V/m) @ t=0.6
5.528131769478437
% es.tEX (V/m) @ t=0.6
6.919974093359179
% es.tEY (V/m) @ t=0.6
0
% es.tEZ (V/m) @ t=0.6
5.528131769478436
% es.Ex (V/m) @ t=0.6
6.919974093359161
% es.Ey (V/m) @ t=0.6
-1.0603852264098599
% es.Ez (V/m) @ t=0.6
5.528131769478437
% es.tEx (V/m) @ t=0.6
6.919974093359179
% es.tEy (V/m) @ t=0.6
0
% es.tEz (V/m) @ t=0.6
5.528131769478436
% V (V) @ t=0.6
0.0073751102529058905
% es.normE (V/m) @ t=0.62
9.015206822579431
% es.EX (V/m) @ t=0.62
6.985816106581224
% es.EY (V/m) @ t=0.62
-1.0704730286532307
% es.EZ (V/m) @ t=0.62
5.580737421378867
% es.tEX (V/m) @ t=0.62
6.98581610658125
% es.tEY (V/m) @ t=0.62
0
% es.tEZ (V/m) @ t=0.62
5.58073742137887
% es.Ex (V/m) @ t=0.62
6.985816106581224
% es.Ey (V/m) @ t=0.62
-1.0704730286532307
% es.Ez (V/m) @ t=0.62
5.580737421378867
% es.tEx (V/m) @ t=0.62
6.98581610658125
% es.tEy (V/m) @ t=0.62
0
% es.tEz (V/m) @ t=0.62
5.58073742137887
% V (V) @ t=0.62
0.00744527720746631
% es.normE (V/m) @ t=0.64
9.100179809891387
% es.EX (V/m) @ t=0.64
7.051658119803292
% es.EY (V/m) @ t=0.64
-1.080560830896621
% es.EZ (V/m) @ t=0.64
5.633343073279299
% es.tEX (V/m) @ t=0.64
7.051658119803321
% es.tEY (V/m) @ t=0.64
0
% es.tEZ (V/m) @ t=0.64
5.633343073279296
% es.Ex (V/m) @ t=0.64
7.051658119803292
% es.Ey (V/m) @ t=0.64
-1.080560830896621
% es.Ez (V/m) @ t=0.64
5.633343073279299
% es.tEx (V/m) @ t=0.64
7.051658119803321
% es.tEy (V/m) @ t=0.64
0
% es.tEz (V/m) @ t=0.64
5.633343073279296
% V (V) @ t=0.64
0.007515444162026732
% es.normE (V/m) @ t=0.66
9.185152797208191
% es.EX (V/m) @ t=0.66
7.117500133025333
% es.EY (V/m) @ t=0.66
-1.0906486331400274
% es.EZ (V/m) @ t=0.66
5.685948725179747
% es.tEX (V/m) @ t=0.66
7.117500133025364
% es.tEY (V/m) @ t=0.66
0
% es.tEZ (V/m) @ t=0.66
5.6859487251797365
% es.Ex (V/m) @ t=0.66
7.117500133025333
% es.Ey (V/m) @ t=0.66
-1.0906486331400274
% es.Ez (V/m) @ t=0.66
5.685948725179747
% es.tEx (V/m) @ t=0.66
7.117500133025364
% es.tEy (V/m) @ t=0.66
0
% es.tEz (V/m) @ t=0.66
5.6859487251797365
% V (V) @ t=0.66
0.007585611116587155
% es.normE (V/m) @ t=0.68
9.27012578452971
% es.EX (V/m) @ t=0.68
7.183342146247373
% es.EY (V/m) @ t=0.68
-1.1007364353834106
% es.EZ (V/m) @ t=0.68
5.738554377080174
% es.tEX (V/m) @ t=0.68
7.183342146247407
% es.tEY (V/m) @ t=0.68
0
% es.tEZ (V/m) @ t=0.68
5.73855437708017
% es.Ex (V/m) @ t=0.68
7.183342146247373
% es.Ey (V/m) @ t=0.68
-1.1007364353834106
% es.Ez (V/m) @ t=0.68
5.738554377080174
% es.tEx (V/m) @ t=0.68
7.183342146247407
% es.tEy (V/m) @ t=0.68
0
% es.tEz (V/m) @ t=0.68
5.73855437708017
% V (V) @ t=0.68
0.007655778071147576
% es.normE (V/m) @ t=0.7
9.355098771855825
% es.EX (V/m) @ t=0.7
7.249184159469414
% es.EY (V/m) @ t=0.7
-1.1108242376267992
% es.EZ (V/m) @ t=0.7
5.791160028980595
% es.tEX (V/m) @ t=0.7
7.249184159469449
% es.tEY (V/m) @ t=0.7
0
% es.tEZ (V/m) @ t=0.7
5.791160028980582
% es.Ex (V/m) @ t=0.7
7.249184159469414
% es.Ey (V/m) @ t=0.7
-1.1108242376267992
% es.Ez (V/m) @ t=0.7
5.791160028980595
% es.tEx (V/m) @ t=0.7
7.249184159469449
% es.tEy (V/m) @ t=0.7
0
% es.tEz (V/m) @ t=0.7
5.791160028980582
% V (V) @ t=0.7
0.007725945025707996
% es.normE (V/m) @ t=0.72
9.44007175918647
% es.EX (V/m) @ t=0.72
7.315026172691511
% es.EY (V/m) @ t=0.72
-1.1209120398702055
% es.EZ (V/m) @ t=0.72
5.843765680881029
% es.tEX (V/m) @ t=0.72
7.315026172691548
% es.tEY (V/m) @ t=0.72
0
% es.tEZ (V/m) @ t=0.72
5.84376568088103
% es.Ex (V/m) @ t=0.72
7.315026172691511
% es.Ey (V/m) @ t=0.72
-1.1209120398702055
% es.Ez (V/m) @ t=0.72
5.843765680881029
% es.tEx (V/m) @ t=0.72
7.315026172691548
% es.tEy (V/m) @ t=0.72
0
% es.tEz (V/m) @ t=0.72
5.84376568088103
% V (V) @ t=0.72
0.007796111980268417
% es.normE (V/m) @ t=0.74
9.525044746521424
% es.EX (V/m) @ t=0.74
7.380868185913567
% es.EY (V/m) @ t=0.74
-1.1309998421135532
% es.EZ (V/m) @ t=0.74
5.896371332781452
% es.tEX (V/m) @ t=0.74
7.380868185913592
% es.tEY (V/m) @ t=0.74
0
% es.tEZ (V/m) @ t=0.74
5.896371332781455
% es.Ex (V/m) @ t=0.74
7.380868185913567
% es.Ey (V/m) @ t=0.74
-1.1309998421135532
% es.Ez (V/m) @ t=0.74
5.896371332781452
% es.tEx (V/m) @ t=0.74
7.380868185913592
% es.tEy (V/m) @ t=0.74
0
% es.tEz (V/m) @ t=0.74
5.896371332781455
% V (V) @ t=0.74
0.007866278934828838
% es.normE (V/m) @ t=0.76
9.610017733860616
% es.EX (V/m) @ t=0.76
7.4467101991356
% es.EY (V/m) @ t=0.76
-1.1410876443569542
% es.EZ (V/m) @ t=0.76
5.948976984681892
% es.tEX (V/m) @ t=0.76
7.446710199135634
% es.tEY (V/m) @ t=0.76
0
% es.tEZ (V/m) @ t=0.76
5.948976984681882
% es.Ex (V/m) @ t=0.76
7.4467101991356
% es.Ey (V/m) @ t=0.76
-1.1410876443569542
% es.Ez (V/m) @ t=0.76
5.948976984681892
% es.tEx (V/m) @ t=0.76
7.446710199135634
% es.tEy (V/m) @ t=0.76
0
% es.tEz (V/m) @ t=0.76
5.948976984681882
% V (V) @ t=0.76
0.00793644588938926
% es.normE (V/m) @ t=0.78
9.694990721203926
% es.EX (V/m) @ t=0.78
7.51255221235764
% es.EY (V/m) @ t=0.78
-1.151175446600348
% es.EZ (V/m) @ t=0.78
6.001582636582304
% es.tEX (V/m) @ t=0.78
7.512552212357676
% es.tEY (V/m) @ t=0.78
0
% es.tEZ (V/m) @ t=0.78
6.001582636582323
% es.Ex (V/m) @ t=0.78
7.51255221235764
% es.Ey (V/m) @ t=0.78
-1.151175446600348
% es.Ez (V/m) @ t=0.78
6.001582636582304
% es.tEx (V/m) @ t=0.78
7.512552212357676
% es.tEy (V/m) @ t=0.78
0
% es.tEz (V/m) @ t=0.78
6.001582636582323
% V (V) @ t=0.78
0.008006612843949679
% es.normE (V/m) @ t=0.8
9.779963708551286
% es.EX (V/m) @ t=0.8
7.578394225579688
% es.EY (V/m) @ t=0.8
-1.1612632488437455
% es.EZ (V/m) @ t=0.8
6.054188288482757
% es.tEX (V/m) @ t=0.8
7.57839422557972
% es.tEY (V/m) @ t=0.8
0
% es.tEZ (V/m) @ t=0.8
6.054188288482749
% es.Ex (V/m) @ t=0.8
7.578394225579688
% es.Ey (V/m) @ t=0.8
-1.1612632488437455
% es.Ez (V/m) @ t=0.8
6.054188288482757
% es.tEx (V/m) @ t=0.8
7.57839422557972
% es.tEy (V/m) @ t=0.8
0
% es.tEz (V/m) @ t=0.8
6.054188288482749
% V (V) @ t=0.8
0.008076779798510103
% es.normE (V/m) @ t=0.82
9.867141211056396
% es.EX (V/m) @ t=0.82
7.645944968205192
% es.EY (V/m) @ t=0.82
-1.1716131308872697
% es.EZ (V/m) @ t=0.82
6.108157923511746
% es.tEX (V/m) @ t=0.82
7.645944968205212
% es.tEY (V/m) @ t=0.82
0
% es.tEZ (V/m) @ t=0.82
6.108157923511736
% es.Ex (V/m) @ t=0.82
7.645944968205192
% es.Ey (V/m) @ t=0.82
-1.1716131308872697
% es.Ez (V/m) @ t=0.82
6.108157923511746
% es.tEx (V/m) @ t=0.82
7.645944968205212
% es.tEy (V/m) @ t=0.82
0
% es.tEz (V/m) @ t=0.82
6.108157923511736
% V (V) @ t=0.82
0.008148768751503364
% es.normE (V/m) @ t=0.84
9.96214650467503
% es.EX (V/m) @ t=0.84
7.719563066191607
% es.EY (V/m) @ t=0.84
-1.1828936057311523
% es.EZ (V/m) @ t=0.84
6.166970789031637
% es.tEX (V/m) @ t=0.84
7.719563066191631
% es.tEY (V/m) @ t=0.84
0
% es.tEZ (V/m) @ t=0.84
6.166970789031628
% es.Ex (V/m) @ t=0.84
7.719563066191607
% es.Ey (V/m) @ t=0.84
-1.1828936057311523
% es.Ez (V/m) @ t=0.84
6.166970789031637
% es.tEx (V/m) @ t=0.84
7.719563066191631
% es.tEy (V/m) @ t=0.84
0
% es.tEz (V/m) @ t=0.84
6.166970789031628
% V (V) @ t=0.84
0.008227227255460698
% es.normE (V/m) @ t=0.86
10.057151798293798
% es.EX (V/m) @ t=0.86
7.793181164178037
% es.EY (V/m) @ t=0.86
-1.1941740805750083
% es.EZ (V/m) @ t=0.86
6.22578365455151
% es.tEX (V/m) @ t=0.86
7.793181164178094
% es.tEY (V/m) @ t=0.86
0
% es.tEZ (V/m) @ t=0.86
6.225783654551519
% es.Ex (V/m) @ t=0.86
7.793181164178037
% es.Ey (V/m) @ t=0.86
-1.1941740805750083
% es.Ez (V/m) @ t=0.86
6.22578365455151
% es.tEx (V/m) @ t=0.86
7.793181164178094
% es.tEy (V/m) @ t=0.86
0
% es.tEz (V/m) @ t=0.86
6.225783654551519
% V (V) @ t=0.86
0.008305685759418032
% es.normE (V/m) @ t=0.88
10.152157091912727
% es.EX (V/m) @ t=0.88
7.866799262164474
% es.EY (V/m) @ t=0.88
-1.2054545554188874
% es.EZ (V/m) @ t=0.88
6.284596520071403
% es.tEX (V/m) @ t=0.88
7.866799262164498
% es.tEY (V/m) @ t=0.88
0
% es.tEZ (V/m) @ t=0.88
6.284596520071395
% es.Ex (V/m) @ t=0.88
7.866799262164474
% es.Ey (V/m) @ t=0.88
-1.2054545554188874
% es.Ez (V/m) @ t=0.88
6.284596520071403
% es.tEx (V/m) @ t=0.88
7.866799262164498
% es.tEy (V/m) @ t=0.88
0
% es.tEz (V/m) @ t=0.88
6.284596520071395
% V (V) @ t=0.88
0.008384144263375365
% es.normE (V/m) @ t=0.9
10.247162385531771
% es.EX (V/m) @ t=0.9
7.940417360150903
% es.EY (V/m) @ t=0.9
-1.2167350302627593
% es.EZ (V/m) @ t=0.9
6.343409385591292
% es.tEX (V/m) @ t=0.9
7.940417360150931
% es.tEY (V/m) @ t=0.9
0
% es.tEZ (V/m) @ t=0.9
6.343409385591293
% es.Ex (V/m) @ t=0.9
7.940417360150903
% es.Ey (V/m) @ t=0.9
-1.2167350302627593
% es.Ez (V/m) @ t=0.9
6.343409385591292
% es.tEx (V/m) @ t=0.9
7.940417360150931
% es.tEy (V/m) @ t=0.9
0
% es.tEz (V/m) @ t=0.9
6.343409385591293
% V (V) @ t=0.9
0.0084626027673327
% es.normE (V/m) @ t=0.92
10.34216767915095
% es.EX (V/m) @ t=0.92
8.01403545813734
% es.EY (V/m) @ t=0.92
-1.228015505106617
% es.EZ (V/m) @ t=0.92
6.402222251111182
% es.tEX (V/m) @ t=0.92
8.01403545813738
% es.tEY (V/m) @ t=0.92
0
% es.tEZ (V/m) @ t=0.92
6.402222251111178
% es.Ex (V/m) @ t=0.92
8.01403545813734
% es.Ey (V/m) @ t=0.92
-1.228015505106617
% es.Ez (V/m) @ t=0.92
6.402222251111182
% es.tEx (V/m) @ t=0.92
8.01403545813738
% es.tEy (V/m) @ t=0.92
0
% es.tEz (V/m) @ t=0.92
6.402222251111178
% V (V) @ t=0.92
0.008541061271290035
% es.normE (V/m) @ t=0.94
10.437172972770284
% es.EX (V/m) @ t=0.94
8.087653556123819
% es.EY (V/m) @ t=0.94
-1.2392959799504695
% es.EZ (V/m) @ t=0.94
6.461035116631072
% es.tEX (V/m) @ t=0.94
8.087653556123842
% es.tEY (V/m) @ t=0.94
0
% es.tEZ (V/m) @ t=0.94
6.461035116631061
% es.Ex (V/m) @ t=0.94
8.087653556123819
% es.Ey (V/m) @ t=0.94
-1.2392959799504695
% es.Ez (V/m) @ t=0.94
6.461035116631072
% es.tEx (V/m) @ t=0.94
8.087653556123842
% es.tEy (V/m) @ t=0.94
0
% es.tEz (V/m) @ t=0.94
6.461035116631061
% V (V) @ t=0.94
0.008619519775247367
% es.normE (V/m) @ t=0.96
10.53217826638967
% es.EX (V/m) @ t=0.96
8.16127165411022
% es.EY (V/m) @ t=0.96
-1.2505764547943095
% es.EZ (V/m) @ t=0.96
6.519847982150949
% es.tEX (V/m) @ t=0.96
8.161271654110232
% es.tEY (V/m) @ t=0.96
0
% es.tEZ (V/m) @ t=0.96
6.519847982150961
% es.Ex (V/m) @ t=0.96
8.16127165411022
% es.Ey (V/m) @ t=0.96
-1.2505764547943095
% es.Ez (V/m) @ t=0.96
6.519847982150949
% es.tEx (V/m) @ t=0.96
8.161271654110232
% es.tEy (V/m) @ t=0.96
0
% es.tEz (V/m) @ t=0.96
6.519847982150961
% V (V) @ t=0.96
0.008697978279204701
% es.normE (V/m) @ t=0.98
10.627183560009229
% es.EX (V/m) @ t=0.98
8.234889752096672
% es.EY (V/m) @ t=0.98
-1.26185692963824
% es.EZ (V/m) @ t=0.98
6.578660847670843
% es.tEX (V/m) @ t=0.98
8.23488975209671
% es.tEY (V/m) @ t=0.98
0
% es.tEZ (V/m) @ t=0.98
6.578660847670837
% es.Ex (V/m) @ t=0.98
8.234889752096672
% es.Ey (V/m) @ t=0.98
-1.26185692963824
% es.Ez (V/m) @ t=0.98
6.578660847670843
% es.tEx (V/m) @ t=0.98
8.23488975209671
% es.tEy (V/m) @ t=0.98
0
% es.tEz (V/m) @ t=0.98
6.578660847670837
% V (V) @ t=0.98
0.008776436783162036
% es.normE (V/m) @ t=1
10.722188853628886
% es.EX (V/m) @ t=1
8.308507850083116
% es.EY (V/m) @ t=1
-1.2731374044820605
% es.EZ (V/m) @ t=1
6.637473713190734
% es.tEX (V/m) @ t=1
8.308507850083142
% es.tEY (V/m) @ t=1
0
% es.tEZ (V/m) @ t=1
6.63747371319075
% es.Ex (V/m) @ t=1
8.308507850083116
% es.Ey (V/m) @ t=1
-1.2731374044820605
% es.Ez (V/m) @ t=1
6.637473713190734
% es.tEx (V/m) @ t=1
8.308507850083142
% es.tEy (V/m) @ t=1
0
% es.tEz (V/m) @ t=1
6.63747371319075
% V (V) @ t=1
0.00885489528711937
% es.normE (V/m) @ t=1.02
10.817194147248642
% es.EX (V/m) @ t=1.02
8.382125948069545
% es.EY (V/m) @ t=1.02
-1.2844178793259502
% es.EZ (V/m) @ t=1.02
6.696286578710617
% es.tEX (V/m) @ t=1.02
8.382125948069561
% es.tEY (V/m) @ t=1.02
0
% es.tEZ (V/m) @ t=1.02
6.696286578710605
% es.Ex (V/m) @ t=1.02
8.382125948069545
% es.Ey (V/m) @ t=1.02
-1.2844178793259502
% es.Ez (V/m) @ t=1.02
6.696286578710617
% es.tEx (V/m) @ t=1.02
8.382125948069561
% es.tEy (V/m) @ t=1.02
0
% es.tEz (V/m) @ t=1.02
6.696286578710605
% V (V) @ t=1.02
0.008933353791076704
% es.normE (V/m) @ t=1.04
10.912199440868552
% es.EX (V/m) @ t=1.04
8.455744046056031
% es.EY (V/m) @ t=1.04
-1.2956983541697955
% es.EZ (V/m) @ t=1.04
6.755099444230508
% es.tEX (V/m) @ t=1.04
8.455744046056052
% es.tEY (V/m) @ t=1.04
0
% es.tEZ (V/m) @ t=1.04
6.7550994442305035
% es.Ex (V/m) @ t=1.04
8.455744046056031
% es.Ey (V/m) @ t=1.04
-1.2956983541697955
% es.Ez (V/m) @ t=1.04
6.755099444230508
% es.tEx (V/m) @ t=1.04
8.455744046056052
% es.tEy (V/m) @ t=1.04
0
% es.tEz (V/m) @ t=1.04
6.7550994442305035
% V (V) @ t=1.04
0.009011812295034036
% es.normE (V/m) @ t=1.06
11.007204734488527
% es.EX (V/m) @ t=1.06
8.529362144042477
% es.EY (V/m) @ t=1.06
-1.3069788290136408
% es.EZ (V/m) @ t=1.06
6.813912309750387
% es.tEX (V/m) @ t=1.06
8.5293621440425
% es.tEY (V/m) @ t=1.06
0