% Model:              1 neuron.mph
% Version:            COMSOL 6.1.0.252
% Date:               Mar 18 2023, 11:58
% Dimension:          0
% Nodes:              14017
% Expressions:        14017
% Description:        Electric field norm, Electric field, X component, Electric field, Y component, Electric field, Z component, Tangential electric field, X component, Tangential electric field, Y component, Tangential electric field, Z component, Electric field, x component, Electric field, y component, Electric field, z component, Tangential electric field, x component, Tangential electric field, y component, Tangential electric field, z component, Electric potential
% Length unit:        mm
% x
1.66
% y
12.2
% z
2
% es.normE (V/m) @ t=0
1.4265922520046685
% es.EX (V/m) @ t=0
-0.4255813201806543
% es.EY (V/m) @ t=0
0.031789699912926274
% es.EZ (V/m) @ t=0
-1.3589718308355137
% es.tEX (V/m) @ t=0
-0.4255813201806582
% es.tEY (V/m) @ t=0
0
% es.tEZ (V/m) @ t=0
-1.3589718308355332
% es.Ex (V/m) @ t=0
-0.4255813201806543
% es.Ey (V/m) @ t=0
0.031789699912926274
% es.Ez (V/m) @ t=0
-1.3589718308355137
% es.tEx (V/m) @ t=0
-0.4255813201806582
% es.tEy (V/m) @ t=0
0
% es.tEz (V/m) @ t=0
-1.3589718308355332
% V (V) @ t=0
0.007170636800419495
% es.normE (V/m) @ t=0.02
1.2321626075308554
% es.EX (V/m) @ t=0.02
-0.367579025265119
% es.EY (V/m) @ t=0.02
0.027457095813310267
% es.EZ (V/m) @ t=0.02
-1.173758144395073
% es.tEX (V/m) @ t=0.02
-0.36757902526512076
% es.tEY (V/m) @ t=0.02
0
% es.tEZ (V/m) @ t=0.02
-1.173758144395078
% es.Ex (V/m) @ t=0.02
-0.367579025265119
% es.Ey (V/m) @ t=0.02
0.027457095813310267
% es.Ez (V/m) @ t=0.02
-1.173758144395073
% es.tEx (V/m) @ t=0.02
-0.36757902526512076
% es.tEy (V/m) @ t=0.02
0
% es.tEz (V/m) @ t=0.02
-1.173758144395078
% V (V) @ t=0.02
0.006193353784616195
% es.normE (V/m) @ t=0.04
1.2434956153011316
% es.EX (V/m) @ t=0.04
-0.3709598906908536
% es.EY (V/m) @ t=0.04
0.027709636758524787
% es.EZ (V/m) @ t=0.04
-1.1845539680018864
% es.tEX (V/m) @ t=0.04
-0.37095989069085533
% es.tEY (V/m) @ t=0.04
0
% es.tEZ (V/m) @ t=0.04
-1.184553968001894
% es.Ex (V/m) @ t=0.04
-0.3709598906908536
% es.Ey (V/m) @ t=0.04
0.027709636758524787
% es.Ez (V/m) @ t=0.04
-1.1845539680018864
% es.tEx (V/m) @ t=0.04
-0.37095989069085533
% es.tEy (V/m) @ t=0.04
0
% es.tEz (V/m) @ t=0.04
-1.184553968001894
% V (V) @ t=0.04
0.006250318121816766
% es.normE (V/m) @ t=0.06
1.2549341135872907
% es.EX (V/m) @ t=0.06
-0.3743722256430688
% es.EY (V/m) @ t=0.06
0.027964527380534017
% es.EZ (V/m) @ t=0.06
-1.1954502820845456
% es.tEX (V/m) @ t=0.06
-0.3743722256430715
% es.tEY (V/m) @ t=0.06
0
% es.tEZ (V/m) @ t=0.06
-1.1954502820845523
% es.Ex (V/m) @ t=0.06
-0.3743722256430688
% es.Ey (V/m) @ t=0.06
0.027964527380534017
% es.Ez (V/m) @ t=0.06
-1.1954502820845456
% es.tEx (V/m) @ t=0.06
-0.3743722256430715
% es.tEy (V/m) @ t=0.06
0
% es.tEz (V/m) @ t=0.06
-1.1954502820845523
% V (V) @ t=0.06
0.006307812722247986
% es.normE (V/m) @ t=0.08
1.2665393404039837
% es.EX (V/m) @ t=0.08
-0.3778342993762319
% es.EY (V/m) @ t=0.08
0.028223134018660258
% es.EZ (V/m) @ t=0.08
-1.2065054216326772
% es.tEX (V/m) @ t=0.08
-0.37783429937623403
% es.tEY (V/m) @ t=0.08
0
% es.tEZ (V/m) @ t=0.08
-1.2065054216326891
% es.Ex (V/m) @ t=0.08
-0.3778342993762319
% es.Ey (V/m) @ t=0.08
0.028223134018660258
% es.Ez (V/m) @ t=0.08
-1.2065054216326772
% es.tEx (V/m) @ t=0.08
-0.37783429937623403
% es.tEy (V/m) @ t=0.08
0
% es.tEz (V/m) @ t=0.08
-1.2065054216326891
% V (V) @ t=0.08
0.0063661453517176655
% es.normE (V/m) @ t=0.1
1.2782766341311245
% es.EX (V/m) @ t=0.1
-0.3813357715681195
% es.EY (V/m) @ t=0.1
0.028484684140819748
% es.EZ (V/m) @ t=0.1
-1.217686368014578
% es.tEX (V/m) @ t=0.1
-0.3813357715681214
% es.tEY (V/m) @ t=0.1
0
% es.tEZ (V/m) @ t=0.1
-1.2176863680145913
% es.Ex (V/m) @ t=0.1
-0.3813357715681195
% es.Ey (V/m) @ t=0.1
0.028484684140819748
% es.Ez (V/m) @ t=0.1
-1.217686368014578
% es.tEx (V/m) @ t=0.1
-0.3813357715681214
% es.tEy (V/m) @ t=0.1
0
% es.tEz (V/m) @ t=0.1
-1.2176863680145913
% V (V) @ t=0.1
0.006425141790228398
% es.normE (V/m) @ t=0.12
1.2900139278582685
% es.EX (V/m) @ t=0.12
-0.38483724376000983
% es.EY (V/m) @ t=0.12
0.02874623426298286
% es.EZ (V/m) @ t=0.12
-1.2288673143964823
% es.tEX (V/m) @ t=0.12
-0.3848372437600176
% es.tEY (V/m) @ t=0.12
0
% es.tEZ (V/m) @ t=0.12
-1.2288673143964939
% es.Ex (V/m) @ t=0.12
-0.38483724376000983
% es.Ey (V/m) @ t=0.12
0.02874623426298286
% es.Ez (V/m) @ t=0.12
-1.2288673143964823
% es.tEx (V/m) @ t=0.12
-0.3848372437600176
% es.tEy (V/m) @ t=0.12
0
% es.tEz (V/m) @ t=0.12
-1.2288673143964939
% V (V) @ t=0.12
0.006484138228739131
% es.normE (V/m) @ t=0.14
1.3018309632476623
% es.EX (V/m) @ t=0.14
-0.3883625044257445
% es.EY (V/m) @ t=0.14
0.02900956113811541
% es.EZ (V/m) @ t=0.14
-1.2401242227255231
% es.tEX (V/m) @ t=0.14
-0.3883625044257464
% es.tEY (V/m) @ t=0.14
0
% es.tEZ (V/m) @ t=0.14
-1.2401242227255391
% es.Ex (V/m) @ t=0.14
-0.3883625044257445
% es.Ey (V/m) @ t=0.14
0.02900956113811541
% es.Ez (V/m) @ t=0.14
-1.2401242227255231
% es.tEx (V/m) @ t=0.14
-0.3883625044257464
% es.tEy (V/m) @ t=0.14
0
% es.tEz (V/m) @ t=0.14
-1.2401242227255391
% V (V) @ t=0.14
0.006543535486009766
% es.normE (V/m) @ t=0.16
1.3142008309254891
% es.EX (V/m) @ t=0.16
-0.39205268561187856
% es.EY (V/m) @ t=0.16
0.02928520587043225
% es.EZ (V/m) @ t=0.16
-1.2519077593675938
% es.tEX (V/m) @ t=0.16
-0.39205268561188333
% es.tEY (V/m) @ t=0.16
0
% es.tEZ (V/m) @ t=0.16
-1.2519077593676053
% es.Ex (V/m) @ t=0.16
-0.39205268561187856
% es.Ey (V/m) @ t=0.16
0.02928520587043225
% es.Ez (V/m) @ t=0.16
-1.2519077593675938
% es.tEx (V/m) @ t=0.16
-0.39205268561188333
% es.tEy (V/m) @ t=0.16
0
% es.tEz (V/m) @ t=0.16
-1.2519077593676053
% V (V) @ t=0.16
0.006605711536021851
% es.normE (V/m) @ t=0.18
1.3265706986033177
% es.EX (V/m) @ t=0.18
-0.3957428667980074
% es.EY (V/m) @ t=0.18
0.02956085060275363
% es.EZ (V/m) @ t=0.18
-1.263691296009668
% es.tEX (V/m) @ t=0.18
-0.39574286679800963
% es.tEY (V/m) @ t=0.18
0
% es.tEZ (V/m) @ t=0.18
-1.2636912960096778
% es.Ex (V/m) @ t=0.18
-0.3957428667980074
% es.Ey (V/m) @ t=0.18
0.02956085060275363
% es.Ez (V/m) @ t=0.18
-1.263691296009668
% es.tEx (V/m) @ t=0.18
-0.39574286679800963
% es.tEy (V/m) @ t=0.18
0
% es.tEz (V/m) @ t=0.18
-1.2636912960096778
% V (V) @ t=0.18
0.006667887586033938
% es.normE (V/m) @ t=0.2
1.3389405662811455
% es.EX (V/m) @ t=0.2
-0.3994330479841446
% es.EY (V/m) @ t=0.2
0.029836495335080884
% es.EZ (V/m) @ t=0.2
-1.275474832651739
% es.tEX (V/m) @ t=0.2
-0.3994330479841466
% es.tEY (V/m) @ t=0.2
0
% es.tEZ (V/m) @ t=0.2
-1.275474832651744
% es.Ex (V/m) @ t=0.2
-0.3994330479841446
% es.Ey (V/m) @ t=0.2
0.029836495335080884
% es.Ez (V/m) @ t=0.2
-1.275474832651739
% es.tEx (V/m) @ t=0.2
-0.3994330479841466
% es.tEy (V/m) @ t=0.2
0
% es.tEz (V/m) @ t=0.2
-1.275474832651744
% V (V) @ t=0.2
0.006730063636046024
% es.normE (V/m) @ t=0.22
1.3513104339589674
% es.EX (V/m) @ t=0.22
-0.40312322917027654
% es.EY (V/m) @ t=0.22
0.03011214006739947
% es.EZ (V/m) @ t=0.22
-1.2872583692938058
% es.tEX (V/m) @ t=0.22
-0.4031232291702871
% es.tEY (V/m) @ t=0.22
0
% es.tEZ (V/m) @ t=0.22
-1.2872583692938173
% es.Ex (V/m) @ t=0.22
-0.40312322917027654
% es.Ey (V/m) @ t=0.22
0.03011214006739947
% es.Ez (V/m) @ t=0.22
-1.2872583692938058
% es.tEx (V/m) @ t=0.22
-0.4031232291702871
% es.tEy (V/m) @ t=0.22
0
% es.tEz (V/m) @ t=0.22
-1.2872583692938173
% V (V) @ t=0.22
0.006792239686058111
% es.normE (V/m) @ t=0.24
1.363680301636783
% es.EX (V/m) @ t=0.24
-0.40681341035640756
% es.EY (V/m) @ t=0.24
0.03038778479971098
% es.EZ (V/m) @ t=0.24
-1.2990419059358658
% es.tEX (V/m) @ t=0.24
-0.4068134103564134
% es.tEY (V/m) @ t=0.24
0
% es.tEZ (V/m) @ t=0.24
-1.2990419059358835
% es.Ex (V/m) @ t=0.24
-0.40681341035640756
% es.Ey (V/m) @ t=0.24
0.03038778479971098
% es.Ez (V/m) @ t=0.24
-1.2990419059358658
% es.tEx (V/m) @ t=0.24
-0.4068134103564134
% es.tEy (V/m) @ t=0.24
0
% es.tEz (V/m) @ t=0.24
-1.2990419059358835
% V (V) @ t=0.24
0.006854415736070196
% es.normE (V/m) @ t=0.26
1.3760501693146203
% es.EX (V/m) @ t=0.26
-0.41050359154254307
% es.EY (V/m) @ t=0.26
0.030663429532033784
% es.EZ (V/m) @ t=0.26
-1.310825442577947
% es.tEX (V/m) @ t=0.26
-0.41050359154254323
% es.tEY (V/m) @ t=0.26
0
% es.tEZ (V/m) @ t=0.26
-1.3108254425779569
% es.Ex (V/m) @ t=0.26
-0.41050359154254307
% es.Ey (V/m) @ t=0.26
0.030663429532033784
% es.Ez (V/m) @ t=0.26
-1.310825442577947
% es.tEx (V/m) @ t=0.26
-0.41050359154254323
% es.tEy (V/m) @ t=0.26
0
% es.tEz (V/m) @ t=0.26
-1.3108254425779569
% V (V) @ t=0.26
0.0069165917860822814
% es.normE (V/m) @ t=0.28
1.3887936051030962
% es.EX (V/m) @ t=0.28
-0.41430520549330885
% es.EY (V/m) @ t=0.28
0.030947374099613748
% es.EZ (V/m) @ t=0.28
-1.3229648451173053
% es.tEX (V/m) @ t=0.28
-0.4143052054933136
% es.tEY (V/m) @ t=0.28
0
% es.tEZ (V/m) @ t=0.28
-1.3229648451173226
% es.Ex (V/m) @ t=0.28
-0.41430520549330885
% es.Ey (V/m) @ t=0.28
0.030947374099613748
% es.Ez (V/m) @ t=0.28
-1.3229648451173053
% es.tEx (V/m) @ t=0.28
-0.4143052054933136
% es.tEy (V/m) @ t=0.28
0
% es.tEz (V/m) @ t=0.28
-1.3229648451173226
% V (V) @ t=0.28
0.006980646136390193
% es.normE (V/m) @ t=0.3
1.402588366614757
% es.EX (V/m) @ t=0.3
-0.4184204225823665
% es.EY (V/m) @ t=0.3
0.03125467673781658
% es.EZ (V/m) @ t=0.3
-1.3361057543729866
% es.tEX (V/m) @ t=0.3
-0.41842042258236845
% es.tEY (V/m) @ t=0.3
0
% es.tEZ (V/m) @ t=0.3
-1.3361057543729924
% es.Ex (V/m) @ t=0.3
-0.4184204225823665
% es.Ey (V/m) @ t=0.3
0.03125467673781658
% es.Ez (V/m) @ t=0.3
-1.3361057543729866
% es.tEx (V/m) @ t=0.3
-0.41842042258236845
% es.tEy (V/m) @ t=0.3
0
% es.tEz (V/m) @ t=0.3
-1.3361057543729924
% V (V) @ t=0.3
0.0070499865519710585
% es.normE (V/m) @ t=0.32
1.4163831281264347
% es.EX (V/m) @ t=0.32
-0.4225356396714215
% es.EY (V/m) @ t=0.32
0.03156197937601317
% es.EZ (V/m) @ t=0.32
-1.3492466636286746
% es.tEX (V/m) @ t=0.32
-0.4225356396714268
% es.tEY (V/m) @ t=0.32
0
% es.tEZ (V/m) @ t=0.32
-1.3492466636286835
% es.Ex (V/m) @ t=0.32
-0.4225356396714215
% es.Ey (V/m) @ t=0.32
0.03156197937601317
% es.Ez (V/m) @ t=0.32
-1.3492466636286746
% es.tEx (V/m) @ t=0.32
-0.4225356396714268
% es.tEy (V/m) @ t=0.32
0
% es.tEz (V/m) @ t=0.32
-1.3492466636286835
% V (V) @ t=0.32
0.007119326967551923
% es.normE (V/m) @ t=0.34
1.4301778896381183
% es.EX (V/m) @ t=0.34
-0.42665085676047987
% es.EY (V/m) @ t=0.34
0.03186928201420624
% es.EZ (V/m) @ t=0.34
-1.362387572884356
% es.tEX (V/m) @ t=0.34
-0.4266508567604852
% es.tEY (V/m) @ t=0.34
0
% es.tEZ (V/m) @ t=0.34
-1.3623875728843746
% es.Ex (V/m) @ t=0.34
-0.42665085676047987
% es.Ey (V/m) @ t=0.34
0.03186928201420624
% es.Ez (V/m) @ t=0.34
-1.362387572884356
% es.tEx (V/m) @ t=0.34
-0.4266508567604852
% es.tEy (V/m) @ t=0.34
0
% es.tEz (V/m) @ t=0.34
-1.3623875728843746
% V (V) @ t=0.34
0.007188667383132788
% es.normE (V/m) @ t=0.36
1.4439726511498194
% es.EX (V/m) @ t=0.36
-0.43076607384953663
% es.EY (V/m) @ t=0.36
0.0321765846524053
% es.EZ (V/m) @ t=0.36
-1.3755284821400444
% es.tEX (V/m) @ t=0.36
-0.43076607384954
% es.tEY (V/m) @ t=0.36
0
% es.tEZ (V/m) @ t=0.36
-1.3755284821400515
% es.Ex (V/m) @ t=0.36
-0.43076607384953663
% es.Ey (V/m) @ t=0.36
0.0321765846524053
% es.Ez (V/m) @ t=0.36
-1.3755284821400444
% es.tEx (V/m) @ t=0.36
-0.43076607384954
% es.tEy (V/m) @ t=0.36
0
% es.tEz (V/m) @ t=0.36
-1.3755284821400515
% V (V) @ t=0.36
0.007258007798713654
% es.normE (V/m) @ t=0.38
1.4577674126615245
% es.EX (V/m) @ t=0.38
-0.43488129093859607
% es.EY (V/m) @ t=0.38
0.03248388729060122
% es.EZ (V/m) @ t=0.38
-1.3886693913957253
% es.tEX (V/m) @ t=0.38
-0.43488129093859484
% es.tEY (V/m) @ t=0.38
0
% es.tEZ (V/m) @ t=0.38
-1.3886693913957364
% es.Ex (V/m) @ t=0.38
-0.43488129093859607
% es.Ey (V/m) @ t=0.38
0.03248388729060122
% es.Ez (V/m) @ t=0.38
-1.3886693913957253
% es.tEx (V/m) @ t=0.38
-0.43488129093859484
% es.tEy (V/m) @ t=0.38
0
% es.tEz (V/m) @ t=0.38
-1.3886693913957364
% V (V) @ t=0.38
0.007327348214294517
% es.normE (V/m) @ t=0.4
1.4715621741732328
% es.EX (V/m) @ t=0.4
-0.4389965080276528
% es.EY (V/m) @ t=0.4
0.03279118992879317
% es.EZ (V/m) @ t=0.4
-1.4018103006513996
% es.tEX (V/m) @ t=0.4
-0.4389965080276532
% es.tEY (V/m) @ t=0.4
0
% es.tEZ (V/m) @ t=0.4
-1.4018103006514195
% es.Ex (V/m) @ t=0.4
-0.4389965080276528
% es.Ey (V/m) @ t=0.4
0.03279118992879317
% es.Ez (V/m) @ t=0.4
-1.4018103006513996
% es.tEx (V/m) @ t=0.4
-0.4389965080276532
% es.tEy (V/m) @ t=0.4
0
% es.tEz (V/m) @ t=0.4
-1.4018103006514195
% V (V) @ t=0.4
0.007396688629875383
% es.normE (V/m) @ t=0.42
1.4853569356849712
% es.EX (V/m) @ t=0.42
-0.44311172511671026
% es.EY (V/m) @ t=0.42
0.033098492566990906
% es.EZ (V/m) @ t=0.42
-1.414951209907095
% es.tEX (V/m) @ t=0.42
-0.44311172511671515
% es.tEY (V/m) @ t=0.42
0
% es.tEZ (V/m) @ t=0.42
-1.4149512099071044
% es.Ex (V/m) @ t=0.42
-0.44311172511671026
% es.Ey (V/m) @ t=0.42
0.033098492566990906
% es.Ez (V/m) @ t=0.42
-1.414951209907095
% es.tEx (V/m) @ t=0.42
-0.44311172511671515
% es.tEy (V/m) @ t=0.42
0
% es.tEz (V/m) @ t=0.42
-1.4149512099071044
% V (V) @ t=0.42
0.007466029045456247
% es.normE (V/m) @ t=0.44
1.4991516971967127
% es.EX (V/m) @ t=0.44
-0.44722694220576786
% es.EY (V/m) @ t=0.44
0.033405795205173984
% es.EZ (V/m) @ t=0.44
-1.4280921191627836
% es.tEX (V/m) @ t=0.44
-0.44722694220577
% es.tEY (V/m) @ t=0.44
0
% es.tEZ (V/m) @ t=0.44
-1.4280921191627884
% es.Ex (V/m) @ t=0.44
-0.44722694220576786
% es.Ey (V/m) @ t=0.44
0.033405795205173984
% es.Ez (V/m) @ t=0.44
-1.4280921191627836
% es.tEx (V/m) @ t=0.44
-0.44722694220577
% es.tEy (V/m) @ t=0.44
0
% es.tEz (V/m) @ t=0.44
-1.4280921191627884
% V (V) @ t=0.44
0.007535369461037112
% es.normE (V/m) @ t=0.46
1.5129464587084638
% es.EX (V/m) @ t=0.46
-0.45134215929482635
% es.EY (V/m) @ t=0.46
0.033713097843377705
% es.EZ (V/m) @ t=0.46
-1.4412330284184716
% es.tEX (V/m) @ t=0.46
-0.45134215929482835
% es.tEY (V/m) @ t=0.46
0
% es.tEZ (V/m) @ t=0.46
-1.4412330284184804
% es.Ex (V/m) @ t=0.46
-0.45134215929482635
% es.Ey (V/m) @ t=0.46
0.033713097843377705
% es.Ez (V/m) @ t=0.46
-1.4412330284184716
% es.tEx (V/m) @ t=0.46
-0.45134215929482835
% es.tEy (V/m) @ t=0.46
0
% es.tEz (V/m) @ t=0.46
-1.4412330284184804
% V (V) @ t=0.46
0.007604709876617977
% es.normE (V/m) @ t=0.48
1.5267412202202169
% es.EX (V/m) @ t=0.48
-0.4554573763838805
% es.EY (V/m) @ t=0.48
0.03402040048158495
% es.EZ (V/m) @ t=0.48
-1.4543739376741525
% es.tEX (V/m) @ t=0.48
-0.4554573763838867
% es.tEY (V/m) @ t=0.48
0
% es.tEZ (V/m) @ t=0.48
-1.4543739376741636
% es.Ex (V/m) @ t=0.48
-0.4554573763838805
% es.Ey (V/m) @ t=0.48
0.03402040048158495
% es.Ez (V/m) @ t=0.48
-1.4543739376741525
% es.tEx (V/m) @ t=0.48
-0.4554573763838867
% es.tEy (V/m) @ t=0.48
0
% es.tEz (V/m) @ t=0.48
-1.4543739376741636
% V (V) @ t=0.48
0.0076740502921988415
% es.normE (V/m) @ t=0.5
1.5405359817319795
% es.EX (V/m) @ t=0.5
-0.459572593472939
% es.EY (V/m) @ t=0.5
0.034327703119776024
% es.EZ (V/m) @ t=0.5
-1.4675148469298338
% es.tEX (V/m) @ t=0.5
-0.45957259347294155
% es.tEY (V/m) @ t=0.5
0
% es.tEZ (V/m) @ t=0.5
-1.4675148469298485
% es.Ex (V/m) @ t=0.5
-0.459572593472939
% es.Ey (V/m) @ t=0.5
0.034327703119776024
% es.Ez (V/m) @ t=0.5
-1.4675148469298338
% es.tEx (V/m) @ t=0.5
-0.45957259347294155
% es.tEy (V/m) @ t=0.5
0
% es.tEz (V/m) @ t=0.5
-1.4675148469298485
% V (V) @ t=0.5
0.007743390707779707
% es.normE (V/m) @ t=0.52
1.5543307432437505
% es.EX (V/m) @ t=0.52
-0.4636878105619947
% es.EY (V/m) @ t=0.52
0.03463500575796842
% es.EZ (V/m) @ t=0.52
-1.4806557561855151
% es.tEX (V/m) @ t=0.52
-0.4636878105619999
% es.tEY (V/m) @ t=0.52
0
% es.tEZ (V/m) @ t=0.52
-1.4806557561855254
% es.Ex (V/m) @ t=0.52
-0.4636878105619947
% es.Ey (V/m) @ t=0.52
0.03463500575796842
% es.Ez (V/m) @ t=0.52
-1.4806557561855151
% es.tEx (V/m) @ t=0.52
-0.4636878105619999
% es.tEy (V/m) @ t=0.52
0
% es.tEz (V/m) @ t=0.52
-1.4806557561855254
% V (V) @ t=0.52
0.007812731123360572
% es.normE (V/m) @ t=0.54
1.5681255047555287
% es.EX (V/m) @ t=0.54
-0.46780302765104886
% es.EY (V/m) @ t=0.54
0.03494230839615679
% es.EZ (V/m) @ t=0.54
-1.493796665441196
% es.tEX (V/m) @ t=0.54
-0.46780302765105475
% es.tEY (V/m) @ t=0.54
0
% es.tEZ (V/m) @ t=0.54
-1.4937966654412014
% es.Ex (V/m) @ t=0.54
-0.46780302765104886
% es.Ey (V/m) @ t=0.54
0.03494230839615679
% es.Ez (V/m) @ t=0.54
-1.493796665441196
% es.tEx (V/m) @ t=0.54
-0.46780302765105475
% es.tEy (V/m) @ t=0.54
0
% es.tEz (V/m) @ t=0.54
-1.4937966654412014
% V (V) @ t=0.54
0.007882071538941438
% es.normE (V/m) @ t=0.56
1.5827843522677054
% es.EX (V/m) @ t=0.56
-0.4721760273539818
% es.EY (V/m) @ t=0.56
0.035268886394535966
% es.EZ (V/m) @ t=0.56
-1.5077606990324912
% es.tEX (V/m) @ t=0.56
-0.472176027353985
% es.tEY (V/m) @ t=0.56
0
% es.tEZ (V/m) @ t=0.56
-1.507760699032512
% es.Ex (V/m) @ t=0.56
-0.4721760273539818
% es.Ey (V/m) @ t=0.56
0.035268886394535966
% es.Ez (V/m) @ t=0.56
-1.5077606990324912
% es.tEx (V/m) @ t=0.56
-0.472176027353985
% es.tEy (V/m) @ t=0.56
0
% es.tEz (V/m) @ t=0.56
-1.507760699032512
% V (V) @ t=0.56
0.007955754723065287
% es.normE (V/m) @ t=0.58
1.5981960420636263
% es.EX (V/m) @ t=0.58
-0.47677362235372456
% es.EY (V/m) @ t=0.58
0.03561225821455187
% es.EZ (V/m) @ t=0.58
-1.5224418867083926
% es.tEX (V/m) @ t=0.58
-0.4767736223537291
% es.tEY (V/m) @ t=0.58
0
% es.tEZ (V/m) @ t=0.58
-1.5224418867084077
% es.Ex (V/m) @ t=0.58
-0.47677362235372456
% es.Ey (V/m) @ t=0.58
0.03561225821455187
% es.Ez (V/m) @ t=0.58
-1.5224418867083926
% es.tEx (V/m) @ t=0.58
-0.4767736223537291
% es.tEy (V/m) @ t=0.58
0
% es.tEz (V/m) @ t=0.58
-1.5224418867084077
% V (V) @ t=0.58
0.008033221581251922
% es.normE (V/m) @ t=0.6
1.6136077318595423
% es.EX (V/m) @ t=0.6
-0.4813712173534662
% es.EY (V/m) @ t=0.6
0.03595563003455519
% es.EZ (V/m) @ t=0.6
-1.5371230743842874
% es.tEX (V/m) @ t=0.6
-0.48137121735346966
% es.tEY (V/m) @ t=0.6
0
% es.tEZ (V/m) @ t=0.6
-1.5371230743842954
% es.Ex (V/m) @ t=0.6
-0.4813712173534662
% es.Ey (V/m) @ t=0.6
0.03595563003455519
% es.Ez (V/m) @ t=0.6
-1.5371230743842874
% es.tEx (V/m) @ t=0.6
-0.48137121735346966
% es.tEy (V/m) @ t=0.6
0
% es.tEz (V/m) @ t=0.6
-1.5371230743842954
% V (V) @ t=0.6
0.008110688439438556
% es.normE (V/m) @ t=0.62
1.6290194216554736
% es.EX (V/m) @ t=0.62
-0.48596881235321165
% es.EY (V/m) @ t=0.62
0.036299001854567095
% es.EZ (V/m) @ t=0.62
-1.551804262060196
% es.tEX (V/m) @ t=0.62
-0.4859688123532173
% es.tEY (V/m) @ t=0.62
0
% es.tEZ (V/m) @ t=0.62
-1.5518042620601982
% es.Ex (V/m) @ t=0.62
-0.48596881235321165
% es.Ey (V/m) @ t=0.62
0.036299001854567095
% es.Ez (V/m) @ t=0.62
-1.551804262060196
% es.tEx (V/m) @ t=0.62
-0.4859688123532173
% es.tEy (V/m) @ t=0.62
0
% es.tEz (V/m) @ t=0.62
-1.5518042620601982
% V (V) @ t=0.62
0.008188155297625191
% es.normE (V/m) @ t=0.64
1.6444311114514094
% es.EX (V/m) @ t=0.64
-0.49056640735295864
% es.EY (V/m) @ t=0.64
0.036642373674582625
% es.EZ (V/m) @ t=0.64
-1.566485449736105
% es.tEX (V/m) @ t=0.64
-0.4905664073529685
% es.tEY (V/m) @ t=0.64
0
% es.tEZ (V/m) @ t=0.64
-1.5664854497361143
% es.Ex (V/m) @ t=0.64
-0.49056640735295864
% es.Ey (V/m) @ t=0.64
0.036642373674582625
% es.Ez (V/m) @ t=0.64
-1.566485449736105
% es.tEx (V/m) @ t=0.64
-0.4905664073529685
% es.tEy (V/m) @ t=0.64
0
% es.tEz (V/m) @ t=0.64
-1.5664854497361143
% V (V) @ t=0.64
0.008265622155811827
% es.normE (V/m) @ t=0.66
1.659842801247338
% es.EX (V/m) @ t=0.66
-0.4951640023527023
% es.EY (V/m) @ t=0.66
0.03698574549459831
% es.EZ (V/m) @ t=0.66
-1.581166637412006
% es.tEX (V/m) @ t=0.66
-0.4951640023527055
% es.tEY (V/m) @ t=0.66
0
% es.tEZ (V/m) @ t=0.66
-1.58116663741201
% es.Ex (V/m) @ t=0.66
-0.4951640023527023
% es.Ey (V/m) @ t=0.66
0.03698574549459831
% es.Ez (V/m) @ t=0.66
-1.581166637412006
% es.tEx (V/m) @ t=0.66
-0.4951640023527055
% es.tEy (V/m) @ t=0.66
0
% es.tEz (V/m) @ t=0.66
-1.58116663741201
% V (V) @ t=0.66
0.00834308901399846
% es.normE (V/m) @ t=0.68
1.675254491043264
% es.EX (V/m) @ t=0.68
-0.4997615973524502
% es.EY (V/m) @ t=0.68
0.037329117314610284
% es.EZ (V/m) @ t=0.68
-1.5958478250879007
% es.tEX (V/m) @ t=0.68
-0.49976159735245673
% es.tEY (V/m) @ t=0.68
0
% es.tEZ (V/m) @ t=0.68
-1.5958478250879056
% es.Ex (V/m) @ t=0.68
-0.4997615973524502
% es.Ey (V/m) @ t=0.68
0.037329117314610284
% es.Ez (V/m) @ t=0.68
-1.5958478250879007
% es.tEx (V/m) @ t=0.68
-0.49976159735245673
% es.tEy (V/m) @ t=0.68
0
% es.tEz (V/m) @ t=0.68
-1.5958478250879056
% V (V) @ t=0.68
0.008420555872185098
% es.normE (V/m) @ t=0.7
1.6906661808391878
% es.EX (V/m) @ t=0.7
-0.5043591923521858
% es.EY (V/m) @ t=0.7
0.037672489134617085
% es.EZ (V/m) @ t=0.7
-1.610529012763795
% es.tEX (V/m) @ t=0.7
-0.5043591923521866
% es.tEY (V/m) @ t=0.7
0
% es.tEZ (V/m) @ t=0.7
-1.6105290127638066
% es.Ex (V/m) @ t=0.7
-0.5043591923521858
% es.Ey (V/m) @ t=0.7
0.037672489134617085
% es.Ez (V/m) @ t=0.7
-1.610529012763795
% es.tEx (V/m) @ t=0.7
-0.5043591923521866
% es.tEy (V/m) @ t=0.7
0
% es.tEz (V/m) @ t=0.7
-1.6105290127638066
% V (V) @ t=0.7
0.008498022730371731
% es.normE (V/m) @ t=0.72
1.7060778706351254
% es.EX (V/m) @ t=0.72
-0.5089567873519383
% es.EY (V/m) @ t=0.72
0.038015860954638166
% es.EZ (V/m) @ t=0.72
-1.6252102004396969
% es.tEX (V/m) @ t=0.72
-0.5089567873519414
% es.tEY (V/m) @ t=0.72
0
% es.tEZ (V/m) @ t=0.72
-1.6252102004397022
% es.Ex (V/m) @ t=0.72
-0.5089567873519383
% es.Ey (V/m) @ t=0.72
0.038015860954638166
% es.Ez (V/m) @ t=0.72
-1.6252102004396969
% es.tEx (V/m) @ t=0.72
-0.5089567873519414
% es.tEy (V/m) @ t=0.72
0
% es.tEz (V/m) @ t=0.72
-1.6252102004397022
% V (V) @ t=0.72
0.008575489588558367
% es.normE (V/m) @ t=0.74
1.7214895604310483
% es.EX (V/m) @ t=0.74
-0.5135543823516818
% es.EY (V/m) @ t=0.74
0.03835923277463964
% es.EZ (V/m) @ t=0.74
-1.6398913881155837
% es.tEX (V/m) @ t=0.74
-0.513554382351689
% es.tEY (V/m) @ t=0.74
0
% es.tEZ (V/m) @ t=0.74
-1.639891388115597
% es.Ex (V/m) @ t=0.74
-0.5135543823516818
% es.Ey (V/m) @ t=0.74
0.03835923277463964
% es.Ez (V/m) @ t=0.74
-1.6398913881155837
% es.tEx (V/m) @ t=0.74
-0.513554382351689
% es.tEy (V/m) @ t=0.74
0
% es.tEz (V/m) @ t=0.74
-1.639891388115597
% V (V) @ t=0.74
0.008652956446745002
% es.normE (V/m) @ t=0.76
1.736901250226988
% es.EX (V/m) @ t=0.76
-0.5181519773514298
% es.EY (V/m) @ t=0.76
0.03870260459464984
% es.EZ (V/m) @ t=0.76
-1.6545725757914855
% es.tEX (V/m) @ t=0.76
-0.5181519773514331
% es.tEY (V/m) @ t=0.76
0
% es.tEZ (V/m) @ t=0.76
-1.6545725757914997
% es.Ex (V/m) @ t=0.76
-0.5181519773514298
% es.Ey (V/m) @ t=0.76
0.03870260459464984
% es.Ez (V/m) @ t=0.76
-1.6545725757914855
% es.tEx (V/m) @ t=0.76
-0.5181519773514331
% es.tEy (V/m) @ t=0.76
0
% es.tEz (V/m) @ t=0.76
-1.6545725757914997
% V (V) @ t=0.76
0.008730423304931637
% es.normE (V/m) @ t=0.78
1.752312940022942
% es.EX (V/m) @ t=0.78
-0.5227495723511759
% es.EY (V/m) @ t=0.78
0.039045976414667116
% es.EZ (V/m) @ t=0.78
-1.6692537634674016
% es.tEX (V/m) @ t=0.78
-0.5227495723511808
% es.tEY (V/m) @ t=0.78
0
% es.tEZ (V/m) @ t=0.78
-1.6692537634674078
% es.Ex (V/m) @ t=0.78
-0.5227495723511759
% es.Ey (V/m) @ t=0.78
0.039045976414667116
% es.Ez (V/m) @ t=0.78
-1.6692537634674016
% es.tEx (V/m) @ t=0.78
-0.5227495723511808
% es.tEy (V/m) @ t=0.78
0
% es.tEz (V/m) @ t=0.78
-1.6692537634674078
% V (V) @ t=0.78
0.008807890163118273
% es.normE (V/m) @ t=0.8
1.767724629818885
% es.EX (V/m) @ t=0.8
-0.527347167350924
% es.EY (V/m) @ t=0.8
0.03938934823467747
% es.EZ (V/m) @ t=0.8
-1.683934951143303
% es.tEX (V/m) @ t=0.8
-0.527347167350932
% es.tEY (V/m) @ t=0.8
0
% es.tEZ (V/m) @ t=0.8
-1.6839349511433115
% es.Ex (V/m) @ t=0.8
-0.527347167350924
% es.Ey (V/m) @ t=0.8
0.03938934823467747
% es.Ez (V/m) @ t=0.8
-1.683934951143303
% es.tEx (V/m) @ t=0.8
-0.527347167350932
% es.tEy (V/m) @ t=0.8
0
% es.tEz (V/m) @ t=0.8
-1.6839349511433115
% V (V) @ t=0.8
0.008885357021304907
% es.normE (V/m) @ t=0.82
1.7831363196148147
% es.EX (V/m) @ t=0.82
-0.5319447623506676
% es.EY (V/m) @ t=0.82
0.03973272005469118
% es.EZ (V/m) @ t=0.82
-1.6986161388191898
% es.tEX (V/m) @ t=0.82
-0.531944762350669
% es.tEY (V/m) @ t=0.82
0
% es.tEZ (V/m) @ t=0.82
-1.6986161388191983
% es.Ex (V/m) @ t=0.82
-0.5319447623506676
% es.Ey (V/m) @ t=0.82
0.03973272005469118
% es.Ez (V/m) @ t=0.82
-1.6986161388191898
% es.tEx (V/m) @ t=0.82
-0.531944762350669
% es.tEy (V/m) @ t=0.82
0
% es.tEz (V/m) @ t=0.82
-1.6986161388191983
% V (V) @ t=0.82
0.008962823879491542
% es.normE (V/m) @ t=0.84
1.8000310580315668
% es.EX (V/m) @ t=0.84
-0.5369847895170999
% es.EY (V/m) @ t=0.84
0.04010916064234038
% es.EZ (V/m) @ t=0.84
-1.71471007445325
% es.tEX (V/m) @ t=0.84
-0.5369847895170992
% es.tEY (V/m) @ t=0.84
0
% es.tEZ (V/m) @ t=0.84
-1.714710074453273
% es.Ex (V/m) @ t=0.84
-0.5369847895170999
% es.Ey (V/m) @ t=0.84
0.04010916064234038
% es.Ez (V/m) @ t=0.84
-1.71471007445325
% es.tEx (V/m) @ t=0.84
-0.5369847895170992
% es.tEy (V/m) @ t=0.84
0
% es.tEz (V/m) @ t=0.84
-1.714710074453273
% V (V) @ t=0.84
0.0090477446324561
% es.normE (V/m) @ t=0.86
1.8172813286725547
% es.EX (V/m) @ t=0.86
-0.5421308812387299
% es.EY (V/m) @ t=0.86
0.040493528827457964
% es.EZ (V/m) @ t=0.86
-1.7311426890873114
% es.tEX (V/m) @ t=0.86
-0.5421308812387373
% es.tEY (V/m) @ t=0.86
0
% es.tEZ (V/m) @ t=0.86
-1.731142689087326
% es.Ex (V/m) @ t=0.86
-0.5421308812387299
% es.Ey (V/m) @ t=0.86
0.040493528827457964
% es.Ez (V/m) @ t=0.86
-1.7311426890873114
% es.tEx (V/m) @ t=0.86
-0.5421308812387373
% es.tEy (V/m) @ t=0.86
0
% es.tEz (V/m) @ t=0.86
-1.731142689087326
% V (V) @ t=0.86
0.00913445231253311
% es.normE (V/m) @ t=0.88
1.8345315993135565
% es.EX (V/m) @ t=0.88
-0.5472769729603589
% es.EY (V/m) @ t=0.88
0.04087789701258977
% es.EZ (V/m) @ t=0.88
-1.747575303721387
% es.tEX (V/m) @ t=0.88
-0.5472769729603648
% es.tEY (V/m) @ t=0.88
0
% es.tEZ (V/m) @ t=0.88
-1.7475753037213986
% es.Ex (V/m) @ t=0.88
-0.5472769729603589
% es.Ey (V/m) @ t=0.88
0.04087789701258977
% es.Ez (V/m) @ t=0.88
-1.747575303721387
% es.tEx (V/m) @ t=0.88
-0.5472769729603648
% es.tEy (V/m) @ t=0.88
0
% es.tEz (V/m) @ t=0.88
-1.7475753037213986
% V (V) @ t=0.88
0.00922115999261012
% es.normE (V/m) @ t=0.9
1.8517818699545525
% es.EX (V/m) @ t=0.9
-0.5524230646819908
% es.EY (V/m) @ t=0.9
0.04126226519770958
% es.EZ (V/m) @ t=0.9
-1.7640079183554556
% es.tEX (V/m) @ t=0.9
-0.5524230646819923
% es.tEY (V/m) @ t=0.9
0
% es.tEZ (V/m) @ t=0.9
-1.7640079183554729
% es.Ex (V/m) @ t=0.9
-0.5524230646819908
% es.Ey (V/m) @ t=0.9
0.04126226519770958
% es.Ez (V/m) @ t=0.9
-1.7640079183554556
% es.tEx (V/m) @ t=0.9
-0.5524230646819923
% es.tEy (V/m) @ t=0.9
0
% es.tEz (V/m) @ t=0.9
-1.7640079183554729
% V (V) @ t=0.9
0.00930786767268713
% es.normE (V/m) @ t=0.92
1.8690321405955477
% es.EX (V/m) @ t=0.92
-0.557569156403618
% es.EY (V/m) @ t=0.92
0.04164663338283761
% es.EZ (V/m) @ t=0.92
-1.780440532989524
% es.tEX (V/m) @ t=0.92
-0.5575691564036198
% es.tEY (V/m) @ t=0.92
0
% es.tEZ (V/m) @ t=0.92
-1.7804405329895312
% es.Ex (V/m) @ t=0.92
-0.557569156403618
% es.Ey (V/m) @ t=0.92
0.04164663338283761
% es.Ez (V/m) @ t=0.92
-1.780440532989524
% es.tEx (V/m) @ t=0.92
-0.5575691564036198
% es.tEy (V/m) @ t=0.92
0
% es.tEz (V/m) @ t=0.92
-1.7804405329895312
% V (V) @ t=0.92
0.009394575352764138
% es.normE (V/m) @ t=0.94
1.886282411236543
% es.EX (V/m) @ t=0.94
-0.5627152481252462
% es.EY (V/m) @ t=0.94
0.04203100156797318
% es.EZ (V/m) @ t=0.94
-1.7968731476235926
% es.tEX (V/m) @ t=0.94
-0.5627152481252509
% es.tEY (V/m) @ t=0.94
0
% es.tEZ (V/m) @ t=0.94
-1.7968731476236126
% es.Ex (V/m) @ t=0.94
-0.5627152481252462
% es.Ey (V/m) @ t=0.94
0.04203100156797318
% es.Ez (V/m) @ t=0.94
-1.7968731476235926
% es.tEx (V/m) @ t=0.94
-0.5627152481252509
% es.tEy (V/m) @ t=0.94
0
% es.tEz (V/m) @ t=0.94
-1.7968731476236126
% V (V) @ t=0.94
0.009481283032841145
% es.normE (V/m) @ t=0.96
1.9035326818775262
% es.EX (V/m) @ t=0.96
-0.5678613398468806
% es.EY (V/m) @ t=0.96
0.042415369753089016
% es.EZ (V/m) @ t=0.96
-1.813305762257647
% es.tEX (V/m) @ t=0.96
-0.5678613398468819
% es.tEY (V/m) @ t=0.96
0
% es.tEZ (V/m) @ t=0.96
-1.8133057622576647
% es.Ex (V/m) @ t=0.96
-0.5678613398468806
% es.Ey (V/m) @ t=0.96
0.042415369753089016
% es.Ez (V/m) @ t=0.96
-1.813305762257647
% es.tEx (V/m) @ t=0.96
-0.5678613398468819
% es.tEy (V/m) @ t=0.96
0
% es.tEz (V/m) @ t=0.96
-1.8133057622576647
% V (V) @ t=0.96
0.009567990712918155
% es.normE (V/m) @ t=0.98
1.92078295251852
% es.EX (V/m) @ t=0.98
-0.5730074315684996
% es.EY (V/m) @ t=0.98
0.04279973793821573
% es.EZ (V/m) @ t=0.98
-1.829738376891716
% es.tEX (V/m) @ t=0.98
-0.5730074315685094
% es.tEY (V/m) @ t=0.98
0
% es.tEZ (V/m) @ t=0.98
-1.8297383768917372
% es.Ex (V/m) @ t=0.98
-0.5730074315684996
% es.Ey (V/m) @ t=0.98
0.04279973793821573
% es.Ez (V/m) @ t=0.98
-1.829738376891716
% es.tEx (V/m) @ t=0.98
-0.5730074315685094
% es.tEy (V/m) @ t=0.98
0
% es.tEz (V/m) @ t=0.98
-1.8297383768917372
% V (V) @ t=0.98
0.009654698392995166
% es.normE (V/m) @ t=1
1.9380332231595148
% es.EX (V/m) @ t=1
-0.5781535232901298
% es.EY (V/m) @ t=1
0.043184106123342406
% es.EZ (V/m) @ t=1
-1.846170991525784
% es.tEX (V/m) @ t=1
-0.5781535232901334
% es.tEY (V/m) @ t=1
0
% es.tEZ (V/m) @ t=1
-1.8461709915258036
% es.Ex (V/m) @ t=1
-0.5781535232901298
% es.Ey (V/m) @ t=1
0.043184106123342406
% es.Ez (V/m) @ t=1
-1.846170991525784
% es.tEx (V/m) @ t=1
-0.5781535232901334
% es.tEy (V/m) @ t=1
0
% es.tEz (V/m) @ t=1
-1.8461709915258036
% V (V) @ t=1
0.009741406073072174
% es.normE (V/m) @ t=1.02
1.9552834938005197
% es.EX (V/m) @ t=1.02
-0.5832996150117613
% es.EY (V/m) @ t=1.02
0.04356847430846157
% es.EZ (V/m) @ t=1.02
-1.86260360615986
% es.tEX (V/m) @ t=1.02
-0.5832996150117715
% es.tEY (V/m) @ t=1.02
0
% es.tEZ (V/m) @ t=1.02
-1.8626036061598779
% es.Ex (V/m) @ t=1.02
-0.5832996150117613
% es.Ey (V/m) @ t=1.02
0.04356847430846157
% es.Ez (V/m) @ t=1.02
-1.86260360615986
% es.tEx (V/m) @ t=1.02
-0.5832996150117715