% Model:              1 neuron.mph
% Version:            COMSOL 6.0.0.405
% Date:               Mar 9 2023, 14:21
% Dimension:          0
% Nodes:              14017
% Expressions:        14017
% Description:        Electric field norm, Electric field, X component, Electric field, Y component, Electric field, Z component, Tangential electric field, X component, Tangential electric field, Y component, Tangential electric field, Z component, Electric field, x component, Electric field, y component, Electric field, z component, Tangential electric field, x component, Tangential electric field, y component, Tangential electric field, z component, Electric potential
% Length unit:        mm
% x
1.33
% y
12.2
% z
1
% es.normE (V/m) @ t=0
1.5474517925864402
% es.EX (V/m) @ t=0
0.4776420017428592
% es.EY (V/m) @ t=0
0.11571503301790098
% es.EZ (V/m) @ t=0
1.4673254867233867
% es.tEX (V/m) @ t=0
0.47764200174285776
% es.tEY (V/m) @ t=0
0
% es.tEZ (V/m) @ t=0
1.4673254867233894
% es.Ex (V/m) @ t=0
0.4776420017428592
% es.Ey (V/m) @ t=0
0.11571503301790098
% es.Ez (V/m) @ t=0
1.4673254867233867
% es.tEx (V/m) @ t=0
0.47764200174285776
% es.tEy (V/m) @ t=0
0
% es.tEz (V/m) @ t=0
1.4673254867233894
% V (V) @ t=0
0.007237475634477263
% es.normE (V/m) @ t=0.02
1.3365647298758225
% es.EX (V/m) @ t=0.02
0.4125488488676836
% es.EY (V/m) @ t=0.02
0.09994536227563533
% es.EZ (V/m) @ t=0.02
1.2673580537154372
% es.tEX (V/m) @ t=0.02
0.4125488488676794
% es.tEY (V/m) @ t=0.02
0
% es.tEZ (V/m) @ t=0.02
1.2673580537154283
% es.Ex (V/m) @ t=0.02
0.4125488488676836
% es.Ey (V/m) @ t=0.02
0.09994536227563533
% es.Ez (V/m) @ t=0.02
1.2673580537154372
% es.tEx (V/m) @ t=0.02
0.4125488488676794
% es.tEy (V/m) @ t=0.02
0
% es.tEz (V/m) @ t=0.02
1.2673580537154283
% V (V) @ t=0.02
0.006251150654089699
% es.normE (V/m) @ t=0.04
1.348859896957502
% es.EX (V/m) @ t=0.04
0.41634392071065174
% es.EY (V/m) @ t=0.04
0.10086476650682391
% es.EZ (V/m) @ t=0.04
1.2790165825547297
% es.tEX (V/m) @ t=0.04
0.41634392071065207
% es.tEY (V/m) @ t=0.04
0
% es.tEZ (V/m) @ t=0.04
1.2790165825547302
% es.Ex (V/m) @ t=0.04
0.41634392071065174
% es.Ey (V/m) @ t=0.04
0.10086476650682391
% es.Ez (V/m) @ t=0.04
1.2790165825547297
% es.tEx (V/m) @ t=0.04
0.41634392071065207
% es.tEy (V/m) @ t=0.04
0
% es.tEz (V/m) @ t=0.04
1.2790165825547302
% V (V) @ t=0.04
0.006308655234220007
% es.normE (V/m) @ t=0.06
1.3612629066305308
% es.EX (V/m) @ t=0.06
0.42017227698232507
% es.EY (V/m) @ t=0.06
0.10179223706708507
% es.EZ (V/m) @ t=0.06
1.2907773706534789
% es.tEX (V/m) @ t=0.06
0.42017227698232773
% es.tEY (V/m) @ t=0.06
0
% es.tEZ (V/m) @ t=0.06
1.290777370653486
% es.Ex (V/m) @ t=0.06
0.42017227698232507
% es.Ey (V/m) @ t=0.06
0.10179223706708507
% es.Ez (V/m) @ t=0.06
1.2907773706534789
% es.tEx (V/m) @ t=0.06
0.42017227698232773
% es.tEy (V/m) @ t=0.06
0
% es.tEz (V/m) @ t=0.06
1.290777370653486
% V (V) @ t=0.06
0.0063666646365493
% es.normE (V/m) @ t=0.08
1.3738623643541379
% es.EX (V/m) @ t=0.08
0.42406126929687227
% es.EY (V/m) @ t=0.08
0.10273439778013238
% es.EZ (V/m) @ t=0.08
1.3027244349049159
% es.tEX (V/m) @ t=0.08
0.4240612692968746
% es.tEY (V/m) @ t=0.08
0
% es.tEZ (V/m) @ t=0.08
1.3027244349049205
% es.Ex (V/m) @ t=0.08
0.42406126929687227
% es.Ey (V/m) @ t=0.08
0.10273439778013238
% es.Ez (V/m) @ t=0.08
1.3027244349049159
% es.tEx (V/m) @ t=0.08
0.4240612692968746
% es.tEy (V/m) @ t=0.08
0
% es.tEz (V/m) @ t=0.08
1.3027244349049205
% V (V) @ t=0.08
0.0064255928740271735
% es.normE (V/m) @ t=0.1
1.3865836408152457
% es.EX (V/m) @ t=0.1
0.427987862423279
% es.EY (V/m) @ t=0.1
0.10368566795424161
% es.EZ (V/m) @ t=0.1
1.3147870102325894
% es.tEX (V/m) @ t=0.1
0.42798786242327935
% es.tEY (V/m) @ t=0.1
0
% es.tEZ (V/m) @ t=0.1
1.3147870102325925
% es.Ex (V/m) @ t=0.1
0.427987862423279
% es.Ey (V/m) @ t=0.1
0.10368566795424161
% es.Ez (V/m) @ t=0.1
1.3147870102325894
% es.tEx (V/m) @ t=0.1
0.42798786242327935
% es.tEy (V/m) @ t=0.1
0
% es.tEz (V/m) @ t=0.1
1.3147870102325925
% V (V) @ t=0.1
0.0064850908872673505
% es.normE (V/m) @ t=0.12
1.3993049172763619
% es.EX (V/m) @ t=0.12
0.43191445554968755
% es.EY (V/m) @ t=0.12
0.10463693812832431
% es.EZ (V/m) @ t=0.12
1.3268495855602729
% es.tEX (V/m) @ t=0.12
0.43191445554968766
% es.tEY (V/m) @ t=0.12
0
% es.tEZ (V/m) @ t=0.12
1.3268495855602787
% es.Ex (V/m) @ t=0.12
0.43191445554968755
% es.Ey (V/m) @ t=0.12
0.10463693812832431
% es.Ez (V/m) @ t=0.12
1.3268495855602729
% es.tEx (V/m) @ t=0.12
0.43191445554968766
% es.tEy (V/m) @ t=0.12
0
% es.tEz (V/m) @ t=0.12
1.3268495855602787
% V (V) @ t=0.12
0.006544588900507527
% es.normE (V/m) @ t=0.14
1.4121906800785613
% es.EX (V/m) @ t=0.14
0.4358918197138897
% es.EY (V/m) @ t=0.14
0.10560050819278388
% es.EZ (V/m) @ t=0.14
1.3390681301773952
% es.tEX (V/m) @ t=0.14
0.43589181971389124
% es.tEY (V/m) @ t=0.14
0
% es.tEZ (V/m) @ t=0.14
1.3390681301773917
% es.Ex (V/m) @ t=0.14
0.4358918197138897
% es.Ey (V/m) @ t=0.14
0.10560050819278388
% es.Ez (V/m) @ t=0.14
1.3390681301773952
% es.tEx (V/m) @ t=0.14
0.43589181971389124
% es.tEy (V/m) @ t=0.14
0
% es.tEz (V/m) @ t=0.14
1.3390681301773917
% V (V) @ t=0.14
0.006604856213558949
% es.normE (V/m) @ t=0.16
1.425585065374786
% es.EX (V/m) @ t=0.16
0.44002617741142513
% es.EY (V/m) @ t=0.16
0.10660211181595858
% es.EZ (V/m) @ t=0.16
1.351768960973796
% es.tEX (V/m) @ t=0.16
0.4400261774114256
% es.tEY (V/m) @ t=0.16
0
% es.tEZ (V/m) @ t=0.16
1.3517689609737946
% es.Ex (V/m) @ t=0.16
0.44002617741142513
% es.Ey (V/m) @ t=0.16
0.10660211181595858
% es.Ez (V/m) @ t=0.16
1.351768960973796
% es.tEx (V/m) @ t=0.16
0.4400261774114256
% es.tEy (V/m) @ t=0.16
0
% es.tEz (V/m) @ t=0.16
1.3517689609737946
% V (V) @ t=0.16
0.006667502345338012
% es.normE (V/m) @ t=0.18
1.4389794506710036
% es.EX (V/m) @ t=0.18
0.44416053510895104
% es.EY (V/m) @ t=0.18
0.10760371543912062
% es.EZ (V/m) @ t=0.18
1.3644697917701936
% es.tEX (V/m) @ t=0.18
0.44416053510894926
% es.tEY (V/m) @ t=0.18
0
% es.tEZ (V/m) @ t=0.18
1.3644697917701958
% es.Ex (V/m) @ t=0.18
0.44416053510895104
% es.Ey (V/m) @ t=0.18
0.10760371543912062
% es.Ez (V/m) @ t=0.18
1.3644697917701936
% es.tEx (V/m) @ t=0.18
0.44416053510894926
% es.tEy (V/m) @ t=0.18
0
% es.tEz (V/m) @ t=0.18
1.3644697917701958
% V (V) @ t=0.18
0.006730148477117076
% es.normE (V/m) @ t=0.2
1.4523738359672174
% es.EX (V/m) @ t=0.2
0.4482948928064867
% es.EY (V/m) @ t=0.2
0.10860531906228854
% es.EZ (V/m) @ t=0.2
1.3771706225665832
% es.tEX (V/m) @ t=0.2
0.4482948928064907
% es.tEY (V/m) @ t=0.2
0
% es.tEZ (V/m) @ t=0.2
1.3771706225665898
% es.Ex (V/m) @ t=0.2
0.4482948928064867
% es.Ey (V/m) @ t=0.2
0.10860531906228854
% es.Ez (V/m) @ t=0.2
1.3771706225665832
% es.tEx (V/m) @ t=0.2
0.4482948928064907
% es.tEy (V/m) @ t=0.2
0
% es.tEz (V/m) @ t=0.2
1.3771706225665898
% V (V) @ t=0.2
0.00679279460889614
% es.normE (V/m) @ t=0.22
1.4657682212634289
% es.EX (V/m) @ t=0.22
0.45242925050400473
% es.EY (V/m) @ t=0.22
0.10960692268545114
% es.EZ (V/m) @ t=0.22
1.3898714533629768
% es.tEX (V/m) @ t=0.22
0.45242925050400373
% es.tEY (V/m) @ t=0.22
0
% es.tEZ (V/m) @ t=0.22
1.3898714533629768
% es.Ex (V/m) @ t=0.22
0.45242925050400473
% es.Ey (V/m) @ t=0.22
0.10960692268545114
% es.Ez (V/m) @ t=0.22
1.3898714533629768
% es.tEx (V/m) @ t=0.22
0.45242925050400373
% es.tEy (V/m) @ t=0.22
0
% es.tEz (V/m) @ t=0.22
1.3898714533629768
% V (V) @ t=0.22
0.0068554407406752026
% es.normE (V/m) @ t=0.24
1.4791626065596453
% es.EX (V/m) @ t=0.24
0.4565636082015374
% es.EY (V/m) @ t=0.24
0.1106085263086185
% es.EZ (V/m) @ t=0.24
1.4025722841593704
% es.tEX (V/m) @ t=0.24
0.4565636082015416
% es.tEY (V/m) @ t=0.24
0
% es.tEZ (V/m) @ t=0.24
1.4025722841593709
% es.Ex (V/m) @ t=0.24
0.4565636082015374
% es.Ey (V/m) @ t=0.24
0.1106085263086185
% es.Ez (V/m) @ t=0.24
1.4025722841593704
% es.tEx (V/m) @ t=0.24
0.4565636082015416
% es.tEy (V/m) @ t=0.24
0
% es.tEz (V/m) @ t=0.24
1.4025722841593709
% V (V) @ t=0.24
0.006918086872454266
% es.normE (V/m) @ t=0.26
1.4925569918558617
% es.EX (V/m) @ t=0.26
0.46069796589907186
% es.EY (V/m) @ t=0.26
0.11161012993178265
% es.EZ (V/m) @ t=0.26
1.4152731149557636
% es.tEX (V/m) @ t=0.26
0.4606979658990724
% es.tEY (V/m) @ t=0.26
0
% es.tEZ (V/m) @ t=0.26
1.415273114955765
% es.Ex (V/m) @ t=0.26
0.46069796589907186
% es.Ey (V/m) @ t=0.26
0.11161012993178265
% es.Ez (V/m) @ t=0.26
1.4152731149557636
% es.tEx (V/m) @ t=0.26
0.4606979658990724
% es.tEy (V/m) @ t=0.26
0
% es.tEz (V/m) @ t=0.26
1.415273114955765
% V (V) @ t=0.26
0.00698073300423333
% es.normE (V/m) @ t=0.28
1.506706498191449
% es.EX (V/m) @ t=0.28
0.4650653296375161
% es.EY (V/m) @ t=0.28
0.11266826106215455
% es.EZ (V/m) @ t=0.28
1.4286899859411593
% es.tEX (V/m) @ t=0.28
0.46506532963751823
% es.tEY (V/m) @ t=0.28
0
% es.tEZ (V/m) @ t=0.28
1.428689985941169
% es.Ex (V/m) @ t=0.28
0.4650653296375161
% es.Ey (V/m) @ t=0.28
0.11266826106215455
% es.Ez (V/m) @ t=0.28
1.4286899859411593
% es.tEx (V/m) @ t=0.28
0.46506532963751823
% es.tEy (V/m) @ t=0.28
0
% es.tEz (V/m) @ t=0.28
1.428689985941169
% V (V) @ t=0.28
0.007046923698263185
% es.normE (V/m) @ t=0.3
1.5216153123205665
% es.EX (V/m) @ t=0.3
0.46966699131439815
% es.EY (V/m) @ t=0.3
0.11378323311542815
% es.EZ (V/m) @ t=0.3
1.442826867186663
% es.tEX (V/m) @ t=0.3
0.4696669913144049
% es.tEY (V/m) @ t=0.3
0
% es.tEZ (V/m) @ t=0.3
1.4428268671866746
% es.Ex (V/m) @ t=0.3
0.46966699131439815
% es.Ey (V/m) @ t=0.3
0.11378323311542815
% es.Ez (V/m) @ t=0.3
1.442826867186663
% es.tEx (V/m) @ t=0.3
0.4696669913144049
% es.tEy (V/m) @ t=0.3
0
% es.tEz (V/m) @ t=0.3
1.4428268671866746
% V (V) @ t=0.3
0.007116678607301318
% es.normE (V/m) @ t=0.32
1.5365241264497262
% es.EX (V/m) @ t=0.32
0.47426865299129384
% es.EY (V/m) @ t=0.32
0.11489820516870553
% es.EZ (V/m) @ t=0.32
1.45696374843217
% es.tEX (V/m) @ t=0.32
0.4742686529912916
% es.tEY (V/m) @ t=0.32
0
% es.tEZ (V/m) @ t=0.32
1.4569637484321714
% es.Ex (V/m) @ t=0.32
0.47426865299129384
% es.Ey (V/m) @ t=0.32
0.11489820516870553
% es.Ez (V/m) @ t=0.32
1.45696374843217
% es.tEx (V/m) @ t=0.32
0.4742686529912916
% es.tEy (V/m) @ t=0.32
0
% es.tEz (V/m) @ t=0.32
1.4569637484321714
% V (V) @ t=0.32
0.007186433516339449
% es.normE (V/m) @ t=0.34
1.5514329405789158
% es.EX (V/m) @ t=0.34
0.47887031466818
% es.EY (V/m) @ t=0.34
0.11601317722197602
% es.EZ (V/m) @ t=0.34
1.471100629677677
% es.tEX (V/m) @ t=0.34
0.4788703146681854
% es.tEY (V/m) @ t=0.34
0
% es.tEZ (V/m) @ t=0.34
1.471100629677677
% es.Ex (V/m) @ t=0.34
0.47887031466818
% es.Ey (V/m) @ t=0.34
0.11601317722197602
% es.Ez (V/m) @ t=0.34
1.471100629677677
% es.tEx (V/m) @ t=0.34
0.4788703146681854
% es.tEy (V/m) @ t=0.34
0
% es.tEz (V/m) @ t=0.34
1.471100629677677
% V (V) @ t=0.34
0.0072561884253775815
% es.normE (V/m) @ t=0.36
1.5663417547081284
% es.EX (V/m) @ t=0.36
0.4834719763450631
% es.EY (V/m) @ t=0.36
0.11712814927525705
% es.EZ (V/m) @ t=0.36
1.4852375109231737
% es.tEX (V/m) @ t=0.36
0.483471976345065
% es.tEY (V/m) @ t=0.36
0
% es.tEZ (V/m) @ t=0.36
1.4852375109231755
% es.Ex (V/m) @ t=0.36
0.4834719763450631
% es.Ey (V/m) @ t=0.36
0.11712814927525705
% es.Ez (V/m) @ t=0.36
1.4852375109231737
% es.tEx (V/m) @ t=0.36
0.483471976345065
% es.tEy (V/m) @ t=0.36
0
% es.tEz (V/m) @ t=0.36
1.4852375109231755
% V (V) @ t=0.36
0.007325943334415715
% es.normE (V/m) @ t=0.38
1.5812505688373857
% es.EX (V/m) @ t=0.38
0.48807363802195747
% es.EY (V/m) @ t=0.38
0.11824312132852932
% es.EZ (V/m) @ t=0.38
1.499374392168681
% es.tEX (V/m) @ t=0.38
0.4880736380219588
% es.tEY (V/m) @ t=0.38
0
% es.tEZ (V/m) @ t=0.38
1.4993743921686864
% es.Ex (V/m) @ t=0.38
0.48807363802195747
% es.Ey (V/m) @ t=0.38
0.11824312132852932
% es.Ez (V/m) @ t=0.38
1.499374392168681
% es.tEx (V/m) @ t=0.38
0.4880736380219588
% es.tEy (V/m) @ t=0.38
0
% es.tEz (V/m) @ t=0.38
1.4993743921686864
% V (V) @ t=0.38
0.0073956982434538465
% es.normE (V/m) @ t=0.4
1.5961593829666623
% es.EX (V/m) @ t=0.4
0.4926752996988448
% es.EY (V/m) @ t=0.4
0.11935809338181536
% es.EZ (V/m) @ t=0.4
1.5135112734141773
% es.tEX (V/m) @ t=0.4
0.4926752996988455
% es.tEY (V/m) @ t=0.4
0
% es.tEZ (V/m) @ t=0.4
1.513511273414185
% es.Ex (V/m) @ t=0.4
0.4926752996988448
% es.Ey (V/m) @ t=0.4
0.11935809338181536
% es.Ez (V/m) @ t=0.4
1.5135112734141773
% es.tEx (V/m) @ t=0.4
0.4926752996988455
% es.tEy (V/m) @ t=0.4
0
% es.tEz (V/m) @ t=0.4
1.513511273414185
% V (V) @ t=0.4
0.0074654531524919795
% es.normE (V/m) @ t=0.42
1.611068197095979
% es.EX (V/m) @ t=0.42
0.49727696137573585
% es.EY (V/m) @ t=0.42
0.12047306543508363
% es.EZ (V/m) @ t=0.42
1.5276481546596847
% es.tEX (V/m) @ t=0.42
0.4972769613757393
% es.tEY (V/m) @ t=0.42
0
% es.tEZ (V/m) @ t=0.42
1.5276481546596887
% es.Ex (V/m) @ t=0.42
0.49727696137573585
% es.Ey (V/m) @ t=0.42
0.12047306543508363
% es.Ez (V/m) @ t=0.42
1.5276481546596847
% es.tEx (V/m) @ t=0.42
0.4972769613757393
% es.tEy (V/m) @ t=0.42
0
% es.tEz (V/m) @ t=0.42
1.5276481546596887
% V (V) @ t=0.42
0.007535208061530111
% es.normE (V/m) @ t=0.44
1.6259770112253191
% es.EX (V/m) @ t=0.44
0.5018786230526195
% es.EY (V/m) @ t=0.44
0.12158803748835412
% es.EZ (V/m) @ t=0.44
1.5417850359051881
% es.tEX (V/m) @ t=0.44
0.5018786230526189
% es.tEY (V/m) @ t=0.44
0
% es.tEZ (V/m) @ t=0.44
1.5417850359051943
% es.Ex (V/m) @ t=0.44
0.5018786230526195
% es.Ey (V/m) @ t=0.44
0.12158803748835412
% es.Ez (V/m) @ t=0.44
1.5417850359051881
% es.tEx (V/m) @ t=0.44
0.5018786230526189
% es.tEy (V/m) @ t=0.44
0
% es.tEz (V/m) @ t=0.44
1.5417850359051943
% V (V) @ t=0.44
0.0076049629705682445
% es.normE (V/m) @ t=0.46
1.6408858253546934
% es.EX (V/m) @ t=0.46
0.5064802847295106
% es.EY (V/m) @ t=0.46
0.12270300954161706
% es.EZ (V/m) @ t=0.46
1.555921917150696
% es.tEX (V/m) @ t=0.46
0.5064802847295127
% es.tEY (V/m) @ t=0.46
0
% es.tEZ (V/m) @ t=0.46
1.5559219171507
% es.Ex (V/m) @ t=0.46
0.5064802847295106
% es.Ey (V/m) @ t=0.46
0.12270300954161706
% es.Ez (V/m) @ t=0.46
1.555921917150696
% es.tEx (V/m) @ t=0.46
0.5064802847295127
% es.tEy (V/m) @ t=0.46
0
% es.tEz (V/m) @ t=0.46
1.5559219171507
% V (V) @ t=0.46
0.0076747178796063775
% es.normE (V/m) @ t=0.48
1.6557946394840823
% es.EX (V/m) @ t=0.48
0.5110819464063835
% es.EY (V/m) @ t=0.48
0.12381798159488755
% es.EZ (V/m) @ t=0.48
1.5700587983961953
% es.tEX (V/m) @ t=0.48
0.5110819464063923
% es.tEY (V/m) @ t=0.48
0
% es.tEZ (V/m) @ t=0.48
1.570058798396202
% es.Ex (V/m) @ t=0.48
0.5110819464063835
% es.Ey (V/m) @ t=0.48
0.12381798159488755
% es.Ez (V/m) @ t=0.48
1.5700587983961953
% es.tEx (V/m) @ t=0.48
0.5110819464063923
% es.tEy (V/m) @ t=0.48
0
% es.tEz (V/m) @ t=0.48
1.570058798396202
% V (V) @ t=0.48
0.00774447278864451
% es.normE (V/m) @ t=0.5
1.6707034536135104
% es.EX (V/m) @ t=0.5
0.5156836080832816
% es.EY (V/m) @ t=0.5
0.12493295364816648
% es.EZ (V/m) @ t=0.5
1.5841956796416987
% es.tEX (V/m) @ t=0.5
0.5156836080832861
% es.tEY (V/m) @ t=0.5
0
% es.tEZ (V/m) @ t=0.5
1.5841956796417094
% es.Ex (V/m) @ t=0.5
0.5156836080832816
% es.Ey (V/m) @ t=0.5
0.12493295364816648
% es.Ez (V/m) @ t=0.5
1.5841956796416987
% es.tEx (V/m) @ t=0.5
0.5156836080832861
% es.tEy (V/m) @ t=0.5
0
% es.tEz (V/m) @ t=0.5
1.5841956796417094
% V (V) @ t=0.5
0.007814227697682643
% es.normE (V/m) @ t=0.52
1.6856122677429508
% es.EX (V/m) @ t=0.52
0.5202852697601631
% es.EY (V/m) @ t=0.52
0.12604792570145484
% es.EZ (V/m) @ t=0.52
1.5983325608871923
% es.tEX (V/m) @ t=0.52
0.5202852697601656
% es.tEY (V/m) @ t=0.52
0
% es.tEZ (V/m) @ t=0.52
1.598332560887206
% es.Ex (V/m) @ t=0.52
0.5202852697601631
% es.Ey (V/m) @ t=0.52
0.12604792570145484
% es.Ez (V/m) @ t=0.52
1.5983325608871923
% es.tEx (V/m) @ t=0.52
0.5202852697601656
% es.tEy (V/m) @ t=0.52
0
% es.tEz (V/m) @ t=0.52
1.598332560887206
% V (V) @ t=0.52
0.007883982606720775
% es.normE (V/m) @ t=0.54
1.7005332520483525
% es.EX (V/m) @ t=0.54
0.5248906893911828
% es.EY (V/m) @ t=0.54
0.12716380657404225
% es.EZ (V/m) @ t=0.54
1.6124809817591141
% es.tEX (V/m) @ t=0.54
0.5248906893911851
% es.tEY (V/m) @ t=0.54
0
% es.tEZ (V/m) @ t=0.54
1.6124809817591146
% es.Ex (V/m) @ t=0.54
0.5248906893911828
% es.Ey (V/m) @ t=0.54
0.12716380657404225
% es.Ez (V/m) @ t=0.54
1.6124809817591141
% es.tEx (V/m) @ t=0.54
0.5248906893911851
% es.tEy (V/m) @ t=0.54
0
% es.tEz (V/m) @ t=0.54
1.6124809817591146
% V (V) @ t=0.54
0.007953794176045016
% es.normE (V/m) @ t=0.56
1.7171521065349924
% es.EX (V/m) @ t=0.56
0.5300203839617912
% es.EY (V/m) @ t=0.56
0.12840647749682466
% es.EZ (V/m) @ t=0.56
1.6282393043878125
% es.tEX (V/m) @ t=0.56
0.5300203839617907
% es.tEY (V/m) @ t=0.56
0
% es.tEZ (V/m) @ t=0.56
1.6282393043878134
% es.Ex (V/m) @ t=0.56
0.5300203839617912
% es.Ey (V/m) @ t=0.56
0.12840647749682466
% es.Ez (V/m) @ t=0.56
1.6282393043878125
% es.tEx (V/m) @ t=0.56
0.5300203839617907
% es.tEy (V/m) @ t=0.56
0
% es.tEz (V/m) @ t=0.56
1.6282393043878134
% V (V) @ t=0.56
0.008031510463502067
% es.normE (V/m) @ t=0.58
1.7337709610216145
% es.EX (V/m) @ t=0.58
0.5351500785324108
% es.EY (V/m) @ t=0.58
0.12964914841957254
% es.EZ (V/m) @ t=0.58
1.643997627016482
% es.tEX (V/m) @ t=0.58
0.5351500785324106
% es.tEY (V/m) @ t=0.58
0
% es.tEZ (V/m) @ t=0.58
1.6439976270164838
% es.Ex (V/m) @ t=0.58
0.5351500785324108
% es.Ey (V/m) @ t=0.58
0.12964914841957254
% es.Ez (V/m) @ t=0.58
1.643997627016482
% es.tEx (V/m) @ t=0.58
0.5351500785324106
% es.tEy (V/m) @ t=0.58
0
% es.tEz (V/m) @ t=0.58
1.6439976270164838
% V (V) @ t=0.58
0.008109226750959118
% es.normE (V/m) @ t=0.6
1.7503898155082571
% es.EX (V/m) @ t=0.6
0.5402797731030325
% es.EY (V/m) @ t=0.6
0.13089181934235972
% es.EZ (V/m) @ t=0.6
1.65975594964516
% es.tEX (V/m) @ t=0.6
0.5402797731030375
% es.tEY (V/m) @ t=0.6
0
% es.tEZ (V/m) @ t=0.6
1.659755949645163
% es.Ex (V/m) @ t=0.6
0.5402797731030325
% es.Ey (V/m) @ t=0.6
0.13089181934235972
% es.Ez (V/m) @ t=0.6
1.65975594964516
% es.tEx (V/m) @ t=0.6
0.5402797731030375
% es.tEy (V/m) @ t=0.6
0
% es.tEz (V/m) @ t=0.6
1.659755949645163
% V (V) @ t=0.6
0.00818694303841617
% es.normE (V/m) @ t=0.62
1.767008669994926
% es.EX (V/m) @ t=0.62
0.5454094676736562
% es.EY (V/m) @ t=0.62
0.13213449026511503
% es.EZ (V/m) @ t=0.62
1.6755142722738583
% es.tEX (V/m) @ t=0.62
0.5454094676736574
% es.tEY (V/m) @ t=0.62
0
% es.tEZ (V/m) @ t=0.62
1.6755142722738618
% es.Ex (V/m) @ t=0.62
0.5454094676736562
% es.Ey (V/m) @ t=0.62
0.13213449026511503
% es.Ez (V/m) @ t=0.62
1.6755142722738583
% es.tEx (V/m) @ t=0.62
0.5454094676736574
% es.tEy (V/m) @ t=0.62
0
% es.tEz (V/m) @ t=0.62
1.6755142722738618
% V (V) @ t=0.62
0.008264659325873221
% es.normE (V/m) @ t=0.64
1.783627524481607
% es.EX (V/m) @ t=0.64
0.5505391622442802
% es.EY (V/m) @ t=0.64
0.1333771611879111
% es.EZ (V/m) @ t=0.64
1.6912725949025575
% es.tEX (V/m) @ t=0.64
0.5505391622442843
% es.tEY (V/m) @ t=0.64
0
% es.tEZ (V/m) @ t=0.64
1.6912725949025624
% es.Ex (V/m) @ t=0.64
0.5505391622442802
% es.Ey (V/m) @ t=0.64
0.1333771611879111
% es.Ez (V/m) @ t=0.64
1.6912725949025575
% es.tEx (V/m) @ t=0.64
0.5505391622442843
% es.tEy (V/m) @ t=0.64
0
% es.tEz (V/m) @ t=0.64
1.6912725949025624
% V (V) @ t=0.64
0.008342375613330273
% es.normE (V/m) @ t=0.66
1.8002463789682612
% es.EX (V/m) @ t=0.66
0.5556688568148928
% es.EY (V/m) @ t=0.66
0.13461983211066653
% es.EZ (V/m) @ t=0.66
1.707030917531227
% es.tEX (V/m) @ t=0.66
0.55566885681489
% es.tEY (V/m) @ t=0.66
0
% es.tEZ (V/m) @ t=0.66
1.707030917531231
% es.Ex (V/m) @ t=0.66
0.5556688568148928
% es.Ey (V/m) @ t=0.66
0.13461983211066653
% es.Ez (V/m) @ t=0.66
1.707030917531227
% es.tEx (V/m) @ t=0.66
0.55566885681489
% es.tEy (V/m) @ t=0.66
0
% es.tEz (V/m) @ t=0.66
1.707030917531231
% V (V) @ t=0.66
0.008420091900787324
% es.normE (V/m) @ t=0.68
1.8168652334549444
% es.EX (V/m) @ t=0.68
0.5607985513855087
% es.EY (V/m) @ t=0.68
0.13586250303346314
% es.EZ (V/m) @ t=0.68
1.7227892401599143
% es.tEX (V/m) @ t=0.68
0.5607985513855098
% es.tEY (V/m) @ t=0.68
0
% es.tEZ (V/m) @ t=0.68
1.7227892401599174
% es.Ex (V/m) @ t=0.68
0.5607985513855087
% es.Ey (V/m) @ t=0.68
0.13586250303346314
% es.Ez (V/m) @ t=0.68
1.7227892401599143
% es.tEx (V/m) @ t=0.68
0.5607985513855098
% es.tEy (V/m) @ t=0.68
0
% es.tEz (V/m) @ t=0.68
1.7227892401599174
% V (V) @ t=0.68
0.008497808188244377
% es.normE (V/m) @ t=0.7
1.8334840879416276
% es.EX (V/m) @ t=0.7
0.5659282459561329
% es.EY (V/m) @ t=0.7
0.1371051739562077
% es.EZ (V/m) @ t=0.7
1.738547562788595
% es.tEX (V/m) @ t=0.7
0.5659282459561368
% es.tEY (V/m) @ t=0.7
0
% es.tEZ (V/m) @ t=0.7
1.7385475627886091
% es.Ex (V/m) @ t=0.7
0.5659282459561329
% es.Ey (V/m) @ t=0.7
0.1371051739562077
% es.Ez (V/m) @ t=0.7
1.738547562788595
% es.tEx (V/m) @ t=0.7
0.5659282459561368
% es.tEy (V/m) @ t=0.7
0
% es.tEz (V/m) @ t=0.7
1.7385475627886091
% V (V) @ t=0.7
0.008575524475701427
% es.normE (V/m) @ t=0.72
1.8501029424283164
% es.EX (V/m) @ t=0.72
0.5710579405267422
% es.EY (V/m) @ t=0.72
0.13834784487898077
% es.EZ (V/m) @ t=0.72
1.7543058854172764
% es.tEX (V/m) @ t=0.72
0.5710579405267424
% es.tEY (V/m) @ t=0.72
0
% es.tEZ (V/m) @ t=0.72
1.7543058854172706
% es.Ex (V/m) @ t=0.72
0.5710579405267422
% es.Ey (V/m) @ t=0.72
0.13834784487898077
% es.Ez (V/m) @ t=0.72
1.7543058854172764
% es.tEx (V/m) @ t=0.72
0.5710579405267424
% es.tEy (V/m) @ t=0.72
0
% es.tEz (V/m) @ t=0.72
1.7543058854172706
% V (V) @ t=0.72
0.008653240763158479
% es.normE (V/m) @ t=0.74
1.8667217969150347
% es.EX (V/m) @ t=0.74
0.5761876350973788
% es.EY (V/m) @ t=0.74
0.13959051580176796
% es.EZ (V/m) @ t=0.74
1.7700642080459712
% es.tEX (V/m) @ t=0.74
0.5761876350973765
% es.tEY (V/m) @ t=0.74
0
% es.tEZ (V/m) @ t=0.74
1.77006420804598
% es.Ex (V/m) @ t=0.74
0.5761876350973788
% es.Ey (V/m) @ t=0.74
0.13959051580176796
% es.Ez (V/m) @ t=0.74
1.7700642080459712
% es.tEx (V/m) @ t=0.74
0.5761876350973765
% es.tEy (V/m) @ t=0.74
0
% es.tEz (V/m) @ t=0.74
1.77006420804598
% V (V) @ t=0.74
0.00873095705061553
% es.normE (V/m) @ t=0.76
1.883340651401746
% es.EX (V/m) @ t=0.76
0.5813173296679965
% es.EY (V/m) @ t=0.76
0.14083318672452638
% es.EZ (V/m) @ t=0.76
1.7858225306746593
% es.tEX (V/m) @ t=0.76
0.5813173296679963
% es.tEY (V/m) @ t=0.76
0
% es.tEZ (V/m) @ t=0.76
1.7858225306746576
% es.Ex (V/m) @ t=0.76
0.5813173296679965
% es.Ey (V/m) @ t=0.76
0.14083318672452638
% es.Ez (V/m) @ t=0.76
1.7858225306746593
% es.tEx (V/m) @ t=0.76
0.5813173296679963
% es.tEy (V/m) @ t=0.76
0
% es.tEz (V/m) @ t=0.76
1.7858225306746576
% V (V) @ t=0.76
0.00880867333807258
% es.normE (V/m) @ t=0.78
1.8999595058884542
% es.EX (V/m) @ t=0.78
0.5864470242386072
% es.EY (V/m) @ t=0.78
0.1420758576472947
% es.EZ (V/m) @ t=0.78
1.801580853303339
% es.tEX (V/m) @ t=0.78
0.5864470242386091
% es.tEY (V/m) @ t=0.78
0
% es.tEZ (V/m) @ t=0.78
1.8015808533033422
% es.Ex (V/m) @ t=0.78
0.5864470242386072
% es.Ey (V/m) @ t=0.78
0.1420758576472947
% es.Ez (V/m) @ t=0.78
1.801580853303339
% es.tEx (V/m) @ t=0.78
0.5864470242386091
% es.tEy (V/m) @ t=0.78
0
% es.tEz (V/m) @ t=0.78
1.8015808533033422
% V (V) @ t=0.78
0.008886389625529635
% es.normE (V/m) @ t=0.8
1.9165783603751692
% es.EX (V/m) @ t=0.8
0.5915767188092312
% es.EY (V/m) @ t=0.8
0.14331852857007432
% es.EZ (V/m) @ t=0.8
1.8173391759320134
% es.tEX (V/m) @ t=0.8
0.591576718809236
% es.tEY (V/m) @ t=0.8
0
% es.tEZ (V/m) @ t=0.8
1.8173391759320214
% es.Ex (V/m) @ t=0.8
0.5915767188092312
% es.Ey (V/m) @ t=0.8
0.14331852857007432
% es.Ez (V/m) @ t=0.8
1.8173391759320134
% es.tEx (V/m) @ t=0.8
0.591576718809236
% es.tEy (V/m) @ t=0.8
0
% es.tEz (V/m) @ t=0.8
1.8173391759320214
% V (V) @ t=0.8
0.008964105912986685
% es.normE (V/m) @ t=0.82
1.9342002790611632
% es.EX (V/m) @ t=0.82
0.5970159062010176
% es.EY (V/m) @ t=0.82
0.14463630508856584
% es.EZ (V/m) @ t=0.82
1.834048655127107
% es.tEX (V/m) @ t=0.82
0.5970159062010154
% es.tEY (V/m) @ t=0.82
0
% es.tEZ (V/m) @ t=0.82
1.8340486551271091
% es.Ex (V/m) @ t=0.82
0.5970159062010176
% es.Ey (V/m) @ t=0.82
0.14463630508856584
% es.Ez (V/m) @ t=0.82
1.834048655127107
% es.tEx (V/m) @ t=0.82
0.5970159062010154
% es.tEy (V/m) @ t=0.82
0
% es.tEz (V/m) @ t=0.82
1.8340486551271091
% V (V) @ t=0.82
0.00904653425116482
% es.normE (V/m) @ t=0.84
1.9527645038451258
% es.EX (V/m) @ t=0.84
0.6027458396615911
% es.EY (V/m) @ t=0.84
0.1460246378694653
% es.EZ (V/m) @ t=0.84
1.851651676962117
% es.tEX (V/m) @ t=0.84
0.602745839661587
% es.tEY (V/m) @ t=0.84
0
% es.tEZ (V/m) @ t=0.84
1.851651676962124
% es.Ex (V/m) @ t=0.84
0.6027458396615911
% es.Ey (V/m) @ t=0.84
0.1460246378694653
% es.Ez (V/m) @ t=0.84
1.851651676962117
% es.tEx (V/m) @ t=0.84
0.602745839661587
% es.tEy (V/m) @ t=0.84
0
% es.tEz (V/m) @ t=0.84
1.851651676962124
% V (V) @ t=0.84
0.009133389219394746
% es.normE (V/m) @ t=0.86
1.971328728629125
% es.EX (V/m) @ t=0.86
0.6084757731221584
% es.EY (V/m) @ t=0.86
0.1474129706503402
% es.EZ (V/m) @ t=0.86
1.8692546987971377
% es.tEX (V/m) @ t=0.86
0.6084757731221586
% es.tEY (V/m) @ t=0.86
0
% es.tEZ (V/m) @ t=0.86
1.8692546987971426
% es.Ex (V/m) @ t=0.86
0.6084757731221584
% es.Ey (V/m) @ t=0.86
0.1474129706503402
% es.Ez (V/m) @ t=0.86
1.8692546987971377
% es.tEx (V/m) @ t=0.86
0.6084757731221586
% es.tEy (V/m) @ t=0.86
0
% es.tEz (V/m) @ t=0.86
1.8692546987971426
% V (V) @ t=0.86
0.009220244187624672
% es.normE (V/m) @ t=0.88
1.9898929534131362
% es.EX (V/m) @ t=0.88
0.6142057065827244
% es.EY (V/m) @ t=0.88
0.1488013034312181
% es.EZ (V/m) @ t=0.88
1.8868577206321397
% es.tEX (V/m) @ t=0.88
0.6142057065827302
% es.tEY (V/m) @ t=0.88
0
% es.tEZ (V/m) @ t=0.88
1.8868577206321433
% es.Ex (V/m) @ t=0.88
0.6142057065827244
% es.Ey (V/m) @ t=0.88
0.1488013034312181
% es.Ez (V/m) @ t=0.88
1.8868577206321397
% es.tEx (V/m) @ t=0.88
0.6142057065827302
% es.tEy (V/m) @ t=0.88
0
% es.tEz (V/m) @ t=0.88
1.8868577206321433
% V (V) @ t=0.88
0.0093070991558546
% es.normE (V/m) @ t=0.9
2.008457178197198
% es.EX (V/m) @ t=0.9
0.6199356400432968
% es.EY (V/m) @ t=0.9
0.150189636212121
% es.EZ (V/m) @ t=0.9
1.904460742467161
% es.tEX (V/m) @ t=0.9
0.6199356400432947
% es.tEY (V/m) @ t=0.9
0
% es.tEZ (V/m) @ t=0.9
1.9044607424671653
% es.Ex (V/m) @ t=0.9
0.6199356400432968
% es.Ey (V/m) @ t=0.9
0.150189636212121
% es.Ez (V/m) @ t=0.9
1.904460742467161
% es.tEx (V/m) @ t=0.9
0.6199356400432947
% es.tEy (V/m) @ t=0.9
0
% es.tEz (V/m) @ t=0.9
1.9044607424671653
% V (V) @ t=0.9
0.009393954124084525
% es.normE (V/m) @ t=0.92
2.027021402981264
% es.EX (V/m) @ t=0.92
0.6256655735038579
% es.EY (V/m) @ t=0.92
0.15157796899299247
% es.EZ (V/m) @ t=0.92
1.9220637643021634
% es.tEX (V/m) @ t=0.92
0.6256655735038592
% es.tEY (V/m) @ t=0.92
0
% es.tEZ (V/m) @ t=0.92
1.9220637643021714
% es.Ex (V/m) @ t=0.92
0.6256655735038579
% es.Ey (V/m) @ t=0.92
0.15157796899299247
% es.Ez (V/m) @ t=0.92
1.9220637643021634
% es.tEx (V/m) @ t=0.92
0.6256655735038592
% es.tEy (V/m) @ t=0.92
0
% es.tEz (V/m) @ t=0.92
1.9220637643021714
% V (V) @ t=0.92
0.009480809092314451
% es.normE (V/m) @ t=0.94
2.045585627765366
% es.EX (V/m) @ t=0.94
0.6313955069644263
% es.EY (V/m) @ t=0.94
0.15296630177390447
% es.EZ (V/m) @ t=0.94
1.939666786137169
% es.tEX (V/m) @ t=0.94
0.6313955069644237
% es.tEY (V/m) @ t=0.94
0
% es.tEZ (V/m) @ t=0.94
1.9396667861371704
% es.Ex (V/m) @ t=0.94
0.6313955069644263
% es.Ey (V/m) @ t=0.94
0.15296630177390447
% es.Ez (V/m) @ t=0.94
1.939666786137169
% es.tEx (V/m) @ t=0.94
0.6313955069644237
% es.tEy (V/m) @ t=0.94
0
% es.tEz (V/m) @ t=0.94
1.9396667861371704
% V (V) @ t=0.94
0.009567664060544377
% es.normE (V/m) @ t=0.96
2.0641498525494932
% es.EX (V/m) @ t=0.96
0.6371254404249942
% es.EY (V/m) @ t=0.96
0.15435463455478793
% es.EZ (V/m) @ t=0.96
1.9572698079721764
% es.tEX (V/m) @ t=0.96
0.6371254404249882
% es.tEY (V/m) @ t=0.96
0
% es.tEZ (V/m) @ t=0.96
1.9572698079721906
% es.Ex (V/m) @ t=0.96
0.6371254404249942
% es.Ey (V/m) @ t=0.96
0.15435463455478793
% es.Ez (V/m) @ t=0.96
1.9572698079721764
% es.tEx (V/m) @ t=0.96
0.6371254404249882
% es.tEy (V/m) @ t=0.96
0
% es.tEz (V/m) @ t=0.96
1.9572698079721906
% V (V) @ t=0.96
0.009654519028774303
% es.normE (V/m) @ t=0.98
2.0827140773336623
% es.EX (V/m) @ t=0.98
0.642855373885567
% es.EY (V/m) @ t=0.98
0.15574296733565707
% es.EZ (V/m) @ t=0.98
1.9748728298072002
% es.tEX (V/m) @ t=0.98
0.642855373885574
% es.tEY (V/m) @ t=0.98
0
% es.tEZ (V/m) @ t=0.98
1.9748728298071985
% es.Ex (V/m) @ t=0.98
0.642855373885567
% es.Ey (V/m) @ t=0.98
0.15574296733565707
% es.Ez (V/m) @ t=0.98
1.9748728298072002
% es.tEx (V/m) @ t=0.98
0.642855373885574
% es.tEy (V/m) @ t=0.98
0
% es.tEz (V/m) @ t=0.98
1.9748728298071985
% V (V) @ t=0.98
0.00974137399700423
% es.normE (V/m) @ t=1
2.1012783021178354
% es.EX (V/m) @ t=1
0.6485853073461223
% es.EY (V/m) @ t=1
0.15713130011653942
% es.EZ (V/m) @ t=1
1.9924758516422059
% es.tEX (V/m) @ t=1
0.6485853073461243
% es.tEY (V/m) @ t=1
0
% es.tEZ (V/m) @ t=1
1.9924758516422045
% es.Ex (V/m) @ t=1
0.6485853073461223
% es.Ey (V/m) @ t=1
0.15713130011653942
% es.Ez (V/m) @ t=1
1.9924758516422059
% es.tEx (V/m) @ t=1
0.6485853073461243
% es.tEy (V/m) @ t=1
0
% es.tEz (V/m) @ t=1
1.9924758516422045
% V (V) @ t=1
0.009828228965234158
% es.normE (V/m) @ t=1.02
2.1198425269020365
% es.EX (V/m) @ t=1.02
0.6543152408066945
% es.EY (V/m) @ t=1.02
0.15851963289743343
% es.EZ (V/m) @ t=1.02
2.0100788734772097
% es.tEX (V/m) @ t=1.02
0.654315240806703
% es.tEY (V/m) @ t=1.02
0
% es.tEZ (V/m) @ t=1.02
2.0100788734772177
% es.Ex (V/m) @ t=1.02
0.6543152408066945
% es.Ey (V/m) @ t=1.02
0.15851963289743343
% es.Ez (V/m) @ t=1.02
2.0100788734772097
% es.tEx (V/m) @ t=1.02
0.654315240806703
% es.tEy (V/m) @ t=1.02
0
% es.tEz (V/m) @ t=1.02
2.0100788734772177
% V (V) @ t=1.02
0.009915083933464084
% es.normE (V/m) @ t=1.04
2.1384067516862553
% es.EX (V/m) @ t=1.04
0.660045174267254
% es.EY (V/m) @ t=1.04
0.15990796567830667
% es.EZ (V/m) @ t=1.04
2.0276818953122118
% es.tEX (V/m) @ t=1.04
0.6600451742672604
% es.tEY (V/m) @ t=1.04
0
% es.tEZ (V/m) @ t=1.04
2.0276818953122238
% es.Ex (V/m) @ t=1.04
0.660045174267254
% es.Ey (V/m) @ t=1.04
0.15990796567830667
% es.Ez (V/m) @ t=1.04