% Model:              1 neuron.mph
% Version:            COMSOL 6.1.0.252
% Date:               Mar 18 2023, 11:53
% Dimension:          0
% Nodes:              14017
% Expressions:        14017
% Description:        Electric field norm, Electric field, X component, Electric field, Y component, Electric field, Z component, Tangential electric field, X component, Tangential electric field, Y component, Tangential electric field, Z component, Electric field, x component, Electric field, y component, Electric field, z component, Tangential electric field, x component, Tangential electric field, y component, Tangential electric field, z component, Electric potential
% Length unit:        mm
% x
1.33
% y
12.2
% z
1
% es.normE (V/m) @ t=0
1.5560987389800331
% es.EX (V/m) @ t=0
0.48031075047222027
% es.EY (V/m) @ t=0
0.11636163214565898
% es.EZ (V/m) @ t=0
1.475524779445431
% es.tEX (V/m) @ t=0
0.4803107504722277
% es.tEY (V/m) @ t=0
0
% es.tEZ (V/m) @ t=0
1.4755247794454274
% es.Ex (V/m) @ t=0
0.48031075047222027
% es.Ey (V/m) @ t=0
0.11636163214565898
% es.Ez (V/m) @ t=0
1.475524779445431
% es.tEx (V/m) @ t=0
0.4803107504722277
% es.tEy (V/m) @ t=0
0
% es.tEz (V/m) @ t=0
1.4755247794454274
% V (V) @ t=0
0.007277917721453863
% es.normE (V/m) @ t=0.02
1.3440202588775194
% es.EX (V/m) @ t=0.02
0.41484988261151556
% es.EY (V/m) @ t=0.02
0.10050287161743238
% es.EZ (V/m) @ t=0.02
1.274427609449353
% es.tEX (V/m) @ t=0.02
0.41484988261151656
% es.tEY (V/m) @ t=0.02
0
% es.tEZ (V/m) @ t=0.02
1.2744276094493587
% es.Ex (V/m) @ t=0.02
0.41484988261151556
% es.Ey (V/m) @ t=0.02
0.10050287161743238
% es.Ez (V/m) @ t=0.02
1.274427609449353
% es.tEx (V/m) @ t=0.02
0.41484988261151656
% es.tEy (V/m) @ t=0.02
0
% es.tEz (V/m) @ t=0.02
1.2744276094493587
% V (V) @ t=0.02
0.006286020649434874
% es.normE (V/m) @ t=0.04
1.3563838895592895
% es.EX (V/m) @ t=0.04
0.4186660830906823
% es.EY (V/m) @ t=0.04
0.1014273979086619
% es.EZ (V/m) @ t=0.04
1.2861510578544095
% es.tEX (V/m) @ t=0.04
0.41866608309068454
% es.tEY (V/m) @ t=0.04
0
% es.tEZ (V/m) @ t=0.04
1.2861510578544202
% es.Ex (V/m) @ t=0.04
0.4186660830906823
% es.Ey (V/m) @ t=0.04
0.1014273979086619
% es.Ez (V/m) @ t=0.04
1.2861510578544095
% es.tEx (V/m) @ t=0.04
0.41866608309068454
% es.tEy (V/m) @ t=0.04
0
% es.tEz (V/m) @ t=0.04
1.2861510578544202
% V (V) @ t=0.04
0.006343845616419119
% es.normE (V/m) @ t=0.06
1.3688598715470326
% es.EX (V/m) @ t=0.06
0.42251696229379887
% es.EY (V/m) @ t=0.06
0.10236032390233307
% es.EZ (V/m) @ t=0.06
1.2979810402070413
% es.tEX (V/m) @ t=0.06
0.42251696229380187
% es.tEY (V/m) @ t=0.06
0
% es.tEZ (V/m) @ t=0.06
1.2979810402070457
% es.Ex (V/m) @ t=0.06
0.42251696229379887
% es.Ey (V/m) @ t=0.06
0.10236032390233307
% es.Ez (V/m) @ t=0.06
1.2979810402070413
% es.tEx (V/m) @ t=0.06
0.42251696229380187
% es.tEy (V/m) @ t=0.06
0
% es.tEz (V/m) @ t=0.06
1.2979810402070457
% V (V) @ t=0.06
0.00640219616219609
% es.normE (V/m) @ t=0.08
1.38152422032607
% es.EX (V/m) @ t=0.08
0.426425983430161
% es.EY (V/m) @ t=0.08
0.10330733525096303
% es.EZ (V/m) @ t=0.08
1.3099896358432614
% es.tEX (V/m) @ t=0.08
0.426425983430164
% es.tEY (V/m) @ t=0.08
0
% es.tEZ (V/m) @ t=0.08
1.3099896358432659
% es.Ex (V/m) @ t=0.08
0.426425983430161
% es.Ey (V/m) @ t=0.08
0.10330733525096303
% es.Ez (V/m) @ t=0.08
1.3099896358432614
% es.tEx (V/m) @ t=0.08
0.426425983430164
% es.tEy (V/m) @ t=0.08
0
% es.tEz (V/m) @ t=0.08
1.3099896358432659
% V (V) @ t=0.08
0.0064614277253700865
% es.normE (V/m) @ t=0.1
1.3943237623562013
% es.EX (V/m) @ t=0.1
0.43037673377434094
% es.EY (V/m) @ t=0.1
0.10426445583868238
% es.EZ (V/m) @ t=0.1
1.3221264245135678
% es.tEX (V/m) @ t=0.1
0.43037673377434515
% es.tEY (V/m) @ t=0.1
0
% es.tEZ (V/m) @ t=0.1
1.3221264245135664
% es.Ex (V/m) @ t=0.1
0.43037673377434094
% es.Ey (V/m) @ t=0.1
0.10426445583868238
% es.Ez (V/m) @ t=0.1
1.3221264245135678
% es.tEx (V/m) @ t=0.1
0.43037673377434515
% es.tEy (V/m) @ t=0.1
0
% es.tEz (V/m) @ t=0.1
1.3221264245135664
% V (V) @ t=0.1
0.006521291605978515
% es.normE (V/m) @ t=0.12
1.4071233043863385
% es.EX (V/m) @ t=0.12
0.4343274841185134
% es.EY (V/m) @ t=0.12
0.10522157642641794
% es.EZ (V/m) @ t=0.12
1.3342632131838816
% es.tEX (V/m) @ t=0.12
0.4343274841185156
% es.tEY (V/m) @ t=0.12
0
% es.tEZ (V/m) @ t=0.12
1.3342632131838865
% es.Ex (V/m) @ t=0.12
0.4343274841185134
% es.Ey (V/m) @ t=0.12
0.10522157642641794
% es.Ez (V/m) @ t=0.12
1.3342632131838816
% es.tEx (V/m) @ t=0.12
0.4343274841185156
% es.tEy (V/m) @ t=0.12
0
% es.tEz (V/m) @ t=0.12
1.3342632131838865
% V (V) @ t=0.12
0.006581155486586945
% es.normE (V/m) @ t=0.14
1.420042204680028
% es.EX (V/m) @ t=0.14
0.4383150759944934
% es.EY (V/m) @ t=0.14
0.10618762268230353
% es.EZ (V/m) @ t=0.14
1.3465131797855991
% es.tEX (V/m) @ t=0.14
0.4383150759944954
% es.tEY (V/m) @ t=0.14
0
% es.tEZ (V/m) @ t=0.14
1.3465131797856102
% es.Ex (V/m) @ t=0.14
0.4383150759944934
% es.Ey (V/m) @ t=0.14
0.10618762268230353
% es.Ez (V/m) @ t=0.14
1.3465131797855991
% es.tEx (V/m) @ t=0.14
0.4383150759944954
% es.tEy (V/m) @ t=0.14
0
% es.tEz (V/m) @ t=0.14
1.3465131797856102
% V (V) @ t=0.14
0.006641577588437048
% es.normE (V/m) @ t=0.16
1.4335264429415342
% es.EX (V/m) @ t=0.16
0.4424771670303833
% es.EY (V/m) @ t=0.16
0.1071959451825304
% es.EZ (V/m) @ t=0.16
1.3592992113386417
% es.tEX (V/m) @ t=0.16
0.4424771670303862
% es.tEY (V/m) @ t=0.16
0
% es.tEZ (V/m) @ t=0.16
1.3592992113386408
% es.Ex (V/m) @ t=0.16
0.4424771670303833
% es.Ey (V/m) @ t=0.16
0.1071959451825304
% es.Ez (V/m) @ t=0.16
1.3592992113386417
% es.tEx (V/m) @ t=0.16
0.4424771670303862
% es.tEy (V/m) @ t=0.16
0
% es.tEz (V/m) @ t=0.16
1.3592992113386408
% V (V) @ t=0.16
0.006704643693751323
% es.normE (V/m) @ t=0.18
1.4470106812030346
% es.EX (V/m) @ t=0.18
0.44663925806626836
% es.EY (V/m) @ t=0.18
0.10820426768274838
% es.EZ (V/m) @ t=0.18
1.3720852428916808
% es.tEX (V/m) @ t=0.18
0.44663925806626636
% es.tEY (V/m) @ t=0.18
0
% es.tEZ (V/m) @ t=0.18
1.372085242891691
% es.Ex (V/m) @ t=0.18
0.44663925806626836
% es.Ey (V/m) @ t=0.18
0.10820426768274838
% es.Ez (V/m) @ t=0.18
1.3720852428916808
% es.tEx (V/m) @ t=0.18
0.44663925806626636
% es.tEy (V/m) @ t=0.18
0
% es.tEz (V/m) @ t=0.18
1.372085242891691
% V (V) @ t=0.18
0.006767709799065595
% es.normE (V/m) @ t=0.2
1.4604949194645331
% es.EX (V/m) @ t=0.2
0.45080134910216174
% es.EY (V/m) @ t=0.2
0.10921259018295781
% es.EZ (V/m) @ t=0.2
1.3848712744447158
% es.tEX (V/m) @ t=0.2
0.4508013491021643
% es.tEY (V/m) @ t=0.2
0
% es.tEZ (V/m) @ t=0.2
1.3848712744447216
% es.Ex (V/m) @ t=0.2
0.45080134910216174
% es.Ey (V/m) @ t=0.2
0.10921259018295781
% es.Ez (V/m) @ t=0.2
1.3848712744447158
% es.tEx (V/m) @ t=0.2
0.4508013491021643
% es.tEy (V/m) @ t=0.2
0
% es.tEz (V/m) @ t=0.2
1.3848712744447216
% V (V) @ t=0.2
0.0068307759043798695
% es.normE (V/m) @ t=0.22
1.473979157726046
% es.EX (V/m) @ t=0.22
0.45496344013805556
% es.EY (V/m) @ t=0.22
0.11022091268317924
% es.EZ (V/m) @ t=0.22
1.397657305997765
% es.tEX (V/m) @ t=0.22
0.4549634401380587
% es.tEY (V/m) @ t=0.22
0
% es.tEZ (V/m) @ t=0.22
1.3976573059977664
% es.Ex (V/m) @ t=0.22
0.45496344013805556
% es.Ey (V/m) @ t=0.22
0.11022091268317924
% es.Ez (V/m) @ t=0.22
1.397657305997765
% es.tEx (V/m) @ t=0.22
0.4549634401380587
% es.tEy (V/m) @ t=0.22
0
% es.tEz (V/m) @ t=0.22
1.3976573059977664
% V (V) @ t=0.22
0.006893842009694144
% es.normE (V/m) @ t=0.24
1.4874633959875383
% es.EX (V/m) @ t=0.24
0.45912553117393895
% es.EY (V/m) @ t=0.24
0.11122923518339567
% es.EZ (V/m) @ t=0.24
1.410443337550796
% es.tEX (V/m) @ t=0.24
0.45912553117394594
% es.tEY (V/m) @ t=0.24
0
% es.tEZ (V/m) @ t=0.24
1.410443337550797
% es.Ex (V/m) @ t=0.24
0.45912553117393895
% es.Ey (V/m) @ t=0.24
0.11122923518339567
% es.Ez (V/m) @ t=0.24
1.410443337550796
% es.tEx (V/m) @ t=0.24
0.45912553117394594
% es.tEy (V/m) @ t=0.24
0
% es.tEz (V/m) @ t=0.24
1.410443337550797
% V (V) @ t=0.24
0.006956908115008419
% es.normE (V/m) @ t=0.26
1.5009476342490466
% es.EX (V/m) @ t=0.26
0.46328762220983577
% es.EY (V/m) @ t=0.26
0.11223755768362065
% es.EZ (V/m) @ t=0.26
1.4232293691038391
% es.tEX (V/m) @ t=0.26
0.4632876222098332
% es.tEY (V/m) @ t=0.26
0
% es.tEZ (V/m) @ t=0.26
1.4232293691038507
% es.Ex (V/m) @ t=0.26
0.46328762220983577
% es.Ey (V/m) @ t=0.26
0.11223755768362065
% es.Ez (V/m) @ t=0.26
1.4232293691038391
% es.tEx (V/m) @ t=0.26
0.4632876222098332
% es.tEy (V/m) @ t=0.26
0
% es.tEz (V/m) @ t=0.26
1.4232293691038507
% V (V) @ t=0.26
0.007019974220322692
% es.normE (V/m) @ t=0.28
1.5149848135023245
% es.EX (V/m) @ t=0.28
0.46762038615373214
% es.EY (V/m) @ t=0.28
0.1132871756844478
% es.EZ (V/m) @ t=0.28
1.4365397145451837
% es.tEX (V/m) @ t=0.28
0.46762038615373314
% es.tEY (V/m) @ t=0.28
0
% es.tEZ (V/m) @ t=0.28
1.4365397145451873
% es.Ex (V/m) @ t=0.28
0.46762038615373214
% es.Ey (V/m) @ t=0.28
0.1132871756844478
% es.Ez (V/m) @ t=0.28
1.4365397145451837
% es.tEx (V/m) @ t=0.28
0.46762038615373314
% es.tEy (V/m) @ t=0.28
0
% es.tEz (V/m) @ t=0.28
1.4365397145451873
% V (V) @ t=0.28
0.00708562991300743
% es.normE (V/m) @ t=0.3
1.5300108672167614
% es.EX (V/m) @ t=0.3
0.4722583799186235
% es.EY (V/m) @ t=0.3
0.11441064616961938
% es.EZ (V/m) @ t=0.3
1.450787738005479
% es.tEX (V/m) @ t=0.3
0.4722583799186211
% es.tEY (V/m) @ t=0.3
0
% es.tEZ (V/m) @ t=0.3
1.450787738005479
% es.Ex (V/m) @ t=0.3
0.4722583799186235
% es.Ey (V/m) @ t=0.3
0.11441064616961938
% es.Ez (V/m) @ t=0.3
1.450787738005479
% es.tEx (V/m) @ t=0.3
0.4722583799186211
% es.tEy (V/m) @ t=0.3
0
% es.tEz (V/m) @ t=0.3
1.450787738005479
% V (V) @ t=0.3
0.007155916799352353
% es.normE (V/m) @ t=0.32
1.5450369209312105
% es.EX (V/m) @ t=0.32
0.4768963736835077
% es.EY (V/m) @ t=0.32
0.11553411665477187
% es.EZ (V/m) @ t=0.32
1.465035761465769
% es.tEX (V/m) @ t=0.32
0.4768963736835019
% es.tEY (V/m) @ t=0.32
0
% es.tEZ (V/m) @ t=0.32
1.4650357614657779
% es.Ex (V/m) @ t=0.32
0.4768963736835077
% es.Ey (V/m) @ t=0.32
0.11553411665477187
% es.Ez (V/m) @ t=0.32
1.465035761465769
% es.tEx (V/m) @ t=0.32
0.4768963736835019
% es.tEy (V/m) @ t=0.32
0
% es.tEz (V/m) @ t=0.32
1.4650357614657779
% V (V) @ t=0.32
0.007226203685697277
% es.normE (V/m) @ t=0.34
1.5600629746456933
% es.EX (V/m) @ t=0.34
0.48153436744839373
% es.EY (V/m) @ t=0.34
0.11665758713993468
% es.EZ (V/m) @ t=0.34
1.4792837849260714
% es.tEX (V/m) @ t=0.34
0.48153436744839695
% es.tEY (V/m) @ t=0.34
0
% es.tEZ (V/m) @ t=0.34
1.4792837849260696
% es.Ex (V/m) @ t=0.34
0.48153436744839373
% es.Ey (V/m) @ t=0.34
0.11665758713993468
% es.Ez (V/m) @ t=0.34
1.4792837849260714
% es.tEx (V/m) @ t=0.34
0.48153436744839695
% es.tEy (V/m) @ t=0.34
0
% es.tEz (V/m) @ t=0.34
1.4792837849260696
% V (V) @ t=0.34
0.007296490572042202
% es.normE (V/m) @ t=0.36
1.57508902836019
% es.EX (V/m) @ t=0.36
0.4861723612132749
% es.EY (V/m) @ t=0.36
0.11778105762508706
% es.EZ (V/m) @ t=0.36
1.4935318083863702
% es.tEX (V/m) @ t=0.36
0.4861723612132707
% es.tEY (V/m) @ t=0.36
0
% es.tEZ (V/m) @ t=0.36
1.4935318083863685
% es.Ex (V/m) @ t=0.36
0.4861723612132749
% es.Ey (V/m) @ t=0.36
0.11778105762508706
% es.Ez (V/m) @ t=0.36
1.4935318083863702
% es.tEx (V/m) @ t=0.36
0.4861723612132707
% es.tEy (V/m) @ t=0.36
0
% es.tEz (V/m) @ t=0.36
1.4935318083863685
% V (V) @ t=0.36
0.007366777458387126
% es.normE (V/m) @ t=0.38
1.5901150820747034
% es.EX (V/m) @ t=0.38
0.49081035497815584
% es.EY (V/m) @ t=0.38
0.11890452811025332
% es.EZ (V/m) @ t=0.38
1.507779831846665
% es.tEX (V/m) @ t=0.38
0.4908103549781586
% es.tEY (V/m) @ t=0.38
0
% es.tEZ (V/m) @ t=0.38
1.5077798318466744
% es.Ex (V/m) @ t=0.38
0.49081035497815584
% es.Ey (V/m) @ t=0.38
0.11890452811025332
% es.Ez (V/m) @ t=0.38
1.507779831846665
% es.tEx (V/m) @ t=0.38
0.4908103549781586
% es.tEy (V/m) @ t=0.38
0
% es.tEz (V/m) @ t=0.38
1.5077798318466744
% V (V) @ t=0.38
0.00743706434473205
% es.normE (V/m) @ t=0.4
1.6051411357892478
% es.EX (V/m) @ t=0.4
0.49544834874305443
% es.EY (V/m) @ t=0.4
0.12002799859542312
% es.EZ (V/m) @ t=0.4
1.522027855306967
% es.tEX (V/m) @ t=0.4
0.49544834874305366
% es.tEY (V/m) @ t=0.4
0
% es.tEZ (V/m) @ t=0.4
1.522027855306968
% es.Ex (V/m) @ t=0.4
0.49544834874305443
% es.Ey (V/m) @ t=0.4
0.12002799859542312
% es.Ez (V/m) @ t=0.4
1.522027855306967
% es.tEx (V/m) @ t=0.4
0.49544834874305366
% es.tEy (V/m) @ t=0.4
0
% es.tEz (V/m) @ t=0.4
1.522027855306968
% V (V) @ t=0.4
0.007507351231076974
% es.normE (V/m) @ t=0.42
1.6201671895037835
% es.EX (V/m) @ t=0.42
0.500086342507926
% es.EY (V/m) @ t=0.42
0.12115146908056507
% es.EZ (V/m) @ t=0.42
1.5362758787672517
% es.tEX (V/m) @ t=0.42
0.5000863425079274
% es.tEY (V/m) @ t=0.42
0
% es.tEZ (V/m) @ t=0.42
1.536275878767258
% es.Ex (V/m) @ t=0.42
0.500086342507926
% es.Ey (V/m) @ t=0.42
0.12115146908056507
% es.Ez (V/m) @ t=0.42
1.5362758787672517
% es.tEx (V/m) @ t=0.42
0.5000863425079274
% es.tEy (V/m) @ t=0.42
0
% es.tEz (V/m) @ t=0.42
1.536275878767258
% V (V) @ t=0.42
0.007577638117421898
% es.normE (V/m) @ t=0.44
1.6351932432183598
% es.EX (V/m) @ t=0.44
0.504724336272816
% es.EY (V/m) @ t=0.44
0.12227493956572288
% es.EZ (V/m) @ t=0.44
1.5505239022275532
% es.tEX (V/m) @ t=0.44
0.5047243362728224
% es.tEY (V/m) @ t=0.44
0
% es.tEZ (V/m) @ t=0.44
1.5505239022275585
% es.Ex (V/m) @ t=0.44
0.504724336272816
% es.Ey (V/m) @ t=0.44
0.12227493956572288
% es.Ez (V/m) @ t=0.44
1.5505239022275532
% es.tEx (V/m) @ t=0.44
0.5047243362728224
% es.tEy (V/m) @ t=0.44
0
% es.tEz (V/m) @ t=0.44
1.5505239022275585
% V (V) @ t=0.44
0.007647925003766823
% es.normE (V/m) @ t=0.46
1.6502192969329337
% es.EX (V/m) @ t=0.46
0.509362330037695
% es.EY (V/m) @ t=0.46
0.12339841005089669
% es.EZ (V/m) @ t=0.46
1.5647719256878365
% es.tEX (V/m) @ t=0.46
0.5093623300376962
% es.tEY (V/m) @ t=0.46
0
% es.tEZ (V/m) @ t=0.46
1.564771925687836
% es.Ex (V/m) @ t=0.46
0.509362330037695
% es.Ey (V/m) @ t=0.46
0.12339841005089669
% es.Ez (V/m) @ t=0.46
1.5647719256878365
% es.tEx (V/m) @ t=0.46
0.5093623300376962
% es.tEy (V/m) @ t=0.46
0
% es.tEz (V/m) @ t=0.46
1.564771925687836
% V (V) @ t=0.46
0.007718211890111747
% es.normE (V/m) @ t=0.48
1.6652453506475504
% es.EX (V/m) @ t=0.48
0.5140003238025921
% es.EY (V/m) @ t=0.48
0.12452188053604507
% es.EZ (V/m) @ t=0.48
1.5790199491481434
% es.tEX (V/m) @ t=0.48
0.5140003238025983
% es.tEY (V/m) @ t=0.48
0
% es.tEZ (V/m) @ t=0.48
1.5790199491481491
% es.Ex (V/m) @ t=0.48
0.5140003238025921
% es.Ey (V/m) @ t=0.48
0.12452188053604507
% es.Ez (V/m) @ t=0.48
1.5790199491481434
% es.tEx (V/m) @ t=0.48
0.5140003238025983
% es.tEy (V/m) @ t=0.48
0
% es.tEz (V/m) @ t=0.48
1.5790199491481491
% V (V) @ t=0.48
0.007788498776456671
% es.normE (V/m) @ t=0.5
1.6802714043621716
% es.EX (V/m) @ t=0.5
0.5186383175674755
% es.EY (V/m) @ t=0.5
0.1256453510212061
% es.EZ (V/m) @ t=0.5
1.5932679726084413
% es.tEX (V/m) @ t=0.5
0.5186383175674791
% es.tEY (V/m) @ t=0.5
0
% es.tEZ (V/m) @ t=0.5
1.5932679726084409
% es.Ex (V/m) @ t=0.5
0.5186383175674755
% es.Ey (V/m) @ t=0.5
0.1256453510212061
% es.Ez (V/m) @ t=0.5
1.5932679726084413
% es.tEx (V/m) @ t=0.5
0.5186383175674791
% es.tEy (V/m) @ t=0.5
0
% es.tEz (V/m) @ t=0.5
1.5932679726084409
% V (V) @ t=0.5
0.007858785662801595
% es.normE (V/m) @ t=0.52
1.6952974580767968
% es.EX (V/m) @ t=0.52
0.523276311332361
% es.EY (V/m) @ t=0.52
0.12676882150636748
% es.EZ (V/m) @ t=0.52
1.607515996068726
% es.tEX (V/m) @ t=0.52
0.5232763113323671
% es.tEY (V/m) @ t=0.52
0
% es.tEZ (V/m) @ t=0.52
1.6075159960687326
% es.Ex (V/m) @ t=0.52
0.523276311332361
% es.Ey (V/m) @ t=0.52
0.12676882150636748
% es.Ez (V/m) @ t=0.52
1.607515996068726
% es.tEx (V/m) @ t=0.52
0.5232763113323671
% es.tEy (V/m) @ t=0.52
0
% es.tEz (V/m) @ t=0.52
1.6075159960687326
% V (V) @ t=0.52
0.00792907254914652
% es.normE (V/m) @ t=0.54
1.710323511791438
% es.EX (V/m) @ t=0.54
0.5279143050972379
% es.EY (V/m) @ t=0.54
0.12789229199153196
% es.EZ (V/m) @ t=0.54
1.6217640195290137
% es.tEX (V/m) @ t=0.54
0.5279143050972408
% es.tEY (V/m) @ t=0.54
0
% es.tEZ (V/m) @ t=0.54
1.6217640195290173
% es.Ex (V/m) @ t=0.54
0.5279143050972379
% es.Ey (V/m) @ t=0.54
0.12789229199153196
% es.Ez (V/m) @ t=0.54
1.6217640195290137
% es.tEx (V/m) @ t=0.54
0.5279143050972408
% es.tEy (V/m) @ t=0.54
0
% es.tEz (V/m) @ t=0.54
1.6217640195290173
% V (V) @ t=0.54
0.007999359435491444
% es.normE (V/m) @ t=0.56
1.7266205738163523
% es.EX (V/m) @ t=0.56
0.5329446130725415
% es.EY (V/m) @ t=0.56
0.12911072873370188
% es.EZ (V/m) @ t=0.56
1.6372172448720699
% es.tEX (V/m) @ t=0.56
0.5329446130725444
% es.tEY (V/m) @ t=0.56
0
% es.tEZ (V/m) @ t=0.56
1.6372172448720743
% es.Ex (V/m) @ t=0.56
0.5329446130725415
% es.Ey (V/m) @ t=0.56
0.12911072873370188
% es.Ez (V/m) @ t=0.56
1.6372172448720699
% es.tEx (V/m) @ t=0.56
0.5329446130725444
% es.tEy (V/m) @ t=0.56
0
% es.tEz (V/m) @ t=0.56
1.6372172448720743
% V (V) @ t=0.56
0.008075596049256306
% es.normE (V/m) @ t=0.58
1.743394334056784
% es.EX (V/m) @ t=0.58
0.5381220605138183
% es.EY (V/m) @ t=0.58
0.13036478305989507
% es.EZ (V/m) @ t=0.58
1.653122487390907
% es.tEX (V/m) @ t=0.58
0.538122060513821
% es.tEY (V/m) @ t=0.58
0
% es.tEZ (V/m) @ t=0.58
1.653122487390906
% es.Ex (V/m) @ t=0.58
0.5381220605138183
% es.Ey (V/m) @ t=0.58
0.13036478305989507
% es.Ez (V/m) @ t=0.58
1.653122487390907
% es.tEx (V/m) @ t=0.58
0.538122060513821
% es.tEy (V/m) @ t=0.58
0
% es.tEz (V/m) @ t=0.58
1.653122487390906
% V (V) @ t=0.58
0.008154064138945153
% es.normE (V/m) @ t=0.6
1.7601680942972309
% es.EX (V/m) @ t=0.6
0.5432995079550741
% es.EY (V/m) @ t=0.6
0.13161883738608304
% es.EZ (V/m) @ t=0.6
1.6690277299097183
% es.tEX (V/m) @ t=0.6
0.5432995079550835
% es.tEY (V/m) @ t=0.6
0
% es.tEZ (V/m) @ t=0.6
1.6690277299097183
% es.Ex (V/m) @ t=0.6
0.5432995079550741
% es.Ey (V/m) @ t=0.6
0.13161883738608304
% es.Ez (V/m) @ t=0.6
1.6690277299097183
% es.tEx (V/m) @ t=0.6
0.5432995079550835
% es.tEy (V/m) @ t=0.6
0
% es.tEz (V/m) @ t=0.6
1.6690277299097183
% V (V) @ t=0.6
0.008232532228634003
% es.normE (V/m) @ t=0.62
1.7769418545377422
% es.EX (V/m) @ t=0.62
0.5484769553963545
% es.EY (V/m) @ t=0.62
0.1328728917122709
% es.EZ (V/m) @ t=0.62
1.6849329724285416
% es.tEX (V/m) @ t=0.62
0.5484769553963531
% es.tEY (V/m) @ t=0.62
0
% es.tEZ (V/m) @ t=0.62
1.6849329724285358
% es.Ex (V/m) @ t=0.62
0.5484769553963545
% es.Ey (V/m) @ t=0.62
0.1328728917122709
% es.Ez (V/m) @ t=0.62
1.6849329724285416
% es.tEx (V/m) @ t=0.62
0.5484769553963531
% es.tEy (V/m) @ t=0.62
0
% es.tEz (V/m) @ t=0.62
1.6849329724285358
% V (V) @ t=0.62
0.008311000318322851
% es.normE (V/m) @ t=0.64
1.7937156147782887
% es.EX (V/m) @ t=0.64
0.553654402837623
% es.EY (V/m) @ t=0.64
0.134126946038454
% es.EZ (V/m) @ t=0.64
1.7008382149473595
% es.tEX (V/m) @ t=0.64
0.5536544028376227
% es.tEY (V/m) @ t=0.64
0
% es.tEZ (V/m) @ t=0.64
1.7008382149473693
% es.Ex (V/m) @ t=0.64
0.553654402837623
% es.Ey (V/m) @ t=0.64
0.134126946038454
% es.Ez (V/m) @ t=0.64
1.7008382149473595
% es.tEx (V/m) @ t=0.64
0.5536544028376227
% es.tEy (V/m) @ t=0.64
0
% es.tEz (V/m) @ t=0.64
1.7008382149473693
% V (V) @ t=0.64
0.0083894684080117
% es.normE (V/m) @ t=0.66
1.8104893750188764
% es.EX (V/m) @ t=0.66
0.558831850278896
% es.EY (V/m) @ t=0.66
0.1353810003646334
% es.EZ (V/m) @ t=0.66
1.7167434574661748
% es.tEX (V/m) @ t=0.66
0.5588318502788994
% es.tEY (V/m) @ t=0.66
0
% es.tEZ (V/m) @ t=0.66
1.7167434574661886
% es.Ex (V/m) @ t=0.66
0.558831850278896
% es.Ey (V/m) @ t=0.66
0.1353810003646334
% es.Ez (V/m) @ t=0.66
1.7167434574661748
% es.tEx (V/m) @ t=0.66
0.5588318502788994
% es.tEy (V/m) @ t=0.66
0
% es.tEz (V/m) @ t=0.66
1.7167434574661886
% V (V) @ t=0.66
0.00846793649770055
% es.normE (V/m) @ t=0.68
1.8272631352595312
% es.EX (V/m) @ t=0.68
0.5640092977201785
% es.EY (V/m) @ t=0.68
0.1366350546907894
% es.EZ (V/m) @ t=0.68
1.7326486999850155
% es.tEX (V/m) @ t=0.68
0.5640092977201832
% es.tEY (V/m) @ t=0.68
0
% es.tEZ (V/m) @ t=0.68
1.7326486999850221
% es.Ex (V/m) @ t=0.68
0.5640092977201785
% es.Ey (V/m) @ t=0.68
0.1366350546907894
% es.Ez (V/m) @ t=0.68
1.7326486999850155
% es.tEx (V/m) @ t=0.68
0.5640092977201832
% es.tEy (V/m) @ t=0.68
0
% es.tEz (V/m) @ t=0.68
1.7326486999850221
% V (V) @ t=0.68
0.008546404587389396
% es.normE (V/m) @ t=0.7
1.8440368955001956
% es.EX (V/m) @ t=0.7
0.5691867451614289
% es.EY (V/m) @ t=0.7
0.13788910901699913
% es.EZ (V/m) @ t=0.7
1.74855394250383
% es.tEX (V/m) @ t=0.7
0.5691867451614243
% es.tEY (V/m) @ t=0.7
0
% es.tEZ (V/m) @ t=0.7
1.7485539425038326
% es.Ex (V/m) @ t=0.7
0.5691867451614289
% es.Ey (V/m) @ t=0.7
0.13788910901699913
% es.Ez (V/m) @ t=0.7
1.74855394250383
% es.tEx (V/m) @ t=0.7
0.5691867451614243
% es.tEy (V/m) @ t=0.7
0
% es.tEz (V/m) @ t=0.7
1.7485539425038326
% V (V) @ t=0.7
0.008624872677078246
% es.normE (V/m) @ t=0.72
1.8608106557409045
% es.EX (V/m) @ t=0.72
0.5743641926026986
% es.EY (V/m) @ t=0.72
0.13914316334318566
% es.EZ (V/m) @ t=0.72
1.7644591850226452
% es.tEX (V/m) @ t=0.72
0.574364192602701
% es.tEY (V/m) @ t=0.72
0
% es.tEZ (V/m) @ t=0.72
1.7644591850226448
% es.Ex (V/m) @ t=0.72
0.5743641926026986
% es.Ey (V/m) @ t=0.72
0.13914316334318566
% es.Ez (V/m) @ t=0.72
1.7644591850226452
% es.tEx (V/m) @ t=0.72
0.574364192602701
% es.tEy (V/m) @ t=0.72
0
% es.tEz (V/m) @ t=0.72
1.7644591850226448
% V (V) @ t=0.72
0.008703340766767095
% es.normE (V/m) @ t=0.74
1.8775844159816588
% es.EX (V/m) @ t=0.74
0.5795416400439686
% es.EY (V/m) @ t=0.74
0.1403972176693683
% es.EZ (V/m) @ t=0.74
1.780364427541468
% es.tEX (V/m) @ t=0.74
0.5795416400439635
% es.tEY (V/m) @ t=0.74
0
% es.tEZ (V/m) @ t=0.74
1.7803644275414694
% es.Ex (V/m) @ t=0.74
0.5795416400439686
% es.Ey (V/m) @ t=0.74
0.1403972176693683
% es.Ez (V/m) @ t=0.74
1.780364427541468
% es.tEx (V/m) @ t=0.74
0.5795416400439635
% es.tEy (V/m) @ t=0.74
0
% es.tEz (V/m) @ t=0.74
1.7803644275414694
% V (V) @ t=0.74
0.008781808856455941
% es.normE (V/m) @ t=0.76
1.8943581762224473
% es.EX (V/m) @ t=0.76
0.584719087485233
% es.EY (V/m) @ t=0.76
0.14165127199554606
% es.EZ (V/m) @ t=0.76
1.79626967006029
% es.tEX (V/m) @ t=0.76
0.584719087485233
% es.tEY (V/m) @ t=0.76
0
% es.tEZ (V/m) @ t=0.76
1.796269670060303
% es.Ex (V/m) @ t=0.76
0.584719087485233
% es.Ey (V/m) @ t=0.76
0.14165127199554606
% es.Ez (V/m) @ t=0.76
1.79626967006029
% es.tEx (V/m) @ t=0.76
0.584719087485233
% es.tEy (V/m) @ t=0.76
0
% es.tEz (V/m) @ t=0.76
1.796269670060303
% V (V) @ t=0.76
0.008860276946144791
% es.normE (V/m) @ t=0.78
1.911131936463279
% es.EX (V/m) @ t=0.78
0.5898965349265048
% es.EY (V/m) @ t=0.78
0.1429053263217327
% es.EZ (V/m) @ t=0.78
1.8121749125791156
% es.tEX (V/m) @ t=0.78
0.5898965349265097
% es.tEY (V/m) @ t=0.78
0
% es.tEZ (V/m) @ t=0.78
1.8121749125791222
% es.Ex (V/m) @ t=0.78
0.5898965349265048
% es.Ey (V/m) @ t=0.78
0.1429053263217327
% es.Ez (V/m) @ t=0.78
1.8121749125791156
% es.tEx (V/m) @ t=0.78
0.5898965349265097
% es.tEy (V/m) @ t=0.78
0
% es.tEz (V/m) @ t=0.78
1.8121749125791222
% V (V) @ t=0.78
0.00893874503583364
% es.normE (V/m) @ t=0.8
1.9279056967041446
% es.EX (V/m) @ t=0.8
0.5950739823677798
% es.EY (V/m) @ t=0.8
0.14415938064792588
% es.EZ (V/m) @ t=0.8
1.8280801550979384
% es.tEX (V/m) @ t=0.8
0.5950739823677864
% es.tEY (V/m) @ t=0.8
0
% es.tEZ (V/m) @ t=0.8
1.8280801550979486
% es.Ex (V/m) @ t=0.8
0.5950739823677798
% es.Ey (V/m) @ t=0.8
0.14415938064792588
% es.Ez (V/m) @ t=0.8
1.8280801550979384
% es.tEx (V/m) @ t=0.8
0.5950739823677864
% es.tEy (V/m) @ t=0.8
0
% es.tEz (V/m) @ t=0.8
1.8280801550979486
% V (V) @ t=0.8
0.00901721312552249
% es.normE (V/m) @ t=0.82
1.9448695396819886
% es.EX (V/m) @ t=0.82
0.6003101013067893
% es.EY (V/m) @ t=0.82
0.14542766584830114
% es.EZ (V/m) @ t=0.82
1.8441656367155792
% es.tEX (V/m) @ t=0.82
0.6003101013067891
% es.tEY (V/m) @ t=0.82
0
% es.tEZ (V/m) @ t=0.82
1.8441656367155872
% es.Ex (V/m) @ t=0.82
0.6003101013067893
% es.Ey (V/m) @ t=0.82
0.14542766584830114
% es.Ez (V/m) @ t=0.82
1.8441656367155792
% es.tEx (V/m) @ t=0.82
0.6003101013067891
% es.tEy (V/m) @ t=0.82
0
% es.tEz (V/m) @ t=0.82
1.8441656367155872
% V (V) @ t=0.82
0.009096569109357766
% es.normE (V/m) @ t=0.84
1.9636262760822358
% es.EX (V/m) @ t=0.84
0.6060996200129927
% es.EY (V/m) @ t=0.84
0.1468301791285338
% es.EZ (V/m) @ t=0.84
1.8619511648493687
% es.tEX (V/m) @ t=0.84
0.6060996200129978
% es.tEY (V/m) @ t=0.84
0
% es.tEZ (V/m) @ t=0.84
1.8619511648493745
% es.Ex (V/m) @ t=0.84
0.6060996200129927
% es.Ey (V/m) @ t=0.84
0.1468301791285338
% es.Ez (V/m) @ t=0.84
1.8619511648493687
% es.tEx (V/m) @ t=0.84
0.6060996200129978
% es.tEy (V/m) @ t=0.84
0
% es.tEz (V/m) @ t=0.84
1.8619511648493745
% V (V) @ t=0.84
0.00918429986514992
% es.normE (V/m) @ t=0.86
1.9823830124824648
% es.EX (V/m) @ t=0.86
0.6118891387191974
% es.EY (V/m) @ t=0.86
0.14823269240873682
% es.EZ (V/m) @ t=0.86
1.87973669298314
% es.tEX (V/m) @ t=0.86
0.6118891387191994
% es.tEY (V/m) @ t=0.86
0
% es.tEZ (V/m) @ t=0.86
1.8797366929831476
% es.Ex (V/m) @ t=0.86
0.6118891387191974
% es.Ey (V/m) @ t=0.86
0.14823269240873682
% es.Ez (V/m) @ t=0.86
1.87973669298314
% es.tEx (V/m) @ t=0.86
0.6118891387191994
% es.tEy (V/m) @ t=0.86
0
% es.tEz (V/m) @ t=0.86
1.8797366929831476
% V (V) @ t=0.86
0.009272030620942073
% es.normE (V/m) @ t=0.88
2.0011397488827143
% es.EX (V/m) @ t=0.88
0.6176786574254021
% es.EY (V/m) @ t=0.88
0.14963520568892874
% es.EZ (V/m) @ t=0.88
1.8975222211169336
% es.tEX (V/m) @ t=0.88
0.617678657425401
% es.tEY (V/m) @ t=0.88
0
% es.tEZ (V/m) @ t=0.88
1.897522221116935
% es.Ex (V/m) @ t=0.88
0.6176786574254021
% es.Ey (V/m) @ t=0.88
0.14963520568892874
% es.Ez (V/m) @ t=0.88
1.8975222211169336
% es.tEx (V/m) @ t=0.88
0.617678657425401
% es.tEy (V/m) @ t=0.88
0
% es.tEz (V/m) @ t=0.88
1.897522221116935
% V (V) @ t=0.88
0.009359761376734227
% es.normE (V/m) @ t=0.9
2.0198964852829566
% es.EX (V/m) @ t=0.9
0.6234681761316127
% es.EY (V/m) @ t=0.9
0.15103771896914586
% es.EZ (V/m) @ t=0.9
1.9153077492507156
% es.tEX (V/m) @ t=0.9
0.6234681761316168
% es.tEY (V/m) @ t=0.9
0
% es.tEZ (V/m) @ t=0.9
1.9153077492507151
% es.Ex (V/m) @ t=0.9
0.6234681761316127
% es.Ey (V/m) @ t=0.9
0.15103771896914586
% es.Ez (V/m) @ t=0.9
1.9153077492507156
% es.tEx (V/m) @ t=0.9
0.6234681761316168
% es.tEy (V/m) @ t=0.9
0
% es.tEz (V/m) @ t=0.9
1.9153077492507151
% V (V) @ t=0.9
0.00944749213252638
% es.normE (V/m) @ t=0.92
2.0386532216832007
% es.EX (V/m) @ t=0.92
0.6292576948378202
% es.EY (V/m) @ t=0.92
0.15244023224935432
% es.EZ (V/m) @ t=0.92
1.933093277384501
% es.tEX (V/m) @ t=0.92
0.6292576948378112
% es.tEY (V/m) @ t=0.92
0
% es.tEZ (V/m) @ t=0.92
1.9330932773845042
% es.Ex (V/m) @ t=0.92
0.6292576948378202
% es.Ey (V/m) @ t=0.92
0.15244023224935432
% es.Ez (V/m) @ t=0.92
1.933093277384501
% es.tEx (V/m) @ t=0.92
0.6292576948378112
% es.tEy (V/m) @ t=0.92
0
% es.tEz (V/m) @ t=0.92
1.9330932773845042
% V (V) @ t=0.92
0.009535222888318534
% es.normE (V/m) @ t=0.94
2.0574099580834377
% es.EX (V/m) @ t=0.94
0.6350472135440285
% es.EY (V/m) @ t=0.94
0.15384274552953559
% es.EZ (V/m) @ t=0.94
1.95087880551828
% es.tEX (V/m) @ t=0.94
0.635047213544027
% es.tEY (V/m) @ t=0.94
0
% es.tEZ (V/m) @ t=0.94
1.9508788055182773
% es.Ex (V/m) @ t=0.94
0.6350472135440285
% es.Ey (V/m) @ t=0.94
0.15384274552953559
% es.Ez (V/m) @ t=0.94
1.95087880551828
% es.tEx (V/m) @ t=0.94
0.635047213544027
% es.tEy (V/m) @ t=0.94
0
% es.tEz (V/m) @ t=0.94
1.9508788055182773
% V (V) @ t=0.94
0.009622953644110688
% es.normE (V/m) @ t=0.96
2.0761666944836907
% es.EX (V/m) @ t=0.96
0.640836732250245
% es.EY (V/m) @ t=0.96
0.15524525880975826
% es.EZ (V/m) @ t=0.96
1.9686643336520695
% es.tEX (V/m) @ t=0.96
0.6408367322502357
% es.tEY (V/m) @ t=0.96
0
% es.tEZ (V/m) @ t=0.96
1.9686643336520806
% es.Ex (V/m) @ t=0.96
0.640836732250245
% es.Ey (V/m) @ t=0.96
0.15524525880975826
% es.Ez (V/m) @ t=0.96
1.9686643336520695
% es.tEx (V/m) @ t=0.96
0.6408367322502357
% es.tEy (V/m) @ t=0.96
0
% es.tEz (V/m) @ t=0.96
1.9686643336520806
% V (V) @ t=0.96
0.00971068439990284
% es.normE (V/m) @ t=0.98
2.0949234308839317
% es.EX (V/m) @ t=0.98
0.6466262509564479
% es.EY (V/m) @ t=0.98
0.15664777208996605
% es.EZ (V/m) @ t=0.98
1.986449861785852
% es.tEX (V/m) @ t=0.98
0.6466262509564444
% es.tEY (V/m) @ t=0.98
0
% es.tEZ (V/m) @ t=0.98
1.9864498617858395
% es.Ex (V/m) @ t=0.98
0.6466262509564479
% es.Ey (V/m) @ t=0.98
0.15664777208996605
% es.Ez (V/m) @ t=0.98
1.986449861785852
% es.tEx (V/m) @ t=0.98
0.6466262509564444
% es.tEy (V/m) @ t=0.98
0
% es.tEz (V/m) @ t=0.98
1.9864498617858395
% V (V) @ t=0.98
0.009798415155694995
% es.normE (V/m) @ t=1
2.1136801672841865
% es.EX (V/m) @ t=1
0.652415769662663
% es.EY (V/m) @ t=1
0.15805028537016197
% es.EZ (V/m) @ t=1
2.004235389919645
% es.tEX (V/m) @ t=1
0.6524157696626673
% es.tEY (V/m) @ t=1
0
% es.tEZ (V/m) @ t=1
2.004235389919643
% es.Ex (V/m) @ t=1
0.652415769662663
% es.Ey (V/m) @ t=1
0.15805028537016197
% es.Ez (V/m) @ t=1
2.004235389919645
% es.tEx (V/m) @ t=1
0.6524157696626673
% es.tEy (V/m) @ t=1
0
% es.tEz (V/m) @ t=1
2.004235389919643
% V (V) @ t=1
0.009886145911487149
% es.normE (V/m) @ t=1.02
2.1324369036844297
% es.EX (V/m) @ t=1.02
0.6582052883688663
% es.EY (V/m) @ t=1.02
0.15945279865038975
% es.EZ (V/m) @ t=1.02
2.022020918053428
% es.tEX (V/m) @ t=1.02
0.658205288368876
% es.tEY (V/m) @ t=1.02
0
% es.tEZ (V/m) @ t=1.02
2.022020918053416
% es.Ex (V/m) @ t=1.02
0.6582052883688663
% es.Ey (V/m) @ t=1.02
0.15945279865038975
% es.Ez (V/m) @ t=1.02
2.022020918053428
% es.tEx (V/m) @ t=1.02
0.658205288368876
% es.tEy (V/m) @ t=1.02
0
% es.tEz (V/m) @ t=1.02
2.022020918053416
% V (V) @ t=1.02
0.009973876667279303
% es.normE (V/m) @ t=1.04
2.1511936400846743
% es.EX (V/m) @ t=1.04
0.663994807075071
% es.EY (V/m) @ t=1.04
0.16085531193057678
% es.EZ (V/m) @ t=1.04
2.039806446187214
% es.tEX (V/m) @ t=1.04
0.6639948070750705
% es.tEY (V/m) @ t=1.04
0
% es.tEZ (V/m) @ t=1.04
2.0398064461872103
% es.Ex (V/m) @ t=1.04
0.663994807075071
% es.Ey (V/m) @ t=1.04
0.16085531193057678
% es.Ez (V/m) @ t=1.04
2.039806446187214