% Model:              1 neuron.mph
% Version:            COMSOL 6.0.0.405
% Date:               Mar 9 2023, 14:20
% Dimension:          0
% Nodes:              14017
% Expressions:        14017
% Description:        Electric field norm, Electric field, X component, Electric field, Y component, Electric field, Z component, Tangential electric field, X component, Tangential electric field, Y component, Tangential electric field, Z component, Electric field, x component, Electric field, y component, Electric field, z component, Tangential electric field, x component, Tangential electric field, y component, Tangential electric field, z component, Electric potential
% Length unit:        mm
% x
1.33
% y
12.2
% z
1.33
% es.normE (V/m) @ t=0
7.702015153210386
% es.EX (V/m) @ t=0
5.968170126037934
% es.EY (V/m) @ t=0
-0.9145004616807952
% es.EZ (V/m) @ t=0
4.767918792128811
% es.tEX (V/m) @ t=0
5.968170126037957
% es.tEY (V/m) @ t=0
0
% es.tEZ (V/m) @ t=0
4.767918792128818
% es.Ex (V/m) @ t=0
5.968170126037934
% es.Ey (V/m) @ t=0
-0.9145004616807952
% es.Ez (V/m) @ t=0
4.767918792128811
% es.tEx (V/m) @ t=0
5.968170126037957
% es.tEy (V/m) @ t=0
0
% es.tEz (V/m) @ t=0
4.767918792128818
% V (V) @ t=0
0.006360577061425419
% es.normE (V/m) @ t=0.02
6.652378026259745
% es.EX (V/m) @ t=0.02
5.154822860129396
% es.EY (V/m) @ t=0.02
-0.7898715649270258
% es.EZ (V/m) @ t=0.02
4.118142798479993
% es.tEX (V/m) @ t=0.02
5.1548228601294355
% es.tEY (V/m) @ t=0.02
0
% es.tEZ (V/m) @ t=0.02
4.118142798479991
% es.Ex (V/m) @ t=0.02
5.154822860129396
% es.Ey (V/m) @ t=0.02
-0.7898715649270258
% es.Ez (V/m) @ t=0.02
4.118142798479993
% es.tEx (V/m) @ t=0.02
5.1548228601294355
% es.tEy (V/m) @ t=0.02
0
% es.tEz (V/m) @ t=0.02
4.118142798479991
% V (V) @ t=0.02
0.005493752239783743
% es.normE (V/m) @ t=0.04
6.713567233176258
% es.EX (V/m) @ t=0.04
5.202237394931187
% es.EY (V/m) @ t=0.04
-0.7971368682019806
% es.EZ (V/m) @ t=0.04
4.156021893325843
% es.tEX (V/m) @ t=0.04
5.202237394931185
% es.tEY (V/m) @ t=0.04
0
% es.tEZ (V/m) @ t=0.04
4.156021893325848
% es.Ex (V/m) @ t=0.04
5.202237394931187
% es.Ey (V/m) @ t=0.04
-0.7971368682019806
% es.Ez (V/m) @ t=0.04
4.156021893325843
% es.tEx (V/m) @ t=0.04
5.202237394931185
% es.tEy (V/m) @ t=0.04
0
% es.tEz (V/m) @ t=0.04
4.156021893325848
% V (V) @ t=0.04
0.005544284236631281
% es.normE (V/m) @ t=0.06
6.77530757654988
% es.EX (V/m) @ t=0.06
5.250078995100525
% es.EY (V/m) @ t=0.06
-0.8044676097936803
% es.EZ (V/m) @ t=0.06
4.194242170545117
% es.tEX (V/m) @ t=0.06
5.250078995100533
% es.tEY (V/m) @ t=0.06
0
% es.tEZ (V/m) @ t=0.06
4.194242170545122
% es.Ex (V/m) @ t=0.06
5.250078995100525
% es.Ey (V/m) @ t=0.06
-0.8044676097936803
% es.Ez (V/m) @ t=0.06
4.194242170545117
% es.tEx (V/m) @ t=0.06
5.250078995100533
% es.tEy (V/m) @ t=0.06
0
% es.tEz (V/m) @ t=0.06
4.194242170545122
% V (V) @ t=0.06
0.005595271374608728
% es.normE (V/m) @ t=0.08
6.837991474395469
% es.EX (V/m) @ t=0.08
5.298651764984543
% es.EY (V/m) @ t=0.08
-0.8119103997340735
% es.EZ (V/m) @ t=0.08
4.233046517845152
% es.tEX (V/m) @ t=0.08
5.298651764984538
% es.tEY (V/m) @ t=0.08
0
% es.tEZ (V/m) @ t=0.08
4.2330465178451435
% es.Ex (V/m) @ t=0.08
5.298651764984543
% es.Ey (V/m) @ t=0.08
-0.8119103997340735
% es.Ez (V/m) @ t=0.08
4.233046517845152
% es.tEx (V/m) @ t=0.08
5.298651764984538
% es.tEy (V/m) @ t=0.08
0
% es.tEz (V/m) @ t=0.08
4.2330465178451435
% V (V) @ t=0.08
0.005647037815901782
% es.normE (V/m) @ t=0.1
6.901328863614312
% es.EX (V/m) @ t=0.1
5.347730931812395
% es.EY (V/m) @ t=0.1
-0.8194307926443427
% es.EZ (V/m) @ t=0.1
4.272255383135908
% es.tEX (V/m) @ t=0.1
5.347730931812418
% es.tEY (V/m) @ t=0.1
0
% es.tEZ (V/m) @ t=0.1
4.272255383135905
% es.Ex (V/m) @ t=0.1
5.347730931812395
% es.Ey (V/m) @ t=0.1
-0.8194307926443427
% es.Ez (V/m) @ t=0.1
4.272255383135908
% es.tEx (V/m) @ t=0.1
5.347730931812418
% es.tEy (V/m) @ t=0.1
0
% es.tEz (V/m) @ t=0.1
4.272255383135905
% V (V) @ t=0.1
0.0056993439907333035
% es.normE (V/m) @ t=0.12
6.964666252833181
% es.EX (V/m) @ t=0.12
5.3968100986402785
% es.EY (V/m) @ t=0.12
-0.8269511855545932
% es.EZ (V/m) @ t=0.12
4.311464248426672
% es.tEX (V/m) @ t=0.12
5.396810098640298
% es.tEY (V/m) @ t=0.12
0
% es.tEZ (V/m) @ t=0.12
4.311464248426669
% es.Ex (V/m) @ t=0.12
5.3968100986402785
% es.Ey (V/m) @ t=0.12
-0.8269511855545932
% es.Ez (V/m) @ t=0.12
4.311464248426672
% es.tEx (V/m) @ t=0.12
5.396810098640298
% es.tEy (V/m) @ t=0.12
0
% es.tEz (V/m) @ t=0.12
4.311464248426669
% V (V) @ t=0.12
0.0057516501655648245
% es.normE (V/m) @ t=0.14
7.028650763854909
% es.EX (V/m) @ t=0.14
5.446390661562241
% es.EY (V/m) @ t=0.14
-0.8345483841537042
% es.EZ (V/m) @ t=0.14
4.351073784523443
% es.tEX (V/m) @ t=0.14
5.4463906615622415
% es.tEY (V/m) @ t=0.14
0
% es.tEZ (V/m) @ t=0.14
4.351073784523442
% es.Ex (V/m) @ t=0.14
5.446390661562241
% es.Ey (V/m) @ t=0.14
-0.8345483841537042
% es.Ez (V/m) @ t=0.14
4.351073784523443
% es.tEx (V/m) @ t=0.14
5.4463906615622415
% es.tEy (V/m) @ t=0.14
0
% es.tEz (V/m) @ t=0.14
4.351073784523442
% V (V) @ t=0.14
0.005804490584776015
% es.normE (V/m) @ t=0.16
7.095365907140966
% es.EX (V/m) @ t=0.16
5.498086944192131
% es.EY (V/m) @ t=0.16
-0.8424696764412714
% es.EZ (V/m) @ t=0.16
4.3923740141270375
% es.tEX (V/m) @ t=0.16
5.4980869441921385
% es.tEY (V/m) @ t=0.16
0
% es.tEZ (V/m) @ t=0.16
4.392374014127034
% es.Ex (V/m) @ t=0.16
5.498086944192131
% es.Ey (V/m) @ t=0.16
-0.8424696764412714
% es.Ez (V/m) @ t=0.16
4.3923740141270375
% es.tEx (V/m) @ t=0.16
5.4980869441921385
% es.tEy (V/m) @ t=0.16
0
% es.tEz (V/m) @ t=0.16
4.392374014127034
% V (V) @ t=0.16
0.005859585332204345
% es.normE (V/m) @ t=0.18
7.162081050427069
% es.EX (V/m) @ t=0.18
5.549783226822035
% es.EY (V/m) @ t=0.18
-0.8503909687288846
% es.EZ (V/m) @ t=0.18
4.433674243730621
% es.tEX (V/m) @ t=0.18
5.549783226822062
% es.tEY (V/m) @ t=0.18
0
% es.tEZ (V/m) @ t=0.18
4.43367424373062
% es.Ex (V/m) @ t=0.18
5.549783226822035
% es.Ey (V/m) @ t=0.18
-0.8503909687288846
% es.Ez (V/m) @ t=0.18
4.433674243730621
% es.tEx (V/m) @ t=0.18
5.549783226822062
% es.tEy (V/m) @ t=0.18
0
% es.tEz (V/m) @ t=0.18
4.43367424373062
% V (V) @ t=0.18
0.0059146800796326775
% es.normE (V/m) @ t=0.2
7.228796193713238
% es.EX (V/m) @ t=0.2
5.601479509451971
% es.EY (V/m) @ t=0.2
-0.8583122610164908
% es.EZ (V/m) @ t=0.2
4.4749744733342105
% es.tEX (V/m) @ t=0.2
5.6014795094519725
% es.tEY (V/m) @ t=0.2
0
% es.tEZ (V/m) @ t=0.2
4.474974473334198
% es.Ex (V/m) @ t=0.2
5.601479509451971
% es.Ey (V/m) @ t=0.2
-0.8583122610164908
% es.Ez (V/m) @ t=0.2
4.4749744733342105
% es.tEx (V/m) @ t=0.2
5.6014795094519725
% es.tEy (V/m) @ t=0.2
0
% es.tEz (V/m) @ t=0.2
4.474974473334198
% V (V) @ t=0.2
0.0059697748270610106
% es.normE (V/m) @ t=0.22
7.295511336999377
% es.EX (V/m) @ t=0.22
5.653175792081825
% es.EY (V/m) @ t=0.22
-0.8662335533041006
% es.EZ (V/m) @ t=0.22
4.516274702937796
% es.tEX (V/m) @ t=0.22
5.65317579208184
% es.tEY (V/m) @ t=0.22
0
% es.tEZ (V/m) @ t=0.22
4.516274702937798
% es.Ex (V/m) @ t=0.22
5.653175792081825
% es.Ey (V/m) @ t=0.22
-0.8662335533041006
% es.Ez (V/m) @ t=0.22
4.516274702937796
% es.tEx (V/m) @ t=0.22
5.65317579208184
% es.tEy (V/m) @ t=0.22
0
% es.tEz (V/m) @ t=0.22
4.516274702937798
% V (V) @ t=0.22
0.006024869574489342
% es.normE (V/m) @ t=0.24
7.362226480285601
% es.EX (V/m) @ t=0.24
5.704872074711743
% es.EY (V/m) @ t=0.24
-0.874154845591673
% es.EZ (V/m) @ t=0.24
4.557574932541389
% es.tEX (V/m) @ t=0.24
5.70487207471175
% es.tEY (V/m) @ t=0.24
0
% es.tEZ (V/m) @ t=0.24
4.557574932541391
% es.Ex (V/m) @ t=0.24
5.704872074711743
% es.Ey (V/m) @ t=0.24
-0.874154845591673
% es.Ez (V/m) @ t=0.24
4.557574932541389
% es.tEx (V/m) @ t=0.24
5.70487207471175
% es.tEy (V/m) @ t=0.24
0
% es.tEz (V/m) @ t=0.24
4.557574932541391
% V (V) @ t=0.24
0.006079964321917673
% es.normE (V/m) @ t=0.26
7.428941623571841
% es.EX (V/m) @ t=0.26
5.75656835734163
% es.EY (V/m) @ t=0.26
-0.8820761378792819
% es.EZ (V/m) @ t=0.26
4.598875162144985
% es.tEX (V/m) @ t=0.26
5.756568357341647
% es.tEY (V/m) @ t=0.26
0
% es.tEZ (V/m) @ t=0.26
4.598875162144983
% es.Ex (V/m) @ t=0.26
5.75656835734163
% es.Ey (V/m) @ t=0.26
-0.8820761378792819
% es.Ez (V/m) @ t=0.26
4.598875162144985
% es.tEx (V/m) @ t=0.26
5.756568357341647
% es.tEy (V/m) @ t=0.26
0
% es.tEz (V/m) @ t=0.26
4.598875162144983
% V (V) @ t=0.26
0.0061350590693460055
% es.normE (V/m) @ t=0.28
7.498649396997432
% es.EX (V/m) @ t=0.28
5.810584562319075
% es.EY (V/m) @ t=0.28
-0.8903533770496033
% es.EZ (V/m) @ t=0.28
4.6420265316904
% es.tEX (V/m) @ t=0.28
5.810584562319107
% es.tEY (V/m) @ t=0.28
0
% es.tEZ (V/m) @ t=0.28
4.6420265316904
% es.Ex (V/m) @ t=0.28
5.810584562319075
% es.Ey (V/m) @ t=0.28
-0.8903533770496033
% es.Ez (V/m) @ t=0.28
4.6420265316904
% es.tEx (V/m) @ t=0.28
5.810584562319107
% es.tEy (V/m) @ t=0.28
0
% es.tEz (V/m) @ t=0.28
4.6420265316904
% V (V) @ t=0.28
0.006192628672585044
% es.normE (V/m) @ t=0.3
7.572976942501286
% es.EX (V/m) @ t=0.3
5.8681820693552975
% es.EY (V/m) @ t=0.3
-0.8991800972425397
% es.EZ (V/m) @ t=0.3
4.688035536230302
% es.tEX (V/m) @ t=0.3
5.868182069355331
% es.tEY (V/m) @ t=0.3
0
% es.tEZ (V/m) @ t=0.3
4.688035536230301
% es.Ex (V/m) @ t=0.3
5.8681820693552975
% es.Ey (V/m) @ t=0.3
-0.8991800972425397
% es.Ez (V/m) @ t=0.3
4.688035536230302
% es.tEx (V/m) @ t=0.3
5.868182069355331
% es.tEy (V/m) @ t=0.3
0
% es.tEz (V/m) @ t=0.3
4.688035536230301
% V (V) @ t=0.3
0.006254018751203161
% es.normE (V/m) @ t=0.32
7.6473044880086505
% es.EX (V/m) @ t=0.32
5.925779576391548
% es.EY (V/m) @ t=0.32
-0.9080068174354885
% es.EZ (V/m) @ t=0.32
4.734044540770209
% es.tEX (V/m) @ t=0.32
5.9257795763915695
% es.tEY (V/m) @ t=0.32
0
% es.tEZ (V/m) @ t=0.32
4.734044540770204
% es.Ex (V/m) @ t=0.32
5.925779576391548
% es.Ey (V/m) @ t=0.32
-0.9080068174354885
% es.Ez (V/m) @ t=0.32
4.734044540770209
% es.tEx (V/m) @ t=0.32
5.9257795763915695
% es.tEy (V/m) @ t=0.32
0
% es.tEz (V/m) @ t=0.32
4.734044540770204
% V (V) @ t=0.32
0.006315408829821279
% es.normE (V/m) @ t=0.34
7.721632033519416
% es.EX (V/m) @ t=0.34
5.98337708342782
% es.EY (V/m) @ t=0.34
-0.9168335376284178
% es.EZ (V/m) @ t=0.34
4.780053545310112
% es.tEX (V/m) @ t=0.34
5.983377083427824
% es.tEY (V/m) @ t=0.34
0
% es.tEZ (V/m) @ t=0.34
4.780053545310119
% es.Ex (V/m) @ t=0.34
5.98337708342782
% es.Ey (V/m) @ t=0.34
-0.9168335376284178
% es.Ez (V/m) @ t=0.34
4.780053545310112
% es.tEx (V/m) @ t=0.34
5.983377083427824
% es.tEy (V/m) @ t=0.34
0
% es.tEz (V/m) @ t=0.34
4.780053545310119
% V (V) @ t=0.34
0.006376798908439396
% es.normE (V/m) @ t=0.36
7.795959579033432
% es.EX (V/m) @ t=0.36
6.040974590464043
% es.EY (V/m) @ t=0.36
-0.9256602578213595
% es.EZ (V/m) @ t=0.36
4.826062549850011
% es.tEX (V/m) @ t=0.36
6.040974590464076
% es.tEY (V/m) @ t=0.36
0
% es.tEZ (V/m) @ t=0.36
4.826062549850014
% es.Ex (V/m) @ t=0.36
6.040974590464043
% es.Ey (V/m) @ t=0.36
-0.9256602578213595
% es.Ez (V/m) @ t=0.36
4.826062549850011
% es.tEx (V/m) @ t=0.36
6.040974590464076
% es.tEy (V/m) @ t=0.36
0
% es.tEz (V/m) @ t=0.36
4.826062549850014
% V (V) @ t=0.36
0.006438188987057514
% es.normE (V/m) @ t=0.38
7.8702871245506705
% es.EX (V/m) @ t=0.38
6.09857209750029
% es.EY (V/m) @ t=0.38
-0.9344869780142728
% es.EZ (V/m) @ t=0.38
4.872071554389928
% es.tEX (V/m) @ t=0.38
6.098572097500315
% es.tEY (V/m) @ t=0.38
0
% es.tEZ (V/m) @ t=0.38
4.8720715543899225
% es.Ex (V/m) @ t=0.38
6.09857209750029
% es.Ey (V/m) @ t=0.38
-0.9344869780142728
% es.Ez (V/m) @ t=0.38
4.872071554389928
% es.tEx (V/m) @ t=0.38
6.098572097500315
% es.tEy (V/m) @ t=0.38
0
% es.tEz (V/m) @ t=0.38
4.8720715543899225
% V (V) @ t=0.38
0.006499579065675633
% es.normE (V/m) @ t=0.4
7.944614670071013
% es.EX (V/m) @ t=0.4
6.156169604536538
% es.EY (V/m) @ t=0.4
-0.9433136982072154
% es.EZ (V/m) @ t=0.4
4.918080558929832
% es.tEX (V/m) @ t=0.4
6.156169604536569
% es.tEY (V/m) @ t=0.4
0
% es.tEZ (V/m) @ t=0.4
4.918080558929824
% es.Ex (V/m) @ t=0.4
6.156169604536538
% es.Ey (V/m) @ t=0.4
-0.9433136982072154
% es.Ez (V/m) @ t=0.4
4.918080558929832
% es.tEx (V/m) @ t=0.4
6.156169604536569
% es.tEy (V/m) @ t=0.4
0
% es.tEz (V/m) @ t=0.4
4.918080558929824
% V (V) @ t=0.4
0.006560969144293751
% es.normE (V/m) @ t=0.42
8.018942215594398
% es.EX (V/m) @ t=0.42
6.213767111572803
% es.EY (V/m) @ t=0.42
-0.9521404184001634
% es.EZ (V/m) @ t=0.42
4.964089563469749
% es.tEX (V/m) @ t=0.42
6.213767111572807
% es.tEY (V/m) @ t=0.42
0
% es.tEZ (V/m) @ t=0.42
4.96408956346974
% es.Ex (V/m) @ t=0.42
6.213767111572803
% es.Ey (V/m) @ t=0.42
-0.9521404184001634
% es.Ez (V/m) @ t=0.42
4.964089563469749
% es.tEx (V/m) @ t=0.42
6.213767111572807
% es.tEy (V/m) @ t=0.42
0
% es.tEz (V/m) @ t=0.42
4.96408956346974
% V (V) @ t=0.42
0.006622359222911869
% es.normE (V/m) @ t=0.44
8.09326976112069
% es.EX (V/m) @ t=0.44
6.271364618609043
% es.EY (V/m) @ t=0.44
-0.9609671385931069
% es.EZ (V/m) @ t=0.44
5.0100985680096475
% es.tEX (V/m) @ t=0.44
6.271364618609074
% es.tEY (V/m) @ t=0.44
0
% es.tEZ (V/m) @ t=0.44
5.010098568009648
% es.Ex (V/m) @ t=0.44
6.271364618609043
% es.Ey (V/m) @ t=0.44
-0.9609671385931069
% es.Ez (V/m) @ t=0.44
5.0100985680096475
% es.tEx (V/m) @ t=0.44
6.271364618609074
% es.tEy (V/m) @ t=0.44
0
% es.tEz (V/m) @ t=0.44
5.010098568009648
% V (V) @ t=0.44
0.006683749301529987
% es.normE (V/m) @ t=0.46
8.167597306649835
% es.EX (V/m) @ t=0.46
6.32896212564528
% es.EY (V/m) @ t=0.46
-0.9697938587860202
% es.EZ (V/m) @ t=0.46
5.056107572549555
% es.tEX (V/m) @ t=0.46
6.328962125645313
% es.tEY (V/m) @ t=0.46
0
% es.tEZ (V/m) @ t=0.46
5.056107572549551
% es.Ex (V/m) @ t=0.46
6.32896212564528
% es.Ey (V/m) @ t=0.46
-0.9697938587860202
% es.Ez (V/m) @ t=0.46
5.056107572549555
% es.tEx (V/m) @ t=0.46
6.328962125645313
% es.tEy (V/m) @ t=0.46
0
% es.tEz (V/m) @ t=0.46
5.056107572549551
% V (V) @ t=0.46
0.006745139380148105
% es.normE (V/m) @ t=0.48
8.241924852181782
% es.EX (V/m) @ t=0.48
6.386559632681535
% es.EY (V/m) @ t=0.48
-0.9786205789789841
% es.EZ (V/m) @ t=0.48
5.102116577089461
% es.tEX (V/m) @ t=0.48
6.386559632681552
% es.tEY (V/m) @ t=0.48
0
% es.tEZ (V/m) @ t=0.48
5.102116577089459
% es.Ex (V/m) @ t=0.48
6.386559632681535
% es.Ey (V/m) @ t=0.48
-0.9786205789789841
% es.Ez (V/m) @ t=0.48
5.102116577089461
% es.tEx (V/m) @ t=0.48
6.386559632681552
% es.tEy (V/m) @ t=0.48
0
% es.tEz (V/m) @ t=0.48
5.102116577089459
% V (V) @ t=0.48
0.0068065294587662225
% es.normE (V/m) @ t=0.5
8.316252397716418
% es.EX (V/m) @ t=0.5
6.444157139717771
% es.EY (V/m) @ t=0.5
-0.9874472991719268
% es.EZ (V/m) @ t=0.5
5.148125581629364
% es.tEX (V/m) @ t=0.5
6.44415713971779
% es.tEY (V/m) @ t=0.5
0
% es.tEZ (V/m) @ t=0.5
5.148125581629361
% es.Ex (V/m) @ t=0.5
6.444157139717771
% es.Ey (V/m) @ t=0.5
-0.9874472991719268
% es.Ez (V/m) @ t=0.5
5.148125581629364
% es.tEx (V/m) @ t=0.5
6.44415713971779
% es.tEy (V/m) @ t=0.5
0
% es.tEz (V/m) @ t=0.5
5.148125581629361
% V (V) @ t=0.5
0.00686791953738434
% es.normE (V/m) @ t=0.52
8.390579943253705
% es.EX (V/m) @ t=0.52
6.501754646754041
% es.EY (V/m) @ t=0.52
-0.9962740193648445
% es.EZ (V/m) @ t=0.52
5.194134586169267
% es.tEX (V/m) @ t=0.52
6.501754646754043
% es.tEY (V/m) @ t=0.52
0
% es.tEZ (V/m) @ t=0.52
5.1941345861692625
% es.Ex (V/m) @ t=0.52
6.501754646754041
% es.Ey (V/m) @ t=0.52
-0.9962740193648445
% es.Ez (V/m) @ t=0.52
5.194134586169267
% es.tEx (V/m) @ t=0.52
6.501754646754043
% es.tEy (V/m) @ t=0.52
0
% es.tEz (V/m) @ t=0.52
5.1941345861692625
% V (V) @ t=0.52
0.006929309616002459
% es.normE (V/m) @ t=0.54
8.46490748879353
% es.EX (V/m) @ t=0.54
6.559352153790256
% es.EY (V/m) @ t=0.54
-1.0051007395577898
% es.EZ (V/m) @ t=0.54
5.2401435907091845
% es.tEX (V/m) @ t=0.54
6.559352153790282
% es.tEY (V/m) @ t=0.54
0
% es.tEZ (V/m) @ t=0.54
5.2401435907091924
% es.Ex (V/m) @ t=0.54
6.559352153790256
% es.Ey (V/m) @ t=0.54
-1.0051007395577898
% es.Ez (V/m) @ t=0.54
5.2401435907091845
% es.tEx (V/m) @ t=0.54
6.559352153790282
% es.tEy (V/m) @ t=0.54
0
% es.tEz (V/m) @ t=0.54
5.2401435907091924
% V (V) @ t=0.54
0.006990699694620575
% es.normE (V/m) @ t=0.56
8.54604358591774
% es.EX (V/m) @ t=0.56
6.622214491968302
% es.EY (V/m) @ t=0.56
-1.0147289549423029
% es.EZ (V/m) @ t=0.56
5.290383612732313
% es.tEX (V/m) @ t=0.56
6.622214491968332
% es.tEY (V/m) @ t=0.56
0
% es.tEZ (V/m) @ t=0.56
5.290383612732311
% es.Ex (V/m) @ t=0.56
6.622214491968302
% es.Ey (V/m) @ t=0.56
-1.0147289549423029
% es.Ez (V/m) @ t=0.56
5.290383612732313
% es.tEx (V/m) @ t=0.56
6.622214491968332
% es.tEy (V/m) @ t=0.56
0
% es.tEz (V/m) @ t=0.56
5.290383612732311
% V (V) @ t=0.56
0.007057673837090576
% es.normE (V/m) @ t=0.58
8.62892233377011
% es.EX (V/m) @ t=0.58
6.6864243651267845
% es.EY (V/m) @ t=0.58
-1.0245623132417911
% es.EZ (V/m) @ t=0.58
5.341706564845284
% es.tEX (V/m) @ t=0.58
6.686424365126816
% es.tEY (V/m) @ t=0.58
0
% es.tEZ (V/m) @ t=0.58
5.341706564845285
% es.Ex (V/m) @ t=0.58
6.6864243651267845
% es.Ey (V/m) @ t=0.58
-1.0245623132417911
% es.Ez (V/m) @ t=0.58
5.341706564845284
% es.tEx (V/m) @ t=0.58
6.686424365126816
% es.tEy (V/m) @ t=0.58
0
% es.tEz (V/m) @ t=0.58
5.341706564845285
% V (V) @ t=0.58
0.007126077222241025
% es.normE (V/m) @ t=0.6
8.711801081704586
% es.EX (V/m) @ t=0.6
6.750634238285229
% es.EY (V/m) @ t=0.6
-1.0343956715412688
% es.EZ (V/m) @ t=0.6
5.393029516958261
% es.tEX (V/m) @ t=0.6
6.750634238285256
% es.tEY (V/m) @ t=0.6
0
% es.tEZ (V/m) @ t=0.6
5.393029516958257
% es.Ex (V/m) @ t=0.6
6.750634238285229
% es.Ey (V/m) @ t=0.6
-1.0343956715412688
% es.Ez (V/m) @ t=0.6
5.393029516958261
% es.tEx (V/m) @ t=0.6
6.750634238285256
% es.tEy (V/m) @ t=0.6
0
% es.tEz (V/m) @ t=0.6
5.393029516958257
% V (V) @ t=0.6
0.0071944806073914735
% es.normE (V/m) @ t=0.62
8.794679829718849
% es.EX (V/m) @ t=0.62
6.814844111443659
% es.EY (V/m) @ t=0.62
-1.0442290298407464
% es.EZ (V/m) @ t=0.62
5.444352469071229
% es.tEX (V/m) @ t=0.62
6.814844111443669
% es.tEY (V/m) @ t=0.62
0
% es.tEZ (V/m) @ t=0.62
5.44435246907123
% es.Ex (V/m) @ t=0.62
6.814844111443659
% es.Ey (V/m) @ t=0.62
-1.0442290298407464
% es.Ez (V/m) @ t=0.62
5.444352469071229
% es.tEx (V/m) @ t=0.62
6.814844111443669
% es.tEy (V/m) @ t=0.62
0
% es.tEz (V/m) @ t=0.62
5.44435246907123
% V (V) @ t=0.62
0.00726288399254192
% es.normE (V/m) @ t=0.64
8.877558577810735
% es.EX (V/m) @ t=0.64
6.879053984602145
% es.EY (V/m) @ t=0.64
-1.0540623881402365
% es.EZ (V/m) @ t=0.64
5.495675421184197
% es.tEX (V/m) @ t=0.64
6.87905398460218
% es.tEY (V/m) @ t=0.64
0
% es.tEZ (V/m) @ t=0.64
5.495675421184197
% es.Ex (V/m) @ t=0.64
6.879053984602145
% es.Ey (V/m) @ t=0.64
-1.0540623881402365
% es.Ez (V/m) @ t=0.64
5.495675421184197
% es.tEx (V/m) @ t=0.64
6.87905398460218
% es.tEy (V/m) @ t=0.64
0
% es.tEz (V/m) @ t=0.64
5.495675421184197
% V (V) @ t=0.64
0.007331287377692368
% es.normE (V/m) @ t=0.66
8.960437325978003
% es.EX (V/m) @ t=0.66
6.943263857760574
% es.EY (V/m) @ t=0.66
-1.0638957464397123
% es.EZ (V/m) @ t=0.66
5.546998373297178
% es.tEX (V/m) @ t=0.66
6.943263857760607
% es.tEY (V/m) @ t=0.66
0
% es.tEZ (V/m) @ t=0.66
5.546998373297162
% es.Ex (V/m) @ t=0.66
6.943263857760574
% es.Ey (V/m) @ t=0.66
-1.0638957464397123
% es.Ez (V/m) @ t=0.66
5.546998373297178
% es.tEx (V/m) @ t=0.66
6.943263857760607
% es.tEy (V/m) @ t=0.66
0
% es.tEz (V/m) @ t=0.66
5.546998373297162
% V (V) @ t=0.66
0.007399690762842817
% es.normE (V/m) @ t=0.68
9.043316074218637
% es.EX (V/m) @ t=0.68
7.007473730919046
% es.EY (V/m) @ t=0.68
-1.0737291047391846
% es.EZ (V/m) @ t=0.68
5.598321325410138
% es.tEX (V/m) @ t=0.68
7.007473730919047
% es.tEY (V/m) @ t=0.68
0
% es.tEZ (V/m) @ t=0.68
5.598321325410136
% es.Ex (V/m) @ t=0.68
7.007473730919046
% es.Ey (V/m) @ t=0.68
-1.0737291047391846
% es.Ez (V/m) @ t=0.68
5.598321325410138
% es.tEx (V/m) @ t=0.68
7.007473730919047
% es.tEy (V/m) @ t=0.68
0
% es.tEz (V/m) @ t=0.68
5.598321325410136
% V (V) @ t=0.68
0.007468094147993263
% es.normE (V/m) @ t=0.7
9.126194822530593
% es.EX (V/m) @ t=0.7
7.071683604077462
% es.EY (V/m) @ t=0.7
-1.0835624630386675
% es.EZ (V/m) @ t=0.7
5.649644277523117
% es.tEX (V/m) @ t=0.7
7.071683604077489
% es.tEY (V/m) @ t=0.7
0
% es.tEZ (V/m) @ t=0.7
5.649644277523116
% es.Ex (V/m) @ t=0.7
7.071683604077462
% es.Ey (V/m) @ t=0.7
-1.0835624630386675
% es.Ez (V/m) @ t=0.7
5.649644277523117
% es.tEx (V/m) @ t=0.7
7.071683604077489
% es.tEy (V/m) @ t=0.7
0
% es.tEz (V/m) @ t=0.7
5.649644277523116
% V (V) @ t=0.7
0.007536497533143712
% es.normE (V/m) @ t=0.72
9.209073570912008
% es.EX (V/m) @ t=0.72
7.135893477235941
% es.EY (V/m) @ t=0.72
-1.09339582133817
% es.EZ (V/m) @ t=0.72
5.70096722963608
% es.tEX (V/m) @ t=0.72
7.135893477235972
% es.tEY (V/m) @ t=0.72
0
% es.tEZ (V/m) @ t=0.72
5.700967229636067
% es.Ex (V/m) @ t=0.72
7.135893477235941
% es.Ey (V/m) @ t=0.72
-1.09339582133817
% es.Ez (V/m) @ t=0.72
5.70096722963608
% es.tEx (V/m) @ t=0.72
7.135893477235972
% es.tEy (V/m) @ t=0.72
0
% es.tEz (V/m) @ t=0.72
5.700967229636067
% V (V) @ t=0.72
0.007604900918294161
% es.normE (V/m) @ t=0.74
9.291952319360956
% es.EX (V/m) @ t=0.74
7.200103350394377
% es.EY (V/m) @ t=0.74
-1.1032291796376352
% es.EZ (V/m) @ t=0.74
5.752290181749048
% es.tEX (V/m) @ t=0.74
7.2001033503944125
% es.tEY (V/m) @ t=0.74
0
% es.tEZ (V/m) @ t=0.74
5.752290181749048
% es.Ex (V/m) @ t=0.74
7.200103350394377
% es.Ey (V/m) @ t=0.74
-1.1032291796376352
% es.Ez (V/m) @ t=0.74
5.752290181749048
% es.tEx (V/m) @ t=0.74
7.2001033503944125
% es.tEy (V/m) @ t=0.74
0
% es.tEz (V/m) @ t=0.74
5.752290181749048
% V (V) @ t=0.74
0.007673304303444607
% es.normE (V/m) @ t=0.76
9.374831067875718
% es.EX (V/m) @ t=0.76
7.264313223552857
% es.EY (V/m) @ t=0.76
-1.1130625379371253
% es.EZ (V/m) @ t=0.76
5.803613133862022
% es.tEX (V/m) @ t=0.76
7.264313223552881
% es.tEY (V/m) @ t=0.76
0
% es.tEZ (V/m) @ t=0.76
5.803613133862021
% es.Ex (V/m) @ t=0.76
7.264313223552857
% es.Ey (V/m) @ t=0.76
-1.1130625379371253
% es.Ez (V/m) @ t=0.76
5.803613133862022
% es.tEx (V/m) @ t=0.76
7.264313223552881
% es.tEy (V/m) @ t=0.76
0
% es.tEz (V/m) @ t=0.76
5.803613133862021
% V (V) @ t=0.76
0.007741707688595057
% es.normE (V/m) @ t=0.78
9.457709816454539
% es.EX (V/m) @ t=0.78
7.328523096711351
% es.EY (V/m) @ t=0.78
-1.12289589623661
% es.EZ (V/m) @ t=0.78
5.854936085975007
% es.tEX (V/m) @ t=0.78
7.328523096711365
% es.tEY (V/m) @ t=0.78
0
% es.tEZ (V/m) @ t=0.78
5.854936085974994
% es.Ex (V/m) @ t=0.78
7.328523096711351
% es.Ey (V/m) @ t=0.78
-1.12289589623661
% es.Ez (V/m) @ t=0.78
5.854936085975007
% es.tEx (V/m) @ t=0.78
7.328523096711365
% es.tEy (V/m) @ t=0.78
0
% es.tEz (V/m) @ t=0.78
5.854936085974994
% V (V) @ t=0.78
0.007810111073745504
% es.normE (V/m) @ t=0.8
9.540588565095662
% es.EX (V/m) @ t=0.8
7.3927329698697655
% es.EY (V/m) @ t=0.8
-1.1327292545360894
% es.EZ (V/m) @ t=0.8
5.906259038087968
% es.tEX (V/m) @ t=0.8
7.39273296986979
% es.tEY (V/m) @ t=0.8
0
% es.tEZ (V/m) @ t=0.8
5.90625903808796
% es.Ex (V/m) @ t=0.8
7.3927329698697655
% es.Ey (V/m) @ t=0.8
-1.1327292545360894
% es.Ez (V/m) @ t=0.8
5.906259038087968
% es.tEx (V/m) @ t=0.8
7.39273296986979
% es.tEy (V/m) @ t=0.8
0
% es.tEz (V/m) @ t=0.8
5.90625903808796
% V (V) @ t=0.8
0.00787851445889595
% es.normE (V/m) @ t=0.82
9.62542986592479
% es.EX (V/m) @ t=0.82
7.458466403355897
% es.EY (V/m) @ t=0.82
-1.1427974032254884
% es.EZ (V/m) @ t=0.82
5.958792771292064
% es.tEX (V/m) @ t=0.82
7.458466403355923
% es.tEY (V/m) @ t=0.82
0
% es.tEZ (V/m) @ t=0.82
5.958792771292059
% es.Ex (V/m) @ t=0.82
7.458466403355897
% es.Ey (V/m) @ t=0.82
-1.1427974032254884
% es.Ez (V/m) @ t=0.82
5.958792771292064
% es.tEx (V/m) @ t=0.82
7.458466403355923
% es.tEy (V/m) @ t=0.82
0
% es.tEz (V/m) @ t=0.82
5.958792771292059
% V (V) @ t=0.82
0.007948548451660289
% es.normE (V/m) @ t=0.84
9.718156130239592
% es.EX (V/m) @ t=0.84
7.5303210589700456
% es.EY (V/m) @ t=0.84
-1.1538088713910408
% es.EZ (V/m) @ t=0.84
6.016191070652573
% es.tEX (V/m) @ t=0.84
7.530321058970075
% es.tEY (V/m) @ t=0.84
0
% es.tEZ (V/m) @ t=0.84
6.016191070652562
% es.Ex (V/m) @ t=0.84
7.5303210589700456
% es.Ey (V/m) @ t=0.84
-1.1538088713910408
% es.Ez (V/m) @ t=0.84
6.016191070652573
% es.tEx (V/m) @ t=0.84
7.530321058970075
% es.tEy (V/m) @ t=0.84
0
% es.tEz (V/m) @ t=0.84
6.016191070652562
% V (V) @ t=0.84
0.008025133751404052
% es.normE (V/m) @ t=0.86
9.810882394561872
% es.EX (V/m) @ t=0.86
7.602175714584209
% es.EY (V/m) @ t=0.86
-1.164820339556627
% es.EZ (V/m) @ t=0.86
6.073589370013064
% es.tEX (V/m) @ t=0.86
7.602175714584226
% es.tEY (V/m) @ t=0.86
0
% es.tEZ (V/m) @ t=0.86
6.073589370013058
% es.Ex (V/m) @ t=0.86
7.602175714584209
% es.Ey (V/m) @ t=0.86
-1.164820339556627
% es.Ez (V/m) @ t=0.86
6.073589370013064
% es.tEx (V/m) @ t=0.86
7.602175714584226
% es.tEy (V/m) @ t=0.86
0
% es.tEz (V/m) @ t=0.86
6.073589370013058
% V (V) @ t=0.86
0.008101719051147819
% es.normE (V/m) @ t=0.88
9.903608658891407
% es.EX (V/m) @ t=0.88
7.674030370198357
% es.EY (V/m) @ t=0.88
-1.1758318077222079
% es.EZ (V/m) @ t=0.88
6.130987669373562
% es.tEX (V/m) @ t=0.88
7.674030370198392
% es.tEY (V/m) @ t=0.88
0
% es.tEZ (V/m) @ t=0.88
6.130987669373547
% es.Ex (V/m) @ t=0.88
7.674030370198357
% es.Ey (V/m) @ t=0.88
-1.1758318077222079
% es.Ez (V/m) @ t=0.88
6.130987669373562
% es.tEx (V/m) @ t=0.88
7.674030370198392
% es.tEy (V/m) @ t=0.88
0
% es.tEz (V/m) @ t=0.88
6.130987669373547
% V (V) @ t=0.88
0.008178304350891582
% es.normE (V/m) @ t=0.9
9.99633492322802
% es.EX (V/m) @ t=0.9
7.745885025812506
% es.EY (V/m) @ t=0.9
-1.186843275887778
% es.EZ (V/m) @ t=0.9
6.18838596873408
% es.tEX (V/m) @ t=0.9
7.745885025812529
% es.tEY (V/m) @ t=0.9
0
% es.tEZ (V/m) @ t=0.9
6.188385968734077
% es.Ex (V/m) @ t=0.9
7.745885025812506
% es.Ey (V/m) @ t=0.9
-1.186843275887778
% es.Ez (V/m) @ t=0.9
6.18838596873408
% es.tEx (V/m) @ t=0.9
7.745885025812529
% es.tEy (V/m) @ t=0.9
0
% es.tEz (V/m) @ t=0.9
6.188385968734077
% V (V) @ t=0.9
0.008254889650635347
% es.normE (V/m) @ t=0.92
10.089061187571474
% es.EX (V/m) @ t=0.92
7.817739681426648
% es.EY (V/m) @ t=0.92
-1.1978547440533163
% es.EZ (V/m) @ t=0.92
6.245784268094571
% es.tEX (V/m) @ t=0.92
7.817739681426681
% es.tEY (V/m) @ t=0.92
0
% es.tEZ (V/m) @ t=0.92
6.245784268094566
% es.Ex (V/m) @ t=0.92
7.817739681426648
% es.Ey (V/m) @ t=0.92
-1.1978547440533163
% es.Ez (V/m) @ t=0.92
6.245784268094571
% es.tEx (V/m) @ t=0.92
7.817739681426681
% es.tEy (V/m) @ t=0.92
0
% es.tEz (V/m) @ t=0.92
6.245784268094566
% V (V) @ t=0.92
0.008331474950379114
% es.normE (V/m) @ t=0.94
10.181787451921672
% es.EX (V/m) @ t=0.94
7.889594337040854
% es.EY (V/m) @ t=0.94
-1.2088662122189042
% es.EZ (V/m) @ t=0.94
6.30318256745508
% es.tEX (V/m) @ t=0.94
7.889594337040889
% es.tEY (V/m) @ t=0.94
0
% es.tEZ (V/m) @ t=0.94
6.303182567455068
% es.Ex (V/m) @ t=0.94
7.889594337040854
% es.Ey (V/m) @ t=0.94
-1.2088662122189042
% es.Ez (V/m) @ t=0.94
6.30318256745508
% es.tEx (V/m) @ t=0.94
7.889594337040889
% es.tEy (V/m) @ t=0.94
0
% es.tEz (V/m) @ t=0.94
6.303182567455068
% V (V) @ t=0.94
0.008408060250122877
% es.normE (V/m) @ t=0.96
10.274513716278319
% es.EX (V/m) @ t=0.96
7.961448992655017
% es.EY (V/m) @ t=0.96
-1.2198776803844638
% es.EZ (V/m) @ t=0.96
6.360580866815567
% es.tEX (V/m) @ t=0.96
7.961448992655069
% es.tEY (V/m) @ t=0.96
0
% es.tEZ (V/m) @ t=0.96
6.360580866815564
% es.Ex (V/m) @ t=0.96
7.961448992655017
% es.Ey (V/m) @ t=0.96
-1.2198776803844638
% es.Ez (V/m) @ t=0.96
6.360580866815567
% es.tEx (V/m) @ t=0.96
7.961448992655069
% es.tEy (V/m) @ t=0.96
0
% es.tEz (V/m) @ t=0.96
6.360580866815564
% V (V) @ t=0.96
0.008484645549866644
% es.normE (V/m) @ t=0.98
10.367239980641282
% es.EX (V/m) @ t=0.98
8.03330364826915
% es.EY (V/m) @ t=0.98
-1.2308891485500286
% es.EZ (V/m) @ t=0.98
6.417979166176075
% es.tEX (V/m) @ t=0.98
8.033303648269179
% es.tEY (V/m) @ t=0.98
0
% es.tEZ (V/m) @ t=0.98
6.4179791661760595
% es.Ex (V/m) @ t=0.98
8.03330364826915
% es.Ey (V/m) @ t=0.98
-1.2308891485500286
% es.Ez (V/m) @ t=0.98
6.417979166176075
% es.tEx (V/m) @ t=0.98
8.033303648269179
% es.tEy (V/m) @ t=0.98
0
% es.tEz (V/m) @ t=0.98
6.4179791661760595
% V (V) @ t=0.98
0.008561230849610406
% es.normE (V/m) @ t=1
10.459966245010424
% es.EX (V/m) @ t=1
8.105158303883329
% es.EY (V/m) @ t=1
-1.24190061671559
% es.EZ (V/m) @ t=1
6.475377465536566
% es.tEX (V/m) @ t=1
8.105158303883371
% es.tEY (V/m) @ t=1
0
% es.tEZ (V/m) @ t=1
6.475377465536569
% es.Ex (V/m) @ t=1
8.105158303883329
% es.Ey (V/m) @ t=1
-1.24190061671559
% es.Ez (V/m) @ t=1
6.475377465536566
% es.tEx (V/m) @ t=1
8.105158303883371
% es.tEy (V/m) @ t=1
0
% es.tEz (V/m) @ t=1
6.475377465536569
% V (V) @ t=1
0.008637816149354173
% es.normE (V/m) @ t=1.02
10.552692509385555
% es.EX (V/m) @ t=1.02
8.177012959497485
% es.EY (V/m) @ t=1.02
-1.252912084881169
% es.EZ (V/m) @ t=1.02
6.532775764897071
% es.tEX (V/m) @ t=1.02
8.177012959497539
% es.tEY (V/m) @ t=1.02
0
% es.tEZ (V/m) @ t=1.02
6.532775764897072
% es.Ex (V/m) @ t=1.02
8.177012959497485
% es.Ey (V/m) @ t=1.02
-1.252912084881169
% es.Ez (V/m) @ t=1.02
6.532775764897071
% es.tEx (V/m) @ t=1.02
8.177012959497539
% es.tEy (V/m) @ t=1.02
0
% es.tEz (V/m) @ t=1.02
6.532775764897072
% V (V) @ t=1.02
0.00871440144909794
% es.normE (V/m) @ t=1.04
10.645418773766476
% es.EX (V/m) @ t=1.04
8.248867615111584
% es.EY (V/m) @ t=1.04
-1.2639235530467197
% es.EZ (V/m) @ t=1.04
6.5901740642575755
% es.tEX (V/m) @ t=1.04
8.248867615111617
% es.tEY (V/m) @ t=1.04
0
% es.tEZ (V/m) @ t=1.04
6.590174064257575
% es.Ex (V/m) @ t=1.04
8.248867615111584
% es.Ey (V/m) @ t=1.04
-1.2639235530467197
% es.Ez (V/m) @ t=1.04
6.5901740642575755
% es.tEx (V/m) @ t=1.04
8.248867615111617
% es.tEy (V/m) @ t=1.04
0
% es.tEz (V/m) @ t=1.04
6.590174064257575
% V (V) @ t=1.04
0.008790986748841701
% es.normE (V/m) @ t=1.06
10.73814503815317
% es.EX (V/m) @ t=1.06
8.320722270725788
% es.EY (V/m) @ t=1.06
-1.2749350212122845
% es.EZ (V/m) @ t=1.06
6.6475723636180835
% es.tEX (V/m) @ t=1.06
8.320722270725856
% es.tEY (V/m) @ t=1.06
0