% Model:              1 neuron.mph
% Version:            COMSOL 6.0.0.405
% Date:               Mar 9 2023, 14:09
% Dimension:          0
% Nodes:              14017
% Expressions:        14017
% Description:        Electric field norm, Electric field, X component, Electric field, Y component, Electric field, Z component, Tangential electric field, X component, Tangential electric field, Y component, Tangential electric field, Z component, Electric field, x component, Electric field, y component, Electric field, z component, Tangential electric field, x component, Tangential electric field, y component, Tangential electric field, z component, Electric potential
% Length unit:        mm
% x
1.66
% y
12.2
% z
1.33
% es.normE (V/m) @ t=0
7.690472646890088
% es.EX (V/m) @ t=0
-4.273137462578509
% es.EY (V/m) @ t=0
-0.4612479776961731
% es.EZ (V/m) @ t=0
5.72170321395163
% es.tEX (V/m) @ t=0
-4.273137462578522
% es.tEY (V/m) @ t=0
0
% es.tEZ (V/m) @ t=0
5.7217032139516215
% es.Ex (V/m) @ t=0
-4.273137462578509
% es.Ey (V/m) @ t=0
-0.4612479776961731
% es.Ez (V/m) @ t=0
5.72170321395163
% es.tEx (V/m) @ t=0
-4.273137462578522
% es.tEy (V/m) @ t=0
0
% es.tEz (V/m) @ t=0
5.7217032139516215
% V (V) @ t=0
0.00631591594934203
% es.normE (V/m) @ t=0.02
6.642419081314446
% es.EX (V/m) @ t=0.02
-3.6907966396589345
% es.EY (V/m) @ t=0.02
-0.39838928504171855
% es.EZ (V/m) @ t=0.02
4.9419524817637726
% es.tEX (V/m) @ t=0.02
-3.6907966396589407
% es.tEY (V/m) @ t=0.02
0
% es.tEZ (V/m) @ t=0.02
4.941952481763767
% es.Ex (V/m) @ t=0.02
-3.6907966396589345
% es.Ey (V/m) @ t=0.02
-0.39838928504171855
% es.Ez (V/m) @ t=0.02
4.9419524817637726
% es.tEx (V/m) @ t=0.02
-3.6907966396589407
% es.tEy (V/m) @ t=0.02
0
% es.tEz (V/m) @ t=0.02
4.941952481763767
% V (V) @ t=0.02
0.005455186163673863
% es.normE (V/m) @ t=0.04
6.7035268926863605
% es.EX (V/m) @ t=0.04
-3.724750791990216
% es.EY (V/m) @ t=0.04
-0.4020542114598309
% es.EZ (V/m) @ t=0.04
4.9874165745887185
% es.tEX (V/m) @ t=0.04
-3.7247507919902256
% es.tEY (V/m) @ t=0.04
0
% es.tEZ (V/m) @ t=0.04
4.98741657458871
% es.Ex (V/m) @ t=0.04
-3.724750791990216
% es.Ey (V/m) @ t=0.04
-0.4020542114598309
% es.Ez (V/m) @ t=0.04
4.9874165745887185
% es.tEx (V/m) @ t=0.04
-3.7247507919902256
% es.tEy (V/m) @ t=0.04
0
% es.tEz (V/m) @ t=0.04
4.98741657458871
% V (V) @ t=0.04
0.005505371720443271
% es.normE (V/m) @ t=0.06
6.765180905153583
% es.EX (V/m) @ t=0.06
-3.7590081099687387
% es.EY (V/m) @ t=0.06
-0.4057520919481816
% es.EZ (V/m) @ t=0.06
5.033287132971952
% es.tEX (V/m) @ t=0.06
-3.759008109968745
% es.tEY (V/m) @ t=0.06
0
% es.tEZ (V/m) @ t=0.06
5.033287132971946
% es.Ex (V/m) @ t=0.06
-3.7590081099687387
% es.Ey (V/m) @ t=0.06
-0.4057520919481816
% es.Ez (V/m) @ t=0.06
5.033287132971952
% es.tEx (V/m) @ t=0.06
-3.759008109968745
% es.tEy (V/m) @ t=0.06
0
% es.tEz (V/m) @ t=0.06
5.033287132971946
% V (V) @ t=0.06
0.005556006119979598
% es.normE (V/m) @ t=0.08
6.827784701989472
% es.EX (V/m) @ t=0.08
-3.793795076740162
% es.EY (V/m) @ t=0.08
-0.409505794589746
% es.EZ (V/m) @ t=0.08
5.079863787634781
% es.tEX (V/m) @ t=0.08
-3.7937950767401754
% es.tEY (V/m) @ t=0.08
0
% es.tEZ (V/m) @ t=0.08
5.079863787634771
% es.Ex (V/m) @ t=0.08
-3.793795076740162
% es.Ey (V/m) @ t=0.08
-0.409505794589746
% es.Ez (V/m) @ t=0.08
5.079863787634781
% es.tEx (V/m) @ t=0.08
-3.7937950767401754
% es.tEy (V/m) @ t=0.08
0
% es.tEz (V/m) @ t=0.08
5.079863787634771
% V (V) @ t=0.08
0.005607418979153438
% es.normE (V/m) @ t=0.1
6.8910221146078054
% es.EX (V/m) @ t=0.1
-3.828935380378663
% es.EY (V/m) @ t=0.1
-0.4132967370494436
% es.EZ (V/m) @ t=0.1
5.126911490000474
% es.tEX (V/m) @ t=0.1
-3.828935380378666
% es.tEY (V/m) @ t=0.1
0
% es.tEZ (V/m) @ t=0.1
5.1269114900004675
% es.Ex (V/m) @ t=0.1
-3.828935380378663
% es.Ey (V/m) @ t=0.1
-0.4132967370494436
% es.Ez (V/m) @ t=0.1
5.126911490000474
% es.tEx (V/m) @ t=0.1
-3.828935380378666
% es.tEy (V/m) @ t=0.1
0
% es.tEz (V/m) @ t=0.1
5.1269114900004675
% V (V) @ t=0.1
0.005659351160740738
% es.normE (V/m) @ t=0.12
6.954259527228853
% es.EX (V/m) @ t=0.12
-3.8640756840171315
% es.EY (V/m) @ t=0.12
-0.4170876795091607
% es.EZ (V/m) @ t=0.12
5.173959192366186
% es.tEX (V/m) @ t=0.12
-3.864075684017134
% es.tEY (V/m) @ t=0.12
0
% es.tEZ (V/m) @ t=0.12
5.173959192366178
% es.Ex (V/m) @ t=0.12
-3.8640756840171315
% es.Ey (V/m) @ t=0.12
-0.4170876795091607
% es.Ez (V/m) @ t=0.12
5.173959192366186
% es.tEx (V/m) @ t=0.12
-3.864075684017134
% es.tEy (V/m) @ t=0.12
0
% es.tEz (V/m) @ t=0.12
5.173959192366178
% V (V) @ t=0.12
0.005711283342328037
% es.normE (V/m) @ t=0.14
7.018204368218754
% es.EX (V/m) @ t=0.14
-3.8996081116041035
% es.EY (V/m) @ t=0.14
-0.42092162044861103
% es.EZ (V/m) @ t=0.14
5.221533490858258
% es.tEX (V/m) @ t=0.14
-3.8996081116041026
% es.tEY (V/m) @ t=0.14
0
% es.tEZ (V/m) @ t=0.14
5.221533490858251
% es.Ex (V/m) @ t=0.14
-3.8996081116041035
% es.Ey (V/m) @ t=0.14
-0.42092162044861103
% es.Ez (V/m) @ t=0.14
5.221533490858258
% es.tEx (V/m) @ t=0.14
-3.8996081116041026
% es.tEy (V/m) @ t=0.14
0
% es.tEz (V/m) @ t=0.14
5.221533490858251
% V (V) @ t=0.14
0.0057637972899105975
% es.normE (V/m) @ t=0.16
7.084816766267142
% es.EX (V/m) @ t=0.16
-3.936619152512165
% es.EY (V/m) @ t=0.16
-0.4249176992151411
% es.EZ (V/m) @ t=0.16
5.271093467731525
% es.tEX (V/m) @ t=0.16
-3.936619152512171
% es.tEY (V/m) @ t=0.16
0
% es.tEZ (V/m) @ t=0.16
5.271093467731522
% es.Ex (V/m) @ t=0.16
-3.936619152512165
% es.Ey (V/m) @ t=0.16
-0.4249176992151411
% es.Ez (V/m) @ t=0.16
5.271093467731525
% es.tEx (V/m) @ t=0.16
-3.936619152512171
% es.tEy (V/m) @ t=0.16
0
% es.tEz (V/m) @ t=0.16
5.271093467731522
% V (V) @ t=0.16
0.005818504949337722
% es.normE (V/m) @ t=0.18
7.1514291643162675
% es.EX (V/m) @ t=0.18
-3.9736301934202345
% es.EY (V/m) @ t=0.18
-0.4289137779816532
% es.EZ (V/m) @ t=0.18
5.320653444604791
% es.tEX (V/m) @ t=0.18
-3.973630193420248
% es.tEY (V/m) @ t=0.18
0
% es.tEZ (V/m) @ t=0.18
5.320653444604785
% es.Ex (V/m) @ t=0.18
-3.9736301934202345
% es.Ey (V/m) @ t=0.18
-0.4289137779816532
% es.Ez (V/m) @ t=0.18
5.320653444604791
% es.tEx (V/m) @ t=0.18
-3.973630193420248
% es.tEy (V/m) @ t=0.18
0
% es.tEz (V/m) @ t=0.18
5.320653444604785
% V (V) @ t=0.18
0.005873212608764847
% es.normE (V/m) @ t=0.2
7.2180415623661105
% es.EX (V/m) @ t=0.2
-4.0106412343283075
% es.EY (V/m) @ t=0.2
-0.4329098567481726
% es.EZ (V/m) @ t=0.2
5.370213421478059
% es.tEX (V/m) @ t=0.2
-4.010641234328314
% es.tEY (V/m) @ t=0.2
0
% es.tEZ (V/m) @ t=0.2
5.370213421478055
% es.Ex (V/m) @ t=0.2
-4.0106412343283075
% es.Ey (V/m) @ t=0.2
-0.4329098567481726
% es.Ez (V/m) @ t=0.2
5.370213421478059
% es.tEx (V/m) @ t=0.2
-4.010641234328314
% es.tEy (V/m) @ t=0.2
0
% es.tEz (V/m) @ t=0.2
5.370213421478055
% V (V) @ t=0.2
0.005927920268191972
% es.normE (V/m) @ t=0.22
7.284653960416639
% es.EX (V/m) @ t=0.22
-4.047652275236369
% es.EY (V/m) @ t=0.22
-0.43690593551467627
% es.EZ (V/m) @ t=0.22
5.419773398351331
% es.tEX (V/m) @ t=0.22
-4.047652275236379
% es.tEY (V/m) @ t=0.22
0
% es.tEZ (V/m) @ t=0.22
5.419773398351325
% es.Ex (V/m) @ t=0.22
-4.047652275236369
% es.Ey (V/m) @ t=0.22
-0.43690593551467627
% es.Ez (V/m) @ t=0.22
5.419773398351331
% es.tEx (V/m) @ t=0.22
-4.047652275236379
% es.tEy (V/m) @ t=0.22
0
% es.tEz (V/m) @ t=0.22
5.419773398351325
% V (V) @ t=0.22
0.005982627927619097
% es.normE (V/m) @ t=0.24
7.351266358467847
% es.EX (V/m) @ t=0.24
-4.084663316144442
% es.EY (V/m) @ t=0.24
-0.44090201428120634
% es.EZ (V/m) @ t=0.24
5.469333375224596
% es.tEX (V/m) @ t=0.24
-4.084663316144452
% es.tEY (V/m) @ t=0.24
0
% es.tEZ (V/m) @ t=0.24
5.469333375224588
% es.Ex (V/m) @ t=0.24
-4.084663316144442
% es.Ey (V/m) @ t=0.24
-0.44090201428120634
% es.Ez (V/m) @ t=0.24
5.469333375224596
% es.tEx (V/m) @ t=0.24
-4.084663316144452
% es.tEy (V/m) @ t=0.24
0
% es.tEz (V/m) @ t=0.24
5.469333375224588
% V (V) @ t=0.24
0.006037335587046222
% es.normE (V/m) @ t=0.26
7.417878756519704
% es.EX (V/m) @ t=0.26
-4.121674357052508
% es.EY (V/m) @ t=0.26
-0.4448980930477171
% es.EZ (V/m) @ t=0.26
5.518893352097863
% es.tEX (V/m) @ t=0.26
-4.121674357052518
% es.tEY (V/m) @ t=0.26
0
% es.tEZ (V/m) @ t=0.26
5.518893352097858
% es.Ex (V/m) @ t=0.26
-4.121674357052508
% es.Ey (V/m) @ t=0.26
-0.4448980930477171
% es.Ez (V/m) @ t=0.26
5.518893352097863
% es.tEx (V/m) @ t=0.26
-4.121674357052518
% es.tEy (V/m) @ t=0.26
0
% es.tEz (V/m) @ t=0.26
5.518893352097858
% V (V) @ t=0.26
0.006092043246473347
% es.normE (V/m) @ t=0.28
7.487761091901501
% es.EX (V/m) @ t=0.28
-4.160492583794971
% es.EY (V/m) @ t=0.28
-0.4490961125781412
% es.EZ (V/m) @ t=0.28
5.570888914328528
% es.tEX (V/m) @ t=0.28
-4.16049258379497
% es.tEY (V/m) @ t=0.28
0
% es.tEZ (V/m) @ t=0.28
5.570888914328519
% es.Ex (V/m) @ t=0.28
-4.160492583794971
% es.Ey (V/m) @ t=0.28
-0.4490961125781412
% es.Ez (V/m) @ t=0.28
5.570888914328528
% es.tEx (V/m) @ t=0.28
-4.16049258379497
% es.tEy (V/m) @ t=0.28
0
% es.tEz (V/m) @ t=0.28
5.570888914328519
% V (V) @ t=0.28
0.006149444349871991
% es.normE (V/m) @ t=0.3
7.561993040867563
% es.EX (V/m) @ t=0.3
-4.201714697540819
% es.EY (V/m) @ t=0.3
-0.4535627501823023
% es.EZ (V/m) @ t=0.3
5.626124249622312
% es.tEX (V/m) @ t=0.3
-4.201714697540825
% es.tEY (V/m) @ t=0.3
0
% es.tEZ (V/m) @ t=0.3
5.626124249622306
% es.Ex (V/m) @ t=0.3
-4.201714697540819
% es.Ey (V/m) @ t=0.3
-0.4535627501823023
% es.Ez (V/m) @ t=0.3
5.626124249622312
% es.tEx (V/m) @ t=0.3
-4.201714697540825
% es.tEy (V/m) @ t=0.3
0
% es.tEz (V/m) @ t=0.3
5.626124249622306
% V (V) @ t=0.3
0.006210428225354333
% es.normE (V/m) @ t=0.32
7.636224989989715
% es.EX (V/m) @ t=0.32
-4.242936811286683
% es.EY (V/m) @ t=0.32
-0.45802938778647784
% es.EZ (V/m) @ t=0.32
5.681359584916083
% es.tEX (V/m) @ t=0.32
-4.2429368112866905
% es.tEY (V/m) @ t=0.32
0
% es.tEZ (V/m) @ t=0.32
5.6813595849160805
% es.Ex (V/m) @ t=0.32
-4.242936811286683
% es.Ey (V/m) @ t=0.32
-0.45802938778647784
% es.Ez (V/m) @ t=0.32
5.681359584916083
% es.tEx (V/m) @ t=0.32
-4.2429368112866905
% es.tEy (V/m) @ t=0.32
0
% es.tEz (V/m) @ t=0.32
5.6813595849160805
% V (V) @ t=0.32
0.006271412100836675
% es.normE (V/m) @ t=0.34
7.710456939263438
% es.EX (V/m) @ t=0.34
-4.284158925032545
% es.EY (V/m) @ t=0.34
-0.46249602539063717
% es.EZ (V/m) @ t=0.34
5.7365949202098525
% es.tEX (V/m) @ t=0.34
-4.284158925032548
% es.tEY (V/m) @ t=0.34
0
% es.tEZ (V/m) @ t=0.34
5.736594920209841
% es.Ex (V/m) @ t=0.34
-4.284158925032545
% es.Ey (V/m) @ t=0.34
-0.46249602539063717
% es.Ez (V/m) @ t=0.34
5.7365949202098525
% es.tEx (V/m) @ t=0.34
-4.284158925032548
% es.tEy (V/m) @ t=0.34
0
% es.tEz (V/m) @ t=0.34
5.736594920209841
% V (V) @ t=0.34
0.006332395976319016
% es.normE (V/m) @ t=0.36
7.784688888684411
% es.EX (V/m) @ t=0.36
-4.32538103877841
% es.EY (V/m) @ t=0.36
-0.46696266299479294
% es.EZ (V/m) @ t=0.36
5.7918302555036325
% es.tEX (V/m) @ t=0.36
-4.325381038778416
% es.tEY (V/m) @ t=0.36
0
% es.tEZ (V/m) @ t=0.36
5.791830255503629
% es.Ex (V/m) @ t=0.36
-4.32538103877841
% es.Ey (V/m) @ t=0.36
-0.46696266299479294
% es.Ez (V/m) @ t=0.36
5.7918302555036325
% es.tEx (V/m) @ t=0.36
-4.325381038778416
% es.tEy (V/m) @ t=0.36
0
% es.tEz (V/m) @ t=0.36
5.791830255503629
% V (V) @ t=0.36
0.006393379851801359
% es.normE (V/m) @ t=0.38
7.858920838248444
% es.EX (V/m) @ t=0.38
-4.366603152524255
% es.EY (V/m) @ t=0.38
-0.4714293005989507
% es.EZ (V/m) @ t=0.38
5.847065590797409
% es.tEX (V/m) @ t=0.38
-4.366603152524265
% es.tEY (V/m) @ t=0.38
0
% es.tEZ (V/m) @ t=0.38
5.847065590797403
% es.Ex (V/m) @ t=0.38
-4.366603152524255
% es.Ey (V/m) @ t=0.38
-0.4714293005989507
% es.Ez (V/m) @ t=0.38
5.847065590797409
% es.tEx (V/m) @ t=0.38
-4.366603152524265
% es.tEy (V/m) @ t=0.38
0
% es.tEz (V/m) @ t=0.38
5.847065590797403
% V (V) @ t=0.38
0.006454363727283701
% es.normE (V/m) @ t=0.4
7.933152787951542
% es.EX (V/m) @ t=0.4
-4.407825266270115
% es.EY (V/m) @ t=0.4
-0.47589593820313314
% es.EZ (V/m) @ t=0.4
5.902300926091179
% es.tEX (V/m) @ t=0.4
-4.4078252662701285
% es.tEY (V/m) @ t=0.4
0
% es.tEZ (V/m) @ t=0.4
5.9023009260911685
% es.Ex (V/m) @ t=0.4
-4.407825266270115
% es.Ey (V/m) @ t=0.4
-0.47589593820313314
% es.Ez (V/m) @ t=0.4
5.902300926091179
% es.tEx (V/m) @ t=0.4
-4.4078252662701285
% es.tEy (V/m) @ t=0.4
0
% es.tEz (V/m) @ t=0.4
5.9023009260911685
% V (V) @ t=0.4
0.006515347602766042
% es.normE (V/m) @ t=0.42
8.007384737789804
% es.EX (V/m) @ t=0.42
-4.4490473800159736
% es.EY (V/m) @ t=0.42
-0.48036257580727315
% es.EZ (V/m) @ t=0.42
5.957536261384948
% es.tEX (V/m) @ t=0.42
-4.449047380015984
% es.tEY (V/m) @ t=0.42
0
% es.tEZ (V/m) @ t=0.42
5.957536261384937
% es.Ex (V/m) @ t=0.42
-4.4490473800159736
% es.Ey (V/m) @ t=0.42
-0.48036257580727315
% es.Ez (V/m) @ t=0.42
5.957536261384948
% es.tEx (V/m) @ t=0.42
-4.449047380015984
% es.tEy (V/m) @ t=0.42
0
% es.tEz (V/m) @ t=0.42
5.957536261384937
% V (V) @ t=0.42
0.006576331478248383
% es.normE (V/m) @ t=0.44
8.08161668775955
% es.EX (V/m) @ t=0.44
-4.490269493761836
% es.EY (V/m) @ t=0.44
-0.4848292134114467
% es.EZ (V/m) @ t=0.44
6.01277159667872
% es.tEX (V/m) @ t=0.44
-4.490269493761843
% es.tEY (V/m) @ t=0.44
0
% es.tEZ (V/m) @ t=0.44
6.012771596678709
% es.Ex (V/m) @ t=0.44
-4.490269493761836
% es.Ey (V/m) @ t=0.44
-0.4848292134114467
% es.Ez (V/m) @ t=0.44
6.01277159667872
% es.tEx (V/m) @ t=0.44
-4.490269493761843
% es.tEy (V/m) @ t=0.44
0
% es.tEz (V/m) @ t=0.44
6.012771596678709
% V (V) @ t=0.44
0.006637315353730726
% es.normE (V/m) @ t=0.46
8.155848637857156
% es.EX (V/m) @ t=0.46
-4.531491607507686
% es.EY (V/m) @ t=0.46
-0.4892958510156291
% es.EZ (V/m) @ t=0.46
6.068006931972491
% es.tEX (V/m) @ t=0.46
-4.531491607507692
% es.tEY (V/m) @ t=0.46
0
% es.tEZ (V/m) @ t=0.46
6.068006931972487
% es.Ex (V/m) @ t=0.46
-4.531491607507686
% es.Ey (V/m) @ t=0.46
-0.4892958510156291
% es.Ez (V/m) @ t=0.46
6.068006931972491
% es.tEx (V/m) @ t=0.46
-4.531491607507692
% es.tEy (V/m) @ t=0.46
0
% es.tEz (V/m) @ t=0.46
6.068006931972487
% V (V) @ t=0.46
0.006698299229213068
% es.normE (V/m) @ t=0.48
8.23008058807919
% es.EX (V/m) @ t=0.48
-4.572713721253552
% es.EY (V/m) @ t=0.48
-0.49376248861977445
% es.EZ (V/m) @ t=0.48
6.123242267266276
% es.tEX (V/m) @ t=0.48
-4.572713721253555
% es.tEY (V/m) @ t=0.48
0
% es.tEZ (V/m) @ t=0.48
6.1232422672662645
% es.Ex (V/m) @ t=0.48
-4.572713721253552
% es.Ey (V/m) @ t=0.48
-0.49376248861977445
% es.Ez (V/m) @ t=0.48
6.123242267266276
% es.tEx (V/m) @ t=0.48
-4.572713721253555
% es.tEy (V/m) @ t=0.48
0
% es.tEz (V/m) @ t=0.48
6.1232422672662645
% V (V) @ t=0.48
0.006759283104695409
% es.normE (V/m) @ t=0.5
8.304312538422288
% es.EX (V/m) @ t=0.5
-4.613935834999407
% es.EY (V/m) @ t=0.5
-0.4982291262239338
% es.EZ (V/m) @ t=0.5
6.178477602560054
% es.tEX (V/m) @ t=0.5
-4.613935834999413
% es.tEY (V/m) @ t=0.5
0
% es.tEZ (V/m) @ t=0.5
6.178477602560049
% es.Ex (V/m) @ t=0.5
-4.613935834999407
% es.Ey (V/m) @ t=0.5
-0.4982291262239338
% es.Ez (V/m) @ t=0.5
6.178477602560054
% es.tEx (V/m) @ t=0.5
-4.613935834999413
% es.tEy (V/m) @ t=0.5
0
% es.tEz (V/m) @ t=0.5
6.178477602560049
% V (V) @ t=0.5
0.0068202669801777525
% es.normE (V/m) @ t=0.52
8.378544488883241
% es.EX (V/m) @ t=0.52
-4.6551579487452655
% es.EY (V/m) @ t=0.52
-0.5026957638281147
% es.EZ (V/m) @ t=0.52
6.233712937853824
% es.tEX (V/m) @ t=0.52
-4.655157948745279
% es.tEY (V/m) @ t=0.52
0
% es.tEZ (V/m) @ t=0.52
6.233712937853812
% es.Ex (V/m) @ t=0.52
-4.6551579487452655
% es.Ey (V/m) @ t=0.52
-0.5026957638281147
% es.Ez (V/m) @ t=0.52
6.233712937853824
% es.tEx (V/m) @ t=0.52
-4.655157948745279
% es.tEy (V/m) @ t=0.52
0
% es.tEz (V/m) @ t=0.52
6.233712937853812
% V (V) @ t=0.52
0.006881250855660093
% es.normE (V/m) @ t=0.54
8.45277643945894
% es.EX (V/m) @ t=0.54
-4.69638006249113
% es.EY (V/m) @ t=0.54
-0.5071624014322651
% es.EZ (V/m) @ t=0.54
6.288948273147588
% es.tEX (V/m) @ t=0.54
-4.696380062491143
% es.tEY (V/m) @ t=0.54
0
% es.tEZ (V/m) @ t=0.54
6.288948273147576
% es.Ex (V/m) @ t=0.54
-4.69638006249113
% es.Ey (V/m) @ t=0.54
-0.5071624014322651
% es.Ez (V/m) @ t=0.54
6.288948273147588
% es.tEx (V/m) @ t=0.54
-4.696380062491143
% es.tEy (V/m) @ t=0.54
0
% es.tEz (V/m) @ t=0.54
6.288948273147576
% V (V) @ t=0.54
0.006942234731142435
% es.normE (V/m) @ t=0.56
8.534383586670128
% es.EX (V/m) @ t=0.56
-4.741728757389322
% es.EY (V/m) @ t=0.56
-0.5120542412110423
% es.EZ (V/m) @ t=0.56
6.349662638848747
% es.tEX (V/m) @ t=0.56
-4.741728757389335
% es.tEY (V/m) @ t=0.56
0
% es.tEZ (V/m) @ t=0.56
6.349662638848738
% es.Ex (V/m) @ t=0.56
-4.741728757389322
% es.Ey (V/m) @ t=0.56
-0.5120542412110423
% es.Ez (V/m) @ t=0.56
6.349662638848747
% es.tEx (V/m) @ t=0.56
-4.741728757389335
% es.tEy (V/m) @ t=0.56
0
% es.tEz (V/m) @ t=0.56
6.349662638848738
% V (V) @ t=0.56
0.007009252173468881
% es.normE (V/m) @ t=0.58
8.617110015870288
% es.EX (V/m) @ t=0.58
-4.787703714622613
% es.EY (V/m) @ t=0.58
-0.5170106109473598
% es.EZ (V/m) @ t=0.58
6.411208518641167
% es.tEX (V/m) @ t=0.58
-4.787703714622619
% es.tEY (V/m) @ t=0.58
0
% es.tEZ (V/m) @ t=0.58
6.411208518641158
% es.Ex (V/m) @ t=0.58
-4.787703714622613
% es.Ey (V/m) @ t=0.58
-0.5170106109473598
% es.Ez (V/m) @ t=0.58
6.411208518641167
% es.tEx (V/m) @ t=0.58
-4.787703714622619
% es.tEy (V/m) @ t=0.58
0
% es.tEz (V/m) @ t=0.58
6.411208518641158
% V (V) @ t=0.58
0.007077185287999793
% es.normE (V/m) @ t=0.6
8.699836445104033
% es.EX (V/m) @ t=0.6
-4.833678671855879
% es.EY (V/m) @ t=0.6
-0.5219669806837128
% es.EZ (V/m) @ t=0.6
6.472754398433596
% es.tEX (V/m) @ t=0.6
-4.833678671855889
% es.tEY (V/m) @ t=0.6
0
% es.tEZ (V/m) @ t=0.6
6.4727543984335885
% es.Ex (V/m) @ t=0.6
-4.833678671855879
% es.Ey (V/m) @ t=0.6
-0.5219669806837128
% es.Ez (V/m) @ t=0.6
6.472754398433596
% es.tEx (V/m) @ t=0.6
-4.833678671855889
% es.tEy (V/m) @ t=0.6
0
% es.tEz (V/m) @ t=0.6
6.4727543984335885
% V (V) @ t=0.6
0.007145118402530707
% es.normE (V/m) @ t=0.62
8.78256287437042
% es.EX (V/m) @ t=0.62
-4.879653629089169
% es.EY (V/m) @ t=0.62
-0.5269233504200412
% es.EZ (V/m) @ t=0.62
6.534300278226014
% es.tEX (V/m) @ t=0.62
-4.879653629089183
% es.tEY (V/m) @ t=0.62
0
% es.tEZ (V/m) @ t=0.62
6.534300278226005
% es.Ex (V/m) @ t=0.62
-4.879653629089169
% es.Ey (V/m) @ t=0.62
-0.5269233504200412
% es.Ez (V/m) @ t=0.62
6.534300278226014
% es.tEx (V/m) @ t=0.62
-4.879653629089183
% es.tEy (V/m) @ t=0.62
0
% es.tEz (V/m) @ t=0.62
6.534300278226005
% V (V) @ t=0.62
0.0072130515170616225
% es.normE (V/m) @ t=0.64
8.865289303668558
% es.EX (V/m) @ t=0.64
-4.925628586322451
% es.EY (V/m) @ t=0.64
-0.5318797201564138
% es.EZ (V/m) @ t=0.64
6.595846158018443
% es.tEX (V/m) @ t=0.64
-4.9256285863224605
% es.tEY (V/m) @ t=0.64
0
% es.tEZ (V/m) @ t=0.64
6.595846158018442
% es.Ex (V/m) @ t=0.64
-4.925628586322451
% es.Ey (V/m) @ t=0.64
-0.5318797201564138
% es.Ez (V/m) @ t=0.64
6.595846158018443
% es.tEx (V/m) @ t=0.64
-4.9256285863224605
% es.tEy (V/m) @ t=0.64
0
% es.tEz (V/m) @ t=0.64
6.595846158018442
% V (V) @ t=0.64
0.007280984631592536
% es.normE (V/m) @ t=0.66
8.948015732997515
% es.EX (V/m) @ t=0.66
-4.971603543555735
% es.EY (V/m) @ t=0.66
-0.5368360898927595
% es.EZ (V/m) @ t=0.66
6.657392037810855
% es.tEX (V/m) @ t=0.66
-4.971603543555741
% es.tEY (V/m) @ t=0.66
0
% es.tEZ (V/m) @ t=0.66
6.657392037810846
% es.Ex (V/m) @ t=0.66
-4.971603543555735
% es.Ey (V/m) @ t=0.66
-0.5368360898927595
% es.Ez (V/m) @ t=0.66
6.657392037810855
% es.tEx (V/m) @ t=0.66
-4.971603543555741
% es.tEy (V/m) @ t=0.66
0
% es.tEz (V/m) @ t=0.66
6.657392037810846
% V (V) @ t=0.66
0.007348917746123449
% es.normE (V/m) @ t=0.68
9.030742162356484
% es.EX (V/m) @ t=0.68
-5.017578500789021
% es.EY (V/m) @ t=0.68
-0.541792459629088
% es.EZ (V/m) @ t=0.68
6.718937917603283
% es.tEX (V/m) @ t=0.68
-5.0175785007890275
% es.tEY (V/m) @ t=0.68
0
% es.tEZ (V/m) @ t=0.68
6.718937917603271
% es.Ex (V/m) @ t=0.68
-5.017578500789021
% es.Ey (V/m) @ t=0.68
-0.541792459629088
% es.Ez (V/m) @ t=0.68
6.718937917603283
% es.tEx (V/m) @ t=0.68
-5.0175785007890275
% es.tEy (V/m) @ t=0.68
0
% es.tEz (V/m) @ t=0.68
6.718937917603271
% V (V) @ t=0.68
0.007416850860654362
% es.normE (V/m) @ t=0.7
9.113468591744617
% es.EX (V/m) @ t=0.7
-5.06355345802228
% es.EY (V/m) @ t=0.7
-0.5467488293654372
% es.EZ (V/m) @ t=0.7
6.7804837973957035
% es.tEX (V/m) @ t=0.7
-5.0635534580222865
% es.tEY (V/m) @ t=0.7
0
% es.tEZ (V/m) @ t=0.7
6.780483797395696
% es.Ex (V/m) @ t=0.7
-5.06355345802228
% es.Ey (V/m) @ t=0.7
-0.5467488293654372
% es.Ez (V/m) @ t=0.7
6.7804837973957035
% es.tEx (V/m) @ t=0.7
-5.0635534580222865
% es.tEy (V/m) @ t=0.7
0
% es.tEz (V/m) @ t=0.7
6.780483797395696
% V (V) @ t=0.7
0.0074847839751852755
% es.normE (V/m) @ t=0.72
9.196195021161168
% es.EX (V/m) @ t=0.72
-5.109528415255563
% es.EY (V/m) @ t=0.72
-0.5517051991018032
% es.EZ (V/m) @ t=0.72
6.84202967718813
% es.tEX (V/m) @ t=0.72
-5.1095284152555696
% es.tEY (V/m) @ t=0.72
0
% es.tEZ (V/m) @ t=0.72
6.842029677188118
% es.Ex (V/m) @ t=0.72
-5.109528415255563
% es.Ey (V/m) @ t=0.72
-0.5517051991018032
% es.Ez (V/m) @ t=0.72
6.84202967718813
% es.tEx (V/m) @ t=0.72
-5.1095284152555696
% es.tEy (V/m) @ t=0.72
0
% es.tEz (V/m) @ t=0.72
6.842029677188118
% V (V) @ t=0.72
0.007552717089716188
% es.normE (V/m) @ t=0.74
9.278921450605347
% es.EX (V/m) @ t=0.74
-5.15550337248884
% es.EY (V/m) @ t=0.74
-0.5566615688381382
% es.EZ (V/m) @ t=0.74
6.903575556980564
% es.tEX (V/m) @ t=0.74
-5.155503372488857
% es.tEY (V/m) @ t=0.74
0
% es.tEZ (V/m) @ t=0.74
6.903575556980563
% es.Ex (V/m) @ t=0.74
-5.15550337248884
% es.Ey (V/m) @ t=0.74
-0.5566615688381382
% es.Ez (V/m) @ t=0.74
6.903575556980564
% es.tEx (V/m) @ t=0.74
-5.155503372488857
% es.tEy (V/m) @ t=0.74
0
% es.tEz (V/m) @ t=0.74
6.903575556980563
% V (V) @ t=0.74
0.007620650204247103
% es.normE (V/m) @ t=0.76
9.361647880076422
% es.EX (V/m) @ t=0.76
-5.2014783297221205
% es.EY (V/m) @ t=0.76
-0.5616179385744702
% es.EZ (V/m) @ t=0.76
6.965121436772988
% es.tEX (V/m) @ t=0.76
-5.201478329722127
% es.tEY (V/m) @ t=0.76
0
% es.tEZ (V/m) @ t=0.76
6.965121436772978
% es.Ex (V/m) @ t=0.76
-5.2014783297221205
% es.Ey (V/m) @ t=0.76
-0.5616179385744702
% es.Ez (V/m) @ t=0.76
6.965121436772988
% es.tEx (V/m) @ t=0.76
-5.201478329722127
% es.tEy (V/m) @ t=0.76
0
% es.tEz (V/m) @ t=0.76
6.965121436772978
% V (V) @ t=0.76
0.007688583318778017
% es.normE (V/m) @ t=0.78
9.444374309573712
% es.EX (V/m) @ t=0.78
-5.247453286955411
% es.EY (V/m) @ t=0.78
-0.566574308310825
% es.EZ (V/m) @ t=0.78
7.026667316565407
% es.tEX (V/m) @ t=0.78
-5.247453286955417
% es.tEY (V/m) @ t=0.78
0
% es.tEZ (V/m) @ t=0.78
7.026667316565396
% es.Ex (V/m) @ t=0.78
-5.247453286955411
% es.Ey (V/m) @ t=0.78
-0.566574308310825
% es.Ez (V/m) @ t=0.78
7.026667316565407
% es.tEx (V/m) @ t=0.78
-5.247453286955417
% es.tEy (V/m) @ t=0.78
0
% es.tEz (V/m) @ t=0.78
7.026667316565396
% V (V) @ t=0.78
0.007756516433308931
% es.normE (V/m) @ t=0.8
9.527100739096491
% es.EX (V/m) @ t=0.8
-5.293428244188699
% es.EY (V/m) @ t=0.8
-0.5715306780471585
% es.EZ (V/m) @ t=0.8
7.088213196357821
% es.tEX (V/m) @ t=0.8
-5.293428244188705
% es.tEY (V/m) @ t=0.8
0
% es.tEZ (V/m) @ t=0.8
7.08821319635781
% es.Ex (V/m) @ t=0.8
-5.293428244188699
% es.Ey (V/m) @ t=0.8
-0.5715306780471585
% es.Ez (V/m) @ t=0.8
7.088213196357821
% es.tEx (V/m) @ t=0.8
-5.293428244188705
% es.tEy (V/m) @ t=0.8
0
% es.tEz (V/m) @ t=0.8
7.08821319635781
% V (V) @ t=0.8
0.007824449547839844
% es.normE (V/m) @ t=0.82
9.612813178945164
% es.EX (V/m) @ t=0.82
-5.341064356036924
% es.EY (V/m) @ t=0.82
-0.576664938606517
% es.EZ (V/m) @ t=0.82
7.151980093929754
% es.tEX (V/m) @ t=0.82
-5.341064356036937
% es.tEY (V/m) @ t=0.82
0
% es.tEZ (V/m) @ t=0.82
7.1519800939297475
% es.Ex (V/m) @ t=0.82
-5.341064356036924
% es.Ey (V/m) @ t=0.82
-0.576664938606517
% es.Ez (V/m) @ t=0.82
7.151980093929754
% es.tEx (V/m) @ t=0.82
-5.341064356036937
% es.tEy (V/m) @ t=0.82
0
% es.tEz (V/m) @ t=0.82
7.1519800939297475
% V (V) @ t=0.82
0.007894833322983677
% es.normE (V/m) @ t=0.84
9.705255980268333
% es.EX (V/m) @ t=0.84
-5.392444651532464
% es.EY (V/m) @ t=0.84
-0.5822001587783316
% es.EZ (V/m) @ t=0.84
7.220753086885885
% es.tEX (V/m) @ t=0.84
-5.392444651532484
% es.tEY (V/m) @ t=0.84
0
% es.tEZ (V/m) @ t=0.84
7.2207530868858765
% es.Ex (V/m) @ t=0.84
-5.392444651532464
% es.Ey (V/m) @ t=0.84
-0.5822001587783316
% es.Ez (V/m) @ t=0.84
7.220753086885885
% es.tEx (V/m) @ t=0.84
-5.392444651532484
% es.tEy (V/m) @ t=0.84
0
% es.tEz (V/m) @ t=0.84
7.2207530868858765
% V (V) @ t=0.84
0.00797074080032197
% es.normE (V/m) @ t=0.86
9.797698781654349
% es.EX (V/m) @ t=0.86
-5.4438249470280065
% es.EY (V/m) @ t=0.86
-0.5877353789501376
% es.EZ (V/m) @ t=0.86
7.289526079841998
% es.tEX (V/m) @ t=0.86
-5.443824947028013
% es.tEY (V/m) @ t=0.86
0
% es.tEZ (V/m) @ t=0.86
7.289526079841993
% es.Ex (V/m) @ t=0.86
-5.4438249470280065
% es.Ey (V/m) @ t=0.86
-0.5877353789501376
% es.Ez (V/m) @ t=0.86
7.289526079841998
% es.tEx (V/m) @ t=0.86
-5.443824947028013
% es.tEy (V/m) @ t=0.86
0
% es.tEz (V/m) @ t=0.86
7.289526079841993
% V (V) @ t=0.86
0.008046648277660266
% es.normE (V/m) @ t=0.88
9.89014158310145
% es.EX (V/m) @ t=0.88
-5.495205242523542
% es.EY (V/m) @ t=0.88
-0.5932705991219025
% es.EZ (V/m) @ t=0.88
7.358299072798145
% es.tEX (V/m) @ t=0.88
-5.495205242523548
% es.tEY (V/m) @ t=0.88
0
% es.tEZ (V/m) @ t=0.88
7.358299072798137
% es.Ex (V/m) @ t=0.88
-5.495205242523542
% es.Ey (V/m) @ t=0.88
-0.5932705991219025
% es.Ez (V/m) @ t=0.88
7.358299072798145
% es.tEx (V/m) @ t=0.88
-5.495205242523548
% es.tEy (V/m) @ t=0.88
0
% es.tEz (V/m) @ t=0.88
7.358299072798137
% V (V) @ t=0.88
0.008122555754998564
% es.normE (V/m) @ t=0.9
9.98258438460795
% es.EX (V/m) @ t=0.9
-5.546585538019092
% es.EY (V/m) @ t=0.9
-0.5988058192937102
% es.EZ (V/m) @ t=0.9
7.4270720657542695
% es.tEX (V/m) @ t=0.9
-5.546585538019105
% es.tEY (V/m) @ t=0.9
0
% es.tEZ (V/m) @ t=0.9
7.427072065754261
% es.Ex (V/m) @ t=0.9
-5.546585538019092
% es.Ey (V/m) @ t=0.9
-0.5988058192937102
% es.Ez (V/m) @ t=0.9
7.4270720657542695
% es.tEx (V/m) @ t=0.9
-5.546585538019105
% es.tEy (V/m) @ t=0.9
0
% es.tEz (V/m) @ t=0.9
7.427072065754261
% V (V) @ t=0.9
0.008198463232336861
% es.normE (V/m) @ t=0.92
10.075027186172214
% es.EX (V/m) @ t=0.92
-5.597965833514636
% es.EY (V/m) @ t=0.92
-0.6043410394655107
% es.EZ (V/m) @ t=0.92
7.4958450587104135
% es.tEX (V/m) @ t=0.92
-5.597965833514642
% es.tEY (V/m) @ t=0.92
0
% es.tEZ (V/m) @ t=0.92
7.495845058710407
% es.Ex (V/m) @ t=0.92
-5.597965833514636
% es.Ey (V/m) @ t=0.92
-0.6043410394655107
% es.Ez (V/m) @ t=0.92
7.4958450587104135
% es.tEx (V/m) @ t=0.92
-5.597965833514642
% es.tEy (V/m) @ t=0.92
0
% es.tEz (V/m) @ t=0.92
7.495845058710407
% V (V) @ t=0.92
0.008274370709675159
% es.normE (V/m) @ t=0.94
10.16746998779266
% es.EX (V/m) @ t=0.94
-5.649346129010186
% es.EY (V/m) @ t=0.94
-0.6098762596373164
% es.EZ (V/m) @ t=0.94
7.564618051666544
% es.tEX (V/m) @ t=0.94
-5.6493461290101985
% es.tEY (V/m) @ t=0.94
0
% es.tEZ (V/m) @ t=0.94
7.564618051666538
% es.Ex (V/m) @ t=0.94
-5.649346129010186
% es.Ey (V/m) @ t=0.94
-0.6098762596373164
% es.Ez (V/m) @ t=0.94
7.564618051666544
% es.tEx (V/m) @ t=0.94
-5.6493461290101985
% es.tEy (V/m) @ t=0.94
0
% es.tEz (V/m) @ t=0.94
7.564618051666538
% V (V) @ t=0.94
0.008350278187013454
% es.normE (V/m) @ t=0.96
10.259912789467748
% es.EX (V/m) @ t=0.96
-5.700726424505715
% es.EY (V/m) @ t=0.96
-0.6154114798090851
% es.EZ (V/m) @ t=0.96
7.633391044622671
% es.tEX (V/m) @ t=0.96
-5.700726424505718
% es.tEY (V/m) @ t=0.96
0
% es.tEZ (V/m) @ t=0.96
7.633391044622657
% es.Ex (V/m) @ t=0.96
-5.700726424505715
% es.Ey (V/m) @ t=0.96
-0.6154114798090851
% es.Ez (V/m) @ t=0.96
7.633391044622671
% es.tEx (V/m) @ t=0.96
-5.700726424505718
% es.tEy (V/m) @ t=0.96
0
% es.tEz (V/m) @ t=0.96
7.633391044622657
% V (V) @ t=0.96
0.00842618566435175
% es.normE (V/m) @ t=0.98
10.352355591196051
% es.EX (V/m) @ t=0.98
-5.752106720001244
% es.EY (V/m) @ t=0.98
-0.6209466999808892
% es.EZ (V/m) @ t=0.98
7.702164037578811
% es.tEX (V/m) @ t=0.98
-5.752106720001261
% es.tEY (V/m) @ t=0.98
0
% es.tEZ (V/m) @ t=0.98
7.702164037578796
% es.Ex (V/m) @ t=0.98
-5.752106720001244
% es.Ey (V/m) @ t=0.98
-0.6209466999808892
% es.Ez (V/m) @ t=0.98
7.702164037578811
% es.tEx (V/m) @ t=0.98
-5.752106720001261
% es.tEy (V/m) @ t=0.98
0
% es.tEz (V/m) @ t=0.98
7.702164037578796
% V (V) @ t=0.98
0.008502093141690047
% es.normE (V/m) @ t=1
10.444798392976143
% es.EX (V/m) @ t=1
-5.803487015496804
% es.EY (V/m) @ t=1
-0.6264819201526701
% es.EZ (V/m) @ t=1
7.770937030534924
% es.tEX (V/m) @ t=1
-5.803487015496811
% es.tEY (V/m) @ t=1
0
% es.tEZ (V/m) @ t=1
7.7709370305349195
% es.Ex (V/m) @ t=1
-5.803487015496804
% es.Ey (V/m) @ t=1
-0.6264819201526701
% es.Ez (V/m) @ t=1
7.770937030534924
% es.tEx (V/m) @ t=1
-5.803487015496811
% es.tEy (V/m) @ t=1
0
% es.tEz (V/m) @ t=1
7.7709370305349195
% V (V) @ t=1
0.008578000619028343
% es.normE (V/m) @ t=1.02
10.53724119480663
% es.EX (V/m) @ t=1.02
-5.854867310992336
% es.EY (V/m) @ t=1.02
-0.632017140324467
% es.EZ (V/m) @ t=1.02
7.839710023491042
% es.tEX (V/m) @ t=1.02
-5.854867310992343
% es.tEY (V/m) @ t=1.02
0
% es.tEZ (V/m) @ t=1.02
7.839710023491037
% es.Ex (V/m) @ t=1.02
-5.854867310992336
% es.Ey (V/m) @ t=1.02
-0.632017140324467
% es.Ez (V/m) @ t=1.02
7.839710023491042
% es.tEx (V/m) @ t=1.02
-5.854867310992343
% es.tEy (V/m) @ t=1.02
0
% es.tEz (V/m) @ t=1.02
7.839710023491037
% V (V) @ t=1.02
0.008653908096366639
% es.normE (V/m) @ t=1.04
10.629683996686264
% es.EX (V/m) @ t=1.04
-5.906247606487883
% es.EY (V/m) @ t=1.04
-0.6375523604962621
% es.EZ (V/m) @ t=1.04
7.908483016447188
% es.tEX (V/m) @ t=1.04
-5.906247606487892
% es.tEY (V/m) @ t=1.04
0
% es.tEZ (V/m) @ t=1.04
7.908483016447173
% es.Ex (V/m) @ t=1.04
-5.906247606487883
% es.Ey (V/m) @ t=1.04
-0.6375523604962621
% es.Ez (V/m) @ t=1.04
7.908483016447188
% es.tEx (V/m) @ t=1.04
-5.906247606487892
% es.tEy (V/m) @ t=1.04
0
% es.tEz (V/m) @ t=1.04