% Model:              1 neuron.mph
% Version:            COMSOL 6.0.0.405
% Date:               Mar 9 2023, 14:06
% Dimension:          0
% Nodes:              14017
% Expressions:        14017
% Description:        Electric field norm, Electric field, X component, Electric field, Y component, Electric field, Z component, Tangential electric field, X component, Tangential electric field, Y component, Tangential electric field, Z component, Electric field, x component, Electric field, y component, Electric field, z component, Tangential electric field, x component, Tangential electric field, y component, Tangential electric field, z component, Electric potential
% Length unit:        mm
% x
2
% y
12.2
% z
1.33
% es.normE (V/m) @ t=0
1.3344441007609458
% es.EX (V/m) @ t=0
-1.22739086962005
% es.EY (V/m) @ t=0
0.09574493923459199
% es.EZ (V/m) @ t=0
0.5133195570510516
% es.tEX (V/m) @ t=0
-1.2273908696200424
% es.tEY (V/m) @ t=0
0
% es.tEZ (V/m) @ t=0
0.5133195570510516
% es.Ex (V/m) @ t=0
-1.22739086962005
% es.Ey (V/m) @ t=0
0.09574493923459199
% es.Ez (V/m) @ t=0
0.5133195570510516
% es.tEx (V/m) @ t=0
-1.2273908696200424
% es.tEy (V/m) @ t=0
0
% es.tEz (V/m) @ t=0
0.5133195570510516
% V (V) @ t=0
0.007450467365732286
% es.normE (V/m) @ t=0.02
1.152584232426472
% es.EX (V/m) @ t=0.02
-1.0601203611229733
% es.EY (V/m) @ t=0.02
0.08269668984748091
% es.EZ (V/m) @ t=0.02
0.44336366750294876
% es.tEX (V/m) @ t=0.02
-1.0601203611229684
% es.tEY (V/m) @ t=0.02
0
% es.tEZ (V/m) @ t=0.02
0.44336366750294687
% es.Ex (V/m) @ t=0.02
-1.0601203611229733
% es.Ey (V/m) @ t=0.02
0.08269668984748091
% es.Ez (V/m) @ t=0.02
0.44336366750294876
% es.tEx (V/m) @ t=0.02
-1.0601203611229684
% es.tEy (V/m) @ t=0.02
0
% es.tEz (V/m) @ t=0.02
0.44336366750294687
% V (V) @ t=0.02
0.006435107396418598
% es.normE (V/m) @ t=0.04
1.1631848980273765
% es.EX (V/m) @ t=0.04
-1.069870606059645
% es.EY (V/m) @ t=0.04
0.08345728114573736
% es.EZ (V/m) @ t=0.04
0.4474414225878051
% es.tEX (V/m) @ t=0.04
-1.0698706060596415
% es.tEY (V/m) @ t=0.04
0
% es.tEZ (V/m) @ t=0.04
0.44744142258780784
% es.Ex (V/m) @ t=0.04
-1.069870606059645
% es.Ey (V/m) @ t=0.04
0.08345728114573736
% es.Ez (V/m) @ t=0.04
0.4474414225878051
% es.tEx (V/m) @ t=0.04
-1.0698706060596415
% es.tEy (V/m) @ t=0.04
0
% es.tEz (V/m) @ t=0.04
0.44744142258780784
% V (V) @ t=0.04
0.006494292827163187
% es.normE (V/m) @ t=0.06
1.1738809187791457
% es.EX (V/m) @ t=0.06
-1.0797085601957708
% es.EY (V/m) @ t=0.06
0.08422470683212357
% es.EZ (V/m) @ t=0.06
0.4515558497445091
% es.tEX (V/m) @ t=0.06
-1.0797085601957663
% es.tEY (V/m) @ t=0.06
0
% es.tEZ (V/m) @ t=0.06
0.451555849744512
% es.Ex (V/m) @ t=0.06
-1.0797085601957708
% es.Ey (V/m) @ t=0.06
0.08422470683212357
% es.Ez (V/m) @ t=0.06
0.4515558497445091
% es.tEx (V/m) @ t=0.06
-1.0797085601957663
% es.tEy (V/m) @ t=0.06
0
% es.tEz (V/m) @ t=0.06
0.451555849744512
% V (V) @ t=0.06
0.00655401094034741
% es.normE (V/m) @ t=0.08
1.1847407774400494
% es.EX (V/m) @ t=0.08
-1.0896972085133005
% es.EY (V/m) @ t=0.08
0.08500388798322717
% es.EZ (V/m) @ t=0.08
0.45573330061486633
% es.tEX (V/m) @ t=0.08
-1.0896972085132983
% es.tEY (V/m) @ t=0.08
0
% es.tEZ (V/m) @ t=0.08
0.4557333006148667
% es.Ex (V/m) @ t=0.08
-1.0896972085133005
% es.Ey (V/m) @ t=0.08
0.08500388798322717
% es.Ez (V/m) @ t=0.08
0.45573330061486633
% es.tEx (V/m) @ t=0.08
-1.0896972085132983
% es.tEy (V/m) @ t=0.08
0
% es.tEz (V/m) @ t=0.08
0.4557333006148667
% V (V) @ t=0.08
0.00661464378190853
% es.normE (V/m) @ t=0.1
1.1957133081063702
% es.EX (V/m) @ t=0.1
-1.0997894898405063
% es.EY (V/m) @ t=0.1
0.08579115341587407
% es.EZ (V/m) @ t=0.1
0.4599540931528852
% es.tEX (V/m) @ t=0.1
-1.0997894898405018
% es.tEY (V/m) @ t=0.1
0
% es.tEZ (V/m) @ t=0.1
0.45995409315288427
% es.Ex (V/m) @ t=0.1
-1.0997894898405063
% es.Ey (V/m) @ t=0.1
0.08579115341587407
% es.Ez (V/m) @ t=0.1
0.4599540931528852
% es.tEx (V/m) @ t=0.1
-1.0997894898405018
% es.tEy (V/m) @ t=0.1
0
% es.tEz (V/m) @ t=0.1
0.45995409315288427
% V (V) @ t=0.1
0.0066759056859446945
% es.normE (V/m) @ t=0.12
1.2066858387727009
% es.EX (V/m) @ t=0.12
-1.1098817711677207
% es.EY (V/m) @ t=0.12
0.08657841884852985
% es.EZ (V/m) @ t=0.12
0.46417488569090776
% es.tEX (V/m) @ t=0.12
-1.1098817711677134
% es.tEY (V/m) @ t=0.12
0
% es.tEZ (V/m) @ t=0.12
0.4641748856909089
% es.Ex (V/m) @ t=0.12
-1.1098817711677207
% es.Ey (V/m) @ t=0.12
0.08657841884852985
% es.Ez (V/m) @ t=0.12
0.46417488569090776
% es.tEx (V/m) @ t=0.12
-1.1098817711677134
% es.tEy (V/m) @ t=0.12
0
% es.tEz (V/m) @ t=0.12
0.4641748856909089
% V (V) @ t=0.12
0.006737167589980859
% es.normE (V/m) @ t=0.14
1.2177724360678357
% es.EX (V/m) @ t=0.14
-1.1200789666450088
% es.EY (V/m) @ t=0.14
0.08737387173362576
% es.EZ (V/m) @ t=0.14
0.4684395598486771
% es.tEX (V/m) @ t=0.14
-1.1200789666450035
% es.tEY (V/m) @ t=0.14
0
% es.tEZ (V/m) @ t=0.14
0.4684395598486759
% es.Ex (V/m) @ t=0.14
-1.1200789666450088
% es.Ey (V/m) @ t=0.14
0.08737387173362576
% es.Ez (V/m) @ t=0.14
0.4684395598486771
% es.tEx (V/m) @ t=0.14
-1.1200789666450035
% es.tEy (V/m) @ t=0.14
0
% es.tEz (V/m) @ t=0.14
0.4684395598486759
% V (V) @ t=0.14
0.006799066216162663
% es.normE (V/m) @ t=0.16
1.2293299372173685
% es.EX (V/m) @ t=0.16
-1.1307092815908542
% es.EY (V/m) @ t=0.16
0.08820312506458555
% es.EZ (V/m) @ t=0.16
0.47288539149395364
% es.tEX (V/m) @ t=0.16
-1.1307092815908497
% es.tEY (V/m) @ t=0.16
0
% es.tEZ (V/m) @ t=0.16
0.4728853914939499
% es.Ex (V/m) @ t=0.16
-1.1307092815908542
% es.Ey (V/m) @ t=0.16
0.08820312506458555
% es.Ez (V/m) @ t=0.16
0.47288539149395364
% es.tEx (V/m) @ t=0.16
-1.1307092815908497
% es.tEy (V/m) @ t=0.16
0
% es.tEz (V/m) @ t=0.16
0.4728853914939499
% V (V) @ t=0.16
0.006863593436839374
% es.normE (V/m) @ t=0.18
1.2408874383668984
% es.EX (V/m) @ t=0.18
-1.1413395965366981
% es.EY (V/m) @ t=0.18
0.0890323783955384
% es.EZ (V/m) @ t=0.18
0.477331223139222
% es.tEX (V/m) @ t=0.18
-1.141339596536696
% es.tEY (V/m) @ t=0.18
0
% es.tEZ (V/m) @ t=0.18
0.4773312231392204
% es.Ex (V/m) @ t=0.18
-1.1413395965366981
% es.Ey (V/m) @ t=0.18
0.0890323783955384
% es.Ez (V/m) @ t=0.18
0.477331223139222
% es.tEx (V/m) @ t=0.18
-1.141339596536696
% es.tEy (V/m) @ t=0.18
0
% es.tEz (V/m) @ t=0.18
0.4773312231392204
% V (V) @ t=0.18
0.006928120657516083
% es.normE (V/m) @ t=0.2
1.2524449395164259
% es.EX (V/m) @ t=0.2
-1.1519699114825412
% es.EY (V/m) @ t=0.2
0.08986163172649292
% es.EZ (V/m) @ t=0.2
0.4817770547844868
% es.tEX (V/m) @ t=0.2
-1.1519699114825386
% es.tEY (V/m) @ t=0.2
0
% es.tEZ (V/m) @ t=0.2
0.48177705478448374
% es.Ex (V/m) @ t=0.2
-1.1519699114825412
% es.Ey (V/m) @ t=0.2
0.08986163172649292
% es.Ez (V/m) @ t=0.2
0.4817770547844868
% es.tEx (V/m) @ t=0.2
-1.1519699114825386
% es.tEy (V/m) @ t=0.2
0
% es.tEz (V/m) @ t=0.2
0.48177705478448374
% V (V) @ t=0.2
0.006992647878192791
% es.normE (V/m) @ t=0.22
1.264002440665957
% es.EX (V/m) @ t=0.22
-1.1626002264283861
% es.EY (V/m) @ t=0.22
0.09069088505745371
% es.EZ (V/m) @ t=0.22
0.4862228864297535
% es.tEX (V/m) @ t=0.22
-1.1626002264283803
% es.tEY (V/m) @ t=0.22
0
% es.tEZ (V/m) @ t=0.22
0.4862228864297471
% es.Ex (V/m) @ t=0.22
-1.1626002264283861
% es.Ey (V/m) @ t=0.22
0.09069088505745371
% es.Ez (V/m) @ t=0.22
0.4862228864297535
% es.tEx (V/m) @ t=0.22
-1.1626002264283803
% es.tEy (V/m) @ t=0.22
0
% es.tEz (V/m) @ t=0.22
0.4862228864297471
% V (V) @ t=0.22
0.007057175098869502
% es.normE (V/m) @ t=0.24
1.2755599418154844
% es.EX (V/m) @ t=0.24
-1.1732305413742257
% es.EY (V/m) @ t=0.24
0.09152013838840822
% es.EZ (V/m) @ t=0.24
0.49066871807502194
% es.tEX (V/m) @ t=0.24
-1.1732305413742194
% es.tEY (V/m) @ t=0.24
0
% es.tEZ (V/m) @ t=0.24
0.4906687180750211
% es.Ex (V/m) @ t=0.24
-1.1732305413742257
% es.Ey (V/m) @ t=0.24
0.09152013838840822
% es.Ez (V/m) @ t=0.24
0.49066871807502194
% es.tEx (V/m) @ t=0.24
-1.1732305413742194
% es.tEy (V/m) @ t=0.24
0
% es.tEz (V/m) @ t=0.24
0.4906687180750211
% V (V) @ t=0.24
0.00712170231954621
% es.normE (V/m) @ t=0.26
1.2871174429650132
% es.EX (V/m) @ t=0.26
-1.183860856320067
% es.EY (V/m) @ t=0.26
0.09234939171936102
% es.EZ (V/m) @ t=0.26
0.4951145497202894
% es.tEX (V/m) @ t=0.26
-1.1838608563200603
% es.tEY (V/m) @ t=0.26
0
% es.tEZ (V/m) @ t=0.26
0.4951145497202951
% es.Ex (V/m) @ t=0.26
-1.183860856320067
% es.Ey (V/m) @ t=0.26
0.09234939171936102
% es.Ez (V/m) @ t=0.26
0.4951145497202894
% es.tEx (V/m) @ t=0.26
-1.1838608563200603
% es.tEy (V/m) @ t=0.26
0
% es.tEz (V/m) @ t=0.26
0.4951145497202951
% V (V) @ t=0.26
0.00718622954022292
% es.normE (V/m) @ t=0.28
1.2992029151331193
% es.EX (V/m) @ t=0.28
-1.1949769441263856
% es.EY (V/m) @ t=0.28
0.09321622411704183
% es.EZ (V/m) @ t=0.28
0.49976313314713233
% es.tEX (V/m) @ t=0.28
-1.1949769441263784
% es.tEY (V/m) @ t=0.28
0
% es.tEZ (V/m) @ t=0.28
0.49976313314713394
% es.Ex (V/m) @ t=0.28
-1.1949769441263856
% es.Ey (V/m) @ t=0.28
0.09321622411704183
% es.Ez (V/m) @ t=0.28
0.49976313314713233
% es.tEx (V/m) @ t=0.28
-1.1949769441263784
% es.tEy (V/m) @ t=0.28
0
% es.tEz (V/m) @ t=0.28
0.49976313314713394
% V (V) @ t=0.28
0.0072537169430662764
% es.normE (V/m) @ t=0.3
1.3120805261846278
% es.EX (V/m) @ t=0.3
-1.2068218590032282
% es.EY (V/m) @ t=0.3
0.09413943809413167
% es.EZ (V/m) @ t=0.3
0.5047159142742388
% es.tEX (V/m) @ t=0.3
-1.2068218590032265
% es.tEY (V/m) @ t=0.3
0
% es.tEZ (V/m) @ t=0.3
0.5047159142742359
% es.Ex (V/m) @ t=0.3
-1.2068218590032282
% es.Ey (V/m) @ t=0.3
0.09413943809413167
% es.Ez (V/m) @ t=0.3
0.5047159142742388
% es.tEx (V/m) @ t=0.3
-1.2068218590032265
% es.tEy (V/m) @ t=0.3
0
% es.tEz (V/m) @ t=0.3
0.5047159142742359
% V (V) @ t=0.3
0.007325645641569243
% es.normE (V/m) @ t=0.32
1.3249581372375634
% es.EX (V/m) @ t=0.32
-1.2186667738800732
% es.EY (V/m) @ t=0.32
0.095062652071225
% es.EZ (V/m) @ t=0.32
0.509668695401347
% es.tEX (V/m) @ t=0.32
-1.2186667738800718
% es.tEY (V/m) @ t=0.32
0
% es.tEZ (V/m) @ t=0.32
0.509668695401345
% es.Ex (V/m) @ t=0.32
-1.2186667738800732
% es.Ey (V/m) @ t=0.32
0.095062652071225
% es.Ez (V/m) @ t=0.32
0.509668695401347
% es.tEx (V/m) @ t=0.32
-1.2186667738800718
% es.tEy (V/m) @ t=0.32
0
% es.tEz (V/m) @ t=0.32
0.509668695401345
% V (V) @ t=0.32
0.007397574340072209
% es.normE (V/m) @ t=0.34
1.337835748291889
% es.EX (V/m) @ t=0.34
-1.2305116887569252
% es.EY (V/m) @ t=0.34
0.09598586604831921
% es.EZ (V/m) @ t=0.34
0.514621476528458
% es.tEX (V/m) @ t=0.34
-1.230511688756919
% es.tEY (V/m) @ t=0.34
0
% es.tEZ (V/m) @ t=0.34
0.5146214765284576
% es.Ex (V/m) @ t=0.34
-1.2305116887569252
% es.Ey (V/m) @ t=0.34
0.09598586604831921
% es.Ez (V/m) @ t=0.34
0.514621476528458
% es.tEx (V/m) @ t=0.34
-1.230511688756919
% es.tEy (V/m) @ t=0.34
0
% es.tEz (V/m) @ t=0.34
0.5146214765284576
% V (V) @ t=0.34
0.007469503038575176
% es.normE (V/m) @ t=0.36
1.3507133593475493
% es.EX (V/m) @ t=0.36
-1.24235660363377
% es.EY (V/m) @ t=0.36
0.09690908002541793
% es.EZ (V/m) @ t=0.36
0.5195742576555635
% es.tEX (V/m) @ t=0.36
-1.242356603633767
% es.tEY (V/m) @ t=0.36
0
% es.tEZ (V/m) @ t=0.36
0.5195742576555595
% es.Ex (V/m) @ t=0.36
-1.24235660363377
% es.Ey (V/m) @ t=0.36
0.09690908002541793
% es.Ez (V/m) @ t=0.36
0.5195742576555635
% es.tEx (V/m) @ t=0.36
-1.242356603633767
% es.tEy (V/m) @ t=0.36
0
% es.tEz (V/m) @ t=0.36
0.5195742576555595
% V (V) @ t=0.36
0.007541431737078141
% es.normE (V/m) @ t=0.38
1.3635909704045202
% es.EX (V/m) @ t=0.38
-1.254201518510619
% es.EY (V/m) @ t=0.38
0.09783229400251398
% es.EZ (V/m) @ t=0.38
0.5245270387826744
% es.tEX (V/m) @ t=0.38
-1.254201518510615
% es.tEY (V/m) @ t=0.38
0
% es.tEZ (V/m) @ t=0.38
0.5245270387826757
% es.Ex (V/m) @ t=0.38
-1.254201518510619
% es.Ey (V/m) @ t=0.38
0.09783229400251398
% es.Ez (V/m) @ t=0.38
0.5245270387826744
% es.tEx (V/m) @ t=0.38
-1.254201518510615
% es.tEy (V/m) @ t=0.38
0
% es.tEz (V/m) @ t=0.38
0.5245270387826757
% V (V) @ t=0.38
0.007613360435581107
% es.normE (V/m) @ t=0.4
1.3764685814627566
% es.EX (V/m) @ t=0.4
-1.2660464333874644
% es.EY (V/m) @ t=0.4
0.09875550797959931
% es.EZ (V/m) @ t=0.4
0.5294798199097863
% es.tEX (V/m) @ t=0.4
-1.2660464333874595
% es.tEY (V/m) @ t=0.4
0
% es.tEZ (V/m) @ t=0.4
0.5294798199097848
% es.Ex (V/m) @ t=0.4
-1.2660464333874644
% es.Ey (V/m) @ t=0.4
0.09875550797959931
% es.Ez (V/m) @ t=0.4
0.5294798199097863
% es.tEx (V/m) @ t=0.4
-1.2660464333874595
% es.tEy (V/m) @ t=0.4
0
% es.tEz (V/m) @ t=0.4
0.5294798199097848
% V (V) @ t=0.4
0.007685289134084075
% es.normE (V/m) @ t=0.42
1.3893461925222257
% es.EX (V/m) @ t=0.42
-1.2778913482643102
% es.EY (V/m) @ t=0.42
0.0996787219566998
% es.EZ (V/m) @ t=0.42
0.5344326010368945
% es.tEX (V/m) @ t=0.42
-1.2778913482643084
% es.tEY (V/m) @ t=0.42
0
% es.tEZ (V/m) @ t=0.42
0.5344326010368974
% es.Ex (V/m) @ t=0.42
-1.2778913482643102
% es.Ey (V/m) @ t=0.42
0.0996787219566998
% es.Ez (V/m) @ t=0.42
0.5344326010368945
% es.tEx (V/m) @ t=0.42
-1.2778913482643084
% es.tEy (V/m) @ t=0.42
0
% es.tEz (V/m) @ t=0.42
0.5344326010368974
% V (V) @ t=0.42
0.007757217832587041
% es.normE (V/m) @ t=0.44
1.402223803582899
% es.EX (V/m) @ t=0.44
-1.2897362631411609
% es.EY (V/m) @ t=0.44
0.10060193593379496
% es.EZ (V/m) @ t=0.44
0.5393853821640053
% es.tEX (V/m) @ t=0.44
-1.2897362631411564
% es.tEY (V/m) @ t=0.44
0
% es.tEZ (V/m) @ t=0.44
0.5393853821640029
% es.Ex (V/m) @ t=0.44
-1.2897362631411609
% es.Ey (V/m) @ t=0.44
0.10060193593379496
% es.Ez (V/m) @ t=0.44
0.5393853821640053
% es.tEx (V/m) @ t=0.44
-1.2897362631411564
% es.tEy (V/m) @ t=0.44
0
% es.tEz (V/m) @ t=0.44
0.5393853821640029
% V (V) @ t=0.44
0.007829146531090007
% es.normE (V/m) @ t=0.46
1.4151014146447456
% es.EX (V/m) @ t=0.46
-1.3015811780180173
% es.EY (V/m) @ t=0.46
0.10152514991089362
% es.EZ (V/m) @ t=0.46
0.5443381632911188
% es.tEX (V/m) @ t=0.46
-1.3015811780180115
% es.tEY (V/m) @ t=0.46
0
% es.tEZ (V/m) @ t=0.46
0.5443381632911191
% es.Ex (V/m) @ t=0.46
-1.3015811780180173
% es.Ey (V/m) @ t=0.46
0.10152514991089362
% es.Ez (V/m) @ t=0.46
0.5443381632911188
% es.tEx (V/m) @ t=0.46
-1.3015811780180115
% es.tEy (V/m) @ t=0.46
0
% es.tEz (V/m) @ t=0.46
0.5443381632911191
% V (V) @ t=0.46
0.007901075229592974
% es.normE (V/m) @ t=0.48
1.4279790257077054
% es.EX (V/m) @ t=0.48
-1.3134260928948538
% es.EY (V/m) @ t=0.48
0.10244836388798345
% es.EZ (V/m) @ t=0.48
0.5492909444182261
% es.tEX (V/m) @ t=0.48
-1.313426092894848
% es.tEY (V/m) @ t=0.48
0
% es.tEZ (V/m) @ t=0.48
0.5492909444182281
% es.Ex (V/m) @ t=0.48
-1.3134260928948538
% es.Ey (V/m) @ t=0.48
0.10244836388798345
% es.Ez (V/m) @ t=0.48
0.5492909444182261
% es.tEx (V/m) @ t=0.48
-1.313426092894848
% es.tEy (V/m) @ t=0.48
0
% es.tEz (V/m) @ t=0.48
0.5492909444182281
% V (V) @ t=0.48
0.007973003928095941
% es.normE (V/m) @ t=0.5
1.4408566367717772
% es.EX (V/m) @ t=0.5
-1.3252710077717
% es.EY (V/m) @ t=0.5
0.1033715778650785
% es.EZ (V/m) @ t=0.5
0.5542437255453292
% es.tEX (V/m) @ t=0.5
-1.3252710077716925
% es.tEY (V/m) @ t=0.5
0
% es.tEZ (V/m) @ t=0.5
0.5542437255453301
% es.Ex (V/m) @ t=0.5
-1.3252710077717
% es.Ey (V/m) @ t=0.5
0.1033715778650785
% es.Ez (V/m) @ t=0.5
0.5542437255453292
% es.tEx (V/m) @ t=0.5
-1.3252710077716925
% es.tEy (V/m) @ t=0.5
0
% es.tEz (V/m) @ t=0.5
0.5542437255453301
% V (V) @ t=0.5
0.008044932626598906
% es.normE (V/m) @ t=0.52
1.4537342478369244
% es.EX (V/m) @ t=0.52
-1.3371159226485432
% es.EY (V/m) @ t=0.52
0.10429479184217727
% es.EZ (V/m) @ t=0.52
0.55919650667244
% es.tEX (V/m) @ t=0.52
-1.337115922648537
% es.tEY (V/m) @ t=0.52
0
% es.tEZ (V/m) @ t=0.52
0.5591965066724391
% es.Ex (V/m) @ t=0.52
-1.3371159226485432
% es.Ey (V/m) @ t=0.52
0.10429479184217727
% es.Ez (V/m) @ t=0.52
0.55919650667244
% es.tEx (V/m) @ t=0.52
-1.337115922648537
% es.tEy (V/m) @ t=0.52
0
% es.tEz (V/m) @ t=0.52
0.5591965066724391
% V (V) @ t=0.52
0.008116861325101872
% es.normE (V/m) @ t=0.54
1.466611858903129
% es.EX (V/m) @ t=0.54
-1.3489608375253965
% es.EY (V/m) @ t=0.54
0.10521800581926877
% es.EZ (V/m) @ t=0.54
0.5641492877995546
% es.tEX (V/m) @ t=0.54
-1.3489608375253876
% es.tEY (V/m) @ t=0.54
0
% es.tEZ (V/m) @ t=0.54
0.5641492877995518
% es.Ex (V/m) @ t=0.54
-1.3489608375253965
% es.Ey (V/m) @ t=0.54
0.10521800581926877
% es.Ez (V/m) @ t=0.54
0.5641492877995546
% es.tEx (V/m) @ t=0.54
-1.3489608375253876
% es.tEy (V/m) @ t=0.54
0
% es.tEz (V/m) @ t=0.54
0.5641492877995518
% V (V) @ t=0.54
0.008188790023604842
% es.normE (V/m) @ t=0.56
1.4806928774559236
% es.EX (V/m) @ t=0.56
-1.3619121966234076
% es.EY (V/m) @ t=0.56
0.10622837422179565
% es.EZ (V/m) @ t=0.56
0.5695659017804973
% es.tEX (V/m) @ t=0.56
-1.3619121966234005
% es.tEY (V/m) @ t=0.56
0
% es.tEZ (V/m) @ t=0.56
0.5695659017804999
% es.Ex (V/m) @ t=0.56
-1.3619121966234076
% es.Ey (V/m) @ t=0.56
0.10622837422179565
% es.Ez (V/m) @ t=0.56
0.5695659017804973
% es.tEx (V/m) @ t=0.56
-1.3619121966234005
% es.tEy (V/m) @ t=0.56
0
% es.tEz (V/m) @ t=0.56
0.5695659017804999
% V (V) @ t=0.56
0.008267404266880657
% es.normE (V/m) @ t=0.58
1.495056464471465
% es.EX (V/m) @ t=0.58
-1.3751233565337253
% es.EY (V/m) @ t=0.58
0.10725920709065673
% es.EZ (V/m) @ t=0.58
0.5750914269472815
% es.tEX (V/m) @ t=0.58
-1.375123356533722
% es.tEY (V/m) @ t=0.58
0
% es.tEZ (V/m) @ t=0.58
0.5750914269472815
% es.Ex (V/m) @ t=0.58
-1.3751233565337253
% es.Ey (V/m) @ t=0.58
0.10725920709065673
% es.Ez (V/m) @ t=0.58
0.5750914269472815
% es.tEx (V/m) @ t=0.58
-1.375123356533722
% es.tEy (V/m) @ t=0.58
0
% es.tEz (V/m) @ t=0.58
0.5750914269472815
% V (V) @ t=0.58
0.008347588322650904
% es.normE (V/m) @ t=0.6
1.50942005148731
% es.EX (V/m) @ t=0.6
-1.3883345164440515
% es.EY (V/m) @ t=0.6
0.10829003995952852
% es.EZ (V/m) @ t=0.6
0.5806169521140818
% es.tEX (V/m) @ t=0.6
-1.3883345164440453
% es.tEY (V/m) @ t=0.6
0
% es.tEZ (V/m) @ t=0.6
0.5806169521140845
% es.Ex (V/m) @ t=0.6
-1.3883345164440515
% es.Ey (V/m) @ t=0.6
0.10829003995952852
% es.Ez (V/m) @ t=0.6
0.5806169521140818
% es.tEx (V/m) @ t=0.6
-1.3883345164440453
% es.tEy (V/m) @ t=0.6
0
% es.tEz (V/m) @ t=0.6
0.5806169521140845
% V (V) @ t=0.6
0.008427772378421154
% es.normE (V/m) @ t=0.62
1.5237836385034207
% es.EX (V/m) @ t=0.62
-1.401545676354367
% es.EY (V/m) @ t=0.62
0.10932087282839681
% es.EZ (V/m) @ t=0.62
0.5861424772808668
% es.tEX (V/m) @ t=0.62
-1.4015456763543668
% es.tEY (V/m) @ t=0.62
0
% es.tEZ (V/m) @ t=0.62
0.5861424772808626
% es.Ex (V/m) @ t=0.62
-1.401545676354367
% es.Ey (V/m) @ t=0.62
0.10932087282839681
% es.Ez (V/m) @ t=0.62
0.5861424772808668
% es.tEx (V/m) @ t=0.62
-1.4015456763543668
% es.tEy (V/m) @ t=0.62
0
% es.tEz (V/m) @ t=0.62
0.5861424772808626
% V (V) @ t=0.62
0.008507956434191402
% es.normE (V/m) @ t=0.64
1.5381472255198143
% es.EX (V/m) @ t=0.64
-1.4147568362646914
% es.EY (V/m) @ t=0.64
0.11035170569725794
% es.EZ (V/m) @ t=0.64
0.5916680024476573
% es.tEX (V/m) @ t=0.64
-1.4147568362646883
% es.tEY (V/m) @ t=0.64
0
% es.tEZ (V/m) @ t=0.64
0.5916680024476584
% es.Ex (V/m) @ t=0.64
-1.4147568362646914
% es.Ey (V/m) @ t=0.64
0.11035170569725794
% es.Ez (V/m) @ t=0.64
0.5916680024476573
% es.tEx (V/m) @ t=0.64
-1.4147568362646883
% es.tEy (V/m) @ t=0.64
0
% es.tEz (V/m) @ t=0.64
0.5916680024476584
% V (V) @ t=0.64
0.008588140489961649
% es.normE (V/m) @ t=0.66
1.5525108125364815
% es.EX (V/m) @ t=0.66
-1.4279679961750185
% es.EY (V/m) @ t=0.66
0.11138253856613323
% es.EZ (V/m) @ t=0.66
0.5971935276144567
% es.tEX (V/m) @ t=0.66
-1.4279679961750116
% es.tEY (V/m) @ t=0.66
0
% es.tEZ (V/m) @ t=0.66
0.5971935276144542
% es.Ex (V/m) @ t=0.66
-1.4279679961750185
% es.Ey (V/m) @ t=0.66
0.11138253856613323
% es.Ez (V/m) @ t=0.66
0.5971935276144567
% es.tEx (V/m) @ t=0.66
-1.4279679961750116
% es.tEy (V/m) @ t=0.66
0
% es.tEz (V/m) @ t=0.66
0.5971935276144542
% V (V) @ t=0.66
0.008668324545731895
% es.normE (V/m) @ t=0.68
1.5668743995533867
% es.EX (V/m) @ t=0.68
-1.4411791560853344
% es.EY (V/m) @ t=0.68
0.11241337143499786
% es.EZ (V/m) @ t=0.68
0.6027190527812347
% es.tEX (V/m) @ t=0.68
-1.441179156085333
% es.tEY (V/m) @ t=0.68
0
% es.tEZ (V/m) @ t=0.68
0.6027190527812323
% es.Ex (V/m) @ t=0.68
-1.4411791560853344
% es.Ey (V/m) @ t=0.68
0.11241337143499786
% es.Ez (V/m) @ t=0.68
0.6027190527812347
% es.tEx (V/m) @ t=0.68
-1.441179156085333
% es.tEy (V/m) @ t=0.68
0
% es.tEz (V/m) @ t=0.68
0.6027190527812323
% V (V) @ t=0.68
0.008748508601502145
% es.normE (V/m) @ t=0.7
1.5812379865705615
% es.EX (V/m) @ t=0.7
-1.4543903159956624
% es.EY (V/m) @ t=0.7
0.11344420430387142
% es.EZ (V/m) @ t=0.7
0.6082445779480286
% es.tEX (V/m) @ t=0.7
-1.4543903159956564
% es.tEY (V/m) @ t=0.7
0
% es.tEZ (V/m) @ t=0.7
0.608244577948021
% es.Ex (V/m) @ t=0.7
-1.4543903159956624
% es.Ey (V/m) @ t=0.7
0.11344420430387142
% es.Ez (V/m) @ t=0.7
0.6082445779480286
% es.tEx (V/m) @ t=0.7
-1.4543903159956564
% es.tEy (V/m) @ t=0.7
0
% es.tEz (V/m) @ t=0.7
0.608244577948021
% V (V) @ t=0.7
0.008828692657272392
% es.normE (V/m) @ t=0.72
1.5956015735879698
% es.EX (V/m) @ t=0.72
-1.46760147590598
% es.EY (V/m) @ t=0.72
0.11447503717272894
% es.EZ (V/m) @ t=0.72
0.6137701031148226
% es.tEX (V/m) @ t=0.72
-1.467601475905978
% es.tEY (V/m) @ t=0.72
0
% es.tEZ (V/m) @ t=0.72
0.6137701031148204
% es.Ex (V/m) @ t=0.72
-1.46760147590598
% es.Ey (V/m) @ t=0.72
0.11447503717272894
% es.Ez (V/m) @ t=0.72
0.6137701031148226
% es.tEx (V/m) @ t=0.72
-1.467601475905978
% es.tEy (V/m) @ t=0.72
0
% es.tEz (V/m) @ t=0.72
0.6137701031148204
% V (V) @ t=0.72
0.008908876713042638
% es.normE (V/m) @ t=0.74
1.6099651606056349
% es.EX (V/m) @ t=0.74
-1.480812635816315
% es.EY (V/m) @ t=0.74
0.11550587004160967
% es.EZ (V/m) @ t=0.74
0.6192956282816167
% es.tEX (V/m) @ t=0.74
-1.4808126358163065
% es.tEY (V/m) @ t=0.74
0
% es.tEZ (V/m) @ t=0.74
0.6192956282816198
% es.Ex (V/m) @ t=0.74
-1.480812635816315
% es.Ey (V/m) @ t=0.74
0.11550587004160967
% es.Ez (V/m) @ t=0.74
0.6192956282816167
% es.tEx (V/m) @ t=0.74
-1.4808126358163065
% es.tEy (V/m) @ t=0.74
0
% es.tEz (V/m) @ t=0.74
0.6192956282816198
% V (V) @ t=0.74
0.008989060768812885
% es.normE (V/m) @ t=0.76
1.624328747623525
% es.EX (V/m) @ t=0.76
-1.4940237957266451
% es.EY (V/m) @ t=0.76
0.1165367029104743
% es.EZ (V/m) @ t=0.76
0.6248211534484107
% es.tEX (V/m) @ t=0.76
-1.4940237957266387
% es.tEY (V/m) @ t=0.76
0
% es.tEZ (V/m) @ t=0.76
0.6248211534484156
% es.Ex (V/m) @ t=0.76
-1.4940237957266451
% es.Ey (V/m) @ t=0.76
0.1165367029104743
% es.Ez (V/m) @ t=0.76
0.6248211534484107
% es.tEx (V/m) @ t=0.76
-1.4940237957266387
% es.tEy (V/m) @ t=0.76
0
% es.tEz (V/m) @ t=0.76
0.6248211534484156
% V (V) @ t=0.76
0.009069244824583133
% es.normE (V/m) @ t=0.78
1.6386923346416225
% es.EX (V/m) @ t=0.78
-1.5072349556369602
% es.EY (V/m) @ t=0.78
0.11756753577933537
% es.EZ (V/m) @ t=0.78
0.6303466786151941
% es.tEX (V/m) @ t=0.78
-1.5072349556369584
% es.tEY (V/m) @ t=0.78
0
% es.tEZ (V/m) @ t=0.78
0.6303466786151901
% es.Ex (V/m) @ t=0.78
-1.5072349556369602
% es.Ey (V/m) @ t=0.78
0.11756753577933537
% es.Ez (V/m) @ t=0.78
0.6303466786151941
% es.tEx (V/m) @ t=0.78
-1.5072349556369584
% es.tEy (V/m) @ t=0.78
0
% es.tEz (V/m) @ t=0.78
0.6303466786151901
% V (V) @ t=0.78
0.009149428880353383
% es.normE (V/m) @ t=0.8
1.6530559216599519
% es.EX (V/m) @ t=0.8
-1.5204461155472802
% es.EY (V/m) @ t=0.8
0.11859836864820716
% es.EZ (V/m) @ t=0.8
0.6358722037819934
% es.tEX (V/m) @ t=0.8
-1.5204461155472764
% es.tEY (V/m) @ t=0.8
0
% es.tEZ (V/m) @ t=0.8
0.6358722037819895
% es.Ex (V/m) @ t=0.8
-1.5204461155472802
% es.Ey (V/m) @ t=0.8
0.11859836864820716
% es.Ez (V/m) @ t=0.8
0.6358722037819934
% es.tEx (V/m) @ t=0.8
-1.5204461155472764
% es.tEy (V/m) @ t=0.8
0
% es.tEz (V/m) @ t=0.8
0.6358722037819895
% V (V) @ t=0.8
0.00922961293612363
% es.normE (V/m) @ t=0.82
1.6677919417332319
% es.EX (V/m) @ t=0.82
-1.5339998607174252
% es.EY (V/m) @ t=0.82
0.11965586566951142
% es.EZ (V/m) @ t=0.82
0.6415409273133101
% es.tEX (V/m) @ t=0.82
-1.5339998607174188
% es.tEY (V/m) @ t=0.82
0
% es.tEZ (V/m) @ t=0.82
0.6415409273133079
% es.Ex (V/m) @ t=0.82
-1.5339998607174252
% es.Ey (V/m) @ t=0.82
0.11965586566951142
% es.Ez (V/m) @ t=0.82
0.6415409273133101
% es.tEx (V/m) @ t=0.82
-1.5339998607174188
% es.tEy (V/m) @ t=0.82
0
% es.tEz (V/m) @ t=0.82
0.6415409273133079
% V (V) @ t=0.82
0.00931187872232373
% es.normE (V/m) @ t=0.84
1.683850396878394
% es.EX (V/m) @ t=0.84
-1.5487700574267167
% es.EY (V/m) @ t=0.84
0.12080804174758675
% es.EZ (V/m) @ t=0.84
0.6477181195132242
% es.tEX (V/m) @ t=0.84
-1.5487700574267116
% es.tEY (V/m) @ t=0.84
0
% es.tEZ (V/m) @ t=0.84
0.6477181195132218
% es.Ex (V/m) @ t=0.84
-1.5487700574267167
% es.Ey (V/m) @ t=0.84
0.12080804174758675
% es.Ez (V/m) @ t=0.84
0.6477181195132242
% es.tEx (V/m) @ t=0.84
-1.5487700574267116
% es.tEy (V/m) @ t=0.84
0
% es.tEz (V/m) @ t=0.84
0.6477181195132218
% V (V) @ t=0.84
0.009401536315710182
% es.normE (V/m) @ t=0.86
1.6999088520235426
% es.EX (V/m) @ t=0.86
-1.5635402541359946
% es.EY (V/m) @ t=0.86
0.12196021782564076
% es.EZ (V/m) @ t=0.86
0.6538953117131205
% es.tEX (V/m) @ t=0.86
-1.5635402541359955
% es.tEY (V/m) @ t=0.86
0
% es.tEZ (V/m) @ t=0.86
0.6538953117131214
% es.Ex (V/m) @ t=0.86
-1.5635402541359946
% es.Ey (V/m) @ t=0.86
0.12196021782564076
% es.Ez (V/m) @ t=0.86
0.6538953117131205
% es.tEx (V/m) @ t=0.86
-1.5635402541359955
% es.tEy (V/m) @ t=0.86
0
% es.tEz (V/m) @ t=0.86
0.6538953117131214
% V (V) @ t=0.86
0.009491193909096638
% es.normE (V/m) @ t=0.88
1.7159673071687163
% es.EX (V/m) @ t=0.88
-1.5783104508452845
% es.EY (V/m) @ t=0.88
0.12311239390371437
% es.EZ (V/m) @ t=0.88
0.6600725039130309
% es.tEX (V/m) @ t=0.88
-1.578310450845283
% es.tEY (V/m) @ t=0.88
0
% es.tEZ (V/m) @ t=0.88
0.6600725039130282
% es.Ex (V/m) @ t=0.88
-1.5783104508452845
% es.Ey (V/m) @ t=0.88
0.12311239390371437
% es.Ez (V/m) @ t=0.88
0.6600725039130309
% es.tEx (V/m) @ t=0.88
-1.578310450845283
% es.tEy (V/m) @ t=0.88
0
% es.tEz (V/m) @ t=0.88
0.6600725039130282
% V (V) @ t=0.88
0.009580851502483093
% es.normE (V/m) @ t=0.9
1.732025762313899
% es.EX (V/m) @ t=0.9
-1.5930806475545773
% es.EY (V/m) @ t=0.9
0.1242645699817827
% es.EZ (V/m) @ t=0.9
0.6662496961129394
% es.tEX (V/m) @ t=0.9
-1.5930806475545616
% es.tEY (V/m) @ t=0.9
0
% es.tEZ (V/m) @ t=0.9
0.6662496961129492
% es.Ex (V/m) @ t=0.9
-1.5930806475545773
% es.Ey (V/m) @ t=0.9
0.1242645699817827
% es.Ez (V/m) @ t=0.9
0.6662496961129394
% es.tEx (V/m) @ t=0.9
-1.5930806475545616
% es.tEy (V/m) @ t=0.9
0
% es.tEz (V/m) @ t=0.9
0.6662496961129492
% V (V) @ t=0.9
0.009670509095869546
% es.normE (V/m) @ t=0.92
1.7480842174590776
% es.EX (V/m) @ t=0.92
-1.607850844263858
% es.EY (V/m) @ t=0.92
0.12541674605986153
% es.EZ (V/m) @ t=0.92
0.6724268883128464
% es.tEX (V/m) @ t=0.92
-1.6078508442638544
% es.tEY (V/m) @ t=0.92
0
% es.tEZ (V/m) @ t=0.92
0.6724268883128453
% es.Ex (V/m) @ t=0.92
-1.607850844263858
% es.Ey (V/m) @ t=0.92
0.12541674605986153
% es.Ez (V/m) @ t=0.92
0.6724268883128464
% es.tEx (V/m) @ t=0.92
-1.6078508442638544
% es.tEy (V/m) @ t=0.92
0
% es.tEz (V/m) @ t=0.92
0.6724268883128453
% V (V) @ t=0.92
0.009760166689255998
% es.normE (V/m) @ t=0.94
1.7641426726042644
% es.EX (V/m) @ t=0.94
-1.6226210409731436
% es.EY (V/m) @ t=0.94
0.12656892213792625
% es.EZ (V/m) @ t=0.94
0.6786040805127479
% es.tEX (V/m) @ t=0.94
-1.6226210409731419
% es.tEY (V/m) @ t=0.94
0
% es.tEZ (V/m) @ t=0.94
0.6786040805127413
% es.Ex (V/m) @ t=0.94
-1.6226210409731436
% es.Ey (V/m) @ t=0.94
0.12656892213792625
% es.Ez (V/m) @ t=0.94
0.6786040805127479
% es.tEx (V/m) @ t=0.94
-1.6226210409731419
% es.tEy (V/m) @ t=0.94
0
% es.tEz (V/m) @ t=0.94
0.6786040805127413
% V (V) @ t=0.94
0.009849824282642451
% es.normE (V/m) @ t=0.96
1.7802011277494656
% es.EX (V/m) @ t=0.96
-1.6373912376824349
% es.EY (V/m) @ t=0.96
0.12772109821599453
% es.EZ (V/m) @ t=0.96
0.6847812727126565
% es.tEX (V/m) @ t=0.96
-1.6373912376824205
% es.tEY (V/m) @ t=0.96
0
% es.tEZ (V/m) @ t=0.96
0.6847812727126659
% es.Ex (V/m) @ t=0.96
-1.6373912376824349
% es.Ey (V/m) @ t=0.96
0.12772109821599453
% es.Ez (V/m) @ t=0.96
0.6847812727126565
% es.tEx (V/m) @ t=0.96
-1.6373912376824205
% es.tEy (V/m) @ t=0.96
0
% es.tEz (V/m) @ t=0.96
0.6847812727126659
% V (V) @ t=0.96
0.009939481876028906
% es.normE (V/m) @ t=0.98
1.796259582894672
% es.EX (V/m) @ t=0.98
-1.6521614343917215
% es.EY (V/m) @ t=0.98
0.1288732742940628
% es.EZ (V/m) @ t=0.98
0.6909584649125723
% es.tEX (V/m) @ t=0.98
-1.6521614343917133
% es.tEY (V/m) @ t=0.98
0
% es.tEZ (V/m) @ t=0.98
0.6909584649125726
% es.Ex (V/m) @ t=0.98
-1.6521614343917215
% es.Ey (V/m) @ t=0.98
0.1288732742940628
% es.Ez (V/m) @ t=0.98
0.6909584649125723
% es.tEx (V/m) @ t=0.98
-1.6521614343917133
% es.tEy (V/m) @ t=0.98
0
% es.tEz (V/m) @ t=0.98
0.6909584649125726
% V (V) @ t=0.98
0.010029139469415362
% es.normE (V/m) @ t=1
1.8123180380398731
% es.EX (V/m) @ t=1
-1.6669316311010038
% es.EY (V/m) @ t=1
0.13002545037212565
% es.EZ (V/m) @ t=1
0.6971356571124685
% es.tEX (V/m) @ t=1
-1.6669316311010007
% es.tEY (V/m) @ t=1
0
% es.tEZ (V/m) @ t=1
0.6971356571124652
% es.Ex (V/m) @ t=1
-1.6669316311010038
% es.Ey (V/m) @ t=1
0.13002545037212565
% es.Ez (V/m) @ t=1
0.6971356571124685
% es.tEx (V/m) @ t=1
-1.6669316311010007
% es.tEy (V/m) @ t=1
0
% es.tEz (V/m) @ t=1
0.6971356571124652
% V (V) @ t=1
0.010118797062801815
% es.normE (V/m) @ t=1.02
1.828376493185084
% es.EX (V/m) @ t=1.02
-1.6817018278102849
% es.EY (V/m) @ t=1.02
0.1311776264502117
% es.EZ (V/m) @ t=1.02
0.7033128493123755
% es.tEX (V/m) @ t=1.02
-1.6817018278102793
% es.tEY (V/m) @ t=1.02
0
% es.tEZ (V/m) @ t=1.02
0.7033128493123719
% es.Ex (V/m) @ t=1.02
-1.6817018278102849
% es.Ey (V/m) @ t=1.02
0.1311776264502117
% es.Ez (V/m) @ t=1.02
0.7033128493123755
% es.tEx (V/m) @ t=1.02
-1.6817018278102793
% es.tEy (V/m) @ t=1.02
0
% es.tEz (V/m) @ t=1.02
0.7033128493123719
% V (V) @ t=1.02
0.010208454656188267
% es.normE (V/m) @ t=1.04
1.8444349483303069
% es.EX (V/m) @ t=1.04
-1.696472024519572
% es.EY (V/m) @ t=1.04
0.13232980252826398
% es.EZ (V/m) @ t=1.04
0.7094900415122877