% Model:              1 neuron.mph
% Version:            COMSOL 6.1.0.252
% Date:               Mar 18 2023, 11:56
% Dimension:          0
% Nodes:              14017
% Expressions:        14017
% Description:        Electric field norm, Electric field, X component, Electric field, Y component, Electric field, Z component, Tangential electric field, X component, Tangential electric field, Y component, Tangential electric field, Z component, Electric field, x component, Electric field, y component, Electric field, z component, Tangential electric field, x component, Tangential electric field, y component, Tangential electric field, z component, Electric potential
% Length unit:        mm
% x
2
% y
12.2
% z
1.6599999999999997
% es.normE (V/m) @ t=0
1.2455738893028978
% es.EX (V/m) @ t=0
-1.203553209326361
% es.EY (V/m) @ t=0
0.09271773682601464
% es.EZ (V/m) @ t=0
-0.3067554868739326
% es.tEX (V/m) @ t=0
-1.2035532093263601
% es.tEY (V/m) @ t=0
0
% es.tEZ (V/m) @ t=0
-0.30675548687393395
% es.Ex (V/m) @ t=0
-1.203553209326361
% es.Ey (V/m) @ t=0
0.09271773682601464
% es.Ez (V/m) @ t=0
-0.3067554868739326
% es.tEx (V/m) @ t=0
-1.2035532093263601
% es.tEy (V/m) @ t=0
0
% es.tEz (V/m) @ t=0
-0.30675548687393395
% V (V) @ t=0
0.00721835523799956
% es.normE (V/m) @ t=0.02
1.0758164562924732
% es.EX (V/m) @ t=0.02
-1.0395227107068128
% es.EY (V/m) @ t=0.02
0.08008137810253352
% es.EZ (V/m) @ t=0.02
-0.2649482400191252
% es.tEX (V/m) @ t=0.02
-1.0395227107068141
% es.tEY (V/m) @ t=0.02
0
% es.tEZ (V/m) @ t=0.02
-0.2649482400191232
% es.Ex (V/m) @ t=0.02
-1.0395227107068128
% es.Ey (V/m) @ t=0.02
0.08008137810253352
% es.Ez (V/m) @ t=0.02
-0.2649482400191252
% es.tEx (V/m) @ t=0.02
-1.0395227107068141
% es.tEy (V/m) @ t=0.02
0
% es.tEz (V/m) @ t=0.02
-0.2649482400191232
% V (V) @ t=0.02
0.0062345760998075254
% es.normE (V/m) @ t=0.04
1.0857128479562923
% es.EX (V/m) @ t=0.04
-1.049085234700486
% es.EY (V/m) @ t=0.04
0.08081805030744033
% es.EZ (V/m) @ t=0.04
-0.26738549753111185
% es.tEX (V/m) @ t=0.04
-1.04908523470049
% es.tEY (V/m) @ t=0.04
0
% es.tEZ (V/m) @ t=0.04
-0.2673854975311123
% es.Ex (V/m) @ t=0.04
-1.049085234700486
% es.Ey (V/m) @ t=0.04
0.08081805030744033
% es.Ez (V/m) @ t=0.04
-0.26738549753111185
% es.tEx (V/m) @ t=0.04
-1.04908523470049
% es.tEy (V/m) @ t=0.04
0
% es.tEz (V/m) @ t=0.04
-0.2673854975311123
% V (V) @ t=0.04
0.00629192755126566
% es.normE (V/m) @ t=0.06
1.095700408912061
% es.EX (V/m) @ t=0.06
-1.0587358581484665
% es.EY (V/m) @ t=0.06
0.0815614954144665
% es.EZ (V/m) @ t=0.06
-0.2698451893598177
% es.tEX (V/m) @ t=0.06
-1.0587358581484718
% es.tEY (V/m) @ t=0.06
0
% es.tEZ (V/m) @ t=0.06
-0.26984518935982393
% es.Ex (V/m) @ t=0.06
-1.0587358581484665
% es.Ey (V/m) @ t=0.06
0.0815614954144665
% es.Ez (V/m) @ t=0.06
-0.2698451893598177
% es.tEx (V/m) @ t=0.06
-1.0587358581484718
% es.tEy (V/m) @ t=0.06
0
% es.tEz (V/m) @ t=0.06
-0.26984518935982393
% V (V) @ t=0.06
0.006349807663232368
% es.normE (V/m) @ t=0.08
1.1058358682036054
% es.EX (V/m) @ t=0.08
-1.0685293892790297
% es.EY (V/m) @ t=0.08
0.08231595242554829
% es.EZ (V/m) @ t=0.08
-0.2723413087184552
% es.tEX (V/m) @ t=0.08
-1.068529389279023
% es.tEY (V/m) @ t=0.08
0
% es.tEZ (V/m) @ t=0.08
-0.2723413087184552
% es.Ex (V/m) @ t=0.08
-1.0685293892790297
% es.Ey (V/m) @ t=0.08
0.08231595242554829
% es.Ez (V/m) @ t=0.08
-0.2723413087184552
% es.tEx (V/m) @ t=0.08
-1.068529389279023
% es.tEy (V/m) @ t=0.08
0
% es.tEz (V/m) @ t=0.08
-0.2723413087184552
% V (V) @ t=0.08
0.006408544813308028
% es.normE (V/m) @ t=0.1
1.1160835593088914
% es.EX (V/m) @ t=0.1
-1.0784313650944477
% es.EY (V/m) @ t=0.1
0.08307876575758
% es.EZ (V/m) @ t=0.1
-0.27486507090170265
% es.tEX (V/m) @ t=0.1
-1.0784313650944473
% es.tEY (V/m) @ t=0.1
0
% es.tEZ (V/m) @ t=0.1
-0.2748650709017104
% es.Ex (V/m) @ t=0.1
-1.0784313650944477
% es.Ey (V/m) @ t=0.1
0.08307876575758
% es.Ez (V/m) @ t=0.1
-0.27486507090170265
% es.tEx (V/m) @ t=0.1
-1.0784313650944473
% es.tEy (V/m) @ t=0.1
0
% es.tEz (V/m) @ t=0.1
-0.2748650709017104
% V (V) @ t=0.1
0.006467932321894677
% es.normE (V/m) @ t=0.12
1.126331250414177
% es.EX (V/m) @ t=0.12
-1.0883333409098652
% es.EY (V/m) @ t=0.12
0.08384157908963791
% es.EZ (V/m) @ t=0.12
-0.277388833084941
% es.tEX (V/m) @ t=0.12
-1.0883333409098732
% es.tEY (V/m) @ t=0.12
0
% es.tEZ (V/m) @ t=0.12
-0.277388833084939
% es.Ex (V/m) @ t=0.12
-1.0883333409098652
% es.Ey (V/m) @ t=0.12
0.08384157908963791
% es.Ez (V/m) @ t=0.12
-0.277388833084941
% es.tEx (V/m) @ t=0.12
-1.0883333409098732
% es.tEy (V/m) @ t=0.12
0
% es.tEz (V/m) @ t=0.12
-0.277388833084939
% V (V) @ t=0.12
0.006527319830481325
% es.normE (V/m) @ t=0.14
1.1366599298250244
% es.EX (V/m) @ t=0.14
-1.098313570190625
% es.EY (V/m) @ t=0.14
0.08461042709999023
% es.EZ (V/m) @ t=0.14
-0.27993254906754705
% es.tEX (V/m) @ t=0.14
-1.0983135701906193
% es.tEY (V/m) @ t=0.14
0
% es.tEZ (V/m) @ t=0.14
-0.27993254906754217
% es.Ex (V/m) @ t=0.14
-1.098313570190625
% es.Ey (V/m) @ t=0.14
0.08461042709999023
% es.Ez (V/m) @ t=0.14
-0.27993254906754705
% es.tEx (V/m) @ t=0.14
-1.0983135701906193
% es.tEy (V/m) @ t=0.14
0
% es.tEz (V/m) @ t=0.14
-0.27993254906754217
% V (V) @ t=0.14
0.006587176539940417
% es.normE (V/m) @ t=0.16
1.147458060055009
% es.EX (V/m) @ t=0.16
-1.1087473977180649
% es.EY (V/m) @ t=0.16
0.08541425528021052
% es.EZ (V/m) @ t=0.16
-0.2825919277670055
% es.tEX (V/m) @ t=0.16
-1.1087473977180604
% es.tEY (V/m) @ t=0.16
0
% es.tEZ (V/m) @ t=0.16
-0.2825919277670099
% es.Ex (V/m) @ t=0.16
-1.1087473977180649
% es.Ey (V/m) @ t=0.16
0.08541425528021052
% es.Ez (V/m) @ t=0.16
-0.2825919277670055
% es.tEx (V/m) @ t=0.16
-1.1087473977180604
% es.tEy (V/m) @ t=0.16
0
% es.tEz (V/m) @ t=0.16
-0.2825919277670099
% V (V) @ t=0.16
0.0066497529844578174
% es.normE (V/m) @ t=0.18
1.158256190285015
% es.EX (V/m) @ t=0.18
-1.1191812252455193
% es.EY (V/m) @ t=0.18
0.08621808346041476
% es.EZ (V/m) @ t=0.18
-0.28525130646648167
% es.tEX (V/m) @ t=0.18
-1.119181225245514
% es.tEY (V/m) @ t=0.18
0
% es.tEZ (V/m) @ t=0.18
-0.2852513064664741
% es.Ex (V/m) @ t=0.18
-1.1191812252455193
% es.Ey (V/m) @ t=0.18
0.08621808346041476
% es.Ez (V/m) @ t=0.18
-0.28525130646648167
% es.tEx (V/m) @ t=0.18
-1.119181225245514
% es.tEy (V/m) @ t=0.18
0
% es.tEz (V/m) @ t=0.18
-0.2852513064664741
% V (V) @ t=0.18
0.0067123294289752194
% es.normE (V/m) @ t=0.2
1.169054320515012
% es.EX (V/m) @ t=0.2
-1.129615052772961
% es.EY (V/m) @ t=0.2
0.08702191164062617
% es.EZ (V/m) @ t=0.2
-0.28791068516595164
% es.tEX (V/m) @ t=0.2
-1.129615052772964
% es.tEY (V/m) @ t=0.2
0
% es.tEZ (V/m) @ t=0.2
-0.2879106851659543
% es.Ex (V/m) @ t=0.2
-1.129615052772961
% es.Ey (V/m) @ t=0.2
0.08702191164062617
% es.Ez (V/m) @ t=0.2
-0.28791068516595164
% es.tEx (V/m) @ t=0.2
-1.129615052772964
% es.tEy (V/m) @ t=0.2
0
% es.tEz (V/m) @ t=0.2
-0.2879106851659543
% V (V) @ t=0.2
0.006774905873492622
% es.normE (V/m) @ t=0.22
1.1798524507450177
% es.EX (V/m) @ t=0.22
-1.1400488803004083
% es.EY (V/m) @ t=0.22
0.08782573982084202
% es.EZ (V/m) @ t=0.22
-0.29057006386541717
% es.tEX (V/m) @ t=0.22
-1.1400488803004123
% es.tEY (V/m) @ t=0.22
0
% es.tEZ (V/m) @ t=0.22
-0.2905700638654114
% es.Ex (V/m) @ t=0.22
-1.1400488803004083
% es.Ey (V/m) @ t=0.22
0.08782573982084202
% es.Ez (V/m) @ t=0.22
-0.29057006386541717
% es.tEx (V/m) @ t=0.22
-1.1400488803004123
% es.tEy (V/m) @ t=0.22
0
% es.tEz (V/m) @ t=0.22
-0.2905700638654114
% V (V) @ t=0.22
0.0068374823180100235
% es.normE (V/m) @ t=0.24
1.1906505809750405
% es.EX (V/m) @ t=0.24
-1.1504827078278668
% es.EY (V/m) @ t=0.24
0.08862956800105248
% es.EZ (V/m) @ t=0.24
-0.2932294425648925
% es.tEX (V/m) @ t=0.24
-1.1504827078278659
% es.tEY (V/m) @ t=0.24
0
% es.tEZ (V/m) @ t=0.24
-0.29322944256488626
% es.Ex (V/m) @ t=0.24
-1.1504827078278668
% es.Ey (V/m) @ t=0.24
0.08862956800105248
% es.Ez (V/m) @ t=0.24
-0.2932294425648925
% es.tEx (V/m) @ t=0.24
-1.1504827078278659
% es.tEy (V/m) @ t=0.24
0
% es.tEz (V/m) @ t=0.24
-0.29322944256488626
% V (V) @ t=0.24
0.0069000587625274255
% es.normE (V/m) @ t=0.26
1.2014487112050483
% es.EX (V/m) @ t=0.26
-1.1609165353553115
% es.EY (V/m) @ t=0.26
0.08943339618125051
% es.EZ (V/m) @ t=0.26
-0.29588882126435
% es.tEX (V/m) @ t=0.26
-1.160916535355323
% es.tEY (V/m) @ t=0.26
0
% es.tEZ (V/m) @ t=0.26
-0.29588882126435223
% es.Ex (V/m) @ t=0.26
-1.1609165353553115
% es.Ey (V/m) @ t=0.26
0.08943339618125051
% es.Ez (V/m) @ t=0.26
-0.29588882126435
% es.tEx (V/m) @ t=0.26
-1.160916535355323
% es.tEy (V/m) @ t=0.26
0
% es.tEz (V/m) @ t=0.26
-0.29588882126435223
% V (V) @ t=0.26
0.006962635207044828
% es.normE (V/m) @ t=0.28
1.2126235543373962
% es.EX (V/m) @ t=0.28
-1.1717141653092136
% es.EY (V/m) @ t=0.28
0.090265735207123
% es.EZ (V/m) @ t=0.28
-0.29864161379541376
% es.tEX (V/m) @ t=0.28
-1.1717141653092185
% es.tEY (V/m) @ t=0.28
0
% es.tEZ (V/m) @ t=0.28
-0.2986416137954091
% es.Ex (V/m) @ t=0.28
-1.1717141653092136
% es.Ey (V/m) @ t=0.28
0.090265735207123
% es.Ez (V/m) @ t=0.28
-0.29864161379541376
% es.tEx (V/m) @ t=0.28
-1.1717141653092185
% es.tEy (V/m) @ t=0.28
0
% es.tEz (V/m) @ t=0.28
-0.2986416137954091
% V (V) @ t=0.28
0.007027383756426102
% es.normE (V/m) @ t=0.3
1.2246596839308506
% es.EX (V/m) @ t=0.3
-1.1833435642333545
% es.EY (V/m) @ t=0.3
0.0911632591658223
% es.EZ (V/m) @ t=0.3
-0.3016079802909515
% es.tEX (V/m) @ t=0.3
-1.1833435642333452
% es.tEY (V/m) @ t=0.3
0
% es.tEZ (V/m) @ t=0.3
-0.3016079802909495
% es.Ex (V/m) @ t=0.3
-1.1833435642333545
% es.Ey (V/m) @ t=0.3
0.0911632591658223
% es.Ez (V/m) @ t=0.3
-0.3016079802909515
% es.tEx (V/m) @ t=0.3
-1.1833435642333452
% es.tEy (V/m) @ t=0.3
0
% es.tEz (V/m) @ t=0.3
-0.3016079802909495
% V (V) @ t=0.3
0.0070970984338331235
% es.normE (V/m) @ t=0.32
1.236695813530801
% es.EX (V/m) @ t=0.32
-1.1949729631574817
% es.EY (V/m) @ t=0.32
0.0920607831245358
% es.EZ (V/m) @ t=0.32
-0.3045743467865012
% es.tEX (V/m) @ t=0.32
-1.1949729631574915
% es.tEY (V/m) @ t=0.32
0
% es.tEZ (V/m) @ t=0.32
-0.30457434678649165
% es.Ex (V/m) @ t=0.32
-1.1949729631574817
% es.Ey (V/m) @ t=0.32
0.0920607831245358
% es.Ez (V/m) @ t=0.32
-0.3045743467865012
% es.tEx (V/m) @ t=0.32
-1.1949729631574915
% es.tEy (V/m) @ t=0.32
0
% es.tEz (V/m) @ t=0.32
-0.30457434678649165
% V (V) @ t=0.32
0.007166813111240143
% es.normE (V/m) @ t=0.34
1.2487319431370811
% es.EX (V/m) @ t=0.34
-1.2066023620816235
% es.EY (V/m) @ t=0.34
0.09295830708323954
% es.EZ (V/m) @ t=0.34
-0.30754071328204513
% es.tEX (V/m) @ t=0.34
-1.2066023620816324
% es.tEY (V/m) @ t=0.34
0
% es.tEZ (V/m) @ t=0.34
-0.3075407132820427
% es.Ex (V/m) @ t=0.34
-1.2066023620816235
% es.Ey (V/m) @ t=0.34
0.09295830708323954
% es.Ez (V/m) @ t=0.34
-0.30754071328204513
% es.tEx (V/m) @ t=0.34
-1.2066023620816324
% es.tEy (V/m) @ t=0.34
0
% es.tEz (V/m) @ t=0.34
-0.3075407132820427
% V (V) @ t=0.34
0.0072365277886471645
% es.normE (V/m) @ t=0.36
1.2607680727495092
% es.EX (V/m) @ t=0.36
-1.2182317610057787
% es.EY (V/m) @ t=0.36
0.09385583104192463
% es.EZ (V/m) @ t=0.36
-0.31050707977758796
% es.tEX (V/m) @ t=0.36
-1.2182317610057805
% es.tEY (V/m) @ t=0.36
0
% es.tEZ (V/m) @ t=0.36
-0.3105070797775831
% es.Ex (V/m) @ t=0.36
-1.2182317610057787
% es.Ey (V/m) @ t=0.36
0.09385583104192463
% es.Ez (V/m) @ t=0.36
-0.31050707977758796
% es.tEx (V/m) @ t=0.36
-1.2182317610057805
% es.tEy (V/m) @ t=0.36
0
% es.tEz (V/m) @ t=0.36
-0.3105070797775831
% V (V) @ t=0.36
0.007306242466054187
% es.normE (V/m) @ t=0.38
1.2728042023678825
% es.EX (V/m) @ t=0.38
-1.2298611599299134
% es.EY (V/m) @ t=0.38
0.09475335500063814
% es.EZ (V/m) @ t=0.38
-0.31347344627313434
% es.tEX (V/m) @ t=0.38
-1.2298611599299285
% es.tEY (V/m) @ t=0.38
0
% es.tEZ (V/m) @ t=0.38
-0.31347344627313234
% es.Ex (V/m) @ t=0.38
-1.2298611599299134
% es.Ey (V/m) @ t=0.38
0.09475335500063814
% es.Ez (V/m) @ t=0.38
-0.31347344627313434
% es.tEx (V/m) @ t=0.38
-1.2298611599299285
% es.tEy (V/m) @ t=0.38
0
% es.tEz (V/m) @ t=0.38
-0.31347344627313234
% V (V) @ t=0.38
0.007375957143461206
% es.normE (V/m) @ t=0.4
1.2848403319920698
% es.EX (V/m) @ t=0.4
-1.2414905588540694
% es.EY (V/m) @ t=0.4
0.09565087895932495
% es.EZ (V/m) @ t=0.4
-0.3164398127686818
% es.tEX (V/m) @ t=0.4
-1.2414905588540623
% es.tEY (V/m) @ t=0.4
0
% es.tEZ (V/m) @ t=0.4
-0.31643981276868693
% es.Ex (V/m) @ t=0.4
-1.2414905588540694
% es.Ey (V/m) @ t=0.4
0.09565087895932495
% es.Ez (V/m) @ t=0.4
-0.3164398127686818
% es.tEx (V/m) @ t=0.4
-1.2414905588540623
% es.tEy (V/m) @ t=0.4
0
% es.tEz (V/m) @ t=0.4
-0.31643981276868693
% V (V) @ t=0.4
0.007445671820868228
% es.normE (V/m) @ t=0.42
1.2968764616218493
% es.EX (V/m) @ t=0.42
-1.2531199577781846
% es.EY (V/m) @ t=0.42
0.09654840291802336
% es.EZ (V/m) @ t=0.42
-0.31940617926422
% es.tEX (V/m) @ t=0.42
-1.2531199577781802
% es.tEY (V/m) @ t=0.42
0
% es.tEZ (V/m) @ t=0.42
-0.31940617926421666
% es.Ex (V/m) @ t=0.42
-1.2531199577781846
% es.Ey (V/m) @ t=0.42
0.09654840291802336
% es.Ez (V/m) @ t=0.42
-0.31940617926422
% es.tEx (V/m) @ t=0.42
-1.2531199577781802
% es.tEy (V/m) @ t=0.42
0
% es.tEz (V/m) @ t=0.42
-0.31940617926421666
% V (V) @ t=0.42
0.00751538649827525
% es.normE (V/m) @ t=0.44
1.30891259125715
% es.EX (V/m) @ t=0.44
-1.2647493567023407
% es.EY (V/m) @ t=0.44
0.09744592687673154
% es.EZ (V/m) @ t=0.44
-0.3223725457597675
% es.tEX (V/m) @ t=0.44
-1.2647493567023425
% es.tEY (V/m) @ t=0.44
0
% es.tEZ (V/m) @ t=0.44
-0.32237254575977126
% es.Ex (V/m) @ t=0.44
-1.2647493567023407
% es.Ey (V/m) @ t=0.44
0.09744592687673154
% es.Ez (V/m) @ t=0.44
-0.3223725457597675
% es.tEx (V/m) @ t=0.44
-1.2647493567023425
% es.tEy (V/m) @ t=0.44
0
% es.tEz (V/m) @ t=0.44
-0.32237254575977126
% V (V) @ t=0.44
0.007585101175682269
% es.normE (V/m) @ t=0.46
1.3209487208977537
% es.EX (V/m) @ t=0.46
-1.2763787556264719
% es.EY (V/m) @ t=0.46
0.09834345083544149
% es.EZ (V/m) @ t=0.46
-0.3253389122553101
% es.tEX (V/m) @ t=0.46
-1.2763787556264834
% es.tEY (V/m) @ t=0.46
0
% es.tEZ (V/m) @ t=0.46
-0.3253389122553081
% es.Ex (V/m) @ t=0.46
-1.2763787556264719
% es.Ey (V/m) @ t=0.46
0.09834345083544149
% es.Ez (V/m) @ t=0.46
-0.3253389122553101
% es.tEx (V/m) @ t=0.46
-1.2763787556264834
% es.tEy (V/m) @ t=0.46
0
% es.tEz (V/m) @ t=0.46
-0.3253389122553081
% V (V) @ t=0.46
0.007654815853089291
% es.normE (V/m) @ t=0.48
1.3329848505435455
% es.EX (V/m) @ t=0.48
-1.2880081545506057
% es.EY (V/m) @ t=0.48
0.09924097479415506
% es.EZ (V/m) @ t=0.48
-0.32830527875085735
% es.tEX (V/m) @ t=0.48
-1.288008154550603
% es.tEY (V/m) @ t=0.48
0
% es.tEZ (V/m) @ t=0.48
-0.32830527875085735
% es.Ex (V/m) @ t=0.48
-1.2880081545506057
% es.Ey (V/m) @ t=0.48
0.09924097479415506
% es.Ez (V/m) @ t=0.48
-0.32830527875085735
% es.tEx (V/m) @ t=0.48
-1.288008154550603
% es.tEy (V/m) @ t=0.48
0
% es.tEz (V/m) @ t=0.48
-0.32830527875085735
% V (V) @ t=0.48
0.00772453053049631
% es.normE (V/m) @ t=0.5
1.3450209801943884
% es.EX (V/m) @ t=0.5
-1.299637553474752
% es.EY (V/m) @ t=0.5
0.10013849875283115
% es.EZ (V/m) @ t=0.5
-0.3312716452463942
% es.tEX (V/m) @ t=0.5
-1.2996375534747528
% es.tEY (V/m) @ t=0.5
0
% es.tEZ (V/m) @ t=0.5
-0.3312716452463924
% es.Ex (V/m) @ t=0.5
-1.299637553474752
% es.Ey (V/m) @ t=0.5
0.10013849875283115
% es.Ez (V/m) @ t=0.5
-0.3312716452463942
% es.tEx (V/m) @ t=0.5
-1.2996375534747528
% es.tEy (V/m) @ t=0.5
0
% es.tEz (V/m) @ t=0.5
-0.3312716452463924
% V (V) @ t=0.5
0.007794245207903332
% es.normE (V/m) @ t=0.52
1.3570571098501572
% es.EX (V/m) @ t=0.52
-1.3112669523989053
% es.EY (V/m) @ t=0.52
0.10103602271153495
% es.EZ (V/m) @ t=0.52
-0.3342380117419548
% es.tEX (V/m) @ t=0.52
-1.3112669523989045
% es.tEY (V/m) @ t=0.52
0
% es.tEZ (V/m) @ t=0.52
-0.3342380117419559
% es.Ex (V/m) @ t=0.52
-1.3112669523989053
% es.Ey (V/m) @ t=0.52
0.10103602271153495
% es.Ez (V/m) @ t=0.52
-0.3342380117419548
% es.tEx (V/m) @ t=0.52
-1.3112669523989045
% es.tEy (V/m) @ t=0.52
0
% es.tEz (V/m) @ t=0.52
-0.3342380117419559
% V (V) @ t=0.52
0.007863959885310351
% es.normE (V/m) @ t=0.54
1.369093239510681
% es.EX (V/m) @ t=0.54
-1.3228963513230356
% es.EY (V/m) @ t=0.54
0.10193354667025378
% es.EZ (V/m) @ t=0.54
-0.3372043782374967
% es.tEX (V/m) @ t=0.54
-1.3228963513230383
% es.tEY (V/m) @ t=0.54
0
% es.tEZ (V/m) @ t=0.54
-0.33720437823749094
% es.Ex (V/m) @ t=0.54
-1.3228963513230356
% es.Ey (V/m) @ t=0.54
0.10193354667025378
% es.Ez (V/m) @ t=0.54
-0.3372043782374967
% es.tEx (V/m) @ t=0.54
-1.3228963513230383
% es.tEy (V/m) @ t=0.54
0
% es.tEz (V/m) @ t=0.54
-0.33720437823749094
% V (V) @ t=0.54
0.007933674562717374
% es.normE (V/m) @ t=0.56
1.3820007215860355
% es.EX (V/m) @ t=0.56
-1.335368416636837
% es.EY (V/m) @ t=0.56
0.10289428095648634
% es.EZ (V/m) @ t=0.56
-0.340383091729606
% es.tEX (V/m) @ t=0.56
-1.335368416636845
% es.tEY (V/m) @ t=0.56
0
% es.tEZ (V/m) @ t=0.56
-0.3403830917296098
% es.Ex (V/m) @ t=0.56
-1.335368416636837
% es.Ey (V/m) @ t=0.56
0.10289428095648634
% es.Ez (V/m) @ t=0.56
-0.340383091729606
% es.tEx (V/m) @ t=0.56
-1.335368416636845
% es.tEy (V/m) @ t=0.56
0
% es.tEz (V/m) @ t=0.56
-0.3403830917296098
% V (V) @ t=0.56
0.008008477698634154
% es.normE (V/m) @ t=0.58
1.3954454229957727
% es.EX (V/m) @ t=0.58
-1.348360015342915
% es.EY (V/m) @ t=0.58
0.10389398662722504
% es.EZ (V/m) @ t=0.58
-0.3436927245948007
% es.tEX (V/m) @ t=0.58
-1.3483600153429194
% es.tEY (V/m) @ t=0.58
0
% es.tEZ (V/m) @ t=0.58
-0.3436927245947956
% es.Ex (V/m) @ t=0.58
-1.348360015342915
% es.Ey (V/m) @ t=0.58
0.10389398662722504
% es.Ez (V/m) @ t=0.58
-0.3436927245948007
% es.tEx (V/m) @ t=0.58
-1.3483600153429194
% es.tEy (V/m) @ t=0.58
0
% es.tEz (V/m) @ t=0.58
-0.3436927245947956
% V (V) @ t=0.58
0.00808641804773917
% es.normE (V/m) @ t=0.6
1.408890124409353
% es.EX (V/m) @ t=0.6
-1.361351614048969
% es.EY (V/m) @ t=0.6
0.10489369229797801
% es.EZ (V/m) @ t=0.6
-0.3470023574600023
% es.tEX (V/m) @ t=0.6
-1.3613516140489672
% es.tEY (V/m) @ t=0.6
0
% es.tEZ (V/m) @ t=0.6
-0.34700235746000097
% es.Ex (V/m) @ t=0.6
-1.361351614048969
% es.Ey (V/m) @ t=0.6
0.10489369229797801
% es.Ez (V/m) @ t=0.6
-0.3470023574600023
% es.tEx (V/m) @ t=0.6
-1.3613516140489672
% es.tEy (V/m) @ t=0.6
0
% es.tEz (V/m) @ t=0.6
-0.34700235746000097
% V (V) @ t=0.6
0.008164358396844186
% es.normE (V/m) @ t=0.62
1.422334825826693
% es.EX (V/m) @ t=0.62
-1.3743432127550266
% es.EY (V/m) @ t=0.62
0.10589339796874159
% es.EZ (V/m) @ t=0.62
-0.3503119903252083
% es.tEX (V/m) @ t=0.62
-1.3743432127550292
% es.tEY (V/m) @ t=0.62
0
% es.tEZ (V/m) @ t=0.62
-0.3503119903252081
% es.Ex (V/m) @ t=0.62
-1.3743432127550266
% es.Ey (V/m) @ t=0.62
0.10589339796874159
% es.Ez (V/m) @ t=0.62
-0.3503119903252083
% es.tEx (V/m) @ t=0.62
-1.3743432127550292
% es.tEy (V/m) @ t=0.62
0
% es.tEz (V/m) @ t=0.62
-0.3503119903252081
% V (V) @ t=0.62
0.0082422987459492
% es.normE (V/m) @ t=0.64
1.435779527247691
% es.EX (V/m) @ t=0.64
-1.3873348114611002
% es.EY (V/m) @ t=0.64
0.10689310363948223
% es.EZ (V/m) @ t=0.64
-0.35362162319039814
% es.tEX (V/m) @ t=0.64
-1.3873348114610966
% es.tEY (V/m) @ t=0.64
0
% es.tEZ (V/m) @ t=0.64
-0.35362162319039925
% es.Ex (V/m) @ t=0.64
-1.3873348114611002
% es.Ey (V/m) @ t=0.64
0.10689310363948223
% es.Ez (V/m) @ t=0.64
-0.35362162319039814
% es.tEx (V/m) @ t=0.64
-1.3873348114610966
% es.tEy (V/m) @ t=0.64
0
% es.tEz (V/m) @ t=0.64
-0.35362162319039925
% V (V) @ t=0.64
0.008320239095054216
% es.normE (V/m) @ t=0.66
1.4492242286722337
% es.EX (V/m) @ t=0.66
-1.4003264101671622
% es.EY (V/m) @ t=0.66
0.10789280931025291
% es.EZ (V/m) @ t=0.66
-0.35693125605561393
% es.tEX (V/m) @ t=0.66
-1.4003264101671657
% es.tEY (V/m) @ t=0.66
0
% es.tEZ (V/m) @ t=0.66
-0.35693125605561526
% es.Ex (V/m) @ t=0.66
-1.4003264101671622
% es.Ey (V/m) @ t=0.66
0.10789280931025291
% es.Ez (V/m) @ t=0.66
-0.35693125605561393
% es.tEx (V/m) @ t=0.66
-1.4003264101671657
% es.tEy (V/m) @ t=0.66
0
% es.tEz (V/m) @ t=0.66
-0.35693125605561526
% V (V) @ t=0.66
0.008398179444159232
% es.normE (V/m) @ t=0.68
1.462668930100223
% es.EX (V/m) @ t=0.68
-1.4133180088732296
% es.EY (V/m) @ t=0.68
0.1088925149810005
% es.EZ (V/m) @ t=0.68
-0.36024088892080575
% es.tEX (V/m) @ t=0.68
-1.4133180088732278
% es.tEY (V/m) @ t=0.68
0
% es.tEZ (V/m) @ t=0.68
-0.3602408889208082
% es.Ex (V/m) @ t=0.68
-1.4133180088732296
% es.Ey (V/m) @ t=0.68
0.1088925149810005
% es.Ez (V/m) @ t=0.68
-0.36024088892080575
% es.tEx (V/m) @ t=0.68
-1.4133180088732278
% es.tEy (V/m) @ t=0.68
0
% es.tEz (V/m) @ t=0.68
-0.3602408889208082
% V (V) @ t=0.68
0.00847611979326425
% es.normE (V/m) @ t=0.7
1.4761136315315717
% es.EX (V/m) @ t=0.7
-1.4263096075793005
% es.EY (V/m) @ t=0.7
0.10989222065175525
% es.EZ (V/m) @ t=0.7
-0.3635505217860002
% es.tEX (V/m) @ t=0.7
-1.426309607579288
% es.tEY (V/m) @ t=0.7
0
% es.tEZ (V/m) @ t=0.7
-0.363550521785994
% es.Ex (V/m) @ t=0.7
-1.4263096075793005
% es.Ey (V/m) @ t=0.7
0.10989222065175525
% es.Ez (V/m) @ t=0.7
-0.3635505217860002
% es.tEx (V/m) @ t=0.7
-1.426309607579288
% es.tEy (V/m) @ t=0.7
0
% es.tEz (V/m) @ t=0.7
-0.363550521785994
% V (V) @ t=0.7
0.008554060142369266
% es.normE (V/m) @ t=0.72
1.4895583329661581
% es.EX (V/m) @ t=0.72
-1.4393012062853394
% es.EY (V/m) @ t=0.72
0.11089192632251704
% es.EZ (V/m) @ t=0.72
-0.3668601546512107
% es.tEX (V/m) @ t=0.72
-1.4393012062853412
% es.tEY (V/m) @ t=0.72
0
% es.tEZ (V/m) @ t=0.72
-0.36686015465121
% es.Ex (V/m) @ t=0.72
-1.4393012062853394
% es.Ey (V/m) @ t=0.72
0.11089192632251704
% es.Ez (V/m) @ t=0.72
-0.3668601546512107
% es.tEx (V/m) @ t=0.72
-1.4393012062853412
% es.tEy (V/m) @ t=0.72
0
% es.tEz (V/m) @ t=0.72
-0.36686015465121
% V (V) @ t=0.72
0.008632000491474282
% es.normE (V/m) @ t=0.74
1.5030030344039549
% es.EX (V/m) @ t=0.74
-1.4522928049914192
% es.EY (V/m) @ t=0.74
0.11189163199325758
% es.EZ (V/m) @ t=0.74
-0.3701697875164036
% es.tEX (V/m) @ t=0.74
-1.4522928049914263
% es.tEY (V/m) @ t=0.74
0
% es.tEZ (V/m) @ t=0.74
-0.37016978751639407
% es.Ex (V/m) @ t=0.74
-1.4522928049914192
% es.Ey (V/m) @ t=0.74
0.11189163199325758
% es.Ez (V/m) @ t=0.74
-0.3701697875164036
% es.tEx (V/m) @ t=0.74
-1.4522928049914263
% es.tEy (V/m) @ t=0.74
0
% es.tEz (V/m) @ t=0.74
-0.37016978751639407
% V (V) @ t=0.74
0.008709940840579298
% es.normE (V/m) @ t=0.76
1.516447735844836
% es.EX (V/m) @ t=0.76
-1.4652844036974866
% es.EY (V/m) @ t=0.76
0.1128913376640096
% es.EZ (V/m) @ t=0.76
-0.3734794203816114
% es.tEX (V/m) @ t=0.76
-1.4652844036974866
% es.tEY (V/m) @ t=0.76
0
% es.tEZ (V/m) @ t=0.76
-0.3734794203816083
% es.Ex (V/m) @ t=0.76
-1.4652844036974866
% es.Ey (V/m) @ t=0.76
0.1128913376640096
% es.Ez (V/m) @ t=0.76
-0.3734794203816114
% es.tEx (V/m) @ t=0.76
-1.4652844036974866
% es.tEy (V/m) @ t=0.76
0
% es.tEz (V/m) @ t=0.76
-0.3734794203816083
% V (V) @ t=0.76
0.008787881189684314
% es.normE (V/m) @ t=0.78
1.5298924372887353
% es.EX (V/m) @ t=0.78
-1.478276002403562
% es.EY (V/m) @ t=0.78
0.11389104333477057
% es.EZ (V/m) @ t=0.78
-0.37678905324681655
% es.tEX (V/m) @ t=0.78
-1.478276002403561
% es.tEY (V/m) @ t=0.78
0
% es.tEZ (V/m) @ t=0.78
-0.37678905324680834
% es.Ex (V/m) @ t=0.78
-1.478276002403562
% es.Ey (V/m) @ t=0.78
0.11389104333477057
% es.Ez (V/m) @ t=0.78
-0.37678905324681655
% es.tEx (V/m) @ t=0.78
-1.478276002403561
% es.tEy (V/m) @ t=0.78
0
% es.tEz (V/m) @ t=0.78
-0.37678905324680834
% V (V) @ t=0.78
0.00886582153878933
% es.normE (V/m) @ t=0.8
1.543337138735549
% es.EX (V/m) @ t=0.8
-1.491267601109623
% es.EY (V/m) @ t=0.8
0.11489074900552881
% es.EZ (V/m) @ t=0.8
-0.38009868611200925
% es.tEX (V/m) @ t=0.8
-1.4912676011096178
% es.tEY (V/m) @ t=0.8
0
% es.tEZ (V/m) @ t=0.8
-0.38009868611200837
% es.Ex (V/m) @ t=0.8
-1.491267601109623
% es.Ey (V/m) @ t=0.8
0.11489074900552881
% es.Ez (V/m) @ t=0.8
-0.38009868611200925
% es.tEx (V/m) @ t=0.8
-1.4912676011096178
% es.tEy (V/m) @ t=0.8
0
% es.tEz (V/m) @ t=0.8
-0.38009868611200837
% V (V) @ t=0.8
0.008943761887894346
% es.normE (V/m) @ t=0.82
1.5567818401852107
% es.EX (V/m) @ t=0.82
-1.5042591998156718
% es.EY (V/m) @ t=0.82
0.11589045467627829
% es.EZ (V/m) @ t=0.82
-0.3834083189772177
% es.tEX (V/m) @ t=0.82
-1.5042591998156851
% es.tEY (V/m) @ t=0.82
0
% es.tEZ (V/m) @ t=0.82
-0.3834083189772084
% es.Ex (V/m) @ t=0.82
-1.5042591998156718
% es.Ey (V/m) @ t=0.82
0.11589045467627829
% es.Ez (V/m) @ t=0.82
-0.3834083189772177
% es.tEx (V/m) @ t=0.82
-1.5042591998156851
% es.tEy (V/m) @ t=0.82
0
% es.tEz (V/m) @ t=0.82
-0.3834083189772084
% V (V) @ t=0.82
0.009021702236999362
% es.normE (V/m) @ t=0.84
1.5717153059306388
% es.EX (V/m) @ t=0.84
-1.5186883736954906
% es.EY (V/m) @ t=0.84
0.11700322341995262
% es.EZ (V/m) @ t=0.84
-0.38708765078003804
% es.tEX (V/m) @ t=0.84
-1.5186883736955092
% es.tEY (V/m) @ t=0.84
0
% es.tEZ (V/m) @ t=0.84
-0.3870876507800336
% es.Ex (V/m) @ t=0.84
-1.5186883736954906
% es.Ey (V/m) @ t=0.84
0.11700322341995262
% es.Ez (V/m) @ t=0.84
-0.38708765078003804
% es.tEx (V/m) @ t=0.84
-1.5186883736955092
% es.tEy (V/m) @ t=0.84
0
% es.tEz (V/m) @ t=0.84
-0.3870876507800336
% V (V) @ t=0.84
0.009108217586608833
% es.normE (V/m) @ t=0.86
1.5867558145567537
% es.EX (V/m) @ t=0.86
-1.5332209099302307
% es.EY (V/m) @ t=0.86
0.11812412145359907
% es.EZ (V/m) @ t=0.86
-0.3907935641164495
% es.tEX (V/m) @ t=0.86
-1.5332209099302112
% es.tEY (V/m) @ t=0.86
0
% es.tEZ (V/m) @ t=0.86
-0.3907935641164464
% es.Ex (V/m) @ t=0.86
-1.5332209099302307
% es.Ey (V/m) @ t=0.86
0.11812412145359907
% es.Ez (V/m) @ t=0.86
-0.3907935641164495
% es.tEx (V/m) @ t=0.86
-1.5332209099302112
% es.tEy (V/m) @ t=0.86
0
% es.tEz (V/m) @ t=0.86
-0.3907935641164464
% V (V) @ t=0.86
0.009195349482929214
% es.normE (V/m) @ t=0.88
1.6017963231859207
% es.EX (V/m) @ t=0.88
-1.5477534461649167
% es.EY (V/m) @ t=0.88
0.11924501948723848
% es.EZ (V/m) @ t=0.88
-0.3944994774528636
% es.tEX (V/m) @ t=0.88
-1.547753446164915
% es.tEY (V/m) @ t=0.88
0
% es.tEZ (V/m) @ t=0.88
-0.39449947745286273
% es.Ex (V/m) @ t=0.88
-1.5477534461649167
% es.Ey (V/m) @ t=0.88
0.11924501948723848
% es.Ez (V/m) @ t=0.88
-0.3944994774528636
% es.tEx (V/m) @ t=0.88
-1.547753446164915
% es.tEy (V/m) @ t=0.88
0
% es.tEz (V/m) @ t=0.88
-0.39449947745286273
% V (V) @ t=0.88
0.009282481379249594
% es.normE (V/m) @ t=0.9
1.6168368318181052
% es.EX (V/m) @ t=0.9
-1.562285982399601
% es.EY (V/m) @ t=0.9
0.12036591752088055
% es.EZ (V/m) @ t=0.9
-0.3982053907892822
% es.tEX (V/m) @ t=0.9
-1.5622859823995832
% es.tEY (V/m) @ t=0.9
0
% es.tEZ (V/m) @ t=0.9
-0.398205390789272
% es.Ex (V/m) @ t=0.9
-1.562285982399601
% es.Ey (V/m) @ t=0.9
0.12036591752088055
% es.Ez (V/m) @ t=0.9
-0.3982053907892822
% es.tEx (V/m) @ t=0.9
-1.5622859823995832
% es.tEy (V/m) @ t=0.9
0
% es.tEz (V/m) @ t=0.9
-0.398205390789272
% V (V) @ t=0.9
0.009369613275569972
% es.normE (V/m) @ t=0.92
1.631877340453228
% es.EX (V/m) @ t=0.92
-1.576818518634287
% es.EY (V/m) @ t=0.92
0.12148681555454566
% es.EZ (V/m) @ t=0.92
-0.40191130412570164
% es.tEX (V/m) @ t=0.92
-1.5768185186342958
% es.tEY (V/m) @ t=0.92
0
% es.tEZ (V/m) @ t=0.92
-0.40191130412570253
% es.Ex (V/m) @ t=0.92
-1.576818518634287
% es.Ey (V/m) @ t=0.92
0.12148681555454566
% es.Ez (V/m) @ t=0.92
-0.40191130412570164
% es.tEx (V/m) @ t=0.92
-1.5768185186342958
% es.tEy (V/m) @ t=0.92
0
% es.tEz (V/m) @ t=0.92
-0.40191130412570253
% V (V) @ t=0.92
0.009456745171890352
% es.normE (V/m) @ t=0.94
1.6469178490912224
% es.EX (V/m) @ t=0.94
-1.5913510548689977
% es.EY (V/m) @ t=0.94
0.12260771358817257
% es.EZ (V/m) @ t=0.94
-0.4056172174621069
% es.tEX (V/m) @ t=0.94
-1.5913510548689729
% es.tEY (V/m) @ t=0.94
0
% es.tEZ (V/m) @ t=0.94
-0.40561721746211
% es.Ex (V/m) @ t=0.94
-1.5913510548689977
% es.Ey (V/m) @ t=0.94
0.12260771358817257
% es.Ez (V/m) @ t=0.94
-0.4056172174621069
% es.tEx (V/m) @ t=0.94
-1.5913510548689729
% es.tEy (V/m) @ t=0.94
0
% es.tEz (V/m) @ t=0.94
-0.40561721746211
% V (V) @ t=0.94
0.009543877068210733
% es.normE (V/m) @ t=0.96
1.6619583577319517
% es.EX (V/m) @ t=0.96
-1.6058835911036553
% es.EY (V/m) @ t=0.96
0.12372861162186077
% es.EZ (V/m) @ t=0.96
-0.40932313079853255
% es.tEX (V/m) @ t=0.96
-1.6058835911036677
% es.tEY (V/m) @ t=0.96
0
% es.tEZ (V/m) @ t=0.96
-0.4093231307985281
% es.Ex (V/m) @ t=0.96
-1.6058835911036553
% es.Ey (V/m) @ t=0.96
0.12372861162186077
% es.Ez (V/m) @ t=0.96
-0.40932313079853255
% es.tEx (V/m) @ t=0.96
-1.6058835911036677
% es.tEy (V/m) @ t=0.96
0
% es.tEz (V/m) @ t=0.96
-0.4093231307985281
% V (V) @ t=0.96
0.009631008964531111
% es.normE (V/m) @ t=0.98
1.6769988663754152
% es.EX (V/m) @ t=0.98
-1.6204161273383564
% es.EY (V/m) @ t=0.98
0.12484950965549924
% es.EZ (V/m) @ t=0.98
-0.413029044134936
% es.tEX (V/m) @ t=0.98
-1.6204161273383537
% es.tEY (V/m) @ t=0.98
0
% es.tEZ (V/m) @ t=0.98
-0.4130290441349338
% es.Ex (V/m) @ t=0.98
-1.6204161273383564
% es.Ey (V/m) @ t=0.98
0.12484950965549924
% es.Ez (V/m) @ t=0.98
-0.413029044134936
% es.tEx (V/m) @ t=0.98
-1.6204161273383537
% es.tEy (V/m) @ t=0.98
0
% es.tEz (V/m) @ t=0.98
-0.4130290441349338
% V (V) @ t=0.98
0.009718140860851491
% es.normE (V/m) @ t=1
1.6920393750215084
% es.EX (V/m) @ t=1
-1.6349486635730512
% es.EY (V/m) @ t=1
0.12597040768913237
% es.EZ (V/m) @ t=1
-0.41673495747136347
% es.tEX (V/m) @ t=1
-1.6349486635730575
% es.tEY (V/m) @ t=1
0
% es.tEZ (V/m) @ t=1
-0.41673495747136613
% es.Ex (V/m) @ t=1
-1.6349486635730512
% es.Ey (V/m) @ t=1
0.12597040768913237
% es.Ez (V/m) @ t=1
-0.41673495747136347
% es.tEx (V/m) @ t=1
-1.6349486635730575
% es.tEy (V/m) @ t=1
0
% es.tEz (V/m) @ t=1
-0.41673495747136613
% V (V) @ t=1
0.00980527275717187
% es.normE (V/m) @ t=1.02
1.7070798836701522
% es.EX (V/m) @ t=1.02
-1.6494811998077372
% es.EY (V/m) @ t=1.02
0.1270913057227806
% es.EZ (V/m) @ t=1.02
-0.4204408708077829
% es.tEX (V/m) @ t=1.02
-1.6494811998077274
% es.tEY (V/m) @ t=1.02
0
% es.tEZ (V/m) @ t=1.02
-0.4204408708077736
% es.Ex (V/m) @ t=1.02
-1.6494811998077372
% es.Ey (V/m) @ t=1.02
0.1270913057227806
% es.Ez (V/m) @ t=1.02
-0.4204408708077829
% es.tEx (V/m) @ t=1.02
-1.6494811998077274
% es.tEy (V/m) @ t=1.02
0