% Model:              1 neuron.mph
% Version:            COMSOL 6.0.0.405
% Date:               Mar 9 2023, 14:23
% Dimension:          0
% Nodes:              14017
% Expressions:        14017
% Description:        Electric field norm, Electric field, X component, Electric field, Y component, Electric field, Z component, Tangential electric field, X component, Tangential electric field, Y component, Tangential electric field, Z component, Electric field, x component, Electric field, y component, Electric field, z component, Tangential electric field, x component, Tangential electric field, y component, Tangential electric field, z component, Electric potential
% Length unit:        mm
% x
2
% y
12.199999999999998
% z
2
% es.normE (V/m) @ t=0
0.7407680208115448
% es.EX (V/m) @ t=0
-0.5303211845167805
% es.EY (V/m) @ t=0
0.20196493024531192
% es.EZ (V/m) @ t=0
-0.47323146822884254
% es.tEX (V/m) @ t=0
-0.530321184516779
% es.tEY (V/m) @ t=0
0
% es.tEZ (V/m) @ t=0
-0.47323146822884343
% es.Ex (V/m) @ t=0
-0.5303211845167805
% es.Ey (V/m) @ t=0
0.20196493024531192
% es.Ez (V/m) @ t=0
-0.47323146822884254
% es.tEx (V/m) @ t=0
-0.530321184516779
% es.tEy (V/m) @ t=0
0
% es.tEz (V/m) @ t=0
-0.47323146822884343
% V (V) @ t=0
0.007538642687384664
% es.normE (V/m) @ t=0.02
0.6398153165873872
% es.EX (V/m) @ t=0.02
-0.4580484133775007
% es.EY (V/m) @ t=0.02
0.1744409218725076
% es.EZ (V/m) @ t=0.02
-0.4087389476439056
% es.tEX (V/m) @ t=0.02
-0.45804841337750424
% es.tEY (V/m) @ t=0.02
0
% es.tEZ (V/m) @ t=0.02
-0.40873894764390517
% es.Ex (V/m) @ t=0.02
-0.4580484133775007
% es.Ey (V/m) @ t=0.02
0.1744409218725076
% es.Ez (V/m) @ t=0.02
-0.4087389476439056
% es.tEx (V/m) @ t=0.02
-0.45804841337750424
% es.tEy (V/m) @ t=0.02
0
% es.tEz (V/m) @ t=0.02
-0.40873894764390517
% V (V) @ t=0.02
0.006511267884335662
% es.normE (V/m) @ t=0.04
0.645700273007737
% es.EX (V/m) @ t=0.04
-0.4622614963094859
% es.EY (V/m) @ t=0.04
0.17604541255725037
% es.EZ (V/m) @ t=0.04
-0.41249848659061206
% es.tEX (V/m) @ t=0.04
-0.46226149630948266
% es.tEY (V/m) @ t=0.04
0
% es.tEZ (V/m) @ t=0.04
-0.4124984865906107
% es.Ex (V/m) @ t=0.04
-0.4622614963094859
% es.Ey (V/m) @ t=0.04
0.17604541255725037
% es.Ez (V/m) @ t=0.04
-0.41249848659061206
% es.tEx (V/m) @ t=0.04
-0.46226149630948266
% es.tEy (V/m) @ t=0.04
0
% es.tEz (V/m) @ t=0.04
-0.4124984865906107
% V (V) @ t=0.04
0.006571157826100469
% es.normE (V/m) @ t=0.06
0.6516374363251187
% es.EX (V/m) @ t=0.06
-0.4665119544585625
% es.EY (V/m) @ t=0.06
0.17766413611855958
% es.EZ (V/m) @ t=0.06
-0.41629137790422455
% es.tEX (V/m) @ t=0.06
-0.4665119544585612
% es.tEY (V/m) @ t=0.06
0
% es.tEZ (V/m) @ t=0.06
-0.4162913779042263
% es.Ex (V/m) @ t=0.06
-0.4665119544585625
% es.Ey (V/m) @ t=0.06
0.17766413611855958
% es.Ez (V/m) @ t=0.06
-0.41629137790422455
% es.tEx (V/m) @ t=0.06
-0.4665119544585612
% es.tEy (V/m) @ t=0.06
0
% es.tEz (V/m) @ t=0.06
-0.4162913779042263
% V (V) @ t=0.06
0.006631579116646557
% es.normE (V/m) @ t=0.08
0.6576672128156331
% es.EX (V/m) @ t=0.08
-0.47082871509456237
% es.EY (V/m) @ t=0.08
0.17930811049748452
% es.EZ (V/m) @ t=0.08
-0.4201434338060861
% es.tEX (V/m) @ t=0.08
-0.47082871509456137
% es.tEY (V/m) @ t=0.08
0
% es.tEZ (V/m) @ t=0.08
-0.42014343380609454
% es.Ex (V/m) @ t=0.08
-0.47082871509456237
% es.Ey (V/m) @ t=0.08
0.17930811049748452
% es.Ez (V/m) @ t=0.08
-0.4201434338060861
% es.tEx (V/m) @ t=0.08
-0.47082871509456137
% es.tEy (V/m) @ t=0.08
0
% es.tEz (V/m) @ t=0.08
-0.42014343380609454
% V (V) @ t=0.08
0.0066929428847455905
% es.normE (V/m) @ t=0.1
0.663757248806042
% es.EX (V/m) @ t=0.1
-0.4751886159725889
% es.EY (V/m) @ t=0.1
0.18096851452231322
% es.EZ (V/m) @ t=0.1
-0.42403398561926586
% es.tEX (V/m) @ t=0.1
-0.4751886159725862
% es.tEY (V/m) @ t=0.1
0
% es.tEZ (V/m) @ t=0.1
-0.42403398561926764
% es.Ex (V/m) @ t=0.1
-0.4751886159725889
% es.Ey (V/m) @ t=0.1
0.18096851452231322
% es.Ez (V/m) @ t=0.1
-0.42403398561926586
% es.tEx (V/m) @ t=0.1
-0.4751886159725862
% es.tEy (V/m) @ t=0.1
0
% es.tEz (V/m) @ t=0.1
-0.42403398561926764
% V (V) @ t=0.1
0.006754919883382672
% es.normE (V/m) @ t=0.12
0.6698472847964493
% es.EX (V/m) @ t=0.12
-0.4795485168506092
% es.EY (V/m) @ t=0.12
0.18262891854714036
% es.EZ (V/m) @ t=0.12
-0.4279245374324496
% es.tEX (V/m) @ t=0.12
-0.4795485168506064
% es.tEY (V/m) @ t=0.12
0
% es.tEZ (V/m) @ t=0.12
-0.42792453743245495
% es.Ex (V/m) @ t=0.12
-0.4795485168506092
% es.Ey (V/m) @ t=0.12
0.18262891854714036
% es.Ez (V/m) @ t=0.12
-0.4279245374324496
% es.tEx (V/m) @ t=0.12
-0.4795485168506064
% es.tEy (V/m) @ t=0.12
0
% es.tEz (V/m) @ t=0.12
-0.42792453743245495
% V (V) @ t=0.12
0.006816896882019755
% es.normE (V/m) @ t=0.14
0.6760089656675234
% es.EX (V/m) @ t=0.14
-0.4839597087801252
% es.EY (V/m) @ t=0.14
0.18430885561560295
% es.EZ (V/m) @ t=0.14
-0.43186085903166926
% es.tEX (V/m) @ t=0.14
-0.4839597087801224
% es.tEY (V/m) @ t=0.14
0
% es.tEZ (V/m) @ t=0.14
-0.43186085903167193
% es.Ex (V/m) @ t=0.14
-0.4839597087801252
% es.Ey (V/m) @ t=0.14
0.18430885561560295
% es.Ez (V/m) @ t=0.14
-0.43186085903166926
% es.tEx (V/m) @ t=0.14
-0.4839597087801224
% es.tEy (V/m) @ t=0.14
0
% es.tEz (V/m) @ t=0.14
-0.43186085903167193
% V (V) @ t=0.14
0.006879603016592366
% es.normE (V/m) @ t=0.16
0.6824223776356226
% es.EX (V/m) @ t=0.16
-0.48855111669351425
% es.EY (V/m) @ t=0.16
0.18605742388919722
% es.EZ (V/m) @ t=0.16
-0.4359579971239085
% es.tEX (V/m) @ t=0.16
-0.4885511166935148
% es.tEY (V/m) @ t=0.16
0
% es.tEZ (V/m) @ t=0.16
-0.43595799712391425
% es.Ex (V/m) @ t=0.16
-0.48855111669351425
% es.Ey (V/m) @ t=0.16
0.18605742388919722
% es.Ez (V/m) @ t=0.16
-0.4359579971239085
% es.tEx (V/m) @ t=0.16
-0.4885511166935148
% es.tEy (V/m) @ t=0.16
0
% es.tEz (V/m) @ t=0.16
-0.43595799712391425
% V (V) @ t=0.16
0.006944871039568459
% es.normE (V/m) @ t=0.18
0.6888357896037216
% es.EX (V/m) @ t=0.18
-0.49314252460690844
% es.EY (V/m) @ t=0.18
0.18780599216278215
% es.EZ (V/m) @ t=0.18
-0.44005513521614503
% es.tEX (V/m) @ t=0.18
-0.4931425246069079
% es.tEY (V/m) @ t=0.18
0
% es.tEZ (V/m) @ t=0.18
-0.4400551352161477
% es.Ex (V/m) @ t=0.18
-0.49314252460690844
% es.Ey (V/m) @ t=0.18
0.18780599216278215
% es.Ez (V/m) @ t=0.18
-0.44005513521614503
% es.tEx (V/m) @ t=0.18
-0.4931425246069079
% es.tEy (V/m) @ t=0.18
0
% es.tEz (V/m) @ t=0.18
-0.4400551352161477
% V (V) @ t=0.18
0.007010139062544554
% es.normE (V/m) @ t=0.2
0.6952492015718292
% es.EX (V/m) @ t=0.2
-0.4977339325203075
% es.EY (V/m) @ t=0.2
0.18955456043637775
% es.EZ (V/m) @ t=0.2
-0.4441522733083856
% es.tEX (V/m) @ t=0.2
-0.4977339325203056
% es.tEY (V/m) @ t=0.2
0
% es.tEZ (V/m) @ t=0.2
-0.4441522733083829
% es.Ex (V/m) @ t=0.2
-0.4977339325203075
% es.Ey (V/m) @ t=0.2
0.18955456043637775
% es.Ez (V/m) @ t=0.2
-0.4441522733083856
% es.tEx (V/m) @ t=0.2
-0.4977339325203056
% es.tEy (V/m) @ t=0.2
0
% es.tEz (V/m) @ t=0.2
-0.4441522733083829
% V (V) @ t=0.2
0.007075407085520649
% es.normE (V/m) @ t=0.22
0.7016626135399232
% es.EX (V/m) @ t=0.22
-0.502325340433699
% es.EY (V/m) @ t=0.22
0.1913031287099738
% es.EZ (V/m) @ t=0.22
-0.4482494114006137
% es.tEX (V/m) @ t=0.22
-0.502325340433696
% es.tEY (V/m) @ t=0.22
0
% es.tEZ (V/m) @ t=0.22
-0.4482494114006137
% es.Ex (V/m) @ t=0.22
-0.502325340433699
% es.Ey (V/m) @ t=0.22
0.1913031287099738
% es.Ez (V/m) @ t=0.22
-0.4482494114006137
% es.tEx (V/m) @ t=0.22
-0.502325340433696
% es.tEy (V/m) @ t=0.22
0
% es.tEz (V/m) @ t=0.22
-0.4482494114006137
% V (V) @ t=0.22
0.007140675108496744
% es.normE (V/m) @ t=0.24
0.7080760255080305
% es.EX (V/m) @ t=0.24
-0.5069167483470972
% es.EY (V/m) @ t=0.24
0.1930516969835685
% es.EZ (V/m) @ t=0.24
-0.45234654949285424
% es.tEX (V/m) @ t=0.24
-0.5069167483470971
% es.tEY (V/m) @ t=0.24
0
% es.tEZ (V/m) @ t=0.24
-0.45234654949285247
% es.Ex (V/m) @ t=0.24
-0.5069167483470972
% es.Ey (V/m) @ t=0.24
0.1930516969835685
% es.Ez (V/m) @ t=0.24
-0.45234654949285424
% es.tEx (V/m) @ t=0.24
-0.5069167483470971
% es.tEy (V/m) @ t=0.24
0
% es.tEz (V/m) @ t=0.24
-0.45234654949285247
% V (V) @ t=0.24
0.007205943131472839
% es.normE (V/m) @ t=0.26
0.7144894374761275
% es.EX (V/m) @ t=0.26
-0.5115081562604861
% es.EY (V/m) @ t=0.26
0.1948002652571572
% es.EZ (V/m) @ t=0.26
-0.45644368758509213
% es.tEX (V/m) @ t=0.26
-0.5115081562604851
% es.tEY (V/m) @ t=0.26
0
% es.tEZ (V/m) @ t=0.26
-0.4564436875850939
% es.Ex (V/m) @ t=0.26
-0.5115081562604861
% es.Ey (V/m) @ t=0.26
0.1948002652571572
% es.Ez (V/m) @ t=0.26
-0.45644368758509213
% es.tEx (V/m) @ t=0.26
-0.5115081562604851
% es.tEy (V/m) @ t=0.26
0
% es.tEz (V/m) @ t=0.26
-0.4564436875850939
% V (V) @ t=0.26
0.0072712111544489325
% es.normE (V/m) @ t=0.28
0.7212322761496615
% es.EX (V/m) @ t=0.28
-0.5163353957017348
% es.EY (V/m) @ t=0.28
0.1966385672824389
% es.EZ (V/m) @ t=0.28
-0.4607513260667879
% es.tEX (V/m) @ t=0.28
-0.5163353957017356
% es.tEY (V/m) @ t=0.28
0
% es.tEZ (V/m) @ t=0.28
-0.46075132606679237
% es.Ex (V/m) @ t=0.28
-0.5163353957017348
% es.Ey (V/m) @ t=0.28
0.1966385672824389
% es.Ez (V/m) @ t=0.28
-0.4607513260667879
% es.tEx (V/m) @ t=0.28
-0.5163353957017356
% es.tEy (V/m) @ t=0.28
0
% es.tEz (V/m) @ t=0.28
-0.46075132606679237
% V (V) @ t=0.28
0.007339835889466269
% es.normE (V/m) @ t=0.3
0.7283728663017173
% es.EX (V/m) @ t=0.3
-0.5214473793283584
% es.EY (V/m) @ t=0.3
0.1985852142955633
% es.EZ (V/m) @ t=0.3
-0.4653131237885759
% es.tEX (V/m) @ t=0.3
-0.5214473793283574
% es.tEY (V/m) @ t=0.3
0
% es.tEZ (V/m) @ t=0.3
-0.4653131237885777
% es.Ex (V/m) @ t=0.3
-0.5214473793283584
% es.Ey (V/m) @ t=0.3
0.1985852142955633
% es.Ez (V/m) @ t=0.3
-0.4653131237885759
% es.tEx (V/m) @ t=0.3
-0.5214473793283574
% es.tEy (V/m) @ t=0.3
0
% es.tEz (V/m) @ t=0.3
-0.4653131237885777
% V (V) @ t=0.3
0.007412513535662837
% es.normE (V/m) @ t=0.32
0.7355134564538638
% es.EX (V/m) @ t=0.32
-0.5265593629549811
% es.EY (V/m) @ t=0.32
0.2005318613086946
% es.EZ (V/m) @ t=0.32
-0.46987492151037635
% es.tEX (V/m) @ t=0.32
-0.526559362954981
% es.tEY (V/m) @ t=0.32
0
% es.tEZ (V/m) @ t=0.32
-0.4698749215103746
% es.Ex (V/m) @ t=0.32
-0.5265593629549811
% es.Ey (V/m) @ t=0.32
0.2005318613086946
% es.Ez (V/m) @ t=0.32
-0.46987492151037635
% es.tEx (V/m) @ t=0.32
-0.526559362954981
% es.tEy (V/m) @ t=0.32
0
% es.tEz (V/m) @ t=0.32
-0.4698749215103746
% V (V) @ t=0.32
0.007485191181859405
% es.normE (V/m) @ t=0.34
0.7426540466060771
% es.EX (V/m) @ t=0.34
-0.5316713465815918
% es.EY (V/m) @ t=0.34
0.20247850832182102
% es.EZ (V/m) @ t=0.34
-0.4744367192321719
% es.tEX (V/m) @ t=0.34
-0.531671346581589
% es.tEY (V/m) @ t=0.34
0
% es.tEZ (V/m) @ t=0.34
-0.474436719232175
% es.Ex (V/m) @ t=0.34
-0.5316713465815918
% es.Ey (V/m) @ t=0.34
0.20247850832182102
% es.Ez (V/m) @ t=0.34
-0.4744367192321719
% es.tEx (V/m) @ t=0.34
-0.531671346581589
% es.tEy (V/m) @ t=0.34
0
% es.tEz (V/m) @ t=0.34
-0.474436719232175
% V (V) @ t=0.34
0.007557868828055973
% es.normE (V/m) @ t=0.36
0.7497946367583777
% es.EX (V/m) @ t=0.36
-0.5367833302082107
% es.EY (V/m) @ t=0.36
0.2044251553349501
% es.EZ (V/m) @ t=0.36
-0.47899851695397455
% es.tEX (V/m) @ t=0.36
-0.5367833302082101
% es.tEY (V/m) @ t=0.36
0
% es.tEZ (V/m) @ t=0.36
-0.4789985169539781
% es.Ex (V/m) @ t=0.36
-0.5367833302082107
% es.Ey (V/m) @ t=0.36
0.2044251553349501
% es.Ez (V/m) @ t=0.36
-0.47899851695397455
% es.tEx (V/m) @ t=0.36
-0.5367833302082101
% es.tEy (V/m) @ t=0.36
0
% es.tEz (V/m) @ t=0.36
-0.4789985169539781
% V (V) @ t=0.36
0.007630546474252541
% es.normE (V/m) @ t=0.38
0.7569352269107467
% es.EX (V/m) @ t=0.38
-0.5418953138348309
% es.EY (V/m) @ t=0.38
0.20637180234808672
% es.EZ (V/m) @ t=0.38
-0.48356031467576077
% es.tEX (V/m) @ t=0.38
-0.5418953138348321
% es.tEY (V/m) @ t=0.38
0
% es.tEZ (V/m) @ t=0.38
-0.4835603146757643
% es.Ex (V/m) @ t=0.38
-0.5418953138348309
% es.Ey (V/m) @ t=0.38
0.20637180234808672
% es.Ez (V/m) @ t=0.38
-0.48356031467576077
% es.tEx (V/m) @ t=0.38
-0.5418953138348321
% es.tEy (V/m) @ t=0.38
0
% es.tEz (V/m) @ t=0.38
-0.4835603146757643
% V (V) @ t=0.38
0.007703224120449108
% es.normE (V/m) @ t=0.4
0.7640758170631897
% es.EX (V/m) @ t=0.4
-0.5470072974614458
% es.EY (V/m) @ t=0.4
0.2083184493612169
% es.EZ (V/m) @ t=0.4
-0.4881221123975594
% es.tEX (V/m) @ t=0.4
-0.5470072974614448
% es.tEY (V/m) @ t=0.4
0
% es.tEZ (V/m) @ t=0.4
-0.4881221123975612
% es.Ex (V/m) @ t=0.4
-0.5470072974614458
% es.Ey (V/m) @ t=0.4
0.2083184493612169
% es.Ez (V/m) @ t=0.4
-0.4881221123975594
% es.tEx (V/m) @ t=0.4
-0.5470072974614448
% es.tEy (V/m) @ t=0.4
0
% es.tEz (V/m) @ t=0.4
-0.4881221123975612
% V (V) @ t=0.4
0.0077759017666456775
% es.normE (V/m) @ t=0.42
0.7712164072157018
% es.EX (V/m) @ t=0.42
-0.5521192810880612
% es.EY (V/m) @ t=0.42
0.21026509637434554
% es.EZ (V/m) @ t=0.42
-0.49268391011935453
% es.tEX (V/m) @ t=0.42
-0.5521192810880597
% es.tEY (V/m) @ t=0.42
0
% es.tEZ (V/m) @ t=0.42
-0.4926839101193563
% es.Ex (V/m) @ t=0.42
-0.5521192810880612
% es.Ey (V/m) @ t=0.42
0.21026509637434554
% es.Ez (V/m) @ t=0.42
-0.49268391011935453
% es.tEx (V/m) @ t=0.42
-0.5521192810880597
% es.tEy (V/m) @ t=0.42
0
% es.tEz (V/m) @ t=0.42
-0.4926839101193563
% V (V) @ t=0.42
0.007848579412842244
% es.normE (V/m) @ t=0.44
0.7783569973682855
% es.EX (V/m) @ t=0.44
-0.5572312647146868
% es.EY (V/m) @ t=0.44
0.21221174338747306
% es.EZ (V/m) @ t=0.44
-0.4972457078411434
% es.tEX (V/m) @ t=0.44
-0.5572312647146871
% es.tEY (V/m) @ t=0.44
0
% es.tEZ (V/m) @ t=0.44
-0.4972457078411461
% es.Ex (V/m) @ t=0.44
-0.5572312647146868
% es.Ey (V/m) @ t=0.44
0.21221174338747306
% es.Ez (V/m) @ t=0.44
-0.4972457078411434
% es.tEx (V/m) @ t=0.44
-0.5572312647146871
% es.tEy (V/m) @ t=0.44
0
% es.tEz (V/m) @ t=0.44
-0.4972457078411461
% V (V) @ t=0.44
0.007921257059038815
% es.normE (V/m) @ t=0.46
0.7854975875209311
% es.EX (V/m) @ t=0.46
-0.5623432483412963
% es.EY (V/m) @ t=0.46
0.21415839040060924
% es.EZ (V/m) @ t=0.46
-0.5018075055629398
% es.tEX (V/m) @ t=0.46
-0.5623432483412947
% es.tEY (V/m) @ t=0.46
0
% es.tEZ (V/m) @ t=0.46
-0.5018075055629359
% es.Ex (V/m) @ t=0.46
-0.5623432483412963
% es.Ey (V/m) @ t=0.46
0.21415839040060924
% es.Ez (V/m) @ t=0.46
-0.5018075055629398
% es.tEx (V/m) @ t=0.46
-0.5623432483412947
% es.tEy (V/m) @ t=0.46
0
% es.tEz (V/m) @ t=0.46
-0.5018075055629359
% V (V) @ t=0.46
0.00799393470523538
% es.normE (V/m) @ t=0.48
0.7926381776736504
% es.EX (V/m) @ t=0.48
-0.5674552319679259
% es.EY (V/m) @ t=0.48
0.216105037413729
% es.EZ (V/m) @ t=0.48
-0.506369303284735
% es.tEX (V/m) @ t=0.48
-0.5674552319679249
% es.tEY (V/m) @ t=0.48
0
% es.tEZ (V/m) @ t=0.48
-0.5063693032847381
% es.Ex (V/m) @ t=0.48
-0.5674552319679259
% es.Ey (V/m) @ t=0.48
0.216105037413729
% es.Ez (V/m) @ t=0.48
-0.506369303284735
% es.tEx (V/m) @ t=0.48
-0.5674552319679249
% es.tEy (V/m) @ t=0.48
0
% es.tEz (V/m) @ t=0.48
-0.5063693032847381
% V (V) @ t=0.48
0.00806661235143195
% es.normE (V/m) @ t=0.5
0.799778767826418
% es.EX (V/m) @ t=0.5
-0.5725672155945284
% es.EY (V/m) @ t=0.5
0.21805168442686185
% es.EZ (V/m) @ t=0.5
-0.5109311010065305
% es.tEX (V/m) @ t=0.5
-0.5725672155945309
% es.tEY (V/m) @ t=0.5
0
% es.tEZ (V/m) @ t=0.5
-0.510931101006542
% es.Ex (V/m) @ t=0.5
-0.5725672155945284
% es.Ey (V/m) @ t=0.5
0.21805168442686185
% es.Ez (V/m) @ t=0.5
-0.5109311010065305
% es.tEx (V/m) @ t=0.5
-0.5725672155945309
% es.tEy (V/m) @ t=0.5
0
% es.tEz (V/m) @ t=0.5
-0.510931101006542
% V (V) @ t=0.5
0.008139289997628517
% es.normE (V/m) @ t=0.52
0.8069193579792642
% es.EX (V/m) @ t=0.52
-0.577679199221154
% es.EY (V/m) @ t=0.52
0.21999833143999115
% es.EZ (V/m) @ t=0.52
-0.5154928987283274
% es.tEX (V/m) @ t=0.52
-0.5776791992211523
% es.tEY (V/m) @ t=0.52
0
% es.tEZ (V/m) @ t=0.52
-0.5154928987283318
% es.Ex (V/m) @ t=0.52
-0.577679199221154
% es.Ey (V/m) @ t=0.52
0.21999833143999115
% es.Ez (V/m) @ t=0.52
-0.5154928987283274
% es.tEx (V/m) @ t=0.52
-0.5776791992211523
% es.tEy (V/m) @ t=0.52
0
% es.tEz (V/m) @ t=0.52
-0.5154928987283318
% V (V) @ t=0.52
0.008211967643825084
% es.normE (V/m) @ t=0.54
0.8140599481321706
% es.EX (V/m) @ t=0.54
-0.5827911828477755
% es.EY (V/m) @ t=0.54
0.22194497845310646
% es.EZ (V/m) @ t=0.54
-0.5200546964501367
% es.tEX (V/m) @ t=0.54
-0.5827911828477763
% es.tEY (V/m) @ t=0.54
0
% es.tEZ (V/m) @ t=0.54
-0.5200546964501349
% es.Ex (V/m) @ t=0.54
-0.5827911828477755
% es.Ey (V/m) @ t=0.54
0.22194497845310646
% es.Ez (V/m) @ t=0.54
-0.5200546964501367
% es.tEx (V/m) @ t=0.54
-0.5827911828477763
% es.tEy (V/m) @ t=0.54
0
% es.tEz (V/m) @ t=0.54
-0.5200546964501349
% V (V) @ t=0.54
0.008284645290021653
% es.normE (V/m) @ t=0.56
0.8219551645769603
% es.EX (V/m) @ t=0.56
-0.5884433787429351
% es.EY (V/m) @ t=0.56
0.2240970379693883
% es.EZ (V/m) @ t=0.56
-0.5250987797896598
% es.tEX (V/m) @ t=0.56
-0.5884433787429304
% es.tEY (V/m) @ t=0.56
0
% es.tEZ (V/m) @ t=0.56
-0.5250987797896638
% es.Ex (V/m) @ t=0.56
-0.5884433787429351
% es.Ey (V/m) @ t=0.56
0.2240970379693883
% es.Ez (V/m) @ t=0.56
-0.5250987797896598
% es.tEx (V/m) @ t=0.56
-0.5884433787429304
% es.tEy (V/m) @ t=0.56
0
% es.tEz (V/m) @ t=0.56
-0.5250987797896638
% V (V) @ t=0.56
0.008365019525201002
% es.normE (V/m) @ t=0.58
0.8299196220760472
% es.EX (V/m) @ t=0.58
-0.594145142042663
% es.EY (V/m) @ t=0.58
0.22626794519654725
% es.EZ (V/m) @ t=0.58
-0.5301871154494822
% es.tEX (V/m) @ t=0.58
-0.5941451420426598
% es.tEY (V/m) @ t=0.58
0
% es.tEZ (V/m) @ t=0.58
-0.5301871154494773
% es.Ex (V/m) @ t=0.58
-0.594145142042663
% es.Ey (V/m) @ t=0.58
0.22626794519654725
% es.Ez (V/m) @ t=0.58
-0.5301871154494822
% es.tEx (V/m) @ t=0.58
-0.5941451420426598
% es.tEy (V/m) @ t=0.58
0
% es.tEz (V/m) @ t=0.58
-0.5301871154494773
% V (V) @ t=0.58
0.008446099964148964
% es.normE (V/m) @ t=0.6
0.8378840795757088
% es.EX (V/m) @ t=0.6
-0.5998469053423937
% es.EY (V/m) @ t=0.6
0.22843885242369044
% es.EZ (V/m) @ t=0.6
-0.5352754511093059
% es.tEX (V/m) @ t=0.6
-0.5998469053423889
% es.tEY (V/m) @ t=0.6
0
% es.tEZ (V/m) @ t=0.6
-0.5352754511093076
% es.Ex (V/m) @ t=0.6
-0.5998469053423937
% es.Ey (V/m) @ t=0.6
0.22843885242369044
% es.Ez (V/m) @ t=0.6
-0.5352754511093059
% es.tEx (V/m) @ t=0.6
-0.5998469053423889
% es.tEy (V/m) @ t=0.6
0
% es.tEz (V/m) @ t=0.6
-0.5352754511093076
% V (V) @ t=0.6
0.008527180403096928
% es.normE (V/m) @ t=0.62
0.8458485370759268
% es.EX (V/m) @ t=0.62
-0.6055486686421195
% es.EY (V/m) @ t=0.62
0.2306097596508523
% es.EZ (V/m) @ t=0.62
-0.5403637867691216
% es.tEX (V/m) @ t=0.62
-0.6055486686421201
% es.tEY (V/m) @ t=0.62
0
% es.tEZ (V/m) @ t=0.62
-0.5403637867691167
% es.Ex (V/m) @ t=0.62
-0.6055486686421195
% es.Ey (V/m) @ t=0.62
0.2306097596508523
% es.Ez (V/m) @ t=0.62
-0.5403637867691216
% es.tEx (V/m) @ t=0.62
-0.6055486686421201
% es.tEy (V/m) @ t=0.62
0
% es.tEz (V/m) @ t=0.62
-0.5403637867691167
% V (V) @ t=0.62
0.008608260842044892
% es.normE (V/m) @ t=0.64
0.8538129945766848
% es.EX (V/m) @ t=0.64
-0.6112504319418491
% es.EY (V/m) @ t=0.64
0.23278066687798638
% es.EZ (V/m) @ t=0.64
-0.5454521224289381
% es.tEX (V/m) @ t=0.64
-0.6112504319418446
% es.tEY (V/m) @ t=0.64
0
% es.tEZ (V/m) @ t=0.64
-0.5454521224289479
% es.Ex (V/m) @ t=0.64
-0.6112504319418491
% es.Ey (V/m) @ t=0.64
0.23278066687798638
% es.Ez (V/m) @ t=0.64
-0.5454521224289381
% es.tEx (V/m) @ t=0.64
-0.6112504319418446
% es.tEy (V/m) @ t=0.64
0
% es.tEz (V/m) @ t=0.64
-0.5454521224289479
% V (V) @ t=0.64
0.008689341280992852
% es.normE (V/m) @ t=0.66
0.8617774520779842
% es.EX (V/m) @ t=0.66
-0.6169521952415772
% es.EY (V/m) @ t=0.66
0.23495157410512935
% es.EZ (V/m) @ t=0.66
-0.550540458088769
% es.tEX (V/m) @ t=0.66
-0.6169521952415733
% es.tEY (V/m) @ t=0.66
0
% es.tEZ (V/m) @ t=0.66
-0.5505404580887641
% es.Ex (V/m) @ t=0.66
-0.6169521952415772
% es.Ey (V/m) @ t=0.66
0.23495157410512935
% es.Ez (V/m) @ t=0.66
-0.550540458088769
% es.tEx (V/m) @ t=0.66
-0.6169521952415733
% es.tEy (V/m) @ t=0.66
0
% es.tEz (V/m) @ t=0.66
-0.5505404580887641
% V (V) @ t=0.66
0.008770421719940816
% es.normE (V/m) @ t=0.68
0.86974190957979
% es.EX (V/m) @ t=0.68
-0.6226539585413021
% es.EY (V/m) @ t=0.68
0.23712248133227987
% es.EZ (V/m) @ t=0.68
-0.5556287937485873
% es.tEX (V/m) @ t=0.68
-0.6226539585412973
% es.tEY (V/m) @ t=0.68
0
% es.tEZ (V/m) @ t=0.68
-0.5556287937485944
% es.Ex (V/m) @ t=0.68
-0.6226539585413021
% es.Ey (V/m) @ t=0.68
0.23712248133227987
% es.Ez (V/m) @ t=0.68
-0.5556287937485873
% es.tEx (V/m) @ t=0.68
-0.6226539585412973
% es.tEy (V/m) @ t=0.68
0
% es.tEz (V/m) @ t=0.68
-0.5556287937485944
% V (V) @ t=0.68
0.008851502158888778
% es.normE (V/m) @ t=0.7
0.8777063670821086
% es.EX (V/m) @ t=0.7
-0.6283557218410344
% es.EY (V/m) @ t=0.7
0.2392933885594326
% es.EZ (V/m) @ t=0.7
-0.5607171294084146
% es.tEX (V/m) @ t=0.7
-0.6283557218410334
% es.tEY (V/m) @ t=0.7
0
% es.tEZ (V/m) @ t=0.7
-0.5607171294084115
% es.Ex (V/m) @ t=0.7
-0.6283557218410344
% es.Ey (V/m) @ t=0.7
0.2392933885594326
% es.Ez (V/m) @ t=0.7
-0.5607171294084146
% es.tEx (V/m) @ t=0.7
-0.6283557218410334
% es.tEy (V/m) @ t=0.7
0
% es.tEz (V/m) @ t=0.7
-0.5607171294084115
% V (V) @ t=0.7
0.00893258259783674
% es.normE (V/m) @ t=0.72
0.8856708245848998
% es.EX (V/m) @ t=0.72
-0.6340574851407624
% es.EY (V/m) @ t=0.72
0.24146429578656758
% es.EZ (V/m) @ t=0.72
-0.5658054650682312
% es.tEX (V/m) @ t=0.72
-0.6340574851407577
% es.tEY (V/m) @ t=0.72
0
% es.tEZ (V/m) @ t=0.72
-0.5658054650682347
% es.Ex (V/m) @ t=0.72
-0.6340574851407624
% es.Ey (V/m) @ t=0.72
0.24146429578656758
% es.Ez (V/m) @ t=0.72
-0.5658054650682312
% es.tEx (V/m) @ t=0.72
-0.6340574851407577
% es.tEy (V/m) @ t=0.72
0
% es.tEz (V/m) @ t=0.72
-0.5658054650682347
% V (V) @ t=0.72
0.009013663036784702
% es.normE (V/m) @ t=0.74
0.893635282088186
% es.EX (V/m) @ t=0.74
-0.6397592484404993
% es.EY (V/m) @ t=0.74
0.2436352030137141
% es.EZ (V/m) @ t=0.74
-0.570893800728066
% es.tEX (V/m) @ t=0.74
-0.6397592484404995
% es.tEY (V/m) @ t=0.74
0
% es.tEZ (V/m) @ t=0.74
-0.570893800728066
% es.Ex (V/m) @ t=0.74
-0.6397592484404993
% es.Ey (V/m) @ t=0.74
0.2436352030137141
% es.Ez (V/m) @ t=0.74
-0.570893800728066
% es.tEx (V/m) @ t=0.74
-0.6397592484404995
% es.tEy (V/m) @ t=0.74
0
% es.tEz (V/m) @ t=0.74
-0.570893800728066
% V (V) @ t=0.74
0.009094743475732664
% es.normE (V/m) @ t=0.76
0.9015997395919066
% es.EX (V/m) @ t=0.76
-0.6454610117402242
% es.EY (V/m) @ t=0.76
0.2458061102408593
% es.EZ (V/m) @ t=0.76
-0.575982136387871
% es.tEX (V/m) @ t=0.76
-0.6454610117402253
% es.tEY (V/m) @ t=0.76
0
% es.tEZ (V/m) @ t=0.76
-0.5759821363878741
% es.Ex (V/m) @ t=0.76
-0.6454610117402242
% es.Ey (V/m) @ t=0.76
0.2458061102408593
% es.Ez (V/m) @ t=0.76
-0.575982136387871
% es.tEx (V/m) @ t=0.76
-0.6454610117402253
% es.tEy (V/m) @ t=0.76
0
% es.tEz (V/m) @ t=0.76
-0.5759821363878741
% V (V) @ t=0.76
0.009175823914680626
% es.normE (V/m) @ t=0.78
0.909564197096099
% es.EX (V/m) @ t=0.78
-0.6511627750399521
% es.EY (V/m) @ t=0.78
0.2479770174680005
% es.EZ (V/m) @ t=0.78
-0.5810704720477085
% es.tEX (V/m) @ t=0.78
-0.6511627750399529
% es.tEY (V/m) @ t=0.78
0
% es.tEZ (V/m) @ t=0.78
-0.5810704720477053
% es.Ex (V/m) @ t=0.78
-0.6511627750399521
% es.Ey (V/m) @ t=0.78
0.2479770174680005
% es.Ez (V/m) @ t=0.78
-0.5810704720477085
% es.tEx (V/m) @ t=0.78
-0.6511627750399529
% es.tEy (V/m) @ t=0.78
0
% es.tEz (V/m) @ t=0.78
-0.5810704720477053
% V (V) @ t=0.78
0.00925690435362859
% es.normE (V/m) @ t=0.8
0.9175286546007171
% es.EX (V/m) @ t=0.8
-0.6568645383396774
% es.EY (V/m) @ t=0.8
0.2501479246951479
% es.EZ (V/m) @ t=0.8
-0.586158807707525
% es.tEX (V/m) @ t=0.8
-0.6568645383396783
% es.tEY (V/m) @ t=0.8
0
% es.tEZ (V/m) @ t=0.8
-0.5861588077075295
% es.Ex (V/m) @ t=0.8
-0.6568645383396774
% es.Ey (V/m) @ t=0.8
0.2501479246951479
% es.Ez (V/m) @ t=0.8
-0.586158807707525
% es.tEx (V/m) @ t=0.8
-0.6568645383396783
% es.tEy (V/m) @ t=0.8
0
% es.tEz (V/m) @ t=0.8
-0.5861588077075295
% V (V) @ t=0.8
0.009337984792576552
% es.normE (V/m) @ t=0.82
0.9258464159350357
% es.EX (V/m) @ t=0.82
-0.6628193046330277
% es.EY (V/m) @ t=0.82
0.252415929626467
% es.EZ (V/m) @ t=0.82
-0.5914723787827056
% es.tEX (V/m) @ t=0.82
-0.6628193046330284
% es.tEY (V/m) @ t=0.82
0
% es.tEZ (V/m) @ t=0.82
-0.5914723787827079
% es.Ex (V/m) @ t=0.82
-0.6628193046330277
% es.Ey (V/m) @ t=0.82
0.252415929626467
% es.Ez (V/m) @ t=0.82
-0.5914723787827056
% es.tEx (V/m) @ t=0.82
-0.6628193046330284
% es.tEy (V/m) @ t=0.82
0
% es.tEz (V/m) @ t=0.82
-0.5914723787827079
% V (V) @ t=0.82
0.009422621212317999
% es.normE (V/m) @ t=0.84
0.9347433404218314
% es.EX (V/m) @ t=0.84
-0.6691888131350063
% es.EY (V/m) @ t=0.84
0.2548431046755406
% es.EZ (V/m) @ t=0.84
-0.5971551732899716
% es.tEX (V/m) @ t=0.84
-0.669188813135007
% es.tEY (V/m) @ t=0.84
0
% es.tEZ (V/m) @ t=0.84
-0.5971551732899689
% es.Ex (V/m) @ t=0.84
-0.6691888131350063
% es.Ey (V/m) @ t=0.84
0.2548431046755406
% es.Ez (V/m) @ t=0.84
-0.5971551732899716
% es.tEx (V/m) @ t=0.84
-0.669188813135007
% es.tEy (V/m) @ t=0.84
0
% es.tEz (V/m) @ t=0.84
-0.5971551732899689
% V (V) @ t=0.84
0.009513086872682297
% es.normE (V/m) @ t=0.86
0.9436402649134716
% es.EX (V/m) @ t=0.86
-0.6755583216369849
% es.EY (V/m) @ t=0.86
0.2572702797245896
% es.EZ (V/m) @ t=0.86
-0.6028379677972437
% es.tEX (V/m) @ t=0.86
-0.6755583216369869
% es.tEY (V/m) @ t=0.86
0
% es.tEZ (V/m) @ t=0.86
-0.6028379677972433
% es.Ex (V/m) @ t=0.86
-0.6755583216369849
% es.Ey (V/m) @ t=0.86
0.2572702797245896
% es.Ez (V/m) @ t=0.86
-0.6028379677972437
% es.tEx (V/m) @ t=0.86
-0.6755583216369869
% es.tEy (V/m) @ t=0.86
0
% es.tEz (V/m) @ t=0.86
-0.6028379677972433
% V (V) @ t=0.86
0.009603552533046594
% es.normE (V/m) @ t=0.88
0.9525371894098096
% es.EX (V/m) @ t=0.88
-0.6819278301389549
% es.EY (V/m) @ t=0.88
0.2596974547736357
% es.EZ (V/m) @ t=0.88
-0.6085207623044999
% es.tEX (V/m) @ t=0.88
-0.6819278301389602
% es.tEY (V/m) @ t=0.88
0
% es.tEZ (V/m) @ t=0.88
-0.6085207623045115
% es.Ex (V/m) @ t=0.88
-0.6819278301389549
% es.Ey (V/m) @ t=0.88
0.2596974547736357
% es.Ez (V/m) @ t=0.88
-0.6085207623044999
% es.tEx (V/m) @ t=0.88
-0.6819278301389602
% es.tEy (V/m) @ t=0.88
0
% es.tEz (V/m) @ t=0.88
-0.6085207623045115
% V (V) @ t=0.88
0.009694018193410892
% es.normE (V/m) @ t=0.9
0.961434113910743
% es.EX (V/m) @ t=0.9
-0.6882973386409281
% es.EY (V/m) @ t=0.9
0.26212462982271223
% es.EZ (V/m) @ t=0.9
-0.6142035568117614
% es.tEX (V/m) @ t=0.9
-0.6882973386409295
% es.tEY (V/m) @ t=0.9
0
% es.tEZ (V/m) @ t=0.9
-0.6142035568117645
% es.Ex (V/m) @ t=0.9
-0.6882973386409281
% es.Ey (V/m) @ t=0.9
0.26212462982271223
% es.Ez (V/m) @ t=0.9
-0.6142035568117614
% es.tEx (V/m) @ t=0.9
-0.6882973386409295
% es.tEy (V/m) @ t=0.9
0
% es.tEz (V/m) @ t=0.9
-0.6142035568117645
% V (V) @ t=0.9
0.00978448385377519
% es.normE (V/m) @ t=0.92
0.9703310384161343
% es.EX (V/m) @ t=0.92
-0.6946668471429076
% es.EY (V/m) @ t=0.92
0.2645518048717699
% es.EZ (V/m) @ t=0.92
-0.6198863513190269
% es.tEX (V/m) @ t=0.92
-0.6946668471429063
% es.tEY (V/m) @ t=0.92
0
% es.tEZ (V/m) @ t=0.92
-0.6198863513190256
% es.Ex (V/m) @ t=0.92
-0.6946668471429076
% es.Ey (V/m) @ t=0.92
0.2645518048717699
% es.Ez (V/m) @ t=0.92
-0.6198863513190269
% es.tEx (V/m) @ t=0.92
-0.6946668471429063
% es.tEy (V/m) @ t=0.92
0
% es.tEz (V/m) @ t=0.92
-0.6198863513190256
% V (V) @ t=0.92
0.009874949514139489
% es.normE (V/m) @ t=0.94
0.9792279629258591
% es.EX (V/m) @ t=0.94
-0.7010363556448844
% es.EY (V/m) @ t=0.94
0.26697897992082686
% es.EZ (V/m) @ t=0.94
-0.6255691458262924
% es.tEX (V/m) @ t=0.94
-0.7010363556448826
% es.tEY (V/m) @ t=0.94
0
% es.tEZ (V/m) @ t=0.94
-0.6255691458262929
% es.Ex (V/m) @ t=0.94
-0.7010363556448844
% es.Ey (V/m) @ t=0.94
0.26697897992082686
% es.Ez (V/m) @ t=0.94
-0.6255691458262924
% es.tEx (V/m) @ t=0.94
-0.7010363556448826
% es.tEy (V/m) @ t=0.94
0
% es.tEz (V/m) @ t=0.94
-0.6255691458262929
% V (V) @ t=0.94
0.009965415174503785
% es.normE (V/m) @ t=0.96
0.9881248874398014
% es.EX (V/m) @ t=0.96
-0.7074058641468648
% es.EY (V/m) @ t=0.96
0.2694061549698863
% es.EZ (V/m) @ t=0.96
-0.6312519403335544
% es.tEX (V/m) @ t=0.96
-0.707405864146859
% es.tEY (V/m) @ t=0.96
0
% es.tEZ (V/m) @ t=0.96
-0.6312519403335539
% es.Ex (V/m) @ t=0.96
-0.7074058641468648
% es.Ey (V/m) @ t=0.96
0.2694061549698863
% es.Ez (V/m) @ t=0.96
-0.6312519403335544
% es.tEx (V/m) @ t=0.96
-0.707405864146859
% es.tEy (V/m) @ t=0.96
0
% es.tEz (V/m) @ t=0.96
-0.6312519403335539
% V (V) @ t=0.96
0.01005588083486808
% es.normE (V/m) @ t=0.98
0.9970218119578427
% es.EX (V/m) @ t=0.98
-0.7137753726488409
% es.EY (V/m) @ t=0.98
0.2718333300189504
% es.EZ (V/m) @ t=0.98
-0.6369347348408088
% es.tEX (V/m) @ t=0.98
-0.7137753726488398
% es.tEY (V/m) @ t=0.98
0
% es.tEZ (V/m) @ t=0.98
-0.6369347348408141
% es.Ex (V/m) @ t=0.98
-0.7137753726488409
% es.Ey (V/m) @ t=0.98
0.2718333300189504
% es.Ez (V/m) @ t=0.98
-0.6369347348408088
% es.tEx (V/m) @ t=0.98
-0.7137753726488398
% es.tEy (V/m) @ t=0.98
0
% es.tEz (V/m) @ t=0.98
-0.6369347348408141
% V (V) @ t=0.98
0.01014634649523238
% es.normE (V/m) @ t=1
1.0059187364798747
% es.EX (V/m) @ t=1
-0.7201448811508071
% es.EY (V/m) @ t=1
0.27426050506798494
% es.EZ (V/m) @ t=1
-0.6426175293480814
% es.tEX (V/m) @ t=1
-0.7201448811508055
% es.tEY (V/m) @ t=1
0
% es.tEZ (V/m) @ t=1
-0.6426175293480885
% es.Ex (V/m) @ t=1
-0.7201448811508071
% es.Ey (V/m) @ t=1
0.27426050506798494
% es.Ez (V/m) @ t=1
-0.6426175293480814
% es.tEx (V/m) @ t=1
-0.7201448811508055
% es.tEy (V/m) @ t=1
0
% es.tEz (V/m) @ t=1
-0.6426175293480885
% V (V) @ t=1
0.010236812155596676
% es.normE (V/m) @ t=1.02
1.0148156610058088
% es.EX (V/m) @ t=1.02
-0.7265143896527804
% es.EY (V/m) @ t=1.02
0.27668768011705436
% es.EZ (V/m) @ t=1.02
-0.6483003238553477
% es.tEX (V/m) @ t=1.02
-0.7265143896527788
% es.tEY (V/m) @ t=1.02
0
% es.tEZ (V/m) @ t=1.02
-0.6483003238553433
% es.Ex (V/m) @ t=1.02
-0.7265143896527804
% es.Ey (V/m) @ t=1.02
0.27668768011705436
% es.Ez (V/m) @ t=1.02
-0.6483003238553477
% es.tEx (V/m) @ t=1.02
-0.7265143896527788
% es.tEy (V/m) @ t=1.02
0