% Model:              1 neuron.mph
% Version:            COMSOL 6.0.0.405
% Date:               Mar 9 2023, 14:11
% Dimension:          0
% Nodes:              14017
% Expressions:        14017
% Description:        Electric field norm, Electric field, X component, Electric field, Y component, Electric field, Z component, Tangential electric field, X component, Tangential electric field, Y component, Tangential electric field, Z component, Electric field, x component, Electric field, y component, Electric field, z component, Tangential electric field, x component, Tangential electric field, y component, Tangential electric field, z component, Electric potential
% Length unit:        mm
% x
1
% y
12.2
% z
1.33
% es.normE (V/m) @ t=0
1.4604364020768208
% es.EX (V/m) @ t=0
1.3496341689515194
% es.EY (V/m) @ t=0
0.08498119377937352
% es.EZ (V/m) @ t=0
0.5456073542428173
% es.tEX (V/m) @ t=0
1.349634168951522
% es.tEY (V/m) @ t=0
0
% es.tEZ (V/m) @ t=0
0.5456073542428173
% es.Ex (V/m) @ t=0
1.3496341689515194
% es.Ey (V/m) @ t=0
0.08498119377937352
% es.Ez (V/m) @ t=0
0.5456073542428173
% es.tEx (V/m) @ t=0
1.349634168951522
% es.tEy (V/m) @ t=0
0
% es.tEz (V/m) @ t=0
0.5456073542428173
% V (V) @ t=0
0.007284894741073552
% es.normE (V/m) @ t=0.02
1.2614066344966204
% es.EX (V/m) @ t=0.02
1.165704640657296
% es.EY (V/m) @ t=0.02
0.07339987132454534
% es.EZ (V/m) @ t=0.02
0.47125143186479557
% es.tEX (V/m) @ t=0.02
1.165704640657296
% es.tEY (V/m) @ t=0.02
0
% es.tEZ (V/m) @ t=0.02
0.471251431864796
% es.Ex (V/m) @ t=0.02
1.165704640657296
% es.Ey (V/m) @ t=0.02
0.07339987132454534
% es.Ez (V/m) @ t=0.02
0.47125143186479557
% es.tEx (V/m) @ t=0.02
1.165704640657296
% es.tEy (V/m) @ t=0.02
0
% es.tEz (V/m) @ t=0.02
0.471251431864796
% V (V) @ t=0.02
0.006292101582565229
% es.normE (V/m) @ t=0.04
1.2730088782435778
% es.EX (V/m) @ t=0.04
1.1764266301407362
% es.EY (V/m) @ t=0.04
0.07407499372281423
% es.EZ (V/m) @ t=0.04
0.4755859387846746
% es.tEX (V/m) @ t=0.04
1.176426630140739
% es.tEY (V/m) @ t=0.04
0
% es.tEZ (V/m) @ t=0.04
0.4755859387846728
% es.Ex (V/m) @ t=0.04
1.1764266301407362
% es.Ey (V/m) @ t=0.04
0.07407499372281423
% es.Ez (V/m) @ t=0.04
0.4755859387846746
% es.tEx (V/m) @ t=0.04
1.176426630140739
% es.tEy (V/m) @ t=0.04
0
% es.tEz (V/m) @ t=0.04
0.4755859387846728
% V (V) @ t=0.04
0.006349975400482358
% es.normE (V/m) @ t=0.06
1.2847154832811805
% es.EX (V/m) @ t=0.06
1.187245066148415
% es.EY (V/m) @ t=0.06
0.07475618620005148
% es.EZ (V/m) @ t=0.06
0.47995942646025114
% es.tEX (V/m) @ t=0.06
1.1872450661484164
% es.tEY (V/m) @ t=0.06
0
% es.tEZ (V/m) @ t=0.06
0.4799594264602529
% es.Ex (V/m) @ t=0.06
1.187245066148415
% es.Ey (V/m) @ t=0.06
0.07475618620005148
% es.Ez (V/m) @ t=0.06
0.47995942646025114
% es.tEx (V/m) @ t=0.06
1.1872450661484164
% es.tEy (V/m) @ t=0.06
0
% es.tEz (V/m) @ t=0.06
0.4799594264602529
% V (V) @ t=0.06
0.006408370115729447
% es.normE (V/m) @ t=0.08
1.2966009657401636
% es.EX (V/m) @ t=0.08
1.198228783494108
% es.EY (V/m) @ t=0.08
0.0754478071516293
% es.EZ (V/m) @ t=0.08
0.4843998046889557
% es.tEX (V/m) @ t=0.08
1.198228783494108
% es.tEY (V/m) @ t=0.08
0
% es.tEZ (V/m) @ t=0.08
0.48439980468895705
% es.Ex (V/m) @ t=0.08
1.198228783494108
% es.Ey (V/m) @ t=0.08
0.0754478071516293
% es.Ez (V/m) @ t=0.08
0.4843998046889557
% es.tEx (V/m) @ t=0.08
1.198228783494108
% es.tEy (V/m) @ t=0.08
0
% es.tEz (V/m) @ t=0.08
0.48439980468895705
% V (V) @ t=0.08
0.006467654484320995
% es.normE (V/m) @ t=0.1
1.3086093885576684
% es.EX (V/m) @ t=0.1
1.209326096769317
% es.EY (V/m) @ t=0.1
0.07614659547158875
% es.EZ (V/m) @ t=0.1
0.48888615601207674
% es.tEX (V/m) @ t=0.1
1.2093260967693187
% es.tEY (V/m) @ t=0.1
0
% es.tEZ (V/m) @ t=0.1
0.4888861560120765
% es.Ex (V/m) @ t=0.1
1.209326096769317
% es.Ey (V/m) @ t=0.1
0.07614659547158875
% es.Ez (V/m) @ t=0.1
0.48888615601207674
% es.tEx (V/m) @ t=0.1
1.2093260967693187
% es.tEy (V/m) @ t=0.1
0
% es.tEz (V/m) @ t=0.1
0.4888861560120765
% V (V) @ t=0.1
0.006527550301245634
% es.normE (V/m) @ t=0.12
1.32061781137519
% es.EX (V/m) @ t=0.12
1.2204234100445364
% es.EY (V/m) @ t=0.12
0.07684538379152916
% es.EZ (V/m) @ t=0.12
0.49337250733519
% es.tEX (V/m) @ t=0.12
1.220423410044539
% es.tEY (V/m) @ t=0.12
0
% es.tEZ (V/m) @ t=0.12
0.493372507335192
% es.Ex (V/m) @ t=0.12
1.2204234100445364
% es.Ey (V/m) @ t=0.12
0.07684538379152916
% es.Ez (V/m) @ t=0.12
0.49337250733519
% es.tEx (V/m) @ t=0.12
1.220423410044539
% es.tEy (V/m) @ t=0.12
0
% es.tEz (V/m) @ t=0.12
0.493372507335192
% V (V) @ t=0.12
0.006587446118170273
% es.normE (V/m) @ t=0.14
1.3327515004350423
% es.EX (V/m) @ t=0.14
1.2316364974020102
% es.EY (V/m) @ t=0.14
0.07755145187725837
% es.EZ (V/m) @ t=0.14
0.4979056272119282
% es.tEX (V/m) @ t=0.14
1.2316364974020155
% es.tEY (V/m) @ t=0.14
0
% es.tEZ (V/m) @ t=0.14
0.4979056272119271
% es.Ex (V/m) @ t=0.14
1.2316364974020102
% es.Ey (V/m) @ t=0.14
0.07755145187725837
% es.Ez (V/m) @ t=0.14
0.4979056272119282
% es.tEx (V/m) @ t=0.14
1.2316364974020155
% es.tEy (V/m) @ t=0.14
0
% es.tEz (V/m) @ t=0.14
0.4979056272119271
% V (V) @ t=0.14
0.006647968018313179
% es.normE (V/m) @ t=0.16
1.3454013696682168
% es.EX (V/m) @ t=0.16
1.2433266509246241
% es.EY (V/m) @ t=0.16
0.07828751743630324
% es.EZ (V/m) @ t=0.16
0.5026314646131111
% es.tEX (V/m) @ t=0.16
1.2433266509246224
% es.tEY (V/m) @ t=0.16
0
% es.tEZ (V/m) @ t=0.16
0.5026314646131138
% es.Ex (V/m) @ t=0.16
1.2433266509246241
% es.Ey (V/m) @ t=0.16
0.07828751743630324
% es.Ez (V/m) @ t=0.16
0.5026314646131111
% es.tEx (V/m) @ t=0.16
1.2433266509246224
% es.tEy (V/m) @ t=0.16
0
% es.tEz (V/m) @ t=0.16
0.5026314646131138
% V (V) @ t=0.16
0.006711069797425138
% es.normE (V/m) @ t=0.18
1.3580512389013881
% es.EX (V/m) @ t=0.18
1.255016804447238
% es.EY (V/m) @ t=0.18
0.07902358299536333
% es.EZ (V/m) @ t=0.18
0.5073573020142743
% es.tEX (V/m) @ t=0.18
1.255016804447239
% es.tEY (V/m) @ t=0.18
0
% es.tEZ (V/m) @ t=0.18
0.5073573020142752
% es.Ex (V/m) @ t=0.18
1.255016804447238
% es.Ey (V/m) @ t=0.18
0.07902358299536333
% es.Ez (V/m) @ t=0.18
0.5073573020142743
% es.tEx (V/m) @ t=0.18
1.255016804447239
% es.tEy (V/m) @ t=0.18
0
% es.tEz (V/m) @ t=0.18
0.5073573020142752
% V (V) @ t=0.18
0.0067741715765370965
% es.normE (V/m) @ t=0.2
1.370701108134559
% es.EX (V/m) @ t=0.2
1.2667069579698436
% es.EY (V/m) @ t=0.2
0.07975964855441453
% es.EZ (V/m) @ t=0.2
0.5120831394154473
% es.tEX (V/m) @ t=0.2
1.2667069579698413
% es.tEY (V/m) @ t=0.2
0
% es.tEZ (V/m) @ t=0.2
0.512083139415449
% es.Ex (V/m) @ t=0.2
1.2667069579698436
% es.Ey (V/m) @ t=0.2
0.07975964855441453
% es.Ez (V/m) @ t=0.2
0.5120831394154473
% es.tEx (V/m) @ t=0.2
1.2667069579698413
% es.tEy (V/m) @ t=0.2
0
% es.tEz (V/m) @ t=0.2
0.512083139415449
% V (V) @ t=0.2
0.006837273355649057
% es.normE (V/m) @ t=0.22
1.3833509773677393
% es.EX (V/m) @ t=0.22
1.2783971114924544
% es.EY (V/m) @ t=0.22
0.0804957141134694
% es.EZ (V/m) @ t=0.22
0.5168089768166233
% es.tEX (V/m) @ t=0.22
1.2783971114924544
% es.tEY (V/m) @ t=0.22
0
% es.tEZ (V/m) @ t=0.22
0.516808976816618
% es.Ex (V/m) @ t=0.22
1.2783971114924544
% es.Ey (V/m) @ t=0.22
0.0804957141134694
% es.Ez (V/m) @ t=0.22
0.5168089768166233
% es.tEx (V/m) @ t=0.22
1.2783971114924544
% es.tEy (V/m) @ t=0.22
0
% es.tEz (V/m) @ t=0.22
0.516808976816618
% V (V) @ t=0.22
0.006900375134761013
% es.normE (V/m) @ t=0.24
1.3960008466009162
% es.EX (V/m) @ t=0.24
1.2900872650150594
% es.EY (V/m) @ t=0.24
0.08123177967251699
% es.EZ (V/m) @ t=0.24
0.5215348142177971
% es.tEX (V/m) @ t=0.24
1.2900872650150585
% es.tEY (V/m) @ t=0.24
0
% es.tEZ (V/m) @ t=0.24
0.5215348142177971
% es.Ex (V/m) @ t=0.24
1.2900872650150594
% es.Ey (V/m) @ t=0.24
0.08123177967251699
% es.Ez (V/m) @ t=0.24
0.5215348142177971
% es.tEx (V/m) @ t=0.24
1.2900872650150585
% es.tEy (V/m) @ t=0.24
0
% es.tEz (V/m) @ t=0.24
0.5215348142177971
% V (V) @ t=0.24
0.006963476913872973
% es.normE (V/m) @ t=0.26
1.4086507158341155
% es.EX (V/m) @ t=0.26
1.3017774185376831
% es.EY (V/m) @ t=0.26
0.08196784523156736
% es.EZ (V/m) @ t=0.26
0.5262606516189787
% es.tEX (V/m) @ t=0.26
1.3017774185376831
% es.tEY (V/m) @ t=0.26
0
% es.tEZ (V/m) @ t=0.26
0.5262606516189843
% es.Ex (V/m) @ t=0.26
1.3017774185376831
% es.Ey (V/m) @ t=0.26
0.08196784523156736
% es.Ez (V/m) @ t=0.26
0.5262606516189787
% es.tEx (V/m) @ t=0.26
1.3017774185376831
% es.tEy (V/m) @ t=0.26
0
% es.tEz (V/m) @ t=0.26
0.5262606516189843
% V (V) @ t=0.26
0.007026578692984932
% es.normE (V/m) @ t=0.28
1.4218807721954003
% es.EX (V/m) @ t=0.28
1.3140039331017377
% es.EY (V/m) @ t=0.28
0.0827374949165317
% es.EZ (V/m) @ t=0.28
0.5312027514004458
% es.tEX (V/m) @ t=0.28
1.3140039331017368
% es.tEY (V/m) @ t=0.28
0
% es.tEZ (V/m) @ t=0.28
0.531202751400444
% es.Ex (V/m) @ t=0.28
1.3140039331017377
% es.Ey (V/m) @ t=0.28
0.0827374949165317
% es.Ez (V/m) @ t=0.28
0.5312027514004458
% es.tEx (V/m) @ t=0.28
1.3140039331017368
% es.tEy (V/m) @ t=0.28
0
% es.tEz (V/m) @ t=0.28
0.531202751400444
% V (V) @ t=0.28
0.007092595450936659
% es.normE (V/m) @ t=0.3
1.435979198744533
% es.EX (V/m) @ t=0.3
1.3270332230378434
% es.EY (V/m) @ t=0.3
0.0835574102007774
% es.EZ (V/m) @ t=0.3
0.5364685326192187
% es.tEX (V/m) @ t=0.3
1.327033223037846
% es.tEY (V/m) @ t=0.3
0
% es.tEZ (V/m) @ t=0.3
0.5364685326192169
% es.Ex (V/m) @ t=0.3
1.3270332230378434
% es.Ey (V/m) @ t=0.3
0.0835574102007774
% es.Ez (V/m) @ t=0.3
0.5364685326192187
% es.tEx (V/m) @ t=0.3
1.327033223037846
% es.tEy (V/m) @ t=0.3
0
% es.tEz (V/m) @ t=0.3
0.5364685326192169
% V (V) @ t=0.3
0.007162975078376989
% es.normE (V/m) @ t=0.32
1.450077625295466
% es.EX (V/m) @ t=0.32
1.340062512973943
% es.EY (V/m) @ t=0.32
0.08437732548503096
% es.EZ (V/m) @ t=0.32
0.5417343138379982
% es.tEX (V/m) @ t=0.32
1.3400625129739359
% es.tEY (V/m) @ t=0.32
0
% es.tEZ (V/m) @ t=0.32
0.541734313838
% es.Ex (V/m) @ t=0.32
1.340062512973943
% es.Ey (V/m) @ t=0.32
0.08437732548503096
% es.Ez (V/m) @ t=0.32
0.5417343138379982
% es.tEx (V/m) @ t=0.32
1.3400625129739359
% es.tEy (V/m) @ t=0.32
0
% es.tEz (V/m) @ t=0.32
0.541734313838
% V (V) @ t=0.32
0.007233354705817319
% es.normE (V/m) @ t=0.34
1.4641760518481512
% es.EX (V/m) @ t=0.34
1.3530918029100478
% es.EY (V/m) @ t=0.34
0.08519724076927138
% es.EZ (V/m) @ t=0.34
0.547000095056771
% es.tEX (V/m) @ t=0.34
1.3530918029100434
% es.tEY (V/m) @ t=0.34
0
% es.tEZ (V/m) @ t=0.34
0.5470000950567693
% es.Ex (V/m) @ t=0.34
1.3530918029100478
% es.Ey (V/m) @ t=0.34
0.08519724076927138
% es.Ez (V/m) @ t=0.34
0.547000095056771
% es.tEx (V/m) @ t=0.34
1.3530918029100434
% es.tEy (V/m) @ t=0.34
0
% es.tEz (V/m) @ t=0.34
0.5470000950567693
% V (V) @ t=0.34
0.007303734333257645
% es.normE (V/m) @ t=0.36
1.4782744784025392
% es.EX (V/m) @ t=0.36
1.3661210928461536
% es.EY (V/m) @ t=0.36
0.08601715605351878
% es.EZ (V/m) @ t=0.36
0.5522658762755452
% es.tEX (V/m) @ t=0.36
1.3661210928461527
% es.tEY (V/m) @ t=0.36
0
% es.tEZ (V/m) @ t=0.36
0.5522658762755417
% es.Ex (V/m) @ t=0.36
1.3661210928461536
% es.Ey (V/m) @ t=0.36
0.08601715605351878
% es.Ez (V/m) @ t=0.36
0.5522658762755452
% es.tEx (V/m) @ t=0.36
1.3661210928461527
% es.tEy (V/m) @ t=0.36
0
% es.tEz (V/m) @ t=0.36
0.5522658762755417
% V (V) @ t=0.36
0.007374113960697973
% es.normE (V/m) @ t=0.38
1.4923729049585828
% es.EX (V/m) @ t=0.38
1.3791503827822629
% es.EY (V/m) @ t=0.38
0.0868370713377698
% es.EZ (V/m) @ t=0.38
0.5575316574943194
% es.tEX (V/m) @ t=0.38
1.379150382782262
% es.tEY (V/m) @ t=0.38
0
% es.tEZ (V/m) @ t=0.38
0.5575316574943177
% es.Ex (V/m) @ t=0.38
1.3791503827822629
% es.Ey (V/m) @ t=0.38
0.0868370713377698
% es.Ez (V/m) @ t=0.38
0.5575316574943194
% es.tEx (V/m) @ t=0.38
1.379150382782262
% es.tEy (V/m) @ t=0.38
0
% es.tEz (V/m) @ t=0.38
0.5575316574943177
% V (V) @ t=0.38
0.0074444935881383045
% es.normE (V/m) @ t=0.4
1.5064713315162241
% es.EX (V/m) @ t=0.4
1.3921796727183597
% es.EY (V/m) @ t=0.4
0.08765698662201632
% es.EZ (V/m) @ t=0.4
0.5627974387131007
% es.tEX (V/m) @ t=0.4
1.392179672718358
% es.tEY (V/m) @ t=0.4
0
% es.tEZ (V/m) @ t=0.4
0.5627974387130998
% es.Ex (V/m) @ t=0.4
1.3921796727183597
% es.Ey (V/m) @ t=0.4
0.08765698662201632
% es.Ez (V/m) @ t=0.4
0.5627974387131007
% es.tEx (V/m) @ t=0.4
1.392179672718358
% es.tEy (V/m) @ t=0.4
0
% es.tEz (V/m) @ t=0.4
0.5627974387130998
% V (V) @ t=0.4
0.007514873215578631
% es.normE (V/m) @ t=0.42
1.520569758075437
% es.EX (V/m) @ t=0.42
1.4052089626544708
% es.EY (V/m) @ t=0.42
0.08847690190625845
% es.EZ (V/m) @ t=0.42
0.5680632199318767
% es.tEX (V/m) @ t=0.42
1.40520896265447
% es.tEY (V/m) @ t=0.42
0
% es.tEZ (V/m) @ t=0.42
0.5680632199318758
% es.Ex (V/m) @ t=0.42
1.4052089626544708
% es.Ey (V/m) @ t=0.42
0.08847690190625845
% es.Ez (V/m) @ t=0.42
0.5680632199318767
% es.tEx (V/m) @ t=0.42
1.40520896265447
% es.tEy (V/m) @ t=0.42
0
% es.tEz (V/m) @ t=0.42
0.5680632199318758
% V (V) @ t=0.42
0.007585252843018963
% es.normE (V/m) @ t=0.44
1.534668184636161
% es.EX (V/m) @ t=0.44
1.4182382525905757
% es.EY (V/m) @ t=0.44
0.08929681719050148
% es.EZ (V/m) @ t=0.44
0.5733290011506473
% es.tEX (V/m) @ t=0.44
1.4182382525905775
% es.tEY (V/m) @ t=0.44
0
% es.tEZ (V/m) @ t=0.44
0.5733290011506482
% es.Ex (V/m) @ t=0.44
1.4182382525905757
% es.Ey (V/m) @ t=0.44
0.08929681719050148
% es.Ez (V/m) @ t=0.44
0.5733290011506473
% es.tEx (V/m) @ t=0.44
1.4182382525905775
% es.tEy (V/m) @ t=0.44
0
% es.tEz (V/m) @ t=0.44
0.5733290011506482
% V (V) @ t=0.44
0.007655632470459291
% es.normE (V/m) @ t=0.46
1.548766611198362
% es.EX (V/m) @ t=0.46
1.4312675425266788
% es.EY (V/m) @ t=0.46
0.09011673247475244
% es.EZ (V/m) @ t=0.46
0.5785947823694206
% es.tEX (V/m) @ t=0.46
1.4312675425266788
% es.tEY (V/m) @ t=0.46
0
% es.tEZ (V/m) @ t=0.46
0.5785947823694215
% es.Ex (V/m) @ t=0.46
1.4312675425266788
% es.Ey (V/m) @ t=0.46
0.09011673247475244
% es.Ez (V/m) @ t=0.46
0.5785947823694206
% es.tEx (V/m) @ t=0.46
1.4312675425266788
% es.tEy (V/m) @ t=0.46
0
% es.tEz (V/m) @ t=0.46
0.5785947823694215
% V (V) @ t=0.46
0.007726012097899619
% es.normE (V/m) @ t=0.48
1.562865037761997
% es.EX (V/m) @ t=0.48
1.44429683246278
% es.EY (V/m) @ t=0.48
0.09093664775899102
% es.EZ (V/m) @ t=0.48
0.5838605635881939
% es.tEX (V/m) @ t=0.48
1.4442968324627792
% es.tEY (V/m) @ t=0.48
0
% es.tEZ (V/m) @ t=0.48
0.5838605635881957
% es.Ex (V/m) @ t=0.48
1.44429683246278
% es.Ey (V/m) @ t=0.48
0.09093664775899102
% es.Ez (V/m) @ t=0.48
0.5838605635881939
% es.tEx (V/m) @ t=0.48
1.4442968324627792
% es.tEy (V/m) @ t=0.48
0
% es.tEz (V/m) @ t=0.48
0.5838605635881957
% V (V) @ t=0.48
0.007796391725339948
% es.normE (V/m) @ t=0.5
1.576963464327041
% es.EX (V/m) @ t=0.5
1.4573261223988934
% es.EY (V/m) @ t=0.5
0.09175656304324026
% es.EZ (V/m) @ t=0.5
0.5891263448069628
% es.tEX (V/m) @ t=0.5
1.457326122398892
% es.tEY (V/m) @ t=0.5
0
% es.tEZ (V/m) @ t=0.5
0.5891263448069646
% es.Ex (V/m) @ t=0.5
1.4573261223988934
% es.Ey (V/m) @ t=0.5
0.09175656304324026
% es.Ez (V/m) @ t=0.5
0.5891263448069628
% es.tEx (V/m) @ t=0.5
1.457326122398892
% es.tEy (V/m) @ t=0.5
0
% es.tEz (V/m) @ t=0.5
0.5891263448069646
% V (V) @ t=0.5
0.007866771352780279
% es.normE (V/m) @ t=0.52
1.591061890893441
% es.EX (V/m) @ t=0.52
1.470355412334997
% es.EY (V/m) @ t=0.52
0.09257647832749821
% es.EZ (V/m) @ t=0.52
0.5943921260257428
% es.tEX (V/m) @ t=0.52
1.4703554123350004
% es.tEY (V/m) @ t=0.52
0
% es.tEZ (V/m) @ t=0.52
0.5943921260257445
% es.Ex (V/m) @ t=0.52
1.470355412334997
% es.Ey (V/m) @ t=0.52
0.09257647832749821
% es.Ez (V/m) @ t=0.52
0.5943921260257428
% es.tEx (V/m) @ t=0.52
1.4703554123350004
% es.tEy (V/m) @ t=0.52
0
% es.tEz (V/m) @ t=0.52
0.5943921260257445
% V (V) @ t=0.52
0.007937150980220607
% es.normE (V/m) @ t=0.54
1.6051603174611615
% es.EX (V/m) @ t=0.54
1.483384702271092
% es.EY (V/m) @ t=0.54
0.09339639361174668
% es.EZ (V/m) @ t=0.54
0.5996579072445298
% es.tEX (V/m) @ t=0.54
1.4833847022710946
% es.tEY (V/m) @ t=0.54
0
% es.tEZ (V/m) @ t=0.54
0.5996579072445316
% es.Ex (V/m) @ t=0.54
1.483384702271092
% es.Ey (V/m) @ t=0.54
0.09339639361174668
% es.Ez (V/m) @ t=0.54
0.5996579072445298
% es.tEx (V/m) @ t=0.54
1.4833847022710946
% es.tEy (V/m) @ t=0.54
0
% es.tEz (V/m) @ t=0.54
0.5996579072445316
% V (V) @ t=0.54
0.008007530607660934
% es.normE (V/m) @ t=0.56
1.6205763178692023
% es.EX (V/m) @ t=0.56
1.4976312426487315
% es.EY (V/m) @ t=0.56
0.09429330473680592
% es.EZ (V/m) @ t=0.56
0.6054168428046771
% es.tEX (V/m) @ t=0.56
1.4976312426487297
% es.tEY (V/m) @ t=0.56
0
% es.tEZ (V/m) @ t=0.56
0.6054168428046744
% es.Ex (V/m) @ t=0.56
1.4976312426487315
% es.Ey (V/m) @ t=0.56
0.09429330473680592
% es.Ez (V/m) @ t=0.56
0.6054168428046771
% es.tEx (V/m) @ t=0.56
1.4976312426487297
% es.tEy (V/m) @ t=0.56
0
% es.tEz (V/m) @ t=0.56
0.6054168428046744
% V (V) @ t=0.56
0.008084443427219836
% es.normE (V/m) @ t=0.58
1.6362993563001589
% es.EX (V/m) @ t=0.58
1.51216144239919
% es.EY (V/m) @ t=0.58
0.09520815842419039
% es.EZ (V/m) @ t=0.58
0.6112906995399436
% es.tEX (V/m) @ t=0.58
1.51216144239919
% es.tEY (V/m) @ t=0.58
0
% es.tEZ (V/m) @ t=0.58
0.6112906995399419
% es.Ex (V/m) @ t=0.58
1.51216144239919
% es.Ey (V/m) @ t=0.58
0.09520815842419039
% es.Ez (V/m) @ t=0.58
0.6112906995399436
% es.tEx (V/m) @ t=0.58
1.51216144239919
% es.tEy (V/m) @ t=0.58
0
% es.tEz (V/m) @ t=0.58
0.6112906995399419
% V (V) @ t=0.58
0.008162878695336297
% es.normE (V/m) @ t=0.6
1.6520223947311234
% es.EX (V/m) @ t=0.6
1.5266916421496548
% es.EY (V/m) @ t=0.6
0.09612301211158097
% es.EZ (V/m) @ t=0.6
0.617164556275219
% es.tEX (V/m) @ t=0.6
1.526691642149654
% es.tEY (V/m) @ t=0.6
0
% es.tEZ (V/m) @ t=0.6
0.6171645562752208
% es.Ex (V/m) @ t=0.6
1.5266916421496548
% es.Ey (V/m) @ t=0.6
0.09612301211158097
% es.Ez (V/m) @ t=0.6
0.617164556275219
% es.tEx (V/m) @ t=0.6
1.526691642149654
% es.tEy (V/m) @ t=0.6
0
% es.tEz (V/m) @ t=0.6
0.6171645562752208
% V (V) @ t=0.6
0.008241313963452764
% es.normE (V/m) @ t=0.62
1.6677454331620738
% es.EX (V/m) @ t=0.62
1.5412218419001054
% es.EY (V/m) @ t=0.62
0.09703786579897244
% es.EZ (V/m) @ t=0.62
0.6230384130104865
% es.tEX (V/m) @ t=0.62
1.5412218419001045
% es.tEY (V/m) @ t=0.62
0
% es.tEZ (V/m) @ t=0.62
0.62303841301049
% es.Ex (V/m) @ t=0.62
1.5412218419001054
% es.Ey (V/m) @ t=0.62
0.09703786579897244
% es.Ez (V/m) @ t=0.62
0.6230384130104865
% es.tEx (V/m) @ t=0.62
1.5412218419001045
% es.tEy (V/m) @ t=0.62
0
% es.tEz (V/m) @ t=0.62
0.62303841301049
% V (V) @ t=0.62
0.008319749231569227
% es.normE (V/m) @ t=0.64
1.6834684715930384
% es.EX (V/m) @ t=0.64
1.5557520416505648
% es.EY (V/m) @ t=0.64
0.09795271948635698
% es.EZ (V/m) @ t=0.64
0.628912269745769
% es.tEX (V/m) @ t=0.64
1.5557520416505648
% es.tEY (V/m) @ t=0.64
0
% es.tEZ (V/m) @ t=0.64
0.6289122697457716
% es.Ex (V/m) @ t=0.64
1.5557520416505648
% es.Ey (V/m) @ t=0.64
0.09795271948635698
% es.Ez (V/m) @ t=0.64
0.628912269745769
% es.tEx (V/m) @ t=0.64
1.5557520416505648
% es.tEy (V/m) @ t=0.64
0
% es.tEz (V/m) @ t=0.64
0.6289122697457716
% V (V) @ t=0.64
0.008398184499685692
% es.normE (V/m) @ t=0.66
1.6991915100240036
% es.EX (V/m) @ t=0.66
1.5702822414010251
% es.EY (V/m) @ t=0.66
0.09886757317375383
% es.EZ (V/m) @ t=0.66
0.6347861264810486
% es.tEX (V/m) @ t=0.66
1.5702822414010251
% es.tEY (V/m) @ t=0.66
0
% es.tEZ (V/m) @ t=0.66
0.6347861264810479
% es.Ex (V/m) @ t=0.66
1.5702822414010251
% es.Ey (V/m) @ t=0.66
0.09886757317375383
% es.Ez (V/m) @ t=0.66
0.6347861264810486
% es.tEx (V/m) @ t=0.66
1.5702822414010251
% es.tEy (V/m) @ t=0.66
0
% es.tEz (V/m) @ t=0.66
0.6347861264810479
% V (V) @ t=0.66
0.008476619767802155
% es.normE (V/m) @ t=0.68
1.7149145484549622
% es.EX (V/m) @ t=0.68
1.5848124411514801
% es.EY (V/m) @ t=0.68
0.09978242686115602
% es.EZ (V/m) @ t=0.68
0.6406599832163233
% es.tEX (V/m) @ t=0.68
1.5848124411514801
% es.tEY (V/m) @ t=0.68
0
% es.tEZ (V/m) @ t=0.68
0.6406599832163216
% es.Ex (V/m) @ t=0.68
1.5848124411514801
% es.Ey (V/m) @ t=0.68
0.09978242686115602
% es.Ez (V/m) @ t=0.68
0.6406599832163233
% es.tEx (V/m) @ t=0.68
1.5848124411514801
% es.tEy (V/m) @ t=0.68
0
% es.tEz (V/m) @ t=0.68
0.6406599832163216
% V (V) @ t=0.68
0.008555055035918621
% es.normE (V/m) @ t=0.7
1.730637586885932
% es.EX (V/m) @ t=0.7
1.5993426409019498
% es.EY (V/m) @ t=0.7
0.10069728054854465
% es.EZ (V/m) @ t=0.7
0.6465338399515885
% es.tEX (V/m) @ t=0.7
1.5993426409019493
% es.tEY (V/m) @ t=0.7
0
% es.tEZ (V/m) @ t=0.7
0.6465338399515868
% es.Ex (V/m) @ t=0.7
1.5993426409019498
% es.Ey (V/m) @ t=0.7
0.10069728054854465
% es.Ez (V/m) @ t=0.7
0.6465338399515885
% es.tEx (V/m) @ t=0.7
1.5993426409019493
% es.tEy (V/m) @ t=0.7
0
% es.tEz (V/m) @ t=0.7
0.6465338399515868
% V (V) @ t=0.7
0.008633490304035084
% es.normE (V/m) @ t=0.72
1.7463606253168977
% es.EX (V/m) @ t=0.72
1.6138728406524105
% es.EY (V/m) @ t=0.72
0.10161213423592841
% es.EZ (V/m) @ t=0.72
0.652407696686869
% es.tEX (V/m) @ t=0.72
1.613872840652414
% es.tEY (V/m) @ t=0.72
0
% es.tEZ (V/m) @ t=0.72
0.6524076966868715
% es.Ex (V/m) @ t=0.72
1.6138728406524105
% es.Ey (V/m) @ t=0.72
0.10161213423592841
% es.Ez (V/m) @ t=0.72
0.652407696686869
% es.tEx (V/m) @ t=0.72
1.613872840652414
% es.tEy (V/m) @ t=0.72
0
% es.tEz (V/m) @ t=0.72
0.6524076966868715
% V (V) @ t=0.72
0.008711925572151549
% es.normE (V/m) @ t=0.74
1.7620836637478585
% es.EX (V/m) @ t=0.74
1.628403040402869
% es.EY (V/m) @ t=0.74
0.10252698792331971
% es.EZ (V/m) @ t=0.74
0.6582815534221349
% es.tEX (V/m) @ t=0.74
1.628403040402869
% es.tEY (V/m) @ t=0.74
0
% es.tEZ (V/m) @ t=0.74
0.6582815534221349
% es.Ex (V/m) @ t=0.74
1.628403040402869
% es.Ey (V/m) @ t=0.74
0.10252698792331971
% es.Ez (V/m) @ t=0.74
0.6582815534221349
% es.tEx (V/m) @ t=0.74
1.628403040402869
% es.tEy (V/m) @ t=0.74
0
% es.tEz (V/m) @ t=0.74
0.6582815534221349
% V (V) @ t=0.74
0.008790360840268012
% es.normE (V/m) @ t=0.76
1.7778067021788226
% es.EX (V/m) @ t=0.76
1.6429332401533223
% es.EY (V/m) @ t=0.76
0.10344184161071301
% es.EZ (V/m) @ t=0.76
0.6641554101574236
% es.tEX (V/m) @ t=0.76
1.6429332401533223
% es.tEY (V/m) @ t=0.76
0
% es.tEZ (V/m) @ t=0.76
0.6641554101574219
% es.Ex (V/m) @ t=0.76
1.6429332401533223
% es.Ey (V/m) @ t=0.76
0.10344184161071301
% es.Ez (V/m) @ t=0.76
0.6641554101574236
% es.tEx (V/m) @ t=0.76
1.6429332401533223
% es.tEy (V/m) @ t=0.76
0
% es.tEz (V/m) @ t=0.76
0.6641554101574219
% V (V) @ t=0.76
0.008868796108384478
% es.normE (V/m) @ t=0.78
1.7935297406097805
% es.EX (V/m) @ t=0.78
1.6574634399037707
% es.EY (V/m) @ t=0.78
0.10435669529810376
% es.EZ (V/m) @ t=0.78
0.6700292668927068
% es.tEX (V/m) @ t=0.78
1.6574634399037755
% es.tEY (V/m) @ t=0.78
0
% es.tEZ (V/m) @ t=0.78
0.6700292668927088
% es.Ex (V/m) @ t=0.78
1.6574634399037707
% es.Ey (V/m) @ t=0.78
0.10435669529810376
% es.Ez (V/m) @ t=0.78
0.6700292668927068
% es.tEx (V/m) @ t=0.78
1.6574634399037755
% es.tEy (V/m) @ t=0.78
0
% es.tEz (V/m) @ t=0.78
0.6700292668927088
% V (V) @ t=0.78
0.008947231376500943
% es.normE (V/m) @ t=0.8
1.8092527790407502
% es.EX (V/m) @ t=0.8
1.6719936396542363
% es.EY (V/m) @ t=0.8
0.10527154898548541
% es.EZ (V/m) @ t=0.8
0.675903123627978
% es.tEX (V/m) @ t=0.8
1.6719936396542483
% es.tEY (V/m) @ t=0.8
0
% es.tEZ (V/m) @ t=0.8
0.6759031236279753
% es.Ex (V/m) @ t=0.8
1.6719936396542363
% es.Ey (V/m) @ t=0.8
0.10527154898548541
% es.Ez (V/m) @ t=0.8
0.675903123627978
% es.tEx (V/m) @ t=0.8
1.6719936396542483
% es.tEy (V/m) @ t=0.8
0
% es.tEz (V/m) @ t=0.8
0.6759031236279753
% V (V) @ t=0.8
0.009025666644617406
% es.normE (V/m) @ t=0.82
1.8253826859376976
% es.EX (V/m) @ t=0.82
1.686899628212048
% es.EY (V/m) @ t=0.82
0.10621027130601324
% es.EZ (V/m) @ t=0.82
0.6819295214775558
% es.tEX (V/m) @ t=0.82
1.686899628212048
% es.tEY (V/m) @ t=0.82
0
% es.tEZ (V/m) @ t=0.82
0.6819295214775587
% es.Ex (V/m) @ t=0.82
1.686899628212048
% es.Ey (V/m) @ t=0.82
0.10621027130601324
% es.Ez (V/m) @ t=0.82
0.6819295214775558
% es.tEx (V/m) @ t=0.82
1.686899628212048
% es.tEy (V/m) @ t=0.82
0
% es.tEz (V/m) @ t=0.82
0.6819295214775587
% V (V) @ t=0.82
0.009106108501529323
% es.normE (V/m) @ t=0.84
1.8429426918482847
% es.EX (V/m) @ t=0.84
1.703126474114256
% es.EY (V/m) @ t=0.84
0.10723288931144237
% es.EZ (V/m) @ t=0.84
0.6884920849797502
% es.tEX (V/m) @ t=0.84
1.7031264741142502
% es.tEY (V/m) @ t=0.84
0
% es.tEZ (V/m) @ t=0.84
0.6884920849797505
% es.Ex (V/m) @ t=0.84
1.703126474114256
% es.Ey (V/m) @ t=0.84
0.10723288931144237
% es.Ez (V/m) @ t=0.84
0.6884920849797502
% es.tEx (V/m) @ t=0.84
1.7031264741142502
% es.tEy (V/m) @ t=0.84
0
% es.tEz (V/m) @ t=0.84
0.6884920849797505
% V (V) @ t=0.84
0.009193603302796758
% es.normE (V/m) @ t=0.86
1.8605026977641503
% es.EX (V/m) @ t=0.86
1.7193533200164515
% es.EY (V/m) @ t=0.86
0.10825550731687428
% es.EZ (V/m) @ t=0.86
0.6950546484819478
% es.tEX (V/m) @ t=0.86
1.719353320016456
% es.tEY (V/m) @ t=0.86
0
% es.tEZ (V/m) @ t=0.86
0.6950546484819444
% es.Ex (V/m) @ t=0.86
1.7193533200164515
% es.Ey (V/m) @ t=0.86
0.10825550731687428
% es.Ez (V/m) @ t=0.86
0.6950546484819478
% es.tEx (V/m) @ t=0.86
1.719353320016456
% es.tEy (V/m) @ t=0.86
0
% es.tEz (V/m) @ t=0.86
0.6950546484819444
% V (V) @ t=0.86
0.009281098104064193
% es.normE (V/m) @ t=0.88
1.878062703685168
% es.EX (V/m) @ t=0.88
1.7355801659186563
% es.EY (V/m) @ t=0.88
0.10927812532229464
% es.EZ (V/m) @ t=0.88
0.7016172119841562
% es.tEX (V/m) @ t=0.88
1.7355801659186536
% es.tEY (V/m) @ t=0.88
0
% es.tEZ (V/m) @ t=0.88
0.7016172119841597
% es.Ex (V/m) @ t=0.88
1.7355801659186563
% es.Ey (V/m) @ t=0.88
0.10927812532229464
% es.Ez (V/m) @ t=0.88
0.7016172119841562
% es.tEx (V/m) @ t=0.88
1.7355801659186536
% es.tEy (V/m) @ t=0.88
0
% es.tEz (V/m) @ t=0.88
0.7016172119841597
% V (V) @ t=0.88
0.009368592905331631
% es.normE (V/m) @ t=0.9
1.8956227096111835
% es.EX (V/m) @ t=0.9
1.751807011820861
% es.EY (V/m) @ t=0.9
0.11030074332772377
% es.EZ (V/m) @ t=0.9
0.7081797754863643
% es.tEX (V/m) @ t=0.9
1.751807011820869
% es.tEY (V/m) @ t=0.9
0
% es.tEZ (V/m) @ t=0.9
0.7081797754863643
% es.Ex (V/m) @ t=0.9
1.751807011820861
% es.Ey (V/m) @ t=0.9
0.11030074332772377
% es.Ez (V/m) @ t=0.9
0.7081797754863643
% es.tEx (V/m) @ t=0.9
1.751807011820869
% es.tEy (V/m) @ t=0.9
0
% es.tEz (V/m) @ t=0.9
0.7081797754863643
% V (V) @ t=0.9
0.009456087706599068
% es.normE (V/m) @ t=0.92
1.9131827155420502
% es.EX (V/m) @ t=0.92
1.7680338577230605
% es.EY (V/m) @ t=0.92
0.11132336133315557
% es.EZ (V/m) @ t=0.92
0.7147423389885588
% es.tEX (V/m) @ t=0.92
1.7680338577230685
% es.tEY (V/m) @ t=0.92
0
% es.tEZ (V/m) @ t=0.92
0.7147423389885632
% es.Ex (V/m) @ t=0.92
1.7680338577230605
% es.Ey (V/m) @ t=0.92
0.11132336133315557
% es.Ez (V/m) @ t=0.92
0.7147423389885588
% es.tEx (V/m) @ t=0.92
1.7680338577230685
% es.tEy (V/m) @ t=0.92
0
% es.tEz (V/m) @ t=0.92
0.7147423389885632
% V (V) @ t=0.92
0.009543582507866504
% es.normE (V/m) @ t=0.94
1.9307427214776443
% es.EX (V/m) @ t=0.94
1.7842607036252547
% es.EY (V/m) @ t=0.94
0.11234597933858015
% es.EZ (V/m) @ t=0.94
0.7213049024907696
% es.tEX (V/m) @ t=0.94
1.7842607036252556
% es.tEY (V/m) @ t=0.94
0
% es.tEZ (V/m) @ t=0.94
0.7213049024907696
% es.Ex (V/m) @ t=0.94
1.7842607036252547
% es.Ey (V/m) @ t=0.94
0.11234597933858015
% es.Ez (V/m) @ t=0.94
0.7213049024907696
% es.tEx (V/m) @ t=0.94
1.7842607036252556
% es.tEy (V/m) @ t=0.94
0
% es.tEz (V/m) @ t=0.94
0.7213049024907696
% V (V) @ t=0.94
0.00963107730913394
% es.normE (V/m) @ t=0.96
1.9483027274178517
% es.EX (V/m) @ t=0.96
1.8004875495274684
% es.EY (V/m) @ t=0.96
0.11336859734401195
% es.EZ (V/m) @ t=0.96
0.7278674659929685
% es.tEX (V/m) @ t=0.96
1.8004875495274621
% es.tEY (V/m) @ t=0.96
0
% es.tEZ (V/m) @ t=0.96
0.7278674659929738
% es.Ex (V/m) @ t=0.96
1.8004875495274684
% es.Ey (V/m) @ t=0.96
0.11336859734401195
% es.Ez (V/m) @ t=0.96
0.7278674659929685
% es.tEx (V/m) @ t=0.96
1.8004875495274621
% es.tEy (V/m) @ t=0.96
0
% es.tEz (V/m) @ t=0.96
0.7278674659929738
% V (V) @ t=0.96
0.009718572110401376
% es.normE (V/m) @ t=0.98
1.9658627333625134
% es.EX (V/m) @ t=0.98
1.816714395429659
% es.EY (V/m) @ t=0.98
0.1143912153494393
% es.EZ (V/m) @ t=0.98
0.7344300294951642
% es.tEX (V/m) @ t=0.98
1.816714395429667
% es.tEY (V/m) @ t=0.98
0
% es.tEZ (V/m) @ t=0.98
0.7344300294951678
% es.Ex (V/m) @ t=0.98
1.816714395429659
% es.Ey (V/m) @ t=0.98
0.1143912153494393
% es.Ez (V/m) @ t=0.98
0.7344300294951642
% es.tEx (V/m) @ t=0.98
1.816714395429667
% es.tEy (V/m) @ t=0.98
0
% es.tEz (V/m) @ t=0.98
0.7344300294951678
% V (V) @ t=0.98
0.009806066911668812
% es.normE (V/m) @ t=1
1.9834227393115476
% es.EX (V/m) @ t=1
1.8329412413318638
% es.EY (V/m) @ t=1
0.11541383335486588
% es.EZ (V/m) @ t=1
0.7409925929973682
% es.tEX (V/m) @ t=1
1.8329412413318682
% es.tEY (V/m) @ t=1
0
% es.tEZ (V/m) @ t=1
0.7409925929973671
% es.Ex (V/m) @ t=1
1.8329412413318638
% es.Ey (V/m) @ t=1
0.11541383335486588
% es.Ez (V/m) @ t=1
0.7409925929973682
% es.tEx (V/m) @ t=1
1.8329412413318682
% es.tEy (V/m) @ t=1
0
% es.tEz (V/m) @ t=1
0.7409925929973671
% V (V) @ t=1
0.009893561712936249
% es.normE (V/m) @ t=1.02
2.0009827452648232
% es.EX (V/m) @ t=1.02
1.8491680872340686
% es.EY (V/m) @ t=1.02
0.11643645136029779
% es.EZ (V/m) @ t=1.02
0.7475551564995657
% es.tEX (V/m) @ t=1.02
1.8491680872340588
% es.tEY (V/m) @ t=1.02
0
% es.tEZ (V/m) @ t=1.02
0.7475551564995646
% es.Ex (V/m) @ t=1.02
1.8491680872340686
% es.Ey (V/m) @ t=1.02
0.11643645136029779
% es.Ez (V/m) @ t=1.02
0.7475551564995657
% es.tEx (V/m) @ t=1.02
1.8491680872340588
% es.tEy (V/m) @ t=1.02
0
% es.tEz (V/m) @ t=1.02
0.7475551564995646
% V (V) @ t=1.02
0.009981056514203685
% es.normE (V/m) @ t=1.04
2.018542751222228
% es.EX (V/m) @ t=1.04
1.8653949331362698
% es.EY (V/m) @ t=1.04
0.11745906936572792
% es.EZ (V/m) @ t=1.04
0.7541177200017668
% es.tEX (V/m) @ t=1.04
1.8653949331362814
% es.tEY (V/m) @ t=1.04
0
% es.tEZ (V/m) @ t=1.04
0.7541177200017763
% es.Ex (V/m) @ t=1.04
1.8653949331362698
% es.Ey (V/m) @ t=1.04
0.11745906936572792
% es.Ez (V/m) @ t=1.04
0.7541177200017668
% es.tEx (V/m) @ t=1.04