% Model:              1 neuron.mph
% Version:            COMSOL 6.1.0.252
% Date:               Mar 22 2023, 20:12
% Dimension:          0
% Nodes:              14017
% Expressions:        14017
% Description:        Electric field norm, Electric field, X component, Electric field, Y component, Electric field, Z component, Tangential electric field, X component, Tangential electric field, Y component, Tangential electric field, Z component, Electric field, x component, Electric field, y component, Electric field, z component, Tangential electric field, x component, Tangential electric field, y component, Tangential electric field, z component, Electric potential
% Length unit:        mm
% x
1
% y
12.2
% z
1
% es.normE (V/m) @ t=0
1.2139935573102996
% es.EX (V/m) @ t=0
0.8243179029570697
% es.EY (V/m) @ t=0
0.23411665199065723
% es.EZ (V/m) @ t=0
0.837542822848949
% es.tEX (V/m) @ t=0
0.8243179029570769
% es.tEY (V/m) @ t=0
0
% es.tEZ (V/m) @ t=0
0.8375428228489383
% es.Ex (V/m) @ t=0
0.8243179029570697
% es.Ey (V/m) @ t=0
0.23411665199065723
% es.Ez (V/m) @ t=0
0.837542822848949
% es.tEx (V/m) @ t=0
0.8243179029570769
% es.tEy (V/m) @ t=0
0
% es.tEz (V/m) @ t=0
0.8375428228489383
% V (V) @ t=0
0.011383963186532682
% es.normE (V/m) @ t=0.02
1.0485447349775958
% es.EX (V/m) @ t=0.02
0.7119759342105603
% es.EY (V/m) @ t=0.02
0.20221011992973104
% es.EZ (V/m) @ t=0.02
0.7233984990524922
% es.tEX (V/m) @ t=0.02
0.7119759342105283
% es.tEY (V/m) @ t=0.02
0
% es.tEZ (V/m) @ t=0.02
0.723398499052486
% es.Ex (V/m) @ t=0.02
0.7119759342105603
% es.Ey (V/m) @ t=0.02
0.20221011992973104
% es.Ez (V/m) @ t=0.02
0.7233984990524922
% es.tEx (V/m) @ t=0.02
0.7119759342105283
% es.tEy (V/m) @ t=0.02
0
% es.tEz (V/m) @ t=0.02
0.723398499052486
% V (V) @ t=0.02
0.00983250247956482
% es.normE (V/m) @ t=0.04
1.0581962420198618
% es.EX (V/m) @ t=0.04
0.718529436874114
% es.EY (V/m) @ t=0.04
0.20407139700894739
% es.EZ (V/m) @ t=0.04
0.7300571427531359
% es.tEX (V/m) @ t=0.04
0.7185294368740927
% es.tEY (V/m) @ t=0.04
0
% es.tEZ (V/m) @ t=0.04
0.7300571427531253
% es.Ex (V/m) @ t=0.04
0.718529436874114
% es.Ey (V/m) @ t=0.04
0.20407139700894739
% es.Ez (V/m) @ t=0.04
0.7300571427531359
% es.tEx (V/m) @ t=0.04
0.7185294368740927
% es.tEy (V/m) @ t=0.04
0
% es.tEz (V/m) @ t=0.04
0.7300571427531253
% V (V) @ t=0.04
0.009923007418574988
% es.normE (V/m) @ t=0.06
1.0679244720924745
% es.EX (V/m) @ t=0.06
0.7251350354727535
% es.EY (V/m) @ t=0.06
0.2059474698341699
% es.EZ (V/m) @ t=0.06
0.7367687183310947
% es.tEX (V/m) @ t=0.06
0.7251350354727322
% es.tEY (V/m) @ t=0.06
0
% es.tEZ (V/m) @ t=0.06
0.736768718331092
% es.Ex (V/m) @ t=0.06
0.7251350354727535
% es.Ey (V/m) @ t=0.06
0.2059474698341699
% es.Ez (V/m) @ t=0.06
0.7367687183310947
% es.tEx (V/m) @ t=0.06
0.7251350354727322
% es.tEy (V/m) @ t=0.06
0
% es.tEz (V/m) @ t=0.06
0.736768718331092
% V (V) @ t=0.06
0.010014231825015155
% es.normE (V/m) @ t=0.08
1.0778250422854463
% es.EX (V/m) @ t=0.08
0.7318576554383434
% es.EY (V/m) @ t=0.08
0.20785677879166364
% es.EZ (V/m) @ t=0.08
0.7435991921705964
% es.tEX (V/m) @ t=0.08
0.7318576554383185
% es.tEY (V/m) @ t=0.08
0
% es.tEZ (V/m) @ t=0.08
0.743599192170592
% es.Ex (V/m) @ t=0.08
0.7318576554383434
% es.Ey (V/m) @ t=0.08
0.20785677879166364
% es.Ez (V/m) @ t=0.08
0.7435991921705964
% es.tEx (V/m) @ t=0.08
0.7318576554383185
% es.tEy (V/m) @ t=0.08
0
% es.tEz (V/m) @ t=0.08
0.743599192170592
% V (V) @ t=0.08
0.01010707226214622
% es.normE (V/m) @ t=0.1
1.0877958590383696
% es.EX (V/m) @ t=0.1
0.7386279738067252
% es.EY (V/m) @ t=0.1
0.20977963493681884
% es.EZ (V/m) @ t=0.1
0.7504781294429579
% es.tEX (V/m) @ t=0.1
0.7386279738067003
% es.tEY (V/m) @ t=0.1
0
% es.tEZ (V/m) @ t=0.1
0.7504781294429534
% es.Ex (V/m) @ t=0.1
0.7386279738067252
% es.Ey (V/m) @ t=0.1
0.20977963493681884
% es.Ez (V/m) @ t=0.1
0.7504781294429579
% es.tEx (V/m) @ t=0.1
0.7386279738067003
% es.tEy (V/m) @ t=0.1
0
% es.tEz (V/m) @ t=0.1
0.7504781294429534
% V (V) @ t=0.1
0.010200571400202594
% es.normE (V/m) @ t=0.12
1.0977666757912756
% es.EX (V/m) @ t=0.12
0.7453982921750892
% es.EY (V/m) @ t=0.12
0.21170249108197936
% es.EZ (V/m) @ t=0.12
0.7573570667153069
% es.tEX (V/m) @ t=0.12
0.7453982921750821
% es.tEY (V/m) @ t=0.12
0
% es.tEZ (V/m) @ t=0.12
0.7573570667153007
% es.Ex (V/m) @ t=0.12
0.7453982921750892
% es.Ey (V/m) @ t=0.12
0.21170249108197936
% es.Ez (V/m) @ t=0.12
0.7573570667153069
% es.tEx (V/m) @ t=0.12
0.7453982921750821
% es.tEy (V/m) @ t=0.12
0
% es.tEz (V/m) @ t=0.12
0.7573570667153007
% V (V) @ t=0.12
0.010294070538258968
% es.normE (V/m) @ t=0.14
1.107957980767055
% es.EX (V/m) @ t=0.14
0.7523183248970717
% es.EY (V/m) @ t=0.14
0.21366786748194677
% es.EZ (V/m) @ t=0.14
0.7643881207536714
% es.tEX (V/m) @ t=0.14
0.7523183248970611
% es.tEY (V/m) @ t=0.14
0
% es.tEZ (V/m) @ t=0.14
0.764388120753658
% es.Ex (V/m) @ t=0.14
0.7523183248970717
% es.Ey (V/m) @ t=0.14
0.21366786748194677
% es.Ez (V/m) @ t=0.14
0.7643881207536714
% es.tEx (V/m) @ t=0.14
0.7523183248970611
% es.tEy (V/m) @ t=0.14
0
% es.tEz (V/m) @ t=0.14
0.764388120753658
% V (V) @ t=0.14
0.010389637302215402
% es.normE (V/m) @ t=0.16
1.118441009058094
% es.EX (V/m) @ t=0.16
0.7594364415212915
% es.EY (V/m) @ t=0.16
0.21568950153378097
% es.EZ (V/m) @ t=0.16
0.7716204372753914
% es.tEX (V/m) @ t=0.16
0.759436441521288
% es.tEY (V/m) @ t=0.16
0
% es.tEZ (V/m) @ t=0.16
0.7716204372753808
% es.Ex (V/m) @ t=0.16
0.7594364415212915
% es.Ey (V/m) @ t=0.16
0.21568950153378097
% es.Ez (V/m) @ t=0.16
0.7716204372753914
% es.tEx (V/m) @ t=0.16
0.759436441521288
% es.tEy (V/m) @ t=0.16
0
% es.tEz (V/m) @ t=0.16
0.7716204372753808
% V (V) @ t=0.16
0.010487939698372417
% es.normE (V/m) @ t=0.18
1.1289240373491707
% es.EX (V/m) @ t=0.18
0.7665545581455504
% es.EY (V/m) @ t=0.18
0.2177111355856276
% es.EZ (V/m) @ t=0.18
0.7788527537971222
% es.tEX (V/m) @ t=0.18
0.7665545581455433
% es.tEY (V/m) @ t=0.18
0
% es.tEZ (V/m) @ t=0.18
0.7788527537971035
% es.Ex (V/m) @ t=0.18
0.7665545581455504
% es.Ey (V/m) @ t=0.18
0.2177111355856276
% es.Ez (V/m) @ t=0.18
0.7788527537971222
% es.tEx (V/m) @ t=0.18
0.7665545581455433
% es.tEy (V/m) @ t=0.18
0
% es.tEz (V/m) @ t=0.18
0.7788527537971035
% V (V) @ t=0.18
0.010586242094529432
% es.normE (V/m) @ t=0.2
1.1394070656402038
% es.EX (V/m) @ t=0.2
0.7736726747697844
% es.EY (V/m) @ t=0.2
0.219732769637492
% es.EZ (V/m) @ t=0.2
0.7860850703188191
% es.tEX (V/m) @ t=0.2
0.773672674769756
% es.tEY (V/m) @ t=0.2
0
% es.tEZ (V/m) @ t=0.2
0.786085070318812
% es.Ex (V/m) @ t=0.2
0.7736726747697844
% es.Ey (V/m) @ t=0.2
0.219732769637492
% es.Ez (V/m) @ t=0.2
0.7860850703188191
% es.tEx (V/m) @ t=0.2
0.773672674769756
% es.tEy (V/m) @ t=0.2
0
% es.tEz (V/m) @ t=0.2
0.786085070318812
% V (V) @ t=0.2
0.010684544490686447
% es.normE (V/m) @ t=0.22
1.1498900939312735
% es.EX (V/m) @ t=0.22
0.7807907913940255
% es.EY (V/m) @ t=0.22
0.22175440368931731
% es.EZ (V/m) @ t=0.22
0.7933173868405641
% es.tEX (V/m) @ t=0.22
0.7807907913940397
% es.tEY (V/m) @ t=0.22
0
% es.tEZ (V/m) @ t=0.22
0.793317386840549
% es.Ex (V/m) @ t=0.22
0.7807907913940255
% es.Ey (V/m) @ t=0.22
0.22175440368931731
% es.Ez (V/m) @ t=0.22
0.7933173868405641
% es.tEx (V/m) @ t=0.22
0.7807907913940397
% es.tEy (V/m) @ t=0.22
0
% es.tEz (V/m) @ t=0.22
0.793317386840549
% V (V) @ t=0.22
0.010782846886843462
% es.normE (V/m) @ t=0.24
1.1603731222222937
% es.EX (V/m) @ t=0.24
0.7879089080182382
% es.EY (V/m) @ t=0.24
0.22377603774111599
% es.EZ (V/m) @ t=0.24
0.8005497033622744
% es.tEX (V/m) @ t=0.24
0.787908908018224
% es.tEY (V/m) @ t=0.24
0
% es.tEZ (V/m) @ t=0.24
0.8005497033622575
% es.Ex (V/m) @ t=0.24
0.7879089080182382
% es.Ey (V/m) @ t=0.24
0.22377603774111599
% es.Ez (V/m) @ t=0.24
0.8005497033622744
% es.tEx (V/m) @ t=0.24
0.787908908018224
% es.tEy (V/m) @ t=0.24
0
% es.tEz (V/m) @ t=0.24
0.8005497033622575
% V (V) @ t=0.24
0.010881149283000479
% es.normE (V/m) @ t=0.26
1.1708561505133275
% es.EX (V/m) @ t=0.26
0.7950270246424544
% es.EY (V/m) @ t=0.26
0.22579767179295906
% es.EZ (V/m) @ t=0.26
0.8077820198839909
% es.tEX (V/m) @ t=0.26
0.7950270246424651
% es.tEY (V/m) @ t=0.26
0
% es.tEZ (V/m) @ t=0.26
0.8077820198839802
% es.Ex (V/m) @ t=0.26
0.7950270246424544
% es.Ey (V/m) @ t=0.26
0.22579767179295906
% es.Ez (V/m) @ t=0.26
0.8077820198839909
% es.tEx (V/m) @ t=0.26
0.7950270246424651
% es.tEy (V/m) @ t=0.26
0
% es.tEz (V/m) @ t=0.26
0.8077820198839802
% V (V) @ t=0.26
0.010979451679157494
% es.normE (V/m) @ t=0.28
1.182337655975323
% es.EX (V/m) @ t=0.28
0.8028231168411359
% es.EY (V/m) @ t=0.28
0.22801184339809666
% es.EZ (V/m) @ t=0.28
0.8157032051616726
% es.tEX (V/m) @ t=0.28
0.8028231168411395
% es.tEY (V/m) @ t=0.28
0
% es.tEZ (V/m) @ t=0.28
0.8157032051616611
% es.Ex (V/m) @ t=0.28
0.8028231168411359
% es.Ey (V/m) @ t=0.28
0.22801184339809666
% es.Ez (V/m) @ t=0.28
0.8157032051616726
% es.tEx (V/m) @ t=0.28
0.8028231168411395
% es.tEy (V/m) @ t=0.28
0
% es.tEz (V/m) @ t=0.28
0.8157032051616611
% V (V) @ t=0.28
0.011087118566836729
% es.normE (V/m) @ t=0.3
1.1939676529477508
% es.EX (V/m) @ t=0.3
0.8107200361994273
% es.EY (V/m) @ t=0.3
0.2302546487996402
% es.EZ (V/m) @ t=0.3
0.823726837610975
% es.tEX (V/m) @ t=0.3
0.8107200361994131
% es.tEY (V/m) @ t=0.3
0
% es.tEZ (V/m) @ t=0.3
0.8237268376109625
% es.Ex (V/m) @ t=0.3
0.8107200361994273
% es.Ey (V/m) @ t=0.3
0.2302546487996402
% es.Ez (V/m) @ t=0.3
0.823726837610975
% es.tEx (V/m) @ t=0.3
0.8107200361994131
% es.tEy (V/m) @ t=0.3
0
% es.tEz (V/m) @ t=0.3
0.8237268376109625
% V (V) @ t=0.3
0.01119617812280255
% es.normE (V/m) @ t=0.32
1.2055976499201497
% es.EX (V/m) @ t=0.32
0.8186169555576832
% es.EY (V/m) @ t=0.32
0.23249745420123524
% es.EZ (V/m) @ t=0.32
0.831750470060256
% es.tEX (V/m) @ t=0.32
0.8186169555576868
% es.tEY (V/m) @ t=0.32
0
% es.tEZ (V/m) @ t=0.32
0.8317504700602427
% es.Ex (V/m) @ t=0.32
0.8186169555576832
% es.Ey (V/m) @ t=0.32
0.23249745420123524
% es.Ez (V/m) @ t=0.32
0.831750470060256
% es.tEx (V/m) @ t=0.32
0.8186169555576868
% es.tEy (V/m) @ t=0.32
0
% es.tEz (V/m) @ t=0.32
0.8317504700602427
% V (V) @ t=0.32
0.011305237678768378
% es.normE (V/m) @ t=0.34
1.2172276468925851
% es.EX (V/m) @ t=0.34
0.8265138749159533
% es.EY (V/m) @ t=0.34
0.2347402596028605
% es.EZ (V/m) @ t=0.34
0.8397741025095558
% es.tEX (V/m) @ t=0.34
0.8265138749159604
% es.tEY (V/m) @ t=0.34
0
% es.tEZ (V/m) @ t=0.34
0.83977410250953
% es.Ex (V/m) @ t=0.34
0.8265138749159533
% es.Ey (V/m) @ t=0.34
0.2347402596028605
% es.Ez (V/m) @ t=0.34
0.8397741025095558
% es.tEx (V/m) @ t=0.34
0.8265138749159604
% es.tEy (V/m) @ t=0.34
0
% es.tEz (V/m) @ t=0.34
0.83977410250953
% V (V) @ t=0.34
0.011414297234734205
% es.normE (V/m) @ t=0.36
1.2288576438650034
% es.EX (V/m) @ t=0.36
0.8344107942742482
% es.EY (V/m) @ t=0.36
0.23698306500437738
% es.EZ (V/m) @ t=0.36
0.8477977349588466
% es.tEX (V/m) @ t=0.36
0.8344107942742482
% es.tEY (V/m) @ t=0.36
0
% es.tEZ (V/m) @ t=0.36
0.8477977349588244
% es.Ex (V/m) @ t=0.36
0.8344107942742482
% es.Ey (V/m) @ t=0.36
0.23698306500437738
% es.Ez (V/m) @ t=0.36
0.8477977349588466
% es.tEx (V/m) @ t=0.36
0.8344107942742482
% es.tEy (V/m) @ t=0.36
0
% es.tEz (V/m) @ t=0.36
0.8477977349588244
% V (V) @ t=0.36
0.011523356790700028
% es.normE (V/m) @ t=0.38
1.2404876408374308
% es.EX (V/m) @ t=0.38
0.8423077136325361
% es.EY (V/m) @ t=0.38
0.23922587040596177
% es.EZ (V/m) @ t=0.38
0.8558213674081339
% es.tEX (V/m) @ t=0.38
0.8423077136325645
% es.tEY (V/m) @ t=0.38
0
% es.tEZ (V/m) @ t=0.38
0.8558213674081117
% es.Ex (V/m) @ t=0.38
0.8423077136325361
% es.Ey (V/m) @ t=0.38
0.23922587040596177
% es.Ez (V/m) @ t=0.38
0.8558213674081339
% es.tEx (V/m) @ t=0.38
0.8423077136325645
% es.tEy (V/m) @ t=0.38
0
% es.tEz (V/m) @ t=0.38
0.8558213674081117
% V (V) @ t=0.38
0.011632416346665852
% es.normE (V/m) @ t=0.4
1.2521176378098977
% es.EX (V/m) @ t=0.4
0.8502046329908559
% es.EY (V/m) @ t=0.4
0.24146867580753018
% es.EZ (V/m) @ t=0.4
0.8638449998574487
% es.tEX (V/m) @ t=0.4
0.8502046329908239
% es.tEY (V/m) @ t=0.4
0
% es.tEZ (V/m) @ t=0.4
0.8638449998574345
% es.Ex (V/m) @ t=0.4
0.8502046329908559
% es.Ey (V/m) @ t=0.4
0.24146867580753018
% es.Ez (V/m) @ t=0.4
0.8638449998574487
% es.tEx (V/m) @ t=0.4
0.8502046329908239
% es.tEy (V/m) @ t=0.4
0
% es.tEz (V/m) @ t=0.4
0.8638449998574345
% V (V) @ t=0.4
0.011741475902631679
% es.normE (V/m) @ t=0.42
1.2637476347822996
% es.EX (V/m) @ t=0.42
0.858101552349126
% es.EY (V/m) @ t=0.42
0.24371148120904884
% es.EZ (V/m) @ t=0.42
0.8718686323067368
% es.tEX (V/m) @ t=0.42
0.858101552349126
% es.tEY (V/m) @ t=0.42
0
% es.tEZ (V/m) @ t=0.42
0.8718686323067217
% es.Ex (V/m) @ t=0.42
0.858101552349126
% es.Ey (V/m) @ t=0.42
0.24371148120904884
% es.Ez (V/m) @ t=0.42
0.8718686323067368
% es.tEx (V/m) @ t=0.42
0.858101552349126
% es.tEy (V/m) @ t=0.42
0
% es.tEz (V/m) @ t=0.42
0.8718686323067217
% V (V) @ t=0.42
0.011850535458597503
% es.normE (V/m) @ t=0.44
1.2753776317547423
% es.EX (V/m) @ t=0.44
0.865998471707421
% es.EY (V/m) @ t=0.44
0.24595428661069008
% es.EZ (V/m) @ t=0.44
0.8798922647560099
% es.tEX (V/m) @ t=0.44
0.8659984717073996
% es.tEY (V/m) @ t=0.44
0
% es.tEZ (V/m) @ t=0.44
0.8798922647560019
% es.Ex (V/m) @ t=0.44
0.865998471707421
% es.Ey (V/m) @ t=0.44
0.24595428661069008
% es.Ez (V/m) @ t=0.44
0.8798922647560099
% es.tEx (V/m) @ t=0.44
0.8659984717073996
% es.tEy (V/m) @ t=0.44
0
% es.tEz (V/m) @ t=0.44
0.8798922647560019
% V (V) @ t=0.44
0.01195959501456333
% es.normE (V/m) @ t=0.46
1.2870076287271721
% es.EX (V/m) @ t=0.46
0.8738953910656946
% es.EY (V/m) @ t=0.46
0.24819709201225137
% es.EZ (V/m) @ t=0.46
0.8879158972053247
% es.tEX (V/m) @ t=0.46
0.8738953910656733
% es.tEY (V/m) @ t=0.46
0
% es.tEZ (V/m) @ t=0.46
0.8879158972053176
% es.Ex (V/m) @ t=0.46
0.8738953910656946
% es.Ey (V/m) @ t=0.46
0.24819709201225137
% es.Ez (V/m) @ t=0.46
0.8879158972053247
% es.tEx (V/m) @ t=0.46
0.8738953910656733
% es.tEy (V/m) @ t=0.46
0
% es.tEz (V/m) @ t=0.46
0.8879158972053176
% V (V) @ t=0.46
0.012068654570529157
% es.normE (V/m) @ t=0.48
1.2986376256995804
% es.EX (V/m) @ t=0.48
0.8817923104239753
% es.EY (V/m) @ t=0.48
0.2504398974138109
% es.EZ (V/m) @ t=0.48
0.8959395296546013
% es.tEX (V/m) @ t=0.48
0.8817923104239469
% es.tEY (V/m) @ t=0.48
0
% es.tEZ (V/m) @ t=0.48
0.8959395296545978
% es.Ex (V/m) @ t=0.48
0.8817923104239753
% es.Ey (V/m) @ t=0.48
0.2504398974138109
% es.Ez (V/m) @ t=0.48
0.8959395296546013
% es.tEx (V/m) @ t=0.48
0.8817923104239469
% es.tEy (V/m) @ t=0.48
0
% es.tEz (V/m) @ t=0.48
0.8959395296545978
% V (V) @ t=0.48
0.01217771412649498
% es.normE (V/m) @ t=0.5
1.3102676226720142
% es.EX (V/m) @ t=0.5
0.8896892297822774
% es.EY (V/m) @ t=0.5
0.25268270281537397
% es.EZ (V/m) @ t=0.5
0.9039631621038815
% es.tEX (V/m) @ t=0.5
0.8896892297822774
% es.tEY (V/m) @ t=0.5
0
% es.tEZ (V/m) @ t=0.5
0.9039631621038708
% es.Ex (V/m) @ t=0.5
0.8896892297822774
% es.Ey (V/m) @ t=0.5
0.25268270281537397
% es.Ez (V/m) @ t=0.5
0.9039631621038815
% es.tEx (V/m) @ t=0.5
0.8896892297822774
% es.tEy (V/m) @ t=0.5
0
% es.tEz (V/m) @ t=0.5
0.9039631621038708
% V (V) @ t=0.5
0.012286773682460804
% es.normE (V/m) @ t=0.52
1.3218976196444392
% es.EX (V/m) @ t=0.52
0.8975861491404977
% es.EY (V/m) @ t=0.52
0.25492550821699744
% es.EZ (V/m) @ t=0.52
0.9119867945532043
% es.tEX (V/m) @ t=0.52
0.8975861491405084
% es.tEY (V/m) @ t=0.52
0
% es.tEZ (V/m) @ t=0.52
0.9119867945531865
% es.Ex (V/m) @ t=0.52
0.8975861491404977
% es.Ey (V/m) @ t=0.52
0.25492550821699744
% es.Ez (V/m) @ t=0.52
0.9119867945532043
% es.tEx (V/m) @ t=0.52
0.8975861491405084
% es.tEy (V/m) @ t=0.52
0
% es.tEz (V/m) @ t=0.52
0.9119867945531865
% V (V) @ t=0.52
0.012395833238426631
% es.normE (V/m) @ t=0.54
1.3344988175901777
% es.EX (V/m) @ t=0.54
0.9061425292078731
% es.EY (V/m) @ t=0.54
0.25735562003768564
% es.EZ (V/m) @ t=0.54
0.9206804574545568
% es.tEX (V/m) @ t=0.54
0.9061425292078553
% es.tEY (V/m) @ t=0.54
0
% es.tEZ (V/m) @ t=0.54
0.9206804574545444
% es.Ex (V/m) @ t=0.54
0.9061425292078731
% es.Ey (V/m) @ t=0.54
0.25735562003768564
% es.Ez (V/m) @ t=0.54
0.9206804574545568
% es.tEx (V/m) @ t=0.54
0.9061425292078553
% es.tEy (V/m) @ t=0.54
0
% es.tEz (V/m) @ t=0.54
0.9206804574545444
% V (V) @ t=0.54
0.012513999031856007
% es.normE (V/m) @ t=0.56
1.3474225750695217
% es.EX (V/m) @ t=0.56
0.9149179322628633
% es.EY (V/m) @ t=0.56
0.2598479408890224
% es.EZ (V/m) @ t=0.56
0.9295966538130376
% es.tEX (V/m) @ t=0.56
0.9149179322628527
% es.tEY (V/m) @ t=0.56
0
% es.tEZ (V/m) @ t=0.56
0.9295966538130287
% es.Ex (V/m) @ t=0.56
0.9149179322628633
% es.Ey (V/m) @ t=0.56
0.2598479408890224
% es.Ez (V/m) @ t=0.56
0.9295966538130376
% es.tEx (V/m) @ t=0.56
0.9149179322628527
% es.tEy (V/m) @ t=0.56
0
% es.tEz (V/m) @ t=0.56
0.9295966538130287
% V (V) @ t=0.56
0.012635189228874306
% es.normE (V/m) @ t=0.58
1.360346332548854
% es.EX (V/m) @ t=0.58
0.9236933353178145
% es.EY (V/m) @ t=0.58
0.26234026174045866
% es.EZ (V/m) @ t=0.58
0.9385128501715041
% es.tEX (V/m) @ t=0.58
0.9236933353178216
% es.tEY (V/m) @ t=0.58
0
% es.tEZ (V/m) @ t=0.58
0.9385128501714846
% es.Ex (V/m) @ t=0.58
0.9236933353178145
% es.Ey (V/m) @ t=0.58
0.26234026174045866
% es.Ez (V/m) @ t=0.58
0.9385128501715041
% es.tEx (V/m) @ t=0.58
0.9236933353178216
% es.tEy (V/m) @ t=0.58
0
% es.tEz (V/m) @ t=0.58
0.9385128501714846
% V (V) @ t=0.58
0.012756379425892604
% es.normE (V/m) @ t=0.6
1.3732700900281816
% es.EX (V/m) @ t=0.6
0.9324687383727905
% es.EY (V/m) @ t=0.6
0.2648325825918114
% es.EZ (V/m) @ t=0.6
0.9474290465299617
% es.tEX (V/m) @ t=0.6
0.9324687383727763
% es.tEY (V/m) @ t=0.6
0
% es.tEZ (V/m) @ t=0.6
0.9474290465299475
% es.Ex (V/m) @ t=0.6
0.9324687383727905
% es.Ey (V/m) @ t=0.6
0.2648325825918114
% es.Ez (V/m) @ t=0.6
0.9474290465299617
% es.tEx (V/m) @ t=0.6
0.9324687383727763
% es.tEy (V/m) @ t=0.6
0
% es.tEz (V/m) @ t=0.6
0.9474290465299475
% V (V) @ t=0.6
0.012877569622910905
% es.normE (V/m) @ t=0.62
1.3861938475075228
% es.EX (V/m) @ t=0.62
0.9412441414277595
% es.EY (V/m) @ t=0.62
0.26732490344320325
% es.EZ (V/m) @ t=0.62
0.9563452428884389
% es.tEX (V/m) @ t=0.62
0.9412441414277879
% es.tEY (V/m) @ t=0.62
0
% es.tEZ (V/m) @ t=0.62
0.9563452428884247
% es.Ex (V/m) @ t=0.62
0.9412441414277595
% es.Ey (V/m) @ t=0.62
0.26732490344320325
% es.Ez (V/m) @ t=0.62
0.9563452428884389
% es.tEx (V/m) @ t=0.62
0.9412441414277879
% es.tEy (V/m) @ t=0.62
0
% es.tEz (V/m) @ t=0.62
0.9563452428884247
% V (V) @ t=0.62
0.012998759819929201
% es.normE (V/m) @ t=0.64
1.3991176049868757
% es.EX (V/m) @ t=0.64
0.9500195444827249
% es.EY (V/m) @ t=0.64
0.2698172242946608
% es.EZ (V/m) @ t=0.64
0.9652614392469001
% es.tEX (V/m) @ t=0.64
0.9500195444827
% es.tEY (V/m) @ t=0.64
0
% es.tEZ (V/m) @ t=0.64
0.9652614392468948
% es.Ex (V/m) @ t=0.64
0.9500195444827249
% es.Ey (V/m) @ t=0.64
0.2698172242946608
% es.Ez (V/m) @ t=0.64
0.9652614392469001
% es.tEx (V/m) @ t=0.64
0.9500195444827
% es.tEy (V/m) @ t=0.64
0
% es.tEz (V/m) @ t=0.64
0.9652614392468948
% V (V) @ t=0.64
0.0131199500169475
% es.normE (V/m) @ t=0.66
1.4120413624661805
% es.EX (V/m) @ t=0.66
0.9587949475376796
% es.EY (V/m) @ t=0.66
0.2723095451460207
% es.EZ (V/m) @ t=0.66
0.9741776356053578
% es.tEX (V/m) @ t=0.66
0.9587949475376831
% es.tEY (V/m) @ t=0.66
0
% es.tEZ (V/m) @ t=0.66
0.9741776356053435
% es.Ex (V/m) @ t=0.66
0.9587949475376796
% es.Ey (V/m) @ t=0.66
0.2723095451460207
% es.Ez (V/m) @ t=0.66
0.9741776356053578
% es.tEx (V/m) @ t=0.66
0.9587949475376831
% es.tEy (V/m) @ t=0.66
0
% es.tEz (V/m) @ t=0.66
0.9741776356053435
% V (V) @ t=0.66
0.0132411402139658
% es.normE (V/m) @ t=0.68
1.424965119945531
% es.EX (V/m) @ t=0.68
0.9675703505926698
% es.EY (V/m) @ t=0.68
0.2748018659974125
% es.EZ (V/m) @ t=0.68
0.9830938319638278
% es.tEX (V/m) @ t=0.68
0.9675703505926521
% es.tEY (V/m) @ t=0.68
0
% es.tEZ (V/m) @ t=0.68
0.9830938319638065
% es.Ex (V/m) @ t=0.68
0.9675703505926698
% es.Ey (V/m) @ t=0.68
0.2748018659974125
% es.Ez (V/m) @ t=0.68
0.9830938319638278
% es.tEx (V/m) @ t=0.68
0.9675703505926521
% es.tEy (V/m) @ t=0.68
0
% es.tEz (V/m) @ t=0.68
0.9830938319638065
% V (V) @ t=0.68
0.013362330410984096
% es.normE (V/m) @ t=0.7
1.437888877424868
% es.EX (V/m) @ t=0.7
0.9763457536476174
% es.EY (V/m) @ t=0.7
0.2772941868488328
% es.EZ (V/m) @ t=0.7
0.9920100283222926
% es.tEX (V/m) @ t=0.7
0.9763457536476068
% es.tEY (V/m) @ t=0.7
0
% es.tEZ (V/m) @ t=0.7
0.9920100283222979
% es.Ex (V/m) @ t=0.7
0.9763457536476174
% es.Ey (V/m) @ t=0.7
0.2772941868488328
% es.Ez (V/m) @ t=0.7
0.9920100283222926
% es.tEx (V/m) @ t=0.7
0.9763457536476068
% es.tEy (V/m) @ t=0.7
0
% es.tEz (V/m) @ t=0.7
0.9920100283222979
% V (V) @ t=0.7
0.013483520608002397
% es.normE (V/m) @ t=0.72
1.4508126349042374
% es.EX (V/m) @ t=0.72
0.985121156702629
% es.EY (V/m) @ t=0.72
0.2797865077002317
% es.EZ (V/m) @ t=0.72
1.0009262246807715
% es.tEX (V/m) @ t=0.72
0.9851211567025899
% es.tEY (V/m) @ t=0.72
0
% es.tEZ (V/m) @ t=0.72
1.0009262246807396
% es.Ex (V/m) @ t=0.72
0.985121156702629
% es.Ey (V/m) @ t=0.72
0.2797865077002317
% es.Ez (V/m) @ t=0.72
1.0009262246807715
% es.tEx (V/m) @ t=0.72
0.9851211567025899
% es.tEy (V/m) @ t=0.72
0
% es.tEz (V/m) @ t=0.72
1.0009262246807396
% V (V) @ t=0.72
0.013604710805020695
% es.normE (V/m) @ t=0.74
1.4637363923835518
% es.EX (V/m) @ t=0.74
0.9938965597575766
% es.EY (V/m) @ t=0.74
0.2822788285515845
% es.EZ (V/m) @ t=0.74
1.0098424210392345
% es.tEX (V/m) @ t=0.74
0.9938965597575731
% es.tEY (V/m) @ t=0.74
0
% es.tEZ (V/m) @ t=0.74
1.0098424210392167
% es.Ex (V/m) @ t=0.74
0.9938965597575766
% es.Ey (V/m) @ t=0.74
0.2822788285515845
% es.Ez (V/m) @ t=0.74
1.0098424210392345
% es.tEx (V/m) @ t=0.74
0.9938965597575731
% es.tEy (V/m) @ t=0.74
0
% es.tEz (V/m) @ t=0.74
1.0098424210392167
% V (V) @ t=0.74
0.013725901002038994
% es.normE (V/m) @ t=0.76
1.4766601498628749
% es.EX (V/m) @ t=0.76
1.0026719628125207
% es.EY (V/m) @ t=0.76
0.2847711494030065
% es.EZ (V/m) @ t=0.76
1.018758617397701
% es.tEX (V/m) @ t=0.76
1.002671962812542
% es.tEY (V/m) @ t=0.76
0
% es.tEZ (V/m) @ t=0.76
1.0187586173976868
% es.Ex (V/m) @ t=0.76
1.0026719628125207
% es.Ey (V/m) @ t=0.76
0.2847711494030065
% es.Ez (V/m) @ t=0.76
1.018758617397701
% es.tEx (V/m) @ t=0.76
1.002671962812542
% es.tEy (V/m) @ t=0.76
0
% es.tEz (V/m) @ t=0.76
1.0187586173976868
% V (V) @ t=0.76
0.013847091199057296
% es.normE (V/m) @ t=0.78
1.4895839073422468
% es.EX (V/m) @ t=0.78
1.011447365867543
% es.EY (V/m) @ t=0.78
0.28726347025436993
% es.EZ (V/m) @ t=0.78
1.0276748137561817
% es.tEX (V/m) @ t=0.78
1.0114473658675251
% es.tEY (V/m) @ t=0.78
0
% es.tEZ (V/m) @ t=0.78
1.0276748137561782
% es.Ex (V/m) @ t=0.78
1.011447365867543
% es.Ey (V/m) @ t=0.78
0.28726347025436993
% es.Ez (V/m) @ t=0.78
1.0276748137561817
% es.tEx (V/m) @ t=0.78
1.0114473658675251
% es.tEy (V/m) @ t=0.78
0
% es.tEz (V/m) @ t=0.78
1.0276748137561782
% V (V) @ t=0.78
0.013968281396075595
% es.normE (V/m) @ t=0.8
1.5034299196777943
% es.EX (V/m) @ t=0.8
1.0208489930033302
% es.EY (V/m) @ t=0.8
0.28993364764341223
% es.EZ (V/m) @ t=0.8
1.0372272790141128
% es.tEX (V/m) @ t=0.8
1.0208489930033267
% es.tEY (V/m) @ t=0.8
0
% es.tEZ (V/m) @ t=0.8
1.0372272790140968
% es.Ex (V/m) @ t=0.8
1.0208489930033302
% es.Ey (V/m) @ t=0.8
0.28993364764341223
% es.Ez (V/m) @ t=0.8
1.0372272790141128
% es.tEx (V/m) @ t=0.8
1.0208489930033267
% es.tEy (V/m) @ t=0.8
0
% es.tEz (V/m) @ t=0.8
1.0372272790140968
% V (V) @ t=0.8
0.01409811969282843
% es.normE (V/m) @ t=0.82
1.5178156578549418
% es.EX (V/m) @ t=0.82
1.0306171016130534
% es.EY (V/m) @ t=0.82
0.2927079109788444
% es.EZ (V/m) @ t=0.82
1.0471521042167176
% es.tEX (V/m) @ t=0.82
1.0306171016130463
% es.tEY (V/m) @ t=0.82
0
% es.tEZ (V/m) @ t=0.82
1.047152104216707
% es.Ex (V/m) @ t=0.82
1.0306171016130534
% es.Ey (V/m) @ t=0.82
0.2927079109788444
% es.Ez (V/m) @ t=0.82
1.0471521042167176
% es.tEx (V/m) @ t=0.82
1.0306171016130463
% es.tEy (V/m) @ t=0.82
0
% es.tEz (V/m) @ t=0.82
1.047152104216707
% V (V) @ t=0.82
0.014233019066653318
% es.normE (V/m) @ t=0.84
1.5322013960321383
% es.EX (V/m) @ t=0.84
1.04038521022283
% es.EY (V/m) @ t=0.84
0.29548217431424106
% es.EZ (V/m) @ t=0.84
1.0570769294193507
% es.tEX (V/m) @ t=0.84
1.0403852102228228
% es.tEY (V/m) @ t=0.84
0
% es.tEZ (V/m) @ t=0.84
1.0570769294193383
% es.Ex (V/m) @ t=0.84
1.04038521022283
% es.Ey (V/m) @ t=0.84
0.29548217431424106
% es.Ez (V/m) @ t=0.84
1.0570769294193507
% es.tEx (V/m) @ t=0.84
1.0403852102228228
% es.tEy (V/m) @ t=0.84
0
% es.tEz (V/m) @ t=0.84
1.0570769294193383
% V (V) @ t=0.84
0.014367918440478206
% es.normE (V/m) @ t=0.86
1.5465871342093158
% es.EX (V/m) @ t=0.86
1.0501533188325816
% es.EY (V/m) @ t=0.86
0.29825643764960574
% es.EZ (V/m) @ t=0.86
1.0670017546219928
% es.tEX (V/m) @ t=0.86
1.050153318832571
% es.tEY (V/m) @ t=0.86
0
% es.tEZ (V/m) @ t=0.86
1.0670017546219768
% es.Ex (V/m) @ t=0.86
1.0501533188325816
% es.Ey (V/m) @ t=0.86
0.29825643764960574
% es.Ez (V/m) @ t=0.86
1.0670017546219928
% es.tEx (V/m) @ t=0.86
1.050153318832571
% es.tEy (V/m) @ t=0.86
0
% es.tEz (V/m) @ t=0.86
1.0670017546219768
% V (V) @ t=0.86
0.014502817814303098
% es.normE (V/m) @ t=0.88
1.5609728723864909
% es.EX (V/m) @ t=0.88
1.0599214274423545
% es.EY (V/m) @ t=0.88
0.3010307009850166
% es.EZ (V/m) @ t=0.88
1.0769265798245957
% es.tEX (V/m) @ t=0.88
1.0599214274423332
% es.tEY (V/m) @ t=0.88
0
% es.tEZ (V/m) @ t=0.88
1.0769265798245797
% es.Ex (V/m) @ t=0.88
1.0599214274423545
% es.Ey (V/m) @ t=0.88
0.3010307009850166
% es.Ez (V/m) @ t=0.88
1.0769265798245957
% es.tEx (V/m) @ t=0.88
1.0599214274423332
% es.tEy (V/m) @ t=0.88
0
% es.tEz (V/m) @ t=0.88
1.0769265798245797
% V (V) @ t=0.88
0.014637717188127987
% es.normE (V/m) @ t=0.9
1.5753586105636526
% es.EX (V/m) @ t=0.9
1.0696895360521204
% es.EY (V/m) @ t=0.9
0.3038049643203351
% es.EZ (V/m) @ t=0.9
1.0868514050272307
% es.tEX (V/m) @ t=0.9
1.069689536052124
% es.tEY (V/m) @ t=0.9
0
% es.tEZ (V/m) @ t=0.9
1.0868514050272111
% es.Ex (V/m) @ t=0.9
1.0696895360521204
% es.Ey (V/m) @ t=0.9
0.3038049643203351
% es.Ez (V/m) @ t=0.9
1.0868514050272307
% es.tEx (V/m) @ t=0.9
1.069689536052124
% es.tEy (V/m) @ t=0.9
0
% es.tEz (V/m) @ t=0.9
1.0868514050272111
% V (V) @ t=0.9
0.014772616561952875
% es.normE (V/m) @ t=0.92
1.5897443487408585
% es.EX (V/m) @ t=0.92
1.0794576446618684
% es.EY (V/m) @ t=0.92
0.3065792276557673
% es.EZ (V/m) @ t=0.92
1.0967762302298762
% es.tEX (V/m) @ t=0.92
1.0794576446618578
% es.tEY (V/m) @ t=0.92
0
% es.tEZ (V/m) @ t=0.92
1.0967762302298638
% es.Ex (V/m) @ t=0.92
1.0794576446618684
% es.Ey (V/m) @ t=0.92
0.3065792276557673
% es.Ez (V/m) @ t=0.92
1.0967762302298762
% es.tEx (V/m) @ t=0.92
1.0794576446618578
% es.tEy (V/m) @ t=0.92
0
% es.tEz (V/m) @ t=0.92
1.0967762302298638
% V (V) @ t=0.92
0.014907515935777767
% es.normE (V/m) @ t=0.94
1.6041300869180453
% es.EX (V/m) @ t=0.94
1.0892257532716485
% es.EY (V/m) @ t=0.94
0.3093534909911426
% es.EZ (V/m) @ t=0.94
1.1067010554325059
% es.tEX (V/m) @ t=0.94
1.0892257532716485
% es.tEY (V/m) @ t=0.94
0
% es.tEZ (V/m) @ t=0.94
1.106701055432488
% es.Ex (V/m) @ t=0.94
1.0892257532716485
% es.Ey (V/m) @ t=0.94
0.3093534909911426
% es.Ez (V/m) @ t=0.94
1.1067010554325059
% es.tEx (V/m) @ t=0.94
1.0892257532716485
% es.tEy (V/m) @ t=0.94
0
% es.tEz (V/m) @ t=0.94
1.106701055432488
% V (V) @ t=0.94
0.01504241530960266
% es.normE (V/m) @ t=0.96
1.6185158250952054
% es.EX (V/m) @ t=0.96
1.0989938618814108
% es.EY (V/m) @ t=0.96
0.3121277543265144
% es.EZ (V/m) @ t=0.96
1.1166258806351106
% es.tEX (V/m) @ t=0.96
1.0989938618814108
% es.tEY (V/m) @ t=0.96
0
% es.tEZ (V/m) @ t=0.96
1.116625880635084
% es.Ex (V/m) @ t=0.96
1.0989938618814108
% es.Ey (V/m) @ t=0.96
0.3121277543265144
% es.Ez (V/m) @ t=0.96
1.1166258806351106
% es.tEx (V/m) @ t=0.96
1.0989938618814108
% es.tEy (V/m) @ t=0.96
0
% es.tEz (V/m) @ t=0.96
1.116625880635084
% V (V) @ t=0.96
0.015177314683427546
% es.normE (V/m) @ t=0.98
1.6329015632723647
% es.EX (V/m) @ t=0.98
1.1087619704911518
% es.EY (V/m) @ t=0.98
0.31490201766191817
% es.EZ (V/m) @ t=0.98
1.126550705837726
% es.tEX (V/m) @ t=0.98
1.1087619704911447
% es.tEY (V/m) @ t=0.98
0
% es.tEZ (V/m) @ t=0.98
1.1265507058377082
% es.Ex (V/m) @ t=0.98
1.1087619704911518
% es.Ey (V/m) @ t=0.98
0.31490201766191817
% es.Ez (V/m) @ t=0.98
1.126550705837726
% es.tEx (V/m) @ t=0.98
1.1087619704911447
% es.tEy (V/m) @ t=0.98
0
% es.tEz (V/m) @ t=0.98
1.1265507058377082
% V (V) @ t=0.98
0.015312214057252437
% es.normE (V/m) @ t=1
1.6472873014495897
% es.EX (V/m) @ t=1
1.118530079100971
% es.EY (V/m) @ t=1
0.31767628099720824
% es.EZ (V/m) @ t=1
1.1364755310404
% es.tEX (V/m) @ t=1
1.1185300791009638
% es.tEY (V/m) @ t=1
0
% es.tEZ (V/m) @ t=1
1.1364755310403822
% es.Ex (V/m) @ t=1
1.118530079100971
% es.Ey (V/m) @ t=1
0.31767628099720824
% es.Ez (V/m) @ t=1
1.1364755310404
% es.tEx (V/m) @ t=1
1.1185300791009638
% es.tEy (V/m) @ t=1
0
% es.tEz (V/m) @ t=1
1.1364755310403822
% V (V) @ t=1
0.015447113431077329
% es.normE (V/m) @ t=1.02
1.6616730396267536
% es.EX (V/m) @ t=1.02
1.1282981877106764
% es.EY (V/m) @ t=1.02
0.32045054433266174
% es.EZ (V/m) @ t=1.02
1.1464003562430403
% es.tEX (V/m) @ t=1.02
1.1282981877106693
% es.tEY (V/m) @ t=1.02
0
% es.tEZ (V/m) @ t=1.02
1.1464003562430207
% es.Ex (V/m) @ t=1.02
1.1282981877106764
% es.Ey (V/m) @ t=1.02
0.32045054433266174
% es.Ez (V/m) @ t=1.02
1.1464003562430403
% es.tEx (V/m) @ t=1.02
1.1282981877106693
% es.tEy (V/m) @ t=1.02
0
% es.tEz (V/m) @ t=1.02
1.1464003562430207
% V (V) @ t=1.02
0.015582012804902219
% es.normE (V/m) @ t=1.04
1.6760587778039142
% es.EX (V/m) @ t=1.04
1.13806629632046
% es.EY (V/m) @ t=1.04
0.32322480766804773
% es.EZ (V/m) @ t=1.04
1.1563251814456148
% es.tEX (V/m) @ t=1.04
1.1380662963204315
% es.tEY (V/m) @ t=1.04
0
% es.tEZ (V/m) @ t=1.04
1.1563251814456095
% es.Ex (V/m) @ t=1.04
1.13806629632046
% es.Ey (V/m) @ t=1.04
0.32322480766804773
% es.Ez (V/m) @ t=1.04
1.1563251814456148
% es.tEx (V/m) @ t=1.04
1.1380662963204315