% Model:              1 neuron.mph
% Version:            COMSOL 6.1.0.252
% Date:               Mar 22 2023, 20:02
% Dimension:          0
% Nodes:              14017
% Expressions:        14017
% Description:        Electric field norm, Electric field, X component, Electric field, Y component, Electric field, Z component, Tangential electric field, X component, Tangential electric field, Y component, Tangential electric field, Z component, Electric field, x component, Electric field, y component, Electric field, z component, Tangential electric field, x component, Tangential electric field, y component, Tangential electric field, z component, Electric potential
% Length unit:        mm
% x
1.33
% y
12.2
% z
2
% es.normE (V/m) @ t=0
2.205485319781343
% es.EX (V/m) @ t=0
0.8789708180068521
% es.EY (V/m) @ t=0
0.23238380126093805
% es.EZ (V/m) @ t=0
-2.0075878356524903
% es.tEX (V/m) @ t=0
0.8789708180068523
% es.tEY (V/m) @ t=0
0
% es.tEZ (V/m) @ t=0
-2.007587835652492
% es.Ex (V/m) @ t=0
0.8789708180068521
% es.Ey (V/m) @ t=0
0.23238380126093805
% es.Ez (V/m) @ t=0
-2.0075878356524903
% es.tEx (V/m) @ t=0
0.8789708180068523
% es.tEy (V/m) @ t=0
0
% es.tEz (V/m) @ t=0
-2.007587835652492
% V (V) @ t=0
0.011027617190832437
% es.normE (V/m) @ t=0.02
1.9049081672533599
% es.EX (V/m) @ t=0.02
0.75917924965898
% es.EY (V/m) @ t=0.02
0.20071310263481745
% es.EZ (V/m) @ t=0.02
-1.7339813737108196
% es.tEX (V/m) @ t=0.02
0.7591792496589767
% es.tEY (V/m) @ t=0.02
0
% es.tEZ (V/m) @ t=0.02
-1.733981373710824
% es.Ex (V/m) @ t=0.02
0.75917924965898
% es.Ey (V/m) @ t=0.02
0.20071310263481745
% es.Ez (V/m) @ t=0.02
-1.7339813737108196
% es.tEx (V/m) @ t=0.02
0.7591792496589767
% es.tEy (V/m) @ t=0.02
0
% es.tEz (V/m) @ t=0.02
-1.733981373710824
% V (V) @ t=0.02
0.009524705446752215
% es.normE (V/m) @ t=0.04
1.922439128415968
% es.EX (V/m) @ t=0.04
0.766166012528845
% es.EY (V/m) @ t=0.04
0.20256027467325932
% es.EZ (V/m) @ t=0.04
-1.7499392874859687
% es.tEX (V/m) @ t=0.04
0.7661660125288452
% es.tEY (V/m) @ t=0.04
0
% es.tEZ (V/m) @ t=0.04
-1.7499392874859723
% es.Ex (V/m) @ t=0.04
0.766166012528845
% es.Ey (V/m) @ t=0.04
0.20256027467325932
% es.Ez (V/m) @ t=0.04
-1.7499392874859687
% es.tEx (V/m) @ t=0.04
0.7661660125288452
% es.tEy (V/m) @ t=0.04
0
% es.tEz (V/m) @ t=0.04
-1.7499392874859723
% V (V) @ t=0.04
0.009612361777785277
% es.normE (V/m) @ t=0.06
1.940108336103332
% es.EX (V/m) @ t=0.06
0.7732078714016846
% es.EY (V/m) @ t=0.06
0.2044220122075071
% es.EZ (V/m) @ t=0.06
-1.7660230432912316
% es.tEX (V/m) @ t=0.06
0.7732078714016848
% es.tEY (V/m) @ t=0.06
0
% es.tEZ (V/m) @ t=0.06
-1.766023043291236
% es.Ex (V/m) @ t=0.06
0.7732078714016846
% es.Ey (V/m) @ t=0.06
0.2044220122075071
% es.Ez (V/m) @ t=0.06
-1.7660230432912316
% es.tEx (V/m) @ t=0.06
0.7732078714016848
% es.tEy (V/m) @ t=0.06
0
% es.tEz (V/m) @ t=0.06
-1.766023043291236
% V (V) @ t=0.06
0.009700709391383597
% es.normE (V/m) @ t=0.08
1.958093034901296
% es.EX (V/m) @ t=0.08
0.7803754662512916
% es.EY (V/m) @ t=0.08
0.2063169929965527
% es.EZ (V/m) @ t=0.08
-1.7823939809360594
% es.tEX (V/m) @ t=0.08
0.7803754662512921
% es.tEY (V/m) @ t=0.08
0
% es.tEZ (V/m) @ t=0.08
-1.7823939809360638
% es.Ex (V/m) @ t=0.08
0.7803754662512916
% es.Ey (V/m) @ t=0.08
0.2063169929965527
% es.Ez (V/m) @ t=0.08
-1.7823939809360594
% es.tEx (V/m) @ t=0.08
0.7803754662512921
% es.tEy (V/m) @ t=0.08
0
% es.tEz (V/m) @ t=0.08
-1.7823939809360638
% V (V) @ t=0.08
0.009790634445551446
% es.normE (V/m) @ t=0.1
1.9762018014202867
% es.EX (V/m) @ t=0.1
0.7875925071092544
% es.EY (V/m) @ t=0.1
0.20822504678425435
% es.EZ (V/m) @ t=0.1
-1.79887785360554
% es.tEX (V/m) @ t=0.1
0.7875925071092511
% es.tEY (V/m) @ t=0.1
0
% es.tEZ (V/m) @ t=0.1
-1.7988778536055445
% es.Ex (V/m) @ t=0.1
0.7875925071092544
% es.Ey (V/m) @ t=0.1
0.20822504678425435
% es.Ez (V/m) @ t=0.1
-1.79887785360554
% es.tEx (V/m) @ t=0.1
0.7875925071092511
% es.tEy (V/m) @ t=0.1
0
% es.tEz (V/m) @ t=0.1
-1.7988778536055445
% V (V) @ t=0.1
0.009881179832432108
% es.normE (V/m) @ t=0.12
1.994310567939284
% es.EX (V/m) @ t=0.12
0.7948095479672237
% es.EY (V/m) @ t=0.12
0.21013310057195778
% es.EZ (V/m) @ t=0.12
-1.8153617262750261
% es.tEX (V/m) @ t=0.12
0.7948095479672239
% es.tEY (V/m) @ t=0.12
0
% es.tEZ (V/m) @ t=0.12
-1.8153617262750288
% es.Ex (V/m) @ t=0.12
0.7948095479672237
% es.Ey (V/m) @ t=0.12
0.21013310057195778
% es.Ez (V/m) @ t=0.12
-1.8153617262750261
% es.tEx (V/m) @ t=0.12
0.7948095479672239
% es.tEy (V/m) @ t=0.12
0
% es.tEz (V/m) @ t=0.12
-1.8153617262750288
% V (V) @ t=0.12
0.009971725219312772
% es.normE (V/m) @ t=0.14
2.012832368781022
% es.EX (V/m) @ t=0.14
0.8021911991518011
% es.EY (V/m) @ t=0.14
0.21208467468613712
% es.EZ (V/m) @ t=0.14
-1.832221571691358
% es.tEX (V/m) @ t=0.14
0.8021911991517978
% es.tEY (V/m) @ t=0.14
0
% es.tEZ (V/m) @ t=0.14
-1.8322215716913615
% es.Ex (V/m) @ t=0.14
0.8021911991518011
% es.Ey (V/m) @ t=0.14
0.21208467468613712
% es.Ez (V/m) @ t=0.14
-1.832221571691358
% es.tEx (V/m) @ t=0.14
0.8021911991517978
% es.tEy (V/m) @ t=0.14
0
% es.tEz (V/m) @ t=0.14
-1.8322215716913615
% V (V) @ t=0.14
0.010064335796851445
% es.normE (V/m) @ t=0.16
2.031869140288708
% es.EX (V/m) @ t=0.16
0.8097780862813158
% es.EY (V/m) @ t=0.16
0.21409050988775835
% es.EZ (V/m) @ t=0.16
-1.8495501794481584
% es.tEX (V/m) @ t=0.16
0.809778086281316
% es.tEY (V/m) @ t=0.16
0
% es.tEZ (V/m) @ t=0.16
-1.8495501794481655
% es.Ex (V/m) @ t=0.16
0.8097780862813158
% es.Ey (V/m) @ t=0.16
0.21409050988775835
% es.Ez (V/m) @ t=0.16
-1.8495501794481584
% es.tEx (V/m) @ t=0.16
0.809778086281316
% es.tEy (V/m) @ t=0.16
0
% es.tEz (V/m) @ t=0.16
-1.8495501794481655
% V (V) @ t=0.16
0.010159521251464245
% es.normE (V/m) @ t=0.18
2.0509059117963897
% es.EX (V/m) @ t=0.18
0.8173649734108162
% es.EY (V/m) @ t=0.18
0.21609634508941156
% es.EZ (V/m) @ t=0.18
-1.8668787872049553
% es.tEX (V/m) @ t=0.18
0.8173649734108128
% es.tEY (V/m) @ t=0.18
0
% es.tEZ (V/m) @ t=0.18
-1.8668787872049624
% es.Ex (V/m) @ t=0.18
0.8173649734108162
% es.Ey (V/m) @ t=0.18
0.21609634508941156
% es.Ez (V/m) @ t=0.18
-1.8668787872049553
% es.tEx (V/m) @ t=0.18
0.8173649734108128
% es.tEy (V/m) @ t=0.18
0
% es.tEz (V/m) @ t=0.18
-1.8668787872049624
% V (V) @ t=0.18
0.010254706706077041
% es.normE (V/m) @ t=0.2
2.0699426833040637
% es.EX (V/m) @ t=0.2
0.8249518605403101
% es.EY (V/m) @ t=0.2
0.21810218029104433
% es.EZ (V/m) @ t=0.2
-1.8842073949617495
% es.tEX (V/m) @ t=0.2
0.8249518605403106
% es.tEY (V/m) @ t=0.2
0
% es.tEZ (V/m) @ t=0.2
-1.8842073949617468
% es.Ex (V/m) @ t=0.2
0.8249518605403101
% es.Ey (V/m) @ t=0.2
0.21810218029104433
% es.Ez (V/m) @ t=0.2
-1.8842073949617495
% es.tEx (V/m) @ t=0.2
0.8249518605403106
% es.tEy (V/m) @ t=0.2
0
% es.tEz (V/m) @ t=0.2
-1.8842073949617468
% V (V) @ t=0.2
0.01034989216068984
% es.normE (V/m) @ t=0.22
2.088979454811738
% es.EX (V/m) @ t=0.22
0.832538747669807
% es.EY (V/m) @ t=0.22
0.22010801549268333
% es.EZ (V/m) @ t=0.22
-1.9015360027185428
% es.tEX (V/m) @ t=0.22
0.8325387476698074
% es.tEY (V/m) @ t=0.22
0
% es.tEZ (V/m) @ t=0.22
-1.9015360027185437
% es.Ex (V/m) @ t=0.22
0.832538747669807
% es.Ey (V/m) @ t=0.22
0.22010801549268333
% es.Ez (V/m) @ t=0.22
-1.9015360027185428
% es.tEx (V/m) @ t=0.22
0.8325387476698074
% es.tEy (V/m) @ t=0.22
0
% es.tEz (V/m) @ t=0.22
-1.9015360027185437
% V (V) @ t=0.22
0.01044507761530264
% es.normE (V/m) @ t=0.24
2.108016226319415
% es.EX (V/m) @ t=0.24
0.8401256347992998
% es.EY (V/m) @ t=0.24
0.2221138506943463
% es.EZ (V/m) @ t=0.24
-1.9188646104753353
% es.tEX (V/m) @ t=0.24
0.8401256347992967
% es.tEY (V/m) @ t=0.24
0
% es.tEZ (V/m) @ t=0.24
-1.9188646104753353
% es.Ex (V/m) @ t=0.24
0.8401256347992998
% es.Ey (V/m) @ t=0.24
0.2221138506943463
% es.Ez (V/m) @ t=0.24
-1.9188646104753353
% es.tEx (V/m) @ t=0.24
0.8401256347992967
% es.tEy (V/m) @ t=0.24
0
% es.tEz (V/m) @ t=0.24
-1.9188646104753353
% V (V) @ t=0.24
0.010540263069915436
% es.normE (V/m) @ t=0.26
2.127052997827093
% es.EX (V/m) @ t=0.26
0.8477125219287938
% es.EY (V/m) @ t=0.26
0.2241196858959773
% es.EZ (V/m) @ t=0.26
-1.9361932182321349
% es.tEX (V/m) @ t=0.26
0.847712521928794
% es.tEY (V/m) @ t=0.26
0
% es.tEZ (V/m) @ t=0.26
-1.9361932182321375
% es.Ex (V/m) @ t=0.26
0.8477125219287938
% es.Ey (V/m) @ t=0.26
0.2241196858959773
% es.Ez (V/m) @ t=0.26
-1.9361932182321349
% es.tEx (V/m) @ t=0.26
0.847712521928794
% es.tEy (V/m) @ t=0.26
0
% es.tEz (V/m) @ t=0.26
-1.9361932182321375
% V (V) @ t=0.26
0.010635448524528234
% es.normE (V/m) @ t=0.28
2.1479596540601578
% es.EX (V/m) @ t=0.28
0.8560444752386667
% es.EY (V/m) @ t=0.28
0.22632226388209276
% es.EZ (V/m) @ t=0.28
-1.9552240151147346
% es.tEX (V/m) @ t=0.28
0.8560444752386704
% es.tEY (V/m) @ t=0.28
0
% es.tEZ (V/m) @ t=0.28
-1.9552240151147338
% es.Ex (V/m) @ t=0.28
0.8560444752386667
% es.Ey (V/m) @ t=0.28
0.22632226388209276
% es.Ez (V/m) @ t=0.28
-1.9552240151147346
% es.tEx (V/m) @ t=0.28
0.8560444752386704
% es.tEy (V/m) @ t=0.28
0
% es.tEz (V/m) @ t=0.28
-1.9552240151147338
% V (V) @ t=0.28
0.010739994094663937
% es.normE (V/m) @ t=0.3
2.169074668057715
% es.EX (V/m) @ t=0.3
0.8644594498821676
% es.EY (V/m) @ t=0.3
0.22854676454943235
% es.EZ (V/m) @ t=0.3
-1.9744444837541133
% es.tEX (V/m) @ t=0.3
0.864459449882168
% es.tEY (V/m) @ t=0.3
0
% es.tEZ (V/m) @ t=0.3
-1.974444483754116
% es.Ex (V/m) @ t=0.3
0.8644594498821676
% es.Ey (V/m) @ t=0.3
0.22854676454943235
% es.Ez (V/m) @ t=0.3
-1.9744444837541133
% es.tEx (V/m) @ t=0.3
0.864459449882168
% es.tEy (V/m) @ t=0.3
0
% es.tEz (V/m) @ t=0.3
-1.974444483754116
% V (V) @ t=0.3
0.010845582644999689
% es.normE (V/m) @ t=0.32
2.1901896820553963
% es.EX (V/m) @ t=0.32
0.8728744245256936
% es.EY (V/m) @ t=0.32
0.23077126521676306
% es.EZ (V/m) @ t=0.32
-1.993664952393507
% es.tEX (V/m) @ t=0.32
0.8728744245256941
% es.tEY (V/m) @ t=0.32
0
% es.tEZ (V/m) @ t=0.32
-1.9936649523935213
% es.Ex (V/m) @ t=0.32
0.8728744245256936
% es.Ey (V/m) @ t=0.32
0.23077126521676306
% es.Ez (V/m) @ t=0.32
-1.993664952393507
% es.tEx (V/m) @ t=0.32
0.8728744245256941
% es.tEy (V/m) @ t=0.32
0
% es.tEz (V/m) @ t=0.32
-1.9936649523935213
% V (V) @ t=0.32
0.010951171195335443
% es.normE (V/m) @ t=0.34
2.211304696053162
% es.EX (V/m) @ t=0.34
0.8812893991691924
% es.EY (V/m) @ t=0.34
0.23299576588410797
% es.EZ (V/m) @ t=0.34
-2.0128854210328937
% es.tEX (V/m) @ t=0.34
0.8812893991691926
% es.tEY (V/m) @ t=0.34
0
% es.tEZ (V/m) @ t=0.34
-2.0128854210329
% es.Ex (V/m) @ t=0.34
0.8812893991691924
% es.Ey (V/m) @ t=0.34
0.23299576588410797
% es.Ez (V/m) @ t=0.34
-2.0128854210328937
% es.tEx (V/m) @ t=0.34
0.8812893991691926
% es.tEy (V/m) @ t=0.34
0
% es.tEz (V/m) @ t=0.34
-2.0128854210329
% V (V) @ t=0.34
0.011056759745671196
% es.normE (V/m) @ t=0.36
2.232419710051042
% es.EX (V/m) @ t=0.36
0.8897043738127255
% es.EY (V/m) @ t=0.36
0.23522026655143513
% es.EZ (V/m) @ t=0.36
-2.0321058896722874
% es.tEX (V/m) @ t=0.36
0.8897043738127257
% es.tEY (V/m) @ t=0.36
0
% es.tEZ (V/m) @ t=0.36
-2.032105889672291
% es.Ex (V/m) @ t=0.36
0.8897043738127255
% es.Ey (V/m) @ t=0.36
0.23522026655143513
% es.Ez (V/m) @ t=0.36
-2.0321058896722874
% es.tEx (V/m) @ t=0.36
0.8897043738127257
% es.tEy (V/m) @ t=0.36
0
% es.tEz (V/m) @ t=0.36
-2.032105889672291
% V (V) @ t=0.36
0.01116234829600695
% es.normE (V/m) @ t=0.38
2.253534724049004
% es.EX (V/m) @ t=0.38
0.89811934845623
% es.EY (V/m) @ t=0.38
0.23744476721877472
% es.EZ (V/m) @ t=0.38
-2.0513263583116803
% es.tEX (V/m) @ t=0.38
0.8981193484562304
% es.tEY (V/m) @ t=0.38
0
% es.tEZ (V/m) @ t=0.38
-2.051326358311691
% es.Ex (V/m) @ t=0.38
0.89811934845623
% es.Ey (V/m) @ t=0.38
0.23744476721877472
% es.Ez (V/m) @ t=0.38
-2.0513263583116803
% es.tEx (V/m) @ t=0.38
0.8981193484562304
% es.tEy (V/m) @ t=0.38
0
% es.tEz (V/m) @ t=0.38
-2.051326358311691
% V (V) @ t=0.38
0.011267936846342703
% es.normE (V/m) @ t=0.4
2.274649738047037
% es.EX (V/m) @ t=0.4
0.9065343230997205
% es.EY (V/m) @ t=0.4
0.23966926788612852
% es.EZ (V/m) @ t=0.4
-2.0705468269510554
% es.tEX (V/m) @ t=0.4
0.9065343230997209
% es.tEY (V/m) @ t=0.4
0
% es.tEZ (V/m) @ t=0.4
-2.0705468269510625
% es.Ex (V/m) @ t=0.4
0.9065343230997205
% es.Ey (V/m) @ t=0.4
0.23966926788612852
% es.Ez (V/m) @ t=0.4
-2.0705468269510554
% es.tEx (V/m) @ t=0.4
0.9065343230997209
% es.tEy (V/m) @ t=0.4
0
% es.tEz (V/m) @ t=0.4
-2.0705468269510625
% V (V) @ t=0.4
0.011373525396678458
% es.normE (V/m) @ t=0.42
2.2957647520451876
% es.EX (V/m) @ t=0.42
0.9149492977432465
% es.EY (V/m) @ t=0.42
0.24189376855346278
% es.EZ (V/m) @ t=0.42
-2.089767295590449
% es.tEX (V/m) @ t=0.42
0.914949297743247
% es.tEY (V/m) @ t=0.42
0
% es.tEZ (V/m) @ t=0.42
-2.089767295590452
% es.Ex (V/m) @ t=0.42
0.9149492977432465
% es.Ey (V/m) @ t=0.42
0.24189376855346278
% es.Ez (V/m) @ t=0.42
-2.089767295590449
% es.tEx (V/m) @ t=0.42
0.914949297743247
% es.tEy (V/m) @ t=0.42
0
% es.tEz (V/m) @ t=0.42
-2.089767295590452
% V (V) @ t=0.42
0.011479113947014211
% es.normE (V/m) @ t=0.44
2.3168797660434226
% es.EX (V/m) @ t=0.44
0.9233642723867592
% es.EY (V/m) @ t=0.44
0.2441182692208015
% es.EZ (V/m) @ t=0.44
-2.1089877642298465
% es.tEX (V/m) @ t=0.44
0.9233642723867597
% es.tEY (V/m) @ t=0.44
0
% es.tEZ (V/m) @ t=0.44
-2.10898776422985
% es.Ex (V/m) @ t=0.44
0.9233642723867592
% es.Ey (V/m) @ t=0.44
0.2441182692208015
% es.Ez (V/m) @ t=0.44
-2.1089877642298465
% es.tEx (V/m) @ t=0.44
0.9233642723867597
% es.tEy (V/m) @ t=0.44
0
% es.tEz (V/m) @ t=0.44
-2.10898776422985
% V (V) @ t=0.44
0.011584702497349962
% es.normE (V/m) @ t=0.46
2.337994780041731
% es.EX (V/m) @ t=0.46
0.9317792470302817
% es.EY (V/m) @ t=0.46
0.24634276988811799
% es.EZ (V/m) @ t=0.46
-2.1282082328692296
% es.tEX (V/m) @ t=0.46
0.9317792470302786
% es.tEY (V/m) @ t=0.46
0
% es.tEZ (V/m) @ t=0.46
-2.128208232869243
% es.Ex (V/m) @ t=0.46
0.9317792470302817
% es.Ey (V/m) @ t=0.46
0.24634276988811799
% es.Ez (V/m) @ t=0.46
-2.1282082328692296
% es.tEx (V/m) @ t=0.46
0.9317792470302786
% es.tEy (V/m) @ t=0.46
0
% es.tEz (V/m) @ t=0.46
-2.128208232869243
% V (V) @ t=0.46
0.011690291047685715
% es.normE (V/m) @ t=0.48
2.359109794040114
% es.EX (V/m) @ t=0.48
0.9401942216737758
% es.EY (V/m) @ t=0.48
0.24856727055546735
% es.EZ (V/m) @ t=0.48
-2.1474287015086153
% es.tEX (V/m) @ t=0.48
0.9401942216737762
% es.tEY (V/m) @ t=0.48
0
% es.tEZ (V/m) @ t=0.48
-2.147428701508618
% es.Ex (V/m) @ t=0.48
0.9401942216737758
% es.Ey (V/m) @ t=0.48
0.24856727055546735
% es.Ez (V/m) @ t=0.48
-2.1474287015086153
% es.tEx (V/m) @ t=0.48
0.9401942216737762
% es.tEy (V/m) @ t=0.48
0
% es.tEz (V/m) @ t=0.48
-2.147428701508618
% V (V) @ t=0.48
0.01179587959802147
% es.normE (V/m) @ t=0.5
2.3802248080385917
% es.EX (V/m) @ t=0.5
0.9486091963173018
% es.EY (V/m) @ t=0.5
0.2507917712228016
% es.EZ (V/m) @ t=0.5
-2.1666491701480046
% es.tEX (V/m) @ t=0.5
0.9486091963173022
% es.tEY (V/m) @ t=0.5
0
% es.tEZ (V/m) @ t=0.5
-2.1666491701480037
% es.Ex (V/m) @ t=0.5
0.9486091963173018
% es.Ey (V/m) @ t=0.5
0.2507917712228016
% es.Ez (V/m) @ t=0.5
-2.1666491701480046
% es.tEx (V/m) @ t=0.5
0.9486091963173022
% es.tEy (V/m) @ t=0.5
0
% es.tEz (V/m) @ t=0.5
-2.1666491701480037
% V (V) @ t=0.5
0.011901468148357222
% es.normE (V/m) @ t=0.52
2.4013398220371407
% es.EX (V/m) @ t=0.52
0.9570241709608069
% es.EY (V/m) @ t=0.52
0.2530162718901465
% es.EZ (V/m) @ t=0.52
-2.1858696387873966
% es.tEX (V/m) @ t=0.52
0.9570241709608074
% es.tEY (V/m) @ t=0.52
0
% es.tEZ (V/m) @ t=0.52
-2.1858696387874073
% es.Ex (V/m) @ t=0.52
0.9570241709608069
% es.Ey (V/m) @ t=0.52
0.2530162718901465
% es.Ez (V/m) @ t=0.52
-2.1858696387873966
% es.tEx (V/m) @ t=0.52
0.9570241709608074
% es.tEy (V/m) @ t=0.52
0
% es.tEz (V/m) @ t=0.52
-2.1858696387874073
% V (V) @ t=0.52
0.012007056698692974
% es.normE (V/m) @ t=0.54
2.4243506828115144
% es.EX (V/m) @ t=0.54
0.9661945193395094
% es.EY (V/m) @ t=0.54
0.2554401815296954
% es.EZ (V/m) @ t=0.54
-2.206815951390441
% es.tEX (V/m) @ t=0.54
0.9661945193395098
% es.tEY (V/m) @ t=0.54
0
% es.tEZ (V/m) @ t=0.54
-2.206815951390446
% es.Ex (V/m) @ t=0.54
0.9661945193395094
% es.Ey (V/m) @ t=0.54
0.2554401815296954
% es.Ez (V/m) @ t=0.54
-2.206815951390441
% es.tEx (V/m) @ t=0.54
0.9661945193395098
% es.tEy (V/m) @ t=0.54
0
% es.tEz (V/m) @ t=0.54
-2.206815951390446
% V (V) @ t=0.54
0.012122137858135942
% es.normE (V/m) @ t=0.56
2.4478089258493867
% es.EX (V/m) @ t=0.56
0.975543120948053
% es.EY (V/m) @ t=0.56
0.257911147734351
% es.EZ (V/m) @ t=0.56
-2.2281695289623897
% es.tEX (V/m) @ t=0.56
0.9755431209480534
% es.tEY (V/m) @ t=0.56
0
% es.tEZ (V/m) @ t=0.56
-2.2281695289623897
% es.Ex (V/m) @ t=0.56
0.975543120948053
% es.Ey (V/m) @ t=0.56
0.257911147734351
% es.Ez (V/m) @ t=0.56
-2.2281695289623897
% es.tEx (V/m) @ t=0.56
0.9755431209480534
% es.tEy (V/m) @ t=0.56
0
% es.tEz (V/m) @ t=0.56
-2.2281695289623897
% V (V) @ t=0.56
0.012239459085183143
% es.normE (V/m) @ t=0.58
2.471267168887743
% es.EX (V/m) @ t=0.58
0.9848917225566325
% es.EY (V/m) @ t=0.58
0.26038211393902255
% es.EZ (V/m) @ t=0.58
-2.2495231065343386
% es.tEX (V/m) @ t=0.58
0.9848917225566325
% es.tEY (V/m) @ t=0.58
0
% es.tEZ (V/m) @ t=0.58
-2.2495231065343404
% es.Ex (V/m) @ t=0.58
0.9848917225566325
% es.Ey (V/m) @ t=0.58
0.26038211393902255
% es.Ez (V/m) @ t=0.58
-2.2495231065343386
% es.tEx (V/m) @ t=0.58
0.9848917225566325
% es.tEy (V/m) @ t=0.58
0
% es.tEz (V/m) @ t=0.58
-2.2495231065343404
% V (V) @ t=0.58
0.012356780312230342
% es.normE (V/m) @ t=0.6
2.4947254119265354
% es.EX (V/m) @ t=0.6
0.9942403241651836
% es.EY (V/m) @ t=0.6
0.2628530801436728
% es.EZ (V/m) @ t=0.6
-2.2708766841062875
% es.tEX (V/m) @ t=0.6
0.9942403241651769
% es.tEY (V/m) @ t=0.6
0
% es.tEZ (V/m) @ t=0.6
-2.2708766841062946
% es.Ex (V/m) @ t=0.6
0.9942403241651836
% es.Ey (V/m) @ t=0.6
0.2628530801436728
% es.Ez (V/m) @ t=0.6
-2.2708766841062875
% es.tEx (V/m) @ t=0.6
0.9942403241651769
% es.tEy (V/m) @ t=0.6
0
% es.tEz (V/m) @ t=0.6
-2.2708766841062946
% V (V) @ t=0.6
0.012474101539277546
% es.normE (V/m) @ t=0.62
2.5181836549657897
% es.EX (V/m) @ t=0.62
1.0035889257737423
% es.EY (V/m) @ t=0.62
0.2653240463483444
% es.EZ (V/m) @ t=0.62
-2.292230261678254
% es.tEX (V/m) @ t=0.62
1.0035889257737427
% es.tEY (V/m) @ t=0.62
0
% es.tEZ (V/m) @ t=0.62
-2.2922302616782595
% es.Ex (V/m) @ t=0.62
1.0035889257737423
% es.Ey (V/m) @ t=0.62
0.2653240463483444
% es.Ez (V/m) @ t=0.62
-2.292230261678254
% es.tEx (V/m) @ t=0.62
1.0035889257737427
% es.tEy (V/m) @ t=0.62
0
% es.tEz (V/m) @ t=0.62
-2.2922302616782595
% V (V) @ t=0.62
0.012591422766324746
% es.normE (V/m) @ t=0.64
2.5416418980054747
% es.EX (V/m) @ t=0.64
1.0129375273823222
% es.EY (V/m) @ t=0.64
0.2677950125530044
% es.EZ (V/m) @ t=0.64
-2.3135838392502155
% es.tEX (V/m) @ t=0.64
1.0129375273823227
% es.tEY (V/m) @ t=0.64
0
% es.tEZ (V/m) @ t=0.64
-2.3135838392502173
% es.Ex (V/m) @ t=0.64
1.0129375273823222
% es.Ey (V/m) @ t=0.64
0.2677950125530044
% es.Ez (V/m) @ t=0.64
-2.3135838392502155
% es.tEx (V/m) @ t=0.64
1.0129375273823227
% es.tEy (V/m) @ t=0.64
0
% es.tEz (V/m) @ t=0.64
-2.3135838392502173
% V (V) @ t=0.64
0.012708743993371947
% es.normE (V/m) @ t=0.66
2.565100141045558
% es.EX (V/m) @ t=0.66
1.0222861289908876
% es.EY (V/m) @ t=0.66
0.2702659787576618
% es.EZ (V/m) @ t=0.66
-2.334937416822166
% es.tEX (V/m) @ t=0.66
1.0222861289908876
% es.tEY (V/m) @ t=0.66
0
% es.tEZ (V/m) @ t=0.66
-2.334937416822168
% es.Ex (V/m) @ t=0.66
1.0222861289908876
% es.Ey (V/m) @ t=0.66
0.2702659787576618
% es.Ez (V/m) @ t=0.66
-2.334937416822166
% es.tEx (V/m) @ t=0.66
1.0222861289908876
% es.tEy (V/m) @ t=0.66
0
% es.tEz (V/m) @ t=0.66
-2.334937416822168
% V (V) @ t=0.66
0.01282606522041915
% es.normE (V/m) @ t=0.68
2.588558384086049
% es.EX (V/m) @ t=0.68
1.031634730599452
% es.EY (V/m) @ t=0.68
0.2727369449623387
% es.EZ (V/m) @ t=0.68
-2.356290994394117
% es.tEX (V/m) @ t=0.68
1.0316347305994524
% es.tEY (V/m) @ t=0.68
0
% es.tEZ (V/m) @ t=0.68
-2.3562909943941257
% es.Ex (V/m) @ t=0.68
1.031634730599452
% es.Ey (V/m) @ t=0.68
0.2727369449623387
% es.Ez (V/m) @ t=0.68
-2.356290994394117
% es.tEx (V/m) @ t=0.68
1.0316347305994524
% es.tEy (V/m) @ t=0.68
0
% es.tEz (V/m) @ t=0.68
-2.3562909943941257
% V (V) @ t=0.68
0.01294338644746635
% es.normE (V/m) @ t=0.7
2.6120166271269367
% es.EX (V/m) @ t=0.7
1.0409833322080035
% es.EY (V/m) @ t=0.7
0.27520791116700316
% es.EZ (V/m) @ t=0.7
-2.377644571966078
% es.tEX (V/m) @ t=0.7
1.040983332208004
% es.tEY (V/m) @ t=0.7
0
% es.tEZ (V/m) @ t=0.7
-2.377644571966087
% es.Ex (V/m) @ t=0.7
1.0409833322080035
% es.Ey (V/m) @ t=0.7
0.27520791116700316
% es.Ez (V/m) @ t=0.7
-2.377644571966078
% es.tEx (V/m) @ t=0.7
1.040983332208004
% es.tEy (V/m) @ t=0.7
0
% es.tEz (V/m) @ t=0.7
-2.377644571966087
% V (V) @ t=0.7
0.013060707674513556
% es.normE (V/m) @ t=0.72
2.6354748701681983
% es.EX (V/m) @ t=0.72
1.0503319338165547
% es.EY (V/m) @ t=0.72
0.27767887737166763
% es.EZ (V/m) @ t=0.72
-2.3989981495380306
% es.tEX (V/m) @ t=0.72
1.0503319338165547
% es.tEY (V/m) @ t=0.72
0
% es.tEZ (V/m) @ t=0.72
-2.398998149538034
% es.Ex (V/m) @ t=0.72
1.0503319338165547
% es.Ey (V/m) @ t=0.72
0.27767887737166763
% es.Ez (V/m) @ t=0.72
-2.3989981495380306
% es.tEx (V/m) @ t=0.72
1.0503319338165547
% es.tEy (V/m) @ t=0.72
0
% es.tEz (V/m) @ t=0.72
-2.398998149538034
% V (V) @ t=0.72
0.013178028901560753
% es.normE (V/m) @ t=0.74
2.6589331132098417
% es.EX (V/m) @ t=0.74
1.0596805354251342
% es.EY (V/m) @ t=0.74
0.2801498435763419
% es.EZ (V/m) @ t=0.74
-2.4203517271099795
% es.tEX (V/m) @ t=0.74
1.0596805354251346
% es.tEY (V/m) @ t=0.74
0
% es.tEZ (V/m) @ t=0.74
-2.420351727109985
% es.Ex (V/m) @ t=0.74
1.0596805354251342
% es.Ey (V/m) @ t=0.74
0.2801498435763419
% es.Ez (V/m) @ t=0.74
-2.4203517271099795
% es.tEx (V/m) @ t=0.74
1.0596805354251346
% es.tEy (V/m) @ t=0.74
0
% es.tEz (V/m) @ t=0.74
-2.420351727109985
% V (V) @ t=0.74
0.013295350128607955
% es.normE (V/m) @ t=0.76
2.682391356251847
% es.EX (V/m) @ t=0.76
1.0690291370337
% es.EY (V/m) @ t=0.76
0.28262080978099036
% es.EZ (V/m) @ t=0.76
-2.4417053046819337
% es.tEX (V/m) @ t=0.76
1.0690291370337004
% es.tEY (V/m) @ t=0.76
0
% es.tEZ (V/m) @ t=0.76
-2.441705304681946
% es.Ex (V/m) @ t=0.76
1.0690291370337
% es.Ey (V/m) @ t=0.76
0.28262080978099036
% es.Ez (V/m) @ t=0.76
-2.4417053046819337
% es.tEx (V/m) @ t=0.76
1.0690291370337004
% es.tEy (V/m) @ t=0.76
0
% es.tEz (V/m) @ t=0.76
-2.441705304681946
% V (V) @ t=0.76
0.013412671355655159
% es.normE (V/m) @ t=0.78
2.7058495992942113
% es.EX (V/m) @ t=0.78
1.0783777386422715
% es.EY (V/m) @ t=0.78
0.2850917759856584
% es.EZ (V/m) @ t=0.78
-2.4630588822538915
% es.tEX (V/m) @ t=0.78
1.0783777386422644
% es.tEY (V/m) @ t=0.78
0
% es.tEZ (V/m) @ t=0.78
-2.463058882253897
% es.Ex (V/m) @ t=0.78
1.0783777386422715
% es.Ey (V/m) @ t=0.78
0.2850917759856584
% es.Ez (V/m) @ t=0.78
-2.4630588822538915
% es.tEx (V/m) @ t=0.78
1.0783777386422644
% es.tEy (V/m) @ t=0.78
0
% es.tEz (V/m) @ t=0.78
-2.463058882253897
% V (V) @ t=0.78
0.013529992582702358
% es.normE (V/m) @ t=0.8
2.7312091920399215
% es.EX (V/m) @ t=0.8
1.0884841058010806
% es.EY (V/m) @ t=0.8
0.28776308797642614
% es.EZ (V/m) @ t=0.8
-2.4861431995052268
% es.tEX (V/m) @ t=0.8
1.088484105801081
% es.tEY (V/m) @ t=0.8
0
% es.tEZ (V/m) @ t=0.8
-2.486143199505239
% es.Ex (V/m) @ t=0.8
1.0884841058010806
% es.Ey (V/m) @ t=0.8
0.28776308797642614
% es.Ez (V/m) @ t=0.8
-2.4861431995052268
% es.tEx (V/m) @ t=0.8
1.088484105801081
% es.tEy (V/m) @ t=0.8
0
% es.tEz (V/m) @ t=0.8
-2.486143199505239
% V (V) @ t=0.8
0.01365682041038196
% es.normE (V/m) @ t=0.82
2.7573140592134386
% es.EX (V/m) @ t=0.82
1.0988874952729337
% es.EY (V/m) @ t=0.82
0.2905129297562059
% es.EZ (V/m) @ t=0.82
-2.509905916959129
% es.tEX (V/m) @ t=0.82
1.0988874952729342
% es.tEY (V/m) @ t=0.82
0
% es.tEZ (V/m) @ t=0.82
-2.5099059169591307
% es.Ex (V/m) @ t=0.82
1.0988874952729337
% es.Ey (V/m) @ t=0.82
0.2905129297562059
% es.Ez (V/m) @ t=0.82
-2.509905916959129
% es.tEx (V/m) @ t=0.82
1.0988874952729342
% es.tEy (V/m) @ t=0.82
0
% es.tEz (V/m) @ t=0.82
-2.5099059169591307
% V (V) @ t=0.82
0.013787374552233288
% es.normE (V/m) @ t=0.84
2.783418926387271
% es.EX (V/m) @ t=0.84
1.109290884744801
% es.EY (V/m) @ t=0.84
0.29326277153597147
% es.EZ (V/m) @ t=0.84
-2.5336686344130417
% es.tEX (V/m) @ t=0.84
1.1092908847448015
% es.tEY (V/m) @ t=0.84
0
% es.tEZ (V/m) @ t=0.84
-2.5336686344130506
% es.Ex (V/m) @ t=0.84
1.109290884744801
% es.Ey (V/m) @ t=0.84
0.29326277153597147
% es.Ez (V/m) @ t=0.84
-2.5336686344130417
% es.tEx (V/m) @ t=0.84
1.1092908847448015
% es.tEy (V/m) @ t=0.84
0
% es.tEz (V/m) @ t=0.84
-2.5336686344130506
% V (V) @ t=0.84
0.01391792869408462
% es.normE (V/m) @ t=0.86
2.8095237935613886
% es.EX (V/m) @ t=0.86
1.1196942742166551
% es.EY (V/m) @ t=0.86
0.29601261331577255
% es.EZ (V/m) @ t=0.86
-2.5574313518669474
% es.tEX (V/m) @ t=0.86
1.1196942742166556
% es.tEY (V/m) @ t=0.86
0
% es.tEZ (V/m) @ t=0.86
-2.5574313518669527
% es.Ex (V/m) @ t=0.86
1.1196942742166551
% es.Ey (V/m) @ t=0.86
0.29601261331577255
% es.Ez (V/m) @ t=0.86
-2.5574313518669474
% es.tEx (V/m) @ t=0.86
1.1196942742166556
% es.tEy (V/m) @ t=0.86
0
% es.tEz (V/m) @ t=0.86
-2.5574313518669527
% V (V) @ t=0.86
0.014048482835935952
% es.normE (V/m) @ t=0.88
2.835628660735771
% es.EX (V/m) @ t=0.88
1.1300976636884799
% es.EY (V/m) @ t=0.88
0.2987624550955488
% es.EZ (V/m) @ t=0.88
-2.5811940693208495
% es.tEX (V/m) @ t=0.88
1.1300976636884803
% es.tEY (V/m) @ t=0.88
0
% es.tEZ (V/m) @ t=0.88
-2.581194069320855
% es.Ex (V/m) @ t=0.88
1.1300976636884799
% es.Ey (V/m) @ t=0.88
0.2987624550955488
% es.Ez (V/m) @ t=0.88
-2.5811940693208495
% es.tEx (V/m) @ t=0.88
1.1300976636884803
% es.tEy (V/m) @ t=0.88
0
% es.tEz (V/m) @ t=0.88
-2.581194069320855
% V (V) @ t=0.88
0.014179036977787284
% es.normE (V/m) @ t=0.9
2.8617335279104497
% es.EX (V/m) @ t=0.9
1.140501053160333
% es.EY (V/m) @ t=0.9
0.30151229687532943
% es.EZ (V/m) @ t=0.9
-2.6049567867747587
% es.tEX (V/m) @ t=0.9
1.1405010531603335
% es.tEY (V/m) @ t=0.9
0
% es.tEZ (V/m) @ t=0.9
-2.6049567867747676
% es.Ex (V/m) @ t=0.9
1.140501053160333
% es.Ey (V/m) @ t=0.9
0.30151229687532943
% es.Ez (V/m) @ t=0.9
-2.6049567867747587
% es.tEx (V/m) @ t=0.9
1.1405010531603335
% es.tEy (V/m) @ t=0.9
0
% es.tEz (V/m) @ t=0.9
-2.6049567867747676
% V (V) @ t=0.9
0.014309591119638617
% es.normE (V/m) @ t=0.92
2.8878383950854065
% es.EX (V/m) @ t=0.92
1.1509044426322146
% es.EY (V/m) @ t=0.92
0.304262138655095
% es.EZ (V/m) @ t=0.92
-2.628719504228668
% es.tEX (V/m) @ t=0.92
1.150904442632215
% es.tEY (V/m) @ t=0.92
0
% es.tEZ (V/m) @ t=0.92
-2.6287195042286733
% es.Ex (V/m) @ t=0.92
1.1509044426322146
% es.Ey (V/m) @ t=0.92
0.304262138655095
% es.Ez (V/m) @ t=0.92
-2.628719504228668
% es.tEx (V/m) @ t=0.92
1.150904442632215
% es.tEy (V/m) @ t=0.92
0
% es.tEz (V/m) @ t=0.92
-2.6287195042286733
% V (V) @ t=0.92
0.014440145261489946
% es.normE (V/m) @ t=0.94
2.913943262260614
% es.EX (V/m) @ t=0.94
1.1613078321040535
% es.EY (V/m) @ t=0.94
0.3070119804348783
% es.EZ (V/m) @ t=0.94
-2.6524822216825807
% es.tEX (V/m) @ t=0.94
1.161307832104054
% es.tEY (V/m) @ t=0.94
0
% es.tEZ (V/m) @ t=0.94
-2.6524822216825896
% es.Ex (V/m) @ t=0.94
1.1613078321040535
% es.Ey (V/m) @ t=0.94
0.3070119804348783
% es.Ez (V/m) @ t=0.94
-2.6524822216825807
% es.tEx (V/m) @ t=0.94
1.161307832104054
% es.tEy (V/m) @ t=0.94
0
% es.tEz (V/m) @ t=0.94
-2.6524822216825896
% V (V) @ t=0.94
0.014570699403341277
% es.normE (V/m) @ t=0.96
2.9400481294360707
% es.EX (V/m) @ t=0.96
1.1717112215758925
% es.EY (V/m) @ t=0.96
0.3097618222147016
% es.EZ (V/m) @ t=0.96
-2.676244939136483
% es.tEX (V/m) @ t=0.96
1.171711221575893
% es.tEY (V/m) @ t=0.96
0
% es.tEZ (V/m) @ t=0.96
-2.676244939136488
% es.Ex (V/m) @ t=0.96
1.1717112215758925
% es.Ey (V/m) @ t=0.96
0.3097618222147016
% es.Ez (V/m) @ t=0.96
-2.676244939136483
% es.tEx (V/m) @ t=0.96
1.171711221575893
% es.tEy (V/m) @ t=0.96
0
% es.tEz (V/m) @ t=0.96
-2.676244939136488
% V (V) @ t=0.96
0.014701253545192606
% es.normE (V/m) @ t=0.98
2.9661529966117826
% es.EX (V/m) @ t=0.98
1.1821146110477456
% es.EY (V/m) @ t=0.98
0.31251166399446806
% es.EZ (V/m) @ t=0.98
-2.700007656590392
% es.tEX (V/m) @ t=0.98
1.182114611047746
% es.tEY (V/m) @ t=0.98
0
% es.tEZ (V/m) @ t=0.98
-2.700007656590394
% es.Ex (V/m) @ t=0.98
1.1821146110477456
% es.Ey (V/m) @ t=0.98
0.31251166399446806
% es.Ez (V/m) @ t=0.98
-2.700007656590392
% es.tEx (V/m) @ t=0.98
1.182114611047746
% es.tEy (V/m) @ t=0.98
0
% es.tEz (V/m) @ t=0.98
-2.700007656590394
% V (V) @ t=0.98
0.014831807687043942
% es.normE (V/m) @ t=1
2.992257863787735
% es.EX (V/m) @ t=1
1.1925180005195988
% es.EY (V/m) @ t=1
0.3152615057742407
% es.EZ (V/m) @ t=1
-2.7237703740443013
% es.tEX (V/m) @ t=1
1.1925180005195992
% es.tEY (V/m) @ t=1
0
% es.tEZ (V/m) @ t=1
-2.7237703740443138
% es.Ex (V/m) @ t=1
1.1925180005195988
% es.Ey (V/m) @ t=1
0.3152615057742407
% es.Ez (V/m) @ t=1
-2.7237703740443013
% es.tEx (V/m) @ t=1
1.1925180005195992
% es.tEy (V/m) @ t=1
0
% es.tEz (V/m) @ t=1
-2.7237703740443138
% V (V) @ t=1
0.014962361828895267
% es.normE (V/m) @ t=1.02
3.0183627309639203
% es.EX (V/m) @ t=1.02
1.2029213899914528
% es.EY (V/m) @ t=1.02
0.31801134755400273
% es.EZ (V/m) @ t=1.02
-2.747533091498207
% es.tEX (V/m) @ t=1.02
1.2029213899914533
% es.tEY (V/m) @ t=1.02
0
% es.tEZ (V/m) @ t=1.02
-2.747533091498209
% es.Ex (V/m) @ t=1.02
1.2029213899914528
% es.Ey (V/m) @ t=1.02
0.31801134755400273
% es.Ez (V/m) @ t=1.02
-2.747533091498207
% es.tEx (V/m) @ t=1.02
1.2029213899914533
% es.tEy (V/m) @ t=1.02
0
% es.tEz (V/m) @ t=1.02
-2.747533091498209
% V (V) @ t=1.02
0.0150929159707466
% es.normE (V/m) @ t=1.04
3.044467598140347
% es.EX (V/m) @ t=1.04
1.213324779463321
% es.EY (V/m) @ t=1.04
0.3207611893337994
% es.EZ (V/m) @ t=1.04
-2.7712958089521162
% es.tEX (V/m) @ t=1.04
1.2133247794633215
% es.tEY (V/m) @ t=1.04
0
% es.tEZ (V/m) @ t=1.04
-2.771295808952118
% es.Ex (V/m) @ t=1.04