% Model:              1 neuron.mph
% Version:            COMSOL 6.1.0.252
% Date:               Mar 22 2023, 20:13
% Dimension:          0
% Nodes:              14017
% Expressions:        14017
% Description:        Electric field norm, Electric field, X component, Electric field, Y component, Electric field, Z component, Tangential electric field, X component, Tangential electric field, Y component, Tangential electric field, Z component, Electric field, x component, Electric field, y component, Electric field, z component, Tangential electric field, x component, Tangential electric field, y component, Tangential electric field, z component, Electric potential
% Length unit:        mm
% x
1.0000000000000002
% y
12.2
% z
2
% es.normE (V/m) @ t=0
1.063660072630439
% es.EX (V/m) @ t=0
0.7388256759321321
% es.EY (V/m) @ t=0
0.11063130720833908
% es.EZ (V/m) @ t=0
-0.7377494208129254
% es.tEX (V/m) @ t=0
0.7388256759321381
% es.tEY (V/m) @ t=0
0
% es.tEZ (V/m) @ t=0
-0.7377494208129143
% es.Ex (V/m) @ t=0
0.7388256759321321
% es.Ey (V/m) @ t=0
0.11063130720833908
% es.Ez (V/m) @ t=0
-0.7377494208129254
% es.tEx (V/m) @ t=0
0.7388256759321381
% es.tEy (V/m) @ t=0
0
% es.tEz (V/m) @ t=0
-0.7377494208129143
% V (V) @ t=0
0.01139038793658544
% es.normE (V/m) @ t=0.02
0.9186994133922819
% es.EX (V/m) @ t=0.02
0.6381349949497654
% es.EY (V/m) @ t=0.02
0.0955539459007933
% es.EZ (V/m) @ t=0.02
-0.6372054170053383
% es.tEX (V/m) @ t=0.02
0.6381349949497652
% es.tEY (V/m) @ t=0.02
0
% es.tEZ (V/m) @ t=0.02
-0.6372054170053274
% es.Ex (V/m) @ t=0.02
0.6381349949497654
% es.Ey (V/m) @ t=0.02
0.0955539459007933
% es.Ez (V/m) @ t=0.02
-0.6372054170053383
% es.tEx (V/m) @ t=0.02
0.6381349949497652
% es.tEy (V/m) @ t=0.02
0
% es.tEz (V/m) @ t=0.02
-0.6372054170053274
% V (V) @ t=0.02
0.009838051634090947
% es.normE (V/m) @ t=0.04
0.9271557370901224
% es.EX (V/m) @ t=0.04
0.6440088161604454
% es.EY (V/m) @ t=0.04
0.09643348801972745
% es.EZ (V/m) @ t=0.04
-0.6430706818241165
% es.tEX (V/m) @ t=0.04
0.6440088161604525
% es.tEY (V/m) @ t=0.04
0
% es.tEZ (V/m) @ t=0.04
-0.643070681824109
% es.Ex (V/m) @ t=0.04
0.6440088161604454
% es.Ey (V/m) @ t=0.04
0.09643348801972745
% es.Ez (V/m) @ t=0.04
-0.6430706818241165
% es.tEx (V/m) @ t=0.04
0.6440088161604525
% es.tEy (V/m) @ t=0.04
0
% es.tEz (V/m) @ t=0.04
-0.643070681824109
% V (V) @ t=0.04
0.009928607651257922
% es.normE (V/m) @ t=0.06
0.9356792826838589
% es.EX (V/m) @ t=0.06
0.6499293302047942
% es.EY (V/m) @ t=0.06
0.09732002147219077
% es.EZ (V/m) @ t=0.06
-0.6489825715392057
% es.tEX (V/m) @ t=0.06
0.6499293302047944
% es.tEY (V/m) @ t=0.06
0
% es.tEZ (V/m) @ t=0.06
-0.6489825715391984
% es.Ex (V/m) @ t=0.06
0.6499293302047942
% es.Ey (V/m) @ t=0.06
0.09732002147219077
% es.Ez (V/m) @ t=0.06
-0.6489825715392057
% es.tEx (V/m) @ t=0.06
0.6499293302047944
% es.tEy (V/m) @ t=0.06
0
% es.tEz (V/m) @ t=0.06
-0.6489825715391984
% V (V) @ t=0.06
0.010019883541922292
% es.normE (V/m) @ t=0.08
0.944353827664872
% es.EX (V/m) @ t=0.08
0.6559547293340555
% es.EY (V/m) @ t=0.08
0.09822226193858041
% es.EZ (V/m) @ t=0.08
-0.6549991932449641
% es.tEX (V/m) @ t=0.08
0.6559547293340589
% es.tEY (V/m) @ t=0.08
0
% es.tEZ (V/m) @ t=0.08
-0.6549991932449495
% es.Ex (V/m) @ t=0.08
0.6559547293340555
% es.Ey (V/m) @ t=0.08
0.09822226193858041
% es.Ez (V/m) @ t=0.08
-0.6549991932449641
% es.tEx (V/m) @ t=0.08
0.6559547293340589
% es.tEy (V/m) @ t=0.08
0
% es.tEz (V/m) @ t=0.08
-0.6549991932449495
% V (V) @ t=0.08
0.01011277637523032
% es.normE (V/m) @ t=0.1
0.9530899206329906
% es.EX (V/m) @ t=0.1
0.662022880066296
% es.EY (V/m) @ t=0.1
0.09913090465009916
% es.EZ (V/m) @ t=0.1
-0.6610585041518242
% es.tEX (V/m) @ t=0.1
0.6620228800662953
% es.tEY (V/m) @ t=0.1
0
% es.tEZ (V/m) @ t=0.1
-0.6610585041518169
% es.Ex (V/m) @ t=0.1
0.662022880066296
% es.Ey (V/m) @ t=0.1
0.09913090465009916
% es.Ez (V/m) @ t=0.1
-0.6610585041518242
% es.tEx (V/m) @ t=0.1
0.6620228800662953
% es.tEy (V/m) @ t=0.1
0
% es.tEz (V/m) @ t=0.1
-0.6610585041518169
% V (V) @ t=0.1
0.010206328281179447
% es.normE (V/m) @ t=0.12
0.9618260136010961
% es.EX (V/m) @ t=0.12
0.6680910307985302
% es.EY (V/m) @ t=0.12
0.10003954736162213
% es.EZ (V/m) @ t=0.12
-0.6671178150586734
% es.tEX (V/m) @ t=0.12
0.6680910307985335
% es.tEY (V/m) @ t=0.12
0
% es.tEZ (V/m) @ t=0.12
-0.6671178150586696
% es.Ex (V/m) @ t=0.12
0.6680910307985302
% es.Ey (V/m) @ t=0.12
0.10003954736162213
% es.Ez (V/m) @ t=0.12
-0.6671178150586734
% es.tEx (V/m) @ t=0.12
0.6680910307985335
% es.tEy (V/m) @ t=0.12
0
% es.tEz (V/m) @ t=0.12
-0.6671178150586696
% V (V) @ t=0.12
0.010299880187128572
% es.normE (V/m) @ t=0.14
0.9707552901825193
% es.EX (V/m) @ t=0.14
0.6742933683278347
% es.EY (V/m) @ t=0.14
0.10096828174773703
% es.EZ (V/m) @ t=0.14
-0.6733111175640651
% es.tEX (V/m) @ t=0.14
0.6742933683278411
% es.tEY (V/m) @ t=0.14
0
% es.tEZ (V/m) @ t=0.14
-0.673311117564054
% es.Ex (V/m) @ t=0.14
0.6742933683278347
% es.Ey (V/m) @ t=0.14
0.10096828174773703
% es.Ez (V/m) @ t=0.14
-0.6733111175640651
% es.tEx (V/m) @ t=0.14
0.6742933683278411
% es.tEy (V/m) @ t=0.14
0
% es.tEz (V/m) @ t=0.14
-0.673311117564054
% V (V) @ t=0.14
0.010395500885959117
% es.normE (V/m) @ t=0.16
0.9799401639264533
% es.EX (V/m) @ t=0.16
0.6806732455769582
% es.EY (V/m) @ t=0.16
0.10192359900455322
% es.EZ (V/m) @ t=0.16
-0.6796817015261971
% es.tEX (V/m) @ t=0.16
0.6806732455769651
% es.tEY (V/m) @ t=0.16
0
% es.tEZ (V/m) @ t=0.16
-0.6796817015261789
% es.Ex (V/m) @ t=0.16
0.6806732455769582
% es.Ey (V/m) @ t=0.16
0.10192359900455322
% es.Ez (V/m) @ t=0.16
-0.6796817015261971
% es.tEx (V/m) @ t=0.16
0.6806732455769651
% es.tEy (V/m) @ t=0.16
0
% es.tEz (V/m) @ t=0.16
-0.6796817015261789
% V (V) @ t=0.16
0.01049385876099866
% es.normE (V/m) @ t=0.18
0.989125037670383
% es.EX (V/m) @ t=0.18
0.6870531228260852
% es.EY (V/m) @ t=0.18
0.10287891626138373
% es.EZ (V/m) @ t=0.18
-0.6860522854883118
% es.tEX (V/m) @ t=0.18
0.6870531228260877
% es.tEY (V/m) @ t=0.18
0
% es.tEZ (V/m) @ t=0.18
-0.6860522854883042
% es.Ex (V/m) @ t=0.18
0.6870531228260852
% es.Ey (V/m) @ t=0.18
0.10287891626138373
% es.Ez (V/m) @ t=0.18
-0.6860522854883118
% es.tEx (V/m) @ t=0.18
0.6870531228260877
% es.tEy (V/m) @ t=0.18
0
% es.tEz (V/m) @ t=0.18
-0.6860522854883042
% V (V) @ t=0.18
0.010592216636038203
% es.normE (V/m) @ t=0.2
0.9983099114143333
% es.EX (V/m) @ t=0.2
0.6934330000752207
% es.EY (V/m) @ t=0.2
0.1038342335182072
% es.EZ (V/m) @ t=0.2
-0.6924228694504502
% es.tEX (V/m) @ t=0.2
0.6934330000752187
% es.tEY (V/m) @ t=0.2
0
% es.tEZ (V/m) @ t=0.2
-0.6924228694504428
% es.Ex (V/m) @ t=0.2
0.6934330000752207
% es.Ey (V/m) @ t=0.2
0.1038342335182072
% es.Ez (V/m) @ t=0.2
-0.6924228694504502
% es.tEx (V/m) @ t=0.2
0.6934330000752187
% es.tEy (V/m) @ t=0.2
0
% es.tEz (V/m) @ t=0.2
-0.6924228694504428
% V (V) @ t=0.2
0.010690574511077744
% es.normE (V/m) @ t=0.22
1.0074947851582738
% es.EX (V/m) @ t=0.22
0.6998128773243437
% es.EY (V/m) @ t=0.22
0.10478955077500385
% es.EZ (V/m) @ t=0.22
-0.6987934534125855
% es.tEX (V/m) @ t=0.22
0.6998128773243417
% es.tEY (V/m) @ t=0.22
0
% es.tEZ (V/m) @ t=0.22
-0.6987934534125673
% es.Ex (V/m) @ t=0.22
0.6998128773243437
% es.Ey (V/m) @ t=0.22
0.10478955077500385
% es.Ez (V/m) @ t=0.22
-0.6987934534125855
% es.tEx (V/m) @ t=0.22
0.6998128773243417
% es.tEy (V/m) @ t=0.22
0
% es.tEz (V/m) @ t=0.22
-0.6987934534125673
% V (V) @ t=0.22
0.010788932386117289
% es.normE (V/m) @ t=0.24
1.0166796589022005
% es.EX (V/m) @ t=0.24
0.706192754573465
% es.EY (V/m) @ t=0.24
0.1057448680318343
% es.EZ (V/m) @ t=0.24
-0.7051640373747072
% es.tEX (V/m) @ t=0.24
0.7061927545734643
% es.tEY (V/m) @ t=0.24
0
% es.tEZ (V/m) @ t=0.24
-0.7051640373746926
% es.Ex (V/m) @ t=0.24
0.706192754573465
% es.Ey (V/m) @ t=0.24
0.1057448680318343
% es.Ez (V/m) @ t=0.24
-0.7051640373747072
% es.tEx (V/m) @ t=0.24
0.7061927545734643
% es.tEy (V/m) @ t=0.24
0
% es.tEz (V/m) @ t=0.24
-0.7051640373746926
% V (V) @ t=0.24
0.01088729026115683
% es.normE (V/m) @ t=0.26
1.0258645326461435
% es.EX (V/m) @ t=0.26
0.7125726318225918
% es.EY (V/m) @ t=0.26
0.10670018528863456
% es.EZ (V/m) @ t=0.26
-0.7115346213368463
% es.tEX (V/m) @ t=0.26
0.7125726318225905
% es.tEY (V/m) @ t=0.26
0
% es.tEZ (V/m) @ t=0.26
-0.7115346213368392
% es.Ex (V/m) @ t=0.26
0.7125726318225918
% es.Ey (V/m) @ t=0.26
0.10670018528863456
% es.Ez (V/m) @ t=0.26
-0.7115346213368463
% es.tEx (V/m) @ t=0.26
0.7125726318225905
% es.tEy (V/m) @ t=0.26
0
% es.tEz (V/m) @ t=0.26
-0.7115346213368392
% V (V) @ t=0.26
0.010985648136196373
% es.normE (V/m) @ t=0.28
1.03592421462647
% es.EX (V/m) @ t=0.28
0.7195601605635946
% es.EY (V/m) @ t=0.28
0.10774644693521906
% es.EZ (V/m) @ t=0.28
-0.7185119810212339
% es.tEX (V/m) @ t=0.28
0.7195601605635971
% es.tEY (V/m) @ t=0.28
0
% es.tEZ (V/m) @ t=0.28
-0.7185119810212228
% es.Ex (V/m) @ t=0.28
0.7195601605635946
% es.Ey (V/m) @ t=0.28
0.10774644693521906
% es.Ez (V/m) @ t=0.28
-0.7185119810212339
% es.tEx (V/m) @ t=0.28
0.7195601605635971
% es.tEy (V/m) @ t=0.28
0
% es.tEz (V/m) @ t=0.28
-0.7185119810212228
% V (V) @ t=0.28
0.011093375790637615
% es.normE (V/m) @ t=0.3
1.0461139963228216
% es.EX (V/m) @ t=0.3
0.7266380580085474
% es.EY (V/m) @ t=0.3
0.10880623364796133
% es.EZ (V/m) @ t=0.3
-0.725579579166888
% es.tEX (V/m) @ t=0.3
0.726638058008549
% es.tEY (V/m) @ t=0.3
0
% es.tEZ (V/m) @ t=0.3
-0.7255795791668698
% es.Ex (V/m) @ t=0.3
0.7266380580085474
% es.Ey (V/m) @ t=0.3
0.10880623364796133
% es.Ez (V/m) @ t=0.3
-0.725579579166888
% es.tEx (V/m) @ t=0.3
0.726638058008549
% es.tEy (V/m) @ t=0.3
0
% es.tEz (V/m) @ t=0.3
-0.7255795791668698
% V (V) @ t=0.3
0.011202496899768223
% es.normE (V/m) @ t=0.32
1.0563037780191809
% es.EX (V/m) @ t=0.32
0.7337159554535009
% es.EY (V/m) @ t=0.32
0.10986602036070842
% es.EZ (V/m) @ t=0.32
-0.7326471773125487
% es.tEX (V/m) @ t=0.32
0.7337159554535084
% es.tEY (V/m) @ t=0.32
0
% es.tEZ (V/m) @ t=0.32
-0.732647177312538
% es.Ex (V/m) @ t=0.32
0.7337159554535009
% es.Ey (V/m) @ t=0.32
0.10986602036070842
% es.Ez (V/m) @ t=0.32
-0.7326471773125487
% es.tEx (V/m) @ t=0.32
0.7337159554535084
% es.tEy (V/m) @ t=0.32
0
% es.tEz (V/m) @ t=0.32
-0.732647177312538
% V (V) @ t=0.32
0.011311618008898825
% es.normE (V/m) @ t=0.34
1.066493559715549
% es.EX (V/m) @ t=0.34
0.7407938528984574
% es.EY (V/m) @ t=0.34
0.11092580707345329
% es.EZ (V/m) @ t=0.34
-0.7397147754582103
% es.tEX (V/m) @ t=0.34
0.7407938528984643
% es.tEY (V/m) @ t=0.34
0
% es.tEZ (V/m) @ t=0.34
-0.7397147754581992
% es.Ex (V/m) @ t=0.34
0.7407938528984574
% es.Ey (V/m) @ t=0.34
0.11092580707345329
% es.Ez (V/m) @ t=0.34
-0.7397147754582103
% es.tEx (V/m) @ t=0.34
0.7407938528984643
% es.tEy (V/m) @ t=0.34
0
% es.tEz (V/m) @ t=0.34
-0.7397147754581992
% V (V) @ t=0.34
0.011420739118029431
% es.normE (V/m) @ t=0.36
1.0766833414119132
% es.EX (V/m) @ t=0.36
0.7478717503434111
% es.EY (V/m) @ t=0.36
0.11198559378619055
% es.EZ (V/m) @ t=0.36
-0.7467823736038701
% es.tEX (V/m) @ t=0.36
0.7478717503434136
% es.tEY (V/m) @ t=0.36
0
% es.tEZ (V/m) @ t=0.36
-0.7467823736038666
% es.Ex (V/m) @ t=0.36
0.7478717503434111
% es.Ey (V/m) @ t=0.36
0.11198559378619055
% es.Ez (V/m) @ t=0.36
-0.7467823736038701
% es.tEx (V/m) @ t=0.36
0.7478717503434136
% es.tEy (V/m) @ t=0.36
0
% es.tEz (V/m) @ t=0.36
-0.7467823736038666
% V (V) @ t=0.36
0.011529860227160035
% es.normE (V/m) @ t=0.38
1.0868731231082935
% es.EX (V/m) @ t=0.38
0.7549496477883675
% es.EY (V/m) @ t=0.38
0.11304538049894519
% es.EZ (V/m) @ t=0.38
-0.7538499717495353
% es.tEX (V/m) @ t=0.38
0.7549496477883717
% es.tEY (V/m) @ t=0.38
0
% es.tEZ (V/m) @ t=0.38
-0.7538499717495206
% es.Ex (V/m) @ t=0.38
0.7549496477883675
% es.Ey (V/m) @ t=0.38
0.11304538049894519
% es.Ez (V/m) @ t=0.38
-0.7538499717495353
% es.tEx (V/m) @ t=0.38
0.7549496477883717
% es.tEy (V/m) @ t=0.38
0
% es.tEz (V/m) @ t=0.38
-0.7538499717495206
% V (V) @ t=0.38
0.011638981336290639
% es.normE (V/m) @ t=0.4
1.0970629048046656
% es.EX (V/m) @ t=0.4
0.7620275452333212
% es.EY (V/m) @ t=0.4
0.11410516721168495
% es.EZ (V/m) @ t=0.4
-0.760917569895192
% es.tEX (V/m) @ t=0.4
0.7620275452333218
% es.tEY (V/m) @ t=0.4
0
% es.tEZ (V/m) @ t=0.4
-0.7609175698951809
% es.Ex (V/m) @ t=0.4
0.7620275452333212
% es.Ey (V/m) @ t=0.4
0.11410516721168495
% es.Ez (V/m) @ t=0.4
-0.760917569895192
% es.tEx (V/m) @ t=0.4
0.7620275452333218
% es.tEy (V/m) @ t=0.4
0
% es.tEz (V/m) @ t=0.4
-0.7609175698951809
% V (V) @ t=0.4
0.011748102445421245
% es.normE (V/m) @ t=0.42
1.1072526865010457
% es.EX (V/m) @ t=0.42
0.7691054426782686
% es.EY (V/m) @ t=0.42
0.11516495392443821
% es.EZ (V/m) @ t=0.42
-0.7679851680408523
% es.tEX (V/m) @ t=0.42
0.7691054426782711
% es.tEY (V/m) @ t=0.42
0
% es.tEZ (V/m) @ t=0.42
-0.7679851680408412
% es.Ex (V/m) @ t=0.42
0.7691054426782686
% es.Ey (V/m) @ t=0.42
0.11516495392443821
% es.Ez (V/m) @ t=0.42
-0.7679851680408523
% es.tEx (V/m) @ t=0.42
0.7691054426782711
% es.tEy (V/m) @ t=0.42
0
% es.tEz (V/m) @ t=0.42
-0.7679851680408412
% V (V) @ t=0.42
0.011857223554551849
% es.normE (V/m) @ t=0.44
1.1174424681974338
% es.EX (V/m) @ t=0.44
0.7761833401232285
% es.EY (V/m) @ t=0.44
0.11622474063717331
% es.EZ (V/m) @ t=0.44
-0.7750527661865099
% es.tEX (V/m) @ t=0.44
0.7761833401232265
% es.tEY (V/m) @ t=0.44
0
% es.tEZ (V/m) @ t=0.44
-0.7750527661864952
% es.Ex (V/m) @ t=0.44
0.7761833401232285
% es.Ey (V/m) @ t=0.44
0.11622474063717331
% es.Ez (V/m) @ t=0.44
-0.7750527661865099
% es.tEx (V/m) @ t=0.44
0.7761833401232265
% es.tEy (V/m) @ t=0.44
0
% es.tEz (V/m) @ t=0.44
-0.7750527661864952
% V (V) @ t=0.44
0.011966344663682453
% es.normE (V/m) @ t=0.46
1.1276322498938232
% es.EX (V/m) @ t=0.46
0.7832612375681791
% es.EY (V/m) @ t=0.46
0.11728452734992179
% es.EZ (V/m) @ t=0.46
-0.7821203643321715
% es.tEX (V/m) @ t=0.46
0.7832612375681869
% es.tEY (V/m) @ t=0.46
0
% es.tEZ (V/m) @ t=0.46
-0.7821203643321573
% es.Ex (V/m) @ t=0.46
0.7832612375681791
% es.Ey (V/m) @ t=0.46
0.11728452734992179
% es.Ez (V/m) @ t=0.46
-0.7821203643321715
% es.tEx (V/m) @ t=0.46
0.7832612375681869
% es.tEy (V/m) @ t=0.46
0
% es.tEz (V/m) @ t=0.46
-0.7821203643321573
% V (V) @ t=0.46
0.012075465772813057
% es.normE (V/m) @ t=0.48
1.1378220315902148
% es.EX (V/m) @ t=0.48
0.7903391350131332
% es.EY (V/m) @ t=0.48
0.1183443140626606
% es.EZ (V/m) @ t=0.48
-0.7891879624778251
% es.tEX (V/m) @ t=0.48
0.7903391350131383
% es.tEY (V/m) @ t=0.48
0
% es.tEZ (V/m) @ t=0.48
-0.7891879624778104
% es.Ex (V/m) @ t=0.48
0.7903391350131332
% es.Ey (V/m) @ t=0.48
0.1183443140626606
% es.Ez (V/m) @ t=0.48
-0.7891879624778251
% es.tEx (V/m) @ t=0.48
0.7903391350131383
% es.tEy (V/m) @ t=0.48
0
% es.tEz (V/m) @ t=0.48
-0.7891879624778104
% V (V) @ t=0.48
0.012184586881943665
% es.normE (V/m) @ t=0.5
1.14801181328662
% es.EX (V/m) @ t=0.5
0.797417032458094
% es.EY (V/m) @ t=0.5
0.11940410077540076
% es.EZ (V/m) @ t=0.5
-0.7962555606234925
% es.tEX (V/m) @ t=0.5
0.7974170324580911
% es.tEY (V/m) @ t=0.5
0
% es.tEZ (V/m) @ t=0.5
-0.7962555606234849
% es.Ex (V/m) @ t=0.5
0.797417032458094
% es.Ey (V/m) @ t=0.5
0.11940410077540076
% es.Ez (V/m) @ t=0.5
-0.7962555606234925
% es.tEx (V/m) @ t=0.5
0.7974170324580911
% es.tEy (V/m) @ t=0.5
0
% es.tEz (V/m) @ t=0.5
-0.7962555606234849
% V (V) @ t=0.5
0.012293707991074267
% es.normE (V/m) @ t=0.52
1.1582015949830105
% es.EX (V/m) @ t=0.52
0.8044949299030382
% es.EY (V/m) @ t=0.52
0.120463887488159
% es.EZ (V/m) @ t=0.52
-0.803323158769143
% es.tEX (V/m) @ t=0.52
0.8044949299030395
% es.tEY (V/m) @ t=0.52
0
% es.tEZ (V/m) @ t=0.52
-0.8033231587691247
% es.Ex (V/m) @ t=0.52
0.8044949299030382
% es.Ey (V/m) @ t=0.52
0.120463887488159
% es.Ez (V/m) @ t=0.52
-0.803323158769143
% es.tEx (V/m) @ t=0.52
0.8044949299030395
% es.tEy (V/m) @ t=0.52
0
% es.tEz (V/m) @ t=0.52
-0.8033231587691247
% V (V) @ t=0.52
0.012402829100204871
% es.normE (V/m) @ t=0.54
1.1692423253985407
% es.EX (V/m) @ t=0.54
0.8121638996832867
% es.EY (V/m) @ t=0.54
0.12161221127144956
% es.EZ (V/m) @ t=0.54
-0.8109809621883648
% es.tEX (V/m) @ t=0.54
0.8121638996832954
% es.tEY (V/m) @ t=0.54
0
% es.tEZ (V/m) @ t=0.54
-0.8109809621883501
% es.Ex (V/m) @ t=0.54
0.8121638996832867
% es.Ey (V/m) @ t=0.54
0.12161221127144956
% es.Ez (V/m) @ t=0.54
-0.8109809621883648
% es.tEx (V/m) @ t=0.54
0.8121638996832954
% es.tEy (V/m) @ t=0.54
0
% es.tEz (V/m) @ t=0.54
-0.8109809621883501
% V (V) @ t=0.54
0.012521061584425872
% es.normE (V/m) @ t=0.56
1.1805656766407604
% es.EX (V/m) @ t=0.56
0.8200291790040384
% es.EY (V/m) @ t=0.56
0.12278994037555196
% es.EZ (V/m) @ t=0.56
-0.8188347871757196
% es.tEX (V/m) @ t=0.56
0.8200291790040444
% es.tEY (V/m) @ t=0.56
0
% es.tEZ (V/m) @ t=0.56
-0.8188347871757049
% es.Ex (V/m) @ t=0.56
0.8200291790040384
% es.Ey (V/m) @ t=0.56
0.12278994037555196
% es.Ez (V/m) @ t=0.56
-0.8188347871757196
% es.tEx (V/m) @ t=0.56
0.8200291790040444
% es.tEy (V/m) @ t=0.56
0
% es.tEz (V/m) @ t=0.56
-0.8188347871757049
% V (V) @ t=0.56
0.01264232017856699
% es.normE (V/m) @ t=0.58
1.1918890278829966
% es.EX (V/m) @ t=0.58
0.8278944583247938
% es.EY (V/m) @ t=0.58
0.12396766947965515
% es.EZ (V/m) @ t=0.58
-0.8266886121630894
% es.tEX (V/m) @ t=0.58
0.8278944583247951
% es.tEY (V/m) @ t=0.58
0
% es.tEZ (V/m) @ t=0.58
-0.8266886121630819
% es.Ex (V/m) @ t=0.58
0.8278944583247938
% es.Ey (V/m) @ t=0.58
0.12396766947965515
% es.Ez (V/m) @ t=0.58
-0.8266886121630894
% es.tEx (V/m) @ t=0.58
0.8278944583247951
% es.tEy (V/m) @ t=0.58
0
% es.tEz (V/m) @ t=0.58
-0.8266886121630819
% V (V) @ t=0.58
0.012763578772708109
% es.normE (V/m) @ t=0.6
1.2032123791252232
% es.EX (V/m) @ t=0.6
0.8357597376455488
% es.EY (V/m) @ t=0.6
0.12514539858376028
% es.EZ (V/m) @ t=0.6
-0.8345424371504442
% es.tEX (V/m) @ t=0.6
0.8357597376455503
% es.tEY (V/m) @ t=0.6
0
% es.tEZ (V/m) @ t=0.6
-0.8345424371504295
% es.Ex (V/m) @ t=0.6
0.8357597376455488
% es.Ey (V/m) @ t=0.6
0.12514539858376028
% es.Ez (V/m) @ t=0.6
-0.8345424371504442
% es.tEx (V/m) @ t=0.6
0.8357597376455503
% es.tEy (V/m) @ t=0.6
0
% es.tEz (V/m) @ t=0.6
-0.8345424371504295
% V (V) @ t=0.6
0.01288483736684923
% es.normE (V/m) @ t=0.62
1.2145357303674515
% es.EX (V/m) @ t=0.62
0.8436250169662987
% es.EY (V/m) @ t=0.62
0.12632312768786957
% es.EZ (V/m) @ t=0.62
-0.8423962621378069
% es.tEX (V/m) @ t=0.62
0.8436250169662989
% es.tEY (V/m) @ t=0.62
0
% es.tEZ (V/m) @ t=0.62
-0.8423962621377923
% es.Ex (V/m) @ t=0.62
0.8436250169662987
% es.Ey (V/m) @ t=0.62
0.12632312768786957
% es.Ez (V/m) @ t=0.62
-0.8423962621378069
% es.tEx (V/m) @ t=0.62
0.8436250169662989
% es.tEy (V/m) @ t=0.62
0
% es.tEz (V/m) @ t=0.62
-0.8423962621377923
% V (V) @ t=0.62
0.01300609596099035
% es.normE (V/m) @ t=0.64
1.2258590816096806
% es.EX (V/m) @ t=0.64
0.8514902962870519
% es.EY (V/m) @ t=0.64
0.12750085679196654
% es.EZ (V/m) @ t=0.64
-0.8502500871251732
% es.tEX (V/m) @ t=0.64
0.8514902962870496
% es.tEY (V/m) @ t=0.64
0
% es.tEZ (V/m) @ t=0.64
-0.850250087125155
% es.Ex (V/m) @ t=0.64
0.8514902962870519
% es.Ey (V/m) @ t=0.64
0.12750085679196654
% es.Ez (V/m) @ t=0.64
-0.8502500871251732
% es.tEx (V/m) @ t=0.64
0.8514902962870496
% es.tEy (V/m) @ t=0.64
0
% es.tEz (V/m) @ t=0.64
-0.850250087125155
% V (V) @ t=0.64
0.01312735455513147
% es.normE (V/m) @ t=0.66
1.2371824328519048
% es.EX (V/m) @ t=0.66
0.8593555756078064
% es.EY (V/m) @ t=0.66
0.1286785858960574
% es.EZ (V/m) @ t=0.66
-0.858103912112528
% es.tEX (V/m) @ t=0.66
0.8593555756078097
% es.tEY (V/m) @ t=0.66
0
% es.tEZ (V/m) @ t=0.66
-0.8581039121125169
% es.Ex (V/m) @ t=0.66
0.8593555756078064
% es.Ey (V/m) @ t=0.66
0.1286785858960574
% es.Ez (V/m) @ t=0.66
-0.858103912112528
% es.tEx (V/m) @ t=0.66
0.8593555756078097
% es.tEy (V/m) @ t=0.66
0
% es.tEz (V/m) @ t=0.66
-0.8581039121125169
% V (V) @ t=0.66
0.013248613149272587
% es.normE (V/m) @ t=0.68
1.2485057840941403
% es.EX (V/m) @ t=0.68
0.8672208549285616
% es.EY (V/m) @ t=0.68
0.12985631500016698
% es.EZ (V/m) @ t=0.68
-0.865957737099897
% es.tEX (V/m) @ t=0.68
0.8672208549285609
% es.tEY (V/m) @ t=0.68
0
% es.tEZ (V/m) @ t=0.68
-0.8659577370998788
% es.Ex (V/m) @ t=0.68
0.8672208549285616
% es.Ey (V/m) @ t=0.68
0.12985631500016698
% es.Ez (V/m) @ t=0.68
-0.865957737099897
% es.tEx (V/m) @ t=0.68
0.8672208549285609
% es.tEy (V/m) @ t=0.68
0
% es.tEz (V/m) @ t=0.68
-0.8659577370998788
% V (V) @ t=0.68
0.013369871743413708
% es.normE (V/m) @ t=0.7
1.2598291353363602
% es.EX (V/m) @ t=0.7
0.8750861342493093
% es.EY (V/m) @ t=0.7
0.13103404410427105
% es.EZ (V/m) @ t=0.7
-0.8738115620872526
% es.tEX (V/m) @ t=0.7
0.8750861342493126
% es.tEY (V/m) @ t=0.7
0
% es.tEZ (V/m) @ t=0.7
-0.8738115620872415
% es.Ex (V/m) @ t=0.7
0.8750861342493093
% es.Ey (V/m) @ t=0.7
0.13103404410427105
% es.Ez (V/m) @ t=0.7
-0.8738115620872526
% es.tEx (V/m) @ t=0.7
0.8750861342493126
% es.tEy (V/m) @ t=0.7
0
% es.tEz (V/m) @ t=0.7
-0.8738115620872415
% V (V) @ t=0.7
0.013491130337554827
% es.normE (V/m) @ t=0.72
1.2711524865785901
% es.EX (V/m) @ t=0.72
0.8829514135700613
% es.EY (V/m) @ t=0.72
0.132211773208383
% es.EZ (V/m) @ t=0.72
-0.8816653870746154
% es.tEX (V/m) @ t=0.72
0.8829514135700678
% es.tEY (V/m) @ t=0.72
0
% es.tEZ (V/m) @ t=0.72
-0.8816653870746043
% es.Ex (V/m) @ t=0.72
0.8829514135700613
% es.Ey (V/m) @ t=0.72
0.132211773208383
% es.Ez (V/m) @ t=0.72
-0.8816653870746154
% es.tEx (V/m) @ t=0.72
0.8829514135700678
% es.tEy (V/m) @ t=0.72
0
% es.tEz (V/m) @ t=0.72
-0.8816653870746043
% V (V) @ t=0.72
0.013612388931695946
% es.normE (V/m) @ t=0.74
1.2824758378208152
% es.EX (V/m) @ t=0.74
0.8908166928908148
% es.EY (V/m) @ t=0.74
0.13338950231248176
% es.EZ (V/m) @ t=0.74
-0.889519212061971
% es.tEX (V/m) @ t=0.74
0.8908166928908159
% es.tEY (V/m) @ t=0.74
0
% es.tEZ (V/m) @ t=0.74
-0.8895192120619528
% es.Ex (V/m) @ t=0.74
0.8908166928908148
% es.Ey (V/m) @ t=0.74
0.13338950231248176
% es.Ez (V/m) @ t=0.74
-0.889519212061971
% es.tEx (V/m) @ t=0.74
0.8908166928908159
% es.tEy (V/m) @ t=0.74
0
% es.tEz (V/m) @ t=0.74
-0.8895192120619528
% V (V) @ t=0.74
0.013733647525837066
% es.normE (V/m) @ t=0.76
1.2937991890630425
% es.EX (V/m) @ t=0.76
0.8986819722115666
% es.EY (V/m) @ t=0.76
0.134567231416568
% es.EZ (V/m) @ t=0.76
-0.8973730370493329
% es.tEX (V/m) @ t=0.76
0.8986819722115715
% es.tEY (V/m) @ t=0.76
0
% es.tEZ (V/m) @ t=0.76
-0.8973730370493218
% es.Ex (V/m) @ t=0.76
0.8986819722115666
% es.Ey (V/m) @ t=0.76
0.134567231416568
% es.Ez (V/m) @ t=0.76
-0.8973730370493329
% es.tEx (V/m) @ t=0.76
0.8986819722115715
% es.tEy (V/m) @ t=0.76
0
% es.tEz (V/m) @ t=0.76
-0.8973730370493218
% V (V) @ t=0.76
0.013854906119978186
% es.normE (V/m) @ t=0.78
1.3051225403052726
% es.EX (V/m) @ t=0.78
0.9065472515323207
% es.EY (V/m) @ t=0.78
0.13574496052069018
% es.EZ (V/m) @ t=0.78
-0.9052268620366948
% es.tEX (V/m) @ t=0.78
0.9065472515323236
% es.tEY (V/m) @ t=0.78
0
% es.tEZ (V/m) @ t=0.78
-0.9052268620366766
% es.Ex (V/m) @ t=0.78
0.9065472515323207
% es.Ey (V/m) @ t=0.78
0.13574496052069018
% es.Ez (V/m) @ t=0.78
-0.9052268620366948
% es.tEx (V/m) @ t=0.78
0.9065472515323236
% es.tEy (V/m) @ t=0.78
0
% es.tEz (V/m) @ t=0.78
-0.9052268620366766
% V (V) @ t=0.78
0.013976164714119303
% es.normE (V/m) @ t=0.8
1.3172539428202923
% es.EX (V/m) @ t=0.8
0.9149738086703254
% es.EY (V/m) @ t=0.8
0.13700673917330086
% es.EZ (V/m) @ t=0.8
-0.9136411460772571
% es.tEX (V/m) @ t=0.8
0.9149738086703296
% es.tEY (V/m) @ t=0.8
0
% es.tEZ (V/m) @ t=0.8
-0.9136411460772393
% es.Ex (V/m) @ t=0.8
0.9149738086703254
% es.Ey (V/m) @ t=0.8
0.13700673917330086
% es.Ez (V/m) @ t=0.8
-0.9136411460772571
% es.tEx (V/m) @ t=0.8
0.9149738086703296
% es.tEy (V/m) @ t=0.8
0
% es.tEz (V/m) @ t=0.8
-0.9136411460772393
% V (V) @ t=0.8
0.014106076288185734
% es.normE (V/m) @ t=0.82
1.3298582364784672
% es.EX (V/m) @ t=0.82
0.923728839158451
% es.EY (V/m) @ t=0.82
0.13831770565395585
% es.EZ (V/m) @ t=0.82
-0.9223834243073799
% es.tEX (V/m) @ t=0.82
0.9237288391584557
% es.tEY (V/m) @ t=0.82
0
% es.tEZ (V/m) @ t=0.82
-0.9223834243073616
% es.Ex (V/m) @ t=0.82
0.923728839158451
% es.Ey (V/m) @ t=0.82
0.13831770565395585
% es.Ez (V/m) @ t=0.82
-0.9223834243073799
% es.tEx (V/m) @ t=0.82
0.9237288391584557
% es.tEy (V/m) @ t=0.82
0
% es.tEz (V/m) @ t=0.82
-0.9223834243073616
% V (V) @ t=0.82
0.014241051795329862
% es.normE (V/m) @ t=0.84
1.3424625301366562
% es.EX (V/m) @ t=0.84
0.9324838696465794
% es.EY (V/m) @ t=0.84
0.13962867213463648
% es.EZ (V/m) @ t=0.84
-0.9311257025375119
% es.tEX (V/m) @ t=0.84
0.932483869646584
% es.tEY (V/m) @ t=0.84
0
% es.tEZ (V/m) @ t=0.84
-0.9311257025375008
% es.Ex (V/m) @ t=0.84
0.9324838696465794
% es.Ey (V/m) @ t=0.84
0.13962867213463648
% es.Ez (V/m) @ t=0.84
-0.9311257025375119
% es.tEx (V/m) @ t=0.84
0.932483869646584
% es.tEy (V/m) @ t=0.84
0
% es.tEz (V/m) @ t=0.84
-0.9311257025375008
% V (V) @ t=0.84
0.01437602730247399
% es.normE (V/m) @ t=0.86
1.355066823794834
% es.EX (V/m) @ t=0.86
0.9412389001346979
% es.EY (V/m) @ t=0.86
0.14093963861530545
% es.EZ (V/m) @ t=0.86
-0.9398679807676458
% es.tEX (V/m) @ t=0.86
0.9412389001347026
% es.tEY (V/m) @ t=0.86
0
% es.tEZ (V/m) @ t=0.86
-0.9398679807676311
% es.Ex (V/m) @ t=0.86
0.9412389001346979
% es.Ey (V/m) @ t=0.86
0.14093963861530545
% es.Ez (V/m) @ t=0.86
-0.9398679807676458
% es.tEx (V/m) @ t=0.86
0.9412389001347026
% es.tEy (V/m) @ t=0.86
0
% es.tEz (V/m) @ t=0.86
-0.9398679807676311
% V (V) @ t=0.86
0.014511002809618116
% es.normE (V/m) @ t=0.88
1.3676711174530285
% es.EX (V/m) @ t=0.88
0.9499939306228218
% es.EY (V/m) @ t=0.88
0.14225060509598075
% es.EZ (V/m) @ t=0.88
-0.9486102589977956
% es.tEX (V/m) @ t=0.88
0.949993930622826
% es.tEY (V/m) @ t=0.88
0
% es.tEZ (V/m) @ t=0.88
-0.9486102589977774
% es.Ex (V/m) @ t=0.88
0.9499939306228218
% es.Ey (V/m) @ t=0.88
0.14225060509598075
% es.Ez (V/m) @ t=0.88
-0.9486102589977956
% es.tEx (V/m) @ t=0.88
0.949993930622826
% es.tEy (V/m) @ t=0.88
0
% es.tEz (V/m) @ t=0.88
-0.9486102589977774
% V (V) @ t=0.88
0.01464597831676225
% es.normE (V/m) @ t=0.9
1.3802754111112085
% es.EX (V/m) @ t=0.9
0.9587489611109474
% es.EY (V/m) @ t=0.9
0.1435615715766455
% es.EZ (V/m) @ t=0.9
-0.9573525372279255
% es.tEX (V/m) @ t=0.9
0.9587489611109516
% es.tEY (V/m) @ t=0.9
0
% es.tEZ (V/m) @ t=0.9
-0.9573525372279077
% es.Ex (V/m) @ t=0.9
0.9587489611109474
% es.Ey (V/m) @ t=0.9
0.1435615715766455
% es.Ez (V/m) @ t=0.9
-0.9573525372279255
% es.tEx (V/m) @ t=0.9
0.9587489611109516
% es.tEy (V/m) @ t=0.9
0
% es.tEz (V/m) @ t=0.9
-0.9573525372279077
% V (V) @ t=0.9
0.014780953823906378
% es.normE (V/m) @ t=0.92
1.392879704769387
% es.EX (V/m) @ t=0.92
0.9675039915990722
% es.EY (V/m) @ t=0.92
0.14487253805732497
% es.EZ (V/m) @ t=0.92
-0.96609481545805
% es.tEX (V/m) @ t=0.92
0.9675039915990769
% es.tEY (V/m) @ t=0.92
0
% es.tEZ (V/m) @ t=0.92
-0.9660948154580318
% es.Ex (V/m) @ t=0.92
0.9675039915990722
% es.Ey (V/m) @ t=0.92
0.14487253805732497
% es.Ez (V/m) @ t=0.92
-0.96609481545805
% es.tEx (V/m) @ t=0.92
0.9675039915990769
% es.tEy (V/m) @ t=0.92
0
% es.tEz (V/m) @ t=0.92
-0.9660948154580318
% V (V) @ t=0.92
0.014915929331050506
% es.normE (V/m) @ t=0.94
1.4054839984275722
% es.EX (V/m) @ t=0.94
0.9762590220871934
% es.EY (V/m) @ t=0.94
0.14618350453798995
% es.EZ (V/m) @ t=0.94
-0.9748370936881945
% es.tEX (V/m) @ t=0.94
0.9762590220871976
% es.tEY (V/m) @ t=0.94
0
% es.tEZ (V/m) @ t=0.94
-0.9748370936881834
% es.Ex (V/m) @ t=0.94
0.9762590220871934
% es.Ey (V/m) @ t=0.94
0.14618350453798995
% es.Ez (V/m) @ t=0.94
-0.9748370936881945
% es.tEx (V/m) @ t=0.94
0.9762590220871976
% es.tEy (V/m) @ t=0.94
0
% es.tEz (V/m) @ t=0.94
-0.9748370936881834
% V (V) @ t=0.94
0.015050904838194634
% es.normE (V/m) @ t=0.96
1.4180882920857618
% es.EX (V/m) @ t=0.96
0.9850140525753222
% es.EY (V/m) @ t=0.96
0.1474944710186597
% es.EZ (V/m) @ t=0.96
-0.9835793719183328
% es.tEX (V/m) @ t=0.96
0.9850140525753259
% es.tEY (V/m) @ t=0.96
0
% es.tEZ (V/m) @ t=0.96
-0.9835793719183217
% es.Ex (V/m) @ t=0.96
0.9850140525753222
% es.Ey (V/m) @ t=0.96
0.1474944710186597
% es.Ez (V/m) @ t=0.96
-0.9835793719183328
% es.tEx (V/m) @ t=0.96
0.9850140525753259
% es.tEy (V/m) @ t=0.96
0
% es.tEz (V/m) @ t=0.96
-0.9835793719183217
% V (V) @ t=0.96
0.015185880345338762
% es.normE (V/m) @ t=0.98
1.4306925857439468
% es.EX (V/m) @ t=0.98
0.9937690830634465
% es.EY (V/m) @ t=0.98
0.14880543749931985
% es.EZ (V/m) @ t=0.98
-0.9923216501484675
% es.tEX (V/m) @ t=0.98
0.9937690830634511
% es.tEY (V/m) @ t=0.98
0
% es.tEZ (V/m) @ t=0.98
-0.9923216501484529
% es.Ex (V/m) @ t=0.98
0.9937690830634465
% es.Ey (V/m) @ t=0.98
0.14880543749931985
% es.Ez (V/m) @ t=0.98
-0.9923216501484675
% es.tEx (V/m) @ t=0.98
0.9937690830634511
% es.tEy (V/m) @ t=0.98
0
% es.tEz (V/m) @ t=0.98
-0.9923216501484529
% V (V) @ t=0.98
0.01532085585248289
% es.normE (V/m) @ t=1
1.443296879402133
% es.EX (V/m) @ t=1
1.00252411355157
% es.EY (V/m) @ t=1
0.15011640398001375
% es.EZ (V/m) @ t=1
-1.0010639283786023
% es.tEX (V/m) @ t=1
1.0025241135515763
% es.tEY (V/m) @ t=1
0
% es.tEZ (V/m) @ t=1
-1.001063928378584
% es.Ex (V/m) @ t=1
1.00252411355157
% es.Ey (V/m) @ t=1
0.15011640398001375
% es.Ez (V/m) @ t=1
-1.0010639283786023
% es.tEx (V/m) @ t=1
1.0025241135515763
% es.tEy (V/m) @ t=1
0
% es.tEz (V/m) @ t=1
-1.001063928378584
% V (V) @ t=1
0.015455831359627017
% es.normE (V/m) @ t=1.02
1.4559011730603089
% es.EX (V/m) @ t=1.02
1.0112791440396924
% es.EY (V/m) @ t=1.02
0.1514273704606785
% es.EZ (V/m) @ t=1.02
-1.0098062066087325
% es.tEX (V/m) @ t=1.02
1.0112791440396944
% es.tEY (V/m) @ t=1.02
0
% es.tEZ (V/m) @ t=1.02
-1.0098062066087143
% es.Ex (V/m) @ t=1.02
1.0112791440396924
% es.Ey (V/m) @ t=1.02
0.1514273704606785
% es.Ez (V/m) @ t=1.02
-1.0098062066087325
% es.tEx (V/m) @ t=1.02
1.0112791440396944
% es.tEy (V/m) @ t=1.02
0
% es.tEz (V/m) @ t=1.02
-1.0098062066087143
% V (V) @ t=1.02
0.015590806866771147
% es.normE (V/m) @ t=1.04
1.4685054667185036
% es.EX (V/m) @ t=1.04
1.0200341745278234
% es.EY (V/m) @ t=1.04
0.15273833694134825
% es.EZ (V/m) @ t=1.04
-1.0185484848388824