% Model:              1 neuron.mph
% Version:            COMSOL 6.1.0.252
% Date:               Mar 22 2023, 19:52
% Dimension:          0
% Nodes:              14017
% Expressions:        14017
% Description:        Electric field norm, Electric field, X component, Electric field, Y component, Electric field, Z component, Tangential electric field, X component, Tangential electric field, Y component, Tangential electric field, Z component, Electric field, x component, Electric field, y component, Electric field, z component, Tangential electric field, x component, Tangential electric field, y component, Tangential electric field, z component, Electric potential
% Length unit:        mm
% x
1.66
% y
12.200000000000001
% z
1.66
% es.normE (V/m) @ t=0
31.12362256772132
% es.EX (V/m) @ t=0
-14.698367069964476
% es.EY (V/m) @ t=0
11.792639448568345
% es.EZ (V/m) @ t=0
14.136481633648025
% es.tEX (V/m) @ t=0
-14.698367069964455
% es.tEY (V/m) @ t=0
0
% es.tEZ (V/m) @ t=0
14.136481633648003
% es.Ex (V/m) @ t=0
-14.698367069964476
% es.Ey (V/m) @ t=0
11.792639448568345
% es.Ez (V/m) @ t=0
14.136481633648025
% es.tEx (V/m) @ t=0
-14.698367069964455
% es.tEy (V/m) @ t=0
0
% es.tEz (V/m) @ t=0
14.136481633648003
% V (V) @ t=0
0.009768014502192389
% es.normE (V/m) @ t=0.02
26.881945672295693
% es.EX (V/m) @ t=0.02
-12.695202954434812
% es.EY (V/m) @ t=0.02
10.1854818579796
% es.EZ (V/m) @ t=0.02
12.20989395687036
% es.tEX (V/m) @ t=0.02
-12.695202954434805
% es.tEY (V/m) @ t=0.02
0
% es.tEZ (V/m) @ t=0.02
12.20989395687036
% es.Ex (V/m) @ t=0.02
-12.695202954434812
% es.Ey (V/m) @ t=0.02
10.1854818579796
% es.Ez (V/m) @ t=0.02
12.20989395687036
% es.tEx (V/m) @ t=0.02
-12.695202954434805
% es.tEy (V/m) @ t=0.02
0
% es.tEz (V/m) @ t=0.02
12.20989395687036
% V (V) @ t=0.02
0.008436782529888786
% es.normE (V/m) @ t=0.04
27.129383912781357
% es.EX (V/m) @ t=0.04
-12.812057559473104
% es.EY (V/m) @ t=0.04
10.279235407061172
% es.EZ (V/m) @ t=0.04
12.32228143468642
% es.tEX (V/m) @ t=0.04
-12.812057559473118
% es.tEY (V/m) @ t=0.04
0
% es.tEZ (V/m) @ t=0.04
12.322281434686431
% es.Ex (V/m) @ t=0.04
-12.812057559473104
% es.Ey (V/m) @ t=0.04
10.279235407061172
% es.Ez (V/m) @ t=0.04
12.32228143468642
% es.tEx (V/m) @ t=0.04
-12.812057559473118
% es.tEy (V/m) @ t=0.04
0
% es.tEz (V/m) @ t=0.04
12.322281434686431
% V (V) @ t=0.04
0.008514439949088928
% es.normE (V/m) @ t=0.06
27.37876215859503
% es.EX (V/m) @ t=0.06
-12.929828358952385
% es.EY (V/m) @ t=0.06
10.373724020586852
% es.EZ (V/m) @ t=0.06
12.435550055266912
% es.tEX (V/m) @ t=0.06
-12.929828358952392
% es.tEY (V/m) @ t=0.06
0
% es.tEZ (V/m) @ t=0.06
12.435550055266901
% es.Ex (V/m) @ t=0.06
-12.929828358952385
% es.Ey (V/m) @ t=0.06
10.373724020586852
% es.Ez (V/m) @ t=0.06
12.435550055266912
% es.tEx (V/m) @ t=0.06
-12.929828358952392
% es.tEy (V/m) @ t=0.06
0
% es.tEz (V/m) @ t=0.06
12.435550055266901
% V (V) @ t=0.06
0.008592706227928452
% es.normE (V/m) @ t=0.08
27.632618944199102
% es.EX (V/m) @ t=0.08
-13.049714137690266
% es.EY (V/m) @ t=0.08
10.469909528172224
% es.EZ (V/m) @ t=0.08
12.55085290649292
% es.tEX (V/m) @ t=0.08
-13.049714137690259
% es.tEY (V/m) @ t=0.08
0
% es.tEZ (V/m) @ t=0.08
12.550852906492935
% es.Ex (V/m) @ t=0.08
-13.049714137690266
% es.Ey (V/m) @ t=0.08
10.469909528172224
% es.Ez (V/m) @ t=0.08
12.55085290649292
% es.tEx (V/m) @ t=0.08
-13.049714137690259
% es.tEy (V/m) @ t=0.08
0
% es.tEz (V/m) @ t=0.08
12.550852906492935
% V (V) @ t=0.08
0.00867237808697729
% es.normE (V/m) @ t=0.1
27.88819196312556
% es.EX (V/m) @ t=0.1
-13.170410403338991
% es.EY (V/m) @ t=0.1
10.566745307110832
% es.EZ (V/m) @ t=0.1
12.66693530073578
% es.tEX (V/m) @ t=0.1
-13.17041040333902
% es.tEY (V/m) @ t=0.1
0
% es.tEZ (V/m) @ t=0.1
12.666935300735759
% es.Ex (V/m) @ t=0.1
-13.170410403338991
% es.Ey (V/m) @ t=0.1
10.566745307110832
% es.Ez (V/m) @ t=0.1
12.66693530073578
% es.tEx (V/m) @ t=0.1
-13.17041040333902
% es.tEy (V/m) @ t=0.1
0
% es.tEz (V/m) @ t=0.1
12.666935300735759
% V (V) @ t=0.1
0.00875258858221234
% es.normE (V/m) @ t=0.12
28.143764982051962
% es.EX (V/m) @ t=0.12
-13.29110666898773
% es.EY (V/m) @ t=0.12
10.66358108604939
% es.EZ (V/m) @ t=0.12
12.783017694978597
% es.tEX (V/m) @ t=0.12
-13.29110666898773
% es.tEY (V/m) @ t=0.12
0
% es.tEZ (V/m) @ t=0.12
12.78301769497861
% es.Ex (V/m) @ t=0.12
-13.29110666898773
% es.Ey (V/m) @ t=0.12
10.66358108604939
% es.Ez (V/m) @ t=0.12
12.783017694978597
% es.tEx (V/m) @ t=0.12
-13.29110666898773
% es.tEy (V/m) @ t=0.12
0
% es.tEz (V/m) @ t=0.12
12.78301769497861
% V (V) @ t=0.12
0.008832799077447388
% es.normE (V/m) @ t=0.14
28.405293758400905
% es.EX (V/m) @ t=0.14
-13.41461562774085
% es.EY (V/m) @ t=0.14
10.76267349140111
% es.EZ (V/m) @ t=0.14
12.901805165869401
% es.tEX (V/m) @ t=0.14
-13.414615627740844
% es.tEY (V/m) @ t=0.14
0
% es.tEZ (V/m) @ t=0.14
12.901805165869405
% es.Ex (V/m) @ t=0.14
-13.41461562774085
% es.Ey (V/m) @ t=0.14
10.76267349140111
% es.Ez (V/m) @ t=0.14
12.901805165869401
% es.tEx (V/m) @ t=0.14
-13.414615627740844
% es.tEy (V/m) @ t=0.14
0
% es.tEz (V/m) @ t=0.14
12.901805165869405
% V (V) @ t=0.14
0.008914878752338491
% es.normE (V/m) @ t=0.16
28.673942505378097
% es.EX (V/m) @ t=0.16
-13.541487096225126
% es.EY (V/m) @ t=0.16
10.864463641580478
% es.EZ (V/m) @ t=0.16
13.023826493499861
% es.tEX (V/m) @ t=0.16
-13.54148709622509
% es.tEY (V/m) @ t=0.16
0
% es.tEZ (V/m) @ t=0.16
13.023826493499882
% es.Ex (V/m) @ t=0.16
-13.541487096225126
% es.Ey (V/m) @ t=0.16
10.864463641580478
% es.Ez (V/m) @ t=0.16
13.023826493499861
% es.tEx (V/m) @ t=0.16
-13.54148709622509
% es.tEy (V/m) @ t=0.16
0
% es.tEz (V/m) @ t=0.16
13.023826493499882
% V (V) @ t=0.16
0.008999192988395617
% es.normE (V/m) @ t=0.18
28.942591252355403
% es.EX (V/m) @ t=0.18
-13.668358564709465
% es.EY (V/m) @ t=0.18
10.96625379175984
% es.EZ (V/m) @ t=0.18
13.145847821130463
% es.tEX (V/m) @ t=0.18
-13.668358564709472
% es.tEY (V/m) @ t=0.18
0
% es.tEZ (V/m) @ t=0.18
13.145847821130445
% es.Ex (V/m) @ t=0.18
-13.668358564709465
% es.Ey (V/m) @ t=0.18
10.96625379175984
% es.Ez (V/m) @ t=0.18
13.145847821130463
% es.tEx (V/m) @ t=0.18
-13.668358564709472
% es.tEy (V/m) @ t=0.18
0
% es.tEz (V/m) @ t=0.18
13.145847821130445
% V (V) @ t=0.18
0.00908350722445274
% es.normE (V/m) @ t=0.2
29.21123999933269
% es.EX (V/m) @ t=0.2
-13.795230033193768
% es.EY (V/m) @ t=0.2
11.068043941939258
% es.EZ (V/m) @ t=0.2
13.267869148760951
% es.tEX (V/m) @ t=0.2
-13.795230033193768
% es.tEY (V/m) @ t=0.2
0
% es.tEZ (V/m) @ t=0.2
13.267869148760951
% es.Ex (V/m) @ t=0.2
-13.795230033193768
% es.Ey (V/m) @ t=0.2
11.068043941939258
% es.Ez (V/m) @ t=0.2
13.267869148760951
% es.tEx (V/m) @ t=0.2
-13.795230033193768
% es.tEy (V/m) @ t=0.2
0
% es.tEz (V/m) @ t=0.2
13.267869148760951
% V (V) @ t=0.2
0.009167821460509866
% es.normE (V/m) @ t=0.22
29.47988874630995
% es.EX (V/m) @ t=0.22
-13.922101501678085
% es.EY (V/m) @ t=0.22
11.169834092118617
% es.EZ (V/m) @ t=0.22
13.389890476391496
% es.tEX (V/m) @ t=0.22
-13.922101501678057
% es.tEY (V/m) @ t=0.22
0
% es.tEZ (V/m) @ t=0.22
13.389890476391486
% es.Ex (V/m) @ t=0.22
-13.922101501678085
% es.Ey (V/m) @ t=0.22
11.169834092118617
% es.Ez (V/m) @ t=0.22
13.389890476391496
% es.tEx (V/m) @ t=0.22
-13.922101501678057
% es.tEy (V/m) @ t=0.22
0
% es.tEz (V/m) @ t=0.22
13.389890476391486
% V (V) @ t=0.22
0.00925213569656699
% es.normE (V/m) @ t=0.24
29.7485374932872
% es.EX (V/m) @ t=0.24
-14.048972970162389
% es.EY (V/m) @ t=0.24
11.271624242297968
% es.EZ (V/m) @ t=0.24
13.511911804021988
% es.tEX (V/m) @ t=0.24
-14.048972970162367
% es.tEY (V/m) @ t=0.24
0
% es.tEZ (V/m) @ t=0.24
13.511911804021992
% es.Ex (V/m) @ t=0.24
-14.048972970162389
% es.Ey (V/m) @ t=0.24
11.271624242297968
% es.Ez (V/m) @ t=0.24
13.511911804021988
% es.tEx (V/m) @ t=0.24
-14.048972970162367
% es.tEy (V/m) @ t=0.24
0
% es.tEz (V/m) @ t=0.24
13.511911804021992
% V (V) @ t=0.24
0.009336449932624113
% es.normE (V/m) @ t=0.26
30.017186240264472
% es.EX (V/m) @ t=0.26
-14.175844438646727
% es.EY (V/m) @ t=0.26
11.373414392477343
% es.EZ (V/m) @ t=0.26
13.63393313165254
% es.tEX (V/m) @ t=0.26
-14.175844438646664
% es.tEY (V/m) @ t=0.26
0
% es.tEZ (V/m) @ t=0.26
13.633933131652526
% es.Ex (V/m) @ t=0.26
-14.175844438646727
% es.Ey (V/m) @ t=0.26
11.373414392477343
% es.Ez (V/m) @ t=0.26
13.63393313165254
% es.tEx (V/m) @ t=0.26
-14.175844438646664
% es.tEy (V/m) @ t=0.26
0
% es.tEz (V/m) @ t=0.26
13.633933131652526
% V (V) @ t=0.26
0.009420764168681237
% es.normE (V/m) @ t=0.28
30.312767744200247
% es.EX (V/m) @ t=0.28
-14.315435911070182
% es.EY (V/m) @ t=0.28
11.485409456986268
% es.EZ (V/m) @ t=0.28
13.768186389437595
% es.tEX (V/m) @ t=0.28
-14.315435911070168
% es.tEY (V/m) @ t=0.28
0
% es.tEZ (V/m) @ t=0.28
13.768186389437545
% es.Ex (V/m) @ t=0.28
-14.315435911070182
% es.Ey (V/m) @ t=0.28
11.485409456986268
% es.Ez (V/m) @ t=0.28
13.768186389437595
% es.tEx (V/m) @ t=0.28
-14.315435911070168
% es.tEy (V/m) @ t=0.28
0
% es.tEz (V/m) @ t=0.28
13.768186389437545
% V (V) @ t=0.28
0.009513530957673608
% es.normE (V/m) @ t=0.3
30.610674166318837
% es.EX (V/m) @ t=0.3
-14.45612541324563
% es.EY (V/m) @ t=0.3
11.598285440998374
% es.EZ (V/m) @ t=0.3
13.903495544948573
% es.tEX (V/m) @ t=0.3
-14.45612541324563
% es.tEY (V/m) @ t=0.3
0
% es.tEZ (V/m) @ t=0.3
13.903495544948555
% es.Ex (V/m) @ t=0.3
-14.45612541324563
% es.Ey (V/m) @ t=0.3
11.598285440998374
% es.Ez (V/m) @ t=0.3
13.903495544948573
% es.tEx (V/m) @ t=0.3
-14.45612541324563
% es.tEy (V/m) @ t=0.3
0
% es.tEz (V/m) @ t=0.3
13.903495544948555
% V (V) @ t=0.3
0.009607027396959091
% es.normE (V/m) @ t=0.32
30.90858058843743
% es.EX (V/m) @ t=0.32
-14.596814915421056
% es.EY (V/m) @ t=0.32
11.711161425010452
% es.EZ (V/m) @ t=0.32
14.038804700459526
% es.tEX (V/m) @ t=0.32
-14.596814915421035
% es.tEY (V/m) @ t=0.32
0
% es.tEZ (V/m) @ t=0.32
14.038804700459536
% es.Ex (V/m) @ t=0.32
-14.596814915421056
% es.Ey (V/m) @ t=0.32
11.711161425010452
% es.Ez (V/m) @ t=0.32
14.038804700459526
% es.tEx (V/m) @ t=0.32
-14.596814915421035
% es.tEy (V/m) @ t=0.32
0
% es.tEz (V/m) @ t=0.32
14.038804700459536
% V (V) @ t=0.32
0.009700523836244576
% es.normE (V/m) @ t=0.34
31.20648701055609
% es.EX (V/m) @ t=0.34
-14.737504417596497
% es.EY (V/m) @ t=0.34
11.824037409022495
% es.EZ (V/m) @ t=0.34
14.174113855970504
% es.tEX (V/m) @ t=0.34
-14.73750441759649
% es.tEY (V/m) @ t=0.34
0
% es.tEZ (V/m) @ t=0.34
14.174113855970518
% es.Ex (V/m) @ t=0.34
-14.737504417596497
% es.Ey (V/m) @ t=0.34
11.824037409022495
% es.Ez (V/m) @ t=0.34
14.174113855970504
% es.tEx (V/m) @ t=0.34
-14.73750441759649
% es.tEy (V/m) @ t=0.34
0
% es.tEz (V/m) @ t=0.34
14.174113855970518
% V (V) @ t=0.34
0.009794020275530061
% es.normE (V/m) @ t=0.36
31.504393432674945
% es.EX (V/m) @ t=0.36
-14.878193919771945
% es.EY (V/m) @ t=0.36
11.936913393034594
% es.EZ (V/m) @ t=0.36
14.30942301148151
% es.tEX (V/m) @ t=0.36
-14.878193919771967
% es.tEY (V/m) @ t=0.36
0
% es.tEZ (V/m) @ t=0.36
14.309423011481528
% es.Ex (V/m) @ t=0.36
-14.878193919771945
% es.Ey (V/m) @ t=0.36
11.936913393034594
% es.Ez (V/m) @ t=0.36
14.30942301148151
% es.tEx (V/m) @ t=0.36
-14.878193919771967
% es.tEy (V/m) @ t=0.36
0
% es.tEz (V/m) @ t=0.36
14.309423011481528
% V (V) @ t=0.36
0.009887516714815544
% es.normE (V/m) @ t=0.38
31.802299854793755
% es.EX (V/m) @ t=0.38
-15.018883421947379
% es.EY (V/m) @ t=0.38
12.049789377046665
% es.EZ (V/m) @ t=0.38
14.444732166992498
% es.tEX (V/m) @ t=0.38
-15.0188834219474
% es.tEY (V/m) @ t=0.38
0
% es.tEZ (V/m) @ t=0.38
14.444732166992509
% es.Ex (V/m) @ t=0.38
-15.018883421947379
% es.Ey (V/m) @ t=0.38
12.049789377046665
% es.Ez (V/m) @ t=0.38
14.444732166992498
% es.tEx (V/m) @ t=0.38
-15.0188834219474
% es.tEy (V/m) @ t=0.38
0
% es.tEz (V/m) @ t=0.38
14.444732166992509
% V (V) @ t=0.38
0.009981013154101031
% es.normE (V/m) @ t=0.4
32.10020627691262
% es.EX (V/m) @ t=0.4
-15.15957292412282
% es.EY (V/m) @ t=0.4
12.162665361058686
% es.EZ (V/m) @ t=0.4
14.580041322503405
% es.tEX (V/m) @ t=0.4
-15.159572924122799
% es.tEY (V/m) @ t=0.4
0
% es.tEZ (V/m) @ t=0.4
14.580041322503405
% es.Ex (V/m) @ t=0.4
-15.15957292412282
% es.Ey (V/m) @ t=0.4
12.162665361058686
% es.Ez (V/m) @ t=0.4
14.580041322503405
% es.tEx (V/m) @ t=0.4
-15.159572924122799
% es.tEy (V/m) @ t=0.4
0
% es.tEz (V/m) @ t=0.4
14.580041322503405
% V (V) @ t=0.4
0.010074509593386514
% es.normE (V/m) @ t=0.42
32.39811269903168
% es.EX (V/m) @ t=0.42
-15.300262426298232
% es.EY (V/m) @ t=0.42
12.275541345070778
% es.EZ (V/m) @ t=0.42
14.715350478014454
% es.tEX (V/m) @ t=0.42
-15.30026242629824
% es.tEY (V/m) @ t=0.42
0
% es.tEZ (V/m) @ t=0.42
14.715350478014443
% es.Ex (V/m) @ t=0.42
-15.300262426298232
% es.Ey (V/m) @ t=0.42
12.275541345070778
% es.Ez (V/m) @ t=0.42
14.715350478014454
% es.tEx (V/m) @ t=0.42
-15.30026242629824
% es.tEy (V/m) @ t=0.42
0
% es.tEz (V/m) @ t=0.42
14.715350478014443
% V (V) @ t=0.42
0.010168006032671999
% es.normE (V/m) @ t=0.44
32.69601912115076
% es.EX (V/m) @ t=0.44
-15.44095192847368
% es.EY (V/m) @ t=0.44
12.388417329082863
% es.EZ (V/m) @ t=0.44
14.850659633525435
% es.tEX (V/m) @ t=0.44
-15.440951928473709
% es.tEY (V/m) @ t=0.44
0
% es.tEZ (V/m) @ t=0.44
14.850659633525424
% es.Ex (V/m) @ t=0.44
-15.44095192847368
% es.Ey (V/m) @ t=0.44
12.388417329082863
% es.Ez (V/m) @ t=0.44
14.850659633525435
% es.tEx (V/m) @ t=0.44
-15.440951928473709
% es.tEy (V/m) @ t=0.44
0
% es.tEz (V/m) @ t=0.44
14.850659633525424
% V (V) @ t=0.44
0.010261502471957482
% es.normE (V/m) @ t=0.46
32.993925543269825
% es.EX (V/m) @ t=0.46
-15.581641430649114
% es.EY (V/m) @ t=0.46
12.501293313094898
% es.EZ (V/m) @ t=0.46
14.985968789036384
% es.tEX (V/m) @ t=0.46
-15.581641430649114
% es.tEY (V/m) @ t=0.46
0
% es.tEZ (V/m) @ t=0.46
14.985968789036377
% es.Ex (V/m) @ t=0.46
-15.581641430649114
% es.Ey (V/m) @ t=0.46
12.501293313094898
% es.Ez (V/m) @ t=0.46
14.985968789036384
% es.tEx (V/m) @ t=0.46
-15.581641430649114
% es.tEy (V/m) @ t=0.46
0
% es.tEz (V/m) @ t=0.46
14.985968789036377
% V (V) @ t=0.46
0.010354998911242967
% es.normE (V/m) @ t=0.48
33.29183196538905
% es.EX (V/m) @ t=0.48
-15.722330932824562
% es.EY (V/m) @ t=0.48
12.614169297107004
% es.EZ (V/m) @ t=0.48
15.121277944547359
% es.tEX (V/m) @ t=0.48
-15.722330932824569
% es.tEY (V/m) @ t=0.48
0
% es.tEZ (V/m) @ t=0.48
15.121277944547387
% es.Ex (V/m) @ t=0.48
-15.722330932824562
% es.Ey (V/m) @ t=0.48
12.614169297107004
% es.Ez (V/m) @ t=0.48
15.121277944547359
% es.tEx (V/m) @ t=0.48
-15.722330932824569
% es.tEy (V/m) @ t=0.48
0
% es.tEz (V/m) @ t=0.48
15.121277944547387
% V (V) @ t=0.48
0.01044849535052845
% es.normE (V/m) @ t=0.5
33.58973838750829
% es.EX (V/m) @ t=0.5
-15.863020435000024
% es.EY (V/m) @ t=0.5
12.727045281119096
% es.EZ (V/m) @ t=0.5
15.256587100058383
% es.tEX (V/m) @ t=0.5
-15.863020435000003
% es.tEY (V/m) @ t=0.5
0
% es.tEZ (V/m) @ t=0.5
15.25658710005834
% es.Ex (V/m) @ t=0.5
-15.863020435000024
% es.Ey (V/m) @ t=0.5
12.727045281119096
% es.Ez (V/m) @ t=0.5
15.256587100058383
% es.tEx (V/m) @ t=0.5
-15.863020435000003
% es.tEy (V/m) @ t=0.5
0
% es.tEz (V/m) @ t=0.5
15.25658710005834
% V (V) @ t=0.5
0.010541991789813935
% es.normE (V/m) @ t=0.52
33.88764480962756
% es.EX (V/m) @ t=0.52
-16.003709937175444
% es.EY (V/m) @ t=0.52
12.839921265131132
% es.EZ (V/m) @ t=0.52
15.391896255569328
% es.tEX (V/m) @ t=0.52
-16.003709937175422
% es.tEY (V/m) @ t=0.52
0
% es.tEZ (V/m) @ t=0.52
15.391896255569293
% es.Ex (V/m) @ t=0.52
-16.003709937175444
% es.Ey (V/m) @ t=0.52
12.839921265131132
% es.Ez (V/m) @ t=0.52
15.391896255569328
% es.tEx (V/m) @ t=0.52
-16.003709937175422
% es.tEy (V/m) @ t=0.52
0
% es.tEz (V/m) @ t=0.52
15.391896255569293
% V (V) @ t=0.52
0.010635488229099422
% es.normE (V/m) @ t=0.54
34.213624306022
% es.EX (V/m) @ t=0.54
-16.157656373224853
% es.EY (V/m) @ t=0.54
12.963433869069988
% es.EZ (V/m) @ t=0.54
15.539957342275756
% es.tEX (V/m) @ t=0.54
-16.157656373224846
% es.tEY (V/m) @ t=0.54
0
% es.tEZ (V/m) @ t=0.54
15.539957342275784
% es.Ex (V/m) @ t=0.54
-16.157656373224853
% es.Ey (V/m) @ t=0.54
12.963433869069988
% es.Ez (V/m) @ t=0.54
15.539957342275756
% es.tEx (V/m) @ t=0.54
-16.157656373224846
% es.tEy (V/m) @ t=0.54
0
% es.tEz (V/m) @ t=0.54
15.539957342275784
% V (V) @ t=0.54
0.010737795454427039
% es.normE (V/m) @ t=0.56
34.544532807851255
% es.EX (V/m) @ t=0.56
-16.313930431054217
% es.EY (V/m) @ t=0.56
13.088814026128034
% es.EZ (V/m) @ t=0.56
15.690257383560251
% es.tEX (V/m) @ t=0.56
-16.31393043105423
% es.tEY (V/m) @ t=0.56
0
% es.tEZ (V/m) @ t=0.56
15.690257383560265
% es.Ex (V/m) @ t=0.56
-16.313930431054217
% es.Ey (V/m) @ t=0.56
13.088814026128034
% es.Ez (V/m) @ t=0.56
15.690257383560251
% es.tEx (V/m) @ t=0.56
-16.31393043105423
% es.tEy (V/m) @ t=0.56
0
% es.tEz (V/m) @ t=0.56
15.690257383560265
% V (V) @ t=0.56
0.010841649657184411
% es.normE (V/m) @ t=0.58
34.87544130968057
% es.EX (V/m) @ t=0.58
-16.470204488883667
% es.EY (V/m) @ t=0.58
13.214194183186102
% es.EZ (V/m) @ t=0.58
15.840557424844718
% es.tEX (V/m) @ t=0.58
-16.47020448888366
% es.tEY (V/m) @ t=0.58
0
% es.tEZ (V/m) @ t=0.58
15.84055742484469
% es.Ex (V/m) @ t=0.58
-16.470204488883667
% es.Ey (V/m) @ t=0.58
13.214194183186102
% es.Ez (V/m) @ t=0.58
15.840557424844718
% es.tEx (V/m) @ t=0.58
-16.47020448888366
% es.tEy (V/m) @ t=0.58
0
% es.tEz (V/m) @ t=0.58
15.84055742484469
% V (V) @ t=0.58
0.010945503859941783
% es.normE (V/m) @ t=0.6
35.20634981150978
% es.EX (V/m) @ t=0.6
-16.62647854671303
% es.EY (V/m) @ t=0.6
13.33957434024417
% es.EZ (V/m) @ t=0.6
15.990857466129121
% es.tEX (V/m) @ t=0.6
-16.62647854671306
% es.tEY (V/m) @ t=0.6
0
% es.tEZ (V/m) @ t=0.6
15.990857466129114
% es.Ex (V/m) @ t=0.6
-16.62647854671303
% es.Ey (V/m) @ t=0.6
13.33957434024417
% es.Ez (V/m) @ t=0.6
15.990857466129121
% es.tEx (V/m) @ t=0.6
-16.62647854671306
% es.tEy (V/m) @ t=0.6
0
% es.tEz (V/m) @ t=0.6
15.990857466129114
% V (V) @ t=0.6
0.011049358062699155
% es.normE (V/m) @ t=0.62
35.53725831333909
% es.EX (V/m) @ t=0.62
-16.782752604542452
% es.EY (V/m) @ t=0.62
13.46495449730218
% es.EZ (V/m) @ t=0.62
16.14115750741361
% es.tEX (V/m) @ t=0.62
-16.782752604542445
% es.tEY (V/m) @ t=0.62
0
% es.tEZ (V/m) @ t=0.62
16.141157507413595
% es.Ex (V/m) @ t=0.62
-16.782752604542452
% es.Ey (V/m) @ t=0.62
13.46495449730218
% es.Ez (V/m) @ t=0.62
16.14115750741361
% es.tEx (V/m) @ t=0.62
-16.782752604542445
% es.tEy (V/m) @ t=0.62
0
% es.tEz (V/m) @ t=0.62
16.141157507413595
% V (V) @ t=0.62
0.01115321226545653
% es.normE (V/m) @ t=0.64
35.86816681516845
% es.EX (V/m) @ t=0.64
-16.939026662371873
% es.EY (V/m) @ t=0.64
13.59033465436029
% es.EZ (V/m) @ t=0.64
16.291457548698133
% es.tEX (V/m) @ t=0.64
-16.93902666237186
% es.tEY (V/m) @ t=0.64
0
% es.tEZ (V/m) @ t=0.64
16.291457548698133
% es.Ex (V/m) @ t=0.64
-16.939026662371873
% es.Ey (V/m) @ t=0.64
13.59033465436029
% es.Ez (V/m) @ t=0.64
16.291457548698133
% es.tEx (V/m) @ t=0.64
-16.93902666237186
% es.tEy (V/m) @ t=0.64
0
% es.tEz (V/m) @ t=0.64
16.291457548698133
% V (V) @ t=0.64
0.011257066468213898
% es.normE (V/m) @ t=0.66
36.1990753169977
% es.EX (V/m) @ t=0.66
-17.09530072020131
% es.EY (V/m) @ t=0.66
13.715714811418302
% es.EZ (V/m) @ t=0.66
16.441757589982544
% es.tEX (V/m) @ t=0.66
-17.095300720201287
% es.tEY (V/m) @ t=0.66
0
% es.tEZ (V/m) @ t=0.66
16.441757589982615
% es.Ex (V/m) @ t=0.66
-17.09530072020131
% es.Ey (V/m) @ t=0.66
13.715714811418302
% es.Ez (V/m) @ t=0.66
16.441757589982544
% es.tEx (V/m) @ t=0.66
-17.095300720201287
% es.tEy (V/m) @ t=0.66
0
% es.tEz (V/m) @ t=0.66
16.441757589982615
% V (V) @ t=0.66
0.011360920670971273
% es.normE (V/m) @ t=0.68
36.52998381882697
% es.EX (V/m) @ t=0.68
-17.251574778030673
% es.EY (V/m) @ t=0.68
13.84109496847639
% es.EZ (V/m) @ t=0.68
16.59205763126704
% es.tEX (V/m) @ t=0.68
-17.251574778030673
% es.tEY (V/m) @ t=0.68
0
% es.tEZ (V/m) @ t=0.68
16.592057631266982
% es.Ex (V/m) @ t=0.68
-17.251574778030673
% es.Ey (V/m) @ t=0.68
13.84109496847639
% es.Ez (V/m) @ t=0.68
16.59205763126704
% es.tEx (V/m) @ t=0.68
-17.251574778030673
% es.tEy (V/m) @ t=0.68
0
% es.tEz (V/m) @ t=0.68
16.592057631266982
% V (V) @ t=0.68
0.011464774873728645
% es.normE (V/m) @ t=0.7
36.86089232065618
% es.EX (V/m) @ t=0.7
-17.407848835860065
% es.EY (V/m) @ t=0.7
13.966475125534366
% es.EZ (V/m) @ t=0.7
16.742357672551464
% es.tEX (V/m) @ t=0.7
-17.407848835860044
% es.tEY (V/m) @ t=0.7
0
% es.tEZ (V/m) @ t=0.7
16.742357672551407
% es.Ex (V/m) @ t=0.7
-17.407848835860065
% es.Ey (V/m) @ t=0.7
13.966475125534366
% es.Ez (V/m) @ t=0.7
16.742357672551464
% es.tEx (V/m) @ t=0.7
-17.407848835860044
% es.tEy (V/m) @ t=0.7
0
% es.tEz (V/m) @ t=0.7
16.742357672551407
% V (V) @ t=0.7
0.011568629076486016
% es.normE (V/m) @ t=0.72
37.191800822485504
% es.EX (V/m) @ t=0.72
-17.564122893689458
% es.EY (V/m) @ t=0.72
14.091855282592427
% es.EZ (V/m) @ t=0.72
16.892657713835916
% es.tEX (V/m) @ t=0.72
-17.564122893689486
% es.tEY (V/m) @ t=0.72
0
% es.tEZ (V/m) @ t=0.72
16.892657713835888
% es.Ex (V/m) @ t=0.72
-17.564122893689458
% es.Ey (V/m) @ t=0.72
14.091855282592427
% es.Ez (V/m) @ t=0.72
16.892657713835916
% es.tEx (V/m) @ t=0.72
-17.564122893689486
% es.tEy (V/m) @ t=0.72
0
% es.tEz (V/m) @ t=0.72
16.892657713835888
% V (V) @ t=0.72
0.01167248327924339
% es.normE (V/m) @ t=0.74
37.52270932431473
% es.EX (V/m) @ t=0.74
-17.720396951518822
% es.EY (V/m) @ t=0.74
14.217235439650494
% es.EZ (V/m) @ t=0.74
17.042957755120355
% es.tEX (V/m) @ t=0.74
-17.720396951518858
% es.tEY (V/m) @ t=0.74
0
% es.tEZ (V/m) @ t=0.74
17.04295775512037
% es.Ex (V/m) @ t=0.74
-17.720396951518822
% es.Ey (V/m) @ t=0.74
14.217235439650494
% es.Ez (V/m) @ t=0.74
17.042957755120355
% es.tEx (V/m) @ t=0.74
-17.720396951518858
% es.tEy (V/m) @ t=0.74
0
% es.tEz (V/m) @ t=0.74
17.04295775512037
% V (V) @ t=0.74
0.01177633748200076
% es.normE (V/m) @ t=0.76
37.85361782614406
% es.EX (V/m) @ t=0.76
-17.876671009348257
% es.EY (V/m) @ t=0.76
14.342615596708598
% es.EZ (V/m) @ t=0.76
17.19325779640485
% es.tEX (V/m) @ t=0.76
-17.876671009348215
% es.tEY (V/m) @ t=0.76
0
% es.tEZ (V/m) @ t=0.76
17.19325779640485
% es.Ex (V/m) @ t=0.76
-17.876671009348257
% es.Ey (V/m) @ t=0.76
14.342615596708598
% es.Ez (V/m) @ t=0.76
17.19325779640485
% es.tEx (V/m) @ t=0.76
-17.876671009348215
% es.tEy (V/m) @ t=0.76
0
% es.tEz (V/m) @ t=0.76
17.19325779640485
% V (V) @ t=0.76
0.011880191684758134
% es.normE (V/m) @ t=0.78
38.18452632797337
% es.EX (V/m) @ t=0.78
-18.032945067177735
% es.EY (V/m) @ t=0.78
14.467995753766623
% es.EZ (V/m) @ t=0.78
17.343557837689332
% es.tEX (V/m) @ t=0.78
-18.032945067177756
% es.tEY (V/m) @ t=0.78
0
% es.tEZ (V/m) @ t=0.78
17.343557837689332
% es.Ex (V/m) @ t=0.78
-18.032945067177735
% es.Ey (V/m) @ t=0.78
14.467995753766623
% es.Ez (V/m) @ t=0.78
17.343557837689332
% es.tEx (V/m) @ t=0.78
-18.032945067177756
% es.tEy (V/m) @ t=0.78
0
% es.tEz (V/m) @ t=0.78
17.343557837689332
% V (V) @ t=0.78
0.011984045887515504
% es.normE (V/m) @ t=0.8
38.544530061758735
% es.EX (V/m) @ t=0.8
-18.202959726590436
% es.EY (V/m) @ t=0.8
14.604400034954459
% es.EZ (V/m) @ t=0.8
17.507072852574503
% es.tEX (V/m) @ t=0.8
-18.202959726590436
% es.tEY (V/m) @ t=0.8
0
% es.tEZ (V/m) @ t=0.8
17.507072852574538
% es.Ex (V/m) @ t=0.8
-18.202959726590436
% es.Ey (V/m) @ t=0.8
14.604400034954459
% es.Ez (V/m) @ t=0.8
17.507072852574503
% es.tEx (V/m) @ t=0.8
-18.202959726590436
% es.tEy (V/m) @ t=0.8
0
% es.tEz (V/m) @ t=0.8
17.507072852574538
% V (V) @ t=0.8
0.012097031468689994
% es.normE (V/m) @ t=0.82
38.91270408364947
% es.EX (V/m) @ t=0.82
-18.3768329107899
% es.EY (V/m) @ t=0.82
14.743900021665077
% es.EZ (V/m) @ t=0.82
17.67429878964053
% es.tEX (V/m) @ t=0.82
-18.37683291078988
% es.tEY (V/m) @ t=0.82
0
% es.tEZ (V/m) @ t=0.82
17.67429878964049
% es.Ex (V/m) @ t=0.82
-18.3768329107899
% es.Ey (V/m) @ t=0.82
14.743900021665077
% es.Ez (V/m) @ t=0.82
17.67429878964053
% es.tEx (V/m) @ t=0.82
-18.37683291078988
% es.tEy (V/m) @ t=0.82
0
% es.tEz (V/m) @ t=0.82
17.67429878964049
% V (V) @ t=0.82
0.012212581249819329
% es.normE (V/m) @ t=0.84
39.28087810554022
% es.EX (V/m) @ t=0.84
-18.55070609498935
% es.EY (V/m) @ t=0.84
14.88340000837568
% es.EZ (V/m) @ t=0.84
17.841524726706567
% es.tEX (V/m) @ t=0.84
-18.55070609498938
% es.tEY (V/m) @ t=0.84
0
% es.tEZ (V/m) @ t=0.84
17.841524726706552
% es.Ex (V/m) @ t=0.84
-18.55070609498935
% es.Ey (V/m) @ t=0.84
14.88340000837568
% es.Ez (V/m) @ t=0.84
17.841524726706567
% es.tEx (V/m) @ t=0.84
-18.55070609498938
% es.tEy (V/m) @ t=0.84
0
% es.tEz (V/m) @ t=0.84
17.841524726706552
% V (V) @ t=0.84
0.012328131030948666
% es.normE (V/m) @ t=0.86
39.64905212743103
% es.EX (V/m) @ t=0.86
-18.724579279188816
% es.EY (V/m) @ t=0.86
15.022899995086327
% es.EZ (V/m) @ t=0.86
18.008750663772666
% es.tEX (V/m) @ t=0.86
-18.724579279188852
% es.tEY (V/m) @ t=0.86
0
% es.tEZ (V/m) @ t=0.86
18.008750663772673
% es.Ex (V/m) @ t=0.86
-18.724579279188816
% es.Ey (V/m) @ t=0.86
15.022899995086327
% es.Ez (V/m) @ t=0.86
18.008750663772666
% es.tEx (V/m) @ t=0.86
-18.724579279188852
% es.tEy (V/m) @ t=0.86
0
% es.tEz (V/m) @ t=0.86
18.008750663772673
% V (V) @ t=0.86
0.012443680812078004
% es.normE (V/m) @ t=0.88
40.017226149321715
% es.EX (V/m) @ t=0.88
-18.898452463388253
% es.EY (V/m) @ t=0.88
15.162399981796874
% es.EZ (V/m) @ t=0.88
18.175976600838588
% es.tEX (V/m) @ t=0.88
-18.89845246338829
% es.tEY (V/m) @ t=0.88
0
% es.tEZ (V/m) @ t=0.88
18.175976600838624
% es.Ex (V/m) @ t=0.88
-18.898452463388253
% es.Ey (V/m) @ t=0.88
15.162399981796874
% es.Ez (V/m) @ t=0.88
18.175976600838588
% es.tEx (V/m) @ t=0.88
-18.89845246338829
% es.tEy (V/m) @ t=0.88
0
% es.tEz (V/m) @ t=0.88
18.175976600838624
% V (V) @ t=0.88
0.012559230593207339
% es.normE (V/m) @ t=0.9
40.38540017121248
% es.EX (V/m) @ t=0.9
-19.072325647587718
% es.EY (V/m) @ t=0.9
15.301899968507385
% es.EZ (V/m) @ t=0.9
18.343202537904716
% es.tEX (V/m) @ t=0.9
-19.07232564758776
% es.tEY (V/m) @ t=0.9
0
% es.tEZ (V/m) @ t=0.9
18.343202537904745
% es.Ex (V/m) @ t=0.9
-19.072325647587718
% es.Ey (V/m) @ t=0.9
15.301899968507385
% es.Ez (V/m) @ t=0.9
18.343202537904716
% es.tEx (V/m) @ t=0.9
-19.07232564758776
% es.tEy (V/m) @ t=0.9
0
% es.tEz (V/m) @ t=0.9
18.343202537904745
% V (V) @ t=0.9
0.012674780374336675
% es.normE (V/m) @ t=0.92
40.75357419310326
% es.EX (V/m) @ t=0.92
-19.246198831787254
% es.EY (V/m) @ t=0.92
15.441399955217967
% es.EZ (V/m) @ t=0.92
18.510428474970787
% es.tEX (V/m) @ t=0.92
-19.246198831787233
% es.tEY (V/m) @ t=0.92
0
% es.tEZ (V/m) @ t=0.92
18.51042847497075
% es.Ex (V/m) @ t=0.92
-19.246198831787254
% es.Ey (V/m) @ t=0.92
15.441399955217967
% es.Ez (V/m) @ t=0.92
18.510428474970787
% es.tEx (V/m) @ t=0.92
-19.246198831787233
% es.tEy (V/m) @ t=0.92
0
% es.tEz (V/m) @ t=0.92
18.51042847497075
% V (V) @ t=0.92
0.01279033015546601
% es.normE (V/m) @ t=0.94
41.121748214993985
% es.EX (V/m) @ t=0.94
-19.42007201598672
% es.EY (V/m) @ t=0.94
15.58089994192865
% es.EZ (V/m) @ t=0.94
18.677654412036766
% es.tEX (V/m) @ t=0.94
-19.420072015986705
% es.tEY (V/m) @ t=0.94
0
% es.tEZ (V/m) @ t=0.94
18.67765441203676
% es.Ex (V/m) @ t=0.94
-19.42007201598672
% es.Ey (V/m) @ t=0.94
15.58089994192865
% es.Ez (V/m) @ t=0.94
18.677654412036766
% es.tEx (V/m) @ t=0.94
-19.420072015986705
% es.tEy (V/m) @ t=0.94
0
% es.tEz (V/m) @ t=0.94
18.67765441203676
% V (V) @ t=0.94
0.012905879936595347
% es.normE (V/m) @ t=0.96
41.489922236884716
% es.EX (V/m) @ t=0.96
-19.59394520018614
% es.EY (V/m) @ t=0.96
15.720399928639182
% es.EZ (V/m) @ t=0.96
18.844880349102787
% es.tEX (V/m) @ t=0.96
-19.593945200186134
% es.tEY (V/m) @ t=0.96
0
% es.tEZ (V/m) @ t=0.96
18.844880349102766
% es.Ex (V/m) @ t=0.96
-19.59394520018614
% es.Ey (V/m) @ t=0.96
15.720399928639182
% es.Ez (V/m) @ t=0.96
18.844880349102787
% es.tEx (V/m) @ t=0.96
-19.593945200186134
% es.tEy (V/m) @ t=0.96
0
% es.tEz (V/m) @ t=0.96
18.844880349102766
% V (V) @ t=0.96
0.01302142971772468
% es.normE (V/m) @ t=0.98
41.85809625877555
% es.EX (V/m) @ t=0.98
-19.767818384385635
% es.EY (V/m) @ t=0.98
15.859899915349743
% es.EZ (V/m) @ t=0.98
19.012106286168816
% es.tEX (V/m) @ t=0.98
-19.767818384385635
% es.tEY (V/m) @ t=0.98
0
% es.tEZ (V/m) @ t=0.98
19.01210628616883
% es.Ex (V/m) @ t=0.98
-19.767818384385635
% es.Ey (V/m) @ t=0.98
15.859899915349743
% es.Ez (V/m) @ t=0.98
19.012106286168816
% es.tEx (V/m) @ t=0.98
-19.767818384385635
% es.tEy (V/m) @ t=0.98
0
% es.tEz (V/m) @ t=0.98
19.01210628616883
% V (V) @ t=0.98
0.013136979498854019
% es.normE (V/m) @ t=1
42.226270280666384
% es.EX (V/m) @ t=1
-19.941691568585114
% es.EY (V/m) @ t=1
15.999399902060425
% es.EZ (V/m) @ t=1
19.17933222323498
% es.tEX (V/m) @ t=1
-19.941691568585114
% es.tEY (V/m) @ t=1
0
% es.tEZ (V/m) @ t=1
19.179332223235008
% es.Ex (V/m) @ t=1
-19.941691568585114
% es.Ey (V/m) @ t=1
15.999399902060425
% es.Ez (V/m) @ t=1
19.17933222323498
% es.tEx (V/m) @ t=1
-19.941691568585114
% es.tEy (V/m) @ t=1
0
% es.tEz (V/m) @ t=1
19.179332223235008
% V (V) @ t=1
0.013252529279983355
% es.normE (V/m) @ t=1.02
42.594444302557136
% es.EX (V/m) @ t=1.02
-20.11556475278458
% es.EY (V/m) @ t=1.02
16.138899888771007
% es.EZ (V/m) @ t=1.02
19.346558160301015
% es.tEX (V/m) @ t=1.02
-20.115564752784536
% es.tEY (V/m) @ t=1.02
0
% es.tEZ (V/m) @ t=1.02
19.346558160300958
% es.Ex (V/m) @ t=1.02
-20.11556475278458
% es.Ey (V/m) @ t=1.02
16.138899888771007
% es.Ez (V/m) @ t=1.02
19.346558160301015
% es.tEx (V/m) @ t=1.02
-20.115564752784536
% es.tEy (V/m) @ t=1.02
0
% es.tEz (V/m) @ t=1.02
19.346558160300958
% V (V) @ t=1.02
0.013368079061112691
% es.normE (V/m) @ t=1.04
42.962618324447924
% es.EX (V/m) @ t=1.04
-20.289437936984058
% es.EY (V/m) @ t=1.04
16.278399875481526
% es.EZ (V/m) @ t=1.04
19.513784097367086
% es.tEX (V/m) @ t=1.04
-20.289437936984044
% es.tEY (V/m) @ t=1.04
0
% es.tEZ (V/m) @ t=1.04
19.51378409736708
% es.Ex (V/m) @ t=1.04
-20.289437936984058
% es.Ey (V/m) @ t=1.04