% Model:              1 neuron.mph
% Version:            COMSOL 6.1.0.252
% Date:               Mar 22 2023, 20:02
% Dimension:          0
% Nodes:              14017
% Expressions:        14017
% Description:        Electric field norm, Electric field, X component, Electric field, Y component, Electric field, Z component, Tangential electric field, X component, Tangential electric field, Y component, Tangential electric field, Z component, Electric field, x component, Electric field, y component, Electric field, z component, Tangential electric field, x component, Tangential electric field, y component, Tangential electric field, z component, Electric potential
% Length unit:        mm
% x
2
% y
12.2
% z
1
% es.normE (V/m) @ t=0
1.1693954957100594
% es.EX (V/m) @ t=0
-0.7551799499808247
% es.EY (V/m) @ t=0
0.16778305114759284
% es.EZ (V/m) @ t=0
0.861253149293649
% es.tEX (V/m) @ t=0
-0.7551799499808223
% es.tEY (V/m) @ t=0
0
% es.tEZ (V/m) @ t=0
0.8612531492936606
% es.Ex (V/m) @ t=0
-0.7551799499808247
% es.Ey (V/m) @ t=0
0.16778305114759284
% es.Ez (V/m) @ t=0
0.861253149293649
% es.tEx (V/m) @ t=0
-0.7551799499808223
% es.tEy (V/m) @ t=0
0
% es.tEz (V/m) @ t=0
0.8612531492936606
% V (V) @ t=0
0.011317456634291583
% es.normE (V/m) @ t=0.02
1.010023059483583
% es.EX (V/m) @ t=0.02
-0.6522593650385011
% es.EY (V/m) @ t=0.02
0.14491654131824905
% es.EZ (V/m) @ t=0.02
0.7438762540535695
% es.tEX (V/m) @ t=0.02
-0.6522593650385022
% es.tEY (V/m) @ t=0.02
0
% es.tEZ (V/m) @ t=0.02
0.7438762540535695
% es.Ex (V/m) @ t=0.02
-0.6522593650385011
% es.Ey (V/m) @ t=0.02
0.14491654131824905
% es.Ez (V/m) @ t=0.02
0.7438762540535695
% es.tEx (V/m) @ t=0.02
-0.6522593650385022
% es.tEy (V/m) @ t=0.02
0
% es.tEz (V/m) @ t=0.02
0.7438762540535695
% V (V) @ t=0.02
0.009775043781857678
% es.normE (V/m) @ t=0.04
1.0193183502660657
% es.EX (V/m) @ t=0.04
-0.6582621393773096
% es.EY (V/m) @ t=0.04
0.14625021520881853
% es.EZ (V/m) @ t=0.04
0.7507221829588344
% es.tEX (V/m) @ t=0.04
-0.6582621393773074
% es.tEY (V/m) @ t=0.04
0
% es.tEZ (V/m) @ t=0.04
0.7507221829588424
% es.Ex (V/m) @ t=0.04
-0.6582621393773096
% es.Ey (V/m) @ t=0.04
0.14625021520881853
% es.Ez (V/m) @ t=0.04
0.7507221829588344
% es.tEx (V/m) @ t=0.04
-0.6582621393773074
% es.tEy (V/m) @ t=0.04
0
% es.tEz (V/m) @ t=0.04
0.7507221829588424
% V (V) @ t=0.04
0.00986500398856701
% es.normE (V/m) @ t=0.06
1.028686942858268
% es.EX (V/m) @ t=0.06
-0.6643122511929282
% es.EY (V/m) @ t=0.06
0.1475944062429584
% es.EZ (V/m) @ t=0.06
0.7576220981389463
% es.tEX (V/m) @ t=0.06
-0.664312251192926
% es.tEY (V/m) @ t=0.06
0
% es.tEZ (V/m) @ t=0.06
0.7576220981389579
% es.Ex (V/m) @ t=0.06
-0.6643122511929282
% es.Ey (V/m) @ t=0.06
0.1475944062429584
% es.Ez (V/m) @ t=0.06
0.7576220981389463
% es.tEx (V/m) @ t=0.06
-0.664312251192926
% es.tEy (V/m) @ t=0.06
0
% es.tEz (V/m) @ t=0.06
0.7576220981389579
% V (V) @ t=0.06
0.00995567364580953
% es.normE (V/m) @ t=0.08
1.0382228149703459
% es.EX (V/m) @ t=0.08
-0.670470389717347
% es.EY (V/m) @ t=0.08
0.1489625983620585
% es.EZ (V/m) @ t=0.08
0.7646452138437327
% es.tEX (V/m) @ t=0.08
-0.6704703897173445
% es.tEY (V/m) @ t=0.08
0
% es.tEZ (V/m) @ t=0.08
0.7646452138437372
% es.Ex (V/m) @ t=0.08
-0.670470389717347
% es.Ey (V/m) @ t=0.08
0.1489625983620585
% es.Ez (V/m) @ t=0.08
0.7646452138437327
% es.tEx (V/m) @ t=0.08
-0.6704703897173445
% es.tEy (V/m) @ t=0.08
0
% es.tEz (V/m) @ t=0.08
0.7646452138437372
% V (V) @ t=0.08
0.010047962204747558
% es.normE (V/m) @ t=0.1
1.047824470199921
% es.EX (V/m) @ t=0.1
-0.6766710100332194
% es.EY (V/m) @ t=0.1
0.1503402289718565
% es.EZ (V/m) @ t=0.1
0.7717167784835421
% es.tEX (V/m) @ t=0.1
-0.6766710100332172
% es.tEY (V/m) @ t=0.1
0
% es.tEZ (V/m) @ t=0.1
0.7717167784835386
% es.Ex (V/m) @ t=0.1
-0.6766710100332194
% es.Ey (V/m) @ t=0.1
0.1503402289718565
% es.Ez (V/m) @ t=0.1
0.7717167784835421
% es.tEx (V/m) @ t=0.1
-0.6766710100332172
% es.tEy (V/m) @ t=0.1
0
% es.tEz (V/m) @ t=0.1
0.7717167784835386
% V (V) @ t=0.1
0.01014088740109683
% es.normE (V/m) @ t=0.12
1.057426125429488
% es.EX (V/m) @ t=0.12
-0.682871630349088
% es.EY (V/m) @ t=0.12
0.15171785958164208
% es.EZ (V/m) @ t=0.12
0.7787883431233507
% es.tEX (V/m) @ t=0.12
-0.6828716303490858
% es.tEY (V/m) @ t=0.12
0
% es.tEZ (V/m) @ t=0.12
0.7787883431233693
% es.Ex (V/m) @ t=0.12
-0.682871630349088
% es.Ey (V/m) @ t=0.12
0.15171785958164208
% es.Ez (V/m) @ t=0.12
0.7787883431233507
% es.tEx (V/m) @ t=0.12
-0.6828716303490858
% es.tEy (V/m) @ t=0.12
0
% es.tEz (V/m) @ t=0.12
0.7787883431233693
% V (V) @ t=0.12
0.0102338125974461
% es.normE (V/m) @ t=0.14
1.0672467800423031
% es.EX (V/m) @ t=0.14
-0.6892136774694815
% es.EY (V/m) @ t=0.14
0.15312691189946037
% es.EZ (V/m) @ t=0.14
0.7860211996135487
% es.tEX (V/m) @ t=0.14
-0.6892136774694826
% es.tEY (V/m) @ t=0.14
0
% es.tEZ (V/m) @ t=0.14
0.7860211996135567
% es.Ex (V/m) @ t=0.14
-0.6892136774694815
% es.Ey (V/m) @ t=0.14
0.15312691189946037
% es.Ez (V/m) @ t=0.14
0.7860211996135487
% es.tEx (V/m) @ t=0.14
-0.6892136774694826
% es.tEy (V/m) @ t=0.14
0
% es.tEz (V/m) @ t=0.14
0.7860211996135567
% V (V) @ t=0.14
0.01032885726443665
% es.normE (V/m) @ t=0.16
1.0773404828063777
% es.EX (V/m) @ t=0.16
-0.6957320553490793
% es.EY (V/m) @ t=0.16
0.15457514076267598
% es.EZ (V/m) @ t=0.16
0.7934551545767761
% es.tEX (V/m) @ t=0.16
-0.6957320553490769
% es.tEY (V/m) @ t=0.16
0
% es.tEZ (V/m) @ t=0.16
0.7934551545767698
% es.Ex (V/m) @ t=0.16
-0.6957320553490793
% es.Ey (V/m) @ t=0.16
0.15457514076267598
% es.Ez (V/m) @ t=0.16
0.7934551545767761
% es.tEx (V/m) @ t=0.16
-0.6957320553490769
% es.tEy (V/m) @ t=0.16
0
% es.tEz (V/m) @ t=0.16
0.7934551545767698
% V (V) @ t=0.16
0.010426544484715125
% es.normE (V/m) @ t=0.18
1.087434185570443
% es.EX (V/m) @ t=0.18
-0.7022504332286665
% es.EY (V/m) @ t=0.18
0.156023369625913
% es.EZ (V/m) @ t=0.18
0.8008891095399964
% es.tEX (V/m) @ t=0.18
-0.7022504332286643
% es.tEY (V/m) @ t=0.18
0
% es.tEZ (V/m) @ t=0.18
0.8008891095399902
% es.Ex (V/m) @ t=0.18
-0.7022504332286665
% es.Ey (V/m) @ t=0.18
0.156023369625913
% es.Ez (V/m) @ t=0.18
0.8008891095399964
% es.tEx (V/m) @ t=0.18
-0.7022504332286643
% es.tEy (V/m) @ t=0.18
0
% es.tEz (V/m) @ t=0.18
0.8008891095399902
% V (V) @ t=0.18
0.010524231704993598
% es.normE (V/m) @ t=0.2
1.097527888334504
% es.EX (V/m) @ t=0.2
-0.7087688111082648
% es.EY (V/m) @ t=0.2
0.15747159848913583
% es.EZ (V/m) @ t=0.2
0.8083230645031989
% es.tEX (V/m) @ t=0.2
-0.7087688111082624
% es.tEY (V/m) @ t=0.2
0
% es.tEZ (V/m) @ t=0.2
0.8083230645032025
% es.Ex (V/m) @ t=0.2
-0.7087688111082648
% es.Ey (V/m) @ t=0.2
0.15747159848913583
% es.Ez (V/m) @ t=0.2
0.8083230645031989
% es.tEx (V/m) @ t=0.2
-0.7087688111082624
% es.tEy (V/m) @ t=0.2
0
% es.tEz (V/m) @ t=0.2
0.8083230645032025
% V (V) @ t=0.2
0.010621918925272074
% es.normE (V/m) @ t=0.22
1.1076215910985667
% es.EX (V/m) @ t=0.22
-0.7152871889878558
% es.EY (V/m) @ t=0.22
0.1589198273523621
% es.EZ (V/m) @ t=0.22
0.8157570194664157
% es.tEX (V/m) @ t=0.22
-0.7152871889878569
% es.tEY (V/m) @ t=0.22
0
% es.tEZ (V/m) @ t=0.22
0.8157570194664228
% es.Ex (V/m) @ t=0.22
-0.7152871889878558
% es.Ey (V/m) @ t=0.22
0.1589198273523621
% es.Ez (V/m) @ t=0.22
0.8157570194664157
% es.tEx (V/m) @ t=0.22
-0.7152871889878569
% es.tEy (V/m) @ t=0.22
0
% es.tEz (V/m) @ t=0.22
0.8157570194664228
% V (V) @ t=0.22
0.010719606145550547
% es.normE (V/m) @ t=0.24
1.1177152938626316
% es.EX (V/m) @ t=0.24
-0.721805566867461
% es.EY (V/m) @ t=0.24
0.16036805621559025
% es.EZ (V/m) @ t=0.24
0.8231909744296146
% es.tEX (V/m) @ t=0.24
-0.7218055668674586
% es.tEY (V/m) @ t=0.24
0
% es.tEZ (V/m) @ t=0.24
0.8231909744296368
% es.Ex (V/m) @ t=0.24
-0.721805566867461
% es.Ey (V/m) @ t=0.24
0.16036805621559025
% es.Ez (V/m) @ t=0.24
0.8231909744296146
% es.tEx (V/m) @ t=0.24
-0.7218055668674586
% es.tEy (V/m) @ t=0.24
0
% es.tEz (V/m) @ t=0.24
0.8231909744296368
% V (V) @ t=0.24
0.01081729336582902
% es.normE (V/m) @ t=0.26
1.1278089966267015
% es.EX (V/m) @ t=0.26
-0.7283239447470489
% es.EY (V/m) @ t=0.26
0.16181628507882917
% es.EZ (V/m) @ t=0.26
0.8306249293928403
% es.tEX (V/m) @ t=0.26
-0.7283239447470464
% es.tEY (V/m) @ t=0.26
0
% es.tEZ (V/m) @ t=0.26
0.8306249293928483
% es.Ex (V/m) @ t=0.26
-0.7283239447470489
% es.Ey (V/m) @ t=0.26
0.16181628507882917
% es.Ez (V/m) @ t=0.26
0.8306249293928403
% es.tEx (V/m) @ t=0.26
-0.7283239447470464
% es.tEy (V/m) @ t=0.26
0
% es.tEz (V/m) @ t=0.26
0.8306249293928483
% V (V) @ t=0.26
0.010914980586107495
% es.normE (V/m) @ t=0.28
1.1388943067666673
% es.EX (V/m) @ t=0.28
-0.7354827303575613
% es.EY (V/m) @ t=0.28
0.16340677006700333
% es.EZ (V/m) @ t=0.28
0.8387891704142074
% es.tEX (V/m) @ t=0.28
-0.7354827303575624
% es.tEY (V/m) @ t=0.28
0
% es.tEZ (V/m) @ t=0.28
0.8387891704142119
% es.Ex (V/m) @ t=0.28
-0.7354827303575613
% es.Ey (V/m) @ t=0.28
0.16340677006700333
% es.Ez (V/m) @ t=0.28
0.8387891704142074
% es.tEx (V/m) @ t=0.28
-0.7354827303575624
% es.tEy (V/m) @ t=0.28
0
% es.tEz (V/m) @ t=0.28
0.8387891704142119
% V (V) @ t=0.28
0.011022273641367215
% es.normE (V/m) @ t=0.3
1.1500901098654697
% es.EX (V/m) @ t=0.3
-0.7427128754060728
% es.EY (V/m) @ t=0.3
0.1650131063896303
% es.EZ (V/m) @ t=0.3
0.8470347858477716
% es.tEX (V/m) @ t=0.3
-0.7427128754060701
% es.tEY (V/m) @ t=0.3
0
% es.tEZ (V/m) @ t=0.3
0.8470347858477938
% es.Ex (V/m) @ t=0.3
-0.7427128754060728
% es.Ey (V/m) @ t=0.3
0.1650131063896303
% es.Ez (V/m) @ t=0.3
0.8470347858477716
% es.tEx (V/m) @ t=0.3
-0.7427128754060701
% es.tEy (V/m) @ t=0.3
0
% es.tEz (V/m) @ t=0.3
0.8470347858477938
% V (V) @ t=0.3
0.011130637056887546
% es.normE (V/m) @ t=0.32
1.1612859129642845
% es.EX (V/m) @ t=0.32
-0.7499430204545767
% es.EY (V/m) @ t=0.32
0.16661944271228035
% es.EZ (V/m) @ t=0.32
0.8552804012813535
% es.tEX (V/m) @ t=0.32
-0.7499430204545743
% es.tEY (V/m) @ t=0.32
0
% es.tEZ (V/m) @ t=0.32
0.8552804012813748
% es.Ex (V/m) @ t=0.32
-0.7499430204545767
% es.Ey (V/m) @ t=0.32
0.16661944271228035
% es.Ez (V/m) @ t=0.32
0.8552804012813535
% es.tEx (V/m) @ t=0.32
-0.7499430204545743
% es.tEy (V/m) @ t=0.32
0
% es.tEz (V/m) @ t=0.32
0.8552804012813748
% V (V) @ t=0.32
0.011239000472407876
% es.normE (V/m) @ t=0.34
1.1724817160631127
% es.EX (V/m) @ t=0.34
-0.757173165503088
% es.EY (V/m) @ t=0.34
0.16822577903492153
% es.EZ (V/m) @ t=0.34
0.8635260167149381
% es.tEX (V/m) @ t=0.34
-0.7571731655030853
% es.tEY (V/m) @ t=0.34
0
% es.tEZ (V/m) @ t=0.34
0.8635260167149497
% es.Ex (V/m) @ t=0.34
-0.757173165503088
% es.Ey (V/m) @ t=0.34
0.16822577903492153
% es.Ez (V/m) @ t=0.34
0.8635260167149381
% es.tEx (V/m) @ t=0.34
-0.7571731655030853
% es.tEy (V/m) @ t=0.34
0
% es.tEz (V/m) @ t=0.34
0.8635260167149497
% V (V) @ t=0.34
0.011347363887928206
% es.normE (V/m) @ t=0.36
1.183677519161936
% es.EX (V/m) @ t=0.36
-0.7644033105515962
% es.EY (V/m) @ t=0.36
0.16983211535755394
% es.EZ (V/m) @ t=0.36
0.8717716321485227
% es.tEX (V/m) @ t=0.36
-0.7644033105515935
% es.tEY (V/m) @ t=0.36
0
% es.tEZ (V/m) @ t=0.36
0.8717716321485236
% es.Ex (V/m) @ t=0.36
-0.7644033105515962
% es.Ey (V/m) @ t=0.36
0.16983211535755394
% es.Ez (V/m) @ t=0.36
0.8717716321485227
% es.tEx (V/m) @ t=0.36
-0.7644033105515935
% es.tEy (V/m) @ t=0.36
0
% es.tEz (V/m) @ t=0.36
0.8717716321485236
% V (V) @ t=0.36
0.011455727303448536
% es.normE (V/m) @ t=0.38
1.1948733222607637
% es.EX (V/m) @ t=0.38
-0.7716334556001001
% es.EY (V/m) @ t=0.38
0.1714384516801969
% es.EZ (V/m) @ t=0.38
0.8800172475821082
% es.tEX (V/m) @ t=0.38
-0.7716334556000974
% es.tEY (V/m) @ t=0.38
0
% es.tEZ (V/m) @ t=0.38
0.8800172475821055
% es.Ex (V/m) @ t=0.38
-0.7716334556001001
% es.Ey (V/m) @ t=0.38
0.1714384516801969
% es.Ez (V/m) @ t=0.38
0.8800172475821082
% es.tEx (V/m) @ t=0.38
-0.7716334556000974
% es.tEy (V/m) @ t=0.38
0
% es.tEz (V/m) @ t=0.38
0.8800172475821055
% V (V) @ t=0.38
0.011564090718968864
% es.normE (V/m) @ t=0.4
1.2060691253595879
% es.EX (V/m) @ t=0.4
-0.7788636006486116
% es.EY (V/m) @ t=0.4
0.17304478800283274
% es.EZ (V/m) @ t=0.4
0.8882628630156795
% es.tEX (V/m) @ t=0.4
-0.7788636006486089
% es.tEY (V/m) @ t=0.4
0
% es.tEZ (V/m) @ t=0.4
0.8882628630156937
% es.Ex (V/m) @ t=0.4
-0.7788636006486116
% es.Ey (V/m) @ t=0.4
0.17304478800283274
% es.Ez (V/m) @ t=0.4
0.8882628630156795
% es.tEx (V/m) @ t=0.4
-0.7788636006486089
% es.tEy (V/m) @ t=0.4
0
% es.tEz (V/m) @ t=0.4
0.8882628630156937
% V (V) @ t=0.4
0.011672454134489193
% es.normE (V/m) @ t=0.42
1.2172649284584256
% es.EX (V/m) @ t=0.42
-0.7860937456971264
% es.EY (V/m) @ t=0.42
0.1746511243254757
% es.EZ (V/m) @ t=0.42
0.8965084784492605
% es.tEX (V/m) @ t=0.42
-0.7860937456971202
% es.tEY (V/m) @ t=0.42
0
% es.tEZ (V/m) @ t=0.42
0.8965084784492756
% es.Ex (V/m) @ t=0.42
-0.7860937456971264
% es.Ey (V/m) @ t=0.42
0.1746511243254757
% es.Ez (V/m) @ t=0.42
0.8965084784492605
% es.tEx (V/m) @ t=0.42
-0.7860937456971202
% es.tEy (V/m) @ t=0.42
0
% es.tEz (V/m) @ t=0.42
0.8965084784492756
% V (V) @ t=0.42
0.01178081755000952
% es.normE (V/m) @ t=0.44
1.228460731557253
% es.EX (V/m) @ t=0.44
-0.793323890745627
% es.EY (V/m) @ t=0.44
0.17625746064810976
% es.EZ (V/m) @ t=0.44
0.9047540938828353
% es.tEX (V/m) @ t=0.44
-0.7933238907456244
% es.tEY (V/m) @ t=0.44
0
% es.tEZ (V/m) @ t=0.44
0.9047540938828362
% es.Ex (V/m) @ t=0.44
-0.793323890745627
% es.Ey (V/m) @ t=0.44
0.17625746064810976
% es.Ez (V/m) @ t=0.44
0.9047540938828353
% es.tEx (V/m) @ t=0.44
-0.7933238907456244
% es.tEy (V/m) @ t=0.44
0
% es.tEz (V/m) @ t=0.44
0.9047540938828362
% V (V) @ t=0.44
0.011889180965529851
% es.normE (V/m) @ t=0.46
1.239656534656104
% es.EX (V/m) @ t=0.46
-0.8005540357941379
% es.EY (V/m) @ t=0.46
0.17786379697075627
% es.EZ (V/m) @ t=0.46
0.9129997093164315
% es.tEX (V/m) @ t=0.46
-0.8005540357941352
% es.tEY (V/m) @ t=0.46
0
% es.tEZ (V/m) @ t=0.46
0.9129997093164395
% es.Ex (V/m) @ t=0.46
-0.8005540357941379
% es.Ey (V/m) @ t=0.46
0.17786379697075627
% es.Ez (V/m) @ t=0.46
0.9129997093164315
% es.tEx (V/m) @ t=0.46
-0.8005540357941352
% es.tEy (V/m) @ t=0.46
0
% es.tEz (V/m) @ t=0.46
0.9129997093164395
% V (V) @ t=0.46
0.01199754438105018
% es.normE (V/m) @ t=0.48
1.250852337754946
% es.EX (V/m) @ t=0.48
-0.807784180842642
% es.EY (V/m) @ t=0.48
0.17947013329339567
% es.EZ (V/m) @ t=0.48
0.9212453247500134
% es.tEX (V/m) @ t=0.48
-0.8077841808426465
% es.tEY (V/m) @ t=0.48
0
% es.tEZ (V/m) @ t=0.48
0.9212453247500143
% es.Ex (V/m) @ t=0.48
-0.807784180842642
% es.Ey (V/m) @ t=0.48
0.17947013329339567
% es.Ez (V/m) @ t=0.48
0.9212453247500134
% es.tEx (V/m) @ t=0.48
-0.8077841808426465
% es.tEy (V/m) @ t=0.48
0
% es.tEz (V/m) @ t=0.48
0.9212453247500143
% V (V) @ t=0.48
0.01210590779657051
% es.normE (V/m) @ t=0.5
1.2620481408537891
% es.EX (V/m) @ t=0.5
-0.8150143258911537
% es.EY (V/m) @ t=0.5
0.18107646961603507
% es.EZ (V/m) @ t=0.5
0.9294909401835909
% es.tEX (V/m) @ t=0.5
-0.8150143258911511
% es.tEY (V/m) @ t=0.5
0
% es.tEZ (V/m) @ t=0.5
0.9294909401836025
% es.Ex (V/m) @ t=0.5
-0.8150143258911537
% es.Ey (V/m) @ t=0.5
0.18107646961603507
% es.Ez (V/m) @ t=0.5
0.9294909401835909
% es.tEx (V/m) @ t=0.5
-0.8150143258911511
% es.tEy (V/m) @ t=0.5
0
% es.tEz (V/m) @ t=0.5
0.9294909401836025
% V (V) @ t=0.5
0.012214271212090837
% es.normE (V/m) @ t=0.52
1.273243943952627
% es.EX (V/m) @ t=0.52
-0.822244470939669
% es.EY (V/m) @ t=0.52
0.18268280593866382
% es.EZ (V/m) @ t=0.52
0.9377365556171551
% es.tEX (V/m) @ t=0.52
-0.8222444709396663
% es.tEY (V/m) @ t=0.52
0
% es.tEZ (V/m) @ t=0.52
0.9377365556171702
% es.Ex (V/m) @ t=0.52
-0.822244470939669
% es.Ey (V/m) @ t=0.52
0.18268280593866382
% es.Ez (V/m) @ t=0.52
0.9377365556171551
% es.tEx (V/m) @ t=0.52
-0.8222444709396663
% es.tEy (V/m) @ t=0.52
0
% es.tEz (V/m) @ t=0.52
0.9377365556171702
% V (V) @ t=0.52
0.012322634627611167
% es.normE (V/m) @ t=0.54
1.285445160307098
% es.EX (V/m) @ t=0.54
-0.8301239494984376
% es.EY (V/m) @ t=0.54
0.18443337617399713
% es.EZ (V/m) @ t=0.54
0.9467226178292822
% es.tEX (V/m) @ t=0.54
-0.8301239494984349
% es.tEY (V/m) @ t=0.54
0
% es.tEZ (V/m) @ t=0.54
0.9467226178292938
% es.Ex (V/m) @ t=0.54
-0.8301239494984376
% es.Ey (V/m) @ t=0.54
0.18443337617399713
% es.Ez (V/m) @ t=0.54
0.9467226178292822
% es.tEx (V/m) @ t=0.54
-0.8301239494984349
% es.tEy (V/m) @ t=0.54
0
% es.tEz (V/m) @ t=0.54
0.9467226178292938
% V (V) @ t=0.54
0.012440739779059865
% es.normE (V/m) @ t=0.56
1.2978836342624427
% es.EX (V/m) @ t=0.56
-0.8381566578957376
% es.EY (V/m) @ t=0.56
0.18621798275397472
% es.EZ (V/m) @ t=0.56
0.9558834108053516
% es.tEX (V/m) @ t=0.56
-0.8381566578957385
% es.tEY (V/m) @ t=0.56
0
% es.tEZ (V/m) @ t=0.56
0.9558834108053595
% es.Ex (V/m) @ t=0.56
-0.8381566578957376
% es.Ey (V/m) @ t=0.56
0.18621798275397472
% es.Ez (V/m) @ t=0.56
0.9558834108053516
% es.tEx (V/m) @ t=0.56
-0.8381566578957385
% es.tEy (V/m) @ t=0.56
0
% es.tEz (V/m) @ t=0.56
0.9558834108053595
% V (V) @ t=0.56
0.012561143787104854
% es.normE (V/m) @ t=0.58
1.3103221082177974
% es.EX (V/m) @ t=0.58
-0.8461893662930335
% es.EY (V/m) @ t=0.58
0.18800258933395742
% es.EZ (V/m) @ t=0.58
0.9650442037814129
% es.tEX (V/m) @ t=0.58
-0.846189366293034
% es.tEY (V/m) @ t=0.58
0
% es.tEZ (V/m) @ t=0.58
0.9650442037814351
% es.Ex (V/m) @ t=0.58
-0.8461893662930335
% es.Ey (V/m) @ t=0.58
0.18800258933395742
% es.Ez (V/m) @ t=0.58
0.9650442037814129
% es.tEx (V/m) @ t=0.58
-0.846189366293034
% es.tEy (V/m) @ t=0.58
0
% es.tEz (V/m) @ t=0.58
0.9650442037814351
% V (V) @ t=0.58
0.012681547795149847
% es.normE (V/m) @ t=0.6
1.3227605821731867
% es.EX (V/m) @ t=0.6
-0.8542220746903366
% es.EY (V/m) @ t=0.6
0.18978719591393656
% es.EZ (V/m) @ t=0.6
0.9742049967574982
% es.tEX (V/m) @ t=0.6
-0.854222074690334
% es.tEY (V/m) @ t=0.6
0
% es.tEZ (V/m) @ t=0.6
0.9742049967575026
% es.Ex (V/m) @ t=0.6
-0.8542220746903366
% es.Ey (V/m) @ t=0.6
0.18978719591393656
% es.Ez (V/m) @ t=0.6
0.9742049967574982
% es.tEx (V/m) @ t=0.6
-0.854222074690334
% es.tEy (V/m) @ t=0.6
0
% es.tEz (V/m) @ t=0.6
0.9742049967575026
% V (V) @ t=0.6
0.01280195180319484
% es.normE (V/m) @ t=0.62
1.3351990561285823
% es.EX (V/m) @ t=0.62
-0.862254783087633
% es.EY (V/m) @ t=0.62
0.19157180249390515
% es.EZ (V/m) @ t=0.62
0.9833657897335764
% es.tEX (V/m) @ t=0.62
-0.8622547830876335
% es.tEY (V/m) @ t=0.62
0
% es.tEZ (V/m) @ t=0.62
0.9833657897335835
% es.Ex (V/m) @ t=0.62
-0.862254783087633
% es.Ey (V/m) @ t=0.62
0.19157180249390515
% es.Ez (V/m) @ t=0.62
0.9833657897335764
% es.tEx (V/m) @ t=0.62
-0.8622547830876335
% es.tEy (V/m) @ t=0.62
0
% es.tEz (V/m) @ t=0.62
0.9833657897335835
% V (V) @ t=0.62
0.012922355811239829
% es.normE (V/m) @ t=0.64
1.3476375300839964
% es.EX (V/m) @ t=0.64
-0.8702874914849321
% es.EY (V/m) @ t=0.64
0.1933564090738985
% es.EZ (V/m) @ t=0.64
0.9925265827096501
% es.tEX (V/m) @ t=0.64
-0.8702874914849295
% es.tEY (V/m) @ t=0.64
0
% es.tEZ (V/m) @ t=0.64
0.992526582709651
% es.Ex (V/m) @ t=0.64
-0.8702874914849321
% es.Ey (V/m) @ t=0.64
0.1933564090738985
% es.Ez (V/m) @ t=0.64
0.9925265827096501
% es.tEx (V/m) @ t=0.64
-0.8702874914849295
% es.tEy (V/m) @ t=0.64
0
% es.tEz (V/m) @ t=0.64
0.992526582709651
% V (V) @ t=0.64
0.013042759819284822
% es.normE (V/m) @ t=0.66
1.360076004039413
% es.EX (V/m) @ t=0.66
-0.8783201998822334
% es.EY (V/m) @ t=0.66
0.1951410156538832
% es.EZ (V/m) @ t=0.66
1.0016873756857132
% es.tEX (V/m) @ t=0.66
-0.8783201998822299
% es.tEY (V/m) @ t=0.66
0
% es.tEZ (V/m) @ t=0.66
1.0016873756857176
% es.Ex (V/m) @ t=0.66
-0.8783201998822334
% es.Ey (V/m) @ t=0.66
0.1951410156538832
% es.Ez (V/m) @ t=0.66
1.0016873756857132
% es.tEx (V/m) @ t=0.66
-0.8783201998822299
% es.tEy (V/m) @ t=0.66
0
% es.tEz (V/m) @ t=0.66
1.0016873756857176
% V (V) @ t=0.66
0.013163163827329814
% es.normE (V/m) @ t=0.68
1.3725144779948484
% es.EX (V/m) @ t=0.68
-0.8863529082795321
% es.EY (V/m) @ t=0.68
0.19692562223386223
% es.EZ (V/m) @ t=0.68
1.0108481686617852
% es.tEX (V/m) @ t=0.68
-0.8863529082795325
% es.tEY (V/m) @ t=0.68
0
% es.tEZ (V/m) @ t=0.68
1.0108481686617923
% es.Ex (V/m) @ t=0.68
-0.8863529082795321
% es.Ey (V/m) @ t=0.68
0.19692562223386223
% es.Ez (V/m) @ t=0.68
1.0108481686617852
% es.tEx (V/m) @ t=0.68
-0.8863529082795325
% es.tEy (V/m) @ t=0.68
0
% es.tEz (V/m) @ t=0.68
1.0108481686617923
% V (V) @ t=0.68
0.013283567835374807
% es.normE (V/m) @ t=0.7
1.3849529519503054
% es.EX (V/m) @ t=0.7
-0.8943856166768289
% es.EY (V/m) @ t=0.7
0.19871022881385225
% es.EZ (V/m) @ t=0.7
1.0200089616378651
% es.tEX (V/m) @ t=0.7
-0.8943856166768254
% es.tEY (V/m) @ t=0.7
0
% es.tEZ (V/m) @ t=0.7
1.0200089616378802
% es.Ex (V/m) @ t=0.7
-0.8943856166768289
% es.Ey (V/m) @ t=0.7
0.19871022881385225
% es.Ez (V/m) @ t=0.7
1.0200089616378651
% es.tEx (V/m) @ t=0.7
-0.8943856166768254
% es.tEy (V/m) @ t=0.7
0
% es.tEz (V/m) @ t=0.7
1.0200089616378802
% V (V) @ t=0.7
0.013403971843419798
% es.normE (V/m) @ t=0.72
1.3973914259057627
% es.EX (V/m) @ t=0.72
-0.9024183250741284
% es.EY (V/m) @ t=0.72
0.2004948353938366
% es.EZ (V/m) @ t=0.72
1.0291697546139265
% es.tEX (V/m) @ t=0.72
-0.9024183250741289
% es.tEY (V/m) @ t=0.72
0
% es.tEZ (V/m) @ t=0.72
1.0291697546139345
% es.Ex (V/m) @ t=0.72
-0.9024183250741284
% es.Ey (V/m) @ t=0.72
0.2004948353938366
% es.Ez (V/m) @ t=0.72
1.0291697546139265
% es.tEx (V/m) @ t=0.72
-0.9024183250741289
% es.tEy (V/m) @ t=0.72
0
% es.tEz (V/m) @ t=0.72
1.0291697546139345
% V (V) @ t=0.72
0.013524375851464788
% es.normE (V/m) @ t=0.74
1.4098298998612417
% es.EX (V/m) @ t=0.74
-0.9104510334714284
% es.EY (V/m) @ t=0.74
0.20227944197381598
% es.EZ (V/m) @ t=0.74
1.0383305475900002
% es.tEX (V/m) @ t=0.74
-0.9104510334714289
% es.tEY (V/m) @ t=0.74
0
% es.tEZ (V/m) @ t=0.74
1.0383305475900082
% es.Ex (V/m) @ t=0.74
-0.9104510334714284
% es.Ey (V/m) @ t=0.74
0.20227944197381598
% es.Ez (V/m) @ t=0.74
1.0383305475900002
% es.tEx (V/m) @ t=0.74
-0.9104510334714289
% es.tEy (V/m) @ t=0.74
0
% es.tEz (V/m) @ t=0.74
1.0383305475900082
% V (V) @ t=0.74
0.01364477985950978
% es.normE (V/m) @ t=0.76
1.4222683738167379
% es.EX (V/m) @ t=0.76
-0.9184837418687248
% es.EY (V/m) @ t=0.76
0.20406404855379168
% es.EZ (V/m) @ t=0.76
1.0474913405660873
% es.tEX (V/m) @ t=0.76
-0.9184837418687217
% es.tEY (V/m) @ t=0.76
0
% es.tEZ (V/m) @ t=0.76
1.047491340566074
% es.Ex (V/m) @ t=0.76
-0.9184837418687248
% es.Ey (V/m) @ t=0.76
0.20406404855379168
% es.Ez (V/m) @ t=0.76
1.0474913405660873
% es.tEx (V/m) @ t=0.76
-0.9184837418687217
% es.tEy (V/m) @ t=0.76
0
% es.tEz (V/m) @ t=0.76
1.047491340566074
% V (V) @ t=0.76
0.013765183867554773
% es.normE (V/m) @ t=0.78
1.4347068477722424
% es.EX (V/m) @ t=0.78
-0.9265164502660208
% es.EY (V/m) @ t=0.78
0.20584865513379214
% es.EZ (V/m) @ t=0.78
1.0566521335421628
% es.tEX (V/m) @ t=0.78
-0.9265164502660213
% es.tEY (V/m) @ t=0.78
0
% es.tEZ (V/m) @ t=0.78
1.0566521335421708
% es.Ex (V/m) @ t=0.78
-0.9265164502660208
% es.Ey (V/m) @ t=0.78
0.20584865513379214
% es.Ez (V/m) @ t=0.78
1.0566521335421628
% es.tEx (V/m) @ t=0.78
-0.9265164502660213
% es.tEy (V/m) @ t=0.78
0
% es.tEz (V/m) @ t=0.78
1.0566521335421708
% V (V) @ t=0.78
0.013885587875599762
% es.normE (V/m) @ t=0.8
1.4481534531534945
% es.EX (V/m) @ t=0.8
-0.9352001953497067
% es.EY (V/m) @ t=0.8
0.20777790697650367
% es.EZ (V/m) @ t=0.8
1.0665554104444155
% es.tEX (V/m) @ t=0.8
-0.9352001953497036
% es.tEY (V/m) @ t=0.8
0
% es.tEZ (V/m) @ t=0.8
1.066555410444427
% es.Ex (V/m) @ t=0.8
-0.9352001953497067
% es.Ey (V/m) @ t=0.8
0.20777790697650367
% es.Ez (V/m) @ t=0.8
1.0665554104444155
% es.tEx (V/m) @ t=0.8
-0.9352001953497036
% es.tEy (V/m) @ t=0.8
0
% es.tEz (V/m) @ t=0.8
1.066555410444427
% V (V) @ t=0.8
0.014015748355516843
% es.normE (V/m) @ t=0.82
1.4619952170740087
% es.EX (V/m) @ t=0.82
-0.9441391280997831
% es.EY (V/m) @ t=0.82
0.20976385560428912
% es.EZ (V/m) @ t=0.82
1.0767497197023932
% es.tEX (V/m) @ t=0.82
-0.94413912809978
% es.tEY (V/m) @ t=0.82
0
% es.tEZ (V/m) @ t=0.82
1.0767497197023976
% es.Ex (V/m) @ t=0.82
-0.9441391280997831
% es.Ey (V/m) @ t=0.82
0.20976385560428912
% es.Ez (V/m) @ t=0.82
1.0767497197023932
% es.tEx (V/m) @ t=0.82
-0.94413912809978
% es.tEy (V/m) @ t=0.82
0
% es.tEz (V/m) @ t=0.82
1.0767497197023976
% V (V) @ t=0.82
0.014149733091948825
% es.normE (V/m) @ t=0.84
1.4758369809945173
% es.EX (V/m) @ t=0.84
-0.9530780608498626
% es.EY (V/m) @ t=0.84
0.21174980423205148
% es.EZ (V/m) @ t=0.84
1.0869440289603567
% es.tEX (V/m) @ t=0.84
-0.953078060849859
% es.tEY (V/m) @ t=0.84
0
% es.tEZ (V/m) @ t=0.84
1.0869440289603682
% es.Ex (V/m) @ t=0.84
-0.9530780608498626
% es.Ey (V/m) @ t=0.84
0.21174980423205148
% es.Ez (V/m) @ t=0.84
1.0869440289603567
% es.tEx (V/m) @ t=0.84
-0.953078060849859
% es.tEy (V/m) @ t=0.84
0
% es.tEz (V/m) @ t=0.84
1.0869440289603682
% V (V) @ t=0.84
0.014283717828380801
% es.normE (V/m) @ t=0.86
1.4896787449150326
% es.EX (V/m) @ t=0.86
-0.9620169935999421
% es.EY (V/m) @ t=0.86
0.21373575285982283
% es.EZ (V/m) @ t=0.86
1.097138338218306
% es.tEX (V/m) @ t=0.86
-0.9620169935999385
% es.tEY (V/m) @ t=0.86
0
% es.tEZ (V/m) @ t=0.86
1.0971383382183175
% es.Ex (V/m) @ t=0.86
-0.9620169935999421
% es.Ey (V/m) @ t=0.86
0.21373575285982283
% es.Ez (V/m) @ t=0.86
1.097138338218306
% es.tEx (V/m) @ t=0.86
-0.9620169935999385
% es.tEy (V/m) @ t=0.86
0
% es.tEz (V/m) @ t=0.86
1.0971383382183175
% V (V) @ t=0.86
0.014417702564812786
% es.normE (V/m) @ t=0.88
1.5035205088355692
% es.EX (V/m) @ t=0.88
-0.9709559263500185
% es.EY (V/m) @ t=0.88
0.21572170148760839
% es.EZ (V/m) @ t=0.88
1.1073326474762757
% es.tEX (V/m) @ t=0.88
-0.9709559263500185
% es.tEY (V/m) @ t=0.88
0
% es.tEZ (V/m) @ t=0.88
1.1073326474762872
% es.Ex (V/m) @ t=0.88
-0.9709559263500185
% es.Ey (V/m) @ t=0.88
0.21572170148760839
% es.Ez (V/m) @ t=0.88
1.1073326474762757
% es.tEx (V/m) @ t=0.88
-0.9709559263500185
% es.tEy (V/m) @ t=0.88
0
% es.tEz (V/m) @ t=0.88
1.1073326474762872
% V (V) @ t=0.88
0.014551687301244768
% es.normE (V/m) @ t=0.9
1.517362272756107
% es.EX (V/m) @ t=0.9
-0.979894859100098
% es.EY (V/m) @ t=0.9
0.21770765011537252
% es.EZ (V/m) @ t=0.9
1.1175269567342365
% es.tEX (V/m) @ t=0.9
-0.9798948591000984
% es.tEY (V/m) @ t=0.9
0
% es.tEZ (V/m) @ t=0.9
1.1175269567342445
% es.Ex (V/m) @ t=0.9
-0.979894859100098
% es.Ey (V/m) @ t=0.9
0.21770765011537252
% es.Ez (V/m) @ t=0.9
1.1175269567342365
% es.tEx (V/m) @ t=0.9
-0.9798948591000984
% es.tEy (V/m) @ t=0.9
0
% es.tEz (V/m) @ t=0.9
1.1175269567342445
% V (V) @ t=0.9
0.01468567203767675
% es.normE (V/m) @ t=0.92
1.5312040366766553
% es.EX (V/m) @ t=0.92
-0.988833791850174
% es.EY (V/m) @ t=0.92
0.21969359874313488
% es.EZ (V/m) @ t=0.92
1.1277212659922
% es.tEX (V/m) @ t=0.92
-0.9888337918501775
% es.tEY (V/m) @ t=0.92
0
% es.tEZ (V/m) @ t=0.92
1.1277212659922151
% es.Ex (V/m) @ t=0.92
-0.988833791850174
% es.Ey (V/m) @ t=0.92
0.21969359874313488
% es.Ez (V/m) @ t=0.92
1.1277212659922
% es.tEx (V/m) @ t=0.92
-0.9888337918501775
% es.tEy (V/m) @ t=0.92
0
% es.tEz (V/m) @ t=0.92
1.1277212659922151
% V (V) @ t=0.92
0.014819656774108727
% es.normE (V/m) @ t=0.94
1.545045800597217
% es.EX (V/m) @ t=0.94
-0.9977727246002566
% es.EY (V/m) @ t=0.94
0.22167954737091322
% es.EZ (V/m) @ t=0.94
1.13791557525016
% es.tEX (V/m) @ t=0.94
-0.9977727246002566
% es.tEY (V/m) @ t=0.94
0
% es.tEZ (V/m) @ t=0.94
1.1379155752501644
% es.Ex (V/m) @ t=0.94
-0.9977727246002566
% es.Ey (V/m) @ t=0.94
0.22167954737091322
% es.Ez (V/m) @ t=0.94
1.13791557525016
% es.tEx (V/m) @ t=0.94
-0.9977727246002566
% es.tEy (V/m) @ t=0.94
0
% es.tEz (V/m) @ t=0.94
1.1379155752501644
% V (V) @ t=0.94
0.014953641510540712
% es.normE (V/m) @ t=0.96
1.558887564517777
% es.EX (V/m) @ t=0.96
-1.0067116573503325
% es.EY (V/m) @ t=0.96
0.22366549599868635
% es.EZ (V/m) @ t=0.96
1.1481098845081128
% es.tEX (V/m) @ t=0.96
-1.0067116573503294
% es.tEY (V/m) @ t=0.96
0
% es.tEZ (V/m) @ t=0.96
1.148109884508142
% es.Ex (V/m) @ t=0.96
-1.0067116573503325
% es.Ey (V/m) @ t=0.96
0.22366549599868635
% es.Ez (V/m) @ t=0.96
1.1481098845081128
% es.tEx (V/m) @ t=0.96
-1.0067116573503294
% es.tEy (V/m) @ t=0.96
0
% es.tEz (V/m) @ t=0.96
1.148109884508142
% V (V) @ t=0.96
0.01508762624697269
% es.normE (V/m) @ t=0.98
1.5727293284383599
% es.EX (V/m) @ t=0.98
-1.0156505901004156
% es.EY (V/m) @ t=0.98
0.22565144462646636
% es.EZ (V/m) @ t=0.98
1.1583041937660807
% es.tEX (V/m) @ t=0.98
-1.0156505901004125
% es.tEY (V/m) @ t=0.98
0
% es.tEZ (V/m) @ t=0.98
1.1583041937660923
% es.Ex (V/m) @ t=0.98
-1.0156505901004156
% es.Ey (V/m) @ t=0.98
0.22565144462646636
% es.Ez (V/m) @ t=0.98
1.1583041937660807
% es.tEx (V/m) @ t=0.98
-1.0156505901004125
% es.tEy (V/m) @ t=0.98
0
% es.tEz (V/m) @ t=0.98
1.1583041937660923
% V (V) @ t=0.98
0.015221610983404674
% es.normE (V/m) @ t=1
1.586571092358934
% es.EX (V/m) @ t=1
-1.0245895228504884
% es.EY (V/m) @ t=1
0.2276373932542164
% es.EZ (V/m) @ t=1
1.1684985030240407
% es.tEX (V/m) @ t=1
-1.0245895228504884
% es.tEY (V/m) @ t=1
0
% es.tEZ (V/m) @ t=1
1.1684985030240487
% es.Ex (V/m) @ t=1
-1.0245895228504884
% es.Ey (V/m) @ t=1
0.2276373932542164
% es.Ez (V/m) @ t=1
1.1684985030240407
% es.tEx (V/m) @ t=1
-1.0245895228504884
% es.tEy (V/m) @ t=1
0
% es.tEz (V/m) @ t=1
1.1684985030240487
% V (V) @ t=1
0.015355595719836652
% es.normE (V/m) @ t=1.02
1.600412856279532
% es.EX (V/m) @ t=1.02
-1.0335284556005684
% es.EY (V/m) @ t=1.02
0.22962334188199485
% es.EZ (V/m) @ t=1.02
1.1786928122820033
% es.tEX (V/m) @ t=1.02
-1.0335284556005684
% es.tEY (V/m) @ t=1.02
0
% es.tEZ (V/m) @ t=1.02
1.1786928122820184
% es.Ex (V/m) @ t=1.02
-1.0335284556005684
% es.Ey (V/m) @ t=1.02
0.22962334188199485
% es.Ez (V/m) @ t=1.02
1.1786928122820033
% es.tEx (V/m) @ t=1.02
-1.0335284556005684
% es.tEy (V/m) @ t=1.02
0
% es.tEz (V/m) @ t=1.02
1.1786928122820184
% V (V) @ t=1.02
0.015489580456268633
% es.normE (V/m) @ t=1.04
1.6142546202001395
% es.EX (V/m) @ t=1.04
-1.0424673883506443
% es.EY (V/m) @ t=1.04
0.23160929050978218
% es.EZ (V/m) @ t=1.04
1.188887121539973
% es.tEX (V/m) @ t=1.04
-1.0424673883506403