% Model:              1 neuron.mph
% Version:            COMSOL 6.1.0.252
% Date:               Mar 22 2023, 20:10
% Dimension:          0
% Nodes:              14017
% Expressions:        14017
% Description:        Electric field norm, Electric field, X component, Electric field, Y component, Electric field, Z component, Tangential electric field, X component, Tangential electric field, Y component, Tangential electric field, Z component, Electric field, x component, Electric field, y component, Electric field, z component, Tangential electric field, x component, Tangential electric field, y component, Tangential electric field, z component, Electric potential
% Length unit:        mm
% x
1.33
% y
12.2
% z
1.33
% es.normE (V/m) @ t=0
11.689907921739778
% es.EX (V/m) @ t=0
9.05832570179642
% es.EY (V/m) @ t=0
-1.3880037727339953
% es.EZ (V/m) @ t=0
7.236616306465756
% es.tEX (V/m) @ t=0
9.058325701796436
% es.tEY (V/m) @ t=0
0
% es.tEZ (V/m) @ t=0
7.236616306465768
% es.Ex (V/m) @ t=0
9.05832570179642
% es.Ey (V/m) @ t=0
-1.3880037727339953
% es.Ez (V/m) @ t=0
7.236616306465756
% es.tEx (V/m) @ t=0
9.058325701796436
% es.tEy (V/m) @ t=0
0
% es.tEz (V/m) @ t=0
7.236616306465768
% V (V) @ t=0
0.009653909721894753
% es.normE (V/m) @ t=0.02
10.09673774407635
% es.EX (V/m) @ t=0.02
7.823803200672981
% es.EY (V/m) @ t=0.02
-1.1988383601363086
% es.EZ (V/m) @ t=0.02
6.250367197038172
% es.tEX (V/m) @ t=0.02
7.823803200673007
% es.tEY (V/m) @ t=0.02
0
% es.tEZ (V/m) @ t=0.02
6.2503671970381625
% es.Ex (V/m) @ t=0.02
7.823803200672981
% es.Ey (V/m) @ t=0.02
-1.1988383601363086
% es.Ez (V/m) @ t=0.02
6.250367197038172
% es.tEx (V/m) @ t=0.02
7.823803200673007
% es.tEy (V/m) @ t=0.02
0
% es.tEz (V/m) @ t=0.02
6.2503671970381625
% V (V) @ t=0.02
0.008338217476458187
% es.normE (V/m) @ t=0.04
10.189660433706958
% es.EX (V/m) @ t=0.04
7.895807531352381
% es.EY (V/m) @ t=0.04
-1.2098715447306123
% es.EZ (V/m) @ t=0.04
6.307890822400678
% es.tEX (V/m) @ t=0.04
7.895807531352402
% es.tEY (V/m) @ t=0.04
0
% es.tEZ (V/m) @ t=0.04
6.307890822400666
% es.Ex (V/m) @ t=0.04
7.895807531352381
% es.Ey (V/m) @ t=0.04
-1.2098715447306123
% es.Ez (V/m) @ t=0.04
6.307890822400678
% es.tEx (V/m) @ t=0.04
7.895807531352402
% es.tEy (V/m) @ t=0.04
0
% es.tEz (V/m) @ t=0.04
6.307890822400666
% V (V) @ t=0.04
0.008414956044220245
% es.normE (V/m) @ t=0.06
10.283326028240026
% es.EX (V/m) @ t=0.06
7.968387526987142
% es.EY (V/m) @ t=0.06
-1.2209929451112167
% es.EZ (V/m) @ t=0.06
6.3658743399339475
% es.tEX (V/m) @ t=0.06
7.9683875269871685
% es.tEY (V/m) @ t=0.06
0
% es.tEZ (V/m) @ t=0.06
6.365874339933947
% es.Ex (V/m) @ t=0.06
7.968387526987142
% es.Ey (V/m) @ t=0.06
-1.2209929451112167
% es.Ez (V/m) @ t=0.06
6.3658743399339475
% es.tEx (V/m) @ t=0.06
7.9683875269871685
% es.tEy (V/m) @ t=0.06
0
% es.tEz (V/m) @ t=0.06
6.365874339933947
% V (V) @ t=0.06
0.008492308152261862
% es.normE (V/m) @ t=0.08
10.378640969352784
% es.EX (V/m) @ t=0.08
8.042245574836475
% es.EY (V/m) @ t=0.08
-1.2323101886852577
% es.EZ (V/m) @ t=0.08
6.424878880634569
% es.tEX (V/m) @ t=0.08
8.042245574836492
% es.tEY (V/m) @ t=0.08
0
% es.tEZ (V/m) @ t=0.08
6.42487888063457
% es.Ex (V/m) @ t=0.08
8.042245574836475
% es.Ey (V/m) @ t=0.08
-1.2323101886852577
% es.Ez (V/m) @ t=0.08
6.424878880634569
% es.tEx (V/m) @ t=0.08
8.042245574836492
% es.tEy (V/m) @ t=0.08
0
% es.tEz (V/m) @ t=0.08
6.42487888063457
% V (V) @ t=0.08
0.008571022371020264
% es.normE (V/m) @ t=0.1
10.474646409242578
% es.EX (V/m) @ t=0.1
8.116638679114821
% es.EY (V/m) @ t=0.1
-1.243709421992202
% es.EZ (V/m) @ t=0.1
6.484310872579885
% es.tEX (V/m) @ t=0.1
8.116638679114857
% es.tEY (V/m) @ t=0.1
0
% es.tEZ (V/m) @ t=0.1
6.484310872579877
% es.Ex (V/m) @ t=0.1
8.116638679114821
% es.Ey (V/m) @ t=0.1
-1.243709421992202
% es.Ez (V/m) @ t=0.1
6.484310872579885
% es.tEx (V/m) @ t=0.1
8.116638679114857
% es.tEy (V/m) @ t=0.1
0
% es.tEz (V/m) @ t=0.1
6.484310872579877
% V (V) @ t=0.1
0.008650306837291054
% es.normE (V/m) @ t=0.12
10.570651849132368
% es.EX (V/m) @ t=0.12
8.191031783393175
% es.EY (V/m) @ t=0.12
-1.2551086552991446
% es.EZ (V/m) @ t=0.12
6.543742864525186
% es.tEX (V/m) @ t=0.12
8.191031783393193
% es.tEY (V/m) @ t=0.12
0
% es.tEZ (V/m) @ t=0.12
6.543742864525184
% es.Ex (V/m) @ t=0.12
8.191031783393175
% es.Ey (V/m) @ t=0.12
-1.2551086552991446
% es.Ez (V/m) @ t=0.12
6.543742864525186
% es.tEx (V/m) @ t=0.12
8.191031783393193
% es.tEy (V/m) @ t=0.12
0
% es.tEz (V/m) @ t=0.12
6.543742864525184
% V (V) @ t=0.12
0.00872959130356185
% es.normE (V/m) @ t=0.14
10.66872925053367
% es.EX (V/m) @ t=0.14
8.267030418563266
% es.EY (V/m) @ t=0.14
-1.2667538940694492
% es.EZ (V/m) @ t=0.14
6.604457502848433
% es.tEX (V/m) @ t=0.14
8.267030418563284
% es.tEY (V/m) @ t=0.14
0
% es.tEZ (V/m) @ t=0.14
6.60445750284841
% es.Ex (V/m) @ t=0.14
8.267030418563266
% es.Ey (V/m) @ t=0.14
-1.2667538940694492
% es.Ez (V/m) @ t=0.14
6.604457502848433
% es.tEx (V/m) @ t=0.14
8.267030418563284
% es.tEy (V/m) @ t=0.14
0
% es.tEz (V/m) @ t=0.14
6.60445750284841
% V (V) @ t=0.14
0.00881058683098131
% es.normE (V/m) @ t=0.16
10.769674795018362
% es.EX (V/m) @ t=0.16
8.345251533396606
% es.EY (V/m) @ t=0.16
-1.278739669507269
% es.EZ (V/m) @ t=0.16
6.666947663215323
% es.tEX (V/m) @ t=0.16
8.345251533396636
% es.tEY (V/m) @ t=0.16
0
% es.tEZ (V/m) @ t=0.16
6.666947663215334
% es.Ex (V/m) @ t=0.16
8.345251533396606
% es.Ey (V/m) @ t=0.16
-1.278739669507269
% es.Ez (V/m) @ t=0.16
6.666947663215323
% es.tEx (V/m) @ t=0.16
8.345251533396636
% es.tEy (V/m) @ t=0.16
0
% es.tEz (V/m) @ t=0.16
6.666947663215334
% V (V) @ t=0.16
0.008893950919868493
% es.normE (V/m) @ t=0.18
10.870620339503013
% es.EX (V/m) @ t=0.18
8.423472648229883
% es.EY (V/m) @ t=0.18
-1.290725444945057
% es.EZ (V/m) @ t=0.18
6.729437823582231
% es.tEX (V/m) @ t=0.18
8.423472648229918
% es.tEY (V/m) @ t=0.18
0
% es.tEZ (V/m) @ t=0.18
6.729437823582229
% es.Ex (V/m) @ t=0.18
8.423472648229883
% es.Ey (V/m) @ t=0.18
-1.290725444945057
% es.Ez (V/m) @ t=0.18
6.729437823582231
% es.tEx (V/m) @ t=0.18
8.423472648229918
% es.tEy (V/m) @ t=0.18
0
% es.tEz (V/m) @ t=0.18
6.729437823582229
% V (V) @ t=0.18
0.008977315008755676
% es.normE (V/m) @ t=0.2
10.971565883987694
% es.EX (V/m) @ t=0.2
8.501693763063201
% es.EY (V/m) @ t=0.2
-1.30271122038282
% es.EZ (V/m) @ t=0.2
6.791927983949131
% es.tEX (V/m) @ t=0.2
8.501693763063244
% es.tEY (V/m) @ t=0.2
0
% es.tEZ (V/m) @ t=0.2
6.7919279839491455
% es.Ex (V/m) @ t=0.2
8.501693763063201
% es.Ey (V/m) @ t=0.2
-1.30271122038282
% es.Ez (V/m) @ t=0.2
6.791927983949131
% es.tEx (V/m) @ t=0.2
8.501693763063244
% es.tEy (V/m) @ t=0.2
0
% es.tEz (V/m) @ t=0.2
6.7919279839491455
% V (V) @ t=0.2
0.00906067909764286
% es.normE (V/m) @ t=0.22
11.072511428472358
% es.EX (V/m) @ t=0.22
8.579914877896499
% es.EY (V/m) @ t=0.22
-1.3146969958206558
% es.EZ (V/m) @ t=0.22
6.854418144316025
% es.tEX (V/m) @ t=0.22
8.579914877896512
% es.tEY (V/m) @ t=0.22
0
% es.tEZ (V/m) @ t=0.22
6.854418144316027
% es.Ex (V/m) @ t=0.22
8.579914877896499
% es.Ey (V/m) @ t=0.22
-1.3146969958206558
% es.Ez (V/m) @ t=0.22
6.854418144316025
% es.tEx (V/m) @ t=0.22
8.579914877896512
% es.tEy (V/m) @ t=0.22
0
% es.tEz (V/m) @ t=0.22
6.854418144316027
% V (V) @ t=0.22
0.00914404318653004
% es.normE (V/m) @ t=0.24
11.173456972957052
% es.EX (V/m) @ t=0.24
8.658135992729823
% es.EY (V/m) @ t=0.24
-1.3266827712584472
% es.EZ (V/m) @ t=0.24
6.916908304682937
% es.tEX (V/m) @ t=0.24
8.658135992729836
% es.tEY (V/m) @ t=0.24
0
% es.tEZ (V/m) @ t=0.24
6.916908304682938
% es.Ex (V/m) @ t=0.24
8.658135992729823
% es.Ey (V/m) @ t=0.24
-1.3266827712584472
% es.Ez (V/m) @ t=0.24
6.916908304682937
% es.tEx (V/m) @ t=0.24
8.658135992729836
% es.tEy (V/m) @ t=0.24
0
% es.tEz (V/m) @ t=0.24
6.916908304682938
% V (V) @ t=0.24
0.009227407275417224
% es.normE (V/m) @ t=0.26
11.27440251744174
% es.EX (V/m) @ t=0.26
8.73635710756315
% es.EY (V/m) @ t=0.26
-1.3386685466962192
% es.EZ (V/m) @ t=0.26
6.979398465049844
% es.tEX (V/m) @ t=0.26
8.736357107563176
% es.tEY (V/m) @ t=0.26
0
% es.tEZ (V/m) @ t=0.26
6.979398465049832
% es.Ex (V/m) @ t=0.26
8.73635710756315
% es.Ey (V/m) @ t=0.26
-1.3386685466962192
% es.Ez (V/m) @ t=0.26
6.979398465049844
% es.tEx (V/m) @ t=0.26
8.736357107563176
% es.tEy (V/m) @ t=0.26
0
% es.tEz (V/m) @ t=0.26
6.979398465049832
% V (V) @ t=0.26
0.009310771364304408
% es.normE (V/m) @ t=0.28
11.384737425588039
% es.EX (V/m) @ t=0.28
8.821853889707395
% es.EY (V/m) @ t=0.28
-1.3517692220848083
% es.EZ (V/m) @ t=0.28
7.047701080766187
% es.tEX (V/m) @ t=0.28
8.821853889707434
% es.tEY (V/m) @ t=0.28
0
% es.tEZ (V/m) @ t=0.28
7.047701080766162
% es.Ex (V/m) @ t=0.28
8.821853889707395
% es.Ey (V/m) @ t=0.28
-1.3517692220848083
% es.Ez (V/m) @ t=0.28
7.047701080766187
% es.tEx (V/m) @ t=0.28
8.821853889707434
% es.tEy (V/m) @ t=0.28
0
% es.tEz (V/m) @ t=0.28
7.047701080766162
% V (V) @ t=0.28
0.009401889682428957
% es.normE (V/m) @ t=0.3
11.496749349721128
% es.EX (V/m) @ t=0.3
8.908650164643168
% es.EY (V/m) @ t=0.3
-1.3650690275858128
% es.EZ (V/m) @ t=0.3
7.11704184783062
% es.tEX (V/m) @ t=0.3
8.908650164643173
% es.tEY (V/m) @ t=0.3
0
% es.tEZ (V/m) @ t=0.3
7.1170418478306186
% es.Ex (V/m) @ t=0.3
8.908650164643168
% es.Ey (V/m) @ t=0.3
-1.3650690275858128
% es.Ez (V/m) @ t=0.3
7.11704184783062
% es.tEx (V/m) @ t=0.3
8.908650164643173
% es.tEy (V/m) @ t=0.3
0
% es.tEz (V/m) @ t=0.3
7.1170418478306186
% V (V) @ t=0.3
0.009494392968360145
% es.normE (V/m) @ t=0.32
11.608761273854205
% es.EX (V/m) @ t=0.32
8.995446439578899
% es.EY (V/m) @ t=0.32
-1.3783688330868475
% es.EZ (V/m) @ t=0.32
7.186382614895082
% es.tEX (V/m) @ t=0.32
8.995446439578915
% es.tEY (V/m) @ t=0.32
0
% es.tEZ (V/m) @ t=0.32
7.186382614895081
% es.Ex (V/m) @ t=0.32
8.995446439578899
% es.Ey (V/m) @ t=0.32
-1.3783688330868475
% es.Ez (V/m) @ t=0.32
7.186382614895082
% es.tEx (V/m) @ t=0.32
8.995446439578915
% es.tEy (V/m) @ t=0.32
0
% es.tEz (V/m) @ t=0.32
7.186382614895081
% V (V) @ t=0.32
0.00958689625429133
% es.normE (V/m) @ t=0.34
11.720773197987274
% es.EX (V/m) @ t=0.34
9.082242714514638
% es.EY (V/m) @ t=0.34
-1.3916686385878485
% es.EZ (V/m) @ t=0.34
7.2557233819595295
% es.tEX (V/m) @ t=0.34
9.082242714514669
% es.tEY (V/m) @ t=0.34
0
% es.tEZ (V/m) @ t=0.34
7.2557233819595375
% es.Ex (V/m) @ t=0.34
9.082242714514638
% es.Ey (V/m) @ t=0.34
-1.3916686385878485
% es.Ez (V/m) @ t=0.34
7.2557233819595295
% es.tEx (V/m) @ t=0.34
9.082242714514669
% es.tEy (V/m) @ t=0.34
0
% es.tEz (V/m) @ t=0.34
7.2557233819595375
% V (V) @ t=0.34
0.009679399540222518
% es.normE (V/m) @ t=0.36
11.832785122120363
% es.EX (V/m) @ t=0.36
9.16903898945039
% es.EY (V/m) @ t=0.36
-1.4049684440888655
% es.EZ (V/m) @ t=0.36
7.325064149023984
% es.tEX (V/m) @ t=0.36
9.16903898945041
% es.tEY (V/m) @ t=0.36
0
% es.tEZ (V/m) @ t=0.36
7.325064149024
% es.Ex (V/m) @ t=0.36
9.16903898945039
% es.Ey (V/m) @ t=0.36
-1.4049684440888655
% es.Ez (V/m) @ t=0.36
7.325064149023984
% es.tEx (V/m) @ t=0.36
9.16903898945041
% es.tEy (V/m) @ t=0.36
0
% es.tEz (V/m) @ t=0.36
7.325064149024
% V (V) @ t=0.36
0.0097719028261537
% es.normE (V/m) @ t=0.38
11.944797046253429
% es.EX (V/m) @ t=0.38
9.255835264386114
% es.EY (V/m) @ t=0.38
-1.4182682495898522
% es.EZ (V/m) @ t=0.38
7.394404916088446
% es.tEX (V/m) @ t=0.38
9.25583526438615
% es.tEY (V/m) @ t=0.38
0
% es.tEZ (V/m) @ t=0.38
7.394404916088448
% es.Ex (V/m) @ t=0.38
9.255835264386114
% es.Ey (V/m) @ t=0.38
-1.4182682495898522
% es.Ez (V/m) @ t=0.38
7.394404916088446
% es.tEx (V/m) @ t=0.38
9.25583526438615
% es.tEy (V/m) @ t=0.38
0
% es.tEz (V/m) @ t=0.38
7.394404916088448
% V (V) @ t=0.38
0.00986440611208489
% es.normE (V/m) @ t=0.4
12.056808970386514
% es.EX (V/m) @ t=0.4
9.342631539321859
% es.EY (V/m) @ t=0.4
-1.431568055090862
% es.EZ (V/m) @ t=0.4
7.463745683152904
% es.tEX (V/m) @ t=0.4
9.342631539321905
% es.tEY (V/m) @ t=0.4
0
% es.tEZ (V/m) @ t=0.4
7.463745683152897
% es.Ex (V/m) @ t=0.4
9.342631539321859
% es.Ey (V/m) @ t=0.4
-1.431568055090862
% es.Ez (V/m) @ t=0.4
7.463745683152904
% es.tEx (V/m) @ t=0.4
9.342631539321905
% es.tEy (V/m) @ t=0.4
0
% es.tEz (V/m) @ t=0.4
7.463745683152897
% V (V) @ t=0.4
0.009956909398016073
% es.normE (V/m) @ t=0.42
12.16882089451963
% es.EX (V/m) @ t=0.42
9.429427814257654
% es.EY (V/m) @ t=0.42
-1.4448678605918523
% es.EZ (V/m) @ t=0.42
7.533086450217351
% es.tEX (V/m) @ t=0.42
9.429427814257688
% es.tEY (V/m) @ t=0.42
0
% es.tEZ (V/m) @ t=0.42
7.533086450217347
% es.Ex (V/m) @ t=0.42
9.429427814257654
% es.Ey (V/m) @ t=0.42
-1.4448678605918523
% es.Ez (V/m) @ t=0.42
7.533086450217351
% es.tEx (V/m) @ t=0.42
9.429427814257688
% es.tEy (V/m) @ t=0.42
0
% es.tEz (V/m) @ t=0.42
7.533086450217347
% V (V) @ t=0.42
0.010049412683947259
% es.normE (V/m) @ t=0.44
12.28083281865269
% es.EX (V/m) @ t=0.44
9.516224089193372
% es.EY (V/m) @ t=0.44
-1.458167666092871
% es.EZ (V/m) @ t=0.44
7.602427217281803
% es.tEX (V/m) @ t=0.44
9.5162240891934
% es.tEY (V/m) @ t=0.44
0
% es.tEZ (V/m) @ t=0.44
7.6024272172817895
% es.Ex (V/m) @ t=0.44
9.516224089193372
% es.Ey (V/m) @ t=0.44
-1.458167666092871
% es.Ez (V/m) @ t=0.44
7.602427217281803
% es.tEx (V/m) @ t=0.44
9.5162240891934
% es.tEy (V/m) @ t=0.44
0
% es.tEz (V/m) @ t=0.44
7.6024272172817895
% V (V) @ t=0.44
0.010141915969878445
% es.normE (V/m) @ t=0.46
12.392844742785773
% es.EX (V/m) @ t=0.46
9.603020364129131
% es.EY (V/m) @ t=0.46
-1.47146747159384
% es.EZ (V/m) @ t=0.46
7.671767984346243
% es.tEX (V/m) @ t=0.46
9.603020364129168
% es.tEY (V/m) @ t=0.46
0
% es.tEZ (V/m) @ t=0.46
7.671767984346252
% es.Ex (V/m) @ t=0.46
9.603020364129131
% es.Ey (V/m) @ t=0.46
-1.47146747159384
% es.Ez (V/m) @ t=0.46
7.671767984346243
% es.tEx (V/m) @ t=0.46
9.603020364129168
% es.tEy (V/m) @ t=0.46
0
% es.tEz (V/m) @ t=0.46
7.671767984346252
% V (V) @ t=0.46
0.010234419255809628
% es.normE (V/m) @ t=0.48
12.504856666918858
% es.EX (V/m) @ t=0.48
9.689816639064869
% es.EY (V/m) @ t=0.48
-1.4847672770948677
% es.EZ (V/m) @ t=0.48
7.741108751410708
% es.tEX (V/m) @ t=0.48
9.68981663906491
% es.tEY (V/m) @ t=0.48
0
% es.tEZ (V/m) @ t=0.48
7.741108751410693
% es.Ex (V/m) @ t=0.48
9.689816639064869
% es.Ey (V/m) @ t=0.48
-1.4847672770948677
% es.Ez (V/m) @ t=0.48
7.741108751410708
% es.tEx (V/m) @ t=0.48
9.68981663906491
% es.tEy (V/m) @ t=0.48
0
% es.tEz (V/m) @ t=0.48
7.741108751410693
% V (V) @ t=0.48
0.010326922541740816
% es.normE (V/m) @ t=0.5
12.61686859105193
% es.EX (V/m) @ t=0.5
9.776612914000587
% es.EY (V/m) @ t=0.5
-1.4980670825958722
% es.EZ (V/m) @ t=0.5
7.8104495184751705
% es.tEX (V/m) @ t=0.5
9.77661291400065
% es.tEY (V/m) @ t=0.5
0
% es.tEZ (V/m) @ t=0.5
7.810449518475156
% es.Ex (V/m) @ t=0.5
9.776612914000587
% es.Ey (V/m) @ t=0.5
-1.4980670825958722
% es.Ez (V/m) @ t=0.5
7.8104495184751705
% es.tEx (V/m) @ t=0.5
9.77661291400065
% es.tEy (V/m) @ t=0.5
0
% es.tEz (V/m) @ t=0.5
7.810449518475156
% V (V) @ t=0.5
0.010419425827672002
% es.normE (V/m) @ t=0.52
12.728880515185026
% es.EX (V/m) @ t=0.52
9.863409188936354
% es.EY (V/m) @ t=0.52
-1.5113668880968607
% es.EZ (V/m) @ t=0.52
7.879790285539617
% es.tEX (V/m) @ t=0.52
9.863409188936362
% es.tEY (V/m) @ t=0.52
0
% es.tEZ (V/m) @ t=0.52
7.879790285539619
% es.Ex (V/m) @ t=0.52
9.863409188936354
% es.Ey (V/m) @ t=0.52
-1.5113668880968607
% es.Ez (V/m) @ t=0.52
7.879790285539617
% es.tEx (V/m) @ t=0.52
9.863409188936362
% es.tEy (V/m) @ t=0.52
0
% es.tEz (V/m) @ t=0.52
7.879790285539619
% V (V) @ t=0.52
0.010511929113603186
% es.normE (V/m) @ t=0.54
12.84971369449925
% es.EX (V/m) @ t=0.54
9.957040917448321
% es.EY (V/m) @ t=0.54
-1.5257140558609432
% es.EZ (V/m) @ t=0.54
7.954591842623531
% es.tEX (V/m) @ t=0.54
9.957040917448317
% es.tEY (V/m) @ t=0.54
0
% es.tEZ (V/m) @ t=0.54
7.95459184262353
% es.Ex (V/m) @ t=0.54
9.957040917448321
% es.Ey (V/m) @ t=0.54
-1.5257140558609432
% es.Ez (V/m) @ t=0.54
7.954591842623531
% es.tEx (V/m) @ t=0.54
9.957040917448317
% es.tEy (V/m) @ t=0.54
0
% es.tEz (V/m) @ t=0.54
7.95459184262353
% V (V) @ t=0.54
0.010611717169271425
% es.normE (V/m) @ t=0.56
12.974210722614771
% es.EX (V/m) @ t=0.56
10.053511705467983
% es.EY (V/m) @ t=0.56
-1.5404962384719596
% es.EZ (V/m) @ t=0.56
8.031661501984914
% es.tEX (V/m) @ t=0.56
10.053511705468
% es.tEY (V/m) @ t=0.56
0
% es.tEZ (V/m) @ t=0.56
8.031661501984914
% es.Ex (V/m) @ t=0.56
10.053511705467983
% es.Ey (V/m) @ t=0.56
-1.5404962384719596
% es.Ez (V/m) @ t=0.56
8.031661501984914
% es.tEx (V/m) @ t=0.56
10.053511705468
% es.tEy (V/m) @ t=0.56
0
% es.tEz (V/m) @ t=0.56
8.031661501984914
% V (V) @ t=0.56
0.010714530904882091
% es.normE (V/m) @ t=0.58
13.098707750730279
% es.EX (V/m) @ t=0.58
10.149982493487613
% es.EY (V/m) @ t=0.58
-1.5552784210829387
% es.EZ (V/m) @ t=0.58
8.10873116134633
% es.tEX (V/m) @ t=0.58
10.149982493487684
% es.tEY (V/m) @ t=0.58
0
% es.tEZ (V/m) @ t=0.58
8.10873116134633
% es.Ex (V/m) @ t=0.58
10.149982493487613
% es.Ey (V/m) @ t=0.58
-1.5552784210829387
% es.Ez (V/m) @ t=0.58
8.10873116134633
% es.tEx (V/m) @ t=0.58
10.149982493487684
% es.tEy (V/m) @ t=0.58
0
% es.tEz (V/m) @ t=0.58
8.10873116134633
% V (V) @ t=0.58
0.010817344640492757
% es.normE (V/m) @ t=0.6
13.223204778845735
% es.EX (V/m) @ t=0.6
10.24645328150719
% es.EY (V/m) @ t=0.6
-1.5700606036939373
% es.EZ (V/m) @ t=0.6
8.185800820707723
% es.tEX (V/m) @ t=0.6
10.246453281507225
% es.tEY (V/m) @ t=0.6
0
% es.tEZ (V/m) @ t=0.6
8.18580082070773
% es.Ex (V/m) @ t=0.6
10.24645328150719
% es.Ey (V/m) @ t=0.6
-1.5700606036939373
% es.Ez (V/m) @ t=0.6
8.185800820707723
% es.tEx (V/m) @ t=0.6
10.246453281507225
% es.tEy (V/m) @ t=0.6
0
% es.tEz (V/m) @ t=0.6
8.18580082070773
% V (V) @ t=0.6
0.010920158376103422
% es.normE (V/m) @ t=0.62
13.347701806961272
% es.EX (V/m) @ t=0.62
10.342924069526834
% es.EY (V/m) @ t=0.62
-1.584842786304911
% es.EZ (V/m) @ t=0.62
8.262870480069163
% es.tEX (V/m) @ t=0.62
10.34292406952688
% es.tEY (V/m) @ t=0.62
0
% es.tEZ (V/m) @ t=0.62
8.262870480069147
% es.Ex (V/m) @ t=0.62
10.342924069526834
% es.Ey (V/m) @ t=0.62
-1.584842786304911
% es.Ez (V/m) @ t=0.62
8.262870480069163
% es.tEx (V/m) @ t=0.62
10.34292406952688
% es.tEy (V/m) @ t=0.62
0
% es.tEz (V/m) @ t=0.62
8.262870480069147
% V (V) @ t=0.62
0.011022972111714087
% es.normE (V/m) @ t=0.64
13.472198835076732
% es.EX (V/m) @ t=0.64
10.439394857546434
% es.EY (V/m) @ t=0.64
-1.5996249689159043
% es.EZ (V/m) @ t=0.64
8.339940139430535
% es.tEX (V/m) @ t=0.64
10.439394857546478
% es.tEY (V/m) @ t=0.64
0
% es.tEZ (V/m) @ t=0.64
8.339940139430542
% es.Ex (V/m) @ t=0.64
10.439394857546434
% es.Ey (V/m) @ t=0.64
-1.5996249689159043
% es.Ez (V/m) @ t=0.64
8.339940139430535
% es.tEx (V/m) @ t=0.64
10.439394857546478
% es.tEy (V/m) @ t=0.64
0
% es.tEz (V/m) @ t=0.64
8.339940139430542
% V (V) @ t=0.64
0.011125785847324753
% es.normE (V/m) @ t=0.66
13.59669586319227
% es.EX (V/m) @ t=0.66
10.535865645566098
% es.EY (V/m) @ t=0.66
-1.614407151526903
% es.EZ (V/m) @ t=0.66
8.417009798791954
% es.tEX (V/m) @ t=0.66
10.535865645566105
% es.tEY (V/m) @ t=0.66
0
% es.tEZ (V/m) @ t=0.66
8.417009798791954
% es.Ex (V/m) @ t=0.66
10.535865645566098
% es.Ey (V/m) @ t=0.66
-1.614407151526903
% es.Ez (V/m) @ t=0.66
8.417009798791954
% es.tEx (V/m) @ t=0.66
10.535865645566105
% es.tEy (V/m) @ t=0.66
0
% es.tEz (V/m) @ t=0.66
8.417009798791954
% V (V) @ t=0.66
0.011228599582935416
% es.normE (V/m) @ t=0.68
13.721192891307762
% es.EX (V/m) @ t=0.68
10.632336433585712
% es.EY (V/m) @ t=0.68
-1.6291893341378927
% es.EZ (V/m) @ t=0.68
8.49407945815336
% es.tEX (V/m) @ t=0.68
10.63233643358576
% es.tEY (V/m) @ t=0.68
0
% es.tEZ (V/m) @ t=0.68
8.494079458153351
% es.Ex (V/m) @ t=0.68
10.632336433585712
% es.Ey (V/m) @ t=0.68
-1.6291893341378927
% es.Ez (V/m) @ t=0.68
8.49407945815336
% es.tEx (V/m) @ t=0.68
10.63233643358576
% es.tEy (V/m) @ t=0.68
0
% es.tEz (V/m) @ t=0.68
8.494079458153351
% V (V) @ t=0.68
0.011331413318546084
% es.normE (V/m) @ t=0.7
13.845689919423272
% es.EX (V/m) @ t=0.7
10.72880722160534
% es.EY (V/m) @ t=0.7
-1.6439715167488966
% es.EZ (V/m) @ t=0.7
8.571149117514775
% es.tEX (V/m) @ t=0.7
10.728807221605386
% es.tEY (V/m) @ t=0.7
0
% es.tEZ (V/m) @ t=0.7
8.57114911751477
% es.Ex (V/m) @ t=0.7
10.72880722160534
% es.Ey (V/m) @ t=0.7
-1.6439715167488966
% es.Ez (V/m) @ t=0.7
8.571149117514775
% es.tEx (V/m) @ t=0.7
10.728807221605386
% es.tEy (V/m) @ t=0.7
0
% es.tEz (V/m) @ t=0.7
8.57114911751477
% V (V) @ t=0.7
0.011434227054156747
% es.normE (V/m) @ t=0.72
13.970186947538785
% es.EX (V/m) @ t=0.72
10.82527800962499
% es.EY (V/m) @ t=0.72
-1.658753699359849
% es.EZ (V/m) @ t=0.72
8.648218776876174
% es.tEX (V/m) @ t=0.72
10.825278009624984
% es.tEY (V/m) @ t=0.72
0
% es.tEZ (V/m) @ t=0.72
8.648218776876183
% es.Ex (V/m) @ t=0.72
10.82527800962499
% es.Ey (V/m) @ t=0.72
-1.658753699359849
% es.Ez (V/m) @ t=0.72
8.648218776876174
% es.tEx (V/m) @ t=0.72
10.825278009624984
% es.tEy (V/m) @ t=0.72
0
% es.tEz (V/m) @ t=0.72
8.648218776876183
% V (V) @ t=0.72
0.011537040789767413
% es.normE (V/m) @ t=0.74
14.09468397565427
% es.EX (V/m) @ t=0.74
10.921748797644582
% es.EY (V/m) @ t=0.74
-1.6735358819708637
% es.EZ (V/m) @ t=0.74
8.725288436237589
% es.tEX (V/m) @ t=0.74
10.92174879764464
% es.tEY (V/m) @ t=0.74
0
% es.tEZ (V/m) @ t=0.74
8.725288436237584
% es.Ex (V/m) @ t=0.74
10.921748797644582
% es.Ey (V/m) @ t=0.74
-1.6735358819708637
% es.Ez (V/m) @ t=0.74
8.725288436237589
% es.tEx (V/m) @ t=0.74
10.92174879764464
% es.tEy (V/m) @ t=0.74
0
% es.tEz (V/m) @ t=0.74
8.725288436237584
% V (V) @ t=0.74
0.011639854525378076
% es.normE (V/m) @ t=0.76
14.219181003769817
% es.EX (V/m) @ t=0.76
11.018219585664275
% es.EY (V/m) @ t=0.76
-1.6883180645818818
% es.EZ (V/m) @ t=0.76
8.802358095598983
% es.tEX (V/m) @ t=0.76
11.018219585664296
% es.tEY (V/m) @ t=0.76
0
% es.tEZ (V/m) @ t=0.76
8.802358095598974
% es.Ex (V/m) @ t=0.76
11.018219585664275
% es.Ey (V/m) @ t=0.76
-1.6883180645818818
% es.Ez (V/m) @ t=0.76
8.802358095598983
% es.tEx (V/m) @ t=0.76
11.018219585664296
% es.tEy (V/m) @ t=0.76
0
% es.tEz (V/m) @ t=0.76
8.802358095598974
% V (V) @ t=0.76
0.011742668260988744
% es.normE (V/m) @ t=0.78
14.343678031885302
% es.EX (V/m) @ t=0.78
11.114690373683889
% es.EY (V/m) @ t=0.78
-1.7031002471928591
% es.EZ (V/m) @ t=0.78
8.879427754960378
% es.tEX (V/m) @ t=0.78
11.114690373683922
% es.tEY (V/m) @ t=0.78
0
% es.tEZ (V/m) @ t=0.78
8.879427754960378
% es.Ex (V/m) @ t=0.78
11.114690373683889
% es.Ey (V/m) @ t=0.78
-1.7031002471928591
% es.Ez (V/m) @ t=0.78
8.879427754960378
% es.tEx (V/m) @ t=0.78
11.114690373683922
% es.tEy (V/m) @ t=0.78
0
% es.tEz (V/m) @ t=0.78
8.879427754960378
% V (V) @ t=0.78
0.011845481996599409
% es.normE (V/m) @ t=0.8
14.476142668184501
% es.EX (V/m) @ t=0.8
11.217335136023856
% es.EY (V/m) @ t=0.8
-1.7188284634784843
% es.EZ (V/m) @ t=0.8
8.96142974823856
% es.tEX (V/m) @ t=0.8
11.217335136023934
% es.tEY (V/m) @ t=0.8
0
% es.tEZ (V/m) @ t=0.8
8.96142974823856
% es.Ex (V/m) @ t=0.8
11.217335136023856
% es.Ey (V/m) @ t=0.8
-1.7188284634784843
% es.Ez (V/m) @ t=0.8
8.96142974823856
% es.tEx (V/m) @ t=0.8
11.217335136023934
% es.tEy (V/m) @ t=0.8
0
% es.tEz (V/m) @ t=0.8
8.96142974823856
% V (V) @ t=0.8
0.011954875637337959
% es.normE (V/m) @ t=0.82
14.614750991239944
% es.EX (V/m) @ t=0.82
11.324740544644518
% es.EY (V/m) @ t=0.82
-1.7352861501928114
% es.EZ (V/m) @ t=0.82
9.047234980062456
% es.tEX (V/m) @ t=0.82
11.324740544644538
% es.tEY (V/m) @ t=0.82
0
% es.tEZ (V/m) @ t=0.82
9.047234980062466
% es.Ex (V/m) @ t=0.82
11.324740544644518
% es.Ey (V/m) @ t=0.82
-1.7352861501928114
% es.Ez (V/m) @ t=0.82
9.047234980062456
% es.tEx (V/m) @ t=0.82
11.324740544644538
% es.tEy (V/m) @ t=0.82
0
% es.tEz (V/m) @ t=0.82
9.047234980062466
% V (V) @ t=0.82
0.012069342930678338
% es.normE (V/m) @ t=0.84
14.753359314295391
% es.EX (V/m) @ t=0.84
11.432145953265202
% es.EY (V/m) @ t=0.84
-1.7517438369071918
% es.EZ (V/m) @ t=0.84
9.133040211886321
% es.tEX (V/m) @ t=0.84
11.432145953265254
% es.tEY (V/m) @ t=0.84
0
% es.tEZ (V/m) @ t=0.84
9.133040211886316
% es.Ex (V/m) @ t=0.84
11.432145953265202
% es.Ey (V/m) @ t=0.84
-1.7517438369071918
% es.Ez (V/m) @ t=0.84
9.133040211886321
% es.tEx (V/m) @ t=0.84
11.432145953265254
% es.tEy (V/m) @ t=0.84
0
% es.tEz (V/m) @ t=0.84
9.133040211886316
% V (V) @ t=0.84
0.012183810224018722
% es.normE (V/m) @ t=0.86
14.891967637350902
% es.EX (V/m) @ t=0.86
11.539551361885934
% es.EY (V/m) @ t=0.86
-1.768201523621448
% es.EZ (V/m) @ t=0.86
9.218845443710245
% es.tEX (V/m) @ t=0.86
11.539551361885941
% es.tEY (V/m) @ t=0.86
0
% es.tEZ (V/m) @ t=0.86
9.21884544371025
% es.Ex (V/m) @ t=0.86
11.539551361885934
% es.Ey (V/m) @ t=0.86
-1.768201523621448
% es.Ez (V/m) @ t=0.86
9.218845443710245
% es.tEx (V/m) @ t=0.86
11.539551361885941
% es.tEy (V/m) @ t=0.86
0
% es.tEz (V/m) @ t=0.86
9.21884544371025
% V (V) @ t=0.86
0.012298277517359102
% es.normE (V/m) @ t=0.88
15.030575960406324
% es.EX (V/m) @ t=0.88
11.646956770506575
% es.EY (V/m) @ t=0.88
-1.7846592103357892
% es.EZ (V/m) @ t=0.88
9.304650675534125
% es.tEX (V/m) @ t=0.88
11.64695677050663
% es.tEY (V/m) @ t=0.88
0
% es.tEZ (V/m) @ t=0.88
9.304650675534143
% es.Ex (V/m) @ t=0.88
11.646956770506575
% es.Ey (V/m) @ t=0.88
-1.7846592103357892
% es.Ez (V/m) @ t=0.88
9.304650675534125
% es.tEx (V/m) @ t=0.88
11.64695677050663
% es.tEy (V/m) @ t=0.88
0
% es.tEz (V/m) @ t=0.88
9.304650675534143
% V (V) @ t=0.88
0.012412744810699481
% es.normE (V/m) @ t=0.9
15.169184283461785
% es.EX (V/m) @ t=0.9
11.75436217912728
% es.EY (V/m) @ t=0.9
-1.8011168970500915
% es.EZ (V/m) @ t=0.9
9.390455907358
% es.tEX (V/m) @ t=0.9
11.75436217912732
% es.tEY (V/m) @ t=0.9
0
% es.tEZ (V/m) @ t=0.9
9.390455907358021
% es.Ex (V/m) @ t=0.9
11.75436217912728
% es.Ey (V/m) @ t=0.9
-1.8011168970500915
% es.Ez (V/m) @ t=0.9
9.390455907358
% es.tEx (V/m) @ t=0.9
11.75436217912732
% es.tEy (V/m) @ t=0.9
0
% es.tEz (V/m) @ t=0.9
9.390455907358021
% V (V) @ t=0.9
0.012527212104039863
% es.normE (V/m) @ t=0.92
15.307792606517253
% es.EX (V/m) @ t=0.92
11.861767587747956
% es.EY (V/m) @ t=0.92
-1.8175745837644541
% es.EZ (V/m) @ t=0.92
9.4762611391819
% es.tEX (V/m) @ t=0.92
11.861767587748009
% es.tEY (V/m) @ t=0.92
0
% es.tEZ (V/m) @ t=0.92
9.476261139181897
% es.Ex (V/m) @ t=0.92
11.861767587747956
% es.Ey (V/m) @ t=0.92
-1.8175745837644541
% es.Ez (V/m) @ t=0.92
9.4762611391819
% es.tEx (V/m) @ t=0.92
11.861767587748009
% es.tEy (V/m) @ t=0.92
0
% es.tEz (V/m) @ t=0.92
9.476261139181897
% V (V) @ t=0.92
0.012641679397380243
% es.normE (V/m) @ t=0.94
15.44640092957275
% es.EX (V/m) @ t=0.94
11.969172996368668
% es.EY (V/m) @ t=0.94
-1.8340322704787457
% es.EZ (V/m) @ t=0.94
9.562066371005823
% es.tEX (V/m) @ t=0.94
11.969172996368666
% es.tEY (V/m) @ t=0.94
0
% es.tEZ (V/m) @ t=0.94
9.56206637100582
% es.Ex (V/m) @ t=0.94
11.969172996368668
% es.Ey (V/m) @ t=0.94
-1.8340322704787457
% es.Ez (V/m) @ t=0.94
9.562066371005823
% es.tEx (V/m) @ t=0.94
11.969172996368666
% es.tEy (V/m) @ t=0.94
0
% es.tEz (V/m) @ t=0.94
9.56206637100582
% V (V) @ t=0.94
0.012756146690720626
% es.normE (V/m) @ t=0.96
15.585009252628218
% es.EX (V/m) @ t=0.96
12.076578404989366
% es.EY (V/m) @ t=0.96
-1.8504899571930729
% es.EZ (V/m) @ t=0.96
9.647871602829712
% es.tEX (V/m) @ t=0.96
12.076578404989412
% es.tEY (V/m) @ t=0.96
0
% es.tEZ (V/m) @ t=0.96
9.647871602829698
% es.Ex (V/m) @ t=0.96
12.076578404989366
% es.Ey (V/m) @ t=0.96
-1.8504899571930729
% es.Ez (V/m) @ t=0.96
9.647871602829712
% es.tEx (V/m) @ t=0.96
12.076578404989412
% es.tEy (V/m) @ t=0.96
0
% es.tEz (V/m) @ t=0.96
9.647871602829698
% V (V) @ t=0.96
0.012870613984061004
% es.normE (V/m) @ t=0.98
15.72361757568364
% es.EX (V/m) @ t=0.98
12.183983813610014
% es.EY (V/m) @ t=0.98
-1.866947643907384
% es.EZ (V/m) @ t=0.98
9.733676834653593
% es.tEX (V/m) @ t=0.98
12.183983813610073
% es.tEY (V/m) @ t=0.98
0
% es.tEZ (V/m) @ t=0.98
9.73367683465359
% es.Ex (V/m) @ t=0.98
12.183983813610014
% es.Ey (V/m) @ t=0.98
-1.866947643907384
% es.Ez (V/m) @ t=0.98
9.733676834653593
% es.tEx (V/m) @ t=0.98
12.183983813610073
% es.tEy (V/m) @ t=0.98
0
% es.tEz (V/m) @ t=0.98
9.73367683465359
% V (V) @ t=0.98
0.012985081277401389
% es.normE (V/m) @ t=1
15.862225898739156
% es.EX (V/m) @ t=1
12.291389222230753
% es.EY (V/m) @ t=1
-1.8834053306217058
% es.EZ (V/m) @ t=1
9.819482066477509
% es.tEX (V/m) @ t=1
12.291389222230789
% es.tEY (V/m) @ t=1
0
% es.tEZ (V/m) @ t=1
9.81948206647751
% es.Ex (V/m) @ t=1
12.291389222230753
% es.Ey (V/m) @ t=1
-1.8834053306217058
% es.Ez (V/m) @ t=1
9.819482066477509
% es.tEx (V/m) @ t=1
12.291389222230789
% es.tEy (V/m) @ t=1
0
% es.tEz (V/m) @ t=1
9.81948206647751
% V (V) @ t=1
0.013099548570741765
% es.normE (V/m) @ t=1.02
16.000834221794612
% es.EX (V/m) @ t=1.02
12.39879463085143
% es.EY (V/m) @ t=1.02
-1.8998630173359992
% es.EZ (V/m) @ t=1.02
9.905287298301404
% es.tEX (V/m) @ t=1.02
12.398794630851476
% es.tEY (V/m) @ t=1.02
0
% es.tEZ (V/m) @ t=1.02
9.905287298301388
% es.Ex (V/m) @ t=1.02
12.39879463085143
% es.Ey (V/m) @ t=1.02
-1.8998630173359992
% es.Ez (V/m) @ t=1.02
9.905287298301404
% es.tEx (V/m) @ t=1.02
12.398794630851476
% es.tEy (V/m) @ t=1.02
0
% es.tEz (V/m) @ t=1.02
9.905287298301388
% V (V) @ t=1.02
0.013214015864082149
% es.normE (V/m) @ t=1.04
16.139442544850063
% es.EX (V/m) @ t=1.04
12.506200039472107
% es.EY (V/m) @ t=1.04
-1.9163207040503654
% es.EZ (V/m) @ t=1.04
9.991092530125284
% es.tEX (V/m) @ t=1.04
12.506200039472166
% es.tEY (V/m) @ t=1.04
0
% es.tEZ (V/m) @ t=1.04
9.991092530125295
% es.Ex (V/m) @ t=1.04
12.506200039472107
% es.Ey (V/m) @ t=1.04
-1.9163207040503654
% es.Ez (V/m) @ t=1.04
9.991092530125284
% es.tEx (V/m) @ t=1.04
12.506200039472166
% es.tEy (V/m) @ t=1.04
0
% es.tEz (V/m) @ t=1.04
9.991092530125295
% V (V) @ t=1.04
0.013328483157422528
% es.normE (V/m) @ t=1.06
16.280900921244964
% es.EX (V/m) @ t=1.06
12.615813909699018
% es.EY (V/m) @ t=1.06
-1.9331167903103506
% es.EZ (V/m) @ t=1.06
10.078662082852409
% es.tEX (V/m) @ t=1.06