% Model:              1 neuron.mph
% Version:            COMSOL 6.1.0.252
% Date:               Mar 22 2023, 20:15
% Dimension:          0
% Nodes:              14017
% Expressions:        14017
% Description:        Electric field norm, Electric field, X component, Electric field, Y component, Electric field, Z component, Tangential electric field, X component, Tangential electric field, Y component, Tangential electric field, Z component, Electric field, x component, Electric field, y component, Electric field, z component, Tangential electric field, x component, Tangential electric field, y component, Tangential electric field, z component, Electric potential
% Length unit:        mm
% x
1.66
% y
12.2
% z
1.33
% es.normE (V/m) @ t=0
11.600440658401746
% es.EX (V/m) @ t=0
-6.44567490278752
% es.EY (V/m) @ t=0
-0.6957547807708881
% es.EZ (V/m) @ t=0
8.630713667833252
% es.tEX (V/m) @ t=0
-6.4456749027875295
% es.tEY (V/m) @ t=0
0
% es.tEZ (V/m) @ t=0
8.630713667833234
% es.Ex (V/m) @ t=0
-6.44567490278752
% es.Ey (V/m) @ t=0
-0.6957547807708881
% es.Ez (V/m) @ t=0
8.630713667833252
% es.tEx (V/m) @ t=0
-6.4456749027875295
% es.tEy (V/m) @ t=0
0
% es.tEz (V/m) @ t=0
8.630713667833234
% V (V) @ t=0
0.009527037282106235
% es.normE (V/m) @ t=0.02
10.019473164824731
% es.EX (V/m) @ t=0.02
-5.567225303230417
% es.EY (V/m) @ t=0.02
-0.6009337519180322
% es.EZ (V/m) @ t=0.02
7.454475784210361
% es.tEX (V/m) @ t=0.02
-5.567225303230423
% es.tEY (V/m) @ t=0.02
0
% es.tEZ (V/m) @ t=0.02
7.454475784210354
% es.Ex (V/m) @ t=0.02
-5.567225303230417
% es.Ey (V/m) @ t=0.02
-0.6009337519180322
% es.Ez (V/m) @ t=0.02
7.454475784210361
% es.tEx (V/m) @ t=0.02
-5.567225303230423
% es.tEy (V/m) @ t=0.02
0
% es.tEz (V/m) @ t=0.02
7.454475784210354
% V (V) @ t=0.02
0.00822864382104518
% es.normE (V/m) @ t=0.04
10.111692156115033
% es.EX (V/m) @ t=0.04
-5.618465909263428
% es.EY (V/m) @ t=0.04
-0.6064647333262128
% es.EZ (V/m) @ t=0.04
7.523086601682676
% es.tEX (V/m) @ t=0.04
-5.6184659092634375
% es.tEY (V/m) @ t=0.04
0
% es.tEZ (V/m) @ t=0.04
7.523086601682676
% es.Ex (V/m) @ t=0.04
-5.618465909263428
% es.Ey (V/m) @ t=0.04
-0.6064647333262128
% es.Ez (V/m) @ t=0.04
7.523086601682676
% es.tEx (V/m) @ t=0.04
-5.6184659092634375
% es.tEy (V/m) @ t=0.04
0
% es.tEz (V/m) @ t=0.04
7.523086601682676
% V (V) @ t=0.04
0.00830438006418632
% es.normE (V/m) @ t=0.06
10.204677190068743
% es.EX (V/m) @ t=0.06
-5.670132142094806
% es.EY (V/m) @ t=0.06
-0.6120416698590359
% es.EZ (V/m) @ t=0.06
7.5922673594139605
% es.tEX (V/m) @ t=0.06
-5.670132142094815
% es.tEY (V/m) @ t=0.06
0
% es.tEZ (V/m) @ t=0.06
7.5922673594139525
% es.Ex (V/m) @ t=0.06
-5.670132142094806
% es.Ey (V/m) @ t=0.06
-0.6120416698590359
% es.Ez (V/m) @ t=0.06
7.5922673594139605
% es.tEx (V/m) @ t=0.06
-5.670132142094815
% es.tEy (V/m) @ t=0.06
0
% es.tEz (V/m) @ t=0.06
7.5922673594139525
% V (V) @ t=0.06
0.008380745448443427
% es.normE (V/m) @ t=0.08
10.299234218882413
% es.EX (V/m) @ t=0.08
-5.722671852499448
% es.EY (V/m) @ t=0.08
-0.6177128811305534
% es.EZ (V/m) @ t=0.08
7.662617675235902
% es.tEX (V/m) @ t=0.08
-5.722671852499458
% es.tEY (V/m) @ t=0.08
0
% es.tEZ (V/m) @ t=0.08
7.662617675235899
% es.Ex (V/m) @ t=0.08
-5.722671852499448
% es.Ey (V/m) @ t=0.08
-0.6177128811305534
% es.Ez (V/m) @ t=0.08
7.662617675235902
% es.tEx (V/m) @ t=0.08
-5.722671852499458
% es.tEy (V/m) @ t=0.08
0
% es.tEz (V/m) @ t=0.08
7.662617675235899
% V (V) @ t=0.08
0.00845840184420991
% es.normE (V/m) @ t=0.1
10.394567547046478
% es.EX (V/m) @ t=0.1
-5.775642912961241
% es.EY (V/m) @ t=0.1
-0.6234306481639698
% es.EZ (V/m) @ t=0.1
7.733545554769523
% es.tEX (V/m) @ t=0.1
-5.77564291296125
% es.tEY (V/m) @ t=0.1
0
% es.tEZ (V/m) @ t=0.1
7.733545554769512
% es.Ex (V/m) @ t=0.1
-5.775642912961241
% es.Ey (V/m) @ t=0.1
-0.6234306481639698
% es.Ez (V/m) @ t=0.1
7.733545554769523
% es.tEx (V/m) @ t=0.1
-5.77564291296125
% es.tEy (V/m) @ t=0.1
0
% es.tEz (V/m) @ t=0.1
7.733545554769512
% V (V) @ t=0.1
0.008536695781116994
% es.normE (V/m) @ t=0.12
10.48990087521052
% es.EX (V/m) @ t=0.12
-5.828613973423017
% es.EY (V/m) @ t=0.12
-0.6291484151973705
% es.EZ (V/m) @ t=0.12
7.804473434303143
% es.tEX (V/m) @ t=0.12
-5.828613973423016
% es.tEY (V/m) @ t=0.12
0
% es.tEZ (V/m) @ t=0.12
7.804473434303133
% es.Ex (V/m) @ t=0.12
-5.828613973423017
% es.Ey (V/m) @ t=0.12
-0.6291484151973705
% es.Ez (V/m) @ t=0.12
7.804473434303143
% es.tEx (V/m) @ t=0.12
-5.828613973423016
% es.tEy (V/m) @ t=0.12
0
% es.tEz (V/m) @ t=0.12
7.804473434303133
% V (V) @ t=0.12
0.008614989718024076
% es.normE (V/m) @ t=0.14
10.586963897389554
% es.EX (V/m) @ t=0.14
-5.882546114244826
% es.EY (V/m) @ t=0.14
-0.6349699280366958
% es.EZ (V/m) @ t=0.14
7.876688206424319
% es.tEX (V/m) @ t=0.14
-5.882546114244831
% es.tEY (V/m) @ t=0.14
0
% es.tEZ (V/m) @ t=0.14
7.87668820642431
% es.Ex (V/m) @ t=0.14
-5.882546114244826
% es.Ey (V/m) @ t=0.14
-0.6349699280366958
% es.Ez (V/m) @ t=0.14
7.876688206424319
% es.tEx (V/m) @ t=0.14
-5.882546114244831
% es.tEy (V/m) @ t=0.14
0
% es.tEz (V/m) @ t=0.14
7.87668820642431
% V (V) @ t=0.14
0.008694704199700335
% es.normE (V/m) @ t=0.16
10.687259499295351
% es.EX (V/m) @ t=0.16
-5.9382743929157025
% es.EY (V/m) @ t=0.16
-0.6409853286885738
% es.EZ (V/m) @ t=0.16
7.951308018311488
% es.tEX (V/m) @ t=0.16
-5.938274392915716
% es.tEY (V/m) @ t=0.16
0
% es.tEZ (V/m) @ t=0.16
7.951308018311483
% es.Ex (V/m) @ t=0.16
-5.9382743929157025
% es.Ey (V/m) @ t=0.16
-0.6409853286885738
% es.Ez (V/m) @ t=0.16
7.951308018311488
% es.tEx (V/m) @ t=0.16
-5.938274392915716
% es.tEy (V/m) @ t=0.16
0
% es.tEz (V/m) @ t=0.16
7.951308018311483
% V (V) @ t=0.16
0.00877707350019544
% es.normE (V/m) @ t=0.18
10.787555101201185
% es.EX (V/m) @ t=0.18
-5.994002671586584
% es.EY (V/m) @ t=0.18
-0.6470007293404532
% es.EZ (V/m) @ t=0.18
8.025927830198714
% es.tEX (V/m) @ t=0.18
-5.9940026715865935
% es.tEY (V/m) @ t=0.18
0
% es.tEZ (V/m) @ t=0.18
8.025927830198711
% es.Ex (V/m) @ t=0.18
-5.994002671586584
% es.Ey (V/m) @ t=0.18
-0.6470007293404532
% es.Ez (V/m) @ t=0.18
8.025927830198714
% es.tEx (V/m) @ t=0.18
-5.9940026715865935
% es.tEy (V/m) @ t=0.18
0
% es.tEz (V/m) @ t=0.18
8.025927830198711
% V (V) @ t=0.18
0.008859442800690544
% es.normE (V/m) @ t=0.2
10.887850703107004
% es.EX (V/m) @ t=0.2
-6.049730950257467
% es.EY (V/m) @ t=0.2
-0.6530161299923294
% es.EZ (V/m) @ t=0.2
8.100547642085909
% es.tEX (V/m) @ t=0.2
-6.049730950257473
% es.tEY (V/m) @ t=0.2
0
% es.tEZ (V/m) @ t=0.2
8.100547642085894
% es.Ex (V/m) @ t=0.2
-6.049730950257467
% es.Ey (V/m) @ t=0.2
-0.6530161299923294
% es.Ez (V/m) @ t=0.2
8.100547642085909
% es.tEx (V/m) @ t=0.2
-6.049730950257473
% es.tEy (V/m) @ t=0.2
0
% es.tEz (V/m) @ t=0.2
8.100547642085894
% V (V) @ t=0.2
0.00894181210118565
% es.normE (V/m) @ t=0.22
10.988146305012808
% es.EX (V/m) @ t=0.22
-6.105459228928333
% es.EY (V/m) @ t=0.22
-0.659031530644195
% es.EZ (V/m) @ t=0.22
8.17516745397311
% es.tEX (V/m) @ t=0.22
-6.10545922892835
% es.tEY (V/m) @ t=0.22
0
% es.tEZ (V/m) @ t=0.22
8.175167453973101
% es.Ex (V/m) @ t=0.22
-6.105459228928333
% es.Ey (V/m) @ t=0.22
-0.659031530644195
% es.Ez (V/m) @ t=0.22
8.17516745397311
% es.tEx (V/m) @ t=0.22
-6.10545922892835
% es.tEy (V/m) @ t=0.22
0
% es.tEz (V/m) @ t=0.22
8.175167453973101
% V (V) @ t=0.22
0.009024181401680754
% es.normE (V/m) @ t=0.24
11.088441906918638
% es.EX (V/m) @ t=0.24
-6.161187507599226
% es.EY (V/m) @ t=0.24
-0.6650469312960476
% es.EZ (V/m) @ t=0.24
8.24978726586031
% es.tEX (V/m) @ t=0.24
-6.1611875075992355
% es.tEY (V/m) @ t=0.24
0
% es.tEZ (V/m) @ t=0.24
8.249787265860302
% es.Ex (V/m) @ t=0.24
-6.161187507599226
% es.Ey (V/m) @ t=0.24
-0.6650469312960476
% es.Ez (V/m) @ t=0.24
8.24978726586031
% es.tEx (V/m) @ t=0.24
-6.1611875075992355
% es.tEy (V/m) @ t=0.24
0
% es.tEz (V/m) @ t=0.24
8.249787265860302
% V (V) @ t=0.24
0.00910655070217586
% es.normE (V/m) @ t=0.26
11.188737508824447
% es.EX (V/m) @ t=0.26
-6.216915786270101
% es.EY (V/m) @ t=0.26
-0.6710623319479276
% es.EZ (V/m) @ t=0.26
8.324407077747512
% es.tEX (V/m) @ t=0.26
-6.216915786270117
% es.tEY (V/m) @ t=0.26
0
% es.tEZ (V/m) @ t=0.26
8.324407077747498
% es.Ex (V/m) @ t=0.26
-6.216915786270101
% es.Ey (V/m) @ t=0.26
-0.6710623319479276
% es.Ez (V/m) @ t=0.26
8.324407077747512
% es.tEx (V/m) @ t=0.26
-6.216915786270117
% es.tEy (V/m) @ t=0.26
0
% es.tEz (V/m) @ t=0.26
8.324407077747498
% V (V) @ t=0.26
0.009188920002670967
% es.normE (V/m) @ t=0.28
11.296900879108792
% es.EX (V/m) @ t=0.28
-6.277015058526678
% es.EY (V/m) @ t=0.28
-0.6775500158100809
% es.EZ (V/m) @ t=0.28
8.404880696269363
% es.tEX (V/m) @ t=0.28
-6.2770150585266835
% es.tEY (V/m) @ t=0.28
0
% es.tEZ (V/m) @ t=0.28
8.404880696269348
% es.Ex (V/m) @ t=0.28
-6.277015058526678
% es.Ey (V/m) @ t=0.28
-0.6775500158100809
% es.Ez (V/m) @ t=0.28
8.404880696269363
% es.tEx (V/m) @ t=0.28
-6.2770150585266835
% es.tEy (V/m) @ t=0.28
0
% es.tEz (V/m) @ t=0.28
8.404880696269348
% V (V) @ t=0.28
0.00927775145076393
% es.normE (V/m) @ t=0.3
11.408326964203887
% es.EX (V/m) @ t=0.3
-6.338926954747645
% es.EY (V/m) @ t=0.3
-0.6842335525939958
% es.EZ (V/m) @ t=0.3
8.487781852141891
% es.tEX (V/m) @ t=0.3
-6.338926954747654
% es.tEY (V/m) @ t=0.3
0
% es.tEZ (V/m) @ t=0.3
8.487781852141886
% es.Ex (V/m) @ t=0.3
-6.338926954747645
% es.Ey (V/m) @ t=0.3
-0.6842335525939958
% es.Ez (V/m) @ t=0.3
8.487781852141891
% es.tEx (V/m) @ t=0.3
-6.338926954747654
% es.tEy (V/m) @ t=0.3
0
% es.tEz (V/m) @ t=0.3
8.487781852141886
% V (V) @ t=0.3
0.009369262711436762
% es.normE (V/m) @ t=0.32
11.519753049299162
% es.EX (V/m) @ t=0.32
-6.4008388509686185
% es.EY (V/m) @ t=0.32
-0.6909170893779377
% es.EZ (V/m) @ t=0.32
8.570683008014448
% es.tEX (V/m) @ t=0.32
-6.400838850968635
% es.tEY (V/m) @ t=0.32
0
% es.tEZ (V/m) @ t=0.32
8.570683008014433
% es.Ex (V/m) @ t=0.32
-6.4008388509686185
% es.Ey (V/m) @ t=0.32
-0.6909170893779377
% es.Ez (V/m) @ t=0.32
8.570683008014448
% es.tEx (V/m) @ t=0.32
-6.400838850968635
% es.tEy (V/m) @ t=0.32
0
% es.tEz (V/m) @ t=0.32
8.570683008014433
% V (V) @ t=0.32
0.009460773972109593
% es.normE (V/m) @ t=0.34
11.631179134394596
% es.EX (V/m) @ t=0.34
-6.4627507471895855
% es.EY (V/m) @ t=0.34
-0.6976006261618743
% es.EZ (V/m) @ t=0.34
8.653584163887011
% es.tEX (V/m) @ t=0.34
-6.462750747189599
% es.tEY (V/m) @ t=0.34
0
% es.tEZ (V/m) @ t=0.34
8.653584163887007
% es.Ex (V/m) @ t=0.34
-6.4627507471895855
% es.Ey (V/m) @ t=0.34
-0.6976006261618743
% es.Ez (V/m) @ t=0.34
8.653584163887011
% es.tEx (V/m) @ t=0.34
-6.462750747189599
% es.tEy (V/m) @ t=0.34
0
% es.tEz (V/m) @ t=0.34
8.653584163887007
% V (V) @ t=0.34
0.009552285232782426
% es.normE (V/m) @ t=0.36
11.742605219490176
% es.EX (V/m) @ t=0.36
-6.524662643410565
% es.EY (V/m) @ t=0.36
-0.7042841629458088
% es.EZ (V/m) @ t=0.36
8.736485319759565
% es.tEX (V/m) @ t=0.36
-6.524662643410581
% es.tEY (V/m) @ t=0.36
0
% es.tEZ (V/m) @ t=0.36
8.73648531975956
% es.Ex (V/m) @ t=0.36
-6.524662643410565
% es.Ey (V/m) @ t=0.36
-0.7042841629458088
% es.Ez (V/m) @ t=0.36
8.736485319759565
% es.tEx (V/m) @ t=0.36
-6.524662643410581
% es.tEy (V/m) @ t=0.36
0
% es.tEz (V/m) @ t=0.36
8.73648531975956
% V (V) @ t=0.36
0.009643796493455255
% es.normE (V/m) @ t=0.38
11.854031304585881
% es.EX (V/m) @ t=0.38
-6.586574539631532
% es.EY (V/m) @ t=0.38
-0.7109676997297456
% es.EZ (V/m) @ t=0.38
8.819386475632106
% es.tEX (V/m) @ t=0.38
-6.586574539631555
% es.tEY (V/m) @ t=0.38
0
% es.tEZ (V/m) @ t=0.38
8.819386475632093
% es.Ex (V/m) @ t=0.38
-6.586574539631532
% es.Ey (V/m) @ t=0.38
-0.7109676997297456
% es.Ez (V/m) @ t=0.38
8.819386475632106
% es.tEx (V/m) @ t=0.38
-6.586574539631555
% es.tEy (V/m) @ t=0.38
0
% es.tEz (V/m) @ t=0.38
8.819386475632093
% V (V) @ t=0.38
0.009735307754128085
% es.normE (V/m) @ t=0.4
11.965457389681752
% es.EX (V/m) @ t=0.4
-6.648486435852521
% es.EY (V/m) @ t=0.4
-0.7176512365136656
% es.EZ (V/m) @ t=0.4
8.902287631504665
% es.tEX (V/m) @ t=0.4
-6.64848643585253
% es.tEY (V/m) @ t=0.4
0
% es.tEZ (V/m) @ t=0.4
8.902287631504638
% es.Ex (V/m) @ t=0.4
-6.648486435852521
% es.Ey (V/m) @ t=0.4
-0.7176512365136656
% es.Ez (V/m) @ t=0.4
8.902287631504665
% es.tEx (V/m) @ t=0.4
-6.64848643585253
% es.tEy (V/m) @ t=0.4
0
% es.tEz (V/m) @ t=0.4
8.902287631504638
% V (V) @ t=0.4
0.009826819014800918
% es.normE (V/m) @ t=0.42
12.076883474777752
% es.EX (V/m) @ t=0.42
-6.710398332073496
% es.EY (V/m) @ t=0.42
-0.7243347732976027
% es.EZ (V/m) @ t=0.42
8.985188787377231
% es.tEX (V/m) @ t=0.42
-6.710398332073506
% es.tEY (V/m) @ t=0.42
0
% es.tEZ (V/m) @ t=0.42
8.985188787377215
% es.Ex (V/m) @ t=0.42
-6.710398332073496
% es.Ey (V/m) @ t=0.42
-0.7243347732976027
% es.Ez (V/m) @ t=0.42
8.985188787377231
% es.tEx (V/m) @ t=0.42
-6.710398332073506
% es.tEy (V/m) @ t=0.42
0
% es.tEz (V/m) @ t=0.42
8.985188787377215
% V (V) @ t=0.42
0.00991833027547375
% es.normE (V/m) @ t=0.44
12.188309559873879
% es.EX (V/m) @ t=0.44
-6.772310228294467
% es.EY (V/m) @ t=0.44
-0.7310183100815368
% es.EZ (V/m) @ t=0.44
9.068089943249783
% es.tEX (V/m) @ t=0.44
-6.772310228294477
% es.tEY (V/m) @ t=0.44
0
% es.tEZ (V/m) @ t=0.44
9.068089943249763
% es.Ex (V/m) @ t=0.44
-6.772310228294467
% es.Ey (V/m) @ t=0.44
-0.7310183100815368
% es.Ez (V/m) @ t=0.44
9.068089943249783
% es.tEx (V/m) @ t=0.44
-6.772310228294477
% es.tEy (V/m) @ t=0.44
0
% es.tEz (V/m) @ t=0.44
9.068089943249763
% V (V) @ t=0.44
0.01000984153614658
% es.normE (V/m) @ t=0.46
12.29973564497013
% es.EX (V/m) @ t=0.46
-6.834222124515442
% es.EY (V/m) @ t=0.46
-0.7377018468654808
% es.EZ (V/m) @ t=0.46
9.150991099122331
% es.tEX (V/m) @ t=0.46
-6.834222124515445
% es.tEY (V/m) @ t=0.46
0
% es.tEZ (V/m) @ t=0.46
9.150991099122322
% es.Ex (V/m) @ t=0.46
-6.834222124515442
% es.Ey (V/m) @ t=0.46
-0.7377018468654808
% es.Ez (V/m) @ t=0.46
9.150991099122331
% es.tEx (V/m) @ t=0.46
-6.834222124515445
% es.tEy (V/m) @ t=0.46
0
% es.tEz (V/m) @ t=0.46
9.150991099122322
% V (V) @ t=0.46
0.010101352796819413
% es.normE (V/m) @ t=0.48
12.411161730066492
% es.EX (V/m) @ t=0.48
-6.8961340207364055
% es.EY (V/m) @ t=0.48
-0.7443853836494205
% es.EZ (V/m) @ t=0.48
9.233892254994863
% es.tEX (V/m) @ t=0.48
-6.896134020736419
% es.tEY (V/m) @ t=0.48
0
% es.tEZ (V/m) @ t=0.48
9.233892254994862
% es.Ex (V/m) @ t=0.48
-6.8961340207364055
% es.Ey (V/m) @ t=0.48
-0.7443853836494205
% es.Ez (V/m) @ t=0.48
9.233892254994863
% es.tEx (V/m) @ t=0.48
-6.896134020736419
% es.tEy (V/m) @ t=0.48
0
% es.tEz (V/m) @ t=0.48
9.233892254994862
% V (V) @ t=0.48
0.010192864057492241
% es.normE (V/m) @ t=0.5
12.52258781516304
% es.EX (V/m) @ t=0.5
-6.958045916957385
% es.EY (V/m) @ t=0.5
-0.751068920433343
% es.EZ (V/m) @ t=0.5
9.316793410867469
% es.tEX (V/m) @ t=0.5
-6.958045916957397
% es.tEY (V/m) @ t=0.5
0
% es.tEZ (V/m) @ t=0.5
9.316793410867453
% es.Ex (V/m) @ t=0.5
-6.958045916957385
% es.Ey (V/m) @ t=0.5
-0.751068920433343
% es.Ez (V/m) @ t=0.5
9.316793410867469
% es.tEx (V/m) @ t=0.5
-6.958045916957397
% es.tEy (V/m) @ t=0.5
0
% es.tEz (V/m) @ t=0.5
9.316793410867453
% V (V) @ t=0.5
0.010284375318165074
% es.normE (V/m) @ t=0.52
12.634013900259632
% es.EX (V/m) @ t=0.52
-7.019957813178353
% es.EY (V/m) @ t=0.52
-0.7577524572173022
% es.EZ (V/m) @ t=0.52
9.399694566739988
% es.tEX (V/m) @ t=0.52
-7.019957813178365
% es.tEY (V/m) @ t=0.52
0
% es.tEZ (V/m) @ t=0.52
9.39969456673998
% es.Ex (V/m) @ t=0.52
-7.019957813178353
% es.Ey (V/m) @ t=0.52
-0.7577524572173022
% es.Ez (V/m) @ t=0.52
9.399694566739988
% es.tEx (V/m) @ t=0.52
-7.019957813178365
% es.tEy (V/m) @ t=0.52
0
% es.tEz (V/m) @ t=0.52
9.39969456673998
% V (V) @ t=0.52
0.010375886578837904
% es.normE (V/m) @ t=0.54
12.750763755268899
% es.EX (V/m) @ t=0.54
-7.084828033242015
% es.EY (V/m) @ t=0.54
-0.7647551596395539
% es.EZ (V/m) @ t=0.54
9.486556535250218
% es.tEX (V/m) @ t=0.54
-7.084828033242021
% es.tEY (V/m) @ t=0.54
0
% es.tEZ (V/m) @ t=0.54
9.486556535250209
% es.Ex (V/m) @ t=0.54
-7.084828033242015
% es.Ey (V/m) @ t=0.54
-0.7647551596395539
% es.Ez (V/m) @ t=0.54
9.486556535250218
% es.tEx (V/m) @ t=0.54
-7.084828033242021
% es.tEy (V/m) @ t=0.54
0
% es.tEz (V/m) @ t=0.54
9.486556535250209
% V (V) @ t=0.54
0.010471769856772584
% es.normE (V/m) @ t=0.56
12.874761837733274
% es.EX (V/m) @ t=0.56
-7.153725963828473
% es.EY (V/m) @ t=0.56
-0.7721924009657708
% es.EZ (V/m) @ t=0.56
9.578811086718824
% es.tEX (V/m) @ t=0.56
-7.153725963828485
% es.tEY (V/m) @ t=0.56
0
% es.tEZ (V/m) @ t=0.56
9.5788110867188
% es.Ex (V/m) @ t=0.56
-7.153725963828473
% es.Ey (V/m) @ t=0.56
-0.7721924009657708
% es.Ez (V/m) @ t=0.56
9.578811086718824
% es.tEx (V/m) @ t=0.56
-7.153725963828485
% es.tEy (V/m) @ t=0.56
0
% es.tEz (V/m) @ t=0.56
9.5788110867188
% V (V) @ t=0.56
0.010573605566174453
% es.normE (V/m) @ t=0.58
12.998759920197665
% es.EX (V/m) @ t=0.58
-7.222623894414918
% es.EY (V/m) @ t=0.58
-0.7796296422920153
% es.EZ (V/m) @ t=0.58
9.671065638187436
% es.tEX (V/m) @ t=0.58
-7.222623894414937
% es.tEY (V/m) @ t=0.58
0
% es.tEZ (V/m) @ t=0.58
9.671065638187418
% es.Ex (V/m) @ t=0.58
-7.222623894414918
% es.Ey (V/m) @ t=0.58
-0.7796296422920153
% es.Ez (V/m) @ t=0.58
9.671065638187436
% es.tEx (V/m) @ t=0.58
-7.222623894414937
% es.tEy (V/m) @ t=0.58
0
% es.tEz (V/m) @ t=0.58
9.671065638187418
% V (V) @ t=0.58
0.010675441275576318
% es.normE (V/m) @ t=0.6
13.122758002662096
% es.EX (V/m) @ t=0.6
-7.291521825001382
% es.EY (V/m) @ t=0.6
-0.7870668836182357
% es.EZ (V/m) @ t=0.6
9.76332018965605
% es.tEX (V/m) @ t=0.6
-7.291521825001395
% es.tEY (V/m) @ t=0.6
0
% es.tEZ (V/m) @ t=0.6
9.763320189656039
% es.Ex (V/m) @ t=0.6
-7.291521825001382
% es.Ey (V/m) @ t=0.6
-0.7870668836182357
% es.Ez (V/m) @ t=0.6
9.76332018965605
% es.tEx (V/m) @ t=0.6
-7.291521825001395
% es.tEy (V/m) @ t=0.6
0
% es.tEz (V/m) @ t=0.6
9.763320189656039
% V (V) @ t=0.6
0.010777276984978185
% es.normE (V/m) @ t=0.62
13.246756085126497
% es.EX (V/m) @ t=0.62
-7.3604197555878255
% es.EY (V/m) @ t=0.62
-0.7945041249444693
% es.EZ (V/m) @ t=0.62
9.855574741124647
% es.tEX (V/m) @ t=0.62
-7.36041975558784
% es.tEY (V/m) @ t=0.62
0
% es.tEZ (V/m) @ t=0.62
9.855574741124624
% es.Ex (V/m) @ t=0.62
-7.3604197555878255
% es.Ey (V/m) @ t=0.62
-0.7945041249444693
% es.Ez (V/m) @ t=0.62
9.855574741124647
% es.tEx (V/m) @ t=0.62
-7.36041975558784
% es.tEy (V/m) @ t=0.62
0
% es.tEz (V/m) @ t=0.62
9.855574741124624
% V (V) @ t=0.62
0.01087911269438005
% es.normE (V/m) @ t=0.64
13.370754167590924
% es.EX (V/m) @ t=0.64
-7.4293176861742705
% es.EY (V/m) @ t=0.64
-0.8019413662706505
% es.EZ (V/m) @ t=0.64
9.947829292593264
% es.tEX (V/m) @ t=0.64
-7.42931768617429
% es.tEY (V/m) @ t=0.64
0
% es.tEZ (V/m) @ t=0.64
9.947829292593244
% es.Ex (V/m) @ t=0.64
-7.4293176861742705
% es.Ey (V/m) @ t=0.64
-0.8019413662706505
% es.Ez (V/m) @ t=0.64
9.947829292593264
% es.tEx (V/m) @ t=0.64
-7.42931768617429
% es.tEy (V/m) @ t=0.64
0
% es.tEz (V/m) @ t=0.64
9.947829292593244
% V (V) @ t=0.64
0.010980948403781917
% es.normE (V/m) @ t=0.66
13.49475225005538
% es.EX (V/m) @ t=0.66
-7.498215616760723
% es.EY (V/m) @ t=0.66
-0.8093786075968987
% es.EZ (V/m) @ t=0.66
10.040083844061863
% es.tEX (V/m) @ t=0.66
-7.498215616760728
% es.tEY (V/m) @ t=0.66
0
% es.tEZ (V/m) @ t=0.66
10.040083844061858
% es.Ex (V/m) @ t=0.66
-7.498215616760723
% es.Ey (V/m) @ t=0.66
-0.8093786075968987
% es.Ez (V/m) @ t=0.66
10.040083844061863
% es.tEx (V/m) @ t=0.66
-7.498215616760728
% es.tEy (V/m) @ t=0.66
0
% es.tEz (V/m) @ t=0.66
10.040083844061858
% V (V) @ t=0.66
0.011082784113183784
% es.normE (V/m) @ t=0.68
13.618750332519827
% es.EX (V/m) @ t=0.68
-7.567113547347157
% es.EY (V/m) @ t=0.68
-0.8168158489231083
% es.EZ (V/m) @ t=0.68
10.132338395530475
% es.tEX (V/m) @ t=0.68
-7.567113547347169
% es.tEY (V/m) @ t=0.68
0
% es.tEZ (V/m) @ t=0.68
10.13233839553046
% es.Ex (V/m) @ t=0.68
-7.567113547347157
% es.Ey (V/m) @ t=0.68
-0.8168158489231083
% es.Ez (V/m) @ t=0.68
10.132338395530475
% es.tEx (V/m) @ t=0.68
-7.567113547347169
% es.tEy (V/m) @ t=0.68
0
% es.tEz (V/m) @ t=0.68
10.13233839553046
% V (V) @ t=0.68
0.01118461982258565
% es.normE (V/m) @ t=0.7
13.742748414984298
% es.EX (V/m) @ t=0.7
-7.636011477933637
% es.EY (V/m) @ t=0.7
-0.8242530902493281
% es.EZ (V/m) @ t=0.7
10.224592946999078
% es.tEX (V/m) @ t=0.7
-7.63601147793365
% es.tEY (V/m) @ t=0.7
0
% es.tEZ (V/m) @ t=0.7
10.224592946999064
% es.Ex (V/m) @ t=0.7
-7.636011477933637
% es.Ey (V/m) @ t=0.7
-0.8242530902493281
% es.Ez (V/m) @ t=0.7
10.224592946999078
% es.tEx (V/m) @ t=0.7
-7.63601147793365
% es.tEy (V/m) @ t=0.7
0
% es.tEz (V/m) @ t=0.7
10.224592946999064
% V (V) @ t=0.7
0.011286455531987516
% es.normE (V/m) @ t=0.72
13.86674649744878
% es.EX (V/m) @ t=0.72
-7.704909408520059
% es.EY (V/m) @ t=0.72
-0.8316903315755404
% es.EZ (V/m) @ t=0.72
10.316847498467707
% es.tEX (V/m) @ t=0.72
-7.7049094085200664
% es.tEY (V/m) @ t=0.72
0
% es.tEZ (V/m) @ t=0.72
10.316847498467688
% es.Ex (V/m) @ t=0.72
-7.704909408520059
% es.Ey (V/m) @ t=0.72
-0.8316903315755404
% es.Ez (V/m) @ t=0.72
10.316847498467707
% es.tEx (V/m) @ t=0.72
-7.7049094085200664
% es.tEy (V/m) @ t=0.72
0
% es.tEz (V/m) @ t=0.72
10.316847498467688
% V (V) @ t=0.72
0.011388291241389379
% es.normE (V/m) @ t=0.74
13.990744579913294
% es.EX (V/m) @ t=0.74
-7.773807339106533
% es.EY (V/m) @ t=0.74
-0.8391275729017718
% es.EZ (V/m) @ t=0.74
10.409102049936322
% es.tEX (V/m) @ t=0.74
-7.773807339106538
% es.tEY (V/m) @ t=0.74
0
% es.tEZ (V/m) @ t=0.74
10.409102049936306
% es.Ex (V/m) @ t=0.74
-7.773807339106533
% es.Ey (V/m) @ t=0.74
-0.8391275729017718
% es.Ez (V/m) @ t=0.74
10.409102049936322
% es.tEx (V/m) @ t=0.74
-7.773807339106538
% es.tEy (V/m) @ t=0.74
0
% es.tEz (V/m) @ t=0.74
10.409102049936306
% V (V) @ t=0.74
0.011490126950791244
% es.normE (V/m) @ t=0.76
14.114742662377761
% es.EX (V/m) @ t=0.76
-7.842705269692969
% es.EY (V/m) @ t=0.76
-0.8465648142279769
% es.EZ (V/m) @ t=0.76
10.50135660140491
% es.tEX (V/m) @ t=0.76
-7.842705269692988
% es.tEY (V/m) @ t=0.76
0
% es.tEZ (V/m) @ t=0.76
10.5013566014049
% es.Ex (V/m) @ t=0.76
-7.842705269692969
% es.Ey (V/m) @ t=0.76
-0.8465648142279769
% es.Ez (V/m) @ t=0.76
10.50135660140491
% es.tEx (V/m) @ t=0.76
-7.842705269692988
% es.tEy (V/m) @ t=0.76
0
% es.tEz (V/m) @ t=0.76
10.5013566014049
% V (V) @ t=0.76
0.011591962660193113
% es.normE (V/m) @ t=0.78
14.238740744842287
% es.EX (V/m) @ t=0.78
-7.911603200279428
% es.EY (V/m) @ t=0.78
-0.8540020555542007
% es.EZ (V/m) @ t=0.78
10.593611152873526
% es.tEX (V/m) @ t=0.78
-7.911603200279426
% es.tEY (V/m) @ t=0.78
0
% es.tEZ (V/m) @ t=0.78
10.593611152873512
% es.Ex (V/m) @ t=0.78
-7.911603200279428
% es.Ey (V/m) @ t=0.78
-0.8540020555542007
% es.Ez (V/m) @ t=0.78
10.593611152873526
% es.tEx (V/m) @ t=0.78
-7.911603200279426
% es.tEy (V/m) @ t=0.78
0
% es.tEz (V/m) @ t=0.78
10.593611152873512
% V (V) @ t=0.78
0.01169379836959498
% es.normE (V/m) @ t=0.8
14.364732005737675
% es.EX (V/m) @ t=0.8
-7.98160867132208
% es.EY (V/m) @ t=0.8
-0.8615588107325594
% es.EZ (V/m) @ t=0.8
10.687348611591123
% es.tEX (V/m) @ t=0.8
-7.9816086713220855
% es.tEY (V/m) @ t=0.8
0
% es.tEZ (V/m) @ t=0.8
10.687348611591117
% es.Ex (V/m) @ t=0.8
-7.98160867132208
% es.Ey (V/m) @ t=0.8
-0.8615588107325594
% es.Ez (V/m) @ t=0.8
10.687348611591123
% es.tEx (V/m) @ t=0.8
-7.9816086713220855
% es.tEy (V/m) @ t=0.8
0
% es.tEz (V/m) @ t=0.8
10.687348611591117
% V (V) @ t=0.8
0.01179727095937982
% es.normE (V/m) @ t=0.82
14.502961147232151
% es.EX (V/m) @ t=0.82
-8.058414310203036
% es.EY (V/m) @ t=0.82
-0.869849366874127
% es.EZ (V/m) @ t=0.82
10.79019094600459
% es.tEX (V/m) @ t=0.82
-8.058414310203034
% es.tEY (V/m) @ t=0.82
0
% es.tEZ (V/m) @ t=0.82
10.790190946004575
% es.Ex (V/m) @ t=0.82
-8.058414310203036
% es.Ey (V/m) @ t=0.82
-0.869849366874127
% es.Ez (V/m) @ t=0.82
10.79019094600459
% es.tEx (V/m) @ t=0.82
-8.058414310203034
% es.tEy (V/m) @ t=0.82
0
% es.tEz (V/m) @ t=0.82
10.790190946004575
% V (V) @ t=0.82
0.011910793801751978
% es.normE (V/m) @ t=0.84
14.641190288726618
% es.EX (V/m) @ t=0.84
-8.135219949084
% es.EY (V/m) @ t=0.84
-0.8781399230156914
% es.EZ (V/m) @ t=0.84
10.893033280418038
% es.tEX (V/m) @ t=0.84
-8.135219949084027
% es.tEY (V/m) @ t=0.84
0
% es.tEZ (V/m) @ t=0.84
10.89303328041802
% es.Ex (V/m) @ t=0.84
-8.135219949084
% es.Ey (V/m) @ t=0.84
-0.8781399230156914
% es.Ez (V/m) @ t=0.84
10.893033280418038
% es.tEx (V/m) @ t=0.84
-8.135219949084027
% es.tEy (V/m) @ t=0.84
0
% es.tEz (V/m) @ t=0.84
10.89303328041802
% V (V) @ t=0.84
0.012024316644124138
% es.normE (V/m) @ t=0.86
14.779419430221079
% es.EX (V/m) @ t=0.86
-8.212025587964956
% es.EY (V/m) @ t=0.86
-0.8864304791572564
% es.EZ (V/m) @ t=0.86
10.995875614831489
% es.tEX (V/m) @ t=0.86
-8.212025587964968
% es.tEY (V/m) @ t=0.86
0
% es.tEZ (V/m) @ t=0.86
10.99587561483147
% es.Ex (V/m) @ t=0.86
-8.212025587964956
% es.Ey (V/m) @ t=0.86
-0.8864304791572564
% es.Ez (V/m) @ t=0.86
10.995875614831489
% es.tEx (V/m) @ t=0.86
-8.212025587964968
% es.tEy (V/m) @ t=0.86
0
% es.tEz (V/m) @ t=0.86
10.99587561483147
% V (V) @ t=0.86
0.012137839486496297
% es.normE (V/m) @ t=0.88
14.91764857171553
% es.EX (V/m) @ t=0.88
-8.288831226845948
% es.EY (V/m) @ t=0.88
-0.8947210352988031
% es.EZ (V/m) @ t=0.88
11.098717949244909
% es.tEX (V/m) @ t=0.88
-8.288831226845982
% es.tEY (V/m) @ t=0.88
0
% es.tEZ (V/m) @ t=0.88
11.098717949244897
% es.Ex (V/m) @ t=0.88
-8.288831226845948
% es.Ey (V/m) @ t=0.88
-0.8947210352988031
% es.Ez (V/m) @ t=0.88
11.098717949244909
% es.tEx (V/m) @ t=0.88
-8.288831226845982
% es.tEy (V/m) @ t=0.88
0
% es.tEz (V/m) @ t=0.88
11.098717949244897
% V (V) @ t=0.88
0.012251362328868455
% es.normE (V/m) @ t=0.9
15.05587771321001
% es.EX (V/m) @ t=0.9
-8.36563686572691
% es.EY (V/m) @ t=0.9
-0.9030115914403392
% es.EZ (V/m) @ t=0.9
11.201560283658372
% es.tEX (V/m) @ t=0.9
-8.365636865726929
% es.tEY (V/m) @ t=0.9
0
% es.tEZ (V/m) @ t=0.9
11.201560283658353
% es.Ex (V/m) @ t=0.9
-8.36563686572691
% es.Ey (V/m) @ t=0.9
-0.9030115914403392
% es.Ez (V/m) @ t=0.9
11.201560283658372
% es.tEx (V/m) @ t=0.9
-8.365636865726929
% es.tEy (V/m) @ t=0.9
0
% es.tEz (V/m) @ t=0.9
11.201560283658353
% V (V) @ t=0.9
0.012364885171240618
% es.normE (V/m) @ t=0.92
15.194106854704486
% es.EX (V/m) @ t=0.92
-8.44244250460788
% es.EY (V/m) @ t=0.92
-0.9113021475818788
% es.EZ (V/m) @ t=0.92
11.304402618071833
% es.tEX (V/m) @ t=0.92
-8.4424425046079
% es.tEY (V/m) @ t=0.92
0
% es.tEZ (V/m) @ t=0.92
11.304402618071816
% es.Ex (V/m) @ t=0.92
-8.44244250460788
% es.Ey (V/m) @ t=0.92
-0.9113021475818788
% es.Ez (V/m) @ t=0.92
11.304402618071833
% es.tEx (V/m) @ t=0.92
-8.4424425046079
% es.tEy (V/m) @ t=0.92
0
% es.tEz (V/m) @ t=0.92
11.304402618071816
% V (V) @ t=0.92
0.012478408013612777
% es.normE (V/m) @ t=0.94
15.332335996198942
% es.EX (V/m) @ t=0.94
-8.519248143488852
% es.EY (V/m) @ t=0.94
-0.9195927037234539
% es.EZ (V/m) @ t=0.94
11.407244952485248
% es.tEX (V/m) @ t=0.94
-8.519248143488879
% es.tEY (V/m) @ t=0.94
0
% es.tEZ (V/m) @ t=0.94
11.407244952485232
% es.Ex (V/m) @ t=0.94
-8.519248143488852
% es.Ey (V/m) @ t=0.94
-0.9195927037234539
% es.Ez (V/m) @ t=0.94
11.407244952485248
% es.tEx (V/m) @ t=0.94
-8.519248143488879
% es.tEy (V/m) @ t=0.94
0
% es.tEz (V/m) @ t=0.94
11.407244952485232
% V (V) @ t=0.94
0.012591930855984939
% es.normE (V/m) @ t=0.96
15.470565137693406
% es.EX (V/m) @ t=0.96
-8.596053782369822
% es.EY (V/m) @ t=0.96
-0.927883259865022
% es.EZ (V/m) @ t=0.96
11.510087286898685
% es.tEX (V/m) @ t=0.96
-8.596053782369834
% es.tEY (V/m) @ t=0.96
0
% es.tEZ (V/m) @ t=0.96
11.510087286898663
% es.Ex (V/m) @ t=0.96
-8.596053782369822
% es.Ey (V/m) @ t=0.96
-0.927883259865022
% es.Ez (V/m) @ t=0.96
11.510087286898685
% es.tEx (V/m) @ t=0.96
-8.596053782369834
% es.tEy (V/m) @ t=0.96
0
% es.tEz (V/m) @ t=0.96
11.510087286898663
% V (V) @ t=0.96
0.012705453698357098
% es.normE (V/m) @ t=0.98
15.608794279187904
% es.EX (V/m) @ t=0.98
-8.672859421250799
% es.EY (V/m) @ t=0.98
-0.9361738160065651
% es.EZ (V/m) @ t=0.98
11.612929621312155
% es.tEX (V/m) @ t=0.98
-8.672859421250797
% es.tEY (V/m) @ t=0.98
0
% es.tEZ (V/m) @ t=0.98
11.612929621312134
% es.Ex (V/m) @ t=0.98
-8.672859421250799
% es.Ey (V/m) @ t=0.98
-0.9361738160065651
% es.Ez (V/m) @ t=0.98
11.612929621312155
% es.tEx (V/m) @ t=0.98
-8.672859421250797
% es.tEy (V/m) @ t=0.98
0
% es.tEz (V/m) @ t=0.98
11.612929621312134
% V (V) @ t=0.98
0.012818976540729256
% es.normE (V/m) @ t=1
15.747023420682385
% es.EX (V/m) @ t=1
-8.749665060131761
% es.EY (V/m) @ t=1
-0.9444643721481296
% es.EZ (V/m) @ t=1
11.715771955725602
% es.tEX (V/m) @ t=1
-8.74966506013178
% es.tEY (V/m) @ t=1
0
% es.tEZ (V/m) @ t=1
11.71577195572559
% es.Ex (V/m) @ t=1
-8.749665060131761
% es.Ey (V/m) @ t=1
-0.9444643721481296
% es.Ez (V/m) @ t=1
11.715771955725602
% es.tEx (V/m) @ t=1
-8.74966506013178
% es.tEy (V/m) @ t=1
0
% es.tEz (V/m) @ t=1
11.71577195572559
% V (V) @ t=1
0.012932499383101419
% es.normE (V/m) @ t=1.02
15.88525256217686
% es.EX (V/m) @ t=1.02
-8.826470699012711
% es.EY (V/m) @ t=1.02
-0.9527549282896799
% es.EZ (V/m) @ t=1.02
11.81861429013906
% es.tEX (V/m) @ t=1.02
-8.826470699012738
% es.tEY (V/m) @ t=1.02
0
% es.tEZ (V/m) @ t=1.02
11.818614290139035
% es.Ex (V/m) @ t=1.02
-8.826470699012711
% es.Ey (V/m) @ t=1.02
-0.9527549282896799
% es.Ez (V/m) @ t=1.02
11.81861429013906
% es.tEx (V/m) @ t=1.02
-8.826470699012738
% es.tEy (V/m) @ t=1.02
0
% es.tEz (V/m) @ t=1.02
11.818614290139035
% V (V) @ t=1.02
0.013046022225473575
% es.normE (V/m) @ t=1.04
16.02348170367133
% es.EX (V/m) @ t=1.04
-8.903276337893688
% es.EY (V/m) @ t=1.04
-0.9610454844312586
% es.EZ (V/m) @ t=1.04
11.92145662455249
% es.tEX (V/m) @ t=1.04
-8.9032763378937
% es.tEY (V/m) @ t=1.04
0
% es.tEZ (V/m) @ t=1.04
11.921456624552485
% es.Ex (V/m) @ t=1.04
-8.903276337893688
% es.Ey (V/m) @ t=1.04
-0.9610454844312586
% es.Ez (V/m) @ t=1.04
11.92145662455249
% es.tEx (V/m) @ t=1.04
-8.9032763378937
% es.tEy (V/m) @ t=1.04
0
% es.tEz (V/m) @ t=1.04