% Model:              1 neuron.mph
% Version:            COMSOL 6.1.0.252
% Date:               Mar 22 2023, 20:03
% Dimension:          0
% Nodes:              14017
% Expressions:        14017
% Description:        Electric field norm, Electric field, X component, Electric field, Y component, Electric field, Z component, Tangential electric field, X component, Tangential electric field, Y component, Tangential electric field, Z component, Electric field, x component, Electric field, y component, Electric field, z component, Tangential electric field, x component, Tangential electric field, y component, Tangential electric field, z component, Electric potential
% Length unit:        mm
% x
1.3300000000000003
% y
12.200000000000001
% z
1.66
% es.normE (V/m) @ t=0
11.039685580570762
% es.EX (V/m) @ t=0
7.005778801072712
% es.EY (V/m) @ t=0
2.0949723431813245
% es.EZ (V/m) @ t=0
-7.673906373846126
% es.tEX (V/m) @ t=0
7.0057788010726965
% es.tEY (V/m) @ t=0
0
% es.tEZ (V/m) @ t=0
-7.673906373846105
% es.Ex (V/m) @ t=0
7.005778801072712
% es.Ey (V/m) @ t=0
2.0949723431813245
% es.Ez (V/m) @ t=0
-7.673906373846126
% es.tEx (V/m) @ t=0
7.0057788010726965
% es.tEy (V/m) @ t=0
0
% es.tEz (V/m) @ t=0
-7.673906373846105
% V (V) @ t=0
0.009456356535428326
% es.normE (V/m) @ t=0.02
9.535129086538959
% es.EX (V/m) @ t=0.02
6.050988022533141
% es.EY (V/m) @ t=0.02
1.8094565829176394
% es.EZ (V/m) @ t=0.02
-6.628059045560693
% es.tEX (V/m) @ t=0.02
6.050988022533133
% es.tEY (V/m) @ t=0.02
0
% es.tEZ (V/m) @ t=0.02
-6.628059045560686
% es.Ex (V/m) @ t=0.02
6.050988022533141
% es.Ey (V/m) @ t=0.02
1.8094565829176394
% es.Ez (V/m) @ t=0.02
-6.628059045560693
% es.tEx (V/m) @ t=0.02
6.050988022533133
% es.tEy (V/m) @ t=0.02
0
% es.tEz (V/m) @ t=0.02
-6.628059045560686
% V (V) @ t=0.02
0.008167585892054775
% es.normE (V/m) @ t=0.04
9.622881339257702
% es.EX (V/m) @ t=0.04
6.106675556977789
% es.EY (V/m) @ t=0.04
1.8261090957639796
% es.EZ (V/m) @ t=0.04
-6.689057392551232
% es.tEX (V/m) @ t=0.04
6.1066755569777795
% es.tEY (V/m) @ t=0.04
0
% es.tEZ (V/m) @ t=0.04
-6.689057392551218
% es.Ex (V/m) @ t=0.04
6.106675556977789
% es.Ey (V/m) @ t=0.04
1.8261090957639796
% es.Ez (V/m) @ t=0.04
-6.689057392551232
% es.tEx (V/m) @ t=0.04
6.1066755569777795
% es.tEy (V/m) @ t=0.04
0
% es.tEz (V/m) @ t=0.04
-6.689057392551218
% V (V) @ t=0.04
0.008242752586570302
% es.normE (V/m) @ t=0.06
9.7113256031434
% es.EX (V/m) @ t=0.06
6.162802241044996
% es.EY (V/m) @ t=0.06
1.8428929177501976
% es.EZ (V/m) @ t=0.06
-6.750536770449669
% es.tEX (V/m) @ t=0.06
6.162802241044984
% es.tEY (V/m) @ t=0.06
0
% es.tEZ (V/m) @ t=0.06
-6.750536770449655
% es.Ex (V/m) @ t=0.06
6.162802241044996
% es.Ey (V/m) @ t=0.06
1.8428929177501976
% es.Ez (V/m) @ t=0.06
-6.750536770449669
% es.tEx (V/m) @ t=0.06
6.162802241044984
% es.tEy (V/m) @ t=0.06
0
% es.tEz (V/m) @ t=0.06
-6.750536770449655
% V (V) @ t=0.06
0.00831851207147515
% es.normE (V/m) @ t=0.08
9.801349064974858
% es.EX (V/m) @ t=0.08
6.219931083651202
% es.EY (V/m) @ t=0.08
1.8599764334443325
% es.EZ (V/m) @ t=0.08
-6.813113880338552
% es.tEX (V/m) @ t=0.08
6.219931083651198
% es.tEY (V/m) @ t=0.08
0
% es.tEZ (V/m) @ t=0.08
-6.813113880338538
% es.Ex (V/m) @ t=0.08
6.219931083651202
% es.Ey (V/m) @ t=0.08
1.8599764334443325
% es.Ez (V/m) @ t=0.08
-6.813113880338552
% es.tEx (V/m) @ t=0.08
6.219931083651198
% es.tEy (V/m) @ t=0.08
0
% es.tEz (V/m) @ t=0.08
-6.813113880338538
% V (V) @ t=0.08
0.008395624231520148
% es.normE (V/m) @ t=0.1
9.891993550612035
% es.EX (V/m) @ t=0.1
6.277454027776808
% es.EY (V/m) @ t=0.1
1.8771778044887641
% es.EZ (V/m) @ t=0.1
-6.876122676261586
% es.tEX (V/m) @ t=0.1
6.2774540277767965
% es.tEY (V/m) @ t=0.1
0
% es.tEZ (V/m) @ t=0.1
-6.876122676261565
% es.Ex (V/m) @ t=0.1
6.277454027776808
% es.Ey (V/m) @ t=0.1
1.8771778044887641
% es.Ez (V/m) @ t=0.1
-6.876122676261586
% es.tEx (V/m) @ t=0.1
6.2774540277767965
% es.tEy (V/m) @ t=0.1
0
% es.tEz (V/m) @ t=0.1
-6.876122676261565
% V (V) @ t=0.1
0.008473268334673153
% es.normE (V/m) @ t=0.12
9.98263803624922
% es.EX (V/m) @ t=0.12
6.334976971902421
% es.EY (V/m) @ t=0.12
1.8943791755331576
% es.EZ (V/m) @ t=0.12
-6.93913147218462
% es.tEX (V/m) @ t=0.12
6.33497697190241
% es.tEY (V/m) @ t=0.12
0
% es.tEZ (V/m) @ t=0.12
-6.939131472184606
% es.Ex (V/m) @ t=0.12
6.334976971902421
% es.Ey (V/m) @ t=0.12
1.8943791755331576
% es.Ez (V/m) @ t=0.12
-6.93913147218462
% es.tEx (V/m) @ t=0.12
6.33497697190241
% es.tEy (V/m) @ t=0.12
0
% es.tEz (V/m) @ t=0.12
-6.939131472184606
% V (V) @ t=0.12
0.00855091243782616
% es.normE (V/m) @ t=0.14
10.075349984896214
% es.EX (V/m) @ t=0.14
6.3938119271103595
% es.EY (V/m) @ t=0.14
1.9119728890158423
% es.EZ (V/m) @ t=0.14
-7.0035774029865605
% es.tEX (V/m) @ t=0.14
6.393811927110341
% es.tEY (V/m) @ t=0.14
0
% es.tEZ (V/m) @ t=0.14
-7.003577402986538
% es.Ex (V/m) @ t=0.14
6.3938119271103595
% es.Ey (V/m) @ t=0.14
1.9119728890158423
% es.Ez (V/m) @ t=0.14
-7.0035774029865605
% es.tEx (V/m) @ t=0.14
6.393811927110341
% es.tEy (V/m) @ t=0.14
0
% es.tEz (V/m) @ t=0.14
-7.003577402986538
% V (V) @ t=0.14
0.008630327472672825
% es.normE (V/m) @ t=0.16
10.170639643782636
% es.EX (V/m) @ t=0.16
6.454282696059665
% es.EY (V/m) @ t=0.16
1.9300557745493476
% es.EZ (V/m) @ t=0.16
-7.069815151719535
% es.tEX (V/m) @ t=0.16
6.4542826960596535
% es.tEY (V/m) @ t=0.16
0
% es.tEZ (V/m) @ t=0.16
-7.06981515171952
% es.Ex (V/m) @ t=0.16
6.454282696059665
% es.Ey (V/m) @ t=0.16
1.9300557745493476
% es.Ez (V/m) @ t=0.16
-7.069815151719535
% es.tEx (V/m) @ t=0.16
6.4542826960596535
% es.tEy (V/m) @ t=0.16
0
% es.tEz (V/m) @ t=0.16
-7.06981515171952
% V (V) @ t=0.16
0.008711950502892777
% es.normE (V/m) @ t=0.18
10.265929302669083
% es.EX (V/m) @ t=0.18
6.514753465008978
% es.EY (V/m) @ t=0.18
1.9481386600829103
% es.EZ (V/m) @ t=0.18
-7.13605290045253
% es.tEX (V/m) @ t=0.18
6.514753465008966
% es.tEY (V/m) @ t=0.18
0
% es.tEZ (V/m) @ t=0.18
-7.1360529004525155
% es.Ex (V/m) @ t=0.18
6.514753465008978
% es.Ey (V/m) @ t=0.18
1.9481386600829103
% es.Ez (V/m) @ t=0.18
-7.13605290045253
% es.tEx (V/m) @ t=0.18
6.514753465008966
% es.tEy (V/m) @ t=0.18
0
% es.tEz (V/m) @ t=0.18
-7.1360529004525155
% V (V) @ t=0.18
0.008793573533112728
% es.normE (V/m) @ t=0.2
10.361218961555531
% es.EX (V/m) @ t=0.2
6.575224233958284
% es.EY (V/m) @ t=0.2
1.966221545616441
% es.EZ (V/m) @ t=0.2
-7.202290649185532
% es.tEX (V/m) @ t=0.2
6.575224233958266
% es.tEY (V/m) @ t=0.2
0
% es.tEZ (V/m) @ t=0.2
-7.202290649185517
% es.Ex (V/m) @ t=0.2
6.575224233958284
% es.Ey (V/m) @ t=0.2
1.966221545616441
% es.Ez (V/m) @ t=0.2
-7.202290649185532
% es.tEx (V/m) @ t=0.2
6.575224233958266
% es.tEy (V/m) @ t=0.2
0
% es.tEz (V/m) @ t=0.2
-7.202290649185517
% V (V) @ t=0.2
0.00887519656333268
% es.normE (V/m) @ t=0.22
10.456508620441987
% es.EX (V/m) @ t=0.22
6.635695002907596
% es.EY (V/m) @ t=0.22
1.9843044311499645
% es.EZ (V/m) @ t=0.22
-7.268528397918532
% es.tEX (V/m) @ t=0.22
6.635695002907585
% es.tEY (V/m) @ t=0.22
0
% es.tEZ (V/m) @ t=0.22
-7.268528397918517
% es.Ex (V/m) @ t=0.22
6.635695002907596
% es.Ey (V/m) @ t=0.22
1.9843044311499645
% es.Ez (V/m) @ t=0.22
-7.268528397918532
% es.tEx (V/m) @ t=0.22
6.635695002907585
% es.tEy (V/m) @ t=0.22
0
% es.tEz (V/m) @ t=0.22
-7.268528397918517
% V (V) @ t=0.22
0.00895681959355263
% es.normE (V/m) @ t=0.24
10.551798279328434
% es.EX (V/m) @ t=0.24
6.6961657718569025
% es.EY (V/m) @ t=0.24
2.0023873166835084
% es.EZ (V/m) @ t=0.24
-7.33476614665153
% es.tEX (V/m) @ t=0.24
6.696165771856885
% es.tEY (V/m) @ t=0.24
0
% es.tEZ (V/m) @ t=0.24
-7.334766146651516
% es.Ex (V/m) @ t=0.24
6.6961657718569025
% es.Ey (V/m) @ t=0.24
2.0023873166835084
% es.Ez (V/m) @ t=0.24
-7.33476614665153
% es.tEx (V/m) @ t=0.24
6.696165771856885
% es.tEy (V/m) @ t=0.24
0
% es.tEz (V/m) @ t=0.24
-7.334766146651516
% V (V) @ t=0.24
0.009038442623772581
% es.normE (V/m) @ t=0.26
10.647087938214867
% es.EX (V/m) @ t=0.26
6.756636540806216
% es.EY (V/m) @ t=0.26
2.020470202217039
% es.EZ (V/m) @ t=0.26
-7.401003895384508
% es.tEX (V/m) @ t=0.26
6.75663654080619
% es.tEY (V/m) @ t=0.26
0
% es.tEZ (V/m) @ t=0.26
-7.401003895384486
% es.Ex (V/m) @ t=0.26
6.756636540806216
% es.Ey (V/m) @ t=0.26
2.020470202217039
% es.Ez (V/m) @ t=0.26
-7.401003895384508
% es.tEx (V/m) @ t=0.26
6.75663654080619
% es.tEy (V/m) @ t=0.26
0
% es.tEz (V/m) @ t=0.26
-7.401003895384486
% V (V) @ t=0.26
0.00912006565399253
% es.normE (V/m) @ t=0.28
10.75174021328935
% es.EX (V/m) @ t=0.28
6.823048739348092
% es.EY (V/m) @ t=0.28
2.040326449583681
% es.EZ (V/m) @ t=0.28
-7.473749811292997
% es.tEX (V/m) @ t=0.28
6.823048739348077
% es.tEY (V/m) @ t=0.28
0
% es.tEZ (V/m) @ t=0.28
-7.473749811292989
% es.Ex (V/m) @ t=0.28
6.823048739348092
% es.Ey (V/m) @ t=0.28
2.040326449583681
% es.Ez (V/m) @ t=0.28
-7.473749811292997
% es.tEx (V/m) @ t=0.28
6.823048739348077
% es.tEy (V/m) @ t=0.28
0
% es.tEz (V/m) @ t=0.28
-7.473749811292989
% V (V) @ t=0.28
0.009209716415835276
% es.normE (V/m) @ t=0.3
10.85743574721016
% es.EX (V/m) @ t=0.3
6.89012298029851
% es.EY (V/m) @ t=0.3
2.0603802993490725
% es.EZ (V/m) @ t=0.3
-7.54722092012097
% es.tEX (V/m) @ t=0.3
6.890122980298488
% es.tEY (V/m) @ t=0.3
0
% es.tEZ (V/m) @ t=0.3
-7.547220920120948
% es.Ex (V/m) @ t=0.3
6.89012298029851
% es.Ey (V/m) @ t=0.3
2.0603802993490725
% es.Ez (V/m) @ t=0.3
-7.54722092012097
% es.tEx (V/m) @ t=0.3
6.890122980298488
% es.tEy (V/m) @ t=0.3
0
% es.tEz (V/m) @ t=0.3
-7.547220920120948
% V (V) @ t=0.3
0.009300261692827263
% es.normE (V/m) @ t=0.32
10.9631312811328
% es.EX (V/m) @ t=0.32
6.95719722124895
% es.EY (V/m) @ t=0.32
2.0804341491144256
% es.EZ (V/m) @ t=0.32
-7.620692028948918
% es.tEX (V/m) @ t=0.32
6.957197221248935
% es.tEY (V/m) @ t=0.32
0
% es.tEZ (V/m) @ t=0.32
-7.620692028948897
% es.Ex (V/m) @ t=0.32
6.95719722124895
% es.Ey (V/m) @ t=0.32
2.0804341491144256
% es.Ez (V/m) @ t=0.32
-7.620692028948918
% es.tEx (V/m) @ t=0.32
6.957197221248935
% es.tEy (V/m) @ t=0.32
0
% es.tEz (V/m) @ t=0.32
-7.620692028948897
% V (V) @ t=0.32
0.00939080696981925
% es.normE (V/m) @ t=0.34
11.068826815057246
% es.EX (V/m) @ t=0.34
7.024271462199396
% es.EY (V/m) @ t=0.34
2.100487998879814
% es.EZ (V/m) @ t=0.34
-7.694163137776874
% es.tEX (V/m) @ t=0.34
7.024271462199382
% es.tEY (V/m) @ t=0.34
0
% es.tEZ (V/m) @ t=0.34
-7.69416313777686
% es.Ex (V/m) @ t=0.34
7.024271462199396
% es.Ey (V/m) @ t=0.34
2.100487998879814
% es.Ez (V/m) @ t=0.34
-7.694163137776874
% es.tEx (V/m) @ t=0.34
7.024271462199382
% es.tEy (V/m) @ t=0.34
0
% es.tEz (V/m) @ t=0.34
-7.69416313777686
% V (V) @ t=0.34
0.009481352246811235
% es.normE (V/m) @ t=0.36
11.174522348983409
% es.EX (V/m) @ t=0.36
7.091345703149793
% es.EY (V/m) @ t=0.36
2.1205418486451815
% es.EZ (V/m) @ t=0.36
-7.76763424660483
% es.tEX (V/m) @ t=0.36
7.091345703149793
% es.tEY (V/m) @ t=0.36
0
% es.tEZ (V/m) @ t=0.36
-7.767634246604815
% es.Ex (V/m) @ t=0.36
7.091345703149793
% es.Ey (V/m) @ t=0.36
2.1205418486451815
% es.Ez (V/m) @ t=0.36
-7.76763424660483
% es.tEx (V/m) @ t=0.36
7.091345703149793
% es.tEy (V/m) @ t=0.36
0
% es.tEz (V/m) @ t=0.36
-7.767634246604815
% V (V) @ t=0.36
0.009571897523803226
% es.normE (V/m) @ t=0.38
11.28021788291132
% es.EX (V/m) @ t=0.38
7.158419944100247
% es.EY (V/m) @ t=0.38
2.140595698410559
% es.EZ (V/m) @ t=0.38
-7.841105355432811
% es.tEX (V/m) @ t=0.38
7.158419944100226
% es.tEY (V/m) @ t=0.38
0
% es.tEZ (V/m) @ t=0.38
-7.841105355432795
% es.Ex (V/m) @ t=0.38
7.158419944100247
% es.Ey (V/m) @ t=0.38
2.140595698410559
% es.Ez (V/m) @ t=0.38
-7.841105355432811
% es.tEx (V/m) @ t=0.38
7.158419944100226
% es.tEy (V/m) @ t=0.38
0
% es.tEz (V/m) @ t=0.38
-7.841105355432795
% V (V) @ t=0.38
0.009662442800795212
% es.normE (V/m) @ t=0.4
11.38591341684084
% es.EX (V/m) @ t=0.4
7.225494185050673
% es.EY (V/m) @ t=0.4
2.160649548175937
% es.EZ (V/m) @ t=0.4
-7.914576464260776
% es.tEX (V/m) @ t=0.4
7.225494185050659
% es.tEY (V/m) @ t=0.4
0
% es.tEZ (V/m) @ t=0.4
-7.914576464260762
% es.Ex (V/m) @ t=0.4
7.225494185050673
% es.Ey (V/m) @ t=0.4
2.160649548175937
% es.Ez (V/m) @ t=0.4
-7.914576464260776
% es.tEx (V/m) @ t=0.4
7.225494185050659
% es.tEy (V/m) @ t=0.4
0
% es.tEz (V/m) @ t=0.4
-7.914576464260762
% V (V) @ t=0.4
0.0097529880777872
% es.normE (V/m) @ t=0.42
11.491608950771955
% es.EX (V/m) @ t=0.42
7.292568426001106
% es.EY (V/m) @ t=0.42
2.1807033979413006
% es.EZ (V/m) @ t=0.42
-7.988047573088718
% es.tEX (V/m) @ t=0.42
7.292568426001091
% es.tEY (V/m) @ t=0.42
0
% es.tEZ (V/m) @ t=0.42
-7.988047573088696
% es.Ex (V/m) @ t=0.42
7.292568426001106
% es.Ey (V/m) @ t=0.42
2.1807033979413006
% es.Ez (V/m) @ t=0.42
-7.988047573088718
% es.tEx (V/m) @ t=0.42
7.292568426001091
% es.tEy (V/m) @ t=0.42
0
% es.tEz (V/m) @ t=0.42
-7.988047573088696
% V (V) @ t=0.42
0.009843533354779187
% es.normE (V/m) @ t=0.44
11.59730448470464
% es.EX (V/m) @ t=0.44
7.359642666951531
% es.EY (V/m) @ t=0.44
2.200757247706693
% es.EZ (V/m) @ t=0.44
-8.061518681916688
% es.tEX (V/m) @ t=0.44
7.359642666951523
% es.tEY (V/m) @ t=0.44
0
% es.tEZ (V/m) @ t=0.44
-8.06151868191668
% es.Ex (V/m) @ t=0.44
7.359642666951531
% es.Ey (V/m) @ t=0.44
2.200757247706693
% es.Ez (V/m) @ t=0.44
-8.061518681916688
% es.tEx (V/m) @ t=0.44
7.359642666951523
% es.tEy (V/m) @ t=0.44
0
% es.tEz (V/m) @ t=0.44
-8.06151868191668
% V (V) @ t=0.44
0.009934078631771173
% es.normE (V/m) @ t=0.46
11.703000018638848
% es.EX (V/m) @ t=0.46
7.426716907901962
% es.EY (V/m) @ t=0.46
2.2208110974720565
% es.EZ (V/m) @ t=0.46
-8.134989790744664
% es.tEX (V/m) @ t=0.46
7.426716907901941
% es.tEY (V/m) @ t=0.46
0
% es.tEZ (V/m) @ t=0.46
-8.13498979074465
% es.Ex (V/m) @ t=0.46
7.426716907901962
% es.Ey (V/m) @ t=0.46
2.2208110974720565
% es.Ez (V/m) @ t=0.46
-8.134989790744664
% es.tEx (V/m) @ t=0.46
7.426716907901941
% es.tEy (V/m) @ t=0.46
0
% es.tEz (V/m) @ t=0.46
-8.13498979074465
% V (V) @ t=0.46
0.01002462390876316
% es.normE (V/m) @ t=0.48
11.808695552574537
% es.EX (V/m) @ t=0.48
7.49379114885242
% es.EY (V/m) @ t=0.48
2.240864947237438
% es.EZ (V/m) @ t=0.48
-8.20846089957262
% es.tEX (V/m) @ t=0.48
7.493791148852388
% es.tEY (V/m) @ t=0.48
0
% es.tEZ (V/m) @ t=0.48
-8.208460899572598
% es.Ex (V/m) @ t=0.48
7.49379114885242
% es.Ey (V/m) @ t=0.48
2.240864947237438
% es.Ez (V/m) @ t=0.48
-8.20846089957262
% es.tEx (V/m) @ t=0.48
7.493791148852388
% es.tEy (V/m) @ t=0.48
0
% es.tEz (V/m) @ t=0.48
-8.208460899572598
% V (V) @ t=0.48
0.010115169185755148
% es.normE (V/m) @ t=0.5
11.914391086511632
% es.EX (V/m) @ t=0.5
7.560865389802835
% es.EY (V/m) @ t=0.5
2.260918797002791
% es.EZ (V/m) @ t=0.5
-8.281932008400585
% es.tEX (V/m) @ t=0.5
7.56086538980282
% es.tEY (V/m) @ t=0.5
0
% es.tEZ (V/m) @ t=0.5
-8.281932008400563
% es.Ex (V/m) @ t=0.5
7.560865389802835
% es.Ey (V/m) @ t=0.5
2.260918797002791
% es.Ez (V/m) @ t=0.5
-8.281932008400585
% es.tEx (V/m) @ t=0.5
7.56086538980282
% es.tEy (V/m) @ t=0.5
0
% es.tEz (V/m) @ t=0.5
-8.281932008400563
% V (V) @ t=0.5
0.010205714462747135
% es.normE (V/m) @ t=0.52
12.02008662045014
% es.EX (V/m) @ t=0.52
7.627939630753282
% es.EY (V/m) @ t=0.52
2.280972646768187
% es.EZ (V/m) @ t=0.52
-8.35540311722853
% es.tEX (V/m) @ t=0.52
7.62793963075326
% es.tEY (V/m) @ t=0.52
0
% es.tEZ (V/m) @ t=0.52
-8.355403117228509
% es.Ex (V/m) @ t=0.52
7.627939630753282
% es.Ey (V/m) @ t=0.52
2.280972646768187
% es.Ez (V/m) @ t=0.52
-8.35540311722853
% es.tEx (V/m) @ t=0.52
7.62793963075326
% es.tEy (V/m) @ t=0.52
0
% es.tEz (V/m) @ t=0.52
-8.355403117228509
% V (V) @ t=0.52
0.010296259739739123
% es.normE (V/m) @ t=0.54
12.135275435658702
% es.EX (V/m) @ t=0.54
7.701038198934936
% es.EY (V/m) @ t=0.54
2.302823800026654
% es.EZ (V/m) @ t=0.54
-8.435473229582245
% es.tEX (V/m) @ t=0.54
7.7010381989349135
% es.tEY (V/m) @ t=0.54
0
% es.tEZ (V/m) @ t=0.54
-8.435473229582222
% es.Ex (V/m) @ t=0.54
7.701038198934936
% es.Ey (V/m) @ t=0.54
2.302823800026654
% es.Ez (V/m) @ t=0.54
-8.435473229582245
% es.tEx (V/m) @ t=0.54
7.7010381989349135
% es.tEy (V/m) @ t=0.54
0
% es.tEz (V/m) @ t=0.54
-8.435473229582222
% V (V) @ t=0.54
0.010394946690985238
% es.normE (V/m) @ t=0.56
12.25270447709632
% es.EX (V/m) @ t=0.56
7.775558388940045
% es.EY (V/m) @ t=0.56
2.3250990812866617
% es.EZ (V/m) @ t=0.56
-8.51710057597472
% es.tEX (V/m) @ t=0.56
7.775558388940031
% es.tEY (V/m) @ t=0.56
0
% es.tEZ (V/m) @ t=0.56
-8.517100575974696
% es.Ex (V/m) @ t=0.56
7.775558388940045
% es.Ey (V/m) @ t=0.56
2.3250990812866617
% es.Ez (V/m) @ t=0.56
-8.51710057597472
% es.tEx (V/m) @ t=0.56
7.775558388940031
% es.tEy (V/m) @ t=0.56
0
% es.tEz (V/m) @ t=0.56
-8.517100575974696
% V (V) @ t=0.56
0.010495554915986013
% es.normE (V/m) @ t=0.58
12.37013351854235
% es.EX (V/m) @ t=0.58
7.8500785789451415
% es.EY (V/m) @ t=0.58
2.3473743625467076
% es.EZ (V/m) @ t=0.58
-8.598727922367122
% es.tEX (V/m) @ t=0.58
7.850078578945119
% es.tEY (V/m) @ t=0.58
0
% es.tEZ (V/m) @ t=0.58
-8.598727922367107
% es.Ex (V/m) @ t=0.58
7.8500785789451415
% es.Ey (V/m) @ t=0.58
2.3473743625467076
% es.Ez (V/m) @ t=0.58
-8.598727922367122
% es.tEx (V/m) @ t=0.58
7.850078578945119
% es.tEy (V/m) @ t=0.58
0
% es.tEz (V/m) @ t=0.58
-8.598727922367107
% V (V) @ t=0.58
0.010596163140986783
% es.normE (V/m) @ t=0.6
12.487562559996666
% es.EX (V/m) @ t=0.6
7.924598768950223
% es.EY (V/m) @ t=0.6
2.369649643806712
% es.EZ (V/m) @ t=0.6
-8.680355268759616
% es.tEX (V/m) @ t=0.6
7.924598768950208
% es.tEY (V/m) @ t=0.6
0
% es.tEZ (V/m) @ t=0.6
-8.680355268759607
% es.Ex (V/m) @ t=0.6
7.924598768950223
% es.Ey (V/m) @ t=0.6
2.369649643806712
% es.Ez (V/m) @ t=0.6
-8.680355268759616
% es.tEx (V/m) @ t=0.6
7.924598768950208
% es.tEy (V/m) @ t=0.6
0
% es.tEz (V/m) @ t=0.6
-8.680355268759607
% V (V) @ t=0.6
0.01069677136598756
% es.normE (V/m) @ t=0.62
12.604991601458966
% es.EX (V/m) @ t=0.62
7.999118958955313
% es.EY (V/m) @ t=0.62
2.391924925066765
% es.EZ (V/m) @ t=0.62
-8.761982615152082
% es.tEX (V/m) @ t=0.62
7.999118958955305
% es.tEY (V/m) @ t=0.62
0
% es.tEZ (V/m) @ t=0.62
-8.76198261515206
% es.Ex (V/m) @ t=0.62
7.999118958955313
% es.Ey (V/m) @ t=0.62
2.391924925066765
% es.Ez (V/m) @ t=0.62
-8.761982615152082
% es.tEx (V/m) @ t=0.62
7.999118958955305
% es.tEy (V/m) @ t=0.62
0
% es.tEz (V/m) @ t=0.62
-8.76198261515206
% V (V) @ t=0.62
0.010797379590988334
% es.normE (V/m) @ t=0.64
12.722420642929045
% es.EX (V/m) @ t=0.64
8.073639148960414
% es.EY (V/m) @ t=0.64
2.414200206326769
% es.EZ (V/m) @ t=0.64
-8.843609961544523
% es.tEX (V/m) @ t=0.64
8.073639148960371
% es.tEY (V/m) @ t=0.64
0
% es.tEZ (V/m) @ t=0.64
-8.8436099615445
% es.Ex (V/m) @ t=0.64
8.073639148960414
% es.Ey (V/m) @ t=0.64
2.414200206326769
% es.Ez (V/m) @ t=0.64
-8.843609961544523
% es.tEx (V/m) @ t=0.64
8.073639148960371
% es.tEy (V/m) @ t=0.64
0
% es.tEz (V/m) @ t=0.64
-8.8436099615445
% V (V) @ t=0.64
0.010897987815989107
% es.normE (V/m) @ t=0.66
12.839849684406694
% es.EX (V/m) @ t=0.66
8.148159338965524
% es.EY (V/m) @ t=0.66
2.436475487586794
% es.EZ (V/m) @ t=0.66
-8.925237307936975
% es.tEX (V/m) @ t=0.66
8.148159338965502
% es.tEY (V/m) @ t=0.66
0
% es.tEZ (V/m) @ t=0.66
-8.92523730793696
% es.Ex (V/m) @ t=0.66
8.148159338965524
% es.Ey (V/m) @ t=0.66
2.436475487586794
% es.Ez (V/m) @ t=0.66
-8.925237307936975
% es.tEx (V/m) @ t=0.66
8.148159338965502
% es.tEy (V/m) @ t=0.66
0
% es.tEz (V/m) @ t=0.66
-8.92523730793696
% V (V) @ t=0.66
0.010998596040989883
% es.normE (V/m) @ t=0.68
12.957278725891683
% es.EX (V/m) @ t=0.68
8.222679528970609
% es.EY (V/m) @ t=0.68
2.4587507688468335
% es.EZ (V/m) @ t=0.68
-9.006864654329421
% es.tEX (V/m) @ t=0.68
8.222679528970598
% es.tEY (V/m) @ t=0.68
0
% es.tEZ (V/m) @ t=0.68
-9.006864654329407
% es.Ex (V/m) @ t=0.68
8.222679528970609
% es.Ey (V/m) @ t=0.68
2.4587507688468335
% es.Ez (V/m) @ t=0.68
-9.006864654329421
% es.tEx (V/m) @ t=0.68
8.222679528970598
% es.tEy (V/m) @ t=0.68
0
% es.tEz (V/m) @ t=0.68
-9.006864654329407
% V (V) @ t=0.68
0.011099204265990658
% es.normE (V/m) @ t=0.7
13.074707767383838
% es.EX (V/m) @ t=0.7
8.297199718975708
% es.EY (V/m) @ t=0.7
2.4810260501068226
% es.EZ (V/m) @ t=0.7
-9.08849200072186
% es.tEX (V/m) @ t=0.7
8.297199718975694
% es.tEY (V/m) @ t=0.7
0
% es.tEZ (V/m) @ t=0.7
-9.088492000721839
% es.Ex (V/m) @ t=0.7
8.297199718975708
% es.Ey (V/m) @ t=0.7
2.4810260501068226
% es.Ez (V/m) @ t=0.7
-9.08849200072186
% es.tEx (V/m) @ t=0.7
8.297199718975694
% es.tEy (V/m) @ t=0.7
0
% es.tEz (V/m) @ t=0.7
-9.088492000721839
% V (V) @ t=0.7
0.011199812490991432
% es.normE (V/m) @ t=0.72
13.192136808882989
% es.EX (V/m) @ t=0.72
8.371719908980797
% es.EY (V/m) @ t=0.72
2.5033013313668406
% es.EZ (V/m) @ t=0.72
-9.170119347114335
% es.tEX (V/m) @ t=0.72
8.371719908980776
% es.tEY (V/m) @ t=0.72
0
% es.tEZ (V/m) @ t=0.72
-9.170119347114314
% es.Ex (V/m) @ t=0.72
8.371719908980797
% es.Ey (V/m) @ t=0.72
2.5033013313668406
% es.Ez (V/m) @ t=0.72
-9.170119347114335
% es.tEx (V/m) @ t=0.72
8.371719908980776
% es.tEy (V/m) @ t=0.72
0
% es.tEz (V/m) @ t=0.72
-9.170119347114314
% V (V) @ t=0.72
0.011300420715992205
% es.normE (V/m) @ t=0.74
13.309565850388914
% es.EX (V/m) @ t=0.74
8.4462400989859
% es.EY (V/m) @ t=0.74
2.525576612626884
% es.EZ (V/m) @ t=0.74
-9.251746693506796
% es.tEX (V/m) @ t=0.74
8.446240098985886
% es.tEY (V/m) @ t=0.74
0
% es.tEZ (V/m) @ t=0.74
-9.251746693506789
% es.Ex (V/m) @ t=0.74
8.4462400989859
% es.Ey (V/m) @ t=0.74
2.525576612626884
% es.Ez (V/m) @ t=0.74
-9.251746693506796
% es.tEx (V/m) @ t=0.74
8.446240098985886
% es.tEy (V/m) @ t=0.74
0
% es.tEz (V/m) @ t=0.74
-9.251746693506789
% V (V) @ t=0.74
0.011401028940992979
% es.normE (V/m) @ t=0.76
13.426994891901437
% es.EX (V/m) @ t=0.76
8.520760288990992
% es.EY (V/m) @ t=0.76
2.547851893886909
% es.EZ (V/m) @ t=0.76
-9.333374039899242
% es.tEX (V/m) @ t=0.76
8.520760288990974
% es.tEY (V/m) @ t=0.76
0
% es.tEZ (V/m) @ t=0.76
-9.333374039899212
% es.Ex (V/m) @ t=0.76
8.520760288990992
% es.Ey (V/m) @ t=0.76
2.547851893886909
% es.Ez (V/m) @ t=0.76
-9.333374039899242
% es.tEx (V/m) @ t=0.76
8.520760288990974
% es.tEy (V/m) @ t=0.76
0
% es.tEz (V/m) @ t=0.76
-9.333374039899212
% V (V) @ t=0.76
0.011501637165993752
% es.normE (V/m) @ t=0.78
13.544423933420399
% es.EX (V/m) @ t=0.78
8.595280478996083
% es.EY (V/m) @ t=0.78
2.57012717514692
% es.EZ (V/m) @ t=0.78
-9.415001386291703
% es.tEX (V/m) @ t=0.78
8.595280478996056
% es.tEY (V/m) @ t=0.78
0
% es.tEZ (V/m) @ t=0.78
-9.415001386291674
% es.Ex (V/m) @ t=0.78
8.595280478996083
% es.Ey (V/m) @ t=0.78
2.57012717514692
% es.Ez (V/m) @ t=0.78
-9.415001386291703
% es.tEx (V/m) @ t=0.78
8.595280478996056
% es.tEy (V/m) @ t=0.78
0
% es.tEz (V/m) @ t=0.78
-9.415001386291674
% V (V) @ t=0.78
0.011602245390994529
% es.normE (V/m) @ t=0.8
13.67137020927341
% es.EX (V/m) @ t=0.8
8.675840304278601
% es.EY (V/m) @ t=0.8
2.5942086148509222
% es.EZ (V/m) @ t=0.8
-9.503244350989275
% es.tEX (V/m) @ t=0.8
8.675840304278585
% es.tEY (V/m) @ t=0.8
0
% es.tEZ (V/m) @ t=0.8
-9.503244350989252
% es.Ex (V/m) @ t=0.8
8.675840304278601
% es.Ey (V/m) @ t=0.8
2.5942086148509222
% es.Ez (V/m) @ t=0.8
-9.503244350989275
% es.tEx (V/m) @ t=0.8
8.675840304278585
% es.tEy (V/m) @ t=0.8
0
% es.tEz (V/m) @ t=0.8
-9.503244350989252
% V (V) @ t=0.8
0.011711005638554985
% es.normE (V/m) @ t=0.82
13.802046967406728
% es.EX (V/m) @ t=0.82
8.758767492974881
% es.EY (V/m) @ t=0.82
2.6189980167452593
% es.EZ (V/m) @ t=0.82
-9.594080447890269
% es.tEX (V/m) @ t=0.82
8.758767492974876
% es.tEY (V/m) @ t=0.82
0
% es.tEZ (V/m) @ t=0.82
-9.594080447890246
% es.Ex (V/m) @ t=0.82
8.758767492974881
% es.Ey (V/m) @ t=0.82
2.6189980167452593
% es.Ez (V/m) @ t=0.82
-9.594080447890269
% es.tEx (V/m) @ t=0.82
8.758767492974876
% es.tEy (V/m) @ t=0.82
0
% es.tEz (V/m) @ t=0.82
-9.594080447890246
% V (V) @ t=0.82
0.01182296124462129
% es.normE (V/m) @ t=0.84
13.932723725545497
% es.EX (V/m) @ t=0.84
8.84169468167116
% es.EY (V/m) @ t=0.84
2.6437874186395995
% es.EZ (V/m) @ t=0.84
-9.68491654479124
% es.tEX (V/m) @ t=0.84
8.841694681671132
% es.tEY (V/m) @ t=0.84
0
% es.tEZ (V/m) @ t=0.84
-9.684916544791227
% es.Ex (V/m) @ t=0.84
8.84169468167116
% es.Ey (V/m) @ t=0.84
2.6437874186395995
% es.Ez (V/m) @ t=0.84
-9.68491654479124
% es.tEx (V/m) @ t=0.84
8.841694681671132
% es.tEy (V/m) @ t=0.84
0
% es.tEz (V/m) @ t=0.84
-9.684916544791227
% V (V) @ t=0.84
0.011934916850687592
% es.normE (V/m) @ t=0.86
14.063400483689605
% es.EX (V/m) @ t=0.86
8.924621870367432
% es.EY (V/m) @ t=0.86
2.6685768205339255
% es.EZ (V/m) @ t=0.86
-9.77575264169225
% es.tEX (V/m) @ t=0.86
8.924621870367403
% es.tEY (V/m) @ t=0.86
0
% es.tEZ (V/m) @ t=0.86
-9.775752641692227
% es.Ex (V/m) @ t=0.86
8.924621870367432
% es.Ey (V/m) @ t=0.86
2.6685768205339255
% es.Ez (V/m) @ t=0.86
-9.77575264169225
% es.tEx (V/m) @ t=0.86
8.924621870367403
% es.tEy (V/m) @ t=0.86
0
% es.tEz (V/m) @ t=0.86
-9.775752641692227
% V (V) @ t=0.86
0.012046872456753895
% es.normE (V/m) @ t=0.88
14.194077241838848
% es.EX (V/m) @ t=0.88
9.00754905906371
% es.EY (V/m) @ t=0.88
2.6933662224282062
% es.EZ (V/m) @ t=0.88
-9.86658873859323
% es.tEX (V/m) @ t=0.88
9.007549059063694
% es.tEY (V/m) @ t=0.88
0
% es.tEZ (V/m) @ t=0.88
-9.866588738593206
% es.Ex (V/m) @ t=0.88
9.00754905906371
% es.Ey (V/m) @ t=0.88
2.6933662224282062
% es.Ez (V/m) @ t=0.88
-9.86658873859323
% es.tEx (V/m) @ t=0.88
9.007549059063694
% es.tEy (V/m) @ t=0.88
0
% es.tEz (V/m) @ t=0.88
-9.866588738593206
% V (V) @ t=0.88
0.0121588280628202
% es.normE (V/m) @ t=0.9
14.324753999993138
% es.EX (V/m) @ t=0.9
9.09047624775999
% es.EY (V/m) @ t=0.9
2.718155624322564
% es.EZ (V/m) @ t=0.9
-9.957424835494209
% es.tEX (V/m) @ t=0.9
9.090476247759984
% es.tEY (V/m) @ t=0.9
0
% es.tEZ (V/m) @ t=0.9
-9.95742483549418
% es.Ex (V/m) @ t=0.9
9.09047624775999
% es.Ey (V/m) @ t=0.9
2.718155624322564
% es.Ez (V/m) @ t=0.9
-9.957424835494209
% es.tEx (V/m) @ t=0.9
9.090476247759984
% es.tEy (V/m) @ t=0.9
0
% es.tEz (V/m) @ t=0.9
-9.95742483549418
% V (V) @ t=0.9
0.012270783668886502
% es.normE (V/m) @ t=0.92
14.455430758152328
% es.EX (V/m) @ t=0.92
9.173403436456223
% es.EY (V/m) @ t=0.92
2.742945026216937
% es.EZ (V/m) @ t=0.92
-10.048260932395245
% es.tEX (V/m) @ t=0.92
9.173403436456212
% es.tEY (V/m) @ t=0.92
0
% es.tEZ (V/m) @ t=0.92
-10.048260932395216
% es.Ex (V/m) @ t=0.92
9.173403436456223
% es.Ey (V/m) @ t=0.92
2.742945026216937
% es.Ez (V/m) @ t=0.92
-10.048260932395245
% es.tEx (V/m) @ t=0.92
9.173403436456212
% es.tEy (V/m) @ t=0.92
0
% es.tEz (V/m) @ t=0.92
-10.048260932395216
% V (V) @ t=0.92
0.012382739274952806
% es.normE (V/m) @ t=0.94
14.58610751631626
% es.EX (V/m) @ t=0.94
9.256330625152504
% es.EY (V/m) @ t=0.94
2.7677344281112344
% es.EZ (V/m) @ t=0.94
-10.139097029296245
% es.tEX (V/m) @ t=0.94
9.256330625152488
% es.tEY (V/m) @ t=0.94
0
% es.tEZ (V/m) @ t=0.94
-10.13909702929623
% es.Ex (V/m) @ t=0.94
9.256330625152504
% es.Ey (V/m) @ t=0.94
2.7677344281112344
% es.Ez (V/m) @ t=0.94
-10.139097029296245
% es.tEx (V/m) @ t=0.94
9.256330625152488
% es.tEy (V/m) @ t=0.94
0
% es.tEz (V/m) @ t=0.94
-10.13909702929623
% V (V) @ t=0.94
0.012494694881019112
% es.normE (V/m) @ t=0.96
14.716784274484809
% es.EX (V/m) @ t=0.96
9.339257813848791
% es.EY (V/m) @ t=0.96
2.7925238300055537
% es.EZ (V/m) @ t=0.96
-10.229933126197217
% es.tEX (V/m) @ t=0.96
9.339257813848771
% es.tEY (V/m) @ t=0.96
0
% es.tEZ (V/m) @ t=0.96
-10.229933126197189
% es.Ex (V/m) @ t=0.96
9.339257813848791
% es.Ey (V/m) @ t=0.96
2.7925238300055537
% es.Ez (V/m) @ t=0.96
-10.229933126197217
% es.tEx (V/m) @ t=0.96
9.339257813848771
% es.tEy (V/m) @ t=0.96
0
% es.tEz (V/m) @ t=0.96
-10.229933126197189
% V (V) @ t=0.96
0.012606650487085414
% es.normE (V/m) @ t=0.98
14.847461032657886
% es.EX (V/m) @ t=0.98
9.422185002545067
% es.EY (V/m) @ t=0.98
2.8173132318998872
% es.EZ (V/m) @ t=0.98
-10.320769223098212
% es.tEX (V/m) @ t=0.98
9.422185002545021
% es.tEY (V/m) @ t=0.98
0
% es.tEZ (V/m) @ t=0.98
-10.32076922309819
% es.Ex (V/m) @ t=0.98
9.422185002545067
% es.Ey (V/m) @ t=0.98
2.8173132318998872
% es.Ez (V/m) @ t=0.98
-10.320769223098212
% es.tEx (V/m) @ t=0.98
9.422185002545021
% es.tEy (V/m) @ t=0.98
0
% es.tEz (V/m) @ t=0.98
-10.32076922309819
% V (V) @ t=0.98
0.012718606093151718
% es.normE (V/m) @ t=1
14.978137790835339
% es.EX (V/m) @ t=1
9.505112191241345
% es.EY (V/m) @ t=1
2.8421026337942386
% es.EZ (V/m) @ t=1
-10.411605319999198
% es.tEX (V/m) @ t=1
9.505112191241318
% es.tEY (V/m) @ t=1
0
% es.tEZ (V/m) @ t=1
-10.411605319999175
% es.Ex (V/m) @ t=1
9.505112191241345
% es.Ey (V/m) @ t=1
2.8421026337942386
% es.Ez (V/m) @ t=1
-10.411605319999198
% es.tEx (V/m) @ t=1
9.505112191241318
% es.tEy (V/m) @ t=1
0
% es.tEz (V/m) @ t=1
-10.411605319999175
% V (V) @ t=1
0.01283056169921802
% es.normE (V/m) @ t=1.02
15.108814549017058
% es.EX (V/m) @ t=1.02
9.58803937993762
% es.EY (V/m) @ t=1.02
2.8668920356885503
% es.EZ (V/m) @ t=1.02
-10.502441416900178
% es.tEX (V/m) @ t=1.02
9.588039379937596
% es.tEY (V/m) @ t=1.02
0
% es.tEZ (V/m) @ t=1.02
-10.502441416900156
% es.Ex (V/m) @ t=1.02
9.58803937993762
% es.Ey (V/m) @ t=1.02
2.8668920356885503
% es.Ez (V/m) @ t=1.02
-10.502441416900178
% es.tEx (V/m) @ t=1.02
9.588039379937596
% es.tEy (V/m) @ t=1.02
0
% es.tEz (V/m) @ t=1.02
-10.502441416900156
% V (V) @ t=1.02
0.012942517305284324
% es.normE (V/m) @ t=1.04
15.239491307202975
% es.EX (V/m) @ t=1.04
9.670966568633887
% es.EY (V/m) @ t=1.04
2.8916814375828737
% es.EZ (V/m) @ t=1.04
-10.593277513801192
% es.tEX (V/m) @ t=1.04
9.670966568633872
% es.tEY (V/m) @ t=1.04
0
% es.tEZ (V/m) @ t=1.04
-10.593277513801178
% es.Ex (V/m) @ t=1.04
9.670966568633887
% es.Ey (V/m) @ t=1.04
2.8916814375828737
% es.Ez (V/m) @ t=1.04
-10.593277513801192
% es.tEx (V/m) @ t=1.04
9.670966568633872
% es.tEy (V/m) @ t=1.04
0
% es.tEz (V/m) @ t=1.04
-10.593277513801178
% V (V) @ t=1.04
0.013054472911350626
% es.normE (V/m) @ t=1.06
15.37419363666245
% es.EX (V/m) @ t=1.06
9.756448487178147
% es.EY (V/m) @ t=1.06
2.917239023379927