% Model:              1 neuron.mph
% Version:            COMSOL 6.1.0.252
% Date:               Mar 22 2023, 19:50
% Dimension:          0
% Nodes:              14017
% Expressions:        14017
% Description:        Electric field norm, Electric field, X component, Electric field, Y component, Electric field, Z component, Tangential electric field, X component, Tangential electric field, Y component, Tangential electric field, Z component, Electric field, x component, Electric field, y component, Electric field, z component, Tangential electric field, x component, Tangential electric field, y component, Tangential electric field, z component, Electric potential
% Length unit:        mm
% x
2
% y
12.2
% z
1.6599999999999997
% es.normE (V/m) @ t=0
1.8923060564961134
% es.EX (V/m) @ t=0
-1.8284680515366771
% es.EY (V/m) @ t=0
0.14085870593110683
% es.EZ (V/m) @ t=0
-0.4660271934416378
% es.tEX (V/m) @ t=0
-1.8284680515367011
% es.tEY (V/m) @ t=0
0
% es.tEZ (V/m) @ t=0
-0.4660271934416329
% es.Ex (V/m) @ t=0
-1.8284680515366771
% es.Ey (V/m) @ t=0
0.14085870593110683
% es.Ez (V/m) @ t=0
-0.4660271934416378
% es.tEx (V/m) @ t=0
-1.8284680515367011
% es.tEy (V/m) @ t=0
0
% es.tEz (V/m) @ t=0
-0.4660271934416329
% V (V) @ t=0
0.010966307985028926
% es.normE (V/m) @ t=0.02
1.6344126435426962
% es.EX (V/m) @ t=0.02
-1.5792748173390052
% es.EY (V/m) @ t=0.02
0.12166174136622965
% es.EZ (V/m) @ t=0.02
-0.40251455869849906
% es.tEX (V/m) @ t=0.02
-1.5792748173389999
% es.tEY (V/m) @ t=0.02
0
% es.tEZ (V/m) @ t=0.02
-0.4025145586984973
% es.Ex (V/m) @ t=0.02
-1.5792748173390052
% es.Ey (V/m) @ t=0.02
0.12166174136622965
% es.Ez (V/m) @ t=0.02
-0.40251455869849906
% es.tEx (V/m) @ t=0.02
-1.5792748173389999
% es.tEy (V/m) @ t=0.02
0
% es.tEz (V/m) @ t=0.02
-0.4025145586984973
% V (V) @ t=0.02
0.009471761905084102
% es.normE (V/m) @ t=0.04
1.6494559348239497
% es.EX (V/m) @ t=0.04
-1.5938106147468787
% es.EY (V/m) @ t=0.04
0.12278152781227403
% es.EZ (V/m) @ t=0.04
-0.40621934147228034
% es.tEX (V/m) @ t=0.04
-1.593810614746884
% es.tEY (V/m) @ t=0.04
0
% es.tEZ (V/m) @ t=0.04
-0.40621934147227634
% es.Ex (V/m) @ t=0.04
-1.5938106147468787
% es.Ey (V/m) @ t=0.04
0.12278152781227403
% es.Ez (V/m) @ t=0.04
-0.40621934147228034
% es.tEx (V/m) @ t=0.04
-1.593810614746884
% es.tEy (V/m) @ t=0.04
0
% es.tEz (V/m) @ t=0.04
-0.40621934147227634
% V (V) @ t=0.04
0.009558940910720274
% es.normE (V/m) @ t=0.06
1.6646175135572214
% es.EX (V/m) @ t=0.06
-1.6084607091605534
% es.EY (V/m) @ t=0.06
0.12391011908979255
% es.EZ (V/m) @ t=0.06
-0.40995325533770366
% es.tEX (V/m) @ t=0.06
-1.6084607091605658
% es.tEY (V/m) @ t=0.06
0
% es.tEZ (V/m) @ t=0.06
-0.409953255337701
% es.Ex (V/m) @ t=0.06
-1.6084607091605534
% es.Ey (V/m) @ t=0.06
0.12391011908979255
% es.Ez (V/m) @ t=0.06
-0.40995325533770366
% es.tEx (V/m) @ t=0.06
-1.6084607091605658
% es.tEy (V/m) @ t=0.06
0
% es.tEz (V/m) @ t=0.06
-0.409953255337701
% V (V) @ t=0.06
0.009646805427466168
% es.normE (V/m) @ t=0.08
1.6800506041939454
% es.EX (V/m) @ t=0.08
-1.6233731558611169
% es.EY (V/m) @ t=0.08
0.1250589211104447
% es.EZ (V/m) @ t=0.08
-0.41375403575318837
% es.tEX (V/m) @ t=0.08
-1.6233731558611222
% es.tEY (V/m) @ t=0.08
0
% es.tEZ (V/m) @ t=0.08
-0.4137540357531879
% es.Ex (V/m) @ t=0.08
-1.6233731558611169
% es.Ey (V/m) @ t=0.08
0.1250589211104447
% es.Ez (V/m) @ t=0.08
-0.41375403575318837
% es.tEx (V/m) @ t=0.08
-1.6233731558611222
% es.tEy (V/m) @ t=0.08
0
% es.tEz (V/m) @ t=0.08
-0.4137540357531879
% V (V) @ t=0.08
0.009736243410038344
% es.normE (V/m) @ t=0.1
1.6955890700850482
% es.EX (V/m) @ t=0.1
-1.638387422918787
% es.EY (V/m) @ t=0.1
0.12621556703102987
% es.EZ (V/m) @ t=0.1
-0.41758076744237593
% es.tEX (V/m) @ t=0.1
-1.6383874229187914
% es.tEY (V/m) @ t=0.1
0
% es.tEZ (V/m) @ t=0.1
-0.41758076744238437
% es.Ex (V/m) @ t=0.1
-1.638387422918787
% es.Ey (V/m) @ t=0.1
0.12621556703102987
% es.Ez (V/m) @ t=0.1
-0.41758076744237593
% es.tEx (V/m) @ t=0.1
-1.6383874229187914
% es.tEy (V/m) @ t=0.1
0
% es.tEz (V/m) @ t=0.1
-0.41758076744238437
% V (V) @ t=0.1
0.00982629206330155
% es.normE (V/m) @ t=0.12
1.7111275359761464
% es.EX (V/m) @ t=0.12
-1.6534016899764499
% es.EY (V/m) @ t=0.12
0.1273722129516044
% es.EZ (V/m) @ t=0.12
-0.4214074991315755
% es.tEX (V/m) @ t=0.12
-1.6534016899764428
% es.tEY (V/m) @ t=0.12
0
% es.tEZ (V/m) @ t=0.12
-0.42140749913157194
% es.Ex (V/m) @ t=0.12
-1.6534016899764499
% es.Ey (V/m) @ t=0.12
0.1273722129516044
% es.Ez (V/m) @ t=0.12
-0.4214074991315755
% es.tEx (V/m) @ t=0.12
-1.6534016899764428
% es.tEy (V/m) @ t=0.12
0
% es.tEz (V/m) @ t=0.12
-0.42140749913157194
% V (V) @ t=0.12
0.009916340716564756
% es.normE (V/m) @ t=0.14
1.7270243474414797
% es.EX (V/m) @ t=0.14
-1.6687622136077884
% es.EY (V/m) @ t=0.14
0.12855553329394287
% es.EZ (V/m) @ t=0.14
-0.42532248231863434
% es.tEX (V/m) @ t=0.14
-1.6687622136077902
% es.tEY (V/m) @ t=0.14
0
% es.tEZ (V/m) @ t=0.14
-0.425322482318629
% es.Ex (V/m) @ t=0.14
-1.6687622136077884
% es.Ey (V/m) @ t=0.14
0.12855553329394287
% es.Ez (V/m) @ t=0.14
-0.42532248231863434
% es.tEx (V/m) @ t=0.14
-1.6687622136077902
% es.tEy (V/m) @ t=0.14
0
% es.tEz (V/m) @ t=0.14
-0.425322482318629
% V (V) @ t=0.14
0.010008466054065277
% es.normE (V/m) @ t=0.16
1.74335844228777
% es.EX (V/m) @ t=0.16
-1.684545268605782
% es.EY (V/m) @ t=0.16
0.12977140400711695
% es.EZ (V/m) @ t=0.16
-0.4293451573990241
% es.tEX (V/m) @ t=0.16
-1.6845452686057918
% es.tEY (V/m) @ t=0.16
0
% es.tEZ (V/m) @ t=0.16
-0.42934515739903567
% es.Ex (V/m) @ t=0.16
-1.684545268605782
% es.Ey (V/m) @ t=0.16
0.12977140400711695
% es.Ez (V/m) @ t=0.16
-0.4293451573990241
% es.tEx (V/m) @ t=0.16
-1.6845452686057918
% es.tEy (V/m) @ t=0.16
0
% es.tEz (V/m) @ t=0.16
-0.42934515739903567
% V (V) @ t=0.16
0.010103125536172696
% es.normE (V/m) @ t=0.18
1.75969253713405
% es.EX (V/m) @ t=0.18
-1.700328323603764
% es.EY (V/m) @ t=0.18
0.1309872747202706
% es.EZ (V/m) @ t=0.18
-0.43336783247942456
% es.tEX (V/m) @ t=0.18
-1.7003283236037845
% es.tEY (V/m) @ t=0.18
0
% es.tEZ (V/m) @ t=0.18
-0.4333678324794299
% es.Ex (V/m) @ t=0.18
-1.700328323603764
% es.Ey (V/m) @ t=0.18
0.1309872747202706
% es.Ez (V/m) @ t=0.18
-0.43336783247942456
% es.tEx (V/m) @ t=0.18
-1.7003283236037845
% es.tEy (V/m) @ t=0.18
0
% es.tEz (V/m) @ t=0.18
-0.4333678324794299
% V (V) @ t=0.18
0.010197785018280111
% es.normE (V/m) @ t=0.2
1.776026631980379
% es.EX (V/m) @ t=0.2
-1.7161113786017959
% es.EY (V/m) @ t=0.2
0.1322031454334509
% es.EZ (V/m) @ t=0.2
-0.43739050755982056
% es.tEX (V/m) @ t=0.2
-1.7161113786018056
% es.tEY (V/m) @ t=0.2
0
% es.tEZ (V/m) @ t=0.2
-0.4373905075598259
% es.Ex (V/m) @ t=0.2
-1.7161113786017959
% es.Ey (V/m) @ t=0.2
0.1322031454334509
% es.Ez (V/m) @ t=0.2
-0.43739050755982056
% es.tEx (V/m) @ t=0.2
-1.7161113786018056
% es.tEy (V/m) @ t=0.2
0
% es.tEz (V/m) @ t=0.2
-0.4373905075598259
% V (V) @ t=0.2
0.010292444500387531
% es.normE (V/m) @ t=0.22
1.7923607268266415
% es.EX (V/m) @ t=0.22
-1.731894433599761
% es.EY (V/m) @ t=0.22
0.1334190161465958
% es.EZ (V/m) @ t=0.22
-0.4414131826402192
% es.tEX (V/m) @ t=0.22
-1.7318944335997628
% es.tEY (V/m) @ t=0.22
0
% es.tEZ (V/m) @ t=0.22
-0.4414131826402201
% es.Ex (V/m) @ t=0.22
-1.731894433599761
% es.Ey (V/m) @ t=0.22
0.1334190161465958
% es.Ez (V/m) @ t=0.22
-0.4414131826402192
% es.tEx (V/m) @ t=0.22
-1.7318944335997628
% es.tEy (V/m) @ t=0.22
0
% es.tEz (V/m) @ t=0.22
-0.4414131826402201
% V (V) @ t=0.22
0.010387103982494948
% es.normE (V/m) @ t=0.24
1.8086948216729708
% es.EX (V/m) @ t=0.24
-1.7476774885977937
% es.EY (V/m) @ t=0.24
0.13463488685977332
% es.EZ (V/m) @ t=0.24
-0.445435857720613
% es.tEX (V/m) @ t=0.24
-1.7476774885977981
% es.tEY (V/m) @ t=0.24
0
% es.tEZ (V/m) @ t=0.24
-0.4454358577206232
% es.Ex (V/m) @ t=0.24
-1.7476774885977937
% es.Ey (V/m) @ t=0.24
0.13463488685977332
% es.Ez (V/m) @ t=0.24
-0.445435857720613
% es.tEx (V/m) @ t=0.24
-1.7476774885977981
% es.tEy (V/m) @ t=0.24
0
% es.tEz (V/m) @ t=0.24
-0.4454358577206232
% V (V) @ t=0.24
0.010481763464602365
% es.normE (V/m) @ t=0.26
1.8250289165192597
% es.EX (V/m) @ t=0.26
-1.7634605435957837
% es.EY (V/m) @ t=0.26
0.13585075757293852
% es.EZ (V/m) @ t=0.26
-0.44945853280101433
% es.tEX (V/m) @ t=0.26
-1.7634605435957944
% es.tEY (V/m) @ t=0.26
0
% es.tEZ (V/m) @ t=0.26
-0.44945853280101566
% es.Ex (V/m) @ t=0.26
-1.7634605435957837
% es.Ey (V/m) @ t=0.26
0.13585075757293852
% es.Ez (V/m) @ t=0.26
-0.44945853280101433
% es.tEx (V/m) @ t=0.26
-1.7634605435957944
% es.tEy (V/m) @ t=0.26
0
% es.tEz (V/m) @ t=0.26
-0.44945853280101566
% V (V) @ t=0.26
0.010576422946709782
% es.normE (V/m) @ t=0.28
1.8429844747375634
% es.EX (V/m) @ t=0.28
-1.780810361767406
% es.EY (V/m) @ t=0.28
0.13718732202878736
% es.EZ (V/m) @ t=0.28
-0.45388053154299923
% es.tEX (V/m) @ t=0.28
-1.780810361767415
% es.tEY (V/m) @ t=0.28
0
% es.tEZ (V/m) @ t=0.28
-0.4538805315430068
% es.Ex (V/m) @ t=0.28
-1.780810361767406
% es.Ey (V/m) @ t=0.28
0.13718732202878736
% es.Ez (V/m) @ t=0.28
-0.45388053154299923
% es.tEx (V/m) @ t=0.28
-1.780810361767415
% es.tEy (V/m) @ t=0.28
0
% es.tEz (V/m) @ t=0.28
-0.4538805315430068
% V (V) @ t=0.28
0.010680479278999101
% es.normE (V/m) @ t=0.3
1.8610996815531191
% es.EX (V/m) @ t=0.3
-1.7983144427778956
% es.EY (V/m) @ t=0.3
0.13853576993944638
% es.EZ (V/m) @ t=0.3
-0.45834184752369733
% es.tEX (V/m) @ t=0.3
-1.798314442777901
% es.tEY (V/m) @ t=0.3
0
% es.tEZ (V/m) @ t=0.3
-0.45834184752368756
% es.Ex (V/m) @ t=0.3
-1.7983144427778956
% es.Ey (V/m) @ t=0.3
0.13853576993944638
% es.Ez (V/m) @ t=0.3
-0.45834184752369733
% es.tEx (V/m) @ t=0.3
-1.798314442777901
% es.tEy (V/m) @ t=0.3
0
% es.tEz (V/m) @ t=0.3
-0.45834184752368756
% V (V) @ t=0.3
0.010785460821179855
% es.normE (V/m) @ t=0.32
1.8792148883687054
% es.EX (V/m) @ t=0.32
-1.8158185237884172
% es.EY (V/m) @ t=0.32
0.13988421785013305
% es.EZ (V/m) @ t=0.32
-0.4628031635043852
% es.tEX (V/m) @ t=0.32
-1.815818523788403
% es.tEY (V/m) @ t=0.32
0
% es.tEZ (V/m) @ t=0.32
-0.4628031635043808
% es.Ex (V/m) @ t=0.32
-1.8158185237884172
% es.Ey (V/m) @ t=0.32
0.13988421785013305
% es.Ez (V/m) @ t=0.32
-0.4628031635043852
% es.tEx (V/m) @ t=0.32
-1.815818523788403
% es.tEy (V/m) @ t=0.32
0
% es.tEz (V/m) @ t=0.32
-0.4628031635043808
% V (V) @ t=0.32
0.010890442363360611
% es.normE (V/m) @ t=0.34
1.8973300951842895
% es.EX (V/m) @ t=0.34
-1.8333226047989388
% es.EY (V/m) @ t=0.34
0.1412326657607923
% es.EZ (V/m) @ t=0.34
-0.46726447948507355
% es.tEX (V/m) @ t=0.34
-1.8333226047989282
% es.tEY (V/m) @ t=0.34
0
% es.tEZ (V/m) @ t=0.34
-0.46726447948506333
% es.Ex (V/m) @ t=0.34
-1.8333226047989388
% es.Ey (V/m) @ t=0.34
0.1412326657607923
% es.Ez (V/m) @ t=0.34
-0.46726447948507355
% es.tEx (V/m) @ t=0.34
-1.8333226047989282
% es.tEy (V/m) @ t=0.34
0
% es.tEz (V/m) @ t=0.34
-0.46726447948506333
% V (V) @ t=0.34
0.010995423905541363
% es.normE (V/m) @ t=0.36
1.9154453019998225
% es.EX (V/m) @ t=0.36
-1.8508266858094071
% es.EY (V/m) @ t=0.36
0.14258111367147985
% es.EZ (V/m) @ t=0.36
-0.4717257954657543
% es.tEX (V/m) @ t=0.36
-1.850826685809416
% es.tEY (V/m) @ t=0.36
0
% es.tEZ (V/m) @ t=0.36
-0.47172579546575655
% es.Ex (V/m) @ t=0.36
-1.8508266858094071
% es.Ey (V/m) @ t=0.36
0.14258111367147985
% es.Ez (V/m) @ t=0.36
-0.4717257954657543
% es.tEx (V/m) @ t=0.36
-1.850826685809416
% es.tEy (V/m) @ t=0.36
0
% es.tEz (V/m) @ t=0.36
-0.47172579546575655
% V (V) @ t=0.36
0.011100405447722117
% es.normE (V/m) @ t=0.38
1.933560508815411
% es.EX (V/m) @ t=0.38
-1.8683307668199323
% es.EY (V/m) @ t=0.38
0.14392956158214065
% es.EZ (V/m) @ t=0.38
-0.4761871114464462
% es.tEX (V/m) @ t=0.38
-1.8683307668199234
% es.tEY (V/m) @ t=0.38
0
% es.tEZ (V/m) @ t=0.38
-0.47618711144643733
% es.Ex (V/m) @ t=0.38
-1.8683307668199323
% es.Ey (V/m) @ t=0.38
0.14392956158214065
% es.Ez (V/m) @ t=0.38
-0.4761871114464462
% es.tEx (V/m) @ t=0.38
-1.8683307668199234
% es.tEy (V/m) @ t=0.38
0
% es.tEz (V/m) @ t=0.38
-0.47618711144643733
% V (V) @ t=0.38
0.011205386989902873
% es.normE (V/m) @ t=0.4
1.9516757156310014
% es.EX (V/m) @ t=0.4
-1.8858348478304583
% es.EY (V/m) @ t=0.4
0.14527800949283265
% es.EZ (V/m) @ t=0.4
-0.48064842742712965
% es.tEX (V/m) @ t=0.4
-1.8858348478304432
% es.tEY (V/m) @ t=0.4
0
% es.tEZ (V/m) @ t=0.4
-0.4806484274271323
% es.Ex (V/m) @ t=0.4
-1.8858348478304583
% es.Ey (V/m) @ t=0.4
0.14527800949283265
% es.Ez (V/m) @ t=0.4
-0.48064842742712965
% es.tEx (V/m) @ t=0.4
-1.8858348478304432
% es.tEy (V/m) @ t=0.4
0
% es.tEz (V/m) @ t=0.4
-0.4806484274271323
% V (V) @ t=0.4
0.011310368532083627
% es.normE (V/m) @ t=0.42
1.969790922446557
% es.EX (V/m) @ t=0.42
-1.903338928840947
% es.EY (V/m) @ t=0.42
0.1466264574034979
% es.EZ (V/m) @ t=0.42
-0.4851097434078304
% es.tEX (V/m) @ t=0.42
-1.9033389288409648
% es.tEY (V/m) @ t=0.42
0
% es.tEZ (V/m) @ t=0.42
-0.4851097434078273
% es.Ex (V/m) @ t=0.42
-1.903338928840947
% es.Ey (V/m) @ t=0.42
0.1466264574034979
% es.Ez (V/m) @ t=0.42
-0.4851097434078304
% es.tEx (V/m) @ t=0.42
-1.9033389288409648
% es.tEy (V/m) @ t=0.42
0
% es.tEz (V/m) @ t=0.42
-0.4851097434078273
% V (V) @ t=0.42
0.011415350074264379
% es.normE (V/m) @ t=0.44
1.987906129262153
% es.EX (V/m) @ t=0.44
-1.920843009851482
% es.EY (V/m) @ t=0.44
0.1479749053141819
% es.EZ (V/m) @ t=0.44
-0.4895710593885054
% es.tEX (V/m) @ t=0.44
-1.920843009851474
% es.tEY (V/m) @ t=0.44
0
% es.tEZ (V/m) @ t=0.44
-0.4895710593885063
% es.Ex (V/m) @ t=0.44
-1.920843009851482
% es.Ey (V/m) @ t=0.44
0.1479749053141819
% es.Ez (V/m) @ t=0.44
-0.4895710593885054
% es.tEx (V/m) @ t=0.44
-1.920843009851474
% es.tEy (V/m) @ t=0.44
0
% es.tEz (V/m) @ t=0.44
-0.4895710593885063
% V (V) @ t=0.44
0.011520331616445134
% es.normE (V/m) @ t=0.46
2.006021336077694
% es.EX (V/m) @ t=0.46
-1.9383470908619547
% es.EY (V/m) @ t=0.46
0.1493233532248739
% es.EZ (V/m) @ t=0.46
-0.49403237536919953
% es.tEX (V/m) @ t=0.46
-1.9383470908619351
% es.tEY (V/m) @ t=0.46
0
% es.tEZ (V/m) @ t=0.46
-0.4940323753692031
% es.Ex (V/m) @ t=0.46
-1.9383470908619547
% es.Ey (V/m) @ t=0.46
0.1493233532248739
% es.Ez (V/m) @ t=0.46
-0.49403237536919953
% es.tEx (V/m) @ t=0.46
-1.9383470908619351
% es.tEy (V/m) @ t=0.46
0
% es.tEz (V/m) @ t=0.46
-0.4940323753692031
% V (V) @ t=0.46
0.01162531315862589
% es.normE (V/m) @ t=0.48
2.0241365428932654
% es.EX (V/m) @ t=0.48
-1.9558511718724594
% es.EY (V/m) @ t=0.48
0.1506718011355499
% es.EZ (V/m) @ t=0.48
-0.4984936913498963
% es.tEX (V/m) @ t=0.48
-1.9558511718724443
% es.tEY (V/m) @ t=0.48
0
% es.tEZ (V/m) @ t=0.48
-0.4984936913499034
% es.Ex (V/m) @ t=0.48
-1.9558511718724594
% es.Ey (V/m) @ t=0.48
0.1506718011355499
% es.Ez (V/m) @ t=0.48
-0.4984936913498963
% es.tEx (V/m) @ t=0.48
-1.9558511718724443
% es.tEy (V/m) @ t=0.48
0
% es.tEz (V/m) @ t=0.48
-0.4984936913499034
% V (V) @ t=0.48
0.011730294700806642
% es.normE (V/m) @ t=0.5
2.042251749708834
% es.EX (V/m) @ t=0.5
-1.9733552528829623
% es.EY (V/m) @ t=0.5
0.1520202490462178
% es.EZ (V/m) @ t=0.5
-0.5029550073305917
% es.tEX (V/m) @ t=0.5
-1.9733552528829765
% es.tEY (V/m) @ t=0.5
0
% es.tEZ (V/m) @ t=0.5
-0.5029550073305789
% es.Ex (V/m) @ t=0.5
-1.9733552528829623
% es.Ey (V/m) @ t=0.5
0.1520202490462178
% es.Ez (V/m) @ t=0.5
-0.5029550073305917
% es.tEx (V/m) @ t=0.5
-1.9733552528829765
% es.tEy (V/m) @ t=0.5
0
% es.tEz (V/m) @ t=0.5
-0.5029550073305789
% V (V) @ t=0.5
0.011835276242987402
% es.normE (V/m) @ t=0.52
2.0603669565244145
% es.EX (V/m) @ t=0.52
-1.9908593338934812
% es.EY (V/m) @ t=0.52
0.1533686969569027
% es.EZ (V/m) @ t=0.52
-0.5074163233112663
% es.tEX (V/m) @ t=0.52
-1.9908593338934715
% es.tEY (V/m) @ t=0.52
0
% es.tEZ (V/m) @ t=0.52
-0.5074163233112721
% es.Ex (V/m) @ t=0.52
-1.9908593338934812
% es.Ey (V/m) @ t=0.52
0.1533686969569027
% es.Ez (V/m) @ t=0.52
-0.5074163233112663
% es.tEx (V/m) @ t=0.52
-1.9908593338934715
% es.tEy (V/m) @ t=0.52
0
% es.tEz (V/m) @ t=0.52
-0.5074163233112721
% V (V) @ t=0.52
0.011940257785168154
% es.normE (V/m) @ t=0.54
2.080149651999946
% es.EX (V/m) @ t=0.54
-2.009974649211326
% es.EY (V/m) @ t=0.54
0.15484127241791457
% es.EZ (V/m) @ t=0.54
-0.5122883012309236
% es.tEX (V/m) @ t=0.54
-2.0099746492113386
% es.tEY (V/m) @ t=0.54
0
% es.tEZ (V/m) @ t=0.54
-0.5122883012309263
% es.Ex (V/m) @ t=0.54
-2.009974649211326
% es.Ey (V/m) @ t=0.54
0.15484127241791457
% es.Ez (V/m) @ t=0.54
-0.5122883012309236
% es.tEx (V/m) @ t=0.54
-2.0099746492113386
% es.tEy (V/m) @ t=0.54
0
% es.tEz (V/m) @ t=0.54
-0.5122883012309263
% V (V) @ t=0.54
0.012054902660852001
% es.normE (V/m) @ t=0.56
2.1002731272030233
% es.EX (V/m) @ t=0.56
-2.029419247720985
% es.EY (V/m) @ t=0.56
0.15633921545941887
% es.EZ (V/m) @ t=0.56
-0.5172442049169343
% es.tEX (V/m) @ t=0.56
-2.029419247720977
% es.tEY (V/m) @ t=0.56
0
% es.tEZ (V/m) @ t=0.56
-0.5172442049169366
% es.Ex (V/m) @ t=0.56
-2.029419247720985
% es.Ey (V/m) @ t=0.56
0.15633921545941887
% es.Ez (V/m) @ t=0.56
-0.5172442049169343
% es.tEx (V/m) @ t=0.56
-2.029419247720977
% es.tEy (V/m) @ t=0.56
0
% es.tEz (V/m) @ t=0.56
-0.5172442049169366
% V (V) @ t=0.56
0.01217152240343428
% es.normE (V/m) @ t=0.58
2.1203966024060446
% es.EX (V/m) @ t=0.58
-2.048863846230592
% es.EY (V/m) @ t=0.58
0.15783715850093827
% es.EZ (V/m) @ t=0.58
-0.5222001086029202
% es.tEX (V/m) @ t=0.58
-2.0488638462306277
% es.tEY (V/m) @ t=0.58
0
% es.tEZ (V/m) @ t=0.58
-0.5222001086029273
% es.Ex (V/m) @ t=0.58
-2.048863846230592
% es.Ey (V/m) @ t=0.58
0.15783715850093827
% es.Ez (V/m) @ t=0.58
-0.5222001086029202
% es.tEx (V/m) @ t=0.58
-2.0488638462306277
% es.tEy (V/m) @ t=0.58
0
% es.tEz (V/m) @ t=0.58
-0.5222001086029273
% V (V) @ t=0.58
0.012288142146016558
% es.normE (V/m) @ t=0.6
2.140520077609146
% es.EX (V/m) @ t=0.6
-2.0683084447402784
% es.EY (V/m) @ t=0.6
0.1593351015423965
% es.EZ (V/m) @ t=0.6
-0.5271560122889372
% es.tEX (V/m) @ t=0.6
-2.068308444740282
% es.tEY (V/m) @ t=0.6
0
% es.tEZ (V/m) @ t=0.6
-0.5271560122889287
% es.Ex (V/m) @ t=0.6
-2.0683084447402784
% es.Ey (V/m) @ t=0.6
0.1593351015423965
% es.Ez (V/m) @ t=0.6
-0.5271560122889372
% es.tEx (V/m) @ t=0.6
-2.068308444740282
% es.tEy (V/m) @ t=0.6
0
% es.tEz (V/m) @ t=0.6
-0.5271560122889287
% V (V) @ t=0.6
0.012404761888598835
% es.normE (V/m) @ t=0.62
2.160643552812174
% es.EX (V/m) @ t=0.62
-2.0877530432498865
% es.EY (V/m) @ t=0.62
0.16083304458393977
% es.EZ (V/m) @ t=0.62
-0.532111915974935
% es.tEX (V/m) @ t=0.62
-2.08775304324989
% es.tEY (V/m) @ t=0.62
0
% es.tEZ (V/m) @ t=0.62
-0.5321119159749355
% es.Ex (V/m) @ t=0.62
-2.0877530432498865
% es.Ey (V/m) @ t=0.62
0.16083304458393977
% es.Ez (V/m) @ t=0.62
-0.532111915974935
% es.tEx (V/m) @ t=0.62
-2.08775304324989
% es.tEy (V/m) @ t=0.62
0
% es.tEz (V/m) @ t=0.62
-0.5321119159749355
% V (V) @ t=0.62
0.012521381631181116
% es.normE (V/m) @ t=0.64
2.1807670280152505
% es.EX (V/m) @ t=0.64
-2.1071976417595533
% es.EY (V/m) @ t=0.64
0.16233098762541487
% es.EZ (V/m) @ t=0.64
-0.53706781966092
% es.tEX (V/m) @ t=0.64
-2.1071976417595586
% es.tEY (V/m) @ t=0.64
0
% es.tEZ (V/m) @ t=0.64
-0.5370678196609298
% es.Ex (V/m) @ t=0.64
-2.1071976417595533
% es.Ey (V/m) @ t=0.64
0.16233098762541487
% es.Ez (V/m) @ t=0.64
-0.53706781966092
% es.tEx (V/m) @ t=0.64
-2.1071976417595586
% es.tEy (V/m) @ t=0.64
0
% es.tEz (V/m) @ t=0.64
-0.5370678196609298
% V (V) @ t=0.64
0.012638001373763395
% es.normE (V/m) @ t=0.66
2.20089050321831
% es.EX (V/m) @ t=0.66
-2.126642240269195
% es.EY (V/m) @ t=0.66
0.16382893066690496
% es.EZ (V/m) @ t=0.66
-0.5420237233469316
% es.tEX (V/m) @ t=0.66
-2.1266422402691916
% es.tEY (V/m) @ t=0.66
0
% es.tEZ (V/m) @ t=0.66
-0.5420237233469312
% es.Ex (V/m) @ t=0.66
-2.126642240269195
% es.Ey (V/m) @ t=0.66
0.16382893066690496
% es.Ez (V/m) @ t=0.66
-0.5420237233469316
% es.tEx (V/m) @ t=0.66
-2.1266422402691916
% es.tEy (V/m) @ t=0.66
0
% es.tEz (V/m) @ t=0.66
-0.5420237233469312
% V (V) @ t=0.66
0.012754621116345675
% es.normE (V/m) @ t=0.68
2.2210139784213663
% es.EX (V/m) @ t=0.68
-2.1460868387788317
% es.EY (V/m) @ t=0.68
0.16532687370844756
% es.EZ (V/m) @ t=0.68
-0.5469796270329326
% es.tEX (V/m) @ t=0.68
-2.146086838778846
% es.tEY (V/m) @ t=0.68
0
% es.tEZ (V/m) @ t=0.68
-0.5469796270329397
% es.Ex (V/m) @ t=0.68
-2.1460868387788317
% es.Ey (V/m) @ t=0.68
0.16532687370844756
% es.Ez (V/m) @ t=0.68
-0.5469796270329326
% es.tEx (V/m) @ t=0.68
-2.146086838778846
% es.tEy (V/m) @ t=0.68
0
% es.tEz (V/m) @ t=0.68
-0.5469796270329397
% V (V) @ t=0.68
0.012871240858927954
% es.normE (V/m) @ t=0.7
2.241137453624444
% es.EX (V/m) @ t=0.7
-2.165531437288495
% es.EY (V/m) @ t=0.7
0.16682481674995442
% es.EZ (V/m) @ t=0.7
-0.5519355307189286
% es.tEX (V/m) @ t=0.7
-2.165531437288493
% es.tEY (V/m) @ t=0.7
0
% es.tEZ (V/m) @ t=0.7
-0.5519355307189322
% es.Ex (V/m) @ t=0.7
-2.165531437288495
% es.Ey (V/m) @ t=0.7
0.16682481674995442
% es.Ez (V/m) @ t=0.7
-0.5519355307189286
% es.tEx (V/m) @ t=0.7
-2.165531437288493
% es.tEy (V/m) @ t=0.7
0
% es.tEz (V/m) @ t=0.7
-0.5519355307189322
% V (V) @ t=0.7
0.012987860601510233
% es.normE (V/m) @ t=0.72
2.2612609288274794
% es.EX (V/m) @ t=0.72
-2.184976035798112
% es.EY (V/m) @ t=0.72
0.1683227597914535
% es.EZ (V/m) @ t=0.72
-0.5568914344049376
% es.tEX (V/m) @ t=0.72
-2.1849760357981367
% es.tEY (V/m) @ t=0.72
0
% es.tEZ (V/m) @ t=0.72
-0.5568914344049354
% es.Ex (V/m) @ t=0.72
-2.184976035798112
% es.Ey (V/m) @ t=0.72
0.1683227597914535
% es.Ez (V/m) @ t=0.72
-0.5568914344049376
% es.tEx (V/m) @ t=0.72
-2.1849760357981367
% es.tEy (V/m) @ t=0.72
0
% es.tEz (V/m) @ t=0.72
-0.5568914344049354
% V (V) @ t=0.72
0.013104480344092511
% es.normE (V/m) @ t=0.74
2.2813844040305638
% es.EX (V/m) @ t=0.74
-2.204420634307782
% es.EY (V/m) @ t=0.74
0.16982070283294004
% es.EZ (V/m) @ t=0.74
-0.5618473380909386
% es.tEX (V/m) @ t=0.74
-2.2044206343077875
% es.tEY (V/m) @ t=0.74
0
% es.tEZ (V/m) @ t=0.74
-0.5618473380909386
% es.Ex (V/m) @ t=0.74
-2.204420634307782
% es.Ey (V/m) @ t=0.74
0.16982070283294004
% es.Ez (V/m) @ t=0.74
-0.5618473380909386
% es.tEx (V/m) @ t=0.74
-2.2044206343077875
% es.tEy (V/m) @ t=0.74
0
% es.tEz (V/m) @ t=0.74
-0.5618473380909386
% V (V) @ t=0.74
0.013221100086674792
% es.normE (V/m) @ t=0.76
2.301507879233599
% es.EX (V/m) @ t=0.76
-2.223865232817399
% es.EY (V/m) @ t=0.76
0.17131864587445322
% es.EZ (V/m) @ t=0.76
-0.5668032417769391
% es.tEX (V/m) @ t=0.76
-2.2238652328173956
% es.tEY (V/m) @ t=0.76
0
% es.tEZ (V/m) @ t=0.76
-0.5668032417769417
% es.Ex (V/m) @ t=0.76
-2.223865232817399
% es.Ey (V/m) @ t=0.76
0.17131864587445322
% es.Ez (V/m) @ t=0.76
-0.5668032417769391
% es.tEx (V/m) @ t=0.76
-2.2238652328173956
% es.tEy (V/m) @ t=0.76
0
% es.tEz (V/m) @ t=0.76
-0.5668032417769417
% V (V) @ t=0.76
0.01333771982925707
% es.normE (V/m) @ t=0.78
2.321631354436676
% es.EX (V/m) @ t=0.78
-2.243309831327057
% es.EY (V/m) @ t=0.78
0.1728165889159664
% es.EZ (V/m) @ t=0.78
-0.5717591454629525
% es.tEX (V/m) @ t=0.78
-2.2433098313270605
% es.tEY (V/m) @ t=0.78
0
% es.tEZ (V/m) @ t=0.78
-0.5717591454629485
% es.Ex (V/m) @ t=0.78
-2.243309831327057
% es.Ey (V/m) @ t=0.78
0.1728165889159664
% es.Ez (V/m) @ t=0.78
-0.5717591454629525
% es.tEx (V/m) @ t=0.78
-2.2433098313270605
% es.tEy (V/m) @ t=0.78
0
% es.tEz (V/m) @ t=0.78
-0.5717591454629485
% V (V) @ t=0.78
0.01345433957183935
% es.normE (V/m) @ t=0.8
2.343456714036991
% es.EX (V/m) @ t=0.8
-2.264398900211985
% es.EY (V/m) @ t=0.8
0.17444121607404572
% es.EZ (V/m) @ t=0.8
-0.5771341803035446
% es.tEX (V/m) @ t=0.8
-2.264398900212001
% es.tEY (V/m) @ t=0.8
0
% es.tEZ (V/m) @ t=0.8
-0.5771341803035526
% es.Ex (V/m) @ t=0.8
-2.264398900211985
% es.Ey (V/m) @ t=0.8
0.17444121607404572
% es.Ez (V/m) @ t=0.8
-0.5771341803035446
% es.tEx (V/m) @ t=0.8
-2.264398900212001
% es.tEy (V/m) @ t=0.8
0
% es.tEz (V/m) @ t=0.8
-0.5771341803035526
% V (V) @ t=0.8
0.013580822085292418
% es.normE (V/m) @ t=0.82
2.3658485894679484
% es.EX (V/m) @ t=0.82
-2.286035373199172
% es.EY (V/m) @ t=0.82
0.17610801328648285
% es.EZ (V/m) @ t=0.82
-0.5826487336887181
% es.tEX (V/m) @ t=0.82
-2.28603537319918
% es.tEY (V/m) @ t=0.82
0
% es.tEZ (V/m) @ t=0.82
-0.5826487336887283
% es.Ex (V/m) @ t=0.82
-2.286035373199172
% es.Ey (V/m) @ t=0.82
0.17610801328648285
% es.Ez (V/m) @ t=0.82
-0.5826487336887181
% es.tEx (V/m) @ t=0.82
-2.28603537319918
% es.tEy (V/m) @ t=0.82
0
% es.tEz (V/m) @ t=0.82
-0.5826487336887283
% V (V) @ t=0.82
0.013710587674752863
% es.normE (V/m) @ t=0.84
2.388240464898829
% es.EX (V/m) @ t=0.84
-2.307671846186275
% es.EY (V/m) @ t=0.84
0.1777748104989323
% es.EZ (V/m) @ t=0.84
-0.5881632870739089
% es.tEX (V/m) @ t=0.84
-2.307671846186299
% es.tEY (V/m) @ t=0.84
0
% es.tEZ (V/m) @ t=0.84
-0.5881632870739288
% es.Ex (V/m) @ t=0.84
-2.307671846186275
% es.Ey (V/m) @ t=0.84
0.1777748104989323
% es.Ez (V/m) @ t=0.84
-0.5881632870739089
% es.tEx (V/m) @ t=0.84
-2.307671846186299
% es.tEy (V/m) @ t=0.84
0
% es.tEz (V/m) @ t=0.84
-0.5881632870739288
% V (V) @ t=0.84
0.01384035326421331
% es.normE (V/m) @ t=0.86
2.410632340329782
% es.EX (V/m) @ t=0.86
-2.329308319173453
% es.EY (V/m) @ t=0.86
0.17944160771136408
% es.EZ (V/m) @ t=0.86
-0.5936778404591032
% es.tEX (V/m) @ t=0.86
-2.3293083191734496
% es.tEY (V/m) @ t=0.86
0
% es.tEZ (V/m) @ t=0.86
-0.5936778404591045
% es.Ex (V/m) @ t=0.86
-2.329308319173453
% es.Ey (V/m) @ t=0.86
0.17944160771136408
% es.Ez (V/m) @ t=0.86
-0.5936778404591032
% es.tEx (V/m) @ t=0.86
-2.3293083191734496
% es.tEy (V/m) @ t=0.86
0
% es.tEz (V/m) @ t=0.86
-0.5936778404591045
% V (V) @ t=0.86
0.013970118853673755
% es.normE (V/m) @ t=0.88
2.4330242157607085
% es.EX (V/m) @ t=0.88
-2.350944792160612
% es.EY (V/m) @ t=0.88
0.18110840492380298
% es.EZ (V/m) @ t=0.88
-0.5991923938442638
% es.tEX (V/m) @ t=0.88
-2.3509447921606004
% es.tEY (V/m) @ t=0.88
0
% es.tEZ (V/m) @ t=0.88
-0.599192393844266
% es.Ex (V/m) @ t=0.88
-2.350944792160612
% es.Ey (V/m) @ t=0.88
0.18110840492380298
% es.Ez (V/m) @ t=0.88
-0.5991923938442638
% es.tEx (V/m) @ t=0.88
-2.3509447921606004
% es.tEy (V/m) @ t=0.88
0
% es.tEz (V/m) @ t=0.88
-0.599192393844266
% V (V) @ t=0.88
0.014099884443134203
% es.normE (V/m) @ t=0.9
2.4554160911916565
% es.EX (V/m) @ t=0.9
-2.372581265147778
% es.EY (V/m) @ t=0.9
0.18277520213627207
% es.EZ (V/m) @ t=0.9
-0.6047069472294742
% es.tEX (V/m) @ t=0.9
-2.372581265147776
% es.tEY (V/m) @ t=0.9
0
% es.tEZ (V/m) @ t=0.9
-0.6047069472294702
% es.Ex (V/m) @ t=0.9
-2.372581265147778
% es.Ey (V/m) @ t=0.9
0.18277520213627207
% es.Ez (V/m) @ t=0.9
-0.6047069472294742
% es.tEx (V/m) @ t=0.9
-2.372581265147776
% es.tEy (V/m) @ t=0.9
0
% es.tEz (V/m) @ t=0.9
-0.6047069472294702
% V (V) @ t=0.9
0.014229650032594646
% es.normE (V/m) @ t=0.92
2.4778079666225894
% es.EX (V/m) @ t=0.92
-2.3942177381349374
% es.EY (V/m) @ t=0.92
0.18444199934872163
% es.EZ (V/m) @ t=0.92
-0.6102215006146547
% es.tEX (V/m) @ t=0.92
-2.3942177381349268
% es.tEY (V/m) @ t=0.92
0
% es.tEZ (V/m) @ t=0.92
-0.610221500614653
% es.Ex (V/m) @ t=0.92
-2.3942177381349374
% es.Ey (V/m) @ t=0.92
0.18444199934872163
% es.Ez (V/m) @ t=0.92
-0.6102215006146547
% es.tEx (V/m) @ t=0.92
-2.3942177381349268
% es.tEy (V/m) @ t=0.92
0
% es.tEz (V/m) @ t=0.92
-0.610221500614653
% V (V) @ t=0.92
0.014359415622055094
% es.normE (V/m) @ t=0.94
2.50019984205351
% es.EX (V/m) @ t=0.94
-2.415854211122083
% es.EY (V/m) @ t=0.94
0.18610879656111257
% es.EZ (V/m) @ t=0.94
-0.6157360539998575
% es.tEX (V/m) @ t=0.94
-2.4158542111220775
% es.tEY (V/m) @ t=0.94
0
% es.tEZ (V/m) @ t=0.94
-0.6157360539998571
% es.Ex (V/m) @ t=0.94
-2.415854211122083
% es.Ey (V/m) @ t=0.94
0.18610879656111257
% es.Ez (V/m) @ t=0.94
-0.6157360539998575
% es.tEx (V/m) @ t=0.94
-2.4158542111220775
% es.tEy (V/m) @ t=0.94
0
% es.tEz (V/m) @ t=0.94
-0.6157360539998571
% V (V) @ t=0.94
0.01448918121151554
% es.normE (V/m) @ t=0.96
2.522591717484424
% es.EX (V/m) @ t=0.96
-2.4374906841092248
% es.EY (V/m) @ t=0.96
0.18777559377358521
% es.EZ (V/m) @ t=0.96
-0.6212506073850235
% es.tEX (V/m) @ t=0.96
-2.437490684109239
% es.tEY (V/m) @ t=0.96
0
% es.tEZ (V/m) @ t=0.96
-0.6212506073850292
% es.Ex (V/m) @ t=0.96
-2.4374906841092248
% es.Ey (V/m) @ t=0.96
0.18777559377358521
% es.Ez (V/m) @ t=0.96
-0.6212506073850235
% es.tEx (V/m) @ t=0.96
-2.437490684109239
% es.tEy (V/m) @ t=0.96
0
% es.tEz (V/m) @ t=0.96
-0.6212506073850292
% V (V) @ t=0.96
0.014618946800975984
% es.normE (V/m) @ t=0.98
2.5449835929153743
% es.EX (V/m) @ t=0.98
-2.4591271570963986
% es.EY (V/m) @ t=0.98
0.1894423909860472
% es.EZ (V/m) @ t=0.98
-0.6267651607702147
% es.tEX (V/m) @ t=0.98
-2.4591271570963897
% es.tEY (V/m) @ t=0.98
0
% es.tEZ (V/m) @ t=0.98
-0.6267651607702049
% es.Ex (V/m) @ t=0.98
-2.4591271570963986
% es.Ey (V/m) @ t=0.98
0.1894423909860472
% es.Ez (V/m) @ t=0.98
-0.6267651607702147
% es.tEx (V/m) @ t=0.98
-2.4591271570963897
% es.tEy (V/m) @ t=0.98
0
% es.tEz (V/m) @ t=0.98
-0.6267651607702049
% V (V) @ t=0.98
0.014748712390436427
% es.normE (V/m) @ t=1
2.567375468346325
% es.EX (V/m) @ t=1
-2.4807636300835796
% es.EY (V/m) @ t=1
0.19110918819844336
% es.EZ (V/m) @ t=1
-0.6322797141554002
% es.tEX (V/m) @ t=1
-2.480763630083569
% es.tEY (V/m) @ t=1
0
% es.tEZ (V/m) @ t=1
-0.6322797141553913
% es.Ex (V/m) @ t=1
-2.4807636300835796
% es.Ey (V/m) @ t=1
0.19110918819844336
% es.Ez (V/m) @ t=1
-0.6322797141554002
% es.tEx (V/m) @ t=1
-2.480763630083569
% es.tEy (V/m) @ t=1
0
% es.tEz (V/m) @ t=1
-0.6322797141553913
% V (V) @ t=1
0.014878477979896875
% es.normE (V/m) @ t=1.02
2.589767343777243
% es.EX (V/m) @ t=1.02
-2.502400103070716
% es.EY (V/m) @ t=1.02
0.19277598541092145
% es.EZ (V/m) @ t=1.02
-0.6377942675405999
% es.tEX (V/m) @ t=1.02
-2.5024001030707197
% es.tEY (V/m) @ t=1.02
0
% es.tEZ (V/m) @ t=1.02
-0.637794267540599
% es.Ex (V/m) @ t=1.02
-2.502400103070716
% es.Ey (V/m) @ t=1.02
0.19277598541092145
% es.Ez (V/m) @ t=1.02
-0.6377942675405999
% es.tEx (V/m) @ t=1.02
-2.5024001030707197
% es.tEy (V/m) @ t=1.02
0
% es.tEz (V/m) @ t=1.02
-0.637794267540599
% V (V) @ t=1.02
0.015008243569357324