% Model:              1 neuron.mph
% Version:            COMSOL 6.1.0.252
% Date:               Mar 22 2023, 20:02
% Dimension:          0
% Nodes:              14017
% Expressions:        14017
% Description:        Electric field norm, Electric field, X component, Electric field, Y component, Electric field, Z component, Tangential electric field, X component, Tangential electric field, Y component, Tangential electric field, Z component, Electric field, x component, Electric field, y component, Electric field, z component, Tangential electric field, x component, Tangential electric field, y component, Tangential electric field, z component, Electric potential
% Length unit:        mm
% x
2
% y
12.199999999999998
% z
2
% es.normE (V/m) @ t=0
1.1100693595736484
% es.EX (V/m) @ t=0
-0.7947068230112262
% es.EY (V/m) @ t=0
0.3026521726916982
% es.EZ (V/m) @ t=0
-0.7091554303229817
% es.tEX (V/m) @ t=0
-0.7947068230112229
% es.tEY (V/m) @ t=0
0
% es.tEZ (V/m) @ t=0
-0.709155430322987
% es.Ex (V/m) @ t=0
-0.7947068230112262
% es.Ey (V/m) @ t=0
0.3026521726916982
% es.Ez (V/m) @ t=0
-0.7091554303229817
% es.tEx (V/m) @ t=0
-0.7947068230112229
% es.tEy (V/m) @ t=0
0
% es.tEz (V/m) @ t=0
-0.709155430322987
% V (V) @ t=0
0.011296954529280855
% es.normE (V/m) @ t=0.02
0.9587822553969471
% es.EX (V/m) @ t=0.02
-0.6863992718526581
% es.EY (V/m) @ t=0.02
0.2614048666424924
% es.EZ (V/m) @ t=0.02
-0.6125073509975274
% es.tEX (V/m) @ t=0.02
-0.686399271852661
% es.tEY (V/m) @ t=0.02
0
% es.tEZ (V/m) @ t=0.02
-0.6125073509975367
% es.Ex (V/m) @ t=0.02
-0.6863992718526581
% es.Ey (V/m) @ t=0.02
0.2614048666424924
% es.Ez (V/m) @ t=0.02
-0.6125073509975274
% es.tEx (V/m) @ t=0.02
-0.686399271852661
% es.tEy (V/m) @ t=0.02
0
% es.tEz (V/m) @ t=0.02
-0.6125073509975367
% V (V) @ t=0.02
0.009757335830241716
% es.normE (V/m) @ t=0.04
0.9676059745622958
% es.EX (V/m) @ t=0.04
-0.6927162373654905
% es.EY (V/m) @ t=0.04
0.26381058794969614
% es.EZ (V/m) @ t=0.04
-0.61814428566771
% es.tEX (V/m) @ t=0.04
-0.6927162373654907
% es.tEY (V/m) @ t=0.04
0
% es.tEZ (V/m) @ t=0.04
-0.6181442856677073
% es.Ex (V/m) @ t=0.04
-0.6927162373654905
% es.Ey (V/m) @ t=0.04
0.26381058794969614
% es.Ez (V/m) @ t=0.04
-0.61814428566771
% es.tEx (V/m) @ t=0.04
-0.6927162373654907
% es.tEy (V/m) @ t=0.04
0
% es.tEz (V/m) @ t=0.04
-0.6181442856677073
% V (V) @ t=0.04
0.009847133069863174
% es.normE (V/m) @ t=0.06
0.9764992766154827
% es.EX (V/m) @ t=0.06
-0.6990830179258005
% es.EY (V/m) @ t=0.06
0.2662352796148828
% es.EZ (V/m) @ t=0.06
-0.6238256728953466
% es.tEX (V/m) @ t=0.06
-0.699083017925799
% es.tEY (V/m) @ t=0.06
0
% es.tEZ (V/m) @ t=0.06
-0.6238256728953493
% es.Ex (V/m) @ t=0.06
-0.6990830179258005
% es.Ey (V/m) @ t=0.06
0.2662352796148828
% es.Ez (V/m) @ t=0.06
-0.6238256728953466
% es.tEx (V/m) @ t=0.06
-0.699083017925799
% es.tEy (V/m) @ t=0.06
0
% es.tEz (V/m) @ t=0.06
-0.6238256728953493
% V (V) @ t=0.06
0.009937638475024192
% es.normE (V/m) @ t=0.08
0.9855513718721225
% es.EX (V/m) @ t=0.08
-0.7055634795536836
% es.EY (V/m) @ t=0.08
0.26870326606558637
% es.EZ (V/m) @ t=0.08
-0.6296085030446266
% es.tEX (V/m) @ t=0.08
-0.7055634795536823
% es.tEY (V/m) @ t=0.08
0
% es.tEZ (V/m) @ t=0.08
-0.6296085030446266
% es.Ex (V/m) @ t=0.08
-0.7055634795536836
% es.Ey (V/m) @ t=0.08
0.26870326606558637
% es.Ez (V/m) @ t=0.08
-0.6296085030446266
% es.tEx (V/m) @ t=0.08
-0.7055634795536823
% es.tEy (V/m) @ t=0.08
0
% es.tEz (V/m) @ t=0.08
-0.6296085030446266
% V (V) @ t=0.08
0.010029759848929889
% es.normE (V/m) @ t=0.1
0.9946659129796876
% es.EX (V/m) @ t=0.1
-0.7120886465647034
% es.EY (V/m) @ t=0.1
0.27118827830620207
% es.EZ (V/m) @ t=0.1
-0.6354312258934929
% es.tEX (V/m) @ t=0.1
-0.7120886465647076
% es.tEY (V/m) @ t=0.1
0
% es.tEZ (V/m) @ t=0.1
-0.6354312258934964
% es.Ex (V/m) @ t=0.1
-0.7120886465647034
% es.Ey (V/m) @ t=0.1
0.27118827830620207
% es.Ez (V/m) @ t=0.1
-0.6354312258934929
% es.tEx (V/m) @ t=0.1
-0.7120886465647076
% es.tEy (V/m) @ t=0.1
0
% es.tEz (V/m) @ t=0.1
-0.6354312258934964
% V (V) @ t=0.1
0.01012251670685608
% es.normE (V/m) @ t=0.12
1.0037804540872577
% es.EX (V/m) @ t=0.12
-0.7186138135757234
% es.EY (V/m) @ t=0.12
0.2736732905468118
% es.EZ (V/m) @ t=0.12
-0.6412539487423654
% es.tEX (V/m) @ t=0.12
-0.7186138135757147
% es.tEY (V/m) @ t=0.12
0
% es.tEZ (V/m) @ t=0.12
-0.6412539487423707
% es.Ex (V/m) @ t=0.12
-0.7186138135757234
% es.Ey (V/m) @ t=0.12
0.2736732905468118
% es.Ez (V/m) @ t=0.12
-0.6412539487423654
% es.tEx (V/m) @ t=0.12
-0.7186138135757147
% es.tEy (V/m) @ t=0.12
0
% es.tEz (V/m) @ t=0.12
-0.6412539487423707
% V (V) @ t=0.12
0.010215273564782277
% es.normE (V/m) @ t=0.14
1.0131028842865226
% es.EX (V/m) @ t=0.14
-0.7252878098619913
% es.EY (V/m) @ t=0.14
0.2762149825981708
% es.EZ (V/m) @ t=0.14
-0.6472094790766896
% es.tEX (V/m) @ t=0.14
-0.725287809861983
% es.tEY (V/m) @ t=0.14
0
% es.tEZ (V/m) @ t=0.14
-0.6472094790766878
% es.Ex (V/m) @ t=0.14
-0.7252878098619913
% es.Ey (V/m) @ t=0.14
0.2762149825981708
% es.Ez (V/m) @ t=0.14
-0.6472094790766896
% es.tEx (V/m) @ t=0.14
-0.725287809861983
% es.tEy (V/m) @ t=0.14
0
% es.tEz (V/m) @ t=0.14
-0.6472094790766878
% V (V) @ t=0.14
0.010310146053734863
% es.normE (V/m) @ t=0.16
1.0226845103397144
% es.EX (V/m) @ t=0.16
-0.7321473662985045
% es.EY (V/m) @ t=0.16
0.27882734296512734
% es.EZ (V/m) @ t=0.16
-0.6533305936142009
% es.tEX (V/m) @ t=0.16
-0.7321473662984999
% es.tEY (V/m) @ t=0.16
0
% es.tEZ (V/m) @ t=0.16
-0.6533305936142106
% es.Ex (V/m) @ t=0.16
-0.7321473662985045
% es.Ey (V/m) @ t=0.16
0.27882734296512734
% es.Ez (V/m) @ t=0.16
-0.6533305936142009
% es.tEx (V/m) @ t=0.16
-0.7321473662984999
% es.tEy (V/m) @ t=0.16
0
% es.tEz (V/m) @ t=0.16
-0.6533305936142106
% V (V) @ t=0.16
0.010407656308748434
% es.normE (V/m) @ t=0.18
1.0322661363929049
% es.EX (V/m) @ t=0.18
-0.739006922735
% es.EY (V/m) @ t=0.18
0.28143970333206525
% es.EZ (V/m) @ t=0.18
-0.659451708151737
% es.tEX (V/m) @ t=0.18
-0.7390069227349945
% es.tEY (V/m) @ t=0.18
0
% es.tEZ (V/m) @ t=0.18
-0.6594517081517335
% es.Ex (V/m) @ t=0.18
-0.739006922735
% es.Ey (V/m) @ t=0.18
0.28143970333206525
% es.Ez (V/m) @ t=0.18
-0.659451708151737
% es.tEx (V/m) @ t=0.18
-0.7390069227349945
% es.tEy (V/m) @ t=0.18
0
% es.tEz (V/m) @ t=0.18
-0.6594517081517335
% V (V) @ t=0.18
0.010505166563762007
% es.normE (V/m) @ t=0.2
1.0418477624460956
% es.EX (V/m) @ t=0.2
-0.7458664791715071
% es.EY (V/m) @ t=0.2
0.2840520636990307
% es.EZ (V/m) @ t=0.2
-0.665572822689251
% es.tEX (V/m) @ t=0.2
-0.7458664791715073
% es.tEY (V/m) @ t=0.2
0
% es.tEZ (V/m) @ t=0.2
-0.6655728226892492
% es.Ex (V/m) @ t=0.2
-0.7458664791715071
% es.Ey (V/m) @ t=0.2
0.2840520636990307
% es.Ez (V/m) @ t=0.2
-0.665572822689251
% es.tEx (V/m) @ t=0.2
-0.7458664791715073
% es.tEy (V/m) @ t=0.2
0
% es.tEz (V/m) @ t=0.2
-0.6655728226892492
% V (V) @ t=0.2
0.010602676818775579
% es.normE (V/m) @ t=0.22
1.0514293884992905
% es.EX (V/m) @ t=0.22
-0.7527260356080121
% es.EY (V/m) @ t=0.22
0.28666442406598724
% es.EZ (V/m) @ t=0.22
-0.6716939372267756
% es.tEX (V/m) @ t=0.22
-0.7527260356080165
% es.tEY (V/m) @ t=0.22
0
% es.tEZ (V/m) @ t=0.22
-0.6716939372267792
% es.Ex (V/m) @ t=0.22
-0.7527260356080121
% es.Ey (V/m) @ t=0.22
0.28666442406598724
% es.Ez (V/m) @ t=0.22
-0.6716939372267756
% es.tEx (V/m) @ t=0.22
-0.7527260356080165
% es.tEy (V/m) @ t=0.22
0
% es.tEz (V/m) @ t=0.22
-0.6716939372267792
% V (V) @ t=0.22
0.01070018707378915
% es.normE (V/m) @ t=0.24
1.0610110145524754
% es.EX (V/m) @ t=0.24
-0.7595855920445227
% es.EY (V/m) @ t=0.24
0.28927678443293936
% es.EZ (V/m) @ t=0.24
-0.6778150517642807
% es.tEX (V/m) @ t=0.24
-0.7595855920445227
% es.tEY (V/m) @ t=0.24
0
% es.tEZ (V/m) @ t=0.24
-0.677815051764286
% es.Ex (V/m) @ t=0.24
-0.7595855920445227
% es.Ey (V/m) @ t=0.24
0.28927678443293936
% es.Ez (V/m) @ t=0.24
-0.6778150517642807
% es.tEx (V/m) @ t=0.24
-0.7595855920445227
% es.tEy (V/m) @ t=0.24
0
% es.tEz (V/m) @ t=0.24
-0.677815051764286
% V (V) @ t=0.24
0.010797697328802723
% es.normE (V/m) @ t=0.26
1.070592640605666
% es.EX (V/m) @ t=0.26
-0.7664451484810226
% es.EY (V/m) @ t=0.26
0.2918891447998808
% es.EZ (V/m) @ t=0.26
-0.6839361663018106
% es.tEX (V/m) @ t=0.26
-0.7664451484810209
% es.tEY (V/m) @ t=0.26
0
% es.tEZ (V/m) @ t=0.26
-0.6839361663018089
% es.Ex (V/m) @ t=0.26
-0.7664451484810226
% es.Ey (V/m) @ t=0.26
0.2918891447998808
% es.Ez (V/m) @ t=0.26
-0.6839361663018106
% es.tEx (V/m) @ t=0.26
-0.7664451484810209
% es.tEy (V/m) @ t=0.26
0
% es.tEz (V/m) @ t=0.26
-0.6839361663018089
% V (V) @ t=0.26
0.010895207583816296
% es.normE (V/m) @ t=0.28
1.0811155282684242
% es.EX (V/m) @ t=0.28
-0.773978599111707
% es.EY (V/m) @ t=0.28
0.29475788462558383
% es.EZ (V/m) @ t=0.28
-0.6906586820856262
% es.tEX (V/m) @ t=0.28
-0.7739785991117087
% es.tEY (V/m) @ t=0.28
0
% es.tEZ (V/m) @ t=0.28
-0.6906586820856297
% es.Ex (V/m) @ t=0.28
-0.773978599111707
% es.Ey (V/m) @ t=0.28
0.29475788462558383
% es.Ez (V/m) @ t=0.28
-0.6906586820856262
% es.tEx (V/m) @ t=0.28
-0.7739785991117087
% es.tEy (V/m) @ t=0.28
0
% es.tEz (V/m) @ t=0.28
-0.6906586820856297
% V (V) @ t=0.28
0.011002306330928106
% es.normE (V/m) @ t=0.3
1.0917432989553877
% es.EX (V/m) @ t=0.3
-0.7815871405144594
% es.EY (V/m) @ t=0.3
0.29765519233575377
% es.EZ (V/m) @ t=0.3
-0.6974482108877034
% es.tEX (V/m) @ t=0.3
-0.7815871405144614
% es.tEY (V/m) @ t=0.3
0
% es.tEZ (V/m) @ t=0.3
-0.6974482108877069
% es.Ex (V/m) @ t=0.3
-0.7815871405144594
% es.Ey (V/m) @ t=0.3
0.29765519233575377
% es.Ez (V/m) @ t=0.3
-0.6974482108877034
% es.tEx (V/m) @ t=0.3
-0.7815871405144614
% es.tEy (V/m) @ t=0.3
0
% es.tEz (V/m) @ t=0.3
-0.6974482108877069
% V (V) @ t=0.3
0.01111047350581544
% es.normE (V/m) @ t=0.32
1.1023710696424758
% es.EX (V/m) @ t=0.32
-0.789195681917233
% es.EY (V/m) @ t=0.32
0.30055250004595746
% es.EZ (V/m) @ t=0.32
-0.7042377396897512
% es.tEX (V/m) @ t=0.32
-0.7891956819172368
% es.tEY (V/m) @ t=0.32
0
% es.tEZ (V/m) @ t=0.32
-0.7042377396897503
% es.Ex (V/m) @ t=0.32
-0.789195681917233
% es.Ey (V/m) @ t=0.32
0.30055250004595746
% es.Ez (V/m) @ t=0.32
-0.7042377396897512
% es.tEx (V/m) @ t=0.32
-0.7891956819172368
% es.tEy (V/m) @ t=0.32
0
% es.tEz (V/m) @ t=0.32
-0.7042377396897503
% V (V) @ t=0.32
0.011218640680702777
% es.normE (V/m) @ t=0.34
1.1129988403296756
% es.EX (V/m) @ t=0.34
-0.7968042233199999
% es.EY (V/m) @ t=0.34
0.30344980775614006
% es.EZ (V/m) @ t=0.34
-0.7110272684918035
% es.tEX (V/m) @ t=0.34
-0.7968042233200006
% es.tEY (V/m) @ t=0.34
0
% es.tEZ (V/m) @ t=0.34
-0.7110272684918062
% es.Ex (V/m) @ t=0.34
-0.7968042233199999
% es.Ey (V/m) @ t=0.34
0.30344980775614006
% es.Ez (V/m) @ t=0.34
-0.7110272684918035
% es.tEx (V/m) @ t=0.34
-0.7968042233200006
% es.tEy (V/m) @ t=0.34
0
% es.tEz (V/m) @ t=0.34
-0.7110272684918062
% V (V) @ t=0.34
0.011326807855590114
% es.normE (V/m) @ t=0.36
1.1236266110169884
% es.EX (V/m) @ t=0.36
-0.8044127647227557
% es.EY (V/m) @ t=0.36
0.3063471154663491
% es.EZ (V/m) @ t=0.36
-0.7178167972938541
% es.tEX (V/m) @ t=0.36
-0.8044127647227506
% es.tEY (V/m) @ t=0.36
0
% es.tEZ (V/m) @ t=0.36
-0.7178167972938567
% es.Ex (V/m) @ t=0.36
-0.8044127647227557
% es.Ey (V/m) @ t=0.36
0.3063471154663491
% es.Ez (V/m) @ t=0.36
-0.7178167972938541
% es.tEx (V/m) @ t=0.36
-0.8044127647227506
% es.tEy (V/m) @ t=0.36
0
% es.tEz (V/m) @ t=0.36
-0.7178167972938567
% V (V) @ t=0.36
0.011434975030477452
% es.normE (V/m) @ t=0.38
1.1342543817044195
% es.EX (V/m) @ t=0.38
-0.8120213061255293
% es.EY (V/m) @ t=0.38
0.309244423176545
% es.EZ (V/m) @ t=0.38
-0.724606326095901
% es.tEX (V/m) @ t=0.38
-0.812021306125521
% es.tEY (V/m) @ t=0.38
0
% es.tEZ (V/m) @ t=0.38
-0.7246063260959055
% es.Ex (V/m) @ t=0.38
-0.8120213061255293
% es.Ey (V/m) @ t=0.38
0.309244423176545
% es.Ez (V/m) @ t=0.38
-0.724606326095901
% es.tEx (V/m) @ t=0.38
-0.812021306125521
% es.tEy (V/m) @ t=0.38
0
% es.tEz (V/m) @ t=0.38
-0.7246063260959055
% V (V) @ t=0.38
0.011543142205364787
% es.normE (V/m) @ t=0.4
1.1448821523919608
% es.EX (V/m) @ t=0.4
-0.8196298475282886
% es.EY (V/m) @ t=0.4
0.31214173088672914
% es.EZ (V/m) @ t=0.4
-0.7313958548979729
% es.tEX (V/m) @ t=0.4
-0.8196298475282924
% es.tEY (V/m) @ t=0.4
0
% es.tEZ (V/m) @ t=0.4
-0.7313958548979773
% es.Ex (V/m) @ t=0.4
-0.8196298475282886
% es.Ey (V/m) @ t=0.4
0.31214173088672914
% es.Ez (V/m) @ t=0.4
-0.7313958548979729
% es.tEx (V/m) @ t=0.4
-0.8196298475282924
% es.tEy (V/m) @ t=0.4
0
% es.tEz (V/m) @ t=0.4
-0.7313958548979773
% V (V) @ t=0.4
0.011651309380252125
% es.normE (V/m) @ t=0.42
1.1555099230795927
% es.EX (V/m) @ t=0.42
-0.8272383889310502
% es.EY (V/m) @ t=0.42
0.3150390385969224
% es.EZ (V/m) @ t=0.42
-0.7381853837000127
% es.tEX (V/m) @ t=0.42
-0.8272383889310535
% es.tEY (V/m) @ t=0.42
0
% es.tEZ (V/m) @ t=0.42
-0.738185383700019
% es.Ex (V/m) @ t=0.42
-0.8272383889310502
% es.Ey (V/m) @ t=0.42
0.3150390385969224
% es.Ez (V/m) @ t=0.42
-0.7381853837000127
% es.tEx (V/m) @ t=0.42
-0.8272383889310535
% es.tEy (V/m) @ t=0.42
0
% es.tEz (V/m) @ t=0.42
-0.738185383700019
% V (V) @ t=0.42
0.01175947655513946
% es.normE (V/m) @ t=0.44
1.1661376937673507
% es.EX (V/m) @ t=0.44
-0.8348469303338193
% es.EY (V/m) @ t=0.44
0.31793634630711454
% es.EZ (V/m) @ t=0.44
-0.7449749125020846
% es.tEX (V/m) @ t=0.44
-0.8348469303338244
% es.tEY (V/m) @ t=0.44
0
% es.tEZ (V/m) @ t=0.44
-0.7449749125020837
% es.Ex (V/m) @ t=0.44
-0.8348469303338193
% es.Ey (V/m) @ t=0.44
0.31793634630711454
% es.Ez (V/m) @ t=0.44
-0.7449749125020846
% es.tEx (V/m) @ t=0.44
-0.8348469303338244
% es.tEy (V/m) @ t=0.44
0
% es.tEz (V/m) @ t=0.44
-0.7449749125020837
% V (V) @ t=0.44
0.011867643730026797
% es.normE (V/m) @ t=0.46
1.176765464455195
% es.EX (V/m) @ t=0.46
-0.8424554717365831
% es.EY (V/m) @ t=0.46
0.3208336540173131
% es.EZ (V/m) @ t=0.46
-0.7517644413041324
% es.tEX (V/m) @ t=0.46
-0.8424554717365846
% es.tEY (V/m) @ t=0.46
0
% es.tEZ (V/m) @ t=0.46
-0.7517644413041324
% es.Ex (V/m) @ t=0.46
-0.8424554717365831
% es.Ey (V/m) @ t=0.46
0.3208336540173131
% es.Ez (V/m) @ t=0.46
-0.7517644413041324
% es.tEx (V/m) @ t=0.46
-0.8424554717365846
% es.tEy (V/m) @ t=0.46
0
% es.tEz (V/m) @ t=0.46
-0.7517644413041324
% V (V) @ t=0.46
0.011975810904914133
% es.normE (V/m) @ t=0.48
1.1873932351431462
% es.EX (V/m) @ t=0.48
-0.8500640131393526
% es.EY (V/m) @ t=0.48
0.3237309617274873
% es.EZ (V/m) @ t=0.48
-0.7585539701062034
% es.tEX (V/m) @ t=0.48
-0.850064013139352
% es.tEY (V/m) @ t=0.48
0
% es.tEZ (V/m) @ t=0.48
-0.7585539701062043
% es.Ex (V/m) @ t=0.48
-0.8500640131393526
% es.Ey (V/m) @ t=0.48
0.3237309617274873
% es.Ez (V/m) @ t=0.48
-0.7585539701062034
% es.tEx (V/m) @ t=0.48
-0.850064013139352
% es.tEy (V/m) @ t=0.48
0
% es.tEz (V/m) @ t=0.48
-0.7585539701062043
% V (V) @ t=0.48
0.01208397807980147
% es.normE (V/m) @ t=0.5
1.198021005831174
% es.EX (V/m) @ t=0.5
-0.857672554542112
% es.EY (V/m) @ t=0.5
0.32662826943768897
% es.EZ (V/m) @ t=0.5
-0.7653434989082459
% es.tEX (V/m) @ t=0.5
-0.8576725545421127
% es.tEY (V/m) @ t=0.5
0
% es.tEZ (V/m) @ t=0.5
-0.765343498908253
% es.Ex (V/m) @ t=0.5
-0.857672554542112
% es.Ey (V/m) @ t=0.5
0.32662826943768897
% es.Ez (V/m) @ t=0.5
-0.7653434989082459
% es.tEx (V/m) @ t=0.5
-0.8576725545421127
% es.tEy (V/m) @ t=0.5
0
% es.tEz (V/m) @ t=0.5
-0.765343498908253
% V (V) @ t=0.5
0.012192145254688806
% es.normE (V/m) @ t=0.52
1.208648776519294
% es.EX (V/m) @ t=0.52
-0.8652810959448602
% es.EY (V/m) @ t=0.52
0.32952557714787734
% es.EZ (V/m) @ t=0.52
-0.7721330277103062
% es.tEX (V/m) @ t=0.52
-0.865281095944856
% es.tEY (V/m) @ t=0.52
0
% es.tEZ (V/m) @ t=0.52
-0.7721330277103036
% es.Ex (V/m) @ t=0.52
-0.8652810959448602
% es.Ey (V/m) @ t=0.52
0.32952557714787734
% es.Ez (V/m) @ t=0.52
-0.7721330277103062
% es.tEx (V/m) @ t=0.52
-0.865281095944856
% es.tEy (V/m) @ t=0.52
0
% es.tEz (V/m) @ t=0.52
-0.7721330277103036
% V (V) @ t=0.52
0.012300312429576143
% es.normE (V/m) @ t=0.54
1.220230904659552
% es.EX (V/m) @ t=0.54
-0.8735729158871051
% es.EY (V/m) @ t=0.54
0.3326827729069479
% es.EZ (V/m) @ t=0.54
-0.7795323460671684
% es.tEX (V/m) @ t=0.54
-0.8735729158871104
% es.tEY (V/m) @ t=0.54
0
% es.tEZ (V/m) @ t=0.54
-0.7795323460671693
% es.Ex (V/m) @ t=0.54
-0.8735729158871051
% es.Ey (V/m) @ t=0.54
0.3326827729069479
% es.Ez (V/m) @ t=0.54
-0.7795323460671684
% es.tEx (V/m) @ t=0.54
-0.8735729158871104
% es.tEy (V/m) @ t=0.54
0
% es.tEz (V/m) @ t=0.54
-0.7795323460671693
% V (V) @ t=0.54
0.012418203766310445
% es.normE (V/m) @ t=0.56
1.232038242243502
% es.EX (V/m) @ t=0.56
-0.8820259760219737
% es.EY (V/m) @ t=0.56
0.3359012970945514
% es.EZ (V/m) @ t=0.56
-0.7870755626728387
% es.tEX (V/m) @ t=0.56
-0.882025976021982
% es.tEY (V/m) @ t=0.56
0
% es.tEZ (V/m) @ t=0.56
-0.787075562672845
% es.Ex (V/m) @ t=0.56
-0.8820259760219737
% es.Ey (V/m) @ t=0.56
0.3359012970945514
% es.Ez (V/m) @ t=0.56
-0.7870755626728387
% es.tEx (V/m) @ t=0.56
-0.882025976021982
% es.tEy (V/m) @ t=0.56
0
% es.tEz (V/m) @ t=0.56
-0.787075562672845
% V (V) @ t=0.56
0.012538389812506151
% es.normE (V/m) @ t=0.58
1.2438455798280184
% es.EX (V/m) @ t=0.58
-0.8904790361568462
% es.EY (V/m) @ t=0.58
0.33911982128215445
% es.EZ (V/m) @ t=0.58
-0.7946187792785233
% es.tEX (V/m) @ t=0.58
-0.8904790361568411
% es.tEY (V/m) @ t=0.58
0
% es.tEZ (V/m) @ t=0.58
-0.7946187792785224
% es.Ex (V/m) @ t=0.58
-0.8904790361568462
% es.Ey (V/m) @ t=0.58
0.33911982128215445
% es.Ez (V/m) @ t=0.58
-0.7946187792785233
% es.tEx (V/m) @ t=0.58
-0.8904790361568411
% es.tEy (V/m) @ t=0.58
0
% es.tEz (V/m) @ t=0.58
-0.7946187792785224
% V (V) @ t=0.58
0.01265857585870186
% es.normE (V/m) @ t=0.6
1.2556529174130473
% es.EX (V/m) @ t=0.6
-0.8989320962917027
% es.EY (V/m) @ t=0.6
0.34233834546971487
% es.EZ (V/m) @ t=0.6
-0.8021619958841999
% es.tEX (V/m) @ t=0.6
-0.8989320962917016
% es.tEY (V/m) @ t=0.6
0
% es.tEZ (V/m) @ t=0.6
-0.8021619958842052
% es.Ex (V/m) @ t=0.6
-0.8989320962917027
% es.Ey (V/m) @ t=0.6
0.34233834546971487
% es.Ez (V/m) @ t=0.6
-0.8021619958841999
% es.tEx (V/m) @ t=0.6
-0.8989320962917016
% es.tEy (V/m) @ t=0.6
0
% es.tEz (V/m) @ t=0.6
-0.8021619958842052
% V (V) @ t=0.6
0.012778761904897563
% es.normE (V/m) @ t=0.62
1.267460254998618
% es.EX (V/m) @ t=0.62
-0.9073851564265751
% es.EY (V/m) @ t=0.62
0.3455568696573126
% es.EZ (V/m) @ t=0.62
-0.8097052124898703
% es.tEX (V/m) @ t=0.62
-0.907385156426574
% es.tEY (V/m) @ t=0.62
0
% es.tEZ (V/m) @ t=0.62
-0.8097052124898685
% es.Ex (V/m) @ t=0.62
-0.9073851564265751
% es.Ey (V/m) @ t=0.62
0.3455568696573126
% es.Ez (V/m) @ t=0.62
-0.8097052124898703
% es.tEx (V/m) @ t=0.62
-0.907385156426574
% es.tEy (V/m) @ t=0.62
0
% es.tEz (V/m) @ t=0.62
-0.8097052124898685
% V (V) @ t=0.62
0.012898947951093273
% es.normE (V/m) @ t=0.64
1.2792675925846997
% es.EX (V/m) @ t=0.64
-0.9158382165614387
% es.EY (V/m) @ t=0.64
0.34877539384490763
% es.EZ (V/m) @ t=0.64
-0.8172484290955557
% es.tEX (V/m) @ t=0.64
-0.9158382165614327
% es.tEY (V/m) @ t=0.64
0
% es.tEZ (V/m) @ t=0.64
-0.8172484290955602
% es.Ex (V/m) @ t=0.64
-0.9158382165614387
% es.Ey (V/m) @ t=0.64
0.34877539384490763
% es.Ez (V/m) @ t=0.64
-0.8172484290955557
% es.tEx (V/m) @ t=0.64
-0.9158382165614327
% es.tEy (V/m) @ t=0.64
0
% es.tEz (V/m) @ t=0.64
-0.8172484290955602
% V (V) @ t=0.64
0.013019133997288976
% es.normE (V/m) @ t=0.66
1.291074930171274
% es.EX (V/m) @ t=0.66
-0.9242912766963058
% es.EY (V/m) @ t=0.66
0.3519939180324778
% es.EZ (V/m) @ t=0.66
-0.8247916457012385
% es.tEX (V/m) @ t=0.66
-0.9242912766963003
% es.tEY (V/m) @ t=0.66
0
% es.tEZ (V/m) @ t=0.66
-0.824791645701243
% es.Ex (V/m) @ t=0.66
-0.9242912766963058
% es.Ey (V/m) @ t=0.66
0.3519939180324778
% es.Ez (V/m) @ t=0.66
-0.8247916457012385
% es.tEx (V/m) @ t=0.66
-0.9242912766963003
% es.tEy (V/m) @ t=0.66
0
% es.tEz (V/m) @ t=0.66
-0.824791645701243
% V (V) @ t=0.66
0.013139320043484684
% es.normE (V/m) @ t=0.68
1.3028822677583183
% es.EX (V/m) @ t=0.68
-0.932744336831169
% es.EY (V/m) @ t=0.68
0.35521244222007775
% es.EZ (V/m) @ t=0.68
-0.8323348623068956
% es.tEX (V/m) @ t=0.68
-0.9327443368311692
% es.tEY (V/m) @ t=0.68
0
% es.tEZ (V/m) @ t=0.68
-0.8323348623068991
% es.Ex (V/m) @ t=0.68
-0.932744336831169
% es.Ey (V/m) @ t=0.68
0.35521244222007775
% es.Ez (V/m) @ t=0.68
-0.8323348623068956
% es.tEx (V/m) @ t=0.68
-0.9327443368311692
% es.tEy (V/m) @ t=0.68
0
% es.tEz (V/m) @ t=0.68
-0.8323348623068991
% V (V) @ t=0.68
0.013259506089680389
% es.normE (V/m) @ t=0.7
1.3146896053458548
% es.EX (V/m) @ t=0.7
-0.9411973969660379
% es.EY (V/m) @ t=0.7
0.35843096640767547
% es.EZ (V/m) @ t=0.7
-0.8398780789125828
% es.tEX (V/m) @ t=0.7
-0.9411973969660332
% es.tEY (V/m) @ t=0.7
0
% es.tEZ (V/m) @ t=0.7
-0.8398780789125819
% es.Ex (V/m) @ t=0.7
-0.9411973969660379
% es.Ey (V/m) @ t=0.7
0.35843096640767547
% es.Ez (V/m) @ t=0.7
-0.8398780789125828
% es.tEx (V/m) @ t=0.7
-0.9411973969660332
% es.tEy (V/m) @ t=0.7
0
% es.tEz (V/m) @ t=0.7
-0.8398780789125819
% V (V) @ t=0.7
0.013379692135876097
% es.normE (V/m) @ t=0.72
1.3264969429338167
% es.EX (V/m) @ t=0.72
-0.9496504571008841
% es.EY (V/m) @ t=0.72
0.3616494905952572
% es.EZ (V/m) @ t=0.72
-0.8474212955182523
% es.tEX (V/m) @ t=0.72
-0.9496504571008821
% es.tEY (V/m) @ t=0.72
0
% es.tEZ (V/m) @ t=0.72
-0.8474212955182541
% es.Ex (V/m) @ t=0.72
-0.9496504571008841
% es.Ey (V/m) @ t=0.72
0.3616494905952572
% es.Ez (V/m) @ t=0.72
-0.8474212955182523
% es.tEx (V/m) @ t=0.72
-0.9496504571008821
% es.tEy (V/m) @ t=0.72
0
% es.tEz (V/m) @ t=0.72
-0.8474212955182541
% V (V) @ t=0.72
0.013499878182071804
% es.normE (V/m) @ t=0.74
1.3383042805222503
% es.EX (V/m) @ t=0.74
-0.9581035172357579
% es.EY (V/m) @ t=0.74
0.36486801478284425
% es.EZ (V/m) @ t=0.74
-0.8549645121239298
% es.tEX (V/m) @ t=0.74
-0.9581035172357537
% es.tEY (V/m) @ t=0.74
0
% es.tEZ (V/m) @ t=0.74
-0.8549645121239369
% es.Ex (V/m) @ t=0.74
-0.9581035172357579
% es.Ey (V/m) @ t=0.74
0.36486801478284425
% es.Ez (V/m) @ t=0.74
-0.8549645121239298
% es.tEx (V/m) @ t=0.74
-0.9581035172357537
% es.tEy (V/m) @ t=0.74
0
% es.tEz (V/m) @ t=0.74
-0.8549645121239369
% V (V) @ t=0.74
0.01362006422826751
% es.normE (V/m) @ t=0.76
1.3501116181111152
% es.EX (V/m) @ t=0.76
-0.9665565773706237
% es.EY (V/m) @ t=0.76
0.3680865389704402
% es.EZ (V/m) @ t=0.76
-0.8625077287296108
% es.tEX (V/m) @ t=0.76
-0.9665565773706191
% es.tEY (V/m) @ t=0.76
0
% es.tEZ (V/m) @ t=0.76
-0.8625077287296072
% es.Ex (V/m) @ t=0.76
-0.9665565773706237
% es.Ey (V/m) @ t=0.76
0.3680865389704402
% es.Ez (V/m) @ t=0.76
-0.8625077287296108
% es.tEx (V/m) @ t=0.76
-0.9665565773706191
% es.tEy (V/m) @ t=0.76
0
% es.tEz (V/m) @ t=0.76
-0.8625077287296072
% V (V) @ t=0.76
0.013740250274463219
% es.normE (V/m) @ t=0.78
1.3619189557003961
% es.EX (V/m) @ t=0.78
-0.9750096375054869
% es.EY (V/m) @ t=0.78
0.371305063158033
% es.EZ (V/m) @ t=0.78
-0.8700509453352865
% es.tEX (V/m) @ t=0.78
-0.9750096375054804
% es.tEY (V/m) @ t=0.78
0
% es.tEZ (V/m) @ t=0.78
-0.87005094533529
% es.Ex (V/m) @ t=0.78
-0.9750096375054869
% es.Ey (V/m) @ t=0.78
0.371305063158033
% es.Ez (V/m) @ t=0.78
-0.8700509453352865
% es.tEx (V/m) @ t=0.78
-0.9750096375054804
% es.tEy (V/m) @ t=0.78
0
% es.tEz (V/m) @ t=0.78
-0.87005094533529
% V (V) @ t=0.78
0.013860436320658923
% es.normE (V/m) @ t=0.8
1.374683281059566
% es.EX (V/m) @ t=0.8
-0.9841478113366946
% es.EY (V/m) @ t=0.8
0.37478450974551025
% es.EZ (V/m) @ t=0.8
-0.8782055203797654
% es.tEX (V/m) @ t=0.8
-0.9841478113366899
% es.tEY (V/m) @ t=0.8
0
% es.tEZ (V/m) @ t=0.8
-0.8782055203797654
% es.Ex (V/m) @ t=0.8
-0.9841478113366946
% es.Ey (V/m) @ t=0.8
0.37478450974551025
% es.Ez (V/m) @ t=0.8
-0.8782055203797654
% es.tEx (V/m) @ t=0.8
-0.9841478113366899
% es.tEy (V/m) @ t=0.8
0
% es.tEz (V/m) @ t=0.8
-0.8782055203797654
% V (V) @ t=0.8
0.01399036116268597
% es.normE (V/m) @ t=0.82
1.3878227181152518
% es.EX (V/m) @ t=0.82
-0.9935545300426598
% es.EY (V/m) @ t=0.82
0.37836623041327666
% es.EZ (V/m) @ t=0.82
-0.8865997303581858
% es.tEX (V/m) @ t=0.82
-0.9935545300426543
% es.tEY (V/m) @ t=0.82
0
% es.tEZ (V/m) @ t=0.82
-0.8865997303581938
% es.Ex (V/m) @ t=0.82
-0.9935545300426598
% es.Ey (V/m) @ t=0.82
0.37836623041327666
% es.Ez (V/m) @ t=0.82
-0.8865997303581858
% es.tEx (V/m) @ t=0.82
-0.9935545300426543
% es.tEy (V/m) @ t=0.82
0
% es.tEz (V/m) @ t=0.82
-0.8865997303581938
% V (V) @ t=0.82
0.014124103332728063
% es.normE (V/m) @ t=0.84
1.4009621551712927
% es.EX (V/m) @ t=0.84
-1.0029612487485922
% es.EY (V/m) @ t=0.84
0.38194795108104795
% es.EZ (V/m) @ t=0.84
-0.8949939403366338
% es.tEX (V/m) @ t=0.84
-1.0029612487485875
% es.tEY (V/m) @ t=0.84
0
% es.tEZ (V/m) @ t=0.84
-0.8949939403366329
% es.Ex (V/m) @ t=0.84
-1.0029612487485922
% es.Ey (V/m) @ t=0.84
0.38194795108104795
% es.Ez (V/m) @ t=0.84
-0.8949939403366338
% es.tEx (V/m) @ t=0.84
-1.0029612487485875
% es.tEy (V/m) @ t=0.84
0
% es.tEz (V/m) @ t=0.84
-0.8949939403366329
% V (V) @ t=0.84
0.014257845502770155
% es.normE (V/m) @ t=0.86
1.4141015922276867
% es.EX (V/m) @ t=0.86
-1.012367967454549
% es.EY (V/m) @ t=0.86
0.38552967174881614
% es.EZ (V/m) @ t=0.86
-0.9033881503150649
% es.tEX (V/m) @ t=0.86
-1.0123679674545452
% es.tEY (V/m) @ t=0.86
0
% es.tEZ (V/m) @ t=0.86
-0.9033881503150685
% es.Ex (V/m) @ t=0.86
-1.012367967454549
% es.Ey (V/m) @ t=0.86
0.38552967174881614
% es.Ez (V/m) @ t=0.86
-0.9033881503150649
% es.tEx (V/m) @ t=0.86
-1.0123679674545452
% es.tEy (V/m) @ t=0.86
0
% es.tEz (V/m) @ t=0.86
-0.9033881503150685
% V (V) @ t=0.86
0.014391587672812244
% es.normE (V/m) @ t=0.88
1.4272410292844135
% es.EX (V/m) @ t=0.88
-1.0217746861604933
% es.EY (V/m) @ t=0.88
0.38911139241659276
% es.EZ (V/m) @ t=0.88
-0.9117823602934934
% es.tEX (V/m) @ t=0.88
-1.0217746861604895
% es.tEY (V/m) @ t=0.88
0
% es.tEZ (V/m) @ t=0.88
-0.9117823602934969
% es.Ex (V/m) @ t=0.88
-1.0217746861604933
% es.Ey (V/m) @ t=0.88
0.38911139241659276
% es.Ez (V/m) @ t=0.88
-0.9117823602934934
% es.tEx (V/m) @ t=0.88
-1.0217746861604895
% es.tEy (V/m) @ t=0.88
0
% es.tEz (V/m) @ t=0.88
-0.9117823602934969
% V (V) @ t=0.88
0.014525329842854333
% es.normE (V/m) @ t=0.9
1.4403804663414734
% es.EX (V/m) @ t=0.9
-1.0311814048664412
% es.EY (V/m) @ t=0.9
0.39269311308435206
% es.EZ (V/m) @ t=0.9
-0.9201765702719298
% es.tEX (V/m) @ t=0.9
-1.0311814048664392
% es.tEY (V/m) @ t=0.9
0
% es.tEZ (V/m) @ t=0.9
-0.920176570271936
% es.Ex (V/m) @ t=0.9
-1.0311814048664412
% es.Ey (V/m) @ t=0.9
0.39269311308435206
% es.Ez (V/m) @ t=0.9
-0.9201765702719298
% es.tEx (V/m) @ t=0.9
-1.0311814048664392
% es.tEy (V/m) @ t=0.9
0
% es.tEz (V/m) @ t=0.9
-0.920176570271936
% V (V) @ t=0.9
0.01465907201289643
% es.normE (V/m) @ t=0.92
1.4535199033988488
% es.EX (V/m) @ t=0.92
-1.0405881235723802
% es.EY (V/m) @ t=0.92
0.39627483375212913
% es.EZ (V/m) @ t=0.92
-0.9285707802503609
% es.tEX (V/m) @ t=0.92
-1.0405881235723862
% es.tEY (V/m) @ t=0.92
0
% es.tEZ (V/m) @ t=0.92
-0.9285707802503644
% es.Ex (V/m) @ t=0.92
-1.0405881235723802
% es.Ey (V/m) @ t=0.92
0.39627483375212913
% es.Ez (V/m) @ t=0.92
-0.9285707802503609
% es.tEx (V/m) @ t=0.92
-1.0405881235723862
% es.tEy (V/m) @ t=0.92
0
% es.tEz (V/m) @ t=0.92
-0.9285707802503644
% V (V) @ t=0.92
0.014792814182938518
% es.normE (V/m) @ t=0.94
1.466659340456553
% es.EX (V/m) @ t=0.94
-1.0499948422783303
% es.EY (V/m) @ t=0.94
0.39985655441991064
% es.EZ (V/m) @ t=0.94
-0.9369649902288018
% es.tEX (V/m) @ t=0.94
-1.0499948422783292
% es.tEY (V/m) @ t=0.94
0
% es.tEZ (V/m) @ t=0.94
-0.9369649902288018
% es.Ex (V/m) @ t=0.94
-1.0499948422783303
% es.Ey (V/m) @ t=0.94
0.39985655441991064
% es.Ez (V/m) @ t=0.94
-0.9369649902288018
% es.tEx (V/m) @ t=0.94
-1.0499948422783292
% es.tEy (V/m) @ t=0.94
0
% es.tEz (V/m) @ t=0.94
-0.9369649902288018
% V (V) @ t=0.94
0.01492655635298061
% es.normE (V/m) @ t=0.96
1.4797987775145527
% es.EX (V/m) @ t=0.96
-1.0594015609842906
% es.EY (V/m) @ t=0.96
0.40343827508768104
% es.EZ (V/m) @ t=0.96
-0.945359200207224
% es.tEX (V/m) @ t=0.96
-1.0594015609842877
% es.tEY (V/m) @ t=0.96
0
% es.tEZ (V/m) @ t=0.96
-0.9453592002072249
% es.Ex (V/m) @ t=0.96
-1.0594015609842906
% es.Ey (V/m) @ t=0.96
0.40343827508768104
% es.Ez (V/m) @ t=0.96
-0.945359200207224
% es.tEx (V/m) @ t=0.96
-1.0594015609842877
% es.tEy (V/m) @ t=0.96
0
% es.tEz (V/m) @ t=0.96
-0.9453592002072249
% V (V) @ t=0.96
0.015060298523022705
% es.normE (V/m) @ t=0.98
1.4929382145728458
% es.EX (V/m) @ t=0.98
-1.0688082796902354
% es.EY (V/m) @ t=0.98
0.407019995755427
% es.EZ (V/m) @ t=0.98
-0.9537534101856657
% es.tEX (V/m) @ t=0.98
-1.0688082796902343
% es.tEY (V/m) @ t=0.98
0
% es.tEZ (V/m) @ t=0.98
-0.9537534101856693
% es.Ex (V/m) @ t=0.98
-1.0688082796902354
% es.Ey (V/m) @ t=0.98
0.407019995755427
% es.Ez (V/m) @ t=0.98
-0.9537534101856657
% es.tEx (V/m) @ t=0.98
-1.0688082796902343
% es.tEy (V/m) @ t=0.98
0
% es.tEz (V/m) @ t=0.98
-0.9537534101856693
% V (V) @ t=0.98
0.015194040693064797
% es.normE (V/m) @ t=1
1.5060776516314305
% es.EX (V/m) @ t=1
-1.0782149983961868
% es.EY (V/m) @ t=1
0.41060171642321075
% es.EZ (V/m) @ t=1
-0.9621476201640924
% es.tEX (V/m) @ t=1
-1.0782149983961848
% es.tEY (V/m) @ t=1
0
% es.tEZ (V/m) @ t=1
-0.9621476201641066
% es.Ex (V/m) @ t=1
-1.0782149983961868
% es.Ey (V/m) @ t=1
0.41060171642321075
% es.Ez (V/m) @ t=1
-0.9621476201640924
% es.tEx (V/m) @ t=1
-1.0782149983961848
% es.tEy (V/m) @ t=1
0
% es.tEz (V/m) @ t=1
-0.9621476201641066
% V (V) @ t=1
0.015327782863106886
% es.normE (V/m) @ t=1.02
1.5192170886902892
% es.EX (V/m) @ t=1.02
-1.0876217171021254
% es.EY (V/m) @ t=1.02
0.41418343709097494
% es.EZ (V/m) @ t=1.02
-0.9705418301425315
% es.tEX (V/m) @ t=1.02
-1.0876217171021278
% es.tEY (V/m) @ t=1.02
0
% es.tEZ (V/m) @ t=1.02
-0.9705418301425421
% es.Ex (V/m) @ t=1.02
-1.0876217171021254
% es.Ey (V/m) @ t=1.02
0.41418343709097494
% es.Ez (V/m) @ t=1.02
-0.9705418301425315
% es.tEx (V/m) @ t=1.02
-1.0876217171021278
% es.tEy (V/m) @ t=1.02
0
% es.tEz (V/m) @ t=1.02
-0.9705418301425421
% V (V) @ t=1.02
0.015461525033148979