% Model:              1 neuron.mph
% Version:            COMSOL 6.1.0.252
% Date:               Mar 22 2023, 20:15
% Dimension:          0
% Nodes:              14017
% Expressions:        14017
% Description:        Electric field norm, Electric field, X component, Electric field, Y component, Electric field, Z component, Tangential electric field, X component, Tangential electric field, Y component, Tangential electric field, Z component, Electric field, x component, Electric field, y component, Electric field, z component, Tangential electric field, x component, Tangential electric field, y component, Tangential electric field, z component, Electric potential
% Length unit:        mm
% x
1.33
% y
12.2
% z
1
% es.normE (V/m) @ t=0
2.3752639852492403
% es.EX (V/m) @ t=0
0.7331577011378693
% es.EY (V/m) @ t=0
0.17761709827666206
% es.EZ (V/m) @ t=0
2.25227388269919
% es.tEX (V/m) @ t=0
0.7331577011378627
% es.tEY (V/m) @ t=0
0
% es.tEZ (V/m) @ t=0
2.252273882699191
% es.Ex (V/m) @ t=0
0.7331577011378693
% es.Ey (V/m) @ t=0
0.17761709827666206
% es.Ez (V/m) @ t=0
2.25227388269919
% es.tEx (V/m) @ t=0
0.7331577011378627
% es.tEy (V/m) @ t=0
0
% es.tEz (V/m) @ t=0
2.252273882699191
% V (V) @ t=0
0.011109175122988747
% es.normE (V/m) @ t=0.02
2.0515508393654276
% es.EX (V/m) @ t=0.02
0.6332392132849722
% es.EY (V/m) @ t=0.02
0.15341053024311202
% es.EZ (V/m) @ t=0.02
1.9453224581058102
% es.tEX (V/m) @ t=0.02
0.6332392132849805
% es.tEY (V/m) @ t=0.02
0
% es.tEZ (V/m) @ t=0.02
1.9453224581058084
% es.Ex (V/m) @ t=0.02
0.6332392132849722
% es.Ey (V/m) @ t=0.02
0.15341053024311202
% es.Ez (V/m) @ t=0.02
1.9453224581058102
% es.tEx (V/m) @ t=0.02
0.6332392132849805
% es.tEy (V/m) @ t=0.02
0
% es.tEz (V/m) @ t=0.02
1.9453224581058084
% V (V) @ t=0.02
0.009595159810555465
% es.normE (V/m) @ t=0.04
2.0704332636826033
% es.EX (V/m) @ t=0.04
0.6390675316340043
% es.EY (V/m) @ t=0.04
0.15482251696565108
% es.EZ (V/m) @ t=0.04
1.9632271589962356
% es.tEX (V/m) @ t=0.04
0.6390675316340051
% es.tEY (V/m) @ t=0.04
0
% es.tEZ (V/m) @ t=0.04
1.9632271589962311
% es.Ex (V/m) @ t=0.04
0.6390675316340043
% es.Ey (V/m) @ t=0.04
0.15482251696565108
% es.Ez (V/m) @ t=0.04
1.9632271589962356
% es.tEx (V/m) @ t=0.04
0.6390675316340051
% es.tEy (V/m) @ t=0.04
0
% es.tEz (V/m) @ t=0.04
1.9632271589962311
% V (V) @ t=0.04
0.009683473433866349
% es.normE (V/m) @ t=0.06
2.0894725361116855
% es.EX (V/m) @ t=0.06
0.6449442628945667
% es.EY (V/m) @ t=0.06
0.15624623170981666
% es.EZ (V/m) @ t=0.06
1.9812805866615468
% es.tEX (V/m) @ t=0.06
0.6449442628945761
% es.tEY (V/m) @ t=0.06
0
% es.tEZ (V/m) @ t=0.06
1.9812805866615424
% es.Ex (V/m) @ t=0.06
0.6449442628945667
% es.Ey (V/m) @ t=0.06
0.15624623170981666
% es.Ez (V/m) @ t=0.06
1.9812805866615468
% es.tEx (V/m) @ t=0.06
0.6449442628945761
% es.tEy (V/m) @ t=0.06
0
% es.tEz (V/m) @ t=0.06
1.9812805866615424
% V (V) @ t=0.06
0.009772520673697684
% es.normE (V/m) @ t=0.08
2.1088336875383673
% es.EX (V/m) @ t=0.08
0.6509203468198533
% es.EY (V/m) @ t=0.08
0.1576940164285976
% es.EZ (V/m) @ t=0.08
1.9996392264300256
% es.tEX (V/m) @ t=0.08
0.6509203468198521
% es.tEY (V/m) @ t=0.08
0
% es.tEZ (V/m) @ t=0.08
1.9996392264300376
% es.Ex (V/m) @ t=0.08
0.6509203468198533
% es.Ey (V/m) @ t=0.08
0.1576940164285976
% es.Ez (V/m) @ t=0.08
1.9996392264300256
% es.tEx (V/m) @ t=0.08
0.6509203468198521
% es.tEy (V/m) @ t=0.08
0
% es.tEz (V/m) @ t=0.08
1.9996392264300376
% V (V) @ t=0.08
0.009863073324773547
% es.normE (V/m) @ t=0.1
2.1283537927015286
% es.EX (V/m) @ t=0.1
0.6569454941428814
% es.EY (V/m) @ t=0.1
0.15915368764018045
% es.EZ (V/m) @ t=0.1
2.018148589310548
% es.tEX (V/m) @ t=0.1
0.6569454941428816
% es.tEY (V/m) @ t=0.1
0
% es.tEZ (V/m) @ t=0.1
2.018148589310563
% es.Ex (V/m) @ t=0.1
0.6569454941428814
% es.Ey (V/m) @ t=0.1
0.15915368764018045
% es.Ez (V/m) @ t=0.1
2.018148589310548
% es.tEx (V/m) @ t=0.1
0.6569454941428816
% es.tEy (V/m) @ t=0.1
0
% es.tEz (V/m) @ t=0.1
2.018148589310563
% V (V) @ t=0.1
0.00995436939416515
% es.normE (V/m) @ t=0.12
2.147873897864703
% es.EX (V/m) @ t=0.12
0.6629706414659247
% es.EY (V/m) @ t=0.12
0.16061335885173345
% es.EZ (V/m) @ t=0.12
2.036657952191082
% es.tEX (V/m) @ t=0.12
0.6629706414659253
% es.tEY (V/m) @ t=0.12
0
% es.tEZ (V/m) @ t=0.12
2.0366579521910992
% es.Ex (V/m) @ t=0.12
0.6629706414659247
% es.Ey (V/m) @ t=0.12
0.16061335885173345
% es.Ez (V/m) @ t=0.12
2.036657952191082
% es.tEx (V/m) @ t=0.12
0.6629706414659253
% es.tEy (V/m) @ t=0.12
0
% es.tEz (V/m) @ t=0.12
2.0366579521910992
% V (V) @ t=0.12
0.010045665463556754
% es.normE (V/m) @ t=0.14
2.167748167144395
% es.EX (V/m) @ t=0.14
0.6691051062071783
% es.EY (V/m) @ t=0.14
0.16209951337498596
% es.EZ (V/m) @ t=0.14
2.0555031408113558
% es.tEX (V/m) @ t=0.14
0.6691051062071836
% es.tEY (V/m) @ t=0.14
0
% es.tEZ (V/m) @ t=0.14
2.055503140811357
% es.Ex (V/m) @ t=0.14
0.6691051062071783
% es.Ey (V/m) @ t=0.14
0.16209951337498596
% es.Ez (V/m) @ t=0.14
2.0555031408113558
% es.tEx (V/m) @ t=0.14
0.6691051062071836
% es.tEy (V/m) @ t=0.14
0
% es.tEz (V/m) @ t=0.14
2.055503140811357
% V (V) @ t=0.14
0.010138617982855093
% es.normE (V/m) @ t=0.16
2.188284324441923
% es.EX (V/m) @ t=0.16
0.6754438714009275
% es.EY (V/m) @ t=0.16
0.16363516186402804
% es.EZ (V/m) @ t=0.16
2.074975945338628
% es.tEX (V/m) @ t=0.16
0.6754438714009225
% es.tEY (V/m) @ t=0.16
0
% es.tEZ (V/m) @ t=0.16
2.074975945338643
% es.Ex (V/m) @ t=0.16
0.6754438714009275
% es.Ey (V/m) @ t=0.16
0.16363516186402804
% es.Ez (V/m) @ t=0.16
2.074975945338628
% es.tEx (V/m) @ t=0.16
0.6754438714009225
% es.tEy (V/m) @ t=0.16
0
% es.tEz (V/m) @ t=0.16
2.074975945338643
% V (V) @ t=0.16
0.010234666197889536
% es.normE (V/m) @ t=0.18
2.2088204817394734
% es.EX (V/m) @ t=0.18
0.6817826365946809
% es.EY (V/m) @ t=0.18
0.16517081035308567
% es.EZ (V/m) @ t=0.18
2.0944487498659217
% es.tEX (V/m) @ t=0.18
0.68178263659469
% es.tEY (V/m) @ t=0.18
0
% es.tEZ (V/m) @ t=0.18
2.0944487498659186
% es.Ex (V/m) @ t=0.18
0.6817826365946809
% es.Ey (V/m) @ t=0.18
0.16517081035308567
% es.Ez (V/m) @ t=0.18
2.0944487498659217
% es.tEx (V/m) @ t=0.18
0.68178263659469
% es.tEy (V/m) @ t=0.18
0
% es.tEz (V/m) @ t=0.18
2.0944487498659186
% V (V) @ t=0.18
0.010330714412923978
% es.normE (V/m) @ t=0.2
2.2293566390370154
% es.EX (V/m) @ t=0.2
0.6881214017884282
% es.EY (V/m) @ t=0.2
0.1667064588421573
% es.EZ (V/m) @ t=0.2
2.1139215543932073
% es.tEX (V/m) @ t=0.2
0.6881214017884361
% es.tEY (V/m) @ t=0.2
0
% es.tEZ (V/m) @ t=0.2
2.113921554393226
% es.Ex (V/m) @ t=0.2
0.6881214017884282
% es.Ey (V/m) @ t=0.2
0.1667064588421573
% es.Ez (V/m) @ t=0.2
2.1139215543932073
% es.tEx (V/m) @ t=0.2
0.6881214017884361
% es.tEy (V/m) @ t=0.2
0
% es.tEz (V/m) @ t=0.2
2.113921554393226
% V (V) @ t=0.2
0.010426762627958419
% es.normE (V/m) @ t=0.22
2.249892796334566
% es.EX (V/m) @ t=0.22
0.694460166982176
% es.EY (V/m) @ t=0.22
0.16824210733118694
% es.EZ (V/m) @ t=0.22
2.1333943589205044
% es.tEX (V/m) @ t=0.22
0.694460166982175
% es.tEY (V/m) @ t=0.22
0
% es.tEZ (V/m) @ t=0.22
2.1333943589205067
% es.Ex (V/m) @ t=0.22
0.694460166982176
% es.Ey (V/m) @ t=0.22
0.16824210733118694
% es.Ez (V/m) @ t=0.22
2.1333943589205044
% es.tEx (V/m) @ t=0.22
0.694460166982175
% es.tEy (V/m) @ t=0.22
0
% es.tEz (V/m) @ t=0.22
2.1333943589205067
% V (V) @ t=0.22
0.010522810842992862
% es.normE (V/m) @ t=0.24
2.2704289536321065
% es.EX (V/m) @ t=0.24
0.7007989321759167
% es.EY (V/m) @ t=0.24
0.16977775582024857
% es.EZ (V/m) @ t=0.24
2.1528671634477914
% es.tEX (V/m) @ t=0.24
0.7007989321759212
% es.tEY (V/m) @ t=0.24
0
% es.tEZ (V/m) @ t=0.24
2.1528671634477927
% es.Ex (V/m) @ t=0.24
0.7007989321759167
% es.Ey (V/m) @ t=0.24
0.16977775582024857
% es.Ez (V/m) @ t=0.24
2.1528671634477914
% es.tEx (V/m) @ t=0.24
0.7007989321759212
% es.tEy (V/m) @ t=0.24
0
% es.tEz (V/m) @ t=0.24
2.1528671634477927
% V (V) @ t=0.24
0.010618859058027303
% es.normE (V/m) @ t=0.26
2.290965110929653
% es.EX (V/m) @ t=0.26
0.7071376973696607
% es.EY (V/m) @ t=0.26
0.17131340430929876
% es.EZ (V/m) @ t=0.26
2.172339967975084
% es.tEX (V/m) @ t=0.26
0.7071376973696673
% es.tEY (V/m) @ t=0.26
0
% es.tEZ (V/m) @ t=0.26
2.1723399679750877
% es.Ex (V/m) @ t=0.26
0.7071376973696607
% es.Ey (V/m) @ t=0.26
0.17131340430929876
% es.Ez (V/m) @ t=0.26
2.172339967975084
% es.tEx (V/m) @ t=0.26
0.7071376973696673
% es.tEy (V/m) @ t=0.26
0
% es.tEz (V/m) @ t=0.26
2.1723399679750877
% V (V) @ t=0.26
0.010714907273061743
% es.normE (V/m) @ t=0.28
2.31311209909785
% es.EX (V/m) @ t=0.28
0.7139736520951329
% es.EY (V/m) @ t=0.28
0.17296948171314952
% es.EZ (V/m) @ t=0.28
2.193340202269992
% es.tEX (V/m) @ t=0.28
0.7139736520951345
% es.tEY (V/m) @ t=0.28
0
% es.tEZ (V/m) @ t=0.28
2.1933402022699955
% es.Ex (V/m) @ t=0.28
0.7139736520951329
% es.Ey (V/m) @ t=0.28
0.17296948171314952
% es.Ez (V/m) @ t=0.28
2.193340202269992
% es.tEx (V/m) @ t=0.28
0.7139736520951345
% es.tEy (V/m) @ t=0.28
0
% es.tEz (V/m) @ t=0.28
2.1933402022699955
% V (V) @ t=0.28
0.010818490609422773
% es.normE (V/m) @ t=0.3
2.3359270888500143
% es.EX (V/m) @ t=0.3
0.721015788239635
% es.EY (V/m) @ t=0.3
0.17467550024197054
% es.EZ (V/m) @ t=0.3
2.2149738522280553
% es.tEX (V/m) @ t=0.3
0.7210157882396473
% es.tEY (V/m) @ t=0.3
0
% es.tEZ (V/m) @ t=0.3
2.2149738522280753
% es.Ex (V/m) @ t=0.3
0.721015788239635
% es.Ey (V/m) @ t=0.3
0.17467550024197054
% es.Ez (V/m) @ t=0.3
2.2149738522280553
% es.tEx (V/m) @ t=0.3
0.7210157882396473
% es.tEy (V/m) @ t=0.3
0
% es.tEz (V/m) @ t=0.3
2.2149738522280753
% V (V) @ t=0.3
0.010925198713922567
% es.normE (V/m) @ t=0.32
2.3587420786022077
% es.EX (V/m) @ t=0.32
0.7280579243841354
% es.EY (V/m) @ t=0.32
0.17638151877076047
% es.EZ (V/m) @ t=0.32
2.2366075021861516
% es.tEX (V/m) @ t=0.32
0.7280579243841387
% es.tEY (V/m) @ t=0.32
0
% es.tEZ (V/m) @ t=0.32
2.236607502186141
% es.Ex (V/m) @ t=0.32
0.7280579243841354
% es.Ey (V/m) @ t=0.32
0.17638151877076047
% es.Ez (V/m) @ t=0.32
2.2366075021861516
% es.tEx (V/m) @ t=0.32
0.7280579243841387
% es.tEy (V/m) @ t=0.32
0
% es.tEz (V/m) @ t=0.32
2.236607502186141
% V (V) @ t=0.32
0.01103190681842236
% es.normE (V/m) @ t=0.34
2.3815570683543994
% es.EX (V/m) @ t=0.34
0.7351000605286286
% es.EY (V/m) @ t=0.34
0.1780875372995916
% es.EZ (V/m) @ t=0.34
2.2582411521442443
% es.tEX (V/m) @ t=0.34
0.7351000605286373
% es.tEY (V/m) @ t=0.34
0
% es.tEZ (V/m) @ t=0.34
2.2582411521442456
% es.Ex (V/m) @ t=0.34
0.7351000605286286
% es.Ey (V/m) @ t=0.34
0.1780875372995916
% es.Ez (V/m) @ t=0.34
2.2582411521442443
% es.tEx (V/m) @ t=0.34
0.7351000605286373
% es.tEy (V/m) @ t=0.34
0
% es.tEz (V/m) @ t=0.34
2.2582411521442456
% V (V) @ t=0.34
0.011138614922922155
% es.normE (V/m) @ t=0.36
2.404372058106593
% es.EX (V/m) @ t=0.36
0.7421421966731389
% es.EY (V/m) @ t=0.36
0.17979355582841605
% es.EZ (V/m) @ t=0.36
2.2798748021023325
% es.tEX (V/m) @ t=0.36
0.7421421966731359
% es.tEY (V/m) @ t=0.36
0
% es.tEZ (V/m) @ t=0.36
2.2798748021023414
% es.Ex (V/m) @ t=0.36
0.7421421966731389
% es.Ey (V/m) @ t=0.36
0.17979355582841605
% es.Ez (V/m) @ t=0.36
2.2798748021023325
% es.tEx (V/m) @ t=0.36
0.7421421966731359
% es.tEy (V/m) @ t=0.36
0
% es.tEz (V/m) @ t=0.36
2.2798748021023414
% V (V) @ t=0.36
0.011245323027421946
% es.normE (V/m) @ t=0.38
2.4271870478588013
% es.EX (V/m) @ t=0.38
0.7491843328176461
% es.EY (V/m) @ t=0.38
0.18149957435722563
% es.EZ (V/m) @ t=0.38
2.3015084520604385
% es.tEX (V/m) @ t=0.38
0.7491843328176486
% es.tEY (V/m) @ t=0.38
0
% es.tEZ (V/m) @ t=0.38
2.301508452060437
% es.Ex (V/m) @ t=0.38
0.7491843328176461
% es.Ey (V/m) @ t=0.38
0.18149957435722563
% es.Ez (V/m) @ t=0.38
2.3015084520604385
% es.tEx (V/m) @ t=0.38
0.7491843328176486
% es.tEy (V/m) @ t=0.38
0
% es.tEz (V/m) @ t=0.38
2.301508452060437
% V (V) @ t=0.38
0.011352031131921743
% es.normE (V/m) @ t=0.4
2.450002037610977
% es.EX (V/m) @ t=0.4
0.7562264689621323
% es.EY (V/m) @ t=0.4
0.18320559288606164
% es.EZ (V/m) @ t=0.4
2.3231421020185135
% es.tEX (V/m) @ t=0.4
0.756226468962133
% es.tEY (V/m) @ t=0.4
0
% es.tEZ (V/m) @ t=0.4
2.3231421020185277
% es.Ex (V/m) @ t=0.4
0.7562264689621323
% es.Ey (V/m) @ t=0.4
0.18320559288606164
% es.Ez (V/m) @ t=0.4
2.3231421020185135
% es.tEx (V/m) @ t=0.4
0.756226468962133
% es.tEy (V/m) @ t=0.4
0
% es.tEz (V/m) @ t=0.4
2.3231421020185277
% V (V) @ t=0.4
0.011458739236421538
% es.normE (V/m) @ t=0.42
2.4728170273631678
% es.EX (V/m) @ t=0.42
0.7632686051066385
% es.EY (V/m) @ t=0.42
0.18491161141486834
% es.EZ (V/m) @ t=0.42
2.3447757519765986
% es.tEX (V/m) @ t=0.42
0.7632686051066386
% es.tEY (V/m) @ t=0.42
0
% es.tEZ (V/m) @ t=0.42
2.344775751976595
% es.Ex (V/m) @ t=0.42
0.7632686051066385
% es.Ey (V/m) @ t=0.42
0.18491161141486834
% es.Ez (V/m) @ t=0.42
2.3447757519765986
% es.tEx (V/m) @ t=0.42
0.7632686051066386
% es.tEy (V/m) @ t=0.42
0
% es.tEz (V/m) @ t=0.42
2.344775751976595
% V (V) @ t=0.42
0.011565447340921332
% es.normE (V/m) @ t=0.44
2.495632017115354
% es.EX (V/m) @ t=0.44
0.7703107412511354
% es.EY (V/m) @ t=0.44
0.18661762994369058
% es.EZ (V/m) @ t=0.44
2.3664094019346806
% es.tEX (V/m) @ t=0.44
0.7703107412511514
% es.tEY (V/m) @ t=0.44
0
% es.tEZ (V/m) @ t=0.44
2.366409401934675
% es.Ex (V/m) @ t=0.44
0.7703107412511354
% es.Ey (V/m) @ t=0.44
0.18661762994369058
% es.Ez (V/m) @ t=0.44
2.3664094019346806
% es.tEx (V/m) @ t=0.44
0.7703107412511514
% es.tEy (V/m) @ t=0.44
0
% es.tEz (V/m) @ t=0.44
2.366409401934675
% V (V) @ t=0.44
0.011672155445421127
% es.normE (V/m) @ t=0.46
2.5184470068675258
% es.EX (V/m) @ t=0.46
0.7773528773956426
% es.EY (V/m) @ t=0.46
0.18832364847251348
% es.EZ (V/m) @ t=0.46
2.388043051892743
% es.tEX (V/m) @ t=0.46
0.7773528773956428
% es.tEY (V/m) @ t=0.46
0
% es.tEZ (V/m) @ t=0.46
2.388043051892769
% es.Ex (V/m) @ t=0.46
0.7773528773956426
% es.Ey (V/m) @ t=0.46
0.18832364847251348
% es.Ez (V/m) @ t=0.46
2.388043051892743
% es.tEx (V/m) @ t=0.46
0.7773528773956428
% es.tEy (V/m) @ t=0.46
0
% es.tEz (V/m) @ t=0.46
2.388043051892769
% V (V) @ t=0.46
0.01177886354992092
% es.normE (V/m) @ t=0.48
2.5412619966197285
% es.EX (V/m) @ t=0.48
0.7843950135401346
% es.EY (V/m) @ t=0.48
0.19002966700131751
% es.EZ (V/m) @ t=0.48
2.4096767018508443
% es.tEX (V/m) @ t=0.48
0.7843950135401485
% es.tEY (V/m) @ t=0.48
0
% es.tEZ (V/m) @ t=0.48
2.409676701850847
% es.Ex (V/m) @ t=0.48
0.7843950135401346
% es.Ey (V/m) @ t=0.48
0.19002966700131751
% es.Ez (V/m) @ t=0.48
2.4096767018508443
% es.tEx (V/m) @ t=0.48
0.7843950135401485
% es.tEy (V/m) @ t=0.48
0
% es.tEz (V/m) @ t=0.48
2.409676701850847
% V (V) @ t=0.48
0.011885571654420713
% es.normE (V/m) @ t=0.5
2.56407698637192
% es.EX (V/m) @ t=0.5
0.7914371496846427
% es.EY (V/m) @ t=0.5
0.19173568553014642
% es.EZ (V/m) @ t=0.5
2.4313103518089254
% es.tEX (V/m) @ t=0.5
0.7914371496846471
% es.tEY (V/m) @ t=0.5
0
% es.tEZ (V/m) @ t=0.5
2.4313103518089267
% es.Ex (V/m) @ t=0.5
0.7914371496846427
% es.Ey (V/m) @ t=0.5
0.19173568553014642
% es.Ez (V/m) @ t=0.5
2.4313103518089254
% es.tEx (V/m) @ t=0.5
0.7914371496846471
% es.tEy (V/m) @ t=0.5
0
% es.tEz (V/m) @ t=0.5
2.4313103518089267
% V (V) @ t=0.5
0.011992279758920511
% es.normE (V/m) @ t=0.52
2.5868919761241322
% es.EX (V/m) @ t=0.52
0.7984792858291401
% es.EY (V/m) @ t=0.52
0.19344170405896166
% es.EZ (V/m) @ t=0.52
2.4529440017670314
% es.tEX (V/m) @ t=0.52
0.7984792858291456
% es.tEY (V/m) @ t=0.52
0
% es.tEZ (V/m) @ t=0.52
2.4529440017670208
% es.Ex (V/m) @ t=0.52
0.7984792858291401
% es.Ey (V/m) @ t=0.52
0.19344170405896166
% es.Ez (V/m) @ t=0.52
2.4529440017670314
% es.tEx (V/m) @ t=0.52
0.7984792858291456
% es.tEy (V/m) @ t=0.52
0
% es.tEz (V/m) @ t=0.52
2.4529440017670208
% V (V) @ t=0.52
0.012098987863420304
% es.normE (V/m) @ t=0.54
2.610797089994783
% es.EX (V/m) @ t=0.54
0.805857908939339
% es.EY (V/m) @ t=0.54
0.19522924814267217
% es.EZ (V/m) @ t=0.54
2.4756113273440117
% es.tEX (V/m) @ t=0.54
0.8058579089393447
% es.tEY (V/m) @ t=0.54
0
% es.tEZ (V/m) @ t=0.54
2.4756113273440157
% es.Ex (V/m) @ t=0.54
0.805857908939339
% es.Ey (V/m) @ t=0.54
0.19522924814267217
% es.Ez (V/m) @ t=0.54
2.4756113273440117
% es.tEx (V/m) @ t=0.54
0.8058579089393447
% es.tEy (V/m) @ t=0.54
0
% es.tEz (V/m) @ t=0.54
2.4756113273440157
% V (V) @ t=0.54
0.012210794099922352
% es.normE (V/m) @ t=0.56
2.636186390390215
% es.EX (V/m) @ t=0.56
0.8136946536631899
% es.EY (V/m) @ t=0.56
0.197127787963425
% es.EZ (V/m) @ t=0.56
2.4996859857178637
% es.tEX (V/m) @ t=0.56
0.813694653663191
% es.tEY (V/m) @ t=0.56
0
% es.tEZ (V/m) @ t=0.56
2.4996859857178713
% es.Ex (V/m) @ t=0.56
0.8136946536631899
% es.Ey (V/m) @ t=0.56
0.197127787963425
% es.Ez (V/m) @ t=0.56
2.4996859857178637
% es.tEx (V/m) @ t=0.56
0.813694653663191
% es.tEy (V/m) @ t=0.56
0
% es.tEz (V/m) @ t=0.56
2.4996859857178713
% V (V) @ t=0.56
0.012329541361479094
% es.normE (V/m) @ t=0.58
2.6615756907856287
% es.EX (V/m) @ t=0.58
0.8215313983870334
% es.EY (V/m) @ t=0.58
0.19902632778417695
% es.EZ (V/m) @ t=0.58
2.5237606440916993
% es.tEX (V/m) @ t=0.58
0.8215313983870374
% es.tEY (V/m) @ t=0.58
0
% es.tEZ (V/m) @ t=0.58
2.523760644091695
% es.Ex (V/m) @ t=0.58
0.8215313983870334
% es.Ey (V/m) @ t=0.58
0.19902632778417695
% es.Ez (V/m) @ t=0.58
2.5237606440916993
% es.tEx (V/m) @ t=0.58
0.8215313983870374
% es.tEy (V/m) @ t=0.58
0
% es.tEz (V/m) @ t=0.58
2.523760644091695
% V (V) @ t=0.58
0.012448288623035837
% es.normE (V/m) @ t=0.6
2.686964991181056
% es.EX (V/m) @ t=0.6
0.8293681431108795
% es.EY (V/m) @ t=0.6
0.20092486760492267
% es.EZ (V/m) @ t=0.6
2.547835302465548
% es.tEX (V/m) @ t=0.6
0.8293681431108766
% es.tEY (V/m) @ t=0.6
0
% es.tEZ (V/m) @ t=0.6
2.5478353024655362
% es.Ex (V/m) @ t=0.6
0.8293681431108795
% es.Ey (V/m) @ t=0.6
0.20092486760492267
% es.Ez (V/m) @ t=0.6
2.547835302465548
% es.tEx (V/m) @ t=0.6
0.8293681431108766
% es.tEy (V/m) @ t=0.6
0
% es.tEz (V/m) @ t=0.6
2.5478353024655362
% V (V) @ t=0.6
0.012567035884592577
% es.normE (V/m) @ t=0.62
2.7123542915764896
% es.EX (V/m) @ t=0.62
0.8372048878347518
% es.EY (V/m) @ t=0.62
0.20282340742564664
% es.EZ (V/m) @ t=0.62
2.571909960839397
% es.tEX (V/m) @ t=0.62
0.8372048878347655
% es.tEY (V/m) @ t=0.62
0
% es.tEZ (V/m) @ t=0.62
2.5719099608393936
% es.Ex (V/m) @ t=0.62
0.8372048878347518
% es.Ey (V/m) @ t=0.62
0.20282340742564664
% es.Ez (V/m) @ t=0.62
2.571909960839397
% es.tEx (V/m) @ t=0.62
0.8372048878347655
% es.tEy (V/m) @ t=0.62
0
% es.tEz (V/m) @ t=0.62
2.5719099608393936
% V (V) @ t=0.62
0.012685783146149321
% es.normE (V/m) @ t=0.64
2.7377435919719035
% es.EX (V/m) @ t=0.64
0.845041632558589
% es.EY (V/m) @ t=0.64
0.20472194724639958
% es.EZ (V/m) @ t=0.64
2.595984619213234
% es.tEX (V/m) @ t=0.64
0.8450416325585905
% es.tEY (V/m) @ t=0.64
0
% es.tEZ (V/m) @ t=0.64
2.5959846192132314
% es.Ex (V/m) @ t=0.64
0.845041632558589
% es.Ey (V/m) @ t=0.64
0.20472194724639958
% es.Ez (V/m) @ t=0.64
2.595984619213234
% es.tEx (V/m) @ t=0.64
0.8450416325585905
% es.tEy (V/m) @ t=0.64
0
% es.tEz (V/m) @ t=0.64
2.5959846192132314
% V (V) @ t=0.64
0.012804530407706063
% es.normE (V/m) @ t=0.66
2.7631328923673095
% es.EX (V/m) @ t=0.66
0.8528783772824506
% es.EY (V/m) @ t=0.66
0.20662048706711955
% es.EZ (V/m) @ t=0.66
2.6200592775870577
% es.tEX (V/m) @ t=0.66
0.8528783772824511
% es.tEY (V/m) @ t=0.66
0
% es.tEZ (V/m) @ t=0.66
2.620059277587073
% es.Ex (V/m) @ t=0.66
0.8528783772824506
% es.Ey (V/m) @ t=0.66
0.20662048706711955
% es.Ez (V/m) @ t=0.66
2.6200592775870577
% es.tEx (V/m) @ t=0.66
0.8528783772824511
% es.tEy (V/m) @ t=0.66
0
% es.tEz (V/m) @ t=0.66
2.620059277587073
% V (V) @ t=0.66
0.012923277669262805
% es.normE (V/m) @ t=0.68
2.7885221927627297
% es.EX (V/m) @ t=0.68
0.8607151220063005
% es.EY (V/m) @ t=0.68
0.20851902688789736
% es.EZ (V/m) @ t=0.68
2.6441339359608955
% es.tEX (V/m) @ t=0.68
0.8607151220063045
% es.tEY (V/m) @ t=0.68
0
% es.tEZ (V/m) @ t=0.68
2.6441339359609124
% es.Ex (V/m) @ t=0.68
0.8607151220063005
% es.Ey (V/m) @ t=0.68
0.20851902688789736
% es.Ez (V/m) @ t=0.68
2.6441339359608955
% es.tEx (V/m) @ t=0.68
0.8607151220063045
% es.tEy (V/m) @ t=0.68
0
% es.tEz (V/m) @ t=0.68
2.6441339359609124
% V (V) @ t=0.68
0.01304202493081955
% es.normE (V/m) @ t=0.7
2.8139114931581632
% es.EX (V/m) @ t=0.7
0.8685518667301524
% es.EY (V/m) @ t=0.7
0.21041756670864253
% es.EZ (V/m) @ t=0.7
2.6682085943347484
% es.tEX (V/m) @ t=0.7
0.8685518667301508
% es.tEY (V/m) @ t=0.7
0
% es.tEZ (V/m) @ t=0.7
2.6682085943347715
% es.Ex (V/m) @ t=0.7
0.8685518667301524
% es.Ey (V/m) @ t=0.7
0.21041756670864253
% es.Ez (V/m) @ t=0.7
2.6682085943347484
% es.tEx (V/m) @ t=0.7
0.8685518667301508
% es.tEy (V/m) @ t=0.7
0
% es.tEz (V/m) @ t=0.7
2.6682085943347715
% V (V) @ t=0.7
0.013160772192376293
% es.normE (V/m) @ t=0.72
2.8393007935535803
% es.EX (V/m) @ t=0.72
0.8763886114539976
% es.EY (V/m) @ t=0.72
0.21231610652938393
% es.EZ (V/m) @ t=0.72
2.692283252708587
% es.tEX (V/m) @ t=0.72
0.8763886114540114
% es.tEY (V/m) @ t=0.72
0
% es.tEZ (V/m) @ t=0.72
2.6922832527085667
% es.Ex (V/m) @ t=0.72
0.8763886114539976
% es.Ey (V/m) @ t=0.72
0.21231610652938393
% es.Ez (V/m) @ t=0.72
2.692283252708587
% es.tEx (V/m) @ t=0.72
0.8763886114540114
% es.tEy (V/m) @ t=0.72
0
% es.tEz (V/m) @ t=0.72
2.6922832527085667
% V (V) @ t=0.72
0.013279519453933035
% es.normE (V/m) @ t=0.74
2.8646900939490094
% es.EX (V/m) @ t=0.74
0.8842253561778644
% es.EY (V/m) @ t=0.74
0.2142146463501149
% es.EZ (V/m) @ t=0.74
2.716357911082432
% es.tEX (V/m) @ t=0.74
0.8842253561778577
% es.tEY (V/m) @ t=0.74
0
% es.tEZ (V/m) @ t=0.74
2.7163579110824365
% es.Ex (V/m) @ t=0.74
0.8842253561778644
% es.Ey (V/m) @ t=0.74
0.2142146463501149
% es.Ez (V/m) @ t=0.74
2.716357911082432
% es.tEx (V/m) @ t=0.74
0.8842253561778577
% es.tEy (V/m) @ t=0.74
0
% es.tEz (V/m) @ t=0.74
2.7163579110824365
% V (V) @ t=0.74
0.013398266715489777
% es.normE (V/m) @ t=0.76
2.8900793943444247
% es.EX (V/m) @ t=0.76
0.8920621009017202
% es.EY (V/m) @ t=0.76
0.21611318617087139
% es.EZ (V/m) @ t=0.76
2.7404325694562637
% es.tEX (V/m) @ t=0.76
0.8920621009017253
% es.tEY (V/m) @ t=0.76
0
% es.tEZ (V/m) @ t=0.76
2.7404325694562885
% es.Ex (V/m) @ t=0.76
0.8920621009017202
% es.Ey (V/m) @ t=0.76
0.21611318617087139
% es.Ez (V/m) @ t=0.76
2.7404325694562637
% es.tEx (V/m) @ t=0.76
0.8920621009017253
% es.tEy (V/m) @ t=0.76
0
% es.tEz (V/m) @ t=0.76
2.7404325694562885
% V (V) @ t=0.76
0.01351701397704652
% es.normE (V/m) @ t=0.78
2.915468694739856
% es.EX (V/m) @ t=0.78
0.8998988456255659
% es.EY (V/m) @ t=0.78
0.21801172599162766
% es.EZ (V/m) @ t=0.78
2.7645072278301157
% es.tEX (V/m) @ t=0.78
0.8998988456255645
% es.tEY (V/m) @ t=0.78
0
% es.tEZ (V/m) @ t=0.78
2.7645072278301335
% es.Ex (V/m) @ t=0.78
0.8998988456255659
% es.Ey (V/m) @ t=0.78
0.21801172599162766
% es.Ez (V/m) @ t=0.78
2.7645072278301157
% es.tEx (V/m) @ t=0.78
0.8998988456255645
% es.tEy (V/m) @ t=0.78
0
% es.tEz (V/m) @ t=0.78
2.7645072278301335
% V (V) @ t=0.78
0.013635761238603264
% es.normE (V/m) @ t=0.8
2.9412661221788783
% es.EX (V/m) @ t=0.8
0.907861565491139
% es.EY (V/m) @ t=0.8
0.21994078665485906
% es.EZ (V/m) @ t=0.8
2.7889688800851538
% es.tEX (V/m) @ t=0.8
0.9078615654911317
% es.tEY (V/m) @ t=0.8
0
% es.tEZ (V/m) @ t=0.8
2.788968880085161
% es.Ex (V/m) @ t=0.8
0.907861565491139
% es.Ey (V/m) @ t=0.8
0.21994078665485906
% es.Ez (V/m) @ t=0.8
2.7889688800851538
% es.tEx (V/m) @ t=0.8
0.9078615654911317
% es.tEy (V/m) @ t=0.8
0
% es.tEz (V/m) @ t=0.8
2.788968880085161
% V (V) @ t=0.8
0.01375641722821429
% es.normE (V/m) @ t=0.82
2.9695694015535246
% es.EX (V/m) @ t=0.82
0.9165977578763316
% es.EY (V/m) @ t=0.82
0.22205724169321228
% es.EZ (V/m) @ t=0.82
2.8158066291499138
% es.tEX (V/m) @ t=0.82
0.9165977578763318
% es.tEY (V/m) @ t=0.82
0
% es.tEZ (V/m) @ t=0.82
2.8158066291499146
% es.Ex (V/m) @ t=0.82
0.9165977578763316
% es.Ey (V/m) @ t=0.82
0.22205724169321228
% es.Ez (V/m) @ t=0.82
2.8158066291499138
% es.tEx (V/m) @ t=0.82
0.9165977578763318
% es.tEy (V/m) @ t=0.82
0
% es.tEz (V/m) @ t=0.82
2.8158066291499146
% V (V) @ t=0.82
0.013888792583067636
% es.normE (V/m) @ t=0.84
2.9978726809281557
% es.EX (V/m) @ t=0.84
0.9253339502614906
% es.EY (V/m) @ t=0.84
0.22417369673151244
% es.EZ (V/m) @ t=0.84
2.8426443782146738
% es.tEX (V/m) @ t=0.84
0.9253339502615034
% es.tEY (V/m) @ t=0.84
0
% es.tEZ (V/m) @ t=0.84
2.842644378214665
% es.Ex (V/m) @ t=0.84
0.9253339502614906
% es.Ey (V/m) @ t=0.84
0.22417369673151244
% es.Ez (V/m) @ t=0.84
2.8426443782146738
% es.tEx (V/m) @ t=0.84
0.9253339502615034
% es.tEy (V/m) @ t=0.84
0
% es.tEz (V/m) @ t=0.84
2.842644378214665
% V (V) @ t=0.84
0.014021167937920985
% es.normE (V/m) @ t=0.86
3.0261759603027882
% es.EX (V/m) @ t=0.86
0.9340701426466844
% es.EY (V/m) @ t=0.86
0.22629015176985168
% es.EZ (V/m) @ t=0.86
2.8694821272794204
% es.tEX (V/m) @ t=0.86
0.9340701426466893
% es.tEY (V/m) @ t=0.86
0
% es.tEZ (V/m) @ t=0.86
2.869482127279433
% es.Ex (V/m) @ t=0.86
0.9340701426466844
% es.Ey (V/m) @ t=0.86
0.22629015176985168
% es.Ez (V/m) @ t=0.86
2.8694821272794204
% es.tEx (V/m) @ t=0.86
0.9340701426466893
% es.tEy (V/m) @ t=0.86
0
% es.tEz (V/m) @ t=0.86
2.869482127279433
% V (V) @ t=0.86
0.01415354329277433
% es.normE (V/m) @ t=0.88
3.0544792396774323
% es.EX (V/m) @ t=0.88
0.9428063350318576
% es.EY (V/m) @ t=0.88
0.22840660680819092
% es.EZ (V/m) @ t=0.88
2.8963198763441858
% es.tEX (V/m) @ t=0.88
0.942806335031861
% es.tEY (V/m) @ t=0.88
0
% es.tEZ (V/m) @ t=0.88
2.8963198763441866
% es.Ex (V/m) @ t=0.88
0.9428063350318576
% es.Ey (V/m) @ t=0.88
0.22840660680819092
% es.Ez (V/m) @ t=0.88
2.8963198763441858
% es.tEx (V/m) @ t=0.88
0.942806335031861
% es.tEy (V/m) @ t=0.88
0
% es.tEz (V/m) @ t=0.88
2.8963198763441866
% V (V) @ t=0.88
0.014285918647627677
% es.normE (V/m) @ t=0.9
3.08278251905206
% es.EX (V/m) @ t=0.9
0.9515425274170404
% es.EY (V/m) @ t=0.9
0.2305230618465124
% es.EZ (V/m) @ t=0.9
2.9231576254089324
% es.tEX (V/m) @ t=0.9
0.9515425274170468
% es.tEY (V/m) @ t=0.9
0
% es.tEZ (V/m) @ t=0.9
2.923157625408951
% es.Ex (V/m) @ t=0.9
0.9515425274170404
% es.Ey (V/m) @ t=0.9
0.2305230618465124
% es.Ez (V/m) @ t=0.9
2.9231576254089324
% es.tEx (V/m) @ t=0.9
0.9515425274170468
% es.tEy (V/m) @ t=0.9
0
% es.tEz (V/m) @ t=0.9
2.923157625408951
% V (V) @ t=0.9
0.014418294002481027
% es.normE (V/m) @ t=0.92
3.1110857984267115
% es.EX (V/m) @ t=0.92
0.9602787198022296
% es.EY (V/m) @ t=0.92
0.2326395168848514
% es.EZ (V/m) @ t=0.92
2.9499953744737004
% es.tEX (V/m) @ t=0.92
0.9602787198022327
% es.tEY (V/m) @ t=0.92
0
% es.tEZ (V/m) @ t=0.92
2.949995374473705
% es.Ex (V/m) @ t=0.92
0.9602787198022296
% es.Ey (V/m) @ t=0.92
0.2326395168848514
% es.Ez (V/m) @ t=0.92
2.9499953744737004
% es.tEx (V/m) @ t=0.92
0.9602787198022327
% es.tEy (V/m) @ t=0.92
0
% es.tEz (V/m) @ t=0.92
2.949995374473705
% V (V) @ t=0.92
0.014550669357334373
% es.normE (V/m) @ t=0.94
3.139389077801339
% es.EX (V/m) @ t=0.94
0.9690149121873963
% es.EY (V/m) @ t=0.94
0.23475597192316222
% es.EZ (V/m) @ t=0.94
2.9768331235384524
% es.tEX (V/m) @ t=0.94
0.9690149121874043
% es.tEY (V/m) @ t=0.94
0
% es.tEZ (V/m) @ t=0.94
2.9768331235384693
% es.Ex (V/m) @ t=0.94
0.9690149121873963
% es.Ey (V/m) @ t=0.94
0.23475597192316222
% es.Ez (V/m) @ t=0.94
2.9768331235384524
% es.tEx (V/m) @ t=0.94
0.9690149121874043
% es.tEy (V/m) @ t=0.94
0
% es.tEz (V/m) @ t=0.94
2.9768331235384693
% V (V) @ t=0.94
0.01468304471218772
% es.normE (V/m) @ t=0.96
3.167692357175995
% es.EX (V/m) @ t=0.96
0.9777511045725851
% es.EY (V/m) @ t=0.96
0.23687242696149813
% es.EZ (V/m) @ t=0.96
3.0036708726032257
% es.tEX (V/m) @ t=0.96
0.9777511045725902
% es.tEY (V/m) @ t=0.96
0
% es.tEZ (V/m) @ t=0.96
3.003670872603223
% es.Ex (V/m) @ t=0.96
0.9777511045725851
% es.Ey (V/m) @ t=0.96
0.23687242696149813
% es.Ez (V/m) @ t=0.96
3.0036708726032257
% es.tEx (V/m) @ t=0.96
0.9777511045725902
% es.tEy (V/m) @ t=0.96
0
% es.tEz (V/m) @ t=0.96
3.003670872603223
% V (V) @ t=0.96
0.014815420067041066
% es.normE (V/m) @ t=0.98
3.1959956365506352
% es.EX (V/m) @ t=0.98
0.986487296957756
% es.EY (V/m) @ t=0.98
0.23898888199984825
% es.EZ (V/m) @ t=0.98
3.0305086216679866
% es.tEX (V/m) @ t=0.98
0.9864872969577476
% es.tEY (V/m) @ t=0.98
0
% es.tEZ (V/m) @ t=0.98
3.030508621667984
% es.Ex (V/m) @ t=0.98
0.986487296957756
% es.Ey (V/m) @ t=0.98
0.23898888199984825
% es.Ez (V/m) @ t=0.98
3.0305086216679866
% es.tEx (V/m) @ t=0.98
0.9864872969577476
% es.tEy (V/m) @ t=0.98
0
% es.tEz (V/m) @ t=0.98
3.030508621667984
% V (V) @ t=0.98
0.014947795421894413
% es.normE (V/m) @ t=1
3.224298915925269
% es.EX (V/m) @ t=1
0.9952234893429419
% es.EY (V/m) @ t=1
0.24110533703815928
% es.EZ (V/m) @ t=1
3.0573463707327395
% es.tEX (V/m) @ t=1
0.9952234893429477
% es.tEY (V/m) @ t=1
0
% es.tEZ (V/m) @ t=1
3.0573463707327377
% es.Ex (V/m) @ t=1
0.9952234893429419
% es.Ey (V/m) @ t=1
0.24110533703815928
% es.Ez (V/m) @ t=1
3.0573463707327395
% es.tEx (V/m) @ t=1
0.9952234893429477
% es.tEy (V/m) @ t=1
0
% es.tEz (V/m) @ t=1
3.0573463707327377
% V (V) @ t=1
0.015080170776747762
% es.normE (V/m) @ t=1.02
3.252602195299912
% es.EX (V/m) @ t=1.02
1.00395968172813
% es.EY (V/m) @ t=1.02
0.2432217920765014
% es.EZ (V/m) @ t=1.02
3.0841841197974986
% es.tEX (V/m) @ t=1.02
1.0039596817281478
% es.tEY (V/m) @ t=1.02
0
% es.tEZ (V/m) @ t=1.02
3.0841841197975057
% es.Ex (V/m) @ t=1.02
1.00395968172813
% es.Ey (V/m) @ t=1.02
0.2432217920765014
% es.Ez (V/m) @ t=1.02
3.0841841197974986
% es.tEx (V/m) @ t=1.02
1.0039596817281478
% es.tEy (V/m) @ t=1.02
0
% es.tEz (V/m) @ t=1.02
3.0841841197975057
% V (V) @ t=1.02
0.015212546131601109
% es.normE (V/m) @ t=1.04
3.280905474674525
% es.EX (V/m) @ t=1.04
1.012695874113316
% es.EY (V/m) @ t=1.04
0.2453382471148018
% es.EZ (V/m) @ t=1.04
3.11102186886223
% es.tEX (V/m) @ t=1.04
1.0126958741133052
% es.tEY (V/m) @ t=1.04
0
% es.tEZ (V/m) @ t=1.04
3.1110218688622417
% es.Ex (V/m) @ t=1.04
1.012695874113316
% es.Ey (V/m) @ t=1.04
0.2453382471148018
% es.Ez (V/m) @ t=1.04
3.11102186886223
% es.tEx (V/m) @ t=1.04
1.0126958741133052