% Model:              1 neuron.mph
% Version:            COMSOL 6.1.0.252
% Date:               Mar 22 2023, 20:19
% Dimension:          0
% Nodes:              14017
% Expressions:        14017
% Description:        Electric field norm, Electric field, X component, Electric field, Y component, Electric field, Z component, Tangential electric field, X component, Tangential electric field, Y component, Tangential electric field, Z component, Electric field, x component, Electric field, y component, Electric field, z component, Tangential electric field, x component, Tangential electric field, y component, Tangential electric field, z component, Electric potential
% Length unit:        mm
% x
1.66
% y
12.2
% z
1
% es.normE (V/m) @ t=0
2.248812454327636
% es.EX (V/m) @ t=0
-0.8015610793148715
% es.EY (V/m) @ t=0
0.2546520213394947
% es.EZ (V/m) @ t=0
2.0791599165685177
% es.tEX (V/m) @ t=0
-0.8015610793148857
% es.tEY (V/m) @ t=0
0
% es.tEZ (V/m) @ t=0
2.0791599165685124
% es.Ex (V/m) @ t=0
-0.8015610793148715
% es.Ey (V/m) @ t=0
0.2546520213394947
% es.Ez (V/m) @ t=0
2.0791599165685177
% es.tEx (V/m) @ t=0
-0.8015610793148857
% es.tEy (V/m) @ t=0
0
% es.tEz (V/m) @ t=0
2.0791599165685124
% V (V) @ t=0
0.010949002999244999
% es.normE (V/m) @ t=0.02
1.9423285996792492
% es.EX (V/m) @ t=0.02
-0.6923187426738366
% es.EY (V/m) @ t=0.02
0.21994626665709704
% es.EZ (V/m) @ t=0.02
1.7957974933662681
% es.tEX (V/m) @ t=0.02
-0.6923187426738402
% es.tEY (V/m) @ t=0.02
0
% es.tEZ (V/m) @ t=0.02
1.7957974933662655
% es.Ex (V/m) @ t=0.02
-0.6923187426738366
% es.Ey (V/m) @ t=0.02
0.21994626665709704
% es.Ez (V/m) @ t=0.02
1.7957974933662681
% es.tEx (V/m) @ t=0.02
-0.6923187426738402
% es.tEy (V/m) @ t=0.02
0
% es.tEz (V/m) @ t=0.02
1.7957974933662655
% V (V) @ t=0.02
0.009456796411479647
% es.normE (V/m) @ t=0.04
1.9602020547123016
% es.EX (V/m) @ t=0.04
-0.6986895125824786
% es.EY (V/m) @ t=0.04
0.22197022891429774
% es.EZ (V/m) @ t=0.04
1.8123225579308553
% es.tEX (V/m) @ t=0.04
-0.6986895125824857
% es.tEY (V/m) @ t=0.04
0
% es.tEZ (V/m) @ t=0.04
1.812322557930857
% es.Ex (V/m) @ t=0.04
-0.6986895125824786
% es.Ey (V/m) @ t=0.04
0.22197022891429774
% es.Ez (V/m) @ t=0.04
1.8123225579308553
% es.tEx (V/m) @ t=0.04
-0.6986895125824857
% es.tEy (V/m) @ t=0.04
0
% es.tEz (V/m) @ t=0.04
1.812322557930857
% V (V) @ t=0.04
0.00954381854844274
% es.normE (V/m) @ t=0.06
1.9782198048373958
% es.EX (V/m) @ t=0.06
-0.7051117144162167
% es.EY (V/m) @ t=0.06
0.22401053084833178
% es.EZ (V/m) @ t=0.06
1.8289810319175661
% es.tEX (V/m) @ t=0.06
-0.7051117144162238
% es.tEY (V/m) @ t=0.06
0
% es.tEZ (V/m) @ t=0.06
1.828981031917568
% es.Ex (V/m) @ t=0.06
-0.7051117144162167
% es.Ey (V/m) @ t=0.06
0.22401053084833178
% es.Ez (V/m) @ t=0.06
1.8289810319175661
% es.tEx (V/m) @ t=0.06
-0.7051117144162238
% es.tEy (V/m) @ t=0.06
0
% es.tEz (V/m) @ t=0.06
1.828981031917568
% V (V) @ t=0.06
0.009631543245268864
% es.normE (V/m) @ t=0.08
1.9965516637721321
% es.EX (V/m) @ t=0.08
-0.7116458756715346
% es.EY (V/m) @ t=0.08
0.2260864020366118
% es.EZ (V/m) @ t=0.08
1.845929918296517
% es.tEX (V/m) @ t=0.08
-0.7116458756715452
% es.tEY (V/m) @ t=0.08
0
% es.tEZ (V/m) @ t=0.08
1.8459299182965179
% es.Ex (V/m) @ t=0.08
-0.7116458756715346
% es.Ey (V/m) @ t=0.08
0.2260864020366118
% es.Ez (V/m) @ t=0.08
1.845929918296517
% es.tEx (V/m) @ t=0.08
-0.7116458756715452
% es.tEy (V/m) @ t=0.08
0
% es.tEz (V/m) @ t=0.08
1.8459299182965179
% V (V) @ t=0.08
0.009720797312873139
% es.normE (V/m) @ t=0.1
2.015020718437365
% es.EX (V/m) @ t=0.1
-0.7182289383080067
% es.EY (V/m) @ t=0.1
0.22817780908274776
% es.EZ (V/m) @ t=0.1
1.8630056503387467
% es.tEX (V/m) @ t=0.1
-0.7182289383080245
% es.tEY (V/m) @ t=0.1
0
% es.tEZ (V/m) @ t=0.1
1.8630056503387529
% es.Ex (V/m) @ t=0.1
-0.7182289383080067
% es.Ey (V/m) @ t=0.1
0.22817780908274776
% es.Ez (V/m) @ t=0.1
1.8630056503387467
% es.tEx (V/m) @ t=0.1
-0.7182289383080245
% es.tEy (V/m) @ t=0.1
0
% es.tEz (V/m) @ t=0.1
1.8630056503387529
% V (V) @ t=0.1
0.009810719375562823
% es.normE (V/m) @ t=0.12
2.03348977310261
% es.EX (V/m) @ t=0.12
-0.7248120009445036
% es.EY (V/m) @ t=0.12
0.23026921612887485
% es.EZ (V/m) @ t=0.12
1.8800813823809817
% es.tEX (V/m) @ t=0.12
-0.7248120009445107
% es.tEY (V/m) @ t=0.12
0
% es.tEZ (V/m) @ t=0.12
1.8800813823809843
% es.Ex (V/m) @ t=0.12
-0.7248120009445036
% es.Ey (V/m) @ t=0.12
0.23026921612887485
% es.Ez (V/m) @ t=0.12
1.8800813823809817
% es.tEx (V/m) @ t=0.12
-0.7248120009445107
% es.tEy (V/m) @ t=0.12
0
% es.tEz (V/m) @ t=0.12
1.8800813823809843
% V (V) @ t=0.12
0.00990064143825251
% es.normE (V/m) @ t=0.14
2.052341671906412
% es.EX (V/m) @ t=0.14
-0.7315315232552178
% es.EY (V/m) @ t=0.14
0.23240397584211459
% es.EZ (V/m) @ t=0.14
1.8975110765508472
% es.tEX (V/m) @ t=0.14
-0.731531523255232
% es.tEY (V/m) @ t=0.14
0
% es.tEZ (V/m) @ t=0.14
1.8975110765508454
% es.Ex (V/m) @ t=0.14
-0.7315315232552178
% es.Ey (V/m) @ t=0.14
0.23240397584211459
% es.Ez (V/m) @ t=0.14
1.8975110765508472
% es.tEx (V/m) @ t=0.14
-0.731531523255232
% es.tEy (V/m) @ t=0.14
0
% es.tEz (V/m) @ t=0.14
1.8975110765508454
% V (V) @ t=0.14
0.009992427509520731
% es.normE (V/m) @ t=0.16
2.0717638927832622
% es.EX (V/m) @ t=0.16
-0.7384543292431887
% es.EY (V/m) @ t=0.16
0.23460331792836953
% es.EZ (V/m) @ t=0.16
1.9154680673254552
% es.tEX (V/m) @ t=0.16
-0.7384543292431958
% es.tEY (V/m) @ t=0.16
0
% es.tEZ (V/m) @ t=0.16
1.9154680673254578
% es.Ex (V/m) @ t=0.16
-0.7384543292431887
% es.Ey (V/m) @ t=0.16
0.23460331792836953
% es.Ez (V/m) @ t=0.16
1.9154680673254552
% es.tEx (V/m) @ t=0.16
-0.7384543292431958
% es.tEy (V/m) @ t=0.16
0
% es.tEz (V/m) @ t=0.16
1.9154680673254578
% V (V) @ t=0.16
0.010086990390277639
% es.normE (V/m) @ t=0.18
2.091186113660113
% es.EX (V/m) @ t=0.18
-0.7453771352311382
% es.EY (V/m) @ t=0.18
0.23680266001465378
% es.EZ (V/m) @ t=0.18
1.9334250581000685
% es.tEX (V/m) @ t=0.18
-0.7453771352311453
% es.tEY (V/m) @ t=0.18
0
% es.tEZ (V/m) @ t=0.18
1.9334250581000685
% es.Ex (V/m) @ t=0.18
-0.7453771352311382
% es.Ey (V/m) @ t=0.18
0.23680266001465378
% es.Ez (V/m) @ t=0.18
1.9334250581000685
% es.tEx (V/m) @ t=0.18
-0.7453771352311453
% es.tEy (V/m) @ t=0.18
0
% es.tEz (V/m) @ t=0.18
1.9334250581000685
% V (V) @ t=0.18
0.010181553271034545
% es.normE (V/m) @ t=0.2
2.110608334536966
% es.EX (V/m) @ t=0.2
-0.7522999412190985
% es.EY (V/m) @ t=0.2
0.23900200210090605
% es.EZ (V/m) @ t=0.2
1.9513820488746862
% es.tEX (V/m) @ t=0.2
-0.752299941219102
% es.tEY (V/m) @ t=0.2
0
% es.tEZ (V/m) @ t=0.2
1.9513820488746845
% es.Ex (V/m) @ t=0.2
-0.7522999412190985
% es.Ey (V/m) @ t=0.2
0.23900200210090605
% es.Ez (V/m) @ t=0.2
1.9513820488746862
% es.tEx (V/m) @ t=0.2
-0.752299941219102
% es.tEy (V/m) @ t=0.2
0
% es.tEz (V/m) @ t=0.2
1.9513820488746845
% V (V) @ t=0.2
0.010276116151791453
% es.normE (V/m) @ t=0.22
2.1300305554138017
% es.EX (V/m) @ t=0.22
-0.7592227472070585
% es.EY (V/m) @ t=0.22
0.24120134418717742
% es.EZ (V/m) @ t=0.22
1.969339039649281
% es.tEX (V/m) @ t=0.22
-0.7592227472070656
% es.tEY (V/m) @ t=0.22
0
% es.tEZ (V/m) @ t=0.22
1.9693390396492845
% es.Ex (V/m) @ t=0.22
-0.7592227472070585
% es.Ey (V/m) @ t=0.22
0.24120134418717742
% es.Ez (V/m) @ t=0.22
1.969339039649281
% es.tEx (V/m) @ t=0.22
-0.7592227472070656
% es.tEy (V/m) @ t=0.22
0
% es.tEz (V/m) @ t=0.22
1.9693390396492845
% V (V) @ t=0.22
0.01037067903254836
% es.normE (V/m) @ t=0.24
2.1494527762906426
% es.EX (V/m) @ t=0.24
-0.7661455531950081
% es.EY (V/m) @ t=0.24
0.24340068627343414
% es.EZ (V/m) @ t=0.24
1.9872960304238871
% es.tEX (V/m) @ t=0.24
-0.7661455531950223
% es.tEY (V/m) @ t=0.24
0
% es.tEZ (V/m) @ t=0.24
1.9872960304238863
% es.Ex (V/m) @ t=0.24
-0.7661455531950081
% es.Ey (V/m) @ t=0.24
0.24340068627343414
% es.Ez (V/m) @ t=0.24
1.9872960304238871
% es.tEx (V/m) @ t=0.24
-0.7661455531950223
% es.tEy (V/m) @ t=0.24
0
% es.tEz (V/m) @ t=0.24
1.9872960304238863
% V (V) @ t=0.24
0.010465241913305268
% es.normE (V/m) @ t=0.26
2.168874997167497
% es.EX (V/m) @ t=0.26
-0.7730683591829577
% es.EY (V/m) @ t=0.26
0.24560002835971928
% es.EZ (V/m) @ t=0.26
2.005253021198505
% es.tEX (V/m) @ t=0.26
-0.7730683591829719
% es.tEY (V/m) @ t=0.26
0
% es.tEZ (V/m) @ t=0.26
2.005253021198511
% es.Ex (V/m) @ t=0.26
-0.7730683591829577
% es.Ey (V/m) @ t=0.26
0.24560002835971928
% es.Ez (V/m) @ t=0.26
2.005253021198505
% es.tEx (V/m) @ t=0.26
-0.7730683591829719
% es.tEy (V/m) @ t=0.26
0
% es.tEz (V/m) @ t=0.26
2.005253021198511
% V (V) @ t=0.26
0.010559804794062178
% es.normE (V/m) @ t=0.28
2.19003479458015
% es.EX (V/m) @ t=0.28
-0.7806103759097373
% es.EY (V/m) @ t=0.28
0.24799613065551362
% es.EZ (V/m) @ t=0.28
2.024816547138702
% es.tEX (V/m) @ t=0.28
-0.7806103759097444
% es.tEY (V/m) @ t=0.28
0
% es.tEZ (V/m) @ t=0.28
2.0248165471386947
% es.Ex (V/m) @ t=0.28
-0.7806103759097373
% es.Ey (V/m) @ t=0.28
0.24799613065551362
% es.Ez (V/m) @ t=0.28
2.024816547138702
% es.tEx (V/m) @ t=0.28
-0.7806103759097444
% es.tEy (V/m) @ t=0.28
0
% es.tEz (V/m) @ t=0.28
2.0248165471386947
% V (V) @ t=0.28
0.010662834937381604
% es.normE (V/m) @ t=0.3
2.2115943565255547
% es.EX (V/m) @ t=0.3
-0.7882948545577811
% es.EY (V/m) @ t=0.3
0.2504375016066023
% es.EZ (V/m) @ t=0.3
2.0447496889010326
% es.tEX (V/m) @ t=0.3
-0.7882948545577882
% es.tEY (V/m) @ t=0.3
0
% es.tEZ (V/m) @ t=0.3
2.0447496889010335
% es.Ex (V/m) @ t=0.3
-0.7882948545577811
% es.Ey (V/m) @ t=0.3
0.2504375016066023
% es.Ez (V/m) @ t=0.3
2.0447496889010326
% es.tEx (V/m) @ t=0.3
-0.7882948545577882
% es.tEy (V/m) @ t=0.3
0
% es.tEz (V/m) @ t=0.3
2.0447496889010335
% V (V) @ t=0.3
0.010767813145256542
% es.normE (V/m) @ t=0.32
2.2331539184709657
% es.EX (V/m) @ t=0.32
-0.7959793332058253
% es.EY (V/m) @ t=0.32
0.2528788725577009
% es.EZ (V/m) @ t=0.32
2.0646828306633545
% es.tEX (V/m) @ t=0.32
-0.7959793332058395
% es.tEY (V/m) @ t=0.32
0
% es.tEZ (V/m) @ t=0.32
2.0646828306633562
% es.Ex (V/m) @ t=0.32
-0.7959793332058253
% es.Ey (V/m) @ t=0.32
0.2528788725577009
% es.Ez (V/m) @ t=0.32
2.0646828306633545
% es.tEx (V/m) @ t=0.32
-0.7959793332058395
% es.tEy (V/m) @ t=0.32
0
% es.tEz (V/m) @ t=0.32
2.0646828306633562
% V (V) @ t=0.32
0.010872791353131484
% es.normE (V/m) @ t=0.34
2.2547134804163886
% es.EX (V/m) @ t=0.34
-0.8036638118538623
% es.EY (V/m) @ t=0.34
0.2553202435087829
% es.EZ (V/m) @ t=0.34
2.084615972425677
% es.tEX (V/m) @ t=0.34
-0.8036638118538694
% es.tEY (V/m) @ t=0.34
0
% es.tEZ (V/m) @ t=0.34
2.084615972425677
% es.Ex (V/m) @ t=0.34
-0.8036638118538623
% es.Ey (V/m) @ t=0.34
0.2553202435087829
% es.Ez (V/m) @ t=0.34
2.084615972425677
% es.tEx (V/m) @ t=0.34
-0.8036638118538694
% es.tEy (V/m) @ t=0.34
0
% es.tEz (V/m) @ t=0.34
2.084615972425677
% V (V) @ t=0.34
0.010977769561006424
% es.normE (V/m) @ t=0.36
2.2762730423618356
% es.EX (V/m) @ t=0.36
-0.811348290501899
% es.EY (V/m) @ t=0.36
0.25776161445989376
% es.EZ (V/m) @ t=0.36
2.104549114188006
% es.tEX (V/m) @ t=0.36
-0.8113482905019133
% es.tEY (V/m) @ t=0.36
0
% es.tEZ (V/m) @ t=0.36
2.104549114188007
% es.Ex (V/m) @ t=0.36
-0.811348290501899
% es.Ey (V/m) @ t=0.36
0.25776161445989376
% es.Ez (V/m) @ t=0.36
2.104549114188006
% es.tEx (V/m) @ t=0.36
-0.8113482905019133
% es.tEy (V/m) @ t=0.36
0
% es.tEz (V/m) @ t=0.36
2.104549114188007
% V (V) @ t=0.36
0.011082747768881362
% es.normE (V/m) @ t=0.38
2.2978326043072865
% es.EX (V/m) @ t=0.38
-0.8190327691499324
% es.EY (V/m) @ t=0.38
0.26020298541098263
% es.EZ (V/m) @ t=0.38
2.124482255950328
% es.tEX (V/m) @ t=0.38
-0.8190327691499502
% es.tEY (V/m) @ t=0.38
0
% es.tEZ (V/m) @ t=0.38
2.12448225595033
% es.Ex (V/m) @ t=0.38
-0.8190327691499324
% es.Ey (V/m) @ t=0.38
0.26020298541098263
% es.Ez (V/m) @ t=0.38
2.124482255950328
% es.tEx (V/m) @ t=0.38
-0.8190327691499502
% es.tEy (V/m) @ t=0.38
0
% es.tEz (V/m) @ t=0.38
2.12448225595033
% V (V) @ t=0.38
0.0111877259767563
% es.normE (V/m) @ t=0.4
2.3193921662527783
% es.EX (V/m) @ t=0.4
-0.8267172477979906
% es.EY (V/m) @ t=0.4
0.2626443563620777
% es.EZ (V/m) @ t=0.4
2.1444153977126668
% es.tEX (V/m) @ t=0.4
-0.8267172477980084
% es.tEY (V/m) @ t=0.4
0
% es.tEZ (V/m) @ t=0.4
2.144415397712672
% es.Ex (V/m) @ t=0.4
-0.8267172477979906
% es.Ey (V/m) @ t=0.4
0.2626443563620777
% es.Ez (V/m) @ t=0.4
2.1444153977126668
% es.tEx (V/m) @ t=0.4
-0.8267172477980084
% es.tEy (V/m) @ t=0.4
0
% es.tEz (V/m) @ t=0.4
2.144415397712672
% V (V) @ t=0.4
0.01129270418463124
% es.normE (V/m) @ t=0.42
2.34095172819826
% es.EX (V/m) @ t=0.42
-0.8344017264460384
% es.EY (V/m) @ t=0.42
0.2650857273131615
% es.EZ (V/m) @ t=0.42
2.1643485394749886
% es.tEX (V/m) @ t=0.42
-0.8344017264460526
% es.tEY (V/m) @ t=0.42
0
% es.tEZ (V/m) @ t=0.42
2.1643485394749895
% es.Ex (V/m) @ t=0.42
-0.8344017264460384
% es.Ey (V/m) @ t=0.42
0.2650857273131615
% es.Ez (V/m) @ t=0.42
2.1643485394749886
% es.tEx (V/m) @ t=0.42
-0.8344017264460526
% es.tEy (V/m) @ t=0.42
0
% es.tEz (V/m) @ t=0.42
2.1643485394749895
% V (V) @ t=0.42
0.01139768239250618
% es.normE (V/m) @ t=0.44
2.362511290143755
% es.EX (V/m) @ t=0.44
-0.842086205094068
% es.EY (V/m) @ t=0.44
0.26752709826424725
% es.EZ (V/m) @ t=0.44
2.184281681237315
% es.tEX (V/m) @ t=0.44
-0.8420862050940822
% es.tEY (V/m) @ t=0.44
0
% es.tEZ (V/m) @ t=0.44
2.1842816812373123
% es.Ex (V/m) @ t=0.44
-0.842086205094068
% es.Ey (V/m) @ t=0.44
0.26752709826424725
% es.Ez (V/m) @ t=0.44
2.184281681237315
% es.tEx (V/m) @ t=0.44
-0.8420862050940822
% es.tEy (V/m) @ t=0.44
0
% es.tEz (V/m) @ t=0.44
2.1842816812373123
% V (V) @ t=0.44
0.011502660600381118
% es.normE (V/m) @ t=0.46
2.384070852089274
% es.EX (V/m) @ t=0.46
-0.8497706837421192
% es.EY (V/m) @ t=0.46
0.26996846921536033
% es.EZ (V/m) @ t=0.46
2.204214822999642
% es.tEX (V/m) @ t=0.46
-0.8497706837421334
% es.tEY (V/m) @ t=0.46
0
% es.tEZ (V/m) @ t=0.46
2.2042148229996403
% es.Ex (V/m) @ t=0.46
-0.8497706837421192
% es.Ey (V/m) @ t=0.46
0.26996846921536033
% es.Ez (V/m) @ t=0.46
2.204214822999642
% es.tEx (V/m) @ t=0.46
-0.8497706837421334
% es.tEy (V/m) @ t=0.46
0
% es.tEz (V/m) @ t=0.46
2.2042148229996403
% V (V) @ t=0.46
0.01160763880825606
% es.normE (V/m) @ t=0.48
2.405630414034798
% es.EX (V/m) @ t=0.48
-0.8574551623901632
% es.EY (V/m) @ t=0.48
0.27240984016645275
% es.EZ (V/m) @ t=0.48
2.2241479647619657
% es.tEX (V/m) @ t=0.48
-0.8574551623901774
% es.tEY (V/m) @ t=0.48
0
% es.tEZ (V/m) @ t=0.48
2.2241479647619684
% es.Ex (V/m) @ t=0.48
-0.8574551623901632
% es.Ey (V/m) @ t=0.48
0.27240984016645275
% es.Ez (V/m) @ t=0.48
2.2241479647619657
% es.tEx (V/m) @ t=0.48
-0.8574551623901774
% es.tEy (V/m) @ t=0.48
0
% es.tEz (V/m) @ t=0.48
2.2241479647619684
% V (V) @ t=0.48
0.011712617016130997
% es.normE (V/m) @ t=0.5
2.4271899759803324
% es.EX (V/m) @ t=0.5
-0.8651396410382037
% es.EY (V/m) @ t=0.5
0.2748512111175443
% es.EZ (V/m) @ t=0.5
2.2440811065242894
% es.tEX (V/m) @ t=0.5
-0.8651396410382215
% es.tEY (V/m) @ t=0.5
0
% es.tEZ (V/m) @ t=0.5
2.244081106524291
% es.Ex (V/m) @ t=0.5
-0.8651396410382037
% es.Ey (V/m) @ t=0.5
0.2748512111175443
% es.Ez (V/m) @ t=0.5
2.2440811065242894
% es.tEx (V/m) @ t=0.5
-0.8651396410382215
% es.tEy (V/m) @ t=0.5
0
% es.tEz (V/m) @ t=0.5
2.244081106524291
% V (V) @ t=0.5
0.011817595224005937
% es.normE (V/m) @ t=0.52
2.448749537925883
% es.EX (V/m) @ t=0.52
-0.8728241196862476
% es.EY (V/m) @ t=0.52
0.27729258206861696
% es.EZ (V/m) @ t=0.52
2.2640142482866175
% es.tEX (V/m) @ t=0.52
-0.8728241196862654
% es.tEY (V/m) @ t=0.52
0
% es.tEZ (V/m) @ t=0.52
2.264014248286621
% es.Ex (V/m) @ t=0.52
-0.8728241196862476
% es.Ey (V/m) @ t=0.52
0.27729258206861696
% es.Ez (V/m) @ t=0.52
2.2640142482866175
% es.tEx (V/m) @ t=0.52
-0.8728241196862654
% es.tEy (V/m) @ t=0.52
0
% es.tEz (V/m) @ t=0.52
2.264014248286621
% V (V) @ t=0.52
0.011922573431880875
% es.normE (V/m) @ t=0.54
2.471842165332379
% es.EX (V/m) @ t=0.54
-0.8810549438227457
% es.EY (V/m) @ t=0.54
0.27990755417977464
% es.EZ (V/m) @ t=0.54
2.285364832400121
% es.tEX (V/m) @ t=0.54
-0.88105494382276
% es.tEY (V/m) @ t=0.54
0
% es.tEZ (V/m) @ t=0.54
2.285364832400127
% es.Ex (V/m) @ t=0.54
-0.8810549438227457
% es.Ey (V/m) @ t=0.54
0.27990755417977464
% es.Ez (V/m) @ t=0.54
2.285364832400121
% es.tEx (V/m) @ t=0.54
-0.88105494382276
% es.tEy (V/m) @ t=0.54
0
% es.tEz (V/m) @ t=0.54
2.285364832400127
% V (V) @ t=0.54
0.012035021456434479
% es.normE (V/m) @ t=0.56
2.495813819770492
% es.EX (V/m) @ t=0.56
-0.8895990308075765
% es.EY (V/m) @ t=0.56
0.2826220654927889
% es.EZ (V/m) @ t=0.56
2.3075281477205563
% es.tEX (V/m) @ t=0.56
-0.8895990308075943
% es.tEY (V/m) @ t=0.56
0
% es.tEZ (V/m) @ t=0.56
2.30752814772055
% es.Ex (V/m) @ t=0.56
-0.8895990308075765
% es.Ey (V/m) @ t=0.56
0.2826220654927889
% es.Ez (V/m) @ t=0.56
2.3075281477205563
% es.tEx (V/m) @ t=0.56
-0.8895990308075943
% es.tEy (V/m) @ t=0.56
0
% es.tEz (V/m) @ t=0.56
2.30752814772055
% V (V) @ t=0.56
0.012151752514523568
% es.normE (V/m) @ t=0.58
2.519785474208631
% es.EX (V/m) @ t=0.58
-0.8981431177923964
% es.EY (V/m) @ t=0.58
0.2853365768058027
% es.EZ (V/m) @ t=0.58
2.329691463040973
% es.tEX (V/m) @ t=0.58
-0.8981431177924071
% es.tEY (V/m) @ t=0.58
0
% es.tEZ (V/m) @ t=0.58
2.329691463040966
% es.Ex (V/m) @ t=0.58
-0.8981431177923964
% es.Ey (V/m) @ t=0.58
0.2853365768058027
% es.Ez (V/m) @ t=0.58
2.329691463040973
% es.tEx (V/m) @ t=0.58
-0.8981431177924071
% es.tEy (V/m) @ t=0.58
0
% es.tEz (V/m) @ t=0.58
2.329691463040966
% V (V) @ t=0.58
0.012268483572612654
% es.normE (V/m) @ t=0.6
2.5437571286468246
% es.EX (V/m) @ t=0.6
-0.9066872047772094
% es.EY (V/m) @ t=0.6
0.2880510881188143
% es.EZ (V/m) @ t=0.6
2.3518547783614006
% es.tEX (V/m) @ t=0.6
-0.906687204777213
% es.tEY (V/m) @ t=0.6
0
% es.tEZ (V/m) @ t=0.6
2.351854778361405
% es.Ex (V/m) @ t=0.6
-0.9066872047772094
% es.Ey (V/m) @ t=0.6
0.2880510881188143
% es.Ez (V/m) @ t=0.6
2.3518547783614006
% es.tEx (V/m) @ t=0.6
-0.906687204777213
% es.tEy (V/m) @ t=0.6
0
% es.tEz (V/m) @ t=0.6
2.351854778361405
% V (V) @ t=0.6
0.01238521463070174
% es.normE (V/m) @ t=0.62
2.5677287830850704
% es.EX (V/m) @ t=0.62
-0.9152312917620258
% es.EY (V/m) @ t=0.62
0.29076559943182123
% es.EZ (V/m) @ t=0.62
2.374018093681835
% es.tEX (V/m) @ t=0.62
-0.9152312917620329
% es.tEY (V/m) @ t=0.62
0
% es.tEZ (V/m) @ t=0.62
2.3740180936818334
% es.Ex (V/m) @ t=0.62
-0.9152312917620258
% es.Ey (V/m) @ t=0.62
0.29076559943182123
% es.Ez (V/m) @ t=0.62
2.374018093681835
% es.tEx (V/m) @ t=0.62
-0.9152312917620329
% es.tEy (V/m) @ t=0.62
0
% es.tEz (V/m) @ t=0.62
2.3740180936818334
% V (V) @ t=0.62
0.01250194568879083
% es.normE (V/m) @ t=0.64
2.591700437523345
% es.EX (V/m) @ t=0.64
-0.923775378746835
% es.EY (V/m) @ t=0.64
0.2934801107448388
% es.EZ (V/m) @ t=0.64
2.3961814090022573
% es.tEX (V/m) @ t=0.64
-0.9237753787468528
% es.tEY (V/m) @ t=0.64
0
% es.tEZ (V/m) @ t=0.64
2.3961814090022617
% es.Ex (V/m) @ t=0.64
-0.923775378746835
% es.Ey (V/m) @ t=0.64
0.2934801107448388
% es.Ez (V/m) @ t=0.64
2.3961814090022573
% es.tEx (V/m) @ t=0.64
-0.9237753787468528
% es.tEy (V/m) @ t=0.64
0
% es.tEz (V/m) @ t=0.64
2.3961814090022617
% V (V) @ t=0.64
0.012618676746879914
% es.normE (V/m) @ t=0.66
2.6156720919616614
% es.EX (V/m) @ t=0.66
-0.9323194657316516
% es.EY (V/m) @ t=0.66
0.2961946220578351
% es.EZ (V/m) @ t=0.66
2.4183447243226768
% es.tEX (V/m) @ t=0.66
-0.9323194657316658
% es.tEY (V/m) @ t=0.66
0
% es.tEZ (V/m) @ t=0.66
2.418344724322683
% es.Ex (V/m) @ t=0.66
-0.9323194657316516
% es.Ey (V/m) @ t=0.66
0.2961946220578351
% es.Ez (V/m) @ t=0.66
2.4183447243226768
% es.tEx (V/m) @ t=0.66
-0.9323194657316658
% es.tEy (V/m) @ t=0.66
0
% es.tEz (V/m) @ t=0.66
2.418344724322683
% V (V) @ t=0.66
0.012735407804969004
% es.normE (V/m) @ t=0.68
2.639643746400031
% es.EX (V/m) @ t=0.68
-0.9408635527164644
% es.EY (V/m) @ t=0.68
0.29890913337085356
% es.EZ (V/m) @ t=0.68
2.440508039643108
% es.tEX (V/m) @ t=0.68
-0.9408635527164786
% es.tEY (V/m) @ t=0.68
0
% es.tEZ (V/m) @ t=0.68
2.440508039643113
% es.Ex (V/m) @ t=0.68
-0.9408635527164644
% es.Ey (V/m) @ t=0.68
0.29890913337085356
% es.Ez (V/m) @ t=0.68
2.440508039643108
% es.tEx (V/m) @ t=0.68
-0.9408635527164786
% es.tEy (V/m) @ t=0.68
0
% es.tEz (V/m) @ t=0.68
2.440508039643113
% V (V) @ t=0.68
0.012852138863058091
% es.normE (V/m) @ t=0.7
2.6636154008384265
% es.EX (V/m) @ t=0.7
-0.9494076397012807
% es.EY (V/m) @ t=0.7
0.30162364468386205
% es.EZ (V/m) @ t=0.7
2.4626713549635246
% es.tEX (V/m) @ t=0.7
-0.9494076397012985
% es.tEY (V/m) @ t=0.7
0
% es.tEZ (V/m) @ t=0.7
2.4626713549635273
% es.Ex (V/m) @ t=0.7
-0.9494076397012807
% es.Ey (V/m) @ t=0.7
0.30162364468386205
% es.Ez (V/m) @ t=0.7
2.4626713549635246
% es.tEx (V/m) @ t=0.7
-0.9494076397012985
% es.tEy (V/m) @ t=0.7
0
% es.tEz (V/m) @ t=0.7
2.4626713549635273
% V (V) @ t=0.7
0.012968869921147177
% es.normE (V/m) @ t=0.72
2.6875870552768797
% es.EX (V/m) @ t=0.72
-0.9579517266860973
% es.EY (V/m) @ t=0.72
0.3043381559968672
% es.EZ (V/m) @ t=0.72
2.484834670283962
% es.tEX (V/m) @ t=0.72
-0.9579517266861115
% es.tEY (V/m) @ t=0.72
0
% es.tEZ (V/m) @ t=0.72
2.484834670283959
% es.Ex (V/m) @ t=0.72
-0.9579517266860973
% es.Ey (V/m) @ t=0.72
0.3043381559968672
% es.Ez (V/m) @ t=0.72
2.484834670283962
% es.tEx (V/m) @ t=0.72
-0.9579517266861115
% es.tEy (V/m) @ t=0.72
0
% es.tEz (V/m) @ t=0.72
2.484834670283959
% V (V) @ t=0.72
0.013085600979236264
% es.normE (V/m) @ t=0.74
2.711558709715356
% es.EX (V/m) @ t=0.74
-0.9664958136709172
% es.EY (V/m) @ t=0.74
0.30705266730987946
% es.EZ (V/m) @ t=0.74
2.5069979856043805
% es.tEX (V/m) @ t=0.74
-0.9664958136709243
% es.tEY (V/m) @ t=0.74
0
% es.tEZ (V/m) @ t=0.74
2.5069979856043823
% es.Ex (V/m) @ t=0.74
-0.9664958136709172
% es.Ey (V/m) @ t=0.74
0.30705266730987946
% es.Ez (V/m) @ t=0.74
2.5069979856043805
% es.tEx (V/m) @ t=0.74
-0.9664958136709243
% es.tEy (V/m) @ t=0.74
0
% es.tEz (V/m) @ t=0.74
2.5069979856043823
% V (V) @ t=0.74
0.013202332037325352
% es.normE (V/m) @ t=0.76
2.735530364153867
% es.EX (V/m) @ t=0.76
-0.9750399006557193
% es.EY (V/m) @ t=0.76
0.3097671786229077
% es.EZ (V/m) @ t=0.76
2.5291613009248026
% es.tEX (V/m) @ t=0.76
-0.9750399006557371
% es.tEY (V/m) @ t=0.76
0
% es.tEZ (V/m) @ t=0.76
2.5291613009247964
% es.Ex (V/m) @ t=0.76
-0.9750399006557193
% es.Ey (V/m) @ t=0.76
0.3097671786229077
% es.Ez (V/m) @ t=0.76
2.5291613009248026
% es.tEx (V/m) @ t=0.76
-0.9750399006557371
% es.tEy (V/m) @ t=0.76
0
% es.tEz (V/m) @ t=0.76
2.5291613009247964
% V (V) @ t=0.76
0.013319063095414441
% es.normE (V/m) @ t=0.78
2.7595020185924257
% es.EX (V/m) @ t=0.78
-0.9835839876405394
% es.EY (V/m) @ t=0.78
0.31248168993589864
% es.EZ (V/m) @ t=0.78
2.5513246162452337
% es.tEX (V/m) @ t=0.78
-0.9835839876405572
% es.tEY (V/m) @ t=0.78
0
% es.tEZ (V/m) @ t=0.78
2.5513246162452283
% es.Ex (V/m) @ t=0.78
-0.9835839876405394
% es.Ey (V/m) @ t=0.78
0.31248168993589864
% es.Ez (V/m) @ t=0.78
2.5513246162452337
% es.tEx (V/m) @ t=0.78
-0.9835839876405572
% es.tEy (V/m) @ t=0.78
0
% es.tEz (V/m) @ t=0.78
2.5513246162452283
% V (V) @ t=0.78
0.013435794153503527
% es.normE (V/m) @ t=0.8
2.7847198141870084
% es.EX (V/m) @ t=0.8
-0.9925724662525139
% es.EY (V/m) @ t=0.8
0.31533731316544555
% es.EZ (V/m) @ t=0.8
2.5746399878390704
% es.tEX (V/m) @ t=0.8
-0.9925724662525282
% es.tEY (V/m) @ t=0.8
0
% es.tEZ (V/m) @ t=0.8
2.5746399878390758
% es.Ex (V/m) @ t=0.8
-0.9925724662525139
% es.Ey (V/m) @ t=0.8
0.31533731316544555
% es.Ez (V/m) @ t=0.8
2.5746399878390704
% es.tEx (V/m) @ t=0.8
-0.9925724662525282
% es.tEy (V/m) @ t=0.8
0
% es.tEz (V/m) @ t=0.8
2.5746399878390758
% V (V) @ t=0.8
0.013558579600399226
% es.normE (V/m) @ t=0.82
2.8114111840783966
% es.EX (V/m) @ t=0.82
-1.0020864423783833
% es.EY (V/m) @ t=0.82
0.31835980263815555
% es.EZ (V/m) @ t=0.82
2.5993176774213635
% es.tEX (V/m) @ t=0.82
-1.002086442378401
% es.tEY (V/m) @ t=0.82
0
% es.tEZ (V/m) @ t=0.82
2.5993176774213644
% es.Ex (V/m) @ t=0.82
-1.0020864423783833
% es.Ey (V/m) @ t=0.82
0.31835980263815555
% es.Ez (V/m) @ t=0.82
2.5993176774213635
% es.tEx (V/m) @ t=0.82
-1.002086442378401
% es.tEy (V/m) @ t=0.82
0
% es.tEz (V/m) @ t=0.82
2.5993176774213644
% V (V) @ t=0.82
0.013688524422206248
% es.normE (V/m) @ t=0.84
2.8381025539698213
% es.EX (V/m) @ t=0.84
-1.0116004185042742
% es.EY (V/m) @ t=0.84
0.32138229211086067
% es.EZ (V/m) @ t=0.84
2.6239953670036567
% es.tEX (V/m) @ t=0.84
-1.0116004185042884
% es.tEY (V/m) @ t=0.84
0
% es.tEZ (V/m) @ t=0.84
2.6239953670036584
% es.Ex (V/m) @ t=0.84
-1.0116004185042742
% es.Ey (V/m) @ t=0.84
0.32138229211086067
% es.Ez (V/m) @ t=0.84
2.6239953670036567
% es.tEx (V/m) @ t=0.84
-1.0116004185042884
% es.tEy (V/m) @ t=0.84
0
% es.tEz (V/m) @ t=0.84
2.6239953670036584
% V (V) @ t=0.84
0.013818469244013264
% es.normE (V/m) @ t=0.86
2.864793923861268
% es.EX (V/m) @ t=0.86
-1.0211143946301615
% es.EY (V/m) @ t=0.86
0.32440478158358244
% es.EZ (V/m) @ t=0.86
2.648673056585947
% es.tEX (V/m) @ t=0.86
-1.0211143946301757
% es.tEY (V/m) @ t=0.86
0
% es.tEZ (V/m) @ t=0.86
2.648673056585949
% es.Ex (V/m) @ t=0.86
-1.0211143946301615
% es.Ey (V/m) @ t=0.86
0.32440478158358244
% es.Ez (V/m) @ t=0.86
2.648673056585947
% es.tEx (V/m) @ t=0.86
-1.0211143946301757
% es.tEy (V/m) @ t=0.86
0
% es.tEz (V/m) @ t=0.86
2.648673056585949
% V (V) @ t=0.86
0.013948414065820286
% es.normE (V/m) @ t=0.88
2.8914852937527318
% es.EX (V/m) @ t=0.88
-1.0306283707560486
% es.EY (V/m) @ t=0.88
0.32742727105630665
% es.EZ (V/m) @ t=0.88
2.673350746168227
% es.tEX (V/m) @ t=0.88
-1.0306283707560486
% es.tEY (V/m) @ t=0.88
0
% es.tEZ (V/m) @ t=0.88
2.673350746168225
% es.Ex (V/m) @ t=0.88
-1.0306283707560486
% es.Ey (V/m) @ t=0.88
0.32742727105630665
% es.Ez (V/m) @ t=0.88
2.673350746168227
% es.tEx (V/m) @ t=0.88
-1.0306283707560486
% es.tEy (V/m) @ t=0.88
0
% es.tEz (V/m) @ t=0.88
2.673350746168225
% V (V) @ t=0.88
0.0140783588876273
% es.normE (V/m) @ t=0.9
2.9181766636442292
% es.EX (V/m) @ t=0.9
-1.0401423468819286
% es.EY (V/m) @ t=0.9
0.330449760529008
% es.EZ (V/m) @ t=0.9
2.6980284357505226
% es.tEX (V/m) @ t=0.9
-1.0401423468819357
% es.tEY (V/m) @ t=0.9
0
% es.tEZ (V/m) @ t=0.9
2.698028435750519
% es.Ex (V/m) @ t=0.9
-1.0401423468819286
% es.Ey (V/m) @ t=0.9
0.330449760529008
% es.Ez (V/m) @ t=0.9
2.6980284357505226
% es.tEx (V/m) @ t=0.9
-1.0401423468819357
% es.tEy (V/m) @ t=0.9
0
% es.tEz (V/m) @ t=0.9
2.698028435750519
% V (V) @ t=0.9
0.014208303709434319
% es.normE (V/m) @ t=0.92
2.9448680335357516
% es.EX (V/m) @ t=0.92
-1.049656323007823
% es.EY (V/m) @ t=0.92
0.33347225000171665
% es.EZ (V/m) @ t=0.92
2.722706125332813
% es.tEX (V/m) @ t=0.92
-1.0496563230078373
% es.tEY (V/m) @ t=0.92
0
% es.tEZ (V/m) @ t=0.92
2.722706125332813
% es.Ex (V/m) @ t=0.92
-1.049656323007823
% es.Ey (V/m) @ t=0.92
0.33347225000171665
% es.Ez (V/m) @ t=0.92
2.722706125332813
% es.tEx (V/m) @ t=0.92
-1.0496563230078373
% es.tEy (V/m) @ t=0.92
0
% es.tEz (V/m) @ t=0.92
2.722706125332813
% V (V) @ t=0.92
0.01433824853124134
% es.normE (V/m) @ t=0.94
2.971559403427289
% es.EX (V/m) @ t=0.94
-1.0591702991336962
% es.EY (V/m) @ t=0.94
0.3364947394744322
% es.EZ (V/m) @ t=0.94
2.7473838149151026
% es.tEX (V/m) @ t=0.94
-1.0591702991337104
% es.tEY (V/m) @ t=0.94
0
% es.tEZ (V/m) @ t=0.94
2.747383814915107
% es.Ex (V/m) @ t=0.94
-1.0591702991336962
% es.Ey (V/m) @ t=0.94
0.3364947394744322
% es.Ez (V/m) @ t=0.94
2.7473838149151026
% es.tEx (V/m) @ t=0.94
-1.0591702991337104
% es.tEy (V/m) @ t=0.94
0
% es.tEz (V/m) @ t=0.94
2.747383814915107
% V (V) @ t=0.94
0.014468193353048359
% es.normE (V/m) @ t=0.96
2.998250773318855
% es.EX (V/m) @ t=0.96
-1.0686842752595833
% es.EY (V/m) @ t=0.96
0.3395172289471442
% es.EZ (V/m) @ t=0.96
2.7720615044973904
% es.tEX (V/m) @ t=0.96
-1.0686842752595975
% es.tEY (V/m) @ t=0.96
0
% es.tEZ (V/m) @ t=0.96
2.772061504497394
% es.Ex (V/m) @ t=0.96
-1.0686842752595833
% es.Ey (V/m) @ t=0.96
0.3395172289471442
% es.Ez (V/m) @ t=0.96
2.7720615044973904
% es.tEx (V/m) @ t=0.96
-1.0686842752595975
% es.tEy (V/m) @ t=0.96
0
% es.tEz (V/m) @ t=0.96
2.772061504497394
% V (V) @ t=0.96
0.014598138174855377
% es.normE (V/m) @ t=0.98
3.0249421432104375
% es.EX (V/m) @ t=0.98
-1.0781982513854562
% es.EY (V/m) @ t=0.98
0.3425397184198631
% es.EZ (V/m) @ t=0.98
2.796739194079681
% es.tEX (V/m) @ t=0.98
-1.0781982513854704
% es.tEY (V/m) @ t=0.98
0
% es.tEZ (V/m) @ t=0.98
2.7967391940796933
% es.Ex (V/m) @ t=0.98
-1.0781982513854562
% es.Ey (V/m) @ t=0.98
0.3425397184198631
% es.Ez (V/m) @ t=0.98
2.796739194079681
% es.tEx (V/m) @ t=0.98
-1.0781982513854704
% es.tEy (V/m) @ t=0.98
0
% es.tEz (V/m) @ t=0.98
2.7967391940796933
% V (V) @ t=0.98
0.014728082996662395
% es.normE (V/m) @ t=1
3.0516335131020424
% es.EX (V/m) @ t=1
-1.0877122275113575
% es.EY (V/m) @ t=1
0.3455622078925822
% es.EZ (V/m) @ t=1
2.821416883661959
% es.tEX (V/m) @ t=1
-1.0877122275113718
% es.tEY (V/m) @ t=1
0
% es.tEZ (V/m) @ t=1
2.821416883661957
% es.Ex (V/m) @ t=1
-1.0877122275113575
% es.Ey (V/m) @ t=1
0.3455622078925822
% es.Ez (V/m) @ t=1
2.821416883661959
% es.tEx (V/m) @ t=1
-1.0877122275113718
% es.tEy (V/m) @ t=1
0
% es.tEz (V/m) @ t=1
2.821416883661957
% V (V) @ t=1
0.014858027818469411
% es.normE (V/m) @ t=1.02
3.0783248829936776
% es.EX (V/m) @ t=1.02
-1.0972262036372236
% es.EY (V/m) @ t=1.02
0.34858469736529174
% es.EZ (V/m) @ t=1.02
2.8460945732442626
% es.tEX (V/m) @ t=1.02
-1.0972262036372449
% es.tEY (V/m) @ t=1.02
0
% es.tEZ (V/m) @ t=1.02
2.846094573244258
% es.Ex (V/m) @ t=1.02
-1.0972262036372236
% es.Ey (V/m) @ t=1.02
0.34858469736529174
% es.Ez (V/m) @ t=1.02
2.8460945732442626
% es.tEx (V/m) @ t=1.02
-1.0972262036372449
% es.tEy (V/m) @ t=1.02
0
% es.tEz (V/m) @ t=1.02
2.846094573244258
% V (V) @ t=1.02
0.014987972640276433
% es.normE (V/m) @ t=1.04
3.105016252885334
% es.EX (V/m) @ t=1.04
-1.106740179763118
% es.EY (V/m) @ t=1.04
0.35160718683801084
% es.EZ (V/m) @ t=1.04
2.870772262826555
% es.tEX (V/m) @ t=1.04
-1.1067401797631322
% es.tEY (V/m) @ t=1.04
0
% es.tEZ (V/m) @ t=1.04
2.8707722628265557