% Model:              1 neuron.mph
% Version:            COMSOL 6.1.0.252
% Date:               Mar 22 2023, 20:13
% Dimension:          0
% Nodes:              14017
% Expressions:        14017
% Description:        Electric field norm, Electric field, X component, Electric field, Y component, Electric field, Z component, Tangential electric field, X component, Tangential electric field, Y component, Tangential electric field, Z component, Electric field, x component, Electric field, y component, Electric field, z component, Tangential electric field, x component, Tangential electric field, y component, Tangential electric field, z component, Electric potential
% Length unit:        mm
% x
1.33
% y
12.2
% z
1.33
% es.normE (V/m) @ t=0
11.75752217157821
% es.EX (V/m) @ t=0
9.110719011915911
% es.EY (V/m) @ t=0
-1.396031993484712
% es.EZ (V/m) @ t=0
7.278472663484061
% es.tEX (V/m) @ t=0
9.110719011915977
% es.tEY (V/m) @ t=0
0
% es.tEZ (V/m) @ t=0
7.278472663484052
% es.Ex (V/m) @ t=0
9.110719011915911
% es.Ey (V/m) @ t=0
-1.396031993484712
% es.Ez (V/m) @ t=0
7.278472663484061
% es.tEx (V/m) @ t=0
9.110719011915977
% es.tEy (V/m) @ t=0
0
% es.tEz (V/m) @ t=0
7.278472663484052
% V (V) @ t=0
0.009709747850578623
% es.normE (V/m) @ t=0.02
10.15515106743387
% es.EX (V/m) @ t=0.02
7.869066844939299
% es.EY (V/m) @ t=0.02
-1.205774106317154
% es.EZ (V/m) @ t=0.02
6.286527752967383
% es.tEX (V/m) @ t=0.02
7.869066844939329
% es.tEY (V/m) @ t=0.02
0
% es.tEZ (V/m) @ t=0.02
6.286527752967377
% es.Ex (V/m) @ t=0.02
7.869066844939299
% es.Ey (V/m) @ t=0.02
-1.205774106317154
% es.Ez (V/m) @ t=0.02
6.286527752967383
% es.tEx (V/m) @ t=0.02
7.869066844939329
% es.tEy (V/m) @ t=0.02
0
% es.tEz (V/m) @ t=0.02
6.286527752967377
% V (V) @ t=0.02
0.008386457181252308
% es.normE (V/m) @ t=0.04
10.24862587159994
% es.EX (V/m) @ t=0.04
7.941499000513373
% es.EY (V/m) @ t=0.04
-1.2168728620338474
% es.EZ (V/m) @ t=0.04
6.344393158985769
% es.tEX (V/m) @ t=0.04
7.941499000513414
% es.tEY (V/m) @ t=0.04
0
% es.tEZ (V/m) @ t=0.04
6.344393158985784
% es.Ex (V/m) @ t=0.04
7.941499000513373
% es.Ey (V/m) @ t=0.04
-1.2168728620338474
% es.Ez (V/m) @ t=0.04
6.344393158985769
% es.tEx (V/m) @ t=0.04
7.941499000513414
% es.tEy (V/m) @ t=0.04
0
% es.tEz (V/m) @ t=0.04
6.344393158985784
% V (V) @ t=0.04
0.008463651752300426
% es.normE (V/m) @ t=0.06
10.342843740313294
% es.EX (V/m) @ t=0.06
8.014506945058367
% es.EY (V/m) @ t=0.06
-1.228059851456674
% es.EZ (V/m) @ t=0.06
6.402718556302862
% es.tEX (V/m) @ t=0.06
8.014506945058391
% es.tEY (V/m) @ t=0.06
0
% es.tEZ (V/m) @ t=0.06
6.4027185563028555
% es.Ex (V/m) @ t=0.06
8.014506945058367
% es.Ey (V/m) @ t=0.06
-1.228059851456674
% es.Ez (V/m) @ t=0.06
6.402718556302862
% es.tEx (V/m) @ t=0.06
8.014506945058391
% es.tEy (V/m) @ t=0.06
0
% es.tEz (V/m) @ t=0.06
6.4027185563028555
% V (V) @ t=0.06
0.008541459982413176
% es.normE (V/m) @ t=0.08
10.438730712989097
% es.EX (V/m) @ t=0.08
8.088808252203538
% es.EY (V/m) @ t=0.08
-1.2394450008216982
% es.EZ (V/m) @ t=0.08
6.462077214844112
% es.tEX (V/m) @ t=0.08
8.088808252203558
% es.tEY (V/m) @ t=0.08
0
% es.tEZ (V/m) @ t=0.08
6.462077214844108
% es.Ex (V/m) @ t=0.08
8.088808252203538
% es.Ey (V/m) @ t=0.08
-1.2394450008216982
% es.Ez (V/m) @ t=0.08
6.462077214844112
% es.tEx (V/m) @ t=0.08
8.088808252203558
% es.tEy (V/m) @ t=0.08
0
% es.tEz (V/m) @ t=0.08
6.462077214844108
% V (V) @ t=0.08
0.008620646568862387
% es.normE (V/m) @ t=0.1
10.535298019479493
% es.EX (V/m) @ t=0.1
8.163636739399358
% es.EY (V/m) @ t=0.1
-1.2509109210148566
% es.EZ (V/m) @ t=0.1
6.521857035018133
% es.tEX (V/m) @ t=0.1
8.16363673939938
% es.tEY (V/m) @ t=0.1
0
% es.tEZ (V/m) @ t=0.1
6.521857035018142
% es.Ex (V/m) @ t=0.1
8.163636739399358
% es.Ey (V/m) @ t=0.1
-1.2509109210148566
% es.Ez (V/m) @ t=0.1
6.521857035018133
% es.tEx (V/m) @ t=0.1
8.16363673939938
% es.tEy (V/m) @ t=0.1
0
% es.tEz (V/m) @ t=0.1
6.521857035018142
% V (V) @ t=0.1
0.008700394979167629
% es.normE (V/m) @ t=0.12
10.631865325969876
% es.EX (V/m) @ t=0.12
8.238465226595126
% es.EY (V/m) @ t=0.12
-1.2623768412080825
% es.EZ (V/m) @ t=0.12
6.581636855192183
% es.tEX (V/m) @ t=0.12
8.238465226595144
% es.tEY (V/m) @ t=0.12
0
% es.tEZ (V/m) @ t=0.12
6.581636855192186
% es.Ex (V/m) @ t=0.12
8.238465226595126
% es.Ey (V/m) @ t=0.12
-1.2623768412080825
% es.Ez (V/m) @ t=0.12
6.581636855192183
% es.tEx (V/m) @ t=0.12
8.238465226595144
% es.tEy (V/m) @ t=0.12
0
% es.tEz (V/m) @ t=0.12
6.581636855192186
% V (V) @ t=0.12
0.008780143389472873
% es.normE (V/m) @ t=0.14
10.730568067932584
% es.EX (V/m) @ t=0.14
8.314948428991462
% es.EY (V/m) @ t=0.14
-1.2740963316064189
% es.EZ (V/m) @ t=0.14
6.6427386080164865
% es.tEX (V/m) @ t=0.14
8.314948428991482
% es.tEY (V/m) @ t=0.14
0
% es.tEZ (V/m) @ t=0.14
6.642738608016498
% es.Ex (V/m) @ t=0.14
8.314948428991462
% es.Ey (V/m) @ t=0.14
-1.2740963316064189
% es.Ez (V/m) @ t=0.14
6.6427386080164865
% es.tEx (V/m) @ t=0.14
8.314948428991482
% es.tEy (V/m) @ t=0.14
0
% es.tEz (V/m) @ t=0.14
6.642738608016498
% V (V) @ t=0.14
0.008861655351441214
% es.normE (V/m) @ t=0.16
10.83209615951015
% es.EX (V/m) @ t=0.16
8.393620950154498
% es.EY (V/m) @ t=0.16
-1.286151315392683
% es.EZ (V/m) @ t=0.16
6.705589382037009
% es.tEX (V/m) @ t=0.16
8.39362095015451
% es.tEY (V/m) @ t=0.16
0
% es.tEZ (V/m) @ t=0.16
6.7055893820370045
% es.Ex (V/m) @ t=0.16
8.393620950154498
% es.Ey (V/m) @ t=0.16
-1.286151315392683
% es.Ez (V/m) @ t=0.16
6.705589382037009
% es.tEx (V/m) @ t=0.16
8.39362095015451
% es.tEy (V/m) @ t=0.16
0
% es.tEz (V/m) @ t=0.16
6.7055893820370045
% V (V) @ t=0.16
0.008945500631403308
% es.normE (V/m) @ t=0.18
10.933624251087693
% es.EX (V/m) @ t=0.18
8.472293471317496
% es.EY (V/m) @ t=0.18
-1.298206299178954
% es.EZ (V/m) @ t=0.18
6.768440156057524
% es.tEX (V/m) @ t=0.18
8.47229347131751
% es.tEY (V/m) @ t=0.18
0
% es.tEZ (V/m) @ t=0.18
6.768440156057531
% es.Ex (V/m) @ t=0.18
8.472293471317496
% es.Ey (V/m) @ t=0.18
-1.298206299178954
% es.Ez (V/m) @ t=0.18
6.768440156057524
% es.tEx (V/m) @ t=0.18
8.47229347131751
% es.tEy (V/m) @ t=0.18
0
% es.tEz (V/m) @ t=0.18
6.768440156057531
% V (V) @ t=0.18
0.009029345911365403
% es.normE (V/m) @ t=0.2
11.035152342665253
% es.EX (V/m) @ t=0.2
8.55096599248051
% es.EY (V/m) @ t=0.2
-1.310261282965234
% es.EZ (V/m) @ t=0.2
6.831290930078054
% es.tEX (V/m) @ t=0.2
8.550965992480565
% es.tEY (V/m) @ t=0.2
0
% es.tEZ (V/m) @ t=0.2
6.831290930078044
% es.Ex (V/m) @ t=0.2
8.55096599248051
% es.Ey (V/m) @ t=0.2
-1.310261282965234
% es.Ez (V/m) @ t=0.2
6.831290930078054
% es.tEx (V/m) @ t=0.2
8.550965992480565
% es.tEy (V/m) @ t=0.2
0
% es.tEz (V/m) @ t=0.2
6.831290930078044
% V (V) @ t=0.2
0.009113191191327499
% es.normE (V/m) @ t=0.22
11.136680434242807
% es.EX (V/m) @ t=0.22
8.629638513643538
% es.EY (V/m) @ t=0.22
-1.3223162667515105
% es.EZ (V/m) @ t=0.22
6.894141704098558
% es.tEX (V/m) @ t=0.22
8.62963851364355
% es.tEY (V/m) @ t=0.22
0
% es.tEZ (V/m) @ t=0.22
6.8941417040985415
% es.Ex (V/m) @ t=0.22
8.629638513643538
% es.Ey (V/m) @ t=0.22
-1.3223162667515105
% es.Ez (V/m) @ t=0.22
6.894141704098558
% es.tEx (V/m) @ t=0.22
8.62963851364355
% es.tEy (V/m) @ t=0.22
0
% es.tEz (V/m) @ t=0.22
6.8941417040985415
% V (V) @ t=0.22
0.009197036471289591
% es.normE (V/m) @ t=0.24
11.238208525820369
% es.EX (V/m) @ t=0.24
8.708311034806552
% es.EY (V/m) @ t=0.24
-1.334371250537746
% es.EZ (V/m) @ t=0.24
6.9569924781190915
% es.tEX (V/m) @ t=0.24
8.708311034806563
% es.tEY (V/m) @ t=0.24
0
% es.tEZ (V/m) @ t=0.24
6.956992478119091
% es.Ex (V/m) @ t=0.24
8.708311034806552
% es.Ey (V/m) @ t=0.24
-1.334371250537746
% es.Ez (V/m) @ t=0.24
6.9569924781190915
% es.tEx (V/m) @ t=0.24
8.708311034806563
% es.tEy (V/m) @ t=0.24
0
% es.tEz (V/m) @ t=0.24
6.956992478119091
% V (V) @ t=0.24
0.009280881751251685
% es.normE (V/m) @ t=0.26
11.339736617397921
% es.EX (V/m) @ t=0.26
8.786983555969567
% es.EY (V/m) @ t=0.26
-1.3464262343240456
% es.EZ (V/m) @ t=0.26
7.019843252139607
% es.tEX (V/m) @ t=0.26
8.786983555969606
% es.tEY (V/m) @ t=0.26
0
% es.tEZ (V/m) @ t=0.26
7.019843252139603
% es.Ex (V/m) @ t=0.26
8.786983555969567
% es.Ey (V/m) @ t=0.26
-1.3464262343240456
% es.Ez (V/m) @ t=0.26
7.019843252139607
% es.tEx (V/m) @ t=0.26
8.786983555969606
% es.tEy (V/m) @ t=0.26
0
% es.tEz (V/m) @ t=0.26
7.019843252139603
% V (V) @ t=0.26
0.009364727031213781
% es.normE (V/m) @ t=0.28
11.4509352108074
% es.EX (V/m) @ t=0.28
8.873149591580232
% es.EY (V/m) @ t=0.28
-1.3596300726147525
% es.EZ (V/m) @ t=0.28
7.088680373505772
% es.tEX (V/m) @ t=0.28
8.873149591580276
% es.tEY (V/m) @ t=0.28
0
% es.tEZ (V/m) @ t=0.28
7.088680373505754
% es.Ex (V/m) @ t=0.28
8.873149591580232
% es.Ey (V/m) @ t=0.28
-1.3596300726147525
% es.Ez (V/m) @ t=0.28
7.088680373505772
% es.tEx (V/m) @ t=0.28
8.873149591580276
% es.tEy (V/m) @ t=0.28
0
% es.tEz (V/m) @ t=0.28
7.088680373505754
% V (V) @ t=0.28
0.009456559823145118
% es.normE (V/m) @ t=0.3
11.563571981739425
% es.EX (V/m) @ t=0.3
8.960430047541562
% es.EY (V/m) @ t=0.3
-1.3730047662296272
% es.EZ (V/m) @ t=0.3
7.158407772371899
% es.tEX (V/m) @ t=0.3
8.96043004754156
% es.tEY (V/m) @ t=0.3
0
% es.tEZ (V/m) @ t=0.3
7.158407772371902
% es.Ex (V/m) @ t=0.3
8.960430047541562
% es.Ey (V/m) @ t=0.3
-1.3730047662296272
% es.Ez (V/m) @ t=0.3
7.158407772371899
% es.tEx (V/m) @ t=0.3
8.96043004754156
% es.tEy (V/m) @ t=0.3
0
% es.tEz (V/m) @ t=0.3
7.158407772371902
% V (V) @ t=0.3
0.00954958050174195
% es.normE (V/m) @ t=0.32
11.676208752671563
% es.EX (V/m) @ t=0.32
9.047710503502929
% es.EY (V/m) @ t=0.32
-1.3863794598445018
% es.EZ (V/m) @ t=0.32
7.228135171238019
% es.tEX (V/m) @ t=0.32
9.047710503502932
% es.tEY (V/m) @ t=0.32
0
% es.tEZ (V/m) @ t=0.32
7.22813517123802
% es.Ex (V/m) @ t=0.32
9.047710503502929
% es.Ey (V/m) @ t=0.32
-1.3863794598445018
% es.Ez (V/m) @ t=0.32
7.228135171238019
% es.tEx (V/m) @ t=0.32
9.047710503502932
% es.tEy (V/m) @ t=0.32
0
% es.tEz (V/m) @ t=0.32
7.22813517123802
% V (V) @ t=0.32
0.00964260118033878
% es.normE (V/m) @ t=0.34
11.788845523603818
% es.EX (V/m) @ t=0.34
9.134990959464304
% es.EY (V/m) @ t=0.34
-1.3997541534593516
% es.EZ (V/m) @ t=0.34
7.297862570104174
% es.tEX (V/m) @ t=0.34
9.134990959464302
% es.tEY (V/m) @ t=0.34
0
% es.tEZ (V/m) @ t=0.34
7.297862570104161
% es.Ex (V/m) @ t=0.34
9.134990959464304
% es.Ey (V/m) @ t=0.34
-1.3997541534593516
% es.Ez (V/m) @ t=0.34
7.297862570104174
% es.tEx (V/m) @ t=0.34
9.134990959464302
% es.tEy (V/m) @ t=0.34
0
% es.tEz (V/m) @ t=0.34
7.297862570104161
% V (V) @ t=0.34
0.00973562185893561
% es.normE (V/m) @ t=0.36
11.901482294536095
% es.EX (V/m) @ t=0.36
9.22227141542562
% es.EY (V/m) @ t=0.36
-1.4131288470741765
% es.EZ (V/m) @ t=0.36
7.3675899689703055
% es.tEX (V/m) @ t=0.36
9.222271415425672
% es.tEY (V/m) @ t=0.36
0
% es.tEZ (V/m) @ t=0.36
7.367589968970288
% es.Ex (V/m) @ t=0.36
9.22227141542562
% es.Ey (V/m) @ t=0.36
-1.4131288470741765
% es.Ez (V/m) @ t=0.36
7.3675899689703055
% es.tEx (V/m) @ t=0.36
9.222271415425672
% es.tEy (V/m) @ t=0.36
0
% es.tEz (V/m) @ t=0.36
7.367589968970288
% V (V) @ t=0.36
0.00982864253753244
% es.normE (V/m) @ t=0.38
12.01411906546847
% es.EX (V/m) @ t=0.38
9.309551871386965
% es.EY (V/m) @ t=0.38
-1.426503540689069
% es.EZ (V/m) @ t=0.38
7.4373173678364175
% es.tEX (V/m) @ t=0.38
9.309551871387015
% es.tEY (V/m) @ t=0.38
0
% es.tEZ (V/m) @ t=0.38
7.437317367836419
% es.Ex (V/m) @ t=0.38
9.309551871386965
% es.Ey (V/m) @ t=0.38
-1.426503540689069
% es.Ez (V/m) @ t=0.38
7.4373173678364175
% es.tEx (V/m) @ t=0.38
9.309551871387015
% es.tEy (V/m) @ t=0.38
0
% es.tEz (V/m) @ t=0.38
7.437317367836419
% V (V) @ t=0.38
0.009921663216129271
% es.normE (V/m) @ t=0.4
12.126755836400967
% es.EX (V/m) @ t=0.4
9.396832327348346
% es.EY (V/m) @ t=0.4
-1.439878234303908
% es.EZ (V/m) @ t=0.4
7.507044766702559
% es.tEX (V/m) @ t=0.4
9.39683232734837
% es.tEY (V/m) @ t=0.4
0
% es.tEZ (V/m) @ t=0.4
7.507044766702538
% es.Ex (V/m) @ t=0.4
9.396832327348346
% es.Ey (V/m) @ t=0.4
-1.439878234303908
% es.Ez (V/m) @ t=0.4
7.507044766702559
% es.tEx (V/m) @ t=0.4
9.39683232734837
% es.tEy (V/m) @ t=0.4
0
% es.tEz (V/m) @ t=0.4
7.507044766702538
% V (V) @ t=0.4
0.010014683894726102
% es.normE (V/m) @ t=0.42
12.239392607333532
% es.EX (V/m) @ t=0.42
9.484112783309712
% es.EY (V/m) @ t=0.42
-1.4532529279187507
% es.EZ (V/m) @ t=0.42
7.5767721655687
% es.tEX (V/m) @ t=0.42
9.484112783309726
% es.tEY (V/m) @ t=0.42
0
% es.tEZ (V/m) @ t=0.42
7.5767721655687
% es.Ex (V/m) @ t=0.42
9.484112783309712
% es.Ey (V/m) @ t=0.42
-1.4532529279187507
% es.Ez (V/m) @ t=0.42
7.5767721655687
% es.tEx (V/m) @ t=0.42
9.484112783309726
% es.tEy (V/m) @ t=0.42
0
% es.tEz (V/m) @ t=0.42
7.5767721655687
% V (V) @ t=0.42
0.010107704573322931
% es.normE (V/m) @ t=0.44
12.352029378266145
% es.EX (V/m) @ t=0.44
9.57139323927105
% es.EY (V/m) @ t=0.44
-1.4666276215336342
% es.EZ (V/m) @ t=0.44
7.646499564434826
% es.tEX (V/m) @ t=0.44
9.571393239271083
% es.tEY (V/m) @ t=0.44
0
% es.tEZ (V/m) @ t=0.44
7.646499564434818
% es.Ex (V/m) @ t=0.44
9.57139323927105
% es.Ey (V/m) @ t=0.44
-1.4666276215336342
% es.Ez (V/m) @ t=0.44
7.646499564434826
% es.tEx (V/m) @ t=0.44
9.571393239271083
% es.tEy (V/m) @ t=0.44
0
% es.tEz (V/m) @ t=0.44
7.646499564434818
% V (V) @ t=0.44
0.010200725251919764
% es.normE (V/m) @ t=0.46
12.46466614919887
% es.EX (V/m) @ t=0.46
9.65867369523243
% es.EY (V/m) @ t=0.46
-1.4800023151484663
% es.EZ (V/m) @ t=0.46
7.716226963300969
% es.tEX (V/m) @ t=0.46
9.658673695232482
% es.tEY (V/m) @ t=0.46
0
% es.tEZ (V/m) @ t=0.46
7.716226963300953
% es.Ex (V/m) @ t=0.46
9.65867369523243
% es.Ey (V/m) @ t=0.46
-1.4800023151484663
% es.Ez (V/m) @ t=0.46
7.716226963300969
% es.tEx (V/m) @ t=0.46
9.658673695232482
% es.tEy (V/m) @ t=0.46
0
% es.tEz (V/m) @ t=0.46
7.716226963300953
% V (V) @ t=0.46
0.010293745930516593
% es.normE (V/m) @ t=0.48
12.577302920131636
% es.EX (V/m) @ t=0.48
9.745954151193782
% es.EY (V/m) @ t=0.48
-1.4933770087632965
% es.EZ (V/m) @ t=0.48
7.785954362167092
% es.tEX (V/m) @ t=0.48
9.745954151193839
% es.tEY (V/m) @ t=0.48
0
% es.tEZ (V/m) @ t=0.48
7.785954362167064
% es.Ex (V/m) @ t=0.48
9.745954151193782
% es.Ey (V/m) @ t=0.48
-1.4933770087632965
% es.Ez (V/m) @ t=0.48
7.785954362167092
% es.tEx (V/m) @ t=0.48
9.745954151193839
% es.tEy (V/m) @ t=0.48
0
% es.tEz (V/m) @ t=0.48
7.785954362167064
% V (V) @ t=0.48
0.010386766609113423
% es.normE (V/m) @ t=0.5
12.689939691064495
% es.EX (V/m) @ t=0.5
9.83323460715515
% es.EY (V/m) @ t=0.5
-1.5067517023782013
% es.EZ (V/m) @ t=0.5
7.8556817610332255
% es.tEX (V/m) @ t=0.5
9.83323460715518
% es.tEY (V/m) @ t=0.5
0
% es.tEZ (V/m) @ t=0.5
7.855681761033224
% es.Ex (V/m) @ t=0.5
9.83323460715515
% es.Ey (V/m) @ t=0.5
-1.5067517023782013
% es.Ez (V/m) @ t=0.5
7.8556817610332255
% es.tEx (V/m) @ t=0.5
9.83323460715518
% es.tEy (V/m) @ t=0.5
0
% es.tEz (V/m) @ t=0.5
7.855681761033224
% V (V) @ t=0.5
0.010479787287710254
% es.normE (V/m) @ t=0.52
12.80257646199738
% es.EX (V/m) @ t=0.52
9.920515063116474
% es.EY (V/m) @ t=0.52
-1.5201263959930635
% es.EZ (V/m) @ t=0.52
7.925409159899353
% es.tEX (V/m) @ t=0.52
9.920515063116522
% es.tEY (V/m) @ t=0.52
0
% es.tEZ (V/m) @ t=0.52
7.925409159899344
% es.Ex (V/m) @ t=0.52
9.920515063116474
% es.Ey (V/m) @ t=0.52
-1.5201263959930635
% es.Ez (V/m) @ t=0.52
7.925409159899353
% es.tEx (V/m) @ t=0.52
9.920515063116522
% es.tEy (V/m) @ t=0.52
0
% es.tEz (V/m) @ t=0.52
7.925409159899344
% V (V) @ t=0.52
0.010572807966307085
% es.normE (V/m) @ t=0.54
12.924619131073646
% es.EX (V/m) @ t=0.54
10.015084005241537
% es.EY (V/m) @ t=0.54
-1.5346174892916231
% es.EZ (V/m) @ t=0.54
8.000959367505917
% es.tEX (V/m) @ t=0.54
10.015084005241583
% es.tEY (V/m) @ t=0.54
0
% es.tEZ (V/m) @ t=0.54
8.000959367505919
% es.Ex (V/m) @ t=0.54
10.015084005241537
% es.Ey (V/m) @ t=0.54
-1.5346174892916231
% es.Ez (V/m) @ t=0.54
8.000959367505917
% es.tEx (V/m) @ t=0.54
10.015084005241583
% es.tEy (V/m) @ t=0.54
0
% es.tEz (V/m) @ t=0.54
8.000959367505919
% V (V) @ t=0.54
0.010673595491201403
% es.normE (V/m) @ t=0.56
13.04978572836026
% es.EX (V/m) @ t=0.56
10.112073631408816
% es.EY (V/m) @ t=0.56
-1.5494793661572874
% es.EZ (V/m) @ t=0.56
8.07844347193017
% es.tEX (V/m) @ t=0.56
10.112073631408855
% es.tEY (V/m) @ t=0.56
0
% es.tEZ (V/m) @ t=0.56
8.078443471930166
% es.Ex (V/m) @ t=0.56
10.112073631408816
% es.Ey (V/m) @ t=0.56
-1.5494793661572874
% es.Ez (V/m) @ t=0.56
8.07844347193017
% es.tEx (V/m) @ t=0.56
10.112073631408855
% es.tEy (V/m) @ t=0.56
0
% es.tEz (V/m) @ t=0.56
8.078443471930166
% V (V) @ t=0.56
0.010776962575206802
% es.normE (V/m) @ t=0.58
13.174952325646796
% es.EX (V/m) @ t=0.58
10.209063257576002
% es.EY (V/m) @ t=0.58
-1.5643412430230317
% es.EZ (V/m) @ t=0.58
8.155927576354406
% es.tEX (V/m) @ t=0.58
10.20906325757607
% es.tEY (V/m) @ t=0.58
0
% es.tEZ (V/m) @ t=0.58
8.155927576354422
% es.Ex (V/m) @ t=0.58
10.209063257576002
% es.Ey (V/m) @ t=0.58
-1.5643412430230317
% es.Ez (V/m) @ t=0.58
8.155927576354406
% es.tEx (V/m) @ t=0.58
10.20906325757607
% es.tEy (V/m) @ t=0.58
0
% es.tEz (V/m) @ t=0.58
8.155927576354422
% V (V) @ t=0.58
0.0108803296592122
% es.normE (V/m) @ t=0.6
13.300118922933407
% es.EX (V/m) @ t=0.6
10.30605288374326
% es.EY (V/m) @ t=0.6
-1.5792031198887333
% es.EZ (V/m) @ t=0.6
8.233411680778676
% es.tEX (V/m) @ t=0.6
10.306052883743284
% es.tEY (V/m) @ t=0.6
0
% es.tEZ (V/m) @ t=0.6
8.23341168077867
% es.Ex (V/m) @ t=0.6
10.30605288374326
% es.Ey (V/m) @ t=0.6
-1.5792031198887333
% es.Ez (V/m) @ t=0.6
8.233411680778676
% es.tEx (V/m) @ t=0.6
10.306052883743284
% es.tEy (V/m) @ t=0.6
0
% es.tEz (V/m) @ t=0.6
8.23341168077867
% V (V) @ t=0.6
0.010983696743217598
% es.normE (V/m) @ t=0.62
13.425285520219914
% es.EX (V/m) @ t=0.62
10.403042509910396
% es.EY (V/m) @ t=0.62
-1.5940649967544118
% es.EZ (V/m) @ t=0.62
8.310895785202932
% es.tEX (V/m) @ t=0.62
10.403042509910444
% es.tEY (V/m) @ t=0.62
0
% es.tEZ (V/m) @ t=0.62
8.310895785202916
% es.Ex (V/m) @ t=0.62
10.403042509910396
% es.Ey (V/m) @ t=0.62
-1.5940649967544118
% es.Ez (V/m) @ t=0.62
8.310895785202932
% es.tEx (V/m) @ t=0.62
10.403042509910444
% es.tEy (V/m) @ t=0.62
0
% es.tEz (V/m) @ t=0.62
8.310895785202916
% V (V) @ t=0.62
0.011087063827222996
% es.normE (V/m) @ t=0.64
13.550452117506508
% es.EX (V/m) @ t=0.64
10.500032136077632
% es.EY (V/m) @ t=0.64
-1.6089268736201046
% es.EZ (V/m) @ t=0.64
8.388379889627199
% es.tEX (V/m) @ t=0.64
10.500032136077687
% es.tEY (V/m) @ t=0.64
0
% es.tEZ (V/m) @ t=0.64
8.388379889627195
% es.Ex (V/m) @ t=0.64
10.500032136077632
% es.Ey (V/m) @ t=0.64
-1.6089268736201046
% es.Ez (V/m) @ t=0.64
8.388379889627199
% es.tEx (V/m) @ t=0.64
10.500032136077687
% es.tEy (V/m) @ t=0.64
0
% es.tEz (V/m) @ t=0.64
8.388379889627195
% V (V) @ t=0.64
0.011190430911228396
% es.normE (V/m) @ t=0.66
13.675618714793133
% es.EX (V/m) @ t=0.66
10.59702176224489
% es.EY (V/m) @ t=0.66
-1.6237887504857742
% es.EZ (V/m) @ t=0.66
8.465863994051485
% es.tEX (V/m) @ t=0.66
10.597021762244902
% es.tEY (V/m) @ t=0.66
0
% es.tEZ (V/m) @ t=0.66
8.465863994051478
% es.Ex (V/m) @ t=0.66
10.59702176224489
% es.Ey (V/m) @ t=0.66
-1.6237887504857742
% es.Ez (V/m) @ t=0.66
8.465863994051485
% es.tEx (V/m) @ t=0.66
10.597021762244902
% es.tEy (V/m) @ t=0.66
0
% es.tEz (V/m) @ t=0.66
8.465863994051478
% V (V) @ t=0.66
0.01129379799523379
% es.normE (V/m) @ t=0.68
13.800785312079704
% es.EX (V/m) @ t=0.68
10.694011388412097
% es.EY (V/m) @ t=0.68
-1.6386506273515344
% es.EZ (V/m) @ t=0.68
8.543348098475738
% es.tEX (V/m) @ t=0.68
10.694011388412116
% es.tEY (V/m) @ t=0.68
0
% es.tEZ (V/m) @ t=0.68
8.543348098475741
% es.Ex (V/m) @ t=0.68
10.694011388412097
% es.Ey (V/m) @ t=0.68
-1.6386506273515344
% es.Ez (V/m) @ t=0.68
8.543348098475738
% es.tEx (V/m) @ t=0.68
10.694011388412116
% es.tEy (V/m) @ t=0.68
0
% es.tEz (V/m) @ t=0.68
8.543348098475741
% V (V) @ t=0.68
0.01139716507923919
% es.normE (V/m) @ t=0.7
13.925951909366221
% es.EX (V/m) @ t=0.7
10.791001014579235
% es.EY (V/m) @ t=0.7
-1.653512504217236
% es.EZ (V/m) @ t=0.7
8.620832202899997
% es.tEX (V/m) @ t=0.7
10.791001014579276
% es.tEY (V/m) @ t=0.7
0
% es.tEZ (V/m) @ t=0.7
8.620832202899981
% es.Ex (V/m) @ t=0.7
10.791001014579235
% es.Ey (V/m) @ t=0.7
-1.653512504217236
% es.Ez (V/m) @ t=0.7
8.620832202899997
% es.tEx (V/m) @ t=0.7
10.791001014579276
% es.tEy (V/m) @ t=0.7
0
% es.tEz (V/m) @ t=0.7
8.620832202899981
% V (V) @ t=0.7
0.011500532163244589
% es.normE (V/m) @ t=0.72
14.051118506652776
% es.EX (V/m) @ t=0.72
10.887990640746436
% es.EY (V/m) @ t=0.72
-1.6683743810829395
% es.EZ (V/m) @ t=0.72
8.698316307324234
% es.tEX (V/m) @ t=0.72
10.88799064074649
% es.tEY (V/m) @ t=0.72
0
% es.tEZ (V/m) @ t=0.72
8.698316307324259
% es.Ex (V/m) @ t=0.72
10.887990640746436
% es.Ey (V/m) @ t=0.72
-1.6683743810829395
% es.Ez (V/m) @ t=0.72
8.698316307324234
% es.tEx (V/m) @ t=0.72
10.88799064074649
% es.tEy (V/m) @ t=0.72
0
% es.tEz (V/m) @ t=0.72
8.698316307324259
% V (V) @ t=0.72
0.011603899247249985
% es.normE (V/m) @ t=0.74
14.176285103939389
% es.EX (V/m) @ t=0.74
10.984980266913679
% es.EY (V/m) @ t=0.74
-1.6832362579486055
% es.EZ (V/m) @ t=0.74
8.775800411748518
% es.tEX (V/m) @ t=0.74
10.984980266913734
% es.tEY (V/m) @ t=0.74
0
% es.tEZ (V/m) @ t=0.74
8.775800411748522
% es.Ex (V/m) @ t=0.74
10.984980266913679
% es.Ey (V/m) @ t=0.74
-1.6832362579486055
% es.Ez (V/m) @ t=0.74
8.775800411748518
% es.tEx (V/m) @ t=0.74
10.984980266913734
% es.tEy (V/m) @ t=0.74
0
% es.tEz (V/m) @ t=0.74
8.775800411748522
% V (V) @ t=0.74
0.011707266331255385
% es.normE (V/m) @ t=0.76
14.301451701225993
% es.EX (V/m) @ t=0.76
11.08196989308093
% es.EY (V/m) @ t=0.76
-1.698098134814332
% es.EZ (V/m) @ t=0.76
8.85328451617276
% es.tEX (V/m) @ t=0.76
11.081969893080949
% es.tEY (V/m) @ t=0.76
0
% es.tEZ (V/m) @ t=0.76
8.853284516172756
% es.Ex (V/m) @ t=0.76
11.08196989308093
% es.Ey (V/m) @ t=0.76
-1.698098134814332
% es.Ez (V/m) @ t=0.76
8.85328451617276
% es.tEx (V/m) @ t=0.76
11.081969893080949
% es.tEy (V/m) @ t=0.76
0
% es.tEz (V/m) @ t=0.76
8.853284516172756
% V (V) @ t=0.76
0.011810633415260783
% es.normE (V/m) @ t=0.78
14.426618298512551
% es.EX (V/m) @ t=0.78
11.178959519248101
% es.EY (V/m) @ t=0.78
-1.712960011680055
% es.EZ (V/m) @ t=0.78
8.930768620597036
% es.tEX (V/m) @ t=0.78
11.178959519248135
% es.tEY (V/m) @ t=0.78
0
% es.tEZ (V/m) @ t=0.78
8.930768620597032
% es.Ex (V/m) @ t=0.78
11.178959519248101
% es.Ey (V/m) @ t=0.78
-1.712960011680055
% es.Ez (V/m) @ t=0.78
8.930768620597036
% es.tEx (V/m) @ t=0.78
11.178959519248135
% es.tEy (V/m) @ t=0.78
0
% es.tEz (V/m) @ t=0.78
8.930768620597032
% V (V) @ t=0.78
0.011914000499266181
% es.normE (V/m) @ t=0.8
14.560716913287006
% es.EX (V/m) @ t=0.8
11.282870425727202
% es.EY (V/m) @ t=0.8
-1.7288823674416616
% es.EZ (V/m) @ t=0.8
9.01378209117142
% es.tEX (V/m) @ t=0.8
11.282870425727264
% es.tEY (V/m) @ t=0.8
0
% es.tEZ (V/m) @ t=0.8
9.013782091171414
% es.Ex (V/m) @ t=0.8
11.282870425727202
% es.Ey (V/m) @ t=0.8
-1.7288823674416616
% es.Ez (V/m) @ t=0.8
9.01378209117142
% es.tEx (V/m) @ t=0.8
11.282870425727264
% es.tEy (V/m) @ t=0.8
0
% es.tEz (V/m) @ t=0.8
9.013782091171414
% V (V) @ t=0.8
0.012024743800754177
% es.normE (V/m) @ t=0.82
14.70004276066766
% es.EX (V/m) @ t=0.82
11.390831832798304
% es.EY (V/m) @ t=0.82
-1.7454253410950997
% es.EZ (V/m) @ t=0.82
9.100031480514598
% es.tEX (V/m) @ t=0.82
11.390831832798323
% es.tEY (V/m) @ t=0.82
0
% es.tEZ (V/m) @ t=0.82
9.100031480514591
% es.Ex (V/m) @ t=0.82
11.390831832798304
% es.Ey (V/m) @ t=0.82
-1.7454253410950997
% es.Ez (V/m) @ t=0.82
9.100031480514598
% es.tEx (V/m) @ t=0.82
11.390831832798323
% es.tEy (V/m) @ t=0.82
0
% es.tEz (V/m) @ t=0.82
9.100031480514591
% V (V) @ t=0.82
0.012139803843066808
% es.normE (V/m) @ t=0.84
14.839368608048382
% es.EX (V/m) @ t=0.84
11.498793239869476
% es.EY (V/m) @ t=0.84
-1.7619683147485397
% es.EZ (V/m) @ t=0.84
9.186280869857791
% es.tEX (V/m) @ t=0.84
11.498793239869553
% es.tEY (V/m) @ t=0.84
0
% es.tEZ (V/m) @ t=0.84
9.186280869857796
% es.Ex (V/m) @ t=0.84
11.498793239869476
% es.Ey (V/m) @ t=0.84
-1.7619683147485397
% es.Ez (V/m) @ t=0.84
9.186280869857791
% es.tEx (V/m) @ t=0.84
11.498793239869553
% es.tEy (V/m) @ t=0.84
0
% es.tEz (V/m) @ t=0.84
9.186280869857796
% V (V) @ t=0.84
0.012254863885379446
% es.normE (V/m) @ t=0.86
14.97869445542905
% es.EX (V/m) @ t=0.86
11.606754646940571
% es.EY (V/m) @ t=0.86
-1.7785112884020275
% es.EZ (V/m) @ t=0.86
9.272530259200991
% es.tEX (V/m) @ t=0.86
11.606754646940612
% es.tEY (V/m) @ t=0.86
0
% es.tEZ (V/m) @ t=0.86
9.272530259200973
% es.Ex (V/m) @ t=0.86
11.606754646940571
% es.Ey (V/m) @ t=0.86
-1.7785112884020275
% es.Ez (V/m) @ t=0.86
9.272530259200991
% es.tEx (V/m) @ t=0.86
11.606754646940612
% es.tEy (V/m) @ t=0.86
0
% es.tEz (V/m) @ t=0.86
9.272530259200973
% V (V) @ t=0.86
0.012369923927692079
% es.normE (V/m) @ t=0.88
15.118020302809732
% es.EX (V/m) @ t=0.88
11.714716054011715
% es.EY (V/m) @ t=0.88
-1.7950542620554444
% es.EZ (V/m) @ t=0.88
9.358779648544163
% es.tEX (V/m) @ t=0.88
11.714716054011756
% es.tEY (V/m) @ t=0.88
0
% es.tEZ (V/m) @ t=0.88
9.358779648544152
% es.Ex (V/m) @ t=0.88
11.714716054011715
% es.Ey (V/m) @ t=0.88
-1.7950542620554444
% es.Ez (V/m) @ t=0.88
9.358779648544163
% es.tEx (V/m) @ t=0.88
11.714716054011756
% es.tEy (V/m) @ t=0.88
0
% es.tEz (V/m) @ t=0.88
9.358779648544152
% V (V) @ t=0.88
0.012484983970004714
% es.normE (V/m) @ t=0.9
15.257346150190395
% es.EX (V/m) @ t=0.9
11.822677461082817
% es.EY (V/m) @ t=0.9
-1.8115972357088985
% es.EZ (V/m) @ t=0.9
9.445029037887348
% es.tEX (V/m) @ t=0.9
11.822677461082872
% es.tEY (V/m) @ t=0.9
0
% es.tEZ (V/m) @ t=0.9
9.445029037887341
% es.Ex (V/m) @ t=0.9
11.822677461082817
% es.Ey (V/m) @ t=0.9
-1.8115972357088985
% es.Ez (V/m) @ t=0.9
9.445029037887348
% es.tEx (V/m) @ t=0.9
11.822677461082872
% es.tEy (V/m) @ t=0.9
0
% es.tEz (V/m) @ t=0.9
9.445029037887341
% V (V) @ t=0.9
0.012600044012317348
% es.normE (V/m) @ t=0.92
15.396671997571099
% es.EX (V/m) @ t=0.92
11.930638868153968
% es.EY (V/m) @ t=0.92
-1.8281402093623154
% es.EZ (V/m) @ t=0.92
9.531278427230548
% es.tEX (V/m) @ t=0.92
11.930638868154016
% es.tEY (V/m) @ t=0.92
0
% es.tEZ (V/m) @ t=0.92
9.531278427230546
% es.Ex (V/m) @ t=0.92
11.930638868153968
% es.Ey (V/m) @ t=0.92
-1.8281402093623154
% es.Ez (V/m) @ t=0.92
9.531278427230548
% es.tEx (V/m) @ t=0.92
11.930638868154016
% es.tEy (V/m) @ t=0.92
0
% es.tEz (V/m) @ t=0.92
9.531278427230546
% V (V) @ t=0.92
0.012715104054629984
% es.normE (V/m) @ t=0.94
15.535997844951794
% es.EX (V/m) @ t=0.94
12.038600275225098
% es.EY (V/m) @ t=0.94
-1.8446831830158015
% es.EZ (V/m) @ t=0.94
9.617527816573741
% es.tEX (V/m) @ t=0.94
12.038600275225132
% es.tEY (V/m) @ t=0.94
0
% es.tEZ (V/m) @ t=0.94
9.617527816573725
% es.Ex (V/m) @ t=0.94
12.038600275225098
% es.Ey (V/m) @ t=0.94
-1.8446831830158015
% es.Ez (V/m) @ t=0.94
9.617527816573741
% es.tEx (V/m) @ t=0.94
12.038600275225132
% es.tEy (V/m) @ t=0.94
0
% es.tEz (V/m) @ t=0.94
9.617527816573725
% V (V) @ t=0.94
0.012830164096942622
% es.normE (V/m) @ t=0.96
15.675323692332434
% es.EX (V/m) @ t=0.96
12.146561682296207
% es.EY (V/m) @ t=0.96
-1.8612261566692414
% es.EZ (V/m) @ t=0.96
9.703777205916891
% es.tEX (V/m) @ t=0.96
12.146561682296248
% es.tEY (V/m) @ t=0.96
0
% es.tEZ (V/m) @ t=0.96
9.703777205916873
% es.Ex (V/m) @ t=0.96
12.146561682296207
% es.Ey (V/m) @ t=0.96
-1.8612261566692414
% es.Ez (V/m) @ t=0.96
9.703777205916891
% es.tEx (V/m) @ t=0.96
12.146561682296248
% es.tEy (V/m) @ t=0.96
0
% es.tEz (V/m) @ t=0.96
9.703777205916873
% V (V) @ t=0.96
0.012945224139255253
% es.normE (V/m) @ t=0.98
15.814649539713187
% es.EX (V/m) @ t=0.98
12.254523089367416
% es.EY (V/m) @ t=0.98
-1.877769130322676
% es.EZ (V/m) @ t=0.98
9.790026595260086
% es.tEX (V/m) @ t=0.98
12.25452308936745
% es.tEY (V/m) @ t=0.98
0
% es.tEZ (V/m) @ t=0.98
9.79002659526008
% es.Ex (V/m) @ t=0.98
12.254523089367416
% es.Ey (V/m) @ t=0.98
-1.877769130322676
% es.Ez (V/m) @ t=0.98
9.790026595260086
% es.tEx (V/m) @ t=0.98
12.25452308936745
% es.tEy (V/m) @ t=0.98
0
% es.tEz (V/m) @ t=0.98
9.79002659526008
% V (V) @ t=0.98
0.013060284181567891
% es.normE (V/m) @ t=1
15.953975387093863
% es.EX (V/m) @ t=1
12.362484496438539
% es.EY (V/m) @ t=1
-1.8943121039761461
% es.EZ (V/m) @ t=1
9.876275984603264
% es.tEX (V/m) @ t=1
12.362484496438594
% es.tEY (V/m) @ t=1
0
% es.tEZ (V/m) @ t=1
9.876275984603284
% es.Ex (V/m) @ t=1
12.362484496438539
% es.Ey (V/m) @ t=1
-1.8943121039761461
% es.Ez (V/m) @ t=1
9.876275984603264
% es.tEx (V/m) @ t=1
12.362484496438594
% es.tEy (V/m) @ t=1
0
% es.tEz (V/m) @ t=1
9.876275984603284
% V (V) @ t=1
0.013175344223880527
% es.normE (V/m) @ t=1.02
16.093301234474573
% es.EX (V/m) @ t=1.02
12.470445903509702
% es.EY (V/m) @ t=1.02
-1.9108550776296003
% es.EZ (V/m) @ t=1.02
9.96252537394645
% es.tEX (V/m) @ t=1.02
12.470445903509738
% es.tEY (V/m) @ t=1.02
0
% es.tEZ (V/m) @ t=1.02
9.962525373946448
% es.Ex (V/m) @ t=1.02
12.470445903509702
% es.Ey (V/m) @ t=1.02
-1.9108550776296003
% es.Ez (V/m) @ t=1.02
9.96252537394645
% es.tEx (V/m) @ t=1.02
12.470445903509738
% es.tEy (V/m) @ t=1.02
0
% es.tEz (V/m) @ t=1.02
9.962525373946448
% V (V) @ t=1.02
0.01329040426619316
% es.normE (V/m) @ t=1.04
16.2326270818552
% es.EX (V/m) @ t=1.04
12.578407310580777
% es.EY (V/m) @ t=1.04
-1.9273980512830367
% es.EZ (V/m) @ t=1.04
10.048774763289622
% es.tEX (V/m) @ t=1.04
12.578407310580797
% es.tEY (V/m) @ t=1.04
0
% es.tEZ (V/m) @ t=1.04
10.04877476328964
% es.Ex (V/m) @ t=1.04
12.578407310580777
% es.Ey (V/m) @ t=1.04
-1.9273980512830367
% es.Ez (V/m) @ t=1.04
10.048774763289622
% es.tEx (V/m) @ t=1.04
12.578407310580797
% es.tEy (V/m) @ t=1.04
0
% es.tEz (V/m) @ t=1.04
10.04877476328964
% V (V) @ t=1.04
0.013405464308505798
% es.normE (V/m) @ t=1.06
16.375431607289755
% es.EX (V/m) @ t=1.06
12.689064291461836
% es.EY (V/m) @ t=1.06
-1.9443539605951603
% es.EZ (V/m) @ t=1.06