% Model:              1 neuron.mph
% Version:            COMSOL 6.1.0.252
% Date:               Mar 22 2023, 20:17
% Dimension:          0
% Nodes:              14017
% Expressions:        14017
% Description:        Electric field norm, Electric field, X component, Electric field, Y component, Electric field, Z component, Tangential electric field, X component, Tangential electric field, Y component, Tangential electric field, Z component, Electric field, x component, Electric field, y component, Electric field, z component, Tangential electric field, x component, Tangential electric field, y component, Tangential electric field, z component, Electric potential
% Length unit:        mm
% x
1
% y
12.2
% z
1.6599999999999997
% es.normE (V/m) @ t=0
2.4204756612365097
% es.EX (V/m) @ t=0
2.1668321362658527
% es.EY (V/m) @ t=0
0.08337040294921999
% es.EZ (V/m) @ t=0
-1.0754488442313541
% es.tEX (V/m) @ t=0
2.166832136265848
% es.tEY (V/m) @ t=0
0
% es.tEZ (V/m) @ t=0
-1.0754488442313388
% es.Ex (V/m) @ t=0
2.1668321362658527
% es.Ey (V/m) @ t=0
0.08337040294921999
% es.Ez (V/m) @ t=0
-1.0754488442313541
% es.tEx (V/m) @ t=0
2.166832136265848
% es.tEy (V/m) @ t=0
0
% es.tEz (V/m) @ t=0
-1.0754488442313388
% V (V) @ t=0
0.01098166952135245
% es.normE (V/m) @ t=0.02
2.0905973118032906
% es.EX (V/m) @ t=0.02
1.871521994986525
% es.EY (V/m) @ t=0.02
0.07200814450143916
% es.EZ (V/m) @ t=0.02
-0.9288795995252599
% es.tEX (V/m) @ t=0.02
1.8715219949865292
% es.tEY (V/m) @ t=0.02
0
% es.tEZ (V/m) @ t=0.02
-0.9288795995252599
% es.Ex (V/m) @ t=0.02
1.871521994986525
% es.Ey (V/m) @ t=0.02
0.07200814450143916
% es.Ez (V/m) @ t=0.02
-0.9288795995252599
% es.tEx (V/m) @ t=0.02
1.8715219949865292
% es.tEy (V/m) @ t=0.02
0
% es.tEz (V/m) @ t=0.02
-0.9288795995252599
% V (V) @ t=0.02
0.009485015083597717
% es.normE (V/m) @ t=0.04
2.109835986040146
% es.EX (V/m) @ t=0.04
1.8887446324375001
% es.EY (V/m) @ t=0.04
0.07267082643803338
% es.EZ (V/m) @ t=0.04
-0.9374275930466677
% es.tEX (V/m) @ t=0.04
1.8887446324374997
% es.tEY (V/m) @ t=0.04
0
% es.tEZ (V/m) @ t=0.04
-0.9374275930466567
% es.Ex (V/m) @ t=0.04
1.8887446324375001
% es.Ey (V/m) @ t=0.04
0.07267082643803338
% es.Ez (V/m) @ t=0.04
-0.9374275930466677
% es.tEx (V/m) @ t=0.04
1.8887446324374997
% es.tEy (V/m) @ t=0.04
0
% es.tEz (V/m) @ t=0.04
-0.9374275930466567
% V (V) @ t=0.04
0.009572299867793805
% es.normE (V/m) @ t=0.06
2.129229162187393
% es.EX (V/m) @ t=0.06
1.9061055810816896
% es.EY (V/m) @ t=0.06
0.07333883774122468
% es.EZ (V/m) @ t=0.06
-0.9460442338672356
% es.tEX (V/m) @ t=0.06
1.9061055810816852
% es.tEY (V/m) @ t=0.06
0
% es.tEZ (V/m) @ t=0.06
-0.9460442338672266
% es.Ex (V/m) @ t=0.06
1.9061055810816896
% es.Ey (V/m) @ t=0.06
0.07333883774122468
% es.Ez (V/m) @ t=0.06
-0.9460442338672356
% es.tEx (V/m) @ t=0.06
1.9061055810816852
% es.tEy (V/m) @ t=0.06
0
% es.tEz (V/m) @ t=0.06
-0.9460442338672266
% V (V) @ t=0.06
0.009660285392641672
% es.normE (V/m) @ t=0.08
2.1489622233803374
% es.EX (V/m) @ t=0.08
1.9237707984992773
% es.EY (V/m) @ t=0.08
0.07401854258173304
% es.EZ (V/m) @ t=0.08
-0.9548118899779577
% es.tEX (V/m) @ t=0.08
1.9237707984992687
% es.tEY (V/m) @ t=0.08
0
% es.tEZ (V/m) @ t=0.08
-0.954811889977961
% es.Ex (V/m) @ t=0.08
1.9237707984992773
% es.Ey (V/m) @ t=0.08
0.07401854258173304
% es.Ez (V/m) @ t=0.08
-0.9548118899779577
% es.tEx (V/m) @ t=0.08
1.9237707984992687
% es.tEy (V/m) @ t=0.08
0
% es.tEz (V/m) @ t=0.08
-0.954811889977961
% V (V) @ t=0.08
0.009749813369175788
% es.normE (V/m) @ t=0.1
2.1688403413890502
% es.EX (V/m) @ t=0.1
1.9415658723491118
% es.EY (V/m) @ t=0.1
0.07470323801341427
% es.EZ (V/m) @ t=0.1
-0.96364399669454
% es.tEX (V/m) @ t=0.1
1.9415658723490994
% es.tEY (V/m) @ t=0.1
0
% es.tEZ (V/m) @ t=0.1
-0.963643996694536
% es.Ex (V/m) @ t=0.1
1.9415658723491118
% es.Ey (V/m) @ t=0.1
0.07470323801341427
% es.Ez (V/m) @ t=0.1
-0.96364399669454
% es.tEx (V/m) @ t=0.1
1.9415658723490994
% es.tEy (V/m) @ t=0.1
0
% es.tEz (V/m) @ t=0.1
-0.963643996694536
% V (V) @ t=0.1
0.009839999636308099
% es.normE (V/m) @ t=0.12
2.1887184593977365
% es.EX (V/m) @ t=0.12
1.9593609461989165
% es.EY (V/m) @ t=0.12
0.07538793344503952
% es.EZ (V/m) @ t=0.12
-0.972476103411126
% es.tEX (V/m) @ t=0.12
1.959360946198914
% es.tEY (V/m) @ t=0.12
0
% es.tEZ (V/m) @ t=0.12
-0.9724761034111111
% es.Ex (V/m) @ t=0.12
1.9593609461989165
% es.Ey (V/m) @ t=0.12
0.07538793344503952
% es.Ez (V/m) @ t=0.12
-0.972476103411126
% es.tEx (V/m) @ t=0.12
1.959360946198914
% es.tEy (V/m) @ t=0.12
0
% es.tEz (V/m) @ t=0.12
-0.9724761034111111
% V (V) @ t=0.12
0.009930185903440409
% es.normE (V/m) @ t=0.14
2.2090179739866924
% es.EX (V/m) @ t=0.14
1.9775332590483417
% es.EY (V/m) @ t=0.14
0.07608712173720783
% es.EZ (V/m) @ t=0.14
-0.981495441990756
% es.tEX (V/m) @ t=0.14
1.9775332590483359
% es.tEY (V/m) @ t=0.14
0
% es.tEZ (V/m) @ t=0.14
-0.9814954419907522
% es.Ex (V/m) @ t=0.14
1.9775332590483417
% es.Ey (V/m) @ t=0.14
0.07608712173720783
% es.Ez (V/m) @ t=0.14
-0.981495441990756
% es.tEx (V/m) @ t=0.14
1.9775332590483359
% es.tEy (V/m) @ t=0.14
0
% es.tEz (V/m) @ t=0.14
-0.9814954419907522
% V (V) @ t=0.14
0.010022284687677975
% es.normE (V/m) @ t=0.16
2.229920408322303
% es.EX (V/m) @ t=0.16
1.996245312495374
% es.EY (V/m) @ t=0.16
0.07680704591626086
% es.EZ (V/m) @ t=0.16
-0.9907826654862704
% es.tEX (V/m) @ t=0.16
1.9962453124953718
% es.tEY (V/m) @ t=0.16
0
% es.tEZ (V/m) @ t=0.16
-0.9907826654862717
% es.Ex (V/m) @ t=0.16
1.996245312495374
% es.Ey (V/m) @ t=0.16
0.07680704591626086
% es.Ez (V/m) @ t=0.16
-0.9907826654862704
% es.tEx (V/m) @ t=0.16
1.9962453124953718
% es.tEy (V/m) @ t=0.16
0
% es.tEz (V/m) @ t=0.16
-0.9907826654862717
% V (V) @ t=0.16
0.01011711983567031
% es.normE (V/m) @ t=0.18
2.2508228426579198
% es.EX (V/m) @ t=0.18
2.0149573659424105
% es.EY (V/m) @ t=0.18
0.07752697009528906
% es.EZ (V/m) @ t=0.18
-1.0000698889817918
% es.tEX (V/m) @ t=0.18
2.014957365942408
% es.tEY (V/m) @ t=0.18
0
% es.tEZ (V/m) @ t=0.18
-1.0000698889817699
% es.Ex (V/m) @ t=0.18
2.0149573659424105
% es.Ey (V/m) @ t=0.18
0.07752697009528906
% es.Ez (V/m) @ t=0.18
-1.0000698889817918
% es.tEx (V/m) @ t=0.18
2.014957365942408
% es.tEy (V/m) @ t=0.18
0
% es.tEz (V/m) @ t=0.18
-1.0000698889817699
% V (V) @ t=0.18
0.010211954983662643
% es.normE (V/m) @ t=0.2
2.2717252769935317
% es.EX (V/m) @ t=0.2
2.0336694193894544
% es.EY (V/m) @ t=0.2
0.07824689427431905
% es.EZ (V/m) @ t=0.2
-1.0093571124772849
% es.tEX (V/m) @ t=0.2
2.033669419389444
% es.tEY (V/m) @ t=0.2
0
% es.tEZ (V/m) @ t=0.2
-1.0093571124772822
% es.Ex (V/m) @ t=0.2
2.0336694193894544
% es.Ey (V/m) @ t=0.2
0.07824689427431905
% es.Ez (V/m) @ t=0.2
-1.0093571124772849
% es.tEx (V/m) @ t=0.2
2.033669419389444
% es.tEy (V/m) @ t=0.2
0
% es.tEz (V/m) @ t=0.2
-1.0093571124772822
% V (V) @ t=0.2
0.010306790131654978
% es.normE (V/m) @ t=0.22
2.2926277113291555
% es.EX (V/m) @ t=0.22
2.0523814728364944
% es.EY (V/m) @ t=0.22
0.07896681845333392
% es.EZ (V/m) @ t=0.22
-1.0186443359728137
% es.tEX (V/m) @ t=0.22
2.052381472836494
% es.tEY (V/m) @ t=0.22
0
% es.tEZ (V/m) @ t=0.22
-1.018644335972816
% es.Ex (V/m) @ t=0.22
2.0523814728364944
% es.Ey (V/m) @ t=0.22
0.07896681845333392
% es.Ez (V/m) @ t=0.22
-1.0186443359728137
% es.tEx (V/m) @ t=0.22
2.052381472836494
% es.tEy (V/m) @ t=0.22
0
% es.tEz (V/m) @ t=0.22
-1.018644335972816
% V (V) @ t=0.22
0.01040162527964731
% es.normE (V/m) @ t=0.24
2.3135301456647697
% es.EX (V/m) @ t=0.24
2.0710935262835344
% es.EY (V/m) @ t=0.24
0.07968674263237277
% es.EZ (V/m) @ t=0.24
-1.0279315594683172
% es.tEX (V/m) @ t=0.24
2.071093526283531
% es.tEY (V/m) @ t=0.24
0
% es.tEZ (V/m) @ t=0.24
-1.027931559468307
% es.Ex (V/m) @ t=0.24
2.0710935262835344
% es.Ey (V/m) @ t=0.24
0.07968674263237277
% es.Ez (V/m) @ t=0.24
-1.0279315594683172
% es.tEx (V/m) @ t=0.24
2.071093526283531
% es.tEy (V/m) @ t=0.24
0
% es.tEz (V/m) @ t=0.24
-1.027931559468307
% V (V) @ t=0.24
0.010496460427639645
% es.normE (V/m) @ t=0.26
2.3344325800003913
% es.EX (V/m) @ t=0.26
2.089805579730575
% es.EY (V/m) @ t=0.26
0.08040666681141162
% es.EZ (V/m) @ t=0.26
-1.0372187829638353
% es.tEX (V/m) @ t=0.26
2.089805579730574
% es.tEY (V/m) @ t=0.26
0
% es.tEZ (V/m) @ t=0.26
-1.0372187829638264
% es.Ex (V/m) @ t=0.26
2.089805579730575
% es.Ey (V/m) @ t=0.26
0.08040666681141162
% es.Ez (V/m) @ t=0.26
-1.0372187829638353
% es.tEx (V/m) @ t=0.26
2.089805579730574
% es.tEy (V/m) @ t=0.26
0
% es.tEz (V/m) @ t=0.26
-1.0372187829638264
% V (V) @ t=0.26
0.01059129557563198
% es.normE (V/m) @ t=0.28
2.357245055732048
% es.EX (V/m) @ t=0.28
2.1102274880385314
% es.EY (V/m) @ t=0.28
0.0811931803394593
% es.EZ (V/m) @ t=0.28
-1.0473546647283423
% es.tEX (V/m) @ t=0.28
2.110227488038521
% es.tEY (V/m) @ t=0.28
0
% es.tEZ (V/m) @ t=0.28
-1.0473546647283456
% es.Ex (V/m) @ t=0.28
2.1102274880385314
% es.Ey (V/m) @ t=0.28
0.0811931803394593
% es.Ez (V/m) @ t=0.28
-1.0473546647283423
% es.tEx (V/m) @ t=0.28
2.110227488038521
% es.tEy (V/m) @ t=0.28
0
% es.tEz (V/m) @ t=0.28
-1.0473546647283456
% V (V) @ t=0.28
0.010694772948627787
% es.normE (V/m) @ t=0.3
2.380442045794589
% es.EX (V/m) @ t=0.3
2.130993610717195
% es.EY (V/m) @ t=0.3
0.08199309910519492
% es.EZ (V/m) @ t=0.3
-1.0576613916205195
% es.tEX (V/m) @ t=0.3
2.1309936107172014
% es.tEY (V/m) @ t=0.3
0
% es.tEZ (V/m) @ t=0.3
-1.0576613916205133
% es.Ex (V/m) @ t=0.3
2.130993610717195
% es.Ey (V/m) @ t=0.3
0.08199309910519492
% es.Ez (V/m) @ t=0.3
-1.0576613916205195
% es.tEx (V/m) @ t=0.3
2.1309936107172014
% es.tEy (V/m) @ t=0.3
0
% es.tEz (V/m) @ t=0.3
-1.0576613916205133
% V (V) @ t=0.3
0.010799990105572093
% es.normE (V/m) @ t=0.32
2.4036390358575392
% es.EX (V/m) @ t=0.32
2.151759733395894
% es.EY (V/m) @ t=0.32
0.08279301787092261
% es.EZ (V/m) @ t=0.32
-1.0679681185127217
% es.tEX (V/m) @ t=0.32
2.1517597333958873
% es.tEY (V/m) @ t=0.32
0
% es.tEZ (V/m) @ t=0.32
-1.0679681185127023
% es.Ex (V/m) @ t=0.32
2.151759733395894
% es.Ey (V/m) @ t=0.32
0.08279301787092261
% es.Ez (V/m) @ t=0.32
-1.0679681185127217
% es.tEx (V/m) @ t=0.32
2.1517597333958873
% es.tEy (V/m) @ t=0.32
0
% es.tEz (V/m) @ t=0.32
-1.0679681185127023
% V (V) @ t=0.32
0.010905207262516403
% es.normE (V/m) @ t=0.34
2.426836025920797
% es.EX (V/m) @ t=0.34
2.1725258560745577
% es.EY (V/m) @ t=0.34
0.08359293663663248
% es.EZ (V/m) @ t=0.34
-1.0782748454048847
% es.tEX (V/m) @ t=0.34
2.172525856074561
% es.tEY (V/m) @ t=0.34
0
% es.tEZ (V/m) @ t=0.34
-1.07827484540487
% es.Ex (V/m) @ t=0.34
2.1725258560745577
% es.Ey (V/m) @ t=0.34
0.08359293663663248
% es.Ez (V/m) @ t=0.34
-1.0782748454048847
% es.tEx (V/m) @ t=0.34
2.172525856074561
% es.tEy (V/m) @ t=0.34
0
% es.tEz (V/m) @ t=0.34
-1.07827484540487
% V (V) @ t=0.34
0.011010424419460712
% es.normE (V/m) @ t=0.36
2.450033015984431
% es.EX (V/m) @ t=0.36
2.1932919787532352
% es.EY (V/m) @ t=0.36
0.08439285540239835
% es.EZ (V/m) @ t=0.36
-1.088581572297083
% es.tEX (V/m) @ t=0.36
2.1932919787532335
% es.tEY (V/m) @ t=0.36
0
% es.tEZ (V/m) @ t=0.36
-1.088581572297059
% es.Ex (V/m) @ t=0.36
2.1932919787532352
% es.Ey (V/m) @ t=0.36
0.08439285540239835
% es.Ez (V/m) @ t=0.36
-1.088581572297083
% es.tEx (V/m) @ t=0.36
2.1932919787532335
% es.tEy (V/m) @ t=0.36
0
% es.tEz (V/m) @ t=0.36
-1.088581572297059
% V (V) @ t=0.36
0.011115641576405018
% es.normE (V/m) @ t=0.38
2.4732300060483783
% es.EX (V/m) @ t=0.38
2.214058101431902
% es.EY (V/m) @ t=0.38
0.08519277416811269
% es.EZ (V/m) @ t=0.38
-1.0988882991892532
% es.tEX (V/m) @ t=0.38
2.214058101431905
% es.tEY (V/m) @ t=0.38
0
% es.tEZ (V/m) @ t=0.38
-1.098888299189234
% es.Ex (V/m) @ t=0.38
2.214058101431902
% es.Ey (V/m) @ t=0.38
0.08519277416811269
% es.Ez (V/m) @ t=0.38
-1.0988882991892532
% es.tEx (V/m) @ t=0.38
2.214058101431905
% es.tEy (V/m) @ t=0.38
0
% es.tEz (V/m) @ t=0.38
-1.098888299189234
% V (V) @ t=0.38
0.011220858733349328
% es.normE (V/m) @ t=0.4
2.4964269961126764
% es.EX (V/m) @ t=0.4
2.234824224110591
% es.EY (V/m) @ t=0.4
0.08599269293384657
% es.EZ (V/m) @ t=0.4
-1.1091950260814305
% es.tEX (V/m) @ t=0.4
2.2348242241105867
% es.tEY (V/m) @ t=0.4
0
% es.tEZ (V/m) @ t=0.4
-1.109195026081423
% es.Ex (V/m) @ t=0.4
2.234824224110591
% es.Ey (V/m) @ t=0.4
0.08599269293384657
% es.Ez (V/m) @ t=0.4
-1.1091950260814305
% es.tEx (V/m) @ t=0.4
2.2348242241105867
% es.tEy (V/m) @ t=0.4
0
% es.tEz (V/m) @ t=0.4
-1.109195026081423
% V (V) @ t=0.4
0.011326075890293634
% es.normE (V/m) @ t=0.42
2.519623986177276
% es.EX (V/m) @ t=0.42
2.255590346789261
% es.EY (V/m) @ t=0.42
0.08679261169957242
% es.EZ (V/m) @ t=0.42
-1.1195017529736075
% es.tEX (V/m) @ t=0.42
2.2555903467892655
% es.tEY (V/m) @ t=0.42
0
% es.tEZ (V/m) @ t=0.42
-1.1195017529735978
% es.Ex (V/m) @ t=0.42
2.255590346789261
% es.Ey (V/m) @ t=0.42
0.08679261169957242
% es.Ez (V/m) @ t=0.42
-1.1195017529736075
% es.tEx (V/m) @ t=0.42
2.2555903467892655
% es.tEy (V/m) @ t=0.42
0
% es.tEz (V/m) @ t=0.42
-1.1195017529735978
% V (V) @ t=0.42
0.011431293047237943
% es.normE (V/m) @ t=0.44
2.5428209762422216
% es.EX (V/m) @ t=0.44
2.2763564694679568
% es.EY (V/m) @ t=0.44
0.08759253046531346
% es.EZ (V/m) @ t=0.44
-1.1298084798658135
% es.tEX (V/m) @ t=0.44
2.2763564694679523
% es.tEY (V/m) @ t=0.44
0
% es.tEZ (V/m) @ t=0.44
-1.1298084798657868
% es.Ex (V/m) @ t=0.44
2.2763564694679568
% es.Ey (V/m) @ t=0.44
0.08759253046531346
% es.Ez (V/m) @ t=0.44
-1.1298084798658135
% es.tEx (V/m) @ t=0.44
2.2763564694679523
% es.tEy (V/m) @ t=0.44
0
% es.tEz (V/m) @ t=0.44
-1.1298084798657868
% V (V) @ t=0.44
0.011536510204182253
% es.normE (V/m) @ t=0.46
2.566017966307411
% es.EX (V/m) @ t=0.46
2.2971225921466134
% es.EY (V/m) @ t=0.46
0.0883924492310349
% es.EZ (V/m) @ t=0.46
-1.1401152067579692
% es.tEX (V/m) @ t=0.46
2.2971225921466196
% es.tEY (V/m) @ t=0.46
0
% es.tEZ (V/m) @ t=0.46
-1.1401152067579474
% es.Ex (V/m) @ t=0.46
2.2971225921466134
% es.Ey (V/m) @ t=0.46
0.0883924492310349
% es.Ez (V/m) @ t=0.46
-1.1401152067579692
% es.tEx (V/m) @ t=0.46
2.2971225921466196
% es.tEy (V/m) @ t=0.46
0
% es.tEz (V/m) @ t=0.46
-1.1401152067579474
% V (V) @ t=0.46
0.011641727361126557
% es.normE (V/m) @ t=0.48
2.5892149563729285
% es.EX (V/m) @ t=0.48
2.317888714825295
% es.EY (V/m) @ t=0.48
0.08919236799676428
% es.EZ (V/m) @ t=0.48
-1.1504219336501535
% es.tEX (V/m) @ t=0.48
2.3178887148252914
% es.tEY (V/m) @ t=0.48
0
% es.tEZ (V/m) @ t=0.48
-1.1504219336501222
% es.Ex (V/m) @ t=0.48
2.317888714825295
% es.Ey (V/m) @ t=0.48
0.08919236799676428
% es.Ez (V/m) @ t=0.48
-1.1504219336501535
% es.tEx (V/m) @ t=0.48
2.3178887148252914
% es.tEy (V/m) @ t=0.48
0
% es.tEz (V/m) @ t=0.48
-1.1504219336501222
% V (V) @ t=0.48
0.01174694451807087
% es.normE (V/m) @ t=0.5
2.612411946438731
% es.EX (V/m) @ t=0.5
2.3386548375039795
% es.EY (V/m) @ t=0.5
0.08999228676249288
% es.EZ (V/m) @ t=0.5
-1.1607286605423308
% es.tEX (V/m) @ t=0.5
2.338654837503978
% es.tEY (V/m) @ t=0.5
0
% es.tEZ (V/m) @ t=0.5
-1.1607286605423326
% es.Ex (V/m) @ t=0.5
2.3386548375039795
% es.Ey (V/m) @ t=0.5
0.08999228676249288
% es.Ez (V/m) @ t=0.5
-1.1607286605423308
% es.tEx (V/m) @ t=0.5
2.338654837503978
% es.tEy (V/m) @ t=0.5
0
% es.tEz (V/m) @ t=0.5
-1.1607286605423326
% V (V) @ t=0.5
0.011852161675015176
% es.normE (V/m) @ t=0.52
2.635608936504801
% es.EX (V/m) @ t=0.52
2.35942096018265
% es.EY (V/m) @ t=0.52
0.09079220552822409
% es.EZ (V/m) @ t=0.52
-1.1710353874345116
% es.tEX (V/m) @ t=0.52
2.3594209601826437
% es.tEY (V/m) @ t=0.52
0
% es.tEZ (V/m) @ t=0.52
-1.1710353874345003
% es.Ex (V/m) @ t=0.52
2.35942096018265
% es.Ey (V/m) @ t=0.52
0.09079220552822409
% es.Ez (V/m) @ t=0.52
-1.1710353874345116
% es.tEx (V/m) @ t=0.52
2.3594209601826437
% es.tEy (V/m) @ t=0.52
0
% es.tEz (V/m) @ t=0.52
-1.1710353874345003
% V (V) @ t=0.52
0.011957378831959485
% es.normE (V/m) @ t=0.54
2.660552269745561
% es.EX (V/m) @ t=0.54
2.381750509443669
% es.EY (V/m) @ t=0.54
0.09165015105296864
% es.EZ (V/m) @ t=0.54
-1.1821180327576566
% es.tEX (V/m) @ t=0.54
2.381750509443675
% es.tEY (V/m) @ t=0.54
0
% es.tEZ (V/m) @ t=0.54
-1.1821180327576641
% es.Ex (V/m) @ t=0.54
2.381750509443669
% es.Ey (V/m) @ t=0.54
0.09165015105296864
% es.Ez (V/m) @ t=0.54
-1.1821180327576566
% es.tEx (V/m) @ t=0.54
2.381750509443675
% es.tEy (V/m) @ t=0.54
0
% es.tEz (V/m) @ t=0.54
-1.1821180327576641
% V (V) @ t=0.54
0.012070581728494312
% es.normE (V/m) @ t=0.56
2.686338415911699
% es.EX (V/m) @ t=0.56
2.404834593178731
% es.EY (V/m) @ t=0.56
0.0925361012122477
% es.EZ (V/m) @ t=0.56
-1.193575148626353
% es.tEX (V/m) @ t=0.56
2.404834593178731
% es.tEY (V/m) @ t=0.56
0
% es.tEZ (V/m) @ t=0.56
-1.1935751486263584
% es.Ex (V/m) @ t=0.56
2.404834593178731
% es.Ey (V/m) @ t=0.56
0.0925361012122477
% es.Ez (V/m) @ t=0.56
-1.193575148626353
% es.tEx (V/m) @ t=0.56
2.404834593178731
% es.tEy (V/m) @ t=0.56
0
% es.tEz (V/m) @ t=0.56
-1.1935751486263584
% V (V) @ t=0.56
0.012187638669657615
% es.normE (V/m) @ t=0.58
2.712124562079957
% es.EX (V/m) @ t=0.58
2.427918676913812
% es.EY (V/m) @ t=0.58
0.09342205137152948
% es.EZ (V/m) @ t=0.58
-1.2050322644950884
% es.tEX (V/m) @ t=0.58
2.4279186769138095
% es.tEY (V/m) @ t=0.58
0
% es.tEZ (V/m) @ t=0.58
-1.2050322644950668
% es.Ex (V/m) @ t=0.58
2.427918676913812
% es.Ey (V/m) @ t=0.58
0.09342205137152948
% es.Ez (V/m) @ t=0.58
-1.2050322644950884
% es.tEx (V/m) @ t=0.58
2.4279186769138095
% es.tEy (V/m) @ t=0.58
0
% es.tEz (V/m) @ t=0.58
-1.2050322644950668
% V (V) @ t=0.58
0.01230469561082092
% es.normE (V/m) @ t=0.6
2.7379107082502006
% es.EX (V/m) @ t=0.6
2.451002760648868
% es.EY (V/m) @ t=0.6
0.09430800153079788
% es.EZ (V/m) @ t=0.6
-1.2164893803637846
% es.tEX (V/m) @ t=0.6
2.4510027606488727
% es.tEY (V/m) @ t=0.6
0
% es.tEZ (V/m) @ t=0.6
-1.2164893803637824
% es.Ex (V/m) @ t=0.6
2.451002760648868
% es.Ey (V/m) @ t=0.6
0.09430800153079788
% es.Ez (V/m) @ t=0.6
-1.2164893803637846
% es.tEx (V/m) @ t=0.6
2.4510027606488727
% es.tEy (V/m) @ t=0.6
0
% es.tEz (V/m) @ t=0.6
-1.2164893803637824
% V (V) @ t=0.6
0.012421752551984223
% es.normE (V/m) @ t=0.62
2.7636968544224283
% es.EX (V/m) @ t=0.62
2.474086844383935
% es.EY (V/m) @ t=0.62
0.09519395169008232
% es.EZ (V/m) @ t=0.62
-1.2279464962324882
% es.tEX (V/m) @ t=0.62
2.4740868443839226
% es.tEY (V/m) @ t=0.62
0
% es.tEZ (V/m) @ t=0.62
-1.2279464962324909
% es.Ex (V/m) @ t=0.62
2.474086844383935
% es.Ey (V/m) @ t=0.62
0.09519395169008232
% es.Ez (V/m) @ t=0.62
-1.2279464962324882
% es.tEx (V/m) @ t=0.62
2.4740868443839226
% es.tEy (V/m) @ t=0.62
0
% es.tEz (V/m) @ t=0.62
-1.2279464962324909
% V (V) @ t=0.62
0.012538809493147524
% es.normE (V/m) @ t=0.64
2.7894830005965527
% es.EX (V/m) @ t=0.64
2.497170928118983
% es.EY (V/m) @ t=0.64
0.09607990184936677
% es.EZ (V/m) @ t=0.64
-1.2394036121011915
% es.tEX (V/m) @ t=0.64
2.4971709281189858
% es.tEY (V/m) @ t=0.64
0
% es.tEZ (V/m) @ t=0.64
-1.239403612101178
% es.Ex (V/m) @ t=0.64
2.497170928118983
% es.Ey (V/m) @ t=0.64
0.09607990184936677
% es.Ez (V/m) @ t=0.64
-1.2394036121011915
% es.tEx (V/m) @ t=0.64
2.4971709281189858
% es.tEy (V/m) @ t=0.64
0
% es.tEz (V/m) @ t=0.64
-1.239403612101178
% V (V) @ t=0.64
0.01265586643431083
% es.normE (V/m) @ t=0.66
2.8152691467725575
% es.EX (V/m) @ t=0.66
2.5202550118540525
% es.EY (V/m) @ t=0.66
0.09696585200866448
% es.EZ (V/m) @ t=0.66
-1.2508607279698878
% es.tEX (V/m) @ t=0.66
2.520255011854049
% es.tEY (V/m) @ t=0.66
0
% es.tEZ (V/m) @ t=0.66
-1.2508607279698865
% es.Ex (V/m) @ t=0.66
2.5202550118540525
% es.Ey (V/m) @ t=0.66
0.09696585200866448
% es.Ez (V/m) @ t=0.66
-1.2508607279698878
% es.tEx (V/m) @ t=0.66
2.520255011854049
% es.tEy (V/m) @ t=0.66
0
% es.tEz (V/m) @ t=0.66
-1.2508607279698865
% V (V) @ t=0.66
0.012772923375474136
% es.normE (V/m) @ t=0.68
2.841055292950368
% es.EX (V/m) @ t=0.68
2.5433390955891086
% es.EY (V/m) @ t=0.68
0.09785180216793382
% es.EZ (V/m) @ t=0.68
-1.262317843838602
% es.tEX (V/m) @ t=0.68
2.543339095589106
% es.tEY (V/m) @ t=0.68
0
% es.tEZ (V/m) @ t=0.68
-1.2623178438385878
% es.Ex (V/m) @ t=0.68
2.5433390955891086
% es.Ey (V/m) @ t=0.68
0.09785180216793382
% es.Ez (V/m) @ t=0.68
-1.262317843838602
% es.tEx (V/m) @ t=0.68
2.543339095589106
% es.tEy (V/m) @ t=0.68
0
% es.tEz (V/m) @ t=0.68
-1.2623178438385878
% V (V) @ t=0.68
0.012889980316637437
% es.normE (V/m) @ t=0.7
2.866841439129932
% es.EX (V/m) @ t=0.7
2.566423179324164
% es.EY (V/m) @ t=0.7
0.09873775232719961
% es.EZ (V/m) @ t=0.7
-1.2737749597072985
% es.tEX (V/m) @ t=0.7
2.566423179324161
% es.tEY (V/m) @ t=0.7
0
% es.tEZ (V/m) @ t=0.7
-1.273774959707282
% es.Ex (V/m) @ t=0.7
2.566423179324164
% es.Ey (V/m) @ t=0.7
0.09873775232719961
% es.Ez (V/m) @ t=0.7
-1.2737749597072985
% es.tEx (V/m) @ t=0.7
2.566423179324161
% es.tEy (V/m) @ t=0.7
0
% es.tEz (V/m) @ t=0.7
-1.273774959707282
% V (V) @ t=0.7
0.013007037257800742
% es.normE (V/m) @ t=0.72
2.892627585311223
% es.EX (V/m) @ t=0.72
2.589507263059231
% es.EY (V/m) @ t=0.72
0.09962370248648222
% es.EZ (V/m) @ t=0.72
-1.2852320755759947
% es.tEX (V/m) @ t=0.72
2.589507263059226
% es.tEY (V/m) @ t=0.72
0
% es.tEZ (V/m) @ t=0.72
-1.2852320755759834
% es.Ex (V/m) @ t=0.72
2.589507263059231
% es.Ey (V/m) @ t=0.72
0.09962370248648222
% es.Ez (V/m) @ t=0.72
-1.2852320755759947
% es.tEx (V/m) @ t=0.72
2.589507263059226
% es.tEy (V/m) @ t=0.72
0
% es.tEz (V/m) @ t=0.72
-1.2852320755759834
% V (V) @ t=0.72
0.013124094198964046
% es.normE (V/m) @ t=0.74
2.9184137314941934
% es.EX (V/m) @ t=0.74
2.612591346794294
% es.EY (V/m) @ t=0.74
0.10050965264577022
% es.EZ (V/m) @ t=0.74
-1.2966891914447194
% es.tEX (V/m) @ t=0.74
2.6125913467942965
% es.tEY (V/m) @ t=0.74
0
% es.tEZ (V/m) @ t=0.74
-1.296689191444699
% es.Ex (V/m) @ t=0.74
2.612591346794294
% es.Ey (V/m) @ t=0.74
0.10050965264577022
% es.Ez (V/m) @ t=0.74
-1.2966891914447194
% es.tEx (V/m) @ t=0.74
2.6125913467942965
% es.tEy (V/m) @ t=0.74
0
% es.tEz (V/m) @ t=0.74
-1.296689191444699
% V (V) @ t=0.74
0.013241151140127349
% es.normE (V/m) @ t=0.76
2.9441998776787575
% es.EX (V/m) @ t=0.76
2.63567543052935
% es.EY (V/m) @ t=0.76
0.1013956028050289
% es.EZ (V/m) @ t=0.76
-1.3081463073133874
% es.tEX (V/m) @ t=0.76
2.6356754305293393
% es.tEY (V/m) @ t=0.76
0
% es.tEZ (V/m) @ t=0.76
-1.308146307313379
% es.Ex (V/m) @ t=0.76
2.63567543052935
% es.Ey (V/m) @ t=0.76
0.1013956028050289
% es.Ez (V/m) @ t=0.76
-1.3081463073133874
% es.tEx (V/m) @ t=0.76
2.6356754305293393
% es.tEy (V/m) @ t=0.76
0
% es.tEz (V/m) @ t=0.76
-1.308146307313379
% V (V) @ t=0.76
0.013358208081290651
% es.normE (V/m) @ t=0.78
2.96998602386493
% es.EX (V/m) @ t=0.78
2.658759514264413
% es.EY (V/m) @ t=0.78
0.10228155296430447
% es.EZ (V/m) @ t=0.78
-1.3196034231820943
% es.tEX (V/m) @ t=0.78
2.6587595142644025
% es.tEY (V/m) @ t=0.78
0
% es.tEZ (V/m) @ t=0.78
-1.3196034231820875
% es.Ex (V/m) @ t=0.78
2.658759514264413
% es.Ey (V/m) @ t=0.78
0.10228155296430447
% es.Ez (V/m) @ t=0.78
-1.3196034231820943
% es.tEx (V/m) @ t=0.78
2.6587595142644025
% es.tEy (V/m) @ t=0.78
0
% es.tEz (V/m) @ t=0.78
-1.3196034231820875
% V (V) @ t=0.78
0.013475265022453956
% es.normE (V/m) @ t=0.8
2.997284074497345
% es.EX (V/m) @ t=0.8
2.6831970056114804
% es.EY (V/m) @ t=0.8
0.10322118088445864
% es.EZ (V/m) @ t=0.8
-1.331732300929418
% es.tEX (V/m) @ t=0.8
2.6831970056114844
% es.tEY (V/m) @ t=0.8
0
% es.tEZ (V/m) @ t=0.8
-1.3317323009294029
% es.Ex (V/m) @ t=0.8
2.6831970056114804
% es.Ey (V/m) @ t=0.8
0.10322118088445864
% es.Ez (V/m) @ t=0.8
-1.331732300929418
% es.tEx (V/m) @ t=0.8
2.6831970056114844
% es.tEy (V/m) @ t=0.8
0
% es.tEz (V/m) @ t=0.8
-1.3317323009294029
% V (V) @ t=0.8
0.01359913427048254
% es.normE (V/m) @ t=0.82
3.0259971828728194
% es.EX (V/m) @ t=0.82
2.7089012105572245
% es.EY (V/m) @ t=0.82
0.1042110481774065
% es.EZ (V/m) @ t=0.82
-1.3444899101092855
% es.tEX (V/m) @ t=0.82
2.708901210557224
% es.tEY (V/m) @ t=0.82
0
% es.tEZ (V/m) @ t=0.82
-1.3444899101092673
% es.Ex (V/m) @ t=0.82
2.7089012105572245
% es.Ey (V/m) @ t=0.82
0.1042110481774065
% es.Ez (V/m) @ t=0.82
-1.3444899101092855
% es.tEx (V/m) @ t=0.82
2.708901210557224
% es.tEy (V/m) @ t=0.82
0
% es.tEz (V/m) @ t=0.82
-1.3444899101092673
% V (V) @ t=0.82
0.01372937945556666
% es.normE (V/m) @ t=0.84
3.0547102912486968
% es.EX (V/m) @ t=0.84
2.734605415503004
% es.EY (V/m) @ t=0.84
0.10520091547040683
% es.EZ (V/m) @ t=0.84
-1.3572475192891533
% es.tEX (V/m) @ t=0.84
2.7346054155030055
% es.tEY (V/m) @ t=0.84
0
% es.tEZ (V/m) @ t=0.84
-1.357247519289139
% es.Ex (V/m) @ t=0.84
2.734605415503004
% es.Ey (V/m) @ t=0.84
0.10520091547040683
% es.Ez (V/m) @ t=0.84
-1.3572475192891533
% es.tEx (V/m) @ t=0.84
2.7346054155030055
% es.tEy (V/m) @ t=0.84
0
% es.tEz (V/m) @ t=0.84
-1.357247519289139
% V (V) @ t=0.84
0.013859624640650785
% es.normE (V/m) @ t=0.86
3.083423399624925
% es.EX (V/m) @ t=0.86
2.76030962044877
% es.EY (V/m) @ t=0.86
0.10619078276337962
% es.EZ (V/m) @ t=0.86
-1.3700051284690318
% es.tEX (V/m) @ t=0.86
2.7603096204487514
% es.tEY (V/m) @ t=0.86
0
% es.tEZ (V/m) @ t=0.86
-1.3700051284690247
% es.Ex (V/m) @ t=0.86
2.76030962044877
% es.Ey (V/m) @ t=0.86
0.10619078276337962
% es.Ez (V/m) @ t=0.86
-1.3700051284690318
% es.tEx (V/m) @ t=0.86
2.7603096204487514
% es.tEy (V/m) @ t=0.86
0
% es.tEz (V/m) @ t=0.86
-1.3700051284690247
% V (V) @ t=0.86
0.013989869825734906
% es.normE (V/m) @ t=0.88
3.1121365080014503
% es.EX (V/m) @ t=0.88
2.7860138253944964
% es.EY (V/m) @ t=0.88
0.10718065005630006
% es.EZ (V/m) @ t=0.88
-1.382762737648878
% es.tEX (V/m) @ t=0.88
2.7860138253945035
% es.tEY (V/m) @ t=0.88
0
% es.tEZ (V/m) @ t=0.88
-1.3827627376488607
% es.Ex (V/m) @ t=0.88
2.7860138253944964
% es.Ey (V/m) @ t=0.88
0.10718065005630006
% es.Ez (V/m) @ t=0.88
-1.382762737648878
% es.tEx (V/m) @ t=0.88
2.7860138253945035
% es.tEy (V/m) @ t=0.88
0
% es.tEz (V/m) @ t=0.88
-1.3827627376488607
% V (V) @ t=0.88
0.01412011501081903
% es.normE (V/m) @ t=0.9
3.140849616378371
% es.EX (V/m) @ t=0.9
2.8117180303402654
% es.EY (V/m) @ t=0.9
0.10817051734930744
% es.EZ (V/m) @ t=0.9
-1.395520346828753
% es.tEX (V/m) @ t=0.9
2.8117180303402645
% es.tEY (V/m) @ t=0.9
0
% es.tEZ (V/m) @ t=0.9
-1.3955203468287465
% es.Ex (V/m) @ t=0.9
2.8117180303402654
% es.Ey (V/m) @ t=0.9
0.10817051734930744
% es.Ez (V/m) @ t=0.9
-1.395520346828753
% es.tEx (V/m) @ t=0.9
2.8117180303402645
% es.tEy (V/m) @ t=0.9
0
% es.tEz (V/m) @ t=0.9
-1.3955203468287465
% V (V) @ t=0.9
0.014250360195903155
% es.normE (V/m) @ t=0.92
3.1695627247555995
% es.EX (V/m) @ t=0.92
2.83742223528602
% es.EY (V/m) @ t=0.92
0.10916038464227673
% es.EZ (V/m) @ t=0.92
-1.4082779560086136
% es.tEX (V/m) @ t=0.92
2.8374222352860237
% es.tEY (V/m) @ t=0.92
0
% es.tEZ (V/m) @ t=0.92
-1.408277956008618
% es.Ex (V/m) @ t=0.92
2.83742223528602
% es.Ey (V/m) @ t=0.92
0.10916038464227673
% es.Ez (V/m) @ t=0.92
-1.4082779560086136
% es.tEx (V/m) @ t=0.92
2.8374222352860237
% es.tEy (V/m) @ t=0.92
0
% es.tEz (V/m) @ t=0.92
-1.408277956008618
% V (V) @ t=0.92
0.014380605380987278
% es.normE (V/m) @ t=0.94
3.1982758331331542
% es.EX (V/m) @ t=0.94
2.8631264402317744
% es.EY (V/m) @ t=0.94
0.11015025193522376
% es.EZ (V/m) @ t=0.94
-1.4210355651884847
% es.tEX (V/m) @ t=0.94
2.8631264402317687
% es.tEY (V/m) @ t=0.94
0
% es.tEZ (V/m) @ t=0.94
-1.4210355651884754
% es.Ex (V/m) @ t=0.94
2.8631264402317744
% es.Ey (V/m) @ t=0.94
0.11015025193522376
% es.Ez (V/m) @ t=0.94
-1.4210355651884847
% es.tEx (V/m) @ t=0.94
2.8631264402317687
% es.tEy (V/m) @ t=0.94
0
% es.tEz (V/m) @ t=0.94
-1.4210355651884754
% V (V) @ t=0.94
0.014510850566071399
% es.normE (V/m) @ t=0.96
3.226988941511034
% es.EX (V/m) @ t=0.96
2.888830645177544
% es.EY (V/m) @ t=0.96
0.1111401192282081
% es.EZ (V/m) @ t=0.96
-1.433793174368349
% es.tEX (V/m) @ t=0.96
2.8888306451775367
% es.tEY (V/m) @ t=0.96
0
% es.tEZ (V/m) @ t=0.96
-1.4337931743683399
% es.Ex (V/m) @ t=0.96
2.888830645177544
% es.Ey (V/m) @ t=0.96
0.1111401192282081
% es.Ez (V/m) @ t=0.96
-1.433793174368349
% es.tEx (V/m) @ t=0.96
2.8888306451775367
% es.tEy (V/m) @ t=0.96
0
% es.tEz (V/m) @ t=0.96
-1.4337931743683399
% V (V) @ t=0.96
0.01464109575115552
% es.normE (V/m) @ t=0.98
3.255702049889204
% es.EX (V/m) @ t=0.98
2.914534850123291
% es.EY (V/m) @ t=0.98
0.11212998652118
% es.EZ (V/m) @ t=0.98
-1.4465507835482274
% es.tEX (V/m) @ t=0.98
2.914534850123289
% es.tEY (V/m) @ t=0.98
0
% es.tEZ (V/m) @ t=0.98
-1.4465507835482185
% es.Ex (V/m) @ t=0.98
2.914534850123291
% es.Ey (V/m) @ t=0.98
0.11212998652118
% es.Ez (V/m) @ t=0.98
-1.4465507835482274
% es.tEx (V/m) @ t=0.98
2.914534850123289
% es.tEy (V/m) @ t=0.98
0
% es.tEz (V/m) @ t=0.98
-1.4465507835482185
% V (V) @ t=0.98
0.014771340936239644
% es.normE (V/m) @ t=1
3.2844151582676844
% es.EX (V/m) @ t=1
2.9402390550690605
% es.EY (V/m) @ t=1
0.11311985381415635
% es.EZ (V/m) @ t=1
-1.4593083927280917
% es.tEX (V/m) @ t=1
2.940239055069057
% es.tEY (V/m) @ t=1
0
% es.tEZ (V/m) @ t=1
-1.45930839272809
% es.Ex (V/m) @ t=1
2.9402390550690605
% es.Ey (V/m) @ t=1
0.11311985381415635
% es.Ez (V/m) @ t=1
-1.4593083927280917
% es.tEx (V/m) @ t=1
2.940239055069057
% es.tEy (V/m) @ t=1
0
% es.tEz (V/m) @ t=1
-1.45930839272809
% V (V) @ t=1
0.014901586121323765
% es.normE (V/m) @ t=1.02
3.31312826664644
% es.EX (V/m) @ t=1.02
2.9659432600148157
% es.EY (V/m) @ t=1.02
0.1141097211071318
% es.EZ (V/m) @ t=1.02
-1.4720660019079523
% es.tEX (V/m) @ t=1.02
2.965943260014811
% es.tEY (V/m) @ t=1.02
0
% es.tEZ (V/m) @ t=1.02
-1.4720660019079475
% es.Ex (V/m) @ t=1.02
2.9659432600148157
% es.Ey (V/m) @ t=1.02
0.1141097211071318
% es.Ez (V/m) @ t=1.02
-1.4720660019079523
% es.tEx (V/m) @ t=1.02
2.965943260014811
% es.tEy (V/m) @ t=1.02
0
% es.tEz (V/m) @ t=1.02
-1.4720660019079475
% V (V) @ t=1.02
0.015031831306407891
% es.normE (V/m) @ t=1.04
3.3418413750254947
% es.EX (V/m) @ t=1.04
2.991647464960577
% es.EY (V/m) @ t=1.04
0.11509958840010465
% es.EZ (V/m) @ t=1.04
-1.4848236110878412
% es.tEX (V/m) @ t=1.04
2.99164746496057
% es.tEY (V/m) @ t=1.04
0
% es.tEZ (V/m) @ t=1.04
-1.4848236110878332
% es.Ex (V/m) @ t=1.04