% Model:              1 neuron.mph
% Version:            COMSOL 6.1.0.252
% Date:               Mar 22 2023, 20:03
% Dimension:          0
% Nodes:              14017
% Expressions:        14017
% Description:        Electric field norm, Electric field, X component, Electric field, Y component, Electric field, Z component, Tangential electric field, X component, Tangential electric field, Y component, Tangential electric field, Z component, Electric field, x component, Electric field, y component, Electric field, z component, Tangential electric field, x component, Tangential electric field, y component, Tangential electric field, z component, Electric potential
% Length unit:        mm
% x
1
% y
12.2
% z
1.6599999999999997
% es.normE (V/m) @ t=0
2.429359292820097
% es.EX (V/m) @ t=0
2.174785408965398
% es.EY (V/m) @ t=0
0.08367625791478017
% es.EZ (V/m) @ t=0
-1.079394831690298
% es.tEX (V/m) @ t=0
2.1747854089653984
% es.tEY (V/m) @ t=0
0
% es.tEZ (V/m) @ t=0
-1.0793948316902942
% es.Ex (V/m) @ t=0
2.174785408965398
% es.Ey (V/m) @ t=0
0.08367625791478017
% es.Ez (V/m) @ t=0
-1.079394831690298
% es.tEx (V/m) @ t=0
2.1747854089653984
% es.tEy (V/m) @ t=0
0
% es.tEz (V/m) @ t=0
-1.0793948316902942
% V (V) @ t=0
0.011021977031131681
% es.normE (V/m) @ t=0.02
2.098271213308992
% es.EX (V/m) @ t=0.02
1.8783922296945623
% es.EY (V/m) @ t=0.02
0.07227234113228947
% es.EZ (V/m) @ t=0.02
-0.9322882415016172
% es.tEX (V/m) @ t=0.02
1.8783922296945503
% es.tEY (V/m) @ t=0.02
0
% es.tEZ (V/m) @ t=0.02
-0.9322882415016096
% es.Ex (V/m) @ t=0.02
1.8783922296945623
% es.Ey (V/m) @ t=0.02
0.07227234113228947
% es.Ez (V/m) @ t=0.02
-0.9322882415016172
% es.tEx (V/m) @ t=0.02
1.8783922296945503
% es.tEy (V/m) @ t=0.02
0
% es.tEz (V/m) @ t=0.02
-0.9322882415016096
% V (V) @ t=0.02
0.009519833962863145
% es.normE (V/m) @ t=0.04
2.11758170403827
% es.EX (V/m) @ t=0.04
1.8956791635654549
% es.EY (V/m) @ t=0.04
0.0729374667705088
% es.EZ (V/m) @ t=0.04
-0.9408681349972475
% es.tEX (V/m) @ t=0.04
1.8956791635654513
% es.tEY (V/m) @ t=0.04
0
% es.tEZ (V/m) @ t=0.04
-0.9408681349972454
% es.Ex (V/m) @ t=0.04
1.8956791635654549
% es.Ey (V/m) @ t=0.04
0.0729374667705088
% es.Ez (V/m) @ t=0.04
-0.9408681349972475
% es.tEx (V/m) @ t=0.04
1.8956791635654513
% es.tEy (V/m) @ t=0.04
0
% es.tEz (V/m) @ t=0.04
-0.9408681349972454
% V (V) @ t=0.04
0.009607445461341317
% es.normE (V/m) @ t=0.06
2.1370444749991258
% es.EX (V/m) @ t=0.06
1.913102420101188
% es.EY (V/m) @ t=0.06
0.07360783674878996
% es.EZ (V/m) @ t=0.06
-0.9495156886479459
% es.tEX (V/m) @ t=0.06
1.9131024201011773
% es.tEY (V/m) @ t=0.06
0
% es.tEZ (V/m) @ t=0.06
-0.949515688647935
% es.Ex (V/m) @ t=0.06
1.913102420101188
% es.Ey (V/m) @ t=0.06
0.07360783674878996
% es.Ez (V/m) @ t=0.06
-0.9495156886479459
% es.tEx (V/m) @ t=0.06
1.9131024201011773
% es.tEy (V/m) @ t=0.06
0
% es.tEz (V/m) @ t=0.06
-0.949515688647935
% V (V) @ t=0.06
0.009695747888637585
% es.normE (V/m) @ t=0.08
2.1568547611841136
% es.EX (V/m) @ t=0.08
1.9308367755980382
% es.EY (V/m) @ t=0.08
0.07429017728442189
% es.EZ (V/m) @ t=0.08
-0.9583176475170596
% es.tEX (V/m) @ t=0.08
1.9308367755980287
% es.tEY (V/m) @ t=0.08
0
% es.tEZ (V/m) @ t=0.08
-0.958317647517049
% es.Ex (V/m) @ t=0.08
1.9308367755980382
% es.Ey (V/m) @ t=0.08
0.07429017728442189
% es.Ez (V/m) @ t=0.08
-0.9583176475170596
% es.tEx (V/m) @ t=0.08
1.9308367755980287
% es.tEy (V/m) @ t=0.08
0
% es.tEz (V/m) @ t=0.08
-0.958317647517049
% V (V) @ t=0.08
0.009785626949914965
% es.normE (V/m) @ t=0.1
2.1768017086582283
% es.EX (V/m) @ t=0.1
1.9486934715914197
% es.EY (V/m) @ t=0.1
0.07497722527369946
% es.EZ (V/m) @ t=0.1
-0.9671803266502967
% es.tEX (V/m) @ t=0.1
1.948693471591417
% es.tEY (V/m) @ t=0.1
0
% es.tEZ (V/m) @ t=0.1
-0.9671803266502863
% es.Ex (V/m) @ t=0.1
1.9486934715914197
% es.Ey (V/m) @ t=0.1
0.07497722527369946
% es.Ez (V/m) @ t=0.1
-0.9671803266502967
% es.tEx (V/m) @ t=0.1
1.948693471591417
% es.tEy (V/m) @ t=0.1
0
% es.tEz (V/m) @ t=0.1
-0.9671803266502863
% V (V) @ t=0.1
0.009876126026712121
% es.normE (V/m) @ t=0.12
2.1967486561323604
% es.EX (V/m) @ t=0.12
1.9665501675848083
% es.EY (V/m) @ t=0.12
0.07566427326300015
% es.EZ (V/m) @ t=0.12
-0.9760430057835552
% es.tEX (V/m) @ t=0.12
1.9665501675848045
% es.tEY (V/m) @ t=0.12
0
% es.tEZ (V/m) @ t=0.12
-0.976043005783545
% es.Ex (V/m) @ t=0.12
1.9665501675848083
% es.Ey (V/m) @ t=0.12
0.07566427326300015
% es.Ez (V/m) @ t=0.12
-0.9760430057835552
% es.tEx (V/m) @ t=0.12
1.9665501675848045
% es.tEy (V/m) @ t=0.12
0
% es.tEz (V/m) @ t=0.12
-0.976043005783545
% V (V) @ t=0.12
0.009966625103509277
% es.normE (V/m) @ t=0.14
2.217150563838734
% es.EX (V/m) @ t=0.14
1.984814148302569
% es.EY (V/m) @ t=0.14
0.07636699210001435
% es.EZ (V/m) @ t=0.14
-0.9851078293897236
% es.tEX (V/m) @ t=0.14
1.9848141483025774
% es.tEY (V/m) @ t=0.14
0
% es.tEZ (V/m) @ t=0.14
-0.985107829389726
% es.Ex (V/m) @ t=0.14
1.984814148302569
% es.Ey (V/m) @ t=0.14
0.07636699210001435
% es.Ez (V/m) @ t=0.14
-0.9851078293897236
% es.tEx (V/m) @ t=0.14
1.9848141483025774
% es.tEy (V/m) @ t=0.14
0
% es.tEz (V/m) @ t=0.14
-0.985107829389726
% V (V) @ t=0.14
0.010059188314788168
% es.normE (V/m) @ t=0.16
2.2381197153814965
% es.EX (V/m) @ t=0.16
2.003585931094392
% es.EY (V/m) @ t=0.16
0.077089249330038
% es.EZ (V/m) @ t=0.16
-0.9944246864665149
% es.tEX (V/m) @ t=0.16
2.003585931094399
% es.tEY (V/m) @ t=0.16
0
% es.tEZ (V/m) @ t=0.16
-0.9944246864664947
% es.Ex (V/m) @ t=0.16
2.003585931094392
% es.Ey (V/m) @ t=0.16
0.077089249330038
% es.Ez (V/m) @ t=0.16
-0.9944246864665149
% es.tEx (V/m) @ t=0.16
2.003585931094399
% es.tEy (V/m) @ t=0.16
0
% es.tEz (V/m) @ t=0.16
-0.9944246864664947
% V (V) @ t=0.16
0.01015432508630195
% es.normE (V/m) @ t=0.18
2.259088866924249
% es.EX (V/m) @ t=0.18
2.022357713886211
% es.EY (V/m) @ t=0.18
0.07781150656005537
% es.EZ (V/m) @ t=0.18
-1.0037415435432921
% es.tEX (V/m) @ t=0.18
2.0223577138862208
% es.tEY (V/m) @ t=0.18
0
% es.tEZ (V/m) @ t=0.18
-1.003741543543292
% es.Ex (V/m) @ t=0.18
2.022357713886211
% es.Ey (V/m) @ t=0.18
0.07781150656005537
% es.Ez (V/m) @ t=0.18
-1.0037415435432921
% es.tEx (V/m) @ t=0.18
2.0223577138862208
% es.tEy (V/m) @ t=0.18
0
% es.tEz (V/m) @ t=0.18
-1.003741543543292
% V (V) @ t=0.18
0.010249461857815733
% es.normE (V/m) @ t=0.2
2.2800580184670416
% es.EX (V/m) @ t=0.2
2.041129496678059
% es.EY (V/m) @ t=0.2
0.07853376379008256
% es.EZ (V/m) @ t=0.2
-1.013058400620101
% es.tEX (V/m) @ t=0.2
2.0411294966780495
% es.tEY (V/m) @ t=0.2
0
% es.tEZ (V/m) @ t=0.2
-1.013058400620082
% es.Ex (V/m) @ t=0.2
2.041129496678059
% es.Ey (V/m) @ t=0.2
0.07853376379008256
% es.Ez (V/m) @ t=0.2
-1.013058400620101
% es.tEx (V/m) @ t=0.2
2.0411294966780495
% es.tEy (V/m) @ t=0.2
0
% es.tEz (V/m) @ t=0.2
-1.013058400620082
% V (V) @ t=0.2
0.010344598629329516
% es.normE (V/m) @ t=0.22
2.3010271700097817
% es.EX (V/m) @ t=0.22
2.059901279469871
% es.EY (V/m) @ t=0.22
0.07925602102007326
% es.EZ (V/m) @ t=0.22
-1.0223752576968677
% es.tEX (V/m) @ t=0.22
2.059901279469856
% es.tEY (V/m) @ t=0.22
0
% es.tEZ (V/m) @ t=0.22
-1.0223752576968508
% es.Ex (V/m) @ t=0.22
2.059901279469871
% es.Ey (V/m) @ t=0.22
0.07925602102007326
% es.Ez (V/m) @ t=0.22
-1.0223752576968677
% es.tEx (V/m) @ t=0.22
2.059901279469856
% es.tEy (V/m) @ t=0.22
0
% es.tEz (V/m) @ t=0.22
-1.0223752576968508
% V (V) @ t=0.22
0.010439735400843296
% es.normE (V/m) @ t=0.24
2.321996321552545
% es.EX (V/m) @ t=0.24
2.078673062261705
% es.EY (V/m) @ t=0.24
0.07997827825010934
% es.EZ (V/m) @ t=0.24
-1.0316921147736378
% es.tEX (V/m) @ t=0.24
2.078673062261701
% es.tEY (V/m) @ t=0.24
0
% es.tEZ (V/m) @ t=0.24
-1.031692114773655
% es.Ex (V/m) @ t=0.24
2.078673062261705
% es.Ey (V/m) @ t=0.24
0.07997827825010934
% es.Ez (V/m) @ t=0.24
-1.0316921147736378
% es.tEx (V/m) @ t=0.24
2.078673062261701
% es.tEy (V/m) @ t=0.24
0
% es.tEz (V/m) @ t=0.24
-1.031692114773655
% V (V) @ t=0.24
0.01053487217235708
% es.normE (V/m) @ t=0.26
2.3429654730952896
% es.EX (V/m) @ t=0.26
2.0974448450535172
% es.EY (V/m) @ t=0.26
0.08070053548008677
% es.EZ (V/m) @ t=0.26
-1.0410089718504147
% es.tEX (V/m) @ t=0.26
2.0974448450535146
% es.tEY (V/m) @ t=0.26
0
% es.tEZ (V/m) @ t=0.26
-1.0410089718504096
% es.Ex (V/m) @ t=0.26
2.0974448450535172
% es.Ey (V/m) @ t=0.26
0.08070053548008677
% es.Ez (V/m) @ t=0.26
-1.0410089718504147
% es.tEx (V/m) @ t=0.26
2.0974448450535146
% es.tEy (V/m) @ t=0.26
0
% es.tEz (V/m) @ t=0.26
-1.0410089718504096
% V (V) @ t=0.26
0.010630008943870863
% es.normE (V/m) @ t=0.28
2.3659944932672126
% es.EX (V/m) @ t=0.28
2.1180606297129385
% es.EY (V/m) @ t=0.28
0.0814935378181583
% es.EZ (V/m) @ t=0.28
-1.0512410944984434
% es.tEX (V/m) @ t=0.28
2.118060629712943
% es.tEY (V/m) @ t=0.28
0
% es.tEZ (V/m) @ t=0.28
-1.0512410944984367
% es.Ex (V/m) @ t=0.28
2.1180606297129385
% es.Ey (V/m) @ t=0.28
0.0814935378181583
% es.Ez (V/m) @ t=0.28
-1.0512410944984434
% es.tEx (V/m) @ t=0.28
2.118060629712943
% es.tEy (V/m) @ t=0.28
0
% es.tEz (V/m) @ t=0.28
-1.0512410944984367
% V (V) @ t=0.28
0.010734500992381196
% es.normE (V/m) @ t=0.3
2.3892530407553014
% es.EX (V/m) @ t=0.3
2.1388818880582385
% es.EY (V/m) @ t=0.3
0.08229442315153565
% es.EZ (V/m) @ t=0.3
-1.061575203480485
% es.tEX (V/m) @ t=0.3
2.1388818880582345
% es.tEY (V/m) @ t=0.3
0
% es.tEZ (V/m) @ t=0.3
-1.0615752034804729
% es.Ex (V/m) @ t=0.3
2.1388818880582385
% es.Ey (V/m) @ t=0.3
0.08229442315153565
% es.Ez (V/m) @ t=0.3
-1.061575203480485
% es.tEx (V/m) @ t=0.3
2.1388818880582345
% es.tEy (V/m) @ t=0.3
0
% es.tEz (V/m) @ t=0.3
-1.0615752034804729
% V (V) @ t=0.3
0.010840035481943617
% es.normE (V/m) @ t=0.32
2.41251158824345
% es.EX (V/m) @ t=0.32
2.1597031464035528
% es.EY (V/m) @ t=0.32
0.08309530848493171
% es.EZ (V/m) @ t=0.32
-1.0719093124625587
% es.tEX (V/m) @ t=0.32
2.1597031464035403
% es.tEY (V/m) @ t=0.32
0
% es.tEZ (V/m) @ t=0.32
-1.0719093124625374
% es.Ex (V/m) @ t=0.32
2.1597031464035528
% es.Ey (V/m) @ t=0.32
0.08309530848493171
% es.Ez (V/m) @ t=0.32
-1.0719093124625587
% es.tEx (V/m) @ t=0.32
2.1597031464035403
% es.tEy (V/m) @ t=0.32
0
% es.tEz (V/m) @ t=0.32
-1.0719093124625374
% V (V) @ t=0.32
0.010945569971506036
% es.normE (V/m) @ t=0.34
2.435770135731583
% es.EX (V/m) @ t=0.34
2.1805244047488355
% es.EY (V/m) @ t=0.34
0.0838961938182958
% es.EZ (V/m) @ t=0.34
-1.0822434214445968
% es.tEX (V/m) @ t=0.34
2.180524404748832
% es.tEY (V/m) @ t=0.34
0
% es.tEZ (V/m) @ t=0.34
-1.0822434214445806
% es.Ex (V/m) @ t=0.34
2.1805244047488355
% es.Ey (V/m) @ t=0.34
0.0838961938182958
% es.Ez (V/m) @ t=0.34
-1.0822434214445968
% es.tEx (V/m) @ t=0.34
2.180524404748832
% es.tEy (V/m) @ t=0.34
0
% es.tEz (V/m) @ t=0.34
-1.0822434214445806
% V (V) @ t=0.34
0.011051104461068459
% es.normE (V/m) @ t=0.36
2.459028683219775
% es.EX (V/m) @ t=0.36
2.2013456630941426
% es.EY (V/m) @ t=0.36
0.08469707915168023
% es.EZ (V/m) @ t=0.36
-1.0925775304266492
% es.tEX (V/m) @ t=0.36
2.2013456630941377
% es.tEY (V/m) @ t=0.36
0
% es.tEZ (V/m) @ t=0.36
-1.0925775304266452
% es.Ex (V/m) @ t=0.36
2.2013456630941426
% es.Ey (V/m) @ t=0.36
0.08469707915168023
% es.Ez (V/m) @ t=0.36
-1.0925775304266492
% es.tEx (V/m) @ t=0.36
2.2013456630941377
% es.tEy (V/m) @ t=0.36
0
% es.tEz (V/m) @ t=0.36
-1.0925775304266452
% V (V) @ t=0.36
0.011156638950630878
% es.normE (V/m) @ t=0.38
2.482287230708012
% es.EX (V/m) @ t=0.38
2.2221669214394537
% es.EY (V/m) @ t=0.38
0.08549796448508962
% es.EZ (V/m) @ t=0.38
-1.1029116394087262
% es.tEX (V/m) @ t=0.38
2.2221669214394515
% es.tEY (V/m) @ t=0.38
0
% es.tEZ (V/m) @ t=0.38
-1.1029116394087097
% es.Ex (V/m) @ t=0.38
2.2221669214394537
% es.Ey (V/m) @ t=0.38
0.08549796448508962
% es.Ez (V/m) @ t=0.38
-1.1029116394087262
% es.tEx (V/m) @ t=0.38
2.2221669214394515
% es.tEy (V/m) @ t=0.38
0
% es.tEz (V/m) @ t=0.38
-1.1029116394087097
% V (V) @ t=0.38
0.011262173440193299
% es.normE (V/m) @ t=0.4
2.5055457781962307
% es.EX (V/m) @ t=0.4
2.2429881797847395
% es.EY (V/m) @ t=0.4
0.08629884981845015
% es.EZ (V/m) @ t=0.4
-1.1132457483907536
% es.tEX (V/m) @ t=0.4
2.242988179784736
% es.tEY (V/m) @ t=0.4
0
% es.tEZ (V/m) @ t=0.4
-1.1132457483907459
% es.Ex (V/m) @ t=0.4
2.2429881797847395
% es.Ey (V/m) @ t=0.4
0.08629884981845015
% es.Ez (V/m) @ t=0.4
-1.1132457483907536
% es.tEx (V/m) @ t=0.4
2.242988179784736
% es.tEy (V/m) @ t=0.4
0
% es.tEz (V/m) @ t=0.4
-1.1132457483907459
% V (V) @ t=0.4
0.01136770792975572
% es.normE (V/m) @ t=0.42
2.528804325684516
% es.EX (V/m) @ t=0.42
2.26380943813005
% es.EY (V/m) @ t=0.42
0.0870997351518426
% es.EZ (V/m) @ t=0.42
-1.1235798573728166
% es.tEX (V/m) @ t=0.42
2.2638094381300418
% es.tEY (V/m) @ t=0.42
0
% es.tEZ (V/m) @ t=0.42
-1.1235798573728246
% es.Ex (V/m) @ t=0.42
2.26380943813005
% es.Ey (V/m) @ t=0.42
0.0870997351518426
% es.Ez (V/m) @ t=0.42
-1.1235798573728166
% es.tEx (V/m) @ t=0.42
2.2638094381300418
% es.tEy (V/m) @ t=0.42
0
% es.tEz (V/m) @ t=0.42
-1.1235798573728246
% V (V) @ t=0.42
0.01147324241931814
% es.normE (V/m) @ t=0.44
2.5520628731728143
% es.EX (V/m) @ t=0.44
2.284630696475347
% es.EY (V/m) @ t=0.44
0.08790062048525554
% es.EZ (V/m) @ t=0.44
-1.1339139663548758
% es.tEX (V/m) @ t=0.44
2.2846306964753476
% es.tEY (V/m) @ t=0.44
0
% es.tEZ (V/m) @ t=0.44
-1.1339139663548892
% es.Ex (V/m) @ t=0.44
2.284630696475347
% es.Ey (V/m) @ t=0.44
0.08790062048525554
% es.Ez (V/m) @ t=0.44
-1.1339139663548758
% es.tEx (V/m) @ t=0.44
2.2846306964753476
% es.tEy (V/m) @ t=0.44
0
% es.tEz (V/m) @ t=0.44
-1.1339139663548892
% V (V) @ t=0.44
0.01157877690888056
% es.normE (V/m) @ t=0.46
2.575321420661124
% es.EX (V/m) @ t=0.46
2.305451954820636
% es.EY (V/m) @ t=0.46
0.08870150581862135
% es.EZ (V/m) @ t=0.46
-1.144248075336921
% es.tEX (V/m) @ t=0.46
2.305451954820631
% es.tEY (V/m) @ t=0.46
0
% es.tEZ (V/m) @ t=0.46
-1.1442480753369253
% es.Ex (V/m) @ t=0.46
2.305451954820636
% es.Ey (V/m) @ t=0.46
0.08870150581862135
% es.Ez (V/m) @ t=0.46
-1.144248075336921
% es.tEx (V/m) @ t=0.46
2.305451954820631
% es.tEy (V/m) @ t=0.46
0
% es.tEz (V/m) @ t=0.46
-1.1442480753369253
% V (V) @ t=0.46
0.011684311398442985
% es.normE (V/m) @ t=0.48
2.5985799681494908
% es.EX (V/m) @ t=0.48
2.326273213165943
% es.EY (V/m) @ t=0.48
0.08950239115200409
% es.EZ (V/m) @ t=0.48
-1.1545821843190018
% es.tEX (V/m) @ t=0.48
2.326273213165951
% es.tEY (V/m) @ t=0.48
0
% es.tEZ (V/m) @ t=0.48
-1.154582184318997
% es.Ex (V/m) @ t=0.48
2.326273213165943
% es.Ey (V/m) @ t=0.48
0.08950239115200409
% es.Ez (V/m) @ t=0.48
-1.1545821843190018
% es.tEx (V/m) @ t=0.48
2.326273213165951
% es.tEy (V/m) @ t=0.48
0
% es.tEz (V/m) @ t=0.48
-1.154582184318997
% V (V) @ t=0.48
0.011789845888005404
% es.normE (V/m) @ t=0.5
2.62183851563787
% es.EX (V/m) @ t=0.5
2.347094471511254
% es.EY (V/m) @ t=0.5
0.09030327648538322
% es.EZ (V/m) @ t=0.5
-1.164916293301047
% es.tEX (V/m) @ t=0.5
2.34709447151125
% es.tEY (V/m) @ t=0.5
0
% es.tEZ (V/m) @ t=0.5
-1.1649162933010473
% es.Ex (V/m) @ t=0.5
2.347094471511254
% es.Ey (V/m) @ t=0.5
0.09030327648538322
% es.Ez (V/m) @ t=0.5
-1.164916293301047
% es.tEx (V/m) @ t=0.5
2.34709447151125
% es.tEy (V/m) @ t=0.5
0
% es.tEz (V/m) @ t=0.5
-1.1649162933010473
% V (V) @ t=0.5
0.011895380377567825
% es.normE (V/m) @ t=0.52
2.6450970631262614
% es.EX (V/m) @ t=0.52
2.367915729856543
% es.EY (V/m) @ t=0.52
0.09110416181876863
% es.EZ (V/m) @ t=0.52
-1.1752504022831065
% es.tEX (V/m) @ t=0.52
2.3679157298565414
% es.tEY (V/m) @ t=0.52
0
% es.tEZ (V/m) @ t=0.52
-1.1752504022831047
% es.Ex (V/m) @ t=0.52
2.367915729856543
% es.Ey (V/m) @ t=0.52
0.09110416181876863
% es.Ez (V/m) @ t=0.52
-1.1752504022831065
% es.tEx (V/m) @ t=0.52
2.3679157298565414
% es.tEy (V/m) @ t=0.52
0
% es.tEz (V/m) @ t=0.52
-1.1752504022831047
% V (V) @ t=0.52
0.012000914867130244
% es.normE (V/m) @ t=0.54
2.670444122330373
% es.EX (V/m) @ t=0.54
2.3906066284280763
% es.EY (V/m) @ t=0.54
0.09197672860964218
% es.EZ (V/m) @ t=0.54
-1.1865125136748444
% es.tEX (V/m) @ t=0.54
2.3906066284280802
% es.tEY (V/m) @ t=0.54
0
% es.tEZ (V/m) @ t=0.54
-1.1865125136748205
% es.Ex (V/m) @ t=0.54
2.3906066284280763
% es.Ey (V/m) @ t=0.54
0.09197672860964218
% es.Ez (V/m) @ t=0.54
-1.1865125136748444
% es.tEx (V/m) @ t=0.54
2.3906066284280802
% es.tEy (V/m) @ t=0.54
0
% es.tEz (V/m) @ t=0.54
-1.1865125136748205
% V (V) @ t=0.54
0.012115937046507918
% es.normE (V/m) @ t=0.56
2.696284028904902
% es.EX (V/m) @ t=0.56
2.4137387250364437
% es.EY (V/m) @ t=0.56
0.09286621080378737
% es.EZ (V/m) @ t=0.56
-1.1979936152421153
% es.tEX (V/m) @ t=0.56
2.4137387250364455
% es.tEY (V/m) @ t=0.56
0
% es.tEZ (V/m) @ t=0.56
-1.1979936152421047
% es.Ex (V/m) @ t=0.56
2.4137387250364437
% es.Ey (V/m) @ t=0.56
0.09286621080378737
% es.Ez (V/m) @ t=0.56
-1.1979936152421153
% es.tEx (V/m) @ t=0.56
2.4137387250364455
% es.tEy (V/m) @ t=0.56
0
% es.tEz (V/m) @ t=0.56
-1.1979936152421047
% V (V) @ t=0.56
0.012233198132634421
% es.normE (V/m) @ t=0.58
2.722123935479544
% es.EX (V/m) @ t=0.58
2.4368708216447947
% es.EY (V/m) @ t=0.58
0.09375569299791031
% es.EZ (V/m) @ t=0.58
-1.2094747168093543
% es.tEX (V/m) @ t=0.58
2.436870821644792
% es.tEY (V/m) @ t=0.58
0
% es.tEZ (V/m) @ t=0.58
-1.2094747168093392
% es.Ex (V/m) @ t=0.58
2.4368708216447947
% es.Ey (V/m) @ t=0.58
0.09375569299791031
% es.Ez (V/m) @ t=0.58
-1.2094747168093543
% es.tEx (V/m) @ t=0.58
2.436870821644792
% es.tEy (V/m) @ t=0.58
0
% es.tEz (V/m) @ t=0.58
-1.2094747168093392
% V (V) @ t=0.58
0.012350459218760925
% es.normE (V/m) @ t=0.6
2.7479638420543475
% es.EX (V/m) @ t=0.6
2.4600029182531564
% es.EY (V/m) @ t=0.6
0.09464517519202087
% es.EZ (V/m) @ t=0.6
-1.2209558183766216
% es.tEX (V/m) @ t=0.6
2.460002918253152
% es.tEY (V/m) @ t=0.6
0
% es.tEZ (V/m) @ t=0.6
-1.220955818376602
% es.Ex (V/m) @ t=0.6
2.4600029182531564
% es.Ey (V/m) @ t=0.6
0.09464517519202087
% es.Ez (V/m) @ t=0.6
-1.2209558183766216
% es.tEx (V/m) @ t=0.6
2.460002918253152
% es.tEy (V/m) @ t=0.6
0
% es.tEz (V/m) @ t=0.6
-1.220955818376602
% V (V) @ t=0.6
0.01246772030488743
% es.normE (V/m) @ t=0.62
2.773803748629276
% es.EX (V/m) @ t=0.62
2.483135014861511
% es.EY (V/m) @ t=0.62
0.09553465738614653
% es.EZ (V/m) @ t=0.62
-1.2324369199438783
% es.tEX (V/m) @ t=0.62
2.4831350148614977
% es.tEY (V/m) @ t=0.62
0
% es.tEZ (V/m) @ t=0.62
-1.232436919943872
% es.Ex (V/m) @ t=0.62
2.483135014861511
% es.Ey (V/m) @ t=0.62
0.09553465738614653
% es.Ez (V/m) @ t=0.62
-1.2324369199438783
% es.tEx (V/m) @ t=0.62
2.4831350148614977
% es.tEy (V/m) @ t=0.62
0
% es.tEz (V/m) @ t=0.62
-1.232436919943872
% V (V) @ t=0.62
0.012584981391013939
% es.normE (V/m) @ t=0.64
2.799643655204324
% es.EX (V/m) @ t=0.64
2.5062671114698585
% es.EY (V/m) @ t=0.64
0.09642413958029084
% es.EZ (V/m) @ t=0.64
-1.2439180215111207
% es.tEX (V/m) @ t=0.64
2.5062671114698576
% es.tEY (V/m) @ t=0.64
0
% es.tEZ (V/m) @ t=0.64
-1.2439180215111065
% es.Ex (V/m) @ t=0.64
2.5062671114698585
% es.Ey (V/m) @ t=0.64
0.09642413958029084
% es.Ez (V/m) @ t=0.64
-1.2439180215111207
% es.tEx (V/m) @ t=0.64
2.5062671114698576
% es.tEy (V/m) @ t=0.64
0
% es.tEz (V/m) @ t=0.64
-1.2439180215111065
% V (V) @ t=0.64
0.01270224247714044
% es.normE (V/m) @ t=0.66
2.8254835617795333
% es.EX (V/m) @ t=0.66
2.5293992080782264
% es.EY (V/m) @ t=0.66
0.09731362177439962
% es.EZ (V/m) @ t=0.66
-1.2553991230783987
% es.tEX (V/m) @ t=0.66
2.529399208078223
% es.tEY (V/m) @ t=0.66
0
% es.tEZ (V/m) @ t=0.66
-1.255399123078405
% es.Ex (V/m) @ t=0.66
2.5293992080782264
% es.Ey (V/m) @ t=0.66
0.09731362177439962
% es.Ez (V/m) @ t=0.66
-1.2553991230783987
% es.tEx (V/m) @ t=0.66
2.529399208078223
% es.tEy (V/m) @ t=0.66
0
% es.tEz (V/m) @ t=0.66
-1.255399123078405
% V (V) @ t=0.66
0.012819503563266946
% es.normE (V/m) @ t=0.68
2.8513234683548525
% es.EX (V/m) @ t=0.68
2.552531304686581
% es.EY (V/m) @ t=0.68
0.09820310396855186
% es.EZ (V/m) @ t=0.68
-1.266880224645666
% es.tEX (V/m) @ t=0.68
2.5525313046865756
% es.tEY (V/m) @ t=0.68
0
% es.tEZ (V/m) @ t=0.68
-1.2668802246456679
% es.Ex (V/m) @ t=0.68
2.552531304686581
% es.Ey (V/m) @ t=0.68
0.09820310396855186
% es.Ez (V/m) @ t=0.68
-1.266880224645666
% es.tEx (V/m) @ t=0.68
2.5525313046865756
% es.tEy (V/m) @ t=0.68
0
% es.tEz (V/m) @ t=0.68
-1.2668802246456679
% V (V) @ t=0.68
0.01293676464939345
% es.normE (V/m) @ t=0.7
2.8771633749302867
% es.EX (V/m) @ t=0.7
2.575663401294939
% es.EY (V/m) @ t=0.7
0.09909258616265709
% es.EZ (V/m) @ t=0.7
-1.2783613262129156
% es.tEX (V/m) @ t=0.7
2.5756634012949293
% es.tEY (V/m) @ t=0.7
0
% es.tEZ (V/m) @ t=0.7
-1.2783613262129023
% es.Ex (V/m) @ t=0.7
2.575663401294939
% es.Ey (V/m) @ t=0.7
0.09909258616265709
% es.Ez (V/m) @ t=0.7
-1.2783613262129156
% es.tEx (V/m) @ t=0.7
2.5756634012949293
% es.tEy (V/m) @ t=0.7
0
% es.tEz (V/m) @ t=0.7
-1.2783613262129023
% V (V) @ t=0.7
0.013054025735519956
% es.normE (V/m) @ t=0.72
2.9030032815058378
% es.EX (V/m) @ t=0.72
2.598795497903293
% es.EY (V/m) @ t=0.72
0.09998206835679252
% es.EZ (V/m) @ t=0.72
-1.2898424277801688
% es.tEX (V/m) @ t=0.72
2.5987954979032963
% es.tEY (V/m) @ t=0.72
0
% es.tEZ (V/m) @ t=0.72
-1.2898424277801652
% es.Ex (V/m) @ t=0.72
2.598795497903293
% es.Ey (V/m) @ t=0.72
0.09998206835679252
% es.Ez (V/m) @ t=0.72
-1.2898424277801688
% es.tEx (V/m) @ t=0.72
2.5987954979032963
% es.tEy (V/m) @ t=0.72
0
% es.tEz (V/m) @ t=0.72
-1.2898424277801652
% V (V) @ t=0.72
0.01317128682164646
% es.normE (V/m) @ t=0.74
2.9288431880815127
% es.EX (V/m) @ t=0.74
2.6219275945116536
% es.EY (V/m) @ t=0.74
0.10087155055091279
% es.EZ (V/m) @ t=0.74
-1.301323529347429
% es.tEX (V/m) @ t=0.74
2.6219275945116554
% es.tEY (V/m) @ t=0.74
0
% es.tEZ (V/m) @ t=0.74
-1.3013235293474352
% es.Ex (V/m) @ t=0.74
2.6219275945116536
% es.Ey (V/m) @ t=0.74
0.10087155055091279
% es.Ez (V/m) @ t=0.74
-1.301323529347429
% es.tEx (V/m) @ t=0.74
2.6219275945116554
% es.tEy (V/m) @ t=0.74
0
% es.tEz (V/m) @ t=0.74
-1.3013235293474352
% V (V) @ t=0.74
0.013288547907772967
% es.normE (V/m) @ t=0.76
2.9546830946573044
% es.EX (V/m) @ t=0.76
2.645059691120008
% es.EY (V/m) @ t=0.76
0.10176103274504733
% es.EZ (V/m) @ t=0.76
-1.3128046309147106
% es.tEX (V/m) @ t=0.76
2.645059691120008
% es.tEY (V/m) @ t=0.76
0
% es.tEZ (V/m) @ t=0.76
-1.3128046309147052
% es.Ex (V/m) @ t=0.76
2.645059691120008
% es.Ey (V/m) @ t=0.76
0.10176103274504733
% es.Ez (V/m) @ t=0.76
-1.3128046309147106
% es.tEx (V/m) @ t=0.76
2.645059691120008
% es.tEy (V/m) @ t=0.76
0
% es.tEz (V/m) @ t=0.76
-1.3128046309147052
% V (V) @ t=0.76
0.013405808993899471
% es.normE (V/m) @ t=0.78
2.9805230012331734
% es.EX (V/m) @ t=0.78
2.6681917877283525
% es.EY (V/m) @ t=0.78
0.10265051493913924
% es.EZ (V/m) @ t=0.78
-1.324285732481946
% es.tEX (V/m) @ t=0.78
2.6681917877283547
% es.tEY (V/m) @ t=0.78
0
% es.tEZ (V/m) @ t=0.78
-1.3242857324819113
% es.Ex (V/m) @ t=0.78
2.6681917877283525
% es.Ey (V/m) @ t=0.78
0.10265051493913924
% es.Ez (V/m) @ t=0.78
-1.324285732481946
% es.tEx (V/m) @ t=0.78
2.6681917877283547
% es.tEy (V/m) @ t=0.78
0
% es.tEz (V/m) @ t=0.78
-1.3242857324819113
% V (V) @ t=0.78
0.013523070080025977
% es.normE (V/m) @ t=0.8
3.0084572540993735
% es.EX (V/m) @ t=0.8
2.6931987632940038
% es.EY (V/m) @ t=0.8
0.1036121398418724
% es.EZ (V/m) @ t=0.8
-1.336697377249486
% es.tEX (V/m) @ t=0.8
2.6931987632939807
% es.tEY (V/m) @ t=0.8
0
% es.tEZ (V/m) @ t=0.8
-1.336697377249493
% es.Ex (V/m) @ t=0.8
2.6931987632940038
% es.Ey (V/m) @ t=0.8
0.1036121398418724
% es.Ez (V/m) @ t=0.8
-1.336697377249486
% es.tEx (V/m) @ t=0.8
2.6931987632939807
% es.tEy (V/m) @ t=0.8
0
% es.tEz (V/m) @ t=0.8
-1.336697377249493
% V (V) @ t=0.8
0.013649832906038538
% es.normE (V/m) @ t=0.82
3.037212430507441
% es.EX (V/m) @ t=0.82
2.7189406375157095
% es.EY (V/m) @ t=0.82
0.10460204261251121
% es.EZ (V/m) @ t=0.82
-1.3494737682022138
% es.tEX (V/m) @ t=0.82
2.7189406375157157
% es.tEY (V/m) @ t=0.82
0
% es.tEZ (V/m) @ t=0.82
-1.349473768202195
% es.Ex (V/m) @ t=0.82
2.7189406375157095
% es.Ey (V/m) @ t=0.82
0.10460204261251121
% es.Ez (V/m) @ t=0.82
-1.3494737682022138
% es.tEx (V/m) @ t=0.82
2.7189406375157157
% es.tEy (V/m) @ t=0.82
0
% es.tEz (V/m) @ t=0.82
-1.349473768202195
% V (V) @ t=0.82
0.01378032014094999
% es.normE (V/m) @ t=0.84
3.0659676069156045
% es.EX (V/m) @ t=0.84
2.744682511737427
% es.EY (V/m) @ t=0.84
0.10559194538318645
% es.EZ (V/m) @ t=0.84
-1.3622501591549239
% es.tEX (V/m) @ t=0.84
2.7446825117374294
% es.tEY (V/m) @ t=0.84
0
% es.tEZ (V/m) @ t=0.84
-1.362250159154911
% es.Ex (V/m) @ t=0.84
2.744682511737427
% es.Ey (V/m) @ t=0.84
0.10559194538318645
% es.Ez (V/m) @ t=0.84
-1.3622501591549239
% es.tEx (V/m) @ t=0.84
2.7446825117374294
% es.tEy (V/m) @ t=0.84
0
% es.tEz (V/m) @ t=0.84
-1.362250159154911
% V (V) @ t=0.84
0.01391080737586144
% es.normE (V/m) @ t=0.86
3.0947227833238458
% es.EX (V/m) @ t=0.86
2.770424385959137
% es.EY (V/m) @ t=0.86
0.1065818481538181
% es.EZ (V/m) @ t=0.86
-1.375026550107623
% es.tEX (V/m) @ t=0.86
2.770424385959144
% es.tEY (V/m) @ t=0.86
0
% es.tEZ (V/m) @ t=0.86
-1.3750265501076129
% es.Ex (V/m) @ t=0.86
2.770424385959137
% es.Ey (V/m) @ t=0.86
0.1065818481538181
% es.Ez (V/m) @ t=0.86
-1.375026550107623
% es.tEx (V/m) @ t=0.86
2.770424385959144
% es.tEy (V/m) @ t=0.86
0
% es.tEz (V/m) @ t=0.86
-1.3750265501076129
% V (V) @ t=0.86
0.014041294610772893
% es.normE (V/m) @ t=0.88
3.123477959732214
% es.EX (V/m) @ t=0.88
2.7961662601808754
% es.EY (V/m) @ t=0.88
0.10757175092447918
% es.EZ (V/m) @ t=0.88
-1.3878029410603507
% es.tEX (V/m) @ t=0.88
2.7961662601808497
% es.tEY (V/m) @ t=0.88
0
% es.tEZ (V/m) @ t=0.88
-1.3878029410603432
% es.Ex (V/m) @ t=0.88
2.7961662601808754
% es.Ey (V/m) @ t=0.88
0.10757175092447918
% es.Ez (V/m) @ t=0.88
-1.3878029410603507
% es.tEx (V/m) @ t=0.88
2.7961662601808497
% es.tEy (V/m) @ t=0.88
0
% es.tEz (V/m) @ t=0.88
-1.3878029410603432
% V (V) @ t=0.88
0.014171781845684347
% es.normE (V/m) @ t=0.9
3.152233136140622
% es.EX (V/m) @ t=0.9
2.8219081344025754
% es.EY (V/m) @ t=0.9
0.10856165369514637
% es.EZ (V/m) @ t=0.9
-1.4005793320130537
% es.tEX (V/m) @ t=0.9
2.8219081344025785
% es.tEY (V/m) @ t=0.9
0
% es.tEZ (V/m) @ t=0.9
-1.4005793320130593
% es.Ex (V/m) @ t=0.9
2.8219081344025754
% es.Ey (V/m) @ t=0.9
0.10856165369514637
% es.Ez (V/m) @ t=0.9
-1.4005793320130537
% es.tEx (V/m) @ t=0.9
2.8219081344025785
% es.tEy (V/m) @ t=0.9
0
% es.tEz (V/m) @ t=0.9
-1.4005793320130593
% V (V) @ t=0.9
0.014302269080595797
% es.normE (V/m) @ t=0.92
3.1809883125491263
% es.EX (V/m) @ t=0.92
2.847650008624288
% es.EY (V/m) @ t=0.92
0.10955155646578968
% es.EZ (V/m) @ t=0.92
-1.4133557229657603
% es.tEX (V/m) @ t=0.92
2.8476500086242833
% es.tEY (V/m) @ t=0.92
0
% es.tEZ (V/m) @ t=0.92
-1.413355722965754
% es.Ex (V/m) @ t=0.92
2.847650008624288
% es.Ey (V/m) @ t=0.92
0.10955155646578968
% es.Ez (V/m) @ t=0.92
-1.4133557229657603
% es.tEx (V/m) @ t=0.92
2.8476500086242833
% es.tEy (V/m) @ t=0.92
0
% es.tEz (V/m) @ t=0.92
-1.413355722965754
% V (V) @ t=0.92
0.01443275631550725
% es.normE (V/m) @ t=0.94
3.2097434889577015
% es.EX (V/m) @ t=0.94
2.873391882845991
% es.EY (V/m) @ t=0.94
0.11054145923643999
% es.EZ (V/m) @ t=0.94
-1.4261321139184666
% es.tEX (V/m) @ t=0.94
2.873391882845999
% es.tEY (V/m) @ t=0.94
0
% es.tEZ (V/m) @ t=0.94
-1.4261321139184489
% es.Ex (V/m) @ t=0.94
2.873391882845991
% es.Ey (V/m) @ t=0.94
0.11054145923643999
% es.Ez (V/m) @ t=0.94
-1.4261321139184666
% es.tEx (V/m) @ t=0.94
2.873391882845999
% es.tEy (V/m) @ t=0.94
0
% es.tEz (V/m) @ t=0.94
-1.4261321139184489
% V (V) @ t=0.94
0.0145632435504187
% es.normE (V/m) @ t=0.96
3.238498665366392
% es.EX (V/m) @ t=0.96
2.8991337570677187
% es.EY (V/m) @ t=0.96
0.11153136200706815
% es.EZ (V/m) @ t=0.96
-1.4389085048712051
% es.tEX (V/m) @ t=0.96
2.8991337570677107
% es.tEY (V/m) @ t=0.96
0
% es.tEZ (V/m) @ t=0.96
-1.4389085048712005
% es.Ex (V/m) @ t=0.96
2.8991337570677187
% es.Ey (V/m) @ t=0.96
0.11153136200706815
% es.Ez (V/m) @ t=0.96
-1.4389085048712051
% es.tEx (V/m) @ t=0.96
2.8991337570677107
% es.tEy (V/m) @ t=0.96
0
% es.tEz (V/m) @ t=0.96
-1.4389085048712005
% V (V) @ t=0.96
0.01469373078533015
% es.normE (V/m) @ t=0.98
3.26725384177512
% es.EX (V/m) @ t=0.98
2.924875631289429
% es.EY (V/m) @ t=0.98
0.11252126477771768
% es.EZ (V/m) @ t=0.98
-1.4516848958238904
% es.tEX (V/m) @ t=0.98
2.9248756312894333
% es.tEY (V/m) @ t=0.98
0
% es.tEZ (V/m) @ t=0.98
-1.451684895823881
% es.Ex (V/m) @ t=0.98
2.924875631289429
% es.Ey (V/m) @ t=0.98
0.11252126477771768
% es.Ez (V/m) @ t=0.98
-1.4516848958238904
% es.tEx (V/m) @ t=0.98
2.9248756312894333
% es.tEy (V/m) @ t=0.98
0
% es.tEz (V/m) @ t=0.98
-1.451684895823881
% V (V) @ t=0.98
0.014824218020241604
% es.normE (V/m) @ t=1
3.2960090181839616
% es.EX (V/m) @ t=1
2.9506175055111568
% es.EY (V/m) @ t=1
0.11351116754839913
% es.EZ (V/m) @ t=1
-1.4644612867766251
% es.tEX (V/m) @ t=1
2.9506175055111523
% es.tEY (V/m) @ t=1
0
% es.tEZ (V/m) @ t=1
-1.4644612867766327
% es.Ex (V/m) @ t=1
2.9506175055111568
% es.Ey (V/m) @ t=1
0.11351116754839913
% es.Ez (V/m) @ t=1
-1.4644612867766251
% es.tEx (V/m) @ t=1
2.9506175055111523
% es.tEy (V/m) @ t=1
0
% es.tEz (V/m) @ t=1
-1.4644612867766327
% V (V) @ t=1
0.014954705255153057
% es.normE (V/m) @ t=1.02
3.324764194592867
% es.EX (V/m) @ t=1.02
2.9763593797328847
% es.EY (V/m) @ t=1.02
0.114501070319046
% es.EZ (V/m) @ t=1.02
-1.4772376777293423
% es.tEX (V/m) @ t=1.02
2.976359379732882
% es.tEY (V/m) @ t=1.02
0
% es.tEZ (V/m) @ t=1.02
-1.4772376777293275
% es.Ex (V/m) @ t=1.02
2.9763593797328847
% es.Ey (V/m) @ t=1.02
0.114501070319046
% es.Ez (V/m) @ t=1.02
-1.4772376777293423
% es.tEx (V/m) @ t=1.02
2.976359379732882
% es.tEy (V/m) @ t=1.02
0
% es.tEz (V/m) @ t=1.02
-1.4772376777293275
% V (V) @ t=1.02
0.015085192490064507
% es.normE (V/m) @ t=1.04
3.3535193710018127
% es.EX (V/m) @ t=1.04
3.0021012539545837
% es.EY (V/m) @ t=1.04
0.11549097308971318
% es.EZ (V/m) @ t=1.04
-1.4900140686820453
% es.tEX (V/m) @ t=1.04
3.0021012539545797
% es.tEY (V/m) @ t=1.04
0
% es.tEZ (V/m) @ t=1.04
-1.4900140686820507