% Model:              1 neuron.mph
% Version:            COMSOL 6.1.0.252
% Date:               Mar 22 2023, 19:50
% Dimension:          0
% Nodes:              14017
% Expressions:        14017
% Description:        Electric field norm, Electric field, X component, Electric field, Y component, Electric field, Z component, Tangential electric field, X component, Tangential electric field, Y component, Tangential electric field, Z component, Electric field, x component, Electric field, y component, Electric field, z component, Tangential electric field, x component, Tangential electric field, y component, Tangential electric field, z component, Electric potential
% Length unit:        mm
% x
1
% y
12.2
% z
1.33
% es.normE (V/m) @ t=0
2.1998968422684255
% es.EX (V/m) @ t=0
2.032992621535173
% es.EY (V/m) @ t=0
0.12800985178594937
% es.EZ (V/m) @ t=0
0.8218630486797596
% es.tEX (V/m) @ t=0
2.0329926215351772
% es.tEY (V/m) @ t=0
0
% es.tEZ (V/m) @ t=0
0.8218630486797607
% es.Ex (V/m) @ t=0
2.032992621535173
% es.Ey (V/m) @ t=0
0.12800985178594937
% es.Ez (V/m) @ t=0
0.8218630486797596
% es.tEx (V/m) @ t=0
2.0329926215351772
% es.tEy (V/m) @ t=0
0
% es.tEz (V/m) @ t=0
0.8218630486797607
% V (V) @ t=0
0.010973440616420622
% es.normE (V/m) @ t=0.02
1.9000833406426878
% es.EX (V/m) @ t=0.02
1.75592570414054
% es.EY (V/m) @ t=0.02
0.11056399657984628
% es.EZ (V/m) @ t=0.02
0.7098552337361654
% es.tEX (V/m) @ t=0.02
1.7559257041405374
% es.tEY (V/m) @ t=0.02
0
% es.tEZ (V/m) @ t=0.02
0.7098552337361674
% es.Ex (V/m) @ t=0.02
1.75592570414054
% es.Ey (V/m) @ t=0.02
0.11056399657984628
% es.Ez (V/m) @ t=0.02
0.7098552337361654
% es.tEx (V/m) @ t=0.02
1.7559257041405374
% es.tEy (V/m) @ t=0.02
0
% es.tEz (V/m) @ t=0.02
0.7098552337361674
% V (V) @ t=0.02
0.009477922464027223
% es.normE (V/m) @ t=0.04
1.9175718905201027
% es.EX (V/m) @ t=0.04
1.7720874132501985
% es.EY (V/m) @ t=0.04
0.11158163831061385
% es.EZ (V/m) @ t=0.04
0.7163888096325792
% es.tEX (V/m) @ t=0.04
1.7720874132501994
% es.tEY (V/m) @ t=0.04
0
% es.tEZ (V/m) @ t=0.04
0.7163888096325799
% es.Ex (V/m) @ t=0.04
1.7720874132501985
% es.Ey (V/m) @ t=0.04
0.11158163831061385
% es.Ez (V/m) @ t=0.04
0.7163888096325792
% es.tEx (V/m) @ t=0.04
1.7720874132501994
% es.tEy (V/m) @ t=0.04
0
% es.tEz (V/m) @ t=0.04
0.7163888096325799
% V (V) @ t=0.04
0.009565158172082873
% es.normE (V/m) @ t=0.06
1.93519795556527
% es.EX (V/m) @ t=0.06
1.7883762044328941
% es.EY (V/m) @ t=0.06
0.11260728169525291
% es.EZ (V/m) @ t=0.06
0.7229737599004484
% es.tEX (V/m) @ t=0.06
1.7883762044329021
% es.tEY (V/m) @ t=0.06
0
% es.tEZ (V/m) @ t=0.06
0.7229737599004529
% es.Ex (V/m) @ t=0.06
1.7883762044328941
% es.Ey (V/m) @ t=0.06
0.11260728169525291
% es.Ez (V/m) @ t=0.06
0.7229737599004484
% es.tEx (V/m) @ t=0.06
1.7883762044329021
% es.tEy (V/m) @ t=0.06
0
% es.tEz (V/m) @ t=0.06
0.7229737599004529
% V (V) @ t=0.06
0.009653079836957996
% es.normE (V/m) @ t=0.08
1.9531396661937208
% es.EX (V/m) @ t=0.08
1.8049566934343124
% es.EY (V/m) @ t=0.08
0.11365129224213011
% es.EZ (V/m) @ t=0.08
0.7296766327527198
% es.tEX (V/m) @ t=0.08
1.8049566934343115
% es.tEY (V/m) @ t=0.08
0
% es.tEZ (V/m) @ t=0.08
0.7296766327527138
% es.Ex (V/m) @ t=0.08
1.8049566934343124
% es.Ey (V/m) @ t=0.08
0.11365129224213011
% es.Ez (V/m) @ t=0.08
0.7296766327527198
% es.tEx (V/m) @ t=0.08
1.8049566934343115
% es.tEy (V/m) @ t=0.08
0
% es.tEz (V/m) @ t=0.08
0.7296766327527138
% V (V) @ t=0.08
0.009742575991098124
% es.normE (V/m) @ t=0.1
1.9712038805990018
% es.EX (V/m) @ t=0.1
1.8216503919541847
% es.EY (V/m) @ t=0.1
0.11470243118509527
% es.EZ (V/m) @ t=0.1
0.7364252720048112
% es.tEX (V/m) @ t=0.1
1.821650391954181
% es.tEY (V/m) @ t=0.1
0
% es.tEZ (V/m) @ t=0.1
0.7364252720048095
% es.Ex (V/m) @ t=0.1
1.8216503919541847
% es.Ey (V/m) @ t=0.1
0.11470243118509527
% es.Ez (V/m) @ t=0.1
0.7364252720048112
% es.tEx (V/m) @ t=0.1
1.821650391954181
% es.tEy (V/m) @ t=0.1
0
% es.tEz (V/m) @ t=0.1
0.7364252720048095
% V (V) @ t=0.1
0.009832683213131452
% es.normE (V/m) @ t=0.12
1.989268095004308
% es.EX (V/m) @ t=0.12
1.838344090474079
% es.EY (V/m) @ t=0.12
0.1157535701280642
% es.EZ (V/m) @ t=0.12
0.7431739112569167
% es.tEX (V/m) @ t=0.12
1.8383440904740755
% es.tEY (V/m) @ t=0.12
0
% es.tEZ (V/m) @ t=0.12
0.7431739112569193
% es.Ex (V/m) @ t=0.12
1.838344090474079
% es.Ey (V/m) @ t=0.12
0.1157535701280642
% es.Ez (V/m) @ t=0.12
0.7431739112569167
% es.tEx (V/m) @ t=0.12
1.8383440904740755
% es.tEy (V/m) @ t=0.12
0
% es.tEz (V/m) @ t=0.12
0.7431739112569193
% V (V) @ t=0.12
0.00992279043516478
% es.normE (V/m) @ t=0.14
2.0077489032919464
% es.EX (V/m) @ t=0.14
1.8554227762517757
% es.EY (V/m) @ t=0.14
0.11682895031124796
% es.EZ (V/m) @ t=0.14
0.7500781865360573
% es.tEX (V/m) @ t=0.14
1.855422776251773
% es.tEY (V/m) @ t=0.14
0
% es.tEZ (V/m) @ t=0.14
0.750078186536058
% es.Ex (V/m) @ t=0.14
1.8554227762517757
% es.Ey (V/m) @ t=0.14
0.11682895031124796
% es.Ez (V/m) @ t=0.14
0.7500781865360573
% es.tEx (V/m) @ t=0.14
1.855422776251773
% es.tEy (V/m) @ t=0.14
0
% es.tEz (V/m) @ t=0.14
0.750078186536058
% V (V) @ t=0.14
0.010014975692177226
% es.normE (V/m) @ t=0.16
2.0267380744405594
% es.EX (V/m) @ t=0.16
1.8729712558313398
% es.EY (V/m) @ t=0.16
0.11793391169270029
% es.EZ (V/m) @ t=0.16
0.7571723819732388
% es.tEX (V/m) @ t=0.16
1.8729712558313327
% es.tEY (V/m) @ t=0.16
0
% es.tEZ (V/m) @ t=0.16
0.7571723819732408
% es.Ex (V/m) @ t=0.16
1.8729712558313398
% es.Ey (V/m) @ t=0.16
0.11793391169270029
% es.Ez (V/m) @ t=0.16
0.7571723819732388
% es.tEx (V/m) @ t=0.16
1.8729712558313327
% es.tEy (V/m) @ t=0.16
0
% es.tEz (V/m) @ t=0.16
0.7571723819732408
% V (V) @ t=0.16
0.010109696742085218
% es.normE (V/m) @ t=0.18
2.0457272455891617
% es.EX (V/m) @ t=0.18
1.8905197354108862
% es.EY (V/m) @ t=0.18
0.11903887307417049
% es.EZ (V/m) @ t=0.18
0.7642665774104311
% es.tEX (V/m) @ t=0.18
1.8905197354108942
% es.tEY (V/m) @ t=0.18
0
% es.tEZ (V/m) @ t=0.18
0.7642665774104338
% es.Ex (V/m) @ t=0.18
1.8905197354108862
% es.Ey (V/m) @ t=0.18
0.11903887307417049
% es.Ez (V/m) @ t=0.18
0.7642665774104311
% es.tEx (V/m) @ t=0.18
1.8905197354108942
% es.tEy (V/m) @ t=0.18
0
% es.tEz (V/m) @ t=0.18
0.7642665774104338
% V (V) @ t=0.18
0.010204417791993206
% es.normE (V/m) @ t=0.2
2.064716416737771
% es.EX (V/m) @ t=0.2
1.908068214990438
% es.EY (V/m) @ t=0.2
0.12014383445562282
% es.EZ (V/m) @ t=0.2
0.7713607728476346
% es.tEX (V/m) @ t=0.2
1.908068214990445
% es.tEY (V/m) @ t=0.2
0
% es.tEZ (V/m) @ t=0.2
0.7713607728476419
% es.Ex (V/m) @ t=0.2
1.908068214990438
% es.Ey (V/m) @ t=0.2
0.12014383445562282
% es.Ez (V/m) @ t=0.2
0.7713607728476346
% es.tEx (V/m) @ t=0.2
1.908068214990445
% es.tEy (V/m) @ t=0.2
0
% es.tEz (V/m) @ t=0.2
0.7713607728476419
% V (V) @ t=0.2
0.0102991388419012
% es.normE (V/m) @ t=0.22
2.083705587886375
% es.EX (V/m) @ t=0.22
1.9256166945699915
% es.EY (V/m) @ t=0.22
0.12124879583707426
% es.EZ (V/m) @ t=0.22
0.7784549682848136
% es.tEX (V/m) @ t=0.22
1.9256166945699924
% es.tEY (V/m) @ t=0.22
0
% es.tEZ (V/m) @ t=0.22
0.7784549682848119
% es.Ex (V/m) @ t=0.22
1.9256166945699915
% es.Ey (V/m) @ t=0.22
0.12124879583707426
% es.Ez (V/m) @ t=0.22
0.7784549682848136
% es.tEx (V/m) @ t=0.22
1.9256166945699924
% es.tEy (V/m) @ t=0.22
0
% es.tEz (V/m) @ t=0.22
0.7784549682848119
% V (V) @ t=0.22
0.010393859891809189
% es.normE (V/m) @ t=0.24
2.1026947590349945
% es.EX (V/m) @ t=0.24
1.9431651741495513
% es.EY (V/m) @ t=0.24
0.12235375721854369
% es.EZ (V/m) @ t=0.24
0.7855491637220224
% es.tEX (V/m) @ t=0.24
1.943165174149561
% es.tEY (V/m) @ t=0.24
0
% es.tEZ (V/m) @ t=0.24
0.7855491637220235
% es.Ex (V/m) @ t=0.24
1.9431651741495513
% es.Ey (V/m) @ t=0.24
0.12235375721854369
% es.Ez (V/m) @ t=0.24
0.7855491637220224
% es.tEx (V/m) @ t=0.24
1.943165174149561
% es.tEy (V/m) @ t=0.24
0
% es.tEz (V/m) @ t=0.24
0.7855491637220235
% V (V) @ t=0.24
0.01048858094171718
% es.normE (V/m) @ t=0.26
2.1216839301835937
% es.EX (V/m) @ t=0.26
1.9607136537290968
% es.EY (V/m) @ t=0.26
0.12345871859999236
% es.EZ (V/m) @ t=0.26
0.7926433591592121
% es.tEX (V/m) @ t=0.26
1.9607136537291012
% es.tEY (V/m) @ t=0.26
0
% es.tEZ (V/m) @ t=0.26
0.7926433591592112
% es.Ex (V/m) @ t=0.26
1.9607136537290968
% es.Ey (V/m) @ t=0.26
0.12345871859999236
% es.Ez (V/m) @ t=0.26
0.7926433591592121
% es.tEx (V/m) @ t=0.26
1.9607136537291012
% es.tEy (V/m) @ t=0.26
0
% es.tEz (V/m) @ t=0.26
0.7926433591592112
% V (V) @ t=0.26
0.010583301991625169
% es.normE (V/m) @ t=0.28
2.142558133199275
% es.EX (V/m) @ t=0.28
1.9800041500038112
% es.EY (V/m) @ t=0.28
0.12467336417090102
% es.EZ (V/m) @ t=0.28
0.8004417854121224
% es.tEX (V/m) @ t=0.28
1.9800041500038112
% es.tEY (V/m) @ t=0.28
0
% es.tEZ (V/m) @ t=0.28
0.8004417854121204
% es.Ex (V/m) @ t=0.28
1.9800041500038112
% es.Ey (V/m) @ t=0.28
0.12467336417090102
% es.Ez (V/m) @ t=0.28
0.8004417854121224
% es.tEx (V/m) @ t=0.28
1.9800041500038112
% es.tEy (V/m) @ t=0.28
0
% es.tEz (V/m) @ t=0.28
0.8004417854121204
% V (V) @ t=0.28
0.01068742600124863
% es.normE (V/m) @ t=0.3
2.1636179356546954
% es.EX (V/m) @ t=0.3
1.9994661645049785
% es.EY (V/m) @ t=0.3
0.12589880920069507
% es.EZ (V/m) @ t=0.3
0.8083095499330508
% es.tEX (V/m) @ t=0.3
1.9994661645049785
% es.tEY (V/m) @ t=0.3
0
% es.tEZ (V/m) @ t=0.3
0.8083095499330528
% es.Ex (V/m) @ t=0.3
1.9994661645049785
% es.Ey (V/m) @ t=0.3
0.12589880920069507
% es.Ez (V/m) @ t=0.3
0.8083095499330508
% es.tEx (V/m) @ t=0.3
1.9994661645049785
% es.tEy (V/m) @ t=0.3
0
% es.tEz (V/m) @ t=0.3
0.8083095499330528
% V (V) @ t=0.3
0.01079247582230561
% es.normE (V/m) @ t=0.32
2.1846777381101266
% es.EX (V/m) @ t=0.32
2.0189281790061493
% es.EY (V/m) @ t=0.32
0.12712425423047335
% es.EZ (V/m) @ t=0.32
0.8161773144539983
% es.tEX (V/m) @ t=0.32
2.0189281790061493
% es.tEY (V/m) @ t=0.32
0
% es.tEZ (V/m) @ t=0.32
0.8161773144540079
% es.Ex (V/m) @ t=0.32
2.0189281790061493
% es.Ey (V/m) @ t=0.32
0.12712425423047335
% es.Ez (V/m) @ t=0.32
0.8161773144539983
% es.tEx (V/m) @ t=0.32
2.0189281790061493
% es.tEy (V/m) @ t=0.32
0
% es.tEz (V/m) @ t=0.32
0.8161773144540079
% V (V) @ t=0.32
0.010897525643362589
% es.normE (V/m) @ t=0.34
2.2057375405655497
% es.EX (V/m) @ t=0.34
2.0383901935073085
% es.EY (V/m) @ t=0.34
0.12834969926024975
% es.EZ (V/m) @ t=0.34
0.8240450789749569
% es.tEX (V/m) @ t=0.34
2.03839019350732
% es.tEY (V/m) @ t=0.34
0
% es.tEZ (V/m) @ t=0.34
0.824045078974958
% es.Ex (V/m) @ t=0.34
2.0383901935073085
% es.Ey (V/m) @ t=0.34
0.12834969926024975
% es.Ez (V/m) @ t=0.34
0.8240450789749569
% es.tEx (V/m) @ t=0.34
2.03839019350732
% es.tEy (V/m) @ t=0.34
0
% es.tEz (V/m) @ t=0.34
0.824045078974958
% V (V) @ t=0.34
0.011002575464419573
% es.normE (V/m) @ t=0.36
2.226797343020986
% es.EX (V/m) @ t=0.36
2.057852208008481
% es.EY (V/m) @ t=0.36
0.1295751442900287
% es.EZ (V/m) @ t=0.36
0.8319128434959158
% es.tEX (V/m) @ t=0.36
2.0578522080084802
% es.tEY (V/m) @ t=0.36
0
% es.tEZ (V/m) @ t=0.36
0.831912843495922
% es.Ex (V/m) @ t=0.36
2.057852208008481
% es.Ey (V/m) @ t=0.36
0.1295751442900287
% es.Ez (V/m) @ t=0.36
0.8319128434959158
% es.tEx (V/m) @ t=0.36
2.0578522080084802
% es.tEy (V/m) @ t=0.36
0
% es.tEz (V/m) @ t=0.36
0.831912843495922
% V (V) @ t=0.36
0.011107625285476555
% es.normE (V/m) @ t=0.38
2.247857145476406
% es.EX (V/m) @ t=0.38
2.0773142225096484
% es.EY (V/m) @ t=0.38
0.1308005893198141
% es.EZ (V/m) @ t=0.38
0.8397806080168382
% es.tEX (V/m) @ t=0.38
2.0773142225096457
% es.tEY (V/m) @ t=0.38
0
% es.tEZ (V/m) @ t=0.38
0.8397806080168486
% es.Ex (V/m) @ t=0.38
2.0773142225096484
% es.Ey (V/m) @ t=0.38
0.1308005893198141
% es.Ez (V/m) @ t=0.38
0.8397806080168382
% es.tEx (V/m) @ t=0.38
2.0773142225096457
% es.tEy (V/m) @ t=0.38
0
% es.tEz (V/m) @ t=0.38
0.8397806080168486
% V (V) @ t=0.38
0.011212675106533534
% es.normE (V/m) @ t=0.4
2.2689169479318423
% es.EX (V/m) @ t=0.4
2.096776237010822
% es.EY (V/m) @ t=0.4
0.13202603434958615
% es.EZ (V/m) @ t=0.4
0.8476483725377968
% es.tEX (V/m) @ t=0.4
2.0967762370108147
% es.tEY (V/m) @ t=0.4
0
% es.tEZ (V/m) @ t=0.4
0.8476483725378046
% es.Ex (V/m) @ t=0.4
2.096776237010822
% es.Ey (V/m) @ t=0.4
0.13202603434958615
% es.Ez (V/m) @ t=0.4
0.8476483725377968
% es.tEx (V/m) @ t=0.4
2.0967762370108147
% es.tEy (V/m) @ t=0.4
0
% es.tEz (V/m) @ t=0.4
0.8476483725378046
% V (V) @ t=0.4
0.011317724927590513
% es.normE (V/m) @ t=0.42
2.289976750387263
% es.EX (V/m) @ t=0.42
2.1162382515119784
% es.EY (V/m) @ t=0.42
0.13325147937938997
% es.EZ (V/m) @ t=0.42
0.855516137058751
% es.tEX (V/m) @ t=0.42
2.116238251511989
% es.tEY (V/m) @ t=0.42
0
% es.tEZ (V/m) @ t=0.42
0.8555161370587525
% es.Ex (V/m) @ t=0.42
2.1162382515119784
% es.Ey (V/m) @ t=0.42
0.13325147937938997
% es.Ez (V/m) @ t=0.42
0.855516137058751
% es.tEx (V/m) @ t=0.42
2.116238251511989
% es.tEy (V/m) @ t=0.42
0
% es.tEz (V/m) @ t=0.42
0.8555161370587525
% V (V) @ t=0.42
0.011422774748647497
% es.normE (V/m) @ t=0.44
2.3110365528426833
% es.EX (V/m) @ t=0.44
2.1357002660131394
% es.EY (V/m) @ t=0.44
0.13447692440915848
% es.EZ (V/m) @ t=0.44
0.8633839015796954
% es.tEX (V/m) @ t=0.44
2.135700266013135
% es.tEY (V/m) @ t=0.44
0
% es.tEZ (V/m) @ t=0.44
0.8633839015797027
% es.Ex (V/m) @ t=0.44
2.1357002660131394
% es.Ey (V/m) @ t=0.44
0.13447692440915848
% es.Ez (V/m) @ t=0.44
0.8633839015796954
% es.tEx (V/m) @ t=0.44
2.135700266013135
% es.tEy (V/m) @ t=0.44
0
% es.tEz (V/m) @ t=0.44
0.8633839015797027
% V (V) @ t=0.44
0.011527824569704477
% es.normE (V/m) @ t=0.46
2.332096355298103
% es.EX (V/m) @ t=0.46
2.1551622805142996
% es.EY (V/m) @ t=0.46
0.13570236943893665
% es.EZ (V/m) @ t=0.46
0.8712516661006429
% es.tEX (V/m) @ t=0.46
2.155162280514306
% es.tEY (V/m) @ t=0.46
0
% es.tEZ (V/m) @ t=0.46
0.8712516661006435
% es.Ex (V/m) @ t=0.46
2.1551622805142996
% es.Ey (V/m) @ t=0.46
0.13570236943893665
% es.Ez (V/m) @ t=0.46
0.8712516661006429
% es.tEx (V/m) @ t=0.46
2.155162280514306
% es.tEy (V/m) @ t=0.46
0
% es.tEz (V/m) @ t=0.46
0.8712516661006435
% V (V) @ t=0.46
0.011632874390761458
% es.normE (V/m) @ t=0.48
2.3531561577535394
% es.EX (V/m) @ t=0.48
2.174624295015481
% es.EY (V/m) @ t=0.48
0.13692781446871838
% es.EZ (V/m) @ t=0.48
0.8791194306215753
% es.tEX (V/m) @ t=0.48
2.1746242950154784
% es.tEY (V/m) @ t=0.48
0
% es.tEZ (V/m) @ t=0.48
0.8791194306215773
% es.Ex (V/m) @ t=0.48
2.174624295015481
% es.Ey (V/m) @ t=0.48
0.13692781446871838
% es.Ez (V/m) @ t=0.48
0.8791194306215753
% es.tEx (V/m) @ t=0.48
2.1746242950154784
% es.tEy (V/m) @ t=0.48
0
% es.tEz (V/m) @ t=0.48
0.8791194306215773
% V (V) @ t=0.48
0.011737924211818438
% es.normE (V/m) @ t=0.5
2.3742159602089568
% es.EX (V/m) @ t=0.5
2.194086309516634
% es.EY (V/m) @ t=0.5
0.1381532594984929
% es.EZ (V/m) @ t=0.5
0.8869871951425332
% es.tEX (V/m) @ t=0.5
2.194086309516644
% es.tEY (V/m) @ t=0.5
0
% es.tEZ (V/m) @ t=0.5
0.8869871951425323
% es.Ex (V/m) @ t=0.5
2.194086309516634
% es.Ey (V/m) @ t=0.5
0.1381532594984929
% es.Ez (V/m) @ t=0.5
0.8869871951425332
% es.tEx (V/m) @ t=0.5
2.194086309516644
% es.tEy (V/m) @ t=0.5
0
% es.tEz (V/m) @ t=0.5
0.8869871951425323
% V (V) @ t=0.5
0.01184297403287542
% es.normE (V/m) @ t=0.52
2.395275762664376
% es.EX (V/m) @ t=0.52
2.213548324017796
% es.EY (V/m) @ t=0.52
0.13937870452827106
% es.EZ (V/m) @ t=0.52
0.8948549596634725
% es.tEX (V/m) @ t=0.52
2.213548324017804
% es.tEY (V/m) @ t=0.52
0
% es.tEZ (V/m) @ t=0.52
0.8948549596634714
% es.Ex (V/m) @ t=0.52
2.213548324017796
% es.Ey (V/m) @ t=0.52
0.13937870452827106
% es.Ez (V/m) @ t=0.52
0.8948549596634725
% es.tEx (V/m) @ t=0.52
2.213548324017804
% es.tEy (V/m) @ t=0.52
0
% es.tEz (V/m) @ t=0.52
0.8948549596634714
% V (V) @ t=0.52
0.0119480238539324
% es.normE (V/m) @ t=0.54
2.4182740987777676
% es.EX (V/m) @ t=0.54
2.234801796946032
% es.EY (V/m) @ t=0.54
0.14071695449615473
% es.EZ (V/m) @ t=0.54
0.903446945150953
% es.tEX (V/m) @ t=0.54
2.234801796946037
% es.tEY (V/m) @ t=0.54
0
% es.tEZ (V/m) @ t=0.54
0.9034469451509466
% es.Ex (V/m) @ t=0.54
2.234801796946032
% es.Ey (V/m) @ t=0.54
0.14071695449615473
% es.Ez (V/m) @ t=0.54
0.903446945150953
% es.tEx (V/m) @ t=0.54
2.234801796946037
% es.tEy (V/m) @ t=0.54
0
% es.tEz (V/m) @ t=0.54
0.9034469451509466
% V (V) @ t=0.54
0.012062743295659251
% es.normE (V/m) @ t=0.56
2.4416686072835603
% es.EX (V/m) @ t=0.56
2.2564213849365684
% es.EY (V/m) @ t=0.56
0.14207825807572538
% es.EZ (V/m) @ t=0.56
0.9121869375361813
% es.tEX (V/m) @ t=0.56
2.2564213849365675
% es.tEY (V/m) @ t=0.56
0
% es.tEZ (V/m) @ t=0.56
0.912186937536184
% es.Ex (V/m) @ t=0.56
2.2564213849365684
% es.Ey (V/m) @ t=0.56
0.14207825807572538
% es.Ez (V/m) @ t=0.56
0.9121869375361813
% es.tEx (V/m) @ t=0.56
2.2564213849365675
% es.tEy (V/m) @ t=0.56
0
% es.tEz (V/m) @ t=0.56
0.912186937536184
% V (V) @ t=0.56
0.012179438889174216
% es.normE (V/m) @ t=0.58
2.465063115789341
% es.EX (V/m) @ t=0.58
2.2780409729270863
% es.EY (V/m) @ t=0.58
0.14343956165528426
% es.EZ (V/m) @ t=0.58
0.9209269299214284
% es.tEX (V/m) @ t=0.58
2.2780409729270854
% es.tEY (V/m) @ t=0.58
0
% es.tEZ (V/m) @ t=0.58
0.9209269299214231
% es.Ex (V/m) @ t=0.58
2.2780409729270863
% es.Ey (V/m) @ t=0.58
0.14343956165528426
% es.Ez (V/m) @ t=0.58
0.9209269299214284
% es.tEx (V/m) @ t=0.58
2.2780409729270854
% es.tEy (V/m) @ t=0.58
0
% es.tEz (V/m) @ t=0.58
0.9209269299214231
% V (V) @ t=0.58
0.012296134482689184
% es.normE (V/m) @ t=0.6
2.4884576242951155
% es.EX (V/m) @ t=0.6
2.299660560917599
% es.EY (V/m) @ t=0.6
0.14480086523486668
% es.EZ (V/m) @ t=0.6
0.9296669223066649
% es.tEX (V/m) @ t=0.6
2.2996605609176033
% es.tEY (V/m) @ t=0.6
0
% es.tEZ (V/m) @ t=0.6
0.9296669223066614
% es.Ex (V/m) @ t=0.6
2.299660560917599
% es.Ey (V/m) @ t=0.6
0.14480086523486668
% es.Ez (V/m) @ t=0.6
0.9296669223066649
% es.tEx (V/m) @ t=0.6
2.2996605609176033
% es.tEy (V/m) @ t=0.6
0
% es.tEz (V/m) @ t=0.6
0.9296669223066614
% V (V) @ t=0.6
0.012412830076204154
% es.normE (V/m) @ t=0.62
2.5118521328008994
% es.EX (V/m) @ t=0.62
2.3212801489081274
% es.EY (V/m) @ t=0.62
0.1461621688144238
% es.EZ (V/m) @ t=0.62
0.9384069146918903
% es.tEX (V/m) @ t=0.62
2.321280148908132
% es.tEY (V/m) @ t=0.62
0
% es.tEZ (V/m) @ t=0.62
0.9384069146919005
% es.Ex (V/m) @ t=0.62
2.3212801489081274
% es.Ey (V/m) @ t=0.62
0.1461621688144238
% es.Ez (V/m) @ t=0.62
0.9384069146918903
% es.tEx (V/m) @ t=0.62
2.321280148908132
% es.tEy (V/m) @ t=0.62
0
% es.tEz (V/m) @ t=0.62
0.9384069146919005
% V (V) @ t=0.62
0.012529525669719117
% es.normE (V/m) @ t=0.64
2.535246641306701
% es.EX (V/m) @ t=0.64
2.3428997368986657
% es.EY (V/m) @ t=0.64
0.14752347239399888
% es.EZ (V/m) @ t=0.64
0.9471469070771383
% es.tEX (V/m) @ t=0.64
2.342899736898673
% es.tEY (V/m) @ t=0.64
0
% es.tEZ (V/m) @ t=0.64
0.9471469070771334
% es.Ex (V/m) @ t=0.64
2.3428997368986657
% es.Ey (V/m) @ t=0.64
0.14752347239399888
% es.Ez (V/m) @ t=0.64
0.9471469070771383
% es.tEx (V/m) @ t=0.64
2.342899736898673
% es.tEy (V/m) @ t=0.64
0
% es.tEz (V/m) @ t=0.64
0.9471469070771334
% V (V) @ t=0.64
0.012646221263234085
% es.normE (V/m) @ t=0.66
2.558641149812482
% es.EX (V/m) @ t=0.66
2.3645193248891783
% es.EY (V/m) @ t=0.66
0.14888477597356686
% es.EZ (V/m) @ t=0.66
0.9558868994623961
% es.tEX (V/m) @ t=0.66
2.3645193248891783
% es.tEY (V/m) @ t=0.66
0
% es.tEZ (V/m) @ t=0.66
0.955886899462393
% es.Ex (V/m) @ t=0.66
2.3645193248891783
% es.Ey (V/m) @ t=0.66
0.14888477597356686
% es.Ez (V/m) @ t=0.66
0.9558868994623961
% es.tEx (V/m) @ t=0.66
2.3645193248891783
% es.tEy (V/m) @ t=0.66
0
% es.tEz (V/m) @ t=0.66
0.955886899462393
% V (V) @ t=0.66
0.012762916856749051
% es.normE (V/m) @ t=0.68
2.5820356583182633
% es.EX (V/m) @ t=0.68
2.3861389128797033
% es.EY (V/m) @ t=0.68
0.15024607955312763
% es.EZ (V/m) @ t=0.68
0.9646268918476268
% es.tEX (V/m) @ t=0.68
2.386138912879705
% es.tEY (V/m) @ t=0.68
0
% es.tEZ (V/m) @ t=0.68
0.9646268918476286
% es.Ex (V/m) @ t=0.68
2.3861389128797033
% es.Ey (V/m) @ t=0.68
0.15024607955312763
% es.Ez (V/m) @ t=0.68
0.9646268918476268
% es.tEx (V/m) @ t=0.68
2.386138912879705
% es.tEy (V/m) @ t=0.68
0
% es.tEz (V/m) @ t=0.68
0.9646268918476286
% V (V) @ t=0.68
0.01287961245026402
% es.normE (V/m) @ t=0.7
2.605430166824049
% es.EX (V/m) @ t=0.7
2.4077585008702282
% es.EY (V/m) @ t=0.7
0.15160738313269362
% es.EZ (V/m) @ t=0.7
0.9733668842328642
% es.tEX (V/m) @ t=0.7
2.407758500870239
% es.tEY (V/m) @ t=0.7
0
% es.tEZ (V/m) @ t=0.7
0.9733668842328624
% es.Ex (V/m) @ t=0.7
2.4077585008702282
% es.Ey (V/m) @ t=0.7
0.15160738313269362
% es.Ez (V/m) @ t=0.7
0.9733668842328642
% es.tEx (V/m) @ t=0.7
2.407758500870239
% es.tEy (V/m) @ t=0.7
0
% es.tEz (V/m) @ t=0.7
0.9733668842328624
% V (V) @ t=0.7
0.012996308043778985
% es.normE (V/m) @ t=0.72
2.62882467532984
% es.EX (V/m) @ t=0.72
2.4293780888607586
% es.EY (V/m) @ t=0.72
0.1529686867122616
% es.EZ (V/m) @ t=0.72
0.9821068766181034
% es.tEX (V/m) @ t=0.72
2.429378088860755
% es.tEY (V/m) @ t=0.72
0
% es.tEZ (V/m) @ t=0.72
0.9821068766181069
% es.Ex (V/m) @ t=0.72
2.4293780888607586
% es.Ey (V/m) @ t=0.72
0.1529686867122616
% es.Ez (V/m) @ t=0.72
0.9821068766181034
% es.tEx (V/m) @ t=0.72
2.429378088860755
% es.tEy (V/m) @ t=0.72
0
% es.tEz (V/m) @ t=0.72
0.9821068766181069
% V (V) @ t=0.72
0.013113003637293952
% es.normE (V/m) @ t=0.74
2.652219183835633
% es.EX (V/m) @ t=0.74
2.4509976768512924
% es.EY (V/m) @ t=0.74
0.15432999029183836
% es.EZ (V/m) @ t=0.74
0.9908468690033416
% es.tEX (V/m) @ t=0.74
2.45099767685128
% es.tEY (V/m) @ t=0.74
0
% es.tEZ (V/m) @ t=0.74
0.9908468690033425
% es.Ex (V/m) @ t=0.74
2.4509976768512924
% es.Ey (V/m) @ t=0.74
0.15432999029183836
% es.Ez (V/m) @ t=0.74
0.9908468690033416
% es.tEx (V/m) @ t=0.74
2.45099767685128
% es.tEy (V/m) @ t=0.74
0
% es.tEz (V/m) @ t=0.74
0.9908468690033425
% V (V) @ t=0.74
0.013229699230808918
% es.normE (V/m) @ t=0.76
2.6756136923414147
% es.EX (V/m) @ t=0.76
2.472617264841813
% es.EY (V/m) @ t=0.76
0.15569129387139402
% es.EZ (V/m) @ t=0.76
0.9995868613885817
% es.tEX (V/m) @ t=0.76
2.472617264841805
% es.tEY (V/m) @ t=0.76
0
% es.tEZ (V/m) @ t=0.76
0.9995868613885808
% es.Ex (V/m) @ t=0.76
2.472617264841813
% es.Ey (V/m) @ t=0.76
0.15569129387139402
% es.Ez (V/m) @ t=0.76
0.9995868613885817
% es.tEx (V/m) @ t=0.76
2.472617264841805
% es.tEy (V/m) @ t=0.76
0
% es.tEz (V/m) @ t=0.76
0.9995868613885808
% V (V) @ t=0.76
0.013346394824323884
% es.normE (V/m) @ t=0.78
2.699008200847204
% es.EX (V/m) @ t=0.78
2.49423685283233
% es.EY (V/m) @ t=0.78
0.15705259745096356
% es.EZ (V/m) @ t=0.78
1.008326853773848
% es.tEX (V/m) @ t=0.78
2.4942368528323406
% es.tEY (V/m) @ t=0.78
0
% es.tEZ (V/m) @ t=0.78
1.0083268537738448
% es.Ex (V/m) @ t=0.78
2.49423685283233
% es.Ey (V/m) @ t=0.78
0.15705259745096356
% es.Ez (V/m) @ t=0.78
1.008326853773848
% es.tEx (V/m) @ t=0.78
2.4942368528323406
% es.tEy (V/m) @ t=0.78
0
% es.tEz (V/m) @ t=0.78
1.0083268537738448
% V (V) @ t=0.78
0.013463090417838854
% es.normE (V/m) @ t=0.8
2.7243812317507934
% es.EX (V/m) @ t=0.8
2.517684854443404
% es.EY (V/m) @ t=0.8
0.15852902929625123
% es.EZ (V/m) @ t=0.8
1.0178060056660305
% es.tEX (V/m) @ t=0.8
2.5176848544434076
% es.tEY (V/m) @ t=0.8
0
% es.tEZ (V/m) @ t=0.8
1.0178060056660376
% es.Ex (V/m) @ t=0.8
2.517684854443404
% es.Ey (V/m) @ t=0.8
0.15852902929625123
% es.Ez (V/m) @ t=0.8
1.0178060056660305
% es.tEx (V/m) @ t=0.8
2.5176848544434076
% es.tEy (V/m) @ t=0.8
0
% es.tEz (V/m) @ t=0.8
1.0178060056660376
% V (V) @ t=0.8
0.013589655197115568
% es.normE (V/m) @ t=0.82
2.7504128645320067
% es.EX (V/m) @ t=0.82
2.5417414903792084
% es.EY (V/m) @ t=0.82
0.16004378453482448
% es.EZ (V/m) @ t=0.82
1.0275312057402828
% es.tEX (V/m) @ t=0.82
2.541741490379211
% es.tEY (V/m) @ t=0.82
0
% es.tEZ (V/m) @ t=0.82
1.027531205740278
% es.Ex (V/m) @ t=0.82
2.5417414903792084
% es.Ey (V/m) @ t=0.82
0.16004378453482448
% es.Ez (V/m) @ t=0.82
1.0275312057402828
% es.tEx (V/m) @ t=0.82
2.541741490379211
% es.tEy (V/m) @ t=0.82
0
% es.tEz (V/m) @ t=0.82
1.027531205740278
% V (V) @ t=0.82
0.013719505187760488
% es.normE (V/m) @ t=0.84
2.7764444973132587
% es.EX (V/m) @ t=0.84
2.56579812631505
% es.EY (V/m) @ t=0.84
0.1615585397733993
% es.EZ (V/m) @ t=0.84
1.0372564058145466
% es.tEX (V/m) @ t=0.84
2.5657981263150393
% es.tEY (V/m) @ t=0.84
0
% es.tEZ (V/m) @ t=0.84
1.0372564058145484
% es.Ex (V/m) @ t=0.84
2.56579812631505
% es.Ey (V/m) @ t=0.84
0.1615585397733993
% es.Ez (V/m) @ t=0.84
1.0372564058145466
% es.tEx (V/m) @ t=0.84
2.5657981263150393
% es.tEy (V/m) @ t=0.84
0
% es.tEz (V/m) @ t=0.84
1.0372564058145484
% V (V) @ t=0.84
0.01384935517840541
% es.normE (V/m) @ t=0.86
2.802476130094503
% es.EX (V/m) @ t=0.86
2.58985476225088
% es.EY (V/m) @ t=0.86
0.16307329501196366
% es.EZ (V/m) @ t=0.86
1.0469816058888224
% es.tEX (V/m) @ t=0.86
2.58985476225088
% es.tEY (V/m) @ t=0.86
0
% es.tEZ (V/m) @ t=0.86
1.0469816058888144
% es.Ex (V/m) @ t=0.86
2.58985476225088
% es.Ey (V/m) @ t=0.86
0.16307329501196366
% es.Ez (V/m) @ t=0.86
1.0469816058888224
% es.tEx (V/m) @ t=0.86
2.58985476225088
% es.tEy (V/m) @ t=0.86
0
% es.tEz (V/m) @ t=0.86
1.0469816058888144
% V (V) @ t=0.86
0.013979205169050327
% es.normE (V/m) @ t=0.88
2.8285077628757227
% es.EX (V/m) @ t=0.88
2.6139113981866844
% es.EY (V/m) @ t=0.88
0.1645880502505208
% es.EZ (V/m) @ t=0.88
1.0567068059630937
% es.tEX (V/m) @ t=0.88
2.613911398186696
% es.tEY (V/m) @ t=0.88
0
% es.tEZ (V/m) @ t=0.88
1.0567068059631
% es.Ex (V/m) @ t=0.88
2.6139113981866844
% es.Ey (V/m) @ t=0.88
0.1645880502505208
% es.Ez (V/m) @ t=0.88
1.0567068059630937
% es.tEx (V/m) @ t=0.88
2.613911398186696
% es.tEy (V/m) @ t=0.88
0
% es.tEz (V/m) @ t=0.88
1.0567068059631
% V (V) @ t=0.88
0.01410905515969525
% es.normE (V/m) @ t=0.9
2.854539395656965
% es.EX (V/m) @ t=0.9
2.6379680341225153
% es.EY (V/m) @ t=0.9
0.16610280548909406
% es.EZ (V/m) @ t=0.9
1.0664320060373607
% es.tEX (V/m) @ t=0.9
2.637968034122512
% es.tEY (V/m) @ t=0.9
0
% es.tEZ (V/m) @ t=0.9
1.0664320060373553
% es.Ex (V/m) @ t=0.9
2.6379680341225153
% es.Ey (V/m) @ t=0.9
0.16610280548909406
% es.Ez (V/m) @ t=0.9
1.0664320060373607
% es.tEx (V/m) @ t=0.9
2.637968034122512
% es.tEy (V/m) @ t=0.9
0
% es.tEz (V/m) @ t=0.9
1.0664320060373553
% V (V) @ t=0.9
0.01423890515034017
% es.normE (V/m) @ t=0.92
2.8805710284381885
% es.EX (V/m) @ t=0.92
2.6620246700583365
% es.EY (V/m) @ t=0.92
0.16761756072766198
% es.EZ (V/m) @ t=0.92
1.0761572061115974
% es.tEX (V/m) @ t=0.92
2.6620246700583294
% es.tEY (V/m) @ t=0.92
0
% es.tEZ (V/m) @ t=0.92
1.0761572061115992
% es.Ex (V/m) @ t=0.92
2.6620246700583365
% es.Ey (V/m) @ t=0.92
0.16761756072766198
% es.Ez (V/m) @ t=0.92
1.0761572061115974
% es.tEx (V/m) @ t=0.92
2.6620246700583294
% es.tEy (V/m) @ t=0.92
0
% es.tEz (V/m) @ t=0.92
1.0761572061115992
% V (V) @ t=0.92
0.014368755140985089
% es.normE (V/m) @ t=0.94
2.906602661219421
% es.EX (V/m) @ t=0.94
2.686081305994154
% es.EY (V/m) @ t=0.94
0.16913231596624223
% es.EZ (V/m) @ t=0.94
1.0858824061858714
% es.tEX (V/m) @ t=0.94
2.686081305994165
% es.tEY (V/m) @ t=0.94
0
% es.tEZ (V/m) @ t=0.94
1.0858824061858696
% es.Ex (V/m) @ t=0.94
2.686081305994154
% es.Ey (V/m) @ t=0.94
0.16913231596624223
% es.Ez (V/m) @ t=0.94
1.0858824061858714
% es.tEx (V/m) @ t=0.94
2.686081305994165
% es.tEy (V/m) @ t=0.94
0
% es.tEz (V/m) @ t=0.94
1.0858824061858696
% V (V) @ t=0.94
0.014498605131630008
% es.normE (V/m) @ t=0.96
2.9326342940006693
% es.EX (V/m) @ t=0.96
2.7101379419299914
% es.EY (V/m) @ t=0.96
0.1706470712048045
% es.EZ (V/m) @ t=0.96
1.0956076062601365
% es.tEX (V/m) @ t=0.96
2.7101379419299967
% es.tEY (V/m) @ t=0.96
0
% es.tEZ (V/m) @ t=0.96
1.0956076062601436
% es.Ex (V/m) @ t=0.96
2.7101379419299914
% es.Ey (V/m) @ t=0.96
0.1706470712048045
% es.Ez (V/m) @ t=0.96
1.0956076062601365
% es.tEx (V/m) @ t=0.96
2.7101379419299967
% es.tEy (V/m) @ t=0.96
0
% es.tEz (V/m) @ t=0.96
1.0956076062601436
% V (V) @ t=0.96
0.01462845512227493
% es.normE (V/m) @ t=0.98
2.9586659267819
% es.EX (V/m) @ t=0.98
2.734194577865809
% es.EY (V/m) @ t=0.98
0.17216182644337252
% es.EZ (V/m) @ t=0.98
1.1053328063344052
% es.tEX (V/m) @ t=0.98
2.734194577865807
% es.tEY (V/m) @ t=0.98
0
% es.tEZ (V/m) @ t=0.98
1.1053328063344017
% es.Ex (V/m) @ t=0.98
2.734194577865809
% es.Ey (V/m) @ t=0.98
0.17216182644337252
% es.Ez (V/m) @ t=0.98
1.1053328063344052
% es.tEx (V/m) @ t=0.98
2.734194577865807
% es.tEy (V/m) @ t=0.98
0
% es.tEz (V/m) @ t=0.98
1.1053328063344017
% V (V) @ t=0.98
0.01475830511291985
% es.normE (V/m) @ t=1
2.984697559563121
% es.EX (V/m) @ t=1
2.7582512138016195
% es.EY (V/m) @ t=1
0.17367658168194577
% es.EZ (V/m) @ t=1
1.1150580064086624
% es.tEX (V/m) @ t=1
2.758251213801623
% es.tEY (V/m) @ t=1
0
% es.tEZ (V/m) @ t=1
1.115058006408666
% es.Ex (V/m) @ t=1
2.7582512138016195
% es.Ey (V/m) @ t=1
0.17367658168194577
% es.Ez (V/m) @ t=1
1.1150580064086624
% es.tEx (V/m) @ t=1
2.758251213801623
% es.tEy (V/m) @ t=1
0
% es.tEz (V/m) @ t=1
1.115058006408666
% V (V) @ t=1
0.014888155103564768
% es.normE (V/m) @ t=1.02
3.0107291923443595
% es.EX (V/m) @ t=1.02
2.7823078497374443
% es.EY (V/m) @ t=1.02
0.1751913369205118
% es.EZ (V/m) @ t=1.02
1.1247832064829355
% es.tEX (V/m) @ t=1.02
2.7823078497374443
% es.tEY (V/m) @ t=1.02
0
% es.tEZ (V/m) @ t=1.02
1.1247832064829337
% es.Ex (V/m) @ t=1.02
2.7823078497374443
% es.Ey (V/m) @ t=1.02
0.1751913369205118
% es.Ez (V/m) @ t=1.02
1.1247832064829355
% es.tEx (V/m) @ t=1.02
2.7823078497374443
% es.tEy (V/m) @ t=1.02
0
% es.tEz (V/m) @ t=1.02
1.1247832064829337
% V (V) @ t=1.02
0.015018005094209688
% es.normE (V/m) @ t=1.04
3.036760825125603
% es.EX (V/m) @ t=1.04
2.8063644856732743
% es.EY (V/m) @ t=1.04
0.17670609215907251
% es.EZ (V/m) @ t=1.04
1.1345084065572069
% es.tEX (V/m) @ t=1.04
2.806364485673278
% es.tEY (V/m) @ t=1.04
0
% es.tEZ (V/m) @ t=1.04
1.134508406557205
% es.Ex (V/m) @ t=1.04
2.8063644856732743
% es.Ey (V/m) @ t=1.04
0.17670609215907251
% es.Ez (V/m) @ t=1.04
1.1345084065572069
% es.tEx (V/m) @ t=1.04
2.806364485673278
% es.tEy (V/m) @ t=1.04
0
% es.tEz (V/m) @ t=1.04