% Model:              1 neuron.mph
% Version:            COMSOL 6.1.0.252
% Date:               Mar 22 2023, 19:56
% Dimension:          0
% Nodes:              14017
% Expressions:        14017
% Description:        Electric field norm, Electric field, X component, Electric field, Y component, Electric field, Z component, Tangential electric field, X component, Tangential electric field, Y component, Tangential electric field, Z component, Electric field, x component, Electric field, y component, Electric field, z component, Tangential electric field, x component, Tangential electric field, y component, Tangential electric field, z component, Electric potential
% Length unit:        mm
% x
1.33
% y
12.2
% z
1
% es.normE (V/m) @ t=0
2.3686697499685367
% es.EX (V/m) @ t=0
0.7311218468498804
% es.EY (V/m) @ t=0
0.17712434622236162
% es.EZ (V/m) @ t=0
2.24602121572735
% es.tEX (V/m) @ t=0
0.7311218468498808
% es.tEY (V/m) @ t=0
0
% es.tEZ (V/m) @ t=0
2.246021215727346
% es.Ex (V/m) @ t=0
0.7311218468498804
% es.Ey (V/m) @ t=0
0.17712434622236162
% es.Ez (V/m) @ t=0
2.24602121572735
% es.tEx (V/m) @ t=0
0.7311218468498808
% es.tEy (V/m) @ t=0
0
% es.tEz (V/m) @ t=0
2.246021215727346
% V (V) @ t=0
0.01107832670288896
% es.normE (V/m) @ t=0.02
2.045848004751731
% es.EX (V/m) @ t=0.02
0.6314785654307884
% es.EY (V/m) @ t=0.02
0.15298438193747943
% es.EZ (V/m) @ t=0.02
1.9399150187680534
% es.tEX (V/m) @ t=0.02
0.6314785654307897
% es.tEY (V/m) @ t=0.02
0
% es.tEZ (V/m) @ t=0.02
1.93991501876806
% es.Ex (V/m) @ t=0.02
0.6314785654307884
% es.Ey (V/m) @ t=0.02
0.15298438193747943
% es.Ez (V/m) @ t=0.02
1.9399150187680534
% es.tEx (V/m) @ t=0.02
0.6314785654307897
% es.tEy (V/m) @ t=0.02
0
% es.tEz (V/m) @ t=0.02
1.93991501876806
% V (V) @ t=0.02
0.009568481097413824
% es.normE (V/m) @ t=0.04
2.0646711703536758
% es.EX (V/m) @ t=0.04
0.6372885886907041
% es.EY (V/m) @ t=0.04
0.15439194204545936
% es.EZ (V/m) @ t=0.04
1.95776353031341
% es.tEX (V/m) @ t=0.04
0.6372885886907085
% es.tEY (V/m) @ t=0.04
0
% es.tEZ (V/m) @ t=0.04
1.957763530313425
% es.Ex (V/m) @ t=0.04
0.6372885886907041
% es.Ey (V/m) @ t=0.04
0.15439194204545936
% es.Ez (V/m) @ t=0.04
1.95776353031341
% es.tEx (V/m) @ t=0.04
0.6372885886907085
% es.tEy (V/m) @ t=0.04
0
% es.tEz (V/m) @ t=0.04
1.957763530313425
% V (V) @ t=0.04
0.009656517619991967
% es.normE (V/m) @ t=0.06
2.0836417511814633
% es.EX (V/m) @ t=0.06
0.6431441125054727
% es.EY (V/m) @ t=0.06
0.15581052824788022
% es.EZ (V/m) @ t=0.06
1.9757518241630385
% es.tEX (V/m) @ t=0.06
0.6431441125054747
% es.tEY (V/m) @ t=0.06
0
% es.tEZ (V/m) @ t=0.06
1.9757518241630443
% es.Ex (V/m) @ t=0.06
0.6431441125054727
% es.Ey (V/m) @ t=0.06
0.15581052824788022
% es.Ez (V/m) @ t=0.06
1.9757518241630385
% es.tEx (V/m) @ t=0.06
0.6431441125054747
% es.tEy (V/m) @ t=0.06
0
% es.tEz (V/m) @ t=0.06
1.9757518241630443
% V (V) @ t=0.06
0.009745243812425518
% es.normE (V/m) @ t=0.08
2.102953344574306
% es.EX (V/m) @ t=0.08
0.6491048953048452
% es.EY (V/m) @ t=0.08
0.15725461242123806
% es.EZ (V/m) @ t=0.08
1.9940634730119
% es.tEX (V/m) @ t=0.08
0.6491048953048519
% es.tEY (V/m) @ t=0.08
0
% es.tEZ (V/m) @ t=0.08
1.994063473011904
% es.Ex (V/m) @ t=0.08
0.6491048953048452
% es.Ey (V/m) @ t=0.08
0.15725461242123806
% es.Ez (V/m) @ t=0.08
1.9940634730119
% es.tEx (V/m) @ t=0.08
0.6491048953048519
% es.tEy (V/m) @ t=0.08
0
% es.tEz (V/m) @ t=0.08
1.994063473011904
% V (V) @ t=0.08
0.009835564765663645
% es.normE (V/m) @ t=0.1
2.1223948627636826
% es.EX (V/m) @ t=0.1
0.6551057814715487
% es.EY (V/m) @ t=0.1
0.15870841124745338
% es.EZ (V/m) @ t=0.1
2.012498319176015
% es.tEX (V/m) @ t=0.1
0.6551057814715548
% es.tEY (V/m) @ t=0.1
0
% es.tEZ (V/m) @ t=0.1
2.012498319176018
% es.Ex (V/m) @ t=0.1
0.6551057814715487
% es.Ey (V/m) @ t=0.1
0.15870841124745338
% es.Ez (V/m) @ t=0.1
2.012498319176015
% es.tEx (V/m) @ t=0.1
0.6551057814715548
% es.tEy (V/m) @ t=0.1
0
% es.tEz (V/m) @ t=0.1
2.012498319176018
% V (V) @ t=0.1
0.0099264933181349
% es.normE (V/m) @ t=0.12
2.1418363809530367
% es.EX (V/m) @ t=0.12
0.6611066676382372
% es.EY (V/m) @ t=0.12
0.1601622100736635
% es.EZ (V/m) @ t=0.12
2.0309331653401115
% es.tEX (V/m) @ t=0.12
0.6611066676382436
% es.tEY (V/m) @ t=0.12
0
% es.tEZ (V/m) @ t=0.12
2.0309331653401035
% es.Ex (V/m) @ t=0.12
0.6611066676382372
% es.Ey (V/m) @ t=0.12
0.1601622100736635
% es.Ez (V/m) @ t=0.12
2.0309331653401115
% es.tEx (V/m) @ t=0.12
0.6611066676382436
% es.tEy (V/m) @ t=0.12
0
% es.tEz (V/m) @ t=0.12
2.0309331653401035
% V (V) @ t=0.12
0.01001742187060616
% es.normE (V/m) @ t=0.14
2.161732970237146
% es.EX (V/m) @ t=0.14
0.6672480208927573
% es.EY (V/m) @ t=0.14
0.16165002993704514
% es.EZ (V/m) @ t=0.14
2.049799518820117
% es.tEX (V/m) @ t=0.14
0.6672480208927638
% es.tEY (V/m) @ t=0.14
0
% es.tEZ (V/m) @ t=0.14
2.0497995188201106
% es.Ex (V/m) @ t=0.14
0.6672480208927573
% es.Ey (V/m) @ t=0.14
0.16165002993704514
% es.Ez (V/m) @ t=0.14
2.049799518820117
% es.tEx (V/m) @ t=0.14
0.6672480208927638
% es.tEy (V/m) @ t=0.14
0
% es.tEz (V/m) @ t=0.14
2.0497995188201106
% V (V) @ t=0.14
0.01011047819746348
% es.normE (V/m) @ t=0.16
2.1821685313020867
% es.EX (V/m) @ t=0.16
0.6735557389139104
% es.EY (V/m) @ t=0.16
0.16317814323853552
% es.EZ (V/m) @ t=0.16
2.0691769358881564
% es.tEX (V/m) @ t=0.16
0.6735557389139188
% es.tEY (V/m) @ t=0.16
0
% es.tEZ (V/m) @ t=0.16
2.0691769358881764
% es.Ex (V/m) @ t=0.16
0.6735557389139104
% es.Ey (V/m) @ t=0.16
0.16317814323853552
% es.Ez (V/m) @ t=0.16
2.0691769358881564
% es.tEx (V/m) @ t=0.16
0.6735557389139188
% es.tEy (V/m) @ t=0.16
0
% es.tEz (V/m) @ t=0.16
2.0691769358881764
% V (V) @ t=0.16
0.010206054592862501
% es.normE (V/m) @ t=0.18
2.2026040923670465
% es.EX (V/m) @ t=0.18
0.679863456935058
% es.EY (V/m) @ t=0.18
0.16470625654000537
% es.EZ (V/m) @ t=0.18
2.08855435295622
% es.tEX (V/m) @ t=0.18
0.6798634569350668
% es.tEY (V/m) @ t=0.18
0
% es.tEZ (V/m) @ t=0.18
2.08855435295623
% es.Ex (V/m) @ t=0.18
0.679863456935058
% es.Ey (V/m) @ t=0.18
0.16470625654000537
% es.Ez (V/m) @ t=0.18
2.08855435295622
% es.tEx (V/m) @ t=0.18
0.6798634569350668
% es.tEy (V/m) @ t=0.18
0
% es.tEz (V/m) @ t=0.18
2.08855435295623
% V (V) @ t=0.18
0.010301630988261526
% es.normE (V/m) @ t=0.2
2.223039653432007
% es.EX (V/m) @ t=0.2
0.6861711749562244
% es.EY (V/m) @ t=0.2
0.16623436984149087
% es.EZ (V/m) @ t=0.2
2.107931770024277
% es.tEX (V/m) @ t=0.2
0.6861711749562218
% es.tEY (V/m) @ t=0.2
0
% es.tEZ (V/m) @ t=0.2
2.1079317700242903
% es.Ex (V/m) @ t=0.2
0.6861711749562244
% es.Ey (V/m) @ t=0.2
0.16623436984149087
% es.Ez (V/m) @ t=0.2
2.107931770024277
% es.tEx (V/m) @ t=0.2
0.6861711749562218
% es.tEy (V/m) @ t=0.2
0
% es.tEz (V/m) @ t=0.2
2.1079317700242903
% V (V) @ t=0.2
0.010397207383660546
% es.normE (V/m) @ t=0.22
2.243475214496958
% es.EX (V/m) @ t=0.22
0.692478892977374
% es.EY (V/m) @ t=0.22
0.16776248314297104
% es.EZ (V/m) @ t=0.22
2.12730918709233
% es.tEX (V/m) @ t=0.22
0.6924788929773698
% es.tEY (V/m) @ t=0.22
0
% es.tEZ (V/m) @ t=0.22
2.127309187092342
% es.Ex (V/m) @ t=0.22
0.692478892977374
% es.Ey (V/m) @ t=0.22
0.16776248314297104
% es.Ez (V/m) @ t=0.22
2.12730918709233
% es.tEx (V/m) @ t=0.22
0.6924788929773698
% es.tEy (V/m) @ t=0.22
0
% es.tEz (V/m) @ t=0.22
2.127309187092342
% V (V) @ t=0.22
0.01049278377905957
% es.normE (V/m) @ t=0.24
2.2639107755619166
% es.EX (V/m) @ t=0.24
0.6987866109985267
% es.EY (V/m) @ t=0.24
0.16929059644443534
% es.EZ (V/m) @ t=0.24
2.14668660416039
% es.tEX (V/m) @ t=0.24
0.6987866109985248
% es.tEY (V/m) @ t=0.24
0
% es.tEZ (V/m) @ t=0.24
2.1466866041603954
% es.Ex (V/m) @ t=0.24
0.6987866109985267
% es.Ey (V/m) @ t=0.24
0.16929059644443534
% es.Ez (V/m) @ t=0.24
2.14668660416039
% es.tEx (V/m) @ t=0.24
0.6987866109985248
% es.tEy (V/m) @ t=0.24
0
% es.tEz (V/m) @ t=0.24
2.1466866041603954
% V (V) @ t=0.24
0.010588360174458595
% es.normE (V/m) @ t=0.26
2.2843463366268715
% es.EX (V/m) @ t=0.26
0.7050943290196799
% es.EY (V/m) @ t=0.26
0.1708187097459296
% es.EZ (V/m) @ t=0.26
2.166064021228444
% es.tEX (V/m) @ t=0.26
0.7050943290196798
% es.tEY (V/m) @ t=0.26
0
% es.tEZ (V/m) @ t=0.26
2.166064021228447
% es.Ex (V/m) @ t=0.26
0.7050943290196799
% es.Ey (V/m) @ t=0.26
0.1708187097459296
% es.Ez (V/m) @ t=0.26
2.166064021228444
% es.tEx (V/m) @ t=0.26
0.7050943290196798
% es.tEy (V/m) @ t=0.26
0
% es.tEz (V/m) @ t=0.26
2.166064021228447
% V (V) @ t=0.26
0.010683936569857614
% es.normE (V/m) @ t=0.28
2.3068390192067776
% es.EX (V/m) @ t=0.28
0.712037077471402
% es.EY (V/m) @ t=0.28
0.17250046652051043
% es.EZ (V/m) @ t=0.28
2.187392033762188
% es.tEX (V/m) @ t=0.28
0.7120370774714075
% es.tEY (V/m) @ t=0.28
0
% es.tEZ (V/m) @ t=0.28
2.1873920337621993
% es.Ex (V/m) @ t=0.28
0.712037077471402
% es.Ey (V/m) @ t=0.28
0.17250046652051043
% es.Ez (V/m) @ t=0.28
2.187392033762188
% es.tEx (V/m) @ t=0.28
0.7120370774714075
% es.tEy (V/m) @ t=0.28
0
% es.tEz (V/m) @ t=0.28
2.1873920337621993
% V (V) @ t=0.28
0.010789120760644193
% es.normE (V/m) @ t=0.3
2.329498096878389
% es.EX (V/m) @ t=0.3
0.7190311918467859
% es.EY (V/m) @ t=0.3
0.17419465110733412
% es.EZ (V/m) @ t=0.3
2.2088778247786207
% es.tEX (V/m) @ t=0.3
0.7190311918467884
% es.tEY (V/m) @ t=0.3
0
% es.tEZ (V/m) @ t=0.3
2.2088778247786127
% es.Ex (V/m) @ t=0.3
0.7190311918467859
% es.Ey (V/m) @ t=0.3
0.17419465110733412
% es.Ez (V/m) @ t=0.3
2.2088778247786207
% es.tEx (V/m) @ t=0.3
0.7190311918467884
% es.tEy (V/m) @ t=0.3
0
% es.tEz (V/m) @ t=0.3
2.2088778247786127
% V (V) @ t=0.3
0.010895082100462933
% es.normE (V/m) @ t=0.32
2.3521571745500145
% es.EX (V/m) @ t=0.32
0.7260253062221663
% es.EY (V/m) @ t=0.32
0.1758888356940831
% es.EZ (V/m) @ t=0.32
2.2303636157950466
% es.tEX (V/m) @ t=0.32
0.7260253062221764
% es.tEY (V/m) @ t=0.32
0
% es.tEZ (V/m) @ t=0.32
2.23036361579506
% es.Ex (V/m) @ t=0.32
0.7260253062221663
% es.Ey (V/m) @ t=0.32
0.1758888356940831
% es.Ez (V/m) @ t=0.32
2.2303636157950466
% es.tEx (V/m) @ t=0.32
0.7260253062221764
% es.tEy (V/m) @ t=0.32
0
% es.tEz (V/m) @ t=0.32
2.23036361579506
% V (V) @ t=0.32
0.011001043440281676
% es.normE (V/m) @ t=0.34
2.3748162522216987
% es.EX (V/m) @ t=0.34
0.7330194205975589
% es.EY (V/m) @ t=0.34
0.1775830202808628
% es.EZ (V/m) @ t=0.34
2.251849406811501
% es.tEX (V/m) @ t=0.34
0.7330194205975573
% es.tEY (V/m) @ t=0.34
0
% es.tEZ (V/m) @ t=0.34
2.251849406811509
% es.Ex (V/m) @ t=0.34
0.7330194205975589
% es.Ey (V/m) @ t=0.34
0.1775830202808628
% es.Ez (V/m) @ t=0.34
2.251849406811501
% es.tEx (V/m) @ t=0.34
0.7330194205975573
% es.tEy (V/m) @ t=0.34
0
% es.tEz (V/m) @ t=0.34
2.251849406811509
% V (V) @ t=0.34
0.011107004780100418
% es.normE (V/m) @ t=0.36
2.3974753298933535
% es.EX (V/m) @ t=0.36
0.7400135349729385
% es.EY (V/m) @ t=0.36
0.17927720486767051
% es.EZ (V/m) @ t=0.36
2.2733351978279
% es.tEX (V/m) @ t=0.36
0.7400135349729382
% es.tEY (V/m) @ t=0.36
0
% es.tEZ (V/m) @ t=0.36
2.2733351978279153
% es.Ex (V/m) @ t=0.36
0.7400135349729385
% es.Ey (V/m) @ t=0.36
0.17927720486767051
% es.Ez (V/m) @ t=0.36
2.2733351978279
% es.tEx (V/m) @ t=0.36
0.7400135349729382
% es.tEy (V/m) @ t=0.36
0
% es.tEz (V/m) @ t=0.36
2.2733351978279153
% V (V) @ t=0.36
0.011212966119919161
% es.normE (V/m) @ t=0.38
2.4201344075650866
% es.EX (V/m) @ t=0.38
0.7470076493483234
% es.EY (V/m) @ t=0.38
0.18097138945443048
% es.EZ (V/m) @ t=0.38
2.2948209888443576
% es.tEX (V/m) @ t=0.38
0.7470076493483191
% es.tEY (V/m) @ t=0.38
0
% es.tEZ (V/m) @ t=0.38
2.2948209888443625
% es.Ex (V/m) @ t=0.38
0.7470076493483234
% es.Ey (V/m) @ t=0.38
0.18097138945443048
% es.Ez (V/m) @ t=0.38
2.2948209888443576
% es.tEx (V/m) @ t=0.38
0.7470076493483191
% es.tEy (V/m) @ t=0.38
0
% es.tEz (V/m) @ t=0.38
2.2948209888443625
% V (V) @ t=0.38
0.011318927459737903
% es.normE (V/m) @ t=0.4
2.442793485236803
% es.EX (V/m) @ t=0.4
0.7540017637237049
% es.EY (V/m) @ t=0.4
0.18266557404121697
% es.EZ (V/m) @ t=0.4
2.3163067798607715
% es.tEX (V/m) @ t=0.4
0.7540017637237142
% es.tEY (V/m) @ t=0.4
0
% es.tEZ (V/m) @ t=0.4
2.3163067798607972
% es.Ex (V/m) @ t=0.4
0.7540017637237049
% es.Ey (V/m) @ t=0.4
0.18266557404121697
% es.Ez (V/m) @ t=0.4
2.3163067798607715
% es.tEx (V/m) @ t=0.4
0.7540017637237142
% es.tEy (V/m) @ t=0.4
0
% es.tEz (V/m) @ t=0.4
2.3163067798607972
% V (V) @ t=0.4
0.011424888799556646
% es.normE (V/m) @ t=0.42
2.4654525629085695
% es.EX (V/m) @ t=0.42
0.7609958780990889
% es.EY (V/m) @ t=0.42
0.18435975862799614
% es.EZ (V/m) @ t=0.42
2.337792570877214
% es.tEX (V/m) @ t=0.42
0.760995878099088
% es.tEY (V/m) @ t=0.42
0
% es.tEZ (V/m) @ t=0.42
2.337792570877216
% es.Ex (V/m) @ t=0.42
0.7609958780990889
% es.Ey (V/m) @ t=0.42
0.18435975862799614
% es.Ez (V/m) @ t=0.42
2.337792570877214
% es.tEx (V/m) @ t=0.42
0.760995878099088
% es.tEy (V/m) @ t=0.42
0
% es.tEz (V/m) @ t=0.42
2.337792570877216
% V (V) @ t=0.42
0.011530850139375388
% es.normE (V/m) @ t=0.44
2.4881116405803727
% es.EX (V/m) @ t=0.44
0.7679899924744787
% es.EY (V/m) @ t=0.44
0.1860539432147793
% es.EZ (V/m) @ t=0.44
2.3592783618936686
% es.tEX (V/m) @ t=0.44
0.7679899924744831
% es.tEY (V/m) @ t=0.44
0
% es.tEZ (V/m) @ t=0.44
2.3592783618936792
% es.Ex (V/m) @ t=0.44
0.7679899924744787
% es.Ey (V/m) @ t=0.44
0.1860539432147793
% es.Ez (V/m) @ t=0.44
2.3592783618936686
% es.tEx (V/m) @ t=0.44
0.7679899924744831
% es.tEy (V/m) @ t=0.44
0
% es.tEz (V/m) @ t=0.44
2.3592783618936792
% V (V) @ t=0.44
0.011636811479194133
% es.normE (V/m) @ t=0.46
2.5107707182521715
% es.EX (V/m) @ t=0.46
0.7749841068498587
% es.EY (V/m) @ t=0.46
0.1877481278015265
% es.EZ (V/m) @ t=0.46
2.3807641529101016
% es.tEX (V/m) @ t=0.46
0.774984106849864
% es.tEY (V/m) @ t=0.46
0
% es.tEZ (V/m) @ t=0.46
2.3807641529100962
% es.Ex (V/m) @ t=0.46
0.7749841068498587
% es.Ey (V/m) @ t=0.46
0.1877481278015265
% es.Ez (V/m) @ t=0.46
2.3807641529101016
% es.tEx (V/m) @ t=0.46
0.774984106849864
% es.tEy (V/m) @ t=0.46
0
% es.tEz (V/m) @ t=0.46
2.3807641529100962
% V (V) @ t=0.46
0.011742772819012873
% es.normE (V/m) @ t=0.48
2.5334297959239995
% es.EX (V/m) @ t=0.48
0.7819782212252493
% es.EY (V/m) @ t=0.48
0.1894423123883312
% es.EZ (V/m) @ t=0.48
2.4022499439265355
% es.tEX (V/m) @ t=0.48
0.781978221225252
% es.tEY (V/m) @ t=0.48
0
% es.tEZ (V/m) @ t=0.48
2.402249943926531
% es.Ex (V/m) @ t=0.48
0.7819782212252493
% es.Ey (V/m) @ t=0.48
0.1894423123883312
% es.Ez (V/m) @ t=0.48
2.4022499439265355
% es.tEx (V/m) @ t=0.48
0.781978221225252
% es.tEy (V/m) @ t=0.48
0
% es.tEz (V/m) @ t=0.48
2.402249943926531
% V (V) @ t=0.48
0.011848734158831618
% es.normE (V/m) @ t=0.5
2.5560888735958356
% es.EX (V/m) @ t=0.5
0.7889723356006206
% es.EY (V/m) @ t=0.5
0.19113649697511126
% es.EZ (V/m) @ t=0.5
2.423735734942964
% es.tEX (V/m) @ t=0.5
0.7889723356006186
% es.tEY (V/m) @ t=0.5
0
% es.tEZ (V/m) @ t=0.5
2.4237357349429782
% es.Ex (V/m) @ t=0.5
0.7889723356006206
% es.Ey (V/m) @ t=0.5
0.19113649697511126
% es.Ez (V/m) @ t=0.5
2.423735734942964
% es.tEx (V/m) @ t=0.5
0.7889723356006186
% es.tEy (V/m) @ t=0.5
0
% es.tEz (V/m) @ t=0.5
2.4237357349429782
% V (V) @ t=0.5
0.01195469549865036
% es.normE (V/m) @ t=0.52
2.578747951267702
% es.EX (V/m) @ t=0.52
0.7959664499760121
% es.EY (V/m) @ t=0.52
0.19283068156189354
% es.EZ (V/m) @ t=0.52
2.445221525959396
% es.tEX (V/m) @ t=0.52
0.7959664499760137
% es.tEY (V/m) @ t=0.52
0
% es.tEZ (V/m) @ t=0.52
2.4452215259593846
% es.Ex (V/m) @ t=0.52
0.7959664499760121
% es.Ey (V/m) @ t=0.52
0.19283068156189354
% es.Ez (V/m) @ t=0.52
2.445221525959396
% es.tEx (V/m) @ t=0.52
0.7959664499760137
% es.tEy (V/m) @ t=0.52
0
% es.tEz (V/m) @ t=0.52
2.4452215259593846
% V (V) @ t=0.52
0.012060656838469103
% es.normE (V/m) @ t=0.54
2.603564509048632
% es.EX (V/m) @ t=0.54
0.8036264928862303
% es.EY (V/m) @ t=0.54
0.1946862206118598
% es.EZ (V/m) @ t=0.54
2.468753084327922
% es.tEX (V/m) @ t=0.54
0.8036264928862309
% es.tEY (V/m) @ t=0.54
0
% es.tEZ (V/m) @ t=0.54
2.4687530843279237
% es.Ex (V/m) @ t=0.54
0.8036264928862303
% es.Ey (V/m) @ t=0.54
0.1946862206118598
% es.Ez (V/m) @ t=0.54
2.468753084327922
% es.tEx (V/m) @ t=0.54
0.8036264928862309
% es.tEy (V/m) @ t=0.54
0
% es.tEz (V/m) @ t=0.54
2.4687530843279237
% V (V) @ t=0.54
0.012176710221175736
% es.normE (V/m) @ t=0.56
2.6287325736938203
% es.EX (V/m) @ t=0.56
0.8113950320231917
% es.EY (V/m) @ t=0.56
0.19656804829416807
% es.EZ (V/m) @ t=0.56
2.4926179487899263
% es.tEX (V/m) @ t=0.56
0.8113950320231922
% es.tEY (V/m) @ t=0.56
0
% es.tEZ (V/m) @ t=0.56
2.4926179487899205
% es.Ex (V/m) @ t=0.56
0.8113950320231917
% es.Ey (V/m) @ t=0.56
0.19656804829416807
% es.Ez (V/m) @ t=0.56
2.4926179487899263
% es.tEx (V/m) @ t=0.56
0.8113950320231922
% es.tEy (V/m) @ t=0.56
0
% es.tEz (V/m) @ t=0.56
2.4926179487899205
% V (V) @ t=0.56
0.012294407847245063
% es.normE (V/m) @ t=0.58
2.653900638339042
% es.EX (V/m) @ t=0.58
0.8191635711601497
% es.EY (V/m) @ t=0.58
0.19844987597651564
% es.EZ (V/m) @ t=0.58
2.51648281325195
% es.tEX (V/m) @ t=0.58
0.8191635711601535
% es.tEY (V/m) @ t=0.58
0
% es.tEZ (V/m) @ t=0.58
2.516482813251944
% es.Ex (V/m) @ t=0.58
0.8191635711601497
% es.Ey (V/m) @ t=0.58
0.19844987597651564
% es.Ez (V/m) @ t=0.58
2.51648281325195
% es.tEx (V/m) @ t=0.58
0.8191635711601535
% es.tEy (V/m) @ t=0.58
0
% es.tEz (V/m) @ t=0.58
2.516482813251944
% V (V) @ t=0.58
0.01241210547331439
% es.normE (V/m) @ t=0.6
2.679068702984258
% es.EX (V/m) @ t=0.6
0.8269321102971041
% es.EY (V/m) @ t=0.6
0.2003317036588449
% es.EZ (V/m) @ t=0.6
2.5403476777139558
% es.tEX (V/m) @ t=0.6
0.8269321102971148
% es.tEY (V/m) @ t=0.6
0
% es.tEZ (V/m) @ t=0.6
2.540347677713955
% es.Ex (V/m) @ t=0.6
0.8269321102971041
% es.Ey (V/m) @ t=0.6
0.2003317036588449
% es.Ez (V/m) @ t=0.6
2.5403476777139558
% es.tEx (V/m) @ t=0.6
0.8269321102971148
% es.tEy (V/m) @ t=0.6
0
% es.tEz (V/m) @ t=0.6
2.540347677713955
% V (V) @ t=0.6
0.012529803099383719
% es.normE (V/m) @ t=0.62
2.704236767629493
% es.EX (V/m) @ t=0.62
0.8347006494340632
% es.EY (V/m) @ t=0.62
0.2022135313411637
% es.EZ (V/m) @ t=0.62
2.564212542175968
% es.tEX (V/m) @ t=0.62
0.834700649434069
% es.tEY (V/m) @ t=0.62
0
% es.tEZ (V/m) @ t=0.62
2.5642125421759783
% es.Ex (V/m) @ t=0.62
0.8347006494340632
% es.Ey (V/m) @ t=0.62
0.2022135313411637
% es.Ez (V/m) @ t=0.62
2.564212542175968
% es.tEx (V/m) @ t=0.62
0.834700649434069
% es.tEy (V/m) @ t=0.62
0
% es.tEz (V/m) @ t=0.62
2.5642125421759783
% V (V) @ t=0.62
0.012647500725453044
% es.normE (V/m) @ t=0.64
2.729404832274742
% es.EX (V/m) @ t=0.64
0.8424691885710283
% es.EY (V/m) @ t=0.64
0.20409535902348996
% es.EZ (V/m) @ t=0.64
2.58807740663798
% es.tEX (V/m) @ t=0.64
0.8424691885710303
% es.tEY (V/m) @ t=0.64
0
% es.tEZ (V/m) @ t=0.64
2.5880774066379892
% es.Ex (V/m) @ t=0.64
0.8424691885710283
% es.Ey (V/m) @ t=0.64
0.20409535902348996
% es.Ez (V/m) @ t=0.64
2.58807740663798
% es.tEx (V/m) @ t=0.64
0.8424691885710303
% es.tEy (V/m) @ t=0.64
0
% es.tEz (V/m) @ t=0.64
2.5880774066379892
% V (V) @ t=0.64
0.012765198351522372
% es.normE (V/m) @ t=0.66
2.7545728969199734
% es.EX (V/m) @ t=0.66
0.8502377277079791
% es.EY (V/m) @ t=0.66
0.20597718670578047
% es.EZ (V/m) @ t=0.66
2.6119422710999673
% es.tEX (V/m) @ t=0.66
0.8502377277079773
% es.tEY (V/m) @ t=0.66
0
% es.tEZ (V/m) @ t=0.66
2.6119422710999682
% es.Ex (V/m) @ t=0.66
0.8502377277079791
% es.Ey (V/m) @ t=0.66
0.20597718670578047
% es.Ez (V/m) @ t=0.66
2.6119422710999673
% es.tEx (V/m) @ t=0.66
0.8502377277079773
% es.tEy (V/m) @ t=0.66
0
% es.tEz (V/m) @ t=0.66
2.6119422710999682
% V (V) @ t=0.66
0.012882895977591697
% es.normE (V/m) @ t=0.68
2.779740961565251
% es.EX (V/m) @ t=0.68
0.8580062668449511
% es.EY (V/m) @ t=0.68
0.20785901438813115
% es.EZ (V/m) @ t=0.68
2.63580713556198
% es.tEX (V/m) @ t=0.68
0.8580062668449457
% es.tEY (V/m) @ t=0.68
0
% es.tEZ (V/m) @ t=0.68
2.6358071355619934
% es.Ex (V/m) @ t=0.68
0.8580062668449511
% es.Ey (V/m) @ t=0.68
0.20785901438813115
% es.Ez (V/m) @ t=0.68
2.63580713556198
% es.tEx (V/m) @ t=0.68
0.8580062668449457
% es.tEy (V/m) @ t=0.68
0
% es.tEz (V/m) @ t=0.68
2.6358071355619934
% V (V) @ t=0.68
0.013000593603661025
% es.normE (V/m) @ t=0.7
2.8049090262105256
% es.EX (V/m) @ t=0.7
0.8657748059819057
% es.EY (V/m) @ t=0.7
0.20974084207047872
% es.EZ (V/m) @ t=0.7
2.659672000023984
% es.tEX (V/m) @ t=0.7
0.8657748059819141
% es.tEY (V/m) @ t=0.7
0
% es.tEZ (V/m) @ t=0.7
2.659672000023992
% es.Ex (V/m) @ t=0.7
0.8657748059819057
% es.Ey (V/m) @ t=0.7
0.20974084207047872
% es.Ez (V/m) @ t=0.7
2.659672000023984
% es.tEx (V/m) @ t=0.7
0.8657748059819141
% es.tEy (V/m) @ t=0.7
0
% es.tEz (V/m) @ t=0.7
2.659672000023992
% V (V) @ t=0.7
0.013118291229730352
% es.normE (V/m) @ t=0.72
2.830077090855827
% es.EX (V/m) @ t=0.72
0.8735433451188681
% es.EY (V/m) @ t=0.72
0.21162266975278343
% es.EZ (V/m) @ t=0.72
2.6835368644860047
% es.tEX (V/m) @ t=0.72
0.8735433451188754
% es.tEY (V/m) @ t=0.72
0
% es.tEZ (V/m) @ t=0.72
2.6835368644860154
% es.Ex (V/m) @ t=0.72
0.8735433451188681
% es.Ey (V/m) @ t=0.72
0.21162266975278343
% es.Ez (V/m) @ t=0.72
2.6835368644860047
% es.tEx (V/m) @ t=0.72
0.8735433451188754
% es.tEy (V/m) @ t=0.72
0
% es.tEz (V/m) @ t=0.72
2.6835368644860154
% V (V) @ t=0.72
0.01323598885579968
% es.normE (V/m) @ t=0.74
2.855245155501131
% es.EX (V/m) @ t=0.74
0.8813118842558272
% es.EY (V/m) @ t=0.74
0.21350449743510613
% es.EZ (V/m) @ t=0.74
2.7074017289480166
% es.tEX (V/m) @ t=0.74
0.8813118842558367
% es.tEY (V/m) @ t=0.74
0
% es.tEZ (V/m) @ t=0.74
2.707401728948014
% es.Ex (V/m) @ t=0.74
0.8813118842558272
% es.Ey (V/m) @ t=0.74
0.21350449743510613
% es.Ez (V/m) @ t=0.74
2.7074017289480166
% es.tEx (V/m) @ t=0.74
0.8813118842558367
% es.tEy (V/m) @ t=0.74
0
% es.tEz (V/m) @ t=0.74
2.707401728948014
% V (V) @ t=0.74
0.013353686481869007
% es.normE (V/m) @ t=0.76
2.880413220146463
% es.EX (V/m) @ t=0.76
0.889080423392784
% es.EY (V/m) @ t=0.76
0.2153863251174175
% es.EZ (V/m) @ t=0.76
2.731266593410049
% es.tEX (V/m) @ t=0.76
0.8890804233927767
% es.tEY (V/m) @ t=0.76
0
% es.tEZ (V/m) @ t=0.76
2.7312665934100337
% es.Ex (V/m) @ t=0.76
0.889080423392784
% es.Ey (V/m) @ t=0.76
0.2153863251174175
% es.Ez (V/m) @ t=0.76
2.731266593410049
% es.tEx (V/m) @ t=0.76
0.8890804233927767
% es.tEy (V/m) @ t=0.76
0
% es.tEz (V/m) @ t=0.76
2.7312665934100337
% V (V) @ t=0.76
0.013471384107938335
% es.normE (V/m) @ t=0.78
2.9055812847917517
% es.EX (V/m) @ t=0.78
0.8968489625297296
% es.EY (V/m) @ t=0.78
0.21726815279975797
% es.EZ (V/m) @ t=0.78
2.755131457872026
% es.tEX (V/m) @ t=0.78
0.8968489625297309
% es.tEY (V/m) @ t=0.78
0
% es.tEZ (V/m) @ t=0.78
2.7551314578720287
% es.Ex (V/m) @ t=0.78
0.8968489625297296
% es.Ey (V/m) @ t=0.78
0.21726815279975797
% es.Ez (V/m) @ t=0.78
2.755131457872026
% es.tEx (V/m) @ t=0.78
0.8968489625297309
% es.tEy (V/m) @ t=0.78
0
% es.tEz (V/m) @ t=0.78
2.7551314578720287
% V (V) @ t=0.78
0.013589081734007658
% es.normE (V/m) @ t=0.8
2.9329996725673526
% es.EX (V/m) @ t=0.8
0.9053121372061907
% es.EY (V/m) @ t=0.8
0.21931814480255252
% es.EZ (V/m) @ t=0.8
2.7811301193607756
% es.tEX (V/m) @ t=0.8
0.9053121372061952
% es.tEY (V/m) @ t=0.8
0
% es.tEZ (V/m) @ t=0.8
2.7811301193607747
% es.Ex (V/m) @ t=0.8
0.9053121372061907
% es.Ey (V/m) @ t=0.8
0.21931814480255252
% es.Ez (V/m) @ t=0.8
2.7811301193607756
% es.tEx (V/m) @ t=0.8
0.9053121372061952
% es.tEy (V/m) @ t=0.8
0
% es.tEz (V/m) @ t=0.8
2.7811301193607747
% V (V) @ t=0.8
0.013717296159852108
% es.normE (V/m) @ t=0.82
2.960999629085882
% es.EX (V/m) @ t=0.82
0.9139548320200237
% es.EY (V/m) @ t=0.82
0.22141159683607947
% es.EZ (V/m) @ t=0.82
2.8076802348330654
% es.tEX (V/m) @ t=0.82
0.9139548320200248
% es.tEY (V/m) @ t=0.82
0
% es.tEZ (V/m) @ t=0.82
2.807680234833068
% es.Ex (V/m) @ t=0.82
0.9139548320200237
% es.Ey (V/m) @ t=0.82
0.22141159683607947
% es.Ez (V/m) @ t=0.82
2.8076802348330654
% es.tEx (V/m) @ t=0.82
0.9139548320200248
% es.tEy (V/m) @ t=0.82
0
% es.tEz (V/m) @ t=0.82
2.807680234833068
% V (V) @ t=0.82
0.013848228525152752
% es.normE (V/m) @ t=0.84
2.988999585604481
% es.EX (V/m) @ t=0.84
0.9225975268338804
% es.EY (V/m) @ t=0.84
0.22350504886964861
% es.EZ (V/m) @ t=0.84
2.834230350305381
% es.tEX (V/m) @ t=0.84
0.9225975268338829
% es.tEY (V/m) @ t=0.84
0
% es.tEZ (V/m) @ t=0.84
2.834230350305379
% es.Ex (V/m) @ t=0.84
0.9225975268338804
% es.Ey (V/m) @ t=0.84
0.22350504886964861
% es.Ez (V/m) @ t=0.84
2.834230350305381
% es.tEx (V/m) @ t=0.84
0.9225975268338829
% es.tEy (V/m) @ t=0.84
0
% es.tEz (V/m) @ t=0.84
2.834230350305379
% V (V) @ t=0.84
0.013979160890453392
% es.normE (V/m) @ t=0.86
3.0169995421230853
% es.EX (V/m) @ t=0.86
0.93124022164771
% es.EY (V/m) @ t=0.86
0.22559850090320044
% es.EZ (V/m) @ t=0.86
2.860780465777676
% es.tEX (V/m) @ t=0.86
0.9312402216477125
% es.tEY (V/m) @ t=0.86
0
% es.tEZ (V/m) @ t=0.86
2.860780465777683
% es.Ex (V/m) @ t=0.86
0.93124022164771
% es.Ey (V/m) @ t=0.86
0.22559850090320044
% es.Ez (V/m) @ t=0.86
2.860780465777676
% es.tEx (V/m) @ t=0.86
0.9312402216477125
% es.tEy (V/m) @ t=0.86
0
% es.tEz (V/m) @ t=0.86
2.860780465777683
% V (V) @ t=0.86
0.014110093255754037
% es.normE (V/m) @ t=0.88
3.04499949864175
% es.EX (V/m) @ t=0.88
0.939882916461557
% es.EY (V/m) @ t=0.88
0.2276919529367729
% es.EZ (V/m) @ t=0.88
2.8873305812499934
% es.tEX (V/m) @ t=0.88
0.9398829164615563
% es.tEY (V/m) @ t=0.88
0
% es.tEZ (V/m) @ t=0.88
2.8873305812499943
% es.Ex (V/m) @ t=0.88
0.939882916461557
% es.Ey (V/m) @ t=0.88
0.2276919529367729
% es.Ez (V/m) @ t=0.88
2.8873305812499934
% es.tEx (V/m) @ t=0.88
0.9398829164615563
% es.tEy (V/m) @ t=0.88
0
% es.tEz (V/m) @ t=0.88
2.8873305812499943
% V (V) @ t=0.88
0.01424102562105468
% es.normE (V/m) @ t=0.9
3.072999455160424
% es.EX (V/m) @ t=0.9
0.9485256112753881
% es.EY (V/m) @ t=0.9
0.22978540497029631
% es.EZ (V/m) @ t=0.9
2.9138806967222948
% es.tEX (V/m) @ t=0.9
0.9485256112754001
% es.tEY (V/m) @ t=0.9
0
% es.tEZ (V/m) @ t=0.9
2.913880696722302
% es.Ex (V/m) @ t=0.9
0.9485256112753881
% es.Ey (V/m) @ t=0.9
0.22978540497029631
% es.Ez (V/m) @ t=0.9
2.9138806967222948
% es.tEx (V/m) @ t=0.9
0.9485256112754001
% es.tEy (V/m) @ t=0.9
0
% es.tEz (V/m) @ t=0.9
2.913880696722302
% V (V) @ t=0.9
0.014371957986355325
% es.normE (V/m) @ t=0.92
3.1009994116791377
% es.EX (V/m) @ t=0.92
0.9571683060892302
% es.EY (V/m) @ t=0.92
0.23187885700387612
% es.EZ (V/m) @ t=0.92
2.940430812194598
% es.tEX (V/m) @ t=0.92
0.957168306089244
% es.tEY (V/m) @ t=0.92
0
% es.tEZ (V/m) @ t=0.92
2.940430812194599
% es.Ex (V/m) @ t=0.92
0.9571683060892302
% es.Ey (V/m) @ t=0.92
0.23187885700387612
% es.Ez (V/m) @ t=0.92
2.940430812194598
% es.tEx (V/m) @ t=0.92
0.957168306089244
% es.tEy (V/m) @ t=0.92
0
% es.tEz (V/m) @ t=0.92
2.940430812194599
% V (V) @ t=0.92
0.01450289035165597
% es.normE (V/m) @ t=0.94
3.128999368197902
% es.EX (V/m) @ t=0.94
0.9658110009030632
% es.EY (V/m) @ t=0.94
0.23397230903738886
% es.EZ (V/m) @ t=0.94
2.9669809276669294
% es.tEX (V/m) @ t=0.94
0.9658110009030594
% es.tEY (V/m) @ t=0.94
0
% es.tEZ (V/m) @ t=0.94
2.9669809276669348
% es.Ex (V/m) @ t=0.94
0.9658110009030632
% es.Ey (V/m) @ t=0.94
0.23397230903738886
% es.Ez (V/m) @ t=0.94
2.9669809276669294
% es.tEx (V/m) @ t=0.94
0.9658110009030594
% es.tEy (V/m) @ t=0.94
0
% es.tEz (V/m) @ t=0.94
2.9669809276669348
% V (V) @ t=0.94
0.014633822716956613
% es.normE (V/m) @ t=0.96
3.1569993247166703
% es.EX (V/m) @ t=0.96
0.9744536957169192
% es.EY (V/m) @ t=0.96
0.23606576107093646
% es.EZ (V/m) @ t=0.96
2.9935310431392246
% es.tEX (V/m) @ t=0.96
0.9744536957169174
% es.tEY (V/m) @ t=0.96
0
% es.tEZ (V/m) @ t=0.96
2.9935310431392317
% es.Ex (V/m) @ t=0.96
0.9744536957169192
% es.Ey (V/m) @ t=0.96
0.23606576107093646
% es.Ez (V/m) @ t=0.96
2.9935310431392246
% es.tEx (V/m) @ t=0.96
0.9744536957169174
% es.tEy (V/m) @ t=0.96
0
% es.tEz (V/m) @ t=0.96
2.9935310431392317
% V (V) @ t=0.96
0.014764755082257257
% es.normE (V/m) @ t=0.98
3.184999281235487
% es.EX (V/m) @ t=0.98
0.9830963905307433
% es.EY (V/m) @ t=0.98
0.2381592131045096
% es.EZ (V/m) @ t=0.98
3.020081158611548
% es.tEX (V/m) @ t=0.98
0.983096390530747
% es.tEY (V/m) @ t=0.98
0
% es.tEZ (V/m) @ t=0.98
3.0200811586115535
% es.Ex (V/m) @ t=0.98
0.9830963905307433
% es.Ey (V/m) @ t=0.98
0.2381592131045096
% es.Ez (V/m) @ t=0.98
3.020081158611548
% es.tEx (V/m) @ t=0.98
0.983096390530747
% es.tEy (V/m) @ t=0.98
0
% es.tEz (V/m) @ t=0.98
3.0200811586115535
% V (V) @ t=0.98
0.014895687447557903
% es.normE (V/m) @ t=1
3.2129992377543184
% es.EX (V/m) @ t=1
0.9917390853445833
% es.EY (V/m) @ t=1
0.24025266513802235
% es.EZ (V/m) @ t=1
3.0466312740838575
% es.tEX (V/m) @ t=1
0.9917390853445767
% es.tEY (V/m) @ t=1
0
% es.tEZ (V/m) @ t=1
3.046631274083861
% es.Ex (V/m) @ t=1
0.9917390853445833
% es.Ey (V/m) @ t=1
0.24025266513802235
% es.Ez (V/m) @ t=1
3.0466312740838575
% es.tEx (V/m) @ t=1
0.9917390853445767
% es.tEy (V/m) @ t=1
0
% es.tEz (V/m) @ t=1
3.046631274083861
% V (V) @ t=1
0.015026619812858548
% es.normE (V/m) @ t=1.02
3.2409991942731713
% es.EX (V/m) @ t=1.02
1.0003817801584187
% es.EY (V/m) @ t=1.02
0.24234611717158128
% es.EZ (V/m) @ t=1.02
3.073181389556158
% es.tEX (V/m) @ t=1.02
1.0003817801584205
% es.tEY (V/m) @ t=1.02
0
% es.tEZ (V/m) @ t=1.02
3.0731813895561686
% es.Ex (V/m) @ t=1.02
1.0003817801584187
% es.Ey (V/m) @ t=1.02
0.24234611717158128
% es.Ez (V/m) @ t=1.02
3.073181389556158
% es.tEx (V/m) @ t=1.02
1.0003817801584205
% es.tEy (V/m) @ t=1.02
0
% es.tEz (V/m) @ t=1.02
3.0731813895561686
% V (V) @ t=1.02
0.015157552178159188
% es.normE (V/m) @ t=1.04
3.2689991507920544
% es.EX (V/m) @ t=1.04
1.0090244749722628
% es.EY (V/m) @ t=1.04
0.24443956920513665
% es.EZ (V/m) @ t=1.04
3.09973150502846
% es.tEX (V/m) @ t=1.04
1.0090244749722643
% es.tEY (V/m) @ t=1.04
0
% es.tEZ (V/m) @ t=1.04
3.0997315050284655
% es.Ex (V/m) @ t=1.04
1.0090244749722628
% es.Ey (V/m) @ t=1.04
0.24443956920513665
% es.Ez (V/m) @ t=1.04
3.09973150502846
% es.tEx (V/m) @ t=1.04
1.0090244749722643
% es.tEy (V/m) @ t=1.04
0
% es.tEz (V/m) @ t=1.04
3.0997315050284655
% V (V) @ t=1.04