% Model:              1 neuron.mph
% Version:            COMSOL 6.1.0.252
% Date:               Mar 22 2023, 19:50
% Dimension:          0
% Nodes:              14017
% Expressions:        14017
% Description:        Electric field norm, Electric field, X component, Electric field, Y component, Electric field, Z component, Tangential electric field, X component, Tangential electric field, Y component, Tangential electric field, Z component, Electric field, x component, Electric field, y component, Electric field, z component, Tangential electric field, x component, Tangential electric field, y component, Tangential electric field, z component, Electric potential
% Length unit:        mm
% x
1
% y
12.2
% z
1.6599999999999997
% es.normE (V/m) @ t=0
2.4157413620403743
% es.EX (V/m) @ t=0
2.1625950804938388
% es.EY (V/m) @ t=0
0.08320710991515454
% es.EZ (V/m) @ t=0
-1.0733430691808947
% es.tEX (V/m) @ t=0
2.162595080493844
% es.tEY (V/m) @ t=0
0
% es.tEZ (V/m) @ t=0
-1.0733430691808792
% es.Ex (V/m) @ t=0
2.1625950804938388
% es.Ey (V/m) @ t=0
0.08320710991515454
% es.Ez (V/m) @ t=0
-1.0733430691808947
% es.tEx (V/m) @ t=0
2.162595080493844
% es.tEy (V/m) @ t=0
0
% es.tEz (V/m) @ t=0
-1.0733430691808792
% V (V) @ t=0
0.010960195329172012
% es.normE (V/m) @ t=0.02
2.0865114350728478
% es.EX (V/m) @ t=0.02
1.8678652590024973
% es.EY (V/m) @ t=0.02
0.07186720782189646
% es.EZ (V/m) @ t=0.02
-0.9270622355365385
% es.tEX (V/m) @ t=0.02
1.8678652590024898
% es.tEY (V/m) @ t=0.02
0
% es.tEZ (V/m) @ t=0.02
-0.9270622355365319
% es.Ex (V/m) @ t=0.02
1.8678652590024973
% es.Ey (V/m) @ t=0.02
0.07186720782189646
% es.Ez (V/m) @ t=0.02
-0.9270622355365385
% es.tEx (V/m) @ t=0.02
1.8678652590024898
% es.tEy (V/m) @ t=0.02
0
% es.tEz (V/m) @ t=0.02
-0.9270622355365319
% V (V) @ t=0.02
0.009466482314113097
% es.normE (V/m) @ t=0.04
2.1057158870926305
% es.EX (V/m) @ t=0.04
1.8850572705818847
% es.EY (V/m) @ t=0.04
0.07252868061074244
% es.EZ (V/m) @ t=0.04
-0.9355950055442059
% es.tEX (V/m) @ t=0.04
1.885057270581874
% es.tEY (V/m) @ t=0.04
0
% es.tEZ (V/m) @ t=0.04
-0.9355950055442079
% es.Ex (V/m) @ t=0.04
1.8850572705818847
% es.Ey (V/m) @ t=0.04
0.07252868061074244
% es.Ez (V/m) @ t=0.04
-0.9355950055442059
% es.tEx (V/m) @ t=0.04
1.885057270581874
% es.tEy (V/m) @ t=0.04
0
% es.tEz (V/m) @ t=0.04
-0.9355950055442079
% V (V) @ t=0.04
0.009553612725916904
% es.normE (V/m) @ t=0.06
2.1250713465697832
% es.EX (V/m) @ t=0.06
1.9023844654882596
% es.EY (V/m) @ t=0.06
0.07319535435509644
% es.EZ (V/m) @ t=0.06
-0.9441948700378548
% es.tEX (V/m) @ t=0.06
1.902384465488261
% es.tEY (V/m) @ t=0.06
0
% es.tEZ (V/m) @ t=0.06
-0.9441948700378546
% es.Ex (V/m) @ t=0.06
1.9023844654882596
% es.Ey (V/m) @ t=0.06
0.07319535435509644
% es.Ez (V/m) @ t=0.06
-0.9441948700378548
% es.tEx (V/m) @ t=0.06
1.902384465488261
% es.tEy (V/m) @ t=0.06
0
% es.tEz (V/m) @ t=0.06
-0.9441948700378546
% V (V) @ t=0.06
0.009641428266630605
% es.normE (V/m) @ t=0.08
2.1447734214719
% es.EX (V/m) @ t=0.08
1.9200219538835293
% es.EY (V/m) @ t=0.08
0.07387396689770773
% es.EZ (V/m) @ t=0.08
-0.95294873994388
% es.tEX (V/m) @ t=0.08
1.9200219538835341
% es.tEY (V/m) @ t=0.08
0
% es.tEZ (V/m) @ t=0.08
-0.9529487399438707
% es.Ex (V/m) @ t=0.08
1.9200219538835293
% es.Ey (V/m) @ t=0.08
0.07387396689770773
% es.Ez (V/m) @ t=0.08
-0.95294873994388
% es.tEx (V/m) @ t=0.08
1.9200219538835341
% es.tEy (V/m) @ t=0.08
0
% es.tEz (V/m) @ t=0.08
-0.9529487399438707
% V (V) @ t=0.08
0.009730816396136165
% es.normE (V/m) @ t=0.1
2.1646100197157625
% es.EX (V/m) @ t=0.1
1.9377798688785473
% es.EY (V/m) @ t=0.1
0.07455721295317735
% es.EZ (V/m) @ t=0.1
-0.9617623801925606
% es.tEX (V/m) @ t=0.1
1.9377798688785397
% es.tEY (V/m) @ t=0.1
0
% es.tEZ (V/m) @ t=0.1
-0.9617623801925603
% es.Ex (V/m) @ t=0.1
1.9377798688785473
% es.Ey (V/m) @ t=0.1
0.07455721295317735
% es.Ez (V/m) @ t=0.1
-0.9617623801925606
% es.tEx (V/m) @ t=0.1
1.9377798688785397
% es.tEy (V/m) @ t=0.1
0
% es.tEz (V/m) @ t=0.1
-0.9617623801925603
% V (V) @ t=0.1
0.009820814855950905
% es.normE (V/m) @ t=0.12
2.184446617959611
% es.EX (V/m) @ t=0.12
1.955537783873552
% es.EY (V/m) @ t=0.12
0.0752404590086514
% es.EZ (V/m) @ t=0.12
-0.970576020441234
% es.tEX (V/m) @ t=0.12
1.9555377838735524
% es.tEY (V/m) @ t=0.12
0
% es.tEZ (V/m) @ t=0.12
-0.9705760204412215
% es.Ex (V/m) @ t=0.12
1.955537783873552
% es.Ey (V/m) @ t=0.12
0.0752404590086514
% es.Ez (V/m) @ t=0.12
-0.970576020441234
% es.tEx (V/m) @ t=0.12
1.9555377838735524
% es.tEy (V/m) @ t=0.12
0
% es.tEz (V/m) @ t=0.12
-0.9705760204412215
% V (V) @ t=0.12
0.009910813315765644
% es.normE (V/m) @ t=0.14
2.2047406845243613
% es.EX (V/m) @ t=0.14
1.9737052289482029
% es.EY (V/m) @ t=0.14
0.07593946203964913
% es.EZ (V/m) @ t=0.14
-0.9795929193757865
% es.tEX (V/m) @ t=0.14
1.9737052289481998
% es.tEY (V/m) @ t=0.14
0
% es.tEZ (V/m) @ t=0.14
-0.9795929193757758
% es.Ex (V/m) @ t=0.14
1.9737052289482029
% es.Ey (V/m) @ t=0.14
0.07593946203964913
% es.Ez (V/m) @ t=0.14
-0.9795929193757865
% es.tEx (V/m) @ t=0.14
1.9737052289481998
% es.tEy (V/m) @ t=0.14
0
% es.tEz (V/m) @ t=0.14
-0.9795929193757758
% V (V) @ t=0.14
0.01000288730228985
% es.normE (V/m) @ t=0.16
2.225592992374567
% es.EX (V/m) @ t=0.16
1.9923724170381631
% es.EY (V/m) @ t=0.16
0.07665769305617012
% es.EZ (V/m) @ t=0.16
-0.9888578516383253
% es.tEX (V/m) @ t=0.16
1.9923724170381574
% es.tEY (V/m) @ t=0.16
0
% es.tEZ (V/m) @ t=0.16
-0.9888578516383149
% es.Ex (V/m) @ t=0.16
1.9923724170381631
% es.Ey (V/m) @ t=0.16
0.07665769305617012
% es.Ez (V/m) @ t=0.16
-0.9888578516383253
% es.tEx (V/m) @ t=0.16
1.9923724170381574
% es.tEy (V/m) @ t=0.16
0
% es.tEz (V/m) @ t=0.16
-0.9888578516383149
% V (V) @ t=0.16
0.010097494020908199
% es.normE (V/m) @ t=0.18
2.2464453002247726
% es.EX (V/m) @ t=0.18
2.0110396051281167
% es.EY (V/m) @ t=0.18
0.07737592407270266
% es.EZ (V/m) @ t=0.18
-0.9981227839008747
% es.tEX (V/m) @ t=0.18
2.011039605128123
% es.tEY (V/m) @ t=0.18
0
% es.tEZ (V/m) @ t=0.18
-0.998122783900854
% es.Ex (V/m) @ t=0.18
2.0110396051281167
% es.Ey (V/m) @ t=0.18
0.07737592407270266
% es.Ez (V/m) @ t=0.18
-0.9981227839008747
% es.tEx (V/m) @ t=0.18
2.011039605128123
% es.tEy (V/m) @ t=0.18
0
% es.tEz (V/m) @ t=0.18
-0.998122783900854
% V (V) @ t=0.18
0.010192100739526547
% es.normE (V/m) @ t=0.2
2.2672976080749834
% es.EX (V/m) @ t=0.2
2.0297067932180806
% es.EY (V/m) @ t=0.2
0.07809415508923256
% es.EZ (V/m) @ t=0.2
-1.007387716163417
% es.tEX (V/m) @ t=0.2
2.0297067932180806
% es.tEY (V/m) @ t=0.2
0
% es.tEZ (V/m) @ t=0.2
-1.0073877161634073
% es.Ex (V/m) @ t=0.2
2.0297067932180806
% es.Ey (V/m) @ t=0.2
0.07809415508923256
% es.Ez (V/m) @ t=0.2
-1.007387716163417
% es.tEx (V/m) @ t=0.2
2.0297067932180806
% es.tEy (V/m) @ t=0.2
0
% es.tEz (V/m) @ t=0.2
-1.0073877161634073
% V (V) @ t=0.2
0.010286707458144896
% es.normE (V/m) @ t=0.22
2.288149915925188
% es.EX (V/m) @ t=0.22
2.0483739813080373
% es.EY (V/m) @ t=0.22
0.07881238610576247
% es.EZ (V/m) @ t=0.22
-1.0166526484259593
% es.tEX (V/m) @ t=0.22
2.0483739813080453
% es.tEY (V/m) @ t=0.22
0
% es.tEZ (V/m) @ t=0.22
-1.0166526484259393
% es.Ex (V/m) @ t=0.22
2.0483739813080373
% es.Ey (V/m) @ t=0.22
0.07881238610576247
% es.Ez (V/m) @ t=0.22
-1.0166526484259593
% es.tEx (V/m) @ t=0.22
2.0483739813080453
% es.tEy (V/m) @ t=0.22
0
% es.tEz (V/m) @ t=0.22
-1.0166526484259393
% V (V) @ t=0.22
0.010381314176763249
% es.normE (V/m) @ t=0.24
2.309002223775395
% es.EX (V/m) @ t=0.24
2.0670411693979975
% es.EY (V/m) @ t=0.24
0.0795306171222977
% es.EZ (V/m) @ t=0.24
-1.0259175806884981
% es.tEX (V/m) @ t=0.24
2.0670411693979958
% es.tEY (V/m) @ t=0.24
0
% es.tEZ (V/m) @ t=0.24
-1.0259175806884855
% es.Ex (V/m) @ t=0.24
2.0670411693979975
% es.Ey (V/m) @ t=0.24
0.0795306171222977
% es.Ez (V/m) @ t=0.24
-1.0259175806884981
% es.tEx (V/m) @ t=0.24
2.0670411693979958
% es.tEy (V/m) @ t=0.24
0
% es.tEz (V/m) @ t=0.24
-1.0259175806884855
% V (V) @ t=0.24
0.010475920895381597
% es.normE (V/m) @ t=0.26
2.329854531625614
% es.EX (V/m) @ t=0.26
2.085708357487965
% es.EY (V/m) @ t=0.26
0.08024884813882935
% es.EZ (V/m) @ t=0.26
-1.0351825129510512
% es.tEX (V/m) @ t=0.26
2.0857083574879676
% es.tEY (V/m) @ t=0.26
0
% es.tEZ (V/m) @ t=0.26
-1.035182512951053
% es.Ex (V/m) @ t=0.26
2.085708357487965
% es.Ey (V/m) @ t=0.26
0.08024884813882935
% es.Ez (V/m) @ t=0.26
-1.0351825129510512
% es.tEx (V/m) @ t=0.26
2.0857083574879676
% es.tEy (V/m) @ t=0.26
0
% es.tEz (V/m) @ t=0.26
-1.035182512951053
% V (V) @ t=0.26
0.010570527613999948
% es.normE (V/m) @ t=0.28
2.3527768211241415
% es.EX (V/m) @ t=0.28
2.106228613180016
% es.EY (V/m) @ t=0.28
0.081038371456807
% es.EZ (V/m) @ t=0.28
-1.0453671635610555
% es.tEX (V/m) @ t=0.28
2.1062286131800096
% es.tEY (V/m) @ t=0.28
0
% es.tEZ (V/m) @ t=0.28
-1.0453671635610462
% es.Ex (V/m) @ t=0.28
2.106228613180016
% es.Ey (V/m) @ t=0.28
0.081038371456807
% es.Ez (V/m) @ t=0.28
-1.0453671635610555
% es.tEx (V/m) @ t=0.28
2.1062286131800096
% es.tEy (V/m) @ t=0.28
0
% es.tEz (V/m) @ t=0.28
-1.0453671635610462
% V (V) @ t=0.28
0.010674525943276355
% es.normE (V/m) @ t=0.3
2.375902920139557
% es.EX (V/m) @ t=0.3
2.126931321123788
% es.EY (V/m) @ t=0.3
0.08183491418455216
% es.EZ (V/m) @ t=0.3
-1.0556423692502312
% es.tEX (V/m) @ t=0.3
2.1269313211237835
% es.tEY (V/m) @ t=0.3
0
% es.tEZ (V/m) @ t=0.3
-1.0556423692502364
% es.Ex (V/m) @ t=0.3
2.126931321123788
% es.Ey (V/m) @ t=0.3
0.08183491418455216
% es.Ez (V/m) @ t=0.3
-1.0556423692502312
% es.tEx (V/m) @ t=0.3
2.1269313211237835
% es.tEy (V/m) @ t=0.3
0
% es.tEz (V/m) @ t=0.3
-1.0556423692502364
% V (V) @ t=0.3
0.010779448966562894
% es.normE (V/m) @ t=0.32
2.399029019154986
% es.EX (V/m) @ t=0.32
2.147634029067571
% es.EY (V/m) @ t=0.32
0.08263145691231241
% es.EZ (V/m) @ t=0.32
-1.0659175749394139
% es.tEX (V/m) @ t=0.32
2.1476340290675644
% es.tEY (V/m) @ t=0.32
0
% es.tEZ (V/m) @ t=0.32
-1.0659175749394052
% es.Ex (V/m) @ t=0.32
2.147634029067571
% es.Ey (V/m) @ t=0.32
0.08263145691231241
% es.Ez (V/m) @ t=0.32
-1.0659175749394139
% es.tEx (V/m) @ t=0.32
2.1476340290675644
% es.tEy (V/m) @ t=0.32
0
% es.tEz (V/m) @ t=0.32
-1.0659175749394052
% V (V) @ t=0.32
0.010884371989849435
% es.normE (V/m) @ t=0.34
2.4221551181704193
% es.EX (V/m) @ t=0.34
2.1683367370113427
% es.EY (V/m) @ t=0.34
0.0834279996400922
% es.EZ (V/m) @ t=0.34
-1.0761927806286284
% es.tEX (V/m) @ t=0.34
2.1683367370113444
% es.tEY (V/m) @ t=0.34
0
% es.tEZ (V/m) @ t=0.34
-1.0761927806286025
% es.Ex (V/m) @ t=0.34
2.1683367370113427
% es.Ey (V/m) @ t=0.34
0.0834279996400922
% es.Ez (V/m) @ t=0.34
-1.0761927806286284
% es.tEx (V/m) @ t=0.34
2.1683367370113444
% es.tEy (V/m) @ t=0.34
0
% es.tEz (V/m) @ t=0.34
-1.0761927806286025
% V (V) @ t=0.34
0.010989295013135976
% es.normE (V/m) @ t=0.36
2.4452812171858413
% es.EX (V/m) @ t=0.36
2.1890394449551263
% es.EY (V/m) @ t=0.36
0.08422454236786667
% es.EZ (V/m) @ t=0.36
-1.0864679863177933
% es.tEX (V/m) @ t=0.36
2.1890394449551263
% es.tEY (V/m) @ t=0.36
0
% es.tEZ (V/m) @ t=0.36
-1.0864679863177926
% es.Ex (V/m) @ t=0.36
2.1890394449551263
% es.Ey (V/m) @ t=0.36
0.08422454236786667
% es.Ez (V/m) @ t=0.36
-1.0864679863177933
% es.tEx (V/m) @ t=0.36
2.1890394449551263
% es.tEy (V/m) @ t=0.36
0
% es.tEz (V/m) @ t=0.36
-1.0864679863177926
% V (V) @ t=0.36
0.011094218036422517
% es.normE (V/m) @ t=0.38
2.468407316201289
% es.EX (V/m) @ t=0.38
2.209742152898919
% es.EY (V/m) @ t=0.38
0.08502108509562958
% es.EZ (V/m) @ t=0.38
-1.0967431920069972
% es.tEX (V/m) @ t=0.38
2.2097421528989134
% es.tEY (V/m) @ t=0.38
0
% es.tEZ (V/m) @ t=0.38
-1.0967431920069828
% es.Ex (V/m) @ t=0.38
2.209742152898919
% es.Ey (V/m) @ t=0.38
0.08502108509562958
% es.Ez (V/m) @ t=0.38
-1.0967431920069972
% es.tEx (V/m) @ t=0.38
2.2097421528989134
% es.tEy (V/m) @ t=0.38
0
% es.tEz (V/m) @ t=0.38
-1.0967431920069828
% V (V) @ t=0.38
0.011199141059709056
% es.normE (V/m) @ t=0.4
2.491533415216714
% es.EX (V/m) @ t=0.4
2.2304448608426912
% es.EY (V/m) @ t=0.4
0.08581762782341829
% es.EZ (V/m) @ t=0.4
-1.1070183976961905
% es.tEX (V/m) @ t=0.4
2.2304448608426792
% es.tEY (V/m) @ t=0.4
0
% es.tEZ (V/m) @ t=0.4
-1.1070183976961658
% es.Ex (V/m) @ t=0.4
2.2304448608426912
% es.Ey (V/m) @ t=0.4
0.08581762782341829
% es.Ez (V/m) @ t=0.4
-1.1070183976961905
% es.tEx (V/m) @ t=0.4
2.2304448608426792
% es.tEy (V/m) @ t=0.4
0
% es.tEz (V/m) @ t=0.4
-1.1070183976961658
% V (V) @ t=0.4
0.011304064082995597
% es.normE (V/m) @ t=0.42
2.5146595142321395
% es.EX (V/m) @ t=0.42
2.251147568786471
% es.EY (V/m) @ t=0.42
0.08661417055117765
% es.EZ (V/m) @ t=0.42
-1.117293603385373
% es.tEX (V/m) @ t=0.42
2.2511475687864673
% es.tEY (V/m) @ t=0.42
0
% es.tEZ (V/m) @ t=0.42
-1.117293603385363
% es.Ex (V/m) @ t=0.42
2.251147568786471
% es.Ey (V/m) @ t=0.42
0.08661417055117765
% es.Ez (V/m) @ t=0.42
-1.117293603385373
% es.tEx (V/m) @ t=0.42
2.2511475687864673
% es.tEy (V/m) @ t=0.42
0
% es.tEz (V/m) @ t=0.42
-1.117293603385363
% V (V) @ t=0.42
0.011408987106282137
% es.normE (V/m) @ t=0.44
2.5377856132475682
% es.EX (V/m) @ t=0.44
2.271850276730257
% es.EY (V/m) @ t=0.44
0.08741071327893257
% es.EZ (V/m) @ t=0.44
-1.1275688090745486
% es.tEX (V/m) @ t=0.44
2.2718502767302553
% es.tEY (V/m) @ t=0.44
0
% es.tEZ (V/m) @ t=0.44
-1.1275688090745533
% es.Ex (V/m) @ t=0.44
2.271850276730257
% es.Ey (V/m) @ t=0.44
0.08741071327893257
% es.Ez (V/m) @ t=0.44
-1.1275688090745486
% es.tEx (V/m) @ t=0.44
2.2718502767302553
% es.tEy (V/m) @ t=0.44
0
% es.tEz (V/m) @ t=0.44
-1.1275688090745533
% V (V) @ t=0.44
0.011513910129568677
% es.normE (V/m) @ t=0.46
2.560911712263006
% es.EX (V/m) @ t=0.46
2.2925529846740362
% es.EY (V/m) @ t=0.46
0.08820725600669815
% es.EZ (V/m) @ t=0.46
-1.137844014763756
% es.tEX (V/m) @ t=0.46
2.2925529846740362
% es.tEY (V/m) @ t=0.46
0
% es.tEZ (V/m) @ t=0.46
-1.1378440147637363
% es.Ex (V/m) @ t=0.46
2.2925529846740362
% es.Ey (V/m) @ t=0.46
0.08820725600669815
% es.Ez (V/m) @ t=0.46
-1.137844014763756
% es.tEx (V/m) @ t=0.46
2.2925529846740362
% es.tEy (V/m) @ t=0.46
0
% es.tEz (V/m) @ t=0.46
-1.1378440147637363
% V (V) @ t=0.46
0.011618833152855217
% es.normE (V/m) @ t=0.48
2.5840378112784395
% es.EX (V/m) @ t=0.48
2.3132556926178225
% es.EY (V/m) @ t=0.48
0.089003798734477
% es.EZ (V/m) @ t=0.48
-1.1481192204529422
% es.tEX (V/m) @ t=0.48
2.3132556926178163
% es.tEY (V/m) @ t=0.48
0
% es.tEZ (V/m) @ t=0.48
-1.1481192204529407
% es.Ex (V/m) @ t=0.48
2.3132556926178225
% es.Ey (V/m) @ t=0.48
0.089003798734477
% es.Ez (V/m) @ t=0.48
-1.1481192204529422
% es.tEx (V/m) @ t=0.48
2.3132556926178163
% es.tEy (V/m) @ t=0.48
0
% es.tEz (V/m) @ t=0.48
-1.1481192204529407
% V (V) @ t=0.48
0.01172375617614176
% es.normE (V/m) @ t=0.5
2.607163910293863
% es.EX (V/m) @ t=0.5
2.333958400561598
% es.EY (V/m) @ t=0.5
0.08980034146222127
% es.EZ (V/m) @ t=0.5
-1.1583944261421284
% es.tEX (V/m) @ t=0.5
2.333958400561597
% es.tEY (V/m) @ t=0.5
0
% es.tEZ (V/m) @ t=0.5
-1.1583944261421308
% es.Ex (V/m) @ t=0.5
2.333958400561598
% es.Ey (V/m) @ t=0.5
0.08980034146222127
% es.Ez (V/m) @ t=0.5
-1.1583944261421284
% es.tEx (V/m) @ t=0.5
2.333958400561597
% es.tEy (V/m) @ t=0.5
0
% es.tEz (V/m) @ t=0.5
-1.1583944261421308
% V (V) @ t=0.5
0.011828679199428298
% es.normE (V/m) @ t=0.52
2.630290009309315
% es.EX (V/m) @ t=0.52
2.354661108505388
% es.EY (V/m) @ t=0.52
0.09059688419002149
% es.EZ (V/m) @ t=0.52
-1.1686696318313465
% es.tEX (V/m) @ t=0.52
2.3546611085053843
% es.tEY (V/m) @ t=0.52
0
% es.tEZ (V/m) @ t=0.52
-1.168669631831321
% es.Ex (V/m) @ t=0.52
2.354661108505388
% es.Ey (V/m) @ t=0.52
0.09059688419002149
% es.Ez (V/m) @ t=0.52
-1.1686696318313465
% es.tEx (V/m) @ t=0.52
2.3546611085053843
% es.tEy (V/m) @ t=0.52
0
% es.tEz (V/m) @ t=0.52
-1.168669631831321
% V (V) @ t=0.52
0.011933602222714838
% es.normE (V/m) @ t=0.54
2.655544843917311
% es.EX (V/m) @ t=0.54
2.3772694812029256
% es.EY (V/m) @ t=0.54
0.0914667534306326
% es.EZ (V/m) @ t=0.54
-1.1798906600348624
% es.tEX (V/m) @ t=0.54
2.377269481202931
% es.tEY (V/m) @ t=0.54
0
% es.tEZ (V/m) @ t=0.54
-1.1798906600348715
% es.Ex (V/m) @ t=0.54
2.3772694812029256
% es.Ey (V/m) @ t=0.54
0.0914667534306326
% es.Ez (V/m) @ t=0.54
-1.1798906600348624
% es.tEx (V/m) @ t=0.54
2.377269481202931
% es.tEy (V/m) @ t=0.54
0
% es.tEz (V/m) @ t=0.54
-1.1798906600348715
% V (V) @ t=0.54
0.01204818319463988
% es.normE (V/m) @ t=0.56
2.6812347219247465
% es.EX (V/m) @ t=0.56
2.400267308972076
% es.EY (V/m) @ t=0.56
0.09235160819385435
% es.EZ (V/m) @ t=0.56
-1.191304983189326
% es.tEX (V/m) @ t=0.56
2.4002673089720723
% es.tEY (V/m) @ t=0.56
0
% es.tEZ (V/m) @ t=0.56
-1.1913049831893332
% es.Ex (V/m) @ t=0.56
2.400267308972076
% es.Ey (V/m) @ t=0.56
0.09235160819385435
% es.Ez (V/m) @ t=0.56
-1.191304983189326
% es.tEx (V/m) @ t=0.56
2.4002673089720723
% es.tEy (V/m) @ t=0.56
0
% es.tEz (V/m) @ t=0.56
-1.1913049831893332
% V (V) @ t=0.56
0.012164737932974486
% es.normE (V/m) @ t=0.58
2.706924599932187
% es.EX (V/m) @ t=0.58
2.423265136741229
% es.EY (V/m) @ t=0.58
0.0932364629571063
% es.EZ (V/m) @ t=0.58
-1.2027193063437933
% es.tEX (V/m) @ t=0.58
2.423265136741234
% es.tEY (V/m) @ t=0.58
0
% es.tEZ (V/m) @ t=0.58
-1.2027193063437878
% es.Ex (V/m) @ t=0.58
2.423265136741229
% es.Ey (V/m) @ t=0.58
0.0932364629571063
% es.Ez (V/m) @ t=0.58
-1.2027193063437933
% es.tEx (V/m) @ t=0.58
2.423265136741234
% es.tEy (V/m) @ t=0.58
0
% es.tEz (V/m) @ t=0.58
-1.2027193063437878
% V (V) @ t=0.58
0.012281292671309094
% es.normE (V/m) @ t=0.6
2.732614477939655
% es.EX (V/m) @ t=0.6
2.446262964510397
% es.EY (V/m) @ t=0.6
0.09412131772033522
% es.EZ (V/m) @ t=0.6
-1.2141336294982925
% es.tEX (V/m) @ t=0.6
2.446262964510404
% es.tEY (V/m) @ t=0.6
0
% es.tEZ (V/m) @ t=0.6
-1.2141336294982707
% es.Ex (V/m) @ t=0.6
2.446262964510397
% es.Ey (V/m) @ t=0.6
0.09412131772033522
% es.Ez (V/m) @ t=0.6
-1.2141336294982925
% es.tEx (V/m) @ t=0.6
2.446262964510404
% es.tEy (V/m) @ t=0.6
0
% es.tEz (V/m) @ t=0.6
-1.2141336294982707
% V (V) @ t=0.6
0.012397847409643708
% es.normE (V/m) @ t=0.62
2.758304355947087
% es.EX (V/m) @ t=0.62
2.4692607922795466
% es.EY (V/m) @ t=0.62
0.09500617248357296
% es.EZ (V/m) @ t=0.62
-1.225547952652749
% es.tEX (V/m) @ t=0.62
2.4692607922795515
% es.tEY (V/m) @ t=0.62
0
% es.tEZ (V/m) @ t=0.62
-1.2255479526527395
% es.Ex (V/m) @ t=0.62
2.4692607922795466
% es.Ey (V/m) @ t=0.62
0.09500617248357296
% es.Ez (V/m) @ t=0.62
-1.225547952652749
% es.tEx (V/m) @ t=0.62
2.4692607922795515
% es.tEy (V/m) @ t=0.62
0
% es.tEz (V/m) @ t=0.62
-1.2255479526527395
% V (V) @ t=0.62
0.012514402147978316
% es.normE (V/m) @ t=0.64
2.783994233954534
% es.EX (V/m) @ t=0.64
2.492258620048711
% es.EY (V/m) @ t=0.64
0.09589102724680804
% es.EZ (V/m) @ t=0.64
-1.2369622758072092
% es.tEX (V/m) @ t=0.64
2.492258620048707
% es.tEY (V/m) @ t=0.64
0
% es.tEZ (V/m) @ t=0.64
-1.236962275807194
% es.Ex (V/m) @ t=0.64
2.492258620048711
% es.Ey (V/m) @ t=0.64
0.09589102724680804
% es.Ez (V/m) @ t=0.64
-1.2369622758072092
% es.tEx (V/m) @ t=0.64
2.492258620048707
% es.tEy (V/m) @ t=0.64
0
% es.tEz (V/m) @ t=0.64
-1.236962275807194
% V (V) @ t=0.64
0.012630956886312928
% es.normE (V/m) @ t=0.66
2.8096841119619835
% es.EX (V/m) @ t=0.66
2.5152564478178645
% es.EY (V/m) @ t=0.66
0.09677588201004406
% es.EZ (V/m) @ t=0.66
-1.2483765989616977
% es.tEX (V/m) @ t=0.66
2.515256447817869
% es.tEY (V/m) @ t=0.66
0
% es.tEZ (V/m) @ t=0.66
-1.24837659896167
% es.Ex (V/m) @ t=0.66
2.5152564478178645
% es.Ey (V/m) @ t=0.66
0.09677588201004406
% es.Ez (V/m) @ t=0.66
-1.2483765989616977
% es.tEx (V/m) @ t=0.66
2.515256447817869
% es.tEy (V/m) @ t=0.66
0
% es.tEz (V/m) @ t=0.66
-1.24837659896167
% V (V) @ t=0.66
0.012747511624647538
% es.normE (V/m) @ t=0.68
2.8353739899694337
% es.EX (V/m) @ t=0.68
2.538254275587029
% es.EY (V/m) @ t=0.68
0.09766073677327824
% es.EZ (V/m) @ t=0.68
-1.259790922116165
% es.tEX (V/m) @ t=0.68
2.5382542755870316
% es.tEY (V/m) @ t=0.68
0
% es.tEZ (V/m) @ t=0.68
-1.2597909221161459
% es.Ex (V/m) @ t=0.68
2.538254275587029
% es.Ey (V/m) @ t=0.68
0.09766073677327824
% es.Ez (V/m) @ t=0.68
-1.259790922116165
% es.tEx (V/m) @ t=0.68
2.5382542755870316
% es.tEy (V/m) @ t=0.68
0
% es.tEz (V/m) @ t=0.68
-1.2597909221161459
% V (V) @ t=0.68
0.012864066362982148
% es.normE (V/m) @ t=0.7
2.861063867976897
% es.EX (V/m) @ t=0.7
2.5612521033562077
% es.EY (V/m) @ t=0.7
0.09854559153651954
% es.EZ (V/m) @ t=0.7
-1.2712052452706322
% es.tEX (V/m) @ t=0.7
2.5612521033562086
% es.tEY (V/m) @ t=0.7
0
% es.tEZ (V/m) @ t=0.7
-1.2712052452706217
% es.Ex (V/m) @ t=0.7
2.5612521033562077
% es.Ey (V/m) @ t=0.7
0.09854559153651954
% es.Ez (V/m) @ t=0.7
-1.2712052452706322
% es.tEx (V/m) @ t=0.7
2.5612521033562086
% es.tEy (V/m) @ t=0.7
0
% es.tEz (V/m) @ t=0.7
-1.2712052452706217
% V (V) @ t=0.7
0.01298062110131676
% es.normE (V/m) @ t=0.72
2.8867537459843686
% es.EX (V/m) @ t=0.72
2.584249931125383
% es.EY (V/m) @ t=0.72
0.09943044629977327
% es.EZ (V/m) @ t=0.72
-1.2826195684251243
% es.tEX (V/m) @ t=0.72
2.5842499311253793
% es.tEY (V/m) @ t=0.72
0
% es.tEZ (V/m) @ t=0.72
-1.2826195684251047
% es.Ex (V/m) @ t=0.72
2.584249931125383
% es.Ey (V/m) @ t=0.72
0.09943044629977327
% es.Ez (V/m) @ t=0.72
-1.2826195684251243
% es.tEx (V/m) @ t=0.72
2.5842499311253793
% es.tEy (V/m) @ t=0.72
0
% es.tEz (V/m) @ t=0.72
-1.2826195684251047
% V (V) @ t=0.72
0.013097175839651368
% es.normE (V/m) @ t=0.74
2.912443623991802
% es.EX (V/m) @ t=0.74
2.607247758894529
% es.EY (V/m) @ t=0.74
0.1003153010629888
% es.EZ (V/m) @ t=0.74
-1.2940338915795915
% es.tEX (V/m) @ t=0.74
2.6072477588945198
% es.tEY (V/m) @ t=0.74
0
% es.tEZ (V/m) @ t=0.74
-1.2940338915795664
% es.Ex (V/m) @ t=0.74
2.607247758894529
% es.Ey (V/m) @ t=0.74
0.1003153010629888
% es.Ez (V/m) @ t=0.74
-1.2940338915795915
% es.tEx (V/m) @ t=0.74
2.6072477588945198
% es.tEy (V/m) @ t=0.74
0
% es.tEz (V/m) @ t=0.74
-1.2940338915795664
% V (V) @ t=0.74
0.013213730577985978
% es.normE (V/m) @ t=0.76
2.9381335019992463
% es.EX (V/m) @ t=0.76
2.63024558666369
% es.EY (V/m) @ t=0.76
0.10120015582623104
% es.EZ (V/m) @ t=0.76
-1.3054482147340516
% es.tEX (V/m) @ t=0.76
2.6302455866636825
% es.tEY (V/m) @ t=0.76
0
% es.tEZ (V/m) @ t=0.76
-1.305448214734028
% es.Ex (V/m) @ t=0.76
2.63024558666369
% es.Ey (V/m) @ t=0.76
0.10120015582623104
% es.Ez (V/m) @ t=0.76
-1.3054482147340516
% es.tEx (V/m) @ t=0.76
2.6302455866636825
% es.tEy (V/m) @ t=0.76
0
% es.tEz (V/m) @ t=0.76
-1.305448214734028
% V (V) @ t=0.76
0.01333028531632059
% es.normE (V/m) @ t=0.78
2.963823380006694
% es.EX (V/m) @ t=0.78
2.653243414432847
% es.EY (V/m) @ t=0.78
0.1020850105894705
% es.EZ (V/m) @ t=0.78
-1.3168625378885295
% es.tEX (V/m) @ t=0.78
2.6532434144328443
% es.tEY (V/m) @ t=0.78
0
% es.tEZ (V/m) @ t=0.78
-1.316862537888511
% es.Ex (V/m) @ t=0.78
2.653243414432847
% es.Ey (V/m) @ t=0.78
0.1020850105894705
% es.Ez (V/m) @ t=0.78
-1.3168625378885295
% es.tEx (V/m) @ t=0.78
2.6532434144328443
% es.tEy (V/m) @ t=0.78
0
% es.tEz (V/m) @ t=0.78
-1.316862537888511
% V (V) @ t=0.78
0.013446840054655199
% es.normE (V/m) @ t=0.8
2.9916859046921154
% es.EX (V/m) @ t=0.8
2.678186216565855
% es.EY (V/m) @ t=0.8
0.10304469937347821
% es.EZ (V/m) @ t=0.8
-1.3292421942066799
% es.tEX (V/m) @ t=0.8
2.67818621656585
% es.tEY (V/m) @ t=0.8
0
% es.tEZ (V/m) @ t=0.8
-1.3292421942066852
% es.Ex (V/m) @ t=0.8
2.678186216565855
% es.Ey (V/m) @ t=0.8
0.10304469937347821
% es.Ez (V/m) @ t=0.8
-1.3292421942066799
% es.tEx (V/m) @ t=0.8
2.67818621656585
% es.tEy (V/m) @ t=0.8
0
% es.tEz (V/m) @ t=0.8
-1.3292421942066852
% V (V) @ t=0.8
0.013573252066306744
% es.normE (V/m) @ t=0.82
3.020271650496065
% es.EX (V/m) @ t=0.82
2.7037764532537656
% es.EY (V/m) @ t=0.82
0.10402929857887122
% es.EZ (V/m) @ t=0.82
-1.3419431864040123
% es.tEX (V/m) @ t=0.82
2.703776453253764
% es.tEY (V/m) @ t=0.82
0
% es.tEZ (V/m) @ t=0.82
-1.3419431864039808
% es.Ex (V/m) @ t=0.82
2.7037764532537656
% es.Ey (V/m) @ t=0.82
0.10402929857887122
% es.Ez (V/m) @ t=0.82
-1.3419431864040123
% es.tEx (V/m) @ t=0.82
2.703776453253764
% es.tEy (V/m) @ t=0.82
0
% es.tEz (V/m) @ t=0.82
-1.3419431864039808
% V (V) @ t=0.82
0.013702945323963996
% es.normE (V/m) @ t=0.84
3.048857396299995
% es.EX (V/m) @ t=0.84
2.729366689941675
% es.EY (V/m) @ t=0.84
0.10501389778424014
% es.EZ (V/m) @ t=0.84
-1.354644178601306
% es.tEX (V/m) @ t=0.84
2.729366689941685
% es.tEY (V/m) @ t=0.84
0
% es.tEZ (V/m) @ t=0.84
-1.3546441786012977
% es.Ex (V/m) @ t=0.84
2.729366689941675
% es.Ey (V/m) @ t=0.84
0.10501389778424014
% es.Ez (V/m) @ t=0.84
-1.354644178601306
% es.tEx (V/m) @ t=0.84
2.729366689941685
% es.tEy (V/m) @ t=0.84
0
% es.tEz (V/m) @ t=0.84
-1.3546441786012977
% V (V) @ t=0.84
0.013832638581621247
% es.normE (V/m) @ t=0.86
3.0774431421039226
% es.EX (V/m) @ t=0.86
2.754956926629574
% es.EY (V/m) @ t=0.86
0.10599849698962427
% es.EZ (V/m) @ t=0.86
-1.3673451707986137
% es.tEX (V/m) @ t=0.86
2.7549569266295766
% es.tEY (V/m) @ t=0.86
0
% es.tEZ (V/m) @ t=0.86
-1.3673451707986217
% es.Ex (V/m) @ t=0.86
2.754956926629574
% es.Ey (V/m) @ t=0.86
0.10599849698962427
% es.Ez (V/m) @ t=0.86
-1.3673451707986137
% es.tEx (V/m) @ t=0.86
2.7549569266295766
% es.tEy (V/m) @ t=0.86
0
% es.tEz (V/m) @ t=0.86
-1.3673451707986217
% V (V) @ t=0.86
0.013962331839278495
% es.normE (V/m) @ t=0.88
3.1060288879078923
% es.EX (V/m) @ t=0.88
2.7805471633175047
% es.EY (V/m) @ t=0.88
0.10698309619499674
% es.EZ (V/m) @ t=0.88
-1.3800461629959535
% es.tEX (V/m) @ t=0.88
2.7805471633174976
% es.tEY (V/m) @ t=0.88
0
% es.tEZ (V/m) @ t=0.88
-1.3800461629959457
% es.Ex (V/m) @ t=0.88
2.7805471633175047
% es.Ey (V/m) @ t=0.88
0.10698309619499674
% es.Ez (V/m) @ t=0.88
-1.3800461629959535
% es.tEx (V/m) @ t=0.88
2.7805471633174976
% es.tEy (V/m) @ t=0.88
0
% es.tEz (V/m) @ t=0.88
-1.3800461629959457
% V (V) @ t=0.88
0.014092025096935749
% es.normE (V/m) @ t=0.9
3.1346146337118226
% es.EX (V/m) @ t=0.9
2.8061374000054036
% es.EY (V/m) @ t=0.9
0.10796769540037288
% es.EZ (V/m) @ t=0.9
-1.3927471551932684
% es.tEX (V/m) @ t=0.9
2.8061374000054045
% es.tEY (V/m) @ t=0.9
0
% es.tEZ (V/m) @ t=0.9
-1.3927471551932484
% es.Ex (V/m) @ t=0.9
2.8061374000054036
% es.Ey (V/m) @ t=0.9
0.10796769540037288
% es.Ez (V/m) @ t=0.9
-1.3927471551932684
% es.tEx (V/m) @ t=0.9
2.8061374000054045
% es.tEy (V/m) @ t=0.9
0
% es.tEz (V/m) @ t=0.9
-1.3927471551932484
% V (V) @ t=0.9
0.014221718354593002
% es.normE (V/m) @ t=0.92
3.1632003795157724
% es.EX (V/m) @ t=0.92
2.831727636693328
% es.EY (V/m) @ t=0.92
0.10895229460575967
% es.EZ (V/m) @ t=0.92
-1.4054481473905724
% es.tEX (V/m) @ t=0.92
2.8317276366933246
% es.tEY (V/m) @ t=0.92
0
% es.tEZ (V/m) @ t=0.92
-1.4054481473905795
% es.Ex (V/m) @ t=0.92
2.831727636693328
% es.Ey (V/m) @ t=0.92
0.10895229460575967
% es.Ez (V/m) @ t=0.92
-1.4054481473905724
% es.tEx (V/m) @ t=0.92
2.8317276366933246
% es.tEy (V/m) @ t=0.92
0
% es.tEz (V/m) @ t=0.92
-1.4054481473905795
% V (V) @ t=0.92
0.014351411612250252
% es.normE (V/m) @ t=0.94
3.1917861253197226
% es.EX (V/m) @ t=0.94
2.8573178733812408
% es.EY (V/m) @ t=0.94
0.10993689381111799
% es.EZ (V/m) @ t=0.94
-1.4181491395879051
% es.tEX (V/m) @ t=0.94
2.8573178733812377
% es.tEY (V/m) @ t=0.94
0
% es.tEZ (V/m) @ t=0.94
-1.4181491395878965
% es.Ex (V/m) @ t=0.94
2.8573178733812408
% es.Ey (V/m) @ t=0.94
0.10993689381111799
% es.Ez (V/m) @ t=0.94
-1.4181491395879051
% es.tEx (V/m) @ t=0.94
2.8573178733812377
% es.tEy (V/m) @ t=0.94
0
% es.tEz (V/m) @ t=0.94
-1.4181491395878965
% V (V) @ t=0.94
0.014481104869907505
% es.normE (V/m) @ t=0.96
3.220371871123657
% es.EX (V/m) @ t=0.96
2.8829081100691436
% es.EY (V/m) @ t=0.96
0.11092149301649135
% es.EZ (V/m) @ t=0.96
-1.43085013178522
% es.tEX (V/m) @ t=0.96
2.8829081100691383
% es.tEY (V/m) @ t=0.96
0
% es.tEZ (V/m) @ t=0.96
-1.4308501317852134
% es.Ex (V/m) @ t=0.96
2.8829081100691436
% es.Ey (V/m) @ t=0.96
0.11092149301649135
% es.Ez (V/m) @ t=0.96
-1.43085013178522
% es.tEx (V/m) @ t=0.96
2.8829081100691383
% es.tEy (V/m) @ t=0.96
0
% es.tEz (V/m) @ t=0.96
-1.4308501317852134
% V (V) @ t=0.96
0.014610798127564755
% es.normE (V/m) @ t=0.98
3.2489576169275916
% es.EX (V/m) @ t=0.98
2.908498346757045
% es.EY (V/m) @ t=0.98
0.11190609222187103
% es.EZ (V/m) @ t=0.98
-1.4435511239825383
% es.tEX (V/m) @ t=0.98
2.9084983467570495
% es.tEY (V/m) @ t=0.98
0
% es.tEZ (V/m) @ t=0.98
-1.4435511239825445
% es.Ex (V/m) @ t=0.98
2.908498346757045
% es.Ey (V/m) @ t=0.98
0.11190609222187103
% es.Ez (V/m) @ t=0.98
-1.4435511239825383
% es.tEx (V/m) @ t=0.98
2.9084983467570495
% es.tEy (V/m) @ t=0.98
0
% es.tEz (V/m) @ t=0.98
-1.4435511239825445
% V (V) @ t=0.98
0.014740491385222008
% es.normE (V/m) @ t=1
3.277543362731551
% es.EX (V/m) @ t=1
2.9340885834449733
% es.EY (V/m) @ t=1
0.11289069142724978
% es.EZ (V/m) @ t=1
-1.4562521161798605
% es.tEX (V/m) @ t=1
2.9340885834449715
% es.tEY (V/m) @ t=1
0
% es.tEZ (V/m) @ t=1
-1.4562521161798543
% es.Ex (V/m) @ t=1
2.9340885834449733
% es.Ey (V/m) @ t=1
0.11289069142724978
% es.Ez (V/m) @ t=1
-1.4562521161798605
% es.tEx (V/m) @ t=1
2.9340885834449715
% es.tEy (V/m) @ t=1
0
% es.tEz (V/m) @ t=1
-1.4562521161798543
% V (V) @ t=1
0.014870184642879258
% es.normE (V/m) @ t=1.02
3.3061291085354876
% es.EX (V/m) @ t=1.02
2.959678820132879
% es.EY (V/m) @ t=1.02
0.1138752906326152
% es.EZ (V/m) @ t=1.02
-1.4689531083771752
% es.tEX (V/m) @ t=1.02
2.9596788201328774
% es.tEY (V/m) @ t=1.02
0
% es.tEZ (V/m) @ t=1.02
-1.468953108377164
% es.Ex (V/m) @ t=1.02
2.959678820132879
% es.Ey (V/m) @ t=1.02
0.1138752906326152
% es.Ez (V/m) @ t=1.02
-1.4689531083771752
% es.tEx (V/m) @ t=1.02
2.9596788201328774
% es.tEy (V/m) @ t=1.02
0
% es.tEz (V/m) @ t=1.02
-1.468953108377164
% V (V) @ t=1.02
0.014999877900536508
% es.normE (V/m) @ t=1.04
3.334714854339416
% es.EX (V/m) @ t=1.04
2.985269056820779
% es.EY (V/m) @ t=1.04
0.11485988983801082
% es.EZ (V/m) @ t=1.04
-1.481654100574483
% es.tEX (V/m) @ t=1.04
2.985269056820771
% es.tEY (V/m) @ t=1.04
0
% es.tEZ (V/m) @ t=1.04