% Model:              1 neuron.mph
% Version:            COMSOL 6.1.0.252
% Date:               Mar 22 2023, 19:52
% Dimension:          0
% Nodes:              14017
% Expressions:        14017
% Description:        Electric field norm, Electric field, X component, Electric field, Y component, Electric field, Z component, Tangential electric field, X component, Tangential electric field, Y component, Tangential electric field, Z component, Electric field, x component, Electric field, y component, Electric field, z component, Tangential electric field, x component, Tangential electric field, y component, Tangential electric field, z component, Electric potential
% Length unit:        mm
% x
1
% y
12.2
% z
1.6599999999999997
% es.normE (V/m) @ t=0
2.4255661701604145
% es.EX (V/m) @ t=0
2.1713902529695526
% es.EY (V/m) @ t=0
0.08354552802901993
% es.EZ (V/m) @ t=0
-1.0777085322262725
% es.tEX (V/m) @ t=0
2.171390252969548
% es.tEY (V/m) @ t=0
0
% es.tEZ (V/m) @ t=0
-1.0777085322262607
% es.Ex (V/m) @ t=0
2.1713902529695526
% es.Ey (V/m) @ t=0
0.08354552802901993
% es.Ez (V/m) @ t=0
-1.0777085322262725
% es.tEx (V/m) @ t=0
2.171390252969548
% es.tEy (V/m) @ t=0
0
% es.tEz (V/m) @ t=0
-1.0777085322262607
% V (V) @ t=0
0.011004769958113551
% es.normE (V/m) @ t=0.02
2.0949983548268447
% es.EX (V/m) @ t=0.02
1.8754627532225552
% es.EY (V/m) @ t=0.02
0.07215954214379328
% es.EZ (V/m) @ t=0.02
-0.9308332338344385
% es.tEX (V/m) @ t=0.02
1.8754627532225525
% es.tEY (V/m) @ t=0.02
0
% es.tEZ (V/m) @ t=0.02
-0.9308332338344343
% es.Ex (V/m) @ t=0.02
1.8754627532225552
% es.Ey (V/m) @ t=0.02
0.07215954214379328
% es.Ez (V/m) @ t=0.02
-0.9308332338344385
% es.tEx (V/m) @ t=0.02
1.8754627532225525
% es.tEy (V/m) @ t=0.02
0
% es.tEz (V/m) @ t=0.02
-0.9308332338344343
% V (V) @ t=0.02
0.009504987008559656
% es.normE (V/m) @ t=0.04
2.1142820386498817
% es.EX (V/m) @ t=0.04
1.8927256930744443
% es.EY (V/m) @ t=0.04
0.07282374487568741
% es.EZ (V/m) @ t=0.04
-0.9394012090423789
% es.tEX (V/m) @ t=0.04
1.892725693074441
% es.tEY (V/m) @ t=0.04
0
% es.tEZ (V/m) @ t=0.04
-0.9394012090423658
% es.Ex (V/m) @ t=0.04
1.8927256930744443
% es.Ey (V/m) @ t=0.04
0.07282374487568741
% es.Ez (V/m) @ t=0.04
-0.9394012090423789
% es.tEx (V/m) @ t=0.04
1.892725693074441
% es.tEy (V/m) @ t=0.04
0
% es.tEz (V/m) @ t=0.04
-0.9394012090423658
% V (V) @ t=0.04
0.009592476855673666
% es.normE (V/m) @ t=0.06
2.1337169196228323
% es.EX (V/m) @ t=0.06
1.9101239860191714
% es.EY (V/m) @ t=0.06
0.07349315601794643
% es.EZ (V/m) @ t=0.06
-0.948036363045642
% es.tEX (V/m) @ t=0.06
1.9101239860191788
% es.tEY (V/m) @ t=0.06
0
% es.tEZ (V/m) @ t=0.06
-0.9480363630456381
% es.Ex (V/m) @ t=0.06
1.9101239860191714
% es.Ey (V/m) @ t=0.06
0.07349315601794643
% es.Ez (V/m) @ t=0.06
-0.948036363045642
% es.tEx (V/m) @ t=0.06
1.9101239860191788
% es.tEy (V/m) @ t=0.06
0
% es.tEz (V/m) @ t=0.06
-0.9480363630456381
% V (V) @ t=0.06
0.00968065265628649
% es.normE (V/m) @ t=0.08
2.153500805183022
% es.EX (V/m) @ t=0.08
1.9278347114432335
% es.EY (V/m) @ t=0.08
0.07417458593399068
% es.EZ (V/m) @ t=0.08
-0.9568265837936256
% es.tEX (V/m) @ t=0.08
1.9278347114432384
% es.tEY (V/m) @ t=0.08
0
% es.tEZ (V/m) @ t=0.08
-0.9568265837936067
% es.Ex (V/m) @ t=0.08
1.9278347114432335
% es.Ey (V/m) @ t=0.08
0.07417458593399068
% es.Ez (V/m) @ t=0.08
-0.9568265837936256
% es.tEx (V/m) @ t=0.08
1.9278347114432384
% es.tEy (V/m) @ t=0.08
0
% es.tEz (V/m) @ t=0.08
-0.9568265837936067
% V (V) @ t=0.08
0.009770411985071503
% es.normE (V/m) @ t=0.1
2.173418433733191
% es.EX (V/m) @ t=0.1
1.9456651649610803
% es.EY (V/m) @ t=0.1
0.07486062159673879
% es.EZ (V/m) @ t=0.1
-0.965676228087448
% es.tEX (V/m) @ t=0.1
1.9456651649610786
% es.tEY (V/m) @ t=0.1
0
% es.tEZ (V/m) @ t=0.1
-0.9656762280874247
% es.Ex (V/m) @ t=0.1
1.9456651649610803
% es.Ey (V/m) @ t=0.1
0.07486062159673879
% es.Ez (V/m) @ t=0.1
-0.965676228087448
% es.tEx (V/m) @ t=0.1
1.9456651649610786
% es.tEy (V/m) @ t=0.1
0
% es.tEz (V/m) @ t=0.1
-0.9656762280874247
% V (V) @ t=0.1
0.009860778141961936
% es.normE (V/m) @ t=0.12
2.1933360622833487
% es.EX (V/m) @ t=0.12
1.96349561847892
% es.EY (V/m) @ t=0.12
0.07554665725951701
% es.EZ (V/m) @ t=0.12
-0.9745258723812562
% es.tEX (V/m) @ t=0.12
1.9634956184789187
% es.tEY (V/m) @ t=0.12
0
% es.tEZ (V/m) @ t=0.12
-0.9745258723812356
% es.Ex (V/m) @ t=0.12
1.96349561847892
% es.Ey (V/m) @ t=0.12
0.07554665725951701
% es.Ez (V/m) @ t=0.12
-0.9745258723812562
% es.tEx (V/m) @ t=0.12
1.9634956184789187
% es.tEy (V/m) @ t=0.12
0
% es.tEz (V/m) @ t=0.12
-0.9745258723812356
% V (V) @ t=0.12
0.009951144298852365
% es.normE (V/m) @ t=0.14
2.213717863140421
% es.EX (V/m) @ t=0.14
1.9817416033508763
% es.EY (V/m) @ t=0.14
0.07624868265782794
% es.EZ (V/m) @ t=0.14
-0.9835817542797409
% es.tEX (V/m) @ t=0.14
1.9817416033508657
% es.tEY (V/m) @ t=0.14
0
% es.tEZ (V/m) @ t=0.14
-0.9835817542797329
% es.Ex (V/m) @ t=0.14
1.9817416033508763
% es.Ey (V/m) @ t=0.14
0.07624868265782794
% es.Ez (V/m) @ t=0.14
-0.9835817542797409
% es.tEx (V/m) @ t=0.14
1.9817416033508657
% es.tEy (V/m) @ t=0.14
0
% es.tEz (V/m) @ t=0.14
-0.9835817542797329
% V (V) @ t=0.14
0.01004361631241256
% es.normE (V/m) @ t=0.16
2.2346545712842563
% es.EX (V/m) @ t=0.16
2.0004843463724287
% es.EY (V/m) @ t=0.16
0.07696982341618094
% es.EZ (V/m) @ t=0.16
-0.9928841884777401
% es.tEX (V/m) @ t=0.16
2.0004843463724207
% es.tEY (V/m) @ t=0.16
0
% es.tEZ (V/m) @ t=0.16
-0.9928841884777526
% es.Ex (V/m) @ t=0.16
2.0004843463724287
% es.Ey (V/m) @ t=0.16
0.07696982341618094
% es.Ez (V/m) @ t=0.16
-0.9928841884777401
% es.tEx (V/m) @ t=0.16
2.0004843463724207
% es.tEy (V/m) @ t=0.16
0
% es.tEz (V/m) @ t=0.16
-0.9928841884777526
% V (V) @ t=0.16
0.010138605829049697
% es.normE (V/m) @ t=0.18
2.2555912794280912
% es.EX (V/m) @ t=0.18
2.0192270893939632
% es.EY (V/m) @ t=0.18
0.07769096417453664
% es.EZ (V/m) @ t=0.18
-1.002186622675775
% es.tEX (V/m) @ t=0.18
2.019227089393967
% es.tEY (V/m) @ t=0.18
0
% es.tEZ (V/m) @ t=0.18
-1.002186622675758
% es.Ex (V/m) @ t=0.18
2.0192270893939632
% es.Ey (V/m) @ t=0.18
0.07769096417453664
% es.Ez (V/m) @ t=0.18
-1.002186622675775
% es.tEx (V/m) @ t=0.18
2.019227089393967
% es.tEy (V/m) @ t=0.18
0
% es.tEz (V/m) @ t=0.18
-1.002186622675758
% V (V) @ t=0.18
0.010233595345686831
% es.normE (V/m) @ t=0.2
2.276527987571919
% es.EX (V/m) @ t=0.2
2.037969832415513
% es.EY (V/m) @ t=0.2
0.0784121049328994
% es.EZ (V/m) @ t=0.2
-1.0114890568737636
% es.tEX (V/m) @ t=0.2
2.0379698324155155
% es.tEY (V/m) @ t=0.2
0
% es.tEZ (V/m) @ t=0.2
-1.0114890568737636
% es.Ex (V/m) @ t=0.2
2.037969832415513
% es.Ey (V/m) @ t=0.2
0.0784121049328994
% es.Ez (V/m) @ t=0.2
-1.0114890568737636
% es.tEx (V/m) @ t=0.2
2.0379698324155155
% es.tEy (V/m) @ t=0.2
0
% es.tEz (V/m) @ t=0.2
-1.0114890568737636
% V (V) @ t=0.2
0.010328584862323966
% es.normE (V/m) @ t=0.22
2.2974646957157674
% es.EX (V/m) @ t=0.22
2.056712575437065
% es.EY (V/m) @ t=0.22
0.0791332456912533
% es.EZ (V/m) @ t=0.22
-1.020791491071791
% es.tEX (V/m) @ t=0.22
2.0567125754370554
% es.tEY (V/m) @ t=0.22
0
% es.tEZ (V/m) @ t=0.22
-1.0207914910717903
% es.Ex (V/m) @ t=0.22
2.056712575437065
% es.Ey (V/m) @ t=0.22
0.0791332456912533
% es.Ez (V/m) @ t=0.22
-1.020791491071791
% es.tEx (V/m) @ t=0.22
2.0567125754370554
% es.tEy (V/m) @ t=0.22
0
% es.tEz (V/m) @ t=0.22
-1.0207914910717903
% V (V) @ t=0.22
0.010423574378961098
% es.normE (V/m) @ t=0.24
2.3184014038596112
% es.EX (V/m) @ t=0.24
2.0754553184586144
% es.EY (V/m) @ t=0.24
0.0798543864496179
% es.EZ (V/m) @ t=0.24
-1.0300939252698151
% es.tEX (V/m) @ t=0.24
2.0754553184586104
% es.tEY (V/m) @ t=0.24
0
% es.tEZ (V/m) @ t=0.24
-1.03009392526981
% es.Ex (V/m) @ t=0.24
2.0754553184586144
% es.Ey (V/m) @ t=0.24
0.0798543864496179
% es.Ez (V/m) @ t=0.24
-1.0300939252698151
% es.tEx (V/m) @ t=0.24
2.0754553184586104
% es.tEy (V/m) @ t=0.24
0
% es.tEz (V/m) @ t=0.24
-1.03009392526981
% V (V) @ t=0.24
0.010518563895598234
% es.normE (V/m) @ t=0.26
2.339338112003448
% es.EX (V/m) @ t=0.26
2.094198061480163
% es.EY (V/m) @ t=0.26
0.08057552720797978
% es.EZ (V/m) @ t=0.26
-1.039396359467825
% es.tEX (V/m) @ t=0.26
2.0941980614801636
% es.tEY (V/m) @ t=0.26
0
% es.tEZ (V/m) @ t=0.26
-1.0393963594678155
% es.Ex (V/m) @ t=0.26
2.094198061480163
% es.Ey (V/m) @ t=0.26
0.08057552720797978
% es.Ez (V/m) @ t=0.26
-1.039396359467825
% es.tEx (V/m) @ t=0.26
2.0941980614801636
% es.tEy (V/m) @ t=0.26
0
% es.tEz (V/m) @ t=0.26
-1.0393963594678155
% V (V) @ t=0.26
0.01061355341223537
% es.normE (V/m) @ t=0.28
2.362374176882552
% es.EX (V/m) @ t=0.28
2.114820165438097
% es.EY (V/m) @ t=0.28
0.08136901449968914
% es.EZ (V/m) @ t=0.28
-1.0496315675307404
% es.tEX (V/m) @ t=0.28
2.1148201654380943
% es.tEY (V/m) @ t=0.28
0
% es.tEZ (V/m) @ t=0.28
-1.0496315675307315
% es.Ex (V/m) @ t=0.28
2.114820165438097
% es.Ey (V/m) @ t=0.28
0.08136901449968914
% es.Ez (V/m) @ t=0.28
-1.0496315675307404
% es.tEx (V/m) @ t=0.28
2.1148201654380943
% es.tEy (V/m) @ t=0.28
0
% es.tEz (V/m) @ t=0.28
-1.0496315675307315
% V (V) @ t=0.28
0.01071806597386257
% es.normE (V/m) @ t=0.3
2.385591464673712
% es.EX (V/m) @ t=0.3
2.135604501596012
% es.EY (V/m) @ t=0.3
0.0821687469660273
% es.EZ (V/m) @ t=0.3
-1.059947295494454
% es.tEX (V/m) @ t=0.3
2.1356045015960063
% es.tEY (V/m) @ t=0.3
0
% es.tEZ (V/m) @ t=0.3
-1.059947295494439
% es.Ex (V/m) @ t=0.3
2.135604501596012
% es.Ey (V/m) @ t=0.3
0.0821687469660273
% es.Ez (V/m) @ t=0.3
-1.059947295494454
% es.tEx (V/m) @ t=0.3
2.1356045015960063
% es.tEy (V/m) @ t=0.3
0
% es.tEz (V/m) @ t=0.3
-1.059947295494439
% V (V) @ t=0.3
0.010823400593940224
% es.normE (V/m) @ t=0.32
2.408808752464869
% es.EX (V/m) @ t=0.32
2.156388837753917
% es.EY (V/m) @ t=0.32
0.08296847943236549
% es.EZ (V/m) @ t=0.32
-1.0702630234581783
% es.tEX (V/m) @ t=0.32
2.156388837753913
% es.tEY (V/m) @ t=0.32
0
% es.tEZ (V/m) @ t=0.32
-1.0702630234581605
% es.Ex (V/m) @ t=0.32
2.156388837753917
% es.Ey (V/m) @ t=0.32
0.08296847943236549
% es.Ez (V/m) @ t=0.32
-1.0702630234581783
% es.tEx (V/m) @ t=0.32
2.156388837753913
% es.tEy (V/m) @ t=0.32
0
% es.tEz (V/m) @ t=0.32
-1.0702630234581605
% V (V) @ t=0.32
0.01092873521401788
% es.normE (V/m) @ t=0.34
2.4320260402560194
% es.EX (V/m) @ t=0.34
2.1771731739118216
% es.EY (V/m) @ t=0.34
0.08376821189872058
% es.EZ (V/m) @ t=0.34
-1.080578751421885
% es.tEX (V/m) @ t=0.34
2.177173173911827
% es.tEY (V/m) @ t=0.34
0
% es.tEZ (V/m) @ t=0.34
-1.080578751421875
% es.Ex (V/m) @ t=0.34
2.1771731739118216
% es.Ey (V/m) @ t=0.34
0.08376821189872058
% es.Ez (V/m) @ t=0.34
-1.080578751421885
% es.tEx (V/m) @ t=0.34
2.177173173911827
% es.tEy (V/m) @ t=0.34
0
% es.tEz (V/m) @ t=0.34
-1.080578751421875
% V (V) @ t=0.34
0.011034069834095534
% es.normE (V/m) @ t=0.36
2.4552433280471737
% es.EX (V/m) @ t=0.36
2.19795751006973
% es.EY (V/m) @ t=0.36
0.08456794436505433
% es.EZ (V/m) @ t=0.36
-1.0908944793855917
% es.tEX (V/m) @ t=0.36
2.1979575100697186
% es.tEY (V/m) @ t=0.36
0
% es.tEZ (V/m) @ t=0.36
-1.0908944793855895
% es.Ex (V/m) @ t=0.36
2.19795751006973
% es.Ey (V/m) @ t=0.36
0.08456794436505433
% es.Ez (V/m) @ t=0.36
-1.0908944793855917
% es.tEx (V/m) @ t=0.36
2.1979575100697186
% es.tEy (V/m) @ t=0.36
0
% es.tEz (V/m) @ t=0.36
-1.0908944793855895
% V (V) @ t=0.36
0.011139404454173189
% es.normE (V/m) @ t=0.38
2.478460615838339
% es.EX (V/m) @ t=0.38
2.218741846227635
% es.EY (V/m) @ t=0.38
0.08536767683138455
% es.EZ (V/m) @ t=0.38
-1.1012102073493302
% es.tEX (V/m) @ t=0.38
2.2187418462276396
% es.tEY (V/m) @ t=0.38
0
% es.tEZ (V/m) @ t=0.38
-1.1012102073493182
% es.Ex (V/m) @ t=0.38
2.218741846227635
% es.Ey (V/m) @ t=0.38
0.08536767683138455
% es.Ez (V/m) @ t=0.38
-1.1012102073493302
% es.tEx (V/m) @ t=0.38
2.2187418462276396
% es.tEy (V/m) @ t=0.38
0
% es.tEz (V/m) @ t=0.38
-1.1012102073493182
% V (V) @ t=0.38
0.011244739074250845
% es.normE (V/m) @ t=0.4
2.501677903629503
% es.EX (V/m) @ t=0.4
2.239526182385558
% es.EY (V/m) @ t=0.4
0.0861674092977254
% es.EZ (V/m) @ t=0.4
-1.1115259353130262
% es.tEX (V/m) @ t=0.4
2.2395261823855535
% es.tEY (V/m) @ t=0.4
0
% es.tEZ (V/m) @ t=0.4
-1.1115259353130327
% es.Ex (V/m) @ t=0.4
2.239526182385558
% es.Ey (V/m) @ t=0.4
0.0861674092977254
% es.Ez (V/m) @ t=0.4
-1.1115259353130262
% es.tEx (V/m) @ t=0.4
2.2395261823855535
% es.tEy (V/m) @ t=0.4
0
% es.tEz (V/m) @ t=0.4
-1.1115259353130327
% V (V) @ t=0.4
0.011350073694328501
% es.normE (V/m) @ t=0.42
2.524895191420641
% es.EX (V/m) @ t=0.42
2.2603105185434416
% es.EY (V/m) @ t=0.42
0.08696714176407427
% es.EZ (V/m) @ t=0.42
-1.12184166327674
% es.tEX (V/m) @ t=0.42
2.260310518543445
% es.tEY (V/m) @ t=0.42
0
% es.tEZ (V/m) @ t=0.42
-1.1218416632767259
% es.Ex (V/m) @ t=0.42
2.2603105185434416
% es.Ey (V/m) @ t=0.42
0.08696714176407427
% es.Ez (V/m) @ t=0.42
-1.12184166327674
% es.tEx (V/m) @ t=0.42
2.260310518543445
% es.tEy (V/m) @ t=0.42
0
% es.tEz (V/m) @ t=0.42
-1.1218416632767259
% V (V) @ t=0.42
0.011455408314406158
% es.normE (V/m) @ t=0.44
2.548112479211821
% es.EX (V/m) @ t=0.44
2.281094854701368
% es.EY (V/m) @ t=0.44
0.08776687423041335
% es.EZ (V/m) @ t=0.44
-1.1321573912404608
% es.tEX (V/m) @ t=0.44
2.28109485470136
% es.tEY (V/m) @ t=0.44
0
% es.tEZ (V/m) @ t=0.44
-1.1321573912404546
% es.Ex (V/m) @ t=0.44
2.281094854701368
% es.Ey (V/m) @ t=0.44
0.08776687423041335
% es.Ez (V/m) @ t=0.44
-1.1321573912404608
% es.tEx (V/m) @ t=0.44
2.28109485470136
% es.tEy (V/m) @ t=0.44
0
% es.tEz (V/m) @ t=0.44
-1.1321573912404546
% V (V) @ t=0.44
0.011560742934483814
% es.normE (V/m) @ t=0.46
2.5713297670029736
% es.EX (V/m) @ t=0.46
2.3018791908592693
% es.EY (V/m) @ t=0.46
0.08856660669675509
% es.EZ (V/m) @ t=0.46
-1.1424731192041673
% es.tEX (V/m) @ t=0.46
2.3018791908592666
% es.tEY (V/m) @ t=0.46
0
% es.tEZ (V/m) @ t=0.46
-1.1424731192041548
% es.Ex (V/m) @ t=0.46
2.3018791908592693
% es.Ey (V/m) @ t=0.46
0.08856660669675509
% es.Ez (V/m) @ t=0.46
-1.1424731192041673
% es.tEx (V/m) @ t=0.46
2.3018791908592666
% es.tEy (V/m) @ t=0.46
0
% es.tEz (V/m) @ t=0.46
-1.1424731192041548
% V (V) @ t=0.46
0.011666077554561468
% es.normE (V/m) @ t=0.48
2.594547054794152
% es.EX (V/m) @ t=0.48
2.322663527017185
% es.EY (V/m) @ t=0.48
0.08936633916308973
% es.EZ (V/m) @ t=0.48
-1.1527888471679024
% es.tEX (V/m) @ t=0.48
2.3226635270171805
% es.tEY (V/m) @ t=0.48
0
% es.tEZ (V/m) @ t=0.48
-1.1527888471678835
% es.Ex (V/m) @ t=0.48
2.322663527017185
% es.Ey (V/m) @ t=0.48
0.08936633916308973
% es.Ez (V/m) @ t=0.48
-1.1527888471679024
% es.tEx (V/m) @ t=0.48
2.3226635270171805
% es.tEy (V/m) @ t=0.48
0
% es.tEz (V/m) @ t=0.48
-1.1527888471678835
% V (V) @ t=0.48
0.011771412174639123
% es.normE (V/m) @ t=0.5
2.617764342585314
% es.EX (V/m) @ t=0.5
2.3434478631750935
% es.EY (V/m) @ t=0.5
0.0901660716294484
% es.EZ (V/m) @ t=0.5
-1.1631045751316127
% es.tEX (V/m) @ t=0.5
2.3434478631750864
% es.tEY (V/m) @ t=0.5
0
% es.tEZ (V/m) @ t=0.5
-1.1631045751315838
% es.Ex (V/m) @ t=0.5
2.3434478631750935
% es.Ey (V/m) @ t=0.5
0.0901660716294484
% es.Ez (V/m) @ t=0.5
-1.1631045751316127
% es.tEx (V/m) @ t=0.5
2.3434478631750864
% es.tEy (V/m) @ t=0.5
0
% es.tEz (V/m) @ t=0.5
-1.1631045751315838
% V (V) @ t=0.5
0.011876746794716779
% es.normE (V/m) @ t=0.52
2.6409816303764466
% es.EX (V/m) @ t=0.52
2.3642321993329807
% es.EY (V/m) @ t=0.52
0.09096580409575017
% es.EZ (V/m) @ t=0.52
-1.1734203030953014
% es.tEX (V/m) @ t=0.52
2.364232199332986
% es.tEY (V/m) @ t=0.52
0
% es.tEZ (V/m) @ t=0.52
-1.1734203030952983
% es.Ex (V/m) @ t=0.52
2.3642321993329807
% es.Ey (V/m) @ t=0.52
0.09096580409575017
% es.Ez (V/m) @ t=0.52
-1.1734203030953014
% es.tEx (V/m) @ t=0.52
2.364232199332986
% es.tEy (V/m) @ t=0.52
0
% es.tEz (V/m) @ t=0.52
-1.1734203030952983
% V (V) @ t=0.52
0.011982081414794434
% es.normE (V/m) @ t=0.54
2.666386354525116
% es.EX (V/m) @ t=0.54
2.3869747530377827
% es.EY (V/m) @ t=0.54
0.09184084385966257
% es.EZ (V/m) @ t=0.54
-1.1847079315764186
% es.tEX (V/m) @ t=0.54
2.3869747530377747
% es.tEY (V/m) @ t=0.54
0
% es.tEZ (V/m) @ t=0.54
-1.1847079315763978
% es.Ex (V/m) @ t=0.54
2.3869747530377827
% es.Ey (V/m) @ t=0.54
0.09184084385966257
% es.Ez (V/m) @ t=0.54
-1.1847079315764186
% es.tEx (V/m) @ t=0.54
2.3869747530377747
% es.tEy (V/m) @ t=0.54
0
% es.tEz (V/m) @ t=0.54
-1.1847079315763978
% V (V) @ t=0.54
0.01209734209402064
% es.normE (V/m) @ t=0.56
2.6921751436888104
% es.EX (V/m) @ t=0.56
2.4100611260491576
% es.EY (V/m) @ t=0.56
0.0927291059046097
% es.EZ (V/m) @ t=0.56
-1.1961662041018624
% es.tEX (V/m) @ t=0.56
2.410061126049153
% es.tEY (V/m) @ t=0.56
0
% es.tEZ (V/m) @ t=0.56
-1.1961662041018641
% es.Ex (V/m) @ t=0.56
2.4100611260491576
% es.Ey (V/m) @ t=0.56
0.0927291059046097
% es.Ez (V/m) @ t=0.56
-1.1961662041018624
% es.tEx (V/m) @ t=0.56
2.410061126049153
% es.tEy (V/m) @ t=0.56
0
% es.tEz (V/m) @ t=0.56
-1.1961662041018641
% V (V) @ t=0.56
0.012214345567748471
% es.normE (V/m) @ t=0.58
2.717963932852542
% es.EX (V/m) @ t=0.58
2.433147499060549
% es.EY (V/m) @ t=0.58
0.09361736794960207
% es.EZ (V/m) @ t=0.58
-1.2076244766273525
% es.tEX (V/m) @ t=0.58
2.433147499060545
% es.tEY (V/m) @ t=0.58
0
% es.tEZ (V/m) @ t=0.58
-1.2076244766273447
% es.Ex (V/m) @ t=0.58
2.433147499060549
% es.Ey (V/m) @ t=0.58
0.09361736794960207
% es.Ez (V/m) @ t=0.58
-1.2076244766273525
% es.tEx (V/m) @ t=0.58
2.433147499060545
% es.tEy (V/m) @ t=0.58
0
% es.tEz (V/m) @ t=0.58
-1.2076244766273447
% V (V) @ t=0.58
0.012331349041476305
% es.normE (V/m) @ t=0.6
2.743752722016297
% es.EX (V/m) @ t=0.6
2.456233872071955
% es.EY (V/m) @ t=0.6
0.0945056299945865
% es.EZ (V/m) @ t=0.6
-1.219082749152864
% es.tEX (V/m) @ t=0.6
2.4562338720719437
% es.tEY (V/m) @ t=0.6
0
% es.tEZ (V/m) @ t=0.6
-1.2190827491528324
% es.Ex (V/m) @ t=0.6
2.456233872071955
% es.Ey (V/m) @ t=0.6
0.0945056299945865
% es.Ez (V/m) @ t=0.6
-1.219082749152864
% es.tEx (V/m) @ t=0.6
2.4562338720719437
% es.tEy (V/m) @ t=0.6
0
% es.tEz (V/m) @ t=0.6
-1.2190827491528324
% V (V) @ t=0.6
0.012448352515204136
% es.normE (V/m) @ t=0.62
2.7695415111799857
% es.EX (V/m) @ t=0.62
2.479320245083319
% es.EY (V/m) @ t=0.62
0.09539389203956289
% es.EZ (V/m) @ t=0.62
-1.2305410216783148
% es.tEX (V/m) @ t=0.62
2.479320245083315
% es.tEY (V/m) @ t=0.62
0
% es.tEZ (V/m) @ t=0.62
-1.2305410216782917
% es.Ex (V/m) @ t=0.62
2.479320245083319
% es.Ey (V/m) @ t=0.62
0.09539389203956289
% es.Ez (V/m) @ t=0.62
-1.2305410216783148
% es.tEx (V/m) @ t=0.62
2.479320245083315
% es.tEy (V/m) @ t=0.62
0
% es.tEz (V/m) @ t=0.62
-1.2305410216782917
% V (V) @ t=0.62
0.012565355988931968
% es.normE (V/m) @ t=0.64
2.7953303003437044
% es.EX (V/m) @ t=0.64
2.5024066180947107
% es.EY (V/m) @ t=0.64
0.09628215408452334
% es.EZ (V/m) @ t=0.64
-1.2419992942037767
% es.tEX (V/m) @ t=0.64
2.5024066180947138
% es.tEY (V/m) @ t=0.64
0
% es.tEZ (V/m) @ t=0.64
-1.2419992942037794
% es.Ex (V/m) @ t=0.64
2.5024066180947107
% es.Ey (V/m) @ t=0.64
0.09628215408452334
% es.Ez (V/m) @ t=0.64
-1.2419992942037767
% es.tEx (V/m) @ t=0.64
2.5024066180947138
% es.tEy (V/m) @ t=0.64
0
% es.tEz (V/m) @ t=0.64
-1.2419992942037794
% V (V) @ t=0.64
0.012682359462659798
% es.normE (V/m) @ t=0.66
2.8211190895074285
% es.EX (V/m) @ t=0.66
2.5254929911060993
% es.EY (V/m) @ t=0.66
0.09717041612950239
% es.EZ (V/m) @ t=0.66
-1.253457566729256
% es.tEX (V/m) @ t=0.66
2.525492991106084
% es.tEY (V/m) @ t=0.66
0
% es.tEZ (V/m) @ t=0.66
-1.253457566729253
% es.Ex (V/m) @ t=0.66
2.5254929911060993
% es.Ey (V/m) @ t=0.66
0.09717041612950239
% es.Ez (V/m) @ t=0.66
-1.253457566729256
% es.tEx (V/m) @ t=0.66
2.525492991106084
% es.tEy (V/m) @ t=0.66
0
% es.tEz (V/m) @ t=0.66
-1.253457566729253
% V (V) @ t=0.66
0.012799362936387629
% es.normE (V/m) @ t=0.68
2.8469078786711393
% es.EX (V/m) @ t=0.68
2.5485793641174768
% es.EY (V/m) @ t=0.68
0.09805867817446545
% es.EZ (V/m) @ t=0.68
-1.2649158392547284
% es.tEX (V/m) @ t=0.68
2.548579364117476
% es.tEY (V/m) @ t=0.68
0
% es.tEZ (V/m) @ t=0.68
-1.2649158392547264
% es.Ex (V/m) @ t=0.68
2.5485793641174768
% es.Ey (V/m) @ t=0.68
0.09805867817446545
% es.Ez (V/m) @ t=0.68
-1.2649158392547284
% es.tEx (V/m) @ t=0.68
2.548579364117476
% es.tEy (V/m) @ t=0.68
0
% es.tEz (V/m) @ t=0.68
-1.2649158392547264
% V (V) @ t=0.68
0.012916366410115461
% es.normE (V/m) @ t=0.7
2.8726966678348647
% es.EX (V/m) @ t=0.7
2.5716657371288614
% es.EY (V/m) @ t=0.7
0.09894694021944461
% es.EZ (V/m) @ t=0.7
-1.2763741117802185
% es.tEX (V/m) @ t=0.7
2.5716657371288676
% es.tEY (V/m) @ t=0.7
0
% es.tEZ (V/m) @ t=0.7
-1.2763741117801999
% es.Ex (V/m) @ t=0.7
2.5716657371288614
% es.Ey (V/m) @ t=0.7
0.09894694021944461
% es.Ez (V/m) @ t=0.7
-1.2763741117802185
% es.tEx (V/m) @ t=0.7
2.5716657371288676
% es.tEy (V/m) @ t=0.7
0
% es.tEz (V/m) @ t=0.7
-1.2763741117801999
% V (V) @ t=0.7
0.013033369883843293
% es.normE (V/m) @ t=0.72
2.898485456998566
% es.EX (V/m) @ t=0.72
2.5947521101402433
% es.EY (V/m) @ t=0.72
0.09983520226440767
% es.EZ (V/m) @ t=0.72
-1.2878323843056623
% es.tEX (V/m) @ t=0.72
2.594752110140246
% es.tEY (V/m) @ t=0.72
0
% es.tEZ (V/m) @ t=0.72
-1.2878323843056805
% es.Ex (V/m) @ t=0.72
2.5947521101402433
% es.Ey (V/m) @ t=0.72
0.09983520226440767
% es.Ez (V/m) @ t=0.72
-1.2878323843056623
% es.tEx (V/m) @ t=0.72
2.594752110140246
% es.tEy (V/m) @ t=0.72
0
% es.tEz (V/m) @ t=0.72
-1.2878323843056805
% V (V) @ t=0.72
0.013150373357571122
% es.normE (V/m) @ t=0.74
2.9242742461623177
% es.EX (V/m) @ t=0.74
2.6178384831516492
% es.EY (V/m) @ t=0.74
0.10072346430939827
% es.EZ (V/m) @ t=0.74
-1.2992906568311666
% es.tEX (V/m) @ t=0.74
2.617838483151645
% es.tEY (V/m) @ t=0.74
0
% es.tEZ (V/m) @ t=0.74
-1.299290656831154
% es.Ex (V/m) @ t=0.74
2.6178384831516492
% es.Ey (V/m) @ t=0.74
0.10072346430939827
% es.Ez (V/m) @ t=0.74
-1.2992906568311666
% es.tEx (V/m) @ t=0.74
2.617838483151645
% es.tEy (V/m) @ t=0.74
0
% es.tEz (V/m) @ t=0.74
-1.299290656831154
% V (V) @ t=0.74
0.013267376831298956
% es.normE (V/m) @ t=0.76
2.950063035326022
% es.EX (V/m) @ t=0.76
2.6409248561630196
% es.EY (V/m) @ t=0.76
0.10161172635434451
% es.EZ (V/m) @ t=0.76
-1.3107489293566426
% es.tEX (V/m) @ t=0.76
2.6409248561630223
% es.tEY (V/m) @ t=0.76
0
% es.tEZ (V/m) @ t=0.76
-1.3107489293566275
% es.Ex (V/m) @ t=0.76
2.6409248561630196
% es.Ey (V/m) @ t=0.76
0.10161172635434451
% es.Ez (V/m) @ t=0.76
-1.3107489293566426
% es.tEx (V/m) @ t=0.76
2.6409248561630223
% es.tEy (V/m) @ t=0.76
0
% es.tEz (V/m) @ t=0.76
-1.3107489293566275
% V (V) @ t=0.76
0.013384380305026785
% es.normE (V/m) @ t=0.78
2.9758518244897427
% es.EX (V/m) @ t=0.78
2.664011229174412
% es.EY (V/m) @ t=0.78
0.10249998839933155
% es.EZ (V/m) @ t=0.78
-1.3222072018821043
% es.tEX (V/m) @ t=0.78
2.6640112291744007
% es.tEY (V/m) @ t=0.78
0
% es.tEZ (V/m) @ t=0.78
-1.322207201882108
% es.Ex (V/m) @ t=0.78
2.664011229174412
% es.Ey (V/m) @ t=0.78
0.10249998839933155
% es.Ez (V/m) @ t=0.78
-1.3222072018821043
% es.tEx (V/m) @ t=0.78
2.6640112291744007
% es.tEy (V/m) @ t=0.78
0
% es.tEz (V/m) @ t=0.78
-1.322207201882108
% V (V) @ t=0.78
0.013501383778754619
% es.normE (V/m) @ t=0.8
3.0039081790693194
% es.EX (V/m) @ t=0.8
2.689127547957578
% es.EY (V/m) @ t=0.8
0.10346636120272251
% es.EZ (V/m) @ t=0.8
-1.3346729820832586
% es.tEX (V/m) @ t=0.8
2.6891275479575816
% es.tEY (V/m) @ t=0.8
0
% es.tEZ (V/m) @ t=0.8
-1.334672982083255
% es.Ex (V/m) @ t=0.8
2.689127547957578
% es.Ey (V/m) @ t=0.8
0.10346636120272251
% es.Ez (V/m) @ t=0.8
-1.3346729820832586
% es.tEx (V/m) @ t=0.8
2.6891275479575816
% es.tEy (V/m) @ t=0.8
0
% es.tEz (V/m) @ t=0.8
-1.334672982083255
% V (V) @ t=0.8
0.013628674837133243
% es.normE (V/m) @ t=0.82
3.032601293059315
% es.EX (V/m) @ t=0.82
2.7148138997213804
% es.EY (V/m) @ t=0.82
0.10445466843855955
% es.EZ (V/m) @ t=0.82
-1.347421682454714
% es.tEX (V/m) @ t=0.82
2.7148138997213795
% es.tEY (V/m) @ t=0.82
0
% es.tEZ (V/m) @ t=0.82
-1.3474216824546872
% es.Ex (V/m) @ t=0.82
2.7148138997213804
% es.Ey (V/m) @ t=0.82
0.10445466843855955
% es.Ez (V/m) @ t=0.82
-1.347421682454714
% es.tEx (V/m) @ t=0.82
2.7148138997213795
% es.tEy (V/m) @ t=0.82
0
% es.tEz (V/m) @ t=0.82
-1.3474216824546872
% V (V) @ t=0.82
0.01375885477196535
% es.normE (V/m) @ t=0.84
3.0612944070492993
% es.EX (V/m) @ t=0.84
2.7405002514851913
% es.EY (V/m) @ t=0.84
0.1054429756743992
% es.EZ (V/m) @ t=0.84
-1.360170382826127
% es.tEX (V/m) @ t=0.84
2.74050025148518
% es.tEY (V/m) @ t=0.84
0
% es.tEZ (V/m) @ t=0.84
-1.3601703828261194
% es.Ex (V/m) @ t=0.84
2.7405002514851913
% es.Ey (V/m) @ t=0.84
0.1054429756743992
% es.Ez (V/m) @ t=0.84
-1.360170382826127
% es.tEx (V/m) @ t=0.84
2.74050025148518
% es.tEy (V/m) @ t=0.84
0
% es.tEz (V/m) @ t=0.84
-1.3601703828261194
% V (V) @ t=0.84
0.013889034706797459
% es.normE (V/m) @ t=0.86
3.0899875210392853
% es.EX (V/m) @ t=0.86
2.766186603248991
% es.EY (V/m) @ t=0.86
0.10643128291025755
% es.EZ (V/m) @ t=0.86
-1.3729190831975644
% es.tEX (V/m) @ t=0.86
2.7661866032489932
% es.tEY (V/m) @ t=0.86
0
% es.tEZ (V/m) @ t=0.86
-1.3729190831975444
% es.Ex (V/m) @ t=0.86
2.766186603248991
% es.Ey (V/m) @ t=0.86
0.10643128291025755
% es.Ez (V/m) @ t=0.86
-1.3729190831975644
% es.tEx (V/m) @ t=0.86
2.7661866032489932
% es.tEy (V/m) @ t=0.86
0
% es.tEz (V/m) @ t=0.86
-1.3729190831975444
% V (V) @ t=0.86
0.014019214641629568
% es.normE (V/m) @ t=0.88
3.1186806350292553
% es.EX (V/m) @ t=0.88
2.7918729550127876
% es.EY (V/m) @ t=0.88
0.10741959014609637
% es.EZ (V/m) @ t=0.88
-1.3856677835689737
% es.tEX (V/m) @ t=0.88
2.791872955012785
% es.tEY (V/m) @ t=0.88
0
% es.tEZ (V/m) @ t=0.88
-1.3856677835689766
% es.Ex (V/m) @ t=0.88
2.7918729550127876
% es.Ey (V/m) @ t=0.88
0.10741959014609637
% es.Ez (V/m) @ t=0.88
-1.3856677835689737
% es.tEx (V/m) @ t=0.88
2.791872955012785
% es.tEy (V/m) @ t=0.88
0
% es.tEz (V/m) @ t=0.88
-1.3856677835689766
% V (V) @ t=0.88
0.014149394576461678
% es.normE (V/m) @ t=0.9
3.1473737490192653
% es.EX (V/m) @ t=0.9
2.817559306776605
% es.EY (V/m) @ t=0.9
0.10840789738194762
% es.EZ (V/m) @ t=0.9
-1.3984164839404292
% es.tEX (V/m) @ t=0.9
2.817559306776598
% es.tEY (V/m) @ t=0.9
0
% es.tEZ (V/m) @ t=0.9
-1.3984164839404016
% es.Ex (V/m) @ t=0.9
2.817559306776605
% es.Ey (V/m) @ t=0.9
0.10840789738194762
% es.Ez (V/m) @ t=0.9
-1.3984164839404292
% es.tEx (V/m) @ t=0.9
2.817559306776598
% es.tEy (V/m) @ t=0.9
0
% es.tEz (V/m) @ t=0.9
-1.3984164839404016
% V (V) @ t=0.9
0.014279574511293787
% es.normE (V/m) @ t=0.92
3.1760668630092557
% es.EX (V/m) @ t=0.92
2.843245658540419
% es.EY (V/m) @ t=0.92
0.10939620461780153
% es.EZ (V/m) @ t=0.92
-1.411165184311849
% es.tEX (V/m) @ t=0.92
2.843245658540404
% es.tEY (V/m) @ t=0.92
0
% es.tEZ (V/m) @ t=0.92
-1.411165184311841
% es.Ex (V/m) @ t=0.92
2.843245658540419
% es.Ey (V/m) @ t=0.92
0.10939620461780153
% es.Ez (V/m) @ t=0.92
-1.411165184311849
% es.tEx (V/m) @ t=0.92
2.843245658540404
% es.tEy (V/m) @ t=0.92
0
% es.tEz (V/m) @ t=0.92
-1.411165184311841
% V (V) @ t=0.92
0.014409754446125897
% es.normE (V/m) @ t=0.94
3.2047599769992074
% es.EX (V/m) @ t=0.94
2.868932010304194
% es.EY (V/m) @ t=0.94
0.11038451185363857
% es.EZ (V/m) @ t=0.94
-1.4239138846832617
% es.tEX (V/m) @ t=0.94
2.8689320103041887
% es.tEY (V/m) @ t=0.94
0
% es.tEZ (V/m) @ t=0.94
-1.4239138846832518
% es.Ex (V/m) @ t=0.94
2.868932010304194
% es.Ey (V/m) @ t=0.94
0.11038451185363857
% es.Ez (V/m) @ t=0.94
-1.4239138846832617
% es.tEx (V/m) @ t=0.94
2.8689320103041887
% es.tEy (V/m) @ t=0.94
0
% es.tEz (V/m) @ t=0.94
-1.4239138846832518
% V (V) @ t=0.94
0.014539934380958006
% es.normE (V/m) @ t=0.96
3.2334530909892134
% es.EX (V/m) @ t=0.96
2.894618362068023
% es.EY (V/m) @ t=0.96
0.11137281908949248
% es.EZ (V/m) @ t=0.96
-1.436662585054685
% es.tEX (V/m) @ t=0.96
2.8946183620680106
% es.tEY (V/m) @ t=0.96
0
% es.tEZ (V/m) @ t=0.96
-1.436662585054691
% es.Ex (V/m) @ t=0.96
2.894618362068023
% es.Ey (V/m) @ t=0.96
0.11137281908949248
% es.Ez (V/m) @ t=0.96
-1.436662585054685
% es.tEx (V/m) @ t=0.96
2.8946183620680106
% es.tEy (V/m) @ t=0.96
0
% es.tEz (V/m) @ t=0.96
-1.436662585054691
% V (V) @ t=0.96
0.014670114315790114
% es.normE (V/m) @ t=0.98
3.2621462049792114
% es.EX (V/m) @ t=0.98
2.9203047138318214
% es.EY (V/m) @ t=0.98
0.11236112632536055
% es.EZ (V/m) @ t=0.98
-1.4494112854261512
% es.tEX (V/m) @ t=0.98
2.920304713831822
% es.tEY (V/m) @ t=0.98
0
% es.tEZ (V/m) @ t=0.98
-1.4494112854261445
% es.Ex (V/m) @ t=0.98
2.9203047138318214
% es.Ey (V/m) @ t=0.98
0.11236112632536055
% es.Ez (V/m) @ t=0.98
-1.4494112854261512
% es.tEx (V/m) @ t=0.98
2.920304713831822
% es.tEy (V/m) @ t=0.98
0
% es.tEz (V/m) @ t=0.98
-1.4494112854261445
% V (V) @ t=0.98
0.014800294250622223
% es.normE (V/m) @ t=1
3.290839318969188
% es.EX (V/m) @ t=1
2.945991065595622
% es.EY (V/m) @ t=1
0.1133494335612038
% es.EZ (V/m) @ t=1
-1.4621599857975673
% es.tEX (V/m) @ t=1
2.9459910655956154
% es.tEY (V/m) @ t=1
0
% es.tEZ (V/m) @ t=1
-1.4621599857975482
% es.Ex (V/m) @ t=1
2.945991065595622
% es.Ey (V/m) @ t=1
0.1133494335612038
% es.Ez (V/m) @ t=1
-1.4621599857975673
% es.tEx (V/m) @ t=1
2.9459910655956154
% es.tEy (V/m) @ t=1
0
% es.tEz (V/m) @ t=1
-1.4621599857975482
% V (V) @ t=1
0.014930474185454332
% es.normE (V/m) @ t=1.02
3.3195324329591704
% es.EX (V/m) @ t=1.02
2.9716774173594254
% es.EY (V/m) @ t=1.02
0.11433774079705145
% es.EZ (V/m) @ t=1.02
-1.4749086861689908
% es.tEX (V/m) @ t=1.02
2.9716774173594214
% es.tEY (V/m) @ t=1.02
0
% es.tEZ (V/m) @ t=1.02
-1.4749086861689804
% es.Ex (V/m) @ t=1.02
2.9716774173594254
% es.Ey (V/m) @ t=1.02
0.11433774079705145
% es.Ez (V/m) @ t=1.02
-1.4749086861689908
% es.tEx (V/m) @ t=1.02
2.9716774173594214
% es.tEy (V/m) @ t=1.02
0
% es.tEz (V/m) @ t=1.02
-1.4749086861689804
% V (V) @ t=1.02
0.015060654120286442
% es.normE (V/m) @ t=1.04
3.3482255469491706
% es.EX (V/m) @ t=1.04
2.9973637691232393
% es.EY (V/m) @ t=1.04
0.1153260480328912
% es.EZ (V/m) @ t=1.04
-1.4876573865404321
% es.tEX (V/m) @ t=1.04
2.9973637691232415
% es.tEY (V/m) @ t=1.04
0
% es.tEZ (V/m) @ t=1.04
-1.4876573865404126