% Model:              1 neuron.mph
% Version:            COMSOL 6.1.0.252
% Date:               Mar 22 2023, 20:05
% Dimension:          0
% Nodes:              14017
% Expressions:        14017
% Description:        Electric field norm, Electric field, X component, Electric field, Y component, Electric field, Z component, Tangential electric field, X component, Tangential electric field, Y component, Tangential electric field, Z component, Electric field, x component, Electric field, y component, Electric field, z component, Tangential electric field, x component, Tangential electric field, y component, Tangential electric field, z component, Electric potential
% Length unit:        mm
% x
1
% y
12.2
% z
1.33
% es.normE (V/m) @ t=0
2.21459905258458
% es.EX (V/m) @ t=0
2.0465799664232227
% es.EY (V/m) @ t=0
0.12886526006673527
% es.EZ (V/m) @ t=0
0.8273542273689174
% es.tEX (V/m) @ t=0
2.0465799664232147
% es.tEY (V/m) @ t=0
0
% es.tEZ (V/m) @ t=0
0.8273542273689198
% es.Ex (V/m) @ t=0
2.0465799664232227
% es.Ey (V/m) @ t=0
0.12886526006673527
% es.Ez (V/m) @ t=0
0.8273542273689174
% es.tEx (V/m) @ t=0
2.0465799664232147
% es.tEy (V/m) @ t=0
0
% es.tEz (V/m) @ t=0
0.8273542273689198
% V (V) @ t=0
0.011046780407747132
% es.normE (V/m) @ t=0.02
1.9127837460658
% es.EX (V/m) @ t=0.02
1.767663040478208
% es.EY (V/m) @ t=0.02
0.1113029353714654
% es.EZ (V/m) @ t=0.02
0.7145987517036403
% es.tEX (V/m) @ t=0.02
1.767663040478217
% es.tEY (V/m) @ t=0.02
0
% es.tEZ (V/m) @ t=0.02
0.7145987517036412
% es.Ex (V/m) @ t=0.02
1.767663040478208
% es.Ey (V/m) @ t=0.02
0.1113029353714654
% es.Ez (V/m) @ t=0.02
0.7145987517036403
% es.tEx (V/m) @ t=0.02
1.767663040478217
% es.tEy (V/m) @ t=0.02
0
% es.tEz (V/m) @ t=0.02
0.7145987517036412
% V (V) @ t=0.02
0.009541276545536779
% es.normE (V/m) @ t=0.04
1.9303909121671137
% es.EX (V/m) @ t=0.04
1.7839343710999636
% es.EY (V/m) @ t=0.04
0.11232747852803449
% es.EZ (V/m) @ t=0.04
0.7211766301469755
% es.tEX (V/m) @ t=0.04
1.7839343710999707
% es.tEY (V/m) @ t=0.04
0
% es.tEZ (V/m) @ t=0.04
0.7211766301469735
% es.Ex (V/m) @ t=0.04
1.7839343710999636
% es.Ey (V/m) @ t=0.04
0.11232747852803449
% es.Ez (V/m) @ t=0.04
0.7211766301469755
% es.tEx (V/m) @ t=0.04
1.7839343710999707
% es.tEy (V/m) @ t=0.04
0
% es.tEz (V/m) @ t=0.04
0.7211766301469735
% V (V) @ t=0.04
0.00962910395158795
% es.normE (V/m) @ t=0.06
1.9481398285346878
% es.EX (V/m) @ t=0.06
1.8003366976734627
% es.EY (V/m) @ t=0.06
0.11336026944643474
% es.EZ (V/m) @ t=0.06
0.7278074649474713
% es.tEX (V/m) @ t=0.06
1.8003366976734583
% es.tEY (V/m) @ t=0.06
0
% es.tEZ (V/m) @ t=0.06
0.7278074649474693
% es.Ex (V/m) @ t=0.06
1.8003366976734627
% es.Ey (V/m) @ t=0.06
0.11336026944643474
% es.Ez (V/m) @ t=0.06
0.7278074649474713
% es.tEx (V/m) @ t=0.06
1.8003366976734583
% es.tEy (V/m) @ t=0.06
0
% es.tEz (V/m) @ t=0.06
0.7278074649474693
% V (V) @ t=0.06
0.009717638451377155
% es.normE (V/m) @ t=0.08
1.9661991164361114
% es.EX (V/m) @ t=0.08
1.8170258481710215
% es.EY (V/m) @ t=0.08
0.11441112088518934
% es.EZ (V/m) @ t=0.08
0.73455425193296
% es.tEX (V/m) @ t=0.08
1.8170258481710189
% es.tEY (V/m) @ t=0.08
0
% es.tEZ (V/m) @ t=0.08
0.7345542519329626
% es.Ex (V/m) @ t=0.08
1.8170258481710215
% es.Ey (V/m) @ t=0.08
0.11441112088518934
% es.Ez (V/m) @ t=0.08
0.73455425193296
% es.tEx (V/m) @ t=0.08
1.8170258481710189
% es.tEy (V/m) @ t=0.08
0
% es.tEz (V/m) @ t=0.08
0.7345542519329626
% V (V) @ t=0.08
0.0098077211219729
% es.normE (V/m) @ t=0.1
1.984392238277804
% es.EX (V/m) @ t=0.1
1.83383867874789
% es.EY (V/m) @ t=0.1
0.1154697601212561
% es.EZ (V/m) @ t=0.1
0.7413510381487394
% es.tEX (V/m) @ t=0.1
1.8338386787479024
% es.tEY (V/m) @ t=0.1
0
% es.tEZ (V/m) @ t=0.1
0.7413510381487405
% es.Ex (V/m) @ t=0.1
1.83383867874789
% es.Ey (V/m) @ t=0.1
0.1154697601212561
% es.Ez (V/m) @ t=0.1
0.7413510381487394
% es.tEx (V/m) @ t=0.1
1.8338386787479024
% es.tEy (V/m) @ t=0.1
0
% es.tEz (V/m) @ t=0.1
0.7413510381487405
% V (V) @ t=0.1
0.009898471372474266
% es.normE (V/m) @ t=0.12
2.002585360119515
% es.EX (V/m) @ t=0.12
1.8506515093247726
% es.EY (V/m) @ t=0.12
0.11652839935732662
% es.EZ (V/m) @ t=0.12
0.7481478243645321
% es.tEX (V/m) @ t=0.12
1.8506515093247753
% es.tEY (V/m) @ t=0.12
0
% es.tEZ (V/m) @ t=0.12
0.7481478243645268
% es.Ex (V/m) @ t=0.12
1.8506515093247726
% es.Ey (V/m) @ t=0.12
0.11652839935732662
% es.Ez (V/m) @ t=0.12
0.7481478243645321
% es.tEx (V/m) @ t=0.12
1.8506515093247753
% es.tEy (V/m) @ t=0.12
0
% es.tEz (V/m) @ t=0.12
0.7481478243645268
% V (V) @ t=0.12
0.009989221622975634
% es.normE (V/m) @ t=0.14
2.02116036961123
% es.EX (V/m) @ t=0.14
1.867817254193782
% es.EY (V/m) @ t=0.14
0.1176092601894948
% es.EZ (V/m) @ t=0.14
0.7550872803157831
% es.tEX (V/m) @ t=0.14
1.8678172541937847
% es.tEY (V/m) @ t=0.14
0
% es.tEZ (V/m) @ t=0.14
0.7550872803157804
% es.Ex (V/m) @ t=0.14
1.867817254193782
% es.Ey (V/m) @ t=0.14
0.1176092601894948
% es.Ez (V/m) @ t=0.14
0.7550872803157831
% es.tEx (V/m) @ t=0.14
1.8678172541937847
% es.tEy (V/m) @ t=0.14
0
% es.tEz (V/m) @ t=0.14
0.7550872803157804
% V (V) @ t=0.14
0.010081876794133086
% es.normE (V/m) @ t=0.16
2.040291636454228
% es.EX (V/m) @ t=0.16
1.885497053836156
% es.EY (V/m) @ t=0.16
0.11872248898691495
% es.EZ (V/m) @ t=0.16
0.7622345489290541
% es.tEX (V/m) @ t=0.16
1.8854970538361595
% es.tEY (V/m) @ t=0.16
0
% es.tEZ (V/m) @ t=0.16
0.7622345489290487
% es.Ex (V/m) @ t=0.16
1.885497053836156
% es.Ey (V/m) @ t=0.16
0.11872248898691495
% es.Ez (V/m) @ t=0.16
0.7622345489290541
% es.tEx (V/m) @ t=0.16
1.8854970538361595
% es.tEy (V/m) @ t=0.16
0
% es.tEz (V/m) @ t=0.16
0.7622345489290487
% V (V) @ t=0.16
0.010177306671722055
% es.normE (V/m) @ t=0.18
2.0594229032972207
% es.EX (V/m) @ t=0.18
1.9031768534785236
% es.EY (V/m) @ t=0.18
0.11983571778432722
% es.EZ (V/m) @ t=0.18
0.7693818175423286
% es.tEX (V/m) @ t=0.18
1.90317685347852
% es.tEY (V/m) @ t=0.18
0
% es.tEZ (V/m) @ t=0.18
0.7693818175423277
% es.Ex (V/m) @ t=0.18
1.9031768534785236
% es.Ey (V/m) @ t=0.18
0.11983571778432722
% es.Ez (V/m) @ t=0.18
0.7693818175423286
% es.tEx (V/m) @ t=0.18
1.90317685347852
% es.tEy (V/m) @ t=0.18
0
% es.tEz (V/m) @ t=0.18
0.7693818175423277
% V (V) @ t=0.18
0.010272736549311025
% es.normE (V/m) @ t=0.2
2.078554170140217
% es.EX (V/m) @ t=0.2
1.920856653120893
% es.EY (V/m) @ t=0.2
0.12094894658174238
% es.EZ (V/m) @ t=0.2
0.7765290861556073
% es.tEX (V/m) @ t=0.2
1.9208566531209001
% es.tEY (V/m) @ t=0.2
0
% es.tEZ (V/m) @ t=0.2
0.7765290861556142
% es.Ex (V/m) @ t=0.2
1.920856653120893
% es.Ey (V/m) @ t=0.2
0.12094894658174238
% es.Ez (V/m) @ t=0.2
0.7765290861556073
% es.tEx (V/m) @ t=0.2
1.9208566531209001
% es.tEy (V/m) @ t=0.2
0
% es.tEz (V/m) @ t=0.2
0.7765290861556142
% V (V) @ t=0.2
0.010368166426899993
% es.normE (V/m) @ t=0.22
2.097685436983207
% es.EX (V/m) @ t=0.22
1.9385364527632607
% es.EY (V/m) @ t=0.22
0.1220621753791642
% es.EZ (V/m) @ t=0.22
0.7836763547688748
% es.tEX (V/m) @ t=0.22
1.9385364527632678
% es.tEY (V/m) @ t=0.22
0
% es.tEZ (V/m) @ t=0.22
0.7836763547688754
% es.Ex (V/m) @ t=0.22
1.9385364527632607
% es.Ey (V/m) @ t=0.22
0.1220621753791642
% es.Ez (V/m) @ t=0.22
0.7836763547688748
% es.tEx (V/m) @ t=0.22
1.9385364527632678
% es.tEy (V/m) @ t=0.22
0
% es.tEz (V/m) @ t=0.22
0.7836763547688754
% V (V) @ t=0.22
0.010463596304488962
% es.normE (V/m) @ t=0.24
2.1168167038262093
% es.EX (V/m) @ t=0.24
1.9562162524056337
% es.EY (V/m) @ t=0.24
0.12317540417656692
% es.EZ (V/m) @ t=0.24
0.7908236233821622
% es.tEX (V/m) @ t=0.24
1.9562162524056408
% es.tEY (V/m) @ t=0.24
0
% es.tEZ (V/m) @ t=0.24
0.7908236233821695
% es.Ex (V/m) @ t=0.24
1.9562162524056337
% es.Ey (V/m) @ t=0.24
0.12317540417656692
% es.Ez (V/m) @ t=0.24
0.7908236233821622
% es.tEx (V/m) @ t=0.24
1.9562162524056408
% es.tEy (V/m) @ t=0.24
0
% es.tEz (V/m) @ t=0.24
0.7908236233821695
% V (V) @ t=0.24
0.010559026182077932
% es.normE (V/m) @ t=0.26
2.135947970669195
% es.EX (V/m) @ t=0.26
1.973896052047997
% es.EY (V/m) @ t=0.26
0.12428863297398807
% es.EZ (V/m) @ t=0.26
0.7979708919954269
% es.tEX (V/m) @ t=0.26
1.9738960520479978
% es.tEY (V/m) @ t=0.26
0
% es.tEZ (V/m) @ t=0.26
0.7979708919954396
% es.Ex (V/m) @ t=0.26
1.973896052047997
% es.Ey (V/m) @ t=0.26
0.12428863297398807
% es.Ez (V/m) @ t=0.26
0.7979708919954269
% es.tEx (V/m) @ t=0.26
1.9738960520479978
% es.tEy (V/m) @ t=0.26
0
% es.tEz (V/m) @ t=0.26
0.7979708919954396
% V (V) @ t=0.26
0.0106544560596669
% es.normE (V/m) @ t=0.28
2.1568105306534484
% es.EX (V/m) @ t=0.28
1.9931757935336396
% es.EY (V/m) @ t=0.28
0.12550260974134264
% es.EZ (V/m) @ t=0.28
0.8057649561188869
% es.tEX (V/m) @ t=0.28
1.9931757935336396
% es.tEY (V/m) @ t=0.28
0
% es.tEZ (V/m) @ t=0.28
0.8057649561188849
% es.Ex (V/m) @ t=0.28
1.9931757935336396
% es.Ey (V/m) @ t=0.28
0.12550260974134264
% es.Ez (V/m) @ t=0.28
0.8057649561188869
% es.tEx (V/m) @ t=0.28
1.9931757935336396
% es.tEy (V/m) @ t=0.28
0
% es.tEz (V/m) @ t=0.28
0.8057649561188849
% V (V) @ t=0.28
0.010758521798600124
% es.normE (V/m) @ t=0.3
2.178043450129307
% es.EX (V/m) @ t=0.3
2.012797795745417
% es.EY (V/m) @ t=0.3
0.12673813858790306
% es.EZ (V/m) @ t=0.3
0.8136973832096566
% es.tEX (V/m) @ t=0.3
2.012797795745408
% es.tEY (V/m) @ t=0.3
0
% es.tEZ (V/m) @ t=0.3
0.8136973832096612
% es.Ex (V/m) @ t=0.3
2.012797795745417
% es.Ey (V/m) @ t=0.3
0.12673813858790306
% es.Ez (V/m) @ t=0.3
0.8136973832096566
% es.tEx (V/m) @ t=0.3
2.012797795745408
% es.tEy (V/m) @ t=0.3
0
% es.tEz (V/m) @ t=0.3
0.8136973832096612
% V (V) @ t=0.3
0.010864434927291219
% es.normE (V/m) @ t=0.32
2.1992763696051627
% es.EX (V/m) @ t=0.32
2.0324197979571856
% es.EY (V/m) @ t=0.32
0.1279736674344759
% es.EZ (V/m) @ t=0.32
0.8216298103004405
% es.tEX (V/m) @ t=0.32
2.0324197979571856
% es.tEY (V/m) @ t=0.32
0
% es.tEZ (V/m) @ t=0.32
0.8216298103004429
% es.Ex (V/m) @ t=0.32
2.0324197979571856
% es.Ey (V/m) @ t=0.32
0.1279736674344759
% es.Ez (V/m) @ t=0.32
0.8216298103004405
% es.tEx (V/m) @ t=0.32
2.0324197979571856
% es.tEy (V/m) @ t=0.32
0
% es.tEz (V/m) @ t=0.32
0.8216298103004429
% V (V) @ t=0.32
0.010970348055982314
% es.normE (V/m) @ t=0.34
2.220509289081008
% es.EX (V/m) @ t=0.34
2.0520418001689515
% es.EY (V/m) @ t=0.34
0.129209196281048
% es.EZ (V/m) @ t=0.34
0.8295622373912008
% es.tEX (V/m) @ t=0.34
2.0520418001689666
% es.tEY (V/m) @ t=0.34
0
% es.tEZ (V/m) @ t=0.34
0.8295622373912059
% es.Ex (V/m) @ t=0.34
2.0520418001689515
% es.Ey (V/m) @ t=0.34
0.129209196281048
% es.Ez (V/m) @ t=0.34
0.8295622373912008
% es.tEx (V/m) @ t=0.34
2.0520418001689666
% es.tEy (V/m) @ t=0.34
0
% es.tEz (V/m) @ t=0.34
0.8295622373912059
% V (V) @ t=0.34
0.011076261184673404
% es.normE (V/m) @ t=0.36
2.24174220855687
% es.EX (V/m) @ t=0.36
2.071663802380736
% es.EY (V/m) @ t=0.36
0.13044472512760819
% es.EZ (V/m) @ t=0.36
0.8374946644819621
% es.tEX (V/m) @ t=0.36
2.0716638023807423
% es.tEY (V/m) @ t=0.36
0
% es.tEZ (V/m) @ t=0.36
0.8374946644819588
% es.Ex (V/m) @ t=0.36
2.071663802380736
% es.Ey (V/m) @ t=0.36
0.13044472512760819
% es.Ez (V/m) @ t=0.36
0.8374946644819621
% es.tEx (V/m) @ t=0.36
2.0716638023807423
% es.tEy (V/m) @ t=0.36
0
% es.tEz (V/m) @ t=0.36
0.8374946644819588
% V (V) @ t=0.36
0.0111821743133645
% es.normE (V/m) @ t=0.38
2.2629751280327266
% es.EX (V/m) @ t=0.38
2.091285804592503
% es.EY (V/m) @ t=0.38
0.13168025397418548
% es.EZ (V/m) @ t=0.38
0.8454270915727504
% es.tEX (V/m) @ t=0.38
2.0912858045925073
% es.tEY (V/m) @ t=0.38
0
% es.tEZ (V/m) @ t=0.38
0.8454270915727493
% es.Ex (V/m) @ t=0.38
2.091285804592503
% es.Ey (V/m) @ t=0.38
0.13168025397418548
% es.Ez (V/m) @ t=0.38
0.8454270915727504
% es.tEx (V/m) @ t=0.38
2.0912858045925073
% es.tEy (V/m) @ t=0.38
0
% es.tEz (V/m) @ t=0.38
0.8454270915727493
% V (V) @ t=0.38
0.011288087442055592
% es.normE (V/m) @ t=0.4
2.284208047508583
% es.EX (V/m) @ t=0.4
2.1109078068042813
% es.EY (V/m) @ t=0.4
0.13291578282074756
% es.EZ (V/m) @ t=0.4
0.8533595186635117
% es.tEX (V/m) @ t=0.4
2.1109078068042813
% es.tEY (V/m) @ t=0.4
0
% es.tEZ (V/m) @ t=0.4
0.8533595186635226
% es.Ex (V/m) @ t=0.4
2.1109078068042813
% es.Ey (V/m) @ t=0.4
0.13291578282074756
% es.Ez (V/m) @ t=0.4
0.8533595186635117
% es.tEx (V/m) @ t=0.4
2.1109078068042813
% es.tEy (V/m) @ t=0.4
0
% es.tEz (V/m) @ t=0.4
0.8533595186635226
% V (V) @ t=0.4
0.011394000570746687
% es.normE (V/m) @ t=0.42
2.3054409669844436
% es.EX (V/m) @ t=0.42
2.1305298090160534
% es.EY (V/m) @ t=0.42
0.1341513116673303
% es.EZ (V/m) @ t=0.42
0.8612919457542969
% es.tEX (V/m) @ t=0.42
2.130529809016057
% es.tEY (V/m) @ t=0.42
0
% es.tEZ (V/m) @ t=0.42
0.8612919457543002
% es.Ex (V/m) @ t=0.42
2.1305298090160534
% es.Ey (V/m) @ t=0.42
0.1341513116673303
% es.Ez (V/m) @ t=0.42
0.8612919457542969
% es.tEx (V/m) @ t=0.42
2.130529809016057
% es.tEy (V/m) @ t=0.42
0
% es.tEz (V/m) @ t=0.42
0.8612919457543002
% V (V) @ t=0.42
0.011499913699437776
% es.normE (V/m) @ t=0.44
2.326673886460294
% es.EX (V/m) @ t=0.44
2.1501518112278255
% es.EY (V/m) @ t=0.44
0.13538684051387917
% es.EZ (V/m) @ t=0.44
0.8692243728450584
% es.tEX (V/m) @ t=0.44
2.1501518112278237
% es.tEY (V/m) @ t=0.44
0
% es.tEZ (V/m) @ t=0.44
0.8692243728450522
% es.Ex (V/m) @ t=0.44
2.1501518112278255
% es.Ey (V/m) @ t=0.44
0.13538684051387917
% es.Ez (V/m) @ t=0.44
0.8692243728450584
% es.tEx (V/m) @ t=0.44
2.1501518112278237
% es.tEy (V/m) @ t=0.44
0
% es.tEz (V/m) @ t=0.44
0.8692243728450522
% V (V) @ t=0.44
0.011605826828128872
% es.normE (V/m) @ t=0.46
2.347906805936157
% es.EX (V/m) @ t=0.46
2.1697738134395994
% es.EY (V/m) @ t=0.46
0.13662236936045724
% es.EZ (V/m) @ t=0.46
0.877156799935846
% es.tEX (V/m) @ t=0.46
2.169773813439603
% es.tEY (V/m) @ t=0.46
0
% es.tEZ (V/m) @ t=0.46
0.8771567999358423
% es.Ex (V/m) @ t=0.46
2.1697738134395994
% es.Ey (V/m) @ t=0.46
0.13662236936045724
% es.Ez (V/m) @ t=0.46
0.877156799935846
% es.tEx (V/m) @ t=0.46
2.169773813439603
% es.tEy (V/m) @ t=0.46
0
% es.tEz (V/m) @ t=0.46
0.8771567999358423
% V (V) @ t=0.46
0.011711739956819966
% es.normE (V/m) @ t=0.48
2.369139725412005
% es.EX (V/m) @ t=0.48
2.189395815651367
% es.EY (V/m) @ t=0.48
0.13785789820702554
% es.EZ (V/m) @ t=0.48
0.8850892270266113
% es.tEX (V/m) @ t=0.48
2.1893958156513698
% es.tEY (V/m) @ t=0.48
0
% es.tEZ (V/m) @ t=0.48
0.8850892270266084
% es.Ex (V/m) @ t=0.48
2.189395815651367
% es.Ey (V/m) @ t=0.48
0.13785789820702554
% es.Ez (V/m) @ t=0.48
0.8850892270266113
% es.tEx (V/m) @ t=0.48
2.1893958156513698
% es.tEy (V/m) @ t=0.48
0
% es.tEz (V/m) @ t=0.48
0.8850892270266084
% V (V) @ t=0.48
0.011817653085511057
% es.normE (V/m) @ t=0.5
2.390372644887859
% es.EX (V/m) @ t=0.5
2.209017817863141
% es.EY (V/m) @ t=0.5
0.1390934270535823
% es.EZ (V/m) @ t=0.5
0.8930216541173766
% es.tEX (V/m) @ t=0.5
2.2090178178631454
% es.tEY (V/m) @ t=0.5
0
% es.tEZ (V/m) @ t=0.5
0.8930216541173688
% es.Ex (V/m) @ t=0.5
2.209017817863141
% es.Ey (V/m) @ t=0.5
0.1390934270535823
% es.Ez (V/m) @ t=0.5
0.8930216541173766
% es.tEx (V/m) @ t=0.5
2.2090178178631454
% es.tEy (V/m) @ t=0.5
0
% es.tEz (V/m) @ t=0.5
0.8930216541173688
% V (V) @ t=0.5
0.011923566214202153
% es.normE (V/m) @ t=0.52
2.4116055643637293
% es.EX (V/m) @ t=0.52
2.228639820074924
% es.EY (V/m) @ t=0.52
0.14032895590016226
% es.EZ (V/m) @ t=0.52
0.9009540812081622
% es.tEX (V/m) @ t=0.52
2.2286398200749176
% es.tEY (V/m) @ t=0.52
0
% es.tEZ (V/m) @ t=0.52
0.9009540812081611
% es.Ex (V/m) @ t=0.52
2.228639820074924
% es.Ey (V/m) @ t=0.52
0.14032895590016226
% es.Ez (V/m) @ t=0.52
0.9009540812081622
% es.tEx (V/m) @ t=0.52
2.2286398200749176
% es.tEy (V/m) @ t=0.52
0
% es.tEz (V/m) @ t=0.52
0.9009540812081611
% V (V) @ t=0.52
0.012029479342893244
% es.normE (V/m) @ t=0.54
2.434397286786438
% es.EX (V/m) @ t=0.54
2.249702360888037
% es.EY (V/m) @ t=0.54
0.14165518661624488
% es.EZ (V/m) @ t=0.54
0.9094688625249143
% es.tEX (V/m) @ t=0.54
2.249702360888037
% es.tEY (V/m) @ t=0.54
0
% es.tEZ (V/m) @ t=0.54
0.909468862524911
% es.Ex (V/m) @ t=0.54
2.249702360888037
% es.Ey (V/m) @ t=0.54
0.14165518661624488
% es.Ez (V/m) @ t=0.54
0.9094688625249143
% es.tEx (V/m) @ t=0.54
2.249702360888037
% es.tEy (V/m) @ t=0.54
0
% es.tEz (V/m) @ t=0.54
0.909468862524911
% V (V) @ t=0.54
0.01214316812033073
% es.normE (V/m) @ t=0.56
2.458002100369616
% es.EX (V/m) @ t=0.56
2.271516304696263
% es.EY (V/m) @ t=0.56
0.14302872856463644
% es.EZ (V/m) @ t=0.56
0.9182874071071754
% es.tEX (V/m) @ t=0.56
2.2715163046962648
% es.tEY (V/m) @ t=0.56
0
% es.tEZ (V/m) @ t=0.56
0.9182874071071634
% es.Ex (V/m) @ t=0.56
2.271516304696263
% es.Ey (V/m) @ t=0.56
0.14302872856463644
% es.Ez (V/m) @ t=0.56
0.9182874071071754
% es.tEx (V/m) @ t=0.56
2.2715163046962648
% es.tEy (V/m) @ t=0.56
0
% es.tEz (V/m) @ t=0.56
0.9182874071071634
% V (V) @ t=0.56
0.012260912773640937
% es.normE (V/m) @ t=0.58
2.481606913952789
% es.EX (V/m) @ t=0.58
2.2933302485044837
% es.EY (V/m) @ t=0.58
0.14440227051303878
% es.EZ (V/m) @ t=0.58
0.9271059516894331
% es.tEX (V/m) @ t=0.58
2.293330248504482
% es.tEY (V/m) @ t=0.58
0
% es.tEZ (V/m) @ t=0.58
0.9271059516894384
% es.Ex (V/m) @ t=0.58
2.2933302485044837
% es.Ey (V/m) @ t=0.58
0.14440227051303878
% es.Ez (V/m) @ t=0.58
0.9271059516894331
% es.tEx (V/m) @ t=0.58
2.293330248504482
% es.tEy (V/m) @ t=0.58
0
% es.tEz (V/m) @ t=0.58
0.9271059516894384
% V (V) @ t=0.58
0.012378657426951139
% es.normE (V/m) @ t=0.6
2.5052117275359715
% es.EX (V/m) @ t=0.6
2.3151441923127125
% es.EY (V/m) @ t=0.6
0.14577581246141724
% es.EZ (V/m) @ t=0.6
0.9359244962717002
% es.tEX (V/m) @ t=0.6
2.31514419231271
% es.tEY (V/m) @ t=0.6
0
% es.tEZ (V/m) @ t=0.6
0.9359244962717028
% es.Ex (V/m) @ t=0.6
2.3151441923127125
% es.Ey (V/m) @ t=0.6
0.14577581246141724
% es.Ez (V/m) @ t=0.6
0.9359244962717002
% es.tEx (V/m) @ t=0.6
2.31514419231271
% es.tEy (V/m) @ t=0.6
0
% es.tEz (V/m) @ t=0.6
0.9359244962717028
% V (V) @ t=0.6
0.012496402080261343
% es.normE (V/m) @ t=0.62
2.528816541119131
% es.EX (V/m) @ t=0.62
2.3369581361209217
% es.EY (V/m) @ t=0.62
0.14714935440982135
% es.EZ (V/m) @ t=0.62
0.9447430408539494
% es.tEX (V/m) @ t=0.62
2.3369581361209253
% es.tEY (V/m) @ t=0.62
0
% es.tEZ (V/m) @ t=0.62
0.9447430408539459
% es.Ex (V/m) @ t=0.62
2.3369581361209217
% es.Ey (V/m) @ t=0.62
0.14714935440982135
% es.Ez (V/m) @ t=0.62
0.9447430408539494
% es.tEx (V/m) @ t=0.62
2.3369581361209253
% es.tEy (V/m) @ t=0.62
0
% es.tEz (V/m) @ t=0.62
0.9447430408539459
% V (V) @ t=0.62
0.012614146733571547
% es.normE (V/m) @ t=0.64
2.552421354702327
% es.EX (V/m) @ t=0.64
2.3587720799291674
% es.EY (V/m) @ t=0.64
0.14852289635821225
% es.EZ (V/m) @ t=0.64
0.9535615854362125
% es.tEX (V/m) @ t=0.64
2.3587720799291567
% es.tEY (V/m) @ t=0.64
0
% es.tEZ (V/m) @ t=0.64
0.9535615854362103
% es.Ex (V/m) @ t=0.64
2.3587720799291674
% es.Ey (V/m) @ t=0.64
0.14852289635821225
% es.Ez (V/m) @ t=0.64
0.9535615854362125
% es.tEx (V/m) @ t=0.64
2.3587720799291567
% es.tEy (V/m) @ t=0.64
0
% es.tEz (V/m) @ t=0.64
0.9535615854362103
% V (V) @ t=0.64
0.012731891386881751
% es.normE (V/m) @ t=0.66
2.5760261682854813
% es.EX (V/m) @ t=0.66
2.3805860237373713
% es.EY (V/m) @ t=0.66
0.14989643830661814
% es.EZ (V/m) @ t=0.66
0.9623801300184622
% es.tEX (V/m) @ t=0.66
2.3805860237373704
% es.tEY (V/m) @ t=0.66
0
% es.tEZ (V/m) @ t=0.66
0.9623801300184613
% es.Ex (V/m) @ t=0.66
2.3805860237373713
% es.Ey (V/m) @ t=0.66
0.14989643830661814
% es.Ez (V/m) @ t=0.66
0.9623801300184622
% es.tEx (V/m) @ t=0.66
2.3805860237373704
% es.tEy (V/m) @ t=0.66
0
% es.tEz (V/m) @ t=0.66
0.9623801300184613
% V (V) @ t=0.66
0.012849636040191957
% es.normE (V/m) @ t=0.68
2.599630981868652
% es.EX (V/m) @ t=0.68
2.402399967545591
% es.EY (V/m) @ t=0.68
0.15126998025500882
% es.EZ (V/m) @ t=0.68
0.97119867460072
% es.tEX (V/m) @ t=0.68
2.402399967545591
% es.tEY (V/m) @ t=0.68
0
% es.tEZ (V/m) @ t=0.68
0.9711986746007142
% es.Ex (V/m) @ t=0.68
2.402399967545591
% es.Ey (V/m) @ t=0.68
0.15126998025500882
% es.Ez (V/m) @ t=0.68
0.97119867460072
% es.tEx (V/m) @ t=0.68
2.402399967545591
% es.tEy (V/m) @ t=0.68
0
% es.tEz (V/m) @ t=0.68
0.9711986746007142
% V (V) @ t=0.68
0.012967380693502159
% es.normE (V/m) @ t=0.7
2.623235795451814
% es.EX (V/m) @ t=0.7
2.4242139113538057
% es.EY (V/m) @ t=0.7
0.15264352220339528
% es.EZ (V/m) @ t=0.7
0.9800172191829661
% es.tEX (V/m) @ t=0.7
2.424213911353812
% es.tEY (V/m) @ t=0.7
0
% es.tEZ (V/m) @ t=0.7
0.9800172191829732
% es.Ex (V/m) @ t=0.7
2.4242139113538057
% es.Ey (V/m) @ t=0.7
0.15264352220339528
% es.Ez (V/m) @ t=0.7
0.9800172191829661
% es.tEx (V/m) @ t=0.7
2.424213911353812
% es.tEy (V/m) @ t=0.7
0
% es.tEz (V/m) @ t=0.7
0.9800172191829732
% V (V) @ t=0.7
0.013085125346812361
% es.normE (V/m) @ t=0.72
2.6468406090350056
% es.EX (V/m) @ t=0.72
2.4460278551620434
% es.EY (V/m) @ t=0.72
0.15401706415178695
% es.EZ (V/m) @ t=0.72
0.9888357637652376
% es.tEX (V/m) @ t=0.72
2.4460278551620416
% es.tEY (V/m) @ t=0.72
0
% es.tEZ (V/m) @ t=0.72
0.9888357637652394
% es.Ex (V/m) @ t=0.72
2.4460278551620434
% es.Ey (V/m) @ t=0.72
0.15401706415178695
% es.Ez (V/m) @ t=0.72
0.9888357637652376
% es.tEx (V/m) @ t=0.72
2.4460278551620416
% es.tEy (V/m) @ t=0.72
0
% es.tEz (V/m) @ t=0.72
0.9888357637652394
% V (V) @ t=0.72
0.013202870000122564
% es.normE (V/m) @ t=0.74
2.6704454226181626
% es.EX (V/m) @ t=0.74
2.46784179897025
% es.EY (V/m) @ t=0.74
0.1553906061001875
% es.EZ (V/m) @ t=0.74
0.9976543083474887
% es.tEX (V/m) @ t=0.74
2.4678417989702517
% es.tEY (V/m) @ t=0.74
0
% es.tEZ (V/m) @ t=0.74
0.997654308347486
% es.Ex (V/m) @ t=0.74
2.46784179897025
% es.Ey (V/m) @ t=0.74
0.1553906061001875
% es.Ez (V/m) @ t=0.74
0.9976543083474887
% es.tEx (V/m) @ t=0.74
2.4678417989702517
% es.tEy (V/m) @ t=0.74
0
% es.tEz (V/m) @ t=0.74
0.997654308347486
% V (V) @ t=0.74
0.013320614653432768
% es.normE (V/m) @ t=0.76
2.6940502362013348
% es.EX (V/m) @ t=0.76
2.4896557427784716
% es.EY (V/m) @ t=0.76
0.15676414804856864
% es.EZ (V/m) @ t=0.76
1.0064728529297464
% es.tEX (V/m) @ t=0.76
2.4896557427784796
% es.tEY (V/m) @ t=0.76
0
% es.tEZ (V/m) @ t=0.76
1.0064728529297469
% es.Ex (V/m) @ t=0.76
2.4896557427784716
% es.Ey (V/m) @ t=0.76
0.15676414804856864
% es.Ez (V/m) @ t=0.76
1.0064728529297464
% es.tEx (V/m) @ t=0.76
2.4896557427784796
% es.tEy (V/m) @ t=0.76
0
% es.tEz (V/m) @ t=0.76
1.0064728529297469
% V (V) @ t=0.76
0.013438359306742975
% es.normE (V/m) @ t=0.78
2.717655049784498
% es.EX (V/m) @ t=0.78
2.5114696865866897
% es.EY (V/m) @ t=0.78
0.15813768999696032
% es.EZ (V/m) @ t=0.78
1.0152913975119855
% es.tEX (V/m) @ t=0.78
2.511469686586695
% es.tEY (V/m) @ t=0.78
0
% es.tEZ (V/m) @ t=0.78
1.0152913975119837
% es.Ex (V/m) @ t=0.78
2.5114696865866897
% es.Ey (V/m) @ t=0.78
0.15813768999696032
% es.Ez (V/m) @ t=0.78
1.0152913975119855
% es.tEx (V/m) @ t=0.78
2.511469686586695
% es.tEy (V/m) @ t=0.78
0
% es.tEz (V/m) @ t=0.78
1.0152913975119837
% V (V) @ t=0.78
0.013556103960053177
% es.normE (V/m) @ t=0.8
2.742575462666384
% es.EX (V/m) @ t=0.8
2.5344994167560673
% es.EY (V/m) @ t=0.8
0.15958778444182986
% es.EZ (V/m) @ t=0.8
1.0246014379805595
% es.tEX (V/m) @ t=0.8
2.5344994167560735
% es.tEY (V/m) @ t=0.8
0
% es.tEZ (V/m) @ t=0.8
1.024601437980567
% es.Ex (V/m) @ t=0.8
2.5344994167560673
% es.Ey (V/m) @ t=0.8
0.15958778444182986
% es.Ez (V/m) @ t=0.8
1.0246014379805595
% es.tEx (V/m) @ t=0.8
2.5344994167560735
% es.tEy (V/m) @ t=0.8
0
% es.tEz (V/m) @ t=0.8
1.024601437980567
% V (V) @ t=0.8
0.013680411057071063
% es.normE (V/m) @ t=0.82
2.768861790571354
% es.EX (V/m) @ t=0.82
2.558791431617437
% es.EY (V/m) @ t=0.82
0.16111735917002146
% es.EZ (V/m) @ t=0.82
1.0344217718306812
% es.tEX (V/m) @ t=0.82
2.5587914316174416
% es.tEY (V/m) @ t=0.82
0
% es.tEZ (V/m) @ t=0.82
1.0344217718306865
% es.Ex (V/m) @ t=0.82
2.558791431617437
% es.Ey (V/m) @ t=0.82
0.16111735917002146
% es.Ez (V/m) @ t=0.82
1.0344217718306812
% es.tEx (V/m) @ t=0.82
2.5587914316174416
% es.tEy (V/m) @ t=0.82
0
% es.tEz (V/m) @ t=0.82
1.0344217718306865
% V (V) @ t=0.82
0.013811531581594764
% es.normE (V/m) @ t=0.84
2.7951481184763187
% es.EX (V/m) @ t=0.84
2.5830834464788115
% es.EY (V/m) @ t=0.84
0.1626469338982106
% es.EZ (V/m) @ t=0.84
1.0442421056807767
% es.tEX (V/m) @ t=0.84
2.5830834464788133
% es.tEY (V/m) @ t=0.84
0
% es.tEZ (V/m) @ t=0.84
1.0442421056807767
% es.Ex (V/m) @ t=0.84
2.5830834464788115
% es.Ey (V/m) @ t=0.84
0.1626469338982106
% es.Ez (V/m) @ t=0.84
1.0442421056807767
% es.tEx (V/m) @ t=0.84
2.5830834464788133
% es.tEy (V/m) @ t=0.84
0
% es.tEz (V/m) @ t=0.84
1.0442421056807767
% V (V) @ t=0.84
0.01394265210611846
% es.normE (V/m) @ t=0.86
2.8214344463812773
% es.EX (V/m) @ t=0.86
2.6073754613401743
% es.EY (V/m) @ t=0.86
0.16417650862641786
% es.EZ (V/m) @ t=0.86
1.054062439530881
% es.tEX (V/m) @ t=0.86
2.6073754613401725
% es.tEY (V/m) @ t=0.86
0
% es.tEZ (V/m) @ t=0.86
1.0540624395308829
% es.Ex (V/m) @ t=0.86
2.6073754613401743
% es.Ey (V/m) @ t=0.86
0.16417650862641786
% es.Ez (V/m) @ t=0.86
1.054062439530881
% es.tEx (V/m) @ t=0.86
2.6073754613401725
% es.tEy (V/m) @ t=0.86
0
% es.tEz (V/m) @ t=0.86
1.0540624395308829
% V (V) @ t=0.86
0.014073772630642158
% es.normE (V/m) @ t=0.88
2.8477207742862354
% es.EX (V/m) @ t=0.88
2.6316674762015317
% es.EY (V/m) @ t=0.88
0.16570608335459347
% es.EZ (V/m) @ t=0.88
1.0638827733810063
% es.tEX (V/m) @ t=0.88
2.63166747620153
% es.tEY (V/m) @ t=0.88
0
% es.tEZ (V/m) @ t=0.88
1.0638827733810103
% es.Ex (V/m) @ t=0.88
2.6316674762015317
% es.Ey (V/m) @ t=0.88
0.16570608335459347
% es.Ez (V/m) @ t=0.88
1.0638827733810063
% es.tEx (V/m) @ t=0.88
2.63166747620153
% es.tEy (V/m) @ t=0.88
0
% es.tEz (V/m) @ t=0.88
1.0638827733810103
% V (V) @ t=0.88
0.014204893155165857
% es.normE (V/m) @ t=0.9
2.8740071021912006
% es.EX (V/m) @ t=0.9
2.6559594910629034
% es.EY (V/m) @ t=0.9
0.1672356580827954
% es.EZ (V/m) @ t=0.9
1.0737031072311058
% es.tEX (V/m) @ t=0.9
2.6559594910628928
% es.tEY (V/m) @ t=0.9
0
% es.tEZ (V/m) @ t=0.9
1.0737031072310996
% es.Ex (V/m) @ t=0.9
2.6559594910629034
% es.Ey (V/m) @ t=0.9
0.1672356580827954
% es.Ez (V/m) @ t=0.9
1.0737031072311058
% es.tEx (V/m) @ t=0.9
2.6559594910628928
% es.tEy (V/m) @ t=0.9
0
% es.tEz (V/m) @ t=0.9
1.0737031072310996
% V (V) @ t=0.9
0.014336013679689553
% es.normE (V/m) @ t=0.92
2.9002934300961645
% es.EX (V/m) @ t=0.92
2.6802515059242715
% es.EY (V/m) @ t=0.92
0.168765232810976
% es.EZ (V/m) @ t=0.92
1.0835234410812191
% es.tEX (V/m) @ t=0.92
2.680251505924277
% es.tEY (V/m) @ t=0.92
0
% es.tEZ (V/m) @ t=0.92
1.0835234410812173
% es.Ex (V/m) @ t=0.92
2.6802515059242715
% es.Ey (V/m) @ t=0.92
0.168765232810976
% es.Ez (V/m) @ t=0.92
1.0835234410812191
% es.tEx (V/m) @ t=0.92
2.680251505924277
% es.tEy (V/m) @ t=0.92
0
% es.tEz (V/m) @ t=0.92
1.0835234410812173
% V (V) @ t=0.92
0.014467134204213253
% es.normE (V/m) @ t=0.94
2.92657975800112
% es.EX (V/m) @ t=0.94
2.704543520785635
% es.EY (V/m) @ t=0.94
0.17029480753917248
% es.EZ (V/m) @ t=0.94
1.0933437749313137
% es.tEX (V/m) @ t=0.94
2.704543520785645
% es.tEY (V/m) @ t=0.94
0
% es.tEZ (V/m) @ t=0.94
1.093343774931312
% es.Ex (V/m) @ t=0.94
2.704543520785635
% es.Ey (V/m) @ t=0.94
0.17029480753917248
% es.Ez (V/m) @ t=0.94
1.0933437749313137
% es.tEx (V/m) @ t=0.94
2.704543520785645
% es.tEy (V/m) @ t=0.94
0
% es.tEz (V/m) @ t=0.94
1.093343774931312
% V (V) @ t=0.94
0.014598254728736954
% es.normE (V/m) @ t=0.96
2.9528660859060682
% es.EX (V/m) @ t=0.96
2.728835535646983
% es.EY (V/m) @ t=0.96
0.17182438226736219
% es.EZ (V/m) @ t=0.96
1.1031641087814323
% es.tEX (V/m) @ t=0.96
2.728835535646983
% es.tEY (V/m) @ t=0.96
0
% es.tEZ (V/m) @ t=0.96
1.1031641087814323
% es.Ex (V/m) @ t=0.96
2.728835535646983
% es.Ey (V/m) @ t=0.96
0.17182438226736219
% es.Ez (V/m) @ t=0.96
1.1031641087814323
% es.tEx (V/m) @ t=0.96
2.728835535646983
% es.tEy (V/m) @ t=0.96
0
% es.tEz (V/m) @ t=0.96
1.1031641087814323
% V (V) @ t=0.96
0.01472937525326065
% es.normE (V/m) @ t=0.98
2.979152413811039
% es.EX (V/m) @ t=0.98
2.7531275505083617
% es.EY (V/m) @ t=0.98
0.17335395699555167
% es.EZ (V/m) @ t=0.98
1.1129844426315323
% es.tEX (V/m) @ t=0.98
2.75312755050836
% es.tEY (V/m) @ t=0.98
0
% es.tEZ (V/m) @ t=0.98
1.1129844426315305
% es.Ex (V/m) @ t=0.98
2.7531275505083617
% es.Ey (V/m) @ t=0.98
0.17335395699555167
% es.Ez (V/m) @ t=0.98
1.1129844426315323
% es.tEx (V/m) @ t=0.98
2.75312755050836
% es.tEy (V/m) @ t=0.98
0
% es.tEz (V/m) @ t=0.98
1.1129844426315305
% V (V) @ t=0.98
0.014860495777784347
% es.normE (V/m) @ t=1
3.005438741716006
% es.EX (V/m) @ t=1
2.777419565369737
% es.EY (V/m) @ t=1
0.17488353172373228
% es.EZ (V/m) @ t=1
1.1228047764816376
% es.tEX (V/m) @ t=1
2.777419565369737
% es.tEY (V/m) @ t=1
0
% es.tEZ (V/m) @ t=1
1.1228047764816464
% es.Ex (V/m) @ t=1
2.777419565369737
% es.Ey (V/m) @ t=1
0.17488353172373228
% es.Ez (V/m) @ t=1
1.1228047764816376
% es.tEx (V/m) @ t=1
2.777419565369737
% es.tEy (V/m) @ t=1
0
% es.tEz (V/m) @ t=1
1.1228047764816464
% V (V) @ t=1
0.014991616302308048
% es.normE (V/m) @ t=1.02
3.0317250696209674
% es.EX (V/m) @ t=1.02
2.8017115802310926
% es.EY (V/m) @ t=1.02
0.17641310645193098
% es.EZ (V/m) @ t=1.02
1.1326251103317704
% es.tEX (V/m) @ t=1.02
2.801711580231098
% es.tEY (V/m) @ t=1.02
0
% es.tEZ (V/m) @ t=1.02
1.132625110331774
% es.Ex (V/m) @ t=1.02
2.8017115802310926
% es.Ey (V/m) @ t=1.02
0.17641310645193098
% es.Ez (V/m) @ t=1.02
1.1326251103317704
% es.tEx (V/m) @ t=1.02
2.801711580231098
% es.tEy (V/m) @ t=1.02
0
% es.tEz (V/m) @ t=1.02
1.132625110331774
% V (V) @ t=1.02
0.015122736826831743
% es.normE (V/m) @ t=1.04
3.0580113975259313
% es.EX (V/m) @ t=1.04
2.8260035950924607
% es.EY (V/m) @ t=1.04
0.17794268118011325
% es.EZ (V/m) @ t=1.04
1.1424454441818792
% es.tEX (V/m) @ t=1.04
2.826003595092466
% es.tEY (V/m) @ t=1.04
0
% es.tEZ (V/m) @ t=1.04
1.1424454441818828
% es.Ex (V/m) @ t=1.04
2.8260035950924607
% es.Ey (V/m) @ t=1.04
0.17794268118011325
% es.Ez (V/m) @ t=1.04
1.1424454441818792
% es.tEx (V/m) @ t=1.04
2.826003595092466
% es.tEy (V/m) @ t=1.04
0
% es.tEz (V/m) @ t=1.04