% Model:              1 neuron.mph
% Version:            COMSOL 6.1.0.252
% Date:               Mar 22 2023, 20:03
% Dimension:          0
% Nodes:              14017
% Expressions:        14017
% Description:        Electric field norm, Electric field, X component, Electric field, Y component, Electric field, Z component, Tangential electric field, X component, Tangential electric field, Y component, Tangential electric field, Z component, Electric field, x component, Electric field, y component, Electric field, z component, Tangential electric field, x component, Tangential electric field, y component, Tangential electric field, z component, Electric potential
% Length unit:        mm
% x
1.66
% y
12.2
% z
2
% es.normE (V/m) @ t=0
2.1958850215550507
% es.EX (V/m) @ t=0
-0.655076994933248
% es.EY (V/m) @ t=0
0.04893180577526729
% es.EZ (V/m) @ t=0
-2.0918001625995206
% es.tEX (V/m) @ t=0
-0.6550769949332569
% es.tEY (V/m) @ t=0
0
% es.tEZ (V/m) @ t=0
-2.0918001625995455
% es.Ex (V/m) @ t=0
-0.655076994933248
% es.Ey (V/m) @ t=0
0.04893180577526729
% es.Ez (V/m) @ t=0
-2.0918001625995206
% es.tEx (V/m) @ t=0
-0.6550769949332569
% es.tEy (V/m) @ t=0
0
% es.tEz (V/m) @ t=0
-2.0918001625995455
% V (V) @ t=0
0.011037427557251588
% es.normE (V/m) @ t=0.02
1.8966162569414886
% es.EX (V/m) @ t=0.02
-0.565799058691143
% es.EY (V/m) @ t=0.02
0.04226307748684563
% es.EZ (V/m) @ t=0.02
-1.8067167249970866
% es.tEX (V/m) @ t=0.02
-0.5657990586911481
% es.tEY (V/m) @ t=0.02
0
% es.tEZ (V/m) @ t=0.02
-1.8067167249971057
% es.Ex (V/m) @ t=0.02
-0.565799058691143
% es.Ey (V/m) @ t=0.02
0.04226307748684563
% es.Ez (V/m) @ t=0.02
-1.8067167249970866
% es.tEx (V/m) @ t=0.02
-0.5657990586911481
% es.tEy (V/m) @ t=0.02
0
% es.tEz (V/m) @ t=0.02
-1.8067167249971057
% V (V) @ t=0.02
0.00953317879587287
% es.normE (V/m) @ t=0.04
1.9140709072253037
% es.EX (V/m) @ t=0.04
-0.5710061344816706
% es.EY (V/m) @ t=0.04
0.042652026251789946
% es.EZ (V/m) @ t=0.04
-1.8233440256187317
% es.tEX (V/m) @ t=0.04
-0.5710061344816708
% es.tEY (V/m) @ t=0.04
0
% es.tEZ (V/m) @ t=0.04
-1.8233440256187512
% es.Ex (V/m) @ t=0.04
-0.5710061344816706
% es.Ey (V/m) @ t=0.04
0.042652026251789946
% es.Ez (V/m) @ t=0.04
-1.8233440256187317
% es.tEx (V/m) @ t=0.04
-0.5710061344816708
% es.tEy (V/m) @ t=0.04
0
% es.tEz (V/m) @ t=0.04
-1.8233440256187512
% V (V) @ t=0.04
0.00962091310755592
% es.normE (V/m) @ t=0.06
1.931663202163349
% es.EX (V/m) @ t=0.06
-0.5762542723072996
% es.EY (V/m) @ t=0.06
0.04304404085557391
% es.EZ (V/m) @ t=0.06
-1.840102446669364
% es.tEX (V/m) @ t=0.06
-0.5762542723073096
% es.tEY (V/m) @ t=0.06
0
% es.tEZ (V/m) @ t=0.06
-1.8401024466693885
% es.Ex (V/m) @ t=0.06
-0.5762542723072996
% es.Ey (V/m) @ t=0.06
0.04304404085557391
% es.Ez (V/m) @ t=0.06
-1.840102446669364
% es.tEx (V/m) @ t=0.06
-0.5762542723073096
% es.tEy (V/m) @ t=0.06
0
% es.tEz (V/m) @ t=0.06
-1.8401024466693885
% V (V) @ t=0.06
0.00970933931680107
% es.normE (V/m) @ t=0.08
1.9495696150153123
% es.EX (V/m) @ t=0.08
-0.5815961180570894
% es.EY (V/m) @ t=0.08
0.04344305657682922
% es.EZ (V/m) @ t=0.08
-1.8571600963143826
% es.tEX (V/m) @ t=0.08
-0.5815961180570923
% es.tEY (V/m) @ t=0.08
0
% es.tEZ (V/m) @ t=0.08
-1.8571600963144137
% es.Ex (V/m) @ t=0.08
-0.5815961180570894
% es.Ey (V/m) @ t=0.08
0.04344305657682922
% es.Ez (V/m) @ t=0.08
-1.8571600963143826
% es.tEx (V/m) @ t=0.08
-0.5815961180570923
% es.tEy (V/m) @ t=0.08
0
% es.tEz (V/m) @ t=0.08
-1.8571600963144137
% V (V) @ t=0.08
0.009799344369916292
% es.normE (V/m) @ t=0.1
1.9675995555750725
% es.EX (V/m) @ t=0.1
-0.5869748146980773
% es.EY (V/m) @ t=0.1
0.04384482550621012
% es.EZ (V/m) @ t=0.1
-1.8743354184025693
% es.tEX (V/m) @ t=0.1
-0.5869748146980776
% es.tEY (V/m) @ t=0.1
0
% es.tEZ (V/m) @ t=0.1
-1.8743354184025813
% es.Ex (V/m) @ t=0.1
-0.5869748146980773
% es.Ey (V/m) @ t=0.1
0.04384482550621012
% es.Ez (V/m) @ t=0.1
-1.8743354184025693
% es.tEx (V/m) @ t=0.1
-0.5869748146980776
% es.tEy (V/m) @ t=0.1
0
% es.tEz (V/m) @ t=0.1
-1.8743354184025813
% V (V) @ t=0.1
0.009889970307596014
% es.normE (V/m) @ t=0.12
1.9856294961348269
% es.EX (V/m) @ t=0.12
-0.5923535113390688
% es.EY (V/m) @ t=0.12
0.04424659443559127
% es.EZ (V/m) @ t=0.12
-1.8915107404907494
% es.tEX (V/m) @ t=0.12
-0.5923535113390699
% es.tEY (V/m) @ t=0.12
0
% es.tEZ (V/m) @ t=0.12
-1.891510740490764
% es.Ex (V/m) @ t=0.12
-0.5923535113390688
% es.Ey (V/m) @ t=0.12
0.04424659443559127
% es.Ez (V/m) @ t=0.12
-1.8915107404907494
% es.tEx (V/m) @ t=0.12
-0.5923535113390699
% es.tEy (V/m) @ t=0.12
0
% es.tEz (V/m) @ t=0.12
-1.891510740490764
% V (V) @ t=0.12
0.009980596245275739
% es.normE (V/m) @ t=0.14
2.004070673161061
% es.EX (V/m) @ t=0.14
-0.597854888236683
% es.EY (V/m) @ t=0.14
0.04465752770500703
% es.EZ (V/m) @ t=0.14
-1.9090778063938276
% es.tEX (V/m) @ t=0.14
-0.5978548882366894
% es.tEY (V/m) @ t=0.14
0
% es.tEZ (V/m) @ t=0.14
-1.9090778063938378
% es.Ex (V/m) @ t=0.14
-0.597854888236683
% es.Ey (V/m) @ t=0.14
0.04465752770500703
% es.Ez (V/m) @ t=0.14
-1.9090778063938276
% es.tEx (V/m) @ t=0.14
-0.5978548882366894
% es.tEy (V/m) @ t=0.14
0
% es.tEz (V/m) @ t=0.14
-1.9090778063938378
% V (V) @ t=0.14
0.01007328921083886
% es.normE (V/m) @ t=0.16
2.023024579288331
% es.EX (V/m) @ t=0.16
-0.6035092227215215
% es.EY (V/m) @ t=0.16
0.0450798870618436
% es.EZ (V/m) @ t=0.16
-1.9271332979848537
% es.tEX (V/m) @ t=0.16
-0.6035092227215308
% es.tEY (V/m) @ t=0.16
0
% es.tEZ (V/m) @ t=0.16
-1.9271332979848772
% es.Ex (V/m) @ t=0.16
-0.6035092227215215
% es.Ey (V/m) @ t=0.16
0.0450798870618436
% es.Ez (V/m) @ t=0.16
-1.9271332979848537
% es.tEx (V/m) @ t=0.16
-0.6035092227215308
% es.tEy (V/m) @ t=0.16
0
% es.tEz (V/m) @ t=0.16
-1.9271332979848772
% V (V) @ t=0.16
0.010168559344126372
% es.normE (V/m) @ t=0.18
2.0419784854156147
% es.EX (V/m) @ t=0.18
-0.6091635572063601
% es.EY (V/m) @ t=0.18
0.045502246418691064
% es.EZ (V/m) @ t=0.18
-1.945188789575894
% es.tEX (V/m) @ t=0.18
-0.6091635572063687
% es.tEY (V/m) @ t=0.18
0
% es.tEZ (V/m) @ t=0.18
-1.9451887895759112
% es.Ex (V/m) @ t=0.18
-0.6091635572063601
% es.Ey (V/m) @ t=0.18
0.045502246418691064
% es.Ez (V/m) @ t=0.18
-1.945188789575894
% es.tEx (V/m) @ t=0.18
-0.6091635572063687
% es.tEy (V/m) @ t=0.18
0
% es.tEz (V/m) @ t=0.18
-1.9451887895759112
% V (V) @ t=0.18
0.010263829477413883
% es.normE (V/m) @ t=0.2
2.060932391542905
% es.EX (V/m) @ t=0.2
-0.6148178916911953
% es.EY (V/m) @ t=0.2
0.04592460577553448
% es.EZ (V/m) @ t=0.2
-1.9632442811669408
% es.tEX (V/m) @ t=0.2
-0.6148178916911995
% es.tEY (V/m) @ t=0.2
0
% es.tEZ (V/m) @ t=0.2
-1.9632442811669435
% es.Ex (V/m) @ t=0.2
-0.6148178916911953
% es.Ey (V/m) @ t=0.2
0.04592460577553448
% es.Ez (V/m) @ t=0.2
-1.9632442811669408
% es.tEx (V/m) @ t=0.2
-0.6148178916911995
% es.tEy (V/m) @ t=0.2
0
% es.tEz (V/m) @ t=0.2
-1.9632442811669435
% V (V) @ t=0.2
0.010359099610701396
% es.normE (V/m) @ t=0.22
2.079886297670183
% es.EX (V/m) @ t=0.22
-0.6204722261760355
% es.EY (V/m) @ t=0.22
0.04634696513238505
% es.EZ (V/m) @ t=0.22
-1.981299772757974
% es.tEX (V/m) @ t=0.22
-0.6204722261760409
% es.tEY (V/m) @ t=0.22
0
% es.tEZ (V/m) @ t=0.22
-1.981299772757997
% es.Ex (V/m) @ t=0.22
-0.6204722261760355
% es.Ey (V/m) @ t=0.22
0.04634696513238505
% es.Ez (V/m) @ t=0.22
-1.981299772757974
% es.tEx (V/m) @ t=0.22
-0.6204722261760409
% es.tEy (V/m) @ t=0.22
0
% es.tEz (V/m) @ t=0.22
-1.981299772757997
% V (V) @ t=0.22
0.010454369743988905
% es.normE (V/m) @ t=0.24
2.0988402037974665
% es.EX (V/m) @ t=0.24
-0.6261265606608712
% es.EY (V/m) @ t=0.24
0.04676932448921811
% es.EZ (V/m) @ t=0.24
-1.9993552643490151
% es.tEX (V/m) @ t=0.24
-0.6261265606608788
% es.tEY (V/m) @ t=0.24
0
% es.tEZ (V/m) @ t=0.24
-1.9993552643490373
% es.Ex (V/m) @ t=0.24
-0.6261265606608712
% es.Ey (V/m) @ t=0.24
0.04676932448921811
% es.Ez (V/m) @ t=0.24
-1.9993552643490151
% es.tEx (V/m) @ t=0.24
-0.6261265606608788
% es.tEy (V/m) @ t=0.24
0
% es.tEz (V/m) @ t=0.24
-1.9993552643490373
% V (V) @ t=0.24
0.010549639877276418
% es.normE (V/m) @ t=0.26
2.1177941099247577
% es.EX (V/m) @ t=0.26
-0.631780895145716
% es.EY (V/m) @ t=0.26
0.04719168384607572
% es.EZ (V/m) @ t=0.26
-2.0174107559400616
% es.tEX (V/m) @ t=0.26
-0.6317808951457202
% es.tEY (V/m) @ t=0.26
0
% es.tEZ (V/m) @ t=0.26
-2.0174107559400776
% es.Ex (V/m) @ t=0.26
-0.631780895145716
% es.Ey (V/m) @ t=0.26
0.04719168384607572
% es.Ez (V/m) @ t=0.26
-2.0174107559400616
% es.tEx (V/m) @ t=0.26
-0.6317808951457202
% es.tEy (V/m) @ t=0.26
0
% es.tEz (V/m) @ t=0.26
-2.0174107559400776
% V (V) @ t=0.26
0.01064491001056393
% es.normE (V/m) @ t=0.28
2.1386097331185074
% es.EX (V/m) @ t=0.28
-0.6379905698046238
% es.EY (V/m) @ t=0.28
0.04765515492082037
% es.EZ (V/m) @ t=0.28
-2.0372397554507526
% es.tEX (V/m) @ t=0.28
-0.6379905698046322
% es.tEY (V/m) @ t=0.28
0
% es.tEZ (V/m) @ t=0.28
-2.03723975545077
% es.Ex (V/m) @ t=0.28
-0.6379905698046238
% es.Ey (V/m) @ t=0.28
0.04765515492082037
% es.Ez (V/m) @ t=0.28
-2.0372397554507526
% es.tEx (V/m) @ t=0.28
-0.6379905698046322
% es.tEy (V/m) @ t=0.28
0
% es.tEz (V/m) @ t=0.28
-2.03723975545077
% V (V) @ t=0.28
0.010749548590753676
% es.normE (V/m) @ t=0.3
2.1596328039697688
% es.EX (V/m) @ t=0.3
-0.6442621249824736
% es.EY (V/m) @ t=0.3
0.04812320699752794
% es.EZ (V/m) @ t=0.3
-2.0572663736382815
% es.tEX (V/m) @ t=0.3
-0.6442621249824825
% es.tEY (V/m) @ t=0.3
0
% es.tEZ (V/m) @ t=0.3
-2.0572663736383063
% es.Ex (V/m) @ t=0.3
-0.6442621249824736
% es.Ey (V/m) @ t=0.3
0.04812320699752794
% es.Ez (V/m) @ t=0.3
-2.0572663736382815
% es.tEx (V/m) @ t=0.3
-0.6442621249824825
% es.tEy (V/m) @ t=0.3
0
% es.tEz (V/m) @ t=0.3
-2.0572663736383063
% V (V) @ t=0.3
0.010855231079493523
% es.normE (V/m) @ t=0.32
2.1806558748211495
% es.EX (V/m) @ t=0.32
-0.6505336801603145
% es.EY (V/m) @ t=0.32
0.048591259074255044
% es.EZ (V/m) @ t=0.32
-2.077292991825832
% es.tEX (V/m) @ t=0.32
-0.6505336801603221
% es.tEY (V/m) @ t=0.32
0
% es.tEZ (V/m) @ t=0.32
-2.0772929918258463
% es.Ex (V/m) @ t=0.32
-0.6505336801603145
% es.Ey (V/m) @ t=0.32
0.048591259074255044
% es.Ez (V/m) @ t=0.32
-2.077292991825832
% es.tEx (V/m) @ t=0.32
-0.6505336801603221
% es.tEy (V/m) @ t=0.32
0
% es.tEz (V/m) @ t=0.32
-2.0772929918258463
% V (V) @ t=0.32
0.010960913568233366
% es.normE (V/m) @ t=0.34
2.2016789456726182
% es.EX (V/m) @ t=0.34
-0.6568052353381655
% es.EY (V/m) @ t=0.34
0.04905931115098382
% es.EZ (V/m) @ t=0.34
-2.0973196100133666
% es.tEX (V/m) @ t=0.34
-0.6568052353381688
% es.tEY (V/m) @ t=0.34
0
% es.tEZ (V/m) @ t=0.34
-2.0973196100133826
% es.Ex (V/m) @ t=0.34
-0.6568052353381655
% es.Ey (V/m) @ t=0.34
0.04905931115098382
% es.Ez (V/m) @ t=0.34
-2.0973196100133666
% es.tEx (V/m) @ t=0.34
-0.6568052353381688
% es.tEy (V/m) @ t=0.34
0
% es.tEz (V/m) @ t=0.34
-2.0973196100133826
% V (V) @ t=0.34
0.011066596056973214
% es.normE (V/m) @ t=0.36
2.222702016524188
% es.EX (V/m) @ t=0.36
-0.663076790516019
% es.EY (V/m) @ t=0.36
0.04952736322768782
% es.EZ (V/m) @ t=0.36
-2.117346228200903
% es.tEX (V/m) @ t=0.36
-0.6630767905160262
% es.tEY (V/m) @ t=0.36
0
% es.tEZ (V/m) @ t=0.36
-2.117346228200925
% es.Ex (V/m) @ t=0.36
-0.663076790516019
% es.Ey (V/m) @ t=0.36
0.04952736322768782
% es.Ez (V/m) @ t=0.36
-2.117346228200903
% es.tEx (V/m) @ t=0.36
-0.6630767905160262
% es.tEy (V/m) @ t=0.36
0
% es.tEz (V/m) @ t=0.36
-2.117346228200925
% V (V) @ t=0.36
0.01117227854571306
% es.normE (V/m) @ t=0.38
2.2437250873758545
% es.EX (V/m) @ t=0.38
-0.6693483456938599
% es.EY (V/m) @ t=0.38
0.04999541530443091
% es.EZ (V/m) @ t=0.38
-2.1373728463884465
% es.tEX (V/m) @ t=0.38
-0.6693483456938587
% es.tEY (V/m) @ t=0.38
0
% es.tEZ (V/m) @ t=0.38
-2.137372846388459
% es.Ex (V/m) @ t=0.38
-0.6693483456938599
% es.Ey (V/m) @ t=0.38
0.04999541530443091
% es.Ez (V/m) @ t=0.38
-2.1373728463884465
% es.tEx (V/m) @ t=0.38
-0.6693483456938587
% es.tEy (V/m) @ t=0.38
0
% es.tEz (V/m) @ t=0.38
-2.137372846388459
% V (V) @ t=0.38
0.011277961034452905
% es.normE (V/m) @ t=0.4
2.264748158227621
% es.EX (V/m) @ t=0.4
-0.6756199008717053
% es.EY (V/m) @ t=0.4
0.05046346738113669
% es.EZ (V/m) @ t=0.4
-2.157399464575996
% es.tEX (V/m) @ t=0.4
-0.6756199008717125
% es.tEY (V/m) @ t=0.4
0
% es.tEZ (V/m) @ t=0.4
-2.157399464576015
% es.Ex (V/m) @ t=0.4
-0.6756199008717053
% es.Ey (V/m) @ t=0.4
0.05046346738113669
% es.Ez (V/m) @ t=0.4
-2.157399464575996
% es.tEx (V/m) @ t=0.4
-0.6756199008717125
% es.tEy (V/m) @ t=0.4
0
% es.tEz (V/m) @ t=0.4
-2.157399464576015
% V (V) @ t=0.4
0.011383643523192752
% es.normE (V/m) @ t=0.42
2.2857712290794585
% es.EX (V/m) @ t=0.42
-0.6818914560495578
% es.EY (V/m) @ t=0.42
0.05093151945786044
% es.EZ (V/m) @ t=0.42
-2.1774260827635255
% es.tEX (V/m) @ t=0.42
-0.6818914560495593
% es.tEY (V/m) @ t=0.42
0
% es.tEZ (V/m) @ t=0.42
-2.177426082763543
% es.Ex (V/m) @ t=0.42
-0.6818914560495578
% es.Ey (V/m) @ t=0.42
0.05093151945786044
% es.Ez (V/m) @ t=0.42
-2.1774260827635255
% es.tEx (V/m) @ t=0.42
-0.6818914560495593
% es.tEy (V/m) @ t=0.42
0
% es.tEz (V/m) @ t=0.42
-2.177426082763543
% V (V) @ t=0.42
0.011489326011932595
% es.normE (V/m) @ t=0.44
2.3067942999313855
% es.EX (V/m) @ t=0.44
-0.6881630112273938
% es.EY (V/m) @ t=0.44
0.05139957153458369
% es.EZ (V/m) @ t=0.44
-2.19745270095106
% es.tEX (V/m) @ t=0.44
-0.6881630112273989
% es.tEY (V/m) @ t=0.44
0
% es.tEZ (V/m) @ t=0.44
-2.19745270095107
% es.Ex (V/m) @ t=0.44
-0.6881630112273938
% es.Ey (V/m) @ t=0.44
0.05139957153458369
% es.Ez (V/m) @ t=0.44
-2.19745270095106
% es.tEx (V/m) @ t=0.44
-0.6881630112273989
% es.tEy (V/m) @ t=0.44
0
% es.tEz (V/m) @ t=0.44
-2.19745270095107
% V (V) @ t=0.44
0.011595008500672441
% es.normE (V/m) @ t=0.46
2.327817370783416
% es.EX (V/m) @ t=0.46
-0.6944345664052498
% es.EY (V/m) @ t=0.46
0.051867623611310795
% es.EZ (V/m) @ t=0.46
-2.2174793191386106
% es.tEX (V/m) @ t=0.46
-0.6944345664052598
% es.tEY (V/m) @ t=0.46
0
% es.tEZ (V/m) @ t=0.46
-2.2174793191386266
% es.Ex (V/m) @ t=0.46
-0.6944345664052498
% es.Ey (V/m) @ t=0.46
0.051867623611310795
% es.Ez (V/m) @ t=0.46
-2.2174793191386106
% es.tEx (V/m) @ t=0.46
-0.6944345664052598
% es.tEy (V/m) @ t=0.46
0
% es.tEz (V/m) @ t=0.46
-2.2174793191386266
% V (V) @ t=0.46
0.011700690989412288
% es.normE (V/m) @ t=0.48
2.3488404416355024
% es.EX (V/m) @ t=0.48
-0.7007061215830854
% es.EY (V/m) @ t=0.48
0.05233567568803123
% es.EZ (V/m) @ t=0.48
-2.237505937326139
% es.tEX (V/m) @ t=0.48
-0.7007061215830888
% es.tEY (V/m) @ t=0.48
0
% es.tEZ (V/m) @ t=0.48
-2.2375059373261452
% es.Ex (V/m) @ t=0.48
-0.7007061215830854
% es.Ey (V/m) @ t=0.48
0.05233567568803123
% es.Ez (V/m) @ t=0.48
-2.237505937326139
% es.tEx (V/m) @ t=0.48
-0.7007061215830888
% es.tEy (V/m) @ t=0.48
0
% es.tEz (V/m) @ t=0.48
-2.2375059373261452
% V (V) @ t=0.48
0.011806373478152133
% es.normE (V/m) @ t=0.5
2.3698635124876692
% es.EX (V/m) @ t=0.5
-0.7069776767609379
% es.EY (V/m) @ t=0.5
0.05280372776474254
% es.EZ (V/m) @ t=0.5
-2.257532555513661
% es.tEX (V/m) @ t=0.5
-0.7069776767609461
% es.tEY (V/m) @ t=0.5
0
% es.tEZ (V/m) @ t=0.5
-2.2575325555136745
% es.Ex (V/m) @ t=0.5
-0.7069776767609379
% es.Ey (V/m) @ t=0.5
0.05280372776474254
% es.Ez (V/m) @ t=0.5
-2.257532555513661
% es.tEx (V/m) @ t=0.5
-0.7069776767609461
% es.tEy (V/m) @ t=0.5
0
% es.tEz (V/m) @ t=0.5
-2.2575325555136745
% V (V) @ t=0.5
0.01191205596689198
% es.normE (V/m) @ t=0.52
2.3908865833399435
% es.EX (V/m) @ t=0.52
-0.7132492319387862
% es.EY (V/m) @ t=0.52
0.05327177984145873
% es.EZ (V/m) @ t=0.52
-2.277559173701218
% es.tEX (V/m) @ t=0.52
-0.7132492319387893
% es.tEY (V/m) @ t=0.52
0
% es.tEZ (V/m) @ t=0.52
-2.2775591737012313
% es.Ex (V/m) @ t=0.52
-0.7132492319387862
% es.Ey (V/m) @ t=0.52
0.05327177984145873
% es.Ez (V/m) @ t=0.52
-2.277559173701218
% es.tEx (V/m) @ t=0.52
-0.7132492319387893
% es.tEy (V/m) @ t=0.52
0
% es.tEz (V/m) @ t=0.52
-2.2775591737012313
% V (V) @ t=0.52
0.012017738455631824
% es.normE (V/m) @ t=0.54
2.413797212976587
% es.EX (V/m) @ t=0.54
-0.7200838235095878
% es.EY (V/m) @ t=0.54
0.05378142623592071
% es.EZ (V/m) @ t=0.54
-2.299383925912645
% es.tEX (V/m) @ t=0.54
-0.7200838235095937
% es.tEY (V/m) @ t=0.54
0
% es.tEZ (V/m) @ t=0.54
-2.2993839259126547
% es.Ex (V/m) @ t=0.54
-0.7200838235095878
% es.Ey (V/m) @ t=0.54
0.05378142623592071
% es.Ez (V/m) @ t=0.54
-2.299383925912645
% es.tEx (V/m) @ t=0.54
-0.7200838235095937
% es.tEy (V/m) @ t=0.54
0
% es.tEz (V/m) @ t=0.54
-2.2993839259126547
% V (V) @ t=0.54
0.012132922003684057
% es.normE (V/m) @ t=0.56
2.437153269075032
% es.EX (V/m) @ t=0.56
-0.7270512805096524
% es.EY (V/m) @ t=0.56
0.05430088806496605
% es.EZ (V/m) @ t=0.56
-2.3216330021143836
% es.tEX (V/m) @ t=0.56
-0.7270512805096558
% es.tEY (V/m) @ t=0.56
0
% es.tEZ (V/m) @ t=0.56
-2.321633002114405
% es.Ex (V/m) @ t=0.56
-0.7270512805096524
% es.Ey (V/m) @ t=0.56
0.05430088806496605
% es.Ez (V/m) @ t=0.56
-2.3216330021143836
% es.tEx (V/m) @ t=0.56
-0.7270512805096558
% es.tEy (V/m) @ t=0.56
0
% es.tEz (V/m) @ t=0.56
-2.321633002114405
% V (V) @ t=0.56
0.01225034761342146
% es.normE (V/m) @ t=0.58
2.460509325173968
% es.EX (V/m) @ t=0.58
-0.7340187375097191
% es.EY (V/m) @ t=0.58
0.05482034989399508
% es.EZ (V/m) @ t=0.58
-2.3438820783161427
% es.tEX (V/m) @ t=0.58
-0.7340187375097251
% es.tEY (V/m) @ t=0.58
0
% es.tEZ (V/m) @ t=0.58
-2.3438820783161614
% es.Ex (V/m) @ t=0.58
-0.7340187375097191
% es.Ey (V/m) @ t=0.58
0.05482034989399508
% es.Ez (V/m) @ t=0.58
-2.3438820783161427
% es.tEx (V/m) @ t=0.58
-0.7340187375097251
% es.tEy (V/m) @ t=0.58
0
% es.tEz (V/m) @ t=0.58
-2.3438820783161614
% V (V) @ t=0.58
0.012367773223158868
% es.normE (V/m) @ t=0.6
2.4838653812733265
% es.EX (V/m) @ t=0.6
-0.740986194509777
% es.EY (V/m) @ t=0.6
0.055339811723024324
% es.EZ (V/m) @ t=0.6
-2.3661311545178663
% es.tEX (V/m) @ t=0.6
-0.7409861945097802
% es.tEY (V/m) @ t=0.6
0
% es.tEZ (V/m) @ t=0.6
-2.3661311545179036
% es.Ex (V/m) @ t=0.6
-0.740986194509777
% es.Ey (V/m) @ t=0.6
0.055339811723024324
% es.Ez (V/m) @ t=0.6
-2.3661311545178663
% es.tEx (V/m) @ t=0.6
-0.7409861945097802
% es.tEy (V/m) @ t=0.6
0
% es.tEz (V/m) @ t=0.6
-2.3661311545179036
% V (V) @ t=0.6
0.012485198832896274
% es.normE (V/m) @ t=0.62
2.5072214373731487
% es.EX (V/m) @ t=0.62
-0.7479536515098357
% es.EY (V/m) @ t=0.62
0.05585927355206778
% es.EZ (V/m) @ t=0.62
-2.388380230719611
% es.tEX (V/m) @ t=0.62
-0.7479536515098388
% es.tEY (V/m) @ t=0.62
0
% es.tEZ (V/m) @ t=0.62
-2.3883802307196387
% es.Ex (V/m) @ t=0.62
-0.7479536515098357
% es.Ey (V/m) @ t=0.62
0.05585927355206778
% es.Ez (V/m) @ t=0.62
-2.388380230719611
% es.tEx (V/m) @ t=0.62
-0.7479536515098388
% es.tEy (V/m) @ t=0.62
0
% es.tEz (V/m) @ t=0.62
-2.3883802307196387
% V (V) @ t=0.62
0.01260262444263368
% es.normE (V/m) @ t=0.64
2.5305774934734204
% es.EX (V/m) @ t=0.64
-0.7549211085099042
% es.EY (V/m) @ t=0.64
0.05637873538111279
% es.EZ (V/m) @ t=0.64
-2.4106293069213702
% es.tEX (V/m) @ t=0.64
-0.7549211085099117
% es.tEY (V/m) @ t=0.64
0
% es.tEZ (V/m) @ t=0.64
-2.410629306921402
% es.Ex (V/m) @ t=0.64
-0.7549211085099042
% es.Ey (V/m) @ t=0.64
0.05637873538111279
% es.Ez (V/m) @ t=0.64
-2.4106293069213702
% es.tEx (V/m) @ t=0.64
-0.7549211085099117
% es.tEy (V/m) @ t=0.64
0
% es.tEz (V/m) @ t=0.64
-2.410629306921402
% V (V) @ t=0.64
0.012720050052371083
% es.normE (V/m) @ t=0.66
2.553933549574097
% es.EX (V/m) @ t=0.66
-0.761888565509963
% es.EY (V/m) @ t=0.66
0.056898197210149146
% es.EZ (V/m) @ t=0.66
-2.432878383123116
% es.tEX (V/m) @ t=0.66
-0.7618885655099703
% es.tEY (V/m) @ t=0.66
0
% es.tEZ (V/m) @ t=0.66
-2.432878383123131
% es.Ex (V/m) @ t=0.66
-0.761888565509963
% es.Ey (V/m) @ t=0.66
0.056898197210149146
% es.Ez (V/m) @ t=0.66
-2.432878383123116
% es.tEx (V/m) @ t=0.66
-0.7618885655099703
% es.tEy (V/m) @ t=0.66
0
% es.tEz (V/m) @ t=0.66
-2.432878383123131
% V (V) @ t=0.66
0.01283747566210849
% es.normE (V/m) @ t=0.68
2.5772896056751855
% es.EX (V/m) @ t=0.68
-0.768856022510024
% es.EY (V/m) @ t=0.68
0.05741765903917691
% es.EZ (V/m) @ t=0.68
-2.4551274593248618
% es.tEX (V/m) @ t=0.68
-0.768856022510036
% es.tEY (V/m) @ t=0.68
0
% es.tEZ (V/m) @ t=0.68
-2.4551274593248724
% es.Ex (V/m) @ t=0.68
-0.768856022510024
% es.Ey (V/m) @ t=0.68
0.05741765903917691
% es.Ez (V/m) @ t=0.68
-2.4551274593248618
% es.tEx (V/m) @ t=0.68
-0.768856022510036
% es.tEy (V/m) @ t=0.68
0
% es.tEz (V/m) @ t=0.68
-2.4551274593248724
% V (V) @ t=0.68
0.012954901271845896
% es.normE (V/m) @ t=0.7
2.6006456617766753
% es.EX (V/m) @ t=0.7
-0.7758234795100846
% es.EY (V/m) @ t=0.7
0.05793712086821304
% es.EZ (V/m) @ t=0.7
-2.4773765355266137
% es.tEX (V/m) @ t=0.7
-0.7758234795100947
% es.tEY (V/m) @ t=0.7
0
% es.tEZ (V/m) @ t=0.7
-2.4773765355266306
% es.Ex (V/m) @ t=0.7
-0.7758234795100846
% es.Ey (V/m) @ t=0.7
0.05793712086821304
% es.Ez (V/m) @ t=0.7
-2.4773765355266137
% es.tEx (V/m) @ t=0.7
-0.7758234795100947
% es.tEy (V/m) @ t=0.7
0
% es.tEz (V/m) @ t=0.7
-2.4773765355266306
% V (V) @ t=0.7
0.013072326881583302
% es.normE (V/m) @ t=0.72
2.624001717878551
% es.EX (V/m) @ t=0.72
-0.7827909365101575
% es.EY (V/m) @ t=0.72
0.0584565826972636
% es.EZ (V/m) @ t=0.72
-2.4996256117283586
% es.tEX (V/m) @ t=0.72
-0.7827909365101604
% es.tEY (V/m) @ t=0.72
0
% es.tEZ (V/m) @ t=0.72
-2.499625611728373
% es.Ex (V/m) @ t=0.72
-0.7827909365101575
% es.Ey (V/m) @ t=0.72
0.0584565826972636
% es.Ez (V/m) @ t=0.72
-2.4996256117283586
% es.tEx (V/m) @ t=0.72
-0.7827909365101604
% es.tEy (V/m) @ t=0.72
0
% es.tEz (V/m) @ t=0.72
-2.499625611728373
% V (V) @ t=0.72
0.013189752491320707
% es.normE (V/m) @ t=0.74
2.647357773980822
% es.EX (V/m) @ t=0.74
-0.7897583935102234
% es.EY (V/m) @ t=0.74
0.05897604452627664
% es.EZ (V/m) @ t=0.74
-2.521874687930125
% es.tEX (V/m) @ t=0.74
-0.7897583935102332
% es.tEY (V/m) @ t=0.74
0
% es.tEZ (V/m) @ t=0.74
-2.5218746879301293
% es.Ex (V/m) @ t=0.74
-0.7897583935102234
% es.Ey (V/m) @ t=0.74
0.05897604452627664
% es.Ez (V/m) @ t=0.74
-2.521874687930125
% es.tEx (V/m) @ t=0.74
-0.7897583935102332
% es.tEy (V/m) @ t=0.74
0
% es.tEz (V/m) @ t=0.74
-2.5218746879301293
% V (V) @ t=0.74
0.013307178101058113
% es.normE (V/m) @ t=0.76
2.670713830083426
% es.EX (V/m) @ t=0.76
-0.7967258505102928
% es.EY (V/m) @ t=0.76
0.05949550635532365
% es.EZ (V/m) @ t=0.76
-2.5441237641318555
% es.tEX (V/m) @ t=0.76
-0.7967258505102919
% es.tEY (V/m) @ t=0.76
0
% es.tEZ (V/m) @ t=0.76
-2.5441237641318857
% es.Ex (V/m) @ t=0.76
-0.7967258505102928
% es.Ey (V/m) @ t=0.76
0.05949550635532365
% es.Ez (V/m) @ t=0.76
-2.5441237641318555
% es.tEx (V/m) @ t=0.76
-0.7967258505102919
% es.tEy (V/m) @ t=0.76
0
% es.tEz (V/m) @ t=0.76
-2.5441237641318857
% V (V) @ t=0.76
0.01342460371079552
% es.normE (V/m) @ t=0.78
2.6940698861863934
% es.EX (V/m) @ t=0.78
-0.8036933075103458
% es.EY (V/m) @ t=0.78
0.06001496818436719
% es.EZ (V/m) @ t=0.78
-2.566372840333595
% es.tEX (V/m) @ t=0.78
-0.8036933075103505
% es.tEY (V/m) @ t=0.78
0
% es.tEZ (V/m) @ t=0.78
-2.5663728403336155
% es.Ex (V/m) @ t=0.78
-0.8036933075103458
% es.Ey (V/m) @ t=0.78
0.06001496818436719
% es.Ez (V/m) @ t=0.78
-2.566372840333595
% es.tEx (V/m) @ t=0.78
-0.8036933075103505
% es.tEy (V/m) @ t=0.78
0
% es.tEz (V/m) @ t=0.78
-2.5663728403336155
% V (V) @ t=0.78
0.013542029320532925
% es.normE (V/m) @ t=0.8
2.719319016385496
% es.EX (V/m) @ t=0.8
-0.811225508419404
% es.EY (V/m) @ t=0.8
0.060576624445882826
% es.EZ (V/m) @ t=0.8
-2.5904252579429503
% es.tEX (V/m) @ t=0.8
-0.8112255084194118
% es.tEY (V/m) @ t=0.8
0
% es.tEZ (V/m) @ t=0.8
-2.590425257942986
% es.Ex (V/m) @ t=0.8
-0.811225508419404
% es.Ey (V/m) @ t=0.8
0.060576624445882826
% es.Ez (V/m) @ t=0.8
-2.5904252579429503
% es.tEx (V/m) @ t=0.8
-0.8112255084194118
% es.tEy (V/m) @ t=0.8
0
% es.tEz (V/m) @ t=0.8
-2.590425257942986
% V (V) @ t=0.8
0.013668969988065962
% es.normE (V/m) @ t=0.82
2.7453101772122595
% es.EX (V/m) @ t=0.82
-0.8189790727066821
% es.EY (V/m) @ t=0.82
0.061154819712014113
% es.EZ (V/m) @ t=0.82
-2.6151845335453396
% es.tEX (V/m) @ t=0.82
-0.8189790727066892
% es.tEY (V/m) @ t=0.82
0
% es.tEZ (V/m) @ t=0.82
-2.615184533545369
% es.Ex (V/m) @ t=0.82
-0.8189790727066821
% es.Ey (V/m) @ t=0.82
0.061154819712014113
% es.Ez (V/m) @ t=0.82
-2.6151845335453396
% es.tEx (V/m) @ t=0.82
-0.8189790727066892
% es.tEy (V/m) @ t=0.82
0
% es.tEz (V/m) @ t=0.82
-2.615184533545369
% V (V) @ t=0.82
0.013799640284735607
% es.normE (V/m) @ t=0.84
2.7713013380393265
% es.EX (V/m) @ t=0.84
-0.8267326369939798
% es.EY (V/m) @ t=0.84
0.06173301497814519
% es.EZ (V/m) @ t=0.84
-2.6399438091477228
% es.tEX (V/m) @ t=0.84
-0.826732636993988
% es.tEY (V/m) @ t=0.84
0
% es.tEZ (V/m) @ t=0.84
-2.639943809147754
% es.Ex (V/m) @ t=0.84
-0.8267326369939798
% es.Ey (V/m) @ t=0.84
0.06173301497814519
% es.Ez (V/m) @ t=0.84
-2.6399438091477228
% es.tEx (V/m) @ t=0.84
-0.826732636993988
% es.tEy (V/m) @ t=0.84
0
% es.tEz (V/m) @ t=0.84
-2.639943809147754
% V (V) @ t=0.84
0.013930310581405252
% es.normE (V/m) @ t=0.86
2.7972924988666907
% es.EX (V/m) @ t=0.86
-0.8344862012812617
% es.EY (V/m) @ t=0.86
0.06231121024428002
% es.EZ (V/m) @ t=0.86
-2.664703084750111
% es.tEX (V/m) @ t=0.86
-0.8344862012812797
% es.tEY (V/m) @ t=0.86
0
% es.tEZ (V/m) @ t=0.86
-2.664703084750135
% es.Ex (V/m) @ t=0.86
-0.8344862012812617
% es.Ey (V/m) @ t=0.86
0.06231121024428002
% es.Ez (V/m) @ t=0.86
-2.664703084750111
% es.tEx (V/m) @ t=0.86
-0.8344862012812797
% es.tEy (V/m) @ t=0.86
0
% es.tEz (V/m) @ t=0.86
-2.664703084750135
% V (V) @ t=0.86
0.014060980878074898
% es.normE (V/m) @ t=0.88
2.823283659694341
% es.EX (V/m) @ t=0.88
-0.8422397655685363
% es.EY (V/m) @ t=0.88
0.06288940551040376
% es.EZ (V/m) @ t=0.88
-2.6894623603525005
% es.tEX (V/m) @ t=0.88
-0.842239765568543
% es.tEY (V/m) @ t=0.88
0
% es.tEZ (V/m) @ t=0.88
-2.68946236035252
% es.Ex (V/m) @ t=0.88
-0.8422397655685363
% es.Ey (V/m) @ t=0.88
0.06288940551040376
% es.Ez (V/m) @ t=0.88
-2.6894623603525005
% es.tEx (V/m) @ t=0.88
-0.842239765568543
% es.tEy (V/m) @ t=0.88
0
% es.tEz (V/m) @ t=0.88
-2.68946236035252
% V (V) @ t=0.88
0.014191651174744545
% es.normE (V/m) @ t=0.9
2.849274820522265
% es.EX (V/m) @ t=0.9
-0.849993329855834
% es.EY (V/m) @ t=0.9
0.06346760077654215
% es.EZ (V/m) @ t=0.9
-2.7142216359548756
% es.tEX (V/m) @ t=0.9
-0.8499933298558346
% es.tEY (V/m) @ t=0.9
0
% es.tEZ (V/m) @ t=0.9
-2.714221635954903
% es.Ex (V/m) @ t=0.9
-0.849993329855834
% es.Ey (V/m) @ t=0.9
0.06346760077654215
% es.Ez (V/m) @ t=0.9
-2.7142216359548756
% es.tEx (V/m) @ t=0.9
-0.8499933298558346
% es.tEy (V/m) @ t=0.9
0
% es.tEz (V/m) @ t=0.9
-2.714221635954903
% V (V) @ t=0.9
0.01432232147141419
% es.normE (V/m) @ t=0.92
2.875265981350463
% es.EX (V/m) @ t=0.92
-0.8577468941431139
% es.EY (V/m) @ t=0.92
0.06404579604267305
% es.EZ (V/m) @ t=0.92
-2.738980911557258
% es.tEX (V/m) @ t=0.92
-0.8577468941431192
% es.tEY (V/m) @ t=0.92
0
% es.tEZ (V/m) @ t=0.92
-2.738980911557274
% es.Ex (V/m) @ t=0.92
-0.8577468941431139
% es.Ey (V/m) @ t=0.92
0.06404579604267305
% es.Ez (V/m) @ t=0.92
-2.738980911557258
% es.tEx (V/m) @ t=0.92
-0.8577468941431192
% es.tEy (V/m) @ t=0.92
0
% es.tEz (V/m) @ t=0.92
-2.738980911557274
% V (V) @ t=0.92
0.014452991768083836
% es.normE (V/m) @ t=0.94
2.901257142178941
% es.EX (V/m) @ t=0.94
-0.8655004584304009
% es.EY (V/m) @ t=0.94
0.06462399130878613
% es.EZ (V/m) @ t=0.94
-2.763740187159655
% es.tEX (V/m) @ t=0.94
-0.8655004584304038
% es.tEY (V/m) @ t=0.94
0
% es.tEZ (V/m) @ t=0.94
-2.763740187159671
% es.Ex (V/m) @ t=0.94
-0.8655004584304009
% es.Ey (V/m) @ t=0.94
0.06462399130878613
% es.Ez (V/m) @ t=0.94
-2.763740187159655
% es.tEx (V/m) @ t=0.94
-0.8655004584304038
% es.tEy (V/m) @ t=0.94
0
% es.tEz (V/m) @ t=0.94
-2.763740187159671
% V (V) @ t=0.94
0.014583662064753483
% es.normE (V/m) @ t=0.96
2.927248303007664
% es.EX (V/m) @ t=0.96
-0.8732540227176824
% es.EY (V/m) @ t=0.96
0.06520218657493392
% es.EZ (V/m) @ t=0.96
-2.7884994627620374
% es.tEX (V/m) @ t=0.96
-0.8732540227176884
% es.tEY (V/m) @ t=0.96
0
% es.tEZ (V/m) @ t=0.96
-2.7884994627620685
% es.Ex (V/m) @ t=0.96
-0.8732540227176824
% es.Ey (V/m) @ t=0.96
0.06520218657493392
% es.Ez (V/m) @ t=0.96
-2.7884994627620374
% es.tEx (V/m) @ t=0.96
-0.8732540227176884
% es.tEy (V/m) @ t=0.96
0
% es.tEz (V/m) @ t=0.96
-2.7884994627620685
% V (V) @ t=0.96
0.014714332361423126
% es.normE (V/m) @ t=0.98
2.953239463836664
% es.EX (V/m) @ t=0.98
-0.8810075870049676
% es.EY (V/m) @ t=0.98
0.06578038184107186
% es.EZ (V/m) @ t=0.98
-2.813258738364449
% es.tEX (V/m) @ t=0.98
-0.8810075870049872
% es.tEY (V/m) @ t=0.98
0
% es.tEZ (V/m) @ t=0.98
-2.8132587383644516
% es.Ex (V/m) @ t=0.98
-0.8810075870049676
% es.Ey (V/m) @ t=0.98
0.06578038184107186
% es.Ez (V/m) @ t=0.98
-2.813258738364449
% es.tEx (V/m) @ t=0.98
-0.8810075870049872
% es.tEy (V/m) @ t=0.98
0
% es.tEz (V/m) @ t=0.98
-2.8132587383644516
% V (V) @ t=0.98
0.01484500265809277
% es.normE (V/m) @ t=1
2.9792306246658558
% es.EX (V/m) @ t=1
-0.8887611512922546
% es.EY (V/m) @ t=1
0.06635857710719249
% es.EZ (V/m) @ t=1
-2.8380180139668028
% es.tEX (V/m) @ t=1
-0.8887611512922575
% es.tEY (V/m) @ t=1
0
% es.tEZ (V/m) @ t=1
-2.8380180139668347
% es.Ex (V/m) @ t=1
-0.8887611512922546
% es.Ey (V/m) @ t=1
0.06635857710719249
% es.Ez (V/m) @ t=1
-2.8380180139668028
% es.tEx (V/m) @ t=1
-0.8887611512922575
% es.tEy (V/m) @ t=1
0
% es.tEz (V/m) @ t=1
-2.8380180139668347
% V (V) @ t=1
0.014975672954762417
% es.normE (V/m) @ t=1.02
3.0052217854953103
% es.EX (V/m) @ t=1.02
-0.8965147155795419
% es.EY (V/m) @ t=1.02
0.06693677237330911
% es.EZ (V/m) @ t=1.02
-2.862777289569184
% es.tEX (V/m) @ t=1.02
-0.8965147155795492
% es.tEY (V/m) @ t=1.02
0
% es.tEZ (V/m) @ t=1.02
-2.862777289569218
% es.Ex (V/m) @ t=1.02
-0.8965147155795419
% es.Ey (V/m) @ t=1.02
0.06693677237330911
% es.Ez (V/m) @ t=1.02
-2.862777289569184
% es.tEx (V/m) @ t=1.02
-0.8965147155795492
% es.tEy (V/m) @ t=1.02
0
% es.tEz (V/m) @ t=1.02
-2.862777289569218
% V (V) @ t=1.02
0.015106343251432062
% es.normE (V/m) @ t=1.04