% Model:              1 neuron.mph
% Version:            COMSOL 6.1.0.252
% Date:               Mar 22 2023, 20:05
% Dimension:          0
% Nodes:              14017
% Expressions:        14017
% Description:        Electric field norm, Electric field, X component, Electric field, Y component, Electric field, Z component, Tangential electric field, X component, Tangential electric field, Y component, Tangential electric field, Z component, Electric field, x component, Electric field, y component, Electric field, z component, Tangential electric field, x component, Tangential electric field, y component, Tangential electric field, z component, Electric potential
% Length unit:        mm
% x
1.33
% y
12.2
% z
2
% es.normE (V/m) @ t=0
2.2077806764720744
% es.EX (V/m) @ t=0
0.8798855408752604
% es.EY (V/m) @ t=0
0.23262568874470446
% es.EZ (V/m) @ t=0
-2.0096772578722932
% es.tEX (V/m) @ t=0
0.8798855408752573
% es.tEY (V/m) @ t=0
0
% es.tEZ (V/m) @ t=0
-2.0096772578722994
% es.Ex (V/m) @ t=0
0.8798855408752604
% es.Ey (V/m) @ t=0
0.23262568874470446
% es.Ez (V/m) @ t=0
-2.0096772578722932
% es.tEx (V/m) @ t=0
0.8798855408752573
% es.tEy (V/m) @ t=0
0
% es.tEz (V/m) @ t=0
-2.0096772578722994
% V (V) @ t=0
0.01103909326051825
% es.normE (V/m) @ t=0.02
1.9068946085993947
% es.EX (V/m) @ t=0.02
0.759970866661754
% es.EY (V/m) @ t=0.02
0.20092243628377737
% es.EZ (V/m) @ t=0.02
-1.7357895957878169
% es.tEX (V/m) @ t=0.02
0.7599708666617508
% es.tEY (V/m) @ t=0.02
0
% es.tEZ (V/m) @ t=0.02
-1.7357895957878213
% es.Ex (V/m) @ t=0.02
0.759970866661754
% es.Ey (V/m) @ t=0.02
0.20092243628377737
% es.Ez (V/m) @ t=0.02
-1.7357895957878169
% es.tEx (V/m) @ t=0.02
0.7599708666617508
% es.tEy (V/m) @ t=0.02
0
% es.tEz (V/m) @ t=0.02
-1.7357895957878213
% V (V) @ t=0.02
0.009534637036511688
% es.normE (V/m) @ t=0.04
1.9244475653899298
% es.EX (V/m) @ t=0.04
0.7669663952798149
% es.EY (V/m) @ t=0.04
0.2027719266510335
% es.EZ (V/m) @ t=0.04
-1.751767531639552
% es.tEX (V/m) @ t=0.04
0.7669663952798151
% es.tEY (V/m) @ t=0.04
0
% es.tEZ (V/m) @ t=0.04
-1.7517675316395582
% es.Ex (V/m) @ t=0.04
0.7669663952798149
% es.Ey (V/m) @ t=0.04
0.2027719266510335
% es.Ez (V/m) @ t=0.04
-1.751767531639552
% es.tEx (V/m) @ t=0.04
0.7669663952798151
% es.tEy (V/m) @ t=0.04
0
% es.tEz (V/m) @ t=0.04
-1.7517675316395582
% V (V) @ t=0.04
0.009622403325885279
% es.normE (V/m) @ t=0.06
1.9421418347422235
% es.EX (V/m) @ t=0.06
0.7740182423625954
% es.EY (V/m) @ t=0.06
0.20463630559891133
% es.EZ (V/m) @ t=0.06
-1.7678741002225875
% es.tEX (V/m) @ t=0.06
0.7740182423625956
% es.tEY (V/m) @ t=0.06
0
% es.tEZ (V/m) @ t=0.06
-1.7678741002225884
% es.Ex (V/m) @ t=0.06
0.7740182423625954
% es.Ey (V/m) @ t=0.06
0.20463630559891133
% es.Ez (V/m) @ t=0.06
-1.7678741002225875
% es.tEx (V/m) @ t=0.06
0.7740182423625956
% es.tEy (V/m) @ t=0.06
0
% es.tEz (V/m) @ t=0.06
-1.7678741002225884
% V (V) @ t=0.06
0.009710876217179096
% es.normE (V/m) @ t=0.08
1.9601455208848741
% es.EX (V/m) @ t=0.08
0.7811934039526574
% es.EY (V/m) @ t=0.08
0.20653328725821485
% es.EZ (V/m) @ t=0.08
-1.784262321673478
% es.tEX (V/m) @ t=0.08
0.7811934039526576
% es.tEY (V/m) @ t=0.08
0
% es.tEZ (V/m) @ t=0.08
-1.7842623216734843
% es.Ex (V/m) @ t=0.08
0.7811934039526574
% es.Ey (V/m) @ t=0.08
0.20653328725821485
% es.Ez (V/m) @ t=0.08
-1.784262321673478
% es.tEx (V/m) @ t=0.08
0.7811934039526576
% es.tEy (V/m) @ t=0.08
0
% es.tEz (V/m) @ t=0.08
-1.7842623216734843
% V (V) @ t=0.08
0.009800896201797606
% es.normE (V/m) @ t=0.1
1.9782826292770828
% es.EX (V/m) @ t=0.1
0.7884217394475481
% es.EY (V/m) @ t=0.1
0.20844432738893914
% es.EZ (V/m) @ t=0.1
-1.8007719934153519
% es.tEX (V/m) @ t=0.1
0.7884217394475486
% es.tEY (V/m) @ t=0.1
0
% es.tEZ (V/m) @ t=0.1
-1.8007719934153634
% es.Ex (V/m) @ t=0.1
0.7884217394475481
% es.Ey (V/m) @ t=0.1
0.20844432738893914
% es.Ez (V/m) @ t=0.1
-1.8007719934153519
% es.tEx (V/m) @ t=0.1
0.7884217394475486
% es.tEy (V/m) @ t=0.1
0
% es.tEz (V/m) @ t=0.1
-1.8007719934153634
% V (V) @ t=0.1
0.009891583301705538
% es.normE (V/m) @ t=0.12
1.9964197376692936
% es.EX (V/m) @ t=0.12
0.7956500749424389
% es.EY (V/m) @ t=0.12
0.21035536751966344
% es.EZ (V/m) @ t=0.12
-1.8172816651572292
% es.tEX (V/m) @ t=0.12
0.7956500749424391
% es.tEY (V/m) @ t=0.12
0
% es.tEZ (V/m) @ t=0.12
-1.8172816651572337
% es.Ex (V/m) @ t=0.12
0.7956500749424389
% es.Ey (V/m) @ t=0.12
0.21035536751966344
% es.Ez (V/m) @ t=0.12
-1.8172816651572292
% es.tEx (V/m) @ t=0.12
0.7956500749424391
% es.tEy (V/m) @ t=0.12
0
% es.tEz (V/m) @ t=0.12
-1.8172816651572337
% V (V) @ t=0.12
0.009982270401613473
% es.normE (V/m) @ t=0.14
2.014937557745368
% es.EX (V/m) @ t=0.14
0.8030301386901249
% es.EY (V/m) @ t=0.14
0.2123065217107234
% es.EZ (V/m) @ t=0.14
-1.8341378874624956
% es.tEX (V/m) @ t=0.14
0.8030301386901288
% es.tEY (V/m) @ t=0.14
0
% es.tEZ (V/m) @ t=0.14
-1.8341378874624983
% es.Ex (V/m) @ t=0.14
0.8030301386901249
% es.Ey (V/m) @ t=0.14
0.2123065217107234
% es.Ez (V/m) @ t=0.14
-1.8341378874624956
% es.tEx (V/m) @ t=0.14
0.8030301386901288
% es.tEy (V/m) @ t=0.14
0
% es.tEz (V/m) @ t=0.14
-1.8341378874624983
% V (V) @ t=0.14
0.010074861096633535
% es.normE (V/m) @ t=0.16
2.0340099222610624
% es.EX (V/m) @ t=0.16
0.8106312097314874
% es.EY (V/m) @ t=0.16
0.2143161060211538
% es.EZ (V/m) @ t=0.16
-1.8514988951371594
% es.tEX (V/m) @ t=0.16
0.8106312097314876
% es.tEY (V/m) @ t=0.16
0
% es.tEZ (V/m) @ t=0.16
-1.8514988951371638
% es.Ex (V/m) @ t=0.16
0.8106312097314874
% es.Ey (V/m) @ t=0.16
0.2143161060211538
% es.Ez (V/m) @ t=0.16
-1.8514988951371594
% es.tEx (V/m) @ t=0.16
0.8106312097314876
% es.tEy (V/m) @ t=0.16
0
% es.tEz (V/m) @ t=0.16
-1.8514988951371638
% V (V) @ t=0.16
0.010170224567298481
% es.normE (V/m) @ t=0.18
2.053082286776771
% es.EX (V/m) @ t=0.18
0.8182322807728599
% es.EY (V/m) @ t=0.18
0.2163256903315629
% es.EZ (V/m) @ t=0.18
-1.8688599028118364
% es.tEX (V/m) @ t=0.18
0.8182322807728601
% es.tEY (V/m) @ t=0.18
0
% es.tEZ (V/m) @ t=0.18
-1.86885990281184
% es.Ex (V/m) @ t=0.18
0.8182322807728599
% es.Ey (V/m) @ t=0.18
0.2163256903315629
% es.Ez (V/m) @ t=0.18
-1.8688599028118364
% es.tEx (V/m) @ t=0.18
0.8182322807728601
% es.tEy (V/m) @ t=0.18
0
% es.tEz (V/m) @ t=0.18
-1.86885990281184
% V (V) @ t=0.18
0.010265588037963425
% es.normE (V/m) @ t=0.2
2.0721546512924736
% es.EX (V/m) @ t=0.2
0.8258333518142396
% es.EY (V/m) @ t=0.2
0.21833527464196933
% es.EZ (V/m) @ t=0.2
-1.8862209104865038
% es.tEX (V/m) @ t=0.2
0.8258333518142398
% es.tEY (V/m) @ t=0.2
0
% es.tEZ (V/m) @ t=0.2
-1.8862209104865073
% es.Ex (V/m) @ t=0.2
0.8258333518142396
% es.Ey (V/m) @ t=0.2
0.21833527464196933
% es.Ez (V/m) @ t=0.2
-1.8862209104865038
% es.tEx (V/m) @ t=0.2
0.8258333518142398
% es.tEy (V/m) @ t=0.2
0
% es.tEz (V/m) @ t=0.2
-1.8862209104865073
% V (V) @ t=0.2
0.01036095150862837
% es.normE (V/m) @ t=0.22
2.0912270158081907
% es.EX (V/m) @ t=0.22
0.8334344228556199
% es.EY (V/m) @ t=0.22
0.2203448589524033
% es.EZ (V/m) @ t=0.22
-1.9035819181611844
% es.tEX (V/m) @ t=0.22
0.8334344228556203
% es.tEY (V/m) @ t=0.22
0
% es.tEZ (V/m) @ t=0.22
-1.9035819181611942
% es.Ex (V/m) @ t=0.22
0.8334344228556199
% es.Ey (V/m) @ t=0.22
0.2203448589524033
% es.Ez (V/m) @ t=0.22
-1.9035819181611844
% es.tEx (V/m) @ t=0.22
0.8334344228556203
% es.tEy (V/m) @ t=0.22
0
% es.tEz (V/m) @ t=0.22
-1.9035819181611942
% V (V) @ t=0.22
0.010456314979293318
% es.normE (V/m) @ t=0.24
2.1102993803238874
% es.EX (V/m) @ t=0.24
0.8410354938969846
% es.EY (V/m) @ t=0.24
0.22235444326280263
% es.EZ (V/m) @ t=0.24
-1.9209429258358517
% es.tEX (V/m) @ t=0.24
0.8410354938969848
% es.tEY (V/m) @ t=0.24
0
% es.tEZ (V/m) @ t=0.24
-1.9209429258358632
% es.Ex (V/m) @ t=0.24
0.8410354938969846
% es.Ey (V/m) @ t=0.24
0.22235444326280263
% es.Ez (V/m) @ t=0.24
-1.9209429258358517
% es.tEx (V/m) @ t=0.24
0.8410354938969848
% es.tEy (V/m) @ t=0.24
0
% es.tEz (V/m) @ t=0.24
-1.9209429258358632
% V (V) @ t=0.24
0.010551678449958265
% es.normE (V/m) @ t=0.26
2.129371744839612
% es.EX (V/m) @ t=0.26
0.8486365649383791
% es.EY (V/m) @ t=0.26
0.22436402757320284
% es.EZ (V/m) @ t=0.26
-1.9383039335105385
% es.tEX (V/m) @ t=0.26
0.8486365649383796
% es.tEY (V/m) @ t=0.26
0
% es.tEZ (V/m) @ t=0.26
-1.938303933510543
% es.Ex (V/m) @ t=0.26
0.8486365649383791
% es.Ey (V/m) @ t=0.26
0.22436402757320284
% es.Ez (V/m) @ t=0.26
-1.9383039335105385
% es.tEx (V/m) @ t=0.26
0.8486365649383796
% es.tEy (V/m) @ t=0.26
0
% es.tEz (V/m) @ t=0.26
-1.938303933510543
% V (V) @ t=0.26
0.010647041920623209
% es.normE (V/m) @ t=0.28
2.150170075931455
% es.EX (V/m) @ t=0.28
0.8569255010659276
% es.EY (V/m) @ t=0.28
0.22655547904499418
% es.EZ (V/m) @ t=0.28
-1.957236036238739
% es.tEX (V/m) @ t=0.28
0.8569255010659242
% es.tEY (V/m) @ t=0.28
0
% es.tEZ (V/m) @ t=0.28
-1.9572360362387435
% es.Ex (V/m) @ t=0.28
0.8569255010659276
% es.Ey (V/m) @ t=0.28
0.22655547904499418
% es.Ez (V/m) @ t=0.28
-1.957236036238739
% es.tEx (V/m) @ t=0.28
0.8569255010659242
% es.tEy (V/m) @ t=0.28
0
% es.tEz (V/m) @ t=0.28
-1.9572360362387435
% V (V) @ t=0.28
0.01075103524278441
% es.normE (V/m) @ t=0.3
2.1713376270522176
% es.EX (V/m) @ t=0.3
0.8653615857944792
% es.EY (V/m) @ t=0.3
0.22878583567258115
% es.EZ (V/m) @ t=0.3
-1.9765042287667667
% es.tEX (V/m) @ t=0.3
0.8653615857944796
% es.tEY (V/m) @ t=0.3
0
% es.tEZ (V/m) @ t=0.3
-1.976504228766773
% es.Ex (V/m) @ t=0.3
0.8653615857944792
% es.Ey (V/m) @ t=0.3
0.22878583567258115
% es.Ez (V/m) @ t=0.3
-1.9765042287667667
% es.tEx (V/m) @ t=0.3
0.8653615857944796
% es.tEy (V/m) @ t=0.3
0
% es.tEz (V/m) @ t=0.3
-1.976504228766773
% V (V) @ t=0.3
0.010856874669072413
% es.normE (V/m) @ t=0.32
2.1925051781729703
% es.EX (V/m) @ t=0.32
0.8737976705230135
% es.EY (V/m) @ t=0.32
0.23101619230018322
% es.EZ (V/m) @ t=0.32
-1.9957724212947907
% es.tEX (V/m) @ t=0.32
0.8737976705230137
% es.tEY (V/m) @ t=0.32
0
% es.tEZ (V/m) @ t=0.32
-1.9957724212947934
% es.Ex (V/m) @ t=0.32
0.8737976705230135
% es.Ey (V/m) @ t=0.32
0.23101619230018322
% es.Ez (V/m) @ t=0.32
-1.9957724212947907
% es.tEx (V/m) @ t=0.32
0.8737976705230137
% es.tEy (V/m) @ t=0.32
0
% es.tEz (V/m) @ t=0.32
-1.9957724212947934
% V (V) @ t=0.32
0.010962714095360412
% es.normE (V/m) @ t=0.34
2.213672729293721
% es.EX (V/m) @ t=0.34
0.882233755251548
% es.EY (V/m) @ t=0.34
0.23324654892778263
% es.EZ (V/m) @ t=0.34
-2.015040613822811
% es.tEX (V/m) @ t=0.34
0.8822337552515482
% es.tEY (V/m) @ t=0.34
0
% es.tEZ (V/m) @ t=0.34
-2.015040613822814
% es.Ex (V/m) @ t=0.34
0.882233755251548
% es.Ey (V/m) @ t=0.34
0.23324654892778263
% es.Ez (V/m) @ t=0.34
-2.015040613822811
% es.tEx (V/m) @ t=0.34
0.8822337552515482
% es.tEy (V/m) @ t=0.34
0
% es.tEz (V/m) @ t=0.34
-2.015040613822814
% V (V) @ t=0.34
0.011068553521648414
% es.normE (V/m) @ t=0.36
2.234840280414482
% es.EX (V/m) @ t=0.36
0.8906698399800965
% es.EY (V/m) @ t=0.36
0.23547690555535805
% es.EZ (V/m) @ t=0.36
-2.0343088063508414
% es.tEX (V/m) @ t=0.36
0.890669839980097
% es.tEY (V/m) @ t=0.36
0
% es.tEZ (V/m) @ t=0.36
-2.0343088063508503
% es.Ex (V/m) @ t=0.36
0.8906698399800965
% es.Ey (V/m) @ t=0.36
0.23547690555535805
% es.Ez (V/m) @ t=0.36
-2.0343088063508414
% es.tEx (V/m) @ t=0.36
0.890669839980097
% es.tEy (V/m) @ t=0.36
0
% es.tEz (V/m) @ t=0.36
-2.0343088063508503
% V (V) @ t=0.36
0.011174392947936417
% es.normE (V/m) @ t=0.38
2.2560078315352357
% es.EX (V/m) @ t=0.38
0.899105924708631
% es.EY (V/m) @ t=0.38
0.2377072621829699
% es.EZ (V/m) @ t=0.38
-2.0535769988788637
% es.tEX (V/m) @ t=0.38
0.8991059247086244
% es.tEY (V/m) @ t=0.38
0
% es.tEZ (V/m) @ t=0.38
-2.053576998878871
% es.Ex (V/m) @ t=0.38
0.899105924708631
% es.Ey (V/m) @ t=0.38
0.2377072621829699
% es.Ez (V/m) @ t=0.38
-2.0535769988788637
% es.tEx (V/m) @ t=0.38
0.8991059247086244
% es.tEy (V/m) @ t=0.38
0
% es.tEz (V/m) @ t=0.38
-2.053576998878871
% V (V) @ t=0.38
0.011280232374224418
% es.normE (V/m) @ t=0.4
2.277175382655992
% es.EX (V/m) @ t=0.4
0.9075420094371653
% es.EY (V/m) @ t=0.4
0.23993761881054887
% es.EZ (V/m) @ t=0.4
-2.072845191406892
% es.tEX (V/m) @ t=0.4
0.9075420094371656
% es.tEY (V/m) @ t=0.4
0
% es.tEZ (V/m) @ t=0.4
-2.072845191406895
% es.Ex (V/m) @ t=0.4
0.9075420094371653
% es.Ey (V/m) @ t=0.4
0.23993761881054887
% es.Ez (V/m) @ t=0.4
-2.072845191406892
% es.tEx (V/m) @ t=0.4
0.9075420094371656
% es.tEy (V/m) @ t=0.4
0
% es.tEz (V/m) @ t=0.4
-2.072845191406895
% V (V) @ t=0.4
0.011386071800512418
% es.normE (V/m) @ t=0.42
2.298342933776749
% es.EX (V/m) @ t=0.42
0.9159780941657034
% es.EY (V/m) @ t=0.42
0.24216797543814295
% es.EZ (V/m) @ t=0.42
-2.0921133839349197
% es.tEX (V/m) @ t=0.42
0.9159780941657001
% es.tEY (V/m) @ t=0.42
0
% es.tEZ (V/m) @ t=0.42
-2.0921133839349224
% es.Ex (V/m) @ t=0.42
0.9159780941657034
% es.Ey (V/m) @ t=0.42
0.24216797543814295
% es.Ez (V/m) @ t=0.42
-2.0921133839349197
% es.tEx (V/m) @ t=0.42
0.9159780941657001
% es.tEy (V/m) @ t=0.42
0
% es.tEz (V/m) @ t=0.42
-2.0921133839349224
% V (V) @ t=0.42
0.011491911226800421
% es.normE (V/m) @ t=0.44
2.319510484897516
% es.EX (V/m) @ t=0.44
0.924414178894249
% es.EY (V/m) @ t=0.44
0.2443983320657388
% es.EZ (V/m) @ t=0.44
-2.1113815764629535
% es.tEX (V/m) @ t=0.44
0.9244141788942493
% es.tEY (V/m) @ t=0.44
0
% es.tEZ (V/m) @ t=0.44
-2.1113815764629535
% es.Ex (V/m) @ t=0.44
0.924414178894249
% es.Ey (V/m) @ t=0.44
0.2443983320657388
% es.Ez (V/m) @ t=0.44
-2.1113815764629535
% es.tEx (V/m) @ t=0.44
0.9244141788942493
% es.tEy (V/m) @ t=0.44
0
% es.tEz (V/m) @ t=0.44
-2.1113815764629535
% V (V) @ t=0.44
0.01159775065308842
% es.normE (V/m) @ t=0.46
2.3406780360182666
% es.EX (V/m) @ t=0.46
0.9328502636227833
% es.EY (V/m) @ t=0.46
0.2466286886933311
% es.EZ (V/m) @ t=0.46
-2.130649768990974
% es.tEX (V/m) @ t=0.46
0.9328502636227838
% es.tEY (V/m) @ t=0.46
0
% es.tEZ (V/m) @ t=0.46
-2.1306497689909776
% es.Ex (V/m) @ t=0.46
0.9328502636227833
% es.Ey (V/m) @ t=0.46
0.2466286886933311
% es.Ez (V/m) @ t=0.46
-2.130649768990974
% es.tEx (V/m) @ t=0.46
0.9328502636227838
% es.tEy (V/m) @ t=0.46
0
% es.tEz (V/m) @ t=0.46
-2.1306497689909776
% V (V) @ t=0.46
0.011703590079376425
% es.normE (V/m) @ t=0.48
2.361845587139028
% es.EX (V/m) @ t=0.48
0.9412863483513108
% es.EY (V/m) @ t=0.48
0.24885904532093672
% es.EZ (V/m) @ t=0.48
-2.1499179615190096
% es.tEX (V/m) @ t=0.48
0.9412863483513112
% es.tEY (V/m) @ t=0.48
0
% es.tEZ (V/m) @ t=0.48
-2.1499179615190123
% es.Ex (V/m) @ t=0.48
0.9412863483513108
% es.Ey (V/m) @ t=0.48
0.24885904532093672
% es.Ez (V/m) @ t=0.48
-2.1499179615190096
% es.tEx (V/m) @ t=0.48
0.9412863483513112
% es.tEy (V/m) @ t=0.48
0
% es.tEz (V/m) @ t=0.48
-2.1499179615190123
% V (V) @ t=0.48
0.011809429505664425
% es.normE (V/m) @ t=0.5
2.3830131382597797
% es.EX (V/m) @ t=0.5
0.9497224330798593
% es.EY (V/m) @ t=0.5
0.2510894019485148
% es.EZ (V/m) @ t=0.5
-2.1691861540470283
% es.tEX (V/m) @ t=0.5
0.9497224330798524
% es.tEY (V/m) @ t=0.5
0
% es.tEZ (V/m) @ t=0.5
-2.1691861540470434
% es.Ex (V/m) @ t=0.5
0.9497224330798593
% es.Ey (V/m) @ t=0.5
0.2510894019485148
% es.Ez (V/m) @ t=0.5
-2.1691861540470283
% es.tEx (V/m) @ t=0.5
0.9497224330798524
% es.tEy (V/m) @ t=0.5
0
% es.tEz (V/m) @ t=0.5
-2.1691861540470434
% V (V) @ t=0.5
0.011915268931952426
% es.normE (V/m) @ t=0.52
2.404180689380537
% es.EX (V/m) @ t=0.52
0.9581585178083931
% es.EY (V/m) @ t=0.52
0.25331975857611777
% es.EZ (V/m) @ t=0.52
-2.188454346575056
% es.tEX (V/m) @ t=0.52
0.9581585178083865
% es.tEY (V/m) @ t=0.52
0
% es.tEZ (V/m) @ t=0.52
-2.1884543465750586
% es.Ex (V/m) @ t=0.52
0.9581585178083931
% es.Ey (V/m) @ t=0.52
0.25331975857611777
% es.Ez (V/m) @ t=0.52
-2.188454346575056
% es.tEx (V/m) @ t=0.52
0.9581585178083865
% es.tEy (V/m) @ t=0.52
0
% es.tEz (V/m) @ t=0.52
-2.1884543465750586
% V (V) @ t=0.52
0.01202110835824043
% es.normE (V/m) @ t=0.54
2.4269022401742197
% es.EX (V/m) @ t=0.54
0.9672139306299417
% es.EY (V/m) @ t=0.54
0.25571384906958095
% es.EZ (V/m) @ t=0.54
-2.2091370995967576
% es.tEX (V/m) @ t=0.54
0.9672139306299421
% es.tEY (V/m) @ t=0.54
0
% es.tEZ (V/m) @ t=0.54
-2.2091370995967665
% es.Ex (V/m) @ t=0.54
0.9672139306299417
% es.Ey (V/m) @ t=0.54
0.25571384906958095
% es.Ez (V/m) @ t=0.54
-2.2091370995967576
% es.tEx (V/m) @ t=0.54
0.9672139306299421
% es.tEy (V/m) @ t=0.54
0
% es.tEz (V/m) @ t=0.54
-2.2091370995967665
% V (V) @ t=0.54
0.012134718023018761
% es.normE (V/m) @ t=0.56
2.4504343766804393
% es.EX (V/m) @ t=0.56
0.9765923927495552
% es.EY (V/m) @ t=0.56
0.25819334520031845
% es.EZ (V/m) @ t=0.56
-2.2305577051068983
% es.tEX (V/m) @ t=0.56
0.9765923927495486
% es.tEY (V/m) @ t=0.56
0
% es.tEZ (V/m) @ t=0.56
-2.2305577051069037
% es.Ex (V/m) @ t=0.56
0.9765923927495552
% es.Ey (V/m) @ t=0.56
0.25819334520031845
% es.Ez (V/m) @ t=0.56
-2.2305577051068983
% es.tEx (V/m) @ t=0.56
0.9765923927495486
% es.tEy (V/m) @ t=0.56
0
% es.tEz (V/m) @ t=0.56
-2.2305577051069037
% V (V) @ t=0.56
0.012252380741612414
% es.normE (V/m) @ t=0.58
2.473966513186645
% es.EX (V/m) @ t=0.58
0.9859708548691546
% es.EY (V/m) @ t=0.58
0.26067284133104707
% es.EZ (V/m) @ t=0.58
-2.25197831061703
% es.tEX (V/m) @ t=0.58
0.985970854869155
% es.tEY (V/m) @ t=0.58
0
% es.tEZ (V/m) @ t=0.58
-2.2519783106170372
% es.Ex (V/m) @ t=0.58
0.9859708548691546
% es.Ey (V/m) @ t=0.58
0.26067284133104707
% es.Ez (V/m) @ t=0.58
-2.25197831061703
% es.tEx (V/m) @ t=0.58
0.985970854869155
% es.tEy (V/m) @ t=0.58
0
% es.tEz (V/m) @ t=0.58
-2.2519783106170372
% V (V) @ t=0.58
0.012370043460206068
% es.normE (V/m) @ t=0.6
2.4974986496928673
% es.EX (V/m) @ t=0.6
0.9953493169887824
% es.EY (V/m) @ t=0.6
0.26315233746175437
% es.EZ (V/m) @ t=0.6
-2.273398916127171
% es.tEX (V/m) @ t=0.6
0.9953493169887757
% es.tEY (V/m) @ t=0.6
0
% es.tEZ (V/m) @ t=0.6
-2.273398916127171
% es.Ex (V/m) @ t=0.6
0.9953493169887824
% es.Ey (V/m) @ t=0.6
0.26315233746175437
% es.Ez (V/m) @ t=0.6
-2.273398916127171
% es.tEx (V/m) @ t=0.6
0.9953493169887757
% es.tEy (V/m) @ t=0.6
0
% es.tEz (V/m) @ t=0.6
-2.273398916127171
% V (V) @ t=0.6
0.012487706178799723
% es.normE (V/m) @ t=0.62
2.5210307861990753
% es.EX (V/m) @ t=0.62
1.0047277791083817
% es.EY (V/m) @ t=0.62
0.26563183359248654
% es.EZ (V/m) @ t=0.62
-2.2948195216373044
% es.tEX (V/m) @ t=0.62
1.004727779108375
% es.tEY (V/m) @ t=0.62
0
% es.tEZ (V/m) @ t=0.62
-2.2948195216373186
% es.Ex (V/m) @ t=0.62
1.0047277791083817
% es.Ey (V/m) @ t=0.62
0.26563183359248654
% es.Ez (V/m) @ t=0.62
-2.2948195216373044
% es.tEx (V/m) @ t=0.62
1.004727779108375
% es.tEy (V/m) @ t=0.62
0
% es.tEz (V/m) @ t=0.62
-2.2948195216373186
% V (V) @ t=0.62
0.012605368897393377
% es.normE (V/m) @ t=0.64
2.544562922705314
% es.EX (V/m) @ t=0.64
1.014106241228009
% es.EY (V/m) @ t=0.64
0.26811132972320273
% es.EZ (V/m) @ t=0.64
-2.316240127147463
% es.tEX (V/m) @ t=0.64
1.0141062412280162
% es.tEY (V/m) @ t=0.64
0
% es.tEZ (V/m) @ t=0.64
-2.316240127147463
% es.Ex (V/m) @ t=0.64
1.014106241228009
% es.Ey (V/m) @ t=0.64
0.26811132972320273
% es.Ez (V/m) @ t=0.64
-2.316240127147463
% es.tEx (V/m) @ t=0.64
1.0141062412280162
% es.tEy (V/m) @ t=0.64
0
% es.tEz (V/m) @ t=0.64
-2.316240127147463
% V (V) @ t=0.64
0.012723031615987031
% es.normE (V/m) @ t=0.66
2.568095059211518
% es.EX (V/m) @ t=0.66
1.0234847033476155
% es.EY (V/m) @ t=0.66
0.27059082585393845
% es.EZ (V/m) @ t=0.66
-2.3376607326575893
% es.tEX (V/m) @ t=0.66
1.0234847033476155
% es.tEY (V/m) @ t=0.66
0
% es.tEZ (V/m) @ t=0.66
-2.337660732657593
% es.Ex (V/m) @ t=0.66
1.0234847033476155
% es.Ey (V/m) @ t=0.66
0.27059082585393845
% es.Ez (V/m) @ t=0.66
-2.3376607326575893
% es.tEx (V/m) @ t=0.66
1.0234847033476155
% es.tEy (V/m) @ t=0.66
0
% es.tEz (V/m) @ t=0.66
-2.337660732657593
% V (V) @ t=0.66
0.012840694334580682
% es.normE (V/m) @ t=0.68
2.591627195717734
% es.EX (V/m) @ t=0.68
1.0328631654672296
% es.EY (V/m) @ t=0.68
0.27307032198465375
% es.EZ (V/m) @ t=0.68
-2.3590813381677282
% es.tEX (V/m) @ t=0.68
1.03286316546723
% es.tEY (V/m) @ t=0.68
0
% es.tEZ (V/m) @ t=0.68
-2.3590813381677336
% es.Ex (V/m) @ t=0.68
1.0328631654672296
% es.Ey (V/m) @ t=0.68
0.27307032198465375
% es.Ez (V/m) @ t=0.68
-2.3590813381677282
% es.tEx (V/m) @ t=0.68
1.03286316546723
% es.tEy (V/m) @ t=0.68
0
% es.tEz (V/m) @ t=0.68
-2.3590813381677336
% V (V) @ t=0.68
0.012958357053174337
% es.normE (V/m) @ t=0.7
2.615159332223941
% es.EX (V/m) @ t=0.7
1.042241627586829
% es.EY (V/m) @ t=0.7
0.2755498181153859
% es.EZ (V/m) @ t=0.7
-2.380501943677862
% es.tEX (V/m) @ t=0.7
1.0422416275868294
% es.tEY (V/m) @ t=0.7
0
% es.tEZ (V/m) @ t=0.7
-2.3805019436778707
% es.Ex (V/m) @ t=0.7
1.042241627586829
% es.Ey (V/m) @ t=0.7
0.2755498181153859
% es.Ez (V/m) @ t=0.7
-2.380501943677862
% es.tEx (V/m) @ t=0.7
1.0422416275868294
% es.tEy (V/m) @ t=0.7
0
% es.tEz (V/m) @ t=0.7
-2.3805019436778707
% V (V) @ t=0.7
0.013076019771767993
% es.normE (V/m) @ t=0.72
2.6386914687301593
% es.EX (V/m) @ t=0.72
1.0516200897064496
% es.EY (V/m) @ t=0.72
0.278029314246111
% es.EZ (V/m) @ t=0.72
-2.401922549187999
% es.tEX (V/m) @ t=0.72
1.0516200897064572
% es.tEY (V/m) @ t=0.72
0
% es.tEZ (V/m) @ t=0.72
-2.4019225491880007
% es.Ex (V/m) @ t=0.72
1.0516200897064496
% es.Ey (V/m) @ t=0.72
0.278029314246111
% es.Ez (V/m) @ t=0.72
-2.401922549187999
% es.tEx (V/m) @ t=0.72
1.0516200897064572
% es.tEy (V/m) @ t=0.72
0
% es.tEz (V/m) @ t=0.72
-2.4019225491880007
% V (V) @ t=0.72
0.013193682490361647
% es.normE (V/m) @ t=0.74
2.6622236052363775
% es.EX (V/m) @ t=0.74
1.0609985518260632
% es.EY (V/m) @ t=0.74
0.28050881037682895
% es.EZ (V/m) @ t=0.74
-2.4233431546981397
% es.tEX (V/m) @ t=0.74
1.0609985518260565
% es.tEY (V/m) @ t=0.74
0
% es.tEZ (V/m) @ t=0.74
-2.423343154698145
% es.Ex (V/m) @ t=0.74
1.0609985518260632
% es.Ey (V/m) @ t=0.74
0.28050881037682895
% es.Ez (V/m) @ t=0.74
-2.4233431546981397
% es.tEx (V/m) @ t=0.74
1.0609985518260565
% es.tEy (V/m) @ t=0.74
0
% es.tEz (V/m) @ t=0.74
-2.423343154698145
% V (V) @ t=0.74
0.0133113452089553
% es.normE (V/m) @ t=0.76
2.6857557417426
% es.EX (V/m) @ t=0.76
1.0703770139456839
% es.EY (V/m) @ t=0.76
0.282988306507554
% es.EZ (V/m) @ t=0.76
-2.444763760208282
% es.tEX (V/m) @ t=0.76
1.0703770139456843
% es.tEY (V/m) @ t=0.76
0
% es.tEZ (V/m) @ t=0.76
-2.444763760208282
% es.Ex (V/m) @ t=0.76
1.0703770139456839
% es.Ey (V/m) @ t=0.76
0.282988306507554
% es.Ez (V/m) @ t=0.76
-2.444763760208282
% es.tEx (V/m) @ t=0.76
1.0703770139456843
% es.tEy (V/m) @ t=0.76
0
% es.tEz (V/m) @ t=0.76
-2.444763760208282
% V (V) @ t=0.76
0.013429007927548956
% es.normE (V/m) @ t=0.78
2.709287878248801
% es.EX (V/m) @ t=0.78
1.0797554760652757
% es.EY (V/m) @ t=0.78
0.2854678026383004
% es.EZ (V/m) @ t=0.78
-2.4661843657184104
% es.tEX (V/m) @ t=0.78
1.0797554760652686
% es.tEY (V/m) @ t=0.78
0
% es.tEZ (V/m) @ t=0.78
-2.4661843657184157
% es.Ex (V/m) @ t=0.78
1.0797554760652757
% es.Ey (V/m) @ t=0.78
0.2854678026383004
% es.Ez (V/m) @ t=0.78
-2.4661843657184104
% es.tEx (V/m) @ t=0.78
1.0797554760652686
% es.tEy (V/m) @ t=0.78
0
% es.tEz (V/m) @ t=0.78
-2.4661843657184157
% V (V) @ t=0.78
0.013546670646142607
% es.normE (V/m) @ t=0.8
2.7341315624984626
% es.EX (V/m) @ t=0.8
1.0896566403433874
% es.EY (V/m) @ t=0.8
0.28808549035469344
% es.EZ (V/m) @ t=0.8
-2.488798834378846
% es.tEX (V/m) @ t=0.8
1.0896566403433878
% es.tEY (V/m) @ t=0.8
0
% es.tEZ (V/m) @ t=0.8
-2.4887988343788514
% es.Ex (V/m) @ t=0.8
1.0896566403433874
% es.Ey (V/m) @ t=0.8
0.28808549035469344
% es.Ez (V/m) @ t=0.8
-2.488798834378846
% es.tEx (V/m) @ t=0.8
1.0896566403433878
% es.tEy (V/m) @ t=0.8
0
% es.tEz (V/m) @ t=0.8
-2.4887988343788514
% V (V) @ t=0.8
0.013670891241978416
% es.normE (V/m) @ t=0.82
2.760336955262294
% es.EX (V/m) @ t=0.82
1.1001004977740627
% es.EY (V/m) @ t=0.82
0.2908466548600819
% es.EZ (V/m) @ t=0.82
-2.5126528260567405
% es.tEX (V/m) @ t=0.82
1.1001004977740632
% es.tEY (V/m) @ t=0.82
0
% es.tEZ (V/m) @ t=0.82
-2.512652826056737
% es.Ex (V/m) @ t=0.82
1.1001004977740627
% es.Ey (V/m) @ t=0.82
0.2908466548600819
% es.Ez (V/m) @ t=0.82
-2.5126528260567405
% es.tEx (V/m) @ t=0.82
1.1001004977740632
% es.tEy (V/m) @ t=0.82
0
% es.tEz (V/m) @ t=0.82
-2.512652826056737
% V (V) @ t=0.82
0.01380192052420784
% es.normE (V/m) @ t=0.84
2.7865423480260914
% es.EX (V/m) @ t=0.84
1.1105443552046954
% es.EY (V/m) @ t=0.84
0.2936078193654881
% es.EZ (V/m) @ t=0.84
-2.5365068177346135
% es.tEX (V/m) @ t=0.84
1.1105443552046959
% es.tEY (V/m) @ t=0.84
0
% es.tEZ (V/m) @ t=0.84
-2.5365068177346153
% es.Ex (V/m) @ t=0.84
1.1105443552046954
% es.Ey (V/m) @ t=0.84
0.2936078193654881
% es.Ez (V/m) @ t=0.84
-2.5365068177346135
% es.tEx (V/m) @ t=0.84
1.1105443552046959
% es.tEy (V/m) @ t=0.84
0
% es.tEz (V/m) @ t=0.84
-2.5365068177346153
% V (V) @ t=0.84
0.013932949806437268
% es.normE (V/m) @ t=0.86
2.8127477407899146
% es.EX (V/m) @ t=0.86
1.1209882126353494
% es.EY (V/m) @ t=0.86
0.29636898387087207
% es.EZ (V/m) @ t=0.86
-2.5603608094125097
% es.tEX (V/m) @ t=0.86
1.120988212635357
% es.tEY (V/m) @ t=0.86
0
% es.tEZ (V/m) @ t=0.86
-2.5603608094125114
% es.Ex (V/m) @ t=0.86
1.1209882126353494
% es.Ey (V/m) @ t=0.86
0.29636898387087207
% es.Ez (V/m) @ t=0.86
-2.5603608094125097
% es.tEx (V/m) @ t=0.86
1.120988212635357
% es.tEy (V/m) @ t=0.86
0
% es.tEz (V/m) @ t=0.86
-2.5603608094125114
% V (V) @ t=0.86
0.014063979088666695
% es.normE (V/m) @ t=0.88
2.838953133553717
% es.EX (V/m) @ t=0.88
1.1314320700660034
% es.EY (V/m) @ t=0.88
0.2991301483762543
% es.EZ (V/m) @ t=0.88
-2.584214801090381
% es.tEX (V/m) @ t=0.88
1.1314320700660039
% es.tEY (V/m) @ t=0.88
0
% es.tEZ (V/m) @ t=0.88
-2.5842148010903863
% es.Ex (V/m) @ t=0.88
1.1314320700660034
% es.Ey (V/m) @ t=0.88
0.2991301483762543
% es.Ez (V/m) @ t=0.88
-2.584214801090381
% es.tEx (V/m) @ t=0.88
1.1314320700660039
% es.tEy (V/m) @ t=0.88
0
% es.tEz (V/m) @ t=0.88
-2.5842148010903863
% V (V) @ t=0.88
0.014195008370896118
% es.normE (V/m) @ t=0.9
2.8651585263175314
% es.EX (V/m) @ t=0.9
1.1418759274966503
% es.EY (V/m) @ t=0.9
0.30189131288166315
% es.EZ (V/m) @ t=0.9
-2.6080687927682664
% es.tEX (V/m) @ t=0.9
1.1418759274966508
% es.tEY (V/m) @ t=0.9
0
% es.tEZ (V/m) @ t=0.9
-2.6080687927682717
% es.Ex (V/m) @ t=0.9
1.1418759274966503
% es.Ey (V/m) @ t=0.9
0.30189131288166315
% es.Ez (V/m) @ t=0.9
-2.6080687927682664
% es.tEx (V/m) @ t=0.9
1.1418759274966508
% es.tEy (V/m) @ t=0.9
0
% es.tEz (V/m) @ t=0.9
-2.6080687927682717
% V (V) @ t=0.9
0.014326037653125547
% es.normE (V/m) @ t=0.92
2.891363919081355
% es.EX (V/m) @ t=0.92
1.1523197849273115
% es.EY (V/m) @ t=0.92
0.30465247738704804
% es.EZ (V/m) @ t=0.92
-2.631922784446159
% es.tEX (V/m) @ t=0.92
1.152319784927312
% es.tEY (V/m) @ t=0.92
0
% es.tEZ (V/m) @ t=0.92
-2.6319227844461643
% es.Ex (V/m) @ t=0.92
1.1523197849273115
% es.Ey (V/m) @ t=0.92
0.30465247738704804
% es.Ez (V/m) @ t=0.92
-2.631922784446159
% es.tEx (V/m) @ t=0.92
1.152319784927312
% es.tEy (V/m) @ t=0.92
0
% es.tEz (V/m) @ t=0.92
-2.6319227844461643
% V (V) @ t=0.92
0.01445706693535497
% es.normE (V/m) @ t=0.94
2.9175693118451673
% es.EX (V/m) @ t=0.94
1.1627636423579726
% es.EY (V/m) @ t=0.94
0.30741364189244
% es.EZ (V/m) @ t=0.94
-2.6557767761240374
% es.tEX (V/m) @ t=0.94
1.162763642357973
% es.tEY (V/m) @ t=0.94
0
% es.tEZ (V/m) @ t=0.94
-2.6557767761240427
% es.Ex (V/m) @ t=0.94
1.1627636423579726
% es.Ey (V/m) @ t=0.94
0.30741364189244
% es.Ez (V/m) @ t=0.94
-2.6557767761240374
% es.tEx (V/m) @ t=0.94
1.162763642357973
% es.tEy (V/m) @ t=0.94
0
% es.tEz (V/m) @ t=0.94
-2.6557767761240427
% V (V) @ t=0.94
0.014588096217584398
% es.normE (V/m) @ t=0.96
2.9437747046089706
% es.EX (V/m) @ t=0.96
1.1732074997885982
% es.EY (V/m) @ t=0.96
0.31017480639785333
% es.EZ (V/m) @ t=0.96
-2.6796307678019193
% es.tEX (V/m) @ t=0.96
1.1732074997885915
% es.tEY (V/m) @ t=0.96
0
% es.tEZ (V/m) @ t=0.96
-2.6796307678019176
% es.Ex (V/m) @ t=0.96
1.1732074997885982
% es.Ey (V/m) @ t=0.96
0.31017480639785333
% es.Ez (V/m) @ t=0.96
-2.6796307678019193
% es.tEx (V/m) @ t=0.96
1.1732074997885915
% es.tEy (V/m) @ t=0.96
0
% es.tEz (V/m) @ t=0.96
-2.6796307678019176
% V (V) @ t=0.96
0.014719125499813822
% es.normE (V/m) @ t=0.98
2.969980097372777
% es.EX (V/m) @ t=0.98
1.1836513572192389
% es.EY (V/m) @ t=0.98
0.312935970903248
% es.EZ (V/m) @ t=0.98
-2.7034847594798013
% es.tEX (V/m) @ t=0.98
1.1836513572192393
% es.tEY (V/m) @ t=0.98
0
% es.tEZ (V/m) @ t=0.98
-2.7034847594797995
% es.Ex (V/m) @ t=0.98
1.1836513572192389
% es.Ey (V/m) @ t=0.98
0.312935970903248
% es.Ez (V/m) @ t=0.98
-2.7034847594798013
% es.tEx (V/m) @ t=0.98
1.1836513572192393
% es.tEy (V/m) @ t=0.98
0
% es.tEz (V/m) @ t=0.98
-2.7034847594797995
% V (V) @ t=0.98
0.01485015478204325
% es.normE (V/m) @ t=1
2.996185490136585
% es.EX (V/m) @ t=1
1.1940952146498858
% es.EY (V/m) @ t=1
0.31569713540862576
% es.EZ (V/m) @ t=1
-2.727338751157683
% es.tEX (V/m) @ t=1
1.1940952146498862
% es.tEY (V/m) @ t=1
0
% es.tEZ (V/m) @ t=1
-2.727338751157685
% es.Ex (V/m) @ t=1
1.1940952146498858
% es.Ey (V/m) @ t=1
0.31569713540862576
% es.Ez (V/m) @ t=1
-2.727338751157683
% es.tEx (V/m) @ t=1
1.1940952146498862
% es.tEy (V/m) @ t=1
0
% es.tEz (V/m) @ t=1
-2.727338751157685
% V (V) @ t=1
0.014981184064272674
% es.normE (V/m) @ t=1.02
3.022390882900407
% es.EX (V/m) @ t=1.02
1.204539072080554
% es.EY (V/m) @ t=1.02
0.31845829991403196
% es.EZ (V/m) @ t=1.02
-2.7511927428355687
% es.tEX (V/m) @ t=1.02
1.2045390720805473
% es.tEY (V/m) @ t=1.02
0
% es.tEZ (V/m) @ t=1.02
-2.7511927428355776
% es.Ex (V/m) @ t=1.02
1.204539072080554
% es.Ey (V/m) @ t=1.02
0.31845829991403196
% es.Ez (V/m) @ t=1.02
-2.7511927428355687
% es.tEx (V/m) @ t=1.02
1.2045390720805473
% es.tEy (V/m) @ t=1.02
0
% es.tEz (V/m) @ t=1.02
-2.7511927428355776
% V (V) @ t=1.02
0.015112213346502102
% es.normE (V/m) @ t=1.04
3.0485962756642095
% es.EX (V/m) @ t=1.04
1.2149829295111858
% es.EY (V/m) @ t=1.04
0.32121946441940974
% es.EZ (V/m) @ t=1.04
-2.7750467345134506
% es.tEX (V/m) @ t=1.04
1.2149829295111791
% es.tEY (V/m) @ t=1.04
0
% es.tEZ (V/m) @ t=1.04
-2.775046734513456