% Model:              1 neuron.mph
% Version:            COMSOL 6.1.0.252
% Date:               Mar 22 2023, 19:54
% Dimension:          0
% Nodes:              14017
% Expressions:        14017
% Description:        Electric field norm, Electric field, X component, Electric field, Y component, Electric field, Z component, Tangential electric field, X component, Tangential electric field, Y component, Tangential electric field, Z component, Electric field, x component, Electric field, y component, Electric field, z component, Tangential electric field, x component, Tangential electric field, y component, Tangential electric field, z component, Electric potential
% Length unit:        mm
% x
1.66
% y
12.2
% z
2
% es.normE (V/m) @ t=0
2.1904472845848115
% es.EX (V/m) @ t=0
-0.6534550840467577
% es.EY (V/m) @ t=0
0.048810430410740666
% es.EZ (V/m) @ t=0
-2.086620101652792
% es.tEX (V/m) @ t=0
-0.6534550840467652
% es.tEY (V/m) @ t=0
0
% es.tEZ (V/m) @ t=0
-2.0866201016528185
% es.Ex (V/m) @ t=0
-0.6534550840467577
% es.Ey (V/m) @ t=0
0.048810430410740666
% es.Ez (V/m) @ t=0
-2.086620101652792
% es.tEx (V/m) @ t=0
-0.6534550840467652
% es.tEy (V/m) @ t=0
0
% es.tEz (V/m) @ t=0
-2.0866201016528185
% V (V) @ t=0
0.01101009896432205
% es.normE (V/m) @ t=0.02
1.8919223196871406
% es.EX (V/m) @ t=0.02
-0.564399000712968
% es.EY (V/m) @ t=0.02
0.04215830417205117
% es.EZ (V/m) @ t=0.02
-1.8022452175731751
% es.tEX (V/m) @ t=0.02
-0.5643990007129744
% es.tEY (V/m) @ t=0.02
0
% es.tEZ (V/m) @ t=0.02
-1.8022452175731916
% es.Ex (V/m) @ t=0.02
-0.564399000712968
% es.Ey (V/m) @ t=0.02
0.04215830417205117
% es.Ez (V/m) @ t=0.02
-1.8022452175731751
% es.tEx (V/m) @ t=0.02
-0.5643990007129744
% es.tEy (V/m) @ t=0.02
0
% es.tEz (V/m) @ t=0.02
-1.8022452175731916
% V (V) @ t=0.02
0.00950958834370318
% es.normE (V/m) @ t=0.04
1.9093365873938426
% es.EX (V/m) @ t=0.04
-0.569594031848655
% es.EY (V/m) @ t=0.04
0.04254635186879052
% es.EZ (V/m) @ t=0.04
-1.8188340491253818
% es.tEX (V/m) @ t=0.04
-0.5695940318486556
% es.tEY (V/m) @ t=0.04
0
% es.tEZ (V/m) @ t=0.04
-1.8188340491254014
% es.Ex (V/m) @ t=0.04
-0.569594031848655
% es.Ey (V/m) @ t=0.04
0.04254635186879052
% es.Ez (V/m) @ t=0.04
-1.8188340491253818
% es.tEx (V/m) @ t=0.04
-0.5695940318486556
% es.tEy (V/m) @ t=0.04
0
% es.tEz (V/m) @ t=0.04
-1.8188340491254014
% V (V) @ t=0.04
0.00959711969260901
% es.normE (V/m) @ t=0.06
1.9268860948608988
% es.EX (V/m) @ t=0.06
-0.5748294075677604
% es.EY (V/m) @ t=0.06
0.04293741285842238
% es.EZ (V/m) @ t=0.06
-1.8355517101357863
% es.tEX (V/m) @ t=0.06
-0.574829407567762
% es.tEY (V/m) @ t=0.06
0
% es.tEZ (V/m) @ t=0.06
-1.8355517101357979
% es.Ex (V/m) @ t=0.06
-0.5748294075677604
% es.Ey (V/m) @ t=0.06
0.04293741285842238
% es.Ez (V/m) @ t=0.06
-1.8355517101357863
% es.tEx (V/m) @ t=0.06
-0.574829407567762
% es.tEy (V/m) @ t=0.06
0
% es.tEz (V/m) @ t=0.06
-1.8355517101357979
% V (V) @ t=0.06
0.009685330826153242
% es.normE (V/m) @ t=0.08
1.944753685598367
% es.EX (V/m) @ t=0.08
-0.580159674189482
% es.EY (V/m) @ t=0.08
0.04333556206417595
% es.EZ (V/m) @ t=0.08
-1.8525723772163718
% es.tEX (V/m) @ t=0.08
-0.5801596741894919
% es.tEY (V/m) @ t=0.08
0
% es.tEZ (V/m) @ t=0.08
-1.8525723772163891
% es.Ex (V/m) @ t=0.08
-0.580159674189482
% es.Ey (V/m) @ t=0.08
0.04333556206417595
% es.Ez (V/m) @ t=0.08
-1.8525723772163718
% es.tEx (V/m) @ t=0.08
-0.5801596741894919
% es.tEy (V/m) @ t=0.08
0
% es.tEz (V/m) @ t=0.08
-1.8525723772163891
% V (V) @ t=0.08
0.00977514076639747
% es.normE (V/m) @ t=0.1
1.9627378749932358
% es.EX (V/m) @ t=0.1
-0.5855247246331488
% es.EY (V/m) @ t=0.1
0.043736309572191615
% es.EZ (V/m) @ t=0.1
-1.8697041161584957
% es.tEX (V/m) @ t=0.1
-0.585524724633153
% es.tEY (V/m) @ t=0.1
0
% es.tEZ (V/m) @ t=0.1
-1.8697041161585082
% es.Ex (V/m) @ t=0.1
-0.5855247246331488
% es.Ey (V/m) @ t=0.1
0.043736309572191615
% es.Ez (V/m) @ t=0.1
-1.8697041161584957
% es.tEx (V/m) @ t=0.1
-0.585524724633153
% es.tEy (V/m) @ t=0.1
0
% es.tEz (V/m) @ t=0.1
-1.8697041161585082
% V (V) @ t=0.1
0.009865536775548786
% es.normE (V/m) @ t=0.12
1.9807220643880914
% es.EX (V/m) @ t=0.12
-0.5908897750768154
% es.EY (V/m) @ t=0.12
0.044137057080193304
% es.EZ (V/m) @ t=0.12
-1.886835855100605
% es.tEX (V/m) @ t=0.12
-0.5908897750768176
% es.tEY (V/m) @ t=0.12
0
% es.tEZ (V/m) @ t=0.12
-1.8868358551006192
% es.Ex (V/m) @ t=0.12
-0.5908897750768154
% es.Ey (V/m) @ t=0.12
0.044137057080193304
% es.Ez (V/m) @ t=0.12
-1.886835855100605
% es.tEx (V/m) @ t=0.12
-0.5908897750768176
% es.tEy (V/m) @ t=0.12
0
% es.tEz (V/m) @ t=0.12
-1.8868358551006192
% V (V) @ t=0.12
0.009955932784700106
% es.normE (V/m) @ t=0.14
1.9991402884934613
% es.EX (V/m) @ t=0.14
-0.5963843068726737
% es.EY (V/m) @ t=0.14
0.04454747624941997
% es.EZ (V/m) @ t=0.14
-1.904381055527292
% es.tEX (V/m) @ t=0.14
-0.5963843068726824
% es.tEY (V/m) @ t=0.14
0
% es.tEZ (V/m) @ t=0.14
-1.9043810555273115
% es.Ex (V/m) @ t=0.14
-0.5963843068726737
% es.Ey (V/m) @ t=0.14
0.04454747624941997
% es.Ez (V/m) @ t=0.14
-1.904381055527292
% es.tEx (V/m) @ t=0.14
-0.5963843068726824
% es.tEy (V/m) @ t=0.14
0
% es.tEz (V/m) @ t=0.14
-1.9043810555273115
% V (V) @ t=0.14
0.01004851043625809
% es.normE (V/m) @ t=0.16
2.018041965203148
% es.EX (V/m) @ t=0.16
-0.6020230623801901
% es.EY (V/m) @ t=0.16
0.04496866826626507
% es.EZ (V/m) @ t=0.16
-1.9223867929263867
% es.tEX (V/m) @ t=0.16
-0.6020230623801908
% es.tEY (V/m) @ t=0.16
0
% es.tEZ (V/m) @ t=0.16
-1.922386792926397
% es.Ex (V/m) @ t=0.16
-0.6020230623801901
% es.Ey (V/m) @ t=0.16
0.04496866826626507
% es.Ez (V/m) @ t=0.16
-1.9223867929263867
% es.tEx (V/m) @ t=0.16
-0.6020230623801908
% es.tEy (V/m) @ t=0.16
0
% es.tEz (V/m) @ t=0.16
-1.922386792926397
% V (V) @ t=0.16
0.010143518125501301
% es.normE (V/m) @ t=0.18
2.0369436419128593
% es.EX (V/m) @ t=0.18
-0.6076618178877058
% es.EY (V/m) @ t=0.18
0.04538986028312385
% es.EZ (V/m) @ t=0.18
-1.940392530325508
% es.tEX (V/m) @ t=0.18
-0.6076618178877169
% es.tEY (V/m) @ t=0.18
0
% es.tEZ (V/m) @ t=0.18
-1.940392530325532
% es.Ex (V/m) @ t=0.18
-0.6076618178877058
% es.Ey (V/m) @ t=0.18
0.04538986028312385
% es.Ez (V/m) @ t=0.18
-1.940392530325508
% es.tEx (V/m) @ t=0.18
-0.6076618178877169
% es.tEy (V/m) @ t=0.18
0
% es.tEz (V/m) @ t=0.18
-1.940392530325532
% V (V) @ t=0.18
0.01023852581474451
% es.normE (V/m) @ t=0.2
2.055845318622554
% es.EX (V/m) @ t=0.2
-0.6133005733952248
% es.EY (V/m) @ t=0.2
0.04581105229997208
% es.EZ (V/m) @ t=0.2
-1.95839826772461
% es.tEX (V/m) @ t=0.2
-0.6133005733952288
% es.tEY (V/m) @ t=0.2
0
% es.tEZ (V/m) @ t=0.2
-1.9583982677246334
% es.Ex (V/m) @ t=0.2
-0.6133005733952248
% es.Ey (V/m) @ t=0.2
0.04581105229997208
% es.Ez (V/m) @ t=0.2
-1.95839826772461
% es.tEx (V/m) @ t=0.2
-0.6133005733952288
% es.tEy (V/m) @ t=0.2
0
% es.tEz (V/m) @ t=0.2
-1.9583982677246334
% V (V) @ t=0.2
0.010333533503987722
% es.normE (V/m) @ t=0.22
2.074746995332271
% es.EX (V/m) @ t=0.22
-0.6189393289027343
% es.EY (V/m) @ t=0.22
0.046232244316823795
% es.EZ (V/m) @ t=0.22
-1.9764040051237393
% es.tEX (V/m) @ t=0.22
-0.6189393289027336
% es.tEY (V/m) @ t=0.22
0
% es.tEZ (V/m) @ t=0.22
-1.9764040051237464
% es.Ex (V/m) @ t=0.22
-0.6189393289027343
% es.Ey (V/m) @ t=0.22
0.046232244316823795
% es.Ez (V/m) @ t=0.22
-1.9764040051237393
% es.tEx (V/m) @ t=0.22
-0.6189393289027336
% es.tEy (V/m) @ t=0.22
0
% es.tEz (V/m) @ t=0.22
-1.9764040051237464
% V (V) @ t=0.22
0.010428541193230932
% es.normE (V/m) @ t=0.24
2.0936486720419696
% es.EX (V/m) @ t=0.24
-0.6245780844102506
% es.EY (V/m) @ t=0.24
0.046653436333666656
% es.EZ (V/m) @ t=0.24
-1.9944097425228473
% es.tEX (V/m) @ t=0.24
-0.6245780844102526
% es.tEY (V/m) @ t=0.24
0
% es.tEZ (V/m) @ t=0.24
-1.9944097425228682
% es.Ex (V/m) @ t=0.24
-0.6245780844102506
% es.Ey (V/m) @ t=0.24
0.046653436333666656
% es.Ez (V/m) @ t=0.24
-1.9944097425228473
% es.tEx (V/m) @ t=0.24
-0.6245780844102526
% es.tEy (V/m) @ t=0.24
0
% es.tEz (V/m) @ t=0.24
-1.9944097425228682
% V (V) @ t=0.24
0.010523548882474141
% es.normE (V/m) @ t=0.26
2.112550348751656
% es.EX (V/m) @ t=0.26
-0.6302168399177661
% es.EY (V/m) @ t=0.26
0.04707462835051708
% es.EZ (V/m) @ t=0.26
-2.0124154799219416
% es.tEX (V/m) @ t=0.26
-0.6302168399177717
% es.tEY (V/m) @ t=0.26
0
% es.tEZ (V/m) @ t=0.26
-2.0124154799219536
% es.Ex (V/m) @ t=0.26
-0.6302168399177661
% es.Ey (V/m) @ t=0.26
0.04707462835051708
% es.Ez (V/m) @ t=0.26
-2.0124154799219416
% es.tEx (V/m) @ t=0.26
-0.6302168399177717
% es.tEy (V/m) @ t=0.26
0
% es.tEz (V/m) @ t=0.26
-2.0124154799219536
% V (V) @ t=0.26
0.010618556571717352
% es.normE (V/m) @ t=0.28
2.1334140910426798
% es.EX (V/m) @ t=0.28
-0.6364409179868826
% es.EY (V/m) @ t=0.28
0.047539539285917615
% es.EZ (V/m) @ t=0.28
-2.0322902815181276
% es.tEX (V/m) @ t=0.28
-0.6364409179868886
% es.tEY (V/m) @ t=0.28
0
% es.tEZ (V/m) @ t=0.28
-2.0322902815181436
% es.Ex (V/m) @ t=0.28
-0.6364409179868826
% es.Ey (V/m) @ t=0.28
0.047539539285917615
% es.Ez (V/m) @ t=0.28
-2.0322902815181276
% es.tEx (V/m) @ t=0.28
-0.6364409179868886
% es.tEy (V/m) @ t=0.28
0
% es.tEz (V/m) @ t=0.28
-2.0322902815181436
% V (V) @ t=0.28
0.010723426526208299
% es.normE (V/m) @ t=0.3
2.1543688146401174
% es.EX (V/m) @ t=0.3
-0.6426921375602529
% es.EY (V/m) @ t=0.3
0.04800647747482985
% es.EZ (V/m) @ t=0.3
-2.0522517519311174
% es.tEX (V/m) @ t=0.3
-0.6426921375602603
% es.tEY (V/m) @ t=0.3
0
% es.tEZ (V/m) @ t=0.3
-2.052251751931146
% es.Ex (V/m) @ t=0.3
-0.6426921375602529
% es.Ey (V/m) @ t=0.3
0.04800647747482985
% es.Ez (V/m) @ t=0.3
-2.0522517519311174
% es.tEx (V/m) @ t=0.3
-0.6426921375602603
% es.tEy (V/m) @ t=0.3
0
% es.tEz (V/m) @ t=0.3
-2.052251751931146
% V (V) @ t=0.3
0.010828753795574478
% es.normE (V/m) @ t=0.32
2.175323538237562
% es.EX (V/m) @ t=0.32
-0.6489433571336243
% es.EY (V/m) @ t=0.32
0.04847341566371052
% es.EZ (V/m) @ t=0.32
-2.0722132223441143
% es.tEX (V/m) @ t=0.32
-0.6489433571336285
% es.tEY (V/m) @ t=0.32
0
% es.tEZ (V/m) @ t=0.32
-2.0722132223441427
% es.Ex (V/m) @ t=0.32
-0.6489433571336243
% es.Ey (V/m) @ t=0.32
0.04847341566371052
% es.Ez (V/m) @ t=0.32
-2.0722132223441143
% es.tEx (V/m) @ t=0.32
-0.6489433571336285
% es.tEy (V/m) @ t=0.32
0
% es.tEz (V/m) @ t=0.32
-2.0722132223441427
% V (V) @ t=0.32
0.010934081064940655
% es.normE (V/m) @ t=0.34
2.196278261835019
% es.EX (V/m) @ t=0.34
-0.6551945767069873
% es.EY (V/m) @ t=0.34
0.04894035385262474
% es.EZ (V/m) @ t=0.34
-2.0921746927571263
% es.tEX (V/m) @ t=0.34
-0.6551945767069967
% es.tEY (V/m) @ t=0.34
0
% es.tEZ (V/m) @ t=0.34
-2.0921746927571254
% es.Ex (V/m) @ t=0.34
-0.6551945767069873
% es.Ey (V/m) @ t=0.34
0.04894035385262474
% es.Ez (V/m) @ t=0.34
-2.0921746927571263
% es.tEx (V/m) @ t=0.34
-0.6551945767069967
% es.tEy (V/m) @ t=0.34
0
% es.tEz (V/m) @ t=0.34
-2.0921746927571254
% V (V) @ t=0.34
0.011039408334306831
% es.normE (V/m) @ t=0.36
2.217232985432451
% es.EX (V/m) @ t=0.36
-0.6614457962803566
% es.EY (V/m) @ t=0.36
0.04940729204149434
% es.EZ (V/m) @ t=0.36
-2.11213616317011
% es.tEX (V/m) @ t=0.36
-0.6614457962803577
% es.tEY (V/m) @ t=0.36
0
% es.tEZ (V/m) @ t=0.36
-2.1121361631701276
% es.Ex (V/m) @ t=0.36
-0.6614457962803566
% es.Ey (V/m) @ t=0.36
0.04940729204149434
% es.Ez (V/m) @ t=0.36
-2.11213616317011
% es.tEx (V/m) @ t=0.36
-0.6614457962803577
% es.tEy (V/m) @ t=0.36
0
% es.tEz (V/m) @ t=0.36
-2.1121361631701276
% V (V) @ t=0.36
0.011144735603673009
% es.normE (V/m) @ t=0.38
2.238187709029896
% es.EX (V/m) @ t=0.38
-0.667697015853727
% es.EY (V/m) @ t=0.38
0.04987423023040655
% es.EZ (V/m) @ t=0.38
-2.1320976335831068
% es.tEX (V/m) @ t=0.38
-0.6676970158537294
% es.tEY (V/m) @ t=0.38
0
% es.tEZ (V/m) @ t=0.38
-2.1320976335831245
% es.Ex (V/m) @ t=0.38
-0.667697015853727
% es.Ey (V/m) @ t=0.38
0.04987423023040655
% es.Ez (V/m) @ t=0.38
-2.1320976335831068
% es.tEx (V/m) @ t=0.38
-0.6676970158537294
% es.tEy (V/m) @ t=0.38
0
% es.tEz (V/m) @ t=0.38
-2.1320976335831245
% V (V) @ t=0.38
0.011250062873039188
% es.normE (V/m) @ t=0.4
2.2591424326273364
% es.EX (V/m) @ t=0.4
-0.6739482354271044
% es.EY (V/m) @ t=0.4
0.05034116841930657
% es.EZ (V/m) @ t=0.4
-2.1520591039960966
% es.tEX (V/m) @ t=0.4
-0.6739482354271153
% es.tEY (V/m) @ t=0.4
0
% es.tEZ (V/m) @ t=0.4
-2.1520591039961143
% es.Ex (V/m) @ t=0.4
-0.6739482354271044
% es.Ey (V/m) @ t=0.4
0.05034116841930657
% es.Ez (V/m) @ t=0.4
-2.1520591039960966
% es.tEx (V/m) @ t=0.4
-0.6739482354271153
% es.tEy (V/m) @ t=0.4
0
% es.tEz (V/m) @ t=0.4
-2.1520591039961143
% V (V) @ t=0.4
0.011355390142405365
% es.normE (V/m) @ t=0.42
2.2800971562247607
% es.EX (V/m) @ t=0.42
-0.680199455000472
% es.EY (V/m) @ t=0.42
0.05080810660819261
% es.EZ (V/m) @ t=0.42
-2.172020574409073
% es.tEX (V/m) @ t=0.42
-0.6801994550004764
% es.tEY (V/m) @ t=0.42
0
% es.tEZ (V/m) @ t=0.42
-2.172020574409097
% es.Ex (V/m) @ t=0.42
-0.680199455000472
% es.Ey (V/m) @ t=0.42
0.05080810660819261
% es.Ez (V/m) @ t=0.42
-2.172020574409073
% es.tEx (V/m) @ t=0.42
-0.6801994550004764
% es.tEy (V/m) @ t=0.42
0
% es.tEz (V/m) @ t=0.42
-2.172020574409097
% V (V) @ t=0.42
0.011460717411771541
% es.normE (V/m) @ t=0.44
2.3010518798222126
% es.EX (V/m) @ t=0.44
-0.6864506745738423
% es.EY (V/m) @ t=0.44
0.051275044797103014
% es.EZ (V/m) @ t=0.44
-2.191982044822077
% es.tEX (V/m) @ t=0.44
-0.6864506745738552
% es.tEY (V/m) @ t=0.44
0
% es.tEZ (V/m) @ t=0.44
-2.191982044822108
% es.Ex (V/m) @ t=0.44
-0.6864506745738423
% es.Ey (V/m) @ t=0.44
0.051275044797103014
% es.Ez (V/m) @ t=0.44
-2.191982044822077
% es.tEx (V/m) @ t=0.44
-0.6864506745738552
% es.tEy (V/m) @ t=0.44
0
% es.tEz (V/m) @ t=0.44
-2.191982044822108
% V (V) @ t=0.44
0.011566044681137718
% es.normE (V/m) @ t=0.46
2.3220066034196574
% es.EX (V/m) @ t=0.46
-0.6927018941472096
% es.EY (V/m) @ t=0.46
0.05174198298598691
% es.EZ (V/m) @ t=0.46
-2.2119435152350757
% es.tEX (V/m) @ t=0.46
-0.6927018941472127
% es.tEY (V/m) @ t=0.46
0
% es.tEZ (V/m) @ t=0.46
-2.211943515235096
% es.Ex (V/m) @ t=0.46
-0.6927018941472096
% es.Ey (V/m) @ t=0.46
0.05174198298598691
% es.Ez (V/m) @ t=0.46
-2.2119435152350757
% es.tEx (V/m) @ t=0.46
-0.6927018941472127
% es.tEy (V/m) @ t=0.46
0
% es.tEz (V/m) @ t=0.46
-2.211943515235096
% V (V) @ t=0.46
0.011671371950503898
% es.normE (V/m) @ t=0.48
2.342961327017102
% es.EX (V/m) @ t=0.48
-0.6989531137205773
% es.EY (V/m) @ t=0.48
0.05220892117489778
% es.EZ (V/m) @ t=0.48
-2.2319049856480726
% es.tEX (V/m) @ t=0.48
-0.698953113720588
% es.tEY (V/m) @ t=0.48
0
% es.tEZ (V/m) @ t=0.48
-2.231904985648093
% es.Ex (V/m) @ t=0.48
-0.6989531137205773
% es.Ey (V/m) @ t=0.48
0.05220892117489778
% es.Ez (V/m) @ t=0.48
-2.2319049856480726
% es.tEx (V/m) @ t=0.48
-0.698953113720588
% es.tEy (V/m) @ t=0.48
0
% es.tEz (V/m) @ t=0.48
-2.231904985648093
% V (V) @ t=0.48
0.011776699219870072
% es.normE (V/m) @ t=0.5
2.363916050614529
% es.EX (V/m) @ t=0.5
-0.7052043332939519
% es.EY (V/m) @ t=0.5
0.0526758593637978
% es.EZ (V/m) @ t=0.5
-2.251866456061049
% es.tEX (V/m) @ t=0.5
-0.7052043332939526
% es.tEY (V/m) @ t=0.5
0
% es.tEZ (V/m) @ t=0.5
-2.251866456061083
% es.Ex (V/m) @ t=0.5
-0.7052043332939519
% es.Ey (V/m) @ t=0.5
0.0526758593637978
% es.Ez (V/m) @ t=0.5
-2.251866456061049
% es.tEx (V/m) @ t=0.5
-0.7052043332939526
% es.tEy (V/m) @ t=0.5
0
% es.tEz (V/m) @ t=0.5
-2.251866456061083
% V (V) @ t=0.5
0.011882026489236249
% es.normE (V/m) @ t=0.52
2.3848707742119872
% es.EX (V/m) @ t=0.52
-0.7114555528673231
% es.EY (V/m) @ t=0.52
0.05314279755269584
% es.EZ (V/m) @ t=0.52
-2.27182792647406
% es.tEX (V/m) @ t=0.52
-0.7114555528673314
% es.tEY (V/m) @ t=0.52
0
% es.tEZ (V/m) @ t=0.52
-2.2718279264740797
% es.Ex (V/m) @ t=0.52
-0.7114555528673231
% es.Ey (V/m) @ t=0.52
0.05314279755269584
% es.Ez (V/m) @ t=0.52
-2.27182792647406
% es.tEx (V/m) @ t=0.52
-0.7114555528673314
% es.tEy (V/m) @ t=0.52
0
% es.tEz (V/m) @ t=0.52
-2.2718279264740797
% V (V) @ t=0.52
0.011987353758602427
% es.normE (V/m) @ t=0.54
2.407956338484486
% es.EX (V/m) @ t=0.54
-0.7183424472037416
% es.EY (V/m) @ t=0.54
0.05365722027596667
% es.EZ (V/m) @ t=0.54
-2.293819235242453
% es.tEX (V/m) @ t=0.54
-0.718342447203753
% es.tEY (V/m) @ t=0.54
0
% es.tEZ (V/m) @ t=0.54
-2.293819235242478
% es.Ex (V/m) @ t=0.54
-0.7183424472037416
% es.Ey (V/m) @ t=0.54
0.05365722027596667
% es.Ez (V/m) @ t=0.54
-2.293819235242453
% es.tEx (V/m) @ t=0.54
-0.718342447203753
% es.tEy (V/m) @ t=0.54
0
% es.tEz (V/m) @ t=0.54
-2.293819235242478
% V (V) @ t=0.54
0.01210339141489228
% es.normE (V/m) @ t=0.56
2.4312248884036594
% es.EX (V/m) @ t=0.56
-0.725283930022052
% es.EY (V/m) @ t=0.56
0.05417572072700967
% es.EZ (V/m) @ t=0.56
-2.3159848560973604
% es.tEX (V/m) @ t=0.56
-0.7252839300220515
% es.tEY (V/m) @ t=0.56
0
% es.tEZ (V/m) @ t=0.56
-2.315984856097404
% es.Ex (V/m) @ t=0.56
-0.725283930022052
% es.Ey (V/m) @ t=0.56
0.05417572072700967
% es.Ez (V/m) @ t=0.56
-2.3159848560973604
% es.tEx (V/m) @ t=0.56
-0.7252839300220515
% es.tEy (V/m) @ t=0.56
0
% es.tEz (V/m) @ t=0.56
-2.315984856097404
% V (V) @ t=0.56
0.012220348824170113
% es.normE (V/m) @ t=0.58
2.454493438322868
% es.EX (V/m) @ t=0.58
-0.7322254128403659
% es.EY (V/m) @ t=0.58
0.05469422117806999
% es.EZ (V/m) @ t=0.58
-2.338150476952303
% es.tEX (V/m) @ t=0.58
-0.7322254128403678
% es.tEY (V/m) @ t=0.58
0
% es.tEZ (V/m) @ t=0.58
-2.338150476952329
% es.Ex (V/m) @ t=0.58
-0.7322254128403659
% es.Ey (V/m) @ t=0.58
0.05469422117806999
% es.Ez (V/m) @ t=0.58
-2.338150476952303
% es.tEx (V/m) @ t=0.58
-0.7322254128403678
% es.tEy (V/m) @ t=0.58
0
% es.tEz (V/m) @ t=0.58
-2.338150476952329
% V (V) @ t=0.58
0.012337306233447946
% es.normE (V/m) @ t=0.6
2.477761988242067
% es.EX (V/m) @ t=0.6
-0.7391668956586747
% es.EY (V/m) @ t=0.6
0.05521272162910919
% es.EZ (V/m) @ t=0.6
-2.360316097807238
% es.tEX (V/m) @ t=0.6
-0.7391668956586805
% es.tEY (V/m) @ t=0.6
0
% es.tEZ (V/m) @ t=0.6
-2.360316097807262
% es.Ex (V/m) @ t=0.6
-0.7391668956586747
% es.Ey (V/m) @ t=0.6
0.05521272162910919
% es.Ez (V/m) @ t=0.6
-2.360316097807238
% es.tEx (V/m) @ t=0.6
-0.7391668956586805
% es.tEy (V/m) @ t=0.6
0
% es.tEz (V/m) @ t=0.6
-2.360316097807262
% V (V) @ t=0.6
0.012454263642725779
% es.normE (V/m) @ t=0.62
2.5010305381612494
% es.EX (V/m) @ t=0.62
-0.7461083784769911
% es.EY (V/m) @ t=0.62
0.05573122208016089
% es.EZ (V/m) @ t=0.62
-2.382481718662153
% es.tEX (V/m) @ t=0.62
-0.7461083784769897
% es.tEY (V/m) @ t=0.62
0
% es.tEZ (V/m) @ t=0.62
-2.382481718662188
% es.Ex (V/m) @ t=0.62
-0.7461083784769911
% es.Ey (V/m) @ t=0.62
0.05573122208016089
% es.Ez (V/m) @ t=0.62
-2.382481718662153
% es.tEx (V/m) @ t=0.62
-0.7461083784769897
% es.tEy (V/m) @ t=0.62
0
% es.tEz (V/m) @ t=0.62
-2.382481718662188
% V (V) @ t=0.62
0.012571221052003612
% es.normE (V/m) @ t=0.64
2.5242990880804683
% es.EX (V/m) @ t=0.64
-0.7530498612953052
% es.EY (V/m) @ t=0.64
0.05624972253121961
% es.EZ (V/m) @ t=0.64
-2.4046473395171093
% es.tEX (V/m) @ t=0.64
-0.7530498612953096
% es.tEY (V/m) @ t=0.64
0
% es.tEZ (V/m) @ t=0.64
-2.40464733951712
% es.Ex (V/m) @ t=0.64
-0.7530498612953052
% es.Ey (V/m) @ t=0.64
0.05624972253121961
% es.Ez (V/m) @ t=0.64
-2.4046473395171093
% es.tEx (V/m) @ t=0.64
-0.7530498612953096
% es.tEy (V/m) @ t=0.64
0
% es.tEz (V/m) @ t=0.64
-2.40464733951712
% V (V) @ t=0.64
0.012688178461281443
% es.normE (V/m) @ t=0.66
2.5475676379996552
% es.EX (V/m) @ t=0.66
-0.7599913441136137
% es.EY (V/m) @ t=0.66
0.0567682229822675
% es.EZ (V/m) @ t=0.66
-2.4268129603720308
% es.tEX (V/m) @ t=0.66
-0.7599913441136223
% es.tEY (V/m) @ t=0.66
0
% es.tEZ (V/m) @ t=0.66
-2.4268129603720663
% es.Ex (V/m) @ t=0.66
-0.7599913441136137
% es.Ey (V/m) @ t=0.66
0.0567682229822675
% es.Ez (V/m) @ t=0.66
-2.4268129603720308
% es.tEx (V/m) @ t=0.66
-0.7599913441136223
% es.tEy (V/m) @ t=0.66
0
% es.tEz (V/m) @ t=0.66
-2.4268129603720663
% V (V) @ t=0.66
0.012805135870559276
% es.normE (V/m) @ t=0.68
2.570836187918857
% es.EX (V/m) @ t=0.68
-0.7669328269319304
% es.EY (V/m) @ t=0.68
0.05728672343332446
% es.EZ (V/m) @ t=0.68
-2.4489785812269655
% es.tEX (V/m) @ t=0.68
-0.7669328269319351
% es.tEY (V/m) @ t=0.68
0
% es.tEZ (V/m) @ t=0.68
-2.448978581226986
% es.Ex (V/m) @ t=0.68
-0.7669328269319304
% es.Ey (V/m) @ t=0.68
0.05728672343332446
% es.Ez (V/m) @ t=0.68
-2.4489785812269655
% es.tEx (V/m) @ t=0.68
-0.7669328269319351
% es.tEy (V/m) @ t=0.68
0
% es.tEz (V/m) @ t=0.68
-2.448978581226986
% V (V) @ t=0.68
0.01292209327983711
% es.normE (V/m) @ t=0.7
2.594104737838043
% es.EX (V/m) @ t=0.7
-0.7738743097502427
% es.EY (V/m) @ t=0.7
0.05780522388436719
% es.EZ (V/m) @ t=0.7
-2.471144202081886
% es.tEX (V/m) @ t=0.7
-0.7738743097502478
% es.tEY (V/m) @ t=0.7
0
% es.tEZ (V/m) @ t=0.7
-2.471144202081918
% es.Ex (V/m) @ t=0.7
-0.7738743097502427
% es.Ey (V/m) @ t=0.7
0.05780522388436719
% es.Ez (V/m) @ t=0.7
-2.471144202081886
% es.tEx (V/m) @ t=0.7
-0.7738743097502478
% es.tEy (V/m) @ t=0.7
0
% es.tEz (V/m) @ t=0.7
-2.471144202081918
% V (V) @ t=0.7
0.01303905068911494
% es.normE (V/m) @ t=0.72
2.6173732877572435
% es.EX (V/m) @ t=0.72
-0.780815792568553
% es.EY (V/m) @ t=0.72
0.05832372433542245
% es.EZ (V/m) @ t=0.72
-2.4933098229368227
% es.tEX (V/m) @ t=0.72
-0.7808157925685606
% es.tEY (V/m) @ t=0.72
0
% es.tEZ (V/m) @ t=0.72
-2.493309822936851
% es.Ex (V/m) @ t=0.72
-0.780815792568553
% es.Ey (V/m) @ t=0.72
0.05832372433542245
% es.Ez (V/m) @ t=0.72
-2.4933098229368227
% es.tEx (V/m) @ t=0.72
-0.7808157925685606
% es.tEy (V/m) @ t=0.72
0
% es.tEz (V/m) @ t=0.72
-2.493309822936851
% V (V) @ t=0.72
0.013156008098392772
% es.normE (V/m) @ t=0.74
2.6406418376764313
% es.EX (V/m) @ t=0.74
-0.7877572753868678
% es.EY (V/m) @ t=0.74
0.058842224786473885
% es.EZ (V/m) @ t=0.74
-2.5154754437917433
% es.tEX (V/m) @ t=0.74
-0.7877572753868733
% es.tEY (V/m) @ t=0.74
0
% es.tEZ (V/m) @ t=0.74
-2.515475443791784
% es.Ex (V/m) @ t=0.74
-0.7877572753868678
% es.Ey (V/m) @ t=0.74
0.058842224786473885
% es.Ez (V/m) @ t=0.74
-2.5154754437917433
% es.tEx (V/m) @ t=0.74
-0.7877572753868733
% es.tEy (V/m) @ t=0.74
0
% es.tEz (V/m) @ t=0.74
-2.515475443791784
% V (V) @ t=0.74
0.013272965507670606
% es.normE (V/m) @ t=0.76
2.663910387595636
% es.EX (V/m) @ t=0.76
-0.7946987582051765
% es.EY (V/m) @ t=0.76
0.05936072523753107
% es.EZ (V/m) @ t=0.76
-2.537641064646686
% es.tEX (V/m) @ t=0.76
-0.7946987582051861
% es.tEY (V/m) @ t=0.76
0
% es.tEZ (V/m) @ t=0.76
-2.537641064646703
% es.Ex (V/m) @ t=0.76
-0.7946987582051765
% es.Ey (V/m) @ t=0.76
0.05936072523753107
% es.Ez (V/m) @ t=0.76
-2.537641064646686
% es.tEx (V/m) @ t=0.76
-0.7946987582051861
% es.tEy (V/m) @ t=0.76
0
% es.tEz (V/m) @ t=0.76
-2.537641064646703
% V (V) @ t=0.76
0.013389922916948436
% es.normE (V/m) @ t=0.78
2.6871789375148163
% es.EX (V/m) @ t=0.78
-0.8016402410234871
% es.EY (V/m) @ t=0.78
0.05987922568858069
% es.EZ (V/m) @ t=0.78
-2.5598066855015995
% es.tEX (V/m) @ t=0.78
-0.8016402410234917
% es.tEY (V/m) @ t=0.78
0
% es.tEZ (V/m) @ t=0.78
-2.559806685501634
% es.Ex (V/m) @ t=0.78
-0.8016402410234871
% es.Ey (V/m) @ t=0.78
0.05987922568858069
% es.Ez (V/m) @ t=0.78
-2.5598066855015995
% es.tEx (V/m) @ t=0.78
-0.8016402410234917
% es.tEy (V/m) @ t=0.78
0
% es.tEz (V/m) @ t=0.78
-2.559806685501634
% V (V) @ t=0.78
0.01350688032622627
% es.normE (V/m) @ t=0.8
2.712762396672704
% es.EX (V/m) @ t=0.8
-0.8092723085255453
% es.EY (V/m) @ t=0.8
0.06044931007665341
% es.EZ (V/m) @ t=0.8
-2.5841774888977174
% es.tEX (V/m) @ t=0.8
-0.8092723085255571
% es.tEY (V/m) @ t=0.8
0
% es.tEZ (V/m) @ t=0.8
-2.584177488897746
% es.Ex (V/m) @ t=0.8
-0.8092723085255453
% es.Ey (V/m) @ t=0.8
0.06044931007665341
% es.Ez (V/m) @ t=0.8
-2.5841774888977174
% es.tEx (V/m) @ t=0.8
-0.8092723085255571
% es.tEy (V/m) @ t=0.8
0
% es.tEz (V/m) @ t=0.8
-2.584177488897746
% V (V) @ t=0.8
0.013635473428147547
% es.normE (V/m) @ t=0.82
2.7386432742474365
% es.EX (V/m) @ t=0.82
-0.8169931020129957
% es.EY (V/m) @ t=0.82
0.06102602194395214
% es.EZ (V/m) @ t=0.82
-2.60883161307778
% es.tEX (V/m) @ t=0.82
-0.8169931020130008
% es.tEY (V/m) @ t=0.82
0
% es.tEZ (V/m) @ t=0.82
-2.6088316130778004
% es.Ex (V/m) @ t=0.82
-0.8169931020129957
% es.Ey (V/m) @ t=0.82
0.06102602194395214
% es.Ez (V/m) @ t=0.82
-2.60883161307778
% es.tEx (V/m) @ t=0.82
-0.8169931020130008
% es.tEy (V/m) @ t=0.82
0
% es.tEz (V/m) @ t=0.82
-2.6088316130778004
% V (V) @ t=0.82
0.01376556147821953
% es.normE (V/m) @ t=0.84
2.7645241518221697
% es.EX (V/m) @ t=0.84
-0.8247138955004676
% es.EY (V/m) @ t=0.84
0.06160273381122415
% es.EZ (V/m) @ t=0.84
-2.6334857372578355
% es.tEX (V/m) @ t=0.84
-0.82471389550048
% es.tEY (V/m) @ t=0.84
0
% es.tEZ (V/m) @ t=0.84
-2.6334857372578533
% es.Ex (V/m) @ t=0.84
-0.8247138955004676
% es.Ey (V/m) @ t=0.84
0.06160273381122415
% es.Ez (V/m) @ t=0.84
-2.6334857372578355
% es.tEx (V/m) @ t=0.84
-0.82471389550048
% es.tEy (V/m) @ t=0.84
0
% es.tEz (V/m) @ t=0.84
-2.6334857372578533
% V (V) @ t=0.84
0.013895649528291514
% es.normE (V/m) @ t=0.86
2.7904050293969407
% es.EX (V/m) @ t=0.86
-0.8324346889879342
% es.EY (V/m) @ t=0.86
0.06217944567852418
% es.EZ (V/m) @ t=0.86
-2.6581398614379337
% es.tEX (V/m) @ t=0.86
-0.832434688987945
% es.tEY (V/m) @ t=0.86
0
% es.tEZ (V/m) @ t=0.86
-2.658139861437949
% es.Ex (V/m) @ t=0.86
-0.8324346889879342
% es.Ey (V/m) @ t=0.86
0.06217944567852418
% es.Ez (V/m) @ t=0.86
-2.6581398614379337
% es.tEx (V/m) @ t=0.86
-0.832434688987945
% es.tEy (V/m) @ t=0.86
0
% es.tEz (V/m) @ t=0.86
-2.658139861437949
% V (V) @ t=0.86
0.014025737578363501
% es.normE (V/m) @ t=0.88
2.8162859069716557
% es.EX (V/m) @ t=0.88
-0.8401554824753954
% es.EY (V/m) @ t=0.88
0.06275615754581218
% es.EZ (V/m) @ t=0.88
-2.682793985617974
% es.tEX (V/m) @ t=0.88
-0.8401554824753958
% es.tEY (V/m) @ t=0.88
0
% es.tEZ (V/m) @ t=0.88
-2.6827939856180034
% es.Ex (V/m) @ t=0.88
-0.8401554824753954
% es.Ey (V/m) @ t=0.88
0.06275615754581218
% es.Ez (V/m) @ t=0.88
-2.682793985617974
% es.tEx (V/m) @ t=0.88
-0.8401554824753958
% es.tEy (V/m) @ t=0.88
0
% es.tEz (V/m) @ t=0.88
-2.6827939856180034
% V (V) @ t=0.88
0.014155825628435485
% es.normE (V/m) @ t=0.9
2.8421667845463947
% es.EX (V/m) @ t=0.9
-0.8478762759628637
% es.EY (V/m) @ t=0.9
0.06333286941310023
% es.EZ (V/m) @ t=0.9
-2.7074481097980367
% es.tEX (V/m) @ t=0.9
-0.847876275962868
% es.tEY (V/m) @ t=0.9
0
% es.tEZ (V/m) @ t=0.9
-2.707448109798058
% es.Ex (V/m) @ t=0.9
-0.8478762759628637
% es.Ey (V/m) @ t=0.9
0.06333286941310023
% es.Ez (V/m) @ t=0.9
-2.7074481097980367
% es.tEx (V/m) @ t=0.9
-0.847876275962868
% es.tEy (V/m) @ t=0.9
0
% es.tEz (V/m) @ t=0.9
-2.707448109798058
% V (V) @ t=0.9
0.014285913678507468
% es.normE (V/m) @ t=0.92
2.868047662121158
% es.EX (V/m) @ t=0.92
-0.8555970694503269
% es.EY (V/m) @ t=0.92
0.06390958128038957
% es.EZ (V/m) @ t=0.92
-2.732102233978128
% es.tEX (V/m) @ t=0.92
-0.8555970694503401
% es.tEY (V/m) @ t=0.92
0
% es.tEZ (V/m) @ t=0.92
-2.7321022339781678
% es.Ex (V/m) @ t=0.92
-0.8555970694503269
% es.Ey (V/m) @ t=0.92
0.06390958128038957
% es.Ez (V/m) @ t=0.92
-2.732102233978128
% es.tEx (V/m) @ t=0.92
-0.8555970694503401
% es.tEy (V/m) @ t=0.92
0
% es.tEz (V/m) @ t=0.92
-2.7321022339781678
% V (V) @ t=0.92
0.014416001728579455
% es.normE (V/m) @ t=0.94
2.893928539695881
% es.EX (V/m) @ t=0.94
-0.8633178629377936
% es.EY (V/m) @ t=0.94
0.06448629314768821
% es.EZ (V/m) @ t=0.94
-2.7567563581581753
% es.tEX (V/m) @ t=0.94
-0.8633178629378051
% es.tEY (V/m) @ t=0.94
0
% es.tEZ (V/m) @ t=0.94
-2.756756358158208
% es.Ex (V/m) @ t=0.94
-0.8633178629377936
% es.Ey (V/m) @ t=0.94
0.06448629314768821
% es.Ez (V/m) @ t=0.94
-2.7567563581581753
% es.tEx (V/m) @ t=0.94
-0.8633178629378051
% es.tEy (V/m) @ t=0.94
0
% es.tEz (V/m) @ t=0.94
-2.756756358158208
% V (V) @ t=0.94
0.014546089778651437
% es.normE (V/m) @ t=0.96
2.919809417270619
% es.EX (V/m) @ t=0.96
-0.8710386564252581
% es.EY (V/m) @ t=0.96
0.06506300501495675
% es.EZ (V/m) @ t=0.96
-2.781410482338239
% es.tEX (V/m) @ t=0.96
-0.871038656425263
% es.tEY (V/m) @ t=0.96
0
% es.tEZ (V/m) @ t=0.96
-2.781410482338277
% es.Ex (V/m) @ t=0.96
-0.8710386564252581
% es.Ey (V/m) @ t=0.96
0.06506300501495675
% es.Ez (V/m) @ t=0.96
-2.781410482338239
% es.tEx (V/m) @ t=0.96
-0.871038656425263
% es.tEy (V/m) @ t=0.96
0
% es.tEz (V/m) @ t=0.96
-2.781410482338277
% V (V) @ t=0.96
0.01467617782872342
% es.normE (V/m) @ t=0.98
2.9456902948453854
% es.EX (V/m) @ t=0.98
-0.878759449912732
% es.EY (V/m) @ t=0.98
0.065639716882262
% es.EZ (V/m) @ t=0.98
-2.806064606518328
% es.tEX (V/m) @ t=0.98
-0.8787594499127493
% es.tEY (V/m) @ t=0.98
0
% es.tEZ (V/m) @ t=0.98
-2.806064606518344
% es.Ex (V/m) @ t=0.98
-0.878759449912732
% es.Ey (V/m) @ t=0.98
0.065639716882262
% es.Ez (V/m) @ t=0.98
-2.806064606518328
% es.tEx (V/m) @ t=0.98
-0.8787594499127493
% es.tEy (V/m) @ t=0.98
0
% es.tEz (V/m) @ t=0.98
-2.806064606518344
% V (V) @ t=0.98
0.01480626587879541
% es.normE (V/m) @ t=1
2.9715711724201217
% es.EX (V/m) @ t=1
-0.8864802434001933
% es.EY (V/m) @ t=1
0.06621642874956073
% es.EZ (V/m) @ t=1
-2.8307187306983916
% es.tEX (V/m) @ t=1
-0.8864802434002073
% es.tEY (V/m) @ t=1
0
% es.tEZ (V/m) @ t=1
-2.830718730698411
% es.Ex (V/m) @ t=1
-0.8864802434001933
% es.Ey (V/m) @ t=1
0.06621642874956073
% es.Ez (V/m) @ t=1
-2.8307187306983916
% es.tEx (V/m) @ t=1
-0.8864802434002073
% es.tEy (V/m) @ t=1
0
% es.tEz (V/m) @ t=1
-2.830718730698411
% V (V) @ t=1
0.01493635392886739
% es.normE (V/m) @ t=1.02
2.997452049994888
% es.EX (V/m) @ t=1.02
-0.8942010368876652
% es.EY (V/m) @ t=1.02
0.0667931406168359
% es.EZ (V/m) @ t=1.02
-2.8553728548784827
% es.tEX (V/m) @ t=1.02
-0.8942010368876723
% es.tEY (V/m) @ t=1.02
0
% es.tEZ (V/m) @ t=1.02
-2.8553728548785102
% es.Ex (V/m) @ t=1.02
-0.8942010368876652
% es.Ey (V/m) @ t=1.02
0.0667931406168359
% es.Ez (V/m) @ t=1.02
-2.8553728548784827
% es.tEx (V/m) @ t=1.02
-0.8942010368876723
% es.tEy (V/m) @ t=1.02
0
% es.tEz (V/m) @ t=1.02
-2.8553728548785102
% V (V) @ t=1.02
0.015066441978939377
% es.normE (V/m) @ t=1.04
3.023332927569597
% es.EX (V/m) @ t=1.04