% Model:              1 neuron.mph
% Version:            COMSOL 6.1.0.252
% Date:               Mar 22 2023, 20:10
% Dimension:          0
% Nodes:              14017
% Expressions:        14017
% Description:        Electric field norm, Electric field, X component, Electric field, Y component, Electric field, Z component, Tangential electric field, X component, Tangential electric field, Y component, Tangential electric field, Z component, Electric field, x component, Electric field, y component, Electric field, z component, Tangential electric field, x component, Tangential electric field, y component, Tangential electric field, z component, Electric potential
% Length unit:        mm
% x
1.0000000000000002
% y
12.2
% z
2
% es.normE (V/m) @ t=0
1.0575431163490359
% es.EX (V/m) @ t=0
0.7345768803265214
% es.EY (V/m) @ t=0
0.10999505140901722
% es.EZ (V/m) @ t=0
-0.7335066544360127
% es.tEX (V/m) @ t=0
0.7345768803265202
% es.tEY (V/m) @ t=0
0
% es.tEZ (V/m) @ t=0
-0.7335066544360016
% es.Ex (V/m) @ t=0
0.7345768803265214
% es.Ey (V/m) @ t=0
0.10999505140901722
% es.Ez (V/m) @ t=0
-0.7335066544360127
% es.tEx (V/m) @ t=0
0.7345768803265202
% es.tEy (V/m) @ t=0
0
% es.tEz (V/m) @ t=0
-0.7335066544360016
% V (V) @ t=0
0.011324884770593908
% es.normE (V/m) @ t=0.02
0.9134148507144225
% es.EX (V/m) @ t=0.02
0.6344643741636509
% es.EY (V/m) @ t=0.02
0.09500427183186366
% es.EZ (V/m) @ t=0.02
-0.6335400049630415
% es.tEX (V/m) @ t=0.02
0.6344643741636578
% es.tEY (V/m) @ t=0.02
0
% es.tEZ (V/m) @ t=0.02
-0.633540004963034
% es.Ex (V/m) @ t=0.02
0.6344643741636509
% es.Ey (V/m) @ t=0.02
0.09500427183186366
% es.Ez (V/m) @ t=0.02
-0.6335400049630415
% es.tEx (V/m) @ t=0.02
0.6344643741636578
% es.tEy (V/m) @ t=0.02
0
% es.tEz (V/m) @ t=0.02
-0.633540004963034
% V (V) @ t=0.02
0.009781462107483688
% es.normE (V/m) @ t=0.04
0.9218212258525503
% es.EX (V/m) @ t=0.04
0.6403035013449212
% es.EY (V/m) @ t=0.04
0.09587861962316069
% es.EZ (V/m) @ t=0.04
-0.6393706247704551
% es.tEX (V/m) @ t=0.04
0.6403035013449232
% es.tEY (V/m) @ t=0.04
0
% es.tEZ (V/m) @ t=0.04
-0.6393706247704478
% es.Ex (V/m) @ t=0.04
0.6403035013449212
% es.Ey (V/m) @ t=0.04
0.09587861962316069
% es.Ez (V/m) @ t=0.04
-0.6393706247704551
% es.tEx (V/m) @ t=0.04
0.6403035013449232
% es.tEy (V/m) @ t=0.04
0
% es.tEz (V/m) @ t=0.04
-0.6393706247704478
% V (V) @ t=0.04
0.009871483200796047
% es.normE (V/m) @ t=0.06
0.9302948086890193
% es.EX (V/m) @ t=0.06
0.646189311473762
% es.EY (V/m) @ t=0.06
0.09675995722338337
% es.EZ (V/m) @ t=0.06
-0.6452478596841471
% es.tEX (V/m) @ t=0.06
0.6461893114737669
% es.tEY (V/m) @ t=0.06
0
% es.tEZ (V/m) @ t=0.06
-0.6452478596841362
% es.Ex (V/m) @ t=0.06
0.646189311473762
% es.Ey (V/m) @ t=0.06
0.09675995722338337
% es.Ez (V/m) @ t=0.06
-0.6452478596841471
% es.tEx (V/m) @ t=0.06
0.6461893114737669
% es.tEy (V/m) @ t=0.06
0
% es.tEz (V/m) @ t=0.06
-0.6452478596841362
% V (V) @ t=0.06
0.009962224026045767
% es.normE (V/m) @ t=0.08
0.9389176019824088
% es.EX (V/m) @ t=0.08
0.6521787643075045
% es.EY (V/m) @ t=0.08
0.09765681366722773
% es.EZ (V/m) @ t=0.08
-0.6512285863689349
% es.tEX (V/m) @ t=0.08
0.652178764307513
% es.tEY (V/m) @ t=0.08
0
% es.tEZ (V/m) @ t=0.08
-0.6512285863689202
% es.Ex (V/m) @ t=0.08
0.6521787643075045
% es.Ey (V/m) @ t=0.08
0.09765681366722773
% es.Ez (V/m) @ t=0.08
-0.6512285863689349
% es.tEx (V/m) @ t=0.08
0.652178764307513
% es.tEy (V/m) @ t=0.08
0
% es.tEz (V/m) @ t=0.08
-0.6512285863689202
% V (V) @ t=0.08
0.010054562722258057
% es.normE (V/m) @ t=0.1
0.9476028622183226
% es.EX (V/m) @ t=0.1
0.6582116071490505
% es.EY (V/m) @ t=0.1
0.09856016707336979
% es.EZ (V/m) @ t=0.1
-0.6572526398731033
% es.tEX (V/m) @ t=0.1
0.6582116071490538
% es.tEY (V/m) @ t=0.1
0
% es.tEZ (V/m) @ t=0.1
-0.6572526398730996
% es.Ex (V/m) @ t=0.1
0.6582116071490505
% es.Ey (V/m) @ t=0.1
0.09856016707336979
% es.Ez (V/m) @ t=0.1
-0.6572526398731033
% es.tEx (V/m) @ t=0.1
0.6582116071490538
% es.tEy (V/m) @ t=0.1
0
% es.tEz (V/m) @ t=0.1
-0.6572526398730996
% V (V) @ t=0.1
0.010147570366985546
% es.normE (V/m) @ t=0.12
0.9562881224542352
% es.EX (V/m) @ t=0.12
0.6642444499905997
% es.EY (V/m) @ t=0.12
0.09946352047950613
% es.EZ (V/m) @ t=0.12
-0.6632766933772727
% es.tEX (V/m) @ t=0.12
0.6642444499906066
% es.tEY (V/m) @ t=0.12
0
% es.tEZ (V/m) @ t=0.12
-0.663276693377258
% es.Ex (V/m) @ t=0.12
0.6642444499905997
% es.Ey (V/m) @ t=0.12
0.09946352047950613
% es.Ez (V/m) @ t=0.12
-0.6632766933772727
% es.tEx (V/m) @ t=0.12
0.6642444499906066
% es.tEy (V/m) @ t=0.12
0
% es.tEz (V/m) @ t=0.12
-0.663276693377258
% V (V) @ t=0.12
0.01024057801171303
% es.normE (V/m) @ t=0.14
0.9651608254316377
% es.EX (V/m) @ t=0.14
0.6704074918340537
% es.EY (V/m) @ t=0.14
0.10038637038459919
% es.EZ (V/m) @ t=0.14
-0.6694307560461985
% es.tEX (V/m) @ t=0.14
0.6704074918340588
% es.tEY (V/m) @ t=0.14
0
% es.tEZ (V/m) @ t=0.14
-0.6694307560461841
% es.Ex (V/m) @ t=0.14
0.6704074918340537
% es.Ey (V/m) @ t=0.14
0.10038637038459919
% es.Ez (V/m) @ t=0.14
-0.6694307560461985
% es.tEx (V/m) @ t=0.14
0.6704074918340588
% es.tEy (V/m) @ t=0.14
0
% es.tEz (V/m) @ t=0.14
-0.6694307560461841
% V (V) @ t=0.14
0.010335592887511923
% es.normE (V/m) @ t=0.16
0.9742929987705848
% es.EX (V/m) @ t=0.16
0.6767507635537464
% es.EY (V/m) @ t=0.16
0.10133620860406434
% es.EZ (V/m) @ t=0.16
-0.6757647858064748
% es.tEX (V/m) @ t=0.16
0.6767507635537462
% es.tEY (V/m) @ t=0.16
0
% es.tEZ (V/m) @ t=0.16
-0.6757647858064639
% es.Ex (V/m) @ t=0.16
0.6767507635537464
% es.Ey (V/m) @ t=0.16
0.10133620860406434
% es.Ez (V/m) @ t=0.16
-0.6757647858064748
% es.tEx (V/m) @ t=0.16
0.6767507635537462
% es.tEy (V/m) @ t=0.16
0
% es.tEz (V/m) @ t=0.16
-0.6757647858064639
% V (V) @ t=0.16
0.010433386302333949
% es.normE (V/m) @ t=0.18
0.9834251721095352
% es.EX (V/m) @ t=0.18
0.683094035273434
% es.EY (V/m) @ t=0.18
0.10228604682355374
% es.EZ (V/m) @ t=0.18
-0.6820988155667582
% es.tEX (V/m) @ t=0.18
0.6830940352734314
% es.tEY (V/m) @ t=0.18
0
% es.tEZ (V/m) @ t=0.18
-0.6820988155667509
% es.Ex (V/m) @ t=0.18
0.683094035273434
% es.Ey (V/m) @ t=0.18
0.10228604682355374
% es.Ez (V/m) @ t=0.18
-0.6820988155667582
% es.tEx (V/m) @ t=0.18
0.6830940352734314
% es.tEy (V/m) @ t=0.18
0
% es.tEz (V/m) @ t=0.18
-0.6820988155667509
% V (V) @ t=0.18
0.010531179717155975
% es.normE (V/m) @ t=0.2
0.9925573454484817
% es.EX (V/m) @ t=0.2
0.6894373069931146
% es.EY (V/m) @ t=0.2
0.10323588504302073
% es.EZ (V/m) @ t=0.2
-0.6884328453270485
% es.tEX (V/m) @ t=0.2
0.6894373069931179
% es.tEY (V/m) @ t=0.2
0
% es.tEZ (V/m) @ t=0.2
-0.6884328453270374
% es.Ex (V/m) @ t=0.2
0.6894373069931146
% es.Ey (V/m) @ t=0.2
0.10323588504302073
% es.Ez (V/m) @ t=0.2
-0.6884328453270485
% es.tEx (V/m) @ t=0.2
0.6894373069931179
% es.tEy (V/m) @ t=0.2
0
% es.tEz (V/m) @ t=0.2
-0.6884328453270374
% V (V) @ t=0.2
0.010628973131978003
% es.normE (V/m) @ t=0.22
1.0016895187874235
% es.EX (V/m) @ t=0.22
0.6957805787128029
% es.EY (V/m) @ t=0.22
0.10418572326249476
% es.EZ (V/m) @ t=0.22
-0.6947668750873213
% es.tEX (V/m) @ t=0.22
0.6957805787128071
% es.tEY (V/m) @ t=0.22
0
% es.tEZ (V/m) @ t=0.22
-0.6947668750873102
% es.Ex (V/m) @ t=0.22
0.6957805787128029
% es.Ey (V/m) @ t=0.22
0.10418572326249476
% es.Ez (V/m) @ t=0.22
-0.6947668750873213
% es.tEx (V/m) @ t=0.22
0.6957805787128071
% es.tEy (V/m) @ t=0.22
0
% es.tEz (V/m) @ t=0.22
-0.6947668750873102
% V (V) @ t=0.22
0.01072676654680003
% es.normE (V/m) @ t=0.24
1.010821692126366
% es.EX (V/m) @ t=0.24
0.702123850432484
% es.EY (V/m) @ t=0.24
0.10513556148197278
% es.EZ (V/m) @ t=0.24
-0.7011009048476002
% es.tEX (V/m) @ t=0.24
0.7021238504324869
% es.tEY (V/m) @ t=0.24
0
% es.tEZ (V/m) @ t=0.24
-0.7011009048475891
% es.Ex (V/m) @ t=0.24
0.702123850432484
% es.Ey (V/m) @ t=0.24
0.10513556148197278
% es.Ez (V/m) @ t=0.24
-0.7011009048476002
% es.tEx (V/m) @ t=0.24
0.7021238504324869
% es.tEy (V/m) @ t=0.24
0
% es.tEz (V/m) @ t=0.24
-0.7011009048475891
% V (V) @ t=0.24
0.010824559961622056
% es.normE (V/m) @ t=0.26
1.0199538654653322
% es.EX (V/m) @ t=0.26
0.708467122152175
% es.EY (V/m) @ t=0.26
0.10608539970144759
% es.EZ (V/m) @ t=0.26
-0.7074349346079054
% es.tEX (V/m) @ t=0.26
0.7084671221521801
% es.tEY (V/m) @ t=0.26
0
% es.tEZ (V/m) @ t=0.26
-0.7074349346078979
% es.Ex (V/m) @ t=0.26
0.708467122152175
% es.Ey (V/m) @ t=0.26
0.10608539970144759
% es.Ez (V/m) @ t=0.26
-0.7074349346079054
% es.tEx (V/m) @ t=0.26
0.7084671221521801
% es.tEy (V/m) @ t=0.26
0
% es.tEz (V/m) @ t=0.26
-0.7074349346078979
% V (V) @ t=0.26
0.01092235337644408
% es.normE (V/m) @ t=0.28
1.0299354598841872
% es.EX (V/m) @ t=0.28
0.7154004078934464
% es.EY (V/m) @ t=0.28
0.10712358295920155
% es.EZ (V/m) @ t=0.28
-0.7143581197499955
% es.tEX (V/m) @ t=0.28
0.7154004078934544
% es.tEY (V/m) @ t=0.28
0
% es.tEZ (V/m) @ t=0.28
-0.7143581197499813
% es.Ex (V/m) @ t=0.28
0.7154004078934464
% es.Ey (V/m) @ t=0.28
0.10712358295920155
% es.Ez (V/m) @ t=0.28
-0.7143581197499955
% es.tEx (V/m) @ t=0.28
0.7154004078934544
% es.tEy (V/m) @ t=0.28
0
% es.tEz (V/m) @ t=0.28
-0.7143581197499813
% V (V) @ t=0.28
0.011029243150010979
% es.normE (V/m) @ t=0.3
1.040068767750518
% es.EX (V/m) @ t=0.3
0.7224390748918816
% es.EY (V/m) @ t=0.3
0.10817754535246638
% es.EZ (V/m) @ t=0.3
-0.7213865327892997
% es.tEX (V/m) @ t=0.3
0.7224390748918839
% es.tEY (V/m) @ t=0.3
0
% es.tEZ (V/m) @ t=0.3
-0.7213865327892854
% es.Ex (V/m) @ t=0.3
0.7224390748918816
% es.Ey (V/m) @ t=0.3
0.10817754535246638
% es.Ez (V/m) @ t=0.3
-0.7213865327892997
% es.tEx (V/m) @ t=0.3
0.7224390748918839
% es.tEy (V/m) @ t=0.3
0
% es.tEz (V/m) @ t=0.3
-0.7213865327892854
% V (V) @ t=0.3
0.011137757606526185
% es.normE (V/m) @ t=0.32
1.050202075616835
% es.EX (V/m) @ t=0.32
0.7294777418903233
% es.EY (V/m) @ t=0.32
0.10923150774574159
% es.EZ (V/m) @ t=0.32
-0.728414945828578
% es.tEX (V/m) @ t=0.32
0.7294777418903222
% es.tEY (V/m) @ t=0.32
0
% es.tEZ (V/m) @ t=0.32
-0.7284149458285674
% es.Ex (V/m) @ t=0.32
0.7294777418903233
% es.Ey (V/m) @ t=0.32
0.10923150774574159
% es.Ez (V/m) @ t=0.32
-0.728414945828578
% es.tEx (V/m) @ t=0.32
0.7294777418903222
% es.tEy (V/m) @ t=0.32
0
% es.tEz (V/m) @ t=0.32
-0.7284149458285674
% V (V) @ t=0.32
0.01124627206304139
% es.normE (V/m) @ t=0.34
1.060335383483165
% es.EX (V/m) @ t=0.34
0.7365164088887555
% es.EY (V/m) @ t=0.34
0.11028547013902334
% es.EZ (V/m) @ t=0.34
-0.7354433588678786
% es.tEX (V/m) @ t=0.34
0.7365164088887544
% es.tEY (V/m) @ t=0.34
0
% es.tEZ (V/m) @ t=0.34
-0.7354433588678715
% es.Ex (V/m) @ t=0.34
0.7365164088887555
% es.Ey (V/m) @ t=0.34
0.11028547013902334
% es.Ez (V/m) @ t=0.34
-0.7354433588678786
% es.tEx (V/m) @ t=0.34
0.7365164088887544
% es.tEy (V/m) @ t=0.34
0
% es.tEz (V/m) @ t=0.34
-0.7354433588678715
% V (V) @ t=0.34
0.0113547865195566
% es.normE (V/m) @ t=0.36
1.0704686913494865
% es.EX (V/m) @ t=0.36
0.7435550758871827
% es.EY (V/m) @ t=0.36
0.11133943253230527
% es.EZ (V/m) @ t=0.36
-0.7424717719071787
% es.tEX (V/m) @ t=0.36
0.743555075887187
% es.tEY (V/m) @ t=0.36
0
% es.tEZ (V/m) @ t=0.36
-0.7424717719071676
% es.Ex (V/m) @ t=0.36
0.7435550758871827
% es.Ey (V/m) @ t=0.36
0.11133943253230527
% es.Ez (V/m) @ t=0.36
-0.7424717719071787
% es.tEx (V/m) @ t=0.36
0.743555075887187
% es.tEy (V/m) @ t=0.36
0
% es.tEz (V/m) @ t=0.36
-0.7424717719071676
% V (V) @ t=0.36
0.011463300976071808
% es.normE (V/m) @ t=0.38
1.0806019992158022
% es.EX (V/m) @ t=0.38
0.7505937428856149
% es.EY (V/m) @ t=0.38
0.11239339492556655
% es.EZ (V/m) @ t=0.38
-0.7495001849464615
% es.tEX (V/m) @ t=0.38
0.7505937428856209
% es.tEY (V/m) @ t=0.38
0
% es.tEZ (V/m) @ t=0.38
-0.7495001849464504
% es.Ex (V/m) @ t=0.38
0.7505937428856149
% es.Ey (V/m) @ t=0.38
0.11239339492556655
% es.Ez (V/m) @ t=0.38
-0.7495001849464615
% es.tEx (V/m) @ t=0.38
0.7505937428856209
% es.tEy (V/m) @ t=0.38
0
% es.tEz (V/m) @ t=0.38
-0.7495001849464504
% V (V) @ t=0.38
0.011571815432587012
% es.normE (V/m) @ t=0.4
1.0907353070821406
% es.EX (V/m) @ t=0.4
0.757632409884059
% es.EY (V/m) @ t=0.4
0.11344735731884514
% es.EZ (V/m) @ t=0.4
-0.7565285979857657
% es.tEX (V/m) @ t=0.4
0.757632409884065
% es.tEY (V/m) @ t=0.4
0
% es.tEZ (V/m) @ t=0.4
-0.7565285979857475
% es.Ex (V/m) @ t=0.4
0.757632409884059
% es.Ey (V/m) @ t=0.4
0.11344735731884514
% es.Ez (V/m) @ t=0.4
-0.7565285979857657
% es.tEx (V/m) @ t=0.4
0.757632409884065
% es.tEy (V/m) @ t=0.4
0
% es.tEz (V/m) @ t=0.4
-0.7565285979857475
% V (V) @ t=0.4
0.01168032988910222
% es.normE (V/m) @ t=0.42
1.1008686149484639
% es.EX (V/m) @ t=0.42
0.7646710768824942
% es.EY (V/m) @ t=0.42
0.11450131971211996
% es.EZ (V/m) @ t=0.42
-0.7635570110250582
% es.tEX (V/m) @ t=0.42
0.764671076882502
% es.tEY (V/m) @ t=0.42
0
% es.tEZ (V/m) @ t=0.42
-0.7635570110250436
% es.Ex (V/m) @ t=0.42
0.7646710768824942
% es.Ey (V/m) @ t=0.42
0.11450131971211996
% es.Ez (V/m) @ t=0.42
-0.7635570110250582
% es.tEx (V/m) @ t=0.42
0.764671076882502
% es.tEy (V/m) @ t=0.42
0
% es.tEz (V/m) @ t=0.42
-0.7635570110250436
% V (V) @ t=0.42
0.011788844345617427
% es.normE (V/m) @ t=0.44
1.111001922814796
% es.EX (V/m) @ t=0.44
0.7717097438809282
% es.EY (V/m) @ t=0.44
0.11555528210538835
% es.EZ (V/m) @ t=0.44
-0.7705854240643628
% es.tEX (V/m) @ t=0.44
0.7717097438809306
% es.tEY (V/m) @ t=0.44
0
% es.tEZ (V/m) @ t=0.44
-0.7705854240643486
% es.Ex (V/m) @ t=0.44
0.7717097438809282
% es.Ey (V/m) @ t=0.44
0.11555528210538835
% es.Ez (V/m) @ t=0.44
-0.7705854240643628
% es.tEx (V/m) @ t=0.44
0.7717097438809306
% es.tEy (V/m) @ t=0.44
0
% es.tEz (V/m) @ t=0.44
-0.7705854240643486
% V (V) @ t=0.44
0.011897358802132631
% es.normE (V/m) @ t=0.46
1.1211352306811149
% es.EX (V/m) @ t=0.46
0.7787484108793661
% es.EY (V/m) @ t=0.46
0.11660924449866428
% es.EZ (V/m) @ t=0.46
-0.7776138371036452
% es.tEX (V/m) @ t=0.46
0.7787484108793641
% es.tEY (V/m) @ t=0.46
0
% es.tEZ (V/m) @ t=0.46
-0.7776138371036305
% es.Ex (V/m) @ t=0.46
0.7787484108793661
% es.Ey (V/m) @ t=0.46
0.11660924449866428
% es.Ez (V/m) @ t=0.46
-0.7776138371036452
% es.tEx (V/m) @ t=0.46
0.7787484108793641
% es.tEy (V/m) @ t=0.46
0
% es.tEz (V/m) @ t=0.46
-0.7776138371036305
% V (V) @ t=0.46
0.012005873258647841
% es.normE (V/m) @ t=0.48
1.1312685385474341
% es.EX (V/m) @ t=0.48
0.7857870778777982
% es.EY (V/m) @ t=0.48
0.11766320689193532
% es.EZ (V/m) @ t=0.48
-0.7846422501429315
% es.tEX (V/m) @ t=0.48
0.7857870778777971
% es.tEY (V/m) @ t=0.48
0
% es.tEZ (V/m) @ t=0.48
-0.7846422501429204
% es.Ex (V/m) @ t=0.48
0.7857870778777982
% es.Ey (V/m) @ t=0.48
0.11766320689193532
% es.Ez (V/m) @ t=0.48
-0.7846422501429315
% es.tEx (V/m) @ t=0.48
0.7857870778777971
% es.tEy (V/m) @ t=0.48
0
% es.tEz (V/m) @ t=0.48
-0.7846422501429204
% V (V) @ t=0.48
0.012114387715163048
% es.normE (V/m) @ t=0.5
1.1414018464137636
% es.EX (V/m) @ t=0.5
0.7928257448762361
% es.EY (V/m) @ t=0.5
0.11871716928522258
% es.EZ (V/m) @ t=0.5
-0.7916706631822357
% es.tEX (V/m) @ t=0.5
0.7928257448762386
% es.tEY (V/m) @ t=0.5
0
% es.tEZ (V/m) @ t=0.5
-0.7916706631822246
% es.Ex (V/m) @ t=0.5
0.7928257448762361
% es.Ey (V/m) @ t=0.5
0.11871716928522258
% es.Ez (V/m) @ t=0.5
-0.7916706631822357
% es.tEx (V/m) @ t=0.5
0.7928257448762386
% es.tEy (V/m) @ t=0.5
0
% es.tEz (V/m) @ t=0.5
-0.7916706631822246
% V (V) @ t=0.5
0.012222902171678252
% es.normE (V/m) @ t=0.52
1.151535154280086
% es.EX (V/m) @ t=0.52
0.7998644118746656
% es.EY (V/m) @ t=0.52
0.11977113167848391
% es.EZ (V/m) @ t=0.52
-0.7986990762215291
% es.tEX (V/m) @ t=0.52
0.7998644118746743
% es.tEY (V/m) @ t=0.52
0
% es.tEZ (V/m) @ t=0.52
-0.7986990762215145
% es.Ex (V/m) @ t=0.52
0.7998644118746656
% es.Ey (V/m) @ t=0.52
0.11977113167848391
% es.Ez (V/m) @ t=0.52
-0.7986990762215291
% es.tEx (V/m) @ t=0.52
0.7998644118746743
% es.tEy (V/m) @ t=0.52
0
% es.tEz (V/m) @ t=0.52
-0.7986990762215145
% V (V) @ t=0.52
0.012331416628193462
% es.normE (V/m) @ t=0.54
1.1624664889673388
% es.EX (V/m) @ t=0.54
0.8074573938096878
% es.EY (V/m) @ t=0.54
0.12090809883681125
% es.EZ (V/m) @ t=0.54
-0.8062809959944626
% es.tEX (V/m) @ t=0.54
0.8074573938096927
% es.tEY (V/m) @ t=0.54
0
% es.tEZ (V/m) @ t=0.54
-0.8062809959944444
% es.Ex (V/m) @ t=0.54
0.8074573938096878
% es.Ey (V/m) @ t=0.54
0.12090809883681125
% es.Ez (V/m) @ t=0.54
-0.8062809959944626
% es.tEx (V/m) @ t=0.54
0.8074573938096927
% es.tEy (V/m) @ t=0.54
0
% es.tEz (V/m) @ t=0.54
-0.8062809959944444
% V (V) @ t=0.54
0.012448476780679018
% es.normE (V/m) @ t=0.56
1.1737292787084614
% es.EX (V/m) @ t=0.56
0.8152806067123297
% es.EY (V/m) @ t=0.56
0.12207954146408351
% es.EZ (V/m) @ t=0.56
-0.8140928110533792
% es.tEX (V/m) @ t=0.56
0.8152806067123364
% es.tEY (V/m) @ t=0.56
0
% es.tEZ (V/m) @ t=0.56
-0.8140928110533645
% es.Ex (V/m) @ t=0.56
0.8152806067123297
% es.Ey (V/m) @ t=0.56
0.12207954146408351
% es.Ez (V/m) @ t=0.56
-0.8140928110533792
% es.tEx (V/m) @ t=0.56
0.8152806067123364
% es.tEy (V/m) @ t=0.56
0
% es.tEz (V/m) @ t=0.56
-0.8140928110533645
% V (V) @ t=0.56
0.012569086330307502
% es.normE (V/m) @ t=0.58
1.1849920684495763
% es.EX (V/m) @ t=0.58
0.8231038196149667
% es.EY (V/m) @ t=0.58
0.12325098409132379
% es.EZ (V/m) @ t=0.58
-0.8219046261122918
% es.tEX (V/m) @ t=0.58
0.8231038196149667
% es.tEY (V/m) @ t=0.58
0
% es.tEZ (V/m) @ t=0.58
-0.8219046261122847
% es.Ex (V/m) @ t=0.58
0.8231038196149667
% es.Ey (V/m) @ t=0.58
0.12325098409132379
% es.Ez (V/m) @ t=0.58
-0.8219046261122918
% es.tEx (V/m) @ t=0.58
0.8231038196149667
% es.tEy (V/m) @ t=0.58
0
% es.tEz (V/m) @ t=0.58
-0.8219046261122847
% V (V) @ t=0.58
0.012689695879935984
% es.normE (V/m) @ t=0.6
1.1962548581906898
% es.EX (V/m) @ t=0.6
0.8309270325176019
% es.EY (V/m) @ t=0.6
0.12442242671859871
% es.EZ (V/m) @ t=0.6
-0.8297164411711972
% es.tEX (V/m) @ t=0.6
0.8309270325176068
% es.tEY (V/m) @ t=0.6
0
% es.tEZ (V/m) @ t=0.6
-0.8297164411711897
% es.Ex (V/m) @ t=0.6
0.8309270325176019
% es.Ey (V/m) @ t=0.6
0.12442242671859871
% es.Ez (V/m) @ t=0.6
-0.8297164411711972
% es.tEx (V/m) @ t=0.6
0.8309270325176068
% es.tEy (V/m) @ t=0.6
0
% es.tEz (V/m) @ t=0.6
-0.8297164411711897
% V (V) @ t=0.6
0.012810305429564467
% es.normE (V/m) @ t=0.62
1.2075176479318122
% es.EX (V/m) @ t=0.62
0.8387502454202387
% es.EY (V/m) @ t=0.62
0.12559386934583827
% es.EZ (V/m) @ t=0.62
-0.8375282562301201
% es.tEX (V/m) @ t=0.62
0.8387502454202438
% es.tEY (V/m) @ t=0.62
0
% es.tEZ (V/m) @ t=0.62
-0.8375282562301019
% es.Ex (V/m) @ t=0.62
0.8387502454202387
% es.Ey (V/m) @ t=0.62
0.12559386934583827
% es.Ez (V/m) @ t=0.62
-0.8375282562301201
% es.tEx (V/m) @ t=0.62
0.8387502454202438
% es.tEy (V/m) @ t=0.62
0
% es.tEz (V/m) @ t=0.62
-0.8375282562301019
% V (V) @ t=0.62
0.012930914979192947
% es.normE (V/m) @ t=0.64
1.2187804376729385
% es.EX (V/m) @ t=0.64
0.8465734583228779
% es.EY (V/m) @ t=0.64
0.12676531197310875
% es.EZ (V/m) @ t=0.64
-0.8453400712890393
% es.tEX (V/m) @ t=0.64
0.846573458322883
% es.tEY (V/m) @ t=0.64
0
% es.tEZ (V/m) @ t=0.64
-0.8453400712890211
% es.Ex (V/m) @ t=0.64
0.8465734583228779
% es.Ey (V/m) @ t=0.64
0.12676531197310875
% es.Ez (V/m) @ t=0.64
-0.8453400712890393
% es.tEx (V/m) @ t=0.64
0.846573458322883
% es.tEy (V/m) @ t=0.64
0
% es.tEz (V/m) @ t=0.64
-0.8453400712890211
% V (V) @ t=0.64
0.013051524528821433
% es.normE (V/m) @ t=0.66
1.2300432274140474
% es.EX (V/m) @ t=0.66
0.8543966712255087
% es.EY (V/m) @ t=0.66
0.12793675460036874
% es.EZ (V/m) @ t=0.66
-0.8531518863479444
% es.tEX (V/m) @ t=0.66
0.8543966712255173
% es.tEY (V/m) @ t=0.66
0
% es.tEZ (V/m) @ t=0.66
-0.8531518863479262
% es.Ex (V/m) @ t=0.66
0.8543966712255087
% es.Ey (V/m) @ t=0.66
0.12793675460036874
% es.Ez (V/m) @ t=0.66
-0.8531518863479444
% es.tEx (V/m) @ t=0.66
0.8543966712255173
% es.tEy (V/m) @ t=0.66
0
% es.tEz (V/m) @ t=0.66
-0.8531518863479262
% V (V) @ t=0.66
0.013172134078449914
% es.normE (V/m) @ t=0.68
1.2413060171551673
% es.EX (V/m) @ t=0.68
0.8622198841281532
% es.EY (V/m) @ t=0.68
0.12910819722763123
% es.EZ (V/m) @ t=0.68
-0.8609637014068539
% es.tEX (V/m) @ t=0.68
0.8622198841281583
% es.tEY (V/m) @ t=0.68
0
% es.tEZ (V/m) @ t=0.68
-0.8609637014068463
% es.Ex (V/m) @ t=0.68
0.8622198841281532
% es.Ey (V/m) @ t=0.68
0.12910819722763123
% es.Ez (V/m) @ t=0.68
-0.8609637014068539
% es.tEx (V/m) @ t=0.68
0.8622198841281583
% es.tEy (V/m) @ t=0.68
0
% es.tEz (V/m) @ t=0.68
-0.8609637014068463
% V (V) @ t=0.68
0.0132927436280784
% es.normE (V/m) @ t=0.7
1.2525688068962892
% es.EX (V/m) @ t=0.7
0.8700430970307835
% es.EY (V/m) @ t=0.7
0.13027963985489016
% es.EZ (V/m) @ t=0.7
-0.8687755164657767
% es.tEX (V/m) @ t=0.7
0.8700430970307869
% es.tEY (V/m) @ t=0.7
0
% es.tEZ (V/m) @ t=0.7
-0.8687755164657585
% es.Ex (V/m) @ t=0.7
0.8700430970307835
% es.Ey (V/m) @ t=0.7
0.13027963985489016
% es.Ez (V/m) @ t=0.7
-0.8687755164657767
% es.tEx (V/m) @ t=0.7
0.8700430970307869
% es.tEy (V/m) @ t=0.7
0
% es.tEz (V/m) @ t=0.7
-0.8687755164657585
% V (V) @ t=0.7
0.013413353177706882
% es.normE (V/m) @ t=0.72
1.2638315966374032
% es.EX (V/m) @ t=0.72
0.8778663099334232
% es.EY (V/m) @ t=0.72
0.13145108248215176
% es.EZ (V/m) @ t=0.72
-0.8765873315246826
% es.tEX (V/m) @ t=0.72
0.8778663099334243
% es.tEY (V/m) @ t=0.72
0
% es.tEZ (V/m) @ t=0.72
-0.8765873315246644
% es.Ex (V/m) @ t=0.72
0.8778663099334232
% es.Ey (V/m) @ t=0.72
0.13145108248215176
% es.Ez (V/m) @ t=0.72
-0.8765873315246826
% es.tEx (V/m) @ t=0.72
0.8778663099334243
% es.tEy (V/m) @ t=0.72
0
% es.tEz (V/m) @ t=0.72
-0.8765873315246644
% V (V) @ t=0.72
0.013533962727335362
% es.normE (V/m) @ t=0.74
1.2750943863785245
% es.EX (V/m) @ t=0.74
0.8856895228360597
% es.EY (V/m) @ t=0.74
0.13262252510941086
% es.EZ (V/m) @ t=0.74
-0.8843991465836019
% es.tEX (V/m) @ t=0.74
0.8856895228360648
% es.tEY (V/m) @ t=0.74
0
% es.tEZ (V/m) @ t=0.74
-0.8843991465835837
% es.Ex (V/m) @ t=0.74
0.8856895228360597
% es.Ey (V/m) @ t=0.74
0.13262252510941086
% es.Ez (V/m) @ t=0.74
-0.8843991465836019
% es.tEx (V/m) @ t=0.74
0.8856895228360648
% es.tEy (V/m) @ t=0.74
0
% es.tEz (V/m) @ t=0.74
-0.8843991465835837
% V (V) @ t=0.74
0.013654572276963844
% es.normE (V/m) @ t=0.76
1.2863571761196388
% es.EX (V/m) @ t=0.76
0.8935127357386932
% es.EY (V/m) @ t=0.76
0.13379396773667068
% es.EZ (V/m) @ t=0.76
-0.8922109616425105
% es.tEX (V/m) @ t=0.76
0.8935127357386978
% es.tEY (V/m) @ t=0.76
0
% es.tEZ (V/m) @ t=0.76
-0.8922109616424958
% es.Ex (V/m) @ t=0.76
0.8935127357386932
% es.Ey (V/m) @ t=0.76
0.13379396773667068
% es.Ez (V/m) @ t=0.76
-0.8922109616425105
% es.tEx (V/m) @ t=0.76
0.8935127357386978
% es.tEy (V/m) @ t=0.76
0
% es.tEz (V/m) @ t=0.76
-0.8922109616424958
% V (V) @ t=0.76
0.013775181826592328
% es.normE (V/m) @ t=0.78
1.2976199658607515
% es.EX (V/m) @ t=0.78
0.9013359486413297
% es.EY (V/m) @ t=0.78
0.1349654103639394
% es.EZ (V/m) @ t=0.78
-0.9000227767014164
% es.tEX (V/m) @ t=0.78
0.9013359486413344
% es.tEY (V/m) @ t=0.78
0
% es.tEZ (V/m) @ t=0.78
-0.9000227767014017
% es.Ex (V/m) @ t=0.78
0.9013359486413297
% es.Ey (V/m) @ t=0.78
0.1349654103639394
% es.Ez (V/m) @ t=0.78
-0.9000227767014164
% es.tEx (V/m) @ t=0.78
0.9013359486413344
% es.tEy (V/m) @ t=0.78
0
% es.tEz (V/m) @ t=0.78
-0.9000227767014017
% V (V) @ t=0.78
0.013895791376220813
% es.normE (V/m) @ t=0.8
1.3096035559226311
% es.EX (V/m) @ t=0.8
0.9096598345056075
% es.EY (V/m) @ t=0.8
0.13621182355783862
% es.EZ (V/m) @ t=0.8
-0.9083345352374326
% es.tEX (V/m) @ t=0.8
0.9096598345056122
% es.tEY (V/m) @ t=0.8
0
% es.tEZ (V/m) @ t=0.8
-0.9083345352374215
% es.Ex (V/m) @ t=0.8
0.9096598345056075
% es.Ey (V/m) @ t=0.8
0.13621182355783862
% es.Ez (V/m) @ t=0.8
-0.9083345352374326
% es.tEx (V/m) @ t=0.8
0.9096598345056122
% es.tEy (V/m) @ t=0.8
0
% es.tEz (V/m) @ t=0.8
-0.9083345352374215
% V (V) @ t=0.8
0.014024119734339646
% es.normE (V/m) @ t=0.82
1.3221429428161955
% es.EX (V/m) @ t=0.82
0.91836978074997
% es.EY (V/m) @ t=0.82
0.13751604527681993
% es.EZ (V/m) @ t=0.82
-0.9170317916604254
% es.tEX (V/m) @ t=0.82
0.9183697807499729
% es.tEY (V/m) @ t=0.82
0
% es.tEZ (V/m) @ t=0.82
-0.9170317916604072
% es.Ex (V/m) @ t=0.82
0.91836978074997
% es.Ey (V/m) @ t=0.82
0.13751604527681993
% es.Ez (V/m) @ t=0.82
-0.9170317916604254
% es.tEx (V/m) @ t=0.82
0.9183697807499729
% es.tEy (V/m) @ t=0.82
0
% es.tEz (V/m) @ t=0.82
-0.9170317916604072
% V (V) @ t=0.82
0.014158399934015301
% es.normE (V/m) @ t=0.84
1.3346823297097583
% es.EX (V/m) @ t=0.84
0.927079726994329
% es.EY (V/m) @ t=0.84
0.13882026699580674
% es.EZ (V/m) @ t=0.84
-0.925729048083411
% es.tEX (V/m) @ t=0.84
0.9270797269943318
% es.tEY (V/m) @ t=0.84
0
% es.tEZ (V/m) @ t=0.84
-0.9257290480833928
% es.Ex (V/m) @ t=0.84
0.927079726994329
% es.Ey (V/m) @ t=0.84
0.13882026699580674
% es.Ez (V/m) @ t=0.84
-0.925729048083411
% es.tEx (V/m) @ t=0.84
0.9270797269943318
% es.tEy (V/m) @ t=0.84
0
% es.tEz (V/m) @ t=0.84
-0.9257290480833928
% V (V) @ t=0.84
0.014292680133690961
% es.normE (V/m) @ t=0.86
1.3472217166033205
% es.EX (V/m) @ t=0.86
0.9357896732386781
% es.EY (V/m) @ t=0.86
0.14012448871478544
% es.EZ (V/m) @ t=0.86
-0.9344263045064118
% es.tEX (V/m) @ t=0.86
0.9357896732386806
% es.tEY (V/m) @ t=0.86
0
% es.tEZ (V/m) @ t=0.86
-0.9344263045063936
% es.Ex (V/m) @ t=0.86
0.9357896732386781
% es.Ey (V/m) @ t=0.86
0.14012448871478544
% es.Ez (V/m) @ t=0.86
-0.9344263045064118
% es.tEx (V/m) @ t=0.86
0.9357896732386806
% es.tEy (V/m) @ t=0.86
0
% es.tEz (V/m) @ t=0.86
-0.9344263045063936
% V (V) @ t=0.86
0.014426960333366616
% es.normE (V/m) @ t=0.88
1.3597611034968655
% es.EX (V/m) @ t=0.88
0.9444996194830353
% es.EY (V/m) @ t=0.88
0.14142871043375982
% es.EZ (V/m) @ t=0.88
-0.9431235609293833
% es.tEX (V/m) @ t=0.88
0.9444996194830395
% es.tEY (V/m) @ t=0.88
0
% es.tEZ (V/m) @ t=0.88
-0.9431235609293722
% es.Ex (V/m) @ t=0.88
0.9444996194830353
% es.Ey (V/m) @ t=0.88
0.14142871043375982
% es.Ez (V/m) @ t=0.88
-0.9431235609293833
% es.tEx (V/m) @ t=0.88
0.9444996194830395
% es.tEy (V/m) @ t=0.88
0
% es.tEz (V/m) @ t=0.88
-0.9431235609293722
% V (V) @ t=0.88
0.014561240533042271
% es.normE (V/m) @ t=0.9
1.3723004903904434
% es.EX (V/m) @ t=0.9
0.953209565727392
% es.EY (V/m) @ t=0.9
0.14273293215274824
% es.EZ (V/m) @ t=0.9
-0.9518208173523974
% es.tEX (V/m) @ t=0.9
0.9532095657273931
% es.tEY (V/m) @ t=0.9
0
% es.tEZ (V/m) @ t=0.9
-0.9518208173523792
% es.Ex (V/m) @ t=0.9
0.953209565727392
% es.Ey (V/m) @ t=0.9
0.14273293215274824
% es.Ez (V/m) @ t=0.9
-0.9518208173523974
% es.tEx (V/m) @ t=0.9
0.9532095657273931
% es.tEy (V/m) @ t=0.9
0
% es.tEz (V/m) @ t=0.9
-0.9518208173523792
% V (V) @ t=0.9
0.014695520732717932
% es.normE (V/m) @ t=0.92
1.3848398772839903
% es.EX (V/m) @ t=0.92
0.9619195119717394
% es.EY (V/m) @ t=0.92
0.1440371538717271
% es.EZ (V/m) @ t=0.92
-0.960518073775376
% es.tEX (V/m) @ t=0.92
0.9619195119717436
% es.tEY (V/m) @ t=0.92
0
% es.tEZ (V/m) @ t=0.92
-0.9605180737753578
% es.Ex (V/m) @ t=0.92
0.9619195119717394
% es.Ey (V/m) @ t=0.92
0.1440371538717271
% es.Ez (V/m) @ t=0.92
-0.960518073775376
% es.tEx (V/m) @ t=0.92
0.9619195119717436
% es.tEy (V/m) @ t=0.92
0
% es.tEz (V/m) @ t=0.92
-0.9605180737753578
% V (V) @ t=0.92
0.014829800932393587
% es.normE (V/m) @ t=0.94
1.397379264177558
% es.EX (V/m) @ t=0.94
0.9706294582160975
% es.EY (V/m) @ t=0.94
0.14534137559071753
% es.EZ (V/m) @ t=0.94
-0.9692153301983732
% es.tEX (V/m) @ t=0.94
0.9706294582160977
% es.tEY (V/m) @ t=0.94
0
% es.tEZ (V/m) @ t=0.94
-0.9692153301983586
% es.Ex (V/m) @ t=0.94
0.9706294582160975
% es.Ey (V/m) @ t=0.94
0.14534137559071753
% es.Ez (V/m) @ t=0.94
-0.9692153301983732
% es.tEx (V/m) @ t=0.94
0.9706294582160977
% es.tEy (V/m) @ t=0.94
0
% es.tEz (V/m) @ t=0.94
-0.9692153301983586
% V (V) @ t=0.94
0.014964081132069245
% es.normE (V/m) @ t=0.96
1.4099186510711113
% es.EX (V/m) @ t=0.96
0.9793394044604582
% es.EY (V/m) @ t=0.96
0.14664559730969973
% es.EZ (V/m) @ t=0.96
-0.9779125866213483
% es.tEX (V/m) @ t=0.96
0.979339404460462
% es.tEY (V/m) @ t=0.96
0
% es.tEZ (V/m) @ t=0.96
-0.9779125866213301
% es.Ex (V/m) @ t=0.96
0.9793394044604582
% es.Ey (V/m) @ t=0.96
0.14664559730969973
% es.Ez (V/m) @ t=0.96
-0.9779125866213483
% es.tEx (V/m) @ t=0.96
0.979339404460462
% es.tEy (V/m) @ t=0.96
0
% es.tEz (V/m) @ t=0.96
-0.9779125866213301
% V (V) @ t=0.96
0.015098361331744902
% es.normE (V/m) @ t=0.98
1.4224580379646659
% es.EX (V/m) @ t=0.98
0.9880493507048087
% es.EY (V/m) @ t=0.98
0.14794981902868726
% es.EZ (V/m) @ t=0.98
-0.9866098430443384
% es.tEX (V/m) @ t=0.98
0.9880493507048134
% es.tEY (V/m) @ t=0.98
0
% es.tEZ (V/m) @ t=0.98
-0.9866098430443238
% es.Ex (V/m) @ t=0.98
0.9880493507048087
% es.Ey (V/m) @ t=0.98
0.14794981902868726
% es.Ez (V/m) @ t=0.98
-0.9866098430443384
% es.tEx (V/m) @ t=0.98
0.9880493507048134
% es.tEy (V/m) @ t=0.98
0
% es.tEz (V/m) @ t=0.98
-0.9866098430443238
% V (V) @ t=0.98
0.015232641531420557
% es.normE (V/m) @ t=1
1.434997424858239
% es.EX (V/m) @ t=1
0.996759296949169
% es.EY (V/m) @ t=1
0.1492540407476592
% es.EZ (V/m) @ t=1
-0.9953070994673481
% es.tEX (V/m) @ t=1
0.996759296949171
% es.tEY (V/m) @ t=1
0
% es.tEZ (V/m) @ t=1
-0.9953070994673299
% es.Ex (V/m) @ t=1
0.996759296949169
% es.Ey (V/m) @ t=1
0.1492540407476592
% es.Ez (V/m) @ t=1
-0.9953070994673481
% es.tEx (V/m) @ t=1
0.996759296949171
% es.tEy (V/m) @ t=1
0
% es.tEz (V/m) @ t=1
-0.9953070994673299
% V (V) @ t=1
0.015366921731096212
% es.normE (V/m) @ t=1.02
1.4475368117517888
% es.EX (V/m) @ t=1.02
1.005469243193523
% es.EY (V/m) @ t=1.02
0.15055826246665827
% es.EZ (V/m) @ t=1.02
-1.0040043558903204
% es.tEX (V/m) @ t=1.02
1.005469243193525
% es.tEY (V/m) @ t=1.02
0
% es.tEZ (V/m) @ t=1.02
-1.0040043558903093
% es.Ex (V/m) @ t=1.02
1.005469243193523
% es.Ey (V/m) @ t=1.02
0.15055826246665827
% es.Ez (V/m) @ t=1.02
-1.0040043558903204
% es.tEx (V/m) @ t=1.02
1.005469243193525
% es.tEy (V/m) @ t=1.02
0
% es.tEz (V/m) @ t=1.02
-1.0040043558903093
% V (V) @ t=1.02
0.015501201930771872
% es.normE (V/m) @ t=1.04
1.4600761986453432
% es.EX (V/m) @ t=1.04
1.014179189437869
% es.EY (V/m) @ t=1.04
0.151862484185611
% es.EZ (V/m) @ t=1.04