% Model:              1 neuron.mph
% Version:            COMSOL 6.1.0.252
% Date:               Mar 22 2023, 20:17
% Dimension:          0
% Nodes:              14017
% Expressions:        14017
% Description:        Electric field norm, Electric field, X component, Electric field, Y component, Electric field, Z component, Tangential electric field, X component, Tangential electric field, Y component, Tangential electric field, Z component, Electric field, x component, Electric field, y component, Electric field, z component, Tangential electric field, x component, Tangential electric field, y component, Tangential electric field, z component, Electric potential
% Length unit:        mm
% x
1.66
% y
12.2
% z
2
% es.normE (V/m) @ t=0
2.1878555914169286
% es.EX (V/m) @ t=0
-0.6526812622102185
% es.EY (V/m) @ t=0
0.04875316500535362
% es.EZ (V/m) @ t=0
-2.0841514293681094
% es.tEX (V/m) @ t=0
-0.6526812622102263
% es.tEY (V/m) @ t=0
0
% es.tEZ (V/m) @ t=0
-2.0841514293681325
% es.Ex (V/m) @ t=0
-0.6526812622102185
% es.Ey (V/m) @ t=0
0.04875316500535362
% es.Ez (V/m) @ t=0
-2.0841514293681094
% es.tEx (V/m) @ t=0
-0.6526812622102263
% es.tEy (V/m) @ t=0
0
% es.tEz (V/m) @ t=0
-2.0841514293681325
% V (V) @ t=0
0.010997063934142487
% es.normE (V/m) @ t=0.02
1.8896802391508114
% es.EX (V/m) @ t=0.02
-0.5637295720187883
% es.EY (V/m) @ t=0.02
0.042108767772885344
% es.EZ (V/m) @ t=0.02
-1.8001095605087074
% es.tEX (V/m) @ t=0.02
-0.5637295720187971
% es.tEY (V/m) @ t=0.02
0
% es.tEZ (V/m) @ t=0.02
-1.800109560508731
% es.Ex (V/m) @ t=0.02
-0.5637295720187883
% es.Ey (V/m) @ t=0.02
0.042108767772885344
% es.Ez (V/m) @ t=0.02
-1.8001095605087074
% es.tEx (V/m) @ t=0.02
-0.5637295720187971
% es.tEy (V/m) @ t=0.02
0
% es.tEz (V/m) @ t=0.02
-1.800109560508731
% V (V) @ t=0.02
0.009498311443905266
% es.normE (V/m) @ t=0.04
1.9070699898798407
% es.EX (V/m) @ t=0.04
-0.5689173027134542
% es.EY (V/m) @ t=0.04
0.042496289067647325
% es.EZ (V/m) @ t=0.04
-1.8166750320315526
% es.tEX (V/m) @ t=0.04
-0.5689173027134551
% es.tEY (V/m) @ t=0.04
0
% es.tEZ (V/m) @ t=0.04
-1.8166750320315668
% es.Ex (V/m) @ t=0.04
-0.5689173027134542
% es.Ey (V/m) @ t=0.04
0.042496289067647325
% es.Ez (V/m) @ t=0.04
-1.8166750320315526
% es.tEx (V/m) @ t=0.04
-0.5689173027134551
% es.tEy (V/m) @ t=0.04
0
% es.tEz (V/m) @ t=0.04
-1.8166750320315668
% V (V) @ t=0.04
0.009585718585454829
% es.normE (V/m) @ t=0.06
1.9245993973799185
% es.EX (V/m) @ t=0.06
-0.5741467011273345
% es.EY (V/m) @ t=0.06
0.04288692667742798
% es.EZ (V/m) @ t=0.06
-1.8333735387733507
% es.tEX (V/m) @ t=0.06
-0.57414670112734
% es.tEY (V/m) @ t=0.06
0
% es.tEZ (V/m) @ t=0.06
-1.833373538773369
% es.Ex (V/m) @ t=0.06
-0.5741467011273345
% es.Ey (V/m) @ t=0.06
0.04288692667742798
% es.Ez (V/m) @ t=0.06
-1.8333735387733507
% es.tEx (V/m) @ t=0.06
-0.57414670112734
% es.tEy (V/m) @ t=0.06
0
% es.tEz (V/m) @ t=0.06
-1.833373538773369
% V (V) @ t=0.06
0.00967382744980467
% es.normE (V/m) @ t=0.08
1.9424360199986732
% es.EX (V/m) @ t=0.08
-0.5794677392627727
% es.EY (V/m) @ t=0.08
0.043284402549781414
% es.EZ (V/m) @ t=0.08
-1.8503647017090432
% es.tEX (V/m) @ t=0.08
-0.5794677392627783
% es.tEY (V/m) @ t=0.08
0
% es.tEZ (V/m) @ t=0.08
-1.8503647017090605
% es.Ex (V/m) @ t=0.08
-0.5794677392627727
% es.Ey (V/m) @ t=0.08
0.043284402549781414
% es.Ez (V/m) @ t=0.08
-1.8503647017090432
% es.tEx (V/m) @ t=0.08
-0.5794677392627783
% es.tEy (V/m) @ t=0.08
0
% es.tEz (V/m) @ t=0.08
-1.8503647017090605
% V (V) @ t=0.08
0.009763480928529297
% es.normE (V/m) @ t=0.1
1.9604037564967376
% es.EX (V/m) @ t=0.1
-0.5848278875808308
% es.EY (V/m) @ t=0.1
0.04368479686944002
% es.EZ (V/m) @ t=0.1
-1.86748076503717
% es.tEX (V/m) @ t=0.1
-0.5848278875808361
% es.tEY (V/m) @ t=0.1
0
% es.tEZ (V/m) @ t=0.1
-1.8674807650371896
% es.Ex (V/m) @ t=0.1
-0.5848278875808308
% es.Ey (V/m) @ t=0.1
0.04368479686944002
% es.Ez (V/m) @ t=0.1
-1.86748076503717
% es.tEx (V/m) @ t=0.1
-0.5848278875808361
% es.tEy (V/m) @ t=0.1
0
% es.tEz (V/m) @ t=0.1
-1.8674807650371896
% V (V) @ t=0.1
0.009853793620848638
% es.normE (V/m) @ t=0.12
1.9783714929948086
% es.EX (V/m) @ t=0.12
-0.59018803589889
% es.EY (V/m) @ t=0.12
0.044085191189093445
% es.EZ (V/m) @ t=0.12
-1.8845968283653036
% es.tEX (V/m) @ t=0.12
-0.5901880358988976
% es.tEY (V/m) @ t=0.12
0
% es.tEZ (V/m) @ t=0.12
-1.8845968283653187
% es.Ex (V/m) @ t=0.12
-0.59018803589889
% es.Ey (V/m) @ t=0.12
0.044085191189093445
% es.Ez (V/m) @ t=0.12
-1.8845968283653036
% es.tEx (V/m) @ t=0.12
-0.5901880358988976
% es.tEy (V/m) @ t=0.12
0
% es.tEz (V/m) @ t=0.12
-1.8845968283653187
% V (V) @ t=0.12
0.009944106313167979
% es.normE (V/m) @ t=0.14
1.9967201190461497
% es.EX (V/m) @ t=0.14
-0.5956617968885816
% es.EY (V/m) @ t=0.14
0.04449406100425464
% es.EZ (V/m) @ t=0.14
-1.902075732099758
% es.tEX (V/m) @ t=0.14
-0.5956617968885851
% es.tEY (V/m) @ t=0.14
0
% es.tEZ (V/m) @ t=0.14
-1.9020757320997665
% es.Ex (V/m) @ t=0.14
-0.5956617968885816
% es.Ey (V/m) @ t=0.14
0.04449406100425464
% es.Ez (V/m) @ t=0.14
-1.902075732099758
% es.tEx (V/m) @ t=0.14
-0.5956617968885851
% es.tEy (V/m) @ t=0.14
0
% es.tEz (V/m) @ t=0.14
-1.9020757320997665
% V (V) @ t=0.14
0.010036334204253775
% es.normE (V/m) @ t=0.16
2.015613708781845
% es.EX (V/m) @ t=0.16
-0.6012981109847744
% es.EY (V/m) @ t=0.16
0.04491505726712923
% es.EZ (V/m) @ t=0.16
-1.9200737754193367
% es.tEX (V/m) @ t=0.16
-0.6012981109847821
% es.tEY (V/m) @ t=0.16
0
% es.tEZ (V/m) @ t=0.16
-1.9200737754193575
% es.Ex (V/m) @ t=0.16
-0.6012981109847744
% es.Ey (V/m) @ t=0.16
0.04491505726712923
% es.Ez (V/m) @ t=0.16
-1.9200737754193367
% es.tEx (V/m) @ t=0.16
-0.6012981109847821
% es.tEy (V/m) @ t=0.16
0
% es.tEz (V/m) @ t=0.16
-1.9200737754193575
% V (V) @ t=0.16
0.010131302295923034
% es.normE (V/m) @ t=0.18
2.0345072985175516
% es.EX (V/m) @ t=0.18
-0.606934425080982
% es.EY (V/m) @ t=0.18
0.04533605353000031
% es.EZ (V/m) @ t=0.18
-1.9380718187389228
% es.tEX (V/m) @ t=0.18
-0.6069344250809898
% es.tEY (V/m) @ t=0.18
0
% es.tEZ (V/m) @ t=0.18
-1.938071818738944
% es.Ex (V/m) @ t=0.18
-0.606934425080982
% es.Ey (V/m) @ t=0.18
0.04533605353000031
% es.Ez (V/m) @ t=0.18
-1.9380718187389228
% es.tEx (V/m) @ t=0.18
-0.6069344250809898
% es.tEy (V/m) @ t=0.18
0
% es.tEz (V/m) @ t=0.18
-1.938071818738944
% V (V) @ t=0.18
0.010226270387592292
% es.normE (V/m) @ t=0.2
2.0534008882532575
% es.EX (V/m) @ t=0.2
-0.6125707391771871
% es.EY (V/m) @ t=0.2
0.04575704979287694
% es.EZ (V/m) @ t=0.2
-1.9560698620585089
% es.tEX (V/m) @ t=0.2
-0.6125707391771975
% es.tEY (V/m) @ t=0.2
0
% es.tEZ (V/m) @ t=0.2
-1.9560698620585368
% es.Ex (V/m) @ t=0.2
-0.6125707391771871
% es.Ey (V/m) @ t=0.2
0.04575704979287694
% es.Ez (V/m) @ t=0.2
-1.9560698620585089
% es.tEx (V/m) @ t=0.2
-0.6125707391771975
% es.tEy (V/m) @ t=0.2
0
% es.tEz (V/m) @ t=0.2
-1.9560698620585368
% V (V) @ t=0.2
0.010321238479261547
% es.normE (V/m) @ t=0.22
2.0722944779889696
% es.EX (V/m) @ t=0.22
-0.6182070532733888
% es.EY (V/m) @ t=0.22
0.046178046055749725
% es.EZ (V/m) @ t=0.22
-1.9740679053781012
% es.tEX (V/m) @ t=0.22
-0.6182070532733945
% es.tEY (V/m) @ t=0.22
0
% es.tEZ (V/m) @ t=0.22
-1.9740679053781296
% es.Ex (V/m) @ t=0.22
-0.6182070532733888
% es.Ey (V/m) @ t=0.22
0.046178046055749725
% es.Ez (V/m) @ t=0.22
-1.9740679053781012
% es.tEx (V/m) @ t=0.22
-0.6182070532733945
% es.tEy (V/m) @ t=0.22
0
% es.tEz (V/m) @ t=0.22
-1.9740679053781296
% V (V) @ t=0.22
0.010416206570930807
% es.normE (V/m) @ t=0.24
2.0911880677246906
% es.EX (V/m) @ t=0.24
-0.6238433673695902
% es.EY (V/m) @ t=0.24
0.04659904231862258
% es.EZ (V/m) @ t=0.24
-1.9920659486977015
% es.tEX (V/m) @ t=0.24
-0.6238433673695951
% es.tEY (V/m) @ t=0.24
0
% es.tEZ (V/m) @ t=0.24
-1.9920659486977152
% es.Ex (V/m) @ t=0.24
-0.6238433673695902
% es.Ey (V/m) @ t=0.24
0.04659904231862258
% es.Ez (V/m) @ t=0.24
-1.9920659486977015
% es.tEx (V/m) @ t=0.24
-0.6238433673695951
% es.tEy (V/m) @ t=0.24
0
% es.tEz (V/m) @ t=0.24
-1.9920659486977152
% V (V) @ t=0.24
0.010511174662600067
% es.normE (V/m) @ t=0.26
2.1100816574603978
% es.EX (V/m) @ t=0.26
-0.6294796814657964
% es.EY (V/m) @ t=0.26
0.0470200385815025
% es.EZ (V/m) @ t=0.26
-2.010063992017287
% es.tEX (V/m) @ t=0.26
-0.6294796814657992
% es.tEY (V/m) @ t=0.26
0
% es.tEZ (V/m) @ t=0.26
-2.010063992017302
% es.Ex (V/m) @ t=0.26
-0.6294796814657964
% es.Ey (V/m) @ t=0.26
0.0470200385815025
% es.Ez (V/m) @ t=0.26
-2.010063992017287
% es.tEx (V/m) @ t=0.26
-0.6294796814657992
% es.tEy (V/m) @ t=0.26
0
% es.tEz (V/m) @ t=0.26
-2.010063992017302
% V (V) @ t=0.26
0.010606142754269323
% es.normE (V/m) @ t=0.28
2.130702027006354
% es.EX (V/m) @ t=0.28
-0.6356316409982936
% es.EY (V/m) @ t=0.28
0.04747996749182738
% es.EZ (V/m) @ t=0.28
-2.02970678659093
% es.tEX (V/m) @ t=0.28
-0.6356316409983016
% es.tEY (V/m) @ t=0.28
0
% es.tEZ (V/m) @ t=0.28
-2.0297067865909453
% es.Ex (V/m) @ t=0.28
-0.6356316409982936
% es.Ey (V/m) @ t=0.28
0.04747996749182738
% es.Ez (V/m) @ t=0.28
-2.02970678659093
% es.tEx (V/m) @ t=0.28
-0.6356316409983016
% es.tEy (V/m) @ t=0.28
0
% es.tEz (V/m) @ t=0.28
-2.0297067865909453
% V (V) @ t=0.28
0.010709765157111816
% es.normE (V/m) @ t=0.3
2.1516700181194377
% es.EX (V/m) @ t=0.3
-0.641887406165677
% es.EY (V/m) @ t=0.3
0.04794773401283289
% es.EZ (V/m) @ t=0.3
-2.049680689395392
% es.tEX (V/m) @ t=0.3
-0.6418874061656759
% es.tEY (V/m) @ t=0.3
0
% es.tEZ (V/m) @ t=0.3
-2.0496806893954167
% es.Ex (V/m) @ t=0.3
-0.641887406165677
% es.Ey (V/m) @ t=0.3
0.04794773401283289
% es.Ez (V/m) @ t=0.3
-2.049680689395392
% es.tEx (V/m) @ t=0.3
-0.6418874061656759
% es.tEy (V/m) @ t=0.3
0
% es.tEz (V/m) @ t=0.3
-2.0496806893954167
% V (V) @ t=0.3
0.0108151297769943
% es.normE (V/m) @ t=0.32
2.172638009232835
% es.EX (V/m) @ t=0.32
-0.648143171333064
% es.EY (V/m) @ t=0.32
0.048415500533852726
% es.EZ (V/m) @ t=0.32
-2.0696545921998517
% es.tEX (V/m) @ t=0.32
-0.6481431713330714
% es.tEY (V/m) @ t=0.32
0
% es.tEZ (V/m) @ t=0.32
-2.069654592199866
% es.Ex (V/m) @ t=0.32
-0.648143171333064
% es.Ey (V/m) @ t=0.32
0.048415500533852726
% es.Ez (V/m) @ t=0.32
-2.0696545921998517
% es.tEx (V/m) @ t=0.32
-0.6481431713330714
% es.tEy (V/m) @ t=0.32
0
% es.tEz (V/m) @ t=0.32
-2.069654592199866
% V (V) @ t=0.32
0.010920494396876786
% es.normE (V/m) @ t=0.34
2.1936060003464997
% es.EX (V/m) @ t=0.34
-0.6543989365004412
% es.EY (V/m) @ t=0.34
0.048883267054860347
% es.EZ (V/m) @ t=0.34
-2.089628495004276
% es.tEX (V/m) @ t=0.34
-0.6543989365004492
% es.tEY (V/m) @ t=0.34
0
% es.tEZ (V/m) @ t=0.34
-2.0896284950042947
% es.Ex (V/m) @ t=0.34
-0.6543989365004412
% es.Ey (V/m) @ t=0.34
0.048883267054860347
% es.Ez (V/m) @ t=0.34
-2.089628495004276
% es.tEx (V/m) @ t=0.34
-0.6543989365004492
% es.tEy (V/m) @ t=0.34
0
% es.tEz (V/m) @ t=0.34
-2.0896284950042947
% V (V) @ t=0.34
0.01102585901675927
% es.normE (V/m) @ t=0.36
2.2145739914605076
% es.EX (V/m) @ t=0.36
-0.660654701667823
% es.EY (V/m) @ t=0.36
0.04935103357587818
% es.EZ (V/m) @ t=0.36
-2.109602397808751
% es.tEX (V/m) @ t=0.36
-0.6606547016678235
% es.tEY (V/m) @ t=0.36
0
% es.tEZ (V/m) @ t=0.36
-2.109602397808758
% es.Ex (V/m) @ t=0.36
-0.660654701667823
% es.Ey (V/m) @ t=0.36
0.04935103357587818
% es.Ez (V/m) @ t=0.36
-2.109602397808751
% es.tEx (V/m) @ t=0.36
-0.6606547016678235
% es.tEy (V/m) @ t=0.36
0
% es.tEz (V/m) @ t=0.36
-2.109602397808758
% V (V) @ t=0.36
0.01113122363664176
% es.normE (V/m) @ t=0.38
2.2355419825747758
% es.EX (V/m) @ t=0.38
-0.6669104668352027
% es.EY (V/m) @ t=0.38
0.0498188000968979
% es.EZ (V/m) @ t=0.38
-2.1295763006131976
% es.tEX (V/m) @ t=0.38
-0.6669104668352155
% es.tEY (V/m) @ t=0.38
0
% es.tEZ (V/m) @ t=0.38
-2.1295763006132153
% es.Ex (V/m) @ t=0.38
-0.6669104668352027
% es.Ey (V/m) @ t=0.38
0.0498188000968979
% es.Ez (V/m) @ t=0.38
-2.1295763006131976
% es.tEx (V/m) @ t=0.38
-0.6669104668352155
% es.tEy (V/m) @ t=0.38
0
% es.tEz (V/m) @ t=0.38
-2.1295763006132153
% V (V) @ t=0.38
0.011236588256524245
% es.normE (V/m) @ t=0.4
2.2565099736893
% es.EX (V/m) @ t=0.4
-0.6731662320025774
% es.EY (V/m) @ t=0.4
0.05028656661790197
% es.EZ (V/m) @ t=0.4
-2.149550203417622
% es.tEX (V/m) @ t=0.4
-0.6731662320025862
% es.tEY (V/m) @ t=0.4
0
% es.tEZ (V/m) @ t=0.4
-2.1495502034176432
% es.Ex (V/m) @ t=0.4
-0.6731662320025774
% es.Ey (V/m) @ t=0.4
0.05028656661790197
% es.Ez (V/m) @ t=0.4
-2.149550203417622
% es.tEx (V/m) @ t=0.4
-0.6731662320025862
% es.tEy (V/m) @ t=0.4
0
% es.tEz (V/m) @ t=0.4
-2.1495502034176432
% V (V) @ t=0.4
0.011341952876406733
% es.normE (V/m) @ t=0.42
2.2774779648041346
% es.EX (V/m) @ t=0.42
-0.6794219971699681
% es.EY (V/m) @ t=0.42
0.05075433313890737
% es.EZ (V/m) @ t=0.42
-2.1695241062220827
% es.tEX (V/m) @ t=0.42
-0.6794219971699711
% es.tEY (V/m) @ t=0.42
0
% es.tEZ (V/m) @ t=0.42
-2.1695241062221067
% es.Ex (V/m) @ t=0.42
-0.6794219971699681
% es.Ey (V/m) @ t=0.42
0.05075433313890737
% es.Ez (V/m) @ t=0.42
-2.1695241062220827
% es.tEx (V/m) @ t=0.42
-0.6794219971699711
% es.tEy (V/m) @ t=0.42
0
% es.tEz (V/m) @ t=0.42
-2.1695241062221067
% V (V) @ t=0.42
0.011447317496289218
% es.normE (V/m) @ t=0.44
2.2984459559192283
% es.EX (V/m) @ t=0.44
-0.6856777623373463
% es.EY (V/m) @ t=0.44
0.051222099659905665
% es.EZ (V/m) @ t=0.44
-2.1894980090265426
% es.tEX (V/m) @ t=0.44
-0.6856777623373453
% es.tEY (V/m) @ t=0.44
0
% es.tEZ (V/m) @ t=0.44
-2.1894980090265577
% es.Ex (V/m) @ t=0.44
-0.6856777623373463
% es.Ey (V/m) @ t=0.44
0.051222099659905665
% es.Ez (V/m) @ t=0.44
-2.1894980090265426
% es.tEx (V/m) @ t=0.44
-0.6856777623373453
% es.tEy (V/m) @ t=0.44
0
% es.tEz (V/m) @ t=0.44
-2.1894980090265577
% V (V) @ t=0.44
0.011552682116171706
% es.normE (V/m) @ t=0.46
2.31941394703456
% es.EX (V/m) @ t=0.46
-0.6919335275047271
% es.EY (V/m) @ t=0.46
0.0516898661809346
% es.EZ (V/m) @ t=0.46
-2.209471911830981
% es.tEX (V/m) @ t=0.46
-0.6919335275047338
% es.tEY (V/m) @ t=0.46
0
% es.tEZ (V/m) @ t=0.46
-2.209471911831
% es.Ex (V/m) @ t=0.46
-0.6919335275047271
% es.Ey (V/m) @ t=0.46
0.0516898661809346
% es.Ez (V/m) @ t=0.46
-2.209471911830981
% es.tEx (V/m) @ t=0.46
-0.6919335275047338
% es.tEy (V/m) @ t=0.46
0
% es.tEz (V/m) @ t=0.46
-2.209471911831
% V (V) @ t=0.46
0.011658046736054192
% es.normE (V/m) @ t=0.48
2.3403819381501636
% es.EX (V/m) @ t=0.48
-0.6981892926721122
% es.EY (V/m) @ t=0.48
0.05215763270193832
% es.EZ (V/m) @ t=0.48
-2.229445814635443
% es.tEX (V/m) @ t=0.48
-0.6981892926721152
% es.tEY (V/m) @ t=0.48
0
% es.tEZ (V/m) @ t=0.48
-2.229445814635457
% es.Ex (V/m) @ t=0.48
-0.6981892926721122
% es.Ey (V/m) @ t=0.48
0.05215763270193832
% es.Ez (V/m) @ t=0.48
-2.229445814635443
% es.tEx (V/m) @ t=0.48
-0.6981892926721152
% es.tEy (V/m) @ t=0.48
0
% es.tEz (V/m) @ t=0.48
-2.229445814635457
% V (V) @ t=0.48
0.011763411355936676
% es.normE (V/m) @ t=0.5
2.361349929265987
% es.EX (V/m) @ t=0.5
-0.7044450578394904
% es.EY (V/m) @ t=0.5
0.05262539922296859
% es.EZ (V/m) @ t=0.5
-2.2494197174398813
% es.tEX (V/m) @ t=0.5
-0.704445057839493
% es.tEY (V/m) @ t=0.5
0
% es.tEZ (V/m) @ t=0.5
-2.249419717439906
% es.Ex (V/m) @ t=0.5
-0.7044450578394904
% es.Ey (V/m) @ t=0.5
0.05262539922296859
% es.Ez (V/m) @ t=0.5
-2.2494197174398813
% es.tEx (V/m) @ t=0.5
-0.704445057839493
% es.tEy (V/m) @ t=0.5
0
% es.tEz (V/m) @ t=0.5
-2.249419717439906
% V (V) @ t=0.5
0.011868775975819165
% es.normE (V/m) @ t=0.52
2.382317920382068
% es.EX (V/m) @ t=0.52
-0.7107008230068731
% es.EY (V/m) @ t=0.52
0.053093165743979764
% es.EZ (V/m) @ t=0.52
-2.269393620244341
% es.tEX (V/m) @ t=0.52
-0.7107008230068814
% es.tEY (V/m) @ t=0.52
0
% es.tEZ (V/m) @ t=0.52
-2.2693936202443634
% es.Ex (V/m) @ t=0.52
-0.7107008230068731
% es.Ey (V/m) @ t=0.52
0.053093165743979764
% es.Ez (V/m) @ t=0.52
-2.269393620244341
% es.tEx (V/m) @ t=0.52
-0.7107008230068814
% es.tEy (V/m) @ t=0.52
0
% es.tEz (V/m) @ t=0.52
-2.2693936202443634
% V (V) @ t=0.52
0.011974140595701649
% es.normE (V/m) @ t=0.54
2.4048636221830333
% es.EX (V/m) @ t=0.54
-0.7174258957078741
% es.EY (V/m) @ t=0.54
0.05359488281734315
% es.EZ (V/m) @ t=0.54
-2.2908709250957706
% es.tEX (V/m) @ t=0.54
-0.717425895707887
% es.tEY (V/m) @ t=0.54
0
% es.tEZ (V/m) @ t=0.54
-2.2908709250957893
% es.Ex (V/m) @ t=0.54
-0.7174258957078741
% es.Ey (V/m) @ t=0.54
0.05359488281734315
% es.Ez (V/m) @ t=0.54
-2.2908709250957706
% es.tEx (V/m) @ t=0.54
-0.717425895707887
% es.tEy (V/m) @ t=0.54
0
% es.tEz (V/m) @ t=0.54
-2.2908709250957893
% V (V) @ t=0.54
0.01208750222748581
% es.normE (V/m) @ t=0.56
2.428170752194027
% es.EX (V/m) @ t=0.56
-0.7243774636706555
% es.EY (V/m) @ t=0.56
0.05411298496595615
% es.EZ (V/m) @ t=0.56
-2.3130737956281413
% es.tEX (V/m) @ t=0.56
-0.7243774636706597
% es.tEY (V/m) @ t=0.56
0
% es.tEZ (V/m) @ t=0.56
-2.3130737956281573
% es.Ex (V/m) @ t=0.56
-0.7243774636706555
% es.Ey (V/m) @ t=0.56
0.05411298496595615
% es.Ez (V/m) @ t=0.56
-2.3130737956281413
% es.tEx (V/m) @ t=0.56
-0.7243774636706597
% es.tEy (V/m) @ t=0.56
0
% es.tEz (V/m) @ t=0.56
-2.3130737956281573
% V (V) @ t=0.56
0.012204723344094653
% es.normE (V/m) @ t=0.58
2.4514778822067793
% es.EX (V/m) @ t=0.58
-0.7313290316334455
% es.EY (V/m) @ t=0.58
0.05463108711456409
% es.EZ (V/m) @ t=0.58
-2.335276666160498
% es.tEX (V/m) @ t=0.58
-0.7313290316334502
% es.tEY (V/m) @ t=0.58
0
% es.tEZ (V/m) @ t=0.58
-2.3352766661605333
% es.Ex (V/m) @ t=0.58
-0.7313290316334455
% es.Ey (V/m) @ t=0.58
0.05463108711456409
% es.Ez (V/m) @ t=0.58
-2.335276666160498
% es.tEx (V/m) @ t=0.58
-0.7313290316334502
% es.tEy (V/m) @ t=0.58
0
% es.tEz (V/m) @ t=0.58
-2.3352766661605333
% V (V) @ t=0.58
0.012321944460703492
% es.normE (V/m) @ t=0.6
2.4747850122212487
% es.EX (V/m) @ t=0.6
-0.738280599596224
% es.EY (V/m) @ t=0.6
0.055149189263168696
% es.EZ (V/m) @ t=0.6
-2.357479536692855
% es.tEX (V/m) @ t=0.6
-0.7382805995962372
% es.tEY (V/m) @ t=0.6
0
% es.tEZ (V/m) @ t=0.6
-2.357479536692873
% es.Ex (V/m) @ t=0.6
-0.738280599596224
% es.Ey (V/m) @ t=0.6
0.055149189263168696
% es.Ez (V/m) @ t=0.6
-2.357479536692855
% es.tEx (V/m) @ t=0.6
-0.7382805995962372
% es.tEy (V/m) @ t=0.6
0
% es.tEz (V/m) @ t=0.6
-2.357479536692873
% V (V) @ t=0.6
0.012439165577312335
% es.normE (V/m) @ t=0.62
2.4980921422373967
% es.EX (V/m) @ t=0.62
-0.7452321675590036
% es.EY (V/m) @ t=0.62
0.05566729141177834
% es.EZ (V/m) @ t=0.62
-2.379682407225218
% es.tEX (V/m) @ t=0.62
-0.745232167559017
% es.tEY (V/m) @ t=0.62
0
% es.tEZ (V/m) @ t=0.62
-2.379682407225233
% es.Ex (V/m) @ t=0.62
-0.7452321675590036
% es.Ey (V/m) @ t=0.62
0.05566729141177834
% es.Ez (V/m) @ t=0.62
-2.379682407225218
% es.tEx (V/m) @ t=0.62
-0.745232167559017
% es.tEy (V/m) @ t=0.62
0
% es.tEz (V/m) @ t=0.62
-2.379682407225233
% V (V) @ t=0.62
0.012556386693921177
% es.normE (V/m) @ t=0.64
2.521399272255181
% es.EX (V/m) @ t=0.64
-0.7521837355218017
% es.EY (V/m) @ t=0.64
0.05618539356039312
% es.EZ (V/m) @ t=0.64
-2.4018852777575885
% es.tEX (V/m) @ t=0.64
-0.7521837355218146
% es.tEY (V/m) @ t=0.64
0
% es.tEZ (V/m) @ t=0.64
-2.401885277757617
% es.Ex (V/m) @ t=0.64
-0.7521837355218017
% es.Ey (V/m) @ t=0.64
0.05618539356039312
% es.Ez (V/m) @ t=0.64
-2.4018852777575885
% es.tEx (V/m) @ t=0.64
-0.7521837355218146
% es.tEy (V/m) @ t=0.64
0
% es.tEz (V/m) @ t=0.64
-2.401885277757617
% V (V) @ t=0.64
0.012673607810530016
% es.normE (V/m) @ t=0.66
2.5447064022745156
% es.EX (V/m) @ t=0.66
-0.7591353034845796
% es.EY (V/m) @ t=0.66
0.05670349570897791
% es.EZ (V/m) @ t=0.66
-2.424088148289931
% es.tEX (V/m) @ t=0.66
-0.7591353034845874
% es.tEY (V/m) @ t=0.66
0
% es.tEZ (V/m) @ t=0.66
-2.4240881482899637
% es.Ex (V/m) @ t=0.66
-0.7591353034845796
% es.Ey (V/m) @ t=0.66
0.05670349570897791
% es.Ez (V/m) @ t=0.66
-2.424088148289931
% es.tEx (V/m) @ t=0.66
-0.7591353034845874
% es.tEy (V/m) @ t=0.66
0
% es.tEz (V/m) @ t=0.66
-2.4240881482899637
% V (V) @ t=0.66
0.012790828927138861
% es.normE (V/m) @ t=0.68
2.56801353229542
% es.EX (V/m) @ t=0.68
-0.7660868714473628
% es.EY (V/m) @ t=0.68
0.05722159785759269
% es.EZ (V/m) @ t=0.68
-2.4462910188223077
% es.tEX (V/m) @ t=0.68
-0.7660868714473779
% es.tEY (V/m) @ t=0.68
0
% es.tEZ (V/m) @ t=0.68
-2.4462910188223317
% es.Ex (V/m) @ t=0.68
-0.7660868714473628
% es.Ey (V/m) @ t=0.68
0.05722159785759269
% es.Ez (V/m) @ t=0.68
-2.4462910188223077
% es.tEx (V/m) @ t=0.68
-0.7660868714473779
% es.tEy (V/m) @ t=0.68
0
% es.tEz (V/m) @ t=0.68
-2.4462910188223317
% V (V) @ t=0.68
0.012908050043747702
% es.normE (V/m) @ t=0.7
2.5913206623177887
% es.EX (V/m) @ t=0.7
-0.7730384394101405
% es.EY (V/m) @ t=0.7
0.05773970000621147
% es.EZ (V/m) @ t=0.7
-2.46849388935465
% es.tEX (V/m) @ t=0.7
-0.7730384394101506
% es.tEY (V/m) @ t=0.7
0
% es.tEZ (V/m) @ t=0.7
-2.4684938893546864
% es.Ex (V/m) @ t=0.7
-0.7730384394101405
% es.Ey (V/m) @ t=0.7
0.05773970000621147
% es.Ez (V/m) @ t=0.7
-2.46849388935465
% es.tEx (V/m) @ t=0.7
-0.7730384394101506
% es.tEy (V/m) @ t=0.7
0
% es.tEz (V/m) @ t=0.7
-2.4684938893546864
% V (V) @ t=0.7
0.013025271160356547
% es.normE (V/m) @ t=0.72
2.614627792341656
% es.EX (V/m) @ t=0.72
-0.7799900073729289
% es.EY (V/m) @ t=0.72
0.05825780215481223
% es.EZ (V/m) @ t=0.72
-2.490696759887035
% es.tEX (V/m) @ t=0.72
-0.7799900073729304
% es.tEY (V/m) @ t=0.72
0
% es.tEZ (V/m) @ t=0.72
-2.49069675988704
% es.Ex (V/m) @ t=0.72
-0.7799900073729289
% es.Ey (V/m) @ t=0.72
0.05825780215481223
% es.Ez (V/m) @ t=0.72
-2.490696759887035
% es.tEx (V/m) @ t=0.72
-0.7799900073729304
% es.tEy (V/m) @ t=0.72
0
% es.tEz (V/m) @ t=0.72
-2.49069675988704
% V (V) @ t=0.72
0.013142492276965387
% es.normE (V/m) @ t=0.74
2.6379349223669095
% es.EX (V/m) @ t=0.74
-0.7869415753357103
% es.EY (V/m) @ t=0.74
0.05877590430341635
% es.EZ (V/m) @ t=0.74
-2.5128996304193905
% es.tEX (V/m) @ t=0.74
-0.7869415753357245
% es.tEY (V/m) @ t=0.74
0
% es.tEZ (V/m) @ t=0.74
-2.5128996304194207
% es.Ex (V/m) @ t=0.74
-0.7869415753357103
% es.Ey (V/m) @ t=0.74
0.05877590430341635
% es.Ez (V/m) @ t=0.74
-2.5128996304193905
% es.tEx (V/m) @ t=0.74
-0.7869415753357245
% es.tEy (V/m) @ t=0.74
0
% es.tEz (V/m) @ t=0.74
-2.5128996304194207
% V (V) @ t=0.74
0.013259713393574228
% es.normE (V/m) @ t=0.76
2.661242052393548
% es.EX (V/m) @ t=0.76
-0.7938931432984975
% es.EY (V/m) @ t=0.76
0.05929400645201523
% es.EZ (V/m) @ t=0.76
-2.535102500951748
% es.tEX (V/m) @ t=0.76
-0.7938931432985044
% es.tEY (V/m) @ t=0.76
0
% es.tEZ (V/m) @ t=0.76
-2.5351025009517762
% es.Ex (V/m) @ t=0.76
-0.7938931432984975
% es.Ey (V/m) @ t=0.76
0.05929400645201523
% es.Ez (V/m) @ t=0.76
-2.535102500951748
% es.tEx (V/m) @ t=0.76
-0.7938931432985044
% es.tEy (V/m) @ t=0.76
0
% es.tEz (V/m) @ t=0.76
-2.5351025009517762
% V (V) @ t=0.76
0.013376934510183073
% es.normE (V/m) @ t=0.78
2.684549182421531
% es.EX (V/m) @ t=0.78
-0.8008447112612869
% es.EY (V/m) @ t=0.78
0.05981210860064286
% es.EZ (V/m) @ t=0.78
-2.5573053714841043
% es.tEX (V/m) @ t=0.78
-0.8008447112612842
% es.tEY (V/m) @ t=0.78
0
% es.tEZ (V/m) @ t=0.78
-2.55730537148413
% es.Ex (V/m) @ t=0.78
-0.8008447112612869
% es.Ey (V/m) @ t=0.78
0.05981210860064286
% es.Ez (V/m) @ t=0.78
-2.5573053714841043
% es.tEx (V/m) @ t=0.78
-0.8008447112612842
% es.tEy (V/m) @ t=0.78
0
% es.tEz (V/m) @ t=0.78
-2.55730537148413
% V (V) @ t=0.78
0.013494155626791913
% es.normE (V/m) @ t=0.8
2.709223516241404
% es.EX (V/m) @ t=0.8
-0.8082051634887164
% es.EY (V/m) @ t=0.8
0.06036158770741834
% es.EZ (V/m) @ t=0.8
-2.5808102830866106
% es.tEX (V/m) @ t=0.8
-0.8082051634887151
% es.tEY (V/m) @ t=0.8
0
% es.tEZ (V/m) @ t=0.8
-2.5808102830866524
% es.Ex (V/m) @ t=0.8
-0.8082051634887164
% es.Ey (V/m) @ t=0.8
0.06036158770741834
% es.Ez (V/m) @ t=0.8
-2.5808102830866106
% es.tEx (V/m) @ t=0.8
-0.8082051634887151
% es.tEy (V/m) @ t=0.8
0
% es.tEz (V/m) @ t=0.8
-2.5808102830866524
% V (V) @ t=0.8
0.013618198540649926
% es.normE (V/m) @ t=0.82
2.735177476109673
% es.EX (V/m) @ t=0.82
-0.8159483084494465
% es.EY (V/m) @ t=0.82
0.06094043388679975
% es.EZ (V/m) @ t=0.82
-2.6055338320862615
% es.tEX (V/m) @ t=0.82
-0.8159483084494568
% es.tEY (V/m) @ t=0.82
0
% es.tEZ (V/m) @ t=0.82
-2.605533832086298
% es.Ex (V/m) @ t=0.82
-0.8159483084494465
% es.Ey (V/m) @ t=0.82
0.06094043388679975
% es.Ez (V/m) @ t=0.82
-2.6055338320862615
% es.tEx (V/m) @ t=0.82
-0.8159483084494568
% es.tEy (V/m) @ t=0.82
0
% es.tEz (V/m) @ t=0.82
-2.605533832086298
% V (V) @ t=0.82
0.013748626274030387
% es.normE (V/m) @ t=0.84
2.761131435978258
% es.EX (V/m) @ t=0.84
-0.8236914534101907
% es.EY (V/m) @ t=0.84
0.06151928006617716
% es.EZ (V/m) @ t=0.84
-2.6302573810859124
% es.tEX (V/m) @ t=0.84
-0.8236914534101984
% es.tEY (V/m) @ t=0.84
0
% es.tEZ (V/m) @ t=0.84
-2.6302573810859453
% es.Ex (V/m) @ t=0.84
-0.8236914534101907
% es.Ey (V/m) @ t=0.84
0.06151928006617716
% es.Ez (V/m) @ t=0.84
-2.6302573810859124
% es.tEx (V/m) @ t=0.84
-0.8236914534101984
% es.tEy (V/m) @ t=0.84
0
% es.tEz (V/m) @ t=0.84
-2.6302573810859453
% V (V) @ t=0.84
0.013879054007410851
% es.normE (V/m) @ t=0.86
2.7870853958471464
% es.EX (V/m) @ t=0.86
-0.8314345983709296
% es.EY (V/m) @ t=0.86
0.06209812624555301
% es.EZ (V/m) @ t=0.86
-2.6549809300855642
% es.tEX (V/m) @ t=0.86
-0.831434598370933
% es.tEY (V/m) @ t=0.86
0
% es.tEZ (V/m) @ t=0.86
-2.6549809300855927
% es.Ex (V/m) @ t=0.86
-0.8314345983709296
% es.Ey (V/m) @ t=0.86
0.06209812624555301
% es.Ez (V/m) @ t=0.86
-2.6549809300855642
% es.tEx (V/m) @ t=0.86
-0.831434598370933
% es.tEy (V/m) @ t=0.86
0
% es.tEz (V/m) @ t=0.86
-2.6549809300855927
% V (V) @ t=0.86
0.014009481740791316
% es.normE (V/m) @ t=0.88
2.8130393557163345
% es.EX (V/m) @ t=0.88
-0.8391777433316598
% es.EY (V/m) @ t=0.88
0.06267697242495728
% es.EZ (V/m) @ t=0.88
-2.6797044790852222
% es.tEX (V/m) @ t=0.88
-0.8391777433316676
% es.tEY (V/m) @ t=0.88
0
% es.tEZ (V/m) @ t=0.88
-2.6797044790852524
% es.Ex (V/m) @ t=0.88
-0.8391777433316598
% es.Ey (V/m) @ t=0.88
0.06267697242495728
% es.Ez (V/m) @ t=0.88
-2.6797044790852222
% es.tEx (V/m) @ t=0.88
-0.8391777433316676
% es.tEy (V/m) @ t=0.88
0
% es.tEz (V/m) @ t=0.88
-2.6797044790852524
% V (V) @ t=0.88
0.014139909474171779
% es.normE (V/m) @ t=0.9
2.838993315585822
% es.EX (V/m) @ t=0.9
-0.8469208882923951
% es.EY (V/m) @ t=0.9
0.06325581860432074
% es.EZ (V/m) @ t=0.9
-2.7044280280848945
% es.tEX (V/m) @ t=0.9
-0.8469208882924022
% es.tEY (V/m) @ t=0.9
0
% es.tEZ (V/m) @ t=0.9
-2.7044280280849406
% es.Ex (V/m) @ t=0.9
-0.8469208882923951
% es.Ey (V/m) @ t=0.9
0.06325581860432074
% es.Ez (V/m) @ t=0.9
-2.7044280280848945
% es.tEx (V/m) @ t=0.9
-0.8469208882924022
% es.tEy (V/m) @ t=0.9
0
% es.tEz (V/m) @ t=0.9
-2.7044280280849406
% V (V) @ t=0.9
0.014270337207552242
% es.normE (V/m) @ t=0.92
2.8649472754555845
% es.EX (V/m) @ t=0.92
-0.8546640332531361
% es.EY (V/m) @ t=0.92
0.06383466478371025
% es.EZ (V/m) @ t=0.92
-2.7291515770845587
% es.tEX (V/m) @ t=0.92
-0.8546640332531439
% es.tEY (V/m) @ t=0.92
0
% es.tEZ (V/m) @ t=0.92
-2.729151577084602
% es.Ex (V/m) @ t=0.92
-0.8546640332531361
% es.Ey (V/m) @ t=0.92
0.06383466478371025
% es.Ez (V/m) @ t=0.92
-2.7291515770845587
% es.tEx (V/m) @ t=0.92
-0.8546640332531439
% es.tEy (V/m) @ t=0.92
0
% es.tEz (V/m) @ t=0.92
-2.729151577084602
% V (V) @ t=0.92
0.014400764940932703
% es.normE (V/m) @ t=0.94
2.890901235325618
% es.EX (V/m) @ t=0.94
-0.8624071782138678
% es.EY (V/m) @ t=0.94
0.06441351096309679
% es.EZ (V/m) @ t=0.94
-2.7538751260842247
% es.tEX (V/m) @ t=0.94
-0.8624071782138714
% es.tEY (V/m) @ t=0.94
0
% es.tEZ (V/m) @ t=0.94
-2.753875126084248
% es.Ex (V/m) @ t=0.94
-0.8624071782138678
% es.Ey (V/m) @ t=0.94
0.06441351096309679
% es.Ez (V/m) @ t=0.94
-2.7538751260842247
% es.tEx (V/m) @ t=0.94
-0.8624071782138714
% es.tEy (V/m) @ t=0.94
0
% es.tEz (V/m) @ t=0.94
-2.753875126084248
% V (V) @ t=0.94
0.014531192674313168
% es.normE (V/m) @ t=0.96
2.9168551951959056
% es.EX (V/m) @ t=0.96
-0.8701503231746139
% es.EY (V/m) @ t=0.96
0.06499235714247617
% es.EZ (V/m) @ t=0.96
-2.7785986750838747
% es.tEX (V/m) @ t=0.96
-0.8701503231746202
% es.tEY (V/m) @ t=0.96
0
% es.tEZ (V/m) @ t=0.96
-2.778598675083895
% es.Ex (V/m) @ t=0.96
-0.8701503231746139
% es.Ey (V/m) @ t=0.96
0.06499235714247617
% es.Ez (V/m) @ t=0.96
-2.7785986750838747
% es.tEx (V/m) @ t=0.96
-0.8701503231746202
% es.tEy (V/m) @ t=0.96
0
% es.tEz (V/m) @ t=0.96
-2.778598675083895
% V (V) @ t=0.96
0.014661620407693633
% es.normE (V/m) @ t=0.98
2.942809155066461
% es.EX (V/m) @ t=0.98
-0.8778934681353439
% es.EY (V/m) @ t=0.98
0.06557120332185738
% es.EZ (V/m) @ t=0.98
-2.8033222240835407
% es.tEX (V/m) @ t=0.98
-0.8778934681353618
% es.tEY (V/m) @ t=0.98
0
% es.tEZ (V/m) @ t=0.98
-2.8033222240835567
% es.Ex (V/m) @ t=0.98
-0.8778934681353439
% es.Ey (V/m) @ t=0.98
0.06557120332185738
% es.Ez (V/m) @ t=0.98
-2.8033222240835407
% es.tEx (V/m) @ t=0.98
-0.8778934681353618
% es.tEy (V/m) @ t=0.98
0
% es.tEz (V/m) @ t=0.98
-2.8033222240835567
% V (V) @ t=0.98
0.014792048141074097
% es.normE (V/m) @ t=1
2.9687631149372526
% es.EX (V/m) @ t=1
-0.885636613096076
% es.EY (V/m) @ t=1
0.06615004950124556
% es.EZ (V/m) @ t=1
-2.8280457730831907
% es.tEX (V/m) @ t=1
-0.8856366130960822
% es.tEY (V/m) @ t=1
0
% es.tEZ (V/m) @ t=1
-2.8280457730832165
% es.Ex (V/m) @ t=1
-0.885636613096076
% es.Ey (V/m) @ t=1
0.06615004950124556
% es.Ez (V/m) @ t=1
-2.8280457730831907
% es.tEx (V/m) @ t=1
-0.8856366130960822
% es.tEy (V/m) @ t=1
0
% es.tEz (V/m) @ t=1
-2.8280457730832165
% V (V) @ t=1
0.01492247587445456
% es.normE (V/m) @ t=1.02
2.994717074808319
% es.EX (V/m) @ t=1.02
-0.8933797580568184
% es.EY (V/m) @ t=1.02
0.06672889568062634
% es.EZ (V/m) @ t=1.02
-2.85276932208287
% es.tEX (V/m) @ t=1.02
-0.893379758056831
% es.tEY (V/m) @ t=1.02
0
% es.tEZ (V/m) @ t=1.02
-2.8527693220828905
% es.Ex (V/m) @ t=1.02
-0.8933797580568184
% es.Ey (V/m) @ t=1.02
0.06672889568062634
% es.Ez (V/m) @ t=1.02
-2.85276932208287
% es.tEx (V/m) @ t=1.02
-0.893379758056831
% es.tEy (V/m) @ t=1.02
0
% es.tEz (V/m) @ t=1.02
-2.8527693220828905
% V (V) @ t=1.02
0.01505290360783502
% es.normE (V/m) @ t=1.04