% Model:              1 neuron.mph
% Version:            COMSOL 6.1.0.252
% Date:               Mar 22 2023, 20:04
% Dimension:          0
% Nodes:              14017
% Expressions:        14017
% Description:        Electric field norm, Electric field, X component, Electric field, Y component, Electric field, Z component, Tangential electric field, X component, Tangential electric field, Y component, Tangential electric field, Z component, Electric field, x component, Electric field, y component, Electric field, z component, Tangential electric field, x component, Tangential electric field, y component, Tangential electric field, z component, Electric potential
% Length unit:        mm
% x
2
% y
12.199999999999998
% z
2
% es.normE (V/m) @ t=0
1.1112247037974254
% es.EX (V/m) @ t=0
-0.7955338253611806
% es.EY (V/m) @ t=0
0.3029671768659463
% es.EZ (V/m) @ t=0
-0.7098936326644996
% es.tEX (V/m) @ t=0
-0.7955338253611828
% es.tEY (V/m) @ t=0
0
% es.tEZ (V/m) @ t=0
-0.7098936326645013
% es.Ex (V/m) @ t=0
-0.7955338253611806
% es.Ey (V/m) @ t=0
0.3029671768659463
% es.Ez (V/m) @ t=0
-0.7098936326644996
% es.tEx (V/m) @ t=0
-0.7955338253611828
% es.tEy (V/m) @ t=0
0
% es.tEz (V/m) @ t=0
-0.7098936326645013
% V (V) @ t=0
0.011308710875336553
% es.normE (V/m) @ t=0.02
0.959782110137097
% es.EX (V/m) @ t=0.02
-0.6871149740916696
% es.EY (V/m) @ t=0.02
0.2616774766359353
% es.EZ (V/m) @ t=0.02
-0.6131462037860427
% es.tEX (V/m) @ t=0.02
-0.6871149740916715
% es.tEY (V/m) @ t=0.02
0
% es.tEZ (V/m) @ t=0.02
-0.6131462037860462
% es.Ex (V/m) @ t=0.02
-0.6871149740916696
% es.Ey (V/m) @ t=0.02
0.2616774766359353
% es.Ez (V/m) @ t=0.02
-0.6131462037860427
% es.tEx (V/m) @ t=0.02
-0.6871149740916715
% es.tEy (V/m) @ t=0.02
0
% es.tEz (V/m) @ t=0.02
-0.6131462037860462
% V (V) @ t=0.02
0.009767509976088924
% es.normE (V/m) @ t=0.04
0.9686169003513143
% es.EX (V/m) @ t=0.04
-0.693439864464906
% es.EY (V/m) @ t=0.04
0.2640862167882081
% es.EZ (V/m) @ t=0.04
-0.6187902119371409
% es.tEX (V/m) @ t=0.04
-0.6934398644649078
% es.tEY (V/m) @ t=0.04
0
% es.tEZ (V/m) @ t=0.04
-0.618790211937144
% es.Ex (V/m) @ t=0.04
-0.693439864464906
% es.Ey (V/m) @ t=0.04
0.2640862167882081
% es.Ez (V/m) @ t=0.04
-0.6187902119371409
% es.tEx (V/m) @ t=0.04
-0.6934398644649078
% es.tEy (V/m) @ t=0.04
0
% es.tEz (V/m) @ t=0.04
-0.618790211937144
% V (V) @ t=0.04
0.009857419859879951
% es.normE (V/m) @ t=0.06
0.9775228166994527
% es.EX (V/m) @ t=0.06
-0.6998156746537532
% es.EY (V/m) @ t=0.06
0.26651434846543776
% es.EZ (V/m) @ t=0.06
-0.6244796583785157
% es.tEX (V/m) @ t=0.06
-0.6998156746537538
% es.tEY (V/m) @ t=0.06
0
% es.tEZ (V/m) @ t=0.06
-0.6244796583785188
% es.Ex (V/m) @ t=0.06
-0.6998156746537532
% es.Ey (V/m) @ t=0.06
0.26651434846543776
% es.Ez (V/m) @ t=0.06
-0.6244796583785157
% es.tEx (V/m) @ t=0.06
-0.6998156746537538
% es.tEy (V/m) @ t=0.06
0
% es.tEz (V/m) @ t=0.06
-0.6244796583785188
% V (V) @ t=0.06
0.00994805360291617
% es.normE (V/m) @ t=0.08
0.9865844690656149
% es.EX (V/m) @ t=0.08
-0.7063029773280032
% es.EY (V/m) @ t=0.08
0.2689849407046512
% es.EZ (V/m) @ t=0.08
-0.63026859496865
% es.tEX (V/m) @ t=0.08
-0.7063029773279985
% es.tEY (V/m) @ t=0.08
0
% es.tEZ (V/m) @ t=0.08
-0.6302685949686522
% es.Ex (V/m) @ t=0.08
-0.7063029773280032
% es.Ey (V/m) @ t=0.08
0.2689849407046512
% es.Ez (V/m) @ t=0.08
-0.63026859496865
% es.tEx (V/m) @ t=0.08
-0.7063029773279985
% es.tEy (V/m) @ t=0.08
0
% es.tEz (V/m) @ t=0.08
-0.6302685949686522
% V (V) @ t=0.08
0.01004027222572983
% es.normE (V/m) @ t=0.1
0.9957132756732812
% es.EX (V/m) @ t=0.1
-0.7128383561851719
% es.EY (V/m) @ t=0.1
0.2714738421755285
% es.EZ (V/m) @ t=0.1
-0.6361004322670691
% es.tEX (V/m) @ t=0.1
-0.7128383561851761
% es.tEY (V/m) @ t=0.1
0
% es.tEZ (V/m) @ t=0.1
-0.6361004322670691
% es.Ex (V/m) @ t=0.1
-0.7128383561851719
% es.Ey (V/m) @ t=0.1
0.2714738421755285
% es.Ez (V/m) @ t=0.1
-0.6361004322670691
% es.tEx (V/m) @ t=0.1
-0.7128383561851761
% es.tEy (V/m) @ t=0.1
0
% es.tEz (V/m) @ t=0.1
-0.6361004322670691
% V (V) @ t=0.1
0.010133174257562553
% es.normE (V/m) @ t=0.12
1.0048420822809392
% es.EX (V/m) @ t=0.12
-0.7193737350423475
% es.EY (V/m) @ t=0.12
0.2739627436464058
% es.EZ (V/m) @ t=0.12
-0.6419322695654692
% es.tEX (V/m) @ t=0.12
-0.7193737350423466
% es.tEY (V/m) @ t=0.12
0
% es.tEZ (V/m) @ t=0.12
-0.641932269565471
% es.Ex (V/m) @ t=0.12
-0.7193737350423475
% es.Ey (V/m) @ t=0.12
0.2739627436464058
% es.Ez (V/m) @ t=0.12
-0.6419322695654692
% es.tEx (V/m) @ t=0.12
-0.7193737350423466
% es.tEy (V/m) @ t=0.12
0
% es.tEz (V/m) @ t=0.12
-0.641932269565471
% V (V) @ t=0.12
0.010226076289395276
% es.normE (V/m) @ t=0.14
1.0141625095461273
% es.EX (V/m) @ t=0.14
-0.7260462965290035
% es.EY (V/m) @ t=0.14
0.2765038890137592
% es.EZ (V/m) @ t=0.14
-0.6478865216219258
% es.tEX (V/m) @ t=0.14
-0.7260462965290024
% es.tEY (V/m) @ t=0.14
0
% es.tEZ (V/m) @ t=0.14
-0.6478865216219223
% es.Ex (V/m) @ t=0.14
-0.7260462965290035
% es.Ey (V/m) @ t=0.14
0.2765038890137592
% es.Ez (V/m) @ t=0.14
-0.6478865216219258
% es.tEx (V/m) @ t=0.14
-0.7260462965290024
% es.tEy (V/m) @ t=0.14
0
% es.tEz (V/m) @ t=0.14
-0.6478865216219223
% V (V) @ t=0.14
0.010320928409444999
% es.normE (V/m) @ t=0.16
1.0237620513608434
% es.EX (V/m) @ t=0.16
-0.7329186781620216
% es.EY (V/m) @ t=0.16
0.2791211328134089
% es.EZ (V/m) @ t=0.16
-0.6540190829509154
% es.tEX (V/m) @ t=0.16
-0.7329186781620236
% es.tEY (V/m) @ t=0.16
0
% es.tEZ (V/m) @ t=0.16
-0.6540190829509172
% es.Ex (V/m) @ t=0.16
-0.7329186781620216
% es.Ey (V/m) @ t=0.16
0.2791211328134089
% es.Ez (V/m) @ t=0.16
-0.6540190829509154
% es.tEx (V/m) @ t=0.16
-0.7329186781620236
% es.tEy (V/m) @ t=0.16
0
% es.tEz (V/m) @ t=0.16
-0.6540190829509172
% V (V) @ t=0.16
0.010418621026971844
% es.normE (V/m) @ t=0.18
1.03336159317558
% es.EX (V/m) @ t=0.18
-0.7397910597950581
% es.EY (V/m) @ t=0.18
0.2817383766130648
% es.EZ (V/m) @ t=0.18
-0.6601516442799138
% es.tEX (V/m) @ t=0.18
-0.7397910597950581
% es.tEY (V/m) @ t=0.18
0
% es.tEZ (V/m) @ t=0.18
-0.6601516442799138
% es.Ex (V/m) @ t=0.18
-0.7397910597950581
% es.Ey (V/m) @ t=0.18
0.2817383766130648
% es.Ez (V/m) @ t=0.18
-0.6601516442799138
% es.tEx (V/m) @ t=0.18
-0.7397910597950581
% es.tEy (V/m) @ t=0.18
0
% es.tEz (V/m) @ t=0.18
-0.6601516442799138
% V (V) @ t=0.18
0.010516313644498693
% es.normE (V/m) @ t=0.2
1.0429611349903158
% es.EX (V/m) @ t=0.2
-0.7466634414280857
% es.EY (V/m) @ t=0.2
0.28435562041273665
% es.EZ (V/m) @ t=0.2
-0.666284205608914
% es.tEX (V/m) @ t=0.2
-0.7466634414280757
% es.tEY (V/m) @ t=0.2
0
% es.tEZ (V/m) @ t=0.2
-0.6662842056089247
% es.Ex (V/m) @ t=0.2
-0.7466634414280857
% es.Ey (V/m) @ t=0.2
0.28435562041273665
% es.Ez (V/m) @ t=0.2
-0.666284205608914
% es.tEx (V/m) @ t=0.2
-0.7466634414280757
% es.tEy (V/m) @ t=0.2
0
% es.tEz (V/m) @ t=0.2
-0.6662842056089247
% V (V) @ t=0.2
0.010614006262025537
% es.normE (V/m) @ t=0.22
1.0525606768050335
% es.EX (V/m) @ t=0.22
-0.7535358230611036
% es.EY (V/m) @ t=0.22
0.28697286421237855
% es.EZ (V/m) @ t=0.22
-0.6724167669379097
% es.tEX (V/m) @ t=0.22
-0.7535358230611107
% es.tEY (V/m) @ t=0.22
0
% es.tEZ (V/m) @ t=0.22
-0.6724167669379053
% es.Ex (V/m) @ t=0.22
-0.7535358230611036
% es.Ey (V/m) @ t=0.22
0.28697286421237855
% es.Ez (V/m) @ t=0.22
-0.6724167669379097
% es.tEx (V/m) @ t=0.22
-0.7535358230611107
% es.tEy (V/m) @ t=0.22
0
% es.tEz (V/m) @ t=0.22
-0.6724167669379053
% V (V) @ t=0.22
0.010711698879552383
% es.normE (V/m) @ t=0.24
1.0621602186197565
% es.EX (V/m) @ t=0.24
-0.7604082046941285
% es.EY (V/m) @ t=0.24
0.28959010801203466
% es.EZ (V/m) @ t=0.24
-0.6785493282668993
% es.tEX (V/m) @ t=0.24
-0.7604082046941256
% es.tEY (V/m) @ t=0.24
0
% es.tEZ (V/m) @ t=0.24
-0.6785493282669037
% es.Ex (V/m) @ t=0.24
-0.7604082046941285
% es.Ey (V/m) @ t=0.24
0.28959010801203466
% es.Ez (V/m) @ t=0.24
-0.6785493282668993
% es.tEx (V/m) @ t=0.24
-0.7604082046941256
% es.tEy (V/m) @ t=0.24
0
% es.tEz (V/m) @ t=0.24
-0.6785493282669037
% V (V) @ t=0.24
0.010809391497079228
% es.normE (V/m) @ t=0.26
1.0717597604344882
% es.EX (V/m) @ t=0.26
-0.7672805863271659
% es.EY (V/m) @ t=0.26
0.2922073518117003
% es.EZ (V/m) @ t=0.26
-0.6846818895958826
% es.tEX (V/m) @ t=0.26
-0.7672805863271606
% es.tEY (V/m) @ t=0.26
0
% es.tEZ (V/m) @ t=0.26
-0.6846818895958862
% es.Ex (V/m) @ t=0.26
-0.7672805863271659
% es.Ey (V/m) @ t=0.26
0.2922073518117003
% es.Ez (V/m) @ t=0.26
-0.6846818895958826
% es.tEx (V/m) @ t=0.26
-0.7672805863271606
% es.tEy (V/m) @ t=0.26
0
% es.tEz (V/m) @ t=0.26
-0.6846818895958862
% V (V) @ t=0.26
0.010907084114606076
% es.normE (V/m) @ t=0.28
1.0822280193073075
% es.EX (V/m) @ t=0.28
-0.7747748878121676
% es.EY (V/m) @ t=0.28
0.295061449468919
% es.EZ (V/m) @ t=0.28
-0.6913694198933564
% es.tEX (V/m) @ t=0.28
-0.7747748878121659
% es.tEY (V/m) @ t=0.28
0
% es.tEZ (V/m) @ t=0.28
-0.6913694198933609
% es.Ex (V/m) @ t=0.28
-0.7747748878121676
% es.Ey (V/m) @ t=0.28
0.295061449468919
% es.Ez (V/m) @ t=0.28
-0.6913694198933564
% es.tEx (V/m) @ t=0.28
-0.7747748878121659
% es.tEy (V/m) @ t=0.28
0
% es.tEz (V/m) @ t=0.28
-0.6913694198933609
% V (V) @ t=0.28
0.011013617361038444
% es.normE (V/m) @ t=0.3
1.0928821147668497
% es.EX (V/m) @ t=0.3
-0.7824022308455583
% es.EY (V/m) @ t=0.3
0.2979662150760969
% es.EZ (V/m) @ t=0.3
-0.698175669557358
% es.tEX (V/m) @ t=0.3
-0.7824022308455576
% es.tEY (V/m) @ t=0.3
0
% es.tEZ (V/m) @ t=0.3
-0.698175669557358
% es.Ex (V/m) @ t=0.3
-0.7824022308455583
% es.Ey (V/m) @ t=0.3
0.2979662150760969
% es.Ez (V/m) @ t=0.3
-0.698175669557358
% es.tEx (V/m) @ t=0.3
-0.7824022308455576
% es.tEy (V/m) @ t=0.3
0
% es.tEz (V/m) @ t=0.3
-0.698175669557358
% V (V) @ t=0.3
0.011122041801254747
% es.normE (V/m) @ t=0.32
1.103536210226389
% es.EX (V/m) @ t=0.32
-0.7900295738789467
% es.EY (V/m) @ t=0.32
0.30087098068327167
% es.EZ (V/m) @ t=0.32
-0.7049819192213578
% es.tEX (V/m) @ t=0.32
-0.7900295738789489
% es.tEY (V/m) @ t=0.32
0
% es.tEZ (V/m) @ t=0.32
-0.7049819192213622
% es.Ex (V/m) @ t=0.32
-0.7900295738789467
% es.Ey (V/m) @ t=0.32
0.30087098068327167
% es.Ez (V/m) @ t=0.32
-0.7049819192213578
% es.tEx (V/m) @ t=0.32
-0.7900295738789489
% es.tEy (V/m) @ t=0.32
0
% es.tEz (V/m) @ t=0.32
-0.7049819192213622
% V (V) @ t=0.32
0.011230466241471053
% es.normE (V/m) @ t=0.34
1.1141903056859295
% es.EX (V/m) @ t=0.34
-0.7976569169123333
% es.EY (V/m) @ t=0.34
0.30377574629045556
% es.EZ (V/m) @ t=0.34
-0.7117881688853576
% es.tEX (V/m) @ t=0.34
-0.7976569169123229
% es.tEY (V/m) @ t=0.34
0
% es.tEZ (V/m) @ t=0.34
-0.7117881688853664
% es.Ex (V/m) @ t=0.34
-0.7976569169123333
% es.Ey (V/m) @ t=0.34
0.30377574629045556
% es.Ez (V/m) @ t=0.34
-0.7117881688853576
% es.tEx (V/m) @ t=0.34
-0.7976569169123229
% es.tEy (V/m) @ t=0.34
0
% es.tEz (V/m) @ t=0.34
-0.7117881688853664
% V (V) @ t=0.34
0.011338890681687355
% es.normE (V/m) @ t=0.36
1.1248444011454908
% es.EX (V/m) @ t=0.36
-0.8052842599457284
% es.EY (V/m) @ t=0.36
0.3066805118976563
% es.EZ (V/m) @ t=0.36
-0.7185944185493724
% es.tEX (V/m) @ t=0.36
-0.8052842599457182
% es.tEY (V/m) @ t=0.36
0
% es.tEZ (V/m) @ t=0.36
-0.718594418549376
% es.Ex (V/m) @ t=0.36
-0.8052842599457284
% es.Ey (V/m) @ t=0.36
0.3066805118976563
% es.Ez (V/m) @ t=0.36
-0.7185944185493724
% es.tEx (V/m) @ t=0.36
-0.8052842599457182
% es.tEy (V/m) @ t=0.36
0
% es.tEz (V/m) @ t=0.36
-0.718594418549376
% V (V) @ t=0.36
0.011447315121903657
% es.normE (V/m) @ t=0.38
1.1354984966050097
% es.EX (V/m) @ t=0.38
-0.812911602979103
% es.EY (V/m) @ t=0.38
0.30958527750482
% es.EZ (V/m) @ t=0.38
-0.7254006682133598
% es.tEX (V/m) @ t=0.38
-0.8129116029791033
% es.tEY (V/m) @ t=0.38
0
% es.tEZ (V/m) @ t=0.38
-0.7254006682133589
% es.Ex (V/m) @ t=0.38
-0.812911602979103
% es.Ey (V/m) @ t=0.38
0.30958527750482
% es.Ez (V/m) @ t=0.38
-0.7254006682133598
% es.tEx (V/m) @ t=0.38
-0.8129116029791033
% es.tEy (V/m) @ t=0.38
0
% es.tEz (V/m) @ t=0.38
-0.7254006682133589
% V (V) @ t=0.38
0.01155573956211996
% es.normE (V/m) @ t=0.4
1.1461525920645612
% es.EX (V/m) @ t=0.4
-0.8205389460124946
% es.EY (V/m) @ t=0.4
0.31249004311201567
% es.EZ (V/m) @ t=0.4
-0.7322069178773685
% es.tEX (V/m) @ t=0.4
-0.8205389460124972
% es.tEY (V/m) @ t=0.4
0
% es.tEZ (V/m) @ t=0.4
-0.7322069178773685
% es.Ex (V/m) @ t=0.4
-0.8205389460124946
% es.Ey (V/m) @ t=0.4
0.31249004311201567
% es.Ez (V/m) @ t=0.4
-0.7322069178773685
% es.tEx (V/m) @ t=0.4
-0.8205389460124972
% es.tEy (V/m) @ t=0.4
0
% es.tEz (V/m) @ t=0.4
-0.7322069178773685
% V (V) @ t=0.4
0.011664164002336264
% es.normE (V/m) @ t=0.42
1.1568066875240945
% es.EX (V/m) @ t=0.42
-0.8281662890458825
% es.EY (V/m) @ t=0.42
0.31539480871919645
% es.EZ (V/m) @ t=0.42
-0.7390131675413558
% es.tEX (V/m) @ t=0.42
-0.8281662890458903
% es.tEY (V/m) @ t=0.42
0
% es.tEZ (V/m) @ t=0.42
-0.7390131675413603
% es.Ex (V/m) @ t=0.42
-0.8281662890458825
% es.Ey (V/m) @ t=0.42
0.31539480871919645
% es.Ez (V/m) @ t=0.42
-0.7390131675413558
% es.tEx (V/m) @ t=0.42
-0.8281662890458903
% es.tEy (V/m) @ t=0.42
0
% es.tEz (V/m) @ t=0.42
-0.7390131675413603
% V (V) @ t=0.42
0.011772588442552568
% es.normE (V/m) @ t=0.44
1.1674607829836443
% es.EX (V/m) @ t=0.44
-0.8357936320792765
% es.EY (V/m) @ t=0.44
0.318299574326391
% es.EZ (V/m) @ t=0.44
-0.7458194172053574
% es.tEX (V/m) @ t=0.44
-0.835793632079278
% es.tEY (V/m) @ t=0.44
0
% es.tEZ (V/m) @ t=0.44
-0.7458194172053645
% es.Ex (V/m) @ t=0.44
-0.8357936320792765
% es.Ey (V/m) @ t=0.44
0.318299574326391
% es.Ez (V/m) @ t=0.44
-0.7458194172053574
% es.tEx (V/m) @ t=0.44
-0.835793632079278
% es.tEy (V/m) @ t=0.44
0
% es.tEz (V/m) @ t=0.44
-0.7458194172053645
% V (V) @ t=0.44
0.011881012882768872
% es.normE (V/m) @ t=0.46
1.1781148784431932
% es.EX (V/m) @ t=0.46
-0.8434209751126638
% es.EY (V/m) @ t=0.46
0.3212043399335567
% es.EZ (V/m) @ t=0.46
-0.7526256668693767
% es.tEX (V/m) @ t=0.46
-0.8434209751126613
% es.tEY (V/m) @ t=0.46
0
% es.tEZ (V/m) @ t=0.46
-0.752625666869374
% es.Ex (V/m) @ t=0.46
-0.8434209751126638
% es.Ey (V/m) @ t=0.46
0.3212043399335567
% es.Ez (V/m) @ t=0.46
-0.7526256668693767
% es.tEx (V/m) @ t=0.46
-0.8434209751126613
% es.tEy (V/m) @ t=0.46
0
% es.tEz (V/m) @ t=0.46
-0.752625666869374
% V (V) @ t=0.46
0.011989437322985174
% es.normE (V/m) @ t=0.48
1.1887689739027265
% es.EX (V/m) @ t=0.48
-0.8510483181460422
% es.EY (V/m) @ t=0.48
0.3241091055407499
% es.EZ (V/m) @ t=0.48
-0.7594319165333703
% es.tEX (V/m) @ t=0.48
-0.8510483181460402
% es.tEY (V/m) @ t=0.48
0
% es.tEZ (V/m) @ t=0.48
-0.7594319165333729
% es.Ex (V/m) @ t=0.48
-0.8510483181460422
% es.Ey (V/m) @ t=0.48
0.3241091055407499
% es.Ez (V/m) @ t=0.48
-0.7594319165333703
% es.tEx (V/m) @ t=0.48
-0.8510483181460402
% es.tEy (V/m) @ t=0.48
0
% es.tEz (V/m) @ t=0.48
-0.7594319165333729
% V (V) @ t=0.48
0.012097861763201476
% es.normE (V/m) @ t=0.5
1.199423069362274
% es.EX (V/m) @ t=0.5
-0.8586756611794335
% es.EY (V/m) @ t=0.5
0.32701387114793024
% es.EZ (V/m) @ t=0.5
-0.7662381661973772
% es.tEX (V/m) @ t=0.5
-0.8586756611794315
% es.tEY (V/m) @ t=0.5
0
% es.tEZ (V/m) @ t=0.5
-0.7662381661973772
% es.Ex (V/m) @ t=0.5
-0.8586756611794335
% es.Ey (V/m) @ t=0.5
0.32701387114793024
% es.Ez (V/m) @ t=0.5
-0.7662381661973772
% es.tEx (V/m) @ t=0.5
-0.8586756611794315
% es.tEy (V/m) @ t=0.5
0
% es.tEz (V/m) @ t=0.5
-0.7662381661973772
% V (V) @ t=0.5
0.012206286203417778
% es.normE (V/m) @ t=0.52
1.2100771648218194
% es.EX (V/m) @ t=0.52
-0.8663030042128257
% es.EY (V/m) @ t=0.52
0.32991863675513367
% es.EZ (V/m) @ t=0.52
-0.7730444158613681
% es.tEX (V/m) @ t=0.52
-0.8663030042128201
% es.tEY (V/m) @ t=0.52
0
% es.tEZ (V/m) @ t=0.52
-0.7730444158613725
% es.Ex (V/m) @ t=0.52
-0.8663030042128257
% es.Ey (V/m) @ t=0.52
0.32991863675513367
% es.Ez (V/m) @ t=0.52
-0.7730444158613681
% es.tEx (V/m) @ t=0.52
-0.8663030042128201
% es.tEy (V/m) @ t=0.52
0
% es.tEz (V/m) @ t=0.52
-0.7730444158613725
% V (V) @ t=0.52
0.012314710643634083
% es.normE (V/m) @ t=0.54
1.2215134233788993
% es.EX (V/m) @ t=0.54
-0.8744903040515217
% es.EY (V/m) @ t=0.54
0.3330366506183693
% es.EZ (V/m) @ t=0.54
-0.7803503425836347
% es.tEX (V/m) @ t=0.54
-0.8744903040515228
% es.tEY (V/m) @ t=0.54
0
% es.tEZ (V/m) @ t=0.54
-0.78035034258364
% es.Ex (V/m) @ t=0.54
-0.8744903040515217
% es.Ey (V/m) @ t=0.54
0.3330366506183693
% es.Ez (V/m) @ t=0.54
-0.7803503425836347
% es.tEx (V/m) @ t=0.54
-0.8744903040515228
% es.tEy (V/m) @ t=0.54
0
% es.tEz (V/m) @ t=0.54
-0.78035034258364
% V (V) @ t=0.54
0.012431095099378226
% es.normE (V/m) @ t=0.56
1.23335766801398
% es.EX (V/m) @ t=0.56
-0.8829696843802914
% es.EY (V/m) @ t=0.56
0.33626589744559476
% es.EZ (V/m) @ t=0.56
-0.7879169071241483
% es.tEX (V/m) @ t=0.56
-0.8829696843802837
% es.tEY (V/m) @ t=0.56
0
% es.tEZ (V/m) @ t=0.56
-0.7879169071241474
% es.Ex (V/m) @ t=0.56
-0.8829696843802914
% es.Ey (V/m) @ t=0.56
0.33626589744559476
% es.Ez (V/m) @ t=0.56
-0.7879169071241483
% es.tEx (V/m) @ t=0.56
-0.8829696843802837
% es.tEy (V/m) @ t=0.56
0
% es.tEz (V/m) @ t=0.56
-0.7879169071241474
% V (V) @ t=0.56
0.012551631599019772
% es.normE (V/m) @ t=0.58
1.2452019126490619
% es.EX (V/m) @ t=0.58
-0.891449064709074
% es.EY (V/m) @ t=0.58
0.3394951442728247
% es.EZ (V/m) @ t=0.58
-0.7954834716646477
% es.tEX (V/m) @ t=0.58
-0.8914490647090698
% es.tEY (V/m) @ t=0.58
0
% es.tEZ (V/m) @ t=0.58
-0.7954834716646495
% es.Ex (V/m) @ t=0.58
-0.891449064709074
% es.Ey (V/m) @ t=0.58
0.3394951442728247
% es.Ez (V/m) @ t=0.58
-0.7954834716646477
% es.tEx (V/m) @ t=0.58
-0.8914490647090698
% es.tEy (V/m) @ t=0.58
0
% es.tEz (V/m) @ t=0.58
-0.7954834716646495
% V (V) @ t=0.58
0.01267216809866132
% es.normE (V/m) @ t=0.6
1.2570461572841434
% es.EX (V/m) @ t=0.6
-0.8999284450378495
% es.EY (V/m) @ t=0.6
0.34272439110006836
% es.EZ (V/m) @ t=0.6
-0.8030500362051471
% es.tEX (V/m) @ t=0.6
-0.8999284450378453
% es.tEY (V/m) @ t=0.6
0
% es.tEZ (V/m) @ t=0.6
-0.8030500362051516
% es.Ex (V/m) @ t=0.6
-0.8999284450378495
% es.Ey (V/m) @ t=0.6
0.34272439110006836
% es.Ez (V/m) @ t=0.6
-0.8030500362051471
% es.tEx (V/m) @ t=0.6
-0.8999284450378453
% es.tEy (V/m) @ t=0.6
0
% es.tEz (V/m) @ t=0.6
-0.8030500362051516
% V (V) @ t=0.6
0.012792704598302864
% es.normE (V/m) @ t=0.62
1.2688904019192146
% es.EX (V/m) @ t=0.62
-0.9084078253666157
% es.EY (V/m) @ t=0.62
0.34595363792728984
% es.EZ (V/m) @ t=0.62
-0.8106166007456528
% es.tEX (V/m) @ t=0.62
-0.9084078253666168
% es.tEY (V/m) @ t=0.62
0
% es.tEZ (V/m) @ t=0.62
-0.8106166007456519
% es.Ex (V/m) @ t=0.62
-0.9084078253666157
% es.Ey (V/m) @ t=0.62
0.34595363792728984
% es.Ez (V/m) @ t=0.62
-0.8106166007456528
% es.tEx (V/m) @ t=0.62
-0.9084078253666168
% es.tEy (V/m) @ t=0.62
0
% es.tEz (V/m) @ t=0.62
-0.8106166007456519
% V (V) @ t=0.62
0.012913241097944412
% es.normE (V/m) @ t=0.64
1.2807346465542893
% es.EX (V/m) @ t=0.64
-0.9168872056953856
% es.EY (V/m) @ t=0.64
0.34918288475451265
% es.EZ (V/m) @ t=0.64
-0.8181831652861575
% es.tEX (V/m) @ t=0.64
-0.9168872056953874
% es.tEY (V/m) @ t=0.64
0
% es.tEZ (V/m) @ t=0.64
-0.8181831652861593
% es.Ex (V/m) @ t=0.64
-0.9168872056953856
% es.Ey (V/m) @ t=0.64
0.34918288475451265
% es.Ez (V/m) @ t=0.64
-0.8181831652861575
% es.tEx (V/m) @ t=0.64
-0.9168872056953874
% es.tEy (V/m) @ t=0.64
0
% es.tEz (V/m) @ t=0.64
-0.8181831652861593
% V (V) @ t=0.64
0.013033777597585958
% es.normE (V/m) @ t=0.66
1.2925788911893767
% es.EX (V/m) @ t=0.66
-0.9253665860241631
% es.EY (V/m) @ t=0.66
0.35241213158173723
% es.EZ (V/m) @ t=0.66
-0.8257497298266729
% es.tEX (V/m) @ t=0.66
-0.9253665860241558
% es.tEY (V/m) @ t=0.66
0
% es.tEZ (V/m) @ t=0.66
-0.8257497298266685
% es.Ex (V/m) @ t=0.66
-0.9253665860241631
% es.Ey (V/m) @ t=0.66
0.35241213158173723
% es.Ez (V/m) @ t=0.66
-0.8257497298266729
% es.tEx (V/m) @ t=0.66
-0.9253665860241558
% es.tEy (V/m) @ t=0.66
0
% es.tEz (V/m) @ t=0.66
-0.8257497298266685
% V (V) @ t=0.66
0.013154314097227506
% es.normE (V/m) @ t=0.68
1.304423135824456
% es.EX (V/m) @ t=0.68
-0.9338459663529453
% es.EY (V/m) @ t=0.68
0.355641378408976
% es.EZ (V/m) @ t=0.68
-0.8333162943671635
% es.tEX (V/m) @ t=0.68
-0.933845966352945
% es.tEY (V/m) @ t=0.68
0
% es.tEZ (V/m) @ t=0.68
-0.8333162943671688
% es.Ex (V/m) @ t=0.68
-0.9338459663529453
% es.Ey (V/m) @ t=0.68
0.355641378408976
% es.Ez (V/m) @ t=0.68
-0.8333162943671635
% es.tEx (V/m) @ t=0.68
-0.933845966352945
% es.tEy (V/m) @ t=0.68
0
% es.tEz (V/m) @ t=0.68
-0.8333162943671688
% V (V) @ t=0.68
0.013274850596869052
% es.normE (V/m) @ t=0.7
1.3162673804595362
% es.EX (V/m) @ t=0.7
-0.9423253466817119
% es.EY (V/m) @ t=0.7
0.35887062523620905
% es.EZ (V/m) @ t=0.7
-0.8408828589076744
% es.tEX (V/m) @ t=0.7
-0.9423253466817099
% es.tEY (V/m) @ t=0.7
0
% es.tEZ (V/m) @ t=0.7
-0.8408828589076709
% es.Ex (V/m) @ t=0.7
-0.9423253466817119
% es.Ey (V/m) @ t=0.7
0.35887062523620905
% es.Ez (V/m) @ t=0.7
-0.8408828589076744
% es.tEx (V/m) @ t=0.7
-0.9423253466817099
% es.tEy (V/m) @ t=0.7
0
% es.tEz (V/m) @ t=0.7
-0.8408828589076709
% V (V) @ t=0.7
0.0133953870965106
% es.normE (V/m) @ t=0.72
1.3281116250946168
% es.EX (V/m) @ t=0.72
-0.9508047270105011
% es.EY (V/m) @ t=0.72
0.3620998720634234
% es.EZ (V/m) @ t=0.72
-0.8484494234481712
% es.tEX (V/m) @ t=0.72
-0.9508047270104956
% es.tEY (V/m) @ t=0.72
0
% es.tEZ (V/m) @ t=0.72
-0.8484494234481641
% es.Ex (V/m) @ t=0.72
-0.9508047270105011
% es.Ey (V/m) @ t=0.72
0.3620998720634234
% es.Ez (V/m) @ t=0.72
-0.8484494234481712
% es.tEx (V/m) @ t=0.72
-0.9508047270104956
% es.tEy (V/m) @ t=0.72
0
% es.tEz (V/m) @ t=0.72
-0.8484494234481641
% V (V) @ t=0.72
0.013515923596152144
% es.normE (V/m) @ t=0.74
1.3399558697296938
% es.EX (V/m) @ t=0.74
-0.9592841073392682
% es.EY (V/m) @ t=0.74
0.36532911889064446
% es.EZ (V/m) @ t=0.74
-0.8560159879886831
% es.tEX (V/m) @ t=0.74
-0.9592841073392671
% es.tEY (V/m) @ t=0.74
0
% es.tEZ (V/m) @ t=0.74
-0.8560159879886893
% es.Ex (V/m) @ t=0.74
-0.9592841073392682
% es.Ey (V/m) @ t=0.74
0.36532911889064446
% es.Ez (V/m) @ t=0.74
-0.8560159879886831
% es.tEx (V/m) @ t=0.74
-0.9592841073392671
% es.tEy (V/m) @ t=0.74
0
% es.tEz (V/m) @ t=0.74
-0.8560159879886893
% V (V) @ t=0.74
0.013636460095793689
% es.normE (V/m) @ t=0.76
1.35180011436478
% es.EX (V/m) @ t=0.76
-0.9677634876680361
% es.EY (V/m) @ t=0.76
0.36855836571790057
% es.EZ (V/m) @ t=0.76
-0.8635825525291958
% es.tEX (V/m) @ t=0.76
-0.9677634876680385
% es.tEY (V/m) @ t=0.76
0
% es.tEZ (V/m) @ t=0.76
-0.8635825525291967
% es.Ex (V/m) @ t=0.76
-0.9677634876680361
% es.Ey (V/m) @ t=0.76
0.36855836571790057
% es.Ez (V/m) @ t=0.76
-0.8635825525291958
% es.tEx (V/m) @ t=0.76
-0.9677634876680385
% es.tEy (V/m) @ t=0.76
0
% es.tEz (V/m) @ t=0.76
-0.8635825525291967
% V (V) @ t=0.76
0.013756996595435235
% es.normE (V/m) @ t=0.78
1.3636443589998564
% es.EX (V/m) @ t=0.78
-0.9762428679968223
% es.EY (V/m) @ t=0.78
0.37178761254512294
% es.EZ (V/m) @ t=0.78
-0.8711491170696855
% es.tEX (V/m) @ t=0.78
-0.9762428679968176
% es.tEY (V/m) @ t=0.78
0
% es.tEZ (V/m) @ t=0.78
-0.8711491170696846
% es.Ex (V/m) @ t=0.78
-0.9762428679968223
% es.Ey (V/m) @ t=0.78
0.37178761254512294
% es.Ez (V/m) @ t=0.78
-0.8711491170696855
% es.tEx (V/m) @ t=0.78
-0.9762428679968176
% es.tEy (V/m) @ t=0.78
0
% es.tEz (V/m) @ t=0.78
-0.8711491170696846
% V (V) @ t=0.78
0.013877533095076782
% es.normE (V/m) @ t=0.8
1.3761487347374377
% es.EX (V/m) @ t=0.8
-0.9851948411292601
% es.EY (V/m) @ t=0.8
0.3751968384894546
% es.EZ (V/m) @ t=0.8
-0.879137399286976
% es.tEX (V/m) @ t=0.8
-0.9851948411292639
% es.tEY (V/m) @ t=0.8
0
% es.tEZ (V/m) @ t=0.8
-0.8791373992869804
% es.Ex (V/m) @ t=0.8
-0.9851948411292601
% es.Ey (V/m) @ t=0.8
0.3751968384894546
% es.Ez (V/m) @ t=0.8
-0.879137399286976
% es.tEx (V/m) @ t=0.8
-0.9851948411292639
% es.tEy (V/m) @ t=0.8
0
% es.tEz (V/m) @ t=0.8
-0.8791373992869804
% V (V) @ t=0.8
0.01400478764024567
% es.normE (V/m) @ t=0.82
1.3893384886072853
% es.EX (V/m) @ t=0.82
-0.99463748160317
% es.EY (V/m) @ t=0.82
0.37879292693833566
% es.EZ (V/m) @ t=0.82
-0.8875635279753205
% es.tEX (V/m) @ t=0.82
-0.9946374816031707
% es.tEY (V/m) @ t=0.82
0
% es.tEZ (V/m) @ t=0.82
-0.8875635279753205
% es.Ex (V/m) @ t=0.82
-0.99463748160317
% es.Ey (V/m) @ t=0.82
0.37879292693833566
% es.Ez (V/m) @ t=0.82
-0.8875635279753205
% es.tEx (V/m) @ t=0.82
-0.9946374816031707
% es.tEy (V/m) @ t=0.82
0
% es.tEz (V/m) @ t=0.82
-0.8875635279753205
% V (V) @ t=0.82
0.014139017165806027
% es.normE (V/m) @ t=0.84
1.4025282424771217
% es.EX (V/m) @ t=0.84
-1.0040801220770816
% es.EY (V/m) @ t=0.84
0.3823890153872318
% es.EZ (V/m) @ t=0.84
-0.89598965666364
% es.tEX (V/m) @ t=0.84
-1.0040801220770779
% es.tEY (V/m) @ t=0.84
0
% es.tEZ (V/m) @ t=0.84
-0.8959896566636463
% es.Ex (V/m) @ t=0.84
-1.0040801220770816
% es.Ey (V/m) @ t=0.84
0.3823890153872318
% es.Ez (V/m) @ t=0.84
-0.89598965666364
% es.tEx (V/m) @ t=0.84
-1.0040801220770779
% es.tEy (V/m) @ t=0.84
0
% es.tEz (V/m) @ t=0.84
-0.8959896566636463
% V (V) @ t=0.84
0.014273246691366388
% es.normE (V/m) @ t=0.86
1.4157179963469553
% es.EX (V/m) @ t=0.86
-1.0135227625509915
% es.EY (V/m) @ t=0.86
0.38598510383610085
% es.EZ (V/m) @ t=0.86
-0.9044157853519703
% es.tEX (V/m) @ t=0.86
-1.0135227625509895
% es.tEY (V/m) @ t=0.86
0
% es.tEZ (V/m) @ t=0.86
-0.904415785351965
% es.Ex (V/m) @ t=0.86
-1.0135227625509915
% es.Ey (V/m) @ t=0.86
0.38598510383610085
% es.Ez (V/m) @ t=0.86
-0.9044157853519703
% es.tEx (V/m) @ t=0.86
-1.0135227625509895
% es.tEy (V/m) @ t=0.86
0
% es.tEz (V/m) @ t=0.86
-0.904415785351965
% V (V) @ t=0.86
0.014407476216926746
% es.normE (V/m) @ t=0.88
1.4289077502167986
% es.EX (V/m) @ t=0.88
-1.0229654030249173
% es.EY (V/m) @ t=0.88
0.3895811922849872
% es.EZ (V/m) @ t=0.88
-0.9128419140402873
% es.tEX (V/m) @ t=0.88
-1.0229654030249153
% es.tEY (V/m) @ t=0.88
0
% es.tEZ (V/m) @ t=0.88
-0.912841914040289
% es.Ex (V/m) @ t=0.88
-1.0229654030249173
% es.Ey (V/m) @ t=0.88
0.3895811922849872
% es.Ez (V/m) @ t=0.88
-0.9128419140402873
% es.tEx (V/m) @ t=0.88
-1.0229654030249153
% es.tEy (V/m) @ t=0.88
0
% es.tEz (V/m) @ t=0.88
-0.912841914040289
% V (V) @ t=0.88
0.014541705742487107
% es.normE (V/m) @ t=0.9
1.4420975040866366
% es.EX (V/m) @ t=0.9
-1.032408043498829
% es.EY (V/m) @ t=0.9
0.39317728073388336
% es.EZ (V/m) @ t=0.9
-0.9212680427286095
% es.tEX (V/m) @ t=0.9
-1.0324080434988225
% es.tEY (V/m) @ t=0.9
0
% es.tEZ (V/m) @ t=0.9
-0.9212680427286148
% es.Ex (V/m) @ t=0.9
-1.032408043498829
% es.Ey (V/m) @ t=0.9
0.39317728073388336
% es.Ez (V/m) @ t=0.9
-0.9212680427286095
% es.tEx (V/m) @ t=0.9
-1.0324080434988225
% es.tEy (V/m) @ t=0.9
0
% es.tEz (V/m) @ t=0.9
-0.9212680427286148
% V (V) @ t=0.9
0.014675935268047467
% es.normE (V/m) @ t=0.92
1.4552872579564675
% es.EX (V/m) @ t=0.92
-1.0418506839727362
% es.EY (V/m) @ t=0.92
0.3967733691827542
% es.EZ (V/m) @ t=0.92
-0.9296941714169389
% es.tEX (V/m) @ t=0.92
-1.0418506839727333
% es.tEY (V/m) @ t=0.92
0
% es.tEZ (V/m) @ t=0.92
-0.9296941714169389
% es.Ex (V/m) @ t=0.92
-1.0418506839727362
% es.Ey (V/m) @ t=0.92
0.3967733691827542
% es.Ez (V/m) @ t=0.92
-0.9296941714169389
% es.tEx (V/m) @ t=0.92
-1.0418506839727333
% es.tEy (V/m) @ t=0.92
0
% es.tEz (V/m) @ t=0.92
-0.9296941714169389
% V (V) @ t=0.92
0.014810164793607826
% es.normE (V/m) @ t=0.94
1.4684770118263044
% es.EX (V/m) @ t=0.94
-1.051293324446646
% es.EY (V/m) @ t=0.94
0.40036945763163967
% es.EZ (V/m) @ t=0.94
-0.9381203001052647
% es.tEX (V/m) @ t=0.94
-1.0512933244466414
% es.tEY (V/m) @ t=0.94
0
% es.tEZ (V/m) @ t=0.94
-0.93812030010527
% es.Ex (V/m) @ t=0.94
-1.051293324446646
% es.Ey (V/m) @ t=0.94
0.40036945763163967
% es.Ez (V/m) @ t=0.94
-0.9381203001052647
% es.tEx (V/m) @ t=0.94
-1.0512933244466414
% es.tEy (V/m) @ t=0.94
0
% es.tEz (V/m) @ t=0.94
-0.93812030010527
% V (V) @ t=0.94
0.014944394319168183
% es.normE (V/m) @ t=0.96
1.4816667656961438
% es.EX (V/m) @ t=0.96
-1.0607359649205719
% es.EY (V/m) @ t=0.96
0.4039655460805358
% es.EZ (V/m) @ t=0.96
-0.9465464287935728
% es.tEX (V/m) @ t=0.96
-1.0607359649205717
% es.tEY (V/m) @ t=0.96
0
% es.tEZ (V/m) @ t=0.96
-0.9465464287935887
% es.Ex (V/m) @ t=0.96
-1.0607359649205719
% es.Ey (V/m) @ t=0.96
0.4039655460805358
% es.Ez (V/m) @ t=0.96
-0.9465464287935728
% es.tEx (V/m) @ t=0.96
-1.0607359649205717
% es.tEy (V/m) @ t=0.96
0
% es.tEz (V/m) @ t=0.96
-0.9465464287935887
% V (V) @ t=0.96
0.01507862384472854
% es.normE (V/m) @ t=0.98
1.49485651956598
% es.EX (V/m) @ t=0.98
-1.0701786053944693
% es.EY (V/m) @ t=0.98
0.40756163452940397
% es.EZ (V/m) @ t=0.98
-0.9549725574819199
% es.tEX (V/m) @ t=0.98
-1.0701786053944744
% es.tEY (V/m) @ t=0.98
0
% es.tEZ (V/m) @ t=0.98
-0.9549725574819217
% es.Ex (V/m) @ t=0.98
-1.0701786053944693
% es.Ey (V/m) @ t=0.98
0.40756163452940397
% es.Ez (V/m) @ t=0.98
-0.9549725574819199
% es.tEx (V/m) @ t=0.98
-1.0701786053944744
% es.tEy (V/m) @ t=0.98
0
% es.tEz (V/m) @ t=0.98
-0.9549725574819217
% V (V) @ t=0.98
0.015212853370288902
% es.normE (V/m) @ t=1
1.5080462734358155
% es.EX (V/m) @ t=1
-1.079621245868384
% es.EY (V/m) @ t=1
0.41115772297829434
% es.EZ (V/m) @ t=1
-0.9633986861702368
% es.tEX (V/m) @ t=1
-1.0796212458683856
% es.tEY (V/m) @ t=1
0
% es.tEZ (V/m) @ t=1
-0.9633986861702457
% es.Ex (V/m) @ t=1
-1.079621245868384
% es.Ey (V/m) @ t=1
0.41115772297829434
% es.Ez (V/m) @ t=1
-0.9633986861702368
% es.tEx (V/m) @ t=1
-1.0796212458683856
% es.tEy (V/m) @ t=1
0
% es.tEz (V/m) @ t=1
-0.9633986861702457
% V (V) @ t=1
0.015347082895849263
% es.normE (V/m) @ t=1.02
1.5212360273056542
% es.EX (V/m) @ t=1.02
-1.0890638863423046
% es.EY (V/m) @ t=1.02
0.4147538114271825
% es.EZ (V/m) @ t=1.02
-0.9718248148585538
% es.tEX (V/m) @ t=1.02
-1.0890638863423017
% es.tEY (V/m) @ t=1.02
0
% es.tEZ (V/m) @ t=1.02
-0.9718248148585644
% es.Ex (V/m) @ t=1.02
-1.0890638863423046
% es.Ey (V/m) @ t=1.02
0.4147538114271825
% es.Ez (V/m) @ t=1.02
-0.9718248148585538
% es.tEx (V/m) @ t=1.02
-1.0890638863423017
% es.tEy (V/m) @ t=1.02
0
% es.tEz (V/m) @ t=1.02
-0.9718248148585644
% V (V) @ t=1.02
0.01548131242140962
% es.normE (V/m) @ t=1.04