% Model:              1x1--2 - Copy1.mph
% Version:            COMSOL 6.1.0.252
% Date:               Apr 3 2023, 14:43
% Dimension:          0
% Nodes:              14017
% Expressions:        14017
% Description:        Electric field norm, Electric field, X component, Electric field, Y component, Electric field, Z component, Tangential electric field, X component, Tangential electric field, Y component, Tangential electric field, Z component, Electric field, x component, Electric field, y component, Electric field, z component, Tangential electric field, x component, Tangential electric field, y component, Tangential electric field, z component, Electric potential
% Length unit:        mm
% x
1.66
% y
12.2
% z
2
% es.normE (V/m) @ t=0
0.31746448454372406
% es.EX (V/m) @ t=0
0.16026288359461205
% es.EY (V/m) @ t=0
0.12602821550112253
% es.EZ (V/m) @ t=0
-0.2107787156319465
% es.tEX (V/m) @ t=0
0.16026288359461516
% es.tEY (V/m) @ t=0
0
% es.tEZ (V/m) @ t=0
-0.21077871563194872
% es.Ex (V/m) @ t=0
0.16026288359461205
% es.Ey (V/m) @ t=0
0.12602821550112253
% es.Ez (V/m) @ t=0
-0.2107787156319465
% es.tEx (V/m) @ t=0
0.16026288359461516
% es.tEy (V/m) @ t=0
0
% es.tEz (V/m) @ t=0
-0.21077871563194872
% V (V) @ t=0
0.009200385280136803
% es.normE (V/m) @ t=0.1
0.3224040592459536
% es.EX (V/m) @ t=0.1
0.16275649092195943
% es.EY (V/m) @ t=0.1
0.12798913771819098
% es.EZ (V/m) @ t=0.1
-0.21405832241996392
% es.tEX (V/m) @ t=0.1
0.16275649092196076
% es.tEY (V/m) @ t=0.1
0
% es.tEZ (V/m) @ t=0.1
-0.2140583224199668
% es.Ex (V/m) @ t=0.1
0.16275649092195943
% es.Ey (V/m) @ t=0.1
0.12798913771819098
% es.Ez (V/m) @ t=0.1
-0.21405832241996392
% es.tEx (V/m) @ t=0.1
0.16275649092196076
% es.tEy (V/m) @ t=0.1
0
% es.tEz (V/m) @ t=0.1
-0.2140583224199668
% V (V) @ t=0.1
0.00934354015357916
% es.normE (V/m) @ t=0.2
0.3377479008187013
% es.EX (V/m) @ t=0.2
0.17050236399705687
% es.EY (V/m) @ t=0.2
0.13408044844427014
% es.EZ (V/m) @ t=0.2
-0.22424574619165982
% es.tEX (V/m) @ t=0.2
0.17050236399705998
% es.tEY (V/m) @ t=0.2
0
% es.tEZ (V/m) @ t=0.2
-0.2242457461916647
% es.Ex (V/m) @ t=0.2
0.17050236399705687
% es.Ey (V/m) @ t=0.2
0.13408044844427014
% es.Ez (V/m) @ t=0.2
-0.22424574619165982
% es.tEx (V/m) @ t=0.2
0.17050236399705998
% es.tEy (V/m) @ t=0.2
0
% es.tEz (V/m) @ t=0.2
-0.2242457461916647
% V (V) @ t=0.2
0.00978820467004395
% es.normE (V/m) @ t=0.3
0.3535479508002761
% es.EX (V/m) @ t=0.3
0.17847851384886138
% es.EY (V/m) @ t=0.3
0.14035292177050707
% es.EZ (V/m) @ t=0.3
-0.23473603602947324
% es.tEX (V/m) @ t=0.3
0.17847851384886226
% es.tEY (V/m) @ t=0.3
0
% es.tEZ (V/m) @ t=0.3
-0.2347360360294788
% es.Ex (V/m) @ t=0.3
0.17847851384886138
% es.Ey (V/m) @ t=0.3
0.14035292177050707
% es.Ez (V/m) @ t=0.3
-0.23473603602947324
% es.tEx (V/m) @ t=0.3
0.17847851384886226
% es.tEy (V/m) @ t=0.3
0
% es.tEz (V/m) @ t=0.3
-0.2347360360294788
% V (V) @ t=0.3
0.010246077879976922
% es.normE (V/m) @ t=0.4
0.37023189640524345
% es.EX (V/m) @ t=0.4
0.18690095169714827
% es.EY (V/m) @ t=0.4
0.14697612621782952
% es.EZ (V/m) @ t=0.4
-0.24581327325339442
% es.tEX (V/m) @ t=0.4
0.18690095169714782
% es.tEY (V/m) @ t=0.4
0
% es.tEZ (V/m) @ t=0.4
-0.24581327325339597
% es.Ex (V/m) @ t=0.4
0.18690095169714827
% es.Ey (V/m) @ t=0.4
0.14697612621782952
% es.Ez (V/m) @ t=0.4
-0.24581327325339442
% es.tEx (V/m) @ t=0.4
0.18690095169714782
% es.tEy (V/m) @ t=0.4
0
% es.tEz (V/m) @ t=0.4
-0.24581327325339597
% V (V) @ t=0.4
0.010729603790682121
% es.normE (V/m) @ t=0.5
0.3881123149826592
% es.EX (V/m) @ t=0.5
0.19592698147119325
% es.EY (V/m) @ t=0.5
0.1540751585472524
% es.EZ (V/m) @ t=0.5
-0.2576844280261057
% es.tEX (V/m) @ t=0.5
0.19592698147119325
% es.tEY (V/m) @ t=0.5
0
% es.tEZ (V/m) @ t=0.5
-0.25768442802610725
% es.Ex (V/m) @ t=0.5
0.19592698147119325
% es.Ey (V/m) @ t=0.5
0.1540751585472524
% es.Ez (V/m) @ t=0.5
-0.2576844280261057
% es.tEx (V/m) @ t=0.5
0.19592698147119325
% es.tEy (V/m) @ t=0.5
0
% es.tEz (V/m) @ t=0.5
-0.25768442802610725
% V (V) @ t=0.5
0.011247611463186391
% es.normE (V/m) @ t=0.6
0.4069036124099694
% es.EX (V/m) @ t=0.6
0.20541252778127017
% es.EY (V/m) @ t=0.6
0.16153644022232871
% es.EZ (V/m) @ t=0.6
-0.270159994863268
% es.tEX (V/m) @ t=0.6
0.20541252778127372
% es.tEY (V/m) @ t=0.6
0
% es.tEZ (V/m) @ t=0.6
-0.2701599948632678
% es.Ex (V/m) @ t=0.6
0.20541252778127017
% es.Ey (V/m) @ t=0.6
0.16153644022232871
% es.Ez (V/m) @ t=0.6
-0.270159994863268
% es.tEx (V/m) @ t=0.6
0.20541252778127372
% es.tEy (V/m) @ t=0.6
0
% es.tEz (V/m) @ t=0.6
-0.2701599948632678
% V (V) @ t=0.6
0.011791870215372341
% es.normE (V/m) @ t=0.7
0.42569490984360486
% es.EX (V/m) @ t=0.7
0.2148980740913533
% es.EY (V/m) @ t=0.7
0.16899772189740148
% es.EZ (V/m) @ t=0.7
-0.2826355617004275
% es.tEX (V/m) @ t=0.7
0.21489807409135508
% es.tEY (V/m) @ t=0.7
0
% es.tEZ (V/m) @ t=0.7
-0.2826355617004239
% es.Ex (V/m) @ t=0.7
0.2148980740913533
% es.Ey (V/m) @ t=0.7
0.16899772189740148
% es.Ez (V/m) @ t=0.7
-0.2826355617004275
% es.tEx (V/m) @ t=0.7
0.21489807409135508
% es.tEy (V/m) @ t=0.7
0
% es.tEz (V/m) @ t=0.7
-0.2826355617004239
% V (V) @ t=0.7
0.012336128967558289
% es.normE (V/m) @ t=0.8
0.4458055845666926
% es.EX (V/m) @ t=0.8
0.22505072039684748
% es.EY (V/m) @ t=0.8
0.17698062130004644
% es.EZ (V/m) @ t=0.8
-0.29598832519223794
% es.tEX (V/m) @ t=0.8
0.22505072039684748
% es.tEY (V/m) @ t=0.8
0
% es.tEZ (V/m) @ t=0.8
-0.29598832519223617
% es.Ex (V/m) @ t=0.8
0.22505072039684748
% es.Ey (V/m) @ t=0.8
0.17698062130004644
% es.Ez (V/m) @ t=0.8
-0.29598832519223794
% es.tEx (V/m) @ t=0.8
0.22505072039684748
% es.tEy (V/m) @ t=0.8
0
% es.tEz (V/m) @ t=0.8
-0.29598832519223617
% V (V) @ t=0.8
0.012919114757531254
% es.normE (V/m) @ t=0.9
0.4667458779412479
% es.EX (V/m) @ t=0.9
0.2356228362477868
% es.EY (V/m) @ t=0.9
0.18529151163746604
% es.EZ (V/m) @ t=0.9
-0.30989266608553745
% es.tEX (V/m) @ t=0.9
0.23562283624779035
% es.tEY (V/m) @ t=0.9
0
% es.tEZ (V/m) @ t=0.9
-0.30989266608553745
% es.Ex (V/m) @ t=0.9
0.2356228362477868
% es.Ey (V/m) @ t=0.9
0.18529151163746604
% es.Ez (V/m) @ t=0.9
-0.30989266608553745
% es.tEx (V/m) @ t=0.9
0.23562283624779035
% es.tEy (V/m) @ t=0.9
0
% es.tEz (V/m) @ t=0.9
-0.30989266608553745
% V (V) @ t=0.9
0.01352645193867291
% es.normE (V/m) @ t=1
0.4876861713295709
% es.EX (V/m) @ t=1
0.24619495209872788
% es.EY (V/m) @ t=1
0.19360240197488388
% es.EZ (V/m) @ t=1
-0.32379700697882985
% es.tEX (V/m) @ t=1
0.2461949520987301
% es.tEY (V/m) @ t=1
0
% es.tEZ (V/m) @ t=1
-0.3237970069788316
% es.Ex (V/m) @ t=1
0.24619495209872788
% es.Ey (V/m) @ t=1
0.19360240197488388
% es.Ez (V/m) @ t=1
-0.32379700697882985
% es.tEx (V/m) @ t=1
0.2461949520987301
% es.tEy (V/m) @ t=1
0
% es.tEz (V/m) @ t=1
-0.3237970069788316
% V (V) @ t=1
0.014133789119814569
% es.normE (V/m) @ t=1.1
0.5109524489541596
% es.EX (V/m) @ t=1.1
0.257941214883866
% es.EY (V/m) @ t=1.1
0.20283679269071708
% es.EZ (V/m) @ t=1.1
-0.3392456031775031
% es.tEX (V/m) @ t=1.1
0.25794121488386823
% es.tEY (V/m) @ t=1.1
0
% es.tEZ (V/m) @ t=1.1
-0.33924560317750885
% es.Ex (V/m) @ t=1.1
0.257941214883866
% es.Ey (V/m) @ t=1.1
0.20283679269071708
% es.Ez (V/m) @ t=1.1
-0.3392456031775031
% es.tEx (V/m) @ t=1.1
0.25794121488386823
% es.tEy (V/m) @ t=1.1
0
% es.tEz (V/m) @ t=1.1
-0.33924560317750885
% V (V) @ t=1.1
0.014808507337237247
% es.normE (V/m) @ t=1.2
0.5343270003030869
% es.EX (V/m) @ t=1.2
0.26974213377946654
% es.EY (V/m) @ t=1.2
0.21211417201149185
% es.EZ (V/m) @ t=1.2
-0.35476608389600495
% es.tEX (V/m) @ t=1.2
0.26974213377947187
% es.tEY (V/m) @ t=1.2
0
% es.tEZ (V/m) @ t=1.2
-0.35476608389600806
% es.Ex (V/m) @ t=1.2
0.26974213377946654
% es.Ey (V/m) @ t=1.2
0.21211417201149185
% es.Ez (V/m) @ t=1.2
-0.35476608389600495
% es.tEx (V/m) @ t=1.2
0.26974213377947187
% es.tEy (V/m) @ t=1.2
0
% es.tEz (V/m) @ t=1.2
-0.35476608389600806
% V (V) @ t=1.2
0.015486362117261003
% es.normE (V/m) @ t=1.3
0.5585209192172762
% es.EX (V/m) @ t=1.3
0.28195581521055324
% es.EY (V/m) @ t=1.3
0.22171861488253164
% es.EZ (V/m) @ t=1.3
-0.37082957961504937
% es.tEX (V/m) @ t=1.3
0.2819558152105577
% es.tEY (V/m) @ t=1.3
0
% es.tEZ (V/m) @ t=1.3
-0.3708295796150445
% es.Ex (V/m) @ t=1.3
0.28195581521055324
% es.Ey (V/m) @ t=1.3
0.22171861488253164
% es.Ez (V/m) @ t=1.3
-0.37082957961504937
% es.tEx (V/m) @ t=1.3
0.2819558152105577
% es.tEy (V/m) @ t=1.3
0
% es.tEz (V/m) @ t=1.3
-0.3708295796150445
% V (V) @ t=1.3
0.01618755569884192
% es.normE (V/m) @ t=1.4
0.5846534376777817
% es.EX (V/m) @ t=1.4
0.2951460806463899
% es.EY (V/m) @ t=1.4
0.23209688048286736
% es.EZ (V/m) @ t=1.4
-0.38817783283582985
% es.tEX (V/m) @ t=1.4
0.2951460806463908
% es.tEY (V/m) @ t=1.4
0
% es.tEZ (V/m) @ t=1.4
-0.38817783283583296
% es.Ex (V/m) @ t=1.4
0.2951460806463899
% es.Ey (V/m) @ t=1.4
0.23209688048286736
% es.Ez (V/m) @ t=1.4
-0.38817783283582985
% es.tEx (V/m) @ t=1.4
0.2951460806463908
% es.tEy (V/m) @ t=1.4
0
% es.tEz (V/m) @ t=1.4
-0.38817783283583296
% V (V) @ t=1.4
0.01694396819767399
% es.normE (V/m) @ t=1.5
0.610785956180343
% es.EX (V/m) @ t=1.5
0.30833634608223726
% es.EY (V/m) @ t=1.5
0.24247514608319776
% es.EZ (V/m) @ t=1.5
-0.40552608605660945
% es.tEX (V/m) @ t=1.5
0.30833634608223637
% es.tEY (V/m) @ t=1.5
0
% es.tEZ (V/m) @ t=1.5
-0.405526086056609
% es.Ex (V/m) @ t=1.5
0.30833634608223726
% es.Ey (V/m) @ t=1.5
0.24247514608319776
% es.Ez (V/m) @ t=1.5
-0.40552608605660945
% es.tEx (V/m) @ t=1.5
0.30833634608223637
% es.tEy (V/m) @ t=1.5
0
% es.tEz (V/m) @ t=1.5
-0.405526086056609
% V (V) @ t=1.5
0.017700380696506056
% es.normE (V/m) @ t=1.6
0.6379271253753847
% es.EX (V/m) @ t=1.6
0.32203643247347635
% es.EY (V/m) @ t=1.6
0.25325253244734114
% es.EZ (V/m) @ t=1.6
-0.4235447520611699
% es.tEX (V/m) @ t=1.6
0.3220364324734799
% es.tEY (V/m) @ t=1.6
0
% es.tEZ (V/m) @ t=1.6
-0.4235447520611775
% es.Ex (V/m) @ t=1.6
0.32203643247347635
% es.Ey (V/m) @ t=1.6
0.25325253244734114
% es.Ez (V/m) @ t=1.6
-0.4235447520611699
% es.tEx (V/m) @ t=1.6
0.3220364324734799
% es.tEy (V/m) @ t=1.6
0
% es.tEz (V/m) @ t=1.6
-0.4235447520611775
% V (V) @ t=1.6
0.018486320098580908
% es.normE (V/m) @ t=1.7
0.6664238891849519
% es.EX (V/m) @ t=1.7
0.336421702116362
% es.EY (V/m) @ t=1.7
0.2645663245042389
% es.EZ (V/m) @ t=1.7
-0.4424644316593658
% es.tEX (V/m) @ t=1.7
0.33642170211636646
% es.tEY (V/m) @ t=1.7
0
% es.tEZ (V/m) @ t=1.7
-0.442464431659376
% es.Ex (V/m) @ t=1.7
0.336421702116362
% es.Ey (V/m) @ t=1.7
0.2645663245042389
% es.Ez (V/m) @ t=1.7
-0.4424644316593658
% es.tEx (V/m) @ t=1.7
0.33642170211636646
% es.tEy (V/m) @ t=1.7
0
% es.tEz (V/m) @ t=1.7
-0.442464431659376
% V (V) @ t=1.7
0.019311942725442587
% es.normE (V/m) @ t=1.8
0.6958786610151538
% es.EX (V/m) @ t=1.8
0.35129119547073184
% es.EY (V/m) @ t=1.8
0.27625919814955324
% es.EZ (V/m) @ t=1.8
-0.46202086375457263
% es.tEX (V/m) @ t=1.8
0.3512911954707345
% es.tEY (V/m) @ t=1.8
0
% es.tEZ (V/m) @ t=1.8
-0.46202086375457263
% es.Ex (V/m) @ t=1.8
0.35129119547073184
% es.Ey (V/m) @ t=1.8
0.27625919814955324
% es.Ez (V/m) @ t=1.8
-0.46202086375457263
% es.tEx (V/m) @ t=1.8
0.3512911954707345
% es.tEy (V/m) @ t=1.8
0
% es.tEz (V/m) @ t=1.8
-0.46202086375457263
% V (V) @ t=1.8
0.020165609759904935
% es.normE (V/m) @ t=1.9
0.7262914408695849
% es.EX (V/m) @ t=1.9
0.3666449125365805
% es.EY (V/m) @ t=1.9
0.2883311533833215
% es.EZ (V/m) @ t=1.9
-0.48221404834682513
% es.tEX (V/m) @ t=1.9
0.36664491253658404
% es.tEY (V/m) @ t=1.9
0
% es.tEZ (V/m) @ t=1.9
-0.4822140483468118
% es.Ex (V/m) @ t=1.9
0.3666449125365805
% es.Ey (V/m) @ t=1.9
0.2883311533833215
% es.Ez (V/m) @ t=1.9
-0.48221404834682513
% es.tEx (V/m) @ t=1.9
0.36664491253658404
% es.tEy (V/m) @ t=1.9
0
% es.tEz (V/m) @ t=1.9
-0.4822140483468118
% V (V) @ t=1.9
0.021047321201967954
% es.normE (V/m) @ t=2
0.7576622287599821
% es.EX (V/m) @ t=2
0.38248285331391685
% es.EY (V/m) @ t=2
0.30078219020551167
% es.EZ (V/m) @ t=2
-0.5030439854361082
% es.tEX (V/m) @ t=2
0.3824828533139266
% es.tEY (V/m) @ t=2
0
% es.tEZ (V/m) @ t=2
-0.503043985436106
% es.Ex (V/m) @ t=2
0.38248285331391685
% es.Ey (V/m) @ t=2
0.30078219020551167
% es.Ez (V/m) @ t=2
-0.5030439854361082
% es.tEx (V/m) @ t=2
0.3824828533139266
% es.tEy (V/m) @ t=2
0
% es.tEz (V/m) @ t=2
-0.503043985436106
% V (V) @ t=2
0.02195707705163165
% es.normE (V/m) @ t=2.1
0.7903191015104633
% es.EX (V/m) @ t=2.1
0.39897019115765
% es.EY (V/m) @ t=2.1
0.313743466192534
% es.EZ (V/m) @ t=2.1
-0.5247279875004751
% es.tEX (V/m) @ t=2.1
0.39897019115765087
% es.tEY (V/m) @ t=2.1
0
% es.tEZ (V/m) @ t=2.1
-0.5247279875004818
% es.Ex (V/m) @ t=2.1
0.39897019115765
% es.Ey (V/m) @ t=2.1
0.313743466192534
% es.Ez (V/m) @ t=2.1
-0.5247279875004751
% es.tEx (V/m) @ t=2.1
0.39897019115765087
% es.tEy (V/m) @ t=2.1
0
% es.tEz (V/m) @ t=2.1
-0.5247279875004818
% V (V) @ t=2.1
0.022904176557687915
% es.normE (V/m) @ t=2.2
0.8248643931995981
% es.EX (V/m) @ t=2.2
0.41641017682851
% es.EY (V/m) @ t=2.2
0.32745578068422
% es.EZ (V/m) @ t=2.2
-0.547665030357281
% es.tEX (V/m) @ t=2.2
0.4164101768285109
% es.tEY (V/m) @ t=2.2
0
% es.tEZ (V/m) @ t=2.2
-0.5476650303572921
% es.Ex (V/m) @ t=2.2
0.41641017682851
% es.Ey (V/m) @ t=2.2
0.32745578068422
% es.Ez (V/m) @ t=2.2
-0.547665030357281
% es.tEx (V/m) @ t=2.2
0.4164101768285109
% es.tEy (V/m) @ t=2.2
0
% es.tEz (V/m) @ t=2.2
-0.5476650303572921
% V (V) @ t=2.2
0.023905692717605335
% es.normE (V/m) @ t=2.3
0.8607293032535028
% es.EX (V/m) @ t=2.3
0.43451644232883346
% es.EY (V/m) @ t=2.3
0.34169174026980365
% es.EZ (V/m) @ t=2.3
-0.5714783502165282
% es.tEX (V/m) @ t=2.3
0.43451644232883435
% es.tEY (V/m) @ t=2.3
0
% es.tEZ (V/m) @ t=2.3
-0.5714783502165215
% es.Ex (V/m) @ t=2.3
0.43451644232883346
% es.Ey (V/m) @ t=2.3
0.34169174026980365
% es.Ez (V/m) @ t=2.3
-0.5714783502165282
% es.tEx (V/m) @ t=2.3
0.43451644232883435
% es.tEy (V/m) @ t=2.3
0
% es.tEz (V/m) @ t=2.3
-0.5714783502165215
% V (V) @ t=2.3
0.02494550303234229
% es.normE (V/m) @ t=2.4
0.8979138316734785
% es.EX (V/m) @ t=2.4
0.45328898765862036
% es.EY (V/m) @ t=2.4
0.3564513449493578
% es.EZ (V/m) @ t=2.4
-0.5961679470782375
% es.tEX (V/m) @ t=2.4
0.4532889876586257
% es.tEY (V/m) @ t=2.4
0
% es.tEZ (V/m) @ t=2.4
-0.5961679470782304
% es.Ex (V/m) @ t=2.4
0.45328898765862036
% es.Ey (V/m) @ t=2.4
0.3564513449493578
% es.Ez (V/m) @ t=2.4
-0.5961679470782375
% es.tEx (V/m) @ t=2.4
0.4532889876586257
% es.tEy (V/m) @ t=2.4
0
% es.tEz (V/m) @ t=2.4
-0.5961679470782304
% V (V) @ t=2.4
0.02602360750189879
% es.normE (V/m) @ t=2.5
0.9364179784606892
% es.EX (V/m) @ t=2.5
0.47272781281786536
% es.EY (V/m) @ t=2.5
0.371734594722815
% es.EZ (V/m) @ t=2.5
-0.621733820942322
% es.tEX (V/m) @ t=2.5
0.472727812817868
% es.tEY (V/m) @ t=2.5
0
% es.tEZ (V/m) @ t=2.5
-0.6217338209423193
% es.Ex (V/m) @ t=2.5
0.47272781281786536
% es.Ey (V/m) @ t=2.5
0.371734594722815
% es.Ez (V/m) @ t=2.5
-0.621733820942322
% es.tEx (V/m) @ t=2.5
0.472727812817868
% es.tEy (V/m) @ t=2.5
0
% es.tEz (V/m) @ t=2.5
-0.6217338209423193
% V (V) @ t=2.5
0.027140006126274825
% es.normE (V/m) @ t=2.6
0.976245622681561
% es.EX (V/m) @ t=2.6
0.4928348691894531
% es.EY (V/m) @ t=2.6
0.387543043569611
% es.EZ (V/m) @ t=2.6
-0.6481785394369592
% es.tEX (V/m) @ t=2.6
0.49283486918945574
% es.tEY (V/m) @ t=2.6
0
% es.tEZ (V/m) @ t=2.6
-0.6481785394369606
% es.Ex (V/m) @ t=2.6
0.4928348691894531
% es.Ey (V/m) @ t=2.6
0.387543043569611
% es.Ez (V/m) @ t=2.6
-0.6481785394369592
% es.tEx (V/m) @ t=2.6
0.49283486918945574
% es.tEy (V/m) @ t=2.6
0
% es.tEz (V/m) @ t=2.6
-0.6481785394369606
% V (V) @ t=2.6
0.02829480812380549
% es.normE (V/m) @ t=2.7
1.0183220461356655
% es.EX (V/m) @ t=2.7
0.5140756243555646
% es.EY (V/m) @ t=2.7
0.4042473655559977
% es.EZ (V/m) @ t=2.7
-0.6761145644358963
% es.tEX (V/m) @ t=2.7
0.5140756243555735
% es.tEY (V/m) @ t=2.7
0
% es.tEZ (V/m) @ t=2.7
-0.6761145644358937
% es.Ex (V/m) @ t=2.7
0.5140756243555646
% es.Ey (V/m) @ t=2.7
0.4042473655559977
% es.Ez (V/m) @ t=2.7
-0.6761145644358963
% es.tEx (V/m) @ t=2.7
0.5140756243555735
% es.tEy (V/m) @ t=2.7
0
% es.tEz (V/m) @ t=2.7
-0.6761145644358937
% V (V) @ t=2.7
0.029514065580499
% es.normE (V/m) @ t=2.8
1.062013038996904
% es.EX (V/m) @ t=2.8
0.5361310359290634
% es.EY (V/m) @ t=2.8
0.4215934919917217
% es.EZ (V/m) @ t=2.8
-0.7051221002202981
% es.tEX (V/m) @ t=2.8
0.5361310359290652
% es.tEY (V/m) @ t=2.8
0
% es.tEZ (V/m) @ t=2.8
-0.7051221002202972
% es.Ex (V/m) @ t=2.8
0.5361310359290634
% es.Ey (V/m) @ t=2.8
0.4215934919917217
% es.Ez (V/m) @ t=2.8
-0.7051221002202981
% es.tEx (V/m) @ t=2.8
0.5361310359290652
% es.tEy (V/m) @ t=2.8
0
% es.tEz (V/m) @ t=2.8
-0.7051221002202972
% V (V) @ t=2.8
0.030779921786181587
% es.normE (V/m) @ t=2.9
1.107318601271406
% es.EX (V/m) @ t=2.9
0.5590011039099299
% es.EY (V/m) @ t=2.9
0.43958142287678115
% es.EZ (V/m) @ t=2.9
-0.7352011467901809
% es.tEX (V/m) @ t=2.9
0.5590011039099316
% es.tEY (V/m) @ t=2.9
0
% es.tEZ (V/m) @ t=2.9
-0.73520114679018
% es.Ex (V/m) @ t=2.9
0.5590011039099299
% es.Ey (V/m) @ t=2.9
0.43958142287678115
% es.Ez (V/m) @ t=2.9
-0.7352011467901809
% es.tEx (V/m) @ t=2.9
0.5590011039099316
% es.tEy (V/m) @ t=2.9
0
% es.tEz (V/m) @ t=2.9
-0.73520114679018
% V (V) @ t=2.9
0.03209237674085326
% es.normE (V/m) @ t=3
1.154238732966987
% es.EX (V/m) @ t=3
0.5826858282981657
% es.EY (V/m) @ t=3
0.4582111582111814
% es.EZ (V/m) @ t=3
-0.766351704145479
% es.tEX (V/m) @ t=3
0.5826858282981728
% es.tEY (V/m) @ t=3
0
% es.tEZ (V/m) @ t=3
-0.7663517041454853
% es.Ex (V/m) @ t=3
0.5826858282981657
% es.Ey (V/m) @ t=3
0.4582111582111814
% es.Ez (V/m) @ t=3
-0.766351704145479
% es.tEx (V/m) @ t=3
0.5826858282981728
% es.tEy (V/m) @ t=3
0
% es.tEz (V/m) @ t=3
-0.7663517041454853
% V (V) @ t=3
0.03345143044451401
% es.normE (V/m) @ t=3.1
1.2027734340929002
% es.EX (V/m) @ t=3.1
0.6071852090937764
% es.EY (V/m) @ t=3.1
0.4774826979949296
% es.EZ (V/m) @ t=3.1
-0.7985737722862565
% es.tEX (V/m) @ t=3.1
0.6071852090937853
% es.tEY (V/m) @ t=3.1
0
% es.tEZ (V/m) @ t=3.1
-0.7985737722862432
% es.Ex (V/m) @ t=3.1
0.6071852090937764
% es.Ey (V/m) @ t=3.1
0.4774826979949296
% es.Ez (V/m) @ t=3.1
-0.7985737722862565
% es.tEx (V/m) @ t=3.1
0.6071852090937853
% es.tEy (V/m) @ t=3.1
0
% es.tEz (V/m) @ t=3.1
-0.7985737722862432
% V (V) @ t=3.1
0.034857082897163855
% es.normE (V/m) @ t=3.2
1.253288578129935
% es.EX (V/m) @ t=3.2
0.6326854152608234
% es.EY (V/m) @ t=3.2
0.49753827704064335
% es.EZ (V/m) @ t=3.2
-0.8321119537015473
% es.tEX (V/m) @ t=3.2
0.632685415260827
% es.tEY (V/m) @ t=3.2
0
% es.tEZ (V/m) @ t=3.2
-0.8321119537015598
% es.Ex (V/m) @ t=3.2
0.6326854152608234
% es.Ey (V/m) @ t=3.2
0.49753827704064335
% es.Ez (V/m) @ t=3.2
-0.8321119537015473
% es.tEx (V/m) @ t=3.2
0.632685415260827
% es.tEy (V/m) @ t=3.2
0
% es.tEz (V/m) @ t=3.2
-0.8321119537015598
% V (V) @ t=3.2
0.03632062306575964
% es.normE (V/m) @ t=3.3
1.3057336239687065
% es.EX (V/m) @ t=3.3
0.6591607297581241
% es.EY (V/m) @ t=3.3
0.5183582472907489
% es.EZ (V/m) @ t=3.3
-0.8669324594495729
% es.tEX (V/m) @ t=3.3
0.6591607297581259
% es.tEY (V/m) @ t=3.3
0
% es.tEZ (V/m) @ t=3.3
-0.8669324594495897
% es.Ex (V/m) @ t=3.3
0.6591607297581241
% es.Ey (V/m) @ t=3.3
0.5183582472907489
% es.Ez (V/m) @ t=3.3
-0.8669324594495729
% es.tEx (V/m) @ t=3.3
0.6591607297581259
% es.tEy (V/m) @ t=3.3
0
% es.tEz (V/m) @ t=3.3
-0.8669324594495897
% V (V) @ t=3.3
0.03784049151299209
% es.normE (V/m) @ t=3.4
1.3599703362211777
% es.EX (V/m) @ t=3.4
0.6865408136833757
% es.EY (V/m) @ t=3.4
0.5398888691724331
% es.EZ (V/m) @ t=3.4
-0.9029428731027691
% es.tEX (V/m) @ t=3.4
0.6865408136833846
% es.tEY (V/m) @ t=3.4
0
% es.tEZ (V/m) @ t=3.4
-0.9029428731027593
% es.Ex (V/m) @ t=3.4
0.6865408136833757
% es.Ey (V/m) @ t=3.4
0.5398888691724331
% es.Ez (V/m) @ t=3.4
-0.9029428731027691
% es.tEx (V/m) @ t=3.4
0.6865408136833846
% es.tEy (V/m) @ t=3.4
0
% es.tEz (V/m) @ t=3.4
-0.9029428731027593
% V (V) @ t=3.4
0.039412423008362105
% es.normE (V/m) @ t=3.5
1.4159987148885391
% es.EX (V/m) @ t=3.5
0.7148256670365996
% es.EY (V/m) @ t=3.5
0.5621301426857279
% es.EZ (V/m) @ t=3.5
-0.9401431946612275
% es.tEX (V/m) @ t=3.5
0.7148256670366084
% es.tEY (V/m) @ t=3.5
0
% es.tEZ (V/m) @ t=3.5
-0.9401431946612178
% es.Ex (V/m) @ t=3.5
0.7148256670365996
% es.Ey (V/m) @ t=3.5
0.5621301426857279
% es.Ez (V/m) @ t=3.5
-0.9401431946612275
% es.tEx (V/m) @ t=3.5
0.7148256670366084
% es.tEy (V/m) @ t=3.5
0
% es.tEz (V/m) @ t=3.5
-0.9401431946612178
% V (V) @ t=3.5
0.041036417551869694
% es.normE (V/m) @ t=3.6
1.4738187599727819
% es.EX (V/m) @ t=3.6
0.744015289817785
% es.EY (V/m) @ t=3.6
0.5850820678306263
% es.EZ (V/m) @ t=3.6
-0.97853342412487
% es.tEX (V/m) @ t=3.6
0.7440152898177903
% es.tEY (V/m) @ t=3.6
0
% es.tEZ (V/m) @ t=3.6
-0.9785334241248691
% es.Ex (V/m) @ t=3.6
0.744015289817785
% es.Ey (V/m) @ t=3.6
0.5850820678306263
% es.Ez (V/m) @ t=3.6
-0.97853342412487
% es.tEx (V/m) @ t=3.6
0.7440152898177903
% es.tEy (V/m) @ t=3.6
0
% es.tEz (V/m) @ t=3.6
-0.9785334241248691
% V (V) @ t=3.6
0.042712475143514866
% es.normE (V/m) @ t=3.7
1.5333572146783156
% es.EX (V/m) @ t=3.7
0.7740723719898277
% es.EY (V/m) @ t=3.7
0.608716236361424
% es.EZ (V/m) @ t=3.7
-1.018064546651079
% es.tEX (V/m) @ t=3.7
0.7740723719898366
% es.tEY (V/m) @ t=3.7
0
% es.tEZ (V/m) @ t=3.7
-1.0180645466510683
% es.Ex (V/m) @ t=3.7
0.7740723719898277
% es.Ey (V/m) @ t=3.7
0.608716236361424
% es.Ez (V/m) @ t=3.7
-1.018064546651079
% es.tEx (V/m) @ t=3.7
0.7740723719898366
% es.tEy (V/m) @ t=3.7
0
% es.tEz (V/m) @ t=3.7
-1.0180645466510683
% V (V) @ t=3.7
0.04443831936458493
% es.normE (V/m) @ t=3.8
1.5944867701540355
% es.EX (V/m) @ t=3.8
0.8049320745477502
% es.EY (V/m) @ t=3.8
0.6329832791934003
% es.EZ (V/m) @ t=3.8
-1.0586513821148698
% es.tEX (V/m) @ t=3.8
0.8049320745477502
% es.tEY (V/m) @ t=3.8
0
% es.tEZ (V/m) @ t=3.8
-1.0586513821148387
% es.Ex (V/m) @ t=3.8
0.8049320745477502
% es.Ey (V/m) @ t=3.8
0.6329832791934003
% es.Ez (V/m) @ t=3.8
-1.0586513821148698
% es.tEx (V/m) @ t=3.8
0.8049320745477502
% es.tEy (V/m) @ t=3.8
0
% es.tEz (V/m) @ t=3.8
-1.0586513821148387
% V (V) @ t=3.8
0.04620999415564877
% es.normE (V/m) @ t=3.9
1.657281485931104
% es.EX (V/m) @ t=3.9
0.836632116365088
% es.EY (V/m) @ t=3.9
0.6579119158645454
% es.EZ (V/m) @ t=3.9
-1.1003434824543392
% es.tEX (V/m) @ t=3.9
0.8366321163651005
% es.tEY (V/m) @ t=3.9
0
% es.tEZ (V/m) @ t=3.9
-1.1003434824543277
% es.Ex (V/m) @ t=3.9
0.836632116365088
% es.Ey (V/m) @ t=3.9
0.6579119158645454
% es.Ez (V/m) @ t=3.9
-1.1003434824543392
% es.tEx (V/m) @ t=3.9
0.8366321163651005
% es.tEy (V/m) @ t=3.9
0
% es.tEz (V/m) @ t=3.9
-1.1003434824543277
% V (V) @ t=3.9
0.048029800879991494
% es.normE (V/m) @ t=4
1.7217224468569974
% es.EX (V/m) @ t=4
0.8691628638641156
% es.EY (V/m) @ t=4
0.6834948112696821
% es.EZ (V/m) @ t=4
-1.1431281918714875
% es.tEX (V/m) @ t=4
0.8691628638641138
% es.tEY (V/m) @ t=4
0
% es.tEZ (V/m) @ t=4
-1.1431281918714618
% es.Ex (V/m) @ t=4
0.8691628638641156
% es.Ey (V/m) @ t=4
0.6834948112696821
% es.Ez (V/m) @ t=4
-1.1431281918714875
% es.tEx (V/m) @ t=4
0.8691628638641138
% es.tEy (V/m) @ t=4
0
% es.tEz (V/m) @ t=4
-1.1431281918714618
% V (V) @ t=4
0.04989715175860159
% es.normE (V/m) @ t=4.1
1.7877907377804503
% es.EX (V/m) @ t=4.1
0.9025146834669968
% es.EY (V/m) @ t=4.1
0.7097246303036755
% es.EZ (V/m) @ t=4.1
-1.1869928545679116
% es.tEX (V/m) @ t=4.1
0.9025146834669915
% es.tEY (V/m) @ t=4.1
0
% es.tEZ (V/m) @ t=4.1
-1.1869928545679045
% es.Ex (V/m) @ t=4.1
0.9025146834669968
% es.Ey (V/m) @ t=4.1
0.7097246303036755
% es.Ez (V/m) @ t=4.1
-1.1869928545679116
% es.tEx (V/m) @ t=4.1
0.9025146834669915
% es.tEy (V/m) @ t=4.1
0
% es.tEz (V/m) @ t=4.1
-1.1869928545679045
% V (V) @ t=4.1
0.051811459012467635
% es.normE (V/m) @ t=4.2
1.855422178909123
% es.EX (V/m) @ t=4.2
0.9366551821334639
% es.EY (V/m) @ t=4.2
0.7365758817347938
% es.EZ (V/m) @ t=4.2
-1.2318948659408715
% es.tEX (V/m) @ t=4.2
0.9366551821334834
% es.tEY (V/m) @ t=4.2
0
% es.tEZ (V/m) @ t=4.2
-1.2318948659408626
% es.Ex (V/m) @ t=4.2
0.9366551821334639
% es.Ey (V/m) @ t=4.2
0.7365758817347938
% es.Ez (V/m) @ t=4.2
-1.2318948659408715
% es.tEx (V/m) @ t=4.2
0.9366551821334834
% es.tEy (V/m) @ t=4.2
0
% es.tEz (V/m) @ t=4.2
-1.2318948659408626
% V (V) @ t=4.2
0.053770865595288424
% es.normE (V/m) @ t=4.3
1.9235948949421489
% es.EX (V/m) @ t=4.3
0.9710704290691297
% es.EY (V/m) @ t=4.3
0.7636389325489539
% es.EZ (V/m) @ t=4.3
-1.2771579737252843
% es.tEX (V/m) @ t=4.3
0.9710704290691261
% es.tEY (V/m) @ t=4.3
0
% es.tEZ (V/m) @ t=4.3
-1.27715797372527
% es.Ex (V/m) @ t=4.3
0.9710704290691297
% es.Ey (V/m) @ t=4.3
0.7636389325489539
% es.Ez (V/m) @ t=4.3
-1.2771579737252843
% es.tEx (V/m) @ t=4.3
0.9710704290691261
% es.tEy (V/m) @ t=4.3
0
% es.tEz (V/m) @ t=4.3
-1.27715797372527
% V (V) @ t=4.3
0.055746659691223964
% es.normE (V/m) @ t=4.4
1.9927837648299624
% es.EX (V/m) @ t=4.4
1.0059990747307772
% es.EY (V/m) @ t=4.4
0.7911045136717796
% es.EZ (V/m) @ t=4.4
-1.3230962350271316
% es.tEX (V/m) @ t=4.4
1.0059990747307772
% es.tEY (V/m) @ t=4.4
0
% es.tEZ (V/m) @ t=4.4
-1.3230962350271476
% es.Ex (V/m) @ t=4.4
1.0059990747307772
% es.Ey (V/m) @ t=4.4
0.7911045136717796
% es.Ez (V/m) @ t=4.4
-1.3230962350271316
% es.tEx (V/m) @ t=4.4
1.0059990747307772
% es.tEy (V/m) @ t=4.4
0
% es.tEz (V/m) @ t=4.4
-1.3230962350271476
% V (V) @ t=4.4
0.057752100017145966
% es.normE (V/m) @ t=4.5
2.062882852354502
% es.EX (V/m) @ t=4.5
1.041387730579192
% es.EY (V/m) @ t=4.5
0.8189303849282865
% es.EZ (V/m) @ t=4.5
-1.3696394176093367
% es.tEX (V/m) @ t=4.5
1.0413877305792063
% es.tEY (V/m) @ t=4.5
0
% es.tEZ (V/m) @ t=4.5
-1.3696394176093527
% es.Ex (V/m) @ t=4.5
1.041387730579192
% es.Ey (V/m) @ t=4.5
0.8189303849282865
% es.Ez (V/m) @ t=4.5
-1.3696394176093367
% es.tEx (V/m) @ t=4.5
1.0413877305792063
% es.tEy (V/m) @ t=4.5
0
% es.tEz (V/m) @ t=4.5
-1.3696394176093527
% V (V) @ t=4.5
0.059784158633543735
% es.normE (V/m) @ t=4.6
2.1337862213007943
% es.EX (V/m) @ t=4.6
1.077183008075135
% es.EY (V/m) @ t=4.6
0.847074306143778
% es.EZ (V/m) @ t=4.6
-1.41671728923499
% es.tEX (V/m) @ t=4.6
1.0771830080751421
% es.tEY (V/m) @ t=4.6
0
% es.tEZ (V/m) @ t=4.6
-1.416717289235006
% es.Ex (V/m) @ t=4.6
1.077183008075135
% es.Ey (V/m) @ t=4.6
0.847074306143778
% es.Ez (V/m) @ t=4.6
-1.41671728923499
% es.tEx (V/m) @ t=4.6
1.0771830080751421
% es.tEy (V/m) @ t=4.6
0
% es.tEz (V/m) @ t=4.6
-1.416717289235006
% V (V) @ t=4.6
0.06183980760090667
% es.normE (V/m) @ t=4.7
2.2053879354573342
% es.EX (V/m) @ t=4.7
1.1133315186793098
% es.EY (V/m) @ t=4.7
0.875494037143298
% es.EZ (V/m) @ t=4.7
-1.46425961766702
% es.tEX (V/m) @ t=4.7
1.1133315186793311
% es.tEY (V/m) @ t=4.7
0
% es.tEZ (V/m) @ t=4.7
-1.4642596176670075
% es.Ex (V/m) @ t=4.7
1.1133315186793098
% es.Ey (V/m) @ t=4.7
0.875494037143298
% es.Ez (V/m) @ t=4.7
-1.46425961766702
% es.tEx (V/m) @ t=4.7
1.1133315186793311
% es.tEy (V/m) @ t=4.7
0
% es.tEz (V/m) @ t=4.7
-1.4642596176670075
% V (V) @ t=4.7
0.06391601897972404
% es.normE (V/m) @ t=4.8
2.276598847197098
% es.EX (V/m) @ t=4.8
1.1492811352579473
% es.EY (V/m) @ t=4.8
0.9037619242674424
% es.EZ (V/m) @ t=4.8
-1.511540631941811
% es.tEX (V/m) @ t=4.8
1.1492811352579544
% es.tEY (V/m) @ t=4.8
0
% es.tEZ (V/m) @ t=4.8
-1.5115406319417843
% es.Ex (V/m) @ t=4.8
1.1492811352579473
% es.Ey (V/m) @ t=4.8
0.9037619242674424
% es.Ez (V/m) @ t=4.8
-1.511540631941811
% es.tEx (V/m) @ t=4.8
1.1492811352579544
% es.tEy (V/m) @ t=4.8
0
% es.tEz (V/m) @ t=4.8
-1.5115406319417843
% V (V) @ t=4.8
0.06598015350884365
% es.normE (V/m) @ t=4.9
2.3473263378987794
% es.EX (V/m) @ t=4.9
1.1849852246904788
% es.EY (V/m) @ t=4.9
0.9318409477704819
% es.EZ (V/m) @ t=4.9
-1.558498979100266
% es.tEX (V/m) @ t=4.9
1.1849852246905002
% es.tEY (V/m) @ t=4.9
0
% es.tEZ (V/m) @ t=4.9
-1.5584989791002641
% es.Ex (V/m) @ t=4.9
1.1849852246904788
% es.Ey (V/m) @ t=4.9
0.9318409477704819
% es.Ez (V/m) @ t=4.9
-1.558498979100266
% es.tEx (V/m) @ t=4.9
1.1849852246905002
% es.tEy (V/m) @ t=4.9
0
% es.tEz (V/m) @ t=4.9
-1.5584989791002641
% V (V) @ t=4.9
0.06802958433437302
% es.normE (V/m) @ t=5
2.417614739621019
% es.EX (V/m) @ t=5
1.2204666227225296
% es.EY (V/m) @ t=5
0.9597477718164953
% es.EZ (V/m) @ t=5
-1.6051646156037709
% es.tEX (V/m) @ t=5
1.220466622722526
% es.tEY (V/m) @ t=5
0
% es.tEZ (V/m) @ t=5
-1.6051646156037833
% es.Ex (V/m) @ t=5
1.2204666227225296
% es.Ey (V/m) @ t=5
0.9597477718164953
% es.Ez (V/m) @ t=5
-1.6051646156037709
% es.tEx (V/m) @ t=5
1.220466622722526
% es.tEy (V/m) @ t=5
0
% es.tEz (V/m) @ t=5
-1.6051646156037833
% V (V) @ t=5
0.07006580913771618
% es.normE (V/m) @ t=5.1
2.4872419291433627
% es.EX (V/m) @ t=5.1
1.2556130044060687
% es.EY (V/m) @ t=5.1
0.9873946115568515
% es.EZ (V/m) @ t=5.1
-1.6513898435876246
% es.tEX (V/m) @ t=5.1
1.2556130044060687
% es.tEY (V/m) @ t=5.1
0
% es.tEZ (V/m) @ t=5.1
-1.6513898435876087
% es.Ex (V/m) @ t=5.1
1.2556130044060687
% es.Ey (V/m) @ t=5.1
0.9873946115568515
% es.Ez (V/m) @ t=5.1
-1.6513898435876246
% es.tEx (V/m) @ t=5.1
1.2556130044060687
% es.tEy (V/m) @ t=5.1
0
% es.tEz (V/m) @ t=5.1
-1.6513898435876087
% V (V) @ t=5.1
0.07208230078163787
% es.normE (V/m) @ t=5.2
2.5559857832589197
% es.EX (V/m) @ t=5.2
1.290312044793147
% es.EY (V/m) @ t=5.2
1.0146936821427843
% es.EZ (V/m) @ t=5.2
-1.697026965187007
% es.tEX (V/m) @ t=5.2
1.29031204479314
% es.tEY (V/m) @ t=5.2
0
% es.tEZ (V/m) @ t=5.2
-1.6970269651869785
% es.Ex (V/m) @ t=5.2
1.290312044793147
% es.Ey (V/m) @ t=5.2
1.0146936821427843
% es.Ez (V/m) @ t=5.2
-1.697026965187007
% es.tEx (V/m) @ t=5.2
1.29031204479314
% es.tEy (V/m) @ t=5.2
0
% es.tEz (V/m) @ t=5.2
-1.6970269651869785
% V (V) @ t=5.2
0.07407253212890276
% es.normE (V/m) @ t=5.3
2.6233369849485397
% es.EX (V/m) @ t=5.3
1.3243085084622734
% es.EY (V/m) @ t=5.3
1.0414389407088862
% es.EZ (V/m) @ t=5.3
-1.7417399750977989
% es.tEX (V/m) @ t=5.3
1.3243085084622805
% es.tEY (V/m) @ t=5.3
0
% es.tEZ (V/m) @ t=5.3
-1.7417399750977438
% es.Ex (V/m) @ t=5.3