% Model:              1x1--2 - Copy1.mph
% Version:            COMSOL 6.1.0.252
% Date:               Apr 3 2023, 14:45
% Dimension:          0
% Nodes:              14017
% Expressions:        14017
% Description:        Electric field norm, Electric field, X component, Electric field, Y component, Electric field, Z component, Tangential electric field, X component, Tangential electric field, Y component, Tangential electric field, Z component, Electric field, x component, Electric field, y component, Electric field, z component, Tangential electric field, x component, Tangential electric field, y component, Tangential electric field, z component, Electric potential
% Length unit:        mm
% x
1.6599999999999997
% y
12.2
% z
1.6599999999999997
% es.normE (V/m) @ t=0
0.43092966609929106
% es.EX (V/m) @ t=0
0.22959781131829615
% es.EY (V/m) @ t=0
0.14815879198906737
% es.EZ (V/m) @ t=0
-0.31405676021075923
% es.tEX (V/m) @ t=0
0.2295978113182946
% es.tEY (V/m) @ t=0
0
% es.tEZ (V/m) @ t=0
-0.31405676021076
% es.Ex (V/m) @ t=0
0.22959781131829615
% es.Ey (V/m) @ t=0
0.14815879198906737
% es.Ez (V/m) @ t=0
-0.31405676021075923
% es.tEx (V/m) @ t=0
0.2295978113182946
% es.tEy (V/m) @ t=0
0
% es.tEz (V/m) @ t=0
-0.31405676021076
% V (V) @ t=0
0.008751110343706299
% es.normE (V/m) @ t=0.1
0.4376357200684259
% es.EX (V/m) @ t=0.1
0.23317077276591847
% es.EY (V/m) @ t=0.1
0.1504644165257586
% es.EZ (V/m) @ t=0.1
-0.31894405636506495
% es.tEX (V/m) @ t=0.1
0.23317077276591536
% es.tEY (V/m) @ t=0.1
0
% es.tEZ (V/m) @ t=0.1
-0.3189440563650674
% es.Ex (V/m) @ t=0.1
0.23317077276591847
% es.Ey (V/m) @ t=0.1
0.1504644165257586
% es.Ez (V/m) @ t=0.1
-0.31894405636506495
% es.tEx (V/m) @ t=0.1
0.23317077276591536
% es.tEy (V/m) @ t=0.1
0
% es.tEz (V/m) @ t=0.1
-0.3189440563650674
% V (V) @ t=0.1
0.008887293387433135
% es.normE (V/m) @ t=0.2
0.4584651728952574
% es.EX (V/m) @ t=0.2
0.24426859680135038
% es.EY (V/m) @ t=0.2
0.1576259820888992
% es.EZ (V/m) @ t=0.2
-0.3341242454742631
% es.tEX (V/m) @ t=0.2
0.2442685968013476
% es.tEY (V/m) @ t=0.2
0
% es.tEZ (V/m) @ t=0.2
-0.33412424547426567
% es.Ex (V/m) @ t=0.2
0.24426859680135038
% es.Ey (V/m) @ t=0.2
0.1576259820888992
% es.Ez (V/m) @ t=0.2
-0.3341242454742631
% es.tEx (V/m) @ t=0.2
0.2442685968013476
% es.tEy (V/m) @ t=0.2
0
% es.tEz (V/m) @ t=0.2
-0.33412424547426567
% V (V) @ t=0.2
0.00931027557016104
% es.normE (V/m) @ t=0.3
0.4799034705684104
% es.EX (V/m) @ t=0.3
0.2556907858312047
% es.EY (V/m) @ t=0.3
0.16499698260134757
% es.EZ (V/m) @ t=0.3
-0.3497480934383992
% es.tEX (V/m) @ t=0.3
0.25569078583120164
% es.tEY (V/m) @ t=0.3
0
% es.tEZ (V/m) @ t=0.3
-0.34974809343840785
% es.Ex (V/m) @ t=0.3
0.2556907858312047
% es.Ey (V/m) @ t=0.3
0.16499698260134757
% es.Ez (V/m) @ t=0.3
-0.3497480934383992
% es.tEx (V/m) @ t=0.3
0.25569078583120164
% es.tEy (V/m) @ t=0.3
0
% es.tEz (V/m) @ t=0.3
-0.34974809343840785
% V (V) @ t=0.3
0.009745613218738645
% es.normE (V/m) @ t=0.4
0.5025834076169475
% es.EX (V/m) @ t=0.4
0.26777460092826255
% es.EY (V/m) @ t=0.4
0.1727945137806339
% es.EZ (V/m) @ t=0.4
-0.36627703872324935
% es.tEX (V/m) @ t=0.4
0.26777460092825955
% es.tEY (V/m) @ t=0.4
0
% es.tEZ (V/m) @ t=0.4
-0.3662770387232537
% es.Ex (V/m) @ t=0.4
0.26777460092826255
% es.Ey (V/m) @ t=0.4
0.1727945137806339
% es.Ez (V/m) @ t=0.4
-0.36627703872324935
% es.tEx (V/m) @ t=0.4
0.26777460092825955
% es.tEy (V/m) @ t=0.4
0
% es.tEz (V/m) @ t=0.4
-0.3662770387232537
% V (V) @ t=0.4
0.010206194808029397
% es.normE (V/m) @ t=0.5
0.5268019124862099
% es.EX (V/m) @ t=0.5
0.28067815657078365
% es.EY (V/m) @ t=0.5
0.18112103575840313
% es.EZ (V/m) @ t=0.5
-0.3839272679356164
% es.tEX (V/m) @ t=0.5
0.2806781565707823
% es.tEY (V/m) @ t=0.5
0
% es.tEZ (V/m) @ t=0.5
-0.38392726793562604
% es.Ex (V/m) @ t=0.5
0.28067815657078365
% es.Ey (V/m) @ t=0.5
0.18112103575840313
% es.Ez (V/m) @ t=0.5
-0.3839272679356164
% es.tEx (V/m) @ t=0.5
0.2806781565707823
% es.tEy (V/m) @ t=0.5
0
% es.tEz (V/m) @ t=0.5
-0.38392726793562604
% V (V) @ t=0.5
0.01069801984454314
% es.normE (V/m) @ t=0.6
0.5523737063667155
% es.EX (V/m) @ t=0.6
0.2943027372193805
% es.EY (V/m) @ t=0.6
0.1899128459249677
% es.EZ (V/m) @ t=0.6
-0.4025637528054533
% es.tEX (V/m) @ t=0.6
0.29430273721937783
% es.tEY (V/m) @ t=0.6
0
% es.tEZ (V/m) @ t=0.6
-0.4025637528054584
% es.Ex (V/m) @ t=0.6
0.2943027372193805
% es.Ey (V/m) @ t=0.6
0.1899128459249677
% es.Ez (V/m) @ t=0.6
-0.4025637528054533
% es.tEx (V/m) @ t=0.6
0.29430273721937783
% es.tEy (V/m) @ t=0.6
0
% es.tEz (V/m) @ t=0.6
-0.4025637528054584
% V (V) @ t=0.6
0.01121732590154343
% es.normE (V/m) @ t=0.7
0.5779455002472527
% es.EX (V/m) @ t=0.7
0.30792731786798044
% es.EY (V/m) @ t=0.7
0.19870465609153415
% es.EZ (V/m) @ t=0.7
-0.42120023767529446
% es.tEX (V/m) @ t=0.7
0.3079273178679782
% es.tEY (V/m) @ t=0.7
0
% es.tEZ (V/m) @ t=0.7
-0.42120023767530146
% es.Ex (V/m) @ t=0.7
0.30792731786798044
% es.Ey (V/m) @ t=0.7
0.19870465609153415
% es.Ez (V/m) @ t=0.7
-0.42120023767529446
% es.tEx (V/m) @ t=0.7
0.3079273178679782
% es.tEy (V/m) @ t=0.7
0
% es.tEz (V/m) @ t=0.7
-0.42120023767530146
% V (V) @ t=0.7
0.011736631958543723
% es.normE (V/m) @ t=0.8
0.605153616932556
% es.EX (V/m) @ t=0.8
0.322423713648361
% es.EY (V/m) @ t=0.8
0.20805910416876403
% es.EZ (V/m) @ t=0.8
-0.4410292277782444
% es.tEX (V/m) @ t=0.8
0.32242371364835676
% es.tEY (V/m) @ t=0.8
0
% es.tEZ (V/m) @ t=0.8
-0.4410292277782406
% es.Ex (V/m) @ t=0.8
0.322423713648361
% es.Ey (V/m) @ t=0.8
0.20805910416876403
% es.Ez (V/m) @ t=0.8
-0.4410292277782444
% es.tEx (V/m) @ t=0.8
0.32242371364835676
% es.tEy (V/m) @ t=0.8
0
% es.tEz (V/m) @ t=0.8
-0.4410292277782406
% V (V) @ t=0.8
0.012289163545080539
% es.normE (V/m) @ t=0.9
0.6336768560414843
% es.EX (V/m) @ t=0.9
0.3376207924637501
% es.EY (V/m) @ t=0.9
0.21786574769944017
% es.EZ (V/m) @ t=0.9
-0.46181664146837687
% es.tEX (V/m) @ t=0.9
0.3376207924637509
% es.tEY (V/m) @ t=0.9
0
% es.tEZ (V/m) @ t=0.9
-0.46181664146837664
% es.Ex (V/m) @ t=0.9
0.3376207924637501
% es.Ey (V/m) @ t=0.9
0.21786574769944017
% es.Ez (V/m) @ t=0.9
-0.46181664146837687
% es.tEx (V/m) @ t=0.9
0.3376207924637509
% es.tEy (V/m) @ t=0.9
0
% es.tEz (V/m) @ t=0.9
-0.46181664146837664
% V (V) @ t=0.9
0.012868398688399235
% es.normE (V/m) @ t=1
0.6622000951504057
% es.EX (V/m) @ t=1
0.3528178712791299
% es.EY (V/m) @ t=1
0.22767239123010943
% es.EZ (V/m) @ t=1
-0.482604055158514
% es.tEX (V/m) @ t=1
0.35281787127913034
% es.tEY (V/m) @ t=1
0
% es.tEZ (V/m) @ t=1
-0.482604055158512
% es.Ex (V/m) @ t=1
0.3528178712791299
% es.Ey (V/m) @ t=1
0.22767239123010943
% es.Ez (V/m) @ t=1
-0.482604055158514
% es.tEx (V/m) @ t=1
0.35281787127913034
% es.tEy (V/m) @ t=1
0
% es.tEz (V/m) @ t=1
-0.482604055158512
% V (V) @ t=1
0.01344763383171793
% es.normE (V/m) @ t=1.1
0.6936506440017749
% es.EX (V/m) @ t=1.1
0.36957289670270865
% es.EY (V/m) @ t=1.1
0.2384927535325134
% es.EZ (V/m) @ t=1.1
-0.5055207267758788
% es.tEX (V/m) @ t=1.1
0.36957289670270743
% es.tEY (V/m) @ t=1.1
0
% es.tEZ (V/m) @ t=1.1
-0.5055207267758892
% es.Ex (V/m) @ t=1.1
0.36957289670270865
% es.Ey (V/m) @ t=1.1
0.2384927535325134
% es.Ez (V/m) @ t=1.1
-0.5055207267758788
% es.tEx (V/m) @ t=1.1
0.36957289670270743
% es.tEy (V/m) @ t=1.1
0
% es.tEz (V/m) @ t=1.1
-0.5055207267758892
% V (V) @ t=1.1
0.014085721467782326
% es.normE (V/m) @ t=1.2
0.725521079933714
% es.EX (V/m) @ t=1.2
0.38655139059450394
% es.EY (V/m) @ t=1.2
0.24945852144760663
% es.EZ (V/m) @ t=1.2
-0.5287428145127517
% es.tEX (V/m) @ t=1.2
0.38655139059450283
% es.tEY (V/m) @ t=1.2
0
% es.tEZ (V/m) @ t=1.2
-0.5287428145127515
% es.Ex (V/m) @ t=1.2
0.38655139059450394
% es.Ey (V/m) @ t=1.2
0.24945852144760663
% es.Ez (V/m) @ t=1.2
-0.5287428145127517
% es.tEx (V/m) @ t=1.2
0.38655139059450283
% es.tEy (V/m) @ t=1.2
0
% es.tEz (V/m) @ t=1.2
-0.5287428145127515
% V (V) @ t=1.2
0.014732250777223408
% es.normE (V/m) @ t=1.3
0.7581310039208851
% es.EX (V/m) @ t=1.3
0.40392422873806555
% es.EY (V/m) @ t=1.3
0.2606770584705091
% es.EZ (V/m) @ t=1.3
-0.5525046713078143
% es.tEX (V/m) @ t=1.3
0.40392422873806577
% es.tEY (V/m) @ t=1.3
0
% es.tEZ (V/m) @ t=1.3
-0.552504671307823
% es.Ex (V/m) @ t=1.3
0.40392422873806555
% es.Ey (V/m) @ t=1.3
0.2606770584705091
% es.Ez (V/m) @ t=1.3
-0.5525046713078143
% es.tEx (V/m) @ t=1.3
0.40392422873806577
% es.tEy (V/m) @ t=1.3
0
% es.tEz (V/m) @ t=1.3
-0.552504671307823
% V (V) @ t=1.3
0.015393917727775291
% es.normE (V/m) @ t=1.4
0.793799583568964
% es.EX (V/m) @ t=1.4
0.42292814594222594
% es.EY (V/m) @ t=1.4
0.27294109418418977
% es.EZ (V/m) @ t=1.4
-0.5784991104327328
% es.tEX (V/m) @ t=1.4
0.4229281459422267
% es.tEY (V/m) @ t=1.4
0
% es.tEZ (V/m) @ t=1.4
-0.5784991104327397
% es.Ex (V/m) @ t=1.4
0.42292814594222594
% es.Ey (V/m) @ t=1.4
0.27294109418418977
% es.Ez (V/m) @ t=1.4
-0.5784991104327328
% es.tEx (V/m) @ t=1.4
0.4229281459422267
% es.tEy (V/m) @ t=1.4
0
% es.tEz (V/m) @ t=1.4
-0.5784991104327397
% V (V) @ t=1.4
0.01611819669646124
% es.normE (V/m) @ t=1.5
0.829468163217221
% es.EX (V/m) @ t=1.5
0.44193206314637923
% es.EY (V/m) @ t=1.5
0.285205129897865
% es.EZ (V/m) @ t=1.5
-0.6044935495576425
% es.tEX (V/m) @ t=1.5
0.44193206314637345
% es.tEY (V/m) @ t=1.5
0
% es.tEZ (V/m) @ t=1.5
-0.6044935495576529
% es.Ex (V/m) @ t=1.5
0.44193206314637923
% es.Ey (V/m) @ t=1.5
0.285205129897865
% es.Ez (V/m) @ t=1.5
-0.6044935495576425
% es.tEx (V/m) @ t=1.5
0.44193206314637345
% es.tEy (V/m) @ t=1.5
0
% es.tEz (V/m) @ t=1.5
-0.6044935495576529
% V (V) @ t=1.5
0.016842475665147186
% es.normE (V/m) @ t=1.6
0.8662138146532766
% es.EX (V/m) @ t=1.6
0.46151009797192133
% es.EY (V/m) @ t=1.6
0.2978383826260579
% es.EZ (V/m) @ t=1.6
-0.631273567779123
% es.tEX (V/m) @ t=1.6
0.46151009797192
% es.tEY (V/m) @ t=1.6
0
% es.tEZ (V/m) @ t=1.6
-0.6312735677791332
% es.Ex (V/m) @ t=1.6
0.46151009797192133
% es.Ey (V/m) @ t=1.6
0.2978383826260579
% es.Ez (V/m) @ t=1.6
-0.631273567779123
% es.tEx (V/m) @ t=1.6
0.46151009797192
% es.tEy (V/m) @ t=1.6
0
% es.tEz (V/m) @ t=1.6
-0.6312735677791332
% V (V) @ t=1.6
0.017588716535330066
% es.normE (V/m) @ t=1.7
0.9049664472989494
% es.EX (V/m) @ t=1.7
0.4821579252501602
% es.EY (V/m) @ t=1.7
0.311159622555492
% es.EZ (V/m) @ t=1.7
-0.6595174090173521
% es.tEX (V/m) @ t=1.7
0.4821579252501542
% es.tEY (V/m) @ t=1.7
0
% es.tEZ (V/m) @ t=1.7
-0.6595174090173659
% es.Ex (V/m) @ t=1.7
0.4821579252501602
% es.Ey (V/m) @ t=1.7
0.311159622555492
% es.Ez (V/m) @ t=1.7
-0.6595174090173521
% es.tEx (V/m) @ t=1.7
0.4821579252501542
% es.tEy (V/m) @ t=1.7
0
% es.tEz (V/m) @ t=1.7
-0.6595174090173659
% V (V) @ t=1.7
0.018375880511846774
% es.normE (V/m) @ t=1.8
0.9450287856574653
% es.EX (V/m) @ t=1.8
0.5035038722952119
% es.EY (V/m) @ t=1.8
0.3249298257051422
% es.EZ (V/m) @ t=1.8
-0.6887165045019621
% es.tEX (V/m) @ t=1.8
0.503503872295211
% es.tEY (V/m) @ t=1.8
0
% es.tEZ (V/m) @ t=1.8
-0.6887165045019619
% es.Ex (V/m) @ t=1.8
0.5035038722952119
% es.Ey (V/m) @ t=1.8
0.3249298257051422
% es.Ez (V/m) @ t=1.8
-0.6887165045019621
% es.tEx (V/m) @ t=1.8
0.503503872295211
% es.tEy (V/m) @ t=1.8
0
% es.tEz (V/m) @ t=1.8
-0.6887165045019619
% V (V) @ t=1.8
0.01918974988283528
% es.normE (V/m) @ t=1.9
0.9864008297579302
% es.EX (V/m) @ t=1.9
0.525547939107123
% es.EY (V/m) @ t=1.9
0.339148992075026
% es.EZ (V/m) @ t=1.9
-0.7188708542328959
% es.tEX (V/m) @ t=1.9
0.5255479391071209
% es.tEY (V/m) @ t=1.9
0
% es.tEZ (V/m) @ t=1.9
-0.7188708542329132
% es.Ex (V/m) @ t=1.9
0.525547939107123
% es.Ey (V/m) @ t=1.9
0.339148992075026
% es.Ez (V/m) @ t=1.9
-0.7188708542328959
% es.tEx (V/m) @ t=1.9
0.5255479391071209
% es.tEy (V/m) @ t=1.9
0
% es.tEz (V/m) @ t=1.9
-0.7188708542329132
% V (V) @ t=1.9
0.020030324648295593
% es.normE (V/m) @ t=2
1.0290825796336103
% es.EX (V/m) @ t=2
0.5482901256858508
% es.EY (V/m) @ t=2
0.35381712166511886
% es.EZ (V/m) @ t=2
-0.7499804582101965
% es.tEX (V/m) @ t=2
0.5482901256858428
% es.tEY (V/m) @ t=2
0
% es.tEZ (V/m) @ t=2
-0.7499804582102176
% es.Ex (V/m) @ t=2
0.5482901256858508
% es.Ey (V/m) @ t=2
0.35381712166511886
% es.Ez (V/m) @ t=2
-0.7499804582101965
% es.tEx (V/m) @ t=2
0.5482901256858428
% es.tEy (V/m) @ t=2
0
% es.tEz (V/m) @ t=2
-0.7499804582102176
% V (V) @ t=2
0.020897604808227707
% es.normE (V/m) @ t=2.1
1.0732857952870587
% es.EX (V/m) @ t=2.1
0.5718430505955554
% es.EY (V/m) @ t=2.1
0.3690078962683543
% es.EZ (V/m) @ t=2.1
-0.7821991469684488
% es.tEX (V/m) @ t=2.1
0.571843050595553
% es.tEY (V/m) @ t=2.1
0
% es.tEZ (V/m) @ t=2.1
-0.7821991469684484
% es.Ex (V/m) @ t=2.1
0.5718430505955554
% es.Ey (V/m) @ t=2.1
0.3690078962683543
% es.Ez (V/m) @ t=2.1
-0.7821991469684488
% es.tEx (V/m) @ t=2.1
0.571843050595553
% es.tEy (V/m) @ t=2.1
0
% es.tEz (V/m) @ t=2.1
-0.7821991469684484
% V (V) @ t=2.1
0.021795819150551145
% es.normE (V/m) @ t=2.2
1.1202380106798895
% es.EX (V/m) @ t=2.2
0.5968595431582577
% es.EY (V/m) @ t=2.2
0.3851484358297342
% es.EZ (V/m) @ t=2.2
-0.8164186481228453
% es.tEX (V/m) @ t=2.2
0.5968595431582555
% es.tEY (V/m) @ t=2.2
0
% es.tEZ (V/m) @ t=2.2
-0.8164186481228555
% es.Ex (V/m) @ t=2.2
0.5968595431582577
% es.Ey (V/m) @ t=2.2
0.3851484358297342
% es.Ez (V/m) @ t=2.2
-0.8164186481228453
% es.tEx (V/m) @ t=2.2
0.5968595431582555
% es.tEy (V/m) @ t=2.2
0
% es.tEz (V/m) @ t=2.2
-0.8164186481228555
% V (V) @ t=2.2
0.022749481189284996
% es.normE (V/m) @ t=2.3
1.168995003378253
% es.EX (V/m) @ t=2.3
0.6228374453324861
% es.EY (V/m) @ t=2.3
0.4019101985576749
% es.EZ (V/m) @ t=2.3
-0.8519530424328161
% es.tEX (V/m) @ t=2.3
0.6228374453324834
% es.tEY (V/m) @ t=2.3
0
% es.tEZ (V/m) @ t=2.3
-0.8519530424328265
% es.Ex (V/m) @ t=2.3
0.6228374453324861
% es.Ey (V/m) @ t=2.3
0.4019101985576749
% es.Ez (V/m) @ t=2.3
-0.8519530424328161
% es.tEx (V/m) @ t=2.3
0.6228374453324834
% es.tEy (V/m) @ t=2.3
0
% es.tEz (V/m) @ t=2.3
-0.8519530424328265
% V (V) @ t=2.3
0.023739735064598623
% es.normE (V/m) @ t=2.4
1.21955677337747
% es.EX (V/m) @ t=2.4
0.6497767571182431
% es.EY (V/m) @ t=2.4
0.4192931844521745
% es.EZ (V/m) @ t=2.4
-0.8888023298984034
% es.tEX (V/m) @ t=2.4
0.6497767571182358
% es.tEY (V/m) @ t=2.4
0
% es.tEZ (V/m) @ t=2.4
-0.8888023298984278
% es.Ex (V/m) @ t=2.4
0.6497767571182431
% es.Ey (V/m) @ t=2.4
0.4192931844521745
% es.Ez (V/m) @ t=2.4
-0.8888023298984034
% es.tEx (V/m) @ t=2.4
0.6497767571182358
% es.tEy (V/m) @ t=2.4
0
% es.tEz (V/m) @ t=2.4
-0.8888023298984278
% V (V) @ t=2.4
0.02476658077649205
% es.normE (V/m) @ t=2.5
1.2719233206756857
% es.EX (V/m) @ t=2.5
0.6776774785155031
% es.EY (V/m) @ t=2.5
0.4372973935132311
% es.EZ (V/m) @ t=2.5
-0.926966510519605
% es.tEX (V/m) @ t=2.5
0.6776774785154993
% es.tEY (V/m) @ t=2.5
0
% es.tEZ (V/m) @ t=2.5
-0.9269665105196045
% es.Ex (V/m) @ t=2.5
0.6776774785155031
% es.Ey (V/m) @ t=2.5
0.4372973935132311
% es.Ez (V/m) @ t=2.5
-0.926966510519605
% es.tEx (V/m) @ t=2.5
0.6776774785154993
% es.tEy (V/m) @ t=2.5
0
% es.tEz (V/m) @ t=2.5
-0.9269665105196045
% V (V) @ t=2.5
0.02583001832496525
% es.normE (V/m) @ t=2.6
1.3260946452733542
% es.EX (V/m) @ t=2.6
0.7065396095242984
% es.EY (V/m) @ t=2.6
0.45592282574085374
% es.EZ (V/m) @ t=2.6
-0.9664455842963808
% es.tEX (V/m) @ t=2.6
0.7065396095242993
% es.tEY (V/m) @ t=2.6
0
% es.tEZ (V/m) @ t=2.6
-0.9664455842963839
% es.Ex (V/m) @ t=2.6
0.7065396095242984
% es.Ey (V/m) @ t=2.6
0.45592282574085374
% es.Ez (V/m) @ t=2.6
-0.9664455842963808
% es.tEx (V/m) @ t=2.6
0.7065396095242993
% es.tEy (V/m) @ t=2.6
0
% es.tEz (V/m) @ t=2.6
-0.9664455842963839
% V (V) @ t=2.6
0.026930047710018237
% es.normE (V/m) @ t=2.7
1.3830525959059279
% es.EX (V/m) @ t=2.7
0.7368863530186367
% es.EY (V/m) @ t=2.7
0.4755067242584331
% es.EZ (V/m) @ t=2.7
-1.0079552981888187
% es.tEX (V/m) @ t=2.7
0.7368863530186376
% es.tEY (V/m) @ t=2.7
0
% es.tEZ (V/m) @ t=2.7
-1.0079552981888291
% es.Ex (V/m) @ t=2.7
0.7368863530186367
% es.Ey (V/m) @ t=2.7
0.4755067242584331
% es.Ez (V/m) @ t=2.7
-1.0079552981888187
% es.tEx (V/m) @ t=2.7
0.7368863530186376
% es.tEy (V/m) @ t=2.7
0
% es.tEz (V/m) @ t=2.7
-1.0079552981888291
% V (V) @ t=2.7
0.02808663463937628
% es.normE (V/m) @ t=2.8
1.4424279420639725
% es.EX (V/m) @ t=2.8
0.7685209552031678
% es.EY (V/m) @ t=2.8
0.49592226662717714
% es.EZ (V/m) @ t=2.8
-1.0512264909635505
% es.tEX (V/m) @ t=2.8
0.7685209552031655
% es.tEY (V/m) @ t=2.8
0
% es.tEZ (V/m) @ t=2.8
-1.0512264909635571
% es.Ex (V/m) @ t=2.8
0.7685209552031678
% es.Ey (V/m) @ t=2.8
0.49592226662717714
% es.Ez (V/m) @ t=2.8
-1.0512264909635505
% es.tEx (V/m) @ t=2.8
0.7685209552031655
% es.tEy (V/m) @ t=2.8
0
% es.tEz (V/m) @ t=2.8
-1.0512264909635571
% V (V) @ t=2.8
0.02929227088063765
% es.normE (V/m) @ t=2.9
1.504009162708884
% es.EX (V/m) @ t=2.9
0.8013307017532199
% es.EY (V/m) @ t=2.9
0.517096800090761
% es.EZ (V/m) @ t=2.9
-1.0961049682549118
% es.tEX (V/m) @ t=2.9
0.8013307017532174
% es.tEY (V/m) @ t=2.9
0
% es.tEZ (V/m) @ t=2.9
-1.096104968254922
% es.Ex (V/m) @ t=2.9
0.8013307017532199
% es.Ey (V/m) @ t=2.9
0.517096800090761
% es.Ez (V/m) @ t=2.9
-1.0961049682549118
% es.tEx (V/m) @ t=2.9
0.8013307017532174
% es.tEy (V/m) @ t=2.9
0
% es.tEz (V/m) @ t=2.9
-1.096104968254922
% V (V) @ t=2.9
0.030542655193547416
% es.normE (V/m) @ t=3
1.5677962578444662
% es.EX (V/m) @ t=3
0.835315592668791
% es.EY (V/m) @ t=3
0.5390303246491636
% es.EZ (V/m) @ t=3
-1.142590730062969
% es.tEX (V/m) @ t=3
0.8353155926687914
% es.tEY (V/m) @ t=3
0
% es.tEZ (V/m) @ t=3
-1.142590730062972
% es.Ex (V/m) @ t=3
0.835315592668791
% es.Ey (V/m) @ t=3
0.5390303246491636
% es.Ez (V/m) @ t=3
-1.142590730062969
% es.tEx (V/m) @ t=3
0.8353155926687914
% es.tEy (V/m) @ t=3
0
% es.tEz (V/m) @ t=3
-1.142590730062972
% V (V) @ t=3
0.03183778757810558
% es.normE (V/m) @ t=3.1
1.633789227474867
% es.EX (V/m) @ t=3.1
0.8704756279498727
% es.EY (V/m) @ t=3.1
0.5617228403023916
% es.EZ (V/m) @ t=3.1
-1.1906837763876483
% es.tEX (V/m) @ t=3.1
0.8704756279498609
% es.tEY (V/m) @ t=3.1
0
% es.tEZ (V/m) @ t=3.1
-1.190683776387651
% es.Ex (V/m) @ t=3.1
0.8704756279498727
% es.Ey (V/m) @ t=3.1
0.5617228403023916
% es.Ez (V/m) @ t=3.1
-1.1906837763876483
% es.tEx (V/m) @ t=3.1
0.8704756279498609
% es.tEy (V/m) @ t=3.1
0
% es.tEz (V/m) @ t=3.1
-1.190683776387651
% V (V) @ t=3.1
0.033177668034312144
% es.normE (V/m) @ t=3.2
1.702276464383968
% es.EX (V/m) @ t=3.2
0.9069650062744001
% es.EY (V/m) @ t=3.2
0.5852711906885529
% es.EZ (V/m) @ t=3.2
-1.2405955966648574
% es.tEX (V/m) @ t=3.2
0.9069650062743939
% es.tEY (V/m) @ t=3.2
0
% es.tEZ (V/m) @ t=3.2
-1.2405955966648712
% es.Ex (V/m) @ t=3.2
0.9069650062744001
% es.Ey (V/m) @ t=3.2
0.5852711906885529
% es.Ez (V/m) @ t=3.2
-1.2405955966648574
% es.tEx (V/m) @ t=3.2
0.9069650062743939
% es.tEy (V/m) @ t=3.2
0
% es.tEz (V/m) @ t=3.2
-1.2405955966648712
% V (V) @ t=3.2
0.034568341629696846
% es.normE (V/m) @ t=3.3
1.7735070856131436
% es.EX (V/m) @ t=3.3
0.9449169262573034
% es.EY (V/m) @ t=3.3
0.6097590304707863
% es.EZ (V/m) @ t=3.3
-1.2925088779340919
% es.tEX (V/m) @ t=3.3
0.9449169262573012
% es.tEY (V/m) @ t=3.3
0
% es.tEZ (V/m) @ t=3.3
-1.2925088779341198
% es.Ex (V/m) @ t=3.3
0.9449169262573034
% es.Ey (V/m) @ t=3.3
0.6097590304707863
% es.Ez (V/m) @ t=3.3
-1.2925088779340919
% es.tEx (V/m) @ t=3.3
0.9449169262573012
% es.tEy (V/m) @ t=3.3
0
% es.tEz (V/m) @ t=3.3
-1.2925088779341198
% V (V) @ t=3.3
0.03601503016404023
% es.normE (V/m) @ t=3.4
1.8471720122579782
% es.EX (V/m) @ t=3.4
0.9841661287013208
% es.EY (V/m) @ t=3.4
0.6350825695122412
% es.EZ (V/m) @ t=3.4
-1.346196960830396
% es.tEX (V/m) @ t=3.4
0.9841661287013226
% es.tEY (V/m) @ t=3.4
0
% es.tEZ (V/m) @ t=3.4
-1.346196960830392
% es.Ex (V/m) @ t=3.4
0.9841661287013208
% es.Ey (V/m) @ t=3.4
0.6350825695122412
% es.Ez (V/m) @ t=3.4
-1.346196960830396
% es.tEx (V/m) @ t=3.4
0.9841661287013226
% es.tEy (V/m) @ t=3.4
0
% es.tEz (V/m) @ t=3.4
-1.346196960830392
% V (V) @ t=3.4
0.03751125496307055
% es.normE (V/m) @ t=3.5
1.9232712443294175
% es.EX (V/m) @ t=3.5
1.0247126136065237
% es.EY (V/m) @ t=3.5
0.6612418078128892
% es.EZ (V/m) @ t=3.5
-1.4016598453536964
% es.tEX (V/m) @ t=3.5
1.024712613606508
% es.tEY (V/m) @ t=3.5
0
% es.tEZ (V/m) @ t=3.5
-1.4016598453537243
% es.Ex (V/m) @ t=3.5
1.0247126136065237
% es.Ey (V/m) @ t=3.5
0.6612418078128892
% es.Ez (V/m) @ t=3.5
-1.4016598453536964
% es.tEx (V/m) @ t=3.5
1.024712613606508
% es.tEy (V/m) @ t=3.5
0
% es.tEz (V/m) @ t=3.5
-1.4016598453537243
% V (V) @ t=3.5
0.03905701602678775
% es.normE (V/m) @ t=3.6
2.001804781840706
% es.EX (V/m) @ t=3.6
1.0665563809728562
% es.EY (V/m) @ t=3.6
0.6882367453727296
% es.EZ (V/m) @ t=3.6
-1.4588975315040877
% es.tEX (V/m) @ t=3.6
1.0665563809728473
% es.tEY (V/m) @ t=3.6
0
% es.tEZ (V/m) @ t=3.6
-1.4588975315040837
% es.Ex (V/m) @ t=3.6
1.0665563809728562
% es.Ey (V/m) @ t=3.6
0.6882367453727296
% es.Ez (V/m) @ t=3.6
-1.4588975315040877
% es.tEx (V/m) @ t=3.6
1.0665563809728473
% es.tEy (V/m) @ t=3.6
0
% es.tEz (V/m) @ t=3.6
-1.4588975315040837
% V (V) @ t=3.6
0.04065231335519189
% es.normE (V/m) @ t=3.7
2.082749705739892
% es.EX (V/m) @ t=3.7
1.1096851163845312
% es.EY (V/m) @ t=3.7
0.7160599405079825
% es.EZ (V/m) @ t=3.7
-1.5178930671892399
% es.tEX (V/m) @ t=3.7
1.1096851163845285
% es.tEY (V/m) @ t=3.7
0
% es.tEZ (V/m) @ t=3.7
-1.517893067189246
% es.Ex (V/m) @ t=3.7
1.1096851163845312
% es.Ey (V/m) @ t=3.7
0.7160599405079825
% es.Ez (V/m) @ t=3.7
-1.5178930671892399
% es.tEx (V/m) @ t=3.7
1.1096851163845285
% es.tEy (V/m) @ t=3.7
0
% es.tEz (V/m) @ t=3.7
-1.517893067189246
% V (V) @ t=3.7
0.042296645747524154
% es.normE (V/m) @ t=3.8
2.1657548568457106
% es.EX (V/m) @ t=3.8
1.1539101419993911
% es.EY (V/m) @ t=3.8
0.7445973739378955
% es.EZ (V/m) @ t=3.8
-1.5783867174580504
% es.tEX (V/m) @ t=3.8
1.1539101419993871
% es.tEY (V/m) @ t=3.8
0
% es.tEZ (V/m) @ t=3.8
-1.5783867174580566
% es.Ex (V/m) @ t=3.8
1.1539101419993911
% es.Ey (V/m) @ t=3.8
0.7445973739378955
% es.Ez (V/m) @ t=3.8
-1.5783867174580504
% es.tEx (V/m) @ t=3.8
1.1539101419993871
% es.tEy (V/m) @ t=3.8
0
% es.tEz (V/m) @ t=3.8
-1.5783867174580566
% V (V) @ t=3.8
0.043982333953787825
% es.normE (V/m) @ t=3.9
2.2509957950850445
% es.EX (V/m) @ t=3.9
1.1993257861833344
% es.EY (V/m) @ t=3.9
0.7739060489242308
% es.EZ (V/m) @ t=3.9
-1.6405083352558378
% es.tEX (V/m) @ t=3.9
1.1993257861833184
% es.tEY (V/m) @ t=3.9
0
% es.tEZ (V/m) @ t=3.9
-1.640508335255837
% es.Ex (V/m) @ t=3.9
1.1993257861833344
% es.Ey (V/m) @ t=3.9
0.7739060489242308
% es.Ez (V/m) @ t=3.9
-1.6405083352558378
% es.tEx (V/m) @ t=3.9
1.1993257861833184
% es.tEy (V/m) @ t=3.9
0
% es.tEz (V/m) @ t=3.9
-1.640508335255837
% V (V) @ t=3.9
0.045713217169382175
% es.normE (V/m) @ t=4
2.338441673998693
% es.EX (V/m) @ t=4
1.245915475123181
% es.EY (V/m) @ t=4
0.8039759498010471
% es.EZ (V/m) @ t=4
-1.704235104980612
% es.tEX (V/m) @ t=4
1.245915475123164
% es.tEY (V/m) @ t=4
0
% es.tEZ (V/m) @ t=4
-1.7042351049806186
% es.Ex (V/m) @ t=4
1.245915475123181
% es.Ey (V/m) @ t=4
0.8039759498010471
% es.Ez (V/m) @ t=4
-1.704235104980612
% es.tEx (V/m) @ t=4
1.245915475123164
% es.tEy (V/m) @ t=4
0
% es.tEz (V/m) @ t=4
-1.7042351049806186
% V (V) @ t=4
0.04748862083468275
% es.normE (V/m) @ t=4.1
2.4280616471529535
% es.EX (V/m) @ t=4.1
1.293662635005893
% es.EY (V/m) @ t=4.1
0.8347970609022626
% es.EZ (V/m) @ t=4.1
-1.769544211030487
% es.tEX (V/m) @ t=4.1
1.2936626350058793
% es.tEY (V/m) @ t=4.1
0
% es.tEZ (V/m) @ t=4.1
-1.7695442110304862
% es.Ex (V/m) @ t=4.1
1.293662635005893
% es.Ey (V/m) @ t=4.1
0.8347970609022626
% es.Ez (V/m) @ t=4.1
-1.769544211030487
% es.tEx (V/m) @ t=4.1
1.2936626350058793
% es.tEy (V/m) @ t=4.1
0
% es.tEz (V/m) @ t=4.1
-1.7695442110304862
% V (V) @ t=4.1
0.04930787039006514
% es.normE (V/m) @ t=4.2
2.519824868148457
% es.EX (V/m) @ t=4.2
1.342550692018332
% es.EY (V/m) @ t=4.2
0.866359366561876
% es.EZ (V/m) @ t=4.2
-1.8364128378034197
% es.tEX (V/m) @ t=4.2
1.3425506920183308
% es.tEY (V/m) @ t=4.2
0
% es.tEZ (V/m) @ t=4.2
-1.836412837803433
% es.Ex (V/m) @ t=4.2
1.342550692018332
% es.Ey (V/m) @ t=4.2
0.866359366561876
% es.Ez (V/m) @ t=4.2
-1.8364128378034197
% es.tEx (V/m) @ t=4.2
1.3425506920183308
% es.tEy (V/m) @ t=4.2
0
% es.tEz (V/m) @ t=4.2
-1.836412837803433
% V (V) @ t=4.2
0.05117029127590484
% es.normE (V/m) @ t=4.3
2.6126817615330378
% es.EX (V/m) @ t=4.3
1.392023102348321
% es.EY (V/m) @ t=4.3
0.8982906921661862
% es.EZ (V/m) @ t=4.3
-1.9040824964916032
% es.tEX (V/m) @ t=4.3
1.392023102348305
% es.tEY (V/m) @ t=4.3
0
% es.tEZ (V/m) @ t=4.3
-1.9040824964915668
% es.Ex (V/m) @ t=4.3
1.392023102348321
% es.Ey (V/m) @ t=4.3
0.8982906921661862
% es.Ez (V/m) @ t=4.3
-1.9040824964916032
% es.tEx (V/m) @ t=4.3
1.392023102348305
% es.tEy (V/m) @ t=4.3
0
% es.tEz (V/m) @ t=4.3
-1.9040824964915668
% V (V) @ t=4.3
0.053055493216970194
% es.normE (V/m) @ t=4.4
2.7065662982651277
% es.EX (V/m) @ t=4.4
1.4420446439520744
% es.EY (V/m) @ t=4.4
0.9305685146438187
% es.EZ (V/m) @ t=4.4
-1.9725049645187047
% es.tEX (V/m) @ t=4.4
1.4420446439520607
% es.tEY (V/m) @ t=4.4
0
% es.tEZ (V/m) @ t=4.4
-1.9725049645187038
% es.Ex (V/m) @ t=4.4
1.4420446439520744
% es.Ey (V/m) @ t=4.4
0.9305685146438187
% es.Ez (V/m) @ t=4.4
-1.9725049645187047
% es.tEx (V/m) @ t=4.4
1.4420446439520607
% es.tEy (V/m) @ t=4.4
0
% es.tEz (V/m) @ t=4.4
-1.9725049645187038
% V (V) @ t=4.4
0.05496212075800241
% es.normE (V/m) @ t=4.5
2.80163248152347
% es.EX (V/m) @ t=4.5
1.4926967212352311
% es.EY (V/m) @ t=4.5
0.9632485325142429
% es.EZ (V/m) @ t=4.5
-2.0417909150892237
% es.tEX (V/m) @ t=4.5
1.4926967212352142
% es.tEY (V/m) @ t=4.5
0
% es.tEZ (V/m) @ t=4.5
-2.0417909150892726
% es.Ex (V/m) @ t=4.5
1.4926967212352311
% es.Ey (V/m) @ t=4.5
0.9632485325142429
% es.Ez (V/m) @ t=4.5
-2.0417909150892237
% es.tEx (V/m) @ t=4.5
1.4926967212352142
% es.tEy (V/m) @ t=4.5
0
% es.tEz (V/m) @ t=4.5
-2.0417909150892726
% V (V) @ t=4.5
0.0568930767801682
% es.normE (V/m) @ t=4.6
2.897726646148028
% es.EX (V/m) @ t=4.6
1.543897661192669
% es.EY (V/m) @ t=4.6
0.9962770679542641
% es.EZ (V/m) @ t=4.6
-2.1118288392819418
% es.tEX (V/m) @ t=4.6
1.5438976611926511
% es.tEY (V/m) @ t=4.6
0
% es.tEZ (V/m) @ t=4.6
-2.1118288392819693
% es.Ex (V/m) @ t=4.6
1.543897661192669
% es.Ey (V/m) @ t=4.6
0.9962770679542641
% es.Ez (V/m) @ t=4.6
-2.1118288392819418
% es.tEx (V/m) @ t=4.6
1.5438976611926511
% es.tEy (V/m) @ t=4.6
0
% es.tEz (V/m) @ t=4.6
-2.1118288392819693
% V (V) @ t=4.6
0.05884530978223278
% es.normE (V/m) @ t=4.7
2.9946951270300968
% es.EX (V/m) @ t=4.7
1.5955657908190313
% es.EY (V/m) @ t=4.7
1.0296004431409231
% es.EZ (V/m) @ t=4.7
-2.182507228175889
% es.tEX (V/m) @ t=4.7
1.5955657908190224
% es.tEY (V/m) @ t=4.7
0
% es.tEZ (V/m) @ t=4.7
-2.1825072281759095
% es.Ex (V/m) @ t=4.7
1.5955657908190313
% es.Ey (V/m) @ t=4.7
1.0296004431409231
% es.Ez (V/m) @ t=4.7
-2.182507228175889
% es.tEx (V/m) @ t=4.7
1.5955657908190224
% es.tEy (V/m) @ t=4.7
0
% es.tEz (V/m) @ t=4.7
-2.1825072281759095
% V (V) @ t=4.7
0.06081576826296126
% es.normE (V/m) @ t=4.8
3.09179278391722
% es.EX (V/m) @ t=4.8
1.6473027547550942
% es.EY (V/m) @ t=4.8
1.0629681884669377
% es.EZ (V/m) @ t=4.8
-2.2532797829721316
% es.tEX (V/m) @ t=4.8
1.6473027547550876
% es.tEY (V/m) @ t=4.8
0
% es.tEZ (V/m) @ t=4.8
-2.2532797829721307
% es.Ex (V/m) @ t=4.8
1.6473027547550942
% es.Ey (V/m) @ t=4.8
1.0629681884669377
% es.Ez (V/m) @ t=4.8
-2.2532797829721316
% es.tEx (V/m) @ t=4.8
1.6473027547550876
% es.tEy (V/m) @ t=4.8
0
% es.tEz (V/m) @ t=4.8
-2.2532797829721307
% V (V) @ t=4.8
0.06278885344026078
% es.normE (V/m) @ t=4.9
3.18775754736973
% es.EX (V/m) @ t=4.9
1.6984334281519864
% es.EY (V/m) @ t=4.9
1.0959578450719163
% es.EZ (V/m) @ t=4.9
-2.3232202134662847
% es.tEX (V/m) @ t=4.9
1.6984334281519704
% es.tEY (V/m) @ t=4.9
0
% es.tEZ (V/m) @ t=4.9
-2.323220213466305
% es.Ex (V/m) @ t=4.9
1.6984334281519864
% es.Ey (V/m) @ t=4.9
1.0959578450719163
% es.Ez (V/m) @ t=4.9
-2.3232202134662847
% es.tEx (V/m) @ t=4.9
1.6984334281519704
% es.tEy (V/m) @ t=4.9
0
% es.tEz (V/m) @ t=4.9
-2.323220213466305
% V (V) @ t=4.9
0.06473800063994131
% es.normE (V/m) @ t=5
3.2830797470863375
% es.EX (V/m) @ t=5
1.7492209400129792
% es.EY (V/m) @ t=5
1.1287300009467767
% es.EZ (V/m) @ t=5
-2.3926904075701207
% es.tEX (V/m) @ t=5
1.7492209400129557
% es.tEY (V/m) @ t=5
0
% es.tEZ (V/m) @ t=5
-2.3926904075701625
% es.Ex (V/m) @ t=5
1.7492209400129792
% es.Ey (V/m) @ t=5
1.1287300009467767
% es.Ez (V/m) @ t=5
-2.3926904075701207
% es.tEx (V/m) @ t=5
1.7492209400129557
% es.tEy (V/m) @ t=5
0
% es.tEz (V/m) @ t=5
-2.3926904075701625
% V (V) @ t=5
0.0666738197712977
% es.normE (V/m) @ t=5.1
3.377448504594898
% es.EX (V/m) @ t=5.1
1.799499443601678
% es.EY (V/m) @ t=5.1
1.161178671284781
% es.EZ (V/m) @ t=5.1
-2.4614632898148257
% es.tEX (V/m) @ t=5.1
1.7994994436016718
% es.tEY (V/m) @ t=5.1
0
% es.tEZ (V/m) @ t=5.1
-2.461463289814846
% es.Ex (V/m) @ t=5.1
1.799499443601678
% es.Ey (V/m) @ t=5.1
1.161178671284781
% es.Ez (V/m) @ t=5.1
-2.4614632898148257
% es.tEx (V/m) @ t=5.1
1.7994994436016718
% es.tEy (V/m) @ t=5.1
0
% es.tEz (V/m) @ t=5.1
-2.461463289814846
% V (V) @ t=5.1
0.06858992428321088
% es.normE (V/m) @ t=5.2
3.4705529414547245
% es.EX (V/m) @ t=5.2
1.8491030921812621
% es.EY (V/m) @ t=5.2
1.1931978712788385
% es.EZ (V/m) @ t=5.2
-2.5293117847318234
% es.tEX (V/m) @ t=5.2
1.8491030921812577
% es.tEY (V/m) @ t=5.2
0
% es.tEZ (V/m) @ t=5.2
-2.529311784731844
% es.Ex (V/m) @ t=5.2
1.8491030921812621
% es.Ey (V/m) @ t=5.2
1.1931978712788385
% es.Ez (V/m) @ t=5.2
-2.5293117847318234
% es.tEx (V/m) @ t=5.2
1.8491030921812577
% es.tEy (V/m) @ t=5.2
0
% es.tEz (V/m) @ t=5.2
-2.529311784731844
% V (V) @ t=5.2
0.07047992762456173
% es.normE (V/m) @ t=5.3
3.5620821792731805
% es.EX (V/m) @ t=5.3
1.897866039015339
% es.EY (V/m) @ t=5.3
1.2246816161222462
% es.EZ (V/m) @ t=5.3
-2.596008816852067
% es.tEX (V/m) @ t=5.3
1.897866039015332
% es.tEY (V/m) @ t=5.3
0
% es.tEZ (V/m) @ t=5.3
-2.5960088168520876
% es.Ex (V/m) @ t=5.3
1.897866039015339
% es.Ey (V/m) @ t=5.3
1.2246816161222462