% Model:              1x1--2 - Copy1.mph
% Version:            COMSOL 6.1.0.252
% Date:               Apr 3 2023, 14:45
% Dimension:          0
% Nodes:              14017
% Expressions:        14017
% Description:        Electric field norm, Electric field, X component, Electric field, Y component, Electric field, Z component, Tangential electric field, X component, Tangential electric field, Y component, Tangential electric field, Z component, Electric field, x component, Electric field, y component, Electric field, z component, Tangential electric field, x component, Tangential electric field, y component, Tangential electric field, z component, Electric potential
% Length unit:        mm
% x
0.9999999999999998
% y
12.2
% z
1.33
% es.normE (V/m) @ t=0
0.3164998447763621
% es.EX (V/m) @ t=0
0.20875232303383662
% es.EY (V/m) @ t=0
0.13660492227208842
% es.EZ (V/m) @ t=0
-0.15735433659194387
% es.tEX (V/m) @ t=0
0.20875232303383662
% es.tEY (V/m) @ t=0
0
% es.tEZ (V/m) @ t=0
-0.15735433659194387
% es.Ex (V/m) @ t=0
0.20875232303383662
% es.Ey (V/m) @ t=0
0.13660492227208842
% es.Ez (V/m) @ t=0
-0.15735433659194387
% es.tEx (V/m) @ t=0
0.20875232303383662
% es.tEy (V/m) @ t=0
0
% es.tEz (V/m) @ t=0
-0.15735433659194387
% V (V) @ t=0
0.008839969855086479
% es.normE (V/m) @ t=0.1
0.3214251626464575
% es.EX (V/m) @ t=0.1
0.21200089037844094
% es.EY (V/m) @ t=0.1
0.13873074756357306
% es.EZ (V/m) @ t=0.1
-0.15980305758729063
% es.tEX (V/m) @ t=0.1
0.21200089037844116
% es.tEY (V/m) @ t=0.1
0
% es.tEZ (V/m) @ t=0.1
-0.15980305758729063
% es.Ex (V/m) @ t=0.1
0.21200089037844094
% es.Ey (V/m) @ t=0.1
0.13873074756357306
% es.Ez (V/m) @ t=0.1
-0.15980305758729063
% es.tEx (V/m) @ t=0.1
0.21200089037844116
% es.tEy (V/m) @ t=0.1
0
% es.tEz (V/m) @ t=0.1
-0.15980305758729063
% V (V) @ t=0.1
0.008977535715055485
% es.normE (V/m) @ t=0.2
0.3367235918959293
% es.EX (V/m) @ t=0.2
0.22209111774419288
% es.EY (V/m) @ t=0.2
0.14533384581361064
% es.EZ (V/m) @ t=0.2
-0.16740893226596532
% es.tEX (V/m) @ t=0.2
0.2220911177441931
% es.tEY (V/m) @ t=0.2
0
% es.tEZ (V/m) @ t=0.2
-0.16740893226596532
% es.Ex (V/m) @ t=0.2
0.22209111774419288
% es.Ey (V/m) @ t=0.2
0.14533384581361064
% es.Ez (V/m) @ t=0.2
-0.16740893226596532
% es.tEx (V/m) @ t=0.2
0.2220911177441931
% es.tEy (V/m) @ t=0.2
0
% es.tEz (V/m) @ t=0.2
-0.16740893226596532
% V (V) @ t=0.2
0.009404812998620492
% es.normE (V/m) @ t=0.3
0.35246923909642086
% es.EX (V/m) @ t=0.3
0.23247625311533415
% es.EY (V/m) @ t=0.3
0.15213005583092376
% es.EZ (V/m) @ t=0.3
-0.17523711450806312
% es.tEX (V/m) @ t=0.3
0.23247625311533415
% es.tEY (V/m) @ t=0.3
0
% es.tEZ (V/m) @ t=0.3
-0.17523711450806312
% es.Ex (V/m) @ t=0.3
0.23247625311533415
% es.Ey (V/m) @ t=0.3
0.15213005583092376
% es.Ez (V/m) @ t=0.3
-0.17523711450806312
% es.tEx (V/m) @ t=0.3
0.23247625311533415
% es.tEy (V/m) @ t=0.3
0
% es.tEz (V/m) @ t=0.3
-0.17523711450806312
% V (V) @ t=0.3
0.009844571279999303
% es.normE (V/m) @ t=0.4
0.36912666022766083
% es.EX (V/m) @ t=0.4
0.2434629700012727
% es.EY (V/m) @ t=0.4
0.1593195029071237
% es.EZ (V/m) @ t=0.4
-0.18351872529120694
% es.tEX (V/m) @ t=0.4
0.24346297000127293
% es.tEY (V/m) @ t=0.4
0
% es.tEZ (V/m) @ t=0.4
-0.18351872529120694
% es.Ex (V/m) @ t=0.4
0.2434629700012727
% es.Ey (V/m) @ t=0.4
0.1593195029071237
% es.Ez (V/m) @ t=0.4
-0.18351872529120694
% es.tEx (V/m) @ t=0.4
0.24346297000127293
% es.tEy (V/m) @ t=0.4
0
% es.tEz (V/m) @ t=0.4
-0.18351872529120694
% V (V) @ t=0.4
0.01030982958164305
% es.normE (V/m) @ t=0.5
0.38691410077853583
% es.EX (V/m) @ t=0.5
0.25519500120071736
% es.EY (V/m) @ t=0.5
0.16699668961137393
% es.EZ (V/m) @ t=0.5
-0.19236214389906214
% es.tEX (V/m) @ t=0.5
0.2551950012007176
% es.tEY (V/m) @ t=0.5
0
% es.tEZ (V/m) @ t=0.5
-0.19236214389906214
% es.Ex (V/m) @ t=0.5
0.25519500120071736
% es.Ey (V/m) @ t=0.5
0.16699668961137393
% es.Ez (V/m) @ t=0.5
-0.19236214389906214
% es.tEx (V/m) @ t=0.5
0.2551950012007176
% es.tEy (V/m) @ t=0.5
0
% es.tEz (V/m) @ t=0.5
-0.19236214389906214
% V (V) @ t=0.5
0.01080664858797674
% es.normE (V/m) @ t=0.6
0.40569548052569027
% es.EX (V/m) @ t=0.6
0.2675825937974987
% es.EY (V/m) @ t=0.6
0.1751028809198658
% es.EZ (V/m) @ t=0.6
-0.20169971580025248
% es.tEX (V/m) @ t=0.6
0.2675825937974987
% es.tEY (V/m) @ t=0.6
0
% es.tEZ (V/m) @ t=0.6
-0.20169971580025248
% es.Ex (V/m) @ t=0.6
0.2675825937974987
% es.Ey (V/m) @ t=0.6
0.1751028809198658
% es.Ez (V/m) @ t=0.6
-0.20169971580025248
% es.tEx (V/m) @ t=0.6
0.2675825937974987
% es.tEy (V/m) @ t=0.6
0
% es.tEz (V/m) @ t=0.6
-0.20169971580025248
% V (V) @ t=0.6
0.011331227667197524
% es.normE (V/m) @ t=0.7
0.42447686027284104
% es.EX (V/m) @ t=0.7
0.2799701863942512
% es.EY (V/m) @ t=0.7
0.18320907222835991
% es.EZ (V/m) @ t=0.7
-0.21103728770143526
% es.tEX (V/m) @ t=0.7
0.2799701863942514
% es.tEY (V/m) @ t=0.7
0
% es.tEZ (V/m) @ t=0.7
-0.21103728770143526
% es.Ex (V/m) @ t=0.7
0.2799701863942512
% es.Ey (V/m) @ t=0.7
0.18320907222835991
% es.Ez (V/m) @ t=0.7
-0.21103728770143526
% es.tEx (V/m) @ t=0.7
0.2799701863942514
% es.tEy (V/m) @ t=0.7
0
% es.tEz (V/m) @ t=0.7
-0.21103728770143526
% V (V) @ t=0.7
0.011855806746418307
% es.normE (V/m) @ t=0.8
0.44446007302164287
% es.EX (V/m) @ t=0.8
0.29315043731690515
% es.EY (V/m) @ t=0.8
0.1918340296709249
% es.EZ (V/m) @ t=0.8
-0.22097235826338402
% es.tEX (V/m) @ t=0.8
0.2931504373169054
% es.tEY (V/m) @ t=0.8
0
% es.tEZ (V/m) @ t=0.8
-0.22097235826338402
% es.Ex (V/m) @ t=0.8
0.29315043731690515
% es.Ey (V/m) @ t=0.8
0.1918340296709249
% es.Ez (V/m) @ t=0.8
-0.22097235826338402
% es.tEx (V/m) @ t=0.8
0.2931504373169054
% es.tEy (V/m) @ t=0.8
0
% es.tEz (V/m) @ t=0.8
-0.22097235826338402
% V (V) @ t=0.8
0.012413948765057735
% es.normE (V/m) @ t=0.9
0.46540920614097314
% es.EX (V/m) @ t=0.9
0.3069677524762817
% es.EY (V/m) @ t=0.9
0.20087592255775766
% es.EZ (V/m) @ t=0.9
-0.23138764207210727
% es.tEX (V/m) @ t=0.9
0.3069677524762817
% es.tEY (V/m) @ t=0.9
0
% es.tEZ (V/m) @ t=0.9
-0.23138764207210727
% es.Ex (V/m) @ t=0.9
0.3069677524762817
% es.Ey (V/m) @ t=0.9
0.20087592255775766
% es.Ez (V/m) @ t=0.9
-0.23138764207210727
% es.tEx (V/m) @ t=0.9
0.3069677524762817
% es.tEy (V/m) @ t=0.9
0
% es.tEz (V/m) @ t=0.9
-0.23138764207210727
% V (V) @ t=0.9
0.012999065518819061
% es.normE (V/m) @ t=1
0.4863583392602975
% es.EX (V/m) @ t=1
0.32078506763566117
% es.EY (V/m) @ t=1
0.20991781544456778
% es.EZ (V/m) @ t=1
-0.24180292588082075
% es.tEX (V/m) @ t=1
0.3207850676356614
% es.tEY (V/m) @ t=1
0
% es.tEZ (V/m) @ t=1
-0.24180292588082075
% es.Ex (V/m) @ t=1
0.32078506763566117
% es.Ey (V/m) @ t=1
0.20991781544456778
% es.Ez (V/m) @ t=1
-0.24180292588082075
% es.tEx (V/m) @ t=1
0.3207850676356614
% es.tEy (V/m) @ t=1
0
% es.tEz (V/m) @ t=1
-0.24180292588082075
% V (V) @ t=1
0.013584182272580386
% es.normE (V/m) @ t=1.1
0.5094606630310854
% es.EX (V/m) @ t=1.1
0.33601836743898295
% es.EY (V/m) @ t=1.1
0.21989501346536056
% es.EZ (V/m) @ t=1.1
-0.2532862509629137
% es.tEX (V/m) @ t=1.1
0.33601836743898317
% es.tEY (V/m) @ t=1.1
0
% es.tEZ (V/m) @ t=1.1
-0.2532862509629137
% es.Ex (V/m) @ t=1.1
0.33601836743898295
% es.Ey (V/m) @ t=1.1
0.21989501346536056
% es.Ez (V/m) @ t=1.1
-0.2532862509629137
% es.tEx (V/m) @ t=1.1
0.33601836743898317
% es.tEy (V/m) @ t=1.1
0
% es.tEz (V/m) @ t=1.1
-0.2532862509629137
% V (V) @ t=1.1
0.014228754168363207
% es.normE (V/m) @ t=1.2
0.5328718359060853
% es.EX (V/m) @ t=1.2
0.3514547729955553
% es.EY (V/m) @ t=1.2
0.23000636961744325
% es.EZ (V/m) @ t=1.2
-0.26492277355903493
% es.tEX (V/m) @ t=1.2
0.3514547729955553
% es.tEY (V/m) @ t=1.2
0
% es.tEZ (V/m) @ t=1.2
-0.26492277355903493
% es.Ex (V/m) @ t=1.2
0.3514547729955553
% es.Ey (V/m) @ t=1.2
0.23000636961744325
% es.Ez (V/m) @ t=1.2
-0.26492277355903493
% es.tEx (V/m) @ t=1.2
0.3514547729955553
% es.tEy (V/m) @ t=1.2
0
% es.tEz (V/m) @ t=1.2
-0.26492277355903493
% V (V) @ t=1.2
0.01488185418022224
% es.normE (V/m) @ t=1.3
0.5568254819378908
% es.EX (V/m) @ t=1.3
0.36724982402748374
% es.EY (V/m) @ t=1.3
0.24035065350701812
% es.EZ (V/m) @ t=1.3
-0.2768294969896159
% es.tEX (V/m) @ t=1.3
0.36724982402748396
% es.tEY (V/m) @ t=1.3
0
% es.tEZ (V/m) @ t=1.3
-0.2768294969896159
% es.Ex (V/m) @ t=1.3
0.36724982402748374
% es.Ey (V/m) @ t=1.3
0.24035065350701812
% es.Ez (V/m) @ t=1.3
-0.2768294969896159
% es.tEx (V/m) @ t=1.3
0.36724982402748396
% es.tEy (V/m) @ t=1.3
0
% es.tEz (V/m) @ t=1.3
-0.2768294969896159
% V (V) @ t=1.3
0.015550244516380266
% es.normE (V/m) @ t=1.4
0.583022894491985
% es.EX (V/m) @ t=1.4
0.38452829753207074
% es.EY (V/m) @ t=1.4
0.251658368595439
% es.EZ (V/m) @ t=1.4
-0.2898538198813192
% es.tEX (V/m) @ t=1.4
0.3845282975320712
% es.tEY (V/m) @ t=1.4
0
% es.tEZ (V/m) @ t=1.4
-0.2898538198813192
% es.Ex (V/m) @ t=1.4
0.38452829753207074
% es.Ey (V/m) @ t=1.4
0.251658368595439
% es.Ez (V/m) @ t=1.4
-0.2898538198813192
% es.tEx (V/m) @ t=1.4
0.3845282975320712
% es.tEy (V/m) @ t=1.4
0
% es.tEz (V/m) @ t=1.4
-0.2898538198813192
% V (V) @ t=1.4
0.01628187839591977
% es.normE (V/m) @ t=1.5
0.609220307046253
% es.EX (V/m) @ t=1.5
0.40180677103665086
% es.EY (V/m) @ t=1.5
0.26296608368387053
% es.EZ (V/m) @ t=1.5
-0.3028781427730287
% es.tEX (V/m) @ t=1.5
0.4018067710366511
% es.tEY (V/m) @ t=1.5
0
% es.tEZ (V/m) @ t=1.5
-0.3028781427730287
% es.Ex (V/m) @ t=1.5
0.40180677103665086
% es.Ey (V/m) @ t=1.5
0.26296608368387053
% es.Ez (V/m) @ t=1.5
-0.3028781427730287
% es.tEx (V/m) @ t=1.5
0.4018067710366511
% es.tEy (V/m) @ t=1.5
0
% es.tEz (V/m) @ t=1.5
-0.3028781427730287
% V (V) @ t=1.5
0.017013512275459265
% es.normE (V/m) @ t=1.6
0.6362083023685301
% es.EX (V/m) @ t=1.6
0.4196073144998098
% es.EY (V/m) @ t=1.6
0.27461412707012034
% es.EZ (V/m) @ t=1.6
-0.31629588986438506
% es.tEX (V/m) @ t=1.6
0.4196073144998098
% es.tEY (V/m) @ t=1.6
0
% es.tEZ (V/m) @ t=1.6
-0.31629588986438506
% es.Ex (V/m) @ t=1.6
0.4196073144998098
% es.Ey (V/m) @ t=1.6
0.27461412707012034
% es.Ez (V/m) @ t=1.6
-0.31629588986438506
% es.tEx (V/m) @ t=1.6
0.4196073144998098
% es.tEy (V/m) @ t=1.6
0
% es.tEz (V/m) @ t=1.6
-0.31629588986438506
% V (V) @ t=1.6
0.017767330299661016
% es.normE (V/m) @ t=1.7
0.6646694444022361
% es.EX (V/m) @ t=1.7
0.4383806664619452
% es.EY (V/m) @ t=1.7
0.28689632734487613
% es.EZ (V/m) @ t=1.7
-0.3304467310532324
% es.tEX (V/m) @ t=1.7
0.4383806664619456
% es.tEY (V/m) @ t=1.7
0
% es.tEZ (V/m) @ t=1.7
-0.3304467310532324
% es.Ex (V/m) @ t=1.7
0.4383806664619452
% es.Ey (V/m) @ t=1.7
0.28689632734487613
% es.Ez (V/m) @ t=1.7
-0.3304467310532324
% es.tEx (V/m) @ t=1.7
0.4383806664619456
% es.tEy (V/m) @ t=1.7
0
% es.tEz (V/m) @ t=1.7
-0.3304467310532324
% V (V) @ t=1.7
0.018562485551017957
% es.normE (V/m) @ t=1.8
0.6940919251183585
% es.EX (V/m) @ t=1.8
0.4577888488911577
% es.EY (V/m) @ t=1.8
0.29959236252569843
% es.EZ (V/m) @ t=1.8
-0.34507597109325694
% es.tEX (V/m) @ t=1.8
0.4577888488911577
% es.tEY (V/m) @ t=1.8
0
% es.tEZ (V/m) @ t=1.8
-0.34507597109325694
% es.Ex (V/m) @ t=1.8
0.4577888488911577
% es.Ey (V/m) @ t=1.8
0.29959236252569843
% es.Ez (V/m) @ t=1.8
-0.34507597109325694
% es.tEx (V/m) @ t=1.8
0.4577888488911577
% es.tEy (V/m) @ t=1.8
0
% es.tEz (V/m) @ t=1.8
-0.34507597109325694
% V (V) @ t=1.8
0.019384616441725053
% es.normE (V/m) @ t=1.9
0.7244757445421038
% es.EX (V/m) @ t=1.9
0.47783186178748904
% es.EY (V/m) @ t=1.9
0.3127022326125908
% es.EZ (V/m) @ t=1.9
-0.3601836099845013
% es.tEX (V/m) @ t=1.9
0.4778318617874895
% es.tEY (V/m) @ t=1.9
0
% es.tEZ (V/m) @ t=1.9
-0.3601836099845013
% es.Ex (V/m) @ t=1.9
0.47783186178748904
% es.Ey (V/m) @ t=1.9
0.3127022326125908
% es.Ez (V/m) @ t=1.9
-0.3601836099845013
% es.tEx (V/m) @ t=1.9
0.4778318617874895
% es.tEy (V/m) @ t=1.9
0
% es.tEz (V/m) @ t=1.9
-0.3601836099845013
% V (V) @ t=1.9
0.020233722971782317
% es.normE (V/m) @ t=2
0.7558209027022116
% es.EX (V/m) @ t=2
0.4985097051509615
% es.EY (V/m) @ t=2
0.32622593760555496
% es.EZ (V/m) @ t=2
-0.3757696477269601
% es.tEX (V/m) @ t=2
0.49850970515096193
% es.tEY (V/m) @ t=2
0
% es.tEZ (V/m) @ t=2
-0.3757696477269601
% es.Ex (V/m) @ t=2
0.4985097051509615
% es.Ey (V/m) @ t=2
0.32622593760555496
% es.Ez (V/m) @ t=2
-0.3757696477269601
% es.tEx (V/m) @ t=2
0.49850970515096193
% es.tEy (V/m) @ t=2
0
% es.tEz (V/m) @ t=2
-0.3757696477269601
% V (V) @ t=2
0.021109805141189736
% es.normE (V/m) @ t=2.1
0.7882833143693408
% es.EX (V/m) @ t=2.1
0.519924710857238
% es.EY (V/m) @ t=2.1
0.34023149035771194
% es.EZ (V/m) @ t=2.1
-0.391911304066463
% es.tEX (V/m) @ t=2.1
0.5199247108572385
% es.tEY (V/m) @ t=2.1
0
% es.tEZ (V/m) @ t=2.1
-0.391911304066463
% es.Ex (V/m) @ t=2.1
0.519924710857238
% es.Ey (V/m) @ t=2.1
0.34023149035771194
% es.Ez (V/m) @ t=2.1
-0.391911304066463
% es.tEx (V/m) @ t=2.1
0.5199247108572385
% es.tEy (V/m) @ t=2.1
0
% es.tEz (V/m) @ t=2.1
-0.391911304066463
% V (V) @ t=2.1
0.022017135286315315
% es.normE (V/m) @ t=2.2
0.8227667888911195
% es.EX (V/m) @ t=2.2
0.5426700781677813
% es.EY (V/m) @ t=2.2
0.3551131490018635
% es.EZ (V/m) @ t=2.2
-0.40905620781740204
% es.tEX (V/m) @ t=2.2
0.5426700781677818
% es.tEY (V/m) @ t=2.2
0
% es.tEZ (V/m) @ t=2.2
-0.40905620781740204
% es.Ex (V/m) @ t=2.2
0.5426700781677813
% es.Ey (V/m) @ t=2.2
0.3551131490018635
% es.Ez (V/m) @ t=2.2
-0.40905620781740204
% es.tEx (V/m) @ t=2.2
0.5426700781677818
% es.tEy (V/m) @ t=2.2
0
% es.tEz (V/m) @ t=2.2
-0.40905620781740204
% V (V) @ t=2.2
0.022980479363609016
% es.normE (V/m) @ t=2.3
0.8585761136716772
% es.EX (V/m) @ t=2.3
0.5662895166414024
% es.EY (V/m) @ t=2.3
0.3705676491392902
% es.EZ (V/m) @ t=2.3
-0.42686004171157066
% es.tEX (V/m) @ t=2.3
0.5662895166414024
% es.tEY (V/m) @ t=2.3
0
% es.tEZ (V/m) @ t=2.3
-0.42686004171157066
% es.Ex (V/m) @ t=2.3
0.5662895166414024
% es.Ey (V/m) @ t=2.3
0.3705676491392902
% es.Ez (V/m) @ t=2.3
-0.42686004171157066
% es.tEx (V/m) @ t=2.3
0.5662895166414024
% es.tEy (V/m) @ t=2.3
0
% es.tEz (V/m) @ t=2.3
-0.42686004171157066
% V (V) @ t=2.3
0.023980787333854583
% es.normE (V/m) @ t=2.4
0.8957112887071534
% es.EX (V/m) @ t=2.4
0.5907830262782348
% es.EY (V/m) @ t=2.4
0.3865949907700106
% es.EZ (V/m) @ t=2.4
-0.4453228057490666
% es.tEX (V/m) @ t=2.4
0.5907830262782352
% es.tEY (V/m) @ t=2.4
0
% es.tEZ (V/m) @ t=2.4
-0.4453228057490666
% es.Ex (V/m) @ t=2.4
0.5907830262782348
% es.Ey (V/m) @ t=2.4
0.3865949907700106
% es.Ez (V/m) @ t=2.4
-0.4453228057490666
% es.tEx (V/m) @ t=2.4
0.5907830262782352
% es.tEy (V/m) @ t=2.4
0
% es.tEz (V/m) @ t=2.4
-0.4453228057490666
% V (V) @ t=2.4
0.02501805919705202
% es.normE (V/m) @ t=2.5
0.9341723139957929
% es.EX (V/m) @ t=2.5
0.6161506070781666
% es.EY (V/m) @ t=2.5
0.4031951738940265
% es.EZ (V/m) @ t=2.5
-0.46444449992980275
% es.tEX (V/m) @ t=2.5
0.616150607078167
% es.tEY (V/m) @ t=2.5
0
% es.tEZ (V/m) @ t=2.5
-0.46444449992980275
% es.Ex (V/m) @ t=2.5
0.6161506070781666
% es.Ey (V/m) @ t=2.5
0.4031951738940265
% es.Ez (V/m) @ t=2.5
-0.46444449992980275
% es.tEx (V/m) @ t=2.5
0.616150607078167
% es.tEy (V/m) @ t=2.5
0
% es.tEz (V/m) @ t=2.5
-0.46444449992980275
% V (V) @ t=2.5
0.0260922949532013
% es.normE (V/m) @ t=2.6
0.9739591895380526
% es.EX (V/m) @ t=2.6
0.6423922590412472
% es.EY (V/m) @ t=2.6
0.42036819851133256
% es.EZ (V/m) @ t=2.6
-0.48422512425380937
% es.tEX (V/m) @ t=2.6
0.6423922590412476
% es.tEY (V/m) @ t=2.6
0
% es.tEZ (V/m) @ t=2.6
-0.48422512425380937
% es.Ex (V/m) @ t=2.6
0.6423922590412472
% es.Ey (V/m) @ t=2.6
0.42036819851133256
% es.Ez (V/m) @ t=2.6
-0.48422512425380937
% es.tEx (V/m) @ t=2.6
0.6423922590412476
% es.tEy (V/m) @ t=2.6
0
% es.tEz (V/m) @ t=2.6
-0.48422512425380937
% V (V) @ t=2.6
0.027203494602302456
% es.normE (V/m) @ t=2.7
1.0157928976552222
% es.EX (V/m) @ t=2.7
0.6699837059557603
% es.EY (V/m) @ t=2.7
0.4384249796609758
% es.EZ (V/m) @ t=2.7
-0.505023240815099
% es.tEX (V/m) @ t=2.7
0.6699837059557607
% es.tEY (V/m) @ t=2.7
0
% es.tEZ (V/m) @ t=2.7
-0.505023240815099
% es.Ex (V/m) @ t=2.7
0.6699837059557603
% es.Ey (V/m) @ t=2.7
0.4384249796609758
% es.Ez (V/m) @ t=2.7
-0.505023240815099
% es.tEx (V/m) @ t=2.7
0.6699837059557607
% es.tEy (V/m) @ t=2.7
0
% es.tEz (V/m) @ t=2.7
-0.505023240815099
% V (V) @ t=2.7
0.028371826357383695
% es.normE (V/m) @ t=2.8
1.0594023083250645
% es.EX (V/m) @ t=2.8
0.6987460488409631
% es.EY (V/m) @ t=2.8
0.4572485957490233
% es.EZ (V/m) @ t=2.8
-0.5267040100392446
% es.tEX (V/m) @ t=2.8
0.6987460488409636
% es.tEY (V/m) @ t=2.8
0
% es.tEZ (V/m) @ t=2.8
-0.5267040100392446
% es.Ex (V/m) @ t=2.8
0.6987460488409631
% es.Ey (V/m) @ t=2.8
0.4572485957490233
% es.Ez (V/m) @ t=2.8
-0.5267040100392446
% es.tEx (V/m) @ t=2.8
0.6987460488409636
% es.tEy (V/m) @ t=2.8
0
% es.tEz (V/m) @ t=2.8
-0.5267040100392446
% V (V) @ t=2.8
0.02958970583262574
% es.normE (V/m) @ t=2.9
1.1046320993238554
% es.EX (V/m) @ t=2.9
0.7285768018577969
% es.EY (V/m) @ t=2.9
0.4767720659151351
% es.EZ (V/m) @ t=2.9
-0.5491901863943944
% es.tEX (V/m) @ t=2.9
0.7285768018577974
% es.tEY (V/m) @ t=2.9
0
% es.tEZ (V/m) @ t=2.9
-0.5491901863943944
% es.Ex (V/m) @ t=2.9
0.7285768018577969
% es.Ey (V/m) @ t=2.9
0.4767720659151351
% es.Ez (V/m) @ t=2.9
-0.5491901863943944
% es.tEx (V/m) @ t=2.9
0.7285768018577974
% es.tEy (V/m) @ t=2.9
0
% es.tEz (V/m) @ t=2.9
-0.5491901863943944
% V (V) @ t=2.9
0.030852788161773878
% es.normE (V/m) @ t=3
1.1514822706548542
% es.EX (V/m) @ t=3
0.759475965006303
% es.EY (V/m) @ t=3
0.4969953901592872
% es.EZ (V/m) @ t=3
-0.5724817698805218
% es.tEX (V/m) @ t=3
0.7594759650063034
% es.tEY (V/m) @ t=3
0
% es.tEZ (V/m) @ t=3
-0.5724817698805218
% es.Ex (V/m) @ t=3
0.759475965006303
% es.Ey (V/m) @ t=3
0.4969953901592872
% es.Ez (V/m) @ t=3
-0.5724817698805218
% es.tEx (V/m) @ t=3
0.7594759650063034
% es.tEy (V/m) @ t=3
0
% es.tEz (V/m) @ t=3
-0.5724817698805218
% V (V) @ t=3
0.0321610733448281
% es.normE (V/m) @ t=3.1
1.1999528223217375
% es.EX (V/m) @ t=3.1
0.7914435382864831
% es.EY (V/m) @ t=3.1
0.5179185684814724
% es.EZ (V/m) @ t=3.1
-0.5965787604976409
% es.tEX (V/m) @ t=3.1
0.7914435382864835
% es.tEY (V/m) @ t=3.1
0
% es.tEZ (V/m) @ t=3.1
-0.5965787604976409
% es.Ex (V/m) @ t=3.1
0.7914435382864831
% es.Ey (V/m) @ t=3.1
0.5179185684814724
% es.Ez (V/m) @ t=3.1
-0.5965787604976409
% es.tEx (V/m) @ t=3.1
0.7914435382864835
% es.tEy (V/m) @ t=3.1
0
% es.tEz (V/m) @ t=3.1
-0.5965787604976409
% V (V) @ t=3.1
0.03351456138178842
% es.normE (V/m) @ t=3.2
1.2502545497257915
% es.EX (V/m) @ t=3.2
0.8246198836185705
% es.EY (V/m) @ t=3.2
0.5396306894485798
% es.EZ (V/m) @ t=3.2
-0.6215867407711482
% es.tEX (V/m) @ t=3.2
0.8246198836185714
% es.tEY (V/m) @ t=3.2
0
% es.tEZ (V/m) @ t=3.2
-0.6215867407711482
% es.Ex (V/m) @ t=3.2
0.8246198836185705
% es.Ey (V/m) @ t=3.2
0.5396306894485798
% es.Ez (V/m) @ t=3.2
-0.6215867407711482
% es.tEx (V/m) @ t=3.2
0.8246198836185714
% es.tEy (V/m) @ t=3.2
0
% es.tEz (V/m) @ t=3.2
-0.6215867407711482
% V (V) @ t=3.2
0.0349193571172853
% es.normE (V/m) @ t=3.3
1.3025695403857926
% es.EX (V/m) @ t=3.3
0.859126247265027
% es.EY (V/m) @ t=3.3
0.562208708802773
% es.EZ (V/m) @ t=3.3
-0.6475969141168623
% es.tEX (V/m) @ t=3.3
0.8591262472650278
% es.tEY (V/m) @ t=3.3
0
% es.tEZ (V/m) @ t=3.3
-0.6475969141168623
% es.Ex (V/m) @ t=3.3
0.859126247265027
% es.Ey (V/m) @ t=3.3
0.562208708802773
% es.Ez (V/m) @ t=3.3
-0.6475969141168623
% es.tEx (V/m) @ t=3.3
0.8591262472650278
% es.tEy (V/m) @ t=3.3
0
% es.tEz (V/m) @ t=3.3
-0.6475969141168623
% V (V) @ t=3.3
0.0363807339872555
% es.normE (V/m) @ t=3.4
1.3566718787624246
% es.EX (V/m) @ t=3.4
0.8948121992832494
% es.EY (V/m) @ t=3.4
0.5855571477421062
% es.EZ (V/m) @ t=3.4
-0.6744961246788286
% es.tEX (V/m) @ t=3.4
0.8948121992832503
% es.tEY (V/m) @ t=3.4
0
% es.tEZ (V/m) @ t=3.4
-0.6744961246788286
% es.Ex (V/m) @ t=3.4
0.8948121992832494
% es.Ey (V/m) @ t=3.4
0.5855571477421062
% es.Ez (V/m) @ t=3.4
-0.6744961246788286
% es.tEx (V/m) @ t=3.4
0.8948121992832503
% es.tEy (V/m) @ t=3.4
0
% es.tEz (V/m) @ t=3.4
-0.6744961246788286
% V (V) @ t=3.4
0.037892149252573955
% es.normE (V/m) @ t=3.5
1.4125615648651504
% es.EX (V/m) @ t=3.5
0.9316777396732947
% es.EY (V/m) @ t=3.5
0.6096760062664544
% es.EZ (V/m) @ t=3.5
-0.702284372457056
% es.tEX (V/m) @ t=3.5
0.9316777396732956
% es.tEY (V/m) @ t=3.5
0
% es.tEZ (V/m) @ t=3.5
-0.702284372457056
% es.Ex (V/m) @ t=3.5
0.9316777396732947
% es.Ey (V/m) @ t=3.5
0.6096760062664544
% es.Ez (V/m) @ t=3.5
-0.702284372457056
% es.tEx (V/m) @ t=3.5
0.9316777396732956
% es.tEy (V/m) @ t=3.5
0
% es.tEz (V/m) @ t=3.5
-0.702284372457056
% V (V) @ t=3.5
0.039453602913240654
% es.normE (V/m) @ t=3.6
1.4702385987054876
% es.EX (V/m) @ t=3.6
0.9697228684351238
% es.EY (V/m) @ t=3.6
0.6345652843759986
% es.EZ (V/m) @ t=3.6
-0.7309616574515516
% es.tEX (V/m) @ t=3.6
0.9697228684351238
% es.tEY (V/m) @ t=3.6
0
% es.tEZ (V/m) @ t=3.6
-0.7309616574515516
% es.Ex (V/m) @ t=3.6
0.9697228684351238
% es.Ey (V/m) @ t=3.6
0.6345652843759986
% es.Ez (V/m) @ t=3.6
-0.7309616574515516
% es.tEx (V/m) @ t=3.6
0.9697228684351238
% es.tEy (V/m) @ t=3.6
0
% es.tEz (V/m) @ t=3.6
-0.7309616574515516
% V (V) @ t=3.6
0.041065094969255624
% es.normE (V/m) @ t=3.7
1.5296863401761782
% es.EX (V/m) @ t=3.7
1.008936358239593
% es.EY (V/m) @ t=3.7
0.6602181592132395
% es.EZ (V/m) @ t=3.7
-0.7605195584459015
% es.tEX (V/m) @ t=3.7
1.008936358239593
% es.tEY (V/m) @ t=3.7
0
% es.tEZ (V/m) @ t=3.7
-0.7605195584459015
% es.Ex (V/m) @ t=3.7
1.008936358239593
% es.Ey (V/m) @ t=3.7
0.6602181592132395
% es.Ez (V/m) @ t=3.7
-0.7605195584459015
% es.tEx (V/m) @ t=3.7
1.008936358239593
% es.tEy (V/m) @ t=3.7
0
% es.tEz (V/m) @ t=3.7
-0.7605195584459015
% V (V) @ t=3.7
0.042726119435167687
% es.normE (V/m) @ t=3.8
1.5906498342656326
% es.EX (V/m) @ t=3.8
1.04914618726517
% es.EY (V/m) @ t=3.8
0.6865300929725375
% es.EZ (V/m) @ t=3.8
-0.7908290480500284
% es.tEX (V/m) @ t=3.8
1.0491461872651708
% es.tEY (V/m) @ t=3.8
0
% es.tEZ (V/m) @ t=3.8
-0.7908290480500284
% es.Ex (V/m) @ t=3.8
1.04914618726517
% es.Ey (V/m) @ t=3.8
0.6865300929725375
% es.Ez (V/m) @ t=3.8
-0.7908290480500284
% es.tEx (V/m) @ t=3.8
1.0491461872651708
% es.tEy (V/m) @ t=3.8
0
% es.tEz (V/m) @ t=3.8
-0.7908290480500284
% V (V) @ t=3.8
0.0444289237513364
% es.normE (V/m) @ t=3.9
1.653256544200382
% es.EX (V/m) @ t=3.9
1.0904383567992229
% es.EY (V/m) @ t=3.9
0.7135533487085475
% es.EZ (V/m) @ t=3.9
-0.8219546327408409
% es.tEX (V/m) @ t=3.9
1.0904383567992237
% es.tEY (V/m) @ t=3.9
0
% es.tEZ (V/m) @ t=3.9
-0.8219546327408409
% es.Ex (V/m) @ t=3.9
1.0904383567992229
% es.Ey (V/m) @ t=3.9
0.7135533487085475
% es.Ez (V/m) @ t=3.9
-0.8219546327408409
% es.tEx (V/m) @ t=3.9
1.0904383567992237
% es.tEy (V/m) @ t=3.9
0
% es.tEz (V/m) @ t=3.9
-0.8219546327408409
% V (V) @ t=3.9
0.04617738376388174
% es.normE (V/m) @ t=4
1.7174840742723871
% es.EX (V/m) @ t=4
1.1327977561245843
% es.EY (V/m) @ t=4
0.7412787436257222
% es.EZ (V/m) @ t=4
-0.8538849785119886
% es.tEX (V/m) @ t=4
1.1327977561245852
% es.tEY (V/m) @ t=4
0
% es.tEZ (V/m) @ t=4
-0.8538849785119886
% es.Ex (V/m) @ t=4
1.1327977561245843
% es.Ey (V/m) @ t=4
0.7412787436257222
% es.Ez (V/m) @ t=4
-0.8538849785119886
% es.tEx (V/m) @ t=4
1.1327977561245852
% es.tEy (V/m) @ t=4
0
% es.tEz (V/m) @ t=4
-0.8538849785119886
% V (V) @ t=4
0.04797081847352359
% es.normE (V/m) @ t=4.1
1.783310028795555
% es.EX (V/m) @ t=4.1
1.1762092745239778
% es.EY (V/m) @ t=4.1
0.769697094928496
% es.EZ (V/m) @ t=4.1
-0.8866087513572083
% es.tEX (V/m) @ t=4.1
1.1762092745239787
% es.tEY (V/m) @ t=4.1
0
% es.tEZ (V/m) @ t=4.1
-0.8866087513572083
% es.Ex (V/m) @ t=4.1
1.1762092745239778
% es.Ey (V/m) @ t=4.1
0.769697094928496
% es.Ez (V/m) @ t=4.1
-0.8866087513572083
% es.tEx (V/m) @ t=4.1
1.1762092745239787
% es.tEy (V/m) @ t=4.1
0
% es.tEz (V/m) @ t=4.1
-0.8866087513572083
% V (V) @ t=4.1
0.049808546880981866
% es.normE (V/m) @ t=4.2
1.8507120121133434
% es.EX (V/m) @ t=4.2
1.2206578012799332
% es.EY (V/m) @ t=4.2
0.7987992198212162
% es.EZ (V/m) @ t=4.2
-0.920114617270162
% es.tEX (V/m) @ t=4.2
1.220657801279934
% es.tEY (V/m) @ t=4.2
0
% es.tEZ (V/m) @ t=4.2
-0.920114617270162
% es.Ex (V/m) @ t=4.2
1.2206578012799332
% es.Ey (V/m) @ t=4.2
0.7987992198212162
% es.Ez (V/m) @ t=4.2
-0.920114617270162
% es.tEx (V/m) @ t=4.2
1.220657801279934
% es.tEy (V/m) @ t=4.2
0
% es.tEz (V/m) @ t=4.2
-0.920114617270162
% V (V) @ t=4.2
0.05168988798697645
% es.normE (V/m) @ t=4.3
1.9189141701783574
% es.EX (V/m) @ t=4.3
1.2656381215151278
% es.EY (V/m) @ t=4.3
0.8282409725032327
% es.EZ (V/m) @ t=4.3
-0.9540206738675963
% es.tEX (V/m) @ t=4.3
1.2656381215151287
% es.tEY (V/m) @ t=4.3
0
% es.tEZ (V/m) @ t=4.3
-0.9540206738675963
% es.Ex (V/m) @ t=4.3
1.2656381215151278
% es.Ey (V/m) @ t=4.3
0.8282409725032327
% es.Ez (V/m) @ t=4.3
-0.9540206738675963
% es.tEx (V/m) @ t=4.3
1.2656381215151287
% es.tEy (V/m) @ t=4.3
0
% es.tEz (V/m) @ t=4.3
-0.9540206738675963
% V (V) @ t=4.3
0.053594236605296615
% es.normE (V/m) @ t=4.4
1.9878680860137734
% es.EX (V/m) @ t=4.4
1.3111181984317497
% es.EY (V/m) @ t=4.4
0.85800160200405
% es.EZ (V/m) @ t=4.4
-0.988302789312467
% es.tEX (V/m) @ t=4.4
1.3111181984317506
% es.tEY (V/m) @ t=4.4
0
% es.tEZ (V/m) @ t=4.4
-0.988302789312467
% es.Ex (V/m) @ t=4.4
1.3111181984317497
% es.Ey (V/m) @ t=4.4
0.85800160200405
% es.Ez (V/m) @ t=4.4
-0.988302789312467
% es.tEx (V/m) @ t=4.4
1.3111181984317506
% es.tEy (V/m) @ t=4.4
0
% es.tEz (V/m) @ t=4.4
-0.988302789312467
% V (V) @ t=4.4
0.05552022364132912
% es.normE (V/m) @ t=4.5
2.057688079862184
% es.EX (V/m) @ t=4.5
1.3571718513141047
% es.EY (V/m) @ t=4.5
0.8881327049763375
% es.EZ (V/m) @ t=4.5
-1.023016869685275
% es.tEX (V/m) @ t=4.5
1.3571718513141056
% es.tEY (V/m) @ t=4.5
0
% es.tEZ (V/m) @ t=4.5
-1.023016869685275
% es.Ex (V/m) @ t=4.5
1.3571718513141047
% es.Ey (V/m) @ t=4.5
0.8881327049763375
% es.Ez (V/m) @ t=4.5
-1.023016869685275
% es.tEx (V/m) @ t=4.5
1.3571718513141056
% es.tEy (V/m) @ t=4.5
0
% es.tEz (V/m) @ t=4.5
-1.023016869685275
% V (V) @ t=4.5
0.057470783363962503
% es.normE (V/m) @ t=4.6
2.128260918540408
% es.EX (V/m) @ t=4.6
1.4037248821159585
% es.EY (V/m) @ t=4.6
0.9185847152308995
% es.EZ (V/m) @ t=4.6
-1.058106904975439
% es.tEX (V/m) @ t=4.6
1.4037248821159594
% es.tEY (V/m) @ t=4.6
0
% es.tEZ (V/m) @ t=4.6
-1.058106904975439
% es.Ex (V/m) @ t=4.6
1.4037248821159585
% es.Ey (V/m) @ t=4.6
0.9185847152308995
% es.Ez (V/m) @ t=4.6
-1.058106904975439
% es.tEx (V/m) @ t=4.6
1.4037248821159594
% es.tEy (V/m) @ t=4.6
0
% es.tEz (V/m) @ t=4.6
-1.058106904975439
% V (V) @ t=4.6
0.0594428326988456
% es.normE (V/m) @ t=4.7
2.199473368909376
% es.EX (V/m) @ t=4.7
1.4507030927911
% es.EY (V/m) @ t=4.7
0.9493080665784177
% es.EZ (V/m) @ t=4.7
-1.0935168851723063
% es.tEX (V/m) @ t=4.7
1.4507030927911009
% es.tEY (V/m) @ t=4.7
0
% es.tEZ (V/m) @ t=4.7
-1.0935168851723063
% es.Ex (V/m) @ t=4.7
1.4507030927911
% es.Ey (V/m) @ t=4.7
0.9493080665784177
% es.Ez (V/m) @ t=4.7
-1.0935168851723063
% es.tEx (V/m) @ t=4.7
1.4507030927911009
% es.tEy (V/m) @ t=4.7
0
% es.tEz (V/m) @ t=4.7
-1.0935168851723063
% V (V) @ t=4.7
0.06143328857162719
% es.normE (V/m) @ t=4.8
2.2707806750665243
% es.EX (V/m) @ t=4.8
1.497743891207131
% es.EY (V/m) @ t=4.8
0.9800723241893401
% es.EZ (V/m) @ t=4.8
-1.1289740390348122
% es.tEX (V/m) @ t=4.8
1.497743891207132
% es.tEY (V/m) @ t=4.8
0
% es.tEZ (V/m) @ t=4.8
-1.1289740390348122
% es.Ex (V/m) @ t=4.8
1.497743891207131
% es.Ey (V/m) @ t=4.8
0.9800723241893401
% es.Ez (V/m) @ t=4.8
-1.1289740390348122
% es.tEx (V/m) @ t=4.8
1.497743891207132
% es.tEy (V/m) @ t=4.8
0
% es.tEz (V/m) @ t=4.8
-1.1289740390348122
% V (V) @ t=4.8
0.06342639778322319
% es.normE (V/m) @ t=4.9
2.3412609448351347
% es.EX (V/m) @ t=4.9
1.544232638714135
% es.EY (V/m) @ t=4.9
1.0104889802605168
% es.EZ (V/m) @ t=4.9
-1.1640161534584337
% es.tEX (V/m) @ t=4.9
1.5442326387141359
% es.tEY (V/m) @ t=4.9
0
% es.tEZ (V/m) @ t=4.9
-1.1640161534584337
% es.Ex (V/m) @ t=4.9
1.544232638714135
% es.Ey (V/m) @ t=4.9
1.0104889802605168
% es.Ez (V/m) @ t=4.9
-1.1640161534584337
% es.tEx (V/m) @ t=4.9
1.5442326387141359
% es.tEy (V/m) @ t=4.9
0
% es.tEz (V/m) @ t=4.9
-1.1640161534584337
% V (V) @ t=4.9
0.06539533388112904
% es.normE (V/m) @ t=5
2.411270784622414
% es.EX (V/m) @ t=5
1.590409139164774
% es.EY (V/m) @ t=5
1.040705397385608
% es.EZ (V/m) @ t=5
-1.1988232268707222
% es.tEX (V/m) @ t=5
1.590409139164775
% es.tEY (V/m) @ t=5
0
% es.tEZ (V/m) @ t=5
-1.1988232268707222
% es.Ex (V/m) @ t=5
1.590409139164774
% es.Ey (V/m) @ t=5
1.040705397385608
% es.Ez (V/m) @ t=5
-1.1988232268707222
% es.tEx (V/m) @ t=5
1.590409139164775
% es.tEy (V/m) @ t=5
0
% es.tEz (V/m) @ t=5
-1.1988232268707222
% V (V) @ t=5
0.06735080895326002
% es.normE (V/m) @ t=5.1
2.4805822630588863
% es.EX (V/m) @ t=5.1
1.6361225397637007
% es.EY (V/m) @ t=5.1
1.0706239347409792
% es.EZ (V/m) @ t=5.1
-1.2332816344259854
% es.tEX (V/m) @ t=5.1
1.6361225397637007
% es.tEY (V/m) @ t=5.1
0
% es.tEZ (V/m) @ t=5.1
-1.2332816344259854
% es.Ex (V/m) @ t=5.1
1.6361225397637007
% es.Ey (V/m) @ t=5.1
1.0706239347409792
% es.Ez (V/m) @ t=5.1
-1.2332816344259854
% es.tEx (V/m) @ t=5.1
1.6361225397637007
% es.tEy (V/m) @ t=5.1
0
% es.tEz (V/m) @ t=5.1
-1.2332816344259854
% V (V) @ t=5.1
0.06928637222364875
% es.normE (V/m) @ t=5.2
2.548967448802916
% es.EX (V/m) @ t=5.2
1.6812219877158174
% es.EY (V/m) @ t=5.2
1.100146951503385
% es.EZ (V/m) @ t=5.2
-1.2672777512787086
% es.tEX (V/m) @ t=5.2
1.6812219877158192
% es.tEY (V/m) @ t=5.2
0
% es.tEZ (V/m) @ t=5.2
-1.2672777512787086
% es.Ex (V/m) @ t=5.2
1.6812219877158174
% es.Ey (V/m) @ t=5.2
1.100146951503385
% es.Ez (V/m) @ t=5.2
-1.2672777512787086
% es.tEx (V/m) @ t=5.2
1.6812219877158192
% es.tEy (V/m) @ t=5.2
0
% es.tEz (V/m) @ t=5.2
-1.2672777512787086
% V (V) @ t=5.2
0.07119557291632783
% es.normE (V/m) @ t=5.3
2.6161984105540794
% es.EX (V/m) @ t=5.3
1.725556630226066
% es.EY (V/m) @ t=5.3
1.1291768068491592
% es.EZ (V/m) @ t=5.3
-1.3006979525831355
% es.tEX (V/m) @ t=5.3
1.7255566302260679
% es.tEY (V/m) @ t=5.3
0
% es.tEZ (V/m) @ t=5.3
-1.3006979525831355