% Model:              1x1--2 - Copy1.mph
% Version:            COMSOL 6.1.0.252
% Date:               Apr 3 2023, 14:43
% Dimension:          0
% Nodes:              14017
% Expressions:        14017
% Description:        Electric field norm, Electric field, X component, Electric field, Y component, Electric field, Z component, Tangential electric field, X component, Tangential electric field, Y component, Tangential electric field, Z component, Electric field, x component, Electric field, y component, Electric field, z component, Tangential electric field, x component, Tangential electric field, y component, Tangential electric field, z component, Electric potential
% Length unit:        mm
% x
1.66
% y
12.2
% z
1.33
% es.normE (V/m) @ t=0
0.527117453852601
% es.EX (V/m) @ t=0
0.3510326500001204
% es.EY (V/m) @ t=0
0.15748122332896597
% es.EZ (V/m) @ t=0
-0.3461373274207271
% es.tEX (V/m) @ t=0
0.35103265000011685
% es.tEY (V/m) @ t=0
0
% es.tEZ (V/m) @ t=0
-0.3461373274207258
% es.Ex (V/m) @ t=0
0.3510326500001204
% es.Ey (V/m) @ t=0
0.15748122332896597
% es.Ez (V/m) @ t=0
-0.3461373274207271
% es.tEx (V/m) @ t=0
0.35103265000011685
% es.tEy (V/m) @ t=0
0
% es.tEz (V/m) @ t=0
-0.3461373274207258
% V (V) @ t=0
0.008995991295571484
% es.normE (V/m) @ t=0.1
0.5353191220697855
% es.EX (V/m) @ t=0.1
0.35649453639323614
% es.EY (V/m) @ t=0.1
0.15993153647099645
% es.EZ (V/m) @ t=0.1
-0.35152304422141656
% es.tEX (V/m) @ t=0.1
0.35649453639323614
% es.tEY (V/m) @ t=0.1
0
% es.tEZ (V/m) @ t=0.1
-0.351523044221417
% es.Ex (V/m) @ t=0.1
0.35649453639323614
% es.Ey (V/m) @ t=0.1
0.15993153647099645
% es.Ez (V/m) @ t=0.1
-0.35152304422141656
% es.tEx (V/m) @ t=0.1
0.35649453639323614
% es.tEy (V/m) @ t=0.1
0
% es.tEz (V/m) @ t=0.1
-0.351523044221417
% V (V) @ t=0.1
0.009135965905014035
% es.normE (V/m) @ t=0.2
0.5607959588085881
% es.EX (V/m) @ t=0.2
0.3734607470502871
% es.EY (V/m) @ t=0.2
0.1675430538590038
% es.EZ (V/m) @ t=0.2
-0.368252658816544
% es.tEX (V/m) @ t=0.2
0.37346074705028354
% es.tEY (V/m) @ t=0.2
0
% es.tEZ (V/m) @ t=0.2
-0.36825265881654445
% es.Ex (V/m) @ t=0.2
0.3734607470502871
% es.Ey (V/m) @ t=0.2
0.1675430538590038
% es.Ez (V/m) @ t=0.2
-0.368252658816544
% es.tEx (V/m) @ t=0.2
0.37346074705028354
% es.tEy (V/m) @ t=0.2
0
% es.tEz (V/m) @ t=0.2
-0.36825265881654445
% V (V) @ t=0.2
0.00957075158855336
% es.normE (V/m) @ t=0.3
0.5870302339879945
% es.EX (V/m) @ t=0.3
0.39093134251396044
% es.EY (V/m) @ t=0.3
0.1753809381584326
% es.EZ (V/m) @ t=0.3
-0.3854796306149657
% es.tEX (V/m) @ t=0.3
0.3909313425139569
% es.tEY (V/m) @ t=0.3
0
% es.tEZ (V/m) @ t=0.3
-0.3854796306149648
% es.Ex (V/m) @ t=0.3
0.39093134251396044
% es.Ey (V/m) @ t=0.3
0.1753809381584326
% es.Ez (V/m) @ t=0.3
-0.3854796306149657
% es.tEx (V/m) @ t=0.3
0.3909313425139569
% es.tEy (V/m) @ t=0.3
0
% es.tEz (V/m) @ t=0.3
-0.3854796306149648
% V (V) @ t=0.3
0.010018452275616065
% es.normE (V/m) @ t=0.4
0.6147322709594119
% es.EX (V/m) @ t=0.4
0.4093794763529015
% es.EY (V/m) @ t=0.4
0.18365711116543748
% es.EZ (V/m) @ t=0.4
-0.40367049073622674
% es.tEX (V/m) @ t=0.4
0.4093794763529015
% es.tEY (V/m) @ t=0.4
0
% es.tEZ (V/m) @ t=0.4
-0.4036704907362303
% es.Ex (V/m) @ t=0.4
0.4093794763529015
% es.Ey (V/m) @ t=0.4
0.18365711116543748
% es.Ez (V/m) @ t=0.4
-0.40367049073622674
% es.tEx (V/m) @ t=0.4
0.4093794763529015
% es.tEy (V/m) @ t=0.4
0
% es.tEz (V/m) @ t=0.4
-0.4036704907362303
% V (V) @ t=0.4
0.010491236489665044
% es.normE (V/m) @ t=0.5
0.6444201760449424
% es.EX (V/m) @ t=0.5
0.4291496429783308
% es.EY (V/m) @ t=0.5
0.192527732214967
% es.EZ (V/m) @ t=0.5
-0.42316504050049897
% es.tEX (V/m) @ t=0.5
0.4291496429783308
% es.tEY (V/m) @ t=0.5
0
% es.tEZ (V/m) @ t=0.5
-0.4231650405004981
% es.Ex (V/m) @ t=0.5
0.4291496429783308
% es.Ey (V/m) @ t=0.5
0.192527732214967
% es.Ez (V/m) @ t=0.5
-0.42316504050049897
% es.tEx (V/m) @ t=0.5
0.4291496429783308
% es.tEy (V/m) @ t=0.5
0
% es.tEz (V/m) @ t=0.5
-0.4231650405004981
% V (V) @ t=0.5
0.010997732626777083
% es.normE (V/m) @ t=0.6
0.6756199291235386
% es.EX (V/m) @ t=0.6
0.44992627755114256
% es.EY (V/m) @ t=0.6
0.20185090853191068
% es.EZ (V/m) @ t=0.6
-0.4436520935161372
% es.tEX (V/m) @ t=0.6
0.44992627755114256
% es.tEY (V/m) @ t=0.6
0
% es.tEZ (V/m) @ t=0.6
-0.44365209351613544
% es.Ex (V/m) @ t=0.6
0.44992627755114256
% es.Ey (V/m) @ t=0.6
0.20185090853191068
% es.Ez (V/m) @ t=0.6
-0.4436520935161372
% es.tEx (V/m) @ t=0.6
0.44992627755114256
% es.tEy (V/m) @ t=0.6
0
% es.tEz (V/m) @ t=0.6
-0.44365209351613544
% V (V) @ t=0.6
0.01152989376278644
% es.normE (V/m) @ t=0.7
0.7068196822110686
% es.EX (V/m) @ t=0.7
0.4707029121239543
% es.EY (V/m) @ t=0.7
0.21117408484884415
% es.EZ (V/m) @ t=0.7
-0.46413914653177635
% es.tEX (V/m) @ t=0.7
0.47070291212395254
% es.tEY (V/m) @ t=0.7
0
% es.tEZ (V/m) @ t=0.7
-0.4641391465317781
% es.Ex (V/m) @ t=0.7
0.4707029121239543
% es.Ey (V/m) @ t=0.7
0.21117408484884415
% es.Ez (V/m) @ t=0.7
-0.46413914653177635
% es.tEx (V/m) @ t=0.7
0.47070291212395254
% es.tEy (V/m) @ t=0.7
0
% es.tEz (V/m) @ t=0.7
-0.4641391465317781
% V (V) @ t=0.7
0.012062054898795794
% es.normE (V/m) @ t=0.8
0.7402120411063746
% es.EX (V/m) @ t=0.8
0.4929408545250684
% es.EY (V/m) @ t=0.8
0.22114939691420266
% es.EZ (V/m) @ t=0.8
-0.48606689181826024
% es.tEX (V/m) @ t=0.8
0.49294085452506664
% es.tEY (V/m) @ t=0.8
0
% es.tEZ (V/m) @ t=0.8
-0.4860668918182611
% es.Ex (V/m) @ t=0.8
0.4929408545250684
% es.Ey (V/m) @ t=0.8
0.22114939691420266
% es.Ez (V/m) @ t=0.8
-0.48606689181826024
% es.tEx (V/m) @ t=0.8
0.49294085452506664
% es.tEy (V/m) @ t=0.8
0
% es.tEz (V/m) @ t=0.8
-0.4860668918182611
% V (V) @ t=0.8
0.012632092370688248
% es.normE (V/m) @ t=0.9
0.7749831009120899
% es.EX (V/m) @ t=0.9
0.516097660866695
% es.EY (V/m) @ t=0.9
0.2315347690722811
% es.EZ (V/m) @ t=0.9
-0.5089005380733118
% es.tEX (V/m) @ t=0.9
0.516097660866695
% es.tEY (V/m) @ t=0.9
0
% es.tEZ (V/m) @ t=0.9
-0.5089005380733091
% es.Ex (V/m) @ t=0.9
0.516097660866695
% es.Ey (V/m) @ t=0.9
0.2315347690722811
% es.Ez (V/m) @ t=0.9
-0.5089005380733118
% es.tEx (V/m) @ t=0.9
0.516097660866695
% es.tEy (V/m) @ t=0.9
0
% es.tEz (V/m) @ t=0.9
-0.5089005380733091
% V (V) @ t=0.9
0.013225946316130752
% es.normE (V/m) @ t=1
0.8097541607372815
% es.EX (V/m) @ t=1
0.5392544672083206
% es.EY (V/m) @ t=1
0.24192014123036132
% es.EZ (V/m) @ t=1
-0.5317341843283687
% es.tEX (V/m) @ t=1
0.5392544672083215
% es.tEY (V/m) @ t=1
0
% es.tEZ (V/m) @ t=1
-0.5317341843283732
% es.Ex (V/m) @ t=1
0.5392544672083206
% es.Ey (V/m) @ t=1
0.24192014123036132
% es.Ez (V/m) @ t=1
-0.5317341843283687
% es.tEx (V/m) @ t=1
0.5392544672083215
% es.tEy (V/m) @ t=1
0
% es.tEz (V/m) @ t=1
-0.5317341843283732
% V (V) @ t=1
0.013819800261573255
% es.normE (V/m) @ t=1.1
0.8483871715745466
% es.EX (V/m) @ t=1.1
0.564983065563081
% es.EY (V/m) @ t=1.1
0.25345947361071275
% es.EZ (V/m) @ t=1.1
-0.5571037712149716
% es.tEX (V/m) @ t=1.1
0.5649830655630765
% es.tEY (V/m) @ t=1.1
0
% es.tEZ (V/m) @ t=1.1
-0.5571037712149725
% es.Ex (V/m) @ t=1.1
0.564983065563081
% es.Ey (V/m) @ t=1.1
0.25345947361071275
% es.Ez (V/m) @ t=1.1
-0.5571037712149716
% es.tEx (V/m) @ t=1.1
0.5649830655630765
% es.tEy (V/m) @ t=1.1
0
% es.tEz (V/m) @ t=1.1
-0.5571037712149725
% V (V) @ t=1.1
0.0144795377696342
% es.normE (V/m) @ t=1.2
0.887199954831484
% es.EX (V/m) @ t=1.2
0.5908313798956684
% es.EY (V/m) @ t=1.2
0.26505252241746935
% es.EZ (V/m) @ t=1.2
-0.5825914052107022
% es.tEX (V/m) @ t=1.2
0.5908313798956684
% es.tEY (V/m) @ t=1.2
0
% es.tEZ (V/m) @ t=1.2
-0.5825914052107066
% es.Ex (V/m) @ t=1.2
0.5908313798956684
% es.Ey (V/m) @ t=1.2
0.26505252241746935
% es.Ez (V/m) @ t=1.2
-0.5825914052107022
% es.tEx (V/m) @ t=1.2
0.5908313798956684
% es.tEy (V/m) @ t=1.2
0
% es.tEz (V/m) @ t=1.2
-0.5825914052107066
% V (V) @ t=1.2
0.015142342133444776
% es.normE (V/m) @ t=1.3
0.9273716252440911
% es.EX (V/m) @ t=1.3
0.6175836896214086
% es.EY (V/m) @ t=1.3
0.2770539803804464
% es.EZ (V/m) @ t=1.3
-0.6089706246933497
% es.tEX (V/m) @ t=1.3
0.6175836896214051
% es.tEY (V/m) @ t=1.3
0
% es.tEZ (V/m) @ t=1.3
-0.6089706246933542
% es.Ex (V/m) @ t=1.3
0.6175836896214086
% es.Ey (V/m) @ t=1.3
0.2770539803804464
% es.Ez (V/m) @ t=1.3
-0.6089706246933497
% es.tEx (V/m) @ t=1.3
0.6175836896214051
% es.tEy (V/m) @ t=1.3
0
% es.tEz (V/m) @ t=1.3
-0.6089706246933542
% V (V) @ t=1.3
0.015827958795914455
% es.normE (V/m) @ t=1.4
0.9707583826729378
% es.EX (V/m) @ t=1.4
0.6464748258283066
% es.EY (V/m) @ t=1.4
0.2900217223810513
% es.EZ (V/m) @ t=1.4
-0.6374593091844174
% es.tEX (V/m) @ t=1.4
0.6464748258283066
% es.tEY (V/m) @ t=1.4
0
% es.tEZ (V/m) @ t=1.4
-0.6374593091844218
% es.Ex (V/m) @ t=1.4
0.6464748258283066
% es.Ey (V/m) @ t=1.4
0.2900217223810513
% es.Ez (V/m) @ t=1.4
-0.6374593091844174
% es.tEx (V/m) @ t=1.4
0.6464748258283066
% es.tEy (V/m) @ t=1.4
0
% es.tEz (V/m) @ t=1.4
-0.6374593091844218
% V (V) @ t=1.4
0.016567548685281853
% es.normE (V/m) @ t=1.5
1.0141451401612462
% es.EX (V/m) @ t=1.5
0.6753659620352028
% es.EY (V/m) @ t=1.5
0.30298946438165153
% es.EZ (V/m) @ t=1.5
-0.6659479936755028
% es.tEX (V/m) @ t=1.5
0.6753659620352028
% es.tEY (V/m) @ t=1.5
0
% es.tEZ (V/m) @ t=1.5
-0.6659479936755073
% es.Ex (V/m) @ t=1.5
0.6753659620352028
% es.Ey (V/m) @ t=1.5
0.30298946438165153
% es.Ez (V/m) @ t=1.5
-0.6659479936755028
% es.tEx (V/m) @ t=1.5
0.6753659620352028
% es.tEy (V/m) @ t=1.5
0
% es.tEz (V/m) @ t=1.5
-0.6659479936755073
% V (V) @ t=1.5
0.01730713857464924
% es.normE (V/m) @ t=1.6
1.0592078123402464
% es.EX (V/m) @ t=1.6
0.7053738606684927
% es.EY (V/m) @ t=1.6
0.31645613931362915
% es.EZ (V/m) @ t=1.6
-0.6955377239981688
% es.tEX (V/m) @ t=1.6
0.7053738606684927
% es.tEY (V/m) @ t=1.6
0
% es.tEZ (V/m) @ t=1.6
-0.6955377239981662
% es.Ex (V/m) @ t=1.6
0.7053738606684927
% es.Ey (V/m) @ t=1.6
0.31645613931362915
% es.Ez (V/m) @ t=1.6
-0.6955377239981688
% es.tEx (V/m) @ t=1.6
0.7053738606684927
% es.tEy (V/m) @ t=1.6
0
% es.tEz (V/m) @ t=1.6
-0.6955377239981662
% V (V) @ t=1.6
0.01807560521595415
% es.normE (V/m) @ t=1.7
1.1065228608430155
% es.EX (V/m) @ t=1.7
0.7368826527085837
% es.EY (V/m) @ t=1.7
0.3305933643370558
% es.EZ (V/m) @ t=1.7
-0.7266072251209135
% es.tEX (V/m) @ t=1.7
0.7368826527085837
% es.tEY (V/m) @ t=1.7
0
% es.tEZ (V/m) @ t=1.7
-0.7266072251209188
% es.Ex (V/m) @ t=1.7
0.7368826527085837
% es.Ey (V/m) @ t=1.7
0.3305933643370558
% es.Ez (V/m) @ t=1.7
-0.7266072251209135
% es.tEx (V/m) @ t=1.7
0.7368826527085837
% es.tEy (V/m) @ t=1.7
0
% es.tEz (V/m) @ t=1.7
-0.7266072251209188
% V (V) @ t=1.7
0.01888288129923905
% es.normE (V/m) @ t=1.8
1.1554296791588075
% es.EX (V/m) @ t=1.8
0.7694521364311555
% es.EY (V/m) @ t=1.8
0.345204471717123
% es.EZ (V/m) @ t=1.8
-0.7587224904348453
% es.tEX (V/m) @ t=1.8
0.7694521364311484
% es.tEY (V/m) @ t=1.8
0
% es.tEZ (V/m) @ t=1.8
-0.7587224904348524
% es.Ex (V/m) @ t=1.8
0.7694521364311555
% es.Ey (V/m) @ t=1.8
0.345204471717123
% es.Ez (V/m) @ t=1.8
-0.7587224904348453
% es.tEx (V/m) @ t=1.8
0.7694521364311484
% es.tEy (V/m) @ t=1.8
0
% es.tEz (V/m) @ t=1.8
-0.7587224904348524
% V (V) @ t=1.8
0.01971758428181169
% es.normE (V/m) @ t=1.9
1.2059282672926712
% es.EX (V/m) @ t=1.9
0.8030823118362065
% es.EY (V/m) @ t=1.9
0.36028946145385143
% es.EZ (V/m) @ t=1.9
-0.7918835199399794
% es.tEX (V/m) @ t=1.9
0.8030823118362065
% es.tEY (V/m) @ t=1.9
0
% es.tEZ (V/m) @ t=1.9
-0.7918835199399723
% es.Ex (V/m) @ t=1.9
0.8030823118362065
% es.Ey (V/m) @ t=1.9
0.36028946145385143
% es.Ez (V/m) @ t=1.9
-0.7918835199399794
% es.tEx (V/m) @ t=1.9
0.8030823118362065
% es.tEy (V/m) @ t=1.9
0
% es.tEz (V/m) @ t=1.9
-0.7918835199399723
% V (V) @ t=1.9
0.020579714163672092
% es.normE (V/m) @ t=2
1.258018625261194
% es.EX (V/m) @ t=2
0.8377731789237295
% es.EY (V/m) @ t=2
0.37584833354720804
% es.EZ (V/m) @ t=2
-0.8260903136362909
% es.tEX (V/m) @ t=2
0.8377731789237259
% es.tEY (V/m) @ t=2
0
% es.tEZ (V/m) @ t=2
-0.8260903136362927
% es.Ex (V/m) @ t=2
0.8377731789237295
% es.Ey (V/m) @ t=2
0.37584833354720804
% es.Ez (V/m) @ t=2
-0.8260903136362909
% es.tEx (V/m) @ t=2
0.8377731789237259
% es.tEy (V/m) @ t=2
0
% es.tEz (V/m) @ t=2
-0.8260903136362927
% V (V) @ t=2
0.021469270944820224
% es.normE (V/m) @ t=2.1
1.3122446766326255
% es.EX (V/m) @ t=2.1
0.8738864741318082
% es.EY (V/m) @ t=2.1
0.3920448352037673
% es.EZ (V/m) @ t=2.1
-0.8616996642913257
% es.tEX (V/m) @ t=2.1
0.8738864741318011
% es.tEY (V/m) @ t=2.1
0
% es.tEZ (V/m) @ t=2.1
-0.8616996642913364
% es.Ex (V/m) @ t=2.1
0.8738864741318082
% es.Ey (V/m) @ t=2.1
0.3920448352037673
% es.Ez (V/m) @ t=2.1
-0.8616996642913257
% es.tEx (V/m) @ t=2.1
0.8738864741318011
% es.tEy (V/m) @ t=2.1
0
% es.tEz (V/m) @ t=2.1
-0.8616996642913364
% V (V) @ t=2.1
0.022395343176784977
% es.normE (V/m) @ t=2.2
1.3696050402671722
% es.EX (V/m) @ t=2.2
0.9120863290940093
% es.EY (V/m) @ t=2.2
0.4091795988407454
% es.EZ (V/m) @ t=2.2
-0.8993666271846177
% es.tEX (V/m) @ t=2.2
0.9120863290940058
% es.tEY (V/m) @ t=2.2
0
% es.tEZ (V/m) @ t=2.2
-0.8993666271846124
% es.Ex (V/m) @ t=2.2
0.9120863290940093
% es.Ey (V/m) @ t=2.2
0.4091795988407454
% es.Ez (V/m) @ t=2.2
-0.8993666271846177
% es.tEx (V/m) @ t=2.2
0.9120863290940058
% es.tEy (V/m) @ t=2.2
0
% es.tEz (V/m) @ t=2.2
-0.8993666271846124
% V (V) @ t=2.2
0.02337461702645116
% es.normE (V/m) @ t=2.3
1.4291566930159691
% es.EX (V/m) @ t=2.3
0.9517455861219872
% es.EY (V/m) @ t=2.3
0.42696872903397054
% es.EZ (V/m) @ t=2.3
-0.9384726156774548
% es.tEX (V/m) @ t=2.3
0.9517455861219801
% es.tEY (V/m) @ t=2.3
0
% es.tEZ (V/m) @ t=2.3
-0.9384726156774548
% es.Ex (V/m) @ t=2.3
0.9517455861219872
% es.Ey (V/m) @ t=2.3
0.42696872903397054
% es.Ez (V/m) @ t=2.3
-0.9384726156774548
% es.tEx (V/m) @ t=2.3
0.9517455861219801
% es.tEy (V/m) @ t=2.3
0
% es.tEz (V/m) @ t=2.3
-0.9384726156774548
% V (V) @ t=2.3
0.024391335289490487
% es.normE (V/m) @ t=2.4
1.4908996348807715
% es.EX (V/m) @ t=2.4
0.9928642452157028
% es.EY (V/m) @ t=2.4
0.44541222578341566
% es.EZ (V/m) @ t=2.4
-0.9790176297698441
% es.tEX (V/m) @ t=2.4
0.9928642452156993
% es.tEY (V/m) @ t=2.4
0
% es.tEZ (V/m) @ t=2.4
-0.979017629769853
% es.Ex (V/m) @ t=2.4
0.9928642452157028
% es.Ey (V/m) @ t=2.4
0.44541222578341566
% es.Ez (V/m) @ t=2.4
-0.9790176297698441
% es.tEx (V/m) @ t=2.4
0.9928642452156993
% es.tEy (V/m) @ t=2.4
0
% es.tEz (V/m) @ t=2.4
-0.979017629769853
% V (V) @ t=2.4
0.02544549796590296
% es.normE (V/m) @ t=2.5
1.5548338658633798
% es.EX (V/m) @ t=2.5
1.0354423063751863
% es.EY (V/m) @ t=2.5
0.4645100890890923
% es.EZ (V/m) @ t=2.5
-1.02100166946183
% es.tEX (V/m) @ t=2.5
1.0354423063751845
% es.tEY (V/m) @ t=2.5
0
% es.tEZ (V/m) @ t=2.5
-1.0210016694618318
% es.Ex (V/m) @ t=2.5
1.0354423063751863
% es.Ey (V/m) @ t=2.5
0.4645100890890923
% es.Ez (V/m) @ t=2.5
-1.02100166946183
% es.tEx (V/m) @ t=2.5
1.0354423063751845
% es.tEy (V/m) @ t=2.5
0
% es.tEz (V/m) @ t=2.5
-1.0210016694618318
% V (V) @ t=2.5
0.026537105055688563
% es.normE (V/m) @ t=2.6
1.6209658142666628
% es.EX (V/m) @ t=2.6
1.0794840430274526
% es.EY (V/m) @ t=2.6
0.4842642585576207
% es.EZ (V/m) @ t=2.6
-1.0644289501314557
% es.tEX (V/m) @ t=2.6
1.0794840430274526
% es.tEY (V/m) @ t=2.6
0
% es.tEZ (V/m) @ t=2.6
-1.0644289501314645
% es.Ex (V/m) @ t=2.6
1.0794840430274526
% es.Ey (V/m) @ t=2.6
0.4842642585576207
% es.Ez (V/m) @ t=2.6
-1.0644289501314557
% es.tEx (V/m) @ t=2.6
1.0794840430274526
% es.tEy (V/m) @ t=2.6
0
% es.tEz (V/m) @ t=2.6
-1.0644289501314645
% V (V) @ t=2.6
0.02766626328783042
% es.normE (V/m) @ t=2.7
1.6908288367006112
% es.EX (V/m) @ t=2.7
1.126008804980236
% es.EY (V/m) @ t=2.7
0.5051373927534444
% es.EZ (V/m) @ t=2.7
-1.1103049750493401
% es.tEX (V/m) @ t=2.7
1.1260088049802377
% es.tEY (V/m) @ t=2.7
0
% es.tEZ (V/m) @ t=2.7
-1.1103049750493454
% es.Ex (V/m) @ t=2.7
1.126008804980236
% es.Ey (V/m) @ t=2.7
0.5051373927534444
% es.Ez (V/m) @ t=2.7
-1.1103049750493401
% es.tEx (V/m) @ t=2.7
1.1260088049802377
% es.tEy (V/m) @ t=2.7
0
% es.tEz (V/m) @ t=2.7
-1.1103049750493454
% V (V) @ t=2.7
0.028858430957814867
% es.normE (V/m) @ t=2.8
1.7633719346161738
% es.EX (V/m) @ t=2.8
1.1743179059910496
% es.EY (V/m) @ t=2.8
0.5268123746559978
% es.EZ (V/m) @ t=2.8
-1.1579405487139436
% es.tEX (V/m) @ t=2.8
1.1743179059910425
% es.tEY (V/m) @ t=2.8
0
% es.tEZ (V/m) @ t=2.8
-1.1579405487139525
% es.Ex (V/m) @ t=2.8
1.1743179059910496
% es.Ey (V/m) @ t=2.8
0.5268123746559978
% es.Ez (V/m) @ t=2.8
-1.1579405487139436
% es.tEx (V/m) @ t=2.8
1.1743179059910425
% es.tEy (V/m) @ t=2.8
0
% es.tEz (V/m) @ t=2.8
-1.1579405487139525
% V (V) @ t=2.8
0.030096158353404883
% es.normE (V/m) @ t=2.9
1.8385951080219969
% es.EX (V/m) @ t=2.9
1.224411346059867
% es.EY (V/m) @ t=2.9
0.549289204265281
% es.EZ (V/m) @ t=2.9
-1.2073356711253158
% es.tEX (V/m) @ t=2.9
1.2244113460598598
% es.tEY (V/m) @ t=2.9
0
% es.tEZ (V/m) @ t=2.9
-1.2073356711253247
% es.Ex (V/m) @ t=2.9
1.224411346059867
% es.Ey (V/m) @ t=2.9
0.549289204265281
% es.Ez (V/m) @ t=2.9
-1.2073356711253158
% es.tEx (V/m) @ t=2.9
1.2244113460598598
% es.tEy (V/m) @ t=2.9
0
% es.tEz (V/m) @ t=2.9
-1.2073356711253247
% V (V) @ t=2.9
0.03137944547460046
% es.normE (V/m) @ t=3
1.916498356929199
% es.EX (V/m) @ t=3
1.2762891251867003
% es.EY (V/m) @ t=3
0.5725678815812612
% es.EZ (V/m) @ t=3
-1.2584903422834248
% es.tEX (V/m) @ t=3
1.2762891251866932
% es.tEY (V/m) @ t=3
0
% es.tEZ (V/m) @ t=3
-1.2584903422834337
% es.Ex (V/m) @ t=3
1.2762891251867003
% es.Ey (V/m) @ t=3
0.5725678815812612
% es.Ez (V/m) @ t=3
-1.2584903422834248
% es.tEx (V/m) @ t=3
1.2762891251866932
% es.tEy (V/m) @ t=3
0
% es.tEz (V/m) @ t=3
-1.2584903422834337
% V (V) @ t=3
0.032708292321401614
% es.normE (V/m) @ t=3.1
1.9970816813508174
% es.EX (V/m) @ t=3.1
1.3299512433715783
% es.EY (V/m) @ t=3.1
0.5966484066039834
% es.EZ (V/m) @ t=3.1
-1.3114045621882848
% es.tEX (V/m) @ t=3.1
1.3299512433715783
% es.tEY (V/m) @ t=3.1
0
% es.tEZ (V/m) @ t=3.1
-1.3114045621882937
% es.Ex (V/m) @ t=3.1
1.3299512433715783
% es.Ey (V/m) @ t=3.1
0.5966484066039834
% es.Ez (V/m) @ t=3.1
-1.3114045621882848
% es.tEx (V/m) @ t=3.1
1.3299512433715783
% es.tEy (V/m) @ t=3.1
0
% es.tEz (V/m) @ t=3.1
-1.3114045621882937
% V (V) @ t=3.1
0.034082698893808314
% es.normE (V/m) @ t=3.2
2.0809552532472715
% es.EX (V/m) @ t=3.2
1.3858056471032043
% es.EY (V/m) @ t=3.2
0.6217089834279905
% es.EZ (V/m) @ t=3.2
-1.3664802568386758
% es.tEX (V/m) @ t=3.2
1.3858056471031972
% es.tEY (V/m) @ t=3.2
0
% es.tEZ (V/m) @ t=3.2
-1.3664802568386918
% es.Ex (V/m) @ t=3.2
1.3858056471032043
% es.Ey (V/m) @ t=3.2
0.6217089834279905
% es.Ez (V/m) @ t=3.2
-1.3664802568386758
% es.tEx (V/m) @ t=3.2
1.3858056471031972
% es.tEy (V/m) @ t=3.2
0
% es.tEz (V/m) @ t=3.2
-1.3664802568386918
% V (V) @ t=3.2
0.035513716858552286
% es.normE (V/m) @ t=3.3
2.1680347845569328
% es.EX (V/m) @ t=3.3
1.443795983397532
% es.EY (V/m) @ t=3.3
0.6477249952646824
% es.EZ (V/m) @ t=3.3
-1.4236619049101602
% es.tEX (V/m) @ t=3.3
1.443795983397532
% es.tEY (V/m) @ t=3.3
0
% es.tEZ (V/m) @ t=3.3
-1.4236619049101726
% es.Ex (V/m) @ t=3.3
1.443795983397532
% es.Ey (V/m) @ t=3.3
0.6477249952646824
% es.Ez (V/m) @ t=3.3
-1.4236619049101602
% es.tEx (V/m) @ t=3.3
1.443795983397532
% es.tEy (V/m) @ t=3.3
0
% es.tEz (V/m) @ t=3.3
-1.4236619049101726
% V (V) @ t=3.3
0.03699981955854459
% es.normE (V/m) @ t=3.4
2.258089738326051
% es.EX (V/m) @ t=3.4
1.5037681207195597
% es.EY (V/m) @ t=3.4
0.6746291125219868
% es.EZ (V/m) @ t=3.4
-1.482797649546736
% es.tEX (V/m) @ t=3.4
1.5037681207195526
% es.tEY (V/m) @ t=3.4
0
% es.tEZ (V/m) @ t=3.4
-1.4827976495467325
% es.Ex (V/m) @ t=3.4
1.5037681207195597
% es.Ey (V/m) @ t=3.4
0.6746291125219868
% es.Ez (V/m) @ t=3.4
-1.482797649546736
% es.tEx (V/m) @ t=3.4
1.5037681207195526
% es.tEy (V/m) @ t=3.4
0
% es.tEz (V/m) @ t=3.4
-1.4827976495467325
% V (V) @ t=3.4
0.03853683142075098
% es.normE (V/m) @ t=3.5
2.351120114556256
% es.EX (V/m) @ t=3.5
1.565722059069305
% es.EY (V/m) @ t=3.5
0.7024213351999427
% es.EZ (V/m) @ t=3.5
-1.5438874907484568
% es.tEX (V/m) @ t=3.5
1.565722059069305
% es.tEY (V/m) @ t=3.5
0
% es.tEZ (V/m) @ t=3.5
-1.5438874907484674
% es.Ex (V/m) @ t=3.5
1.565722059069305
% es.Ey (V/m) @ t=3.5
0.7024213351999427
% es.Ez (V/m) @ t=3.5
-1.5438874907484568
% es.tEx (V/m) @ t=3.5
1.565722059069305
% es.tEy (V/m) @ t=3.5
0
% es.tEz (V/m) @ t=3.5
-1.5438874907484674
% V (V) @ t=3.5
0.04012475244517144
% es.normE (V/m) @ t=3.6
2.4471259132504213
% es.EX (V/m) @ t=3.6
1.6296577984467788
% es.EY (V/m) @ t=3.6
0.7311016632985838
% es.EZ (V/m) @ t=3.6
-1.6069314285152672
% es.tEX (V/m) @ t=3.6
1.6296577984467717
% es.tEY (V/m) @ t=3.6
0
% es.tEZ (V/m) @ t=3.6
-1.6069314285152956
% es.Ex (V/m) @ t=3.6
1.6296577984467788
% es.Ey (V/m) @ t=3.6
0.7311016632985838
% es.Ez (V/m) @ t=3.6
-1.6069314285152672
% es.tEx (V/m) @ t=3.6
1.6296577984467717
% es.tEy (V/m) @ t=3.6
0
% es.tEz (V/m) @ t=3.6
-1.6069314285152956
% V (V) @ t=3.6
0.041763582631805976
% es.normE (V/m) @ t=3.7
2.545984900302709
% es.EX (V/m) @ t=3.7
1.6954935784925098
% es.EY (V/m) @ t=3.7
0.7606344932245577
% es.EZ (V/m) @ t=3.7
-1.6718489169616113
% es.tEX (V/m) @ t=3.7
1.6954935784924956
% es.tEY (V/m) @ t=3.7
0
% es.tEZ (V/m) @ t=3.7
-1.6718489169616078
% es.Ex (V/m) @ t=3.7
1.6954935784925098
% es.Ey (V/m) @ t=3.7
0.7606344932245577
% es.Ez (V/m) @ t=3.7
-1.6718489169616113
% es.tEx (V/m) @ t=3.7
1.6954935784924956
% es.tEy (V/m) @ t=3.7
0
% es.tEz (V/m) @ t=3.7
-1.6718489169616078
% V (V) @ t=3.7
0.0434510931160026
% es.normE (V/m) @ t=3.8
2.647484651960144
% es.EX (V/m) @ t=3.8
1.7630873124986195
% es.EY (V/m) @ t=3.8
0.7909579515052263
% es.EZ (V/m) @ t=3.8
-1.7384999799448266
% es.tEX (V/m) @ t=3.8
1.7630873124986124
% es.tEY (V/m) @ t=3.8
0
% es.tEZ (V/m) @ t=3.8
-1.7384999799448408
% es.Ex (V/m) @ t=3.8
1.7630873124986195
% es.Ey (V/m) @ t=3.8
0.7909579515052263
% es.Ez (V/m) @ t=3.8
-1.7384999799448266
% es.tEx (V/m) @ t=3.8
1.7630873124986124
% es.tEy (V/m) @ t=3.8
0
% es.tEz (V/m) @ t=3.8
-1.7384999799448408
% V (V) @ t=3.8
0.045183410479844775
% es.normE (V/m) @ t=3.9
2.7517487417488433
% es.EX (V/m) @ t=3.9
1.8325216567391394
% es.EY (V/m) @ t=3.9
0.8221080318714691
% es.EZ (V/m) @ t=3.9
-1.8069660459574415
% es.tEX (V/m) @ t=3.9
1.8325216567391394
% es.tEY (V/m) @ t=3.9
0
% es.tEZ (V/m) @ t=3.9
-1.806966045957445
% es.Ex (V/m) @ t=3.9
1.8325216567391394
% es.Ey (V/m) @ t=3.9
0.8221080318714691
% es.Ez (V/m) @ t=3.9
-1.8069660459574415
% es.tEx (V/m) @ t=3.9
1.8325216567391394
% es.tEy (V/m) @ t=3.9
0
% es.tEz (V/m) @ t=3.9
-1.806966045957445
% V (V) @ t=3.9
0.04696278801146837
% es.normE (V/m) @ t=4
2.858745608408808
% es.EX (V/m) @ t=4
1.9037755004128059
% es.EY (V/m) @ t=4
0.8540755413550158
% es.EZ (V/m) @ t=4
-1.8772263177791366
% es.tEX (V/m) @ t=4
1.9037755004127987
% es.tEY (V/m) @ t=4
0
% es.tEZ (V/m) @ t=4
-1.8772263177791402
% es.Ex (V/m) @ t=4
1.9037755004128059
% es.Ey (V/m) @ t=4
0.8540755413550158
% es.Ez (V/m) @ t=4
-1.8772263177791366
% es.tEx (V/m) @ t=4
1.9037755004127987
% es.tEy (V/m) @ t=4
0
% es.tEz (V/m) @ t=4
-1.8772263177791402
% V (V) @ t=4
0.04878865021048124
% es.normE (V/m) @ t=4.1
2.9684436906825535
% es.EX (V/m) @ t=4.1
1.9768277327182915
% es.EY (V/m) @ t=4.1
0.8868512869877616
% es.EZ (V/m) @ t=4.1
-1.949259998190012
% es.tEX (V/m) @ t=4.1
1.9768277327182844
% es.tEY (V/m) @ t=4.1
0
% es.tEZ (V/m) @ t=4.1
-1.9492599981900014
% es.Ex (V/m) @ t=4.1
1.9768277327182915
% es.Ey (V/m) @ t=4.1
0.8868512869877616
% es.Ez (V/m) @ t=4.1
-1.949259998190012
% es.tEx (V/m) @ t=4.1
1.9768277327182844
% es.tEy (V/m) @ t=4.1
0
% es.tEz (V/m) @ t=4.1
-1.9492599981900014
% V (V) @ t=4.1
0.05066042157649122
% es.normE (V/m) @ t=4.2
3.0807364360222884
% es.EX (V/m) @ t=4.2
2.0516074021081145
% es.EY (V/m) @ t=4.2
0.9204034176840095
% es.EZ (V/m) @ t=4.2
-2.0229971236607334
% es.tEX (V/m) @ t=4.2
2.0516074021080897
% es.tEY (V/m) @ t=4.2
0
% es.tEZ (V/m) @ t=4.2
-2.0229971236607227
% es.Ex (V/m) @ t=4.2
2.0516074021081145
% es.Ey (V/m) @ t=4.2
0.9204034176840095
% es.Ez (V/m) @ t=4.2
-2.0229971236607334
% es.tEx (V/m) @ t=4.2
2.0516074021080897
% es.tEy (V/m) @ t=4.2
0
% es.tEz (V/m) @ t=4.2
-2.0229971236607227
% V (V) @ t=4.2
0.052576286376797614
% es.normE (V/m) @ t=4.3
3.1939306490027066
% es.EX (V/m) @ t=4.3
2.1269890417546193
% es.EY (V/m) @ t=4.3
0.9542206888355667
% es.EZ (V/m) @ t=4.3
-2.0973274849137944
% es.tEX (V/m) @ t=4.3
2.1269890417546122
% es.tEY (V/m) @ t=4.3
0
% es.tEZ (V/m) @ t=4.3
-2.097327484913798
% es.Ex (V/m) @ t=4.3
2.1269890417546193
% es.Ey (V/m) @ t=4.3
0.9542206888355667
% es.Ez (V/m) @ t=4.3
-2.0973274849137944
% es.tEx (V/m) @ t=4.3
2.1269890417546122
% es.tEy (V/m) @ t=4.3
0
% es.tEz (V/m) @ t=4.3
-2.097327484913798
% V (V) @ t=4.3
0.054508188422422624
% es.normE (V/m) @ t=4.4
3.3088128518681135
% es.EX (V/m) @ t=4.4
2.2034952558738183
% es.EY (V/m) @ t=4.4
0.9885410859291239
% es.EZ (V/m) @ t=4.4
-2.1727666422820455
% es.tEX (V/m) @ t=4.4
2.2034952558738183
% es.tEY (V/m) @ t=4.4
0
% es.tEZ (V/m) @ t=4.4
-2.1727666422820775
% es.Ex (V/m) @ t=4.4
2.2034952558738183
% es.Ey (V/m) @ t=4.4
0.9885410859291239
% es.Ez (V/m) @ t=4.4
-2.1727666422820455
% es.tEx (V/m) @ t=4.4
2.2034952558738183
% es.tEy (V/m) @ t=4.4
0
% es.tEz (V/m) @ t=4.4
-2.1727666422820775
% V (V) @ t=4.4
0.05646908196489726
% es.normE (V/m) @ t=4.5
3.4252073129482983
% es.EX (V/m) @ t=4.5
2.281009115060236
% es.EY (V/m) @ t=4.5
1.0233118558705936
% es.EZ (V/m) @ t=4.5
-2.249199276543113
% es.tEX (V/m) @ t=4.5
2.2810091150602503
% es.tEY (V/m) @ t=4.5
0
% es.tEZ (V/m) @ t=4.5
-2.2491992765431164
% es.Ex (V/m) @ t=4.5
2.281009115060236
% es.Ey (V/m) @ t=4.5
1.0233118558705936
% es.Ez (V/m) @ t=4.5
-2.249199276543113
% es.tEx (V/m) @ t=4.5
2.2810091150602503
% es.tEy (V/m) @ t=4.5
0
% es.tEz (V/m) @ t=4.5
-2.2491992765431164
% V (V) @ t=4.5
0.05845600716294732
% es.normE (V/m) @ t=4.6
3.542938300577129
% es.EX (V/m) @ t=4.6
2.359413689908287
% es.EY (V/m) @ t=4.6
1.0584802455661269
% es.EZ (V/m) @ t=4.6
-2.326510068474686
% es.tEX (V/m) @ t=4.6
2.359413689908287
% es.tEY (V/m) @ t=4.6
0
% es.tEZ (V/m) @ t=4.6
-2.3265100684746756
% es.Ex (V/m) @ t=4.6
2.359413689908287
% es.Ey (V/m) @ t=4.6
1.0584802455661269
% es.Ez (V/m) @ t=4.6
-2.326510068474686
% es.tEx (V/m) @ t=4.6
2.359413689908287
% es.tEy (V/m) @ t=4.6
0
% es.tEz (V/m) @ t=4.6
-2.3265100684746756
% V (V) @ t=4.6
0.060466004175298696
% es.normE (V/m) @ t=4.7
3.661830083093844
% es.EX (V/m) @ t=4.7
2.4385920510124564
% es.EY (V/m) @ t=4.7
1.0939935019217568
% es.EZ (V/m) @ t=4.7
-2.4045836988545766
% es.tEX (V/m) @ t=4.7
2.438592051012442
% es.tEY (V/m) @ t=4.7
0
% es.tEZ (V/m) @ t=4.7
-2.4045836988545943
% es.Ex (V/m) @ t=4.7
2.4385920510124564
% es.Ey (V/m) @ t=4.7
1.0939935019217568
% es.Ez (V/m) @ t=4.7
-2.4045836988545766
% es.tEx (V/m) @ t=4.7
2.438592051012442
% es.tEy (V/m) @ t=4.7
0
% es.tEz (V/m) @ t=4.7
-2.4045836988545943
% V (V) @ t=4.7
0.06249611316067719
% es.normE (V/m) @ t=4.8
3.780070046433609
% es.EX (V/m) @ t=4.8
2.5173345774381914
% es.EY (V/m) @ t=4.8
1.1293165018832712
% es.EZ (V/m) @ t=4.8
-2.4822279362798874
% es.tEX (V/m) @ t=4.8
2.5173345774381914
% es.tEY (V/m) @ t=4.8
0
% es.tEZ (V/m) @ t=4.8
-2.482227936279891
% es.Ex (V/m) @ t=4.8
2.5173345774381914
% es.Ey (V/m) @ t=4.8
1.1293165018832712
% es.Ez (V/m) @ t=4.8
-2.4822279362798874
% es.tEx (V/m) @ t=4.8
2.5173345774381914
% es.tEy (V/m) @ t=4.8
0
% es.tEz (V/m) @ t=4.8
-2.482227936279891
% V (V) @ t=4.8
0.06451439881229479
% es.normE (V/m) @ t=4.9
3.897504630497952
% es.EX (V/m) @ t=4.9
2.595539140296573
% es.EY (V/m) @ t=4.9
1.1644030260622351
% es.EZ (V/m) @ t=4.9
-2.5593420483133436
% es.tEX (V/m) @ t=4.9
2.595539140296573
% es.tEY (V/m) @ t=4.9
0
% es.tEZ (V/m) @ t=4.9
-2.559342048313347
% es.Ex (V/m) @ t=4.9
2.595539140296573
% es.Ey (V/m) @ t=4.9
1.1644030260622351
% es.Ez (V/m) @ t=4.9
-2.5593420483133436
% es.tEx (V/m) @ t=4.9
2.595539140296573
% es.tEy (V/m) @ t=4.9
0
% es.tEz (V/m) @ t=4.9
-2.559342048313347
% V (V) @ t=4.9
0.06651829376181859
% es.normE (V/m) @ t=5
4.014208275139157
% es.EX (V/m) @ t=5
2.6732558107535027
% es.EY (V/m) @ t=5
1.1992740439633023
% es.EZ (V/m) @ t=5
-2.6359753046812067
% es.tEX (V/m) @ t=5
2.673255810753517
% es.tEY (V/m) @ t=5
0
% es.tEZ (V/m) @ t=5
-2.63597530468121
% es.Ex (V/m) @ t=5
2.6732558107535027
% es.Ey (V/m) @ t=5
1.1992740439633023
% es.Ez (V/m) @ t=5
-2.6359753046812067
% es.tEx (V/m) @ t=5
2.673255810753517
% es.tEy (V/m) @ t=5
0
% es.tEz (V/m) @ t=5
-2.63597530468121
% V (V) @ t=5
0.06850926660836384
% es.normE (V/m) @ t=5.1
4.129811816775554
% es.EX (V/m) @ t=5.1
2.750238535018042
% es.EY (V/m) @ t=5.1
1.2338198003806093
% es.EZ (V/m) @ t=5.1
-2.7118851264361687
% es.tEX (V/m) @ t=5.1
2.7502385350180134
% es.tEY (V/m) @ t=5.1
0
% es.tEZ (V/m) @ t=5.1
-2.711885126436165
% es.Ex (V/m) @ t=5.1
2.750238535018042
% es.Ey (V/m) @ t=5.1
1.2338198003806093
% es.Ez (V/m) @ t=5.1
-2.7118851264361687
% es.tEx (V/m) @ t=5.1
2.7502385350180134
% es.tEy (V/m) @ t=5.1
0
% es.tEz (V/m) @ t=5.1
-2.711885126436165
% V (V) @ t=5.1
0.07048093345264834
% es.normE (V/m) @ t=5.2
4.243946091844247
% es.EX (V/m) @ t=5.2
2.8262412592990245
% es.EY (V/m) @ t=5.2
1.267930540108595
% es.EZ (V/m) @ t=5.2
-2.7868289346306163
% es.tEX (V/m) @ t=5.2
2.8262412592990387
% es.tEY (V/m) @ t=5.2
0
% es.tEZ (V/m) @ t=5.2
-2.786828934630634
% es.Ex (V/m) @ t=5.2
2.8262412592990245
% es.Ey (V/m) @ t=5.2
1.267930540108595
% es.Ez (V/m) @ t=5.2
-2.7868289346306163
% es.tEx (V/m) @ t=5.2
2.8262412592990387
% es.tEy (V/m) @ t=5.2
0
% es.tEz (V/m) @ t=5.2
-2.786828934630634
% V (V) @ t=5.2
0.07242691039538984
% es.normE (V/m) @ t=5.3
4.355768855267182
% es.EX (V/m) @ t=5.3
2.9007051447166035
% es.EY (V/m) @ t=5.3
1.3013494013927493
% es.EZ (V/m) @ t=5.3
-2.8602552589481967
% es.tEX (V/m) @ t=5.3
2.9007051447166035
% es.tEY (V/m) @ t=5.3
0
% es.tEZ (V/m) @ t=5.3
-2.8602552589482144
% es.Ex (V/m) @ t=5.3
2.9007051447166035
% es.Ey (V/m) @ t=5.3
1.3013494013927493
% es.Ez (V/m) @ t=5.3
-2.8602552589481967