% Model:              1 neuron.mph
% Version:            COMSOL 6.1.0.252
% Date:               Mar 27 2023, 14:31
% Dimension:          0
% Nodes:              14017
% Expressions:        14017
% Description:        Electric field norm, Electric field, X component, Electric field, Y component, Electric field, Z component, Tangential electric field, X component, Tangential electric field, Y component, Tangential electric field, Z component, Electric field, x component, Electric field, y component, Electric field, z component, Tangential electric field, x component, Tangential electric field, y component, Tangential electric field, z component, Electric potential
% Length unit:        mm
% x
1.66
% y
12.200000000000001
% z
1.66
% es.normE (V/m) @ t=0
36.8588407540766
% es.EX (V/m) @ t=0
-17.406866189200187
% es.EY (V/m) @ t=0
13.965695248397601
% es.EZ (V/m) @ t=0
16.741442461729754
% es.tEX (V/m) @ t=0
-17.406866189200194
% es.tEY (V/m) @ t=0
0
% es.tEZ (V/m) @ t=0
16.741442461729832
% es.Ex (V/m) @ t=0
-17.406866189200187
% es.Ey (V/m) @ t=0
13.965695248397601
% es.Ez (V/m) @ t=0
16.741442461729754
% es.tEx (V/m) @ t=0
-17.406866189200194
% es.tEy (V/m) @ t=0
0
% es.tEz (V/m) @ t=0
16.741442461729832
% V (V) @ t=0
0.011567988094533792
% es.normE (V/m) @ t=0.02
31.83529080940436
% es.EX (V/m) @ t=0.02
-15.034456757495903
% es.EY (V/m) @ t=0.02
12.062288463584139
% es.EZ (V/m) @ t=0.02
14.459724673271989
% es.tEX (V/m) @ t=0.02
-15.034456757495882
% es.tEY (V/m) @ t=0.02
0
% es.tEZ (V/m) @ t=0.02
14.45972467327195
% es.Ex (V/m) @ t=0.02
-15.034456757495903
% es.Ey (V/m) @ t=0.02
12.062288463584139
% es.Ez (V/m) @ t=0.02
14.459724673271989
% es.tEx (V/m) @ t=0.02
-15.034456757495882
% es.tEy (V/m) @ t=0.02
0
% es.tEz (V/m) @ t=0.02
14.45972467327195
% V (V) @ t=0.02
0.009991368624152324
% es.normE (V/m) @ t=0.04
32.128082533369536
% es.EX (V/m) @ t=0.04
-15.172729845247702
% es.EY (V/m) @ t=0.04
12.173226296947448
% es.EZ (V/m) @ t=0.04
14.592711940713269
% es.tEX (V/m) @ t=0.04
-15.17272984524768
% es.tEY (V/m) @ t=0.04
0
% es.tEZ (V/m) @ t=0.04
14.592711940713258
% es.Ex (V/m) @ t=0.04
-15.172729845247702
% es.Ey (V/m) @ t=0.04
12.173226296947448
% es.Ez (V/m) @ t=0.04
14.592711940713269
% es.tEx (V/m) @ t=0.04
-15.17272984524768
% es.tEy (V/m) @ t=0.04
0
% es.tEz (V/m) @ t=0.04
14.592711940713258
% V (V) @ t=0.04
0.01008326004568166
% es.normE (V/m) @ t=0.06
32.42303141475006
% es.EX (V/m) @ t=0.06
-15.312021616287538
% es.EY (V/m) @ t=0.06
12.284981465871574
% es.EZ (V/m) @ t=0.06
14.726679054341762
% es.tEX (V/m) @ t=0.06
-15.312021616287538
% es.tEY (V/m) @ t=0.06
0
% es.tEZ (V/m) @ t=0.06
14.726679054341759
% es.Ex (V/m) @ t=0.06
-15.312021616287538
% es.Ey (V/m) @ t=0.06
12.284981465871574
% es.Ez (V/m) @ t=0.06
14.726679054341762
% es.tEx (V/m) @ t=0.06
-15.312021616287538
% es.tEy (V/m) @ t=0.06
0
% es.tEz (V/m) @ t=0.06
14.726679054341759
% V (V) @ t=0.06
0.010175828489452012
% es.normE (V/m) @ t=0.08
32.723580673169785
% es.EX (V/m) @ t=0.08
-15.453958427003435
% es.EY (V/m) @ t=0.08
12.398858618745983
% es.EZ (V/m) @ t=0.08
14.8631896395548
% es.tEX (V/m) @ t=0.08
-15.453958427003435
% es.tEY (V/m) @ t=0.08
0
% es.tEZ (V/m) @ t=0.08
14.863189639554747
% es.Ex (V/m) @ t=0.08
-15.453958427003435
% es.Ey (V/m) @ t=0.08
12.398858618745983
% es.Ez (V/m) @ t=0.08
14.8631896395548
% es.tEx (V/m) @ t=0.08
-15.453958427003435
% es.tEy (V/m) @ t=0.08
0
% es.tEz (V/m) @ t=0.08
14.863189639554747
% V (V) @ t=0.08
0.01027015455396907
% es.normE (V/m) @ t=0.1
33.025735278121005
% es.EX (V/m) @ t=0.1
-15.596653437611891
% es.EY (V/m) @ t=0.1
12.513344037733553
% es.EZ (V/m) @ t=0.1
15.00042931019513
% es.tEX (V/m) @ t=0.1
-15.59665343761192
% es.tEY (V/m) @ t=0.1
0
% es.tEZ (V/m) @ t=0.1
15.00042931019513
% es.Ex (V/m) @ t=0.1
-15.596653437611891
% es.Ey (V/m) @ t=0.1
12.513344037733553
% es.Ez (V/m) @ t=0.1
15.00042931019513
% es.tEx (V/m) @ t=0.1
-15.59665343761192
% es.tEy (V/m) @ t=0.1
0
% es.tEz (V/m) @ t=0.1
15.00042931019513
% V (V) @ t=0.1
0.010364984439987703
% es.normE (V/m) @ t=0.12
33.327889883072324
% es.EX (V/m) @ t=0.12
-15.739348448220454
% es.EY (V/m) @ t=0.12
12.627829456721116
% es.EZ (V/m) @ t=0.12
15.137668980835478
% es.tEX (V/m) @ t=0.12
-15.739348448220412
% es.tEY (V/m) @ t=0.12
0
% es.tEZ (V/m) @ t=0.12
15.137668980835485
% es.Ex (V/m) @ t=0.12
-15.739348448220454
% es.Ey (V/m) @ t=0.12
12.627829456721116
% es.Ez (V/m) @ t=0.12
15.137668980835478
% es.tEx (V/m) @ t=0.12
-15.739348448220412
% es.tEy (V/m) @ t=0.12
0
% es.tEz (V/m) @ t=0.12
15.137668980835485
% V (V) @ t=0.12
0.010459814326006334
% es.normE (V/m) @ t=0.14
33.638566433007355
% es.EX (V/m) @ t=0.14
-15.886068100373805
% es.EY (V/m) @ t=0.14
12.745543820929846
% es.EZ (V/m) @ t=0.14
15.278779256937618
% es.tEX (V/m) @ t=0.14
-15.886068100373755
% es.tEY (V/m) @ t=0.14
0
% es.tEZ (V/m) @ t=0.14
15.27877925693761
% es.Ex (V/m) @ t=0.14
-15.886068100373805
% es.Ey (V/m) @ t=0.14
12.745543820929846
% es.Ez (V/m) @ t=0.14
15.278779256937618
% es.tEx (V/m) @ t=0.14
-15.886068100373755
% es.tEy (V/m) @ t=0.14
0
% es.tEz (V/m) @ t=0.14
15.27877925693761
% V (V) @ t=0.14
0.010557318774080234
% es.normE (V/m) @ t=0.16
33.95591961270093
% es.EX (V/m) @ t=0.16
-16.03594091082107
% es.EY (V/m) @ t=0.16
12.865787944693906
% es.EZ (V/m) @ t=0.16
15.422922009740624
% es.tEX (V/m) @ t=0.16
-16.035940910821054
% es.tEY (V/m) @ t=0.16
0
% es.tEZ (V/m) @ t=0.16
15.422922009740631
% es.Ex (V/m) @ t=0.16
-16.03594091082107
% es.Ey (V/m) @ t=0.16
12.865787944693906
% es.Ez (V/m) @ t=0.16
15.422922009740624
% es.tEx (V/m) @ t=0.16
-16.035940910821054
% es.tEy (V/m) @ t=0.16
0
% es.tEz (V/m) @ t=0.16
15.422922009740631
% V (V) @ t=0.16
0.010656918642934658
% es.normE (V/m) @ t=0.18
34.27327279239455
% es.EX (V/m) @ t=0.18
-16.185813721268417
% es.EY (V/m) @ t=0.18
12.986032068457895
% es.EZ (V/m) @ t=0.18
15.567064762543701
% es.tEX (V/m) @ t=0.18
-16.185813721268424
% es.tEY (V/m) @ t=0.18
0
% es.tEZ (V/m) @ t=0.18
15.567064762543737
% es.Ex (V/m) @ t=0.18
-16.185813721268417
% es.Ey (V/m) @ t=0.18
12.986032068457895
% es.Ez (V/m) @ t=0.18
15.567064762543701
% es.tEx (V/m) @ t=0.18
-16.185813721268424
% es.tEy (V/m) @ t=0.18
0
% es.tEz (V/m) @ t=0.18
15.567064762543737
% V (V) @ t=0.18
0.010756518511789083
% es.normE (V/m) @ t=0.2
34.59062597208817
% es.EX (V/m) @ t=0.2
-16.335686531715737
% es.EY (V/m) @ t=0.2
13.106276192221934
% es.EZ (V/m) @ t=0.2
15.711207515346729
% es.tEX (V/m) @ t=0.2
-16.335686531715716
% es.tEY (V/m) @ t=0.2
0
% es.tEZ (V/m) @ t=0.2
15.711207515346757
% es.Ex (V/m) @ t=0.2
-16.335686531715737
% es.Ey (V/m) @ t=0.2
13.106276192221934
% es.Ez (V/m) @ t=0.2
15.711207515346729
% es.tEx (V/m) @ t=0.2
-16.335686531715716
% es.tEy (V/m) @ t=0.2
0
% es.tEz (V/m) @ t=0.2
15.711207515346757
% V (V) @ t=0.2
0.010856118380643508
% es.normE (V/m) @ t=0.22
34.907979151781845
% es.EX (V/m) @ t=0.22
-16.48555934216303
% es.EY (V/m) @ t=0.22
13.22652031598598
% es.EZ (V/m) @ t=0.22
15.855350268149827
% es.tEX (V/m) @ t=0.22
-16.485559342163036
% es.tEY (V/m) @ t=0.22
0
% es.tEZ (V/m) @ t=0.22
15.855350268149778
% es.Ex (V/m) @ t=0.22
-16.48555934216303
% es.Ey (V/m) @ t=0.22
13.22652031598598
% es.Ez (V/m) @ t=0.22
15.855350268149827
% es.tEx (V/m) @ t=0.22
-16.485559342163036
% es.tEy (V/m) @ t=0.22
0
% es.tEz (V/m) @ t=0.22
15.855350268149778
% V (V) @ t=0.22
0.010955718249497932
% es.normE (V/m) @ t=0.24
35.22533233147553
% es.EX (V/m) @ t=0.24
-16.635432152610363
% es.EY (V/m) @ t=0.24
13.346764439750046
% es.EZ (V/m) @ t=0.24
15.999493020952897
% es.tEX (V/m) @ t=0.24
-16.635432152610342
% es.tEY (V/m) @ t=0.24
0
% es.tEZ (V/m) @ t=0.24
15.999493020952855
% es.Ex (V/m) @ t=0.24
-16.635432152610363
% es.Ey (V/m) @ t=0.24
13.346764439750046
% es.Ez (V/m) @ t=0.24
15.999493020952897
% es.tEx (V/m) @ t=0.24
-16.635432152610342
% es.tEy (V/m) @ t=0.24
0
% es.tEz (V/m) @ t=0.24
15.999493020952855
% V (V) @ t=0.24
0.011055318118352355
% es.normE (V/m) @ t=0.26
35.547042166084566
% es.EX (V/m) @ t=0.26
-16.78735904663442
% es.EY (V/m) @ t=0.26
13.468658986568592
% es.EZ (V/m) @ t=0.26
16.145618336310598
% es.tEX (V/m) @ t=0.26
-16.787359046634386
% es.tEY (V/m) @ t=0.26
0
% es.tEZ (V/m) @ t=0.26
16.145618336310577
% es.Ex (V/m) @ t=0.26
-16.78735904663442
% es.Ey (V/m) @ t=0.26
13.468658986568592
% es.Ez (V/m) @ t=0.26
16.145618336310598
% es.tEx (V/m) @ t=0.26
-16.787359046634386
% es.tEy (V/m) @ t=0.26
0
% es.tEz (V/m) @ t=0.26
16.145618336310577
% V (V) @ t=0.26
0.01115628582150772
% es.normE (V/m) @ t=0.28
35.898512757374334
% es.EX (V/m) @ t=0.28
-16.95331759628914
% es.EY (V/m) @ t=0.28
13.60182774258174
% es.EZ (V/m) @ t=0.28
16.305286739860463
% es.tEX (V/m) @ t=0.28
-16.95331759628911
% es.tEY (V/m) @ t=0.28
0
% es.tEZ (V/m) @ t=0.28
16.305286739860435
% es.Ex (V/m) @ t=0.28
-16.95331759628914
% es.Ey (V/m) @ t=0.28
13.60182774258174
% es.Ez (V/m) @ t=0.28
16.305286739860463
% es.tEx (V/m) @ t=0.28
-16.95331759628911
% es.tEy (V/m) @ t=0.28
0
% es.tEz (V/m) @ t=0.28
16.305286739860435
% V (V) @ t=0.28
0.011266597341092168
% es.normE (V/m) @ t=0.3
36.249983348708895
% es.EX (V/m) @ t=0.3
-17.119276145943914
% es.EY (V/m) @ t=0.3
13.734996498594896
% es.EZ (V/m) @ t=0.3
16.464955143410414
% es.tEX (V/m) @ t=0.3
-17.119276145943893
% es.tEY (V/m) @ t=0.3
0
% es.tEZ (V/m) @ t=0.3
16.464955143410407
% es.Ex (V/m) @ t=0.3
-17.119276145943914
% es.Ey (V/m) @ t=0.3
13.734996498594896
% es.Ez (V/m) @ t=0.3
16.464955143410414
% es.tEx (V/m) @ t=0.3
-17.119276145943893
% es.tEy (V/m) @ t=0.3
0
% es.tEz (V/m) @ t=0.3
16.464955143410407
% V (V) @ t=0.3
0.011376908860676615
% es.normE (V/m) @ t=0.32
36.601453940086756
% es.EX (V/m) @ t=0.32
-17.28523469559859
% es.EY (V/m) @ t=0.32
13.868165254607945
% es.EZ (V/m) @ t=0.32
16.624623546960187
% es.tEX (V/m) @ t=0.32
-17.28523469559861
% es.tEY (V/m) @ t=0.32
0
% es.tEZ (V/m) @ t=0.32
16.62462354696021
% es.Ex (V/m) @ t=0.32
-17.28523469559859
% es.Ey (V/m) @ t=0.32
13.868165254607945
% es.Ez (V/m) @ t=0.32
16.624623546960187
% es.tEx (V/m) @ t=0.32
-17.28523469559861
% es.tEy (V/m) @ t=0.32
0
% es.tEz (V/m) @ t=0.32
16.62462354696021
% V (V) @ t=0.32
0.011487220380261062
% es.normE (V/m) @ t=0.34
36.9529245315069
% es.EX (V/m) @ t=0.34
-17.45119324525332
% es.EY (V/m) @ t=0.34
14.001334010621072
% es.EZ (V/m) @ t=0.34
16.78429195051006
% es.tEX (V/m) @ t=0.34
-17.45119324525337
% es.tEY (V/m) @ t=0.34
0
% es.tEZ (V/m) @ t=0.34
16.784291950510067
% es.Ex (V/m) @ t=0.34
-17.45119324525332
% es.Ey (V/m) @ t=0.34
14.001334010621072
% es.Ez (V/m) @ t=0.34
16.78429195051006
% es.tEx (V/m) @ t=0.34
-17.45119324525337
% es.tEy (V/m) @ t=0.34
0
% es.tEz (V/m) @ t=0.34
16.784291950510067
% V (V) @ t=0.34
0.011597531899845507
% es.normE (V/m) @ t=0.36
37.304395122968145
% es.EX (V/m) @ t=0.36
-17.617151794908096
% es.EY (V/m) @ t=0.36
14.13450276663415
% es.EZ (V/m) @ t=0.36
16.94396035405991
% es.tEX (V/m) @ t=0.36
-17.617151794908104
% es.tEY (V/m) @ t=0.36
0
% es.tEZ (V/m) @ t=0.36
16.943960354059868
% es.Ex (V/m) @ t=0.36
-17.617151794908096
% es.Ey (V/m) @ t=0.36
14.13450276663415
% es.Ez (V/m) @ t=0.36
16.94396035405991
% es.tEx (V/m) @ t=0.36
-17.617151794908104
% es.tEy (V/m) @ t=0.36
0
% es.tEz (V/m) @ t=0.36
16.943960354059868
% V (V) @ t=0.36
0.011707843419429955
% es.normE (V/m) @ t=0.38
37.65586571446928
% es.EX (V/m) @ t=0.38
-17.783110344562928
% es.EY (V/m) @ t=0.38
14.267671522647312
% es.EZ (V/m) @ t=0.38
17.10362875760982
% es.tEX (V/m) @ t=0.38
-17.7831103445629
% es.tEY (V/m) @ t=0.38
0
% es.tEZ (V/m) @ t=0.38
17.10362875760984
% es.Ex (V/m) @ t=0.38
-17.783110344562928
% es.Ey (V/m) @ t=0.38
14.267671522647312
% es.Ez (V/m) @ t=0.38
17.10362875760982
% es.tEx (V/m) @ t=0.38
-17.7831103445629
% es.tEy (V/m) @ t=0.38
0
% es.tEz (V/m) @ t=0.38
17.10362875760984
% V (V) @ t=0.38
0.011818154939014404
% es.normE (V/m) @ t=0.4
38.00733630600904
% es.EX (V/m) @ t=0.4
-17.94906889421759
% es.EY (V/m) @ t=0.4
14.400840278660418
% es.EZ (V/m) @ t=0.4
17.263297161159628
% es.tEX (V/m) @ t=0.4
-17.94906889421756
% es.tEY (V/m) @ t=0.4
0
% es.tEZ (V/m) @ t=0.4
17.263297161159585
% es.Ex (V/m) @ t=0.4
-17.94906889421759
% es.Ey (V/m) @ t=0.4
14.400840278660418
% es.Ez (V/m) @ t=0.4
17.263297161159628
% es.tEx (V/m) @ t=0.4
-17.94906889421756
% es.tEy (V/m) @ t=0.4
0
% es.tEz (V/m) @ t=0.4
17.263297161159585
% V (V) @ t=0.4
0.011928466458598852
% es.normE (V/m) @ t=0.42
38.358806897586675
% es.EX (V/m) @ t=0.42
-18.11502744387235
% es.EY (V/m) @ t=0.42
14.534009034673552
% es.EZ (V/m) @ t=0.42
17.422965564709543
% es.tEX (V/m) @ t=0.42
-18.11502744387235
% es.tEY (V/m) @ t=0.42
0
% es.tEZ (V/m) @ t=0.42
17.422965564709614
% es.Ex (V/m) @ t=0.42
-18.11502744387235
% es.Ey (V/m) @ t=0.42
14.534009034673552
% es.Ez (V/m) @ t=0.42
17.422965564709543
% es.tEx (V/m) @ t=0.42
-18.11502744387235
% es.tEy (V/m) @ t=0.42
0
% es.tEz (V/m) @ t=0.42
17.422965564709614
% V (V) @ t=0.42
0.012038777978183297
% es.normE (V/m) @ t=0.44
38.71027748920086
% es.EX (V/m) @ t=0.44
-18.280985993527082
% es.EY (V/m) @ t=0.44
14.667177790686736
% es.EZ (V/m) @ t=0.44
17.582633968259366
% es.tEX (V/m) @ t=0.44
-18.28098599352706
% es.tEY (V/m) @ t=0.44
0
% es.tEZ (V/m) @ t=0.44
17.582633968259415
% es.Ex (V/m) @ t=0.44
-18.280985993527082
% es.Ey (V/m) @ t=0.44
14.667177790686736
% es.Ez (V/m) @ t=0.44
17.582633968259366
% es.tEx (V/m) @ t=0.44
-18.28098599352706
% es.tEy (V/m) @ t=0.44
0
% es.tEz (V/m) @ t=0.44
17.582633968259415
% V (V) @ t=0.44
0.012149089497767744
% es.normE (V/m) @ t=0.46
39.06174808085074
% es.EX (V/m) @ t=0.46
-18.4469445431818
% es.EY (V/m) @ t=0.46
14.800346546699807
% es.EZ (V/m) @ t=0.46
17.74230237180918
% es.tEX (V/m) @ t=0.46
-18.446944543181786
% es.tEY (V/m) @ t=0.46
0
% es.tEZ (V/m) @ t=0.46
17.742302371809217
% es.Ex (V/m) @ t=0.46
-18.4469445431818
% es.Ey (V/m) @ t=0.46
14.800346546699807
% es.Ez (V/m) @ t=0.46
17.74230237180918
% es.tEx (V/m) @ t=0.46
-18.446944543181786
% es.tEy (V/m) @ t=0.46
0
% es.tEz (V/m) @ t=0.46
17.742302371809217
% V (V) @ t=0.46
0.012259401017352192
% es.normE (V/m) @ t=0.48
39.413218672535436
% es.EX (V/m) @ t=0.48
-18.612903092836575
% es.EY (V/m) @ t=0.48
14.933515302712934
% es.EZ (V/m) @ t=0.48
17.901970775359104
% es.tEX (V/m) @ t=0.48
-18.612903092836575
% es.tEY (V/m) @ t=0.48
0
% es.tEZ (V/m) @ t=0.48
17.901970775359132
% es.Ex (V/m) @ t=0.48
-18.612903092836575
% es.Ey (V/m) @ t=0.48
14.933515302712934
% es.Ez (V/m) @ t=0.48
17.901970775359104
% es.tEx (V/m) @ t=0.48
-18.612903092836575
% es.tEy (V/m) @ t=0.48
0
% es.tEz (V/m) @ t=0.48
17.901970775359132
% V (V) @ t=0.48
0.012369712536936639
% es.normE (V/m) @ t=0.5
39.76468926425386
% es.EX (V/m) @ t=0.5
-18.77886164249128
% es.EY (V/m) @ t=0.5
15.066684058726032
% es.EZ (V/m) @ t=0.5
18.061639178908948
% es.tEX (V/m) @ t=0.5
-18.778861642491265
% es.tEY (V/m) @ t=0.5
0
% es.tEZ (V/m) @ t=0.5
18.06163917890899
% es.Ex (V/m) @ t=0.5
-18.77886164249128
% es.Ey (V/m) @ t=0.5
15.066684058726032
% es.Ez (V/m) @ t=0.5
18.061639178908948
% es.tEx (V/m) @ t=0.5
-18.778861642491265
% es.tEy (V/m) @ t=0.5
0
% es.tEz (V/m) @ t=0.5
18.06163917890899
% V (V) @ t=0.5
0.012480024056521086
% es.normE (V/m) @ t=0.52
40.12606809467555
% es.EX (V/m) @ t=0.52
-18.94951438634969
% es.EY (V/m) @ t=0.52
15.203608338909206
% es.EZ (V/m) @ t=0.52
18.225791348655164
% es.tEX (V/m) @ t=0.52
-18.94951438634972
% es.tEY (V/m) @ t=0.52
0
% es.tEZ (V/m) @ t=0.52
18.225791348655207
% es.Ex (V/m) @ t=0.52
-18.94951438634969
% es.Ey (V/m) @ t=0.52
15.203608338909206
% es.Ez (V/m) @ t=0.52
18.225791348655164
% es.tEx (V/m) @ t=0.52
-18.94951438634972
% es.tEy (V/m) @ t=0.52
0
% es.tEz (V/m) @ t=0.52
18.225791348655207
% V (V) @ t=0.52
0.012593442946851567
% es.normE (V/m) @ t=0.54
40.51540348882573
% es.EX (V/m) @ t=0.54
-19.133412021001746
% es.EY (V/m) @ t=0.54
15.351129008024799
% es.EZ (V/m) @ t=0.54
18.402594676627814
% es.tEX (V/m) @ t=0.54
-19.133412021001725
% es.tEY (V/m) @ t=0.54
0
% es.tEZ (V/m) @ t=0.54
18.402594676627757
% es.Ex (V/m) @ t=0.54
-19.133412021001746
% es.Ey (V/m) @ t=0.54
15.351129008024799
% es.Ez (V/m) @ t=0.54
18.402594676627814
% es.tEx (V/m) @ t=0.54
-19.133412021001725
% es.tEy (V/m) @ t=0.54
0
% es.tEz (V/m) @ t=0.54
18.402594676627757
% V (V) @ t=0.54
0.012715629430596644
% es.normE (V/m) @ t=0.56
40.90473888304413
% es.EX (V/m) @ t=0.56
-19.317309655653773
% es.EY (V/m) @ t=0.56
15.498649677140385
% es.EZ (V/m) @ t=0.56
18.579398004600478
% es.tEX (V/m) @ t=0.56
-19.317309655653837
% es.tEY (V/m) @ t=0.56
0
% es.tEZ (V/m) @ t=0.56
18.579398004600534
% es.Ex (V/m) @ t=0.56
-19.317309655653773
% es.Ey (V/m) @ t=0.56
15.498649677140385
% es.Ez (V/m) @ t=0.56
18.579398004600478
% es.tEx (V/m) @ t=0.56
-19.317309655653837
% es.tEy (V/m) @ t=0.56
0
% es.tEz (V/m) @ t=0.56
18.579398004600534
% V (V) @ t=0.56
0.012837815914341723
% es.normE (V/m) @ t=0.58
41.29407427732872
% es.EX (V/m) @ t=0.58
-19.501207290305828
% es.EY (V/m) @ t=0.58
15.646170346255992
% es.EZ (V/m) @ t=0.58
18.756201332573063
% es.tEX (V/m) @ t=0.58
-19.50120729030587
% es.tEY (V/m) @ t=0.58
0
% es.tEZ (V/m) @ t=0.58
18.756201332573028
% es.Ex (V/m) @ t=0.58
-19.501207290305828
% es.Ey (V/m) @ t=0.58
15.646170346255992
% es.Ez (V/m) @ t=0.58
18.756201332573063
% es.tEx (V/m) @ t=0.58
-19.50120729030587
% es.tEy (V/m) @ t=0.58
0
% es.tEz (V/m) @ t=0.58
18.756201332573028
% V (V) @ t=0.58
0.012960002398086796
% es.normE (V/m) @ t=0.6
41.683409671677616
% es.EX (V/m) @ t=0.6
-19.68510492495794
% es.EY (V/m) @ t=0.6
15.793691015371543
% es.EZ (V/m) @ t=0.6
18.93300466054567
% es.tEX (V/m) @ t=0.6
-19.685104924957926
% es.tEY (V/m) @ t=0.6
0
% es.tEZ (V/m) @ t=0.6
18.93300466054569
% es.Ex (V/m) @ t=0.6
-19.68510492495794
% es.Ey (V/m) @ t=0.6
15.793691015371543
% es.Ez (V/m) @ t=0.6
18.93300466054567
% es.tEx (V/m) @ t=0.6
-19.685104924957926
% es.tEy (V/m) @ t=0.6
0
% es.tEz (V/m) @ t=0.6
18.93300466054569
% V (V) @ t=0.6
0.013082188881831875
% es.normE (V/m) @ t=0.62
42.07274506608926
% es.EX (V/m) @ t=0.62
-19.869002559609953
% es.EY (V/m) @ t=0.62
15.941211684487094
% es.EZ (V/m) @ t=0.62
19.109807988518398
% es.tEX (V/m) @ t=0.62
-19.86900255960998
% es.tEY (V/m) @ t=0.62
0
% es.tEZ (V/m) @ t=0.62
19.109807988518355
% es.Ex (V/m) @ t=0.62
-19.869002559609953
% es.Ey (V/m) @ t=0.62
15.941211684487094
% es.Ez (V/m) @ t=0.62
19.109807988518398
% es.tEx (V/m) @ t=0.62
-19.86900255960998
% es.tEy (V/m) @ t=0.62
0
% es.tEz (V/m) @ t=0.62
19.109807988518355
% V (V) @ t=0.62
0.013204375365576951
% es.normE (V/m) @ t=0.64
42.46208046056168
% es.EX (V/m) @ t=0.64
-20.052900194262037
% es.EY (V/m) @ t=0.64
16.088732353602758
% es.EZ (V/m) @ t=0.64
19.286611316490955
% es.tEX (V/m) @ t=0.64
-20.052900194261994
% es.tEY (V/m) @ t=0.64
0
% es.tEZ (V/m) @ t=0.64
19.286611316490905
% es.Ex (V/m) @ t=0.64
-20.052900194262037
% es.Ey (V/m) @ t=0.64
16.088732353602758
% es.Ez (V/m) @ t=0.64
19.286611316490955
% es.tEx (V/m) @ t=0.64
-20.052900194261994
% es.tEy (V/m) @ t=0.64
0
% es.tEz (V/m) @ t=0.64
19.286611316490905
% V (V) @ t=0.64
0.013326561849322027
% es.normE (V/m) @ t=0.66
42.851415855093215
% es.EX (V/m) @ t=0.66
-20.236797828914064
% es.EY (V/m) @ t=0.66
16.23625302271833
% es.EZ (V/m) @ t=0.66
19.46341464446354
% es.tEX (V/m) @ t=0.66
-20.23679782891407
% es.tEY (V/m) @ t=0.66
0
% es.tEZ (V/m) @ t=0.66
19.46341464446357
% es.Ex (V/m) @ t=0.66
-20.236797828914064
% es.Ey (V/m) @ t=0.66
16.23625302271833
% es.Ez (V/m) @ t=0.66
19.46341464446354
% es.tEx (V/m) @ t=0.66
-20.23679782891407
% es.tEy (V/m) @ t=0.66
0
% es.tEz (V/m) @ t=0.66
19.46341464446357
% V (V) @ t=0.66
0.013448748333067102
% es.normE (V/m) @ t=0.68
43.240751249682496
% es.EX (V/m) @ t=0.68
-20.420695463566148
% es.EY (V/m) @ t=0.68
16.38377369183383
% es.EZ (V/m) @ t=0.68
19.64021797243626
% es.tEX (V/m) @ t=0.68
-20.42069546356614
% es.tEY (V/m) @ t=0.68
0
% es.tEZ (V/m) @ t=0.68
19.64021797243629
% es.Ex (V/m) @ t=0.68
-20.420695463566148
% es.Ey (V/m) @ t=0.68
16.38377369183383
% es.Ez (V/m) @ t=0.68
19.64021797243626
% es.tEx (V/m) @ t=0.68
-20.42069546356614
% es.tEy (V/m) @ t=0.68
0
% es.tEz (V/m) @ t=0.68
19.64021797243629
% V (V) @ t=0.68
0.01357093481681218
% es.normE (V/m) @ t=0.7
43.63008664432767
% es.EX (V/m) @ t=0.7
-20.604593098218146
% es.EY (V/m) @ t=0.7
16.531294360949374
% es.EZ (V/m) @ t=0.7
19.81702130040879
% es.tEX (V/m) @ t=0.7
-20.604593098218118
% es.tEY (V/m) @ t=0.7
0
% es.tEZ (V/m) @ t=0.7
19.817021300408783
% es.Ex (V/m) @ t=0.7
-20.604593098218146
% es.Ey (V/m) @ t=0.7
16.531294360949374
% es.Ez (V/m) @ t=0.7
19.81702130040879
% es.tEx (V/m) @ t=0.7
-20.604593098218118
% es.tEy (V/m) @ t=0.7
0
% es.tEz (V/m) @ t=0.7
19.817021300408783
% V (V) @ t=0.7
0.013693121300557255
% es.normE (V/m) @ t=0.72
44.019422039027596
% es.EX (V/m) @ t=0.72
-20.788490732870244
% es.EY (V/m) @ t=0.72
16.67881503006506
% es.EZ (V/m) @ t=0.72
19.99382462838149
% es.tEX (V/m) @ t=0.72
-20.788490732870216
% es.tEY (V/m) @ t=0.72
0
% es.tEZ (V/m) @ t=0.72
19.993824628381503
% es.Ex (V/m) @ t=0.72
-20.788490732870244
% es.Ey (V/m) @ t=0.72
16.67881503006506
% es.Ez (V/m) @ t=0.72
19.99382462838149
% es.tEx (V/m) @ t=0.72
-20.788490732870216
% es.tEy (V/m) @ t=0.72
0
% es.tEz (V/m) @ t=0.72
19.993824628381503
% V (V) @ t=0.72
0.01381530778430233
% es.normE (V/m) @ t=0.74
44.40875743378059
% es.EX (V/m) @ t=0.74
-20.97238836752227
% es.EY (V/m) @ t=0.74
16.82633569918066
% es.EZ (V/m) @ t=0.74
20.170627956354103
% es.tEX (V/m) @ t=0.74
-20.972388367522242
% es.tEY (V/m) @ t=0.74
0
% es.tEZ (V/m) @ t=0.74
20.17062795635411
% es.Ex (V/m) @ t=0.74
-20.97238836752227
% es.Ey (V/m) @ t=0.74
16.82633569918066
% es.Ez (V/m) @ t=0.74
20.170627956354103
% es.tEx (V/m) @ t=0.74
-20.972388367522242
% es.tEy (V/m) @ t=0.74
0
% es.tEz (V/m) @ t=0.74
20.17062795635411
% V (V) @ t=0.74
0.013937494268047405
% es.normE (V/m) @ t=0.76
44.798092828585226
% es.EX (V/m) @ t=0.76
-21.15628600217434
% es.EY (V/m) @ t=0.76
16.973856368296055
% es.EZ (V/m) @ t=0.76
20.34743128432671
% es.tEX (V/m) @ t=0.76
-21.156286002174312
% es.tEY (V/m) @ t=0.76
0
% es.tEZ (V/m) @ t=0.76
20.347431284326774
% es.Ex (V/m) @ t=0.76
-21.15628600217434
% es.Ey (V/m) @ t=0.76
16.973856368296055
% es.Ez (V/m) @ t=0.76
20.34743128432671
% es.tEx (V/m) @ t=0.76
-21.156286002174312
% es.tEy (V/m) @ t=0.76
0
% es.tEz (V/m) @ t=0.76
20.347431284326774
% V (V) @ t=0.76
0.014059680751792484
% es.normE (V/m) @ t=0.78
45.204552337490775
% es.EX (V/m) @ t=0.78
-21.348255769767093
% es.EY (V/m) @ t=0.78
17.12786399254413
% es.EZ (V/m) @ t=0.78
20.53202895184762
% es.tEX (V/m) @ t=0.78
-21.348255769767036
% es.tEY (V/m) @ t=0.78
0
% es.tEZ (V/m) @ t=0.78
20.53202895184762
% es.Ex (V/m) @ t=0.78
-21.348255769767093
% es.Ey (V/m) @ t=0.78
17.12786399254413
% es.Ez (V/m) @ t=0.78
20.53202895184762
% es.tEx (V/m) @ t=0.78
-21.348255769767036
% es.tEy (V/m) @ t=0.78
0
% es.tEz (V/m) @ t=0.78
20.53202895184762
% V (V) @ t=0.78
0.014187243837695976
% es.normE (V/m) @ t=0.8
45.6371684472429
% es.EX (V/m) @ t=0.8
-21.552555492565205
% es.EY (V/m) @ t=0.8
17.291780257642174
% es.EZ (V/m) @ t=0.8
20.728532253008737
% es.tEX (V/m) @ t=0.8
-21.552555492565176
% es.tEY (V/m) @ t=0.8
0
% es.tEZ (V/m) @ t=0.8
20.728532253008723
% es.Ex (V/m) @ t=0.8
-21.552555492565205
% es.Ey (V/m) @ t=0.8
17.291780257642174
% es.Ez (V/m) @ t=0.8
20.728532253008737
% es.tEx (V/m) @ t=0.8
-21.552555492565176
% es.tEy (V/m) @ t=0.8
0
% es.tEz (V/m) @ t=0.8
20.728532253008723
% V (V) @ t=0.8
0.014323019531624816
% es.normE (V/m) @ t=0.82
46.069784556997654
% es.EX (V/m) @ t=0.82
-21.756855215363302
% es.EY (V/m) @ t=0.82
17.455696522740084
% es.EZ (V/m) @ t=0.82
20.925035554169853
% es.tEX (V/m) @ t=0.82
-21.756855215363302
% es.tEY (V/m) @ t=0.82
0
% es.tEZ (V/m) @ t=0.82
20.925035554169767
% es.Ex (V/m) @ t=0.82
-21.756855215363302
% es.Ey (V/m) @ t=0.82
17.455696522740084
% es.Ez (V/m) @ t=0.82
20.925035554169853
% es.tEx (V/m) @ t=0.82
-21.756855215363302
% es.tEy (V/m) @ t=0.82
0
% es.tEz (V/m) @ t=0.82
20.925035554169767
% V (V) @ t=0.82
0.014458795225553659
% es.normE (V/m) @ t=0.84
46.50240066675497
% es.EX (V/m) @ t=0.84
-21.961154938161386
% es.EY (V/m) @ t=0.84
17.619612787838165
% es.EZ (V/m) @ t=0.84
21.121538855331032
% es.tEX (V/m) @ t=0.84
-21.961154938161386
% es.tEY (V/m) @ t=0.84
0
% es.tEZ (V/m) @ t=0.84
21.12153885533104
% es.Ex (V/m) @ t=0.84
-21.961154938161386
% es.Ey (V/m) @ t=0.84
17.619612787838165
% es.Ez (V/m) @ t=0.84
21.121538855331032
% es.tEx (V/m) @ t=0.84
-21.961154938161386
% es.tEy (V/m) @ t=0.84
0
% es.tEz (V/m) @ t=0.84
21.12153885533104
% V (V) @ t=0.84
0.014594570919482502
% es.normE (V/m) @ t=0.86
46.9350167765147
% es.EX (V/m) @ t=0.86
-22.16545466095951
% es.EY (V/m) @ t=0.86
17.783529052936075
% es.EZ (V/m) @ t=0.86
21.31804215649214
% es.tEX (V/m) @ t=0.86
-22.16545466095957
% es.tEY (V/m) @ t=0.86
0
% es.tEZ (V/m) @ t=0.86
21.31804215649214
% es.Ex (V/m) @ t=0.86
-22.16545466095951
% es.Ey (V/m) @ t=0.86
17.783529052936075
% es.Ez (V/m) @ t=0.86
21.31804215649214
% es.tEx (V/m) @ t=0.86
-22.16545466095957
% es.tEy (V/m) @ t=0.86
0
% es.tEz (V/m) @ t=0.86
21.31804215649214
% V (V) @ t=0.86
0.014730346613411344
% es.normE (V/m) @ t=0.88
47.36763288627693
% es.EX (V/m) @ t=0.88
-22.369754383757652
% es.EY (V/m) @ t=0.88
17.94744531803409
% es.EZ (V/m) @ t=0.88
21.514545457653313
% es.tEX (V/m) @ t=0.88
-22.369754383757666
% es.tEY (V/m) @ t=0.88
0
% es.tEZ (V/m) @ t=0.88
21.5145454576533
% es.Ex (V/m) @ t=0.88
-22.369754383757652
% es.Ey (V/m) @ t=0.88
17.94744531803409
% es.Ez (V/m) @ t=0.88
21.514545457653313
% es.tEx (V/m) @ t=0.88
-22.369754383757666
% es.tEy (V/m) @ t=0.88
0
% es.tEz (V/m) @ t=0.88
21.5145454576533
% V (V) @ t=0.88
0.014866122307340189
% es.normE (V/m) @ t=0.9
47.80024899604153
% es.EX (V/m) @ t=0.9
-22.574054106555835
% es.EY (V/m) @ t=0.9
18.111361583132073
% es.EZ (V/m) @ t=0.9
21.711048758814506
% es.tEX (V/m) @ t=0.9
-22.57405410655584
% es.tEY (V/m) @ t=0.9
0
% es.tEZ (V/m) @ t=0.9
21.711048758814457
% es.Ex (V/m) @ t=0.9
-22.574054106555835
% es.Ey (V/m) @ t=0.9
18.111361583132073
% es.Ez (V/m) @ t=0.9
21.711048758814506
% es.tEx (V/m) @ t=0.9
-22.57405410655584
% es.tEy (V/m) @ t=0.9
0
% es.tEz (V/m) @ t=0.9
21.711048758814457
% V (V) @ t=0.9
0.015001898001269033
% es.normE (V/m) @ t=0.92
48.232865105808266
% es.EX (V/m) @ t=0.92
-22.778353829353932
% es.EY (V/m) @ t=0.92
18.275277848230118
% es.EZ (V/m) @ t=0.92
21.907552059975572
% es.tEX (V/m) @ t=0.92
-22.778353829353904
% es.tEY (V/m) @ t=0.92
0
% es.tEZ (V/m) @ t=0.92
21.907552059975615
% es.Ex (V/m) @ t=0.92
-22.778353829353932
% es.Ey (V/m) @ t=0.92
18.275277848230118
% es.Ez (V/m) @ t=0.92
21.907552059975572
% es.tEx (V/m) @ t=0.92
-22.778353829353904
% es.tEy (V/m) @ t=0.92
0
% es.tEz (V/m) @ t=0.92
21.907552059975615
% V (V) @ t=0.92
0.015137673695197876
% es.normE (V/m) @ t=0.94
48.6654812155774
% es.EX (V/m) @ t=0.94
-22.9826535521521
% es.EY (V/m) @ t=0.94
18.439194113328085
% es.EZ (V/m) @ t=0.94
22.104055361136737
% es.tEX (V/m) @ t=0.94
-22.98265355215208
% es.tEY (V/m) @ t=0.94
0
% es.tEZ (V/m) @ t=0.94
22.104055361136773
% es.Ex (V/m) @ t=0.94
-22.9826535521521
% es.Ey (V/m) @ t=0.94
18.439194113328085
% es.Ez (V/m) @ t=0.94
22.104055361136737
% es.tEx (V/m) @ t=0.94
-22.98265355215208
% es.tEy (V/m) @ t=0.94
0
% es.tEz (V/m) @ t=0.94
22.104055361136773
% V (V) @ t=0.94
0.015273449389126718
% es.normE (V/m) @ t=0.96
49.09809732534865
% es.EX (V/m) @ t=0.96
-23.18695327495024
% es.EY (V/m) @ t=0.96
18.60311037842611
% es.EZ (V/m) @ t=0.96
22.300558662297938
% es.tEX (V/m) @ t=0.96
-23.18695327495024
% es.tEY (V/m) @ t=0.96
0
% es.tEZ (V/m) @ t=0.96
22.30055866229793
% es.Ex (V/m) @ t=0.96
-23.18695327495024
% es.Ey (V/m) @ t=0.96
18.60311037842611
% es.Ez (V/m) @ t=0.96
22.300558662297938
% es.tEx (V/m) @ t=0.96
-23.18695327495024
% es.tEy (V/m) @ t=0.96
0
% es.tEz (V/m) @ t=0.96
22.30055866229793
% V (V) @ t=0.96
0.015409225083055561
% es.normE (V/m) @ t=0.98
49.53071343512188
% es.EX (V/m) @ t=0.98
-23.39125299774831
% es.EY (V/m) @ t=0.98
18.767026643524098
% es.EZ (V/m) @ t=0.98
22.497061963458997
% es.tEX (V/m) @ t=0.98
-23.39125299774831
% es.tEY (V/m) @ t=0.98
0
% es.tEZ (V/m) @ t=0.98
22.497061963459032
% es.Ex (V/m) @ t=0.98
-23.39125299774831
% es.Ey (V/m) @ t=0.98
18.767026643524098
% es.Ez (V/m) @ t=0.98
22.497061963458997
% es.tEx (V/m) @ t=0.98
-23.39125299774831
% es.tEy (V/m) @ t=0.98
0
% es.tEz (V/m) @ t=0.98
22.497061963459032
% V (V) @ t=0.98
0.015545000776984404
% es.normE (V/m) @ t=1
49.963329544897235
% es.EX (V/m) @ t=1
-23.595552720546365
% es.EY (V/m) @ t=1
18.930942908622107
% es.EZ (V/m) @ t=1
22.69356526462012
% es.tEX (V/m) @ t=1
-23.595552720546365
% es.tEY (V/m) @ t=1
0
% es.tEZ (V/m) @ t=1
22.69356526462019
% es.Ex (V/m) @ t=1
-23.595552720546365
% es.Ey (V/m) @ t=1
18.930942908622107
% es.Ez (V/m) @ t=1
22.69356526462012
% es.tEx (V/m) @ t=1
-23.595552720546365
% es.tEy (V/m) @ t=1
0
% es.tEz (V/m) @ t=1
22.69356526462019
% V (V) @ t=1
0.015680776470913246
% es.normE (V/m) @ t=1.02
50.39594565467468
% es.EX (V/m) @ t=1.02
-23.799852443344605
% es.EY (V/m) @ t=1.02
19.09485917372013
% es.EZ (V/m) @ t=1.02
22.890068565781277
% es.tEX (V/m) @ t=1.02
-23.799852443344598
% es.tEY (V/m) @ t=1.02
0
% es.tEZ (V/m) @ t=1.02
22.89006856578129
% es.Ex (V/m) @ t=1.02
-23.799852443344605
% es.Ey (V/m) @ t=1.02
19.09485917372013
% es.Ez (V/m) @ t=1.02
22.890068565781277
% es.tEx (V/m) @ t=1.02
-23.799852443344598
% es.tEy (V/m) @ t=1.02
0
% es.tEz (V/m) @ t=1.02
22.89006856578129
% V (V) @ t=1.02
0.01581655216484209
% es.normE (V/m) @ t=1.04
50.83950202580472
% es.EX (V/m) @ t=1.04
-24.00932011196423
% es.EY (V/m) @ t=1.04
19.26292078568723
% es.EZ (V/m) @ t=1.04
23.09153950975309
% es.tEX (V/m) @ t=1.04
-24.009320111964172
% es.tEY (V/m) @ t=1.04
0
% es.tEZ (V/m) @ t=1.04
23.09153950975309
% es.Ex (V/m) @ t=1.04
-24.00932011196423
% es.Ey (V/m) @ t=1.04
19.26292078568723
% es.Ez (V/m) @ t=1.04
23.09153950975309