% Model:              1 neuron.mph
% Version:            COMSOL 6.1.0.252
% Date:               Mar 27 2023, 14:45
% Dimension:          0
% Nodes:              14017
% Expressions:        14017
% Description:        Electric field norm, Electric field, X component, Electric field, Y component, Electric field, Z component, Tangential electric field, X component, Tangential electric field, Y component, Tangential electric field, Z component, Electric field, x component, Electric field, y component, Electric field, z component, Tangential electric field, x component, Tangential electric field, y component, Tangential electric field, z component, Electric potential
% Length unit:        mm
% x
1
% y
12.2
% z
1.6599999999999997
% es.normE (V/m) @ t=0
2.8868291555149153
% es.EX (V/m) @ t=0
2.5843173655924683
% es.EY (V/m) @ t=0
0.09943323069241855
% es.EZ (V/m) @ t=0
-1.2826532060777134
% es.tEX (V/m) @ t=0
2.5843173655924625
% es.tEY (V/m) @ t=0
0
% es.tEZ (V/m) @ t=0
-1.282653206077704
% es.Ex (V/m) @ t=0
2.5843173655924683
% es.Ey (V/m) @ t=0
0.09943323069241855
% es.Ez (V/m) @ t=0
-1.2826532060777134
% es.tEx (V/m) @ t=0
2.5843173655924625
% es.tEy (V/m) @ t=0
0
% es.tEz (V/m) @ t=0
-1.282653206077704
% V (V) @ t=0
0.013097513990330644
% es.normE (V/m) @ t=0.02
2.493380679199052
% es.EX (V/m) @ t=0.02
2.232098486535713
% es.EY (V/m) @ t=0.02
0.0858813894623511
% es.EZ (V/m) @ t=0.02
-1.10783927568597
% es.tEX (V/m) @ t=0.02
2.232098486535709
% es.tEY (V/m) @ t=0.02
0
% es.tEZ (V/m) @ t=0.02
-1.1078392756859472
% es.Ex (V/m) @ t=0.02
2.232098486535713
% es.Ey (V/m) @ t=0.02
0.0858813894623511
% es.Ez (V/m) @ t=0.02
-1.10783927568597
% es.tEx (V/m) @ t=0.02
2.232098486535709
% es.tEy (V/m) @ t=0.02
0
% es.tEz (V/m) @ t=0.02
-1.1078392756859472
% V (V) @ t=0.02
0.011312442302024524
% es.normE (V/m) @ t=0.04
2.5163147233704146
% es.EX (V/m) @ t=0.04
2.25262926457734
% es.EY (V/m) @ t=0.04
0.08667132404660205
% es.EZ (V/m) @ t=0.04
-1.1180291496452224
% es.tEX (V/m) @ t=0.04
2.252629264577334
% es.tEY (V/m) @ t=0.04
0
% es.tEZ (V/m) @ t=0.04
-1.1180291496452313
% es.Ex (V/m) @ t=0.04
2.25262926457734
% es.Ey (V/m) @ t=0.04
0.08667132404660205
% es.Ez (V/m) @ t=0.04
-1.1180291496452224
% es.tEx (V/m) @ t=0.04
2.252629264577334
% es.tEy (V/m) @ t=0.04
0
% es.tEz (V/m) @ t=0.04
-1.1180291496452313
% V (V) @ t=0.04
0.011416493822274287
% es.normE (V/m) @ t=0.06
2.5394175437403916
% es.EX (V/m) @ t=0.06
2.2733111321128563
% es.EY (V/m) @ t=0.06
0.08746706932767145
% es.EZ (V/m) @ t=0.06
-1.128294014307415
% es.tEX (V/m) @ t=0.06
2.27331113211285
% es.tEY (V/m) @ t=0.06
0
% es.tEZ (V/m) @ t=0.06
-1.128294014307393
% es.Ex (V/m) @ t=0.06
2.2733111321128563
% es.Ey (V/m) @ t=0.06
0.08746706932767145
% es.Ez (V/m) @ t=0.06
-1.128294014307415
% es.tEx (V/m) @ t=0.06
2.27331113211285
% es.tEy (V/m) @ t=0.06
0
% es.tEz (V/m) @ t=0.06
-1.128294014307393
% V (V) @ t=0.06
0.011521311145856729
% es.normE (V/m) @ t=0.08
2.5629595775060547
% es.EX (V/m) @ t=0.08
2.29438618673398
% es.EY (V/m) @ t=0.08
0.08827793840454273
% es.EZ (V/m) @ t=0.08
-1.1387540291453284
% es.tEX (V/m) @ t=0.08
2.2943861867339805
% es.tEY (V/m) @ t=0.08
0
% es.tEZ (V/m) @ t=0.08
-1.138754029145339
% es.Ex (V/m) @ t=0.08
2.29438618673398
% es.Ey (V/m) @ t=0.08
0.08827793840454273
% es.Ez (V/m) @ t=0.08
-1.1387540291453284
% es.tEx (V/m) @ t=0.08
2.2943861867339805
% es.tEy (V/m) @ t=0.08
0
% es.tEz (V/m) @ t=0.08
-1.138754029145339
% V (V) @ t=0.08
0.011628121290027252
% es.normE (V/m) @ t=0.1
2.5866266942339666
% es.EX (V/m) @ t=0.1
2.315573216549544
% es.EY (V/m) @ t=0.1
0.08909311456583807
% es.EZ (V/m) @ t=0.1
-1.1492696205260091
% es.tEX (V/m) @ t=0.1
2.315573216549547
% es.tEY (V/m) @ t=0.1
0
% es.tEZ (V/m) @ t=0.1
-1.1492696205260131
% es.Ex (V/m) @ t=0.1
2.315573216549544
% es.Ey (V/m) @ t=0.1
0.08909311456583807
% es.Ez (V/m) @ t=0.1
-1.1492696205260091
% es.tEx (V/m) @ t=0.1
2.315573216549547
% es.tEy (V/m) @ t=0.1
0
% es.tEz (V/m) @ t=0.1
-1.1492696205260131
% V (V) @ t=0.1
0.011735498966756581
% es.normE (V/m) @ t=0.12
2.610293810961842
% es.EX (V/m) @ t=0.12
2.3367602463650687
% es.EY (V/m) @ t=0.12
0.08990829072714229
% es.EZ (V/m) @ t=0.12
-1.1597852119066863
% es.tEX (V/m) @ t=0.12
2.3367602463650634
% es.tEY (V/m) @ t=0.12
0
% es.tEZ (V/m) @ t=0.12
-1.15978521190668
% es.Ex (V/m) @ t=0.12
2.3367602463650687
% es.Ey (V/m) @ t=0.12
0.08990829072714229
% es.Ez (V/m) @ t=0.12
-1.1597852119066863
% es.tEx (V/m) @ t=0.12
2.3367602463650634
% es.tEy (V/m) @ t=0.12
0
% es.tEz (V/m) @ t=0.12
-1.15978521190668
% V (V) @ t=0.12
0.01184287664348591
% es.normE (V/m) @ t=0.14
2.6346309424445398
% es.EX (V/m) @ t=0.14
2.3585470826337627
% es.EY (V/m) @ t=0.14
0.090746556879229
% es.EZ (V/m) @ t=0.14
-1.1705984924474149
% es.tEX (V/m) @ t=0.14
2.358547082633761
% es.tEY (V/m) @ t=0.14
0
% es.tEZ (V/m) @ t=0.14
-1.1705984924474109
% es.Ex (V/m) @ t=0.14
2.3585470826337627
% es.Ey (V/m) @ t=0.14
0.090746556879229
% es.Ez (V/m) @ t=0.14
-1.1705984924474149
% es.tEx (V/m) @ t=0.14
2.358547082633761
% es.tEy (V/m) @ t=0.14
0
% es.tEz (V/m) @ t=0.14
-1.1705984924474109
% V (V) @ t=0.14
0.011953293852487874
% es.normE (V/m) @ t=0.16
2.6594882308638064
% es.EX (V/m) @ t=0.16
2.380799570569038
% es.EY (V/m) @ t=0.16
0.09160274863483975
% es.EZ (V/m) @ t=0.16
-1.1816428799606729
% es.tEX (V/m) @ t=0.16
2.3807995705690344
% es.tEY (V/m) @ t=0.16
0
% es.tEZ (V/m) @ t=0.16
-1.1816428799606769
% es.Ex (V/m) @ t=0.16
2.380799570569038
% es.Ey (V/m) @ t=0.16
0.09160274863483975
% es.Ez (V/m) @ t=0.16
-1.1816428799606729
% es.tEx (V/m) @ t=0.16
2.3807995705690344
% es.tEy (V/m) @ t=0.16
0
% es.tEz (V/m) @ t=0.16
-1.1816428799606769
% V (V) @ t=0.16
0.012066070761457957
% es.normE (V/m) @ t=0.18
2.684345519283087
% es.EX (V/m) @ t=0.18
2.4030520585043127
% es.EY (V/m) @ t=0.18
0.09245894039046554
% es.EZ (V/m) @ t=0.18
-1.1926872674739626
% es.tEX (V/m) @ t=0.18
2.403052058504314
% es.tEY (V/m) @ t=0.18
0
% es.tEZ (V/m) @ t=0.18
-1.192687267473957
% es.Ex (V/m) @ t=0.18
2.4030520585043127
% es.Ey (V/m) @ t=0.18
0.09245894039046554
% es.Ez (V/m) @ t=0.18
-1.1926872674739626
% es.tEx (V/m) @ t=0.18
2.403052058504314
% es.tEy (V/m) @ t=0.18
0
% es.tEz (V/m) @ t=0.18
-1.192687267473957
% V (V) @ t=0.18
0.012178847670428036
% es.normE (V/m) @ t=0.2
2.7092028077023524
% es.EX (V/m) @ t=0.2
2.4253045464395804
% es.EY (V/m) @ t=0.2
0.09331513214605847
% es.EZ (V/m) @ t=0.2
-1.2037316549872348
% es.tEX (V/m) @ t=0.2
2.4253045464395795
% es.tEY (V/m) @ t=0.2
0
% es.tEZ (V/m) @ t=0.2
-1.203731654987223
% es.Ex (V/m) @ t=0.2
2.4253045464395804
% es.Ey (V/m) @ t=0.2
0.09331513214605847
% es.Ez (V/m) @ t=0.2
-1.2037316549872348
% es.tEx (V/m) @ t=0.2
2.4253045464395795
% es.tEy (V/m) @ t=0.2
0
% es.tEz (V/m) @ t=0.2
-1.203731654987223
% V (V) @ t=0.2
0.012291624579398117
% es.normE (V/m) @ t=0.22
2.734060096121618
% es.EX (V/m) @ t=0.22
2.4475570343748525
% es.EY (V/m) @ t=0.22
0.09417132390168692
% es.EZ (V/m) @ t=0.22
-1.214776042500496
% es.tEX (V/m) @ t=0.22
2.447557034374846
% es.tEY (V/m) @ t=0.22
0
% es.tEZ (V/m) @ t=0.22
-1.2147760425004677
% es.Ex (V/m) @ t=0.22
2.4475570343748525
% es.Ey (V/m) @ t=0.22
0.09417132390168692
% es.Ez (V/m) @ t=0.22
-1.214776042500496
% es.tEx (V/m) @ t=0.22
2.447557034374846
% es.tEy (V/m) @ t=0.22
0
% es.tEz (V/m) @ t=0.22
-1.2147760425004677
% V (V) @ t=0.22
0.0124044014883682
% es.normE (V/m) @ t=0.24
2.7589173845409003
% es.EX (V/m) @ t=0.24
2.4698095223101344
% es.EY (V/m) @ t=0.24
0.09502751565728429
% es.EZ (V/m) @ t=0.24
-1.2258204300137754
% es.tEX (V/m) @ t=0.24
2.4698095223101335
% es.tEY (V/m) @ t=0.24
0
% es.tEZ (V/m) @ t=0.24
-1.2258204300137763
% es.Ex (V/m) @ t=0.24
2.4698095223101344
% es.Ey (V/m) @ t=0.24
0.09502751565728429
% es.Ez (V/m) @ t=0.24
-1.2258204300137754
% es.tEx (V/m) @ t=0.24
2.4698095223101335
% es.tEy (V/m) @ t=0.24
0
% es.tEz (V/m) @ t=0.24
-1.2258204300137763
% V (V) @ t=0.24
0.012517178397338282
% es.normE (V/m) @ t=0.26
2.78412614135057
% es.EX (V/m) @ t=0.26
2.4923766379377446
% es.EY (V/m) @ t=0.26
0.095895768384328
% es.EZ (V/m) @ t=0.26
-1.2370210032509066
% es.tEX (V/m) @ t=0.26
2.492376637937742
% es.tEY (V/m) @ t=0.26
0
% es.tEZ (V/m) @ t=0.26
-1.2370210032509021
% es.Ex (V/m) @ t=0.26
2.4923766379377446
% es.Ey (V/m) @ t=0.26
0.095895768384328
% es.Ez (V/m) @ t=0.26
-1.2370210032509066
% es.tEx (V/m) @ t=0.26
2.492376637937742
% es.tEy (V/m) @ t=0.26
0
% es.tEz (V/m) @ t=0.26
-1.2370210032509021
% V (V) @ t=0.26
0.012631551087974082
% es.normE (V/m) @ t=0.28
2.8116421853796356
% es.EX (V/m) @ t=0.28
2.51700919237357
% es.EY (V/m) @ t=0.28
0.09684319786212747
% es.EZ (V/m) @ t=0.28
-1.2492468900990228
% es.tEX (V/m) @ t=0.28
2.5170091923735605
% es.tEY (V/m) @ t=0.28
0
% es.tEZ (V/m) @ t=0.28
-1.2492468900990161
% es.Ex (V/m) @ t=0.28
2.51700919237357
% es.Ey (V/m) @ t=0.28
0.09684319786212747
% es.Ez (V/m) @ t=0.28
-1.2492468900990228
% es.tEx (V/m) @ t=0.28
2.5170091923735605
% es.tEy (V/m) @ t=0.28
0
% es.tEz (V/m) @ t=0.28
-1.2492468900990161
% V (V) @ t=0.28
0.012756399618664423
% es.normE (V/m) @ t=0.3
2.839158229408744
% es.EX (V/m) @ t=0.3
2.5416417468093764
% es.EY (V/m) @ t=0.3
0.09779062733997129
% es.EZ (V/m) @ t=0.3
-1.261472776947139
% es.tEX (V/m) @ t=0.3
2.541641746809371
% es.tEY (V/m) @ t=0.3
0
% es.tEZ (V/m) @ t=0.3
-1.2614727769471372
% es.Ex (V/m) @ t=0.3
2.5416417468093764
% es.Ey (V/m) @ t=0.3
0.09779062733997129
% es.Ez (V/m) @ t=0.3
-1.261472776947139
% es.tEx (V/m) @ t=0.3
2.541641746809371
% es.tEy (V/m) @ t=0.3
0
% es.tEz (V/m) @ t=0.3
-1.2614727769471372
% V (V) @ t=0.3
0.012881248149354763
% es.normE (V/m) @ t=0.32
2.8666742734378845
% es.EX (V/m) @ t=0.32
2.5662743012451736
% es.EY (V/m) @ t=0.32
0.09873805681772907
% es.EZ (V/m) @ t=0.32
-1.2736986637952303
% es.tEX (V/m) @ t=0.32
2.566274301245161
% es.tEY (V/m) @ t=0.32
0
% es.tEZ (V/m) @ t=0.32
-1.2736986637952157
% es.Ex (V/m) @ t=0.32
2.5662743012451736
% es.Ey (V/m) @ t=0.32
0.09873805681772907
% es.Ez (V/m) @ t=0.32
-1.2736986637952303
% es.tEx (V/m) @ t=0.32
2.566274301245161
% es.tEy (V/m) @ t=0.32
0
% es.tEz (V/m) @ t=0.32
-1.2736986637952157
% V (V) @ t=0.32
0.013006096680045105
% es.normE (V/m) @ t=0.34
2.894190317467116
% es.EX (V/m) @ t=0.34
2.5909068556809913
% es.EY (V/m) @ t=0.34
0.09968548629556495
% es.EZ (V/m) @ t=0.34
-1.2859245506433536
% es.tEX (V/m) @ t=0.34
2.590906855680987
% es.tEY (V/m) @ t=0.34
0
% es.tEZ (V/m) @ t=0.34
-1.285924550643351
% es.Ex (V/m) @ t=0.34
2.5909068556809913
% es.Ey (V/m) @ t=0.34
0.09968548629556495
% es.Ez (V/m) @ t=0.34
-1.2859245506433536
% es.tEx (V/m) @ t=0.34
2.590906855680987
% es.tEy (V/m) @ t=0.34
0
% es.tEz (V/m) @ t=0.34
-1.285924550643351
% V (V) @ t=0.34
0.013130945210735446
% es.normE (V/m) @ t=0.36
2.921706361496396
% es.EX (V/m) @ t=0.36
2.615539410116802
% es.EY (V/m) @ t=0.36
0.10063291577338124
% es.EZ (V/m) @ t=0.36
-1.298150437491484
% es.tEX (V/m) @ t=0.36
2.6155394101167904
% es.tEY (V/m) @ t=0.36
0
% es.tEZ (V/m) @ t=0.36
-1.298150437491465
% es.Ex (V/m) @ t=0.36
2.615539410116802
% es.Ey (V/m) @ t=0.36
0.10063291577338124
% es.Ez (V/m) @ t=0.36
-1.298150437491484
% es.tEx (V/m) @ t=0.36
2.6155394101167904
% es.tEy (V/m) @ t=0.36
0
% es.tEz (V/m) @ t=0.36
-1.298150437491465
% V (V) @ t=0.36
0.013255793741425787
% es.normE (V/m) @ t=0.38
2.9492224055257106
% es.EX (V/m) @ t=0.38
2.6401719645526054
% es.EY (V/m) @ t=0.38
0.10158034525116383
% es.EZ (V/m) @ t=0.38
-1.3103763243395967
% es.tEX (V/m) @ t=0.38
2.640171964552601
% es.tEY (V/m) @ t=0.38
0
% es.tEZ (V/m) @ t=0.38
-1.3103763243395647
% es.Ex (V/m) @ t=0.38
2.6401719645526054
% es.Ey (V/m) @ t=0.38
0.10158034525116383
% es.Ez (V/m) @ t=0.38
-1.3103763243395967
% es.tEx (V/m) @ t=0.38
2.640171964552601
% es.tEy (V/m) @ t=0.38
0
% es.tEz (V/m) @ t=0.38
-1.3103763243395647
% V (V) @ t=0.38
0.013380642272116133
% es.normE (V/m) @ t=0.4
2.9767384495550733
% es.EX (V/m) @ t=0.4
2.664804518988413
% es.EY (V/m) @ t=0.4
0.10252777472898988
% es.EZ (V/m) @ t=0.4
-1.3226022111876916
% es.tEX (V/m) @ t=0.4
2.664804518988406
% es.tEY (V/m) @ t=0.4
0
% es.tEZ (V/m) @ t=0.4
-1.322602211187693
% es.Ex (V/m) @ t=0.4
2.664804518988413
% es.Ey (V/m) @ t=0.4
0.10252777472898988
% es.Ez (V/m) @ t=0.4
-1.3226022111876916
% es.tEx (V/m) @ t=0.4
2.664804518988406
% es.tEy (V/m) @ t=0.4
0
% es.tEz (V/m) @ t=0.4
-1.322602211187693
% V (V) @ t=0.4
0.013505490802806473
% es.normE (V/m) @ t=0.42
3.0042544935845044
% es.EX (V/m) @ t=0.42
2.689437073424227
% es.EY (V/m) @ t=0.42
0.10347520420680895
% es.EZ (V/m) @ t=0.42
-1.3348280980358185
% es.tEX (V/m) @ t=0.42
2.6894370734242097
% es.tEY (V/m) @ t=0.42
0
% es.tEZ (V/m) @ t=0.42
-1.3348280980357998
% es.Ex (V/m) @ t=0.42
2.689437073424227
% es.Ey (V/m) @ t=0.42
0.10347520420680895
% es.Ez (V/m) @ t=0.42
-1.3348280980358185
% es.tEx (V/m) @ t=0.42
2.6894370734242097
% es.tEy (V/m) @ t=0.42
0
% es.tEz (V/m) @ t=0.42
-1.3348280980357998
% V (V) @ t=0.42
0.013630339333496813
% es.normE (V/m) @ t=0.44
3.0317705376139643
% es.EX (V/m) @ t=0.44
2.7140696278600336
% es.EY (V/m) @ t=0.44
0.1044226336846128
% es.EZ (V/m) @ t=0.44
-1.3470539848839205
% es.tEX (V/m) @ t=0.44
2.7140696278600274
% es.tEY (V/m) @ t=0.44
0
% es.tEZ (V/m) @ t=0.44
-1.3470539848839138
% es.Ex (V/m) @ t=0.44
2.7140696278600336
% es.Ey (V/m) @ t=0.44
0.1044226336846128
% es.Ez (V/m) @ t=0.44
-1.3470539848839205
% es.tEx (V/m) @ t=0.44
2.7140696278600274
% es.tEy (V/m) @ t=0.44
0
% es.tEz (V/m) @ t=0.44
-1.3470539848839138
% V (V) @ t=0.44
0.013755187864187158
% es.normE (V/m) @ t=0.46
3.059286581643472
% es.EX (V/m) @ t=0.46
2.7387021822958415
% es.EY (V/m) @ t=0.46
0.10537006316239361
% es.EZ (V/m) @ t=0.46
-1.359279871732026
% es.tEX (V/m) @ t=0.46
2.7387021822958326
% es.tEY (V/m) @ t=0.46
0
% es.tEZ (V/m) @ t=0.46
-1.3592798717320136
% es.Ex (V/m) @ t=0.46
2.7387021822958415
% es.Ey (V/m) @ t=0.46
0.10537006316239361
% es.Ez (V/m) @ t=0.46
-1.359279871732026
% es.tEx (V/m) @ t=0.46
2.7387021822958326
% es.tEy (V/m) @ t=0.46
0
% es.tEz (V/m) @ t=0.46
-1.3592798717320136
% V (V) @ t=0.46
0.013880036394877497
% es.normE (V/m) @ t=0.48
3.086802625673032
% es.EX (V/m) @ t=0.48
2.7633347367316556
% es.EY (V/m) @ t=0.48
0.10631749264021528
% es.EZ (V/m) @ t=0.48
-1.3715057585801351
% es.tEX (V/m) @ t=0.48
2.763334736731636
% es.tEY (V/m) @ t=0.48
0
% es.tEZ (V/m) @ t=0.48
-1.3715057585801276
% es.Ex (V/m) @ t=0.48
2.7633347367316556
% es.Ey (V/m) @ t=0.48
0.10631749264021528
% es.Ez (V/m) @ t=0.48
-1.3715057585801351
% es.tEx (V/m) @ t=0.48
2.763334736731636
% es.tEy (V/m) @ t=0.48
0
% es.tEz (V/m) @ t=0.48
-1.3715057585801276
% V (V) @ t=0.48
0.01400488492556784
% es.normE (V/m) @ t=0.5
3.114318669702625
% es.EX (V/m) @ t=0.5
2.7879672911674556
% es.EY (V/m) @ t=0.5
0.10726492211803157
% es.EZ (V/m) @ t=0.5
-1.3837316454282478
% es.tEX (V/m) @ t=0.5
2.787967291167454
% es.tEY (V/m) @ t=0.5
0
% es.tEZ (V/m) @ t=0.5
-1.3837316454282558
% es.Ex (V/m) @ t=0.5
2.7879672911674556
% es.Ey (V/m) @ t=0.5
0.10726492211803157
% es.Ez (V/m) @ t=0.5
-1.3837316454282478
% es.tEx (V/m) @ t=0.5
2.787967291167454
% es.tEy (V/m) @ t=0.5
0
% es.tEz (V/m) @ t=0.5
-1.3837316454282558
% V (V) @ t=0.5
0.014129733456258183
% es.normE (V/m) @ t=0.52
3.142644355140926
% es.EX (V/m) @ t=0.52
2.8133246348194856
% es.EY (V/m) @ t=0.52
0.10824019643634553
% es.EZ (V/m) @ t=0.52
-1.3963172883944976
% es.tEX (V/m) @ t=0.52
2.8133246348194874
% es.tEY (V/m) @ t=0.52
0
% es.tEZ (V/m) @ t=0.52
-1.396317288394485
% es.Ex (V/m) @ t=0.52
2.8133246348194856
% es.Ey (V/m) @ t=0.52
0.10824019643634553
% es.Ez (V/m) @ t=0.52
-1.3963172883944976
% es.tEx (V/m) @ t=0.52
2.8133246348194874
% es.tEy (V/m) @ t=0.52
0
% es.tEz (V/m) @ t=0.52
-1.396317288394485
% V (V) @ t=0.52
0.014258256423473965
% es.normE (V/m) @ t=0.54
3.1731516961334574
% es.EX (V/m) @ t=0.54
2.8406349917466107
% es.EY (V/m) @ t=0.54
0.10929050131796214
% es.EZ (V/m) @ t=0.54
-1.4098723283368
% es.tEX (V/m) @ t=0.54
2.840634991746601
% es.tEY (V/m) @ t=0.54
0
% es.tEZ (V/m) @ t=0.54
-1.4098723283367889
% es.Ex (V/m) @ t=0.54
2.8406349917466107
% es.Ey (V/m) @ t=0.54
0.10929050131796214
% es.Ez (V/m) @ t=0.54
-1.4098723283368
% es.tEx (V/m) @ t=0.54
2.840634991746601
% es.tEy (V/m) @ t=0.54
0
% es.tEz (V/m) @ t=0.54
-1.4098723283367889
% V (V) @ t=0.54
0.01439668050835559
% es.normE (V/m) @ t=0.56
3.2036590371260703
% es.EX (V/m) @ t=0.56
2.8679453486737203
% es.EY (V/m) @ t=0.56
0.11034080619956282
% es.EZ (V/m) @ t=0.56
-1.4234273682791094
% es.tEX (V/m) @ t=0.56
2.8679453486737128
% es.tEY (V/m) @ t=0.56
0
% es.tEZ (V/m) @ t=0.56
-1.423427368279114
% es.Ex (V/m) @ t=0.56
2.8679453486737203
% es.Ey (V/m) @ t=0.56
0.11034080619956282
% es.Ez (V/m) @ t=0.56
-1.4234273682791094
% es.tEx (V/m) @ t=0.56
2.8679453486737128
% es.tEy (V/m) @ t=0.56
0
% es.tEz (V/m) @ t=0.56
-1.423427368279114
% V (V) @ t=0.56
0.014535104593237215
% es.normE (V/m) @ t=0.58
3.234166378118793
% es.EX (V/m) @ t=0.58
2.8952557056008414
% es.EY (V/m) @ t=0.58
0.1113911110812017
% es.EZ (V/m) @ t=0.58
-1.4369824082214366
% es.tEX (V/m) @ t=0.58
2.8952557056008406
% es.tEY (V/m) @ t=0.58
0
% es.tEZ (V/m) @ t=0.58
-1.436982408221425
% es.Ex (V/m) @ t=0.58
2.8952557056008414
% es.Ey (V/m) @ t=0.58
0.1113911110812017
% es.Ez (V/m) @ t=0.58
-1.4369824082214366
% es.tEx (V/m) @ t=0.58
2.8952557056008406
% es.tEy (V/m) @ t=0.58
0
% es.tEz (V/m) @ t=0.58
-1.436982408221425
% V (V) @ t=0.58
0.014673528678118839
% es.normE (V/m) @ t=0.6
3.2646737191115975
% es.EX (V/m) @ t=0.6
2.922566062527973
% es.EY (V/m) @ t=0.6
0.11244141596281482
% es.EZ (V/m) @ t=0.6
-1.450537448163732
% es.tEX (V/m) @ t=0.6
2.9225660625279613
% es.tEY (V/m) @ t=0.6
0
% es.tEZ (V/m) @ t=0.6
-1.450537448163729
% es.Ex (V/m) @ t=0.6
2.922566062527973
% es.Ey (V/m) @ t=0.6
0.11244141596281482
% es.Ez (V/m) @ t=0.6
-1.450537448163732
% es.tEx (V/m) @ t=0.6
2.9225660625279613
% es.tEy (V/m) @ t=0.6
0
% es.tEz (V/m) @ t=0.6
-1.450537448163729
% V (V) @ t=0.6
0.014811952763000465
% es.normE (V/m) @ t=0.62
3.2951810601044924
% es.EX (V/m) @ t=0.62
2.9498764194551015
% es.EY (V/m) @ t=0.62
0.11349172084442438
% es.EZ (V/m) @ t=0.62
-1.4640924881060449
% es.tEX (V/m) @ t=0.62
2.9498764194551033
% es.tEY (V/m) @ t=0.62
0
% es.tEZ (V/m) @ t=0.62
-1.4640924881060542
% es.Ex (V/m) @ t=0.62
2.9498764194551015
% es.Ey (V/m) @ t=0.62
0.11349172084442438
% es.Ez (V/m) @ t=0.62
-1.4640924881060449
% es.tEx (V/m) @ t=0.62
2.9498764194551033
% es.tEy (V/m) @ t=0.62
0
% es.tEz (V/m) @ t=0.62
-1.4640924881060542
% V (V) @ t=0.62
0.01495037684788209
% es.normE (V/m) @ t=0.64
3.3256884010974517
% es.EX (V/m) @ t=0.64
2.977186776382204
% es.EY (V/m) @ t=0.64
0.11454202572603922
% es.EZ (V/m) @ t=0.64
-1.4776475280483687
% es.tEX (V/m) @ t=0.64
2.977186776382199
% es.tEY (V/m) @ t=0.64
0
% es.tEZ (V/m) @ t=0.64
-1.477647528048351
% es.Ex (V/m) @ t=0.64
2.977186776382204
% es.Ey (V/m) @ t=0.64
0.11454202572603922
% es.Ez (V/m) @ t=0.64
-1.4776475280483687
% es.tEx (V/m) @ t=0.64
2.977186776382199
% es.tEy (V/m) @ t=0.64
0
% es.tEz (V/m) @ t=0.64
-1.477647528048351
% V (V) @ t=0.64
0.015088800932763716
% es.normE (V/m) @ t=0.66
3.356195742090496
% es.EX (V/m) @ t=0.66
3.004497133309329
% es.EY (V/m) @ t=0.66
0.11559233060763108
% es.EZ (V/m) @ t=0.66
-1.4912025679906566
% es.tEX (V/m) @ t=0.66
3.004497133309327
% es.tEY (V/m) @ t=0.66
0
% es.tEZ (V/m) @ t=0.66
-1.491202567990662
% es.Ex (V/m) @ t=0.66
3.004497133309329
% es.Ey (V/m) @ t=0.66
0.11559233060763108
% es.Ez (V/m) @ t=0.66
-1.4912025679906566
% es.tEx (V/m) @ t=0.66
3.004497133309327
% es.tEy (V/m) @ t=0.66
0
% es.tEz (V/m) @ t=0.66
-1.491202567990662
% V (V) @ t=0.66
0.015227225017645342
% es.normE (V/m) @ t=0.68
3.3867030830836287
% es.EX (V/m) @ t=0.68
3.0318074902364502
% es.EY (V/m) @ t=0.68
0.11664263548925213
% es.EZ (V/m) @ t=0.68
-1.5047576079329734
% es.tEX (V/m) @ t=0.68
3.0318074902364405
% es.tEY (V/m) @ t=0.68
0
% es.tEZ (V/m) @ t=0.68
-1.5047576079329659
% es.Ex (V/m) @ t=0.68
3.0318074902364502
% es.Ey (V/m) @ t=0.68
0.11664263548925213
% es.Ez (V/m) @ t=0.68
-1.5047576079329734
% es.tEx (V/m) @ t=0.68
3.0318074902364405
% es.tEy (V/m) @ t=0.68
0
% es.tEz (V/m) @ t=0.68
-1.5047576079329659
% V (V) @ t=0.68
0.015365649102526966
% es.normE (V/m) @ t=0.7
3.4172104240768615
% es.EX (V/m) @ t=0.7
3.059117847163585
% es.EY (V/m) @ t=0.7
0.11769294037088651
% es.EZ (V/m) @ t=0.7
-1.5183126478753146
% es.tEX (V/m) @ t=0.7
3.0591178471635807
% es.tEY (V/m) @ t=0.7
0
% es.tEZ (V/m) @ t=0.7
-1.5183126478753053
% es.Ex (V/m) @ t=0.7
3.059117847163585
% es.Ey (V/m) @ t=0.7
0.11769294037088651
% es.Ez (V/m) @ t=0.7
-1.5183126478753146
% es.tEx (V/m) @ t=0.7
3.0591178471635807
% es.tEy (V/m) @ t=0.7
0
% es.tEz (V/m) @ t=0.7
-1.5183126478753053
% V (V) @ t=0.7
0.015504073187408594
% es.normE (V/m) @ t=0.72
3.447717765070114
% es.EX (V/m) @ t=0.72
3.086428204090682
% es.EY (V/m) @ t=0.72
0.11874324525250146
% es.EZ (V/m) @ t=0.72
-1.53186768781761
% es.tEX (V/m) @ t=0.72
3.08642820409068
% es.tEY (V/m) @ t=0.72
0
% es.tEZ (V/m) @ t=0.72
-1.5318676878175879
% es.Ex (V/m) @ t=0.72
3.086428204090682
% es.Ey (V/m) @ t=0.72
0.11874324525250146
% es.Ez (V/m) @ t=0.72
-1.53186768781761
% es.tEx (V/m) @ t=0.72
3.08642820409068
% es.tEy (V/m) @ t=0.72
0
% es.tEz (V/m) @ t=0.72
-1.5318676878175879
% V (V) @ t=0.72
0.01564249727229022
% es.normE (V/m) @ t=0.74
3.478225106063479
% es.EX (V/m) @ t=0.74
3.113738561017817
% es.EY (V/m) @ t=0.74
0.11979355013411452
% es.EZ (V/m) @ t=0.74
-1.5454227277599195
% es.tEX (V/m) @ t=0.74
3.113738561017808
% es.tEY (V/m) @ t=0.74
0
% es.tEZ (V/m) @ t=0.74
-1.545422727759913
% es.Ex (V/m) @ t=0.74
3.113738561017817
% es.Ey (V/m) @ t=0.74
0.11979355013411452
% es.Ez (V/m) @ t=0.74
-1.5454227277599195
% es.tEx (V/m) @ t=0.74
3.113738561017808
% es.tEy (V/m) @ t=0.74
0
% es.tEz (V/m) @ t=0.74
-1.545422727759913
% V (V) @ t=0.74
0.015780921357171844
% es.normE (V/m) @ t=0.76
3.5087324470569055
% es.EX (V/m) @ t=0.76
3.1410489179449415
% es.EY (V/m) @ t=0.76
0.12084385501574546
% es.EZ (V/m) @ t=0.76
-1.558977767702229
% es.tEX (V/m) @ t=0.76
3.141048917944941
% es.tEY (V/m) @ t=0.76
0
% es.tEZ (V/m) @ t=0.76
-1.558977767702217
% es.Ex (V/m) @ t=0.76
3.1410489179449415
% es.Ey (V/m) @ t=0.76
0.12084385501574546
% es.Ez (V/m) @ t=0.76
-1.558977767702229
% es.tEx (V/m) @ t=0.76
3.141048917944941
% es.tEy (V/m) @ t=0.76
0
% es.tEz (V/m) @ t=0.76
-1.558977767702217
% V (V) @ t=0.76
0.01591934544205347
% es.normE (V/m) @ t=0.78
3.5406189563465804
% es.EX (V/m) @ t=0.78
3.169593929645072
% es.EY (V/m) @ t=0.78
0.12194170755410505
% es.EZ (V/m) @ t=0.78
-1.5731455653226343
% es.tEX (V/m) @ t=0.78
3.169593929645064
% es.tEY (V/m) @ t=0.78
0
% es.tEZ (V/m) @ t=0.78
-1.5731455653226263
% es.Ex (V/m) @ t=0.78
3.169593929645072
% es.Ey (V/m) @ t=0.78
0.12194170755410505
% es.Ez (V/m) @ t=0.78
-1.5731455653226343
% es.tEx (V/m) @ t=0.78
3.169593929645064
% es.tEy (V/m) @ t=0.78
0
% es.tEz (V/m) @ t=0.78
-1.5731455653226263
% V (V) @ t=0.78
0.016064025652399234
% es.normE (V/m) @ t=0.8
3.5744972052044774
% es.EX (V/m) @ t=0.8
3.1999219802761703
% es.EY (V/m) @ t=0.8
0.12310822651232495
% es.EZ (V/m) @ t=0.8
-1.5881982830188077
% es.tEX (V/m) @ t=0.8
3.1999219802761854
% es.tEY (V/m) @ t=0.8
0
% es.tEZ (V/m) @ t=0.8
-1.588198283018805
% es.Ex (V/m) @ t=0.8
3.1999219802761703
% es.Ey (V/m) @ t=0.8
0.12310822651232495
% es.Ez (V/m) @ t=0.8
-1.5881982830188077
% es.tEx (V/m) @ t=0.8
3.1999219802761854
% es.tEy (V/m) @ t=0.8
0
% es.tEz (V/m) @ t=0.8
-1.588198283018805
% V (V) @ t=0.8
0.016217740708358044
% es.normE (V/m) @ t=0.82
3.6083754540624406
% es.EX (V/m) @ t=0.82
3.2302500309072952
% es.EY (V/m) @ t=0.82
0.12427474547058298
% es.EZ (V/m) @ t=0.82
-1.603251000715003
% es.tEX (V/m) @ t=0.82
3.2302500309072926
% es.tEY (V/m) @ t=0.82
0
% es.tEZ (V/m) @ t=0.82
-1.6032510007149838
% es.Ex (V/m) @ t=0.82
3.2302500309072952
% es.Ey (V/m) @ t=0.82
0.12427474547058298
% es.Ez (V/m) @ t=0.82
-1.603251000715003
% es.tEx (V/m) @ t=0.82
3.2302500309072926
% es.tEy (V/m) @ t=0.82
0
% es.tEz (V/m) @ t=0.82
-1.6032510007149838
% V (V) @ t=0.82
0.016371455764316853
% es.normE (V/m) @ t=0.84
3.642253702920401
% es.EX (V/m) @ t=0.84
3.260578081538393
% es.EY (V/m) @ t=0.84
0.12544126442882508
% es.EZ (V/m) @ t=0.84
-1.6183037184111764
% es.tEX (V/m) @ t=0.84
3.2605780815383874
% es.tEY (V/m) @ t=0.84
0
% es.tEZ (V/m) @ t=0.84
-1.6183037184111697
% es.Ex (V/m) @ t=0.84
3.260578081538393
% es.Ey (V/m) @ t=0.84
0.12544126442882508
% es.Ez (V/m) @ t=0.84
-1.6183037184111764
% es.tEx (V/m) @ t=0.84
3.2605780815383874
% es.tEy (V/m) @ t=0.84
0
% es.tEz (V/m) @ t=0.84
-1.6183037184111697
% V (V) @ t=0.84
0.016525170820275666
% es.normE (V/m) @ t=0.86
3.6761319517784203
% es.EX (V/m) @ t=0.86
3.290906132169512
% es.EY (V/m) @ t=0.86
0.1266077833870663
% es.EZ (V/m) @ t=0.86
-1.6333564361073714
% es.tEX (V/m) @ t=0.86
3.290906132169509
% es.tEY (V/m) @ t=0.86
0
% es.tEZ (V/m) @ t=0.86
-1.6333564361073627
% es.Ex (V/m) @ t=0.86
3.290906132169512
% es.Ey (V/m) @ t=0.86
0.1266077833870663
% es.Ez (V/m) @ t=0.86
-1.6333564361073714
% es.tEx (V/m) @ t=0.86
3.290906132169509
% es.tEy (V/m) @ t=0.86
0
% es.tEz (V/m) @ t=0.86
-1.6333564361073627
% V (V) @ t=0.86
0.01667888587623447
% es.normE (V/m) @ t=0.88
3.7100102006364497
% es.EX (V/m) @ t=0.88
3.3212341828006235
% es.EY (V/m) @ t=0.88
0.12777430234530834
% es.EZ (V/m) @ t=0.88
-1.648409153803538
% es.tEX (V/m) @ t=0.88
3.321234182800616
% es.tEY (V/m) @ t=0.88
0
% es.tEZ (V/m) @ t=0.88
-1.6484091538035344
% es.Ex (V/m) @ t=0.88
3.3212341828006235
% es.Ey (V/m) @ t=0.88
0.12777430234530834
% es.Ez (V/m) @ t=0.88
-1.648409153803538
% es.tEx (V/m) @ t=0.88
3.321234182800616
% es.tEy (V/m) @ t=0.88
0
% es.tEz (V/m) @ t=0.88
-1.6484091538035344
% V (V) @ t=0.88
0.01683260093219328
% es.normE (V/m) @ t=0.9
3.7438884494945137
% es.EX (V/m) @ t=0.9
3.351562233431722
% es.EY (V/m) @ t=0.9
0.12894082130356554
% es.EZ (V/m) @ t=0.9
-1.6634618714997436
% es.tEX (V/m) @ t=0.9
3.351562233431695
% es.tEY (V/m) @ t=0.9
0
% es.tEZ (V/m) @ t=0.9
-1.6634618714997131
% es.Ex (V/m) @ t=0.9
3.351562233431722
% es.Ey (V/m) @ t=0.9
0.12894082130356554
% es.Ez (V/m) @ t=0.9
-1.6634618714997436
% es.tEx (V/m) @ t=0.9
3.351562233431695
% es.tEy (V/m) @ t=0.9
0
% es.tEz (V/m) @ t=0.9
-1.6634618714997131
% V (V) @ t=0.9
0.01698631598815209
% es.normE (V/m) @ t=0.92
3.7777666983525826
% es.EX (V/m) @ t=0.92
3.3818902840628193
% es.EY (V/m) @ t=0.92
0.130107340261781
% es.EZ (V/m) @ t=0.92
-1.678514589195903
% es.tEX (V/m) @ t=0.92
3.381890284062832
% es.tEY (V/m) @ t=0.92
0
% es.tEZ (V/m) @ t=0.92
-1.678514589195899
% es.Ex (V/m) @ t=0.92
3.3818902840628193
% es.Ey (V/m) @ t=0.92
0.130107340261781
% es.Ez (V/m) @ t=0.92
-1.678514589195903
% es.tEx (V/m) @ t=0.92
3.381890284062832
% es.tEy (V/m) @ t=0.92
0
% es.tEz (V/m) @ t=0.92
-1.678514589195899
% V (V) @ t=0.92
0.017140031044110902
% es.normE (V/m) @ t=0.94
3.8116449472106915
% es.EX (V/m) @ t=0.94
3.412218334693923
% es.EY (V/m) @ t=0.94
0.1312738592200257
% es.EZ (V/m) @ t=0.94
-1.6935673068920765
% es.tEX (V/m) @ t=0.94
3.4122183346939092
% es.tEY (V/m) @ t=0.94
0
% es.tEZ (V/m) @ t=0.94
-1.6935673068920707
% es.Ex (V/m) @ t=0.94
3.412218334693923
% es.Ey (V/m) @ t=0.94
0.1312738592200257
% es.Ez (V/m) @ t=0.94
-1.6935673068920765
% es.tEx (V/m) @ t=0.94
3.4122183346939092
% es.tEy (V/m) @ t=0.94
0
% es.tEz (V/m) @ t=0.94
-1.6935673068920707
% V (V) @ t=0.94
0.01729374610006971
% es.normE (V/m) @ t=0.96
3.8455231960688536
% es.EX (V/m) @ t=0.96
3.4425463853250355
% es.EY (V/m) @ t=0.96
0.13244037817827492
% es.EZ (V/m) @ t=0.96
-1.708620024588293
% es.tEX (V/m) @ t=0.96
3.4425463853250324
% es.tEY (V/m) @ t=0.96
0
% es.tEZ (V/m) @ t=0.96
-1.7086200245882708
% es.Ex (V/m) @ t=0.96
3.4425463853250355
% es.Ey (V/m) @ t=0.96
0.13244037817827492
% es.Ez (V/m) @ t=0.96
-1.708620024588293
% es.tEx (V/m) @ t=0.96
3.4425463853250324
% es.tEy (V/m) @ t=0.96
0
% es.tEz (V/m) @ t=0.96
-1.7086200245882708
% V (V) @ t=0.96
0.017447461156028517
% es.normE (V/m) @ t=0.98
3.8794014449270477
% es.EX (V/m) @ t=0.98
3.4728744359561694
% es.EY (V/m) @ t=0.98
0.1336068971365481
% es.EZ (V/m) @ t=0.98
-1.723672742284477
% es.tEX (V/m) @ t=0.98
3.4728744359561556
% es.tEY (V/m) @ t=0.98
0
% es.tEZ (V/m) @ t=0.98
-1.7236727422844638
% es.Ex (V/m) @ t=0.98
3.4728744359561694
% es.Ey (V/m) @ t=0.98
0.1336068971365481
% es.Ez (V/m) @ t=0.98
-1.723672742284477
% es.tEx (V/m) @ t=0.98
3.4728744359561556
% es.tEy (V/m) @ t=0.98
0
% es.tEz (V/m) @ t=0.98
-1.7236727422844638
% V (V) @ t=0.98
0.01760117621198733
% es.normE (V/m) @ t=1
3.913279693785229
% es.EX (V/m) @ t=1
3.5032024865872673
% es.EY (V/m) @ t=1
0.13477341609480092
% es.EZ (V/m) @ t=1
-1.7387254599806508
% es.tEX (V/m) @ t=1
3.503202486587247
% es.tEY (V/m) @ t=1
0
% es.tEZ (V/m) @ t=1
-1.7387254599806283
% es.Ex (V/m) @ t=1
3.5032024865872673
% es.Ey (V/m) @ t=1
0.13477341609480092
% es.Ez (V/m) @ t=1
-1.7387254599806508
% es.tEx (V/m) @ t=1
3.503202486587247
% es.tEy (V/m) @ t=1
0
% es.tEz (V/m) @ t=1
-1.7387254599806283
% V (V) @ t=1
0.017754891267946136
% es.normE (V/m) @ t=1.02
3.9471579426434316
% es.EX (V/m) @ t=1.02
3.5335305372183647
% es.EY (V/m) @ t=1.02
0.1359399350530145
% es.EZ (V/m) @ t=1.02
-1.7537781776768209
% es.tEX (V/m) @ t=1.02
3.533530537218356
% es.tEY (V/m) @ t=1.02
0
% es.tEZ (V/m) @ t=1.02
-1.753778177676793
% es.Ex (V/m) @ t=1.02
3.5335305372183647
% es.Ey (V/m) @ t=1.02
0.1359399350530145
% es.Ez (V/m) @ t=1.02
-1.7537781776768209
% es.tEx (V/m) @ t=1.02
3.533530537218356
% es.tEy (V/m) @ t=1.02
0
% es.tEz (V/m) @ t=1.02
-1.753778177676793
% V (V) @ t=1.02
0.017908606323904945
% es.normE (V/m) @ t=1.04
3.981923452365571
% es.EX (V/m) @ t=1.04
3.564652915777771
% es.EY (V/m) @ t=1.04
0.1371372057131447
% es.EZ (V/m) @ t=1.04
-1.769225013804524
% es.tEX (V/m) @ t=1.04
3.5646529157777707
% es.tEY (V/m) @ t=1.04
0
% es.tEZ (V/m) @ t=1.04
-1.7692250138045154
% es.Ex (V/m) @ t=1.04
3.564652915777771