% Model:              1 neuron.mph
% Version:            COMSOL 6.1.0.252
% Date:               Mar 27 2023, 14:37
% Dimension:          0
% Nodes:              14017
% Expressions:        14017
% Description:        Electric field norm, Electric field, X component, Electric field, Y component, Electric field, Z component, Tangential electric field, X component, Tangential electric field, Y component, Tangential electric field, Z component, Electric field, x component, Electric field, y component, Electric field, z component, Tangential electric field, x component, Tangential electric field, y component, Tangential electric field, z component, Electric potential
% Length unit:        mm
% x
1.66
% y
12.2
% z
1
% es.normE (V/m) @ t=0
2.685142276929823
% es.EX (V/m) @ t=0
-0.9570834766703913
% es.EY (V/m) @ t=0
0.3040616832597345
% es.EZ (V/m) @ t=0
2.482573351965529
% es.tEX (V/m) @ t=0
-0.9570834766704055
% es.tEY (V/m) @ t=0
0
% es.tEZ (V/m) @ t=0
2.482573351965538
% es.Ex (V/m) @ t=0
-0.9570834766703913
% es.Ey (V/m) @ t=0
0.3040616832597345
% es.Ez (V/m) @ t=0
2.482573351965529
% es.tEx (V/m) @ t=0
-0.9570834766704055
% es.tEy (V/m) @ t=0
0
% es.tEz (V/m) @ t=0
2.482573351965538
% V (V) @ t=0
0.013073393893547539
% es.normE (V/m) @ t=0.02
2.3191847667117536
% es.EX (V/m) @ t=0.02
-0.8266427586133396
% es.EY (V/m) @ t=0.02
0.26262117662703544
% es.EZ (V/m) @ t=0.02
2.1442239205580407
% es.tEX (V/m) @ t=0.02
-0.8266427586133502
% es.tEY (V/m) @ t=0.02
0
% es.tEZ (V/m) @ t=0.02
2.1442239205580407
% es.Ex (V/m) @ t=0.02
-0.8266427586133396
% es.Ey (V/m) @ t=0.02
0.26262117662703544
% es.Ez (V/m) @ t=0.02
2.1442239205580407
% es.tEx (V/m) @ t=0.02
-0.8266427586133502
% es.tEy (V/m) @ t=0.02
0
% es.tEz (V/m) @ t=0.02
2.1442239205580407
% V (V) @ t=0.02
0.011291623615408338
% es.normE (V/m) @ t=0.04
2.340518861937454
% es.EX (V/m) @ t=0.04
-0.8342470150018593
% es.EY (V/m) @ t=0.04
0.2650370191572453
% es.EZ (V/m) @ t=0.04
2.1639485573663126
% es.tEX (V/m) @ t=0.04
-0.8342470150018664
% es.tEY (V/m) @ t=0.04
0
% es.tEZ (V/m) @ t=0.04
2.163948557366311
% es.Ex (V/m) @ t=0.04
-0.8342470150018593
% es.Ey (V/m) @ t=0.04
0.2650370191572453
% es.Ez (V/m) @ t=0.04
2.1639485573663126
% es.tEx (V/m) @ t=0.04
-0.8342470150018664
% es.tEy (V/m) @ t=0.04
0
% es.tEz (V/m) @ t=0.04
2.163948557366311
% V (V) @ t=0.04
0.011395494848419771
% es.normE (V/m) @ t=0.06
2.362018303936768
% es.EX (V/m) @ t=0.06
-0.841910207370354
% es.EY (V/m) @ t=0.06
0.26747158517773917
% es.EZ (V/m) @ t=0.06
2.183826066970722
% es.tEX (V/m) @ t=0.06
-0.8419102073703683
% es.tEY (V/m) @ t=0.06
0
% es.tEZ (V/m) @ t=0.06
2.1838260669707257
% es.Ex (V/m) @ t=0.06
-0.841910207370354
% es.Ey (V/m) @ t=0.06
0.26747158517773917
% es.Ez (V/m) @ t=0.06
2.183826066970722
% es.tEx (V/m) @ t=0.06
-0.8419102073703683
% es.tEy (V/m) @ t=0.06
0
% es.tEz (V/m) @ t=0.06
2.1838260669707257
% V (V) @ t=0.06
0.011500171134116454
% es.normE (V/m) @ t=0.08
2.3839080384719997
% es.EX (V/m) @ t=0.08
-0.8497125139490789
% es.EY (V/m) @ t=0.08
0.26995034747615176
% es.EZ (V/m) @ t=0.08
2.2040644253261226
% es.tEX (V/m) @ t=0.08
-0.8497125139490931
% es.tEY (V/m) @ t=0.08
0
% es.tEZ (V/m) @ t=0.08
2.2040644253261252
% es.Ex (V/m) @ t=0.08
-0.8497125139490789
% es.Ey (V/m) @ t=0.08
0.26995034747615176
% es.Ez (V/m) @ t=0.08
2.2040644253261226
% es.tEx (V/m) @ t=0.08
-0.8497125139490931
% es.tEy (V/m) @ t=0.08
0
% es.tEz (V/m) @ t=0.08
2.2040644253261252
% V (V) @ t=0.08
0.011606747656148428
% es.normE (V/m) @ t=0.1
2.4059396177953367
% es.EX (V/m) @ t=0.1
-0.8575653790803545
% es.EY (V/m) @ t=0.1
0.27244517211524033
% es.EZ (V/m) @ t=0.1
2.224433927656637
% es.tEX (V/m) @ t=0.1
-0.8575653790803616
% es.tEY (V/m) @ t=0.1
0
% es.tEZ (V/m) @ t=0.1
2.2244339276566354
% es.Ex (V/m) @ t=0.1
-0.8575653790803545
% es.Ey (V/m) @ t=0.1
0.27244517211524033
% es.Ez (V/m) @ t=0.1
2.224433927656637
% es.tEx (V/m) @ t=0.1
-0.8575653790803616
% es.tEy (V/m) @ t=0.1
0
% es.tEz (V/m) @ t=0.1
2.2244339276566354
% V (V) @ t=0.1
0.011714014784829302
% es.normE (V/m) @ t=0.12
2.4279711971186506
% es.EX (V/m) @ t=0.12
-0.8654182442115945
% es.EY (V/m) @ t=0.12
0.27493999675430913
% es.EZ (V/m) @ t=0.12
2.244803429987142
% es.tEX (V/m) @ t=0.12
-0.8654182442116087
% es.tEY (V/m) @ t=0.12
0
% es.tEZ (V/m) @ t=0.12
2.24480342998714
% es.Ex (V/m) @ t=0.12
-0.8654182442115945
% es.Ey (V/m) @ t=0.12
0.27493999675430913
% es.Ez (V/m) @ t=0.12
2.244803429987142
% es.tEx (V/m) @ t=0.12
-0.8654182442116087
% es.tEy (V/m) @ t=0.12
0
% es.tEz (V/m) @ t=0.12
2.24480342998714
% V (V) @ t=0.12
0.011821281913510175
% es.normE (V/m) @ t=0.14
2.450537866835715
% es.EX (V/m) @ t=0.14
-0.8734618347140448
% es.EY (V/m) @ t=0.14
0.2774954139388679
% es.EZ (V/m) @ t=0.14
2.2656676553456805
% es.tEX (V/m) @ t=0.14
-0.8734618347140626
% es.tEY (V/m) @ t=0.14
0
% es.tEZ (V/m) @ t=0.14
2.265667655345684
% es.Ex (V/m) @ t=0.14
-0.8734618347140448
% es.Ey (V/m) @ t=0.14
0.2774954139388679
% es.Ez (V/m) @ t=0.14
2.2656676553456805
% es.tEx (V/m) @ t=0.14
-0.8734618347140626
% es.tEy (V/m) @ t=0.14
0
% es.tEz (V/m) @ t=0.14
2.265667655345684
% V (V) @ t=0.14
0.011931154277869307
% es.normE (V/m) @ t=0.16
2.473692574440197
% es.EX (V/m) @ t=0.16
-0.8817150229698207
% es.EY (V/m) @ t=0.16
0.2801174193351137
% es.EZ (V/m) @ t=0.16
2.2870755568525247
% es.tEX (V/m) @ t=0.16
-0.881715022969835
% es.tEY (V/m) @ t=0.16
0
% es.tEZ (V/m) @ t=0.16
2.287075556852521
% es.Ex (V/m) @ t=0.16
-0.8817150229698207
% es.Ey (V/m) @ t=0.16
0.2801174193351137
% es.Ez (V/m) @ t=0.16
2.2870755568525247
% es.tEx (V/m) @ t=0.16
-0.881715022969835
% es.tEy (V/m) @ t=0.16
0
% es.tEz (V/m) @ t=0.16
2.287075556852521
% V (V) @ t=0.16
0.012043889667433888
% es.normE (V/m) @ t=0.18
2.49684728204467
% es.EX (V/m) @ t=0.18
-0.8899682112255822
% es.EY (V/m) @ t=0.18
0.28273942473138236
% es.EZ (V/m) @ t=0.18
2.308483458359362
% es.tEX (V/m) @ t=0.18
-0.8899682112256
% es.tEY (V/m) @ t=0.18
0
% es.tEZ (V/m) @ t=0.18
2.308483458359362
% es.Ex (V/m) @ t=0.18
-0.8899682112255822
% es.Ey (V/m) @ t=0.18
0.28273942473138236
% es.Ez (V/m) @ t=0.18
2.308483458359362
% es.tEx (V/m) @ t=0.18
-0.8899682112256
% es.tEy (V/m) @ t=0.18
0
% es.tEz (V/m) @ t=0.18
2.308483458359362
% V (V) @ t=0.18
0.012156625056998473
% es.normE (V/m) @ t=0.2
2.5200019896491446
% es.EX (V/m) @ t=0.2
-0.8982213994813579
% es.EY (V/m) @ t=0.2
0.2853614301276335
% es.EZ (V/m) @ t=0.2
2.329891359866197
% es.tEX (V/m) @ t=0.2
-0.8982213994813721
% es.tEY (V/m) @ t=0.2
0
% es.tEZ (V/m) @ t=0.2
2.3298913598661954
% es.Ex (V/m) @ t=0.2
-0.8982213994813579
% es.Ey (V/m) @ t=0.2
0.2853614301276335
% es.Ez (V/m) @ t=0.2
2.329891359866197
% es.tEx (V/m) @ t=0.2
-0.8982213994813721
% es.tEy (V/m) @ t=0.2
0
% es.tEz (V/m) @ t=0.2
2.3298913598661954
% V (V) @ t=0.2
0.012269360446563059
% es.normE (V/m) @ t=0.22
2.543156697253627
% es.EX (V/m) @ t=0.22
-0.9064745877371336
% es.EY (V/m) @ t=0.22
0.2879834355238693
% es.EZ (V/m) @ t=0.22
2.3512992613730423
% es.tEX (V/m) @ t=0.22
-0.9064745877371514
% es.tEY (V/m) @ t=0.22
0
% es.tEZ (V/m) @ t=0.22
2.351299261373045
% es.Ex (V/m) @ t=0.22
-0.9064745877371336
% es.Ey (V/m) @ t=0.22
0.2879834355238693
% es.Ez (V/m) @ t=0.22
2.3512992613730423
% es.tEx (V/m) @ t=0.22
-0.9064745877371514
% es.tEy (V/m) @ t=0.22
0
% es.tEz (V/m) @ t=0.22
2.351299261373045
% V (V) @ t=0.22
0.012382095836127642
% es.normE (V/m) @ t=0.24
2.5663114048581086
% es.EX (V/m) @ t=0.24
-0.9147277759929062
% es.EY (V/m) @ t=0.24
0.29060544092011953
% es.EZ (V/m) @ t=0.24
2.3727071628798866
% es.tEX (V/m) @ t=0.24
-0.914727775992924
% es.tEY (V/m) @ t=0.24
0
% es.tEZ (V/m) @ t=0.24
2.3727071628798946
% es.Ex (V/m) @ t=0.24
-0.9147277759929062
% es.Ey (V/m) @ t=0.24
0.29060544092011953
% es.Ez (V/m) @ t=0.24
2.3727071628798866
% es.tEx (V/m) @ t=0.24
-0.914727775992924
% es.tEy (V/m) @ t=0.24
0
% es.tEz (V/m) @ t=0.24
2.3727071628798946
% V (V) @ t=0.24
0.012494831225692227
% es.normE (V/m) @ t=0.26
2.5894661124625866
% es.EX (V/m) @ t=0.26
-0.9229809642486819
% es.EY (V/m) @ t=0.26
0.2932274463163662
% es.EZ (V/m) @ t=0.26
2.3941150643867264
% es.tEX (V/m) @ t=0.26
-0.9229809642486961
% es.tEY (V/m) @ t=0.26
0
% es.tEZ (V/m) @ t=0.26
2.3941150643867175
% es.Ex (V/m) @ t=0.26
-0.9229809642486819
% es.Ey (V/m) @ t=0.26
0.2932274463163662
% es.Ez (V/m) @ t=0.26
2.3941150643867264
% es.tEx (V/m) @ t=0.26
-0.9229809642486961
% es.tEy (V/m) @ t=0.26
0
% es.tEz (V/m) @ t=0.26
2.3941150643867175
% V (V) @ t=0.26
0.012607566615256808
% es.normE (V/m) @ t=0.28
2.615039478525218
% es.EX (V/m) @ t=0.28
-0.9320962568082944
% es.EY (V/m) @ t=0.28
0.2961233365660434
% es.EZ (V/m) @ t=0.28
2.417759157157726
% es.tEX (V/m) @ t=0.28
-0.9320962568083087
% es.tEY (V/m) @ t=0.28
0
% es.tEZ (V/m) @ t=0.28
2.4177591571577306
% es.Ex (V/m) @ t=0.28
-0.9320962568082944
% es.Ey (V/m) @ t=0.28
0.2961233365660434
% es.Ez (V/m) @ t=0.28
2.417759157157726
% es.tEx (V/m) @ t=0.28
-0.9320962568083087
% es.tEy (V/m) @ t=0.28
0
% es.tEz (V/m) @ t=0.28
2.4177591571577306
% V (V) @ t=0.28
0.012732078127028524
% es.normE (V/m) @ t=0.3
2.640707341328138
% es.EX (V/m) @ t=0.3
-0.9412452316954893
% es.EY (V/m) @ t=0.3
0.29902992746909196
% es.EZ (V/m) @ t=0.3
2.4414906176942868
% es.tEX (V/m) @ t=0.3
-0.9412452316955036
% es.tEY (V/m) @ t=0.3
0
% es.tEZ (V/m) @ t=0.3
2.4414906176942885
% es.Ex (V/m) @ t=0.3
-0.9412452316954893
% es.Ey (V/m) @ t=0.3
0.29902992746909196
% es.Ez (V/m) @ t=0.3
2.4414906176942868
% es.tEx (V/m) @ t=0.3
-0.9412452316955036
% es.tEy (V/m) @ t=0.3
0
% es.tEz (V/m) @ t=0.3
2.4414906176942885
% V (V) @ t=0.3
0.012857049730698804
% es.normE (V/m) @ t=0.32
2.6663752041310564
% es.EX (V/m) @ t=0.32
-0.9503942065826771
% es.EY (V/m) @ t=0.32
0.3019365183721725
% es.EZ (V/m) @ t=0.32
2.465222078230844
% es.tEX (V/m) @ t=0.32
-0.9503942065826843
% es.tEY (V/m) @ t=0.32
0
% es.tEZ (V/m) @ t=0.32
2.4652220782308483
% es.Ex (V/m) @ t=0.32
-0.9503942065826771
% es.Ey (V/m) @ t=0.32
0.3019365183721725
% es.Ez (V/m) @ t=0.32
2.465222078230844
% es.tEx (V/m) @ t=0.32
-0.9503942065826843
% es.tEy (V/m) @ t=0.32
0
% es.tEz (V/m) @ t=0.32
2.4652220782308483
% V (V) @ t=0.32
0.012982021334369084
% es.normE (V/m) @ t=0.34
2.6920430669339988
% es.EX (V/m) @ t=0.34
-0.9595431814698685
% es.EY (V/m) @ t=0.34
0.3048431092752433
% es.EZ (V/m) @ t=0.34
2.488953538767425
% es.tEX (V/m) @ t=0.34
-0.9595431814698863
% es.tEY (V/m) @ t=0.34
0
% es.tEZ (V/m) @ t=0.34
2.488953538767422
% es.Ex (V/m) @ t=0.34
-0.9595431814698685
% es.Ey (V/m) @ t=0.34
0.3048431092752433
% es.Ez (V/m) @ t=0.34
2.488953538767425
% es.tEx (V/m) @ t=0.34
-0.9595431814698863
% es.tEy (V/m) @ t=0.34
0
% es.tEz (V/m) @ t=0.34
2.488953538767422
% V (V) @ t=0.34
0.013106992938039363
% es.normE (V/m) @ t=0.36
2.7177109297369153
% es.EX (V/m) @ t=0.36
-0.9686921563570636
% es.EY (V/m) @ t=0.36
0.3077497001782945
% es.EZ (V/m) @ t=0.36
2.51268499930398
% es.tEX (V/m) @ t=0.36
-0.9686921563570743
% es.tEY (V/m) @ t=0.36
0
% es.tEZ (V/m) @ t=0.36
2.5126849993039837
% es.Ex (V/m) @ t=0.36
-0.9686921563570636
% es.Ey (V/m) @ t=0.36
0.3077497001782945
% es.Ez (V/m) @ t=0.36
2.51268499930398
% es.tEx (V/m) @ t=0.36
-0.9686921563570743
% es.tEy (V/m) @ t=0.36
0
% es.tEz (V/m) @ t=0.36
2.5126849993039837
% V (V) @ t=0.36
0.013231964541709643
% es.normE (V/m) @ t=0.38
2.7433787925398443
% es.EX (V/m) @ t=0.38
-0.977841131244255
% es.EY (V/m) @ t=0.38
0.3106562910813766
% es.EZ (V/m) @ t=0.38
2.536416459840546
% es.tEX (V/m) @ t=0.38
-0.9778411312442692
% es.tEY (V/m) @ t=0.38
0
% es.tEZ (V/m) @ t=0.38
2.536416459840547
% es.Ex (V/m) @ t=0.38
-0.977841131244255
% es.Ey (V/m) @ t=0.38
0.3106562910813766
% es.Ez (V/m) @ t=0.38
2.536416459840546
% es.tEx (V/m) @ t=0.38
-0.9778411312442692
% es.tEy (V/m) @ t=0.38
0
% es.tEz (V/m) @ t=0.38
2.536416459840547
% V (V) @ t=0.38
0.013356936145379923
% es.normE (V/m) @ t=0.4
2.7690466553427777
% es.EX (V/m) @ t=0.4
-0.9869901061314605
% es.EY (V/m) @ t=0.4
0.3135628819844225
% es.EZ (V/m) @ t=0.4
2.5601479203771156
% es.tEX (V/m) @ t=0.4
-0.9869901061314783
% es.tEY (V/m) @ t=0.4
0
% es.tEZ (V/m) @ t=0.4
2.560147920377119
% es.Ex (V/m) @ t=0.4
-0.9869901061314605
% es.Ey (V/m) @ t=0.4
0.3135628819844225
% es.Ez (V/m) @ t=0.4
2.5601479203771156
% es.tEx (V/m) @ t=0.4
-0.9869901061314783
% es.tEy (V/m) @ t=0.4
0
% es.tEz (V/m) @ t=0.4
2.560147920377119
% V (V) @ t=0.4
0.013481907749050203
% es.normE (V/m) @ t=0.42
2.7947145181456907
% es.EX (V/m) @ t=0.42
-0.9961390810186446
% es.EY (V/m) @ t=0.42
0.3164694728874877
% es.EZ (V/m) @ t=0.42
2.58387938091367
% es.tEX (V/m) @ t=0.42
-0.9961390810186517
% es.tEY (V/m) @ t=0.42
0
% es.tEZ (V/m) @ t=0.42
2.5838793809136664
% es.Ex (V/m) @ t=0.42
-0.9961390810186446
% es.Ey (V/m) @ t=0.42
0.3164694728874877
% es.Ez (V/m) @ t=0.42
2.58387938091367
% es.tEx (V/m) @ t=0.42
-0.9961390810186517
% es.tEy (V/m) @ t=0.42
0
% es.tEz (V/m) @ t=0.42
2.5838793809136664
% V (V) @ t=0.42
0.013606879352720484
% es.normE (V/m) @ t=0.44
2.8203823809486233
% es.EX (V/m) @ t=0.44
-1.0052880559058361
% es.EY (V/m) @ t=0.44
0.31937606379054717
% es.EZ (V/m) @ t=0.44
2.607610841450243
% es.tEX (V/m) @ t=0.44
-1.005288055905854
% es.tEY (V/m) @ t=0.44
0
% es.tEZ (V/m) @ t=0.44
2.607610841450244
% es.Ex (V/m) @ t=0.44
-1.0052880559058361
% es.Ey (V/m) @ t=0.44
0.31937606379054717
% es.Ez (V/m) @ t=0.44
2.607610841450243
% es.tEx (V/m) @ t=0.44
-1.005288055905854
% es.tEy (V/m) @ t=0.44
0
% es.tEz (V/m) @ t=0.44
2.607610841450244
% V (V) @ t=0.44
0.01373185095639076
% es.normE (V/m) @ t=0.46
2.8460502437515514
% es.EX (V/m) @ t=0.46
-1.014437030793031
% es.EY (V/m) @ t=0.46
0.3222826546936204
% es.EZ (V/m) @ t=0.46
2.631342301986807
% es.tEX (V/m) @ t=0.46
-1.0144370307930417
% es.tEY (V/m) @ t=0.46
0
% es.tEZ (V/m) @ t=0.46
2.6313423019868107
% es.Ex (V/m) @ t=0.46
-1.014437030793031
% es.Ey (V/m) @ t=0.46
0.3222826546936204
% es.Ez (V/m) @ t=0.46
2.631342301986807
% es.tEx (V/m) @ t=0.46
-1.0144370307930417
% es.tEy (V/m) @ t=0.46
0
% es.tEz (V/m) @ t=0.46
2.6313423019868107
% V (V) @ t=0.46
0.01385682256006104
% es.normE (V/m) @ t=0.48
2.8717181065544843
% es.EX (V/m) @ t=0.48
-1.0235860056802186
% es.EY (V/m) @ t=0.48
0.32518924559669804
% es.EZ (V/m) @ t=0.48
2.6550737625233793
% es.tEX (V/m) @ t=0.48
-1.0235860056802435
% es.tEY (V/m) @ t=0.48
0
% es.tEZ (V/m) @ t=0.48
2.6550737625233847
% es.Ex (V/m) @ t=0.48
-1.0235860056802186
% es.Ey (V/m) @ t=0.48
0.32518924559669804
% es.Ez (V/m) @ t=0.48
2.6550737625233793
% es.tEx (V/m) @ t=0.48
-1.0235860056802435
% es.tEy (V/m) @ t=0.48
0
% es.tEz (V/m) @ t=0.48
2.6550737625233847
% V (V) @ t=0.48
0.01398179416373132
% es.normE (V/m) @ t=0.5
2.8973859693574013
% es.EX (V/m) @ t=0.5
-1.0327349805674102
% es.EY (V/m) @ t=0.5
0.32809583649975127
% es.EZ (V/m) @ t=0.5
2.6788052230599355
% es.tEX (V/m) @ t=0.5
-1.0327349805674173
% es.tEY (V/m) @ t=0.5
0
% es.tEZ (V/m) @ t=0.5
2.6788052230599355
% es.Ex (V/m) @ t=0.5
-1.0327349805674102
% es.Ey (V/m) @ t=0.5
0.32809583649975127
% es.Ez (V/m) @ t=0.5
2.6788052230599355
% es.tEx (V/m) @ t=0.5
-1.0327349805674173
% es.tEy (V/m) @ t=0.5
0
% es.tEz (V/m) @ t=0.5
2.6788052230599355
% V (V) @ t=0.5
0.0141067657674016
% es.normE (V/m) @ t=0.52
2.9230538321603268
% es.EX (V/m) @ t=0.52
-1.041883955454605
% es.EY (V/m) @ t=0.52
0.3310024274028167
% es.EZ (V/m) @ t=0.52
2.7025366835964997
% es.tEX (V/m) @ t=0.52
-1.0418839554546193
% es.tEY (V/m) @ t=0.52
0
% es.tEZ (V/m) @ t=0.52
2.702536683596504
% es.Ex (V/m) @ t=0.52
-1.041883955454605
% es.Ey (V/m) @ t=0.52
0.3310024274028167
% es.Ez (V/m) @ t=0.52
2.7025366835964997
% es.tEx (V/m) @ t=0.52
-1.0418839554546193
% es.tEy (V/m) @ t=0.52
0
% es.tEz (V/m) @ t=0.52
2.702536683596504
% V (V) @ t=0.52
0.014231737371071881
% es.normE (V/m) @ t=0.54
2.951367783507222
% es.EX (V/m) @ t=0.54
-1.0519760894457115
% es.EY (V/m) @ t=0.54
0.3342086588630362
% es.EZ (V/m) @ t=0.54
2.7287146114738103
% es.tEX (V/m) @ t=0.54
-1.0519760894457257
% es.tEY (V/m) @ t=0.54
0
% es.tEZ (V/m) @ t=0.54
2.7287146114738086
% es.Ex (V/m) @ t=0.54
-1.0519760894457115
% es.Ey (V/m) @ t=0.54
0.3342086588630362
% es.Ez (V/m) @ t=0.54
2.7287146114738103
% es.tEx (V/m) @ t=0.54
-1.0519760894457257
% es.tEy (V/m) @ t=0.54
0
% es.tEz (V/m) @ t=0.54
2.7287146114738086
% V (V) @ t=0.54
0.01436959206218105
% es.normE (V/m) @ t=0.56
2.9798676855291535
% es.EX (V/m) @ t=0.56
-1.0621345028031928
% es.EY (V/m) @ t=0.56
0.3374359472013222
% es.EZ (V/m) @ t=0.56
2.7550644618873097
% es.tEX (V/m) @ t=0.56
-1.062134502803207
% es.tEY (V/m) @ t=0.56
0
% es.tEZ (V/m) @ t=0.56
2.7550644618873132
% es.Ex (V/m) @ t=0.56
-1.0621345028031928
% es.Ey (V/m) @ t=0.56
0.3374359472013222
% es.Ez (V/m) @ t=0.56
2.7550644618873097
% es.tEx (V/m) @ t=0.56
-1.062134502803207
% es.tEy (V/m) @ t=0.56
0
% es.tEz (V/m) @ t=0.56
2.7550644618873132
% V (V) @ t=0.56
0.014508352096692727
% es.normE (V/m) @ t=0.58
3.008367587551092
% es.EX (V/m) @ t=0.58
-1.0722929161606702
% es.EY (V/m) @ t=0.58
0.3406632355396222
% es.EZ (V/m) @ t=0.58
2.781414312300818
% es.tEX (V/m) @ t=0.58
-1.072292916160688
% es.tEY (V/m) @ t=0.58
0
% es.tEZ (V/m) @ t=0.58
2.781414312300816
% es.Ex (V/m) @ t=0.58
-1.0722929161606702
% es.Ey (V/m) @ t=0.58
0.3406632355396222
% es.Ez (V/m) @ t=0.58
2.781414312300818
% es.tEx (V/m) @ t=0.58
-1.072292916160688
% es.tEy (V/m) @ t=0.58
0
% es.tEz (V/m) @ t=0.58
2.781414312300816
% V (V) @ t=0.58
0.0146471121312044
% es.normE (V/m) @ t=0.6
3.036867489573023
% es.EX (V/m) @ t=0.6
-1.0824513295181548
% es.EY (V/m) @ t=0.6
0.34389052387791996
% es.EZ (V/m) @ t=0.6
2.8077641627143146
% es.tEX (V/m) @ t=0.6
-1.082451329518169
% es.tEY (V/m) @ t=0.6
0
% es.tEZ (V/m) @ t=0.6
2.8077641627143137
% es.Ex (V/m) @ t=0.6
-1.0824513295181548
% es.Ey (V/m) @ t=0.6
0.34389052387791996
% es.Ez (V/m) @ t=0.6
2.8077641627143146
% es.tEx (V/m) @ t=0.6
-1.082451329518169
% es.tEy (V/m) @ t=0.6
0
% es.tEz (V/m) @ t=0.6
2.8077641627143137
% V (V) @ t=0.6
0.014785872165716078
% es.normE (V/m) @ t=0.62
3.0653673915949557
% es.EX (V/m) @ t=0.62
-1.0926097428756358
% es.EY (V/m) @ t=0.62
0.34711781221623506
% es.EZ (V/m) @ t=0.62
2.834114013127812
% es.tEX (V/m) @ t=0.62
-1.09260974287565
% es.tEY (V/m) @ t=0.62
0
% es.tEZ (V/m) @ t=0.62
2.834114013127813
% es.Ex (V/m) @ t=0.62
-1.0926097428756358
% es.Ey (V/m) @ t=0.62
0.34711781221623506
% es.Ez (V/m) @ t=0.62
2.834114013127812
% es.tEx (V/m) @ t=0.62
-1.09260974287565
% es.tEy (V/m) @ t=0.62
0
% es.tEz (V/m) @ t=0.62
2.834114013127813
% V (V) @ t=0.62
0.014924632200227755
% es.normE (V/m) @ t=0.64
3.0938672936168916
% es.EX (V/m) @ t=0.64
-1.1027681562331169
% es.EY (V/m) @ t=0.64
0.3503451005545217
% es.EZ (V/m) @ t=0.64
2.860463863541317
% es.tEX (V/m) @ t=0.64
-1.102768156233131
% es.tEY (V/m) @ t=0.64
0
% es.tEZ (V/m) @ t=0.64
2.860463863541323
% es.Ex (V/m) @ t=0.64
-1.1027681562331169
% es.Ey (V/m) @ t=0.64
0.3503451005545217
% es.Ez (V/m) @ t=0.64
2.860463863541317
% es.tEx (V/m) @ t=0.64
-1.102768156233131
% es.tEy (V/m) @ t=0.64
0
% es.tEz (V/m) @ t=0.64
2.860463863541323
% V (V) @ t=0.64
0.015063392234739426
% es.normE (V/m) @ t=0.66
3.122367195638823
% es.EX (V/m) @ t=0.66
-1.1129265695905837
% es.EY (V/m) @ t=0.66
0.35357238889282505
% es.EZ (V/m) @ t=0.66
2.8868137139548207
% es.tEX (V/m) @ t=0.66
-1.1129265695905979
% es.tEY (V/m) @ t=0.66
0
% es.tEZ (V/m) @ t=0.66
2.8868137139548242
% es.Ex (V/m) @ t=0.66
-1.1129265695905837
% es.Ey (V/m) @ t=0.66
0.35357238889282505
% es.Ez (V/m) @ t=0.66
2.8868137139548207
% es.tEx (V/m) @ t=0.66
-1.1129265695905979
% es.tEy (V/m) @ t=0.66
0
% es.tEz (V/m) @ t=0.66
2.8868137139548242
% V (V) @ t=0.66
0.015202152269251102
% es.normE (V/m) @ t=0.68
3.1508670976607602
% es.EX (V/m) @ t=0.68
-1.1230849829480647
% es.EY (V/m) @ t=0.68
0.3567996772311224
% es.EZ (V/m) @ t=0.68
2.9131635643683254
% es.tEX (V/m) @ t=0.68
-1.123084982948079
% es.tEY (V/m) @ t=0.68
0
% es.tEZ (V/m) @ t=0.68
2.91316356436832
% es.Ex (V/m) @ t=0.68
-1.1230849829480647
% es.Ey (V/m) @ t=0.68
0.3567996772311224
% es.Ez (V/m) @ t=0.68
2.9131635643683254
% es.tEx (V/m) @ t=0.68
-1.123084982948079
% es.tEy (V/m) @ t=0.68
0
% es.tEz (V/m) @ t=0.68
2.91316356436832
% V (V) @ t=0.68
0.015340912303762777
% es.normE (V/m) @ t=0.7
3.179366999682699
% es.EX (V/m) @ t=0.7
-1.1332433963055601
% es.EY (V/m) @ t=0.7
0.36002696556941616
% es.EZ (V/m) @ t=0.7
2.9395134147818265
% es.tEX (V/m) @ t=0.7
-1.1332433963055744
% es.tEY (V/m) @ t=0.7
0
% es.tEZ (V/m) @ t=0.7
2.9395134147818265
% es.Ex (V/m) @ t=0.7
-1.1332433963055601
% es.Ey (V/m) @ t=0.7
0.36002696556941616
% es.Ez (V/m) @ t=0.7
2.9395134147818265
% es.tEx (V/m) @ t=0.7
-1.1332433963055744
% es.tEy (V/m) @ t=0.7
0
% es.tEz (V/m) @ t=0.7
2.9395134147818265
% V (V) @ t=0.7
0.01547967233827445
% es.normE (V/m) @ t=0.72
3.207866901704625
% es.EX (V/m) @ t=0.72
-1.143401809663027
% es.EY (V/m) @ t=0.72
0.3632542539077188
% es.EZ (V/m) @ t=0.72
2.965863265195324
% es.tEX (V/m) @ t=0.72
-1.1434018096630412
% es.tEY (V/m) @ t=0.72
0
% es.tEZ (V/m) @ t=0.72
2.965863265195315
% es.Ex (V/m) @ t=0.72
-1.143401809663027
% es.Ey (V/m) @ t=0.72
0.3632542539077188
% es.Ez (V/m) @ t=0.72
2.965863265195324
% es.tEx (V/m) @ t=0.72
-1.1434018096630412
% es.tEy (V/m) @ t=0.72
0
% es.tEz (V/m) @ t=0.72
2.965863265195315
% V (V) @ t=0.72
0.015618432372786126
% es.normE (V/m) @ t=0.74
3.2363668037265594
% es.EX (V/m) @ t=0.74
-1.153560223020494
% es.EY (V/m) @ t=0.74
0.36648154224603413
% es.EZ (V/m) @ t=0.74
2.9922131156088296
% es.tEX (V/m) @ t=0.74
-1.1535602230205082
% es.tEY (V/m) @ t=0.74
0
% es.tEZ (V/m) @ t=0.74
2.9922131156088305
% es.Ex (V/m) @ t=0.74
-1.153560223020494
% es.Ey (V/m) @ t=0.74
0.36648154224603413
% es.Ez (V/m) @ t=0.74
2.9922131156088296
% es.tEx (V/m) @ t=0.74
-1.1535602230205082
% es.tEy (V/m) @ t=0.74
0
% es.tEz (V/m) @ t=0.74
2.9922131156088305
% V (V) @ t=0.74
0.0157571924072978
% es.normE (V/m) @ t=0.76
3.2648667057484886
% es.EX (V/m) @ t=0.76
-1.1637186363779892
% es.EY (V/m) @ t=0.76
0.3697088305843137
% es.EZ (V/m) @ t=0.76
3.0185629660223237
% es.tEX (V/m) @ t=0.76
-1.1637186363780034
% es.tEY (V/m) @ t=0.76
0
% es.tEZ (V/m) @ t=0.76
3.0185629660223263
% es.Ex (V/m) @ t=0.76
-1.1637186363779892
% es.Ey (V/m) @ t=0.76
0.3697088305843137
% es.Ez (V/m) @ t=0.76
3.0185629660223237
% es.tEx (V/m) @ t=0.76
-1.1637186363780034
% es.tEy (V/m) @ t=0.76
0
% es.tEz (V/m) @ t=0.76
3.0185629660223263
% V (V) @ t=0.76
0.015895952441809476
% es.normE (V/m) @ t=0.78
3.293366607770426
% es.EX (V/m) @ t=0.78
-1.1738770497354702
% es.EY (V/m) @ t=0.78
0.37293611892261436
% es.EZ (V/m) @ t=0.78
3.0449128164358283
% es.tEX (V/m) @ t=0.78
-1.1738770497354845
% es.tEY (V/m) @ t=0.78
0
% es.tEZ (V/m) @ t=0.78
3.0449128164358257
% es.Ex (V/m) @ t=0.78
-1.1738770497354702
% es.Ey (V/m) @ t=0.78
0.37293611892261436
% es.Ez (V/m) @ t=0.78
3.0449128164358283
% es.tEx (V/m) @ t=0.78
-1.1738770497354845
% es.tEy (V/m) @ t=0.78
0
% es.tEz (V/m) @ t=0.78
3.0449128164358257
% V (V) @ t=0.78
0.016034712476321152
% es.normE (V/m) @ t=0.8
3.3247640358839647
% es.EX (V/m) @ t=0.8
-1.1850682476811376
% es.EY (V/m) @ t=0.8
0.3764915190883402
% es.EZ (V/m) @ t=0.8
3.0739416017419936
% es.tEX (V/m) @ t=0.8
-1.1850682476811518
% es.tEY (V/m) @ t=0.8
0
% es.tEZ (V/m) @ t=0.8
3.073941601741991
% es.Ex (V/m) @ t=0.8
-1.1850682476811376
% es.Ey (V/m) @ t=0.8
0.3764915190883402
% es.Ez (V/m) @ t=0.8
3.0739416017419936
% es.tEx (V/m) @ t=0.8
-1.1850682476811518
% es.tEy (V/m) @ t=0.8
0
% es.tEz (V/m) @ t=0.8
3.073941601741991
% V (V) @ t=0.8
0.01618757994514192
% es.normE (V/m) @ t=0.82
3.3564610967427555
% es.EX (V/m) @ t=0.82
-1.1963662457285262
% es.EY (V/m) @ t=0.82
0.38008084924968677
% es.EZ (V/m) @ t=0.82
3.103247415309819
% es.tEX (V/m) @ t=0.82
-1.1963662457285404
% es.tEY (V/m) @ t=0.82
0
% es.tEZ (V/m) @ t=0.82
3.1032474153098146
% es.Ex (V/m) @ t=0.82
-1.1963662457285262
% es.Ey (V/m) @ t=0.82
0.38008084924968677
% es.Ez (V/m) @ t=0.82
3.103247415309819
% es.tEx (V/m) @ t=0.82
-1.1963662457285404
% es.tEy (V/m) @ t=0.82
0
% es.tEz (V/m) @ t=0.82
3.1032474153098146
% V (V) @ t=0.82
0.0163419062616614
% es.normE (V/m) @ t=0.84
3.3881581576015463
% es.EX (V/m) @ t=0.84
-1.2076642437759288
% es.EY (V/m) @ t=0.84
0.3836701794110269
% es.EZ (V/m) @ t=0.84
3.1325532288776428
% es.tEX (V/m) @ t=0.84
-1.2076642437759573
% es.tEY (V/m) @ t=0.84
0
% es.tEZ (V/m) @ t=0.84
3.1325532288776454
% es.Ex (V/m) @ t=0.84
-1.2076642437759288
% es.Ey (V/m) @ t=0.84
0.3836701794110269
% es.Ez (V/m) @ t=0.84
3.1325532288776428
% es.tEx (V/m) @ t=0.84
-1.2076642437759573
% es.tEy (V/m) @ t=0.84
0
% es.tEz (V/m) @ t=0.84
3.1325532288776454
% V (V) @ t=0.84
0.016496232578180885
% es.normE (V/m) @ t=0.86
3.4198552184603535
% es.EX (V/m) @ t=0.86
-1.2189622418233672
% es.EY (V/m) @ t=0.86
0.38725950957235034
% es.EZ (V/m) @ t=0.86
3.1618590424454682
% es.tEX (V/m) @ t=0.86
-1.2189622418233885
% es.tEY (V/m) @ t=0.86
0
% es.tEZ (V/m) @ t=0.86
3.161859042445469
% es.Ex (V/m) @ t=0.86
-1.2189622418233672
% es.Ey (V/m) @ t=0.86
0.38725950957235034
% es.Ez (V/m) @ t=0.86
3.1618590424454682
% es.tEx (V/m) @ t=0.86
-1.2189622418233885
% es.tEy (V/m) @ t=0.86
0
% es.tEz (V/m) @ t=0.86
3.161859042445469
% V (V) @ t=0.86
0.016650558894700362
% es.normE (V/m) @ t=0.88
3.451552279319139
% es.EX (V/m) @ t=0.88
-1.230260239870749
% es.EY (V/m) @ t=0.88
0.3908488397336969
% es.EZ (V/m) @ t=0.88
3.191164856013292
% es.tEX (V/m) @ t=0.88
-1.2302602398707774
% es.tEY (V/m) @ t=0.88
0
% es.tEZ (V/m) @ t=0.88
3.1911648560132893
% es.Ex (V/m) @ t=0.88
-1.230260239870749
% es.Ey (V/m) @ t=0.88
0.3908488397336969
% es.Ez (V/m) @ t=0.88
3.191164856013292
% es.tEx (V/m) @ t=0.88
-1.2302602398707774
% es.tEy (V/m) @ t=0.88
0
% es.tEz (V/m) @ t=0.88
3.1911648560132893
% V (V) @ t=0.88
0.016804885211219846
% es.normE (V/m) @ t=0.9
3.4832493401779505
% es.EX (V/m) @ t=0.9
-1.2415582379181802
% es.EY (V/m) @ t=0.9
0.3944381698950479
% es.EZ (V/m) @ t=0.9
3.220470669581122
% es.tEX (V/m) @ t=0.9
-1.2415582379181944
% es.tEY (V/m) @ t=0.9
0
% es.tEZ (V/m) @ t=0.9
3.220470669581127
% es.Ex (V/m) @ t=0.9
-1.2415582379181802
% es.Ey (V/m) @ t=0.9
0.3944381698950479
% es.Ez (V/m) @ t=0.9
3.220470669581122
% es.tEx (V/m) @ t=0.9
-1.2415582379181944
% es.tEy (V/m) @ t=0.9
0
% es.tEz (V/m) @ t=0.9
3.220470669581127
% V (V) @ t=0.9
0.016959211527739323
% es.normE (V/m) @ t=0.92
3.5149464010367484
% es.EX (V/m) @ t=0.92
-1.2528562359656112
% es.EY (V/m) @ t=0.92
0.3980275000563782
% es.EZ (V/m) @ t=0.92
3.249776483148943
% es.tEX (V/m) @ t=0.92
-1.2528562359656255
% es.tEY (V/m) @ t=0.92
0
% es.tEZ (V/m) @ t=0.92
3.249776483148933
% es.Ex (V/m) @ t=0.92
-1.2528562359656112
% es.Ey (V/m) @ t=0.92
0.3980275000563782
% es.Ez (V/m) @ t=0.92
3.249776483148943
% es.tEx (V/m) @ t=0.92
-1.2528562359656255
% es.tEy (V/m) @ t=0.92
0
% es.tEz (V/m) @ t=0.92
3.249776483148933
% V (V) @ t=0.92
0.017113537844258807
% es.normE (V/m) @ t=0.94
3.5466434618955427
% es.EX (V/m) @ t=0.94
-1.2641542340130072
% es.EY (V/m) @ t=0.94
0.4016168302177152
% es.EZ (V/m) @ t=0.94
3.279082296716771
% es.tEX (V/m) @ t=0.94
-1.2641542340130285
% es.tEY (V/m) @ t=0.94
0
% es.tEZ (V/m) @ t=0.94
3.2790822967167745
% es.Ex (V/m) @ t=0.94
-1.2641542340130072
% es.Ey (V/m) @ t=0.94
0.4016168302177152
% es.Ez (V/m) @ t=0.94
3.279082296716771
% es.tEx (V/m) @ t=0.94
-1.2641542340130285
% es.tEy (V/m) @ t=0.94
0
% es.tEz (V/m) @ t=0.94
3.2790822967167745
% V (V) @ t=0.94
0.017267864160778284
% es.normE (V/m) @ t=0.96
3.5783405227543454
% es.EX (V/m) @ t=0.96
-1.2754522320604453
% es.EY (V/m) @ t=0.96
0.4052061603790631
% es.EZ (V/m) @ t=0.96
3.308388110284592
% es.tEX (V/m) @ t=0.96
-1.2754522320604595
% es.tEY (V/m) @ t=0.96
0
% es.tEZ (V/m) @ t=0.96
3.3083881102845947
% es.Ex (V/m) @ t=0.96
-1.2754522320604453
% es.Ey (V/m) @ t=0.96
0.4052061603790631
% es.Ez (V/m) @ t=0.96
3.308388110284592
% es.tEx (V/m) @ t=0.96
-1.2754522320604595
% es.tEy (V/m) @ t=0.96
0
% es.tEz (V/m) @ t=0.96
3.3083881102845947
% V (V) @ t=0.96
0.017422190477297768
% es.normE (V/m) @ t=0.98
3.6100375836131495
% es.EX (V/m) @ t=0.98
-1.2867502301078624
% es.EY (V/m) @ t=0.98
0.40879549054041053
% es.EZ (V/m) @ t=0.98
3.337693923852422
% es.tEX (V/m) @ t=0.98
-1.2867502301078908
% es.tEY (V/m) @ t=0.98
0
% es.tEZ (V/m) @ t=0.98
3.3376939238524255
% es.Ex (V/m) @ t=0.98
-1.2867502301078624
% es.Ey (V/m) @ t=0.98
0.40879549054041053
% es.Ez (V/m) @ t=0.98
3.337693923852422
% es.tEx (V/m) @ t=0.98
-1.2867502301078908
% es.tEy (V/m) @ t=0.98
0
% es.tEz (V/m) @ t=0.98
3.3376939238524255
% V (V) @ t=0.98
0.017576516793817252
% es.normE (V/m) @ t=1
3.6417346444719456
% es.EX (V/m) @ t=1
-1.2980482281552794
% es.EY (V/m) @ t=1
0.41238482070173665
% es.EZ (V/m) @ t=1
3.3669997374202447
% es.tEX (V/m) @ t=1
-1.2980482281552936
% es.tEY (V/m) @ t=1
0
% es.tEZ (V/m) @ t=1
3.3669997374202474
% es.Ex (V/m) @ t=1
-1.2980482281552794
% es.Ey (V/m) @ t=1
0.41238482070173665
% es.Ez (V/m) @ t=1
3.3669997374202447
% es.tEx (V/m) @ t=1
-1.2980482281552936
% es.tEy (V/m) @ t=1
0
% es.tEz (V/m) @ t=1
3.3669997374202474
% V (V) @ t=1
0.01773084311033673
% es.normE (V/m) @ t=1.02
3.673431705330734
% es.EX (V/m) @ t=1.02
-1.3093462262027034
% es.EY (V/m) @ t=1.02
0.41597415086305345
% es.EZ (V/m) @ t=1.02
3.3963055509880586
% es.tEX (V/m) @ t=1.02
-1.3093462262027247
% es.tEY (V/m) @ t=1.02
0
% es.tEZ (V/m) @ t=1.02
3.3963055509880657
% es.Ex (V/m) @ t=1.02
-1.3093462262027034
% es.Ey (V/m) @ t=1.02
0.41597415086305345
% es.Ez (V/m) @ t=1.02
3.3963055509880586
% es.tEx (V/m) @ t=1.02
-1.3093462262027247
% es.tEy (V/m) @ t=1.02
0
% es.tEz (V/m) @ t=1.02
3.3963055509880657
% V (V) @ t=1.02
0.017885169426856213
% es.normE (V/m) @ t=1.04
3.705128766189546
% es.EX (V/m) @ t=1.04
-1.3206442242501135
% es.EY (V/m) @ t=1.04
0.4195634810244191
% es.EZ (V/m) @ t=1.04
3.4256113645558974
% es.tEX (V/m) @ t=1.04
-1.3206442242501277
% es.tEY (V/m) @ t=1.04
0
% es.tEZ (V/m) @ t=1.04
3.4256113645558948
% es.Ex (V/m) @ t=1.04
-1.3206442242501135