% Model:              1 neuron.mph
% Version:            COMSOL 6.1.0.252
% Date:               Mar 27 2023, 14:35
% Dimension:          0
% Nodes:              14017
% Expressions:        14017
% Description:        Electric field norm, Electric field, X component, Electric field, Y component, Electric field, Z component, Tangential electric field, X component, Tangential electric field, Y component, Tangential electric field, Z component, Electric field, x component, Electric field, y component, Electric field, z component, Tangential electric field, x component, Tangential electric field, y component, Tangential electric field, z component, Electric potential
% Length unit:        mm
% x
1
% y
12.2
% z
1.6599999999999997
% es.normE (V/m) @ t=0
2.8923592249762
% es.EX (V/m) @ t=0
2.589268102452568
% es.EY (V/m) @ t=0
0.09962392097795958
% es.EZ (V/m) @ t=0
-1.2851099334732667
% es.tEX (V/m) @ t=0
2.5892681024525546
% es.tEY (V/m) @ t=0
0
% es.tEZ (V/m) @ t=0
-1.2851099334732723
% es.Ex (V/m) @ t=0
2.589268102452568
% es.Ey (V/m) @ t=0
0.09962392097795958
% es.Ez (V/m) @ t=0
-1.2851099334732667
% es.tEx (V/m) @ t=0
2.5892681024525546
% es.tEy (V/m) @ t=0
0
% es.tEz (V/m) @ t=0
-1.2851099334732723
% V (V) @ t=0
0.01312260070137606
% es.normE (V/m) @ t=0.02
2.4981557194562054
% es.EX (V/m) @ t=0.02
2.2363732917627726
% es.EY (V/m) @ t=0.02
0.0860460437750229
% es.EZ (V/m) @ t=0.02
-1.1099605814883555
% es.tEX (V/m) @ t=0.02
2.236373291762775
% es.tEY (V/m) @ t=0.02
0
% es.tEZ (V/m) @ t=0.02
-1.1099605814883233
% es.Ex (V/m) @ t=0.02
2.2363732917627726
% es.Ey (V/m) @ t=0.02
0.0860460437750229
% es.Ez (V/m) @ t=0.02
-1.1099605814883555
% es.tEx (V/m) @ t=0.02
2.236373291762775
% es.tEy (V/m) @ t=0.02
0
% es.tEz (V/m) @ t=0.02
-1.1099605814883233
% V (V) @ t=0.02
0.011334103862267216
% es.normE (V/m) @ t=0.04
2.5211319765218496
% es.EX (V/m) @ t=0.04
2.256941861676984
% es.EY (V/m) @ t=0.04
0.08683743437677821
% es.EZ (V/m) @ t=0.04
-1.1201692059892112
% es.tEX (V/m) @ t=0.04
2.2569418616769736
% es.tEY (V/m) @ t=0.04
0
% es.tEZ (V/m) @ t=0.04
-1.1201692059892068
% es.Ex (V/m) @ t=0.04
2.256941861676984
% es.Ey (V/m) @ t=0.04
0.08683743437677821
% es.Ez (V/m) @ t=0.04
-1.1201692059892112
% es.tEx (V/m) @ t=0.04
2.2569418616769736
% es.tEy (V/m) @ t=0.04
0
% es.tEz (V/m) @ t=0.04
-1.1201692059892068
% V (V) @ t=0.04
0.01143834677779719
% es.normE (V/m) @ t=0.06
2.5442818697251046
% es.EX (V/m) @ t=0.06
2.2776658696604173
% es.EY (V/m) @ t=0.06
0.08763480480595753
% es.EZ (V/m) @ t=0.06
-1.1304549845974885
% es.tEX (V/m) @ t=0.06
2.277665869660418
% es.tEY (V/m) @ t=0.06
0
% es.tEZ (V/m) @ t=0.06
-1.1304549845974705
% es.Ex (V/m) @ t=0.06
2.2776658696604173
% es.Ey (V/m) @ t=0.06
0.08763480480595753
% es.Ez (V/m) @ t=0.06
-1.1304549845974885
% es.tEx (V/m) @ t=0.06
2.277665869660418
% es.tEy (V/m) @ t=0.06
0
% es.tEz (V/m) @ t=0.06
-1.1304549845974705
% V (V) @ t=0.06
0.01154337770707916
% es.normE (V/m) @ t=0.08
2.5678619691354143
% es.EX (V/m) @ t=0.08
2.298775003438549
% es.EY (V/m) @ t=0.08
0.08844699351667862
% es.EZ (V/m) @ t=0.08
-1.1409319069182104
% es.tEX (V/m) @ t=0.08
2.2987750034385472
% es.tEY (V/m) @ t=0.08
0
% es.tEZ (V/m) @ t=0.08
-1.1409319069181905
% es.Ex (V/m) @ t=0.08
2.298775003438549
% es.Ey (V/m) @ t=0.08
0.08844699351667862
% es.Ez (V/m) @ t=0.08
-1.1409319069182104
% es.tEx (V/m) @ t=0.08
2.2987750034385472
% es.tEy (V/m) @ t=0.08
0
% es.tEz (V/m) @ t=0.08
-1.1409319069181905
% V (V) @ t=0.08
0.01165036039042095
% es.normE (V/m) @ t=0.1
2.5915806942971082
% es.EX (V/m) @ t=0.1
2.3200082366643224
% es.EY (V/m) @ t=0.1
0.08926395713623853
% es.EZ (V/m) @ t=0.1
-1.1514704216574645
% es.tEX (V/m) @ t=0.1
2.3200082366643215
% es.tEY (V/m) @ t=0.1
0
% es.tEZ (V/m) @ t=0.1
-1.1514704216574643
% es.Ex (V/m) @ t=0.1
2.3200082366643224
% es.Ey (V/m) @ t=0.1
0.08926395713623853
% es.Ez (V/m) @ t=0.1
-1.1514704216574645
% es.tEx (V/m) @ t=0.1
2.3200082366643215
% es.tEy (V/m) @ t=0.1
0
% es.tEz (V/m) @ t=0.1
-1.1514704216574643
% V (V) @ t=0.1
0.011757971989311927
% es.normE (V/m) @ t=0.12
2.6152994194588013
% es.EX (V/m) @ t=0.12
2.3412414698900923
% es.EY (V/m) @ t=0.12
0.0900809207558021
% es.EZ (V/m) @ t=0.12
-1.162008936396722
% es.tEX (V/m) @ t=0.12
2.341241469890096
% es.tEY (V/m) @ t=0.12
0
% es.tEZ (V/m) @ t=0.12
-1.162008936396731
% es.Ex (V/m) @ t=0.12
2.3412414698900923
% es.Ey (V/m) @ t=0.12
0.0900809207558021
% es.Ez (V/m) @ t=0.12
-1.162008936396722
% es.tEx (V/m) @ t=0.12
2.341241469890096
% es.tEy (V/m) @ t=0.12
0
% es.tEz (V/m) @ t=0.12
-1.162008936396731
% V (V) @ t=0.12
0.011865583588202902
% es.normE (V/m) @ t=0.14
2.639644673903529
% es.EX (V/m) @ t=0.14
2.363035578409366
% es.EY (V/m) @ t=0.14
0.0909194644906069
% es.EZ (V/m) @ t=0.14
-1.1728258252384656
% es.tEX (V/m) @ t=0.14
2.363035578409364
% es.tEY (V/m) @ t=0.14
0
% es.tEZ (V/m) @ t=0.14
-1.172825825238462
% es.Ex (V/m) @ t=0.14
2.363035578409366
% es.Ey (V/m) @ t=0.14
0.0909194644906069
% es.Ez (V/m) @ t=0.14
-1.1728258252384656
% es.tEx (V/m) @ t=0.14
2.363035578409364
% es.tEy (V/m) @ t=0.14
0
% es.tEz (V/m) @ t=0.14
-1.172825825238462
% V (V) @ t=0.14
0.011976037727739822
% es.normE (V/m) @ t=0.16
2.664563485017039
% es.EX (V/m) @ t=0.16
2.3853431406069414
% es.EY (V/m) @ t=0.16
0.09177776375689517
% es.EZ (V/m) @ t=0.16
-1.1838975518463557
% es.tEX (V/m) @ t=0.16
2.3853431406069383
% es.tEY (V/m) @ t=0.16
0
% es.tEZ (V/m) @ t=0.16
-1.1838975518463286
% es.Ex (V/m) @ t=0.16
2.3853431406069414
% es.Ey (V/m) @ t=0.16
0.09177776375689517
% es.Ez (V/m) @ t=0.16
-1.1838975518463557
% es.tEx (V/m) @ t=0.16
2.3853431406069383
% es.tEy (V/m) @ t=0.16
0
% es.tEz (V/m) @ t=0.16
-1.1838975518463286
% V (V) @ t=0.16
0.012089094073092065
% es.normE (V/m) @ t=0.18
2.6894822961305875
% es.EX (V/m) @ t=0.18
2.407650702804559
% es.EY (V/m) @ t=0.18
0.09263606302323046
% es.EZ (V/m) @ t=0.18
-1.1949692784542423
% es.tEX (V/m) @ t=0.18
2.4076507028045544
% es.tEY (V/m) @ t=0.18
0
% es.tEZ (V/m) @ t=0.18
-1.1949692784542378
% es.Ex (V/m) @ t=0.18
2.407650702804559
% es.Ey (V/m) @ t=0.18
0.09263606302323046
% es.Ez (V/m) @ t=0.18
-1.1949692784542423
% es.tEx (V/m) @ t=0.18
2.4076507028045544
% es.tEy (V/m) @ t=0.18
0
% es.tEz (V/m) @ t=0.18
-1.1949692784542378
% V (V) @ t=0.18
0.012202150418444312
% es.normE (V/m) @ t=0.2
2.714401107244096
% es.EX (V/m) @ t=0.2
2.429958265002134
% es.EY (V/m) @ t=0.2
0.09349436228953206
% es.EZ (V/m) @ t=0.2
-1.2060410050621286
% es.tEX (V/m) @ t=0.2
2.429958265002135
% es.tEY (V/m) @ t=0.2
0
% es.tEZ (V/m) @ t=0.2
-1.2060410050621186
% es.Ex (V/m) @ t=0.2
2.429958265002134
% es.Ey (V/m) @ t=0.2
0.09349436228953206
% es.Ez (V/m) @ t=0.2
-1.2060410050621286
% es.tEx (V/m) @ t=0.2
2.429958265002135
% es.tEy (V/m) @ t=0.2
0
% es.tEz (V/m) @ t=0.2
-1.2060410050621186
% V (V) @ t=0.2
0.012315206763796556
% es.normE (V/m) @ t=0.22
2.739319918357624
% es.EX (V/m) @ t=0.22
2.45226582719973
% es.EY (V/m) @ t=0.22
0.0943526615558638
% es.EZ (V/m) @ t=0.22
-1.2171127316700117
% es.tEX (V/m) @ t=0.22
2.4522658271997306
% es.tEY (V/m) @ t=0.22
0
% es.tEZ (V/m) @ t=0.22
-1.2171127316700066
% es.Ex (V/m) @ t=0.22
2.45226582719973
% es.Ey (V/m) @ t=0.22
0.0943526615558638
% es.Ez (V/m) @ t=0.22
-1.2171127316700117
% es.tEx (V/m) @ t=0.22
2.4522658271997306
% es.tEy (V/m) @ t=0.22
0
% es.tEz (V/m) @ t=0.22
-1.2171127316700066
% V (V) @ t=0.22
0.012428263109148803
% es.normE (V/m) @ t=0.24
2.7642387294711415
% es.EX (V/m) @ t=0.24
2.4745733893973165
% es.EY (V/m) @ t=0.24
0.09521096082217517
% es.EZ (V/m) @ t=0.24
-1.2281844582778945
% es.tEX (V/m) @ t=0.24
2.474573389397312
% es.tEY (V/m) @ t=0.24
0
% es.tEZ (V/m) @ t=0.24
-1.2281844582778945
% es.Ex (V/m) @ t=0.24
2.4745733893973165
% es.Ey (V/m) @ t=0.24
0.09521096082217517
% es.Ez (V/m) @ t=0.24
-1.2281844582778945
% es.tEx (V/m) @ t=0.24
2.474573389397312
% es.tEy (V/m) @ t=0.24
0
% es.tEz (V/m) @ t=0.24
-1.2281844582778945
% V (V) @ t=0.24
0.012541319454501047
% es.normE (V/m) @ t=0.26
2.7893014208599904
% es.EX (V/m) @ t=0.26
2.4970097519959475
% es.EY (V/m) @ t=0.26
0.09607421507212077
% es.EZ (V/m) @ t=0.26
-1.2393201179623001
% es.tEX (V/m) @ t=0.26
2.4970097519959396
% es.tEY (V/m) @ t=0.26
0
% es.tEZ (V/m) @ t=0.26
-1.2393201179623006
% es.Ex (V/m) @ t=0.26
2.4970097519959475
% es.Ey (V/m) @ t=0.26
0.09607421507212077
% es.Ez (V/m) @ t=0.26
-1.2393201179623001
% es.tEx (V/m) @ t=0.26
2.4970097519959396
% es.tEy (V/m) @ t=0.26
0
% es.tEz (V/m) @ t=0.26
-1.2393201179623006
% V (V) @ t=0.26
0.012655028804907265
% es.normE (V/m) @ t=0.28
2.816903766488962
% es.EX (V/m) @ t=0.28
2.521719591510659
% es.EY (V/m) @ t=0.28
0.09702493054760297
% es.EZ (V/m) @ t=0.28
-1.2515842708226912
% es.tEX (V/m) @ t=0.28
2.5217195915106503
% es.tEY (V/m) @ t=0.28
0
% es.tEZ (V/m) @ t=0.28
-1.251584270822697
% es.Ex (V/m) @ t=0.28
2.521719591510659
% es.Ey (V/m) @ t=0.28
0.09702493054760297
% es.Ez (V/m) @ t=0.28
-1.2515842708226912
% es.tEx (V/m) @ t=0.28
2.5217195915106503
% es.tEy (V/m) @ t=0.28
0
% es.tEz (V/m) @ t=0.28
-1.251584270822697
% V (V) @ t=0.28
0.01278026445417937
% es.normE (V/m) @ t=0.3
2.844506112117947
% es.EX (V/m) @ t=0.3
2.5464294310253783
% es.EY (V/m) @ t=0.3
0.09797564602310116
% es.EZ (V/m) @ t=0.3
-1.2638484236830856
% es.tEX (V/m) @ t=0.3
2.546429431025376
% es.tEY (V/m) @ t=0.3
0
% es.tEZ (V/m) @ t=0.3
-1.2638484236830934
% es.Ex (V/m) @ t=0.3
2.5464294310253783
% es.Ey (V/m) @ t=0.3
0.09797564602310116
% es.Ez (V/m) @ t=0.3
-1.2638484236830856
% es.tEx (V/m) @ t=0.3
2.546429431025376
% es.tEy (V/m) @ t=0.3
0
% es.tEz (V/m) @ t=0.3
-1.2638484236830934
% V (V) @ t=0.3
0.012905500103451479
% es.normE (V/m) @ t=0.32
2.8721084577469336
% es.EX (V/m) @ t=0.32
2.571139270540086
% es.EY (V/m) @ t=0.32
0.0989263614985994
% es.EZ (V/m) @ t=0.32
-1.2761125765434977
% es.tEX (V/m) @ t=0.32
2.571139270540077
% es.tEY (V/m) @ t=0.32
0
% es.tEZ (V/m) @ t=0.32
-1.2761125765434898
% es.Ex (V/m) @ t=0.32
2.571139270540086
% es.Ey (V/m) @ t=0.32
0.0989263614985994
% es.Ez (V/m) @ t=0.32
-1.2761125765434977
% es.tEx (V/m) @ t=0.32
2.571139270540077
% es.tEy (V/m) @ t=0.32
0
% es.tEz (V/m) @ t=0.32
-1.2761125765434898
% V (V) @ t=0.32
0.013030735752723583
% es.normE (V/m) @ t=0.34
2.899710803375947
% es.EX (V/m) @ t=0.34
2.5958491100548224
% es.EY (V/m) @ t=0.34
0.09987707697405585
% es.EZ (V/m) @ t=0.34
-1.288376729403903
% es.tEX (V/m) @ t=0.34
2.595849110054824
% es.tEY (V/m) @ t=0.34
0
% es.tEZ (V/m) @ t=0.34
-1.2883767294039004
% es.Ex (V/m) @ t=0.34
2.5958491100548224
% es.Ey (V/m) @ t=0.34
0.09987707697405585
% es.Ez (V/m) @ t=0.34
-1.288376729403903
% es.tEx (V/m) @ t=0.34
2.595849110054824
% es.tEy (V/m) @ t=0.34
0
% es.tEz (V/m) @ t=0.34
-1.2883767294039004
% V (V) @ t=0.34
0.013155971401995693
% es.normE (V/m) @ t=0.36
2.9273131490049558
% es.EX (V/m) @ t=0.36
2.6205589495695367
% es.EY (V/m) @ t=0.36
0.10082779244957357
% es.EZ (V/m) @ t=0.36
-1.3006408822643294
% es.tEX (V/m) @ t=0.36
2.620558949569533
% es.tEY (V/m) @ t=0.36
0
% es.tEZ (V/m) @ t=0.36
-1.300640882264311
% es.Ex (V/m) @ t=0.36
2.6205589495695367
% es.Ey (V/m) @ t=0.36
0.10082779244957357
% es.Ez (V/m) @ t=0.36
-1.3006408822643294
% es.tEx (V/m) @ t=0.36
2.620558949569533
% es.tEy (V/m) @ t=0.36
0
% es.tEz (V/m) @ t=0.36
-1.300640882264311
% V (V) @ t=0.36
0.0132812070512678
% es.normE (V/m) @ t=0.38
2.954915494633961
% es.EX (V/m) @ t=0.38
2.6452687890842634
% es.EY (V/m) @ t=0.38
0.10177850792505577
% es.EZ (V/m) @ t=0.38
-1.3129050351247167
% es.tEX (V/m) @ t=0.38
2.645268789084259
% es.tEY (V/m) @ t=0.38
0
% es.tEZ (V/m) @ t=0.38
-1.3129050351247074
% es.Ex (V/m) @ t=0.38
2.6452687890842634
% es.Ey (V/m) @ t=0.38
0.10177850792505577
% es.Ez (V/m) @ t=0.38
-1.3129050351247167
% es.tEx (V/m) @ t=0.38
2.645268789084259
% es.tEy (V/m) @ t=0.38
0
% es.tEz (V/m) @ t=0.38
-1.3129050351247074
% V (V) @ t=0.38
0.013406442700539908
% es.normE (V/m) @ t=0.4
2.9825178402629513
% es.EX (V/m) @ t=0.4
2.6699786285989715
% es.EY (V/m) @ t=0.4
0.10272922340053886
% es.EZ (V/m) @ t=0.4
-1.325169187985097
% es.tEX (V/m) @ t=0.4
2.6699786285989617
% es.tEY (V/m) @ t=0.4
0
% es.tEZ (V/m) @ t=0.4
-1.3251691879851037
% es.Ex (V/m) @ t=0.4
2.6699786285989715
% es.Ey (V/m) @ t=0.4
0.10272922340053886
% es.Ez (V/m) @ t=0.4
-1.325169187985097
% es.tEx (V/m) @ t=0.4
2.6699786285989617
% es.tEy (V/m) @ t=0.4
0
% es.tEz (V/m) @ t=0.4
-1.3251691879851037
% V (V) @ t=0.4
0.013531678349812016
% es.normE (V/m) @ t=0.42
3.0101201858919877
% es.EX (V/m) @ t=0.42
2.6946884681136964
% es.EY (V/m) @ t=0.42
0.10367993887603794
% es.EZ (V/m) @ t=0.42
-1.3374333408455377
% es.tEX (V/m) @ t=0.42
2.6946884681137
% es.tEY (V/m) @ t=0.42
0
% es.tEZ (V/m) @ t=0.42
-1.3374333408455144
% es.Ex (V/m) @ t=0.42
2.6946884681136964
% es.Ey (V/m) @ t=0.42
0.10367993887603794
% es.Ez (V/m) @ t=0.42
-1.3374333408455377
% es.tEx (V/m) @ t=0.42
2.6946884681137
% es.tEy (V/m) @ t=0.42
0
% es.tEz (V/m) @ t=0.42
-1.3374333408455144
% V (V) @ t=0.42
0.013656913999084122
% es.normE (V/m) @ t=0.44
3.037722531521001
% es.EX (V/m) @ t=0.44
2.7193983076284187
% es.EY (V/m) @ t=0.44
0.10463065435154412
% es.EZ (V/m) @ t=0.44
-1.3496974937059214
% es.tEX (V/m) @ t=0.44
2.7193983076284107
% es.tEY (V/m) @ t=0.44
0
% es.tEZ (V/m) @ t=0.44
-1.349697493705925
% es.Ex (V/m) @ t=0.44
2.7193983076284187
% es.Ey (V/m) @ t=0.44
0.10463065435154412
% es.Ez (V/m) @ t=0.44
-1.3496974937059214
% es.tEx (V/m) @ t=0.44
2.7193983076284107
% es.tEy (V/m) @ t=0.44
0
% es.tEz (V/m) @ t=0.44
-1.349697493705925
% V (V) @ t=0.44
0.013782149648356232
% es.normE (V/m) @ t=0.46
3.065324877150024
% es.EX (V/m) @ t=0.46
2.744108147143138
% es.EY (V/m) @ t=0.46
0.10558136982701655
% es.EZ (V/m) @ t=0.46
-1.36196164656633
% es.tEX (V/m) @ t=0.46
2.744108147143142
% es.tEY (V/m) @ t=0.46
0
% es.tEZ (V/m) @ t=0.46
-1.3619616465663213
% es.Ex (V/m) @ t=0.46
2.744108147143138
% es.Ey (V/m) @ t=0.46
0.10558136982701655
% es.Ez (V/m) @ t=0.46
-1.36196164656633
% es.tEx (V/m) @ t=0.46
2.744108147143142
% es.tEy (V/m) @ t=0.46
0
% es.tEz (V/m) @ t=0.46
-1.3619616465663213
% V (V) @ t=0.46
0.013907385297628336
% es.normE (V/m) @ t=0.48
3.0929272227790587
% es.EX (V/m) @ t=0.48
2.7688179866578593
% es.EY (V/m) @ t=0.48
0.10653208530249514
% es.EZ (V/m) @ t=0.48
-1.3742257994267493
% es.tEX (V/m) @ t=0.48
2.768817986657859
% es.tEY (V/m) @ t=0.48
0
% es.tEZ (V/m) @ t=0.48
-1.374225799426732
% es.Ex (V/m) @ t=0.48
2.7688179866578593
% es.Ey (V/m) @ t=0.48
0.10653208530249514
% es.Ez (V/m) @ t=0.48
-1.3742257994267493
% es.tEx (V/m) @ t=0.48
2.768817986657859
% es.tEy (V/m) @ t=0.48
0
% es.tEz (V/m) @ t=0.48
-1.374225799426732
% V (V) @ t=0.48
0.014032620946900446
% es.normE (V/m) @ t=0.5
3.120529568408098
% es.EX (V/m) @ t=0.5
2.7935278261725887
% es.EY (V/m) @ t=0.5
0.10748280077799421
% es.EZ (V/m) @ t=0.5
-1.3864899522871545
% es.tEX (V/m) @ t=0.5
2.7935278261725696
% es.tEY (V/m) @ t=0.5
0
% es.tEZ (V/m) @ t=0.5
-1.3864899522871426
% es.Ex (V/m) @ t=0.5
2.7935278261725887
% es.Ey (V/m) @ t=0.5
0.10748280077799421
% es.Ez (V/m) @ t=0.5
-1.3864899522871545
% es.tEx (V/m) @ t=0.5
2.7935278261725696
% es.tEy (V/m) @ t=0.5
0
% es.tEz (V/m) @ t=0.5
-1.3864899522871426
% V (V) @ t=0.5
0.014157856596172554
% es.normE (V/m) @ t=0.52
3.1484844228812845
% es.EX (V/m) @ t=0.52
2.8185532389516355
% es.EY (V/m) @ t=0.52
0.10844565921034655
% es.EZ (V/m) @ t=0.52
-1.3989107210689322
% es.tEX (V/m) @ t=0.52
2.818553238951635
% es.tEY (V/m) @ t=0.52
0
% es.tEZ (V/m) @ t=0.52
-1.3989107210689156
% es.Ex (V/m) @ t=0.52
2.8185532389516355
% es.Ey (V/m) @ t=0.52
0.10844565921034655
% es.Ez (V/m) @ t=0.52
-1.3989107210689322
% es.tEx (V/m) @ t=0.52
2.818553238951635
% es.tEy (V/m) @ t=0.52
0
% es.tEz (V/m) @ t=0.52
-1.3989107210689156
% V (V) @ t=0.52
0.014284691242109107
% es.normE (V/m) @ t=0.54
3.1791072237023665
% es.EX (V/m) @ t=0.54
2.845967052907045
% es.EY (V/m) @ t=0.54
0.10950042103170099
% es.EZ (V/m) @ t=0.54
-1.4125168299702069
% es.tEX (V/m) @ t=0.54
2.845967052907044
% es.tEY (V/m) @ t=0.54
0
% es.tEZ (V/m) @ t=0.54
-1.4125168299702011
% es.Ex (V/m) @ t=0.54
2.845967052907045
% es.Ey (V/m) @ t=0.54
0.10950042103170099
% es.Ez (V/m) @ t=0.54
-1.4125168299702069
% es.tEx (V/m) @ t=0.54
2.845967052907044
% es.tEy (V/m) @ t=0.54
0
% es.tEz (V/m) @ t=0.54
-1.4125168299702011
% V (V) @ t=0.54
0.014423627817916916
% es.normE (V/m) @ t=0.56
3.2097300245234424
% es.EX (V/m) @ t=0.56
2.873380866862445
% es.EY (V/m) @ t=0.56
0.1105551828530581
% es.EZ (V/m) @ t=0.56
-1.426122938871485
% es.tEX (V/m) @ t=0.56
2.8733808668624388
% es.tEY (V/m) @ t=0.56
0
% es.tEZ (V/m) @ t=0.56
-1.4261229388714582
% es.Ex (V/m) @ t=0.56
2.873380866862445
% es.Ey (V/m) @ t=0.56
0.1105551828530581
% es.Ez (V/m) @ t=0.56
-1.426122938871485
% es.tEx (V/m) @ t=0.56
2.8733808668624388
% es.tEy (V/m) @ t=0.56
0
% es.tEz (V/m) @ t=0.56
-1.4261229388714582
% V (V) @ t=0.56
0.014562564393724732
% es.normE (V/m) @ t=0.58
3.240352825344538
% es.EX (V/m) @ t=0.58
2.900794680817862
% es.EY (V/m) @ t=0.58
0.11160994467439744
% es.EZ (V/m) @ t=0.58
-1.4397290477727773
% es.tEX (V/m) @ t=0.58
2.9007946808178673
% es.tEY (V/m) @ t=0.58
0
% es.tEZ (V/m) @ t=0.58
-1.439729047772758
% es.Ex (V/m) @ t=0.58
2.900794680817862
% es.Ey (V/m) @ t=0.58
0.11160994467439744
% es.Ez (V/m) @ t=0.58
-1.4397290477727773
% es.tEx (V/m) @ t=0.58
2.9007946808178673
% es.tEy (V/m) @ t=0.58
0
% es.tEz (V/m) @ t=0.58
-1.439729047772758
% V (V) @ t=0.58
0.014701500969532544
% es.normE (V/m) @ t=0.6
3.2709756261656295
% es.EX (V/m) @ t=0.6
2.928208494773276
% es.EY (V/m) @ t=0.6
0.11266470649574128
% es.EZ (V/m) @ t=0.6
-1.4533351566740627
% es.tEX (V/m) @ t=0.6
2.928208494773269
% es.tEY (V/m) @ t=0.6
0
% es.tEZ (V/m) @ t=0.6
-1.4533351566740578
% es.Ex (V/m) @ t=0.6
2.928208494773276
% es.Ey (V/m) @ t=0.6
0.11266470649574128
% es.Ez (V/m) @ t=0.6
-1.4533351566740627
% es.tEx (V/m) @ t=0.6
2.928208494773269
% es.tEy (V/m) @ t=0.6
0
% es.tEz (V/m) @ t=0.6
-1.4533351566740578
% V (V) @ t=0.6
0.014840437545340358
% es.normE (V/m) @ t=0.62
3.30159842698672
% es.EX (V/m) @ t=0.62
2.9556223087286826
% es.EY (V/m) @ t=0.62
0.11371946831713392
% es.EZ (V/m) @ t=0.62
-1.4669412655753584
% es.tEX (V/m) @ t=0.62
2.955622308728678
% es.tEY (V/m) @ t=0.62
0
% es.tEZ (V/m) @ t=0.62
-1.4669412655753504
% es.Ex (V/m) @ t=0.62
2.9556223087286826
% es.Ey (V/m) @ t=0.62
0.11371946831713392
% es.Ez (V/m) @ t=0.62
-1.4669412655753584
% es.tEx (V/m) @ t=0.62
2.955622308728678
% es.tEy (V/m) @ t=0.62
0
% es.tEz (V/m) @ t=0.62
-1.4669412655753504
% V (V) @ t=0.62
0.014979374121148172
% es.normE (V/m) @ t=0.64
3.3322212278077847
% es.EX (V/m) @ t=0.64
2.983036122684074
% es.EY (V/m) @ t=0.64
0.11477423013846788
% es.EZ (V/m) @ t=0.64
-1.4805473744766293
% es.tEX (V/m) @ t=0.64
2.983036122684071
% es.tEY (V/m) @ t=0.64
0
% es.tEZ (V/m) @ t=0.64
-1.4805473744766147
% es.Ex (V/m) @ t=0.64
2.983036122684074
% es.Ey (V/m) @ t=0.64
0.11477423013846788
% es.Ez (V/m) @ t=0.64
-1.4805473744766293
% es.tEx (V/m) @ t=0.64
2.983036122684071
% es.tEy (V/m) @ t=0.64
0
% es.tEz (V/m) @ t=0.64
-1.4805473744766147
% V (V) @ t=0.64
0.01511831069695598
% es.normE (V/m) @ t=0.66
3.3628440286288757
% es.EX (V/m) @ t=0.66
3.010449936639484
% es.EY (V/m) @ t=0.66
0.11582899195981783
% es.EZ (V/m) @ t=0.66
-1.4941534833779218
% es.tEX (V/m) @ t=0.66
3.0104499366394872
% es.tEY (V/m) @ t=0.66
0
% es.tEZ (V/m) @ t=0.66
-1.4941534833779144
% es.Ex (V/m) @ t=0.66
3.010449936639484
% es.Ey (V/m) @ t=0.66
0.11582899195981783
% es.Ez (V/m) @ t=0.66
-1.4941534833779218
% es.tEx (V/m) @ t=0.66
3.0104499366394872
% es.tEy (V/m) @ t=0.66
0
% es.tEz (V/m) @ t=0.66
-1.4941534833779144
% V (V) @ t=0.66
0.015257247272763796
% es.normE (V/m) @ t=0.68
3.3934668294499746
% es.EX (V/m) @ t=0.68
3.037863750594905
% es.EY (V/m) @ t=0.68
0.11688375378116433
% es.EZ (V/m) @ t=0.68
-1.5077595922792106
% es.tEX (V/m) @ t=0.68
3.037863750594896
% es.tEY (V/m) @ t=0.68
0
% es.tEZ (V/m) @ t=0.68
-1.5077595922791929
% es.Ex (V/m) @ t=0.68
3.037863750594905
% es.Ey (V/m) @ t=0.68
0.11688375378116433
% es.Ez (V/m) @ t=0.68
-1.5077595922792106
% es.tEx (V/m) @ t=0.68
3.037863750594896
% es.tEy (V/m) @ t=0.68
0
% es.tEz (V/m) @ t=0.68
-1.5077595922791929
% V (V) @ t=0.68
0.01539618384857161
% es.normE (V/m) @ t=0.7
3.4240896302710273
% es.EX (V/m) @ t=0.7
3.065277564550291
% es.EY (V/m) @ t=0.7
0.11793851560252144
% es.EZ (V/m) @ t=0.7
-1.5213657011804638
% es.tEX (V/m) @ t=0.7
3.065277564550291
% es.tEY (V/m) @ t=0.7
0
% es.tEZ (V/m) @ t=0.7
-1.521365701180457
% es.Ex (V/m) @ t=0.7
3.065277564550291
% es.Ey (V/m) @ t=0.7
0.11793851560252144
% es.Ez (V/m) @ t=0.7
-1.5213657011804638
% es.tEx (V/m) @ t=0.7
3.065277564550291
% es.tEy (V/m) @ t=0.7
0
% es.tEz (V/m) @ t=0.7
-1.521365701180457
% V (V) @ t=0.7
0.015535120424379423
% es.normE (V/m) @ t=0.72
3.454712431092128
% es.EX (V/m) @ t=0.72
3.092691378505708
% es.EY (V/m) @ t=0.72
0.11899327742386523
% es.EZ (V/m) @ t=0.72
-1.5349718100817633
% es.tEX (V/m) @ t=0.72
3.0926913785057
% es.tEY (V/m) @ t=0.72
0
% es.tEZ (V/m) @ t=0.72
-1.5349718100817427
% es.Ex (V/m) @ t=0.72
3.092691378505708
% es.Ey (V/m) @ t=0.72
0.11899327742386523
% es.Ez (V/m) @ t=0.72
-1.5349718100817633
% es.tEx (V/m) @ t=0.72
3.0926913785057
% es.tEy (V/m) @ t=0.72
0
% es.tEz (V/m) @ t=0.72
-1.5349718100817427
% V (V) @ t=0.72
0.015674057000187234
% es.normE (V/m) @ t=0.74
3.4853352319132025
% es.EX (V/m) @ t=0.74
3.120105192461108
% es.EY (V/m) @ t=0.74
0.12004803924519836
% es.EZ (V/m) @ t=0.74
-1.548577918983038
% es.tEX (V/m) @ t=0.74
3.120105192461102
% es.tEY (V/m) @ t=0.74
0
% es.tEZ (V/m) @ t=0.74
-1.5485779189830282
% es.Ex (V/m) @ t=0.74
3.120105192461108
% es.Ey (V/m) @ t=0.74
0.12004803924519836
% es.Ez (V/m) @ t=0.74
-1.548577918983038
% es.tEx (V/m) @ t=0.74
3.120105192461102
% es.tEy (V/m) @ t=0.74
0
% es.tEz (V/m) @ t=0.74
-1.5485779189830282
% V (V) @ t=0.74
0.015812993575995044
% es.normE (V/m) @ t=0.76
3.5159580327343223
% es.EX (V/m) @ t=0.76
3.1475190064165464
% es.EY (V/m) @ t=0.76
0.12110280106658661
% es.EZ (V/m) @ t=0.76
-1.5621840278843337
% es.tEX (V/m) @ t=0.76
3.1475190064165393
% es.tEY (V/m) @ t=0.76
0
% es.tEZ (V/m) @ t=0.76
-1.5621840278843138
% es.Ex (V/m) @ t=0.76
3.1475190064165464
% es.Ey (V/m) @ t=0.76
0.12110280106658661
% es.Ez (V/m) @ t=0.76
-1.5621840278843337
% es.tEx (V/m) @ t=0.76
3.1475190064165393
% es.tEy (V/m) @ t=0.76
0
% es.tEz (V/m) @ t=0.76
-1.5621840278843138
% V (V) @ t=0.76
0.01595193015180286
% es.normE (V/m) @ t=0.78
3.547193372372241
% es.EX (V/m) @ t=0.78
3.175481174687489
% es.EY (V/m) @ t=0.78
0.12217866217725026
% es.EZ (V/m) @ t=0.78
-1.5760622877756862
% es.tEX (V/m) @ t=0.78
3.175481174687471
% es.tEY (V/m) @ t=0.78
0
% es.tEZ (V/m) @ t=0.78
-1.5760622877756774
% es.Ex (V/m) @ t=0.78
3.175481174687489
% es.Ey (V/m) @ t=0.78
0.12217866217725026
% es.Ez (V/m) @ t=0.78
-1.5760622877756862
% es.tEx (V/m) @ t=0.78
3.175481174687471
% es.tEy (V/m) @ t=0.78
0
% es.tEz (V/m) @ t=0.78
-1.5760622877756774
% V (V) @ t=0.78
0.016093645503490017
% es.normE (V/m) @ t=0.8
3.58122298176215
% es.EX (V/m) @ t=0.8
3.2059448168816185
% es.EY (V/m) @ t=0.8
0.12335077368757602
% es.EZ (V/m) @ t=0.8
-1.5911820416894114
% es.tEX (V/m) @ t=0.8
3.205944816881612
% es.tEY (V/m) @ t=0.8
0
% es.tEZ (V/m) @ t=0.8
-1.5911820416894003
% es.Ex (V/m) @ t=0.8
3.2059448168816185
% es.Ey (V/m) @ t=0.8
0.12335077368757602
% es.Ez (V/m) @ t=0.8
-1.5911820416894114
% es.tEx (V/m) @ t=0.8
3.205944816881612
% es.tEy (V/m) @ t=0.8
0
% es.tEz (V/m) @ t=0.8
-1.5911820416894003
% V (V) @ t=0.8
0.016248037030422564
% es.normE (V/m) @ t=0.82
3.6152525911520783
% es.EX (V/m) @ t=0.82
3.2364084590757694
% es.EY (V/m) @ t=0.82
0.124522885197901
% es.EZ (V/m) @ t=0.82
-1.6063017956031362
% es.tEX (V/m) @ t=0.82
3.236408459075765
% es.tEY (V/m) @ t=0.82
0
% es.tEZ (V/m) @ t=0.82
-1.6063017956031302
% es.Ex (V/m) @ t=0.82
3.2364084590757694
% es.Ey (V/m) @ t=0.82
0.124522885197901
% es.Ez (V/m) @ t=0.82
-1.6063017956031362
% es.tEx (V/m) @ t=0.82
3.236408459075765
% es.tEy (V/m) @ t=0.82
0
% es.tEz (V/m) @ t=0.82
-1.6063017956031302
% V (V) @ t=0.82
0.016402428557355107
% es.normE (V/m) @ t=0.84
3.649282200541976
% es.EX (V/m) @ t=0.84
3.2668721012698922
% es.EY (V/m) @ t=0.84
0.12569499670823847
% es.EZ (V/m) @ t=0.84
-1.621421549516847
% es.tEX (V/m) @ t=0.84
3.266872101269893
% es.tEY (V/m) @ t=0.84
0
% es.tEZ (V/m) @ t=0.84
-1.6214215495168247
% es.Ex (V/m) @ t=0.84
3.2668721012698922
% es.Ey (V/m) @ t=0.84
0.12569499670823847
% es.Ez (V/m) @ t=0.84
-1.621421549516847
% es.tEx (V/m) @ t=0.84
3.266872101269893
% es.tEy (V/m) @ t=0.84
0
% es.tEz (V/m) @ t=0.84
-1.6214215495168247
% V (V) @ t=0.84
0.016556820084287657
% es.normE (V/m) @ t=0.86
3.6833118099319
% es.EX (V/m) @ t=0.86
3.297335743464036
% es.EY (V/m) @ t=0.86
0.12686710821858377
% es.EZ (V/m) @ t=0.86
-1.6365413034305756
% es.tEX (V/m) @ t=0.86
3.297335743464048
% es.tEY (V/m) @ t=0.86
0
% es.tEZ (V/m) @ t=0.86
-1.636541303430569
% es.Ex (V/m) @ t=0.86
3.297335743464036
% es.Ey (V/m) @ t=0.86
0.12686710821858377
% es.Ez (V/m) @ t=0.86
-1.6365413034305756
% es.tEx (V/m) @ t=0.86
3.297335743464048
% es.tEy (V/m) @ t=0.86
0
% es.tEz (V/m) @ t=0.86
-1.636541303430569
% V (V) @ t=0.86
0.016711211611220203
% es.normE (V/m) @ t=0.88
3.7173414193217984
% es.EX (V/m) @ t=0.88
3.327799385658167
% es.EY (V/m) @ t=0.88
0.12803921972889987
% es.EZ (V/m) @ t=0.88
-1.651661057344272
% es.tEX (V/m) @ t=0.88
3.327799385658162
% es.tEY (V/m) @ t=0.88
0
% es.tEZ (V/m) @ t=0.88
-1.6516610573442634
% es.Ex (V/m) @ t=0.88
3.327799385658167
% es.Ey (V/m) @ t=0.88
0.12803921972889987
% es.Ez (V/m) @ t=0.88
-1.651661057344272
% es.tEx (V/m) @ t=0.88
3.327799385658162
% es.tEy (V/m) @ t=0.88
0
% es.tEz (V/m) @ t=0.88
-1.6516610573442634
% V (V) @ t=0.88
0.01686560313815275
% es.normE (V/m) @ t=0.9
3.7513710287116986
% es.EX (V/m) @ t=0.9
3.3582630278522894
% es.EY (V/m) @ t=0.9
0.1292113312392133
% es.EZ (V/m) @ t=0.9
-1.6667808112579898
% es.tEX (V/m) @ t=0.9
3.3582630278522885
% es.tEY (V/m) @ t=0.9
0
% es.tEZ (V/m) @ t=0.9
-1.6667808112579792
% es.Ex (V/m) @ t=0.9
3.3582630278522894
% es.Ey (V/m) @ t=0.9
0.1292113312392133
% es.Ez (V/m) @ t=0.9
-1.6667808112579898
% es.tEx (V/m) @ t=0.9
3.3582630278522885
% es.tEy (V/m) @ t=0.9
0
% es.tEz (V/m) @ t=0.9
-1.6667808112579792
% V (V) @ t=0.9
0.017019994665085296
% es.normE (V/m) @ t=0.92
3.78540063810165
% es.EX (V/m) @ t=0.92
3.3887266700464616
% es.EY (V/m) @ t=0.92
0.13038344274952934
% es.EZ (V/m) @ t=0.92
-1.681900565171722
% es.tEX (V/m) @ t=0.92
3.3887266700464433
% es.tEY (V/m) @ t=0.92
0
% es.tEZ (V/m) @ t=0.92
-1.6819005651717092
% es.Ex (V/m) @ t=0.92
3.3887266700464616
% es.Ey (V/m) @ t=0.92
0.13038344274952934
% es.Ez (V/m) @ t=0.92
-1.681900565171722
% es.tEx (V/m) @ t=0.92
3.3887266700464433
% es.tEy (V/m) @ t=0.92
0
% es.tEz (V/m) @ t=0.92
-1.6819005651717092
% V (V) @ t=0.92
0.017174386192017842
% es.normE (V/m) @ t=0.94
3.8194302474915247
% es.EX (V/m) @ t=0.94
3.4191903122405702
% es.EY (V/m) @ t=0.94
0.1315555542598401
% es.EZ (V/m) @ t=0.94
-1.6970203190854116
% es.tEX (V/m) @ t=0.94
3.419190312240568
% es.tEY (V/m) @ t=0.94
0
% es.tEZ (V/m) @ t=0.94
-1.6970203190854036
% es.Ex (V/m) @ t=0.94
3.4191903122405702
% es.Ey (V/m) @ t=0.94
0.1315555542598401
% es.Ez (V/m) @ t=0.94
-1.6970203190854116
% es.tEx (V/m) @ t=0.94
3.419190312240568
% es.tEy (V/m) @ t=0.94
0
% es.tEz (V/m) @ t=0.94
-1.6970203190854036
% V (V) @ t=0.94
0.01732877771895039
% es.normE (V/m) @ t=0.96
3.853459856881437
% es.EX (V/m) @ t=0.96
3.4496539544347
% es.EY (V/m) @ t=0.96
0.13272766577019973
% es.EZ (V/m) @ t=0.96
-1.7121400729991365
% es.tEX (V/m) @ t=0.96
3.4496539544347105
% es.tEY (V/m) @ t=0.96
0
% es.tEZ (V/m) @ t=0.96
-1.7121400729991336
% es.Ex (V/m) @ t=0.96
3.4496539544347
% es.Ey (V/m) @ t=0.96
0.13272766577019973
% es.Ez (V/m) @ t=0.96
-1.7121400729991365
% es.tEx (V/m) @ t=0.96
3.4496539544347105
% es.tEy (V/m) @ t=0.96
0
% es.tEz (V/m) @ t=0.96
-1.7121400729991336
% V (V) @ t=0.96
0.017483169245882932
% es.normE (V/m) @ t=0.98
3.887489466271346
% es.EX (V/m) @ t=0.98
3.480117596628837
% es.EY (V/m) @ t=0.98
0.13389977728051577
% es.EZ (V/m) @ t=0.98
-1.7272598269128436
% es.tEX (V/m) @ t=0.98
3.480117596628837
% es.tEY (V/m) @ t=0.98
0
% es.tEZ (V/m) @ t=0.98
-1.727259826912828
% es.Ex (V/m) @ t=0.98
3.480117596628837
% es.Ey (V/m) @ t=0.98
0.13389977728051577
% es.Ez (V/m) @ t=0.98
-1.7272598269128436
% es.tEx (V/m) @ t=0.98
3.480117596628837
% es.tEy (V/m) @ t=0.98
0
% es.tEz (V/m) @ t=0.98
-1.727259826912828
% V (V) @ t=0.98
0.01763756077281548
% es.normE (V/m) @ t=1
3.921519075661249
% es.EX (V/m) @ t=1
3.5105812388229665
% es.EY (V/m) @ t=1
0.13507188879082477
% es.EZ (V/m) @ t=1
-1.742379580826551
% es.tEX (V/m) @ t=1
3.5105812388229634
% es.tEY (V/m) @ t=1
0
% es.tEZ (V/m) @ t=1
-1.7423795808265652
% es.Ex (V/m) @ t=1
3.5105812388229665
% es.Ey (V/m) @ t=1
0.13507188879082477
% es.Ez (V/m) @ t=1
-1.742379580826551
% es.tEx (V/m) @ t=1
3.5105812388229634
% es.tEy (V/m) @ t=1
0
% es.tEz (V/m) @ t=1
-1.7423795808265652
% V (V) @ t=1
0.017791952299748028
% es.normE (V/m) @ t=1.02
3.9555486850512
% es.EX (V/m) @ t=1.02
3.5410448810171253
% es.EY (V/m) @ t=1.02
0.13624400030118083
% es.EZ (V/m) @ t=1.02
-1.7574993347403043
% es.tEX (V/m) @ t=1.02
3.54104488101712
% es.tEY (V/m) @ t=1.02
0
% es.tEZ (V/m) @ t=1.02
-1.7574993347402739
% es.Ex (V/m) @ t=1.02
3.5410448810171253
% es.Ey (V/m) @ t=1.02
0.13624400030118083
% es.Ez (V/m) @ t=1.02
-1.7574993347403043
% es.tEx (V/m) @ t=1.02
3.54104488101712
% es.tEy (V/m) @ t=1.02
0
% es.tEz (V/m) @ t=1.02
-1.7574993347402739
% V (V) @ t=1.02
0.017946343826680575
% es.normE (V/m) @ t=1.04
3.9899673981408905
% es.EX (V/m) @ t=1.04
3.571856854531441
% es.EY (V/m) @ t=1.04
0.13742951461688202
% es.EZ (V/m) @ t=1.04
-1.7727919682167905
% es.tEX (V/m) @ t=1.04
3.5718568545314326
% es.tEY (V/m) @ t=1.04
0
% es.tEZ (V/m) @ t=1.04
-1.7727919682167794
% es.Ex (V/m) @ t=1.04
3.571856854531441