% Model:              1 neuron.mph
% Version:            COMSOL 6.1.0.252
% Date:               Mar 27 2023, 14:51
% Dimension:          0
% Nodes:              14017
% Expressions:        14017
% Description:        Electric field norm, Electric field, X component, Electric field, Y component, Electric field, Z component, Tangential electric field, X component, Tangential electric field, Y component, Tangential electric field, Z component, Electric field, x component, Electric field, y component, Electric field, z component, Tangential electric field, x component, Tangential electric field, y component, Tangential electric field, z component, Electric potential
% Length unit:        mm
% x
2
% y
12.199999999999998
% z
2
% es.normE (V/m) @ t=0
1.3339377824942393
% es.EX (V/m) @ t=0
-0.9549765282005616
% es.EY (V/m) @ t=0
0.36368818321314045
% es.EZ (V/m) @ t=0
-0.8521705904480283
% es.tEX (V/m) @ t=0
-0.9549765282005604
% es.tEY (V/m) @ t=0
0
% es.tEZ (V/m) @ t=0
-0.8521705904480203
% es.Ex (V/m) @ t=0
-0.9549765282005616
% es.Ey (V/m) @ t=0
0.36368818321314045
% es.Ez (V/m) @ t=0
-0.8521705904480283
% es.tEx (V/m) @ t=0
-0.9549765282005604
% es.tEy (V/m) @ t=0
0
% es.tEz (V/m) @ t=0
-0.8521705904480203
% V (V) @ t=0
0.013575227008373797
% es.normE (V/m) @ t=0.02
1.1521342973931417
% es.EX (V/m) @ t=0.02
-0.8248219862987949
% es.EY (V/m) @ t=0.02
0.31412081975159345
% es.EZ (V/m) @ t=0.02
-0.7360275548044113
% es.tEX (V/m) @ t=0.02
-0.8248219862987956
% es.tEY (V/m) @ t=0.02
0
% es.tEZ (V/m) @ t=0.02
-0.7360275548044122
% es.Ex (V/m) @ t=0.02
-0.8248219862987949
% es.Ey (V/m) @ t=0.02
0.31412081975159345
% es.Ez (V/m) @ t=0.02
-0.7360275548044113
% es.tEx (V/m) @ t=0.02
-0.8248219862987956
% es.tEy (V/m) @ t=0.02
0
% es.tEz (V/m) @ t=0.02
-0.7360275548044122
% V (V) @ t=0.02
0.011725048068834787
% es.normE (V/m) @ t=0.04
1.1627316904711504
% es.EX (V/m) @ t=0.04
-0.8324087431952181
% es.EY (V/m) @ t=0.04
0.31701012024240405
% es.EZ (V/m) @ t=0.04
-0.7427975755382059
% es.tEX (V/m) @ t=0.04
-0.8324087431952165
% es.tEY (V/m) @ t=0.04
0
% es.tEZ (V/m) @ t=0.04
-0.7427975755382121
% es.Ex (V/m) @ t=0.04
-0.8324087431952181
% es.Ey (V/m) @ t=0.04
0.31701012024240405
% es.Ez (V/m) @ t=0.04
-0.7427975755382059
% es.tEx (V/m) @ t=0.04
-0.8324087431952165
% es.tEy (V/m) @ t=0.04
0
% es.tEz (V/m) @ t=0.04
-0.7427975755382121
% V (V) @ t=0.04
0.011832895678066415
% es.normE (V/m) @ t=0.06
1.1734062991963687
% es.EX (V/m) @ t=0.06
-0.8400507793519887
% es.EY (V/m) @ t=0.06
0.3199204719272568
% es.EZ (V/m) @ t=0.06
-0.7496169252045943
% es.tEX (V/m) @ t=0.06
-0.8400507793519889
% es.tEY (V/m) @ t=0.06
0
% es.tEZ (V/m) @ t=0.06
-0.749616925204597
% es.Ex (V/m) @ t=0.06
-0.8400507793519887
% es.Ey (V/m) @ t=0.06
0.3199204719272568
% es.Ez (V/m) @ t=0.06
-0.7496169252045943
% es.tEx (V/m) @ t=0.06
-0.8400507793519889
% es.tEy (V/m) @ t=0.06
0
% es.tEz (V/m) @ t=0.06
-0.749616925204597
% V (V) @ t=0.06
0.011941529135146676
% es.normE (V/m) @ t=0.08
1.1842855521655102
% es.EX (V/m) @ t=0.08
-0.8478393219392413
% es.EY (V/m) @ t=0.08
0.32288661894094917
% es.EZ (V/m) @ t=0.08
-0.7565670091192311
% es.tEX (V/m) @ t=0.08
-0.8478393219392348
% es.tEY (V/m) @ t=0.08
0
% es.tEZ (V/m) @ t=0.08
-0.7565670091192391
% es.Ex (V/m) @ t=0.08
-0.8478393219392413
% es.Ey (V/m) @ t=0.08
0.32288661894094917
% es.Ez (V/m) @ t=0.08
-0.7565670091192311
% es.tEx (V/m) @ t=0.08
-0.8478393219392348
% es.tEy (V/m) @ t=0.08
0
% es.tEz (V/m) @ t=0.08
-0.7565670091192391
% V (V) @ t=0.08
0.012052245194949022
% es.normE (V/m) @ t=0.1
1.1952201560842335
% es.EX (V/m) @ t=0.1
-0.8556674907084603
% es.EY (V/m) @ t=0.1
0.32586785714104183
% es.EZ (V/m) @ t=0.1
-0.7635524532504316
% es.tEX (V/m) @ t=0.1
-0.8556674907084552
% es.tEY (V/m) @ t=0.1
0
% es.tEZ (V/m) @ t=0.1
-0.7635524532504352
% es.Ex (V/m) @ t=0.1
-0.8556674907084603
% es.Ey (V/m) @ t=0.1
0.32586785714104183
% es.Ez (V/m) @ t=0.1
-0.7635524532504316
% es.tEx (V/m) @ t=0.1
-0.8556674907084552
% es.tEy (V/m) @ t=0.1
0
% es.tEz (V/m) @ t=0.1
-0.7635524532504352
% V (V) @ t=0.1
0.01216352454466388
% es.normE (V/m) @ t=0.12
1.2061547600029432
% es.EX (V/m) @ t=0.12
-0.8634956594776602
% es.EY (V/m) @ t=0.12
0.32884909534112605
% es.EZ (V/m) @ t=0.12
-0.7705378973816348
% es.tEX (V/m) @ t=0.12
-0.8634956594776533
% es.tEY (V/m) @ t=0.12
0
% es.tEZ (V/m) @ t=0.12
-0.7705378973816384
% es.Ex (V/m) @ t=0.12
-0.8634956594776602
% es.Ey (V/m) @ t=0.12
0.32884909534112605
% es.Ez (V/m) @ t=0.12
-0.7705378973816348
% es.tEx (V/m) @ t=0.12
-0.8634956594776533
% es.tEy (V/m) @ t=0.12
0
% es.tEz (V/m) @ t=0.12
-0.7705378973816384
% V (V) @ t=0.12
0.012274803894378739
% es.normE (V/m) @ t=0.14
1.2174076309632085
% es.EX (V/m) @ t=0.14
-0.8715516780429735
% es.EY (V/m) @ t=0.14
0.33191710665412977
% es.EZ (V/m) @ t=0.14
-0.7777266627981838
% es.tEX (V/m) @ t=0.14
-0.8715516780429686
% es.tEY (V/m) @ t=0.14
0
% es.tEZ (V/m) @ t=0.14
-0.7777266627981891
% es.Ex (V/m) @ t=0.14
-0.8715516780429735
% es.Ey (V/m) @ t=0.14
0.33191710665412977
% es.Ez (V/m) @ t=0.14
-0.7777266627981838
% es.tEx (V/m) @ t=0.14
-0.8715516780429686
% es.tEy (V/m) @ t=0.14
0
% es.tEz (V/m) @ t=0.14
-0.7777266627981891
% V (V) @ t=0.14
0.012389322183254656
% es.normE (V/m) @ t=0.16
1.2288905187871948
% es.EX (V/m) @ t=0.16
-0.8797723674307452
% es.EY (V/m) @ t=0.16
0.3350478303333815
% es.EZ (V/m) @ t=0.16
-0.7850623718761547
% es.tEX (V/m) @ t=0.16
-0.8797723674307445
% es.tEY (V/m) @ t=0.16
0
% es.tEZ (V/m) @ t=0.16
-0.7850623718761636
% es.Ex (V/m) @ t=0.16
-0.8797723674307452
% es.Ey (V/m) @ t=0.16
0.3350478303333815
% es.Ez (V/m) @ t=0.16
-0.7850623718761547
% es.tEx (V/m) @ t=0.16
-0.8797723674307445
% es.tEy (V/m) @ t=0.16
0
% es.tEz (V/m) @ t=0.16
-0.7850623718761636
% V (V) @ t=0.16
0.012506181307122534
% es.normE (V/m) @ t=0.18
1.240373406611189
% es.EX (V/m) @ t=0.18
-0.8879930568185277
% es.EY (V/m) @ t=0.18
0.3381785540126314
% es.EZ (V/m) @ t=0.18
-0.7923980809541291
% es.tEX (V/m) @ t=0.18
-0.8879930568185235
% es.tEY (V/m) @ t=0.18
0
% es.tEZ (V/m) @ t=0.18
-0.792398080954138
% es.Ex (V/m) @ t=0.18
-0.8879930568185277
% es.Ey (V/m) @ t=0.18
0.3381785540126314
% es.Ez (V/m) @ t=0.18
-0.7923980809541291
% es.tEx (V/m) @ t=0.18
-0.8879930568185235
% es.tEy (V/m) @ t=0.18
0
% es.tEz (V/m) @ t=0.18
-0.792398080954138
% V (V) @ t=0.18
0.01262304043099041
% es.normE (V/m) @ t=0.2
1.251856294435178
% es.EX (V/m) @ t=0.2
-0.8962137462063031
% es.EY (V/m) @ t=0.2
0.3413092776918747
% es.EZ (V/m) @ t=0.2
-0.7997337900321053
% es.tEX (V/m) @ t=0.2
-0.8962137462062971
% es.tEY (V/m) @ t=0.2
0
% es.tEZ (V/m) @ t=0.2
-0.7997337900321071
% es.Ex (V/m) @ t=0.2
-0.8962137462063031
% es.Ey (V/m) @ t=0.2
0.3413092776918747
% es.Ez (V/m) @ t=0.2
-0.7997337900321053
% es.tEx (V/m) @ t=0.2
-0.8962137462062971
% es.tEy (V/m) @ t=0.2
0
% es.tEz (V/m) @ t=0.2
-0.7997337900321071
% V (V) @ t=0.2
0.012739899554858287
% es.normE (V/m) @ t=0.22
1.2633391822591644
% es.EX (V/m) @ t=0.22
-0.9044344355940965
% es.EY (V/m) @ t=0.22
0.3444400013711446
% es.EZ (V/m) @ t=0.22
-0.8070694991100451
% es.tEX (V/m) @ t=0.22
-0.9044344355940912
% es.tEY (V/m) @ t=0.22
0
% es.tEZ (V/m) @ t=0.22
-0.8070694991100549
% es.Ex (V/m) @ t=0.22
-0.9044344355940965
% es.Ey (V/m) @ t=0.22
0.3444400013711446
% es.Ez (V/m) @ t=0.22
-0.8070694991100451
% es.tEx (V/m) @ t=0.22
-0.9044344355940912
% es.tEy (V/m) @ t=0.22
0
% es.tEz (V/m) @ t=0.22
-0.8070694991100549
% V (V) @ t=0.22
0.012856758678726167
% es.normE (V/m) @ t=0.24
1.2748220700831467
% es.EX (V/m) @ t=0.24
-0.9126551249818593
% es.EY (V/m) @ t=0.24
0.3475707250503839
% es.EZ (V/m) @ t=0.24
-0.814405208188024
% es.tEX (V/m) @ t=0.24
-0.912655124981856
% es.tEY (V/m) @ t=0.24
0
% es.tEZ (V/m) @ t=0.24
-0.8144052081880222
% es.Ex (V/m) @ t=0.24
-0.9126551249818593
% es.Ey (V/m) @ t=0.24
0.3475707250503839
% es.Ez (V/m) @ t=0.24
-0.814405208188024
% es.tEx (V/m) @ t=0.24
-0.912655124981856
% es.tEy (V/m) @ t=0.24
0
% es.tEz (V/m) @ t=0.24
-0.8144052081880222
% V (V) @ t=0.24
0.012973617802594047
% es.normE (V/m) @ t=0.26
1.2865096877443563
% es.EX (V/m) @ t=0.26
-0.9210223820326682
% es.EY (V/m) @ t=0.26
0.3507572670439001
% es.EZ (V/m) @ t=0.26
-0.821871706434953
% es.tEX (V/m) @ t=0.26
-0.921022382032668
% es.tEY (V/m) @ t=0.26
0
% es.tEZ (V/m) @ t=0.26
-0.8218717064349512
% es.Ex (V/m) @ t=0.26
-0.9210223820326682
% es.Ey (V/m) @ t=0.26
0.3507572670439001
% es.Ez (V/m) @ t=0.26
-0.821871706434953
% es.tEx (V/m) @ t=0.26
-0.921022382032668
% es.tEy (V/m) @ t=0.26
0
% es.tEz (V/m) @ t=0.26
-0.8218717064349512
% V (V) @ t=0.26
0.013092560410457664
% es.normE (V/m) @ t=0.28
1.2992168896460918
% es.EX (V/m) @ t=0.28
-0.9301195672728837
% es.EY (V/m) @ t=0.28
0.35422179232660467
% es.EZ (V/m) @ t=0.28
-0.8299895536855848
% es.tEX (V/m) @ t=0.28
-0.9301195672728801
% es.tEY (V/m) @ t=0.28
0
% es.tEZ (V/m) @ t=0.28
-0.8299895536855946
% es.Ex (V/m) @ t=0.28
-0.9301195672728837
% es.Ey (V/m) @ t=0.28
0.35422179232660467
% es.Ez (V/m) @ t=0.28
-0.8299895536855848
% es.tEx (V/m) @ t=0.28
-0.9301195672728801
% es.tEy (V/m) @ t=0.28
0
% es.tEz (V/m) @ t=0.28
-0.8299895536855946
% V (V) @ t=0.28
0.013221879070372262
% es.normE (V/m) @ t=0.3
1.3119240915478227
% es.EX (V/m) @ t=0.3
-0.9392167525130943
% es.EY (V/m) @ t=0.3
0.35768631760927416
% es.EZ (V/m) @ t=0.3
-0.8381074009362308
% es.tEX (V/m) @ t=0.3
-0.9392167525130888
% es.tEY (V/m) @ t=0.3
0
% es.tEZ (V/m) @ t=0.3
-0.8381074009362308
% es.Ex (V/m) @ t=0.3
-0.9392167525130943
% es.Ey (V/m) @ t=0.3
0.35768631760927416
% es.Ez (V/m) @ t=0.3
-0.8381074009362308
% es.tEx (V/m) @ t=0.3
-0.9392167525130888
% es.tEy (V/m) @ t=0.3
0
% es.tEz (V/m) @ t=0.3
-0.8381074009362308
% V (V) @ t=0.3
0.013351197730286863
% es.normE (V/m) @ t=0.32
1.3246312934495452
% es.EX (V/m) @ t=0.32
-0.9483139377532888
% es.EY (V/m) @ t=0.32
0.36115084289196364
% es.EZ (V/m) @ t=0.32
-0.8462252481868733
% es.tEX (V/m) @ t=0.32
-0.9483139377532903
% es.tEY (V/m) @ t=0.32
0
% es.tEZ (V/m) @ t=0.32
-0.8462252481868813
% es.Ex (V/m) @ t=0.32
-0.9483139377532888
% es.Ey (V/m) @ t=0.32
0.36115084289196364
% es.Ez (V/m) @ t=0.32
-0.8462252481868733
% es.tEx (V/m) @ t=0.32
-0.9483139377532903
% es.tEy (V/m) @ t=0.32
0
% es.tEz (V/m) @ t=0.32
-0.8462252481868813
% V (V) @ t=0.32
0.013480516390201458
% es.normE (V/m) @ t=0.34
1.3373384953512717
% es.EX (V/m) @ t=0.34
-0.9574111229934972
% es.EY (V/m) @ t=0.34
0.3646153681746789
% es.EZ (V/m) @ t=0.34
-0.8543430954374944
% es.tEX (V/m) @ t=0.34
-0.9574111229934963
% es.tEY (V/m) @ t=0.34
0
% es.tEZ (V/m) @ t=0.34
-0.8543430954374962
% es.Ex (V/m) @ t=0.34
-0.9574111229934972
% es.Ey (V/m) @ t=0.34
0.3646153681746789
% es.Ez (V/m) @ t=0.34
-0.8543430954374944
% es.tEx (V/m) @ t=0.34
-0.9574111229934963
% es.tEy (V/m) @ t=0.34
0
% es.tEz (V/m) @ t=0.34
-0.8543430954374962
% V (V) @ t=0.34
0.013609835050116056
% es.normE (V/m) @ t=0.36
1.3500456972529986
% es.EX (V/m) @ t=0.36
-0.9665083082337056
% es.EY (V/m) @ t=0.36
0.36807989345736125
% es.EZ (V/m) @ t=0.36
-0.8624609426881307
% es.tEX (V/m) @ t=0.36
-0.9665083082337045
% es.tEY (V/m) @ t=0.36
0
% es.tEZ (V/m) @ t=0.36
-0.8624609426881396
% es.Ex (V/m) @ t=0.36
-0.9665083082337056
% es.Ey (V/m) @ t=0.36
0.36807989345736125
% es.Ez (V/m) @ t=0.36
-0.8624609426881307
% es.tEx (V/m) @ t=0.36
-0.9665083082337045
% es.tEy (V/m) @ t=0.36
0
% es.tEz (V/m) @ t=0.36
-0.8624609426881396
% V (V) @ t=0.36
0.013739153710030655
% es.normE (V/m) @ t=0.38
1.3627528991547304
% es.EX (V/m) @ t=0.38
-0.9756054934739014
% es.EY (V/m) @ t=0.38
0.37154441874006094
% es.EZ (V/m) @ t=0.38
-0.8705787899387838
% es.tEX (V/m) @ t=0.38
-0.9756054934739011
% es.tEY (V/m) @ t=0.38
0
% es.tEZ (V/m) @ t=0.38
-0.8705787899387882
% es.Ex (V/m) @ t=0.38
-0.9756054934739014
% es.Ey (V/m) @ t=0.38
0.37154441874006094
% es.Ez (V/m) @ t=0.38
-0.8705787899387838
% es.tEx (V/m) @ t=0.38
-0.9756054934739011
% es.tEy (V/m) @ t=0.38
0
% es.tEz (V/m) @ t=0.38
-0.8705787899387882
% V (V) @ t=0.38
0.01386847236994525
% es.normE (V/m) @ t=0.4
1.3754601010564658
% es.EX (V/m) @ t=0.4
-0.9847026787141206
% es.EY (V/m) @ t=0.4
0.3750089440227611
% es.EZ (V/m) @ t=0.4
-0.8786966371894103
% es.tEX (V/m) @ t=0.4
-0.9847026787141275
% es.tEY (V/m) @ t=0.4
0
% es.tEZ (V/m) @ t=0.4
-0.8786966371894174
% es.Ex (V/m) @ t=0.4
-0.9847026787141206
% es.Ey (V/m) @ t=0.4
0.3750089440227611
% es.Ez (V/m) @ t=0.4
-0.8786966371894103
% es.tEx (V/m) @ t=0.4
-0.9847026787141275
% es.tEy (V/m) @ t=0.4
0
% es.tEz (V/m) @ t=0.4
-0.8786966371894174
% V (V) @ t=0.4
0.01399779102985985
% es.normE (V/m) @ t=0.42
1.388167302958177
% es.EX (V/m) @ t=0.42
-0.9937998639543133
% es.EY (V/m) @ t=0.42
0.3784734693054346
% es.EZ (V/m) @ t=0.42
-0.8868144844400465
% es.tEX (V/m) @ t=0.42
-0.9937998639543157
% es.tEY (V/m) @ t=0.42
0
% es.tEZ (V/m) @ t=0.42
-0.8868144844400447
% es.Ex (V/m) @ t=0.42
-0.9937998639543133
% es.Ey (V/m) @ t=0.42
0.3784734693054346
% es.Ez (V/m) @ t=0.42
-0.8868144844400465
% es.tEx (V/m) @ t=0.42
-0.9937998639543157
% es.tEy (V/m) @ t=0.42
0
% es.tEz (V/m) @ t=0.42
-0.8868144844400447
% V (V) @ t=0.42
0.014127109689774443
% es.normE (V/m) @ t=0.44
1.4008745048599118
% es.EX (V/m) @ t=0.44
-1.0028970491945273
% es.EY (V/m) @ t=0.44
0.38193799458814404
% es.EZ (V/m) @ t=0.44
-0.8949323316906774
% es.tEX (V/m) @ t=0.44
-1.002897049194528
% es.tEY (V/m) @ t=0.44
0
% es.tEZ (V/m) @ t=0.44
-0.8949323316906828
% es.Ex (V/m) @ t=0.44
-1.0028970491945273
% es.Ey (V/m) @ t=0.44
0.38193799458814404
% es.Ez (V/m) @ t=0.44
-0.8949323316906774
% es.tEx (V/m) @ t=0.44
-1.002897049194528
% es.tEy (V/m) @ t=0.44
0
% es.tEz (V/m) @ t=0.44
-0.8949323316906828
% V (V) @ t=0.44
0.014256428349689041
% es.normE (V/m) @ t=0.46
1.4135817067616447
% es.EX (V/m) @ t=0.46
-1.011994234434736
% es.EY (V/m) @ t=0.46
0.3854025198708406
% es.EZ (V/m) @ t=0.46
-0.9030501789413172
% es.tEX (V/m) @ t=0.46
-1.0119942344347366
% es.tEY (V/m) @ t=0.46
0
% es.tEZ (V/m) @ t=0.46
-0.903050178941319
% es.Ex (V/m) @ t=0.46
-1.011994234434736
% es.Ey (V/m) @ t=0.46
0.3854025198708406
% es.Ez (V/m) @ t=0.46
-0.9030501789413172
% es.tEx (V/m) @ t=0.46
-1.0119942344347366
% es.tEy (V/m) @ t=0.46
0
% es.tEz (V/m) @ t=0.46
-0.903050178941319
% V (V) @ t=0.46
0.014385747009603638
% es.normE (V/m) @ t=0.48
1.4262889086633754
% es.EX (V/m) @ t=0.48
-1.0210914196749374
% es.EY (V/m) @ t=0.48
0.38886704515352566
% es.EZ (V/m) @ t=0.48
-0.9111680261919632
% es.tEX (V/m) @ t=0.48
-1.021091419674931
% es.tEY (V/m) @ t=0.48
0
% es.tEZ (V/m) @ t=0.48
-0.9111680261919695
% es.Ex (V/m) @ t=0.48
-1.0210914196749374
% es.Ey (V/m) @ t=0.48
0.38886704515352566
% es.Ez (V/m) @ t=0.48
-0.9111680261919632
% es.tEx (V/m) @ t=0.48
-1.021091419674931
% es.tEy (V/m) @ t=0.48
0
% es.tEz (V/m) @ t=0.48
-0.9111680261919695
% V (V) @ t=0.48
0.014515065669518238
% es.normE (V/m) @ t=0.5
1.4389961105650946
% es.EX (V/m) @ t=0.5
-1.0301886049151385
% es.EY (V/m) @ t=0.5
0.39233157043622935
% es.EZ (V/m) @ t=0.5
-0.9192858734425879
% es.tEX (V/m) @ t=0.5
-1.030188604915132
% es.tEY (V/m) @ t=0.5
0
% es.tEZ (V/m) @ t=0.5
-0.9192858734426039
% es.Ex (V/m) @ t=0.5
-1.0301886049151385
% es.Ey (V/m) @ t=0.5
0.39233157043622935
% es.Ez (V/m) @ t=0.5
-0.9192858734425879
% es.tEx (V/m) @ t=0.5
-1.030188604915132
% es.tEy (V/m) @ t=0.5
0
% es.tEz (V/m) @ t=0.5
-0.9192858734426039
% V (V) @ t=0.5
0.014644384329432833
% es.normE (V/m) @ t=0.52
1.452172478083686
% es.EX (V/m) @ t=0.52
-1.0396216696324896
% es.EY (V/m) @ t=0.52
0.3959240098215684
% es.EZ (V/m) @ t=0.52
-0.9277034417475907
% es.tEX (V/m) @ t=0.52
-1.039621669632485
% es.tEY (V/m) @ t=0.52
0
% es.tEZ (V/m) @ t=0.52
-0.9277034417475871
% es.Ex (V/m) @ t=0.52
-1.0396216696324896
% es.Ey (V/m) @ t=0.52
0.3959240098215684
% es.Ez (V/m) @ t=0.52
-0.9277034417475907
% es.tEx (V/m) @ t=0.52
-1.039621669632485
% es.tEy (V/m) @ t=0.52
0
% es.tEz (V/m) @ t=0.52
-0.9277034417475871
% V (V) @ t=0.52
0.014778477619747146
% es.normE (V/m) @ t=0.54
1.46625673156767
% es.EX (V/m) @ t=0.54
-1.0497046972891504
% es.EY (V/m) @ t=0.54
0.3997639767630967
% es.EZ (V/m) @ t=0.54
-0.9367010025520566
% es.tEX (V/m) @ t=0.54
-1.049704697289152
% es.tEY (V/m) @ t=0.54
0
% es.tEZ (V/m) @ t=0.54
-0.9367010025520575
% es.Ex (V/m) @ t=0.54
-1.0497046972891504
% es.Ey (V/m) @ t=0.54
0.3997639767630967
% es.Ez (V/m) @ t=0.54
-0.9367010025520566
% es.tEx (V/m) @ t=0.54
-1.049704697289152
% es.tEy (V/m) @ t=0.54
0
% es.tEz (V/m) @ t=0.54
-0.9367010025520575
% V (V) @ t=0.54
0.014921810333783371
% es.normE (V/m) @ t=0.56
1.480340985051655
% es.EX (V/m) @ t=0.56
-1.059787724945816
% es.EY (V/m) @ t=0.56
0.4036039437046095
% es.EZ (V/m) @ t=0.56
-0.9456985633565242
% es.tEX (V/m) @ t=0.56
-1.0597877249458185
% es.tEY (V/m) @ t=0.56
0
% es.tEZ (V/m) @ t=0.56
-0.945698563356526
% es.Ex (V/m) @ t=0.56
-1.059787724945816
% es.Ey (V/m) @ t=0.56
0.4036039437046095
% es.Ez (V/m) @ t=0.56
-0.9456985633565242
% es.tEx (V/m) @ t=0.56
-1.0597877249458185
% es.tEy (V/m) @ t=0.56
0
% es.tEz (V/m) @ t=0.56
-0.945698563356526
% V (V) @ t=0.56
0.015065143047819599
% es.normE (V/m) @ t=0.58
1.4944252385356358
% es.EX (V/m) @ t=0.58
-1.0698707526024933
% es.EY (V/m) @ t=0.58
0.40744391064612673
% es.EZ (V/m) @ t=0.58
-0.9546961241609697
% es.tEX (V/m) @ t=0.58
-1.0698707526024887
% es.tEY (V/m) @ t=0.58
0
% es.tEZ (V/m) @ t=0.58
-0.9546961241609679
% es.Ex (V/m) @ t=0.58
-1.0698707526024933
% es.Ey (V/m) @ t=0.58
0.40744391064612673
% es.Ez (V/m) @ t=0.58
-0.9546961241609697
% es.tEx (V/m) @ t=0.58
-1.0698707526024887
% es.tEy (V/m) @ t=0.58
0
% es.tEz (V/m) @ t=0.58
-0.9546961241609679
% V (V) @ t=0.58
0.015208475761855828
% es.normE (V/m) @ t=0.6
1.5085094920196145
% es.EX (V/m) @ t=0.6
-1.079953780259147
% es.EY (V/m) @ t=0.6
0.4112838775876644
% es.EZ (V/m) @ t=0.6
-0.9636936849654312
% es.tEX (V/m) @ t=0.6
-1.079953780259145
% es.tEY (V/m) @ t=0.6
0
% es.tEZ (V/m) @ t=0.6
-0.9636936849654241
% es.Ex (V/m) @ t=0.6
-1.079953780259147
% es.Ey (V/m) @ t=0.6
0.4112838775876644
% es.Ez (V/m) @ t=0.6
-0.9636936849654312
% es.tEx (V/m) @ t=0.6
-1.079953780259145
% es.tEy (V/m) @ t=0.6
0
% es.tEz (V/m) @ t=0.6
-0.9636936849654241
% V (V) @ t=0.6
0.01535180847589205
% es.normE (V/m) @ t=0.62
1.522593745503611
% es.EX (V/m) @ t=0.62
-1.0900368079158198
% es.EY (V/m) @ t=0.62
0.4151238445291865
% es.EZ (V/m) @ t=0.62
-0.9726912457699033
% es.tEX (V/m) @ t=0.62
-1.0900368079158214
% es.tEY (V/m) @ t=0.62
0
% es.tEZ (V/m) @ t=0.62
-0.9726912457699068
% es.Ex (V/m) @ t=0.62
-1.0900368079158198
% es.Ey (V/m) @ t=0.62
0.4151238445291865
% es.Ez (V/m) @ t=0.62
-0.9726912457699033
% es.tEx (V/m) @ t=0.62
-1.0900368079158214
% es.tEy (V/m) @ t=0.62
0
% es.tEz (V/m) @ t=0.62
-0.9726912457699068
% V (V) @ t=0.62
0.01549514118992828
% es.normE (V/m) @ t=0.64
1.5366779989875883
% es.EX (V/m) @ t=0.64
-1.1001198355724868
% es.EY (V/m) @ t=0.64
0.4189638114707033
% es.EZ (V/m) @ t=0.64
-0.9816888065743559
% es.tEX (V/m) @ t=0.64
-1.100119835572484
% es.tEY (V/m) @ t=0.64
0
% es.tEZ (V/m) @ t=0.64
-0.9816888065743541
% es.Ex (V/m) @ t=0.64
-1.1001198355724868
% es.Ey (V/m) @ t=0.64
0.4189638114707033
% es.Ez (V/m) @ t=0.64
-0.9816888065743559
% es.tEx (V/m) @ t=0.64
-1.100119835572484
% es.tEy (V/m) @ t=0.64
0
% es.tEz (V/m) @ t=0.64
-0.9816888065743541
% V (V) @ t=0.64
0.015638473903964504
% es.normE (V/m) @ t=0.66
1.5507622524715785
% es.EX (V/m) @ t=0.66
-1.1102028632291498
% es.EY (V/m) @ t=0.66
0.42280377841220895
% es.EZ (V/m) @ t=0.66
-0.9906863673788369
% es.tEX (V/m) @ t=0.66
-1.110202863229147
% es.tEY (V/m) @ t=0.66
0
% es.tEZ (V/m) @ t=0.66
-0.9906863673788315
% es.Ex (V/m) @ t=0.66
-1.1102028632291498
% es.Ey (V/m) @ t=0.66
0.42280377841220895
% es.Ez (V/m) @ t=0.66
-0.9906863673788369
% es.tEx (V/m) @ t=0.66
-1.110202863229147
% es.tEy (V/m) @ t=0.66
0
% es.tEz (V/m) @ t=0.66
-0.9906863673788315
% V (V) @ t=0.66
0.015781806618000736
% es.normE (V/m) @ t=0.68
1.5648465059555516
% es.EX (V/m) @ t=0.68
-1.1202858908858226
% es.EY (V/m) @ t=0.68
0.42664374535373284
% es.EZ (V/m) @ t=0.68
-0.9996839281832761
% es.tEX (V/m) @ t=0.68
-1.1202858908858242
% es.tEY (V/m) @ t=0.68
0
% es.tEZ (V/m) @ t=0.68
-0.9996839281832841
% es.Ex (V/m) @ t=0.68
-1.1202858908858226
% es.Ey (V/m) @ t=0.68
0.42664374535373284
% es.Ez (V/m) @ t=0.68
-0.9996839281832761
% es.tEx (V/m) @ t=0.68
-1.1202858908858242
% es.tEy (V/m) @ t=0.68
0
% es.tEz (V/m) @ t=0.68
-0.9996839281832841
% V (V) @ t=0.68
0.015925139332036962
% es.normE (V/m) @ t=0.7
1.5789307594395217
% es.EX (V/m) @ t=0.7
-1.1303689185424675
% es.EY (V/m) @ t=0.7
0.4304837122952794
% es.EZ (V/m) @ t=0.7
-1.0086814889877278
% es.tEX (V/m) @ t=0.7
-1.13036891854247
% es.tEY (V/m) @ t=0.7
0
% es.tEZ (V/m) @ t=0.7
-1.008681488987735
% es.Ex (V/m) @ t=0.7
-1.1303689185424675
% es.Ey (V/m) @ t=0.7
0.4304837122952794
% es.Ez (V/m) @ t=0.7
-1.0086814889877278
% es.tEx (V/m) @ t=0.7
-1.13036891854247
% es.tEy (V/m) @ t=0.7
0
% es.tEz (V/m) @ t=0.7
-1.008681488987735
% V (V) @ t=0.7
0.016068472046073187
% es.normE (V/m) @ t=0.72
1.5930150129235323
% es.EX (V/m) @ t=0.72
-1.1404519461991534
% es.EY (V/m) @ t=0.72
0.43432367923679527
% es.EZ (V/m) @ t=0.72
-1.0176790497922124
% es.tEX (V/m) @ t=0.72
-1.1404519461991511
% es.tEY (V/m) @ t=0.72
0
% es.tEZ (V/m) @ t=0.72
-1.0176790497922052
% es.Ex (V/m) @ t=0.72
-1.1404519461991534
% es.Ey (V/m) @ t=0.72
0.43432367923679527
% es.Ez (V/m) @ t=0.72
-1.0176790497922124
% es.tEx (V/m) @ t=0.72
-1.1404519461991511
% es.tEy (V/m) @ t=0.72
0
% es.tEz (V/m) @ t=0.72
-1.0176790497922052
% V (V) @ t=0.72
0.016211804760109413
% es.normE (V/m) @ t=0.74
1.6070992664075106
% es.EX (V/m) @ t=0.74
-1.1505349738558117
% es.EY (V/m) @ t=0.74
0.4381636461783054
% es.EZ (V/m) @ t=0.74
-1.0266766105966774
% es.tEX (V/m) @ t=0.74
-1.1505349738558124
% es.tEY (V/m) @ t=0.74
0
% es.tEZ (V/m) @ t=0.74
-1.026676610596672
% es.Ex (V/m) @ t=0.74
-1.1505349738558117
% es.Ey (V/m) @ t=0.74
0.4381636461783054
% es.Ez (V/m) @ t=0.74
-1.0266766105966774
% es.tEx (V/m) @ t=0.74
-1.1505349738558124
% es.tEy (V/m) @ t=0.74
0
% es.tEz (V/m) @ t=0.74
-1.026676610596672
% V (V) @ t=0.74
0.01635513747414564
% es.normE (V/m) @ t=0.76
1.6211835198914941
% es.EX (V/m) @ t=0.76
-1.1606180015124925
% es.EY (V/m) @ t=0.76
0.44200361311983727
% es.EZ (V/m) @ t=0.76
-1.0356741714011166
% es.tEX (V/m) @ t=0.76
-1.16061800151249
% es.tEY (V/m) @ t=0.76
0
% es.tEZ (V/m) @ t=0.76
-1.0356741714011282
% es.Ex (V/m) @ t=0.76
-1.1606180015124925
% es.Ey (V/m) @ t=0.76
0.44200361311983727
% es.Ez (V/m) @ t=0.76
-1.0356741714011166
% es.tEx (V/m) @ t=0.76
-1.16061800151249
% es.tEy (V/m) @ t=0.76
0
% es.tEz (V/m) @ t=0.76
-1.0356741714011282
% V (V) @ t=0.76
0.016498470188181867
% es.normE (V/m) @ t=0.78
1.63606545580165
% es.EX (V/m) @ t=0.78
-1.1712720963036765
% es.EY (V/m) @ t=0.78
0.44606106223464614
% es.EZ (V/m) @ t=0.78
-1.0451813222831152
% es.tEX (V/m) @ t=0.78
-1.1712720963036722
% es.tEY (V/m) @ t=0.78
0
% es.tEZ (V/m) @ t=0.78
-1.0451813222831134
% es.Ex (V/m) @ t=0.78
-1.1712720963036765
% es.Ey (V/m) @ t=0.78
0.44606106223464614
% es.Ez (V/m) @ t=0.78
-1.0451813222831152
% es.tEx (V/m) @ t=0.78
-1.1712720963036722
% es.tEy (V/m) @ t=0.78
0
% es.tEz (V/m) @ t=0.78
-1.0451813222831134
% V (V) @ t=0.78
0.01664992076264168
% es.normE (V/m) @ t=0.8
1.6517010592777204
% es.EX (V/m) @ t=0.8
-1.182465747644126
% es.EY (V/m) @ t=0.8
0.450323993198932
% es.EZ (V/m) @ t=0.8
-1.055169944864491
% es.tEX (V/m) @ t=0.8
-1.1824657476441276
% es.tEY (V/m) @ t=0.8
0
% es.tEZ (V/m) @ t=0.8
-1.0551699448644865
% es.Ex (V/m) @ t=0.8
-1.182465747644126
% es.Ey (V/m) @ t=0.8
0.450323993198932
% es.Ez (V/m) @ t=0.8
-1.055169944864491
% es.tEx (V/m) @ t=0.8
-1.1824657476441276
% es.tEy (V/m) @ t=0.8
0
% es.tEz (V/m) @ t=0.8
-1.0551699448644865
% V (V) @ t=0.8
0.016809041266769423
% es.normE (V/m) @ t=0.82
1.6673366627538142
% es.EX (V/m) @ t=0.82
-1.1936593989845814
% es.EY (V/m) @ t=0.82
0.4545869241631628
% es.EZ (V/m) @ t=0.82
-1.0651585674459243
% es.tEX (V/m) @ t=0.82
-1.1936593989845785
% es.tEY (V/m) @ t=0.82
0
% es.tEZ (V/m) @ t=0.82
-1.0651585674459376
% es.Ex (V/m) @ t=0.82
-1.1936593989845814
% es.Ey (V/m) @ t=0.82
0.4545869241631628
% es.Ez (V/m) @ t=0.82
-1.0651585674459243
% es.tEx (V/m) @ t=0.82
-1.1936593989845785
% es.tEy (V/m) @ t=0.82
0
% es.tEz (V/m) @ t=0.82
-1.0651585674459376
% V (V) @ t=0.82
0.016968161770897168
% es.normE (V/m) @ t=0.84
1.682972266229897
% es.EX (V/m) @ t=0.84
-1.2048530503250288
% es.EY (V/m) @ t=0.84
0.4588498551274296
% es.EZ (V/m) @ t=0.84
-1.0751471900273293
% es.tEX (V/m) @ t=0.84
-1.2048530503250312
% es.tEY (V/m) @ t=0.84
0
% es.tEZ (V/m) @ t=0.84
-1.0751471900273373
% es.Ex (V/m) @ t=0.84
-1.2048530503250288
% es.Ey (V/m) @ t=0.84
0.4588498551274296
% es.Ez (V/m) @ t=0.84
-1.0751471900273293
% es.tEx (V/m) @ t=0.84
-1.2048530503250312
% es.tEy (V/m) @ t=0.84
0
% es.tEz (V/m) @ t=0.84
-1.0751471900273373
% V (V) @ t=0.84
0.017127282275024917
% es.normE (V/m) @ t=0.86
1.6986078697059854
% es.EX (V/m) @ t=0.86
-1.2160467016654655
% es.EY (V/m) @ t=0.86
0.4631127860916786
% es.EZ (V/m) @ t=0.86
-1.085135812608768
% es.tEX (V/m) @ t=0.86
-1.216046701665467
% es.tEY (V/m) @ t=0.86
0
% es.tEZ (V/m) @ t=0.86
-1.0851358126087653
% es.Ex (V/m) @ t=0.86
-1.2160467016654655
% es.Ey (V/m) @ t=0.86
0.4631127860916786
% es.Ez (V/m) @ t=0.86
-1.085135812608768
% es.tEx (V/m) @ t=0.86
-1.216046701665467
% es.tEy (V/m) @ t=0.86
0
% es.tEz (V/m) @ t=0.86
-1.0851358126087653
% V (V) @ t=0.86
0.01728640277915266
% es.normE (V/m) @ t=0.88
1.71424347318206
% es.EX (V/m) @ t=0.88
-1.227240353005935
% es.EY (V/m) @ t=0.88
0.4673757170559467
% es.EZ (V/m) @ t=0.88
-1.0951244351901375
% es.tEX (V/m) @ t=0.88
-1.2272403530059286
% es.tEY (V/m) @ t=0.88
0
% es.tEZ (V/m) @ t=0.88
-1.0951244351901455
% es.Ex (V/m) @ t=0.88
-1.227240353005935
% es.Ey (V/m) @ t=0.88
0.4673757170559467
% es.Ez (V/m) @ t=0.88
-1.0951244351901375
% es.tEx (V/m) @ t=0.88
-1.2272403530059286
% es.tEy (V/m) @ t=0.88
0
% es.tEz (V/m) @ t=0.88
-1.0951244351901455
% V (V) @ t=0.88
0.017445523283280404
% es.normE (V/m) @ t=0.9
1.729879076658154
% es.EX (V/m) @ t=0.9
-1.2384340043463815
% es.EY (V/m) @ t=0.9
0.4716386480202006
% es.EZ (V/m) @ t=0.9
-1.1051130577715664
% es.tEX (V/m) @ t=0.9
-1.238434004346379
% es.tEY (V/m) @ t=0.9
0
% es.tEZ (V/m) @ t=0.9
-1.1051130577715753
% es.Ex (V/m) @ t=0.9
-1.2384340043463815
% es.Ey (V/m) @ t=0.9
0.4716386480202006
% es.Ez (V/m) @ t=0.9
-1.1051130577715664
% es.tEx (V/m) @ t=0.9
-1.238434004346379
% es.tEy (V/m) @ t=0.9
0
% es.tEz (V/m) @ t=0.9
-1.1051130577715753
% V (V) @ t=0.9
0.01760464378740815
% es.normE (V/m) @ t=0.92
1.745514680134239
% es.EX (V/m) @ t=0.92
-1.24962765568682
% es.EY (V/m) @ t=0.92
0.47590157898446206
% es.EZ (V/m) @ t=0.92
-1.11510168035299
% es.tEX (V/m) @ t=0.92
-1.2496276556868215
% es.tEY (V/m) @ t=0.92
0
% es.tEZ (V/m) @ t=0.92
-1.1151016803529892
% es.Ex (V/m) @ t=0.92
-1.24962765568682
% es.Ey (V/m) @ t=0.92
0.47590157898446206
% es.Ez (V/m) @ t=0.92
-1.11510168035299
% es.tEx (V/m) @ t=0.92
-1.2496276556868215
% es.tEy (V/m) @ t=0.92
0
% es.tEz (V/m) @ t=0.92
-1.1151016803529892
% V (V) @ t=0.92
0.017763764291535894
% es.normE (V/m) @ t=0.94
1.7611502836103368
% es.EX (V/m) @ t=0.94
-1.260821307027287
% es.EY (V/m) @ t=0.94
0.48016450994872173
% es.EZ (V/m) @ t=0.94
-1.125090302934403
% es.tEX (V/m) @ t=0.94
-1.2608213070272893
% es.tEY (V/m) @ t=0.94
0
% es.tEZ (V/m) @ t=0.94
-1.125090302934396
% es.Ex (V/m) @ t=0.94
-1.260821307027287
% es.Ey (V/m) @ t=0.94
0.48016450994872173
% es.Ez (V/m) @ t=0.94
-1.125090302934403
% es.tEx (V/m) @ t=0.94
-1.2608213070272893
% es.tEy (V/m) @ t=0.94
0
% es.tEz (V/m) @ t=0.94
-1.125090302934396
% V (V) @ t=0.94
0.01792288479566364
% es.normE (V/m) @ t=0.96
1.7767858870864148
% es.EX (V/m) @ t=0.96
-1.2720149583677351
% es.EY (V/m) @ t=0.96
0.48442744091298984
% es.EZ (V/m) @ t=0.96
-1.1350789255158
% es.tEX (V/m) @ t=0.96
-1.2720149583677318
% es.tEY (V/m) @ t=0.96
0
% es.tEZ (V/m) @ t=0.96
-1.1350789255158116
% es.Ex (V/m) @ t=0.96
-1.2720149583677351
% es.Ey (V/m) @ t=0.96
0.48442744091298984
% es.Ez (V/m) @ t=0.96
-1.1350789255158
% es.tEx (V/m) @ t=0.96
-1.2720149583677318
% es.tEy (V/m) @ t=0.96
0
% es.tEz (V/m) @ t=0.96
-1.1350789255158116
% V (V) @ t=0.96
0.018082005299791384
% es.normE (V/m) @ t=0.98
1.7924214905624756
% es.EX (V/m) @ t=0.98
-1.2832086097081745
% es.EY (V/m) @ t=0.98
0.4886903718772153
% es.EZ (V/m) @ t=0.98
-1.1450675480971988
% es.tEX (V/m) @ t=0.98
-1.283208609708173
% es.tEY (V/m) @ t=0.98
0
% es.tEZ (V/m) @ t=0.98
-1.145067548097206
% es.Ex (V/m) @ t=0.98
-1.2832086097081745
% es.Ey (V/m) @ t=0.98
0.4886903718772153
% es.Ez (V/m) @ t=0.98
-1.1450675480971988
% es.tEx (V/m) @ t=0.98
-1.283208609708173
% es.tEy (V/m) @ t=0.98
0
% es.tEz (V/m) @ t=0.98
-1.145067548097206
% V (V) @ t=0.98
0.01824112580391913
% es.normE (V/m) @ t=1
1.8080570940385874
% es.EX (V/m) @ t=1
-1.2944022610486468
% es.EY (V/m) @ t=1
0.4929533028414981
% es.EZ (V/m) @ t=1
-1.155056170678618
% es.tEX (V/m) @ t=1
-1.2944022610486443
% es.tEY (V/m) @ t=1
0
% es.tEZ (V/m) @ t=1
-1.1550561706786056
% es.Ex (V/m) @ t=1
-1.2944022610486468
% es.Ey (V/m) @ t=1
0.4929533028414981
% es.Ez (V/m) @ t=1
-1.155056170678618
% es.tEx (V/m) @ t=1
-1.2944022610486443
% es.tEy (V/m) @ t=1
0
% es.tEz (V/m) @ t=1
-1.1550561706786056
% V (V) @ t=1
0.018400246308046875
% es.normE (V/m) @ t=1.02
1.8236926975146726
% es.EX (V/m) @ t=1.02
-1.3055959123890895
% es.EY (V/m) @ t=1.02
0.4972162338057573
% es.EZ (V/m) @ t=1.02
-1.1650447932600372
% es.tEX (V/m) @ t=1.02
-1.3055959123890837
% es.tEY (V/m) @ t=1.02
0
% es.tEZ (V/m) @ t=1.02
-1.1650447932600425
% es.Ex (V/m) @ t=1.02
-1.3055959123890895
% es.Ey (V/m) @ t=1.02
0.4972162338057573
% es.Ez (V/m) @ t=1.02
-1.1650447932600372
% es.tEx (V/m) @ t=1.02
-1.3055959123890837
% es.tEy (V/m) @ t=1.02
0
% es.tEz (V/m) @ t=1.02
-1.1650447932600425
% V (V) @ t=1.02
0.018559366812174623
% es.normE (V/m) @ t=1.04
1.8398463282086315