% Model:              1 neuron.mph
% Version:            COMSOL 6.1.0.252
% Date:               Mar 27 2023, 14:33
% Dimension:          0
% Nodes:              14017
% Expressions:        14017
% Description:        Electric field norm, Electric field, X component, Electric field, Y component, Electric field, Z component, Tangential electric field, X component, Tangential electric field, Y component, Tangential electric field, Z component, Electric field, x component, Electric field, y component, Electric field, z component, Tangential electric field, x component, Tangential electric field, y component, Tangential electric field, z component, Electric potential
% Length unit:        mm
% x
1.66
% y
12.200000000000001
% z
1.66
% es.normE (V/m) @ t=0
36.90416937603396
% es.EX (V/m) @ t=0
-17.428273080627946
% es.EY (V/m) @ t=0
13.982870093667948
% es.EZ (V/m) @ t=0
16.762030879771075
% es.tEX (V/m) @ t=0
-17.428273080627946
% es.tEY (V/m) @ t=0
0
% es.tEZ (V/m) @ t=0
16.76203087977109
% es.Ex (V/m) @ t=0
-17.428273080627946
% es.Ey (V/m) @ t=0
13.982870093667948
% es.Ez (V/m) @ t=0
16.762030879771075
% es.tEx (V/m) @ t=0
-17.428273080627946
% es.tEy (V/m) @ t=0
0
% es.tEz (V/m) @ t=0
16.76203087977109
% V (V) @ t=0
0.011582214276873254
% es.normE (V/m) @ t=0.02
31.874480545849416
% es.EX (V/m) @ t=0.02
-15.052964501737137
% es.EY (V/m) @ t=0.02
12.077137310428043
% es.EZ (V/m) @ t=0.02
14.477524785334133
% es.tEX (V/m) @ t=0.02
-15.05296450173715
% es.tEY (V/m) @ t=0.02
0
% es.tEZ (V/m) @ t=0.02
14.47752478533414
% es.Ex (V/m) @ t=0.02
-15.052964501737137
% es.Ey (V/m) @ t=0.02
12.077137310428043
% es.Ez (V/m) @ t=0.02
14.477524785334133
% es.tEx (V/m) @ t=0.02
-15.05296450173715
% es.tEy (V/m) @ t=0.02
0
% es.tEz (V/m) @ t=0.02
14.47752478533414
% V (V) @ t=0.02
0.010003668147146464
% es.normE (V/m) @ t=0.04
32.16767055572331
% es.EX (V/m) @ t=0.04
-15.191425715570503
% es.EY (V/m) @ t=0.04
12.18822605900474
% es.EZ (V/m) @ t=0.04
14.610692920342292
% es.tEX (V/m) @ t=0.04
-15.19142571557051
% es.tEY (V/m) @ t=0.04
0
% es.tEZ (V/m) @ t=0.04
14.610692920342302
% es.Ex (V/m) @ t=0.04
-15.191425715570503
% es.Ey (V/m) @ t=0.04
12.18822605900474
% es.Ez (V/m) @ t=0.04
14.610692920342292
% es.tEx (V/m) @ t=0.04
-15.19142571557051
% es.tEy (V/m) @ t=0.04
0
% es.tEz (V/m) @ t=0.04
14.610692920342302
% V (V) @ t=0.04
0.010095684567990398
% es.normE (V/m) @ t=0.06
32.46306215949054
% es.EX (V/m) @ t=0.06
-15.33092660685542
% es.EY (V/m) @ t=0.06
12.300148970817332
% es.EZ (V/m) @ t=0.06
14.744861075066297
% es.tEX (V/m) @ t=0.06
-15.330926606855442
% es.tEY (V/m) @ t=0.06
0
% es.tEZ (V/m) @ t=0.06
14.744861075066325
% es.Ex (V/m) @ t=0.06
-15.33092660685542
% es.Ey (V/m) @ t=0.06
12.300148970817332
% es.Ez (V/m) @ t=0.06
14.744861075066297
% es.tEx (V/m) @ t=0.06
-15.330926606855442
% es.tEy (V/m) @ t=0.06
0
% es.tEz (V/m) @ t=0.06
14.744861075066325
% V (V) @ t=0.06
0.010188391944737227
% es.normE (V/m) @ t=0.08
32.76397443350376
% es.EX (V/m) @ t=0.08
-15.473034699398276
% es.EY (V/m) @ t=0.08
12.414163654082678
% es.EZ (V/m) @ t=0.08
14.881536716346965
% es.tEX (V/m) @ t=0.08
-15.473034699398262
% es.tEY (V/m) @ t=0.08
0
% es.tEZ (V/m) @ t=0.08
14.881536716346972
% es.Ex (V/m) @ t=0.08
-15.473034699398276
% es.Ey (V/m) @ t=0.08
12.414163654082678
% es.Ez (V/m) @ t=0.08
14.881536716346965
% es.tEx (V/m) @ t=0.08
-15.473034699398262
% es.tEy (V/m) @ t=0.08
0
% es.tEz (V/m) @ t=0.08
14.881536716346972
% V (V) @ t=0.08
0.010282831962642304
% es.normE (V/m) @ t=0.1
33.06661141201907
% es.EX (V/m) @ t=0.1
-15.615957303865741
% es.EY (V/m) @ t=0.1
12.52883182460242
% es.EZ (V/m) @ t=0.1
15.018995717828489
% es.tEX (V/m) @ t=0.1
-15.615957303865748
% es.tEY (V/m) @ t=0.1
0
% es.tEZ (V/m) @ t=0.1
15.018995717828489
% es.Ex (V/m) @ t=0.1
-15.615957303865741
% es.Ey (V/m) @ t=0.1
12.52883182460242
% es.Ez (V/m) @ t=0.1
15.018995717828489
% es.tEx (V/m) @ t=0.1
-15.615957303865748
% es.tEy (V/m) @ t=0.1
0
% es.tEz (V/m) @ t=0.1
15.018995717828489
% V (V) @ t=0.1
0.010377813272432831
% es.normE (V/m) @ t=0.12
33.369248390534395
% es.EX (V/m) @ t=0.12
-15.758879908333228
% es.EY (V/m) @ t=0.12
12.64349999512224
% es.EZ (V/m) @ t=0.12
15.156454719310062
% es.tEX (V/m) @ t=0.12
-15.75887990833317
% es.tEY (V/m) @ t=0.12
0
% es.tEZ (V/m) @ t=0.12
15.156454719310062
% es.Ex (V/m) @ t=0.12
-15.758879908333228
% es.Ey (V/m) @ t=0.12
12.64349999512224
% es.Ez (V/m) @ t=0.12
15.156454719310062
% es.tEx (V/m) @ t=0.12
-15.75887990833317
% es.tEy (V/m) @ t=0.12
0
% es.tEz (V/m) @ t=0.12
15.156454719310062
% V (V) @ t=0.12
0.01047279458222336
% es.normE (V/m) @ t=0.14
33.68003785073371
% es.EX (V/m) @ t=0.14
-15.905652583980668
% es.EY (V/m) @ t=0.14
12.761257114423735
% es.EZ (V/m) @ t=0.14
15.297616612850135
% es.tEX (V/m) @ t=0.14
-15.905652583980654
% es.tEY (V/m) @ t=0.14
0
% es.tEZ (V/m) @ t=0.14
15.297616612850135
% es.Ex (V/m) @ t=0.14
-15.905652583980668
% es.Ey (V/m) @ t=0.14
12.761257114423735
% es.Ez (V/m) @ t=0.14
15.297616612850135
% es.tEx (V/m) @ t=0.14
-15.905652583980654
% es.tEy (V/m) @ t=0.14
0
% es.tEz (V/m) @ t=0.14
15.297616612850135
% V (V) @ t=0.14
0.010570334513119574
% es.normE (V/m) @ t=0.16
33.99795955368816
% es.EX (V/m) @ t=0.16
-16.055793515251906
% es.EY (V/m) @ t=0.16
12.88171661729681
% es.EZ (V/m) @ t=0.16
15.442018001562488
% es.tEX (V/m) @ t=0.16
-16.055793515251914
% es.tEY (V/m) @ t=0.16
0
% es.tEZ (V/m) @ t=0.16
15.44201800156253
% es.Ex (V/m) @ t=0.16
-16.055793515251906
% es.Ey (V/m) @ t=0.16
12.88171661729681
% es.Ez (V/m) @ t=0.16
15.442018001562488
% es.tEx (V/m) @ t=0.16
-16.055793515251914
% es.tEy (V/m) @ t=0.16
0
% es.tEz (V/m) @ t=0.16
15.44201800156253
% V (V) @ t=0.16
0.010670112867547678
% es.normE (V/m) @ t=0.18
34.31588125664266
% es.EX (V/m) @ t=0.18
-16.205934446523145
% es.EY (V/m) @ t=0.18
13.002176120169871
% es.EZ (V/m) @ t=0.18
15.586419390274884
% es.tEX (V/m) @ t=0.18
-16.205934446523145
% es.tEY (V/m) @ t=0.18
0
% es.tEZ (V/m) @ t=0.18
15.58641939027487
% es.Ex (V/m) @ t=0.18
-16.205934446523145
% es.Ey (V/m) @ t=0.18
13.002176120169871
% es.Ez (V/m) @ t=0.18
15.586419390274884
% es.tEx (V/m) @ t=0.18
-16.205934446523145
% es.tEy (V/m) @ t=0.18
0
% es.tEz (V/m) @ t=0.18
15.58641939027487
% V (V) @ t=0.18
0.010769891221975782
% es.normE (V/m) @ t=0.2
34.63380295959727
% es.EX (V/m) @ t=0.2
-16.356075377794525
% es.EY (V/m) @ t=0.2
13.122635623042875
% es.EZ (V/m) @ t=0.2
15.730820778987322
% es.tEX (V/m) @ t=0.2
-16.35607537779449
% es.tEY (V/m) @ t=0.2
0
% es.tEZ (V/m) @ t=0.2
15.730820778987322
% es.Ex (V/m) @ t=0.2
-16.356075377794525
% es.Ey (V/m) @ t=0.2
13.122635623042875
% es.Ez (V/m) @ t=0.2
15.730820778987322
% es.tEx (V/m) @ t=0.2
-16.35607537779449
% es.tEy (V/m) @ t=0.2
0
% es.tEz (V/m) @ t=0.2
15.730820778987322
% V (V) @ t=0.2
0.010869669576403885
% es.normE (V/m) @ t=0.22
34.951724662551726
% es.EX (V/m) @ t=0.22
-16.506216309065763
% es.EY (V/m) @ t=0.22
13.243095125915936
% es.EZ (V/m) @ t=0.22
15.875222167699683
% es.tEX (V/m) @ t=0.22
-16.506216309065728
% es.tEY (V/m) @ t=0.22
0
% es.tEZ (V/m) @ t=0.22
15.875222167699746
% es.Ex (V/m) @ t=0.22
-16.506216309065763
% es.Ey (V/m) @ t=0.22
13.243095125915936
% es.Ez (V/m) @ t=0.22
15.875222167699683
% es.tEx (V/m) @ t=0.22
-16.506216309065728
% es.tEy (V/m) @ t=0.22
0
% es.tEz (V/m) @ t=0.22
15.875222167699746
% V (V) @ t=0.22
0.010969447930831988
% es.normE (V/m) @ t=0.24
35.269646365506205
% es.EX (V/m) @ t=0.24
-16.65635724033703
% es.EY (V/m) @ t=0.24
13.36355462878901
% es.EZ (V/m) @ t=0.24
16.019623556412093
% es.tEX (V/m) @ t=0.24
-16.656357240337016
% es.tEY (V/m) @ t=0.24
0
% es.tEZ (V/m) @ t=0.24
16.019623556412057
% es.Ex (V/m) @ t=0.24
-16.65635724033703
% es.Ey (V/m) @ t=0.24
13.36355462878901
% es.Ez (V/m) @ t=0.24
16.019623556412093
% es.tEx (V/m) @ t=0.24
-16.656357240337016
% es.tEy (V/m) @ t=0.24
0
% es.tEz (V/m) @ t=0.24
16.019623556412057
% V (V) @ t=0.24
0.011069226285260091
% es.normE (V/m) @ t=0.26
35.59017118718972
% es.EX (V/m) @ t=0.26
-16.80772751062507
% es.EY (V/m) @ t=0.26
13.485000443955428
% es.EZ (V/m) @ t=0.26
16.165207296101542
% es.tEX (V/m) @ t=0.26
-16.8077275106251
% es.tEY (V/m) @ t=0.26
0
% es.tEZ (V/m) @ t=0.26
16.165207296101528
% es.Ex (V/m) @ t=0.26
-16.80772751062507
% es.Ey (V/m) @ t=0.26
13.485000443955428
% es.Ez (V/m) @ t=0.26
16.165207296101542
% es.tEx (V/m) @ t=0.26
-16.8077275106251
% es.tEy (V/m) @ t=0.26
0
% es.tEz (V/m) @ t=0.26
16.165207296101528
% V (V) @ t=0.26
0.011169821617123802
% es.normE (V/m) @ t=0.28
35.9422511169687
% es.EX (V/m) @ t=0.28
-16.973999877052137
% es.EY (V/m) @ t=0.28
13.618402375716386
% es.EZ (V/m) @ t=0.28
16.32512354105532
% es.tEX (V/m) @ t=0.28
-16.973999877052144
% es.tEY (V/m) @ t=0.28
0
% es.tEZ (V/m) @ t=0.28
16.32512354105529
% es.Ex (V/m) @ t=0.28
-16.973999877052137
% es.Ey (V/m) @ t=0.28
13.618402375716386
% es.Ez (V/m) @ t=0.28
16.32512354105532
% es.tEx (V/m) @ t=0.28
-16.973999877052144
% es.tEy (V/m) @ t=0.28
0
% es.tEz (V/m) @ t=0.28
16.32512354105529
% V (V) @ t=0.28
0.011280320381745276
% es.normE (V/m) @ t=0.3
36.29433104674762
% es.EX (V/m) @ t=0.3
-17.14027224347913
% es.EY (V/m) @ t=0.3
13.751804307477407
% es.EZ (V/m) @ t=0.3
16.48503978600909
% es.tEX (V/m) @ t=0.3
-17.140272243479153
% es.tEY (V/m) @ t=0.3
0
% es.tEZ (V/m) @ t=0.3
16.485039786009054
% es.Ex (V/m) @ t=0.3
-17.14027224347913
% es.Ey (V/m) @ t=0.3
13.751804307477407
% es.Ez (V/m) @ t=0.3
16.48503978600909
% es.tEx (V/m) @ t=0.3
-17.140272243479153
% es.tEy (V/m) @ t=0.3
0
% es.tEz (V/m) @ t=0.3
16.485039786009054
% V (V) @ t=0.3
0.011390819146366747
% es.normE (V/m) @ t=0.32
36.646410976526724
% es.EX (V/m) @ t=0.32
-17.306544609906226
% es.EY (V/m) @ t=0.32
13.885206239238386
% es.EZ (V/m) @ t=0.32
16.644956030962945
% es.tEX (V/m) @ t=0.32
-17.306544609906197
% es.tEY (V/m) @ t=0.32
0
% es.tEZ (V/m) @ t=0.32
16.64495603096293
% es.Ex (V/m) @ t=0.32
-17.306544609906226
% es.Ey (V/m) @ t=0.32
13.885206239238386
% es.Ez (V/m) @ t=0.32
16.644956030962945
% es.tEx (V/m) @ t=0.32
-17.306544609906197
% es.tEy (V/m) @ t=0.32
0
% es.tEz (V/m) @ t=0.32
16.64495603096293
% V (V) @ t=0.32
0.01150131791098822
% es.normE (V/m) @ t=0.34
36.99849090630566
% es.EX (V/m) @ t=0.34
-17.47281697633329
% es.EY (V/m) @ t=0.34
14.018608170999308
% es.EZ (V/m) @ t=0.34
16.804872275916686
% es.tEX (V/m) @ t=0.34
-17.472816976333228
% es.tEY (V/m) @ t=0.34
0
% es.tEZ (V/m) @ t=0.34
16.804872275916694
% es.Ex (V/m) @ t=0.34
-17.47281697633329
% es.Ey (V/m) @ t=0.34
14.018608170999308
% es.Ez (V/m) @ t=0.34
16.804872275916686
% es.tEx (V/m) @ t=0.34
-17.472816976333228
% es.tEy (V/m) @ t=0.34
0
% es.tEz (V/m) @ t=0.34
16.804872275916694
% V (V) @ t=0.34
0.011611816675609695
% es.normE (V/m) @ t=0.36
37.35057083608461
% es.EX (V/m) @ t=0.36
-17.639089342760315
% es.EY (V/m) @ t=0.36
14.152010102760293
% es.EZ (V/m) @ t=0.36
16.964788520870414
% es.tEX (V/m) @ t=0.36
-17.63908934276032
% es.tEY (V/m) @ t=0.36
0
% es.tEZ (V/m) @ t=0.36
16.9647885208704
% es.Ex (V/m) @ t=0.36
-17.639089342760315
% es.Ey (V/m) @ t=0.36
14.152010102760293
% es.Ez (V/m) @ t=0.36
16.964788520870414
% es.tEx (V/m) @ t=0.36
-17.63908934276032
% es.tEy (V/m) @ t=0.36
0
% es.tEz (V/m) @ t=0.36
16.9647885208704
% V (V) @ t=0.36
0.011722315440231168
% es.normE (V/m) @ t=0.38
37.70265076586361
% es.EX (V/m) @ t=0.38
-17.805361709187352
% es.EY (V/m) @ t=0.38
14.285412034521308
% es.EZ (V/m) @ t=0.38
17.124704765824262
% es.tEX (V/m) @ t=0.38
-17.805361709187345
% es.tEY (V/m) @ t=0.38
0
% es.tEZ (V/m) @ t=0.38
17.124704765824276
% es.Ex (V/m) @ t=0.38
-17.805361709187352
% es.Ey (V/m) @ t=0.38
14.285412034521308
% es.Ez (V/m) @ t=0.38
17.124704765824262
% es.tEx (V/m) @ t=0.38
-17.805361709187345
% es.tEy (V/m) @ t=0.38
0
% es.tEz (V/m) @ t=0.38
17.124704765824276
% V (V) @ t=0.38
0.011832814204852642
% es.normE (V/m) @ t=0.4
38.05473069564263
% es.EX (V/m) @ t=0.4
-17.971634075614446
% es.EY (V/m) @ t=0.4
14.418813966282258
% es.EZ (V/m) @ t=0.4
17.284621010778068
% es.tEX (V/m) @ t=0.4
-17.971634075614432
% es.tEY (V/m) @ t=0.4
0
% es.tEZ (V/m) @ t=0.4
17.284621010778096
% es.Ex (V/m) @ t=0.4
-17.971634075614446
% es.Ey (V/m) @ t=0.4
14.418813966282258
% es.Ez (V/m) @ t=0.4
17.284621010778068
% es.tEx (V/m) @ t=0.4
-17.971634075614432
% es.tEy (V/m) @ t=0.4
0
% es.tEz (V/m) @ t=0.4
17.284621010778096
% V (V) @ t=0.4
0.011943312969474115
% es.normE (V/m) @ t=0.42
38.40681062542163
% es.EX (V/m) @ t=0.42
-18.137906442041455
% es.EY (V/m) @ t=0.42
14.552215898043244
% es.EZ (V/m) @ t=0.42
17.44453725573186
% es.tEX (V/m) @ t=0.42
-18.137906442041455
% es.tEY (V/m) @ t=0.42
0
% es.tEZ (V/m) @ t=0.42
17.44453725573186
% es.Ex (V/m) @ t=0.42
-18.137906442041455
% es.Ey (V/m) @ t=0.42
14.552215898043244
% es.Ez (V/m) @ t=0.42
17.44453725573186
% es.tEx (V/m) @ t=0.42
-18.137906442041455
% es.tEy (V/m) @ t=0.42
0
% es.tEz (V/m) @ t=0.42
17.44453725573186
% V (V) @ t=0.42
0.012053811734095587
% es.normE (V/m) @ t=0.44
38.75889055520055
% es.EX (V/m) @ t=0.44
-18.304178808468464
% es.EY (V/m) @ t=0.44
14.685617829804222
% es.EZ (V/m) @ t=0.44
17.604453500685644
% es.tEX (V/m) @ t=0.44
-18.304178808468478
% es.tEY (V/m) @ t=0.44
0
% es.tEZ (V/m) @ t=0.44
17.60445350068568
% es.Ex (V/m) @ t=0.44
-18.304178808468464
% es.Ey (V/m) @ t=0.44
14.685617829804222
% es.Ez (V/m) @ t=0.44
17.604453500685644
% es.tEx (V/m) @ t=0.44
-18.304178808468478
% es.tEy (V/m) @ t=0.44
0
% es.tEz (V/m) @ t=0.44
17.60445350068568
% V (V) @ t=0.44
0.012164310498717058
% es.normE (V/m) @ t=0.46
39.11097048497963
% es.EX (V/m) @ t=0.46
-18.470451174895558
% es.EY (V/m) @ t=0.46
14.819019761565208
% es.EZ (V/m) @ t=0.46
17.76436974563947
% es.tEX (V/m) @ t=0.46
-18.47045117489553
% es.tEY (V/m) @ t=0.46
0
% es.tEZ (V/m) @ t=0.46
17.7643697456395
% es.Ex (V/m) @ t=0.46
-18.470451174895558
% es.Ey (V/m) @ t=0.46
14.819019761565208
% es.Ez (V/m) @ t=0.46
17.76436974563947
% es.tEx (V/m) @ t=0.46
-18.47045117489553
% es.tEy (V/m) @ t=0.46
0
% es.tEz (V/m) @ t=0.46
17.7643697456395
% V (V) @ t=0.46
0.012274809263338533
% es.normE (V/m) @ t=0.48
39.463050414758555
% es.EX (V/m) @ t=0.48
-18.63672354132261
% es.EY (V/m) @ t=0.48
14.952421693326123
% es.EZ (V/m) @ t=0.48
17.924285990593226
% es.tEX (V/m) @ t=0.48
-18.63672354132254
% es.tEY (V/m) @ t=0.48
0
% es.tEZ (V/m) @ t=0.48
17.924285990593205
% es.Ex (V/m) @ t=0.48
-18.63672354132261
% es.Ey (V/m) @ t=0.48
14.952421693326123
% es.Ez (V/m) @ t=0.48
17.924285990593226
% es.tEx (V/m) @ t=0.48
-18.63672354132254
% es.tEy (V/m) @ t=0.48
0
% es.tEz (V/m) @ t=0.48
17.924285990593205
% V (V) @ t=0.48
0.012385308027960007
% es.normE (V/m) @ t=0.5
39.81513034453756
% es.EX (V/m) @ t=0.5
-18.802995907749633
% es.EY (V/m) @ t=0.5
15.085823625087116
% es.EZ (V/m) @ t=0.5
18.08420223554704
% es.tEX (V/m) @ t=0.5
-18.80299590774969
% es.tEY (V/m) @ t=0.5
0
% es.tEZ (V/m) @ t=0.5
18.084202235547025
% es.Ex (V/m) @ t=0.5
-18.802995907749633
% es.Ey (V/m) @ t=0.5
15.085823625087116
% es.Ez (V/m) @ t=0.5
18.08420223554704
% es.tEx (V/m) @ t=0.5
-18.80299590774969
% es.tEy (V/m) @ t=0.5
0
% es.tEz (V/m) @ t=0.5
18.084202235547025
% V (V) @ t=0.5
0.012495806792581478
% es.normE (V/m) @ t=0.52
40.173434970089616
% es.EX (V/m) @ t=0.52
-18.972207939163596
% es.EY (V/m) @ t=0.52
15.221584075332082
% es.EZ (V/m) @ t=0.52
18.24694575874178
% es.tEX (V/m) @ t=0.52
-18.97220793916358
% es.tEY (V/m) @ t=0.52
0
% es.tEZ (V/m) @ t=0.52
18.24694575874173
% es.Ex (V/m) @ t=0.52
-18.972207939163596
% es.Ey (V/m) @ t=0.52
15.221584075332082
% es.Ez (V/m) @ t=0.52
18.24694575874178
% es.tEx (V/m) @ t=0.52
-18.97220793916358
% es.tEy (V/m) @ t=0.52
0
% es.tEz (V/m) @ t=0.52
18.24694575874173
% V (V) @ t=0.52
0.012608259151284688
% es.normE (V/m) @ t=0.54
40.56396883944676
% es.EX (V/m) @ t=0.54
-19.156640502314843
% es.EY (V/m) @ t=0.54
15.369556089002913
% es.EZ (V/m) @ t=0.54
18.424327915382364
% es.tEX (V/m) @ t=0.54
-19.156640502314865
% es.tEY (V/m) @ t=0.54
0
% es.tEZ (V/m) @ t=0.54
18.424327915382435
% es.Ex (V/m) @ t=0.54
-19.156640502314843
% es.Ey (V/m) @ t=0.54
15.369556089002913
% es.Ez (V/m) @ t=0.54
18.424327915382364
% es.tEx (V/m) @ t=0.54
-19.156640502314865
% es.tEy (V/m) @ t=0.54
0
% es.tEz (V/m) @ t=0.54
18.424327915382435
% V (V) @ t=0.54
0.012730826519982174
% es.normE (V/m) @ t=0.56
40.95450270880387
% es.EX (V/m) @ t=0.56
-19.341073065466134
% es.EY (V/m) @ t=0.56
15.517528102673694
% es.EZ (V/m) @ t=0.56
18.60171007202294
% es.tEX (V/m) @ t=0.56
-19.341073065466105
% es.tEY (V/m) @ t=0.56
0
% es.tEZ (V/m) @ t=0.56
18.601710072022968
% es.Ex (V/m) @ t=0.56
-19.341073065466134
% es.Ey (V/m) @ t=0.56
15.517528102673694
% es.Ez (V/m) @ t=0.56
18.60171007202294
% es.tEx (V/m) @ t=0.56
-19.341073065466105
% es.tEy (V/m) @ t=0.56
0
% es.tEz (V/m) @ t=0.56
18.601710072022968
% V (V) @ t=0.56
0.012853393888679662
% es.normE (V/m) @ t=0.58
41.34503657816092
% es.EX (V/m) @ t=0.58
-19.52550562861731
% es.EY (V/m) @ t=0.58
15.66550011634444
% es.EZ (V/m) @ t=0.58
18.779092228663373
% es.tEX (V/m) @ t=0.58
-19.525505628617303
% es.tEY (V/m) @ t=0.58
0
% es.tEZ (V/m) @ t=0.58
18.779092228663387
% es.Ex (V/m) @ t=0.58
-19.52550562861731
% es.Ey (V/m) @ t=0.58
15.66550011634444
% es.Ez (V/m) @ t=0.58
18.779092228663373
% es.tEx (V/m) @ t=0.58
-19.525505628617303
% es.tEy (V/m) @ t=0.58
0
% es.tEz (V/m) @ t=0.58
18.779092228663387
% V (V) @ t=0.58
0.012975961257377152
% es.normE (V/m) @ t=0.6
41.73557044751808
% es.EX (V/m) @ t=0.6
-19.709938191768615
% es.EY (V/m) @ t=0.6
15.813472130015256
% es.EZ (V/m) @ t=0.6
18.956474385303913
% es.tEX (V/m) @ t=0.6
-19.7099381917686
% es.tEY (V/m) @ t=0.6
0
% es.tEZ (V/m) @ t=0.6
18.95647438530392
% es.Ex (V/m) @ t=0.6
-19.709938191768615
% es.Ey (V/m) @ t=0.6
15.813472130015256
% es.Ez (V/m) @ t=0.6
18.956474385303913
% es.tEx (V/m) @ t=0.6
-19.7099381917686
% es.tEy (V/m) @ t=0.6
0
% es.tEz (V/m) @ t=0.6
18.95647438530392
% V (V) @ t=0.6
0.013098528626074638
% es.normE (V/m) @ t=0.62
42.12610431687514
% es.EX (V/m) @ t=0.62
-19.894370754919848
% es.EY (V/m) @ t=0.62
15.96144414368603
% es.EZ (V/m) @ t=0.62
19.13385654194446
% es.tEX (V/m) @ t=0.62
-19.894370754919827
% es.tEY (V/m) @ t=0.62
0
% es.tEZ (V/m) @ t=0.62
19.13385654194451
% es.Ex (V/m) @ t=0.62
-19.894370754919848
% es.Ey (V/m) @ t=0.62
15.96144414368603
% es.Ez (V/m) @ t=0.62
19.13385654194446
% es.tEx (V/m) @ t=0.62
-19.894370754919827
% es.tEy (V/m) @ t=0.62
0
% es.tEz (V/m) @ t=0.62
19.13385654194451
% V (V) @ t=0.62
0.01322109599477213
% es.normE (V/m) @ t=0.64
42.516638186232186
% es.EX (V/m) @ t=0.64
-20.078803318071024
% es.EY (V/m) @ t=0.64
16.10941615735682
% es.EZ (V/m) @ t=0.64
19.31123869858493
% es.tEX (V/m) @ t=0.64
-20.07880331807098
% es.tEY (V/m) @ t=0.64
0
% es.tEZ (V/m) @ t=0.64
19.31123869858493
% es.Ex (V/m) @ t=0.64
-20.078803318071024
% es.Ey (V/m) @ t=0.64
16.10941615735682
% es.Ez (V/m) @ t=0.64
19.31123869858493
% es.tEx (V/m) @ t=0.64
-20.07880331807098
% es.tEy (V/m) @ t=0.64
0
% es.tEz (V/m) @ t=0.64
19.31123869858493
% V (V) @ t=0.64
0.013343663363469616
% es.normE (V/m) @ t=0.66
42.90717205558935
% es.EX (V/m) @ t=0.66
-20.26323588122237
% es.EY (V/m) @ t=0.66
16.257388171027593
% es.EZ (V/m) @ t=0.66
19.488620855225527
% es.tEX (V/m) @ t=0.66
-20.263235881222364
% es.tEY (V/m) @ t=0.66
0
% es.tEZ (V/m) @ t=0.66
19.488620855225463
% es.Ex (V/m) @ t=0.66
-20.26323588122237
% es.Ey (V/m) @ t=0.66
16.257388171027593
% es.Ez (V/m) @ t=0.66
19.488620855225527
% es.tEx (V/m) @ t=0.66
-20.263235881222364
% es.tEy (V/m) @ t=0.66
0
% es.tEz (V/m) @ t=0.66
19.488620855225463
% V (V) @ t=0.66
0.013466230732167107
% es.normE (V/m) @ t=0.68
43.29770592494653
% es.EX (V/m) @ t=0.68
-20.447668444373605
% es.EY (V/m) @ t=0.68
16.405360184698374
% es.EZ (V/m) @ t=0.68
19.666003011866067
% es.tEX (V/m) @ t=0.68
-20.447668444373576
% es.tEY (V/m) @ t=0.68
0
% es.tEZ (V/m) @ t=0.68
19.666003011866053
% es.Ex (V/m) @ t=0.68
-20.447668444373605
% es.Ey (V/m) @ t=0.68
16.405360184698374
% es.Ez (V/m) @ t=0.68
19.666003011866067
% es.tEx (V/m) @ t=0.68
-20.447668444373576
% es.tEy (V/m) @ t=0.68
0
% es.tEz (V/m) @ t=0.68
19.666003011866053
% V (V) @ t=0.68
0.013588798100864592
% es.normE (V/m) @ t=0.7
43.68823979430357
% es.EX (V/m) @ t=0.7
-20.632101007524795
% es.EY (V/m) @ t=0.7
16.55333219836926
% es.EZ (V/m) @ t=0.7
19.843385168506536
% es.tEX (V/m) @ t=0.7
-20.632101007524774
% es.tEY (V/m) @ t=0.7
0
% es.tEZ (V/m) @ t=0.7
19.843385168506643
% es.Ex (V/m) @ t=0.7
-20.632101007524795
% es.Ey (V/m) @ t=0.7
16.55333219836926
% es.Ez (V/m) @ t=0.7
19.843385168506536
% es.tEx (V/m) @ t=0.7
-20.632101007524774
% es.tEy (V/m) @ t=0.7
0
% es.tEz (V/m) @ t=0.7
19.843385168506643
% V (V) @ t=0.7
0.013711365469562082
% es.normE (V/m) @ t=0.72
44.07877366366054
% es.EX (V/m) @ t=0.72
-20.816533570676043
% es.EY (V/m) @ t=0.72
16.70130421203993
% es.EZ (V/m) @ t=0.72
20.020767325147027
% es.tEX (V/m) @ t=0.72
-20.816533570676043
% es.tEY (V/m) @ t=0.72
0
% es.tEZ (V/m) @ t=0.72
20.020767325147006
% es.Ex (V/m) @ t=0.72
-20.816533570676043
% es.Ey (V/m) @ t=0.72
16.70130421203993
% es.Ez (V/m) @ t=0.72
20.020767325147027
% es.tEx (V/m) @ t=0.72
-20.816533570676043
% es.tEy (V/m) @ t=0.72
0
% es.tEz (V/m) @ t=0.72
20.020767325147006
% V (V) @ t=0.72
0.013833932838259568
% es.normE (V/m) @ t=0.74
44.469307533017634
% es.EX (V/m) @ t=0.74
-21.000966133827305
% es.EY (V/m) @ t=0.74
16.849276225710703
% es.EZ (V/m) @ t=0.74
20.19814948178751
% es.tEX (V/m) @ t=0.74
-21.00096613382734
% es.tEY (V/m) @ t=0.74
0
% es.tEZ (V/m) @ t=0.74
20.198149481787482
% es.Ex (V/m) @ t=0.74
-21.000966133827305
% es.Ey (V/m) @ t=0.74
16.849276225710703
% es.Ez (V/m) @ t=0.74
20.19814948178751
% es.tEx (V/m) @ t=0.74
-21.00096613382734
% es.tEy (V/m) @ t=0.74
0
% es.tEz (V/m) @ t=0.74
20.198149481787482
% V (V) @ t=0.74
0.01395650020695706
% es.normE (V/m) @ t=0.76
44.85984140237472
% es.EX (V/m) @ t=0.76
-21.18539869697848
% es.EY (V/m) @ t=0.76
16.9972482393815
% es.EZ (V/m) @ t=0.76
20.375531638428
% es.tEX (V/m) @ t=0.76
-21.185398696978467
% es.tEY (V/m) @ t=0.76
0
% es.tEZ (V/m) @ t=0.76
20.375531638428015
% es.Ex (V/m) @ t=0.76
-21.18539869697848
% es.Ey (V/m) @ t=0.76
16.9972482393815
% es.Ez (V/m) @ t=0.76
20.375531638428
% es.tEx (V/m) @ t=0.76
-21.185398696978467
% es.tEy (V/m) @ t=0.76
0
% es.tEz (V/m) @ t=0.76
20.375531638428015
% V (V) @ t=0.76
0.014079067575654546
% es.normE (V/m) @ t=0.78
45.261112214839656
% es.EX (V/m) @ t=0.78
-21.374901849206893
% es.EY (V/m) @ t=0.78
17.14928844042526
% es.EZ (V/m) @ t=0.78
20.55779057819256
% es.tEX (V/m) @ t=0.78
-21.37490184920685
% es.tEY (V/m) @ t=0.78
0
% es.tEZ (V/m) @ t=0.78
20.55779057819251
% es.Ex (V/m) @ t=0.78
-21.374901849206893
% es.Ey (V/m) @ t=0.78
17.14928844042526
% es.Ez (V/m) @ t=0.78
20.55779057819256
% es.tEx (V/m) @ t=0.78
-21.37490184920685
% es.tEy (V/m) @ t=0.78
0
% es.tEz (V/m) @ t=0.78
20.55779057819251
% V (V) @ t=0.78
0.014205004684660212
% es.normE (V/m) @ t=0.8
45.69502057875884
% es.EX (V/m) @ t=0.8
-21.579818290883452
% es.EY (V/m) @ t=0.8
17.313694886999073
% es.EZ (V/m) @ t=0.8
20.754873687046846
% es.tEX (V/m) @ t=0.8
-21.579818290883438
% es.tEY (V/m) @ t=0.8
0
% es.tEZ (V/m) @ t=0.8
20.754873687046825
% es.Ex (V/m) @ t=0.8
-21.579818290883452
% es.Ey (V/m) @ t=0.8
17.313694886999073
% es.Ez (V/m) @ t=0.8
20.754873687046846
% es.tEx (V/m) @ t=0.8
-21.579818290883438
% es.tEy (V/m) @ t=0.8
0
% es.tEz (V/m) @ t=0.8
20.754873687046825
% V (V) @ t=0.8
0.014341184939372448
% es.normE (V/m) @ t=0.82
46.12892894267806
% es.EX (V/m) @ t=0.82
-21.784734732559926
% es.EY (V/m) @ t=0.82
17.47810133357278
% es.EZ (V/m) @ t=0.82
20.951956795901175
% es.tEX (V/m) @ t=0.82
-21.78473473255991
% es.tEY (V/m) @ t=0.82
0
% es.tEZ (V/m) @ t=0.82
20.951956795901197
% es.Ex (V/m) @ t=0.82
-21.784734732559926
% es.Ey (V/m) @ t=0.82
17.47810133357278
% es.Ez (V/m) @ t=0.82
20.951956795901175
% es.tEx (V/m) @ t=0.82
-21.78473473255991
% es.tEy (V/m) @ t=0.82
0
% es.tEz (V/m) @ t=0.82
20.951956795901197
% V (V) @ t=0.82
0.01447736519408468
% es.normE (V/m) @ t=0.84
46.562837306597345
% es.EX (V/m) @ t=0.84
-21.9896511742365
% es.EY (V/m) @ t=0.84
17.642507780146666
% es.EZ (V/m) @ t=0.84
21.149039904755533
% es.tEX (V/m) @ t=0.84
-21.989651174236485
% es.tEY (V/m) @ t=0.84
0
% es.tEZ (V/m) @ t=0.84
21.14903990475551
% es.Ex (V/m) @ t=0.84
-21.9896511742365
% es.Ey (V/m) @ t=0.84
17.642507780146666
% es.Ez (V/m) @ t=0.84
21.149039904755533
% es.tEx (V/m) @ t=0.84
-21.989651174236485
% es.tEy (V/m) @ t=0.84
0
% es.tEz (V/m) @ t=0.84
21.14903990475551
% V (V) @ t=0.84
0.014613545448796908
% es.normE (V/m) @ t=0.86
46.99674567051656
% es.EX (V/m) @ t=0.86
-22.194567615912973
% es.EY (V/m) @ t=0.86
17.806914226720394
% es.EZ (V/m) @ t=0.86
21.346123013609947
% es.tEX (V/m) @ t=0.86
-22.19456761591303
% es.tEY (V/m) @ t=0.86
0
% es.tEZ (V/m) @ t=0.86
21.34612301360994
% es.Ex (V/m) @ t=0.86
-22.194567615912973
% es.Ey (V/m) @ t=0.86
17.806914226720394
% es.Ez (V/m) @ t=0.86
21.346123013609947
% es.tEx (V/m) @ t=0.86
-22.19456761591303
% es.tEy (V/m) @ t=0.86
0
% es.tEz (V/m) @ t=0.86
21.34612301360994
% V (V) @ t=0.86
0.014749725703509142
% es.normE (V/m) @ t=0.88
47.43065403443576
% es.EX (V/m) @ t=0.88
-22.399484057589532
% es.EY (V/m) @ t=0.88
17.971320673294137
% es.EZ (V/m) @ t=0.88
21.543206122464277
% es.tEX (V/m) @ t=0.88
-22.39948405758951
% es.tEY (V/m) @ t=0.88
0
% es.tEZ (V/m) @ t=0.88
21.5432061224642
% es.Ex (V/m) @ t=0.88
-22.399484057589532
% es.Ey (V/m) @ t=0.88
17.971320673294137
% es.Ez (V/m) @ t=0.88
21.543206122464277
% es.tEx (V/m) @ t=0.88
-22.39948405758951
% es.tEy (V/m) @ t=0.88
0
% es.tEz (V/m) @ t=0.88
21.5432061224642
% V (V) @ t=0.88
0.014885905958221368
% es.normE (V/m) @ t=0.9
47.86456239835504
% es.EX (V/m) @ t=0.9
-22.604400499266077
% es.EY (V/m) @ t=0.9
18.13572711986791
% es.EZ (V/m) @ t=0.9
21.74028923131865
% es.tEX (V/m) @ t=0.9
-22.604400499266063
% es.tEY (V/m) @ t=0.9
0
% es.tEZ (V/m) @ t=0.9
21.74028923131857
% es.Ex (V/m) @ t=0.9
-22.604400499266077
% es.Ey (V/m) @ t=0.9
18.13572711986791
% es.Ez (V/m) @ t=0.9
21.74028923131865
% es.tEx (V/m) @ t=0.9
-22.604400499266063
% es.tEy (V/m) @ t=0.9
0
% es.tEz (V/m) @ t=0.9
21.74028923131857
% V (V) @ t=0.9
0.015022086212933602
% es.normE (V/m) @ t=0.92
48.29847076227423
% es.EX (V/m) @ t=0.92
-22.809316940942608
% es.EY (V/m) @ t=0.92
18.300133566441694
% es.EZ (V/m) @ t=0.92
21.93737234017295
% es.tEX (V/m) @ t=0.92
-22.809316940942622
% es.tEY (V/m) @ t=0.92
0
% es.tEZ (V/m) @ t=0.92
21.937372340172942
% es.Ex (V/m) @ t=0.92
-22.809316940942608
% es.Ey (V/m) @ t=0.92
18.300133566441694
% es.Ez (V/m) @ t=0.92
21.93737234017295
% es.tEx (V/m) @ t=0.92
-22.809316940942622
% es.tEy (V/m) @ t=0.92
0
% es.tEz (V/m) @ t=0.92
21.937372340172942
% V (V) @ t=0.92
0.015158266467645834
% es.normE (V/m) @ t=0.94
48.732379126193464
% es.EX (V/m) @ t=0.94
-23.01423338261911
% es.EY (V/m) @ t=0.94
18.464540013015416
% es.EZ (V/m) @ t=0.94
22.134455449027385
% es.tEX (V/m) @ t=0.94
-23.014233382619167
% es.tEY (V/m) @ t=0.94
0
% es.tEZ (V/m) @ t=0.94
22.134455449027428
% es.Ex (V/m) @ t=0.94
-23.01423338261911
% es.Ey (V/m) @ t=0.94
18.464540013015416
% es.Ez (V/m) @ t=0.94
22.134455449027385
% es.tEx (V/m) @ t=0.94
-23.014233382619167
% es.tEy (V/m) @ t=0.94
0
% es.tEz (V/m) @ t=0.94
22.134455449027428
% V (V) @ t=0.94
0.015294446722358067
% es.normE (V/m) @ t=0.96
49.166287490112616
% es.EX (V/m) @ t=0.96
-23.219149824295613
% es.EY (V/m) @ t=0.96
18.62894645958913
% es.EZ (V/m) @ t=0.96
22.331538557881657
% es.tEX (V/m) @ t=0.96
-23.219149824295613
% es.tEY (V/m) @ t=0.96
0
% es.tEZ (V/m) @ t=0.96
22.331538557881686
% es.Ex (V/m) @ t=0.96
-23.219149824295613
% es.Ey (V/m) @ t=0.96
18.62894645958913
% es.Ez (V/m) @ t=0.96
22.331538557881657
% es.tEx (V/m) @ t=0.96
-23.219149824295613
% es.tEy (V/m) @ t=0.96
0
% es.tEz (V/m) @ t=0.96
22.331538557881686
% V (V) @ t=0.96
0.015430626977070296
% es.normE (V/m) @ t=0.98
49.60019585403188
% es.EX (V/m) @ t=0.98
-23.424066265972158
% es.EY (V/m) @ t=0.98
18.793352906162895
% es.EZ (V/m) @ t=0.98
22.528621666736072
% es.tEX (V/m) @ t=0.98
-23.424066265972144
% es.tEY (V/m) @ t=0.98
0
% es.tEZ (V/m) @ t=0.98
22.528621666736058
% es.Ex (V/m) @ t=0.98
-23.424066265972158
% es.Ey (V/m) @ t=0.98
18.793352906162895
% es.Ez (V/m) @ t=0.98
22.528621666736072
% es.tEx (V/m) @ t=0.98
-23.424066265972144
% es.tEy (V/m) @ t=0.98
0
% es.tEz (V/m) @ t=0.98
22.528621666736058
% V (V) @ t=0.98
0.015566807231782526
% es.normE (V/m) @ t=1
50.034104217951096
% es.EX (V/m) @ t=1
-23.628982707648646
% es.EY (V/m) @ t=1
18.957759352736694
% es.EZ (V/m) @ t=1
22.725704775590337
% es.tEX (V/m) @ t=1
-23.62898270764866
% es.tEY (V/m) @ t=1
0
% es.tEZ (V/m) @ t=1
22.725704775590316
% es.Ex (V/m) @ t=1
-23.628982707648646
% es.Ey (V/m) @ t=1
18.957759352736694
% es.Ez (V/m) @ t=1
22.725704775590337
% es.tEx (V/m) @ t=1
-23.62898270764866
% es.tEy (V/m) @ t=1
0
% es.tEz (V/m) @ t=1
22.725704775590316
% V (V) @ t=1
0.01570298748649476
% es.normE (V/m) @ t=1.02
50.46801258187031
% es.EX (V/m) @ t=1.02
-23.83389914932519
% es.EY (V/m) @ t=1.02
19.122165799310466
% es.EZ (V/m) @ t=1.02
22.922787884444723
% es.tEX (V/m) @ t=1.02
-23.833899149325177
% es.tEY (V/m) @ t=1.02
0
% es.tEZ (V/m) @ t=1.02
22.922787884444745
% es.Ex (V/m) @ t=1.02
-23.83389914932519
% es.Ey (V/m) @ t=1.02
19.122165799310466
% es.Ez (V/m) @ t=1.02
22.922787884444723
% es.tEx (V/m) @ t=1.02
-23.833899149325177
% es.tEy (V/m) @ t=1.02
0
% es.tEz (V/m) @ t=1.02
22.922787884444745
% V (V) @ t=1.02
0.015839167741206993
% es.normE (V/m) @ t=1.04
50.90875927713331
% es.EX (V/m) @ t=1.04
-24.042045059024105
% es.EY (V/m) @ t=1.04
19.28916327272084
% es.EZ (V/m) @ t=1.04
23.12297697518931
% es.tEX (V/m) @ t=1.04
-24.04204505902412
% es.tEY (V/m) @ t=1.04
0
% es.tEZ (V/m) @ t=1.04
23.122976975189317
% es.Ex (V/m) @ t=1.04
-24.042045059024105
% es.Ey (V/m) @ t=1.04
19.28916327272084
% es.Ez (V/m) @ t=1.04
23.12297697518931