% Model:              1 neuron.mph
% Version:            COMSOL 6.1.0.252
% Date:               Mar 27 2023, 14:31
% Dimension:          0
% Nodes:              14017
% Expressions:        14017
% Description:        Electric field norm, Electric field, X component, Electric field, Y component, Electric field, Z component, Tangential electric field, X component, Tangential electric field, Y component, Tangential electric field, Z component, Electric field, x component, Electric field, y component, Electric field, z component, Tangential electric field, x component, Tangential electric field, y component, Tangential electric field, z component, Electric potential
% Length unit:        mm
% x
1.3300000000000003
% y
12.200000000000001
% z
1.66
% es.normE (V/m) @ t=0
13.05358292634607
% es.EX (V/m) @ t=0
8.283798637905463
% es.EY (V/m) @ t=0
2.477144371890857
% es.EZ (V/m) @ t=0
-9.073805277244615
% es.tEX (V/m) @ t=0
8.283798637905452
% es.tEY (V/m) @ t=0
0
% es.tEZ (V/m) @ t=0
-9.073805277244594
% es.Ex (V/m) @ t=0
8.283798637905463
% es.Ey (V/m) @ t=0
2.477144371890857
% es.Ez (V/m) @ t=0
-9.073805277244615
% es.tEx (V/m) @ t=0
8.283798637905452
% es.tEy (V/m) @ t=0
0
% es.tEz (V/m) @ t=0
-9.073805277244594
% V (V) @ t=0
0.01118141748408191
% es.normE (V/m) @ t=0.02
11.274489386245945
% es.EX (V/m) @ t=0.02
7.154786571685854
% es.EY (V/m) @ t=0.02
2.13953043677526
% es.EZ (V/m) @ t=0.02
-7.837121950293417
% es.tEX (V/m) @ t=0.02
7.1547865716858245
% es.tEY (V/m) @ t=0.02
0
% es.tEZ (V/m) @ t=0.02
-7.837121950293403
% es.Ex (V/m) @ t=0.02
7.154786571685854
% es.Ey (V/m) @ t=0.02
2.13953043677526
% es.Ez (V/m) @ t=0.02
-7.837121950293417
% es.tEx (V/m) @ t=0.02
7.1547865716858245
% es.tEy (V/m) @ t=0.02
0
% es.tEz (V/m) @ t=0.02
-7.837121950293403
% V (V) @ t=0.02
0.009657484336397093
% es.normE (V/m) @ t=0.04
11.37818174638994
% es.EX (V/m) @ t=0.04
7.2205897001572
% es.EY (V/m) @ t=0.04
2.159207855060383
% es.EZ (V/m) @ t=0.04
-7.909200575437072
% es.tEX (V/m) @ t=0.04
7.220589700157186
% es.tEY (V/m) @ t=0.04
0
% es.tEZ (V/m) @ t=0.04
-7.909200575437049
% es.Ex (V/m) @ t=0.04
7.2205897001572
% es.Ey (V/m) @ t=0.04
2.159207855060383
% es.Ez (V/m) @ t=0.04
-7.909200575437072
% es.tEx (V/m) @ t=0.04
7.220589700157186
% es.tEy (V/m) @ t=0.04
0
% es.tEz (V/m) @ t=0.04
-7.909200575437049
% V (V) @ t=0.04
0.00974630499662055
% es.normE (V/m) @ t=0.06
11.482637998124424
% es.EX (V/m) @ t=0.06
7.286877585784996
% es.EY (V/m) @ t=0.06
2.1790302045414824
% es.EZ (V/m) @ t=0.06
-7.981810202504896
% es.tEX (V/m) @ t=0.06
7.286877585784981
% es.tEY (V/m) @ t=0.06
0
% es.tEZ (V/m) @ t=0.06
-7.981810202504873
% es.Ex (V/m) @ t=0.06
7.286877585784996
% es.Ey (V/m) @ t=0.06
2.1790302045414824
% es.Ez (V/m) @ t=0.06
-7.981810202504896
% es.tEx (V/m) @ t=0.06
7.286877585784981
% es.tEy (V/m) @ t=0.06
0
% es.tEz (V/m) @ t=0.06
-7.981810202504873
% V (V) @ t=0.06
0.009835780053033172
% es.normE (V/m) @ t=0.08
11.589077918369243
% es.EX (V/m) @ t=0.08
7.354424342069717
% es.EY (V/m) @ t=0.08
2.199229122325244
% es.EZ (V/m) @ t=0.08
-8.05579869240272
% es.tEX (V/m) @ t=0.08
7.354424342069702
% es.tEY (V/m) @ t=0.08
0
% es.tEZ (V/m) @ t=0.08
-8.055798692402705
% es.Ex (V/m) @ t=0.08
7.354424342069717
% es.Ey (V/m) @ t=0.08
2.199229122325244
% es.Ez (V/m) @ t=0.08
-8.05579869240272
% es.tEx (V/m) @ t=0.08
7.354424342069702
% es.tEy (V/m) @ t=0.08
0
% es.tEz (V/m) @ t=0.08
-8.055798692402705
% V (V) @ t=0.08
0.009926954003186727
% es.normE (V/m) @ t=0.1
11.696086456644672
% es.EX (V/m) @ t=0.1
7.422331953280526
% es.EY (V/m) @ t=0.1
2.2195359833089405
% es.EZ (V/m) @ t=0.1
-8.130182432949955
% es.tEX (V/m) @ t=0.1
7.422331953280518
% es.tEY (V/m) @ t=0.1
0
% es.tEZ (V/m) @ t=0.1
-8.13018243294994
% es.Ex (V/m) @ t=0.1
7.422331953280526
% es.Ey (V/m) @ t=0.1
2.2195359833089405
% es.Ez (V/m) @ t=0.1
-8.130182432949955
% es.tEx (V/m) @ t=0.1
7.422331953280518
% es.tEy (V/m) @ t=0.1
0
% es.tEz (V/m) @ t=0.1
-8.13018243294994
% V (V) @ t=0.1
0.010018614940761873
% es.normE (V/m) @ t=0.12
11.803094994920077
% es.EX (V/m) @ t=0.12
7.490239564491333
% es.EY (V/m) @ t=0.12
2.239842844292629
% es.EZ (V/m) @ t=0.12
-8.204566173497165
% es.tEX (V/m) @ t=0.12
7.490239564491321
% es.tEY (V/m) @ t=0.12
0
% es.tEZ (V/m) @ t=0.12
-8.204566173497144
% es.Ex (V/m) @ t=0.12
7.490239564491333
% es.Ey (V/m) @ t=0.12
2.239842844292629
% es.Ez (V/m) @ t=0.12
-8.204566173497165
% es.tEx (V/m) @ t=0.12
7.490239564491321
% es.tEy (V/m) @ t=0.12
0
% es.tEz (V/m) @ t=0.12
-8.204566173497144
% V (V) @ t=0.12
0.010110275878337018
% es.normE (V/m) @ t=0.14
11.913121702795458
% es.EX (V/m) @ t=0.14
7.560062519122725
% es.EY (V/m) @ t=0.14
2.2607225094426635
% es.EZ (V/m) @ t=0.14
-8.281047893915044
% es.tEX (V/m) @ t=0.14
7.560062519122702
% es.tEY (V/m) @ t=0.14
0
% es.tEZ (V/m) @ t=0.14
-8.281047893915023
% es.Ex (V/m) @ t=0.14
7.560062519122725
% es.Ey (V/m) @ t=0.14
2.2607225094426635
% es.Ez (V/m) @ t=0.14
-8.281047893915044
% es.tEx (V/m) @ t=0.14
7.560062519122702
% es.tEy (V/m) @ t=0.14
0
% es.tEz (V/m) @ t=0.14
-8.281047893915023
% V (V) @ t=0.14
0.010204522004570083
% es.normE (V/m) @ t=0.16
12.025513035296566
% es.EX (V/m) @ t=0.16
7.631386074720712
% es.EY (V/m) @ t=0.16
2.282050945542246
% es.EZ (V/m) @ t=0.16
-8.35917330422581
% es.tEX (V/m) @ t=0.16
7.631386074720697
% es.tEY (V/m) @ t=0.16
0
% es.tEZ (V/m) @ t=0.16
-8.359173304225793
% es.Ex (V/m) @ t=0.16
7.631386074720712
% es.Ey (V/m) @ t=0.16
2.282050945542246
% es.Ez (V/m) @ t=0.16
-8.35917330422581
% es.tEx (V/m) @ t=0.16
7.631386074720697
% es.tEy (V/m) @ t=0.16
0
% es.tEz (V/m) @ t=0.16
-8.359173304225793
% V (V) @ t=0.16
0.010300793530821336
% es.normE (V/m) @ t=0.18
12.137904367797695
% es.EX (V/m) @ t=0.18
7.702709630318691
% es.EY (V/m) @ t=0.18
2.303379381641844
% es.EZ (V/m) @ t=0.18
-8.437298714536588
% es.tEX (V/m) @ t=0.18
7.702709630318683
% es.tEY (V/m) @ t=0.18
0
% es.tEZ (V/m) @ t=0.18
-8.437298714536567
% es.Ex (V/m) @ t=0.18
7.702709630318691
% es.Ey (V/m) @ t=0.18
2.303379381641844
% es.Ez (V/m) @ t=0.18
-8.437298714536588
% es.tEx (V/m) @ t=0.18
7.702709630318683
% es.tEy (V/m) @ t=0.18
0
% es.tEz (V/m) @ t=0.18
-8.437298714536567
% V (V) @ t=0.18
0.010397065057072583
% es.normE (V/m) @ t=0.2
12.250295700298802
% es.EX (V/m) @ t=0.2
7.7740331859166645
% es.EY (V/m) @ t=0.2
2.3247078177414418
% es.EZ (V/m) @ t=0.2
-8.515424124847344
% es.tEX (V/m) @ t=0.2
7.774033185916664
% es.tEY (V/m) @ t=0.2
0
% es.tEZ (V/m) @ t=0.2
-8.515424124847323
% es.Ex (V/m) @ t=0.2
7.7740331859166645
% es.Ey (V/m) @ t=0.2
2.3247078177414418
% es.Ez (V/m) @ t=0.2
-8.515424124847344
% es.tEx (V/m) @ t=0.2
7.774033185916664
% es.tEy (V/m) @ t=0.2
0
% es.tEz (V/m) @ t=0.2
-8.515424124847323
% V (V) @ t=0.2
0.010493336583323838
% es.normE (V/m) @ t=0.22
12.362687032799968
% es.EX (V/m) @ t=0.22
7.845356741514665
% es.EY (V/m) @ t=0.22
2.3460362538410457
% es.EZ (V/m) @ t=0.22
-8.593549535158136
% es.tEX (V/m) @ t=0.22
7.845356741514665
% es.tEY (V/m) @ t=0.22
0
% es.tEZ (V/m) @ t=0.22
-8.593549535158122
% es.Ex (V/m) @ t=0.22
7.845356741514665
% es.Ey (V/m) @ t=0.22
2.3460362538410457
% es.Ez (V/m) @ t=0.22
-8.593549535158136
% es.tEx (V/m) @ t=0.22
7.845356741514665
% es.tEy (V/m) @ t=0.22
0
% es.tEz (V/m) @ t=0.22
-8.593549535158122
% V (V) @ t=0.22
0.01058960810957509
% es.normE (V/m) @ t=0.24
12.475078365301076
% es.EX (V/m) @ t=0.24
7.916680297112649
% es.EY (V/m) @ t=0.24
2.367364689940633
% es.EZ (V/m) @ t=0.24
-8.67167494546886
% es.tEX (V/m) @ t=0.24
7.916680297112644
% es.tEY (V/m) @ t=0.24
0
% es.tEZ (V/m) @ t=0.24
-8.671674945468853
% es.Ex (V/m) @ t=0.24
7.916680297112649
% es.Ey (V/m) @ t=0.24
2.367364689940633
% es.Ez (V/m) @ t=0.24
-8.67167494546886
% es.tEx (V/m) @ t=0.24
7.916680297112644
% es.tEy (V/m) @ t=0.24
0
% es.tEz (V/m) @ t=0.24
-8.671674945468853
% V (V) @ t=0.24
0.010685879635826342
% es.normE (V/m) @ t=0.26
12.589008130740522
% es.EX (V/m) @ t=0.26
7.98897959844901
% es.EY (V/m) @ t=0.26
2.3889830171774022
% es.EZ (V/m) @ t=0.26
-8.750870129535254
% es.tEX (V/m) @ t=0.26
7.988979598448995
% es.tEY (V/m) @ t=0.26
0
% es.tEZ (V/m) @ t=0.26
-8.75087012953524
% es.Ex (V/m) @ t=0.26
7.98897959844901
% es.Ey (V/m) @ t=0.26
2.3889830171774022
% es.Ez (V/m) @ t=0.26
-8.750870129535254
% es.tEx (V/m) @ t=0.26
7.988979598448995
% es.tEy (V/m) @ t=0.26
0
% es.tEz (V/m) @ t=0.26
-8.75087012953524
% V (V) @ t=0.26
0.010783473165786383
% es.normE (V/m) @ t=0.28
12.713447089421441
% es.EX (V/m) @ t=0.28
8.06794431902116
% es.EY (V/m) @ t=0.28
2.4125816205106356
% es.EZ (V/m) @ t=0.28
-8.837373047868876
% es.tEX (V/m) @ t=0.28
8.067944319021155
% es.tEY (V/m) @ t=0.28
0
% es.tEZ (V/m) @ t=0.28
-8.837373047868862
% es.Ex (V/m) @ t=0.28
8.06794431902116
% es.Ey (V/m) @ t=0.28
2.4125816205106356
% es.Ez (V/m) @ t=0.28
-8.837373047868876
% es.tEx (V/m) @ t=0.28
8.067944319021155
% es.tEy (V/m) @ t=0.28
0
% es.tEz (V/m) @ t=0.28
-8.837373047868862
% V (V) @ t=0.28
0.010890097438698986
% es.normE (V/m) @ t=0.3
12.837886048136957
% es.EX (V/m) @ t=0.3
8.146909039593332
% es.EY (V/m) @ t=0.3
2.4361802238439147
% es.EZ (V/m) @ t=0.3
-8.923875966202505
% es.tEX (V/m) @ t=0.3
8.146909039593318
% es.tEY (V/m) @ t=0.3
0
% es.tEZ (V/m) @ t=0.3
-8.923875966202484
% es.Ex (V/m) @ t=0.3
8.146909039593332
% es.Ey (V/m) @ t=0.3
2.4361802238439147
% es.Ez (V/m) @ t=0.3
-8.923875966202505
% es.tEx (V/m) @ t=0.3
8.146909039593318
% es.tEy (V/m) @ t=0.3
0
% es.tEz (V/m) @ t=0.3
-8.923875966202484
% V (V) @ t=0.3
0.010996721711611592
% es.normE (V/m) @ t=0.32
12.962325006886058
% es.EX (V/m) @ t=0.32
8.225873760165491
% es.EY (V/m) @ t=0.32
2.4597788271771126
% es.EZ (V/m) @ t=0.32
-9.010378884536141
% es.tEX (V/m) @ t=0.32
8.225873760165484
% es.tEY (V/m) @ t=0.32
0
% es.tEZ (V/m) @ t=0.32
-9.010378884536113
% es.Ex (V/m) @ t=0.32
8.225873760165491
% es.Ey (V/m) @ t=0.32
2.4597788271771126
% es.Ez (V/m) @ t=0.32
-9.010378884536141
% es.tEx (V/m) @ t=0.32
8.225873760165484
% es.tEy (V/m) @ t=0.32
0
% es.tEz (V/m) @ t=0.32
-9.010378884536113
% V (V) @ t=0.32
0.011103345984524197
% es.normE (V/m) @ t=0.34
13.08676396566776
% es.EX (V/m) @ t=0.34
8.304838480737654
% es.EY (V/m) @ t=0.34
2.483377430510339
% es.EZ (V/m) @ t=0.34
-9.096881802869742
% es.tEX (V/m) @ t=0.34
8.304838480737645
% es.tEY (V/m) @ t=0.34
0
% es.tEZ (V/m) @ t=0.34
-9.096881802869728
% es.Ex (V/m) @ t=0.34
8.304838480737654
% es.Ey (V/m) @ t=0.34
2.483377430510339
% es.Ez (V/m) @ t=0.34
-9.096881802869742
% es.tEx (V/m) @ t=0.34
8.304838480737645
% es.tEy (V/m) @ t=0.34
0
% es.tEz (V/m) @ t=0.34
-9.096881802869728
% V (V) @ t=0.34
0.0112099702574368
% es.normE (V/m) @ t=0.36
13.211202924481197
% es.EX (V/m) @ t=0.36
8.383803201309824
% es.EY (V/m) @ t=0.36
2.506976033843622
% es.EZ (V/m) @ t=0.36
-9.183384721203378
% es.tEX (V/m) @ t=0.36
8.383803201309792
% es.tEY (V/m) @ t=0.36
0
% es.tEZ (V/m) @ t=0.36
-9.183384721203362
% es.Ex (V/m) @ t=0.36
8.383803201309824
% es.Ey (V/m) @ t=0.36
2.506976033843622
% es.Ez (V/m) @ t=0.36
-9.183384721203378
% es.tEx (V/m) @ t=0.36
8.383803201309792
% es.tEy (V/m) @ t=0.36
0
% es.tEz (V/m) @ t=0.36
-9.183384721203362
% V (V) @ t=0.36
0.011316594530349403
% es.normE (V/m) @ t=0.38
13.335641883325438
% es.EX (V/m) @ t=0.38
8.462767921881989
% es.EY (V/m) @ t=0.38
2.530574637176873
% es.EZ (V/m) @ t=0.38
-9.269887639537
% es.tEX (V/m) @ t=0.38
8.46276792188198
% es.tEY (V/m) @ t=0.38
0
% es.tEZ (V/m) @ t=0.38
-9.269887639536977
% es.Ex (V/m) @ t=0.38
8.462767921881989
% es.Ey (V/m) @ t=0.38
2.530574637176873
% es.Ez (V/m) @ t=0.38
-9.269887639537
% es.tEx (V/m) @ t=0.38
8.46276792188198
% es.tEy (V/m) @ t=0.38
0
% es.tEz (V/m) @ t=0.38
-9.269887639536977
% V (V) @ t=0.38
0.011423218803262008
% es.normE (V/m) @ t=0.4
13.460080842199645
% es.EX (V/m) @ t=0.4
8.541732642454143
% es.EY (V/m) @ t=0.4
2.5541732405101136
% es.EZ (V/m) @ t=0.4
-9.356390557870636
% es.tEX (V/m) @ t=0.4
8.541732642454113
% es.tEY (V/m) @ t=0.4
0
% es.tEZ (V/m) @ t=0.4
-9.356390557870627
% es.Ex (V/m) @ t=0.4
8.541732642454143
% es.Ey (V/m) @ t=0.4
2.5541732405101136
% es.Ez (V/m) @ t=0.4
-9.356390557870636
% es.tEx (V/m) @ t=0.4
8.541732642454113
% es.tEy (V/m) @ t=0.4
0
% es.tEz (V/m) @ t=0.4
-9.356390557870627
% V (V) @ t=0.4
0.011529843076174611
% es.normE (V/m) @ t=0.42
13.58451980110299
% es.EX (V/m) @ t=0.42
8.620697363026316
% es.EY (V/m) @ t=0.42
2.5777718438433364
% es.EZ (V/m) @ t=0.42
-9.44289347620425
% es.tEX (V/m) @ t=0.42
8.620697363026267
% es.tEY (V/m) @ t=0.42
0
% es.tEZ (V/m) @ t=0.42
-9.442893476204228
% es.Ex (V/m) @ t=0.42
8.620697363026316
% es.Ey (V/m) @ t=0.42
2.5777718438433364
% es.Ez (V/m) @ t=0.42
-9.44289347620425
% es.tEx (V/m) @ t=0.42
8.620697363026267
% es.tEy (V/m) @ t=0.42
0
% es.tEz (V/m) @ t=0.42
-9.442893476204228
% V (V) @ t=0.42
0.011636467349087215
% es.normE (V/m) @ t=0.44
13.708958760034648
% es.EX (V/m) @ t=0.44
8.69966208359846
% es.EY (V/m) @ t=0.44
2.6013704471765697
% es.EZ (V/m) @ t=0.44
-9.529396394537857
% es.tEX (V/m) @ t=0.44
8.69966208359844
% es.tEY (V/m) @ t=0.44
0
% es.tEZ (V/m) @ t=0.44
-9.529396394537835
% es.Ex (V/m) @ t=0.44
8.69966208359846
% es.Ey (V/m) @ t=0.44
2.6013704471765697
% es.Ez (V/m) @ t=0.44
-9.529396394537857
% es.tEx (V/m) @ t=0.44
8.69966208359844
% es.tEy (V/m) @ t=0.44
0
% es.tEz (V/m) @ t=0.44
-9.529396394537835
% V (V) @ t=0.44
0.011743091621999822
% es.normE (V/m) @ t=0.46
13.833397718993938
% es.EX (V/m) @ t=0.46
8.778626804170631
% es.EY (V/m) @ t=0.46
2.624969050509824
% es.EZ (V/m) @ t=0.46
-9.6158993128715
% es.tEX (V/m) @ t=0.46
8.778626804170603
% es.tEY (V/m) @ t=0.46
0
% es.tEZ (V/m) @ t=0.46
-9.615899312871479
% es.Ex (V/m) @ t=0.46
8.778626804170631
% es.Ey (V/m) @ t=0.46
2.624969050509824
% es.Ez (V/m) @ t=0.46
-9.6158993128715
% es.tEx (V/m) @ t=0.46
8.778626804170603
% es.tEy (V/m) @ t=0.46
0
% es.tEz (V/m) @ t=0.46
-9.615899312871479
% V (V) @ t=0.46
0.011849715894912427
% es.normE (V/m) @ t=0.48
13.957836677980044
% es.EX (V/m) @ t=0.48
8.857591524742785
% es.EY (V/m) @ t=0.48
2.648567653843068
% es.EZ (V/m) @ t=0.48
-9.702402231205122
% es.tEX (V/m) @ t=0.48
8.857591524742748
% es.tEY (V/m) @ t=0.48
0
% es.tEZ (V/m) @ t=0.48
-9.7024022312051
% es.Ex (V/m) @ t=0.48
8.857591524742785
% es.Ey (V/m) @ t=0.48
2.648567653843068
% es.Ez (V/m) @ t=0.48
-9.702402231205122
% es.tEx (V/m) @ t=0.48
8.857591524742748
% es.tEy (V/m) @ t=0.48
0
% es.tEz (V/m) @ t=0.48
-9.7024022312051
% V (V) @ t=0.48
0.01195634016782503
% es.normE (V/m) @ t=0.5
14.082275636992293
% es.EX (V/m) @ t=0.5
8.936556245314957
% es.EY (V/m) @ t=0.5
2.672166257176351
% es.EZ (V/m) @ t=0.5
-9.788905149538744
% es.tEX (V/m) @ t=0.5
8.93655624531493
% es.tEY (V/m) @ t=0.5
0
% es.tEZ (V/m) @ t=0.5
-9.78890514953872
% es.Ex (V/m) @ t=0.5
8.936556245314957
% es.Ey (V/m) @ t=0.5
2.672166257176351
% es.Ez (V/m) @ t=0.5
-9.788905149538744
% es.tEx (V/m) @ t=0.5
8.93655624531493
% es.tEy (V/m) @ t=0.5
0
% es.tEz (V/m) @ t=0.5
-9.78890514953872
% V (V) @ t=0.5
0.012062964440737635
% es.normE (V/m) @ t=0.52
14.210243424383307
% es.EX (V/m) @ t=0.52
9.017762762649731
% es.EY (V/m) @ t=0.52
2.696443601829807
% es.EZ (V/m) @ t=0.52
-9.877859352534832
% es.tEX (V/m) @ t=0.52
9.017762762649694
% es.tEY (V/m) @ t=0.52
0
% es.tEZ (V/m) @ t=0.52
-9.87785935253481
% es.Ex (V/m) @ t=0.52
9.017762762649731
% es.Ey (V/m) @ t=0.52
2.696443601829807
% es.Ez (V/m) @ t=0.52
-9.877859352534832
% es.tEx (V/m) @ t=0.52
9.017762762649694
% es.tEy (V/m) @ t=0.52
0
% es.tEz (V/m) @ t=0.52
-9.87785935253481
% V (V) @ t=0.52
0.012172592781247611
% es.normE (V/m) @ t=0.54
14.34816796778923
% es.EX (V/m) @ t=0.54
9.105294615497751
% es.EY (V/m) @ t=0.54
2.722636047195669
% es.EZ (V/m) @ t=0.54
-9.973729971054013
% es.tEX (V/m) @ t=0.54
9.105294615497723
% es.tEY (V/m) @ t=0.54
0
% es.tEZ (V/m) @ t=0.54
-9.973729971053992
% es.Ex (V/m) @ t=0.54
9.105294615497751
% es.Ey (V/m) @ t=0.54
2.722636047195669
% es.Ez (V/m) @ t=0.54
-9.973729971054013
% es.tEx (V/m) @ t=0.54
9.105294615497723
% es.tEy (V/m) @ t=0.54
0
% es.tEz (V/m) @ t=0.54
-9.973729971053992
% V (V) @ t=0.54
0.012290697240456117
% es.normE (V/m) @ t=0.56
14.48609251124785
% es.EX (V/m) @ t=0.56
9.192826468345743
% es.EY (V/m) @ t=0.56
2.7488284925615925
% es.EZ (V/m) @ t=0.56
-10.06960058957323
% es.tEX (V/m) @ t=0.56
9.192826468345723
% es.tEY (V/m) @ t=0.56
0
% es.tEZ (V/m) @ t=0.56
-10.06960058957321
% es.Ex (V/m) @ t=0.56
9.192826468345743
% es.Ey (V/m) @ t=0.56
2.7488284925615925
% es.Ez (V/m) @ t=0.56
-10.06960058957323
% es.tEx (V/m) @ t=0.56
9.192826468345723
% es.tEy (V/m) @ t=0.56
0
% es.tEz (V/m) @ t=0.56
-10.06960058957321
% V (V) @ t=0.56
0.012408801699664622
% es.normE (V/m) @ t=0.58
14.62401705475762
% es.EX (V/m) @ t=0.58
9.280358321193777
% es.EY (V/m) @ t=0.58
2.7750209379274295
% es.EZ (V/m) @ t=0.58
-10.165471208092391
% es.tEX (V/m) @ t=0.58
9.28035832119376
% es.tEY (V/m) @ t=0.58
0
% es.tEZ (V/m) @ t=0.58
-10.165471208092375
% es.Ex (V/m) @ t=0.58
9.280358321193777
% es.Ey (V/m) @ t=0.58
2.7750209379274295
% es.Ez (V/m) @ t=0.58
-10.165471208092391
% es.tEx (V/m) @ t=0.58
9.28035832119376
% es.tEy (V/m) @ t=0.58
0
% es.tEz (V/m) @ t=0.58
-10.165471208092375
% V (V) @ t=0.58
0.012526906158873124
% es.normE (V/m) @ t=0.6
14.761941598317156
% es.EX (V/m) @ t=0.6
9.367890174041793
% es.EY (V/m) @ t=0.6
2.801213383293299
% es.EZ (V/m) @ t=0.6
-10.261341826611586
% es.tEX (V/m) @ t=0.6
9.367890174041769
% es.tEY (V/m) @ t=0.6
0
% es.tEZ (V/m) @ t=0.6
-10.261341826611565
% es.Ex (V/m) @ t=0.6
9.367890174041793
% es.Ey (V/m) @ t=0.6
2.801213383293299
% es.Ez (V/m) @ t=0.6
-10.261341826611586
% es.tEx (V/m) @ t=0.6
9.367890174041769
% es.tEy (V/m) @ t=0.6
0
% es.tEz (V/m) @ t=0.6
-10.261341826611565
% V (V) @ t=0.6
0.01264501061808163
% es.normE (V/m) @ t=0.62
14.899866141925035
% es.EX (V/m) @ t=0.62
9.45542202688983
% es.EY (V/m) @ t=0.62
2.8274058286591472
% es.EZ (V/m) @ t=0.62
-10.357212445130752
% es.tEX (V/m) @ t=0.62
9.45542202688981
% es.tEY (V/m) @ t=0.62
0
% es.tEZ (V/m) @ t=0.62
-10.357212445130731
% es.Ex (V/m) @ t=0.62
9.45542202688983
% es.Ey (V/m) @ t=0.62
2.8274058286591472
% es.Ez (V/m) @ t=0.62
-10.357212445130752
% es.tEx (V/m) @ t=0.62
9.45542202688981
% es.tEy (V/m) @ t=0.62
0
% es.tEz (V/m) @ t=0.62
-10.357212445130731
% V (V) @ t=0.62
0.012763115077290135
% es.normE (V/m) @ t=0.64
15.037790685579957
% es.EX (V/m) @ t=0.64
9.54295387973783
% es.EY (V/m) @ t=0.64
2.853598274025077
% es.EZ (V/m) @ t=0.64
-10.453083063649935
% es.tEX (V/m) @ t=0.64
9.542953879737826
% es.tEY (V/m) @ t=0.64
0
% es.tEZ (V/m) @ t=0.64
-10.453083063649913
% es.Ex (V/m) @ t=0.64
9.54295387973783
% es.Ey (V/m) @ t=0.64
2.853598274025077
% es.Ez (V/m) @ t=0.64
-10.453083063649935
% es.tEx (V/m) @ t=0.64
9.542953879737826
% es.tEy (V/m) @ t=0.64
0
% es.tEz (V/m) @ t=0.64
-10.453083063649913
% V (V) @ t=0.64
0.01288121953649864
% es.normE (V/m) @ t=0.66
15.175715229280645
% es.EX (V/m) @ t=0.66
9.63048573258583
% es.EY (V/m) @ t=0.66
2.8797907193909755
% es.EZ (V/m) @ t=0.66
-10.548953682169131
% es.tEX (V/m) @ t=0.66
9.630485732585825
% es.tEY (V/m) @ t=0.66
0
% es.tEZ (V/m) @ t=0.66
-10.5489536821691
% es.Ex (V/m) @ t=0.66
9.63048573258583
% es.Ey (V/m) @ t=0.66
2.8797907193909755
% es.Ez (V/m) @ t=0.66
-10.548953682169131
% es.tEx (V/m) @ t=0.66
9.630485732585825
% es.tEy (V/m) @ t=0.66
0
% es.tEz (V/m) @ t=0.66
-10.5489536821691
% V (V) @ t=0.66
0.012999323995707144
% es.normE (V/m) @ t=0.68
15.313639773025837
% es.EX (V/m) @ t=0.68
9.718017585433863
% es.EY (V/m) @ t=0.68
2.905983164756863
% es.EZ (V/m) @ t=0.68
-10.644824300688311
% es.tEX (V/m) @ t=0.68
9.718017585433833
% es.tEY (V/m) @ t=0.68
0
% es.tEZ (V/m) @ t=0.68
-10.644824300688281
% es.Ex (V/m) @ t=0.68
9.718017585433863
% es.Ey (V/m) @ t=0.68
2.905983164756863
% es.Ez (V/m) @ t=0.68
-10.644824300688311
% es.tEx (V/m) @ t=0.68
9.718017585433833
% es.tEy (V/m) @ t=0.68
0
% es.tEz (V/m) @ t=0.68
-10.644824300688281
% V (V) @ t=0.68
0.013117428454915649
% es.normE (V/m) @ t=0.7
15.451564316814352
% es.EX (V/m) @ t=0.7
9.805549438281886
% es.EY (V/m) @ t=0.7
2.9321756101227465
% es.EZ (V/m) @ t=0.7
-10.740694919207499
% es.tEX (V/m) @ t=0.7
9.805549438281876
% es.tEY (V/m) @ t=0.7
0
% es.tEZ (V/m) @ t=0.7
-10.74069491920747
% es.Ex (V/m) @ t=0.7
9.805549438281886
% es.Ey (V/m) @ t=0.7
2.9321756101227465
% es.Ez (V/m) @ t=0.7
-10.740694919207499
% es.tEx (V/m) @ t=0.7
9.805549438281876
% es.tEy (V/m) @ t=0.7
0
% es.tEz (V/m) @ t=0.7
-10.74069491920747
% V (V) @ t=0.7
0.013235532914124158
% es.normE (V/m) @ t=0.72
15.58948886064503
% es.EX (V/m) @ t=0.72
9.893081291129878
% es.EY (V/m) @ t=0.72
2.958368055488634
% es.EZ (V/m) @ t=0.72
-10.836565537726681
% es.tEX (V/m) @ t=0.72
9.893081291129857
% es.tEY (V/m) @ t=0.72
0
% es.tEZ (V/m) @ t=0.72
-10.836565537726653
% es.Ex (V/m) @ t=0.72
9.893081291129878
% es.Ey (V/m) @ t=0.72
2.958368055488634
% es.Ez (V/m) @ t=0.72
-10.836565537726681
% es.tEx (V/m) @ t=0.72
9.893081291129857
% es.tEy (V/m) @ t=0.72
0
% es.tEz (V/m) @ t=0.72
-10.836565537726653
% V (V) @ t=0.72
0.013353637373332658
% es.normE (V/m) @ t=0.74
15.727413404516799
% es.EX (V/m) @ t=0.74
9.980613143977909
% es.EY (V/m) @ t=0.74
2.9845605008545215
% es.EZ (V/m) @ t=0.74
-10.93243615624587
% es.tEX (V/m) @ t=0.74
9.980613143977891
% es.tEY (V/m) @ t=0.74
0
% es.tEZ (V/m) @ t=0.74
-10.93243615624584
% es.Ex (V/m) @ t=0.74
9.980613143977909
% es.Ey (V/m) @ t=0.74
2.9845605008545215
% es.Ez (V/m) @ t=0.74
-10.93243615624587
% es.tEx (V/m) @ t=0.74
9.980613143977891
% es.tEy (V/m) @ t=0.74
0
% es.tEz (V/m) @ t=0.74
-10.93243615624584
% V (V) @ t=0.74
0.013471741832541165
% es.normE (V/m) @ t=0.76
15.865337948428548
% es.EX (V/m) @ t=0.76
10.06814499682594
% es.EY (V/m) @ t=0.76
3.0107529462204017
% es.EZ (V/m) @ t=0.76
-11.028306774765044
% es.tEX (V/m) @ t=0.76
10.06814499682592
% es.tEY (V/m) @ t=0.76
0
% es.tEZ (V/m) @ t=0.76
-11.028306774765014
% es.Ex (V/m) @ t=0.76
10.06814499682594
% es.Ey (V/m) @ t=0.76
3.0107529462204017
% es.Ez (V/m) @ t=0.76
-11.028306774765044
% es.tEx (V/m) @ t=0.76
10.06814499682592
% es.tEy (V/m) @ t=0.76
0
% es.tEz (V/m) @ t=0.76
-11.028306774765014
% V (V) @ t=0.76
0.013589846291749667
% es.normE (V/m) @ t=0.78
16.0093073136674
% es.EX (V/m) @ t=0.78
10.159510502381927
% es.EY (V/m) @ t=0.78
3.038083474179963
% es.EZ (V/m) @ t=0.78
-11.12838093277526
% es.tEX (V/m) @ t=0.78
10.15951050238191
% es.tEY (V/m) @ t=0.78
0
% es.tEZ (V/m) @ t=0.78
-11.128380932775238
% es.Ex (V/m) @ t=0.78
10.159510502381927
% es.Ey (V/m) @ t=0.78
3.038083474179963
% es.Ez (V/m) @ t=0.78
-11.12838093277526
% es.tEx (V/m) @ t=0.78
10.15951050238191
% es.tEy (V/m) @ t=0.78
0
% es.tEz (V/m) @ t=0.78
-11.128380932775238
% V (V) @ t=0.78
0.013713147148401737
% es.normE (V/m) @ t=0.8
16.162509972802802
% es.EX (V/m) @ t=0.8
10.256731804232437
% es.EY (V/m) @ t=0.8
3.0671523911753487
% es.EZ (V/m) @ t=0.8
-11.234875878699832
% es.tEX (V/m) @ t=0.8
10.25673180423242
% es.tEY (V/m) @ t=0.8
0
% es.tEZ (V/m) @ t=0.8
-11.234875878699818
% es.Ex (V/m) @ t=0.8
10.256731804232437
% es.Ey (V/m) @ t=0.8
3.0671523911753487
% es.Ez (V/m) @ t=0.8
-11.234875878699832
% es.tEx (V/m) @ t=0.8
10.25673180423242
% es.tEy (V/m) @ t=0.8
0
% es.tEz (V/m) @ t=0.8
-11.234875878699818
% V (V) @ t=0.8
0.013844385355464065
% es.normE (V/m) @ t=0.82
16.3157126319402
% es.EX (V/m) @ t=0.82
10.353953106082928
% es.EY (V/m) @ t=0.82
3.09622130817068
% es.EZ (V/m) @ t=0.82
-11.341370824624391
% es.tEX (V/m) @ t=0.82
10.353953106082923
% es.tEY (V/m) @ t=0.82
0
% es.tEZ (V/m) @ t=0.82
-11.341370824624361
% es.Ex (V/m) @ t=0.82
10.353953106082928
% es.Ey (V/m) @ t=0.82
3.09622130817068
% es.Ez (V/m) @ t=0.82
-11.341370824624391
% es.tEx (V/m) @ t=0.82
10.353953106082923
% es.tEy (V/m) @ t=0.82
0
% es.tEz (V/m) @ t=0.82
-11.341370824624361
% V (V) @ t=0.82
0.0139756235625264
% es.normE (V/m) @ t=0.84
16.468915291079593
% es.EX (V/m) @ t=0.84
10.451174407933438
% es.EY (V/m) @ t=0.84
3.1252902251660335
% es.EZ (V/m) @ t=0.84
-11.447865770548955
% es.tEX (V/m) @ t=0.84
10.451174407933419
% es.tEY (V/m) @ t=0.84
0
% es.tEZ (V/m) @ t=0.84
-11.44786577054894
% es.Ex (V/m) @ t=0.84
10.451174407933438
% es.Ey (V/m) @ t=0.84
3.1252902251660335
% es.Ez (V/m) @ t=0.84
-11.447865770548955
% es.tEx (V/m) @ t=0.84
10.451174407933419
% es.tEy (V/m) @ t=0.84
0
% es.tEz (V/m) @ t=0.84
-11.44786577054894
% V (V) @ t=0.84
0.01410686176958873
% es.normE (V/m) @ t=0.86
16.622117950220865
% es.EX (V/m) @ t=0.86
10.548395709783911
% es.EY (V/m) @ t=0.86
3.1543591421614514
% es.EZ (V/m) @ t=0.86
-11.554360716473505
% es.tEX (V/m) @ t=0.86
10.548395709783907
% es.tEY (V/m) @ t=0.86
0
% es.tEZ (V/m) @ t=0.86
-11.554360716473484
% es.Ex (V/m) @ t=0.86
10.548395709783911
% es.Ey (V/m) @ t=0.86
3.1543591421614514
% es.Ez (V/m) @ t=0.86
-11.554360716473505
% es.tEx (V/m) @ t=0.86
10.548395709783907
% es.tEy (V/m) @ t=0.86
0
% es.tEz (V/m) @ t=0.86
-11.554360716473484
% V (V) @ t=0.86
0.014238099976651064
% es.normE (V/m) @ t=0.88
16.775320609364037
% es.EX (V/m) @ t=0.88
10.645617011634428
% es.EY (V/m) @ t=0.88
3.183428059156769
% es.EZ (V/m) @ t=0.88
-11.660855662398063
% es.tEX (V/m) @ t=0.88
10.645617011634425
% es.tEY (V/m) @ t=0.88
0
% es.tEZ (V/m) @ t=0.88
-11.660855662398042
% es.Ex (V/m) @ t=0.88
10.645617011634428
% es.Ey (V/m) @ t=0.88
3.183428059156769
% es.Ez (V/m) @ t=0.88
-11.660855662398063
% es.tEx (V/m) @ t=0.88
10.645617011634425
% es.tEy (V/m) @ t=0.88
0
% es.tEz (V/m) @ t=0.88
-11.660855662398042
% V (V) @ t=0.88
0.014369338183713392
% es.normE (V/m) @ t=0.9
16.928523268509
% es.EX (V/m) @ t=0.9
10.742838313484924
% es.EY (V/m) @ t=0.9
3.212496976152144
% es.EZ (V/m) @ t=0.9
-11.767350608322623
% es.tEX (V/m) @ t=0.9
10.742838313484913
% es.tEY (V/m) @ t=0.9
0
% es.tEZ (V/m) @ t=0.9
-11.767350608322593
% es.Ex (V/m) @ t=0.9
10.742838313484924
% es.Ey (V/m) @ t=0.9
3.212496976152144
% es.Ez (V/m) @ t=0.9
-11.767350608322623
% es.tEx (V/m) @ t=0.9
10.742838313484913
% es.tEy (V/m) @ t=0.9
0
% es.tEz (V/m) @ t=0.9
-11.767350608322593
% V (V) @ t=0.9
0.014500576390775724
% es.normE (V/m) @ t=0.92
17.081725927655743
% es.EX (V/m) @ t=0.92
10.84005961533542
% es.EY (V/m) @ t=0.92
3.2415658931474827
% es.EZ (V/m) @ t=0.92
-11.873845554247186
% es.tEX (V/m) @ t=0.92
10.840059615335417
% es.tEY (V/m) @ t=0.92
0
% es.tEZ (V/m) @ t=0.92
-11.873845554247179
% es.Ex (V/m) @ t=0.92
10.84005961533542
% es.Ey (V/m) @ t=0.92
3.2415658931474827
% es.Ez (V/m) @ t=0.92
-11.873845554247186
% es.tEx (V/m) @ t=0.92
10.840059615335417
% es.tEy (V/m) @ t=0.92
0
% es.tEz (V/m) @ t=0.92
-11.873845554247179
% V (V) @ t=0.92
0.014631814597838057
% es.normE (V/m) @ t=0.94
17.234928586804187
% es.EX (V/m) @ t=0.94
10.937280917185909
% es.EY (V/m) @ t=0.94
3.27063481014285
% es.EZ (V/m) @ t=0.94
-11.980340500171753
% es.tEX (V/m) @ t=0.94
10.937280917185891
% es.tEY (V/m) @ t=0.94
0
% es.tEZ (V/m) @ t=0.94
-11.980340500171723
% es.Ex (V/m) @ t=0.94
10.937280917185909
% es.Ey (V/m) @ t=0.94
3.27063481014285
% es.Ez (V/m) @ t=0.94
-11.980340500171753
% es.tEx (V/m) @ t=0.94
10.937280917185891
% es.tEy (V/m) @ t=0.94
0
% es.tEz (V/m) @ t=0.94
-11.980340500171723
% V (V) @ t=0.94
0.014763052804900388
% es.normE (V/m) @ t=0.96
17.38813124595432
% es.EX (V/m) @ t=0.96
11.03450221903639
% es.EY (V/m) @ t=0.96
3.2997037271382537
% es.EZ (V/m) @ t=0.96
-12.086835446096318
% es.tEX (V/m) @ t=0.96
11.034502219036385
% es.tEY (V/m) @ t=0.96
0
% es.tEZ (V/m) @ t=0.96
-12.086835446096288
% es.Ex (V/m) @ t=0.96
11.03450221903639
% es.Ey (V/m) @ t=0.96
3.2997037271382537
% es.Ez (V/m) @ t=0.96
-12.086835446096318
% es.tEx (V/m) @ t=0.96
11.034502219036385
% es.tEy (V/m) @ t=0.96
0
% es.tEz (V/m) @ t=0.96
-12.086835446096288
% V (V) @ t=0.96
0.01489429101196272
% es.normE (V/m) @ t=0.98
17.54133390510607
% es.EX (V/m) @ t=0.98
11.131723520886915
% es.EY (V/m) @ t=0.98
3.328772644133613
% es.EZ (V/m) @ t=0.98
-12.193330392020869
% es.tEX (V/m) @ t=0.98
11.13172352088689
% es.tEY (V/m) @ t=0.98
0
% es.tEZ (V/m) @ t=0.98
-12.193330392020854
% es.Ex (V/m) @ t=0.98
11.131723520886915
% es.Ey (V/m) @ t=0.98
3.328772644133613
% es.Ez (V/m) @ t=0.98
-12.193330392020869
% es.tEx (V/m) @ t=0.98
11.13172352088689
% es.tEy (V/m) @ t=0.98
0
% es.tEz (V/m) @ t=0.98
-12.193330392020854
% V (V) @ t=0.98
0.01502552921902505
% es.normE (V/m) @ t=1
17.69453656425941
% es.EX (V/m) @ t=1
11.228944822737425
% es.EY (V/m) @ t=1
3.3578415611289456
% es.EZ (V/m) @ t=1
-12.299825337945435
% es.tEX (V/m) @ t=1
11.228944822737393
% es.tEY (V/m) @ t=1
0
% es.tEZ (V/m) @ t=1
-12.299825337945412
% es.Ex (V/m) @ t=1
11.228944822737425
% es.Ey (V/m) @ t=1
3.3578415611289456
% es.Ez (V/m) @ t=1
-12.299825337945435
% es.tEx (V/m) @ t=1
11.228944822737393
% es.tEy (V/m) @ t=1
0
% es.tEz (V/m) @ t=1
-12.299825337945412
% V (V) @ t=1
0.015156767426087384
% es.normE (V/m) @ t=1.02
17.84773922341428
% es.EX (V/m) @ t=1.02
11.326166124587903
% es.EY (V/m) @ t=1.02
3.386910478124342
% es.EZ (V/m) @ t=1.02
-12.406320283869992
% es.tEX (V/m) @ t=1.02
11.326166124587889
% es.tEY (V/m) @ t=1.02
0
% es.tEZ (V/m) @ t=1.02
-12.406320283869963
% es.Ex (V/m) @ t=1.02
11.326166124587903
% es.Ey (V/m) @ t=1.02
3.386910478124342
% es.Ez (V/m) @ t=1.02
-12.406320283869992
% es.tEx (V/m) @ t=1.02
11.326166124587889
% es.tEy (V/m) @ t=1.02
0
% es.tEz (V/m) @ t=1.02
-12.406320283869963
% V (V) @ t=1.02
0.015288005633149715
% es.normE (V/m) @ t=1.04
18.004818139361234
% es.EX (V/m) @ t=1.04
11.425847510474178
% es.EY (V/m) @ t=1.04
3.4167157869535663
% es.EZ (V/m) @ t=1.04
-12.51550954467075
% es.tEX (V/m) @ t=1.04
11.425847510474151
% es.tEY (V/m) @ t=1.04
0
% es.tEZ (V/m) @ t=1.04
-12.515509544670735
% es.Ex (V/m) @ t=1.04
11.425847510474178
% es.Ey (V/m) @ t=1.04
3.4167157869535663
% es.Ez (V/m) @ t=1.04
-12.51550954467075
% es.tEx (V/m) @ t=1.04
11.425847510474151
% es.tEy (V/m) @ t=1.04
0
% es.tEz (V/m) @ t=1.04
-12.515509544670735
% V (V) @ t=1.04
0.015422562505738476
% es.normE (V/m) @ t=1.06
18.166175316227857