% Model:              1 neuron.mph
% Version:            COMSOL 6.1.0.252
% Date:               Mar 27 2023, 14:41
% Dimension:          0
% Nodes:              14017
% Expressions:        14017
% Description:        Electric field norm, Electric field, X component, Electric field, Y component, Electric field, Z component, Tangential electric field, X component, Tangential electric field, Y component, Tangential electric field, Z component, Electric field, x component, Electric field, y component, Electric field, z component, Tangential electric field, x component, Tangential electric field, y component, Tangential electric field, z component, Electric potential
% Length unit:        mm
% x
1
% y
12.2
% z
1.6599999999999997
% es.normE (V/m) @ t=0
2.8982855758656147
% es.EX (V/m) @ t=0
2.594573339027627
% es.EY (V/m) @ t=0
0.09982791908442867
% es.EZ (V/m) @ t=0
-1.287743274372478
% es.tEX (V/m) @ t=0
2.5945733390276304
% es.tEY (V/m) @ t=0
0
% es.tEZ (V/m) @ t=0
-1.287743274372474
% es.Ex (V/m) @ t=0
2.594573339027627
% es.Ey (V/m) @ t=0
0.09982791908442867
% es.Ez (V/m) @ t=0
-1.287743274372478
% es.tEx (V/m) @ t=0
2.5945733390276304
% es.tEy (V/m) @ t=0
0
% es.tEz (V/m) @ t=0
-1.287743274372474
% V (V) @ t=0
0.013149490394903648
% es.normE (V/m) @ t=0.02
2.50327709700548
% es.EX (V/m) @ t=0.02
2.2409579205351102
% es.EY (V/m) @ t=0.02
0.08622233482789987
% es.EZ (V/m) @ t=0.02
-1.1122362370674896
% es.tEX (V/m) @ t=0.02
2.2409579205350987
% es.tEY (V/m) @ t=0.02
0
% es.tEZ (V/m) @ t=0.02
-1.112236237067485
% es.Ex (V/m) @ t=0.02
2.2409579205351102
% es.Ey (V/m) @ t=0.02
0.08622233482789987
% es.Ez (V/m) @ t=0.02
-1.1122362370674896
% es.tEx (V/m) @ t=0.02
2.2409579205350987
% es.tEy (V/m) @ t=0.02
0
% es.tEz (V/m) @ t=0.02
-1.112236237067485
% V (V) @ t=0.02
0.011357341108036498
% es.normE (V/m) @ t=0.04
2.5263030984094907
% es.EX (V/m) @ t=0.04
2.261571019986682
% es.EY (V/m) @ t=0.04
0.0870154363310156
% es.EZ (V/m) @ t=0.04
-1.1224669679553099
% es.tEX (V/m) @ t=0.04
2.2615710199866816
% es.tEY (V/m) @ t=0.04
0
% es.tEZ (V/m) @ t=0.04
-1.1224669679553116
% es.Ex (V/m) @ t=0.04
2.261571019986682
% es.Ey (V/m) @ t=0.04
0.0870154363310156
% es.Ez (V/m) @ t=0.04
-1.1224669679553099
% es.tEx (V/m) @ t=0.04
2.2615710199866816
% es.tEy (V/m) @ t=0.04
0
% es.tEz (V/m) @ t=0.04
-1.1224669679553116
% V (V) @ t=0.04
0.011461809868643284
% es.normE (V/m) @ t=0.06
2.549506100832925
% es.EX (V/m) @ t=0.06
2.282342572567624
% es.EY (V/m) @ t=0.06
0.08781463474219975
% es.EZ (V/m) @ t=0.06
-1.132776342304095
% es.tEX (V/m) @ t=0.06
2.2823425725676207
% es.tEY (V/m) @ t=0.06
0
% es.tEZ (V/m) @ t=0.06
-1.1327763423040977
% es.Ex (V/m) @ t=0.06
2.282342572567624
% es.Ey (V/m) @ t=0.06
0.08781463474219975
% es.Ez (V/m) @ t=0.06
-1.132776342304095
% es.tEx (V/m) @ t=0.06
2.2823425725676207
% es.tEy (V/m) @ t=0.06
0
% es.tEz (V/m) @ t=0.06
-1.1327763423040977
% V (V) @ t=0.06
0.011567081660366966
% es.normE (V/m) @ t=0.08
2.573133560690274
% es.EX (V/m) @ t=0.08
2.3034941034462277
% es.EY (V/m) @ t=0.08
0.08862845257043023
% es.EZ (V/m) @ t=0.08
-1.1432743084786574
% es.tEX (V/m) @ t=0.08
2.303494103446222
% es.tEY (V/m) @ t=0.08
0
% es.tEZ (V/m) @ t=0.08
-1.1432743084786665
% es.Ex (V/m) @ t=0.08
2.3034941034462277
% es.Ey (V/m) @ t=0.08
0.08862845257043023
% es.Ez (V/m) @ t=0.08
-1.1432743084786574
% es.tEx (V/m) @ t=0.08
2.303494103446222
% es.tEy (V/m) @ t=0.08
0
% es.tEz (V/m) @ t=0.08
-1.1432743084786665
% V (V) @ t=0.08
0.011674279232121327
% es.normE (V/m) @ t=0.1
2.5969095428190445
% es.EX (V/m) @ t=0.1
2.3247785928628413
% es.EY (V/m) @ t=0.1
0.08944738589166196
% es.EZ (V/m) @ t=0.1
-1.153838264983687
% es.tEX (V/m) @ t=0.1
2.3247785928628373
% es.tEY (V/m) @ t=0.1
0
% es.tEZ (V/m) @ t=0.1
-1.1538382649836834
% es.Ex (V/m) @ t=0.1
2.3247785928628413
% es.Ey (V/m) @ t=0.1
0.08944738589166196
% es.Ez (V/m) @ t=0.1
-1.153838264983687
% es.tEx (V/m) @ t=0.1
2.3247785928628373
% es.tEy (V/m) @ t=0.1
0
% es.tEz (V/m) @ t=0.1
-1.1538382649836834
% V (V) @ t=0.1
0.0117821506552482
% es.normE (V/m) @ t=0.12
2.620685524947829
% es.EX (V/m) @ t=0.12
2.3460630822794615
% es.EY (V/m) @ t=0.12
0.09026631921290079
% es.EZ (V/m) @ t=0.12
-1.1644022214887344
% es.tEX (V/m) @ t=0.12
2.346063082279459
% es.tEY (V/m) @ t=0.12
0
% es.tEZ (V/m) @ t=0.12
-1.1644022214887215
% es.Ex (V/m) @ t=0.12
2.3460630822794615
% es.Ey (V/m) @ t=0.12
0.09026631921290079
% es.Ez (V/m) @ t=0.12
-1.1644022214887344
% es.tEx (V/m) @ t=0.12
2.346063082279459
% es.tEy (V/m) @ t=0.12
0
% es.tEz (V/m) @ t=0.12
-1.1644022214887215
% V (V) @ t=0.12
0.011890022078375069
% es.normE (V/m) @ t=0.14
2.645055357604585
% es.EX (V/m) @ t=0.14
2.367879193757607
% es.EY (V/m) @ t=0.14
0.09110571628029407
% es.EZ (V/m) @ t=0.14
-1.1752300295862386
% es.tEX (V/m) @ t=0.14
2.367879193757605
% es.tEY (V/m) @ t=0.14
0
% es.tEZ (V/m) @ t=0.14
-1.1752300295862455
% es.Ex (V/m) @ t=0.14
2.367879193757607
% es.Ey (V/m) @ t=0.14
0.09110571628029407
% es.Ez (V/m) @ t=0.14
-1.1752300295862386
% es.tEx (V/m) @ t=0.14
2.367879193757605
% es.tEy (V/m) @ t=0.14
0
% es.tEz (V/m) @ t=0.14
-1.1752300295862455
% V (V) @ t=0.14
0.012000587510179858
% es.normE (V/m) @ t=0.16
2.6700405653181303
% es.EX (V/m) @ t=0.16
2.3902461963116792
% es.EY (V/m) @ t=0.16
0.09196631881668615
% es.EZ (V/m) @ t=0.16
-1.186331252762213
% es.tEX (V/m) @ t=0.16
2.3902461963116775
% es.tEY (V/m) @ t=0.16
0
% es.tEZ (V/m) @ t=0.16
-1.1863312527622156
% es.Ex (V/m) @ t=0.16
2.3902461963116792
% es.Ey (V/m) @ t=0.16
0.09196631881668615
% es.Ez (V/m) @ t=0.16
-1.186331252762213
% es.tEx (V/m) @ t=0.16
2.3902461963116775
% es.tEy (V/m) @ t=0.16
0
% es.tEz (V/m) @ t=0.16
-1.1863312527622156
% V (V) @ t=0.16
0.012113944596896044
% es.normE (V/m) @ t=0.18
2.6950257730316958
% es.EX (V/m) @ t=0.18
2.412613198865766
% es.EY (V/m) @ t=0.18
0.09282692135308707
% es.EZ (V/m) @ t=0.18
-1.1974324759382013
% es.tEX (V/m) @ t=0.18
2.412613198865758
% es.tEY (V/m) @ t=0.18
0
% es.tEZ (V/m) @ t=0.18
-1.1974324759382071
% es.Ex (V/m) @ t=0.18
2.412613198865766
% es.Ey (V/m) @ t=0.18
0.09282692135308707
% es.Ez (V/m) @ t=0.18
-1.1974324759382013
% es.tEx (V/m) @ t=0.18
2.412613198865758
% es.tEy (V/m) @ t=0.18
0
% es.tEz (V/m) @ t=0.18
-1.1974324759382071
% V (V) @ t=0.18
0.012227301683612227
% es.normE (V/m) @ t=0.2
2.7200109807452115
% es.EX (V/m) @ t=0.2
2.4349802014198136
% es.EY (V/m) @ t=0.2
0.093687523889457
% es.EZ (V/m) @ t=0.2
-1.2085336991141615
% es.tEX (V/m) @ t=0.2
2.4349802014198163
% es.tEY (V/m) @ t=0.2
0
% es.tEZ (V/m) @ t=0.2
-1.208533699114163
% es.Ex (V/m) @ t=0.2
2.4349802014198136
% es.Ey (V/m) @ t=0.2
0.093687523889457
% es.Ez (V/m) @ t=0.2
-1.2085336991141615
% es.tEx (V/m) @ t=0.2
2.4349802014198163
% es.tEy (V/m) @ t=0.2
0
% es.tEz (V/m) @ t=0.2
-1.208533699114163
% V (V) @ t=0.2
0.012340658770328411
% es.normE (V/m) @ t=0.22
2.744996188458782
% es.EX (V/m) @ t=0.22
2.4573472039739035
% es.EY (V/m) @ t=0.22
0.09454812642586768
% es.EZ (V/m) @ t=0.22
-1.2196349222901537
% es.tEX (V/m) @ t=0.22
2.457347203973903
% es.tEY (V/m) @ t=0.22
0
% es.tEZ (V/m) @ t=0.22
-1.2196349222901475
% es.Ex (V/m) @ t=0.22
2.4573472039739035
% es.Ey (V/m) @ t=0.22
0.09454812642586768
% es.Ez (V/m) @ t=0.22
-1.2196349222901537
% es.tEx (V/m) @ t=0.22
2.457347203973903
% es.tEy (V/m) @ t=0.22
0
% es.tEz (V/m) @ t=0.22
-1.2196349222901475
% V (V) @ t=0.22
0.012454015857044594
% es.normE (V/m) @ t=0.24
2.7699813961723527
% es.EX (V/m) @ t=0.24
2.4797142065279942
% es.EY (V/m) @ t=0.24
0.09540872896226427
% es.EZ (V/m) @ t=0.24
-1.2307361454661456
% es.tEX (V/m) @ t=0.24
2.4797142065279907
% es.tEY (V/m) @ t=0.24
0
% es.tEZ (V/m) @ t=0.24
-1.230736145466139
% es.Ex (V/m) @ t=0.24
2.4797142065279942
% es.Ey (V/m) @ t=0.24
0.09540872896226427
% es.Ez (V/m) @ t=0.24
-1.2307361454661456
% es.tEx (V/m) @ t=0.24
2.4797142065279907
% es.tEy (V/m) @ t=0.24
0
% es.tEz (V/m) @ t=0.24
-1.230736145466139
% V (V) @ t=0.24
0.01256737294376078
% es.normE (V/m) @ t=0.26
2.794966603885875
% es.EX (V/m) @ t=0.26
2.5020812090820495
% es.EY (V/m) @ t=0.26
0.09626933149865008
% es.EZ (V/m) @ t=0.26
-1.2418373686421023
% es.tEX (V/m) @ t=0.26
2.5020812090820437
% es.tEY (V/m) @ t=0.26
0
% es.tEZ (V/m) @ t=0.26
-1.2418373686421091
% es.Ex (V/m) @ t=0.26
2.5020812090820495
% es.Ey (V/m) @ t=0.26
0.09626933149865008
% es.Ez (V/m) @ t=0.26
-1.2418373686421023
% es.tEx (V/m) @ t=0.26
2.5020812090820437
% es.tEy (V/m) @ t=0.26
0
% es.tEz (V/m) @ t=0.26
-1.2418373686421091
% V (V) @ t=0.26
0.012680730030476962
% es.normE (V/m) @ t=0.28
2.822633642274348
% es.EX (V/m) @ t=0.28
2.5268490252015043
% es.EY (V/m) @ t=0.28
0.09722239162305152
% es.EZ (V/m) @ t=0.28
-1.2541301292551243
% es.tEX (V/m) @ t=0.28
2.5268490252015026
% es.tEY (V/m) @ t=0.28
0
% es.tEZ (V/m) @ t=0.28
-1.2541301292551168
% es.Ex (V/m) @ t=0.28
2.5268490252015043
% es.Ey (V/m) @ t=0.28
0.09722239162305152
% es.Ez (V/m) @ t=0.28
-1.2541301292551243
% es.tEx (V/m) @ t=0.28
2.5268490252015026
% es.tEy (V/m) @ t=0.28
0
% es.tEz (V/m) @ t=0.28
-1.2541301292551168
% V (V) @ t=0.28
0.012806251871126226
% es.normE (V/m) @ t=0.3
2.850323070755241
% es.EX (V/m) @ t=0.3
2.5516368852551583
% es.EY (V/m) @ t=0.3
0.0981762236582
% es.EZ (V/m) @ t=0.3
-1.2664328377867888
% es.tEX (V/m) @ t=0.3
2.5516368852551494
% es.tEY (V/m) @ t=0.3
0
% es.tEZ (V/m) @ t=0.3
-1.2664328377867875
% es.Ex (V/m) @ t=0.3
2.5516368852551583
% es.Ey (V/m) @ t=0.3
0.0981762236582
% es.Ez (V/m) @ t=0.3
-1.2664328377867888
% es.tEx (V/m) @ t=0.3
2.5516368852551494
% es.tEy (V/m) @ t=0.3
0
% es.tEz (V/m) @ t=0.3
-1.2664328377867875
% V (V) @ t=0.3
0.012931875272984126
% es.normE (V/m) @ t=0.32
2.8780124992361285
% es.EX (V/m) @ t=0.32
2.5764247453088087
% es.EY (V/m) @ t=0.32
0.09913005569337874
% es.EZ (V/m) @ t=0.32
-1.278735546318432
% es.tEX (V/m) @ t=0.32
2.576424745308806
% es.tEY (V/m) @ t=0.32
0
% es.tEZ (V/m) @ t=0.32
-1.2787355463184298
% es.Ex (V/m) @ t=0.32
2.5764247453088087
% es.Ey (V/m) @ t=0.32
0.09913005569337874
% es.Ez (V/m) @ t=0.32
-1.278735546318432
% es.tEx (V/m) @ t=0.32
2.576424745308806
% es.tEy (V/m) @ t=0.32
0
% es.tEz (V/m) @ t=0.32
-1.2787355463184298
% V (V) @ t=0.32
0.013057498674842023
% es.normE (V/m) @ t=0.34
2.905701927717029
% es.EX (V/m) @ t=0.34
2.601212605362463
% es.EY (V/m) @ t=0.34
0.1000838877285326
% es.EZ (V/m) @ t=0.34
-1.2910382548500894
% es.tEX (V/m) @ t=0.34
2.601212605362454
% es.tEY (V/m) @ t=0.34
0
% es.tEZ (V/m) @ t=0.34
-1.291038254850065
% es.Ex (V/m) @ t=0.34
2.601212605362463
% es.Ey (V/m) @ t=0.34
0.1000838877285326
% es.Ez (V/m) @ t=0.34
-1.2910382548500894
% es.tEx (V/m) @ t=0.34
2.601212605362454
% es.tEy (V/m) @ t=0.34
0
% es.tEz (V/m) @ t=0.34
-1.291038254850065
% V (V) @ t=0.34
0.013183122076699921
% es.normE (V/m) @ t=0.36
2.9333913561979337
% es.EX (V/m) @ t=0.36
2.6260004654161175
% es.EY (V/m) @ t=0.36
0.10103771976369358
% es.EZ (V/m) @ t=0.36
-1.3033409633817397
% es.tEX (V/m) @ t=0.36
2.6260004654161095
% es.tEY (V/m) @ t=0.36
0
% es.tEZ (V/m) @ t=0.36
-1.3033409633817215
% es.Ex (V/m) @ t=0.36
2.6260004654161175
% es.Ey (V/m) @ t=0.36
0.10103771976369358
% es.Ez (V/m) @ t=0.36
-1.3033409633817397
% es.tEx (V/m) @ t=0.36
2.6260004654161095
% es.tEy (V/m) @ t=0.36
0
% es.tEz (V/m) @ t=0.36
-1.3033409633817215
% V (V) @ t=0.36
0.013308745478557819
% es.normE (V/m) @ t=0.38
2.961080784678829
% es.EX (V/m) @ t=0.38
2.650788325469765
% es.EY (V/m) @ t=0.38
0.10199155179887315
% es.EZ (V/m) @ t=0.38
-1.3156436719133722
% es.tEX (V/m) @ t=0.38
2.650788325469752
% es.tEY (V/m) @ t=0.38
0
% es.tEZ (V/m) @ t=0.38
-1.3156436719133566
% es.Ex (V/m) @ t=0.38
2.650788325469765
% es.Ey (V/m) @ t=0.38
0.10199155179887315
% es.Ez (V/m) @ t=0.38
-1.3156436719133722
% es.tEx (V/m) @ t=0.38
2.650788325469752
% es.tEy (V/m) @ t=0.38
0
% es.tEz (V/m) @ t=0.38
-1.3156436719133566
% V (V) @ t=0.38
0.013434368880415715
% es.normE (V/m) @ t=0.4
2.9887702131597407
% es.EX (V/m) @ t=0.4
2.675576185523415
% es.EY (V/m) @ t=0.4
0.10294538383402352
% es.EZ (V/m) @ t=0.4
-1.3279463804450262
% es.tEX (V/m) @ t=0.4
2.675576185523406
% es.tEY (V/m) @ t=0.4
0
% es.tEZ (V/m) @ t=0.4
-1.327946380445006
% es.Ex (V/m) @ t=0.4
2.675576185523415
% es.Ey (V/m) @ t=0.4
0.10294538383402352
% es.Ez (V/m) @ t=0.4
-1.3279463804450262
% es.tEx (V/m) @ t=0.4
2.675576185523406
% es.tEy (V/m) @ t=0.4
0
% es.tEz (V/m) @ t=0.4
-1.327946380445006
% V (V) @ t=0.4
0.013559992282273616
% es.normE (V/m) @ t=0.42
3.0164596416406666
% es.EX (V/m) @ t=0.42
2.7003640455770728
% es.EY (V/m) @ t=0.42
0.10389921586915601
% es.EZ (V/m) @ t=0.42
-1.3402490889766872
% es.tEX (V/m) @ t=0.42
2.7003640455770688
% es.tEY (V/m) @ t=0.42
0
% es.tEZ (V/m) @ t=0.42
-1.3402490889766696
% es.Ex (V/m) @ t=0.42
2.7003640455770728
% es.Ey (V/m) @ t=0.42
0.10389921586915601
% es.Ez (V/m) @ t=0.42
-1.3402490889766872
% es.tEx (V/m) @ t=0.42
2.7003640455770688
% es.tEy (V/m) @ t=0.42
0
% es.tEz (V/m) @ t=0.42
-1.3402490889766696
% V (V) @ t=0.42
0.013685615684131514
% es.normE (V/m) @ t=0.44
3.0441490701215796
% es.EX (V/m) @ t=0.44
2.725151905630721
% es.EY (V/m) @ t=0.44
0.10485304790434902
% es.EZ (V/m) @ t=0.44
-1.3525517975083234
% es.tEX (V/m) @ t=0.44
2.7251519056307174
% es.tEY (V/m) @ t=0.44
0
% es.tEZ (V/m) @ t=0.44
-1.352551797508326
% es.Ex (V/m) @ t=0.44
2.725151905630721
% es.Ey (V/m) @ t=0.44
0.10485304790434902
% es.Ez (V/m) @ t=0.44
-1.3525517975083234
% es.tEx (V/m) @ t=0.44
2.7251519056307174
% es.tEy (V/m) @ t=0.44
0
% es.tEz (V/m) @ t=0.44
-1.352551797508326
% V (V) @ t=0.44
0.013811239085989411
% es.normE (V/m) @ t=0.46
3.071838498602512
% es.EX (V/m) @ t=0.46
2.749939765684378
% es.EY (V/m) @ t=0.46
0.10580687993949572
% es.EZ (V/m) @ t=0.46
-1.3648545060399773
% es.tEX (V/m) @ t=0.46
2.749939765684373
% es.tEY (V/m) @ t=0.46
0
% es.tEZ (V/m) @ t=0.46
-1.3648545060399755
% es.Ex (V/m) @ t=0.46
2.749939765684378
% es.Ey (V/m) @ t=0.46
0.10580687993949572
% es.Ez (V/m) @ t=0.46
-1.3648545060399773
% es.tEx (V/m) @ t=0.46
2.749939765684373
% es.tEy (V/m) @ t=0.46
0
% es.tEz (V/m) @ t=0.46
-1.3648545060399755
% V (V) @ t=0.46
0.013936862487847309
% es.normE (V/m) @ t=0.48
3.0995279270834377
% es.EX (V/m) @ t=0.48
2.7747276257380253
% es.EY (V/m) @ t=0.48
0.10676071197464598
% es.EZ (V/m) @ t=0.48
-1.3771572145716275
% es.tEX (V/m) @ t=0.48
2.774727625738022
% es.tEY (V/m) @ t=0.48
0
% es.tEZ (V/m) @ t=0.48
-1.3771572145716178
% es.Ex (V/m) @ t=0.48
2.7747276257380253
% es.Ey (V/m) @ t=0.48
0.10676071197464598
% es.Ez (V/m) @ t=0.48
-1.3771572145716275
% es.tEx (V/m) @ t=0.48
2.774727625738022
% es.tEy (V/m) @ t=0.48
0
% es.tEz (V/m) @ t=0.48
-1.3771572145716178
% V (V) @ t=0.48
0.014062485889705207
% es.normE (V/m) @ t=0.5
3.127217355564373
% es.EX (V/m) @ t=0.5
2.7995154857916766
% es.EY (V/m) @ t=0.5
0.10771454400981412
% es.EZ (V/m) @ t=0.5
-1.3894599231032778
% es.tEX (V/m) @ t=0.5
2.7995154857916775
% es.tEY (V/m) @ t=0.5
0
% es.tEZ (V/m) @ t=0.5
-1.38945992310326
% es.Ex (V/m) @ t=0.5
2.7995154857916766
% es.Ey (V/m) @ t=0.5
0.10771454400981412
% es.Ez (V/m) @ t=0.5
-1.3894599231032778
% es.tEx (V/m) @ t=0.5
2.7995154857916775
% es.tEy (V/m) @ t=0.5
0
% es.tEz (V/m) @ t=0.5
-1.38945992310326
% V (V) @ t=0.5
0.014188109291563104
% es.normE (V/m) @ t=0.52
3.1549067840453136
% es.EX (V/m) @ t=0.52
2.8243033458453297
% es.EY (V/m) @ t=0.52
0.10866837604497859
% es.EZ (V/m) @ t=0.52
-1.4017626316349283
% es.tEX (V/m) @ t=0.52
2.824303345845326
% es.tEY (V/m) @ t=0.52
0
% es.tEZ (V/m) @ t=0.52
-1.4017626316349237
% es.Ex (V/m) @ t=0.52
2.8243033458453297
% es.Ey (V/m) @ t=0.52
0.10866837604497859
% es.Ez (V/m) @ t=0.52
-1.4017626316349283
% es.tEx (V/m) @ t=0.52
2.824303345845326
% es.tEy (V/m) @ t=0.52
0
% es.tEz (V/m) @ t=0.52
-1.4017626316349237
% V (V) @ t=0.52
0.014313732693421004
% es.normE (V/m) @ t=0.54
3.18562233220874
% es.EX (V/m) @ t=0.54
2.85180018596221
% es.EY (V/m) @ t=0.54
0.10972619756682228
% es.EZ (V/m) @ t=0.54
-1.4154099641269542
% es.tEX (V/m) @ t=0.54
2.851800185962217
% es.tEY (V/m) @ t=0.54
0
% es.tEZ (V/m) @ t=0.54
-1.4154099641269298
% es.Ex (V/m) @ t=0.54
2.85180018596221
% es.Ey (V/m) @ t=0.54
0.10972619756682228
% es.Ez (V/m) @ t=0.54
-1.4154099641269542
% es.tEx (V/m) @ t=0.54
2.851800185962217
% es.tEy (V/m) @ t=0.54
0
% es.tEz (V/m) @ t=0.54
-1.4154099641269298
% V (V) @ t=0.54
0.014453092627599608
% es.normE (V/m) @ t=0.56
3.2163593315890235
% es.EX (V/m) @ t=0.56
2.8793162291922716
% es.EY (V/m) @ t=0.56
0.1107847562376813
% es.EZ (V/m) @ t=0.56
-1.4290668282380716
% es.tEX (V/m) @ t=0.56
2.87931622919227
% es.tEY (V/m) @ t=0.56
0
% es.tEZ (V/m) @ t=0.56
-1.4290668282380636
% es.Ex (V/m) @ t=0.56
2.8793162291922716
% es.Ey (V/m) @ t=0.56
0.1107847562376813
% es.Ez (V/m) @ t=0.56
-1.4290668282380716
% es.tEx (V/m) @ t=0.56
2.87931622919227
% es.tEy (V/m) @ t=0.56
0
% es.tEz (V/m) @ t=0.56
-1.4290668282380636
% V (V) @ t=0.56
0.014592549935763572
% es.normE (V/m) @ t=0.58
3.247096330969333
% es.EX (V/m) @ t=0.58
2.9068322724223474
% es.EY (V/m) @ t=0.58
0.11184331490853855
% es.EZ (V/m) @ t=0.58
-1.4427236923491962
% es.tEX (V/m) @ t=0.58
2.9068322724223297
% es.tEY (V/m) @ t=0.58
0
% es.tEZ (V/m) @ t=0.58
-1.4427236923491762
% es.Ex (V/m) @ t=0.58
2.9068322724223474
% es.Ey (V/m) @ t=0.58
0.11184331490853855
% es.Ez (V/m) @ t=0.58
-1.4427236923491962
% es.tEx (V/m) @ t=0.58
2.9068322724223297
% es.tEy (V/m) @ t=0.58
0
% es.tEz (V/m) @ t=0.58
-1.4427236923491762
% V (V) @ t=0.58
0.014732007243927533
% es.normE (V/m) @ t=0.6
3.2778333303496616
% es.EX (V/m) @ t=0.6
2.934348315652418
% es.EY (V/m) @ t=0.6
0.11290187357939407
% es.EZ (V/m) @ t=0.6
-1.456380556460349
% es.tEX (V/m) @ t=0.6
2.934348315652425
% es.tEY (V/m) @ t=0.6
0
% es.tEZ (V/m) @ t=0.6
-1.4563805564603385
% es.Ex (V/m) @ t=0.6
2.934348315652418
% es.Ey (V/m) @ t=0.6
0.11290187357939407
% es.Ez (V/m) @ t=0.6
-1.456380556460349
% es.tEx (V/m) @ t=0.6
2.934348315652425
% es.tEy (V/m) @ t=0.6
0
% es.tEz (V/m) @ t=0.6
-1.4563805564603385
% V (V) @ t=0.6
0.014871464552091495
% es.normE (V/m) @ t=0.62
3.3085703297299798
% es.EX (V/m) @ t=0.62
2.9618643588824796
% es.EY (V/m) @ t=0.62
0.11396043225022912
% es.EZ (V/m) @ t=0.62
-1.4700374205714735
% es.tEX (V/m) @ t=0.62
2.961864358882478
% es.tEY (V/m) @ t=0.62
0
% es.tEZ (V/m) @ t=0.62
-1.4700374205714652
% es.Ex (V/m) @ t=0.62
2.9618643588824796
% es.Ey (V/m) @ t=0.62
0.11396043225022912
% es.Ez (V/m) @ t=0.62
-1.4700374205714735
% es.tEx (V/m) @ t=0.62
2.961864358882478
% es.tEy (V/m) @ t=0.62
0
% es.tEz (V/m) @ t=0.62
-1.4700374205714652
% V (V) @ t=0.62
0.015010921860255455
% es.normE (V/m) @ t=0.64
3.3393073291103184
% es.EX (V/m) @ t=0.64
2.989380402112552
% es.EY (V/m) @ t=0.64
0.11501899092109252
% es.EZ (V/m) @ t=0.64
-1.4836942846825978
% es.tEX (V/m) @ t=0.64
2.989380402112552
% es.tEY (V/m) @ t=0.64
0
% es.tEZ (V/m) @ t=0.64
-1.483694284682585
% es.Ex (V/m) @ t=0.64
2.989380402112552
% es.Ey (V/m) @ t=0.64
0.11501899092109252
% es.Ez (V/m) @ t=0.64
-1.4836942846825978
% es.tEx (V/m) @ t=0.64
2.989380402112552
% es.tEy (V/m) @ t=0.64
0
% es.tEz (V/m) @ t=0.64
-1.483694284682585
% V (V) @ t=0.64
0.015150379168419416
% es.normE (V/m) @ t=0.66
3.3700443284906747
% es.EX (V/m) @ t=0.66
3.0168964453426317
% es.EY (V/m) @ t=0.66
0.11607754959193378
% es.EZ (V/m) @ t=0.66
-1.4973511487937259
% es.tEX (V/m) @ t=0.66
3.016896445342619
% es.tEY (V/m) @ t=0.66
0
% es.tEZ (V/m) @ t=0.66
-1.4973511487937117
% es.Ex (V/m) @ t=0.66
3.0168964453426317
% es.Ey (V/m) @ t=0.66
0.11607754959193378
% es.Ez (V/m) @ t=0.66
-1.4973511487937259
% es.tEx (V/m) @ t=0.66
3.016896445342619
% es.tEy (V/m) @ t=0.66
0
% es.tEz (V/m) @ t=0.66
-1.4973511487937117
% V (V) @ t=0.66
0.01528983647658338
% es.normE (V/m) @ t=0.68
3.4007813278710417
% es.EX (V/m) @ t=0.68
3.044412488572701
% es.EY (V/m) @ t=0.68
0.11713610826282844
% es.EZ (V/m) @ t=0.68
-1.5110080129048717
% es.tEX (V/m) @ t=0.68
3.0444124885727017
% es.tEY (V/m) @ t=0.68
0
% es.tEZ (V/m) @ t=0.68
-1.5110080129048669
% es.Ex (V/m) @ t=0.68
3.044412488572701
% es.Ey (V/m) @ t=0.68
0.11713610826282844
% es.Ez (V/m) @ t=0.68
-1.5110080129048717
% es.tEx (V/m) @ t=0.68
3.0444124885727017
% es.tEy (V/m) @ t=0.68
0
% es.tEz (V/m) @ t=0.68
-1.5110080129048669
% V (V) @ t=0.68
0.01542929378474734
% es.normE (V/m) @ t=0.7
3.4315183272513985
% es.EX (V/m) @ t=0.7
3.0719285318027625
% es.EY (V/m) @ t=0.7
0.11819466693364572
% es.EZ (V/m) @ t=0.7
-1.524664877015996
% es.tEX (V/m) @ t=0.7
3.0719285318027616
% es.tEY (V/m) @ t=0.7
0
% es.tEZ (V/m) @ t=0.7
-1.5246648770159723
% es.Ex (V/m) @ t=0.7
3.0719285318027625
% es.Ey (V/m) @ t=0.7
0.11819466693364572
% es.Ez (V/m) @ t=0.7
-1.524664877015996
% es.tEx (V/m) @ t=0.7
3.0719285318027616
% es.tEy (V/m) @ t=0.7
0
% es.tEz (V/m) @ t=0.7
-1.5246648770159723
% V (V) @ t=0.7
0.015568751092911302
% es.normE (V/m) @ t=0.72
3.462255326631781
% es.EX (V/m) @ t=0.72
3.0994445750328365
% es.EY (V/m) @ t=0.72
0.11925322560447366
% es.EZ (V/m) @ t=0.72
-1.5383217411271313
% es.tEX (V/m) @ t=0.72
3.0994445750328286
% es.tEY (V/m) @ t=0.72
0
% es.tEZ (V/m) @ t=0.72
-1.5383217411271133
% es.Ex (V/m) @ t=0.72
3.0994445750328365
% es.Ey (V/m) @ t=0.72
0.11925322560447366
% es.Ez (V/m) @ t=0.72
-1.5383217411271313
% es.tEx (V/m) @ t=0.72
3.0994445750328286
% es.tEy (V/m) @ t=0.72
0
% es.tEz (V/m) @ t=0.72
-1.5383217411271133
% V (V) @ t=0.72
0.01570820840107526
% es.normE (V/m) @ t=0.74
3.4929923260121587
% es.EX (V/m) @ t=0.74
3.1269606182629017
% es.EY (V/m) @ t=0.74
0.12031178427534422
% es.EZ (V/m) @ t=0.74
-1.5519786052382485
% es.tEX (V/m) @ t=0.74
3.1269606182628955
% es.tEY (V/m) @ t=0.74
0
% es.tEZ (V/m) @ t=0.74
-1.55197860523824
% es.Ex (V/m) @ t=0.74
3.1269606182629017
% es.Ey (V/m) @ t=0.74
0.12031178427534422
% es.Ez (V/m) @ t=0.74
-1.5519786052382485
% es.tEx (V/m) @ t=0.74
3.1269606182628955
% es.tEy (V/m) @ t=0.74
0
% es.tEz (V/m) @ t=0.74
-1.55197860523824
% V (V) @ t=0.74
0.015847665709239223
% es.normE (V/m) @ t=0.76
3.523729325392562
% es.EX (V/m) @ t=0.76
3.154476661492982
% es.EY (V/m) @ t=0.76
0.12137034294619348
% es.EZ (V/m) @ t=0.76
-1.5656354693493766
% es.tEX (V/m) @ t=0.76
3.1544766614929785
% es.tEY (V/m) @ t=0.76
0
% es.tEZ (V/m) @ t=0.76
-1.5656354693493668
% es.Ex (V/m) @ t=0.76
3.154476661492982
% es.Ey (V/m) @ t=0.76
0.12137034294619348
% es.Ez (V/m) @ t=0.76
-1.5656354693493766
% es.tEx (V/m) @ t=0.76
3.1544766614929785
% es.tEy (V/m) @ t=0.76
0
% es.tEz (V/m) @ t=0.76
-1.5656354693493668
% V (V) @ t=0.76
0.015987123017403182
% es.normE (V/m) @ t=0.78
3.554466324772941
% es.EX (V/m) @ t=0.78
3.1819927047230254
% es.EY (V/m) @ t=0.78
0.12242890161703207
% es.EZ (V/m) @ t=0.78
-1.5792923334605047
% es.tEX (V/m) @ t=0.78
3.181992704723015
% es.tEY (V/m) @ t=0.78
0
% es.tEZ (V/m) @ t=0.78
-1.5792923334604936
% es.Ex (V/m) @ t=0.78
3.1819927047230254
% es.Ey (V/m) @ t=0.78
0.12242890161703207
% es.Ez (V/m) @ t=0.78
-1.5792923334605047
% es.tEx (V/m) @ t=0.78
3.181992704723015
% es.tEy (V/m) @ t=0.78
0
% es.tEz (V/m) @ t=0.78
-1.5792923334604936
% V (V) @ t=0.78
0.016126580325567144
% es.normE (V/m) @ t=0.8
3.588621208476935
% es.EX (V/m) @ t=0.8
3.212568531265684
% es.EY (V/m) @ t=0.8
0.1236056800399069
% es.EZ (V/m) @ t=0.8
-1.5944676452217945
% es.tEX (V/m) @ t=0.8
3.212568531265683
% es.tEY (V/m) @ t=0.8
0
% es.tEZ (V/m) @ t=0.8
-1.5944676452217763
% es.Ex (V/m) @ t=0.8
3.212568531265684
% es.Ey (V/m) @ t=0.8
0.1236056800399069
% es.Ez (V/m) @ t=0.8
-1.5944676452217945
% es.tEx (V/m) @ t=0.8
3.212568531265683
% es.tEy (V/m) @ t=0.8
0
% es.tEz (V/m) @ t=0.8
-1.5944676452217763
% V (V) @ t=0.8
0.01628153063812665
% es.normE (V/m) @ t=0.82
3.6227960242963224
% es.EX (V/m) @ t=0.82
3.243162201581908
% es.EY (V/m) @ t=0.82
0.1247831478862319
% es.EZ (V/m) @ t=0.82
-1.6096518121316912
% es.tEX (V/m) @ t=0.82
3.243162201581887
% es.tEY (V/m) @ t=0.82
0
% es.tEZ (V/m) @ t=0.82
-1.6096518121316805
% es.Ex (V/m) @ t=0.82
3.243162201581908
% es.Ey (V/m) @ t=0.82
0.1247831478862319
% es.Ez (V/m) @ t=0.82
-1.6096518121316912
% es.tEx (V/m) @ t=0.82
3.243162201581887
% es.tEy (V/m) @ t=0.82
0
% es.tEz (V/m) @ t=0.82
-1.6096518121316805
% V (V) @ t=0.82
0.01643657130141838
% es.normE (V/m) @ t=0.84
3.656970840115789
% es.EX (V/m) @ t=0.84
3.2737558718981323
% es.EY (V/m) @ t=0.84
0.12596061573260398
% es.EZ (V/m) @ t=0.84
-1.6248359790416378
% es.tEX (V/m) @ t=0.84
3.2737558718981354
% es.tEY (V/m) @ t=0.84
0
% es.tEZ (V/m) @ t=0.84
-1.6248359790416274
% es.Ex (V/m) @ t=0.84
3.2737558718981323
% es.Ey (V/m) @ t=0.84
0.12596061573260398
% es.Ez (V/m) @ t=0.84
-1.6248359790416378
% es.tEx (V/m) @ t=0.84
3.2737558718981354
% es.tEy (V/m) @ t=0.84
0
% es.tEz (V/m) @ t=0.84
-1.6248359790416274
% V (V) @ t=0.84
0.016591611964710113
% es.normE (V/m) @ t=0.86
3.691145655935313
% es.EX (V/m) @ t=0.86
3.304349542214369
% es.EY (V/m) @ t=0.86
0.1271380835789423
% es.EZ (V/m) @ t=0.86
-1.6400201459515702
% es.tEX (V/m) @ t=0.86
3.304349542214366
% es.tEY (V/m) @ t=0.86
0
% es.tEZ (V/m) @ t=0.86
-1.640020145951567
% es.Ex (V/m) @ t=0.86
3.304349542214369
% es.Ey (V/m) @ t=0.86
0.1271380835789423
% es.Ez (V/m) @ t=0.86
-1.6400201459515702
% es.tEx (V/m) @ t=0.86
3.304349542214366
% es.tEy (V/m) @ t=0.86
0
% es.tEz (V/m) @ t=0.86
-1.640020145951567
% V (V) @ t=0.86
0.016746652628001846
% es.normE (V/m) @ t=0.88
3.7253204717548782
% es.EX (V/m) @ t=0.88
3.334943212530594
% es.EY (V/m) @ t=0.88
0.12831555142527262
% es.EZ (V/m) @ t=0.88
-1.6552043128615024
% es.tEX (V/m) @ t=0.88
3.334943212530586
% es.tEY (V/m) @ t=0.88
0
% es.tEZ (V/m) @ t=0.88
-1.6552043128614855
% es.Ex (V/m) @ t=0.88
3.334943212530594
% es.Ey (V/m) @ t=0.88
0.12831555142527262
% es.Ez (V/m) @ t=0.88
-1.6552043128615024
% es.tEx (V/m) @ t=0.88
3.334943212530586
% es.tEy (V/m) @ t=0.88
0
% es.tEz (V/m) @ t=0.88
-1.6552043128614855
% V (V) @ t=0.88
0.01690169329129358
% es.normE (V/m) @ t=0.9
3.7594952875744725
% es.EX (V/m) @ t=0.9
3.3655368828468175
% es.EY (V/m) @ t=0.9
0.12949301927160028
% es.EZ (V/m) @ t=0.9
-1.6703884797713886
% es.tEX (V/m) @ t=0.9
3.3655368828468184
% es.tEY (V/m) @ t=0.9
0
% es.tEZ (V/m) @ t=0.9
-1.6703884797713897
% es.Ex (V/m) @ t=0.9
3.3655368828468175
% es.Ey (V/m) @ t=0.9
0.12949301927160028
% es.Ez (V/m) @ t=0.9
-1.6703884797713886
% es.tEx (V/m) @ t=0.9
3.3655368828468184
% es.tEy (V/m) @ t=0.9
0
% es.tEz (V/m) @ t=0.9
-1.6703884797713897
% V (V) @ t=0.9
0.017056733954585308
% es.normE (V/m) @ t=0.92
3.7936701033941373
% es.EX (V/m) @ t=0.92
3.396130553163041
% es.EY (V/m) @ t=0.92
0.1306704871179386
% es.EZ (V/m) @ t=0.92
-1.685572646681321
% es.tEX (V/m) @ t=0.92
3.396130553163035
% es.tEY (V/m) @ t=0.92
0
% es.tEZ (V/m) @ t=0.92
-1.6855726466813223
% es.Ex (V/m) @ t=0.92
3.396130553163041
% es.Ey (V/m) @ t=0.92
0.1306704871179386
% es.Ez (V/m) @ t=0.92
-1.685572646681321
% es.tEx (V/m) @ t=0.92
3.396130553163035
% es.tEy (V/m) @ t=0.92
0
% es.tEz (V/m) @ t=0.92
-1.6855726466813223
% V (V) @ t=0.92
0.017211774617877037
% es.normE (V/m) @ t=0.94
3.8278449192138817
% es.EX (V/m) @ t=0.94
3.426724223479285
% es.EY (V/m) @ t=0.94
0.13184795496429375
% es.EZ (V/m) @ t=0.94
-1.7007568135912816
% es.tEX (V/m) @ t=0.94
3.4267242234792814
% es.tEY (V/m) @ t=0.94
0
% es.tEZ (V/m) @ t=0.94
-1.7007568135912692
% es.Ex (V/m) @ t=0.94
3.426724223479285
% es.Ey (V/m) @ t=0.94
0.13184795496429375
% es.Ez (V/m) @ t=0.94
-1.7007568135912816
% es.tEx (V/m) @ t=0.94
3.4267242234792814
% es.tEy (V/m) @ t=0.94
0
% es.tEz (V/m) @ t=0.94
-1.7007568135912692
% V (V) @ t=0.94
0.01736681528116877
% es.normE (V/m) @ t=0.96
3.8620197350336216
% es.EX (V/m) @ t=0.96
3.457317893795503
% es.EY (V/m) @ t=0.96
0.1330254228106214
% es.EZ (V/m) @ t=0.96
-1.7159409805011818
% es.tEX (V/m) @ t=0.96
3.457317893795489
% es.tEY (V/m) @ t=0.96
0
% es.tEZ (V/m) @ t=0.96
-1.7159409805011734
% es.Ex (V/m) @ t=0.96
3.457317893795503
% es.Ey (V/m) @ t=0.96
0.1330254228106214
% es.Ez (V/m) @ t=0.96
-1.7159409805011818
% es.tEx (V/m) @ t=0.96
3.457317893795489
% es.tEy (V/m) @ t=0.96
0
% es.tEz (V/m) @ t=0.96
-1.7159409805011734
% V (V) @ t=0.96
0.017521855944460502
% es.normE (V/m) @ t=0.98
3.8961945508534437
% es.EX (V/m) @ t=0.98
3.48791156411174
% es.EY (V/m) @ t=0.98
0.13420289065698282
% es.EZ (V/m) @ t=0.98
-1.7311251474111249
% es.tEX (V/m) @ t=0.98
3.4879115641117338
% es.tEY (V/m) @ t=0.98
0
% es.tEZ (V/m) @ t=0.98
-1.7311251474111202
% es.Ex (V/m) @ t=0.98
3.48791156411174
% es.Ey (V/m) @ t=0.98
0.13420289065698282
% es.Ez (V/m) @ t=0.98
-1.7311251474111249
% es.tEx (V/m) @ t=0.98
3.4879115641117338
% es.tEy (V/m) @ t=0.98
0
% es.tEz (V/m) @ t=0.98
-1.7311251474111202
% V (V) @ t=0.98
0.01767689660775223
% es.normE (V/m) @ t=1
3.930369366673289
% es.EX (V/m) @ t=1
3.5185052344279635
% es.EY (V/m) @ t=1
0.1353803585032856
% es.EZ (V/m) @ t=1
-1.7463093143210502
% es.tEX (V/m) @ t=1
3.518505234427936
% es.tEY (V/m) @ t=1
0
% es.tEZ (V/m) @ t=1
-1.7463093143210244
% es.Ex (V/m) @ t=1
3.5185052344279635
% es.Ey (V/m) @ t=1
0.1353803585032856
% es.Ez (V/m) @ t=1
-1.7463093143210502
% es.tEx (V/m) @ t=1
3.518505234427936
% es.tEy (V/m) @ t=1
0
% es.tEz (V/m) @ t=1
-1.7463093143210244
% V (V) @ t=1
0.017831937271043964
% es.normE (V/m) @ t=1.02
3.964544182493171
% es.EX (V/m) @ t=1.02
3.5490989047441728
% es.EY (V/m) @ t=1.02
0.1365578263496417
% es.EZ (V/m) @ t=1.02
-1.761493481230986
% es.tEX (V/m) @ t=1.02
3.5490989047441843
% es.tEY (V/m) @ t=1.02
0
% es.tEZ (V/m) @ t=1.02
-1.7614934812309428
% es.Ex (V/m) @ t=1.02
3.5490989047441728
% es.Ey (V/m) @ t=1.02
0.1365578263496417
% es.Ez (V/m) @ t=1.02
-1.761493481230986
% es.tEx (V/m) @ t=1.02
3.5490989047441843
% es.tEy (V/m) @ t=1.02
0
% es.tEz (V/m) @ t=1.02
-1.7614934812309428
% V (V) @ t=1.02
0.017986977934335693
% es.normE (V/m) @ t=1.04
3.9987189983131275
% es.EX (V/m) @ t=1.04
3.5796925750604256
% es.EY (V/m) @ t=1.04
0.13773529419599334
% es.EZ (V/m) @ t=1.04
-1.7766776481409077
% es.tEX (V/m) @ t=1.04
3.579692575060431
% es.tEY (V/m) @ t=1.04
0
% es.tEZ (V/m) @ t=1.04
-1.7766776481408897
% es.Ex (V/m) @ t=1.04