% Model:              1 neuron.mph
% Version:            COMSOL 6.1.0.252
% Date:               Mar 27 2023, 14:31
% Dimension:          0
% Nodes:              14017
% Expressions:        14017
% Description:        Electric field norm, Electric field, X component, Electric field, Y component, Electric field, Z component, Tangential electric field, X component, Tangential electric field, Y component, Tangential electric field, Z component, Electric field, x component, Electric field, y component, Electric field, z component, Tangential electric field, x component, Tangential electric field, y component, Tangential electric field, z component, Electric potential
% Length unit:        mm
% x
1.66
% y
12.2
% z
2
% es.normE (V/m) @ t=0
2.5964641320633373
% es.EX (V/m) @ t=0
-0.7745765977318793
% es.EY (V/m) @ t=0
0.0578576576496662
% es.EZ (V/m) @ t=0
-2.4733922632232925
% es.tEX (V/m) @ t=0
-0.7745765977318797
% es.tEY (V/m) @ t=0
0
% es.tEZ (V/m) @ t=0
-2.4733922632233245
% es.Ex (V/m) @ t=0
-0.7745765977318793
% es.Ey (V/m) @ t=0
0.0578576576496662
% es.Ez (V/m) @ t=0
-2.4733922632232925
% es.tEx (V/m) @ t=0
-0.7745765977318797
% es.tEy (V/m) @ t=0
0
% es.tEz (V/m) @ t=0
-2.4733922632233245
% V (V) @ t=0
0.013050911851120459
% es.normE (V/m) @ t=0.02
2.2425879143577006
% es.EX (V/m) @ t=0.02
-0.6690083239003954
% es.EY (V/m) @ t=0.02
0.0499721460917798
% es.EZ (V/m) @ t=0.02
-2.1362897058075427
% es.tEX (V/m) @ t=0.02
-0.6690083239004068
% es.tEY (V/m) @ t=0.02
0
% es.tEZ (V/m) @ t=0.02
-2.136289705807566
% es.Ex (V/m) @ t=0.02
-0.6690083239003954
% es.Ey (V/m) @ t=0.02
0.0499721460917798
% es.Ez (V/m) @ t=0.02
-2.1362897058075427
% es.tEx (V/m) @ t=0.02
-0.6690083239004068
% es.tEy (V/m) @ t=0.02
0
% es.tEz (V/m) @ t=0.02
-2.136289705807566
% V (V) @ t=0.02
0.011272182348494132
% es.normE (V/m) @ t=0.04
2.2632131683667778
% es.EX (V/m) @ t=0.04
-0.6751612448729756
% es.EY (V/m) @ t=0.04
0.050431742512496686
% es.EZ (V/m) @ t=0.04
-2.155937327128738
% es.tEX (V/m) @ t=0.04
-0.675161244872978
% es.tEY (V/m) @ t=0.04
0
% es.tEZ (V/m) @ t=0.04
-2.155937327128772
% es.Ex (V/m) @ t=0.04
-0.6751612448729756
% es.Ey (V/m) @ t=0.04
0.050431742512496686
% es.Ez (V/m) @ t=0.04
-2.155937327128738
% es.tEx (V/m) @ t=0.04
-0.675161244872978
% es.tEy (V/m) @ t=0.04
0
% es.tEz (V/m) @ t=0.04
-2.155937327128772
% V (V) @ t=0.04
0.011375853511903037
% es.normE (V/m) @ t=0.06
2.2839903599134166
% es.EX (V/m) @ t=0.06
-0.6813594912007007
% es.EY (V/m) @ t=0.06
0.050894721013950275
% es.EZ (V/m) @ t=0.06
-2.175729684593419
% es.tEX (V/m) @ t=0.06
-0.681359491200709
% es.tEY (V/m) @ t=0.06
0
% es.tEZ (V/m) @ t=0.06
-2.1757296845934357
% es.Ex (V/m) @ t=0.06
-0.6813594912007007
% es.Ey (V/m) @ t=0.06
0.050894721013950275
% es.Ez (V/m) @ t=0.06
-2.175729684593419
% es.tEx (V/m) @ t=0.06
-0.681359491200709
% es.tEy (V/m) @ t=0.06
0
% es.tEz (V/m) @ t=0.06
-2.1757296845934357
% V (V) @ t=0.06
0.011480288471853072
% es.normE (V/m) @ t=0.08
2.3051621484270646
% es.EX (V/m) @ t=0.08
-0.6876754562377183
% es.EY (V/m) @ t=0.08
0.05136650808301729
% es.EZ (V/m) @ t=0.08
-2.195897933416454
% es.tEX (V/m) @ t=0.08
-0.6876754562377236
% es.tEY (V/m) @ t=0.08
0
% es.tEZ (V/m) @ t=0.08
-2.1958979334164663
% es.Ex (V/m) @ t=0.08
-0.6876754562377183
% es.Ey (V/m) @ t=0.08
0.05136650808301729
% es.Ez (V/m) @ t=0.08
-2.195897933416454
% es.tEx (V/m) @ t=0.08
-0.6876754562377236
% es.tEy (V/m) @ t=0.08
0
% es.tEz (V/m) @ t=0.08
-2.1958979334164663
% V (V) @ t=0.08
0.011586706428599807
% es.normE (V/m) @ t=0.1
2.326447048052328
% es.EX (V/m) @ t=0.1
-0.6940251653102415
% es.EY (V/m) @ t=0.1
0.051840820125565124
% es.EZ (V/m) @ t=0.1
-2.2161739313935493
% es.tEX (V/m) @ t=0.1
-0.6940251653102543
% es.tEY (V/m) @ t=0.1
0
% es.tEZ (V/m) @ t=0.1
-2.2161739313935733
% es.Ex (V/m) @ t=0.1
-0.6940251653102415
% es.Ey (V/m) @ t=0.1
0.051840820125565124
% es.Ez (V/m) @ t=0.1
-2.2161739313935493
% es.tEx (V/m) @ t=0.1
-0.6940251653102543
% es.tEy (V/m) @ t=0.1
0
% es.tEz (V/m) @ t=0.1
-2.2161739313935733
% V (V) @ t=0.1
0.01169369281083059
% es.normE (V/m) @ t=0.12
2.3477319476775724
% es.EX (V/m) @ t=0.12
-0.7003748743827628
% es.EY (V/m) @ t=0.12
0.05231513216813277
% es.EZ (V/m) @ t=0.12
-2.2364499293706253
% es.tEX (V/m) @ t=0.12
-0.7003748743827707
% es.tEY (V/m) @ t=0.12
0
% es.tEZ (V/m) @ t=0.12
-2.2364499293706466
% es.Ex (V/m) @ t=0.12
-0.7003748743827628
% es.Ey (V/m) @ t=0.12
0.05231513216813277
% es.Ez (V/m) @ t=0.12
-2.2364499293706253
% es.tEx (V/m) @ t=0.12
-0.7003748743827707
% es.tEy (V/m) @ t=0.12
0
% es.tEz (V/m) @ t=0.12
-2.2364499293706466
% V (V) @ t=0.12
0.011800679193061377
% es.normE (V/m) @ t=0.14
2.3696171975727096
% es.EX (V/m) @ t=0.14
-0.7069036809266332
% es.EY (V/m) @ t=0.14
0.052802828281805145
% es.EZ (V/m) @ t=0.14
-2.2572978203977234
% es.tEX (V/m) @ t=0.14
-0.7069036809266365
% es.tEY (V/m) @ t=0.14
0
% es.tEZ (V/m) @ t=0.14
-2.2572978203977385
% es.Ex (V/m) @ t=0.14
-0.7069036809266332
% es.Ey (V/m) @ t=0.14
0.052802828281805145
% es.Ez (V/m) @ t=0.14
-2.2572978203977234
% es.tEx (V/m) @ t=0.14
-0.7069036809266365
% es.tEy (V/m) @ t=0.14
0
% es.tEz (V/m) @ t=0.14
-2.2572978203977385
% V (V) @ t=0.14
0.01191068302026708
% es.normE (V/m) @ t=0.16
2.391972799774143
% es.EX (V/m) @ t=0.16
-0.713572803737402
% es.EY (V/m) @ t=0.16
0.05330101032188185
% es.EZ (V/m) @ t=0.16
-2.278593768548337
% es.tEX (V/m) @ t=0.16
-0.7135728037374065
% es.tEY (V/m) @ t=0.16
0
% es.tEZ (V/m) @ t=0.16
-2.27859376854835
% es.Ex (V/m) @ t=0.16
-0.713572803737402
% es.Ey (V/m) @ t=0.16
0.05330101032188185
% es.Ez (V/m) @ t=0.16
-2.278593768548337
% es.tEx (V/m) @ t=0.16
-0.7135728037374065
% es.tEy (V/m) @ t=0.16
0
% es.tEz (V/m) @ t=0.16
-2.27859376854835
% V (V) @ t=0.16
0.012023050904381492
% es.normE (V/m) @ t=0.18
2.4143284019755686
% es.EX (V/m) @ t=0.18
-0.7202419265481875
% es.EY (V/m) @ t=0.18
0.0537991923619439
% es.EZ (V/m) @ t=0.18
-2.299889716698937
% es.tEX (V/m) @ t=0.18
-0.7202419265481979
% es.tEY (V/m) @ t=0.18
0
% es.tEZ (V/m) @ t=0.18
-2.299889716698969
% es.Ex (V/m) @ t=0.18
-0.7202419265481875
% es.Ey (V/m) @ t=0.18
0.0537991923619439
% es.Ez (V/m) @ t=0.18
-2.299889716698937
% es.tEx (V/m) @ t=0.18
-0.7202419265481979
% es.tEy (V/m) @ t=0.18
0
% es.tEz (V/m) @ t=0.18
-2.299889716698969
% V (V) @ t=0.18
0.012135418788495904
% es.normE (V/m) @ t=0.2
2.436684004177004
% es.EX (V/m) @ t=0.2
-0.726911049358956
% es.EY (V/m) @ t=0.2
0.05429737440200999
% es.EZ (V/m) @ t=0.2
-2.321185664849552
% es.tEX (V/m) @ t=0.2
-0.7269110493589643
% es.tEY (V/m) @ t=0.2
0
% es.tEZ (V/m) @ t=0.2
-2.3211856648495726
% es.Ex (V/m) @ t=0.2
-0.726911049358956
% es.Ey (V/m) @ t=0.2
0.05429737440200999
% es.Ez (V/m) @ t=0.2
-2.321185664849552
% es.tEx (V/m) @ t=0.2
-0.7269110493589643
% es.tEy (V/m) @ t=0.2
0
% es.tEz (V/m) @ t=0.2
-2.3211856648495726
% V (V) @ t=0.2
0.012247786672610315
% es.normE (V/m) @ t=0.22
2.4590396063784628
% es.EX (V/m) @ t=0.22
-0.733580172169738
% es.EY (V/m) @ t=0.22
0.054795556442059606
% es.EZ (V/m) @ t=0.22
-2.3424816130001878
% es.tEX (V/m) @ t=0.22
-0.7335801721697379
% es.tEY (V/m) @ t=0.22
0
% es.tEZ (V/m) @ t=0.22
-2.3424816130001904
% es.Ex (V/m) @ t=0.22
-0.733580172169738
% es.Ey (V/m) @ t=0.22
0.054795556442059606
% es.Ez (V/m) @ t=0.22
-2.3424816130001878
% es.tEx (V/m) @ t=0.22
-0.7335801721697379
% es.tEy (V/m) @ t=0.22
0
% es.tEz (V/m) @ t=0.22
-2.3424816130001904
% V (V) @ t=0.22
0.012360154556724727
% es.normE (V/m) @ t=0.24
2.4813952085798636
% es.EX (V/m) @ t=0.24
-0.740249294980504
% es.EY (V/m) @ t=0.24
0.05529373848212943
% es.EZ (V/m) @ t=0.24
-2.3637775611507665
% es.tEX (V/m) @ t=0.24
-0.740249294980508
% es.tEY (V/m) @ t=0.24
0
% es.tEZ (V/m) @ t=0.24
-2.363777561150788
% es.Ex (V/m) @ t=0.24
-0.740249294980504
% es.Ey (V/m) @ t=0.24
0.05529373848212943
% es.Ez (V/m) @ t=0.24
-2.3637775611507665
% es.tEx (V/m) @ t=0.24
-0.740249294980508
% es.tEy (V/m) @ t=0.24
0
% es.tEz (V/m) @ t=0.24
-2.363777561150788
% V (V) @ t=0.24
0.01247252244083914
% es.normE (V/m) @ t=0.26
2.5040563698385534
% es.EX (V/m) @ t=0.26
-0.7470095306815094
% es.EY (V/m) @ t=0.26
0.05579848797742734
% es.EZ (V/m) @ t=0.26
-2.385364612839754
% es.tEX (V/m) @ t=0.26
-0.7470095306815168
% es.tEY (V/m) @ t=0.26
0
% es.tEZ (V/m) @ t=0.26
-2.3853646128397763
% es.Ex (V/m) @ t=0.26
-0.7470095306815094
% es.Ey (V/m) @ t=0.26
0.05579848797742734
% es.Ez (V/m) @ t=0.26
-2.385364612839754
% es.tEx (V/m) @ t=0.26
-0.7470095306815168
% es.tEy (V/m) @ t=0.26
0
% es.tEz (V/m) @ t=0.26
-2.3853646128397763
% V (V) @ t=0.26
0.012586432533695627
% es.normE (V/m) @ t=0.28
2.528804836364199
% es.EX (V/m) @ t=0.28
-0.7543921678825027
% es.EY (V/m) @ t=0.28
0.05634810043313446
% es.EZ (V/m) @ t=0.28
-2.4089402226621592
% es.tEX (V/m) @ t=0.28
-0.7543921678825143
% es.tEY (V/m) @ t=0.28
0
% es.tEZ (V/m) @ t=0.28
-2.408940222662186
% es.Ex (V/m) @ t=0.28
-0.7543921678825027
% es.Ey (V/m) @ t=0.28
0.05634810043313446
% es.Ez (V/m) @ t=0.28
-2.4089402226621592
% es.tEx (V/m) @ t=0.28
-0.7543921678825143
% es.tEy (V/m) @ t=0.28
0
% es.tEz (V/m) @ t=0.28
-2.408940222662186
% V (V) @ t=0.28
0.012710877612676837
% es.normE (V/m) @ t=0.3
2.5535533028918453
% es.EX (V/m) @ t=0.3
-0.7617748050835127
% es.EY (V/m) @ t=0.3
0.05689771288882052
% es.EZ (V/m) @ t=0.3
-2.4325158324845715
% es.tEX (V/m) @ t=0.3
-0.7617748050835296
% es.tEY (V/m) @ t=0.3
0
% es.tEZ (V/m) @ t=0.3
-2.4325158324845972
% es.Ex (V/m) @ t=0.3
-0.7617748050835127
% es.Ey (V/m) @ t=0.3
0.05689771288882052
% es.Ez (V/m) @ t=0.3
-2.4325158324845715
% es.tEx (V/m) @ t=0.3
-0.7617748050835296
% es.tEy (V/m) @ t=0.3
0
% es.tEz (V/m) @ t=0.3
-2.4325158324845972
% V (V) @ t=0.3
0.012835322691658047
% es.normE (V/m) @ t=0.32
2.578301769421455
% es.EX (V/m) @ t=0.32
-0.7691574422845113
% es.EY (V/m) @ t=0.32
0.05744732534451674
% es.EZ (V/m) @ t=0.32
-2.4560914423070193
% es.tEX (V/m) @ t=0.32
-0.7691574422845235
% es.tEY (V/m) @ t=0.32
0
% es.tEZ (V/m) @ t=0.32
-2.45609144230702
% es.Ex (V/m) @ t=0.32
-0.7691574422845113
% es.Ey (V/m) @ t=0.32
0.05744732534451674
% es.Ez (V/m) @ t=0.32
-2.4560914423070193
% es.tEx (V/m) @ t=0.32
-0.7691574422845235
% es.tEy (V/m) @ t=0.32
0
% es.tEz (V/m) @ t=0.32
-2.45609144230702
% V (V) @ t=0.32
0.012959767770639254
% es.normE (V/m) @ t=0.34
2.6030502359528906
% es.EX (V/m) @ t=0.34
-0.7765400794855072
% es.EY (V/m) @ t=0.34
0.057996937800208134
% es.EZ (V/m) @ t=0.34
-2.479667052129411
% es.tEX (V/m) @ t=0.34
-0.776540079485514
% es.tEY (V/m) @ t=0.34
0
% es.tEZ (V/m) @ t=0.34
-2.4796670521294306
% es.Ex (V/m) @ t=0.34
-0.7765400794855072
% es.Ey (V/m) @ t=0.34
0.057996937800208134
% es.Ez (V/m) @ t=0.34
-2.479667052129411
% es.tEx (V/m) @ t=0.34
-0.776540079485514
% es.tEy (V/m) @ t=0.34
0
% es.tEz (V/m) @ t=0.34
-2.4796670521294306
% V (V) @ t=0.34
0.013084212849620466
% es.normE (V/m) @ t=0.36
2.6277987024861664
% es.EX (V/m) @ t=0.36
-0.7839227166865181
% es.EY (V/m) @ t=0.36
0.0585465502559335
% es.EZ (V/m) @ t=0.36
-2.503242661951816
% es.tEX (V/m) @ t=0.36
-0.7839227166865257
% es.tEY (V/m) @ t=0.36
0
% es.tEZ (V/m) @ t=0.36
-2.503242661951841
% es.Ex (V/m) @ t=0.36
-0.7839227166865181
% es.Ey (V/m) @ t=0.36
0.0585465502559335
% es.Ez (V/m) @ t=0.36
-2.503242661951816
% es.tEx (V/m) @ t=0.36
-0.7839227166865257
% es.tEy (V/m) @ t=0.36
0
% es.tEz (V/m) @ t=0.36
-2.503242661951841
% V (V) @ t=0.36
0.013208657928601672
% es.normE (V/m) @ t=0.38
2.652547169021213
% es.EX (V/m) @ t=0.38
-0.7913053538875152
% es.EY (V/m) @ t=0.38
0.05909616271162281
% es.EZ (V/m) @ t=0.38
-2.5268182717742205
% es.tEX (V/m) @ t=0.38
-0.7913053538875232
% es.tEY (V/m) @ t=0.38
0
% es.tEZ (V/m) @ t=0.38
-2.5268182717742516
% es.Ex (V/m) @ t=0.38
-0.7913053538875152
% es.Ey (V/m) @ t=0.38
0.05909616271162281
% es.Ez (V/m) @ t=0.38
-2.5268182717742205
% es.tEx (V/m) @ t=0.38
-0.7913053538875232
% es.tEy (V/m) @ t=0.38
0
% es.tEz (V/m) @ t=0.38
-2.5268182717742516
% V (V) @ t=0.38
0.013333103007582883
% es.normE (V/m) @ t=0.4
2.6772956355579893
% es.EX (V/m) @ t=0.4
-0.7986879910885074
% es.EY (V/m) @ t=0.4
0.05964577516731953
% es.EZ (V/m) @ t=0.4
-2.5503938815966336
% es.tEX (V/m) @ t=0.4
-0.7986879910885136
% es.tEY (V/m) @ t=0.4
0
% es.tEZ (V/m) @ t=0.4
-2.550393881596662
% es.Ex (V/m) @ t=0.4
-0.7986879910885074
% es.Ey (V/m) @ t=0.4
0.05964577516731953
% es.Ez (V/m) @ t=0.4
-2.5503938815966336
% es.tEx (V/m) @ t=0.4
-0.7986879910885136
% es.tEy (V/m) @ t=0.4
0
% es.tEz (V/m) @ t=0.4
-2.550393881596662
% V (V) @ t=0.4
0.013457548086564092
% es.normE (V/m) @ t=0.42
2.7020441020964596
% es.EX (V/m) @ t=0.42
-0.806070628289514
% es.EY (V/m) @ t=0.42
0.060195387622999766
% es.EZ (V/m) @ t=0.42
-2.573969491419059
% es.tEX (V/m) @ t=0.42
-0.8060706282895183
% es.tEY (V/m) @ t=0.42
0
% es.tEZ (V/m) @ t=0.42
-2.5739694914190867
% es.Ex (V/m) @ t=0.42
-0.806070628289514
% es.Ey (V/m) @ t=0.42
0.060195387622999766
% es.Ez (V/m) @ t=0.42
-2.573969491419059
% es.tEx (V/m) @ t=0.42
-0.8060706282895183
% es.tEy (V/m) @ t=0.42
0
% es.tEz (V/m) @ t=0.42
-2.5739694914190867
% V (V) @ t=0.42
0.013581993165545302
% es.normE (V/m) @ t=0.44
2.726792568636558
% es.EX (V/m) @ t=0.44
-0.8134532654905205
% es.EY (V/m) @ t=0.44
0.06074500007869474
% es.EZ (V/m) @ t=0.44
-2.5975451012414794
% es.tEX (V/m) @ t=0.44
-0.8134532654905229
% es.tEY (V/m) @ t=0.44
0
% es.tEZ (V/m) @ t=0.44
-2.5975451012414954
% es.Ex (V/m) @ t=0.44
-0.8134532654905205
% es.Ey (V/m) @ t=0.44
0.06074500007869474
% es.Ez (V/m) @ t=0.44
-2.5975451012414794
% es.tEx (V/m) @ t=0.44
-0.8134532654905229
% es.tEy (V/m) @ t=0.44
0
% es.tEz (V/m) @ t=0.44
-2.5975451012414954
% V (V) @ t=0.44
0.01370643824452651
% es.normE (V/m) @ t=0.46
2.7515410351782155
% es.EX (V/m) @ t=0.46
-0.8208359026915076
% es.EY (V/m) @ t=0.46
0.06129461253442517
% es.EZ (V/m) @ t=0.46
-2.6211207110638775
% es.tEX (V/m) @ t=0.46
-0.8208359026915133
% es.tEY (V/m) @ t=0.46
0
% es.tEZ (V/m) @ t=0.46
-2.621120711063906
% es.Ex (V/m) @ t=0.46
-0.8208359026915076
% es.Ey (V/m) @ t=0.46
0.06129461253442517
% es.Ez (V/m) @ t=0.46
-2.6211207110638775
% es.tEx (V/m) @ t=0.46
-0.8208359026915133
% es.tEy (V/m) @ t=0.46
0
% es.tEz (V/m) @ t=0.46
-2.621120711063906
% V (V) @ t=0.46
0.013830883323507721
% es.normE (V/m) @ t=0.48
2.776289501721438
% es.EX (V/m) @ t=0.48
-0.8282185398925106
% es.EY (V/m) @ t=0.48
0.06184422499011856
% es.EZ (V/m) @ t=0.48
-2.6446963208862897
% es.tEX (V/m) @ t=0.48
-0.8282185398925179
% es.tEY (V/m) @ t=0.48
0
% es.tEZ (V/m) @ t=0.48
-2.644696320886302
% es.Ex (V/m) @ t=0.48
-0.8282185398925106
% es.Ey (V/m) @ t=0.48
0.06184422499011856
% es.Ez (V/m) @ t=0.48
-2.6446963208862897
% es.tEx (V/m) @ t=0.48
-0.8282185398925179
% es.tEy (V/m) @ t=0.48
0
% es.tEz (V/m) @ t=0.48
-2.644696320886302
% V (V) @ t=0.48
0.013955328402488927
% es.normE (V/m) @ t=0.5
2.8010379682661766
% es.EX (V/m) @ t=0.5
-0.8356011770935117
% es.EY (V/m) @ t=0.5
0.06239383744580217
% es.EZ (V/m) @ t=0.5
-2.668271930708717
% es.tEX (V/m) @ t=0.5
-0.8356011770935154
% es.tEY (V/m) @ t=0.5
0
% es.tEZ (V/m) @ t=0.5
-2.668271930708741
% es.Ex (V/m) @ t=0.5
-0.8356011770935117
% es.Ey (V/m) @ t=0.5
0.06239383744580217
% es.Ez (V/m) @ t=0.5
-2.668271930708717
% es.tEx (V/m) @ t=0.5
-0.8356011770935154
% es.tEy (V/m) @ t=0.5
0
% es.tEz (V/m) @ t=0.5
-2.668271930708741
% V (V) @ t=0.5
0.014079773481470137
% es.normE (V/m) @ t=0.52
2.826490328930687
% es.EX (V/m) @ t=0.52
-0.8431939830810884
% es.EY (V/m) @ t=0.52
0.06296020301201091
% es.EZ (V/m) @ t=0.52
-2.6925179467046796
% es.tEX (V/m) @ t=0.52
-0.8431939830811004
% es.tEY (V/m) @ t=0.52
0
% es.tEZ (V/m) @ t=0.52
-2.6925179467047027
% es.Ex (V/m) @ t=0.52
-0.8431939830810884
% es.Ey (V/m) @ t=0.52
0.06296020301201091
% es.Ez (V/m) @ t=0.52
-2.6925179467046796
% es.tEx (V/m) @ t=0.52
-0.8431939830811004
% es.tEy (V/m) @ t=0.52
0
% es.tEz (V/m) @ t=0.52
-2.6925179467047027
% V (V) @ t=0.52
0.014207728567621222
% es.normE (V/m) @ t=0.54
2.8539287601186496
% es.EX (V/m) @ t=0.54
-0.8513797902325635
% es.EY (V/m) @ t=0.54
0.06357383827123333
% es.EZ (V/m) @ t=0.54
-2.7186555454027994
% es.tEX (V/m) @ t=0.54
-0.8513797902325635
% es.tEY (V/m) @ t=0.54
0
% es.tEZ (V/m) @ t=0.54
-2.7186555454028127
% es.Ex (V/m) @ t=0.54
-0.8513797902325635
% es.Ey (V/m) @ t=0.54
0.06357383827123333
% es.Ez (V/m) @ t=0.54
-2.7186555454027994
% es.tEx (V/m) @ t=0.54
-0.8513797902325635
% es.tEy (V/m) @ t=0.54
0
% es.tEz (V/m) @ t=0.54
-2.7186555454028127
% V (V) @ t=0.54
0.014345587304885414
% es.normE (V/m) @ t=0.56
2.8813671913096286
% es.EX (V/m) @ t=0.56
-0.8595655973840564
% es.EY (V/m) @ t=0.56
0.0641874735304739
% es.EZ (V/m) @ t=0.56
-2.744793144100897
% es.tEX (V/m) @ t=0.56
-0.8595655973840692
% es.tEY (V/m) @ t=0.56
0
% es.tEZ (V/m) @ t=0.56
-2.7447931441009086
% es.Ex (V/m) @ t=0.56
-0.8595655973840564
% es.Ey (V/m) @ t=0.56
0.0641874735304739
% es.Ez (V/m) @ t=0.56
-2.744793144100897
% es.tEx (V/m) @ t=0.56
-0.8595655973840692
% es.tEy (V/m) @ t=0.56
0
% es.tEz (V/m) @ t=0.56
-2.7447931441009086
% V (V) @ t=0.56
0.014483446042149602
% es.normE (V/m) @ t=0.58
2.908805622503565
% es.EX (V/m) @ t=0.58
-0.8677514045355402
% es.EY (V/m) @ t=0.58
0.0648011087897052
% es.EZ (V/m) @ t=0.58
-2.770930742799009
% es.tEX (V/m) @ t=0.58
-0.8677514045355537
% es.tEY (V/m) @ t=0.58
0
% es.tEZ (V/m) @ t=0.58
-2.7709307427990186
% es.Ex (V/m) @ t=0.58
-0.8677514045355402
% es.Ey (V/m) @ t=0.58
0.0648011087897052
% es.Ez (V/m) @ t=0.58
-2.770930742799009
% es.tEx (V/m) @ t=0.58
-0.8677514045355537
% es.tEy (V/m) @ t=0.58
0
% es.tEz (V/m) @ t=0.58
-2.7709307427990186
% V (V) @ t=0.58
0.014621304779413792
% es.normE (V/m) @ t=0.6
2.936244053700335
% es.EX (V/m) @ t=0.6
-0.8759372116870132
% es.EY (V/m) @ t=0.6
0.06541474404894407
% es.EZ (V/m) @ t=0.6
-2.797068341497093
% es.tEX (V/m) @ t=0.6
-0.8759372116870168
% es.tEY (V/m) @ t=0.6
0
% es.tEZ (V/m) @ t=0.6
-2.7970683414971287
% es.Ex (V/m) @ t=0.6
-0.8759372116870132
% es.Ey (V/m) @ t=0.6
0.06541474404894407
% es.Ez (V/m) @ t=0.6
-2.797068341497093
% es.tEx (V/m) @ t=0.6
-0.8759372116870168
% es.tEy (V/m) @ t=0.6
0
% es.tEz (V/m) @ t=0.6
-2.7970683414971287
% V (V) @ t=0.6
0.01475916351667798
% es.normE (V/m) @ t=0.62
2.9636824848999233
% es.EX (V/m) @ t=0.62
-0.8841230188385115
% es.EY (V/m) @ t=0.62
0.06602837930817936
% es.EZ (V/m) @ t=0.62
-2.823205940195205
% es.tEX (V/m) @ t=0.62
-0.8841230188385154
% es.tEY (V/m) @ t=0.62
0
% es.tEZ (V/m) @ t=0.62
-2.8232059401952405
% es.Ex (V/m) @ t=0.62
-0.8841230188385115
% es.Ey (V/m) @ t=0.62
0.06602837930817936
% es.Ez (V/m) @ t=0.62
-2.823205940195205
% es.tEx (V/m) @ t=0.62
-0.8841230188385154
% es.tEy (V/m) @ t=0.62
0
% es.tEz (V/m) @ t=0.62
-2.8232059401952405
% V (V) @ t=0.62
0.014897022253942167
% es.normE (V/m) @ t=0.64
2.9911209161022247
% es.EX (V/m) @ t=0.64
-0.8923088259899885
% es.EY (V/m) @ t=0.64
0.0666420145674337
% es.EZ (V/m) @ t=0.64
-2.84934353889333
% es.tEX (V/m) @ t=0.64
-0.8923088259899927
% es.tEY (V/m) @ t=0.64
0
% es.tEZ (V/m) @ t=0.64
-2.8493435388933506
% es.Ex (V/m) @ t=0.64
-0.8923088259899885
% es.Ey (V/m) @ t=0.64
0.0666420145674337
% es.Ez (V/m) @ t=0.64
-2.84934353889333
% es.tEx (V/m) @ t=0.64
-0.8923088259899927
% es.tEy (V/m) @ t=0.64
0
% es.tEz (V/m) @ t=0.64
-2.8493435388933506
% V (V) @ t=0.64
0.015034880991206359
% es.normE (V/m) @ t=0.66
3.018559347307149
% es.EX (V/m) @ t=0.66
-0.9004946331414689
% es.EY (V/m) @ t=0.66
0.06725564982664012
% es.EZ (V/m) @ t=0.66
-2.875481137591442
% es.tEX (V/m) @ t=0.66
-0.9004946331414772
% es.tEY (V/m) @ t=0.66
0
% es.tEZ (V/m) @ t=0.66
-2.8754811375914624
% es.Ex (V/m) @ t=0.66
-0.9004946331414689
% es.Ey (V/m) @ t=0.66
0.06725564982664012
% es.Ez (V/m) @ t=0.66
-2.875481137591442
% es.tEx (V/m) @ t=0.66
-0.9004946331414772
% es.tEy (V/m) @ t=0.66
0
% es.tEz (V/m) @ t=0.66
-2.8754811375914624
% V (V) @ t=0.66
0.015172739728470547
% es.normE (V/m) @ t=0.68
3.0459977785146206
% es.EX (V/m) @ t=0.68
-0.9086804402929456
% es.EY (V/m) @ t=0.68
0.06786928508587854
% es.EZ (V/m) @ t=0.68
-2.9016187362895405
% es.tEX (V/m) @ t=0.68
-0.9086804402929474
% es.tEY (V/m) @ t=0.68
0
% es.tEZ (V/m) @ t=0.68
-2.9016187362895725
% es.Ex (V/m) @ t=0.68
-0.9086804402929456
% es.Ey (V/m) @ t=0.68
0.06786928508587854
% es.Ez (V/m) @ t=0.68
-2.9016187362895405
% es.tEx (V/m) @ t=0.68
-0.9086804402929474
% es.tEy (V/m) @ t=0.68
0
% es.tEz (V/m) @ t=0.68
-2.9016187362895725
% V (V) @ t=0.68
0.015310598465734737
% es.normE (V/m) @ t=0.7
3.0734362097246044
% es.EX (V/m) @ t=0.7
-0.9168662474444367
% es.EY (V/m) @ t=0.7
0.06848292034513115
% es.EZ (V/m) @ t=0.7
-2.9277563349876523
% es.tEX (V/m) @ t=0.7
-0.9168662474444531
% es.tEY (V/m) @ t=0.7
0
% es.tEZ (V/m) @ t=0.7
-2.9277563349876843
% es.Ex (V/m) @ t=0.7
-0.9168662474444367
% es.Ey (V/m) @ t=0.7
0.06848292034513115
% es.Ez (V/m) @ t=0.7
-2.9277563349876523
% es.tEx (V/m) @ t=0.7
-0.9168662474444531
% es.tEy (V/m) @ t=0.7
0
% es.tEz (V/m) @ t=0.7
-2.9277563349876843
% V (V) @ t=0.7
0.015448457202998927
% es.normE (V/m) @ t=0.72
3.100874640937013
% es.EX (V/m) @ t=0.72
-0.9250520545959204
% es.EY (V/m) @ t=0.72
0.06909655560437357
% es.EZ (V/m) @ t=0.72
-2.953893933685765
% es.tEX (V/m) @ t=0.72
-0.9250520545959233
% es.tEY (V/m) @ t=0.72
0
% es.tEZ (V/m) @ t=0.72
-2.9538939336857943
% es.Ex (V/m) @ t=0.72
-0.9250520545959204
% es.Ey (V/m) @ t=0.72
0.06909655560437357
% es.Ez (V/m) @ t=0.72
-2.953893933685765
% es.tEx (V/m) @ t=0.72
-0.9250520545959233
% es.tEy (V/m) @ t=0.72
0
% es.tEz (V/m) @ t=0.72
-2.9538939336857943
% V (V) @ t=0.72
0.015586315940263116
% es.normE (V/m) @ t=0.74
3.1283130721517836
% es.EX (V/m) @ t=0.74
-0.9332378617473991
% es.EY (V/m) @ t=0.74
0.06971019086358754
% es.EZ (V/m) @ t=0.74
-2.980031532383877
% es.tEX (V/m) @ t=0.74
-0.9332378617474077
% es.tEY (V/m) @ t=0.74
0
% es.tEZ (V/m) @ t=0.74
-2.9800315323839026
% es.Ex (V/m) @ t=0.74
-0.9332378617473991
% es.Ey (V/m) @ t=0.74
0.06971019086358754
% es.Ez (V/m) @ t=0.74
-2.980031532383877
% es.tEx (V/m) @ t=0.74
-0.9332378617474077
% es.tEy (V/m) @ t=0.74
0
% es.tEz (V/m) @ t=0.74
-2.9800315323839026
% V (V) @ t=0.74
0.015724174677527302
% es.normE (V/m) @ t=0.76
3.1557515033688457
% es.EX (V/m) @ t=0.76
-0.9414236688988902
% es.EY (V/m) @ t=0.76
0.07032382612284364
% es.EZ (V/m) @ t=0.76
-3.0061691310819736
% es.tEX (V/m) @ t=0.76
-0.9414236688988922
% es.tEY (V/m) @ t=0.76
0
% es.tEZ (V/m) @ t=0.76
-3.006169131082002
% es.Ex (V/m) @ t=0.76
-0.9414236688988902
% es.Ey (V/m) @ t=0.76
0.07032382612284364
% es.Ez (V/m) @ t=0.76
-3.0061691310819736
% es.tEx (V/m) @ t=0.76
-0.9414236688988922
% es.tEy (V/m) @ t=0.76
0
% es.tEz (V/m) @ t=0.76
-3.006169131082002
% V (V) @ t=0.76
0.015862033414791494
% es.normE (V/m) @ t=0.78
3.1843903299990526
% es.EX (V/m) @ t=0.78
-0.9499673956721562
% es.EY (V/m) @ t=0.78
0.07096314874838389
% es.EZ (V/m) @ t=0.78
-3.033450349432157
% es.tEX (V/m) @ t=0.78
-0.9499673956721679
% es.tEY (V/m) @ t=0.78
0
% es.tEZ (V/m) @ t=0.78
-3.0334503494321776
% es.Ex (V/m) @ t=0.78
-0.9499673956721562
% es.Ey (V/m) @ t=0.78
0.07096314874838389
% es.Ez (V/m) @ t=0.78
-3.033450349432157
% es.tEx (V/m) @ t=0.78
-0.9499673956721679
% es.tEy (V/m) @ t=0.78
0
% es.tEz (V/m) @ t=0.78
-3.0334503494321776
% V (V) @ t=0.78
0.0160059537223588
% es.normE (V/m) @ t=0.8
3.2148627267351237
% es.EX (V/m) @ t=0.8
-0.9590578345642906
% es.EY (V/m) @ t=0.8
0.07164170810092942
% es.EZ (V/m) @ t=0.8
-3.0624784145185258
% es.tEX (V/m) @ t=0.8
-0.9590578345642982
% es.tEY (V/m) @ t=0.8
0
% es.tEZ (V/m) @ t=0.8
-3.0624784145185515
% es.Ex (V/m) @ t=0.8
-0.9590578345642906
% es.Ey (V/m) @ t=0.8
0.07164170810092942
% es.Ez (V/m) @ t=0.8
-3.0624784145185258
% es.tEx (V/m) @ t=0.8
-0.9590578345642982
% es.tEy (V/m) @ t=0.8
0
% es.tEz (V/m) @ t=0.8
-3.0624784145185515
% V (V) @ t=0.8
0.016159132907457102
% es.normE (V/m) @ t=0.82
3.2453351234713144
% es.EX (V/m) @ t=0.82
-0.9681482734564284
% es.EY (V/m) @ t=0.82
0.07232026745343993
% es.EZ (V/m) @ t=0.82
-3.091506479604895
% es.tEX (V/m) @ t=0.82
-0.9681482734564355
% es.tEY (V/m) @ t=0.82
0
% es.tEZ (V/m) @ t=0.82
-3.0915064796049396
% es.Ex (V/m) @ t=0.82
-0.9681482734564284
% es.Ey (V/m) @ t=0.82
0.07232026745343993
% es.Ez (V/m) @ t=0.82
-3.091506479604895
% es.tEx (V/m) @ t=0.82
-0.9681482734564355
% es.tEy (V/m) @ t=0.82
0
% es.tEz (V/m) @ t=0.82
-3.0915064796049396
% V (V) @ t=0.82
0.016312312092555403
% es.normE (V/m) @ t=0.84
3.275807520207669
% es.EX (V/m) @ t=0.84
-0.9772387123485629
% es.EY (V/m) @ t=0.84
0.07299882680596059
% es.EZ (V/m) @ t=0.84
-3.1205345446913206
% es.tEX (V/m) @ t=0.84
-0.9772387123485728
% es.tEY (V/m) @ t=0.84
0
% es.tEZ (V/m) @ t=0.84
-3.120534544691342
% es.Ex (V/m) @ t=0.84
-0.9772387123485629
% es.Ey (V/m) @ t=0.84
0.07299882680596059
% es.Ez (V/m) @ t=0.84
-3.1205345446913206
% es.tEx (V/m) @ t=0.84
-0.9772387123485728
% es.tEy (V/m) @ t=0.84
0
% es.tEz (V/m) @ t=0.84
-3.120534544691342
% V (V) @ t=0.84
0.016465491277653704
% es.normE (V/m) @ t=0.86
3.306279916944095
% es.EX (V/m) @ t=0.86
-0.9863291512406994
% es.EY (V/m) @ t=0.86
0.07367738615848828
% es.EZ (V/m) @ t=0.86
-3.1495626097777025
% es.tEX (V/m) @ t=0.86
-0.9863291512407031
% es.tEY (V/m) @ t=0.86
0
% es.tEZ (V/m) @ t=0.86
-3.149562609777716
% es.Ex (V/m) @ t=0.86
-0.9863291512406994
% es.Ey (V/m) @ t=0.86
0.07367738615848828
% es.Ez (V/m) @ t=0.86
-3.1495626097777025
% es.tEx (V/m) @ t=0.86
-0.9863291512407031
% es.tEy (V/m) @ t=0.86
0
% es.tEz (V/m) @ t=0.86
-3.149562609777716
% V (V) @ t=0.86
0.016618670462752005
% es.normE (V/m) @ t=0.88
3.3367523136806105
% es.EX (V/m) @ t=0.88
-0.9954195901328287
% es.EY (V/m) @ t=0.88
0.07435594551102358
% es.EZ (V/m) @ t=0.88
-3.17859067486407
% es.tEX (V/m) @ t=0.88
-0.9954195901328333
% es.tEY (V/m) @ t=0.88
0
% es.tEZ (V/m) @ t=0.88
-3.178590674864104
% es.Ex (V/m) @ t=0.88
-0.9954195901328287
% es.Ey (V/m) @ t=0.88
0.07435594551102358
% es.Ez (V/m) @ t=0.88
-3.17859067486407
% es.tEx (V/m) @ t=0.88
-0.9954195901328333
% es.tEy (V/m) @ t=0.88
0
% es.tEz (V/m) @ t=0.88
-3.178590674864104
% V (V) @ t=0.88
0.016771849647850307
% es.normE (V/m) @ t=0.9
3.3672247104172635
% es.EX (V/m) @ t=0.9
-1.0045100290249684
% es.EY (V/m) @ t=0.9
0.07503450486353713
% es.EZ (V/m) @ t=0.9
-3.207618739950467
% es.tEX (V/m) @ t=0.9
-1.0045100290249849
% es.tEY (V/m) @ t=0.9
0
% es.tEZ (V/m) @ t=0.9
-3.2076187399504796
% es.Ex (V/m) @ t=0.9
-1.0045100290249684
% es.Ey (V/m) @ t=0.9
0.07503450486353713
% es.Ez (V/m) @ t=0.9
-3.207618739950467
% es.tEx (V/m) @ t=0.9
-1.0045100290249849
% es.tEy (V/m) @ t=0.9
0
% es.tEz (V/m) @ t=0.9
-3.2076187399504796
% V (V) @ t=0.9
0.01692502883294861
% es.normE (V/m) @ t=0.92
3.397697107154018
% es.EX (V/m) @ t=0.92
-1.0136004679171136
% es.EY (V/m) @ t=0.92
0.07571306421606488
% es.EZ (V/m) @ t=0.92
-3.236646805036864
% es.tEX (V/m) @ t=0.92
-1.0136004679171293
% es.tEY (V/m) @ t=0.92
0
% es.tEZ (V/m) @ t=0.92
-3.236646805036882
% es.Ex (V/m) @ t=0.92
-1.0136004679171136
% es.Ey (V/m) @ t=0.92
0.07571306421606488
% es.Ez (V/m) @ t=0.92
-3.236646805036864
% es.tEx (V/m) @ t=0.92
-1.0136004679171293
% es.tEy (V/m) @ t=0.92
0
% es.tEz (V/m) @ t=0.92
-3.236646805036882
% V (V) @ t=0.92
0.01707820801804691
% es.normE (V/m) @ t=0.94
3.4281695038908655
% es.EX (V/m) @ t=0.94
-1.0226909068092427
% es.EY (V/m) @ t=0.94
0.07639162356858205
% es.EZ (V/m) @ t=0.94
-3.265674870123261
% es.tEX (V/m) @ t=0.94
-1.0226909068092525
% es.tEY (V/m) @ t=0.94
0
% es.tEZ (V/m) @ t=0.94
-3.2656748701232843
% es.Ex (V/m) @ t=0.94
-1.0226909068092427
% es.Ey (V/m) @ t=0.94
0.07639162356858205
% es.Ez (V/m) @ t=0.94
-3.265674870123261
% es.tEx (V/m) @ t=0.94
-1.0226909068092525
% es.tEy (V/m) @ t=0.94
0
% es.tEz (V/m) @ t=0.94
-3.2656748701232843
% V (V) @ t=0.94
0.01723138720314521
% es.normE (V/m) @ t=0.96
3.4586419006277715
% es.EX (V/m) @ t=0.96
-1.0317813457013703
% es.EY (V/m) @ t=0.96
0.07707018292111024
% es.EZ (V/m) @ t=0.96
-3.2947029352096155
% es.tEX (V/m) @ t=0.96
-1.0317813457013827
% es.tEY (V/m) @ t=0.96
0
% es.tEZ (V/m) @ t=0.96
-3.294702935209658
% es.Ex (V/m) @ t=0.96
-1.0317813457013703
% es.Ey (V/m) @ t=0.96
0.07707018292111024
% es.Ez (V/m) @ t=0.96
-3.2947029352096155
% es.tEx (V/m) @ t=0.96
-1.0317813457013827
% es.tEy (V/m) @ t=0.96
0
% es.tEz (V/m) @ t=0.96
-3.294702935209658
% V (V) @ t=0.96
0.01738456638824351
% es.normE (V/m) @ t=0.98
3.4891142973648552
% es.EX (V/m) @ t=0.98
-1.0408717845935154
% es.EY (V/m) @ t=0.98
0.07774874227364822
% es.EZ (V/m) @ t=0.98
-3.323731000296055
% es.tEX (V/m) @ t=0.98
-1.0408717845935271
% es.tEY (V/m) @ t=0.98
0
% es.tEZ (V/m) @ t=0.98
-3.323731000296089
% es.Ex (V/m) @ t=0.98
-1.0408717845935154
% es.Ey (V/m) @ t=0.98
0.07774874227364822
% es.Ez (V/m) @ t=0.98
-3.323731000296055
% es.tEx (V/m) @ t=0.98
-1.0408717845935271
% es.tEy (V/m) @ t=0.98
0
% es.tEz (V/m) @ t=0.98
-3.323731000296089
% V (V) @ t=0.98
0.01753774557334181
% es.normE (V/m) @ t=1
3.519586694101931
% es.EX (V/m) @ t=1
-1.049962223485648
% es.EY (V/m) @ t=1
0.07842730162616976
% es.EZ (V/m) @ t=1
-3.3527590653823944
% es.tEX (V/m) @ t=1
-1.0499622234856503
% es.tEY (V/m) @ t=1
0
% es.tEZ (V/m) @ t=1
-3.3527590653824344
% es.Ex (V/m) @ t=1
-1.049962223485648
% es.Ey (V/m) @ t=1
0.07842730162616976
% es.Ez (V/m) @ t=1
-3.3527590653823944
% es.tEx (V/m) @ t=1
-1.0499622234856503
% es.tEy (V/m) @ t=1
0
% es.tEz (V/m) @ t=1
-3.3527590653824344
% V (V) @ t=1
0.01769092475844011
% es.normE (V/m) @ t=1.02
3.550059090839155
% es.EX (V/m) @ t=1.02
-1.0590526623777878
% es.EY (V/m) @ t=1.02
0.07910586097868287
% es.EZ (V/m) @ t=1.02
-3.3817871304687914
% es.tEX (V/m) @ t=1.02
-1.0590526623777947
% es.tEY (V/m) @ t=1.02
0
% es.tEZ (V/m) @ t=1.02
-3.3817871304688243
% es.Ex (V/m) @ t=1.02
-1.0590526623777878
% es.Ey (V/m) @ t=1.02
0.07910586097868287
% es.Ez (V/m) @ t=1.02
-3.3817871304687914
% es.tEx (V/m) @ t=1.02
-1.0590526623777947
% es.tEy (V/m) @ t=1.02
0
% es.tEz (V/m) @ t=1.02
-3.3817871304688243
% V (V) @ t=1.02
0.017844103943538414
% es.normE (V/m) @ t=1.04
3.5813026821934018