% Model:              1 neuron.mph
% Version:            COMSOL 6.1.0.252
% Date:               Mar 27 2023, 14:51
% Dimension:          0
% Nodes:              14017
% Expressions:        14017
% Description:        Electric field norm, Electric field, X component, Electric field, Y component, Electric field, Z component, Tangential electric field, X component, Tangential electric field, Y component, Tangential electric field, Z component, Electric field, x component, Electric field, y component, Electric field, z component, Tangential electric field, x component, Tangential electric field, y component, Tangential electric field, z component, Electric potential
% Length unit:        mm
% x
1.33
% y
12.2
% z
2
% es.normE (V/m) @ t=0
2.6502675905714885
% es.EX (V/m) @ t=0
1.0562340627131905
% es.EY (V/m) @ t=0
0.27924865907932084
% es.EZ (V/m) @ t=0
-2.412459777409344
% es.tEX (V/m) @ t=0
1.056234062713191
% es.tEY (V/m) @ t=0
0
% es.tEZ (V/m) @ t=0
-2.4124597774093495
% es.Ex (V/m) @ t=0
1.0562340627131905
% es.Ey (V/m) @ t=0
0.27924865907932084
% es.Ez (V/m) @ t=0
-2.412459777409344
% es.tEx (V/m) @ t=0
1.056234062713191
% es.tEy (V/m) @ t=0
0
% es.tEz (V/m) @ t=0
-2.4124597774093495
% V (V) @ t=0
0.013251571983269178
% es.normE (V/m) @ t=0.02
2.289060425843002
% es.EX (V/m) @ t=0.02
0.9122790475439042
% es.EY (V/m) @ t=0.02
0.24118962839316804
% es.EZ (V/m) @ t=0.02
-2.0836636364684002
% es.tEX (V/m) @ t=0.02
0.9122790475439047
% es.tEY (V/m) @ t=0.02
0
% es.tEZ (V/m) @ t=0.02
-2.0836636364684065
% es.Ex (V/m) @ t=0.02
0.9122790475439042
% es.Ey (V/m) @ t=0.02
0.24118962839316804
% es.Ez (V/m) @ t=0.02
-2.0836636364684002
% es.tEx (V/m) @ t=0.02
0.9122790475439047
% es.tEy (V/m) @ t=0.02
0
% es.tEz (V/m) @ t=0.02
-2.0836636364684065
% V (V) @ t=0.02
0.01144550425506512
% es.normE (V/m) @ t=0.04
2.310115326471591
% es.EX (V/m) @ t=0.04
0.9206702391046075
% es.EY (V/m) @ t=0.04
0.24340810402160962
% es.EZ (V/m) @ t=0.04
-2.1028292863955818
% es.tEX (V/m) @ t=0.04
0.9206702391046115
% es.tEY (V/m) @ t=0.04
0
% es.tEZ (V/m) @ t=0.04
-2.102829286395588
% es.Ex (V/m) @ t=0.04
0.9206702391046075
% es.Ey (V/m) @ t=0.04
0.24340810402160962
% es.Ez (V/m) @ t=0.04
-2.1028292863955818
% es.tEx (V/m) @ t=0.04
0.9206702391046115
% es.tEy (V/m) @ t=0.04
0
% es.tEz (V/m) @ t=0.04
-2.102829286395588
% V (V) @ t=0.04
0.01155078060518447
% es.normE (V/m) @ t=0.06
2.3313236386950393
% es.EX (V/m) @ t=0.06
0.929122571312236
% es.EY (V/m) @ t=0.06
0.24564274251914853
% es.EZ (V/m) @ t=0.06
-2.122134582383919
% es.tEX (V/m) @ t=0.06
0.9291225713122362
% es.tEY (V/m) @ t=0.06
0
% es.tEZ (V/m) @ t=0.06
-2.122134582383932
% es.Ex (V/m) @ t=0.06
0.929122571312236
% es.Ey (V/m) @ t=0.06
0.24564274251914853
% es.Ez (V/m) @ t=0.06
-2.122134582383919
% es.tEx (V/m) @ t=0.06
0.9291225713122362
% es.tEy (V/m) @ t=0.06
0
% es.tEz (V/m) @ t=0.06
-2.122134582383932
% V (V) @ t=0.06
0.011656824068594284
% es.normE (V/m) @ t=0.08
2.3529385384472477
% es.EX (V/m) @ t=0.08
0.9377369442616417
% es.EY (V/m) @ t=0.08
0.24792022245903222
% es.EZ (V/m) @ t=0.08
-2.141809982878568
% es.tEX (V/m) @ t=0.08
0.9377369442616383
% es.tEY (V/m) @ t=0.08
0
% es.tEZ (V/m) @ t=0.08
-2.1418099828785753
% es.Ex (V/m) @ t=0.08
0.9377369442616417
% es.Ey (V/m) @ t=0.08
0.24792022245903222
% es.Ez (V/m) @ t=0.08
-2.141809982878568
% es.tEx (V/m) @ t=0.08
0.9377369442616383
% es.tEy (V/m) @ t=0.08
0
% es.tEz (V/m) @ t=0.08
-2.1418099828785753
% V (V) @ t=0.08
0.011764900481422468
% es.normE (V/m) @ t=0.1
2.3746634095593793
% es.EX (V/m) @ t=0.1
0.946395145020527
% es.EY (V/m) @ t=0.1
0.25020928989569846
% es.EZ (V/m) @ t=0.1
-2.161585487023695
% es.tEX (V/m) @ t=0.1
0.9463951450205275
% es.tEY (V/m) @ t=0.1
0
% es.tEZ (V/m) @ t=0.1
-2.1615854870236983
% es.Ex (V/m) @ t=0.1
0.946395145020527
% es.Ey (V/m) @ t=0.1
0.25020928989569846
% es.Ez (V/m) @ t=0.1
-2.161585487023695
% es.tEx (V/m) @ t=0.1
0.9463951450205275
% es.tEy (V/m) @ t=0.1
0
% es.tEz (V/m) @ t=0.1
-2.1615854870236983
% V (V) @ t=0.1
0.011873526754234925
% es.normE (V/m) @ t=0.12
2.3963882806714913
% es.EX (V/m) @ t=0.12
0.9550533457794019
% es.EY (V/m) @ t=0.12
0.25249835733233894
% es.EZ (V/m) @ t=0.12
-2.181360991168807
% es.tEX (V/m) @ t=0.12
0.9550533457794024
% es.tEY (V/m) @ t=0.12
0
% es.tEZ (V/m) @ t=0.12
-2.1813609911688108
% es.Ex (V/m) @ t=0.12
0.9550533457794019
% es.Ey (V/m) @ t=0.12
0.25249835733233894
% es.Ez (V/m) @ t=0.12
-2.181360991168807
% es.tEx (V/m) @ t=0.12
0.9550533457794024
% es.tEy (V/m) @ t=0.12
0
% es.tEz (V/m) @ t=0.12
-2.1813609911688108
% V (V) @ t=0.12
0.011982153027047384
% es.normE (V/m) @ t=0.14
2.418745485882762
% es.EX (V/m) @ t=0.14
0.9639635561951729
% es.EY (V/m) @ t=0.14
0.254854051359648
% es.EZ (V/m) @ t=0.14
-2.2017120902095897
% es.tEX (V/m) @ t=0.14
0.9639635561951732
% es.tEY (V/m) @ t=0.14
0
% es.tEZ (V/m) @ t=0.14
-2.201712090209597
% es.Ex (V/m) @ t=0.14
0.9639635561951729
% es.Ey (V/m) @ t=0.14
0.254854051359648
% es.Ez (V/m) @ t=0.14
-2.2017120902095897
% es.tEx (V/m) @ t=0.14
0.9639635561951732
% es.tEy (V/m) @ t=0.14
0
% es.tEz (V/m) @ t=0.14
-2.201712090209597
% V (V) @ t=0.14
0.012093941017478202
% es.normE (V/m) @ t=0.16
2.4415596894235043
% es.EX (V/m) @ t=0.16
0.9730558981650894
% es.EY (V/m) @ t=0.16
0.25725789752783434
% es.EZ (V/m) @ t=0.16
-2.2224791812174693
% es.tEX (V/m) @ t=0.16
0.9730558981650894
% es.tEY (V/m) @ t=0.16
0
% es.tEZ (V/m) @ t=0.16
-2.22247918121748
% es.Ex (V/m) @ t=0.16
0.9730558981650894
% es.Ey (V/m) @ t=0.16
0.25725789752783434
% es.Ez (V/m) @ t=0.16
-2.2224791812174693
% es.tEx (V/m) @ t=0.16
0.9730558981650894
% es.tEy (V/m) @ t=0.16
0
% es.tEz (V/m) @ t=0.16
-2.22247918121748
% V (V) @ t=0.16
0.012208014033612734
% es.normE (V/m) @ t=0.18
2.464373892964232
% es.EX (V/m) @ t=0.18
0.9821482401349981
% es.EY (V/m) @ t=0.18
0.2596617436960331
% es.EZ (V/m) @ t=0.18
-2.243246272225335
% es.tEX (V/m) @ t=0.18
0.9821482401349986
% es.tEY (V/m) @ t=0.18
0
% es.tEZ (V/m) @ t=0.18
-2.243246272225342
% es.Ex (V/m) @ t=0.18
0.9821482401349981
% es.Ey (V/m) @ t=0.18
0.2596617436960331
% es.Ez (V/m) @ t=0.18
-2.243246272225335
% es.tEx (V/m) @ t=0.18
0.9821482401349986
% es.tEy (V/m) @ t=0.18
0
% es.tEz (V/m) @ t=0.18
-2.243246272225342
% V (V) @ t=0.18
0.012322087049747264
% es.normE (V/m) @ t=0.2
2.487188096504993
% es.EX (V/m) @ t=0.2
0.991240582104929
% es.EY (V/m) @ t=0.2
0.26206558986421147
% es.EZ (V/m) @ t=0.2
-2.2640133632332304
% es.tEX (V/m) @ t=0.2
0.9912405821049219
% es.tEY (V/m) @ t=0.2
0
% es.tEZ (V/m) @ t=0.2
-2.2640133632332358
% es.Ex (V/m) @ t=0.2
0.991240582104929
% es.Ey (V/m) @ t=0.2
0.26206558986421147
% es.Ez (V/m) @ t=0.2
-2.2640133632332304
% es.tEx (V/m) @ t=0.2
0.9912405821049219
% es.tEy (V/m) @ t=0.2
0
% es.tEz (V/m) @ t=0.2
-2.2640133632332358
% V (V) @ t=0.2
0.012436160065881796
% es.normE (V/m) @ t=0.22
2.5100023000457234
% es.EX (V/m) @ t=0.22
1.0003329240748307
% es.EY (V/m) @ t=0.22
0.2644694360323969
% es.EZ (V/m) @ t=0.22
-2.284780454241103
% es.tEX (V/m) @ t=0.22
1.000332924074824
% es.tEY (V/m) @ t=0.22
0
% es.tEZ (V/m) @ t=0.22
-2.284780454241112
% es.Ex (V/m) @ t=0.22
1.0003329240748307
% es.Ey (V/m) @ t=0.22
0.2644694360323969
% es.Ez (V/m) @ t=0.22
-2.284780454241103
% es.tEx (V/m) @ t=0.22
1.000332924074824
% es.tEy (V/m) @ t=0.22
0
% es.tEz (V/m) @ t=0.22
-2.284780454241112
% V (V) @ t=0.22
0.012550233082016327
% es.normE (V/m) @ t=0.24
2.532816503586477
% es.EX (V/m) @ t=0.24
1.0094252660447611
% es.EY (V/m) @ t=0.24
0.26687328220060547
% es.EZ (V/m) @ t=0.24
-2.3055475452489844
% es.tEX (V/m) @ t=0.24
1.0094252660447687
% es.tEY (V/m) @ t=0.24
0
% es.tEZ (V/m) @ t=0.24
-2.305547545248988
% es.Ex (V/m) @ t=0.24
1.0094252660447611
% es.Ey (V/m) @ t=0.24
0.26687328220060547
% es.Ez (V/m) @ t=0.24
-2.3055475452489844
% es.tEx (V/m) @ t=0.24
1.0094252660447687
% es.tEy (V/m) @ t=0.24
0
% es.tEz (V/m) @ t=0.24
-2.305547545248988
% V (V) @ t=0.24
0.012664306098150857
% es.normE (V/m) @ t=0.26
2.5560374647247306
% es.EX (V/m) @ t=0.26
1.0186797165790593
% es.EY (V/m) @ t=0.26
0.26931998724827366
% es.EZ (V/m) @ t=0.26
-2.3266848955939192
% es.tEX (V/m) @ t=0.26
1.0186797165790598
% es.tEY (V/m) @ t=0.26
0
% es.tEZ (V/m) @ t=0.26
-2.3266848955939246
% es.Ex (V/m) @ t=0.26
1.0186797165790593
% es.Ey (V/m) @ t=0.26
0.26931998724827366
% es.Ez (V/m) @ t=0.26
-2.3266848955939192
% es.tEx (V/m) @ t=0.26
1.0186797165790598
% es.tEy (V/m) @ t=0.26
0
% es.tEz (V/m) @ t=0.26
-2.3266848955939246
% V (V) @ t=0.26
0.012780412924336106
% es.normE (V/m) @ t=0.28
2.5812841376095657
% es.EX (V/m) @ t=0.28
1.0287414912422954
% es.EY (V/m) @ t=0.28
0.27198013572306046
% es.EZ (V/m) @ t=0.28
-2.349666191062278
% es.tEX (V/m) @ t=0.28
1.0287414912422888
% es.tEY (V/m) @ t=0.28
0
% es.tEZ (V/m) @ t=0.28
-2.349666191062287
% es.Ex (V/m) @ t=0.28
1.0287414912422954
% es.Ey (V/m) @ t=0.28
0.27198013572306046
% es.Ez (V/m) @ t=0.28
-2.349666191062278
% es.tEx (V/m) @ t=0.28
1.0287414912422888
% es.tEy (V/m) @ t=0.28
0
% es.tEz (V/m) @ t=0.28
-2.349666191062287
% V (V) @ t=0.28
0.012906648419131795
% es.normE (V/m) @ t=0.3
2.6065308104944065
% es.EX (V/m) @ t=0.3
1.03880326590556
% es.EY (V/m) @ t=0.3
0.2746402841978277
% es.EZ (V/m) @ t=0.3
-2.3726474865306333
% es.tEX (V/m) @ t=0.3
1.0388032659055604
% es.tEY (V/m) @ t=0.3
0
% es.tEZ (V/m) @ t=0.3
-2.372647486530635
% es.Ex (V/m) @ t=0.3
1.03880326590556
% es.Ey (V/m) @ t=0.3
0.2746402841978277
% es.Ez (V/m) @ t=0.3
-2.3726474865306333
% es.tEx (V/m) @ t=0.3
1.0388032659055604
% es.tEy (V/m) @ t=0.3
0
% es.tEz (V/m) @ t=0.3
-2.372647486530635
% V (V) @ t=0.3
0.013032883913927486
% es.normE (V/m) @ t=0.32
2.6317774833792402
% es.EX (V/m) @ t=0.32
1.0488650405688023
% es.EY (V/m) @ t=0.32
0.27730043267263316
% es.EZ (V/m) @ t=0.32
-2.395628781998985
% es.tEX (V/m) @ t=0.32
1.0488650405688027
% es.tEY (V/m) @ t=0.32
0
% es.tEZ (V/m) @ t=0.32
-2.395628781998994
% es.Ex (V/m) @ t=0.32
1.0488650405688023
% es.Ey (V/m) @ t=0.32
0.27730043267263316
% es.Ez (V/m) @ t=0.32
-2.395628781998985
% es.tEx (V/m) @ t=0.32
1.0488650405688027
% es.tEy (V/m) @ t=0.32
0
% es.tEz (V/m) @ t=0.32
-2.395628781998994
% V (V) @ t=0.32
0.013159119408723177
% es.normE (V/m) @ t=0.34
2.6570241562640735
% es.EX (V/m) @ t=0.34
1.0589268152320526
% es.EY (V/m) @ t=0.34
0.27996058114740663
% es.EZ (V/m) @ t=0.34
-2.4186100774673367
% es.tEX (V/m) @ t=0.34
1.0589268152320601
% es.tEY (V/m) @ t=0.34
0
% es.tEZ (V/m) @ t=0.34
-2.418610077467349
% es.Ex (V/m) @ t=0.34
1.0589268152320526
% es.Ey (V/m) @ t=0.34
0.27996058114740663
% es.Ez (V/m) @ t=0.34
-2.4186100774673367
% es.tEx (V/m) @ t=0.34
1.0589268152320601
% es.tEy (V/m) @ t=0.34
0
% es.tEz (V/m) @ t=0.34
-2.418610077467349
% V (V) @ t=0.34
0.013285354903518867
% es.normE (V/m) @ t=0.36
2.6822708291489006
% es.EX (V/m) @ t=0.36
1.0689885898952878
% es.EY (V/m) @ t=0.36
0.28262072962219076
% es.EZ (V/m) @ t=0.36
-2.4415913729356884
% es.tEX (V/m) @ t=0.36
1.0689885898952882
% es.tEY (V/m) @ t=0.36
0
% es.tEZ (V/m) @ t=0.36
-2.4415913729356937
% es.Ex (V/m) @ t=0.36
1.0689885898952878
% es.Ey (V/m) @ t=0.36
0.28262072962219076
% es.Ez (V/m) @ t=0.36
-2.4415913729356884
% es.tEx (V/m) @ t=0.36
1.0689885898952882
% es.tEy (V/m) @ t=0.36
0
% es.tEz (V/m) @ t=0.36
-2.4415913729356937
% V (V) @ t=0.36
0.01341159039831456
% es.normE (V/m) @ t=0.38
2.7075175020337423
% es.EX (V/m) @ t=0.38
1.0790503645585523
% es.EY (V/m) @ t=0.38
0.28528087809696334
% es.EZ (V/m) @ t=0.38
-2.4645726684040437
% es.tEX (V/m) @ t=0.38
1.0790503645585598
% es.tEY (V/m) @ t=0.38
0
% es.tEZ (V/m) @ t=0.38
-2.464572668404056
% es.Ex (V/m) @ t=0.38
1.0790503645585523
% es.Ey (V/m) @ t=0.38
0.28528087809696334
% es.Ez (V/m) @ t=0.38
-2.4645726684040437
% es.tEx (V/m) @ t=0.38
1.0790503645585598
% es.tEy (V/m) @ t=0.38
0
% es.tEz (V/m) @ t=0.38
-2.464572668404056
% V (V) @ t=0.38
0.013537825893110252
% es.normE (V/m) @ t=0.4
2.7327641749185814
% es.EX (V/m) @ t=0.4
1.0891121392218168
% es.EY (V/m) @ t=0.4
0.2879410265717395
% es.EZ (V/m) @ t=0.4
-2.4875539638723954
% es.tEX (V/m) @ t=0.4
1.0891121392218173
% es.tEY (V/m) @ t=0.4
0
% es.tEZ (V/m) @ t=0.4
-2.487553963872397
% es.Ex (V/m) @ t=0.4
1.0891121392218168
% es.Ey (V/m) @ t=0.4
0.2879410265717395
% es.Ez (V/m) @ t=0.4
-2.4875539638723954
% es.tEx (V/m) @ t=0.4
1.0891121392218173
% es.tEy (V/m) @ t=0.4
0
% es.tEz (V/m) @ t=0.4
-2.487553963872397
% V (V) @ t=0.4
0.013664061387905942
% es.normE (V/m) @ t=0.42
2.758010847803413
% es.EX (V/m) @ t=0.42
1.0991739138850591
% es.EY (V/m) @ t=0.42
0.29060117504652805
% es.EZ (V/m) @ t=0.42
-2.510535259340747
% es.tEX (V/m) @ t=0.42
1.0991739138850596
% es.tEY (V/m) @ t=0.42
0
% es.tEZ (V/m) @ t=0.42
-2.510535259340749
% es.Ex (V/m) @ t=0.42
1.0991739138850591
% es.Ey (V/m) @ t=0.42
0.29060117504652805
% es.Ez (V/m) @ t=0.42
-2.510535259340747
% es.tEx (V/m) @ t=0.42
1.0991739138850596
% es.tEy (V/m) @ t=0.42
0
% es.tEz (V/m) @ t=0.42
-2.510535259340749
% V (V) @ t=0.42
0.013790296882701635
% es.normE (V/m) @ t=0.44
2.7832575206882435
% es.EX (V/m) @ t=0.44
1.1092356885483028
% es.EY (V/m) @ t=0.44
0.2932613235213113
% es.EZ (V/m) @ t=0.44
-2.5335165548090988
% es.tEX (V/m) @ t=0.44
1.1092356885483028
% es.tEY (V/m) @ t=0.44
0
% es.tEZ (V/m) @ t=0.44
-2.533516554809104
% es.Ex (V/m) @ t=0.44
1.1092356885483028
% es.Ey (V/m) @ t=0.44
0.2932613235213113
% es.Ez (V/m) @ t=0.44
-2.5335165548090988
% es.tEx (V/m) @ t=0.44
1.1092356885483028
% es.tEy (V/m) @ t=0.44
0
% es.tEz (V/m) @ t=0.44
-2.533516554809104
% V (V) @ t=0.44
0.013916532377497322
% es.normE (V/m) @ t=0.46
2.808504193573074
% es.EX (V/m) @ t=0.46
1.1192974632115393
% es.EY (V/m) @ t=0.46
0.2959214719960839
% es.EZ (V/m) @ t=0.46
-2.556497850277454
% es.tEX (V/m) @ t=0.46
1.1192974632115327
% es.tEY (V/m) @ t=0.46
0
% es.tEZ (V/m) @ t=0.46
-2.5564978502774593
% es.Ex (V/m) @ t=0.46
1.1192974632115393
% es.Ey (V/m) @ t=0.46
0.2959214719960839
% es.Ez (V/m) @ t=0.46
-2.556497850277454
% es.tEx (V/m) @ t=0.46
1.1192974632115327
% es.tEy (V/m) @ t=0.46
0
% es.tEz (V/m) @ t=0.46
-2.5564978502774593
% V (V) @ t=0.46
0.014042767872293013
% es.normE (V/m) @ t=0.48
2.833750866457909
% es.EX (V/m) @ t=0.48
1.129359237874803
% es.EY (V/m) @ t=0.48
0.2985816204708609
% es.EZ (V/m) @ t=0.48
-2.579479145745802
% es.tEX (V/m) @ t=0.48
1.1293592378748034
% es.tEY (V/m) @ t=0.48
0
% es.tEZ (V/m) @ t=0.48
-2.579479145745811
% es.Ex (V/m) @ t=0.48
1.129359237874803
% es.Ey (V/m) @ t=0.48
0.2985816204708609
% es.Ez (V/m) @ t=0.48
-2.579479145745802
% es.tEx (V/m) @ t=0.48
1.1293592378748034
% es.tEy (V/m) @ t=0.48
0
% es.tEz (V/m) @ t=0.48
-2.579479145745811
% V (V) @ t=0.48
0.014169003367088708
% es.normE (V/m) @ t=0.5
2.8589975393427487
% es.EX (V/m) @ t=0.5
1.1394210125380462
% es.EY (V/m) @ t=0.5
0.30124176894565835
% es.EZ (V/m) @ t=0.5
-2.602460441214161
% es.tEX (V/m) @ t=0.5
1.1394210125380466
% es.tEY (V/m) @ t=0.5
0
% es.tEZ (V/m) @ t=0.5
-2.6024604412141663
% es.Ex (V/m) @ t=0.5
1.1394210125380462
% es.Ey (V/m) @ t=0.5
0.30124176894565835
% es.Ez (V/m) @ t=0.5
-2.602460441214161
% es.tEx (V/m) @ t=0.5
1.1394210125380466
% es.tEy (V/m) @ t=0.5
0
% es.tEz (V/m) @ t=0.5
-2.6024604412141663
% V (V) @ t=0.5
0.014295238861884397
% es.normE (V/m) @ t=0.52
2.8851763487977657
% es.EX (V/m) @ t=0.52
1.1498542796762297
% es.EY (V/m) @ t=0.52
0.30400013255933445
% es.EZ (V/m) @ t=0.52
-2.6262902329249638
% es.tEX (V/m) @ t=0.52
1.14985427967623
% es.tEY (V/m) @ t=0.52
0
% es.tEZ (V/m) @ t=0.52
-2.626290232924962
% es.Ex (V/m) @ t=0.52
1.1498542796762297
% es.Ey (V/m) @ t=0.52
0.30400013255933445
% es.Ez (V/m) @ t=0.52
-2.6262902329249638
% es.tEx (V/m) @ t=0.52
1.14985427967623
% es.tEy (V/m) @ t=0.52
0
% es.tEz (V/m) @ t=0.52
-2.626290232924962
% V (V) @ t=0.52
0.014426135152972901
% es.normE (V/m) @ t=0.54
2.9131589428429256
% es.EX (V/m) @ t=0.54
1.1610064247375615
% es.EY (V/m) @ t=0.54
0.30694855303780333
% es.EZ (V/m) @ t=0.54
-2.651761956189434
% es.tEX (V/m) @ t=0.54
1.161006424737562
% es.tEY (V/m) @ t=0.54
0
% es.tEZ (V/m) @ t=0.54
-2.651761956189439
% es.Ex (V/m) @ t=0.54
1.1610064247375615
% es.Ey (V/m) @ t=0.54
0.30694855303780333
% es.Ez (V/m) @ t=0.54
-2.651761956189434
% es.tEx (V/m) @ t=0.54
1.161006424737562
% es.tEy (V/m) @ t=0.54
0
% es.tEz (V/m) @ t=0.54
-2.651761956189439
% V (V) @ t=0.54
0.014566050586534396
% es.normE (V/m) @ t=0.56
2.9411415368880736
% es.EX (V/m) @ t=0.56
1.1721585697988721
% es.EY (V/m) @ t=0.56
0.30989697351627576
% es.EZ (V/m) @ t=0.56
-2.6772336794539005
% es.tEX (V/m) @ t=0.56
1.1721585697988797
% es.tEY (V/m) @ t=0.56
0
% es.tEZ (V/m) @ t=0.56
-2.677233679453906
% es.Ex (V/m) @ t=0.56
1.1721585697988721
% es.Ey (V/m) @ t=0.56
0.30989697351627576
% es.Ez (V/m) @ t=0.56
-2.6772336794539005
% es.tEx (V/m) @ t=0.56
1.1721585697988797
% es.tEy (V/m) @ t=0.56
0
% es.tEz (V/m) @ t=0.56
-2.677233679453906
% V (V) @ t=0.56
0.01470596602009589
% es.normE (V/m) @ t=0.58
2.969124130933224
% es.EX (V/m) @ t=0.58
1.1833107148601827
% es.EY (V/m) @ t=0.58
0.31284539399473754
% es.EZ (V/m) @ t=0.58
-2.7027054027183706
% es.tEX (V/m) @ t=0.58
1.1833107148601831
% es.tEY (V/m) @ t=0.58
0
% es.tEZ (V/m) @ t=0.58
-2.702705402718376
% es.Ex (V/m) @ t=0.58
1.1833107148601827
% es.Ey (V/m) @ t=0.58
0.31284539399473754
% es.Ez (V/m) @ t=0.58
-2.7027054027183706
% es.tEx (V/m) @ t=0.58
1.1833107148601831
% es.tEy (V/m) @ t=0.58
0
% es.tEz (V/m) @ t=0.58
-2.702705402718376
% V (V) @ t=0.58
0.014845881453657383
% es.normE (V/m) @ t=0.6
2.997106724978387
% es.EX (V/m) @ t=0.6
1.1944628599215137
% es.EY (V/m) @ t=0.6
0.31579381447321175
% es.EZ (V/m) @ t=0.6
-2.7281771259828442
% es.tEX (V/m) @ t=0.6
1.1944628599215141
% es.tEY (V/m) @ t=0.6
0
% es.tEZ (V/m) @ t=0.6
-2.7281771259828496
% es.Ex (V/m) @ t=0.6
1.1944628599215137
% es.Ey (V/m) @ t=0.6
0.31579381447321175
% es.Ez (V/m) @ t=0.6
-2.7281771259828442
% es.tEx (V/m) @ t=0.6
1.1944628599215141
% es.tEy (V/m) @ t=0.6
0
% es.tEz (V/m) @ t=0.6
-2.7281771259828496
% V (V) @ t=0.6
0.014985796887218869
% es.normE (V/m) @ t=0.62
3.0250893190235395
% es.EX (V/m) @ t=0.62
1.2056150049828314
% es.EY (V/m) @ t=0.62
0.3187422349516664
% es.EZ (V/m) @ t=0.62
-2.7536488492473143
% es.tEX (V/m) @ t=0.62
1.2056150049828318
% es.tEY (V/m) @ t=0.62
0
% es.tEZ (V/m) @ t=0.62
-2.7536488492473232
% es.Ex (V/m) @ t=0.62
1.2056150049828314
% es.Ey (V/m) @ t=0.62
0.3187422349516664
% es.Ez (V/m) @ t=0.62
-2.7536488492473143
% es.tEx (V/m) @ t=0.62
1.2056150049828318
% es.tEy (V/m) @ t=0.62
0
% es.tEz (V/m) @ t=0.62
-2.7536488492473232
% V (V) @ t=0.62
0.015125712320780367
% es.normE (V/m) @ t=0.64
3.0530719130686768
% es.EX (V/m) @ t=0.64
1.216767150044134
% es.EY (V/m) @ t=0.64
0.3216906554301495
% es.EZ (V/m) @ t=0.64
-2.7791205725117702
% es.tEX (V/m) @ t=0.64
1.2167671500441344
% es.tEY (V/m) @ t=0.64
0
% es.tEZ (V/m) @ t=0.64
-2.7791205725117827
% es.Ex (V/m) @ t=0.64
1.216767150044134
% es.Ey (V/m) @ t=0.64
0.3216906554301495
% es.Ez (V/m) @ t=0.64
-2.7791205725117702
% es.tEx (V/m) @ t=0.64
1.2167671500441344
% es.tEy (V/m) @ t=0.64
0
% es.tEz (V/m) @ t=0.64
-2.7791205725117827
% V (V) @ t=0.64
0.015265627754341857
% es.normE (V/m) @ t=0.66
3.0810545071138455
% es.EX (V/m) @ t=0.66
1.2279192951054525
% es.EY (V/m) @ t=0.66
0.3246390759086113
% es.EZ (V/m) @ t=0.66
-2.804592295776258
% es.tEX (V/m) @ t=0.66
1.227919295105453
% es.tEY (V/m) @ t=0.66
0
% es.tEZ (V/m) @ t=0.66
-2.80459229577626
% es.Ex (V/m) @ t=0.66
1.2279192951054525
% es.Ey (V/m) @ t=0.66
0.3246390759086113
% es.Ez (V/m) @ t=0.66
-2.804592295776258
% es.tEx (V/m) @ t=0.66
1.227919295105453
% es.tEy (V/m) @ t=0.66
0
% es.tEz (V/m) @ t=0.66
-2.80459229577626
% V (V) @ t=0.66
0.01540554318790335
% es.normE (V/m) @ t=0.68
3.109037101159001
% es.EX (V/m) @ t=0.68
1.2390714401667702
% es.EY (V/m) @ t=0.68
0.3275874963870695
% es.EZ (V/m) @ t=0.68
-2.830064019040732
% es.tEX (V/m) @ t=0.68
1.2390714401667706
% es.tEY (V/m) @ t=0.68
0
% es.tEZ (V/m) @ t=0.68
-2.8300640190407407
% es.Ex (V/m) @ t=0.68
1.2390714401667702
% es.Ey (V/m) @ t=0.68
0.3275874963870695
% es.Ez (V/m) @ t=0.68
-2.830064019040732
% es.tEx (V/m) @ t=0.68
1.2390714401667706
% es.tEy (V/m) @ t=0.68
0
% es.tEz (V/m) @ t=0.68
-2.8300640190407407
% V (V) @ t=0.68
0.015545458621464843
% es.normE (V/m) @ t=0.7
3.137019695204147
% es.EX (V/m) @ t=0.7
1.2502235852280879
% es.EY (V/m) @ t=0.7
0.33053591686552686
% es.EZ (V/m) @ t=0.7
-2.855535742305195
% es.tEX (V/m) @ t=0.7
1.2502235852280883
% es.tEY (V/m) @ t=0.7
0
% es.tEZ (V/m) @ t=0.7
-2.8555357423052072
% es.Ex (V/m) @ t=0.7
1.2502235852280879
% es.Ey (V/m) @ t=0.7
0.33053591686552686
% es.Ez (V/m) @ t=0.7
-2.855535742305195
% es.tEx (V/m) @ t=0.7
1.2502235852280883
% es.tEy (V/m) @ t=0.7
0
% es.tEz (V/m) @ t=0.7
-2.8555357423052072
% V (V) @ t=0.7
0.015685374055026333
% es.normE (V/m) @ t=0.72
3.165002289249297
% es.EX (V/m) @ t=0.72
1.2613757302893984
% es.EY (V/m) @ t=0.72
0.33348433734401084
% es.EZ (V/m) @ t=0.72
-2.8810074655696614
% es.tEX (V/m) @ t=0.72
1.261375730289406
% es.tEY (V/m) @ t=0.72
0
% es.tEZ (V/m) @ t=0.72
-2.8810074655696702
% es.Ex (V/m) @ t=0.72
1.2613757302893984
% es.Ey (V/m) @ t=0.72
0.33348433734401084
% es.Ez (V/m) @ t=0.72
-2.8810074655696614
% es.tEx (V/m) @ t=0.72
1.261375730289406
% es.tEy (V/m) @ t=0.72
0
% es.tEz (V/m) @ t=0.72
-2.8810074655696702
% V (V) @ t=0.72
0.015825289488587822
% es.normE (V/m) @ t=0.74
3.192984883294441
% es.EX (V/m) @ t=0.74
1.272527875350701
% es.EY (V/m) @ t=0.74
0.3364327578224735
% es.EZ (V/m) @ t=0.74
-2.906479188834128
% es.tEX (V/m) @ t=0.74
1.2725278753506943
% es.tEY (V/m) @ t=0.74
0
% es.tEZ (V/m) @ t=0.74
-2.9064791888341333
% es.Ex (V/m) @ t=0.74
1.272527875350701
% es.Ey (V/m) @ t=0.74
0.3364327578224735
% es.Ez (V/m) @ t=0.74
-2.906479188834128
% es.tEx (V/m) @ t=0.74
1.2725278753506943
% es.tEy (V/m) @ t=0.74
0
% es.tEz (V/m) @ t=0.74
-2.9064791888341333
% V (V) @ t=0.74
0.015965204922149315
% es.normE (V/m) @ t=0.76
3.2209674773396046
% es.EX (V/m) @ t=0.76
1.2836800204120258
% es.EY (V/m) @ t=0.76
0.3393811783009433
% es.EZ (V/m) @ t=0.76
-2.931950912098605
% es.tEX (V/m) @ t=0.76
1.2836800204120262
% es.tEY (V/m) @ t=0.76
0
% es.tEZ (V/m) @ t=0.76
-2.9319509120986105
% es.Ex (V/m) @ t=0.76
1.2836800204120258
% es.Ey (V/m) @ t=0.76
0.3393811783009433
% es.Ez (V/m) @ t=0.76
-2.931950912098605
% es.tEx (V/m) @ t=0.76
1.2836800204120262
% es.tEy (V/m) @ t=0.76
0
% es.tEz (V/m) @ t=0.76
-2.9319509120986105
% V (V) @ t=0.76
0.01610512035571081
% es.normE (V/m) @ t=0.78
3.2505349064838653
% es.EX (V/m) @ t=0.78
1.2954637834890352
% es.EY (V/m) @ t=0.78
0.3424965868806664
% es.EZ (V/m) @ t=0.78
-2.9588652636335926
% es.tEX (V/m) @ t=0.78
1.2954637834890361
% es.tEY (V/m) @ t=0.78
0
% es.tEZ (V/m) @ t=0.78
-2.958865263633598
% es.Ex (V/m) @ t=0.78
1.2954637834890352
% es.Ey (V/m) @ t=0.78
0.3424965868806664
% es.Ez (V/m) @ t=0.78
-2.9588652636335926
% es.tEx (V/m) @ t=0.78
1.2954637834890361
% es.tEy (V/m) @ t=0.78
0
% es.tEz (V/m) @ t=0.78
-2.958865263633598
% V (V) @ t=0.78
0.016252960106990618
% es.normE (V/m) @ t=0.8
3.2815997220219844
% es.EX (V/m) @ t=0.8
1.3078443128941908
% es.EY (V/m) @ t=0.8
0.34576976942117366
% es.EZ (V/m) @ t=0.8
-2.987142641482725
% es.tEX (V/m) @ t=0.8
1.3078443128941917
% es.tEY (V/m) @ t=0.8
0
% es.tEZ (V/m) @ t=0.8
-2.987142641482727
% es.Ex (V/m) @ t=0.8
1.3078443128941908
% es.Ey (V/m) @ t=0.8
0.34576976942117366
% es.Ez (V/m) @ t=0.8
-2.987142641482725
% es.tEx (V/m) @ t=0.8
1.3078443128941917
% es.tEy (V/m) @ t=0.8
0
% es.tEz (V/m) @ t=0.8
-2.987142641482727
% V (V) @ t=0.8
0.016408286924614813
% es.normE (V/m) @ t=0.82
3.312664537560091
% es.EX (V/m) @ t=0.82
1.3202248422993321
% es.EY (V/m) @ t=0.82
0.34904295196163826
% es.EZ (V/m) @ t=0.82
-3.0154200193318577
% es.tEX (V/m) @ t=0.82
1.320224842299333
% es.tEY (V/m) @ t=0.82
0
% es.tEZ (V/m) @ t=0.82
-3.0154200193318594
% es.Ex (V/m) @ t=0.82
1.3202248422993321
% es.Ey (V/m) @ t=0.82
0.34904295196163826
% es.Ez (V/m) @ t=0.82
-3.0154200193318577
% es.tEx (V/m) @ t=0.82
1.320224842299333
% es.tEy (V/m) @ t=0.82
0
% es.tEz (V/m) @ t=0.82
-3.0154200193318594
% V (V) @ t=0.82
0.016563613742239
% es.normE (V/m) @ t=0.84
3.34372935309821
% es.EX (V/m) @ t=0.84
1.332605371704516
% es.EY (V/m) @ t=0.84
0.3523161345021162
% es.EZ (V/m) @ t=0.84
-3.043697397180983
% es.tEX (V/m) @ t=0.84
1.332605371704517
% es.tEY (V/m) @ t=0.84
0
% es.tEZ (V/m) @ t=0.84
-3.0436973971809813
% es.Ex (V/m) @ t=0.84
1.332605371704516
% es.Ey (V/m) @ t=0.84
0.3523161345021162
% es.Ez (V/m) @ t=0.84
-3.043697397180983
% es.tEx (V/m) @ t=0.84
1.332605371704517
% es.tEy (V/m) @ t=0.84
0
% es.tEz (V/m) @ t=0.84
-3.0436973971809813
% V (V) @ t=0.84
0.016718940559863192
% es.normE (V/m) @ t=0.86
3.3747941686363063
% es.EX (V/m) @ t=0.86
1.3449859011096374
% es.EY (V/m) @ t=0.86
0.35558931704262164
% es.EZ (V/m) @ t=0.86
-3.071974775030105
% es.tEX (V/m) @ t=0.86
1.3449859011096308
% es.tEY (V/m) @ t=0.86
0
% es.tEZ (V/m) @ t=0.86
-3.0719747750301174
% es.Ex (V/m) @ t=0.86
1.3449859011096374
% es.Ey (V/m) @ t=0.86
0.35558931704262164
% es.Ez (V/m) @ t=0.86
-3.071974775030105
% es.tEx (V/m) @ t=0.86
1.3449859011096308
% es.tEy (V/m) @ t=0.86
0
% es.tEz (V/m) @ t=0.86
-3.0719747750301174
% V (V) @ t=0.86
0.01687426737748738
% es.normE (V/m) @ t=0.88
3.405858984174418
% es.EX (V/m) @ t=0.88
1.357366430514786
% es.EY (V/m) @ t=0.88
0.35886249958313243
% es.EZ (V/m) @ t=0.88
-3.100252152879234
% es.tEX (V/m) @ t=0.88
1.3573664305147863
% es.tEY (V/m) @ t=0.88
0
% es.tEZ (V/m) @ t=0.88
-3.1002521528792393
% es.Ex (V/m) @ t=0.88
1.357366430514786
% es.Ey (V/m) @ t=0.88
0.35886249958313243
% es.Ez (V/m) @ t=0.88
-3.100252152879234
% es.tEx (V/m) @ t=0.88
1.3573664305147863
% es.tEy (V/m) @ t=0.88
0
% es.tEz (V/m) @ t=0.88
-3.1002521528792393
% V (V) @ t=0.88
0.01702959419511157
% es.normE (V/m) @ t=0.9
3.436923799712523
% es.EX (V/m) @ t=0.9
1.3697469599199557
% es.EY (V/m) @ t=0.9
0.36213568212358993
% es.EZ (V/m) @ t=0.9
-3.1285295307283523
% es.tEX (V/m) @ t=0.9
1.369746959919956
% es.tEY (V/m) @ t=0.9
0
% es.tEZ (V/m) @ t=0.9
-3.1285295307283576
% es.Ex (V/m) @ t=0.9
1.3697469599199557
% es.Ey (V/m) @ t=0.9
0.36213568212358993
% es.Ez (V/m) @ t=0.9
-3.1285295307283523
% es.tEx (V/m) @ t=0.9
1.369746959919956
% es.tEy (V/m) @ t=0.9
0
% es.tEz (V/m) @ t=0.9
-3.1285295307283576
% V (V) @ t=0.9
0.017184921012735763
% es.normE (V/m) @ t=0.92
3.4679886152506327
% es.EX (V/m) @ t=0.92
1.382127489325097
% es.EY (V/m) @ t=0.92
0.3654088646641034
% es.EZ (V/m) @ t=0.92
-3.1568069085774813
% es.tEX (V/m) @ t=0.92
1.3821274893250974
% es.tEY (V/m) @ t=0.92
0
% es.tEZ (V/m) @ t=0.92
-3.1568069085774937
% es.Ex (V/m) @ t=0.92
1.382127489325097
% es.Ey (V/m) @ t=0.92
0.3654088646641034
% es.Ez (V/m) @ t=0.92
-3.1568069085774813
% es.tEx (V/m) @ t=0.92
1.3821274893250974
% es.tEy (V/m) @ t=0.92
0
% es.tEz (V/m) @ t=0.92
-3.1568069085774937
% V (V) @ t=0.92
0.017340247830359954
% es.normE (V/m) @ t=0.94
3.4990534307887526
% es.EX (V/m) @ t=0.94
1.3945080187302668
% es.EY (V/m) @ t=0.94
0.36868204720459286
% es.EZ (V/m) @ t=0.94
-3.1850842864266102
% es.tEX (V/m) @ t=0.94
1.3945080187302672
% es.tEY (V/m) @ t=0.94
0
% es.tEZ (V/m) @ t=0.94
-3.185084286426605
% es.Ex (V/m) @ t=0.94
1.3945080187302668
% es.Ey (V/m) @ t=0.94
0.36868204720459286
% es.Ez (V/m) @ t=0.94
-3.1850842864266102
% es.tEx (V/m) @ t=0.94
1.3945080187302672
% es.tEy (V/m) @ t=0.94
0
% es.tEz (V/m) @ t=0.94
-3.185084286426605
% V (V) @ t=0.94
0.01749557464798414
% es.normE (V/m) @ t=0.96
3.530118246326861
% es.EX (V/m) @ t=0.96
1.4068885481354294
% es.EY (V/m) @ t=0.96
0.3719552297450788
% es.EZ (V/m) @ t=0.96
-3.213361664275732
% es.tEX (V/m) @ t=0.96
1.4068885481354227
% es.tEY (V/m) @ t=0.96
0
% es.tEZ (V/m) @ t=0.96
-3.213361664275734
% es.Ex (V/m) @ t=0.96
1.4068885481354294
% es.Ey (V/m) @ t=0.96
0.3719552297450788
% es.Ez (V/m) @ t=0.96
-3.213361664275732
% es.tEx (V/m) @ t=0.96
1.4068885481354227
% es.tEy (V/m) @ t=0.96
0
% es.tEz (V/m) @ t=0.96
-3.213361664275734
% V (V) @ t=0.96
0.017650901465608333
% es.normE (V/m) @ t=0.98
3.56118306186496
% es.EX (V/m) @ t=0.98
1.4192690775405636
% es.EY (V/m) @ t=0.98
0.37522841228555315
% es.EZ (V/m) @ t=0.98
-3.2416390421248575
% es.tEX (V/m) @ t=0.98
1.419269077540564
% es.tEY (V/m) @ t=0.98
0
% es.tEZ (V/m) @ t=0.98
-3.2416390421248593
% es.Ex (V/m) @ t=0.98
1.4192690775405636
% es.Ey (V/m) @ t=0.98
0.37522841228555315
% es.Ez (V/m) @ t=0.98
-3.2416390421248575
% es.tEx (V/m) @ t=0.98
1.419269077540564
% es.tEy (V/m) @ t=0.98
0
% es.tEz (V/m) @ t=0.98
-3.2416390421248593
% V (V) @ t=0.98
0.017806228283232525
% es.normE (V/m) @ t=1
3.592247877403095
% es.EX (V/m) @ t=1
1.4316496069457476
% es.EY (V/m) @ t=1
0.3785015948260426
% es.EZ (V/m) @ t=1
-3.269916419973997
% es.tEX (V/m) @ t=1
1.431649606945748
% es.tEY (V/m) @ t=1
0
% es.tEZ (V/m) @ t=1
-3.2699164199740096
% es.Ex (V/m) @ t=1
1.4316496069457476
% es.Ey (V/m) @ t=1
0.3785015948260426
% es.Ez (V/m) @ t=1
-3.269916419973997
% es.tEx (V/m) @ t=1
1.431649606945748
% es.tEy (V/m) @ t=1
0
% es.tEz (V/m) @ t=1
-3.2699164199740096
% V (V) @ t=1
0.017961555100856716
% es.normE (V/m) @ t=1.02
3.6233126929412003
% es.EX (V/m) @ t=1.02
1.4440301363509032
% es.EY (V/m) @ t=1.02
0.38177477736654986
% es.EZ (V/m) @ t=1.02
-3.2981937978231155
% es.tEX (V/m) @ t=1.02
1.4440301363509036
% es.tEY (V/m) @ t=1.02
0
% es.tEZ (V/m) @ t=1.02
-3.298193797823121
% es.Ex (V/m) @ t=1.02
1.4440301363509032
% es.Ey (V/m) @ t=1.02
0.38177477736654986
% es.Ez (V/m) @ t=1.02
-3.2981937978231155
% es.tEx (V/m) @ t=1.02
1.4440301363509036
% es.tEy (V/m) @ t=1.02
0
% es.tEz (V/m) @ t=1.02
-3.298193797823121
% V (V) @ t=1.02
0.018116881918480907
% es.normE (V/m) @ t=1.04
3.6554067249964435
% es.EX (V/m) @ t=1.04
1.4568208484172716
% es.EY (V/m) @ t=1.04
0.3851564040300186
% es.EZ (V/m) @ t=1.04
-3.3274080408647695
% es.tEX (V/m) @ t=1.04
1.456820848417272
% es.tEY (V/m) @ t=1.04
0
% es.tEZ (V/m) @ t=1.04
-3.327408040864789
% es.Ex (V/m) @ t=1.04
1.4568208484172716