% Model:              1 neuron.mph
% Version:            COMSOL 6.1.0.252
% Date:               Mar 27 2023, 14:51
% Dimension:          0
% Nodes:              14017
% Expressions:        14017
% Description:        Electric field norm, Electric field, X component, Electric field, Y component, Electric field, Z component, Tangential electric field, X component, Tangential electric field, Y component, Tangential electric field, Z component, Electric field, x component, Electric field, y component, Electric field, z component, Tangential electric field, x component, Tangential electric field, y component, Tangential electric field, z component, Electric potential
% Length unit:        mm
% x
2
% y
12.2
% z
1.33
% es.normE (V/m) @ t=0
2.3733061680861076
% es.EX (V/m) @ t=0
-2.1829128645608
% es.EY (V/m) @ t=0
0.17028204786929924
% es.EZ (V/m) @ t=0
0.9129362529579462
% es.tEX (V/m) @ t=0
-2.182912864560791
% es.tEY (V/m) @ t=0
0
% es.tEZ (V/m) @ t=0
0.912936252957941
% es.Ex (V/m) @ t=0
-2.1829128645608
% es.Ey (V/m) @ t=0
0.17028204786929924
% es.Ez (V/m) @ t=0
0.9129362529579462
% es.tEx (V/m) @ t=0
-2.182912864560791
% es.tEy (V/m) @ t=0
0
% es.tEz (V/m) @ t=0
0.912936252957941
% V (V) @ t=0
0.01325064572150565
% es.normE (V/m) @ t=0.02
2.049846304970319
% es.EX (V/m) @ t=0.02
-1.8854018624035047
% es.EY (V/m) @ t=0.02
0.1470741667760863
% es.EZ (V/m) @ t=0.02
0.788511415092809
% es.tEX (V/m) @ t=0.02
-1.8854018624034925
% es.tEY (V/m) @ t=0.02
0
% es.tEZ (V/m) @ t=0.02
0.7885114150928096
% es.Ex (V/m) @ t=0.02
-1.8854018624035047
% es.Ey (V/m) @ t=0.02
0.1470741667760863
% es.Ez (V/m) @ t=0.02
0.788511415092809
% es.tEx (V/m) @ t=0.02
-1.8854018624034925
% es.tEy (V/m) @ t=0.02
0
% es.tEz (V/m) @ t=0.02
0.7885114150928096
% V (V) @ t=0.02
0.011444704234422544
% es.normE (V/m) @ t=0.04
2.068700901272889
% es.EX (V/m) @ t=0.04
-1.9027438898189846
% es.EY (V/m) @ t=0.04
0.14842696320985282
% es.EZ (V/m) @ t=0.04
0.7957641855513882
% es.tEX (V/m) @ t=0.04
-1.902743889818975
% es.tEY (V/m) @ t=0.04
0
% es.tEZ (V/m) @ t=0.04
0.7957641855513948
% es.Ex (V/m) @ t=0.04
-1.9027438898189846
% es.Ey (V/m) @ t=0.04
0.14842696320985282
% es.Ez (V/m) @ t=0.04
0.7957641855513882
% es.tEx (V/m) @ t=0.04
-1.902743889818975
% es.tEy (V/m) @ t=0.04
0
% es.tEz (V/m) @ t=0.04
0.7957641855513948
% V (V) @ t=0.04
0.011549973226121907
% es.normE (V/m) @ t=0.06
2.0876928773583665
% es.EX (V/m) @ t=0.06
-1.9202122762932206
% es.EY (V/m) @ t=0.06
0.14978961539456903
% es.EZ (V/m) @ t=0.06
0.8030698011720003
% es.tEX (V/m) @ t=0.06
-1.9202122762932152
% es.tEY (V/m) @ t=0.06
0
% es.tEZ (V/m) @ t=0.06
0.803069801171997
% es.Ex (V/m) @ t=0.06
-1.9202122762932206
% es.Ey (V/m) @ t=0.06
0.14978961539456903
% es.Ez (V/m) @ t=0.06
0.8030698011720003
% es.tEx (V/m) @ t=0.06
-1.9202122762932152
% es.tEy (V/m) @ t=0.06
0
% es.tEz (V/m) @ t=0.06
0.803069801171997
% V (V) @ t=0.06
0.011656009276840835
% es.normE (V/m) @ t=0.08
2.1070489511301225
% es.EX (V/m) @ t=0.08
-1.938015551358576
% es.EY (V/m) @ t=0.08
0.15117839178200454
% es.EZ (V/m) @ t=0.08
0.8105154740229279
% es.tEX (V/m) @ t=0.08
-1.938015551358566
% es.tEY (V/m) @ t=0.08
0
% es.tEZ (V/m) @ t=0.08
0.8105154740229246
% es.Ex (V/m) @ t=0.08
-1.938015551358576
% es.Ey (V/m) @ t=0.08
0.15117839178200454
% es.Ez (V/m) @ t=0.08
0.8105154740229279
% es.tEx (V/m) @ t=0.08
-1.938015551358566
% es.tEy (V/m) @ t=0.08
0
% es.tEz (V/m) @ t=0.08
0.8105154740229246
% V (V) @ t=0.08
0.011764078135237716
% es.normE (V/m) @ t=0.1
2.12650350386365
% es.EX (V/m) @ t=0.1
-1.9559094050845687
% es.EY (V/m) @ t=0.1
0.15257423408736726
% es.EZ (V/m) @ t=0.1
0.8179990287147632
% es.tEX (V/m) @ t=0.1
-1.9559094050845598
% es.tEY (V/m) @ t=0.1
0
% es.tEZ (V/m) @ t=0.1
0.8179990287147518
% es.Ex (V/m) @ t=0.1
-1.9559094050845687
% es.Ey (V/m) @ t=0.1
0.15257423408736726
% es.Ez (V/m) @ t=0.1
0.8179990287147632
% es.tEx (V/m) @ t=0.1
-1.9559094050845598
% es.tEy (V/m) @ t=0.1
0
% es.tEz (V/m) @ t=0.1
0.8179990287147518
% V (V) @ t=0.1
0.011872696815281775
% es.normE (V/m) @ t=0.12
2.1459580565971836
% es.EX (V/m) @ t=0.12
-1.9738032588105614
% es.EY (V/m) @ t=0.12
0.1539700763927333
% es.EZ (V/m) @ t=0.12
0.8254825834066111
% es.tEX (V/m) @ t=0.12
-1.97380325881055
% es.tEY (V/m) @ t=0.12
0
% es.tEZ (V/m) @ t=0.12
0.825482583406604
% es.Ex (V/m) @ t=0.12
-1.9738032588105614
% es.Ey (V/m) @ t=0.12
0.1539700763927333
% es.Ez (V/m) @ t=0.12
0.8254825834066111
% es.tEx (V/m) @ t=0.12
-1.97380325881055
% es.tEy (V/m) @ t=0.12
0
% es.tEz (V/m) @ t=0.12
0.825482583406604
% V (V) @ t=0.12
0.011981315495325833
% es.normE (V/m) @ t=0.14
2.1659788619769826
% es.EX (V/m) @ t=0.14
-1.992217938767977
% es.EY (V/m) @ t=0.14
0.15540654655008324
% es.EZ (V/m) @ t=0.14
0.8331839577805779
% es.tEX (V/m) @ t=0.14
-1.9922179387679666
% es.tEY (V/m) @ t=0.14
0
% es.tEZ (V/m) @ t=0.14
0.8331839577805802
% es.Ex (V/m) @ t=0.14
-1.992217938767977
% es.Ey (V/m) @ t=0.14
0.15540654655008324
% es.Ez (V/m) @ t=0.14
0.8331839577805779
% es.tEx (V/m) @ t=0.14
-1.9922179387679666
% es.tEy (V/m) @ t=0.14
0
% es.tEz (V/m) @ t=0.14
0.8331839577805802
% V (V) @ t=0.14
0.012093095671903776
% es.normE (V/m) @ t=0.16
2.1864089075254745
% es.EX (V/m) @ t=0.16
-2.011009028471488
% es.EY (V/m) @ t=0.16
0.15687237912917373
% es.EZ (V/m) @ t=0.16
0.8410427540474797
% es.tEX (V/m) @ t=0.16
-2.0110090284714772
% es.tEY (V/m) @ t=0.16
0
% es.tEZ (V/m) @ t=0.16
0.841042754047475
% es.Ex (V/m) @ t=0.16
-2.011009028471488
% es.Ey (V/m) @ t=0.16
0.15687237912917373
% es.Ez (V/m) @ t=0.16
0.8410427540474797
% es.tEx (V/m) @ t=0.16
-2.0110090284714772
% es.tEy (V/m) @ t=0.16
0
% es.tEz (V/m) @ t=0.16
0.841042754047475
% V (V) @ t=0.16
0.012207160714404006
% es.normE (V/m) @ t=0.18
2.2068389530739827
% es.EX (V/m) @ t=0.18
-2.0298001181750105
% es.EY (V/m) @ t=0.18
0.15833821170825535
% es.EZ (V/m) @ t=0.18
0.8489015503143958
% es.tEX (V/m) @ t=0.18
-2.0298001181749967
% es.tEY (V/m) @ t=0.18
0
% es.tEZ (V/m) @ t=0.18
0.8489015503144017
% es.Ex (V/m) @ t=0.18
-2.0298001181750105
% es.Ey (V/m) @ t=0.18
0.15833821170825535
% es.Ez (V/m) @ t=0.18
0.8489015503143958
% es.tEx (V/m) @ t=0.18
-2.0298001181749967
% es.tEy (V/m) @ t=0.18
0
% es.tEz (V/m) @ t=0.18
0.8489015503144017
% V (V) @ t=0.18
0.012321225756904242
% es.normE (V/m) @ t=0.2
2.22726899862247
% es.EX (V/m) @ t=0.2
-2.048591207878517
% es.EY (V/m) @ t=0.2
0.15980404428735284
% es.EZ (V/m) @ t=0.2
0.8567603465812944
% es.tEX (V/m) @ t=0.2
-2.048591207878509
% es.tEY (V/m) @ t=0.2
0
% es.tEZ (V/m) @ t=0.2
0.8567603465812965
% es.Ex (V/m) @ t=0.2
-2.048591207878517
% es.Ey (V/m) @ t=0.2
0.15980404428735284
% es.Ez (V/m) @ t=0.2
0.8567603465812944
% es.tEx (V/m) @ t=0.2
-2.048591207878509
% es.tEy (V/m) @ t=0.2
0
% es.tEz (V/m) @ t=0.2
0.8567603465812965
% V (V) @ t=0.2
0.012435290799404473
% es.normE (V/m) @ t=0.22
2.2476990441709805
% es.EX (V/m) @ t=0.22
-2.06738229758204
% es.EY (V/m) @ t=0.22
0.1612698768664379
% es.EZ (V/m) @ t=0.22
0.8646191428482161
% es.tEX (V/m) @ t=0.22
-2.0673822975820286
% es.tEY (V/m) @ t=0.22
0
% es.tEZ (V/m) @ t=0.22
0.8646191428482197
% es.Ex (V/m) @ t=0.22
-2.06738229758204
% es.Ey (V/m) @ t=0.22
0.1612698768664379
% es.Ez (V/m) @ t=0.22
0.8646191428482161
% es.tEx (V/m) @ t=0.22
-2.0673822975820286
% es.tEy (V/m) @ t=0.22
0
% es.tEz (V/m) @ t=0.22
0.8646191428482197
% V (V) @ t=0.22
0.012549355841904706
% es.normE (V/m) @ t=0.24
2.268129089719472
% es.EX (V/m) @ t=0.24
-2.0861733872855455
% es.EY (V/m) @ t=0.24
0.16273570944553006
% es.EZ (V/m) @ t=0.24
0.8724779391151286
% es.tEX (V/m) @ t=0.24
-2.086173387285543
% es.tEY (V/m) @ t=0.24
0
% es.tEZ (V/m) @ t=0.24
0.8724779391151216
% es.Ex (V/m) @ t=0.24
-2.0861733872855455
% es.Ey (V/m) @ t=0.24
0.16273570944553006
% es.Ez (V/m) @ t=0.24
0.8724779391151286
% es.tEx (V/m) @ t=0.24
-2.086173387285543
% es.tEy (V/m) @ t=0.24
0
% es.tEz (V/m) @ t=0.24
0.8724779391151216
% V (V) @ t=0.24
0.01266342088440494
% es.normE (V/m) @ t=0.26
2.2889233852422506
% es.EX (V/m) @ t=0.26
-2.105299505721666
% es.EY (V/m) @ t=0.26
0.1642276767849108
% es.EZ (V/m) @ t=0.26
0.8804768510661326
% es.tEX (V/m) @ t=0.26
-2.10529950572165
% es.tEY (V/m) @ t=0.26
0
% es.tEZ (V/m) @ t=0.26
0.8804768510661383
% es.Ex (V/m) @ t=0.26
-2.105299505721666
% es.Ey (V/m) @ t=0.26
0.1642276767849108
% es.Ez (V/m) @ t=0.26
0.8804768510661326
% es.tEx (V/m) @ t=0.26
-2.10529950572165
% es.tEy (V/m) @ t=0.26
0
% es.tEz (V/m) @ t=0.26
0.8804768510661383
% V (V) @ t=0.26
0.012779519594925544
% es.normE (V/m) @ t=0.28
2.311531698391531
% es.EX (V/m) @ t=0.28
-2.1260941157685833
% es.EY (V/m) @ t=0.28
0.1658497990157094
% es.EZ (V/m) @ t=0.28
0.8891735594170603
% es.tEX (V/m) @ t=0.28
-2.1260941157685753
% es.tEY (V/m) @ t=0.28
0
% es.tEZ (V/m) @ t=0.28
0.8891735594170598
% es.Ex (V/m) @ t=0.28
-2.1260941157685833
% es.Ey (V/m) @ t=0.28
0.1658497990157094
% es.Ez (V/m) @ t=0.28
0.8891735594170603
% es.tEx (V/m) @ t=0.28
-2.1260941157685753
% es.tEy (V/m) @ t=0.28
0
% es.tEz (V/m) @ t=0.28
0.8891735594170598
% V (V) @ t=0.28
0.012905746266724904
% es.normE (V/m) @ t=0.3
2.33414001154081
% es.EX (V/m) @ t=0.3
-2.1468887258155043
% es.EY (V/m) @ t=0.3
0.16747192124647248
% es.EZ (V/m) @ t=0.3
0.8978702677679861
% es.tEX (V/m) @ t=0.3
-2.146888725815497
% es.tEY (V/m) @ t=0.3
0
% es.tEZ (V/m) @ t=0.3
0.8978702677679848
% es.Ex (V/m) @ t=0.3
-2.1468887258155043
% es.Ey (V/m) @ t=0.3
0.16747192124647248
% es.Ez (V/m) @ t=0.3
0.8978702677679861
% es.tEx (V/m) @ t=0.3
-2.146888725815497
% es.tEy (V/m) @ t=0.3
0
% es.tEz (V/m) @ t=0.3
0.8978702677679848
% V (V) @ t=0.3
0.013031972938524261
% es.normE (V/m) @ t=0.32
2.3567483246900793
% es.EX (V/m) @ t=0.32
-2.1676833358624137
% es.EY (V/m) @ t=0.32
0.16909404347728008
% es.EZ (V/m) @ t=0.32
0.9065669761189029
% es.tEX (V/m) @ t=0.32
-2.167683335862403
% es.tEY (V/m) @ t=0.32
0
% es.tEZ (V/m) @ t=0.32
0.9065669761188957
% es.Ex (V/m) @ t=0.32
-2.1676833358624137
% es.Ey (V/m) @ t=0.32
0.16909404347728008
% es.Ez (V/m) @ t=0.32
0.9065669761189029
% es.tEx (V/m) @ t=0.32
-2.167683335862403
% es.tEy (V/m) @ t=0.32
0
% es.tEz (V/m) @ t=0.32
0.9065669761188957
% V (V) @ t=0.32
0.013158199610323619
% es.normE (V/m) @ t=0.34
2.379356637839348
% es.EX (V/m) @ t=0.34
-2.188477945909324
% es.EY (V/m) @ t=0.34
0.17071616570806092
% es.EZ (V/m) @ t=0.34
0.9152636844698233
% es.tEX (V/m) @ t=0.34
-2.188477945909309
% es.tEY (V/m) @ t=0.34
0
% es.tEZ (V/m) @ t=0.34
0.9152636844698208
% es.Ex (V/m) @ t=0.34
-2.188477945909324
% es.Ey (V/m) @ t=0.34
0.17071616570806092
% es.Ez (V/m) @ t=0.34
0.9152636844698233
% es.tEx (V/m) @ t=0.34
-2.188477945909309
% es.tEy (V/m) @ t=0.34
0
% es.tEz (V/m) @ t=0.34
0.9152636844698208
% V (V) @ t=0.34
0.013284426282122978
% es.normE (V/m) @ t=0.36
2.401964950988639
% es.EX (V/m) @ t=0.36
-2.2092725559562476
% es.EY (V/m) @ t=0.36
0.17233828793886852
% es.EZ (V/m) @ t=0.36
0.9239603928207597
% es.tEX (V/m) @ t=0.36
-2.209272555956238
% es.tEY (V/m) @ t=0.36
0
% es.tEZ (V/m) @ t=0.36
0.92396039282076
% es.Ex (V/m) @ t=0.36
-2.2092725559562476
% es.Ey (V/m) @ t=0.36
0.17233828793886852
% es.Ez (V/m) @ t=0.36
0.9239603928207597
% es.tEx (V/m) @ t=0.36
-2.209272555956238
% es.tEy (V/m) @ t=0.36
0
% es.tEz (V/m) @ t=0.36
0.92396039282076
% V (V) @ t=0.36
0.013410652953922336
% es.normE (V/m) @ t=0.38
2.424573264137906
% es.EX (V/m) @ t=0.38
-2.230067166003157
% es.EY (V/m) @ t=0.38
0.17396041016964758
% es.EZ (V/m) @ t=0.38
0.9326571011716803
% es.tEX (V/m) @ t=0.38
-2.2300671660031437
% es.tEY (V/m) @ t=0.38
0
% es.tEZ (V/m) @ t=0.38
0.932657101171678
% es.Ex (V/m) @ t=0.38
-2.230067166003157
% es.Ey (V/m) @ t=0.38
0.17396041016964758
% es.Ez (V/m) @ t=0.38
0.9326571011716803
% es.tEx (V/m) @ t=0.38
-2.2300671660031437
% es.tEy (V/m) @ t=0.38
0
% es.tEz (V/m) @ t=0.38
0.932657101171678
% V (V) @ t=0.38
0.013536879625721695
% es.normE (V/m) @ t=0.4
2.447181577287167
% es.EX (V/m) @ t=0.4
-2.250861776050061
% es.EY (V/m) @ t=0.4
0.17558253240042843
% es.EZ (V/m) @ t=0.4
0.9413538095225936
% es.tEX (V/m) @ t=0.4
-2.250861776050048
% es.tEY (V/m) @ t=0.4
0
% es.tEZ (V/m) @ t=0.4
0.9413538095225888
% es.Ex (V/m) @ t=0.4
-2.250861776050061
% es.Ey (V/m) @ t=0.4
0.17558253240042843
% es.Ez (V/m) @ t=0.4
0.9413538095225936
% es.tEx (V/m) @ t=0.4
-2.250861776050048
% es.tEy (V/m) @ t=0.4
0
% es.tEz (V/m) @ t=0.4
0.9413538095225888
% V (V) @ t=0.4
0.013663106297521056
% es.normE (V/m) @ t=0.42
2.4697898904364513
% es.EX (V/m) @ t=0.42
-2.271656386096981
% es.EY (V/m) @ t=0.42
0.17720465463120938
% es.EZ (V/m) @ t=0.42
0.95005051787353
% es.tEX (V/m) @ t=0.42
-2.2716563860969696
% es.tEY (V/m) @ t=0.42
0
% es.tEZ (V/m) @ t=0.42
0.9500505178735281
% es.Ex (V/m) @ t=0.42
-2.271656386096981
% es.Ey (V/m) @ t=0.42
0.17720465463120938
% es.Ez (V/m) @ t=0.42
0.95005051787353
% es.tEx (V/m) @ t=0.42
-2.2716563860969696
% es.tEy (V/m) @ t=0.42
0
% es.tEz (V/m) @ t=0.42
0.9500505178735281
% V (V) @ t=0.42
0.013789332969320412
% es.normE (V/m) @ t=0.44
2.492398203585724
% es.EX (V/m) @ t=0.44
-2.292450996143895
% es.EY (V/m) @ t=0.44
0.17882677686202753
% es.EZ (V/m) @ t=0.44
0.9587472262244434
% es.tEX (V/m) @ t=0.44
-2.2924509961438826
% es.tEY (V/m) @ t=0.44
0
% es.tEZ (V/m) @ t=0.44
0.9587472262244461
% es.Ex (V/m) @ t=0.44
-2.292450996143895
% es.Ey (V/m) @ t=0.44
0.17882677686202753
% es.Ez (V/m) @ t=0.44
0.9587472262244434
% es.tEx (V/m) @ t=0.44
-2.2924509961438826
% es.tEy (V/m) @ t=0.44
0
% es.tEz (V/m) @ t=0.44
0.9587472262244461
% V (V) @ t=0.44
0.013915559641119773
% es.normE (V/m) @ t=0.46
2.5150065167350037
% es.EX (V/m) @ t=0.46
-2.3132456061908124
% es.EY (V/m) @ t=0.46
0.18044889909280837
% es.EZ (V/m) @ t=0.46
0.9674439345753746
% es.tEX (V/m) @ t=0.46
-2.3132456061907973
% es.tEY (V/m) @ t=0.46
0
% es.tEZ (V/m) @ t=0.46
0.9674439345753783
% es.Ex (V/m) @ t=0.46
-2.3132456061908124
% es.Ey (V/m) @ t=0.46
0.18044889909280837
% es.Ez (V/m) @ t=0.46
0.9674439345753746
% es.tEx (V/m) @ t=0.46
-2.3132456061907973
% es.tEy (V/m) @ t=0.46
0
% es.tEz (V/m) @ t=0.46
0.9674439345753783
% V (V) @ t=0.46
0.014041786312919129
% es.normE (V/m) @ t=0.48
2.5376148298842685
% es.EX (V/m) @ t=0.48
-2.3340402162377174
% es.EY (V/m) @ t=0.48
0.1820710213235982
% es.EZ (V/m) @ t=0.48
0.9761406429262932
% es.tEX (V/m) @ t=0.48
-2.3340402162377103
% es.tEY (V/m) @ t=0.48
0
% es.tEZ (V/m) @ t=0.48
0.9761406429263033
% es.Ex (V/m) @ t=0.48
-2.3340402162377174
% es.Ey (V/m) @ t=0.48
0.1820710213235982
% es.Ez (V/m) @ t=0.48
0.9761406429262932
% es.tEx (V/m) @ t=0.48
-2.3340402162377103
% es.tEy (V/m) @ t=0.48
0
% es.tEz (V/m) @ t=0.48
0.9761406429263033
% V (V) @ t=0.48
0.014168012984718486
% es.normE (V/m) @ t=0.5
2.5602231430335367
% es.EX (V/m) @ t=0.5
-2.3548348262846277
% es.EY (V/m) @ t=0.5
0.18369314355440214
% es.EZ (V/m) @ t=0.5
0.9848373512772065
% es.tEX (V/m) @ t=0.5
-2.354834826284616
% es.tEY (V/m) @ t=0.5
0
% es.tEZ (V/m) @ t=0.5
0.9848373512772071
% es.Ex (V/m) @ t=0.5
-2.3548348262846277
% es.Ey (V/m) @ t=0.5
0.18369314355440214
% es.Ez (V/m) @ t=0.5
0.9848373512772065
% es.tEx (V/m) @ t=0.5
-2.354834826284616
% es.tEy (V/m) @ t=0.5
0
% es.tEz (V/m) @ t=0.5
0.9848373512772071
% V (V) @ t=0.5
0.014294239656517847
% es.normE (V/m) @ t=0.52
2.5836661822625375
% es.EX (V/m) @ t=0.52
-2.376397198503015
% es.EY (V/m) @ t=0.52
0.1853751561827256
% es.EZ (V/m) @ t=0.52
0.9938551521276363
% es.tEX (V/m) @ t=0.52
-2.376397198503005
% es.tEY (V/m) @ t=0.52
0
% es.tEZ (V/m) @ t=0.52
0.9938551521276366
% es.Ex (V/m) @ t=0.52
-2.376397198503015
% es.Ey (V/m) @ t=0.52
0.1853751561827256
% es.Ez (V/m) @ t=0.52
0.9938551521276363
% es.tEx (V/m) @ t=0.52
-2.376397198503005
% es.tEy (V/m) @ t=0.52
0
% es.tEz (V/m) @ t=0.52
0.9938551521276366
% V (V) @ t=0.52
0.014425126798693351
% es.normE (V/m) @ t=0.54
2.608724506298235
% es.EX (V/m) @ t=0.54
-2.3994452731582356
% es.EY (V/m) @ t=0.54
0.18717306317636928
% es.EZ (V/m) @ t=0.54
1.003494301524115
% es.tEX (V/m) @ t=0.54
-2.3994452731582285
% es.tEY (V/m) @ t=0.54
0
% es.tEZ (V/m) @ t=0.54
1.0034943015241211
% es.Ex (V/m) @ t=0.54
-2.3994452731582356
% es.Ey (V/m) @ t=0.54
0.18717306317636928
% es.Ez (V/m) @ t=0.54
1.003494301524115
% es.tEx (V/m) @ t=0.54
-2.3994452731582285
% es.tEy (V/m) @ t=0.54
0
% es.tEz (V/m) @ t=0.54
1.0034943015241211
% V (V) @ t=0.54
0.014565032452658002
% es.normE (V/m) @ t=0.56
2.6337828303339643
% es.EX (V/m) @ t=0.56
-2.4224933478134867
% es.EY (V/m) @ t=0.56
0.1889709701700485
% es.EZ (V/m) @ t=0.56
1.0131334509205985
% es.tEX (V/m) @ t=0.56
-2.422493347813477
% es.tEY (V/m) @ t=0.56
0
% es.tEZ (V/m) @ t=0.56
1.0131334509206056
% es.Ex (V/m) @ t=0.56
-2.4224933478134867
% es.Ey (V/m) @ t=0.56
0.1889709701700485
% es.Ez (V/m) @ t=0.56
1.0131334509205985
% es.tEx (V/m) @ t=0.56
-2.422493347813477
% es.tEy (V/m) @ t=0.56
0
% es.tEz (V/m) @ t=0.56
1.0131334509206056
% V (V) @ t=0.56
0.014704938106622658
% es.normE (V/m) @ t=0.58
2.658841154369657
% es.EX (V/m) @ t=0.58
-2.445541422468705
% es.EY (V/m) @ t=0.58
0.19076887716368318
% es.EZ (V/m) @ t=0.58
1.0227726003170718
% es.tEX (V/m) @ t=0.58
-2.4455414224686933
% es.tEY (V/m) @ t=0.58
0
% es.tEZ (V/m) @ t=0.58
1.0227726003170616
% es.Ex (V/m) @ t=0.58
-2.445541422468705
% es.Ey (V/m) @ t=0.58
0.19076887716368318
% es.Ez (V/m) @ t=0.58
1.0227726003170718
% es.tEx (V/m) @ t=0.58
-2.4455414224686933
% es.tEy (V/m) @ t=0.58
0
% es.tEz (V/m) @ t=0.58
1.0227726003170616
% V (V) @ t=0.58
0.014844843760587314
% es.normE (V/m) @ t=0.6
2.683899478405353
% es.EX (V/m) @ t=0.6
-2.4685894971239293
% es.EY (V/m) @ t=0.6
0.19256678415733575
% es.EZ (V/m) @ t=0.6
1.032411749713538
% es.tEX (V/m) @ t=0.6
-2.4685894971239186
% es.tEY (V/m) @ t=0.6
0
% es.tEZ (V/m) @ t=0.6
1.032411749713539
% es.Ex (V/m) @ t=0.6
-2.4685894971239293
% es.Ey (V/m) @ t=0.6
0.19256678415733575
% es.Ez (V/m) @ t=0.6
1.032411749713538
% es.tEx (V/m) @ t=0.6
-2.4685894971239186
% es.tEy (V/m) @ t=0.6
0
% es.tEz (V/m) @ t=0.6
1.032411749713539
% V (V) @ t=0.6
0.014984749414551966
% es.normE (V/m) @ t=0.62
2.708957802441058
% es.EX (V/m) @ t=0.62
-2.4916375717791546
% es.EY (V/m) @ t=0.62
0.19436469115100607
% es.EZ (V/m) @ t=0.62
1.04205089911002
% es.tEX (V/m) @ t=0.62
-2.491637571779144
% es.tEY (V/m) @ t=0.62
0
% es.tEZ (V/m) @ t=0.62
1.0420508991100164
% es.Ex (V/m) @ t=0.62
-2.4916375717791546
% es.Ey (V/m) @ t=0.62
0.19436469115100607
% es.Ez (V/m) @ t=0.62
1.04205089911002
% es.tEx (V/m) @ t=0.62
-2.491637571779144
% es.tEy (V/m) @ t=0.62
0
% es.tEz (V/m) @ t=0.62
1.0420508991100164
% V (V) @ t=0.62
0.01512465506851662
% es.normE (V/m) @ t=0.64
2.7340161264767566
% es.EX (V/m) @ t=0.64
-2.514685646434377
% es.EY (V/m) @ t=0.64
0.1961625981446442
% es.EZ (V/m) @ t=0.64
1.0516900485065004
% es.tEX (V/m) @ t=0.64
-2.514685646434369
% es.tEY (V/m) @ t=0.64
0
% es.tEZ (V/m) @ t=0.64
1.0516900485064937
% es.Ex (V/m) @ t=0.64
-2.514685646434377
% es.Ey (V/m) @ t=0.64
0.1961625981446442
% es.Ez (V/m) @ t=0.64
1.0516900485065004
% es.tEx (V/m) @ t=0.64
-2.514685646434369
% es.tEy (V/m) @ t=0.64
0
% es.tEz (V/m) @ t=0.64
1.0516900485064937
% V (V) @ t=0.64
0.015264560722481274
% es.normE (V/m) @ t=0.66
2.7590744505124722
% es.EX (V/m) @ t=0.66
-2.537733721089615
% es.EY (V/m) @ t=0.66
0.19796050513832875
% es.EZ (V/m) @ t=0.66
1.0613291979029786
% es.tEX (V/m) @ t=0.66
-2.5377337210896087
% es.tEY (V/m) @ t=0.66
0
% es.tEZ (V/m) @ t=0.66
1.061329197902971
% es.Ex (V/m) @ t=0.66
-2.537733721089615
% es.Ey (V/m) @ t=0.66
0.19796050513832875
% es.Ez (V/m) @ t=0.66
1.0613291979029786
% es.tEx (V/m) @ t=0.66
-2.5377337210896087
% es.tEy (V/m) @ t=0.66
0
% es.tEz (V/m) @ t=0.66
1.061329197902971
% V (V) @ t=0.66
0.015404466376445929
% es.normE (V/m) @ t=0.68
2.7841327745481763
% es.EX (V/m) @ t=0.68
-2.560781795744848
% es.EY (V/m) @ t=0.68
0.19975841213195122
% es.EZ (V/m) @ t=0.68
1.0709683472994502
% es.tEX (V/m) @ t=0.68
-2.5607817957448393
% es.tEY (V/m) @ t=0.68
0
% es.tEZ (V/m) @ t=0.68
1.0709683472994556
% es.Ex (V/m) @ t=0.68
-2.560781795744848
% es.Ey (V/m) @ t=0.68
0.19975841213195122
% es.Ez (V/m) @ t=0.68
1.0709683472994502
% es.tEx (V/m) @ t=0.68
-2.5607817957448393
% es.tEy (V/m) @ t=0.68
0
% es.tEz (V/m) @ t=0.68
1.0709683472994556
% V (V) @ t=0.68
0.015544372030410586
% es.normE (V/m) @ t=0.7
2.8091910985838773
% es.EX (V/m) @ t=0.7
-2.583829870400069
% es.EY (V/m) @ t=0.7
0.20155631912562133
% es.EZ (V/m) @ t=0.7
1.0806074966959325
% es.tEX (V/m) @ t=0.7
-2.5838298704000575
% es.tEY (V/m) @ t=0.7
0
% es.tEZ (V/m) @ t=0.7
1.080607496695933
% es.Ex (V/m) @ t=0.7
-2.583829870400069
% es.Ey (V/m) @ t=0.7
0.20155631912562133
% es.Ez (V/m) @ t=0.7
1.0806074966959325
% es.tEx (V/m) @ t=0.7
-2.5838298704000575
% es.tEy (V/m) @ t=0.7
0
% es.tEz (V/m) @ t=0.7
1.080607496695933
% V (V) @ t=0.7
0.01568427768437524
% es.normE (V/m) @ t=0.72
2.8342494226195667
% es.EX (V/m) @ t=0.72
-2.6068779450552872
% es.EY (V/m) @ t=0.72
0.2033542261192739
% es.EZ (V/m) @ t=0.72
1.0902466460923965
% es.tEX (V/m) @ t=0.72
-2.6068779450552757
% es.tEY (V/m) @ t=0.72
0
% es.tEZ (V/m) @ t=0.72
1.0902466460924032
% es.Ex (V/m) @ t=0.72
-2.6068779450552872
% es.Ey (V/m) @ t=0.72
0.2033542261192739
% es.Ez (V/m) @ t=0.72
1.0902466460923965
% es.tEx (V/m) @ t=0.72
-2.6068779450552757
% es.tEy (V/m) @ t=0.72
0
% es.tEz (V/m) @ t=0.72
1.0902466460924032
% V (V) @ t=0.72
0.015824183338339893
% es.normE (V/m) @ t=0.74
2.8593077466552614
% es.EX (V/m) @ t=0.74
-2.62992601971051
% es.EY (V/m) @ t=0.74
0.20515213311290859
% es.EZ (V/m) @ t=0.74
1.0998857954888663
% es.tEX (V/m) @ t=0.74
-2.6299260197105028
% es.tEY (V/m) @ t=0.74
0
% es.tEZ (V/m) @ t=0.74
1.0998857954888663
% es.Ex (V/m) @ t=0.74
-2.62992601971051
% es.Ey (V/m) @ t=0.74
0.20515213311290859
% es.Ez (V/m) @ t=0.74
1.0998857954888663
% es.tEx (V/m) @ t=0.74
-2.6299260197105028
% es.tEy (V/m) @ t=0.74
0
% es.tEz (V/m) @ t=0.74
1.0998857954888663
% V (V) @ t=0.74
0.01596408899230455
% es.normE (V/m) @ t=0.76
2.8843660706909593
% es.EX (V/m) @ t=0.76
-2.6529740943657343
% es.EY (V/m) @ t=0.76
0.20695004010656826
% es.EZ (V/m) @ t=0.76
1.109524944885334
% es.tEX (V/m) @ t=0.76
-2.652974094365719
% es.tEY (V/m) @ t=0.76
0
% es.tEZ (V/m) @ t=0.76
1.1095249448853366
% es.Ex (V/m) @ t=0.76
-2.6529740943657343
% es.Ey (V/m) @ t=0.76
0.20695004010656826
% es.Ez (V/m) @ t=0.76
1.109524944885334
% es.tEx (V/m) @ t=0.76
-2.652974094365719
% es.tEy (V/m) @ t=0.76
0
% es.tEz (V/m) @ t=0.76
1.1095249448853366
% V (V) @ t=0.76
0.0161039946462692
% es.normE (V/m) @ t=0.78
2.9108436096584427
% es.EX (V/m) @ t=0.78
-2.677327530542869
% es.EY (V/m) @ t=0.78
0.2088497742236608
% es.EZ (V/m) @ t=0.78
1.1197100216128375
% es.tEX (V/m) @ t=0.78
-2.6773275305428506
% es.tEY (V/m) @ t=0.78
0
% es.tEZ (V/m) @ t=0.78
1.119710021612832
% es.Ex (V/m) @ t=0.78
-2.677327530542869
% es.Ey (V/m) @ t=0.78
0.2088497742236608
% es.Ez (V/m) @ t=0.78
1.1197100216128375
% es.tEx (V/m) @ t=0.78
-2.6773275305428506
% es.tEy (V/m) @ t=0.78
0
% es.tEz (V/m) @ t=0.78
1.119710021612832
% V (V) @ t=0.78
0.016251824064086862
% es.normE (V/m) @ t=0.8
2.9386620535124477
% es.EX (V/m) @ t=0.8
-2.7029143004485325
% es.EY (V/m) @ t=0.8
0.21084571680389197
% es.EZ (V/m) @ t=0.8
1.1304109022608522
% es.tEX (V/m) @ t=0.8
-2.7029143004485157
% es.tEY (V/m) @ t=0.8
0
% es.tEZ (V/m) @ t=0.8
1.1304109022608486
% es.Ex (V/m) @ t=0.8
-2.7029143004485325
% es.Ey (V/m) @ t=0.8
0.21084571680389197
% es.Ez (V/m) @ t=0.8
1.1304109022608522
% es.tEx (V/m) @ t=0.8
-2.7029143004485157
% es.tEy (V/m) @ t=0.8
0
% es.tEz (V/m) @ t=0.8
1.1304109022608486
% V (V) @ t=0.8
0.016407140024945005
% es.normE (V/m) @ t=0.82
2.966480497366448
% es.EX (V/m) @ t=0.82
-2.7285010703541897
% es.EY (V/m) @ t=0.82
0.21284165938410182
% es.EZ (V/m) @ t=0.82
1.1411117829088737
% es.tEX (V/m) @ t=0.82
-2.7285010703541808
% es.tEY (V/m) @ t=0.82
0
% es.tEZ (V/m) @ t=0.82
1.1411117829088795
% es.Ex (V/m) @ t=0.82
-2.7285010703541897
% es.Ey (V/m) @ t=0.82
0.21284165938410182
% es.Ez (V/m) @ t=0.82
1.1411117829088737
% es.tEx (V/m) @ t=0.82
-2.7285010703541808
% es.tEy (V/m) @ t=0.82
0
% es.tEz (V/m) @ t=0.82
1.1411117829088795
% V (V) @ t=0.82
0.01656245598580315
% es.normE (V/m) @ t=0.84
2.994298941220456
% es.EX (V/m) @ t=0.84
-2.7540878402598543
% es.EY (V/m) @ t=0.84
0.21483760196432955
% es.EZ (V/m) @ t=0.84
1.1518126635568988
% es.tEX (V/m) @ t=0.84
-2.754087840259835
% es.tEY (V/m) @ t=0.84
0
% es.tEZ (V/m) @ t=0.84
1.151812663556889
% es.Ex (V/m) @ t=0.84
-2.7540878402598543
% es.Ey (V/m) @ t=0.84
0.21483760196432955
% es.Ez (V/m) @ t=0.84
1.1518126635568988
% es.tEx (V/m) @ t=0.84
-2.754087840259835
% es.tEy (V/m) @ t=0.84
0
% es.tEz (V/m) @ t=0.84
1.151812663556889
% V (V) @ t=0.84
0.016717771946661294
% es.normE (V/m) @ t=0.86
3.0221173850744725
% es.EX (V/m) @ t=0.86
-2.7796746101655327
% es.EY (V/m) @ t=0.86
0.21683354454455717
% es.EZ (V/m) @ t=0.86
1.162513544204908
% es.tEX (V/m) @ t=0.86
-2.7796746101655145
% es.tEY (V/m) @ t=0.86
0
% es.tEZ (V/m) @ t=0.86
1.16251354420492
% es.Ex (V/m) @ t=0.86
-2.7796746101655327
% es.Ey (V/m) @ t=0.86
0.21683354454455717
% es.Ez (V/m) @ t=0.86
1.162513544204908
% es.tEx (V/m) @ t=0.86
-2.7796746101655145
% es.tEy (V/m) @ t=0.86
0
% es.tEz (V/m) @ t=0.86
1.16251354420492
% V (V) @ t=0.86
0.016873087907519443
% es.normE (V/m) @ t=0.88
3.049935828928456
% es.EX (V/m) @ t=0.88
-2.8052613800711748
% es.EY (V/m) @ t=0.88
0.21882948712477057
% es.EZ (V/m) @ t=0.88
1.1732144248529242
% es.tEX (V/m) @ t=0.88
-2.8052613800711654
% es.tEY (V/m) @ t=0.88
0
% es.tEZ (V/m) @ t=0.88
1.1732144248529295
% es.Ex (V/m) @ t=0.88
-2.8052613800711748
% es.Ey (V/m) @ t=0.88
0.21882948712477057
% es.Ez (V/m) @ t=0.88
1.1732144248529242
% es.tEx (V/m) @ t=0.88
-2.8052613800711654
% es.tEy (V/m) @ t=0.88
0
% es.tEz (V/m) @ t=0.88
1.1732144248529295
% V (V) @ t=0.88
0.017028403868377583
% es.normE (V/m) @ t=0.9
3.077754272782472
% es.EX (V/m) @ t=0.9
-2.8308481499768527
% es.EY (V/m) @ t=0.9
0.22082542970495556
% es.EZ (V/m) @ t=0.9
1.183915305500944
% es.tEX (V/m) @ t=0.9
-2.8308481499768483
% es.tEY (V/m) @ t=0.9
0
% es.tEZ (V/m) @ t=0.9
1.183915305500939
% es.Ex (V/m) @ t=0.9
-2.8308481499768527
% es.Ey (V/m) @ t=0.9
0.22082542970495556
% es.Ez (V/m) @ t=0.9
1.183915305500944
% es.tEx (V/m) @ t=0.9
-2.8308481499768483
% es.tEy (V/m) @ t=0.9
0
% es.tEz (V/m) @ t=0.9
1.183915305500939
% V (V) @ t=0.9
0.017183719829235732
% es.normE (V/m) @ t=0.92
3.1055727166364733
% es.EX (V/m) @ t=0.92
-2.8564349198825116
% es.EY (V/m) @ t=0.92
0.22282137228520815
% es.EZ (V/m) @ t=0.92
1.1946161861489566
% es.tEX (V/m) @ t=0.92
-2.8564349198824956
% es.tEY (V/m) @ t=0.92
0
% es.tEZ (V/m) @ t=0.92
1.19461618614897
% es.Ex (V/m) @ t=0.92
-2.8564349198825116
% es.Ey (V/m) @ t=0.92
0.22282137228520815
% es.Ez (V/m) @ t=0.92
1.1946161861489566
% es.tEx (V/m) @ t=0.92
-2.8564349198824956
% es.tEy (V/m) @ t=0.92
0
% es.tEz (V/m) @ t=0.92
1.19461618614897
% V (V) @ t=0.92
0.01733903579009388
% es.normE (V/m) @ t=0.94
3.1333911604904943
% es.EX (V/m) @ t=0.94
-2.882021689788188
% es.EY (V/m) @ t=0.94
0.22481731486542866
% es.EZ (V/m) @ t=0.94
1.205317066796987
% es.tEX (V/m) @ t=0.94
-2.882021689788168
% es.tEY (V/m) @ t=0.94
0
% es.tEZ (V/m) @ t=0.94
1.2053170667970008
% es.Ex (V/m) @ t=0.94
-2.882021689788188
% es.Ey (V/m) @ t=0.94
0.22481731486542866
% es.Ez (V/m) @ t=0.94
1.205317066796987
% es.tEx (V/m) @ t=0.94
-2.882021689788168
% es.tEy (V/m) @ t=0.94
0
% es.tEz (V/m) @ t=0.94
1.2053170667970008
% V (V) @ t=0.94
0.01749435175095202
% es.normE (V/m) @ t=0.96
3.161209604344487
% es.EX (V/m) @ t=0.96
-2.9076084596938467
% es.EY (V/m) @ t=0.96
0.2268132574456423
% es.EZ (V/m) @ t=0.96
1.2160179474449855
% es.tEX (V/m) @ t=0.96
-2.907608459693833
% es.tEY (V/m) @ t=0.96
0
% es.tEZ (V/m) @ t=0.96
1.216017947444989
% es.Ex (V/m) @ t=0.96
-2.9076084596938467
% es.Ey (V/m) @ t=0.96
0.2268132574456423
% es.Ez (V/m) @ t=0.96
1.2160179474449855
% es.tEx (V/m) @ t=0.96
-2.907608459693833
% es.tEy (V/m) @ t=0.96
0
% es.tEz (V/m) @ t=0.96
1.216017947444989
% V (V) @ t=0.96
0.017649667711810167
% es.normE (V/m) @ t=0.98
3.1890280481984963
% es.EX (V/m) @ t=0.98
-2.9331952295995056
% es.EY (V/m) @ t=0.98
0.22880920002586969
% es.EZ (V/m) @ t=0.98
1.2267188280930235
% es.tEX (V/m) @ t=0.98
-2.9331952295994945
% es.tEY (V/m) @ t=0.98
0
% es.tEZ (V/m) @ t=0.98
1.22671882809302
% es.Ex (V/m) @ t=0.98
-2.9331952295995056
% es.Ey (V/m) @ t=0.98
0.22880920002586969
% es.Ez (V/m) @ t=0.98
1.2267188280930235
% es.tEx (V/m) @ t=0.98
-2.9331952295994945
% es.tEy (V/m) @ t=0.98
0
% es.tEz (V/m) @ t=0.98
1.22671882809302
% V (V) @ t=0.98
0.01780498367266831
% es.normE (V/m) @ t=1
3.2168464920525164
% es.EX (V/m) @ t=1
-2.9587819995051827
% es.EY (V/m) @ t=1
0.23080514260607266
% es.EZ (V/m) @ t=1
1.2374197087410534
% es.tEX (V/m) @ t=1
-2.9587819995051667
% es.tEY (V/m) @ t=1
0
% es.tEZ (V/m) @ t=1
1.237419708741065
% es.Ex (V/m) @ t=1
-2.9587819995051827
% es.Ey (V/m) @ t=1
0.23080514260607266
% es.Ez (V/m) @ t=1
1.2374197087410534
% es.tEx (V/m) @ t=1
-2.9587819995051667
% es.tEy (V/m) @ t=1
0
% es.tEz (V/m) @ t=1
1.237419708741065
% V (V) @ t=1
0.017960299633526456
% es.normE (V/m) @ t=1.02
3.2446649359065045
% es.EX (V/m) @ t=1.02
-2.9843687694108407
% es.EY (V/m) @ t=1.02
0.2328010851863037
% es.EZ (V/m) @ t=1.02
1.2481205893890381
% es.tEX (V/m) @ t=1.02
-2.9843687694108247
% es.tEY (V/m) @ t=1.02
0
% es.tEZ (V/m) @ t=1.02
1.2481205893890248
% es.Ex (V/m) @ t=1.02
-2.9843687694108407
% es.Ey (V/m) @ t=1.02
0.2328010851863037
% es.Ez (V/m) @ t=1.02
1.2481205893890381
% es.tEx (V/m) @ t=1.02
-2.9843687694108247
% es.tEy (V/m) @ t=1.02
0
% es.tEz (V/m) @ t=1.02
1.2481205893890248
% V (V) @ t=1.02
0.018115615594384606
% es.normE (V/m) @ t=1.04
3.2734050398394485
% es.EX (V/m) @ t=1.04
-3.010803261325989
% es.EY (V/m) @ t=1.04
0.23486315546866365
% es.EZ (V/m) @ t=1.04
1.2591760034961448
% es.tEX (V/m) @ t=1.04
-3.010803261325975
% es.tEY (V/m) @ t=1.04
0
% es.tEZ (V/m) @ t=1.04
1.259176003496144
% es.Ex (V/m) @ t=1.04
-3.010803261325989