% Model:              1 neuron.mph
% Version:            COMSOL 6.1.0.252
% Date:               Mar 27 2023, 14:43
% Dimension:          0
% Nodes:              14017
% Expressions:        14017
% Description:        Electric field norm, Electric field, X component, Electric field, Y component, Electric field, Z component, Tangential electric field, X component, Tangential electric field, Y component, Tangential electric field, Z component, Electric field, x component, Electric field, y component, Electric field, z component, Tangential electric field, x component, Tangential electric field, y component, Tangential electric field, z component, Electric potential
% Length unit:        mm
% x
1.33
% y
12.2
% z
1
% es.normE (V/m) @ t=0
2.804937437815755
% es.EX (V/m) @ t=0
0.8657820162881211
% es.EY (V/m) @ t=0
0.209747630774769
% es.EZ (V/m) @ t=0
2.6596990893081554
% es.tEX (V/m) @ t=0
0.8657820162881222
% es.tEY (V/m) @ t=0
0
% es.tEZ (V/m) @ t=0
2.6596990893081625
% es.Ex (V/m) @ t=0
0.8657820162881211
% es.Ey (V/m) @ t=0
0.209747630774769
% es.Ez (V/m) @ t=0
2.6596990893081554
% es.tEx (V/m) @ t=0
0.8657820162881222
% es.tEy (V/m) @ t=0
0
% es.tEz (V/m) @ t=0
2.6596990893081625
% V (V) @ t=0
0.013118758909500355
% es.normE (V/m) @ t=0.02
2.422651967491581
% es.EX (V/m) @ t=0.02
0.7477844164948968
% es.EY (V/m) @ t=0.02
0.1811610852714831
% es.EZ (V/m) @ t=0.02
2.2972081818149404
% es.tEX (V/m) @ t=0.02
0.7477844164949019
% es.tEY (V/m) @ t=0.02
0
% es.tEZ (V/m) @ t=0.02
2.297208181814952
% es.Ex (V/m) @ t=0.02
0.7477844164948968
% es.Ey (V/m) @ t=0.02
0.1811610852714831
% es.Ez (V/m) @ t=0.02
2.2972081818149404
% es.tEx (V/m) @ t=0.02
0.7477844164949019
% es.tEy (V/m) @ t=0.02
0
% es.tEz (V/m) @ t=0.02
2.297208181814952
% V (V) @ t=0.02
0.011330800696061159
% es.normE (V/m) @ t=0.04
2.4449373722307586
% es.EX (V/m) @ t=0.04
0.7546631091715665
% es.EY (V/m) @ t=0.04
0.18282754341710616
% es.EZ (V/m) @ t=0.04
2.3183396587251606
% es.tEX (V/m) @ t=0.04
0.7546631091715668
% es.tEY (V/m) @ t=0.04
0
% es.tEZ (V/m) @ t=0.04
2.318339658725174
% es.Ex (V/m) @ t=0.04
0.7546631091715665
% es.Ey (V/m) @ t=0.04
0.18282754341710616
% es.Ez (V/m) @ t=0.04
2.3183396587251606
% es.tEx (V/m) @ t=0.04
0.7546631091715668
% es.tEy (V/m) @ t=0.04
0
% es.tEz (V/m) @ t=0.04
2.318339658725174
% V (V) @ t=0.04
0.011435030064086553
% es.normE (V/m) @ t=0.06
2.467386189600857
% es.EX (V/m) @ t=0.06
0.76159224128095
% es.EY (V/m) @ t=0.06
0.1845062212602333
% es.EZ (V/m) @ t=0.06
2.3396260868649414
% es.tEX (V/m) @ t=0.06
0.7615922412809581
% es.tEY (V/m) @ t=0.06
0
% es.tEZ (V/m) @ t=0.06
2.3396260868649517
% es.Ex (V/m) @ t=0.06
0.76159224128095
% es.Ey (V/m) @ t=0.06
0.1845062212602333
% es.Ez (V/m) @ t=0.06
2.3396260868649414
% es.tEx (V/m) @ t=0.06
0.7615922412809581
% es.tEy (V/m) @ t=0.06
0
% es.tEz (V/m) @ t=0.06
2.3396260868649517
% V (V) @ t=0.06
0.011540023731797426
% es.normE (V/m) @ t=0.08
2.490263107330139
% es.EX (V/m) @ t=0.08
0.7686535122843351
% es.EY (V/m) @ t=0.08
0.18621691161341847
% es.EZ (V/m) @ t=0.08
2.3613184485561356
% es.tEX (V/m) @ t=0.08
0.7686535122843381
% es.tEY (V/m) @ t=0.08
0
% es.tEZ (V/m) @ t=0.08
2.3613184485561476
% es.Ex (V/m) @ t=0.08
0.7686535122843351
% es.Ey (V/m) @ t=0.08
0.18621691161341847
% es.Ez (V/m) @ t=0.08
2.3613184485561356
% es.tEx (V/m) @ t=0.08
0.7686535122843381
% es.tEy (V/m) @ t=0.08
0
% es.tEz (V/m) @ t=0.08
2.3613184485561476
% V (V) @ t=0.08
0.011647019648820062
% es.normE (V/m) @ t=0.1
2.5132597003724015
% es.EX (V/m) @ t=0.1
0.7757517226715732
% es.EY (V/m) @ t=0.1
0.1879365510531712
% es.EZ (V/m) @ t=0.1
2.383124288836571
% es.tEX (V/m) @ t=0.1
0.7757517226715791
% es.tEY (V/m) @ t=0.1
0
% es.tEZ (V/m) @ t=0.1
2.3831242888365836
% es.Ex (V/m) @ t=0.1
0.7757517226715732
% es.Ey (V/m) @ t=0.1
0.1879365510531712
% es.Ez (V/m) @ t=0.1
2.383124288836571
% es.tEx (V/m) @ t=0.1
0.7757517226715791
% es.tEy (V/m) @ t=0.1
0
% es.tEz (V/m) @ t=0.1
2.3831242888365836
% V (V) @ t=0.1
0.011754575293971626
% es.normE (V/m) @ t=0.12
2.5362562934146684
% es.EX (V/m) @ t=0.12
0.7828499330588194
% es.EY (V/m) @ t=0.12
0.18965619049294502
% es.EZ (V/m) @ t=0.12
2.404930129117007
% es.tEX (V/m) @ t=0.12
0.7828499330588272
% es.tEY (V/m) @ t=0.12
0
% es.tEZ (V/m) @ t=0.12
2.404930129117016
% es.Ex (V/m) @ t=0.12
0.7828499330588194
% es.Ey (V/m) @ t=0.12
0.18965619049294502
% es.Ez (V/m) @ t=0.12
2.404930129117007
% es.tEx (V/m) @ t=0.12
0.7828499330588272
% es.tEy (V/m) @ t=0.12
0
% es.tEz (V/m) @ t=0.12
2.404930129117016
% V (V) @ t=0.12
0.011862130939123186
% es.normE (V/m) @ t=0.14
2.5599106164638745
% es.EX (V/m) @ t=0.14
0.7901511611966803
% es.EY (V/m) @ t=0.14
0.19142501358396302
% es.EZ (V/m) @ t=0.14
2.4273596423123704
% es.tEX (V/m) @ t=0.14
0.7901511611966825
% es.tEY (V/m) @ t=0.14
0
% es.tEZ (V/m) @ t=0.14
2.427359642312375
% es.Ex (V/m) @ t=0.14
0.7901511611966803
% es.Ey (V/m) @ t=0.14
0.19142501358396302
% es.Ez (V/m) @ t=0.14
2.4273596423123704
% es.tEx (V/m) @ t=0.14
0.7901511611966825
% es.tEy (V/m) @ t=0.14
0
% es.tEz (V/m) @ t=0.14
2.427359642312375
% V (V) @ t=0.14
0.01197276273520511
% es.normE (V/m) @ t=0.16
2.584062492437808
% es.EX (V/m) @ t=0.16
0.797605966143481
% es.EY (V/m) @ t=0.16
0.1932310426246614
% es.EZ (V/m) @ t=0.16
2.4502609452689046
% es.tEX (V/m) @ t=0.16
0.797605966143486
% es.tEY (V/m) @ t=0.16
0
% es.tEZ (V/m) @ t=0.16
2.4502609452689157
% es.Ex (V/m) @ t=0.16
0.797605966143481
% es.Ey (V/m) @ t=0.16
0.1932310426246614
% es.Ez (V/m) @ t=0.16
2.4502609452689046
% es.tEx (V/m) @ t=0.16
0.797605966143486
% es.tEy (V/m) @ t=0.16
0
% es.tEz (V/m) @ t=0.16
2.4502609452689157
% V (V) @ t=0.16
0.012085721546743434
% es.normE (V/m) @ t=0.18
2.6082143684117387
% es.EX (V/m) @ t=0.18
0.8050607710902591
% es.EY (V/m) @ t=0.18
0.19503707166537376
% es.EZ (V/m) @ t=0.18
2.4731622482254414
% es.tEX (V/m) @ t=0.18
0.8050607710902611
% es.tEY (V/m) @ t=0.18
0
% es.tEZ (V/m) @ t=0.18
2.4731622482254405
% es.Ex (V/m) @ t=0.18
0.8050607710902591
% es.Ey (V/m) @ t=0.18
0.19503707166537376
% es.Ez (V/m) @ t=0.18
2.4731622482254414
% es.tEx (V/m) @ t=0.18
0.8050607710902611
% es.tEy (V/m) @ t=0.18
0
% es.tEz (V/m) @ t=0.18
2.4731622482254405
% V (V) @ t=0.18
0.012198680358281762
% es.normE (V/m) @ t=0.2
2.6323662443856586
% es.EX (V/m) @ t=0.2
0.812515576037053
% es.EY (V/m) @ t=0.2
0.1968431007060899
% es.EZ (V/m) @ t=0.2
2.4960635511819613
% es.tEX (V/m) @ t=0.2
0.8125155760370504
% es.tEY (V/m) @ t=0.2
0
% es.tEZ (V/m) @ t=0.2
2.496063551181953
% es.Ex (V/m) @ t=0.2
0.812515576037053
% es.Ey (V/m) @ t=0.2
0.1968431007060899
% es.Ez (V/m) @ t=0.2
2.4960635511819613
% es.tEx (V/m) @ t=0.2
0.8125155760370504
% es.tEy (V/m) @ t=0.2
0
% es.tEz (V/m) @ t=0.2
2.496063551181953
% V (V) @ t=0.2
0.012311639169820084
% es.normE (V/m) @ t=0.22
2.656518120359573
% es.EX (V/m) @ t=0.22
0.8199703809838348
% es.EY (V/m) @ t=0.22
0.1986491297467986
% es.EZ (V/m) @ t=0.22
2.5189648541384804
% es.tEX (V/m) @ t=0.22
0.8199703809838397
% es.tEY (V/m) @ t=0.22
0
% es.tEZ (V/m) @ t=0.22
2.5189648541384795
% es.Ex (V/m) @ t=0.22
0.8199703809838348
% es.Ey (V/m) @ t=0.22
0.1986491297467986
% es.Ez (V/m) @ t=0.22
2.5189648541384804
% es.tEx (V/m) @ t=0.22
0.8199703809838397
% es.tEy (V/m) @ t=0.22
0
% es.tEz (V/m) @ t=0.22
2.5189648541384795
% V (V) @ t=0.22
0.012424597981358412
% es.normE (V/m) @ t=0.24
2.680669996333518
% es.EX (V/m) @ t=0.24
0.8274251859306252
% es.EY (V/m) @ t=0.24
0.20045515878750442
% es.EZ (V/m) @ t=0.24
2.5418661570950287
% es.tEX (V/m) @ t=0.24
0.8274251859306361
% es.tEY (V/m) @ t=0.24
0
% es.tEZ (V/m) @ t=0.24
2.5418661570950203
% es.Ex (V/m) @ t=0.24
0.8274251859306252
% es.Ey (V/m) @ t=0.24
0.20045515878750442
% es.Ez (V/m) @ t=0.24
2.5418661570950287
% es.tEx (V/m) @ t=0.24
0.8274251859306361
% es.tEy (V/m) @ t=0.24
0
% es.tEz (V/m) @ t=0.24
2.5418661570950203
% V (V) @ t=0.24
0.012537556792896736
% es.normE (V/m) @ t=0.26
2.705195793222571
% es.EX (V/m) @ t=0.26
0.8349954055780762
% es.EY (V/m) @ t=0.26
0.20228914906507134
% es.EZ (V/m) @ t=0.26
2.565122019846179
% es.tEX (V/m) @ t=0.26
0.83499540557807
% es.tEY (V/m) @ t=0.26
0
% es.tEZ (V/m) @ t=0.26
2.565122019846168
% es.Ex (V/m) @ t=0.26
0.8349954055780762
% es.Ey (V/m) @ t=0.26
0.20228914906507134
% es.Ez (V/m) @ t=0.26
2.565122019846179
% es.tEx (V/m) @ t=0.26
0.83499540557807
% es.tEy (V/m) @ t=0.26
0
% es.tEz (V/m) @ t=0.26
2.565122019846168
% V (V) @ t=0.26
0.012652264595582672
% es.normE (V/m) @ t=0.28
2.73192783411658
% es.EX (V/m) @ t=0.28
0.8432466060991806
% es.EY (V/m) @ t=0.28
0.2042881189108806
% es.EZ (V/m) @ t=0.28
2.5904698902642607
% es.tEX (V/m) @ t=0.28
0.8432466060991857
% es.tEY (V/m) @ t=0.28
0
% es.tEZ (V/m) @ t=0.28
2.590469890264268
% es.Ex (V/m) @ t=0.28
0.8432466060991806
% es.Ey (V/m) @ t=0.28
0.2042881189108806
% es.Ez (V/m) @ t=0.28
2.5904698902642607
% es.tEx (V/m) @ t=0.28
0.8432466060991857
% es.tEy (V/m) @ t=0.28
0
% es.tEz (V/m) @ t=0.28
2.590469890264268
% V (V) @ t=0.28
0.012777291963390662
% es.normE (V/m) @ t=0.3
2.7586598750106184
% es.EX (V/m) @ t=0.3
0.8514978066202825
% es.EY (V/m) @ t=0.3
0.20628708875672452
% es.EZ (V/m) @ t=0.3
2.615817760682371
% es.tEX (V/m) @ t=0.3
0.8514978066202943
% es.tEY (V/m) @ t=0.3
0
% es.tEZ (V/m) @ t=0.3
2.6158177606823703
% es.Ex (V/m) @ t=0.3
0.8514978066202825
% es.Ey (V/m) @ t=0.3
0.20628708875672452
% es.Ez (V/m) @ t=0.3
2.615817760682371
% es.tEx (V/m) @ t=0.3
0.8514978066202943
% es.tEy (V/m) @ t=0.3
0
% es.tEz (V/m) @ t=0.3
2.6158177606823703
% V (V) @ t=0.3
0.012902319331198652
% es.normE (V/m) @ t=0.32
2.785391915904672
% es.EX (V/m) @ t=0.32
0.8597490071413993
% es.EY (V/m) @ t=0.32
0.20828605860255123
% es.EZ (V/m) @ t=0.32
2.6411656311004945
% es.tEX (V/m) @ t=0.32
0.8597490071414029
% es.tEY (V/m) @ t=0.32
0
% es.tEZ (V/m) @ t=0.32
2.6411656311004883
% es.Ex (V/m) @ t=0.32
0.8597490071413993
% es.Ey (V/m) @ t=0.32
0.20828605860255123
% es.Ez (V/m) @ t=0.32
2.6411656311004945
% es.tEx (V/m) @ t=0.32
0.8597490071414029
% es.tEy (V/m) @ t=0.32
0
% es.tEz (V/m) @ t=0.32
2.6411656311004883
% V (V) @ t=0.32
0.013027346699006643
% es.normE (V/m) @ t=0.34
2.8121239567987035
% es.EX (V/m) @ t=0.34
0.8680002076625071
% es.EY (V/m) @ t=0.34
0.2102850284483817
% es.EZ (V/m) @ t=0.34
2.6665135015185975
% es.tEX (V/m) @ t=0.34
0.8680002076625044
% es.tEY (V/m) @ t=0.34
0
% es.tEZ (V/m) @ t=0.34
2.6665135015186188
% es.Ex (V/m) @ t=0.34
0.8680002076625071
% es.Ey (V/m) @ t=0.34
0.2102850284483817
% es.Ez (V/m) @ t=0.34
2.6665135015185975
% es.tEx (V/m) @ t=0.34
0.8680002076625044
% es.tEy (V/m) @ t=0.34
0
% es.tEz (V/m) @ t=0.34
2.6665135015186188
% V (V) @ t=0.34
0.013152374066814635
% es.normE (V/m) @ t=0.36
2.8388559976927388
% es.EX (V/m) @ t=0.36
0.8762514081836157
% es.EY (V/m) @ t=0.36
0.21228399829419375
% es.EZ (V/m) @ t=0.36
2.6918613719367057
% es.tEX (V/m) @ t=0.36
0.8762514081836201
% es.tEY (V/m) @ t=0.36
0
% es.tEZ (V/m) @ t=0.36
2.6918613719367066
% es.Ex (V/m) @ t=0.36
0.8762514081836157
% es.Ey (V/m) @ t=0.36
0.21228399829419375
% es.Ez (V/m) @ t=0.36
2.6918613719367057
% es.tEx (V/m) @ t=0.36
0.8762514081836201
% es.tEy (V/m) @ t=0.36
0
% es.tEz (V/m) @ t=0.36
2.6918613719367066
% V (V) @ t=0.36
0.013277401434622627
% es.normE (V/m) @ t=0.38
2.8655880385867816
% es.EX (V/m) @ t=0.38
0.8845026087047243
% es.EY (V/m) @ t=0.38
0.2142829681400702
% es.EZ (V/m) @ t=0.38
2.7172092423548166
% es.tEX (V/m) @ t=0.38
0.8845026087047287
% es.tEY (V/m) @ t=0.38
0
% es.tEZ (V/m) @ t=0.38
2.717209242354823
% es.Ex (V/m) @ t=0.38
0.8845026087047243
% es.Ey (V/m) @ t=0.38
0.2142829681400702
% es.Ez (V/m) @ t=0.38
2.7172092423548166
% es.tEx (V/m) @ t=0.38
0.8845026087047287
% es.tEy (V/m) @ t=0.38
0
% es.tEz (V/m) @ t=0.38
2.717209242354823
% V (V) @ t=0.38
0.013402428802430616
% es.normE (V/m) @ t=0.4
2.8923200794808297
% es.EX (V/m) @ t=0.4
0.8927538092258402
% es.EY (V/m) @ t=0.4
0.2162819379859
% es.EZ (V/m) @ t=0.4
2.742557112772934
% es.tEX (V/m) @ t=0.4
0.8927538092258445
% es.tEY (V/m) @ t=0.4
0
% es.tEZ (V/m) @ t=0.4
2.742557112772939
% es.Ex (V/m) @ t=0.4
0.8927538092258402
% es.Ey (V/m) @ t=0.4
0.2162819379859
% es.Ez (V/m) @ t=0.4
2.742557112772934
% es.tEx (V/m) @ t=0.4
0.8927538092258445
% es.tEy (V/m) @ t=0.4
0
% es.tEz (V/m) @ t=0.4
2.742557112772939
% V (V) @ t=0.4
0.01352745617023861
% es.normE (V/m) @ t=0.42
2.9190521203748694
% es.EX (V/m) @ t=0.42
0.9010050097469353
% es.EY (V/m) @ t=0.42
0.21828090783171983
% es.EZ (V/m) @ t=0.42
2.76790498319105
% es.tEX (V/m) @ t=0.42
0.9010050097469389
% es.tEY (V/m) @ t=0.42
0
% es.tEZ (V/m) @ t=0.42
2.7679049831910554
% es.Ex (V/m) @ t=0.42
0.9010050097469353
% es.Ey (V/m) @ t=0.42
0.21828090783171983
% es.Ez (V/m) @ t=0.42
2.76790498319105
% es.tEx (V/m) @ t=0.42
0.9010050097469389
% es.tEy (V/m) @ t=0.42
0
% es.tEz (V/m) @ t=0.42
2.7679049831910554
% V (V) @ t=0.42
0.013652483538046602
% es.normE (V/m) @ t=0.44
2.9457841612688918
% es.EX (V/m) @ t=0.44
0.9092562102680382
% es.EY (V/m) @ t=0.44
0.22027987767754653
% es.EZ (V/m) @ t=0.44
2.793252853609145
% es.tEX (V/m) @ t=0.44
0.9092562102680262
% es.tEY (V/m) @ t=0.44
0
% es.tEZ (V/m) @ t=0.44
2.7932528536091574
% es.Ex (V/m) @ t=0.44
0.9092562102680382
% es.Ey (V/m) @ t=0.44
0.22027987767754653
% es.Ez (V/m) @ t=0.44
2.793252853609145
% es.tEx (V/m) @ t=0.44
0.9092562102680262
% es.tEy (V/m) @ t=0.44
0
% es.tEz (V/m) @ t=0.44
2.7932528536091574
% V (V) @ t=0.44
0.013777510905854596
% es.normE (V/m) @ t=0.46
2.972516202162942
% es.EX (V/m) @ t=0.46
0.9175074107891406
% es.EY (V/m) @ t=0.46
0.22227884752337612
% es.EZ (V/m) @ t=0.46
2.8186007240272692
% es.tEX (V/m) @ t=0.46
0.9175074107891419
% es.tEY (V/m) @ t=0.46
0
% es.tEZ (V/m) @ t=0.46
2.8186007240272737
% es.Ex (V/m) @ t=0.46
0.9175074107891406
% es.Ey (V/m) @ t=0.46
0.22227884752337612
% es.Ez (V/m) @ t=0.46
2.8186007240272692
% es.tEx (V/m) @ t=0.46
0.9175074107891419
% es.tEy (V/m) @ t=0.46
0
% es.tEz (V/m) @ t=0.46
2.8186007240272737
% V (V) @ t=0.46
0.013902538273662586
% es.normE (V/m) @ t=0.48
2.9992482430570098
% es.EX (V/m) @ t=0.48
0.9257586113102731
% es.EY (V/m) @ t=0.48
0.22427781736920638
% es.EZ (V/m) @ t=0.48
2.8439485944454015
% es.tEX (V/m) @ t=0.48
0.925758611310286
% es.tEY (V/m) @ t=0.48
0
% es.tEZ (V/m) @ t=0.48
2.843948594445404
% es.Ex (V/m) @ t=0.48
0.9257586113102731
% es.Ey (V/m) @ t=0.48
0.22427781736920638
% es.Ez (V/m) @ t=0.48
2.8439485944454015
% es.tEx (V/m) @ t=0.48
0.925758611310286
% es.tEy (V/m) @ t=0.48
0
% es.tEz (V/m) @ t=0.48
2.843948594445404
% V (V) @ t=0.48
0.014027565641470577
% es.normE (V/m) @ t=0.5
3.0259802839510583
% es.EX (V/m) @ t=0.5
0.9340098118313702
% es.EY (V/m) @ t=0.5
0.22627678721504774
% es.EZ (V/m) @ t=0.5
2.869296464863525
% es.tEX (V/m) @ t=0.5
0.9340098118313733
% es.tEY (V/m) @ t=0.5
0
% es.tEZ (V/m) @ t=0.5
2.8692964648635204
% es.Ex (V/m) @ t=0.5
0.9340098118313702
% es.Ey (V/m) @ t=0.5
0.22627678721504774
% es.Ez (V/m) @ t=0.5
2.869296464863525
% es.tEx (V/m) @ t=0.5
0.9340098118313733
% es.tEy (V/m) @ t=0.5
0
% es.tEz (V/m) @ t=0.5
2.8692964648635204
% V (V) @ t=0.5
0.014152593009278569
% es.normE (V/m) @ t=0.52
3.0535718491180908
% es.EX (V/m) @ t=0.52
0.9425263176735199
% es.EY (V/m) @ t=0.52
0.22834003032515704
% es.EZ (V/m) @ t=0.52
2.8954593533302466
% es.tEX (V/m) @ t=0.52
0.9425263176735257
% es.tEY (V/m) @ t=0.52
0
% es.tEZ (V/m) @ t=0.52
2.895459353330235
% es.Ex (V/m) @ t=0.52
0.9425263176735199
% es.Ey (V/m) @ t=0.52
0.22834003032515704
% es.Ez (V/m) @ t=0.52
2.8954593533302466
% es.tEx (V/m) @ t=0.52
0.9425263176735257
% es.tEy (V/m) @ t=0.52
0
% es.tEz (V/m) @ t=0.52
2.895459353330235
% V (V) @ t=0.52
0.01428164017889994
% es.normE (V/m) @ t=0.54
3.0832065460216107
% es.EX (V/m) @ t=0.54
0.9516734673942642
% es.EY (V/m) @ t=0.54
0.23055605416549296
% es.EZ (V/m) @ t=0.54
2.9235595800353993
% es.tEX (V/m) @ t=0.54
0.9516734673942722
% es.tEY (V/m) @ t=0.54
0
% es.tEZ (V/m) @ t=0.54
2.9235595800353806
% es.Ex (V/m) @ t=0.54
0.9516734673942642
% es.Ey (V/m) @ t=0.54
0.23055605416549296
% es.Ez (V/m) @ t=0.54
2.9235595800353993
% es.tEx (V/m) @ t=0.54
0.9516734673942722
% es.tEy (V/m) @ t=0.54
0
% es.tEz (V/m) @ t=0.54
2.9235595800353806
% V (V) @ t=0.54
0.014420242616379237
% es.normE (V/m) @ t=0.56
3.1128412429251116
% es.EX (V/m) @ t=0.56
0.9608206171149969
% es.EY (V/m) @ t=0.56
0.2327720780058038
% es.EZ (V/m) @ t=0.56
2.9516598067405377
% es.tEX (V/m) @ t=0.56
0.9608206171150044
% es.tEY (V/m) @ t=0.56
0
% es.tEZ (V/m) @ t=0.56
2.9516598067405404
% es.Ex (V/m) @ t=0.56
0.9608206171149969
% es.Ey (V/m) @ t=0.56
0.2327720780058038
% es.Ez (V/m) @ t=0.56
2.9516598067405377
% es.tEx (V/m) @ t=0.56
0.9608206171150044
% es.tEy (V/m) @ t=0.56
0
% es.tEz (V/m) @ t=0.56
2.9516598067405404
% V (V) @ t=0.56
0.014558845053858537
% es.normE (V/m) @ t=0.58
3.1424759398286364
% es.EX (V/m) @ t=0.58
0.9699677668357385
% es.EY (V/m) @ t=0.58
0.23498810184612573
% es.EZ (V/m) @ t=0.58
2.9797600334456984
% es.tEX (V/m) @ t=0.58
0.9699677668357509
% es.tEY (V/m) @ t=0.58
0
% es.tEZ (V/m) @ t=0.58
2.979760033445711
% es.Ex (V/m) @ t=0.58
0.9699677668357385
% es.Ey (V/m) @ t=0.58
0.23498810184612573
% es.Ez (V/m) @ t=0.58
2.9797600334456984
% es.tEx (V/m) @ t=0.58
0.9699677668357509
% es.tEy (V/m) @ t=0.58
0
% es.tEz (V/m) @ t=0.58
2.979760033445711
% V (V) @ t=0.58
0.014697447491337834
% es.normE (V/m) @ t=0.6
3.1721106367321577
% es.EX (V/m) @ t=0.6
0.9791149165564978
% es.EY (V/m) @ t=0.6
0.23720412568644345
% es.EZ (V/m) @ t=0.6
3.0078602601508484
% es.tEX (V/m) @ t=0.6
0.9791149165564974
% es.tEY (V/m) @ t=0.6
0
% es.tEZ (V/m) @ t=0.6
3.007860260150842
% es.Ex (V/m) @ t=0.6
0.9791149165564978
% es.Ey (V/m) @ t=0.6
0.23720412568644345
% es.Ez (V/m) @ t=0.6
3.0078602601508484
% es.tEx (V/m) @ t=0.6
0.9791149165564974
% es.tEy (V/m) @ t=0.6
0
% es.tEz (V/m) @ t=0.6
3.007860260150842
% V (V) @ t=0.6
0.014836049928817135
% es.normE (V/m) @ t=0.62
3.2017453336356687
% es.EX (V/m) @ t=0.62
0.9882620662772335
% es.EY (V/m) @ t=0.62
0.23942014952675783
% es.EZ (V/m) @ t=0.62
3.0359604868559966
% es.tEX (V/m) @ t=0.62
0.9882620662772297
% es.tEY (V/m) @ t=0.62
0
% es.tEZ (V/m) @ t=0.62
3.035960486856016
% es.Ex (V/m) @ t=0.62
0.9882620662772335
% es.Ey (V/m) @ t=0.62
0.23942014952675783
% es.Ez (V/m) @ t=0.62
3.0359604868559966
% es.tEx (V/m) @ t=0.62
0.9882620662772297
% es.tEy (V/m) @ t=0.62
0
% es.tEz (V/m) @ t=0.62
3.035960486856016
% V (V) @ t=0.62
0.014974652366296432
% es.normE (V/m) @ t=0.64
3.2313800305391855
% es.EX (V/m) @ t=0.64
0.9974092159979606
% es.EY (V/m) @ t=0.64
0.24163617336705778
% es.EZ (V/m) @ t=0.64
3.0640607135611546
% es.tEX (V/m) @ t=0.64
0.9974092159979762
% es.tEY (V/m) @ t=0.64
0
% es.tEZ (V/m) @ t=0.64
3.064060713561158
% es.Ex (V/m) @ t=0.64
0.9974092159979606
% es.Ey (V/m) @ t=0.64
0.24163617336705778
% es.Ez (V/m) @ t=0.64
3.0640607135611546
% es.tEx (V/m) @ t=0.64
0.9974092159979762
% es.tEy (V/m) @ t=0.64
0
% es.tEz (V/m) @ t=0.64
3.064060713561158
% V (V) @ t=0.64
0.015113254803775731
% es.normE (V/m) @ t=0.66
3.261014727442715
% es.EX (V/m) @ t=0.66
1.0065563657187104
% es.EY (V/m) @ t=0.66
0.24385219720737572
% es.EZ (V/m) @ t=0.66
3.092160940266317
% es.tEX (V/m) @ t=0.66
1.0065563657187084
% es.tEY (V/m) @ t=0.66
0
% es.tEZ (V/m) @ t=0.66
3.092160940266318
% es.Ex (V/m) @ t=0.66
1.0065563657187104
% es.Ey (V/m) @ t=0.66
0.24385219720737572
% es.Ez (V/m) @ t=0.66
3.092160940266317
% es.tEx (V/m) @ t=0.66
1.0065563657187084
% es.tEy (V/m) @ t=0.66
0
% es.tEz (V/m) @ t=0.66
3.092160940266318
% V (V) @ t=0.66
0.01525185724125503
% es.normE (V/m) @ t=0.68
3.2906494243461992
% es.EX (V/m) @ t=0.68
1.0157035154394443
% es.EY (V/m) @ t=0.68
0.24606822104768367
% es.EZ (V/m) @ t=0.68
3.1202611669714377
% es.tEX (V/m) @ t=0.68
1.015703515439455
% es.tEY (V/m) @ t=0.68
0
% es.tEZ (V/m) @ t=0.68
3.1202611669714457
% es.Ex (V/m) @ t=0.68
1.0157035154394443
% es.Ey (V/m) @ t=0.68
0.24606822104768367
% es.Ez (V/m) @ t=0.68
3.1202611669714377
% es.tEx (V/m) @ t=0.68
1.015703515439455
% es.tEy (V/m) @ t=0.68
0
% es.tEz (V/m) @ t=0.68
3.1202611669714457
% V (V) @ t=0.68
0.015390459678734326
% es.normE (V/m) @ t=0.7
3.320284121249751
% es.EX (V/m) @ t=0.7
1.0248506651601839
% es.EY (V/m) @ t=0.7
0.24828424488799805
% es.EZ (V/m) @ t=0.7
3.1483613936766277
% es.tEX (V/m) @ t=0.7
1.0248506651601872
% es.tEY (V/m) @ t=0.7
0
% es.tEZ (V/m) @ t=0.7
3.1483613936766304
% es.Ex (V/m) @ t=0.7
1.0248506651601839
% es.Ey (V/m) @ t=0.7
0.24828424488799805
% es.Ez (V/m) @ t=0.7
3.1483613936766277
% es.tEx (V/m) @ t=0.7
1.0248506651601872
% es.tEy (V/m) @ t=0.7
0
% es.tEz (V/m) @ t=0.7
3.1483613936766304
% V (V) @ t=0.7
0.015529062116213625
% es.normE (V/m) @ t=0.72
3.3499188181532364
% es.EX (V/m) @ t=0.72
1.033997814880922
% es.EY (V/m) @ t=0.72
0.25050026872833686
% es.EZ (V/m) @ t=0.72
3.1764616203817457
% es.tEX (V/m) @ t=0.72
1.0339978148809337
% es.tEY (V/m) @ t=0.72
0
% es.tEZ (V/m) @ t=0.72
3.1764616203817475
% es.Ex (V/m) @ t=0.72
1.033997814880922
% es.Ey (V/m) @ t=0.72
0.25050026872833686
% es.Ez (V/m) @ t=0.72
3.1764616203817457
% es.tEx (V/m) @ t=0.72
1.0339978148809337
% es.tEy (V/m) @ t=0.72
0
% es.tEz (V/m) @ t=0.72
3.1764616203817475
% V (V) @ t=0.72
0.015667664553692923
% es.normE (V/m) @ t=0.74
3.3795535150567613
% es.EX (V/m) @ t=0.74
1.0431449646016566
% es.EY (V/m) @ t=0.74
0.25271629256863126
% es.EZ (V/m) @ t=0.74
3.20456184708691
% es.tEX (V/m) @ t=0.74
1.043144964601666
% es.tEY (V/m) @ t=0.74
0
% es.tEZ (V/m) @ t=0.74
3.2045618470869037
% es.Ex (V/m) @ t=0.74
1.0431449646016566
% es.Ey (V/m) @ t=0.74
0.25271629256863126
% es.Ez (V/m) @ t=0.74
3.20456184708691
% es.tEx (V/m) @ t=0.74
1.043144964601666
% es.tEy (V/m) @ t=0.74
0
% es.tEz (V/m) @ t=0.74
3.2045618470869037
% V (V) @ t=0.74
0.015806266991172224
% es.normE (V/m) @ t=0.76
3.4091882119602817
% es.EX (V/m) @ t=0.76
1.0522921143224027
% es.EY (V/m) @ t=0.76
0.2549323164089592
% es.EZ (V/m) @ t=0.76
3.2326620737920635
% es.tEX (V/m) @ t=0.76
1.0522921143223982
% es.tEY (V/m) @ t=0.76
0
% es.tEZ (V/m) @ t=0.76
3.2326620737920635
% es.Ex (V/m) @ t=0.76
1.0522921143224027
% es.Ey (V/m) @ t=0.76
0.2549323164089592
% es.Ez (V/m) @ t=0.76
3.2326620737920635
% es.tEx (V/m) @ t=0.76
1.0522921143223982
% es.tEy (V/m) @ t=0.76
0
% es.tEz (V/m) @ t=0.76
3.2326620737920635
% V (V) @ t=0.76
0.01594486942865152
% es.normE (V/m) @ t=0.78
3.4402860043607837
% es.EX (V/m) @ t=0.78
1.0618908691452853
% es.EY (V/m) @ t=0.78
0.2572577474887241
% es.EZ (V/m) @ t=0.78
3.262149637340692
% es.tEX (V/m) @ t=0.78
1.0618908691452873
% es.tEY (V/m) @ t=0.78
0
% es.tEZ (V/m) @ t=0.78
3.262149637340695
% es.Ex (V/m) @ t=0.78
1.0618908691452853
% es.Ey (V/m) @ t=0.78
0.2572577474887241
% es.Ez (V/m) @ t=0.78
3.262149637340692
% es.tEx (V/m) @ t=0.78
1.0618908691452873
% es.tEy (V/m) @ t=0.78
0
% es.tEz (V/m) @ t=0.78
3.262149637340695
% V (V) @ t=0.78
0.01609031467808653
% es.normE (V/m) @ t=0.8
3.4731915652297705
% es.EX (V/m) @ t=0.8
1.0720476172540505
% es.EY (V/m) @ t=0.8
0.25971835973624513
% es.EZ (V/m) @ t=0.8
3.293351363639422
% es.tEX (V/m) @ t=0.8
1.0720476172540572
% es.tEY (V/m) @ t=0.8
0
% es.tEZ (V/m) @ t=0.8
3.2933513636394274
% es.Ex (V/m) @ t=0.8
1.0720476172540505
% es.Ey (V/m) @ t=0.8
0.25971835973624513
% es.Ez (V/m) @ t=0.8
3.293351363639422
% es.tEx (V/m) @ t=0.8
1.0720476172540572
% es.tEy (V/m) @ t=0.8
0
% es.tEz (V/m) @ t=0.8
3.2933513636394274
% V (V) @ t=0.8
0.016244214754779895
% es.normE (V/m) @ t=0.82
3.5060971260987888
% es.EX (V/m) @ t=0.82
1.0822043653628028
% es.EY (V/m) @ t=0.82
0.2621789719836909
% es.EZ (V/m) @ t=0.82
3.3245530899381945
% es.tEX (V/m) @ t=0.82
1.0822043653628128
% es.tEY (V/m) @ t=0.82
0
% es.tEZ (V/m) @ t=0.82
3.3245530899381883
% es.Ex (V/m) @ t=0.82
1.0822043653628028
% es.Ey (V/m) @ t=0.82
0.2621789719836909
% es.Ez (V/m) @ t=0.82
3.3245530899381945
% es.tEx (V/m) @ t=0.82
1.0822043653628128
% es.tEy (V/m) @ t=0.82
0
% es.tEz (V/m) @ t=0.82
3.3245530899381883
% V (V) @ t=0.82
0.016398114831473257
% es.normE (V/m) @ t=0.84
3.539002686967776
% es.EX (V/m) @ t=0.84
1.0923611134715723
% es.EY (V/m) @ t=0.84
0.2646395842312139
% es.EZ (V/m) @ t=0.84
3.3557548162369235
% es.tEX (V/m) @ t=0.84
1.0923611134715827
% es.tEY (V/m) @ t=0.84
0
% es.tEZ (V/m) @ t=0.84
3.3557548162369457
% es.Ex (V/m) @ t=0.84
1.0923611134715723
% es.Ey (V/m) @ t=0.84
0.2646395842312139
% es.Ez (V/m) @ t=0.84
3.3557548162369235
% es.tEx (V/m) @ t=0.84
1.0923611134715827
% es.tEy (V/m) @ t=0.84
0
% es.tEz (V/m) @ t=0.84
3.3557548162369457
% V (V) @ t=0.84
0.01655201490816662
% es.normE (V/m) @ t=0.86
3.571908247836767
% es.EX (V/m) @ t=0.86
1.1025178615803237
% es.EY (V/m) @ t=0.86
0.2671001964786559
% es.EZ (V/m) @ t=0.86
3.3869565425356685
% es.tEX (V/m) @ t=0.86
1.1025178615803242
% es.tEY (V/m) @ t=0.86
0
% es.tEZ (V/m) @ t=0.86
3.386956542535703
% es.Ex (V/m) @ t=0.86
1.1025178615803237
% es.Ey (V/m) @ t=0.86
0.2671001964786559
% es.Ez (V/m) @ t=0.86
3.3869565425356685
% es.tEx (V/m) @ t=0.86
1.1025178615803242
% es.tEy (V/m) @ t=0.86
0
% es.tEz (V/m) @ t=0.86
3.386956542535703
% V (V) @ t=0.86
0.01670591498485998
% es.normE (V/m) @ t=0.88
3.604813808705763
% es.EX (V/m) @ t=0.88
1.1126746096890738
% es.EY (V/m) @ t=0.88
0.26956080872617605
% es.EZ (V/m) @ t=0.88
3.4181582688344125
% es.tEX (V/m) @ t=0.88
1.1126746096890798
% es.tEY (V/m) @ t=0.88
0
% es.tEZ (V/m) @ t=0.88
3.418158268834418
% es.Ex (V/m) @ t=0.88
1.1126746096890738
% es.Ey (V/m) @ t=0.88
0.26956080872617605
% es.Ez (V/m) @ t=0.88
3.4181582688344125
% es.tEx (V/m) @ t=0.88
1.1126746096890798
% es.tEy (V/m) @ t=0.88
0
% es.tEz (V/m) @ t=0.88
3.418158268834418
% V (V) @ t=0.88
0.016859815061553343
% es.normE (V/m) @ t=0.9
3.637719369574802
% es.EX (V/m) @ t=0.9
1.1228313577978408
% es.EY (V/m) @ t=0.9
0.2720214209736751
% es.EZ (V/m) @ t=0.9
3.4493599951331992
% es.tEX (V/m) @ t=0.9
1.1228313577978355
% es.tEY (V/m) @ t=0.9
0
% es.tEZ (V/m) @ t=0.9
3.4493599951332072
% es.Ex (V/m) @ t=0.9
1.1228313577978408
% es.Ey (V/m) @ t=0.9
0.2720214209736751
% es.Ez (V/m) @ t=0.9
3.4493599951331992
% es.tEx (V/m) @ t=0.9
1.1228313577978355
% es.tEy (V/m) @ t=0.9
0
% es.tEz (V/m) @ t=0.9
3.4493599951332072
% V (V) @ t=0.9
0.017013715138246704
% es.normE (V/m) @ t=0.92
3.670624930443777
% es.EX (V/m) @ t=0.92
1.1329881059065996
% es.EY (V/m) @ t=0.92
0.2744820332211668
% es.EZ (V/m) @ t=0.92
3.48056172143192
% es.tEX (V/m) @ t=0.92
1.1329881059065912
% es.tEY (V/m) @ t=0.92
0
% es.tEZ (V/m) @ t=0.92
3.480561721431922
% es.Ex (V/m) @ t=0.92
1.1329881059065996
% es.Ey (V/m) @ t=0.92
0.2744820332211668
% es.Ez (V/m) @ t=0.92
3.48056172143192
% es.tEx (V/m) @ t=0.92
1.1329881059065912
% es.tEy (V/m) @ t=0.92
0
% es.tEz (V/m) @ t=0.92
3.480561721431922
% V (V) @ t=0.92
0.017167615214940066
% es.normE (V/m) @ t=0.94
3.7035304913127867
% es.EX (V/m) @ t=0.94
1.143144854015364
% es.EY (V/m) @ t=0.94
0.276942645468623
% es.EZ (V/m) @ t=0.94
3.5117634477306803
% es.tEX (V/m) @ t=0.94
1.1431448540153752
% es.tEY (V/m) @ t=0.94
0
% es.tEZ (V/m) @ t=0.94
3.511763447730697
% es.Ex (V/m) @ t=0.94
1.143144854015364
% es.Ey (V/m) @ t=0.94
0.276942645468623
% es.Ez (V/m) @ t=0.94
3.5117634477306803
% es.tEx (V/m) @ t=0.94
1.1431448540153752
% es.tEy (V/m) @ t=0.94
0
% es.tEz (V/m) @ t=0.94
3.511763447730697
% V (V) @ t=0.94
0.017321515291633432
% es.normE (V/m) @ t=0.96
3.7364360521817854
% es.EX (V/m) @ t=0.96
1.1533016021241091
% es.EY (V/m) @ t=0.96
0.2794032577161121
% es.EZ (V/m) @ t=0.96
3.5429651740294315
% es.tEX (V/m) @ t=0.96
1.1533016021241167
% es.tEY (V/m) @ t=0.96
0
% es.tEZ (V/m) @ t=0.96
3.542965174029451
% es.Ex (V/m) @ t=0.96
1.1533016021241091
% es.Ey (V/m) @ t=0.96
0.2794032577161121
% es.Ez (V/m) @ t=0.96
3.5429651740294315
% es.tEx (V/m) @ t=0.96
1.1533016021241167
% es.tEy (V/m) @ t=0.96
0
% es.tEz (V/m) @ t=0.96
3.542965174029451
% V (V) @ t=0.96
0.017475415368326794
% es.normE (V/m) @ t=0.98
3.7693416130507815
% es.EX (V/m) @ t=0.98
1.1634583502328788
% es.EY (V/m) @ t=0.98
0.28186386996365376
% es.EZ (V/m) @ t=0.98
3.5741669003281675
% es.tEX (V/m) @ t=0.98
1.1634583502328866
% es.tEY (V/m) @ t=0.98
0
% es.tEZ (V/m) @ t=0.98
3.574166900328173
% es.Ex (V/m) @ t=0.98
1.1634583502328788
% es.Ey (V/m) @ t=0.98
0.28186386996365376
% es.Ez (V/m) @ t=0.98
3.5741669003281675
% es.tEx (V/m) @ t=0.98
1.1634583502328866
% es.tEy (V/m) @ t=0.98
0
% es.tEz (V/m) @ t=0.98
3.574166900328173
% V (V) @ t=0.98
0.017629315445020156
% es.normE (V/m) @ t=1
3.802247173919799
% es.EX (V/m) @ t=1
1.1736150983416462
% es.EY (V/m) @ t=1
0.28432448221111684
% es.EZ (V/m) @ t=1
3.605368626626934
% es.tEX (V/m) @ t=1
1.1736150983416564
% es.tEY (V/m) @ t=1
0
% es.tEZ (V/m) @ t=1
3.6053686266269445
% es.Ex (V/m) @ t=1
1.1736150983416462
% es.Ey (V/m) @ t=1
0.28432448221111684
% es.Ez (V/m) @ t=1
3.605368626626934
% es.tEx (V/m) @ t=1
1.1736150983416564
% es.tEy (V/m) @ t=1
0
% es.tEz (V/m) @ t=1
3.6053686266269445
% V (V) @ t=1
0.017783215521713518
% es.normE (V/m) @ t=1.02
3.8351527347887853
% es.EX (V/m) @ t=1.02
1.1837718464503952
% es.EY (V/m) @ t=1.02
0.2867850944586159
% es.EZ (V/m) @ t=1.02
3.63657035292567
% es.tEX (V/m) @ t=1.02
1.1837718464503837
% es.tEY (V/m) @ t=1.02
0
% es.tEZ (V/m) @ t=1.02
3.6365703529256734
% es.Ex (V/m) @ t=1.02
1.1837718464503952
% es.Ey (V/m) @ t=1.02
0.2867850944586159
% es.Ez (V/m) @ t=1.02
3.63657035292567
% es.tEx (V/m) @ t=1.02
1.1837718464503837
% es.tEy (V/m) @ t=1.02
0
% es.tEz (V/m) @ t=1.02
3.6365703529256734
% V (V) @ t=1.02
0.01793711559840688
% es.normE (V/m) @ t=1.04
3.869002862962626
% es.EX (V/m) @ t=1.04
1.1942201489830837
% es.EY (V/m) @ t=1.04
0.2893163394193876
% es.EZ (V/m) @ t=1.04
3.668667736996559
% es.tEX (V/m) @ t=1.04
1.1942201489831064
% es.tEY (V/m) @ t=1.04
0
% es.tEZ (V/m) @ t=1.04
3.6686677369965714
% es.Ex (V/m) @ t=1.04
1.1942201489830837
% es.Ey (V/m) @ t=1.04
0.2893163394193876
% es.Ez (V/m) @ t=1.04
3.668667736996559
% es.tEx (V/m) @ t=1.04
1.1942201489831064
% es.tEy (V/m) @ t=1.04
0
% es.tEz (V/m) @ t=1.04