% Model:              1 neuron.mph
% Version:            COMSOL 6.1.0.252
% Date:               Mar 27 2023, 14:45
% Dimension:          0
% Nodes:              14017
% Expressions:        14017
% Description:        Electric field norm, Electric field, X component, Electric field, Y component, Electric field, Z component, Tangential electric field, X component, Tangential electric field, Y component, Tangential electric field, Z component, Electric field, x component, Electric field, y component, Electric field, z component, Tangential electric field, x component, Tangential electric field, y component, Tangential electric field, z component, Electric potential
% Length unit:        mm
% x
2
% y
12.199999999999998
% z
2
% es.normE (V/m) @ t=0
1.3191041214190835
% es.EX (V/m) @ t=0
-0.9443567957483461
% es.EY (V/m) @ t=0
0.35964387449223834
% es.EZ (V/m) @ t=0
-0.8426945191994379
% es.tEX (V/m) @ t=0
-0.9443567957483476
% es.tEY (V/m) @ t=0
0
% es.tEZ (V/m) @ t=0
-0.8426945191994424
% es.Ex (V/m) @ t=0
-0.9443567957483461
% es.Ey (V/m) @ t=0
0.35964387449223834
% es.Ez (V/m) @ t=0
-0.8426945191994379
% es.tEx (V/m) @ t=0
-0.9443567957483476
% es.tEy (V/m) @ t=0
0
% es.tEz (V/m) @ t=0
-0.8426945191994424
% V (V) @ t=0
0.013424271318366734
% es.normE (V/m) @ t=0.02
1.1393222640753171
% es.EX (V/m) @ t=0.02
-0.8156495797119467
% es.EY (V/m) @ t=0.02
0.3106276961186265
% es.EZ (V/m) @ t=0.02
-0.727842944276297
% es.tEX (V/m) @ t=0.02
-0.8156495797119439
% es.tEY (V/m) @ t=0.02
0
% es.tEZ (V/m) @ t=0.02
-0.727842944276297
% es.Ex (V/m) @ t=0.02
-0.8156495797119467
% es.Ey (V/m) @ t=0.02
0.3106276961186265
% es.Ez (V/m) @ t=0.02
-0.727842944276297
% es.tEx (V/m) @ t=0.02
-0.8156495797119439
% es.tEy (V/m) @ t=0.02
0
% es.tEz (V/m) @ t=0.02
-0.727842944276297
% V (V) @ t=0.02
0.011594665587277201
% es.normE (V/m) @ t=0.04
1.149801717667779
% es.EX (V/m) @ t=0.04
-0.8231519012059754
% es.EY (V/m) @ t=0.04
0.3134848407963391
% es.EZ (V/m) @ t=0.04
-0.7345376228562825
% es.tEX (V/m) @ t=0.04
-0.823151901205974
% es.tEY (V/m) @ t=0.04
0
% es.tEZ (V/m) @ t=0.04
-0.734537622856287
% es.Ex (V/m) @ t=0.04
-0.8231519012059754
% es.Ey (V/m) @ t=0.04
0.3134848407963391
% es.Ez (V/m) @ t=0.04
-0.7345376228562825
% es.tEx (V/m) @ t=0.04
-0.823151901205974
% es.tEy (V/m) @ t=0.04
0
% es.tEz (V/m) @ t=0.04
-0.734537622856287
% V (V) @ t=0.04
0.011701312989230672
% es.normE (V/m) @ t=0.06
1.1603582923441835
% es.EX (V/m) @ t=0.06
-0.8307094350953765
% es.EY (V/m) @ t=0.06
0.3163630102429347
% es.EZ (V/m) @ t=0.06
-0.7412815693504671
% es.tEX (V/m) @ t=0.06
-0.8307094350953759
% es.tEY (V/m) @ t=0.06
0
% es.tEZ (V/m) @ t=0.06
-0.7412815693504786
% es.Ex (V/m) @ t=0.06
-0.8307094350953765
% es.Ey (V/m) @ t=0.06
0.3163630102429347
% es.Ez (V/m) @ t=0.06
-0.7412815693504671
% es.tEx (V/m) @ t=0.06
-0.8307094350953759
% es.tEy (V/m) @ t=0.06
0
% es.tEz (V/m) @ t=0.06
-0.7412815693504786
% V (V) @ t=0.06
0.011808745298392731
% es.normE (V/m) @ t=0.08
1.1711155618181062
% es.EX (V/m) @ t=0.08
-0.8384106493097156
% es.EY (V/m) @ t=0.08
0.31929589474041875
% es.EZ (V/m) @ t=0.08
-0.7481537274021726
% es.tEX (V/m) @ t=0.08
-0.8384106493097154
% es.tEY (V/m) @ t=0.08
0
% es.tEZ (V/m) @ t=0.08
-0.748153727402185
% es.Ex (V/m) @ t=0.08
-0.8384106493097156
% es.Ey (V/m) @ t=0.08
0.31929589474041875
% es.Ez (V/m) @ t=0.08
-0.7481537274021726
% es.tEx (V/m) @ t=0.08
-0.8384106493097154
% es.tEy (V/m) @ t=0.08
0
% es.tEz (V/m) @ t=0.08
-0.748153727402185
% V (V) @ t=0.08
0.011918220142719753
% es.normE (V/m) @ t=0.1
1.1819299868797768
% es.EX (V/m) @ t=0.1
-0.8461527820407133
% es.EY (V/m) @ t=0.1
0.3222443614599526
% es.EZ (V/m) @ t=0.1
-0.7550623986421545
% es.tEX (V/m) @ t=0.1
-0.8461527820407087
% es.tEY (V/m) @ t=0.1
0
% es.tEZ (V/m) @ t=0.1
-0.7550623986421527
% es.Ex (V/m) @ t=0.1
-0.8461527820407133
% es.Ey (V/m) @ t=0.1
0.3222443614599526
% es.Ez (V/m) @ t=0.1
-0.7550623986421545
% es.tEx (V/m) @ t=0.1
-0.8461527820407087
% es.tEy (V/m) @ t=0.1
0
% es.tEz (V/m) @ t=0.1
-0.7550623986421527
% V (V) @ t=0.1
0.012028276677749666
% es.normE (V/m) @ t=0.12
1.1927444119414408
% es.EX (V/m) @ t=0.12
-0.853894914771711
% es.EY (V/m) @ t=0.12
0.32519282817946626
% es.EZ (V/m) @ t=0.12
-0.7619710698821356
% es.tEX (V/m) @ t=0.12
-0.8538949147717121
% es.tEY (V/m) @ t=0.12
0
% es.tEZ (V/m) @ t=0.12
-0.7619710698821347
% es.Ex (V/m) @ t=0.12
-0.853894914771711
% es.Ey (V/m) @ t=0.12
0.32519282817946626
% es.Ez (V/m) @ t=0.12
-0.7619710698821356
% es.tEx (V/m) @ t=0.12
-0.8538949147717121
% es.tEy (V/m) @ t=0.12
0
% es.tEz (V/m) @ t=0.12
-0.7619710698821347
% V (V) @ t=0.12
0.012138333212779583
% es.normE (V/m) @ t=0.14
1.2038649894327247
% es.EX (V/m) @ t=0.14
-0.8618562205485063
% es.EY (V/m) @ t=0.14
0.3282247731231376
% es.EZ (V/m) @ t=0.14
-0.7690753231098943
% es.tEX (V/m) @ t=0.14
-0.8618562205485119
% es.tEY (V/m) @ t=0.14
0
% es.tEZ (V/m) @ t=0.14
-0.7690753231098881
% es.Ex (V/m) @ t=0.14
-0.8618562205485063
% es.Ey (V/m) @ t=0.14
0.3282247731231376
% es.Ez (V/m) @ t=0.14
-0.7690753231098943
% es.tEx (V/m) @ t=0.14
-0.8618562205485119
% es.tEy (V/m) @ t=0.14
0
% es.tEz (V/m) @ t=0.14
-0.7690753231098881
% V (V) @ t=0.14
0.012251505117137166
% es.normE (V/m) @ t=0.16
1.2152232442419755
% es.EX (V/m) @ t=0.16
-0.8699876783693721
% es.EY (V/m) @ t=0.16
0.3313215252624935
% es.EZ (V/m) @ t=0.16
-0.776331413781369
% es.tEX (V/m) @ t=0.16
-0.869987678369367
% es.tEY (V/m) @ t=0.16
0
% es.tEZ (V/m) @ t=0.16
-0.7763314137813744
% es.Ex (V/m) @ t=0.16
-0.8699876783693721
% es.Ey (V/m) @ t=0.16
0.3313215252624935
% es.Ez (V/m) @ t=0.16
-0.776331413781369
% es.tEx (V/m) @ t=0.16
-0.869987678369367
% es.tEy (V/m) @ t=0.16
0
% es.tEz (V/m) @ t=0.16
-0.7763314137813744
% V (V) @ t=0.16
0.012367095596539781
% es.normE (V/m) @ t=0.18
1.2265814990512212
% es.EX (V/m) @ t=0.18
-0.8781191361902037
% es.EY (V/m) @ t=0.18
0.33441827740186314
% es.EZ (V/m) @ t=0.18
-0.7835875044528642
% es.tEX (V/m) @ t=0.18
-0.8781191361902008
% es.tEY (V/m) @ t=0.18
0
% es.tEZ (V/m) @ t=0.18
-0.7835875044528731
% es.Ex (V/m) @ t=0.18
-0.8781191361902037
% es.Ey (V/m) @ t=0.18
0.33441827740186314
% es.Ez (V/m) @ t=0.18
-0.7835875044528642
% es.tEx (V/m) @ t=0.18
-0.8781191361902008
% es.tEy (V/m) @ t=0.18
0
% es.tEz (V/m) @ t=0.18
-0.7835875044528731
% V (V) @ t=0.18
0.012482686075942396
% es.normE (V/m) @ t=0.2
1.237939753860484
% es.EX (V/m) @ t=0.2
-0.886250594011065
% es.EY (V/m) @ t=0.2
0.3375150295412337
% es.EZ (V/m) @ t=0.2
-0.7908435951243549
% es.tEX (V/m) @ t=0.2
-0.8862505940110657
% es.tEY (V/m) @ t=0.2
0
% es.tEZ (V/m) @ t=0.2
-0.7908435951243558
% es.Ex (V/m) @ t=0.2
-0.886250594011065
% es.Ey (V/m) @ t=0.2
0.3375150295412337
% es.Ez (V/m) @ t=0.2
-0.7908435951243549
% es.tEx (V/m) @ t=0.2
-0.8862505940110657
% es.tEy (V/m) @ t=0.2
0
% es.tEz (V/m) @ t=0.2
-0.7908435951243558
% V (V) @ t=0.2
0.012598276555345012
% es.normE (V/m) @ t=0.22
1.24929800866974
% es.EX (V/m) @ t=0.22
-0.894382051831913
% es.EY (V/m) @ t=0.22
0.3406117816805998
% es.EZ (V/m) @ t=0.22
-0.7980996857958536
% es.tEX (V/m) @ t=0.22
-0.8943820518319092
% es.tEY (V/m) @ t=0.22
0
% es.tEZ (V/m) @ t=0.22
-0.7980996857958473
% es.Ex (V/m) @ t=0.22
-0.894382051831913
% es.Ey (V/m) @ t=0.22
0.3406117816805998
% es.Ez (V/m) @ t=0.22
-0.7980996857958536
% es.tEx (V/m) @ t=0.22
-0.8943820518319092
% es.tEy (V/m) @ t=0.22
0
% es.tEz (V/m) @ t=0.22
-0.7980996857958473
% V (V) @ t=0.22
0.012713867034747627
% es.normE (V/m) @ t=0.24
1.2606562634789715
% es.EX (V/m) @ t=0.24
-0.9025135096527603
% es.EY (V/m) @ t=0.24
0.34370853381995925
% es.EZ (V/m) @ t=0.24
-0.8053557764673149
% es.tEX (V/m) @ t=0.24
-0.9025135096527683
% es.tEY (V/m) @ t=0.24
0
% es.tEZ (V/m) @ t=0.24
-0.8053557764673176
% es.Ex (V/m) @ t=0.24
-0.9025135096527603
% es.Ey (V/m) @ t=0.24
0.34370853381995925
% es.Ez (V/m) @ t=0.24
-0.8053557764673149
% es.tEx (V/m) @ t=0.24
-0.9025135096527683
% es.tEy (V/m) @ t=0.24
0
% es.tEz (V/m) @ t=0.24
-0.8053557764673176
% V (V) @ t=0.24
0.012829457514150246
% es.normE (V/m) @ t=0.26
1.2721751299197046
% es.EX (V/m) @ t=0.26
-0.9107599647323841
% es.EY (V/m) @ t=0.26
0.34684904579787545
% es.EZ (V/m) @ t=0.26
-0.8127144719461867
% es.tEX (V/m) @ t=0.26
-0.9107599647323879
% es.tEY (V/m) @ t=0.26
0
% es.tEZ (V/m) @ t=0.26
-0.812714471946185
% es.Ex (V/m) @ t=0.26
-0.9107599647323841
% es.Ey (V/m) @ t=0.26
0.34684904579787545
% es.Ez (V/m) @ t=0.26
-0.8127144719461867
% es.tEx (V/m) @ t=0.26
-0.9107599647323879
% es.tEy (V/m) @ t=0.26
0
% es.tEz (V/m) @ t=0.26
-0.812714471946185
% V (V) @ t=0.26
0.012946683562193702
% es.normE (V/m) @ t=0.28
1.284748364760825
% es.EX (V/m) @ t=0.28
-0.9197613431924718
% es.EY (V/m) @ t=0.28
0.3502768283213129
% es.EZ (V/m) @ t=0.28
-0.8207467379854378
% es.tEX (V/m) @ t=0.28
-0.9197613431924663
% es.tEY (V/m) @ t=0.28
0
% es.tEZ (V/m) @ t=0.28
-0.8207467379854343
% es.Ex (V/m) @ t=0.28
-0.9197613431924718
% es.Ey (V/m) @ t=0.28
0.3502768283213129
% es.Ez (V/m) @ t=0.28
-0.8207467379854378
% es.tEx (V/m) @ t=0.28
-0.9197613431924663
% es.tEy (V/m) @ t=0.28
0
% es.tEz (V/m) @ t=0.28
-0.8207467379854343
% V (V) @ t=0.28
0.01307464664015031
% es.normE (V/m) @ t=0.3
1.297321599602012
% es.EX (V/m) @ t=0.3
-0.928762721652544
% es.EY (V/m) @ t=0.3
0.35370461084474014
% es.EZ (V/m) @ t=0.3
-0.8287790040246961
% es.tEX (V/m) @ t=0.3
-0.9287627216525469
% es.tEY (V/m) @ t=0.3
0
% es.tEZ (V/m) @ t=0.3
-0.8287790040246943
% es.Ex (V/m) @ t=0.3
-0.928762721652544
% es.Ey (V/m) @ t=0.3
0.35370461084474014
% es.Ez (V/m) @ t=0.3
-0.8287790040246961
% es.tEx (V/m) @ t=0.3
-0.9287627216525469
% es.tEy (V/m) @ t=0.3
0
% es.tEz (V/m) @ t=0.3
-0.8287790040246943
% V (V) @ t=0.3
0.013202609718106923
% es.normE (V/m) @ t=0.32
1.309894834443281
% es.EX (V/m) @ t=0.32
-0.9377641001126282
% es.EY (V/m) @ t=0.32
0.3571323933681745
% es.EZ (V/m) @ t=0.32
-0.8368112700639552
% es.tEX (V/m) @ t=0.32
-0.937764100112628
% es.tEY (V/m) @ t=0.32
0
% es.tEZ (V/m) @ t=0.32
-0.8368112700639507
% es.Ex (V/m) @ t=0.32
-0.9377641001126282
% es.Ey (V/m) @ t=0.32
0.3571323933681745
% es.Ez (V/m) @ t=0.32
-0.8368112700639552
% es.tEx (V/m) @ t=0.32
-0.937764100112628
% es.tEy (V/m) @ t=0.32
0
% es.tEz (V/m) @ t=0.32
-0.8368112700639507
% V (V) @ t=0.32
0.013330572796063535
% es.normE (V/m) @ t=0.34
1.3224680692845914
% es.EX (V/m) @ t=0.34
-0.9467654785726933
% es.EY (V/m) @ t=0.34
0.36056017589159994
% es.EZ (V/m) @ t=0.34
-0.8448435361031956
% es.tEX (V/m) @ t=0.34
-0.9467654785726989
% es.tEY (V/m) @ t=0.34
0
% es.tEZ (V/m) @ t=0.34
-0.8448435361032036
% es.Ex (V/m) @ t=0.34
-0.9467654785726933
% es.Ey (V/m) @ t=0.34
0.36056017589159994
% es.Ez (V/m) @ t=0.34
-0.8448435361031956
% es.tEx (V/m) @ t=0.34
-0.9467654785726989
% es.tEy (V/m) @ t=0.34
0
% es.tEz (V/m) @ t=0.34
-0.8448435361032036
% V (V) @ t=0.34
0.013458535874020145
% es.normE (V/m) @ t=0.36
1.335041304125998
% es.EX (V/m) @ t=0.36
-0.955766857032782
% es.EY (V/m) @ t=0.36
0.36398795841502096
% es.EZ (V/m) @ t=0.36
-0.8528758021424583
% es.tEX (V/m) @ t=0.36
-0.9557668570327755
% es.tEY (V/m) @ t=0.36
0
% es.tEZ (V/m) @ t=0.36
-0.8528758021424565
% es.Ex (V/m) @ t=0.36
-0.955766857032782
% es.Ey (V/m) @ t=0.36
0.36398795841502096
% es.Ez (V/m) @ t=0.36
-0.8528758021424583
% es.tEx (V/m) @ t=0.36
-0.9557668570327755
% es.tEy (V/m) @ t=0.36
0
% es.tEz (V/m) @ t=0.36
-0.8528758021424565
% V (V) @ t=0.36
0.013586498951976753
% es.normE (V/m) @ t=0.38
1.3476145389674645
% es.EX (V/m) @ t=0.38
-0.9647682354928677
% es.EY (V/m) @ t=0.38
0.3674157409384544
% es.EZ (V/m) @ t=0.38
-0.8609080681817085
% es.tEX (V/m) @ t=0.38
-0.9647682354928677
% es.tEY (V/m) @ t=0.38
0
% es.tEZ (V/m) @ t=0.38
-0.86090806818172
% es.Ex (V/m) @ t=0.38
-0.9647682354928677
% es.Ey (V/m) @ t=0.38
0.3674157409384544
% es.Ez (V/m) @ t=0.38
-0.8609080681817085
% es.tEx (V/m) @ t=0.38
-0.9647682354928677
% es.tEy (V/m) @ t=0.38
0
% es.tEz (V/m) @ t=0.38
-0.86090806818172
% V (V) @ t=0.38
0.013714462029933367
% es.normE (V/m) @ t=0.4
1.3601877738089923
% es.EX (V/m) @ t=0.4
-0.9737696139529384
% es.EY (V/m) @ t=0.4
0.37084352346187544
% es.EZ (V/m) @ t=0.4
-0.8689403342209792
% es.tEX (V/m) @ t=0.4
-0.9737696139529373
% es.tEY (V/m) @ t=0.4
0
% es.tEZ (V/m) @ t=0.4
-0.8689403342209729
% es.Ex (V/m) @ t=0.4
-0.9737696139529384
% es.Ey (V/m) @ t=0.4
0.37084352346187544
% es.Ez (V/m) @ t=0.4
-0.8689403342209792
% es.tEx (V/m) @ t=0.4
-0.9737696139529373
% es.tEy (V/m) @ t=0.4
0
% es.tEz (V/m) @ t=0.4
-0.8689403342209729
% V (V) @ t=0.4
0.013842425107889977
% es.normE (V/m) @ t=0.42
1.3727610086505828
% es.EX (V/m) @ t=0.42
-0.9827709924130241
% es.EY (V/m) @ t=0.42
0.37427130598530356
% es.EZ (V/m) @ t=0.42
-0.876972600260232
% es.tEX (V/m) @ t=0.42
-0.9827709924130197
% es.tEY (V/m) @ t=0.42
0
% es.tEZ (V/m) @ t=0.42
-0.8769726002602294
% es.Ex (V/m) @ t=0.42
-0.9827709924130241
% es.Ey (V/m) @ t=0.42
0.37427130598530356
% es.Ez (V/m) @ t=0.42
-0.876972600260232
% es.tEx (V/m) @ t=0.42
-0.9827709924130197
% es.tEy (V/m) @ t=0.42
0
% es.tEz (V/m) @ t=0.42
-0.8769726002602294
% V (V) @ t=0.42
0.013970388185846587
% es.normE (V/m) @ t=0.44
1.3853342434922356
% es.EX (V/m) @ t=0.44
-0.991772370873093
% es.EY (V/m) @ t=0.44
0.3776990885087468
% es.EZ (V/m) @ t=0.44
-0.8850048662994965
% es.tEX (V/m) @ t=0.44
-0.9917723708730928
% es.tEY (V/m) @ t=0.44
0
% es.tEZ (V/m) @ t=0.44
-0.8850048662994894
% es.Ex (V/m) @ t=0.44
-0.991772370873093
% es.Ey (V/m) @ t=0.44
0.3776990885087468
% es.Ez (V/m) @ t=0.44
-0.8850048662994965
% es.tEx (V/m) @ t=0.44
-0.9917723708730928
% es.tEy (V/m) @ t=0.44
0
% es.tEz (V/m) @ t=0.44
-0.8850048662994894
% V (V) @ t=0.44
0.014098351263803197
% es.normE (V/m) @ t=0.46
1.3979074783339502
% es.EX (V/m) @ t=0.46
-1.0007737493331843
% es.EY (V/m) @ t=0.46
0.38112687103216203
% es.EZ (V/m) @ t=0.46
-0.8930371323387574
% es.tEX (V/m) @ t=0.46
-1.0007737493331814
% es.tEY (V/m) @ t=0.46
0
% es.tEZ (V/m) @ t=0.46
-0.8930371323387529
% es.Ex (V/m) @ t=0.46
-1.0007737493331843
% es.Ey (V/m) @ t=0.46
0.38112687103216203
% es.Ez (V/m) @ t=0.46
-0.8930371323387574
% es.tEx (V/m) @ t=0.46
-1.0007737493331814
% es.tEy (V/m) @ t=0.46
0
% es.tEz (V/m) @ t=0.46
-0.8930371323387529
% V (V) @ t=0.46
0.01422631434175981
% es.normE (V/m) @ t=0.48
1.410480713175708
% es.EX (V/m) @ t=0.48
-1.0097751277932583
% es.EY (V/m) @ t=0.48
0.3845546535555857
% es.EZ (V/m) @ t=0.48
-0.9010693983780094
% es.tEX (V/m) @ t=0.48
-1.0097751277932518
% es.tEY (V/m) @ t=0.48
0
% es.tEZ (V/m) @ t=0.48
-0.9010693983780129
% es.Ex (V/m) @ t=0.48
-1.0097751277932583
% es.Ey (V/m) @ t=0.48
0.3845546535555857
% es.Ez (V/m) @ t=0.48
-0.9010693983780094
% es.tEx (V/m) @ t=0.48
-1.0097751277932518
% es.tEy (V/m) @ t=0.48
0
% es.tEz (V/m) @ t=0.48
-0.9010693983780129
% V (V) @ t=0.48
0.014354277419716423
% es.normE (V/m) @ t=0.5
1.4230539480175302
% es.EX (V/m) @ t=0.5
-1.0187765062533403
% es.EY (V/m) @ t=0.5
0.38798243607901783
% es.EZ (V/m) @ t=0.5
-0.9091016644172649
% es.tEX (V/m) @ t=0.5
-1.01877650625334
% es.tEY (V/m) @ t=0.5
0
% es.tEZ (V/m) @ t=0.5
-0.9091016644172676
% es.Ex (V/m) @ t=0.5
-1.0187765062533403
% es.Ey (V/m) @ t=0.5
0.38798243607901783
% es.Ez (V/m) @ t=0.5
-0.9091016644172649
% es.tEx (V/m) @ t=0.5
-1.01877650625334
% es.tEy (V/m) @ t=0.5
0
% es.tEz (V/m) @ t=0.5
-0.9091016644172676
% V (V) @ t=0.5
0.014482240497673032
% es.normE (V/m) @ t=0.52
1.4359971507268883
% es.EX (V/m) @ t=0.52
-1.0280427608695681
% es.EY (V/m) @ t=0.52
0.39151105961013455
% es.EZ (V/m) @ t=0.52
-0.9173702801036754
% es.tEX (V/m) @ t=0.52
-1.0280427608695657
% es.tEY (V/m) @ t=0.52
0
% es.tEZ (V/m) @ t=0.52
-0.9173702801036718
% es.Ex (V/m) @ t=0.52
-1.0280427608695681
% es.Ey (V/m) @ t=0.52
0.39151105961013455
% es.Ez (V/m) @ t=0.52
-0.9173702801036754
% es.tEx (V/m) @ t=0.52
-1.0280427608695657
% es.tEy (V/m) @ t=0.52
0
% es.tEz (V/m) @ t=0.52
-0.9173702801036718
% V (V) @ t=0.52
0.01461396965900169
% es.normE (V/m) @ t=0.54
1.4499372669394603
% es.EX (V/m) @ t=0.54
-1.038022749406916
% es.EY (V/m) @ t=0.54
0.3953114087991598
% es.EZ (V/m) @ t=0.54
-0.9262757623274158
% es.tEX (V/m) @ t=0.54
-1.038022749406907
% es.tEY (V/m) @ t=0.54
0
% es.tEZ (V/m) @ t=0.54
-0.9262757623274211
% es.Ex (V/m) @ t=0.54
-1.038022749406916
% es.Ey (V/m) @ t=0.54
0.3953114087991598
% es.Ez (V/m) @ t=0.54
-0.9262757623274158
% es.tEx (V/m) @ t=0.54
-1.038022749406907
% es.tEy (V/m) @ t=0.54
0
% es.tEz (V/m) @ t=0.54
-0.9262757623274211
% V (V) @ t=0.54
0.014755846889115281
% es.normE (V/m) @ t=0.56
1.463877383152151
% es.EX (V/m) @ t=0.56
-1.0480027379442494
% es.EY (V/m) @ t=0.56
0.39911175798822285
% es.EZ (V/m) @ t=0.56
-0.9351812445511527
% es.tEX (V/m) @ t=0.56
-1.0480027379442474
% es.tEY (V/m) @ t=0.56
0
% es.tEZ (V/m) @ t=0.56
-0.9351812445511491
% es.Ex (V/m) @ t=0.56
-1.0480027379442494
% es.Ey (V/m) @ t=0.56
0.39911175798822285
% es.Ez (V/m) @ t=0.56
-0.9351812445511527
% es.tEx (V/m) @ t=0.56
-1.0480027379442474
% es.tEy (V/m) @ t=0.56
0
% es.tEz (V/m) @ t=0.56
-0.9351812445511491
% V (V) @ t=0.56
0.014897724119228874
% es.normE (V/m) @ t=0.58
1.4778174993649482
% es.EX (V/m) @ t=0.58
-1.0579827264815707
% es.EY (V/m) @ t=0.58
0.4029121071772632
% es.EZ (V/m) @ t=0.58
-0.9440867267748949
% es.tEX (V/m) @ t=0.58
-1.0579827264815678
% es.tEY (V/m) @ t=0.58
0
% es.tEZ (V/m) @ t=0.58
-0.9440867267749002
% es.Ex (V/m) @ t=0.58
-1.0579827264815707
% es.Ey (V/m) @ t=0.58
0.4029121071772632
% es.Ez (V/m) @ t=0.58
-0.9440867267748949
% es.tEx (V/m) @ t=0.58
-1.0579827264815678
% es.tEy (V/m) @ t=0.58
0
% es.tEz (V/m) @ t=0.58
-0.9440867267749002
% V (V) @ t=0.58
0.015039601349342466
% es.normE (V/m) @ t=0.6
1.491757615577875
% es.EX (V/m) @ t=0.6
-1.0679627150189173
% es.EY (V/m) @ t=0.6
0.40671245636631825
% es.EZ (V/m) @ t=0.6
-0.9529922089986371
% es.tEX (V/m) @ t=0.6
-1.0679627150189162
% es.tEY (V/m) @ t=0.6
0
% es.tEZ (V/m) @ t=0.6
-0.9529922089986442
% es.Ex (V/m) @ t=0.6
-1.0679627150189173
% es.Ey (V/m) @ t=0.6
0.40671245636631825
% es.Ez (V/m) @ t=0.6
-0.9529922089986371
% es.tEx (V/m) @ t=0.6
-1.0679627150189162
% es.tEy (V/m) @ t=0.6
0
% es.tEz (V/m) @ t=0.6
-0.9529922089986442
% V (V) @ t=0.6
0.015181478579456058
% es.normE (V/m) @ t=0.62
1.5056977317909022
% es.EX (V/m) @ t=0.62
-1.0779427035562452
% es.EY (V/m) @ t=0.62
0.4105128055553675
% es.EZ (V/m) @ t=0.62
-0.9618976912223882
% es.tEX (V/m) @ t=0.62
-1.0779427035562503
% es.tEY (V/m) @ t=0.62
0
% es.tEZ (V/m) @ t=0.62
-0.9618976912223864
% es.Ex (V/m) @ t=0.62
-1.0779427035562452
% es.Ey (V/m) @ t=0.62
0.4105128055553675
% es.Ez (V/m) @ t=0.62
-0.9618976912223882
% es.tEx (V/m) @ t=0.62
-1.0779427035562503
% es.tEy (V/m) @ t=0.62
0
% es.tEz (V/m) @ t=0.62
-0.9618976912223864
% V (V) @ t=0.62
0.01532335580956965
% es.normE (V/m) @ t=0.64
1.5196378480040331
% es.EX (V/m) @ t=0.64
-1.0879226920935736
% es.EY (V/m) @ t=0.64
0.4143131547444212
% es.EZ (V/m) @ t=0.64
-0.9708031734461304
% es.tEX (V/m) @ t=0.64
-1.0879226920935743
% es.tEY (V/m) @ t=0.64
0
% es.tEZ (V/m) @ t=0.64
-0.9708031734461215
% es.Ex (V/m) @ t=0.64
-1.0879226920935736
% es.Ey (V/m) @ t=0.64
0.4143131547444212
% es.Ez (V/m) @ t=0.64
-0.9708031734461304
% es.tEx (V/m) @ t=0.64
-1.0879226920935743
% es.tEy (V/m) @ t=0.64
0
% es.tEz (V/m) @ t=0.64
-0.9708031734461215
% V (V) @ t=0.64
0.015465233039683238
% es.normE (V/m) @ t=0.66
1.5335779642172644
% es.EX (V/m) @ t=0.66
-1.0979026806309091
% es.EY (V/m) @ t=0.66
0.4181135039334656
% es.EZ (V/m) @ t=0.66
-0.9797086556698691
% es.tEX (V/m) @ t=0.66
-1.097902680630908
% es.tEY (V/m) @ t=0.66
0
% es.tEZ (V/m) @ t=0.66
-0.9797086556698655
% es.Ex (V/m) @ t=0.66
-1.0979026806309091
% es.Ey (V/m) @ t=0.66
0.4181135039334656
% es.Ez (V/m) @ t=0.66
-0.9797086556698691
% es.tEx (V/m) @ t=0.66
-1.097902680630908
% es.tEy (V/m) @ t=0.66
0
% es.tEz (V/m) @ t=0.66
-0.9797086556698655
% V (V) @ t=0.66
0.015607110269796833
% es.normE (V/m) @ t=0.68
1.5475180804306023
% es.EX (V/m) @ t=0.68
-1.1078826691682304
% es.EY (V/m) @ t=0.68
0.42191385312251395
% es.EZ (V/m) @ t=0.68
-0.9886141378936273
% es.tEX (V/m) @ t=0.68
-1.1078826691682249
% es.tEY (V/m) @ t=0.68
0
% es.tEZ (V/m) @ t=0.68
-0.9886141378936237
% es.Ex (V/m) @ t=0.68
-1.1078826691682304
% es.Ey (V/m) @ t=0.68
0.42191385312251395
% es.Ez (V/m) @ t=0.68
-0.9886141378936273
% es.tEx (V/m) @ t=0.68
-1.1078826691682249
% es.tEy (V/m) @ t=0.68
0
% es.tEz (V/m) @ t=0.68
-0.9886141378936237
% V (V) @ t=0.68
0.01574898749991042
% es.normE (V/m) @ t=0.7
1.5614581966440362
% es.EX (V/m) @ t=0.7
-1.1178626577055744
% es.EY (V/m) @ t=0.7
0.42571420231158763
% es.EZ (V/m) @ t=0.7
-0.99751962011735
% es.tEX (V/m) @ t=0.7
-1.1178626577055724
% es.tEY (V/m) @ t=0.7
0
% es.tEZ (V/m) @ t=0.7
-0.9975196201173588
% es.Ex (V/m) @ t=0.7
-1.1178626577055744
% es.Ey (V/m) @ t=0.7
0.42571420231158763
% es.Ez (V/m) @ t=0.7
-0.99751962011735
% es.tEx (V/m) @ t=0.7
-1.1178626577055724
% es.tEy (V/m) @ t=0.7
0
% es.tEz (V/m) @ t=0.7
-0.9975196201173588
% V (V) @ t=0.7
0.015890864730024018
% es.normE (V/m) @ t=0.72
1.575398312857565
% es.EX (V/m) @ t=0.72
-1.1278426462429099
% es.EY (V/m) @ t=0.72
0.4295145515006107
% es.EZ (V/m) @ t=0.72
-1.0064251023411028
% es.tEX (V/m) @ t=0.72
-1.127842646242907
% es.tEY (V/m) @ t=0.72
0
% es.tEZ (V/m) @ t=0.72
-1.006425102341094
% es.Ex (V/m) @ t=0.72
-1.1278426462429099
% es.Ey (V/m) @ t=0.72
0.4295145515006107
% es.Ez (V/m) @ t=0.72
-1.0064251023411028
% es.tEx (V/m) @ t=0.72
-1.127842646242907
% es.tEy (V/m) @ t=0.72
0
% es.tEz (V/m) @ t=0.72
-1.006425102341094
% V (V) @ t=0.72
0.016032741960137604
% es.normE (V/m) @ t=0.74
1.5893384290711836
% es.EX (V/m) @ t=0.74
-1.1378226347802316
% es.EY (V/m) @ t=0.74
0.43331490068965905
% es.EZ (V/m) @ t=0.74
-1.0153305845648548
% es.tEX (V/m) @ t=0.74
-1.1378226347802265
% es.tEY (V/m) @ t=0.74
0
% es.tEZ (V/m) @ t=0.74
-1.015330584564845
% es.Ex (V/m) @ t=0.74
-1.1378226347802316
% es.Ey (V/m) @ t=0.74
0.43331490068965905
% es.Ez (V/m) @ t=0.74
-1.0153305845648548
% es.tEx (V/m) @ t=0.74
-1.1378226347802265
% es.tEy (V/m) @ t=0.74
0
% es.tEz (V/m) @ t=0.74
-1.015330584564845
% V (V) @ t=0.74
0.0161746191902512
% es.normE (V/m) @ t=0.76
1.6032785452848959
% es.EX (V/m) @ t=0.76
-1.1478026233175707
% es.EY (V/m) @ t=0.76
0.43711524987871053
% es.EZ (V/m) @ t=0.76
-1.0242360667885926
% es.tEX (V/m) @ t=0.76
-1.1478026233175687
% es.tEY (V/m) @ t=0.76
0
% es.tEZ (V/m) @ t=0.76
-1.024236066788582
% es.Ex (V/m) @ t=0.76
-1.1478026233175707
% es.Ey (V/m) @ t=0.76
0.43711524987871053
% es.Ez (V/m) @ t=0.76
-1.0242360667885926
% es.tEx (V/m) @ t=0.76
-1.1478026233175687
% es.tEy (V/m) @ t=0.76
0
% es.tEz (V/m) @ t=0.76
-1.024236066788582
% V (V) @ t=0.76
0.01631649642036479
% es.normE (V/m) @ t=0.78
1.6178488451244775
% es.EX (V/m) @ t=0.78
-1.1582337513231733
% es.EY (V/m) @ t=0.78
0.4410874429862788
% es.EZ (V/m) @ t=0.78
-1.0335441346699525
% es.tEX (V/m) @ t=0.78
-1.1582337513231709
% es.tEY (V/m) @ t=0.78
0
% es.tEZ (V/m) @ t=0.78
-1.0335441346699632
% es.Ex (V/m) @ t=0.78
-1.1582337513231733
% es.Ey (V/m) @ t=0.78
0.4410874429862788
% es.Ez (V/m) @ t=0.78
-1.0335441346699525
% es.tEx (V/m) @ t=0.78
-1.1582337513231709
% es.tEy (V/m) @ t=0.78
0
% es.tEz (V/m) @ t=0.78
-1.0335441346699632
% V (V) @ t=0.78
0.016464785878120024
% es.normE (V/m) @ t=0.8
1.6333292308949567
% es.EX (V/m) @ t=0.8
-1.1693163968644875
% es.EY (V/m) @ t=0.8
0.44530780619245647
% es.EZ (V/m) @ t=0.8
-1.043433600620018
% es.tEX (V/m) @ t=0.8
-1.169316396864489
% es.tEY (V/m) @ t=0.8
0
% es.tEZ (V/m) @ t=0.8
-1.0434336006200269
% es.Ex (V/m) @ t=0.8
-1.1693163968644875
% es.Ey (V/m) @ t=0.8
0.44530780619245647
% es.Ez (V/m) @ t=0.8
-1.043433600620018
% es.tEx (V/m) @ t=0.8
-1.169316396864489
% es.tEy (V/m) @ t=0.8
0
% es.tEz (V/m) @ t=0.8
-1.0434336006200269
% V (V) @ t=0.8
0.016622335617995556
% es.normE (V/m) @ t=0.82
1.6488096166655077
% es.EX (V/m) @ t=0.82
-1.1803990424058284
% es.EY (V/m) @ t=0.82
0.4495281693986257
% es.EZ (V/m) @ t=0.82
-1.0533230665701003
% es.tEX (V/m) @ t=0.82
-1.1803990424058202
% es.tEY (V/m) @ t=0.82
0
% es.tEZ (V/m) @ t=0.82
-1.0533230665701048
% es.Ex (V/m) @ t=0.82
-1.1803990424058284
% es.Ey (V/m) @ t=0.82
0.4495281693986257
% es.Ez (V/m) @ t=0.82
-1.0533230665701003
% es.tEx (V/m) @ t=0.82
-1.1803990424058202
% es.tEy (V/m) @ t=0.82
0
% es.tEz (V/m) @ t=0.82
-1.0533230665701048
% V (V) @ t=0.82
0.016779885357871088
% es.normE (V/m) @ t=0.84
1.6642900024360672
% es.EX (V/m) @ t=0.84
-1.191481687947136
% es.EY (V/m) @ t=0.84
0.45374853260479675
% es.EZ (V/m) @ t=0.84
-1.0632125325201738
% es.tEX (V/m) @ t=0.84
-1.1914816879471308
% es.tEY (V/m) @ t=0.84
0
% es.tEZ (V/m) @ t=0.84
-1.0632125325201898
% es.Ex (V/m) @ t=0.84
-1.191481687947136
% es.Ey (V/m) @ t=0.84
0.45374853260479675
% es.Ez (V/m) @ t=0.84
-1.0632125325201738
% es.tEx (V/m) @ t=0.84
-1.1914816879471308
% es.tEy (V/m) @ t=0.84
0
% es.tEz (V/m) @ t=0.84
-1.0632125325201898
% V (V) @ t=0.84
0.01693743509774662
% es.normE (V/m) @ t=0.86
1.67977038820669
% es.EX (V/m) @ t=0.86
-1.2025643334884626
% es.EY (V/m) @ t=0.86
0.45796889581094247
% es.EZ (V/m) @ t=0.86
-1.0731019984702757
% es.tEX (V/m) @ t=0.86
-1.2025643334884615
% es.tEY (V/m) @ t=0.86
0
% es.tEZ (V/m) @ t=0.86
-1.0731019984702819
% es.Ex (V/m) @ t=0.86
-1.2025643334884626
% es.Ey (V/m) @ t=0.86
0.45796889581094247
% es.Ez (V/m) @ t=0.86
-1.0731019984702757
% es.tEx (V/m) @ t=0.86
-1.2025643334884615
% es.tEy (V/m) @ t=0.86
0
% es.tEz (V/m) @ t=0.86
-1.0731019984702819
% V (V) @ t=0.86
0.017094984837622153
% es.normE (V/m) @ t=0.88
1.695250773977363
% es.EX (V/m) @ t=0.88
-1.2136469790297928
% es.EY (V/m) @ t=0.88
0.4621892590171135
% es.EZ (V/m) @ t=0.88
-1.0829914644203793
% es.tEX (V/m) @ t=0.88
-1.2136469790297864
% es.tEY (V/m) @ t=0.88
0
% es.tEZ (V/m) @ t=0.88
-1.0829914644203953
% es.Ex (V/m) @ t=0.88
-1.2136469790297928
% es.Ey (V/m) @ t=0.88
0.4621892590171135
% es.Ez (V/m) @ t=0.88
-1.0829914644203793
% es.tEx (V/m) @ t=0.88
-1.2136469790297864
% es.tEy (V/m) @ t=0.88
0
% es.tEz (V/m) @ t=0.88
-1.0829914644203953
% V (V) @ t=0.88
0.017252534577497685
% es.normE (V/m) @ t=0.9
1.7107311597480486
% es.EX (V/m) @ t=0.9
-1.2247296245711234
% es.EY (V/m) @ t=0.9
0.4664096222232663
% es.EZ (V/m) @ t=0.9
-1.0928809303704545
% es.tEX (V/m) @ t=0.9
-1.2247296245711174
% es.tEY (V/m) @ t=0.9
0
% es.tEZ (V/m) @ t=0.9
-1.092880930370459
% es.Ex (V/m) @ t=0.9
-1.2247296245711234
% es.Ey (V/m) @ t=0.9
0.4664096222232663
% es.Ez (V/m) @ t=0.9
-1.0928809303704545
% es.tEx (V/m) @ t=0.9
-1.2247296245711174
% es.tEy (V/m) @ t=0.9
0
% es.tEz (V/m) @ t=0.9
-1.092880930370459
% V (V) @ t=0.9
0.01741008431737322
% es.normE (V/m) @ t=0.92
1.7262115455187712
% es.EX (V/m) @ t=0.92
-1.2358122701124448
% es.EY (V/m) @ t=0.92
0.4706299854294391
% es.EZ (V/m) @ t=0.92
-1.102770396320536
% es.tEX (V/m) @ t=0.92
-1.235812270112449
% es.tEY (V/m) @ t=0.92
0
% es.tEZ (V/m) @ t=0.92
-1.102770396320544
% es.Ex (V/m) @ t=0.92
-1.2358122701124448
% es.Ey (V/m) @ t=0.92
0.4706299854294391
% es.Ez (V/m) @ t=0.92
-1.102770396320536
% es.tEx (V/m) @ t=0.92
-1.235812270112449
% es.tEy (V/m) @ t=0.92
0
% es.tEz (V/m) @ t=0.92
-1.102770396320544
% V (V) @ t=0.92
0.017567634057248753
% es.normE (V/m) @ t=0.94
1.741691931289529
% es.EX (V/m) @ t=0.94
-1.2468949156537572
% es.EY (V/m) @ t=0.94
0.47485034863559594
% es.EZ (V/m) @ t=0.94
-1.1126598622706325
% es.tEX (V/m) @ t=0.94
-1.246894915653749
% es.tEY (V/m) @ t=0.94
0
% es.tEZ (V/m) @ t=0.94
-1.1126598622706432
% es.Ex (V/m) @ t=0.94
-1.2468949156537572
% es.Ey (V/m) @ t=0.94
0.47485034863559594
% es.Ez (V/m) @ t=0.94
-1.1126598622706325
% es.tEx (V/m) @ t=0.94
-1.246894915653749
% es.tEy (V/m) @ t=0.94
0
% es.tEz (V/m) @ t=0.94
-1.1126598622706432
% V (V) @ t=0.94
0.017725183797124282
% es.normE (V/m) @ t=0.96
1.7571723170603222
% es.EX (V/m) @ t=0.96
-1.2579775611950994
% es.EY (V/m) @ t=0.96
0.47907071184176564
% es.EZ (V/m) @ t=0.96
-1.1225493282206953
% es.tEX (V/m) @ t=0.96
-1.2579775611950974
% es.tEY (V/m) @ t=0.96
0
% es.tEZ (V/m) @ t=0.96
-1.122549328220705
% es.Ex (V/m) @ t=0.96
-1.2579775611950994
% es.Ey (V/m) @ t=0.96
0.47907071184176564
% es.Ez (V/m) @ t=0.96
-1.1225493282206953
% es.tEx (V/m) @ t=0.96
-1.2579775611950974
% es.tEy (V/m) @ t=0.96
0
% es.tEz (V/m) @ t=0.96
-1.122549328220705
% V (V) @ t=0.96
0.017882733536999817
% es.normE (V/m) @ t=0.98
1.7726527028311367
% es.EX (V/m) @ t=0.98
-1.269060206736412
% es.EY (V/m) @ t=0.98
0.4832910750479167
% es.EZ (V/m) @ t=0.98
-1.1324387941707785
% es.tEX (V/m) @ t=0.98
-1.2690602067364107
% es.tEY (V/m) @ t=0.98
0
% es.tEZ (V/m) @ t=0.98
-1.132438794170783
% es.Ex (V/m) @ t=0.98
-1.269060206736412
% es.Ey (V/m) @ t=0.98
0.4832910750479167
% es.Ez (V/m) @ t=0.98
-1.1324387941707785
% es.tEx (V/m) @ t=0.98
-1.2690602067364107
% es.tEy (V/m) @ t=0.98
0
% es.tEz (V/m) @ t=0.98
-1.132438794170783
% V (V) @ t=0.98
0.018040283276875353
% es.normE (V/m) @ t=1
1.7881330886020108
% es.EX (V/m) @ t=1
-1.2801428522777354
% es.EY (V/m) @ t=1
0.48751143825410015
% es.EZ (V/m) @ t=1
-1.1423282601208795
% es.tEX (V/m) @ t=1
-1.2801428522777285
% es.tEY (V/m) @ t=1
0
% es.tEZ (V/m) @ t=1
-1.1423282601208964
% es.Ex (V/m) @ t=1
-1.2801428522777354
% es.Ey (V/m) @ t=1
0.48751143825410015
% es.Ez (V/m) @ t=1
-1.1423282601208795
% es.tEx (V/m) @ t=1
-1.2801428522777285
% es.tEy (V/m) @ t=1
0
% es.tEz (V/m) @ t=1
-1.1423282601208964
% V (V) @ t=1
0.018197833016750882
% es.normE (V/m) @ t=1.02
1.8036134743729266
% es.EX (V/m) @ t=1.02
-1.2912254978190834
% es.EY (V/m) @ t=1.02
0.4917318014602672
% es.EZ (V/m) @ t=1.02
-1.152217726070977
% es.tEX (V/m) @ t=1.02
-1.2912254978190743
% es.tEY (V/m) @ t=1.02
0
% es.tEZ (V/m) @ t=1.02
-1.1522177260709956
% es.Ex (V/m) @ t=1.02
-1.2912254978190834
% es.Ey (V/m) @ t=1.02
0.4917318014602672
% es.Ez (V/m) @ t=1.02
-1.152217726070977
% es.tEx (V/m) @ t=1.02
-1.2912254978190743
% es.tEy (V/m) @ t=1.02
0
% es.tEz (V/m) @ t=1.02
-1.1522177260709956
% V (V) @ t=1.02
0.018355382756626414
% es.normE (V/m) @ t=1.04
1.8194992325962154