% Model:              1 neuron.mph
% Version:            COMSOL 6.1.0.252
% Date:               Mar 27 2023, 14:35
% Dimension:          0
% Nodes:              14017
% Expressions:        14017
% Description:        Electric field norm, Electric field, X component, Electric field, Y component, Electric field, Z component, Tangential electric field, X component, Tangential electric field, Y component, Tangential electric field, Z component, Electric field, x component, Electric field, y component, Electric field, z component, Tangential electric field, x component, Tangential electric field, y component, Tangential electric field, z component, Electric potential
% Length unit:        mm
% x
1.0000000000000002
% y
12.2
% z
2
% es.normE (V/m) @ t=0
1.2585174227955593
% es.EX (V/m) @ t=0
0.8741767570334575
% es.EY (V/m) @ t=0
0.13089824021570157
% es.EZ (V/m) @ t=0
-0.8728997724488603
% es.tEX (V/m) @ t=0
0.8741767570334567
% es.tEY (V/m) @ t=0
0
% es.tEZ (V/m) @ t=0
-0.8728997724488421
% es.Ex (V/m) @ t=0
0.8741767570334575
% es.Ey (V/m) @ t=0
0.13089824021570157
% es.Ez (V/m) @ t=0
-0.8728997724488603
% es.tEx (V/m) @ t=0
0.8741767570334567
% es.tEy (V/m) @ t=0
0
% es.tEz (V/m) @ t=0
-0.8728997724488421
% V (V) @ t=0
0.01347705956453914
% es.normE (V/m) @ t=0.02
1.0869924010293557
% es.EX (V/m) @ t=0.02
0.7550340381652163
% es.EY (V/m) @ t=0.02
0.11305794457394253
% es.EZ (V/m) @ t=0.02
-0.7539310957084844
% es.tEX (V/m) @ t=0.02
0.7550340381652241
% es.tEY (V/m) @ t=0.02
0
% es.tEZ (V/m) @ t=0.02
-0.7539310957084702
% es.Ex (V/m) @ t=0.02
0.7550340381652163
% es.Ey (V/m) @ t=0.02
0.11305794457394253
% es.Ez (V/m) @ t=0.02
-0.7539310957084844
% es.tEx (V/m) @ t=0.02
0.7550340381652241
% es.tEy (V/m) @ t=0.02
0
% es.tEz (V/m) @ t=0.02
-0.7539310957084702
% V (V) @ t=0.02
0.011640253053019616
% es.normE (V/m) @ t=0.04
1.0969897835527582
% es.EX (V/m) @ t=0.04
0.7619783035414835
% es.EY (V/m) @ t=0.04
0.11409777213214961
% es.EZ (V/m) @ t=0.04
-0.7608652174156423
% es.tEX (V/m) @ t=0.04
0.761978303541484
% es.tEY (V/m) @ t=0.04
0
% es.tEZ (V/m) @ t=0.04
-0.7608652174156312
% es.Ex (V/m) @ t=0.04
0.7619783035414835
% es.Ey (V/m) @ t=0.04
0.11409777213214961
% es.Ez (V/m) @ t=0.04
-0.7608652174156423
% es.tEx (V/m) @ t=0.04
0.761978303541484
% es.tEy (V/m) @ t=0.04
0
% es.tEz (V/m) @ t=0.04
-0.7608652174156312
% V (V) @ t=0.04
0.01174731171058732
% es.normE (V/m) @ t=0.06
1.107062716901991
% es.EX (V/m) @ t=0.06
0.7689750480012125
% es.EY (V/m) @ t=0.06
0.11514545532241166
% es.EZ (V/m) @ t=0.06
-0.7678517406146819
% es.tEX (V/m) @ t=0.06
0.7689750480012183
% es.tEY (V/m) @ t=0.06
0
% es.tEZ (V/m) @ t=0.06
-0.7678517406146712
% es.Ex (V/m) @ t=0.06
0.7689750480012125
% es.Ey (V/m) @ t=0.06
0.11514545532241166
% es.Ez (V/m) @ t=0.06
-0.7678517406146819
% es.tEx (V/m) @ t=0.06
0.7689750480012183
% es.tEy (V/m) @ t=0.06
0
% es.tEz (V/m) @ t=0.06
-0.7678517406146712
% V (V) @ t=0.06
0.011855179661427528
% es.normE (V/m) @ t=0.08
1.117322841214448
% es.EX (V/m) @ t=0.08
0.7761018165596145
% es.EY (V/m) @ t=0.08
0.11621260913129977
% es.EZ (V/m) @ t=0.08
-0.7749680983149632
% es.tEX (V/m) @ t=0.08
0.776101816559617
% es.tEY (V/m) @ t=0.08
0
% es.tEZ (V/m) @ t=0.08
-0.7749680983149556
% es.Ex (V/m) @ t=0.08
0.7761018165596145
% es.Ey (V/m) @ t=0.08
0.11621260913129977
% es.Ez (V/m) @ t=0.08
-0.7749680983149632
% es.tEx (V/m) @ t=0.08
0.776101816559617
% es.tEy (V/m) @ t=0.08
0
% es.tEz (V/m) @ t=0.08
-0.7749680983149556
% V (V) @ t=0.08
0.01196505208798269
% es.normE (V/m) @ t=0.1
1.1276432842473167
% es.EX (V/m) @ t=0.1
0.7832704829058046
% es.EY (V/m) @ t=0.1
0.1172860369759679
% es.EZ (V/m) @ t=0.1
-0.7821262927088806
% es.tEX (V/m) @ t=0.1
0.7832704829058064
% es.tEY (V/m) @ t=0.1
0
% es.tEZ (V/m) @ t=0.1
-0.7821262927088695
% es.Ex (V/m) @ t=0.1
0.7832704829058046
% es.Ey (V/m) @ t=0.1
0.1172860369759679
% es.Ez (V/m) @ t=0.1
-0.7821262927088806
% es.tEx (V/m) @ t=0.1
0.7832704829058064
% es.tEy (V/m) @ t=0.1
0
% es.tEz (V/m) @ t=0.1
-0.7821262927088695
% V (V) @ t=0.1
0.012075570418635643
% es.normE (V/m) @ t=0.12
1.1379637272801897
% es.EX (V/m) @ t=0.12
0.7904391492520058
% es.EY (V/m) @ t=0.12
0.11835946482064269
% es.EZ (V/m) @ t=0.12
-0.7892844871028006
% es.tEX (V/m) @ t=0.12
0.7904391492520046
% es.tEY (V/m) @ t=0.12
0
% es.tEZ (V/m) @ t=0.12
-0.7892844871027895
% es.Ex (V/m) @ t=0.12
0.7904391492520058
% es.Ey (V/m) @ t=0.12
0.11835946482064269
% es.Ez (V/m) @ t=0.12
-0.7892844871028006
% es.tEx (V/m) @ t=0.12
0.7904391492520046
% es.tEy (V/m) @ t=0.12
0
% es.tEz (V/m) @ t=0.12
-0.7892844871027895
% V (V) @ t=0.12
0.01218608874928859
% es.normE (V/m) @ t=0.14
1.148556784541403
% es.EX (V/m) @ t=0.14
0.7977971756635267
% es.EY (V/m) @ t=0.14
0.11946124739661279
% es.EZ (V/m) @ t=0.14
-0.7966317650259058
% es.tEX (V/m) @ t=0.14
0.7977971756635283
% es.tEY (V/m) @ t=0.14
0
% es.tEZ (V/m) @ t=0.14
-0.7966317650258947
% es.Ex (V/m) @ t=0.14
0.7977971756635267
% es.Ey (V/m) @ t=0.14
0.11946124739661279
% es.Ez (V/m) @ t=0.14
-0.7966317650259058
% es.tEx (V/m) @ t=0.14
0.7977971756635283
% es.tEy (V/m) @ t=0.14
0
% es.tEz (V/m) @ t=0.14
-0.7966317650258947
% V (V) @ t=0.14
0.012299526401776555
% es.normE (V/m) @ t=0.16
1.1593994066879487
% es.EX (V/m) @ t=0.16
0.8053285518788318
% es.EY (V/m) @ t=0.16
0.12058898733114026
% es.EZ (V/m) @ t=0.16
-0.804152139597571
% es.tEX (V/m) @ t=0.16
0.805328551878834
% es.tEY (V/m) @ t=0.16
0
% es.tEZ (V/m) @ t=0.16
-0.8041521395975604
% es.Ex (V/m) @ t=0.16
0.8053285518788318
% es.Ey (V/m) @ t=0.16
0.12058898733114026
% es.Ez (V/m) @ t=0.16
-0.804152139597571
% es.tEx (V/m) @ t=0.16
0.805328551878834
% es.tEy (V/m) @ t=0.16
0
% es.tEz (V/m) @ t=0.16
-0.8041521395975604
% V (V) @ t=0.16
0.012415636549472886
% es.normE (V/m) @ t=0.18
1.1702420288344983
% es.EX (V/m) @ t=0.18
0.8128599280941335
% es.EY (V/m) @ t=0.18
0.12171672726565874
% es.EZ (V/m) @ t=0.18
-0.8116725141692505
% es.tEX (V/m) @ t=0.18
0.8128599280941389
% es.tEY (V/m) @ t=0.18
0
% es.tEZ (V/m) @ t=0.18
-0.8116725141692323
% es.Ex (V/m) @ t=0.18
0.8128599280941335
% es.Ey (V/m) @ t=0.18
0.12171672726565874
% es.Ez (V/m) @ t=0.18
-0.8116725141692505
% es.tEx (V/m) @ t=0.18
0.8128599280941389
% es.tEy (V/m) @ t=0.18
0
% es.tEz (V/m) @ t=0.18
-0.8116725141692323
% V (V) @ t=0.18
0.01253174669716922
% es.normE (V/m) @ t=0.2
1.1810846509810506
% es.EX (V/m) @ t=0.2
0.8203913043094428
% es.EY (V/m) @ t=0.2
0.12284446720017556
% es.EZ (V/m) @ t=0.2
-0.8191928887409228
% es.tEX (V/m) @ t=0.2
0.8203913043094442
% es.tEY (V/m) @ t=0.2
0
% es.tEZ (V/m) @ t=0.2
-0.819192888740905
% es.Ex (V/m) @ t=0.2
0.8203913043094428
% es.Ey (V/m) @ t=0.2
0.12284446720017556
% es.Ez (V/m) @ t=0.2
-0.8191928887409228
% es.tEx (V/m) @ t=0.2
0.8203913043094442
% es.tEy (V/m) @ t=0.2
0
% es.tEz (V/m) @ t=0.2
-0.819192888740905
% V (V) @ t=0.2
0.012647856844865552
% es.normE (V/m) @ t=0.22
1.1919272731276074
% es.EX (V/m) @ t=0.22
0.8279226805247479
% es.EY (V/m) @ t=0.22
0.12397220713471307
% es.EZ (V/m) @ t=0.22
-0.8267132633126093
% es.tEX (V/m) @ t=0.22
0.8279226805247575
% es.tEY (V/m) @ t=0.22
0
% es.tEZ (V/m) @ t=0.22
-0.8267132633125982
% es.Ex (V/m) @ t=0.22
0.8279226805247479
% es.Ey (V/m) @ t=0.22
0.12397220713471307
% es.Ez (V/m) @ t=0.22
-0.8267132633126093
% es.tEx (V/m) @ t=0.22
0.8279226805247575
% es.tEy (V/m) @ t=0.22
0
% es.tEz (V/m) @ t=0.22
-0.8267132633125982
% V (V) @ t=0.22
0.01276396699256188
% es.normE (V/m) @ t=0.24
1.2027698952741472
% es.EX (V/m) @ t=0.24
0.8354540567400528
% es.EY (V/m) @ t=0.24
0.12509994706921745
% es.EZ (V/m) @ t=0.24
-0.8342336378842741
% es.tEX (V/m) @ t=0.24
0.8354540567400601
% es.tEY (V/m) @ t=0.24
0
% es.tEZ (V/m) @ t=0.24
-0.834233637884263
% es.Ex (V/m) @ t=0.24
0.8354540567400528
% es.Ey (V/m) @ t=0.24
0.12509994706921745
% es.Ez (V/m) @ t=0.24
-0.8342336378842741
% es.tEx (V/m) @ t=0.24
0.8354540567400601
% es.tEy (V/m) @ t=0.24
0
% es.tEz (V/m) @ t=0.24
-0.834233637884263
% V (V) @ t=0.24
0.012880077140258211
% es.normE (V/m) @ t=0.26
1.2136751209861496
% es.EX (V/m) @ t=0.26
0.8430289187611961
% es.EY (V/m) @ t=0.26
0.12623419608436692
% es.EZ (V/m) @ t=0.26
-0.8417974337793628
% es.tEX (V/m) @ t=0.26
0.8430289187612012
% es.tEY (V/m) @ t=0.26
0
% es.tEZ (V/m) @ t=0.26
-0.8417974337793446
% es.Ex (V/m) @ t=0.26
0.8430289187611961
% es.Ey (V/m) @ t=0.26
0.12623419608436692
% es.Ez (V/m) @ t=0.26
-0.8417974337793628
% es.tEx (V/m) @ t=0.26
0.8430289187612012
% es.tEy (V/m) @ t=0.26
0
% es.tEz (V/m) @ t=0.26
-0.8417974337793446
% V (V) @ t=0.26
0.01299685792593024
% es.normE (V/m) @ t=0.28
1.225685372457114
% es.EX (V/m) @ t=0.28
0.8513713558439673
% es.EY (V/m) @ t=0.28
0.12748333794493294
% es.EZ (V/m) @ t=0.28
-0.8501276665460411
% es.tEX (V/m) @ t=0.28
0.8513713558439742
% es.tEY (V/m) @ t=0.28
0
% es.tEZ (V/m) @ t=0.28
-0.850127666546034
% es.Ex (V/m) @ t=0.28
0.8513713558439673
% es.Ey (V/m) @ t=0.28
0.12748333794493294
% es.Ez (V/m) @ t=0.28
-0.8501276665460411
% es.tEx (V/m) @ t=0.28
0.8513713558439742
% es.tEy (V/m) @ t=0.28
0
% es.tEz (V/m) @ t=0.28
-0.850127666546034
% V (V) @ t=0.28
0.0131254762520495
% es.normE (V/m) @ t=0.3
1.2376956239280814
% es.EX (V/m) @ t=0.3
0.8597137929267358
% es.EY (V/m) @ t=0.3
0.12873247980550556
% es.EZ (V/m) @ t=0.3
-0.8584578993127225
% es.tEX (V/m) @ t=0.3
0.8597137929267404
% es.tEY (V/m) @ t=0.3
0
% es.tEZ (V/m) @ t=0.3
-0.8584578993127083
% es.Ex (V/m) @ t=0.3
0.8597137929267358
% es.Ey (V/m) @ t=0.3
0.12873247980550556
% es.Ez (V/m) @ t=0.3
-0.8584578993127225
% es.tEx (V/m) @ t=0.3
0.8597137929267404
% es.tEy (V/m) @ t=0.3
0
% es.tEz (V/m) @ t=0.3
-0.8584578993127083
% V (V) @ t=0.3
0.013254094578168759
% es.normE (V/m) @ t=0.32
1.2497058753990475
% es.EX (V/m) @ t=0.32
0.8680562300095034
% es.EY (V/m) @ t=0.32
0.12998162166607158
% es.EZ (V/m) @ t=0.32
-0.8667881320793973
% es.tEX (V/m) @ t=0.32
0.8680562300095027
% es.tEY (V/m) @ t=0.32
0
% es.tEZ (V/m) @ t=0.32
-0.8667881320793898
% es.Ex (V/m) @ t=0.32
0.8680562300095034
% es.Ey (V/m) @ t=0.32
0.12998162166607158
% es.Ez (V/m) @ t=0.32
-0.8667881320793973
% es.tEx (V/m) @ t=0.32
0.8680562300095027
% es.tEy (V/m) @ t=0.32
0
% es.tEz (V/m) @ t=0.32
-0.8667881320793898
% V (V) @ t=0.32
0.01338271290428802
% es.normE (V/m) @ t=0.34
1.261716126870026
% es.EX (V/m) @ t=0.34
0.8763986670922783
% es.EY (V/m) @ t=0.34
0.13123076352662894
% es.EZ (V/m) @ t=0.34
-0.8751183648460823
% es.tEX (V/m) @ t=0.34
0.8763986670922828
% es.tEY (V/m) @ t=0.34
0
% es.tEZ (V/m) @ t=0.34
-0.8751183648460641
% es.Ex (V/m) @ t=0.34
0.8763986670922783
% es.Ey (V/m) @ t=0.34
0.13123076352662894
% es.Ez (V/m) @ t=0.34
-0.8751183648460823
% es.tEx (V/m) @ t=0.34
0.8763986670922828
% es.tEy (V/m) @ t=0.34
0
% es.tEz (V/m) @ t=0.34
-0.8751183648460641
% V (V) @ t=0.34
0.01351133123040728
% es.normE (V/m) @ t=0.36
1.2737263783409882
% es.EX (V/m) @ t=0.36
0.884741104175033
% es.EY (V/m) @ t=0.36
0.1324799053871834
% es.EZ (V/m) @ t=0.36
-0.8834485976127575
% es.tEX (V/m) @ t=0.36
0.8847411041750415
% es.tEY (V/m) @ t=0.36
0
% es.tEZ (V/m) @ t=0.36
-0.8834485976127464
% es.Ex (V/m) @ t=0.36
0.884741104175033
% es.Ey (V/m) @ t=0.36
0.1324799053871834
% es.Ez (V/m) @ t=0.36
-0.8834485976127575
% es.tEx (V/m) @ t=0.36
0.8847411041750415
% es.tEy (V/m) @ t=0.36
0
% es.tEz (V/m) @ t=0.36
-0.8834485976127464
% V (V) @ t=0.36
0.013639949556526542
% es.normE (V/m) @ t=0.38
1.285736629811981
% es.EX (V/m) @ t=0.38
0.893083541257816
% es.EY (V/m) @ t=0.38
0.13372904724776113
% es.EZ (V/m) @ t=0.38
-0.891778830379446
% es.tEX (V/m) @ t=0.38
0.8930835412578193
% es.tEY (V/m) @ t=0.38
0
% es.tEZ (V/m) @ t=0.38
-0.8917788303794278
% es.Ex (V/m) @ t=0.38
0.893083541257816
% es.Ey (V/m) @ t=0.38
0.13372904724776113
% es.Ez (V/m) @ t=0.38
-0.891778830379446
% es.tEx (V/m) @ t=0.38
0.8930835412578193
% es.tEy (V/m) @ t=0.38
0
% es.tEz (V/m) @ t=0.38
-0.8917788303794278
% V (V) @ t=0.38
0.013768567882645803
% es.normE (V/m) @ t=0.4
1.2977468812829553
% es.EX (V/m) @ t=0.4
0.901425978340576
% es.EY (V/m) @ t=0.4
0.1349781891083227
% es.EZ (V/m) @ t=0.4
-0.900109063146131
% es.tEX (V/m) @ t=0.4
0.9014259783405878
% es.tEY (V/m) @ t=0.4
0
% es.tEZ (V/m) @ t=0.4
-0.9001090631461164
% es.Ex (V/m) @ t=0.4
0.901425978340576
% es.Ey (V/m) @ t=0.4
0.1349781891083227
% es.Ez (V/m) @ t=0.4
-0.900109063146131
% es.tEx (V/m) @ t=0.4
0.9014259783405878
% es.tEy (V/m) @ t=0.4
0
% es.tEz (V/m) @ t=0.4
-0.9001090631461164
% V (V) @ t=0.4
0.013897186208765063
% es.normE (V/m) @ t=0.42
1.3097571327539335
% es.EX (V/m) @ t=0.42
0.9097684154233479
% es.EY (V/m) @ t=0.42
0.1362273309688708
% es.EZ (V/m) @ t=0.42
-0.9084392959128036
% es.tEX (V/m) @ t=0.42
0.9097684154233505
% es.tEY (V/m) @ t=0.42
0
% es.tEZ (V/m) @ t=0.42
-0.9084392959127854
% es.Ex (V/m) @ t=0.42
0.9097684154233479
% es.Ey (V/m) @ t=0.42
0.1362273309688708
% es.Ez (V/m) @ t=0.42
-0.9084392959128036
% es.tEx (V/m) @ t=0.42
0.9097684154233505
% es.tEy (V/m) @ t=0.42
0
% es.tEz (V/m) @ t=0.42
-0.9084392959127854
% V (V) @ t=0.42
0.014025804534884322
% es.normE (V/m) @ t=0.44
1.32176738422492
% es.EX (V/m) @ t=0.44
0.9181108525061183
% es.EY (V/m) @ t=0.44
0.13747647282944592
% es.EZ (V/m) @ t=0.44
-0.916769528679485
% es.tEX (V/m) @ t=0.44
0.9181108525061195
% es.tEY (V/m) @ t=0.44
0
% es.tEZ (V/m) @ t=0.44
-0.9167695286794668
% es.Ex (V/m) @ t=0.44
0.9181108525061183
% es.Ey (V/m) @ t=0.44
0.13747647282944592
% es.Ez (V/m) @ t=0.44
-0.916769528679485
% es.tEx (V/m) @ t=0.44
0.9181108525061195
% es.tEy (V/m) @ t=0.44
0
% es.tEz (V/m) @ t=0.44
-0.9167695286794668
% V (V) @ t=0.44
0.014154422861003586
% es.normE (V/m) @ t=0.46
1.3337776356958946
% es.EX (V/m) @ t=0.46
0.9264532895888806
% es.EY (V/m) @ t=0.46
0.1387256146900004
% es.EZ (V/m) @ t=0.46
-0.9250997614461594
% es.tEX (V/m) @ t=0.46
0.9264532895888853
% es.tEY (V/m) @ t=0.46
0
% es.tEZ (V/m) @ t=0.46
-0.9250997614461411
% es.Ex (V/m) @ t=0.46
0.9264532895888806
% es.Ey (V/m) @ t=0.46
0.1387256146900004
% es.Ez (V/m) @ t=0.46
-0.9250997614461594
% es.tEx (V/m) @ t=0.46
0.9264532895888853
% es.tEy (V/m) @ t=0.46
0
% es.tEz (V/m) @ t=0.46
-0.9250997614461411
% V (V) @ t=0.46
0.014283041187122848
% es.normE (V/m) @ t=0.48
1.3457878871668796
% es.EX (V/m) @ t=0.48
0.9347957266716531
% es.EY (V/m) @ t=0.48
0.1399747565505648
% es.EZ (V/m) @ t=0.48
-0.9334299942128337
% es.tEX (V/m) @ t=0.48
0.9347957266716551
% es.tEY (V/m) @ t=0.48
0
% es.tEZ (V/m) @ t=0.48
-0.9334299942128226
% es.Ex (V/m) @ t=0.48
0.9347957266716531
% es.Ey (V/m) @ t=0.48
0.1399747565505648
% es.Ez (V/m) @ t=0.48
-0.9334299942128337
% es.tEx (V/m) @ t=0.48
0.9347957266716551
% es.tEy (V/m) @ t=0.48
0
% es.tEz (V/m) @ t=0.48
-0.9334299942128226
% V (V) @ t=0.48
0.014411659513242109
% es.normE (V/m) @ t=0.5
1.3577981386378655
% es.EX (V/m) @ t=0.5
0.9431381637544167
% es.EY (V/m) @ t=0.5
0.14122389841112282
% es.EZ (V/m) @ t=0.5
-0.941760226979516
% es.tEX (V/m) @ t=0.5
0.9431381637544138
% es.tEY (V/m) @ t=0.5
0
% es.tEZ (V/m) @ t=0.5
-0.9417602269795049
% es.Ex (V/m) @ t=0.5
0.9431381637544167
% es.Ey (V/m) @ t=0.5
0.14122389841112282
% es.Ez (V/m) @ t=0.5
-0.941760226979516
% es.tEx (V/m) @ t=0.5
0.9431381637544138
% es.tEy (V/m) @ t=0.5
0
% es.tEz (V/m) @ t=0.5
-0.9417602269795049
% V (V) @ t=0.5
0.01454027783936137
% es.normE (V/m) @ t=0.52
1.3699617750173
% es.EX (V/m) @ t=0.52
0.9515871420185757
% es.EY (V/m) @ t=0.52
0.14248899727028852
% es.EZ (V/m) @ t=0.52
-0.9501968467274193
% es.tEX (V/m) @ t=0.52
0.9515871420185822
% es.tEY (V/m) @ t=0.52
0
% es.tEZ (V/m) @ t=0.52
-0.9501968467274011
% es.Ex (V/m) @ t=0.52
0.9515871420185757
% es.Ey (V/m) @ t=0.52
0.14248899727028852
% es.Ez (V/m) @ t=0.52
-0.9501968467274193
% es.tEx (V/m) @ t=0.52
0.9515871420185822
% es.tEy (V/m) @ t=0.52
0
% es.tEz (V/m) @ t=0.52
-0.9501968467274011
% V (V) @ t=0.52
0.014670538361561593
% es.normE (V/m) @ t=0.54
1.3832862977490359
% es.EX (V/m) @ t=0.54
0.9608424721246067
% es.EY (V/m) @ t=0.54
0.1438748659110442
% es.EZ (V/m) @ t=0.54
-0.9594386512605468
% es.tEX (V/m) @ t=0.54
0.9608424721246092
% es.tEY (V/m) @ t=0.54
0
% es.tEZ (V/m) @ t=0.54
-0.9594386512605286
% es.Ex (V/m) @ t=0.54
0.9608424721246067
% es.Ey (V/m) @ t=0.54
0.1438748659110442
% es.Ez (V/m) @ t=0.54
-0.9594386512605468
% es.tEx (V/m) @ t=0.54
0.9608424721246092
% es.tEy (V/m) @ t=0.54
0
% es.tEz (V/m) @ t=0.54
-0.9594386512605286
% V (V) @ t=0.54
0.01481322776635335
% es.normE (V/m) @ t=0.56
1.3966108204807783
% es.EX (V/m) @ t=0.56
0.9700978022306408
% es.EY (V/m) @ t=0.56
0.14526073455178318
% es.EZ (V/m) @ t=0.56
-0.9686804557936806
% es.tEX (V/m) @ t=0.56
0.9700978022306463
% es.tEY (V/m) @ t=0.56
0
% es.tEZ (V/m) @ t=0.56
-0.9686804557936624
% es.Ex (V/m) @ t=0.56
0.9700978022306408
% es.Ey (V/m) @ t=0.56
0.14526073455178318
% es.Ez (V/m) @ t=0.56
-0.9686804557936806
% es.tEx (V/m) @ t=0.56
0.9700978022306463
% es.tEy (V/m) @ t=0.56
0
% es.tEz (V/m) @ t=0.56
-0.9686804557936624
% V (V) @ t=0.56
0.014955917171145115
% es.normE (V/m) @ t=0.58
1.409935343212513
% es.EX (V/m) @ t=0.58
0.9793531323366709
% es.EY (V/m) @ t=0.58
0.14664660319256706
% es.EZ (V/m) @ t=0.58
-0.9779222603268019
% es.tEX (V/m) @ t=0.58
0.9793531323366738
% es.tEY (V/m) @ t=0.58
0
% es.tEZ (V/m) @ t=0.58
-0.9779222603267836
% es.Ex (V/m) @ t=0.58
0.9793531323366709
% es.Ey (V/m) @ t=0.58
0.14664660319256706
% es.Ez (V/m) @ t=0.58
-0.9779222603268019
% es.tEx (V/m) @ t=0.58
0.9793531323366738
% es.tEy (V/m) @ t=0.58
0
% es.tEz (V/m) @ t=0.58
-0.9779222603267836
% V (V) @ t=0.58
0.015098606575936873
% es.normE (V/m) @ t=0.6
1.4232598659442628
% es.EX (V/m) @ t=0.6
0.9886084624427005
% es.EY (V/m) @ t=0.6
0.14803247183329782
% es.EZ (V/m) @ t=0.6
-0.9871640648599498
% es.tEX (V/m) @ t=0.6
0.9886084624427061
% es.tEY (V/m) @ t=0.6
0
% es.tEZ (V/m) @ t=0.6
-0.9871640648599316
% es.Ex (V/m) @ t=0.6
0.9886084624427005
% es.Ey (V/m) @ t=0.6
0.14803247183329782
% es.Ez (V/m) @ t=0.6
-0.9871640648599498
% es.tEx (V/m) @ t=0.6
0.9886084624427061
% es.tEy (V/m) @ t=0.6
0
% es.tEz (V/m) @ t=0.6
-0.9871640648599316
% V (V) @ t=0.6
0.015241295980728637
% es.normE (V/m) @ t=0.62
1.4365843886759886
% es.EX (V/m) @ t=0.62
0.9978637925487293
% es.EY (V/m) @ t=0.62
0.1494183404740529
% es.EZ (V/m) @ t=0.62
-0.9964058693930622
% es.tEX (V/m) @ t=0.62
0.9978637925487313
% es.tEY (V/m) @ t=0.62
0
% es.tEZ (V/m) @ t=0.62
-0.996405869393044
% es.Ex (V/m) @ t=0.62
0.9978637925487293
% es.Ey (V/m) @ t=0.62
0.1494183404740529
% es.Ez (V/m) @ t=0.62
-0.9964058693930622
% es.tEx (V/m) @ t=0.62
0.9978637925487313
% es.tEy (V/m) @ t=0.62
0
% es.tEz (V/m) @ t=0.62
-0.996405869393044
% V (V) @ t=0.62
0.015383985385520396
% es.normE (V/m) @ t=0.64
1.4499089114077421
% es.EX (V/m) @ t=0.64
1.0071191226547682
% es.EY (V/m) @ t=0.64
0.15080420911482262
% es.EZ (V/m) @ t=0.64
-1.0056476739262048
% es.tEX (V/m) @ t=0.64
1.0071191226547738
% es.tEY (V/m) @ t=0.64
0
% es.tEZ (V/m) @ t=0.64
-1.0056476739261866
% es.Ex (V/m) @ t=0.64
1.0071191226547682
% es.Ey (V/m) @ t=0.64
0.15080420911482262
% es.Ez (V/m) @ t=0.64
-1.0056476739262048
% es.tEx (V/m) @ t=0.64
1.0071191226547738
% es.tEy (V/m) @ t=0.64
0
% es.tEz (V/m) @ t=0.64
-1.0056476739261866
% V (V) @ t=0.64
0.015526674790312157
% es.normE (V/m) @ t=0.66
1.4632334341394948
% es.EX (V/m) @ t=0.66
1.0163744527607956
% es.EY (V/m) @ t=0.66
0.1521900777555653
% es.EZ (V/m) @ t=0.66
-1.0148894784593598
% es.tEX (V/m) @ t=0.66
1.016374452760794
% es.tEY (V/m) @ t=0.66
0
% es.tEZ (V/m) @ t=0.66
-1.0148894784593345
% es.Ex (V/m) @ t=0.66
1.0163744527607956
% es.Ey (V/m) @ t=0.66
0.1521900777555653
% es.Ez (V/m) @ t=0.66
-1.0148894784593598
% es.tEx (V/m) @ t=0.66
1.016374452760794
% es.tEy (V/m) @ t=0.66
0
% es.tEz (V/m) @ t=0.66
-1.0148894784593345
% V (V) @ t=0.66
0.015669364195103917
% es.normE (V/m) @ t=0.68
1.476557956871233
% es.EX (V/m) @ t=0.68
1.0256297828668293
% es.EY (V/m) @ t=0.68
0.15357594639631467
% es.EZ (V/m) @ t=0.68
-1.02413128299249
% es.tEX (V/m) @ t=0.68
1.0256297828668277
% es.tEY (V/m) @ t=0.68
0
% es.tEZ (V/m) @ t=0.68
-1.0241312829924683
% es.Ex (V/m) @ t=0.68
1.0256297828668293
% es.Ey (V/m) @ t=0.68
0.15357594639631467
% es.Ez (V/m) @ t=0.68
-1.02413128299249
% es.tEx (V/m) @ t=0.68
1.0256297828668277
% es.tEy (V/m) @ t=0.68
0
% es.tEz (V/m) @ t=0.68
-1.0241312829924683
% V (V) @ t=0.68
0.015812053599895685
% es.normE (V/m) @ t=0.7
1.4898824796029797
% es.EX (V/m) @ t=0.7
1.0348851129728593
% es.EY (V/m) @ t=0.7
0.1549618150370864
% es.EZ (V/m) @ t=0.7
-1.0333730875256255
% es.tEX (V/m) @ t=0.7
1.0348851129728613
% es.tEY (V/m) @ t=0.7
0
% es.tEZ (V/m) @ t=0.7
-1.0333730875256038
% es.Ex (V/m) @ t=0.7
1.0348851129728593
% es.Ey (V/m) @ t=0.7
0.1549618150370864
% es.Ez (V/m) @ t=0.7
-1.0333730875256255
% es.tEx (V/m) @ t=0.7
1.0348851129728613
% es.tEy (V/m) @ t=0.7
0
% es.tEz (V/m) @ t=0.7
-1.0333730875256038
% V (V) @ t=0.7
0.015954743004687445
% es.normE (V/m) @ t=0.72
1.5032070023347197
% es.EX (V/m) @ t=0.72
1.0441404430788903
% es.EY (V/m) @ t=0.72
0.15634768367782098
% es.EZ (V/m) @ t=0.72
-1.0426148920587677
% es.tEX (V/m) @ t=0.72
1.0441404430788959
% es.tEY (V/m) @ t=0.72
0
% es.tEZ (V/m) @ t=0.72
-1.0426148920587384
% es.Ex (V/m) @ t=0.72
1.0441404430788903
% es.Ey (V/m) @ t=0.72
0.15634768367782098
% es.Ez (V/m) @ t=0.72
-1.0426148920587677
% es.tEx (V/m) @ t=0.72
1.0441404430788959
% es.tEy (V/m) @ t=0.72
0
% es.tEz (V/m) @ t=0.72
-1.0426148920587384
% V (V) @ t=0.72
0.0160974324094792
% es.normE (V/m) @ t=0.74
1.5165315250664713
% es.EX (V/m) @ t=0.74
1.0533957731849302
% es.EY (V/m) @ t=0.74
0.1577335523185866
% es.EZ (V/m) @ t=0.74
-1.0518566965919018
% es.tEX (V/m) @ t=0.74
1.0533957731849322
% es.tEY (V/m) @ t=0.74
0
% es.tEZ (V/m) @ t=0.74
-1.05185669659188
% es.Ex (V/m) @ t=0.74
1.0533957731849302
% es.Ey (V/m) @ t=0.74
0.1577335523185866
% es.Ez (V/m) @ t=0.74
-1.0518566965919018
% es.tEx (V/m) @ t=0.74
1.0533957731849322
% es.tEy (V/m) @ t=0.74
0
% es.tEz (V/m) @ t=0.74
-1.05185669659188
% V (V) @ t=0.74
0.016240121814270963
% es.normE (V/m) @ t=0.76
1.5298560477982097
% es.EX (V/m) @ t=0.76
1.0626511032909571
% es.EY (V/m) @ t=0.76
0.15911942095933623
% es.EZ (V/m) @ t=0.76
-1.0610985011250285
% es.tEX (V/m) @ t=0.76
1.0626511032909618
% es.tEY (V/m) @ t=0.76
0
% es.tEZ (V/m) @ t=0.76
-1.0610985011250067
% es.Ex (V/m) @ t=0.76
1.0626511032909571
% es.Ey (V/m) @ t=0.76
0.15911942095933623
% es.Ez (V/m) @ t=0.76
-1.0610985011250285
% es.tEx (V/m) @ t=0.76
1.0626511032909618
% es.tEy (V/m) @ t=0.76
0
% es.tEz (V/m) @ t=0.76
-1.0610985011250067
% V (V) @ t=0.76
0.016382811219062723
% es.normE (V/m) @ t=0.78
1.5434470989945468
% es.EX (V/m) @ t=0.78
1.0720915651411707
% es.EY (V/m) @ t=0.78
0.16053301437369322
% es.EZ (V/m) @ t=0.78
-1.0705251682845378
% es.tEX (V/m) @ t=0.78
1.0720915651411764
% es.tEY (V/m) @ t=0.78
0
% es.tEZ (V/m) @ t=0.78
-1.070525168284509
% es.Ex (V/m) @ t=0.78
1.0720915651411707
% es.Ey (V/m) @ t=0.78
0.16053301437369322
% es.Ez (V/m) @ t=0.78
-1.0705251682845378
% es.tEx (V/m) @ t=0.78
1.0720915651411764
% es.tEy (V/m) @ t=0.78
0
% es.tEz (V/m) @ t=0.78
-1.070525168284509
% V (V) @ t=0.78
0.016528354465890637
% es.normE (V/m) @ t=0.8
1.5582539954666013
% es.EX (V/m) @ t=0.8
1.08237655801321
% es.EY (V/m) @ t=0.8
0.16207308221565242
% es.EZ (V/m) @ t=0.8
-1.0807951388085866
% es.tEX (V/m) @ t=0.8
1.0823765580132187
% es.tEY (V/m) @ t=0.8
0
% es.tEZ (V/m) @ t=0.8
-1.0807951388085648
% es.Ex (V/m) @ t=0.8
1.08237655801321
% es.Ey (V/m) @ t=0.8
0.16207308221565242
% es.Ez (V/m) @ t=0.8
-1.0807951388085866
% es.tEx (V/m) @ t=0.8
1.0823765580132187
% es.tEy (V/m) @ t=0.8
0
% es.tEz (V/m) @ t=0.8
-1.0807951388085648
% V (V) @ t=0.8
0.01668691632355429
% es.normE (V/m) @ t=0.82
1.5730608919386633
% es.EX (V/m) @ t=0.82
1.092661550885244
% es.EY (V/m) @ t=0.82
0.16361315005759558
% es.EZ (V/m) @ t=0.82
-1.0910651093326424
% es.tEX (V/m) @ t=0.82
1.092661550885246
% es.tEY (V/m) @ t=0.82
0
% es.tEZ (V/m) @ t=0.82
-1.0910651093326136
% es.Ex (V/m) @ t=0.82
1.092661550885244
% es.Ey (V/m) @ t=0.82
0.16361315005759558
% es.Ez (V/m) @ t=0.82
-1.0910651093326424
% es.tEx (V/m) @ t=0.82
1.092661550885246
% es.tEy (V/m) @ t=0.82
0
% es.tEz (V/m) @ t=0.82
-1.0910651093326136
% V (V) @ t=0.82
0.01684547818121795
% es.normE (V/m) @ t=0.84
1.5878677884107295
% es.EX (V/m) @ t=0.84
1.1029465437572818
% es.EY (V/m) @ t=0.84
0.16515321789953563
% es.EZ (V/m) @ t=0.84
-1.1013350798567063
% es.tEX (V/m) @ t=0.84
1.1029465437572865
% es.tEY (V/m) @ t=0.84
0
% es.tEZ (V/m) @ t=0.84
-1.1013350798566774
% es.Ex (V/m) @ t=0.84
1.1029465437572818
% es.Ey (V/m) @ t=0.84
0.16515321789953563
% es.Ez (V/m) @ t=0.84
-1.1013350798567063
% es.tEx (V/m) @ t=0.84
1.1029465437572865
% es.tEy (V/m) @ t=0.84
0
% es.tEz (V/m) @ t=0.84
-1.1013350798566774
% V (V) @ t=0.84
0.01700404003888161
% es.normE (V/m) @ t=0.86
1.6026746848827715
% es.EX (V/m) @ t=0.86
1.1132315366293224
% es.EY (V/m) @ t=0.86
0.16669328574149922
% es.EZ (V/m) @ t=0.86
-1.1116050503807338
% es.tEX (V/m) @ t=0.86
1.1132315366293235
% es.tEY (V/m) @ t=0.86
0
% es.tEZ (V/m) @ t=0.86
-1.111605050380712
% es.Ex (V/m) @ t=0.86
1.1132315366293224
% es.Ey (V/m) @ t=0.86
0.16669328574149922
% es.Ez (V/m) @ t=0.86
-1.1116050503807338
% es.tEx (V/m) @ t=0.86
1.1132315366293235
% es.tEy (V/m) @ t=0.86
0
% es.tEz (V/m) @ t=0.86
-1.111605050380712
% V (V) @ t=0.86
0.017162601896545265
% es.normE (V/m) @ t=0.88
1.6174815813548367
% es.EX (V/m) @ t=0.88
1.1235165295013558
% es.EY (V/m) @ t=0.88
0.16823335358344677
% es.EZ (V/m) @ t=0.88
-1.1218750209047958
% es.tEX (V/m) @ t=0.88
1.123516529501357
% es.tEY (V/m) @ t=0.88
0
% es.tEZ (V/m) @ t=0.88
-1.1218750209047812
% es.Ex (V/m) @ t=0.88
1.1235165295013558
% es.Ey (V/m) @ t=0.88
0.16823335358344677
% es.Ez (V/m) @ t=0.88
-1.1218750209047958
% es.tEx (V/m) @ t=0.88
1.123516529501357
% es.tEy (V/m) @ t=0.88
0
% es.tEz (V/m) @ t=0.88
-1.1218750209047812
% V (V) @ t=0.88
0.017321163754208925
% es.normE (V/m) @ t=0.9
1.6322884778268802
% es.EX (V/m) @ t=0.9
1.1338015223733844
% es.EY (V/m) @ t=0.9
0.16977342142539525
% es.EZ (V/m) @ t=0.9
-1.1321449914288375
% es.tEX (V/m) @ t=0.9
1.1338015223733922
% es.tEY (V/m) @ t=0.9
0
% es.tEZ (V/m) @ t=0.9
-1.1321449914288158
% es.Ex (V/m) @ t=0.9
1.1338015223733844
% es.Ey (V/m) @ t=0.9
0.16977342142539525
% es.Ez (V/m) @ t=0.9
-1.1321449914288375
% es.tEx (V/m) @ t=0.9
1.1338015223733922
% es.tEy (V/m) @ t=0.9
0
% es.tEz (V/m) @ t=0.9
-1.1321449914288158
% V (V) @ t=0.9
0.017479725611872582
% es.normE (V/m) @ t=0.92
1.6470953742989392
% es.EX (V/m) @ t=0.92
1.1440865152454218
% es.EY (V/m) @ t=0.92
0.1713134892673291
% es.EZ (V/m) @ t=0.92
-1.1424149619528863
% es.tEX (V/m) @ t=0.92
1.14408651524543
% es.tEY (V/m) @ t=0.92
0
% es.tEZ (V/m) @ t=0.92
-1.1424149619528645
% es.Ex (V/m) @ t=0.92
1.1440865152454218
% es.Ey (V/m) @ t=0.92
0.1713134892673291
% es.Ez (V/m) @ t=0.92
-1.1424149619528863
% es.tEx (V/m) @ t=0.92
1.14408651524543
% es.tEy (V/m) @ t=0.92
0
% es.tEz (V/m) @ t=0.92
-1.1424149619528645
% V (V) @ t=0.92
0.017638287469536246
% es.normE (V/m) @ t=0.94
1.6619022707710078
% es.EX (V/m) @ t=0.94
1.154371508117461
% es.EY (V/m) @ t=0.94
0.1728535571092954
% es.EZ (V/m) @ t=0.94
-1.1526849324769568
% es.tEX (V/m) @ t=0.94
1.1543715081174688
% es.tEY (V/m) @ t=0.94
0
% es.tEZ (V/m) @ t=0.94
-1.1526849324769417
% es.Ex (V/m) @ t=0.94
1.154371508117461
% es.Ey (V/m) @ t=0.94
0.1728535571092954
% es.Ez (V/m) @ t=0.94
-1.1526849324769568
% es.tEx (V/m) @ t=0.94
1.1543715081174688
% es.tEy (V/m) @ t=0.94
0
% es.tEz (V/m) @ t=0.94
-1.1526849324769417
% V (V) @ t=0.94
0.017796849327199903
% es.normE (V/m) @ t=0.96
1.6767091672430643
% es.EX (V/m) @ t=0.96
1.164656500989495
% es.EY (V/m) @ t=0.96
0.174393624951251
% es.EZ (V/m) @ t=0.96
-1.162954903000999
% es.tEX (V/m) @ t=0.96
1.1646565009894925
% es.tEY (V/m) @ t=0.96
0
% es.tEZ (V/m) @ t=0.96
-1.1629549030009771
% es.Ex (V/m) @ t=0.96
1.164656500989495
% es.Ey (V/m) @ t=0.96
0.174393624951251
% es.Ez (V/m) @ t=0.96
-1.162954903000999
% es.tEx (V/m) @ t=0.96
1.1646565009894925
% es.tEy (V/m) @ t=0.96
0
% es.tEz (V/m) @ t=0.96
-1.1629549030009771
% V (V) @ t=0.96
0.01795541118486356
% es.normE (V/m) @ t=0.98
1.6915160637151196
% es.EX (V/m) @ t=0.98
1.1749414938615281
% es.EY (V/m) @ t=0.98
0.17593369279321003
% es.EZ (V/m) @ t=0.98
-1.1732248735250534
% es.tEX (V/m) @ t=0.98
1.1749414938615397
% es.tEY (V/m) @ t=0.98
0
% es.tEZ (V/m) @ t=0.98
-1.1732248735250383
% es.Ex (V/m) @ t=0.98
1.1749414938615281
% es.Ey (V/m) @ t=0.98
0.17593369279321003
% es.Ez (V/m) @ t=0.98
-1.1732248735250534
% es.tEx (V/m) @ t=0.98
1.1749414938615397
% es.tEy (V/m) @ t=0.98
0
% es.tEz (V/m) @ t=0.98
-1.1732248735250383
% V (V) @ t=0.98
0.018113973042527216
% es.normE (V/m) @ t=1
1.7063229601871706
% es.EX (V/m) @ t=1
1.185226486733562
% es.EY (V/m) @ t=1
0.1774737606351568
% es.EZ (V/m) @ t=1
-1.1834948440490956
% es.tEX (V/m) @ t=1
1.185226486733562
% es.tEY (V/m) @ t=1
0
% es.tEZ (V/m) @ t=1
-1.1834948440490738
% es.Ex (V/m) @ t=1
1.185226486733562
% es.Ey (V/m) @ t=1
0.1774737606351568
% es.Ez (V/m) @ t=1
-1.1834948440490956
% es.tEx (V/m) @ t=1
1.185226486733562
% es.tEy (V/m) @ t=1
0
% es.tEz (V/m) @ t=1
-1.1834948440490738
% V (V) @ t=1
0.018272534900190877
% es.normE (V/m) @ t=1.02
1.721129856659239
% es.EX (V/m) @ t=1.02
1.1955114796056039
% es.EY (V/m) @ t=1.02
0.1790138284770954
% es.EZ (V/m) @ t=1.02
-1.1937648145731576
% es.tEX (V/m) @ t=1.02
1.1955114796056083
% es.tEY (V/m) @ t=1.02
0
% es.tEZ (V/m) @ t=1.02
-1.1937648145731359
% es.Ex (V/m) @ t=1.02
1.1955114796056039
% es.Ey (V/m) @ t=1.02
0.1790138284770954
% es.Ez (V/m) @ t=1.02
-1.1937648145731576
% es.tEx (V/m) @ t=1.02
1.1955114796056083
% es.tEy (V/m) @ t=1.02
0
% es.tEz (V/m) @ t=1.02
-1.1937648145731359
% V (V) @ t=1.02
0.018431096757854537
% es.normE (V/m) @ t=1.04
1.7361060600994205
% es.EX (V/m) @ t=1.04
1.2059140739040917
% es.EY (V/m) @ t=1.04
0.18057150759383672
% es.EZ (V/m) @ t=1.04
-1.2041522154300797
% es.tEX (V/m) @ t=1.04
1.2059140739040997