% Model:              1 neuron.mph
% Version:            COMSOL 6.1.0.252
% Date:               Mar 27 2023, 14:45
% Dimension:          0
% Nodes:              14017
% Expressions:        14017
% Description:        Electric field norm, Electric field, X component, Electric field, Y component, Electric field, Z component, Tangential electric field, X component, Tangential electric field, Y component, Tangential electric field, Z component, Electric field, x component, Electric field, y component, Electric field, z component, Tangential electric field, x component, Tangential electric field, y component, Tangential electric field, z component, Electric potential
% Length unit:        mm
% x
1.66
% y
12.2
% z
2
% es.normE (V/m) @ t=0
2.609388508392218
% es.EX (V/m) @ t=0
-0.7784333804583754
% es.EY (V/m) @ t=0
0.058145748227729124
% es.EZ (V/m) @ t=0
-2.4857036495175864
% es.tEX (V/m) @ t=0
-0.7784333804583881
% es.tEY (V/m) @ t=0
0
% es.tEZ (V/m) @ t=0
-2.4857036495176015
% es.Ex (V/m) @ t=0
-0.7784333804583754
% es.Ey (V/m) @ t=0
0.058145748227729124
% es.Ez (V/m) @ t=0
-2.4857036495175864
% es.tEx (V/m) @ t=0
-0.7784333804583881
% es.tEy (V/m) @ t=0
0
% es.tEz (V/m) @ t=0
-2.4857036495176015
% V (V) @ t=0
0.013115873251411466
% es.normE (V/m) @ t=0.02
2.2537526622567077
% es.EX (V/m) @ t=0.02
-0.6723400134696143
% es.EY (V/m) @ t=0.02
0.050221013878885834
% es.EZ (V/m) @ t=0.02
-2.1469249210155352
% es.tEX (V/m) @ t=0.02
-0.672340013469622
% es.tEY (V/m) @ t=0.02
0
% es.tEZ (V/m) @ t=0.02
-2.146924921015554
% es.Ex (V/m) @ t=0.02
-0.6723400134696143
% es.Ey (V/m) @ t=0.02
0.050221013878885834
% es.Ez (V/m) @ t=0.02
-2.1469249210155352
% es.tEx (V/m) @ t=0.02
-0.672340013469622
% es.tEy (V/m) @ t=0.02
0
% es.tEz (V/m) @ t=0.02
-2.146924921015554
% V (V) @ t=0.02
0.011328299363191905
% es.normE (V/m) @ t=0.04
2.274482614810114
% es.EX (V/m) @ t=0.04
-0.6785241777024849
% es.EY (V/m) @ t=0.04
0.0506829453425269
% es.EZ (V/m) @ t=0.04
-2.166672275055709
% es.tEX (V/m) @ t=0.04
-0.6785241777024957
% es.tEY (V/m) @ t=0.04
0
% es.tEZ (V/m) @ t=0.04
-2.1666722750557366
% es.Ex (V/m) @ t=0.04
-0.6785241777024849
% es.Ey (V/m) @ t=0.04
0.0506829453425269
% es.Ez (V/m) @ t=0.04
-2.166672275055709
% es.tEx (V/m) @ t=0.04
-0.6785241777024957
% es.tEy (V/m) @ t=0.04
0
% es.tEz (V/m) @ t=0.04
-2.1666722750557366
% V (V) @ t=0.04
0.011432496736234012
% es.normE (V/m) @ t=0.06
2.295365120029908
% es.EX (V/m) @ t=0.06
-0.684753850143646
% es.EY (V/m) @ t=0.06
0.05114827447607069
% es.EZ (V/m) @ t=0.06
-2.186564951195564
% es.tEX (V/m) @ t=0.06
-0.6847538501436539
% es.tEY (V/m) @ t=0.06
0
% es.tEZ (V/m) @ t=0.06
-2.1865649511955763
% es.Ex (V/m) @ t=0.06
-0.684753850143646
% es.Ey (V/m) @ t=0.06
0.05114827447607069
% es.Ez (V/m) @ t=0.06
-2.186564951195564
% es.tEx (V/m) @ t=0.06
-0.6847538501436539
% es.tEy (V/m) @ t=0.06
0
% es.tEz (V/m) @ t=0.06
-2.1865649511955763
% V (V) @ t=0.06
0.011537460986313915
% es.normE (V/m) @ t=0.08
2.3166446224036896
% es.EX (V/m) @ t=0.08
-0.6911019526150152
% es.EY (V/m) @ t=0.08
0.05162244714079234
% es.EZ (V/m) @ t=0.08
-2.206835807555623
% es.tEX (V/m) @ t=0.08
-0.6911019526150177
% es.tEY (V/m) @ t=0.08
0
% es.tEZ (V/m) @ t=0.08
-2.2068358075556525
% es.Ex (V/m) @ t=0.08
-0.6911019526150152
% es.Ey (V/m) @ t=0.08
0.05162244714079234
% es.Ez (V/m) @ t=0.08
-2.206835807555623
% es.tEx (V/m) @ t=0.08
-0.6911019526150177
% es.tEy (V/m) @ t=0.08
0
% es.tEz (V/m) @ t=0.08
-2.2068358075556525
% V (V) @ t=0.08
0.011644420850812864
% es.normE (V/m) @ t=0.1
2.3380371850359083
% es.EX (V/m) @ t=0.1
-0.697483782607319
% es.EY (V/m) @ t=0.1
0.05209913834225863
% es.EZ (V/m) @ t=0.1
-2.227214365326142
% es.tEX (V/m) @ t=0.1
-0.6974837826073177
% es.tEY (V/m) @ t=0.1
0
% es.tEZ (V/m) @ t=0.1
-2.2272143653261525
% es.Ex (V/m) @ t=0.1
-0.697483782607319
% es.Ey (V/m) @ t=0.1
0.05209913834225863
% es.Ez (V/m) @ t=0.1
-2.227214365326142
% es.tEx (V/m) @ t=0.1
-0.6974837826073177
% es.tEy (V/m) @ t=0.1
0
% es.tEz (V/m) @ t=0.1
-2.2272143653261525
% V (V) @ t=0.1
0.01175194904352179
% es.normE (V/m) @ t=0.12
2.3594297476681105
% es.EX (V/m) @ t=0.12
-0.7038656125996141
% es.EY (V/m) @ t=0.12
0.05257582954370933
% es.EZ (V/m) @ t=0.12
-2.2475929230966445
% es.tEX (V/m) @ t=0.12
-0.7038656125996212
% es.tEY (V/m) @ t=0.12
0
% es.tEZ (V/m) @ t=0.12
-2.2475929230966605
% es.Ex (V/m) @ t=0.12
-0.7038656125996141
% es.Ey (V/m) @ t=0.12
0.05257582954370933
% es.Ez (V/m) @ t=0.12
-2.2475929230966445
% es.tEx (V/m) @ t=0.12
-0.7038656125996212
% es.tEy (V/m) @ t=0.12
0
% es.tEz (V/m) @ t=0.12
-2.2475929230966605
% V (V) @ t=0.12
0.011859477236230716
% es.normE (V/m) @ t=0.14
2.3814279477542137
% es.EX (V/m) @ t=0.14
-0.710428122779795
% es.EY (V/m) @ t=0.14
0.053066024344329346
% es.EZ (V/m) @ t=0.14
-2.2685484091678934
% es.tEX (V/m) @ t=0.14
-0.7104281227798062
% es.tEY (V/m) @ t=0.14
0
% es.tEZ (V/m) @ t=0.14
-2.2685484091679085
% es.Ex (V/m) @ t=0.14
-0.710428122779795
% es.Ey (V/m) @ t=0.14
0.053066024344329346
% es.Ez (V/m) @ t=0.14
-2.2685484091678934
% es.tEx (V/m) @ t=0.14
-0.7104281227798062
% es.tEy (V/m) @ t=0.14
0
% es.tEz (V/m) @ t=0.14
-2.2685484091679085
% V (V) @ t=0.14
0.011970049220657772
% es.normE (V/m) @ t=0.16
2.4038963263258992
% es.EX (V/m) @ t=0.16
-0.7171309015919092
% es.EY (V/m) @ t=0.16
0.05356670248240018
% es.EZ (V/m) @ t=0.16
-2.289951785760098
% es.tEX (V/m) @ t=0.16
-0.7171309015919185
% es.tEY (V/m) @ t=0.16
0
% es.tEZ (V/m) @ t=0.16
-2.289951785760125
% es.Ex (V/m) @ t=0.16
-0.7171309015919092
% es.Ey (V/m) @ t=0.16
0.05356670248240018
% es.Ez (V/m) @ t=0.16
-2.289951785760098
% es.tEx (V/m) @ t=0.16
-0.7171309015919185
% es.tEy (V/m) @ t=0.16
0
% es.tEz (V/m) @ t=0.16
-2.289951785760125
% V (V) @ t=0.16
0.012082984211816123
% es.normE (V/m) @ t=0.18
2.426364704897571
% es.EX (V/m) @ t=0.18
-0.7238336804040181
% es.EY (V/m) @ t=0.18
0.05406738062043798
% es.EZ (V/m) @ t=0.18
-2.3113551623522888
% es.tEX (V/m) @ t=0.18
-0.7238336804040131
% es.tEY (V/m) @ t=0.18
0
% es.tEZ (V/m) @ t=0.18
-2.3113551623523003
% es.Ex (V/m) @ t=0.18
-0.7238336804040181
% es.Ey (V/m) @ t=0.18
0.05406738062043798
% es.Ez (V/m) @ t=0.18
-2.3113551623522888
% es.tEx (V/m) @ t=0.18
-0.7238336804040131
% es.tEy (V/m) @ t=0.18
0
% es.tEz (V/m) @ t=0.18
-2.3113551623523003
% V (V) @ t=0.18
0.012195919202974477
% es.normE (V/m) @ t=0.2
2.4488330834692267
% es.EX (V/m) @ t=0.2
-0.7305364592161219
% es.EY (V/m) @ t=0.2
0.054568058758494756
% es.EZ (V/m) @ t=0.2
-2.332758538944465
% es.tEX (V/m) @ t=0.2
-0.730536459216129
% es.tEY (V/m) @ t=0.2
0
% es.tEZ (V/m) @ t=0.2
-2.3327585389444945
% es.Ex (V/m) @ t=0.2
-0.7305364592161219
% es.Ey (V/m) @ t=0.2
0.054568058758494756
% es.Ez (V/m) @ t=0.2
-2.332758538944465
% es.tEx (V/m) @ t=0.2
-0.730536459216129
% es.tEy (V/m) @ t=0.2
0
% es.tEz (V/m) @ t=0.2
-2.3327585389444945
% V (V) @ t=0.2
0.012308854194132829
% es.normE (V/m) @ t=0.22
2.471301462040901
% es.EX (V/m) @ t=0.22
-0.7372392380282404
% es.EY (V/m) @ t=0.22
0.05506873689655008
% es.EZ (V/m) @ t=0.22
-2.3541619155366567
% es.tEX (V/m) @ t=0.22
-0.7372392380282484
% es.tEY (V/m) @ t=0.22
0
% es.tEZ (V/m) @ t=0.22
-2.354161915536676
% es.Ex (V/m) @ t=0.22
-0.7372392380282404
% es.Ey (V/m) @ t=0.22
0.05506873689655008
% es.Ez (V/m) @ t=0.22
-2.3541619155366567
% es.tEx (V/m) @ t=0.22
-0.7372392380282484
% es.tEy (V/m) @ t=0.22
0
% es.tEz (V/m) @ t=0.22
-2.354161915536676
% V (V) @ t=0.22
0.012421789185291177
% es.normE (V/m) @ t=0.24
2.4937698406125666
% es.EX (V/m) @ t=0.24
-0.7439420168403512
% es.EY (V/m) @ t=0.24
0.055569415034608924
% es.EZ (V/m) @ t=0.24
-2.37556529212884
% es.tEX (V/m) @ t=0.24
-0.7439420168403537
% es.tEY (V/m) @ t=0.24
0
% es.tEZ (V/m) @ t=0.24
-2.375565292128858
% es.Ex (V/m) @ t=0.24
-0.7439420168403512
% es.Ey (V/m) @ t=0.24
0.055569415034608924
% es.Ez (V/m) @ t=0.24
-2.37556529212884
% es.tEx (V/m) @ t=0.24
-0.7439420168403537
% es.tEy (V/m) @ t=0.24
0
% es.tEz (V/m) @ t=0.24
-2.375565292128858
% V (V) @ t=0.24
0.01253472417644953
% es.normE (V/m) @ t=0.26
2.516555854449627
% es.EX (V/m) @ t=0.26
-0.7507395294912861
% es.EY (V/m) @ t=0.26
0.056077141567912034
% es.EZ (V/m) @ t=0.26
-2.397271255379626
% es.tEX (V/m) @ t=0.26
-0.7507395294912946
% es.tEY (V/m) @ t=0.26
0
% es.tEZ (V/m) @ t=0.26
-2.3972712553796347
% es.Ex (V/m) @ t=0.26
-0.7507395294912861
% es.Ey (V/m) @ t=0.26
0.056077141567912034
% es.Ez (V/m) @ t=0.26
-2.397271255379626
% es.tEx (V/m) @ t=0.26
-0.7507395294912946
% es.tEy (V/m) @ t=0.26
0
% es.tEz (V/m) @ t=0.26
-2.3972712553796347
% V (V) @ t=0.26
0.012649257190481817
% es.normE (V/m) @ t=0.28
2.5414270509325543
% es.EX (V/m) @ t=0.28
-0.7581589420954226
% es.EY (V/m) @ t=0.28
0.05663113875520974
% es.EZ (V/m) @ t=0.28
-2.420963611572641
% es.tEX (V/m) @ t=0.28
-0.7581589420954273
% es.tEY (V/m) @ t=0.28
0
% es.tEZ (V/m) @ t=0.28
-2.420963611572655
% es.Ex (V/m) @ t=0.28
-0.7581589420954226
% es.Ey (V/m) @ t=0.28
0.05663113875520974
% es.Ez (V/m) @ t=0.28
-2.420963611572641
% es.tEx (V/m) @ t=0.28
-0.7581589420954273
% es.tEy (V/m) @ t=0.28
0
% es.tEz (V/m) @ t=0.28
-2.420963611572655
% V (V) @ t=0.28
0.012774280757445324
% es.normE (V/m) @ t=0.3
2.5662982474155256
% es.EX (V/m) @ t=0.3
-0.7655783546995706
% es.EY (V/m) @ t=0.3
0.05718513594251233
% es.EZ (V/m) @ t=0.3
-2.444655967765664
% es.tEX (V/m) @ t=0.3
-0.7655783546995707
% es.tEY (V/m) @ t=0.3
0
% es.tEZ (V/m) @ t=0.3
-2.4446559677656845
% es.Ex (V/m) @ t=0.3
-0.7655783546995706
% es.Ey (V/m) @ t=0.3
0.05718513594251233
% es.Ez (V/m) @ t=0.3
-2.444655967765664
% es.tEx (V/m) @ t=0.3
-0.7655783546995707
% es.tEy (V/m) @ t=0.3
0
% es.tEz (V/m) @ t=0.3
-2.4446559677656845
% V (V) @ t=0.3
0.01289930432440883
% es.normE (V/m) @ t=0.32
2.5911694438984996
% es.EX (V/m) @ t=0.32
-0.7729977673037206
% es.EY (V/m) @ t=0.32
0.05773913312980848
% es.EZ (V/m) @ t=0.32
-2.468348323958657
% es.tEX (V/m) @ t=0.32
-0.7729977673037141
% es.tEY (V/m) @ t=0.32
0
% es.tEZ (V/m) @ t=0.32
-2.4683483239586828
% es.Ex (V/m) @ t=0.32
-0.7729977673037206
% es.Ey (V/m) @ t=0.32
0.05773913312980848
% es.Ez (V/m) @ t=0.32
-2.468348323958657
% es.tEx (V/m) @ t=0.32
-0.7729977673037141
% es.tEy (V/m) @ t=0.32
0
% es.tEz (V/m) @ t=0.32
-2.4683483239586828
% V (V) @ t=0.32
0.013024327891372334
% es.normE (V/m) @ t=0.34
2.616040640381536
% es.EX (V/m) @ t=0.34
-0.7804171799078793
% es.EY (V/m) @ t=0.34
0.05829313031710219
% es.EZ (V/m) @ t=0.34
-2.49204068015168
% es.tEX (V/m) @ t=0.34
-0.7804171799078858
% es.tEY (V/m) @ t=0.34
0
% es.tEZ (V/m) @ t=0.34
-2.492040680151712
% es.Ex (V/m) @ t=0.34
-0.7804171799078793
% es.Ey (V/m) @ t=0.34
0.05829313031710219
% es.Ez (V/m) @ t=0.34
-2.49204068015168
% es.tEx (V/m) @ t=0.34
-0.7804171799078858
% es.tEy (V/m) @ t=0.34
0
% es.tEz (V/m) @ t=0.34
-2.492040680151712
% V (V) @ t=0.34
0.01314935145833584
% es.normE (V/m) @ t=0.36
2.6409118368645905
% es.EX (V/m) @ t=0.36
-0.787836592512022
% es.EY (V/m) @ t=0.36
0.05884712750440345
% es.EZ (V/m) @ t=0.36
-2.5157330363446953
% es.tEX (V/m) @ t=0.36
-0.7878365925120292
% es.tEY (V/m) @ t=0.36
0
% es.tEZ (V/m) @ t=0.36
-2.5157330363447112
% es.Ex (V/m) @ t=0.36
-0.787836592512022
% es.Ey (V/m) @ t=0.36
0.05884712750440345
% es.Ez (V/m) @ t=0.36
-2.5157330363446953
% es.tEx (V/m) @ t=0.36
-0.7878365925120292
% es.tEy (V/m) @ t=0.36
0
% es.tEz (V/m) @ t=0.36
-2.5157330363447112
% V (V) @ t=0.36
0.01327437502529934
% es.normE (V/m) @ t=0.38
2.66578303334766
% es.EX (V/m) @ t=0.38
-0.7952560051161666
% es.EY (V/m) @ t=0.38
0.0594011246916796
% es.EZ (V/m) @ t=0.38
-2.539425392537696
% es.tEX (V/m) @ t=0.38
-0.7952560051161726
% es.tEY (V/m) @ t=0.38
0
% es.tEZ (V/m) @ t=0.38
-2.5394253925377406
% es.Ex (V/m) @ t=0.38
-0.7952560051161666
% es.Ey (V/m) @ t=0.38
0.0594011246916796
% es.Ez (V/m) @ t=0.38
-2.539425392537696
% es.tEx (V/m) @ t=0.38
-0.7952560051161726
% es.tEy (V/m) @ t=0.38
0
% es.tEz (V/m) @ t=0.38
-2.5394253925377406
% V (V) @ t=0.38
0.01339939859226285
% es.normE (V/m) @ t=0.4
2.6906542298307645
% es.EX (V/m) @ t=0.4
-0.8026754177203067
% es.EY (V/m) @ t=0.4
0.05995512187898974
% es.EZ (V/m) @ t=0.4
-2.563117748730704
% es.tEX (V/m) @ t=0.4
-0.8026754177203159
% es.tEY (V/m) @ t=0.4
0
% es.tEZ (V/m) @ t=0.4
-2.5631177487307397
% es.Ex (V/m) @ t=0.4
-0.8026754177203067
% es.Ey (V/m) @ t=0.4
0.05995512187898974
% es.Ez (V/m) @ t=0.4
-2.563117748730704
% es.tEx (V/m) @ t=0.4
-0.8026754177203159
% es.tEy (V/m) @ t=0.4
0
% es.tEz (V/m) @ t=0.4
-2.5631177487307397
% V (V) @ t=0.4
0.013524422159226354
% es.normE (V/m) @ t=0.42
2.715525426313916
% es.EX (V/m) @ t=0.42
-0.8100948303244521
% es.EY (V/m) @ t=0.42
0.06050911906629433
% es.EZ (V/m) @ t=0.42
-2.5868101049237344
% es.tEX (V/m) @ t=0.42
-0.8100948303244593
% es.tEY (V/m) @ t=0.42
0
% es.tEZ (V/m) @ t=0.42
-2.586810104923739
% es.Ex (V/m) @ t=0.42
-0.8100948303244521
% es.Ey (V/m) @ t=0.42
0.06050911906629433
% es.Ez (V/m) @ t=0.42
-2.5868101049237344
% es.tEx (V/m) @ t=0.42
-0.8100948303244593
% es.tEy (V/m) @ t=0.42
0
% es.tEz (V/m) @ t=0.42
-2.586810104923739
% V (V) @ t=0.42
0.013649445726189858
% es.normE (V/m) @ t=0.44
2.7403966227971006
% es.EX (V/m) @ t=0.44
-0.8175142429286126
% es.EY (V/m) @ t=0.44
0.06106311625359356
% es.EZ (V/m) @ t=0.44
-2.6105024611167638
% es.tEX (V/m) @ t=0.44
-0.8175142429286311
% es.tEY (V/m) @ t=0.44
0
% es.tEZ (V/m) @ t=0.44
-2.610502461116768
% es.Ex (V/m) @ t=0.44
-0.8175142429286126
% es.Ey (V/m) @ t=0.44
0.06106311625359356
% es.Ez (V/m) @ t=0.44
-2.6105024611167638
% es.tEx (V/m) @ t=0.44
-0.8175142429286311
% es.tEy (V/m) @ t=0.44
0
% es.tEz (V/m) @ t=0.44
-2.610502461116768
% V (V) @ t=0.44
0.013774469293153364
% es.normE (V/m) @ t=0.46
2.765267819280255
% es.EX (V/m) @ t=0.46
-0.8249336555327447
% es.EY (V/m) @ t=0.46
0.06161711344088952
% es.EZ (V/m) @ t=0.46
-2.6341948173097434
% es.tEX (V/m) @ t=0.46
-0.824933655532746
% es.tEY (V/m) @ t=0.46
0
% es.tEZ (V/m) @ t=0.46
-2.6341948173097816
% es.Ex (V/m) @ t=0.46
-0.8249336555327447
% es.Ey (V/m) @ t=0.46
0.06161711344088952
% es.Ez (V/m) @ t=0.46
-2.6341948173097434
% es.tEx (V/m) @ t=0.46
-0.824933655532746
% es.tEy (V/m) @ t=0.46
0
% es.tEz (V/m) @ t=0.46
-2.6341948173097816
% V (V) @ t=0.46
0.013899492860116868
% es.normE (V/m) @ t=0.48
2.7901390157634873
% es.EX (V/m) @ t=0.48
-0.8323530681368962
% es.EY (V/m) @ t=0.48
0.0621711106281779
% es.EZ (V/m) @ t=0.48
-2.6578871735027727
% es.tEX (V/m) @ t=0.48
-0.8323530681369107
% es.tEY (V/m) @ t=0.48
0
% es.tEZ (V/m) @ t=0.48
-2.6578871735027967
% es.Ex (V/m) @ t=0.48
-0.8323530681368962
% es.Ey (V/m) @ t=0.48
0.0621711106281779
% es.Ez (V/m) @ t=0.48
-2.6578871735027727
% es.tEx (V/m) @ t=0.48
-0.8323530681369107
% es.tEy (V/m) @ t=0.48
0
% es.tEz (V/m) @ t=0.48
-2.6578871735027967
% V (V) @ t=0.48
0.014024516427080372
% es.normE (V/m) @ t=0.5
2.8150102122467247
% es.EX (V/m) @ t=0.5
-0.8397724807410462
% es.EY (V/m) @ t=0.5
0.06272510781547741
% es.EZ (V/m) @ t=0.5
-2.6815795296957816
% es.tEX (V/m) @ t=0.5
-0.8397724807410611
% es.tEY (V/m) @ t=0.5
0
% es.tEZ (V/m) @ t=0.5
-2.68157952969581
% es.Ex (V/m) @ t=0.5
-0.8397724807410462
% es.Ey (V/m) @ t=0.5
0.06272510781547741
% es.Ez (V/m) @ t=0.5
-2.6815795296957816
% es.tEx (V/m) @ t=0.5
-0.8397724807410611
% es.tEy (V/m) @ t=0.5
0
% es.tEz (V/m) @ t=0.5
-2.68157952969581
% V (V) @ t=0.5
0.014149539994043878
% es.normE (V/m) @ t=0.52
2.840613187225002
% es.EX (V/m) @ t=0.52
-0.8474101758877715
% es.EY (V/m) @ t=0.52
0.06329538362630514
% es.EZ (V/m) @ t=0.52
-2.705968984974227
% es.tEX (V/m) @ t=0.52
-0.8474101758877808
% es.tEY (V/m) @ t=0.52
0
% es.tEZ (V/m) @ t=0.52
-2.705968984974241
% es.Ex (V/m) @ t=0.52
-0.8474101758877715
% es.Ey (V/m) @ t=0.52
0.06329538362630514
% es.Ez (V/m) @ t=0.52
-2.705968984974227
% es.tEx (V/m) @ t=0.52
-0.8474101758877808
% es.tEy (V/m) @ t=0.52
0
% es.tEz (V/m) @ t=0.52
-2.705968984974241
% V (V) @ t=0.52
0.014278243152214827
% es.normE (V/m) @ t=0.54
2.868188008752902
% es.EX (V/m) @ t=0.54
-0.855636054045231
% es.EY (V/m) @ t=0.54
0.06390952373194639
% es.EZ (V/m) @ t=0.54
-2.7322368398444894
% es.tEX (V/m) @ t=0.54
-0.8556360540452346
% es.tEY (V/m) @ t=0.54
0
% es.tEZ (V/m) @ t=0.54
-2.7322368398445196
% es.Ex (V/m) @ t=0.54
-0.855636054045231
% es.Ey (V/m) @ t=0.54
0.06390952373194639
% es.Ez (V/m) @ t=0.54
-2.7322368398444894
% es.tEx (V/m) @ t=0.54
-0.8556360540452346
% es.tEy (V/m) @ t=0.54
0
% es.tEz (V/m) @ t=0.54
-2.7322368398445196
% V (V) @ t=0.54
0.014416861317831105
% es.normE (V/m) @ t=0.56
2.8957628302808587
% es.EX (V/m) @ t=0.56
-0.8638619322027048
% es.EY (V/m) @ t=0.56
0.06452366383758401
% es.EZ (V/m) @ t=0.56
-2.758504694714752
% es.tEX (V/m) @ t=0.56
-0.8638619322027097
% es.tEY (V/m) @ t=0.56
0
% es.tEZ (V/m) @ t=0.56
-2.758504694714773
% es.Ex (V/m) @ t=0.56
-0.8638619322027048
% es.Ey (V/m) @ t=0.56
0.06452366383758401
% es.Ez (V/m) @ t=0.56
-2.758504694714752
% es.tEx (V/m) @ t=0.56
-0.8638619322027097
% es.tEy (V/m) @ t=0.56
0
% es.tEz (V/m) @ t=0.56
-2.758504694714773
% V (V) @ t=0.56
0.01455547948344738
% es.normE (V/m) @ t=0.58
2.923337651808857
% es.EX (V/m) @ t=0.58
-0.8720878103601946
% es.EY (V/m) @ t=0.58
0.06513780394323279
% es.EZ (V/m) @ t=0.58
-2.784772549585
% es.tEX (V/m) @ t=0.58
-0.8720878103602061
% es.tEY (V/m) @ t=0.58
0
% es.tEZ (V/m) @ t=0.58
-2.784772549585025
% es.Ex (V/m) @ t=0.58
-0.8720878103601946
% es.Ey (V/m) @ t=0.58
0.06513780394323279
% es.Ez (V/m) @ t=0.58
-2.784772549585
% es.tEx (V/m) @ t=0.58
-0.8720878103602061
% es.tEy (V/m) @ t=0.58
0
% es.tEz (V/m) @ t=0.58
-2.784772549585025
% V (V) @ t=0.58
0.014694097649063657
% es.normE (V/m) @ t=0.6
2.9509124733369108
% es.EX (V/m) @ t=0.6
-0.8803136885176597
% es.EY (V/m) @ t=0.6
0.06575194404886107
% es.EZ (V/m) @ t=0.6
-2.8110404044552606
% es.tEX (V/m) @ t=0.6
-0.880313688517667
% es.tEY (V/m) @ t=0.6
0
% es.tEZ (V/m) @ t=0.6
-2.8110404044553032
% es.Ex (V/m) @ t=0.6
-0.8803136885176597
% es.Ey (V/m) @ t=0.6
0.06575194404886107
% es.Ez (V/m) @ t=0.6
-2.8110404044552606
% es.tEx (V/m) @ t=0.6
-0.880313688517667
% es.tEy (V/m) @ t=0.6
0
% es.tEz (V/m) @ t=0.6
-2.8110404044553032
% V (V) @ t=0.6
0.014832715814679934
% es.normE (V/m) @ t=0.62
2.9784872948650154
% es.EX (V/m) @ t=0.62
-0.8885395666751335
% es.EY (V/m) @ t=0.62
0.06636608415448848
% es.EZ (V/m) @ t=0.62
-2.837308259325523
% es.tEX (V/m) @ t=0.62
-0.8885395666751421
% es.tEY (V/m) @ t=0.62
0
% es.tEZ (V/m) @ t=0.62
-2.837308259325555
% es.Ex (V/m) @ t=0.62
-0.8885395666751335
% es.Ey (V/m) @ t=0.62
0.06636608415448848
% es.Ez (V/m) @ t=0.62
-2.837308259325523
% es.tEx (V/m) @ t=0.62
-0.8885395666751421
% es.tEy (V/m) @ t=0.62
0
% es.tEz (V/m) @ t=0.62
-2.837308259325555
% V (V) @ t=0.62
0.014971333980296207
% es.normE (V/m) @ t=0.64
3.0060621163931804
% es.EX (V/m) @ t=0.64
-0.8967654448326072
% es.EY (V/m) @ t=0.64
0.0669802242601492
% es.EZ (V/m) @ t=0.64
-2.8635761141957987
% es.tEX (V/m) @ t=0.64
-0.8967654448326172
% es.tEY (V/m) @ t=0.64
0
% es.tEZ (V/m) @ t=0.64
-2.863576114195821
% es.Ex (V/m) @ t=0.64
-0.8967654448326072
% es.Ey (V/m) @ t=0.64
0.0669802242601492
% es.Ez (V/m) @ t=0.64
-2.8635761141957987
% es.tEx (V/m) @ t=0.64
-0.8967654448326172
% es.tEy (V/m) @ t=0.64
0
% es.tEz (V/m) @ t=0.64
-2.863576114195821
% V (V) @ t=0.64
0.015109952145912485
% es.normE (V/m) @ t=0.66
3.033636937921352
% es.EX (V/m) @ t=0.66
-0.904991322990083
% es.EY (V/m) @ t=0.66
0.06759436436577976
% es.EZ (V/m) @ t=0.66
-2.8898439690660327
% es.tEX (V/m) @ t=0.66
-0.9049913229900923
% es.tEY (V/m) @ t=0.66
0
% es.tEZ (V/m) @ t=0.66
-2.889843969066071
% es.Ex (V/m) @ t=0.66
-0.904991322990083
% es.Ey (V/m) @ t=0.66
0.06759436436577976
% es.Ez (V/m) @ t=0.66
-2.8898439690660327
% es.tEx (V/m) @ t=0.66
-0.9049913229900923
% es.tEy (V/m) @ t=0.66
0
% es.tEz (V/m) @ t=0.66
-2.889843969066071
% V (V) @ t=0.66
0.015248570311528762
% es.normE (V/m) @ t=0.68
3.06121175944961
% es.EX (V/m) @ t=0.68
-0.9132172011475639
% es.EY (V/m) @ t=0.68
0.0682085044714085
% es.EZ (V/m) @ t=0.68
-2.9161118239363084
% es.tEX (V/m) @ t=0.68
-0.9132172011475745
% es.tEY (V/m) @ t=0.68
0
% es.tEZ (V/m) @ t=0.68
-2.9161118239363244
% es.Ex (V/m) @ t=0.68
-0.9132172011475639
% es.Ey (V/m) @ t=0.68
0.0682085044714085
% es.Ez (V/m) @ t=0.68
-2.9161118239363084
% es.tEx (V/m) @ t=0.68
-0.9132172011475745
% es.tEy (V/m) @ t=0.68
0
% es.tEz (V/m) @ t=0.68
-2.9161118239363244
% V (V) @ t=0.68
0.015387188477145038
% es.normE (V/m) @ t=0.7
3.0887865809779065
% es.EX (V/m) @ t=0.7
-0.9214430793050323
% es.EY (V/m) @ t=0.7
0.06882264457705456
% es.EZ (V/m) @ t=0.7
-2.942379678806584
% es.tEX (V/m) @ t=0.7
-0.9214430793050425
% es.tEY (V/m) @ t=0.7
0
% es.tEZ (V/m) @ t=0.7
-2.9423796788066046
% es.Ex (V/m) @ t=0.7
-0.9214430793050323
% es.Ey (V/m) @ t=0.7
0.06882264457705456
% es.Ez (V/m) @ t=0.7
-2.942379678806584
% es.tEx (V/m) @ t=0.7
-0.9214430793050425
% es.tEy (V/m) @ t=0.7
0
% es.tEz (V/m) @ t=0.7
-2.9423796788066046
% V (V) @ t=0.7
0.015525806642761316
% es.normE (V/m) @ t=0.72
3.116361402506219
% es.EX (V/m) @ t=0.72
-0.929668957462497
% es.EY (V/m) @ t=0.72
0.06943678468268565
% es.EZ (V/m) @ t=0.72
-2.968647533676833
% es.tEX (V/m) @ t=0.72
-0.9296689574625034
% es.tEY (V/m) @ t=0.72
0
% es.tEZ (V/m) @ t=0.72
-2.9686475336768527
% es.Ex (V/m) @ t=0.72
-0.929668957462497
% es.Ey (V/m) @ t=0.72
0.06943678468268565
% es.Ez (V/m) @ t=0.72
-2.968647533676833
% es.tEx (V/m) @ t=0.72
-0.9296689574625034
% es.tEy (V/m) @ t=0.72
0
% es.tEz (V/m) @ t=0.72
-2.9686475336768527
% V (V) @ t=0.72
0.01566442480837759
% es.normE (V/m) @ t=0.74
3.143936224034575
% es.EX (V/m) @ t=0.74
-0.9378948356199766
% es.EY (V/m) @ t=0.74
0.07005092478832674
% es.EZ (V/m) @ t=0.74
-2.9949153885470796
% es.tEX (V/m) @ t=0.74
-0.9378948356199857
% es.tEY (V/m) @ t=0.74
0
% es.tEZ (V/m) @ t=0.74
-2.994915388547092
% es.Ex (V/m) @ t=0.74
-0.9378948356199766
% es.Ey (V/m) @ t=0.74
0.07005092478832674
% es.Ez (V/m) @ t=0.74
-2.9949153885470796
% es.tEx (V/m) @ t=0.74
-0.9378948356199857
% es.tEy (V/m) @ t=0.74
0
% es.tEz (V/m) @ t=0.74
-2.994915388547092
% V (V) @ t=0.74
0.015803042973993865
% es.normE (V/m) @ t=0.76
3.1715110455630144
% es.EX (V/m) @ t=0.76
-0.9461207137774625
% es.EY (V/m) @ t=0.76
0.07066506489396761
% es.EZ (V/m) @ t=0.76
-3.0211832434173713
% es.tEX (V/m) @ t=0.76
-0.946120713777475
% es.tEY (V/m) @ t=0.76
0
% es.tEZ (V/m) @ t=0.76
-3.0211832434173846
% es.Ex (V/m) @ t=0.76
-0.9461207137774625
% es.Ey (V/m) @ t=0.76
0.07066506489396761
% es.Ez (V/m) @ t=0.76
-3.0211832434173713
% es.tEx (V/m) @ t=0.76
-0.946120713777475
% es.tEy (V/m) @ t=0.76
0
% es.tEz (V/m) @ t=0.76
-3.0211832434173846
% V (V) @ t=0.76
0.015941661139610142
% es.normE (V/m) @ t=0.78
3.200332543312448
% es.EX (V/m) @ t=0.78
-0.954718523340164
% es.EY (V/m) @ t=0.78
0.07130701394782055
% es.EZ (V/m) @ t=0.78
-3.04863867500762
% es.tEX (V/m) @ t=0.78
-0.9547185233401692
% es.tEY (V/m) @ t=0.78
0
% es.tEZ (V/m) @ t=0.78
-3.048638675007652
% es.Ex (V/m) @ t=0.78
-0.954718523340164
% es.Ey (V/m) @ t=0.78
0.07130701394782055
% es.Ez (V/m) @ t=0.78
-3.04863867500762
% es.tEx (V/m) @ t=0.78
-0.9547185233401692
% es.tEy (V/m) @ t=0.78
0
% es.tEz (V/m) @ t=0.78
-3.048638675007652
% V (V) @ t=0.78
0.016086544195879703
% es.normE (V/m) @ t=0.8
3.230954440886199
% es.EX (V/m) @ t=0.8
-0.9638534613291492
% es.EY (V/m) @ t=0.8
0.0719891235698792
% es.EZ (V/m) @ t=0.8
-3.077809157291857
% es.tEX (V/m) @ t=0.8
-0.9638534613291583
% es.tEY (V/m) @ t=0.8
0
% es.tEZ (V/m) @ t=0.8
-3.07780915729189
% es.Ex (V/m) @ t=0.8
-0.9638534613291492
% es.Ey (V/m) @ t=0.8
0.0719891235698792
% es.Ez (V/m) @ t=0.8
-3.077809157291857
% es.tEx (V/m) @ t=0.8
-0.9638534613291583
% es.tEy (V/m) @ t=0.8
0
% es.tEz (V/m) @ t=0.8
-3.07780915729189
% V (V) @ t=0.8
0.016240474756097113
% es.normE (V/m) @ t=0.82
3.2615763384599914
% es.EX (V/m) @ t=0.82
-0.9729883993181181
% es.EY (V/m) @ t=0.82
0.07267123319196268
% es.EZ (V/m) @ t=0.82
-3.1069796395761236
% es.tEX (V/m) @ t=0.82
-0.9729883993181261
% es.tEY (V/m) @ t=0.82
0
% es.tEZ (V/m) @ t=0.82
-3.106979639576167
% es.Ex (V/m) @ t=0.82
-0.9729883993181181
% es.Ey (V/m) @ t=0.82
0.07267123319196268
% es.Ez (V/m) @ t=0.82
-3.1069796395761236
% es.tEx (V/m) @ t=0.82
-0.9729883993181261
% es.tEy (V/m) @ t=0.82
0
% es.tEz (V/m) @ t=0.82
-3.106979639576167
% V (V) @ t=0.82
0.016394405316314524
% es.normE (V/m) @ t=0.84
3.292198236033805
% es.EX (V/m) @ t=0.84
-0.9821233373070997
% es.EY (V/m) @ t=0.84
0.07335334281401912
% es.EZ (V/m) @ t=0.84
-3.136150121860389
% es.tEX (V/m) @ t=0.84
-0.9821233373071081
% es.tEY (V/m) @ t=0.84
0
% es.tEZ (V/m) @ t=0.84
-3.136150121860405
% es.Ex (V/m) @ t=0.84
-0.9821233373070997
% es.Ey (V/m) @ t=0.84
0.07335334281401912
% es.Ez (V/m) @ t=0.84
-3.136150121860389
% es.tEx (V/m) @ t=0.84
-0.9821233373071081
% es.tEy (V/m) @ t=0.84
0
% es.tEz (V/m) @ t=0.84
-3.136150121860405
% V (V) @ t=0.84
0.01654833587653193
% es.normE (V/m) @ t=0.86
3.322820133607631
% es.EX (V/m) @ t=0.86
-0.9912582752960721
% es.EY (V/m) @ t=0.86
0.07403545243609155
% es.EZ (V/m) @ t=0.86
-3.1653206041446555
% es.tEX (V/m) @ t=0.86
-0.991258275296083
% es.tEY (V/m) @ t=0.86
0
% es.tEZ (V/m) @ t=0.86
-3.1653206041446964
% es.Ex (V/m) @ t=0.86
-0.9912582752960721
% es.Ey (V/m) @ t=0.86
0.07403545243609155
% es.Ez (V/m) @ t=0.86
-3.1653206041446555
% es.tEx (V/m) @ t=0.86
-0.991258275296083
% es.tEy (V/m) @ t=0.86
0
% es.tEz (V/m) @ t=0.86
-3.1653206041446964
% V (V) @ t=0.86
0.016702266436749345
% es.normE (V/m) @ t=0.88
3.3534420311814537
% es.EX (V/m) @ t=0.88
-1.000393213285057
% es.EY (V/m) @ t=0.88
0.0747175620581685
% es.EZ (V/m) @ t=0.88
-3.1944910864288945
% es.tEX (V/m) @ t=0.88
-1.000393213285065
% es.tEY (V/m) @ t=0.88
0
% es.tEZ (V/m) @ t=0.88
-3.19449108642892
% es.Ex (V/m) @ t=0.88
-1.000393213285057
% es.Ey (V/m) @ t=0.88
0.0747175620581685
% es.Ez (V/m) @ t=0.88
-3.1944910864288945
% es.tEx (V/m) @ t=0.88
-1.000393213285065
% es.tEy (V/m) @ t=0.88
0
% es.tEz (V/m) @ t=0.88
-3.19449108642892
% V (V) @ t=0.88
0.016856196996966753
% es.normE (V/m) @ t=0.9
3.3840639287552694
% es.EX (V/m) @ t=0.9
-1.0095281512740188
% es.EY (V/m) @ t=0.9
0.07539967168023115
% es.EZ (V/m) @ t=0.9
-3.2236615687131174
% es.tEX (V/m) @ t=0.9
-1.0095281512740328
% es.tEY (V/m) @ t=0.9
0
% es.tEZ (V/m) @ t=0.9
-3.2236615687131565
% es.Ex (V/m) @ t=0.9
-1.0095281512740188
% es.Ey (V/m) @ t=0.9
0.07539967168023115
% es.Ez (V/m) @ t=0.9
-3.2236615687131174
% es.tEx (V/m) @ t=0.9
-1.0095281512740328
% es.tEy (V/m) @ t=0.9
0
% es.tEz (V/m) @ t=0.9
-3.2236615687131565
% V (V) @ t=0.9
0.01701012755718416
% es.normE (V/m) @ t=0.92
3.4146858263291624
% es.EX (V/m) @ t=0.92
-1.018663089263004
% es.EY (V/m) @ t=0.92
0.07608178130231462
% es.EZ (V/m) @ t=0.92
-3.252832050997398
% es.tEX (V/m) @ t=0.92
-1.0186630892630077
% es.tEY (V/m) @ t=0.92
0
% es.tEZ (V/m) @ t=0.92
-3.2528320509974353
% es.Ex (V/m) @ t=0.92
-1.018663089263004
% es.Ey (V/m) @ t=0.92
0.07608178130231462
% es.Ez (V/m) @ t=0.92
-3.252832050997398
% es.tEx (V/m) @ t=0.92
-1.0186630892630077
% es.tEy (V/m) @ t=0.92
0
% es.tEz (V/m) @ t=0.92
-3.2528320509974353
% V (V) @ t=0.92
0.01716405811740157
% es.normE (V/m) @ t=0.94
3.4453077239030563
% es.EX (V/m) @ t=0.94
-1.0277980272519818
% es.EY (V/m) @ t=0.94
0.07676389092438039
% es.EZ (V/m) @ t=0.94
-3.2820025332816645
% es.tEX (V/m) @ t=0.94
-1.0277980272519898
% es.tEY (V/m) @ t=0.94
0
% es.tEZ (V/m) @ t=0.94
-3.2820025332816876
% es.Ex (V/m) @ t=0.94
-1.0277980272519818
% es.Ey (V/m) @ t=0.94
0.07676389092438039
% es.Ez (V/m) @ t=0.94
-3.2820025332816645
% es.tEx (V/m) @ t=0.94
-1.0277980272519898
% es.tEy (V/m) @ t=0.94
0
% es.tEz (V/m) @ t=0.94
-3.2820025332816876
% V (V) @ t=0.94
0.017317988677618985
% es.normE (V/m) @ t=0.96
3.475929621476949
% es.EX (V/m) @ t=0.96
-1.036932965240954
% es.EY (V/m) @ t=0.96
0.07744600054644712
% es.EZ (V/m) @ t=0.96
-3.3111730155659167
% es.tEX (V/m) @ t=0.96
-1.0369329652409647
% es.tEY (V/m) @ t=0.96
0
% es.tEZ (V/m) @ t=0.96
-3.3111730155659505
% es.Ex (V/m) @ t=0.96
-1.036932965240954
% es.Ey (V/m) @ t=0.96
0.07744600054644712
% es.Ez (V/m) @ t=0.96
-3.3111730155659167
% es.tEx (V/m) @ t=0.96
-1.0369329652409647
% es.tEy (V/m) @ t=0.96
0
% es.tEz (V/m) @ t=0.96
-3.3111730155659505
% V (V) @ t=0.96
0.017471919237836392
% es.normE (V/m) @ t=0.98
3.5065515190508716
% es.EX (V/m) @ t=0.98
-1.0460679032299303
% es.EY (V/m) @ t=0.98
0.0781281101685342
% es.EZ (V/m) @ t=0.98
-3.340343497850183
% es.tEX (V/m) @ t=0.98
-1.0460679032299467
% es.tEY (V/m) @ t=0.98
0
% es.tEZ (V/m) @ t=0.98
-3.340343497850217
% es.Ex (V/m) @ t=0.98
-1.0460679032299303
% es.Ey (V/m) @ t=0.98
0.0781281101685342
% es.Ez (V/m) @ t=0.98
-3.340343497850183
% es.tEx (V/m) @ t=0.98
-1.0460679032299467
% es.tEy (V/m) @ t=0.98
0
% es.tEz (V/m) @ t=0.98
-3.340343497850217
% V (V) @ t=0.98
0.0176258497980538
% es.normE (V/m) @ t=1
3.537173416624767
% es.EX (V/m) @ t=1
-1.0552028412189065
% es.EY (V/m) @ t=1
0.0788102197905791
% es.EZ (V/m) @ t=1
-3.369513980134407
% es.tEX (V/m) @ t=1
-1.0552028412189216
% es.tEY (V/m) @ t=1
0
% es.tEZ (V/m) @ t=1
-3.3695139801344514
% es.Ex (V/m) @ t=1
-1.0552028412189065
% es.Ey (V/m) @ t=1
0.0788102197905791
% es.Ez (V/m) @ t=1
-3.369513980134407
% es.tEx (V/m) @ t=1
-1.0552028412189216
% es.tEy (V/m) @ t=1
0
% es.tEz (V/m) @ t=1
-3.3695139801344514
% V (V) @ t=1
0.01777978035827121
% es.normE (V/m) @ t=1.02
3.5677953141987127
% es.EX (V/m) @ t=1.02
-1.0643377792078665
% es.EY (V/m) @ t=1.02
0.07949232941265547
% es.EZ (V/m) @ t=1.02
-3.3986844624186725
% es.tEX (V/m) @ t=1.02
-1.0643377792078752
% es.tEY (V/m) @ t=1.02
0
% es.tEZ (V/m) @ t=1.02
-3.398684462418702
% es.Ex (V/m) @ t=1.02
-1.0643377792078665
% es.Ey (V/m) @ t=1.02
0.07949232941265547
% es.Ez (V/m) @ t=1.02
-3.3986844624186725
% es.tEx (V/m) @ t=1.02
-1.0643377792078752
% es.tEy (V/m) @ t=1.02
0
% es.tEz (V/m) @ t=1.02
-3.398684462418702
% V (V) @ t=1.02
0.01793371091848862
% es.normE (V/m) @ t=1.04
3.5992194359545784
% es.EX (V/m) @ t=1.04
-1.073712135516217