% Model:              1 neuron.mph
% Version:            COMSOL 6.1.0.252
% Date:               Mar 27 2023, 14:33
% Dimension:          0
% Nodes:              14017
% Expressions:        14017
% Description:        Electric field norm, Electric field, X component, Electric field, Y component, Electric field, Z component, Tangential electric field, X component, Tangential electric field, Y component, Tangential electric field, Z component, Electric field, x component, Electric field, y component, Electric field, z component, Tangential electric field, x component, Tangential electric field, y component, Tangential electric field, z component, Electric potential
% Length unit:        mm
% x
2
% y
12.199999999999998
% z
2
% es.normE (V/m) @ t=0
1.314184127961341
% es.EX (V/m) @ t=0
-0.9408341117784687
% es.EY (V/m) @ t=0
0.3583024278435758
% es.EZ (V/m) @ t=0
-0.8395519511082385
% es.tEX (V/m) @ t=0
-0.9408341117784622
% es.tEY (V/m) @ t=0
0
% es.tEZ (V/m) @ t=0
-0.8395519511082323
% es.Ex (V/m) @ t=0
-0.9408341117784687
% es.Ey (V/m) @ t=0
0.3583024278435758
% es.Ez (V/m) @ t=0
-0.8395519511082385
% es.tEx (V/m) @ t=0
-0.9408341117784622
% es.tEy (V/m) @ t=0
0
% es.tEz (V/m) @ t=0
-0.8395519511082323
% V (V) @ t=0
0.013374209337262147
% es.normE (V/m) @ t=0.02
1.1350732770955982
% es.EX (V/m) @ t=0.02
-0.812607332310076
% es.EY (V/m) @ t=0.02
0.3094692004543107
% es.EZ (V/m) @ t=0.02
-0.7251289709325865
% es.tEX (V/m) @ t=0.02
-0.81260733231007
% es.tEY (V/m) @ t=0.02
0
% es.tEZ (V/m) @ t=0.02
-0.725128970932591
% es.Ex (V/m) @ t=0.02
-0.812607332310076
% es.Ey (V/m) @ t=0.02
0.3094692004543107
% es.Ez (V/m) @ t=0.02
-0.7251289709325865
% es.tEx (V/m) @ t=0.02
-0.81260733231007
% es.tEy (V/m) @ t=0.02
0
% es.tEz (V/m) @ t=0.02
-0.725128970932591
% V (V) @ t=0.02
0.01155143125202933
% es.normE (V/m) @ t=0.04
1.1455139874249536
% es.EX (V/m) @ t=0.04
-0.8200819137626896
% es.EY (V/m) @ t=0.04
0.312315782129277
% es.EZ (V/m) @ t=0.04
-0.7317989027644911
% es.tEX (V/m) @ t=0.04
-0.8200819137626825
% es.tEY (V/m) @ t=0.04
0
% es.tEZ (V/m) @ t=0.04
-0.7317989027644991
% es.Ex (V/m) @ t=0.04
-0.8200819137626896
% es.Ey (V/m) @ t=0.04
0.312315782129277
% es.Ez (V/m) @ t=0.04
-0.7317989027644911
% es.tEx (V/m) @ t=0.04
-0.8200819137626825
% es.tEy (V/m) @ t=0.04
0
% es.tEz (V/m) @ t=0.04
-0.7317989027644991
% V (V) @ t=0.04
0.011657684416265265
% es.normE (V/m) @ t=0.06
1.1560330914927448
% es.EX (V/m) @ t=0.06
-0.8276126181289725
% es.EY (V/m) @ t=0.06
0.3151837359524172
% es.EZ (V/m) @ t=0.06
-0.7385189159722314
% es.tEX (V/m) @ t=0.06
-0.8276126181289674
% es.tEY (V/m) @ t=0.06
0
% es.tEZ (V/m) @ t=0.06
-0.7385189159722287
% es.Ex (V/m) @ t=0.06
-0.8276126181289725
% es.Ey (V/m) @ t=0.06
0.3151837359524172
% es.Ez (V/m) @ t=0.06
-0.7385189159722314
% es.tEx (V/m) @ t=0.06
-0.8276126181289674
% es.tEy (V/m) @ t=0.06
0
% es.tEz (V/m) @ t=0.06
-0.7385189159722287
% V (V) @ t=0.06
0.01176473543054873
% es.normE (V/m) @ t=0.08
1.1667487941997168
% es.EX (V/m) @ t=0.08
-0.8352840687740197
% es.EY (V/m) @ t=0.08
0.31810529163549717
% es.EZ (V/m) @ t=0.08
-0.7453645238143052
% es.tEX (V/m) @ t=0.08
-0.8352840687740177
% es.tEY (V/m) @ t=0.08
0
% es.tEZ (V/m) @ t=0.08
-0.7453645238143132
% es.Ex (V/m) @ t=0.08
-0.8352840687740197
% es.Ey (V/m) @ t=0.08
0.31810529163549717
% es.Ez (V/m) @ t=0.08
-0.7453645238143052
% es.tEx (V/m) @ t=0.08
-0.8352840687740177
% es.tEy (V/m) @ t=0.08
0
% es.tEz (V/m) @ t=0.08
-0.7453645238143132
% V (V) @ t=0.08
0.011873787165057515
% es.normE (V/m) @ t=0.1
1.177525915999506
% es.EX (V/m) @ t=0.1
-0.8429994897578044
% es.EY (V/m) @ t=0.1
0.32104359299711893
% es.EZ (V/m) @ t=0.1
-0.752249368492067
% es.tEX (V/m) @ t=0.1
-0.8429994897578053
% es.tEY (V/m) @ t=0.1
0
% es.tEZ (V/m) @ t=0.1
-0.7522493684920644
% es.Ex (V/m) @ t=0.1
-0.8429994897578044
% es.Ey (V/m) @ t=0.1
0.32104359299711893
% es.Ez (V/m) @ t=0.1
-0.752249368492067
% es.tEx (V/m) @ t=0.1
-0.8429994897578053
% es.tEy (V/m) @ t=0.1
0
% es.tEz (V/m) @ t=0.1
-0.7522493684920644
% V (V) @ t=0.1
0.011983463941640285
% es.normE (V/m) @ t=0.12
1.1883030377992934
% es.EX (V/m) @ t=0.12
-0.8507149107415808
% es.EY (V/m) @ t=0.12
0.32398189435874336
% es.EZ (V/m) @ t=0.12
-0.7591342131698298
% es.tEX (V/m) @ t=0.12
-0.8507149107415817
% es.tEY (V/m) @ t=0.12
0
% es.tEZ (V/m) @ t=0.12
-0.7591342131698404
% es.Ex (V/m) @ t=0.12
-0.8507149107415808
% es.Ey (V/m) @ t=0.12
0.32398189435874336
% es.Ez (V/m) @ t=0.12
-0.7591342131698298
% es.tEx (V/m) @ t=0.12
-0.8507149107415817
% es.tEy (V/m) @ t=0.12
0
% es.tEz (V/m) @ t=0.12
-0.7591342131698404
% V (V) @ t=0.12
0.012093140718223056
% es.normE (V/m) @ t=0.14
1.1993704752152414
% es.EX (V/m) @ t=0.14
-0.8586381708280582
% es.EY (V/m) @ t=0.14
0.32699934809218956
% es.EZ (V/m) @ t=0.14
-0.7662045227456442
% es.tEX (V/m) @ t=0.14
-0.8586381708280539
% es.tEY (V/m) @ t=0.14
0
% es.tEZ (V/m) @ t=0.14
-0.7662045227456442
% es.Ex (V/m) @ t=0.14
-0.8586381708280582
% es.Ey (V/m) @ t=0.14
0.32699934809218956
% es.Ez (V/m) @ t=0.14
-0.7662045227456442
% es.tEx (V/m) @ t=0.14
-0.8586381708280539
% es.tEy (V/m) @ t=0.14
0
% es.tEz (V/m) @ t=0.14
-0.7662045227456442
% V (V) @ t=0.14
0.012205771984553162
% es.normE (V/m) @ t=0.16
1.2106918968203273
% es.EX (V/m) @ t=0.16
-0.8667432600792118
% es.EY (V/m) @ t=0.16
0.33008604870679603
% es.EZ (V/m) @ t=0.16
-0.773437087291958
% es.tEX (V/m) @ t=0.16
-0.8667432600792062
% es.tEY (V/m) @ t=0.16
0
% es.tEZ (V/m) @ t=0.16
-0.7734370872919527
% es.Ex (V/m) @ t=0.16
-0.8667432600792118
% es.Ey (V/m) @ t=0.16
0.33008604870679603
% es.Ez (V/m) @ t=0.16
-0.773437087291958
% es.tEx (V/m) @ t=0.16
-0.8667432600792062
% es.tEy (V/m) @ t=0.16
0
% es.tEz (V/m) @ t=0.16
-0.7734370872919527
% V (V) @ t=0.16
0.012320988002240345
% es.normE (V/m) @ t=0.18
1.2220133184254167
% es.EX (V/m) @ t=0.18
-0.8748483493303476
% es.EY (V/m) @ t=0.18
0.33317274932143226
% es.EZ (V/m) @ t=0.18
-0.7806696518382843
% es.tEX (V/m) @ t=0.18
-0.8748483493303438
% es.tEY (V/m) @ t=0.18
0
% es.tEZ (V/m) @ t=0.18
-0.7806696518382967
% es.Ex (V/m) @ t=0.18
-0.8748483493303476
% es.Ey (V/m) @ t=0.18
0.33317274932143226
% es.Ez (V/m) @ t=0.18
-0.7806696518382843
% es.tEx (V/m) @ t=0.18
-0.8748483493303438
% es.tEy (V/m) @ t=0.18
0
% es.tEz (V/m) @ t=0.18
-0.7806696518382967
% V (V) @ t=0.18
0.012436204019927522
% es.normE (V/m) @ t=0.2
1.2333347400305088
% es.EX (V/m) @ t=0.2
-0.882953438581483
% es.EY (V/m) @ t=0.2
0.3362594499360392
% es.EZ (V/m) @ t=0.2
-0.7879022163846248
% es.tEX (V/m) @ t=0.2
-0.8829534385814877
% es.tEY (V/m) @ t=0.2
0
% es.tEZ (V/m) @ t=0.2
-0.7879022163846265
% es.Ex (V/m) @ t=0.2
-0.882953438581483
% es.Ey (V/m) @ t=0.2
0.3362594499360392
% es.Ez (V/m) @ t=0.2
-0.7879022163846248
% es.tEx (V/m) @ t=0.2
-0.8829534385814877
% es.tEy (V/m) @ t=0.2
0
% es.tEz (V/m) @ t=0.2
-0.7879022163846265
% V (V) @ t=0.2
0.012551420037614704
% es.normE (V/m) @ t=0.22
1.2446561616356013
% es.EX (V/m) @ t=0.22
-0.8910585278326291
% es.EY (V/m) @ t=0.22
0.3393461505506816
% es.EZ (V/m) @ t=0.22
-0.795134780930943
% es.tEX (V/m) @ t=0.22
-0.891058527832632
% es.tEY (V/m) @ t=0.22
0
% es.tEZ (V/m) @ t=0.22
-0.7951347809309404
% es.Ex (V/m) @ t=0.22
-0.8910585278326291
% es.Ey (V/m) @ t=0.22
0.3393461505506816
% es.Ez (V/m) @ t=0.22
-0.795134780930943
% es.tEx (V/m) @ t=0.22
-0.891058527832632
% es.tEy (V/m) @ t=0.22
0
% es.tEz (V/m) @ t=0.22
-0.7951347809309404
% V (V) @ t=0.22
0.012666636055301883
% es.normE (V/m) @ t=0.24
1.255977583240688
% es.EX (V/m) @ t=0.24
-0.8991636170837671
% es.EY (V/m) @ t=0.24
0.342432851165301
% es.EZ (V/m) @ t=0.24
-0.8023673454772684
% es.tEX (V/m) @ t=0.24
-0.8991636170837705
% es.tEY (V/m) @ t=0.24
0
% es.tEZ (V/m) @ t=0.24
-0.8023673454772791
% es.Ex (V/m) @ t=0.24
-0.8991636170837671
% es.Ey (V/m) @ t=0.24
0.342432851165301
% es.Ez (V/m) @ t=0.24
-0.8023673454772684
% es.tEx (V/m) @ t=0.24
-0.8991636170837705
% es.tEy (V/m) @ t=0.24
0
% es.tEz (V/m) @ t=0.24
-0.8023673454772791
% V (V) @ t=0.24
0.012781852072989064
% es.normE (V/m) @ t=0.26
1.2673917037045241
% es.EX (V/m) @ t=0.26
-0.9073350701044911
% es.EY (V/m) @ t=0.26
0.34554482529974484
% es.EZ (V/m) @ t=0.26
-0.8096591297568816
% es.tEX (V/m) @ t=0.26
-0.90733507010449
% es.tEY (V/m) @ t=0.26
0
% es.tEZ (V/m) @ t=0.26
-0.809659129756886
% es.Ex (V/m) @ t=0.26
-0.9073350701044911
% es.Ey (V/m) @ t=0.26
0.34554482529974484
% es.Ez (V/m) @ t=0.26
-0.8096591297568816
% es.tEx (V/m) @ t=0.26
-0.90733507010449
% es.tEy (V/m) @ t=0.26
0
% es.tEz (V/m) @ t=0.26
-0.809659129756886
% V (V) @ t=0.26
0.0128980114698945
% es.normE (V/m) @ t=0.28
1.2799295233969774
% es.EX (V/m) @ t=0.28
-0.9163109873623168
% es.EY (V/m) @ t=0.28
0.34896316604027255
% es.EZ (V/m) @ t=0.28
-0.8176687779834042
% es.tEX (V/m) @ t=0.28
-0.9163109873623156
% es.tEY (V/m) @ t=0.28
0
% es.tEZ (V/m) @ t=0.28
-0.817668777983398
% es.Ex (V/m) @ t=0.28
-0.9163109873623168
% es.Ey (V/m) @ t=0.28
0.34896316604027255
% es.Ez (V/m) @ t=0.28
-0.8176687779834042
% es.tEx (V/m) @ t=0.28
-0.9163109873623156
% es.tEy (V/m) @ t=0.28
0
% es.tEz (V/m) @ t=0.28
-0.817668777983398
% V (V) @ t=0.28
0.01302560654696176
% es.normE (V/m) @ t=0.3
1.2924673430894282
% es.EX (V/m) @ t=0.3
-0.9252869046201353
% es.EY (V/m) @ t=0.3
0.3523815067808167
% es.EZ (V/m) @ t=0.3
-0.8256784262099277
% es.tEX (V/m) @ t=0.3
-0.9252869046201311
% es.tEY (V/m) @ t=0.3
0
% es.tEZ (V/m) @ t=0.3
-0.8256784262099313
% es.Ex (V/m) @ t=0.3
-0.9252869046201353
% es.Ey (V/m) @ t=0.3
0.3523815067808167
% es.Ez (V/m) @ t=0.3
-0.8256784262099277
% es.tEx (V/m) @ t=0.3
-0.9252869046201311
% es.tEy (V/m) @ t=0.3
0
% es.tEz (V/m) @ t=0.3
-0.8256784262099313
% V (V) @ t=0.3
0.013153201624029017
% es.normE (V/m) @ t=0.32
1.3050051627818626
% es.EX (V/m) @ t=0.32
-0.9342628218779438
% es.EY (V/m) @ t=0.32
0.3557998475213173
% es.EZ (V/m) @ t=0.32
-0.833688074436453
% es.tEX (V/m) @ t=0.32
-0.9342628218779367
% es.tEY (V/m) @ t=0.32
0
% es.tEZ (V/m) @ t=0.32
-0.8336880744364592
% es.Ex (V/m) @ t=0.32
-0.9342628218779438
% es.Ey (V/m) @ t=0.32
0.3557998475213173
% es.Ez (V/m) @ t=0.32
-0.833688074436453
% es.tEx (V/m) @ t=0.32
-0.9342628218779367
% es.tEy (V/m) @ t=0.32
0
% es.tEz (V/m) @ t=0.32
-0.8336880744364592
% V (V) @ t=0.32
0.013280796701096276
% es.normE (V/m) @ t=0.34
1.3175429824743206
% es.EX (V/m) @ t=0.34
-0.9432387391357817
% es.EY (V/m) @ t=0.34
0.3592181882618415
% es.EZ (V/m) @ t=0.34
-0.8416977226629729
% es.tEX (V/m) @ t=0.34
-0.9432387391357824
% es.tEY (V/m) @ t=0.34
0
% es.tEZ (V/m) @ t=0.34
-0.8416977226629765
% es.Ex (V/m) @ t=0.34
-0.9432387391357817
% es.Ey (V/m) @ t=0.34
0.3592181882618415
% es.Ez (V/m) @ t=0.34
-0.8416977226629729
% es.tEx (V/m) @ t=0.34
-0.9432387391357824
% es.tEy (V/m) @ t=0.34
0
% es.tEz (V/m) @ t=0.34
-0.8416977226629765
% V (V) @ t=0.34
0.013408391778163537
% es.normE (V/m) @ t=0.36
1.3300808021667716
% es.EX (V/m) @ t=0.36
-0.9522146563935967
% es.EY (V/m) @ t=0.36
0.3626365290023652
% es.EZ (V/m) @ t=0.36
-0.849707370889508
% es.tEX (V/m) @ t=0.36
-0.9522146563935951
% es.tEY (V/m) @ t=0.36
0
% es.tEZ (V/m) @ t=0.36
-0.8497073708895098
% es.Ex (V/m) @ t=0.36
-0.9522146563935967
% es.Ey (V/m) @ t=0.36
0.3626365290023652
% es.Ez (V/m) @ t=0.36
-0.849707370889508
% es.tEx (V/m) @ t=0.36
-0.9522146563935951
% es.tEy (V/m) @ t=0.36
0
% es.tEz (V/m) @ t=0.36
-0.8497073708895098
% V (V) @ t=0.36
0.013535986855230796
% es.normE (V/m) @ t=0.38
1.3426186218592313
% es.EX (V/m) @ t=0.38
-0.9611905736514317
% es.EY (V/m) @ t=0.38
0.366054869742904
% es.EZ (V/m) @ t=0.38
-0.8577170191160262
% es.tEX (V/m) @ t=0.38
-0.9611905736514244
% es.tEY (V/m) @ t=0.38
0
% es.tEZ (V/m) @ t=0.38
-0.8577170191160217
% es.Ex (V/m) @ t=0.38
-0.9611905736514317
% es.Ey (V/m) @ t=0.38
0.366054869742904
% es.Ez (V/m) @ t=0.38
-0.8577170191160262
% es.tEx (V/m) @ t=0.38
-0.9611905736514244
% es.tEy (V/m) @ t=0.38
0
% es.tEz (V/m) @ t=0.38
-0.8577170191160217
% V (V) @ t=0.38
0.01366358193229806
% es.normE (V/m) @ t=0.4
1.355156441551666
% es.EX (V/m) @ t=0.4
-0.9701664909092285
% es.EY (V/m) @ t=0.4
0.36947321048342197
% es.EZ (V/m) @ t=0.4
-0.8657266673425559
% es.tEX (V/m) @ t=0.4
-0.9701664909092211
% es.tEY (V/m) @ t=0.4
0
% es.tEZ (V/m) @ t=0.4
-0.865726667342555
% es.Ex (V/m) @ t=0.4
-0.9701664909092285
% es.Ey (V/m) @ t=0.4
0.36947321048342197
% es.Ez (V/m) @ t=0.4
-0.8657266673425559
% es.tEx (V/m) @ t=0.4
-0.9701664909092211
% es.tEy (V/m) @ t=0.4
0
% es.tEz (V/m) @ t=0.4
-0.865726667342555
% V (V) @ t=0.4
0.013791177009365317
% es.normE (V/m) @ t=0.42
1.3676942612441354
% es.EX (V/m) @ t=0.42
-0.9791424081670741
% es.EY (V/m) @ t=0.42
0.37289155122396345
% es.EZ (V/m) @ t=0.42
-0.8737363155690785
% es.tEX (V/m) @ t=0.42
-0.9791424081670757
% es.tEY (V/m) @ t=0.42
0
% es.tEZ (V/m) @ t=0.42
-0.8737363155690829
% es.Ex (V/m) @ t=0.42
-0.9791424081670741
% es.Ey (V/m) @ t=0.42
0.37289155122396345
% es.Ez (V/m) @ t=0.42
-0.8737363155690785
% es.tEx (V/m) @ t=0.42
-0.9791424081670757
% es.tEy (V/m) @ t=0.42
0
% es.tEz (V/m) @ t=0.42
-0.8737363155690829
% V (V) @ t=0.42
0.01391877208643258
% es.normE (V/m) @ t=0.44
1.3802320809365771
% es.EX (V/m) @ t=0.44
-0.988118325424882
% es.EY (V/m) @ t=0.44
0.37630989196449427
% es.EZ (V/m) @ t=0.44
-0.8817459637956038
% es.tEX (V/m) @ t=0.44
-0.9881183254248884
% es.tEY (V/m) @ t=0.44
0
% es.tEZ (V/m) @ t=0.44
-0.881745963795602
% es.Ex (V/m) @ t=0.44
-0.988118325424882
% es.Ey (V/m) @ t=0.44
0.37630989196449427
% es.Ez (V/m) @ t=0.44
-0.8817459637956038
% es.tEx (V/m) @ t=0.44
-0.9881183254248884
% es.tEy (V/m) @ t=0.44
0
% es.tEz (V/m) @ t=0.44
-0.881745963795602
% V (V) @ t=0.44
0.014046367163499836
% es.normE (V/m) @ t=0.46
1.3927699006290224
% es.EX (V/m) @ t=0.46
-0.9970942426827134
% es.EY (V/m) @ t=0.46
0.379728232705018
% es.EZ (V/m) @ t=0.46
-0.8897556120221104
% es.tEX (V/m) @ t=0.46
-0.9970942426827105
% es.tEY (V/m) @ t=0.46
0
% es.tEZ (V/m) @ t=0.46
-0.889755612022114
% es.Ex (V/m) @ t=0.46
-0.9970942426827134
% es.Ey (V/m) @ t=0.46
0.379728232705018
% es.Ez (V/m) @ t=0.46
-0.8897556120221104
% es.tEx (V/m) @ t=0.46
-0.9970942426827105
% es.tEy (V/m) @ t=0.46
0
% es.tEz (V/m) @ t=0.46
-0.889755612022114
% V (V) @ t=0.46
0.0141739622405671
% es.normE (V/m) @ t=0.48
1.40530772032147
% es.EX (V/m) @ t=0.48
-1.0060701599405142
% es.EY (V/m) @ t=0.48
0.38314657344553593
% es.EZ (V/m) @ t=0.48
-0.8977652602486588
% es.tEX (V/m) @ t=0.48
-1.0060701599405184
% es.tEY (V/m) @ t=0.48
0
% es.tEZ (V/m) @ t=0.48
-0.8977652602486614
% es.Ex (V/m) @ t=0.48
-1.0060701599405142
% es.Ey (V/m) @ t=0.48
0.38314657344553593
% es.Ez (V/m) @ t=0.48
-0.8977652602486588
% es.tEx (V/m) @ t=0.48
-1.0060701599405184
% es.tEy (V/m) @ t=0.48
0
% es.tEz (V/m) @ t=0.48
-0.8977652602486614
% V (V) @ t=0.48
0.014301557317634356
% es.normE (V/m) @ t=0.5
1.4178455400139147
% es.EX (V/m) @ t=0.5
-1.0150460771983378
% es.EY (V/m) @ t=0.5
0.38656491418605965
% es.EZ (V/m) @ t=0.5
-0.9057749084751716
% es.tEX (V/m) @ t=0.5
-1.0150460771983334
% es.tEY (V/m) @ t=0.5
0
% es.tEZ (V/m) @ t=0.5
-0.9057749084751716
% es.Ex (V/m) @ t=0.5
-1.0150460771983378
% es.Ey (V/m) @ t=0.5
0.38656491418605965
% es.Ez (V/m) @ t=0.5
-0.9057749084751716
% es.tEx (V/m) @ t=0.5
-1.0150460771983334
% es.tEy (V/m) @ t=0.5
0
% es.tEz (V/m) @ t=0.5
-0.9057749084751716
% V (V) @ t=0.5
0.014429152394701618
% es.normE (V/m) @ t=0.52
1.4306050256716834
% es.EX (V/m) @ t=0.52
-1.0241806868069012
% es.EY (V/m) @ t=0.52
0.39004369068417555
% es.EZ (V/m) @ t=0.52
-0.9139261653866342
% es.tEX (V/m) @ t=0.52
-1.024180686806901
% es.tEY (V/m) @ t=0.52
0
% es.tEZ (V/m) @ t=0.52
-0.9139261653866431
% es.Ex (V/m) @ t=0.52
-1.0241806868069012
% es.Ey (V/m) @ t=0.52
0.39004369068417555
% es.Ez (V/m) @ t=0.52
-0.9139261653866342
% es.tEx (V/m) @ t=0.52
-1.024180686806901
% es.tEy (V/m) @ t=0.52
0
% es.tEz (V/m) @ t=0.52
-0.9139261653866431
% V (V) @ t=0.52
0.014559003325953172
% es.normE (V/m) @ t=0.54
1.4445122182536205
% es.EX (V/m) @ t=0.54
-1.0341369485328584
% es.EY (V/m) @ t=0.54
0.39383538187509703
% es.EZ (V/m) @ t=0.54
-0.9228106213166978
% es.tEX (V/m) @ t=0.54
-1.0341369485328538
% es.tEY (V/m) @ t=0.54
0
% es.tEZ (V/m) @ t=0.54
-0.9228106213167049
% es.Ex (V/m) @ t=0.54
-1.0341369485328584
% es.Ey (V/m) @ t=0.54
0.39383538187509703
% es.Ez (V/m) @ t=0.54
-0.9228106213166978
% es.tEx (V/m) @ t=0.54
-1.0341369485328538
% es.tEy (V/m) @ t=0.54
0
% es.tEz (V/m) @ t=0.54
-0.9228106213167049
% V (V) @ t=0.54
0.014700534261681164
% es.normE (V/m) @ t=0.56
1.4584194108355633
% es.EX (V/m) @ t=0.56
-1.0440932102588187
% es.EY (V/m) @ t=0.56
0.39762707306601186
% es.EZ (V/m) @ t=0.56
-0.9316950772467685
% es.tEX (V/m) @ t=0.56
-1.0440932102588132
% es.tEY (V/m) @ t=0.56
0
% es.tEZ (V/m) @ t=0.56
-0.9316950772467649
% es.Ex (V/m) @ t=0.56
-1.0440932102588187
% es.Ey (V/m) @ t=0.56
0.39762707306601186
% es.Ez (V/m) @ t=0.56
-0.9316950772467685
% es.tEx (V/m) @ t=0.56
-1.0440932102588132
% es.tEy (V/m) @ t=0.56
0
% es.tEz (V/m) @ t=0.56
-0.9316950772467649
% V (V) @ t=0.56
0.014842065197409155
% es.normE (V/m) @ t=0.58
1.4723266034174989
% es.EX (V/m) @ t=0.58
-1.0540494719847795
% es.EY (V/m) @ t=0.58
0.40141876425694445
% es.EZ (V/m) @ t=0.58
-0.9405795331768214
% es.tEX (V/m) @ t=0.58
-1.0540494719847748
% es.tEY (V/m) @ t=0.58
0
% es.tEZ (V/m) @ t=0.58
-0.9405795331768267
% es.Ex (V/m) @ t=0.58
-1.0540494719847795
% es.Ey (V/m) @ t=0.58
0.40141876425694445
% es.Ez (V/m) @ t=0.58
-0.9405795331768214
% es.tEx (V/m) @ t=0.58
-1.0540494719847748
% es.tEy (V/m) @ t=0.58
0
% es.tEz (V/m) @ t=0.58
-0.9405795331768267
% V (V) @ t=0.58
0.01498359613313715
% es.normE (V/m) @ t=0.6
1.486233795999427
% es.EX (V/m) @ t=0.6
-1.0640057337107278
% es.EY (V/m) @ t=0.6
0.4052104554478517
% es.EZ (V/m) @ t=0.6
-0.9494639891068886
% es.tEX (V/m) @ t=0.6
-1.0640057337107285
% es.tEY (V/m) @ t=0.6
0
% es.tEZ (V/m) @ t=0.6
-0.9494639891068957
% es.Ex (V/m) @ t=0.6
-1.0640057337107278
% es.Ey (V/m) @ t=0.6
0.4052104554478517
% es.Ez (V/m) @ t=0.6
-0.9494639891068886
% es.tEx (V/m) @ t=0.6
-1.0640057337107285
% es.tEy (V/m) @ t=0.6
0
% es.tEz (V/m) @ t=0.6
-0.9494639891068957
% V (V) @ t=0.6
0.015125127068865138
% es.normE (V/m) @ t=0.62
1.5001409885813684
% es.EX (V/m) @ t=0.62
-1.0739619954366864
% es.EY (V/m) @ t=0.62
0.409002146638783
% es.EZ (V/m) @ t=0.62
-0.9583484450369522
% es.tEX (V/m) @ t=0.62
-1.0739619954366844
% es.tEY (V/m) @ t=0.62
0
% es.tEZ (V/m) @ t=0.62
-0.9583484450369504
% es.Ex (V/m) @ t=0.62
-1.0739619954366864
% es.Ey (V/m) @ t=0.62
0.409002146638783
% es.Ez (V/m) @ t=0.62
-0.9583484450369522
% es.tEx (V/m) @ t=0.62
-1.0739619954366844
% es.tEy (V/m) @ t=0.62
0
% es.tEz (V/m) @ t=0.62
-0.9583484450369504
% V (V) @ t=0.62
0.01526665800459313
% es.normE (V/m) @ t=0.64
1.514048181163305
% es.EX (V/m) @ t=0.64
-1.0839182571626524
% es.EY (V/m) @ t=0.64
0.41279383782971024
% es.EZ (V/m) @ t=0.64
-0.9672329009670015
% es.tEX (V/m) @ t=0.64
-1.0839182571626491
% es.tEY (V/m) @ t=0.64
0
% es.tEZ (V/m) @ t=0.64
-0.9672329009670033
% es.Ex (V/m) @ t=0.64
-1.0839182571626524
% es.Ey (V/m) @ t=0.64
0.41279383782971024
% es.Ez (V/m) @ t=0.64
-0.9672329009670015
% es.tEx (V/m) @ t=0.64
-1.0839182571626491
% es.tEy (V/m) @ t=0.64
0
% es.tEz (V/m) @ t=0.64
-0.9672329009670033
% V (V) @ t=0.64
0.015408188940321123
% es.normE (V/m) @ t=0.66
1.5279553737452383
% es.EX (V/m) @ t=0.66
-1.0938745188885972
% es.EY (V/m) @ t=0.66
0.41658552902063306
% es.EZ (V/m) @ t=0.66
-0.976117356897074
% es.tEX (V/m) @ t=0.66
-1.0938745188885952
% es.tEY (V/m) @ t=0.66
0
% es.tEZ (V/m) @ t=0.66
-0.9761173568970793
% es.Ex (V/m) @ t=0.66
-1.0938745188885972
% es.Ey (V/m) @ t=0.66
0.41658552902063306
% es.Ez (V/m) @ t=0.66
-0.976117356897074
% es.tEx (V/m) @ t=0.66
-1.0938745188885952
% es.tEy (V/m) @ t=0.66
0
% es.tEz (V/m) @ t=0.66
-0.9761173568970793
% V (V) @ t=0.66
0.01554971987604911
% es.normE (V/m) @ t=0.68
1.541862566327164
% es.EX (V/m) @ t=0.68
-1.1038307806145504
% es.EY (V/m) @ t=0.68
0.4203772202115532
% es.EZ (V/m) @ t=0.68
-0.9850018128271252
% es.tEX (V/m) @ t=0.68
-1.1038307806145493
% es.tEY (V/m) @ t=0.68
0
% es.tEZ (V/m) @ t=0.68
-0.9850018128271181
% es.Ex (V/m) @ t=0.68
-1.1038307806145504
% es.Ey (V/m) @ t=0.68
0.4203772202115532
% es.Ez (V/m) @ t=0.68
-0.9850018128271252
% es.tEx (V/m) @ t=0.68
-1.1038307806145493
% es.tEy (V/m) @ t=0.68
0
% es.tEz (V/m) @ t=0.68
-0.9850018128271181
% V (V) @ t=0.68
0.0156912508117771
% es.normE (V/m) @ t=0.7
1.555769758909094
% es.EX (V/m) @ t=0.7
-1.1137870423405045
% es.EY (V/m) @ t=0.7
0.4241689114024729
% es.EZ (V/m) @ t=0.7
-0.9938862687571817
% es.tEX (V/m) @ t=0.7
-1.113787042340499
% es.tEY (V/m) @ t=0.7
0
% es.tEZ (V/m) @ t=0.7
-0.993886268757203
% es.Ex (V/m) @ t=0.7
-1.1137870423405045
% es.Ey (V/m) @ t=0.7
0.4241689114024729
% es.Ez (V/m) @ t=0.7
-0.9938862687571817
% es.tEx (V/m) @ t=0.7
-1.113787042340499
% es.tEy (V/m) @ t=0.7
0
% es.tEz (V/m) @ t=0.7
-0.993886268757203
% V (V) @ t=0.7
0.015832781747505093
% es.normE (V/m) @ t=0.72
1.569676951491028
% es.EX (V/m) @ t=0.72
-1.1237433040664506
% es.EY (V/m) @ t=0.72
0.4279606025934126
% es.EZ (V/m) @ t=0.72
-1.0027707246872435
% es.tEX (V/m) @ t=0.72
-1.123743304066453
% es.tEY (V/m) @ t=0.72
0
% es.tEZ (V/m) @ t=0.72
-1.0027707246872488
% es.Ex (V/m) @ t=0.72
-1.1237433040664506
% es.Ey (V/m) @ t=0.72
0.4279606025934126
% es.Ez (V/m) @ t=0.72
-1.0027707246872435
% es.tEx (V/m) @ t=0.72
-1.123743304066453
% es.tEy (V/m) @ t=0.72
0
% es.tEz (V/m) @ t=0.72
-1.0027707246872488
% V (V) @ t=0.72
0.015974312683233082
% es.normE (V/m) @ t=0.74
1.5835841440729657
% es.EX (V/m) @ t=0.74
-1.1336995657924145
% es.EY (V/m) @ t=0.74
0.43175229378432034
% es.EZ (V/m) @ t=0.74
-1.0116551806173053
% es.tEX (V/m) @ t=0.74
-1.133699565792416
% es.tEY (V/m) @ t=0.74
0
% es.tEZ (V/m) @ t=0.74
-1.011655180617316
% es.Ex (V/m) @ t=0.74
-1.1336995657924145
% es.Ey (V/m) @ t=0.74
0.43175229378432034
% es.Ez (V/m) @ t=0.74
-1.0116551806173053
% es.tEx (V/m) @ t=0.74
-1.133699565792416
% es.tEy (V/m) @ t=0.74
0
% es.tEz (V/m) @ t=0.74
-1.011655180617316
% V (V) @ t=0.74
0.016115843618961075
% es.normE (V/m) @ t=0.76
1.5974913366549064
% es.EX (V/m) @ t=0.76
-1.1436558275183721
% es.EY (V/m) @ t=0.76
0.4355439849752467
% es.EZ (V/m) @ t=0.76
-1.0205396365473725
% es.tEX (V/m) @ t=0.76
-1.1436558275183693
% es.tEY (V/m) @ t=0.76
0
% es.tEZ (V/m) @ t=0.76
-1.0205396365473796
% es.Ex (V/m) @ t=0.76
-1.1436558275183721
% es.Ey (V/m) @ t=0.76
0.4355439849752467
% es.Ez (V/m) @ t=0.76
-1.0205396365473725
% es.tEx (V/m) @ t=0.76
-1.1436558275183693
% es.tEy (V/m) @ t=0.76
0
% es.tEz (V/m) @ t=0.76
-1.0205396365473796
% V (V) @ t=0.76
0.016257374554689067
% es.normE (V/m) @ t=0.78
1.6117808748331655
% es.EX (V/m) @ t=0.78
-1.1538858136236734
% es.EY (V/m) @ t=0.78
0.439439919435233
% es.EZ (V/m) @ t=0.78
-1.0296683495462826
% es.tEX (V/m) @ t=0.78
-1.153885813623675
% es.tEY (V/m) @ t=0.78
0
% es.tEZ (V/m) @ t=0.78
-1.0296683495462737
% es.Ex (V/m) @ t=0.78
-1.1538858136236734
% es.Ey (V/m) @ t=0.78
0.439439919435233
% es.Ez (V/m) @ t=0.78
-1.0296683495462826
% es.tEx (V/m) @ t=0.78
-1.153885813623675
% es.tEy (V/m) @ t=0.78
0
% es.tEz (V/m) @ t=0.78
-1.0296683495462737
% V (V) @ t=0.78
0.016402796590759026
% es.normE (V/m) @ t=0.8
1.6272326454967663
% es.EX (V/m) @ t=0.8
-1.1649478515919582
% es.EY (V/m) @ t=0.8
0.4436527266795971
% es.EZ (V/m) @ t=0.8
-1.039539541346807
% es.tEX (V/m) @ t=0.8
-1.1649478515919571
% es.tEY (V/m) @ t=0.8
0
% es.tEZ (V/m) @ t=0.8
-1.039539541346814
% es.Ex (V/m) @ t=0.8
-1.1649478515919582
% es.Ey (V/m) @ t=0.8
0.4436527266795971
% es.Ez (V/m) @ t=0.8
-1.039539541346807
% es.tEx (V/m) @ t=0.8
-1.1649478515919571
% es.tEy (V/m) @ t=0.8
0
% es.tEz (V/m) @ t=0.8
-1.039539541346814
% V (V) @ t=0.8
0.01656004657323331
% es.normE (V/m) @ t=0.82
1.6426844161603862
% es.EX (V/m) @ t=0.82
-1.1760098895602435
% es.EY (V/m) @ t=0.82
0.44786553392392925
% es.EZ (V/m) @ t=0.82
-1.049410733147372
% es.tEX (V/m) @ t=0.82
-1.1760098895602416
% es.tEY (V/m) @ t=0.82
0
% es.tEZ (V/m) @ t=0.82
-1.0494107331473632
% es.Ex (V/m) @ t=0.82
-1.1760098895602435
% es.Ey (V/m) @ t=0.82
0.44786553392392925
% es.Ez (V/m) @ t=0.82
-1.049410733147372
% es.tEx (V/m) @ t=0.82
-1.1760098895602416
% es.tEy (V/m) @ t=0.82
0
% es.tEz (V/m) @ t=0.82
-1.0494107331473632
% V (V) @ t=0.82
0.016717296555707587
% es.normE (V/m) @ t=0.84
1.6581361868239866
% es.EX (V/m) @ t=0.84
-1.1870719275285173
% es.EY (V/m) @ t=0.84
0.45207834116828316
% es.EZ (V/m) @ t=0.84
-1.0592819249479088
% es.tEX (V/m) @ t=0.84
-1.1870719275285153
% es.tEY (V/m) @ t=0.84
0
% es.tEZ (V/m) @ t=0.84
-1.059281924947916
% es.Ex (V/m) @ t=0.84
-1.1870719275285173
% es.Ey (V/m) @ t=0.84
0.45207834116828316
% es.Ez (V/m) @ t=0.84
-1.0592819249479088
% es.tEx (V/m) @ t=0.84
-1.1870719275285153
% es.tEy (V/m) @ t=0.84
0
% es.tEz (V/m) @ t=0.84
-1.059281924947916
% V (V) @ t=0.84
0.016874546538181868
% es.normE (V/m) @ t=0.86
1.6735879574875914
% es.EX (V/m) @ t=0.86
-1.1981339654968097
% es.EY (V/m) @ t=0.86
0.45629114841264196
% es.EZ (V/m) @ t=0.86
-1.0691531167484323
% es.tEX (V/m) @ t=0.86
-1.1981339654968073
% es.tEY (V/m) @ t=0.86
0
% es.tEZ (V/m) @ t=0.86
-1.0691531167484438
% es.Ex (V/m) @ t=0.86
-1.1981339654968097
% es.Ey (V/m) @ t=0.86
0.45629114841264196
% es.Ez (V/m) @ t=0.86
-1.0691531167484323
% es.tEx (V/m) @ t=0.86
-1.1981339654968073
% es.tEy (V/m) @ t=0.86
0
% es.tEz (V/m) @ t=0.86
-1.0691531167484438
% V (V) @ t=0.86
0.01703179652065615
% es.normE (V/m) @ t=0.88
1.6890397281511902
% es.EX (V/m) @ t=0.88
-1.2091960034650822
% es.EY (V/m) @ t=0.88
0.46050395565697055
% es.EZ (V/m) @ t=0.88
-1.0790243085489832
% es.tEX (V/m) @ t=0.88
-1.209196003465081
% es.tEY (V/m) @ t=0.88
0
% es.tEZ (V/m) @ t=0.88
-1.0790243085489912
% es.Ex (V/m) @ t=0.88
-1.2091960034650822
% es.Ey (V/m) @ t=0.88
0.46050395565697055
% es.Ez (V/m) @ t=0.88
-1.0790243085489832
% es.tEx (V/m) @ t=0.88
-1.209196003465081
% es.tEy (V/m) @ t=0.88
0
% es.tEz (V/m) @ t=0.88
-1.0790243085489912
% V (V) @ t=0.88
0.01718904650313043
% es.normE (V/m) @ t=0.9
1.7044914988148125
% es.EX (V/m) @ t=0.9
-1.2202580414333684
% es.EY (V/m) @ t=0.9
0.46471676290134933
% es.EZ (V/m) @ t=0.9
-1.0888955003495315
% es.tEX (V/m) @ t=0.9
-1.2202580414333655
% es.tEY (V/m) @ t=0.9
0
% es.tEZ (V/m) @ t=0.9
-1.0888955003495226
% es.Ex (V/m) @ t=0.9
-1.2202580414333684
% es.Ey (V/m) @ t=0.9
0.46471676290134933
% es.Ez (V/m) @ t=0.9
-1.0888955003495315
% es.tEx (V/m) @ t=0.9
-1.2202580414333655
% es.tEy (V/m) @ t=0.9
0
% es.tEz (V/m) @ t=0.9
-1.0888955003495226
% V (V) @ t=0.9
0.017346296485604706
% es.normE (V/m) @ t=0.92
1.7199432694784151
% es.EX (V/m) @ t=0.92
-1.2313200794016448
% es.EY (V/m) @ t=0.92
0.46892957014567793
% es.EZ (V/m) @ t=0.92
-1.098766692150078
% es.tEX (V/m) @ t=0.92
-1.2313200794016463
% es.tEY (V/m) @ t=0.92
0
% es.tEZ (V/m) @ t=0.92
-1.0987666921500931
% es.Ex (V/m) @ t=0.92
-1.2313200794016448
% es.Ey (V/m) @ t=0.92
0.46892957014567793
% es.Ez (V/m) @ t=0.92
-1.098766692150078
% es.tEx (V/m) @ t=0.92
-1.2313200794016463
% es.tEy (V/m) @ t=0.92
0
% es.tEz (V/m) @ t=0.92
-1.0987666921500931
% V (V) @ t=0.92
0.01750354646807899
% es.normE (V/m) @ t=0.94
1.7353950401420342
% es.EX (V/m) @ t=0.94
-1.2423821173699239
% es.EY (V/m) @ t=0.94
0.47314237739001763
% es.EZ (V/m) @ t=0.94
-1.1086378839506477
% es.tEX (V/m) @ t=0.94
-1.242382117369924
% es.tEY (V/m) @ t=0.94
0
% es.tEZ (V/m) @ t=0.94
-1.1086378839506459
% es.Ex (V/m) @ t=0.94
-1.2423821173699239
% es.Ey (V/m) @ t=0.94
0.47314237739001763
% es.Ez (V/m) @ t=0.94
-1.1086378839506477
% es.tEx (V/m) @ t=0.94
-1.242382117369924
% es.tEy (V/m) @ t=0.94
0
% es.tEz (V/m) @ t=0.94
-1.1086378839506459
% V (V) @ t=0.94
0.017660796450553264
% es.normE (V/m) @ t=0.96
1.7508468108056476
% es.EX (V/m) @ t=0.96
-1.2534441553382143
% es.EY (V/m) @ t=0.96
0.4773551846343711
% es.EZ (V/m) @ t=0.96
-1.118509075751187
% es.tEX (V/m) @ t=0.96
-1.253444155338213
% es.tEY (V/m) @ t=0.96
0
% es.tEZ (V/m) @ t=0.96
-1.1185090757511933
% es.Ex (V/m) @ t=0.96
-1.2534441553382143
% es.Ey (V/m) @ t=0.96
0.4773551846343711
% es.Ez (V/m) @ t=0.96
-1.118509075751187
% es.tEx (V/m) @ t=0.96
-1.253444155338213
% es.tEy (V/m) @ t=0.96
0
% es.tEz (V/m) @ t=0.96
-1.1185090757511933
% V (V) @ t=0.96
0.01781804643302755
% es.normE (V/m) @ t=0.98
1.7662985814692516
% es.EX (V/m) @ t=0.98
-1.2645061933064958
% es.EY (V/m) @ t=0.98
0.4815679918787299
% es.EZ (V/m) @ t=0.98
-1.1283802675517238
% es.tEX (V/m) @ t=0.98
-1.2645061933064912
% es.tEY (V/m) @ t=0.98
0
% es.tEZ (V/m) @ t=0.98
-1.128380267551714
% es.Ex (V/m) @ t=0.98
-1.2645061933064958
% es.Ey (V/m) @ t=0.98
0.4815679918787299
% es.Ez (V/m) @ t=0.98
-1.1283802675517238
% es.tEx (V/m) @ t=0.98
-1.2645061933064912
% es.tEy (V/m) @ t=0.98
0
% es.tEz (V/m) @ t=0.98
-1.128380267551714
% V (V) @ t=0.98
0.017975296415501826
% es.normE (V/m) @ t=1
1.7817503521328664
% es.EX (V/m) @ t=1
-1.2755682312747847
% es.EY (V/m) @ t=1
0.4857807991230727
% es.EZ (V/m) @ t=1
-1.1382514593522703
% es.tEX (V/m) @ t=1
-1.2755682312747858
% es.tEY (V/m) @ t=1
0
% es.tEZ (V/m) @ t=1
-1.1382514593522703
% es.Ex (V/m) @ t=1
-1.2755682312747847
% es.Ey (V/m) @ t=1
0.4857807991230727
% es.Ez (V/m) @ t=1
-1.1382514593522703
% es.tEx (V/m) @ t=1
-1.2755682312747858
% es.tEy (V/m) @ t=1
0
% es.tEz (V/m) @ t=1
-1.1382514593522703
% V (V) @ t=1
0.018132546397976106
% es.normE (V/m) @ t=1.02
1.7972021227964667
% es.EX (V/m) @ t=1.02
-1.2866302692430585
% es.EY (V/m) @ t=1.02
0.4899936063674195
% es.EZ (V/m) @ t=1.02
-1.1481226511528115
% es.tEX (V/m) @ t=1.02
-1.286630269243056
% es.tEY (V/m) @ t=1.02
0
% es.tEZ (V/m) @ t=1.02
-1.1481226511528089
% es.Ex (V/m) @ t=1.02
-1.2866302692430585
% es.Ey (V/m) @ t=1.02
0.4899936063674195
% es.Ez (V/m) @ t=1.02
-1.1481226511528115
% es.tEx (V/m) @ t=1.02
-1.286630269243056
% es.tEy (V/m) @ t=1.02
0
% es.tEz (V/m) @ t=1.02
-1.1481226511528089
% V (V) @ t=1.02
0.018289796380450387
% es.normE (V/m) @ t=1.04
1.812897414883849