% Model:              1 neuron.mph
% Version:            COMSOL 6.1.0.252
% Date:               Mar 27 2023, 14:31
% Dimension:          0
% Nodes:              14017
% Expressions:        14017
% Description:        Electric field norm, Electric field, X component, Electric field, Y component, Electric field, Z component, Tangential electric field, X component, Tangential electric field, Y component, Tangential electric field, Z component, Electric field, x component, Electric field, y component, Electric field, z component, Tangential electric field, x component, Tangential electric field, y component, Tangential electric field, z component, Electric potential
% Length unit:        mm
% x
1
% y
12.2
% z
1.6599999999999997
% es.normE (V/m) @ t=0
2.8725321088345783
% es.EX (V/m) @ t=0
2.571518735392192
% es.EY (V/m) @ t=0
0.09894106356346022
% es.EZ (V/m) @ t=0
-1.2763003815994067
% es.tEX (V/m) @ t=0
2.571518735392204
% es.tEY (V/m) @ t=0
0
% es.tEZ (V/m) @ t=0
-1.2763003815993983
% es.Ex (V/m) @ t=0
2.571518735392192
% es.Ey (V/m) @ t=0
0.09894106356346022
% es.Ez (V/m) @ t=0
-1.2763003815994067
% es.tEx (V/m) @ t=0
2.571518735392204
% es.tEy (V/m) @ t=0
0
% es.tEz (V/m) @ t=0
-1.2763003815993983
% V (V) @ t=0
0.013032644373855883
% es.normE (V/m) @ t=0.02
2.4810301476834695
% es.EX (V/m) @ t=0.02
2.221042364873606
% es.EY (V/m) @ t=0.02
0.08545622915545156
% es.EZ (V/m) @ t=0.02
-1.1023513762566306
% es.tEX (V/m) @ t=0.02
2.2210423648736084
% es.tEY (V/m) @ t=0.02
0
% es.tEZ (V/m) @ t=0.02
-1.1023513762566424
% es.Ex (V/m) @ t=0.02
2.221042364873606
% es.Ey (V/m) @ t=0.02
0.08545622915545156
% es.Ez (V/m) @ t=0.02
-1.1023513762566306
% es.tEx (V/m) @ t=0.02
2.2210423648736084
% es.tEy (V/m) @ t=0.02
0
% es.tEz (V/m) @ t=0.02
-1.1023513762566424
% V (V) @ t=0.02
0.011256404574782206
% es.normE (V/m) @ t=0.04
2.5038483751644436
% es.EX (V/m) @ t=0.04
2.2414694641592816
% es.EY (V/m) @ t=0.04
0.08624217606752307
% es.EZ (V/m) @ t=0.04
-1.1124897883884435
% es.tEX (V/m) @ t=0.04
2.241469464159276
% es.tEY (V/m) @ t=0.04
0
% es.tEZ (V/m) @ t=0.04
-1.1124897883884302
% es.Ex (V/m) @ t=0.04
2.2414694641592816
% es.Ey (V/m) @ t=0.04
0.08624217606752307
% es.Ez (V/m) @ t=0.04
-1.1124897883884435
% es.tEx (V/m) @ t=0.04
2.241469464159276
% es.tEy (V/m) @ t=0.04
0
% es.tEz (V/m) @ t=0.04
-1.1124897883884302
% V (V) @ t=0.04
0.01135993062852683
% es.normE (V/m) @ t=0.06
2.52683470040267
% es.EX (V/m) @ t=0.06
2.2620470452750956
% es.EY (V/m) @ t=0.06
0.08703391106356734
% es.EZ (V/m) @ t=0.06
-1.1227028903627643
% es.tEX (V/m) @ t=0.06
2.262047045275094
% es.tEY (V/m) @ t=0.06
0
% es.tEZ (V/m) @ t=0.06
-1.122702890362767
% es.Ex (V/m) @ t=0.06
2.2620470452750956
% es.Ey (V/m) @ t=0.06
0.08703391106356734
% es.Ez (V/m) @ t=0.06
-1.1227028903627643
% es.tEx (V/m) @ t=0.06
2.262047045275094
% es.tEy (V/m) @ t=0.06
0
% es.tEz (V/m) @ t=0.06
-1.122702890362767
% V (V) @ t=0.06
0.011464219409137201
% es.normE (V/m) @ t=0.08
2.550257554047181
% es.EX (V/m) @ t=0.08
2.2830154148363997
% es.EY (V/m) @ t=0.08
0.08784068998219119
% es.EZ (V/m) @ t=0.08
-1.1331099385087486
% es.tEX (V/m) @ t=0.08
2.283015414836406
% es.tEY (V/m) @ t=0.08
0
% es.tEZ (V/m) @ t=0.08
-1.1331099385087242
% es.Ex (V/m) @ t=0.08
2.2830154148363997
% es.Ey (V/m) @ t=0.08
0.08784068998219119
% es.Ez (V/m) @ t=0.08
-1.1331099385087486
% es.tEx (V/m) @ t=0.08
2.283015414836406
% es.tEy (V/m) @ t=0.08
0
% es.tEz (V/m) @ t=0.08
-1.1331099385087242
% V (V) @ t=0.08
0.011570488413479572
% es.normE (V/m) @ t=0.1
2.573805538438787
% es.EX (V/m) @ t=0.1
2.3040958037976886
% es.EY (V/m) @ t=0.1
0.08865178123703321
% es.EZ (V/m) @ t=0.1
-1.1435725812712367
% es.tEX (V/m) @ t=0.1
2.304095803797682
% es.tEY (V/m) @ t=0.1
0
% es.tEZ (V/m) @ t=0.1
-1.1435725812712576
% es.Ex (V/m) @ t=0.1
2.3040958037976886
% es.Ey (V/m) @ t=0.1
0.08865178123703321
% es.Ez (V/m) @ t=0.1
-1.1435725812712367
% es.tEx (V/m) @ t=0.1
2.304095803797682
% es.tEy (V/m) @ t=0.1
0
% es.tEz (V/m) @ t=0.1
-1.1435725812712576
% V (V) @ t=0.1
0.01167732504840777
% es.normE (V/m) @ t=0.12
2.5973535228303772
% es.EX (V/m) @ t=0.12
2.325176192758954
% es.EY (V/m) @ t=0.12
0.0894628724918824
% es.EZ (V/m) @ t=0.12
-1.1540352240337355
% es.tEX (V/m) @ t=0.12
2.3251761927589456
% es.tEY (V/m) @ t=0.12
0
% es.tEZ (V/m) @ t=0.12
-1.1540352240337342
% es.Ex (V/m) @ t=0.12
2.325176192758954
% es.Ey (V/m) @ t=0.12
0.0894628724918824
% es.Ez (V/m) @ t=0.12
-1.1540352240337355
% es.tEx (V/m) @ t=0.12
2.3251761927589456
% es.tEy (V/m) @ t=0.12
0
% es.tEz (V/m) @ t=0.12
-1.1540352240337342
% V (V) @ t=0.12
0.011784161683335962
% es.normE (V/m) @ t=0.14
2.62156567975243
% es.EX (V/m) @ t=0.14
2.3468511570474577
% es.EY (V/m) @ t=0.14
0.0902968436863194
% es.EZ (V/m) @ t=0.14
-1.1647929631065765
% es.tEX (V/m) @ t=0.14
2.346851157047457
% es.tEY (V/m) @ t=0.14
0
% es.tEZ (V/m) @ t=0.14
-1.1647929631065566
% es.Ex (V/m) @ t=0.14
2.3468511570474577
% es.Ey (V/m) @ t=0.14
0.0902968436863194
% es.Ez (V/m) @ t=0.14
-1.1647929631065765
% es.tEx (V/m) @ t=0.14
2.346851157047457
% es.tEy (V/m) @ t=0.14
0
% es.tEz (V/m) @ t=0.14
-1.1647929631065566
% V (V) @ t=0.14
0.011894011540702833
% es.normE (V/m) @ t=0.16
2.646298191369287
% es.EX (V/m) @ t=0.16
2.368991949187568
% es.EY (V/m) @ t=0.16
0.09114874047001603
% es.EZ (V/m) @ t=0.16
-1.1757818992606375
% es.tEX (V/m) @ t=0.16
2.368991949187566
% es.tEY (V/m) @ t=0.16
0
% es.tEZ (V/m) @ t=0.16
-1.1757818992606417
% es.Ex (V/m) @ t=0.16
2.368991949187568
% es.Ey (V/m) @ t=0.16
0.09114874047001603
% es.Ez (V/m) @ t=0.16
-1.1757818992606375
% es.tEx (V/m) @ t=0.16
2.368991949187566
% es.tEy (V/m) @ t=0.16
0
% es.tEz (V/m) @ t=0.16
-1.1757818992606417
% V (V) @ t=0.16
0.012006222146776912
% es.normE (V/m) @ t=0.18
2.671030702986215
% es.EX (V/m) @ t=0.18
2.3911327413277195
% es.EY (V/m) @ t=0.18
0.09200063725372609
% es.EZ (V/m) @ t=0.18
-1.186770835414773
% es.tEX (V/m) @ t=0.18
2.3911327413277235
% es.tEY (V/m) @ t=0.18
0
% es.tEZ (V/m) @ t=0.18
-1.1867708354147553
% es.Ex (V/m) @ t=0.18
2.3911327413277195
% es.Ey (V/m) @ t=0.18
0.09200063725372609
% es.Ez (V/m) @ t=0.18
-1.186770835414773
% es.tEx (V/m) @ t=0.18
2.3911327413277235
% es.tEy (V/m) @ t=0.18
0
% es.tEz (V/m) @ t=0.18
-1.1867708354147553
% V (V) @ t=0.18
0.012118432752850995
% es.normE (V/m) @ t=0.2
2.6957632146030814
% es.EX (V/m) @ t=0.2
2.413273533467833
% es.EY (V/m) @ t=0.2
0.09285253403743965
% es.EZ (V/m) @ t=0.2
-1.1977597715688444
% es.tEX (V/m) @ t=0.2
2.413273533467833
% es.tEY (V/m) @ t=0.2
0
% es.tEZ (V/m) @ t=0.2
-1.1977597715688262
% es.Ex (V/m) @ t=0.2
2.413273533467833
% es.Ey (V/m) @ t=0.2
0.09285253403743965
% es.Ez (V/m) @ t=0.2
-1.1977597715688444
% es.tEx (V/m) @ t=0.2
2.413273533467833
% es.tEy (V/m) @ t=0.2
0
% es.tEz (V/m) @ t=0.2
-1.1977597715688262
% V (V) @ t=0.2
0.012230643358925077
% es.normE (V/m) @ t=0.22
2.720495726219962
% es.EX (V/m) @ t=0.22
2.435414325607957
% es.EY (V/m) @ t=0.22
0.09370443082112656
% es.EZ (V/m) @ t=0.22
-1.20874870772293
% es.tEX (V/m) @ t=0.22
2.4354143256079563
% es.tEY (V/m) @ t=0.22
0
% es.tEZ (V/m) @ t=0.22
-1.2087487077229113
% es.Ex (V/m) @ t=0.22
2.435414325607957
% es.Ey (V/m) @ t=0.22
0.09370443082112656
% es.Ez (V/m) @ t=0.22
-1.20874870772293
% es.tEx (V/m) @ t=0.22
2.4354143256079563
% es.tEy (V/m) @ t=0.22
0
% es.tEz (V/m) @ t=0.22
-1.2087487077229113
% V (V) @ t=0.22
0.012342853964999158
% es.normE (V/m) @ t=0.24
2.7452282378368613
% es.EX (V/m) @ t=0.24
2.457555117748087
% es.EY (V/m) @ t=0.24
0.0945563276048419
% es.EZ (V/m) @ t=0.24
-1.2197376438770406
% es.tEX (V/m) @ t=0.24
2.457555117748085
% es.tEY (V/m) @ t=0.24
0
% es.tEZ (V/m) @ t=0.24
-1.219737643877032
% es.Ex (V/m) @ t=0.24
2.457555117748087
% es.Ey (V/m) @ t=0.24
0.0945563276048419
% es.Ez (V/m) @ t=0.24
-1.2197376438770406
% es.tEx (V/m) @ t=0.24
2.457555117748085
% es.tEy (V/m) @ t=0.24
0
% es.tEz (V/m) @ t=0.24
-1.219737643877032
% V (V) @ t=0.24
0.012455064571073239
% es.normE (V/m) @ t=0.26
2.7702991669072228
% es.EX (V/m) @ t=0.26
2.479998803365123
% es.EY (V/m) @ t=0.26
0.09541975470232988
% es.EZ (V/m) @ t=0.26
-1.2308770759180407
% es.tEX (V/m) @ t=0.26
2.4799988033651212
% es.tEY (V/m) @ t=0.26
0
% es.tEZ (V/m) @ t=0.26
-1.2308770759180376
% es.Ex (V/m) @ t=0.26
2.479998803365123
% es.Ey (V/m) @ t=0.26
0.09541975470232988
% es.Ez (V/m) @ t=0.26
-1.2308770759180407
% es.tEx (V/m) @ t=0.26
2.4799988033651212
% es.tEy (V/m) @ t=0.26
0
% es.tEz (V/m) @ t=0.26
-1.2308770759180376
% V (V) @ t=0.26
0.012568815188285934
% es.normE (V/m) @ t=0.28
2.797681860319533
% es.EX (V/m) @ t=0.28
2.504511585395315
% es.EY (V/m) @ t=0.28
0.09636194655597968
% es.EZ (V/m) @ t=0.28
-1.243044560801173
% es.tEX (V/m) @ t=0.28
2.504511585395308
% es.tEY (V/m) @ t=0.28
0
% es.tEZ (V/m) @ t=0.28
-1.2430445608011595
% es.Ex (V/m) @ t=0.28
2.504511585395315
% es.Ey (V/m) @ t=0.28
0.09636194655597968
% es.Ez (V/m) @ t=0.28
-1.243044560801173
% es.tEx (V/m) @ t=0.28
2.504511585395308
% es.tEy (V/m) @ t=0.28
0
% es.tEz (V/m) @ t=0.28
-1.2430445608011595
% V (V) @ t=0.28
0.012693085779568642
% es.normE (V/m) @ t=0.3
2.8250645537329655
% es.EX (V/m) @ t=0.3
2.529024367425518
% es.EY (V/m) @ t=0.3
0.09730413840968194
% es.EZ (V/m) @ t=0.3
-1.2552120456843123
% es.tEX (V/m) @ t=0.3
2.5290243674255173
% es.tEY (V/m) @ t=0.3
0
% es.tEZ (V/m) @ t=0.3
-1.2552120456842957
% es.Ex (V/m) @ t=0.3
2.529024367425518
% es.Ey (V/m) @ t=0.3
0.09730413840968194
% es.Ez (V/m) @ t=0.3
-1.2552120456843123
% es.tEx (V/m) @ t=0.3
2.5290243674255173
% es.tEy (V/m) @ t=0.3
0
% es.tEz (V/m) @ t=0.3
-1.2552120456842957
% V (V) @ t=0.3
0.012817356370851352
% es.normE (V/m) @ t=0.32
2.852447247147466
% es.EX (V/m) @ t=0.32
2.553537149455713
% es.EY (V/m) @ t=0.32
0.09824633026335311
% es.EZ (V/m) @ t=0.32
-1.267379530567448
% es.tEX (V/m) @ t=0.32
2.5535371494557104
% es.tEY (V/m) @ t=0.32
0
% es.tEZ (V/m) @ t=0.32
-1.267379530567439
% es.Ex (V/m) @ t=0.32
2.553537149455713
% es.Ey (V/m) @ t=0.32
0.09824633026335311
% es.Ez (V/m) @ t=0.32
-1.267379530567448
% es.tEx (V/m) @ t=0.32
2.5535371494557104
% es.tEy (V/m) @ t=0.32
0
% es.tEz (V/m) @ t=0.32
-1.267379530567439
% V (V) @ t=0.32
0.012941626962134061
% es.normE (V/m) @ t=0.34
2.8798299405630043
% es.EX (V/m) @ t=0.34
2.578049931485909
% es.EY (V/m) @ t=0.34
0.09918852211702878
% es.EZ (V/m) @ t=0.34
-1.2795470154505661
% es.tEX (V/m) @ t=0.34
2.5780499314858973
% es.tEY (V/m) @ t=0.34
0
% es.tEZ (V/m) @ t=0.34
-1.2795470154505537
% es.Ex (V/m) @ t=0.34
2.578049931485909
% es.Ey (V/m) @ t=0.34
0.09918852211702878
% es.Ez (V/m) @ t=0.34
-1.2795470154505661
% es.tEx (V/m) @ t=0.34
2.5780499314858973
% es.tEy (V/m) @ t=0.34
0
% es.tEz (V/m) @ t=0.34
-1.2795470154505537
% V (V) @ t=0.34
0.01306589755341677
% es.normE (V/m) @ t=0.36
2.9072126339795674
% es.EX (V/m) @ t=0.36
2.6025627135161002
% es.EY (V/m) @ t=0.36
0.10013071397069812
% es.EZ (V/m) @ t=0.36
-1.2917145003337125
% es.tEX (V/m) @ t=0.36
2.6025627135161047
% es.tEY (V/m) @ t=0.36
0
% es.tEZ (V/m) @ t=0.36
-1.291714500333697
% es.Ex (V/m) @ t=0.36
2.6025627135161002
% es.Ey (V/m) @ t=0.36
0.10013071397069812
% es.Ez (V/m) @ t=0.36
-1.2917145003337125
% es.tEx (V/m) @ t=0.36
2.6025627135161047
% es.tEy (V/m) @ t=0.36
0
% es.tEz (V/m) @ t=0.36
-1.291714500333697
% V (V) @ t=0.36
0.01319016814469948
% es.normE (V/m) @ t=0.38
2.934595327397129
% es.EX (V/m) @ t=0.38
2.6270754955463067
% es.EY (V/m) @ t=0.38
0.10107290582436662
% es.EZ (V/m) @ t=0.38
-1.3038819852168517
% es.tEX (V/m) @ t=0.38
2.6270754955462987
% es.tEY (V/m) @ t=0.38
0
% es.tEZ (V/m) @ t=0.38
-1.303881985216833
% es.Ex (V/m) @ t=0.38
2.6270754955463067
% es.Ey (V/m) @ t=0.38
0.10107290582436662
% es.Ez (V/m) @ t=0.38
-1.3038819852168517
% es.tEx (V/m) @ t=0.38
2.6270754955462987
% es.tEy (V/m) @ t=0.38
0
% es.tEz (V/m) @ t=0.38
-1.303881985216833
% V (V) @ t=0.38
0.013314438735982188
% es.normE (V/m) @ t=0.4
2.9619780208156303
% es.EX (V/m) @ t=0.4
2.651588277576495
% es.EY (V/m) @ t=0.4
0.10201509767805739
% es.EZ (V/m) @ t=0.4
-1.3160494700999803
% es.tEX (V/m) @ t=0.4
2.651588277576499
% es.tEY (V/m) @ t=0.4
0
% es.tEZ (V/m) @ t=0.4
-1.3160494700999763
% es.Ex (V/m) @ t=0.4
2.651588277576495
% es.Ey (V/m) @ t=0.4
0.10201509767805739
% es.Ez (V/m) @ t=0.4
-1.3160494700999803
% es.tEx (V/m) @ t=0.4
2.651588277576499
% es.tEy (V/m) @ t=0.4
0
% es.tEz (V/m) @ t=0.4
-1.3160494700999763
% V (V) @ t=0.4
0.013438709327264896
% es.normE (V/m) @ t=0.42
2.989360714235083
% es.EX (V/m) @ t=0.42
2.676101059606698
% es.EY (V/m) @ t=0.42
0.102957289531733
% es.EZ (V/m) @ t=0.42
-1.3282169549831195
% es.tEX (V/m) @ t=0.42
2.676101059606693
% es.tEY (V/m) @ t=0.42
0
% es.tEZ (V/m) @ t=0.42
-1.3282169549831124
% es.Ex (V/m) @ t=0.42
2.676101059606698
% es.Ey (V/m) @ t=0.42
0.102957289531733
% es.Ez (V/m) @ t=0.42
-1.3282169549831195
% es.tEx (V/m) @ t=0.42
2.676101059606693
% es.tEy (V/m) @ t=0.42
0
% es.tEz (V/m) @ t=0.42
-1.3282169549831124
% V (V) @ t=0.42
0.013562979918547607
% es.normE (V/m) @ t=0.44
3.016743407655416
% es.EX (V/m) @ t=0.44
2.700613841636882
% es.EY (V/m) @ t=0.44
0.10389948138539257
% es.EZ (V/m) @ t=0.44
-1.340384439866234
% es.tEX (V/m) @ t=0.44
2.700613841636879
% es.tEY (V/m) @ t=0.44
0
% es.tEZ (V/m) @ t=0.44
-1.3403844398662201
% es.Ex (V/m) @ t=0.44
2.700613841636882
% es.Ey (V/m) @ t=0.44
0.10389948138539257
% es.Ez (V/m) @ t=0.44
-1.340384439866234
% es.tEx (V/m) @ t=0.44
2.700613841636879
% es.tEy (V/m) @ t=0.44
0
% es.tEz (V/m) @ t=0.44
-1.3403844398662201
% V (V) @ t=0.44
0.013687250509830315
% es.normE (V/m) @ t=0.46
3.0441261010766683
% es.EX (V/m) @ t=0.46
2.725126623667089
% es.EY (V/m) @ t=0.46
0.1048416732390931
% es.EZ (V/m) @ t=0.46
-1.352551924749377
% es.tEX (V/m) @ t=0.46
2.725126623667074
% es.tEY (V/m) @ t=0.46
0
% es.tEZ (V/m) @ t=0.46
-1.3525519247493634
% es.Ex (V/m) @ t=0.46
2.725126623667089
% es.Ey (V/m) @ t=0.46
0.1048416732390931
% es.Ez (V/m) @ t=0.46
-1.352551924749377
% es.tEx (V/m) @ t=0.46
2.725126623667074
% es.tEy (V/m) @ t=0.46
0
% es.tEz (V/m) @ t=0.46
-1.3525519247493634
% V (V) @ t=0.46
0.013811521101113024
% es.normE (V/m) @ t=0.48
3.0715087944987705
% es.EX (V/m) @ t=0.48
2.7496394056972884
% es.EY (V/m) @ t=0.48
0.10578386509274829
% es.EZ (V/m) @ t=0.48
-1.3647194096325161
% es.tEX (V/m) @ t=0.48
2.7496394056972893
% es.tEY (V/m) @ t=0.48
0
% es.tEZ (V/m) @ t=0.48
-1.3647194096325066
% es.Ex (V/m) @ t=0.48
2.7496394056972884
% es.Ey (V/m) @ t=0.48
0.10578386509274829
% es.Ez (V/m) @ t=0.48
-1.3647194096325161
% es.tEx (V/m) @ t=0.48
2.7496394056972893
% es.tEy (V/m) @ t=0.48
0
% es.tEz (V/m) @ t=0.48
-1.3647194096325066
% V (V) @ t=0.48
0.01393579169239573
% es.normE (V/m) @ t=0.5
3.098891487921719
% es.EX (V/m) @ t=0.5
2.7741521877274944
% es.EY (V/m) @ t=0.5
0.10672605694644516
% es.EZ (V/m) @ t=0.5
-1.376886894515659
% es.tEX (V/m) @ t=0.5
2.7741521877274753
% es.tEY (V/m) @ t=0.5
0
% es.tEZ (V/m) @ t=0.5
-1.3768868945156498
% es.Ex (V/m) @ t=0.5
2.7741521877274944
% es.Ey (V/m) @ t=0.5
0.10672605694644516
% es.Ez (V/m) @ t=0.5
-1.376886894515659
% es.tEx (V/m) @ t=0.5
2.7741521877274753
% es.tEy (V/m) @ t=0.5
0
% es.tEz (V/m) @ t=0.5
-1.3768868945156498
% V (V) @ t=0.5
0.014060062283678442
% es.normE (V/m) @ t=0.52
3.1270512798522594
% es.EX (V/m) @ t=0.52
2.7993609063647242
% es.EY (V/m) @ t=0.52
0.10769557296028665
% es.EZ (V/m) @ t=0.52
-1.3893990652730563
% es.tEX (V/m) @ t=0.52
2.7993609063647114
% es.tEY (V/m) @ t=0.52
0
% es.tEZ (V/m) @ t=0.52
-1.3893990652730395
% es.Ex (V/m) @ t=0.52
2.7993609063647242
% es.Ey (V/m) @ t=0.52
0.10769557296028665
% es.Ez (V/m) @ t=0.52
-1.3893990652730563
% es.tEx (V/m) @ t=0.52
2.7993609063647114
% es.tEy (V/m) @ t=0.52
0
% es.tEz (V/m) @ t=0.52
-1.3893990652730395
% V (V) @ t=0.52
0.014187838141532877
% es.normE (V/m) @ t=0.54
3.1574036919468838
% es.EX (V/m) @ t=0.54
2.8265332430287815
% es.EY (V/m) @ t=0.54
0.10874218538339098
% es.EZ (V/m) @ t=0.54
-1.4028837835145689
% es.tEX (V/m) @ t=0.54
2.826533243028777
% es.tEY (V/m) @ t=0.54
0
% es.tEZ (V/m) @ t=0.54
-1.4028837835145467
% es.Ex (V/m) @ t=0.54
2.8265332430287815
% es.Ey (V/m) @ t=0.54
0.10874218538339098
% es.Ez (V/m) @ t=0.54
-1.4028837835145689
% es.tEx (V/m) @ t=0.54
2.826533243028777
% es.tEy (V/m) @ t=0.54
0
% es.tEz (V/m) @ t=0.54
-1.4028837835145467
% V (V) @ t=0.54
0.01432550427467869
% es.normE (V/m) @ t=0.56
3.1877561040432254
% es.EX (V/m) @ t=0.56
2.8537055796928605
% es.EY (V/m) @ t=0.56
0.10978879780651396
% es.EZ (V/m) @ t=0.56
-1.4163685017560987
% es.tEX (V/m) @ t=0.56
2.853705579692855
% es.tEY (V/m) @ t=0.56
0
% es.tEZ (V/m) @ t=0.56
-1.4163685017560823
% es.Ex (V/m) @ t=0.56
2.8537055796928605
% es.Ey (V/m) @ t=0.56
0.10978879780651396
% es.Ez (V/m) @ t=0.56
-1.4163685017560987
% es.tEx (V/m) @ t=0.56
2.853705579692855
% es.tEy (V/m) @ t=0.56
0
% es.tEz (V/m) @ t=0.56
-1.4163685017560823
% V (V) @ t=0.56
0.014463170407824506
% es.normE (V/m) @ t=0.58
3.218108516141168
% es.EX (V/m) @ t=0.58
2.8808779163569103
% es.EY (V/m) @ t=0.58
0.11083541022961829
% es.EZ (V/m) @ t=0.58
-1.4298532199976006
% es.tEX (V/m) @ t=0.58
2.8808779163569067
% es.tEY (V/m) @ t=0.58
0
% es.tEZ (V/m) @ t=0.58
-1.4298532199975824
% es.Ex (V/m) @ t=0.58
2.8808779163569103
% es.Ey (V/m) @ t=0.58
0.11083541022961829
% es.Ez (V/m) @ t=0.58
-1.4298532199976006
% es.tEx (V/m) @ t=0.58
2.8808779163569067
% es.tEy (V/m) @ t=0.58
0
% es.tEz (V/m) @ t=0.58
-1.4298532199975824
% V (V) @ t=0.58
0.014600836540970318
% es.normE (V/m) @ t=0.6
3.2484609282407133
% es.EX (V/m) @ t=0.6
2.908050253020966
% es.EY (V/m) @ t=0.6
0.11188202265273955
% es.EZ (V/m) @ t=0.6
-1.4433379382391092
% es.tEX (V/m) @ t=0.6
2.9080502530209724
% es.tEY (V/m) @ t=0.6
0
% es.tEZ (V/m) @ t=0.6
-1.4433379382391038
% es.Ex (V/m) @ t=0.6
2.908050253020966
% es.Ey (V/m) @ t=0.6
0.11188202265273955
% es.Ez (V/m) @ t=0.6
-1.4433379382391092
% es.tEx (V/m) @ t=0.6
2.9080502530209724
% es.tEy (V/m) @ t=0.6
0
% es.tEz (V/m) @ t=0.6
-1.4433379382391038
% V (V) @ t=0.6
0.014738502674116132
% es.normE (V/m) @ t=0.62
3.2788133403418027
% es.EX (V/m) @ t=0.62
2.9352225896850124
% es.EY (V/m) @ t=0.62
0.11292863507583678
% es.EZ (V/m) @ t=0.62
-1.4568226564806217
% es.tEX (V/m) @ t=0.62
2.935222589685015
% es.tEY (V/m) @ t=0.62
0
% es.tEZ (V/m) @ t=0.62
-1.456822656480611
% es.Ex (V/m) @ t=0.62
2.9352225896850124
% es.Ey (V/m) @ t=0.62
0.11292863507583678
% es.Ez (V/m) @ t=0.62
-1.4568226564806217
% es.tEx (V/m) @ t=0.62
2.935222589685015
% es.tEy (V/m) @ t=0.62
0
% es.tEz (V/m) @ t=0.62
-1.456822656480611
% V (V) @ t=0.62
0.014876168807261947
% es.normE (V/m) @ t=0.64
3.309165752444422
% es.EX (V/m) @ t=0.64
2.9623949263490763
% es.EY (V/m) @ t=0.64
0.11397524749895804
% es.EZ (V/m) @ t=0.64
-1.4703073747221482
% es.tEX (V/m) @ t=0.64
2.9623949263490736
% es.tEY (V/m) @ t=0.64
0
% es.tEZ (V/m) @ t=0.64
-1.4703073747221325
% es.Ex (V/m) @ t=0.64
2.9623949263490763
% es.Ey (V/m) @ t=0.64
0.11397524749895804
% es.Ez (V/m) @ t=0.64
-1.4703073747221482
% es.tEx (V/m) @ t=0.64
2.9623949263490736
% es.tEy (V/m) @ t=0.64
0
% es.tEz (V/m) @ t=0.64
-1.4703073747221325
% V (V) @ t=0.64
0.015013834940407759
% es.normE (V/m) @ t=0.66
3.33951816454851
% es.EX (V/m) @ t=0.66
2.9895672630131527
% es.EY (V/m) @ t=0.66
0.11502185992205438
% es.EZ (V/m) @ t=0.66
-1.483792092963657
% es.tEX (V/m) @ t=0.66
2.9895672630131447
% es.tEY (V/m) @ t=0.66
0
% es.tEZ (V/m) @ t=0.66
-1.4837920929636468
% es.Ex (V/m) @ t=0.66
2.9895672630131527
% es.Ey (V/m) @ t=0.66
0.11502185992205438
% es.Ez (V/m) @ t=0.66
-1.483792092963657
% es.tEx (V/m) @ t=0.66
2.9895672630131447
% es.tEy (V/m) @ t=0.66
0
% es.tEz (V/m) @ t=0.66
-1.4837920929636468
% V (V) @ t=0.66
0.015151501073553574
% es.normE (V/m) @ t=0.68
3.3698705766540167
% es.EX (V/m) @ t=0.68
3.016739599677206
% es.EY (V/m) @ t=0.68
0.11606847234517564
% es.EZ (V/m) @ t=0.68
-1.4972768112051906
% es.tEX (V/m) @ t=0.68
3.0167395996772015
% es.tEY (V/m) @ t=0.68
0
% es.tEZ (V/m) @ t=0.68
-1.4972768112051824
% es.Ex (V/m) @ t=0.68
3.016739599677206
% es.Ey (V/m) @ t=0.68
0.11606847234517564
% es.Ez (V/m) @ t=0.68
-1.4972768112051906
% es.tEx (V/m) @ t=0.68
3.0167395996772015
% es.tEy (V/m) @ t=0.68
0
% es.tEz (V/m) @ t=0.68
-1.4972768112051824
% V (V) @ t=0.68
0.015289167206699388
% es.normE (V/m) @ t=0.7
3.4002229887608904
% es.EX (V/m) @ t=0.7
3.043911936341249
% es.EY (V/m) @ t=0.7
0.11711508476830135
% es.EZ (V/m) @ t=0.7
-1.5107615294466958
% es.tEX (V/m) @ t=0.7
3.043911936341253
% es.tEY (V/m) @ t=0.7
0
% es.tEZ (V/m) @ t=0.7
-1.5107615294466896
% es.Ex (V/m) @ t=0.7
3.043911936341249
% es.Ey (V/m) @ t=0.7
0.11711508476830135
% es.Ez (V/m) @ t=0.7
-1.5107615294466958
% es.tEx (V/m) @ t=0.7
3.043911936341253
% es.tEy (V/m) @ t=0.7
0
% es.tEz (V/m) @ t=0.7
-1.5107615294466896
% V (V) @ t=0.7
0.0154268333398452
% es.normE (V/m) @ t=0.72
3.430575400869162
% es.EX (V/m) @ t=0.72
3.071084273005325
% es.EY (V/m) @ t=0.72
0.11816169719142516
% es.EZ (V/m) @ t=0.72
-1.5242462476882401
% es.tEX (V/m) @ t=0.72
3.071084273005324
% es.tEY (V/m) @ t=0.72
0
% es.tEZ (V/m) @ t=0.72
-1.5242462476882253
% es.Ex (V/m) @ t=0.72
3.071084273005325
% es.Ey (V/m) @ t=0.72
0.11816169719142516
% es.Ez (V/m) @ t=0.72
-1.5242462476882401
% es.tEx (V/m) @ t=0.72
3.071084273005324
% es.tEy (V/m) @ t=0.72
0
% es.tEz (V/m) @ t=0.72
-1.5242462476882253
% V (V) @ t=0.72
0.015564499472991013
% es.normE (V/m) @ t=0.74
3.4609278129787047
% es.EX (V/m) @ t=0.74
3.098256609669371
% es.EY (V/m) @ t=0.74
0.119208309614526
% es.EZ (V/m) @ t=0.74
-1.5377309659297418
% es.tEX (V/m) @ t=0.74
3.0982566096693667
% es.tEY (V/m) @ t=0.74
0
% es.tEZ (V/m) @ t=0.74
-1.5377309659297325
% es.Ex (V/m) @ t=0.74
3.098256609669371
% es.Ey (V/m) @ t=0.74
0.119208309614526
% es.Ez (V/m) @ t=0.74
-1.5377309659297418
% es.tEx (V/m) @ t=0.74
3.0982566096693667
% es.tEy (V/m) @ t=0.74
0
% es.tEz (V/m) @ t=0.74
-1.5377309659297325
% V (V) @ t=0.74
0.015702165606136825
% es.normE (V/m) @ t=0.76
3.49128022508954
% es.EX (V/m) @ t=0.76
3.125428946333425
% es.EY (V/m) @ t=0.76
0.1202549220376215
% es.EZ (V/m) @ t=0.76
-1.551215684171254
% es.tEX (V/m) @ t=0.76
3.1254289463334235
% es.tEY (V/m) @ t=0.76
0
% es.tEZ (V/m) @ t=0.76
-1.5512156841712468
% es.Ex (V/m) @ t=0.76
3.125428946333425
% es.Ey (V/m) @ t=0.76
0.1202549220376215
% es.Ez (V/m) @ t=0.76
-1.551215684171254
% es.tEx (V/m) @ t=0.76
3.1254289463334235
% es.tEy (V/m) @ t=0.76
0
% es.tEz (V/m) @ t=0.76
-1.5512156841712468
% V (V) @ t=0.76
0.01583983173928264
% es.normE (V/m) @ t=0.78
3.522962290679363
% es.EX (V/m) @ t=0.78
3.153791333024637
% es.EY (V/m) @ t=0.78
0.12134677841471803
% es.EZ (V/m) @ t=0.78
-1.5652917679174998
% es.tEX (V/m) @ t=0.78
3.1537913330246408
% es.tEY (V/m) @ t=0.78
0
% es.tEZ (V/m) @ t=0.78
-1.5652917679174863
% es.Ex (V/m) @ t=0.78
3.153791333024637
% es.Ey (V/m) @ t=0.78
0.12134677841471803
% es.Ez (V/m) @ t=0.78
-1.5652917679174998
% es.tEx (V/m) @ t=0.78
3.1537913330246408
% es.tEy (V/m) @ t=0.78
0
% es.tEz (V/m) @ t=0.78
-1.5652917679174863
% V (V) @ t=0.78
0.01598355078697719
% es.normE (V/m) @ t=0.8
3.556675364423103
% es.EX (V/m) @ t=0.8
3.183971487539346
% es.EY (V/m) @ t=0.8
0.1225077436544143
% es.EZ (V/m) @ t=0.8
-1.5802711457790264
% es.tEX (V/m) @ t=0.8
3.18397148753934
% es.tEY (V/m) @ t=0.8
0
% es.tEZ (V/m) @ t=0.8
-1.5802711457790224
% es.Ex (V/m) @ t=0.8
3.183971487539346
% es.Ey (V/m) @ t=0.8
0.1225077436544143
% es.Ez (V/m) @ t=0.8
-1.5802711457790264
% es.tEx (V/m) @ t=0.8
3.18397148753934
% es.tEy (V/m) @ t=0.8
0
% es.tEz (V/m) @ t=0.8
-1.5802711457790224
% V (V) @ t=0.8
0.016136515490782245
% es.normE (V/m) @ t=0.82
3.5903884381669577
% es.EX (V/m) @ t=0.82
3.2141516420541008
% es.EY (V/m) @ t=0.82
0.12366870889412912
% es.EZ (V/m) @ t=0.82
-1.5952505236405705
% es.tEX (V/m) @ t=0.82
3.2141516420540963
% es.tEY (V/m) @ t=0.82
0
% es.tEZ (V/m) @ t=0.82
-1.5952505236405656
% es.Ex (V/m) @ t=0.82
3.2141516420541008
% es.Ey (V/m) @ t=0.82
0.12366870889412912
% es.Ez (V/m) @ t=0.82
-1.5952505236405705
% es.tEx (V/m) @ t=0.82
3.2141516420540963
% es.tEy (V/m) @ t=0.82
0
% es.tEz (V/m) @ t=0.82
-1.5952505236405656
% V (V) @ t=0.82
0.016289480194587303
% es.normE (V/m) @ t=0.84
3.624101511910884
% es.EX (V/m) @ t=0.84
3.244331796568855
% es.EY (V/m) @ t=0.84
0.12482967413386087
% es.EZ (V/m) @ t=0.84
-1.6102299015021324
% es.tEX (V/m) @ t=0.84
3.2443317965688525
% es.tEY (V/m) @ t=0.84
0
% es.tEZ (V/m) @ t=0.84
-1.610229901502123
% es.Ex (V/m) @ t=0.84
3.244331796568855
% es.Ey (V/m) @ t=0.84
0.12482967413386087
% es.Ez (V/m) @ t=0.84
-1.6102299015021324
% es.tEx (V/m) @ t=0.84
3.2443317965688525
% es.tEy (V/m) @ t=0.84
0
% es.tEz (V/m) @ t=0.84
-1.610229901502123
% V (V) @ t=0.84
0.01644244489839236
% es.normE (V/m) @ t=0.86
3.657814585654844
% es.EX (V/m) @ t=0.86
3.2745119510835794
% es.EY (V/m) @ t=0.86
0.12599063937357124
% es.EZ (V/m) @ t=0.86
-1.6252092793636945
% es.tEX (V/m) @ t=0.86
3.2745119510835767
% es.tEY (V/m) @ t=0.86
0
% es.tEZ (V/m) @ t=0.86
-1.6252092793636876
% es.Ex (V/m) @ t=0.86
3.2745119510835794
% es.Ey (V/m) @ t=0.86
0.12599063937357124
% es.Ez (V/m) @ t=0.86
-1.6252092793636945
% es.tEx (V/m) @ t=0.86
3.2745119510835767
% es.tEy (V/m) @ t=0.86
0
% es.tEz (V/m) @ t=0.86
-1.6252092793636876
% V (V) @ t=0.86
0.01659540960219742
% es.normE (V/m) @ t=0.88
3.6915276593988793
% es.EX (V/m) @ t=0.88
3.3046921055983347
% es.EY (V/m) @ t=0.88
0.12715160461325686
% es.EZ (V/m) @ t=0.88
-1.6401886572252318
% es.tEX (V/m) @ t=0.88
3.3046921055983205
% es.tEY (V/m) @ t=0.88
0
% es.tEZ (V/m) @ t=0.88
-1.6401886572252025
% es.Ex (V/m) @ t=0.88
3.3046921055983347
% es.Ey (V/m) @ t=0.88
0.12715160461325686
% es.Ez (V/m) @ t=0.88
-1.6401886572252318
% es.tEx (V/m) @ t=0.88
3.3046921055983205
% es.tEy (V/m) @ t=0.88
0
% es.tEz (V/m) @ t=0.88
-1.6401886572252025
% V (V) @ t=0.88
0.016748374306002477
% es.normE (V/m) @ t=0.9
3.72524073314293
% es.EX (V/m) @ t=0.9
3.334872260113047
% es.EY (V/m) @ t=0.9
0.12831256985293443
% es.EZ (V/m) @ t=0.9
-1.6551680350867581
% es.tEX (V/m) @ t=0.9
3.3348722601130323
% es.tEY (V/m) @ t=0.9
0
% es.tEZ (V/m) @ t=0.9
-1.6551680350867386
% es.Ex (V/m) @ t=0.9
3.334872260113047
% es.Ey (V/m) @ t=0.9
0.12831256985293443
% es.Ez (V/m) @ t=0.9
-1.6551680350867581
% es.tEx (V/m) @ t=0.9
3.3348722601130323
% es.tEy (V/m) @ t=0.9
0
% es.tEz (V/m) @ t=0.9
-1.6551680350867386
% V (V) @ t=0.9
0.01690133900980753
% es.normE (V/m) @ t=0.92
3.758953806887081
% es.EX (V/m) @ t=0.92
3.3650524146277934
% es.EY (V/m) @ t=0.92
0.12947353509265547
% es.EZ (V/m) @ t=0.92
-1.670147412948313
% es.tEX (V/m) @ t=0.92
3.3650524146277885
% es.tEY (V/m) @ t=0.92
0
% es.tEZ (V/m) @ t=0.92
-1.670147412948289
% es.Ex (V/m) @ t=0.92
3.3650524146277934
% es.Ey (V/m) @ t=0.92
0.12947353509265547
% es.Ez (V/m) @ t=0.92
-1.670147412948313
% es.tEx (V/m) @ t=0.92
3.3650524146277885
% es.tEy (V/m) @ t=0.92
0
% es.tEz (V/m) @ t=0.92
-1.670147412948289
% V (V) @ t=0.92
0.017054303713612592
% es.normE (V/m) @ t=0.94
3.792666880631249
% es.EX (V/m) @ t=0.94
3.3952325691425056
% es.EY (V/m) @ t=0.94
0.1306345003323331
% es.EZ (V/m) @ t=0.94
-1.6851267908098537
% es.tEX (V/m) @ t=0.94
3.3952325691425145
% es.tEY (V/m) @ t=0.94
0
% es.tEZ (V/m) @ t=0.94
-1.6851267908098109
% es.Ex (V/m) @ t=0.94
3.3952325691425056
% es.Ey (V/m) @ t=0.94
0.1306345003323331
% es.Ez (V/m) @ t=0.94
-1.6851267908098537
% es.tEx (V/m) @ t=0.94
3.3952325691425145
% es.tEy (V/m) @ t=0.94
0
% es.tEz (V/m) @ t=0.94
-1.6851267908098109
% V (V) @ t=0.94
0.017207268417417647
% es.normE (V/m) @ t=0.96
3.826379954375491
% es.EX (V/m) @ t=0.96
3.425412723657245
% es.EY (V/m) @ t=0.96
0.13179546557203103
% es.EZ (V/m) @ t=0.96
-1.7001061686713839
% es.tEX (V/m) @ t=0.96
3.4254127236572423
% es.tEY (V/m) @ t=0.96
0
% es.tEZ (V/m) @ t=0.96
-1.7001061686713683
% es.Ex (V/m) @ t=0.96
3.425412723657245
% es.Ey (V/m) @ t=0.96
0.13179546557203103
% es.Ez (V/m) @ t=0.96
-1.7001061686713839
% es.tEx (V/m) @ t=0.96
3.4254127236572423
% es.tEy (V/m) @ t=0.96
0
% es.tEz (V/m) @ t=0.96
-1.7001061686713683
% V (V) @ t=0.96
0.017360233121222705
% es.normE (V/m) @ t=0.98
3.8600930281197954
% es.EX (V/m) @ t=0.98
3.455592878171993
% es.EY (V/m) @ t=0.98
0.13295643081174685
% es.EZ (V/m) @ t=0.98
-1.7150855465329173
% es.tEX (V/m) @ t=0.98
3.455592878171972
% es.tEY (V/m) @ t=0.98
0
% es.tEZ (V/m) @ t=0.98
-1.7150855465329045
% es.Ex (V/m) @ t=0.98
3.455592878171993
% es.Ey (V/m) @ t=0.98
0.13295643081174685
% es.Ez (V/m) @ t=0.98
-1.7150855465329173
% es.tEx (V/m) @ t=0.98
3.455592878171972
% es.tEy (V/m) @ t=0.98
0
% es.tEz (V/m) @ t=0.98
-1.7150855465329045
% V (V) @ t=0.98
0.01751319782502776
% es.normE (V/m) @ t=1
3.8938061018641363
% es.EX (V/m) @ t=1
3.4857730326867182
% es.EY (V/m) @ t=1
0.1341173960514297
% es.EZ (V/m) @ t=1
-1.7300649243944688
% es.tEX (V/m) @ t=1
3.4857730326867262
% es.tEY (V/m) @ t=1
0
% es.tEZ (V/m) @ t=1
-1.7300649243944548
% es.Ex (V/m) @ t=1
3.4857730326867182
% es.Ey (V/m) @ t=1
0.1341173960514297
% es.Ez (V/m) @ t=1
-1.7300649243944688
% es.tEx (V/m) @ t=1
3.4857730326867262
% es.tEy (V/m) @ t=1
0
% es.tEz (V/m) @ t=1
-1.7300649243944548
% V (V) @ t=1
0.017666162528832817
% es.normE (V/m) @ t=1.02
3.927519175608528
% es.EX (V/m) @ t=1.02
3.5159531872014584
% es.EY (V/m) @ t=1.02
0.13527836129111348
% es.EZ (V/m) @ t=1.02
-1.7450443022559916
% es.tEX (V/m) @ t=1.02
3.51595318720144
% es.tEY (V/m) @ t=1.02
0
% es.tEZ (V/m) @ t=1.02
-1.7450443022560052
% es.Ex (V/m) @ t=1.02
3.5159531872014584
% es.Ey (V/m) @ t=1.02
0.13527836129111348
% es.Ez (V/m) @ t=1.02
-1.7450443022559916
% es.tEx (V/m) @ t=1.02
3.51595318720144
% es.tEy (V/m) @ t=1.02
0
% es.tEz (V/m) @ t=1.02
-1.7450443022560052
% V (V) @ t=1.02
0.017819127232637875
% es.normE (V/m) @ t=1.04
3.962085295939417
% es.EX (V/m) @ t=1.04
3.5468970212831827
% es.EY (V/m) @ t=1.04
0.13646875818071597
% es.EZ (V/m) @ t=1.04
-1.7604026468202414
% es.tEX (V/m) @ t=1.04
3.546897021283181
% es.tEY (V/m) @ t=1.04
0
% es.tEZ (V/m) @ t=1.04
-1.7604026468202107
% es.Ex (V/m) @ t=1.04