% Model:              1 neuron.mph
% Version:            COMSOL 6.1.0.252
% Date:               Mar 27 2023, 14:35
% Dimension:          0
% Nodes:              14017
% Expressions:        14017
% Description:        Electric field norm, Electric field, X component, Electric field, Y component, Electric field, Z component, Tangential electric field, X component, Tangential electric field, Y component, Tangential electric field, Z component, Electric field, x component, Electric field, y component, Electric field, z component, Tangential electric field, x component, Tangential electric field, y component, Tangential electric field, z component, Electric potential
% Length unit:        mm
% x
1
% y
12.2
% z
1
% es.normE (V/m) @ t=0
1.4363949118107735
% es.EX (V/m) @ t=0
0.9753307504672328
% es.EY (V/m) @ t=0
0.27700674159367544
% es.EZ (V/m) @ t=0
0.9909795457344845
% es.tEX (V/m) @ t=0
0.975330750467208
% es.tEY (V/m) @ t=0
0
% es.tEZ (V/m) @ t=0
0.9909795457344686
% es.Ex (V/m) @ t=0
0.9753307504672328
% es.Ey (V/m) @ t=0
0.27700674159367544
% es.Ez (V/m) @ t=0
0.9909795457344845
% es.tEx (V/m) @ t=0
0.975330750467208
% es.tEy (V/m) @ t=0
0
% es.tEz (V/m) @ t=0
0.9909795457344686
% V (V) @ t=0
0.013469460367064647
% es.normE (V/m) @ t=0.02
1.2406267280393708
% es.EX (V/m) @ t=0.02
0.8424016176304612
% es.EY (V/m) @ t=0.02
0.2392531223464509
% es.EZ (V/m) @ t=0.02
0.8559176182191282
% es.tEX (V/m) @ t=0.02
0.8424016176304434
% es.tEY (V/m) @ t=0.02
0
% es.tEZ (V/m) @ t=0.02
0.8559176182191095
% es.Ex (V/m) @ t=0.02
0.8424016176304612
% es.Ey (V/m) @ t=0.02
0.2392531223464509
% es.Ez (V/m) @ t=0.02
0.8559176182191282
% es.tEx (V/m) @ t=0.02
0.8424016176304434
% es.tEy (V/m) @ t=0.02
0
% es.tEz (V/m) @ t=0.02
0.8559176182191095
% V (V) @ t=0.02
0.01163368956093543
% es.normE (V/m) @ t=0.04
1.2520371270401485
% es.EX (V/m) @ t=0.04
0.8501494256810389
% es.EY (V/m) @ t=0.04
0.241453601930548
% es.EZ (V/m) @ t=0.04
0.863789737999662
% es.tEX (V/m) @ t=0.04
0.8501494256810389
% es.tEY (V/m) @ t=0.04
0
% es.tEZ (V/m) @ t=0.04
0.863789737999646
% es.Ex (V/m) @ t=0.04
0.8501494256810389
% es.Ey (V/m) @ t=0.04
0.241453601930548
% es.Ez (V/m) @ t=0.04
0.863789737999662
% es.tEx (V/m) @ t=0.04
0.8501494256810389
% es.tEy (V/m) @ t=0.04
0
% es.tEz (V/m) @ t=0.04
0.863789737999646
% V (V) @ t=0.04
0.011740687853486465
% es.normE (V/m) @ t=0.06
1.2635337613987694
% es.EX (V/m) @ t=0.06
0.8579557901793748
% es.EY (V/m) @ t=0.06
0.24367071151627684
% es.EZ (V/m) @ t=0.06
0.8717213509590191
% es.tEX (V/m) @ t=0.06
0.857955790179389
% es.tEY (V/m) @ t=0.06
0
% es.tEZ (V/m) @ t=0.06
0.8717213509590138
% es.Ex (V/m) @ t=0.06
0.8579557901793748
% es.Ey (V/m) @ t=0.06
0.24367071151627684
% es.Ez (V/m) @ t=0.06
0.8717213509590191
% es.tEx (V/m) @ t=0.06
0.857955790179389
% es.tEy (V/m) @ t=0.06
0
% es.tEz (V/m) @ t=0.06
0.8717213509590138
% V (V) @ t=0.06
0.01184849498010393
% es.normE (V/m) @ t=0.08
1.2752440417272068
% es.EX (V/m) @ t=0.08
0.8659072224862783
% es.EY (V/m) @ t=0.08
0.2459290225673012
% es.EZ (V/m) @ t=0.08
0.8798003603264775
% es.tEX (V/m) @ t=0.08
0.865907222486257
% es.tEY (V/m) @ t=0.08
0
% es.tEZ (V/m) @ t=0.08
0.8798003603264632
% es.Ex (V/m) @ t=0.08
0.8659072224862783
% es.Ey (V/m) @ t=0.08
0.2459290225673012
% es.Ez (V/m) @ t=0.08
0.8798003603264775
% es.tEx (V/m) @ t=0.08
0.865907222486257
% es.tEy (V/m) @ t=0.08
0
% es.tEz (V/m) @ t=0.08
0.8798003603264632
% V (V) @ t=0.08
0.011958305453274306
% es.normE (V/m) @ t=0.1
1.2870231653976205
% es.EX (V/m) @ t=0.1
0.8739054001296758
% es.EY (V/m) @ t=0.1
0.24820061000532867
% es.EZ (V/m) @ t=0.1
0.887926865377274
% es.tEX (V/m) @ t=0.1
0.8739054001296722
% es.tEY (V/m) @ t=0.1
0
% es.tEZ (V/m) @ t=0.1
0.8879268653772598
% es.Ex (V/m) @ t=0.1
0.8739054001296758
% es.Ey (V/m) @ t=0.1
0.24820061000532867
% es.Ez (V/m) @ t=0.1
0.887926865377274
% es.tEx (V/m) @ t=0.1
0.8739054001296722
% es.tEy (V/m) @ t=0.1
0
% es.tEz (V/m) @ t=0.1
0.8879268653772598
% V (V) @ t=0.1
0.01206876146669152
% es.normE (V/m) @ t=0.12
1.2988022890680933
% es.EX (V/m) @ t=0.12
0.881903577773123
% es.EY (V/m) @ t=0.12
0.2504721974433384
% es.EZ (V/m) @ t=0.12
0.8960533704281204
% es.tEX (V/m) @ t=0.12
0.8819035777731017
% es.tEY (V/m) @ t=0.12
0
% es.tEZ (V/m) @ t=0.12
0.8960533704281133
% es.Ex (V/m) @ t=0.12
0.881903577773123
% es.Ey (V/m) @ t=0.12
0.2504721974433384
% es.Ez (V/m) @ t=0.12
0.8960533704281204
% es.tEx (V/m) @ t=0.12
0.8819035777731017
% es.tEy (V/m) @ t=0.12
0
% es.tEz (V/m) @ t=0.12
0.8960533704281133
% V (V) @ t=0.12
0.012179217480108733
% es.normE (V/m) @ t=0.14
1.310892557525212
% es.EX (V/m) @ t=0.14
0.8901130266500914
% es.EY (V/m) @ t=0.14
0.25280378873259224
% es.EZ (V/m) @ t=0.14
0.9043945366761328
% es.tEX (V/m) @ t=0.14
0.8901130266500559
% es.tEY (V/m) @ t=0.14
0
% es.tEZ (V/m) @ t=0.14
0.9043945366761221
% es.Ex (V/m) @ t=0.14
0.8901130266500914
% es.Ey (V/m) @ t=0.14
0.25280378873259224
% es.Ez (V/m) @ t=0.14
0.9043945366761328
% es.tEx (V/m) @ t=0.14
0.8901130266500559
% es.tEy (V/m) @ t=0.14
0
% es.tEz (V/m) @ t=0.14
0.9043945366761221
% V (V) @ t=0.14
0.012292591169471265
% es.normE (V/m) @ t=0.16
1.323267663694137
% es.EX (V/m) @ t=0.16
0.8985158839250609
% es.EY (V/m) @ t=0.16
0.2551903105892439
% es.EZ (V/m) @ t=0.16
0.9129322146667107
% es.tEX (V/m) @ t=0.16
0.8985158839250573
% es.tEY (V/m) @ t=0.16
0
% es.tEZ (V/m) @ t=0.16
0.9129322146666894
% es.Ex (V/m) @ t=0.16
0.8985158839250609
% es.Ey (V/m) @ t=0.16
0.2551903105892439
% es.Ez (V/m) @ t=0.16
0.9129322146667107
% es.tEx (V/m) @ t=0.16
0.8985158839250573
% es.tEy (V/m) @ t=0.16
0
% es.tEz (V/m) @ t=0.16
0.9129322146666894
% V (V) @ t=0.16
0.012408635847311306
% es.normE (V/m) @ t=0.18
1.3356427698630573
% es.EX (V/m) @ t=0.18
0.9069187412000268
% es.EY (V/m) @ t=0.18
0.2575768324458867
% es.EZ (V/m) @ t=0.18
0.9214698926572815
% es.tEX (V/m) @ t=0.18
0.9069187412000588
% es.tEY (V/m) @ t=0.18
0
% es.tEZ (V/m) @ t=0.18
0.9214698926572638
% es.Ex (V/m) @ t=0.18
0.9069187412000268
% es.Ey (V/m) @ t=0.18
0.2575768324458867
% es.Ez (V/m) @ t=0.18
0.9214698926572815
% es.tEx (V/m) @ t=0.18
0.9069187412000588
% es.tEy (V/m) @ t=0.18
0
% es.tEz (V/m) @ t=0.18
0.9214698926572638
% V (V) @ t=0.18
0.012524680525151342
% es.normE (V/m) @ t=0.2
1.3480178760320116
% es.EX (V/m) @ t=0.2
0.9153215984750389
% es.EY (V/m) @ t=0.2
0.2599633543025064
% es.EZ (V/m) @ t=0.2
0.9300075706478683
% es.tEX (V/m) @ t=0.2
0.9153215984750176
% es.tEY (V/m) @ t=0.2
0
% es.tEZ (V/m) @ t=0.2
0.9300075706478523
% es.Ex (V/m) @ t=0.2
0.9153215984750389
% es.Ey (V/m) @ t=0.2
0.2599633543025064
% es.Ez (V/m) @ t=0.2
0.9300075706478683
% es.tEx (V/m) @ t=0.2
0.9153215984750176
% es.tEy (V/m) @ t=0.2
0
% es.tEz (V/m) @ t=0.2
0.9300075706478523
% V (V) @ t=0.2
0.012640725202991381
% es.normE (V/m) @ t=0.22
1.3603929822009126
% es.EX (V/m) @ t=0.22
0.9237244557500155
% es.EY (V/m) @ t=0.22
0.2623498761591403
% es.EZ (V/m) @ t=0.22
0.9385452486384249
% es.tEX (V/m) @ t=0.22
0.9237244557499906
% es.tEY (V/m) @ t=0.22
0
% es.tEZ (V/m) @ t=0.22
0.9385452486384125
% es.Ex (V/m) @ t=0.22
0.9237244557500155
% es.Ey (V/m) @ t=0.22
0.2623498761591403
% es.Ez (V/m) @ t=0.22
0.9385452486384249
% es.tEx (V/m) @ t=0.22
0.9237244557499906
% es.tEy (V/m) @ t=0.22
0
% es.tEz (V/m) @ t=0.22
0.9385452486384125
% V (V) @ t=0.22
0.01275676988083142
% es.normE (V/m) @ t=0.24
1.3727680883698623
% es.EX (V/m) @ t=0.24
0.9321273130250063
% es.EY (V/m) @ t=0.24
0.2647363980158097
% es.EZ (V/m) @ t=0.24
0.9470829266289975
% es.tEX (V/m) @ t=0.24
0.9321273130250063
% es.tEY (V/m) @ t=0.24
0
% es.tEZ (V/m) @ t=0.24
0.947082926628994
% es.Ex (V/m) @ t=0.24
0.9321273130250063
% es.Ey (V/m) @ t=0.24
0.2647363980158097
% es.Ez (V/m) @ t=0.24
0.9470829266289975
% es.tEx (V/m) @ t=0.24
0.9321273130250063
% es.tEy (V/m) @ t=0.24
0
% es.tEz (V/m) @ t=0.24
0.947082926628994
% V (V) @ t=0.24
0.012872814558671458
% es.normE (V/m) @ t=0.26
1.385214652577537
% es.EX (V/m) @ t=0.26
0.940578692716695
% es.EY (V/m) @ t=0.26
0.2671367001340741
% es.EZ (V/m) @ t=0.26
0.9556699028298965
% es.tEX (V/m) @ t=0.26
0.940578692716656
% es.tEY (V/m) @ t=0.26
0
% es.tEZ (V/m) @ t=0.26
0.9556699028298894
% es.Ex (V/m) @ t=0.26
0.940578692716695
% es.Ey (V/m) @ t=0.26
0.2671367001340741
% es.Ez (V/m) @ t=0.26
0.9556699028298965
% es.tEx (V/m) @ t=0.26
0.940578692716656
% es.tEy (V/m) @ t=0.26
0
% es.tEz (V/m) @ t=0.26
0.9556699028298894
% V (V) @ t=0.26
0.012989529493523753
% es.normE (V/m) @ t=0.28
1.3989225342987521
% es.EX (V/m) @ t=0.28
0.94988654951106
% es.EY (V/m) @ t=0.28
0.2697802399013778
% es.EZ (V/m) @ t=0.28
0.9651270497931836
% es.tEX (V/m) @ t=0.28
0.9498865495110351
% es.tEY (V/m) @ t=0.28
0
% es.tEZ (V/m) @ t=0.28
0.9651270497931677
% es.Ex (V/m) @ t=0.28
0.94988654951106
% es.Ey (V/m) @ t=0.28
0.2697802399013778
% es.Ez (V/m) @ t=0.28
0.9651270497931836
% es.tEx (V/m) @ t=0.28
0.9498865495110351
% es.tEy (V/m) @ t=0.28
0
% es.tEz (V/m) @ t=0.28
0.9651270497931677
% V (V) @ t=0.28
0.01311807524437548
% es.normE (V/m) @ t=0.3
1.412630416020028
% es.EX (V/m) @ t=0.3
0.9591944063054214
% es.EY (V/m) @ t=0.3
0.2724237796687028
% es.EZ (V/m) @ t=0.3
0.9745841967565436
% es.tEX (V/m) @ t=0.3
0.9591944063054001
% es.tEY (V/m) @ t=0.3
0
% es.tEZ (V/m) @ t=0.3
0.9745841967565241
% es.Ex (V/m) @ t=0.3
0.9591944063054214
% es.Ey (V/m) @ t=0.3
0.2724237796687028
% es.Ez (V/m) @ t=0.3
0.9745841967565436
% es.tEx (V/m) @ t=0.3
0.9591944063054001
% es.tEy (V/m) @ t=0.3
0
% es.tEz (V/m) @ t=0.3
0.9745841967565241
% V (V) @ t=0.3
0.013246620995227207
% es.normE (V/m) @ t=0.32
1.4263382977412646
% es.EX (V/m) @ t=0.32
0.9685022630997864
% es.EY (V/m) @ t=0.32
0.27506731943604024
% es.EZ (V/m) @ t=0.32
0.9840413437198432
% es.tEX (V/m) @ t=0.32
0.9685022630997651
% es.tEY (V/m) @ t=0.32
0
% es.tEZ (V/m) @ t=0.32
0.9840413437198308
% es.Ex (V/m) @ t=0.32
0.9685022630997864
% es.Ey (V/m) @ t=0.32
0.27506731943604024
% es.Ez (V/m) @ t=0.32
0.9840413437198432
% es.tEx (V/m) @ t=0.32
0.9685022630997651
% es.tEy (V/m) @ t=0.32
0
% es.tEz (V/m) @ t=0.32
0.9840413437198308
% V (V) @ t=0.32
0.013375166746078932
% es.normE (V/m) @ t=0.34
1.4400461794625439
% es.EX (V/m) @ t=0.34
0.9778101198942188
% es.EY (V/m) @ t=0.34
0.27771085920326044
% es.EZ (V/m) @ t=0.34
0.9934984906831836
% es.tEX (V/m) @ t=0.34
0.9778101198942295
% es.tEY (V/m) @ t=0.34
0
% es.tEZ (V/m) @ t=0.34
0.9934984906831659
% es.Ex (V/m) @ t=0.34
0.9778101198942188
% es.Ey (V/m) @ t=0.34
0.27771085920326044
% es.Ez (V/m) @ t=0.34
0.9934984906831836
% es.tEx (V/m) @ t=0.34
0.9778101198942295
% es.tEy (V/m) @ t=0.34
0
% es.tEz (V/m) @ t=0.34
0.9934984906831659
% V (V) @ t=0.34
0.01350371249693066
% es.normE (V/m) @ t=0.36
1.453754061183778
% es.EX (V/m) @ t=0.36
0.987117976688566
% es.EY (V/m) @ t=0.36
0.28035439897060854
% es.EZ (V/m) @ t=0.36
1.002955637646492
% es.tEX (V/m) @ t=0.36
0.9871179766885518
% es.tEY (V/m) @ t=0.36
0
% es.tEZ (V/m) @ t=0.36
1.0029556376464726
% es.Ex (V/m) @ t=0.36
0.987117976688566
% es.Ey (V/m) @ t=0.36
0.28035439897060854
% es.Ez (V/m) @ t=0.36
1.002955637646492
% es.tEx (V/m) @ t=0.36
0.9871179766885518
% es.tEy (V/m) @ t=0.36
0
% es.tEz (V/m) @ t=0.36
1.0029556376464726
% V (V) @ t=0.36
0.013632258247782386
% es.normE (V/m) @ t=0.38
1.4674619429050355
% es.EX (V/m) @ t=0.38
0.9964258334829381
% es.EY (V/m) @ t=0.38
0.28299793873794243
% es.EZ (V/m) @ t=0.38
1.012412784609813
% es.tEX (V/m) @ t=0.38
0.996425833482931
% es.tEY (V/m) @ t=0.38
0
% es.tEZ (V/m) @ t=0.38
1.0124127846097934
% es.Ex (V/m) @ t=0.38
0.9964258334829381
% es.Ey (V/m) @ t=0.38
0.28299793873794243
% es.Ez (V/m) @ t=0.38
1.012412784609813
% es.tEx (V/m) @ t=0.38
0.996425833482931
% es.tEy (V/m) @ t=0.38
0
% es.tEz (V/m) @ t=0.38
1.0124127846097934
% V (V) @ t=0.38
0.013760803998634117
% es.normE (V/m) @ t=0.4
1.4811698246263094
% es.EX (V/m) @ t=0.4
1.0057336902773457
% es.EY (V/m) @ t=0.4
0.2856414785052195
% es.EZ (V/m) @ t=0.4
1.0218699315731339
% es.tEX (V/m) @ t=0.4
1.0057336902773244
% es.tEY (V/m) @ t=0.4
0
% es.tEZ (V/m) @ t=0.4
1.0218699315731143
% es.Ex (V/m) @ t=0.4
1.0057336902773457
% es.Ey (V/m) @ t=0.4
0.2856414785052195
% es.Ez (V/m) @ t=0.4
1.0218699315731339
% es.tEx (V/m) @ t=0.4
1.0057336902773244
% es.tEy (V/m) @ t=0.4
0
% es.tEz (V/m) @ t=0.4
1.0218699315731143
% V (V) @ t=0.4
0.013889349749485844
% es.normE (V/m) @ t=0.42
1.4948777063475749
% es.EX (V/m) @ t=0.42
1.0150415470717142
% es.EY (V/m) @ t=0.42
0.28828501827253916
% es.EZ (V/m) @ t=0.42
1.0313270785364743
% es.tEX (V/m) @ t=0.42
1.0150415470717036
% es.tEY (V/m) @ t=0.42
0
% es.tEZ (V/m) @ t=0.42
1.0313270785364566
% es.Ex (V/m) @ t=0.42
1.0150415470717142
% es.Ey (V/m) @ t=0.42
0.28828501827253916
% es.Ez (V/m) @ t=0.42
1.0313270785364743
% es.tEx (V/m) @ t=0.42
1.0150415470717036
% es.tEy (V/m) @ t=0.42
0
% es.tEz (V/m) @ t=0.42
1.0313270785364566
% V (V) @ t=0.42
0.014017895500337569
% es.normE (V/m) @ t=0.44
1.5085855880688457
% es.EX (V/m) @ t=0.44
1.024349403866104
% es.EY (V/m) @ t=0.44
0.29092855803988016
% es.EZ (V/m) @ t=0.44
1.0407842254997899
% es.tEX (V/m) @ t=0.44
1.024349403866097
% es.tEY (V/m) @ t=0.44
0
% es.tEZ (V/m) @ t=0.44
1.0407842254997632
% es.Ex (V/m) @ t=0.44
1.024349403866104
% es.Ey (V/m) @ t=0.44
0.29092855803988016
% es.Ez (V/m) @ t=0.44
1.0407842254997899
% es.tEx (V/m) @ t=0.44
1.024349403866097
% es.tEy (V/m) @ t=0.44
0
% es.tEz (V/m) @ t=0.44
1.0407842254997632
% V (V) @ t=0.44
0.014146441251189298
% es.normE (V/m) @ t=0.46
1.5222934697900568
% es.EX (V/m) @ t=0.46
1.0336572606604584
% es.EY (V/m) @ t=0.46
0.29357209780716076
% es.EZ (V/m) @ t=0.46
1.050241372463077
% es.tEX (V/m) @ t=0.46
1.0336572606604477
% es.tEY (V/m) @ t=0.46
0
% es.tEZ (V/m) @ t=0.46
1.0502413724630628
% es.Ex (V/m) @ t=0.46
1.0336572606604584
% es.Ey (V/m) @ t=0.46
0.29357209780716076
% es.Ez (V/m) @ t=0.46
1.050241372463077
% es.tEx (V/m) @ t=0.46
1.0336572606604477
% es.tEy (V/m) @ t=0.46
0
% es.tEz (V/m) @ t=0.46
1.0502413724630628
% V (V) @ t=0.46
0.014274987002041023
% es.normE (V/m) @ t=0.48
1.5360013515113362
% es.EX (V/m) @ t=0.48
1.0429651174548553
% es.EY (V/m) @ t=0.48
0.29621563757445557
% es.EZ (V/m) @ t=0.48
1.0596985194264121
% es.tEX (V/m) @ t=0.48
1.042965117454841
% es.tEY (V/m) @ t=0.48
0
% es.tEZ (V/m) @ t=0.48
1.059698519426405
% es.Ex (V/m) @ t=0.48
1.0429651174548553
% es.Ey (V/m) @ t=0.48
0.29621563757445557
% es.Ez (V/m) @ t=0.48
1.0596985194264121
% es.tEx (V/m) @ t=0.48
1.042965117454841
% es.tEy (V/m) @ t=0.48
0
% es.tEz (V/m) @ t=0.48
1.059698519426405
% V (V) @ t=0.48
0.014403532752892748
% es.normE (V/m) @ t=0.5
1.5497092332325777
% es.EX (V/m) @ t=0.5
1.0522729742492167
% es.EY (V/m) @ t=0.5
0.29885917734176815
% es.EZ (V/m) @ t=0.5
1.0691556663897241
% es.tEX (V/m) @ t=0.5
1.0522729742492345
% es.tEY (V/m) @ t=0.5
0
% es.tEZ (V/m) @ t=0.5
1.0691556663897117
% es.Ex (V/m) @ t=0.5
1.0522729742492167
% es.Ey (V/m) @ t=0.5
0.29885917734176815
% es.Ez (V/m) @ t=0.5
1.0691556663897241
% es.tEx (V/m) @ t=0.5
1.0522729742492345
% es.tEy (V/m) @ t=0.5
0
% es.tEz (V/m) @ t=0.5
1.0691556663897117
% V (V) @ t=0.5
0.014532078503744477
% es.normE (V/m) @ t=0.52
1.5635921699140334
% es.EX (V/m) @ t=0.52
1.061699693411125
% es.EY (V/m) @ t=0.52
0.30153647669231276
% es.EZ (V/m) @ t=0.52
1.078733586902258
% es.tEX (V/m) @ t=0.52
1.0616996934110858
% es.tEY (V/m) @ t=0.52
0
% es.tEZ (V/m) @ t=0.52
1.0787335869022456
% es.Ex (V/m) @ t=0.52
1.061699693411125
% es.Ey (V/m) @ t=0.52
0.30153647669231276
% es.Ez (V/m) @ t=0.52
1.078733586902258
% es.tEx (V/m) @ t=0.52
1.0616996934110858
% es.tEy (V/m) @ t=0.52
0
% es.tEz (V/m) @ t=0.52
1.0787335869022456
% V (V) @ t=0.52
0.014662265528918632
% es.normE (V/m) @ t=0.54
1.5788000016991643
% es.EX (V/m) @ t=0.54
1.072026016723438
% es.EY (V/m) @ t=0.54
0.30446928383567595
% es.EZ (V/m) @ t=0.54
1.0892255762526801
% es.tEX (V/m) @ t=0.54
1.072026016723413
% es.tEY (V/m) @ t=0.54
0
% es.tEZ (V/m) @ t=0.54
1.0892255762526588
% es.Ex (V/m) @ t=0.54
1.072026016723438
% es.Ey (V/m) @ t=0.54
0.30446928383567595
% es.Ez (V/m) @ t=0.54
1.0892255762526801
% es.tEx (V/m) @ t=0.54
1.072026016723413
% es.tEy (V/m) @ t=0.54
0
% es.tEz (V/m) @ t=0.54
1.0892255762526588
% V (V) @ t=0.54
0.014804874460398899
% es.normE (V/m) @ t=0.56
1.5940078334843935
% es.EX (V/m) @ t=0.56
1.0823523400358717
% es.EY (V/m) @ t=0.56
0.30740209097907467
% es.EZ (V/m) @ t=0.56
1.099717565603111
% es.tEX (V/m) @ t=0.56
1.0823523400358397
% es.tEY (V/m) @ t=0.56
0
% es.tEZ (V/m) @ t=0.56
1.0997175656030933
% es.Ex (V/m) @ t=0.56
1.0823523400358717
% es.Ey (V/m) @ t=0.56
0.30740209097907467
% es.Ez (V/m) @ t=0.56
1.099717565603111
% es.tEx (V/m) @ t=0.56
1.0823523400358397
% es.tEy (V/m) @ t=0.56
0
% es.tEz (V/m) @ t=0.56
1.0997175656030933
% V (V) @ t=0.56
0.014947483391879162
% es.normE (V/m) @ t=0.58
1.6092156652694833
% es.EX (V/m) @ t=0.58
1.092678663348142
% es.EY (V/m) @ t=0.58
0.3103348981224592
% es.EZ (V/m) @ t=0.58
1.11020955495351
% es.tEX (V/m) @ t=0.58
1.0926786633481527
% es.tEY (V/m) @ t=0.58
0
% es.tEZ (V/m) @ t=0.58
1.1102095549534852
% es.Ex (V/m) @ t=0.58
1.092678663348142
% es.Ey (V/m) @ t=0.58
0.3103348981224592
% es.Ez (V/m) @ t=0.58
1.11020955495351
% es.tEx (V/m) @ t=0.58
1.0926786633481527
% es.tEy (V/m) @ t=0.58
0
% es.tEz (V/m) @ t=0.58
1.1102095549534852
% V (V) @ t=0.58
0.015090092323359424
% es.normE (V/m) @ t=0.6
1.6244234970546763
% es.EX (V/m) @ t=0.6
1.103004986660551
% es.EY (V/m) @ t=0.6
0.31326770526583303
% es.EZ (V/m) @ t=0.6
1.120701544303925
% es.tEX (V/m) @ t=0.6
1.1030049866605225
% es.tEY (V/m) @ t=0.6
0
% es.tEZ (V/m) @ t=0.6
1.1207015443039055
% es.Ex (V/m) @ t=0.6
1.103004986660551
% es.Ey (V/m) @ t=0.6
0.31326770526583303
% es.Ez (V/m) @ t=0.6
1.120701544303925
% es.tEx (V/m) @ t=0.6
1.1030049866605225
% es.tEy (V/m) @ t=0.6
0
% es.tEz (V/m) @ t=0.6
1.1207015443039055
% V (V) @ t=0.6
0.015232701254839689
% es.normE (V/m) @ t=0.62
1.639631328839834
% es.EX (V/m) @ t=0.62
1.1133313099728923
% es.EY (V/m) @ t=0.62
0.3162005124092282
% es.EZ (V/m) @ t=0.62
1.1311935336543453
% es.tEX (V/m) @ t=0.62
1.1133313099728923
% es.tEY (V/m) @ t=0.62
0
% es.tEZ (V/m) @ t=0.62
1.1311935336543257
% es.Ex (V/m) @ t=0.62
1.1133313099728923
% es.Ey (V/m) @ t=0.62
0.3162005124092282
% es.Ez (V/m) @ t=0.62
1.1311935336543453
% es.tEx (V/m) @ t=0.62
1.1133313099728923
% es.tEy (V/m) @ t=0.62
0
% es.tEz (V/m) @ t=0.62
1.1311935336543257
% V (V) @ t=0.62
0.015375310186319956
% es.normE (V/m) @ t=0.64
1.654839160624975
% es.EX (V/m) @ t=0.64
1.1236576332852337
% es.EY (V/m) @ t=0.64
0.3191333195526376
% es.EZ (V/m) @ t=0.64
1.1416855230047354
% es.tEX (V/m) @ t=0.64
1.1236576332852053
% es.tEY (V/m) @ t=0.64
0
% es.tEZ (V/m) @ t=0.64
1.1416855230047176
% es.Ex (V/m) @ t=0.64
1.1236576332852337
% es.Ey (V/m) @ t=0.64
0.3191333195526376
% es.Ez (V/m) @ t=0.64
1.1416855230047354
% es.tEx (V/m) @ t=0.64
1.1236576332852053
% es.tEy (V/m) @ t=0.64
0
% es.tEz (V/m) @ t=0.64
1.1416855230047176
% V (V) @ t=0.64
0.015517919117800216
% es.normE (V/m) @ t=0.66
1.670046992410101
% es.EX (V/m) @ t=0.66
1.133983956597561
% es.EY (V/m) @ t=0.66
0.3220661266960292
% es.EZ (V/m) @ t=0.66
1.1521775123551201
% es.tEX (V/m) @ t=0.66
1.1339839565975467
% es.tEY (V/m) @ t=0.66
0
% es.tEZ (V/m) @ t=0.66
1.1521775123551095
% es.Ex (V/m) @ t=0.66
1.133983956597561
% es.Ey (V/m) @ t=0.66
0.3220661266960292
% es.Ez (V/m) @ t=0.66
1.1521775123551201
% es.tEx (V/m) @ t=0.66
1.1339839565975467
% es.tEy (V/m) @ t=0.66
0
% es.tEz (V/m) @ t=0.66
1.1521775123551095
% V (V) @ t=0.66
0.01566052804928048
% es.normE (V/m) @ t=0.68
1.6852548241952878
% es.EX (V/m) @ t=0.68
1.1443102799099236
% es.EY (V/m) @ t=0.68
0.32499893383942435
% es.EZ (V/m) @ t=0.68
1.1626695017055724
% es.tEX (V/m) @ t=0.68
1.1443102799099165
% es.tEY (V/m) @ t=0.68
0
% es.tEZ (V/m) @ t=0.68
1.1626695017055582
% es.Ex (V/m) @ t=0.68
1.1443102799099236
% es.Ey (V/m) @ t=0.68
0.32499893383942435
% es.Ez (V/m) @ t=0.68
1.1626695017055724
% es.tEx (V/m) @ t=0.68
1.1443102799099165
% es.tEy (V/m) @ t=0.68
0
% es.tEz (V/m) @ t=0.68
1.1626695017055582
% V (V) @ t=0.68
0.015803136980760746
% es.normE (V/m) @ t=0.7
1.7004626559803941
% es.EX (V/m) @ t=0.7
1.1546366032222153
% es.EY (V/m) @ t=0.7
0.32793174098287636
% es.EZ (V/m) @ t=0.7
1.1731614910559447
% es.tEX (V/m) @ t=0.7
1.154636603222201
% es.tEY (V/m) @ t=0.7
0
% es.tEZ (V/m) @ t=0.7
1.1731614910559287
% es.Ex (V/m) @ t=0.7
1.1546366032222153
% es.Ey (V/m) @ t=0.7
0.32793174098287636
% es.Ez (V/m) @ t=0.7
1.1731614910559447
% es.tEx (V/m) @ t=0.7
1.154636603222201
% es.tEy (V/m) @ t=0.7
0
% es.tEz (V/m) @ t=0.7
1.1731614910559287
% V (V) @ t=0.7
0.015945745912241006
% es.normE (V/m) @ t=0.72
1.7156704877656201
% es.EX (V/m) @ t=0.72
1.1649629265346348
% es.EY (V/m) @ t=0.72
0.33086454812621113
% es.EZ (V/m) @ t=0.72
1.1836534804064005
% es.tEX (V/m) @ t=0.72
1.1649629265346277
% es.tEY (V/m) @ t=0.72
0
% es.tEZ (V/m) @ t=0.72
1.1836534804063845
% es.Ex (V/m) @ t=0.72
1.1649629265346348
% es.Ey (V/m) @ t=0.72
0.33086454812621113
% es.Ez (V/m) @ t=0.72
1.1836534804064005
% es.tEx (V/m) @ t=0.72
1.1649629265346277
% es.tEy (V/m) @ t=0.72
0
% es.tEz (V/m) @ t=0.72
1.1836534804063845
% V (V) @ t=0.72
0.016088354843721273
% es.normE (V/m) @ t=0.74
1.7308783195507367
% es.EX (V/m) @ t=0.74
1.1752892498469691
% es.EY (V/m) @ t=0.74
0.33379735526967025
% es.EZ (V/m) @ t=0.74
1.1941454697567604
% es.tEX (V/m) @ t=0.74
1.1752892498469123
% es.tEY (V/m) @ t=0.74
0
% es.tEZ (V/m) @ t=0.74
1.194145469756755
% es.Ex (V/m) @ t=0.74
1.1752892498469691
% es.Ey (V/m) @ t=0.74
0.33379735526967025
% es.Ez (V/m) @ t=0.74
1.1941454697567604
% es.tEx (V/m) @ t=0.74
1.1752892498469123
% es.tEy (V/m) @ t=0.74
0
% es.tEz (V/m) @ t=0.74
1.194145469756755
% V (V) @ t=0.74
0.016230963775201536
% es.normE (V/m) @ t=0.76
1.7460861513358523
% es.EX (V/m) @ t=0.76
1.1856155731592395
% es.EY (V/m) @ t=0.76
0.33673016241304765
% es.EZ (V/m) @ t=0.76
1.2046374591071878
% es.tEX (V/m) @ t=0.76
1.1856155731592253
% es.tEY (V/m) @ t=0.76
0
% es.tEZ (V/m) @ t=0.76
1.2046374591071682
% es.Ex (V/m) @ t=0.76
1.1856155731592395
% es.Ey (V/m) @ t=0.76
0.33673016241304765
% es.Ez (V/m) @ t=0.76
1.2046374591071878
% es.tEx (V/m) @ t=0.76
1.1856155731592253
% es.tEy (V/m) @ t=0.76
0
% es.tEz (V/m) @ t=0.76
1.2046374591071682
% V (V) @ t=0.76
0.0163735727066818
% es.normE (V/m) @ t=0.78
1.7615981739572542
% es.EX (V/m) @ t=0.78
1.1961484439466616
% es.EY (V/m) @ t=0.78
0.33972163277702094
% es.EZ (V/m) @ t=0.78
1.2153393136640176
% es.tEX (V/m) @ t=0.78
1.1961484439466403
% es.tEY (V/m) @ t=0.78
0
% es.tEZ (V/m) @ t=0.78
1.2153393136640176
% es.Ex (V/m) @ t=0.78
1.1961484439466616
% es.Ey (V/m) @ t=0.78
0.33972163277702094
% es.Ez (V/m) @ t=0.78
1.2153393136640176
% es.tEx (V/m) @ t=0.78
1.1961484439466403
% es.tEy (V/m) @ t=0.78
0
% es.tEz (V/m) @ t=0.78
1.2153393136640176
% V (V) @ t=0.78
0.01651903387490391
% es.normE (V/m) @ t=0.8
1.77849784945714
% es.EX (V/m) @ t=0.8
1.2076235396932589
% es.EY (V/m) @ t=0.8
0.34298071208035097
% es.EZ (V/m) @ t=0.8
1.2269985279538762
% es.tEX (V/m) @ t=0.8
1.2076235396932589
% es.tEY (V/m) @ t=0.8
0
% es.tEZ (V/m) @ t=0.8
1.2269985279538602
% es.Ex (V/m) @ t=0.8
1.2076235396932589
% es.Ey (V/m) @ t=0.8
0.34298071208035097
% es.Ez (V/m) @ t=0.8
1.2269985279538762
% es.tEx (V/m) @ t=0.8
1.2076235396932589
% es.tEy (V/m) @ t=0.8
0
% es.tEz (V/m) @ t=0.8
1.2269985279538602
% V (V) @ t=0.8
0.01667750633095594
% es.normE (V/m) @ t=0.82
1.7953975249570497
% es.EX (V/m) @ t=0.82
1.2190986354398845
% es.EY (V/m) @ t=0.82
0.3462397913836526
% es.EZ (V/m) @ t=0.82
1.2386577422437384
% es.tEX (V/m) @ t=0.82
1.219098635439849
% es.tEY (V/m) @ t=0.82
0
% es.tEZ (V/m) @ t=0.82
1.2386577422437028
% es.Ex (V/m) @ t=0.82
1.2190986354398845
% es.Ey (V/m) @ t=0.82
0.3462397913836526
% es.Ez (V/m) @ t=0.82
1.2386577422437384
% es.tEx (V/m) @ t=0.82
1.219098635439849
% es.tEy (V/m) @ t=0.82
0
% es.tEz (V/m) @ t=0.82
1.2386577422437028
% V (V) @ t=0.82
0.01683597878700797
% es.normE (V/m) @ t=0.84
1.8122972004569409
% es.EX (V/m) @ t=0.84
1.2305737311865173
% es.EY (V/m) @ t=0.84
0.34949887068687957
% es.EZ (V/m) @ t=0.84
1.2503169565336023
% es.tEX (V/m) @ t=0.84
1.2305737311865244
% es.tEY (V/m) @ t=0.84
0
% es.tEZ (V/m) @ t=0.84
1.250316956533588
% es.Ex (V/m) @ t=0.84
1.2305737311865173
% es.Ey (V/m) @ t=0.84
0.34949887068687957
% es.Ez (V/m) @ t=0.84
1.2503169565336023
% es.tEx (V/m) @ t=0.84
1.2305737311865244
% es.tEy (V/m) @ t=0.84
0
% es.tEz (V/m) @ t=0.84
1.250316956533588
% V (V) @ t=0.84
0.016994451243060003
% es.normE (V/m) @ t=0.86
1.829196875956824
% es.EX (V/m) @ t=0.86
1.2420488269331074
% es.EY (V/m) @ t=0.86
0.352757949990238
% es.EZ (V/m) @ t=0.86
1.2619761708234591
% es.tEX (V/m) @ t=0.86
1.242048826933086
% es.tEY (V/m) @ t=0.86
0
% es.tEZ (V/m) @ t=0.86
1.261976170823452
% es.Ex (V/m) @ t=0.86
1.2420488269331074
% es.Ey (V/m) @ t=0.86
0.352757949990238
% es.Ez (V/m) @ t=0.86
1.2619761708234591
% es.tEx (V/m) @ t=0.86
1.242048826933086
% es.tEy (V/m) @ t=0.86
0
% es.tEz (V/m) @ t=0.86
1.261976170823452
% V (V) @ t=0.86
0.017152923699112033
% es.normE (V/m) @ t=0.88
1.8460965514566654
% es.EX (V/m) @ t=0.88
1.2535239226797046
% es.EY (V/m) @ t=0.88
0.3560170292934579
% es.EZ (V/m) @ t=0.88
1.2736353851132929
% es.tEX (V/m) @ t=0.88
1.2535239226797046
% es.tEY (V/m) @ t=0.88
0
% es.tEZ (V/m) @ t=0.88
1.273635385113252
% es.Ex (V/m) @ t=0.88
1.2535239226797046
% es.Ey (V/m) @ t=0.88
0.3560170292934579
% es.Ez (V/m) @ t=0.88
1.2736353851132929
% es.tEx (V/m) @ t=0.88
1.2535239226797046
% es.tEy (V/m) @ t=0.88
0
% es.tEz (V/m) @ t=0.88
1.273635385113252
% V (V) @ t=0.88
0.017311396155164062
% es.normE (V/m) @ t=0.9
1.8629962269565763
% es.EX (V/m) @ t=0.9
1.2649990184263373
% es.EY (V/m) @ t=0.9
0.3592761085967844
% es.EZ (V/m) @ t=0.9
1.2852945994031408
% es.tEX (V/m) @ t=0.9
1.2649990184263231
% es.tEY (V/m) @ t=0.9
0
% es.tEZ (V/m) @ t=0.9
1.2852945994031302
% es.Ex (V/m) @ t=0.9
1.2649990184263373
% es.Ey (V/m) @ t=0.9
0.3592761085967844
% es.Ez (V/m) @ t=0.9
1.2852945994031408
% es.tEx (V/m) @ t=0.9
1.2649990184263231
% es.tEy (V/m) @ t=0.9
0
% es.tEz (V/m) @ t=0.9
1.2852945994031302
% V (V) @ t=0.9
0.01746986861121609
% es.normE (V/m) @ t=0.92
1.8798959024564597
% es.EX (V/m) @ t=0.92
1.2764741141729274
% es.EY (V/m) @ t=0.92
0.3625351879000931
% es.EZ (V/m) @ t=0.92
1.296953813693003
% es.tEX (V/m) @ t=0.92
1.2764741141729417
% es.tEY (V/m) @ t=0.92
0
% es.tEZ (V/m) @ t=0.92
1.29695381369298
% es.Ex (V/m) @ t=0.92
1.2764741141729274
% es.Ey (V/m) @ t=0.92
0.3625351879000931
% es.Ez (V/m) @ t=0.92
1.296953813693003
% es.tEx (V/m) @ t=0.92
1.2764741141729417
% es.tEy (V/m) @ t=0.92
0
% es.tEz (V/m) @ t=0.92
1.29695381369298
% V (V) @ t=0.92
0.017628341067268124
% es.normE (V/m) @ t=0.94
1.8967955779562988
% es.EX (V/m) @ t=0.94
1.287949209919475
% es.EY (V/m) @ t=0.94
0.36579426720337693
% es.EZ (V/m) @ t=0.94
1.3086130279828652
% es.tEX (V/m) @ t=0.94
1.287949209919475
% es.tEY (V/m) @ t=0.94
0
% es.tEZ (V/m) @ t=0.94
1.3086130279828438
% es.Ex (V/m) @ t=0.94
1.287949209919475
% es.Ey (V/m) @ t=0.94
0.36579426720337693
% es.Ez (V/m) @ t=0.94
1.3086130279828652
% es.tEx (V/m) @ t=0.94
1.287949209919475
% es.tEy (V/m) @ t=0.94
0
% es.tEz (V/m) @ t=0.94
1.3086130279828438
% V (V) @ t=0.94
0.017786813523320153
% es.normE (V/m) @ t=0.96
1.9136952534562166
% es.EX (V/m) @ t=0.96
1.2994243056661219
% es.EY (V/m) @ t=0.96
0.36905334650667854
% es.EZ (V/m) @ t=0.96
1.320272242272722
% es.tEX (V/m) @ t=0.96
1.2994243056660935
% es.tEY (V/m) @ t=0.96
0
% es.tEZ (V/m) @ t=0.96
1.3202722422726936
% es.Ex (V/m) @ t=0.96
1.2994243056661219
% es.Ey (V/m) @ t=0.96
0.36905334650667854
% es.Ez (V/m) @ t=0.96
1.320272242272722
% es.tEx (V/m) @ t=0.96
1.2994243056660935
% es.tEy (V/m) @ t=0.96
0
% es.tEz (V/m) @ t=0.96
1.3202722422726936
% V (V) @ t=0.96
0.017945285979372182
% es.normE (V/m) @ t=0.98
1.9305949289561308
% es.EX (V/m) @ t=0.98
1.3108994014127404
% es.EY (V/m) @ t=0.98
0.3723124258100121
% es.EZ (V/m) @ t=0.98
1.3319314565625984
% es.tEX (V/m) @ t=0.98
1.3108994014127404
% es.tEY (V/m) @ t=0.98
0
% es.tEZ (V/m) @ t=0.98
1.3319314565625717
% es.Ex (V/m) @ t=0.98
1.3108994014127404
% es.Ey (V/m) @ t=0.98
0.3723124258100121
% es.Ez (V/m) @ t=0.98
1.3319314565625984
% es.tEx (V/m) @ t=0.98
1.3108994014127404
% es.tEy (V/m) @ t=0.98
0
% es.tEz (V/m) @ t=0.98
1.3319314565625717
% V (V) @ t=0.98
0.018103758435424215
% es.normE (V/m) @ t=1
1.9474946044560375
% es.EX (V/m) @ t=1
1.3223744971593945
% es.EY (V/m) @ t=1
0.37557150511320003
% es.EZ (V/m) @ t=1
1.3435906708524747
% es.tEX (V/m) @ t=1
1.3223744971593874
% es.tEY (V/m) @ t=1
0
% es.tEZ (V/m) @ t=1
1.343590670852464
% es.Ex (V/m) @ t=1
1.3223744971593945
% es.Ey (V/m) @ t=1
0.37557150511320003
% es.Ez (V/m) @ t=1
1.3435906708524747
% es.tEx (V/m) @ t=1
1.3223744971593874
% es.tEy (V/m) @ t=1
0
% es.tEz (V/m) @ t=1
1.343590670852464
% V (V) @ t=1
0.018262230891476244
% es.normE (V/m) @ t=1.02
1.9643942799558982
% es.EX (V/m) @ t=1.02
1.3338495929059846
% es.EY (V/m) @ t=1.02
0.37883058441653006
% es.EZ (V/m) @ t=1.02
1.3552498851423014
% es.tEX (V/m) @ t=1.02
1.333849592906006
% es.tEY (V/m) @ t=1.02
0
% es.tEZ (V/m) @ t=1.02
1.3552498851422712
% es.Ex (V/m) @ t=1.02
1.3338495929059846
% es.Ey (V/m) @ t=1.02
0.37883058441653006
% es.Ez (V/m) @ t=1.02
1.3552498851423014
% es.tEx (V/m) @ t=1.02
1.333849592906006
% es.tEy (V/m) @ t=1.02
0
% es.tEz (V/m) @ t=1.02
1.3552498851422712
% V (V) @ t=1.02
0.018420703347528277
% es.normE (V/m) @ t=1.04
1.9814871876135667
% es.EX (V/m) @ t=1.04
1.345455894712643
% es.EY (V/m) @ t=1.04
0.3821269285033573
% es.EZ (V/m) @ t=1.04
1.3670424126255103
% es.tEX (V/m) @ t=1.04
1.3454558947126145
% es.tEY (V/m) @ t=1.04
0
% es.tEZ (V/m) @ t=1.04
1.36704241262548
% es.Ex (V/m) @ t=1.04
1.345455894712643
% es.Ey (V/m) @ t=1.04
0.3821269285033573
% es.Ez (V/m) @ t=1.04
1.3670424126255103
% es.tEx (V/m) @ t=1.04
1.3454558947126145
% es.tEy (V/m) @ t=1.04
0