% Model:              1 neuron.mph
% Version:            COMSOL 6.1.0.252
% Date:               Mar 27 2023, 14:41
% Dimension:          0
% Nodes:              14017
% Expressions:        14017
% Description:        Electric field norm, Electric field, X component, Electric field, Y component, Electric field, Z component, Tangential electric field, X component, Tangential electric field, Y component, Tangential electric field, Z component, Electric field, x component, Electric field, y component, Electric field, z component, Tangential electric field, x component, Tangential electric field, y component, Tangential electric field, z component, Electric potential
% Length unit:        mm
% x
1.33
% y
12.2
% z
1
% es.normE (V/m) @ t=0
2.815539932409062
% es.EX (V/m) @ t=0
0.8690548039310213
% es.EY (V/m) @ t=0
0.21054047916622642
% es.EZ (V/m) @ t=0
2.6697525307622785
% es.tEX (V/m) @ t=0
0.8690548039310215
% es.tEY (V/m) @ t=0
0
% es.tEZ (V/m) @ t=0
2.669752530762274
% es.Ex (V/m) @ t=0
0.8690548039310213
% es.Ey (V/m) @ t=0
0.21054047916622642
% es.Ez (V/m) @ t=0
2.6697525307622785
% es.tEx (V/m) @ t=0
0.8690548039310215
% es.tEy (V/m) @ t=0
0
% es.tEz (V/m) @ t=0
2.669752530762274
% V (V) @ t=0
0.01316834672070237
% es.normE (V/m) @ t=0.02
2.4318088866059115
% es.EX (V/m) @ t=0.02
0.7506109831966343
% es.EY (V/m) @ t=0.02
0.18184583438075275
% es.EZ (V/m) @ t=0.02
2.3058909071195157
% es.tEX (V/m) @ t=0.02
0.750610983196637
% es.tEY (V/m) @ t=0.02
0
% es.tEZ (V/m) @ t=0.02
2.3058909071195313
% es.Ex (V/m) @ t=0.02
0.7506109831966343
% es.Ey (V/m) @ t=0.02
0.18184583438075275
% es.Ez (V/m) @ t=0.02
2.3058909071195157
% es.tEx (V/m) @ t=0.02
0.750610983196637
% es.tEy (V/m) @ t=0.02
0
% es.tEz (V/m) @ t=0.02
2.3058909071195313
% V (V) @ t=0.02
0.011373627498533838
% es.normE (V/m) @ t=0.04
2.4541775005613187
% es.EX (V/m) @ t=0.04
0.7575153607010463
% es.EY (V/m) @ t=0.04
0.18351851480579828
% es.EZ (V/m) @ t=0.04
2.32710128432568
% es.tEX (V/m) @ t=0.04
0.7575153607010492
% es.tEY (V/m) @ t=0.04
0
% es.tEZ (V/m) @ t=0.04
2.3271012843256873
% es.Ex (V/m) @ t=0.04
0.7575153607010463
% es.Ey (V/m) @ t=0.04
0.18351851480579828
% es.Ez (V/m) @ t=0.04
2.32710128432568
% es.tEx (V/m) @ t=0.04
0.7575153607010492
% es.tEy (V/m) @ t=0.04
0
% es.tEz (V/m) @ t=0.04
2.3271012843256873
% V (V) @ t=0.04
0.011478246066565941
% es.normE (V/m) @ t=0.06
2.4767180613851525
% es.EX (V/m) @ t=0.06
0.7644728124344556
% es.EY (V/m) @ t=0.06
0.1852040528768336
% es.EZ (V/m) @ t=0.06
2.3484747049261094
% es.tEX (V/m) @ t=0.06
0.7644728124344624
% es.tEY (V/m) @ t=0.06
0
% es.tEZ (V/m) @ t=0.06
2.3484747049261294
% es.Ex (V/m) @ t=0.06
0.7644728124344556
% es.Ey (V/m) @ t=0.06
0.1852040528768336
% es.Ez (V/m) @ t=0.06
2.3484747049261094
% es.tEx (V/m) @ t=0.06
0.7644728124344624
% es.tEy (V/m) @ t=0.06
0
% es.tEz (V/m) @ t=0.06
2.3484747049261294
% V (V) @ t=0.06
0.011583668817484748
% es.normE (V/m) @ t=0.08
2.49967096229663
% es.EX (V/m) @ t=0.08
0.7715575383575705
% es.EY (V/m) @ t=0.08
0.1869204249642582
% es.EZ (V/m) @ t=0.08
2.37023911489122
% es.tEX (V/m) @ t=0.08
0.7715575383575768
% es.tEY (V/m) @ t=0.08
0
% es.tEZ (V/m) @ t=0.08
2.370239114891225
% es.Ex (V/m) @ t=0.08
0.7715575383575705
% es.Ey (V/m) @ t=0.08
0.1869204249642582
% es.Ez (V/m) @ t=0.08
2.37023911489122
% es.tEx (V/m) @ t=0.08
0.7715575383575768
% es.tEy (V/m) @ t=0.08
0
% es.tEz (V/m) @ t=0.08
2.370239114891225
% V (V) @ t=0.08
0.011691020109762423
% es.normE (V/m) @ t=0.1
2.522768145488337
% es.EX (V/m) @ t=0.1
0.778686798903578
% es.EY (V/m) @ t=0.1
0.18864758620926259
% es.EZ (V/m) @ t=0.1
2.392140336286439
% es.tEX (V/m) @ t=0.1
0.7786867989035784
% es.tEY (V/m) @ t=0.1
0
% es.tEZ (V/m) @ t=0.1
2.392140336286456
% es.Ex (V/m) @ t=0.1
0.778686798903578
% es.Ey (V/m) @ t=0.1
0.18864758620926259
% es.Ez (V/m) @ t=0.1
2.392140336286439
% es.tEx (V/m) @ t=0.1
0.7786867989035784
% es.tEy (V/m) @ t=0.1
0
% es.tEz (V/m) @ t=0.1
2.392140336286456
% V (V) @ t=0.1
0.011799046219631367
% es.normE (V/m) @ t=0.12
2.545865328680039
% es.EX (V/m) @ t=0.12
0.7858160594495912
% es.EY (V/m) @ t=0.12
0.19037474745430527
% es.EZ (V/m) @ t=0.12
2.414041557681647
% es.tEX (V/m) @ t=0.12
0.7858160594495942
% es.tEY (V/m) @ t=0.12
0
% es.tEZ (V/m) @ t=0.12
2.4140415576816476
% es.Ex (V/m) @ t=0.12
0.7858160594495912
% es.Ey (V/m) @ t=0.12
0.19037474745430527
% es.Ez (V/m) @ t=0.12
2.414041557681647
% es.tEx (V/m) @ t=0.12
0.7858160594495942
% es.tEy (V/m) @ t=0.12
0
% es.tEz (V/m) @ t=0.12
2.4140415576816476
% V (V) @ t=0.12
0.011907072329500312
% es.normE (V/m) @ t=0.14
2.569539396234596
% es.EX (V/m) @ t=0.14
0.7931233827088793
% es.EY (V/m) @ t=0.14
0.1921450489918224
% es.EZ (V/m) @ t=0.14
2.4364897926339886
% es.tEX (V/m) @ t=0.14
0.7931233827088775
% es.tEY (V/m) @ t=0.14
0
% es.tEZ (V/m) @ t=0.14
2.436489792633994
% es.Ex (V/m) @ t=0.14
0.7931233827088793
% es.Ey (V/m) @ t=0.14
0.1921450489918224
% es.Ez (V/m) @ t=0.14
2.4364897926339886
% es.tEx (V/m) @ t=0.14
0.7931233827088775
% es.tEy (V/m) @ t=0.14
0
% es.tEz (V/m) @ t=0.14
2.436489792633994
% V (V) @ t=0.14
0.012017796314284823
% es.normE (V/m) @ t=0.16
2.5938112577302657
% es.EX (V/m) @ t=0.16
0.8006152226893399
% es.EY (V/m) @ t=0.16
0.19396005447187603
% es.EZ (V/m) @ t=0.16
2.459504868033429
% es.tEX (V/m) @ t=0.16
0.8006152226893377
% es.tEY (V/m) @ t=0.16
0
% es.tEZ (V/m) @ t=0.16
2.459504868033438
% es.Ex (V/m) @ t=0.16
0.8006152226893399
% es.Ey (V/m) @ t=0.16
0.19396005447187603
% es.Ez (V/m) @ t=0.16
2.459504868033429
% es.tEx (V/m) @ t=0.16
0.8006152226893377
% es.tEy (V/m) @ t=0.16
0
% es.tEz (V/m) @ t=0.16
2.459504868033438
% V (V) @ t=0.16
0.012131315960352867
% es.normE (V/m) @ t=0.18
2.6180831192259153
% es.EX (V/m) @ t=0.18
0.8081070626697879
% es.EY (V/m) @ t=0.18
0.19577505995195743
% es.EZ (V/m) @ t=0.18
2.48251994343285
% es.tEX (V/m) @ t=0.18
0.8081070626697979
% es.tEY (V/m) @ t=0.18
0
% es.tEZ (V/m) @ t=0.18
2.4825199434328518
% es.Ex (V/m) @ t=0.18
0.8081070626697879
% es.Ey (V/m) @ t=0.18
0.19577505995195743
% es.Ez (V/m) @ t=0.18
2.48251994343285
% es.tEx (V/m) @ t=0.18
0.8081070626697979
% es.tEy (V/m) @ t=0.18
0
% es.tEz (V/m) @ t=0.18
2.4825199434328518
% V (V) @ t=0.18
0.01224483560642091
% es.normE (V/m) @ t=0.2
2.642354980721569
% es.EX (V/m) @ t=0.2
0.8155989026502488
% es.EY (V/m) @ t=0.2
0.19759006543206692
% es.EZ (V/m) @ t=0.2
2.505535018832269
% es.tEX (V/m) @ t=0.2
0.815598902650251
% es.tEY (V/m) @ t=0.2
0
% es.tEZ (V/m) @ t=0.2
2.505535018832255
% es.Ex (V/m) @ t=0.2
0.8155989026502488
% es.Ey (V/m) @ t=0.2
0.19759006543206692
% es.Ez (V/m) @ t=0.2
2.505535018832269
% es.tEx (V/m) @ t=0.2
0.815598902650251
% es.tEy (V/m) @ t=0.2
0
% es.tEz (V/m) @ t=0.2
2.505535018832255
% V (V) @ t=0.2
0.012358355252488957
% es.normE (V/m) @ t=0.22
2.666626842217231
% es.EX (V/m) @ t=0.22
0.8230907426307208
% es.EY (V/m) @ t=0.22
0.19940507091214132
% es.EZ (V/m) @ t=0.22
2.5285500942316963
% es.tEX (V/m) @ t=0.22
0.8230907426307255
% es.tEY (V/m) @ t=0.22
0
% es.tEZ (V/m) @ t=0.22
2.5285500942316883
% es.Ex (V/m) @ t=0.22
0.8230907426307208
% es.Ey (V/m) @ t=0.22
0.19940507091214132
% es.Ez (V/m) @ t=0.22
2.5285500942316963
% es.tEx (V/m) @ t=0.22
0.8230907426307255
% es.tEy (V/m) @ t=0.22
0
% es.tEz (V/m) @ t=0.22
2.5285500942316883
% V (V) @ t=0.22
0.012471874898556997
% es.normE (V/m) @ t=0.24
2.690898703712877
% es.EX (V/m) @ t=0.24
0.830582582611181
% es.EY (V/m) @ t=0.24
0.20122007639223705
% es.EZ (V/m) @ t=0.24
2.551565169631108
% es.tEX (V/m) @ t=0.24
0.8305825826111857
% es.tEY (V/m) @ t=0.24
0
% es.tEZ (V/m) @ t=0.24
2.551565169631118
% es.Ex (V/m) @ t=0.24
0.830582582611181
% es.Ey (V/m) @ t=0.24
0.20122007639223705
% es.Ez (V/m) @ t=0.24
2.551565169631108
% es.tEx (V/m) @ t=0.24
0.8305825826111857
% es.tEy (V/m) @ t=0.24
0
% es.tEz (V/m) @ t=0.24
2.551565169631118
% V (V) @ t=0.24
0.012585394544625043
% es.normE (V/m) @ t=0.26
2.715170565208559
% es.EX (V/m) @ t=0.26
0.8380744225916419
% es.EY (V/m) @ t=0.26
0.2030350818723502
% es.EZ (V/m) @ t=0.26
2.574580245030557
% es.tEX (V/m) @ t=0.26
0.8380744225916388
% es.tEY (V/m) @ t=0.26
0
% es.tEZ (V/m) @ t=0.26
2.5745802450305355
% es.Ex (V/m) @ t=0.26
0.8380744225916419
% es.Ey (V/m) @ t=0.26
0.2030350818723502
% es.Ez (V/m) @ t=0.26
2.574580245030557
% es.tEx (V/m) @ t=0.26
0.8380744225916388
% es.tEy (V/m) @ t=0.26
0
% es.tEz (V/m) @ t=0.26
2.5745802450305355
% V (V) @ t=0.26
0.012698914190693087
% es.normE (V/m) @ t=0.28
2.742047580376844
% es.EX (V/m) @ t=0.28
0.8463703767561264
% es.EY (V/m) @ t=0.28
0.2050449123681919
% es.EZ (V/m) @ t=0.28
2.60006557975359
% es.tEX (V/m) @ t=0.28
0.8463703767561199
% es.tEY (V/m) @ t=0.28
0
% es.tEZ (V/m) @ t=0.28
2.6000655797536076
% es.Ex (V/m) @ t=0.28
0.8463703767561264
% es.Ey (V/m) @ t=0.28
0.2050449123681919
% es.Ez (V/m) @ t=0.28
2.60006557975359
% es.tEx (V/m) @ t=0.28
0.8463703767561199
% es.tEy (V/m) @ t=0.28
0
% es.tEz (V/m) @ t=0.28
2.6000655797536076
% V (V) @ t=0.28
0.012824616063905545
% es.normE (V/m) @ t=0.3
2.768946345475887
% es.EX (V/m) @ t=0.3
0.8546730443164301
% es.EY (V/m) @ t=0.3
0.20705636942091132
% es.EZ (V/m) @ t=0.3
2.625571538200215
% es.tEX (V/m) @ t=0.3
0.8546730443164279
% es.tEY (V/m) @ t=0.3
0
% es.tEZ (V/m) @ t=0.3
2.625571538200221
% es.Ex (V/m) @ t=0.3
0.8546730443164301
% es.Ey (V/m) @ t=0.3
0.20705636942091132
% es.Ez (V/m) @ t=0.3
2.625571538200215
% es.tEx (V/m) @ t=0.3
0.8546730443164279
% es.tEy (V/m) @ t=0.3
0
% es.tEz (V/m) @ t=0.3
2.625571538200221
% V (V) @ t=0.3
0.012950419644207144
% es.normE (V/m) @ t=0.32
2.795845110574935
% es.EX (V/m) @ t=0.32
0.8629757118767443
% es.EY (V/m) @ t=0.32
0.2090678264736341
% es.EZ (V/m) @ t=0.32
2.651077496646841
% es.tEX (V/m) @ t=0.32
0.86297571187675
% es.tEY (V/m) @ t=0.32
0
% es.tEZ (V/m) @ t=0.32
2.6510774966468382
% es.Ex (V/m) @ t=0.32
0.8629757118767443
% es.Ey (V/m) @ t=0.32
0.2090678264736341
% es.Ez (V/m) @ t=0.32
2.651077496646841
% es.tEx (V/m) @ t=0.32
0.86297571187675
% es.tEy (V/m) @ t=0.32
0
% es.tEz (V/m) @ t=0.32
2.6510774966468382
% V (V) @ t=0.32
0.01307622322450874
% es.normE (V/m) @ t=0.34
2.8227438756739964
% es.EX (V/m) @ t=0.34
0.8712783794370595
% es.EY (V/m) @ t=0.34
0.21107928352635086
% es.EZ (V/m) @ t=0.34
2.676583455093481
% es.tEX (V/m) @ t=0.34
0.8712783794370509
% es.tEY (V/m) @ t=0.34
0
% es.tEZ (V/m) @ t=0.34
2.676583455093482
% es.Ex (V/m) @ t=0.34
0.8712783794370595
% es.Ey (V/m) @ t=0.34
0.21107928352635086
% es.Ez (V/m) @ t=0.34
2.676583455093481
% es.tEx (V/m) @ t=0.34
0.8712783794370509
% es.tEy (V/m) @ t=0.34
0
% es.tEz (V/m) @ t=0.34
2.676583455093482
% V (V) @ t=0.34
0.013202026804810335
% es.normE (V/m) @ t=0.36
2.84964264077302
% es.EX (V/m) @ t=0.36
0.8795810469973662
% es.EY (V/m) @ t=0.36
0.21309074057906674
% es.EZ (V/m) @ t=0.36
2.702089413540084
% es.tEX (V/m) @ t=0.36
0.879581046997373
% es.tEY (V/m) @ t=0.36
0
% es.tEZ (V/m) @ t=0.36
2.7020894135401115
% es.Ex (V/m) @ t=0.36
0.8795810469973662
% es.Ey (V/m) @ t=0.36
0.21309074057906674
% es.Ez (V/m) @ t=0.36
2.702089413540084
% es.tEx (V/m) @ t=0.36
0.879581046997373
% es.tEy (V/m) @ t=0.36
0
% es.tEz (V/m) @ t=0.36
2.7020894135401115
% V (V) @ t=0.36
0.013327830385111934
% es.normE (V/m) @ t=0.38
2.876541405872077
% es.EX (V/m) @ t=0.38
0.8878837145576695
% es.EY (V/m) @ t=0.38
0.21510219763178307
% es.EZ (V/m) @ t=0.38
2.727595371986723
% es.tEX (V/m) @ t=0.38
0.887883714557681
% es.tEY (V/m) @ t=0.38
0
% es.tEZ (V/m) @ t=0.38
2.7275953719867267
% es.Ex (V/m) @ t=0.38
0.8878837145576695
% es.Ey (V/m) @ t=0.38
0.21510219763178307
% es.Ez (V/m) @ t=0.38
2.727595371986723
% es.tEx (V/m) @ t=0.38
0.887883714557681
% es.tEy (V/m) @ t=0.38
0
% es.tEz (V/m) @ t=0.38
2.7275953719867267
% V (V) @ t=0.38
0.01345363396541353
% es.normE (V/m) @ t=0.4
2.9034401709711286
% es.EX (V/m) @ t=0.4
0.8961863821179958
% es.EY (V/m) @ t=0.4
0.2171136546845096
% es.EZ (V/m) @ t=0.4
2.7531013304333483
% es.tEX (V/m) @ t=0.4
0.8961863821179961
% es.tEY (V/m) @ t=0.4
0
% es.tEZ (V/m) @ t=0.4
2.7531013304333563
% es.Ex (V/m) @ t=0.4
0.8961863821179958
% es.Ey (V/m) @ t=0.4
0.2171136546845096
% es.Ez (V/m) @ t=0.4
2.7531013304333483
% es.tEx (V/m) @ t=0.4
0.8961863821179961
% es.tEy (V/m) @ t=0.4
0
% es.tEz (V/m) @ t=0.4
2.7531013304333563
% V (V) @ t=0.4
0.013579437545715127
% es.normE (V/m) @ t=0.42
2.9303389360701657
% es.EX (V/m) @ t=0.42
0.9044890496782958
% es.EY (V/m) @ t=0.42
0.2191251117372226
% es.EZ (V/m) @ t=0.42
2.778607288879967
% es.tEX (V/m) @ t=0.42
0.904489049678304
% es.tEY (V/m) @ t=0.42
0
% es.tEZ (V/m) @ t=0.42
2.7786072888799858
% es.Ex (V/m) @ t=0.42
0.9044890496782958
% es.Ey (V/m) @ t=0.42
0.2191251117372226
% es.Ez (V/m) @ t=0.42
2.778607288879967
% es.tEx (V/m) @ t=0.42
0.904489049678304
% es.tEy (V/m) @ t=0.42
0
% es.tEz (V/m) @ t=0.42
2.7786072888799858
% V (V) @ t=0.42
0.013705241126016725
% es.normE (V/m) @ t=0.44
2.9572377011692432
% es.EX (V/m) @ t=0.44
0.9127917172386175
% es.EY (V/m) @ t=0.44
0.22113656878996313
% es.EZ (V/m) @ t=0.44
2.8041132473266197
% es.tEX (V/m) @ t=0.44
0.9127917172386191
% es.tEY (V/m) @ t=0.44
0
% es.tEZ (V/m) @ t=0.44
2.8041132473266046
% es.Ex (V/m) @ t=0.44
0.9127917172386175
% es.Ey (V/m) @ t=0.44
0.22113656878996313
% es.Ez (V/m) @ t=0.44
2.8041132473266197
% es.tEx (V/m) @ t=0.44
0.9127917172386191
% es.tEy (V/m) @ t=0.44
0
% es.tEz (V/m) @ t=0.44
2.8041132473266046
% V (V) @ t=0.44
0.013831044706318322
% es.normE (V/m) @ t=0.46
2.98413646626829
% es.EX (V/m) @ t=0.46
0.9210943847989237
% es.EY (V/m) @ t=0.46
0.223148025842697
% es.EZ (V/m) @ t=0.46
2.8296192057732457
% es.tEX (V/m) @ t=0.46
0.9210943847989341
% es.tEY (V/m) @ t=0.46
0
% es.tEZ (V/m) @ t=0.46
2.829619205773259
% es.Ex (V/m) @ t=0.46
0.9210943847989237
% es.Ey (V/m) @ t=0.46
0.223148025842697
% es.Ez (V/m) @ t=0.46
2.8296192057732457
% es.tEx (V/m) @ t=0.46
0.9210943847989341
% es.tEy (V/m) @ t=0.46
0
% es.tEz (V/m) @ t=0.46
2.829619205773259
% V (V) @ t=0.46
0.01395684828661992
% es.normE (V/m) @ t=0.48
3.011035231367326
% es.EX (V/m) @ t=0.48
0.9293970523592316
% es.EY (V/m) @ t=0.48
0.22515948289538135
% es.EZ (V/m) @ t=0.48
2.8551251642198627
% es.tEX (V/m) @ t=0.48
0.929397052359235
% es.tEY (V/m) @ t=0.48
0
% es.tEZ (V/m) @ t=0.48
2.8551251642198743
% es.Ex (V/m) @ t=0.48
0.9293970523592316
% es.Ey (V/m) @ t=0.48
0.22515948289538135
% es.Ez (V/m) @ t=0.48
2.8551251642198627
% es.tEx (V/m) @ t=0.48
0.929397052359235
% es.tEy (V/m) @ t=0.48
0
% es.tEz (V/m) @ t=0.48
2.8551251642198743
% V (V) @ t=0.48
0.014082651866921517
% es.normE (V/m) @ t=0.5
3.0379339964663723
% es.EX (V/m) @ t=0.5
0.937699719919548
% es.EY (V/m) @ t=0.5
0.22717093994813298
% es.EZ (V/m) @ t=0.5
2.8806311226664825
% es.tEX (V/m) @ t=0.5
0.9376997199195358
% es.tEY (V/m) @ t=0.5
0
% es.tEZ (V/m) @ t=0.5
2.880631122666504
% es.Ex (V/m) @ t=0.5
0.937699719919548
% es.Ey (V/m) @ t=0.5
0.22717093994813298
% es.Ez (V/m) @ t=0.5
2.8806311226664825
% es.tEx (V/m) @ t=0.5
0.9376997199195358
% es.tEy (V/m) @ t=0.5
0
% es.tEz (V/m) @ t=0.5
2.880631122666504
% V (V) @ t=0.5
0.014208455447223113
% es.normE (V/m) @ t=0.52
3.064832761565451
% es.EX (V/m) @ t=0.52
0.9460023874798589
% es.EY (V/m) @ t=0.52
0.229182397000828
% es.EZ (V/m) @ t=0.52
2.906137081113143
% es.tEX (V/m) @ t=0.52
0.9460023874798651
% es.tEY (V/m) @ t=0.52
0
% es.tEZ (V/m) @ t=0.52
2.906137081113151
% es.Ex (V/m) @ t=0.52
0.9460023874798589
% es.Ey (V/m) @ t=0.52
0.229182397000828
% es.Ez (V/m) @ t=0.52
2.906137081113143
% es.tEx (V/m) @ t=0.52
0.9460023874798651
% es.tEy (V/m) @ t=0.52
0
% es.tEz (V/m) @ t=0.52
2.906137081113151
% V (V) @ t=0.52
0.014334259027524712
% es.normE (V/m) @ t=0.54
3.0946715460156007
% es.EX (V/m) @ t=0.54
0.9552125594158969
% es.EY (V/m) @ t=0.54
0.2314136416449064
% es.EZ (V/m) @ t=0.54
2.9344308218911834
% es.tEX (V/m) @ t=0.54
0.9552125594159122
% es.tEY (V/m) @ t=0.54
0
% es.tEZ (V/m) @ t=0.54
2.934430821891187
% es.Ex (V/m) @ t=0.54
0.9552125594158969
% es.Ey (V/m) @ t=0.54
0.2314136416449064
% es.Ez (V/m) @ t=0.54
2.9344308218911834
% es.tEx (V/m) @ t=0.54
0.9552125594159122
% es.tEy (V/m) @ t=0.54
0
% es.tEz (V/m) @ t=0.54
2.934430821891187
% V (V) @ t=0.54
0.014473818763423307
% es.normE (V/m) @ t=0.56
3.1245311713443105
% es.EX (V/m) @ t=0.56
0.9644291643668763
% es.EY (V/m) @ t=0.56
0.2336464442945494
% es.EZ (V/m) @ t=0.56
2.962744324387125
% es.tEX (V/m) @ t=0.56
0.9644291643668623
% es.tEY (V/m) @ t=0.56
0
% es.tEZ (V/m) @ t=0.56
2.9627443243871348
% es.Ex (V/m) @ t=0.56
0.9644291643668763
% es.Ey (V/m) @ t=0.56
0.2336464442945494
% es.Ez (V/m) @ t=0.56
2.962744324387125
% es.tEx (V/m) @ t=0.56
0.9644291643668623
% es.tEy (V/m) @ t=0.56
0
% es.tEz (V/m) @ t=0.56
2.9627443243871348
% V (V) @ t=0.56
0.014613476012410531
% es.normE (V/m) @ t=0.58
3.1543907966730025
% es.EX (V/m) @ t=0.58
0.9736457693178382
% es.EY (V/m) @ t=0.58
0.23587924694418105
% es.EZ (V/m) @ t=0.58
2.991057826883054
% es.tEX (V/m) @ t=0.58
0.9736457693178409
% es.tEY (V/m) @ t=0.58
0
% es.tEZ (V/m) @ t=0.58
2.9910578268830648
% es.Ex (V/m) @ t=0.58
0.9736457693178382
% es.Ey (V/m) @ t=0.58
0.23587924694418105
% es.Ez (V/m) @ t=0.58
2.991057826883054
% es.tEx (V/m) @ t=0.58
0.9736457693178409
% es.tEy (V/m) @ t=0.58
0
% es.tEz (V/m) @ t=0.58
2.9910578268830648
% V (V) @ t=0.58
0.014753133261397754
% es.normE (V/m) @ t=0.6
3.184250422001684
% es.EX (V/m) @ t=0.6
0.9828623742688227
% es.EY (V/m) @ t=0.6
0.2381120495938165
% es.EZ (V/m) @ t=0.6
3.019371329378963
% es.tEX (V/m) @ t=0.6
0.9828623742688336
% es.tEY (V/m) @ t=0.6
0
% es.tEZ (V/m) @ t=0.6
3.01937132937897
% es.Ex (V/m) @ t=0.6
0.9828623742688227
% es.Ey (V/m) @ t=0.6
0.2381120495938165
% es.Ez (V/m) @ t=0.6
3.019371329378963
% es.tEx (V/m) @ t=0.6
0.9828623742688336
% es.tEy (V/m) @ t=0.6
0
% es.tEz (V/m) @ t=0.6
3.01937132937897
% V (V) @ t=0.6
0.014892790510384977
% es.normE (V/m) @ t=0.62
3.214110047330408
% es.EX (V/m) @ t=0.62
0.9920789792198226
% es.EY (V/m) @ t=0.62
0.24034485224343483
% es.EZ (V/m) @ t=0.62
3.0476848318749123
% es.tEX (V/m) @ t=0.62
0.9920789792198264
% es.tEY (V/m) @ t=0.62
0
% es.tEZ (V/m) @ t=0.62
3.0476848318749177
% es.Ex (V/m) @ t=0.62
0.9920789792198226
% es.Ey (V/m) @ t=0.62
0.24034485224343483
% es.Ez (V/m) @ t=0.62
3.0476848318749123
% es.tEx (V/m) @ t=0.62
0.9920789792198264
% es.tEy (V/m) @ t=0.62
0
% es.tEz (V/m) @ t=0.62
3.0476848318749177
% V (V) @ t=0.62
0.0150324477593722
% es.normE (V/m) @ t=0.64
3.243969672659084
% es.EX (V/m) @ t=0.64
1.0012955841708004
% es.EY (V/m) @ t=0.64
0.24257765489307714
% es.EZ (V/m) @ t=0.64
3.0759983343708157
% es.tEX (V/m) @ t=0.64
1.0012955841708049
% es.tEY (V/m) @ t=0.64
0
% es.tEZ (V/m) @ t=0.64
3.0759983343708264
% es.Ex (V/m) @ t=0.64
1.0012955841708004
% es.Ey (V/m) @ t=0.64
0.24257765489307714
% es.Ez (V/m) @ t=0.64
3.0759983343708157
% es.tEx (V/m) @ t=0.64
1.0012955841708049
% es.tEy (V/m) @ t=0.64
0
% es.tEz (V/m) @ t=0.64
3.0759983343708264
% V (V) @ t=0.64
0.015172105008359422
% es.normE (V/m) @ t=0.66
3.273829297987791
% es.EX (V/m) @ t=0.66
1.0105121891217848
% es.EY (V/m) @ t=0.66
0.24481045754269481
% es.EZ (V/m) @ t=0.66
3.10431183686675
% es.tEX (V/m) @ t=0.66
1.0105121891217976
% es.tEY (V/m) @ t=0.66
0
% es.tEZ (V/m) @ t=0.66
3.10431183686676
% es.Ex (V/m) @ t=0.66
1.0105121891217848
% es.Ey (V/m) @ t=0.66
0.24481045754269481
% es.Ez (V/m) @ t=0.66
3.10431183686675
% es.tEx (V/m) @ t=0.66
1.0105121891217976
% es.tEy (V/m) @ t=0.66
0
% es.tEz (V/m) @ t=0.66
3.10431183686676
% V (V) @ t=0.66
0.015311762257346644
% es.normE (V/m) @ t=0.68
3.303688923316458
% es.EX (V/m) @ t=0.68
1.019728794072756
% es.EY (V/m) @ t=0.68
0.24704326019235578
% es.EZ (V/m) @ t=0.68
3.1326253393626438
% es.tEX (V/m) @ t=0.68
1.019728794072762
% es.tEY (V/m) @ t=0.68
0
% es.tEZ (V/m) @ t=0.68
3.132625339362665
% es.Ex (V/m) @ t=0.68
1.019728794072756
% es.Ey (V/m) @ t=0.68
0.24704326019235578
% es.Ez (V/m) @ t=0.68
3.1326253393626438
% es.tEx (V/m) @ t=0.68
1.019728794072762
% es.tEy (V/m) @ t=0.68
0
% es.tEz (V/m) @ t=0.68
3.132625339362665
% V (V) @ t=0.68
0.015451419506333866
% es.normE (V/m) @ t=0.7
3.333548548645195
% es.EX (V/m) @ t=0.7
1.0289453990237445
% es.EY (V/m) @ t=0.7
0.24927606284195902
% es.EZ (V/m) @ t=0.7
3.1609388418586084
% es.tEX (V/m) @ t=0.7
1.0289453990237547
% es.tEY (V/m) @ t=0.7
0
% es.tEZ (V/m) @ t=0.7
3.160938841858613
% es.Ex (V/m) @ t=0.7
1.0289453990237445
% es.Ey (V/m) @ t=0.7
0.24927606284195902
% es.Ez (V/m) @ t=0.7
3.1609388418586084
% es.tEx (V/m) @ t=0.7
1.0289453990237547
% es.tEy (V/m) @ t=0.7
0
% es.tEz (V/m) @ t=0.7
3.160938841858613
% V (V) @ t=0.7
0.01559107675532109
% es.normE (V/m) @ t=0.72
3.3634081739738635
% es.EX (V/m) @ t=0.72
1.0381620039747181
% es.EY (V/m) @ t=0.72
0.25150886549162377
% es.EZ (V/m) @ t=0.72
3.1892523443545002
% es.tEX (V/m) @ t=0.72
1.038162003974719
% es.tEY (V/m) @ t=0.72
0
% es.tEZ (V/m) @ t=0.72
3.189252344354518
% es.Ex (V/m) @ t=0.72
1.0381620039747181
% es.Ey (V/m) @ t=0.72
0.25150886549162377
% es.Ez (V/m) @ t=0.72
3.1892523443545002
% es.tEx (V/m) @ t=0.72
1.038162003974719
% es.tEy (V/m) @ t=0.72
0
% es.tEz (V/m) @ t=0.72
3.189252344354518
% V (V) @ t=0.72
0.015730734004308317
% es.normE (V/m) @ t=0.74
3.3932677993025604
% es.EX (V/m) @ t=0.74
1.0473786089256993
% es.EY (V/m) @ t=0.74
0.2537416681412199
% es.EZ (V/m) @ t=0.74
3.217565846850424
% es.tEX (V/m) @ t=0.74
1.0473786089256976
% es.tEY (V/m) @ t=0.74
0
% es.tEZ (V/m) @ t=0.74
3.2175658468504373
% es.Ex (V/m) @ t=0.74
1.0473786089256993
% es.Ey (V/m) @ t=0.74
0.2537416681412199
% es.Ez (V/m) @ t=0.74
3.217565846850424
% es.tEx (V/m) @ t=0.74
1.0473786089256976
% es.tEy (V/m) @ t=0.74
0
% es.tEz (V/m) @ t=0.74
3.2175658468504373
% V (V) @ t=0.74
0.015870391253295535
% es.normE (V/m) @ t=0.76
3.4231274246312706
% es.EX (V/m) @ t=0.76
1.0565952138766697
% es.EY (V/m) @ t=0.76
0.25597447079088465
% es.EZ (V/m) @ t=0.76
3.2458793493463594
% es.tEX (V/m) @ t=0.76
1.056595213876676
% es.tEY (V/m) @ t=0.76
0
% es.tEZ (V/m) @ t=0.76
3.2458793493463602
% es.Ex (V/m) @ t=0.76
1.0565952138766697
% es.Ey (V/m) @ t=0.76
0.25597447079088465
% es.Ez (V/m) @ t=0.76
3.2458793493463594
% es.tEx (V/m) @ t=0.76
1.056595213876676
% es.tEy (V/m) @ t=0.76
0
% es.tEz (V/m) @ t=0.76
3.2458793493463602
% V (V) @ t=0.76
0.01601004850228276
% es.normE (V/m) @ t=0.78
3.452987049959977
% es.EX (V/m) @ t=0.78
1.0658118188276584
% es.EY (V/m) @ t=0.78
0.25820727344049854
% es.EZ (V/m) @ t=0.78
3.2741928518422885
% es.tEX (V/m) @ t=0.78
1.0658118188276688
% es.tEY (V/m) @ t=0.78
0
% es.tEZ (V/m) @ t=0.78
3.274192851842294
% es.Ex (V/m) @ t=0.78
1.0658118188276584
% es.Ey (V/m) @ t=0.78
0.25820727344049854
% es.Ez (V/m) @ t=0.78
3.2741928518422885
% es.tEx (V/m) @ t=0.78
1.0658118188276688
% es.tEy (V/m) @ t=0.78
0
% es.tEz (V/m) @ t=0.78
3.274192851842294
% V (V) @ t=0.78
0.01614970575126998
% es.normE (V/m) @ t=0.8
3.4861663956544886
% es.EX (V/m) @ t=0.8
1.0760530225098686
% es.EY (V/m) @ t=0.8
0.26068845773565186
% es.EZ (V/m) @ t=0.8
3.3056541957128953
% es.tEX (V/m) @ t=0.8
1.0760530225098819
% es.tEY (V/m) @ t=0.8
0
% es.tEZ (V/m) @ t=0.8
3.3056541957129255
% es.Ex (V/m) @ t=0.8
1.0760530225098686
% es.Ey (V/m) @ t=0.8
0.26068845773565186
% es.Ez (V/m) @ t=0.8
3.3056541957128953
% es.tEx (V/m) @ t=0.8
1.0760530225098819
% es.tEy (V/m) @ t=0.8
0
% es.tEz (V/m) @ t=0.8
3.3056541957129255
% V (V) @ t=0.8
0.01630487836748651
% es.normE (V/m) @ t=0.82
3.519365101000553
% es.EX (V/m) @ t=0.82
1.086300201356303
% es.EY (V/m) @ t=0.82
0.26317109052089127
% es.EZ (V/m) @ t=0.82
3.3371338968863613
% es.tEX (V/m) @ t=0.82
1.086300201356309
% es.tEY (V/m) @ t=0.82
0
% es.tEZ (V/m) @ t=0.82
3.337133896886364
% es.Ex (V/m) @ t=0.82
1.086300201356303
% es.Ey (V/m) @ t=0.82
0.26317109052089127
% es.Ez (V/m) @ t=0.82
3.3371338968863613
% es.tEx (V/m) @ t=0.82
1.086300201356309
% es.tEy (V/m) @ t=0.82
0
% es.tEz (V/m) @ t=0.82
3.337133896886364
% V (V) @ t=0.82
0.016460141464848848
% es.normE (V/m) @ t=0.84
3.5525638063465723
% es.EX (V/m) @ t=0.84
1.0965473802027181
% es.EY (V/m) @ t=0.84
0.26565372330606785
% es.EZ (V/m) @ t=0.84
3.3686135980597873
% es.tEX (V/m) @ t=0.84
1.096547380202722
% es.tEY (V/m) @ t=0.84
0
% es.tEZ (V/m) @ t=0.84
3.368613598059799
% es.Ex (V/m) @ t=0.84
1.0965473802027181
% es.Ey (V/m) @ t=0.84
0.26565372330606785
% es.Ez (V/m) @ t=0.84
3.3686135980597873
% es.tEx (V/m) @ t=0.84
1.096547380202722
% es.tEy (V/m) @ t=0.84
0
% es.tEz (V/m) @ t=0.84
3.368613598059799
% V (V) @ t=0.84
0.016615404562211188
% es.normE (V/m) @ t=0.86
3.5857625116926077
% es.EX (V/m) @ t=0.86
1.106794559049149
% es.EY (V/m) @ t=0.86
0.26813635609129327
% es.EZ (V/m) @ t=0.86
3.400093299233217
% es.tEX (V/m) @ t=0.86
1.106794559049149
% es.tEY (V/m) @ t=0.86
0
% es.tEZ (V/m) @ t=0.86
3.4000932992332196
% es.Ex (V/m) @ t=0.86
1.106794559049149
% es.Ey (V/m) @ t=0.86
0.26813635609129327
% es.Ez (V/m) @ t=0.86
3.400093299233217
% es.tEx (V/m) @ t=0.86
1.106794559049149
% es.tEy (V/m) @ t=0.86
0
% es.tEz (V/m) @ t=0.86
3.4000932992332196
% V (V) @ t=0.86
0.016770667659573527
% es.normE (V/m) @ t=0.88
3.618961217038657
% es.EX (V/m) @ t=0.88
1.1170417378955877
% es.EY (V/m) @ t=0.88
0.27061898887652913
% es.EZ (V/m) @ t=0.88
3.4315730004066536
% es.tEX (V/m) @ t=0.88
1.1170417378955904
% es.tEY (V/m) @ t=0.88
0
% es.tEZ (V/m) @ t=0.88
3.431573000406658
% es.Ex (V/m) @ t=0.88
1.1170417378955877
% es.Ey (V/m) @ t=0.88
0.27061898887652913
% es.Ez (V/m) @ t=0.88
3.4315730004066536
% es.tEx (V/m) @ t=0.88
1.1170417378955904
% es.tEy (V/m) @ t=0.88
0
% es.tEz (V/m) @ t=0.88
3.431573000406658
% V (V) @ t=0.88
0.01692593075693587
% es.normE (V/m) @ t=0.9
3.652159922384712
% es.EX (V/m) @ t=0.9
1.1272889167420042
% es.EY (V/m) @ t=0.9
0.273101621661727
% es.EZ (V/m) @ t=0.9
3.4630527015801027
% es.tEX (V/m) @ t=0.9
1.1272889167420033
% es.tEY (V/m) @ t=0.9
0
% es.tEZ (V/m) @ t=0.9
3.4630527015801107
% es.Ex (V/m) @ t=0.9
1.1272889167420042
% es.Ey (V/m) @ t=0.9
0.273101621661727
% es.Ez (V/m) @ t=0.9
3.4630527015801027
% es.tEx (V/m) @ t=0.9
1.1272889167420033
% es.tEy (V/m) @ t=0.9
0
% es.tEz (V/m) @ t=0.9
3.4630527015801107
% V (V) @ t=0.9
0.01708119385429821
% es.normE (V/m) @ t=0.92
3.685358627730749
% es.EX (V/m) @ t=0.92
1.1375360955884375
% es.EY (V/m) @ t=0.92
0.2755842544469205
% es.EZ (V/m) @ t=0.92
3.4945324027535243
% es.tEX (V/m) @ t=0.92
1.1375360955884304
% es.tEY (V/m) @ t=0.92
0
% es.tEZ (V/m) @ t=0.92
3.4945324027535314
% es.Ex (V/m) @ t=0.92
1.1375360955884375
% es.Ey (V/m) @ t=0.92
0.2755842544469205
% es.Ez (V/m) @ t=0.92
3.4945324027535243
% es.tEx (V/m) @ t=0.92
1.1375360955884304
% es.tEy (V/m) @ t=0.92
0
% es.tEz (V/m) @ t=0.92
3.4945324027535314
% V (V) @ t=0.92
0.017236456951660553
% es.normE (V/m) @ t=0.94
3.7185573330768023
% es.EX (V/m) @ t=0.94
1.147783274434861
% es.EY (V/m) @ t=0.94
0.2780668872322274
% es.EZ (V/m) @ t=0.94
3.526012103926953
% es.tEX (V/m) @ t=0.94
1.1477832744348717
% es.tEY (V/m) @ t=0.94
0
% es.tEZ (V/m) @ t=0.94
3.5260121039269556
% es.Ex (V/m) @ t=0.94
1.147783274434861
% es.Ey (V/m) @ t=0.94
0.2780668872322274
% es.Ez (V/m) @ t=0.94
3.526012103926953
% es.tEx (V/m) @ t=0.94
1.1477832744348717
% es.tEy (V/m) @ t=0.94
0
% es.tEz (V/m) @ t=0.94
3.5260121039269556
% V (V) @ t=0.94
0.017391720049022893
% es.normE (V/m) @ t=0.96
3.7517560384228537
% es.EX (V/m) @ t=0.96
1.158030453281274
% es.EY (V/m) @ t=0.96
0.2805495200174164
% es.EZ (V/m) @ t=0.96
3.5574918051003888
% es.tEX (V/m) @ t=0.96
1.1580304532812704
% es.tEY (V/m) @ t=0.96
0
% es.tEZ (V/m) @ t=0.96
3.557491805100401
% es.Ex (V/m) @ t=0.96
1.158030453281274
% es.Ey (V/m) @ t=0.96
0.2805495200174164
% es.Ez (V/m) @ t=0.96
3.5574918051003888
% es.tEx (V/m) @ t=0.96
1.1580304532812704
% es.tEy (V/m) @ t=0.96
0
% es.tEz (V/m) @ t=0.96
3.557491805100401
% V (V) @ t=0.96
0.017546983146385236
% es.normE (V/m) @ t=0.98
3.7849547437689353
% es.EX (V/m) @ t=0.98
1.1682776321277248
% es.EY (V/m) @ t=0.98
0.2830321528026356
% es.EZ (V/m) @ t=0.98
3.588971506273838
% es.tEX (V/m) @ t=0.98
1.168277632127726
% es.tEY (V/m) @ t=0.98
0
% es.tEZ (V/m) @ t=0.98
3.588971506273854
% es.Ex (V/m) @ t=0.98
1.1682776321277248
% es.Ey (V/m) @ t=0.98
0.2830321528026356
% es.Ez (V/m) @ t=0.98
3.588971506273838
% es.tEx (V/m) @ t=0.98
1.168277632127726
% es.tEy (V/m) @ t=0.98
0
% es.tEz (V/m) @ t=0.98
3.588971506273854
% V (V) @ t=0.98
0.017702246243747576
% es.normE (V/m) @ t=1
3.8181534491149858
% es.EX (V/m) @ t=1
1.1785248109741455
% es.EY (V/m) @ t=1
0.2855147855878537
% es.EZ (V/m) @ t=1
3.6204512074472612
% es.tEX (V/m) @ t=1
1.178524810974153
% es.tEY (V/m) @ t=1
0
% es.tEZ (V/m) @ t=1
3.620451207447278
% es.Ex (V/m) @ t=1
1.1785248109741455
% es.Ey (V/m) @ t=1
0.2855147855878537
% es.Ez (V/m) @ t=1
3.6204512074472612
% es.tEx (V/m) @ t=1
1.178524810974153
% es.tEy (V/m) @ t=1
0
% es.tEz (V/m) @ t=1
3.620451207447278
% V (V) @ t=1
0.01785750934110991
% es.normE (V/m) @ t=1.02
3.8513521544610487
% es.EX (V/m) @ t=1.02
1.1887719898205473
% es.EY (V/m) @ t=1.02
0.2879974183730447
% es.EZ (V/m) @ t=1.02
3.6519309086207024
% es.tEX (V/m) @ t=1.02
1.1887719898205376
% es.tEY (V/m) @ t=1.02
0
% es.tEZ (V/m) @ t=1.02
3.6519309086207095
% es.Ex (V/m) @ t=1.02
1.1887719898205473
% es.Ey (V/m) @ t=1.02
0.2879974183730447
% es.Ez (V/m) @ t=1.02
3.6519309086207024
% es.tEx (V/m) @ t=1.02
1.1887719898205376
% es.tEy (V/m) @ t=1.02
0
% es.tEz (V/m) @ t=1.02
3.6519309086207095
% V (V) @ t=1.02
0.018012772438472255
% es.normE (V/m) @ t=1.04
3.8845508598071286
% es.EX (V/m) @ t=1.04
1.1990191686670035
% es.EY (V/m) @ t=1.04
0.29048005115826636
% es.EZ (V/m) @ t=1.04
3.683410609794138
% es.tEX (V/m) @ t=1.04
1.1990191686670073
% es.tEY (V/m) @ t=1.04
0
% es.tEZ (V/m) @ t=1.04
3.6834106097941515
% es.Ex (V/m) @ t=1.04
1.1990191686670035
% es.Ey (V/m) @ t=1.04
0.29048005115826636
% es.Ez (V/m) @ t=1.04
3.683410609794138
% es.tEx (V/m) @ t=1.04
1.1990191686670073
% es.tEy (V/m) @ t=1.04
0
% es.tEz (V/m) @ t=1.04
3.6834106097941515
% V (V) @ t=1.04
0.018168035535834598