% Model:              1 neuron.mph
% Version:            COMSOL 6.1.0.252
% Date:               Mar 27 2023, 14:43
% Dimension:          0
% Nodes:              14017
% Expressions:        14017
% Description:        Electric field norm, Electric field, X component, Electric field, Y component, Electric field, Z component, Tangential electric field, X component, Tangential electric field, Y component, Tangential electric field, Z component, Electric field, x component, Electric field, y component, Electric field, z component, Tangential electric field, x component, Tangential electric field, y component, Tangential electric field, z component, Electric potential
% Length unit:        mm
% x
1
% y
12.2
% z
1.6599999999999997
% es.normE (V/m) @ t=0
2.8873714015878935
% es.EX (V/m) @ t=0
2.584802826406891
% es.EY (V/m) @ t=0
0.09945195044143573
% es.EZ (V/m) @ t=0
-1.2828940549346597
% es.tEX (V/m) @ t=0
2.5848028264068885
% es.tEY (V/m) @ t=0
0
% es.tEZ (V/m) @ t=0
-1.2828940549346441
% es.Ex (V/m) @ t=0
2.584802826406891
% es.Ey (V/m) @ t=0
0.09945195044143573
% es.Ez (V/m) @ t=0
-1.2828940549346597
% es.tEx (V/m) @ t=0
2.5848028264068885
% es.tEy (V/m) @ t=0
0
% es.tEz (V/m) @ t=0
-1.2828940549346441
% V (V) @ t=0
0.01309997353191152
% es.normE (V/m) @ t=0.02
2.493850990255221
% es.EX (V/m) @ t=0.02
2.232519545234062
% es.EY (V/m) @ t=0.02
0.08589762482264454
% es.EZ (V/m) @ t=0.02
-1.1080481739260897
% es.tEX (V/m) @ t=0.02
2.2325195452340587
% es.tEY (V/m) @ t=0.02
0
% es.tEZ (V/m) @ t=0.02
-1.1080481739261003
% es.Ex (V/m) @ t=0.02
2.232519545234062
% es.Ey (V/m) @ t=0.02
0.08589762482264454
% es.Ez (V/m) @ t=0.02
-1.1080481739260897
% es.tEx (V/m) @ t=0.02
2.2325195452340587
% es.tEy (V/m) @ t=0.02
0
% es.tEz (V/m) @ t=0.02
-1.1080481739261003
% V (V) @ t=0.02
0.0113145755812159
% es.normE (V/m) @ t=0.04
2.516791338036006
% es.EX (V/m) @ t=0.04
2.253055966593431
% es.EY (V/m) @ t=0.04
0.08668777678824613
% es.EZ (V/m) @ t=0.04
-1.1182408480998745
% es.tEX (V/m) @ t=0.04
2.253055966593429
% es.tEY (V/m) @ t=0.04
0
% es.tEZ (V/m) @ t=0.04
-1.118240848099859
% es.Ex (V/m) @ t=0.04
2.253055966593431
% es.Ey (V/m) @ t=0.04
0.08668777678824613
% es.Ez (V/m) @ t=0.04
-1.1182408480998745
% es.tEx (V/m) @ t=0.04
2.253055966593429
% es.tEy (V/m) @ t=0.04
0
% es.tEz (V/m) @ t=0.04
-1.118240848099859
% V (V) @ t=0.04
0.011418655698243251
% es.normE (V/m) @ t=0.06
2.5398999010104575
% es.EX (V/m) @ t=0.06
2.273742975619377
% es.EY (V/m) @ t=0.06
0.08748372231322393
% es.EZ (V/m) @ t=0.06
-1.128508262760417
% es.tEX (V/m) @ t=0.06
2.273742975619375
% es.tEY (V/m) @ t=0.06
0
% es.tEZ (V/m) @ t=0.06
-1.1285082627603913
% es.Ex (V/m) @ t=0.06
2.273742975619377
% es.Ey (V/m) @ t=0.06
0.08748372231322393
% es.Ez (V/m) @ t=0.06
-1.128508262760417
% es.tEx (V/m) @ t=0.06
2.273742975619375
% es.tEy (V/m) @ t=0.06
0
% es.tEz (V/m) @ t=0.06
-1.1285082627603913
% V (V) @ t=0.06
0.011523499020663835
% es.normE (V/m) @ t=0.08
2.563449145773454
% es.EX (V/m) @ t=0.08
2.2948244870644148
% es.EY (V/m) @ t=0.08
0.08829484619440714
% es.EZ (V/m) @ t=0.08
-1.1389714780721525
% es.tEX (V/m) @ t=0.08
2.2948244870644166
% es.tEY (V/m) @ t=0.08
0
% es.tEZ (V/m) @ t=0.08
-1.1389714780721505
% es.Ex (V/m) @ t=0.08
2.2948244870644148
% es.Ey (V/m) @ t=0.08
0.08829484619440714
% es.Ez (V/m) @ t=0.08
-1.1389714780721525
% es.tEx (V/m) @ t=0.08
2.2948244870644166
% es.tEy (V/m) @ t=0.08
0
% es.tEz (V/m) @ t=0.08
-1.1389714780721505
% V (V) @ t=0.08
0.011630341725409072
% es.normE (V/m) @ t=0.1
2.587121582983835
% es.EX (V/m) @ t=0.1
2.3160162815294587
% es.EY (V/m) @ t=0.1
0.08911021318003992
% es.EZ (V/m) @ t=0.1
-1.1494894293908122
% es.tEX (V/m) @ t=0.1
2.316016281529457
% es.tEY (V/m) @ t=0.1
0
% es.tEZ (V/m) @ t=0.1
-1.1494894293907905
% es.Ex (V/m) @ t=0.1
2.3160162815294587
% es.Ey (V/m) @ t=0.1
0.08911021318003992
% es.Ez (V/m) @ t=0.1
-1.1494894293908122
% es.tEx (V/m) @ t=0.1
2.316016281529457
% es.tEy (V/m) @ t=0.1
0
% es.tEz (V/m) @ t=0.1
-1.1494894293907905
% V (V) @ t=0.1
0.011737743356817942
% es.normE (V/m) @ t=0.12
2.6107940201941675
% es.EX (V/m) @ t=0.12
2.3372080759944707
% es.EY (V/m) @ t=0.12
0.08992558016562835
% es.EZ (V/m) @ t=0.12
-1.1600073807094295
% es.tEX (V/m) @ t=0.12
2.337208075994468
% es.tEY (V/m) @ t=0.12
0
% es.tEZ (V/m) @ t=0.12
-1.1600073807094233
% es.Ex (V/m) @ t=0.12
2.3372080759944707
% es.Ey (V/m) @ t=0.12
0.08992558016562835
% es.Ez (V/m) @ t=0.12
-1.1600073807094295
% es.tEx (V/m) @ t=0.12
2.337208075994468
% es.tEy (V/m) @ t=0.12
0
% es.tEz (V/m) @ t=0.12
-1.1600073807094233
% V (V) @ t=0.12
0.011845144988226811
% es.normE (V/m) @ t=0.14
2.6351435171559237
% es.EX (V/m) @ t=0.14
2.3590059818096916
% es.EY (V/m) @ t=0.14
0.090764269532643
% es.EZ (V/m) @ t=0.14
-1.1708261558937139
% es.tEX (V/m) @ t=0.14
2.3590059818096893
% es.tEY (V/m) @ t=0.14
0
% es.tEZ (V/m) @ t=0.14
-1.1708261558937068
% es.Ex (V/m) @ t=0.14
2.3590059818096916
% es.Ey (V/m) @ t=0.14
0.090764269532643
% es.Ez (V/m) @ t=0.14
-1.1708261558937139
% es.tEx (V/m) @ t=0.14
2.3590059818096893
% es.tEy (V/m) @ t=0.14
0
% es.tEz (V/m) @ t=0.14
-1.1708261558937068
% V (V) @ t=0.14
0.011955618365040312
% es.normE (V/m) @ t=0.16
2.660005189411398
% es.EX (V/m) @ t=0.16
2.38126239259168
% es.EY (V/m) @ t=0.16
0.0916206015782568
% es.EZ (V/m) @ t=0.16
-1.1818724952647863
% es.tEX (V/m) @ t=0.16
2.3812623925916823
% es.tEY (V/m) @ t=0.16
0
% es.tEZ (V/m) @ t=0.16
-1.181872495264777
% es.Ex (V/m) @ t=0.16
2.38126239259168
% es.Ey (V/m) @ t=0.16
0.0916206015782568
% es.Ez (V/m) @ t=0.16
-1.1818724952647863
% es.tEx (V/m) @ t=0.16
2.3812623925916823
% es.tEy (V/m) @ t=0.16
0
% es.tEz (V/m) @ t=0.16
-1.181872495264777
% V (V) @ t=0.16
0.012068415424662787
% es.normE (V/m) @ t=0.18
2.684866861666893
% es.EX (V/m) @ t=0.18
2.403518803373686
% es.EY (V/m) @ t=0.18
0.09247693362384402
% es.EZ (V/m) @ t=0.18
-1.192918834635873
% es.tEX (V/m) @ t=0.18
2.4035188033736814
% es.tEY (V/m) @ t=0.18
0
% es.tEZ (V/m) @ t=0.18
-1.1929188346358544
% es.Ex (V/m) @ t=0.18
2.403518803373686
% es.Ey (V/m) @ t=0.18
0.09247693362384402
% es.Ez (V/m) @ t=0.18
-1.192918834635873
% es.tEx (V/m) @ t=0.18
2.4035188033736814
% es.tEy (V/m) @ t=0.18
0
% es.tEz (V/m) @ t=0.18
-1.1929188346358544
% V (V) @ t=0.18
0.012181212484285265
% es.normE (V/m) @ t=0.2
2.709728533922382
% es.EX (V/m) @ t=0.2
2.4257752141556845
% es.EY (V/m) @ t=0.2
0.09333326566944805
% es.EZ (V/m) @ t=0.2
-1.2039651740069597
% es.tEX (V/m) @ t=0.2
2.4257752141556876
% es.tEY (V/m) @ t=0.2
0
% es.tEZ (V/m) @ t=0.2
-1.203965174006946
% es.Ex (V/m) @ t=0.2
2.4257752141556845
% es.Ey (V/m) @ t=0.2
0.09333326566944805
% es.Ez (V/m) @ t=0.2
-1.2039651740069597
% es.tEx (V/m) @ t=0.2
2.4257752141556876
% es.tEy (V/m) @ t=0.2
0
% es.tEz (V/m) @ t=0.2
-1.203965174006946
% V (V) @ t=0.2
0.012294009543907742
% es.normE (V/m) @ t=0.22
2.734590206177871
% es.EX (V/m) @ t=0.22
2.4480316249376863
% es.EY (V/m) @ t=0.22
0.09418959771503888
% es.EZ (V/m) @ t=0.22
-1.2150115133780393
% es.tEX (V/m) @ t=0.22
2.448031624937679
% es.tEY (V/m) @ t=0.22
0
% es.tEZ (V/m) @ t=0.22
-1.2150115133780375
% es.Ex (V/m) @ t=0.22
2.4480316249376863
% es.Ey (V/m) @ t=0.22
0.09418959771503888
% es.Ez (V/m) @ t=0.22
-1.2150115133780393
% es.tEx (V/m) @ t=0.22
2.448031624937679
% es.tEy (V/m) @ t=0.22
0
% es.tEz (V/m) @ t=0.22
-1.2150115133780375
% V (V) @ t=0.22
0.01240680660353022
% es.normE (V/m) @ t=0.24
2.759451878433336
% es.EX (V/m) @ t=0.24
2.4702880357196673
% es.EY (V/m) @ t=0.24
0.09504592976063397
% es.EZ (V/m) @ t=0.24
-1.226057852749108
% es.tEX (V/m) @ t=0.24
2.4702880357196717
% es.tEY (V/m) @ t=0.24
0
% es.tEZ (V/m) @ t=0.24
-1.2260578527490935
% es.Ex (V/m) @ t=0.24
2.4702880357196673
% es.Ey (V/m) @ t=0.24
0.09504592976063397
% es.Ez (V/m) @ t=0.24
-1.226057852749108
% es.tEx (V/m) @ t=0.24
2.4702880357196717
% es.tEy (V/m) @ t=0.24
0
% es.tEz (V/m) @ t=0.24
-1.2260578527490935
% V (V) @ t=0.24
0.012519603663152695
% es.normE (V/m) @ t=0.26
2.7846984611617396
% es.EX (V/m) @ t=0.26
2.492889020024968
% es.EY (V/m) @ t=0.26
0.09591551523971864
% es.EZ (V/m) @ t=0.26
-1.237275216984368
% es.tEX (V/m) @ t=0.26
2.49288902002497
% es.tEY (V/m) @ t=0.26
0
% es.tEZ (V/m) @ t=0.26
-1.237275216984365
% es.Ex (V/m) @ t=0.26
2.492889020024968
% es.Ey (V/m) @ t=0.26
0.09591551523971864
% es.Ez (V/m) @ t=0.26
-1.237275216984368
% es.tEx (V/m) @ t=0.26
2.49288902002497
% es.tEy (V/m) @ t=0.26
0
% es.tEz (V/m) @ t=0.26
-1.237275216984365
% V (V) @ t=0.26
0.012634147210917289
% es.normE (V/m) @ t=0.28
2.8122161295367714
% es.EX (V/m) @ t=0.28
2.5175230900425105
% es.EY (V/m) @ t=0.28
0.09686329989681214
% es.EZ (V/m) @ t=0.28
-1.249501678507385
% es.tEX (V/m) @ t=0.28
2.5175230900425074
% es.tEY (V/m) @ t=0.28
0
% es.tEZ (V/m) @ t=0.28
-1.2495016785073645
% es.Ex (V/m) @ t=0.28
2.5175230900425105
% es.Ey (V/m) @ t=0.28
0.09686329989681214
% es.Ez (V/m) @ t=0.28
-1.249501678507385
% es.tEx (V/m) @ t=0.28
2.5175230900425074
% es.tEy (V/m) @ t=0.28
0
% es.tEz (V/m) @ t=0.28
-1.2495016785073645
% V (V) @ t=0.28
0.012758995555331134
% es.normE (V/m) @ t=0.3
2.839733797911774
% es.EX (V/m) @ t=0.3
2.5421571600600394
% es.EY (V/m) @ t=0.3
0.09781108455392507
% es.EZ (V/m) @ t=0.3
-1.261728140030359
% es.tEX (V/m) @ t=0.3
2.5421571600600457
% es.tEY (V/m) @ t=0.3
0
% es.tEZ (V/m) @ t=0.3
-1.261728140030364
% es.Ex (V/m) @ t=0.3
2.5421571600600394
% es.Ey (V/m) @ t=0.3
0.09781108455392507
% es.Ez (V/m) @ t=0.3
-1.261728140030359
% es.tEx (V/m) @ t=0.3
2.5421571600600457
% es.tEy (V/m) @ t=0.3
0
% es.tEz (V/m) @ t=0.3
-1.261728140030364
% V (V) @ t=0.3
0.01288384389974498
% es.normE (V/m) @ t=0.32
2.8672514662868007
% es.EX (V/m) @ t=0.32
2.5667912300775786
% es.EY (V/m) @ t=0.32
0.09875886921101845
% es.EZ (V/m) @ t=0.32
-1.2739546015533687
% es.tEX (V/m) @ t=0.32
2.566791230077569
% es.tEY (V/m) @ t=0.32
0
% es.tEZ (V/m) @ t=0.32
-1.2739546015533634
% es.Ex (V/m) @ t=0.32
2.5667912300775786
% es.Ey (V/m) @ t=0.32
0.09875886921101845
% es.Ez (V/m) @ t=0.32
-1.2739546015533687
% es.tEx (V/m) @ t=0.32
2.566791230077569
% es.tEy (V/m) @ t=0.32
0
% es.tEz (V/m) @ t=0.32
-1.2739546015533634
% V (V) @ t=0.32
0.013008692244158826
% es.normE (V/m) @ t=0.34
2.894769134661824
% es.EX (V/m) @ t=0.34
2.5914253000951173
% es.EY (V/m) @ t=0.34
0.09970665386811361
% es.EZ (V/m) @ t=0.34
-1.2861810630763677
% es.tEX (V/m) @ t=0.34
2.5914253000951204
% es.tEY (V/m) @ t=0.34
0
% es.tEZ (V/m) @ t=0.34
-1.28618106307637
% es.Ex (V/m) @ t=0.34
2.5914253000951173
% es.Ey (V/m) @ t=0.34
0.09970665386811361
% es.Ez (V/m) @ t=0.34
-1.2861810630763677
% es.tEx (V/m) @ t=0.34
2.5914253000951204
% es.tEy (V/m) @ t=0.34
0
% es.tEz (V/m) @ t=0.34
-1.28618106307637
% V (V) @ t=0.34
0.013133540588572672
% es.normE (V/m) @ t=0.36
2.9222868030368527
% es.EX (V/m) @ t=0.36
2.6160593701126533
% es.EY (V/m) @ t=0.36
0.10065443852524081
% es.EZ (V/m) @ t=0.36
-1.2984075245993811
% es.tEX (V/m) @ t=0.36
2.6160593701126507
% es.tEY (V/m) @ t=0.36
0
% es.tEZ (V/m) @ t=0.36
-1.2984075245993623
% es.Ex (V/m) @ t=0.36
2.6160593701126533
% es.Ey (V/m) @ t=0.36
0.10065443852524081
% es.Ez (V/m) @ t=0.36
-1.2984075245993811
% es.tEx (V/m) @ t=0.36
2.6160593701126507
% es.tEy (V/m) @ t=0.36
0
% es.tEz (V/m) @ t=0.36
-1.2984075245993623
% V (V) @ t=0.36
0.01325838893298652
% es.normE (V/m) @ t=0.38
2.9498044714118645
% es.EX (V/m) @ t=0.38
2.640693440130178
% es.EY (V/m) @ t=0.38
0.10160222318231643
% es.EZ (V/m) @ t=0.38
-1.3106339861223801
% es.tEX (V/m) @ t=0.38
2.6406934401301667
% es.tEY (V/m) @ t=0.38
0
% es.tEZ (V/m) @ t=0.38
-1.3106339861223617
% es.Ex (V/m) @ t=0.38
2.640693440130178
% es.Ey (V/m) @ t=0.38
0.10160222318231643
% es.Ez (V/m) @ t=0.38
-1.3106339861223801
% es.tEx (V/m) @ t=0.38
2.6406934401301667
% es.tEy (V/m) @ t=0.38
0
% es.tEz (V/m) @ t=0.38
-1.3106339861223617
% V (V) @ t=0.38
0.013383237277400366
% es.normE (V/m) @ t=0.4
2.977322139786865
% es.EX (V/m) @ t=0.4
2.665327510147699
% es.EY (V/m) @ t=0.4
0.1025500078394107
% es.EZ (V/m) @ t=0.4
-1.322860447645358
% es.tEX (V/m) @ t=0.4
2.665327510147704
% es.tEY (V/m) @ t=0.4
0
% es.tEZ (V/m) @ t=0.4
-1.322860447645354
% es.Ex (V/m) @ t=0.4
2.665327510147699
% es.Ey (V/m) @ t=0.4
0.1025500078394107
% es.Ez (V/m) @ t=0.4
-1.322860447645358
% es.tEx (V/m) @ t=0.4
2.665327510147704
% es.tEy (V/m) @ t=0.4
0
% es.tEz (V/m) @ t=0.4
-1.322860447645354
% V (V) @ t=0.4
0.013508085621814214
% es.normE (V/m) @ t=0.42
3.004839808161891
% es.EX (V/m) @ t=0.42
2.6899615801652277
% es.EY (V/m) @ t=0.42
0.10349779249651397
% es.EZ (V/m) @ t=0.42
-1.3350869091683748
% es.tEX (V/m) @ t=0.42
2.6899615801652343
% es.tEY (V/m) @ t=0.42
0
% es.tEZ (V/m) @ t=0.42
-1.3350869091683606
% es.Ex (V/m) @ t=0.42
2.6899615801652277
% es.Ey (V/m) @ t=0.42
0.10349779249651397
% es.Ez (V/m) @ t=0.42
-1.3350869091683748
% es.tEx (V/m) @ t=0.42
2.6899615801652343
% es.tEy (V/m) @ t=0.42
0
% es.tEz (V/m) @ t=0.42
-1.3350869091683606
% V (V) @ t=0.42
0.01363293396622806
% es.normE (V/m) @ t=0.44
3.0323574765369306
% es.EX (V/m) @ t=0.44
2.7145956501827775
% es.EY (V/m) @ t=0.44
0.10444557715359493
% es.EZ (V/m) @ t=0.44
-1.347313370691381
% es.tEX (V/m) @ t=0.44
2.7145956501827717
% es.tEY (V/m) @ t=0.44
0
% es.tEZ (V/m) @ t=0.44
-1.3473133706913671
% es.Ex (V/m) @ t=0.44
2.7145956501827775
% es.Ey (V/m) @ t=0.44
0.10444557715359493
% es.Ez (V/m) @ t=0.44
-1.347313370691381
% es.tEx (V/m) @ t=0.44
2.7145956501827717
% es.tEy (V/m) @ t=0.44
0
% es.tEz (V/m) @ t=0.44
-1.3473133706913671
% V (V) @ t=0.44
0.013757782310641908
% es.normE (V/m) @ t=0.46
3.0598751449119637
% es.EX (V/m) @ t=0.46
2.7392297202003197
% es.EY (V/m) @ t=0.46
0.1053933618106972
% es.EZ (V/m) @ t=0.46
-1.3595398322143837
% es.tEX (V/m) @ t=0.46
2.7392297202003233
% es.tEY (V/m) @ t=0.46
0
% es.tEZ (V/m) @ t=0.46
-1.3595398322143666
% es.Ex (V/m) @ t=0.46
2.7392297202003197
% es.Ey (V/m) @ t=0.46
0.1053933618106972
% es.Ez (V/m) @ t=0.46
-1.3595398322143837
% es.tEx (V/m) @ t=0.46
2.7392297202003233
% es.tEy (V/m) @ t=0.46
0
% es.tEz (V/m) @ t=0.46
-1.3595398322143666
% V (V) @ t=0.46
0.013882630655055754
% es.normE (V/m) @ t=0.48
3.0873928132869777
% es.EX (V/m) @ t=0.48
2.763863790217849
% es.EY (V/m) @ t=0.48
0.10634114646781817
% es.EZ (V/m) @ t=0.48
-1.3717662937373685
% es.tEX (V/m) @ t=0.48
2.7638637902178473
% es.tEY (V/m) @ t=0.48
0
% es.tEZ (V/m) @ t=0.48
-1.371766293737359
% es.Ex (V/m) @ t=0.48
2.763863790217849
% es.Ey (V/m) @ t=0.48
0.10634114646781817
% es.Ez (V/m) @ t=0.48
-1.3717662937373685
% es.tEx (V/m) @ t=0.48
2.7638637902178473
% es.tEy (V/m) @ t=0.48
0
% es.tEz (V/m) @ t=0.48
-1.371766293737359
% V (V) @ t=0.48
0.014007478999469601
% es.normE (V/m) @ t=0.5
3.114910481662012
% es.EX (V/m) @ t=0.5
2.7884978602353883
% es.EY (V/m) @ t=0.5
0.10728893112491245
% es.EZ (V/m) @ t=0.5
-1.3839927552603783
% es.tEX (V/m) @ t=0.5
2.788497860235392
% es.tEY (V/m) @ t=0.5
0
% es.tEZ (V/m) @ t=0.5
-1.3839927552603655
% es.Ex (V/m) @ t=0.5
2.7884978602353883
% es.Ey (V/m) @ t=0.5
0.10728893112491245
% es.Ez (V/m) @ t=0.5
-1.3839927552603783
% es.tEx (V/m) @ t=0.5
2.788497860235392
% es.tEy (V/m) @ t=0.5
0
% es.tEz (V/m) @ t=0.5
-1.3839927552603655
% V (V) @ t=0.5
0.014132327343883448
% es.normE (V/m) @ t=0.52
3.143312934160509
% es.EX (V/m) @ t=0.52
2.8139240004155797
% es.EY (V/m) @ t=0.52
0.10826719708887661
% es.EZ (V/m) @ t=0.52
-1.3966123308643463
% es.tEX (V/m) @ t=0.52
2.813924000415584
% es.tEY (V/m) @ t=0.52
0
% es.tEZ (V/m) @ t=0.52
-1.3966123308643361
% es.Ex (V/m) @ t=0.52
2.8139240004155797
% es.Ey (V/m) @ t=0.52
0.10826719708887661
% es.Ez (V/m) @ t=0.52
-1.3966123308643463
% es.tEx (V/m) @ t=0.52
2.813924000415584
% es.tEy (V/m) @ t=0.52
0
% es.tEz (V/m) @ t=0.52
-1.3966123308643361
% V (V) @ t=0.52
0.014261189731934434
% es.normE (V/m) @ t=0.54
3.1738185623101467
% es.EX (V/m) @ t=0.54
2.841232930573453
% es.EY (V/m) @ t=0.54
0.10931791862781126
% es.EZ (V/m) @ t=0.54
-1.410166358094782
% es.tEX (V/m) @ t=0.54
2.841232930573458
% es.tEY (V/m) @ t=0.54
0
% es.tEZ (V/m) @ t=0.54
-1.410166358094763
% es.Ex (V/m) @ t=0.54
2.841232930573453
% es.Ey (V/m) @ t=0.54
0.10931791862781126
% es.Ez (V/m) @ t=0.54
-1.410166358094782
% es.tEx (V/m) @ t=0.54
2.841232930573458
% es.tEy (V/m) @ t=0.54
0
% es.tEz (V/m) @ t=0.54
-1.410166358094763
% V (V) @ t=0.54
0.014399593700373435
% es.normE (V/m) @ t=0.56
3.204324190459743
% es.EX (V/m) @ t=0.56
2.8685418607313053
% es.EY (V/m) @ t=0.56
0.11036864016671838
% es.EZ (V/m) @ t=0.56
-1.423720385325168
% es.tEX (V/m) @ t=0.56
2.8685418607313125
% es.tEY (V/m) @ t=0.56
0
% es.tEZ (V/m) @ t=0.56
-1.4237203853251614
% es.Ex (V/m) @ t=0.56
2.8685418607313053
% es.Ey (V/m) @ t=0.56
0.11036864016671838
% es.Ez (V/m) @ t=0.56
-1.423720385325168
% es.tEx (V/m) @ t=0.56
2.8685418607313125
% es.tEy (V/m) @ t=0.56
0
% es.tEz (V/m) @ t=0.56
-1.4237203853251614
% V (V) @ t=0.56
0.014537997668812433
% es.normE (V/m) @ t=0.58
3.2348298186093976
% es.EX (V/m) @ t=0.58
2.895850790889207
% es.EY (V/m) @ t=0.58
0.11141936170564942
% es.EZ (V/m) @ t=0.58
-1.4372744125555827
% es.tEX (V/m) @ t=0.58
2.8958507908892024
% es.tEY (V/m) @ t=0.58
0
% es.tEZ (V/m) @ t=0.58
-1.437274412555567
% es.Ex (V/m) @ t=0.58
2.895850790889207
% es.Ey (V/m) @ t=0.58
0.11141936170564942
% es.Ez (V/m) @ t=0.58
-1.4372744125555827
% es.tEx (V/m) @ t=0.58
2.8958507908892024
% es.tEy (V/m) @ t=0.58
0
% es.tEz (V/m) @ t=0.58
-1.437274412555567
% V (V) @ t=0.58
0.014676401637251436
% es.normE (V/m) @ t=0.6
3.265335446759019
% es.EX (V/m) @ t=0.6
2.9231597210470768
% es.EY (V/m) @ t=0.6
0.11247008324459917
% es.EZ (V/m) @ t=0.6
-1.4508284397859865
% es.tEX (V/m) @ t=0.6
2.923159721047071
% es.tEY (V/m) @ t=0.6
0
% es.tEZ (V/m) @ t=0.6
-1.4508284397859654
% es.Ex (V/m) @ t=0.6
2.9231597210470768
% es.Ey (V/m) @ t=0.6
0.11247008324459917
% es.Ez (V/m) @ t=0.6
-1.4508284397859865
% es.tEx (V/m) @ t=0.6
2.923159721047071
% es.tEy (V/m) @ t=0.6
0
% es.tEz (V/m) @ t=0.6
-1.4508284397859654
% V (V) @ t=0.6
0.014814805605690436
% es.normE (V/m) @ t=0.62
3.295841074908643
% es.EX (V/m) @ t=0.62
2.9504686512049454
% es.EY (V/m) @ t=0.62
0.1135208047835089
% es.EZ (V/m) @ t=0.62
-1.4643824670164012
% es.tEX (V/m) @ t=0.62
2.9504686512049396
% es.tEY (V/m) @ t=0.62
0
% es.tEZ (V/m) @ t=0.62
-1.4643824670163852
% es.Ex (V/m) @ t=0.62
2.9504686512049454
% es.Ey (V/m) @ t=0.62
0.1135208047835089
% es.Ez (V/m) @ t=0.62
-1.4643824670164012
% es.tEx (V/m) @ t=0.62
2.9504686512049396
% es.tEy (V/m) @ t=0.62
0
% es.tEz (V/m) @ t=0.62
-1.4643824670163852
% V (V) @ t=0.62
0.014953209574129437
% es.normE (V/m) @ t=0.64
3.3263467030582783
% es.EX (V/m) @ t=0.64
2.977777581362819
% es.EY (V/m) @ t=0.64
0.11457152632247913
% es.EZ (V/m) @ t=0.64
-1.4779364942468263
% es.tEX (V/m) @ t=0.64
2.9777775813628278
% es.tEY (V/m) @ t=0.64
0
% es.tEZ (V/m) @ t=0.64
-1.477936494246812
% es.Ex (V/m) @ t=0.64
2.977777581362819
% es.Ey (V/m) @ t=0.64
0.11457152632247913
% es.Ez (V/m) @ t=0.64
-1.4779364942468263
% es.tEx (V/m) @ t=0.64
2.9777775813628278
% es.tEy (V/m) @ t=0.64
0
% es.tEz (V/m) @ t=0.64
-1.477936494246812
% V (V) @ t=0.64
0.015091613542568437
% es.normE (V/m) @ t=0.66
3.356852331207899
% es.EX (V/m) @ t=0.66
3.0050865115206924
% es.EY (V/m) @ t=0.66
0.1156222478613933
% es.EZ (V/m) @ t=0.66
-1.491490521477223
% es.tEX (V/m) @ t=0.66
3.0050865115206893
% es.tEY (V/m) @ t=0.66
0
% es.tEZ (V/m) @ t=0.66
-1.4914905214772176
% es.Ex (V/m) @ t=0.66
3.0050865115206924
% es.Ey (V/m) @ t=0.66
0.1156222478613933
% es.Ez (V/m) @ t=0.66
-1.491490521477223
% es.tEx (V/m) @ t=0.66
3.0050865115206893
% es.tEy (V/m) @ t=0.66
0
% es.tEz (V/m) @ t=0.66
-1.4914905214772176
% V (V) @ t=0.66
0.015230017511007438
% es.normE (V/m) @ t=0.68
3.387357959357524
% es.EX (V/m) @ t=0.68
3.032395441678562
% es.EY (V/m) @ t=0.68
0.11667296940034211
% es.EZ (V/m) @ t=0.68
-1.505044548707634
% es.tEX (V/m) @ t=0.68
3.032395441678565
% es.tEY (V/m) @ t=0.68
0
% es.tEZ (V/m) @ t=0.68
-1.5050445487076232
% es.Ex (V/m) @ t=0.68
3.032395441678562
% es.Ey (V/m) @ t=0.68
0.11667296940034211
% es.Ez (V/m) @ t=0.68
-1.505044548707634
% es.tEx (V/m) @ t=0.68
3.032395441678565
% es.tEy (V/m) @ t=0.68
0
% es.tEz (V/m) @ t=0.68
-1.5050445487076232
% V (V) @ t=0.68
0.01536842147944644
% es.normE (V/m) @ t=0.7
3.4178635875071617
% es.EX (V/m) @ t=0.7
3.0597043718364496
% es.EY (V/m) @ t=0.7
0.11772369093925106
% es.EZ (V/m) @ t=0.7
-1.5185985759380416
% es.tEX (V/m) @ t=0.7
3.0597043718364407
% es.tEY (V/m) @ t=0.7
0
% es.tEZ (V/m) @ t=0.7
-1.5185985759380216
% es.Ex (V/m) @ t=0.7
3.0597043718364496
% es.Ey (V/m) @ t=0.7
0.11772369093925106
% es.Ez (V/m) @ t=0.7
-1.5185985759380416
% es.tEx (V/m) @ t=0.7
3.0597043718364407
% es.tEy (V/m) @ t=0.7
0
% es.tEz (V/m) @ t=0.7
-1.5185985759380216
% V (V) @ t=0.7
0.015506825447885442
% es.normE (V/m) @ t=0.72
3.44836921565678
% es.EX (V/m) @ t=0.72
3.0870133019943156
% es.EY (V/m) @ t=0.72
0.11877441247819803
% es.EZ (V/m) @ t=0.72
-1.5321526031684454
% es.tEX (V/m) @ t=0.72
3.0870133019943093
% es.tEY (V/m) @ t=0.72
0
% es.tEZ (V/m) @ t=0.72
-1.5321526031684343
% es.Ex (V/m) @ t=0.72
3.0870133019943156
% es.Ey (V/m) @ t=0.72
0.11877441247819803
% es.Ez (V/m) @ t=0.72
-1.5321526031684454
% es.tEx (V/m) @ t=0.72
3.0870133019943093
% es.tEy (V/m) @ t=0.72
0
% es.tEz (V/m) @ t=0.72
-1.5321526031684343
% V (V) @ t=0.72
0.015645229416324437
% es.normE (V/m) @ t=0.74
3.478874843806426
% es.EX (V/m) @ t=0.74
3.114322232152199
% es.EY (V/m) @ t=0.74
0.119825134017146
% es.EZ (V/m) @ t=0.74
-1.5457066303988776
% es.tEX (V/m) @ t=0.74
3.1143222321521904
% es.tEY (V/m) @ t=0.74
0
% es.tEZ (V/m) @ t=0.74
-1.545706630398854
% es.Ex (V/m) @ t=0.74
3.114322232152199
% es.Ey (V/m) @ t=0.74
0.119825134017146
% es.Ez (V/m) @ t=0.74
-1.5457066303988776
% es.tEx (V/m) @ t=0.74
3.1143222321521904
% es.tEy (V/m) @ t=0.74
0
% es.tEz (V/m) @ t=0.74
-1.545706630398854
% V (V) @ t=0.74
0.01578363338476344
% es.normE (V/m) @ t=0.76
3.5093804719560375
% es.EX (V/m) @ t=0.76
3.1416311623100652
% es.EY (V/m) @ t=0.76
0.12087585555607089
% es.EZ (V/m) @ t=0.76
-1.5592606576292671
% es.tEX (V/m) @ t=0.76
3.141631162310059
% es.tEY (V/m) @ t=0.76
0
% es.tEZ (V/m) @ t=0.76
-1.5592606576292596
% es.Ex (V/m) @ t=0.76
3.1416311623100652
% es.Ey (V/m) @ t=0.76
0.12087585555607089
% es.Ez (V/m) @ t=0.76
-1.5592606576292671
% es.tEx (V/m) @ t=0.76
3.141631162310059
% es.tEy (V/m) @ t=0.76
0
% es.tEz (V/m) @ t=0.76
-1.5592606576292596
% V (V) @ t=0.76
0.015922037353202443
% es.normE (V/m) @ t=0.78
3.541392193973227
% es.EX (V/m) @ t=0.78
3.170288363883132
% es.EY (V/m) @ t=0.78
0.12197845602541568
% es.EZ (V/m) @ t=0.78
-1.5734838570897756
% es.tEX (V/m) @ t=0.78
3.1702883638831167
% es.tEY (V/m) @ t=0.78
0
% es.tEZ (V/m) @ t=0.78
-1.5734838570897622
% es.Ex (V/m) @ t=0.78
3.170288363883132
% es.Ey (V/m) @ t=0.78
0.12197845602541568
% es.Ez (V/m) @ t=0.78
-1.5734838570897756
% es.tEx (V/m) @ t=0.78
3.1702883638831167
% es.tEy (V/m) @ t=0.78
0
% es.tEz (V/m) @ t=0.78
-1.5734838570897622
% V (V) @ t=0.78
0.01606727433392566
% es.normE (V/m) @ t=0.8
3.575264812295485
% es.EX (V/m) @ t=0.8
3.2006114598262734
% es.EY (V/m) @ t=0.8
0.12314515695486072
% es.EZ (V/m) @ t=0.8
-1.5885338709721735
% es.tEX (V/m) @ t=0.8
3.2006114598262645
% es.tEY (V/m) @ t=0.8
0
% es.tEZ (V/m) @ t=0.8
-1.5885338709721708
% es.Ex (V/m) @ t=0.8
3.2006114598262734
% es.Ey (V/m) @ t=0.8
0.12314515695486072
% es.Ez (V/m) @ t=0.8
-1.5885338709721735
% es.tEx (V/m) @ t=0.8
3.2006114598262645
% es.tEy (V/m) @ t=0.8
0
% es.tEz (V/m) @ t=0.8
-1.5885338709721708
% V (V) @ t=0.8
0.016220954033649666
% es.normE (V/m) @ t=0.82
3.609137430617744
% es.EX (V/m) @ t=0.82
3.230934555769415
% es.EY (V/m) @ t=0.82
0.12431185788435034
% es.EZ (V/m) @ t=0.82
-1.6035838848545716
% es.tEX (V/m) @ t=0.82
3.2309345557694122
% es.tEY (V/m) @ t=0.82
0
% es.tEZ (V/m) @ t=0.82
-1.6035838848545652
% es.Ex (V/m) @ t=0.82
3.230934555769415
% es.Ey (V/m) @ t=0.82
0.12431185788435034
% es.Ez (V/m) @ t=0.82
-1.6035838848545716
% es.tEx (V/m) @ t=0.82
3.2309345557694122
% es.tEy (V/m) @ t=0.82
0
% es.tEz (V/m) @ t=0.82
-1.6035838848545652
% V (V) @ t=0.82
0.016374633733373663
% es.normE (V/m) @ t=0.84
3.64301004894003
% es.EX (V/m) @ t=0.84
3.261257651712579
% es.EY (V/m) @ t=0.84
0.12547855881383452
% es.EZ (V/m) @ t=0.84
-1.618633898736984
% es.tEX (V/m) @ t=0.84
3.261257651712576
% es.tEY (V/m) @ t=0.84
0
% es.tEZ (V/m) @ t=0.84
-1.6186338987369666
% es.Ex (V/m) @ t=0.84
3.261257651712579
% es.Ey (V/m) @ t=0.84
0.12547855881383452
% es.Ez (V/m) @ t=0.84
-1.618633898736984
% es.tEx (V/m) @ t=0.84
3.261257651712576
% es.tEy (V/m) @ t=0.84
0
% es.tEz (V/m) @ t=0.84
-1.6186338987369666
% V (V) @ t=0.84
0.016528313433097665
% es.normE (V/m) @ t=0.86
3.6768826672622934
% es.EX (V/m) @ t=0.86
3.291580747655713
% es.EY (V/m) @ t=0.86
0.1266452597433267
% es.EZ (V/m) @ t=0.86
-1.6336839126194067
% es.tEX (V/m) @ t=0.86
3.291580747655722
% es.tEY (V/m) @ t=0.86
0
% es.tEZ (V/m) @ t=0.86
-1.6336839126193894
% es.Ex (V/m) @ t=0.86
3.291580747655713
% es.Ey (V/m) @ t=0.86
0.1266452597433267
% es.Ez (V/m) @ t=0.86
-1.6336839126194067
% es.tEx (V/m) @ t=0.86
3.291580747655722
% es.tEy (V/m) @ t=0.86
0
% es.tEz (V/m) @ t=0.86
-1.6336839126193894
% V (V) @ t=0.86
0.016681993132821666
% es.normE (V/m) @ t=0.88
3.710755285584574
% es.EX (V/m) @ t=0.88
3.321903843598876
% es.EY (V/m) @ t=0.88
0.12781196067276823
% es.EZ (V/m) @ t=0.88
-1.6487339265018117
% es.tEX (V/m) @ t=0.88
3.3219038435988697
% es.tEY (V/m) @ t=0.88
0
% es.tEZ (V/m) @ t=0.88
-1.6487339265018122
% es.Ex (V/m) @ t=0.88
3.321903843598876
% es.Ey (V/m) @ t=0.88
0.12781196067276823
% es.Ez (V/m) @ t=0.88
-1.6487339265018117
% es.tEx (V/m) @ t=0.88
3.3219038435988697
% es.tEy (V/m) @ t=0.88
0
% es.tEz (V/m) @ t=0.88
-1.6487339265018122
% V (V) @ t=0.88
0.01683567283254567
% es.normE (V/m) @ t=0.9
3.744627903906856
% es.EX (V/m) @ t=0.9
3.3522269395420317
% es.EY (V/m) @ t=0.9
0.12897866160225951
% es.EZ (V/m) @ t=0.9
-1.6637839403842312
% es.tEX (V/m) @ t=0.9
3.3522269395420317
% es.tEY (V/m) @ t=0.9
0
% es.tEZ (V/m) @ t=0.9
-1.6637839403842136
% es.Ex (V/m) @ t=0.9
3.3522269395420317
% es.Ey (V/m) @ t=0.9
0.12897866160225951
% es.Ez (V/m) @ t=0.9
-1.6637839403842312
% es.tEx (V/m) @ t=0.9
3.3522269395420317
% es.tEy (V/m) @ t=0.9
0
% es.tEz (V/m) @ t=0.9
-1.6637839403842136
% V (V) @ t=0.9
0.016989352532269672
% es.normE (V/m) @ t=0.92
3.7785005222291197
% es.EX (V/m) @ t=0.92
3.382550035485182
% es.EY (V/m) @ t=0.92
0.13014536253174647
% es.EZ (V/m) @ t=0.92
-1.6788339542666222
% es.tEX (V/m) @ t=0.92
3.3825500354851954
% es.tEY (V/m) @ t=0.92
0
% es.tEZ (V/m) @ t=0.92
-1.6788339542666222
% es.Ex (V/m) @ t=0.92
3.382550035485182
% es.Ey (V/m) @ t=0.92
0.13014536253174647
% es.Ez (V/m) @ t=0.92
-1.6788339542666222
% es.tEx (V/m) @ t=0.92
3.3825500354851954
% es.tEy (V/m) @ t=0.92
0
% es.tEz (V/m) @ t=0.92
-1.6788339542666222
% V (V) @ t=0.92
0.017143032231993677
% es.normE (V/m) @ t=0.94
3.8123731405513688
% es.EX (V/m) @ t=0.94
3.4128731314283165
% es.EY (V/m) @ t=0.94
0.1313120634611969
% es.EZ (V/m) @ t=0.94
-1.693883968149013
% es.tEX (V/m) @ t=0.94
3.412873131428329
% es.tEY (V/m) @ t=0.94
0
% es.tEZ (V/m) @ t=0.94
-1.6938839681489881
% es.Ex (V/m) @ t=0.94
3.4128731314283165
% es.Ey (V/m) @ t=0.94
0.1313120634611969
% es.Ez (V/m) @ t=0.94
-1.693883968149013
% es.tEx (V/m) @ t=0.94
3.412873131428329
% es.tEy (V/m) @ t=0.94
0
% es.tEz (V/m) @ t=0.94
-1.6938839681489881
% V (V) @ t=0.94
0.017296711931717675
% es.normE (V/m) @ t=0.96
3.846245758873664
% es.EX (V/m) @ t=0.96
3.443196227371487
% es.EY (V/m) @ t=0.96
0.13247876439066686
% es.EZ (V/m) @ t=0.96
-1.708933982031436
% es.tEX (V/m) @ t=0.96
3.443196227371491
% es.tEY (V/m) @ t=0.96
0
% es.tEZ (V/m) @ t=0.96
-1.708933982031425
% es.Ex (V/m) @ t=0.96
3.443196227371487
% es.Ey (V/m) @ t=0.96
0.13247876439066686
% es.Ez (V/m) @ t=0.96
-1.708933982031436
% es.tEx (V/m) @ t=0.96
3.443196227371491
% es.tEy (V/m) @ t=0.96
0
% es.tEz (V/m) @ t=0.96
-1.708933982031425
% V (V) @ t=0.96
0.017450391631441676
% es.normE (V/m) @ t=0.98
3.8801183771959344
% es.EX (V/m) @ t=0.98
3.473519323314643
% es.EY (V/m) @ t=0.98
0.1336454653201377
% es.EZ (V/m) @ t=0.98
-1.7239839959138306
% es.tEX (V/m) @ t=0.98
3.4735193233146244
% es.tEY (V/m) @ t=0.98
0
% es.tEZ (V/m) @ t=0.98
-1.7239839959137981
% es.Ex (V/m) @ t=0.98
3.473519323314643
% es.Ey (V/m) @ t=0.98
0.1336454653201377
% es.Ez (V/m) @ t=0.98
-1.7239839959138306
% es.tEx (V/m) @ t=0.98
3.4735193233146244
% es.tEy (V/m) @ t=0.98
0
% es.tEz (V/m) @ t=0.98
-1.7239839959137981
% V (V) @ t=0.98
0.017604071331165677
% es.normE (V/m) @ t=1
3.9139909955182075
% es.EX (V/m) @ t=1
3.5038424192577926
% es.EY (V/m) @ t=1
0.13481216624961478
% es.EZ (V/m) @ t=1
-1.7390340097962427
% es.tEX (V/m) @ t=1
3.5038424192577864
% es.tEY (V/m) @ t=1
0
% es.tEZ (V/m) @ t=1
-1.739034009796228
% es.Ex (V/m) @ t=1
3.5038424192577926
% es.Ey (V/m) @ t=1
0.13481216624961478
% es.Ez (V/m) @ t=1
-1.7390340097962427
% es.tEx (V/m) @ t=1
3.5038424192577864
% es.tEy (V/m) @ t=1
0
% es.tEz (V/m) @ t=1
-1.739034009796228
% V (V) @ t=1
0.01775775103088968
% es.normE (V/m) @ t=1.02
3.947863613840501
% es.EX (V/m) @ t=1.02
3.5341655152009555
% es.EY (V/m) @ t=1.02
0.13597886717912028
% es.EZ (V/m) @ t=1.02
-1.7540840236786726
% es.tEX (V/m) @ t=1.02
3.5341655152009483
% es.tEY (V/m) @ t=1.02
0
% es.tEZ (V/m) @ t=1.02
-1.754084023678658
% es.Ex (V/m) @ t=1.02
3.5341655152009555
% es.Ey (V/m) @ t=1.02
0.13597886717912028
% es.Ez (V/m) @ t=1.02
-1.7540840236786726
% es.tEx (V/m) @ t=1.02
3.5341655152009483
% es.tEy (V/m) @ t=1.02
0
% es.tEz (V/m) @ t=1.02
-1.754084023678658
% V (V) @ t=1.02
0.017911430730613683
% es.normE (V/m) @ t=1.04
3.9827085588739206
% es.EX (V/m) @ t=1.04
3.5653590491598557
% es.EY (V/m) @ t=1.04
0.13717906235788419
% es.EZ (V/m) @ t=1.04
-1.7695660503103892
% es.tEX (V/m) @ t=1.04
3.565359049159854
% es.tEY (V/m) @ t=1.04
0
% es.tEZ (V/m) @ t=1.04
-1.7695660503104023
% es.Ex (V/m) @ t=1.04