% Model:              1 neuron.mph
% Version:            COMSOL 6.1.0.252
% Date:               Mar 26 2023, 14:44
% Dimension:          0
% Nodes:              14017
% Expressions:        14017
% Description:        Electric field norm, Electric field, X component, Electric field, Y component, Electric field, Z component, Tangential electric field, X component, Tangential electric field, Y component, Tangential electric field, Z component, Electric field, x component, Electric field, y component, Electric field, z component, Tangential electric field, x component, Tangential electric field, y component, Tangential electric field, z component, Electric potential
% Length unit:        mm
% x
1.6599999999999997
% y
14.200000000000001
% z
1.66
% es.normE (V/m) @ t=0
0.025757762019907187
% es.EX (V/m) @ t=0
-0.019720771558985106
% es.EY (V/m) @ t=0
0.003439774679003804
% es.EZ (V/m) @ t=0
-0.016208683584738814
% es.tEX (V/m) @ t=0
-0.01972077155898866
% es.tEY (V/m) @ t=0
0
% es.tEZ (V/m) @ t=0
-0.016208683584742367
% es.Ex (V/m) @ t=0
-0.019720771558985106
% es.Ey (V/m) @ t=0
0.003439774679003804
% es.Ez (V/m) @ t=0
-0.016208683584738814
% es.tEx (V/m) @ t=0
-0.01972077155898866
% es.tEy (V/m) @ t=0
0
% es.tEz (V/m) @ t=0
-0.016208683584742367
% V (V) @ t=0
0.011008843042523867
% es.normE (V/m) @ t=0.02
0.02358872466567836
% es.EX (V/m) @ t=0.02
-0.018060104042618264
% es.EY (V/m) @ t=0.02
0.003150114494440359
% es.EZ (V/m) @ t=0.02
-0.014843764751399924
% es.tEX (V/m) @ t=0.02
-0.01806010404261471
% es.tEY (V/m) @ t=0.02
0
% es.tEZ (V/m) @ t=0.02
-0.014843764751403477
% es.Ex (V/m) @ t=0.02
-0.018060104042618264
% es.Ey (V/m) @ t=0.02
0.003150114494440359
% es.Ez (V/m) @ t=0.02
-0.014843764751399924
% es.tEx (V/m) @ t=0.02
-0.01806010404261471
% es.tEy (V/m) @ t=0.02
0
% es.tEz (V/m) @ t=0.02
-0.014843764751403477
% V (V) @ t=0.02
0.010081798523008162
% es.normE (V/m) @ t=0.04
0.02380519698812499
% es.EX (V/m) @ t=0.04
-0.018225840983129515
% es.EY (V/m) @ t=0.04
0.0031790229719828034
% es.EZ (V/m) @ t=0.04
-0.01497998454754601
% es.tEX (V/m) @ t=0.04
-0.018225840983125963
% es.tEY (V/m) @ t=0.04
0
% es.tEZ (V/m) @ t=0.04
-0.01497998454755134
% es.Ex (V/m) @ t=0.04
-0.018225840983129515
% es.Ey (V/m) @ t=0.04
0.0031790229719828034
% es.Ez (V/m) @ t=0.04
-0.01497998454754601
% es.tEx (V/m) @ t=0.04
-0.018225840983125963
% es.tEy (V/m) @ t=0.04
0
% es.tEz (V/m) @ t=0.04
-0.01497998454755134
% V (V) @ t=0.04
0.010174318574702588
% es.normE (V/m) @ t=0.06
0.024024205692824697
% es.EX (V/m) @ t=0.06
-0.0183935209154793
% es.EY (V/m) @ t=0.06
0.003208270323273865
% es.EZ (V/m) @ t=0.06
-0.01511779908041433
% es.tEX (V/m) @ t=0.06
-0.0183935209154793
% es.tEY (V/m) @ t=0.06
0
% es.tEZ (V/m) @ t=0.06
-0.015117799080419658
% es.Ex (V/m) @ t=0.06
-0.0183935209154793
% es.Ey (V/m) @ t=0.06
0.003208270323273865
% es.Ez (V/m) @ t=0.06
-0.01511779908041433
% es.tEx (V/m) @ t=0.06
-0.0183935209154793
% es.tEy (V/m) @ t=0.06
0
% es.tEz (V/m) @ t=0.06
-0.015117799080419658
% V (V) @ t=0.06
0.010267922642447044
% es.normE (V/m) @ t=0.08
0.02424520690922028
% es.EX (V/m) @ t=0.08
-0.01856272475093057
% es.EY (V/m) @ t=0.08
0.0032377835259111976
% es.EZ (V/m) @ t=0.08
-0.01525686946039162
% es.tEX (V/m) @ t=0.08
-0.018562724750934123
% es.tEY (V/m) @ t=0.08
0
% es.tEZ (V/m) @ t=0.08
-0.01525686946039162
% es.Ex (V/m) @ t=0.08
-0.01856272475093057
% es.Ey (V/m) @ t=0.08
0.0032377835259111976
% es.Ez (V/m) @ t=0.08
-0.01525686946039162
% es.tEx (V/m) @ t=0.08
-0.018562724750934123
% es.tEy (V/m) @ t=0.08
0
% es.tEz (V/m) @ t=0.08
-0.01525686946039162
% V (V) @ t=0.08
0.01036237835224242
% es.normE (V/m) @ t=0.1
0.024470434906717898
% es.EX (V/m) @ t=0.1
-0.01873516129254149
% es.EY (V/m) @ t=0.1
0.003267860687872215
% es.EZ (V/m) @ t=0.1
-0.015398603910453446
% es.tEX (V/m) @ t=0.1
-0.01873516129254149
% es.tEY (V/m) @ t=0.1
0
% es.tEZ (V/m) @ t=0.1
-0.015398603910458775
% es.Ex (V/m) @ t=0.1
-0.01873516129254149
% es.Ey (V/m) @ t=0.1
0.003267860687872215
% es.Ez (V/m) @ t=0.1
-0.015398603910453446
% es.tEx (V/m) @ t=0.1
-0.01873516129254149
% es.tEy (V/m) @ t=0.1
0
% es.tEz (V/m) @ t=0.1
-0.015398603910458775
% V (V) @ t=0.1
0.010458640678544061
% es.normE (V/m) @ t=0.12
0.024695662904220483
% es.EX (V/m) @ t=0.12
-0.018907597834152412
% es.EY (V/m) @ t=0.12
0.003297937849831456
% es.EZ (V/m) @ t=0.12
-0.015540338360521488
% es.tEX (V/m) @ t=0.12
-0.018907597834155965
% es.tEY (V/m) @ t=0.12
0
% es.tEZ (V/m) @ t=0.12
-0.015540338360523265
% es.Ex (V/m) @ t=0.12
-0.018907597834152412
% es.Ey (V/m) @ t=0.12
0.003297937849831456
% es.Ez (V/m) @ t=0.12
-0.015540338360521488
% es.tEx (V/m) @ t=0.12
-0.018907597834155965
% es.tEy (V/m) @ t=0.12
0
% es.tEz (V/m) @ t=0.12
-0.015540338360523265
% V (V) @ t=0.12
0.010554903004845705
% es.normE (V/m) @ t=0.14
0.02492089090171388
% es.EX (V/m) @ t=0.14
-0.01908003437575978
% es.EY (V/m) @ t=0.14
0.00332801501177471
% es.EZ (V/m) @ t=0.14
-0.01568207281058065
% es.tEX (V/m) @ t=0.14
-0.019080034375766886
% es.tEY (V/m) @ t=0.14
0
% es.tEZ (V/m) @ t=0.14
-0.01568207281058065
% es.Ex (V/m) @ t=0.14
-0.01908003437575978
% es.Ey (V/m) @ t=0.14
0.00332801501177471
% es.Ez (V/m) @ t=0.14
-0.01568207281058065
% es.tEx (V/m) @ t=0.14
-0.019080034375766886
% es.tEy (V/m) @ t=0.14
0
% es.tEz (V/m) @ t=0.14
-0.01568207281058065
% V (V) @ t=0.14
0.010651165331147345
% es.normE (V/m) @ t=0.16
0.02515462602982699
% es.EX (V/m) @ t=0.16
-0.01925900579012918
% es.EY (V/m) @ t=0.16
0.0033592313902488513
% es.EZ (V/m) @ t=0.16
-0.015829133619468472
% es.tEX (V/m) @ t=0.16
-0.019259005790132733
% es.tEY (V/m) @ t=0.16
0
% es.tEZ (V/m) @ t=0.16
-0.015829133619470248
% es.Ex (V/m) @ t=0.16
-0.01925900579012918
% es.Ey (V/m) @ t=0.16
0.0033592313902488513
% es.Ez (V/m) @ t=0.16
-0.015829133619468472
% es.tEx (V/m) @ t=0.16
-0.019259005790132733
% es.tEy (V/m) @ t=0.16
0
% es.tEz (V/m) @ t=0.16
-0.015829133619470248
% V (V) @ t=0.16
0.010751063040310082
% es.normE (V/m) @ t=0.18
0.025393020228235492
% es.EX (V/m) @ t=0.18
-0.019441556135221916
% es.EY (V/m) @ t=0.18
0.0033910716793990048
% es.EZ (V/m) @ t=0.18
-0.015979111496505993
% es.tEX (V/m) @ t=0.18
-0.01944155613522547
% es.tEY (V/m) @ t=0.18
0
% es.tEZ (V/m) @ t=0.18
-0.015979111496509546
% es.Ex (V/m) @ t=0.18
-0.019441556135221916
% es.Ey (V/m) @ t=0.18
0.0033910716793990048
% es.Ez (V/m) @ t=0.18
-0.015979111496505993
% es.tEx (V/m) @ t=0.18
-0.01944155613522547
% es.tEy (V/m) @ t=0.18
0
% es.tEz (V/m) @ t=0.18
-0.015979111496509546
% V (V) @ t=0.18
0.010852951726787649
% es.normE (V/m) @ t=0.2
0.025631414426736877
% es.EX (V/m) @ t=0.2
-0.019624106480316428
% es.EY (V/m) @ t=0.2
0.00342291196855804
% es.EZ (V/m) @ t=0.2
-0.01612908937354618
% es.tEX (V/m) @ t=0.2
-0.01962410648031998
% es.tEY (V/m) @ t=0.2
0
% es.tEZ (V/m) @ t=0.2
-0.016129089373547956
% es.Ex (V/m) @ t=0.2
-0.019624106480316428
% es.Ey (V/m) @ t=0.2
0.00342291196855804
% es.Ez (V/m) @ t=0.2
-0.01612908937354618
% es.tEx (V/m) @ t=0.2
-0.01962410648031998
% es.tEy (V/m) @ t=0.2
0
% es.tEz (V/m) @ t=0.2
-0.016129089373547956
% V (V) @ t=0.2
0.010954840413265216
% es.normE (V/m) @ t=0.22
0.025869808625318954
% es.EX (V/m) @ t=0.22
-0.01980665682540561
% es.EY (V/m) @ t=0.22
0.0034547522577188516
% es.EZ (V/m) @ t=0.22
-0.0162790672505837
% es.tEX (V/m) @ t=0.22
-0.019806656825409164
% es.tEY (V/m) @ t=0.22
0
% es.tEZ (V/m) @ t=0.22
-0.016279067250587254
% es.Ex (V/m) @ t=0.22
-0.01980665682540561
% es.Ey (V/m) @ t=0.22
0.0034547522577188516
% es.Ez (V/m) @ t=0.22
-0.0162790672505837
% es.tEx (V/m) @ t=0.22
-0.019806656825409164
% es.tEy (V/m) @ t=0.22
0
% es.tEz (V/m) @ t=0.22
-0.016279067250587254
% V (V) @ t=0.22
0.011056729099742783
% es.normE (V/m) @ t=0.24
0.026108202823993756
% es.EX (V/m) @ t=0.24
-0.0199892071705019
% es.EY (V/m) @ t=0.24
0.0034865925468761105
% es.EZ (V/m) @ t=0.24
-0.01642904512762744
% es.tEX (V/m) @ t=0.24
-0.01998920717050723
% es.tEY (V/m) @ t=0.24
0
% es.tEZ (V/m) @ t=0.24
-0.016429045127630992
% es.Ex (V/m) @ t=0.24
-0.0199892071705019
% es.Ey (V/m) @ t=0.24
0.0034865925468761105
% es.Ez (V/m) @ t=0.24
-0.01642904512762744
% es.tEx (V/m) @ t=0.24
-0.01998920717050723
% es.tEy (V/m) @ t=0.24
0
% es.tEz (V/m) @ t=0.24
-0.016429045127630992
% V (V) @ t=0.24
0.01115861778622035
% es.normE (V/m) @ t=0.26
0.026346597022731826
% es.EX (V/m) @ t=0.26
-0.0201717575155822
% es.EY (V/m) @ t=0.26
0.0035184328360298167
% es.EZ (V/m) @ t=0.26
-0.016579023004662297
% es.tEX (V/m) @ t=0.26
-0.0201717575155822
% es.tEY (V/m) @ t=0.26
0
% es.tEZ (V/m) @ t=0.26
-0.016579023004662297
% es.Ex (V/m) @ t=0.26
-0.0201717575155822
% es.Ey (V/m) @ t=0.26
0.0035184328360298167
% es.Ez (V/m) @ t=0.26
-0.016579023004662297
% es.tEx (V/m) @ t=0.26
-0.0201717575155822
% es.tEy (V/m) @ t=0.26
0
% es.tEz (V/m) @ t=0.26
-0.016579023004662297
% V (V) @ t=0.26
0.011260506472697917
% es.normE (V/m) @ t=0.28
0.026584991221564127
% es.EX (V/m) @ t=0.28
-0.020354307860674936
% es.EY (V/m) @ t=0.28
0.003550273125194181
% es.EZ (V/m) @ t=0.28
-0.01672900088170337
% es.tEX (V/m) @ t=0.28
-0.020354307860680265
% es.tEY (V/m) @ t=0.28
0
% es.tEZ (V/m) @ t=0.28
-0.01672900088170337
% es.Ex (V/m) @ t=0.28
-0.020354307860674936
% es.Ey (V/m) @ t=0.28
0.003550273125194181
% es.Ez (V/m) @ t=0.28
-0.01672900088170337
% es.tEx (V/m) @ t=0.28
-0.020354307860680265
% es.tEy (V/m) @ t=0.28
0
% es.tEz (V/m) @ t=0.28
-0.01672900088170337
% V (V) @ t=0.28
0.011362395159175484
% es.normE (V/m) @ t=0.3
0.026827634202069205
% es.EX (V/m) @ t=0.3
-0.020540079949618928
% es.EY (V/m) @ t=0.3
0.0035826762656920863
% es.EZ (V/m) @ t=0.3
-0.0168816913642722
% es.tEX (V/m) @ t=0.3
-0.02054007994962248
% es.tEY (V/m) @ t=0.3
0
% es.tEZ (V/m) @ t=0.3
-0.0168816913642722
% es.Ex (V/m) @ t=0.3
-0.020540079949618928
% es.Ey (V/m) @ t=0.3
0.0035826762656920863
% es.Ez (V/m) @ t=0.3
-0.0168816913642722
% es.tEx (V/m) @ t=0.3
-0.02054007994962248
% es.tEy (V/m) @ t=0.3
0
% es.tEz (V/m) @ t=0.3
-0.0168816913642722
% V (V) @ t=0.3
0.011466100574195011
% es.normE (V/m) @ t=0.32
0.02708030280948812
% es.EX (V/m) @ t=0.32
-0.020733454218120784
% es.EY (V/m) @ t=0.32
0.0036164075368763093
% es.EZ (V/m) @ t=0.32
-0.017040782639476504
% es.tEX (V/m) @ t=0.32
-0.020733454218126113
% es.tEY (V/m) @ t=0.32
0
% es.tEZ (V/m) @ t=0.32
-0.01704078263947828
% es.Ex (V/m) @ t=0.32
-0.020733454218120784
% es.Ey (V/m) @ t=0.32
0.0036164075368763093
% es.Ez (V/m) @ t=0.32
-0.017040782639476504
% es.tEx (V/m) @ t=0.32
-0.020733454218126113
% es.tEy (V/m) @ t=0.32
0
% es.tEz (V/m) @ t=0.32
-0.01704078263947828
% V (V) @ t=0.32
0.01157409282804049
% es.normE (V/m) @ t=0.34
0.027332971417470334
% es.EX (V/m) @ t=0.34
-0.020926828486633298
% es.EY (V/m) @ t=0.34
0.0036501388080747432
% es.EZ (V/m) @ t=0.34
-0.01719987391468525
% es.tEX (V/m) @ t=0.34
-0.020926828486633298
% es.tEY (V/m) @ t=0.34
0
% es.tEZ (V/m) @ t=0.34
-0.01719987391468525
% es.Ex (V/m) @ t=0.34
-0.020926828486633298
% es.Ey (V/m) @ t=0.34
0.0036501388080747432
% es.Ez (V/m) @ t=0.34
-0.01719987391468525
% es.tEx (V/m) @ t=0.34
-0.020926828486633298
% es.tEy (V/m) @ t=0.34
0
% es.tEz (V/m) @ t=0.34
-0.01719987391468525
% V (V) @ t=0.34
0.011682085081885967
% es.normE (V/m) @ t=0.36
0.027585640025986184
% es.EX (V/m) @ t=0.36
-0.021120202755140483
% es.EY (V/m) @ t=0.36
0.003683870079278506
% es.EZ (V/m) @ t=0.36
-0.017358965189896658
% es.tEX (V/m) @ t=0.36
-0.021120202755154693
% es.tEY (V/m) @ t=0.36
0
% es.tEZ (V/m) @ t=0.36
-0.017358965189898434
% es.Ex (V/m) @ t=0.36
-0.021120202755140483
% es.Ey (V/m) @ t=0.36
0.003683870079278506
% es.Ez (V/m) @ t=0.36
-0.017358965189896658
% es.tEx (V/m) @ t=0.36
-0.021120202755154693
% es.tEy (V/m) @ t=0.36
0
% es.tEz (V/m) @ t=0.36
-0.017358965189898434
% V (V) @ t=0.36
0.011790077335731447
% es.normE (V/m) @ t=0.38
0.027838308635030236
% es.EX (V/m) @ t=0.38
-0.021313577023660102
% es.EY (V/m) @ t=0.38
0.0037176013504751637
% es.EZ (V/m) @ t=0.38
-0.01751805646510629
% es.tEX (V/m) @ t=0.38
-0.021313577023658326
% es.tEY (V/m) @ t=0.38
0
% es.tEZ (V/m) @ t=0.38
-0.01751805646511162
% es.Ex (V/m) @ t=0.38
-0.021313577023660102
% es.Ey (V/m) @ t=0.38
0.0037176013504751637
% es.Ez (V/m) @ t=0.38
-0.01751805646510629
% es.tEx (V/m) @ t=0.38
-0.021313577023658326
% es.tEy (V/m) @ t=0.38
0
% es.tEz (V/m) @ t=0.38
-0.01751805646511162
% V (V) @ t=0.38
0.011898069589576923
% es.normE (V/m) @ t=0.4
0.028090977244567147
% es.EX (V/m) @ t=0.4
-0.021506951292163734
% es.EY (V/m) @ t=0.4
0.0037513326216682685
% es.EZ (V/m) @ t=0.4
-0.017677147740314147
% es.tEX (V/m) @ t=0.4
-0.021506951292167287
% es.tEY (V/m) @ t=0.4
0
% es.tEZ (V/m) @ t=0.4
-0.017677147740315924
% es.Ex (V/m) @ t=0.4
-0.021506951292163734
% es.Ey (V/m) @ t=0.4
0.0037513326216682685
% es.Ez (V/m) @ t=0.4
-0.017677147740314147
% es.tEx (V/m) @ t=0.4
-0.021506951292167287
% es.tEy (V/m) @ t=0.4
0
% es.tEz (V/m) @ t=0.4
-0.017677147740315924
% V (V) @ t=0.4
0.012006061843422398
% es.normE (V/m) @ t=0.42
0.028343645854605925
% es.EX (V/m) @ t=0.42
-0.021700325560676248
% es.EY (V/m) @ t=0.42
0.0037850638928631497
% es.EZ (V/m) @ t=0.42
-0.01783623901552467
% es.tEX (V/m) @ t=0.42
-0.0217003255606798
% es.tEY (V/m) @ t=0.42
0
% es.tEZ (V/m) @ t=0.42
-0.01783623901552822
% es.Ex (V/m) @ t=0.42
-0.021700325560676248
% es.Ey (V/m) @ t=0.42
0.0037850638928631497
% es.Ez (V/m) @ t=0.42
-0.01783623901552467
% es.tEx (V/m) @ t=0.42
-0.0217003255606798
% es.tEy (V/m) @ t=0.42
0
% es.tEz (V/m) @ t=0.42
-0.01783623901552822
% V (V) @ t=0.42
0.012114054097267875
% es.normE (V/m) @ t=0.44
0.028596314465123982
% es.EX (V/m) @ t=0.44
-0.021893699829188762
% es.EY (V/m) @ t=0.44
0.0038187951640562545
% es.EZ (V/m) @ t=0.44
-0.0179953302907343
% es.tEX (V/m) @ t=0.44
-0.02189369982919409
% es.tEY (V/m) @ t=0.44
0
% es.tEZ (V/m) @ t=0.44
-0.01799533029073963
% es.Ex (V/m) @ t=0.44
-0.021893699829188762
% es.Ey (V/m) @ t=0.44
0.0038187951640562545
% es.Ez (V/m) @ t=0.44
-0.0179953302907343
% es.tEx (V/m) @ t=0.44
-0.02189369982919409
% es.tEy (V/m) @ t=0.44
0
% es.tEz (V/m) @ t=0.44
-0.01799533029073963
% V (V) @ t=0.44
0.012222046351113356
% es.normE (V/m) @ t=0.46
0.02887938576819614
% es.EX (V/m) @ t=0.46
-0.022110444975137256
% es.EY (V/m) @ t=0.46
0.0038566001593149934
% es.EZ (V/m) @ t=0.46
-0.01817343612421407
% es.tEX (V/m) @ t=0.46
-0.02211044497514436
% es.tEY (V/m) @ t=0.46
0
% es.tEZ (V/m) @ t=0.46
-0.01817343612421407
% es.Ex (V/m) @ t=0.46
-0.022110444975137256
% es.Ey (V/m) @ t=0.46
0.0038566001593149934
% es.Ez (V/m) @ t=0.46
-0.01817343612421407
% es.tEx (V/m) @ t=0.46
-0.02211044497514436
% es.tEy (V/m) @ t=0.46
0
% es.tEz (V/m) @ t=0.46
-0.01817343612421407
% V (V) @ t=0.46
0.012343030271225698
% es.normE (V/m) @ t=0.48
0.029164085315403272
% es.EX (V/m) @ t=0.48
-0.022328441769861485
% es.EY (V/m) @ t=0.48
0.003894623326598179
% es.EZ (V/m) @ t=0.48
-0.018352560299804033
% es.tEX (V/m) @ t=0.48
-0.022328441769866814
% es.tEY (V/m) @ t=0.48
0
% es.tEZ (V/m) @ t=0.48
-0.018352560299804033
% es.Ex (V/m) @ t=0.48
-0.022328441769861485
% es.Ey (V/m) @ t=0.48
0.003894623326598179
% es.Ez (V/m) @ t=0.48
-0.018352560299804033
% es.tEx (V/m) @ t=0.48
-0.022328441769866814
% es.tEy (V/m) @ t=0.48
0
% es.tEz (V/m) @ t=0.48
-0.018352560299804033
% V (V) @ t=0.48
0.012464709971941592
% es.normE (V/m) @ t=0.5
0.029448784862675305
% es.EX (V/m) @ t=0.5
-0.022546438564594595
% es.EY (V/m) @ t=0.5
0.0039326464938724826
% es.EZ (V/m) @ t=0.5
-0.018531684475387777
% es.tEX (V/m) @ t=0.5
-0.022546438564598148
% es.tEY (V/m) @ t=0.5
0
% es.tEZ (V/m) @ t=0.5
-0.01853168447539666
% es.Ex (V/m) @ t=0.5
-0.022546438564594595
% es.Ey (V/m) @ t=0.5
0.0039326464938724826
% es.Ez (V/m) @ t=0.5
-0.018531684475387777
% es.tEx (V/m) @ t=0.5
-0.022546438564598148
% es.tEy (V/m) @ t=0.5
0
% es.tEz (V/m) @ t=0.5
-0.01853168447539666
% V (V) @ t=0.5
0.012586389672657489
% es.normE (V/m) @ t=0.52
0.029733484410010304
% es.EX (V/m) @ t=0.52
-0.022764435359324153
% es.EY (V/m) @ t=0.52
0.003970669661153892
% es.EZ (V/m) @ t=0.52
-0.01871080865097685
% es.tEX (V/m) @ t=0.52
-0.022764435359333035
% es.tEY (V/m) @ t=0.52
0
% es.tEZ (V/m) @ t=0.52
-0.01871080865098218
% es.Ex (V/m) @ t=0.52
-0.022764435359324153
% es.Ey (V/m) @ t=0.52
0.003970669661153892
% es.Ez (V/m) @ t=0.52
-0.01871080865097685
% es.tEx (V/m) @ t=0.52
-0.022764435359333035
% es.tEy (V/m) @ t=0.52
0
% es.tEz (V/m) @ t=0.52
-0.01871080865098218
% V (V) @ t=0.52
0.012708069373373385
% es.normE (V/m) @ t=0.54
0.030018183957401773
% es.EX (V/m) @ t=0.54
-0.02298243215405371
% es.EY (V/m) @ t=0.54
0.004008692828415761
% es.EZ (V/m) @ t=0.54
-0.018889932826565037
% es.tEX (V/m) @ t=0.54
-0.022982432154060817
% es.tEY (V/m) @ t=0.54
0
% es.tEZ (V/m) @ t=0.54
-0.01888993282656859
% es.Ex (V/m) @ t=0.54
-0.02298243215405371
% es.Ey (V/m) @ t=0.54
0.004008692828415761
% es.Ez (V/m) @ t=0.54
-0.018889932826565037
% es.tEx (V/m) @ t=0.54
-0.022982432154060817
% es.tEy (V/m) @ t=0.54
0
% es.tEz (V/m) @ t=0.54
-0.01888993282656859
% V (V) @ t=0.54
0.012829749074089285
% es.normE (V/m) @ t=0.56
0.030302883504856912
% es.EX (V/m) @ t=0.56
-0.023200428948785046
% es.EY (V/m) @ t=0.56
0.004046715995706052
% es.EZ (V/m) @ t=0.56
-0.01906905700215411
% es.tEX (V/m) @ t=0.56
-0.02320042894878327
% es.tEY (V/m) @ t=0.56
0
% es.tEZ (V/m) @ t=0.56
-0.01906905700215411
% es.Ex (V/m) @ t=0.56
-0.023200428948785046
% es.Ey (V/m) @ t=0.56
0.004046715995706052
% es.Ez (V/m) @ t=0.56
-0.01906905700215411
% es.tEx (V/m) @ t=0.56
-0.02320042894878327
% es.tEy (V/m) @ t=0.56
0
% es.tEz (V/m) @ t=0.56
-0.01906905700215411
% V (V) @ t=0.56
0.01295142877480518
% es.normE (V/m) @ t=0.58
0.030587583052362262
% es.EX (V/m) @ t=0.58
-0.023418425743512827
% es.EY (V/m) @ t=0.58
0.004084739162975026
% es.EZ (V/m) @ t=0.58
-0.019248181177742296
% es.tEX (V/m) @ t=0.58
-0.023418425743514604
% es.tEY (V/m) @ t=0.58
0
% es.tEZ (V/m) @ t=0.58
-0.019248181177742296
% es.Ex (V/m) @ t=0.58
-0.023418425743512827
% es.Ey (V/m) @ t=0.58
0.004084739162975026
% es.Ez (V/m) @ t=0.58
-0.019248181177742296
% es.tEx (V/m) @ t=0.58
-0.023418425743514604
% es.tEy (V/m) @ t=0.58
0
% es.tEz (V/m) @ t=0.58
-0.019248181177742296
% V (V) @ t=0.58
0.013073108475521076
% es.normE (V/m) @ t=0.6
0.030872282599923986
% es.EX (V/m) @ t=0.6
-0.023636422538242385
% es.EY (V/m) @ t=0.6
0.004122762330245777
% es.EZ (V/m) @ t=0.6
-0.019427305353330482
% es.tEX (V/m) @ t=0.6
-0.023636422538242385
% es.tEY (V/m) @ t=0.6
0
% es.tEZ (V/m) @ t=0.6
-0.01942730535333581
% es.Ex (V/m) @ t=0.6
-0.023636422538242385
% es.Ey (V/m) @ t=0.6
0.004122762330245777
% es.Ez (V/m) @ t=0.6
-0.019427305353330482
% es.tEx (V/m) @ t=0.6
-0.023636422538242385
% es.tEy (V/m) @ t=0.6
0
% es.tEz (V/m) @ t=0.6
-0.01942730535333581
% V (V) @ t=0.6
0.013194788176236974
% es.normE (V/m) @ t=0.62
0.0311569821475317
% es.EX (V/m) @ t=0.62
-0.02385441933296306
% es.EY (V/m) @ t=0.62
0.00416078549752541
% es.EZ (V/m) @ t=0.62
-0.019606429528916003
% es.tEX (V/m) @ t=0.62
-0.023854419332971943
% es.tEY (V/m) @ t=0.62
0
% es.tEZ (V/m) @ t=0.62
-0.01960642952892311
% es.Ex (V/m) @ t=0.62
-0.02385441933296306
% es.Ey (V/m) @ t=0.62
0.00416078549752541
% es.Ez (V/m) @ t=0.62
-0.019606429528916003
% es.tEx (V/m) @ t=0.62
-0.023854419332971943
% es.tEy (V/m) @ t=0.62
0
% es.tEz (V/m) @ t=0.62
-0.01960642952892311
% V (V) @ t=0.62
0.013316467876952868
% es.normE (V/m) @ t=0.64
0.031441681695207946
% es.EX (V/m) @ t=0.64
-0.02407241612769795
% es.EY (V/m) @ t=0.64
0.004198808664806819
% es.EZ (V/m) @ t=0.64
-0.019785553704510406
% es.tEX (V/m) @ t=0.64
-0.0240724161277015
% es.tEY (V/m) @ t=0.64
0
% es.tEZ (V/m) @ t=0.64
-0.01978555370451396
% es.Ex (V/m) @ t=0.64
-0.02407241612769795
% es.Ey (V/m) @ t=0.64
0.004198808664806819
% es.Ez (V/m) @ t=0.64
-0.019785553704510406
% es.tEx (V/m) @ t=0.64
-0.0240724161277015
% es.tEy (V/m) @ t=0.64
0
% es.tEz (V/m) @ t=0.64
-0.01978555370451396
% V (V) @ t=0.64
0.013438147577668766
% es.normE (V/m) @ t=0.66
0.03172638124292441
% es.EX (V/m) @ t=0.66
-0.024290412922429283
% es.EY (V/m) @ t=0.66
0.004236831832086452
% es.EZ (V/m) @ t=0.66
-0.019964677880093262
% es.tEX (V/m) @ t=0.66
-0.02429041292243106
% es.tEY (V/m) @ t=0.66
0
% es.tEZ (V/m) @ t=0.66
-0.019964677880096815
% es.Ex (V/m) @ t=0.66
-0.024290412922429283
% es.Ey (V/m) @ t=0.66
0.004236831832086452
% es.Ez (V/m) @ t=0.66
-0.019964677880093262
% es.tEx (V/m) @ t=0.66
-0.02429041292243106
% es.tEy (V/m) @ t=0.66
0
% es.tEz (V/m) @ t=0.66
-0.019964677880096815
% V (V) @ t=0.66
0.013559827278384664
% es.normE (V/m) @ t=0.68
0.032011080790693154
% es.EX (V/m) @ t=0.68
-0.02450840971715884
% es.EY (V/m) @ t=0.68
0.004274854999362532
% es.EZ (V/m) @ t=0.68
-0.020143802055684112
% es.tEX (V/m) @ t=0.68
-0.024508409717165947
% es.tEY (V/m) @ t=0.68
0
% es.tEZ (V/m) @ t=0.68
-0.020143802055687665
% es.Ex (V/m) @ t=0.68
-0.02450840971715884
% es.Ey (V/m) @ t=0.68
0.004274854999362532
% es.Ez (V/m) @ t=0.68
-0.020143802055684112
% es.tEx (V/m) @ t=0.68
-0.024508409717165947
% es.tEy (V/m) @ t=0.68
0
% es.tEz (V/m) @ t=0.68
-0.020143802055687665
% V (V) @ t=0.68
0.013681506979100562
% es.normE (V/m) @ t=0.7
0.0322957803385032
% es.EX (V/m) @ t=0.7
-0.024726406511881294
% es.EY (V/m) @ t=0.7
0.004312878166647494
% es.EZ (V/m) @ t=0.7
-0.02032292623127141
% es.tEX (V/m) @ t=0.7
-0.024726406511886623
% es.tEY (V/m) @ t=0.7
0
% es.tEZ (V/m) @ t=0.7
-0.020322926231274963
% es.Ex (V/m) @ t=0.7
-0.024726406511881294
% es.Ey (V/m) @ t=0.7
0.004312878166647494
% es.Ez (V/m) @ t=0.7
-0.02032292623127141
% es.tEx (V/m) @ t=0.7
-0.024726406511886623
% es.tEy (V/m) @ t=0.7
0
% es.tEz (V/m) @ t=0.7
-0.020322926231274963
% V (V) @ t=0.7
0.013803186679816459
% es.normE (V/m) @ t=0.72
0.032580479886367725
% es.EX (V/m) @ t=0.72
-0.02494440330661618
% es.EY (V/m) @ t=0.72
0.004350901333916468
% es.EZ (V/m) @ t=0.72
-0.020502050406859595
% es.tEX (V/m) @ t=0.72
-0.024944403306617957
% es.tEY (V/m) @ t=0.72
0
% es.tEZ (V/m) @ t=0.72
-0.020502050406864925
% es.Ex (V/m) @ t=0.72
-0.02494440330661618
% es.Ey (V/m) @ t=0.72
0.004350901333916468
% es.Ez (V/m) @ t=0.72
-0.020502050406859595
% es.tEx (V/m) @ t=0.72
-0.024944403306617957
% es.tEy (V/m) @ t=0.72
0
% es.tEz (V/m) @ t=0.72
-0.020502050406864925
% V (V) @ t=0.72
0.013924866380532351
% es.normE (V/m) @ t=0.74
0.03287346413312407
% es.EX (V/m) @ t=0.74
-0.025168738077383068
% es.EY (V/m) @ t=0.74
0.004390030148568869
% es.EZ (V/m) @ t=0.74
-0.020686394151677057
% es.tEX (V/m) @ t=0.74
-0.02516873807739195
% es.tEY (V/m) @ t=0.74
0
% es.tEZ (V/m) @ t=0.74
-0.020686394151678833
% es.Ex (V/m) @ t=0.74
-0.025168738077383068
% es.Ey (V/m) @ t=0.74
0.004390030148568869
% es.Ez (V/m) @ t=0.74
-0.020686394151677057
% es.tEx (V/m) @ t=0.74
-0.02516873807739195
% es.tEy (V/m) @ t=0.74
0
% es.tEz (V/m) @ t=0.74
-0.020686394151678833
% V (V) @ t=0.74
0.014050087102908011
% es.normE (V/m) @ t=0.76
0.03319101353074565
% es.EX (V/m) @ t=0.76
-0.02541186572649501
% es.EY (V/m) @ t=0.76
0.004432437343544038
% es.EZ (V/m) @ t=0.76
-0.020886214561099514
% es.tEX (V/m) @ t=0.76
-0.02541186572650389
% es.tEY (V/m) @ t=0.76
0
% es.tEZ (V/m) @ t=0.76
-0.020886214561103067
% es.Ex (V/m) @ t=0.76
-0.02541186572649501
% es.Ey (V/m) @ t=0.76
0.004432437343544038
% es.Ez (V/m) @ t=0.76
-0.020886214561099514
% es.tEx (V/m) @ t=0.76
-0.02541186572650389
% es.tEy (V/m) @ t=0.76
0
% es.tEz (V/m) @ t=0.76
-0.020886214561103067
% V (V) @ t=0.76
0.014185807389950577
% es.normE (V/m) @ t=0.78
0.033508562928378546
% es.EX (V/m) @ t=0.78
-0.025654993375614055
% es.EY (V/m) @ t=0.78
0.004474844538545852
% es.EZ (V/m) @ t=0.78
-0.021086034970523748
% es.tEX (V/m) @ t=0.78
-0.02565499337561583
% es.tEY (V/m) @ t=0.78
0
% es.tEZ (V/m) @ t=0.78
-0.021086034970530854
% es.Ex (V/m) @ t=0.78
-0.025654993375614055
% es.Ey (V/m) @ t=0.78
0.004474844538545852
% es.Ez (V/m) @ t=0.78
-0.021086034970523748
% es.tEx (V/m) @ t=0.78
-0.02565499337561583
% es.tEy (V/m) @ t=0.78
0
% es.tEz (V/m) @ t=0.78
-0.021086034970530854
% V (V) @ t=0.78
0.014321527676993141
% es.normE (V/m) @ t=0.8
0.03382611232600469
% es.EX (V/m) @ t=0.8
-0.025898121024720666
% es.EY (V/m) @ t=0.8
0.00451725173355122
% es.EZ (V/m) @ t=0.8
-0.02128585537994976
% es.tEX (V/m) @ t=0.8
-0.025898121024722442
% es.tEY (V/m) @ t=0.8
0
% es.tEZ (V/m) @ t=0.8
-0.021285855379955088
% es.Ex (V/m) @ t=0.8
-0.025898121024720666
% es.Ey (V/m) @ t=0.8
0.00451725173355122
% es.Ez (V/m) @ t=0.8
-0.02128585537994976
% es.tEx (V/m) @ t=0.8
-0.025898121024722442
% es.tEy (V/m) @ t=0.8
0
% es.tEz (V/m) @ t=0.8
-0.021285855379955088
% V (V) @ t=0.8
0.014457247964035705
% es.normE (V/m) @ t=0.82
0.03414366172363654
% es.EX (V/m) @ t=0.82
-0.026141248673834383
% es.EY (V/m) @ t=0.82
0.004559658928545929
% es.EZ (V/m) @ t=0.82
-0.021485675789376657
% es.tEX (V/m) @ t=0.82
-0.026141248673834383
% es.tEY (V/m) @ t=0.82
0
% es.tEZ (V/m) @ t=0.82
-0.02148567578938021
% es.Ex (V/m) @ t=0.82
-0.026141248673834383
% es.Ey (V/m) @ t=0.82
0.004559658928545929
% es.Ez (V/m) @ t=0.82
-0.021485675789376657
% es.tEx (V/m) @ t=0.82
-0.026141248673834383
% es.tEy (V/m) @ t=0.82
0
% es.tEz (V/m) @ t=0.82
-0.02148567578938021
% V (V) @ t=0.82
0.01459296825107827
% es.normE (V/m) @ t=0.84
0.03446121112126061
% es.EX (V/m) @ t=0.84
-0.026384376322940994
% es.EY (V/m) @ t=0.84
0.004602066123544191
% es.EZ (V/m) @ t=0.84
-0.021685496198797338
% es.tEX (V/m) @ t=0.84
-0.02638437632294277
% es.tEY (V/m) @ t=0.84
0
% es.tEZ (V/m) @ t=0.84
-0.02168549619880622
% es.Ex (V/m) @ t=0.84
-0.026384376322940994
% es.Ey (V/m) @ t=0.84
0.004602066123544191
% es.Ez (V/m) @ t=0.84
-0.021685496198797338
% es.tEx (V/m) @ t=0.84
-0.02638437632294277
% es.tEy (V/m) @ t=0.84
0
% es.tEz (V/m) @ t=0.84
-0.02168549619880622
% V (V) @ t=0.84
0.014728688538120836
% es.normE (V/m) @ t=0.86
0.034778760518892796
% es.EX (V/m) @ t=0.86
-0.026627503972052935
% es.EY (V/m) @ t=0.86
0.0046444733185477816
% es.EZ (V/m) @ t=0.86
-0.021885316608221572
% es.tEX (V/m) @ t=0.86
-0.026627503972058264
% es.tEY (V/m) @ t=0.86
0
% es.tEZ (V/m) @ t=0.86
-0.0218853166082269
% es.Ex (V/m) @ t=0.86
-0.026627503972052935
% es.Ey (V/m) @ t=0.86
0.0046444733185477816
% es.Ez (V/m) @ t=0.86
-0.021885316608221572
% es.tEx (V/m) @ t=0.86
-0.026627503972058264
% es.tEy (V/m) @ t=0.86
0
% es.tEz (V/m) @ t=0.86
-0.0218853166082269
% V (V) @ t=0.86
0.014864408825163397
% es.normE (V/m) @ t=0.88
0.035096309916528345
% es.EX (V/m) @ t=0.88
-0.026870631621168428
% es.EY (V/m) @ t=0.88
0.004686880513544267
% es.EZ (V/m) @ t=0.88
-0.022085137017646694
% es.tEX (V/m) @ t=0.88
-0.026870631621170205
% es.tEY (V/m) @ t=0.88
0
% es.tEZ (V/m) @ t=0.88
-0.022085137017652023
% es.Ex (V/m) @ t=0.88
-0.026870631621168428
% es.Ey (V/m) @ t=0.88
0.004686880513544267
% es.Ez (V/m) @ t=0.88
-0.022085137017646694
% es.tEx (V/m) @ t=0.88
-0.026870631621170205
% es.tEy (V/m) @ t=0.88
0
% es.tEz (V/m) @ t=0.88
-0.022085137017652023
% V (V) @ t=0.88
0.015000129112205962
% es.normE (V/m) @ t=0.9
0.03541385931416553
% es.EX (V/m) @ t=0.9
-0.02711375927028037
% es.EY (V/m) @ t=0.9
0.004729287708553187
% es.EZ (V/m) @ t=0.9
-0.02228495742707448
% es.tEX (V/m) @ t=0.9
-0.027113759270282145
% es.tEY (V/m) @ t=0.9
0
% es.tEZ (V/m) @ t=0.9
-0.022284957427078034
% es.Ex (V/m) @ t=0.9
-0.02711375927028037
% es.Ey (V/m) @ t=0.9
0.004729287708553187
% es.Ez (V/m) @ t=0.9
-0.02228495742707448
% es.tEx (V/m) @ t=0.9
-0.027113759270282145
% es.tEy (V/m) @ t=0.9
0
% es.tEz (V/m) @ t=0.9
-0.022284957427078034
% V (V) @ t=0.9
0.015135849399248526
% es.normE (V/m) @ t=0.92
0.03573140871179916
% es.EX (V/m) @ t=0.92
-0.027356886919388756
% es.EY (V/m) @ t=0.92
0.004771694903556778
% es.EZ (V/m) @ t=0.92
-0.02248477783650049
% es.tEX (V/m) @ t=0.92
-0.02735688691939764
% es.tEY (V/m) @ t=0.92
0
% es.tEZ (V/m) @ t=0.92
-0.02248477783650582
% es.Ex (V/m) @ t=0.92
-0.027356886919388756
% es.Ey (V/m) @ t=0.92
0.004771694903556778
% es.Ez (V/m) @ t=0.92
-0.02248477783650049
% es.tEx (V/m) @ t=0.92
-0.02735688691939764
% es.tEy (V/m) @ t=0.92
0
% es.tEz (V/m) @ t=0.92
-0.02248477783650582
% V (V) @ t=0.92
0.015271569686291094
% es.normE (V/m) @ t=0.94
0.03604895810942538
% es.EX (V/m) @ t=0.94
-0.02760001456849359
% es.EY (V/m) @ t=0.94
0.004814102098551487
% es.EZ (V/m) @ t=0.94
-0.022684598245919396
% es.tEX (V/m) @ t=0.94
-0.027600014568495368
% es.tEY (V/m) @ t=0.94
0
% es.tEZ (V/m) @ t=0.94
-0.022684598245924725
% es.Ex (V/m) @ t=0.94
-0.02760001456849359
% es.Ey (V/m) @ t=0.94
0.004814102098551487
% es.Ez (V/m) @ t=0.94
-0.022684598245919396
% es.tEx (V/m) @ t=0.94
-0.027600014568495368
% es.tEy (V/m) @ t=0.94
0
% es.tEz (V/m) @ t=0.94
-0.022684598245924725
% V (V) @ t=0.94
0.015407289973333658
% es.normE (V/m) @ t=0.96
0.03636650750707459
% es.EX (V/m) @ t=0.96
-0.027843142217617967
% es.EY (V/m) @ t=0.96
0.004856509293553302
% es.EZ (V/m) @ t=0.96
-0.02288441865534807
% es.tEX (V/m) @ t=0.96
-0.027843142217619743
% es.tEY (V/m) @ t=0.96
0
% es.tEZ (V/m) @ t=0.96
-0.022884418655351624
% es.Ex (V/m) @ t=0.96
-0.027843142217617967
% es.Ey (V/m) @ t=0.96
0.004856509293553302
% es.Ez (V/m) @ t=0.96
-0.02288441865534807
% es.tEx (V/m) @ t=0.96
-0.027843142217619743
% es.tEy (V/m) @ t=0.96
0
% es.tEz (V/m) @ t=0.96
-0.022884418655351624
% V (V) @ t=0.96
0.015543010260376222
% es.normE (V/m) @ t=0.98
0.03668405690471041
% es.EX (V/m) @ t=0.98
-0.02808626986672813
% es.EY (V/m) @ t=0.98
0.004898916488546234
% es.EZ (V/m) @ t=0.98
-0.023084239064773193
% es.tEX (V/m) @ t=0.98
-0.028086269866737013
% es.tEY (V/m) @ t=0.98
0
% es.tEZ (V/m) @ t=0.98
-0.023084239064778522
% es.Ex (V/m) @ t=0.98
-0.02808626986672813
% es.Ey (V/m) @ t=0.98
0.004898916488546234
% es.Ez (V/m) @ t=0.98
-0.023084239064773193
% es.tEx (V/m) @ t=0.98
-0.028086269866737013
% es.tEy (V/m) @ t=0.98
0
% es.tEz (V/m) @ t=0.98
-0.023084239064778522
% V (V) @ t=0.98
0.015678730547418782
% es.normE (V/m) @ t=1
0.03700253053925615
% es.EX (V/m) @ t=1
-0.028330107068391897
% es.EY (V/m) @ t=1
0.004941447389043674
% es.EZ (V/m) @ t=1