% Model:              1 neuron.mph
% Version:            COMSOL 6.1.0.252
% Date:               Mar 26 2023, 14:42
% Dimension:          0
% Nodes:              14017
% Expressions:        14017
% Description:        Electric field norm, Electric field, X component, Electric field, Y component, Electric field, Z component, Tangential electric field, X component, Tangential electric field, Y component, Tangential electric field, Z component, Electric field, x component, Electric field, y component, Electric field, z component, Tangential electric field, x component, Tangential electric field, y component, Tangential electric field, z component, Electric potential
% Length unit:        mm
% x
1.6600000000000001
% y
14.200000000000001
% z
1
% es.normE (V/m) @ t=0
0.051295181625424686
% es.EX (V/m) @ t=0
-0.018813501566438795
% es.EY (V/m) @ t=0
0.005730375484521044
% es.EZ (V/m) @ t=0
0.04737521096102171
% es.tEX (V/m) @ t=0
-0.01881350156644057
% es.tEY (V/m) @ t=0
0
% es.tEZ (V/m) @ t=0
0.04737521096101993
% es.Ex (V/m) @ t=0
-0.018813501566438795
% es.Ey (V/m) @ t=0
0.005730375484521044
% es.Ez (V/m) @ t=0
0.04737521096102171
% es.tEx (V/m) @ t=0
-0.01881350156644057
% es.tEy (V/m) @ t=0
0
% es.tEz (V/m) @ t=0
0.04737521096101993
% V (V) @ t=0
0.01088630393306409
% es.normE (V/m) @ t=0.02
0.04697595085632796
% es.EX (V/m) @ t=0.02
-0.017229340102498547
% es.EY (V/m) @ t=0.02
0.005247858159995178
% es.EZ (V/m) @ t=0.02
0.043386055170079096
% es.tEX (V/m) @ t=0.02
-0.0172293401025021
% es.tEY (V/m) @ t=0.02
0
% es.tEZ (V/m) @ t=0.02
0.04338605517008354
% es.Ex (V/m) @ t=0.02
-0.017229340102498547
% es.Ey (V/m) @ t=0.02
0.005247858159995178
% es.Ez (V/m) @ t=0.02
0.043386055170079096
% es.tEx (V/m) @ t=0.02
-0.0172293401025021
% es.tEy (V/m) @ t=0.02
0
% es.tEz (V/m) @ t=0.02
0.04338605517008354
% V (V) @ t=0.02
0.009969639483582437
% es.normE (V/m) @ t=0.04
0.047407220364821916
% es.EX (V/m) @ t=0.04
-0.017387517227474447
% es.EY (V/m) @ t=0.04
0.005296036924352543
% es.EZ (V/m) @ t=0.04
0.04378436684798537
% es.tEX (V/m) @ t=0.04
-0.01738751722747356
% es.tEY (V/m) @ t=0.04
0
% es.tEZ (V/m) @ t=0.04
0.043784366847987144
% es.Ex (V/m) @ t=0.04
-0.017387517227474447
% es.Ey (V/m) @ t=0.04
0.005296036924352543
% es.Ez (V/m) @ t=0.04
0.04378436684798537
% es.tEx (V/m) @ t=0.04
-0.01738751722747356
% es.tEy (V/m) @ t=0.04
0
% es.tEz (V/m) @ t=0.04
0.043784366847987144
% V (V) @ t=0.04
0.010061165729238314
% es.normE (V/m) @ t=0.06
0.04784353940385583
% es.EX (V/m) @ t=0.06
-0.01754754482300047
% es.EY (V/m) @ t=0.06
0.0053447796932617475
% es.EZ (V/m) @ t=0.06
0.04418734279636638
% es.tEX (V/m) @ t=0.06
-0.017547544823003136
% es.tEY (V/m) @ t=0.06
0
% es.tEZ (V/m) @ t=0.06
0.044187342796363716
% es.Ex (V/m) @ t=0.06
-0.01754754482300047
% es.Ey (V/m) @ t=0.06
0.0053447796932617475
% es.Ez (V/m) @ t=0.06
0.04418734279636638
% es.tEx (V/m) @ t=0.06
-0.017547544823003136
% es.tEy (V/m) @ t=0.06
0
% es.tEz (V/m) @ t=0.06
0.044187342796363716
% V (V) @ t=0.06
0.010153766952627454
% es.normE (V/m) @ t=0.08
0.04828384166424905
% es.EX (V/m) @ t=0.08
-0.017709036343854123
% es.EY (V/m) @ t=0.08
0.005393967629466534
% es.EZ (V/m) @ t=0.08
0.04459399635424699
% es.tEX (V/m) @ t=0.08
-0.017709036343853235
% es.tEY (V/m) @ t=0.08
0
% es.tEZ (V/m) @ t=0.08
0.04459399635424788
% es.Ex (V/m) @ t=0.08
-0.017709036343854123
% es.Ey (V/m) @ t=0.08
0.005393967629466534
% es.Ez (V/m) @ t=0.08
0.04459399635424699
% es.tEx (V/m) @ t=0.08
-0.017709036343853235
% es.tEy (V/m) @ t=0.08
0
% es.tEz (V/m) @ t=0.08
0.04459399635424788
% V (V) @ t=0.08
0.010247207108730038
% es.normE (V/m) @ t=0.1
0.04873257670141665
% es.EX (V/m) @ t=0.1
-0.017873627103808687
% es.EY (V/m) @ t=0.1
0.005444098018064447
% es.EZ (V/m) @ t=0.1
0.04500843568580404
% es.tEX (V/m) @ t=0.1
-0.017873627103813128
% es.tEY (V/m) @ t=0.1
0
% es.tEZ (V/m) @ t=0.1
0.045008435685805814
% es.Ex (V/m) @ t=0.1
-0.017873627103808687
% es.Ey (V/m) @ t=0.1
0.005444098018064447
% es.Ez (V/m) @ t=0.1
0.04500843568580404
% es.tEx (V/m) @ t=0.1
-0.017873627103813128
% es.tEy (V/m) @ t=0.1
0
% es.tEz (V/m) @ t=0.1
0.045008435685805814
% V (V) @ t=0.1
0.010342423347970559
% es.normE (V/m) @ t=0.12
0.049181311738592005
% es.EX (V/m) @ t=0.12
-0.018038217863762362
% es.EY (V/m) @ t=0.12
0.005494228406661028
% es.EZ (V/m) @ t=0.12
0.04542287501736819
% es.tEX (V/m) @ t=0.12
-0.018038217863761474
% es.tEY (V/m) @ t=0.12
0
% es.tEZ (V/m) @ t=0.12
0.04542287501736908
% es.Ex (V/m) @ t=0.12
-0.018038217863762362
% es.Ey (V/m) @ t=0.12
0.005494228406661028
% es.Ez (V/m) @ t=0.12
0.04542287501736819
% es.tEx (V/m) @ t=0.12
-0.018038217863761474
% es.tEy (V/m) @ t=0.12
0
% es.tEz (V/m) @ t=0.12
0.04542287501736908
% V (V) @ t=0.12
0.01043763958721108
% es.normE (V/m) @ t=0.14
0.049630046775770896
% es.EX (V/m) @ t=0.14
-0.018202808623727584
% es.EY (V/m) @ t=0.14
0.005544358795258608
% es.EZ (V/m) @ t=0.14
0.04583731434892968
% es.tEX (V/m) @ t=0.14
-0.01820280862372403
% es.tEY (V/m) @ t=0.14
0
% es.tEZ (V/m) @ t=0.14
0.04583731434893057
% es.Ex (V/m) @ t=0.14
-0.018202808623727584
% es.Ey (V/m) @ t=0.14
0.005544358795258608
% es.Ez (V/m) @ t=0.14
0.04583731434892968
% es.tEx (V/m) @ t=0.14
-0.01820280862372403
% es.tEy (V/m) @ t=0.14
0
% es.tEz (V/m) @ t=0.14
0.04583731434893057
% V (V) @ t=0.14
0.010532855826451602
% es.normE (V/m) @ t=0.16
0.050095779852969834
% es.EX (V/m) @ t=0.16
-0.018373625402654525
% es.EY (V/m) @ t=0.16
0.005596387578383655
% es.EZ (V/m) @ t=0.16
0.046267456108075145
% es.tEX (V/m) @ t=0.16
-0.0183736254026563
% es.tEY (V/m) @ t=0.16
0
% es.tEZ (V/m) @ t=0.16
0.04626745610808314
% es.Ex (V/m) @ t=0.16
-0.018373625402654525
% es.Ey (V/m) @ t=0.16
0.005596387578383655
% es.Ez (V/m) @ t=0.16
0.046267456108075145
% es.tEx (V/m) @ t=0.16
-0.0183736254026563
% es.tEy (V/m) @ t=0.16
0
% es.tEz (V/m) @ t=0.16
0.04626745610808314
% V (V) @ t=0.16
0.01063169737761734
% es.normE (V/m) @ t=0.18
0.05057078661945303
% es.EX (V/m) @ t=0.18
-0.01854783893587797
% es.EY (V/m) @ t=0.18
0.0056494520762598865
% es.EZ (V/m) @ t=0.18
0.046706164703998354
% es.tEX (V/m) @ t=0.18
-0.018547838935875305
% es.tEY (V/m) @ t=0.18
0
% es.tEZ (V/m) @ t=0.18
0.04670616470399924
% es.Ex (V/m) @ t=0.18
-0.01854783893587797
% es.Ey (V/m) @ t=0.18
0.0056494520762598865
% es.Ez (V/m) @ t=0.18
0.046706164703998354
% es.tEx (V/m) @ t=0.18
-0.018547838935875305
% es.tEy (V/m) @ t=0.18
0
% es.tEz (V/m) @ t=0.18
0.04670616470399924
% V (V) @ t=0.18
0.010732516804836847
% es.normE (V/m) @ t=0.2
0.05104579338593923
% es.EX (V/m) @ t=0.2
-0.01872205246910319
% es.EY (V/m) @ t=0.2
0.005702516574138117
% es.EZ (V/m) @ t=0.2
0.04714487329992334
% es.tEX (V/m) @ t=0.2
-0.018722052469104966
% es.tEY (V/m) @ t=0.2
0
% es.tEZ (V/m) @ t=0.2
0.04714487329992423
% es.Ex (V/m) @ t=0.2
-0.01872205246910319
% es.Ey (V/m) @ t=0.2
0.005702516574138117
% es.Ez (V/m) @ t=0.2
0.04714487329992334
% es.tEx (V/m) @ t=0.2
-0.018722052469104966
% es.tEy (V/m) @ t=0.2
0
% es.tEz (V/m) @ t=0.2
0.04714487329992423
% V (V) @ t=0.2
0.010833336232056356
% es.normE (V/m) @ t=0.22
0.05152080015242548
% es.EX (V/m) @ t=0.22
-0.018896266002322193
% es.EY (V/m) @ t=0.22
0.005755581072025562
% es.EZ (V/m) @ t=0.22
0.047583581895849214
% es.tEX (V/m) @ t=0.22
-0.018896266002330186
% es.tEY (V/m) @ t=0.22
0
% es.tEZ (V/m) @ t=0.22
0.0475835818958501
% es.Ex (V/m) @ t=0.22
-0.018896266002322193
% es.Ey (V/m) @ t=0.22
0.005755581072025562
% es.Ez (V/m) @ t=0.22
0.047583581895849214
% es.tEx (V/m) @ t=0.22
-0.018896266002330186
% es.tEy (V/m) @ t=0.22
0
% es.tEz (V/m) @ t=0.22
0.0475835818958501
% V (V) @ t=0.22
0.010934155659275862
% es.normE (V/m) @ t=0.24
0.05199580691891855
% es.EX (V/m) @ t=0.24
-0.01907047953555807
% es.EY (V/m) @ t=0.24
0.005808645569907123
% es.EZ (V/m) @ t=0.24
0.048022290491775976
% es.tEX (V/m) @ t=0.24
-0.01907047953555452
% es.tEY (V/m) @ t=0.24
0
% es.tEZ (V/m) @ t=0.24
0.048022290491776864
% es.Ex (V/m) @ t=0.24
-0.01907047953555807
% es.Ey (V/m) @ t=0.24
0.005808645569907123
% es.Ez (V/m) @ t=0.24
0.048022290491775976
% es.tEx (V/m) @ t=0.24
-0.01907047953555452
% es.tEy (V/m) @ t=0.24
0
% es.tEz (V/m) @ t=0.24
0.048022290491776864
% V (V) @ t=0.24
0.011034975086495369
% es.normE (V/m) @ t=0.26
0.05247081368539978
% es.EX (V/m) @ t=0.26
-0.019244693068775298
% es.EY (V/m) @ t=0.26
0.00586171006778391
% es.EZ (V/m) @ t=0.26
0.04846099908769741
% es.tEX (V/m) @ t=0.26
-0.01924469306877974
% es.tEY (V/m) @ t=0.26
0
% es.tEZ (V/m) @ t=0.26
0.04846099908770274
% es.Ex (V/m) @ t=0.26
-0.019244693068775298
% es.Ey (V/m) @ t=0.26
0.00586171006778391
% es.Ez (V/m) @ t=0.26
0.04846099908769741
% es.tEx (V/m) @ t=0.26
-0.01924469306877974
% es.tEy (V/m) @ t=0.26
0
% es.tEz (V/m) @ t=0.26
0.04846099908770274
% V (V) @ t=0.26
0.01113579451371488
% es.normE (V/m) @ t=0.28
0.05294582045188842
% es.EX (V/m) @ t=0.28
-0.019418906601997854
% es.EY (V/m) @ t=0.28
0.00591477456567624
% es.EZ (V/m) @ t=0.28
0.048899707683622395
% es.tEX (V/m) @ t=0.28
-0.019418906601997854
% es.tEY (V/m) @ t=0.28
0
% es.tEZ (V/m) @ t=0.28
0.04889970768361973
% es.Ex (V/m) @ t=0.28
-0.019418906601997854
% es.Ey (V/m) @ t=0.28
0.00591477456567624
% es.Ez (V/m) @ t=0.28
0.048899707683622395
% es.tEx (V/m) @ t=0.28
-0.019418906601997854
% es.tEy (V/m) @ t=0.28
0
% es.tEz (V/m) @ t=0.28
0.04889970768361973
% V (V) @ t=0.28
0.011236613940934387
% es.normE (V/m) @ t=0.3
0.053429234593860196
% es.EX (V/m) @ t=0.3
-0.01959620162635556
% es.EY (V/m) @ t=0.3
0.005968778153511378
% es.EZ (V/m) @ t=0.3
0.04934618200488394
% es.tEX (V/m) @ t=0.3
-0.019596201626353782
% es.tEY (V/m) @ t=0.3
0
% es.tEZ (V/m) @ t=0.3
0.04934618200488128
% es.Ex (V/m) @ t=0.3
-0.01959620162635556
% es.Ey (V/m) @ t=0.3
0.005968778153511378
% es.Ez (V/m) @ t=0.3
0.04934618200488394
% es.tEx (V/m) @ t=0.3
-0.019596201626353782
% es.tEy (V/m) @ t=0.3
0
% es.tEz (V/m) @ t=0.3
0.04934618200488128
% V (V) @ t=0.3
0.011339222096419332
% es.normE (V/m) @ t=0.32
0.05393232218666391
% es.EX (V/m) @ t=0.32
-0.019780707410395948
% es.EY (V/m) @ t=0.32
0.006024979233331229
% es.EZ (V/m) @ t=0.32
0.04981082830096639
% es.tEX (V/m) @ t=0.32
-0.019780707410396836
% es.tEY (V/m) @ t=0.32
0
% es.tEZ (V/m) @ t=0.32
0.04981082830096817
% es.Ex (V/m) @ t=0.32
-0.019780707410395948
% es.Ey (V/m) @ t=0.32
0.006024979233331229
% es.Ez (V/m) @ t=0.32
0.04981082830096639
% es.tEx (V/m) @ t=0.32
-0.019780707410396836
% es.tEy (V/m) @ t=0.32
0
% es.tEz (V/m) @ t=0.32
0.04981082830096817
% V (V) @ t=0.32
0.011446015916940886
% es.normE (V/m) @ t=0.34
0.05443540977948466
% es.EX (V/m) @ t=0.34
-0.019965213194447884
% es.EY (V/m) @ t=0.34
0.006081180313160628
% es.EZ (V/m) @ t=0.34
0.05027547459705861
% es.tEX (V/m) @ t=0.34
-0.019965213194442555
% es.tEY (V/m) @ t=0.34
0
% es.tEZ (V/m) @ t=0.34
0.05027547459705595
% es.Ex (V/m) @ t=0.34
-0.019965213194447884
% es.Ey (V/m) @ t=0.34
0.006081180313160628
% es.Ez (V/m) @ t=0.34
0.05027547459705861
% es.tEx (V/m) @ t=0.34
-0.019965213194442555
% es.tEy (V/m) @ t=0.34
0
% es.tEz (V/m) @ t=0.34
0.05027547459705595
% V (V) @ t=0.34
0.011552809737462439
% es.normE (V/m) @ t=0.36
0.054938497372294476
% es.EX (V/m) @ t=0.36
-0.020149718978483833
% es.EY (V/m) @ t=0.36
0.006137381392972485
% es.EZ (V/m) @ t=0.36
0.050740120893144613
% es.tEX (V/m) @ t=0.36
-0.020149718978482944
% es.tEY (V/m) @ t=0.36
0
% es.tEZ (V/m) @ t=0.36
0.050740120893149054
% es.Ex (V/m) @ t=0.36
-0.020149718978483833
% es.Ey (V/m) @ t=0.36
0.006137381392972485
% es.Ez (V/m) @ t=0.36
0.050740120893144613
% es.tEx (V/m) @ t=0.36
-0.020149718978482944
% es.tEy (V/m) @ t=0.36
0
% es.tEz (V/m) @ t=0.36
0.050740120893149054
% V (V) @ t=0.36
0.011659603557983993
% es.normE (V/m) @ t=0.38
0.05544158496511628
% es.EX (V/m) @ t=0.38
-0.020334224762527775
% es.EY (V/m) @ t=0.38
0.00619358247280577
% es.EZ (V/m) @ t=0.38
0.051204767189235056
% es.tEX (V/m) @ t=0.38
-0.020334224762531328
% es.tEY (V/m) @ t=0.38
0
% es.tEZ (V/m) @ t=0.38
0.05120476718923683
% es.Ex (V/m) @ t=0.38
-0.020334224762527775
% es.Ey (V/m) @ t=0.38
0.00619358247280577
% es.Ez (V/m) @ t=0.38
0.051204767189235056
% es.tEx (V/m) @ t=0.38
-0.020334224762531328
% es.tEy (V/m) @ t=0.38
0
% es.tEz (V/m) @ t=0.38
0.05120476718923683
% V (V) @ t=0.38
0.011766397378505546
% es.normE (V/m) @ t=0.4
0.05594467255792744
% es.EX (V/m) @ t=0.4
-0.020518730546571717
% es.EY (V/m) @ t=0.4
0.006249783552631616
% es.EZ (V/m) @ t=0.4
0.05166941348531218
% es.tEX (V/m) @ t=0.4
-0.02051873054657083
% es.tEY (V/m) @ t=0.4
0
% es.tEZ (V/m) @ t=0.4
0.051669413485317506
% es.Ex (V/m) @ t=0.4
-0.020518730546571717
% es.Ey (V/m) @ t=0.4
0.006249783552631616
% es.Ez (V/m) @ t=0.4
0.05166941348531218
% es.tEx (V/m) @ t=0.4
-0.02051873054657083
% es.tEy (V/m) @ t=0.4
0
% es.tEz (V/m) @ t=0.4
0.051669413485317506
% V (V) @ t=0.4
0.011873191199027102
% es.normE (V/m) @ t=0.42
0.05644776015075343
% es.EX (V/m) @ t=0.42
-0.02070323633061477
% es.EY (V/m) @ t=0.42
0.006305984632439254
% es.EZ (V/m) @ t=0.42
0.052134059781405284
% es.tEX (V/m) @ t=0.42
-0.020703236330616548
% es.tEY (V/m) @ t=0.42
0
% es.tEZ (V/m) @ t=0.42
0.05213405978140351
% es.Ex (V/m) @ t=0.42
-0.02070323633061477
% es.Ey (V/m) @ t=0.42
0.006305984632439254
% es.Ez (V/m) @ t=0.42
0.052134059781405284
% es.tEx (V/m) @ t=0.42
-0.020703236330616548
% es.tEy (V/m) @ t=0.42
0
% es.tEz (V/m) @ t=0.42
0.05213405978140351
% V (V) @ t=0.42
0.011979985019548651
% es.normE (V/m) @ t=0.44
0.05695084774357709
% es.EX (V/m) @ t=0.44
-0.020887742114657826
% es.EY (V/m) @ t=0.44
0.006362185712263546
% es.EZ (V/m) @ t=0.44
0.052598706077491286
% es.tEX (V/m) @ t=0.44
-0.020887742114659602
% es.tEY (V/m) @ t=0.44
0
% es.tEZ (V/m) @ t=0.44
0.05259870607748951
% es.Ex (V/m) @ t=0.44
-0.020887742114657826
% es.Ey (V/m) @ t=0.44
0.006362185712263546
% es.Ez (V/m) @ t=0.44
0.052598706077491286
% es.tEx (V/m) @ t=0.44
-0.020887742114659602
% es.tEy (V/m) @ t=0.44
0
% es.tEz (V/m) @ t=0.44
0.05259870607748951
% V (V) @ t=0.44
0.012086778840070206
% es.normE (V/m) @ t=0.46
0.05751486930698718
% es.EX (V/m) @ t=0.46
-0.021094576372710172
% es.EY (V/m) @ t=0.46
0.00642519268904751
% es.EZ (V/m) @ t=0.46
0.05311963796906305
% es.tEX (V/m) @ t=0.46
-0.021094576372708396
% es.tEY (V/m) @ t=0.46
0
% es.tEZ (V/m) @ t=0.46
0.05311963796906838
% es.Ex (V/m) @ t=0.46
-0.021094576372710172
% es.Ey (V/m) @ t=0.46
0.00642519268904751
% es.Ez (V/m) @ t=0.46
0.05311963796906305
% es.tEx (V/m) @ t=0.46
-0.021094576372708396
% es.tEy (V/m) @ t=0.46
0
% es.tEz (V/m) @ t=0.46
0.05311963796906838
% V (V) @ t=0.46
0.012206547896871735
% es.normE (V/m) @ t=0.48
0.05808197732740166
% es.EX (V/m) @ t=0.48
-0.02130254162343803
% es.EY (V/m) @ t=0.48
0.006488544401400009
% es.EZ (V/m) @ t=0.48
0.05364342086587648
% es.tEX (V/m) @ t=0.48
-0.02130254162343803
% es.tEY (V/m) @ t=0.48
0
% es.tEZ (V/m) @ t=0.48
0.05364342086587648
% es.Ex (V/m) @ t=0.48
-0.02130254162343803
% es.Ey (V/m) @ t=0.48
0.006488544401400009
% es.Ez (V/m) @ t=0.48
0.05364342086587648
% es.tEx (V/m) @ t=0.48
-0.02130254162343803
% es.tEy (V/m) @ t=0.48
0
% es.tEz (V/m) @ t=0.48
0.05364342086587648
% V (V) @ t=0.48
0.012326974181627485
% es.normE (V/m) @ t=0.5
0.05864908534784644
% es.EX (V/m) @ t=0.5
-0.021510506874170332
% es.EY (V/m) @ t=0.5
0.006551896113761058
% es.EZ (V/m) @ t=0.5
0.05416720376269879
% es.tEX (V/m) @ t=0.5
-0.021510506874173885
% es.tEY (V/m) @ t=0.5
0
% es.tEZ (V/m) @ t=0.5
0.054167203762700566
% es.Ex (V/m) @ t=0.5
-0.021510506874170332
% es.Ey (V/m) @ t=0.5
0.006551896113761058
% es.Ez (V/m) @ t=0.5
0.05416720376269879
% es.tEx (V/m) @ t=0.5
-0.021510506874173885
% es.tEy (V/m) @ t=0.5
0
% es.tEz (V/m) @ t=0.5
0.054167203762700566
% V (V) @ t=0.5
0.012447400466383231
% es.normE (V/m) @ t=0.52
0.05921619336829256
% es.EX (V/m) @ t=0.52
-0.02171847212489375
% es.EY (V/m) @ t=0.52
0.00661524782609646
% es.EZ (V/m) @ t=0.52
0.05469098665950867
% es.tEX (V/m) @ t=0.52
-0.021718472124897303
% es.tEY (V/m) @ t=0.52
0
% es.tEZ (V/m) @ t=0.52
0.054690986659513996
% es.Ex (V/m) @ t=0.52
-0.02171847212489375
% es.Ey (V/m) @ t=0.52
0.00661524782609646
% es.Ez (V/m) @ t=0.52
0.05469098665950867
% es.tEx (V/m) @ t=0.52
-0.021718472124897303
% es.tEy (V/m) @ t=0.52
0
% es.tEz (V/m) @ t=0.52
0.054690986659513996
% V (V) @ t=0.52
0.012567826751138983
% es.normE (V/m) @ t=0.54
0.05978330138878525
% es.EX (V/m) @ t=0.54
-0.021926437375634933
% es.EY (V/m) @ t=0.54
0.006678599538478824
% es.EZ (V/m) @ t=0.54
0.05521476955633631
% es.tEX (V/m) @ t=0.54
-0.021926437375633157
% es.tEY (V/m) @ t=0.54
0
% es.tEZ (V/m) @ t=0.54
0.055214769556338084
% es.Ex (V/m) @ t=0.54
-0.021926437375634933
% es.Ey (V/m) @ t=0.54
0.006678599538478824
% es.Ez (V/m) @ t=0.54
0.05521476955633631
% es.tEx (V/m) @ t=0.54
-0.021926437375633157
% es.tEy (V/m) @ t=0.54
0
% es.tEz (V/m) @ t=0.54
0.055214769556338084
% V (V) @ t=0.54
0.012688253035894733
% es.normE (V/m) @ t=0.56
0.060350409409279854
% es.EX (V/m) @ t=0.56
-0.022134402626362792
% es.EY (V/m) @ t=0.56
0.006741951250835321
% es.EZ (V/m) @ t=0.56
0.055738552453155066
% es.tEX (V/m) @ t=0.56
-0.022134402626361016
% es.tEY (V/m) @ t=0.56
0
% es.tEZ (V/m) @ t=0.56
0.05573855245315329
% es.Ex (V/m) @ t=0.56
-0.022134402626362792
% es.Ey (V/m) @ t=0.56
0.006741951250835321
% es.Ez (V/m) @ t=0.56
0.055738552453155066
% es.tEx (V/m) @ t=0.56
-0.022134402626361016
% es.tEy (V/m) @ t=0.56
0
% es.tEz (V/m) @ t=0.56
0.05573855245315329
% V (V) @ t=0.56
0.012808679320650482
% es.normE (V/m) @ t=0.58
0.060917517429790846
% es.EX (V/m) @ t=0.58
-0.02234236787709154
% es.EY (V/m) @ t=0.58
0.006805302963194593
% es.EZ (V/m) @ t=0.58
0.05626233534997205
% es.tEX (V/m) @ t=0.58
-0.022342367877100422
% es.tEY (V/m) @ t=0.58
0
% es.tEZ (V/m) @ t=0.58
0.05626233534997205
% es.Ex (V/m) @ t=0.58
-0.02234236787709154
% es.Ey (V/m) @ t=0.58
0.006805302963194593
% es.Ez (V/m) @ t=0.58
0.05626233534997205
% es.tEx (V/m) @ t=0.58
-0.022342367877100422
% es.tEy (V/m) @ t=0.58
0
% es.tEz (V/m) @ t=0.58
0.05626233534997205
% V (V) @ t=0.58
0.01292910560540623
% es.normE (V/m) @ t=0.6
0.06148462545032248
% es.EX (V/m) @ t=0.6
-0.02255033312782828
% es.EY (V/m) @ t=0.6
0.006868654675561081
% es.EZ (V/m) @ t=0.6
0.05678611824678903
% es.tEX (V/m) @ t=0.6
-0.02255033312782473
% es.tEY (V/m) @ t=0.6
0
% es.tEZ (V/m) @ t=0.6
0.05678611824679436
% es.Ex (V/m) @ t=0.6
-0.02255033312782828
% es.Ey (V/m) @ t=0.6
0.006868654675561081
% es.Ez (V/m) @ t=0.6
0.05678611824678903
% es.tEx (V/m) @ t=0.6
-0.02255033312782473
% es.tEy (V/m) @ t=0.6
0
% es.tEz (V/m) @ t=0.6
0.05678611824679436
% V (V) @ t=0.6
0.013049531890161982
% es.normE (V/m) @ t=0.62
0.062051733470869716
% es.EX (V/m) @ t=0.62
-0.02275829837855703
% es.EY (V/m) @ t=0.62
0.006932006387916911
% es.EZ (V/m) @ t=0.62
0.057309901143609565
% es.tEX (V/m) @ t=0.62
-0.022758298378558806
% es.tEY (V/m) @ t=0.62
0
% es.tEZ (V/m) @ t=0.62
0.05730990114360779
% es.Ex (V/m) @ t=0.62
-0.02275829837855703
% es.Ey (V/m) @ t=0.62
0.006932006387916911
% es.Ez (V/m) @ t=0.62
0.057309901143609565
% es.tEx (V/m) @ t=0.62
-0.022758298378558806
% es.tEy (V/m) @ t=0.62
0
% es.tEz (V/m) @ t=0.62
0.05730990114360779
% V (V) @ t=0.62
0.01316995817491773
% es.normE (V/m) @ t=0.64
0.0626188414914274
% es.EX (V/m) @ t=0.64
-0.02296626362928933
% es.EY (V/m) @ t=0.64
0.006995358100269966
% es.EZ (V/m) @ t=0.64
0.057833684040422995
% es.tEX (V/m) @ t=0.64
-0.022966263629287553
% es.tEY (V/m) @ t=0.64
0
% es.tEZ (V/m) @ t=0.64
0.05783368404041944
% es.Ex (V/m) @ t=0.64
-0.02296626362928933
% es.Ey (V/m) @ t=0.64
0.006995358100269966
% es.Ez (V/m) @ t=0.64
0.057833684040422995
% es.tEx (V/m) @ t=0.64
-0.022966263629287553
% es.tEy (V/m) @ t=0.64
0
% es.tEz (V/m) @ t=0.64
0.05783368404041944
% V (V) @ t=0.64
0.013290384459673482
% es.normE (V/m) @ t=0.66
0.06318594951200504
% es.EX (V/m) @ t=0.66
-0.02317422888001719
% es.EY (V/m) @ t=0.66
0.007058709812633124
% es.EZ (V/m) @ t=0.66
0.05835746693724175
% es.tEX (V/m) @ t=0.66
-0.023174228880015413
% es.tEY (V/m) @ t=0.66
0
% es.tEZ (V/m) @ t=0.66
0.0583574669372382
% es.Ex (V/m) @ t=0.66
-0.02317422888001719
% es.Ey (V/m) @ t=0.66
0.007058709812633124
% es.Ez (V/m) @ t=0.66
0.05835746693724175
% es.tEx (V/m) @ t=0.66
-0.023174228880015413
% es.tEy (V/m) @ t=0.66
0
% es.tEz (V/m) @ t=0.66
0.0583574669372382
% V (V) @ t=0.66
0.01341081074442923
% es.normE (V/m) @ t=0.68
0.06375305753259626
% es.EX (V/m) @ t=0.68
-0.02338219413074949
% es.EY (V/m) @ t=0.68
0.007122061524996837
% es.EZ (V/m) @ t=0.68
0.05888124983405696
% es.tEX (V/m) @ t=0.68
-0.02338219413075482
% es.tEY (V/m) @ t=0.68
0
% es.tEZ (V/m) @ t=0.68
0.058881249834058735
% es.Ex (V/m) @ t=0.68
-0.02338219413074949
% es.Ey (V/m) @ t=0.68
0.007122061524996837
% es.Ez (V/m) @ t=0.68
0.05888124983405696
% es.tEx (V/m) @ t=0.68
-0.02338219413075482
% es.tEy (V/m) @ t=0.68
0
% es.tEz (V/m) @ t=0.68
0.058881249834058735
% V (V) @ t=0.68
0.013531237029184982
% es.normE (V/m) @ t=0.7
0.06432016555321307
% es.EX (V/m) @ t=0.7
-0.023590159381478237
% es.EY (V/m) @ t=0.7
0.007185413237366434
% es.EZ (V/m) @ t=0.7
0.0594050327308846
% es.tEX (V/m) @ t=0.7
-0.023590159381480014
% es.tEY (V/m) @ t=0.7
0
% es.tEZ (V/m) @ t=0.7
0.05940503273088282
% es.Ex (V/m) @ t=0.7
-0.023590159381478237
% es.Ey (V/m) @ t=0.7
0.007185413237366434
% es.Ez (V/m) @ t=0.7
0.0594050327308846
% es.tEx (V/m) @ t=0.7
-0.023590159381480014
% es.tEy (V/m) @ t=0.7
0
% es.tEz (V/m) @ t=0.7
0.05940503273088282
% V (V) @ t=0.7
0.01365166331394073
% es.normE (V/m) @ t=0.72
0.0648872735738289
% es.EX (V/m) @ t=0.72
-0.02379812463221409
% es.EY (V/m) @ t=0.72
0.007248764949722153
% es.EZ (V/m) @ t=0.72
0.059928815627694476
% es.tEX (V/m) @ t=0.72
-0.02379812463220876
% es.tEY (V/m) @ t=0.72
0
% es.tEZ (V/m) @ t=0.72
0.059928815627699805
% es.Ex (V/m) @ t=0.72
-0.02379812463221409
% es.Ey (V/m) @ t=0.72
0.007248764949722153
% es.Ez (V/m) @ t=0.72
0.059928815627694476
% es.tEx (V/m) @ t=0.72
-0.02379812463220876
% es.tEy (V/m) @ t=0.72
0
% es.tEz (V/m) @ t=0.72
0.059928815627699805
% V (V) @ t=0.72
0.013772089598696483
% es.normE (V/m) @ t=0.74
0.06547120090935453
% es.EX (V/m) @ t=0.74
-0.024012267650827646
% es.EY (V/m) @ t=0.74
0.007313996168670345
% es.EZ (V/m) @ t=0.74
0.06046812888475017
% es.tEX (V/m) @ t=0.74
-0.02401226765082143
% es.tEY (V/m) @ t=0.74
0
% es.tEZ (V/m) @ t=0.74
0.06046812888475728
% es.Ex (V/m) @ t=0.74
-0.024012267650827646
% es.Ey (V/m) @ t=0.74
0.007313996168670345
% es.Ez (V/m) @ t=0.74
0.06046812888475017
% es.tEx (V/m) @ t=0.74
-0.02401226765082143
% es.tEy (V/m) @ t=0.74
0
% es.tEz (V/m) @ t=0.74
0.06046812888475728
% V (V) @ t=0.74
0.013896066247536178
% es.normE (V/m) @ t=0.76
0.06610386336767876
% es.EX (V/m) @ t=0.76
-0.02424431117716619
% es.EY (V/m) @ t=0.76
0.007384673387378582
% es.EZ (V/m) @ t=0.76
0.06105244242976049
% es.tEX (V/m) @ t=0.76
-0.024244311177164413
% es.tEY (V/m) @ t=0.76
0
% es.tEZ (V/m) @ t=0.76
0.06105244242975871
% es.Ex (V/m) @ t=0.76
-0.02424431117716619
% es.Ey (V/m) @ t=0.76
0.007384673387378582
% es.Ez (V/m) @ t=0.76
0.06105244242976049
% es.tEx (V/m) @ t=0.76
-0.024244311177164413
% es.tEy (V/m) @ t=0.76
0
% es.tEz (V/m) @ t=0.76
0.06105244242975871
% V (V) @ t=0.76
0.01403033032072815
% es.normE (V/m) @ t=0.78
0.06673652582600759
% es.EX (V/m) @ t=0.78
-0.02447635470351095
% es.EY (V/m) @ t=0.78
0.0074553506060835995
% es.EZ (V/m) @ t=0.78
0.061636755974772583
% es.tEX (V/m) @ t=0.78
-0.024476354703508285
% es.tEY (V/m) @ t=0.78
0
% es.tEZ (V/m) @ t=0.78
0.06163675597477081
% es.Ex (V/m) @ t=0.78
-0.02447635470351095
% es.Ey (V/m) @ t=0.78
0.0074553506060835995
% es.Ez (V/m) @ t=0.78
0.061636755974772583
% es.tEx (V/m) @ t=0.78
-0.024476354703508285
% es.tEy (V/m) @ t=0.78
0
% es.tEz (V/m) @ t=0.78
0.06163675597477081
% V (V) @ t=0.78
0.014164594393920113
% es.normE (V/m) @ t=0.8
0.06736918828432123
% es.EX (V/m) @ t=0.8
-0.024708398229844164
% es.EY (V/m) @ t=0.8
0.007526027824798942
% es.EZ (V/m) @ t=0.8
0.06222106951977047
% es.tEX (V/m) @ t=0.8
-0.024708398229849493
% es.tEY (V/m) @ t=0.8
0
% es.tEZ (V/m) @ t=0.8
0.06222106951976869
% es.Ex (V/m) @ t=0.8
-0.024708398229844164
% es.Ey (V/m) @ t=0.8
0.007526027824798942
% es.Ez (V/m) @ t=0.8
0.06222106951977047
% es.tEx (V/m) @ t=0.8
-0.024708398229849493
% es.tEy (V/m) @ t=0.8
0
% es.tEz (V/m) @ t=0.8
0.06222106951976869
% V (V) @ t=0.8
0.014298858467112081
% es.normE (V/m) @ t=0.82
0.06800185074264922
% es.EX (V/m) @ t=0.82
-0.024940441756192477
% es.EY (V/m) @ t=0.82
0.007596705043511065
% es.EZ (V/m) @ t=0.82
0.06280538306477723
% es.tEX (V/m) @ t=0.82
-0.024940441756184484
% es.tEY (V/m) @ t=0.82
0
% es.tEZ (V/m) @ t=0.82
0.06280538306478256
% es.Ex (V/m) @ t=0.82
-0.024940441756192477
% es.Ey (V/m) @ t=0.82
0.007596705043511065
% es.Ez (V/m) @ t=0.82
0.06280538306477723
% es.tEx (V/m) @ t=0.82
-0.024940441756184484
% es.tEy (V/m) @ t=0.82
0
% es.tEz (V/m) @ t=0.82
0.06280538306478256
% V (V) @ t=0.82
0.014433122540304048
% es.normE (V/m) @ t=0.84
0.06863451320096561
% es.EX (V/m) @ t=0.84
-0.02517248528253546
% es.EY (V/m) @ t=0.84
0.007667382262216305
% es.EZ (V/m) @ t=0.84
0.06338969660977334
% es.tEX (V/m) @ t=0.84
-0.025172485282537238
% es.tEY (V/m) @ t=0.84
0
% es.tEZ (V/m) @ t=0.84
0.06338969660977867
% es.Ex (V/m) @ t=0.84
-0.02517248528253546
% es.Ey (V/m) @ t=0.84
0.007667382262216305
% es.Ez (V/m) @ t=0.84
0.06338969660977334
% es.tEx (V/m) @ t=0.84
-0.025172485282537238
% es.tEy (V/m) @ t=0.84
0
% es.tEz (V/m) @ t=0.84
0.06338969660977867
% V (V) @ t=0.84
0.014567386613496016
% es.normE (V/m) @ t=0.86
0.06926717565929286
% es.EX (V/m) @ t=0.86
-0.02540452880887667
% es.EY (V/m) @ t=0.86
0.0077380594809279835
% es.EZ (V/m) @ t=0.86
0.0639740101547801
% es.tEX (V/m) @ t=0.86
-0.02540452880888111
% es.tEY (V/m) @ t=0.86
0
% es.tEZ (V/m) @ t=0.86
0.06397401015478543
% es.Ex (V/m) @ t=0.86
-0.02540452880887667
% es.Ey (V/m) @ t=0.86
0.0077380594809279835
% es.Ez (V/m) @ t=0.86
0.0639740101547801
% es.tEx (V/m) @ t=0.86
-0.02540452880888111
% es.tEy (V/m) @ t=0.86
0
% es.tEz (V/m) @ t=0.86
0.06397401015478543
% V (V) @ t=0.86
0.014701650686687986
% es.normE (V/m) @ t=0.88
0.0698998381176183
% es.EX (V/m) @ t=0.88
-0.02563657233521699
% es.EY (V/m) @ t=0.88
0.007808736699633112
% es.EZ (V/m) @ t=0.88
0.06455832369978509
% es.tEX (V/m) @ t=0.88
-0.025636572335220542
% es.tEY (V/m) @ t=0.88
0
% es.tEZ (V/m) @ t=0.88
0.06455832369979042
% es.Ex (V/m) @ t=0.88
-0.02563657233521699
% es.Ey (V/m) @ t=0.88
0.007808736699633112
% es.Ez (V/m) @ t=0.88
0.06455832369978509
% es.tEx (V/m) @ t=0.88
-0.025636572335220542
% es.tEy (V/m) @ t=0.88
0
% es.tEz (V/m) @ t=0.88
0.06455832369979042
% V (V) @ t=0.88
0.014835914759879951
% es.normE (V/m) @ t=0.9
0.070532500575944
% es.EX (V/m) @ t=0.9
-0.025868615861563526
% es.EY (V/m) @ t=0.9
0.007879413918341682
% es.EZ (V/m) @ t=0.9
0.06514263724478653
% es.tEX (V/m) @ t=0.9
-0.025868615861560862
% es.tEY (V/m) @ t=0.9
0
% es.tEZ (V/m) @ t=0.9
0.06514263724479186
% es.Ex (V/m) @ t=0.9
-0.025868615861563526
% es.Ey (V/m) @ t=0.9
0.007879413918341682
% es.Ez (V/m) @ t=0.9
0.06514263724478653
% es.tEx (V/m) @ t=0.9
-0.025868615861560862
% es.tEy (V/m) @ t=0.9
0
% es.tEz (V/m) @ t=0.9
0.06514263724479186
% V (V) @ t=0.9
0.01497017883307192
% es.normE (V/m) @ t=0.92
0.07116516303427613
% es.EX (V/m) @ t=0.92
-0.026100659387902958
% es.EY (V/m) @ t=0.92
0.007950091137049808
% es.EZ (V/m) @ t=0.92
0.06572695078979685
% es.tEX (V/m) @ t=0.92
-0.026100659387904734
% es.tEY (V/m) @ t=0.92
0
% es.tEZ (V/m) @ t=0.92
0.06572695078979507
% es.Ex (V/m) @ t=0.92
-0.026100659387902958
% es.Ey (V/m) @ t=0.92
0.007950091137049808
% es.Ez (V/m) @ t=0.92
0.06572695078979685
% es.tEx (V/m) @ t=0.92
-0.026100659387904734
% es.tEy (V/m) @ t=0.92
0
% es.tEz (V/m) @ t=0.92
0.06572695078979507
% V (V) @ t=0.92
0.01510444290626389
% es.normE (V/m) @ t=0.94
0.07179782549260041
% es.EX (V/m) @ t=0.94
-0.026332702914238837
% es.EY (V/m) @ t=0.94
0.00802076835575083
% es.EZ (V/m) @ t=0.94
0.06631126433480006
% es.tEX (V/m) @ t=0.94
-0.026332702914240613
% es.tEY (V/m) @ t=0.94
0
% es.tEZ (V/m) @ t=0.94
0.06631126433479828
% es.Ex (V/m) @ t=0.94
-0.026332702914238837
% es.Ey (V/m) @ t=0.94
0.00802076835575083
% es.Ez (V/m) @ t=0.94
0.06631126433480006
% es.tEx (V/m) @ t=0.94
-0.026332702914240613
% es.tEy (V/m) @ t=0.94
0
% es.tEz (V/m) @ t=0.94
0.06631126433479828
% V (V) @ t=0.94
0.015238706979455853
% es.normE (V/m) @ t=0.96
0.07243048795094056
% es.EX (V/m) @ t=0.96
-0.026564746440589815
% es.EY (V/m) @ t=0.96
0.008091445574463507
% es.EZ (V/m) @ t=0.96
0.06689557787981215
% es.tEX (V/m) @ t=0.96
-0.02656474644058804
% es.tEY (V/m) @ t=0.96
0
% es.tEZ (V/m) @ t=0.96
0.06689557787981393
% es.Ex (V/m) @ t=0.96
-0.026564746440589815
% es.Ey (V/m) @ t=0.96
0.008091445574463507
% es.Ez (V/m) @ t=0.96
0.06689557787981215
% es.tEx (V/m) @ t=0.96
-0.02656474644058804
% es.tEy (V/m) @ t=0.96
0
% es.tEz (V/m) @ t=0.96
0.06689557787981393
% V (V) @ t=0.96
0.015372971052647821
% es.normE (V/m) @ t=0.98
0.07306315040926474
% es.EX (V/m) @ t=0.98
-0.026796789966931023
% es.EY (V/m) @ t=0.98
0.00816212279317563
% es.EZ (V/m) @ t=0.98
0.06747989142481003
% es.tEX (V/m) @ t=0.98
-0.0267967899669328
% es.tEY (V/m) @ t=0.98
0
% es.tEZ (V/m) @ t=0.98
0.06747989142480826
% es.Ex (V/m) @ t=0.98
-0.026796789966931023
% es.Ey (V/m) @ t=0.98
0.00816212279317563
% es.Ez (V/m) @ t=0.98
0.06747989142481003
% es.tEx (V/m) @ t=0.98
-0.0267967899669328
% es.tEy (V/m) @ t=0.98
0
% es.tEz (V/m) @ t=0.98
0.06747989142480826
% V (V) @ t=0.98
0.015507235125839788
% es.normE (V/m) @ t=1
0.07369810578013986
% es.EX (V/m) @ t=1
-0.02702967566910619
% es.EY (V/m) @ t=1
0.008233056236935599
% es.EZ (V/m) @ t=1
0.0680663221703881
% es.tEX (V/m) @ t=1
-0.027029675669107966
% es.tEY (V/m) @ t=1
0
% es.tEZ (V/m) @ t=1
0.06806632217038633
% es.Ex (V/m) @ t=1
-0.02702967566910619
% es.Ey (V/m) @ t=1
0.008233056236935599
% es.Ez (V/m) @ t=1
0.0680663221703881
% es.tEx (V/m) @ t=1
-0.027029675669107966
% es.tEy (V/m) @ t=1
0