% Model:              1 neuron.mph
% Version:            COMSOL 6.1.0.252
% Date:               Mar 26 2023, 14:44
% Dimension:          0
% Nodes:              14017
% Expressions:        14017
% Description:        Electric field norm, Electric field, X component, Electric field, Y component, Electric field, Z component, Tangential electric field, X component, Tangential electric field, Y component, Tangential electric field, Z component, Electric field, x component, Electric field, y component, Electric field, z component, Tangential electric field, x component, Tangential electric field, y component, Tangential electric field, z component, Electric potential
% Length unit:        mm
% x
1.33
% y
14.200000000000001
% z
1.6599999999999997
% es.normE (V/m) @ t=0
0.0235731196331762
% es.EX (V/m) @ t=0
0.014416204445975911
% es.EY (V/m) @ t=0
0.01115760762710405
% es.EZ (V/m) @ t=0
-0.014945661934201881
% es.tEX (V/m) @ t=0
0.014416204445975023
% es.tEY (V/m) @ t=0
0
% es.tEZ (V/m) @ t=0
-0.014945661934201437
% es.Ex (V/m) @ t=0
0.014416204445975911
% es.Ey (V/m) @ t=0
0.01115760762710405
% es.Ez (V/m) @ t=0
-0.014945661934201881
% es.tEx (V/m) @ t=0
0.014416204445975023
% es.tEy (V/m) @ t=0
0
% es.tEz (V/m) @ t=0
-0.014945661934201437
% V (V) @ t=0
0.011007967788950222
% es.normE (V/m) @ t=0.02
0.02158804868392944
% es.EX (V/m) @ t=0.02
0.013202229278565625
% es.EY (V/m) @ t=0.02
0.010218035984294715
% es.EZ (V/m) @ t=0.02
-0.013687100813523312
% es.tEX (V/m) @ t=0.02
0.013202229278566069
% es.tEY (V/m) @ t=0.02
0
% es.tEZ (V/m) @ t=0.02
-0.013687100813522868
% es.Ex (V/m) @ t=0.02
0.013202229278565625
% es.Ey (V/m) @ t=0.02
0.010218035984294715
% es.Ez (V/m) @ t=0.02
-0.013687100813523312
% es.tEx (V/m) @ t=0.02
0.013202229278566069
% es.tEy (V/m) @ t=0.02
0
% es.tEz (V/m) @ t=0.02
-0.013687100813522868
% V (V) @ t=0.02
0.010080996973672098
% es.normE (V/m) @ t=0.04
0.021786160611212108
% es.EX (V/m) @ t=0.04
0.013323385444714564
% es.EY (V/m) @ t=0.04
0.010311806482011576
% es.EZ (V/m) @ t=0.04
-0.013812705801060199
% es.tEX (V/m) @ t=0.04
0.013323385444715008
% es.tEY (V/m) @ t=0.04
0
% es.tEZ (V/m) @ t=0.04
-0.01381270580105931
% es.Ex (V/m) @ t=0.04
0.013323385444714564
% es.Ey (V/m) @ t=0.04
0.010311806482011576
% es.Ez (V/m) @ t=0.04
-0.013812705801060199
% es.tEx (V/m) @ t=0.04
0.013323385444715008
% es.tEy (V/m) @ t=0.04
0
% es.tEz (V/m) @ t=0.04
-0.01381270580105931
% V (V) @ t=0.04
0.010173509669538752
% es.normE (V/m) @ t=0.06
0.021986593041562398
% es.EX (V/m) @ t=0.06
0.013445961415258445
% es.EY (V/m) @ t=0.06
0.010406676140190196
% es.EZ (V/m) @ t=0.06
-0.013939780733851492
% es.tEX (V/m) @ t=0.06
0.013445961415258889
% es.tEY (V/m) @ t=0.06
0
% es.tEZ (V/m) @ t=0.06
-0.013939780733848828
% es.Ex (V/m) @ t=0.06
0.013445961415258445
% es.Ey (V/m) @ t=0.06
0.010406676140190196
% es.Ez (V/m) @ t=0.06
-0.013939780733851492
% es.tEx (V/m) @ t=0.06
0.013445961415258889
% es.tEy (V/m) @ t=0.06
0
% es.tEz (V/m) @ t=0.06
-0.013939780733848828
% V (V) @ t=0.06
0.01026710629512951
% es.normE (V/m) @ t=0.08
0.02218885011710034
% es.EX (V/m) @ t=0.08
0.013569652206558036
% es.EY (V/m) @ t=0.08
0.010502408207010205
% es.EZ (V/m) @ t=0.08
-0.014068014442895738
% es.tEX (V/m) @ t=0.08
0.013569652206558924
% es.tEY (V/m) @ t=0.08
0
% es.tEZ (V/m) @ t=0.08
-0.014068014442895294
% es.Ex (V/m) @ t=0.08
0.013569652206558036
% es.Ey (V/m) @ t=0.08
0.010502408207010205
% es.Ez (V/m) @ t=0.08
-0.014068014442895738
% es.tEx (V/m) @ t=0.08
0.013569652206558924
% es.tEy (V/m) @ t=0.08
0
% es.tEz (V/m) @ t=0.08
-0.014068014442895294
% V (V) @ t=0.08
0.010361554495272601
% es.normE (V/m) @ t=0.1
0.022394977872950098
% es.EX (V/m) @ t=0.1
0.01369570790407737
% es.EY (V/m) @ t=0.1
0.010599969729884418
% es.EZ (V/m) @ t=0.1
-0.014198706302394282
% es.tEX (V/m) @ t=0.1
0.01369570790408181
% es.tEY (V/m) @ t=0.1
0
% es.tEZ (V/m) @ t=0.1
-0.014198706302393838
% es.Ex (V/m) @ t=0.1
0.01369570790407737
% es.Ey (V/m) @ t=0.1
0.010599969729884418
% es.Ez (V/m) @ t=0.1
-0.014198706302394282
% es.tEx (V/m) @ t=0.1
0.01369570790408181
% es.tEy (V/m) @ t=0.1
0
% es.tEz (V/m) @ t=0.1
-0.014198706302393838
% V (V) @ t=0.1
0.010457809168734969
% es.normE (V/m) @ t=0.12
0.022601105628802222
% es.EX (V/m) @ t=0.12
0.013821763601594483
% es.EY (V/m) @ t=0.12
0.010697531252756853
% es.EZ (V/m) @ t=0.12
-0.014329398161897933
% es.tEX (V/m) @ t=0.12
0.013821763601595372
% es.tEY (V/m) @ t=0.12
0
% es.tEZ (V/m) @ t=0.12
-0.014329398161897489
% es.Ex (V/m) @ t=0.12
0.013821763601594483
% es.Ey (V/m) @ t=0.12
0.010697531252756853
% es.Ez (V/m) @ t=0.12
-0.014329398161897933
% es.tEx (V/m) @ t=0.12
0.013821763601595372
% es.tEy (V/m) @ t=0.12
0
% es.tEz (V/m) @ t=0.12
-0.014329398161897489
% V (V) @ t=0.12
0.010554063842197333
% es.normE (V/m) @ t=0.14
0.02280723338465102
% es.EX (V/m) @ t=0.14
0.013947819299114705
% es.EY (V/m) @ t=0.14
0.010795092775622628
% es.EZ (V/m) @ t=0.14
-0.014460090021396255
% es.tEX (V/m) @ t=0.14
0.013947819299118702
% es.tEY (V/m) @ t=0.14
0
% es.tEZ (V/m) @ t=0.14
-0.014460090021394034
% es.Ex (V/m) @ t=0.14
0.013947819299114705
% es.Ey (V/m) @ t=0.14
0.010795092775622628
% es.Ez (V/m) @ t=0.14
-0.014460090021396255
% es.tEx (V/m) @ t=0.14
0.013947819299118702
% es.tEy (V/m) @ t=0.14
0
% es.tEz (V/m) @ t=0.14
-0.014460090021394034
% V (V) @ t=0.14
0.010650318515659698
% es.normE (V/m) @ t=0.16
0.02302113170602087
% es.EX (V/m) @ t=0.16
0.014078641191006103
% es.EY (V/m) @ t=0.16
0.01089634872709544
% es.EZ (V/m) @ t=0.16
-0.014595682637629226
% es.tEX (V/m) @ t=0.16
0.014078641191010544
% es.tEY (V/m) @ t=0.16
0
% es.tEZ (V/m) @ t=0.16
-0.014595682637627005
% es.Ex (V/m) @ t=0.16
0.014078641191006103
% es.Ey (V/m) @ t=0.16
0.01089634872709544
% es.Ez (V/m) @ t=0.16
-0.014595682637629226
% es.tEx (V/m) @ t=0.16
0.014078641191010544
% es.tEy (V/m) @ t=0.16
0
% es.tEz (V/m) @ t=0.16
-0.014595682637627005
% V (V) @ t=0.16
0.010750208280151228
% es.normE (V/m) @ t=0.18
0.023239285705665396
% es.EX (V/m) @ t=0.18
0.01421207336776531
% es.EY (V/m) @ t=0.18
0.010999627993224514
% es.EZ (V/m) @ t=0.18
-0.014733959234010108
% es.tEX (V/m) @ t=0.18
0.014212073367766198
% es.tEY (V/m) @ t=0.18
0
% es.tEZ (V/m) @ t=0.18
-0.014733959234009664
% es.Ex (V/m) @ t=0.18
0.01421207336776531
% es.Ey (V/m) @ t=0.18
0.010999627993224514
% es.Ez (V/m) @ t=0.18
-0.014733959234010108
% es.tEx (V/m) @ t=0.18
0.014212073367766198
% es.tEy (V/m) @ t=0.18
0
% es.tEz (V/m) @ t=0.18
-0.014733959234009664
% V (V) @ t=0.18
0.01085208886213102
% es.normE (V/m) @ t=0.2
0.023457439705414373
% es.EX (V/m) @ t=0.2
0.014345505544525405
% es.EY (V/m) @ t=0.2
0.011102907259371797
% es.EZ (V/m) @ t=0.2
-0.01487223583039654
% es.tEX (V/m) @ t=0.2
0.014345505544529846
% es.tEY (V/m) @ t=0.2
0
% es.tEZ (V/m) @ t=0.2
-0.014872235830396097
% es.Ex (V/m) @ t=0.2
0.014345505544525405
% es.Ey (V/m) @ t=0.2
0.011102907259371797
% es.Ez (V/m) @ t=0.2
-0.01487223583039654
% es.tEx (V/m) @ t=0.2
0.014345505544529846
% es.tEy (V/m) @ t=0.2
0
% es.tEz (V/m) @ t=0.2
-0.014872235830396097
% V (V) @ t=0.2
0.010953969444110813
% es.normE (V/m) @ t=0.22
0.02367559370524958
% es.EX (V/m) @ t=0.22
0.014478937721288165
% es.EY (V/m) @ t=0.22
0.011206186525512862
% es.EZ (V/m) @ t=0.22
-0.01501051242678031
% es.tEX (V/m) @ t=0.22
0.014478937721292606
% es.tEY (V/m) @ t=0.22
0
% es.tEZ (V/m) @ t=0.22
-0.015010512426779865
% es.Ex (V/m) @ t=0.22
0.014478937721288165
% es.Ey (V/m) @ t=0.22
0.011206186525512862
% es.Ez (V/m) @ t=0.22
-0.01501051242678031
% es.tEx (V/m) @ t=0.22
0.014478937721292606
% es.tEy (V/m) @ t=0.22
0
% es.tEz (V/m) @ t=0.22
-0.015010512426779865
% V (V) @ t=0.22
0.011055850026090604
% es.normE (V/m) @ t=0.24
0.023893747705178735
% es.EX (V/m) @ t=0.24
0.014612369898054034
% es.EY (V/m) @ t=0.24
0.011309465791660589
% es.EZ (V/m) @ t=0.24
-0.015148789023167408
% es.tEX (V/m) @ t=0.24
0.014612369898054478
% es.tEY (V/m) @ t=0.24
0
% es.tEZ (V/m) @ t=0.24
-0.015148789023165188
% es.Ex (V/m) @ t=0.24
0.014612369898054034
% es.Ey (V/m) @ t=0.24
0.011309465791660589
% es.Ez (V/m) @ t=0.24
-0.015148789023167408
% es.tEx (V/m) @ t=0.24
0.014612369898054478
% es.tEy (V/m) @ t=0.24
0
% es.tEz (V/m) @ t=0.24
-0.015148789023165188
% V (V) @ t=0.24
0.011157730608070397
% es.normE (V/m) @ t=0.26
0.02411190170517335
% es.EX (V/m) @ t=0.26
0.014745802074803915
% es.EY (V/m) @ t=0.26
0.011412745057798102
% es.EZ (V/m) @ t=0.26
-0.015287065619547624
% es.tEX (V/m) @ t=0.26
0.014745802074804804
% es.tEY (V/m) @ t=0.26
0
% es.tEZ (V/m) @ t=0.26
-0.015287065619545404
% es.Ex (V/m) @ t=0.26
0.014745802074803915
% es.Ey (V/m) @ t=0.26
0.011412745057798102
% es.Ez (V/m) @ t=0.26
-0.015287065619547624
% es.tEx (V/m) @ t=0.26
0.014745802074804804
% es.tEy (V/m) @ t=0.26
0
% es.tEz (V/m) @ t=0.26
-0.015287065619545404
% V (V) @ t=0.26
0.01125961119005019
% es.normE (V/m) @ t=0.28
0.024330055705269138
% es.EX (V/m) @ t=0.28
0.01487923425157156
% es.EY (V/m) @ t=0.28
0.011516024323941831
% es.EZ (V/m) @ t=0.28
-0.015425342215936055
% es.tEX (V/m) @ t=0.28
0.014879234251575557
% es.tEY (V/m) @ t=0.28
0
% es.tEZ (V/m) @ t=0.28
-0.015425342215935611
% es.Ex (V/m) @ t=0.28
0.01487923425157156
% es.Ey (V/m) @ t=0.28
0.011516024323941831
% es.Ez (V/m) @ t=0.28
-0.015425342215936055
% es.tEx (V/m) @ t=0.28
0.014879234251575557
% es.tEy (V/m) @ t=0.28
0
% es.tEz (V/m) @ t=0.28
-0.015425342215935611
% V (V) @ t=0.28
0.011361491772029983
% es.normE (V/m) @ t=0.3
0.02455211985383078
% es.EX (V/m) @ t=0.3
0.015015037335110115
% es.EY (V/m) @ t=0.3
0.011621130534351654
% es.EZ (V/m) @ t=0.3
-0.015566135302176987
% es.tEX (V/m) @ t=0.3
0.01501503733511056
% es.tEY (V/m) @ t=0.3
0
% es.tEZ (V/m) @ t=0.3
-0.015566135302176543
% es.Ex (V/m) @ t=0.3
0.015015037335110115
% es.Ey (V/m) @ t=0.3
0.011621130534351654
% es.Ez (V/m) @ t=0.3
-0.015566135302176987
% es.tEx (V/m) @ t=0.3
0.01501503733511056
% es.tEy (V/m) @ t=0.3
0
% es.tEz (V/m) @ t=0.3
-0.015566135302176543
% V (V) @ t=0.3
0.011465188942163619
% es.normE (V/m) @ t=0.32
0.024783410574373412
% es.EX (V/m) @ t=0.32
0.01515643492272467
% es.EY (V/m) @ t=0.32
0.01173054768907189
% es.EZ (V/m) @ t=0.32
-0.015712866417225912
% es.tEX (V/m) @ t=0.32
0.015156434922726891
% es.tEY (V/m) @ t=0.32
0
% es.tEZ (V/m) @ t=0.32
-0.015712866417227245
% es.Ex (V/m) @ t=0.32
0.01515643492272467
% es.Ey (V/m) @ t=0.32
0.01173054768907189
% es.Ez (V/m) @ t=0.32
-0.015712866417225912
% es.tEx (V/m) @ t=0.32
0.015156434922726891
% es.tEy (V/m) @ t=0.32
0
% es.tEz (V/m) @ t=0.32
-0.015712866417227245
% V (V) @ t=0.32
0.011573172619856752
% es.normE (V/m) @ t=0.34
0.025014701295489054
% es.EX (V/m) @ t=0.34
0.015297832510338782
% es.EY (V/m) @ t=0.34
0.011839964843807671
% es.EZ (V/m) @ t=0.34
-0.015859597532269287
% es.tEX (V/m) @ t=0.34
0.015297832510341447
% es.tEY (V/m) @ t=0.34
0
% es.tEZ (V/m) @ t=0.34
-0.015859597532268843
% es.Ex (V/m) @ t=0.34
0.015297832510338782
% es.Ey (V/m) @ t=0.34
0.011839964843807671
% es.Ez (V/m) @ t=0.34
-0.015859597532269287
% es.tEx (V/m) @ t=0.34
0.015297832510341447
% es.tEy (V/m) @ t=0.34
0
% es.tEz (V/m) @ t=0.34
-0.015859597532268843
% V (V) @ t=0.34
0.01168115629754988
% es.normE (V/m) @ t=0.36
0.025245992017162308
% es.EX (V/m) @ t=0.36
0.015439230097949785
% es.EY (V/m) @ t=0.36
0.011949381998540343
% es.EZ (V/m) @ t=0.36
-0.016006328647323986
% es.tEX (V/m) @ t=0.36
0.01543923009795245
% es.tEY (V/m) @ t=0.36
0
% es.tEZ (V/m) @ t=0.36
-0.016006328647321766
% es.Ex (V/m) @ t=0.36
0.015439230097949785
% es.Ey (V/m) @ t=0.36
0.011949381998540343
% es.Ez (V/m) @ t=0.36
-0.016006328647323986
% es.tEx (V/m) @ t=0.36
0.01543923009795245
% es.tEy (V/m) @ t=0.36
0
% es.tEz (V/m) @ t=0.36
-0.016006328647321766
% V (V) @ t=0.36
0.01178913997524301
% es.normE (V/m) @ t=0.38
0.025477282739366905
% es.EX (V/m) @ t=0.38
0.015580627685567894
% es.EY (V/m) @ t=0.38
0.01205879915325836
% es.EZ (V/m) @ t=0.38
-0.016153059762371136
% es.tEX (V/m) @ t=0.38
0.015580627685570558
% es.tEY (V/m) @ t=0.38
0
% es.tEZ (V/m) @ t=0.38
-0.016153059762370692
% es.Ex (V/m) @ t=0.38
0.015580627685567894
% es.Ey (V/m) @ t=0.38
0.01205879915325836
% es.Ez (V/m) @ t=0.38
-0.016153059762371136
% es.tEx (V/m) @ t=0.38
0.015580627685570558
% es.tEy (V/m) @ t=0.38
0
% es.tEz (V/m) @ t=0.38
-0.016153059762370692
% V (V) @ t=0.38
0.01189712365293614
% es.normE (V/m) @ t=0.4
0.02570857346210816
% es.EX (V/m) @ t=0.4
0.015722025273181117
% es.EY (V/m) @ t=0.4
0.012168216308014124
% es.EZ (V/m) @ t=0.4
-0.01629979087741451
% es.tEX (V/m) @ t=0.4
0.01572202527318156
% es.tEY (V/m) @ t=0.4
0
% es.tEZ (V/m) @ t=0.4
-0.016299790877414067
% es.Ex (V/m) @ t=0.4
0.015722025273181117
% es.Ey (V/m) @ t=0.4
0.012168216308014124
% es.Ez (V/m) @ t=0.4
-0.01629979087741451
% es.tEx (V/m) @ t=0.4
0.01572202527318156
% es.tEy (V/m) @ t=0.4
0
% es.tEz (V/m) @ t=0.4
-0.016299790877414067
% V (V) @ t=0.4
0.01200510733062927
% es.normE (V/m) @ t=0.42
0.025939864185359058
% es.EX (V/m) @ t=0.42
0.015863422860797005
% es.EY (V/m) @ t=0.42
0.012277633462753457
% es.EZ (V/m) @ t=0.42
-0.016446521992466767
% es.tEX (V/m) @ t=0.42
0.015863422860801002
% es.tEY (V/m) @ t=0.42
0
% es.tEZ (V/m) @ t=0.42
-0.016446521992464547
% es.Ex (V/m) @ t=0.42
0.015863422860797005
% es.Ey (V/m) @ t=0.42
0.012277633462753457
% es.Ez (V/m) @ t=0.42
-0.016446521992466767
% es.tEx (V/m) @ t=0.42
0.015863422860801002
% es.tEy (V/m) @ t=0.42
0
% es.tEz (V/m) @ t=0.42
-0.016446521992464547
% V (V) @ t=0.42
0.0121130910083224
% es.normE (V/m) @ t=0.44
0.026171154909093875
% es.EX (V/m) @ t=0.44
0.016004820448409784
% es.EY (V/m) @ t=0.44
0.012387050617478579
% es.EZ (V/m) @ t=0.44
-0.016593253107512584
% es.tEX (V/m) @ t=0.44
0.016004820448410673
% es.tEY (V/m) @ t=0.44
0
% es.tEZ (V/m) @ t=0.44
-0.016593253107512584
% es.Ex (V/m) @ t=0.44
0.016004820448409784
% es.Ey (V/m) @ t=0.44
0.012387050617478579
% es.Ez (V/m) @ t=0.44
-0.016593253107512584
% es.tEx (V/m) @ t=0.44
0.016004820448410673
% es.tEy (V/m) @ t=0.44
0
% es.tEz (V/m) @ t=0.44
-0.016593253107512584
% V (V) @ t=0.44
0.01222107468601553
% es.normE (V/m) @ t=0.46
0.026430204427400975
% es.EX (V/m) @ t=0.46
0.01616325515194461
% es.EY (V/m) @ t=0.46
0.01250967806425507
% es.EZ (V/m) @ t=0.46
-0.01675747127988103
% es.tEX (V/m) @ t=0.46
0.016163255151947276
% es.tEY (V/m) @ t=0.46
0
% es.tEZ (V/m) @ t=0.46
-0.01675747127987881
% es.Ex (V/m) @ t=0.46
0.01616325515194461
% es.Ey (V/m) @ t=0.46
0.01250967806425507
% es.Ez (V/m) @ t=0.46
-0.01675747127988103
% es.tEx (V/m) @ t=0.46
0.016163255151947276
% es.tEy (V/m) @ t=0.46
0
% es.tEz (V/m) @ t=0.46
-0.01675747127987881
% V (V) @ t=0.46
0.01234204898490487
% es.normE (V/m) @ t=0.48
0.026690740593450713
% es.EX (V/m) @ t=0.48
0.016322602293850963
% es.EY (V/m) @ t=0.48
0.012633013000311166
% es.EZ (V/m) @ t=0.48
-0.016922625987642048
% es.tEX (V/m) @ t=0.48
0.01632260229385185
% es.tEY (V/m) @ t=0.48
0
% es.tEZ (V/m) @ t=0.48
-0.016922625987641604
% es.Ex (V/m) @ t=0.48
0.016322602293850963
% es.Ey (V/m) @ t=0.48
0.012633013000311166
% es.Ez (V/m) @ t=0.48
-0.016922625987642048
% es.tEx (V/m) @ t=0.48
0.01632260229385185
% es.tEy (V/m) @ t=0.48
0
% es.tEz (V/m) @ t=0.48
-0.016922625987641604
% V (V) @ t=0.48
0.012463719008428051
% es.normE (V/m) @ t=0.5
0.026951276759576603
% es.EX (V/m) @ t=0.5
0.01648194943575687
% es.EY (V/m) @ t=0.5
0.012756347936390355
% es.EZ (V/m) @ t=0.5
-0.017087780695403287
% es.tEX (V/m) @ t=0.5
0.016481949435755983
% es.tEY (V/m) @ t=0.5
0
% es.tEZ (V/m) @ t=0.5
-0.017087780695405064
% es.Ex (V/m) @ t=0.5
0.01648194943575687
% es.Ey (V/m) @ t=0.5
0.012756347936390355
% es.Ez (V/m) @ t=0.5
-0.017087780695403287
% es.tEx (V/m) @ t=0.5
0.016481949435755983
% es.tEy (V/m) @ t=0.5
0
% es.tEz (V/m) @ t=0.5
-0.017087780695405064
% V (V) @ t=0.5
0.012585389031951232
% es.normE (V/m) @ t=0.52
0.027211812925763437
% es.EX (V/m) @ t=0.52
0.016641296577663667
% es.EY (V/m) @ t=0.52
0.012879682872462439
% es.EZ (V/m) @ t=0.52
-0.01725293540316497
% es.tEX (V/m) @ t=0.52
0.01664129657766278
% es.tEY (V/m) @ t=0.52
0
% es.tEZ (V/m) @ t=0.52
-0.017252935403164527
% es.Ex (V/m) @ t=0.52
0.016641296577663667
% es.Ey (V/m) @ t=0.52
0.012879682872462439
% es.Ez (V/m) @ t=0.52
-0.01725293540316497
% es.tEx (V/m) @ t=0.52
0.01664129657766278
% es.tEy (V/m) @ t=0.52
0
% es.tEz (V/m) @ t=0.52
-0.017252935403164527
% V (V) @ t=0.52
0.012707059055474413
% es.normE (V/m) @ t=0.54
0.02747234909199621
% es.EX (V/m) @ t=0.54
0.01680064371955714
% es.EY (V/m) @ t=0.54
0.013003017808525641
% es.EZ (V/m) @ t=0.54
-0.017418090110921325
% es.tEX (V/m) @ t=0.54
0.016800643719559805
% es.tEY (V/m) @ t=0.54
0
% es.tEZ (V/m) @ t=0.54
-0.017418090110924433
% es.Ex (V/m) @ t=0.54
0.01680064371955714
% es.Ey (V/m) @ t=0.54
0.013003017808525641
% es.Ez (V/m) @ t=0.54
-0.017418090110921325
% es.tEx (V/m) @ t=0.54
0.016800643719559805
% es.tEy (V/m) @ t=0.54
0
% es.tEz (V/m) @ t=0.54
-0.017418090110924433
% V (V) @ t=0.54
0.012828729078997594
% es.normE (V/m) @ t=0.56
0.02773288525830578
% es.EX (V/m) @ t=0.56
0.016959990861470597
% es.EY (V/m) @ t=0.56
0.013126352744592396
% es.EZ (V/m) @ t=0.56
-0.017583244818682342
% es.tEX (V/m) @ t=0.56
0.016959990861472818
% es.tEY (V/m) @ t=0.56
0
% es.tEZ (V/m) @ t=0.56
-0.017583244818682342
% es.Ex (V/m) @ t=0.56
0.016959990861470597
% es.Ey (V/m) @ t=0.56
0.013126352744592396
% es.Ez (V/m) @ t=0.56
-0.017583244818682342
% es.tEx (V/m) @ t=0.56
0.016959990861472818
% es.tEy (V/m) @ t=0.56
0
% es.tEz (V/m) @ t=0.56
-0.017583244818682342
% V (V) @ t=0.56
0.012950399102520776
% es.normE (V/m) @ t=0.58
0.027993421424663035
% es.EX (V/m) @ t=0.58
0.0171193380033694
% es.EY (V/m) @ t=0.58
0.013249687680655153
% es.EZ (V/m) @ t=0.58
-0.017748399526443803
% es.tEX (V/m) @ t=0.58
0.017119338003372064
% es.tEY (V/m) @ t=0.58
0
% es.tEZ (V/m) @ t=0.58
-0.017748399526445136
% es.Ex (V/m) @ t=0.58
0.0171193380033694
% es.Ey (V/m) @ t=0.58
0.013249687680655153
% es.Ez (V/m) @ t=0.58
-0.017748399526443803
% es.tEx (V/m) @ t=0.58
0.017119338003372064
% es.tEy (V/m) @ t=0.58
0
% es.tEz (V/m) @ t=0.58
-0.017748399526445136
% V (V) @ t=0.58
0.013072069126043955
% es.normE (V/m) @ t=0.6
0.028253957591081857
% es.EX (V/m) @ t=0.6
0.017278685145279304
% es.EY (V/m) @ t=0.6
0.013373022616704144
% es.EZ (V/m) @ t=0.6
-0.017913554234212592
% es.tEX (V/m) @ t=0.6
0.01727868514527975
% es.tEY (V/m) @ t=0.6
0
% es.tEZ (V/m) @ t=0.6
-0.017913554234212148
% es.Ex (V/m) @ t=0.6
0.017278685145279304
% es.Ey (V/m) @ t=0.6
0.013373022616704144
% es.Ez (V/m) @ t=0.6
-0.017913554234212592
% es.tEx (V/m) @ t=0.6
0.01727868514527975
% es.tEy (V/m) @ t=0.6
0
% es.tEz (V/m) @ t=0.6
-0.017913554234212148
% V (V) @ t=0.6
0.013193739149567138
% es.normE (V/m) @ t=0.62
0.02851449375756444
% es.EX (V/m) @ t=0.62
0.01743803228718166
% es.EY (V/m) @ t=0.62
0.013496357552795768
% es.EZ (V/m) @ t=0.62
-0.0180787089419705
% es.tEX (V/m) @ t=0.62
0.0174380322871861
% es.tEY (V/m) @ t=0.62
0
% es.tEZ (V/m) @ t=0.62
-0.018078708941970056
% es.Ex (V/m) @ t=0.62
0.01743803228718166
% es.Ey (V/m) @ t=0.62
0.013496357552795768
% es.Ez (V/m) @ t=0.62
-0.0180787089419705
% es.tEx (V/m) @ t=0.62
0.0174380322871861
% es.tEy (V/m) @ t=0.62
0
% es.tEz (V/m) @ t=0.62
-0.018078708941970056
% V (V) @ t=0.62
0.013315409173090315
% es.normE (V/m) @ t=0.64
0.028775029924102358
% es.EX (V/m) @ t=0.64
0.017597379429092896
% es.EY (V/m) @ t=0.64
0.013619692488872737
% es.EZ (V/m) @ t=0.64
-0.018243863649733516
% es.tEX (V/m) @ t=0.64
0.017597379429089788
% es.tEY (V/m) @ t=0.64
0
% es.tEZ (V/m) @ t=0.64
-0.01824386364973485
% es.Ex (V/m) @ t=0.64
0.017597379429092896
% es.Ey (V/m) @ t=0.64
0.013619692488872737
% es.Ez (V/m) @ t=0.64
-0.018243863649733516
% es.tEx (V/m) @ t=0.64
0.017597379429089788
% es.tEy (V/m) @ t=0.64
0
% es.tEz (V/m) @ t=0.64
-0.01824386364973485
% V (V) @ t=0.64
0.013437079196613497
% es.normE (V/m) @ t=0.66
0.02903556609067966
% es.EX (V/m) @ t=0.66
0.01775672657099081
% es.EY (V/m) @ t=0.66
0.013743027424939935
% es.EZ (V/m) @ t=0.66
-0.01840901835749653
% es.tEX (V/m) @ t=0.66
0.0177567265709917
% es.tEY (V/m) @ t=0.66
0
% es.tEZ (V/m) @ t=0.66
-0.01840901835749653
% es.Ex (V/m) @ t=0.66
0.01775672657099081
% es.Ey (V/m) @ t=0.66
0.013743027424939935
% es.Ez (V/m) @ t=0.66
-0.01840901835749653
% es.tEx (V/m) @ t=0.66
0.0177567265709917
% es.tEy (V/m) @ t=0.66
0
% es.tEz (V/m) @ t=0.66
-0.01840901835749653
% V (V) @ t=0.66
0.013558749220136678
% es.normE (V/m) @ t=0.68
0.02929610225730029
% es.EX (V/m) @ t=0.68
0.017916073712891833
% es.EY (V/m) @ t=0.68
0.013866362360996032
% es.EZ (V/m) @ t=0.68
-0.018574173065253108
% es.tEX (V/m) @ t=0.68
0.017916073712899383
% es.tEY (V/m) @ t=0.68
0
% es.tEZ (V/m) @ t=0.68
-0.018574173065253108
% es.Ex (V/m) @ t=0.68
0.017916073712891833
% es.Ey (V/m) @ t=0.68
0.013866362360996032
% es.Ez (V/m) @ t=0.68
-0.018574173065253108
% es.tEx (V/m) @ t=0.68
0.017916073712899383
% es.tEy (V/m) @ t=0.68
0
% es.tEz (V/m) @ t=0.68
-0.018574173065253108
% V (V) @ t=0.68
0.013680419243659857
% es.normE (V/m) @ t=0.7
0.029556638423980132
% es.EX (V/m) @ t=0.7
0.018075420854799074
% es.EY (V/m) @ t=0.7
0.013989697297051684
% es.EZ (V/m) @ t=0.7
-0.018739327773019454
% es.tEX (V/m) @ t=0.7
0.01807542085479641
% es.tEY (V/m) @ t=0.7
0
% es.tEZ (V/m) @ t=0.7
-0.01873932777301901
% es.Ex (V/m) @ t=0.7
0.018075420854799074
% es.Ey (V/m) @ t=0.7
0.013989697297051684
% es.Ez (V/m) @ t=0.7
-0.018739327773019454
% es.tEx (V/m) @ t=0.7
0.01807542085479641
% es.tEy (V/m) @ t=0.7
0
% es.tEz (V/m) @ t=0.7
-0.01873932777301901
% V (V) @ t=0.7
0.01380208926718304
% es.normE (V/m) @ t=0.72
0.02981717459071761
% es.EX (V/m) @ t=0.72
0.018234767996703205
% es.EY (V/m) @ t=0.72
0.014113032233136202
% es.EZ (V/m) @ t=0.72
-0.018904482480782248
% es.tEX (V/m) @ t=0.72
0.01823476799670054
% es.tEY (V/m) @ t=0.72
0
% es.tEZ (V/m) @ t=0.72
-0.018904482480784024
% es.Ex (V/m) @ t=0.72
0.018234767996703205
% es.Ey (V/m) @ t=0.72
0.014113032233136202
% es.Ez (V/m) @ t=0.72
-0.018904482480782248
% es.tEx (V/m) @ t=0.72
0.01823476799670054
% es.tEy (V/m) @ t=0.72
0
% es.tEz (V/m) @ t=0.72
-0.018904482480784024
% V (V) @ t=0.72
0.013923759290706219
% es.normE (V/m) @ t=0.74
0.030085296305733502
% es.EX (V/m) @ t=0.74
0.018398750894758287
% es.EY (V/m) @ t=0.74
0.014239953743967249
% es.EZ (V/m) @ t=0.74
-0.019074452460977387
% es.tEX (V/m) @ t=0.74
0.018398750894759175
% es.tEY (V/m) @ t=0.74
0
% es.tEZ (V/m) @ t=0.74
-0.019074452460977387
% es.Ex (V/m) @ t=0.74
0.018398750894758287
% es.Ey (V/m) @ t=0.74
0.014239953743967249
% es.Ez (V/m) @ t=0.74
-0.019074452460977387
% es.tEx (V/m) @ t=0.74
0.018398750894759175
% es.tEy (V/m) @ t=0.74
0
% es.tEz (V/m) @ t=0.74
-0.019074452460977387
% V (V) @ t=0.74
0.01404897005502288
% es.normE (V/m) @ t=0.76
0.030375910104080084
% es.EX (V/m) @ t=0.76
0.018576479379860178
% es.EY (V/m) @ t=0.76
0.01437750988996589
% es.EZ (V/m) @ t=0.76
-0.019258700316083566
% es.tEX (V/m) @ t=0.76
0.018576479379857513
% es.tEY (V/m) @ t=0.76
0
% es.tEZ (V/m) @ t=0.76
-0.019258700316083566
% es.Ex (V/m) @ t=0.76
0.018576479379860178
% es.Ey (V/m) @ t=0.76
0.01437750988996589
% es.Ez (V/m) @ t=0.76
-0.019258700316083566
% es.tEx (V/m) @ t=0.76
0.018576479379857513
% es.tEy (V/m) @ t=0.76
0
% es.tEz (V/m) @ t=0.76
-0.019258700316083566
% V (V) @ t=0.76
0.014184679551203382
% es.normE (V/m) @ t=0.78
0.030666523902443277
% es.EX (V/m) @ t=0.78
0.018754207864965622
% es.EY (V/m) @ t=0.78
0.014515066035982738
% es.EZ (V/m) @ t=0.78
-0.01944294817119685
% es.tEX (V/m) @ t=0.78
0.018754207864962957
% es.tEY (V/m) @ t=0.78
0
% es.tEZ (V/m) @ t=0.78
-0.01944294817119685
% es.Ex (V/m) @ t=0.78
0.018754207864965622
% es.Ey (V/m) @ t=0.78
0.014515066035982738
% es.Ez (V/m) @ t=0.78
-0.01944294817119685
% es.tEx (V/m) @ t=0.78
0.018754207864962957
% es.tEy (V/m) @ t=0.78
0
% es.tEz (V/m) @ t=0.78
-0.01944294817119685
% V (V) @ t=0.78
0.014320389047383886
% es.normE (V/m) @ t=0.8
0.030957137700788256
% es.EX (V/m) @ t=0.8
0.018931936350059964
% es.EY (V/m) @ t=0.8
0.014652622181984931
% es.EZ (V/m) @ t=0.8
-0.01962719602630103
% es.tEX (V/m) @ t=0.8
0.018931936350064404
% es.tEY (V/m) @ t=0.8
0
% es.tEZ (V/m) @ t=0.8
-0.01962719602630103
% es.Ex (V/m) @ t=0.8
0.018931936350059964
% es.Ey (V/m) @ t=0.8
0.014652622181984931
% es.Ez (V/m) @ t=0.8
-0.01962719602630103
% es.tEx (V/m) @ t=0.8
0.018931936350064404
% es.tEy (V/m) @ t=0.8
0
% es.tEz (V/m) @ t=0.8
-0.01962719602630103
% V (V) @ t=0.8
0.014456098543564389
% es.normE (V/m) @ t=0.82
0.03124775149914989
% es.EX (V/m) @ t=0.82
0.019109664835169404
% es.EY (V/m) @ t=0.82
0.014790178327995118
% es.EZ (V/m) @ t=0.82
-0.019811443881408985
% es.tEX (V/m) @ t=0.82
0.019109664835173845
% es.tEY (V/m) @ t=0.82
0
% es.tEZ (V/m) @ t=0.82
-0.019811443881410762
% es.Ex (V/m) @ t=0.82
0.019109664835169404
% es.Ey (V/m) @ t=0.82
0.014790178327995118
% es.Ez (V/m) @ t=0.82
-0.019811443881408985
% es.tEx (V/m) @ t=0.82
0.019109664835173845
% es.tEy (V/m) @ t=0.82
0
% es.tEz (V/m) @ t=0.82
-0.019811443881410762
% V (V) @ t=0.82
0.014591808039744891
% es.normE (V/m) @ t=0.84
0.031538365297516385
% es.EX (V/m) @ t=0.84
0.019287393320268187
% es.EY (V/m) @ t=0.84
0.014927734474022625
% es.EZ (V/m) @ t=0.84
-0.01999569173652005
% es.tEX (V/m) @ t=0.84
0.019287393320272628
% es.tEY (V/m) @ t=0.84
0
% es.tEZ (V/m) @ t=0.84
-0.01999569173652005
% es.Ex (V/m) @ t=0.84
0.019287393320268187
% es.Ey (V/m) @ t=0.84
0.014927734474022625
% es.Ez (V/m) @ t=0.84
-0.01999569173652005
% es.tEx (V/m) @ t=0.84
0.019287393320272628
% es.tEy (V/m) @ t=0.84
0
% es.tEz (V/m) @ t=0.84
-0.01999569173652005
% V (V) @ t=0.84
0.014727517535925393
% es.normE (V/m) @ t=0.86
0.031828979095876286
% es.EX (V/m) @ t=0.86
0.01946512180537674
% es.EY (V/m) @ t=0.86
0.015065290620025262
% es.EZ (V/m) @ t=0.86
-0.020179939591628004
% es.tEX (V/m) @ t=0.86
0.01946512180538118
% es.tEY (V/m) @ t=0.86
0
% es.tEZ (V/m) @ t=0.86
-0.02017993959162756
% es.Ex (V/m) @ t=0.86
0.01946512180537674
% es.Ey (V/m) @ t=0.86
0.015065290620025262
% es.Ez (V/m) @ t=0.86
-0.020179939591628004
% es.tEx (V/m) @ t=0.86
0.01946512180538118
% es.tEy (V/m) @ t=0.86
0
% es.tEz (V/m) @ t=0.86
-0.02017993959162756
% V (V) @ t=0.86
0.014863227032105897
% es.normE (V/m) @ t=0.88
0.03211959289423239
% es.EX (V/m) @ t=0.88
0.019642850290479075
% es.EY (V/m) @ t=0.88
0.015202846766035005
% es.EZ (V/m) @ t=0.88
-0.020364187446728854
% es.tEX (V/m) @ t=0.88
0.01964285029047641
% es.tEY (V/m) @ t=0.88
0
% es.tEZ (V/m) @ t=0.88
-0.020364187446730186
% es.Ex (V/m) @ t=0.88
0.019642850290479075
% es.Ey (V/m) @ t=0.88
0.015202846766035005
% es.Ez (V/m) @ t=0.88
-0.020364187446728854
% es.tEx (V/m) @ t=0.88
0.01964285029047641
% es.tEy (V/m) @ t=0.88
0
% es.tEz (V/m) @ t=0.88
-0.020364187446730186
% V (V) @ t=0.88
0.014998936528286403
% es.normE (V/m) @ t=0.9
0.03241020669260578
% es.EX (V/m) @ t=0.9
0.019820578775573416
% es.EY (V/m) @ t=0.9
0.01534040291207317
% es.EZ (V/m) @ t=0.9
-0.020548435301841694
% es.tEX (V/m) @ t=0.9
0.019820578775577857
% es.tEY (V/m) @ t=0.9
0
% es.tEZ (V/m) @ t=0.9
-0.020548435301841694
% es.Ex (V/m) @ t=0.9
0.019820578775573416
% es.Ey (V/m) @ t=0.9
0.01534040291207317
% es.Ez (V/m) @ t=0.9
-0.020548435301841694
% es.tEx (V/m) @ t=0.9
0.019820578775577857
% es.tEy (V/m) @ t=0.9
0
% es.tEz (V/m) @ t=0.9
-0.020548435301841694
% V (V) @ t=0.9
0.015134646024466902
% es.normE (V/m) @ t=0.92
0.03270082049096619
% es.EX (V/m) @ t=0.92
0.019998307260682857
% es.EY (V/m) @ t=0.92
0.015477959058075808
% es.EZ (V/m) @ t=0.92
-0.02073268315694432
% es.tEX (V/m) @ t=0.92
0.019998307260680193
% es.tEY (V/m) @ t=0.92
0
% es.tEZ (V/m) @ t=0.92
-0.02073268315694965
% es.Ex (V/m) @ t=0.92
0.019998307260682857
% es.Ey (V/m) @ t=0.92
0.015477959058075808
% es.Ez (V/m) @ t=0.92
-0.02073268315694432
% es.tEx (V/m) @ t=0.92
0.019998307260680193
% es.tEy (V/m) @ t=0.92
0
% es.tEz (V/m) @ t=0.92
-0.02073268315694965
% V (V) @ t=0.92
0.015270355520647405
% es.normE (V/m) @ t=0.94
0.03299143428931927
% es.EX (V/m) @ t=0.94
0.02017603574578164
% es.EY (V/m) @ t=0.94
0.015615515204064678
% es.EZ (V/m) @ t=0.94
-0.020916931012054274
% es.tEX (V/m) @ t=0.94
0.020176035745778975
% es.tEY (V/m) @ t=0.94
0
% es.tEZ (V/m) @ t=0.94
-0.02091693101205605
% es.Ex (V/m) @ t=0.94
0.02017603574578164
% es.Ey (V/m) @ t=0.94
0.015615515204064678
% es.Ez (V/m) @ t=0.94
-0.020916931012054274
% es.tEx (V/m) @ t=0.94
0.020176035745778975
% es.tEy (V/m) @ t=0.94
0
% es.tEz (V/m) @ t=0.94
-0.02091693101205605
% V (V) @ t=0.94
0.01540606501682791
% es.normE (V/m) @ t=0.96
0.03328204808769316
% es.EX (V/m) @ t=0.96
0.02035376423088664
% es.EY (V/m) @ t=0.96
0.015753071350088188
% es.EZ (V/m) @ t=0.96
-0.02110117886716356
% es.tEX (V/m) @ t=0.96
0.02035376423089108
% es.tEY (V/m) @ t=0.96
0
% es.tEZ (V/m) @ t=0.96
-0.021101178867165338
% es.Ex (V/m) @ t=0.96
0.02035376423088664
% es.Ey (V/m) @ t=0.96
0.015753071350088188
% es.Ez (V/m) @ t=0.96
-0.02110117886716356
% es.tEx (V/m) @ t=0.96
0.02035376423089108
% es.tEy (V/m) @ t=0.96
0
% es.tEz (V/m) @ t=0.96
-0.021101178867165338
% V (V) @ t=0.96
0.015541774513008415
% es.normE (V/m) @ t=0.98
0.03357266188607203
% es.EX (V/m) @ t=0.98
0.02053149271599608
% es.EY (V/m) @ t=0.98
0.015890627496109033
% es.EZ (V/m) @ t=0.98
-0.021285426722276846
% es.tEX (V/m) @ t=0.98
0.020531492715993416
% es.tEY (V/m) @ t=0.98
0
% es.tEZ (V/m) @ t=0.98
-0.02128542672227507
% es.Ex (V/m) @ t=0.98
0.02053149271599608
% es.Ey (V/m) @ t=0.98
0.015890627496109033
% es.Ez (V/m) @ t=0.98
-0.021285426722276846
% es.tEx (V/m) @ t=0.98
0.020531492715993416
% es.tEy (V/m) @ t=0.98
0
% es.tEz (V/m) @ t=0.98
-0.02128542672227507
% V (V) @ t=0.98
0.015677484009188912
% es.normE (V/m) @ t=1
0.03386412017828698
% es.EX (V/m) @ t=1
0.02070973890513006
% es.EY (V/m) @ t=1
0.016028584832604054
% es.EZ (V/m) @ t=1
-0.02147020768867458
% es.tEX (V/m) @ t=1
0.0207097389051345
% es.tEY (V/m) @ t=1
0
% es.tEZ (V/m) @ t=1
-0.021470207688672804
% es.Ex (V/m) @ t=1
0.02070973890513006