% Model:              1 neuron.mph
% Version:            COMSOL 6.1.0.252
% Date:               Mar 26 2023, 14:42
% Dimension:          0
% Nodes:              14017
% Expressions:        14017
% Description:        Electric field norm, Electric field, X component, Electric field, Y component, Electric field, Z component, Tangential electric field, X component, Tangential electric field, Y component, Tangential electric field, Z component, Electric field, x component, Electric field, y component, Electric field, z component, Tangential electric field, x component, Tangential electric field, y component, Tangential electric field, z component, Electric potential
% Length unit:        mm
% x
2
% y
14.200000000000001
% z
1
% es.normE (V/m) @ t=0
0.06190702610917828
% es.EX (V/m) @ t=0
-0.045860599477782316
% es.EY (V/m) @ t=0
-0.014891561953481514
% es.EZ (V/m) @ t=0
0.03882688089206414
% es.tEX (V/m) @ t=0
-0.04586059947777621
% es.tEY (V/m) @ t=0
0
% es.tEZ (V/m) @ t=0
0.03882688089206754
% es.Ex (V/m) @ t=0
-0.045860599477782316
% es.Ey (V/m) @ t=0
-0.014891561953481514
% es.Ez (V/m) @ t=0
0.03882688089206414
% es.tEx (V/m) @ t=0
-0.04586059947777621
% es.tEy (V/m) @ t=0
0
% es.tEz (V/m) @ t=0
0.03882688089206754
% V (V) @ t=0
0.010897314331660291
% es.normE (V/m) @ t=0.02
0.05669424135129623
% es.EX (V/m) @ t=0.02
-0.0419989790821198
% es.EY (V/m) @ t=0.02
-0.013637640918982896
% es.EZ (V/m) @ t=0.02
0.0355575239383112
% es.tEX (V/m) @ t=0.02
-0.04199897908211869
% es.tEY (V/m) @ t=0.02
0
% es.tEZ (V/m) @ t=0.02
0.035557523938311464
% es.Ex (V/m) @ t=0.02
-0.0419989790821198
% es.Ey (V/m) @ t=0.02
-0.013637640918982896
% es.Ez (V/m) @ t=0.02
0.0355575239383112
% es.tEx (V/m) @ t=0.02
-0.04199897908211869
% es.tEy (V/m) @ t=0.02
0
% es.tEz (V/m) @ t=0.02
0.035557523938311464
% V (V) @ t=0.02
0.009979722768725269
% es.normE (V/m) @ t=0.04
0.05721472978241691
% es.EX (V/m) @ t=0.04
-0.04238455577576694
% es.EY (V/m) @ t=0.04
-0.013762841209928212
% es.EZ (V/m) @ t=0.04
0.035883964909081426
% es.tEX (V/m) @ t=0.04
-0.04238455577577038
% es.tEY (V/m) @ t=0.04
0
% es.tEZ (V/m) @ t=0.04
0.03588396490908119
% es.Ex (V/m) @ t=0.04
-0.04238455577576694
% es.Ey (V/m) @ t=0.04
-0.013762841209928212
% es.Ez (V/m) @ t=0.04
0.035883964909081426
% es.tEx (V/m) @ t=0.04
-0.04238455577577038
% es.tEy (V/m) @ t=0.04
0
% es.tEz (V/m) @ t=0.04
0.03588396490908119
% V (V) @ t=0.04
0.010071341585357803
% es.normE (V/m) @ t=0.06
0.05774131519040285
% es.EX (V/m) @ t=0.06
-0.042774649273408016
% es.EY (V/m) @ t=0.06
-0.013889512038012697
% es.EZ (V/m) @ t=0.06
0.03621422807130206
% es.tEX (V/m) @ t=0.06
-0.04277464927340646
% es.tEY (V/m) @ t=0.06
0
% es.tEZ (V/m) @ t=0.06
0.036214228071305476
% es.Ex (V/m) @ t=0.06
-0.042774649273408016
% es.Ey (V/m) @ t=0.06
-0.013889512038012697
% es.Ez (V/m) @ t=0.06
0.03621422807130206
% es.tEx (V/m) @ t=0.06
-0.04277464927340646
% es.tEy (V/m) @ t=0.06
0
% es.tEz (V/m) @ t=0.06
0.036214228071305476
% V (V) @ t=0.06
0.01016403646377125
% es.normE (V/m) @ t=0.08
0.0582727024502144
% es.EX (V/m) @ t=0.08
-0.04316829964308688
% es.EY (V/m) @ t=0.08
-0.014017330374397119
% es.EZ (V/m) @ t=0.08
0.036547506152279294
% es.tEX (V/m) @ t=0.08
-0.04316829964308372
% es.tEY (V/m) @ t=0.08
0
% es.tEZ (V/m) @ t=0.08
0.036547506152282194
% es.Ex (V/m) @ t=0.08
-0.04316829964308688
% es.Ey (V/m) @ t=0.08
-0.014017330374397119
% es.Ez (V/m) @ t=0.08
0.036547506152279294
% es.tEx (V/m) @ t=0.08
-0.04316829964308372
% es.tEy (V/m) @ t=0.08
0
% es.tEz (V/m) @ t=0.08
0.036547506152282194
% V (V) @ t=0.08
0.010257571129553725
% es.normE (V/m) @ t=0.1
0.058814255588604224
% es.EX (V/m) @ t=0.1
-0.043569480176241626
% es.EY (V/m) @ t=0.1
-0.014147578071513678
% es.EZ (V/m) @ t=0.1
0.03688716704118353
% es.tEX (V/m) @ t=0.1
-0.0435694801762449
% es.tEY (V/m) @ t=0.1
0
% es.tEZ (V/m) @ t=0.1
0.03688716704119177
% es.Ex (V/m) @ t=0.1
-0.043569480176241626
% es.Ey (V/m) @ t=0.1
-0.014147578071513678
% es.Ez (V/m) @ t=0.1
0.03688716704118353
% es.tEx (V/m) @ t=0.1
-0.0435694801762449
% es.tEy (V/m) @ t=0.1
0
% es.tEz (V/m) @ t=0.1
0.03688716704119177
% V (V) @ t=0.1
0.010352883687843768
% es.normE (V/m) @ t=0.12
0.05935580872701061
% es.EX (V/m) @ t=0.12
-0.04397066070939637
% es.EY (V/m) @ t=0.12
-0.01427782576863379
% es.EZ (V/m) @ t=0.12
0.03722682793009836
% es.tEX (V/m) @ t=0.12
-0.043970660709400644
% es.tEY (V/m) @ t=0.12
0
% es.tEZ (V/m) @ t=0.12
0.03722682793010135
% es.Ex (V/m) @ t=0.12
-0.04397066070939637
% es.Ey (V/m) @ t=0.12
-0.01427782576863379
% es.Ez (V/m) @ t=0.12
0.03722682793009836
% es.tEx (V/m) @ t=0.12
-0.043970660709400644
% es.tEy (V/m) @ t=0.12
0
% es.tEz (V/m) @ t=0.12
0.03722682793010135
% V (V) @ t=0.12
0.010448196246133811
% es.normE (V/m) @ t=0.14
0.059897361865416665
% es.EX (V/m) @ t=0.14
-0.04437184124254223
% es.EY (V/m) @ t=0.14
-0.014408073465752125
% es.EZ (V/m) @ t=0.14
0.0375664888190098
% es.tEX (V/m) @ t=0.14
-0.04437184124254573
% es.tEY (V/m) @ t=0.14
0
% es.tEZ (V/m) @ t=0.14
0.037566488819011146
% es.Ex (V/m) @ t=0.14
-0.04437184124254223
% es.Ey (V/m) @ t=0.14
-0.014408073465752125
% es.Ez (V/m) @ t=0.14
0.0375664888190098
% es.tEx (V/m) @ t=0.14
-0.04437184124254573
% es.tEy (V/m) @ t=0.14
0
% es.tEz (V/m) @ t=0.14
0.037566488819011146
% V (V) @ t=0.14
0.010543508804423857
% es.normE (V/m) @ t=0.16
0.0604594445977137
% es.EX (V/m) @ t=0.16
-0.04478823097494278
% es.EY (V/m) @ t=0.16
-0.014543280515454171
% es.EZ (V/m) @ t=0.16
0.037919016324899565
% es.tEX (V/m) @ t=0.16
-0.044788230974940946
% es.tEY (V/m) @ t=0.16
0
% es.tEZ (V/m) @ t=0.16
0.03791901632490047
% es.Ex (V/m) @ t=0.16
-0.04478823097494278
% es.Ey (V/m) @ t=0.16
-0.014543280515454171
% es.Ez (V/m) @ t=0.16
0.037919016324899565
% es.tEx (V/m) @ t=0.16
-0.044788230974940946
% es.tEy (V/m) @ t=0.16
0
% es.tEz (V/m) @ t=0.16
0.03791901632490047
% V (V) @ t=0.16
0.010642450324159674
% es.normE (V/m) @ t=0.18
0.06103272774336668
% es.EX (V/m) @ t=0.18
-0.045212918451529305
% es.EY (V/m) @ t=0.18
-0.014681193259162839
% es.EZ (V/m) @ t=0.18
0.03827856352292225
% es.tEX (V/m) @ t=0.18
-0.04521291845153025
% es.tEY (V/m) @ t=0.18
0
% es.tEZ (V/m) @ t=0.18
0.038278563522924136
% es.Ex (V/m) @ t=0.18
-0.045212918451529305
% es.Ey (V/m) @ t=0.18
-0.014681193259162839
% es.Ez (V/m) @ t=0.18
0.03827856352292225
% es.tEx (V/m) @ t=0.18
-0.04521291845153025
% es.tEy (V/m) @ t=0.18
0
% es.tEz (V/m) @ t=0.18
0.038278563522924136
% V (V) @ t=0.18
0.010743371711032915
% es.normE (V/m) @ t=0.2
0.06160601088902219
% es.EX (V/m) @ t=0.2
-0.045637605928108727
% es.EY (V/m) @ t=0.2
-0.01481910600287506
% es.EZ (V/m) @ t=0.2
0.038638110720951774
% es.tEX (V/m) @ t=0.2
-0.045637605928110725
% es.tEY (V/m) @ t=0.2
0
% es.tEZ (V/m) @ t=0.2
0.038638110720951024
% es.Ex (V/m) @ t=0.2
-0.045637605928108727
% es.Ey (V/m) @ t=0.2
-0.01481910600287506
% es.Ez (V/m) @ t=0.2
0.038638110720951774
% es.tEx (V/m) @ t=0.2
-0.045637605928110725
% es.tEy (V/m) @ t=0.2
0
% es.tEz (V/m) @ t=0.2
0.038638110720951024
% V (V) @ t=0.2
0.010844293097906157
% es.normE (V/m) @ t=0.22
0.06217929403467951
% es.EX (V/m) @ t=0.22
-0.0460622934046917
% es.EY (V/m) @ t=0.22
-0.014957018746581952
% es.EZ (V/m) @ t=0.22
0.03899765791897794
% es.tEX (V/m) @ t=0.22
-0.04606229340469814
% es.tEY (V/m) @ t=0.22
0
% es.tEZ (V/m) @ t=0.22
0.03899765791897836
% es.Ex (V/m) @ t=0.22
-0.0460622934046917
% es.Ey (V/m) @ t=0.22
-0.014957018746581952
% es.Ez (V/m) @ t=0.22
0.03899765791897794
% es.tEx (V/m) @ t=0.22
-0.04606229340469814
% es.tEy (V/m) @ t=0.22
0
% es.tEz (V/m) @ t=0.22
0.03899765791897836
% V (V) @ t=0.22
0.010945214484779402
% es.normE (V/m) @ t=0.24
0.06275257718034842
% es.EX (V/m) @ t=0.24
-0.04648698088128178
% es.EY (V/m) @ t=0.24
-0.015094931490295949
% es.EZ (V/m) @ t=0.24
0.039357205117007465
% es.tEX (V/m) @ t=0.24
-0.04648698088127862
% es.tEY (V/m) @ t=0.24
0
% es.tEZ (V/m) @ t=0.24
0.0393572051170088
% es.Ex (V/m) @ t=0.24
-0.04648698088128178
% es.Ey (V/m) @ t=0.24
-0.015094931490295949
% es.Ez (V/m) @ t=0.24
0.039357205117007465
% es.tEx (V/m) @ t=0.24
-0.04648698088127862
% es.tEy (V/m) @ t=0.24
0
% es.tEz (V/m) @ t=0.24
0.0393572051170088
% V (V) @ t=0.24
0.011046135871652644
% es.normE (V/m) @ t=0.26
0.06332586032601362
% es.EX (V/m) @ t=0.26
-0.046911668357864755
% es.EY (V/m) @ t=0.26
-0.015232844234006393
% es.EZ (V/m) @ t=0.26
0.03971675231503696
% es.tEX (V/m) @ t=0.26
-0.0469116683578662
% es.tEY (V/m) @ t=0.26
0
% es.tEZ (V/m) @ t=0.26
0.03971675231503924
% es.Ex (V/m) @ t=0.26
-0.046911668357864755
% es.Ey (V/m) @ t=0.26
-0.015232844234006393
% es.Ez (V/m) @ t=0.26
0.03971675231503696
% es.tEx (V/m) @ t=0.26
-0.0469116683578662
% es.tEy (V/m) @ t=0.26
0
% es.tEz (V/m) @ t=0.26
0.03971675231503924
% V (V) @ t=0.26
0.011147057258525887
% es.normE (V/m) @ t=0.28
0.06389914347167626
% es.EX (V/m) @ t=0.28
-0.047336355834449506
% es.EY (V/m) @ t=0.28
-0.015370756977718614
% es.EZ (V/m) @ t=0.28
0.040076299513055844
% es.tEX (V/m) @ t=0.28
-0.04733635583446083
% es.tEY (V/m) @ t=0.28
0
% es.tEZ (V/m) @ t=0.28
0.040076299513059466
% es.Ex (V/m) @ t=0.28
-0.047336355834449506
% es.Ey (V/m) @ t=0.28
-0.015370756977718614
% es.Ez (V/m) @ t=0.28
0.040076299513055844
% es.tEx (V/m) @ t=0.28
-0.04733635583446083
% es.tEy (V/m) @ t=0.28
0
% es.tEz (V/m) @ t=0.28
0.040076299513059466
% V (V) @ t=0.28
0.011247978645399129
% es.normE (V/m) @ t=0.3
0.06448257703822381
% es.EX (V/m) @ t=0.3
-0.04776856295157117
% es.EY (V/m) @ t=0.3
-0.01551111660895188
% es.EZ (V/m) @ t=0.3
0.04044221057973647
% es.tEX (V/m) @ t=0.3
-0.04776856295156984
% es.tEY (V/m) @ t=0.3
0
% es.tEZ (V/m) @ t=0.3
0.04044221057973951
% es.Ex (V/m) @ t=0.3
-0.04776856295157117
% es.Ey (V/m) @ t=0.3
-0.01551111660895188
% es.Ez (V/m) @ t=0.3
0.04044221057973647
% es.tEx (V/m) @ t=0.3
-0.04776856295156984
% es.tEy (V/m) @ t=0.3
0
% es.tEz (V/m) @ t=0.3
0.04044221057973951
% V (V) @ t=0.3
0.01135069056539394
% es.normE (V/m) @ t=0.32
0.06508976282169517
% es.EX (V/m) @ t=0.32
-0.04821836619947817
% es.EY (V/m) @ t=0.32
-0.015657202012928195
% es.EZ (V/m) @ t=0.32
0.04082301324454024
% es.tEX (V/m) @ t=0.32
-0.048218366199488716
% es.tEY (V/m) @ t=0.32
0
% es.tEZ (V/m) @ t=0.32
0.04082301324454041
% es.Ex (V/m) @ t=0.32
-0.04821836619947817
% es.Ey (V/m) @ t=0.32
-0.015657202012928195
% es.Ez (V/m) @ t=0.32
0.04082301324454024
% es.tEx (V/m) @ t=0.32
-0.048218366199488716
% es.tEy (V/m) @ t=0.32
0
% es.tEz (V/m) @ t=0.32
0.04082301324454041
% V (V) @ t=0.32
0.011457592373829963
% es.normE (V/m) @ t=0.34
0.06569694860518994
% es.EX (V/m) @ t=0.34
-0.048668169447395826
% es.EY (V/m) @ t=0.34
-0.01580328741689918
% es.EZ (V/m) @ t=0.34
0.04120381590934767
% es.tEX (V/m) @ t=0.34
-0.04866816944739871
% es.tEY (V/m) @ t=0.34
0
% es.tEZ (V/m) @ t=0.34
0.04120381590935196
% es.Ex (V/m) @ t=0.34
-0.048668169447395826
% es.Ey (V/m) @ t=0.34
-0.01580328741689918
% es.Ez (V/m) @ t=0.34
0.04120381590934767
% es.tEx (V/m) @ t=0.34
-0.04866816944739871
% es.tEy (V/m) @ t=0.34
0
% es.tEz (V/m) @ t=0.34
0.04120381590935196
% V (V) @ t=0.34
0.011564494182265987
% es.normE (V/m) @ t=0.36
0.06630413438869444
% es.EX (V/m) @ t=0.36
-0.049117972695297496
% es.EY (V/m) @ t=0.36
-0.015949372820891483
% es.EZ (V/m) @ t=0.36
0.041584618574158766
% es.tEX (V/m) @ t=0.36
-0.04911797269529622
% es.tEY (V/m) @ t=0.36
0
% es.tEZ (V/m) @ t=0.36
0.041584618574163956
% es.Ex (V/m) @ t=0.36
-0.049117972695297496
% es.Ey (V/m) @ t=0.36
-0.015949372820891483
% es.Ez (V/m) @ t=0.36
0.041584618574158766
% es.tEx (V/m) @ t=0.36
-0.04911797269529622
% es.tEy (V/m) @ t=0.36
0
% es.tEz (V/m) @ t=0.36
0.041584618574163956
% V (V) @ t=0.36
0.011671395990702013
% es.normE (V/m) @ t=0.38
0.06691132017221804
% es.EX (V/m) @ t=0.38
-0.04956777594321338
% es.EY (V/m) @ t=0.38
-0.016095458224873127
% es.EZ (V/m) @ t=0.38
0.04196542123896571
% es.tEX (V/m) @ t=0.38
-0.049567775943202774
% es.tEY (V/m) @ t=0.38
0
% es.tEZ (V/m) @ t=0.38
0.0419654212389684
% es.Ex (V/m) @ t=0.38
-0.04956777594321338
% es.Ey (V/m) @ t=0.38
-0.016095458224873127
% es.Ez (V/m) @ t=0.38
0.04196542123896571
% es.tEx (V/m) @ t=0.38
-0.049567775943202774
% es.tEy (V/m) @ t=0.38
0
% es.tEz (V/m) @ t=0.38
0.0419654212389684
% V (V) @ t=0.38
0.011778297799138037
% es.normE (V/m) @ t=0.4
0.0675185059557448
% es.EX (V/m) @ t=0.4
-0.05001757919111505
% es.EY (V/m) @ t=0.4
-0.01624154362885477
% es.EZ (V/m) @ t=0.4
0.04234622390377314
% es.tEX (V/m) @ t=0.4
-0.0500175791911181
% es.tEY (V/m) @ t=0.4
0
% es.tEZ (V/m) @ t=0.4
0.0423462239037764
% es.Ex (V/m) @ t=0.4
-0.05001757919111505
% es.Ey (V/m) @ t=0.4
-0.01624154362885477
% es.Ez (V/m) @ t=0.4
0.04234622390377314
% es.tEx (V/m) @ t=0.4
-0.0500175791911181
% es.tEy (V/m) @ t=0.4
0
% es.tEz (V/m) @ t=0.4
0.0423462239037764
% V (V) @ t=0.4
0.011885199607574056
% es.normE (V/m) @ t=0.42
0.06812569173928579
% es.EX (V/m) @ t=0.42
-0.05046738243902382
% es.EY (V/m) @ t=0.42
-0.01638762903282931
% es.EZ (V/m) @ t=0.42
0.042727026568576854
% es.tEX (V/m) @ t=0.42
-0.05046738243903165
% es.tEY (V/m) @ t=0.42
0
% es.tEZ (V/m) @ t=0.42
0.042727026568581294
% es.Ex (V/m) @ t=0.42
-0.05046738243902382
% es.Ey (V/m) @ t=0.42
-0.01638762903282931
% es.Ez (V/m) @ t=0.42
0.042727026568576854
% es.tEx (V/m) @ t=0.42
-0.05046738243903165
% es.tEy (V/m) @ t=0.42
0
% es.tEz (V/m) @ t=0.42
0.042727026568581294
% V (V) @ t=0.42
0.011992101416010082
% es.normE (V/m) @ t=0.44
0.06873287752284762
% es.EX (V/m) @ t=0.44
-0.0509171856869397
% es.EY (V/m) @ t=0.44
-0.0165337144368074
% es.EZ (V/m) @ t=0.44
0.04310782923338384
% es.tEX (V/m) @ t=0.44
-0.050917185686939925
% es.tEY (V/m) @ t=0.44
0
% es.tEZ (V/m) @ t=0.44
0.043107829233389294
% es.Ex (V/m) @ t=0.44
-0.0509171856869397
% es.Ey (V/m) @ t=0.44
-0.0165337144368074
% es.Ez (V/m) @ t=0.44
0.04310782923338384
% es.tEx (V/m) @ t=0.44
-0.050917185686939925
% es.tEy (V/m) @ t=0.44
0
% es.tEz (V/m) @ t=0.44
0.043107829233389294
% V (V) @ t=0.44
0.012099003224446105
% es.normE (V/m) @ t=0.46
0.0694136396688548
% es.EX (V/m) @ t=0.46
-0.051421496384243426
% es.EY (V/m) @ t=0.46
-0.01669754945237578
% es.EZ (V/m) @ t=0.46
0.04353475535670688
% es.tEX (V/m) @ t=0.46
-0.05142149638424548
% es.tEY (V/m) @ t=0.46
0
% es.tEZ (V/m) @ t=0.46
0.0435347553567107
% es.Ex (V/m) @ t=0.46
-0.051421496384243426
% es.Ey (V/m) @ t=0.46
-0.01669754945237578
% es.Ez (V/m) @ t=0.46
0.04353475535670688
% es.tEx (V/m) @ t=0.46
-0.05142149638424548
% es.tEy (V/m) @ t=0.46
0
% es.tEz (V/m) @ t=0.46
0.0435347553567107
% V (V) @ t=0.46
0.012218893350761699
% es.normE (V/m) @ t=0.48
0.07009812864051924
% es.EX (V/m) @ t=0.48
-0.051928568019281585
% es.EY (V/m) @ t=0.48
-0.016862283529865962
% es.EZ (V/m) @ t=0.48
0.043964017747790546
% es.tEX (V/m) @ t=0.48
-0.051928568019273036
% es.tEY (V/m) @ t=0.48
0
% es.tEZ (V/m) @ t=0.48
0.04396401774779024
% es.Ex (V/m) @ t=0.48
-0.051928568019281585
% es.Ey (V/m) @ t=0.48
-0.016862283529865962
% es.Ez (V/m) @ t=0.48
0.043964017747790546
% es.tEx (V/m) @ t=0.48
-0.051928568019273036
% es.tEy (V/m) @ t=0.48
0
% es.tEz (V/m) @ t=0.48
0.04396401774779024
% V (V) @ t=0.48
0.012339441367647034
% es.normE (V/m) @ t=0.5
0.07078261761228495
% es.EX (V/m) @ t=0.5
-0.05243563965431619
% es.EY (V/m) @ t=0.5
-0.017027017607350814
% es.EZ (V/m) @ t=0.5
0.04439328013887486
% es.tEX (V/m) @ t=0.5
-0.0524356396543183
% es.tEY (V/m) @ t=0.5
0
% es.tEZ (V/m) @ t=0.5
0.04439328013887778
% es.Ex (V/m) @ t=0.5
-0.05243563965431619
% es.Ey (V/m) @ t=0.5
-0.017027017607350814
% es.Ez (V/m) @ t=0.5
0.04439328013887486
% es.tEx (V/m) @ t=0.5
-0.0524356396543183
% es.tEy (V/m) @ t=0.5
0
% es.tEz (V/m) @ t=0.5
0.04439328013887778
% V (V) @ t=0.5
0.012459989384532367
% es.normE (V/m) @ t=0.52
0.07146710658415797
% es.EX (V/m) @ t=0.52
-0.05294271128935435
% es.EY (V/m) @ t=0.52
-0.017191751684830336
% es.EZ (V/m) @ t=0.52
0.044822542529965884
% es.tEX (V/m) @ t=0.52
-0.05294271128935468
% es.tEY (V/m) @ t=0.52
0
% es.tEZ (V/m) @ t=0.52
0.0448225425299682
% es.Ex (V/m) @ t=0.52
-0.05294271128935435
% es.Ey (V/m) @ t=0.52
-0.017191751684830336
% es.Ez (V/m) @ t=0.52
0.044822542529965884
% es.tEx (V/m) @ t=0.52
-0.05294271128935468
% es.tEy (V/m) @ t=0.52
0
% es.tEz (V/m) @ t=0.52
0.0448225425299682
% V (V) @ t=0.52
0.0125805374014177
% es.normE (V/m) @ t=0.54
0.07215159555613217
% es.EX (V/m) @ t=0.54
-0.05344978292439606
% es.EY (V/m) @ t=0.54
-0.017356485762316964
% es.EZ (V/m) @ t=0.54
0.0452518049210537
% es.tEX (V/m) @ t=0.54
-0.05344978292439995
% es.tEY (V/m) @ t=0.54
0
% es.tEZ (V/m) @ t=0.54
0.045251804921051964
% es.Ex (V/m) @ t=0.54
-0.05344978292439606
% es.Ey (V/m) @ t=0.54
-0.017356485762316964
% es.Ez (V/m) @ t=0.54
0.0452518049210537
% es.tEx (V/m) @ t=0.54
-0.05344978292439995
% es.tEy (V/m) @ t=0.54
0
% es.tEz (V/m) @ t=0.54
0.045251804921051964
% V (V) @ t=0.54
0.012701085418303035
% es.normE (V/m) @ t=0.56
0.07283608452820158
% es.EX (V/m) @ t=0.56
-0.05395685455943422
% es.EY (V/m) @ t=0.56
-0.017521219839812474
% es.EZ (V/m) @ t=0.56
0.045681067312140916
% es.tEX (V/m) @ t=0.56
-0.05395685455942928
% es.tEY (V/m) @ t=0.56
0
% es.tEZ (V/m) @ t=0.56
0.04568106731214239
% es.Ex (V/m) @ t=0.56
-0.05395685455943422
% es.Ey (V/m) @ t=0.56
-0.017521219839812474
% es.Ez (V/m) @ t=0.56
0.045681067312140916
% es.tEx (V/m) @ t=0.56
-0.05395685455942928
% es.tEy (V/m) @ t=0.56
0
% es.tEz (V/m) @ t=0.56
0.04568106731214239
% V (V) @ t=0.56
0.01282163343518837
% es.normE (V/m) @ t=0.58
0.07352057350036084
% es.EX (V/m) @ t=0.58
-0.054463926194474155
% es.EY (V/m) @ t=0.58
-0.01768595391729555
% es.EZ (V/m) @ t=0.58
0.04611032970322519
% es.tEX (V/m) @ t=0.58
-0.05446392619446211
% es.tEY (V/m) @ t=0.58
0
% es.tEZ (V/m) @ t=0.58
0.0461103297032297
% es.Ex (V/m) @ t=0.58
-0.054463926194474155
% es.Ey (V/m) @ t=0.58
-0.01768595391729555
% es.Ez (V/m) @ t=0.58
0.04611032970322519
% es.tEx (V/m) @ t=0.58
-0.05446392619446211
% es.tEy (V/m) @ t=0.58
0
% es.tEz (V/m) @ t=0.58
0.0461103297032297
% V (V) @ t=0.58
0.012942181452073704
% es.normE (V/m) @ t=0.6
0.07420506247261041
% es.EX (V/m) @ t=0.6
-0.05497099782951054
% es.EY (V/m) @ t=0.6
-0.017850687994778625
% es.EZ (V/m) @ t=0.6
0.04653959209431287
% es.tEX (V/m) @ t=0.6
-0.054970997829505486
% es.tEY (V/m) @ t=0.6
0
% es.tEZ (V/m) @ t=0.6
0.046539592094313464
% es.Ex (V/m) @ t=0.6
-0.05497099782951054
% es.Ey (V/m) @ t=0.6
-0.017850687994778625
% es.Ez (V/m) @ t=0.6
0.04653959209431287
% es.tEx (V/m) @ t=0.6
-0.054970997829505486
% es.tEy (V/m) @ t=0.6
0
% es.tEz (V/m) @ t=0.6
0.046539592094313464
% V (V) @ t=0.6
0.013062729468959039
% es.normE (V/m) @ t=0.62
0.07488955144493983
% es.EX (V/m) @ t=0.62
-0.05547806946453626
% es.EY (V/m) @ t=0.62
-0.018015422072268805
% es.EZ (V/m) @ t=0.62
0.04696885448539692
% es.tEX (V/m) @ t=0.62
-0.055478069464538315
% es.tEY (V/m) @ t=0.62
0
% es.tEZ (V/m) @ t=0.62
0.046968854485400335
% es.Ex (V/m) @ t=0.62
-0.05547806946453626
% es.Ey (V/m) @ t=0.62
-0.018015422072268805
% es.Ez (V/m) @ t=0.62
0.04696885448539692
% es.tEx (V/m) @ t=0.62
-0.055478069464538315
% es.tEy (V/m) @ t=0.62
0
% es.tEz (V/m) @ t=0.62
0.046968854485400335
% V (V) @ t=0.62
0.013183277485844374
% es.normE (V/m) @ t=0.64
0.07557404041737367
% es.EX (V/m) @ t=0.64
-0.0559851410995833
% es.EY (V/m) @ t=0.64
-0.018180156149760762
% es.EZ (V/m) @ t=0.64
0.04739811687648458
% es.tEX (V/m) @ t=0.64
-0.05598514109957825
% es.tEY (V/m) @ t=0.64
0
% es.tEZ (V/m) @ t=0.64
0.047398116876483876
% es.Ex (V/m) @ t=0.64
-0.0559851410995833
% es.Ey (V/m) @ t=0.64
-0.018180156149760762
% es.Ez (V/m) @ t=0.64
0.04739811687648458
% es.tEx (V/m) @ t=0.64
-0.05598514109957825
% es.tEy (V/m) @ t=0.64
0
% es.tEz (V/m) @ t=0.64
0.047398116876483876
% V (V) @ t=0.64
0.013303825502729707
% es.normE (V/m) @ t=0.66
0.07625852938988349
% es.EX (V/m) @ t=0.66
-0.05649221273462324
% es.EY (V/m) @ t=0.66
-0.018344890227243837
% es.EZ (V/m) @ t=0.66
0.04782737926757194
% es.tEX (V/m) @ t=0.66
-0.05649221273461291
% es.tEY (V/m) @ t=0.66
0
% es.tEZ (V/m) @ t=0.66
0.04782737926757452
% es.Ex (V/m) @ t=0.66
-0.05649221273462324
% es.Ey (V/m) @ t=0.66
-0.018344890227243837
% es.Ez (V/m) @ t=0.66
0.04782737926757194
% es.tEx (V/m) @ t=0.66
-0.05649221273461291
% es.tEy (V/m) @ t=0.66
0
% es.tEz (V/m) @ t=0.66
0.04782737926757452
% V (V) @ t=0.66
0.013424373519615042
% es.normE (V/m) @ t=0.68
0.07694301836246446
% es.EX (V/m) @ t=0.68
-0.05699928436965429
% es.EY (V/m) @ t=0.68
-0.018509624304719807
% es.EZ (V/m) @ t=0.68
0.0482566416586562
% es.tEX (V/m) @ t=0.68
-0.0569992843696564
% es.tEY (V/m) @ t=0.68
0
% es.tEZ (V/m) @ t=0.68
0.048256641658658284
% es.Ex (V/m) @ t=0.68
-0.05699928436965429
% es.Ey (V/m) @ t=0.68
-0.018509624304719807
% es.Ez (V/m) @ t=0.68
0.0482566416586562
% es.tEx (V/m) @ t=0.68
-0.0569992843696564
% es.tEy (V/m) @ t=0.68
0
% es.tEz (V/m) @ t=0.68
0.048256641658658284
% V (V) @ t=0.68
0.013544921536500377
% es.normE (V/m) @ t=0.7
0.07762750733513896
% es.EX (V/m) @ t=0.7
-0.05750635600469245
% es.EY (V/m) @ t=0.7
-0.018674358382206435
% es.EZ (V/m) @ t=0.7
0.0486859040497508
% es.tEX (V/m) @ t=0.7
-0.057506356004691006
% es.tEY (V/m) @ t=0.7
0
% es.tEZ (V/m) @ t=0.7
0.04868590404974893
% es.Ex (V/m) @ t=0.7
-0.05750635600469245
% es.Ey (V/m) @ t=0.7
-0.018674358382206435
% es.Ez (V/m) @ t=0.7
0.0486859040497508
% es.tEx (V/m) @ t=0.7
-0.057506356004691006
% es.tEy (V/m) @ t=0.7
0
% es.tEz (V/m) @ t=0.7
0.04868590404974893
% V (V) @ t=0.7
0.013665469553385708
% es.normE (V/m) @ t=0.72
0.07831199630787769
% es.EX (V/m) @ t=0.72
-0.05801342763972528
% es.EY (V/m) @ t=0.72
-0.018839092459693063
% es.EZ (V/m) @ t=0.72
0.04911516644083112
% es.tEX (V/m) @ t=0.72
-0.058013427639723836
% es.tEY (V/m) @ t=0.72
0
% es.tEZ (V/m) @ t=0.72
0.04911516644083935
% es.Ex (V/m) @ t=0.72
-0.05801342763972528
% es.Ey (V/m) @ t=0.72
-0.018839092459693063
% es.Ez (V/m) @ t=0.72
0.04911516644083112
% es.tEx (V/m) @ t=0.72
-0.058013427639723836
% es.tEy (V/m) @ t=0.72
0
% es.tEz (V/m) @ t=0.72
0.04911516644083935
% V (V) @ t=0.72
0.013786017570271043
% es.normE (V/m) @ t=0.74
0.07901676797154669
% es.EX (V/m) @ t=0.74
-0.0585355236592644
% es.EY (V/m) @ t=0.74
-0.019008682885534256
% es.EZ (V/m) @ t=0.74
0.04955715957923881
% es.tEX (V/m) @ t=0.74
-0.058535523659264344
% es.tEY (V/m) @ t=0.74
0
% es.tEZ (V/m) @ t=0.74
0.049557159579242116
% es.Ex (V/m) @ t=0.74
-0.0585355236592644
% es.Ey (V/m) @ t=0.74
-0.019008682885534256
% es.Ez (V/m) @ t=0.74
0.04955715957923881
% es.tEx (V/m) @ t=0.74
-0.058535523659264344
% es.tEy (V/m) @ t=0.74
0
% es.tEz (V/m) @ t=0.74
0.049557159579242116
% V (V) @ t=0.74
0.013910119560468127
% es.normE (V/m) @ t=0.76
0.07978031012831331
% es.EX (V/m) @ t=0.76
-0.059101153867207046
% es.EY (V/m) @ t=0.76
-0.01919234491512789
% es.EZ (V/m) @ t=0.76
0.050036040934443776
% es.tEX (V/m) @ t=0.76
-0.059101153867205936
% es.tEY (V/m) @ t=0.76
0
% es.tEZ (V/m) @ t=0.76
0.050036040934449355
% es.Ex (V/m) @ t=0.76
-0.059101153867207046
% es.Ey (V/m) @ t=0.76
-0.01919234491512789
% es.Ez (V/m) @ t=0.76
0.050036040934443776
% es.tEx (V/m) @ t=0.76
-0.059101153867205936
% es.tEy (V/m) @ t=0.76
0
% es.tEz (V/m) @ t=0.76
0.050036040934449355
% V (V) @ t=0.76
0.014044519433003508
% es.normE (V/m) @ t=0.78
0.08054385228507809
% es.EX (V/m) @ t=0.78
-0.05966678407514969
% es.EY (V/m) @ t=0.78
-0.01937600694471797
% es.EZ (V/m) @ t=0.78
0.050514922289638164
% es.tEX (V/m) @ t=0.78
-0.05966678407515824
% es.tEY (V/m) @ t=0.78
0
% es.tEZ (V/m) @ t=0.78
0.05051492228964216
% es.Ex (V/m) @ t=0.78
-0.05966678407514969
% es.Ey (V/m) @ t=0.78
-0.01937600694471797
% es.Ez (V/m) @ t=0.78
0.050514922289638164
% es.tEx (V/m) @ t=0.78
-0.05966678407515824
% es.tEy (V/m) @ t=0.78
0
% es.tEz (V/m) @ t=0.78
0.05051492228964216
% V (V) @ t=0.78
0.014178919305538887
% es.normE (V/m) @ t=0.8
0.08130739444185558
% es.EX (V/m) @ t=0.8
-0.060232414283099445
% es.EY (V/m) @ t=0.8
-0.019559668974297395
% es.EZ (V/m) @ t=0.8
0.05099380364483977
% es.tEX (V/m) @ t=0.8
-0.060232414283106994
% es.tEY (V/m) @ t=0.8
0
% es.tEZ (V/m) @ t=0.8
0.05099380364484252
% es.Ex (V/m) @ t=0.8
-0.060232414283099445
% es.Ey (V/m) @ t=0.8
-0.019559668974297395
% es.Ez (V/m) @ t=0.8
0.05099380364483977
% es.tEx (V/m) @ t=0.8
-0.060232414283106994
% es.tEy (V/m) @ t=0.8
0
% es.tEz (V/m) @ t=0.8
0.05099380364484252
% V (V) @ t=0.8
0.014313319178074263
% es.normE (V/m) @ t=0.82
0.08207093659864272
% es.EX (V/m) @ t=0.82
-0.06079804449105097
% es.EY (V/m) @ t=0.82
-0.019743331003889253
% es.EZ (V/m) @ t=0.82
0.051472685000041374
% es.tEX (V/m) @ t=0.82
-0.06079804449105397
% es.tEY (V/m) @ t=0.82
0
% es.tEZ (V/m) @ t=0.82
0.051472685000049534
% es.Ex (V/m) @ t=0.82
-0.06079804449105097
% es.Ey (V/m) @ t=0.82
-0.019743331003889253
% es.Ez (V/m) @ t=0.82
0.051472685000041374
% es.tEx (V/m) @ t=0.82
-0.06079804449105397
% es.tEy (V/m) @ t=0.82
0
% es.tEz (V/m) @ t=0.82
0.051472685000049534
% V (V) @ t=0.82
0.014447719050609646
% es.normE (V/m) @ t=0.84
0.08283447875542922
% es.EX (V/m) @ t=0.84
-0.06136367469899717
% es.EY (V/m) @ t=0.84
-0.019926993033482887
% es.EZ (V/m) @ t=0.84
0.051951566355239315
% es.tEX (V/m) @ t=0.84
-0.06136367469899551
% es.tEY (V/m) @ t=0.84
0
% es.tEZ (V/m) @ t=0.84
0.05195156635524256
% es.Ex (V/m) @ t=0.84
-0.06136367469899717
% es.Ey (V/m) @ t=0.84
-0.019926993033482887
% es.Ez (V/m) @ t=0.84
0.051951566355239315
% es.tEx (V/m) @ t=0.84
-0.06136367469899551
% es.tEy (V/m) @ t=0.84
0
% es.tEz (V/m) @ t=0.84
0.05195156635524256
% V (V) @ t=0.84
0.014582118923145024
% es.normE (V/m) @ t=0.86
0.08359802091222744
% es.EX (V/m) @ t=0.86
-0.06192930490695403
% es.EY (V/m) @ t=0.86
-0.02011065506306231
% es.EZ (V/m) @ t=0.86
0.05243044771044075
% es.tEX (V/m) @ t=0.86
-0.061929304906951255
% es.tEY (V/m) @ t=0.86
0
% es.tEZ (V/m) @ t=0.86
0.05243044771044625
% es.Ex (V/m) @ t=0.86
-0.06192930490695403
% es.Ey (V/m) @ t=0.86
-0.02011065506306231
% es.Ez (V/m) @ t=0.86
0.05243044771044075
% es.tEx (V/m) @ t=0.86
-0.061929304906951255
% es.tEy (V/m) @ t=0.86
0
% es.tEz (V/m) @ t=0.86
0.05243044771044625
% V (V) @ t=0.86
0.014716518795680403
% es.normE (V/m) @ t=0.88
0.08436156306901602
% es.EX (V/m) @ t=0.88
-0.0624949351148949
% es.EY (V/m) @ t=0.88
-0.02029431709264884
% es.EZ (V/m) @ t=0.88
0.05290932906563514
% es.tEX (V/m) @ t=0.88
-0.06249493511489468
% es.tEY (V/m) @ t=0.88
0
% es.tEZ (V/m) @ t=0.88
0.052909329065639055
% es.Ex (V/m) @ t=0.88
-0.0624949351148949
% es.Ey (V/m) @ t=0.88
-0.02029431709264884
% es.Ez (V/m) @ t=0.88
0.05290932906563514
% es.tEx (V/m) @ t=0.88
-0.06249493511489468
% es.tEy (V/m) @ t=0.88
0
% es.tEz (V/m) @ t=0.88
0.052909329065639055
% V (V) @ t=0.88
0.014850918668215782
% es.normE (V/m) @ t=0.9
0.08512510522582313
% es.EX (V/m) @ t=0.9
-0.06306056532284998
% es.EY (V/m) @ t=0.9
-0.02047797912223004
% es.EZ (V/m) @ t=0.9
0.053388210420836746
% es.tEX (V/m) @ t=0.9
-0.06306056532284521
% es.tEY (V/m) @ t=0.9
0
% es.tEZ (V/m) @ t=0.9
0.05338821042083919
% es.Ex (V/m) @ t=0.9
-0.06306056532284998
% es.Ey (V/m) @ t=0.9
-0.02047797912223004
% es.Ez (V/m) @ t=0.9
0.053388210420836746
% es.tEx (V/m) @ t=0.9
-0.06306056532284521
% es.tEy (V/m) @ t=0.9
0
% es.tEz (V/m) @ t=0.9
0.05338821042083919
% V (V) @ t=0.9
0.014985318540751158
% es.normE (V/m) @ t=0.92
0.0858886473826215
% es.EX (V/m) @ t=0.92
-0.06362619553078552
% es.EY (V/m) @ t=0.92
-0.020661641151816568
% es.EZ (V/m) @ t=0.92
0.05386709177603802
% es.tEX (V/m) @ t=0.92
-0.06362619553079041
% es.tEY (V/m) @ t=0.92
0
% es.tEZ (V/m) @ t=0.92
0.05386709177604265
% es.Ex (V/m) @ t=0.92
-0.06362619553078552
% es.Ey (V/m) @ t=0.92
-0.020661641151816568
% es.Ez (V/m) @ t=0.92
0.05386709177603802
% es.tEx (V/m) @ t=0.92
-0.06362619553079041
% es.tEy (V/m) @ t=0.92
0
% es.tEz (V/m) @ t=0.92
0.05386709177604265
% V (V) @ t=0.92
0.01511971841328654
% es.normE (V/m) @ t=0.94
0.08665218953943203
% es.EX (V/m) @ t=0.94
-0.06419182573873528
% es.EY (V/m) @ t=0.94
-0.020845303181399544
% es.EZ (V/m) @ t=0.94
0.05434597313123607
% es.tEX (V/m) @ t=0.94
-0.06419182573873916
% es.tEY (V/m) @ t=0.94
0
% es.tEZ (V/m) @ t=0.94
0.05434597313123901
% es.Ex (V/m) @ t=0.94
-0.06419182573873528
% es.Ey (V/m) @ t=0.94
-0.020845303181399544
% es.Ez (V/m) @ t=0.94
0.05434597313123607
% es.tEx (V/m) @ t=0.94
-0.06419182573873916
% es.tEy (V/m) @ t=0.94
0
% es.tEz (V/m) @ t=0.94
0.05434597313123901
% V (V) @ t=0.94
0.015254118285821919
% es.normE (V/m) @ t=0.96
0.08741573169624424
% es.EX (V/m) @ t=0.96
-0.06475745594667792
% es.EY (V/m) @ t=0.96
-0.021028965210984296
% es.EZ (V/m) @ t=0.96
0.05482485448643745
% es.tEX (V/m) @ t=0.96
-0.06475745594668436
% es.tEY (V/m) @ t=0.96
0
% es.tEZ (V/m) @ t=0.96
0.0548248544864427
% es.Ex (V/m) @ t=0.96
-0.06475745594667792
% es.Ey (V/m) @ t=0.96
-0.021028965210984296
% es.Ez (V/m) @ t=0.96
0.05482485448643745
% es.tEx (V/m) @ t=0.96
-0.06475745594668436
% es.tEy (V/m) @ t=0.96
0
% es.tEz (V/m) @ t=0.96
0.0548248544864427
% V (V) @ t=0.96
0.015388518158357302
% es.normE (V/m) @ t=0.98
0.08817927385306308
% es.EX (V/m) @ t=0.98
-0.06532308615462767
% es.EY (V/m) @ t=0.98
-0.021212627240556614
% es.EZ (V/m) @ t=0.98
0.055303735841638946
% es.tEX (V/m) @ t=0.98
-0.065323086154633
% es.tEY (V/m) @ t=0.98
0
% es.tEZ (V/m) @ t=0.98
0.05530373584164261
% es.Ex (V/m) @ t=0.98
-0.06532308615462767
% es.Ey (V/m) @ t=0.98
-0.021212627240556614
% es.Ez (V/m) @ t=0.98
0.055303735841638946
% es.tEx (V/m) @ t=0.98
-0.065323086154633
% es.tEy (V/m) @ t=0.98
0
% es.tEz (V/m) @ t=0.98
0.05530373584164261
% V (V) @ t=0.98
0.015522918030892676
% es.normE (V/m) @ t=1
0.08894558110631569
% es.EX (V/m) @ t=1
-0.06589076460879895
% es.EY (V/m) @ t=1
-0.021396951371988493
% es.EZ (V/m) @ t=1
0.05578435273078636
% es.tEX (V/m) @ t=1
-0.06589076460880161
% es.tEY (V/m) @ t=1
0
% es.tEZ (V/m) @ t=1
0.055784352730788855
% es.Ex (V/m) @ t=1
-0.06589076460879895
% es.Ey (V/m) @ t=1
-0.021396951371988493
% es.Ez (V/m) @ t=1
0.05578435273078636
% es.tEx (V/m) @ t=1
-0.06589076460880161
% es.tEy (V/m) @ t=1
0
% es.tEz (V/m) @ t=1