% Model:              1 neuron.mph
% Version:            COMSOL 6.1.0.252
% Date:               Mar 26 2023, 14:50
% Dimension:          0
% Nodes:              14017
% Expressions:        14017
% Description:        Electric field norm, Electric field, X component, Electric field, Y component, Electric field, Z component, Tangential electric field, X component, Tangential electric field, Y component, Tangential electric field, Z component, Electric field, x component, Electric field, y component, Electric field, z component, Tangential electric field, x component, Tangential electric field, y component, Tangential electric field, z component, Electric potential
% Length unit:        mm
% x
2
% y
14.200000000000001
% z
2
% es.normE (V/m) @ t=0
0.05282311027908238
% es.EX (V/m) @ t=0
-0.03499980955827109
% es.EY (V/m) @ t=0
0.01715314205338636
% es.EZ (V/m) @ t=0
-0.035651984911603485
% es.tEX (V/m) @ t=0
-0.034999809558267536
% es.tEY (V/m) @ t=0
0
% es.tEZ (V/m) @ t=0
-0.03565198491160304
% es.Ex (V/m) @ t=0
-0.03499980955827109
% es.Ey (V/m) @ t=0
0.01715314205338636
% es.Ez (V/m) @ t=0
-0.035651984911603485
% es.tEx (V/m) @ t=0
-0.034999809558267536
% es.tEy (V/m) @ t=0
0
% es.tEz (V/m) @ t=0
-0.03565198491160304
% V (V) @ t=0
0.01097667936994689
% es.normE (V/m) @ t=0.02
0.04837483302671899
% es.EX (V/m) @ t=0.02
-0.032052447016488905
% es.EY (V/m) @ t=0.02
0.01570866195700482
% es.EZ (V/m) @ t=0.02
-0.03264970214471585
% es.tEX (V/m) @ t=0.02
-0.03205244701648913
% es.tEY (V/m) @ t=0.02
0
% es.tEZ (V/m) @ t=0.02
-0.032649702144715576
% es.Ex (V/m) @ t=0.02
-0.032052447016488905
% es.Ey (V/m) @ t=0.02
0.01570866195700482
% es.Ez (V/m) @ t=0.02
-0.03264970214471585
% es.tEx (V/m) @ t=0.02
-0.03205244701648913
% es.tEy (V/m) @ t=0.02
0
% es.tEz (V/m) @ t=0.02
-0.032649702144715576
% V (V) @ t=0.02
0.010052324245360789
% es.normE (V/m) @ t=0.04
0.04881867296326711
% es.EX (V/m) @ t=0.04
-0.03234652799121296
% es.EY (V/m) @ t=0.04
0.015852789463126626
% es.EZ (V/m) @ t=0.04
-0.03294926437791723
% es.tEX (V/m) @ t=0.04
-0.032346527991211516
% es.tEY (V/m) @ t=0.04
0
% es.tEZ (V/m) @ t=0.04
-0.032949264377915566
% es.Ex (V/m) @ t=0.04
-0.03234652799121296
% es.Ey (V/m) @ t=0.04
0.015852789463126626
% es.Ez (V/m) @ t=0.04
-0.03294926437791723
% es.tEx (V/m) @ t=0.04
-0.032346527991211516
% es.tEy (V/m) @ t=0.04
0
% es.tEz (V/m) @ t=0.04
-0.032949264377915566
% V (V) @ t=0.04
0.01014455472439711
% es.normE (V/m) @ t=0.06
0.04926773007652573
% es.EX (V/m) @ t=0.06
-0.03264406879822346
% es.EY (V/m) @ t=0.06
0.015998610162325733
% es.EZ (V/m) @ t=0.06
-0.033252345361856506
% es.tEX (V/m) @ t=0.06
-0.0326440687982239
% es.tEY (V/m) @ t=0.06
0
% es.tEZ (V/m) @ t=0.06
-0.03325234536185584
% es.Ex (V/m) @ t=0.06
-0.03264406879822346
% es.Ey (V/m) @ t=0.06
0.015998610162325733
% es.Ez (V/m) @ t=0.06
-0.033252345361856506
% es.tEx (V/m) @ t=0.06
-0.0326440687982239
% es.tEy (V/m) @ t=0.06
0
% es.tEz (V/m) @ t=0.06
-0.03325234536185584
% V (V) @ t=0.06
0.010237868508179045
% es.normE (V/m) @ t=0.08
0.049720804438393176
% es.EX (V/m) @ t=0.08
-0.03294429839631974
% es.EY (V/m) @ t=0.08
0.016145726783435066
% es.EZ (V/m) @ t=0.08
-0.03355811531969355
% es.tEX (V/m) @ t=0.08
-0.032944298396319516
% es.tEY (V/m) @ t=0.08
0
% es.tEZ (V/m) @ t=0.08
-0.03355811531969349
% es.Ex (V/m) @ t=0.08
-0.03294429839631974
% es.Ey (V/m) @ t=0.08
0.016145726783435066
% es.Ez (V/m) @ t=0.08
-0.03355811531969355
% es.tEx (V/m) @ t=0.08
-0.032944298396319516
% es.tEy (V/m) @ t=0.08
0
% es.tEz (V/m) @ t=0.08
-0.03355811531969349
% V (V) @ t=0.08
0.01033200993807512
% es.normE (V/m) @ t=0.1
0.050182532292732326
% es.EX (V/m) @ t=0.1
-0.033250319877175194
% es.EY (V/m) @ t=0.1
0.01629563492961239
% es.EZ (V/m) @ t=0.1
-0.033869677554081434
% es.tEX (V/m) @ t=0.1
-0.03325031987717797
% es.tEY (V/m) @ t=0.1
0
% es.tEZ (V/m) @ t=0.1
-0.0338696775540806
% es.Ex (V/m) @ t=0.1
-0.033250319877175194
% es.Ey (V/m) @ t=0.1
0.01629563492961239
% es.Ez (V/m) @ t=0.1
-0.033869677554081434
% es.tEx (V/m) @ t=0.1
-0.03325031987717797
% es.tEy (V/m) @ t=0.1
0
% es.tEz (V/m) @ t=0.1
-0.0338696775540806
% V (V) @ t=0.1
0.01042793418750023
% es.normE (V/m) @ t=0.12
0.05064426014732543
% es.EX (V/m) @ t=0.12
-0.033556341358028874
% es.EY (V/m) @ t=0.12
0.01644554307577728
% es.EZ (V/m) @ t=0.12
-0.03418123978845955
% es.tEX (V/m) @ t=0.12
-0.03355634135802954
% es.tEY (V/m) @ t=0.12
0
% es.tEZ (V/m) @ t=0.12
-0.03418123978846066
% es.Ex (V/m) @ t=0.12
-0.033556341358028874
% es.Ey (V/m) @ t=0.12
0.01644554307577728
% es.Ez (V/m) @ t=0.12
-0.03418123978845955
% es.tEx (V/m) @ t=0.12
-0.03355634135802954
% es.tEy (V/m) @ t=0.12
0
% es.tEz (V/m) @ t=0.12
-0.03418123978846066
% V (V) @ t=0.12
0.01052385843692534
% es.normE (V/m) @ t=0.14
0.051105988002179546
% es.EX (V/m) @ t=0.14
-0.03386236283888433
% es.EY (V/m) @ t=0.14
0.01659545122193684
% es.EZ (V/m) @ t=0.14
-0.034492802022842106
% es.tEX (V/m) @ t=0.14
-0.03386236283888544
% es.tEY (V/m) @ t=0.14
0
% es.tEZ (V/m) @ t=0.14
-0.034492802022842495
% es.Ex (V/m) @ t=0.14
-0.03386236283888433
% es.Ey (V/m) @ t=0.14
0.01659545122193684
% es.Ez (V/m) @ t=0.14
-0.034492802022842106
% es.tEx (V/m) @ t=0.14
-0.03386236283888544
% es.tEy (V/m) @ t=0.14
0
% es.tEz (V/m) @ t=0.14
-0.034492802022842495
% V (V) @ t=0.14
0.010619782686350452
% es.normE (V/m) @ t=0.16
0.051585135750176085
% es.EX (V/m) @ t=0.16
-0.03417984430928378
% es.EY (V/m) @ t=0.16
0.016751042211113898
% es.EZ (V/m) @ t=0.16
-0.0348161895990744
% es.tEX (V/m) @ t=0.16
-0.03417984430928156
% es.tEY (V/m) @ t=0.16
0
% es.tEZ (V/m) @ t=0.16
-0.03481618959907434
% es.Ex (V/m) @ t=0.16
-0.03417984430928378
% es.Ey (V/m) @ t=0.16
0.016751042211113898
% es.Ez (V/m) @ t=0.16
-0.0348161895990744
% es.tEx (V/m) @ t=0.16
-0.03417984430928156
% es.tEy (V/m) @ t=0.16
0
% es.tEz (V/m) @ t=0.16
-0.03481618959907434
% V (V) @ t=0.16
0.010719348497544691
% es.normE (V/m) @ t=0.18
0.052074104086386366
% es.EX (V/m) @ t=0.18
-0.03450378643003216
% es.EY (V/m) @ t=0.18
0.016909836943323597
% es.EZ (V/m) @ t=0.18
-0.03514624379561404
% es.tEX (V/m) @ t=0.18
-0.03450378643003238
% es.tEY (V/m) @ t=0.18
0
% es.tEZ (V/m) @ t=0.18
-0.03514624379561393
% es.Ex (V/m) @ t=0.18
-0.03450378643003216
% es.Ey (V/m) @ t=0.18
0.016909836943323597
% es.Ez (V/m) @ t=0.18
-0.03514624379561404
% es.tEx (V/m) @ t=0.18
-0.03450378643003238
% es.tEy (V/m) @ t=0.18
0
% es.tEz (V/m) @ t=0.18
-0.03514624379561393
% V (V) @ t=0.18
0.010820967265002665
% es.normE (V/m) @ t=0.2
0.05256307242265564
% es.EX (V/m) @ t=0.2
-0.03482772855077787
% es.EY (V/m) @ t=0.2
0.01706863167552619
% es.EZ (V/m) @ t=0.2
-0.03547629799215102
% es.tEX (V/m) @ t=0.2
-0.03482772855077787
% es.tEY (V/m) @ t=0.2
0
% es.tEZ (V/m) @ t=0.2
-0.035476297992153516
% es.Ex (V/m) @ t=0.2
-0.03482772855077787
% es.Ey (V/m) @ t=0.2
0.01706863167552619
% es.Ez (V/m) @ t=0.2
-0.03547629799215102
% es.tEx (V/m) @ t=0.2
-0.03482772855077787
% es.tEy (V/m) @ t=0.2
0
% es.tEz (V/m) @ t=0.2
-0.035476297992153516
% V (V) @ t=0.2
0.01092258603246064
% es.normE (V/m) @ t=0.22
0.053052040758993266
% es.EX (V/m) @ t=0.22
-0.035151670671528024
% es.EY (V/m) @ t=0.22
0.017227426407734114
% es.EZ (V/m) @ t=0.22
-0.035806352188688884
% es.tEX (V/m) @ t=0.22
-0.03515167067152691
% es.tEY (V/m) @ t=0.22
0
% es.tEZ (V/m) @ t=0.22
-0.03580635218868777
% es.Ex (V/m) @ t=0.22
-0.035151670671528024
% es.Ey (V/m) @ t=0.22
0.017227426407734114
% es.Ez (V/m) @ t=0.22
-0.035806352188688884
% es.tEx (V/m) @ t=0.22
-0.03515167067152691
% es.tEy (V/m) @ t=0.22
0
% es.tEz (V/m) @ t=0.22
-0.03580635218868777
% V (V) @ t=0.22
0.011024204799918613
% es.normE (V/m) @ t=0.24
0.05354100909538223
% es.EX (V/m) @ t=0.24
-0.03547561279227107
% es.EY (V/m) @ t=0.24
0.017386221139934932
% es.EZ (V/m) @ t=0.24
-0.03613640638522231
% es.tEX (V/m) @ t=0.24
-0.03547561279227218
% es.tEY (V/m) @ t=0.24
0
% es.tEZ (V/m) @ t=0.24
-0.03613640638522386
% es.Ex (V/m) @ t=0.24
-0.03547561279227107
% es.Ey (V/m) @ t=0.24
0.017386221139934932
% es.Ez (V/m) @ t=0.24
-0.03613640638522231
% es.tEx (V/m) @ t=0.24
-0.03547561279227218
% es.tEy (V/m) @ t=0.24
0
% es.tEz (V/m) @ t=0.24
-0.03613640638522386
% V (V) @ t=0.24
0.011125823567376588
% es.normE (V/m) @ t=0.26
0.05402997743184039
% es.EX (V/m) @ t=0.26
-0.03579955491302389
% es.EY (V/m) @ t=0.26
0.017545015872132197
% es.EZ (V/m) @ t=0.26
-0.03646646058176195
% es.tEX (V/m) @ t=0.26
-0.03579955491301767
% es.tEY (V/m) @ t=0.26
0
% es.tEZ (V/m) @ t=0.26
-0.036466460581763394
% es.Ex (V/m) @ t=0.26
-0.03579955491302389
% es.Ey (V/m) @ t=0.26
0.017545015872132197
% es.Ez (V/m) @ t=0.26
-0.03646646058176195
% es.tEx (V/m) @ t=0.26
-0.03579955491301767
% es.tEy (V/m) @ t=0.26
0
% es.tEz (V/m) @ t=0.26
-0.036466460581763394
% V (V) @ t=0.26
0.011227442334834564
% es.normE (V/m) @ t=0.28
0.05451894576835057
% es.EX (V/m) @ t=0.28
-0.03612349703376694
% es.EY (V/m) @ t=0.28
0.017703810604343673
% es.EZ (V/m) @ t=0.28
-0.036796514778295375
% es.tEX (V/m) @ t=0.28
-0.03612349703376316
% es.tEY (V/m) @ t=0.28
0
% es.tEZ (V/m) @ t=0.28
-0.03679651477829593
% es.Ex (V/m) @ t=0.28
-0.03612349703376694
% es.Ey (V/m) @ t=0.28
0.017703810604343673
% es.Ez (V/m) @ t=0.28
-0.036796514778295375
% es.tEx (V/m) @ t=0.28
-0.03612349703376316
% es.tEy (V/m) @ t=0.28
0
% es.tEz (V/m) @ t=0.28
-0.03679651477829593
% V (V) @ t=0.28
0.011329061102292533
% es.normE (V/m) @ t=0.3
0.05501614269962856
% es.EX (V/m) @ t=0.3
-0.03645289930628337
% es.EY (V/m) @ t=0.3
0.017865274851281754
% es.EZ (V/m) @ t=0.3
-0.0371321160749023
% es.tEX (V/m) @ t=0.3
-0.036452899306284925
% es.tEY (V/m) @ t=0.3
0
% es.tEZ (V/m) @ t=0.3
-0.03713211607490596
% es.Ex (V/m) @ t=0.3
-0.03645289930628337
% es.Ey (V/m) @ t=0.3
0.017865274851281754
% es.Ez (V/m) @ t=0.3
-0.0371321160749023
% es.tEx (V/m) @ t=0.3
-0.036452899306284925
% es.tEy (V/m) @ t=0.3
0
% es.tEz (V/m) @ t=0.3
-0.03713211607490596
% V (V) @ t=0.3
0.011432387673388706
% es.normE (V/m) @ t=0.32
0.05553404847595502
% es.EX (V/m) @ t=0.32
-0.03679604310342732
% es.EY (V/m) @ t=0.32
0.01803345744669471
% es.EZ (V/m) @ t=0.32
-0.037481677718302464
% es.tEX (V/m) @ t=0.32
-0.03679604310342999
% es.tEY (V/m) @ t=0.32
0
% es.tEZ (V/m) @ t=0.32
-0.03748167771830546
% es.Ex (V/m) @ t=0.32
-0.03679604310342732
% es.Ey (V/m) @ t=0.32
0.01803345744669471
% es.Ez (V/m) @ t=0.32
-0.037481677718302464
% es.tEx (V/m) @ t=0.32
-0.03679604310342999
% es.tEy (V/m) @ t=0.32
0
% es.tEz (V/m) @ t=0.32
-0.03748167771830546
% V (V) @ t=0.32
0.0115400122616042
% es.normE (V/m) @ t=0.34
0.056051954252302166
% es.EX (V/m) @ t=0.34
-0.03713918690057838
% es.EY (V/m) @ t=0.34
0.018201640042123657
% es.EZ (V/m) @ t=0.34
-0.03783123936171062
% es.tEX (V/m) @ t=0.34
-0.03713918690058038
% es.tEY (V/m) @ t=0.34
0
% es.tEZ (V/m) @ t=0.34
-0.037831239361712066
% es.Ex (V/m) @ t=0.34
-0.03713918690057838
% es.Ey (V/m) @ t=0.34
0.018201640042123657
% es.Ez (V/m) @ t=0.34
-0.03783123936171062
% es.tEx (V/m) @ t=0.34
-0.03713918690058038
% es.tEy (V/m) @ t=0.34
0
% es.tEz (V/m) @ t=0.34
-0.037831239361712066
% V (V) @ t=0.34
0.011647636849819697
% es.normE (V/m) @ t=0.36
0.05656986002864045
% es.EX (V/m) @ t=0.36
-0.037482330697720556
% es.EY (V/m) @ t=0.36
0.018369822637540167
% es.EZ (V/m) @ t=0.36
-0.038180801005112563
% es.tEX (V/m) @ t=0.36
-0.03748233069772011
% es.tEY (V/m) @ t=0.36
0
% es.tEZ (V/m) @ t=0.36
-0.038180801005111564
% es.Ex (V/m) @ t=0.36
-0.037482330697720556
% es.Ey (V/m) @ t=0.36
0.018369822637540167
% es.Ez (V/m) @ t=0.36
-0.038180801005112563
% es.tEx (V/m) @ t=0.36
-0.03748233069772011
% es.tEy (V/m) @ t=0.36
0
% es.tEz (V/m) @ t=0.36
-0.038180801005111564
% V (V) @ t=0.36
0.01175526143803519
% es.normE (V/m) @ t=0.38
0.05708776580498792
% es.EX (V/m) @ t=0.38
-0.03782547449486806
% es.EY (V/m) @ t=0.38
0.01853800523296023
% es.EZ (V/m) @ t=0.38
-0.038530362648513616
% es.tEX (V/m) @ t=0.38
-0.03782547449486873
% es.tEY (V/m) @ t=0.38
0
% es.tEZ (V/m) @ t=0.38
-0.03853036264851817
% es.Ex (V/m) @ t=0.38
-0.03782547449486806
% es.Ey (V/m) @ t=0.38
0.01853800523296023
% es.Ez (V/m) @ t=0.38
-0.038530362648513616
% es.tEx (V/m) @ t=0.38
-0.03782547449486873
% es.tEy (V/m) @ t=0.38
0
% es.tEz (V/m) @ t=0.38
-0.03853036264851817
% V (V) @ t=0.38
0.011862886026250683
% es.normE (V/m) @ t=0.4
0.0576056715813515
% es.EX (V/m) @ t=0.4
-0.038168618292015566
% es.EY (V/m) @ t=0.4
0.018706187828399834
% es.EZ (V/m) @ t=0.4
-0.038879924291921775
% es.tEX (V/m) @ t=0.4
-0.038168618292015566
% es.tEY (V/m) @ t=0.4
0
% es.tEZ (V/m) @ t=0.4
-0.03887992429192477
% es.Ex (V/m) @ t=0.4
-0.038168618292015566
% es.Ey (V/m) @ t=0.4
0.018706187828399834
% es.Ez (V/m) @ t=0.4
-0.038879924291921775
% es.tEx (V/m) @ t=0.4
-0.038168618292015566
% es.tEy (V/m) @ t=0.4
0
% es.tEz (V/m) @ t=0.4
-0.03887992429192477
% V (V) @ t=0.4
0.011970510614466176
% es.normE (V/m) @ t=0.42
0.058123577357705396
% es.EX (V/m) @ t=0.42
-0.03851176208916218
% es.EY (V/m) @ t=0.42
0.01887437042380391
% es.EZ (V/m) @ t=0.42
-0.03922948593532638
% es.tEX (V/m) @ t=0.42
-0.038511762089162405
% es.tEY (V/m) @ t=0.42
0
% es.tEZ (V/m) @ t=0.42
-0.039229485935327824
% es.Ex (V/m) @ t=0.42
-0.03851176208916218
% es.Ey (V/m) @ t=0.42
0.01887437042380391
% es.Ez (V/m) @ t=0.42
-0.03922948593532638
% es.tEx (V/m) @ t=0.42
-0.038511762089162405
% es.tEy (V/m) @ t=0.42
0
% es.tEz (V/m) @ t=0.42
-0.039229485935327824
% V (V) @ t=0.42
0.012078135202681674
% es.normE (V/m) @ t=0.44
0.0586414831340696
% es.EX (V/m) @ t=0.44
-0.03885490588630969
% es.EY (V/m) @ t=0.44
0.019042553019238184
% es.EZ (V/m) @ t=0.44
-0.03957904757872388
% es.tEX (V/m) @ t=0.44
-0.03885490588631102
% es.tEY (V/m) @ t=0.44
0
% es.tEZ (V/m) @ t=0.44
-0.03957904757872732
% es.Ex (V/m) @ t=0.44
-0.03885490588630969
% es.Ey (V/m) @ t=0.44
0.019042553019238184
% es.Ez (V/m) @ t=0.44
-0.03957904757872388
% es.tEx (V/m) @ t=0.44
-0.03885490588631102
% es.tEy (V/m) @ t=0.44
0
% es.tEz (V/m) @ t=0.44
-0.03957904757872732
% V (V) @ t=0.44
0.012185759790897166
% es.normE (V/m) @ t=0.46
0.05922076540337622
% es.EX (V/m) @ t=0.46
-0.03923873445279824
% es.EY (V/m) @ t=0.46
0.019230660571354363
% es.EZ (V/m) @ t=0.46
-0.03997001960837476
% es.tEX (V/m) @ t=0.46
-0.0392387344527978
% es.tEY (V/m) @ t=0.46
0
% es.tEZ (V/m) @ t=0.46
-0.03997001960837088
% es.Ex (V/m) @ t=0.46
-0.03923873445279824
% es.Ey (V/m) @ t=0.46
0.019230660571354363
% es.Ez (V/m) @ t=0.46
-0.03997001960837476
% es.tEx (V/m) @ t=0.46
-0.0392387344527978
% es.tEy (V/m) @ t=0.46
0
% es.tEz (V/m) @ t=0.46
-0.03997001960837088
% V (V) @ t=0.46
0.012306133563958207
% es.normE (V/m) @ t=0.48
0.059804722050323424
% es.EX (V/m) @ t=0.48
-0.03962566153416436
% es.EY (V/m) @ t=0.48
0.01942028558995723
% es.EZ (V/m) @ t=0.48
-0.040364145415217045
% es.tEX (V/m) @ t=0.48
-0.03962566153416325
% es.tEY (V/m) @ t=0.48
0
% es.tEZ (V/m) @ t=0.48
-0.040364145415216934
% es.Ex (V/m) @ t=0.48
-0.03962566153416436
% es.Ey (V/m) @ t=0.48
0.01942028558995723
% es.Ez (V/m) @ t=0.48
-0.040364145415217045
% es.tEx (V/m) @ t=0.48
-0.03962566153416325
% es.tEy (V/m) @ t=0.48
0
% es.tEz (V/m) @ t=0.48
-0.040364145415216934
% V (V) @ t=0.48
0.012427478303294631
% es.normE (V/m) @ t=0.5
0.060388678697277244
% es.EX (V/m) @ t=0.5
-0.04001258861553314
% es.EY (V/m) @ t=0.5
0.01960991060856543
% es.EZ (V/m) @ t=0.5
-0.04075827122206199
% es.tEX (V/m) @ t=0.5
-0.040012588615532474
% es.tEY (V/m) @ t=0.5
0
% es.tEZ (V/m) @ t=0.5
-0.04075827122205944
% es.Ex (V/m) @ t=0.5
-0.04001258861553314
% es.Ey (V/m) @ t=0.5
0.01960991060856543
% es.Ez (V/m) @ t=0.5
-0.04075827122206199
% es.tEx (V/m) @ t=0.5
-0.040012588615532474
% es.tEy (V/m) @ t=0.5
0
% es.tEz (V/m) @ t=0.5
-0.04075827122205944
% V (V) @ t=0.5
0.012548823042631056
% es.normE (V/m) @ t=0.52
0.060972635344238135
% es.EX (V/m) @ t=0.52
-0.04039951569690192
% es.EY (V/m) @ t=0.52
0.019799535627189613
% es.EZ (V/m) @ t=0.52
-0.04115239702890783
% es.tEX (V/m) @ t=0.52
-0.0403995156969017
% es.tEY (V/m) @ t=0.52
0
% es.tEZ (V/m) @ t=0.52
-0.04115239702890561
% es.Ex (V/m) @ t=0.52
-0.04039951569690192
% es.Ey (V/m) @ t=0.52
0.019799535627189613
% es.Ez (V/m) @ t=0.52
-0.04115239702890783
% es.tEx (V/m) @ t=0.52
-0.0403995156969017
% es.tEy (V/m) @ t=0.52
0
% es.tEz (V/m) @ t=0.52
-0.04115239702890561
% V (V) @ t=0.52
0.012670167781967476
% es.normE (V/m) @ t=0.54
0.06155659199118859
% es.EX (V/m) @ t=0.54
-0.04078644277826804
% es.EY (V/m) @ t=0.54
0.01998916064579248
% es.EZ (V/m) @ t=0.54
-0.04154652283574922
% es.tEX (V/m) @ t=0.54
-0.04078644277826737
% es.tEY (V/m) @ t=0.54
0
% es.tEZ (V/m) @ t=0.54
-0.04154652283574822
% es.Ex (V/m) @ t=0.54
-0.04078644277826804
% es.Ey (V/m) @ t=0.54
0.01998916064579248
% es.Ez (V/m) @ t=0.54
-0.04154652283574922
% es.tEx (V/m) @ t=0.54
-0.04078644277826737
% es.tEy (V/m) @ t=0.54
0
% es.tEz (V/m) @ t=0.54
-0.04154652283574822
% V (V) @ t=0.54
0.012791512521303899
% es.normE (V/m) @ t=0.56
0.06214054863814723
% es.EX (V/m) @ t=0.56
-0.04117336985963771
% es.EY (V/m) @ t=0.56
0.02017878566440956
% es.EZ (V/m) @ t=0.56
-0.04194064864259062
% es.tEX (V/m) @ t=0.56
-0.04117336985963638
% es.tEY (V/m) @ t=0.56
0
% es.tEZ (V/m) @ t=0.56
-0.04194064864259062
% es.Ex (V/m) @ t=0.56
-0.04117336985963771
% es.Ey (V/m) @ t=0.56
0.02017878566440956
% es.Ez (V/m) @ t=0.56
-0.04194064864259062
% es.tEx (V/m) @ t=0.56
-0.04117336985963638
% es.tEy (V/m) @ t=0.56
0
% es.tEz (V/m) @ t=0.56
-0.04194064864259062
% V (V) @ t=0.56
0.012912857260640322
% es.normE (V/m) @ t=0.58
0.06272450528510716
% es.EX (V/m) @ t=0.58
-0.04156029694100649
% es.EY (V/m) @ t=0.58
0.020368410683019533
% es.EZ (V/m) @ t=0.58
-0.04233477444943645
% es.tEX (V/m) @ t=0.58
-0.04156029694100383
% es.tEY (V/m) @ t=0.58
0
% es.tEZ (V/m) @ t=0.58
-0.042334774449436674
% es.Ex (V/m) @ t=0.58
-0.04156029694100649
% es.Ey (V/m) @ t=0.58
0.020368410683019533
% es.Ez (V/m) @ t=0.58
-0.04233477444943645
% es.tEx (V/m) @ t=0.58
-0.04156029694100383
% es.tEy (V/m) @ t=0.58
0
% es.tEz (V/m) @ t=0.58
-0.042334774449436674
% V (V) @ t=0.58
0.013034201999976744
% es.normE (V/m) @ t=0.6
0.06330846193207167
% es.EX (V/m) @ t=0.6
-0.041947224022374385
% es.EY (V/m) @ t=0.6
0.02055803570164194
% es.EZ (V/m) @ t=0.6
-0.04272890025628229
% es.tEX (V/m) @ t=0.6
-0.04194722402237305
% es.tEY (V/m) @ t=0.6
0
% es.tEZ (V/m) @ t=0.6
-0.04272890025628284
% es.Ex (V/m) @ t=0.6
-0.041947224022374385
% es.Ey (V/m) @ t=0.6
0.02055803570164194
% es.Ez (V/m) @ t=0.6
-0.04272890025628229
% es.tEx (V/m) @ t=0.6
-0.04194722402237305
% es.tEy (V/m) @ t=0.6
0
% es.tEz (V/m) @ t=0.6
-0.04272890025628284
% V (V) @ t=0.6
0.013155546739313167
% es.normE (V/m) @ t=0.62
0.0638924185790321
% es.EX (V/m) @ t=0.62
-0.04233415110374139
% es.EY (V/m) @ t=0.62
0.02074766072025014
% es.EZ (V/m) @ t=0.62
-0.04312302606312812
% es.tEX (V/m) @ t=0.62
-0.04233415110374028
% es.tEY (V/m) @ t=0.62
0
% es.tEZ (V/m) @ t=0.62
-0.0431230260631289
% es.Ex (V/m) @ t=0.62
-0.04233415110374139
% es.Ey (V/m) @ t=0.62
0.02074766072025014
% es.Ez (V/m) @ t=0.62
-0.04312302606312812
% es.tEx (V/m) @ t=0.62
-0.04233415110374028
% es.tEy (V/m) @ t=0.62
0
% es.tEz (V/m) @ t=0.62
-0.0431230260631289
% V (V) @ t=0.62
0.013276891478649591
% es.normE (V/m) @ t=0.64
0.06447637522599706
% es.EX (V/m) @ t=0.64
-0.042721078185109285
% es.EY (V/m) @ t=0.64
0.020937285738868994
% es.EZ (V/m) @ t=0.64
-0.04351715186997307
% es.tEX (V/m) @ t=0.64
-0.04272107818510773
% es.tEY (V/m) @ t=0.64
0
% es.tEZ (V/m) @ t=0.64
-0.04351715186997496
% es.Ex (V/m) @ t=0.64
-0.042721078185109285
% es.Ey (V/m) @ t=0.64
0.020937285738868994
% es.Ez (V/m) @ t=0.64
-0.04351715186997307
% es.tEx (V/m) @ t=0.64
-0.04272107818510773
% es.tEy (V/m) @ t=0.64
0
% es.tEz (V/m) @ t=0.64
-0.04351715186997496
% V (V) @ t=0.64
0.013398236217986012
% es.normE (V/m) @ t=0.66
0.06506033187295672
% es.EX (V/m) @ t=0.66
-0.043108005266478955
% es.EY (V/m) @ t=0.66
0.02112691075746831
% es.EZ (V/m) @ t=0.66
-0.04391127767681624
% es.tEX (V/m) @ t=0.66
-0.04310800526647518
% es.tEY (V/m) @ t=0.66
0
% es.tEZ (V/m) @ t=0.66
-0.04391127767681746
% es.Ex (V/m) @ t=0.66
-0.043108005266478955
% es.Ey (V/m) @ t=0.66
0.02112691075746831
% es.Ez (V/m) @ t=0.66
-0.04391127767681624
% es.tEx (V/m) @ t=0.66
-0.04310800526647518
% es.tEy (V/m) @ t=0.66
0
% es.tEz (V/m) @ t=0.66
-0.04391127767681746
% V (V) @ t=0.66
0.013519580957322435
% es.normE (V/m) @ t=0.68
0.06564428851992259
% es.EX (V/m) @ t=0.68
-0.04349493234784507
% es.EY (V/m) @ t=0.68
0.021316535776087164
% es.EZ (V/m) @ t=0.68
-0.04430540348366119
% es.tEX (V/m) @ t=0.68
-0.04349493234784263
% es.tEY (V/m) @ t=0.68
0
% es.tEZ (V/m) @ t=0.68
-0.04430540348366352
% es.Ex (V/m) @ t=0.68
-0.04349493234784507
% es.Ey (V/m) @ t=0.68
0.021316535776087164
% es.Ez (V/m) @ t=0.68
-0.04430540348366119
% es.tEx (V/m) @ t=0.68
-0.04349493234784263
% es.tEy (V/m) @ t=0.68
0
% es.tEz (V/m) @ t=0.68
-0.04430540348366352
% V (V) @ t=0.68
0.013640925696658859
% es.normE (V/m) @ t=0.7
0.06622824516688715
% es.EX (V/m) @ t=0.7
-0.043881859429212966
% es.EY (V/m) @ t=0.7
0.021506160794697138
% es.EZ (V/m) @ t=0.7
-0.04469952929050525
% es.tEX (V/m) @ t=0.7
-0.04388185942921363
% es.tEY (V/m) @ t=0.7
0
% es.tEZ (V/m) @ t=0.7
-0.04469952929050258
% es.Ex (V/m) @ t=0.7
-0.043881859429212966
% es.Ey (V/m) @ t=0.7
0.021506160794697138
% es.Ez (V/m) @ t=0.7
-0.04469952929050525
% es.tEx (V/m) @ t=0.7
-0.04388185942921363
% es.tEy (V/m) @ t=0.7
0
% es.tEz (V/m) @ t=0.7
-0.04469952929050258
% V (V) @ t=0.7
0.013762270435995283
% es.normE (V/m) @ t=0.72
0.06681220181385322
% es.EX (V/m) @ t=0.72
-0.04426878651058086
% es.EY (V/m) @ t=0.72
0.02169578581331244
% es.EZ (V/m) @ t=0.72
-0.04509365509734753
% es.tEX (V/m) @ t=0.72
-0.044268786510582636
% es.tEY (V/m) @ t=0.72
0
% es.tEZ (V/m) @ t=0.72
-0.04509365509734864
% es.Ex (V/m) @ t=0.72
-0.04426878651058086
% es.Ey (V/m) @ t=0.72
0.02169578581331244
% es.Ez (V/m) @ t=0.72
-0.04509365509734753
% es.tEx (V/m) @ t=0.72
-0.044268786510582636
% es.tEy (V/m) @ t=0.72
0
% es.tEz (V/m) @ t=0.72
-0.04509365509734864
% V (V) @ t=0.72
0.013883615175331702
% es.normE (V/m) @ t=0.74
0.06741091584571712
% es.EX (V/m) @ t=0.74
-0.04466548957806449
% es.EY (V/m) @ t=0.74
0.021890203712446876
% es.EZ (V/m) @ t=0.74
-0.04549774277189744
% es.tEX (V/m) @ t=0.74
-0.044665489578065154
% es.tEY (V/m) @ t=0.74
0
% es.tEZ (V/m) @ t=0.74
-0.04549774277189411
% es.Ex (V/m) @ t=0.74
-0.04466548957806449
% es.Ey (V/m) @ t=0.74
0.021890203712446876
% es.Ez (V/m) @ t=0.74
-0.04549774277189744
% es.tEx (V/m) @ t=0.74
-0.044665489578065154
% es.tEy (V/m) @ t=0.74
0
% es.tEz (V/m) @ t=0.74
-0.04549774277189411
% V (V) @ t=0.74
0.014008027262204131
% es.normE (V/m) @ t=0.76
0.06806226526640007
% es.EX (V/m) @ t=0.76
-0.045097060803691136
% es.EY (V/m) @ t=0.76
0.022101716451327746
% es.EZ (V/m) @ t=0.76
-0.045937361591270154
% es.tEX (V/m) @ t=0.76
-0.045097060803692246
% es.tEY (V/m) @ t=0.76
0
% es.tEZ (V/m) @ t=0.76
-0.045937361591270154
% es.Ex (V/m) @ t=0.76
-0.045097060803691136
% es.Ey (V/m) @ t=0.76
0.022101716451327746
% es.Ez (V/m) @ t=0.76
-0.045937361591270154
% es.tEx (V/m) @ t=0.76
-0.045097060803692246
% es.tEy (V/m) @ t=0.76
0
% es.tEz (V/m) @ t=0.76
-0.045937361591270154
% V (V) @ t=0.76
0.01414337970412318
% es.normE (V/m) @ t=0.78
0.06871361468708466
% es.EX (V/m) @ t=0.78
-0.04552863202932578
% es.EY (V/m) @ t=0.78
0.022313229190189077
% es.EZ (V/m) @ t=0.78
-0.04637698041064642
% es.tEX (V/m) @ t=0.78
-0.045528632029326443
% es.tEY (V/m) @ t=0.78
0
% es.tEZ (V/m) @ t=0.78
-0.046376980410646085
% es.Ex (V/m) @ t=0.78
-0.04552863202932578
% es.Ey (V/m) @ t=0.78
0.022313229190189077
% es.Ez (V/m) @ t=0.78
-0.04637698041064642
% es.tEx (V/m) @ t=0.78
-0.045528632029326443
% es.tEy (V/m) @ t=0.78
0
% es.tEz (V/m) @ t=0.78
-0.046376980410646085
% V (V) @ t=0.78
0.014278732146042222
% es.normE (V/m) @ t=0.8
0.06936496410778592
% es.EX (V/m) @ t=0.8
-0.04596020325495598
% es.EY (V/m) @ t=0.8
0.022524741929085934
% es.EZ (V/m) @ t=0.8
-0.04681659923003423
% es.tEX (V/m) @ t=0.8
-0.04596020325495531
% es.tEY (V/m) @ t=0.8
0
% es.tEZ (V/m) @ t=0.8
-0.04681659923003623
% es.Ex (V/m) @ t=0.8
-0.04596020325495598
% es.Ey (V/m) @ t=0.8
0.022524741929085934
% es.Ez (V/m) @ t=0.8
-0.04681659923003423
% es.tEx (V/m) @ t=0.8
-0.04596020325495531
% es.tEy (V/m) @ t=0.8
0
% es.tEz (V/m) @ t=0.8
-0.04681659923003623
% V (V) @ t=0.8
0.014414084587961274
% es.normE (V/m) @ t=0.82
0.07001631352847112
% es.EX (V/m) @ t=0.82
-0.04639177448058884
% es.EY (V/m) @ t=0.82
0.022736254667945488
% es.EZ (V/m) @ t=0.82
-0.04725621804941316
% es.tEX (V/m) @ t=0.82
-0.046391774480587955
% es.tEY (V/m) @ t=0.82
0
% es.tEZ (V/m) @ t=0.82
-0.047256218049408716
% es.Ex (V/m) @ t=0.82
-0.04639177448058884
% es.Ey (V/m) @ t=0.82
0.022736254667945488
% es.Ez (V/m) @ t=0.82
-0.04725621804941316
% es.tEx (V/m) @ t=0.82
-0.046391774480587955
% es.tEy (V/m) @ t=0.82
0
% es.tEz (V/m) @ t=0.82
-0.047256218049408716
% V (V) @ t=0.82
0.014549437029880319
% es.normE (V/m) @ t=0.84
0.07066766294916754
% es.EX (V/m) @ t=0.84
-0.04682334570621993
% es.EY (V/m) @ t=0.84
0.022947767406842345
% es.EZ (V/m) @ t=0.84
-0.047695836868792085
% es.tEX (V/m) @ t=0.84
-0.046823345706220154
% es.tEY (V/m) @ t=0.84
0
% es.tEZ (V/m) @ t=0.84
-0.04769583686879175
% es.Ex (V/m) @ t=0.84
-0.04682334570621993
% es.Ey (V/m) @ t=0.84
0.022947767406842345
% es.Ez (V/m) @ t=0.84
-0.047695836868792085
% es.tEx (V/m) @ t=0.84
-0.046823345706220154
% es.tEy (V/m) @ t=0.84
0
% es.tEz (V/m) @ t=0.84
-0.04769583686879175
% V (V) @ t=0.84
0.01468478947179936
% es.normE (V/m) @ t=0.86
0.07131901236985791
% es.EX (V/m) @ t=0.86
-0.04725491693185013
% es.EY (V/m) @ t=0.86
0.023159280145717887
% es.EZ (V/m) @ t=0.86
-0.04813545568817279
% es.tEX (V/m) @ t=0.86
-0.04725491693185102
% es.tEY (V/m) @ t=0.86
0
% es.tEZ (V/m) @ t=0.86
-0.048135455688167794
% es.Ex (V/m) @ t=0.86
-0.04725491693185013
% es.Ey (V/m) @ t=0.86
0.023159280145717887
% es.Ez (V/m) @ t=0.86
-0.04813545568817279
% es.tEx (V/m) @ t=0.86
-0.04725491693185102
% es.tEy (V/m) @ t=0.86
0
% es.tEz (V/m) @ t=0.86
-0.048135455688167794
% V (V) @ t=0.86
0.014820141913718405
% es.normE (V/m) @ t=0.88
0.07197036179055433
% es.EX (V/m) @ t=0.88
-0.04768648815748211
% es.EY (V/m) @ t=0.88
0.02337079288460764
% es.EZ (V/m) @ t=0.88
-0.048575074507553495
% es.tEX (V/m) @ t=0.88
-0.04768648815748322
% es.tEY (V/m) @ t=0.88
0
% es.tEZ (V/m) @ t=0.88
-0.04857507450755072
% es.Ex (V/m) @ t=0.88
-0.04768648815748211
% es.Ey (V/m) @ t=0.88
0.02337079288460764
% es.Ez (V/m) @ t=0.88
-0.048575074507553495
% es.tEx (V/m) @ t=0.88
-0.04768648815748322
% es.tEy (V/m) @ t=0.88
0
% es.tEz (V/m) @ t=0.88
-0.04857507450755072
% V (V) @ t=0.88
0.014955494355637452
% es.normE (V/m) @ t=0.9
0.07262171121123874
% es.EX (V/m) @ t=0.9
-0.04811805938311142
% es.EY (V/m) @ t=0.9
0.023582305623474298
% es.EZ (V/m) @ t=0.9
-0.04901469332692976
% es.tEX (V/m) @ t=0.9
-0.04811805938311209
% es.tEY (V/m) @ t=0.9
0
% es.tEZ (V/m) @ t=0.9
-0.049014693326930314
% es.Ex (V/m) @ t=0.9
-0.04811805938311142
% es.Ey (V/m) @ t=0.9
0.023582305623474298
% es.Ez (V/m) @ t=0.9
-0.04901469332692976
% es.tEx (V/m) @ t=0.9
-0.04811805938311209
% es.tEy (V/m) @ t=0.9
0
% es.tEz (V/m) @ t=0.9
-0.049014693326930314
% V (V) @ t=0.9
0.015090846797556496
% es.normE (V/m) @ t=0.92
0.07327306063193384
% es.EX (V/m) @ t=0.92
-0.048549630608746064
% es.EY (V/m) @ t=0.92
0.023793818362362273
% es.EZ (V/m) @ t=0.92
-0.04945431214630602
% es.tEX (V/m) @ t=0.92
-0.048549630608742955
% es.tEY (V/m) @ t=0.92
0
% es.tEZ (V/m) @ t=0.92
-0.049454312146306356
% es.Ex (V/m) @ t=0.92
-0.048549630608746064
% es.Ey (V/m) @ t=0.92
0.023793818362362273
% es.Ez (V/m) @ t=0.92
-0.04945431214630602
% es.tEx (V/m) @ t=0.92
-0.048549630608742955
% es.tEy (V/m) @ t=0.92
0
% es.tEz (V/m) @ t=0.92
-0.049454312146306356
% V (V) @ t=0.92
0.015226199239475545
% es.normE (V/m) @ t=0.94
0.07392441005262826
% es.EX (V/m) @ t=0.94
-0.04898120183437715
% es.EY (V/m) @ t=0.94
0.024005331101232485
% es.EZ (V/m) @ t=0.94
-0.049893930965692945
% es.tEX (V/m) @ t=0.94
-0.0489812018343756
% es.tEY (V/m) @ t=0.94
0
% es.tEZ (V/m) @ t=0.94
-0.049893930965692945
% es.Ex (V/m) @ t=0.94
-0.04898120183437715
% es.Ey (V/m) @ t=0.94
0.024005331101232485
% es.Ez (V/m) @ t=0.94
-0.049893930965692945
% es.tEx (V/m) @ t=0.94
-0.0489812018343756
% es.tEy (V/m) @ t=0.94
0
% es.tEz (V/m) @ t=0.94
-0.049893930965692945
% V (V) @ t=0.94
0.01536155168139459
% es.normE (V/m) @ t=0.96
0.07457575947332147
% es.EX (V/m) @ t=0.96
-0.04941277306000824
% es.EY (V/m) @ t=0.96
0.02421684384012046
% es.EZ (V/m) @ t=0.96
-0.05033354978506921
% es.tEX (V/m) @ t=0.96
-0.04941277306000602
% es.tEY (V/m) @ t=0.96
0
% es.tEZ (V/m) @ t=0.96
-0.05033354978507243
% es.Ex (V/m) @ t=0.96
-0.04941277306000824
% es.Ey (V/m) @ t=0.96
0.02421684384012046
% es.Ez (V/m) @ t=0.96
-0.05033354978506921
% es.tEx (V/m) @ t=0.96
-0.04941277306000602
% es.tEy (V/m) @ t=0.96
0
% es.tEz (V/m) @ t=0.96
-0.05033354978507243
% V (V) @ t=0.96
0.015496904123313632
% es.normE (V/m) @ t=0.98
0.0752271088940157
% es.EX (V/m) @ t=0.98
-0.049844344285637554
% es.EY (V/m) @ t=0.98
0.024428356578996002
% es.EZ (V/m) @ t=0.98
-0.050773168604454355
% es.tEX (V/m) @ t=0.98
-0.04984434428563844
% es.tEY (V/m) @ t=0.98
0
% es.tEZ (V/m) @ t=0.98
-0.05077316860445191
% es.Ex (V/m) @ t=0.98
-0.049844344285637554
% es.Ey (V/m) @ t=0.98
0.024428356578996002
% es.Ez (V/m) @ t=0.98
-0.050773168604454355
% es.tEx (V/m) @ t=0.98
-0.04984434428563844
% es.tEy (V/m) @ t=0.98
0
% es.tEz (V/m) @ t=0.98
-0.05077316860445191
% V (V) @ t=0.98
0.01563225656523268
% es.normE (V/m) @ t=1
0.07587845831469774
% es.EX (V/m) @ t=1
-0.050275915511267755
% es.EY (V/m) @ t=1
0.024639869317857332
% es.EZ (V/m) @ t=1
-0.051212787423827066
% es.tEX (V/m) @ t=1
-0.050275915511265534
% es.tEY (V/m) @ t=1
0
% es.tEZ (V/m) @ t=1
-0.051212787423827844
% es.Ex (V/m) @ t=1
-0.050275915511267755
% es.Ey (V/m) @ t=1
0.024639869317857332