% Model:              1 neuron.mph
% Version:            COMSOL 6.1.0.252
% Date:               Mar 26 2023, 14:48
% Dimension:          0
% Nodes:              14017
% Expressions:        14017
% Description:        Electric field norm, Electric field, X component, Electric field, Y component, Electric field, Z component, Tangential electric field, X component, Tangential electric field, Y component, Tangential electric field, Z component, Electric field, x component, Electric field, y component, Electric field, z component, Tangential electric field, x component, Tangential electric field, y component, Tangential electric field, z component, Electric potential
% Length unit:        mm
% x
1.66
% y
14.200000000000001
% z
2
% es.normE (V/m) @ t=0
0.04725637409147478
% es.EX (V/m) @ t=0
-0.02063878839185662
% es.EY (V/m) @ t=0
0.008966090780013758
% es.EZ (V/m) @ t=0
-0.041554957852392604
% es.tEX (V/m) @ t=0
-0.020638788391863727
% es.tEY (V/m) @ t=0
0
% es.tEZ (V/m) @ t=0
-0.0415549578523966
% es.Ex (V/m) @ t=0
-0.02063878839185662
% es.Ey (V/m) @ t=0
0.008966090780013758
% es.Ez (V/m) @ t=0
-0.041554957852392604
% es.tEx (V/m) @ t=0
-0.020638788391863727
% es.tEy (V/m) @ t=0
0
% es.tEz (V/m) @ t=0
-0.0415549578523966
% V (V) @ t=0
0.010971349471148098
% es.normE (V/m) @ t=0.02
0.04327695634824127
% es.EX (V/m) @ t=0.02
-0.01890081424172685
% es.EY (V/m) @ t=0.02
0.008211064165143611
% es.EZ (V/m) @ t=0.02
-0.0380556513154513
% es.tEX (V/m) @ t=0.02
-0.018900814241727737
% es.tEY (V/m) @ t=0.02
0
% es.tEZ (V/m) @ t=0.02
-0.03805565131545352
% es.Ex (V/m) @ t=0.02
-0.01890081424172685
% es.Ey (V/m) @ t=0.02
0.008211064165143611
% es.Ez (V/m) @ t=0.02
-0.0380556513154513
% es.tEx (V/m) @ t=0.02
-0.018900814241727737
% es.tEy (V/m) @ t=0.02
0
% es.tEz (V/m) @ t=0.02
-0.03805565131545352
% V (V) @ t=0.02
0.01004746173786104
% es.normE (V/m) @ t=0.04
0.04367410452214656
% es.EX (V/m) @ t=0.04
-0.019074266757042935
% es.EY (V/m) @ t=0.04
0.00828641649573214
% es.EZ (V/m) @ t=0.04
-0.038404883220129804
% es.tEX (V/m) @ t=0.04
-0.01907426675704116
% es.tEY (V/m) @ t=0.04
0
% es.tEZ (V/m) @ t=0.04
-0.03840488322013469
% es.Ex (V/m) @ t=0.04
-0.019074266757042935
% es.Ey (V/m) @ t=0.04
0.00828641649573214
% es.Ez (V/m) @ t=0.04
-0.038404883220129804
% es.tEx (V/m) @ t=0.04
-0.01907426675704116
% es.tEy (V/m) @ t=0.04
0
% es.tEz (V/m) @ t=0.04
-0.03840488322013469
% V (V) @ t=0.04
0.01013966560194709
% es.normE (V/m) @ t=0.06
0.04407591319986586
% es.EX (V/m) @ t=0.06
-0.019249752648526908
% es.EY (V/m) @ t=0.06
0.008362652782979652
% es.EZ (V/m) @ t=0.06
-0.03875821443002714
% es.tEX (V/m) @ t=0.06
-0.01924975264853046
% es.tEY (V/m) @ t=0.06
0
% es.tEZ (V/m) @ t=0.06
-0.03875821443003025
% es.Ex (V/m) @ t=0.06
-0.019249752648526908
% es.Ey (V/m) @ t=0.06
0.008362652782979652
% es.Ez (V/m) @ t=0.06
-0.03875821443002714
% es.tEx (V/m) @ t=0.06
-0.01924975264853046
% es.tEy (V/m) @ t=0.06
0
% es.tEz (V/m) @ t=0.06
-0.03875821443003025
% V (V) @ t=0.06
0.010232952286790718
% es.normE (V/m) @ t=0.08
0.04448136264878846
% es.EX (V/m) @ t=0.08
-0.01942682868440393
% es.EY (V/m) @ t=0.08
0.00843957985570043
% es.EZ (V/m) @ t=0.08
-0.039114747119457505
% es.tEX (V/m) @ t=0.08
-0.019426828684402153
% es.tEY (V/m) @ t=0.08
0
% es.tEZ (V/m) @ t=0.08
-0.03911474711945662
% es.Ex (V/m) @ t=0.08
-0.01942682868440393
% es.Ey (V/m) @ t=0.08
0.00843957985570043
% es.Ez (V/m) @ t=0.08
-0.039114747119457505
% es.tEx (V/m) @ t=0.08
-0.019426828684402153
% es.tEy (V/m) @ t=0.08
0
% es.tEz (V/m) @ t=0.08
-0.03911474711945662
% V (V) @ t=0.08
0.01032708420619972
% es.normE (V/m) @ t=0.1
0.04489457032444602
% es.EX (V/m) @ t=0.1
-0.019607293205853082
% es.EY (V/m) @ t=0.1
0.008517978943526572
% es.EZ (V/m) @ t=0.1
-0.039478101936060384
% es.tEX (V/m) @ t=0.1
-0.01960729320585841
% es.tEY (V/m) @ t=0.1
0
% es.tEZ (V/m) @ t=0.1
-0.03947810193606438
% es.Ex (V/m) @ t=0.1
-0.019607293205853082
% es.Ey (V/m) @ t=0.1
0.008517978943526572
% es.Ez (V/m) @ t=0.1
-0.039478101936060384
% es.tEx (V/m) @ t=0.1
-0.01960729320585841
% es.tEy (V/m) @ t=0.1
0
% es.tEz (V/m) @ t=0.1
-0.03947810193606438
% V (V) @ t=0.1
0.010423017260878173
% es.normE (V/m) @ t=0.12
0.04530777800011048
% es.EX (V/m) @ t=0.12
-0.01978775772730934
% es.EY (V/m) @ t=0.12
0.008596378031356267
% es.EZ (V/m) @ t=0.12
-0.039841456752666815
% es.tEX (V/m) @ t=0.12
-0.019787757727311117
% es.tEY (V/m) @ t=0.12
0
% es.tEZ (V/m) @ t=0.12
-0.039841456752671256
% es.Ex (V/m) @ t=0.12
-0.01978775772730934
% es.Ey (V/m) @ t=0.12
0.008596378031356267
% es.Ez (V/m) @ t=0.12
-0.039841456752666815
% es.tEx (V/m) @ t=0.12
-0.019787757727311117
% es.tEy (V/m) @ t=0.12
0
% es.tEz (V/m) @ t=0.12
-0.039841456752671256
% V (V) @ t=0.12
0.010518950315556625
% es.normE (V/m) @ t=0.14
0.045720985675769446
% es.EX (V/m) @ t=0.14
-0.019968222248763823
% es.EY (V/m) @ t=0.14
0.008674777119161092
% es.EZ (V/m) @ t=0.14
-0.04020481156927325
% es.tEX (V/m) @ t=0.14
-0.019968222248762935
% es.tEY (V/m) @ t=0.14
0
% es.tEZ (V/m) @ t=0.14
-0.04020481156927547
% es.Ex (V/m) @ t=0.14
-0.019968222248763823
% es.Ey (V/m) @ t=0.14
0.008674777119161092
% es.Ez (V/m) @ t=0.14
-0.04020481156927325
% es.tEx (V/m) @ t=0.14
-0.019968222248762935
% es.tEy (V/m) @ t=0.14
0
% es.tEz (V/m) @ t=0.14
-0.04020481156927547
% V (V) @ t=0.14
0.010614883370235079
% es.normE (V/m) @ t=0.16
0.046149818431078814
% es.EX (V/m) @ t=0.16
-0.020155490794964592
% es.EY (V/m) @ t=0.16
0.008756137910829409
% es.EZ (V/m) @ t=0.16
-0.04058191692025126
% es.tEX (V/m) @ t=0.16
-0.020155490794961928
% es.tEY (V/m) @ t=0.16
0
% es.tEZ (V/m) @ t=0.16
-0.040581916920253036
% es.Ex (V/m) @ t=0.16
-0.020155490794964592
% es.Ey (V/m) @ t=0.16
0.008756137910829409
% es.Ez (V/m) @ t=0.16
-0.04058191692025126
% es.tEx (V/m) @ t=0.16
-0.020155490794961928
% es.tEy (V/m) @ t=0.16
0
% es.tEz (V/m) @ t=0.16
-0.040581916920253036
% V (V) @ t=0.16
0.010714451934381197
% es.normE (V/m) @ t=0.18
0.046587282190840726
% es.EX (V/m) @ t=0.18
-0.020346517758337512
% es.EY (V/m) @ t=0.18
0.00883913469278852
% es.EZ (V/m) @ t=0.18
-0.040966617811596606
% es.tEX (V/m) @ t=0.18
-0.02034651775834284
% es.tEY (V/m) @ t=0.18
0
% es.tEZ (V/m) @ t=0.18
-0.04096661781159705
% es.Ex (V/m) @ t=0.18
-0.020346517758337512
% es.Ey (V/m) @ t=0.18
0.00883913469278852
% es.Ez (V/m) @ t=0.18
-0.040966617811596606
% es.tEx (V/m) @ t=0.18
-0.02034651775834284
% es.tEy (V/m) @ t=0.18
0
% es.tEz (V/m) @ t=0.18
-0.04096661781159705
% V (V) @ t=0.18
0.010816028686586793
% es.normE (V/m) @ t=0.2
0.04702474595063218
% es.EX (V/m) @ t=0.2
-0.02053754472171576
% es.EY (V/m) @ t=0.2
0.008922131474751183
% es.EZ (V/m) @ t=0.2
-0.04135131870294195
% es.tEX (V/m) @ t=0.2
-0.02053754472171221
% es.tEY (V/m) @ t=0.2
0
% es.tEZ (V/m) @ t=0.2
-0.041351318702945505
% es.Ex (V/m) @ t=0.2
-0.02053754472171576
% es.Ey (V/m) @ t=0.2
0.008922131474751183
% es.Ez (V/m) @ t=0.2
-0.04135131870294195
% es.tEx (V/m) @ t=0.2
-0.02053754472171221
% es.tEy (V/m) @ t=0.2
0
% es.tEz (V/m) @ t=0.2
-0.041351318702945505
% V (V) @ t=0.2
0.010917605438792392
% es.normE (V/m) @ t=0.22
0.04746220971044711
% es.EX (V/m) @ t=0.22
-0.02072857168508868
% es.EY (V/m) @ t=0.22
0.009005128256713846
% es.EZ (V/m) @ t=0.22
-0.0417360195942873
% es.tEX (V/m) @ t=0.22
-0.020728571685095787
% es.tEY (V/m) @ t=0.22
0
% es.tEZ (V/m) @ t=0.22
-0.041736019594291296
% es.Ex (V/m) @ t=0.22
-0.02072857168508868
% es.Ey (V/m) @ t=0.22
0.009005128256713846
% es.Ez (V/m) @ t=0.22
-0.0417360195942873
% es.tEx (V/m) @ t=0.22
-0.020728571685095787
% es.tEy (V/m) @ t=0.22
0
% es.tEz (V/m) @ t=0.22
-0.041736019594291296
% V (V) @ t=0.22
0.01101918219099799
% es.normE (V/m) @ t=0.24
0.04789967347029315
% es.EX (V/m) @ t=0.24
-0.020919598648468707
% es.EY (V/m) @ t=0.24
0.009088125038683614
% es.EZ (V/m) @ t=0.24
-0.04212072048563442
% es.tEX (V/m) @ t=0.24
-0.020919598648470483
% es.tEY (V/m) @ t=0.24
0
% es.tEZ (V/m) @ t=0.24
-0.0421207204856362
% es.Ex (V/m) @ t=0.24
-0.020919598648468707
% es.Ey (V/m) @ t=0.24
0.009088125038683614
% es.Ez (V/m) @ t=0.24
-0.04212072048563442
% es.tEx (V/m) @ t=0.24
-0.020919598648470483
% es.tEy (V/m) @ t=0.24
0
% es.tEz (V/m) @ t=0.24
-0.0421207204856362
% V (V) @ t=0.24
0.01112075894320359
% es.normE (V/m) @ t=0.26
0.048337137230161475
% es.EX (V/m) @ t=0.26
-0.021110625611846956
% es.EY (V/m) @ t=0.26
0.009171121820646277
% es.EZ (V/m) @ t=0.26
-0.042505421376981545
% es.tEX (V/m) @ t=0.26
-0.021110625611846956
% es.tEY (V/m) @ t=0.26
0
% es.tEZ (V/m) @ t=0.26
-0.04250542137698465
% es.Ex (V/m) @ t=0.26
-0.021110625611846956
% es.Ey (V/m) @ t=0.26
0.009171121820646277
% es.Ez (V/m) @ t=0.26
-0.042505421376981545
% es.tEx (V/m) @ t=0.26
-0.021110625611846956
% es.tEy (V/m) @ t=0.26
0
% es.tEz (V/m) @ t=0.26
-0.04250542137698465
% V (V) @ t=0.26
0.011222335695409187
% es.normE (V/m) @ t=0.28
0.04877460099004665
% es.EX (V/m) @ t=0.28
-0.021301652575221652
% es.EY (V/m) @ t=0.28
0.009254118602605388
% es.EZ (V/m) @ t=0.28
-0.04289012226832334
% es.tEX (V/m) @ t=0.28
-0.021301652575225205
% es.tEY (V/m) @ t=0.28
0
% es.tEZ (V/m) @ t=0.28
-0.042890122268325115
% es.Ex (V/m) @ t=0.28
-0.021301652575221652
% es.Ey (V/m) @ t=0.28
0.009254118602605388
% es.Ez (V/m) @ t=0.28
-0.04289012226832334
% es.tEx (V/m) @ t=0.28
-0.021301652575225205
% es.tEy (V/m) @ t=0.28
0
% es.tEz (V/m) @ t=0.28
-0.042890122268325115
% V (V) @ t=0.28
0.011323912447614787
% es.normE (V/m) @ t=0.3
0.04921967126818752
% es.EX (V/m) @ t=0.3
-0.02149602797313932
% es.EY (V/m) @ t=0.3
0.00933856238082953
% es.EZ (V/m) @ t=0.3
-0.043281498053854506
% es.tEX (V/m) @ t=0.3
-0.02149602797314465
% es.tEY (V/m) @ t=0.3
0
% es.tEZ (V/m) @ t=0.3
-0.04328149805385895
% es.Ex (V/m) @ t=0.3
-0.02149602797313932
% es.Ey (V/m) @ t=0.3
0.00933856238082953
% es.Ez (V/m) @ t=0.3
-0.043281498053854506
% es.tEx (V/m) @ t=0.3
-0.02149602797314465
% es.tEy (V/m) @ t=0.3
0
% es.tEz (V/m) @ t=0.3
-0.04328149805385895
% V (V) @ t=0.3
0.011427244830513782
% es.normE (V/m) @ t=0.32
0.04968303160747049
% es.EX (V/m) @ t=0.32
-0.02169845476468346
% es.EY (V/m) @ t=0.32
0.009426485497357362
% es.EZ (V/m) @ t=0.32
-0.04368892378740874
% es.tEX (V/m) @ t=0.32
-0.02169845476468346
% es.tEY (V/m) @ t=0.32
0
% es.tEZ (V/m) @ t=0.32
-0.04368892378741229
% es.Ex (V/m) @ t=0.32
-0.02169845476468346
% es.Ey (V/m) @ t=0.32
0.009426485497357362
% es.Ez (V/m) @ t=0.32
-0.04368892378740874
% es.tEx (V/m) @ t=0.32
-0.02169845476468346
% es.tEy (V/m) @ t=0.32
0
% es.tEz (V/m) @ t=0.32
-0.04368892378741229
% V (V) @ t=0.32
0.01153479867079799
% es.normE (V/m) @ t=0.34
0.05014639194684785
% es.EX (V/m) @ t=0.34
-0.021900881556213392
% es.EY (V/m) @ t=0.34
0.009514408613888747
% es.EZ (V/m) @ t=0.34
-0.04409634952097008
% es.tEX (V/m) @ t=0.34
-0.021900881556220497
% es.tEY (V/m) @ t=0.34
0
% es.tEZ (V/m) @ t=0.34
-0.044096349520972744
% es.Ex (V/m) @ t=0.34
-0.021900881556213392
% es.Ey (V/m) @ t=0.34
0.009514408613888747
% es.Ez (V/m) @ t=0.34
-0.04409634952097008
% es.tEx (V/m) @ t=0.34
-0.021900881556220497
% es.tEy (V/m) @ t=0.34
0
% es.tEz (V/m) @ t=0.34
-0.044096349520972744
% V (V) @ t=0.34
0.011642352511082203
% es.normE (V/m) @ t=0.36
0.05060975228631222
% es.EX (V/m) @ t=0.36
-0.022103308347750428
% es.EY (V/m) @ t=0.36
0.009602331730398816
% es.EZ (V/m) @ t=0.36
-0.044503775254527866
% es.tEX (V/m) @ t=0.36
-0.022103308347752204
% es.tEY (V/m) @ t=0.36
0
% es.tEZ (V/m) @ t=0.36
-0.044503775254527866
% es.Ex (V/m) @ t=0.36
-0.022103308347750428
% es.Ey (V/m) @ t=0.36
0.009602331730398816
% es.Ez (V/m) @ t=0.36
-0.044503775254527866
% es.tEx (V/m) @ t=0.36
-0.022103308347752204
% es.tEy (V/m) @ t=0.36
0
% es.tEz (V/m) @ t=0.36
-0.044503775254527866
% V (V) @ t=0.36
0.011749906351366409
% es.normE (V/m) @ t=0.38
0.05107311262586969
% es.EX (V/m) @ t=0.38
-0.022305735139287464
% es.EY (V/m) @ t=0.38
0.00969025484694086
% es.EZ (V/m) @ t=0.38
-0.04491120098808388
% es.tEX (V/m) @ t=0.38
-0.022305735139292793
% es.tEY (V/m) @ t=0.38
0
% es.tEZ (V/m) @ t=0.38
-0.0449112009880821
% es.Ex (V/m) @ t=0.38
-0.022305735139287464
% es.Ey (V/m) @ t=0.38
0.00969025484694086
% es.Ez (V/m) @ t=0.38
-0.04491120098808388
% es.tEx (V/m) @ t=0.38
-0.022305735139292793
% es.tEy (V/m) @ t=0.38
0
% es.tEz (V/m) @ t=0.38
-0.0449112009880821
% V (V) @ t=0.38
0.011857460191650621
% es.normE (V/m) @ t=0.4
0.0515364729655137
% es.EX (V/m) @ t=0.4
-0.02250816193082983
% es.EY (V/m) @ t=0.4
0.009778177963472245
% es.EZ (V/m) @ t=0.4
-0.04531862672163989
% es.tEX (V/m) @ t=0.4
-0.022508161930835158
% es.tEY (V/m) @ t=0.4
0
% es.tEZ (V/m) @ t=0.4
-0.04531862672164255
% es.Ex (V/m) @ t=0.4
-0.02250816193082983
% es.Ey (V/m) @ t=0.4
0.009778177963472245
% es.Ez (V/m) @ t=0.4
-0.04531862672163989
% es.tEx (V/m) @ t=0.4
-0.022508161930835158
% es.tEy (V/m) @ t=0.4
0
% es.tEz (V/m) @ t=0.4
-0.04531862672164255
% V (V) @ t=0.4
0.01196501403193483
% es.normE (V/m) @ t=0.42
0.051999833305234604
% es.EX (V/m) @ t=0.42
-0.022710588722363312
% es.EY (V/m) @ t=0.42
0.00986610108000363
% es.EZ (V/m) @ t=0.42
-0.045726052455192345
% es.tEX (V/m) @ t=0.42
-0.022710588722363312
% es.tEY (V/m) @ t=0.42
0
% es.tEZ (V/m) @ t=0.42
-0.0457260524551959
% es.Ex (V/m) @ t=0.42
-0.022710588722363312
% es.Ey (V/m) @ t=0.42
0.00986610108000363
% es.Ez (V/m) @ t=0.42
-0.045726052455192345
% es.tEx (V/m) @ t=0.42
-0.022710588722363312
% es.tEy (V/m) @ t=0.42
0
% es.tEz (V/m) @ t=0.42
-0.0457260524551959
% V (V) @ t=0.42
0.012072567872219038
% es.normE (V/m) @ t=0.44
0.0524631936450382
% es.EX (V/m) @ t=0.44
-0.02291301551389502
% es.EY (V/m) @ t=0.44
0.00995402419652791
% es.EZ (V/m) @ t=0.44
-0.046133478188748356
% es.tEX (V/m) @ t=0.44
-0.022913015513900348
% es.tEY (V/m) @ t=0.44
0
% es.tEZ (V/m) @ t=0.44
-0.046133478188749244
% es.Ex (V/m) @ t=0.44
-0.02291301551389502
% es.Ey (V/m) @ t=0.44
0.00995402419652791
% es.Ez (V/m) @ t=0.44
-0.046133478188748356
% es.tEx (V/m) @ t=0.44
-0.022913015513900348
% es.tEy (V/m) @ t=0.44
0
% es.tEz (V/m) @ t=0.44
-0.046133478188749244
% V (V) @ t=0.44
0.012180121712503246
% es.normE (V/m) @ t=0.46
0.05298226013664326
% es.EX (V/m) @ t=0.46
-0.023139751813648246
% es.EY (V/m) @ t=0.46
0.010052513780877348
% es.EZ (V/m) @ t=0.46
-0.046589899569273285
% es.tEX (V/m) @ t=0.46
-0.023139751813650022
% es.tEY (V/m) @ t=0.46
0
% es.tEZ (V/m) @ t=0.46
-0.046589899569277726
% es.Ex (V/m) @ t=0.46
-0.023139751813648246
% es.Ey (V/m) @ t=0.46
0.010052513780877348
% es.Ez (V/m) @ t=0.46
-0.046589899569273285
% es.tEx (V/m) @ t=0.46
-0.023139751813650022
% es.tEy (V/m) @ t=0.46
0
% es.tEz (V/m) @ t=0.46
-0.046589899569277726
% V (V) @ t=0.46
0.012300616370442755
% es.normE (V/m) @ t=0.48
0.053504676151118175
% es.EX (V/m) @ t=0.48
-0.023367949805686905
% es.EY (V/m) @ t=0.48
0.010151638710265587
% es.EZ (V/m) @ t=0.48
-0.04704926698059353
% es.tEX (V/m) @ t=0.48
-0.023367949805686905
% es.tEY (V/m) @ t=0.48
0
% es.tEZ (V/m) @ t=0.48
-0.047049266980596194
% es.Ex (V/m) @ t=0.48
-0.023367949805686905
% es.Ey (V/m) @ t=0.48
0.010151638710265587
% es.Ez (V/m) @ t=0.48
-0.04704926698059353
% es.tEx (V/m) @ t=0.48
-0.023367949805686905
% es.tEy (V/m) @ t=0.48
0
% es.tEz (V/m) @ t=0.48
-0.047049266980596194
% V (V) @ t=0.48
0.012421889139289698
% es.normE (V/m) @ t=0.5
0.05402709216562051
% es.EX (V/m) @ t=0.5
-0.023596147797738
% es.EY (V/m) @ t=0.5
0.010250763639621852
% es.EZ (V/m) @ t=0.5
-0.047508634391912
% es.tEX (V/m) @ t=0.5
-0.02359614779774155
% es.tEY (V/m) @ t=0.5
0
% es.tEZ (V/m) @ t=0.5
-0.047508634391912
% es.Ex (V/m) @ t=0.5
-0.023596147797738
% es.Ey (V/m) @ t=0.5
0.010250763639621852
% es.Ez (V/m) @ t=0.5
-0.047508634391912
% es.tEx (V/m) @ t=0.5
-0.02359614779774155
% es.tEy (V/m) @ t=0.5
0
% es.tEz (V/m) @ t=0.5
-0.047508634391912
% V (V) @ t=0.5
0.012543161908136645
% es.normE (V/m) @ t=0.52
0.05454950818016547
% es.EX (V/m) @ t=0.52
-0.023824345789792645
% es.EY (V/m) @ t=0.52
0.01034988856901009
% es.EZ (V/m) @ t=0.52
-0.04796800180323757
% es.tEX (V/m) @ t=0.52
-0.02382434578979087
% es.tEY (V/m) @ t=0.52
0
% es.tEZ (V/m) @ t=0.52
-0.04796800180324112
% es.Ex (V/m) @ t=0.52
-0.023824345789792645
% es.Ey (V/m) @ t=0.52
0.01034988856901009
% es.Ez (V/m) @ t=0.52
-0.04796800180323757
% es.tEx (V/m) @ t=0.52
-0.02382434578979087
% es.tEy (V/m) @ t=0.52
0
% es.tEz (V/m) @ t=0.52
-0.04796800180324112
% V (V) @ t=0.52
0.012664434676983588
% es.normE (V/m) @ t=0.54
0.05507192419472389
% es.EX (V/m) @ t=0.54
-0.02405254378183308
% es.EY (V/m) @ t=0.54
0.010449013498387671
% es.EZ (V/m) @ t=0.54
-0.04842736921455604
% es.tEX (V/m) @ t=0.54
-0.024052543781840185
% es.tEY (V/m) @ t=0.54
0
% es.tEZ (V/m) @ t=0.54
-0.0484273692145587
% es.Ex (V/m) @ t=0.54
-0.02405254378183308
% es.Ey (V/m) @ t=0.54
0.010449013498387671
% es.Ez (V/m) @ t=0.54
-0.04842736921455604
% es.tEx (V/m) @ t=0.54
-0.024052543781840185
% es.tEy (V/m) @ t=0.54
0
% es.tEz (V/m) @ t=0.54
-0.0484273692145587
% V (V) @ t=0.54
0.012785707445830533
% es.normE (V/m) @ t=0.56
0.05559434020930474
% es.EX (V/m) @ t=0.56
-0.024280741773877068
% es.EY (V/m) @ t=0.56
0.010548138427740383
% es.EZ (V/m) @ t=0.56
-0.04888673662587273
% es.tEX (V/m) @ t=0.56
-0.02428074177388595
% es.tEY (V/m) @ t=0.56
0
% es.tEZ (V/m) @ t=0.56
-0.04888673662587806
% es.Ex (V/m) @ t=0.56
-0.024280741773877068
% es.Ey (V/m) @ t=0.56
0.010548138427740383
% es.Ez (V/m) @ t=0.56
-0.04888673662587273
% es.tEx (V/m) @ t=0.56
-0.02428074177388595
% es.tEy (V/m) @ t=0.56
0
% es.tEz (V/m) @ t=0.56
-0.04888673662587806
% V (V) @ t=0.56
0.012906980214677477
% es.normE (V/m) @ t=0.58
0.056116756223928414
% es.EX (V/m) @ t=0.58
-0.024508939765926385
% es.EY (V/m) @ t=0.58
0.010647263357117964
% es.EZ (V/m) @ t=0.58
-0.04934610403720008
% es.tEX (V/m) @ t=0.58
-0.02450893976593349
% es.tEY (V/m) @ t=0.58
0
% es.tEZ (V/m) @ t=0.58
-0.04934610403720008
% es.Ex (V/m) @ t=0.58
-0.024508939765926385
% es.Ey (V/m) @ t=0.58
0.010647263357117964
% es.Ez (V/m) @ t=0.58
-0.04934610403720008
% es.tEx (V/m) @ t=0.58
-0.02450893976593349
% es.tEy (V/m) @ t=0.58
0
% es.tEz (V/m) @ t=0.58
-0.04934610403720008
% V (V) @ t=0.58
0.013028252983524422
% es.normE (V/m) @ t=0.6
0.05663917223856625
% es.EX (V/m) @ t=0.6
-0.024737137757973926
% es.EY (V/m) @ t=0.6
0.01074638828648844
% es.EZ (V/m) @ t=0.6
-0.04980547144851677
% es.tEX (V/m) @ t=0.6
-0.024737137757979255
% es.tEY (V/m) @ t=0.6
0
% es.tEZ (V/m) @ t=0.6
-0.04980547144852121
% es.Ex (V/m) @ t=0.6
-0.024737137757973926
% es.Ey (V/m) @ t=0.6
0.01074638828648844
% es.Ez (V/m) @ t=0.6
-0.04980547144851677
% es.tEx (V/m) @ t=0.6
-0.024737137757979255
% es.tEy (V/m) @ t=0.6
0
% es.tEz (V/m) @ t=0.6
-0.04980547144852121
% V (V) @ t=0.6
0.013149525752371367
% es.normE (V/m) @ t=0.62
0.05716158825323665
% es.EX (V/m) @ t=0.62
-0.024965335750021467
% es.EY (V/m) @ t=0.62
0.01084551321586602
% es.EZ (V/m) @ t=0.62
-0.050264838859840566
% es.tEX (V/m) @ t=0.62
-0.024965335750017914
% es.tEY (V/m) @ t=0.62
0
% es.tEZ (V/m) @ t=0.62
-0.05026483885984412
% es.Ex (V/m) @ t=0.62
-0.024965335750021467
% es.Ey (V/m) @ t=0.62
0.01084551321586602
% es.Ez (V/m) @ t=0.62
-0.050264838859840566
% es.tEx (V/m) @ t=0.62
-0.024965335750017914
% es.tEy (V/m) @ t=0.62
0
% es.tEz (V/m) @ t=0.62
-0.05026483885984412
% V (V) @ t=0.62
0.013270798521218314
% es.normE (V/m) @ t=0.64
0.05768400426792802
% es.EX (V/m) @ t=0.64
-0.025193533742065455
% es.EY (V/m) @ t=0.64
0.010944638145250707
% es.EZ (V/m) @ t=0.64
-0.05072420627116081
% es.tEX (V/m) @ t=0.64
-0.02519353374206368
% es.tEY (V/m) @ t=0.64
0
% es.tEZ (V/m) @ t=0.64
-0.050724206271162586
% es.Ex (V/m) @ t=0.64
-0.025193533742065455
% es.Ey (V/m) @ t=0.64
0.010944638145250707
% es.Ez (V/m) @ t=0.64
-0.05072420627116081
% es.tEx (V/m) @ t=0.64
-0.02519353374206368
% es.tEy (V/m) @ t=0.64
0
% es.tEz (V/m) @ t=0.64
-0.050724206271162586
% V (V) @ t=0.64
0.013392071290065255
% es.normE (V/m) @ t=0.66
0.05820642028264497
% es.EX (V/m) @ t=0.66
-0.02542173173411655
% es.EY (V/m) @ t=0.66
0.011043763074621182
% es.EZ (V/m) @ t=0.66
-0.05118357368248283
% es.tEX (V/m) @ t=0.66
-0.025421731734114772
% es.tEY (V/m) @ t=0.66
0
% es.tEZ (V/m) @ t=0.66
-0.051183573682485495
% es.Ex (V/m) @ t=0.66
-0.02542173173411655
% es.Ey (V/m) @ t=0.66
0.011043763074621182
% es.Ez (V/m) @ t=0.66
-0.05118357368248283
% es.tEx (V/m) @ t=0.66
-0.025421731734114772
% es.tEy (V/m) @ t=0.66
0
% es.tEz (V/m) @ t=0.66
-0.051183573682485495
% V (V) @ t=0.66
0.0135133440589122
% es.normE (V/m) @ t=0.68
0.05872883629736977
% es.EX (V/m) @ t=0.68
-0.025649929726156984
% es.EY (V/m) @ t=0.68
0.011142888003977447
% es.EZ (V/m) @ t=0.68
-0.05164294109379597
% es.tEX (V/m) @ t=0.68
-0.025649929726160536
% es.tEY (V/m) @ t=0.68
0
% es.tEZ (V/m) @ t=0.68
-0.05164294109379863
% es.Ex (V/m) @ t=0.68
-0.025649929726156984
% es.Ey (V/m) @ t=0.68
0.011142888003977447
% es.Ez (V/m) @ t=0.68
-0.05164294109379597
% es.tEx (V/m) @ t=0.68
-0.025649929726160536
% es.tEy (V/m) @ t=0.68
0
% es.tEz (V/m) @ t=0.68
-0.05164294109379863
% V (V) @ t=0.68
0.013634616827759146
% es.normE (V/m) @ t=0.7
0.05925125231213234
% es.EX (V/m) @ t=0.7
-0.025878127718204524
% es.EY (V/m) @ t=0.7
0.011242012933340817
% es.EZ (V/m) @ t=0.7
-0.05210230850512154
% es.tEX (V/m) @ t=0.7
-0.025878127718208077
% es.tEY (V/m) @ t=0.7
0
% es.tEZ (V/m) @ t=0.7
-0.052102308505125094
% es.Ex (V/m) @ t=0.7
-0.025878127718204524
% es.Ey (V/m) @ t=0.7
0.011242012933340817
% es.Ez (V/m) @ t=0.7
-0.05210230850512154
% es.tEx (V/m) @ t=0.7
-0.025878127718208077
% es.tEy (V/m) @ t=0.7
0
% es.tEz (V/m) @ t=0.7
-0.052102308505125094
% V (V) @ t=0.7
0.013755889596606093
% es.normE (V/m) @ t=0.72
0.059773668326921874
% es.EX (V/m) @ t=0.72
-0.02610632571025917
% es.EY (V/m) @ t=0.72
0.011341137862739714
% es.EZ (V/m) @ t=0.72
-0.052561675916441786
% es.tEX (V/m) @ t=0.72
-0.026106325710257394
% es.tEY (V/m) @ t=0.72
0
% es.tEZ (V/m) @ t=0.72
-0.05256167591644445
% es.Ex (V/m) @ t=0.72
-0.02610632571025917
% es.Ey (V/m) @ t=0.72
0.011341137862739714
% es.Ez (V/m) @ t=0.72
-0.052561675916441786
% es.tEx (V/m) @ t=0.72
-0.026106325710257394
% es.tEy (V/m) @ t=0.72
0
% es.tEz (V/m) @ t=0.72
-0.05256167591644445
% V (V) @ t=0.72
0.013877162365453034
% es.normE (V/m) @ t=0.74
0.06031068902670562
% es.EX (V/m) @ t=0.74
-0.02634086981514372
% es.EY (V/m) @ t=0.74
0.011443029129804216
% es.EZ (V/m) @ t=0.74
-0.05303390304882427
% es.tEX (V/m) @ t=0.74
-0.02634086981514905
% es.tEY (V/m) @ t=0.74
0
% es.tEZ (V/m) @ t=0.74
-0.05303390304883049
% es.Ex (V/m) @ t=0.74
-0.02634086981514372
% es.Ey (V/m) @ t=0.74
0.011443029129804216
% es.Ez (V/m) @ t=0.74
-0.05303390304882427
% es.tEx (V/m) @ t=0.74
-0.02634086981514905
% es.tEy (V/m) @ t=0.74
0
% es.tEz (V/m) @ t=0.74
-0.05303390304883049
% V (V) @ t=0.74
0.014001838557474836
% es.normE (V/m) @ t=0.76
0.06089335729859785
% es.EX (V/m) @ t=0.76
-0.02659524896905907
% es.EY (V/m) @ t=0.76
0.01155356670448171
% es.EZ (V/m) @ t=0.76
-0.05354632379326851
% es.tEX (V/m) @ t=0.76
-0.02659524896905907
% es.tEY (V/m) @ t=0.76
0
% es.tEZ (V/m) @ t=0.76
-0.05354632379327029
% es.Ex (V/m) @ t=0.76
-0.02659524896905907
% es.Ey (V/m) @ t=0.76
0.01155356670448171
% es.Ez (V/m) @ t=0.76
-0.05354632379326851
% es.tEx (V/m) @ t=0.76
-0.02659524896905907
% es.tEy (V/m) @ t=0.76
0
% es.tEz (V/m) @ t=0.76
-0.05354632379327029
% V (V) @ t=0.76
0.014137152295220059
% es.normE (V/m) @ t=0.78
0.06147602557071055
% es.EX (V/m) @ t=0.78
-0.026849628122969094
% es.EY (V/m) @ t=0.78
0.011664104279148546
% es.EZ (V/m) @ t=0.78
-0.05405874453771631
% es.tEX (V/m) @ t=0.78
-0.02684962812297087
% es.tEY (V/m) @ t=0.78
0
% es.tEZ (V/m) @ t=0.78
-0.05405874453772075
% es.Ex (V/m) @ t=0.78
-0.026849628122969094
% es.Ey (V/m) @ t=0.78
0.011664104279148546
% es.Ez (V/m) @ t=0.78
-0.05405874453771631
% es.tEx (V/m) @ t=0.78
-0.02684962812297087
% es.tEy (V/m) @ t=0.78
0
% es.tEz (V/m) @ t=0.78
-0.05405874453772075
% V (V) @ t=0.78
0.014272466032965279
% es.normE (V/m) @ t=0.8
0.06205869384304531
% es.EX (V/m) @ t=0.8
-0.027104007276887998
% es.EY (V/m) @ t=0.8
0.011774641853854462
% es.EZ (V/m) @ t=0.8
-0.05457116528215877
% es.tEX (V/m) @ t=0.8
-0.027104007276884445
% es.tEY (V/m) @ t=0.8
0
% es.tEZ (V/m) @ t=0.8
-0.0545711652821641
% es.Ex (V/m) @ t=0.8
-0.027104007276887998
% es.Ey (V/m) @ t=0.8
0.011774641853854462
% es.Ez (V/m) @ t=0.8
-0.05457116528215877
% es.tEx (V/m) @ t=0.8
-0.027104007276884445
% es.tEy (V/m) @ t=0.8
0
% es.tEz (V/m) @ t=0.8
-0.0545711652821641
% V (V) @ t=0.8
0.014407779770710498
% es.normE (V/m) @ t=0.82
0.06264136211557743
% es.EX (V/m) @ t=0.82
-0.02735838643080335
% es.EY (V/m) @ t=0.82
0.011885179428521297
% es.EZ (V/m) @ t=0.82
-0.055083586026597686
% es.tEX (V/m) @ t=0.82
-0.027358386430805126
% es.tEY (V/m) @ t=0.82
0
% es.tEZ (V/m) @ t=0.82
-0.05508358602660479
% es.Ex (V/m) @ t=0.82
-0.02735838643080335
% es.Ey (V/m) @ t=0.82
0.011885179428521297
% es.Ez (V/m) @ t=0.82
-0.055083586026597686
% es.tEx (V/m) @ t=0.82
-0.027358386430805126
% es.tEy (V/m) @ t=0.82
0
% es.tEz (V/m) @ t=0.82
-0.05508358602660479
% V (V) @ t=0.82
0.014543093508455717
% es.normE (V/m) @ t=0.84
0.06322403038832561
% es.EX (V/m) @ t=0.84
-0.027612765584720478
% es.EY (V/m) @ t=0.84
0.011995717003216555
% es.EZ (V/m) @ t=0.84
-0.055596006771043704
% es.tEX (V/m) @ t=0.84
-0.027612765584716925
% es.tEY (V/m) @ t=0.84
0
% es.tEZ (V/m) @ t=0.84
-0.05559600677104726
% es.Ex (V/m) @ t=0.84
-0.027612765584720478
% es.Ey (V/m) @ t=0.84
0.011995717003216555
% es.Ez (V/m) @ t=0.84
-0.055596006771043704
% es.tEx (V/m) @ t=0.84
-0.027612765584716925
% es.tEy (V/m) @ t=0.84
0
% es.tEz (V/m) @ t=0.84
-0.05559600677104726
% V (V) @ t=0.84
0.014678407246200937
% es.normE (V/m) @ t=0.86
0.06380669866127778
% es.EX (V/m) @ t=0.86
-0.027867144738642935
% es.EY (V/m) @ t=0.86
0.01210625457792247
% es.EZ (V/m) @ t=0.86
-0.0561084275154915
% es.tEX (V/m) @ t=0.86
-0.02786714473865004
% es.tEY (V/m) @ t=0.86
0
% es.tEZ (V/m) @ t=0.86
-0.05610842751549594
% es.Ex (V/m) @ t=0.86
-0.027867144738642935
% es.Ey (V/m) @ t=0.86
0.01210625457792247
% es.Ez (V/m) @ t=0.86
-0.0561084275154915
% es.tEx (V/m) @ t=0.86
-0.02786714473865004
% es.tEy (V/m) @ t=0.86
0
% es.tEz (V/m) @ t=0.86
-0.05610842751549594
% V (V) @ t=0.86
0.014813720983946158
% es.normE (V/m) @ t=0.88
0.06438936693440636
% es.EX (V/m) @ t=0.88
-0.02812152389255118
% es.EY (V/m) @ t=0.88
0.012216792152599965
% es.EZ (V/m) @ t=0.88
-0.056620848259933965
% es.tEX (V/m) @ t=0.88
-0.02812152389255651
% es.tEY (V/m) @ t=0.88
0
% es.tEZ (V/m) @ t=0.88
-0.056620848259938406
% es.Ex (V/m) @ t=0.88
-0.02812152389255118
% es.Ey (V/m) @ t=0.88
0.012216792152599965
% es.Ez (V/m) @ t=0.88
-0.056620848259933965
% es.tEx (V/m) @ t=0.88
-0.02812152389255651
% es.tEy (V/m) @ t=0.88
0
% es.tEz (V/m) @ t=0.88
-0.056620848259938406
% V (V) @ t=0.88
0.01494903472169138
% es.normE (V/m) @ t=0.9
0.06497203520772565
% es.EX (V/m) @ t=0.9
-0.028375903046464757
% es.EY (V/m) @ t=0.9
0.012327329727273906
% es.EZ (V/m) @ t=0.9
-0.05713326900437821
% es.tEX (V/m) @ t=0.9
-0.028375903046466533
% es.tEY (V/m) @ t=0.9
0
% es.tEZ (V/m) @ t=0.9
-0.05713326900438176
% es.Ex (V/m) @ t=0.9
-0.028375903046464757
% es.Ey (V/m) @ t=0.9
0.012327329727273906
% es.Ez (V/m) @ t=0.9
-0.05713326900437821
% es.tEx (V/m) @ t=0.9
-0.028375903046466533
% es.tEy (V/m) @ t=0.9
0
% es.tEz (V/m) @ t=0.9
-0.05713326900438176
% V (V) @ t=0.9
0.015084348459436597
% es.normE (V/m) @ t=0.92
0.06555470348123296
% es.EX (V/m) @ t=0.92
-0.02863028220038366
% es.EY (V/m) @ t=0.92
0.012437867301972716
% es.EZ (V/m) @ t=0.92
-0.05764568974882067
% es.tEX (V/m) @ t=0.92
-0.02863028220038899
% es.tEY (V/m) @ t=0.92
0
% es.tEZ (V/m) @ t=0.92
-0.05764568974882511
% es.Ex (V/m) @ t=0.92
-0.02863028220038366
% es.Ey (V/m) @ t=0.92
0.012437867301972716
% es.Ez (V/m) @ t=0.92
-0.05764568974882067
% es.tEx (V/m) @ t=0.92
-0.02863028220038899
% es.tEy (V/m) @ t=0.92
0
% es.tEz (V/m) @ t=0.92
-0.05764568974882511
% V (V) @ t=0.92
0.015219662197181816
% es.normE (V/m) @ t=0.94
0.0661373717549217
% es.EX (V/m) @ t=0.94
-0.028884661354306118
% es.EY (V/m) @ t=0.94
0.01254840487665021
% es.EZ (V/m) @ t=0.94
-0.05815811049327024
% es.tEX (V/m) @ t=0.94
-0.02888466135430967
% es.tEY (V/m) @ t=0.94
0
% es.tEZ (V/m) @ t=0.94
-0.05815811049327202
% es.Ex (V/m) @ t=0.94
-0.028884661354306118
% es.Ey (V/m) @ t=0.94
0.01254840487665021
% es.Ez (V/m) @ t=0.94
-0.05815811049327024
% es.tEx (V/m) @ t=0.94
-0.02888466135430967
% es.tEy (V/m) @ t=0.94
0
% es.tEz (V/m) @ t=0.94
-0.05815811049327202
% V (V) @ t=0.94
0.015354975934927037
% es.normE (V/m) @ t=0.96
0.06672004002876712
% es.EX (V/m) @ t=0.96
-0.029139040508212588
% es.EY (V/m) @ t=0.96
0.012658942451327704
% es.EZ (V/m) @ t=0.96
-0.058670531237709156
% es.tEX (V/m) @ t=0.96
-0.029139040508217917
% es.tEY (V/m) @ t=0.96
0
% es.tEZ (V/m) @ t=0.96
-0.0586705312377136
% es.Ex (V/m) @ t=0.96
-0.029139040508212588
% es.Ey (V/m) @ t=0.96
0.012658942451327704
% es.Ez (V/m) @ t=0.96
-0.058670531237709156
% es.tEx (V/m) @ t=0.96
-0.029139040508217917
% es.tEy (V/m) @ t=0.96
0
% es.tEz (V/m) @ t=0.96
-0.0586705312377136
% V (V) @ t=0.96
0.015490289672672259
% es.normE (V/m) @ t=0.98
0.06730270830280226
% es.EX (V/m) @ t=0.98
-0.02939341966213682
% es.EY (V/m) @ t=0.98
0.012769480026026514
% es.EZ (V/m) @ t=0.98
-0.05918295198215873
% es.tEX (V/m) @ t=0.98
-0.029393419662140374
% es.tEY (V/m) @ t=0.98
0
% es.tEZ (V/m) @ t=0.98
-0.059182951982164944
% es.Ex (V/m) @ t=0.98
-0.02939341966213682
% es.Ey (V/m) @ t=0.98
0.012769480026026514
% es.Ez (V/m) @ t=0.98
-0.05918295198215873
% es.tEx (V/m) @ t=0.98
-0.029393419662140374
% es.tEy (V/m) @ t=0.98
0
% es.tEz (V/m) @ t=0.98
-0.059182951982164944
% V (V) @ t=0.98
0.01562560341041748
% es.normE (V/m) @ t=1
0.06788616770429122
% es.EX (V/m) @ t=1
-0.029648147285252335
% es.EY (V/m) @ t=1
0.012880168128102554
% es.EZ (V/m) @ t=1
-0.059696066847983786
% es.tEX (V/m) @ t=1
-0.02964814728525056
% es.tEY (V/m) @ t=1
0
% es.tEZ (V/m) @ t=1
-0.05969606684798645
% es.Ex (V/m) @ t=1