% Model:              1 neuron.mph
% Version:            COMSOL 6.1.0.252
% Date:               Mar 26 2023, 14:44
% Dimension:          0
% Nodes:              14017
% Expressions:        14017
% Description:        Electric field norm, Electric field, X component, Electric field, Y component, Electric field, Z component, Tangential electric field, X component, Tangential electric field, Y component, Tangential electric field, Z component, Electric field, x component, Electric field, y component, Electric field, z component, Tangential electric field, x component, Tangential electric field, y component, Tangential electric field, z component, Electric potential
% Length unit:        mm
% x
2
% y
14.200000000000001
% z
1.6600000000000001
% es.normE (V/m) @ t=0
0.043076629738185435
% es.EX (V/m) @ t=0
-0.04107914879906052
% es.EY (V/m) @ t=0
0.0036545463862225347
% es.EZ (V/m) @ t=0
-0.012439608283877523
% es.tEX (V/m) @ t=0
-0.04107914879905694
% es.tEY (V/m) @ t=0
0
% es.tEZ (V/m) @ t=0
-0.012439608283876247
% es.Ex (V/m) @ t=0
-0.04107914879906052
% es.Ey (V/m) @ t=0
0.0036545463862225347
% es.Ez (V/m) @ t=0
-0.012439608283877523
% es.tEx (V/m) @ t=0
-0.04107914879905694
% es.tEy (V/m) @ t=0
0
% es.tEz (V/m) @ t=0
-0.012439608283876247
% V (V) @ t=0
0.011019993520004651
% es.normE (V/m) @ t=0.02
0.03944918743808047
% es.EX (V/m) @ t=0.02
-0.03761991265327416
% es.EY (V/m) @ t=0.02
0.0033468006279733786
% es.EZ (V/m) @ t=0.02
-0.011392080013826522
% es.tEX (V/m) @ t=0.02
-0.0376199126532728
% es.tEY (V/m) @ t=0.02
0
% es.tEZ (V/m) @ t=0.02
-0.011392080013825634
% es.Ex (V/m) @ t=0.02
-0.03761991265327416
% es.Ey (V/m) @ t=0.02
0.0033468006279733786
% es.Ez (V/m) @ t=0.02
-0.011392080013826522
% es.tEx (V/m) @ t=0.02
-0.0376199126532728
% es.tEy (V/m) @ t=0.02
0
% es.tEz (V/m) @ t=0.02
-0.011392080013825634
% V (V) @ t=0.02
0.010092010029357685
% es.normE (V/m) @ t=0.04
0.0398112111857899
% es.EX (V/m) @ t=0.04
-0.037965149382111485
% es.EY (V/m) @ t=0.04
0.003377514234935486
% es.EZ (V/m) @ t=0.04
-0.011496624116075604
% es.tEX (V/m) @ t=0.04
-0.03796514938211093
% es.tEY (V/m) @ t=0.04
0
% es.tEZ (V/m) @ t=0.04
-0.011496624116076326
% es.Ex (V/m) @ t=0.04
-0.037965149382111485
% es.Ey (V/m) @ t=0.04
0.003377514234935486
% es.Ez (V/m) @ t=0.04
-0.011496624116075604
% es.tEx (V/m) @ t=0.04
-0.03796514938211093
% es.tEy (V/m) @ t=0.04
0
% es.tEz (V/m) @ t=0.04
-0.011496624116076326
% V (V) @ t=0.04
0.010184623791715683
% es.normE (V/m) @ t=0.06
0.04017747891714583
% es.EX (V/m) @ t=0.06
-0.03831443371209911
% es.EY (V/m) @ t=0.06
0.0034085882353495633
% es.EZ (V/m) @ t=0.06
-0.011602392326615113
% es.tEX (V/m) @ t=0.06
-0.03831443371209575
% es.tEY (V/m) @ t=0.06
0
% es.tEZ (V/m) @ t=0.06
-0.011602392326614641
% es.Ex (V/m) @ t=0.06
-0.03831443371209911
% es.Ey (V/m) @ t=0.06
0.0034085882353495633
% es.Ez (V/m) @ t=0.06
-0.011602392326615113
% es.tEx (V/m) @ t=0.06
-0.03831443371209575
% es.tEy (V/m) @ t=0.06
0
% es.tEz (V/m) @ t=0.06
-0.011602392326614641
% V (V) @ t=0.06
0.010278322668795423
% es.normE (V/m) @ t=0.08
0.04054707557146709
% es.EX (V/m) @ t=0.08
-0.03866689198195067
% es.EY (V/m) @ t=0.08
0.0034399441452641066
% es.EZ (V/m) @ t=0.08
-0.011709124054850806
% es.tEX (V/m) @ t=0.08
-0.03866689198194884
% es.tEY (V/m) @ t=0.08
0
% es.tEZ (V/m) @ t=0.08
-0.01170912405484903
% es.Ex (V/m) @ t=0.08
-0.03866689198195067
% es.Ey (V/m) @ t=0.08
0.0034399441452641066
% es.Ez (V/m) @ t=0.08
-0.011709124054850806
% es.tEx (V/m) @ t=0.08
-0.03866689198194884
% es.tEy (V/m) @ t=0.08
0
% es.tEz (V/m) @ t=0.08
-0.01170912405484903
% V (V) @ t=0.08
0.01037287404946366
% es.normE (V/m) @ t=0.1
0.04092373398037983
% es.EX (V/m) @ t=0.1
-0.03902608323560286
% es.EY (V/m) @ t=0.1
0.0034718980792121656
% es.EZ (V/m) @ t=0.1
-0.011817899725088843
% es.tEX (V/m) @ t=0.1
-0.039026083235601305
% es.tEY (V/m) @ t=0.1
0
% es.tEZ (V/m) @ t=0.1
-0.011817899725087067
% es.Ex (V/m) @ t=0.1
-0.03902608323560286
% es.Ey (V/m) @ t=0.1
0.0034718980792121656
% es.Ez (V/m) @ t=0.1
-0.011817899725088843
% es.tEx (V/m) @ t=0.1
-0.039026083235601305
% es.tEy (V/m) @ t=0.1
0
% es.tEz (V/m) @ t=0.1
-0.011817899725087067
% V (V) @ t=0.1
0.010469233874246368
% es.normE (V/m) @ t=0.12
0.041300392389298585
% es.EX (V/m) @ t=0.12
-0.03938527448926135
% es.EY (V/m) @ t=0.12
0.003503852013150177
% es.EZ (V/m) @ t=0.12
-0.011926675395327685
% es.tEX (V/m) @ t=0.12
-0.03938527448925644
% es.tEY (V/m) @ t=0.12
0
% es.tEZ (V/m) @ t=0.12
-0.011926675395325992
% es.Ex (V/m) @ t=0.12
-0.03938527448926135
% es.Ey (V/m) @ t=0.12
0.003503852013150177
% es.Ez (V/m) @ t=0.12
-0.011926675395327685
% es.tEx (V/m) @ t=0.12
-0.03938527448925644
% es.tEy (V/m) @ t=0.12
0
% es.tEz (V/m) @ t=0.12
-0.011926675395325992
% V (V) @ t=0.12
0.010565593699029076
% es.normE (V/m) @ t=0.14
0.04167705079821179
% es.EX (V/m) @ t=0.14
-0.03974446574291535
% es.EY (V/m) @ t=0.14
0.003535805947084081
% es.EZ (V/m) @ t=0.14
-0.012035451065561253
% es.tEX (V/m) @ t=0.14
-0.03974446574291157
% es.tEY (V/m) @ t=0.14
0
% es.tEZ (V/m) @ t=0.14
-0.012035451065561364
% es.Ex (V/m) @ t=0.14
-0.03974446574291535
% es.Ey (V/m) @ t=0.14
0.003535805947084081
% es.Ez (V/m) @ t=0.14
-0.012035451065561253
% es.tEx (V/m) @ t=0.14
-0.03974446574291157
% es.tEy (V/m) @ t=0.14
0
% es.tEz (V/m) @ t=0.14
-0.012035451065561364
% V (V) @ t=0.14
0.010661953523811784
% es.normE (V/m) @ t=0.16
0.042067980603075525
% es.EX (V/m) @ t=0.16
-0.040117274936776415
% es.EY (V/m) @ t=0.16
0.0035689774648623995
% es.EZ (V/m) @ t=0.16
-0.012148318547154313
% es.tEX (V/m) @ t=0.16
-0.040117274936776415
% es.tEY (V/m) @ t=0.16
0
% es.tEZ (V/m) @ t=0.16
-0.01214831854715448
% es.Ex (V/m) @ t=0.16
-0.040117274936776415
% es.Ey (V/m) @ t=0.16
0.0035689774648623995
% es.Ez (V/m) @ t=0.16
-0.012148318547154313
% es.tEx (V/m) @ t=0.16
-0.040117274936776415
% es.tEy (V/m) @ t=0.16
0
% es.tEz (V/m) @ t=0.16
-0.01214831854715448
% V (V) @ t=0.16
0.010761952427798739
% es.normE (V/m) @ t=0.18
0.04246672637308465
% es.EX (V/m) @ t=0.18
-0.04049754221994459
% es.EY (V/m) @ t=0.18
0.003602815812481286
% es.EZ (V/m) @ t=0.18
-0.012263426976648228
% es.tEX (V/m) @ t=0.18
-0.04049754221994162
% es.tEY (V/m) @ t=0.18
0
% es.tEZ (V/m) @ t=0.18
-0.012263426976648173
% es.Ex (V/m) @ t=0.18
-0.04049754221994459
% es.Ey (V/m) @ t=0.18
0.003602815812481286
% es.Ez (V/m) @ t=0.18
-0.012263426976648228
% es.tEx (V/m) @ t=0.18
-0.04049754221994162
% es.tEy (V/m) @ t=0.18
0
% es.tEz (V/m) @ t=0.18
-0.012263426976648173
% V (V) @ t=0.18
0.010863944333463743
% es.normE (V/m) @ t=0.2
0.04286547214313387
% es.EX (V/m) @ t=0.2
-0.04087780950311101
% es.EY (V/m) @ t=0.2
0.0036366541600997837
% es.EZ (V/m) @ t=0.2
-0.01237853540613676
% es.tEX (V/m) @ t=0.2
-0.04087780950311082
% es.tEY (V/m) @ t=0.2
0
% es.tEZ (V/m) @ t=0.2
-0.01237853540613898
% es.Ex (V/m) @ t=0.2
-0.04087780950311101
% es.Ey (V/m) @ t=0.2
0.0036366541600997837
% es.Ez (V/m) @ t=0.2
-0.01237853540613676
% es.tEx (V/m) @ t=0.2
-0.04087780950311082
% es.tEy (V/m) @ t=0.2
0
% es.tEz (V/m) @ t=0.2
-0.01237853540613898
% V (V) @ t=0.2
0.010965936239128752
% es.normE (V/m) @ t=0.22
0.04326421791322907
% es.EX (V/m) @ t=0.22
-0.041258076786279185
% es.EY (V/m) @ t=0.22
0.003670492507725609
% es.EZ (V/m) @ t=0.22
-0.012493643835630674
% es.tEX (V/m) @ t=0.22
-0.04125807678628046
% es.tEY (V/m) @ t=0.22
0
% es.tEZ (V/m) @ t=0.22
-0.012493643835629786
% es.Ex (V/m) @ t=0.22
-0.041258076786279185
% es.Ey (V/m) @ t=0.22
0.003670492507725609
% es.Ez (V/m) @ t=0.22
-0.012493643835630674
% es.tEx (V/m) @ t=0.22
-0.04125807678628046
% es.tEy (V/m) @ t=0.22
0
% es.tEz (V/m) @ t=0.22
-0.012493643835629786
% V (V) @ t=0.22
0.011067928144793758
% es.normE (V/m) @ t=0.24
0.043662963683359174
% es.EX (V/m) @ t=0.24
-0.041638344069444694
% es.EY (V/m) @ t=0.24
0.003704330855333615
% es.EZ (V/m) @ t=0.24
-0.012608752265117484
% es.tEX (V/m) @ t=0.24
-0.04163834406943545
% es.tEY (V/m) @ t=0.24
0
% es.tEZ (V/m) @ t=0.24
-0.012608752265121481
% es.Ex (V/m) @ t=0.24
-0.041638344069444694
% es.Ey (V/m) @ t=0.24
0.003704330855333615
% es.Ez (V/m) @ t=0.24
-0.012608752265117484
% es.tEx (V/m) @ t=0.24
-0.04163834406943545
% es.tEy (V/m) @ t=0.24
0
% es.tEz (V/m) @ t=0.24
-0.012608752265121481
% V (V) @ t=0.24
0.011169920050458764
% es.normE (V/m) @ t=0.26
0.04406170945353272
% es.EX (V/m) @ t=0.26
-0.042018611352609286
% es.EY (V/m) @ t=0.26
0.003738169202969821
% es.EZ (V/m) @ t=0.26
-0.0127238606946114
% es.tEX (V/m) @ t=0.26
-0.04201861135260776
% es.tEY (V/m) @ t=0.26
0
% es.tEZ (V/m) @ t=0.26
-0.012723860694614952
% es.Ex (V/m) @ t=0.26
-0.042018611352609286
% es.Ey (V/m) @ t=0.26
0.003738169202969821
% es.Ez (V/m) @ t=0.26
-0.0127238606946114
% es.tEx (V/m) @ t=0.26
-0.04201861135260776
% es.tEy (V/m) @ t=0.26
0
% es.tEz (V/m) @ t=0.26
-0.012723860694614952
% V (V) @ t=0.26
0.01127191195612377
% es.normE (V/m) @ t=0.28
0.04446045522375268
% es.EX (V/m) @ t=0.28
-0.042398878635783704
% es.EY (V/m) @ t=0.28
0.00377200755058521
% es.EZ (V/m) @ t=0.28
-0.012838969124105287
% es.tEX (V/m) @ t=0.28
-0.04239887863578051
% es.tEY (V/m) @ t=0.28
0
% es.tEZ (V/m) @ t=0.28
-0.012838969124103317
% es.Ex (V/m) @ t=0.28
-0.042398878635783704
% es.Ey (V/m) @ t=0.28
0.00377200755058521
% es.Ez (V/m) @ t=0.28
-0.012838969124105287
% es.tEx (V/m) @ t=0.28
-0.04239887863578051
% es.tEy (V/m) @ t=0.28
0
% es.tEz (V/m) @ t=0.28
-0.012838969124103317
% V (V) @ t=0.28
0.011373903861788777
% es.normE (V/m) @ t=0.3
0.04486624255581574
% es.EX (V/m) @ t=0.3
-0.04278584894191026
% es.EY (V/m) @ t=0.3
0.0038064334370338515
% es.EZ (V/m) @ t=0.3
-0.012956153591508507
% es.tEX (V/m) @ t=0.3
-0.04278584894190951
% es.tEY (V/m) @ t=0.3
0
% es.tEZ (V/m) @ t=0.3
-0.01295615359150859
% es.Ex (V/m) @ t=0.3
-0.04278584894191026
% es.Ey (V/m) @ t=0.3
0.0038064334370338515
% es.Ez (V/m) @ t=0.3
-0.012956153591508507
% es.tEx (V/m) @ t=0.3
-0.04278584894190951
% es.tEy (V/m) @ t=0.3
0
% es.tEz (V/m) @ t=0.3
-0.01295615359150859
% V (V) @ t=0.3
0.011477714315593194
% es.normE (V/m) @ t=0.32
0.04528864549129303
% es.EX (V/m) @ t=0.32
-0.04318863601893094
% es.EY (V/m) @ t=0.32
0.003842245707961267
% es.EZ (V/m) @ t=0.32
-0.01307823677641487
% es.tEX (V/m) @ t=0.32
-0.04318863601893108
% es.tEY (V/m) @ t=0.32
0
% es.tEZ (V/m) @ t=0.32
-0.013078236776418395
% es.Ex (V/m) @ t=0.32
-0.04318863601893094
% es.Ey (V/m) @ t=0.32
0.003842245707961267
% es.Ez (V/m) @ t=0.32
-0.01307823677641487
% es.tEx (V/m) @ t=0.32
-0.04318863601893108
% es.tEy (V/m) @ t=0.32
0
% es.tEz (V/m) @ t=0.32
-0.013078236776418395
% V (V) @ t=0.32
0.011585815901832
% es.normE (V/m) @ t=0.34
0.045711048427039234
% es.EX (V/m) @ t=0.34
-0.043591423095948933
% es.EY (V/m) @ t=0.34
0.003878057978892624
% es.EZ (V/m) @ t=0.34
-0.013200319961328338
% es.tEX (V/m) @ t=0.34
-0.04359142309594288
% es.tEY (V/m) @ t=0.34
0
% es.tEZ (V/m) @ t=0.34
-0.013200319961326201
% es.Ex (V/m) @ t=0.34
-0.043591423095948933
% es.Ey (V/m) @ t=0.34
0.003878057978892624
% es.Ez (V/m) @ t=0.34
-0.013200319961328338
% es.tEx (V/m) @ t=0.34
-0.04359142309594288
% es.tEy (V/m) @ t=0.34
0
% es.tEz (V/m) @ t=0.34
-0.013200319961326201
% V (V) @ t=0.34
0.011693917488070802
% es.normE (V/m) @ t=0.36
0.04613345136303621
% es.EX (V/m) @ t=0.36
-0.04399421017295804
% es.EY (V/m) @ t=0.36
0.0039138702498128786
% es.EZ (V/m) @ t=0.36
-0.013322403146236506
% es.tEX (V/m) @ t=0.36
-0.04399421017295024
% es.tEY (V/m) @ t=0.36
0
% es.tEZ (V/m) @ t=0.36
-0.013322403146234452
% es.Ex (V/m) @ t=0.36
-0.04399421017295804
% es.Ey (V/m) @ t=0.36
0.0039138702498128786
% es.Ez (V/m) @ t=0.36
-0.013322403146236506
% es.tEx (V/m) @ t=0.36
-0.04399421017295024
% es.tEy (V/m) @ t=0.36
0
% es.tEz (V/m) @ t=0.36
-0.013322403146234452
% V (V) @ t=0.36
0.01180201907430961
% es.normE (V/m) @ t=0.38
0.04655585429929375
% es.EX (V/m) @ t=0.38
-0.04439699724997159
% es.EY (V/m) @ t=0.38
0.003949682520747622
% es.EZ (V/m) @ t=0.38
-0.013444486331146449
% es.tEX (V/m) @ t=0.38
-0.044396997249967374
% es.tEY (V/m) @ t=0.38
0
% es.tEZ (V/m) @ t=0.38
-0.01344448633114581
% es.Ex (V/m) @ t=0.38
-0.04439699724997159
% es.Ey (V/m) @ t=0.38
0.003949682520747622
% es.Ez (V/m) @ t=0.38
-0.013444486331146449
% es.tEx (V/m) @ t=0.38
-0.044396997249967374
% es.tEy (V/m) @ t=0.38
0
% es.tEz (V/m) @ t=0.38
-0.01344448633114581
% V (V) @ t=0.38
0.011910120660548413
% es.normE (V/m) @ t=0.4
0.046978257235803504
% es.EX (V/m) @ t=0.4
-0.04479978432699053
% es.EY (V/m) @ t=0.4
0.003985494791675037
% es.EZ (V/m) @ t=0.4
-0.013566569516056337
% es.tEX (V/m) @ t=0.4
-0.04479978432699072
% es.tEY (V/m) @ t=0.4
0
% es.tEZ (V/m) @ t=0.4
-0.013566569516053617
% es.Ex (V/m) @ t=0.4
-0.04479978432699053
% es.Ey (V/m) @ t=0.4
0.003985494791675037
% es.Ez (V/m) @ t=0.4
-0.013566569516056337
% es.tEx (V/m) @ t=0.4
-0.04479978432699072
% es.tEy (V/m) @ t=0.4
0
% es.tEz (V/m) @ t=0.4
-0.013566569516053617
% V (V) @ t=0.4
0.012018222246787216
% es.normE (V/m) @ t=0.42
0.047400660172550374
% es.EX (V/m) @ t=0.42
-0.04520257140400674
% es.EY (V/m) @ t=0.42
0.004021307062592017
% es.EZ (V/m) @ t=0.42
-0.013688652700964504
% es.tEX (V/m) @ t=0.42
-0.04520257140400519
% es.tEY (V/m) @ t=0.42
0
% es.tEZ (V/m) @ t=0.42
-0.013688652700967197
% es.Ex (V/m) @ t=0.42
-0.04520257140400674
% es.Ey (V/m) @ t=0.42
0.004021307062592017
% es.Ez (V/m) @ t=0.42
-0.013688652700964504
% es.tEx (V/m) @ t=0.42
-0.04520257140400519
% es.tEy (V/m) @ t=0.42
0
% es.tEz (V/m) @ t=0.42
-0.013688652700967197
% V (V) @ t=0.42
0.012126323833026021
% es.normE (V/m) @ t=0.44
0.04782306310953041
% es.EX (V/m) @ t=0.44
-0.045605358481019403
% es.EY (V/m) @ t=0.44
0.004057119333512715
% es.EZ (V/m) @ t=0.44
-0.013810735885877973
% es.tEX (V/m) @ t=0.44
-0.04560535848101743
% es.tEY (V/m) @ t=0.44
0
% es.tEZ (V/m) @ t=0.44
-0.01381073588587478
% es.Ex (V/m) @ t=0.44
-0.045605358481019403
% es.Ey (V/m) @ t=0.44
0.004057119333512715
% es.Ez (V/m) @ t=0.44
-0.013810735885877973
% es.tEx (V/m) @ t=0.44
-0.04560535848101743
% es.tEy (V/m) @ t=0.44
0
% es.tEz (V/m) @ t=0.44
-0.01381073588587478
% V (V) @ t=0.44
0.012234425419264826
% es.normE (V/m) @ t=0.46
0.04829650299972874
% es.EX (V/m) @ t=0.46
-0.046056852023115546
% es.EY (V/m) @ t=0.46
0.0040972910929500395
% es.EZ (V/m) @ t=0.46
-0.013947429491604435
% es.tEX (V/m) @ t=0.46
-0.04605685202311083
% es.tEY (V/m) @ t=0.46
0
% es.tEZ (V/m) @ t=0.46
-0.013947429491601104
% es.Ex (V/m) @ t=0.46
-0.046056852023115546
% es.Ey (V/m) @ t=0.46
0.0040972910929500395
% es.Ez (V/m) @ t=0.46
-0.013947429491604435
% es.tEx (V/m) @ t=0.46
-0.04605685202311083
% es.tEy (V/m) @ t=0.46
0
% es.tEz (V/m) @ t=0.46
-0.013947429491601104
% V (V) @ t=0.46
0.012355531892189875
% es.normE (V/m) @ t=0.48
0.048772676220788416
% es.EX (V/m) @ t=0.48
-0.04651095408462158
% es.EY (V/m) @ t=0.48
0.004137696328784191
% es.EZ (V/m) @ t=0.48
-0.014084905571811579
% es.tEX (V/m) @ t=0.48
-0.04651095408461847
% es.tEY (V/m) @ t=0.48
0
% es.tEZ (V/m) @ t=0.48
-0.014084905571810413
% es.Ex (V/m) @ t=0.48
-0.04651095408462158
% es.Ey (V/m) @ t=0.48
0.004137696328784191
% es.Ez (V/m) @ t=0.48
-0.014084905571811579
% es.tEx (V/m) @ t=0.48
-0.04651095408461847
% es.tEy (V/m) @ t=0.48
0
% es.tEz (V/m) @ t=0.48
-0.014084905571810413
% V (V) @ t=0.48
0.012477334853750164
% es.normE (V/m) @ t=0.5
0.04924884944187761
% es.EX (V/m) @ t=0.5
-0.046965056146125894
% es.EY (V/m) @ t=0.5
0.00417810156460352
% es.EZ (V/m) @ t=0.5
-0.014222381652023997
% es.tEX (V/m) @ t=0.5
-0.046965056146123896
% es.tEY (V/m) @ t=0.5
0
% es.tEZ (V/m) @ t=0.5
-0.014222381652021943
% es.Ex (V/m) @ t=0.5
-0.046965056146125894
% es.Ey (V/m) @ t=0.5
0.00417810156460352
% es.Ez (V/m) @ t=0.5
-0.014222381652023997
% es.tEx (V/m) @ t=0.5
-0.046965056146123896
% es.tEy (V/m) @ t=0.5
0
% es.tEz (V/m) @ t=0.5
-0.014222381652021943
% V (V) @ t=0.5
0.012599137815310454
% es.normE (V/m) @ t=0.52
0.04972502266300414
% es.EX (V/m) @ t=0.52
-0.04741915820763551
% es.EY (V/m) @ t=0.52
0.00421850680045549
% es.EZ (V/m) @ t=0.52
-0.014359857732234665
% es.tEX (V/m) @ t=0.52
-0.0474191582076271
% es.tEY (V/m) @ t=0.52
0
% es.tEZ (V/m) @ t=0.52
-0.014359857732231474
% es.Ex (V/m) @ t=0.52
-0.04741915820763551
% es.Ey (V/m) @ t=0.52
0.00421850680045549
% es.Ez (V/m) @ t=0.52
-0.014359857732234665
% es.tEx (V/m) @ t=0.52
-0.0474191582076271
% es.tEy (V/m) @ t=0.52
0
% es.tEz (V/m) @ t=0.52
-0.014359857732231474
% V (V) @ t=0.52
0.012720940776870743
% es.normE (V/m) @ t=0.54
0.050201195884147794
% es.EX (V/m) @ t=0.54
-0.047873260269136214
% es.EY (V/m) @ t=0.54
0.004258912036253615
% es.EZ (V/m) @ t=0.54
-0.014497333812448943
% es.tEX (V/m) @ t=0.54
-0.04787326026913652
% es.tEY (V/m) @ t=0.54
0
% es.tEZ (V/m) @ t=0.54
-0.014497333812448332
% es.Ex (V/m) @ t=0.54
-0.047873260269136214
% es.Ey (V/m) @ t=0.54
0.004258912036253615
% es.Ez (V/m) @ t=0.54
-0.014497333812448943
% es.tEx (V/m) @ t=0.54
-0.04787326026913652
% es.tEy (V/m) @ t=0.54
0
% es.tEz (V/m) @ t=0.54
-0.014497333812448332
% V (V) @ t=0.54
0.012842743738431035
% es.normE (V/m) @ t=0.56
0.050677369105328836
% es.EX (V/m) @ t=0.56
-0.04832736233064319
% es.EY (V/m) @ t=0.56
0.004299317272112246
% es.EZ (V/m) @ t=0.56
-0.014634809892656059
% es.tEX (V/m) @ t=0.56
-0.048327362330641055
% es.tEY (V/m) @ t=0.56
0
% es.tEZ (V/m) @ t=0.56
-0.014634809892656309
% es.Ex (V/m) @ t=0.56
-0.04832736233064319
% es.Ey (V/m) @ t=0.56
0.004299317272112246
% es.Ez (V/m) @ t=0.56
-0.014634809892656059
% es.tEx (V/m) @ t=0.56
-0.048327362330641055
% es.tEy (V/m) @ t=0.56
0
% es.tEz (V/m) @ t=0.56
-0.014634809892656309
% V (V) @ t=0.56
0.012964546699991324
% es.normE (V/m) @ t=0.58
0.05115354232653928
% es.EX (V/m) @ t=0.58
-0.048781464392155444
% es.EY (V/m) @ t=0.58
0.004339722507921473
% es.EZ (V/m) @ t=0.58
-0.014772285972866755
% es.tEX (V/m) @ t=0.58
-0.04878146439215225
% es.tEY (V/m) @ t=0.58
0
% es.tEZ (V/m) @ t=0.58
-0.014772285972870725
% es.Ex (V/m) @ t=0.58
-0.048781464392155444
% es.Ey (V/m) @ t=0.58
0.004339722507921473
% es.Ez (V/m) @ t=0.58
-0.014772285972866755
% es.tEx (V/m) @ t=0.58
-0.04878146439215225
% es.tEy (V/m) @ t=0.58
0
% es.tEz (V/m) @ t=0.58
-0.014772285972870725
% V (V) @ t=0.58
0.013086349661551616
% es.normE (V/m) @ t=0.6
0.051629715547769905
% es.EX (V/m) @ t=0.6
-0.049235566453657065
% es.EY (V/m) @ t=0.6
0.00438012774374813
% es.EZ (V/m) @ t=0.6
-0.014909762053084558
% es.tEX (V/m) @ t=0.6
-0.04923556645365057
% es.tEY (V/m) @ t=0.6
0
% es.tEZ (V/m) @ t=0.6
-0.014909762053083142
% es.Ex (V/m) @ t=0.6
-0.049235566453657065
% es.Ey (V/m) @ t=0.6
0.00438012774374813
% es.Ez (V/m) @ t=0.6
-0.014909762053084558
% es.tEx (V/m) @ t=0.6
-0.04923556645365057
% es.tEy (V/m) @ t=0.6
0
% es.tEz (V/m) @ t=0.6
-0.014909762053083142
% V (V) @ t=0.6
0.013208152623111907
% es.normE (V/m) @ t=0.62
0.052105888769032806
% es.EX (V/m) @ t=0.62
-0.04968966851516579
% es.EY (V/m) @ t=0.62
0.004420532979592717
% es.EZ (V/m) @ t=0.62
-0.015047238133295227
% es.tEX (V/m) @ t=0.62
-0.04968966851516221
% es.tEY (V/m) @ t=0.62
0
% es.tEZ (V/m) @ t=0.62
-0.01504723813329556
% es.Ex (V/m) @ t=0.62
-0.04968966851516579
% es.Ey (V/m) @ t=0.62
0.004420532979592717
% es.Ez (V/m) @ t=0.62
-0.015047238133295227
% es.tEx (V/m) @ t=0.62
-0.04968966851516221
% es.tEy (V/m) @ t=0.62
0
% es.tEz (V/m) @ t=0.62
-0.01504723813329556
% V (V) @ t=0.62
0.013329955584672194
% es.normE (V/m) @ t=0.64
0.052582061990318035
% es.EX (V/m) @ t=0.64
-0.05014377057667099
% es.EY (V/m) @ t=0.64
0.004460938215423149
% es.EZ (V/m) @ t=0.64
-0.015184714213511225
% es.tEX (V/m) @ t=0.64
-0.050143770576666746
% es.tEY (V/m) @ t=0.64
0
% es.tEZ (V/m) @ t=0.64
-0.015184714213509753
% es.Ex (V/m) @ t=0.64
-0.05014377057667099
% es.Ey (V/m) @ t=0.64
0.004460938215423149
% es.Ez (V/m) @ t=0.64
-0.015184714213511225
% es.tEx (V/m) @ t=0.64
-0.050143770576666746
% es.tEy (V/m) @ t=0.64
0
% es.tEz (V/m) @ t=0.64
-0.015184714213509753
% V (V) @ t=0.64
0.013451758546232487
% es.normE (V/m) @ t=0.66
0.0530582352116323
% es.EX (V/m) @ t=0.66
-0.05059787263818416
% es.EY (V/m) @ t=0.66
0.004501343451245976
% es.EZ (V/m) @ t=0.66
-0.01532219029371834
% es.tEX (V/m) @ t=0.66
-0.05059787263817661
% es.tEY (V/m) @ t=0.66
0
% es.tEZ (V/m) @ t=0.66
-0.015322190293720617
% es.Ex (V/m) @ t=0.66
-0.05059787263818416
% es.Ey (V/m) @ t=0.66
0.004501343451245976
% es.Ez (V/m) @ t=0.66
-0.01532219029371834
% es.tEx (V/m) @ t=0.66
-0.05059787263817661
% es.tEy (V/m) @ t=0.66
0
% es.tEz (V/m) @ t=0.66
-0.015322190293720617
% V (V) @ t=0.66
0.013573561507792778
% es.normE (V/m) @ t=0.68
0.05353440843295454
% es.EX (V/m) @ t=0.68
-0.05105197469967865
% es.EY (V/m) @ t=0.68
0.004541748687065694
% es.EZ (V/m) @ t=0.68
-0.015459666373932618
% es.tEX (V/m) @ t=0.68
-0.051051974699681146
% es.tEY (V/m) @ t=0.68
0
% es.tEZ (V/m) @ t=0.68
-0.01545966637392926
% es.Ex (V/m) @ t=0.68
-0.05105197469967865
% es.Ey (V/m) @ t=0.68
0.004541748687065694
% es.Ez (V/m) @ t=0.68
-0.015459666373932618
% es.tEx (V/m) @ t=0.68
-0.051051974699681146
% es.tEy (V/m) @ t=0.68
0
% es.tEz (V/m) @ t=0.68
-0.01545966637392926
% V (V) @ t=0.68
0.013695364469353067
% es.normE (V/m) @ t=0.7
0.054010581654318636
% es.EX (V/m) @ t=0.7
-0.051506076761190955
% es.EY (V/m) @ t=0.7
0.0045821539229032315
% es.EZ (V/m) @ t=0.7
-0.015597142454146784
% es.tEX (V/m) @ t=0.7
-0.051506076761189235
% es.tEY (V/m) @ t=0.7
0
% es.tEZ (V/m) @ t=0.7
-0.015597142454143675
% es.Ex (V/m) @ t=0.7
-0.051506076761190955
% es.Ey (V/m) @ t=0.7
0.0045821539229032315
% es.Ez (V/m) @ t=0.7
-0.015597142454146784
% es.tEx (V/m) @ t=0.7
-0.051506076761189235
% es.tEy (V/m) @ t=0.7
0
% es.tEz (V/m) @ t=0.7
-0.015597142454143675
% V (V) @ t=0.7
0.013817167430913357
% es.normE (V/m) @ t=0.72
0.05448675487569929
% es.EX (V/m) @ t=0.72
-0.051960178822698766
% es.EY (V/m) @ t=0.72
0.004622559158730055
% es.EZ (V/m) @ t=0.72
-0.015734618534357536
% es.tEX (V/m) @ t=0.72
-0.05196017882269732
% es.tEY (V/m) @ t=0.72
0
% es.tEZ (V/m) @ t=0.72
-0.01573461853435454
% es.Ex (V/m) @ t=0.72
-0.051960178822698766
% es.Ey (V/m) @ t=0.72
0.004622559158730055
% es.Ez (V/m) @ t=0.72
-0.015734618534357536
% es.tEx (V/m) @ t=0.72
-0.05196017882269732
% es.tEy (V/m) @ t=0.72
0
% es.tEz (V/m) @ t=0.72
-0.01573461853435454
% V (V) @ t=0.72
0.01393897039247365
% es.normE (V/m) @ t=0.74
0.05497677305651612
% es.EX (V/m) @ t=0.74
-0.05242748192757682
% es.EY (V/m) @ t=0.74
0.004664137418224801
% es.EZ (V/m) @ t=0.74
-0.015876099539408217
% es.tEX (V/m) @ t=0.74
-0.05242748192757318
% es.tEY (V/m) @ t=0.74
0
% es.tEZ (V/m) @ t=0.74
-0.01587609953940916
% es.Ex (V/m) @ t=0.74
-0.05242748192757682
% es.Ey (V/m) @ t=0.74
0.004664137418224801
% es.Ez (V/m) @ t=0.74
-0.015876099539408217
% es.tEx (V/m) @ t=0.74
-0.05242748192757318
% es.tEy (V/m) @ t=0.74
0
% es.tEz (V/m) @ t=0.74
-0.01587609953940916
% V (V) @ t=0.74
0.014064317958987549
% es.normE (V/m) @ t=0.76
0.05550784324454747
% es.EX (V/m) @ t=0.76
-0.052933927749411774
% es.EY (V/m) @ t=0.76
0.004709193837050374
% es.EZ (V/m) @ t=0.76
-0.01602945563911623
% es.tEX (V/m) @ t=0.76
-0.05293392774940919
% es.tEY (V/m) @ t=0.76
0
% es.tEZ (V/m) @ t=0.76
-0.01602945563911362
% es.Ex (V/m) @ t=0.76
-0.052933927749411774
% es.Ey (V/m) @ t=0.76
0.004709193837050374
% es.Ez (V/m) @ t=0.76
-0.01602945563911623
% es.tEx (V/m) @ t=0.76
-0.05293392774940919
% es.tEy (V/m) @ t=0.76
0
% es.tEz (V/m) @ t=0.76
-0.01602945563911362
% V (V) @ t=0.76
0.014200175715075276
% es.normE (V/m) @ t=0.78
0.05603891343257903
% es.EX (V/m) @ t=0.78
-0.05344037357124404
% es.EY (V/m) @ t=0.78
0.004754250255907477
% es.EZ (V/m) @ t=0.78
-0.016182811738822522
% es.tEX (V/m) @ t=0.78
-0.053440373571244315
% es.tEY (V/m) @ t=0.78
0
% es.tEZ (V/m) @ t=0.78
-0.016182811738822078
% es.Ex (V/m) @ t=0.78
-0.05344037357124404
% es.Ey (V/m) @ t=0.78
0.004754250255907477
% es.Ez (V/m) @ t=0.78
-0.016182811738822522
% es.tEx (V/m) @ t=0.78
-0.053440373571244315
% es.tEy (V/m) @ t=0.78
0
% es.tEz (V/m) @ t=0.78
-0.016182811738822078
% V (V) @ t=0.78
0.014336033471162997
% es.normE (V/m) @ t=0.8
0.05656998362061976
% es.EX (V/m) @ t=0.8
-0.053946819393086126
% es.EY (V/m) @ t=0.8
0.004799306674743542
% es.EZ (V/m) @ t=0.8
-0.01633616783853231
% es.tEX (V/m) @ t=0.8
-0.05394681939308388
% es.tEY (V/m) @ t=0.8
0
% es.tEZ (V/m) @ t=0.8
-0.0163361678385332
% es.Ex (V/m) @ t=0.8
-0.053946819393086126
% es.Ey (V/m) @ t=0.8
0.004799306674743542
% es.Ez (V/m) @ t=0.8
-0.01633616783853231
% es.tEx (V/m) @ t=0.8
-0.05394681939308388
% es.tEy (V/m) @ t=0.8
0
% es.tEz (V/m) @ t=0.8
-0.0163361678385332
% V (V) @ t=0.8
0.014471891227250726
% es.normE (V/m) @ t=0.82
0.057101053808649084
% es.EX (V/m) @ t=0.82
-0.05445326521491661
% es.EY (V/m) @ t=0.82
0.004844363093586879
% es.EZ (V/m) @ t=0.82
-0.016489523938236772
% es.tEX (V/m) @ t=0.82
-0.05445326521491278
% es.tEY (V/m) @ t=0.82
0
% es.tEZ (V/m) @ t=0.82
-0.01648952393823455
% es.Ex (V/m) @ t=0.82
-0.05445326521491661
% es.Ey (V/m) @ t=0.82
0.004844363093586879
% es.Ez (V/m) @ t=0.82
-0.016489523938236772
% es.tEx (V/m) @ t=0.82
-0.05445326521491278
% es.tEy (V/m) @ t=0.82
0
% es.tEz (V/m) @ t=0.82
-0.01648952393823455
% V (V) @ t=0.82
0.014607748983338446
% es.normE (V/m) @ t=0.84
0.05763212399668502
% es.EX (V/m) @ t=0.84
-0.0549597110367524
% es.EY (V/m) @ t=0.84
0.004889419512429938
% es.EZ (V/m) @ t=0.84
-0.01664288003794484
% es.tEX (V/m) @ t=0.84
-0.05495971103675146
% es.tEY (V/m) @ t=0.84
0
% es.tEZ (V/m) @ t=0.84
-0.016642880037944785
% es.Ex (V/m) @ t=0.84
-0.0549597110367524
% es.Ey (V/m) @ t=0.84
0.004889419512429938
% es.Ez (V/m) @ t=0.84
-0.01664288003794484
% es.tEx (V/m) @ t=0.84
-0.05495971103675146
% es.tEy (V/m) @ t=0.84
0
% es.tEz (V/m) @ t=0.84
-0.016642880037944785
% V (V) @ t=0.84
0.01474360673942617
% es.normE (V/m) @ t=0.86
0.05816319418472087
% es.EX (V/m) @ t=0.86
-0.05546615685858736
% es.EY (V/m) @ t=0.86
0.004934475931287319
% es.EZ (V/m) @ t=0.86
-0.0167962361376493
% es.tEX (V/m) @ t=0.86
-0.0554661568585848
% es.tEY (V/m) @ t=0.86
0
% es.tEZ (V/m) @ t=0.86
-0.016796236137649245
% es.Ex (V/m) @ t=0.86
-0.05546615685858736
% es.Ey (V/m) @ t=0.86
0.004934475931287319
% es.Ez (V/m) @ t=0.86
-0.0167962361376493
% es.tEx (V/m) @ t=0.86
-0.0554661568585848
% es.tEy (V/m) @ t=0.86
0
% es.tEz (V/m) @ t=0.86
-0.016796236137649245
% V (V) @ t=0.86
0.014879464495513896
% es.normE (V/m) @ t=0.88
0.05869426437275655
% es.EX (V/m) @ t=0.88
-0.05597260268042231
% es.EY (V/m) @ t=0.88
0.004979532350130433
% es.EZ (V/m) @ t=0.88
-0.016949592237355593
% es.tEX (V/m) @ t=0.88
-0.05597260268041726
% es.tEY (V/m) @ t=0.88
0
% es.tEZ (V/m) @ t=0.88
-0.01694959223735726
% es.Ex (V/m) @ t=0.88
-0.05597260268042231
% es.Ey (V/m) @ t=0.88
0.004979532350130433
% es.Ez (V/m) @ t=0.88
-0.016949592237355593
% es.tEx (V/m) @ t=0.88
-0.05597260268041726
% es.tEy (V/m) @ t=0.88
0
% es.tEz (V/m) @ t=0.88
-0.01694959223735726
% V (V) @ t=0.88
0.015015322251601617
% es.normE (V/m) @ t=0.9
0.05922533456079888
% es.EX (V/m) @ t=0.9
-0.05647904850226171
% es.EY (V/m) @ t=0.9
0.005024588768983984
% es.EZ (V/m) @ t=0.9
-0.017102948337065382
% es.tEX (V/m) @ t=0.9
-0.0564790485022586
% es.tEY (V/m) @ t=0.9
0
% es.tEZ (V/m) @ t=0.9
-0.017102948337063495
% es.Ex (V/m) @ t=0.9
-0.05647904850226171
% es.Ey (V/m) @ t=0.9
0.005024588768983984
% es.Ez (V/m) @ t=0.9
-0.017102948337065382
% es.tEx (V/m) @ t=0.9
-0.0564790485022586
% es.tEy (V/m) @ t=0.9
0
% es.tEz (V/m) @ t=0.9
-0.017102948337063495
% V (V) @ t=0.9
0.01515118000768934
% es.normE (V/m) @ t=0.92
0.05975640474883138
% es.EX (V/m) @ t=0.92
-0.05698549432409311
% es.EY (V/m) @ t=0.92
0.005069645187823768
% es.EZ (V/m) @ t=0.92
-0.017256304436769898
% es.tEX (V/m) @ t=0.92
-0.05698549432408839
% es.tEY (V/m) @ t=0.92
0
% es.tEZ (V/m) @ t=0.92
-0.01725630443676973
% es.Ex (V/m) @ t=0.92
-0.05698549432409311
% es.Ey (V/m) @ t=0.92
0.005069645187823768
% es.Ez (V/m) @ t=0.92
-0.017256304436769898
% es.tEx (V/m) @ t=0.92
-0.05698549432408839
% es.tEy (V/m) @ t=0.92
0
% es.tEz (V/m) @ t=0.92
-0.01725630443676973
% V (V) @ t=0.92
0.01528703776377707
% es.normE (V/m) @ t=0.94
0.06028747493686941
% es.EX (V/m) @ t=0.94
-0.057491940145931564
% es.EY (V/m) @ t=0.94
0.005114701606655947
% es.EZ (V/m) @ t=0.94
-0.01740966053647086
% es.tEX (V/m) @ t=0.94
-0.057491940145928844
% es.tEY (V/m) @ t=0.94
0
% es.tEZ (V/m) @ t=0.94
-0.017409660536471083
% es.Ex (V/m) @ t=0.94
-0.057491940145931564
% es.Ey (V/m) @ t=0.94
0.005114701606655947
% es.Ez (V/m) @ t=0.94
-0.01740966053647086
% es.tEx (V/m) @ t=0.94
-0.057491940145928844
% es.tEy (V/m) @ t=0.94
0
% es.tEz (V/m) @ t=0.94
-0.017409660536471083
% V (V) @ t=0.94
0.01542289551986479
% es.normE (V/m) @ t=0.96
0.06081854512490813
% es.EX (V/m) @ t=0.96
-0.05799838596776563
% es.EY (V/m) @ t=0.96
0.005159758025509997
% es.EZ (V/m) @ t=0.96
-0.01756301663618065
% es.tEX (V/m) @ t=0.96
-0.05799838596776041
% es.tEY (V/m) @ t=0.96
0
% es.tEZ (V/m) @ t=0.96
-0.017563016636179096
% es.Ex (V/m) @ t=0.96
-0.05799838596776563
% es.Ey (V/m) @ t=0.96
0.005159758025509997
% es.Ez (V/m) @ t=0.96
-0.01756301663618065
% es.tEx (V/m) @ t=0.96
-0.05799838596776041
% es.tEy (V/m) @ t=0.96
0
% es.tEz (V/m) @ t=0.96
-0.017563016636179096
% V (V) @ t=0.96
0.015558753275952516
% es.normE (V/m) @ t=0.98
0.06134961531295131
% es.EX (V/m) @ t=0.98
-0.05850483178960586
% es.EY (V/m) @ t=0.98
0.00520481444435994
% es.EZ (V/m) @ t=0.98
-0.017716372735885166
% es.tEX (V/m) @ t=0.98
-0.05850483178960353
% es.tEY (V/m) @ t=0.98
0
% es.tEZ (V/m) @ t=0.98
-0.017716372735884
% es.Ex (V/m) @ t=0.98
-0.05850483178960586
% es.Ey (V/m) @ t=0.98
0.00520481444435994
% es.Ez (V/m) @ t=0.98
-0.017716372735885166
% es.tEx (V/m) @ t=0.98
-0.05850483178960353
% es.tEy (V/m) @ t=0.98
0
% es.tEz (V/m) @ t=0.98
-0.017716372735884
% V (V) @ t=0.98
0.01569461103204024
% es.normE (V/m) @ t=1
0.0618822351221639
% es.EX (V/m) @ t=1
-0.05901275612016066
% es.EY (V/m) @ t=1
0.005250002937648046
% es.EZ (V/m) @ t=1
-0.017870173697306424
% es.tEX (V/m) @ t=1
-0.05901275612015411