% Model:              1 neuron.mph
% Version:            COMSOL 6.1.0.252
% Date:               Mar 26 2023, 14:51
% Dimension:          0
% Nodes:              14017
% Expressions:        14017
% Description:        Electric field norm, Electric field, X component, Electric field, Y component, Electric field, Z component, Tangential electric field, X component, Tangential electric field, Y component, Tangential electric field, Z component, Electric field, x component, Electric field, y component, Electric field, z component, Tangential electric field, x component, Tangential electric field, y component, Tangential electric field, z component, Electric potential
% Length unit:        mm
% x
1
% y
14.200000000000001
% z
1.66
% es.normE (V/m) @ t=0
0.051276518247661364
% es.EX (V/m) @ t=0
0.048642886995195145
% es.EY (V/m) @ t=0
-0.003499442034453182
% es.EZ (V/m) @ t=0
-0.01583997392115677
% es.tEX (V/m) @ t=0
0.04864288699519648
% es.tEY (V/m) @ t=0
0
% es.tEZ (V/m) @ t=0
-0.01583997392115455
% es.Ex (V/m) @ t=0
0.048642886995195145
% es.Ey (V/m) @ t=0
-0.003499442034453182
% es.Ez (V/m) @ t=0
-0.01583997392115677
% es.tEx (V/m) @ t=0
0.04864288699519648
% es.tEy (V/m) @ t=0
0
% es.tEz (V/m) @ t=0
-0.01583997392115455
% V (V) @ t=0
0.010883143263414479
% es.normE (V/m) @ t=0.02
0.046958570283430125
% es.EX (V/m) @ t=0.02
0.04454671467189142
% es.EY (V/m) @ t=0.02
-0.0032047572711739747
% es.EZ (V/m) @ t=0.02
-0.014506104433575473
% es.tEX (V/m) @ t=0.02
0.044546714671893195
% es.tEY (V/m) @ t=0.02
0
% es.tEZ (V/m) @ t=0.02
-0.01450610443358169
% es.Ex (V/m) @ t=0.02
0.04454671467189142
% es.Ey (V/m) @ t=0.02
-0.0032047572711739747
% es.Ez (V/m) @ t=0.02
-0.014506104433575473
% es.tEx (V/m) @ t=0.02
0.044546714671893195
% es.tEy (V/m) @ t=0.02
0
% es.tEz (V/m) @ t=0.02
-0.01450610443358169
% V (V) @ t=0.02
0.009966683881190005
% es.normE (V/m) @ t=0.04
0.04738949912945656
% es.EX (V/m) @ t=0.04
0.04495551043370538
% es.EY (V/m) @ t=0.04
-0.003234166638581115
% es.EZ (V/m) @ t=0.04
-0.014639223870808848
% es.tEX (V/m) @ t=0.04
0.044955510433706714
% es.tEY (V/m) @ t=0.04
0
% es.tEZ (V/m) @ t=0.04
-0.01463922387080574
% es.Ex (V/m) @ t=0.04
0.04495551043370538
% es.Ey (V/m) @ t=0.04
-0.003234166638581115
% es.Ez (V/m) @ t=0.04
-0.014639223870808848
% es.tEx (V/m) @ t=0.04
0.044955510433706714
% es.tEy (V/m) @ t=0.04
0
% es.tEz (V/m) @ t=0.04
-0.01463922387080574
% V (V) @ t=0.04
0.01005814604662307
% es.normE (V/m) @ t=0.06
0.047825539778375406
% es.EX (V/m) @ t=0.06
0.04536915549614662
% es.EY (V/m) @ t=0.06
-0.0032639247816632633
% es.EZ (V/m) @ t=0.06
-0.014773922284859964
% es.tEX (V/m) @ t=0.06
0.04536915549614706
% es.tEY (V/m) @ t=0.06
0
% es.tEZ (V/m) @ t=0.06
-0.014773922284860408
% es.Ex (V/m) @ t=0.06
0.04536915549614662
% es.Ey (V/m) @ t=0.06
-0.0032639247816632633
% es.Ez (V/m) @ t=0.06
-0.014773922284859964
% es.tEx (V/m) @ t=0.06
0.04536915549614706
% es.tEy (V/m) @ t=0.06
0
% es.tEz (V/m) @ t=0.06
-0.014773922284860408
% V (V) @ t=0.06
0.01015069332007714
% es.normE (V/m) @ t=0.08
0.04826539696698467
% es.EX (V/m) @ t=0.08
0.04578642110700537
% es.EY (V/m) @ t=0.08
-0.003293943326006854
% es.EZ (V/m) @ t=0.08
-0.014909799594818196
% es.tEX (V/m) @ t=0.08
0.04578642110700626
% es.tEY (V/m) @ t=0.08
0
% es.tEZ (V/m) @ t=0.08
-0.014909799594819084
% es.Ex (V/m) @ t=0.08
0.04578642110700537
% es.Ey (V/m) @ t=0.08
-0.003293943326006854
% es.Ez (V/m) @ t=0.08
-0.014909799594818196
% es.tEx (V/m) @ t=0.08
0.04578642110700626
% es.tEy (V/m) @ t=0.08
0
% es.tEz (V/m) @ t=0.08
-0.014909799594819084
% V (V) @ t=0.08
0.010244050748457521
% es.normE (V/m) @ t=0.1
0.048713852028316074
% es.EX (V/m) @ t=0.1
0.04621184306287418
% es.EY (V/m) @ t=0.1
-0.0033245485004371744
% es.EZ (V/m) @ t=0.1
-0.015048332712868984
% es.tEX (V/m) @ t=0.1
0.046211843062876845
% es.tEY (V/m) @ t=0.1
0
% es.tEZ (V/m) @ t=0.1
-0.015048332712863655
% es.Ex (V/m) @ t=0.1
0.04621184306287418
% es.Ey (V/m) @ t=0.1
-0.0033245485004371744
% es.Ez (V/m) @ t=0.1
-0.015048332712868984
% es.tEx (V/m) @ t=0.1
0.046211843062876845
% es.tEy (V/m) @ t=0.1
0
% es.tEz (V/m) @ t=0.1
-0.015048332712863655
% V (V) @ t=0.1
0.010339233287939908
% es.normE (V/m) @ t=0.12
0.049162307089646785
% es.EX (V/m) @ t=0.12
0.04663726501874521
% es.EY (V/m) @ t=0.12
-0.0033551536748746003
% es.EZ (V/m) @ t=0.12
-0.015186865830909113
% es.tEX (V/m) @ t=0.12
0.046637265018747875
% es.tEY (V/m) @ t=0.12
0
% es.tEZ (V/m) @ t=0.12
-0.015186865830908669
% es.Ex (V/m) @ t=0.12
0.04663726501874521
% es.Ey (V/m) @ t=0.12
-0.0033551536748746003
% es.Ez (V/m) @ t=0.12
-0.015186865830909113
% es.tEx (V/m) @ t=0.12
0.046637265018747875
% es.tEy (V/m) @ t=0.12
0
% es.tEz (V/m) @ t=0.12
-0.015186865830908669
% V (V) @ t=0.12
0.0104344158274223
% es.normE (V/m) @ t=0.14
0.04961076215099214
% es.EX (V/m) @ t=0.14
0.047062686974630896
% es.EY (V/m) @ t=0.14
-0.0033857588493226842
% es.EZ (V/m) @ t=0.14
-0.015325398948949243
% es.tEX (V/m) @ t=0.14
0.04706268697463356
% es.tEY (V/m) @ t=0.14
0
% es.tEZ (V/m) @ t=0.14
-0.015325398948950575
% es.Ex (V/m) @ t=0.14
0.047062686974630896
% es.Ey (V/m) @ t=0.14
-0.0033857588493226842
% es.Ez (V/m) @ t=0.14
-0.015325398948949243
% es.tEx (V/m) @ t=0.14
0.04706268697463356
% es.tEy (V/m) @ t=0.14
0
% es.tEz (V/m) @ t=0.14
-0.015325398948950575
% V (V) @ t=0.14
0.01052959836690469
% es.normE (V/m) @ t=0.16
0.05007560181899807
% es.EX (V/m) @ t=0.16
0.04750365197768591
% es.EY (V/m) @ t=0.16
-0.0034174822640409275
% es.EZ (V/m) @ t=0.16
-0.015468993544917709
% es.tEX (V/m) @ t=0.16
0.04750365197768858
% es.tEY (V/m) @ t=0.16
0
% es.tEZ (V/m) @ t=0.16
-0.015468993544920373
% es.Ex (V/m) @ t=0.16
0.04750365197768591
% es.Ey (V/m) @ t=0.16
-0.0034174822640409275
% es.Ez (V/m) @ t=0.16
-0.015468993544917709
% es.tEx (V/m) @ t=0.16
0.04750365197768858
% es.tEy (V/m) @ t=0.16
0
% es.tEz (V/m) @ t=0.16
-0.015468993544920373
% V (V) @ t=0.16
0.01062825835729089
% es.normE (V/m) @ t=0.18
0.050550472698326965
% es.EX (V/m) @ t=0.18
0.04795413296082485
% es.EY (V/m) @ t=0.18
-0.003449890303404146
% es.EZ (V/m) @ t=0.18
-0.015615686949164598
% es.tEX (V/m) @ t=0.18
0.04795413296082662
% es.tEY (V/m) @ t=0.18
0
% es.tEZ (V/m) @ t=0.18
-0.01561568694916371
% es.Ex (V/m) @ t=0.18
0.04795413296082485
% es.Ey (V/m) @ t=0.18
-0.003449890303404146
% es.Ez (V/m) @ t=0.18
-0.015615686949164598
% es.tEx (V/m) @ t=0.18
0.04795413296082662
% es.tEy (V/m) @ t=0.18
0
% es.tEz (V/m) @ t=0.18
-0.01561568694916371
% V (V) @ t=0.18
0.01072904736093461
% es.normE (V/m) @ t=0.2
0.05102534357764796
% es.EX (V/m) @ t=0.2
0.04840461394396289
% es.EY (V/m) @ t=0.2
-0.003482298342728285
% es.EZ (V/m) @ t=0.2
-0.015762380353397276
% es.tEX (V/m) @ t=0.2
0.04840461394396778
% es.tEY (V/m) @ t=0.2
0
% es.tEZ (V/m) @ t=0.2
-0.01576238035340216
% es.Ex (V/m) @ t=0.2
0.04840461394396289
% es.Ey (V/m) @ t=0.2
-0.003482298342728285
% es.Ez (V/m) @ t=0.2
-0.015762380353397276
% es.tEx (V/m) @ t=0.2
0.04840461394396778
% es.tEy (V/m) @ t=0.2
0
% es.tEz (V/m) @ t=0.2
-0.01576238035340216
% V (V) @ t=0.2
0.010829836364578328
% es.normE (V/m) @ t=0.22
0.05150021445697576
% es.EX (V/m) @ t=0.22
0.0488550949271076
% es.EY (V/m) @ t=0.22
-0.0035147063820595292
% es.EZ (V/m) @ t=0.22
-0.015909073757629955
% es.tEX (V/m) @ t=0.22
0.04885509492710893
% es.tEY (V/m) @ t=0.22
0
% es.tEZ (V/m) @ t=0.22
-0.015909073757626846
% es.Ex (V/m) @ t=0.22
0.0488550949271076
% es.Ey (V/m) @ t=0.22
-0.0035147063820595292
% es.Ez (V/m) @ t=0.22
-0.015909073757629955
% es.tEx (V/m) @ t=0.22
0.04885509492710893
% es.tEy (V/m) @ t=0.22
0
% es.tEz (V/m) @ t=0.22
-0.015909073757626846
% V (V) @ t=0.22
0.010930625368222046
% es.normE (V/m) @ t=0.24
0.051975085336290895
% es.EX (V/m) @ t=0.24
0.04930557591023588
% es.EY (V/m) @ t=0.24
-0.0035471144214014316
% es.EZ (V/m) @ t=0.24
-0.01605576716186974
% es.tEX (V/m) @ t=0.24
0.049305575910236765
% es.tEY (V/m) @ t=0.24
0
% es.tEZ (V/m) @ t=0.24
-0.016055767161872403
% es.Ex (V/m) @ t=0.24
0.04930557591023588
% es.Ey (V/m) @ t=0.24
-0.0035471144214014316
% es.Ez (V/m) @ t=0.24
-0.01605576716186974
% es.tEx (V/m) @ t=0.24
0.049305575910236765
% es.tEy (V/m) @ t=0.24
0
% es.tEz (V/m) @ t=0.24
-0.016055767161872403
% V (V) @ t=0.24
0.011031414371865762
% es.normE (V/m) @ t=0.26
0.05244995621561843
% es.EX (V/m) @ t=0.26
0.049756056893377476
% es.EY (V/m) @ t=0.26
-0.0035795224607397813
% es.EZ (V/m) @ t=0.26
-0.016202460566109522
% es.tEX (V/m) @ t=0.26
0.04975605689338147
% es.tEY (V/m) @ t=0.26
0
% es.tEZ (V/m) @ t=0.26
-0.01620246056610819
% es.Ex (V/m) @ t=0.26
0.049756056893377476
% es.Ey (V/m) @ t=0.26
-0.0035795224607397813
% es.Ez (V/m) @ t=0.26
-0.016202460566109522
% es.tEx (V/m) @ t=0.26
0.04975605689338147
% es.tEy (V/m) @ t=0.26
0
% es.tEz (V/m) @ t=0.26
-0.01620246056610819
% V (V) @ t=0.26
0.01113220337550948
% es.normE (V/m) @ t=0.28
0.052924827094939925
% es.EX (V/m) @ t=0.28
0.05020653787651552
% es.EY (V/m) @ t=0.28
-0.0036119305000710256
% es.EZ (V/m) @ t=0.28
-0.0163491539703422
% es.tEX (V/m) @ t=0.28
0.05020653787651863
% es.tEY (V/m) @ t=0.28
0
% es.tEZ (V/m) @ t=0.28
-0.016349153970344865
% es.Ex (V/m) @ t=0.28
0.05020653787651552
% es.Ey (V/m) @ t=0.28
-0.0036119305000710256
% es.Ez (V/m) @ t=0.28
-0.0163491539703422
% es.tEx (V/m) @ t=0.28
0.05020653787651863
% es.tEy (V/m) @ t=0.28
0
% es.tEz (V/m) @ t=0.28
-0.016349153970344865
% V (V) @ t=0.28
0.0112329923791532
% es.normE (V/m) @ t=0.3
0.05340663479658653
% es.EX (V/m) @ t=0.3
0.050663599374763724
% es.EY (V/m) @ t=0.3
-0.003644811998540831
% es.EZ (V/m) @ t=0.3
-0.016497990307449584
% es.tEX (V/m) @ t=0.3
0.05066359937476639
% es.tEY (V/m) @ t=0.3
0
% es.tEZ (V/m) @ t=0.3
-0.01649799030744825
% es.Ex (V/m) @ t=0.3
0.050663599374763724
% es.Ey (V/m) @ t=0.3
-0.003644811998540831
% es.Ez (V/m) @ t=0.3
-0.016497990307449584
% es.tEx (V/m) @ t=0.3
0.05066359937476639
% es.tEy (V/m) @ t=0.3
0
% es.tEz (V/m) @ t=0.3
-0.01649799030744825
% V (V) @ t=0.3
0.011335253600032588
% es.normE (V/m) @ t=0.32
0.05390971378001085
% es.EX (V/m) @ t=0.32
0.05114083956357085
% es.EY (V/m) @ t=0.32
-0.003679145326419331
% es.EZ (V/m) @ t=0.32
-0.016653397798734204
% es.tEX (V/m) @ t=0.32
0.05114083956357662
% es.tEY (V/m) @ t=0.32
0
% es.tEZ (V/m) @ t=0.32
-0.016653397798738645
% es.Ex (V/m) @ t=0.32
0.05114083956357085
% es.Ey (V/m) @ t=0.32
-0.003679145326419331
% es.Ez (V/m) @ t=0.32
-0.016653397798734204
% es.tEx (V/m) @ t=0.32
0.05114083956357662
% es.tEy (V/m) @ t=0.32
0
% es.tEz (V/m) @ t=0.32
-0.016653397798738645
% V (V) @ t=0.32
0.011442029272368748
% es.normE (V/m) @ t=0.34
0.05441279276344231
% es.EX (V/m) @ t=0.34
0.05161807975238819
% es.EY (V/m) @ t=0.34
-0.003713478654276514
% es.EZ (V/m) @ t=0.34
-0.016808805290015272
% es.tEX (V/m) @ t=0.34
0.05161807975239219
% es.tEY (V/m) @ t=0.34
0
% es.tEZ (V/m) @ t=0.34
-0.016808805290015716
% es.Ex (V/m) @ t=0.34
0.05161807975238819
% es.Ey (V/m) @ t=0.34
-0.003713478654276514
% es.Ez (V/m) @ t=0.34
-0.016808805290015272
% es.tEx (V/m) @ t=0.34
0.05161807975239219
% es.tEy (V/m) @ t=0.34
0
% es.tEz (V/m) @ t=0.34
-0.016808805290015716
% V (V) @ t=0.34
0.01154880494470491
% es.normE (V/m) @ t=0.36
0.05491587174687645
% es.EX (V/m) @ t=0.36
0.05209531994120642
% es.EY (V/m) @ t=0.36
-0.0037478119821443556
% es.EZ (V/m) @ t=0.36
-0.016964212781299892
% es.tEX (V/m) @ t=0.36
0.052095319941209084
% es.tEY (V/m) @ t=0.36
0
% es.tEZ (V/m) @ t=0.36
-0.016964212781299448
% es.Ex (V/m) @ t=0.36
0.05209531994120642
% es.Ey (V/m) @ t=0.36
-0.0037478119821443556
% es.Ez (V/m) @ t=0.36
-0.016964212781299892
% es.tEx (V/m) @ t=0.36
0.052095319941209084
% es.tEy (V/m) @ t=0.36
0
% es.tEz (V/m) @ t=0.36
-0.016964212781299448
% V (V) @ t=0.36
0.011655580617041071
% es.normE (V/m) @ t=0.38
0.055418950730297754
% es.EX (V/m) @ t=0.38
0.052572560130015766
% es.EY (V/m) @ t=0.38
-0.003782145310012197
% es.EZ (V/m) @ t=0.38
-0.0171196202725703
% es.tEX (V/m) @ t=0.38
0.052572560130018875
% es.tEY (V/m) @ t=0.38
0
% es.tEZ (V/m) @ t=0.38
-0.017119620272573854
% es.Ex (V/m) @ t=0.38
0.052572560130015766
% es.Ey (V/m) @ t=0.38
-0.003782145310012197
% es.Ez (V/m) @ t=0.38
-0.0171196202725703
% es.tEx (V/m) @ t=0.38
0.052572560130018875
% es.tEy (V/m) @ t=0.38
0
% es.tEz (V/m) @ t=0.38
-0.017119620272573854
% V (V) @ t=0.38
0.011762356289377234
% es.normE (V/m) @ t=0.4
0.055922029713726604
% es.EX (V/m) @ t=0.4
0.05304980031882689
% es.EY (V/m) @ t=0.4
-0.003816478637901355
% es.EZ (V/m) @ t=0.4
-0.017275027763854922
% es.tEX (V/m) @ t=0.4
0.05304980031882822
% es.tEY (V/m) @ t=0.4
0
% es.tEZ (V/m) @ t=0.4
-0.01727502776385803
% es.Ex (V/m) @ t=0.4
0.05304980031882689
% es.Ey (V/m) @ t=0.4
-0.003816478637901355
% es.Ez (V/m) @ t=0.4
-0.017275027763854922
% es.tEx (V/m) @ t=0.4
0.05304980031882822
% es.tEy (V/m) @ t=0.4
0
% es.tEz (V/m) @ t=0.4
-0.01727502776385803
% V (V) @ t=0.4
0.011869131961713393
% es.normE (V/m) @ t=0.42
0.056425108697155515
% es.EX (V/m) @ t=0.42
0.05352704050764423
% es.EY (V/m) @ t=0.42
-0.003850811965737222
% es.EZ (V/m) @ t=0.42
-0.017430435255132437
% es.tEX (V/m) @ t=0.42
0.05352704050764823
% es.tEY (V/m) @ t=0.42
0
% es.tEZ (V/m) @ t=0.42
-0.01743043525513599
% es.Ex (V/m) @ t=0.42
0.05352704050764423
% es.Ey (V/m) @ t=0.42
-0.003850811965737222
% es.Ez (V/m) @ t=0.42
-0.017430435255132437
% es.tEx (V/m) @ t=0.42
0.05352704050764823
% es.tEy (V/m) @ t=0.42
0
% es.tEz (V/m) @ t=0.42
-0.01743043525513599
% V (V) @ t=0.42
0.011975907634049555
% es.normE (V/m) @ t=0.44
0.05692818768058592
% es.EX (V/m) @ t=0.44
0.05400428069645802
% es.EY (V/m) @ t=0.44
-0.003885145293612169
% es.EZ (V/m) @ t=0.44
-0.017585842746417057
% es.tEX (V/m) @ t=0.44
0.05400428069646157
% es.tEY (V/m) @ t=0.44
0
% es.tEZ (V/m) @ t=0.44
-0.017585842746420166
% es.Ex (V/m) @ t=0.44
0.05400428069645802
% es.Ey (V/m) @ t=0.44
-0.003885145293612169
% es.Ez (V/m) @ t=0.44
-0.017585842746417057
% es.tEx (V/m) @ t=0.44
0.05400428069646157
% es.tEy (V/m) @ t=0.44
0
% es.tEz (V/m) @ t=0.44
-0.017585842746420166
% V (V) @ t=0.44
0.012082683306385717
% es.normE (V/m) @ t=0.46
0.057487321856314624
% es.EX (V/m) @ t=0.46
0.05453469520866161
% es.EY (V/m) @ t=0.46
-0.003923307806193321
% es.EZ (V/m) @ t=0.46
-0.017758571129675715
% es.tEX (V/m) @ t=0.46
0.05453469520866472
% es.tEY (V/m) @ t=0.46
0
% es.tEZ (V/m) @ t=0.46
-0.01775857112967616
% es.Ex (V/m) @ t=0.46
0.05453469520866161
% es.Ey (V/m) @ t=0.46
-0.003923307806193321
% es.Ez (V/m) @ t=0.46
-0.017758571129675715
% es.tEx (V/m) @ t=0.46
0.05453469520866472
% es.tEy (V/m) @ t=0.46
0
% es.tEz (V/m) @ t=0.46
-0.01775857112967616
% V (V) @ t=0.46
0.01220134978312063
% es.normE (V/m) @ t=0.48
0.05805471570246895
% es.EX (V/m) @ t=0.48
0.05507294489845638
% es.EY (V/m) @ t=0.48
-0.003962034544876758
% es.EZ (V/m) @ t=0.48
-0.017933851727146788
% es.tEX (V/m) @ t=0.48
0.055072944898458154
% es.tEY (V/m) @ t=0.48
0
% es.tEZ (V/m) @ t=0.48
-0.017933851727148564
% es.Ex (V/m) @ t=0.48
0.05507294489845638
% es.Ey (V/m) @ t=0.48
-0.003962034544876758
% es.Ez (V/m) @ t=0.48
-0.017933851727146788
% es.tEx (V/m) @ t=0.48
0.055072944898458154
% es.tEy (V/m) @ t=0.48
0
% es.tEz (V/m) @ t=0.48
-0.017933851727148564
% V (V) @ t=0.48
0.012321768356696178
% es.normE (V/m) @ t=0.5
0.058622109548626365
% es.EX (V/m) @ t=0.5
0.055611194588246704
% es.EY (V/m) @ t=0.5
-0.0040007612835744055
% es.EZ (V/m) @ t=0.5
-0.018109132324635624
% es.tEX (V/m) @ t=0.5
0.055611194588248036
% es.tEY (V/m) @ t=0.5
0
% es.tEZ (V/m) @ t=0.5
-0.0181091323246374
% es.Ex (V/m) @ t=0.5
0.055611194588246704
% es.Ey (V/m) @ t=0.5
-0.0040007612835744055
% es.Ez (V/m) @ t=0.5
-0.018109132324635624
% es.tEx (V/m) @ t=0.5
0.055611194588248036
% es.tEy (V/m) @ t=0.5
0
% es.tEz (V/m) @ t=0.5
-0.0181091323246374
% V (V) @ t=0.5
0.012442186930271727
% es.normE (V/m) @ t=0.52
0.059189503394776
% es.EX (V/m) @ t=0.52
0.05614944427803081
% es.EY (V/m) @ t=0.52
-0.004039488022296922
% es.EZ (V/m) @ t=0.52
-0.01828441292211025
% es.tEX (V/m) @ t=0.52
0.05614944427803348
% es.tEY (V/m) @ t=0.52
0
% es.tEZ (V/m) @ t=0.52
-0.01828441292211158
% es.Ex (V/m) @ t=0.52
0.05614944427803081
% es.Ey (V/m) @ t=0.52
-0.004039488022296922
% es.Ez (V/m) @ t=0.52
-0.01828441292211025
% es.tEx (V/m) @ t=0.52
0.05614944427803348
% es.tEy (V/m) @ t=0.52
0
% es.tEz (V/m) @ t=0.52
-0.01828441292211158
% V (V) @ t=0.52
0.012562605503847272
% es.normE (V/m) @ t=0.54
0.05975689724093655
% es.EX (V/m) @ t=0.54
0.05668769396782558
% es.EY (V/m) @ t=0.54
-0.004078214760987464
% es.EZ (V/m) @ t=0.54
-0.01845969351959198
% es.tEX (V/m) @ t=0.54
0.056687693967828245
% es.tEY (V/m) @ t=0.54
0
% es.tEZ (V/m) @ t=0.54
-0.01845969351959109
% es.Ex (V/m) @ t=0.54
0.05668769396782558
% es.Ey (V/m) @ t=0.54
-0.004078214760987464
% es.Ez (V/m) @ t=0.54
-0.01845969351959198
% es.tEx (V/m) @ t=0.54
0.056687693967828245
% es.tEy (V/m) @ t=0.54
0
% es.tEz (V/m) @ t=0.54
-0.01845969351959109
% V (V) @ t=0.54
0.012683024077422821
% es.normE (V/m) @ t=0.56
0.060324291087096554
% es.EX (V/m) @ t=0.56
0.05722594365761946
% es.EY (V/m) @ t=0.56
-0.004116941499670901
% es.EZ (V/m) @ t=0.56
-0.01863497411707371
% es.tEX (V/m) @ t=0.56
0.05722594365761813
% es.tEY (V/m) @ t=0.56
0
% es.tEZ (V/m) @ t=0.56
-0.018634974117072822
% es.Ex (V/m) @ t=0.56
0.05722594365761946
% es.Ey (V/m) @ t=0.56
-0.004116941499670901
% es.Ez (V/m) @ t=0.56
-0.01863497411707371
% es.tEx (V/m) @ t=0.56
0.05722594365761813
% es.tEy (V/m) @ t=0.56
0
% es.tEz (V/m) @ t=0.56
-0.018634974117072822
% V (V) @ t=0.56
0.01280344265099837
% es.normE (V/m) @ t=0.58
0.060891684933249576
% es.EX (V/m) @ t=0.58
0.057764193347406234
% es.EY (V/m) @ t=0.58
-0.004155668238372101
% es.EZ (V/m) @ t=0.58
-0.018810254714548336
% es.tEX (V/m) @ t=0.58
0.05776419334741112
% es.tEY (V/m) @ t=0.58
0
% es.tEZ (V/m) @ t=0.58
-0.01881025471455544
% es.Ex (V/m) @ t=0.58
0.057764193347406234
% es.Ey (V/m) @ t=0.58
-0.004155668238372101
% es.Ez (V/m) @ t=0.58
-0.018810254714548336
% es.tEx (V/m) @ t=0.58
0.05776419334741112
% es.tEy (V/m) @ t=0.58
0
% es.tEz (V/m) @ t=0.58
-0.01881025471455544
% V (V) @ t=0.58
0.012923861224573917
% es.normE (V/m) @ t=0.6
0.06145907877940514
% es.EX (V/m) @ t=0.6
0.058302443037193896
% es.EY (V/m) @ t=0.6
-0.004194394977087512
% es.EZ (V/m) @ t=0.6
-0.01898553531202296
% es.tEX (V/m) @ t=0.6
0.05830244303719789
% es.tEY (V/m) @ t=0.6
0
% es.tEZ (V/m) @ t=0.6
-0.018985535312029622
% es.Ex (V/m) @ t=0.6
0.058302443037193896
% es.Ey (V/m) @ t=0.6
-0.004194394977087512
% es.Ez (V/m) @ t=0.6
-0.01898553531202296
% es.tEx (V/m) @ t=0.6
0.05830244303719789
% es.tEy (V/m) @ t=0.6
0
% es.tEz (V/m) @ t=0.6
-0.018985535312029622
% V (V) @ t=0.6
0.013044279798149464
% es.normE (V/m) @ t=0.62
0.06202647262556756
% es.EX (V/m) @ t=0.62
0.058840692726987776
% es.EY (V/m) @ t=0.62
-0.004233121715774502
% es.EZ (V/m) @ t=0.62
-0.01916081590950469
% es.tEX (V/m) @ t=0.62
0.058840692726987776
% es.tEY (V/m) @ t=0.62
0
% es.tEZ (V/m) @ t=0.62
-0.019160815909511353
% es.Ex (V/m) @ t=0.62
0.058840692726987776
% es.Ey (V/m) @ t=0.62
-0.004233121715774502
% es.Ez (V/m) @ t=0.62
-0.01916081590950469
% es.tEx (V/m) @ t=0.62
0.058840692726987776
% es.tEy (V/m) @ t=0.62
0
% es.tEz (V/m) @ t=0.62
-0.019160815909511353
% V (V) @ t=0.62
0.013164698371725013
% es.normE (V/m) @ t=0.64
0.06259386647172323
% es.EX (V/m) @ t=0.64
0.059378942416771885
% es.EY (V/m) @ t=0.64
-0.004271848454472149
% es.EZ (V/m) @ t=0.64
-0.019336096506989975
% es.tEX (V/m) @ t=0.64
0.05937894241677766
% es.tEY (V/m) @ t=0.64
0
% es.tEZ (V/m) @ t=0.64
-0.019336096506995304
% es.Ex (V/m) @ t=0.64
0.059378942416771885
% es.Ey (V/m) @ t=0.64
-0.004271848454472149
% es.Ez (V/m) @ t=0.64
-0.019336096506989975
% es.tEx (V/m) @ t=0.64
0.05937894241677766
% es.tEy (V/m) @ t=0.64
0
% es.tEz (V/m) @ t=0.64
-0.019336096506995304
% V (V) @ t=0.64
0.013285116945300563
% es.normE (V/m) @ t=0.66
0.06316126031788928
% es.EX (V/m) @ t=0.66
0.05991719210656932
% es.EY (V/m) @ t=0.66
-0.0043105751931591385
% es.EZ (V/m) @ t=0.66
-0.019511377104468153
% es.tEX (V/m) @ t=0.66
0.059917192106574646
% es.tEY (V/m) @ t=0.66
0
% es.tEZ (V/m) @ t=0.66
-0.01951137710446771
% es.Ex (V/m) @ t=0.66
0.05991719210656932
% es.Ey (V/m) @ t=0.66
-0.0043105751931591385
% es.Ez (V/m) @ t=0.66
-0.019511377104468153
% es.tEx (V/m) @ t=0.66
0.059917192106574646
% es.tEy (V/m) @ t=0.66
0
% es.tEz (V/m) @ t=0.66
-0.01951137710446771
% V (V) @ t=0.66
0.013405535518876108
% es.normE (V/m) @ t=0.68
0.06372865416404758
% es.EX (V/m) @ t=0.68
0.06045544179635698
% es.EY (V/m) @ t=0.68
-0.004349301931842575
% es.EZ (V/m) @ t=0.68
-0.019686657701949883
% es.tEX (V/m) @ t=0.68
0.060455441796360976
% es.tEY (V/m) @ t=0.68
0
% es.tEZ (V/m) @ t=0.68
-0.019686657701952548
% es.Ex (V/m) @ t=0.68
0.06045544179635698
% es.Ey (V/m) @ t=0.68
-0.004349301931842575
% es.Ez (V/m) @ t=0.68
-0.019686657701949883
% es.tEx (V/m) @ t=0.68
0.060455441796360976
% es.tEy (V/m) @ t=0.68
0
% es.tEz (V/m) @ t=0.68
-0.019686657701952548
% V (V) @ t=0.68
0.013525954092451659
% es.normE (V/m) @ t=0.7
0.0642960480102123
% es.EX (V/m) @ t=0.7
0.060993691486148194
% es.EY (V/m) @ t=0.7
-0.004388028670561539
% es.EZ (V/m) @ t=0.7
-0.019861938299431614
% es.tEX (V/m) @ t=0.7
0.0609936914861513
% es.tEY (V/m) @ t=0.7
0
% es.tEZ (V/m) @ t=0.7
-0.01986193829942895
% es.Ex (V/m) @ t=0.7
0.060993691486148194
% es.Ey (V/m) @ t=0.7
-0.004388028670561539
% es.Ez (V/m) @ t=0.7
-0.019861938299431614
% es.tEx (V/m) @ t=0.7
0.0609936914861513
% es.tEy (V/m) @ t=0.7
0
% es.tEz (V/m) @ t=0.7
-0.01986193829942895
% V (V) @ t=0.7
0.013646372666027204
% es.normE (V/m) @ t=0.72
0.06486344185637437
% es.EX (V/m) @ t=0.72
0.06153194117593941
% es.EY (V/m) @ t=0.72
-0.004426755409248528
% es.EZ (V/m) @ t=0.72
-0.020037218896909792
% es.tEX (V/m) @ t=0.72
0.061531941175944294
% es.tEY (V/m) @ t=0.72
0
% es.tEZ (V/m) @ t=0.72
-0.02003721889690624
% es.Ex (V/m) @ t=0.72
0.06153194117593941
% es.Ey (V/m) @ t=0.72
-0.004426755409248528
% es.Ez (V/m) @ t=0.72
-0.020037218896909792
% es.tEx (V/m) @ t=0.72
0.061531941175944294
% es.tEy (V/m) @ t=0.72
0
% es.tEz (V/m) @ t=0.72
-0.02003721889690624
% V (V) @ t=0.72
0.013766791239602748
% es.normE (V/m) @ t=0.74
0.06543892436611938
% es.EX (V/m) @ t=0.74
0.062077864673095284
% es.EY (V/m) @ t=0.74
-0.004466032973276413
% es.EZ (V/m) @ t=0.74
-0.02021499664370907
% es.tEX (V/m) @ t=0.74
0.06207786467309662
% es.tEY (V/m) @ t=0.74
0
% es.tEZ (V/m) @ t=0.74
-0.02021499664370996
% es.Ex (V/m) @ t=0.74
0.062077864673095284
% es.Ey (V/m) @ t=0.74
-0.004466032973276413
% es.Ez (V/m) @ t=0.74
-0.02021499664370907
% es.tEx (V/m) @ t=0.74
0.06207786467309662
% es.tEy (V/m) @ t=0.74
0
% es.tEz (V/m) @ t=0.74
-0.02021499664370996
% V (V) @ t=0.74
0.013888928762586756
% es.normE (V/m) @ t=0.76
0.06607213774712038
% es.EX (V/m) @ t=0.76
0.06267855810606004
% es.EY (V/m) @ t=0.76
-0.0045092419190879696
% es.EZ (V/m) @ t=0.76
-0.02041059718711935
% es.tEX (V/m) @ t=0.76
0.06267855810606271
% es.tEY (V/m) @ t=0.76
0
% es.tEZ (V/m) @ t=0.76
-0.02041059718712024
% es.Ex (V/m) @ t=0.76
0.06267855810606004
% es.Ey (V/m) @ t=0.76
-0.0045092419190879696
% es.Ez (V/m) @ t=0.76
-0.02041059718711935
% es.tEx (V/m) @ t=0.76
0.06267855810606271
% es.tEy (V/m) @ t=0.76
0
% es.tEz (V/m) @ t=0.76
-0.02041059718712024
% V (V) @ t=0.76
0.014023334869360415
% es.normE (V/m) @ t=0.78
0.06670535112812458
% es.EX (V/m) @ t=0.78
0.0632792515390257
% es.EY (V/m) @ t=0.78
-0.004552450864910185
% es.EZ (V/m) @ t=0.78
-0.02060619773052963
% es.tEX (V/m) @ t=0.78
0.06327925153903147
% es.tEY (V/m) @ t=0.78
0
% es.tEZ (V/m) @ t=0.78
-0.02060619773052519
% es.Ex (V/m) @ t=0.78
0.0632792515390257
% es.Ey (V/m) @ t=0.78
-0.004552450864910185
% es.Ez (V/m) @ t=0.78
-0.02060619773052963
% es.tEx (V/m) @ t=0.78
0.06327925153903147
% es.tEy (V/m) @ t=0.78
0
% es.tEz (V/m) @ t=0.78
-0.02060619773052519
% V (V) @ t=0.78
0.014157740976134077
% es.normE (V/m) @ t=0.8
0.06733856450912351
% es.EX (V/m) @ t=0.8
0.06387994497198335
% es.EY (V/m) @ t=0.8
-0.004595659810743058
% es.EZ (V/m) @ t=0.8
-0.02080179827393991
% es.tEX (V/m) @ t=0.8
0.06387994497198957
% es.tEY (V/m) @ t=0.8
0
% es.tEZ (V/m) @ t=0.8
-0.020801798273942573
% es.Ex (V/m) @ t=0.8
0.06387994497198335
% es.Ey (V/m) @ t=0.8
-0.004595659810743058
% es.Ez (V/m) @ t=0.8
-0.02080179827393991
% es.tEx (V/m) @ t=0.8
0.06387994497198957
% es.tEy (V/m) @ t=0.8
0
% es.tEz (V/m) @ t=0.8
-0.020801798273942573
% V (V) @ t=0.8
0.014292147082907733
% es.normE (V/m) @ t=0.82
0.06797177789012719
% es.EX (V/m) @ t=0.82
0.064480638404949
% es.EY (V/m) @ t=0.82
-0.004638868756543957
% es.EZ (V/m) @ t=0.82
-0.020997398817343083
% es.tEX (V/m) @ t=0.82
0.0644806384049521
% es.tEY (V/m) @ t=0.82
0
% es.tEZ (V/m) @ t=0.82
-0.020997398817347523
% es.Ex (V/m) @ t=0.82
0.064480638404949
% es.Ey (V/m) @ t=0.82
-0.004638868756543957
% es.Ez (V/m) @ t=0.82
-0.020997398817343083
% es.tEx (V/m) @ t=0.82
0.0644806384049521
% es.tEy (V/m) @ t=0.82
0
% es.tEz (V/m) @ t=0.82
-0.020997398817347523
% V (V) @ t=0.82
0.014426553189681389
% es.normE (V/m) @ t=0.84
0.06860499127113238
% es.EX (V/m) @ t=0.84
0.06508133183791376
% es.EY (V/m) @ t=0.84
-0.004682077702341303
% es.EZ (V/m) @ t=0.84
-0.02119299936074981
% es.tEX (V/m) @ t=0.84
0.06508133183792042
% es.tEY (V/m) @ t=0.84
0
% es.tEZ (V/m) @ t=0.84
-0.02119299936075425
% es.Ex (V/m) @ t=0.84
0.06508133183791376
% es.Ey (V/m) @ t=0.84
-0.004682077702341303
% es.Ez (V/m) @ t=0.84
-0.02119299936074981
% es.tEx (V/m) @ t=0.84
0.06508133183792042
% es.tEy (V/m) @ t=0.84
0
% es.tEz (V/m) @ t=0.84
-0.02119299936075425
% V (V) @ t=0.84
0.014560959296455048
% es.normE (V/m) @ t=0.86
0.06923820465213605
% es.EX (V/m) @ t=0.86
0.0656820252708723
% es.EY (V/m) @ t=0.86
-0.004725286648149307
% es.EZ (V/m) @ t=0.86
-0.02138859990416364
% es.tEX (V/m) @ t=0.86
0.06568202527087941
% es.tEY (V/m) @ t=0.86
0
% es.tEZ (V/m) @ t=0.86
-0.02138859990416364
% es.Ex (V/m) @ t=0.86
0.0656820252708723
% es.Ey (V/m) @ t=0.86
-0.004725286648149307
% es.Ez (V/m) @ t=0.86
-0.02138859990416364
% es.tEx (V/m) @ t=0.86
0.06568202527087941
% es.tEy (V/m) @ t=0.86
0
% es.tEz (V/m) @ t=0.86
-0.02138859990416364
% V (V) @ t=0.86
0.014695365403228706
% es.normE (V/m) @ t=0.88
0.06987141803314606
% es.EX (V/m) @ t=0.88
0.06628271870383706
% es.EY (V/m) @ t=0.88
-0.004768495593975075
% es.EZ (V/m) @ t=0.88
-0.021584200447570367
% es.tEX (V/m) @ t=0.88
0.0662827187038415
% es.tEY (V/m) @ t=0.88
0
% es.tEZ (V/m) @ t=0.88
-0.021584200447567703
% es.Ex (V/m) @ t=0.88
0.06628271870383706
% es.Ey (V/m) @ t=0.88
-0.004768495593975075
% es.Ez (V/m) @ t=0.88
-0.021584200447570367
% es.tEx (V/m) @ t=0.88
0.0662827187038415
% es.tEy (V/m) @ t=0.88
0
% es.tEz (V/m) @ t=0.88
-0.021584200447567703
% V (V) @ t=0.88
0.014829771510002362
% es.normE (V/m) @ t=0.9
0.07050463141415832
% es.EX (V/m) @ t=0.9
0.06688341213679916
% es.EY (V/m) @ t=0.9
-0.0048117045398186065
% es.EZ (V/m) @ t=0.9
-0.0217798009909842
% es.tEX (V/m) @ t=0.9
0.06688341213680316
% es.tEY (V/m) @ t=0.9
0
% es.tEZ (V/m) @ t=0.9
-0.02177980099098331
% es.Ex (V/m) @ t=0.9
0.06688341213679916
% es.Ey (V/m) @ t=0.9
-0.0048117045398186065
% es.Ez (V/m) @ t=0.9
-0.0217798009909842
% es.tEx (V/m) @ t=0.9
0.06688341213680316
% es.tEy (V/m) @ t=0.9
0
% es.tEz (V/m) @ t=0.9
-0.02177980099098331
% V (V) @ t=0.9
0.014964177616776021
% es.normE (V/m) @ t=0.92
0.07113784479516354
% es.EX (V/m) @ t=0.92
0.06748410556976037
% es.EY (V/m) @ t=0.92
-0.004854913485615953
% es.EZ (V/m) @ t=0.92
-0.02197540153438382
% es.tEX (V/m) @ t=0.92
0.0674841055697657
% es.tEY (V/m) @ t=0.92
0
% es.tEZ (V/m) @ t=0.92
-0.02197540153438915
% es.Ex (V/m) @ t=0.92
0.06748410556976037
% es.Ey (V/m) @ t=0.92
-0.004854913485615953
% es.Ez (V/m) @ t=0.92
-0.02197540153438382
% es.tEx (V/m) @ t=0.92
0.0674841055697657
% es.tEy (V/m) @ t=0.92
0
% es.tEz (V/m) @ t=0.92
-0.02197540153438915
% V (V) @ t=0.92
0.015098583723549677
% es.normE (V/m) @ t=0.94
0.07177105817618422
% es.EX (V/m) @ t=0.94
0.06808479900272957
% es.EY (V/m) @ t=0.94
-0.004898122431445273
% es.EZ (V/m) @ t=0.94
-0.022171002077797652
% es.tEX (V/m) @ t=0.94
0.0680847990027309
% es.tEY (V/m) @ t=0.94
0
% es.tEZ (V/m) @ t=0.94
-0.022171002077800317
% es.Ex (V/m) @ t=0.94
0.06808479900272957
% es.Ey (V/m) @ t=0.94
-0.004898122431445273
% es.Ez (V/m) @ t=0.94
-0.022171002077797652
% es.tEx (V/m) @ t=0.94
0.0680847990027309
% es.tEy (V/m) @ t=0.94
0
% es.tEz (V/m) @ t=0.94
-0.022171002077800317
% V (V) @ t=0.94
0.015232989830323333
% es.normE (V/m) @ t=0.96
0.07240427155719616
% es.EX (V/m) @ t=0.96
0.06868549243569078
% es.EY (V/m) @ t=0.96
-0.004941331377271041
% es.EZ (V/m) @ t=0.96
-0.02236660262120438
% es.tEX (V/m) @ t=0.96
0.06868549243569255
% es.tEY (V/m) @ t=0.96
0
% es.tEZ (V/m) @ t=0.96
-0.022366602621202603
% es.Ex (V/m) @ t=0.96
0.06868549243569078
% es.Ey (V/m) @ t=0.96
-0.004941331377271041
% es.Ez (V/m) @ t=0.96
-0.02236660262120438
% es.tEx (V/m) @ t=0.96
0.06868549243569255
% es.tEy (V/m) @ t=0.96
0
% es.tEz (V/m) @ t=0.96
-0.022366602621202603
% V (V) @ t=0.96
0.015367395937096996
% es.normE (V/m) @ t=0.98
0.07303748493820462
% es.EX (V/m) @ t=0.98
0.06928618586864932
% es.EY (V/m) @ t=0.98
-0.004984540323064834
% es.EZ (V/m) @ t=0.98
-0.022562203164611105
% es.tEX (V/m) @ t=0.98
0.0692861858686542
% es.tEY (V/m) @ t=0.98
0
% es.tEZ (V/m) @ t=0.98
-0.022562203164612882
% es.Ex (V/m) @ t=0.98
0.06928618586864932
% es.Ey (V/m) @ t=0.98
-0.004984540323064834
% es.Ez (V/m) @ t=0.98
-0.022562203164611105
% es.tEx (V/m) @ t=0.98
0.0692861858686542
% es.tEy (V/m) @ t=0.98
0
% es.tEz (V/m) @ t=0.98
-0.022562203164612882
% V (V) @ t=0.98
0.01550180204387065
% es.normE (V/m) @ t=1
0.07367069831922478
% es.EX (V/m) @ t=1
0.06988687930161763
% es.EY (V/m) @ t=1
-0.005027749268876391
% es.EZ (V/m) @ t=1
-0.022757803708017832
% es.tEX (V/m) @ t=1
0.0698868793016234
% es.tEY (V/m) @ t=1
0
% es.tEZ (V/m) @ t=1
-0.02275780370801872
% es.Ex (V/m) @ t=1
0.06988687930161763
% es.Ey (V/m) @ t=1
-0.005027749268876391