% Model:              1x1--2 - Copy1.mph
% Version:            COMSOL 6.0.0.405
% Date:               Mar 7 2023, 19:18
% Dimension:          0
% Nodes:              14017
% Expressions:        14017
% Description:        Electric field norm, Electric field, X component, Electric field, Y component, Electric field, Z component, Tangential electric field, X component, Tangential electric field, Y component, Tangential electric field, Z component, Electric field, x component, Electric field, y component, Electric field, z component, Tangential electric field, x component, Tangential electric field, y component, Tangential electric field, z component, Electric potential
% Length unit:        mm
% x
2
% y
12.2
% z
1.33
% es.normE (V/m) @ t=0
3.4836312280935795
% es.EX (V/m) @ t=0
-3.2041664697675434
% es.EY (V/m) @ t=0
0.24994618203521246
% es.EZ (V/m) @ t=0
1.3400387701796956
% es.tEX (V/m) @ t=0
-3.2041664697675216
% es.tEY (V/m) @ t=0
0
% es.tEZ (V/m) @ t=0
1.3400387701796674
% es.Ex (V/m) @ t=0
-3.2041664697675434
% es.Ey (V/m) @ t=0
0.24994618203521246
% es.Ez (V/m) @ t=0
1.3400387701796956
% es.tEx (V/m) @ t=0
-3.2041664697675216
% es.tEy (V/m) @ t=0
0
% es.tEz (V/m) @ t=0
1.3400387701796674
% V (V) @ t=0
0.019449825373296432
% es.normE (V/m) @ t=0.1
3.65340216003112
% es.EX (V/m) @ t=0.1
-3.360317996990552
% es.EY (V/m) @ t=0.1
0.2621270617021416
% es.EZ (V/m) @ t=0.1
1.4053440752604465
% es.tEX (V/m) @ t=0.1
-3.360317996990535
% es.tEY (V/m) @ t=0.1
0
% es.tEZ (V/m) @ t=0.1
1.4053440752604303
% es.Ex (V/m) @ t=0.1
-3.360317996990552
% es.Ey (V/m) @ t=0.1
0.2621270617021416
% es.Ez (V/m) @ t=0.1
1.4053440752604465
% es.tEx (V/m) @ t=0.1
-3.360317996990535
% es.tEy (V/m) @ t=0.1
0
% es.tEz (V/m) @ t=0.1
1.4053440752604303
% V (V) @ t=0.1
0.02039768955286921
% es.normE (V/m) @ t=0.2
3.903662034839666
% es.EX (V/m) @ t=0.2
-3.5905024074243883
% es.EY (V/m) @ t=0.2
0.2800807149698241
% es.EZ (V/m) @ t=0.2
1.5016088364807958
% es.tEX (V/m) @ t=0.2
-3.5905024074243634
% es.tEY (V/m) @ t=0.2
0
% es.tEZ (V/m) @ t=0.2
1.5016088364807985
% es.Ex (V/m) @ t=0.2
-3.5905024074243883
% es.Ey (V/m) @ t=0.2
0.2800807149698241
% es.Ez (V/m) @ t=0.2
1.5016088364807958
% es.tEx (V/m) @ t=0.2
-3.5905024074243634
% es.tEy (V/m) @ t=0.2
0
% es.tEz (V/m) @ t=0.2
1.5016088364807985
% V (V) @ t=0.2
0.021795131074307483
% es.normE (V/m) @ t=0.3
4.166549067826597
% es.EX (V/m) @ t=0.3
-3.8323059759173845
% es.EY (V/m) @ t=0.3
0.2989287253890336
% es.EZ (V/m) @ t=0.3
1.602720300609666
% es.tEX (V/m) @ t=0.3
-3.832305975917347
% es.tEY (V/m) @ t=0.3
0
% es.tEZ (V/m) @ t=0.3
1.6027203006096613
% es.Ex (V/m) @ t=0.3
-3.8323059759173845
% es.Ey (V/m) @ t=0.3
0.2989287253890336
% es.Ez (V/m) @ t=0.3
1.602720300609666
% es.tEx (V/m) @ t=0.3
-3.832305975917347
% es.tEy (V/m) @ t=0.3
0
% es.tEz (V/m) @ t=0.3
1.6027203006096613
% V (V) @ t=0.3
0.0232640793731573
% es.normE (V/m) @ t=0.4
4.452094854233783
% es.EX (V/m) @ t=0.4
-4.094940278566154
% es.EY (V/m) @ t=0.4
0.31942647804971425
% es.EZ (V/m) @ t=0.4
1.7125696358989349
% es.tEX (V/m) @ t=0.4
-4.094940278566149
% es.tEY (V/m) @ t=0.4
0
% es.tEZ (V/m) @ t=0.4
1.7125696358989302
% es.Ex (V/m) @ t=0.4
-4.094940278566154
% es.Ey (V/m) @ t=0.4
0.31942647804971425
% es.Ez (V/m) @ t=0.4
1.7125696358989349
% es.tEx (V/m) @ t=0.4
-4.094940278566149
% es.tEy (V/m) @ t=0.4
0
% es.tEz (V/m) @ t=0.4
1.7125696358989302
% V (V) @ t=0.4
0.024857457198664692
% es.normE (V/m) @ t=0.5
4.745841235977119
% es.EX (V/m) @ t=0.5
-4.3651125908270885
% es.EY (V/m) @ t=0.5
0.34052362106116174
% es.EZ (V/m) @ t=0.5
1.8255834637965556
% es.tEX (V/m) @ t=0.5
-4.365112590827071
% es.tEY (V/m) @ t=0.5
0
% es.tEZ (V/m) @ t=0.5
1.8255834637965336
% es.Ex (V/m) @ t=0.5
-4.3651125908270885
% es.Ey (V/m) @ t=0.5
0.34052362106116174
% es.Ez (V/m) @ t=0.5
1.8255834637965556
% es.tEx (V/m) @ t=0.5
-4.365112590827071
% es.tEy (V/m) @ t=0.5
0
% es.tEz (V/m) @ t=0.5
1.8255834637965336
% V (V) @ t=0.5
0.02649566730350352
% es.normE (V/m) @ t=0.6
5.052896640033174
% es.EX (V/m) @ t=0.6
-4.647536380617968
% es.EY (V/m) @ t=0.6
0.3625520118527834
% es.EZ (V/m) @ t=0.6
1.9436953590797061
% es.tEX (V/m) @ t=0.6
-4.647536380617929
% es.tEY (V/m) @ t=0.6
0
% es.tEZ (V/m) @ t=0.6
1.9436953590796975
% es.Ex (V/m) @ t=0.6
-4.647536380617968
% es.Ey (V/m) @ t=0.6
0.3625520118527834
% es.Ez (V/m) @ t=0.6
1.9436953590797061
% es.tEx (V/m) @ t=0.6
-4.647536380617929
% es.tEy (V/m) @ t=0.6
0
% es.tEz (V/m) @ t=0.6
1.9436953590796975
% V (V) @ t=0.6
0.02821023329601459
% es.normE (V/m) @ t=0.7
5.372490737651666
% es.EX (V/m) @ t=0.7
-4.941502529997168
% es.EY (V/m) @ t=0.7
0.3854577496190159
% es.EZ (V/m) @ t=0.7
2.066610244600181
% es.tEX (V/m) @ t=0.7
-4.941502529997145
% es.tEY (V/m) @ t=0.7
0
% es.tEZ (V/m) @ t=0.7
2.0666102446001844
% es.Ex (V/m) @ t=0.7
-4.941502529997168
% es.Ey (V/m) @ t=0.7
0.3854577496190159
% es.Ez (V/m) @ t=0.7
2.066610244600181
% es.tEx (V/m) @ t=0.7
-4.941502529997145
% es.tEy (V/m) @ t=0.7
0
% es.tEz (V/m) @ t=0.7
2.0666102446001844
% V (V) @ t=0.7
0.02999673568232305
% es.normE (V/m) @ t=0.8
5.698678406075986
% es.EX (V/m) @ t=0.8
-5.241530032159142
% es.EY (V/m) @ t=0.8
0.4088441925758517
% es.EZ (V/m) @ t=0.8
2.1920683833822627
% es.tEX (V/m) @ t=0.8
-5.241530032159119
% es.tEY (V/m) @ t=0.8
0
% es.tEZ (V/m) @ t=0.8
2.192068383382235
% es.Ex (V/m) @ t=0.8
-5.241530032159142
% es.Ey (V/m) @ t=0.8
0.4088441925758517
% es.Ez (V/m) @ t=0.8
2.1920683833822627
% es.tEx (V/m) @ t=0.8
-5.241530032159119
% es.tEy (V/m) @ t=0.8
0
% es.tEz (V/m) @ t=0.8
2.192068383382235
% V (V) @ t=0.8
0.031819390936894704
% es.normE (V/m) @ t=0.9
6.038794665797921
% es.EX (V/m) @ t=0.9
-5.55436184194827
% es.EY (V/m) @ t=0.9
0.43324610144571896
% es.EZ (V/m) @ t=0.9
2.322899018750843
% es.tEX (V/m) @ t=0.9
-5.554361841948236
% es.tEY (V/m) @ t=0.9
0
% es.tEZ (V/m) @ t=0.9
2.322899018750846
% es.Ex (V/m) @ t=0.9
-5.55436184194827
% es.Ey (V/m) @ t=0.9
0.43324610144571896
% es.Ez (V/m) @ t=0.9
2.322899018750843
% es.tEx (V/m) @ t=0.9
-5.554361841948236
% es.tEy (V/m) @ t=0.9
0
% es.tEz (V/m) @ t=0.9
2.322899018750846
% V (V) @ t=0.9
0.03371841733557251
% es.normE (V/m) @ t=1
6.37923130084692
% es.EX (V/m) @ t=1
-5.867488446764244
% es.EY (V/m) @ t=1
0.4576707153660511
% es.EZ (V/m) @ t=1
2.45385263564481
% es.tEX (V/m) @ t=1
-5.867488446764234
% es.tEY (V/m) @ t=1
0
% es.tEZ (V/m) @ t=1
2.453852635644793
% es.Ex (V/m) @ t=1
-5.867488446764244
% es.Ey (V/m) @ t=1
0.4576707153660511
% es.Ez (V/m) @ t=1
2.45385263564481
% es.tEx (V/m) @ t=1
-5.867488446764234
% es.tEy (V/m) @ t=1
0
% es.tEz (V/m) @ t=1
2.453852635644793
% V (V) @ t=1
0.035619256867315104
% es.normE (V/m) @ t=1.1
6.723075756943375
% es.EX (V/m) @ t=1.1
-6.183750775877548
% es.EY (V/m) @ t=1.1
0.4823368421061549
% es.EZ (V/m) @ t=1.1
2.5861144026845606
% es.tEX (V/m) @ t=1.1
-6.183750775877492
% es.tEY (V/m) @ t=1.1
0
% es.tEZ (V/m) @ t=1.1
2.5861144026845437
% es.Ex (V/m) @ t=1.1
-6.183750775877548
% es.Ey (V/m) @ t=1.1
0.4823368421061549
% es.Ez (V/m) @ t=1.1
2.5861144026845606
% es.tEx (V/m) @ t=1.1
-6.183750775877492
% es.tEy (V/m) @ t=1.1
0
% es.tEz (V/m) @ t=1.1
2.5861144026845437
% V (V) @ t=1.1
0.03753938263148287
% es.normE (V/m) @ t=1.2
7.069082132087038
% es.EX (V/m) @ t=1.2
-6.502002406063549
% es.EY (V/m) @ t=1.2
0.5071561843927368
% es.EZ (V/m) @ t=1.2
2.719206059166666
% es.tEX (V/m) @ t=1.2
-6.502002406063518
% es.tEY (V/m) @ t=1.2
0
% es.tEZ (V/m) @ t=1.2
2.719206059166652
% es.Ex (V/m) @ t=1.2
-6.502002406063549
% es.Ey (V/m) @ t=1.2
0.5071561843927368
% es.Ez (V/m) @ t=1.2
2.719206059166666
% es.tEx (V/m) @ t=1.2
-6.502002406063518
% es.tEy (V/m) @ t=1.2
0
% es.tEz (V/m) @ t=1.2
2.719206059166652
% V (V) @ t=1.2
0.03947174356660767
% es.normE (V/m) @ t=1.3
7.4172504262864924
% es.EX (V/m) @ t=1.3
-6.822243337322193
% es.EY (V/m) @ t=1.3
0.53212874222557
% es.EZ (V/m) @ t=1.3
2.8531276050910117
% es.tEX (V/m) @ t=1.3
-6.822243337322199
% es.tEY (V/m) @ t=1.3
0
% es.tEZ (V/m) @ t=1.3
2.8531276050910463
% es.Ex (V/m) @ t=1.3
-6.822243337322193
% es.Ey (V/m) @ t=1.3
0.53212874222557
% es.Ez (V/m) @ t=1.3
2.8531276050910117
% es.tEx (V/m) @ t=1.3
-6.822243337322199
% es.tEy (V/m) @ t=1.3
0
% es.tEz (V/m) @ t=1.3
2.8531276050910463
% V (V) @ t=1.3
0.04141633967268948
% es.normE (V/m) @ t=1.4
7.767580639552986
% es.EX (V/m) @ t=1.4
-7.144473569653627
% es.EY (V/m) @ t=1.4
0.5572545156049316
% es.EZ (V/m) @ t=1.4
2.9878790404577757
% es.tEX (V/m) @ t=1.4
-7.1444735696535915
% es.tEY (V/m) @ t=1.4
0
% es.tEZ (V/m) @ t=1.4
2.9878790404577984
% es.Ex (V/m) @ t=1.4
-7.144473569653627
% es.Ey (V/m) @ t=1.4
0.5572545156049316
% es.Ez (V/m) @ t=1.4
2.9878790404577757
% es.tEx (V/m) @ t=1.4
-7.1444735696535915
% es.tEy (V/m) @ t=1.4
0
% es.tEz (V/m) @ t=1.4
2.9878790404577984
% V (V) @ t=1.4
0.04337317094972831
% es.normE (V/m) @ t=1.5
8.112658706169945
% es.EX (V/m) @ t=1.5
-7.461870143509335
% es.EY (V/m) @ t=1.5
0.5820100783138691
% es.EZ (V/m) @ t=1.5
3.1206161919838347
% es.tEX (V/m) @ t=1.5
-7.461870143509337
% es.tEY (V/m) @ t=1.5
0
% es.tEZ (V/m) @ t=1.5
3.1206161919837996
% es.Ex (V/m) @ t=1.5
-7.461870143509335
% es.Ey (V/m) @ t=1.5
0.5820100783138691
% es.Ez (V/m) @ t=1.5
3.1206161919838347
% es.tEx (V/m) @ t=1.5
-7.461870143509337
% es.tEy (V/m) @ t=1.5
0
% es.tEz (V/m) @ t=1.5
3.1206161919837996
% V (V) @ t=1.5
0.0453001036456037
% es.normE (V/m) @ t=1.6
8.453901343375541
% es.EX (V/m) @ t=1.6
-7.775736824574149
% es.EY (V/m) @ t=1.6
0.6064954492863213
% es.EZ (V/m) @ t=1.6
3.2518825387126133
% es.tEX (V/m) @ t=1.6
-7.775736824574103
% es.tEY (V/m) @ t=1.6
0
% es.tEZ (V/m) @ t=1.6
3.2518825387126213
% es.Ex (V/m) @ t=1.6
-7.775736824574149
% es.Ey (V/m) @ t=1.6
0.6064954492863213
% es.Ez (V/m) @ t=1.6
3.2518825387126133
% es.tEx (V/m) @ t=1.6
-7.775736824574103
% es.tEy (V/m) @ t=1.6
0
% es.tEz (V/m) @ t=1.6
3.2518825387126213
% V (V) @ t=1.6
0.047205188891176884
% es.normE (V/m) @ t=1.7
8.793400498378215
% es.EX (V/m) @ t=1.7
-8.087998773974643
% es.EY (V/m) @ t=1.7
0.6308583180693117
% es.EZ (V/m) @ t=1.7
3.3824805904351067
% es.tEX (V/m) @ t=1.7
-8.087998773974611
% es.tEY (V/m) @ t=1.7
0
% es.tEZ (V/m) @ t=1.7
3.3824805904350796
% es.Ex (V/m) @ t=1.7
-8.087998773974643
% es.Ey (V/m) @ t=1.7
0.6308583180693117
% es.Ez (V/m) @ t=1.7
3.3824805904351067
% es.tEx (V/m) @ t=1.7
-8.087998773974611
% es.tEy (V/m) @ t=1.7
0
% es.tEz (V/m) @ t=1.7
3.3824805904350796
% V (V) @ t=1.7
0.04910031511420742
% es.normE (V/m) @ t=1.8
9.131156171192778
% es.EX (V/m) @ t=1.8
-8.398655991710687
% es.EY (V/m) @ t=1.8
0.6550986846628399
% es.EZ (V/m) @ t=1.8
3.5124103471513073
% es.tEX (V/m) @ t=1.8
-8.398655991710669
% es.tEY (V/m) @ t=1.8
0
% es.tEZ (V/m) @ t=1.8
3.512410347151345
% es.Ex (V/m) @ t=1.8
-8.398655991710687
% es.Ey (V/m) @ t=1.8
0.6550986846628399
% es.Ez (V/m) @ t=1.8
3.5124103471513073
% es.tEx (V/m) @ t=1.8
-8.398655991710669
% es.tEy (V/m) @ t=1.8
0
% es.tEz (V/m) @ t=1.8
3.512410347151345
% V (V) @ t=1.8
0.0509854823146953
% es.normE (V/m) @ t=1.9
9.454882214167178
% es.EX (V/m) @ t=1.9
-8.69640790086207
% es.EY (V/m) @ t=1.9
0.6783351926448749
% es.EZ (V/m) @ t=1.9
3.6369458362236338
% es.tEX (V/m) @ t=1.9
-8.696407900862027
% es.tEY (V/m) @ t=1.9
0
% es.tEZ (V/m) @ t=1.9
3.636945836223674
% es.Ex (V/m) @ t=1.9
-8.69640790086207
% es.Ey (V/m) @ t=1.9
0.6783351926448749
% es.Ez (V/m) @ t=1.9
3.6369458362236338
% es.tEx (V/m) @ t=1.9
-8.696407900862027
% es.tEy (V/m) @ t=1.9
0
% es.tEz (V/m) @ t=1.9
3.636945836223674
% V (V) @ t=1.9
0.052792082143107266
% es.normE (V/m) @ t=2
9.767772901820624
% es.EX (V/m) @ t=2
-8.98419253746862
% es.EY (V/m) @ t=2
0.7007969857971257
% es.EZ (V/m) @ t=2
3.7573157628793035
% es.tEX (V/m) @ t=2
-8.984192537468573
% es.tEY (V/m) @ t=2
0
% es.tEZ (V/m) @ t=2
3.7573157628793012
% es.Ex (V/m) @ t=2
-8.98419253746862
% es.Ey (V/m) @ t=2
0.7007969857971257
% es.Ez (V/m) @ t=2
3.7573157628793035
% es.tEx (V/m) @ t=2
-8.984192537468573
% es.tEy (V/m) @ t=2
0
% es.tEz (V/m) @ t=2
3.7573157628793012
% V (V) @ t=2
0.054537952078449366
% es.normE (V/m) @ t=2.1
10.072374894625472
% es.EX (V/m) @ t=2.1
-9.26435227385348
% es.EY (V/m) @ t=2.1
0.7226667508006042
% es.EZ (V/m) @ t=2.1
3.8744997220172634
% es.tEX (V/m) @ t=2.1
-9.264352273853468
% es.tEY (V/m) @ t=2.1
0
% es.tEZ (V/m) @ t=2.1
3.874499722017248
% es.Ex (V/m) @ t=2.1
-9.26435227385348
% es.Ey (V/m) @ t=2.1
0.7226667508006042
% es.Ez (V/m) @ t=2.1
3.8744997220172634
% es.tEx (V/m) @ t=2.1
-9.264352273853468
% es.tEy (V/m) @ t=2.1
0
% es.tEz (V/m) @ t=2.1
3.874499722017248
% V (V) @ t=2.1
0.056237313191044476
% es.normE (V/m) @ t=2.2
10.368688192610595
% es.EX (V/m) @ t=2.2
-9.536887110016583
% es.EY (V/m) @ t=2.2
0.743944487655205
% es.EZ (V/m) @ t=2.2
3.9884977136374613
% es.tEX (V/m) @ t=2.2
-9.53688711001655
% es.tEY (V/m) @ t=2.2
0
% es.tEZ (V/m) @ t=2.2
3.988497713637429
% es.Ex (V/m) @ t=2.2
-9.536887110016583
% es.Ey (V/m) @ t=2.2
0.743944487655205
% es.Ez (V/m) @ t=2.2
3.9884977136374613
% es.tEx (V/m) @ t=2.2
-9.53688711001655
% es.tEy (V/m) @ t=2.2
0
% es.tEz (V/m) @ t=2.2
3.988497713637429
% V (V) @ t=2.2
0.05789016548089259
% es.normE (V/m) @ t=2.3
10.649828371972884
% es.EX (V/m) @ t=2.3
-9.795472076663941
% es.EY (V/m) @ t=2.3
0.7641194539016394
% es.EZ (V/m) @ t=2.3
4.096646335953237
% es.tEX (V/m) @ t=2.3
-9.79547207666392
% es.tEY (V/m) @ t=2.3
0
% es.tEZ (V/m) @ t=2.3
4.096646335953238
% es.Ex (V/m) @ t=2.3
-9.795472076663941
% es.Ey (V/m) @ t=2.3
0.7641194539016394
% es.Ez (V/m) @ t=2.3
4.096646335953237
% es.tEx (V/m) @ t=2.3
-9.79547207666392
% es.tEy (V/m) @ t=2.3
0
% es.tEz (V/m) @ t=2.3
4.096646335953238
% V (V) @ t=2.3
0.059459524257123766
% es.normE (V/m) @ t=2.4
10.918262168690246
% es.EX (V/m) @ t=2.4
-10.042373453459515
% es.EY (V/m) @ t=2.4
0.7833746520489839
% es.EZ (V/m) @ t=2.4
4.19989990400169
% es.tEX (V/m) @ t=2.4
-10.042373453459476
% es.tEY (V/m) @ t=2.4
0
% es.tEZ (V/m) @ t=2.4
4.199899904001654
% es.Ex (V/m) @ t=2.4
-10.042373453459515
% es.Ey (V/m) @ t=2.4
0.7833746520489839
% es.Ez (V/m) @ t=2.4
4.19989990400169
% es.tEx (V/m) @ t=2.4
-10.042373453459476
% es.tEy (V/m) @ t=2.4
0
% es.tEz (V/m) @ t=2.4
4.199899904001654
% V (V) @ t=2.4
0.06095864138688538
% es.normE (V/m) @ t=2.5
11.175000667580527
% es.EX (V/m) @ t=2.5
-10.278520160600106
% es.EY (V/m) @ t=2.5
0.801785092577397
% es.EZ (V/m) @ t=2.5
4.298649579794189
% es.tEX (V/m) @ t=2.5
-10.278520160600046
% es.tEY (V/m) @ t=2.5
0
% es.tEZ (V/m) @ t=2.5
4.298649579794187
% es.Ex (V/m) @ t=2.5
-10.278520160600106
% es.Ey (V/m) @ t=2.5
0.801785092577397
% es.Ez (V/m) @ t=2.5
4.298649579794189
% es.tEx (V/m) @ t=2.5
-10.278520160600046
% es.tEy (V/m) @ t=2.5
0
% es.tEz (V/m) @ t=2.5
4.298649579794187
% V (V) @ t=2.5
0.06239294864774415
% es.normE (V/m) @ t=2.6
11.420043868685545
% es.EX (V/m) @ t=2.6
-10.503912198085672
% es.EY (V/m) @ t=2.6
0.8193507754871026
% es.EZ (V/m) @ t=2.6
4.3928953633308385
% es.tEX (V/m) @ t=2.6
-10.50391219808563
% es.tEY (V/m) @ t=2.6
0
% es.tEZ (V/m) @ t=2.6
4.392895363330865
% es.Ex (V/m) @ t=2.6
-10.503912198085672
% es.Ey (V/m) @ t=2.6
0.8193507754871026
% es.Ez (V/m) @ t=2.6
4.3928953633308385
% es.tEx (V/m) @ t=2.6
-10.50391219808563
% es.tEy (V/m) @ t=2.6
0
% es.tEz (V/m) @ t=2.6
4.392895363330865
% V (V) @ t=2.6
0.0637624460397001
% es.normE (V/m) @ t=2.7
11.65402515945804
% es.EX (V/m) @ t=2.7
-10.719124316814579
% es.EY (V/m) @ t=2.7
0.8361354431424335
% es.EZ (V/m) @ t=2.7
4.48289747681207
% es.tEX (V/m) @ t=2.7
-10.71912431681453
% es.tEY (V/m) @ t=2.7
0
% es.tEZ (V/m) @ t=2.7
4.48289747681207
% es.Ex (V/m) @ t=2.7
-10.719124316814579
% es.Ey (V/m) @ t=2.7
0.8361354431424335
% es.Ez (V/m) @ t=2.7
4.48289747681207
% es.tEx (V/m) @ t=2.7
-10.71912431681453
% es.tEy (V/m) @ t=2.7
0
% es.tEz (V/m) @ t=2.7
4.48289747681207
% V (V) @ t=2.7
0.06506908633296025
% es.normE (V/m) @ t=2.8
11.876662386455655
% es.EX (V/m) @ t=2.8
-10.923900484041702
% es.EY (V/m) @ t=2.8
0.8521107004030268
% es.EZ (V/m) @ t=2.8
4.5685399997503175
% es.tEX (V/m) @ t=2.8
-10.923900484041624
% es.tEY (V/m) @ t=2.8
0
% es.tEZ (V/m) @ t=2.8
4.568539999750328
% es.Ex (V/m) @ t=2.8
-10.923900484041702
% es.Ey (V/m) @ t=2.8
0.8521107004030268
% es.Ez (V/m) @ t=2.8
4.5685399997503175
% es.tEx (V/m) @ t=2.8
-10.923900484041624
% es.tEy (V/m) @ t=2.8
0
% es.tEz (V/m) @ t=2.8
4.568539999750328
% V (V) @ t=2.8
0.06631199963220473
% es.normE (V/m) @ t=2.9
12.087896556924235
% es.EX (V/m) @ t=2.9
-11.118187168329005
% es.EY (V/m) @ t=2.9
0.8672706104000976
% es.EZ (V/m) @ t=2.9
4.6497986954395145
% es.tEX (V/m) @ t=2.9
-11.118187168328902
% es.tEY (V/m) @ t=2.9
0
% es.tEZ (V/m) @ t=2.9
4.649798695439529
% es.Ex (V/m) @ t=2.9
-11.118187168329005
% es.Ey (V/m) @ t=2.9
0.8672706104000976
% es.Ez (V/m) @ t=2.9
4.6497986954395145
% es.tEx (V/m) @ t=2.9
-11.118187168328902
% es.tEy (V/m) @ t=2.9
0
% es.tEz (V/m) @ t=2.9
4.649798695439529
% V (V) @ t=2.9
0.06749100405934022
% es.normE (V/m) @ t=3
12.287727670872389
% es.EX (V/m) @ t=3
-11.301984369676406
% es.EY (V/m) @ t=3
0.8816151731339006
% es.EZ (V/m) @ t=3
4.726673563879638
% es.tEX (V/m) @ t=3
-11.301984369676333
% es.tEY (V/m) @ t=3
0
% es.tEZ (V/m) @ t=3
4.7266735638795865
% es.Ex (V/m) @ t=3
-11.301984369676406
% es.Ey (V/m) @ t=3
0.8816151731339006
% es.Ez (V/m) @ t=3
4.726673563879638
% es.tEx (V/m) @ t=3
-11.301984369676333
% es.tEy (V/m) @ t=3
0
% es.tEz (V/m) @ t=3
4.7266735638795865
% V (V) @ t=3
0.0686060996143667
% es.normE (V/m) @ t=3.1
12.487600709630211
% es.EX (V/m) @ t=3.1
-11.48582471379976
% es.EY (V/m) @ t=3.1
0.8959520409582362
% es.EZ (V/m) @ t=3.1
4.80355485186073
% es.tEX (V/m) @ t=3.1
-11.485824713799715
% es.tEY (V/m) @ t=3.1
0
% es.tEZ (V/m) @ t=3.1
4.803554851860724
% es.Ex (V/m) @ t=3.1
-11.48582471379976
% es.Ey (V/m) @ t=3.1
0.8959520409582362
% es.Ez (V/m) @ t=3.1
4.80355485186073
% es.tEx (V/m) @ t=3.1
-11.485824713799715
% es.tEy (V/m) @ t=3.1
0
% es.tEz (V/m) @ t=3.1
4.803554851860724
% V (V) @ t=3.1
0.0697223559765597
% es.normE (V/m) @ t=3.2
12.681526653476528
% es.EX (V/m) @ t=3.2
-11.66419660558553
% es.EY (V/m) @ t=3.2
0.909858579205526
% es.EZ (V/m) @ t=3.2
4.878145196559192
% es.tEX (V/m) @ t=3.2
-11.664196605585403
% es.tEY (V/m) @ t=3.2
0
% es.tEZ (V/m) @ t=3.2
4.878145196559217
% es.Ex (V/m) @ t=3.2
-11.66419660558553
% es.Ey (V/m) @ t=3.2
0.909858579205526
% es.Ez (V/m) @ t=3.2
4.878145196559192
% es.tEx (V/m) @ t=3.2
-11.664196605585403
% es.tEy (V/m) @ t=3.2
0
% es.tEz (V/m) @ t=3.2
4.878145196559217
% V (V) @ t=3.2
0.07080572297305535
% es.normE (V/m) @ t=3.3
12.868990314815633
% es.EX (V/m) @ t=3.3
-11.836625926456312
% es.EY (V/m) @ t=3.3
0.9232984319856636
% es.EZ (V/m) @ t=3.3
4.950246974170716
% es.tEX (V/m) @ t=3.3
-11.836625926456279
% es.tEY (V/m) @ t=3.3
0
% es.tEZ (V/m) @ t=3.3
4.950246974170739
% es.Ex (V/m) @ t=3.3
-11.836625926456312
% es.Ey (V/m) @ t=3.3
0.9232984319856636
% es.Ez (V/m) @ t=3.3
4.950246974170716
% es.tEx (V/m) @ t=3.3
-11.836625926456279
% es.tEy (V/m) @ t=3.3
0
% es.tEz (V/m) @ t=3.3
4.950246974170739
% V (V) @ t=3.3
0.07185327153900296
% es.normE (V/m) @ t=3.4
13.049991693666472
% es.EX (V/m) @ t=3.4
-12.003112676412021
% es.EY (V/m) @ t=3.4
0.9362715992983937
% es.EZ (V/m) @ t=3.4
5.019860184695258
% es.tEX (V/m) @ t=3.4
-12.003112676411973
% es.tEY (V/m) @ t=3.4
0
% es.tEZ (V/m) @ t=3.4
5.019860184695233
% es.Ex (V/m) @ t=3.4
-12.003112676412021
% es.Ey (V/m) @ t=3.4
0.9362715992983937
% es.Ez (V/m) @ t=3.4
5.019860184695258
% es.tEx (V/m) @ t=3.4
-12.003112676411973
% es.tEy (V/m) @ t=3.4
0
% es.tEz (V/m) @ t=3.4
5.019860184695233
% V (V) @ t=3.4
0.07286500167440249
% es.normE (V/m) @ t=3.5
13.224530790053382
% es.EX (V/m) @ t=3.5
-12.163656855452908
% es.EY (V/m) @ t=3.5
0.948778081144011
% es.EZ (V/m) @ t=3.5
5.086984828133065
% es.tEX (V/m) @ t=3.5
-12.1636568554528
% es.tEY (V/m) @ t=3.5
0
% es.tEZ (V/m) @ t=3.5
5.086984828133069
% es.Ex (V/m) @ t=3.5
-12.163656855452908
% es.Ey (V/m) @ t=3.5
0.948778081144011
% es.Ez (V/m) @ t=3.5
5.086984828133065
% es.tEx (V/m) @ t=3.5
-12.1636568554528
% es.tEy (V/m) @ t=3.5
0
% es.tEz (V/m) @ t=3.5
5.086984828133069
% V (V) @ t=3.5
0.07384091337925393
% es.normE (V/m) @ t=3.6
13.392607604004812
% es.EX (V/m) @ t=3.6
-12.318258463578802
% es.EY (V/m) @ t=3.6
0.9608178775222642
% es.EZ (V/m) @ t=3.6
5.15162090448389
% es.tEX (V/m) @ t=3.6
-12.318258463578715
% es.tEY (V/m) @ t=3.6
0
% es.tEZ (V/m) @ t=3.6
5.151620904483877
% es.Ex (V/m) @ t=3.6
-12.318258463578802
% es.Ey (V/m) @ t=3.6
0.9608178775222642
% es.Ez (V/m) @ t=3.6
5.15162090448389
% es.tEx (V/m) @ t=3.6
-12.318258463578715
% es.tEy (V/m) @ t=3.6
0
% es.tEz (V/m) @ t=3.6
5.151620904483877
% V (V) @ t=3.6
0.07478100665355729
% es.normE (V/m) @ t=3.7
13.554222135553943
% es.EX (V/m) @ t=3.7
-12.466917500789576
% es.EY (V/m) @ t=3.7
0.9723909884333501
% es.EZ (V/m) @ t=3.7
5.213768413747749
% es.tEX (V/m) @ t=3.7
-12.466917500789549
% es.tEY (V/m) @ t=3.7
0
% es.tEZ (V/m) @ t=3.7
5.213768413747687
% es.Ex (V/m) @ t=3.7
-12.466917500789576
% es.Ey (V/m) @ t=3.7
0.9723909884333501
% es.Ez (V/m) @ t=3.7
5.213768413747749
% es.tEx (V/m) @ t=3.7
-12.466917500789549
% es.tEy (V/m) @ t=3.7
0
% es.tEz (V/m) @ t=3.7
5.213768413747687
% V (V) @ t=3.7
0.07568528149731259
% es.normE (V/m) @ t=3.8
13.709873224288298
% es.EX (V/m) @ t=3.8
-12.610092053165204
% es.EY (V/m) @ t=3.8
0.9835349222199237
% es.EZ (V/m) @ t=3.8
5.273620801710004
% es.tEX (V/m) @ t=3.8
-12.610092053165133
% es.tEY (V/m) @ t=3.8
0
% es.tEZ (V/m) @ t=3.8
5.2736208017099955
% es.Ex (V/m) @ t=3.8
-12.610092053165204
% es.Ey (V/m) @ t=3.8
0.9835349222199237
% es.Ez (V/m) @ t=3.8
5.273620801710004
% es.tEx (V/m) @ t=3.8
-12.610092053165133
% es.tEy (V/m) @ t=3.8
0
% es.tEz (V/m) @ t=3.8
5.2736208017099955
% V (V) @ t=3.8
0.0765563743263167
% es.normE (V/m) @ t=3.9
13.869981382481779
% es.EX (V/m) @ t=3.9
-12.757351313103184
% es.EY (V/m) @ t=3.9
0.9950332096742329
% es.EZ (V/m) @ t=3.9
5.335219055469261
% es.tEX (V/m) @ t=3.9
-12.757351313103158
% es.tEY (V/m) @ t=3.9
0
% es.tEZ (V/m) @ t=3.9
5.335219055469253
% es.Ex (V/m) @ t=3.9
-12.757351313103184
% es.Ey (V/m) @ t=3.9
0.9950332096742329
% es.Ez (V/m) @ t=3.9
5.335219055469261
% es.tEx (V/m) @ t=3.9
-12.757351313103158
% es.tEy (V/m) @ t=3.9
0
% es.tEz (V/m) @ t=3.9
5.335219055469253
% V (V) @ t=3.9
0.07744935856698408
% es.normE (V/m) @ t=4
14.026165786219332
% es.EX (V/m) @ t=4
-12.900999141092468
% es.EY (V/m) @ t=4
1.0062556866156513
% es.EZ (V/m) @ t=4
5.395313161943914
% es.tEX (V/m) @ t=4
-12.900999141092385
% es.tEY (V/m) @ t=4
0
% es.tEZ (V/m) @ t=4
5.395313161943903
% es.Ex (V/m) @ t=4
-12.900999141092468
% es.Ey (V/m) @ t=4
1.0062556866156513
% es.Ez (V/m) @ t=4
5.395313161943914
% es.tEx (V/m) @ t=4
-12.900999141092385
% es.tEy (V/m) @ t=4
0
% es.tEz (V/m) @ t=4
5.395313161943903
% V (V) @ t=4
0.07831994074548408
% es.normE (V/m) @ t=4.1
14.178426435559821
% es.EX (V/m) @ t=4.1
-13.041035537132911
% es.EY (V/m) @ t=4.1
1.017202353044092
% es.EZ (V/m) @ t=4.1
5.453903121133839
% es.tEX (V/m) @ t=4.1
-13.04103553713287
% es.tEY (V/m) @ t=4.1
0
% es.tEZ (V/m) @ t=4.1
5.453903121133806
% es.Ex (V/m) @ t=4.1
-13.041035537132911
% es.Ey (V/m) @ t=4.1
1.017202353044092
% es.Ez (V/m) @ t=4.1
5.453903121133839
% es.tEx (V/m) @ t=4.1
-13.04103553713287
% es.tEy (V/m) @ t=4.1
0
% es.tEz (V/m) @ t=4.1
5.453903121133806
% V (V) @ t=4.1
0.07916812086181671
% es.normE (V/m) @ t=4.2
14.326763330579166
% es.EX (V/m) @ t=4.2
-13.17746050122465
% es.EY (V/m) @ t=4.2
1.0278732089594973
% es.EZ (V/m) @ t=4.2
5.5109889330391635
% es.tEX (V/m) @ t=4.2
-13.177460501224616
% es.tEY (V/m) @ t=4.2
0
% es.tEZ (V/m) @ t=4.2
5.510988933039158
% es.Ex (V/m) @ t=4.2
-13.17746050122465
% es.Ey (V/m) @ t=4.2
1.0278732089594973
% es.Ez (V/m) @ t=4.2
5.5109889330391635
% es.tEx (V/m) @ t=4.2
-13.177460501224616
% es.tEy (V/m) @ t=4.2
0
% es.tEz (V/m) @ t=4.2
5.510988933039158
% V (V) @ t=4.2
0.07999389891598194
% es.normE (V/m) @ t=4.3
14.471176471368878
% es.EX (V/m) @ t=4.3
-13.310274033367442
% es.EY (V/m) @ t=4.3
1.0382682543619408
% es.EZ (V/m) @ t=4.3
5.566570597659641
% es.tEX (V/m) @ t=4.3
-13.310274033367364
% es.tEY (V/m) @ t=4.3
0
% es.tEZ (V/m) @ t=4.3
5.566570597659677
% es.Ex (V/m) @ t=4.3
-13.310274033367442
% es.Ey (V/m) @ t=4.3
1.0382682543619408
% es.Ez (V/m) @ t=4.3
5.566570597659641
% es.tEx (V/m) @ t=4.3
-13.310274033367364
% es.tEy (V/m) @ t=4.3
0
% es.tEz (V/m) @ t=4.3
5.566570597659677
% V (V) @ t=4.3
0.08079727490797978
% es.normE (V/m) @ t=4.4
14.611665858036476
% es.EX (V/m) @ t=4.4
-13.439476133561453
% es.EY (V/m) @ t=4.4
1.0483874892513203
% es.EZ (V/m) @ t=4.4
5.620648114995548
% es.tEX (V/m) @ t=4.4
-13.439476133561442
% es.tEY (V/m) @ t=4.4
0
% es.tEZ (V/m) @ t=4.4
5.620648114995504
% es.Ex (V/m) @ t=4.4
-13.439476133561453
% es.Ey (V/m) @ t=4.4
1.0483874892513203
% es.Ez (V/m) @ t=4.4
5.620648114995548
% es.tEx (V/m) @ t=4.4
-13.439476133561442
% es.tEy (V/m) @ t=4.4
0
% es.tEz (V/m) @ t=4.4
5.620648114995504
% V (V) @ t=4.4
0.08157824883781026
% es.normE (V/m) @ t=4.5
14.748465246244654
% es.EX (V/m) @ t=4.5
-13.56528401809401
% es.EY (V/m) @ t=4.5
1.0582425213365152
% es.EZ (V/m) @ t=4.5
5.673306713137122
% es.tEX (V/m) @ t=4.5
-13.565284018093948
% es.tEY (V/m) @ t=4.5
0
% es.tEZ (V/m) @ t=4.5
5.6733067131370944
% es.Ex (V/m) @ t=4.5
-13.56528401809401
% es.Ey (V/m) @ t=4.5
1.0582425213365152
% es.Ez (V/m) @ t=4.5
5.673306713137122
% es.tEx (V/m) @ t=4.5
-13.565284018093948
% es.tEy (V/m) @ t=4.5
0
% es.tEz (V/m) @ t=4.5
5.6733067131370944
% V (V) @ t=4.5
0.08233857307187371
% es.normE (V/m) @ t=4.6
14.882955528927212
% es.EX (V/m) @ t=4.6
-13.688980875643201
% es.EY (V/m) @ t=4.6
1.0679019222732578
% es.EZ (V/m) @ t=4.6
5.725049870540433
% es.tEX (V/m) @ t=4.6
-13.688980875643097
% es.tEY (V/m) @ t=4.6
0
% es.tEZ (V/m) @ t=4.6
5.725049870540403
% es.Ex (V/m) @ t=4.6
-13.688980875643201
% es.Ey (V/m) @ t=4.6
1.0679019222732578
% es.Ez (V/m) @ t=4.6
5.725049870540433
% es.tEx (V/m) @ t=4.6
-13.688980875643097
% es.tEy (V/m) @ t=4.6
0
% es.tEz (V/m) @ t=4.6
5.725049870540403
% V (V) @ t=4.6
0.08308859958124942
% es.normE (V/m) @ t=4.7
15.013973080184034
% es.EX (V/m) @ t=4.7
-13.809485412217535
% es.EY (V/m) @ t=4.7
1.077307909351573
% es.EZ (V/m) @ t=4.7
5.775453325178687
% es.tEX (V/m) @ t=4.7
-13.80948541221747
% es.tEY (V/m) @ t=4.7
0
% es.tEZ (V/m) @ t=4.7
5.775453325178717
% es.Ex (V/m) @ t=4.7
-13.809485412217535
% es.Ey (V/m) @ t=4.7
1.077307909351573
% es.Ez (V/m) @ t=4.7
5.775453325178687
% es.tEx (V/m) @ t=4.7
-13.80948541221747
% es.tEy (V/m) @ t=4.7
0
% es.tEz (V/m) @ t=4.7
5.775453325178717
% V (V) @ t=4.7
0.08381960515607764
% es.normE (V/m) @ t=4.8
15.14151790000264
% es.EX (V/m) @ t=4.8
-13.926797627816836
% es.EY (V/m) @ t=4.8
1.086460482571331
% es.EZ (V/m) @ t=4.8
5.82451707705194
% es.tEX (V/m) @ t=4.8
-13.926797627816782
% es.tEY (V/m) @ t=4.8
0
% es.tEZ (V/m) @ t=4.8
5.824517077051951
% es.Ex (V/m) @ t=4.8
-13.926797627816836
% es.Ey (V/m) @ t=4.8
1.086460482571331
% es.Ez (V/m) @ t=4.8
5.82451707705194
% es.tEx (V/m) @ t=4.8
-13.926797627816782
% es.tEy (V/m) @ t=4.8
0
% es.tEz (V/m) @ t=4.8
5.824517077051951
% V (V) @ t=4.8
0.08453158979635839
% es.normE (V/m) @ t=4.9
15.26558998838134
% es.EX (V/m) @ t=4.9
-14.04091752244134
% es.EY (V/m) @ t=4.9
1.0953596419326903
% es.EZ (V/m) @ t=4.9
5.8722411261603185
% es.tEX (V/m) @ t=4.9
-14.040917522441262
% es.tEY (V/m) @ t=4.9
0
% es.tEZ (V/m) @ t=4.9
5.872241126160276
% es.Ex (V/m) @ t=4.9
-14.04091752244134
% es.Ey (V/m) @ t=4.9
1.0953596419326903
% es.Ez (V/m) @ t=4.9
5.8722411261603185
% es.tEx (V/m) @ t=4.9
-14.040917522441262
% es.tEy (V/m) @ t=4.9
0
% es.tEz (V/m) @ t=4.9
5.872241126160276
% V (V) @ t=4.9
0.08522455350209164
% es.normE (V/m) @ t=5
15.38618934532785
% es.EX (V/m) @ t=5
-14.151845096090904
% es.EY (V/m) @ t=5
1.104005387435424
% es.EZ (V/m) @ t=5
5.918625472503594
% es.tEX (V/m) @ t=5
-14.151845096090781
% es.tEY (V/m) @ t=5
0
% es.tEZ (V/m) @ t=5
5.91862547250355
% es.Ex (V/m) @ t=5
-14.151845096090904
% es.Ey (V/m) @ t=5
1.104005387435424
% es.Ez (V/m) @ t=5
5.918625472503594
% es.tEx (V/m) @ t=5
-14.151845096090781
% es.tEy (V/m) @ t=5
0
% es.tEz (V/m) @ t=5
5.91862547250355
% V (V) @ t=5
0.08589849627327739
% es.normE (V/m) @ t=5.1
15.503315970859683
% es.EX (V/m) @ t=5.1
-14.259580348765454
% es.EY (V/m) @ t=5.1
1.1123977190797287
% es.EZ (V/m) @ t=5.1
5.963670116081911
% es.tEX (V/m) @ t=5.1
-14.259580348765454
% es.tEY (V/m) @ t=5.1
0
% es.tEZ (V/m) @ t=5.1
5.963670116081914
% es.Ex (V/m) @ t=5.1
-14.259580348765454
% es.Ey (V/m) @ t=5.1
1.1123977190797287
% es.Ez (V/m) @ t=5.1
5.963670116081911
% es.tEx (V/m) @ t=5.1
-14.259580348765454
% es.tEy (V/m) @ t=5.1
0
% es.tEz (V/m) @ t=5.1
5.963670116081914
% V (V) @ t=5.1
0.0865534181099157
% es.normE (V/m) @ t=5.2
15.614449941263251
% es.EX (V/m) @ t=5.2
-14.361804647670139
% es.EY (V/m) @ t=5.2
1.1203578513552035
% es.EZ (V/m) @ t=5.2
6.006407553439072
% es.tEX (V/m) @ t=5.2
-14.361804647669999
% es.tEY (V/m) @ t=5.2
0
% es.tEZ (V/m) @ t=5.2
6.0064075534390895
% es.Ex (V/m) @ t=5.2
-14.361804647670139
% es.Ey (V/m) @ t=5.2
1.1203578513552035
% es.Ez (V/m) @ t=5.2
6.006407553439072
% es.tEx (V/m) @ t=5.2
-14.361804647669999
% es.tEy (V/m) @ t=5.2
0
% es.tEz (V/m) @ t=5.2
6.0064075534390895
% V (V) @ t=5.2
0.08717507519221213
% es.normE (V/m) @ t=5.3
15.712535963431584
% es.EX (V/m) @ t=5.3
-14.452026274931924
% es.EY (V/m) @ t=5.3
1.127385219836576
% es.EZ (V/m) @ t=5.3
6.04412896432002
% es.tEX (V/m) @ t=5.3
-14.452026274931868
% es.tEY (V/m) @ t=5.3
0
% es.tEZ (V/m) @ t=5.3
6.044128964320009
% es.Ex (V/m) @ t=5.3
-14.452026274931924
% es.Ey (V/m) @ t=5.3
1.127385219836576
% es.Ez (V/m) @ t=5.3
6.04412896432002
% es.tEx (V/m) @ t=5.3
-14.452026274931868
% es.tEy (V/m) @ t=5.3
0
% es.tEz (V/m) @ t=5.3
6.044128964320009
% V (V) @ t=5.3
0.08772358761347171
% es.normE (V/m) @ t=5.4
15.804266598247622
% es.EX (V/m) @ t=5.4
-14.536403191166801
% es.EY (V/m) @ t=5.4
1.133954653540881
% es.EZ (V/m) @ t=5.4