% Model:              1x1--2 - Copy1.mph
% Version:            COMSOL 6.0.0.405
% Date:               Mar 7 2023, 19:19
% Dimension:          0
% Nodes:              14017
% Expressions:        14017
% Description:        Electric field norm, Electric field, X component, Electric field, Y component, Electric field, Z component, Tangential electric field, X component, Tangential electric field, Y component, Tangential electric field, Z component, Electric field, x component, Electric field, y component, Electric field, z component, Tangential electric field, x component, Tangential electric field, y component, Tangential electric field, z component, Electric potential
% Length unit:        mm
% x
1
% y
12.2
% z
1.6599999999999997
% es.normE (V/m) @ t=0
4.28505218831719
% es.EX (V/m) @ t=0
3.8360182954556907
% es.EY (V/m) @ t=0
0.14759271584124006
% es.EZ (V/m) @ t=0
-1.9039044188573473
% es.tEX (V/m) @ t=0
3.8360182954556876
% es.tEY (V/m) @ t=0
0
% es.tEZ (V/m) @ t=0
-1.9039044188573087
% es.Ex (V/m) @ t=0
3.8360182954556907
% es.Ey (V/m) @ t=0
0.14759271584124006
% es.Ez (V/m) @ t=0
-1.9039044188573473
% es.tEx (V/m) @ t=0
3.8360182954556876
% es.tEy (V/m) @ t=0
0
% es.tEz (V/m) @ t=0
-1.9039044188573087
% V (V) @ t=0
0.01944123824947086
% es.normE (V/m) @ t=0.1
4.493879353612437
% es.EX (V/m) @ t=0.1
4.022962296671393
% es.EY (V/m) @ t=0.1
0.15478548961692734
% es.EZ (V/m) @ t=0.1
-1.9966890554696604
% es.tEX (V/m) @ t=0.1
4.02296229667137
% es.tEY (V/m) @ t=0.1
0
% es.tEZ (V/m) @ t=0.1
-1.9966890554696448
% es.Ex (V/m) @ t=0.1
4.022962296671393
% es.Ey (V/m) @ t=0.1
0.15478548961692734
% es.Ez (V/m) @ t=0.1
-1.9966890554696604
% es.tEx (V/m) @ t=0.1
4.02296229667137
% es.tEy (V/m) @ t=0.1
0
% es.tEz (V/m) @ t=0.1
-1.9966890554696448
% V (V) @ t=0.1
0.020388683872467964
% es.normE (V/m) @ t=0.2
4.801712250886634
% es.EX (V/m) @ t=0.2
4.298536349997834
% es.EY (V/m) @ t=0.2
0.16538452036762663
% es.EZ (V/m) @ t=0.2
-2.133465125727609
% es.tEX (V/m) @ t=0.2
4.29853634999783
% es.tEY (V/m) @ t=0.2
0
% es.tEZ (V/m) @ t=0.2
-2.1334651257276107
% es.Ex (V/m) @ t=0.2
4.298536349997834
% es.Ey (V/m) @ t=0.2
0.16538452036762663
% es.Ez (V/m) @ t=0.2
-2.133465125727609
% es.tEx (V/m) @ t=0.2
4.29853634999783
% es.tEy (V/m) @ t=0.2
0
% es.tEz (V/m) @ t=0.2
-2.1334651257276107
% V (V) @ t=0.2
0.021785508540296518
% es.normE (V/m) @ t=0.3
5.1250771903104475
% es.EX (V/m) @ t=0.3
4.588010664716248
% es.EY (V/m) @ t=0.3
0.17649809296068808
% es.EZ (V/m) @ t=0.3
-2.2771522687901378
% es.tEX (V/m) @ t=0.3
4.588010664716247
% es.tEY (V/m) @ t=0.3
0
% es.tEZ (V/m) @ t=0.3
-2.277152268790104
% es.Ex (V/m) @ t=0.3
4.588010664716248
% es.Ey (V/m) @ t=0.3
0.17649809296068808
% es.Ez (V/m) @ t=0.3
-2.2771522687901378
% es.tEx (V/m) @ t=0.3
4.588010664716247
% es.tEy (V/m) @ t=0.3
0
% es.tEz (V/m) @ t=0.3
-2.277152268790104
% V (V) @ t=0.3
0.023253809277417457
% es.normE (V/m) @ t=0.4
5.476313643222392
% es.EX (V/m) @ t=0.4
4.902444424389816
% es.EY (V/m) @ t=0.4
0.188613841130976
% es.EZ (V/m) @ t=0.4
-2.433202460699057
% es.tEX (V/m) @ t=0.4
4.902444424389824
% es.tEY (V/m) @ t=0.4
0
% es.tEZ (V/m) @ t=0.4
-2.4332024606990643
% es.Ex (V/m) @ t=0.4
4.902444424389816
% es.Ey (V/m) @ t=0.4
0.188613841130976
% es.Ez (V/m) @ t=0.4
-2.433202460699057
% es.tEx (V/m) @ t=0.4
4.902444424389824
% es.tEy (V/m) @ t=0.4
0
% es.tEz (V/m) @ t=0.4
-2.4332024606990643
% V (V) @ t=0.4
0.024846482797530982
% es.normE (V/m) @ t=0.5
5.837637285355044
% es.EX (V/m) @ t=0.5
5.225912275824465
% es.EY (V/m) @ t=0.5
0.201096371974279
% es.EZ (V/m) @ t=0.5
-2.5937250635321876
% es.tEX (V/m) @ t=0.5
5.225912275824474
% es.tEY (V/m) @ t=0.5
0
% es.tEZ (V/m) @ t=0.5
-2.593725063532176
% es.Ex (V/m) @ t=0.5
5.225912275824465
% es.Ey (V/m) @ t=0.5
0.201096371974279
% es.Ez (V/m) @ t=0.5
-2.5937250635321876
% es.tEx (V/m) @ t=0.5
5.225912275824474
% es.tEy (V/m) @ t=0.5
0
% es.tEz (V/m) @ t=0.5
-2.593725063532176
% V (V) @ t=0.5
0.026483967975821643
% es.normE (V/m) @ t=0.6
6.215331677046151
% es.EX (V/m) @ t=0.6
5.564026890266144
% es.EY (V/m) @ t=0.6
0.21410119235320257
% es.EZ (V/m) @ t=0.6
-2.7615417321493796
% es.tEX (V/m) @ t=0.6
5.564026890266126
% es.tEY (V/m) @ t=0.6
0
% es.tEZ (V/m) @ t=0.6
-2.761541732149354
% es.Ex (V/m) @ t=0.6
5.564026890266144
% es.Ey (V/m) @ t=0.6
0.21410119235320257
% es.Ez (V/m) @ t=0.6
-2.7615417321493796
% es.tEx (V/m) @ t=0.6
5.564026890266126
% es.tEy (V/m) @ t=0.6
0
% es.tEz (V/m) @ t=0.6
-2.761541732149354
% V (V) @ t=0.6
0.028197777099839574
% es.normE (V/m) @ t=0.7
6.608449276300121
% es.EX (V/m) @ t=0.7
5.915940510176218
% es.EY (V/m) @ t=0.7
0.22759807204607374
% es.EZ (V/m) @ t=0.7
-2.936230284580951
% es.tEX (V/m) @ t=0.7
5.91594051017621
% es.tEY (V/m) @ t=0.7
0
% es.tEZ (V/m) @ t=0.7
-2.936230284580944
% es.Ex (V/m) @ t=0.7
5.915940510176218
% es.Ey (V/m) @ t=0.7
0.22759807204607374
% es.Ez (V/m) @ t=0.7
-2.936230284580951
% es.tEx (V/m) @ t=0.7
5.91594051017621
% es.tEy (V/m) @ t=0.7
0
% es.tEz (V/m) @ t=0.7
-2.936230284580944
% V (V) @ t=0.7
0.029983492524516035
% es.normE (V/m) @ t=0.8
7.009677334047485
% es.EX (V/m) @ t=0.8
6.275117421436164
% es.EY (V/m) @ t=0.8
0.24138770515786578
% es.EZ (V/m) @ t=0.8
-3.114515866718553
% es.tEX (V/m) @ t=0.8
6.275117421436146
% es.tEY (V/m) @ t=0.8
0
% es.tEZ (V/m) @ t=0.8
-3.114515866718534
% es.Ex (V/m) @ t=0.8
6.275117421436164
% es.Ey (V/m) @ t=0.8
0.24138770515786578
% es.Ez (V/m) @ t=0.8
-3.114515866718553
% es.tEx (V/m) @ t=0.8
6.275117421436146
% es.tEy (V/m) @ t=0.8
0
% es.tEz (V/m) @ t=0.8
-3.114515866718534
% V (V) @ t=0.8
0.03180534428535253
% es.normE (V/m) @ t=0.9
7.428038332436026
% es.EX (V/m) @ t=0.9
6.649637676032768
% es.EY (V/m) @ t=0.9
0.2557957653714765
% es.EZ (V/m) @ t=0.9
-3.3003999960041632
% es.tEX (V/m) @ t=0.9
6.649637676032768
% es.tEY (V/m) @ t=0.9
0
% es.tEZ (V/m) @ t=0.9
-3.3003999960041455
% es.Ex (V/m) @ t=0.9
6.649637676032768
% es.Ey (V/m) @ t=0.9
0.2557957653714765
% es.Ez (V/m) @ t=0.9
-3.3003999960041632
% es.tEx (V/m) @ t=0.9
6.649637676032768
% es.tEy (V/m) @ t=0.9
0
% es.tEz (V/m) @ t=0.9
-3.3003999960041455
% V (V) @ t=0.9
0.0337035322670458
% es.normE (V/m) @ t=1
7.846793411231948
% es.EX (V/m) @ t=1
7.024510613641686
% es.EY (V/m) @ t=1
0.2702169050795312
% es.EZ (V/m) @ t=1
-3.4864594630926993
% es.tEX (V/m) @ t=1
7.024510613641709
% es.tEY (V/m) @ t=1
0
% es.tEZ (V/m) @ t=1
-3.4864594630927286
% es.Ex (V/m) @ t=1
7.024510613641686
% es.Ey (V/m) @ t=1
0.2702169050795312
% es.Ez (V/m) @ t=1
-3.4864594630926993
% es.tEx (V/m) @ t=1
7.024510613641709
% es.tEy (V/m) @ t=1
0
% es.tEz (V/m) @ t=1
-3.4864594630927286
% V (V) @ t=1
0.035603532602887025
% es.normE (V/m) @ t=1.1
8.269740309412501
% es.EX (V/m) @ t=1.1
7.403135028006126
% es.EY (V/m) @ t=1.1
0.28477717090774957
% es.EZ (V/m) @ t=1.1
-3.6743839922033867
% es.tEX (V/m) @ t=1.1
7.403135028006108
% es.tEY (V/m) @ t=1.1
0
% es.tEZ (V/m) @ t=1.1
-3.6743839922033885
% es.Ex (V/m) @ t=1.1
7.403135028006126
% es.Ey (V/m) @ t=1.1
0.28477717090774957
% es.Ez (V/m) @ t=1.1
-3.6743839922033867
% es.tEx (V/m) @ t=1.1
7.403135028006108
% es.tEy (V/m) @ t=1.1
0
% es.tEz (V/m) @ t=1.1
-3.6743839922033885
% V (V) @ t=1.1
0.037522810885842466
% es.normE (V/m) @ t=1.2
8.695346494588936
% es.EX (V/m) @ t=1.2
7.7841393763272055
% es.EY (V/m) @ t=1.2
0.29942569823930465
% es.EZ (V/m) @ t=1.2
-3.863491715220678
% es.tEX (V/m) @ t=1.2
7.784139376327193
% es.tEY (V/m) @ t=1.2
0
% es.tEZ (V/m) @ t=1.2
-3.8634917152206754
% es.Ex (V/m) @ t=1.2
7.7841393763272055
% es.Ey (V/m) @ t=1.2
0.29942569823930465
% es.Ez (V/m) @ t=1.2
-3.863491715220678
% es.tEx (V/m) @ t=1.2
7.784139376327193
% es.tEy (V/m) @ t=1.2
0
% es.tEz (V/m) @ t=1.2
-3.8634917152206754
% V (V) @ t=1.2
0.03945431908356005
% es.normE (V/m) @ t=1.3
9.123611966782324
% es.EX (V/m) @ t=1.3
8.167523658604953
% es.EY (V/m) @ t=1.3
0.31416248707401706
% es.EZ (V/m) @ t=1.3
-4.053782632144374
% es.tEX (V/m) @ t=1.3
8.167523658604917
% es.tEY (V/m) @ t=1.3
0
% es.tEZ (V/m) @ t=1.3
-4.05378263214439
% es.Ex (V/m) @ t=1.3
8.167523658604953
% es.Ey (V/m) @ t=1.3
0.31416248707401706
% es.Ez (V/m) @ t=1.3
-4.053782632144374
% es.tEx (V/m) @ t=1.3
8.167523658604917
% es.tEy (V/m) @ t=1.3
0
% es.tEz (V/m) @ t=1.3
-4.05378263214439
% V (V) @ t=1.3
0.04139805719603979
% es.normE (V/m) @ t=1.4
9.554536726019535
% es.EX (V/m) @ t=1.4
8.553287874839356
% es.EY (V/m) @ t=1.4
0.3289875374119422
% es.EZ (V/m) @ t=1.4
-4.24525674297473
% es.tEX (V/m) @ t=1.4
8.553287874839356
% es.tEY (V/m) @ t=1.4
0
% es.tEZ (V/m) @ t=1.4
-4.2452567429747035
% es.Ex (V/m) @ t=1.4
8.553287874839356
% es.Ey (V/m) @ t=1.4
0.3289875374119422
% es.Ez (V/m) @ t=1.4
-4.24525674297473
% es.tEx (V/m) @ t=1.4
8.553287874839356
% es.tEy (V/m) @ t=1.4
0
% es.tEz (V/m) @ t=1.4
-4.2452567429747035
% V (V) @ t=1.4
0.04335402522328168
% es.normE (V/m) @ t=1.5
9.979001069820152
% es.EX (V/m) @ t=1.5
8.933271059697384
% es.EY (V/m) @ t=1.5
0.3436017072561858
% es.EZ (V/m) @ t=1.5
-4.433854682120583
% es.tEX (V/m) @ t=1.5
8.933271059697393
% es.tEY (V/m) @ t=1.5
0
% es.tEZ (V/m) @ t=1.5
-4.433854682120511
% es.Ex (V/m) @ t=1.5
8.933271059697384
% es.Ey (V/m) @ t=1.5
0.3436017072561858
% es.Ez (V/m) @ t=1.5
-4.433854682120583
% es.tEx (V/m) @ t=1.5
8.933271059697393
% es.tEy (V/m) @ t=1.5
0
% es.tEz (V/m) @ t=1.5
-4.433854682120511
% V (V) @ t=1.5
0.04528010738525958
% es.normE (V/m) @ t=1.6
10.398747637125823
% es.EX (V/m) @ t=1.6
9.309032651789266
% es.EY (V/m) @ t=1.6
0.35806215817522036
% es.EZ (V/m) @ t=1.6
-4.620352133729343
% es.tEX (V/m) @ t=1.6
9.309032651789252
% es.tEY (V/m) @ t=1.6
0
% es.tEZ (V/m) @ t=1.6
-4.620352133729341
% es.Ex (V/m) @ t=1.6
9.309032651789266
% es.Ey (V/m) @ t=1.6
0.35806215817522036
% es.Ez (V/m) @ t=1.6
-4.620352133729343
% es.tEx (V/m) @ t=1.6
9.309032651789252
% es.tEy (V/m) @ t=1.6
0
% es.tEz (V/m) @ t=1.6
-4.620352133729341
% V (V) @ t=1.6
0.04718435137863587
% es.normE (V/m) @ t=1.7
10.816349636344967
% es.EX (V/m) @ t=1.7
9.682875342945865
% es.EY (V/m) @ t=1.7
0.37245329584971043
% es.EZ (V/m) @ t=1.7
-4.805894485338315
% es.tEX (V/m) @ t=1.7
9.68287534294586
% es.tEY (V/m) @ t=1.7
0
% es.tEZ (V/m) @ t=1.7
-4.805894485338314
% es.Ex (V/m) @ t=1.7
9.682875342945865
% es.Ey (V/m) @ t=1.7
0.37245329584971043
% es.Ez (V/m) @ t=1.7
-4.805894485338315
% es.tEx (V/m) @ t=1.7
9.68287534294586
% es.tEy (V/m) @ t=1.7
0
% es.tEz (V/m) @ t=1.7
-4.805894485338314
% V (V) @ t=1.7
0.049078640560177536
% es.normE (V/m) @ t=1.8
11.231807067513774
% es.EX (V/m) @ t=1.8
10.054799133167089
% es.EY (V/m) @ t=1.8
0.3867751202795957
% es.EZ (V/m) @ t=1.8
-4.99048173694743
% es.tEX (V/m) @ t=1.8
10.054799133167105
% es.tEY (V/m) @ t=1.8
0
% es.tEZ (V/m) @ t=1.8
-4.990481736947402
% es.Ex (V/m) @ t=1.8
10.054799133167089
% es.Ey (V/m) @ t=1.8
0.3867751202795957
% es.Ez (V/m) @ t=1.8
-4.99048173694743
% es.tEx (V/m) @ t=1.8
10.054799133167105
% es.tEy (V/m) @ t=1.8
0
% es.tEz (V/m) @ t=1.8
-4.990481736947402
% V (V) @ t=1.8
0.05096297492988455
% es.normE (V/m) @ t=1.9
11.630007385481921
% es.EX (V/m) @ t=1.9
10.411275168161271
% es.EY (V/m) @ t=1.9
0.4005074000688438
% es.EZ (V/m) @ t=1.9
-5.167399092868018
% es.tEX (V/m) @ t=1.9
10.411275168161268
% es.tEY (V/m) @ t=1.9
0
% es.tEZ (V/m) @ t=1.9
-5.167399092867981
% es.Ex (V/m) @ t=1.9
10.411275168161271
% es.Ey (V/m) @ t=1.9
0.4005074000688438
% es.Ez (V/m) @ t=1.9
-5.167399092868018
% es.tEx (V/m) @ t=1.9
10.411275168161268
% es.tEy (V/m) @ t=1.9
0
% es.tEz (V/m) @ t=1.9
-5.167399092867981
% V (V) @ t=1.9
0.05276877642733076
% es.normE (V/m) @ t=2
12.014879699655944
% es.EX (V/m) @ t=2
10.755820813614086
% es.EY (V/m) @ t=2
0.4137853901342501
% es.EZ (V/m) @ t=2
-5.338392332264524
% es.tEX (V/m) @ t=2
10.7558208136141
% es.tEY (V/m) @ t=2
0
% es.tEZ (V/m) @ t=2
-5.338392332264476
% es.Ex (V/m) @ t=2
10.755820813614086
% es.Ey (V/m) @ t=2
0.4137853901342501
% es.Ez (V/m) @ t=2
-5.338392332264524
% es.tEx (V/m) @ t=2
10.7558208136141
% es.tEy (V/m) @ t=2
0
% es.tEz (V/m) @ t=2
-5.338392332264476
% V (V) @ t=2
0.05451387465665983
% es.normE (V/m) @ t=2.1
12.389556523407933
% es.EX (V/m) @ t=2.1
11.091240316961587
% es.EY (V/m) @ t=2.1
0.42671692352100576
% es.EZ (V/m) @ t=2.1
-5.504853291295895
% es.tEX (V/m) @ t=2.1
11.091240316961578
% es.tEY (V/m) @ t=2.1
0
% es.tEZ (V/m) @ t=2.1
-5.504853291295916
% es.Ex (V/m) @ t=2.1
11.091240316961587
% es.Ey (V/m) @ t=2.1
0.42671692352100576
% es.Ez (V/m) @ t=2.1
-5.504853291295895
% es.tEx (V/m) @ t=2.1
11.091240316961578
% es.tEy (V/m) @ t=2.1
0
% es.tEz (V/m) @ t=2.1
-5.504853291295916
% V (V) @ t=2.1
0.05621248440989869
% es.normE (V/m) @ t=2.2
12.754037856808655
% es.EX (V/m) @ t=2.2
11.417533678203856
% es.EY (V/m) @ t=2.2
0.4393020002294046
% es.EZ (V/m) @ t=2.2
-5.666781969962429
% es.tEX (V/m) @ t=2.2
11.417533678203839
% es.tEY (V/m) @ t=2.2
0
% es.tEZ (V/m) @ t=2.2
-5.666781969962386
% es.Ex (V/m) @ t=2.2
11.417533678203856
% es.Ey (V/m) @ t=2.2
0.4393020002294046
% es.Ez (V/m) @ t=2.2
-5.666781969962429
% es.tEx (V/m) @ t=2.2
11.417533678203839
% es.tEy (V/m) @ t=2.2
0
% es.tEz (V/m) @ t=2.2
-5.666781969962386
% V (V) @ t=2.2
0.057864605687047335
% es.normE (V/m) @ t=2.3
13.099855406265899
% es.EX (V/m) @ t=2.3
11.727114011307457
% es.EY (V/m) @ t=2.3
0.4512194129425158
% es.EZ (V/m) @ t=2.3
-5.820430165431009
% es.tEX (V/m) @ t=2.3
11.727114011307478
% es.tEY (V/m) @ t=2.3
0
% es.tEZ (V/m) @ t=2.3
-5.820430165430963
% es.Ex (V/m) @ t=2.3
11.727114011307457
% es.Ey (V/m) @ t=2.3
0.4512194129425158
% es.Ez (V/m) @ t=2.3
-5.820430165431009
% es.tEx (V/m) @ t=2.3
11.727114011307478
% es.tEy (V/m) @ t=2.3
0
% es.tEz (V/m) @ t=2.3
-5.820430165430963
% V (V) @ t=2.3
0.059433271389486814
% es.normE (V/m) @ t=2.4
13.430043419033549
% es.EX (V/m) @ t=2.4
12.022699749316196
% es.EY (V/m) @ t=2.4
0.46258425243410484
% es.EZ (V/m) @ t=2.4
-5.96714088435693
% es.tEX (V/m) @ t=2.4
12.022699749316203
% es.tEY (V/m) @ t=2.4
0
% es.tEZ (V/m) @ t=2.4
-5.967140884356866
% es.Ex (V/m) @ t=2.4
12.022699749316196
% es.Ey (V/m) @ t=2.4
0.46258425243410484
% es.Ez (V/m) @ t=2.4
-5.96714088435693
% es.tEx (V/m) @ t=2.4
12.022699749316203
% es.tEy (V/m) @ t=2.4
0
% es.tEz (V/m) @ t=2.4
-5.967140884356866
% V (V) @ t=2.4
0.060931727080940926
% es.normE (V/m) @ t=2.5
13.745845595888426
% es.EX (V/m) @ t=2.5
12.305405144543416
% es.EY (V/m) @ t=2.5
0.4734436929987478
% es.EZ (V/m) @ t=2.5
-6.107464608671769
% es.tEX (V/m) @ t=2.5
12.3054051445434
% es.tEY (V/m) @ t=2.5
0
% es.tEZ (V/m) @ t=2.5
-6.107464608671734
% es.Ex (V/m) @ t=2.5
12.305405144543416
% es.Ey (V/m) @ t=2.5
0.4734436929987478
% es.Ez (V/m) @ t=2.5
-6.107464608671769
% es.tEx (V/m) @ t=2.5
12.3054051445434
% es.tEy (V/m) @ t=2.5
0
% es.tEz (V/m) @ t=2.5
-6.107464608671734
% V (V) @ t=2.5
0.06236540195528048
% es.normE (V/m) @ t=2.6
14.047261936931871
% es.EX (V/m) @ t=2.6
12.575230196989118
% es.EY (V/m) @ t=2.6
0.4837977346363369
% es.EZ (V/m) @ t=2.6
-6.241401338375416
% es.tEX (V/m) @ t=2.6
12.575230196989104
% es.tEY (V/m) @ t=2.6
0
% es.tEZ (V/m) @ t=2.6
-6.24140133837534
% es.Ex (V/m) @ t=2.6
12.575230196989118
% es.Ey (V/m) @ t=2.6
0.4837977346363369
% es.Ez (V/m) @ t=2.6
-6.241401338375416
% es.tEx (V/m) @ t=2.6
12.575230196989104
% es.tEy (V/m) @ t=2.6
0
% es.tEz (V/m) @ t=2.6
-6.24140133837534
% V (V) @ t=2.6
0.0637342960125055
% es.normE (V/m) @ t=2.7
14.33507162801341
% es.EX (V/m) @ t=2.7
12.832878984522782
% es.EY (V/m) @ t=2.7
0.49370538746961534
% es.EZ (V/m) @ t=2.7
-6.369281588305576
% es.tEX (V/m) @ t=2.7
12.832878984522765
% es.tEY (V/m) @ t=2.7
0
% es.tEZ (V/m) @ t=2.7
-6.36928158830554
% es.Ex (V/m) @ t=2.7
12.832878984522782
% es.Ey (V/m) @ t=2.7
0.49370538746961534
% es.Ez (V/m) @ t=2.7
-6.369281588305576
% es.tEx (V/m) @ t=2.7
12.832878984522765
% es.tEy (V/m) @ t=2.7
0
% es.tEz (V/m) @ t=2.7
-6.36928158830554
% V (V) @ t=2.7
0.06504035979501371
% es.normE (V/m) @ t=2.8
14.608927567229163
% es.EX (V/m) @ t=2.8
13.078037863459745
% es.EY (V/m) @ t=2.8
0.5031403644169474
% es.EZ (V/m) @ t=2.8
-6.490958124901846
% es.tEX (V/m) @ t=2.8
13.078037863459713
% es.tEY (V/m) @ t=2.8
0
% es.tEZ (V/m) @ t=2.8
-6.4909581249018515
% es.Ex (V/m) @ t=2.8
13.078037863459745
% es.Ey (V/m) @ t=2.8
0.5031403644169474
% es.Ez (V/m) @ t=2.8
-6.490958124901846
% es.tEx (V/m) @ t=2.8
13.078037863459713
% es.tEy (V/m) @ t=2.8
0
% es.tEz (V/m) @ t=2.8
-6.4909581249018515
% V (V) @ t=2.8
0.06628272439990156
% es.normE (V/m) @ t=2.9
14.868757182387228
% es.EX (V/m) @ t=2.9
13.310641257041155
% es.EY (V/m) @ t=2.9
0.5120971693640697
% es.EZ (V/m) @ t=2.9
-6.606400164507052
% es.tEX (V/m) @ t=2.9
13.310641257041155
% es.tEY (V/m) @ t=2.9
0
% es.tEZ (V/m) @ t=2.9
-6.606400164507022
% es.Ex (V/m) @ t=2.9
13.310641257041155
% es.Ey (V/m) @ t=2.9
0.5120971693640697
% es.Ez (V/m) @ t=2.9
-6.606400164507052
% es.tEx (V/m) @ t=2.9
13.310641257041155
% es.tEy (V/m) @ t=2.9
0
% es.tEz (V/m) @ t=2.9
-6.606400164507022
% V (V) @ t=2.9
0.06746120815657045
% es.normE (V/m) @ t=3
15.114560473508915
% es.EX (V/m) @ t=3
13.530689165267066
% es.EY (V/m) @ t=3
0.5205758023108935
% es.EZ (V/m) @ t=3
-6.715607707121194
% es.tEX (V/m) @ t=3
13.530689165267034
% es.tEY (V/m) @ t=3
0
% es.tEZ (V/m) @ t=3
-6.715607707121194
% es.Ex (V/m) @ t=3
13.530689165267066
% es.Ey (V/m) @ t=3
0.5205758023108935
% es.Ez (V/m) @ t=3
-6.715607707121194
% es.tEx (V/m) @ t=3
13.530689165267034
% es.tEy (V/m) @ t=3
0
% es.tEz (V/m) @ t=3
-6.715607707121194
% V (V) @ t=3
0.06857581106502042
% es.normE (V/m) @ t=3.1
15.36041533674273
% es.EX (V/m) @ t=3.1
13.750779407243227
% es.EY (V/m) @ t=3.1
0.5290374089709491
% es.EZ (V/m) @ t=3.1
-6.824847352158955
% es.tEX (V/m) @ t=3.1
13.7507794072432
% es.tEY (V/m) @ t=3.1
0
% es.tEZ (V/m) @ t=3.1
-6.8248473521588835
% es.Ex (V/m) @ t=3.1
13.750779407243227
% es.Ey (V/m) @ t=3.1
0.5290374089709491
% es.Ez (V/m) @ t=3.1
-6.824847352158955
% es.tEx (V/m) @ t=3.1
13.7507794072432
% es.tEy (V/m) @ t=3.1
0
% es.tEz (V/m) @ t=3.1
-6.8248473521588835
% V (V) @ t=3.1
0.06969157508375222
% es.normE (V/m) @ t=3.2
15.59895498002643
% es.EX (V/m) @ t=3.2
13.96431969723766
% es.EY (V/m) @ t=3.2
0.5372406773930873
% es.EZ (V/m) @ t=3.2
-6.930839864257106
% es.tEX (V/m) @ t=3.2
13.964319697237656
% es.tEY (V/m) @ t=3.2
0
% es.tEZ (V/m) @ t=3.2
-6.930839864257109
% es.Ex (V/m) @ t=3.2
13.96431969723766
% es.Ey (V/m) @ t=3.2
0.5372406773930873
% es.Ez (V/m) @ t=3.2
-6.930839864257106
% es.tEx (V/m) @ t=3.2
13.964319697237656
% es.tEy (V/m) @ t=3.2
0
% es.tEz (V/m) @ t=3.2
-6.930839864257109
% V (V) @ t=3.2
0.07077446454584678
% es.normE (V/m) @ t=3.3
15.82954569701608
% es.EX (V/m) @ t=3.3
14.170742953476822
% es.EY (V/m) @ t=3.3
0.5451648494343786
% es.EZ (V/m) @ t=3.3
-7.033303156946776
% es.tEX (V/m) @ t=3.3
14.170742953476804
% es.tEY (V/m) @ t=3.3
0
% es.tEZ (V/m) @ t=3.3
-7.033303156946715
% es.Ex (V/m) @ t=3.3
14.170742953476822
% es.Ey (V/m) @ t=3.3
0.5451648494343786
% es.Ez (V/m) @ t=3.3
-7.033303156946776
% es.tEx (V/m) @ t=3.3
14.170742953476804
% es.tEy (V/m) @ t=3.3
0
% es.tEz (V/m) @ t=3.3
-7.033303156946715
% V (V) @ t=3.3
0.07182155163428408
% es.normE (V/m) @ t=3.4
16.052187487757585
% es.EX (V/m) @ t=3.4
14.370049175960677
% es.EY (V/m) @ t=3.4
0.5528099250948735
% es.EZ (V/m) @ t=3.4
-7.132237230227654
% es.tEX (V/m) @ t=3.4
14.370049175960666
% es.tEY (V/m) @ t=3.4
0
% es.tEZ (V/m) @ t=3.4
-7.132237230227702
% es.Ex (V/m) @ t=3.4
14.370049175960677
% es.Ey (V/m) @ t=3.4
0.5528099250948735
% es.Ez (V/m) @ t=3.4
-7.132237230227654
% es.tEx (V/m) @ t=3.4
14.370049175960666
% es.tEy (V/m) @ t=3.4
0
% es.tEz (V/m) @ t=3.4
-7.132237230227702
% V (V) @ t=3.4
0.07283283634906415
% es.normE (V/m) @ t=3.5
16.266880352309244
% es.EX (V/m) @ t=3.5
14.562238364689328
% es.EY (V/m) @ t=3.5
0.5601759043746739
% es.EZ (V/m) @ t=3.5
-7.227642084099995
% es.tEX (V/m) @ t=3.5
14.562238364689293
% es.tEY (V/m) @ t=3.5
0
% es.tEZ (V/m) @ t=3.5
-7.227642084099898
% es.Ex (V/m) @ t=3.5
14.562238364689328
% es.Ey (V/m) @ t=3.5
0.5601759043746739
% es.Ez (V/m) @ t=3.5
-7.227642084099995
% es.tEx (V/m) @ t=3.5
14.562238364689293
% es.tEy (V/m) @ t=3.5
0
% es.tEz (V/m) @ t=3.5
-7.227642084099898
% V (V) @ t=3.5
0.07380831869018697
% es.normE (V/m) @ t=3.6
16.473624290740467
% es.EX (V/m) @ t=3.6
14.747310519662634
% es.EY (V/m) @ t=3.6
0.5672627872736564
% es.EZ (V/m) @ t=3.6
-7.319517718563786
% es.tEX (V/m) @ t=3.6
14.74731051966262
% es.tEY (V/m) @ t=3.6
0
% es.tEZ (V/m) @ t=3.6
-7.319517718563702
% es.Ex (V/m) @ t=3.6
14.747310519662634
% es.Ey (V/m) @ t=3.6
0.5672627872736564
% es.Ez (V/m) @ t=3.6
-7.319517718563786
% es.tEx (V/m) @ t=3.6
14.74731051966262
% es.tEy (V/m) @ t=3.6
0
% es.tEz (V/m) @ t=3.6
-7.319517718563702
% V (V) @ t=3.6
0.07474799865765254
% es.normE (V/m) @ t=3.7
16.67241930313181
% es.EX (V/m) @ t=3.7
14.925265640880646
% es.EY (V/m) @ t=3.7
0.5740705737919203
% es.EZ (V/m) @ t=3.7
-7.407864133618769
% es.tEX (V/m) @ t=3.7
14.925265640880646
% es.tEY (V/m) @ t=3.7
0
% es.tEZ (V/m) @ t=3.7
-7.407864133618773
% es.Ex (V/m) @ t=3.7
14.925265640880646
% es.Ey (V/m) @ t=3.7
0.5740705737919203
% es.Ez (V/m) @ t=3.7
-7.407864133618769
% es.tEx (V/m) @ t=3.7
14.925265640880646
% es.tEy (V/m) @ t=3.7
0
% es.tEz (V/m) @ t=3.7
-7.407864133618773
% V (V) @ t=3.7
0.07565187625146086
% es.normE (V/m) @ t=3.8
16.863878990805603
% es.EX (V/m) @ t=3.8
15.096653645605855
% es.EY (V/m) @ t=3.8
0.5806234158389958
% es.EZ (V/m) @ t=3.8
-7.492952485004955
% es.tEX (V/m) @ t=3.8
15.096653645605748
% es.tEY (V/m) @ t=3.8
0
% es.tEZ (V/m) @ t=3.8
-7.492952485004764
% es.Ex (V/m) @ t=3.8
15.096653645605855
% es.Ey (V/m) @ t=3.8
0.5806234158389958
% es.Ez (V/m) @ t=3.8
-7.492952485004955
% es.tEx (V/m) @ t=3.8
15.096653645605748
% es.tEy (V/m) @ t=3.8
0
% es.tEz (V/m) @ t=3.8
-7.492952485004764
% V (V) @ t=3.8
0.0765225865940416
% es.normE (V/m) @ t=3.9
17.060821180963003
% es.EX (V/m) @ t=3.9
15.272962034378933
% es.EY (V/m) @ t=3.9
0.5874258348996781
% es.EZ (V/m) @ t=3.9
-7.580447082465936
% es.tEX (V/m) @ t=3.9
15.272962034378907
% es.tEY (V/m) @ t=3.9
0
% es.tEZ (V/m) @ t=3.9
-7.580447082465923
% es.Ex (V/m) @ t=3.9
15.272962034378933
% es.Ey (V/m) @ t=3.9
0.5874258348996781
% es.Ez (V/m) @ t=3.9
-7.580447082465936
% es.tEx (V/m) @ t=3.9
15.272962034378907
% es.tEy (V/m) @ t=3.9
0
% es.tEz (V/m) @ t=3.9
-7.580447082465923
% V (V) @ t=3.9
0.07741517609400549
% es.normE (V/m) @ t=4
17.252936979929384
% es.EX (V/m) @ t=4
15.444951845005063
% es.EY (V/m) @ t=4
0.5940720634263106
% es.EZ (V/m) @ t=4
-7.665792335915116
% es.tEX (V/m) @ t=4
15.444951845005093
% es.tEY (V/m) @ t=4
0
% es.tEZ (V/m) @ t=4
-7.665792335915114
% es.Ex (V/m) @ t=4
15.444951845005063
% es.Ey (V/m) @ t=4
0.5940720634263106
% es.Ez (V/m) @ t=4
-7.665792335915116
% es.tEx (V/m) @ t=4
15.444951845005093
% es.tEy (V/m) @ t=4
0
% es.tEz (V/m) @ t=4
-7.665792335915114
% V (V) @ t=4
0.07828537300691951
% es.normE (V/m) @ t=4.1
17.44022638784897
% es.EX (V/m) @ t=4.1
15.6126230774844
% es.EY (V/m) @ t=4.1
0.6005621014187577
% es.EZ (V/m) @ t=4.1
-7.748988245352865
% es.tEX (V/m) @ t=4.1
15.612623077484344
% es.tEY (V/m) @ t=4.1
0
% es.tEZ (V/m) @ t=4.1
-7.748988245352791
% es.Ex (V/m) @ t=4.1
15.6126230774844
% es.Ey (V/m) @ t=4.1
0.6005621014187577
% es.Ez (V/m) @ t=4.1
-7.748988245352865
% es.tEx (V/m) @ t=4.1
15.612623077484344
% es.tEy (V/m) @ t=4.1
0
% es.tEz (V/m) @ t=4.1
-7.748988245352791
% V (V) @ t=4.1
0.07913317733278369
% es.normE (V/m) @ t=4.2
17.62268940490617
% es.EX (V/m) @ t=4.2
15.775975731816903
% es.EY (V/m) @ t=4.2
0.6068959488769841
% es.EZ (V/m) @ t=4.2
-7.830034810778899
% es.tEX (V/m) @ t=4.2
15.7759757318169
% es.tEY (V/m) @ t=4.2
0
% es.tEZ (V/m) @ t=4.2
-7.830034810778841
% es.Ex (V/m) @ t=4.2
15.775975731816903
% es.Ey (V/m) @ t=4.2
0.6068959488769841
% es.Ez (V/m) @ t=4.2
-7.830034810778899
% es.tEx (V/m) @ t=4.2
15.7759757318169
% es.tEy (V/m) @ t=4.2
0
% es.tEz (V/m) @ t=4.2
-7.830034810778841
% V (V) @ t=4.2
0.079958589071598
% es.normE (V/m) @ t=4.3
17.800326031324364
% es.EX (V/m) @ t=4.3
15.935009808002363
% es.EY (V/m) @ t=4.3
0.6130736058009754
% es.EZ (V/m) @ t=4.3
-7.908932032193189
% es.tEX (V/m) @ t=4.3
15.935009808002299
% es.tEY (V/m) @ t=4.3
0
% es.tEZ (V/m) @ t=4.3
-7.9089320321931496
% es.Ex (V/m) @ t=4.3
15.935009808002363
% es.Ey (V/m) @ t=4.3
0.6130736058009754
% es.Ez (V/m) @ t=4.3
-7.908932032193189
% es.tEx (V/m) @ t=4.3
15.935009808002299
% es.tEy (V/m) @ t=4.3
0
% es.tEz (V/m) @ t=4.3
-7.9089320321931496
% V (V) @ t=4.3
0.08076160822336245
% es.normE (V/m) @ t=4.4
17.973136267365224
% es.EX (V/m) @ t=4.4
16.089725306041117
% es.EY (V/m) @ t=4.4
0.6190950721911155
% es.EZ (V/m) @ t=4.4
-7.985679909596048
% es.tEX (V/m) @ t=4.4
16.089725306041096
% es.tEY (V/m) @ t=4.4
0
% es.tEZ (V/m) @ t=4.4
-7.985679909596058
% es.Ex (V/m) @ t=4.4
16.089725306041117
% es.Ey (V/m) @ t=4.4
0.6190950721911155
% es.Ez (V/m) @ t=4.4
-7.985679909596048
% es.tEx (V/m) @ t=4.4
16.089725306041096
% es.tEy (V/m) @ t=4.4
0
% es.tEz (V/m) @ t=4.4
-7.985679909596058
% V (V) @ t=4.4
0.08154223478807705
% es.normE (V/m) @ t=4.5
18.14140762669401
% es.EX (V/m) @ t=4.5
16.24037775807109
% es.EY (V/m) @ t=4.5
0.624961173910326
% es.EZ (V/m) @ t=4.5
-8.0604106281999
% es.tEX (V/m) @ t=4.5
16.240377758071126
% es.tEY (V/m) @ t=4.5
0
% es.tEZ (V/m) @ t=4.5
-8.060410628199804
% es.Ex (V/m) @ t=4.5
16.24037775807109
% es.Ey (V/m) @ t=4.5
0.624961173910326
% es.Ez (V/m) @ t=4.5
-8.0604106281999
% es.tEx (V/m) @ t=4.5
16.240377758071126
% es.tEy (V/m) @ t=4.5
0
% es.tEz (V/m) @ t=4.5
-8.060410628199804
% V (V) @ t=4.5
0.08230222074079546
% es.normE (V/m) @ t=4.6
18.30683857233863
% es.EX (V/m) @ t=4.6
16.38847670074099
% es.EY (V/m) @ t=4.6
0.6306767896850587
% es.EZ (V/m) @ t=4.6
-8.133905062083576
% es.tEX (V/m) @ t=4.6
16.388476700741016
% es.tEY (V/m) @ t=4.6
0
% es.tEZ (V/m) @ t=4.6
-8.133905062083386
% es.Ex (V/m) @ t=4.6
16.38847670074099
% es.Ey (V/m) @ t=4.6
0.6306767896850587
% es.Ez (V/m) @ t=4.6
-8.133905062083576
% es.tEx (V/m) @ t=4.6
16.388476700741016
% es.tEy (V/m) @ t=4.6
0
% es.tEz (V/m) @ t=4.6
-8.133905062083386
% V (V) @ t=4.6
0.08305191574074608
% es.normE (V/m) @ t=4.7
18.467997873844
% es.EX (V/m) @ t=4.7
16.532750105286823
% es.EY (V/m) @ t=4.7
0.6362378083996205
% es.EZ (V/m) @ t=4.7
-8.205505198544614
% es.tEX (V/m) @ t=4.7
16.532750105286773
% es.tEY (V/m) @ t=4.7
0
% es.tEZ (V/m) @ t=4.7
-8.205505198544643
% es.Ex (V/m) @ t=4.7
16.532750105286823
% es.Ey (V/m) @ t=4.7
0.6362378083996205
% es.Ez (V/m) @ t=4.7
-8.205505198544614
% es.tEx (V/m) @ t=4.7
16.532750105286773
% es.tEy (V/m) @ t=4.7
0
% es.tEz (V/m) @ t=4.7
-8.205505198544643
% V (V) @ t=4.7
0.08378259852617737
% es.normE (V/m) @ t=4.8
18.62488553117982
% es.EX (V/m) @ t=4.8
16.673197971708362
% es.EY (V/m) @ t=4.8
0.6416442300536853
% es.EZ (V/m) @ t=4.8
-8.275211037583414
% es.tEX (V/m) @ t=4.8
16.673197971708426
% es.tEY (V/m) @ t=4.8
0
% es.tEZ (V/m) @ t=4.8
-8.27521103758329
% es.Ex (V/m) @ t=4.8
16.673197971708362
% es.Ey (V/m) @ t=4.8
0.6416442300536853
% es.Ez (V/m) @ t=4.8
-8.275211037583414
% es.tEx (V/m) @ t=4.8
16.673197971708426
% es.tEy (V/m) @ t=4.8
0
% es.tEz (V/m) @ t=4.8
-8.27521103758329
% V (V) @ t=4.8
0.08449426909708943
% es.normE (V/m) @ t=4.9
18.77750154434133
% es.EX (V/m) @ t=4.9
16.809820300006002
% es.EY (V/m) @ t=4.9
0.6468960546476654
% es.EZ (V/m) @ t=4.9
-8.343022579199886
% es.tEX (V/m) @ t=4.9
16.809820300006052
% es.tEY (V/m) @ t=4.9
0
% es.tEZ (V/m) @ t=4.9
-8.343022579199783
% es.Ex (V/m) @ t=4.9
16.809820300006002
% es.Ey (V/m) @ t=4.9
0.6468960546476654
% es.Ez (V/m) @ t=4.9
-8.343022579199886
% es.tEx (V/m) @ t=4.9
16.809820300006052
% es.tEy (V/m) @ t=4.9
0
% es.tEz (V/m) @ t=4.9
-8.343022579199783
% V (V) @ t=4.9
0.08518692745348218
% es.normE (V/m) @ t=5
18.92584591334716
% es.EX (V/m) @ t=5
16.942617090179493
% es.EY (V/m) @ t=5
0.6519932821811627
% es.EZ (V/m) @ t=5
-8.408939823393666
% es.tEX (V/m) @ t=5
16.942617090179432
% es.tEY (V/m) @ t=5
0
% es.tEZ (V/m) @ t=5
-8.40893982339361
% es.Ex (V/m) @ t=5
16.942617090179493
% es.Ey (V/m) @ t=5
0.6519932821811627
% es.Ez (V/m) @ t=5
-8.408939823393666
% es.tEx (V/m) @ t=5
16.942617090179432
% es.tEy (V/m) @ t=5
0
% es.tEz (V/m) @ t=5
-8.40893982339361
% V (V) @ t=5
0.08586057359535565
% es.normE (V/m) @ t=5.1
19.069918638239933
% es.EX (V/m) @ t=5.1
17.07158834222895
% es.EY (V/m) @ t=5.1
0.6569359126545748
% es.EZ (V/m) @ t=5.1
-8.472962770165346
% es.tEX (V/m) @ t=5.1
17.071588342228885
% es.tEY (V/m) @ t=5.1
0
% es.tEZ (V/m) @ t=5.1
-8.472962770165225
% es.Ex (V/m) @ t=5.1
17.07158834222895
% es.Ey (V/m) @ t=5.1
0.6569359126545748
% es.Ez (V/m) @ t=5.1
-8.472962770165346
% es.tEx (V/m) @ t=5.1
17.071588342228885
% es.tEy (V/m) @ t=5.1
0
% es.tEz (V/m) @ t=5.1
-8.472962770165225
% V (V) @ t=5.1
0.08651520752270986
% es.normE (V/m) @ t=5.2
19.20662006321493
% es.EX (V/m) @ t=5.2
17.19395993695168
% es.EY (V/m) @ t=5.2
0.6616207203201678
% es.EZ (V/m) @ t=5.2
-8.533712473250349
% es.tEX (V/m) @ t=5.2
17.193959936951714
% es.tEY (V/m) @ t=5.2
0
% es.tEZ (V/m) @ t=5.2
-8.533712473250148
% es.Ex (V/m) @ t=5.2
17.19395993695168
% es.Ey (V/m) @ t=5.2
0.6616207203201678
% es.Ez (V/m) @ t=5.2
-8.533712473250349
% es.tEx (V/m) @ t=5.2
17.193959936951714
% es.tEy (V/m) @ t=5.2
0
% es.tEz (V/m) @ t=5.2
-8.533712473250148
% V (V) @ t=5.2
0.0871365915455266
% es.normE (V/m) @ t=5.3
19.327271758715995
% es.EX (V/m) @ t=5.3
17.30196488371326
% es.EY (V/m) @ t=5.3
0.6657586932967936
% es.EZ (V/m) @ t=5.3
-8.587328153087375
% es.tEX (V/m) @ t=5.3
17.301964883713197
% es.tEY (V/m) @ t=5.3
0
% es.tEZ (V/m) @ t=5.3
-8.587328153087299
% es.Ex (V/m) @ t=5.3
17.30196488371326
% es.Ey (V/m) @ t=5.3
0.6657586932967936
% es.Ez (V/m) @ t=5.3
-8.587328153087375
% es.tEx (V/m) @ t=5.3
17.301964883713197
% es.tEy (V/m) @ t=5.3
0
% es.tEz (V/m) @ t=5.3
-8.587328153087299
% V (V) @ t=5.3
0.08768486291928411
% es.normE (V/m) @ t=5.4
19.44010597212284
% es.EX (V/m) @ t=5.4
17.402970850574714
% es.EY (V/m) @ t=5.4
0.6696239845618688