% Model:              1x1--2 - Copy1.mph
% Version:            COMSOL 6.0.0.405
% Date:               Mar 7 2023, 19:22
% Dimension:          0
% Nodes:              14017
% Expressions:        14017
% Description:        Electric field norm, Electric field, X component, Electric field, Y component, Electric field, Z component, Tangential electric field, X component, Tangential electric field, Y component, Tangential electric field, Z component, Electric field, x component, Electric field, y component, Electric field, z component, Tangential electric field, x component, Tangential electric field, y component, Tangential electric field, z component, Electric potential
% Length unit:        mm
% x
1.0000000000000002
% y
12.2
% z
2
% es.normE (V/m) @ t=0
1.5411237599800263
% es.EX (V/m) @ t=0
1.0704750749299214
% es.EY (V/m) @ t=0
0.16029164353489894
% es.EZ (V/m) @ t=0
-1.0689163052049548
% es.tEX (V/m) @ t=0
1.0704750749299263
% es.tEY (V/m) @ t=0
0
% es.tEZ (V/m) @ t=0
-1.068916305204933
% es.Ex (V/m) @ t=0
1.0704750749299214
% es.Ey (V/m) @ t=0
0.16029164353489894
% es.Ez (V/m) @ t=0
-1.0689163052049548
% es.tEx (V/m) @ t=0
1.0704750749299263
% es.tEy (V/m) @ t=0
0
% es.tEz (V/m) @ t=0
-1.068916305204933
% V (V) @ t=0
0.01650340657730745
% es.normE (V/m) @ t=0.1
1.6014553527938986
% es.EX (V/m) @ t=0.1
1.1123819374849822
% es.EY (V/m) @ t=0.1
0.1665667580716072
% es.EZ (V/m) @ t=0.1
-1.110761877757724
% es.tEX (V/m) @ t=0.1
1.11238193748498
% es.tEY (V/m) @ t=0.1
0
% es.tEZ (V/m) @ t=0.1
-1.1107618777577022
% es.Ex (V/m) @ t=0.1
1.1123819374849822
% es.Ey (V/m) @ t=0.1
0.1665667580716072
% es.Ez (V/m) @ t=0.1
-1.110761877757724
% es.tEx (V/m) @ t=0.1
1.11238193748498
% es.tEy (V/m) @ t=0.1
0
% es.tEz (V/m) @ t=0.1
-1.1107618777577022
% V (V) @ t=0.1
0.01714947642229042
% es.normE (V/m) @ t=0.2
1.7026010872216073
% es.EX (V/m) @ t=0.2
1.1826384691674767
% es.EY (V/m) @ t=0.2
0.1770868256606578
% es.EZ (V/m) @ t=0.2
-1.180916093189348
% es.tEX (V/m) @ t=0.2
1.1826384691674807
% es.tEY (V/m) @ t=0.2
0
% es.tEZ (V/m) @ t=0.2
-1.1809160931893334
% es.Ex (V/m) @ t=0.2
1.1826384691674767
% es.Ey (V/m) @ t=0.2
0.1770868256606578
% es.Ez (V/m) @ t=0.2
-1.180916093189348
% es.tEx (V/m) @ t=0.2
1.1826384691674807
% es.tEy (V/m) @ t=0.2
0
% es.tEz (V/m) @ t=0.2
-1.1809160931893334
% V (V) @ t=0.2
0.018232617042412375
% es.normE (V/m) @ t=0.3
1.809035152825513
% es.EX (V/m) @ t=0.3
1.256568309538428
% es.EY (V/m) @ t=0.3
0.18815695778640207
% es.EZ (V/m) @ t=0.3
-1.2547382646377594
% es.tEX (V/m) @ t=0.3
1.256568309538432
% es.tEY (V/m) @ t=0.3
0
% es.tEZ (V/m) @ t=0.3
-1.2547382646377372
% es.Ex (V/m) @ t=0.3
1.256568309538428
% es.Ey (V/m) @ t=0.3
0.18815695778640207
% es.Ez (V/m) @ t=0.3
-1.2547382646377594
% es.tEx (V/m) @ t=0.3
1.256568309538432
% es.tEy (V/m) @ t=0.3
0
% es.tEz (V/m) @ t=0.3
-1.2547382646377372
% V (V) @ t=0.3
0.019372387432176428
% es.normE (V/m) @ t=0.4
1.9227537298403972
% es.EX (V/m) @ t=0.4
1.3355580060898027
% es.EY (V/m) @ t=0.4
0.19998491457438494
% es.EZ (V/m) @ t=0.4
-1.3336129064915263
% es.tEX (V/m) @ t=0.4
1.3355580060898014
% es.tEY (V/m) @ t=0.4
0
% es.tEZ (V/m) @ t=0.4
-1.3336129064915045
% es.Ex (V/m) @ t=0.4
1.3355580060898027
% es.Ey (V/m) @ t=0.4
0.19998491457438494
% es.Ez (V/m) @ t=0.4
-1.3336129064915263
% es.tEx (V/m) @ t=0.4
1.3355580060898014
% es.tEy (V/m) @ t=0.4
0
% es.tEz (V/m) @ t=0.4
-1.3336129064915045
% V (V) @ t=0.4
0.020590156983182
% es.normE (V/m) @ t=0.5
2.046455524918973
% es.EX (V/m) @ t=0.5
1.4214821116910157
% es.EY (V/m) @ t=0.5
0.2128512490256429
% es.EZ (V/m) @ t=0.5
-1.4194118564847553
% es.tEX (V/m) @ t=0.5
1.4214821116910148
% es.tEY (V/m) @ t=0.5
0
% es.tEZ (V/m) @ t=0.5
-1.419411856484727
% es.Ex (V/m) @ t=0.5
1.4214821116910157
% es.Ey (V/m) @ t=0.5
0.2128512490256429
% es.Ez (V/m) @ t=0.5
-1.4194118564847553
% es.tEx (V/m) @ t=0.5
1.4214821116910148
% es.tEy (V/m) @ t=0.5
0
% es.tEz (V/m) @ t=0.5
-1.419411856484727
% V (V) @ t=0.5
0.021914832248298963
% es.normE (V/m) @ t=0.6
2.170811594501524
% es.EX (V/m) @ t=0.6
1.5078606806296557
% es.EY (V/m) @ t=0.6
0.22578563818685982
% es.EZ (V/m) @ t=0.6
-1.5056646072877928
% es.tEX (V/m) @ t=0.6
1.5078606806296637
% es.tEY (V/m) @ t=0.6
0
% es.tEZ (V/m) @ t=0.6
-1.5056646072877715
% es.Ex (V/m) @ t=0.6
1.5078606806296557
% es.Ey (V/m) @ t=0.6
0.22578563818685982
% es.Ez (V/m) @ t=0.6
-1.5056646072877928
% es.tEx (V/m) @ t=0.6
1.5078606806296637
% es.tEy (V/m) @ t=0.6
0
% es.tEz (V/m) @ t=0.6
-1.5056646072877715
% V (V) @ t=0.6
0.023246513741020526
% es.normE (V/m) @ t=0.7
2.3073748745856926
% es.EX (V/m) @ t=0.7
1.6027184575942264
% es.EY (V/m) @ t=0.7
0.23998976683095585
% es.EZ (V/m) @ t=0.7
-1.6003842049232455
% es.tEX (V/m) @ t=0.7
1.6027184575942348
% es.tEY (V/m) @ t=0.7
0
% es.tEZ (V/m) @ t=0.7
-1.6003842049232162
% es.Ex (V/m) @ t=0.7
1.6027184575942264
% es.Ey (V/m) @ t=0.7
0.23998976683095585
% es.Ez (V/m) @ t=0.7
-1.6003842049232455
% es.tEx (V/m) @ t=0.7
1.6027184575942348
% es.tEy (V/m) @ t=0.7
0
% es.tEz (V/m) @ t=0.7
-1.6003842049232162
% V (V) @ t=0.7
0.024708914824173145
% es.normE (V/m) @ t=0.8
2.444882917328443
% es.EX (V/m) @ t=0.8
1.6982324737672232
% es.EY (V/m) @ t=0.8
0.25429215440314135
% es.EZ (V/m) @ t=0.8
-1.6957590865084011
% es.tEX (V/m) @ t=0.8
1.6982324737672334
% es.tEY (V/m) @ t=0.8
0
% es.tEZ (V/m) @ t=0.8
-1.6957590865083656
% es.Ex (V/m) @ t=0.8
1.6982324737672232
% es.Ey (V/m) @ t=0.8
0.25429215440314135
% es.Ez (V/m) @ t=0.8
-1.6957590865084011
% es.tEx (V/m) @ t=0.8
1.6982324737672334
% es.tEy (V/m) @ t=0.8
0
% es.tEz (V/m) @ t=0.8
-1.6957590865083656
% V (V) @ t=0.8
0.026181433347096456
% es.normE (V/m) @ t=0.9
2.5949656432444295
% es.EX (V/m) @ t=0.9
1.802480958916965
% es.EY (V/m) @ t=0.9
0.2699023570952471
% es.EZ (V/m) @ t=0.9
-1.7998557226862397
% es.tEX (V/m) @ t=0.9
1.8024809589169672
% es.tEY (V/m) @ t=0.9
0
% es.tEZ (V/m) @ t=0.9
-1.7998557226862033
% es.Ex (V/m) @ t=0.9
1.802480958916965
% es.Ey (V/m) @ t=0.9
0.2699023570952471
% es.Ez (V/m) @ t=0.9
-1.7998557226862397
% es.tEx (V/m) @ t=0.9
1.8024809589169672
% es.tEy (V/m) @ t=0.9
0
% es.tEz (V/m) @ t=0.9
-1.7998557226862033
% V (V) @ t=0.9
0.02778861383880805
% es.normE (V/m) @ t=1
2.746277321585372
% es.EX (V/m) @ t=1
1.9075830927394626
% es.EY (V/m) @ t=1
0.2856402707403579
% es.EZ (V/m) @ t=1
-1.9048047774770902
% es.tEX (V/m) @ t=1
1.9075830927394684
% es.tEY (V/m) @ t=1
0
% es.tEZ (V/m) @ t=1
-1.904804777477068
% es.Ex (V/m) @ t=1
1.9075830927394626
% es.Ey (V/m) @ t=1
0.2856402707403579
% es.Ez (V/m) @ t=1
-1.9048047774770902
% es.tEx (V/m) @ t=1
1.9075830927394684
% es.tEy (V/m) @ t=1
0
% es.tEz (V/m) @ t=1
-1.904804777477068
% V (V) @ t=1
0.029408960388003256
% es.normE (V/m) @ t=1.1
2.910185172373626
% es.EX (V/m) @ t=1.1
2.0214347156982373
% es.EY (V/m) @ t=1.1
0.30268716035152843
% es.EZ (V/m) @ t=1.1
-2.0184907138823496
% es.tEX (V/m) @ t=1.1
2.0214347156982484
% es.tEY (V/m) @ t=1.1
0
% es.tEZ (V/m) @ t=1.1
-2.0184907138823274
% es.Ex (V/m) @ t=1.1
2.0214347156982373
% es.Ey (V/m) @ t=1.1
0.30268716035152843
% es.Ez (V/m) @ t=1.1
-2.0184907138823496
% es.tEx (V/m) @ t=1.1
2.0214347156982484
% es.tEy (V/m) @ t=1.1
0
% es.tEz (V/m) @ t=1.1
-2.0184907138823274
% V (V) @ t=1.1
0.03116425270656801
% es.normE (V/m) @ t=1.2
3.074655177630402
% es.EX (V/m) @ t=1.2
2.1356768103736044
% es.EY (V/m) @ t=1.2
0.3197925696691657
% es.EZ (V/m) @ t=1.2
-2.1325665479568707
% es.tEX (V/m) @ t=1.2
2.1356768103736155
% es.tEY (V/m) @ t=1.2
0
% es.tEZ (V/m) @ t=1.2
-2.132566547956827
% es.Ex (V/m) @ t=1.2
2.1356768103736044
% es.Ey (V/m) @ t=1.2
0.3197925696691657
% es.Ez (V/m) @ t=1.2
-2.1325665479568707
% es.tEx (V/m) @ t=1.2
2.1356768103736155
% es.tEy (V/m) @ t=1.2
0
% es.tEz (V/m) @ t=1.2
-2.132566547956827
% V (V) @ t=1.2
0.0329255624286247
% es.normE (V/m) @ t=1.3
3.2465359693963904
% es.EX (V/m) @ t=1.3
2.2550664271164957
% es.EY (V/m) @ t=1.3
0.3376694342994844
% es.EZ (V/m) @ t=1.3
-2.2517823365317673
% es.tEX (V/m) @ t=1.3
2.255066427116498
% es.tEY (V/m) @ t=1.3
0
% es.tEZ (V/m) @ t=1.3
-2.251782336531738
% es.Ex (V/m) @ t=1.3
2.2550664271164957
% es.Ey (V/m) @ t=1.3
0.3376694342994844
% es.Ez (V/m) @ t=1.3
-2.2517823365317673
% es.tEx (V/m) @ t=1.3
2.255066427116498
% es.tEy (V/m) @ t=1.3
0
% es.tEz (V/m) @ t=1.3
-2.251782336531738
% V (V) @ t=1.3
0.03476619855500553
% es.normE (V/m) @ t=1.4
3.4234048431444197
% es.EX (V/m) @ t=1.4
2.377920758710692
% es.EY (V/m) @ t=1.4
0.35606555317362565
% es.EZ (V/m) @ t=1.4
-2.374457746349475
% es.tEX (V/m) @ t=1.4
2.377920758710708
% es.tEY (V/m) @ t=1.4
0
% es.tEZ (V/m) @ t=1.4
-2.3744577463494316
% es.Ex (V/m) @ t=1.4
2.377920758710692
% es.Ey (V/m) @ t=1.4
0.35606555317362565
% es.Ez (V/m) @ t=1.4
-2.374457746349475
% es.tEx (V/m) @ t=1.4
2.377920758710708
% es.tEy (V/m) @ t=1.4
0
% es.tEz (V/m) @ t=1.4
-2.3744577463494316
% V (V) @ t=1.4
0.036660228016577395
% es.normE (V/m) @ t=1.5
3.6052617988744204
% es.EX (V/m) @ t=1.5
2.5042398051561303
% es.EY (V/m) @ t=1.5
0.3749809262917181
% es.EZ (V/m) @ t=1.5
-2.5005927774098238
% es.tEX (V/m) @ t=1.5
2.5042398051561428
% es.tEY (V/m) @ t=1.5
0
% es.tEZ (V/m) @ t=1.5
-2.5005927774097945
% es.Ex (V/m) @ t=1.5
2.5042398051561303
% es.Ey (V/m) @ t=1.5
0.3749809262917181
% es.Ez (V/m) @ t=1.5
-2.5005927774098238
% es.tEx (V/m) @ t=1.5
2.5042398051561428
% es.tEy (V/m) @ t=1.5
0
% es.tEz (V/m) @ t=1.5
-2.5005927774097945
% V (V) @ t=1.5
0.03860765081334028
% es.normE (V/m) @ t=1.6
3.7921074111535007
% es.EX (V/m) @ t=1.6
2.634023979798263
% es.EY (V/m) @ t=1.6
0.39441546515731973
% es.EZ (V/m) @ t=1.6
-2.6301878571360016
% es.tEX (V/m) @ t=1.6
2.6340239797982665
% es.tEY (V/m) @ t=1.6
0
% es.tEZ (V/m) @ t=1.6
-2.630187857135958
% es.Ex (V/m) @ t=1.6
2.634023979798263
% es.Ey (V/m) @ t=1.6
0.39441546515731973
% es.Ez (V/m) @ t=1.6
-2.6301878571360016
% es.tEx (V/m) @ t=1.6
2.6340239797982665
% es.tEy (V/m) @ t=1.6
0
% es.tEz (V/m) @ t=1.6
-2.630187857135958
% V (V) @ t=1.6
0.04060848061839802
% es.normE (V/m) @ t=1.7
3.9839455666096195
% es.EX (V/m) @ t=1.7
2.7672760786913058
% es.EY (V/m) @ t=1.7
0.41436857114150594
% es.EZ (V/m) @ t=1.7
-2.763245876809788
% es.tEX (V/m) @ t=1.7
2.7672760786913173
% es.tEY (V/m) @ t=1.7
0
% es.tEZ (V/m) @ t=1.7
-2.763245876809716
% es.Ex (V/m) @ t=1.7
2.7672760786913058
% es.Ey (V/m) @ t=1.7
0.41436857114150594
% es.Ez (V/m) @ t=1.7
-2.763245876809788
% es.tEx (V/m) @ t=1.7
2.7672760786913173
% es.tEy (V/m) @ t=1.7
0
% es.tEz (V/m) @ t=1.7
-2.763245876809716
% V (V) @ t=1.7
0.04266280992277435
% es.normE (V/m) @ t=1.8
4.180773721035132
% es.EX (V/m) @ t=1.8
2.9039942715231364
% es.EY (V/m) @ t=1.8
0.43484063611008117
% es.EZ (V/m) @ t=1.8
-2.899764943782614
% es.tEX (V/m) @ t=1.8
2.903994271523146
% es.tEY (V/m) @ t=1.8
0
% es.tEZ (V/m) @ t=1.8
-2.899764943782543
% es.Ex (V/m) @ t=1.8
2.9039942715231364
% es.Ey (V/m) @ t=1.8
0.43484063611008117
% es.Ez (V/m) @ t=1.8
-2.899764943782614
% es.tEx (V/m) @ t=1.8
2.903994271523146
% es.tEy (V/m) @ t=1.8
0
% es.tEz (V/m) @ t=1.8
-2.899764943782543
% V (V) @ t=1.8
0.044770578181348386
% es.normE (V/m) @ t=1.9
4.38259187443
% es.EX (V/m) @ t=1.9
3.0441785582937753
% es.EY (V/m) @ t=1.9
0.45583166006302056
% es.EZ (V/m) @ t=1.9
-3.039745058054395
% es.tEX (V/m) @ t=1.9
3.0441785582937992
% es.tEY (V/m) @ t=1.9
0
% es.tEZ (V/m) @ t=1.9
-3.039745058054365
% es.Ex (V/m) @ t=1.9
3.0441785582937753
% es.Ey (V/m) @ t=1.9
0.45583166006302056
% es.Ez (V/m) @ t=1.9
-3.039745058054395
% es.tEx (V/m) @ t=1.9
3.0441785582937992
% es.tEy (V/m) @ t=1.9
0
% es.tEz (V/m) @ t=1.9
-3.039745058054365
% V (V) @ t=1.9
0.04693178539412014
% es.normE (V/m) @ t=2
4.588441969684553
% es.EX (V/m) @ t=2
3.18716347775889
% es.EY (V/m) @ t=2
0.4772418595267147
% es.EZ (V/m) @ t=2
-3.182521743985953
% es.tEX (V/m) @ t=2
3.1871634777588955
% es.tEY (V/m) @ t=2
0
% es.tEZ (V/m) @ t=2
-3.1825217439858804
% es.Ex (V/m) @ t=2
3.18716347775889
% es.Ey (V/m) @ t=2
0.4772418595267147
% es.Ez (V/m) @ t=2
-3.182521743985953
% es.tEx (V/m) @ t=2
3.1871634777588955
% es.tEy (V/m) @ t=2
0
% es.tEz (V/m) @ t=2
-3.1825217439858804
% V (V) @ t=2
0.04913617877800158
% es.normE (V/m) @ t=2.1
4.793544461738692
% es.EX (V/m) @ t=2.1
3.3296291839817282
% es.EY (V/m) @ t=2.1
0.4985734357757341
% es.EZ (V/m) @ t=2.1
-3.32478007261607
% es.tEX (V/m) @ t=2.1
3.329629183981748
% es.tEY (V/m) @ t=2.1
0
% es.tEZ (V/m) @ t=2.1
-3.3247800726160115
% es.Ex (V/m) @ t=2.1
3.3296291839817282
% es.Ey (V/m) @ t=2.1
0.4985734357757341
% es.Ez (V/m) @ t=2.1
-3.32478007261607
% es.tEx (V/m) @ t=2.1
3.329629183981748
% es.tEy (V/m) @ t=2.1
0
% es.tEz (V/m) @ t=2.1
-3.3247800726160115
% V (V) @ t=2.1
0.05133260935840166
% es.normE (V/m) @ t=2.2
5.0011244502690095
% es.EX (V/m) @ t=2.2
3.4738158136114174
% es.EY (V/m) @ t=2.2
0.520162289086747
% es.EZ (V/m) @ t=2.2
-3.46875686276009
% es.tEX (V/m) @ t=2.2
3.473815813611436
% es.tEY (V/m) @ t=2.2
0
% es.tEZ (V/m) @ t=2.2
-3.4687568627600456
% es.Ex (V/m) @ t=2.2
3.4738158136114174
% es.Ey (V/m) @ t=2.2
0.520162289086747
% es.Ez (V/m) @ t=2.2
-3.46875686276009
% es.tEx (V/m) @ t=2.2
3.473815813611436
% es.tEy (V/m) @ t=2.2
0
% es.tEz (V/m) @ t=2.2
-3.4687568627600456
% V (V) @ t=2.2
0.05355559099371275
% es.normE (V/m) @ t=2.3
5.211181935275846
% es.EX (V/m) @ t=2.3
3.6197233666479516
% es.EY (V/m) @ t=2.3
0.5420084194597545
% es.EZ (V/m) @ t=2.3
-3.61445211441791
% es.tEX (V/m) @ t=2.3
3.6197233666479693
% es.tEY (V/m) @ t=2.3
0
% es.tEZ (V/m) @ t=2.3
-3.6144521144178654
% es.Ex (V/m) @ t=2.3
3.6197233666479516
% es.Ey (V/m) @ t=2.3
0.5420084194597545
% es.Ez (V/m) @ t=2.3
-3.61445211441791
% es.tEx (V/m) @ t=2.3
3.6197233666479693
% es.tEy (V/m) @ t=2.3
0
% es.tEz (V/m) @ t=2.3
-3.6144521144178654
% V (V) @ t=2.3
0.05580512368393488
% es.normE (V/m) @ t=2.4
5.421837729687011
% es.EX (V/m) @ t=2.4
3.7660464945171155
% es.EY (V/m) @ t=2.4
0.5639169392192755
% es.EZ (V/m) @ t=2.4
-3.7605623190486686
% es.tEX (V/m) @ t=2.4
3.76604649451712
% es.tEY (V/m) @ t=2.4
0
% es.tEZ (V/m) @ t=2.4
-3.7605623190485957
% es.Ex (V/m) @ t=2.4
3.7660464945171155
% es.Ey (V/m) @ t=2.4
0.5639169392192755
% es.Ez (V/m) @ t=2.4
-3.7605623190486686
% es.tEx (V/m) @ t=2.4
3.76604649451712
% es.tEy (V/m) @ t=2.4
0
% es.tEz (V/m) @ t=2.4
-3.7605623190485957
% V (V) @ t=2.4
0.05806105545459773
% es.normE (V/m) @ t=2.5
5.6259116378741965
% es.EX (V/m) @ t=2.5
3.9077975840848795
% es.EY (V/m) @ t=2.5
0.5851432010357953
% es.EZ (V/m) @ t=2.5
-3.902106894110501
% es.tEX (V/m) @ t=2.5
3.9077975840849337
% es.tEY (V/m) @ t=2.5
0
% es.tEZ (V/m) @ t=2.5
-3.9021068941104424
% es.Ex (V/m) @ t=2.5
3.9077975840848795
% es.Ey (V/m) @ t=2.5
0.5851432010357953
% es.Ez (V/m) @ t=2.5
-3.902106894110501
% es.tEx (V/m) @ t=2.5
3.9077975840849337
% es.tEy (V/m) @ t=2.5
0
% es.tEz (V/m) @ t=2.5
-3.9021068941104424
% V (V) @ t=2.5
0.06024638752198017
% es.normE (V/m) @ t=2.6
5.828416154315715
% es.EX (V/m) @ t=2.6
4.048458488017666
% es.EY (V/m) @ t=2.6
0.6062070432006623
% es.EZ (V/m) @ t=2.6
-4.042562784213713
% es.tEX (V/m) @ t=2.6
4.048458488017674
% es.tEY (V/m) @ t=2.6
0
% es.tEZ (V/m) @ t=2.6
-4.042562784213668
% es.Ex (V/m) @ t=2.6
4.048458488017666
% es.Ey (V/m) @ t=2.6
0.6062070432006623
% es.Ez (V/m) @ t=2.6
-4.042562784213713
% es.tEx (V/m) @ t=2.6
4.048458488017674
% es.tEy (V/m) @ t=2.6
0
% es.tEz (V/m) @ t=2.6
-4.042562784213668
% V (V) @ t=2.6
0.06241487273603413
% es.normE (V/m) @ t=2.7
6.029351279012385
% es.EX (V/m) @ t=2.7
4.188029206315535
% es.EY (V/m) @ t=2.7
0.6271084657140047
% es.EZ (V/m) @ t=2.7
-4.181929989358201
% es.tEX (V/m) @ t=2.7
4.188029206315553
% es.tEY (V/m) @ t=2.7
0
% es.tEZ (V/m) @ t=2.7
-4.181929989358114
% es.Ex (V/m) @ t=2.7
4.188029206315535
% es.Ey (V/m) @ t=2.7
0.6271084657140047
% es.Ez (V/m) @ t=2.7
-4.181929989358201
% es.tEx (V/m) @ t=2.7
4.188029206315553
% es.tEy (V/m) @ t=2.7
0
% es.tEz (V/m) @ t=2.7
-4.181929989358114
% V (V) @ t=2.7
0.0645665110967596
% es.normE (V/m) @ t=2.8
6.227332342928693
% es.EX (V/m) @ t=2.8
4.32554798023964
% es.EY (V/m) @ t=2.8
0.6477029929929876
% es.EZ (V/m) @ t=2.8
-4.319248201519676
% es.tEX (V/m) @ t=2.8
4.325547980239673
% es.tEY (V/m) @ t=2.8
0
% es.tEZ (V/m) @ t=2.8
-4.319248201519617
% es.Ex (V/m) @ t=2.8
4.32554798023964
% es.Ey (V/m) @ t=2.8
0.6477029929929876
% es.Ez (V/m) @ t=2.8
-4.319248201519676
% es.tEx (V/m) @ t=2.8
4.325547980239673
% es.tEy (V/m) @ t=2.8
0
% es.tEz (V/m) @ t=2.8
-4.319248201519617
% V (V) @ t=2.8
0.06668649747637549
% es.normE (V/m) @ t=2.9
6.417199252331327
% es.EX (V/m) @ t=2.9
4.4574307293275135
% es.EY (V/m) @ t=2.9
0.6674522237815548
% es.EZ (V/m) @ t=2.9
-4.450938746454542
% es.tEX (V/m) @ t=2.9
4.457430729327546
% es.tEY (V/m) @ t=2.9
0
% es.tEZ (V/m) @ t=2.9
-4.4509387464544545
% es.Ex (V/m) @ t=2.9
4.4574307293275135
% es.Ey (V/m) @ t=2.9
0.6674522237815548
% es.Ez (V/m) @ t=2.9
-4.450938746454542
% es.tEx (V/m) @ t=2.9
4.457430729327546
% es.tEy (V/m) @ t=2.9
0
% es.tEz (V/m) @ t=2.9
-4.4509387464544545
% V (V) @ t=2.9
0.06871965923429106
% es.normE (V/m) @ t=3
6.600667345657227
% es.EX (V/m) @ t=3
4.584868887553086
% es.EY (V/m) @ t=3
0.6865351355205489
% es.EZ (V/m) @ t=3
-4.57819126098024
% es.tEX (V/m) @ t=3
4.584868887553089
% es.tEY (V/m) @ t=3
0
% es.tEZ (V/m) @ t=3
-4.578191260980123
% es.Ex (V/m) @ t=3
4.584868887553086
% es.Ey (V/m) @ t=3
0.6865351355205489
% es.Ez (V/m) @ t=3
-4.57819126098024
% es.tEx (V/m) @ t=3
4.584868887553089
% es.tEy (V/m) @ t=3
0
% es.tEz (V/m) @ t=3
-4.578191260980123
% V (V) @ t=3
0.07068433707438314
% es.normE (V/m) @ t=3.1
6.776811794703908
% es.EX (V/m) @ t=3.1
4.707220090869749
% es.EY (V/m) @ t=3.1
0.7048552321588608
% es.EZ (V/m) @ t=3.1
-4.700364349990819
% es.tEX (V/m) @ t=3.1
4.70722009086975
% es.tEY (V/m) @ t=3.1
0
% es.tEZ (V/m) @ t=3.1
-4.700364349990732
% es.Ex (V/m) @ t=3.1
4.707220090869749
% es.Ey (V/m) @ t=3.1
0.7048552321588608
% es.Ez (V/m) @ t=3.1
-4.700364349990819
% es.tEx (V/m) @ t=3.1
4.70722009086975
% es.tEy (V/m) @ t=3.1
0
% es.tEz (V/m) @ t=3.1
-4.700364349990732
% V (V) @ t=3.1
0.07257064256891137
% es.normE (V/m) @ t=3.2
6.9449625566216415
% es.EX (V/m) @ t=3.2
4.824018891018175
% es.EY (V/m) @ t=3.2
0.7223431745889228
% es.EZ (V/m) @ t=3.2
-4.8169932034600915
% es.tEX (V/m) @ t=3.2
4.824018891018163
% es.tEY (V/m) @ t=3.2
0
% es.tEZ (V/m) @ t=3.2
-4.816993203459976
% es.Ex (V/m) @ t=3.2
4.824018891018175
% es.Ey (V/m) @ t=3.2
0.7223431745889228
% es.Ez (V/m) @ t=3.2
-4.8169932034600915
% es.tEx (V/m) @ t=3.2
4.824018891018163
% es.tEy (V/m) @ t=3.2
0
% es.tEz (V/m) @ t=3.2
-4.816993203459976
% V (V) @ t=3.2
0.0743713828936707
% es.normE (V/m) @ t=3.3
7.104967336579684
% es.EX (V/m) @ t=3.3
4.935159349410787
% es.EY (V/m) @ t=3.3
0.738984809187623
% es.EZ (V/m) @ t=3.3
-4.92797184900539
% es.tEX (V/m) @ t=3.3
4.935159349410814
% es.tEY (V/m) @ t=3.3
0
% es.tEZ (V/m) @ t=3.3
-4.927971849005246
% es.Ex (V/m) @ t=3.3
4.935159349410787
% es.Ey (V/m) @ t=3.3
0.738984809187623
% es.Ez (V/m) @ t=3.3
-4.92797184900539
% es.tEx (V/m) @ t=3.3
4.935159349410814
% es.tEy (V/m) @ t=3.3
0
% es.tEz (V/m) @ t=3.3
-4.927971849005246
% V (V) @ t=3.3
0.07608484294669354
% es.normE (V/m) @ t=3.4
7.2556443432167175
% es.EX (V/m) @ t=3.4
5.039820674006291
% es.EY (V/m) @ t=3.4
0.7546562508345547
% es.EZ (V/m) @ t=3.4
-5.032480797059515
% es.tEX (V/m) @ t=3.4
5.039820674006307
% es.tEY (V/m) @ t=3.4
0
% es.tEZ (V/m) @ t=3.4
-5.032480797059399
% es.Ex (V/m) @ t=3.4
5.039820674006291
% es.Ey (V/m) @ t=3.4
0.7546562508345547
% es.Ez (V/m) @ t=3.4
-5.032480797059515
% es.tEx (V/m) @ t=3.4
5.039820674006307
% es.tEy (V/m) @ t=3.4
0
% es.tEz (V/m) @ t=3.4
-5.032480797059399
% V (V) @ t=3.4
0.07769841565573095
% es.normE (V/m) @ t=3.5
7.39621520401218
% es.EX (V/m) @ t=3.5
5.137462195466778
% es.EY (V/m) @ t=3.5
0.7692766138293066
% es.EZ (V/m) @ t=3.5
-5.129980157128429
% es.tEX (V/m) @ t=3.5
5.137462195466789
% es.tEY (V/m) @ t=3.5
0
% es.tEZ (V/m) @ t=3.5
-5.12998015712834
% es.Ex (V/m) @ t=3.5
5.137462195466778
% es.Ey (V/m) @ t=3.5
0.7692766138293066
% es.Ez (V/m) @ t=3.5
-5.129980157128429
% es.tEx (V/m) @ t=3.5
5.137462195466789
% es.tEy (V/m) @ t=3.5
0
% es.tEz (V/m) @ t=3.5
-5.12998015712834
% V (V) @ t=3.5
0.07920376207950061
% es.normE (V/m) @ t=3.6
7.5259015464451515
% es.EX (V/m) @ t=3.6
5.227543244454612
% es.EY (V/m) @ t=3.6
0.7827650124713519
% es.EZ (V/m) @ t=3.6
-5.219930038717303
% es.tEX (V/m) @ t=3.6
5.227543244454598
% es.tEY (V/m) @ t=3.6
0
% es.tEZ (V/m) @ t=3.6
-5.219930038717216
% es.Ex (V/m) @ t=3.6
5.227543244454612
% es.Ey (V/m) @ t=3.6
0.7827650124713519
% es.Ez (V/m) @ t=3.6
-5.219930038717303
% es.tEx (V/m) @ t=3.6
5.227543244454598
% es.tEy (V/m) @ t=3.6
0
% es.tEz (V/m) @ t=3.6
-5.219930038717216
% V (V) @ t=3.6
0.08059254327672027
% es.normE (V/m) @ t=3.7
7.643924997994877
% es.EX (V/m) @ t=3.7
5.309523151631817
% es.EY (V/m) @ t=3.7
0.795040561060183
% es.EZ (V/m) @ t=3.7
-5.301790551331914
% es.tEX (V/m) @ t=3.7
5.30952315163184
% es.tEY (V/m) @ t=3.7
0
% es.tEZ (V/m) @ t=3.7
-5.301790551331884
% es.Ex (V/m) @ t=3.7
5.309523151631817
% es.Ey (V/m) @ t=3.7
0.795040561060183
% es.Ez (V/m) @ t=3.7
-5.301790551331914
% es.tEx (V/m) @ t=3.7
5.30952315163184
% es.tEy (V/m) @ t=3.7
0
% es.tEz (V/m) @ t=3.7
-5.301790551331884
% V (V) @ t=3.7
0.0818564203061076
% es.normE (V/m) @ t=3.8
7.749507186140857
% es.EX (V/m) @ t=3.8
5.382861247660763
% es.EY (V/m) @ t=3.8
0.8060223738951784
% es.EZ (V/m) @ t=3.8
-5.375021804478068
% es.tEX (V/m) @ t=3.8
5.382861247660788
% es.tEY (V/m) @ t=3.8
0
% es.tEZ (V/m) @ t=3.8
-5.375021804477981
% es.Ex (V/m) @ t=3.8
5.382861247660763
% es.Ey (V/m) @ t=3.8
0.8060223738951784
% es.Ez (V/m) @ t=3.8
-5.375021804478068
% es.tEx (V/m) @ t=3.8
5.382861247660788
% es.tEy (V/m) @ t=3.8
0
% es.tEz (V/m) @ t=3.8
-5.375021804477981
% V (V) @ t=3.8
0.08298705422638031
% es.normE (V/m) @ t=3.9
7.841869738362171
% es.EX (V/m) @ t=3.9
5.447016863203681
% es.EY (V/m) @ t=3.9
0.815629565275775
% es.EZ (V/m) @ t=3.9
-5.439083907660985
% es.tEX (V/m) @ t=3.9
5.447016863203661
% es.tEY (V/m) @ t=3.9
0
% es.tEZ (V/m) @ t=3.9
-5.439083907660869
% es.Ex (V/m) @ t=3.9
5.447016863203681
% es.Ey (V/m) @ t=3.9
0.815629565275775
% es.Ez (V/m) @ t=3.9
-5.439083907660985
% es.tEx (V/m) @ t=3.9
5.447016863203661
% es.tEy (V/m) @ t=3.9
0
% es.tEz (V/m) @ t=3.9
-5.439083907660869
% V (V) @ t=3.9
0.08397610609625611
% es.normE (V/m) @ t=4
7.924276391217355
% es.EX (V/m) @ t=4
5.504257025175319
% es.EY (V/m) @ t=4
0.8242013975873914
% es.EZ (V/m) @ t=4
-5.496240620384615
% es.tEX (V/m) @ t=4
5.504257025175352
% es.tEY (V/m) @ t=4
0
% es.tEZ (V/m) @ t=4
-5.496240620384526
% es.Ex (V/m) @ t=4
5.504257025175319
% es.Ey (V/m) @ t=4
0.8242013975873914
% es.Ez (V/m) @ t=4
-5.496240620384615
% es.tEx (V/m) @ t=4
5.504257025175352
% es.tEy (V/m) @ t=4
0
% es.tEz (V/m) @ t=4
-5.496240620384526
% V (V) @ t=4
0.08485853538095556
% es.normE (V/m) @ t=4.1
8.001817140987189
% es.EX (V/m) @ t=4.1
5.558117301858262
% es.EY (V/m) @ t=4.1
0.8322669597422028
% es.EZ (V/m) @ t=4.1
-5.550022415387273
% es.tEX (V/m) @ t=4.1
5.55811730185826
% es.tEY (V/m) @ t=4.1
0
% es.tEZ (V/m) @ t=4.1
-5.550022415387186
% es.Ex (V/m) @ t=4.1
5.558117301858262
% es.Ey (V/m) @ t=4.1
0.8322669597422028
% es.Ez (V/m) @ t=4.1
-5.550022415387273
% es.tEx (V/m) @ t=4.1
5.55811730185826
% es.tEy (V/m) @ t=4.1
0
% es.tEz (V/m) @ t=4.1
-5.550022415387186
% V (V) @ t=4.1
0.08568886413896447
% es.normE (V/m) @ t=4.2
8.068887267108227
% es.EX (V/m) @ t=4.2
5.604704586103418
% es.EY (V/m) @ t=4.2
0.8392437019694383
% es.EZ (V/m) @ t=4.2
-5.596541795661379
% es.tEX (V/m) @ t=4.2
5.6047045861034555
% es.tEY (V/m) @ t=4.2
0
% es.tEZ (V/m) @ t=4.2
-5.596541795661349
% es.Ex (V/m) @ t=4.2
5.604704586103418
% es.Ey (V/m) @ t=4.2
0.8392437019694383
% es.Ez (V/m) @ t=4.2
-5.596541795661379
% es.tEx (V/m) @ t=4.2
5.6047045861034555
% es.tEy (V/m) @ t=4.2
0
% es.tEz (V/m) @ t=4.2
-5.596541795661349
% V (V) @ t=4.2
0.08640705438392429
% es.normE (V/m) @ t=4.3
8.125345717428479
% es.EX (V/m) @ t=4.3
5.6439208987568
% es.EY (V/m) @ t=4.3
0.8451169834245573
% es.EZ (V/m) @ t=4.3
-5.635700922922023
% es.tEX (V/m) @ t=4.3
5.643920898756868
% es.tEY (V/m) @ t=4.3
0
% es.tEZ (V/m) @ t=4.3
-5.6357009229218775
% es.Ex (V/m) @ t=4.3
5.6439208987568
% es.Ey (V/m) @ t=4.3
0.8451169834245573
% es.Ez (V/m) @ t=4.3
-5.635700922922023
% es.tEx (V/m) @ t=4.3
5.643920898756868
% es.tEy (V/m) @ t=4.3
0
% es.tEz (V/m) @ t=4.3
-5.6357009229218775
% V (V) @ t=4.3
0.087011594045341
% es.normE (V/m) @ t=4.4
8.171051439796091
% es.EX (V/m) @ t=4.4
5.675668260664315
% es.EY (V/m) @ t=4.4
0.8498721632624524
% es.EZ (V/m) @ t=4.4
-5.667401958884742
% es.tEX (V/m) @ t=4.4
5.675668260664342
% es.tEY (V/m) @ t=4.4
0
% es.tEZ (V/m) @ t=4.4
-5.66740195888471
% es.Ex (V/m) @ t=4.4
5.675668260664315
% es.Ey (V/m) @ t=4.4
0.8498721632624524
% es.Ez (V/m) @ t=4.4
-5.667401958884742
% es.tEx (V/m) @ t=4.4
5.675668260664342
% es.tEy (V/m) @ t=4.4
0
% es.tEz (V/m) @ t=4.4
-5.66740195888471
% V (V) @ t=4.4
0.08750097105272048
% es.normE (V/m) @ t=4.5
8.20586338205938
% es.EX (V/m) @ t=4.5
5.699848692671974
% es.EY (V/m) @ t=4.5
0.8534946006388466
% es.EZ (V/m) @ t=4.5
-5.691547065264945
% es.tEX (V/m) @ t=4.5
5.699848692671992
% es.tEY (V/m) @ t=4.5
0
% es.tEZ (V/m) @ t=4.5
-5.691547065264828
% es.Ex (V/m) @ t=4.5
5.699848692671974
% es.Ey (V/m) @ t=4.5
0.8534946006388466
% es.Ez (V/m) @ t=4.5
-5.691547065264945
% es.tEx (V/m) @ t=4.5
5.699848692671992
% es.tEy (V/m) @ t=4.5
0
% es.tEz (V/m) @ t=4.5
-5.691547065264828
% V (V) @ t=4.5
0.08787367333556864
% es.normE (V/m) @ t=4.6
8.22964049206614
% es.EX (V/m) @ t=4.6
5.716364215625621
% es.EY (V/m) @ t=4.6
0.8559696547085127
% es.EZ (V/m) @ t=4.6
-5.708038403777433
% es.tEX (V/m) @ t=4.6
5.716364215625685
% es.tEY (V/m) @ t=4.6
0
% es.tEZ (V/m) @ t=4.6
-5.708038403777373
% es.Ex (V/m) @ t=4.6
5.716364215625621
% es.Ey (V/m) @ t=4.6
0.8559696547085127
% es.Ez (V/m) @ t=4.6
-5.708038403777433
% es.tEx (V/m) @ t=4.6
5.716364215625685
% es.tEy (V/m) @ t=4.6
0
% es.tEz (V/m) @ t=4.6
-5.708038403777373
% V (V) @ t=4.6
0.08812818882339143
% es.normE (V/m) @ t=4.7
8.244407633230225
% es.EX (V/m) @ t=4.7
5.726621368264132
% es.EY (V/m) @ t=4.7
0.8575074721331624
% es.EZ (V/m) @ t=4.7
-5.718280485255914
% es.tEX (V/m) @ t=4.7
5.726621368264151
% es.tEY (V/m) @ t=4.7
0
% es.tEZ (V/m) @ t=4.7
-5.7182804852557965
% es.Ex (V/m) @ t=4.7
5.726621368264132
% es.Ey (V/m) @ t=4.7
0.8575074721331624
% es.Ez (V/m) @ t=4.7
-5.718280485255914
% es.tEx (V/m) @ t=4.7
5.726621368264151
% es.tEy (V/m) @ t=4.7
0
% es.tEz (V/m) @ t=4.7
-5.7182804852557965
% V (V) @ t=4.7
0.08828622581742837
% es.normE (V/m) @ t=4.8
8.256952457766598
% es.EX (V/m) @ t=4.8
5.735335082824413
% es.EY (V/m) @ t=4.8
0.8588125011219758
% es.EZ (V/m) @ t=4.8
-5.7269814449548235
% es.tEX (V/m) @ t=4.8
5.735335082824406
% es.tEY (V/m) @ t=4.8
0
% es.tEZ (V/m) @ t=4.8
-5.726981444954738
% es.Ex (V/m) @ t=4.8
5.735335082824413
% es.Ey (V/m) @ t=4.8
0.8588125011219758
% es.Ez (V/m) @ t=4.8
-5.7269814449548235
% es.tEx (V/m) @ t=4.8
5.735335082824406
% es.tEy (V/m) @ t=4.8
0
% es.tEz (V/m) @ t=4.8
-5.726981444954738
% V (V) @ t=4.8
0.08842055357819774
% es.normE (V/m) @ t=4.9
8.262142937506088
% es.EX (V/m) @ t=4.9
5.738940480130447
% es.EY (V/m) @ t=4.9
0.8593521170872909
% es.EZ (V/m) @ t=4.9
-5.730581542132665
% es.tEX (V/m) @ t=4.9
5.738940480130452
% es.tEY (V/m) @ t=4.9
0
% es.tEZ (V/m) @ t=4.9
-5.730581542132576
% es.Ex (V/m) @ t=4.9
5.738940480130447
% es.Ey (V/m) @ t=4.9
0.8593521170872909
% es.Ez (V/m) @ t=4.9
-5.730581542132665
% es.tEx (V/m) @ t=4.9
5.738940480130452
% es.tEy (V/m) @ t=4.9
0
% es.tEz (V/m) @ t=4.9
-5.730581542132576
% V (V) @ t=4.9
0.08847615272389397
% es.normE (V/m) @ t=5
8.260313078692093
% es.EX (V/m) @ t=5
5.737669572588084
% es.EY (V/m) @ t=5
0.8591609826719919
% es.EZ (V/m) @ t=5
-5.72931245437908
% es.tEX (V/m) @ t=5
5.7376695725881035
% es.tEY (V/m) @ t=5
0
% es.tEZ (V/m) @ t=5
-5.7293124543789915
% es.Ex (V/m) @ t=5
5.737669572588084
% es.Ey (V/m) @ t=5
0.8591609826719919
% es.Ez (V/m) @ t=5
-5.72931245437908
% es.tEx (V/m) @ t=5
5.7376695725881035
% es.tEy (V/m) @ t=5
0
% es.tEz (V/m) @ t=5
-5.7293124543789915
% V (V) @ t=5
0.08845660419536017
% es.normE (V/m) @ t=5.1
8.251796887567668
% es.EX (V/m) @ t=5.1
5.7317543726027775
% es.EY (V/m) @ t=5.1
0.8582737605192996
% es.EZ (V/m) @ t=5.1
-5.723405859283378
% es.tEX (V/m) @ t=5.1
5.731754372602754
% es.tEY (V/m) @ t=5.1
0
% es.tEZ (V/m) @ t=5.1
-5.7234058592832895
% es.Ex (V/m) @ t=5.1
5.7317543726027775
% es.Ey (V/m) @ t=5.1
0.8582737605192996
% es.Ez (V/m) @ t=5.1
-5.723405859283378
% es.tEx (V/m) @ t=5.1
5.731754372602754
% es.tEy (V/m) @ t=5.1
0
% es.tEz (V/m) @ t=5.1
-5.7234058592832895
% V (V) @ t=5.1
0.08836548893343958
% es.normE (V/m) @ t=5.2
8.236928370376397
% es.EX (V/m) @ t=5.2
5.721426892580231
% es.EY (V/m) @ t=5.2
0.8567251132725127
% es.EZ (V/m) @ t=5.2
-5.7130934344351125
% es.tEX (V/m) @ t=5.2
5.721426892580297
% es.tEY (V/m) @ t=5.2
0
% es.tEZ (V/m) @ t=5.2
-5.713093434434995
% es.Ex (V/m) @ t=5.2
5.721426892580231
% es.Ey (V/m) @ t=5.2
0.8567251132725127
% es.Ez (V/m) @ t=5.2
-5.7130934344351125
% es.tEx (V/m) @ t=5.2
5.721426892580297
% es.tEy (V/m) @ t=5.2
0
% es.tEz (V/m) @ t=5.2
-5.713093434434995
% V (V) @ t=5.2
0.08820638787897532
% es.normE (V/m) @ t=5.3
8.216041533362315
% es.EX (V/m) @ t=5.3
5.706919144926266
% es.EY (V/m) @ t=5.3
0.8545497035746479
% es.EZ (V/m) @ t=5.3
-5.698606857423645
% es.tEX (V/m) @ t=5.3
5.706919144926271
% es.tEY (V/m) @ t=5.3
0
% es.tEZ (V/m) @ t=5.3
-5.698606857423499
% es.Ex (V/m) @ t=5.3
5.706919144926266
% es.Ey (V/m) @ t=5.3
0.8545497035746479
% es.Ez (V/m) @ t=5.3
-5.698606857423645
% es.tEx (V/m) @ t=5.3
5.706919144926271
% es.tEy (V/m) @ t=5.3
0
% es.tEz (V/m) @ t=5.3
-5.698606857423499
% V (V) @ t=5.3
0.0879828819728106
% es.normE (V/m) @ t=5.4
8.191899300428823
% es.EX (V/m) @ t=5.4
5.690149985627244
% es.EY (V/m) @ t=5.4
0.8520370665293471
% es.EZ (V/m) @ t=5.4
-5.681862169083377