% Model:              1x1--2 - Copy1.mph
% Version:            COMSOL 6.0.0.405
% Date:               Mar 7 2023, 19:13
% Dimension:          0
% Nodes:              14017
% Expressions:        14017
% Description:        Electric field norm, Electric field, X component, Electric field, Y component, Electric field, Z component, Tangential electric field, X component, Tangential electric field, Y component, Tangential electric field, Z component, Electric field, x component, Electric field, y component, Electric field, z component, Tangential electric field, x component, Tangential electric field, y component, Tangential electric field, z component, Electric potential
% Length unit:        mm
% x
1
% y
12.2
% z
1
% es.normE (V/m) @ t=0
2.126478080889725
% es.EX (V/m) @ t=0
1.443907172993363
% es.EY (V/m) @ t=0
0.41008762853792646
% es.EZ (V/m) @ t=0
1.467072484916967
% es.tEX (V/m) @ t=0
1.4439071729933346
% es.tEY (V/m) @ t=0
0
% es.tEZ (V/m) @ t=0
1.4670724849169403
% es.Ex (V/m) @ t=0
1.443907172993363
% es.Ey (V/m) @ t=0
0.41008762853792646
% es.Ez (V/m) @ t=0
1.467072484916967
% es.tEx (V/m) @ t=0
1.4439071729933346
% es.tEy (V/m) @ t=0
0
% es.tEz (V/m) @ t=0
1.4670724849169403
% V (V) @ t=0
0.019940607961897026
% es.normE (V/m) @ t=0.1
2.2301811660460746
% es.EX (V/m) @ t=0.1
1.514322913770492
% es.EY (V/m) @ t=0.1
0.4300865786752759
% es.EZ (V/m) @ t=0.1
1.5386180392963524
% es.tEX (V/m) @ t=0.1
1.5143229137704282
% es.tEY (V/m) @ t=0.1
0
% es.tEZ (V/m) @ t=0.1
1.538618039296324
% es.Ex (V/m) @ t=0.1
1.514322913770492
% es.Ey (V/m) @ t=0.1
0.4300865786752759
% es.Ez (V/m) @ t=0.1
1.5386180392963524
% es.tEx (V/m) @ t=0.1
1.5143229137704282
% es.tEy (V/m) @ t=0.1
0
% es.tEz (V/m) @ t=0.1
1.538618039296324
% V (V) @ t=0.1
0.020913062800177195
% es.normE (V/m) @ t=0.2
2.382817908929603
% es.EX (V/m) @ t=0.2
1.61796550378061
% es.EY (V/m) @ t=0.2
0.4595218881112544
% es.EZ (V/m) @ t=0.2
1.6439232382479059
% es.tEX (V/m) @ t=0.2
1.6179655037805674
% es.tEY (V/m) @ t=0.2
0
% es.tEZ (V/m) @ t=0.2
1.6439232382478792
% es.Ex (V/m) @ t=0.2
1.61796550378061
% es.Ey (V/m) @ t=0.2
0.4595218881112544
% es.Ez (V/m) @ t=0.2
1.6439232382479059
% es.tEx (V/m) @ t=0.2
1.6179655037805674
% es.tEy (V/m) @ t=0.2
0
% es.tEz (V/m) @ t=0.2
1.6439232382478792
% V (V) @ t=0.2
0.022344413383021112
% es.normE (V/m) @ t=0.3
2.5507464102084954
% es.EX (V/m) @ t=0.3
1.731993302282433
% es.EY (V/m) @ t=0.3
0.4919027724559726
% es.EZ (V/m) @ t=0.3
1.7597781034949485
% es.tEX (V/m) @ t=0.3
1.731993302282433
% es.tEY (V/m) @ t=0.3
0
% es.tEZ (V/m) @ t=0.3
1.7597781034949378
% es.Ex (V/m) @ t=0.3
1.731993302282433
% es.Ey (V/m) @ t=0.3
0.4919027724559726
% es.Ez (V/m) @ t=0.3
1.7597781034949485
% es.tEx (V/m) @ t=0.3
1.731993302282433
% es.tEy (V/m) @ t=0.3
0
% es.tEz (V/m) @ t=0.3
1.7597781034949378
% V (V) @ t=0.3
0.023919413364819148
% es.normE (V/m) @ t=0.4
2.72080480270222
% es.EX (V/m) @ t=0.4
1.8474675970812768
% es.EY (V/m) @ t=0.4
0.5246939145659404
% es.EZ (V/m) @ t=0.4
1.877102363362816
% es.tEX (V/m) @ t=0.4
1.8474675970812484
% es.tEY (V/m) @ t=0.4
0
% es.tEZ (V/m) @ t=0.4
1.8771023633627948
% es.Ex (V/m) @ t=0.4
1.8474675970812768
% es.Ey (V/m) @ t=0.4
0.5246939145659404
% es.Ez (V/m) @ t=0.4
1.877102363362816
% es.tEx (V/m) @ t=0.4
1.8474675970812484
% es.tEy (V/m) @ t=0.4
0
% es.tEz (V/m) @ t=0.4
1.8771023633627948
% V (V) @ t=0.4
0.02551442228650843
% es.normE (V/m) @ t=0.5
2.903019943927677
% es.EX (V/m) @ t=0.5
1.971197045937629
% es.EY (V/m) @ t=0.5
0.5598285191901482
% es.EZ (V/m) @ t=0.5
2.002813556889393
% es.tEX (V/m) @ t=0.5
1.9711970459376005
% es.tEY (V/m) @ t=0.5
0
% es.tEZ (V/m) @ t=0.5
2.0028135568893504
% es.Ex (V/m) @ t=0.5
1.971197045937629
% es.Ey (V/m) @ t=0.5
0.5598285191901482
% es.Ez (V/m) @ t=0.5
2.002813556889393
% es.tEx (V/m) @ t=0.5
1.9711970459376005
% es.tEy (V/m) @ t=0.5
0
% es.tEz (V/m) @ t=0.5
2.0028135568893504
% V (V) @ t=0.5
0.027223500107450907
% es.normE (V/m) @ t=0.6
3.0893083341789267
% es.EX (V/m) @ t=0.6
2.0976924726780197
% es.EY (V/m) @ t=0.6
0.5957483260580361
% es.EZ (V/m) @ t=0.6
2.13133488246838
% es.tEX (V/m) @ t=0.6
2.097692472677977
% es.tEY (V/m) @ t=0.6
0
% es.tEZ (V/m) @ t=0.6
2.1313348824683516
% es.Ex (V/m) @ t=0.6
2.0976924726780197
% es.Ey (V/m) @ t=0.6
0.5957483260580361
% es.Ez (V/m) @ t=0.6
2.13133488246838
% es.tEx (V/m) @ t=0.6
2.097692472677977
% es.tEy (V/m) @ t=0.6
0
% es.tEz (V/m) @ t=0.6
2.1313348824683516
% V (V) @ t=0.6
0.02897079793620798
% es.normE (V/m) @ t=0.7
3.2844430839792853
% es.EX (V/m) @ t=0.7
2.2301876893196777
% es.EY (V/m) @ t=0.7
0.6333865955942812
% es.EZ (V/m) @ t=0.7
2.265960281547592
% es.tEX (V/m) @ t=0.7
2.230187689319621
% es.tEY (V/m) @ t=0.7
0
% es.tEZ (V/m) @ t=0.7
2.2659602815475637
% es.Ex (V/m) @ t=0.7
2.2301876893196777
% es.Ey (V/m) @ t=0.7
0.6333865955942812
% es.Ez (V/m) @ t=0.7
2.265960281547592
% es.tEx (V/m) @ t=0.7
2.230187689319621
% es.tEy (V/m) @ t=0.7
0
% es.tEz (V/m) @ t=0.7
2.2659602815475637
% V (V) @ t=0.7
0.030800121811831924
% es.normE (V/m) @ t=0.8
3.4849068970602612
% es.EX (V/m) @ t=0.8
2.366297190373558
% es.EY (V/m) @ t=0.8
0.672060070185907
% es.EZ (V/m) @ t=0.8
2.404262785669953
% es.tEX (V/m) @ t=0.8
2.3662971903735297
% es.tEY (V/m) @ t=0.8
0
% es.tEZ (V/m) @ t=0.8
2.4042627856699426
% es.Ex (V/m) @ t=0.8
2.366297190373558
% es.Ey (V/m) @ t=0.8
0.672060070185907
% es.Ez (V/m) @ t=0.8
2.404262785669953
% es.tEx (V/m) @ t=0.8
2.3662971903735297
% es.tEy (V/m) @ t=0.8
0
% es.tEz (V/m) @ t=0.8
2.4042627856699426
% V (V) @ t=0.8
0.03267885832814387
% es.normE (V/m) @ t=0.9
3.687111845445281
% es.EX (V/m) @ t=0.9
2.503590191801962
% es.EY (V/m) @ t=0.9
0.7110670957769969
% es.EZ (V/m) @ t=0.9
2.54376635421729
% es.tEX (V/m) @ t=0.9
2.5035901918019476
% es.tEY (V/m) @ t=0.9
0
% es.tEZ (V/m) @ t=0.9
2.5437663542172686
% es.Ex (V/m) @ t=0.9
2.503590191801962
% es.Ey (V/m) @ t=0.9
0.7110670957769969
% es.Ez (V/m) @ t=0.9
2.54376635421729
% es.tEx (V/m) @ t=0.9
2.5035901918019476
% es.tEy (V/m) @ t=0.9
0
% es.tEz (V/m) @ t=0.9
2.5437663542172686
% V (V) @ t=0.9
0.03457408760905142
% es.normE (V/m) @ t=1
3.8930572117017457
% es.EX (V/m) @ t=1
2.643425664328376
% es.EY (V/m) @ t=1
0.750790676929249
% es.EZ (V/m) @ t=1
2.685850126077206
% es.tEX (V/m) @ t=1
2.6434256643283334
% es.tEY (V/m) @ t=1
0
% es.tEZ (V/m) @ t=1
2.6858501260771845
% es.Ex (V/m) @ t=1
2.643425664328376
% es.Ey (V/m) @ t=1
0.750790676929249
% es.Ez (V/m) @ t=1
2.685850126077206
% es.tEx (V/m) @ t=1
2.6434256643283334
% es.tEy (V/m) @ t=1
0
% es.tEz (V/m) @ t=1
2.6858501260771845
% V (V) @ t=1
0.036504747700294125
% es.normE (V/m) @ t=1.1
4.101661486682808
% es.EX (V/m) @ t=1.1
2.7850684746712773
% es.EY (V/m) @ t=1.1
0.791023627869393
% es.EZ (V/m) @ t=1.1
2.8297680580284243
% es.tEX (V/m) @ t=1.1
2.7850684746712773
% es.tEY (V/m) @ t=1.1
0
% es.tEZ (V/m) @ t=1.1
2.8297680580284066
% es.Ex (V/m) @ t=1.1
2.7850684746712773
% es.Ey (V/m) @ t=1.1
0.791023627869393
% es.Ez (V/m) @ t=1.1
2.8297680580284243
% es.tEx (V/m) @ t=1.1
2.7850684746712773
% es.tEy (V/m) @ t=1.1
0
% es.tEz (V/m) @ t=1.1
2.8297680580284066
% V (V) @ t=1.1
0.03846059409294336
% es.normE (V/m) @ t=1.2
4.312924670373155
% es.EX (V/m) @ t=1.2
2.9285186228305378
% es.EY (V/m) @ t=1.2
0.8317659485974218
% es.EZ (V/m) @ t=1.2
2.9755201500709596
% es.tEX (V/m) @ t=1.2
2.9285186228303814
% es.tEY (V/m) @ t=1.2
0
% es.tEZ (V/m) @ t=1.2
2.9755201500709347
% es.Ex (V/m) @ t=1.2
2.9285186228305378
% es.Ey (V/m) @ t=1.2
0.8317659485974218
% es.Ez (V/m) @ t=1.2
2.9755201500709596
% es.tEx (V/m) @ t=1.2
2.9285186228303814
% es.tEy (V/m) @ t=1.2
0
% es.tEz (V/m) @ t=1.2
2.9755201500709347
% V (V) @ t=1.2
0.04044162678699913
% es.normE (V/m) @ t=1.3
4.525548090134027
% es.EX (V/m) @ t=1.3
3.0728939023537265
% es.EY (V/m) @ t=1.3
0.8727679037528091
% es.EZ (V/m) @ t=1.3
3.1222104807029183
% es.tEX (V/m) @ t=1.3
3.072893902353769
% es.tEY (V/m) @ t=1.3
0
% es.tEZ (V/m) @ t=1.3
3.1222104807028757
% es.Ex (V/m) @ t=1.3
3.0728939023537265
% es.Ey (V/m) @ t=1.3
0.8727679037528091
% es.Ez (V/m) @ t=1.3
3.1222104807029183
% es.tEx (V/m) @ t=1.3
3.072893902353769
% es.tEy (V/m) @ t=1.3
0
% es.tEz (V/m) @ t=1.3
3.1222104807028757
% V (V) @ t=1.3
0.04243561501743066
% es.normE (V/m) @ t=1.4
4.7354698372093615
% es.EX (V/m) @ t=1.4
3.2154350019218327
% es.EY (V/m) @ t=1.4
0.9132483863667957
% es.EZ (V/m) @ t=1.4
3.2670368415137077
% es.tEX (V/m) @ t=1.4
3.215435001921776
% es.tEY (V/m) @ t=1.4
0
% es.tEZ (V/m) @ t=1.4
3.2670368415136863
% es.Ex (V/m) @ t=1.4
3.2154350019218327
% es.Ey (V/m) @ t=1.4
0.9132483863667957
% es.Ez (V/m) @ t=1.4
3.2670368415137077
% es.tEx (V/m) @ t=1.4
3.215435001921776
% es.tEy (V/m) @ t=1.4
0
% es.tEz (V/m) @ t=1.4
3.2670368415136863
% V (V) @ t=1.4
0.044404304146330245
% es.normE (V/m) @ t=1.5
4.945733529901591
% es.EX (V/m) @ t=1.5
3.3582094939258553
% es.EY (V/m) @ t=1.5
0.9537926856718926
% es.EZ (V/m) @ t=1.5
3.4120989480025727
% es.tEX (V/m) @ t=1.5
3.358209493925756
% es.tEY (V/m) @ t=1.5
0
% es.tEZ (V/m) @ t=1.5
3.412098948002466
% es.Ex (V/m) @ t=1.5
3.3582094939258553
% es.Ey (V/m) @ t=1.5
0.9537926856718926
% es.Ez (V/m) @ t=1.5
3.4120989480025727
% es.tEx (V/m) @ t=1.5
3.358209493925756
% es.tEy (V/m) @ t=1.5
0
% es.tEz (V/m) @ t=1.5
3.412098948002466
% V (V) @ t=1.5
0.046376358656978645
% es.normE (V/m) @ t=1.6
5.156339168223429
% es.EX (V/m) @ t=1.6
3.501217378365922
% es.EY (V/m) @ t=1.6
0.9944008016675667
% es.EZ (V/m) @ t=1.6
3.557396800169581
% es.tEX (V/m) @ t=1.6
3.5012173783658227
% es.tEY (V/m) @ t=1.6
0
% es.tEZ (V/m) @ t=1.6
3.5573968001694993
% es.Ex (V/m) @ t=1.6
3.501217378365922
% es.Ey (V/m) @ t=1.6
0.9944008016675667
% es.Ez (V/m) @ t=1.6
3.557396800169581
% es.tEx (V/m) @ t=1.6
3.5012173783658227
% es.tEy (V/m) @ t=1.6
0
% es.tEz (V/m) @ t=1.6
3.5573968001694993
% V (V) @ t=1.6
0.04835177854937585
% es.normE (V/m) @ t=1.7
5.367286752190882
% es.EX (V/m) @ t=1.7
3.644458655242019
% es.EY (V/m) @ t=1.7
1.035072734354003
% es.EZ (V/m) @ t=1.7
3.702930398014864
% es.tEX (V/m) @ t=1.7
3.6444586552420333
% es.tEY (V/m) @ t=1.7
0
% es.tEZ (V/m) @ t=1.7
3.7029303980148427
% es.Ex (V/m) @ t=1.7
3.644458655242019
% es.Ey (V/m) @ t=1.7
1.035072734354003
% es.Ez (V/m) @ t=1.7
3.702930398014864
% es.tEx (V/m) @ t=1.7
3.6444586552420333
% es.tEy (V/m) @ t=1.7
0
% es.tEz (V/m) @ t=1.7
3.7029303980148427
% V (V) @ t=1.7
0.05033056382352187
% es.normE (V/m) @ t=1.8
5.567285708788987
% es.EX (V/m) @ t=1.8
3.780261963433148
% es.EY (V/m) @ t=1.8
1.0736398480230918
% es.EZ (V/m) @ t=1.8
3.8409109282456555
% es.tEX (V/m) @ t=1.8
3.7802619634330767
% es.tEY (V/m) @ t=1.8
0
% es.tEZ (V/m) @ t=1.8
3.840910928245563
% es.Ex (V/m) @ t=1.8
3.780261963433148
% es.Ey (V/m) @ t=1.8
1.0736398480230918
% es.Ez (V/m) @ t=1.8
3.8409109282456555
% es.tEx (V/m) @ t=1.8
3.7802619634330767
% es.tEy (V/m) @ t=1.8
0
% es.tEz (V/m) @ t=1.8
3.840910928245563
% V (V) @ t=1.8
0.05220618808098644
% es.normE (V/m) @ t=1.9
5.7633144127980795
% es.EX (V/m) @ t=1.9
3.91336874812923
% es.EY (V/m) @ t=1.9
1.1114425133324417
% es.EZ (V/m) @ t=1.9
3.976152429823536
% es.tEX (V/m) @ t=1.9
3.913368748129301
% es.tEY (V/m) @ t=1.9
0
% es.tEZ (V/m) @ t=1.9
3.976152429823486
% es.Ex (V/m) @ t=1.9
3.91336874812923
% es.Ey (V/m) @ t=1.9
1.1114425133324417
% es.Ez (V/m) @ t=1.9
3.976152429823536
% es.tEx (V/m) @ t=1.9
3.913368748129301
% es.tEy (V/m) @ t=1.9
0
% es.tEz (V/m) @ t=1.9
3.976152429823486
% V (V) @ t=1.9
0.05404449219036128
% es.normE (V/m) @ t=2
5.955379896671463
% es.EX (V/m) @ t=2
4.043783787520397
% es.EY (V/m) @ t=2
1.1484820810399583
% es.EZ (V/m) @ t=2
4.108659754094319
% es.tEX (V/m) @ t=2
4.043783787520397
% es.tEY (V/m) @ t=2
0
% es.tEZ (V/m) @ t=2
4.108659754094219
% es.Ex (V/m) @ t=2
4.043783787520397
% es.Ey (V/m) @ t=2
1.1484820810399583
% es.Ez (V/m) @ t=2
4.108659754094319
% es.tEx (V/m) @ t=2
4.043783787520397
% es.tEy (V/m) @ t=2
0
% es.tEz (V/m) @ t=2
4.108659754094219
% V (V) @ t=2
0.05584554250275368
% es.normE (V/m) @ t=2.1
6.143482160408883
% es.EX (V/m) @ t=2.1
4.171507081606265
% es.EY (V/m) @ t=2.1
1.1847585511451229
% es.EZ (V/m) @ t=2.1
4.2384329010579265
% es.tEX (V/m) @ t=2.1
4.171507081606137
% es.tEY (V/m) @ t=2.1
0
% es.tEZ (V/m) @ t=2.1
4.238432901057848
% es.Ex (V/m) @ t=2.1
4.171507081606265
% es.Ey (V/m) @ t=2.1
1.1847585511451229
% es.Ez (V/m) @ t=2.1
4.2384329010579265
% es.tEx (V/m) @ t=2.1
4.171507081606137
% es.tEy (V/m) @ t=2.1
0
% es.tEz (V/m) @ t=2.1
4.238432901057848
% V (V) @ t=2.1
0.05760933901816365
% es.normE (V/m) @ t=2.2
6.322381038624905
% es.EX (V/m) @ t=2.2
4.292980360751898
% es.EY (V/m) @ t=2.2
1.2192615688688733
% es.EZ (V/m) @ t=2.2
4.361856671136515
% es.tEX (V/m) @ t=2.2
4.292980360751812
% es.tEY (V/m) @ t=2.2
0
% es.tEZ (V/m) @ t=2.2
4.361856671136451
% es.Ex (V/m) @ t=2.2
4.292980360751898
% es.Ey (V/m) @ t=2.2
1.2192615688688733
% es.Ez (V/m) @ t=2.2
4.361856671136515
% es.tEx (V/m) @ t=2.2
4.292980360751812
% es.tEy (V/m) @ t=2.2
0
% es.tEz (V/m) @ t=2.2
4.361856671136451
% V (V) @ t=2.2
0.059286727108300546
% es.normE (V/m) @ t=2.3
6.493116336764922
% es.EX (V/m) @ t=2.3
4.408909692010269
% es.EY (V/m) @ t=2.3
1.252191618798804
% es.EZ (V/m) @ t=2.3
4.47964842798504
% es.tEX (V/m) @ t=2.3
4.408909692010184
% es.tEY (V/m) @ t=2.3
0
% es.tEZ (V/m) @ t=2.3
4.4796484279849835
% es.Ex (V/m) @ t=2.3
4.408909692010269
% es.Ey (V/m) @ t=2.3
1.252191618798804
% es.Ez (V/m) @ t=2.3
4.47964842798504
% es.tEx (V/m) @ t=2.3
4.408909692010184
% es.tEy (V/m) @ t=2.3
0
% es.tEz (V/m) @ t=2.3
4.4796484279849835
% V (V) @ t=2.3
0.060887460520652734
% es.normE (V/m) @ t=2.4
6.6570906125702205
% es.EX (V/m) @ t=2.4
4.520247464902724
% es.EY (V/m) @ t=2.4
1.2838191276886306
% es.EZ (V/m) @ t=2.4
4.592775798723096
% es.tEX (V/m) @ t=2.4
4.520247464902695
% es.tEY (V/m) @ t=2.4
0
% es.tEZ (V/m) @ t=2.4
4.592775798723039
% es.Ex (V/m) @ t=2.4
4.520247464902724
% es.Ey (V/m) @ t=2.4
1.2838191276886306
% es.Ez (V/m) @ t=2.4
4.592775798723096
% es.tEx (V/m) @ t=2.4
4.520247464902695
% es.tEy (V/m) @ t=2.4
0
% es.tEz (V/m) @ t=2.4
4.592775798723039
% V (V) @ t=2.4
0.06242469574917673
% es.normE (V/m) @ t=2.5
6.814303866047169
% es.EX (V/m) @ t=2.5
4.6269936794301145
% es.EY (V/m) @ t=2.5
1.3141440955381967
% es.EZ (V/m) @ t=2.5
4.701238783350895
% es.tEX (V/m) @ t=2.5
4.626993679430029
% es.tEY (V/m) @ t=2.5
0
% es.tEZ (V/m) @ t=2.5
4.701238783350817
% es.Ex (V/m) @ t=2.5
4.6269936794301145
% es.Ey (V/m) @ t=2.5
1.3141440955381967
% es.Ez (V/m) @ t=2.5
4.701238783350895
% es.tEx (V/m) @ t=2.5
4.626993679430029
% es.tEy (V/m) @ t=2.5
0
% es.tEz (V/m) @ t=2.5
4.701238783350817
% V (V) @ t=2.5
0.06389843279387256
% es.normE (V/m) @ t=2.6
6.964554854475972
% es.EX (V/m) @ t=2.6
4.729013774454131
% es.EY (V/m) @ t=2.6
1.3431240211094604
% es.EZ (V/m) @ t=2.6
4.804898265667923
% es.tEX (V/m) @ t=2.6
4.729013774454074
% es.tEY (V/m) @ t=2.6
0
% es.tEZ (V/m) @ t=2.6
4.804898265667845
% es.Ex (V/m) @ t=2.6
4.729013774454131
% es.Ey (V/m) @ t=2.6
1.3431240211094604
% es.Ez (V/m) @ t=2.6
4.804898265667923
% es.tEx (V/m) @ t=2.6
4.729013774454074
% es.tEy (V/m) @ t=2.6
0
% es.tEz (V/m) @ t=2.6
4.804898265667845
% V (V) @ t=2.6
0.06530706025611968
% es.normE (V/m) @ t=2.7
7.107634558311429
% es.EX (V/m) @ t=2.7
4.82616798886383
% es.EY (V/m) @ t=2.7
1.370714760748939
% es.EZ (V/m) @ t=2.7
4.90360975347361
% es.tEX (V/m) @ t=2.7
4.8261679888637445
% es.tEY (V/m) @ t=2.7
0
% es.tEZ (V/m) @ t=2.7
4.903609753473546
% es.Ex (V/m) @ t=2.7
4.82616798886383
% es.Ey (V/m) @ t=2.7
1.370714760748939
% es.Ez (V/m) @ t=2.7
4.90360975347361
% es.tEx (V/m) @ t=2.7
4.8261679888637445
% es.tEy (V/m) @ t=2.7
0
% es.tEz (V/m) @ t=2.7
4.903609753473546
% V (V) @ t=2.7
0.06664890446648224
% es.normE (V/m) @ t=2.8
7.243627978157743
% es.EX (V/m) @ t=2.8
4.918513158387668
% es.EY (V/m) @ t=2.8
1.396934266065287
% es.EZ (V/m) @ t=2.8
4.997432006458375
% es.tEX (V/m) @ t=2.8
4.9185131583875545
% es.tEY (V/m) @ t=2.8
0
% es.tEZ (V/m) @ t=2.8
4.997432006458325
% es.Ex (V/m) @ t=2.8
4.918513158387668
% es.Ey (V/m) @ t=2.8
1.396934266065287
% es.Ez (V/m) @ t=2.8
4.997432006458375
% es.tEx (V/m) @ t=2.8
4.9185131583875545
% es.tEy (V/m) @ t=2.8
0
% es.tEz (V/m) @ t=2.8
4.997432006458325
% V (V) @ t=2.8
0.06792464604507524
% es.normE (V/m) @ t=2.9
7.372478539898051
% es.EX (V/m) @ t=2.9
5.006011454668283
% es.EY (V/m) @ t=2.9
1.421770588941996
% es.EZ (V/m) @ t=2.9
5.086325915726476
% es.tEX (V/m) @ t=2.9
5.006011454668169
% es.tEY (V/m) @ t=2.9
0
% es.tEZ (V/m) @ t=2.9
5.086325915726434
% es.Ex (V/m) @ t=2.9
5.006011454668283
% es.Ey (V/m) @ t=2.9
1.421770588941996
% es.Ez (V/m) @ t=2.9
5.086325915726476
% es.tEx (V/m) @ t=2.9
5.006011454668169
% es.tEy (V/m) @ t=2.9
0
% es.tEz (V/m) @ t=2.9
5.086325915726434
% V (V) @ t=2.9
0.06913383198915084
% es.normE (V/m) @ t=3
7.494714857331633
% es.EX (V/m) @ t=3
5.089020337564875
% es.EY (V/m) @ t=3
1.4453282902272093
% es.EZ (V/m) @ t=3
5.170656369268045
% es.tEX (V/m) @ t=3
5.089020337564875
% es.tEY (V/m) @ t=3
0
% es.tEZ (V/m) @ t=3
5.170656369267988
% es.Ex (V/m) @ t=3
5.089020337564875
% es.Ey (V/m) @ t=3
1.4453282902272093
% es.Ez (V/m) @ t=3
5.170656369268045
% es.tEx (V/m) @ t=3
5.089020337564875
% es.tEy (V/m) @ t=3
0
% es.tEz (V/m) @ t=3
5.170656369267988
% V (V) @ t=3
0.07028122385773512
% es.normE (V/m) @ t=3.1
7.612517029173391
% es.EX (V/m) @ t=3.1
5.169012827548613
% es.EY (V/m) @ t=3.1
1.4680407359412442
% es.EZ (V/m) @ t=3.1
5.251928392804686
% es.tEX (V/m) @ t=3.1
5.169012827548613
% es.tEY (V/m) @ t=3.1
0
% es.tEZ (V/m) @ t=3.1
5.251928392804587
% es.Ex (V/m) @ t=3.1
5.169012827548613
% es.Ey (V/m) @ t=3.1
1.4680407359412442
% es.Ez (V/m) @ t=3.1
5.251928392804686
% es.tEx (V/m) @ t=3.1
5.169012827548613
% es.tEy (V/m) @ t=3.1
0
% es.tEz (V/m) @ t=3.1
5.251928392804587
% V (V) @ t=3.1
0.07138629945851707
% es.normE (V/m) @ t=3.2
7.7249730631646125
% es.EX (V/m) @ t=3.2
5.245373270403775
% es.EY (V/m) @ t=3.2
1.4897256670692798
% es.EZ (V/m) @ t=3.2
5.329512321396386
% es.tEX (V/m) @ t=3.2
5.245373270403661
% es.tEY (V/m) @ t=3.2
0
% es.tEZ (V/m) @ t=3.2
5.329512321396294
% es.Ex (V/m) @ t=3.2
5.245373270403775
% es.Ey (V/m) @ t=3.2
1.4897256670692798
% es.Ez (V/m) @ t=3.2
5.329512321396386
% es.tEx (V/m) @ t=3.2
5.245373270403661
% es.tEy (V/m) @ t=3.2
0
% es.tEz (V/m) @ t=3.2
5.329512321396294
% V (V) @ t=3.2
0.07244098322758755
% es.normE (V/m) @ t=3.3
7.832383961439547
% es.EX (V/m) @ t=3.3
5.31830537676197
% es.EY (V/m) @ t=3.3
1.5104423277448547
% es.EZ (V/m) @ t=3.3
5.403615906527271
% es.tEX (V/m) @ t=3.3
5.318305376761941
% es.tEY (V/m) @ t=3.3
0
% es.tEZ (V/m) @ t=3.3
5.403615906527193
% es.Ex (V/m) @ t=3.3
5.31830537676197
% es.Ey (V/m) @ t=3.3
1.5104423277448547
% es.Ez (V/m) @ t=3.3
5.403615906527271
% es.tEx (V/m) @ t=3.3
5.318305376761941
% es.tEy (V/m) @ t=3.3
0
% es.tEz (V/m) @ t=3.3
5.403615906527193
% V (V) @ t=3.3
0.07344800849542488
% es.normE (V/m) @ t=3.4
7.9350507261504415
% es.EX (V/m) @ t=3.4
5.388012857255177
% es.EY (V/m) @ t=3.4
1.53024996210155
% es.EZ (V/m) @ t=3.4
5.474446899681347
% es.tEX (V/m) @ t=3.4
5.388012857255035
% es.tEY (V/m) @ t=3.4
0
% es.tEZ (V/m) @ t=3.4
5.474446899681254
% es.Ex (V/m) @ t=3.4
5.388012857255177
% es.Ey (V/m) @ t=3.4
1.53024996210155
% es.Ez (V/m) @ t=3.4
5.474446899681347
% es.tEx (V/m) @ t=3.4
5.388012857255035
% es.tEy (V/m) @ t=3.4
0
% es.tEz (V/m) @ t=3.4
5.474446899681254
% V (V) @ t=3.4
0.07441010859250752
% es.normE (V/m) @ t=3.5
8.035152205048922
% es.EX (V/m) @ t=3.5
5.455982433262363
% es.EY (V/m) @ t=3.5
1.549555901029649
% es.EZ (V/m) @ t=3.5
5.54350754579648
% es.tEX (V/m) @ t=3.5
5.455982433262079
% es.tEY (V/m) @ t=3.5
0
% es.tEZ (V/m) @ t=3.5
5.5435075457964444
% es.Ex (V/m) @ t=3.5
5.455982433262363
% es.Ey (V/m) @ t=3.5
1.549555901029649
% es.Ez (V/m) @ t=3.5
5.54350754579648
% es.tEx (V/m) @ t=3.5
5.455982433262079
% es.tEy (V/m) @ t=3.5
0
% es.tEz (V/m) @ t=3.5
5.5435075457964444
% V (V) @ t=3.5
0.07534867488614122
% es.normE (V/m) @ t=3.6
8.132298915682025
% es.EX (V/m) @ t=3.6
5.521946051845134
% es.EY (V/m) @ t=3.6
1.5682913970210421
% es.EZ (V/m) @ t=3.6
5.610529610590369
% es.tEX (V/m) @ t=3.6
5.521946051844907
% es.tEY (V/m) @ t=3.6
0
% es.tEZ (V/m) @ t=3.6
5.61052961059022
% es.Ex (V/m) @ t=3.6
5.521946051845134
% es.Ey (V/m) @ t=3.6
1.5682913970210421
% es.Ez (V/m) @ t=3.6
5.610529610590369
% es.tEx (V/m) @ t=3.6
5.521946051844907
% es.tEy (V/m) @ t=3.6
0
% es.tEz (V/m) @ t=3.6
5.61052961059022
% V (V) @ t=3.6
0.07625958013912087
% es.normE (V/m) @ t=3.7
8.22701723842884
% es.EX (V/m) @ t=3.7
5.586261410043846
% es.EY (V/m) @ t=3.7
1.5865574714360093
% es.EZ (V/m) @ t=3.7
5.675876210106985
% es.tEX (V/m) @ t=3.7
5.586261410043676
% es.tEY (V/m) @ t=3.7
0
% es.tEZ (V/m) @ t=3.7
5.675876210106935
% es.Ex (V/m) @ t=3.7
5.586261410043846
% es.Ey (V/m) @ t=3.7
1.5865574714360093
% es.Ez (V/m) @ t=3.7
5.675876210106985
% es.tEx (V/m) @ t=3.7
5.586261410043676
% es.tEy (V/m) @ t=3.7
0
% es.tEz (V/m) @ t=3.7
5.675876210106935
% V (V) @ t=3.7
0.07714779701165904
% es.normE (V/m) @ t=3.8
8.319834234231916
% es.EX (V/m) @ t=3.8
5.649286669885157
% es.EY (V/m) @ t=3.8
1.604455271785426
% es.EZ (V/m) @ t=3.8
5.739910929535327
% es.tEX (V/m) @ t=3.8
5.649286669884873
% es.tEY (V/m) @ t=3.8
0
% es.tEZ (V/m) @ t=3.8
5.739910929535142
% es.Ex (V/m) @ t=3.8
5.649286669885157
% es.Ey (V/m) @ t=3.8
1.604455271785426
% es.Ez (V/m) @ t=3.8
5.739910929535327
% es.tEx (V/m) @ t=3.8
5.649286669884873
% es.tEy (V/m) @ t=3.8
0
% es.tEz (V/m) @ t=3.8
5.739910929535142
% V (V) @ t=3.8
0.07801830492593059
% es.normE (V/m) @ t=3.9
8.410815475144318
% es.EX (V/m) @ t=3.9
5.711064256774051
% es.EY (V/m) @ t=3.9
1.6220011288324372
% es.EZ (V/m) @ t=3.9
5.8026793008267035
% es.tEX (V/m) @ t=3.9
5.71106425677408
% es.tEY (V/m) @ t=3.9
0
% es.tEZ (V/m) @ t=3.9
5.8026793008266395
% es.Ex (V/m) @ t=3.9
5.711064256774051
% es.Ey (V/m) @ t=3.9
1.6220011288324372
% es.Ez (V/m) @ t=3.9
5.8026793008267035
% es.tEx (V/m) @ t=3.9
5.71106425677408
% es.tEy (V/m) @ t=3.9
0
% es.tEz (V/m) @ t=3.9
5.8026793008266395
% V (V) @ t=3.9
0.0788714430496758
% es.normE (V/m) @ t=4
8.500440120911218
% es.EX (V/m) @ t=4
5.771919560198484
% es.EY (V/m) @ t=4
1.6392873863580064
% es.EZ (V/m) @ t=4
5.864511896173958
% es.tEX (V/m) @ t=4
5.771919560198626
% es.tEY (V/m) @ t=4
0
% es.tEZ (V/m) @ t=4
5.8645118961738945
% es.Ex (V/m) @ t=4
5.771919560198484
% es.Ey (V/m) @ t=4
1.6392873863580064
% es.Ez (V/m) @ t=4
5.864511896173958
% es.tEx (V/m) @ t=4
5.771919560198626
% es.tEy (V/m) @ t=4
0
% es.tEz (V/m) @ t=4
5.8645118961738945
% V (V) @ t=4
0.07971170916022573
% es.normE (V/m) @ t=4.1
8.589265357910076
% es.EX (V/m) @ t=4.1
5.832231353086655
% es.EY (V/m) @ t=4.1
1.656420728607614
% es.EZ (V/m) @ t=4.1
5.925793062894883
% es.tEX (V/m) @ t=4.1
5.832231353086513
% es.tEY (V/m) @ t=4.1
0
% es.tEZ (V/m) @ t=4.1
5.9257930628947975
% es.Ex (V/m) @ t=4.1
5.832231353086655
% es.Ey (V/m) @ t=4.1
1.656420728607614
% es.Ez (V/m) @ t=4.1
5.925793062894883
% es.tEx (V/m) @ t=4.1
5.832231353086513
% es.tEy (V/m) @ t=4.1
0
% es.tEz (V/m) @ t=4.1
5.9257930628947975
% V (V) @ t=4.1
0.08054438558993089
% es.normE (V/m) @ t=4.2
8.677738362984861
% es.EX (V/m) @ t=4.2
5.892303143198319
% es.EY (V/m) @ t=4.2
1.6734876212455845
% es.EZ (V/m) @ t=4.2
5.986831330904842
% es.tEX (V/m) @ t=4.2
5.892303143198433
% es.tEY (V/m) @ t=4.2
0
% es.tEZ (V/m) @ t=4.2
5.986831330904806
% es.Ex (V/m) @ t=4.2
5.892303143198319
% es.Ey (V/m) @ t=4.2
1.6734876212455845
% es.Ez (V/m) @ t=4.2
5.986831330904842
% es.tEx (V/m) @ t=4.2
5.892303143198433
% es.tEy (V/m) @ t=4.2
0
% es.tEz (V/m) @ t=4.2
5.986831330904806
% V (V) @ t=4.2
0.0813736485291629
% es.normE (V/m) @ t=4.3
8.764606040265399
% es.EX (V/m) @ t=4.3
5.951284789420583
% es.EY (V/m) @ t=4.3
1.690245124986177
% es.EZ (V/m) @ t=4.3
6.04676208065041
% es.tEX (V/m) @ t=4.3
5.951284789420356
% es.tEY (V/m) @ t=4.3
0
% es.tEZ (V/m) @ t=4.3
6.046762080650296
% es.Ex (V/m) @ t=4.3
5.951284789420583
% es.Ey (V/m) @ t=4.3
1.690245124986177
% es.Ez (V/m) @ t=4.3
6.04676208065041
% es.tEx (V/m) @ t=4.3
5.951284789420356
% es.tEy (V/m) @ t=4.3
0
% es.tEz (V/m) @ t=4.3
6.046762080650296
% V (V) @ t=4.3
0.08218784324058234
% es.normE (V/m) @ t=4.4
8.84855213990664
% es.EX (V/m) @ t=4.4
6.008283300157075
% es.EY (V/m) @ t=4.4
1.7064380653131792
% es.EZ (V/m) @ t=4.4
6.104677117777861
% es.tEX (V/m) @ t=4.4
6.008283300157018
% es.tEY (V/m) @ t=4.4
0
% es.tEZ (V/m) @ t=4.4
6.104677117777783
% es.Ex (V/m) @ t=4.4
6.008283300157075
% es.Ey (V/m) @ t=4.4
1.7064380653131792
% es.Ez (V/m) @ t=4.4
6.104677117777861
% es.tEx (V/m) @ t=4.4
6.008283300157018
% es.tEy (V/m) @ t=4.4
0
% es.tEz (V/m) @ t=4.4
6.104677117777783
% V (V) @ t=4.4
0.0829747269718196
% es.normE (V/m) @ t=4.5
8.930741033179228
% es.EX (V/m) @ t=4.5
6.06408880542611
% es.EY (V/m) @ t=4.5
1.7222918546555945
% es.EZ (V/m) @ t=4.5
6.16137982003324
% es.tEX (V/m) @ t=4.5
6.064088805426081
% es.tEY (V/m) @ t=4.5
0
% es.tEZ (V/m) @ t=4.5
6.161379820033176
% es.Ex (V/m) @ t=4.5
6.06408880542611
% es.Ey (V/m) @ t=4.5
1.7222918546555945
% es.Ez (V/m) @ t=4.5
6.16137982003324
% es.tEx (V/m) @ t=4.5
6.064088805426081
% es.tEy (V/m) @ t=4.5
0
% es.tEz (V/m) @ t=4.5
6.161379820033176
% V (V) @ t=4.5
0.08374515357917511
% es.normE (V/m) @ t=4.6
9.011142207917896
% es.EX (V/m) @ t=4.6
6.118680697110307
% es.EY (V/m) @ t=4.6
1.7378004128634643
% es.EZ (V/m) @ t=4.6
6.21684912279261
% es.tEX (V/m) @ t=4.6
6.118680697110335
% es.tEY (V/m) @ t=4.6
0
% es.tEZ (V/m) @ t=4.6
6.216849122792553
% es.Ex (V/m) @ t=4.6
6.118680697110307
% es.Ey (V/m) @ t=4.6
1.7378004128634643
% es.Ez (V/m) @ t=4.6
6.21684912279261
% es.tEx (V/m) @ t=4.6
6.118680697110335
% es.tEy (V/m) @ t=4.6
0
% es.tEz (V/m) @ t=4.6
6.216849122792553
% V (V) @ t=4.6
0.08449885157821779
% es.normE (V/m) @ t=4.7
9.089725151956646
% es.EX (V/m) @ t=4.7
6.172038367092654
% es.EY (V/m) @ t=4.7
1.7529576597863041
% es.EZ (V/m) @ t=4.7
6.2710639614315085
% es.tEX (V/m) @ t=4.7
6.172038367092455
% es.tEY (V/m) @ t=4.7
0
% es.tEZ (V/m) @ t=4.7
6.271063961431423
% es.Ex (V/m) @ t=4.7
6.172038367092654
% es.Ey (V/m) @ t=4.7
1.7529576597863041
% es.Ez (V/m) @ t=4.7
6.2710639614315085
% es.tEx (V/m) @ t=4.7
6.172038367092455
% es.tEy (V/m) @ t=4.7
0
% es.tEz (V/m) @ t=4.7
6.271063961431423
% V (V) @ t=4.7
0.08523554948451653
% es.normE (V/m) @ t=4.8
9.166459353129452
% es.EX (V/m) @ t=4.8
6.224141207255798
% es.EY (V/m) @ t=4.8
1.7677575152736722
% es.EZ (V/m) @ t=4.8
6.324003271325871
% es.tEX (V/m) @ t=4.8
6.22414120725557
% es.tEY (V/m) @ t=4.8
0
% es.tEZ (V/m) @ t=4.8
6.324003271325751
% es.Ex (V/m) @ t=4.8
6.224141207255798
% es.Ey (V/m) @ t=4.8
1.7677575152736722
% es.Ez (V/m) @ t=4.8
6.324003271325871
% es.tEx (V/m) @ t=4.8
6.22414120725557
% es.tEy (V/m) @ t=4.8
0
% es.tEz (V/m) @ t=4.8
6.324003271325751
% V (V) @ t=4.8
0.08595497581364023
% es.normE (V/m) @ t=4.9
9.241314299270798
% es.EX (V/m) @ t=4.9
6.2749686094828405
% es.EY (V/m) @ t=4.9
1.7821938991747004
% es.EZ (V/m) @ t=4.9
6.3756459878518115
% es.tEX (V/m) @ t=4.9
6.274968609482698
% es.tEY (V/m) @ t=4.9
0
% es.tEZ (V/m) @ t=4.9
6.375645987851726
% es.Ex (V/m) @ t=4.9
6.2749686094828405
% es.Ey (V/m) @ t=4.9
1.7821938991747004
% es.Ez (V/m) @ t=4.9
6.3756459878518115
% es.tEx (V/m) @ t=4.9
6.274968609482698
% es.tEy (V/m) @ t=4.9
0
% es.tEz (V/m) @ t=4.9
6.375645987851726
% V (V) @ t=4.9
0.0866568590811577
% es.normE (V/m) @ t=5
9.314259478214506
% es.EX (V/m) @ t=5
6.324499965655406
% es.EY (V/m) @ t=5
1.7962607313403396
% es.EZ (V/m) @ t=5
6.42597104638449
% es.tEX (V/m) @ t=5
6.324499965655264
% es.tEY (V/m) @ t=5
0
% es.tEZ (V/m) @ t=5
6.425971046384348
% es.Ex (V/m) @ t=5
6.324499965655406
% es.Ey (V/m) @ t=5
1.7962607313403396
% es.Ez (V/m) @ t=5
6.42597104638449
% es.tEx (V/m) @ t=5
6.324499965655264
% es.tEy (V/m) @ t=5
0
% es.tEz (V/m) @ t=5
6.425971046384348
% V (V) @ t=5
0.08734092780263783
% es.normE (V/m) @ t=5.1
9.385264377797487
% es.EX (V/m) @ t=5.1
6.372714667657618
% es.EY (V/m) @ t=5.1
1.8099519316197643
% es.EZ (V/m) @ t=5.1
6.474957382300111
% es.tEX (V/m) @ t=5.1
6.372714667657533
% es.tEY (V/m) @ t=5.1
0
% es.tEZ (V/m) @ t=5.1
6.474957382299976
% es.Ex (V/m) @ t=5.1
6.372714667657618
% es.Ey (V/m) @ t=5.1
1.8099519316197643
% es.Ez (V/m) @ t=5.1
6.474957382300111
% es.tEx (V/m) @ t=5.1
6.372714667657533
% es.tEy (V/m) @ t=5.1
0
% es.tEz (V/m) @ t=5.1
6.474957382299976
% V (V) @ t=5.1
0.08800691049364953
% es.normE (V/m) @ t=5.2
9.448512983639434
% es.EX (V/m) @ t=5.2
6.415661574269649
% es.EY (V/m) @ t=5.2
1.8221493592310622
% es.EZ (V/m) @ t=5.2
6.518592776299634
% es.tEX (V/m) @ t=5.2
6.41566157426962
% es.tEY (V/m) @ t=5.2
0
% es.tEZ (V/m) @ t=5.2
6.518592776299499
% es.Ex (V/m) @ t=5.2
6.415661574269649
% es.Ey (V/m) @ t=5.2
1.8221493592310622
% es.Ez (V/m) @ t=5.2
6.518592776299634
% es.tEx (V/m) @ t=5.2
6.41566157426962
% es.tEy (V/m) @ t=5.2
0
% es.tEz (V/m) @ t=5.2
6.518592776299499
% V (V) @ t=5.2
0.0886000093349866
% es.normE (V/m) @ t=5.3
9.508647534908166
% es.EX (V/m) @ t=5.3
6.4564942100244025
% es.EY (V/m) @ t=5.3
1.8337458604544992
% es.EZ (V/m) @ t=5.3
6.560079737080031
% es.tEX (V/m) @ t=5.3
6.456494210024175
% es.tEY (V/m) @ t=5.3
0
% es.tEZ (V/m) @ t=5.3
6.5600797370799455
% es.Ex (V/m) @ t=5.3
6.4564942100244025
% es.Ey (V/m) @ t=5.3
1.8337458604544992
% es.Ez (V/m) @ t=5.3
6.560079737080031
% es.tEx (V/m) @ t=5.3
6.456494210024175
% es.tEy (V/m) @ t=5.3
0
% es.tEz (V/m) @ t=5.3
6.5600797370799455
% V (V) @ t=5.3
0.08916393561043331
% es.normE (V/m) @ t=5.4
9.56566923970825
% es.EX (V/m) @ t=5.4
6.495213395639809
% es.EY (V/m) @ t=5.4
1.8447416675757893
% es.EZ (V/m) @ t=5.4
6.599419098062732
% es.tEX (V/m) @ t=5.4
6.495213395639553
% es.tEY (V/m) @ t=5.4
0
% es.tEZ (V/m) @ t=5.4
6.59941909806264
% es.Ex (V/m) @ t=5.4
6.495213395639809
% es.Ey (V/m) @ t=5.4
1.8447416675757893
% es.Ez (V/m) @ t=5.4
6.599419098062732
% es.tEx (V/m) @ t=5.4
6.495213395639553
% es.tEy (V/m) @ t=5.4
0
% es.tEz (V/m) @ t=5.4