% Model:              1x1--2 - Copy1.mph
% Version:            COMSOL 6.0.0.405
% Date:               Mar 7 2023, 19:22
% Dimension:          0
% Nodes:              14017
% Expressions:        14017
% Description:        Electric field norm, Electric field, X component, Electric field, Y component, Electric field, Z component, Tangential electric field, X component, Tangential electric field, Y component, Tangential electric field, Z component, Electric field, x component, Electric field, y component, Electric field, z component, Tangential electric field, x component, Tangential electric field, y component, Tangential electric field, z component, Electric potential
% Length unit:        mm
% x
1.33
% y
12.2
% z
2
% es.normE (V/m) @ t=0
3.215459621802522
% es.EX (V/m) @ t=0
1.281483444734151
% es.EY (V/m) @ t=0
0.3388009953112192
% es.EZ (V/m) @ t=0
-2.926937925369236
% es.tEX (V/m) @ t=0
1.2814834447341514
% es.tEY (V/m) @ t=0
0
% es.tEZ (V/m) @ t=0
-2.926937925369245
% es.Ex (V/m) @ t=0
1.281483444734151
% es.Ey (V/m) @ t=0
0.3388009953112192
% es.Ez (V/m) @ t=0
-2.926937925369236
% es.tEx (V/m) @ t=0
1.2814834447341514
% es.tEy (V/m) @ t=0
0
% es.tEz (V/m) @ t=0
-2.926937925369245
% V (V) @ t=0
0.01607757489605886
% es.normE (V/m) @ t=0.1
3.341337471787326
% es.EX (V/m) @ t=0.1
1.33165083490537
% es.EY (V/m) @ t=0.1
0.3520642836650243
% es.EZ (V/m) @ t=0.1
-3.0415207007317644
% es.tEX (V/m) @ t=0.1
1.3316508349053704
% es.tEY (V/m) @ t=0.1
0
% es.tEZ (V/m) @ t=0.1
-3.041520700731766
% es.Ex (V/m) @ t=0.1
1.33165083490537
% es.Ey (V/m) @ t=0.1
0.3520642836650243
% es.Ez (V/m) @ t=0.1
-3.0415207007317644
% es.tEx (V/m) @ t=0.1
1.3316508349053704
% es.tEy (V/m) @ t=0.1
0
% es.tEz (V/m) @ t=0.1
-3.041520700731766
% V (V) @ t=0.1
0.016706974329884834
% es.normE (V/m) @ t=0.2
3.552371740818829
% es.EX (V/m) @ t=0.2
1.4157560141765884
% es.EY (V/m) @ t=0.2
0.3743001234247103
% es.EZ (V/m) @ t=0.2
-3.2336189824592996
% es.tEX (V/m) @ t=0.2
1.4157560141765888
% es.tEY (V/m) @ t=0.2
0
% es.tEZ (V/m) @ t=0.2
-3.2336189824593013
% es.Ex (V/m) @ t=0.2
1.4157560141765884
% es.Ey (V/m) @ t=0.2
0.3743001234247103
% es.Ez (V/m) @ t=0.2
-3.2336189824592996
% es.tEx (V/m) @ t=0.2
1.4157560141765888
% es.tEy (V/m) @ t=0.2
0
% es.tEz (V/m) @ t=0.2
-3.2336189824593013
% V (V) @ t=0.2
0.01776216712434267
% es.normE (V/m) @ t=0.3
3.7744398036245075
% es.EX (V/m) @ t=0.3
1.5042586035395389
% es.EY (V/m) @ t=0.3
0.39769857821414334
% es.EZ (V/m) @ t=0.3
-3.435760989331987
% es.tEX (V/m) @ t=0.3
1.5042586035395393
% es.tEY (V/m) @ t=0.3
0
% es.tEZ (V/m) @ t=0.3
-3.435760989331996
% es.Ex (V/m) @ t=0.3
1.5042586035395389
% es.Ey (V/m) @ t=0.3
0.39769857821414334
% es.Ez (V/m) @ t=0.3
-3.435760989331987
% es.tEx (V/m) @ t=0.3
1.5042586035395393
% es.tEy (V/m) @ t=0.3
0
% es.tEz (V/m) @ t=0.3
-3.435760989331996
% V (V) @ t=0.3
0.01887252845544447
% es.normE (V/m) @ t=0.4
4.01170666166942
% es.EX (V/m) @ t=0.4
1.5988186359085406
% es.EY (V/m) @ t=0.4
0.422698618334854
% es.EZ (V/m) @ t=0.4
-3.651737937785592
% es.tEX (V/m) @ t=0.4
1.5988186359085343
% es.tEY (V/m) @ t=0.4
0
% es.tEZ (V/m) @ t=0.4
-3.6517379377855974
% es.Ex (V/m) @ t=0.4
1.5988186359085406
% es.Ey (V/m) @ t=0.4
0.422698618334854
% es.Ez (V/m) @ t=0.4
-3.651737937785592
% es.tEx (V/m) @ t=0.4
1.5988186359085343
% es.tEy (V/m) @ t=0.4
0
% es.tEz (V/m) @ t=0.4
-3.6517379377855974
% V (V) @ t=0.4
0.020058876139859662
% es.normE (V/m) @ t=0.5
4.26980290881651
% es.EX (V/m) @ t=0.5
1.701680000164338
% es.EY (V/m) @ t=0.5
0.4498933986775917
% es.EZ (V/m) @ t=0.5
-3.886675251187949
% es.tEX (V/m) @ t=0.5
1.7016800001643313
% es.tEY (V/m) @ t=0.5
0
% es.tEZ (V/m) @ t=0.5
-3.886675251187956
% es.Ex (V/m) @ t=0.5
1.701680000164338
% es.Ey (V/m) @ t=0.5
0.4498933986775917
% es.Ez (V/m) @ t=0.5
-3.886675251187949
% es.tEx (V/m) @ t=0.5
1.7016800001643313
% es.tEy (V/m) @ t=0.5
0
% es.tEz (V/m) @ t=0.5
-3.886675251187956
% V (V) @ t=0.5
0.021349371049575565
% es.normE (V/m) @ t=0.6
4.5292642612988905
% es.EX (V/m) @ t=0.6
1.8050854143007147
% es.EY (V/m) @ t=0.6
0.4772320184565473
% es.EZ (V/m) @ t=0.6
-4.12285517798205
% es.tEX (V/m) @ t=0.6
1.8050854143007156
% es.tEY (V/m) @ t=0.6
0
% es.tEZ (V/m) @ t=0.6
-4.1228551779820535
% es.Ex (V/m) @ t=0.6
1.8050854143007147
% es.Ey (V/m) @ t=0.6
0.4772320184565473
% es.Ez (V/m) @ t=0.6
-4.12285517798205
% es.tEx (V/m) @ t=0.6
1.8050854143007156
% es.tEy (V/m) @ t=0.6
0
% es.tEz (V/m) @ t=0.6
-4.1228551779820535
% V (V) @ t=0.6
0.022646691402550788
% es.normE (V/m) @ t=0.7
4.814195241716526
% es.EX (V/m) @ t=0.7
1.9186415088850088
% es.EY (V/m) @ t=0.7
0.5072543409723327
% es.EZ (V/m) @ t=0.7
-4.382219323559298
% es.tEX (V/m) @ t=0.7
1.9186415088850097
% es.tEY (V/m) @ t=0.7
0
% es.tEZ (V/m) @ t=0.7
-4.382219323559312
% es.Ex (V/m) @ t=0.7
1.9186415088850088
% es.Ey (V/m) @ t=0.7
0.5072543409723327
% es.Ez (V/m) @ t=0.7
-4.382219323559298
% es.tEx (V/m) @ t=0.7
1.9186415088850097
% es.tEy (V/m) @ t=0.7
0
% es.tEz (V/m) @ t=0.7
-4.382219323559312
% V (V) @ t=0.7
0.024071358338840443
% es.normE (V/m) @ t=0.8
5.101097407145113
% es.EX (V/m) @ t=0.8
2.0329831913798904
% es.EY (V/m) @ t=0.8
0.537484355157579
% es.EZ (V/m) @ t=0.8
-4.643377782978963
% es.tEX (V/m) @ t=0.8
2.0329831913798913
% es.tEY (V/m) @ t=0.8
0
% es.tEZ (V/m) @ t=0.8
-4.643377782978973
% es.Ex (V/m) @ t=0.8
2.0329831913798904
% es.Ey (V/m) @ t=0.8
0.537484355157579
% es.Ez (V/m) @ t=0.8
-4.643377782978963
% es.tEx (V/m) @ t=0.8
2.0329831913798913
% es.tEy (V/m) @ t=0.8
0
% es.tEz (V/m) @ t=0.8
-4.643377782978973
% V (V) @ t=0.8
0.0255058816654191
% es.normE (V/m) @ t=0.9
5.41423582012583
% es.EX (V/m) @ t=0.9
2.1577809593168107
% es.EY (V/m) @ t=0.9
0.5704787217618286
% es.EZ (V/m) @ t=0.9
-4.928418354881636
% es.tEX (V/m) @ t=0.9
2.1577809593168116
% es.tEY (V/m) @ t=0.9
0
% es.tEZ (V/m) @ t=0.9
-4.928418354881664
% es.Ex (V/m) @ t=0.9
2.1577809593168107
% es.Ey (V/m) @ t=0.9
0.5704787217618286
% es.Ez (V/m) @ t=0.9
-4.928418354881636
% es.tEx (V/m) @ t=0.9
2.1577809593168116
% es.tEy (V/m) @ t=0.9
0
% es.tEz (V/m) @ t=0.9
-4.928418354881664
% V (V) @ t=0.9
0.027071592421974704
% es.normE (V/m) @ t=1
5.729938291695991
% es.EX (V/m) @ t=1
2.2836005082268
% es.EY (V/m) @ t=1
0.603743154545592
% es.EZ (V/m) @ t=1
-5.21579296200014
% es.tEX (V/m) @ t=1
2.2836005082267867
% es.tEY (V/m) @ t=1
0
% es.tEZ (V/m) @ t=1
-5.215792962000158
% es.Ex (V/m) @ t=1
2.2836005082268
% es.Ey (V/m) @ t=1
0.603743154545592
% es.Ez (V/m) @ t=1
-5.21579296200014
% es.tEx (V/m) @ t=1
2.2836005082267867
% es.tEy (V/m) @ t=1
0
% es.tEz (V/m) @ t=1
-5.215792962000158
% V (V) @ t=1
0.028650129665514244
% es.normE (V/m) @ t=1.1
6.071921133034969
% es.EX (V/m) @ t=1.1
2.4198928216456954
% es.EY (V/m) @ t=1.1
0.6397756360356972
% es.EZ (V/m) @ t=1.1
-5.5270903097211495
% es.tEX (V/m) @ t=1.1
2.4198928216456963
% es.tEY (V/m) @ t=1.1
0
% es.tEZ (V/m) @ t=1.1
-5.527090309721153
% es.Ex (V/m) @ t=1.1
2.4198928216456954
% es.Ey (V/m) @ t=1.1
0.6397756360356972
% es.Ez (V/m) @ t=1.1
-5.5270903097211495
% es.tEx (V/m) @ t=1.1
2.4198928216456963
% es.tEy (V/m) @ t=1.1
0
% es.tEz (V/m) @ t=1.1
-5.527090309721153
% V (V) @ t=1.1
0.0303601322437988
% es.normE (V/m) @ t=1.2
6.415076909879041
% es.EX (V/m) @ t=1.2
2.556652637700627
% es.EY (V/m) @ t=1.2
0.6759317498794672
% es.EZ (V/m) @ t=1.2
-5.8394553239436355
% es.tEX (V/m) @ t=1.2
2.556652637700628
% es.tEY (V/m) @ t=1.2
0
% es.tEZ (V/m) @ t=1.2
-5.839455323943646
% es.Ex (V/m) @ t=1.2
2.556652637700627
% es.Ey (V/m) @ t=1.2
0.6759317498794672
% es.Ez (V/m) @ t=1.2
-5.8394553239436355
% es.tEx (V/m) @ t=1.2
2.556652637700628
% es.tEy (V/m) @ t=1.2
0
% es.tEz (V/m) @ t=1.2
-5.839455323943646
% V (V) @ t=1.2
0.03207599689324884
% es.normE (V/m) @ t=1.3
6.773695295506026
% es.EX (V/m) @ t=1.3
2.6995754613021132
% es.EY (V/m) @ t=1.3
0.7137176879629461
% es.EZ (V/m) @ t=1.3
-6.165895203628157
% es.tEX (V/m) @ t=1.3
2.699575461302114
% es.tEY (V/m) @ t=1.3
0
% es.tEZ (V/m) @ t=1.3
-6.165895203628168
% es.Ex (V/m) @ t=1.3
2.6995754613021132
% es.Ey (V/m) @ t=1.3
0.7137176879629461
% es.Ez (V/m) @ t=1.3
-6.165895203628157
% es.tEx (V/m) @ t=1.3
2.699575461302114
% es.tEy (V/m) @ t=1.3
0
% es.tEz (V/m) @ t=1.3
-6.165895203628168
% V (V) @ t=1.3
0.0338691402274462
% es.normE (V/m) @ t=1.4
7.142721316026838
% es.EX (V/m) @ t=1.4
2.8466465068040767
% es.EY (V/m) @ t=1.4
0.7526006346992791
% es.EZ (V/m) @ t=1.4
-6.501808650352249
% es.tEX (V/m) @ t=1.4
2.8466465068040776
% es.tEY (V/m) @ t=1.4
0
% es.tEZ (V/m) @ t=1.4
-6.501808650352281
% es.Ex (V/m) @ t=1.4
2.8466465068040767
% es.Ey (V/m) @ t=1.4
0.7526006346992791
% es.Ez (V/m) @ t=1.4
-6.501808650352249
% es.tEx (V/m) @ t=1.4
2.8466465068040776
% es.tEy (V/m) @ t=1.4
0
% es.tEz (V/m) @ t=1.4
-6.501808650352281
% V (V) @ t=1.4
0.035714298609508005
% es.normE (V/m) @ t=1.5
7.522154971441687
% es.EX (V/m) @ t=1.5
2.997865774206576
% es.EY (V/m) @ t=1.5
0.7925805900884804
% es.EZ (V/m) @ t=1.5
-6.84719566411605
% es.tEX (V/m) @ t=1.5
2.997865774206577
% es.tEY (V/m) @ t=1.5
0
% es.tEZ (V/m) @ t=1.5
-6.847195664116072
% es.Ex (V/m) @ t=1.5
2.997865774206576
% es.Ey (V/m) @ t=1.5
0.7925805900884804
% es.Ez (V/m) @ t=1.5
-6.84719566411605
% es.tEx (V/m) @ t=1.5
2.997865774206577
% es.tEy (V/m) @ t=1.5
0
% es.tEz (V/m) @ t=1.5
-6.847195664116072
% V (V) @ t=1.5
0.03761147203943426
% es.normE (V/m) @ t=1.6
7.911997353594446
% es.EX (V/m) @ t=1.6
3.1532335705713033
% es.EY (V/m) @ t=1.6
0.8336575376842745
% es.EZ (V/m) @ t=1.6
-7.2020573043166145
% es.tEX (V/m) @ t=1.6
3.15323357057129
% es.tEY (V/m) @ t=1.6
0
% es.tEZ (V/m) @ t=1.6
-7.202057304316654
% es.Ex (V/m) @ t=1.6
3.1532335705713033
% es.Ey (V/m) @ t=1.6
0.8336575376842745
% es.Ez (V/m) @ t=1.6
-7.2020573043166145
% es.tEx (V/m) @ t=1.6
3.15323357057129
% es.tEy (V/m) @ t=1.6
0
% es.tEz (V/m) @ t=1.6
-7.202057304316654
% V (V) @ t=1.6
0.03956067403770936
% es.normE (V/m) @ t=1.7
8.312255848207482
% es.EX (V/m) @ t=1.7
3.3127519730015385
% es.EY (V/m) @ t=1.7
0.8758313662377191
% es.EZ (V/m) @ t=1.7
-7.566400737193067
% es.tEX (V/m) @ t=1.7
3.3127519730015393
% es.tEY (V/m) @ t=1.7
0
% es.tEZ (V/m) @ t=1.7
-7.566400737193078
% es.Ex (V/m) @ t=1.7
3.3127519730015385
% es.Ey (V/m) @ t=1.7
0.8758313662377191
% es.Ez (V/m) @ t=1.7
-7.566400737193067
% es.tEx (V/m) @ t=1.7
3.3127519730015393
% es.tEy (V/m) @ t=1.7
0
% es.tEz (V/m) @ t=1.7
-7.566400737193078
% V (V) @ t=1.7
0.04156199606297042
% es.normE (V/m) @ t=1.8
8.72292562054709
% es.EX (V/m) @ t=1.8
3.476419621814218
% es.EY (V/m) @ t=1.8
0.9191021485731135
% es.EZ (V/m) @ t=1.8
-7.940221271686724
% es.tEX (V/m) @ t=1.8
3.4764196218142196
% es.tEY (V/m) @ t=1.8
0
% es.tEZ (V/m) @ t=1.8
-7.940221271686738
% es.Ex (V/m) @ t=1.8
3.476419621814218
% es.Ey (V/m) @ t=1.8
0.9191021485731135
% es.Ez (V/m) @ t=1.8
-7.940221271686724
% es.tEx (V/m) @ t=1.8
3.4764196218142196
% es.tEy (V/m) @ t=1.8
0
% es.tEz (V/m) @ t=1.8
-7.940221271686738
% V (V) @ t=1.8
0.04361537824590237
% es.normE (V/m) @ t=1.9
9.144006670613393
% es.EX (V/m) @ t=1.9
3.6442365170094275
% es.EY (V/m) @ t=1.9
0.9634698846904044
% es.EZ (V/m) @ t=1.9
-8.323518907797698
% es.tEX (V/m) @ t=1.9
3.6442365170094284
% es.tEY (V/m) @ t=1.9
0
% es.tEZ (V/m) @ t=1.9
-8.323518907797727
% es.Ex (V/m) @ t=1.9
3.6442365170094275
% es.Ey (V/m) @ t=1.9
0.9634698846904044
% es.Ez (V/m) @ t=1.9
-8.323518907797698
% es.tEx (V/m) @ t=1.9
3.6442365170094284
% es.tEy (V/m) @ t=1.9
0
% es.tEz (V/m) @ t=1.9
-8.323518907797727
% V (V) @ t=1.9
0.045720820586505256
% es.normE (V/m) @ t=2
9.573499980715251
% es.EX (V/m) @ t=2
3.815405858658364
% es.EY (V/m) @ t=2
1.008723824589417
% es.EZ (V/m) @ t=2
-8.714474057840214
% es.tEX (V/m) @ t=2
3.815405858658366
% es.tEY (V/m) @ t=2
0
% es.tEZ (V/m) @ t=2
-8.714474057840228
% es.Ex (V/m) @ t=2
3.815405858658364
% es.Ey (V/m) @ t=2
1.008723824589417
% es.Ez (V/m) @ t=2
-8.714474057840214
% es.tEx (V/m) @ t=2
3.815405858658366
% es.tEy (V/m) @ t=2
0
% es.tEz (V/m) @ t=2
-8.714474057840228
% V (V) @ t=2
0.04786833503028988
% es.normE (V/m) @ t=2.1
10.001432872779649
% es.EX (V/m) @ t=2.1
3.985952579799788
% es.EY (V/m) @ t=2.1
1.053812580924312
% es.EZ (V/m) @ t=2.1
-9.104009182232431
% es.tEX (V/m) @ t=2.1
3.9859525797997613
% es.tEY (V/m) @ t=2.1
0
% es.tEZ (V/m) @ t=2.1
-9.10400918223246
% es.Ex (V/m) @ t=2.1
3.985952579799788
% es.Ey (V/m) @ t=2.1
1.053812580924312
% es.Ez (V/m) @ t=2.1
-9.104009182232431
% es.tEx (V/m) @ t=2.1
3.9859525797997613
% es.tEy (V/m) @ t=2.1
0
% es.tEz (V/m) @ t=2.1
-9.10400918223246
% V (V) @ t=2.1
0.05000809327786741
% es.normE (V/m) @ t=2.2
10.434534623426117
% es.EX (V/m) @ t=2.2
4.1585589414035855
% es.EY (V/m) @ t=2.2
1.0994455996668044
% es.EZ (V/m) @ t=2.2
-9.498249543859593
% es.tEX (V/m) @ t=2.2
4.158558941403559
% es.tEY (V/m) @ t=2.2
0
% es.tEZ (V/m) @ t=2.2
-9.498249543859615
% es.Ex (V/m) @ t=2.2
4.1585589414035855
% es.Ey (V/m) @ t=2.2
1.0994455996668044
% es.Ez (V/m) @ t=2.2
-9.498249543859593
% es.tEx (V/m) @ t=2.2
4.158558941403559
% es.tEy (V/m) @ t=2.2
0
% es.tEz (V/m) @ t=2.2
-9.498249543859615
% V (V) @ t=2.2
0.05217371803395071
% es.normE (V/m) @ t=2.3
10.872805232655022
% es.EX (V/m) @ t=2.3
4.3332249434699275
% es.EY (V/m) @ t=2.3
1.1456228808166564
% es.EZ (V/m) @ t=2.3
-9.897195142721664
% es.tEX (V/m) @ t=2.3
4.333224943469929
% es.tEY (V/m) @ t=2.3
0
% es.tEZ (V/m) @ t=2.3
-9.897195142721685
% es.Ex (V/m) @ t=2.3
4.3332249434699275
% es.Ey (V/m) @ t=2.3
1.1456228808166564
% es.Ez (V/m) @ t=2.3
-9.897195142721664
% es.tEx (V/m) @ t=2.3
4.333224943469929
% es.tEy (V/m) @ t=2.3
0
% es.tEz (V/m) @ t=2.3
-9.897195142721685
% V (V) @ t=2.3
0.05436520929853976
% es.normE (V/m) @ t=2.4
11.312324294672921
% es.EX (V/m) @ t=2.4
4.508388639672203
% es.EY (V/m) @ t=2.4
1.191931849426048
% es.EZ (V/m) @ t=2.4
-10.297277100557515
% es.tEX (V/m) @ t=2.4
4.508388639672205
% es.tEY (V/m) @ t=2.4
0
% es.tEZ (V/m) @ t=2.4
-10.297277100557537
% es.Ex (V/m) @ t=2.4
4.508388639672203
% es.Ey (V/m) @ t=2.4
1.191931849426048
% es.Ez (V/m) @ t=2.4
-10.297277100557515
% es.tEx (V/m) @ t=2.4
4.508388639672205
% es.tEy (V/m) @ t=2.4
0
% es.tEz (V/m) @ t=2.4
-10.297277100557537
% V (V) @ t=2.4
0.05656293431635608
% es.normE (V/m) @ t=2.5
11.73811231065904
% es.EX (V/m) @ t=2.5
4.678081981194582
% es.EY (V/m) @ t=2.5
1.2367960957377022
% es.EZ (V/m) @ t=2.5
-10.684859071918517
% es.tEX (V/m) @ t=2.5
4.678081981194584
% es.tEY (V/m) @ t=2.5
0
% es.tEZ (V/m) @ t=2.5
-10.684859071918538
% es.Ex (V/m) @ t=2.5
4.678081981194582
% es.Ey (V/m) @ t=2.5
1.2367960957377022
% es.Ez (V/m) @ t=2.5
-10.684859071918517
% es.tEx (V/m) @ t=2.5
4.678081981194584
% es.tEy (V/m) @ t=2.5
0
% es.tEz (V/m) @ t=2.5
-10.684859071918538
% V (V) @ t=2.5
0.05869187819098018
% es.normE (V/m) @ t=2.6
12.160626468552794
% es.EX (V/m) @ t=2.6
4.846471262840906
% es.EY (V/m) @ t=2.6
1.2813161113835392
% es.EZ (V/m) @ t=2.6
-11.069460589391774
% es.tEX (V/m) @ t=2.6
4.8464712628409075
% es.tEY (V/m) @ t=2.6
0
% es.tEZ (V/m) @ t=2.6
-11.069460589391781
% es.Ex (V/m) @ t=2.6
4.846471262840906
% es.Ey (V/m) @ t=2.6
1.2813161113835392
% es.Ez (V/m) @ t=2.6
-11.069460589391774
% es.tEx (V/m) @ t=2.6
4.8464712628409075
% es.tEy (V/m) @ t=2.6
0
% es.tEz (V/m) @ t=2.6
-11.069460589391781
% V (V) @ t=2.6
0.06080440882066353
% es.normE (V/m) @ t=2.7
12.579866768354663
% es.EX (V/m) @ t=2.7
5.013556484610826
% es.EY (V/m) @ t=2.7
1.3254918963633067
% es.EZ (V/m) @ t=2.7
-11.451081652977145
% es.tEX (V/m) @ t=2.7
5.013556484610827
% es.tEY (V/m) @ t=2.7
0
% es.tEZ (V/m) @ t=2.7
-11.451081652977152
% es.Ex (V/m) @ t=2.7
5.013556484610826
% es.Ey (V/m) @ t=2.7
1.3254918963633067
% es.Ez (V/m) @ t=2.7
-11.451081652977145
% es.tEx (V/m) @ t=2.7
5.013556484610827
% es.tEy (V/m) @ t=2.7
0
% es.tEz (V/m) @ t=2.7
-11.451081652977152
% V (V) @ t=2.7
0.06290052620540615
% es.normE (V/m) @ t=2.8
12.992943856957769
% es.EX (V/m) @ t=2.8
5.17818573684559
% es.EY (V/m) @ t=2.8
1.3690186024126199
% es.EZ (V/m) @ t=2.8
-11.82709237098566
% es.tEX (V/m) @ t=2.8
5.178185736845592
% es.tEY (V/m) @ t=2.8
0
% es.tEZ (V/m) @ t=2.8
-11.827092370985696
% es.Ex (V/m) @ t=2.8
5.17818573684559
% es.Ey (V/m) @ t=2.8
1.3690186024126199
% es.Ez (V/m) @ t=2.8
-11.82709237098566
% es.tEx (V/m) @ t=2.8
5.178185736845592
% es.tEy (V/m) @ t=2.8
0
% es.tEz (V/m) @ t=2.8
-11.827092370985696
% V (V) @ t=2.8
0.06496580783804339
% es.normE (V/m) @ t=2.9
13.389090300068514
% es.EX (V/m) @ t=2.9
5.336066324570771
% es.EY (V/m) @ t=2.9
1.4107601850479554
% es.EZ (V/m) @ t=2.9
-12.187692215444478
% es.tEX (V/m) @ t=2.9
5.336066324570744
% es.tEY (V/m) @ t=2.9
0
% es.tEZ (V/m) @ t=2.9
-12.187692215444528
% es.Ex (V/m) @ t=2.9
5.336066324570771
% es.Ey (V/m) @ t=2.9
1.4107601850479554
% es.Ez (V/m) @ t=2.9
-12.187692215444478
% es.tEx (V/m) @ t=2.9
5.336066324570744
% es.tEy (V/m) @ t=2.9
0
% es.tEz (V/m) @ t=2.9
-12.187692215444528
% V (V) @ t=2.9
0.06694650694813356
% es.normE (V/m) @ t=3
13.771885450093134
% es.EX (V/m) @ t=3
5.488625242153935
% es.EY (V/m) @ t=3
1.4510942925970234
% es.EZ (V/m) @ t=3
-12.536139115999127
% es.tEX (V/m) @ t=3
5.488625242153937
% es.tEY (V/m) @ t=3
0
% es.tEZ (V/m) @ t=3
-12.536139115999148
% es.Ex (V/m) @ t=3
5.488625242153935
% es.Ey (V/m) @ t=3
1.4510942925970234
% es.Ez (V/m) @ t=3
-12.536139115999127
% es.tEx (V/m) @ t=3
5.488625242153937
% es.tEy (V/m) @ t=3
0
% es.tEz (V/m) @ t=3
-12.536139115999148
% V (V) @ t=3
0.06886049024625014
% es.normE (V/m) @ t=3.1
14.139399491912288
% es.EX (V/m) @ t=3.1
5.635093122683992
% es.EY (V/m) @ t=3.1
1.4898173151969907
% es.EZ (V/m) @ t=3.1
-12.870676553265135
% es.tEX (V/m) @ t=3.1
5.635093122683994
% es.tEY (V/m) @ t=3.1
0
% es.tEZ (V/m) @ t=3.1
-12.870676553265213
% es.Ex (V/m) @ t=3.1
5.635093122683992
% es.Ey (V/m) @ t=3.1
1.4898173151969907
% es.Ez (V/m) @ t=3.1
-12.870676553265135
% es.tEx (V/m) @ t=3.1
5.635093122683994
% es.tEy (V/m) @ t=3.1
0
% es.tEz (V/m) @ t=3.1
-12.870676553265213
% V (V) @ t=3.1
0.07069812485910482
% es.normE (V/m) @ t=3.2
14.49023467495212
% es.EX (V/m) @ t=3.2
5.77491321045026
% es.EY (V/m) @ t=3.2
1.5267822924011938
% es.EZ (V/m) @ t=3.2
-13.190032041477842
% es.tEX (V/m) @ t=3.2
5.774913210450233
% es.tEY (V/m) @ t=3.2
0
% es.tEZ (V/m) @ t=3.2
-13.19003204147782
% es.Ex (V/m) @ t=3.2
5.77491321045026
% es.Ey (V/m) @ t=3.2
1.5267822924011938
% es.Ez (V/m) @ t=3.2
-13.190032041477842
% es.tEx (V/m) @ t=3.2
5.774913210450233
% es.tEy (V/m) @ t=3.2
0
% es.tEz (V/m) @ t=3.2
-13.19003204147782
% V (V) @ t=3.2
0.07245240308872483
% es.normE (V/m) @ t=3.3
14.824074454293385
% es.EX (V/m) @ t=3.3
5.90796079588093
% es.EY (V/m) @ t=3.3
1.561957380753043
% es.EZ (V/m) @ t=3.3
-13.493916697129073
% es.tEX (V/m) @ t=3.3
5.9079607958809035
% es.tEY (V/m) @ t=3.3
0
% es.tEZ (V/m) @ t=3.3
-13.493916697129109
% es.Ex (V/m) @ t=3.3
5.90796079588093
% es.Ey (V/m) @ t=3.3
1.561957380753043
% es.Ez (V/m) @ t=3.3
-13.493916697129073
% es.tEx (V/m) @ t=3.3
5.9079607958809035
% es.tEy (V/m) @ t=3.3
0
% es.tEz (V/m) @ t=3.3
-13.493916697129109
% V (V) @ t=3.3
0.07412165184254757
% es.normE (V/m) @ t=3.4
15.138452402391302
% es.EX (V/m) @ t=3.4
6.0332520835464205
% es.EY (V/m) @ t=3.4
1.5950818367564494
% es.EZ (V/m) @ t=3.4
-13.780085829883554
% es.tEX (V/m) @ t=3.4
6.033252083546422
% es.tEY (V/m) @ t=3.4
0
% es.tEZ (V/m) @ t=3.4
-13.780085829883575
% es.Ex (V/m) @ t=3.4
6.0332520835464205
% es.Ey (V/m) @ t=3.4
1.5950818367564494
% es.Ez (V/m) @ t=3.4
-13.780085829883554
% es.tEx (V/m) @ t=3.4
6.033252083546422
% es.tEy (V/m) @ t=3.4
0
% es.tEz (V/m) @ t=3.4
-13.780085829883575
% V (V) @ t=3.4
0.07569359063298904
% es.normE (V/m) @ t=3.5
15.431744545396505
% es.EX (V/m) @ t=3.5
6.150139919677445
% es.EY (V/m) @ t=3.5
1.6259846137581135
% es.EZ (V/m) @ t=3.5
-14.047061152496596
% es.tEX (V/m) @ t=3.5
6.150139919677418
% es.tEY (V/m) @ t=3.5
0
% es.tEZ (V/m) @ t=3.5
-14.047061152496639
% es.Ex (V/m) @ t=3.5
6.150139919677445
% es.Ey (V/m) @ t=3.5
1.6259846137581135
% es.Ez (V/m) @ t=3.5
-14.047061152496596
% es.tEx (V/m) @ t=3.5
6.150139919677418
% es.tEy (V/m) @ t=3.5
0
% es.tEz (V/m) @ t=3.5
-14.047061152496639
% V (V) @ t=3.5
0.0771600955896793
% es.normE (V/m) @ t=3.6
15.702326909459003
% es.EX (V/m) @ t=3.6
6.25797715050372
% es.EY (V/m) @ t=3.6
1.654494665104977
% es.EZ (V/m) @ t=3.6
-14.293364377723215
% es.tEX (V/m) @ t=3.6
6.257977150503695
% es.tEY (V/m) @ t=3.6
0
% es.tEZ (V/m) @ t=3.6
-14.293364377723236
% es.Ex (V/m) @ t=3.6
6.25797715050372
% es.Ey (V/m) @ t=3.6
1.654494665104977
% es.Ez (V/m) @ t=3.6
-14.293364377723215
% es.tEx (V/m) @ t=3.6
6.257977150503695
% es.tEy (V/m) @ t=3.6
0
% es.tEz (V/m) @ t=3.6
-14.293364377723236
% V (V) @ t=3.6
0.0785130428422484
% es.normE (V/m) @ t=3.7
15.948575520729445
% es.EX (V/m) @ t=3.7
6.356116622255973
% es.EY (V/m) @ t=3.7
1.6804409441435766
% es.EZ (V/m) @ t=3.7
-14.51751721831878
% es.tEX (V/m) @ t=3.7
6.356116622255975
% es.tEY (V/m) @ t=3.7
0
% es.tEZ (V/m) @ t=3.7
-14.517517218318801
% es.Ex (V/m) @ t=3.7
6.356116622255973
% es.Ey (V/m) @ t=3.7
1.6804409441435766
% es.Ez (V/m) @ t=3.7
-14.51751721831878
% es.tEx (V/m) @ t=3.7
6.356116622255975
% es.tEy (V/m) @ t=3.7
0
% es.tEz (V/m) @ t=3.7
-14.517517218318801
% V (V) @ t=3.7
0.07974430852032639
% es.normE (V/m) @ t=3.8
16.16886640535798
% es.EX (V/m) @ t=3.8
6.443911181164193
% es.EY (V/m) @ t=3.8
1.703652404221124
% es.EZ (V/m) @ t=3.8
-14.718041387038305
% es.tEX (V/m) @ t=3.8
6.4439111811641965
% es.tEY (V/m) @ t=3.8
0
% es.tEZ (V/m) @ t=3.8
-14.718041387038326
% es.Ex (V/m) @ t=3.8
6.443911181164193
% es.Ey (V/m) @ t=3.8
1.703652404221124
% es.Ez (V/m) @ t=3.8
-14.718041387038305
% es.tEx (V/m) @ t=3.8
6.4439111811641965
% es.tEy (V/m) @ t=3.8
0
% es.tEz (V/m) @ t=3.8
-14.718041387038326
% V (V) @ t=3.8
0.08084576875354331
% es.normE (V/m) @ t=3.9
16.361575589494933
% es.EX (V/m) @ t=3.9
6.52071367345887
% es.EY (V/m) @ t=3.9
1.723957998683865
% es.EZ (V/m) @ t=3.9
-14.893458596636854
% es.tEX (V/m) @ t=3.9
6.520713673458843
% es.tEY (V/m) @ t=3.9
0
% es.tEZ (V/m) @ t=3.9
-14.893458596636876
% es.Ex (V/m) @ t=3.9
6.52071367345887
% es.Ey (V/m) @ t=3.9
1.723957998683865
% es.Ez (V/m) @ t=3.9
-14.893458596636854
% es.tEx (V/m) @ t=3.9
6.520713673458843
% es.tEy (V/m) @ t=3.9
0
% es.tEz (V/m) @ t=3.9
-14.893458596636876
% V (V) @ t=3.9
0.08180929967152921
% es.normE (V/m) @ t=4
16.533512549223666
% es.EX (V/m) @ t=4
6.589237782247908
% es.EY (V/m) @ t=4
1.7420750370237954
% es.EZ (V/m) @ t=4
-15.049967392263518
% es.tEX (V/m) @ t=4
6.58923778224791
% es.tEY (V/m) @ t=4
0
% es.tEZ (V/m) @ t=4
-15.049967392263525
% es.Ex (V/m) @ t=4
6.589237782247908
% es.Ey (V/m) @ t=4
1.7420750370237954
% es.Ez (V/m) @ t=4
-15.049967392263518
% es.tEx (V/m) @ t=4
6.58923778224791
% es.tEy (V/m) @ t=4
0
% es.tEz (V/m) @ t=4
-15.049967392263525
% V (V) @ t=4
0.08266895893548544
% es.normE (V/m) @ t=4.1
16.695297065998126
% es.EX (V/m) @ t=4.1
6.6537156457093385
% es.EY (V/m) @ t=4.1
1.7591221956958734
% es.EZ (V/m) @ t=4.1
-15.197234778112183
% es.tEX (V/m) @ t=4.1
6.65371564570934
% es.tEY (V/m) @ t=4.1
0
% es.tEZ (V/m) @ t=4.1
-15.19723477811219
% es.Ex (V/m) @ t=4.1
6.6537156457093385
% es.Ey (V/m) @ t=4.1
1.7591221956958734
% es.Ez (V/m) @ t=4.1
-15.197234778112183
% es.tEx (V/m) @ t=4.1
6.65371564570934
% es.tEy (V/m) @ t=4.1
0
% es.tEz (V/m) @ t=4.1
-15.19723477811219
% V (V) @ t=4.1
0.08347786218615759
% es.normE (V/m) @ t=4.2
16.835235481113358
% es.EX (V/m) @ t=4.2
6.709487212803403
% es.EY (V/m) @ t=4.2
1.7738677154691231
% es.EZ (V/m) @ t=4.2
-15.32461619649029
% es.tEX (V/m) @ t=4.2
6.709487212803406
% es.tEY (V/m) @ t=4.2
0
% es.tEZ (V/m) @ t=4.2
-15.32461619649034
% es.Ex (V/m) @ t=4.2
6.709487212803403
% es.Ey (V/m) @ t=4.2
1.7738677154691231
% es.Ez (V/m) @ t=4.2
-15.32461619649029
% es.tEx (V/m) @ t=4.2
6.709487212803406
% es.tEy (V/m) @ t=4.2
0
% es.tEz (V/m) @ t=4.2
-15.32461619649034
% V (V) @ t=4.2
0.08417752007605492
% es.normE (V/m) @ t=4.3
16.953033524920247
% es.EX (V/m) @ t=4.3
6.756435233767759
% es.EY (V/m) @ t=4.3
1.7862806170300303
% es.EZ (V/m) @ t=4.3
-15.43184376827309
% es.tEX (V/m) @ t=4.3
6.756435233767789
% es.tEY (V/m) @ t=4.3
0
% es.tEZ (V/m) @ t=4.3
-15.431843768273083
% es.Ex (V/m) @ t=4.3
6.756435233767759
% es.Ey (V/m) @ t=4.3
1.7862806170300303
% es.Ez (V/m) @ t=4.3
-15.43184376827309
% es.tEx (V/m) @ t=4.3
6.756435233767789
% es.tEy (V/m) @ t=4.3
0
% es.tEz (V/m) @ t=4.3
-15.431843768273083
% V (V) @ t=4.3
0.08476645950764064
% es.normE (V/m) @ t=4.4
17.048396927769343
% es.EX (V/m) @ t=4.4
6.794442458839562
% es.EY (V/m) @ t=4.4
1.7963299210652224
% es.EZ (V/m) @ t=4.4
-15.518649614335636
% es.tEX (V/m) @ t=4.4
6.7944424588395655
% es.tEY (V/m) @ t=4.4
0
% es.tEZ (V/m) @ t=4.4
-15.518649614335658
% es.Ex (V/m) @ t=4.4
6.794442458839562
% es.Ey (V/m) @ t=4.4
1.7963299210652224
% es.Ez (V/m) @ t=4.4
-15.518649614335636
% es.tEx (V/m) @ t=4.4
6.7944424588395655
% es.tEy (V/m) @ t=4.4
0
% es.tEz (V/m) @ t=4.4
-15.518649614335658
% V (V) @ t=4.4
0.08524320738337784
% es.normE (V/m) @ t=4.5
17.12103142001144
% es.EX (V/m) @ t=4.5
6.823391638255986
% es.EY (V/m) @ t=4.5
1.803984648261327
% es.EZ (V/m) @ t=4.5
-15.584765855553165
% es.tEX (V/m) @ t=4.5
6.823391638255959
% es.tEY (V/m) @ t=4.5
0
% es.tEZ (V/m) @ t=4.5
-15.584765855553186
% es.Ex (V/m) @ t=4.5
6.823391638255986
% es.Ey (V/m) @ t=4.5
1.803984648261327
% es.Ez (V/m) @ t=4.5
-15.584765855553165
% es.tEx (V/m) @ t=4.5
6.823391638255959
% es.tEy (V/m) @ t=4.5
0
% es.tEz (V/m) @ t=4.5
-15.584765855553186
% V (V) @ t=4.5
0.0856062906057297
% es.normE (V/m) @ t=4.6
17.170642731997418
% es.EX (V/m) @ t=4.6
6.8431655222546635
% es.EY (V/m) @ t=4.6
1.8092138193047305
% es.EZ (V/m) @ t=4.6
-15.62992461280075
% es.tEX (V/m) @ t=4.6
6.843165522254665
% es.tEY (V/m) @ t=4.6
0
% es.tEZ (V/m) @ t=4.6
-15.629924612800764
% es.Ex (V/m) @ t=4.6
6.8431655222546635
% es.Ey (V/m) @ t=4.6
1.8092138193047305
% es.Ez (V/m) @ t=4.6
-15.62992461280075
% es.tEx (V/m) @ t=4.6
6.843165522254665
% es.tEy (V/m) @ t=4.6
0
% es.tEz (V/m) @ t=4.6
-15.629924612800764
% V (V) @ t=4.6
0.08585423607715939
% es.normE (V/m) @ t=4.7
17.201455178405737
% es.EX (V/m) @ t=4.7
6.855447224533508
% es.EY (V/m) @ t=4.7
1.812462123545977
% es.EZ (V/m) @ t=4.7
-15.657971375843381
% es.tEX (V/m) @ t=4.7
6.855447224533481
% es.tEY (V/m) @ t=4.7
0
% es.tEZ (V/m) @ t=4.7
-15.65797137584346
% es.Ex (V/m) @ t=4.7
6.855447224533508
% es.Ey (V/m) @ t=4.7
1.812462123545977
% es.Ez (V/m) @ t=4.7
-15.657971375843381
% es.tEx (V/m) @ t=4.7
6.855447224533481
% es.tEy (V/m) @ t=4.7
0
% es.tEz (V/m) @ t=4.7
-15.65797137584346
% V (V) @ t=4.7
0.08600819262795693
% es.normE (V/m) @ t=4.8
17.227629316666132
% es.EX (V/m) @ t=4.8
6.865878808561092
% es.EY (V/m) @ t=4.8
1.8152202326553848
% es.EZ (V/m) @ t=4.8
-15.681796819586893
% es.tEX (V/m) @ t=4.8
6.865878808561067
% es.tEY (V/m) @ t=4.8
0
% es.tEZ (V/m) @ t=4.8
-15.681796819586893
% es.Ex (V/m) @ t=4.8
6.865878808561092
% es.Ey (V/m) @ t=4.8
1.8152202326553848
% es.Ez (V/m) @ t=4.8
-15.681796819586893
% es.tEx (V/m) @ t=4.8
6.865878808561067
% es.tEy (V/m) @ t=4.8
0
% es.tEz (V/m) @ t=4.8
-15.681796819586893
% V (V) @ t=4.8
0.08613905408598717
% es.normE (V/m) @ t=4.9
17.238458584807802
% es.EX (V/m) @ t=4.9
6.870194399855709
% es.EY (V/m) @ t=4.9
1.8163610715470497
% es.EZ (V/m) @ t=4.9
-15.691654521141231
% es.tEX (V/m) @ t=4.9
6.870194399855684
% es.tEY (V/m) @ t=4.9
0
% es.tEZ (V/m) @ t=4.9
-15.69165452114126
% es.Ex (V/m) @ t=4.9
6.870194399855709
% es.Ey (V/m) @ t=4.9
1.8163610715470497
% es.Ez (V/m) @ t=4.9
-15.691654521141231
% es.tEx (V/m) @ t=4.9
6.870194399855684
% es.tEy (V/m) @ t=4.9
0
% es.tEz (V/m) @ t=4.9
-15.69165452114126
% V (V) @ t=4.9
0.08619321905238436
% es.normE (V/m) @ t=5
17.234639791251745
% es.EX (V/m) @ t=5
6.868671629133763
% es.EY (V/m) @ t=5
1.815957991101996
% es.EZ (V/m) @ t=5
-15.688178802028176
% es.tEX (V/m) @ t=5
6.868671629133765
% es.tEY (V/m) @ t=5
0
% es.tEZ (V/m) @ t=5
-15.688178802028176
% es.Ex (V/m) @ t=5
6.868671629133763
% es.Ey (V/m) @ t=5
1.815957991101996
% es.Ez (V/m) @ t=5
-15.688178802028176
% es.tEx (V/m) @ t=5
6.868671629133765
% es.tEy (V/m) @ t=5
0
% es.tEz (V/m) @ t=5
-15.688178802028176
% V (V) @ t=5
0.08617417618199935
% es.normE (V/m) @ t=5.1
17.21686974441906
% es.EX (V/m) @ t=5.1
6.861588127111867
% es.EY (V/m) @ t=5.1
1.8140843422013404
% es.EZ (V/m) @ t=5.1
-15.672003983769265
% es.tEX (V/m) @ t=5.1
6.86158812711184
% es.tEY (V/m) @ t=5.1
0
% es.tEZ (V/m) @ t=5.1
-15.672003983769287
% es.Ex (V/m) @ t=5.1
6.861588127111867
% es.Ey (V/m) @ t=5.1
1.8140843422013404
% es.Ez (V/m) @ t=5.1
-15.672003983769265
% es.tEx (V/m) @ t=5.1
6.86158812711184
% es.tEy (V/m) @ t=5.1
0
% es.tEz (V/m) @ t=5.1
-15.672003983769287
% V (V) @ t=5.1
0.08608541412968301
% es.normE (V/m) @ t=5.2
17.18584525273107
% es.EX (V/m) @ t=5.2
6.849221524506275
% es.EY (V/m) @ t=5.2
1.810813475725972
% es.EZ (V/m) @ t=5.2
-15.6437643878862
% es.tEX (V/m) @ t=5.2
6.849221524506277
% es.tEY (V/m) @ t=5.2
0
% es.tEZ (V/m) @ t=5.2
-15.643764387886222
% es.Ex (V/m) @ t=5.2
6.849221524506275
% es.Ey (V/m) @ t=5.2
1.810813475725972
% es.Ez (V/m) @ t=5.2
-15.6437643878862
% es.tEx (V/m) @ t=5.2
6.849221524506277
% es.tEy (V/m) @ t=5.2
0
% es.tEz (V/m) @ t=5.2
-15.643764387886222
% V (V) @ t=5.2
0.08593042155028621
% es.normE (V/m) @ t=5.3
17.1422631246094
% es.EX (V/m) @ t=5.3
6.831849452033392
% es.EY (V/m) @ t=5.3
1.8062187425572702
% es.EZ (V/m) @ t=5.3
-15.604094335900506
% es.tEX (V/m) @ t=5.3
6.831849452033396
% es.tEY (V/m) @ t=5.3
0
% es.tEZ (V/m) @ t=5.3
-15.604094335900584
% es.Ex (V/m) @ t=5.3
6.831849452033392
% es.Ey (V/m) @ t=5.3
1.8062187425572702
% es.Ez (V/m) @ t=5.3
-15.604094335900506
% es.tEx (V/m) @ t=5.3
6.831849452033396
% es.tEy (V/m) @ t=5.3
0
% es.tEz (V/m) @ t=5.3
-15.604094335900584
% V (V) @ t=5.3
0.0857126870986598
% es.normE (V/m) @ t=5.4
17.09189025375496
% es.EX (V/m) @ t=5.4
6.811772373994637
% es.EY (V/m) @ t=5.4
1.8009096990462155
% es.EZ (V/m) @ t=5.4
-15.55824218815507