% Model:              1x1--2 - Copy1.mph
% Version:            COMSOL 6.0.0.405
% Date:               Mar 7 2023, 19:13
% Dimension:          0
% Nodes:              14017
% Expressions:        14017
% Description:        Electric field norm, Electric field, X component, Electric field, Y component, Electric field, Z component, Tangential electric field, X component, Tangential electric field, Y component, Tangential electric field, Z component, Electric field, x component, Electric field, y component, Electric field, z component, Tangential electric field, x component, Tangential electric field, y component, Tangential electric field, z component, Electric potential
% Length unit:        mm
% x
1.33
% y
12.2
% z
1
% es.normE (V/m) @ t=0
4.15968444135744
% es.EX (V/m) @ t=0
1.2839437148219954
% es.EY (V/m) @ t=0
0.3110520208358811
% es.EZ (V/m) @ t=0
3.944297781650037
% es.tEX (V/m) @ t=0
1.2839437148220014
% es.tEY (V/m) @ t=0
0
% es.tEZ (V/m) @ t=0
3.9442977816500644
% es.Ex (V/m) @ t=0
1.2839437148219954
% es.Ey (V/m) @ t=0
0.3110520208358811
% es.Ez (V/m) @ t=0
3.944297781650037
% es.tEx (V/m) @ t=0
1.2839437148220014
% es.tEy (V/m) @ t=0
0
% es.tEz (V/m) @ t=0
3.9442977816500644
% V (V) @ t=0
0.019454965004117912
% es.normE (V/m) @ t=0.1
4.36254209045479
% es.EX (V/m) @ t=0.1
1.3465584132275032
% es.EY (V/m) @ t=0.1
0.3262212607760884
% es.EZ (V/m) @ t=0.1
4.13665158264974
% es.tEX (V/m) @ t=0.1
1.3465584132274984
% es.tEY (V/m) @ t=0.1
0
% es.tEZ (V/m) @ t=0.1
4.136651582649751
% es.Ex (V/m) @ t=0.1
1.3465584132275032
% es.Ey (V/m) @ t=0.1
0.3262212607760884
% es.Ez (V/m) @ t=0.1
4.13665158264974
% es.tEx (V/m) @ t=0.1
1.3465584132274984
% es.tEy (V/m) @ t=0.1
0
% es.tEz (V/m) @ t=0.1
4.136651582649751
% V (V) @ t=0.1
0.020403736252222297
% es.normE (V/m) @ t=0.2
4.661120188526203
% es.EX (V/m) @ t=0.2
1.4387187759464073
% es.EY (V/m) @ t=0.2
0.34854824172399135
% es.EZ (V/m) @ t=0.2
4.419769394823568
% es.tEX (V/m) @ t=0.2
1.4387187759463984
% es.tEY (V/m) @ t=0.2
0
% es.tEZ (V/m) @ t=0.2
4.41976939482355
% es.Ex (V/m) @ t=0.2
1.4387187759464073
% es.Ey (V/m) @ t=0.2
0.34854824172399135
% es.Ez (V/m) @ t=0.2
4.419769394823568
% es.tEx (V/m) @ t=0.2
1.4387187759463984
% es.tEy (V/m) @ t=0.2
0
% es.tEz (V/m) @ t=0.2
4.41976939482355
% V (V) @ t=0.2
0.02180022778110559
% es.normE (V/m) @ t=0.3
4.98960683006208
% es.EX (V/m) @ t=0.3
1.5401125159967841
% es.EY (V/m) @ t=0.3
0.37311154724530615
% es.EZ (V/m) @ t=0.3
4.731246559311091
% es.tEX (V/m) @ t=0.3
1.540112515996796
% es.tEY (V/m) @ t=0.3
0
% es.tEZ (V/m) @ t=0.3
4.731246559311138
% es.Ex (V/m) @ t=0.3
1.5401125159967841
% es.Ey (V/m) @ t=0.3
0.37311154724530615
% es.Ez (V/m) @ t=0.3
4.731246559311091
% es.tEx (V/m) @ t=0.3
1.540112515996796
% es.tEy (V/m) @ t=0.3
0
% es.tEz (V/m) @ t=0.3
4.731246559311138
% V (V) @ t=0.3
0.023336876069783165
% es.normE (V/m) @ t=0.4
5.3222592255570245
% es.EX (V/m) @ t=0.4
1.6427923155220694
% es.EY (V/m) @ t=0.4
0.3979863343500851
% es.EZ (V/m) @ t=0.4
5.046673699646384
% es.tEX (V/m) @ t=0.4
1.6427923155220583
% es.tEY (V/m) @ t=0.4
0
% es.tEZ (V/m) @ t=0.4
5.046673699646387
% es.Ex (V/m) @ t=0.4
1.6427923155220694
% es.Ey (V/m) @ t=0.4
0.3979863343500851
% es.Ez (V/m) @ t=0.4
5.046673699646384
% es.tEx (V/m) @ t=0.4
1.6427923155220583
% es.tEy (V/m) @ t=0.4
0
% es.tEz (V/m) @ t=0.4
5.046673699646387
% V (V) @ t=0.4
0.024893046829788074
% es.normE (V/m) @ t=0.5
5.678690681624577
% es.EX (V/m) @ t=0.5
1.7528123302540868
% es.EY (V/m) @ t=0.5
0.4246392348569583
% es.EZ (V/m) @ t=0.5
5.384648476480335
% es.tEX (V/m) @ t=0.5
1.7528123302541019
% es.tEY (V/m) @ t=0.5
0
% es.tEZ (V/m) @ t=0.5
5.384648476480365
% es.Ex (V/m) @ t=0.5
1.7528123302540868
% es.Ey (V/m) @ t=0.5
0.4246392348569583
% es.Ez (V/m) @ t=0.5
5.384648476480335
% es.tEx (V/m) @ t=0.5
1.7528123302541019
% es.tEy (V/m) @ t=0.5
0
% es.tEz (V/m) @ t=0.5
5.384648476480365
% V (V) @ t=0.5
0.026560510046041624
% es.normE (V/m) @ t=0.6
6.043089566912022
% es.EX (V/m) @ t=0.6
1.8652917627975882
% es.EY (V/m) @ t=0.6
0.4518879113251977
% es.EZ (V/m) @ t=0.6
5.730178080693321
% es.tEX (V/m) @ t=0.6
1.865291762797625
% es.tEY (V/m) @ t=0.6
0
% es.tEZ (V/m) @ t=0.6
5.730178080693328
% es.Ex (V/m) @ t=0.6
1.8652917627975882
% es.Ey (V/m) @ t=0.6
0.4518879113251977
% es.Ez (V/m) @ t=0.6
5.730178080693321
% es.tEx (V/m) @ t=0.6
1.865291762797625
% es.tEy (V/m) @ t=0.6
0
% es.tEz (V/m) @ t=0.6
5.730178080693328
% V (V) @ t=0.6
0.028265262993110288
% es.normE (V/m) @ t=0.7
6.424808757994022
% es.EX (V/m) @ t=0.7
1.9831110871511823
% es.EY (V/m) @ t=0.7
0.48043236108660947
% es.EZ (V/m) @ t=0.7
6.092133148047182
% es.tEX (V/m) @ t=0.7
1.983111087151201
% es.tEY (V/m) @ t=0.7
0
% es.tEZ (V/m) @ t=0.7
6.092133148047182
% es.Ex (V/m) @ t=0.7
1.9831110871511823
% es.Ey (V/m) @ t=0.7
0.48043236108660947
% es.Ez (V/m) @ t=0.7
6.092133148047182
% es.tEx (V/m) @ t=0.7
1.983111087151201
% es.tEy (V/m) @ t=0.7
0
% es.tEz (V/m) @ t=0.7
6.092133148047182
% V (V) @ t=0.7
0.03005002286331222
% es.normE (V/m) @ t=0.8
6.81696173297969
% es.EX (V/m) @ t=0.8
2.1041471720996854
% es.EY (V/m) @ t=0.8
0.5097573870502012
% es.EZ (V/m) @ t=0.8
6.46398294444513
% es.tEX (V/m) @ t=0.8
2.104147172099715
% es.tEY (V/m) @ t=0.8
0
% es.tEZ (V/m) @ t=0.8
6.463982944445149
% es.Ex (V/m) @ t=0.8
2.1041471720996854
% es.Ey (V/m) @ t=0.8
0.5097573870502012
% es.Ez (V/m) @ t=0.8
6.46398294444513
% es.tEx (V/m) @ t=0.8
2.104147172099715
% es.tEy (V/m) @ t=0.8
0
% es.tEz (V/m) @ t=0.8
6.463982944445149
% V (V) @ t=0.8
0.0318829790503713
% es.normE (V/m) @ t=0.9
7.212517827703922
% es.EX (V/m) @ t=0.9
2.2262347921306502
% es.EY (V/m) @ t=0.9
0.5393367814705634
% es.EZ (V/m) @ t=0.9
6.839059293074415
% es.tEX (V/m) @ t=0.9
2.22623479213064
% es.tEY (V/m) @ t=0.9
0
% es.tEZ (V/m) @ t=0.9
6.839059293074435
% es.Ex (V/m) @ t=0.9
2.2262347921306502
% es.Ey (V/m) @ t=0.9
0.5393367814705634
% es.Ez (V/m) @ t=0.9
6.839059293074415
% es.tEx (V/m) @ t=0.9
2.22623479213064
% es.tEy (V/m) @ t=0.9
0
% es.tEz (V/m) @ t=0.9
6.839059293074435
% V (V) @ t=0.9
0.033732030150358125
% es.normE (V/m) @ t=1
7.615384721600577
% es.EX (V/m) @ t=1
2.35058138698968
% es.EY (V/m) @ t=1
0.5694626264573039
% es.EZ (V/m) @ t=1
7.221067127294525
% es.tEX (V/m) @ t=1
2.3505813869896883
% es.tEY (V/m) @ t=1
0
% es.tEZ (V/m) @ t=1
7.221067127294518
% es.Ex (V/m) @ t=1
2.35058138698968
% es.Ey (V/m) @ t=1
0.5694626264573039
% es.Ez (V/m) @ t=1
7.221067127294525
% es.tEx (V/m) @ t=1
2.3505813869896883
% es.tEy (V/m) @ t=1
0
% es.tEz (V/m) @ t=1
7.221067127294518
% V (V) @ t=1
0.03561565737031546
% es.normE (V/m) @ t=1.1
8.023448561026816
% es.EX (V/m) @ t=1.1
2.4765337938622793
% es.EY (V/m) @ t=1.1
0.599976920608241
% es.EZ (V/m) @ t=1.1
7.608002268669795
% es.tEX (V/m) @ t=1.1
2.4765337938622736
% es.tEY (V/m) @ t=1.1
0
% es.tEZ (V/m) @ t=1.1
7.60800226866985
% es.Ex (V/m) @ t=1.1
2.4765337938622793
% es.Ey (V/m) @ t=1.1
0.599976920608241
% es.Ez (V/m) @ t=1.1
7.608002268669795
% es.tEx (V/m) @ t=1.1
2.4765337938622736
% es.tEy (V/m) @ t=1.1
0
% es.tEz (V/m) @ t=1.1
7.60800226866985
% V (V) @ t=1.1
0.03752386332755846
% es.normE (V/m) @ t=1.2
8.436709345981711
% es.EX (V/m) @ t=1.2
2.6040920127485383
% es.EY (V/m) @ t=1.2
0.6308796639234737
% es.EZ (V/m) @ t=1.2
7.999864717200456
% es.tEX (V/m) @ t=1.2
2.604092012748538
% es.tEY (V/m) @ t=1.2
0
% es.tEZ (V/m) @ t=1.2
7.999864717200488
% es.Ex (V/m) @ t=1.2
2.6040920127485383
% es.Ey (V/m) @ t=1.2
0.6308796639234737
% es.Ez (V/m) @ t=1.2
7.999864717200456
% es.tEx (V/m) @ t=1.2
2.604092012748538
% es.tEy (V/m) @ t=1.2
0
% es.tEz (V/m) @ t=1.2
7.999864717200488
% V (V) @ t=1.2
0.03945664802208711
% es.normE (V/m) @ t=1.3
8.85262757282164
% es.EX (V/m) @ t=1.3
2.732471843003959
% es.EY (V/m) @ t=1.3
0.6619809959684506
% es.EZ (V/m) @ t=1.3
8.394246574233005
% es.tEX (V/m) @ t=1.3
2.732471843003964
% es.tEY (V/m) @ t=1.3
0
% es.tEZ (V/m) @ t=1.3
8.394246574233001
% es.Ex (V/m) @ t=1.3
2.732471843003959
% es.Ey (V/m) @ t=1.3
0.6619809959684506
% es.Ez (V/m) @ t=1.3
8.394246574233005
% es.tEx (V/m) @ t=1.3
2.732471843003964
% es.tEy (V/m) @ t=1.3
0
% es.tEz (V/m) @ t=1.3
8.394246574233001
% V (V) @ t=1.3
0.04140207734395318
% es.normE (V/m) @ t=1.4
9.263260337557806
% es.EX (V/m) @ t=1.4
2.8592205098735093
% es.EY (V/m) @ t=1.4
0.6926870829023506
% es.EZ (V/m) @ t=1.4
8.783616561807953
% es.tEX (V/m) @ t=1.4
2.8592205098735235
% es.tEY (V/m) @ t=1.4
0
% es.tEZ (V/m) @ t=1.4
8.78361656180796
% es.Ex (V/m) @ t=1.4
2.8592205098735093
% es.Ey (V/m) @ t=1.4
0.6926870829023506
% es.Ez (V/m) @ t=1.4
8.783616561807953
% es.tEx (V/m) @ t=1.4
2.8592205098735235
% es.tEy (V/m) @ t=1.4
0
% es.tEz (V/m) @ t=1.4
8.78361656180796
% V (V) @ t=1.4
0.0433228245148503
% es.normE (V/m) @ t=1.5
9.674559316930088
% es.EX (V/m) @ t=1.5
2.9861758956324187
% es.EY (V/m) @ t=1.5
0.7234428888168747
% es.EZ (V/m) @ t=1.5
9.17361792223434
% es.tEX (V/m) @ t=1.5
2.9861758956324422
% es.tEY (V/m) @ t=1.5
0
% es.tEZ (V/m) @ t=1.5
9.173617922234378
% es.Ex (V/m) @ t=1.5
2.9861758956324187
% es.Ey (V/m) @ t=1.5
0.7234428888168747
% es.Ez (V/m) @ t=1.5
9.17361792223434
% es.tEx (V/m) @ t=1.5
2.9861758956324422
% es.tEy (V/m) @ t=1.5
0
% es.tEz (V/m) @ t=1.5
9.173617922234378
% V (V) @ t=1.5
0.04524685876599347
% es.normE (V/m) @ t=1.6
10.086524510939391
% es.EX (V/m) @ t=1.6
3.113338000280774
% es.EY (V/m) @ t=1.6
0.7542484137118755
% es.EZ (V/m) @ t=1.6
9.564250655512073
% es.tEX (V/m) @ t=1.6
3.113338000280777
% es.tEY (V/m) @ t=1.6
0
% es.tEZ (V/m) @ t=1.6
9.56425065551204
% es.Ex (V/m) @ t=1.6
3.113338000280774
% es.Ey (V/m) @ t=1.6
0.7542484137118755
% es.Ez (V/m) @ t=1.6
9.564250655512073
% es.tEx (V/m) @ t=1.6
3.113338000280777
% es.tEy (V/m) @ t=1.6
0
% es.tEz (V/m) @ t=1.6
9.56425065551204
% V (V) @ t=1.6
0.047174180097382716
% es.normE (V/m) @ t=1.7
10.499155919586869
% es.EX (V/m) @ t=1.7
3.2407068238185825
% es.EY (V/m) @ t=1.7
0.7851036575872214
% es.EZ (V/m) @ t=1.7
9.955514761641101
% es.tEX (V/m) @ t=1.7
3.2407068238185843
% es.tEY (V/m) @ t=1.7
0
% es.tEZ (V/m) @ t=1.7
9.95551476164107
% es.Ex (V/m) @ t=1.7
3.2407068238185825
% es.Ey (V/m) @ t=1.7
0.7851036575872214
% es.Ez (V/m) @ t=1.7
9.955514761641101
% es.tEx (V/m) @ t=1.7
3.2407068238185843
% es.tEy (V/m) @ t=1.7
0
% es.tEz (V/m) @ t=1.7
9.95551476164107
% V (V) @ t=1.7
0.04910478850901803
% es.normE (V/m) @ t=1.8
10.890378549874516
% es.EX (V/m) @ t=1.8
3.3614642503282264
% es.EY (V/m) @ t=1.8
0.814358316706171
% es.EZ (V/m) @ t=1.8
10.326479673427619
% es.tEX (V/m) @ t=1.8
3.3614642503282255
% es.tEY (V/m) @ t=1.8
0
% es.tEZ (V/m) @ t=1.8
10.326479673427706
% es.Ex (V/m) @ t=1.8
3.3614642503282264
% es.Ey (V/m) @ t=1.8
0.814358316706171
% es.Ez (V/m) @ t=1.8
10.326479673427619
% es.tEx (V/m) @ t=1.8
3.3614642503282255
% es.tEy (V/m) @ t=1.8
0
% es.tEz (V/m) @ t=1.8
10.326479673427706
% V (V) @ t=1.8
0.050934736970789644
% es.normE (V/m) @ t=1.9
11.2738363129307
% es.EX (V/m) @ t=1.9
3.479824358956245
% es.EY (V/m) @ t=1.9
0.8430323958100372
% es.EZ (V/m) @ t=1.9
10.690081965696937
% es.tEX (V/m) @ t=1.9
3.4798243589562503
% es.tEY (V/m) @ t=1.9
0
% es.tEZ (V/m) @ t=1.9
10.690081965696947
% es.Ex (V/m) @ t=1.9
3.479824358956245
% es.Ey (V/m) @ t=1.9
0.8430323958100372
% es.Ez (V/m) @ t=1.9
10.690081965696937
% es.tEx (V/m) @ t=1.9
3.4798243589562503
% es.tEy (V/m) @ t=1.9
0
% es.tEz (V/m) @ t=1.9
10.690081965696947
% V (V) @ t=1.9
0.052728272118750294
% es.normE (V/m) @ t=2
11.649542958400971
% es.EX (V/m) @ t=2
3.5957913964390658
% es.EY (V/m) @ t=2
0.8711269228081884
% es.EZ (V/m) @ t=2
11.046334675276878
% es.tEX (V/m) @ t=2
3.5957913964391537
% es.tEY (V/m) @ t=2
0
% es.tEZ (V/m) @ t=2
11.04633467527691
% es.Ex (V/m) @ t=2
3.5957913964390658
% es.Ey (V/m) @ t=2
0.8711269228081884
% es.Ez (V/m) @ t=2
11.046334675276878
% es.tEx (V/m) @ t=2
3.5957913964391537
% es.tEy (V/m) @ t=2
0
% es.tEz (V/m) @ t=2
11.04633467527691
% V (V) @ t=2
0.05448545869742009
% es.normE (V/m) @ t=2.1
12.017498486285302
% es.EX (V/m) @ t=2.1
3.709365362776688
% es.EY (V/m) @ t=2.1
0.8986418977005579
% es.EZ (V/m) @ t=2.1
11.395237802167426
% es.tEX (V/m) @ t=2.1
3.7093653627767367
% es.tEY (V/m) @ t=2.1
0
% es.tEZ (V/m) @ t=2.1
11.395237802167372
% es.Ex (V/m) @ t=2.1
3.709365362776688
% es.Ey (V/m) @ t=2.1
0.8986418977005579
% es.Ez (V/m) @ t=2.1
11.395237802167426
% es.tEx (V/m) @ t=2.1
3.7093653627767367
% es.tEy (V/m) @ t=2.1
0
% es.tEz (V/m) @ t=2.1
11.395237802167372
% V (V) @ t=2.1
0.05620629670679904
% es.normE (V/m) @ t=2.2
12.367452636877664
% es.EX (V/m) @ t=2.2
3.8173822515722007
% es.EY (V/m) @ t=2.2
0.9248108338184942
% es.EZ (V/m) @ t=2.2
11.727071880347882
% es.tEX (V/m) @ t=2.2
3.8173822515722122
% es.tEY (V/m) @ t=2.2
0
% es.tEZ (V/m) @ t=2.2
11.727071880347935
% es.Ex (V/m) @ t=2.2
3.8173822515722007
% es.Ey (V/m) @ t=2.2
0.9248108338184942
% es.Ez (V/m) @ t=2.2
11.727071880347882
% es.tEx (V/m) @ t=2.2
3.8173822515722122
% es.tEy (V/m) @ t=2.2
0
% es.tEz (V/m) @ t=2.2
11.727071880347935
% V (V) @ t=2.2
0.05784282829003164
% es.normE (V/m) @ t=2.3
12.70143936808513
% es.EX (V/m) @ t=2.3
3.920469896267088
% es.EY (V/m) @ t=2.3
0.949785825027261
% es.EZ (V/m) @ t=2.3
12.043765542392475
% es.tEX (V/m) @ t=2.3
3.9204698962670363
% es.tEY (V/m) @ t=2.3
0
% es.tEZ (V/m) @ t=2.3
12.043765542392507
% es.Ex (V/m) @ t=2.3
3.920469896267088
% es.Ey (V/m) @ t=2.3
0.949785825027261
% es.Ez (V/m) @ t=2.3
12.043765542392475
% es.tEx (V/m) @ t=2.3
3.9204698962670363
% es.tEy (V/m) @ t=2.3
0
% es.tEz (V/m) @ t=2.3
12.043765542392507
% V (V) @ t=2.3
0.0594045697193819
% es.normE (V/m) @ t=2.4
13.0222022156556
% es.EX (V/m) @ t=2.4
4.019475159760956
% es.EY (V/m) @ t=2.4
0.9737720255023437
% es.EZ (V/m) @ t=2.4
12.347920254336135
% es.tEX (V/m) @ t=2.4
4.019475159760987
% es.tEY (V/m) @ t=2.4
0
% es.tEZ (V/m) @ t=2.4
12.34792025433616
% es.Ex (V/m) @ t=2.4
4.019475159760956
% es.Ey (V/m) @ t=2.4
0.9737720255023437
% es.Ez (V/m) @ t=2.4
12.347920254336135
% es.tEx (V/m) @ t=2.4
4.019475159760987
% es.tEy (V/m) @ t=2.4
0
% es.tEz (V/m) @ t=2.4
12.34792025433616
% V (V) @ t=2.4
0.06090435716665765
% es.normE (V/m) @ t=2.5
13.329741179589483
% es.EX (V/m) @ t=2.5
4.114398042053746
% es.EY (V/m) @ t=2.5
0.9967694352436096
% es.EZ (V/m) @ t=2.5
12.639536016178898
% es.tEX (V/m) @ t=2.5
4.114398042053779
% es.tEY (V/m) @ t=2.5
0
% es.tEZ (V/m) @ t=2.5
12.639536016178965
% es.Ex (V/m) @ t=2.5
4.114398042053746
% es.Ey (V/m) @ t=2.5
0.9967694352436096
% es.Ez (V/m) @ t=2.5
12.639536016178898
% es.tEx (V/m) @ t=2.5
4.114398042053779
% es.tEy (V/m) @ t=2.5
0
% es.tEz (V/m) @ t=2.5
12.639536016178965
% V (V) @ t=2.5
0.06234219063185888
% es.normE (V/m) @ t=2.6
13.623657982154196
% es.EX (V/m) @ t=2.6
4.205117480242522
% es.EY (V/m) @ t=2.6
1.018748096432489
% es.EZ (V/m) @ t=2.6
12.91823457608849
% es.tEX (V/m) @ t=2.6
4.2051174802425635
% es.tEY (V/m) @ t=2.6
0
% es.tEZ (V/m) @ t=2.6
12.91823457608848
% es.Ex (V/m) @ t=2.6
4.205117480242522
% es.Ey (V/m) @ t=2.6
1.018748096432489
% es.Ez (V/m) @ t=2.6
12.91823457608849
% es.tEx (V/m) @ t=2.6
4.2051174802425635
% es.tEy (V/m) @ t=2.6
0
% es.tEz (V/m) @ t=2.6
12.91823457608848
% V (V) @ t=2.6
0.06371650431579427
% es.normE (V/m) @ t=2.7
13.903538954590102
% es.EX (V/m) @ t=2.7
4.291507733075174
% es.EY (V/m) @ t=2.7
1.0396768935620386
% es.EZ (V/m) @ t=2.7
13.183623065086387
% es.tEX (V/m) @ t=2.7
4.291507733075207
% es.tEY (V/m) @ t=2.7
0
% es.tEZ (V/m) @ t=2.7
13.183623065086408
% es.Ex (V/m) @ t=2.7
4.291507733075174
% es.Ey (V/m) @ t=2.7
1.0396768935620386
% es.Ez (V/m) @ t=2.7
13.183623065086387
% es.tEx (V/m) @ t=2.7
4.291507733075207
% es.tEy (V/m) @ t=2.7
0
% es.tEz (V/m) @ t=2.7
13.183623065086408
% V (V) @ t=2.7
0.06502567191059934
% es.normE (V/m) @ t=2.8
14.169552320844385
% es.EX (V/m) @ t=2.8
4.373619934917181
% es.EY (V/m) @ t=2.8
1.059568480170566
% es.EZ (V/m) @ t=2.8
13.435861248609548
% es.tEX (V/m) @ t=2.8
4.373619934917201
% es.tEY (V/m) @ t=2.8
0
% es.tEZ (V/m) @ t=2.8
13.43586124860957
% es.Ex (V/m) @ t=2.8
4.373619934917181
% es.Ey (V/m) @ t=2.8
1.059568480170566
% es.Ez (V/m) @ t=2.8
13.435861248609548
% es.tEx (V/m) @ t=2.8
4.373619934917201
% es.tEy (V/m) @ t=2.8
0
% es.tEz (V/m) @ t=2.8
13.43586124860957
% V (V) @ t=2.8
0.06627035477617116
% es.normE (V/m) @ t=2.9
14.421586115510468
% es.EX (V/m) @ t=2.9
4.451420052087634
% es.EY (V/m) @ t=2.9
1.0784144343978488
% es.EZ (V/m) @ t=2.9
13.674842791008956
% es.tEX (V/m) @ t=2.9
4.451420052087656
% es.tEY (V/m) @ t=2.9
0
% es.tEZ (V/m) @ t=2.9
13.674842791008956
% es.Ex (V/m) @ t=2.9
4.451420052087634
% es.Ey (V/m) @ t=2.9
1.0784144343978488
% es.Ez (V/m) @ t=2.9
13.674842791008956
% es.tEx (V/m) @ t=2.9
4.451420052087656
% es.tEy (V/m) @ t=2.9
0
% es.tEz (V/m) @ t=2.9
13.674842791008956
% V (V) @ t=2.9
0.06745011272885354
% es.normE (V/m) @ t=3
14.66067765828691
% es.EX (V/m) @ t=3
4.525226947013682
% es.EY (V/m) @ t=3
1.0962924498293525
% es.EZ (V/m) @ t=3
13.901551721114252
% es.tEX (V/m) @ t=3
4.525226947013721
% es.tEY (V/m) @ t=3
0
% es.tEZ (V/m) @ t=3
13.90155172111433
% es.Ex (V/m) @ t=3
4.525226947013682
% es.Ey (V/m) @ t=3
1.0962924498293525
% es.Ez (V/m) @ t=3
13.901551721114252
% es.tEx (V/m) @ t=3
4.525226947013721
% es.tEy (V/m) @ t=3
0
% es.tEz (V/m) @ t=3
13.90155172111433
% V (V) @ t=3
0.06856958685704442
% es.normE (V/m) @ t=3.1
14.891107717908621
% es.EX (V/m) @ t=3.1
4.596355406061242
% es.EY (V/m) @ t=3.1
1.1135232503139827
% es.EZ (V/m) @ t=3.1
14.12004923425955
% es.tEX (V/m) @ t=3.1
4.596355406061264
% es.tEY (V/m) @ t=3.1
0
% es.tEZ (V/m) @ t=3.1
14.120049234259568
% es.Ex (V/m) @ t=3.1
4.596355406061242
% es.Ey (V/m) @ t=3.1
1.1135232503139827
% es.Ez (V/m) @ t=3.1
14.12004923425955
% es.tEx (V/m) @ t=3.1
4.596355406061264
% es.tEy (V/m) @ t=3.1
0
% es.tEz (V/m) @ t=3.1
14.120049234259568
% V (V) @ t=3.1
0.06964775833490809
% es.normE (V/m) @ t=3.2
15.111084322784993
% es.EX (V/m) @ t=3.2
4.6642555377846655
% es.EY (V/m) @ t=3.2
1.129972531839937
% es.EZ (V/m) @ t=3.2
14.32863511782195
% es.tEX (V/m) @ t=3.2
4.664255537784641
% es.tEY (V/m) @ t=3.2
0
% es.tEZ (V/m) @ t=3.2
14.328635117821989
% es.Ex (V/m) @ t=3.2
4.6642555377846655
% es.Ey (V/m) @ t=3.2
1.129972531839937
% es.Ez (V/m) @ t=3.2
14.32863511782195
% es.tEx (V/m) @ t=3.2
4.664255537784641
% es.tEy (V/m) @ t=3.2
0
% es.tEz (V/m) @ t=3.2
14.328635117821989
% V (V) @ t=3.2
0.07067675925836069
% es.normE (V/m) @ t=3.3
15.321197772714951
% es.EX (V/m) @ t=3.3
4.72910894399509
% es.EY (V/m) @ t=3.3
1.1456844929816965
% es.EZ (V/m) @ t=3.3
14.527869298192673
% es.tEX (V/m) @ t=3.3
4.729108943995129
% es.tEY (V/m) @ t=3.3
0
% es.tEZ (V/m) @ t=3.3
14.527869298192769
% es.Ex (V/m) @ t=3.3
4.72910894399509
% es.Ey (V/m) @ t=3.3
1.1456844929816965
% es.Ez (V/m) @ t=3.3
14.527869298192673
% es.tEx (V/m) @ t=3.3
4.729108943995129
% es.tEy (V/m) @ t=3.3
0
% es.tEz (V/m) @ t=3.3
14.527869298192769
% V (V) @ t=3.3
0.07165925433092157
% es.normE (V/m) @ t=3.4
15.522038367499018
% es.EX (V/m) @ t=3.4
4.791097226503901
% es.EY (V/m) @ t=3.4
1.1607033323134983
% es.EZ (V/m) @ t=3.4
14.718311701763227
% es.tEX (V/m) @ t=3.4
4.791097226503894
% es.tEY (V/m) @ t=3.4
0
% es.tEZ (V/m) @ t=3.4
14.71831170176327
% es.Ex (V/m) @ t=3.4
4.791097226503901
% es.Ey (V/m) @ t=3.4
1.1607033323134983
% es.Ez (V/m) @ t=3.4
14.718311701763227
% es.tEx (V/m) @ t=3.4
4.791097226503894
% es.tEy (V/m) @ t=3.4
0
% es.tEz (V/m) @ t=3.4
14.71831170176327
% V (V) @ t=3.4
0.07259790825611004
% es.normE (V/m) @ t=3.5
15.717852123576662
% es.EX (V/m) @ t=3.5
4.851537453991383
% es.EY (V/m) @ t=3.5
1.1753459495055623
% es.EZ (V/m) @ t=3.5
14.903986422098981
% es.tEX (V/m) @ t=3.5
4.851537453991398
% es.tEY (V/m) @ t=3.5
0
% es.tEZ (V/m) @ t=3.5
14.903986422098882
% es.Ex (V/m) @ t=3.5
4.851537453991383
% es.Ey (V/m) @ t=3.5
1.1753459495055623
% es.Ez (V/m) @ t=3.5
14.903986422098981
% es.tEx (V/m) @ t=3.5
4.851537453991398
% es.tEy (V/m) @ t=3.5
0
% es.tEz (V/m) @ t=3.5
14.903986422098882
% V (V) @ t=3.5
0.0735136135525919
% es.normE (V/m) @ t=3.6
15.907885132260743
% es.EX (V/m) @ t=3.6
4.910193716641958
% es.EY (V/m) @ t=3.6
1.1895562708286853
% es.EZ (V/m) @ t=3.6
15.084179609920724
% es.tEX (V/m) @ t=3.6
4.910193716642027
% es.tEY (V/m) @ t=3.6
0
% es.tEZ (V/m) @ t=3.6
15.084179609920682
% es.Ex (V/m) @ t=3.6
4.910193716641958
% es.Ey (V/m) @ t=3.6
1.1895562708286853
% es.Ez (V/m) @ t=3.6
15.084179609920724
% es.tEx (V/m) @ t=3.6
4.910193716642027
% es.tEy (V/m) @ t=3.6
0
% es.tEz (V/m) @ t=3.6
15.084179609920682
% V (V) @ t=3.6
0.0744023325488889
% es.normE (V/m) @ t=3.7
16.093166450925338
% es.EX (V/m) @ t=3.7
4.967383894523154
% es.EY (V/m) @ t=3.7
1.2034112243282626
% es.EZ (V/m) @ t=3.7
15.259866959507917
% es.tEX (V/m) @ t=3.7
4.967383894523152
% es.tEY (V/m) @ t=3.7
0
% es.tEZ (V/m) @ t=3.7
15.25986695950796
% es.Ex (V/m) @ t=3.7
4.967383894523154
% es.Ey (V/m) @ t=3.7
1.2034112243282626
% es.Ez (V/m) @ t=3.7
15.259866959507917
% es.tEx (V/m) @ t=3.7
4.967383894523152
% es.tEy (V/m) @ t=3.7
0
% es.tEz (V/m) @ t=3.7
15.25986695950796
% V (V) @ t=3.7
0.07526891764322935
% es.normE (V/m) @ t=3.8
16.274726461832447
% es.EX (V/m) @ t=3.8
5.023426279213126
% es.EY (V/m) @ t=3.8
1.2169878368810636
% es.EZ (V/m) @ t=3.8
15.43202542060735
% es.tEX (V/m) @ t=3.8
5.02342627921314
% es.tEY (V/m) @ t=3.8
0
% es.tEZ (V/m) @ t=3.8
15.432025420607445
% es.Ex (V/m) @ t=3.8
5.023426279213126
% es.Ey (V/m) @ t=3.8
1.2169878368810636
% es.Ez (V/m) @ t=3.8
15.43202542060735
% es.tEx (V/m) @ t=3.8
5.02342627921314
% es.tEy (V/m) @ t=3.8
0
% es.tEz (V/m) @ t=3.8
15.432025420607445
% V (V) @ t=3.8
0.07611822783988476
% es.normE (V/m) @ t=3.9
16.45269807632558
% es.EX (V/m) @ t=3.9
5.0783600241513565
% es.EY (V/m) @ t=3.9
1.2302962131894537
% es.EZ (V/m) @ t=3.9
15.600781620107949
% es.tEX (V/m) @ t=3.9
5.0783600241513795
% es.tEY (V/m) @ t=3.9
0
% es.tEZ (V/m) @ t=3.9
15.600781620108009
% es.Ex (V/m) @ t=3.9
5.0783600241513565
% es.Ey (V/m) @ t=3.9
1.2302962131894537
% es.Ez (V/m) @ t=3.9
15.600781620107949
% es.tEx (V/m) @ t=3.9
5.0783600241513795
% es.tEy (V/m) @ t=3.9
0
% es.tEz (V/m) @ t=3.9
15.600781620108009
% V (V) @ t=3.9
0.0769505876935415
% es.normE (V/m) @ t=4
16.62801852180965
% es.EX (V/m) @ t=4
5.132474447193596
% es.EY (V/m) @ t=4
1.243406433803913
% es.EZ (V/m) @ t=4
15.767024246730344
% es.tEX (V/m) @ t=4
5.1324744471936015
% es.tEY (V/m) @ t=4
0
% es.tEZ (V/m) @ t=4
15.767024246730358
% es.Ex (V/m) @ t=4
5.132474447193596
% es.Ey (V/m) @ t=4
1.243406433803913
% es.Ez (V/m) @ t=4
15.767024246730344
% es.tEx (V/m) @ t=4
5.1324744471936015
% es.tEy (V/m) @ t=4
0
% es.tEz (V/m) @ t=4
15.767024246730358
% V (V) @ t=4
0.07777038554586133
% es.normE (V/m) @ t=4.1
16.801776766358444
% es.EX (V/m) @ t=4.1
5.186106061716512
% es.EY (V/m) @ t=4.1
1.2563998941991992
% es.EZ (V/m) @ t=4.1
15.931785758265004
% es.tEX (V/m) @ t=4.1
5.186106061716487
% es.tEY (V/m) @ t=4.1
0
% es.tEZ (V/m) @ t=4.1
15.931785758265022
% es.Ex (V/m) @ t=4.1
5.186106061716512
% es.Ey (V/m) @ t=4.1
1.2563998941991992
% es.Ez (V/m) @ t=4.1
15.931785758265004
% es.tEx (V/m) @ t=4.1
5.186106061716487
% es.tEy (V/m) @ t=4.1
0
% es.tEz (V/m) @ t=4.1
15.931785758265022
% V (V) @ t=4.1
0.07858277640447933
% es.normE (V/m) @ t=4.2
16.974847839290874
% es.EX (V/m) @ t=4.2
5.239524840260588
% es.EY (V/m) @ t=4.2
1.2693420369690473
% es.EZ (V/m) @ t=4.2
16.095895912882924
% es.tEX (V/m) @ t=4.2
5.2395248402606285
% es.tEY (V/m) @ t=4.2
0
% es.tEZ (V/m) @ t=4.2
16.095895912882867
% es.Ex (V/m) @ t=4.2
5.239524840260588
% es.Ey (V/m) @ t=4.2
1.2693420369690473
% es.Ez (V/m) @ t=4.2
16.095895912882924
% es.tEx (V/m) @ t=4.2
5.2395248402606285
% es.tEy (V/m) @ t=4.2
0
% es.tEz (V/m) @ t=4.2
16.095895912882867
% V (V) @ t=4.2
0.079391834356769
% es.normE (V/m) @ t=4.3
17.14477890056685
% es.EX (V/m) @ t=4.3
5.291974325039928
% es.EY (V/m) @ t=4.3
1.2820493865059381
% es.EZ (V/m) @ t=4.3
16.257028671605184
% es.tEX (V/m) @ t=4.3
5.2919743250399165
% es.tEY (V/m) @ t=4.3
0
% es.tEZ (V/m) @ t=4.3
16.257028671605212
% es.Ex (V/m) @ t=4.3
5.291974325039928
% es.Ey (V/m) @ t=4.3
1.2820493865059381
% es.Ez (V/m) @ t=4.3
16.257028671605184
% es.tEx (V/m) @ t=4.3
5.2919743250399165
% es.tEy (V/m) @ t=4.3
0
% es.tEz (V/m) @ t=4.3
16.257028671605212
% V (V) @ t=4.3
0.08018619072130441
% es.normE (V/m) @ t=4.4
17.308993501647237
% es.EX (V/m) @ t=4.4
5.342659933120711
% es.EY (V/m) @ t=4.4
1.2943292215262083
% es.EZ (V/m) @ t=4.4
16.412740778306997
% es.tEX (V/m) @ t=4.4
5.3426599331207285
% es.tEY (V/m) @ t=4.4
0
% es.tEZ (V/m) @ t=4.4
16.41274077830714
% es.Ex (V/m) @ t=4.4
5.342659933120711
% es.Ey (V/m) @ t=4.4
1.2943292215262083
% es.Ez (V/m) @ t=4.4
16.412740778306997
% es.tEx (V/m) @ t=4.4
5.3426599331207285
% es.tEy (V/m) @ t=4.4
0
% es.tEz (V/m) @ t=4.4
16.41274077830714
% V (V) @ t=4.4
0.0809539032191847
% es.normE (V/m) @ t=4.5
17.469770405115426
% es.EX (V/m) @ t=4.5
5.392284597065733
% es.EY (V/m) @ t=4.5
1.3063519811601907
% es.EZ (V/m) @ t=4.5
16.565193142403142
% es.tEX (V/m) @ t=4.5
5.392284597065725
% es.tEY (V/m) @ t=4.5
0
% es.tEZ (V/m) @ t=4.5
16.565193142403103
% es.Ex (V/m) @ t=4.5
5.392284597065733
% es.Ey (V/m) @ t=4.5
1.3063519811601907
% es.Ez (V/m) @ t=4.5
16.565193142403142
% es.tEx (V/m) @ t=4.5
5.392284597065725
% es.tEy (V/m) @ t=4.5
0
% es.tEz (V/m) @ t=4.5
16.565193142403103
% V (V) @ t=4.5
0.08170555987385462
% es.normE (V/m) @ t=4.6
17.627049680509643
% es.EX (V/m) @ t=4.6
5.440829915393014
% es.EY (V/m) @ t=4.6
1.3181131748167552
% es.EZ (V/m) @ t=4.6
16.71432890570679
% es.tEX (V/m) @ t=4.6
5.440829915393067
% es.tEY (V/m) @ t=4.6
0
% es.tEZ (V/m) @ t=4.6
16.714328905706708
% es.Ex (V/m) @ t=4.6
5.440829915393014
% es.Ey (V/m) @ t=4.6
1.3181131748167552
% es.Ez (V/m) @ t=4.6
16.71432890570679
% es.tEx (V/m) @ t=4.6
5.440829915393067
% es.tEy (V/m) @ t=4.6
0
% es.tEz (V/m) @ t=4.6
16.714328905706708
% V (V) @ t=4.6
0.08244089615053445
% es.normE (V/m) @ t=4.7
17.780771397368085
% es.EX (V/m) @ t=4.7
5.488277486620595
% es.EY (V/m) @ t=4.7
1.329608311902919
% es.EZ (V/m) @ t=4.7
16.860091210031225
% es.tEX (V/m) @ t=4.7
5.488277486620575
% es.tEY (V/m) @ t=4.7
0
% es.tEZ (V/m) @ t=4.7
16.860091210031314
% es.Ex (V/m) @ t=4.7
5.488277486620595
% es.Ey (V/m) @ t=4.7
1.329608311902919
% es.Ez (V/m) @ t=4.7
16.860091210031225
% es.tEx (V/m) @ t=4.7
5.488277486620575
% es.tEy (V/m) @ t=4.7
0
% es.tEz (V/m) @ t=4.7
16.860091210031314
% V (V) @ t=4.7
0.08315964751444435
% es.normE (V/m) @ t=4.8
17.930875625229135
% es.EX (V/m) @ t=4.8
5.5346089092665975
% es.EY (V/m) @ t=4.8
1.340832901827298
% es.EZ (V/m) @ t=4.8
17.00242319718978
% es.tEX (V/m) @ t=4.8
5.5346089092666375
% es.tEY (V/m) @ t=4.8
0
% es.tEZ (V/m) @ t=4.8
17.002423197189756
% es.Ex (V/m) @ t=4.8
5.5346089092665975
% es.Ey (V/m) @ t=4.8
1.340832901827298
% es.Ez (V/m) @ t=4.8
17.00242319718978
% es.tEx (V/m) @ t=4.8
5.5346089092666375
% es.tEy (V/m) @ t=4.8
0
% es.tEz (V/m) @ t=4.8
17.002423197189756
% V (V) @ t=4.8
0.08386154943080462
% es.normE (V/m) @ t=4.9
18.077302433631594
% es.EX (V/m) @ t=4.9
5.579805781849271
% es.EY (V/m) @ t=4.9
1.351782453997366
% es.EZ (V/m) @ t=4.9
17.141268008996256
% es.tEX (V/m) @ t=4.9
5.579805781849245
% es.tEY (V/m) @ t=4.9
0
% es.tEZ (V/m) @ t=4.9
17.141268008996278
% es.Ex (V/m) @ t=4.9
5.579805781849271
% es.Ey (V/m) @ t=4.9
1.351782453997366
% es.Ez (V/m) @ t=4.9
17.141268008996256
% es.tEx (V/m) @ t=4.9
5.579805781849245
% es.tEy (V/m) @ t=4.9
0
% es.tEz (V/m) @ t=4.9
17.141268008996278
% V (V) @ t=4.9
0.08454633736483545
% es.normE (V/m) @ t=5
18.219991892112844
% es.EX (V/m) @ t=5
5.623849702886179
% es.EY (V/m) @ t=5
1.3624524778211171
% es.EZ (V/m) @ t=5
17.276568787263063
% es.tEX (V/m) @ t=5
5.623849702886162
% es.tEY (V/m) @ t=5
0
% es.tEZ (V/m) @ t=5
17.276568787263173
% es.Ex (V/m) @ t=5
5.623849702886179
% es.Ey (V/m) @ t=5
1.3624524778211171
% es.Ez (V/m) @ t=5
17.276568787263063
% es.tEx (V/m) @ t=5
5.623849702886162
% es.tEy (V/m) @ t=5
0
% es.tEz (V/m) @ t=5
17.276568787263173
% V (V) @ t=5
0.08521374678175708
% es.normE (V/m) @ t=5.1
18.35888407021197
% es.EX (V/m) @ t=5.1
5.666722270895874
% es.EY (V/m) @ t=5.1
1.372838482706766
% es.EZ (V/m) @ t=5.1
17.408268673804
% es.tEX (V/m) @ t=5.1
5.666722270895889
% es.tEY (V/m) @ t=5.1
0
% es.tEZ (V/m) @ t=5.1
17.408268673803946
% es.Ex (V/m) @ t=5.1
5.666722270895874
% es.Ey (V/m) @ t=5.1
1.372838482706766
% es.Ez (V/m) @ t=5.1
17.408268673804
% es.tEx (V/m) @ t=5.1
5.666722270895889
% es.tEy (V/m) @ t=5.1
0
% es.tEz (V/m) @ t=5.1
17.408268673803946
% V (V) @ t=5.1
0.08586351314678982
% es.normE (V/m) @ t=5.2
18.48260645880173
% es.EX (V/m) @ t=5.2
5.704911420479588
% es.EY (V/m) @ t=5.2
1.3820902121877472
% es.EZ (V/m) @ t=5.2
17.525584593157618
% es.tEX (V/m) @ t=5.2
5.704911420479618
% es.tEY (V/m) @ t=5.2
0
% es.tEZ (V/m) @ t=5.2
17.52558459315759
% es.Ex (V/m) @ t=5.2
5.704911420479588
% es.Ey (V/m) @ t=5.2
1.3820902121877472
% es.Ez (V/m) @ t=5.2
17.525584593157618
% es.tEx (V/m) @ t=5.2
5.704911420479618
% es.tEy (V/m) @ t=5.2
0
% es.tEz (V/m) @ t=5.2
17.52558459315759
% V (V) @ t=5.2
0.08644216724083262
% es.normE (V/m) @ t=5.3
18.600236849988015
% es.EX (V/m) @ t=5.3
5.741220379318522
% es.EY (V/m) @ t=5.3
1.3908863770631585
% es.EZ (V/m) @ t=5.3
17.637123896226942
% es.tEX (V/m) @ t=5.3
5.74122037931852
% es.tEY (V/m) @ t=5.3
0
% es.tEZ (V/m) @ t=5.3
17.637123896226953
% es.Ex (V/m) @ t=5.3
5.741220379318522
% es.Ey (V/m) @ t=5.3
1.3908863770631585
% es.Ez (V/m) @ t=5.3
17.637123896226942
% es.tEx (V/m) @ t=5.3
5.74122037931852
% es.tEy (V/m) @ t=5.3
0
% es.tEz (V/m) @ t=5.3
17.637123896226953
% V (V) @ t=5.3
0.08699235991776151
% es.normE (V/m) @ t=5.4
18.711777606104164
% es.EX (V/m) @ t=5.4
5.775649876937163
% es.EY (V/m) @ t=5.4
1.399227153952717
% es.EZ (V/m) @ t=5.4
17.742888822910302
% es.tEX (V/m) @ t=5.4
5.775649876937166
% es.tEY (V/m) @ t=5.4
0
% es.tEZ (V/m) @ t=5.4
17.74288882291033
% es.Ex (V/m) @ t=5.4
5.775649876937163
% es.Ey (V/m) @ t=5.4
1.399227153952717