% Model:              1x1--2 - Copy1.mph
% Version:            COMSOL 6.0.0.405
% Date:               Mar 7 2023, 19:22
% Dimension:          0
% Nodes:              14017
% Expressions:        14017
% Description:        Electric field norm, Electric field, X component, Electric field, Y component, Electric field, Z component, Tangential electric field, X component, Tangential electric field, Y component, Tangential electric field, Z component, Electric field, x component, Electric field, y component, Electric field, z component, Tangential electric field, x component, Tangential electric field, y component, Tangential electric field, z component, Electric potential
% Length unit:        mm
% x
1
% y
12.2
% z
1.33
% es.normE (V/m) @ t=0
3.2253882676450836
% es.EX (V/m) @ t=0
2.980682117138267
% es.EY (V/m) @ t=0
0.18768155805329423
% es.EZ (V/m) @ t=0
1.2049750577272058
% es.tEX (V/m) @ t=0
2.980682117138267
% es.tEY (V/m) @ t=0
0
% es.tEZ (V/m) @ t=0
1.204975057727208
% es.Ex (V/m) @ t=0
2.980682117138267
% es.Ey (V/m) @ t=0
0.18768155805329423
% es.Ez (V/m) @ t=0
1.2049750577272058
% es.tEx (V/m) @ t=0
2.980682117138267
% es.tEy (V/m) @ t=0
0
% es.tEz (V/m) @ t=0
1.204975057727208
% V (V) @ t=0
0.016088769574793625
% es.normE (V/m) @ t=0.1
3.351654914783382
% es.EX (V/m) @ t=0.1
3.097369109047083
% es.EY (V/m) @ t=0.1
0.19502891803244693
% es.EZ (V/m) @ t=0.1
1.2521470171588778
% es.tEX (V/m) @ t=0.1
3.097369109047081
% es.tEY (V/m) @ t=0.1
0
% es.tEZ (V/m) @ t=0.1
1.2521470171588813
% es.Ex (V/m) @ t=0.1
3.097369109047083
% es.Ey (V/m) @ t=0.1
0.19502891803244693
% es.Ez (V/m) @ t=0.1
1.2521470171588778
% es.tEx (V/m) @ t=0.1
3.097369109047081
% es.tEy (V/m) @ t=0.1
0
% es.tEz (V/m) @ t=0.1
1.2521470171588813
% V (V) @ t=0.1
0.01671860735756489
% es.normE (V/m) @ t=0.2
3.5633409129656632
% es.EX (V/m) @ t=0.2
3.292994771619151
% es.EY (V/m) @ t=0.2
0.20734665491648552
% es.EZ (V/m) @ t=0.2
1.3312309047239506
% es.tEX (V/m) @ t=0.2
3.2929947716191723
% es.tEY (V/m) @ t=0.2
0
% es.tEZ (V/m) @ t=0.2
1.3312309047239559
% es.Ex (V/m) @ t=0.2
3.292994771619151
% es.Ey (V/m) @ t=0.2
0.20734665491648552
% es.Ez (V/m) @ t=0.2
1.3312309047239506
% es.tEx (V/m) @ t=0.2
3.2929947716191723
% es.tEy (V/m) @ t=0.2
0
% es.tEz (V/m) @ t=0.2
1.3312309047239559
% V (V) @ t=0.2
0.017774534848830837
% es.normE (V/m) @ t=0.3
3.786094734280914
% es.EX (V/m) @ t=0.3
3.4988485506875637
% es.EY (V/m) @ t=0.3
0.22030842651915217
% es.EZ (V/m) @ t=0.3
1.4144496388728536
% es.tEX (V/m) @ t=0.3
3.498848550687555
% es.tEY (V/m) @ t=0.3
0
% es.tEZ (V/m) @ t=0.3
1.4144496388728536
% es.Ex (V/m) @ t=0.3
3.4988485506875637
% es.Ey (V/m) @ t=0.3
0.22030842651915217
% es.Ez (V/m) @ t=0.3
1.4144496388728536
% es.tEx (V/m) @ t=0.3
3.498848550687555
% es.tEy (V/m) @ t=0.3
0
% es.tEz (V/m) @ t=0.3
1.4144496388728536
% V (V) @ t=0.3
0.018885669303658172
% es.normE (V/m) @ t=0.4
4.02409405820754
% es.EX (V/m) @ t=0.4
3.718791145998873
% es.EY (V/m) @ t=0.4
0.23415739298480265
% es.EZ (V/m) @ t=0.4
1.5033640111600417
% es.tEX (V/m) @ t=0.4
3.718791145998871
% es.tEY (V/m) @ t=0.4
0
% es.tEZ (V/m) @ t=0.4
1.503364011160044
% es.Ex (V/m) @ t=0.4
3.718791145998873
% es.Ey (V/m) @ t=0.4
0.23415739298480265
% es.Ez (V/m) @ t=0.4
1.5033640111600417
% es.tEx (V/m) @ t=0.4
3.718791145998871
% es.tEy (V/m) @ t=0.4
0
% es.tEz (V/m) @ t=0.4
1.503364011160044
% V (V) @ t=0.4
0.020072843097602995
% es.normE (V/m) @ t=0.5
4.282987046450843
% es.EX (V/m) @ t=0.5
3.958042224465748
% es.EY (V/m) @ t=0.5
0.2492221495159317
% es.EZ (V/m) @ t=0.5
1.600084072945378
% es.tEX (V/m) @ t=0.5
3.9580422244657427
% es.tEY (V/m) @ t=0.5
0
% es.tEZ (V/m) @ t=0.5
1.6000840729453918
% es.Ex (V/m) @ t=0.5
3.958042224465748
% es.Ey (V/m) @ t=0.5
0.2492221495159317
% es.Ez (V/m) @ t=0.5
1.600084072945378
% es.tEx (V/m) @ t=0.5
3.9580422244657427
% es.tEy (V/m) @ t=0.5
0
% es.tEz (V/m) @ t=0.5
1.6000840729453918
% V (V) @ t=0.5
0.021364236647803778
% es.normE (V/m) @ t=0.6
4.543249350558204
% es.EX (V/m) @ t=0.6
4.198558729991522
% es.EY (V/m) @ t=0.6
0.2643665868479339
% es.EZ (V/m) @ t=0.6
1.6973156994600855
% es.tEX (V/m) @ t=0.6
4.198558729991522
% es.tEY (V/m) @ t=0.6
0
% es.tEZ (V/m) @ t=0.6
1.6973156994600895
% es.Ex (V/m) @ t=0.6
4.198558729991522
% es.Ey (V/m) @ t=0.6
0.2643665868479339
% es.Ez (V/m) @ t=0.6
1.6973156994600855
% es.tEx (V/m) @ t=0.6
4.198558729991522
% es.tEy (V/m) @ t=0.6
0
% es.tEz (V/m) @ t=0.6
1.6973156994600895
% V (V) @ t=0.6
0.02266246039533983
% es.normE (V/m) @ t=0.7
4.829059841081485
% es.EX (V/m) @ t=0.7
4.462685103222311
% es.EY (V/m) @ t=0.7
0.28099767894616123
% es.EZ (V/m) @ t=0.7
1.8040919105457394
% es.tEX (V/m) @ t=0.7
4.462685103222331
% es.tEY (V/m) @ t=0.7
0
% es.tEZ (V/m) @ t=0.7
1.804091910545738
% es.Ex (V/m) @ t=0.7
4.462685103222311
% es.Ey (V/m) @ t=0.7
0.28099767894616123
% es.Ez (V/m) @ t=0.7
1.8040919105457394
% es.tEx (V/m) @ t=0.7
4.462685103222331
% es.tEy (V/m) @ t=0.7
0
% es.tEz (V/m) @ t=0.7
1.804091910545738
% V (V) @ t=0.7
0.024088119425972457
% es.normE (V/m) @ t=0.8
5.1168476106514555
% es.EX (V/m) @ t=0.8
4.728638742882307
% es.EY (V/m) @ t=0.8
0.29774382411175737
% es.EZ (V/m) @ t=0.8
1.911606812499051
% es.tEX (V/m) @ t=0.8
4.728638742882321
% es.tEY (V/m) @ t=0.8
0
% es.tEZ (V/m) @ t=0.8
1.9116068124990502
% es.Ex (V/m) @ t=0.8
4.728638742882307
% es.Ey (V/m) @ t=0.8
0.29774382411175737
% es.Ez (V/m) @ t=0.8
1.911606812499051
% es.tEx (V/m) @ t=0.8
4.728638742882321
% es.tEy (V/m) @ t=0.8
0
% es.tEz (V/m) @ t=0.8
1.9116068124990502
% V (V) @ t=0.8
0.02552364170726485
% es.normE (V/m) @ t=0.9
5.430952738693577
% es.EX (V/m) @ t=0.9
5.01891309019485
% es.EY (V/m) @ t=0.9
0.31602131247379717
% es.EZ (V/m) @ t=0.9
2.028953605603946
% es.tEX (V/m) @ t=0.9
5.018913090194857
% es.tEY (V/m) @ t=0.9
0
% es.tEZ (V/m) @ t=0.9
2.0289536056039488
% es.Ex (V/m) @ t=0.9
5.01891309019485
% es.Ey (V/m) @ t=0.9
0.31602131247379717
% es.Ez (V/m) @ t=0.9
2.028953605603946
% es.tEx (V/m) @ t=0.9
5.018913090194857
% es.tEy (V/m) @ t=0.9
0
% es.tEz (V/m) @ t=0.9
2.0289536056039488
% V (V) @ t=0.9
0.027090442729286176
% es.normE (V/m) @ t=1
5.747629991700224
% es.EX (V/m) @ t=1
5.311564437459193
% es.EY (V/m) @ t=1
0.334448417155226
% es.EZ (V/m) @ t=1
2.1472612820093264
% es.tEX (V/m) @ t=1
5.311564437459218
% es.tEY (V/m) @ t=1
0
% es.tEZ (V/m) @ t=1
2.1472612820093175
% es.Ex (V/m) @ t=1
5.311564437459193
% es.Ey (V/m) @ t=1
0.334448417155226
% es.Ez (V/m) @ t=1
2.1472612820093264
% es.tEx (V/m) @ t=1
5.311564437459218
% es.tEy (V/m) @ t=1
0
% es.tEz (V/m) @ t=1
2.1472612820093175
% V (V) @ t=1
0.02867007911946691
% es.normE (V/m) @ t=1.1
6.090670290948696
% es.EX (V/m) @ t=1.1
5.628578893246878
% es.EY (V/m) @ t=1.1
0.3544090172925429
% es.EZ (V/m) @ t=1.1
2.275417551011282
% es.tEX (V/m) @ t=1.1
5.628578893246907
% es.tEY (V/m) @ t=1.1
0
% es.tEZ (V/m) @ t=1.1
2.275417551011275
% es.Ex (V/m) @ t=1.1
5.628578893246878
% es.Ey (V/m) @ t=1.1
0.3544090172925429
% es.Ez (V/m) @ t=1.1
2.275417551011282
% es.tEx (V/m) @ t=1.1
5.628578893246907
% es.tEy (V/m) @ t=1.1
0
% es.tEz (V/m) @ t=1.1
2.275417551011275
% V (V) @ t=1.1
0.03038127187217823
% es.normE (V/m) @ t=1.2
6.434887079009611
% es.EX (V/m) @ t=1.2
5.946680570255253
% es.EY (V/m) @ t=1.2
0.3744380994036409
% es.EZ (V/m) @ t=1.2
2.404013363553302
% es.tEX (V/m) @ t=1.2
5.94668057025525
% es.tEY (V/m) @ t=1.2
0
% es.tEZ (V/m) @ t=1.2
2.404013363553302
% es.Ex (V/m) @ t=1.2
5.946680570255253
% es.Ey (V/m) @ t=1.2
0.3744380994036409
% es.Ez (V/m) @ t=1.2
2.404013363553302
% es.tEx (V/m) @ t=1.2
5.94668057025525
% es.tEy (V/m) @ t=1.2
0
% es.tEz (V/m) @ t=1.2
2.404013363553302
% V (V) @ t=1.2
0.03209833080089208
% es.normE (V/m) @ t=1.3
6.7946133185028685
% es.EX (V/m) @ t=1.3
6.279114899254285
% es.EY (V/m) @ t=1.3
0.3953699677000295
% es.EZ (V/m) @ t=1.3
2.5384036036450874
% es.tEX (V/m) @ t=1.3
6.279114899254278
% es.tEY (V/m) @ t=1.3
0
% es.tEZ (V/m) @ t=1.3
2.538403603645067
% es.Ex (V/m) @ t=1.3
6.279114899254285
% es.Ey (V/m) @ t=1.3
0.3953699677000295
% es.Ez (V/m) @ t=1.3
2.5384036036450874
% es.tEx (V/m) @ t=1.3
6.279114899254278
% es.tEy (V/m) @ t=1.3
0
% es.tEz (V/m) @ t=1.3
2.538403603645067
% V (V) @ t=1.3
0.03389272252772
% es.normE (V/m) @ t=1.4
7.164778721929219
% es.EX (V/m) @ t=1.4
6.6211963072863576
% es.EY (V/m) @ t=1.4
0.41690948695209684
% es.EZ (V/m) @ t=1.4
2.6766939803312804
% es.tEX (V/m) @ t=1.4
6.6211963072863576
% es.tEY (V/m) @ t=1.4
0
% es.tEZ (V/m) @ t=1.4
2.6766939803312955
% es.Ex (V/m) @ t=1.4
6.6211963072863576
% es.Ey (V/m) @ t=1.4
0.41690948695209684
% es.Ez (V/m) @ t=1.4
2.6766939803312804
% es.tEx (V/m) @ t=1.4
6.6211963072863576
% es.tEy (V/m) @ t=1.4
0
% es.tEz (V/m) @ t=1.4
2.6766939803312955
% V (V) @ t=1.4
0.03573916572525487
% es.normE (V/m) @ t=1.5
7.545383289288617
% es.EX (V/m) @ t=1.5
6.972924794351389
% es.EY (V/m) @ t=1.5
0.4390566571598873
% es.EZ (V/m) @ t=1.5
2.818884493611937
% es.tEX (V/m) @ t=1.5
6.972924794351407
% es.tEY (V/m) @ t=1.5
0
% es.tEZ (V/m) @ t=1.5
2.818884493611934
% es.Ex (V/m) @ t=1.5
6.972924794351389
% es.Ey (V/m) @ t=1.5
0.4390566571598873
% es.Ez (V/m) @ t=1.5
2.818884493611937
% es.tEx (V/m) @ t=1.5
6.972924794351407
% es.tEy (V/m) @ t=1.5
0
% es.tEz (V/m) @ t=1.5
2.818884493611934
% V (V) @ t=1.5
0.03763766039349669
% es.normE (V/m) @ t=1.6
7.936428322434617
% es.EX (V/m) @ t=1.6
7.334301590661685
% es.EY (V/m) @ t=1.6
0.4618114853324684
% es.EZ (V/m) @ t=1.6
2.9649755737008867
% es.tEX (V/m) @ t=1.6
7.334301590661688
% es.tEY (V/m) @ t=1.6
0
% es.tEZ (V/m) @ t=1.6
2.9649755737008974
% es.Ex (V/m) @ t=1.6
7.334301590661685
% es.Ey (V/m) @ t=1.6
0.4618114853324684
% es.Ez (V/m) @ t=1.6
2.9649755737008867
% es.tEx (V/m) @ t=1.6
7.334301590661688
% es.tEy (V/m) @ t=1.6
0
% es.tEz (V/m) @ t=1.6
2.9649755737008974
% V (V) @ t=1.6
0.0395882199925598
% es.normE (V/m) @ t=1.7
8.337922627689718
% es.EX (V/m) @ t=1.7
7.705335017926327
% es.EY (V/m) @ t=1.7
0.4851740188836864
% es.EZ (V/m) @ t=1.7
3.1149701307580253
% es.tEX (V/m) @ t=1.7
7.705335017926309
% es.tEY (V/m) @ t=1.7
0
% es.tEZ (V/m) @ t=1.7
3.114970130758005
% es.Ex (V/m) @ t=1.7
7.705335017926327
% es.Ey (V/m) @ t=1.7
0.4851740188836864
% es.Ez (V/m) @ t=1.7
3.1149701307580253
% es.tEx (V/m) @ t=1.7
7.705335017926309
% es.tEy (V/m) @ t=1.7
0
% es.tEz (V/m) @ t=1.7
3.114970130758005
% V (V) @ t=1.7
0.0415909355727114
% es.normE (V/m) @ t=1.8
8.749860440387806
% es.EX (V/m) @ t=1.8
8.086019628709774
% es.EY (V/m) @ t=1.8
0.5091442267761406
% es.EZ (V/m) @ t=1.8
3.268866259776998
% es.tEX (V/m) @ t=1.8
8.086019628709785
% es.tEY (V/m) @ t=1.8
0
% es.tEZ (V/m) @ t=1.8
3.268866259776969
% es.Ex (V/m) @ t=1.8
8.086019628709774
% es.Ey (V/m) @ t=1.8
0.5091442267761406
% es.Ez (V/m) @ t=1.8
3.268866259776998
% es.tEx (V/m) @ t=1.8
8.086019628709785
% es.tEy (V/m) @ t=1.8
0
% es.tEz (V/m) @ t=1.8
3.268866259776969
% V (V) @ t=1.8
0.043645747531957574
% es.normE (V/m) @ t=1.9
9.172241760528998
% es.EX (V/m) @ t=1.9
8.47635542301213
% es.EY (V/m) @ t=1.9
0.5337221090100543
% es.EZ (V/m) @ t=1.9
3.4266639607578453
% es.tEX (V/m) @ t=1.9
8.476355423012187
% es.tEY (V/m) @ t=1.9
0
% es.tEZ (V/m) @ t=1.9
3.4266639607578586
% es.Ex (V/m) @ t=1.9
8.47635542301213
% es.Ey (V/m) @ t=1.9
0.5337221090100543
% es.Ez (V/m) @ t=1.9
3.4266639607578453
% es.tEx (V/m) @ t=1.9
8.476355423012187
% es.tEy (V/m) @ t=1.9
0
% es.tEz (V/m) @ t=1.9
3.4266639607578586
% V (V) @ t=1.9
0.04575265587029836
% es.normE (V/m) @ t=2
9.603061576230203
% es.EX (V/m) @ t=2
8.87448952962604
% es.EY (V/m) @ t=2
0.5587909312533554
% es.EZ (V/m) @ t=2
3.5876141330093256
% es.tEX (V/m) @ t=2
8.874489529626025
% es.tEY (V/m) @ t=2
0
% es.tEZ (V/m) @ t=2
3.587614133009321
% es.Ex (V/m) @ t=2
8.87448952962604
% es.Ey (V/m) @ t=2
0.5587909312533554
% es.Ez (V/m) @ t=2
3.5876141330093256
% es.tEx (V/m) @ t=2
8.874489529626025
% es.tEy (V/m) @ t=2
0
% es.tEz (V/m) @ t=2
3.587614133009321
% V (V) @ t=2
0.047901665518506456
% es.normE (V/m) @ t=2.1
10.032317305657102
% es.EX (V/m) @ t=2.1
9.271178364493075
% es.EY (V/m) @ t=2.1
0.5837683305198396
% es.EZ (V/m) @ t=2.1
3.7479796710152034
% es.tEX (V/m) @ t=2.1
9.271178364493089
% es.tEY (V/m) @ t=2.1
0
% es.tEZ (V/m) @ t=2.1
3.7479796710152122
% es.Ex (V/m) @ t=2.1
9.271178364493075
% es.Ey (V/m) @ t=2.1
0.5837683305198396
% es.Ez (V/m) @ t=2.1
3.7479796710152034
% es.tEx (V/m) @ t=2.1
9.271178364493089
% es.tEy (V/m) @ t=2.1
0
% es.tEz (V/m) @ t=2.1
3.7479796710152122
% V (V) @ t=2.1
0.05004291318214256
% es.normE (V/m) @ t=2.2
10.466758403627813
% es.EX (V/m) @ t=2.2
9.672659232540365
% es.EY (V/m) @ t=2.2
0.6090472686196802
% es.EZ (V/m) @ t=2.2
3.910282266199724
% es.tEX (V/m) @ t=2.2
9.672659232540362
% es.tEY (V/m) @ t=2.2
0
% es.tEZ (V/m) @ t=2.2
3.9102822661997223
% es.Ex (V/m) @ t=2.2
9.672659232540365
% es.Ey (V/m) @ t=2.2
0.6090472686196802
% es.Ez (V/m) @ t=2.2
3.910282266199724
% es.tEx (V/m) @ t=2.2
9.672659232540362
% es.tEy (V/m) @ t=2.2
0
% es.tEz (V/m) @ t=2.2
3.9102822661997223
% V (V) @ t=2.2
0.05221004517957406
% es.normE (V/m) @ t=2.3
10.906384870142274
% es.EX (V/m) @ t=2.3
10.078932133767822
% es.EY (V/m) @ t=2.3
0.6346277455528195
% es.EZ (V/m) @ t=2.3
4.074521918562802
% es.tEX (V/m) @ t=2.3
10.078932133767843
% es.tEY (V/m) @ t=2.3
0
% es.tEZ (V/m) @ t=2.3
4.074521918562784
% es.Ex (V/m) @ t=2.3
10.078932133767822
% es.Ey (V/m) @ t=2.3
0.6346277455528195
% es.Ez (V/m) @ t=2.3
4.074521918562802
% es.tEx (V/m) @ t=2.3
10.078932133767843
% es.tEy (V/m) @ t=2.3
0
% es.tEz (V/m) @ t=2.3
4.074521918562784
% V (V) @ t=2.3
0.054403061510800946
% es.normE (V/m) @ t=2.4
11.347263423503895
% es.EX (V/m) @ t=2.4
10.48636209850207
% es.EY (V/m) @ t=2.4
0.6602811548026968
% es.EZ (V/m) @ t=2.4
4.239229399018679
% es.tEX (V/m) @ t=2.4
10.486362098502092
% es.tEY (V/m) @ t=2.4
0
% es.tEZ (V/m) @ t=2.4
4.239229399018676
% es.Ex (V/m) @ t=2.4
10.48636209850207
% es.Ey (V/m) @ t=2.4
0.6602811548026968
% es.Ez (V/m) @ t=2.4
4.239229399018679
% es.tEx (V/m) @ t=2.4
10.486362098502092
% es.tEy (V/m) @ t=2.4
0
% es.tEz (V/m) @ t=2.4
4.239229399018676
% V (V) @ t=2.4
0.056602316010084926
% es.normE (V/m) @ t=2.5
11.774365367287842
% es.EX (V/m) @ t=2.5
10.881060252274455
% es.EY (V/m) @ t=2.5
0.6851340125447951
% es.EZ (V/m) @ t=2.5
4.398790922537227
% es.tEX (V/m) @ t=2.5
10.881060252274445
% es.tEY (V/m) @ t=2.5
0
% es.tEZ (V/m) @ t=2.5
4.398790922537248
% es.Ex (V/m) @ t=2.5
10.881060252274455
% es.Ey (V/m) @ t=2.5
0.6851340125447951
% es.Ez (V/m) @ t=2.5
4.398790922537227
% es.tEx (V/m) @ t=2.5
10.881060252274445
% es.tEy (V/m) @ t=2.5
0
% es.tEz (V/m) @ t=2.5
4.398790922537248
% V (V) @ t=2.5
0.058732742540910945
% es.normE (V/m) @ t=2.6
12.198182234280225
% es.EX (V/m) @ t=2.6
11.272722418177679
% es.EY (V/m) @ t=2.6
0.7097960978260707
% es.EZ (V/m) @ t=2.6
4.557125472377873
% es.tEX (V/m) @ t=2.6
11.2727224181777
% es.tEY (V/m) @ t=2.6
0
% es.tEZ (V/m) @ t=2.6
4.557125472377873
% es.Ex (V/m) @ t=2.6
11.272722418177679
% es.Ey (V/m) @ t=2.6
0.7097960978260707
% es.Ez (V/m) @ t=2.6
4.557125472377873
% es.tEx (V/m) @ t=2.6
11.2727224181777
% es.tEy (V/m) @ t=2.6
0
% es.tEz (V/m) @ t=2.6
4.557125472377873
% V (V) @ t=2.6
0.060846744772240544
% es.normE (V/m) @ t=2.7
12.618714024481115
% es.EX (V/m) @ t=2.7
11.66134859621178
% es.EY (V/m) @ t=2.7
0.7342674106465794
% es.EZ (V/m) @ t=2.7
4.714233048540468
% es.tEX (V/m) @ t=2.7
11.661348596211766
% es.tEY (V/m) @ t=2.7
0
% es.tEZ (V/m) @ t=2.7
4.7142330485404536
% es.Ex (V/m) @ t=2.7
11.66134859621178
% es.Ey (V/m) @ t=2.7
0.7342674106465794
% es.Ez (V/m) @ t=2.7
4.714233048540468
% es.tEx (V/m) @ t=2.7
11.661348596211766
% es.tEy (V/m) @ t=2.7
0
% es.tEz (V/m) @ t=2.7
4.7142330485404536
% V (V) @ t=2.7
0.06294432270407371
% es.normE (V/m) @ t=2.8
13.033063084964343
% es.EX (V/m) @ t=2.8
12.04426105600912
% es.EY (V/m) @ t=2.8
0.7583791244428384
% es.EZ (V/m) @ t=2.8
4.869030947476041
% es.tEX (V/m) @ t=2.8
12.044261056009105
% es.tEY (V/m) @ t=2.8
0
% es.tEZ (V/m) @ t=2.8
4.869030947476041
% es.Ex (V/m) @ t=2.8
12.04426105600912
% es.Ey (V/m) @ t=2.8
0.7583791244428384
% es.Ez (V/m) @ t=2.8
4.869030947476041
% es.tEx (V/m) @ t=2.8
12.044261056009105
% es.tEy (V/m) @ t=2.8
0
% es.tEz (V/m) @ t=2.8
4.869030947476041
% V (V) @ t=2.8
0.06501104357782293
% es.normE (V/m) @ t=2.9
13.430431051418797
% es.EX (V/m) @ t=2.9
12.411480994458287
% es.EY (V/m) @ t=2.9
0.7815020918388438
% es.EZ (V/m) @ t=2.9
5.017484377006815
% es.tEX (V/m) @ t=2.9
12.411480994458266
% es.tEY (V/m) @ t=2.9
0
% es.tEZ (V/m) @ t=2.9
5.017484377006824
% es.Ex (V/m) @ t=2.9
12.411480994458287
% es.Ey (V/m) @ t=2.9
0.7815020918388438
% es.Ez (V/m) @ t=2.9
5.017484377006815
% es.tEx (V/m) @ t=2.9
12.411480994458266
% es.tEy (V/m) @ t=2.9
0
% es.tEz (V/m) @ t=2.9
5.017484377006824
% V (V) @ t=2.9
0.06699312242019685
% es.normE (V/m) @ t=3
13.814407558127954
% es.EX (V/m) @ t=3
12.76632560411974
% es.EY (V/m) @ t=3
0.8038454564535193
% es.EZ (V/m) @ t=3
5.160934598449092
% es.tEX (V/m) @ t=3
12.766325604119771
% es.tEY (V/m) @ t=3
0
% es.tEZ (V/m) @ t=3
5.1609345984491135
% es.Ex (V/m) @ t=3
12.76632560411974
% es.Ey (V/m) @ t=3
0.8038454564535193
% es.Ez (V/m) @ t=3
5.160934598449092
% es.tEx (V/m) @ t=3
12.766325604119771
% es.tEy (V/m) @ t=3
0
% es.tEz (V/m) @ t=3
5.1609345984491135
% V (V) @ t=3
0.0689084386413089
% es.normE (V/m) @ t=3.1
14.18305724647788
% es.EX (V/m) @ t=3.1
13.107006413887984
% es.EY (V/m) @ t=3.1
0.8252964580798476
% es.EZ (V/m) @ t=3.1
5.298658468040088
% es.tEX (V/m) @ t=3.1
13.10700641388798
% es.tEY (V/m) @ t=3.1
0
% es.tEZ (V/m) @ t=3.1
5.298658468040053
% es.Ex (V/m) @ t=3.1
13.107006413887984
% es.Ey (V/m) @ t=3.1
0.8252964580798476
% es.Ez (V/m) @ t=3.1
5.298658468040088
% es.tEx (V/m) @ t=3.1
13.10700641388798
% es.tEy (V/m) @ t=3.1
0
% es.tEz (V/m) @ t=3.1
5.298658468040053
% V (V) @ t=3.1
0.07074735252088798
% es.normE (V/m) @ t=3.2
14.534977572688435
% es.EX (V/m) @ t=3.2
13.432227227189369
% es.EY (V/m) @ t=3.2
0.8457736508661933
% es.EZ (V/m) @ t=3.2
5.430132135997246
% es.tEX (V/m) @ t=3.2
13.432227227189443
% es.tEY (V/m) @ t=3.2
0
% es.tEZ (V/m) @ t=3.2
5.430132135997276
% es.Ex (V/m) @ t=3.2
13.432227227189369
% es.Ey (V/m) @ t=3.2
0.8457736508661933
% es.Ez (V/m) @ t=3.2
5.430132135997246
% es.tEx (V/m) @ t=3.2
13.432227227189443
% es.tEy (V/m) @ t=3.2
0
% es.tEz (V/m) @ t=3.2
5.430132135997276
% V (V) @ t=3.2
0.0725028516413275
% es.normE (V/m) @ t=3.3
14.869848723291405
% es.EX (V/m) @ t=3.3
13.741692196021695
% es.EY (V/m) @ t=3.3
0.8652592227023108
% es.EZ (V/m) @ t=3.3
5.555236736819319
% es.tEX (V/m) @ t=3.3
13.741692196021631
% es.tEY (V/m) @ t=3.3
0
% es.tEZ (V/m) @ t=3.3
5.555236736819328
% es.Ex (V/m) @ t=3.3
13.741692196021695
% es.Ey (V/m) @ t=3.3
0.8652592227023108
% es.Ez (V/m) @ t=3.3
5.555236736819319
% es.tEx (V/m) @ t=3.3
13.741692196021631
% es.tEy (V/m) @ t=3.3
0
% es.tEz (V/m) @ t=3.3
5.555236736819328
% V (V) @ t=3.3
0.0741732625134057
% es.normE (V/m) @ t=3.4
15.18519797054564
% es.EX (V/m) @ t=3.4
14.033116366976515
% es.EY (V/m) @ t=3.4
0.8836088313633299
% es.EZ (V/m) @ t=3.4
5.673048129276841
% es.tEX (V/m) @ t=3.4
14.033116366976529
% es.tEY (V/m) @ t=3.4
0
% es.tEZ (V/m) @ t=3.4
5.673048129276864
% es.Ex (V/m) @ t=3.4
14.033116366976515
% es.Ey (V/m) @ t=3.4
0.8836088313633299
% es.Ez (V/m) @ t=3.4
5.673048129276841
% es.tEx (V/m) @ t=3.4
14.033116366976529
% es.tEy (V/m) @ t=3.4
0
% es.tEz (V/m) @ t=3.4
5.673048129276864
% V (V) @ t=3.4
0.07574629565702329
% es.normE (V/m) @ t=3.5
15.479396228387577
% es.EX (V/m) @ t=3.5
14.304994238127925
% es.EY (V/m) @ t=3.5
0.9007277167556929
% es.EZ (V/m) @ t=3.5
5.782957727745513
% es.tEX (V/m) @ t=3.5
14.30499423812796
% es.tEY (V/m) @ t=3.5
0
% es.tEZ (V/m) @ t=3.5
5.7829577277454725
% es.Ex (V/m) @ t=3.5
14.304994238127925
% es.Ey (V/m) @ t=3.5
0.9007277167556929
% es.Ez (V/m) @ t=3.5
5.782957727745513
% es.tEx (V/m) @ t=3.5
14.30499423812796
% es.tEy (V/m) @ t=3.5
0
% es.tEz (V/m) @ t=3.5
5.7829577277454725
% V (V) @ t=3.5
0.07721382157766993
% es.normE (V/m) @ t=3.6
15.750814410753485
% es.EX (V/m) @ t=3.6
14.555820307549773
% es.EY (V/m) @ t=3.6
0.9165211187858571
% es.EZ (V/m) @ t=3.6
5.884356946601219
% es.tEX (V/m) @ t=3.6
14.55582030754978
% es.tEY (V/m) @ t=3.6
0
% es.tEZ (V/m) @ t=3.6
5.884356946601198
% es.Ex (V/m) @ t=3.6
14.555820307549773
% es.Ey (V/m) @ t=3.6
0.9165211187858571
% es.Ez (V/m) @ t=3.6
5.884356946601219
% es.tEx (V/m) @ t=3.6
14.55582030754978
% es.tEy (V/m) @ t=3.6
0
% es.tEz (V/m) @ t=3.6
5.884356946601198
% V (V) @ t=3.6
0.07856771078083524
% es.normE (V/m) @ t=3.7
15.99782343157936
% es.EX (V/m) @ t=3.7
14.784089073315748
% es.EY (V/m) @ t=3.7
0.930894277360208
% es.EZ (V/m) @ t=3.7
5.976637200219509
% es.tEX (V/m) @ t=3.7
14.78408907331584
% es.tEY (V/m) @ t=3.7
0
% es.tEZ (V/m) @ t=3.7
5.976637200219464
% es.Ex (V/m) @ t=3.7
14.784089073315748
% es.Ey (V/m) @ t=3.7
0.930894277360208
% es.Ez (V/m) @ t=3.7
5.976637200219509
% es.tEx (V/m) @ t=3.7
14.78408907331584
% es.tEy (V/m) @ t=3.7
0
% es.tEz (V/m) @ t=3.7
5.976637200219464
% V (V) @ t=3.7
0.07979983377200901
% es.normE (V/m) @ t=3.8
16.218794204801767
% es.EX (V/m) @ t=3.8
14.988295033500059
% es.EY (V/m) @ t=3.8
0.9437524323851578
% es.EZ (V/m) @ t=3.8
6.059189902976156
% es.tEX (V/m) @ t=3.8
14.98829503350008
% es.tEY (V/m) @ t=3.8
0
% es.tEZ (V/m) @ t=3.8
6.059189902976133
% es.Ex (V/m) @ t=3.8
14.988295033500059
% es.Ey (V/m) @ t=3.8
0.9437524323851578
% es.Ez (V/m) @ t=3.8
6.059189902976156
% es.tEx (V/m) @ t=3.8
14.98829503350008
% es.tEy (V/m) @ t=3.8
0
% es.tEz (V/m) @ t=3.8
6.059189902976133
% V (V) @ t=3.8
0.08090206105668087
% es.normE (V/m) @ t=3.9
16.41209764435685
% es.EX (V/m) @ t=3.9
15.16693268617648
% es.EY (V/m) @ t=3.9
0.955000823767203
% es.EZ (V/m) @ t=3.9
6.131406469246874
% es.tEX (V/m) @ t=3.9
15.166932686176423
% es.tEY (V/m) @ t=3.9
0
% es.tEZ (V/m) @ t=3.9
6.131406469246841
% es.Ex (V/m) @ t=3.9
15.16693268617648
% es.Ey (V/m) @ t=3.9
0.955000823767203
% es.Ez (V/m) @ t=3.9
6.131406469246874
% es.tEx (V/m) @ t=3.9
15.166932686176423
% es.tEy (V/m) @ t=3.9
0
% es.tEz (V/m) @ t=3.9
6.131406469246841
% V (V) @ t=3.9
0.08186626314034053
% es.normE (V/m) @ t=4
16.5845644757162
% es.EX (V/m) @ t=4
15.326314543345717
% es.EY (V/m) @ t=4
0.9650368242989096
% es.EZ (V/m) @ t=4
6.195838745383531
% es.tEX (V/m) @ t=4
15.326314543345745
% es.tEY (V/m) @ t=4
0
% es.tEZ (V/m) @ t=4
6.195838745383586
% es.Ex (V/m) @ t=4
15.326314543345717
% es.Ey (V/m) @ t=4
0.9650368242989096
% es.Ez (V/m) @ t=4
6.195838745383531
% es.tEx (V/m) @ t=4
15.326314543345745
% es.tEy (V/m) @ t=4
0
% es.tEz (V/m) @ t=4
6.195838745383586
% V (V) @ t=4
0.08272652132712477
% es.normE (V/m) @ t=4.1
16.746847640122645
% es.EX (V/m) @ t=4.1
15.476285363088444
% es.EY (V/m) @ t=4.1
0.974480156653148
% es.EZ (V/m) @ t=4.1
6.256466488145788
% es.tEX (V/m) @ t=4.1
15.476285363088365
% es.tEY (V/m) @ t=4.1
0
% es.tEZ (V/m) @ t=4.1
6.256466488145836
% es.Ex (V/m) @ t=4.1
15.476285363088444
% es.Ey (V/m) @ t=4.1
0.974480156653148
% es.Ez (V/m) @ t=4.1
6.256466488145788
% es.tEx (V/m) @ t=4.1
15.476285363088365
% es.tEy (V/m) @ t=4.1
0
% es.tEz (V/m) @ t=4.1
6.256466488145836
% V (V) @ t=4.1
0.08353598812383205
% es.normE (V/m) @ t=4.2
16.887216890447537
% es.EX (V/m) @ t=4.2
15.60600479984128
% es.EY (V/m) @ t=4.2
0.9826484455712272
% es.EZ (V/m) @ t=4.2
6.308907501552692
% es.tEX (V/m) @ t=4.2
15.606004799841273
% es.tEY (V/m) @ t=4.2
0
% es.tEZ (V/m) @ t=4.2
6.308907501552643
% es.Ex (V/m) @ t=4.2
15.60600479984128
% es.Ey (V/m) @ t=4.2
0.9826484455712272
% es.Ez (V/m) @ t=4.2
6.308907501552692
% es.tEx (V/m) @ t=4.2
15.606004799841273
% es.tEy (V/m) @ t=4.2
0
% es.tEz (V/m) @ t=4.2
6.308907501552643
% V (V) @ t=4.2
0.08423613361343714
% es.normE (V/m) @ t=4.3
17.00537700126838
% es.EX (V/m) @ t=4.3
15.71520001992672
% es.EY (V/m) @ t=4.3
0.9895245256775027
% es.EZ (V/m) @ t=4.3
6.353051506095516
% es.tEX (V/m) @ t=4.3
15.71520001992674
% es.tEY (V/m) @ t=4.3
0
% es.tEZ (V/m) @ t=4.3
6.35305150609549
% es.Ex (V/m) @ t=4.3
15.71520001992672
% es.Ey (V/m) @ t=4.3
0.9895245256775027
% es.Ez (V/m) @ t=4.3
6.353051506095516
% es.tEx (V/m) @ t=4.3
15.71520001992674
% es.tEy (V/m) @ t=4.3
0
% es.tEz (V/m) @ t=4.3
6.35305150609549
% V (V) @ t=4.3
0.08482548368881017
% es.normE (V/m) @ t=4.4
17.101032747162165
% es.EX (V/m) @ t=4.4
15.803598189666964
% es.EY (V/m) @ t=4.4
0.9950912315957101
% es.EZ (V/m) @ t=4.4
6.3887882222649175
% es.tEX (V/m) @ t=4.4
15.803598189666914
% es.tEY (V/m) @ t=4.4
0
% es.tEZ (V/m) @ t=4.4
6.388788222264896
% es.Ex (V/m) @ t=4.4
15.803598189666964
% es.Ey (V/m) @ t=4.4
0.9950912315957101
% es.Ez (V/m) @ t=4.4
6.3887882222649175
% es.tEx (V/m) @ t=4.4
15.803598189666914
% es.tEy (V/m) @ t=4.4
0
% es.tEz (V/m) @ t=4.4
6.388788222264896
% V (V) @ t=4.4
0.08530256424282126
% es.normE (V/m) @ t=4.5
17.17388890270621
% es.EX (V/m) @ t=4.5
15.870926475384422
% es.EY (V/m) @ t=4.5
0.9993313979502787
% es.EZ (V/m) @ t=4.5
6.416007370551762
% es.tEX (V/m) @ t=4.5
15.870926475384394
% es.tEY (V/m) @ t=4.5
0
% es.tEZ (V/m) @ t=4.5
6.4160073705517675
% es.Ex (V/m) @ t=4.5
15.870926475384422
% es.Ey (V/m) @ t=4.5
0.9993313979502787
% es.Ez (V/m) @ t=4.5
6.416007370551762
% es.tEx (V/m) @ t=4.5
15.870926475384394
% es.tEy (V/m) @ t=4.5
0
% es.tEz (V/m) @ t=4.5
6.4160073705517675
% V (V) @ t=4.5
0.08566590116834048
% es.normE (V/m) @ t=4.6
17.223650242477607
% es.EX (V/m) @ t=4.6
15.916912043401204
% es.EY (V/m) @ t=4.6
1.0022278593649832
% es.EZ (V/m) @ t=4.6
6.4345986714470715
% es.tEX (V/m) @ t=4.6
15.916912043401169
% es.tEY (V/m) @ t=4.6
0
% es.tEZ (V/m) @ t=4.6
6.434598671447045
% es.Ex (V/m) @ t=4.6
15.916912043401204
% es.Ey (V/m) @ t=4.6
1.0022278593649832
% es.Ez (V/m) @ t=4.6
6.4345986714470715
% es.tEx (V/m) @ t=4.6
15.916912043401169
% es.tEy (V/m) @ t=4.6
0
% es.tEz (V/m) @ t=4.6
6.434598671447045
% V (V) @ t=4.6
0.08591402035823797
% es.normE (V/m) @ t=4.7
17.254554877107076
% es.EX (V/m) @ t=4.7
15.945471572161942
% es.EY (V/m) @ t=4.7
1.0040270226525445
% es.EZ (V/m) @ t=4.7
6.446145215245204
% es.tEX (V/m) @ t=4.7
15.945471572161907
% es.tEY (V/m) @ t=4.7
0
% es.tEZ (V/m) @ t=4.7
6.446145215245185
% es.Ex (V/m) @ t=4.7
15.945471572161942
% es.Ey (V/m) @ t=4.7
1.0040270226525445
% es.Ez (V/m) @ t=4.7
6.446145215245204
% es.tEx (V/m) @ t=4.7
15.945471572161907
% es.tEy (V/m) @ t=4.7
0
% es.tEz (V/m) @ t=4.7
6.446145215245185
% V (V) @ t=4.7
0.08606808511075441
% es.normE (V/m) @ t=4.8
17.280809598618582
% es.EX (V/m) @ t=4.8
15.9697343621284
% es.EY (V/m) @ t=4.8
1.0055548826254617
% es.EZ (V/m) @ t=4.8
6.455953765901695
% es.tEX (V/m) @ t=4.8
15.96973436212835
% es.tEY (V/m) @ t=4.8
0
% es.tEZ (V/m) @ t=4.8
6.455953765901711
% es.Ex (V/m) @ t=4.8
15.9697343621284
% es.Ey (V/m) @ t=4.8
1.0055548826254617
% es.Ez (V/m) @ t=4.8
6.455953765901695
% es.tEx (V/m) @ t=4.8
15.96973436212835
% es.tEy (V/m) @ t=4.8
0
% es.tEz (V/m) @ t=4.8
6.455953765901711
% V (V) @ t=4.8
0.08619903775639853
% es.normE (V/m) @ t=4.9
17.291672896478474
% es.EX (V/m) @ t=4.9
15.979773577010704
% es.EY (V/m) @ t=4.9
1.0061869176033351
% es.EZ (V/m) @ t=4.9
6.460011967475895
% es.tEX (V/m) @ t=4.9
15.979773577010675
% es.tEY (V/m) @ t=4.9
0
% es.tEZ (V/m) @ t=4.9
6.460011967475904
% es.Ex (V/m) @ t=4.9
15.979773577010704
% es.Ey (V/m) @ t=4.9
1.0061869176033351
% es.Ez (V/m) @ t=4.9
6.460011967475895
% es.tEx (V/m) @ t=4.9
15.979773577010675
% es.tEy (V/m) @ t=4.9
0
% es.tEz (V/m) @ t=4.9
6.460011967475904
% V (V) @ t=4.9
0.08625324022140188
% es.normE (V/m) @ t=5
17.287843858885388
% es.EX (V/m) @ t=5
15.976235284558484
% es.EY (V/m) @ t=5
1.0059637724882942
% es.EZ (V/m) @ t=5
6.458580953617217
% es.tEX (V/m) @ t=5
15.976235284558399
% es.tEY (V/m) @ t=5
0
% es.tEZ (V/m) @ t=5
6.4585809536172505
% es.Ex (V/m) @ t=5
15.976235284558484
% es.Ey (V/m) @ t=5
1.0059637724882942
% es.Ez (V/m) @ t=5
6.458580953617217
% es.tEx (V/m) @ t=5
15.976235284558399
% es.tEy (V/m) @ t=5
0
% es.tEz (V/m) @ t=5
6.4585809536172505
% V (V) @ t=5
0.08623418354576999
% es.normE (V/m) @ t=5.1
17.27002157403848
% es.EX (V/m) @ t=5.1
15.959765552521809
% es.EY (V/m) @ t=5.1
1.0049260921822585
% es.EZ (V/m) @ t=5.1
6.451921857975359
% es.tEX (V/m) @ t=5.1
15.959765552521787
% es.tEY (V/m) @ t=5.1
0
% es.tEZ (V/m) @ t=5.1
6.451921857975336
% es.Ex (V/m) @ t=5.1
15.959765552521809
% es.Ey (V/m) @ t=5.1
1.0049260921822585
% es.Ez (V/m) @ t=5.1
6.451921857975359
% es.tEx (V/m) @ t=5.1
15.959765552521787
% es.tEy (V/m) @ t=5.1
0
% es.tEz (V/m) @ t=5.1
6.451921857975336
% V (V) @ t=5.1
0.0861453587695085
% es.normE (V/m) @ t=5.2
17.238905130136665
% es.EX (V/m) @ t=5.2
15.931010448650596
% es.EY (V/m) @ t=5.2
1.0031145215876425
% es.EZ (V/m) @ t=5.2
6.440295814199503
% es.tEX (V/m) @ t=5.2
15.931010448650625
% es.tEY (V/m) @ t=5.2
0
% es.tEZ (V/m) @ t=5.2
6.440295814199516
% es.Ex (V/m) @ t=5.2
15.931010448650596
% es.Ey (V/m) @ t=5.2
1.0031145215876425
% es.Ez (V/m) @ t=5.2
6.440295814199503
% es.tEx (V/m) @ t=5.2
15.931010448650625
% es.tEy (V/m) @ t=5.2
0
% es.tEz (V/m) @ t=5.2
6.440295814199516
% V (V) @ t=5.2
0.08599025693262304
% es.normE (V/m) @ t=5.3
17.195193615379154
% es.EX (V/m) @ t=5.3
15.890616040694965
% es.EY (V/m) @ t=5.3
1.0005697056060283
% es.EZ (V/m) @ t=5.3
6.423963955939062
% es.tEX (V/m) @ t=5.3
15.890616040694937
% es.tEY (V/m) @ t=5.3
0
% es.tEZ (V/m) @ t=5.3
6.4239639559391115
% es.Ex (V/m) @ t=5.3
15.890616040694965
% es.Ey (V/m) @ t=5.3
1.0005697056060283
% es.Ez (V/m) @ t=5.3
6.423963955939062
% es.tEx (V/m) @ t=5.3
15.890616040694937
% es.tEy (V/m) @ t=5.3
0
% es.tEz (V/m) @ t=5.3
6.4239639559391115
% V (V) @ t=5.3
0.08577236907511915
% es.normE (V/m) @ t=5.4
17.144667929846534
% es.EX (V/m) @ t=5.4
15.843924072523102
% es.EY (V/m) @ t=5.4
0.997628964629933
% es.EZ (V/m) @ t=5.4
6.405087185456521
% es.tEX (V/m) @ t=5.4
15.843924072523066
% es.tEY (V/m) @ t=5.4
0
% es.tEZ (V/m) @ t=5.4
6.405087185456548
% es.Ex (V/m) @ t=5.4
15.843924072523102
% es.Ey (V/m) @ t=5.4