% Model:              1x1--2 - Copy1.mph
% Version:            COMSOL 6.1.0.252
% Date:               Apr 3 2023, 14:58
% Dimension:          0
% Nodes:              14017
% Expressions:        14017
% Description:        Electric field norm, Electric field, X component, Electric field, Y component, Electric field, Z component, Tangential electric field, X component, Tangential electric field, Y component, Tangential electric field, Z component, Electric field, x component, Electric field, y component, Electric field, z component, Tangential electric field, x component, Tangential electric field, y component, Tangential electric field, z component, Electric potential
% Length unit:        mm
% x
1.66
% y
12.2
% z
1.33
% es.normE (V/m) @ t=0
0.46519836586175456
% es.EX (V/m) @ t=0
0.30979767332330077
% es.EY (V/m) @ t=0
0.13898237375144717
% es.EZ (V/m) @ t=0
-0.30547756762441614
% es.tEX (V/m) @ t=0
0.30979767332330077
% es.tEY (V/m) @ t=0
0
% es.tEZ (V/m) @ t=0
-0.3054775676244157
% es.Ex (V/m) @ t=0
0.30979767332330077
% es.Ey (V/m) @ t=0
0.13898237375144717
% es.Ez (V/m) @ t=0
-0.30547756762441614
% es.tEx (V/m) @ t=0
0.30979767332330077
% es.tEy (V/m) @ t=0
0
% es.tEz (V/m) @ t=0
-0.3054775676244157
% V (V) @ t=0
0.007939257920319782
% es.normE (V/m) @ t=0.1
0.4724396429721396
% es.EX (V/m) @ t=0.1
0.3146199912381711
% es.EY (V/m) @ t=0.1
0.14114575925024497
% es.EZ (V/m) @ t=0.1
-0.31023263285906166
% es.tEX (V/m) @ t=0.1
0.31461999123816753
% es.tEY (V/m) @ t=0.1
0
% es.tEZ (V/m) @ t=0.1
-0.3102326328590621
% es.Ex (V/m) @ t=0.1
0.3146199912381711
% es.Ey (V/m) @ t=0.1
0.14114575925024497
% es.Ez (V/m) @ t=0.1
-0.31023263285906166
% es.tEx (V/m) @ t=0.1
0.31461999123816753
% es.tEy (V/m) @ t=0.1
0
% es.tEz (V/m) @ t=0.1
-0.3102326328590621
% V (V) @ t=0.1
0.008062841205239216
% es.normE (V/m) @ t=0.2
0.49492769380351564
% es.EX (V/m) @ t=0.2
0.3295956153313515
% es.EY (V/m) @ t=0.2
0.14786468366195393
% es.EZ (V/m) @ t=0.2
-0.32499960984688947
% es.tEX (V/m) @ t=0.2
0.3295956153313515
% es.tEY (V/m) @ t=0.2
0
% es.tEZ (V/m) @ t=0.2
-0.32499960984689036
% es.Ex (V/m) @ t=0.2
0.3295956153313515
% es.Ey (V/m) @ t=0.2
0.14786468366195393
% es.Ez (V/m) @ t=0.2
-0.32499960984688947
% es.tEx (V/m) @ t=0.2
0.3295956153313515
% es.tEy (V/m) @ t=0.2
0
% es.tEz (V/m) @ t=0.2
-0.32499960984689036
% V (V) @ t=0.2
0.008446610553320891
% es.normE (V/m) @ t=0.3
0.5180869655155325
% es.EX (V/m) @ t=0.3
0.3450180637928355
% es.EY (V/m) @ t=0.3
0.15478444266211844
% es.EZ (V/m) @ t=0.3
-0.34020731652604264
% es.tEX (V/m) @ t=0.3
0.34501806379283373
% es.tEY (V/m) @ t=0.3
0
% es.tEZ (V/m) @ t=0.3
-0.3402073165260404
% es.Ex (V/m) @ t=0.3
0.3450180637928355
% es.Ey (V/m) @ t=0.3
0.15478444266211844
% es.Ez (V/m) @ t=0.3
-0.34020731652604264
% es.tEx (V/m) @ t=0.3
0.34501806379283373
% es.tEy (V/m) @ t=0.3
0
% es.tEz (V/m) @ t=0.3
-0.3402073165260404
% V (V) @ t=0.3
0.008841819804821233
% es.normE (V/m) @ t=0.4
0.5426047988621279
% es.EX (V/m) @ t=0.4
0.36134600307935916
% es.EY (V/m) @ t=0.4
0.16210876916853756
% es.EZ (V/m) @ t=0.4
-0.3563072876317954
% es.tEX (V/m) @ t=0.4
0.3613460030793556
% es.tEY (V/m) @ t=0.4
0
% es.tEZ (V/m) @ t=0.4
-0.3563072876317994
% es.Ex (V/m) @ t=0.4
0.36134600307935916
% es.Ey (V/m) @ t=0.4
0.16210876916853756
% es.Ez (V/m) @ t=0.4
-0.3563072876317954
% es.tEx (V/m) @ t=0.4
0.3613460030793556
% es.tEy (V/m) @ t=0.4
0
% es.tEz (V/m) @ t=0.4
-0.3563072876317994
% V (V) @ t=0.4
0.00926028150582635
% es.normE (V/m) @ t=0.5
0.5686313461398828
% es.EX (V/m) @ t=0.5
0.3786812926004206
% es.EY (V/m) @ t=0.5
0.16987929494266396
% es.EZ (V/m) @ t=0.5
-0.3733984898412315
% es.tEX (V/m) @ t=0.5
0.3786812926004206
% es.tEY (V/m) @ t=0.5
0
% es.tEZ (V/m) @ t=0.5
-0.37339848984123414
% es.Ex (V/m) @ t=0.5
0.3786812926004206
% es.Ey (V/m) @ t=0.5
0.16987929494266396
% es.Ez (V/m) @ t=0.5
-0.3733984898412315
% es.tEx (V/m) @ t=0.5
0.3786812926004206
% es.tEy (V/m) @ t=0.5
0
% es.tEz (V/m) @ t=0.5
-0.37339848984123414
% V (V) @ t=0.5
0.009704721638707536
% es.normE (V/m) @ t=0.6
0.5963809514605323
% es.EX (V/m) @ t=0.6
0.39716709891128854
% es.EY (V/m) @ t=0.6
0.17815932230272558
% es.EZ (V/m) @ t=0.6
-0.3916217581193191
% es.tEX (V/m) @ t=0.6
0.39716709891128676
% es.tEY (V/m) @ t=0.6
0
% es.tEZ (V/m) @ t=0.6
-0.39162175811932265
% es.Ex (V/m) @ t=0.6
0.39716709891128854
% es.Ey (V/m) @ t=0.6
0.17815932230272558
% es.Ez (V/m) @ t=0.6
-0.3916217581193191
% es.tEx (V/m) @ t=0.6
0.39716709891128676
% es.tEy (V/m) @ t=0.6
0
% es.tEz (V/m) @ t=0.6
-0.39162175811932265
% V (V) @ t=0.6
0.010178835504180968
% es.normE (V/m) @ t=0.7
0.62413055708573
% es.EX (V/m) @ t=0.7
0.41565290522214404
% es.EY (V/m) @ t=0.7
0.1864393496627803
% es.EZ (V/m) @ t=0.7
-0.4098450263974103
% es.tEX (V/m) @ t=0.7
0.41565290522214227
% es.tEY (V/m) @ t=0.7
0
% es.tEZ (V/m) @ t=0.7
-0.40984502639741116
% es.Ex (V/m) @ t=0.7
0.41565290522214404
% es.Ey (V/m) @ t=0.7
0.1864393496627803
% es.Ez (V/m) @ t=0.7
-0.4098450263974103
% es.tEx (V/m) @ t=0.7
0.41565290522214227
% es.tEy (V/m) @ t=0.7
0
% es.tEz (V/m) @ t=0.7
-0.40984502639741116
% V (V) @ t=0.7
0.010652949369654403
% es.normE (V/m) @ t=0.8
0.6532975466956958
% es.EX (V/m) @ t=0.8
0.43507916653622836
% es.EY (V/m) @ t=0.8
0.19514879990567358
% es.EZ (V/m) @ t=0.8
-0.42899835562778144
% es.tEX (V/m) @ t=0.8
0.4350791665362266
% es.tEY (V/m) @ t=0.8
0
% es.tEZ (V/m) @ t=0.8
-0.42899835562778676
% es.Ex (V/m) @ t=0.8
0.43507916653622836
% es.Ey (V/m) @ t=0.8
0.19514879990567358
% es.Ez (V/m) @ t=0.8
-0.42899835562778144
% es.tEx (V/m) @ t=0.8
0.4350791665362266
% es.tEy (V/m) @ t=0.8
0
% es.tEz (V/m) @ t=0.8
-0.42899835562778676
% V (V) @ t=0.8
0.011150950664880817
% es.normE (V/m) @ t=0.9
0.6843027609952033
% es.EX (V/m) @ t=0.9
0.4557251169681251
% es.EY (V/m) @ t=0.9
0.2044151746323033
% es.EZ (V/m) @ t=0.9
-0.4493578937873881
% es.tEX (V/m) @ t=0.9
0.45572511696812334
% es.tEY (V/m) @ t=0.9
0
% es.tEZ (V/m) @ t=0.9
-0.4493578937873899
% es.Ex (V/m) @ t=0.9
0.4557251169681251
% es.Ey (V/m) @ t=0.9
0.2044151746323033
% es.Ez (V/m) @ t=0.9
-0.4493578937873881
% es.tEx (V/m) @ t=0.9
0.45572511696812334
% es.tEy (V/m) @ t=0.9
0
% es.tEz (V/m) @ t=0.9
-0.4493578937873899
% V (V) @ t=0.9
0.011679931898565681
% es.normE (V/m) @ t=1
0.715307975351146
% es.EX (V/m) @ t=1
0.4763710674000059
% es.EY (V/m) @ t=1
0.21368154935892414
% es.EZ (V/m) @ t=1
-0.4697174319469921
% es.tEX (V/m) @ t=1
0.47637106740000235
% es.tEY (V/m) @ t=1
0
% es.tEZ (V/m) @ t=1
-0.4697174319469912
% es.Ex (V/m) @ t=1
0.4763710674000059
% es.Ey (V/m) @ t=1
0.21368154935892414
% es.Ez (V/m) @ t=1
-0.4697174319469921
% es.tEx (V/m) @ t=1
0.47637106740000235
% es.tEy (V/m) @ t=1
0
% es.tEz (V/m) @ t=1
-0.4697174319469912
% V (V) @ t=1
0.012208913132250549
% es.normE (V/m) @ t=1.1
0.7489494990729404
% es.EX (V/m) @ t=1.1
0.49876509528283997
% es.EY (V/m) @ t=1.1
0.22374863746725904
% es.EZ (V/m) @ t=1.1
-0.4918066393255698
% es.tEX (V/m) @ t=1.1
0.4987650952828382
% es.tEY (V/m) @ t=1.1
0
% es.tEZ (V/m) @ t=1.1
-0.49180663932557067
% es.Ex (V/m) @ t=1.1
0.49876509528283997
% es.Ey (V/m) @ t=1.1
0.22374863746725904
% es.Ez (V/m) @ t=1.1
-0.4918066393255698
% es.tEx (V/m) @ t=1.1
0.4987650952828382
% es.tEy (V/m) @ t=1.1
0
% es.tEz (V/m) @ t=1.1
-0.49180663932557067
% V (V) @ t=1.1
0.012782223259201147
% es.normE (V/m) @ t=1.2
0.783653966289185
% es.EX (V/m) @ t=1.2
0.5218639364073363
% es.EY (V/m) @ t=1.2
0.23413856790383192
% es.EZ (V/m) @ t=1.2
-0.5145932378687066
% es.tEX (V/m) @ t=1.2
0.5218639364073301
% es.tEY (V/m) @ t=1.2
0
% es.tEZ (V/m) @ t=1.2
-0.5145932378687128
% es.Ex (V/m) @ t=1.2
0.5218639364073363
% es.Ey (V/m) @ t=1.2
0.23413856790383192
% es.Ez (V/m) @ t=1.2
-0.5145932378687066
% es.tEx (V/m) @ t=1.2
0.5218639364073301
% es.tEy (V/m) @ t=1.2
0
% es.tEz (V/m) @ t=1.2
-0.5145932378687128
% V (V) @ t=1.2
0.013373406502097158
% es.normE (V/m) @ t=1.3
0.8183584345856039
% es.EX (V/m) @ t=1.3
0.5449627775318282
% es.EY (V/m) @ t=1.3
0.2445284983404057
% es.EZ (V/m) @ t=1.3
-0.537379836411847
% es.tEX (V/m) @ t=1.3
0.5449627775318255
% es.tEY (V/m) @ t=1.3
0
% es.tEZ (V/m) @ t=1.3
-0.5373798364118532
% es.Ex (V/m) @ t=1.3
0.5449627775318282
% es.Ey (V/m) @ t=1.3
0.2445284983404057
% es.Ez (V/m) @ t=1.3
-0.537379836411847
% es.tEx (V/m) @ t=1.3
0.5449627775318255
% es.tEy (V/m) @ t=1.3
0
% es.tEz (V/m) @ t=1.3
-0.5373798364118532
% V (V) @ t=1.3
0.013964589744993164
% es.normE (V/m) @ t=1.4
0.8572557657583109
% es.EX (V/m) @ t=1.4
0.5708760111779014
% es.EY (V/m) @ t=1.4
0.2561327385859671
% es.EZ (V/m) @ t=1.4
-0.5629240966710389
% es.tEX (V/m) @ t=1.4
0.5708760111778979
% es.tEY (V/m) @ t=1.4
0
% es.tEZ (V/m) @ t=1.4
-0.5629240966710434
% es.Ex (V/m) @ t=1.4
0.5708760111779014
% es.Ey (V/m) @ t=1.4
0.2561327385859671
% es.Ez (V/m) @ t=1.4
-0.5629240966710389
% es.tEx (V/m) @ t=1.4
0.5708760111778979
% es.tEy (V/m) @ t=1.4
0
% es.tEz (V/m) @ t=1.4
-0.5629240966710434
% V (V) @ t=1.4
0.014629273251277813
% es.normE (V/m) @ t=1.5
0.8961956486652584
% es.EX (V/m) @ t=1.5
0.5968178065189793
% es.EY (V/m) @ t=1.5
0.26774930218233606
% es.EZ (V/m) @ t=1.5
-0.5884963428960424
% es.tEX (V/m) @ t=1.5
0.5968178065189758
% es.tEY (V/m) @ t=1.5
0
% es.tEZ (V/m) @ t=1.5
-0.5884963428960468
% es.Ex (V/m) @ t=1.5
0.5968178065189793
% es.Ey (V/m) @ t=1.5
0.26774930218233606
% es.Ez (V/m) @ t=1.5
-0.5884963428960424
% es.tEx (V/m) @ t=1.5
0.5968178065189758
% es.tEy (V/m) @ t=1.5
0
% es.tEz (V/m) @ t=1.5
-0.5884963428960468
% V (V) @ t=1.5
0.015294702670610762
% es.normE (V/m) @ t=1.6
0.9357076527754764
% es.EX (V/m) @ t=1.6
0.6231395254258683
% es.EY (V/m) @ t=1.6
0.27953865853105375
% es.EZ (V/m) @ t=1.6
-0.614444065607537
% es.tEX (V/m) @ t=1.6
0.6231395254258647
% es.tEY (V/m) @ t=1.6
0
% es.tEZ (V/m) @ t=1.6
-0.6144440656075414
% es.Ex (V/m) @ t=1.6
0.6231395254258683
% es.Ey (V/m) @ t=1.6
0.27953865853105375
% es.Ez (V/m) @ t=1.6
-0.614444065607537
% es.tEx (V/m) @ t=1.6
0.6231395254258647
% es.tEy (V/m) @ t=1.6
0
% es.tEz (V/m) @ t=1.6
-0.6144440656075414
% V (V) @ t=1.6
0.015969801549079222
% es.normE (V/m) @ t=1.7
0.9776956742550398
% es.EX (V/m) @ t=1.7
0.6511054733433568
% es.EY (V/m) @ t=1.7
0.2920758254442437
% es.EZ (V/m) @ t=1.7
-0.6420167713089429
% es.tEX (V/m) @ t=1.7
0.6511054733433568
% es.tEY (V/m) @ t=1.7
0
% es.tEZ (V/m) @ t=1.7
-0.6420167713089437
% es.Ex (V/m) @ t=1.7
0.6511054733433568
% es.Ey (V/m) @ t=1.7
0.2920758254442437
% es.Ez (V/m) @ t=1.7
-0.6420167713089429
% es.tEx (V/m) @ t=1.7
0.6511054733433568
% es.tEy (V/m) @ t=1.7
0
% es.tEz (V/m) @ t=1.7
-0.6420167713089437
% V (V) @ t=1.7
0.01668674780596105
% es.normE (V/m) @ t=1.8
1.021115687348221
% es.EX (V/m) @ t=1.8
0.6800223525715854
% es.EY (V/m) @ t=1.8
0.30504548471447657
% es.EZ (V/m) @ t=1.8
-0.6705292774849623
% es.tEX (V/m) @ t=1.8
0.6800223525715783
% es.tEY (V/m) @ t=1.8
0
% es.tEZ (V/m) @ t=1.8
-0.6705292774849685
% es.Ex (V/m) @ t=1.8
0.6800223525715854
% es.Ey (V/m) @ t=1.8
0.30504548471447657
% es.Ez (V/m) @ t=1.8
-0.6705292774849623
% es.tEx (V/m) @ t=1.8
0.6800223525715783
% es.tEy (V/m) @ t=1.8
0
% es.tEz (V/m) @ t=1.8
-0.6705292774849685
% V (V) @ t=1.8
0.017427896276858958
% es.normE (V/m) @ t=1.9
1.065967692009404
% es.EX (V/m) @ t=1.9
0.7098901631105594
% es.EY (V/m) @ t=1.9
0.31844763634173834
% es.EZ (V/m) @ t=1.9
-0.6999815841355757
% es.tEX (V/m) @ t=1.9
0.7098901631105559
% es.tEY (V/m) @ t=1.9
0
% es.tEZ (V/m) @ t=1.9
-0.6999815841355836
% es.Ex (V/m) @ t=1.9
0.7098901631105594
% es.Ey (V/m) @ t=1.9
0.31844763634173834
% es.Ez (V/m) @ t=1.9
-0.6999815841355757
% es.tEx (V/m) @ t=1.9
0.7098901631105559
% es.tEy (V/m) @ t=1.9
0
% es.tEz (V/m) @ t=1.9
-0.6999815841355836
% V (V) @ t=1.9
0.018193246961772946
% es.normE (V/m) @ t=2
1.112251688314433
% es.EX (V/m) @ t=2
0.7407089049602682
% es.EY (V/m) @ t=2
0.3322822803260155
% es.EZ (V/m) @ t=2
-0.7303736912608123
% es.tEX (V/m) @ t=2
0.7407089049602682
% es.tEY (V/m) @ t=2
0
% es.tEZ (V/m) @ t=2
-0.7303736912608212
% es.Ex (V/m) @ t=2
0.7407089049602682
% es.Ey (V/m) @ t=2
0.3322822803260155
% es.Ez (V/m) @ t=2
-0.7303736912608123
% es.tEx (V/m) @ t=2
0.7407089049602682
% es.tEy (V/m) @ t=2
0
% es.tEz (V/m) @ t=2
-0.7303736912608212
% V (V) @ t=2
0.01898279986070301
% es.normE (V/m) @ t=2.1
1.1599676764361653
% es.EX (V/m) @ t=2.1
0.7724785781207011
% es.EY (V/m) @ t=2.1
0.3465494166673224
% es.EZ (V/m) @ t=2.1
-0.7617055988606491
% es.tEX (V/m) @ t=2.1
0.7724785781207011
% es.tEY (V/m) @ t=2.1
0
% es.tEZ (V/m) @ t=2.1
-0.7617055988606474
% es.Ex (V/m) @ t=2.1
0.7724785781207011
% es.Ey (V/m) @ t=2.1
0.3465494166673224
% es.Ez (V/m) @ t=2.1
-0.7617055988606491
% es.tEx (V/m) @ t=2.1
0.7724785781207011
% es.tEy (V/m) @ t=2.1
0
% es.tEz (V/m) @ t=2.1
-0.7617055988606474
% V (V) @ t=2.1
0.019796554973649162
% es.normE (V/m) @ t=2.2
1.2095746671395937
% es.EX (V/m) @ t=2.2
0.8055128190758403
% es.EY (V/m) @ t=2.2
0.3613724076862379
% es.EZ (V/m) @ t=2.2
-0.7942802911832434
% es.tEX (V/m) @ t=2.2
0.8055128190758367
% es.tEY (V/m) @ t=2.2
0
% es.tEZ (V/m) @ t=2.2
-0.7942802911832452
% es.Ex (V/m) @ t=2.2
0.8055128190758403
% es.Ey (V/m) @ t=2.2
0.3613724076862379
% es.Ez (V/m) @ t=2.2
-0.7942802911832434
% es.tEx (V/m) @ t=2.2
0.8055128190758367
% es.tEy (V/m) @ t=2.2
0
% es.tEz (V/m) @ t=2.2
-0.7942802911832452
% V (V) @ t=2.2
0.02064304387209052
% es.normE (V/m) @ t=2.3
1.2611224530387004
% es.EX (V/m) @ t=2.3
0.83984095660756
% es.EY (V/m) @ t=2.3
0.37677275702517665
% es.EZ (V/m) @ t=2.3
-0.8281297096872411
% es.tEX (V/m) @ t=2.3
0.83984095660756
% es.tEY (V/m) @ t=2.3
0
% es.tEZ (V/m) @ t=2.3
-0.8281297096872464
% es.Ex (V/m) @ t=2.3
0.83984095660756
% es.Ey (V/m) @ t=2.3
0.37677275702517665
% es.Ez (V/m) @ t=2.3
-0.8281297096872411
% es.tEx (V/m) @ t=2.3
0.83984095660756
% es.tEy (V/m) @ t=2.3
0
% es.tEz (V/m) @ t=2.3
-0.8281297096872464
% V (V) @ t=2.3
0.021522780474484186
% es.normE (V/m) @ t=2.4
1.314999682668138
% es.EX (V/m) @ t=2.4
0.8757195720375783
% es.EY (V/m) @ t=2.4
0.39287044947837835
% es.EZ (V/m) @ t=2.4
-0.8635086232632734
% es.tEX (V/m) @ t=2.4
0.8757195720375783
% es.tEY (V/m) @ t=2.4
0
% es.tEZ (V/m) @ t=2.4
-0.8635086232632716
% es.Ex (V/m) @ t=2.4
0.8757195720375783
% es.Ey (V/m) @ t=2.4
0.39287044947837835
% es.Ez (V/m) @ t=2.4
-0.8635086232632734
% es.tEx (V/m) @ t=2.4
0.8757195720375783
% es.tEy (V/m) @ t=2.4
0
% es.tEz (V/m) @ t=2.4
-0.8635086232632716
% V (V) @ t=2.4
0.022442201384575866
% es.normE (V/m) @ t=2.5
1.3710758418807707
% es.EX (V/m) @ t=2.5
0.9130619675502167
% es.EY (V/m) @ t=2.5
0.4096261159878525
% es.EZ (V/m) @ t=2.5
-0.9003313713076686
% es.tEX (V/m) @ t=2.5
0.9130619675502167
% es.tEY (V/m) @ t=2.5
0
% es.tEZ (V/m) @ t=2.5
-0.9003313713076793
% es.Ex (V/m) @ t=2.5
0.9130619675502167
% es.Ey (V/m) @ t=2.5
0.4096261159878525
% es.Ez (V/m) @ t=2.5
-0.9003313713076686
% es.tEx (V/m) @ t=2.5
0.9130619675502167
% es.tEy (V/m) @ t=2.5
0
% es.tEz (V/m) @ t=2.5
-0.9003313713076793
% V (V) @ t=2.5
0.023399098282497734
% es.normE (V/m) @ t=2.6
1.429683929857126
% es.EX (V/m) @ t=2.6
0.9520910676492633
% es.EY (V/m) @ t=2.6
0.4271372289132267
% es.EZ (V/m) @ t=2.6
-0.9388168506893013
% es.tEX (V/m) @ t=2.6
0.9520910676492598
% es.tEY (V/m) @ t=2.6
0
% es.tEZ (V/m) @ t=2.6
-0.938816850689296
% es.Ex (V/m) @ t=2.6
0.9520910676492633
% es.Ey (V/m) @ t=2.6
0.4271372289132267
% es.Ez (V/m) @ t=2.6
-0.9388168506893013
% es.tEx (V/m) @ t=2.6
0.9520910676492598
% es.tEy (V/m) @ t=2.6
0
% es.tEz (V/m) @ t=2.6
-0.938816850689296
% V (V) @ t=2.6
0.02439925617872808
% es.normE (V/m) @ t=2.7
1.4908359660879826
% es.EX (V/m) @ t=2.7
0.9928149187215283
% es.EY (V/m) @ t=2.7
0.4454073064873594
% es.EZ (V/m) @ t=2.7
-0.9789729624189132
% es.tEX (V/m) @ t=2.7
0.9928149187215212
% es.tEY (V/m) @ t=2.7
0
% es.tEZ (V/m) @ t=2.7
-0.978972962418915
% es.Ex (V/m) @ t=2.7
0.9928149187215283
% es.Ey (V/m) @ t=2.7
0.4454073064873594
% es.Ez (V/m) @ t=2.7
-0.9789729624189132
% es.tEx (V/m) @ t=2.7
0.9928149187215212
% es.tEy (V/m) @ t=2.7
0
% es.tEz (V/m) @ t=2.7
-0.978972962418915
% V (V) @ t=2.7
0.025442883881322834
% es.normE (V/m) @ t=2.8
1.5544477955887617
% es.EX (V/m) @ t=2.8
1.0351771836664554
% es.EY (V/m) @ t=2.8
0.4644117156616656
% es.EZ (V/m) @ t=2.8
-1.0207443872529094
% es.tEX (V/m) @ t=2.8
1.0351771836664554
% es.tEY (V/m) @ t=2.8
0
% es.tEZ (V/m) @ t=2.8
-1.0207443872529147
% es.Ex (V/m) @ t=2.8
1.0351771836664554
% es.Ey (V/m) @ t=2.8
0.4644117156616656
% es.Ez (V/m) @ t=2.8
-1.0207443872529094
% es.tEx (V/m) @ t=2.8
1.0351771836664554
% es.tEy (V/m) @ t=2.8
0
% es.tEz (V/m) @ t=2.8
-1.0207443872529147
% V (V) @ t=2.8
0.026528519412294813
% es.normE (V/m) @ t=2.9
1.6205194183603977
% es.EX (V/m) @ t=2.9
1.0791778624840376
% es.EY (V/m) @ t=2.9
0.484150456436129
% es.EZ (V/m) @ t=2.9
-1.06413112519129
% es.tEX (V/m) @ t=2.9
1.0791778624840376
% es.tEY (V/m) @ t=2.9
0
% es.tEZ (V/m) @ t=2.9
-1.0641311251912953
% es.Ex (V/m) @ t=2.9
1.0791778624840376
% es.Ey (V/m) @ t=2.9
0.484150456436129
% es.Ez (V/m) @ t=2.9
-1.06413112519129
% es.tEx (V/m) @ t=2.9
1.0791778624840376
% es.tEy (V/m) @ t=2.9
0
% es.tEz (V/m) @ t=2.9
-1.0641311251912953
% V (V) @ t=2.9
0.027656162771644042
% es.normE (V/m) @ t=3
1.689050834404749
% es.EX (V/m) @ t=3
1.1248169551742357
% es.EY (V/m) @ t=3
0.5046235288107996
% es.EZ (V/m) @ t=3
-1.1091331762340442
% es.tEX (V/m) @ t=3
1.1248169551742357
% es.tEY (V/m) @ t=3
0
% es.tEZ (V/m) @ t=3
-1.109133176234053
% es.Ex (V/m) @ t=3
1.1248169551742357
% es.Ey (V/m) @ t=3
0.5046235288107996
% es.Ez (V/m) @ t=3
-1.1091331762340442
% es.tEx (V/m) @ t=3
1.1248169551742357
% es.tEy (V/m) @ t=3
0
% es.tEz (V/m) @ t=3
-1.109133176234053
% V (V) @ t=3
0.028825813959370495
% es.normE (V/m) @ t=3.1
1.760188359728527
% es.EX (V/m) @ t=3.1
1.1721917463854368
% es.EY (V/m) @ t=3.1
0.5258749117460848
% es.EZ (V/m) @ t=3.1
-1.1558465905665596
% es.tEX (V/m) @ t=3.1
1.1721917463854297
% es.tEY (V/m) @ t=3.1
0
% es.tEZ (V/m) @ t=3.1
-1.1558465905665685
% es.Ex (V/m) @ t=3.1
1.1721917463854368
% es.Ey (V/m) @ t=3.1
0.5258749117460848
% es.Ez (V/m) @ t=3.1
-1.1558465905665596
% es.tEx (V/m) @ t=3.1
1.1721917463854297
% es.tEy (V/m) @ t=3.1
0
% es.tEz (V/m) @ t=3.1
-1.1558465905665685
% V (V) @ t=3.1
0.03003995686623709
% es.normE (V/m) @ t=3.2
1.8342525501120996
% es.EX (V/m) @ t=3.2
1.2215153717656193
% es.EY (V/m) @ t=3.2
0.5480009563557826
% es.EZ (V/m) @ t=3.2
-1.204481799319021
% es.tEX (V/m) @ t=3.2
1.2215153717656122
% es.tEY (V/m) @ t=3.2
0
% es.tEZ (V/m) @ t=3.2
-1.20448179931903
% es.Ex (V/m) @ t=3.2
1.2215153717656193
% es.Ey (V/m) @ t=3.2
0.5480009563557826
% es.Ez (V/m) @ t=3.2
-1.204481799319021
% es.tEx (V/m) @ t=3.2
1.2215153717656122
% es.tEy (V/m) @ t=3.2
0
% es.tEz (V/m) @ t=3.2
-1.20448179931903
% V (V) @ t=3.2
0.031304033313499305
% es.normE (V/m) @ t=3.3
1.9109509793178971
% es.EX (V/m) @ t=3.3
1.2725933988337914
% es.EY (V/m) @ t=3.3
0.5709137665686428
% es.EZ (V/m) @ t=3.3
-1.254846837200331
% es.tEX (V/m) @ t=3.3
1.2725933988337843
% es.tEY (V/m) @ t=3.3
0
% es.tEZ (V/m) @ t=3.3
-1.2548468372003292
% es.Ex (V/m) @ t=3.3
1.2725933988337914
% es.Ey (V/m) @ t=3.3
0.5709137665686428
% es.Ez (V/m) @ t=3.3
-1.254846837200331
% es.tEx (V/m) @ t=3.3
1.2725933988337843
% es.tEy (V/m) @ t=3.3
0
% es.tEz (V/m) @ t=3.3
-1.2548468372003292
% V (V) @ t=3.3
0.032613079012837144
% es.normE (V/m) @ t=3.4
1.9902836473467338
% es.EX (V/m) @ t=3.4
1.3254258275899922
% es.EY (V/m) @ t=3.4
0.5946133423846676
% es.EZ (V/m) @ t=3.4
-1.3069417042104252
% es.tEX (V/m) @ t=3.4
1.3254258275899922
% es.tEY (V/m) @ t=3.4
0
% es.tEZ (V/m) @ t=3.4
-1.306941704210427
% es.Ex (V/m) @ t=3.4
1.3254258275899922
% es.Ey (V/m) @ t=3.4
0.5946133423846676
% es.Ez (V/m) @ t=3.4
-1.3069417042104252
% es.tEx (V/m) @ t=3.4
1.3254258275899922
% es.tEy (V/m) @ t=3.4
0
% es.tEz (V/m) @ t=3.4
-1.306941704210427
% V (V) @ t=3.4
0.033967093964250586
% es.normE (V/m) @ t=3.5
2.0722505541993566
% es.EX (V/m) @ t=3.5
1.3800126580340866
% es.EY (V/m) @ t=3.5
0.6190996838038383
% es.EZ (V/m) @ t=3.5
-1.3607664003492967
% es.tEX (V/m) @ t=3.5
1.3800126580340795
% es.tEY (V/m) @ t=3.5
0
% es.tEZ (V/m) @ t=3.5
-1.360766400349295
% es.Ex (V/m) @ t=3.5
1.3800126580340866
% es.Ey (V/m) @ t=3.5
0.6190996838038383
% es.Ez (V/m) @ t=3.5
-1.3607664003492967
% es.tEx (V/m) @ t=3.5
1.3800126580340795
% es.tEy (V/m) @ t=3.5
0
% es.tEz (V/m) @ t=3.5
-1.360766400349295
% V (V) @ t=3.5
0.03536607816773961
% es.normE (V/m) @ t=3.6
2.1568516998767295
% es.EX (V/m) @ t=3.6
1.4363538901662203
% es.EY (V/m) @ t=3.6
0.6443727908261376
% es.EZ (V/m) @ t=3.6
-1.4163209256170166
% es.tEX (V/m) @ t=3.6
1.436353890166206
% es.tEY (V/m) @ t=3.6
0
% es.tEZ (V/m) @ t=3.6
-1.416320925617022
% es.Ex (V/m) @ t=3.6
1.4363538901662203
% es.Ey (V/m) @ t=3.6
0.6443727908261376
% es.Ez (V/m) @ t=3.6
-1.4163209256170166
% es.tEx (V/m) @ t=3.6
1.436353890166206
% es.tEy (V/m) @ t=3.6
0
% es.tEz (V/m) @ t=3.6
-1.416320925617022
% V (V) @ t=3.6
0.03681003162330428
% es.normE (V/m) @ t=3.7
2.2436811694478522
% es.EX (V/m) @ t=3.7
1.494177937629125
% es.EY (V/m) @ t=3.7
0.6703135930298671
% es.EZ (V/m) @ t=3.7
-1.4733384778119163
% es.tEX (V/m) @ t=3.7
1.494177937629125
% es.tEY (V/m) @ t=3.7
0
% es.tEZ (V/m) @ t=3.7
-1.4733384778119323
% es.Ex (V/m) @ t=3.7
1.494177937629125
% es.Ey (V/m) @ t=3.7
0.6703135930298671
% es.Ez (V/m) @ t=3.7
-1.4733384778119163
% es.tEx (V/m) @ t=3.7
1.494177937629125
% es.tEy (V/m) @ t=3.7
0
% es.tEz (V/m) @ t=3.7
-1.4733384778119323
% V (V) @ t=3.7
0.0382919136749184
% es.normE (V/m) @ t=3.8
2.332930848573287
% es.EX (V/m) @ t=3.8
1.5536131857670412
% es.EY (V/m) @ t=3.8
0.6969783778413658
% es.EZ (V/m) @ t=3.8
-1.5319451806938957
% es.tEX (V/m) @ t=3.8
1.553613185767027
% es.tEY (V/m) @ t=3.8
0
% es.tEZ (V/m) @ t=3.8
-1.53194518069391
% es.Ex (V/m) @ t=3.8
1.5536131857670412
% es.Ey (V/m) @ t=3.8
0.6969783778413658
% es.Ez (V/m) @ t=3.8
-1.5319451806938957
% es.tEx (V/m) @ t=3.8
1.553613185767027
% es.tEy (V/m) @ t=3.8
0
% es.tEz (V/m) @ t=3.8
-1.53194518069391
% V (V) @ t=3.8
0.039815052608497825
% es.normE (V/m) @ t=3.9
2.4246624331207594
% es.EX (V/m) @ t=3.9
1.6147009135633397
% es.EY (V/m) @ t=3.9
0.7243852430252327
% es.EZ (V/m) @ t=3.9
-1.5921815860924013
% es.tEX (V/m) @ t=3.9
1.6147009135633184
% es.tEY (V/m) @ t=3.9
0
% es.tEZ (V/m) @ t=3.9
-1.5921815860924013
% es.Ex (V/m) @ t=3.9
1.6147009135633397
% es.Ey (V/m) @ t=3.9
0.7243852430252327
% es.Ez (V/m) @ t=3.9
-1.5921815860924013
% es.tEx (V/m) @ t=3.9
1.6147009135633184
% es.tEy (V/m) @ t=3.9
0
% es.tEz (V/m) @ t=3.9
-1.5921815860924013
% V (V) @ t=3.9
0.04138051854820478
% es.normE (V/m) @ t=4
2.5188759230921542
% es.EX (V/m) @ t=4
1.6774411210180915
% es.EY (V/m) @ t=4
0.7525341885814738
% es.EZ (V/m) @ t=4
-1.6540476940074242
% es.tEX (V/m) @ t=4
1.6774411210180844
% es.tEY (V/m) @ t=4
0
% es.tEZ (V/m) @ t=4
-1.6540476940074456
% es.Ex (V/m) @ t=4
1.6774411210180915
% es.Ey (V/m) @ t=4
0.7525341885814738
% es.Ez (V/m) @ t=4
-1.6540476940074242
% es.tEx (V/m) @ t=4
1.6774411210180844
% es.tEy (V/m) @ t=4
0
% es.tEz (V/m) @ t=4
-1.6540476940074456
% V (V) @ t=4
0.04298831149403921
% es.normE (V/m) @ t=4.1
2.6155713184897165
% es.EX (V/m) @ t=4.1
1.7418338081311404
% es.EY (V/m) @ t=4.1
0.7814252145100928
% es.EZ (V/m) @ t=4.1
-1.7175435044389573
% es.tEX (V/m) @ t=4.1
1.7418338081311262
% es.tEY (V/m) @ t=4.1
0
% es.tEZ (V/m) @ t=4.1
-1.7175435044389644
% es.Ex (V/m) @ t=4.1
1.7418338081311404
% es.Ey (V/m) @ t=4.1
0.7814252145100928
% es.Ez (V/m) @ t=4.1
-1.7175435044389573
% es.tEx (V/m) @ t=4.1
1.7418338081311262
% es.tEy (V/m) @ t=4.1
0
% es.tEz (V/m) @ t=4.1
-1.7175435044389644
% V (V) @ t=4.1
0.04463843144600118
% es.normE (V/m) @ t=4.2
2.7136664511753947
% es.EX (V/m) @ t=4.2
1.8071586289367758
% es.EY (V/m) @ t=4.2
0.8107344554843259
% es.EZ (V/m) @ t=4.2
-1.7819584643138846
% es.tEX (V/m) @ t=4.2
1.8071586289367758
% es.tEY (V/m) @ t=4.2
0
% es.tEZ (V/m) @ t=4.2
-1.7819584643138953
% es.Ex (V/m) @ t=4.2
1.8071586289367758
% es.Ey (V/m) @ t=4.2
0.8107344554843259
% es.Ez (V/m) @ t=4.2
-1.7819584643138846
% es.tEx (V/m) @ t=4.2
1.8071586289367758
% es.tEy (V/m) @ t=4.2
0
% es.tEz (V/m) @ t=4.2
-1.7819584643138953
% V (V) @ t=4.2
0.0463124384301066
% es.normE (V/m) @ t=4.3
2.8119845501419176
% es.EX (V/m) @ t=4.3
1.8726322650068283
% es.EY (V/m) @ t=4.3
0.8401097339524615
% es.EZ (V/m) @ t=4.3
-1.8465199041890337
% es.tEX (V/m) @ t=4.3
1.8726322650068283
% es.tEY (V/m) @ t=4.3
0
% es.tEZ (V/m) @ t=4.3
-1.8465199041890372
% es.Ex (V/m) @ t=4.3
1.8726322650068283
% es.Ey (V/m) @ t=4.3
0.8401097339524615
% es.Ez (V/m) @ t=4.3
-1.8465199041890337
% es.tEx (V/m) @ t=4.3
1.8726322650068283
% es.tEy (V/m) @ t=4.3
0
% es.tEz (V/m) @ t=4.3
-1.8465199041890372
% V (V) @ t=4.3
0.04799028045450653
% es.normE (V/m) @ t=4.4
2.9118626766123725
% es.EX (V/m) @ t=4.4
1.939144732062978
% es.EY (V/m) @ t=4.4
0.8699511982406349
% es.EZ (V/m) @ t=4.4
-1.9121057402826125
% es.tEX (V/m) @ t=4.4
1.939144732062978
% es.tEY (V/m) @ t=4.4
0
% es.tEZ (V/m) @ t=4.4
-1.9121057402826054
% es.Ex (V/m) @ t=4.4
1.939144732062978
% es.Ey (V/m) @ t=4.4
0.8699511982406349
% es.Ez (V/m) @ t=4.4
-1.9121057402826125
% es.tEx (V/m) @ t=4.4
1.939144732062978
% es.tEy (V/m) @ t=4.4
0
% es.tEz (V/m) @ t=4.4
-1.9121057402826054
% V (V) @ t=4.4
0.04969474083101275
% es.normE (V/m) @ t=4.5
3.0133008305868145
% es.EX (V/m) @ t=4.5
2.006696030105111
% es.EY (V/m) @ t=4.5
0.9002588483488392
% es.EZ (V/m) @ t=4.5
-1.9787159725945713
% es.tEX (V/m) @ t=4.5
2.006696030105111
% es.tEY (V/m) @ t=4.5
0
% es.tEZ (V/m) @ t=4.5
-1.9787159725945784
% es.Ex (V/m) @ t=4.5
2.006696030105111
% es.Ey (V/m) @ t=4.5
0.9002588483488392
% es.Ez (V/m) @ t=4.5
-1.9787159725945713
% es.tEx (V/m) @ t=4.5
2.006696030105111
% es.tEy (V/m) @ t=4.5
0
% es.tEz (V/m) @ t=4.5
-1.9787159725945784
% V (V) @ t=4.5
0.051425819559625274
% es.normE (V/m) @ t=4.6
3.1162990120655163
% es.EX (V/m) @ t=4.6
2.075286159133295
% es.EY (V/m) @ t=4.6
0.9310326842771053
% es.EZ (V/m) @ t=4.6
-2.0463506011249777
% es.tEX (V/m) @ t=4.6
2.075286159133306
% es.tEY (V/m) @ t=4.6
0
% es.tEZ (V/m) @ t=4.6
-2.046350601124985
% es.Ex (V/m) @ t=4.6
2.075286159133295
% es.Ey (V/m) @ t=4.6
0.9310326842771053
% es.Ez (V/m) @ t=4.6
-2.0463506011249777
% es.tEx (V/m) @ t=4.6
2.075286159133306
% es.tEy (V/m) @ t=4.6
0
% es.tEz (V/m) @ t=4.6
-2.046350601124985
% V (V) @ t=4.6
0.05318351664034408
% es.normE (V/m) @ t=4.7
3.220857221048578
% es.EX (V/m) @ t=4.7
2.144915119147562
% es.EY (V/m) @ t=4.7
0.9622727060253737
% es.EZ (V/m) @ t=4.7
-2.11500962587375
% es.tEX (V/m) @ t=4.7
2.144915119147548
% es.tEY (V/m) @ t=4.7
0
% es.tEZ (V/m) @ t=4.7
-2.115009625873739
% es.Ex (V/m) @ t=4.7
2.144915119147562
% es.Ey (V/m) @ t=4.7
0.9622727060253737
% es.Ez (V/m) @ t=4.7
-2.11500962587375
% es.tEx (V/m) @ t=4.7
2.144915119147548
% es.tEy (V/m) @ t=4.7
0
% es.tEz (V/m) @ t=4.7
-2.115009625873739
% V (V) @ t=4.7
0.05496783207316918
% es.normE (V/m) @ t=4.8
3.323732752829501
% es.EX (V/m) @ t=4.8
2.2134260489912307
% es.EY (V/m) @ t=4.8
0.9930056076481746
% es.EZ (V/m) @ t=4.8
-2.18256420551349
% es.tEX (V/m) @ t=4.8
2.2134260489912307
% es.tEY (V/m) @ t=4.8
0
% es.tEZ (V/m) @ t=4.8
-2.1825642055135077
% es.Ex (V/m) @ t=4.8
2.2134260489912307
% es.Ey (V/m) @ t=4.8
0.9930056076481746
% es.Ez (V/m) @ t=4.8
-2.18256420551349
% es.tEx (V/m) @ t=4.8
2.2134260489912307
% es.tEy (V/m) @ t=4.8
0
% es.tEz (V/m) @ t=4.8
-2.1825642055135077
% V (V) @ t=4.8
0.05672365410704697
% es.normE (V/m) @ t=4.9
3.4263356714960826
% es.EX (V/m) @ t=4.9
2.2817568424026007
% es.EY (V/m) @ t=4.9
1.0236546234129866
% es.EZ (V/m) @ t=4.9
-2.249940049584982
% es.tEX (V/m) @ t=4.9
2.2817568424026007
% es.tEY (V/m) @ t=4.9
0
% es.tEZ (V/m) @ t=4.9
-2.2499400495849997
% es.Ex (V/m) @ t=4.9
2.2817568424026007
% es.Ey (V/m) @ t=4.9
1.0236546234129866
% es.Ez (V/m) @ t=4.9
-2.249940049584982
% es.tEx (V/m) @ t=4.9
2.2817568424026007
% es.tEy (V/m) @ t=4.9
0
% es.tEz (V/m) @ t=4.9
-2.2499400495849997
% V (V) @ t=4.9
0.058474947643965554
% es.normE (V/m) @ t=5
3.528512626946837
% es.EX (V/m) @ t=5
2.3498054996774442
% es.EY (V/m) @ t=5
1.0541737248964091
% es.EZ (V/m) @ t=5
-2.3170364834643316
% es.tEX (V/m) @ t=5
2.34980549967743
% es.tEY (V/m) @ t=5
0
% es.tEZ (V/m) @ t=5
-2.3170364834643777
% es.Ex (V/m) @ t=5
2.3498054996774442
% es.Ey (V/m) @ t=5
1.0541737248964091
% es.Ez (V/m) @ t=5
-2.3170364834643316
% es.tEx (V/m) @ t=5
2.34980549967743
% es.tEy (V/m) @ t=5
0
% es.tEz (V/m) @ t=5
-2.3170364834643777
% V (V) @ t=5
0.06021910640475464
% es.normE (V/m) @ t=5.1
3.629995297704264
% es.EX (V/m) @ t=5.1
2.4173935487382394
% es.EY (V/m) @ t=5.1
1.084482374724181
% es.EZ (V/m) @ t=5.1
-2.3836773536085225
% es.tEX (V/m) @ t=5.1
2.417393548738211
% es.tEY (V/m) @ t=5.1
0
% es.tEZ (V/m) @ t=5.1
-2.383677353608512
% es.Ex (V/m) @ t=5.1
2.4173935487382394
% es.Ey (V/m) @ t=5.1
1.084482374724181
% es.Ez (V/m) @ t=5.1
-2.3836773536085225
% es.tEx (V/m) @ t=5.1
2.417393548738211
% es.tEy (V/m) @ t=5.1
0
% es.tEz (V/m) @ t=5.1
-2.383677353608512
% V (V) @ t=5.1
0.06195157010110976
% es.normE (V/m) @ t=5.2
3.7305153623084695
% es.EX (V/m) @ t=5.2
2.4843425175074856
% es.EY (V/m) @ t=5.2
1.1145000355219965
% es.EZ (V/m) @ t=5.2
-2.449686506474695
% es.tEX (V/m) @ t=5.2
2.4843425175074714
% es.tEY (V/m) @ t=5.2
0
% es.tEZ (V/m) @ t=5.2
-2.4496865064747197
% es.Ex (V/m) @ t=5.2
2.4843425175074856
% es.Ey (V/m) @ t=5.2
1.1145000355219965
% es.Ez (V/m) @ t=5.2
-2.449686506474695
% es.tEx (V/m) @ t=5.2
2.4843425175074714
% es.tEy (V/m) @ t=5.2
0
% es.tEz (V/m) @ t=5.2
-2.4496865064747197
% V (V) @ t=5.2
0.06366777844472633
% es.normE (V/m) @ t=5.3
3.8289804216873087
% es.EX (V/m) @ t=5.3
2.549921675568797
% es.EY (V/m) @ t=5.3
1.143905968890551
% es.EZ (V/m) @ t=5.3
-2.514345963638487
% es.tEX (V/m) @ t=5.3
2.549921675568797
% es.tEY (V/m) @ t=5.3
0
% es.tEZ (V/m) @ t=5.3
-2.5143459636385046
% es.Ex (V/m) @ t=5.3
2.549921675568797
% es.Ey (V/m) @ t=5.3
1.143905968890551
% es.Ez (V/m) @ t=5.3