% Model:              1x1--2 - Copy1.mph
% Version:            COMSOL 6.1.0.252
% Date:               Apr 3 2023, 14:53
% Dimension:          0
% Nodes:              14017
% Expressions:        14017
% Description:        Electric field norm, Electric field, X component, Electric field, Y component, Electric field, Z component, Tangential electric field, X component, Tangential electric field, Y component, Tangential electric field, Z component, Electric field, x component, Electric field, y component, Electric field, z component, Tangential electric field, x component, Tangential electric field, y component, Tangential electric field, z component, Electric potential
% Length unit:        mm
% x
2
% y
12.199999999999998
% z
1.6599999999999997
% es.normE (V/m) @ t=0
0.5718512057117849
% es.EX (V/m) @ t=0
0.2895671060345467
% es.EY (V/m) @ t=0
0.14131901029127333
% es.EZ (V/m) @ t=0
-0.45313420561030915
% es.tEX (V/m) @ t=0
0.28956710603454994
% es.tEY (V/m) @ t=0
0
% es.tEZ (V/m) @ t=0
-0.4531342056103087
% es.Ex (V/m) @ t=0
0.2895671060345467
% es.Ey (V/m) @ t=0
0.14131901029127333
% es.Ez (V/m) @ t=0
-0.45313420561030915
% es.tEx (V/m) @ t=0
0.28956710603454994
% es.tEy (V/m) @ t=0
0
% es.tEz (V/m) @ t=0
-0.4531342056103087
% V (V) @ t=0
0.009610373763904669
% es.normE (V/m) @ t=0.1
0.5807436833140832
% es.EX (V/m) @ t=0.1
0.2940699716398466
% es.EY (V/m) @ t=0.1
0.14351656741053384
% es.EZ (V/m) @ t=0.1
-0.4601805944394628
% es.tEX (V/m) @ t=0.1
0.2940699716398445
% es.tEY (V/m) @ t=0.1
0
% es.tEZ (V/m) @ t=0.1
-0.460180594439465
% es.Ex (V/m) @ t=0.1
0.2940699716398466
% es.Ey (V/m) @ t=0.1
0.14351656741053384
% es.Ez (V/m) @ t=0.1
-0.4601805944394628
% es.tEx (V/m) @ t=0.1
0.2940699716398445
% es.tEy (V/m) @ t=0.1
0
% es.tEz (V/m) @ t=0.1
-0.460180594439465
% V (V) @ t=0.1
0.009759818321953453
% es.normE (V/m) @ t=0.2
0.6083675769350141
% es.EX (V/m) @ t=0.2
0.30805775110590594
% es.EY (V/m) @ t=0.2
0.15034340865739382
% es.EZ (V/m) @ t=0.2
-0.4820696281235861
% es.tEX (V/m) @ t=0.2
0.30805775110590083
% es.tEY (V/m) @ t=0.2
0
% es.tEZ (V/m) @ t=0.2
-0.4820696281235852
% es.Ex (V/m) @ t=0.2
0.30805775110590594
% es.Ey (V/m) @ t=0.2
0.15034340865739382
% es.Ez (V/m) @ t=0.2
-0.4820696281235861
% es.tEx (V/m) @ t=0.2
0.30805775110590083
% es.tEy (V/m) @ t=0.2
0
% es.tEz (V/m) @ t=0.2
-0.4820696281235852
% V (V) @ t=0.2
0.01022404722355852
% es.normE (V/m) @ t=0.3
0.6372553711283828
% es.EX (V/m) @ t=0.3
0.32268586056763504
% es.EY (V/m) @ t=0.3
0.1574813718533919
% es.EZ (V/m) @ t=0.3
-0.5049606502346693
% es.tEX (V/m) @ t=0.3
0.3226858605676295
% es.tEY (V/m) @ t=0.3
0
% es.tEZ (V/m) @ t=0.3
-0.5049606502346711
% es.Ex (V/m) @ t=0.3
0.32268586056763504
% es.Ey (V/m) @ t=0.3
0.1574813718533919
% es.Ez (V/m) @ t=0.3
-0.5049606502346693
% es.tEx (V/m) @ t=0.3
0.3226858605676295
% es.tEy (V/m) @ t=0.3
0
% es.tEz (V/m) @ t=0.3
-0.5049606502346711
% V (V) @ t=0.3
0.010709564455224514
% es.normE (V/m) @ t=0.4
0.6687838887031126
% es.EX (V/m) @ t=0.4
0.3386525517125546
% es.EY (V/m) @ t=0.4
0.16526675395018087
% es.EZ (V/m) @ t=0.4
-0.529946192097392
% es.tEX (V/m) @ t=0.4
0.33865255171255626
% es.tEY (V/m) @ t=0.4
0
% es.tEZ (V/m) @ t=0.4
-0.5299461920973974
% es.Ex (V/m) @ t=0.4
0.3386525517125546
% es.Ey (V/m) @ t=0.4
0.16526675395018087
% es.Ez (V/m) @ t=0.4
-0.529946192097392
% es.tEx (V/m) @ t=0.4
0.33865255171255626
% es.tEy (V/m) @ t=0.4
0
% es.tEz (V/m) @ t=0.4
-0.5299461920973974
% V (V) @ t=0.4
0.011239662553843777
% es.normE (V/m) @ t=0.5
0.7003124063676232
% es.EX (V/m) @ t=0.5
0.3546192428574627
% es.EY (V/m) @ t=0.5
0.17305213604697156
% es.EZ (V/m) @ t=0.5
-0.5549317339601254
% es.tEX (V/m) @ t=0.5
0.3546192428574635
% es.tEY (V/m) @ t=0.5
0
% es.tEZ (V/m) @ t=0.5
-0.5549317339601245
% es.Ex (V/m) @ t=0.5
0.3546192428574627
% es.Ey (V/m) @ t=0.5
0.17305213604697156
% es.Ez (V/m) @ t=0.5
-0.5549317339601254
% es.tEx (V/m) @ t=0.5
0.3546192428574635
% es.tEy (V/m) @ t=0.5
0
% es.tEz (V/m) @ t=0.5
-0.5549317339601245
% V (V) @ t=0.5
0.011769760652463044
% es.normE (V/m) @ t=0.6
0.7333811172472253
% es.EX (V/m) @ t=0.6
0.3713642219481772
% es.EY (V/m) @ t=0.6
0.18122409292929004
% es.EZ (V/m) @ t=0.6
-0.5811354046299622
% es.tEX (V/m) @ t=0.6
0.37136422194818053
% es.tEY (V/m) @ t=0.6
0
% es.tEZ (V/m) @ t=0.6
-0.5811354046299577
% es.Ex (V/m) @ t=0.6
0.3713642219481772
% es.Ey (V/m) @ t=0.6
0.18122409292929004
% es.Ez (V/m) @ t=0.6
-0.5811354046299622
% es.tEx (V/m) @ t=0.6
0.37136422194818053
% es.tEy (V/m) @ t=0.6
0
% es.tEz (V/m) @ t=0.6
-0.5811354046299577
% V (V) @ t=0.6
0.012325510719717775
% es.normE (V/m) @ t=0.7
0.7686598137580052
% es.EX (V/m) @ t=0.7
0.3892259473831595
% es.EY (V/m) @ t=0.7
0.1899507365195543
% es.EZ (V/m) @ t=0.7
-0.6090869385418349
% es.tEX (V/m) @ t=0.7
0.3892259473831423
% es.tEY (V/m) @ t=0.7
0
% es.tEZ (V/m) @ t=0.7
-0.6090869385418252
% es.Ex (V/m) @ t=0.7
0.3892259473831595
% es.Ey (V/m) @ t=0.7
0.1899507365195543
% es.Ez (V/m) @ t=0.7
-0.6090869385418349
% es.tEx (V/m) @ t=0.7
0.3892259473831423
% es.tEy (V/m) @ t=0.7
0
% es.tEz (V/m) @ t=0.7
-0.6090869385418252
% V (V) @ t=0.7
0.01291806816957628
% es.normE (V/m) @ t=0.8
0.8039385104403343
% es.EX (V/m) @ t=0.8
0.4070876728181081
% es.EY (V/m) @ t=0.8
0.19867738010982572
% es.EZ (V/m) @ t=0.8
-0.637038472453682
% es.tEX (V/m) @ t=0.8
0.40708767281810054
% es.tEY (V/m) @ t=0.8
0
% es.tEZ (V/m) @ t=0.8
-0.6370384724536731
% es.Ex (V/m) @ t=0.8
0.4070876728181081
% es.Ey (V/m) @ t=0.8
0.19867738010982572
% es.Ez (V/m) @ t=0.8
-0.637038472453682
% es.tEx (V/m) @ t=0.8
0.40708767281810054
% es.tEy (V/m) @ t=0.8
0
% es.tEz (V/m) @ t=0.8
-0.6370384724536731
% V (V) @ t=0.8
0.013510625619434781
% es.normE (V/m) @ t=0.9
0.8418756008036649
% es.EX (V/m) @ t=0.9
0.4262975543042219
% es.EY (V/m) @ t=0.9
0.20805350098316316
% es.EZ (V/m) @ t=0.9
-0.6670994271091546
% es.tEX (V/m) @ t=0.9
0.4262975543042131
% es.tEY (V/m) @ t=0.9
0
% es.tEZ (V/m) @ t=0.9
-0.6670994271091519
% es.Ex (V/m) @ t=0.9
0.4262975543042219
% es.Ey (V/m) @ t=0.9
0.20805350098316316
% es.Ez (V/m) @ t=0.9
-0.6670994271091546
% es.tEx (V/m) @ t=0.9
0.4262975543042131
% es.tEy (V/m) @ t=0.9
0
% es.tEz (V/m) @ t=0.9
-0.6670994271091519
% V (V) @ t=0.9
0.014148150858996867
% es.normE (V/m) @ t=1
0.8814644984086204
% es.EX (V/m) @ t=1
0.44634511983902425
% es.EY (V/m) @ t=1
0.21783317807652436
% es.EZ (V/m) @ t=1
-0.6984710817443132
% es.tEX (V/m) @ t=1
0.4463451198390196
% es.tEY (V/m) @ t=1
0
% es.tEZ (V/m) @ t=1
-0.6984710817443114
% es.Ex (V/m) @ t=1
0.44634511983902425
% es.Ey (V/m) @ t=1
0.21783317807652436
% es.Ez (V/m) @ t=1
-0.6984710817443132
% es.tEx (V/m) @ t=1
0.4463451198390196
% es.tEy (V/m) @ t=1
0
% es.tEz (V/m) @ t=1
-0.6984710817443114
% V (V) @ t=1
0.014813617077725726
% es.normE (V/m) @ t=1.1
0.9210533960426215
% es.EX (V/m) @ t=1.1
0.46639268537383993
% es.EY (V/m) @ t=1.1
0.2276128551698846
% es.EZ (V/m) @ t=1.1
-0.7298427363794842
% es.tEX (V/m) @ t=1.1
0.46639268537383316
% es.tEY (V/m) @ t=1.1
0
% es.tEZ (V/m) @ t=1.1
-0.7298427363794788
% es.Ex (V/m) @ t=1.1
0.46639268537383993
% es.Ey (V/m) @ t=1.1
0.2276128551698846
% es.Ez (V/m) @ t=1.1
-0.7298427363794842
% es.tEx (V/m) @ t=1.1
0.46639268537383316
% es.tEy (V/m) @ t=1.1
0
% es.tEz (V/m) @ t=1.1
-0.7298427363794788
% V (V) @ t=1.1
0.015479083296454582
% es.normE (V/m) @ t=1.2
0.9627829433041386
% es.EX (V/m) @ t=1.2
0.4875237803506943
% es.EY (V/m) @ t=1.2
0.2379231135660299
% es.EZ (V/m) @ t=1.2
-0.7629100269025733
% es.tEX (V/m) @ t=1.2
0.48752378035068844
% es.tEY (V/m) @ t=1.2
0
% es.tEZ (V/m) @ t=1.2
-0.7629100269025759
% es.Ex (V/m) @ t=1.2
0.4875237803506943
% es.Ey (V/m) @ t=1.2
0.2379231135660299
% es.Ez (V/m) @ t=1.2
-0.7629100269025733
% es.tEx (V/m) @ t=1.2
0.48752378035068844
% es.tEy (V/m) @ t=1.2
0
% es.tEz (V/m) @ t=1.2
-0.7629100269025759
% V (V) @ t=1.2
0.016180463399772898
% es.normE (V/m) @ t=1.3
1.006284557497427
% es.EX (V/m) @ t=1.3
0.5095518398216463
% es.EY (V/m) @ t=1.3
0.248672596381336
% es.EZ (V/m) @ t=1.3
-0.7973809942685408
% es.tEX (V/m) @ t=1.3
0.5095518398216718
% es.tEY (V/m) @ t=1.3
0
% es.tEZ (V/m) @ t=1.3
-0.797380994268531
% es.Ex (V/m) @ t=1.3
0.5095518398216463
% es.Ey (V/m) @ t=1.3
0.248672596381336
% es.Ez (V/m) @ t=1.3
-0.7973809942685408
% es.tEx (V/m) @ t=1.3
0.5095518398216718
% es.tEy (V/m) @ t=1.3
0
% es.tEz (V/m) @ t=1.3
-0.797380994268531
% V (V) @ t=1.3
0.016911573640613794
% es.normE (V/m) @ t=1.4
1.0512247748326022
% es.EX (V/m) @ t=1.4
0.5323080749161606
% es.EY (V/m) @ t=1.4
0.2597786512988626
% es.EZ (V/m) @ t=1.4
-0.8329914975548052
% es.tEX (V/m) @ t=1.4
0.5323080749161591
% es.tEY (V/m) @ t=1.4
0
% es.tEZ (V/m) @ t=1.4
-0.8329914975548105
% es.Ex (V/m) @ t=1.4
0.5323080749161606
% es.Ey (V/m) @ t=1.4
0.2597786512988626
% es.Ez (V/m) @ t=1.4
-0.8329914975548052
% es.tEx (V/m) @ t=1.4
0.5323080749161591
% es.tEy (V/m) @ t=1.4
0
% es.tEz (V/m) @ t=1.4
-0.8329914975548105
% V (V) @ t=1.4
0.017666819464936825
% es.normE (V/m) @ t=1.5
1.0976035953119574
% es.EX (V/m) @ t=1.5
0.555792485634198
% es.EY (V/m) @ t=1.5
0.271241278318646
% es.EZ (V/m) @ t=1.5
-0.8697415367614392
% es.tEX (V/m) @ t=1.5
0.555792485634182
% es.tEY (V/m) @ t=1.5
0
% es.tEZ (V/m) @ t=1.5
-0.8697415367614418
% es.Ex (V/m) @ t=1.5
0.555792485634198
% es.Ey (V/m) @ t=1.5
0.271241278318646
% es.Ez (V/m) @ t=1.5
-0.8697415367614392
% es.tEx (V/m) @ t=1.5
0.555792485634182
% es.tEy (V/m) @ t=1.5
0
% es.tEz (V/m) @ t=1.5
-0.8697415367614418
% V (V) @ t=1.5
0.018446200872741972
% es.normE (V/m) @ t=1.6
1.145421018942612
% es.EX (V/m) @ t=1.6
0.5800050719757213
% es.EY (V/m) @ t=1.6
0.2830604774406384
% es.EZ (V/m) @ t=1.6
-0.9076311118883602
% es.tEX (V/m) @ t=1.6
0.5800050719757195
% es.tEY (V/m) @ t=1.6
0
% es.tEZ (V/m) @ t=1.6
-0.9076311118883691
% es.Ex (V/m) @ t=1.6
0.5800050719757213
% es.Ey (V/m) @ t=1.6
0.2830604774406384
% es.Ez (V/m) @ t=1.6
-0.9076311118883602
% es.tEx (V/m) @ t=1.6
0.5800050719757195
% es.tEy (V/m) @ t=1.6
0
% es.tEz (V/m) @ t=1.6
-0.9076311118883691
% V (V) @ t=1.6
0.019249717864029254
% es.normE (V/m) @ t=1.7
1.1950766249012577
% es.EX (V/m) @ t=1.7
0.6051484950031849
% es.EY (V/m) @ t=1.7
0.29533379038998037
% es.EZ (V/m) @ t=1.7
-0.9469773180752448
% es.tEX (V/m) @ t=1.7
0.6051484950031778
% es.tEY (V/m) @ t=1.7
0
% es.tEZ (V/m) @ t=1.7
-0.9469773180752519
% es.Ex (V/m) @ t=1.7
0.6051484950031849
% es.Ey (V/m) @ t=1.7
0.29533379038998037
% es.Ez (V/m) @ t=1.7
-0.9469773180752448
% es.tEx (V/m) @ t=1.7
0.6051484950031778
% es.tEy (V/m) @ t=1.7
0
% es.tEz (V/m) @ t=1.7
-0.9469773180752519
% V (V) @ t=1.7
0.020084132597224223
% es.normE (V/m) @ t=1.8
1.247832430976339
% es.EX (V/m) @ t=1.8
0.631862832797865
% es.EY (V/m) @ t=1.8
0.3083692897659595
% es.EZ (V/m) @ t=1.8
-0.9887816582559594
% es.tEX (V/m) @ t=1.8
0.6318628327978821
% es.tEY (V/m) @ t=1.8
0
% es.tEZ (V/m) @ t=1.8
-0.9887816582559488
% es.Ex (V/m) @ t=1.8
0.631862832797865
% es.Ey (V/m) @ t=1.8
0.3083692897659595
% es.Ez (V/m) @ t=1.8
-0.9887816582559594
% es.tEx (V/m) @ t=1.8
0.6318628327978821
% es.tEy (V/m) @ t=1.8
0
% es.tEz (V/m) @ t=1.8
-0.9887816582559488
% V (V) @ t=1.8
0.020970802452675474
% es.normE (V/m) @ t=1.9
1.302610923723304
% es.EX (V/m) @ t=1.9
0.6596015853466639
% es.EY (V/m) @ t=1.9
0.3219039425348696
% es.EZ (V/m) @ t=1.9
-1.0321890471175177
% es.tEX (V/m) @ t=1.9
0.6596015853466746
% es.tEY (V/m) @ t=1.9
0
% es.tEZ (V/m) @ t=1.9
-1.032189047117516
% es.Ex (V/m) @ t=1.9
0.6596015853466639
% es.Ey (V/m) @ t=1.9
0.3219039425348696
% es.Ez (V/m) @ t=1.9
-1.0321890471175177
% es.tEx (V/m) @ t=1.9
0.6596015853466746
% es.tEy (V/m) @ t=1.9
0
% es.tEz (V/m) @ t=1.9
-1.032189047117516
% V (V) @ t=1.9
0.021891492454087846
% es.normE (V/m) @ t=2
1.3594121031481121
% es.EX (V/m) @ t=2
0.6883647526496206
% es.EY (V/m) @ t=2
0.33593774869672277
% es.EZ (V/m) @ t=2
-1.077199484659955
% es.tEX (V/m) @ t=2
0.6883647526496084
% es.tEY (V/m) @ t=2
0
% es.tEZ (V/m) @ t=2
-1.0771994846599533
% es.Ex (V/m) @ t=2
0.6883647526496206
% es.Ey (V/m) @ t=2
0.33593774869672277
% es.Ez (V/m) @ t=2
-1.077199484659955
% es.tEx (V/m) @ t=2
0.6883647526496084
% es.tEy (V/m) @ t=2
0
% es.tEz (V/m) @ t=2
-1.0771994846599533
% V (V) @ t=2
0.022846202601461345
% es.normE (V/m) @ t=2.1
1.4182359692574664
% es.EX (V/m) @ t=2.1
0.7181523347067167
% es.EY (V/m) @ t=2.1
0.3504707082514325
% es.EZ (V/m) @ t=2.1
-1.123812970883284
% es.tEX (V/m) @ t=2.1
0.7181523347067085
% es.tEY (V/m) @ t=2.1
0
% es.tEZ (V/m) @ t=2.1
-1.1238129708832894
% es.Ex (V/m) @ t=2.1
0.7181523347067167
% es.Ey (V/m) @ t=2.1
0.3504707082514325
% es.Ez (V/m) @ t=2.1
-1.123812970883284
% es.tEx (V/m) @ t=2.1
0.7181523347067085
% es.tEy (V/m) @ t=2.1
0
% es.tEz (V/m) @ t=2.1
-1.1238129708832894
% V (V) @ t=2.1
0.02383493289479596
% es.normE (V/m) @ t=2.2
1.4790825220586632
% es.EX (V/m) @ t=2.2
0.7489643315179086
% es.EY (V/m) @ t=2.2
0.36550282119912625
% es.EZ (V/m) @ t=2.2
-1.1720295057874548
% es.tEX (V/m) @ t=2.2
0.7489643315178967
% es.tEY (V/m) @ t=2.2
0
% es.tEZ (V/m) @ t=2.2
-1.172029505787462
% es.Ex (V/m) @ t=2.2
0.7489643315179086
% es.Ey (V/m) @ t=2.2
0.36550282119912625
% es.Ez (V/m) @ t=2.2
-1.1720295057874548
% es.tEx (V/m) @ t=2.2
0.7489643315178967
% es.tEy (V/m) @ t=2.2
0
% es.tEz (V/m) @ t=2.2
-1.172029505787462
% V (V) @ t=2.2
0.024857683334091687
% es.normE (V/m) @ t=2.3
1.5430661290150183
% es.EX (V/m) @ t=2.3
0.7813641506033726
% es.EY (V/m) @ t=2.3
0.38131269035033155
% es.EZ (V/m) @ t=2.3
-1.2227308609738952
% es.tEX (V/m) @ t=2.3
0.7813641506033733
% es.tEY (V/m) @ t=2.3
0
% es.tEZ (V/m) @ t=2.3
-1.2227308609738898
% es.Ex (V/m) @ t=2.3
0.7813641506033726
% es.Ey (V/m) @ t=2.3
0.38131269035033155
% es.Ez (V/m) @ t=2.3
-1.2227308609738952
% es.tEx (V/m) @ t=2.3
0.7813641506033733
% es.tEy (V/m) @ t=2.3
0
% es.tEz (V/m) @ t=2.3
-1.2227308609738898
% V (V) @ t=2.3
0.025933056459376054
% es.normE (V/m) @ t=2.4
1.610135032683213
% es.EX (V/m) @ t=2.4
0.8153256241806834
% es.EY (V/m) @ t=2.4
0.39788737583926403
% es.EZ (V/m) @ t=2.4
-1.2758760820595736
% es.tEX (V/m) @ t=2.4
0.8153256241806375
% es.tEY (V/m) @ t=2.4
0
% es.tEZ (V/m) @ t=2.4
-1.2758760820595967
% es.Ex (V/m) @ t=2.4
0.8153256241806834
% es.Ey (V/m) @ t=2.4
0.39788737583926403
% es.Ez (V/m) @ t=2.4
-1.2758760820595736
% es.tEx (V/m) @ t=2.4
0.8153256241806375
% es.tEy (V/m) @ t=2.4
0
% es.tEz (V/m) @ t=2.4
-1.2758760820595967
% V (V) @ t=2.4
0.027060188265109038
% es.normE (V/m) @ t=2.5
1.6797790088606197
% es.EX (V/m) @ t=2.5
0.8505907905238954
% es.EY (V/m) @ t=2.5
0.41509931660346755
% es.EZ (V/m) @ t=2.5
-1.3310614411635644
% es.tEX (V/m) @ t=2.5
0.8505907905238956
% es.tEY (V/m) @ t=2.5
0
% es.tEZ (V/m) @ t=2.5
-1.331061441163568
% es.Ex (V/m) @ t=2.5
0.8505907905238954
% es.Ey (V/m) @ t=2.5
0.41509931660346755
% es.Ez (V/m) @ t=2.5
-1.3310614411635644
% es.tEx (V/m) @ t=2.5
0.8505907905238956
% es.tEy (V/m) @ t=2.5
0
% es.tEz (V/m) @ t=2.5
-1.331061441163568
% V (V) @ t=2.5
0.028230561393672398
% es.normE (V/m) @ t=2.6
1.7519980575521872
% es.EX (V/m) @ t=2.6
0.8871596496329746
% es.EY (V/m) @ t=2.6
0.4329485126428195
% es.EZ (V/m) @ t=2.6
-1.388286938285761
% es.tEX (V/m) @ t=2.6
0.887159649632963
% es.tEY (V/m) @ t=2.6
0
% es.tEZ (V/m) @ t=2.6
-1.3882869382857574
% es.Ex (V/m) @ t=2.6
0.8871596496329746
% es.Ey (V/m) @ t=2.6
0.4329485126428195
% es.Ez (V/m) @ t=2.6
-1.388286938285761
% es.tEx (V/m) @ t=2.6
0.887159649632963
% es.tEy (V/m) @ t=2.6
0
% es.tEz (V/m) @ t=2.6
-1.3882869382857574
% V (V) @ t=2.6
0.02944417584506613
% es.normE (V/m) @ t=2.7
1.8267921787647161
% es.EX (V/m) @ t=2.7
0.9250322015079302
% es.EY (V/m) @ t=2.7
0.45143496395736404
% es.EZ (V/m) @ t=2.7
-1.4475525734263162
% es.tEX (V/m) @ t=2.7
0.925032201507932
% es.tEY (V/m) @ t=2.7
0
% es.tEZ (V/m) @ t=2.7
-1.4475525734263197
% es.Ex (V/m) @ t=2.7
0.9250322015079302
% es.Ey (V/m) @ t=2.7
0.45143496395736404
% es.Ez (V/m) @ t=2.7
-1.4475525734263162
% es.tEx (V/m) @ t=2.7
0.925032201507932
% es.tEy (V/m) @ t=2.7
0
% es.tEz (V/m) @ t=2.7
-1.4475525734263197
% V (V) @ t=2.7
0.030701031619290248
% es.normE (V/m) @ t=2.8
1.9042427928951882
% es.EX (V/m) @ t=2.8
0.9642496814865495
% es.EY (V/m) @ t=2.8
0.4705787670007483
% es.EZ (V/m) @ t=2.8
-1.5089228735933684
% es.tEX (V/m) @ t=2.8
0.9642496814865495
% es.tEY (V/m) @ t=2.8
0
% es.tEZ (V/m) @ t=2.8
-1.5089228735933577
% es.Ex (V/m) @ t=2.8
0.9642496814865495
% es.Ey (V/m) @ t=2.8
0.4705787670007483
% es.Ez (V/m) @ t=2.8
-1.5089228735933684
% es.tEx (V/m) @ t=2.8
0.9642496814865495
% es.tEy (V/m) @ t=2.8
0
% es.tEz (V/m) @ t=2.8
-1.5089228735933577
% V (V) @ t=2.8
0.03200249799833635
% es.normE (V/m) @ t=2.9
1.9858189190624538
% es.EX (V/m) @ t=2.9
1.0055560739672869
% es.EY (V/m) @ t=2.9
0.49074250999878066
% es.EZ (V/m) @ t=2.9
-1.5735620607883565
% es.tEX (V/m) @ t=2.9
1.0055560739672842
% es.tEY (V/m) @ t=2.9
0
% es.tEZ (V/m) @ t=2.9
-1.5735620607883565
% es.Ex (V/m) @ t=2.9
1.0055560739672869
% es.Ey (V/m) @ t=2.9
0.49074250999878066
% es.Ez (V/m) @ t=2.9
-1.5735620607883565
% es.tEx (V/m) @ t=2.9
1.0055560739672842
% es.tEy (V/m) @ t=2.9
0
% es.tEz (V/m) @ t=2.9
-1.5735620607883565
% V (V) @ t=2.9
0.03337328011363468
% es.normE (V/m) @ t=3
2.0704567776122538
% es.EX (V/m) @ t=3
1.0484126279810222
% es.EY (V/m) @ t=3
0.5116636272867962
% es.EZ (V/m) @ t=3
-1.6406270719942935
% es.tEX (V/m) @ t=3
1.0484126279810368
% es.tEY (V/m) @ t=3
0
% es.tEZ (V/m) @ t=3
-1.6406270719943024
% es.Ex (V/m) @ t=3
1.0484126279810222
% es.Ey (V/m) @ t=3
0.5116636272867962
% es.Ez (V/m) @ t=3
-1.6406270719942935
% es.tEx (V/m) @ t=3
1.0484126279810368
% es.tEy (V/m) @ t=3
0
% es.tEz (V/m) @ t=3
-1.6406270719943024
% V (V) @ t=3
0.034795487921351516
% es.normE (V/m) @ t=3.1
2.1581563685517366
% es.EX (V/m) @ t=3.1
1.0928193435278093
% es.EY (V/m) @ t=3.1
0.5333421188647701
% es.EZ (V/m) @ t=3.1
-1.7101179072113215
% es.tEX (V/m) @ t=3.1
1.0928193435277933
% es.tEY (V/m) @ t=3.1
0
% es.tEZ (V/m) @ t=3.1
-1.7101179072113322
% es.Ex (V/m) @ t=3.1
1.0928193435278093
% es.Ey (V/m) @ t=3.1
0.5333421188647701
% es.Ez (V/m) @ t=3.1
-1.7101179072113215
% es.tEx (V/m) @ t=3.1
1.0928193435277933
% es.tEy (V/m) @ t=3.1
0
% es.tEz (V/m) @ t=3.1
-1.7101179072113322
% V (V) @ t=3.1
0.036269121421486854
% es.normE (V/m) @ t=3.2
2.2489176918879266
% es.EX (V/m) @ t=3.2
1.1387762206075762
% es.EY (V/m) @ t=3.2
0.5557779847328234
% es.EZ (V/m) @ t=3.2
-1.7820345664393376
% es.tEX (V/m) @ t=3.2
1.138776220607582
% es.tEY (V/m) @ t=3.2
0
% es.tEZ (V/m) @ t=3.2
-1.78203456643935
% es.Ex (V/m) @ t=3.2
1.1387762206075762
% es.Ey (V/m) @ t=3.2
0.5557779847328234
% es.Ez (V/m) @ t=3.2
-1.7820345664393376
% es.tEx (V/m) @ t=3.2
1.138776220607582
% es.tEy (V/m) @ t=3.2
0
% es.tEz (V/m) @ t=3.2
-1.78203456643935
% V (V) @ t=3.2
0.037794180614040704
% es.normE (V/m) @ t=3.3
2.3427407476278286
% es.EX (V/m) @ t=3.3
1.186283259220306
% es.EY (V/m) @ t=3.3
0.5789712248908951
% es.EZ (V/m) @ t=3.3
-1.856377049678354
% es.tEX (V/m) @ t=3.3
1.1862832592203105
% es.tEY (V/m) @ t=3.3
0
% es.tEZ (V/m) @ t=3.3
-1.8563770496783754
% es.Ex (V/m) @ t=3.3
1.186283259220306
% es.Ey (V/m) @ t=3.3
0.5789712248908951
% es.Ez (V/m) @ t=3.3
-1.856377049678354
% es.tEx (V/m) @ t=3.3
1.1862832592203105
% es.tEy (V/m) @ t=3.3
0
% es.tEz (V/m) @ t=3.3
-1.8563770496783754
% V (V) @ t=3.3
0.03937066549901304
% es.normE (V/m) @ t=3.4
2.439652796592941
% es.EX (V/m) @ t=3.4
1.2353548849124396
% es.EY (V/m) @ t=3.4
0.6029262869698441
% es.EZ (V/m) @ t=3.4
-1.9331678499243452
% es.tEX (V/m) @ t=3.4
1.235354884912411
% es.tEY (V/m) @ t=3.4
0
% es.tEZ (V/m) @ t=3.4
-1.9331678499243914
% es.Ex (V/m) @ t=3.4
1.2353548849124396
% es.Ey (V/m) @ t=3.4
0.6029262869698441
% es.Ez (V/m) @ t=3.4
-1.9331678499243452
% es.tEx (V/m) @ t=3.4
1.235354884912411
% es.tEy (V/m) @ t=3.4
0
% es.tEz (V/m) @ t=3.4
-1.9331678499243914
% V (V) @ t=3.4
0.040999123448468566
% es.normE (V/m) @ t=3.5
2.539679702333358
% es.EX (V/m) @ t=3.5
1.286004783853374
% es.EY (V/m) @ t=3.5
0.6276473906389727
% es.EZ (V/m) @ t=3.5
-2.0124283073016294
% es.tEX (V/m) @ t=3.5
1.2860047838533646
% es.tEY (V/m) @ t=3.5
0
% es.tEZ (V/m) @ t=3.5
-2.0124283073016294
% es.Ex (V/m) @ t=3.5
1.286004783853374
% es.Ey (V/m) @ t=3.5
0.6276473906389727
% es.Ez (V/m) @ t=3.5
-2.0124283073016294
% es.tEx (V/m) @ t=3.5
1.2860047838533646
% es.tEy (V/m) @ t=3.5
0
% es.tEz (V/m) @ t=3.5
-2.0124283073016294
% V (V) @ t=3.5
0.04268007377908194
% es.normE (V/m) @ t=3.6
2.642803048443035
% es.EX (V/m) @ t=3.6
1.3382232106786245
% es.EY (V/m) @ t=3.6
0.6531315312434398
% es.EZ (V/m) @ t=3.6
-2.0941432263757136
% es.tEX (V/m) @ t=3.6
1.3382232106785779
% es.tEY (V/m) @ t=3.6
0
% es.tEZ (V/m) @ t=3.6
-2.094143226375678
% es.Ex (V/m) @ t=3.6
1.3382232106786245
% es.Ey (V/m) @ t=3.6
0.6531315312434398
% es.Ez (V/m) @ t=3.6
-2.0941432263757136
% es.tEx (V/m) @ t=3.6
1.3382232106785779
% es.tEy (V/m) @ t=3.6
0
% es.tEz (V/m) @ t=3.6
-2.094143226375678
% V (V) @ t=3.6
0.04441314670657401
% es.normE (V/m) @ t=3.7
2.7490277515951007
% es.EX (V/m) @ t=3.7
1.3920127671294806
% es.EY (V/m) @ t=3.7
0.6793795109425277
% es.EZ (V/m) @ t=3.7
-2.1783166639051963
% es.tEX (V/m) @ t=3.7
1.3920127671294864
% es.tEY (V/m) @ t=3.7
0
% es.tEZ (V/m) @ t=3.7
-2.178316663905189
% es.Ex (V/m) @ t=3.7
1.3920127671294806
% es.Ey (V/m) @ t=3.7
0.6793795109425277
% es.Ez (V/m) @ t=3.7
-2.1783166639051963
% es.tEx (V/m) @ t=3.7
1.3920127671294864
% es.tEy (V/m) @ t=3.7
0
% es.tEz (V/m) @ t=3.7
-2.178316663905189
% V (V) @ t=3.7
0.04619844095306888
% es.normE (V/m) @ t=3.8
2.858358728477487
% es.EX (V/m) @ t=3.8
1.4473760549475392
% es.EY (V/m) @ t=3.8
0.7063921318957221
% es.EZ (V/m) @ t=3.8
-2.2649526766487362
% es.tEX (V/m) @ t=3.8
1.4473760549475827
% es.tEY (V/m) @ t=3.8
0
% es.tEZ (V/m) @ t=3.8
-2.2649526766487433
% es.Ex (V/m) @ t=3.8
1.4473760549475392
% es.Ey (V/m) @ t=3.8
0.7063921318957221
% es.Ez (V/m) @ t=3.8
-2.2649526766487362
% es.tEx (V/m) @ t=3.8
1.4473760549475827
% es.tEy (V/m) @ t=3.8
0
% es.tEz (V/m) @ t=3.8
-2.2649526766487433
% V (V) @ t=3.8
0.048036055240690614
% es.normE (V/m) @ t=3.9
2.9708008957967094
% es.EX (V/m) @ t=3.9
1.5043156758741363
% es.EY (V/m) @ t=3.9
0.734170196261904
% es.EZ (V/m) @ t=3.9
-2.3540553213650064
% es.tEX (V/m) @ t=3.9
1.5043156758741958
% es.tEY (V/m) @ t=3.9
0
% es.tEZ (V/m) @ t=3.9
-2.3540553213649815
% es.Ex (V/m) @ t=3.9
1.5043156758741363
% es.Ey (V/m) @ t=3.9
0.734170196261904
% es.Ez (V/m) @ t=3.9
-2.3540553213650064
% es.tEx (V/m) @ t=3.9
1.5043156758741958
% es.tEy (V/m) @ t=3.9
0
% es.tEz (V/m) @ t=3.9
-2.3540553213649815
% V (V) @ t=3.9
0.04992608829156325
% es.normE (V/m) @ t=4
3.0863591702821216
% es.EX (V/m) @ t=4
1.5628342316507742
% es.EY (V/m) @ t=4
0.7627145062007143
% es.EZ (V/m) @ t=4
-2.445628654812534
% es.tEX (V/m) @ t=4
1.5628342316507684
% es.tEY (V/m) @ t=4
0
% es.tEZ (V/m) @ t=4
-2.4456286548125235
% es.Ex (V/m) @ t=4
1.5628342316507742
% es.Ey (V/m) @ t=4
0.7627145062007143
% es.Ez (V/m) @ t=4
-2.445628654812534
% es.tEx (V/m) @ t=4
1.5628342316507684
% es.tEy (V/m) @ t=4
0
% es.tEz (V/m) @ t=4
-2.4456286548125235
% V (V) @ t=4
0.05186863882781084
% es.normE (V/m) @ t=4.1
3.204548407429723
% es.EX (V/m) @ t=4.1
1.6226855682029897
% es.EY (V/m) @ t=4.1
0.791906983892535
% es.EZ (V/m) @ t=4.1
-2.539287542661281
% es.tEX (V/m) @ t=4.1
1.6226855682028685
% es.tEY (V/m) @ t=4.1
0
% es.tEZ (V/m) @ t=4.1
-2.539287542661281
% es.Ex (V/m) @ t=4.1
1.6226855682029897
% es.Ey (V/m) @ t=4.1
0.791906983892535
% es.Ez (V/m) @ t=4.1
-2.539287542661281
% es.tEx (V/m) @ t=4.1
1.6226855682028685
% es.tEy (V/m) @ t=4.1
0
% es.tEz (V/m) @ t=4.1
-2.539287542661281
% V (V) @ t=4.1
0.05385548294596143
% es.normE (V/m) @ t=4.2
3.3233915549820425
% es.EX (V/m) @ t=4.2
1.6828662369334446
% es.EY (V/m) @ t=4.2
0.8212676417616893
% es.EZ (V/m) @ t=4.2
-2.6334620248979768
% es.tEX (V/m) @ t=4.2
1.6828662369334495
% es.tEY (V/m) @ t=4.2
0
% es.tEZ (V/m) @ t=4.2
-2.6334620248979768
% es.Ex (V/m) @ t=4.2
1.6828662369334446
% es.Ey (V/m) @ t=4.2
0.8212676417616893
% es.Ez (V/m) @ t=4.2
-2.6334620248979768
% es.tEx (V/m) @ t=4.2
1.6828662369334495
% es.tEy (V/m) @ t=4.2
0
% es.tEz (V/m) @ t=4.2
-2.6334620248979768
% V (V) @ t=4.2
0.055853059932809604
% es.normE (V/m) @ t=4.3
3.444227815115565
% es.EX (V/m) @ t=4.3
1.7440561248899316
% es.EY (V/m) @ t=4.3
0.8511209554561443
% es.EZ (V/m) @ t=4.3
-2.7292158054882023
% es.tEX (V/m) @ t=4.3
1.7440561248899087
% es.tEY (V/m) @ t=4.3
0
% es.tEZ (V/m) @ t=4.3
-2.729215805488213
% es.Ex (V/m) @ t=4.3
1.7440561248899316
% es.Ey (V/m) @ t=4.3
0.8511209554561443
% es.Ez (V/m) @ t=4.3
-2.7292158054882023
% es.tEx (V/m) @ t=4.3
1.7440561248899087
% es.tEy (V/m) @ t=4.3
0
% es.tEz (V/m) @ t=4.3
-2.729215805488213
% V (V) @ t=4.3
0.057884128451128704
% es.normE (V/m) @ t=4.4
3.5669183303640817
% es.EX (V/m) @ t=4.4
1.8061848538503833
% es.EY (V/m) @ t=4.4
0.8814328501354443
% es.EZ (V/m) @ t=4.4
-2.8264387603365257
% es.tEX (V/m) @ t=4.4
1.8061848538503114
% es.tEY (V/m) @ t=4.4
0
% es.tEZ (V/m) @ t=4.4
-2.826438760336533
% es.Ex (V/m) @ t=4.4
1.8061848538503833
% es.Ey (V/m) @ t=4.4
0.8814328501354443
% es.Ez (V/m) @ t=4.4
-2.8264387603365257
% es.tEx (V/m) @ t=4.4
1.8061848538503114
% es.tEy (V/m) @ t=4.4
0
% es.tEz (V/m) @ t=4.4
-2.826438760336533
% V (V) @ t=4.4
0.05994634553173738
% es.normE (V/m) @ t=4.5
3.6913242432591264
% es.EX (V/m) @ t=4.5
1.869182045592305
% es.EY (V/m) @ t=4.5
0.9121692509590291
% es.EZ (V/m) @ t=4.5
-2.9250207653478704
% es.tEX (V/m) @ t=4.5
1.8691820455922823
% es.tEY (V/m) @ t=4.5
0
% es.tEZ (V/m) @ t=4.5
-2.925020765347867
% es.Ex (V/m) @ t=4.5
1.869182045592305
% es.Ey (V/m) @ t=4.5
0.9121692509590291
% es.Ez (V/m) @ t=4.5
-2.9250207653478704
% es.tEx (V/m) @ t=4.5
1.8691820455922823
% es.tEy (V/m) @ t=4.5
0
% es.tEz (V/m) @ t=4.5
-2.925020765347867
% V (V) @ t=4.5
0.06203736820545425
% es.normE (V/m) @ t=4.6
3.8173066963310207
% es.EX (V/m) @ t=4.6
1.932977321893934
% es.EY (V/m) @ t=4.6
0.9432960830868582
% es.EZ (V/m) @ t=4.6
-3.0248516964268397
% es.tEX (V/m) @ t=4.6
1.9329773218939437
% es.tEY (V/m) @ t=4.6
0
% es.tEZ (V/m) @ t=4.6
-3.024851696426829
% es.Ex (V/m) @ t=4.6
1.932977321893934
% es.Ey (V/m) @ t=4.6
0.9432960830868582
% es.Ez (V/m) @ t=4.6
-3.0248516964268397
% es.tEx (V/m) @ t=4.6
1.9329773218939437
% es.tEy (V/m) @ t=4.6
0
% es.tEz (V/m) @ t=4.6
-3.024851696426829
% V (V) @ t=4.6
0.06415485350309798
% es.normE (V/m) @ t=4.7
3.944726832109378
% es.EX (V/m) @ t=4.7
1.9975003045327568
% es.EY (V/m) @ t=4.7
0.9747792716781658
% es.EZ (V/m) @ t=4.7
-3.1258214294783038
% es.tEX (V/m) @ t=4.7
1.997500304532764
% es.tEY (V/m) @ t=4.7
0
% es.tEZ (V/m) @ t=4.7
-3.1258214294783215
% es.Ex (V/m) @ t=4.7
1.9975003045327568
% es.Ey (V/m) @ t=4.7
0.9747792716781658
% es.Ez (V/m) @ t=4.7
-3.1258214294783038
% es.tEx (V/m) @ t=4.7
1.997500304532764
% es.tEy (V/m) @ t=4.7
0
% es.tEz (V/m) @ t=4.7
-3.1258214294783215
% V (V) @ t=4.7
0.06629645845548718
% es.normE (V/m) @ t=4.8
4.073445793124817
% es.EX (V/m) @ t=4.8
2.0626806152868946
% es.EY (V/m) @ t=4.8
1.0065847418927873
% es.EZ (V/m) @ t=4.8
-3.2278198404068412
% es.tEX (V/m) @ t=4.8
2.0626806152868795
% es.tEY (V/m) @ t=4.8
0
% es.tEZ (V/m) @ t=4.8
-3.2278198404068377
% es.Ex (V/m) @ t=4.8
2.0626806152868946
% es.Ey (V/m) @ t=4.8
1.0065847418927873
% es.Ez (V/m) @ t=4.8
-3.2278198404068412
% es.tEx (V/m) @ t=4.8
2.0626806152868795
% es.tEy (V/m) @ t=4.8
0
% es.tEz (V/m) @ t=4.8
-3.2278198404068377
% V (V) @ t=4.8
0.06845984009344054
% es.normE (V/m) @ t=4.9
4.198796697596036
% es.EX (V/m) @ t=4.9
2.126152417608007
% es.EY (V/m) @ t=4.9
1.0375690447700257
% es.EZ (V/m) @ t=4.9
-3.3271450605008575
% es.tEX (V/m) @ t=4.9
2.1261524176080258
% es.tEY (V/m) @ t=4.9
0
% es.tEZ (V/m) @ t=4.9
-3.327145060500836
% es.Ex (V/m) @ t=4.9
2.126152417608007
% es.Ey (V/m) @ t=4.9
1.0375690447700257
% es.Ez (V/m) @ t=4.9
-3.3271450605008575
% es.tEx (V/m) @ t=4.9
2.1261524176080258
% es.tEy (V/m) @ t=4.9
0
% es.tEz (V/m) @ t=4.9
-3.327145060500836
% V (V) @ t=4.9
0.07056618351881654
% es.normE (V/m) @ t=5
4.323111234097739
% es.EX (V/m) @ t=5
2.189097763672776
% es.EY (V/m) @ t=5
1.0683033936844
% es.EZ (V/m) @ t=5
-3.425646665865795
% es.tEX (V/m) @ t=5
2.189097763672777
% es.tEY (V/m) @ t=5
0
% es.tEZ (V/m) @ t=5
-3.425646665865809
% es.Ex (V/m) @ t=5
2.189097763672776
% es.Ey (V/m) @ t=5
1.0683033936844
% es.Ez (V/m) @ t=5
-3.425646665865795
% es.tEx (V/m) @ t=5
2.189097763672777
% es.tEy (V/m) @ t=5
0
% es.tEz (V/m) @ t=5
-3.425646665865809
% V (V) @ t=5
0.0726548697908814
% es.normE (V/m) @ t=5.1
4.4462296455071275
% es.EX (V/m) @ t=5.1
2.251435680230231
% es.EY (V/m) @ t=5.1
1.0987485933139731
% es.EZ (V/m) @ t=5.1
-3.5231979541756004
% es.tEX (V/m) @ t=5.1
2.2514356802301734
% es.tEY (V/m) @ t=5.1
0
% es.tEZ (V/m) @ t=5.1
-3.523197954175558
% es.Ex (V/m) @ t=5.1
2.251435680230231
% es.Ey (V/m) @ t=5.1
1.0987485933139731
% es.Ez (V/m) @ t=5.1
-3.5231979541756004
% es.tEx (V/m) @ t=5.1
2.2514356802301734
% es.tEy (V/m) @ t=5.1
0
% es.tEz (V/m) @ t=5.1
-3.523197954175558
% V (V) @ t=5.1
0.07472320297289993
% es.normE (V/m) @ t=5.2
4.567787399463654
% es.EX (V/m) @ t=5.2
2.3129813842609916
% es.EY (V/m) @ t=5.2
1.1288152780211673
% es.EZ (V/m) @ t=5.2
-3.619509790106708
% es.tEX (V/m) @ t=5.2
2.312981384260837
% es.tEY (V/m) @ t=5.2
0
% es.tEZ (V/m) @ t=5.2
-3.61950979010674
% es.Ex (V/m) @ t=5.2
2.3129813842609916
% es.Ey (V/m) @ t=5.2
1.1288152780211673
% es.Ez (V/m) @ t=5.2
-3.619509790106708
% es.tEx (V/m) @ t=5.2
2.312981384260837
% es.tEy (V/m) @ t=5.2
0
% es.tEz (V/m) @ t=5.2
-3.61950979010674
% V (V) @ t=5.2
0.07676502876293209
% es.normE (V/m) @ t=5.3
4.6874199636759695
% es.EX (V/m) @ t=5.3
2.3735500927458464
% es.EY (V/m) @ t=5.3
1.1584140821681848
% es.EZ (V/m) @ t=5.3
-3.7142930383358497
% es.tEX (V/m) @ t=5.3
2.373550092745745
% es.tEY (V/m) @ t=5.3
0
% es.tEZ (V/m) @ t=5.3
-3.7142930383358816
% es.Ex (V/m) @ t=5.3
2.3735500927458464
% es.Ey (V/m) @ t=5.3
1.1584140821681848
% es.Ez (V/m) @ t=5.3
-3.7142930383358497