% Model:              1x1--2 - Copy1.mph
% Version:            COMSOL 6.1.0.252
% Date:               Apr 3 2023, 14:52
% Dimension:          0
% Nodes:              14017
% Expressions:        14017
% Description:        Electric field norm, Electric field, X component, Electric field, Y component, Electric field, Z component, Tangential electric field, X component, Tangential electric field, Y component, Tangential electric field, Z component, Electric field, x component, Electric field, y component, Electric field, z component, Tangential electric field, x component, Tangential electric field, y component, Tangential electric field, z component, Electric potential
% Length unit:        mm
% x
2
% y
12.2
% z
2
% es.normE (V/m) @ t=0
0.40956149203564984
% es.EX (V/m) @ t=0
0.19163237528070365
% es.EY (V/m) @ t=0
0.146822956564316
% es.EZ (V/m) @ t=0
-0.305372915226934
% es.tEX (V/m) @ t=0
0.19163237528070098
% es.tEY (V/m) @ t=0
0
% es.tEZ (V/m) @ t=0
-0.3053729152269362
% es.Ex (V/m) @ t=0
0.19163237528070365
% es.Ey (V/m) @ t=0
0.146822956564316
% es.Ez (V/m) @ t=0
-0.305372915226934
% es.tEx (V/m) @ t=0
0.19163237528070098
% es.tEy (V/m) @ t=0
0
% es.tEz (V/m) @ t=0
-0.3053729152269362
% V (V) @ t=0
0.009738135620185856
% es.normE (V/m) @ t=0.1
0.4159303100849796
% es.EX (V/m) @ t=0.1
0.19461232295630548
% es.EY (V/m) @ t=0.1
0.14910610187844053
% es.EZ (V/m) @ t=0.1
-0.310121566515811
% es.tEX (V/m) @ t=0.1
0.19461232295630815
% es.tEY (V/m) @ t=0.1
0
% es.tEZ (V/m) @ t=0.1
-0.3101215665158108
% es.Ex (V/m) @ t=0.1
0.19461232295630548
% es.Ey (V/m) @ t=0.1
0.14910610187844053
% es.Ez (V/m) @ t=0.1
-0.310121566515811
% es.tEx (V/m) @ t=0.1
0.19461232295630815
% es.tEy (V/m) @ t=0.1
0
% es.tEz (V/m) @ t=0.1
-0.3101215665158108
% V (V) @ t=0.1
0.009889566917949863
% es.normE (V/m) @ t=0.2
0.43571469276612096
% es.EX (V/m) @ t=0.2
0.2038692923771528
% es.EY (V/m) @ t=0.2
0.15619882132885987
% es.EZ (V/m) @ t=0.2
-0.32487284123527704
% es.tEX (V/m) @ t=0.2
0.20386929237714924
% es.tEY (V/m) @ t=0.2
0
% es.tEZ (V/m) @ t=0.2
-0.3248728412352797
% es.Ex (V/m) @ t=0.2
0.2038692923771528
% es.Ey (V/m) @ t=0.2
0.15619882132885987
% es.Ez (V/m) @ t=0.2
-0.32487284123527704
% es.tEx (V/m) @ t=0.2
0.20386929237714924
% es.tEy (V/m) @ t=0.2
0
% es.tEz (V/m) @ t=0.2
-0.3248728412352797
% V (V) @ t=0.2
0.010359967460384088
% es.normE (V/m) @ t=0.3
0.45640397200765953
% es.EX (V/m) @ t=0.3
0.2135499875653739
% es.EY (V/m) @ t=0.3
0.16361480917678328
% es.EZ (V/m) @ t=0.3
-0.34029947600121835
% es.tEX (V/m) @ t=0.3
0.21354998756537036
% es.tEY (V/m) @ t=0.3
0
% es.tEZ (V/m) @ t=0.3
-0.34029947600122057
% es.Ex (V/m) @ t=0.3
0.2135499875653739
% es.Ey (V/m) @ t=0.3
0.16361480917678328
% es.Ez (V/m) @ t=0.3
-0.34029947600121835
% es.tEx (V/m) @ t=0.3
0.21354998756537036
% es.tEy (V/m) @ t=0.3
0
% es.tEz (V/m) @ t=0.3
-0.34029947600122057
% V (V) @ t=0.3
0.010851938864829852
% es.normE (V/m) @ t=0.4
0.4789832197202538
% es.EX (V/m) @ t=0.4
0.22411638187209526
% es.EY (V/m) @ t=0.4
0.17170355465094378
% es.EZ (V/m) @ t=0.4
-0.3571380889951512
% es.tEX (V/m) @ t=0.4
0.2241163818720917
% es.tEY (V/m) @ t=0.4
0
% es.tEZ (V/m) @ t=0.4
-0.35713808899514987
% es.Ex (V/m) @ t=0.4
0.22411638187209526
% es.Ey (V/m) @ t=0.4
0.17170355465094378
% es.Ez (V/m) @ t=0.4
-0.3571380889951512
% es.tEx (V/m) @ t=0.4
0.2241163818720917
% es.tEy (V/m) @ t=0.4
0
% es.tEz (V/m) @ t=0.4
-0.35713808899514987
% V (V) @ t=0.4
0.011389081773238779
% es.normE (V/m) @ t=0.5
0.5015624675283559
% es.EX (V/m) @ t=0.5
0.23468277617882194
% es.EY (V/m) @ t=0.5
0.1797923001251025
% es.EZ (V/m) @ t=0.5
-0.3739767019890825
% es.tEX (V/m) @ t=0.5
0.23468277617882016
% es.tEY (V/m) @ t=0.5
0
% es.tEZ (V/m) @ t=0.5
-0.3739767019890863
% es.Ex (V/m) @ t=0.5
0.23468277617882194
% es.Ey (V/m) @ t=0.5
0.1797923001251025
% es.Ez (V/m) @ t=0.5
-0.3739767019890825
% es.tEx (V/m) @ t=0.5
0.23468277617882016
% es.tEy (V/m) @ t=0.5
0
% es.tEz (V/m) @ t=0.5
-0.3739767019890863
% V (V) @ t=0.5
0.011926224681647706
% es.normE (V/m) @ t=0.6
0.5252463319950492
% es.EX (V/m) @ t=0.6
0.24576441693934292
% es.EY (V/m) @ t=0.6
0.18828253383045457
% es.EZ (V/m) @ t=0.6
-0.3916357040348646
% es.tEX (V/m) @ t=0.6
0.24576441693933937
% es.tEY (V/m) @ t=0.6
0
% es.tEZ (V/m) @ t=0.6
-0.3916357040348686
% es.Ex (V/m) @ t=0.6
0.24576441693934292
% es.Ey (V/m) @ t=0.6
0.18828253383045457
% es.Ez (V/m) @ t=0.6
-0.3916357040348646
% es.tEx (V/m) @ t=0.6
0.24576441693933937
% es.tEy (V/m) @ t=0.6
0
% es.tEz (V/m) @ t=0.6
-0.3916357040348686
% V (V) @ t=0.6
0.012489362915097306
% es.normE (V/m) @ t=0.7
0.5505151839447093
% es.EX (V/m) @ t=0.7
0.25758537223863875
% es.EY (V/m) @ t=0.7
0.19734885318238415
% es.EZ (V/m) @ t=0.7
-0.41047186227261045
% es.tEX (V/m) @ t=0.7
0.2575853722386423
% es.tEY (V/m) @ t=0.7
0
% es.tEZ (V/m) @ t=0.7
-0.4104718622726118
% es.Ex (V/m) @ t=0.7
0.25758537223863875
% es.Ey (V/m) @ t=0.7
0.19734885318238415
% es.Ez (V/m) @ t=0.7
-0.41047186227261045
% es.tEx (V/m) @ t=0.7
0.2575853722386423
% es.tEy (V/m) @ t=0.7
0
% es.tEz (V/m) @ t=0.7
-0.4104718622726118
% V (V) @ t=0.7
0.013089801204861426
% es.normE (V/m) @ t=0.8
0.5757840360769112
% es.EX (V/m) @ t=0.8
0.2694063275379488
% es.EY (V/m) @ t=0.8
0.20641517253429686
% es.EZ (V/m) @ t=0.8
-0.4293080205103661
% es.tEX (V/m) @ t=0.8
0.2694063275379399
% es.tEY (V/m) @ t=0.8
0
% es.tEZ (V/m) @ t=0.8
-0.4293080205103692
% es.Ex (V/m) @ t=0.8
0.2694063275379488
% es.Ey (V/m) @ t=0.8
0.20641517253429686
% es.Ez (V/m) @ t=0.8
-0.4293080205103661
% es.tEx (V/m) @ t=0.8
0.2694063275379399
% es.tEy (V/m) @ t=0.8
0
% es.tEz (V/m) @ t=0.8
-0.4293080205103692
% V (V) @ t=0.8
0.013690239494625547
% es.normE (V/m) @ t=0.9
0.602954920561775
% es.EX (V/m) @ t=0.9
0.28211924685423106
% es.EY (V/m) @ t=0.9
0.2161564433436105
% es.EZ (V/m) @ t=0.9
-0.4495664018698302
% es.tEX (V/m) @ t=0.9
0.28211924685422574
% es.tEY (V/m) @ t=0.9
0
% es.tEZ (V/m) @ t=0.9
-0.44956640186983066
% es.Ex (V/m) @ t=0.9
0.28211924685423106
% es.Ey (V/m) @ t=0.9
0.2161564433436105
% es.Ez (V/m) @ t=0.9
-0.4495664018698302
% es.tEx (V/m) @ t=0.9
0.28211924685422574
% es.tEy (V/m) @ t=0.9
0
% es.tEz (V/m) @ t=0.9
-0.44956640186983066
% V (V) @ t=0.9
0.014336240449985866
% es.normE (V/m) @ t=1
0.6313076430865396
% es.EX (V/m) @ t=1
0.2953863928332172
% es.EY (V/m) @ t=1
0.226317098888849
% es.EZ (V/m) @ t=1
-0.4707084892525799
% es.tEX (V/m) @ t=1
0.29538639283321366
% es.tEY (V/m) @ t=1
0
% es.tEZ (V/m) @ t=1
-0.47070848925258346
% es.Ex (V/m) @ t=1
0.2953863928332172
% es.Ey (V/m) @ t=1
0.226317098888849
% es.Ez (V/m) @ t=1
-0.4707084892525799
% es.tEx (V/m) @ t=1
0.29538639283321366
% es.tEy (V/m) @ t=1
0
% es.tEz (V/m) @ t=1
-0.47070848925258346
% V (V) @ t=1
0.015010552013863922
% es.normE (V/m) @ t=1.1
0.6596603656421764
% es.EX (V/m) @ t=1.1
0.30865353881220514
% es.EY (V/m) @ t=1.1
0.23647775443405905
% es.EZ (V/m) @ t=1.1
-0.49185057663532517
% es.tEX (V/m) @ t=1.1
0.3086535388121998
% es.tEY (V/m) @ t=1.1
0
% es.tEZ (V/m) @ t=1.1
-0.49185057663532916
% es.Ex (V/m) @ t=1.1
0.30865353881220514
% es.Ey (V/m) @ t=1.1
0.23647775443405905
% es.Ez (V/m) @ t=1.1
-0.49185057663532517
% es.tEx (V/m) @ t=1.1
0.3086535388121998
% es.tEy (V/m) @ t=1.1
0
% es.tEz (V/m) @ t=1.1
-0.49185057663532916
% V (V) @ t=1.1
0.015684863577741983
% es.normE (V/m) @ t=1.2
0.6895466306153173
% es.EX (V/m) @ t=1.2
0.322637801417061
% es.EY (V/m) @ t=1.2
0.24718961818273133
% es.EZ (V/m) @ t=1.2
-0.5141352364255742
% es.tEX (V/m) @ t=1.2
0.32263780141705745
% es.tEY (V/m) @ t=1.2
0
% es.tEZ (V/m) @ t=1.2
-0.5141352364255809
% es.Ex (V/m) @ t=1.2
0.322637801417061
% es.Ey (V/m) @ t=1.2
0.24718961818273133
% es.Ez (V/m) @ t=1.2
-0.5141352364255742
% es.tEx (V/m) @ t=1.2
0.32263780141705745
% es.tEy (V/m) @ t=1.2
0
% es.tEz (V/m) @ t=1.2
-0.5141352364255809
% V (V) @ t=1.2
0.016395567087683024
% es.normE (V/m) @ t=1.3
0.7207023886247738
% es.EX (V/m) @ t=1.3
0.33721570562185477
% es.EY (V/m) @ t=1.3
0.2583577816572422
% es.EZ (V/m) @ t=1.3
-0.5373657375023639
% es.tEX (V/m) @ t=1.3
0.33721570562184944
% es.tEY (V/m) @ t=1.3
0
% es.tEZ (V/m) @ t=1.3
-0.5373657375023697
% es.Ex (V/m) @ t=1.3
0.33721570562185477
% es.Ey (V/m) @ t=1.3
0.2583577816572422
% es.Ez (V/m) @ t=1.3
-0.5373657375023639
% es.tEx (V/m) @ t=1.3
0.33721570562184944
% es.tEy (V/m) @ t=1.3
0
% es.tEz (V/m) @ t=1.3
-0.5373657375023697
% V (V) @ t=1.3
0.017136396482738816
% es.normE (V/m) @ t=1.4
0.7528887491670395
% es.EX (V/m) @ t=1.4
0.3522755412130216
% es.EY (V/m) @ t=1.4
0.2698963793457665
% es.EZ (V/m) @ t=1.4
-0.5613640934642783
% es.tEX (V/m) @ t=1.4
0.3522755412130145
% es.tEY (V/m) @ t=1.4
0
% es.tEZ (V/m) @ t=1.4
-0.5613640934642845
% es.Ex (V/m) @ t=1.4
0.3522755412130216
% es.Ey (V/m) @ t=1.4
0.2698963793457665
% es.Ez (V/m) @ t=1.4
-0.5613640934642783
% es.tEx (V/m) @ t=1.4
0.3522755412130145
% es.tEy (V/m) @ t=1.4
0
% es.tEz (V/m) @ t=1.4
-0.5613640934642845
% V (V) @ t=1.4
0.017901682737928814
% es.normE (V/m) @ t=1.5
0.78610571224452
% es.EX (V/m) @ t=1.5
0.36781730819058467
% es.EY (V/m) @ t=1.5
0.28180541124829084
% es.EZ (V/m) @ t=1.5
-0.5861303043113115
% es.tEX (V/m) @ t=1.5
0.36781730819057046
% es.tEY (V/m) @ t=1.5
0
% es.tEZ (V/m) @ t=1.5
-0.5861303043113146
% es.Ex (V/m) @ t=1.5
0.36781730819058467
% es.Ey (V/m) @ t=1.5
0.28180541124829084
% es.Ez (V/m) @ t=1.5
-0.5861303043113115
% es.tEx (V/m) @ t=1.5
0.36781730819057046
% es.tEy (V/m) @ t=1.5
0
% es.tEz (V/m) @ t=1.5
-0.5861303043113146
% V (V) @ t=1.5
0.018691425853252997
% es.normE (V/m) @ t=1.6
0.8203532778648319
% es.EX (V/m) @ t=1.6
0.3838410065544995
% es.EY (V/m) @ t=1.6
0.29408487736485434
% es.EZ (V/m) @ t=1.6
-0.6116643700434596
% es.tEX (V/m) @ t=1.6
0.3838410065544906
% es.tEY (V/m) @ t=1.6
0
% es.tEZ (V/m) @ t=1.6
-0.6116643700434636
% es.Ex (V/m) @ t=1.6
0.3838410065544995
% es.Ey (V/m) @ t=1.6
0.29408487736485434
% es.Ez (V/m) @ t=1.6
-0.6116643700434596
% es.tEx (V/m) @ t=1.6
0.3838410065544906
% es.tEy (V/m) @ t=1.6
0
% es.tEz (V/m) @ t=1.6
-0.6116643700434636
% V (V) @ t=1.6
0.019505625828711386
% es.normE (V/m) @ t=1.7
0.8559173171133556
% es.EX (V/m) @ t=1.7
0.40048071799845886
% es.EY (V/m) @ t=1.7
0.3068361472192187
% es.EZ (V/m) @ t=1.7
-0.6381800910063609
% es.tEX (V/m) @ t=1.7
0.40048071799845886
% es.tEY (V/m) @ t=1.7
0
% es.tEZ (V/m) @ t=1.7
-0.6381800910063617
% es.Ex (V/m) @ t=1.7
0.40048071799845886
% es.Ey (V/m) @ t=1.7
0.3068361472192187
% es.Ez (V/m) @ t=1.7
-0.6381800910063609
% es.tEx (V/m) @ t=1.7
0.40048071799845886
% es.tEy (V/m) @ t=1.7
0
% es.tEz (V/m) @ t=1.7
-0.6381800910063617
% V (V) @ t=1.7
0.020351134247753342
% es.normE (V/m) @ t=1.8
0.8937007158541623
% es.EX (V/m) @ t=1.8
0.4181599217651435
% es.EY (V/m) @ t=1.8
0.32037938300513424
% es.EZ (V/m) @ t=1.8
-0.6663527272298615
% es.tEX (V/m) @ t=1.8
0.4181599217651417
% es.tEY (V/m) @ t=1.8
0
% es.tEZ (V/m) @ t=1.8
-0.6663527272298708
% es.Ex (V/m) @ t=1.8
0.4181599217651435
% es.Ey (V/m) @ t=1.8
0.32037938300513424
% es.Ez (V/m) @ t=1.8
-0.6663527272298615
% es.tEx (V/m) @ t=1.8
0.4181599217651417
% es.tEy (V/m) @ t=1.8
0
% es.tEz (V/m) @ t=1.8
-0.6663527272298708
% V (V) @ t=1.8
0.0212495909278024
% es.normE (V/m) @ t=1.9
0.932932588235688
% es.EX (V/m) @ t=1.9
0.4365170503858238
% es.EY (V/m) @ t=1.9
0.33444122956772304
% es.EZ (V/m) @ t=1.9
-0.6956057402791802
% es.tEX (V/m) @ t=1.9
0.4365170503858167
% es.tEY (V/m) @ t=1.9
0
% es.tEZ (V/m) @ t=1.9
-0.6956057402791913
% es.Ex (V/m) @ t=1.9
0.4365170503858238
% es.Ey (V/m) @ t=1.9
0.33444122956772304
% es.Ez (V/m) @ t=1.9
-0.6956057402791802
% es.tEx (V/m) @ t=1.9
0.4365170503858167
% es.tEy (V/m) @ t=1.9
0
% es.tEz (V/m) @ t=1.9
-0.6956057402791913
% V (V) @ t=1.9
0.02218251974719433
% es.normE (V/m) @ t=2
0.9736129342641677
% es.EX (V/m) @ t=2
0.4555521038604482
% es.EY (V/m) @ t=2
0.34902168690694424
% es.EZ (V/m) @ t=2
-0.7259391301542881
% es.tEX (V/m) @ t=2
0.45555210386043754
% es.tEY (V/m) @ t=2
0
% es.tEZ (V/m) @ t=2
-0.7259391301542948
% es.Ex (V/m) @ t=2
0.4555521038604482
% es.Ey (V/m) @ t=2
0.34902168690694424
% es.Ez (V/m) @ t=2
-0.7259391301542881
% es.tEx (V/m) @ t=2
0.45555210386043754
% es.tEy (V/m) @ t=2
0
% es.tEz (V/m) @ t=2
-0.7259391301542948
% V (V) @ t=2
0.023149920705929132
% es.normE (V/m) @ t=2.1
1.0157417539467999
% es.EX (V/m) @ t=2.1
0.47526508218902386
% es.EY (V/m) @ t=2.1
0.3641207550228458
% es.EZ (V/m) @ t=2.1
-0.7573528968552208
% es.tEX (V/m) @ t=2.1
0.47526508218902563
% es.tEY (V/m) @ t=2.1
0
% es.tEZ (V/m) @ t=2.1
-0.7573528968552381
% es.Ex (V/m) @ t=2.1
0.47526508218902386
% es.Ey (V/m) @ t=2.1
0.3641207550228458
% es.Ez (V/m) @ t=2.1
-0.7573528968552208
% es.tEx (V/m) @ t=2.1
0.47526508218902563
% es.tEy (V/m) @ t=2.1
0
% es.tEz (V/m) @ t=2.1
-0.7573528968552381
% V (V) @ t=2.1
0.024151793804006803
% es.normE (V/m) @ t=2.2
1.0593190472913396
% es.EX (V/m) @ t=2.2
0.4956559853715987
% es.EY (V/m) @ t=2.2
0.3797384339153709
% es.EZ (V/m) @ t=2.2
-0.7898470403819551
% es.tEX (V/m) @ t=2.2
0.49565598537158095
% es.tEY (V/m) @ t=2.2
0
% es.tEZ (V/m) @ t=2.2
-0.7898470403819502
% es.Ex (V/m) @ t=2.2
0.4956559853715987
% es.Ey (V/m) @ t=2.2
0.3797384339153709
% es.Ez (V/m) @ t=2.2
-0.7898470403819551
% es.tEx (V/m) @ t=2.2
0.49565598537158095
% es.tEy (V/m) @ t=2.2
0
% es.tEz (V/m) @ t=2.2
-0.7898470403819502
% V (V) @ t=2.2
0.025188139041427356
% es.normE (V/m) @ t=2.3
1.1051437511656
% es.EX (V/m) @ t=2.3
0.5170977696274761
% es.EY (V/m) @ t=2.3
0.39616410005226754
% es.EZ (V/m) @ t=2.3
-0.8240155153134032
% es.tEX (V/m) @ t=2.3
0.5170977696274726
% es.tEY (V/m) @ t=2.3
0
% es.tEZ (V/m) @ t=2.3
-0.8240155153134054
% es.Ex (V/m) @ t=2.3
0.5170977696274761
% es.Ey (V/m) @ t=2.3
0.39616410005226754
% es.Ez (V/m) @ t=2.3
-0.8240155153134032
% es.tEx (V/m) @ t=2.3
0.5170977696274726
% es.tEy (V/m) @ t=2.3
0
% es.tEz (V/m) @ t=2.3
-0.8240155153134054
% V (V) @ t=2.3
0.026277807522765064
% es.normE (V/m) @ t=2.4
1.1531787584786195
% es.EX (V/m) @ t=2.4
0.5395731127931711
% es.EY (V/m) @ t=2.4
0.41338431317901403
% es.EZ (V/m) @ t=2.4
-0.8598307350916747
% es.tEX (V/m) @ t=2.4
0.539573112793164
% es.tEY (V/m) @ t=2.4
0
% es.tEZ (V/m) @ t=2.4
-0.8598307350916841
% es.Ex (V/m) @ t=2.4
0.5395731127931711
% es.Ey (V/m) @ t=2.4
0.41338431317901403
% es.Ez (V/m) @ t=2.4
-0.8598307350916747
% es.tEx (V/m) @ t=2.4
0.539573112793164
% es.tEy (V/m) @ t=2.4
0
% es.tEz (V/m) @ t=2.4
-0.8598307350916841
% V (V) @ t=2.4
0.027419923697758326
% es.normE (V/m) @ t=2.5
1.2030582680573474
% es.EX (V/m) @ t=2.5
0.5629112531613494
% es.EY (V/m) @ t=2.5
0.4312665794073336
% es.EZ (V/m) @ t=2.5
-0.8970207517167115
% es.tEX (V/m) @ t=2.5
0.5629112531613281
% es.tEY (V/m) @ t=2.5
0
% es.tEZ (V/m) @ t=2.5
-0.8970207517167026
% es.Ex (V/m) @ t=2.5
0.5629112531613494
% es.Ey (V/m) @ t=2.5
0.4312665794073336
% es.Ez (V/m) @ t=2.5
-0.8970207517167115
% es.tEx (V/m) @ t=2.5
0.5629112531613281
% es.tEy (V/m) @ t=2.5
0
% es.tEz (V/m) @ t=2.5
-0.8970207517167026
% V (V) @ t=2.5
0.02860585640104367
% es.normE (V/m) @ t=2.6
1.2547822799071002
% es.EX (V/m) @ t=2.6
0.5871121907319825
% es.EY (V/m) @ t=2.6
0.4498108987371605
% es.EZ (V/m) @ t=2.6
-0.9355855651884832
% es.tEX (V/m) @ t=2.6
0.5871121907319719
% es.tEY (V/m) @ t=2.6
0
% es.tEZ (V/m) @ t=2.6
-0.9355855651884966
% es.Ex (V/m) @ t=2.6
0.5871121907319825
% es.Ey (V/m) @ t=2.6
0.4498108987371605
% es.Ez (V/m) @ t=2.6
-0.9355855651884832
% es.tEx (V/m) @ t=2.6
0.5871121907319719
% es.tEy (V/m) @ t=2.6
0
% es.tEz (V/m) @ t=2.6
-0.9355855651884966
% V (V) @ t=2.6
0.02983560563262111
% es.normE (V/m) @ t=2.7
1.30835079403503
% es.EX (V/m) @ t=2.7
0.6121759255050954
% es.EY (V/m) @ t=2.7
0.4690172711685552
% es.EZ (V/m) @ t=2.7
-0.975525175506986
% es.tEX (V/m) @ t=2.7
0.6121759255050812
% es.tEY (V/m) @ t=2.7
0
% es.tEZ (V/m) @ t=2.7
-0.9755251755069878
% es.Ex (V/m) @ t=2.7
0.6121759255050954
% es.Ey (V/m) @ t=2.7
0.4690172711685552
% es.Ez (V/m) @ t=2.7
-0.975525175506986
% es.tEx (V/m) @ t=2.7
0.6121759255050812
% es.tEy (V/m) @ t=2.7
0
% es.tEz (V/m) @ t=2.7
-0.9755251755069878
% V (V) @ t=2.7
0.031109171392490635
% es.normE (V/m) @ t=2.8
1.3638221176666876
% es.EX (V/m) @ t=2.8
0.6381297458256583
% es.EY (V/m) @ t=2.8
0.48890657645025115
% es.EZ (V/m) @ t=2.8
-1.0168830704024359
% es.tEX (V/m) @ t=2.8
0.6381297458256583
% es.tEY (V/m) @ t=2.8
0
% es.tEZ (V/m) @ t=2.8
-1.016883070402443
% es.Ex (V/m) @ t=2.8
0.6381297458256583
% es.Ey (V/m) @ t=2.8
0.48890657645025115
% es.Ez (V/m) @ t=2.8
-1.0168830704024359
% es.tEx (V/m) @ t=2.8
0.6381297458256583
% es.tEy (V/m) @ t=2.8
0
% es.tEz (V/m) @ t=2.8
-1.016883070402443
% V (V) @ t=2.8
0.03242794115652808
% es.normE (V/m) @ t=2.9
1.4222482528597253
% es.EX (V/m) @ t=2.9
0.6654659988896512
% es.EY (V/m) @ t=2.9
0.5098555353310701
% es.EZ (V/m) @ t=2.9
-1.0604438728350791
% es.tEX (V/m) @ t=2.9
0.665465998889637
% es.tEY (V/m) @ t=2.9
0
% es.tEZ (V/m) @ t=2.9
-1.0604438728350871
% es.Ex (V/m) @ t=2.9
0.6654659988896512
% es.Ey (V/m) @ t=2.9
0.5098555353310701
% es.Ez (V/m) @ t=2.9
-1.0604438728350791
% es.tEx (V/m) @ t=2.9
0.665465998889637
% es.tEy (V/m) @ t=2.9
0
% es.tEz (V/m) @ t=2.9
-1.0604438728350871
% V (V) @ t=2.9
0.03381694831747426
% es.normE (V/m) @ t=3
1.4828673998761965
% es.EX (V/m) @ t=3
0.6938281550043648
% es.EY (V/m) @ t=3
0.5315913481812302
% es.EZ (V/m) @ t=3
-1.1056394037125923
% es.tEX (V/m) @ t=3
0.693828155004347
% es.tEY (V/m) @ t=3
0
% es.tEZ (V/m) @ t=3
-1.105639403712594
% es.Ex (V/m) @ t=3
0.6938281550043648
% es.Ey (V/m) @ t=3
0.5315913481812302
% es.Ez (V/m) @ t=3
-1.1056394037125923
% es.tEx (V/m) @ t=3
0.693828155004347
% es.tEy (V/m) @ t=3
0
% es.tEz (V/m) @ t=3
-1.105639403712594
% V (V) @ t=3
0.035258065123420446
% es.normE (V/m) @ t=3.1
1.5456795587235954
% es.EX (V/m) @ t=3.1
0.7232162141697671
% es.EY (V/m) @ t=3.1
0.5541140150006463
% es.EZ (V/m) @ t=3.1
-1.1524696630349531
% es.tEX (V/m) @ t=3.1
0.72321621416976
% es.tEY (V/m) @ t=3.1
0
% es.tEZ (V/m) @ t=3.1
-1.152469663034971
% es.Ex (V/m) @ t=3.1
0.7232162141697671
% es.Ey (V/m) @ t=3.1
0.5541140150006463
% es.Ez (V/m) @ t=3.1
-1.1524696630349531
% es.tEx (V/m) @ t=3.1
0.72321621416976
% es.tEy (V/m) @ t=3.1
0
% es.tEz (V/m) @ t=3.1
-1.152469663034971
% V (V) @ t=3.1
0.03675129157436664
% es.normE (V/m) @ t=3.2
1.610684729409455
% es.EX (V/m) @ t=3.2
0.7536301763858972
% es.EY (V/m) @ t=3.2
0.5774235357893467
% es.EZ (V/m) @ t=3.2
-1.2009346508021927
% es.tEX (V/m) @ t=3.2
0.7536301763858688
% es.tEY (V/m) @ t=3.2
0
% es.tEZ (V/m) @ t=3.2
-1.2009346508021963
% es.Ex (V/m) @ t=3.2
0.7536301763858972
% es.Ey (V/m) @ t=3.2
0.5774235357893467
% es.Ez (V/m) @ t=3.2
-1.2009346508021927
% es.tEx (V/m) @ t=3.2
0.7536301763858688
% es.tEy (V/m) @ t=3.2
0
% es.tEz (V/m) @ t=3.2
-1.2009346508021963
% V (V) @ t=3.2
0.03829662767031284
% es.normE (V/m) @ t=3.3
1.6778829119412135
% es.EX (V/m) @ t=3.3
0.7850700416527197
% es.EY (V/m) @ t=3.3
0.6015199105473314
% es.EZ (V/m) @ t=3.3
-1.2510343670142587
% es.tEX (V/m) @ t=3.3
0.7850700416527161
% es.tEY (V/m) @ t=3.3
0
% es.tEZ (V/m) @ t=3.3
-1.2510343670142845
% es.Ex (V/m) @ t=3.3
0.7850700416527197
% es.Ey (V/m) @ t=3.3
0.6015199105473314
% es.Ez (V/m) @ t=3.3
-1.2510343670142587
% es.tEx (V/m) @ t=3.3
0.7850700416527161
% es.tEy (V/m) @ t=3.3
0
% es.tEz (V/m) @ t=3.3
-1.2510343670142845
% V (V) @ t=3.3
0.039894073411259036
% es.normE (V/m) @ t=3.4
1.7472930439017178
% es.EX (V/m) @ t=3.4
0.817545285920648
% es.EY (V/m) @ t=3.4
0.6264078149191086
% es.EZ (V/m) @ t=3.4
-1.3027841712684731
% es.tEX (V/m) @ t=3.4
0.8175452859206445
% es.tEY (V/m) @ t=3.4
0
% es.tEZ (V/m) @ t=3.4
-1.3027841712684705
% es.Ex (V/m) @ t=3.4
0.817545285920648
% es.Ey (V/m) @ t=3.4
0.6264078149191086
% es.Ez (V/m) @ t=3.4
-1.3027841712684731
% es.tEx (V/m) @ t=3.4
0.8175452859206445
% es.tEy (V/m) @ t=3.4
0
% es.tEz (V/m) @ t=3.4
-1.3027841712684705
% V (V) @ t=3.4
0.041544182548425374
% es.normE (V/m) @ t=3.5
1.8189330922056577
% es.EX (V/m) @ t=3.5
0.8510648994531493
% es.EY (V/m) @ t=3.5
0.6520916849004621
% es.EZ (V/m) @ t=3.5
-1.3561986359105003
% es.tEX (V/m) @ t=3.5
0.8510648994531209
% es.tEY (V/m) @ t=3.5
0
% es.tEZ (V/m) @ t=3.5
-1.356198635910502
% es.Ex (V/m) @ t=3.5
0.8510648994531493
% es.Ey (V/m) @ t=3.5
0.6520916849004621
% es.Ez (V/m) @ t=3.5
-1.3561986359105003
% es.tEx (V/m) @ t=3.5
0.8510648994531209
% es.tEy (V/m) @ t=3.5
0
% es.tEz (V/m) @ t=3.5
-1.356198635910502
% V (V) @ t=3.5
0.043247480450680255
% es.normE (V/m) @ t=3.6
1.8927902633183482
% es.EX (V/m) @ t=3.6
0.8856224806493209
% es.EY (V/m) @ t=3.6
0.6785683617992078
% es.EZ (V/m) @ t=3.6
-1.4112673845657886
% es.tEX (V/m) @ t=3.6
0.8856224806493245
% es.tEY (V/m) @ t=3.6
0
% es.tEZ (V/m) @ t=3.6
-1.4112673845658037
% es.Ex (V/m) @ t=3.6
0.8856224806493209
% es.Ey (V/m) @ t=3.6
0.6785683617992078
% es.Ez (V/m) @ t=3.6
-1.4112673845657886
% es.tEx (V/m) @ t=3.6
0.8856224806493245
% es.tEy (V/m) @ t=3.6
0
% es.tEz (V/m) @ t=3.6
-1.4112673845658037
% V (V) @ t=3.6
0.04500359302422358
% es.normE (V/m) @ t=3.7
1.9688679727628737
% es.EX (V/m) @ t=3.7
0.9212197385586478
% es.EY (V/m) @ t=3.7
0.7058386888983961
% es.EZ (V/m) @ t=3.7
-1.4679931874378411
% es.tEX (V/m) @ t=3.7
0.9212197385586265
% es.tEY (V/m) @ t=3.7
0
% es.tEZ (V/m) @ t=3.7
-1.4679931874378553
% es.Ex (V/m) @ t=3.7
0.9212197385586478
% es.Ey (V/m) @ t=3.7
0.7058386888983961
% es.Ez (V/m) @ t=3.7
-1.4679931874378411
% es.tEx (V/m) @ t=3.7
0.9212197385586265
% es.tEy (V/m) @ t=3.7
0
% es.tEz (V/m) @ t=3.7
-1.4679931874378553
% V (V) @ t=3.7
0.04681262014170173
% es.normE (V/m) @ t=3.8
2.0471696360780145
% es.EX (V/m) @ t=3.8
0.9578583822306292
% es.EY (V/m) @ t=3.8
0.7339035094809887
% es.EZ (V/m) @ t=3.8
-1.5263788147303563
% es.tEX (V/m) @ t=3.8
0.9578583822306115
% es.tEY (V/m) @ t=3.8
0
% es.tEZ (V/m) @ t=3.8
-1.5263788147303785
% es.Ex (V/m) @ t=3.8
0.9578583822306292
% es.Ey (V/m) @ t=3.8
0.7339035094809887
% es.Ez (V/m) @ t=3.8
-1.5263788147303563
% es.tEx (V/m) @ t=3.8
0.9578583822306115
% es.tEy (V/m) @ t=3.8
0
% es.tEz (V/m) @ t=3.8
-1.5263788147303785
% V (V) @ t=3.8
0.04867466167576108
% es.normE (V/m) @ t=3.9
2.1276986688224455
% es.EX (V/m) @ t=3.9
0.9955401207147716
% es.EY (V/m) @ t=3.9
0.7627636668300077
% es.EZ (V/m) @ t=3.9
-1.5864270366469047
% es.tEX (V/m) @ t=3.9
0.9955401207147645
% es.tEY (V/m) @ t=3.9
0
% es.tEZ (V/m) @ t=3.9
-1.58642703664691
% es.Ex (V/m) @ t=3.9
0.9955401207147716
% es.Ey (V/m) @ t=3.9
0.7627636668300077
% es.Ez (V/m) @ t=3.9
-1.5864270366469047
% es.tEx (V/m) @ t=3.9
0.9955401207147645
% es.tEy (V/m) @ t=3.9
0
% es.tEz (V/m) @ t=3.9
-1.58642703664691
% V (V) @ t=3.9
0.050589817499048034
% es.normE (V/m) @ t=4
2.2104584865790513
% es.EX (V/m) @ t=4
1.0342666630606132
% es.EY (V/m) @ t=4
0.7924200042284291
% es.EZ (V/m) @ t=4
-1.6481406233911002
% es.tEX (V/m) @ t=4
1.034266663060599
% es.tEY (V/m) @ t=4
0
% es.tEZ (V/m) @ t=4
-1.6481406233911144
% es.Ex (V/m) @ t=4
1.0342666630606132
% es.Ey (V/m) @ t=4
0.7924200042284291
% es.Ez (V/m) @ t=4
-1.6481406233911002
% es.tEx (V/m) @ t=4
1.034266663060599
% es.tEy (V/m) @ t=4
0
% es.tEz (V/m) @ t=4
-1.6481406233911144
% V (V) @ t=4
0.052558187484208936
% es.normE (V/m) @ t=4.1
2.295102092297511
% es.EX (V/m) @ t=4.1
1.0738751631952042
% es.EY (V/m) @ t=4.1
0.8227498016659887
% es.EZ (V/m) @ t=4.1
-1.7112598685560938
% es.tEX (V/m) @ t=4.1
1.07387516319519
% es.tEY (V/m) @ t=4.1
0
% es.tEZ (V/m) @ t=4.1
-1.7112598685560982
% es.Ex (V/m) @ t=4.1
1.0738751631952042
% es.Ey (V/m) @ t=4.1
0.8227498016659887
% es.Ez (V/m) @ t=4.1
-1.7112598685560938
% es.tEx (V/m) @ t=4.1
1.07387516319519
% es.tEy (V/m) @ t=4.1
0
% es.tEz (V/m) @ t=4.1
-1.7112598685560982
% V (V) @ t=4.1
0.054571439109089404
% es.normE (V/m) @ t=4.2
2.3802157174338343
% es.EX (V/m) @ t=4.2
1.1137018151291187
% es.EY (V/m) @ t=4.2
0.8532541718258848
% es.EZ (V/m) @ t=4.2
-1.774726000601083
% es.tEX (V/m) @ t=4.2
1.1137018151291045
% es.tEY (V/m) @ t=4.2
0
% es.tEZ (V/m) @ t=4.2
-1.7747260006010777
% es.Ex (V/m) @ t=4.2
1.1137018151291187
% es.Ey (V/m) @ t=4.2
0.8532541718258848
% es.Ez (V/m) @ t=4.2
-1.774726000601083
% es.tEx (V/m) @ t=4.2
1.1137018151291045
% es.tEy (V/m) @ t=4.2
0
% es.tEz (V/m) @ t=4.2
-1.7747260006010777
% V (V) @ t=4.2
0.05659556886823808
% es.normE (V/m) @ t=4.3
2.4667568429816447
% es.EX (V/m) @ t=4.3
1.1541963607184798
% es.EY (V/m) @ t=4.3
0.8842703826999596
% es.EZ (V/m) @ t=4.3
-1.8392564325240501
% es.tEX (V/m) @ t=4.3
1.1541963607184655
% es.tEY (V/m) @ t=4.3
0
% es.tEZ (V/m) @ t=4.3
-1.8392564325240528
% es.Ex (V/m) @ t=4.3
1.1541963607184798
% es.Ey (V/m) @ t=4.3
0.8842703826999596
% es.Ez (V/m) @ t=4.3
-1.8392564325240501
% es.tEx (V/m) @ t=4.3
1.1541963607184655
% es.tEy (V/m) @ t=4.3
0
% es.tEz (V/m) @ t=4.3
-1.8392564325240528
% V (V) @ t=4.3
0.05865363544261381
% es.normE (V/m) @ t=4.4
2.554626080420832
% es.EX (V/m) @ t=4.4
1.1953122318428697
% es.EY (V/m) @ t=4.4
0.9157630265811285
% es.EZ (V/m) @ t=4.4
-1.9047769291594712
% es.tEX (V/m) @ t=4.4
1.1953122318428555
% es.tEY (V/m) @ t=4.4
0
% es.tEZ (V/m) @ t=4.4
-1.904776929159496
% es.Ex (V/m) @ t=4.4
1.1953122318428697
% es.Ey (V/m) @ t=4.4
0.9157630265811285
% es.Ez (V/m) @ t=4.4
-1.9047769291594712
% es.tEx (V/m) @ t=4.4
1.1953122318428555
% es.tEy (V/m) @ t=4.4
0
% es.tEz (V/m) @ t=4.4
-1.904776929159496
% V (V) @ t=4.4
0.06074326480947607
% es.normE (V/m) @ t=4.5
2.643724041228406
% es.EX (V/m) @ t=4.5
1.2370028603816152
% es.EY (V/m) @ t=4.5
0.9476966957621009
% es.EZ (V/m) @ t=4.5
-1.9712132553415955
% es.tEX (V/m) @ t=4.5
1.237002860381594
% es.tEY (V/m) @ t=4.5
0
% es.tEZ (V/m) @ t=4.5
-1.9712132553416097
% es.Ex (V/m) @ t=4.5
1.2370028603816152
% es.Ey (V/m) @ t=4.5
0.9476966957621009
% es.Ez (V/m) @ t=4.5
-1.9712132553415955
% es.tEx (V/m) @ t=4.5
1.237002860381594
% es.tEy (V/m) @ t=4.5
0
% es.tEz (V/m) @ t=4.5
-1.9712132553416097
% V (V) @ t=4.5
0.06286208294608435
% es.normE (V/m) @ t=4.6
2.733951336880045
% es.EX (V/m) @ t=4.6
1.2792216782141708
% es.EY (V/m) @ t=4.6
0.9800359825355827
% es.EZ (V/m) @ t=4.6
-2.0384911759047313
% es.tEX (V/m) @ t=4.6
1.2792216782141566
% es.tEY (V/m) @ t=4.6
0
% es.tEZ (V/m) @ t=4.6
-2.0384911759047384
% es.Ex (V/m) @ t=4.6
1.2792216782141708
% es.Ey (V/m) @ t=4.6
0.9800359825355827
% es.Ez (V/m) @ t=4.6
-2.0384911759047313
% es.tEx (V/m) @ t=4.6
1.2792216782141566
% es.tEy (V/m) @ t=4.6
0
% es.tEz (V/m) @ t=4.6
-2.0384911759047384
% V (V) @ t=4.6
0.06500771582969815
% es.normE (V/m) @ t=4.7
2.825208578850967
% es.EX (V/m) @ t=4.7
1.3219221172199127
% es.EY (V/m) @ t=4.7
1.012745479194507
% es.EZ (V/m) @ t=4.7
-2.1065364556831856
% es.tEX (V/m) @ t=4.7
1.321922117219863
% es.tEY (V/m) @ t=4.7
0
% es.tEZ (V/m) @ t=4.7
-2.106536455683198
% es.Ex (V/m) @ t=4.7
1.3219221172199127
% es.Ey (V/m) @ t=4.7
1.012745479194507
% es.Ez (V/m) @ t=4.7
-2.1065364556831856
% es.tEx (V/m) @ t=4.7
1.321922117219863
% es.tEy (V/m) @ t=4.7
0
% es.tEz (V/m) @ t=4.7
-2.106536455683198
% V (V) @ t=4.7
0.06717778943757693
% es.normE (V/m) @ t=4.8
2.917396378617101
% es.EX (V/m) @ t=4.8
1.3650576092781606
% es.EY (V/m) @ t=4.8
1.0457897780316046
% es.EZ (V/m) @ t=4.8
-2.175274859511209
% es.tEX (V/m) @ t=4.8
1.3650576092781463
% es.tEY (V/m) @ t=4.8
0
% es.tEZ (V/m) @ t=4.8
-2.175274859511248
% es.Ex (V/m) @ t=4.8
1.3650576092781606
% es.Ey (V/m) @ t=4.8
1.0457897780316046
% es.Ez (V/m) @ t=4.8
-2.175274859511209
% es.tEx (V/m) @ t=4.8
1.3650576092781463
% es.tEy (V/m) @ t=4.8
0
% es.tEz (V/m) @ t=4.8
-2.175274859511248
% V (V) @ t=4.8
0.06936992974698024
% es.normE (V/m) @ t=4.9
3.0071748304592933
% es.EX (V/m) @ t=4.9
1.4070627748946194
% es.EY (V/m) @ t=4.9
1.077980661761785
% es.EZ (V/m) @ t=4.9
-2.242210785645005
% es.tEX (V/m) @ t=4.9
1.4070627748946123
% es.tEY (V/m) @ t=4.9
0
% es.tEZ (V/m) @ t=4.9
-2.242210785645028
% es.Ex (V/m) @ t=4.9
1.4070627748946194
% es.Ey (V/m) @ t=4.9
1.077980661761785
% es.Ez (V/m) @ t=4.9
-2.242210785645005
% es.tEx (V/m) @ t=4.9
1.4070627748946123
% es.tEy (V/m) @ t=4.9
0
% es.tEz (V/m) @ t=4.9
-2.242210785645028
% V (V) @ t=4.9
0.07150427795247913
% es.normE (V/m) @ t=5
3.0962126121269202
% es.EX (V/m) @ t=5
1.448719728183093
% es.EY (V/m) @ t=5
1.1099117098144617
% es.EZ (V/m) @ t=5
-2.3085911264145444
% es.tEX (V/m) @ t=5
1.448719728183093
% es.tEY (V/m) @ t=5
0
% es.tEZ (V/m) @ t=5
-2.3085911264145835
% es.Ex (V/m) @ t=5
1.448719728183093
% es.Ey (V/m) @ t=5
1.1099117098144617
% es.Ez (V/m) @ t=5
-2.3085911264145444
% es.tEx (V/m) @ t=5
1.448719728183093
% es.tEy (V/m) @ t=5
0
% es.tEz (V/m) @ t=5
-2.3085911264145835
% V (V) @ t=5
0.0736207366852779
% es.normE (V/m) @ t=5.1
3.1843953781303105
% es.EX (V/m) @ t=5.1
1.4899748907234738
% es.EY (V/m) @ t=5.1
1.1415421935184185
% es.EZ (V/m) @ t=5.1
-2.374330470476748
% es.tEX (V/m) @ t=5.1
1.4899748907234311
% es.tEY (V/m) @ t=5.1
0
% es.tEZ (V/m) @ t=5.1
-2.3743304704767496
% es.Ex (V/m) @ t=5.1
1.4899748907234738
% es.Ey (V/m) @ t=5.1
1.1415421935184185
% es.Ez (V/m) @ t=5.1
-2.374330470476748
% es.tEx (V/m) @ t=5.1
1.4899748907234311
% es.tEy (V/m) @ t=5.1
0
% es.tEz (V/m) @ t=5.1
-2.3743304704767496
% V (V) @ t=5.1
0.07571657428010535
% es.normE (V/m) @ t=5.2
3.2714622339457327
% es.EX (V/m) @ t=5.2
1.5307059973959198
% es.EY (V/m) @ t=5.2
1.1727792495619767
% es.EZ (V/m) @ t=5.2
-2.439233902647901
% es.tEX (V/m) @ t=5.2
1.5307059973959127
% es.tEY (V/m) @ t=5.2
0
% es.tEZ (V/m) @ t=5.2
-2.439233902647942
% es.Ex (V/m) @ t=5.2
1.5307059973959198
% es.Ey (V/m) @ t=5.2
1.1727792495619767
% es.Ez (V/m) @ t=5.2
-2.439233902647901
% es.tEx (V/m) @ t=5.2
1.5307059973959127
% es.tEy (V/m) @ t=5.2
0
% es.tEz (V/m) @ t=5.2
-2.439233902647942
% V (V) @ t=5.2
0.07778555490120578
% es.normE (V/m) @ t=5.3
3.3571522851229845
% es.EX (V/m) @ t=5.3
1.5707907830806889
% es.EY (V/m) @ t=5.3
1.2035300146332588
% es.EZ (V/m) @ t=5.3
-2.5031065077444623
% es.tEX (V/m) @ t=5.3
1.5707907830806391
% es.tEY (V/m) @ t=5.3
0
% es.tEZ (V/m) @ t=5.3
-2.5031065077444907
% es.Ex (V/m) @ t=5.3
1.5707907830806889
% es.Ey (V/m) @ t=5.3