% Model:              1x1--2 - Copy1.mph
% Version:            COMSOL 6.1.0.252
% Date:               Apr 3 2023, 14:58
% Dimension:          0
% Nodes:              14017
% Expressions:        14017
% Description:        Electric field norm, Electric field, X component, Electric field, Y component, Electric field, Z component, Tangential electric field, X component, Tangential electric field, Y component, Tangential electric field, Z component, Electric field, x component, Electric field, y component, Electric field, z component, Tangential electric field, x component, Tangential electric field, y component, Tangential electric field, z component, Electric potential
% Length unit:        mm
% x
1.33
% y
12.2
% z
1.3300000000000003
% es.normE (V/m) @ t=0
0.3919782308226613
% es.EX (V/m) @ t=0
0.28597153942436526
% es.EY (V/m) @ t=0
0.12498625482299996
% es.EZ (V/m) @ t=0
-0.2116678862552912
% es.tEX (V/m) @ t=0
0.285971539424367
% es.tEY (V/m) @ t=0
0
% es.tEZ (V/m) @ t=0
-0.21166788625528765
% es.Ex (V/m) @ t=0
0.28597153942436526
% es.Ey (V/m) @ t=0
0.12498625482299996
% es.Ez (V/m) @ t=0
-0.2116678862552912
% es.tEx (V/m) @ t=0
0.285971539424367
% es.tEy (V/m) @ t=0
0
% es.tEz (V/m) @ t=0
-0.21166788625528765
% V (V) @ t=0
0.008040045203523024
% es.normE (V/m) @ t=0.1
0.39807976106228915
% es.EX (V/m) @ t=0.1
0.2904229778414764
% es.EY (V/m) @ t=0.1
0.12693177847127746
% es.EZ (V/m) @ t=0.1
-0.21496270807971807
% es.tEX (V/m) @ t=0.1
0.29042297784147814
% es.tEY (V/m) @ t=0.1
0
% es.tEZ (V/m) @ t=0.1
-0.21496270807971452
% es.Ex (V/m) @ t=0.1
0.2904229778414764
% es.Ey (V/m) @ t=0.1
0.12693177847127746
% es.Ez (V/m) @ t=0.1
-0.21496270807971807
% es.tEx (V/m) @ t=0.1
0.29042297784147814
% es.tEy (V/m) @ t=0.1
0
% es.tEz (V/m) @ t=0.1
-0.21496270807971452
% V (V) @ t=0.1
0.008165197345552815
% es.normE (V/m) @ t=0.2
0.417028346633578
% es.EX (V/m) @ t=0.2
0.3042468820831742
% es.EY (V/m) @ t=0.2
0.13297405545366914
% es.EZ (V/m) @ t=0.2
-0.22519490417941368
% es.tEX (V/m) @ t=0.2
0.3042468820831759
% es.tEY (V/m) @ t=0.2
0
% es.tEZ (V/m) @ t=0.2
-0.22519490417941013
% es.Ex (V/m) @ t=0.2
0.3042468820831742
% es.Ey (V/m) @ t=0.2
0.13297405545366914
% es.Ez (V/m) @ t=0.2
-0.22519490417941368
% es.tEx (V/m) @ t=0.2
0.3042468820831759
% es.tEy (V/m) @ t=0.2
0
% es.tEz (V/m) @ t=0.2
-0.22519490417941013
% V (V) @ t=0.2
0.008553838756370363
% es.normE (V/m) @ t=0.3
0.436542546348539
% es.EX (V/m) @ t=0.3
0.3184832726602401
% es.EY (V/m) @ t=0.3
0.13919692631809455
% es.EZ (V/m) @ t=0.3
-0.23573251382592564
% es.tEX (V/m) @ t=0.3
0.3184832726602418
% es.tEY (V/m) @ t=0.3
0
% es.tEZ (V/m) @ t=0.3
-0.23573251382592209
% es.Ex (V/m) @ t=0.3
0.3184832726602401
% es.Ey (V/m) @ t=0.3
0.13919692631809455
% es.Ez (V/m) @ t=0.3
-0.23573251382592564
% es.tEx (V/m) @ t=0.3
0.3184832726602418
% es.tEy (V/m) @ t=0.3
0
% es.tEz (V/m) @ t=0.3
-0.23573251382592209
% V (V) @ t=0.3
0.008954065440045327
% es.normE (V/m) @ t=0.4
0.4572013029399121
% es.EX (V/m) @ t=0.4
0.3335553980869404
% es.EY (V/m) @ t=0.4
0.14578369505571287
% es.EZ (V/m) @ t=0.4
-0.24688825788039281
% es.tEX (V/m) @ t=0.4
0.3335553980869421
% es.tEY (V/m) @ t=0.4
0
% es.tEZ (V/m) @ t=0.4
-0.24688825788038926
% es.Ex (V/m) @ t=0.4
0.3335553980869404
% es.Ey (V/m) @ t=0.4
0.14578369505571287
% es.Ez (V/m) @ t=0.4
-0.24688825788039281
% es.tEx (V/m) @ t=0.4
0.3335553980869421
% es.tEy (V/m) @ t=0.4
0
% es.tEz (V/m) @ t=0.4
-0.24688825788038926
% V (V) @ t=0.4
0.009377839146137618
% es.normE (V/m) @ t=0.5
0.4791307115121157
% es.EX (V/m) @ t=0.5
0.3495569997780741
% es.EY (V/m) @ t=0.5
0.1527719787761449
% es.EZ (V/m) @ t=0.5
-0.2587304100931551
% es.tEX (V/m) @ t=0.5
0.3495569997780776
% es.tEY (V/m) @ t=0.5
0
% es.tEZ (V/m) @ t=0.5
-0.258730410093148
% es.Ex (V/m) @ t=0.5
0.3495569997780741
% es.Ey (V/m) @ t=0.5
0.1527719787761449
% es.Ez (V/m) @ t=0.5
-0.2587304100931551
% es.tEx (V/m) @ t=0.5
0.3495569997780776
% es.tEy (V/m) @ t=0.5
0
% es.tEz (V/m) @ t=0.5
-0.258730410093148
% V (V) @ t=0.5
0.00982791896382753
% es.normE (V/m) @ t=0.6
0.5025112827601055
% es.EX (V/m) @ t=0.6
0.3666201688351925
% es.EY (V/m) @ t=0.6
0.160218745416718
% es.EZ (V/m) @ t=0.6
-0.2713564875831156
% es.tEX (V/m) @ t=0.6
0.3666201688351942
% es.tEY (V/m) @ t=0.6
0
% es.tEZ (V/m) @ t=0.6
-0.27135648758311204
% es.Ex (V/m) @ t=0.6
0.3666201688351925
% es.Ey (V/m) @ t=0.6
0.160218745416718
% es.Ez (V/m) @ t=0.6
-0.2713564875831156
% es.tEx (V/m) @ t=0.6
0.3666201688351942
% es.tEy (V/m) @ t=0.6
0
% es.tEz (V/m) @ t=0.6
-0.27135648758311204
% V (V) @ t=0.6
0.01030804676343672
% es.normE (V/m) @ t=0.7
0.5258918542285774
% es.EX (V/m) @ t=0.7
0.3836833378923144
% es.EY (V/m) @ t=0.7
0.16766551205730007
% es.EZ (V/m) @ t=0.7
-0.28398256507308606
% es.tEX (V/m) @ t=0.7
0.38368333789231607
% es.tEY (V/m) @ t=0.7
0
% es.tEZ (V/m) @ t=0.7
-0.28398256507307895
% es.Ex (V/m) @ t=0.7
0.3836833378923144
% es.Ey (V/m) @ t=0.7
0.16766551205730007
% es.Ez (V/m) @ t=0.7
-0.28398256507308606
% es.tEx (V/m) @ t=0.7
0.38368333789231607
% es.tEy (V/m) @ t=0.7
0
% es.tEz (V/m) @ t=0.7
-0.28398256507307895
% V (V) @ t=0.7
0.010788174563045906
% es.normE (V/m) @ t=0.8
0.5504675040294792
% es.EX (V/m) @ t=0.8
0.40161515804659553
% es.EY (V/m) @ t=0.8
0.175498128730882
% es.EZ (V/m) @ t=0.8
-0.29725364603971993
% es.tEX (V/m) @ t=0.8
0.40161515804659725
% es.tEY (V/m) @ t=0.8
0
% es.tEZ (V/m) @ t=0.8
-0.2972536460397164
% es.Ex (V/m) @ t=0.8
0.40161515804659553
% es.Ey (V/m) @ t=0.8
0.175498128730882
% es.Ez (V/m) @ t=0.8
-0.29725364603971993
% es.tEx (V/m) @ t=0.8
0.40161515804659725
% es.tEy (V/m) @ t=0.8
0
% es.tEz (V/m) @ t=0.8
-0.2972536460397164
% V (V) @ t=0.8
0.01129249581106031
% es.normE (V/m) @ t=0.9
0.5765930673041002
% es.EX (V/m) @ t=0.9
0.4206735438385327
% es.EY (V/m) @ t=0.9
0.1838311596558605
% es.EZ (V/m) @ t=0.9
-0.3113612409477784
% es.tEX (V/m) @ t=0.9
0.4206735438385362
% es.tEY (V/m) @ t=0.9
0
% es.tEZ (V/m) @ t=0.9
-0.31136124094777484
% es.Ex (V/m) @ t=0.9
0.4206735438385327
% es.Ey (V/m) @ t=0.9
0.1838311596558605
% es.Ez (V/m) @ t=0.9
-0.3113612409477784
% es.tEx (V/m) @ t=0.9
0.4206735438385362
% es.tEy (V/m) @ t=0.9
0
% es.tEz (V/m) @ t=0.9
-0.31136124094777484
% V (V) @ t=0.9
0.011828193877361221
% es.normE (V/m) @ t=1
0.6027186306195805
% es.EX (V/m) @ t=1
0.4397319296304681
% es.EY (V/m) @ t=1
0.1921641905808399
% es.EZ (V/m) @ t=1
-0.3254688358558293
% es.tEX (V/m) @ t=1
0.43973192963047153
% es.tEY (V/m) @ t=1
0
% es.tEZ (V/m) @ t=1
-0.3254688358558222
% es.Ex (V/m) @ t=1
0.4397319296304681
% es.Ey (V/m) @ t=1
0.1921641905808399
% es.Ez (V/m) @ t=1
-0.3254688358558293
% es.tEx (V/m) @ t=1
0.43973192963047153
% es.tEy (V/m) @ t=1
0
% es.tEz (V/m) @ t=1
-0.3254688358558222
% V (V) @ t=1
0.01236389194366213
% es.normE (V/m) @ t=1.1
0.6310672821743714
% es.EX (V/m) @ t=1.1
0.460405103442565
% es.EY (V/m) @ t=1.1
0.20121658075883675
% es.EZ (V/m) @ t=1.1
-0.34077615467099265
% es.tEX (V/m) @ t=1.1
0.4604051034425649
% es.tEY (V/m) @ t=1.1
0
% es.tEZ (V/m) @ t=1.1
-0.34077615467098554
% es.Ex (V/m) @ t=1.1
0.460405103442565
% es.Ey (V/m) @ t=1.1
0.20121658075883675
% es.Ez (V/m) @ t=1.1
-0.34077615467099265
% es.tEx (V/m) @ t=1.1
0.4604051034425649
% es.tEy (V/m) @ t=1.1
0
% es.tEz (V/m) @ t=1.1
-0.34077615467098554
% V (V) @ t=1.1
0.012944487737023846
% es.normE (V/m) @ t=1.2
0.6603122689194352
% es.EX (V/m) @ t=1.2
0.4817293490812864
% es.EY (V/m) @ t=1.2
0.21055901181963654
% es.EZ (V/m) @ t=1.2
-0.35656719421353045
% es.tEX (V/m) @ t=1.2
0.48172934908128984
% es.tEY (V/m) @ t=1.2
0
% es.tEZ (V/m) @ t=1.2
-0.35656719421352334
% es.Ex (V/m) @ t=1.2
0.4817293490812864
% es.Ey (V/m) @ t=1.2
0.21055901181963654
% es.Ez (V/m) @ t=1.2
-0.35656719421353045
% es.tEx (V/m) @ t=1.2
0.48172934908128984
% es.tEy (V/m) @ t=1.2
0
% es.tEz (V/m) @ t=1.2
-0.35656719421352334
% V (V) @ t=1.2
0.01354318599634682
% es.normE (V/m) @ t=1.3
0.6895572564465244
% es.EX (V/m) @ t=1.3
0.503053594720015
% es.EY (V/m) @ t=1.3
0.21990144288042712
% es.EZ (V/m) @ t=1.3
-0.37235823375607935
% es.tEX (V/m) @ t=1.3
0.5030535947200184
% es.tEY (V/m) @ t=1.3
0
% es.tEZ (V/m) @ t=1.3
-0.37235823375607224
% es.Ex (V/m) @ t=1.3
0.503053594720015
% es.Ey (V/m) @ t=1.3
0.21990144288042712
% es.Ez (V/m) @ t=1.3
-0.37235823375607935
% es.tEx (V/m) @ t=1.3
0.5030535947200184
% es.tEy (V/m) @ t=1.3
0
% es.tEz (V/m) @ t=1.3
-0.37235823375607224
% V (V) @ t=1.3
0.014141884255669795
% es.normE (V/m) @ t=1.4
0.7223301254803626
% es.EX (V/m) @ t=1.4
0.5269724045531851
% es.EY (V/m) @ t=1.4
0.23033800392704729
% es.EZ (V/m) @ t=1.4
-0.39005649994788016
% es.tEX (V/m) @ t=1.4
0.5269724045531885
% es.tEY (V/m) @ t=1.4
0
% es.tEZ (V/m) @ t=1.4
-0.39005649994787306
% es.Ex (V/m) @ t=1.4
0.5269724045531851
% es.Ey (V/m) @ t=1.4
0.23033800392704729
% es.Ez (V/m) @ t=1.4
-0.39005649994788016
% es.tEx (V/m) @ t=1.4
0.5269724045531885
% es.tEy (V/m) @ t=1.4
0
% es.tEz (V/m) @ t=1.4
-0.39005649994787306
% V (V) @ t=1.4
0.014814998019383699
% es.normE (V/m) @ t=1.5
0.7551387975272613
% es.EX (V/m) @ t=1.5
0.550917545166658
% es.EY (V/m) @ t=1.5
0.24078566868670404
% es.EZ (V/m) @ t=1.5
-0.40777412151582304
% es.tEX (V/m) @ t=1.5
0.5509175451666615
% es.tEY (V/m) @ t=1.5
0
% es.tEZ (V/m) @ t=1.5
-0.40777412151581593
% es.Ex (V/m) @ t=1.5
0.550917545166658
% es.Ey (V/m) @ t=1.5
0.24078566868670404
% es.Ez (V/m) @ t=1.5
-0.40777412151582304
% es.tEx (V/m) @ t=1.5
0.5509175451666615
% es.tEy (V/m) @ t=1.5
0
% es.tEz (V/m) @ t=1.5
-0.40777412151581593
% V (V) @ t=1.5
0.015488866984414743
% es.normE (V/m) @ t=1.6
0.7884297868950321
% es.EX (V/m) @ t=1.6
0.5752135542844162
% es.EY (V/m) @ t=1.6
0.251388622730929
% es.EZ (V/m) @ t=1.6
-0.4257520880078476
% es.tEX (V/m) @ t=1.6
0.5752135542844197
% es.tEY (V/m) @ t=1.6
0
% es.tEZ (V/m) @ t=1.6
-0.4257520880078405
% es.Ex (V/m) @ t=1.6
0.5752135542844162
% es.Ey (V/m) @ t=1.6
0.251388622730929
% es.Ez (V/m) @ t=1.6
-0.4257520880078476
% es.tEx (V/m) @ t=1.6
0.5752135542844197
% es.tEy (V/m) @ t=1.6
0
% es.tEz (V/m) @ t=1.6
-0.4257520880078405
% V (V) @ t=1.6
0.01617252902823935
% es.normE (V/m) @ t=1.7
0.8238081420590881
% es.EX (V/m) @ t=1.7
0.6010280482383907
% es.EY (V/m) @ t=1.7
0.2626636360251431
% es.EZ (V/m) @ t=1.7
-0.4448567723860073
% es.tEX (V/m) @ t=1.7
0.6010280482383942
% es.tEY (V/m) @ t=1.7
0
% es.tEZ (V/m) @ t=1.7
-0.4448567723860002
% es.Ex (V/m) @ t=1.7
0.6010280482383907
% es.Ey (V/m) @ t=1.7
0.2626636360251431
% es.Ez (V/m) @ t=1.7
-0.4448567723860073
% es.tEx (V/m) @ t=1.7
0.6010280482383942
% es.tEy (V/m) @ t=1.7
0
% es.tEz (V/m) @ t=1.7
-0.4448567723860002
% V (V) @ t=1.7
0.016898573450267636
% es.normE (V/m) @ t=1.8
0.8603937142659352
% es.EX (V/m) @ t=1.8
0.6277207500127818
% es.EY (V/m) @ t=1.8
0.2743273312969712
% es.EZ (V/m) @ t=1.8
-0.46461308820318825
% es.tEX (V/m) @ t=1.8
0.6277207500127853
% es.tEY (V/m) @ t=1.8
0
% es.tEZ (V/m) @ t=1.8
-0.46461308820318115
% es.Ex (V/m) @ t=1.8
0.6277207500127818
% es.Ey (V/m) @ t=1.8
0.2743273312969712
% es.Ez (V/m) @ t=1.8
-0.46461308820318825
% es.tEx (V/m) @ t=1.8
0.6277207500127853
% es.tEy (V/m) @ t=1.8
0
% es.tEz (V/m) @ t=1.8
-0.46461308820318115
% V (V) @ t=1.8
0.017649129500662785
% es.normE (V/m) @ t=1.9
0.8981865034825662
% es.EX (V/m) @ t=1.9
0.6552916596075897
% es.EY (V/m) @ t=1.9
0.28637970854646433
% es.EZ (V/m) @ t=1.9
-0.4850210354593978
% es.tEX (V/m) @ t=1.9
0.6552916596075932
% es.tEY (V/m) @ t=1.9
0
% es.tEZ (V/m) @ t=1.9
-0.4850210354593836
% es.Ex (V/m) @ t=1.9
0.6552916596075897
% es.Ey (V/m) @ t=1.9
0.28637970854646433
% es.Ez (V/m) @ t=1.9
-0.4850210354593978
% es.tEx (V/m) @ t=1.9
0.6552916596075932
% es.tEy (V/m) @ t=1.9
0
% es.tEz (V/m) @ t=1.9
-0.4850210354593836
% V (V) @ t=1.9
0.01842419717942479
% es.normE (V/m) @ t=2
0.9371865097638943
% es.EX (V/m) @ t=2
0.6837407770228143
% es.EY (V/m) @ t=2
0.29882076777356237
% es.EZ (V/m) @ t=2
-0.5060806141546492
% es.tEX (V/m) @ t=2
0.6837407770228178
% es.tEY (V/m) @ t=2
0
% es.tEZ (V/m) @ t=2
-0.506080614154635
% es.Ex (V/m) @ t=2
0.6837407770228143
% es.Ey (V/m) @ t=2
0.29882076777356237
% es.Ez (V/m) @ t=2
-0.5060806141546492
% es.tEx (V/m) @ t=2
0.6837407770228178
% es.tEy (V/m) @ t=2
0
% es.tEz (V/m) @ t=2
-0.506080614154635
% V (V) @ t=2
0.019223776486553653
% es.normE (V/m) @ t=2.1
0.9773937332350521
% es.EX (V/m) @ t=2.1
0.7130681022584484
% es.EY (V/m) @ t=2.1
0.3116505089782817
% es.EZ (V/m) @ t=2.1
-0.5277918242889155
% es.tEX (V/m) @ t=2.1
0.7130681022584553
% es.tEY (V/m) @ t=2.1
0
% es.tEZ (V/m) @ t=2.1
-0.5277918242889084
% es.Ex (V/m) @ t=2.1
0.7130681022584484
% es.Ey (V/m) @ t=2.1
0.3116505089782817
% es.Ez (V/m) @ t=2.1
-0.5277918242889155
% es.tEx (V/m) @ t=2.1
0.7130681022584553
% es.tEy (V/m) @ t=2.1
0
% es.tEz (V/m) @ t=2.1
-0.5277918242889084
% V (V) @ t=2.1
0.02004786742204938
% es.normE (V/m) @ t=2.2
1.0191931266702148
% es.EX (V/m) @ t=2.2
0.7435619375531665
% es.EY (V/m) @ t=2.2
0.32498062745532175
% es.EZ (V/m) @ t=2.2
-0.5503633204777376
% es.tEX (V/m) @ t=2.2
0.7435619375531699
% es.tEY (V/m) @ t=2.2
0
% es.tEZ (V/m) @ t=2.2
-0.5503633204777234
% es.Ex (V/m) @ t=2.2
0.7435619375531665
% es.Ey (V/m) @ t=2.2
0.32498062745532175
% es.Ez (V/m) @ t=2.2
-0.5503633204777376
% es.tEx (V/m) @ t=2.2
0.7435619375531699
% es.tEy (V/m) @ t=2.2
0
% es.tEz (V/m) @ t=2.2
-0.5503633204777234
% V (V) @ t=2.2
0.020905103459747762
% es.normE (V/m) @ t=2.3
1.0626275174213968
% es.EX (V/m) @ t=2.3
0.7752499397378702
% es.EY (V/m) @ t=2.3
0.33883009741618353
% es.EZ (V/m) @ t=2.3
-0.5738178539132868
% es.tEX (V/m) @ t=2.3
0.7752499397378736
% es.tEY (V/m) @ t=2.3
0
% es.tEZ (V/m) @ t=2.3
-0.5738178539132726
% es.Ex (V/m) @ t=2.3
0.7752499397378702
% es.Ey (V/m) @ t=2.3
0.33883009741618353
% es.Ez (V/m) @ t=2.3
-0.5738178539132868
% es.tEx (V/m) @ t=2.3
0.7752499397378736
% es.tEy (V/m) @ t=2.3
0
% es.tEz (V/m) @ t=2.3
-0.5738178539132726
% V (V) @ t=2.3
0.021796008124115668
% es.normE (V/m) @ t=2.4
1.1080248918196376
% es.EX (V/m) @ t=2.4
0.808369297818588
% es.EY (V/m) @ t=2.4
0.35330660797227864
% es.EZ (V/m) @ t=2.4
-0.5983323174943642
% es.tEX (V/m) @ t=2.4
0.8083692978185915
% es.tEY (V/m) @ t=2.4
0
% es.tEZ (V/m) @ t=2.4
-0.59833231749435
% es.Ex (V/m) @ t=2.4
0.808369297818588
% es.Ey (V/m) @ t=2.4
0.35330660797227864
% es.Ez (V/m) @ t=2.4
-0.5983323174943642
% es.tEx (V/m) @ t=2.4
0.8083692978185915
% es.tEy (V/m) @ t=2.4
0
% es.tEz (V/m) @ t=2.4
-0.59833231749435
% V (V) @ t=2.4
0.022727101530797177
% es.normE (V/m) @ t=2.5
1.1552752285278514
% es.EX (V/m) @ t=2.5
0.8428399486243812
% es.EY (V/m) @ t=2.5
0.36837477540813257
% es.EZ (V/m) @ t=2.5
-0.6238473211350235
% es.tEX (V/m) @ t=2.5
0.8428399486243846
% es.tEY (V/m) @ t=2.5
0
% es.tEZ (V/m) @ t=2.5
-0.6238473211350164
% es.Ex (V/m) @ t=2.5
0.8428399486243812
% es.Ey (V/m) @ t=2.5
0.36837477540813257
% es.Ez (V/m) @ t=2.5
-0.6238473211350235
% es.tEx (V/m) @ t=2.5
0.8428399486243846
% es.tEy (V/m) @ t=2.5
0
% es.tEz (V/m) @ t=2.5
-0.6238473211350164
% V (V) @ t=2.5
0.023696147150637434
% es.normE (V/m) @ t=2.6
1.2046588499671602
% es.EX (V/m) @ t=2.6
0.8788674946397952
% es.EY (V/m) @ t=2.6
0.38412236746690187
% es.EZ (V/m) @ t=2.6
-0.6505143525071393
% es.tEX (V/m) @ t=2.6
0.878867494639795
% es.tEY (V/m) @ t=2.6
0
% es.tEZ (V/m) @ t=2.6
-0.6505143525071251
% es.Ex (V/m) @ t=2.6
0.8788674946397952
% es.Ey (V/m) @ t=2.6
0.38412236746690187
% es.Ez (V/m) @ t=2.6
-0.6505143525071393
% es.tEx (V/m) @ t=2.6
0.878867494639795
% es.tEy (V/m) @ t=2.6
0
% es.tEz (V/m) @ t=2.6
-0.6505143525071251
% V (V) @ t=2.6
0.024709002499141843
% es.normE (V/m) @ t=2.7
1.2561858742795424
% es.EX (V/m) @ t=2.7
0.9164593570191009
% es.EY (V/m) @ t=2.7
0.4005525520964719
% es.EZ (V/m) @ t=2.7
-0.678338879508622
% es.tEX (V/m) @ t=2.7
0.9164593570191077
% es.tEY (V/m) @ t=2.7
0
% es.tEZ (V/m) @ t=2.7
-0.6783388795086078
% es.Ex (V/m) @ t=2.7
0.9164593570191009
% es.Ey (V/m) @ t=2.7
0.4005525520964719
% es.Ez (V/m) @ t=2.7
-0.678338879508622
% es.tEx (V/m) @ t=2.7
0.9164593570191077
% es.tEy (V/m) @ t=2.7
0
% es.tEz (V/m) @ t=2.7
-0.6783388795086078
% V (V) @ t=2.7
0.025765879001411533
% es.normE (V/m) @ t=2.8
1.3097854588609974
% es.EX (V/m) @ t=2.8
0.9555635762528147
% es.EY (V/m) @ t=2.8
0.4176431487824199
% es.EZ (V/m) @ t=2.8
-0.7072826184332217
% es.tEX (V/m) @ t=2.8
0.9555635762528216
% es.tEY (V/m) @ t=2.8
0
% es.tEZ (V/m) @ t=2.8
-0.7072826184332146
% es.Ex (V/m) @ t=2.8
0.9555635762528147
% es.Ey (V/m) @ t=2.8
0.4176431487824199
% es.Ez (V/m) @ t=2.8
-0.7072826184332217
% es.tEx (V/m) @ t=2.8
0.9555635762528216
% es.tEy (V/m) @ t=2.8
0
% es.tEz (V/m) @ t=2.8
-0.7072826184332146
% V (V) @ t=2.8
0.026865296356112456
% es.normE (V/m) @ t=2.9
1.3654576037122617
% es.EX (V/m) @ t=2.9
0.9961801523410005
% es.EY (V/m) @ t=2.9
0.4353941575247462
% es.EZ (V/m) @ t=2.9
-0.7373455692809339
% es.tEX (V/m) @ t=2.9
0.9961801523410074
% es.tEY (V/m) @ t=2.9
0
% es.tEZ (V/m) @ t=2.9
-0.7373455692809197
% es.Ex (V/m) @ t=2.9
0.9961801523410005
% es.Ey (V/m) @ t=2.9
0.4353941575247462
% es.Ez (V/m) @ t=2.9
-0.7373455692809339
% es.tEx (V/m) @ t=2.9
0.9961801523410074
% es.tEy (V/m) @ t=2.9
0
% es.tEz (V/m) @ t=2.9
-0.7373455692809197
% V (V) @ t=2.9
0.028007254563244616
% es.normE (V/m) @ t=3
1.4232023088346089
% es.EX (V/m) @ t=3
1.0383090852836019
% es.EY (V/m) @ t=3
0.4538055783234394
% es.EZ (V/m) @ t=3
-0.7685277320517496
% es.tEX (V/m) @ t=3
1.0383090852836088
% es.tEY (V/m) @ t=3
0
% es.tEZ (V/m) @ t=3
-0.7685277320517354
% es.Ex (V/m) @ t=3
1.0383090852836019
% es.Ey (V/m) @ t=3
0.4538055783234394
% es.Ez (V/m) @ t=3
-0.7685277320517496
% es.tEx (V/m) @ t=3
1.0383090852836088
% es.tEy (V/m) @ t=3
0
% es.tEz (V/m) @ t=3
-0.7685277320517354
% V (V) @ t=3
0.029191753622808014
% es.normE (V/m) @ t=3.1
1.4831428943837481
% es.EX (V/m) @ t=3.1
1.082040200747676
% es.EY (V/m) @ t=3.1
0.47291694557733854
% es.EZ (V/m) @ t=3.1
-0.8008956850175379
% es.tEX (V/m) @ t=3.1
1.0820402007476828
% es.tEY (V/m) @ t=3.1
0
% es.tEZ (V/m) @ t=3.1
-0.8008956850175237
% es.Ex (V/m) @ t=3.1
1.082040200747676
% es.Ey (V/m) @ t=3.1
0.47291694557733854
% es.Ez (V/m) @ t=3.1
-0.8008956850175379
% es.tEx (V/m) @ t=3.1
1.0820402007476828
% es.tEy (V/m) @ t=3.1
0
% es.tEz (V/m) @ t=3.1
-0.8008956850175237
% V (V) @ t=3.1
0.030421309078030208
% es.normE (V/m) @ t=3.2
1.5455495357814368
% es.EX (V/m) @ t=3.2
1.127570292904462
% es.EY (V/m) @ t=3.2
0.4928148730519555
% es.EZ (V/m) @ t=3.2
-0.8345952908951926
% es.tEX (V/m) @ t=3.2
1.1275702929044689
% es.tEY (V/m) @ t=3.2
0
% es.tEZ (V/m) @ t=3.2
-0.8345952908951784
% es.Ex (V/m) @ t=3.2
1.127570292904462
% es.Ey (V/m) @ t=3.2
0.4928148730519555
% es.Ez (V/m) @ t=3.2
-0.8345952908951926
% es.tEx (V/m) @ t=3.2
1.1275702929044689
% es.tEy (V/m) @ t=3.2
0
% es.tEz (V/m) @ t=3.2
-0.8345952908951784
% V (V) @ t=3.2
0.03170143209583104
% es.normE (V/m) @ t=3.3
1.6101757661506562
% es.EX (V/m) @ t=3.3
1.1747198367457028
% es.EY (V/m) @ t=3.3
0.5134203475485202
% es.EZ (V/m) @ t=3.3
-0.8694934867729036
% es.tEX (V/m) @ t=3.3
1.1747198367457097
% es.tEY (V/m) @ t=3.3
0
% es.tEZ (V/m) @ t=3.3
-0.8694934867728894
% es.Ex (V/m) @ t=3.3
1.1747198367457028
% es.Ey (V/m) @ t=3.3
0.5134203475485202
% es.Ez (V/m) @ t=3.3
-0.8694934867729036
% es.tEx (V/m) @ t=3.3
1.1747198367457097
% es.tEy (V/m) @ t=3.3
0
% es.tEz (V/m) @ t=3.3
-0.8694934867728894
% V (V) @ t=3.3
0.0330270951274754
% es.normE (V/m) @ t=3.4
1.6770215854920711
% es.EX (V/m) @ t=3.4
1.2234888322714266
% es.EY (V/m) @ t=3.4
0.5347333690670548
% es.EZ (V/m) @ t=3.4
-0.9055902726507101
% es.tEX (V/m) @ t=3.4
1.2234888322714406
% es.tEY (V/m) @ t=3.4
0
% es.tEZ (V/m) @ t=3.4
-0.9055902726506959
% es.Ex (V/m) @ t=3.4
1.2234888322714266
% es.Ey (V/m) @ t=3.4
0.5347333690670548
% es.Ez (V/m) @ t=3.4
-0.9055902726507101
% es.tEx (V/m) @ t=3.4
1.2234888322714406
% es.tEy (V/m) @ t=3.4
0
% es.tEz (V/m) @ t=3.4
-0.9055902726506959
% V (V) @ t=3.4
0.03439829817296329
% es.normE (V/m) @ t=3.5
1.7460869938062151
% es.EX (V/m) @ t=3.5
1.2738772794816122
% es.EY (V/m) @ t=3.5
0.5567539376075232
% es.EZ (V/m) @ t=3.5
-0.9428856485285415
% es.tEX (V/m) @ t=3.5
1.273877279481619
% es.tEY (V/m) @ t=3.5
0
% es.tEZ (V/m) @ t=3.5
-0.9428856485285273
% es.Ex (V/m) @ t=3.5
1.2738772794816122
% es.Ey (V/m) @ t=3.5
0.5567539376075232
% es.Ez (V/m) @ t=3.5
-0.9428856485285415
% es.tEx (V/m) @ t=3.5
1.273877279481619
% es.tEy (V/m) @ t=3.5
0
% es.tEz (V/m) @ t=3.5
-0.9428856485285273
% V (V) @ t=3.5
0.035815041232294675
% es.normE (V/m) @ t=3.6
1.8173719910938195
% es.EX (V/m) @ t=3.6
1.3258851783762953
% es.EY (V/m) @ t=3.6
0.5794820531700391
% es.EZ (V/m) @ t=3.6
-0.9813796144064861
% es.tEX (V/m) @ t=3.6
1.3258851783763022
% es.tEY (V/m) @ t=3.6
0
% es.tEZ (V/m) @ t=3.6
-0.9813796144064719
% es.Ex (V/m) @ t=3.6
1.3258851783762953
% es.Ey (V/m) @ t=3.6
0.5794820531700391
% es.Ez (V/m) @ t=3.6
-0.9813796144064861
% es.tEx (V/m) @ t=3.6
1.3258851783763022
% es.tEy (V/m) @ t=3.6
0
% es.tEz (V/m) @ t=3.6
-0.9813796144064719
% V (V) @ t=3.6
0.0372773243054696
% es.normE (V/m) @ t=3.7
1.8905348491510363
% es.EX (V/m) @ t=3.7
1.379262025851523
% es.EY (V/m) @ t=3.7
0.6028105221614046
% es.EZ (V/m) @ t=3.7
-1.0208875092436696
% es.tEX (V/m) @ t=3.7
1.3792620258515296
% es.tEY (V/m) @ t=3.7
0
% es.tEZ (V/m) @ t=3.7
-1.0208875092436553
% es.Ex (V/m) @ t=3.7
1.379262025851523
% es.Ey (V/m) @ t=3.7
0.6028105221614046
% es.Ez (V/m) @ t=3.7
-1.0208875092436696
% es.tEx (V/m) @ t=3.7
1.3792620258515296
% es.tEy (V/m) @ t=3.7
0
% es.tEz (V/m) @ t=3.7
-1.0208875092436553
% V (V) @ t=3.7
0.03877801840185424
% es.normE (V/m) @ t=3.8
1.965737111043222
% es.EX (V/m) @ t=3.8
1.4341262406951667
% es.EY (V/m) @ t=3.8
0.6267900175481005
% es.EZ (V/m) @ t=3.8
-1.0614966267154546
% es.tEX (V/m) @ t=3.8
1.4341262406951736
% es.tEY (V/m) @ t=3.8
0
% es.tEZ (V/m) @ t=3.8
-1.0614966267154404
% es.Ex (V/m) @ t=3.8
1.4341262406951667
% es.Ey (V/m) @ t=3.8
0.6267900175481005
% es.Ez (V/m) @ t=3.8
-1.0614966267154546
% es.tEx (V/m) @ t=3.8
1.4341262406951736
% es.tEy (V/m) @ t=3.8
0
% es.tEz (V/m) @ t=3.8
-1.0614966267154404
% V (V) @ t=3.8
0.0403204935652389
% es.normE (V/m) @ t=3.9
2.043030716761744
% es.EX (V/m) @ t=3.9
1.490515897402498
% es.EY (V/m) @ t=3.9
0.6514368319103885
% es.EZ (V/m) @ t=3.9
-1.1032350338430117
% es.tEX (V/m) @ t=3.9
1.4905158974025117
% es.tEY (V/m) @ t=3.9
0
% es.tEZ (V/m) @ t=3.9
-1.1032350338429975
% es.Ex (V/m) @ t=3.9
1.490515897402498
% es.Ey (V/m) @ t=3.9
0.6514368319103885
% es.Ez (V/m) @ t=3.9
-1.1032350338430117
% es.tEx (V/m) @ t=3.9
1.4905158974025117
% es.tEy (V/m) @ t=3.9
0
% es.tEz (V/m) @ t=3.9
-1.1032350338429975
% V (V) @ t=3.9
0.04190583334594915
% es.normE (V/m) @ t=4
2.122415666307914
% es.EX (V/m) @ t=4
1.5484309959734737
% es.EY (V/m) @ t=4
0.6767509652483295
% es.EZ (V/m) @ t=4
-1.1461027306262794
% es.tEX (V/m) @ t=4
1.5484309959734877
% es.tEY (V/m) @ t=4
0
% es.tEZ (V/m) @ t=4
-1.146102730626251
% es.Ex (V/m) @ t=4
1.5484309959734737
% es.Ey (V/m) @ t=4
0.6767509652483295
% es.Ez (V/m) @ t=4
-1.1461027306262794
% es.tEx (V/m) @ t=4
1.5484309959734877
% es.tEy (V/m) @ t=4
0
% es.tEz (V/m) @ t=4
-1.146102730626251
% V (V) @ t=4
0.04353403774398502
% es.normE (V/m) @ t=4.1
2.203891959683504
% es.EX (V/m) @ t=4.1
1.6078715364081502
% es.EY (V/m) @ t=4.1
0.7027324175619212
% es.EZ (V/m) @ t=4.1
-1.1900997170653165
% es.tEX (V/m) @ t=4.1
1.607871536408157
% es.tEY (V/m) @ t=4.1
0
% es.tEZ (V/m) @ t=4.1
-1.1900997170653023
% es.Ex (V/m) @ t=4.1
1.6078715364081502
% es.Ey (V/m) @ t=4.1
0.7027324175619212
% es.Ez (V/m) @ t=4.1
-1.1900997170653165
% es.tEx (V/m) @ t=4.1
1.607871536408157
% es.tEy (V/m) @ t=4.1
0
% es.tEz (V/m) @ t=4.1
-1.1900997170653023
% V (V) @ t=4.1
0.04520510675934648
% es.normE (V/m) @ t=4.2
2.286547681452045
% es.EX (V/m) @ t=4.2
1.6681725238937453
% es.EY (V/m) @ t=4.2
0.7290899667674142
% es.EZ (V/m) @ t=4.2
-1.2347335922608043
% es.tEX (V/m) @ t=4.2
1.6681725238937593
% es.tEY (V/m) @ t=4.2
0
% es.tEZ (V/m) @ t=4.2
-1.2347335922607758
% es.Ex (V/m) @ t=4.2
1.6681725238937453
% es.Ey (V/m) @ t=4.2
0.7290899667674142
% es.Ez (V/m) @ t=4.2
-1.2347335922608043
% es.tEx (V/m) @ t=4.2
1.6681725238937593
% es.tEy (V/m) @ t=4.2
0
% es.tEz (V/m) @ t=4.2
-1.2347335922607758
% V (V) @ t=4.2
0.04690036606063293
% es.normE (V/m) @ t=4.3
2.369391196757233
% es.EX (V/m) @ t=4.3
1.7286108299391554
% es.EY (V/m) @ t=4.3
0.7555069322199843
% es.EZ (V/m) @ t=4.3
-1.2794689097512881
% es.tEX (V/m) @ t=4.3
1.7286108299391691
% es.tEY (V/m) @ t=4.3
0
% es.tEZ (V/m) @ t=4.3
-1.2794689097512597
% es.Ex (V/m) @ t=4.3
1.7286108299391554
% es.Ey (V/m) @ t=4.3
0.7555069322199843
% es.Ez (V/m) @ t=4.3
-1.2794689097512881
% es.tEx (V/m) @ t=4.3
1.7286108299391691
% es.tEy (V/m) @ t=4.3
0
% es.tEz (V/m) @ t=4.3
-1.2794689097512597
% V (V) @ t=4.3
0.048599508811112725
% es.normE (V/m) @ t=4.4
2.453549212924428
% es.EX (V/m) @ t=4.4
1.7900080817431827
% es.EY (V/m) @ t=4.4
0.7823431302377126
% es.EZ (V/m) @ t=4.4
-1.324914050179566
% es.tEX (V/m) @ t=4.4
1.7900080817431967
% es.tEY (V/m) @ t=4.4
0
% es.tEZ (V/m) @ t=4.4
-1.3249140501795518
% es.Ex (V/m) @ t=4.4
1.7900080817431827
% es.Ey (V/m) @ t=4.4
0.7823431302377126
% es.Ez (V/m) @ t=4.4
-1.324914050179566
% es.tEx (V/m) @ t=4.4
1.7900080817431967
% es.tEy (V/m) @ t=4.4
0
% es.tEz (V/m) @ t=4.4
-1.3249140501795518
% V (V) @ t=4.4
0.05032560788038673
% es.normE (V/m) @ t=4.5
2.539021729953668
% es.EX (V/m) @ t=4.5
1.8523642793058217
% es.EY (V/m) @ t=4.5
0.8095985608204308
% es.EZ (V/m) @ t=4.5
-1.3710690135456378
% es.tEX (V/m) @ t=4.5
1.8523642793058355
% es.tEY (V/m) @ t=4.5
0
% es.tEZ (V/m) @ t=4.5
-1.3710690135456236
% es.Ex (V/m) @ t=4.5
1.8523642793058217
% es.Ey (V/m) @ t=4.5
0.8095985608204308
% es.Ez (V/m) @ t=4.5
-1.3710690135456378
% es.tEx (V/m) @ t=4.5
1.8523642793058355
% es.tEy (V/m) @ t=4.5
0
% es.tEz (V/m) @ t=4.5
-1.3710690135456236
% V (V) @ t=4.5
0.052078663268454915
% es.normE (V/m) @ t=4.6
2.6258087478451593
% es.EX (V/m) @ t=4.6
1.9156794226271776
% es.EY (V/m) @ t=4.6
0.8372732239681802
% es.EZ (V/m) @ t=4.6
-1.4179337998494326
% es.tEX (V/m) @ t=4.6
1.9156794226271914
% es.tEY (V/m) @ t=4.6
0
% es.tEZ (V/m) @ t=4.6
-1.4179337998494184
% es.Ex (V/m) @ t=4.6
1.9156794226271776
% es.Ey (V/m) @ t=4.6
0.8372732239681802
% es.Ez (V/m) @ t=4.6
-1.4179337998494326
% es.tEx (V/m) @ t=4.6
1.9156794226271914
% es.tEy (V/m) @ t=4.6
0
% es.tEz (V/m) @ t=4.6
-1.4179337998494184
% V (V) @ t=4.6
0.053858674975317274
% es.normE (V/m) @ t=4.7
2.7139102665989414
% es.EX (V/m) @ t=4.7
1.9799535117070453
% es.EY (V/m) @ t=4.7
0.8653671196810575
% es.EZ (V/m) @ t=4.7
-1.465508409091064
% es.tEX (V/m) @ t=4.7
1.979953511707059
% es.tEY (V/m) @ t=4.7
0
% es.tEZ (V/m) @ t=4.7
-1.4655084090910355
% es.Ex (V/m) @ t=4.7
1.9799535117070453
% es.Ey (V/m) @ t=4.7
0.8653671196810575
% es.Ez (V/m) @ t=4.7
-1.465508409091064
% es.tEx (V/m) @ t=4.7
1.979953511707059
% es.tEy (V/m) @ t=4.7
0
% es.tEz (V/m) @ t=4.7
-1.4655084090910355
% V (V) @ t=4.7
0.05566564300097382
% es.normE (V/m) @ t=4.8
2.8005933715191635
% es.EX (V/m) @ t=4.8
2.0431951681384475
% es.EY (V/m) @ t=4.8
0.8930052037246865
% es.EZ (V/m) @ t=4.8
-1.5123173270569774
% es.tEX (V/m) @ t=4.8
2.0431951681384612
% es.tEY (V/m) @ t=4.8
0
% es.tEZ (V/m) @ t=4.8
-1.512317327056949
% es.Ex (V/m) @ t=4.8
2.0431951681384475
% es.Ey (V/m) @ t=4.8
0.8930052037246865
% es.Ez (V/m) @ t=4.8
-1.5123173270569774
% es.tEx (V/m) @ t=4.8
2.0431951681384612
% es.tEy (V/m) @ t=4.8
0
% es.tEz (V/m) @ t=4.8
-1.512317327056949
% V (V) @ t=4.8
0.05744375385325311
% es.normE (V/m) @ t=4.9
2.887046448602402
% es.EX (V/m) @ t=4.9
2.1062703268160607
% es.EY (V/m) @ t=4.9
0.9205679820513617
% es.EZ (V/m) @ t=4.9
-1.5590021692435663
% es.tEX (V/m) @ t=4.9
2.1062703268160745
% es.tEY (V/m) @ t=4.9
0
% es.tEZ (V/m) @ t=4.9
-1.5590021692435378
% es.Ex (V/m) @ t=4.9
2.1062703268160607
% es.Ey (V/m) @ t=4.9
0.9205679820513617
% es.Ez (V/m) @ t=4.9
-1.5590021692435663
% es.tEx (V/m) @ t=4.9
2.1062703268160745
% es.tEy (V/m) @ t=4.9
0
% es.tEz (V/m) @ t=4.9
-1.5590021692435378
% V (V) @ t=4.9
0.05921727758062816
% es.normE (V/m) @ t=5
2.973140256122404
% es.EX (V/m) @ t=5
2.169084813848441
% es.EY (V/m) @ t=5
0.9480140731131077
% es.EZ (V/m) @ t=5
-1.6054931573931777
% es.tEX (V/m) @ t=5
2.1690848138484546
% es.tEY (V/m) @ t=5
0
% es.tEZ (V/m) @ t=5
-1.6054931573931492
% es.Ex (V/m) @ t=5
2.169084813848441
% es.Ey (V/m) @ t=5
0.9480140731131077
% es.Ez (V/m) @ t=5
-1.6054931573931777
% es.tEx (V/m) @ t=5
2.1690848138484546
% es.tEy (V/m) @ t=5
0
% es.tEz (V/m) @ t=5
-1.6054931573931492
% V (V) @ t=5
0.06098357471802504
% es.normE (V/m) @ t=5.1
3.0586486557816226
% es.EX (V/m) @ t=5.1
2.2314738502276237
% es.EY (V/m) @ t=5.1
0.975271070319708
% es.EZ (V/m) @ t=5.1
-1.6516681983029118
% es.tEX (V/m) @ t=5.1
2.2314738502276374
% es.tEY (V/m) @ t=5.1
0
% es.tEZ (V/m) @ t=5.1
-1.6516681983028834
% es.Ex (V/m) @ t=5.1
2.2314738502276237
% es.Ey (V/m) @ t=5.1
0.975271070319708
% es.Ez (V/m) @ t=5.1
-1.6516681983029118
% es.tEx (V/m) @ t=5.1
2.2314738502276374
% es.tEy (V/m) @ t=5.1
0
% es.tEz (V/m) @ t=5.1
-1.6516681983028834
% V (V) @ t=5.1
0.06273802691072418
% es.normE (V/m) @ t=5.2
3.143345509295104
% es.EX (V/m) @ t=5.2
2.2932726569458626
% es.EY (V/m) @ t=5.2
1.0022665670805644
% es.EZ (V/m) @ t=5.2
-1.6974051987696832
% es.tEX (V/m) @ t=5.2
2.2932726569458763
% es.tEY (V/m) @ t=5.2
0
% es.tEZ (V/m) @ t=5.2
-1.6974051987696548
% es.Ex (V/m) @ t=5.2
2.2932726569458626
% es.Ey (V/m) @ t=5.2
1.0022665670805644
% es.Ez (V/m) @ t=5.2
-1.6974051987696832
% es.tEx (V/m) @ t=5.2
2.2932726569458763
% es.tEy (V/m) @ t=5.2
0
% es.tEz (V/m) @ t=5.2
-1.6974051987696548
% V (V) @ t=5.2
0.064476015804006
% es.normE (V/m) @ t=5.3
3.2263111003512934
% es.EX (V/m) @ t=5.3
2.3538071996316616
% es.EY (V/m) @ t=5.3
1.0287118190941023
% es.EZ (V/m) @ t=5.3
-1.7422071923617573
% es.tEX (V/m) @ t=5.3
2.3538071996316754
% es.tEY (V/m) @ t=5.3
0
% es.tEZ (V/m) @ t=5.3
-1.7422071923617288
% es.Ex (V/m) @ t=5.3
2.3538071996316616