% Model:              1x1--2 - Copy1.mph
% Version:            COMSOL 6.1.0.252
% Date:               Apr 3 2023, 14:39
% Dimension:          0
% Nodes:              14017
% Expressions:        14017
% Description:        Electric field norm, Electric field, X component, Electric field, Y component, Electric field, Z component, Tangential electric field, X component, Tangential electric field, Y component, Tangential electric field, Z component, Electric field, x component, Electric field, y component, Electric field, z component, Tangential electric field, x component, Tangential electric field, y component, Tangential electric field, z component, Electric potential
% Length unit:        mm
% x
1.3300000000000003
% y
12.200000000000001
% z
1.66
% es.normE (V/m) @ t=0
7.990113117756759
% es.EX (V/m) @ t=0
5.070521248221093
% es.EY (V/m) @ t=0
1.5162628922683403
% es.EZ (V/m) @ t=0
-5.554087989078761
% es.tEX (V/m) @ t=0
5.070521248221077
% es.tEY (V/m) @ t=0
0
% es.tEZ (V/m) @ t=0
-5.554087989078747
% es.Ex (V/m) @ t=0
5.070521248221093
% es.Ey (V/m) @ t=0
1.5162628922683403
% es.Ez (V/m) @ t=0
-5.554087989078761
% es.tEx (V/m) @ t=0
5.070521248221077
% es.tEy (V/m) @ t=0
0
% es.tEz (V/m) @ t=0
-5.554087989078747
% V (V) @ t=0
0.006844158278961291
% es.normE (V/m) @ t=0.1
8.121112377952999
% es.EX (V/m) @ t=0.1
5.1536533044078245
% es.EY (V/m) @ t=0.1
1.5411222800068398
% es.EZ (V/m) @ t=0.1
-5.645148203971981
% es.tEX (V/m) @ t=0.1
5.1536533044078165
% es.tEY (V/m) @ t=0.1
0
% es.tEZ (V/m) @ t=0.1
-5.645148203971974
% es.Ex (V/m) @ t=0.1
5.1536533044078245
% es.Ey (V/m) @ t=0.1
1.5411222800068398
% es.Ez (V/m) @ t=0.1
-5.645148203971981
% es.tEx (V/m) @ t=0.1
5.1536533044078165
% es.tEy (V/m) @ t=0.1
0
% es.tEz (V/m) @ t=0.1
-5.645148203971974
% V (V) @ t=0.1
0.0069563694144771406
% es.normE (V/m) @ t=0.2
8.50674871537096
% es.EX (V/m) @ t=0.2
5.398377942459196
% es.EY (V/m) @ t=0.2
1.6143036806245332
% es.EZ (V/m) @ t=0.2
-5.91321174147772
% es.tEX (V/m) @ t=0.2
5.398377942459186
% es.tEY (V/m) @ t=0.2
0
% es.tEZ (V/m) @ t=0.2
-5.9132117414777055
% es.Ex (V/m) @ t=0.2
5.398377942459196
% es.Ey (V/m) @ t=0.2
1.6143036806245332
% es.Ez (V/m) @ t=0.2
-5.91321174147772
% es.tEx (V/m) @ t=0.2
5.398377942459186
% es.tEy (V/m) @ t=0.2
0
% es.tEz (V/m) @ t=0.2
-5.9132117414777055
% V (V) @ t=0.2
0.0072866967415356945
% es.normE (V/m) @ t=0.3
8.905914107134397
% es.EX (V/m) @ t=0.3
5.651688203313979
% es.EY (V/m) @ t=0.3
1.6900529594700933
% es.EZ (V/m) @ t=0.3
-6.190679545837501
% es.tEX (V/m) @ t=0.3
5.651688203313967
% es.tEY (V/m) @ t=0.3
0
% es.tEZ (V/m) @ t=0.3
-6.190679545837486
% es.Ex (V/m) @ t=0.3
5.651688203313979
% es.Ey (V/m) @ t=0.3
1.6900529594700933
% es.Ez (V/m) @ t=0.3
-6.190679545837501
% es.tEx (V/m) @ t=0.3
5.651688203313967
% es.tEy (V/m) @ t=0.3
0
% es.tEz (V/m) @ t=0.3
-6.190679545837486
% V (V) @ t=0.3
0.007628611688060305
% es.normE (V/m) @ t=0.4
9.326398711001984
% es.EX (V/m) @ t=0.4
5.9185275052576225
% es.EY (V/m) @ t=0.4
1.7698472844656843
% es.EZ (V/m) @ t=0.4
-6.482966827065205
% es.tEX (V/m) @ t=0.4
5.918527505257606
% es.tEY (V/m) @ t=0.4
0
% es.tEZ (V/m) @ t=0.4
-6.482966827065197
% es.Ex (V/m) @ t=0.4
5.9185275052576225
% es.Ey (V/m) @ t=0.4
1.7698472844656843
% es.Ez (V/m) @ t=0.4
-6.482966827065205
% es.tEx (V/m) @ t=0.4
5.918527505257606
% es.tEy (V/m) @ t=0.4
0
% es.tEz (V/m) @ t=0.4
-6.482966827065197
% V (V) @ t=0.4
0.007988789587207142
% es.normE (V/m) @ t=0.5
9.766477665790344
% es.EX (V/m) @ t=0.5
6.1978013473723035
% es.EY (V/m) @ t=0.5
1.8533598504909814
% es.EZ (V/m) @ t=0.5
-6.788874547871406
% es.tEX (V/m) @ t=0.5
6.197801347372286
% es.tEY (V/m) @ t=0.5
0
% es.tEZ (V/m) @ t=0.5
-6.788874547871391
% es.Ex (V/m) @ t=0.5
6.1978013473723035
% es.Ey (V/m) @ t=0.5
1.8533598504909814
% es.Ez (V/m) @ t=0.5
-6.788874547871406
% es.tEx (V/m) @ t=0.5
6.197801347372286
% es.tEy (V/m) @ t=0.5
0
% es.tEz (V/m) @ t=0.5
-6.788874547871391
% V (V) @ t=0.5
0.008365751857650205
% es.normE (V/m) @ t=0.6
10.248615827160531
% es.EX (V/m) @ t=0.6
6.503765931459366
% es.EY (V/m) @ t=0.6
1.9448538500663446
% es.EZ (V/m) @ t=0.6
-7.124018471032659
% es.tEX (V/m) @ t=0.6
6.503765931459351
% es.tEY (V/m) @ t=0.6
0
% es.tEZ (V/m) @ t=0.6
-7.124018471032636
% es.Ex (V/m) @ t=0.6
6.503765931459366
% es.Ey (V/m) @ t=0.6
1.9448538500663446
% es.Ez (V/m) @ t=0.6
-7.124018471032659
% es.tEx (V/m) @ t=0.6
6.503765931459351
% es.tEy (V/m) @ t=0.6
0
% es.tEz (V/m) @ t=0.6
-7.124018471032636
% V (V) @ t=0.6
0.008778741207342592
% es.normE (V/m) @ t=0.7
10.730753988530708
% es.EX (V/m) @ t=0.7
6.809730515546436
% es.EY (V/m) @ t=0.7
2.03634784964175
% es.EZ (V/m) @ t=0.7
-7.459162394193873
% es.tEX (V/m) @ t=0.7
6.80973051554641
% es.tEY (V/m) @ t=0.7
0
% es.tEZ (V/m) @ t=0.7
-7.459162394193857
% es.Ex (V/m) @ t=0.7
6.809730515546436
% es.Ey (V/m) @ t=0.7
2.03634784964175
% es.Ez (V/m) @ t=0.7
-7.459162394193873
% es.tEx (V/m) @ t=0.7
6.80973051554641
% es.tEy (V/m) @ t=0.7
0
% es.tEz (V/m) @ t=0.7
-7.459162394193857
% V (V) @ t=0.7
0.009191730557034976
% es.normE (V/m) @ t=0.8
11.220162333397859
% es.EX (V/m) @ t=0.8
7.120308458012104
% es.EY (V/m) @ t=0.8
2.129219891999335
% es.EZ (V/m) @ t=0.8
-7.7993601289671
% es.tEX (V/m) @ t=0.8
7.120308458012097
% es.tEY (V/m) @ t=0.8
0
% es.tEZ (V/m) @ t=0.8
-7.799360128967086
% es.Ex (V/m) @ t=0.8
7.120308458012104
% es.Ey (V/m) @ t=0.8
2.129219891999335
% es.Ez (V/m) @ t=0.8
-7.7993601289671
% es.tEx (V/m) @ t=0.8
7.120308458012097
% es.tEy (V/m) @ t=0.8
0
% es.tEz (V/m) @ t=0.8
-7.799360128967086
% V (V) @ t=0.8
0.009610950806528797
% es.normE (V/m) @ t=0.9
11.761760694989846
% es.EX (V/m) @ t=0.9
7.4640040309983355
% es.EY (V/m) @ t=0.9
2.2319844048645994
% es.EZ (V/m) @ t=0.9
-8.175837348651495
% es.tEX (V/m) @ t=0.9
7.464004030998313
% es.tEY (V/m) @ t=0.9
0
% es.tEZ (V/m) @ t=0.9
-8.175837348651465
% es.Ex (V/m) @ t=0.9
7.4640040309983355
% es.Ey (V/m) @ t=0.9
2.2319844048645994
% es.Ez (V/m) @ t=0.9
-8.175837348651495
% es.tEx (V/m) @ t=0.9
7.464004030998313
% es.tEy (V/m) @ t=0.9
0
% es.tEz (V/m) @ t=0.9
-8.175837348651465
% V (V) @ t=0.9
0.01007490043113272
% es.normE (V/m) @ t=1
12.303359056605576
% es.EX (V/m) @ t=1
7.807699603984545
% es.EY (V/m) @ t=1
2.3347489177298923
% es.EZ (V/m) @ t=1
-8.552314568335909
% es.tEX (V/m) @ t=1
7.807699603984516
% es.tEY (V/m) @ t=1
0
% es.tEZ (V/m) @ t=1
-8.5523145683359
% es.Ex (V/m) @ t=1
7.807699603984545
% es.Ey (V/m) @ t=1
2.3347489177298923
% es.Ez (V/m) @ t=1
-8.552314568335909
% es.tEx (V/m) @ t=1
7.807699603984516
% es.tEy (V/m) @ t=1
0
% es.tEz (V/m) @ t=1
-8.5523145683359
% V (V) @ t=1
0.010538850055736645
% es.normE (V/m) @ t=1.1
12.864638239107517
% es.EX (V/m) @ t=1.1
8.163885496909835
% es.EY (V/m) @ t=1.1
2.4412529783254184
% es.EZ (V/m) @ t=1.1
-8.942471841142773
% es.tEX (V/m) @ t=1.1
8.16388549690982
% es.tEY (V/m) @ t=1.1
0
% es.tEZ (V/m) @ t=1.1
-8.942471841142742
% es.Ex (V/m) @ t=1.1
8.163885496909835
% es.Ey (V/m) @ t=1.1
2.4412529783254184
% es.Ez (V/m) @ t=1.1
-8.942471841142773
% es.tEx (V/m) @ t=1.1
8.16388549690982
% es.tEy (V/m) @ t=1.1
0
% es.tEz (V/m) @ t=1.1
-8.942471841142742
% V (V) @ t=1.1
0.01101964766114696
% es.normE (V/m) @ t=1.2
13.474159655117226
% es.EX (V/m) @ t=1.2
8.550688046279198
% es.EY (V/m) @ t=1.2
2.5569235333480753
% es.EZ (V/m) @ t=1.2
-9.36616208096971
% es.tEX (V/m) @ t=1.2
8.550688046279172
% es.tEY (V/m) @ t=1.2
0
% es.tEZ (V/m) @ t=1.2
-9.36616208096968
% es.Ex (V/m) @ t=1.2
8.550688046279198
% es.Ey (V/m) @ t=1.2
2.5569235333480753
% es.Ez (V/m) @ t=1.2
-9.36616208096971
% es.tEx (V/m) @ t=1.2
8.550688046279172
% es.tEy (V/m) @ t=1.2
0
% es.tEz (V/m) @ t=1.2
-9.36616208096968
% V (V) @ t=1.2
0.011541743555363422
% es.normE (V/m) @ t=1.3
14.083681071129895
% es.EX (V/m) @ t=1.3
8.937490595648546
% es.EY (V/m) @ t=1.3
2.672594088370789
% es.EZ (V/m) @ t=1.3
-9.789852320796648
% es.tEX (V/m) @ t=1.3
8.93749059564853
% es.tEY (V/m) @ t=1.3
0
% es.tEZ (V/m) @ t=1.3
-9.789852320796626
% es.Ex (V/m) @ t=1.3
8.937490595648546
% es.Ey (V/m) @ t=1.3
2.672594088370789
% es.Ez (V/m) @ t=1.3
-9.789852320796648
% es.tEx (V/m) @ t=1.3
8.93749059564853
% es.tEy (V/m) @ t=1.3
0
% es.tEz (V/m) @ t=1.3
-9.789852320796626
% V (V) @ t=1.3
0.01206383944957988
% es.normE (V/m) @ t=1.4
14.728703645869915
% es.EX (V/m) @ t=1.4
9.346823076491667
% es.EY (V/m) @ t=1.4
2.795006559117695
% es.EZ (V/m) @ t=1.4
-10.238219629566025
% es.tEX (V/m) @ t=1.4
9.34682307649165
% es.tEY (V/m) @ t=1.4
0
% es.tEZ (V/m) @ t=1.4
-10.238219629566004
% es.Ex (V/m) @ t=1.4
9.346823076491667
% es.Ey (V/m) @ t=1.4
2.795006559117695
% es.Ez (V/m) @ t=1.4
-10.238219629566025
% es.tEx (V/m) @ t=1.4
9.34682307649165
% es.tEy (V/m) @ t=1.4
0
% es.tEz (V/m) @ t=1.4
-10.238219629566004
% V (V) @ t=1.4
0.012616334295518377
% es.normE (V/m) @ t=1.5
15.415868423038344
% es.EX (V/m) @ t=1.5
9.782900062768263
% es.EY (V/m) @ t=1.5
2.9254221257430704
% es.EZ (V/m) @ t=1.5
-10.715880236683205
% es.tEX (V/m) @ t=1.5
9.782900062768245
% es.tEY (V/m) @ t=1.5
0
% es.tEZ (V/m) @ t=1.5
-10.71588023668319
% es.Ex (V/m) @ t=1.5
9.782900062768263
% es.Ey (V/m) @ t=1.5
2.9254221257430704
% es.Ez (V/m) @ t=1.5
-10.715880236683205
% es.tEx (V/m) @ t=1.5
9.782900062768245
% es.tEy (V/m) @ t=1.5
0
% es.tEz (V/m) @ t=1.5
-10.71588023668319
% V (V) @ t=1.5
0.013204914689717429
% es.normE (V/m) @ t=1.6
16.103033200230698
% es.EX (V/m) @ t=1.6
10.218977049044868
% es.EY (V/m) @ t=1.6
3.055837692368449
% es.EZ (V/m) @ t=1.6
-11.193540843800372
% es.tEX (V/m) @ t=1.6
10.218977049044849
% es.tEY (V/m) @ t=1.6
0
% es.tEZ (V/m) @ t=1.6
-11.193540843800351
% es.Ex (V/m) @ t=1.6
10.218977049044868
% es.Ey (V/m) @ t=1.6
3.055837692368449
% es.Ez (V/m) @ t=1.6
-11.193540843800372
% es.tEx (V/m) @ t=1.6
10.218977049044849
% es.tEy (V/m) @ t=1.6
0
% es.tEz (V/m) @ t=1.6
-11.193540843800351
% V (V) @ t=1.6
0.013793495083916484
% es.normE (V/m) @ t=1.7
16.817772528504754
% es.EX (V/m) @ t=1.7
10.672552053104576
% es.EY (V/m) @ t=1.7
3.191481811091966
% es.EZ (V/m) @ t=1.7
-11.690369497787447
% es.tEX (V/m) @ t=1.7
10.67255205310455
% es.tEY (V/m) @ t=1.7
0
% es.tEZ (V/m) @ t=1.7
-11.690369497787426
% es.Ex (V/m) @ t=1.7
10.672552053104576
% es.Ey (V/m) @ t=1.7
3.191481811091966
% es.Ez (V/m) @ t=1.7
-11.690369497787447
% es.tEx (V/m) @ t=1.7
10.67255205310455
% es.tEy (V/m) @ t=1.7
0
% es.tEz (V/m) @ t=1.7
-11.690369497787426
% V (V) @ t=1.7
0.014405704206619449
% es.normE (V/m) @ t=1.8
17.56981982044494
% es.EX (V/m) @ t=1.8
11.149801618905276
% es.EY (V/m) @ t=1.8
3.334200084213924
% es.EZ (V/m) @ t=1.8
-12.213132238406573
% es.tEX (V/m) @ t=1.8
11.149801618905258
% es.tEY (V/m) @ t=1.8
0
% es.tEZ (V/m) @ t=1.8
-12.213132238406542
% es.Ex (V/m) @ t=1.8
11.149801618905276
% es.Ey (V/m) @ t=1.8
3.334200084213924
% es.Ez (V/m) @ t=1.8
-12.213132238406573
% es.tEx (V/m) @ t=1.8
11.149801618905258
% es.tEy (V/m) @ t=1.8
0
% es.tEz (V/m) @ t=1.8
-12.213132238406542
% V (V) @ t=1.8
0.015049882652863018
% es.normE (V/m) @ t=1.9
18.347401611434172
% es.EX (V/m) @ t=1.9
11.643254644100743
% es.EY (V/m) @ t=1.9
3.4817600847054857
% es.EZ (V/m) @ t=1.9
-12.753644913503026
% es.tEX (V/m) @ t=1.9
11.643254644100704
% es.tEY (V/m) @ t=1.9
0
% es.tEZ (V/m) @ t=1.9
-12.753644913502995
% es.Ex (V/m) @ t=1.9
11.643254644100743
% es.Ey (V/m) @ t=1.9
3.4817600847054857
% es.Ez (V/m) @ t=1.9
-12.753644913503026
% es.tEx (V/m) @ t=1.9
11.643254644100704
% es.tEy (V/m) @ t=1.9
0
% es.tEz (V/m) @ t=1.9
-12.753644913502995
% V (V) @ t=1.9
0.015715941699961405
% es.normE (V/m) @ t=2
19.15051790147304
% es.EX (V/m) @ t=2
12.152911128690924
% es.EY (V/m) @ t=2
3.6341618125668003
% es.EZ (V/m) @ t=2
-13.311907523076872
% es.tEX (V/m) @ t=2
12.152911128690908
% es.tEY (V/m) @ t=2
0
% es.tEZ (V/m) @ t=2
-13.311907523076844
% es.Ex (V/m) @ t=2
12.152911128690924
% es.Ey (V/m) @ t=2
3.6341618125668003
% es.Ez (V/m) @ t=2
-13.311907523076872
% es.tEx (V/m) @ t=2
12.152911128690908
% es.tEy (V/m) @ t=2
0
% es.tEz (V/m) @ t=2
-13.311907523076844
% V (V) @ t=2
0.016403881347914626
% es.normE (V/m) @ t=2.1
19.979168690566098
% es.EX (V/m) @ t=2.1
12.678771072675914
% es.EY (V/m) @ t=2.1
3.7914052677977903
% es.EZ (V/m) @ t=2.1
-13.887920067127991
% es.tEX (V/m) @ t=2.1
12.678771072675879
% es.tEY (V/m) @ t=2.1
0
% es.tEZ (V/m) @ t=2.1
-13.887920067127961
% es.Ex (V/m) @ t=2.1
12.678771072675914
% es.Ey (V/m) @ t=2.1
3.7914052677977903
% es.Ez (V/m) @ t=2.1
-13.887920067127991
% es.tEx (V/m) @ t=2.1
12.678771072675879
% es.tEy (V/m) @ t=2.1
0
% es.tEz (V/m) @ t=2.1
-13.887920067127961
% V (V) @ t=2.1
0.01711370159672267
% es.normE (V/m) @ t=2.2
20.83335397872106
% es.EX (V/m) @ t=2.2
13.220834476055629
% es.EY (V/m) @ t=2.2
3.9534904503984194
% es.EZ (V/m) @ t=2.2
-14.481682545656483
% es.tEX (V/m) @ t=2.2
13.220834476055579
% es.tEY (V/m) @ t=2.2
0
% es.tEZ (V/m) @ t=2.2
-14.48168254565644
% es.Ex (V/m) @ t=2.2
13.220834476055629
% es.Ey (V/m) @ t=2.2
3.9534904503984194
% es.Ez (V/m) @ t=2.2
-14.481682545656483
% es.tEx (V/m) @ t=2.2
13.220834476055579
% es.tEy (V/m) @ t=2.2
0
% es.tEz (V/m) @ t=2.2
-14.48168254565644
% V (V) @ t=2.2
0.017845402446385543
% es.normE (V/m) @ t=2.3
21.74372124979865
% es.EX (V/m) @ t=2.3
13.798557912674514
% es.EY (V/m) @ t=2.3
4.126274858620999
% es.EZ (V/m) @ t=2.3
-15.114494446885818
% es.tEX (V/m) @ t=2.3
13.798557912674472
% es.tEY (V/m) @ t=2.3
0
% es.tEZ (V/m) @ t=2.3
-15.114494446885773
% es.Ex (V/m) @ t=2.3
13.798557912674514
% es.Ey (V/m) @ t=2.3
4.126274858620999
% es.Ez (V/m) @ t=2.3
-15.114494446885818
% es.tEx (V/m) @ t=2.3
13.798557912674472
% es.tEy (V/m) @ t=2.3
0
% es.tEz (V/m) @ t=2.3
-15.114494446885773
% V (V) @ t=2.3
0.018625147035993828
% es.normE (V/m) @ t=2.4
22.69035749513941
% es.EX (V/m) @ t=2.4
14.399299596770508
% es.EY (V/m) @ t=2.4
4.30595262003391
% es.EZ (V/m) @ t=2.4
-15.772516563095461
% es.tEX (V/m) @ t=2.4
14.399299596770478
% es.tEY (V/m) @ t=2.4
0
% es.tEZ (V/m) @ t=2.4
-15.772516563095417
% es.Ex (V/m) @ t=2.4
14.399299596770508
% es.Ey (V/m) @ t=2.4
4.30595262003391
% es.Ez (V/m) @ t=2.4
-15.772516563095461
% es.tEx (V/m) @ t=2.4
14.399299596770478
% es.tEy (V/m) @ t=2.4
0
% es.tEz (V/m) @ t=2.4
-15.772516563095417
% V (V) @ t=2.4
0.019435936031446298
% es.normE (V/m) @ t=2.5
23.672169445186363
% es.EX (V/m) @ t=2.5
15.02236546545635
% es.EY (V/m) @ t=2.5
4.492314783555594
% es.EZ (V/m) @ t=2.5
-16.45498909020008
% es.tEX (V/m) @ t=2.5
15.02236546545632
% es.tEY (V/m) @ t=2.5
0
% es.tEZ (V/m) @ t=2.5
-16.454989090200066
% es.Ex (V/m) @ t=2.5
15.02236546545635
% es.Ey (V/m) @ t=2.5
4.492314783555594
% es.Ez (V/m) @ t=2.5
-16.45498909020008
% es.tEx (V/m) @ t=2.5
15.02236546545632
% es.tEy (V/m) @ t=2.5
0
% es.tEz (V/m) @ t=2.5
-16.454989090200066
% V (V) @ t=2.5
0.020276836130507847
% es.normE (V/m) @ t=2.6
24.68915710001049
% es.EX (V/m) @ t=2.6
15.667755518732108
% es.EY (V/m) @ t=2.6
4.685361349186017
% es.EZ (V/m) @ t=2.6
-17.161912028199737
% es.tEX (V/m) @ t=2.6
15.667755518732063
% es.tEY (V/m) @ t=2.6
0
% es.tEZ (V/m) @ t=2.6
-17.16191202819971
% es.Ex (V/m) @ t=2.6
15.667755518732108
% es.Ey (V/m) @ t=2.6
4.685361349186017
% es.Ez (V/m) @ t=2.6
-17.161912028199737
% es.tEx (V/m) @ t=2.6
15.667755518732063
% es.tEy (V/m) @ t=2.6
0
% es.tEz (V/m) @ t=2.6
-17.16191202819971
% V (V) @ t=2.6
0.02114784733317849
% es.normE (V/m) @ t=2.7
25.74132045968708
% es.EX (V/m) @ t=2.7
16.335469756597718
% es.EY (V/m) @ t=2.7
4.885092316925269
% es.EZ (V/m) @ t=2.7
-17.893285377094315
% es.tEX (V/m) @ t=2.7
16.335469756597703
% es.tEY (V/m) @ t=2.7
0
% es.tEZ (V/m) @ t=2.7
-17.893285377094287
% es.Ex (V/m) @ t=2.7
16.335469756597718
% es.Ey (V/m) @ t=2.7
4.885092316925269
% es.Ez (V/m) @ t=2.7
-17.893285377094315
% es.tEx (V/m) @ t=2.7
16.335469756597703
% es.tEy (V/m) @ t=2.7
0
% es.tEz (V/m) @ t=2.7
-17.893285377094287
% V (V) @ t=2.7
0.022048969639458214
% es.normE (V/m) @ t=2.8
26.835032959430762
% es.EX (V/m) @ t=2.8
17.029548801936023
% es.EY (V/m) @ t=2.8
5.0926957742003856
% es.EZ (V/m) @ t=2.8
-18.653541594339114
% es.tEX (V/m) @ t=2.8
17.029548801935967
% es.tEY (V/m) @ t=2.8
0
% es.tEZ (V/m) @ t=2.8
-18.65354159433907
% es.Ex (V/m) @ t=2.8
17.029548801936023
% es.Ey (V/m) @ t=2.8
5.0926957742003856
% es.Ez (V/m) @ t=2.8
-18.653541594339114
% es.tEx (V/m) @ t=2.8
17.029548801935967
% es.tEy (V/m) @ t=2.8
0
% es.tEz (V/m) @ t=2.8
-18.65354159433907
% V (V) @ t=2.8
0.022985708050266264
% es.normE (V/m) @ t=2.9
27.983877720877793
% es.EX (V/m) @ t=2.9
17.75860406623177
% es.EY (V/m) @ t=2.9
5.3107037835209585
% es.EZ (V/m) @ t=2.9
-19.4521271727505
% es.tEX (V/m) @ t=2.9
17.75860406623172
% es.tEY (V/m) @ t=2.9
0
% es.tEZ (V/m) @ t=2.9
-19.452127172750444
% es.Ex (V/m) @ t=2.9
17.75860406623177
% es.Ey (V/m) @ t=2.9
5.3107037835209585
% es.Ez (V/m) @ t=2.9
-19.4521271727505
% es.tEx (V/m) @ t=2.9
17.75860406623172
% es.tEy (V/m) @ t=2.9
0
% es.tEz (V/m) @ t=2.9
-19.452127172750444
% V (V) @ t=2.9
0.023969794872604595
% es.normE (V/m) @ t=3
29.175157304722973
% es.EX (V/m) @ t=3
18.51458564193127
% es.EY (V/m) @ t=3
5.536749384585865
% es.EZ (V/m) @ t=3
-20.28021157461547
% es.tEX (V/m) @ t=3
18.514585641931234
% es.tEY (V/m) @ t=3
0
% es.tEZ (V/m) @ t=3
-20.28021157461543
% es.Ex (V/m) @ t=3
18.51458564193127
% es.Ey (V/m) @ t=3
5.536749384585865
% es.Ez (V/m) @ t=3
-20.28021157461547
% es.tEx (V/m) @ t=3
18.514585641931234
% es.tEy (V/m) @ t=3
0
% es.tEz (V/m) @ t=3
-20.28021157461543
% V (V) @ t=3
0.024990262800251198
% es.normE (V/m) @ t=3.1
30.408871711049013
% es.EX (V/m) @ t=3.1
19.29749352903449
% es.EY (V/m) @ t=3.1
5.770832577395062
% es.EZ (V/m) @ t=3.1
-21.137794799934046
% es.tEX (V/m) @ t=3.1
19.297493529034412
% es.tEY (V/m) @ t=3.1
0
% es.tEZ (V/m) @ t=3.1
-21.137794799934
% es.Ex (V/m) @ t=3.1
19.29749352903449
% es.Ey (V/m) @ t=3.1
5.770832577395062
% es.Ez (V/m) @ t=3.1
-21.137794799934046
% es.tEx (V/m) @ t=3.1
19.297493529034412
% es.tEy (V/m) @ t=3.1
0
% es.tEz (V/m) @ t=3.1
-21.137794799934
% V (V) @ t=3.1
0.026047111833206092
% es.normE (V/m) @ t=3.2
31.6850209399657
% es.EX (V/m) @ t=3.2
20.10732772754148
% es.EY (V/m) @ t=3.2
6.0129533619484725
% es.EZ (V/m) @ t=3.2
-22.02487684870616
% es.tEX (V/m) @ t=3.2
20.107327727541442
% es.tEY (V/m) @ t=3.2
0
% es.tEZ (V/m) @ t=3.2
-22.024876848706118
% es.Ex (V/m) @ t=3.2
20.10732772754148
% es.Ey (V/m) @ t=3.2
6.0129533619484725
% es.Ez (V/m) @ t=3.2
-22.02487684870616
% es.tEx (V/m) @ t=3.2
20.107327727541442
% es.tEy (V/m) @ t=3.2
0
% es.tEz (V/m) @ t=3.2
-22.024876848706118
% V (V) @ t=3.2
0.027140341971469275
% es.normE (V/m) @ t=3.3
33.003604991603495
% es.EX (V/m) @ t=3.3
20.94408823745226
% es.EY (V/m) @ t=3.3
6.263111738246202
% es.EZ (V/m) @ t=3.3
-22.941457720931908
% es.tEX (V/m) @ t=3.3
20.944088237452206
% es.tEY (V/m) @ t=3.3
0
% es.tEZ (V/m) @ t=3.3
-22.94145772093186
% es.Ex (V/m) @ t=3.3
20.94408823745226
% es.Ey (V/m) @ t=3.3
6.263111738246202
% es.Ez (V/m) @ t=3.3
-22.941457720931908
% es.tEx (V/m) @ t=3.3
20.944088237452206
% es.tEy (V/m) @ t=3.3
0
% es.tEz (V/m) @ t=3.3
-22.94145772093186
% V (V) @ t=3.3
0.028269953215040746
% es.normE (V/m) @ t=3.4
34.368393242409994
% es.EX (V/m) @ t=3.4
21.810173579177413
% es.EY (V/m) @ t=3.4
6.522058034216503
% es.EZ (V/m) @ t=3.4
-23.890154058542162
% es.tEX (V/m) @ t=3.4
21.81017357917736
% es.tEY (V/m) @ t=3.4
0
% es.tEZ (V/m) @ t=3.4
-23.890154058542134
% es.Ex (V/m) @ t=3.4
21.810173579177413
% es.Ey (V/m) @ t=3.4
6.522058034216503
% es.Ez (V/m) @ t=3.4
-23.890154058542162
% es.tEx (V/m) @ t=3.4
21.81017357917736
% es.tEy (V/m) @ t=3.4
0
% es.tEz (V/m) @ t=3.4
-23.890154058542134
% V (V) @ t=3.4
0.02943909955708486
% es.normE (V/m) @ t=3.5
35.77938373551527
% es.EX (V/m) @ t=3.5
22.705582507634908
% es.EY (V/m) @ t=3.5
6.7897918603608325
% es.EZ (V/m) @ t=3.5
-24.870964503227217
% es.tEX (V/m) @ t=3.5
22.705582507634844
% es.tEY (V/m) @ t=3.5
0
% es.tEZ (V/m) @ t=3.5
-24.870964503227174
% es.Ex (V/m) @ t=3.5
22.705582507634908
% es.Ey (V/m) @ t=3.5
6.7897918603608325
% es.Ez (V/m) @ t=3.5
-24.870964503227217
% es.tEx (V/m) @ t=3.5
22.705582507634844
% es.tEy (V/m) @ t=3.5
0
% es.tEz (V/m) @ t=3.5
-24.870964503227174
% V (V) @ t=3.5
0.030647779360350427
% es.normE (V/m) @ t=3.6
37.23471126157236
% es.EX (V/m) @ t=3.6
23.62912815736822
% es.EY (V/m) @ t=3.6
7.065941930158065
% es.EZ (V/m) @ t=3.6
-25.882594255948938
% es.tEX (V/m) @ t=3.6
23.6291281573682
% es.tEY (V/m) @ t=3.6
0
% es.tEZ (V/m) @ t=3.6
-25.88259425594885
% es.Ex (V/m) @ t=3.6
23.62912815736822
% es.Ey (V/m) @ t=3.6
7.065941930158065
% es.Ez (V/m) @ t=3.6
-25.882594255948938
% es.tEx (V/m) @ t=3.6
23.6291281573682
% es.tEy (V/m) @ t=3.6
0
% es.tEz (V/m) @ t=3.6
-25.88259425594885
% V (V) @ t=3.6
0.03189443192703377
% es.normE (V/m) @ t=3.7
38.7343758205691
% es.EX (V/m) @ t=3.7
24.580810528377345
% es.EY (V/m) @ t=3.7
7.35050824360825
% es.EZ (V/m) @ t=3.7
-26.925043316707665
% es.tEX (V/m) @ t=3.7
24.58081052837727
% es.tEY (V/m) @ t=3.7
0
% es.tEZ (V/m) @ t=3.7
-26.925043316707608
% es.Ex (V/m) @ t=3.7
24.580810528377345
% es.Ey (V/m) @ t=3.7
7.35050824360825
% es.Ez (V/m) @ t=3.7
-26.925043316707665
% es.tEx (V/m) @ t=3.7
24.58081052837727
% es.tEy (V/m) @ t=3.7
0
% es.tEz (V/m) @ t=3.7
-26.925043316707608
% V (V) @ t=3.7
0.03317905725713491
% es.normE (V/m) @ t=3.8
40.27837741249532
% es.EX (V/m) @ t=3.8
25.560629620662148
% es.EY (V/m) @ t=3.8
7.643490800711582
% es.EZ (V/m) @ t=3.8
-27.99831168550306
% es.tEX (V/m) @ t=3.8
25.56062962066209
% es.tEY (V/m) @ t=3.8
0
% es.tEZ (V/m) @ t=3.8
-27.998311685503005
% es.Ex (V/m) @ t=3.8
25.560629620662148
% es.Ey (V/m) @ t=3.8
7.643490800711582
% es.Ez (V/m) @ t=3.8
-27.99831168550306
% es.tEx (V/m) @ t=3.8
25.56062962066209
% es.tEy (V/m) @ t=3.8
0
% es.tEz (V/m) @ t=3.8
-27.998311685503005
% V (V) @ t=3.8
0.034501655350653825
% es.normE (V/m) @ t=3.9
41.86671603734345
% es.EX (V/m) @ t=3.9
26.568585434222793
% es.EY (V/m) @ t=3.9
7.944889601467683
% es.EZ (V/m) @ t=3.9
-29.102399362335298
% es.tEX (V/m) @ t=3.9
26.56858543422276
% es.tEY (V/m) @ t=3.9
0
% es.tEZ (V/m) @ t=3.9
-29.102399362335237
% es.Ex (V/m) @ t=3.9
26.568585434222793
% es.Ey (V/m) @ t=3.9
7.944889601467683
% es.Ez (V/m) @ t=3.9
-29.102399362335298
% es.tEx (V/m) @ t=3.9
26.56858543422276
% es.tEy (V/m) @ t=3.9
0
% es.tEz (V/m) @ t=3.9
-29.102399362335237
% V (V) @ t=3.9
0.035862226207590525
% es.normE (V/m) @ t=4
43.481276631705946
% es.EX (V/m) @ t=4
27.593191705038876
% es.EY (V/m) @ t=4
8.251318552573204
% es.EZ (V/m) @ t=4
-30.22470900377899
% es.tEX (V/m) @ t=4
27.593191705038816
% es.tEY (V/m) @ t=4
0
% es.tEZ (V/m) @ t=4
-30.2247090037789
% es.Ex (V/m) @ t=4
27.593191705038876
% es.Ey (V/m) @ t=4
8.251318552573204
% es.Ez (V/m) @ t=4
-30.22470900377899
% es.tEx (V/m) @ t=4
27.593191705038816
% es.tEy (V/m) @ t=4
0
% es.tEz (V/m) @ t=4
-30.2247090037789
% V (V) @ t=4
0.03724514277381756
% es.normE (V/m) @ t=4.1
45.130490034917656
% es.EX (V/m) @ t=4.1
28.639794196614236
% es.EY (V/m) @ t=4.1
8.564353558426966
% es.EZ (V/m) @ t=4.1
-31.37110347513208
% es.tEX (V/m) @ t=4.1
28.639794196614204
% es.tEY (V/m) @ t=4.1
0
% es.tEZ (V/m) @ t=4.1
-31.371103475131992
% es.Ex (V/m) @ t=4.1
28.639794196614236
% es.Ey (V/m) @ t=4.1
8.564353558426966
% es.Ez (V/m) @ t=4.1
-31.37110347513208
% es.tEx (V/m) @ t=4.1
28.639794196614204
% es.tEy (V/m) @ t=4.1
0
% es.tEz (V/m) @ t=4.1
-31.371103475131992
% V (V) @ t=4.1
0.038657677956824975
% es.normE (V/m) @ t=4.2
46.81349283367415
% es.EX (V/m) @ t=4.2
29.707845442141874
% es.EY (V/m) @ t=4.2
8.883833228547406
% es.EZ (V/m) @ t=4.2
-32.5409823524996
% es.tEX (V/m) @ t=4.2
29.707845442141817
% es.tEY (V/m) @ t=4.2
0
% es.tEZ (V/m) @ t=4.2
-32.54098235249951
% es.Ex (V/m) @ t=4.2
29.707845442141874
% es.Ey (V/m) @ t=4.2
8.883833228547406
% es.Ez (V/m) @ t=4.2
-32.5409823524996
% es.tEx (V/m) @ t=4.2
29.707845442141817
% es.tEy (V/m) @ t=4.2
0
% es.tEz (V/m) @ t=4.2
-32.54098235249951
% V (V) @ t=4.2
0.04009908692840666
% es.normE (V/m) @ t=4.3
48.52890256694043
% es.EX (V/m) @ t=4.3
30.796468860825744
% es.EY (V/m) @ t=4.3
9.209499151290675
% es.EZ (V/m) @ t=4.3
-33.73338426242647
% es.tEX (V/m) @ t=4.3
30.7964688608256
% es.tEY (V/m) @ t=4.3
0
% es.tEZ (V/m) @ t=4.3
-33.733384262426384
% es.Ex (V/m) @ t=4.3
30.796468860825744
% es.Ey (V/m) @ t=4.3
9.209499151290675
% es.Ez (V/m) @ t=4.3
-33.73338426242647
% es.tEx (V/m) @ t=4.3
30.7964688608256
% es.tEy (V/m) @ t=4.3
0
% es.tEz (V/m) @ t=4.3
-33.733384262426384
% V (V) @ t=4.3
0.04156817710100573
% es.normE (V/m) @ t=4.4
50.275336773837125
% es.EX (V/m) @ t=4.4
31.90478787187005
% es.EY (V/m) @ t=4.4
9.54109291501332
% es.EZ (V/m) @ t=4.4
-34.94734783145792
% es.tEX (V/m) @ t=4.4
31.904787871869964
% es.tEY (V/m) @ t=4.4
0
% es.tEZ (V/m) @ t=4.4
-34.947347831457826
% es.Ex (V/m) @ t=4.4
31.90478787187005
% es.Ey (V/m) @ t=4.4
9.54109291501332
% es.Ez (V/m) @ t=4.4
-34.94734783145792
% es.tEx (V/m) @ t=4.4
31.904787871869964
% es.tEy (V/m) @ t=4.4
0
% es.tEz (V/m) @ t=4.4
-34.947347831457826
% V (V) @ t=4.4
0.04306375588706524
% es.normE (V/m) @ t=4.5
52.04178073941369
% es.EX (V/m) @ t=4.5
33.02579790697773
% es.EY (V/m) @ t=4.5
9.876445190571399
% es.EZ (V/m) @ t=4.5
-36.175224483730545
% es.tEX (V/m) @ t=4.5
33.02579790697773
% es.tEY (V/m) @ t=4.5
0
% es.tEZ (V/m) @ t=4.5
-36.17522448373046
% es.Ex (V/m) @ t=4.5
33.02579790697773
% es.Ey (V/m) @ t=4.5
9.876445190571399
% es.Ez (V/m) @ t=4.5
-36.175224483730545
% es.tEx (V/m) @ t=4.5
33.02579790697773
% es.tEy (V/m) @ t=4.5
0
% es.tEz (V/m) @ t=4.5
-36.17522448373046
% V (V) @ t=4.5
0.04457655720304529
% es.normE (V/m) @ t=4.6
53.80275704380411
% es.EX (V/m) @ t=4.6
34.14329330449435
% es.EY (V/m) @ t=4.6
10.210517431102547
% es.EZ (V/m) @ t=4.6
-37.39932489613011
% es.tEX (V/m) @ t=4.6
34.1432933044943
% es.tEY (V/m) @ t=4.6
0
% es.tEZ (V/m) @ t=4.6
-37.399324896130025
% es.Ex (V/m) @ t=4.6
34.14329330449435
% es.Ey (V/m) @ t=4.6
10.210517431102547
% es.Ez (V/m) @ t=4.6
-37.39932489613011
% es.tEx (V/m) @ t=4.6
34.1432933044943
% es.tEy (V/m) @ t=4.6
0
% es.tEz (V/m) @ t=4.6
-37.399324896130025
% V (V) @ t=4.6
0.04608519271642071
% es.normE (V/m) @ t=4.7
55.57123813131817
% es.EX (V/m) @ t=4.7
35.26552999552841
% es.EY (V/m) @ t=4.7
10.545899056623508
% es.EZ (V/m) @ t=4.7
-38.62865360253874
% es.tEX (V/m) @ t=4.7
35.26552999552841
% es.tEY (V/m) @ t=4.7
0
% es.tEZ (V/m) @ t=4.7
-38.628653602538655
% es.Ex (V/m) @ t=4.7
35.26552999552841
% es.Ey (V/m) @ t=4.7
10.545899056623508
% es.Ez (V/m) @ t=4.7
-38.62865360253874
% es.tEx (V/m) @ t=4.7
35.26552999552841
% es.tEy (V/m) @ t=4.7
0
% es.tEz (V/m) @ t=4.7
-38.628653602538655
% V (V) @ t=4.7
0.04760050173398277
% es.normE (V/m) @ t=4.8
57.343059992855515
% es.EX (V/m) @ t=4.8
36.38986179195389
% es.EY (V/m) @ t=4.8
10.88177983099441
% es.EZ (V/m) @ t=4.8
-39.86031813509287
% es.tEX (V/m) @ t=4.8
36.38986179195385
% es.tEY (V/m) @ t=4.8
0
% es.tEZ (V/m) @ t=4.8
-39.860318135092754
% es.Ex (V/m) @ t=4.8
36.38986179195389
% es.Ey (V/m) @ t=4.8
10.88177983099441
% es.Ez (V/m) @ t=4.8
-39.86031813509287
% es.tEx (V/m) @ t=4.8
36.38986179195385
% es.tEy (V/m) @ t=4.8
0
% es.tEz (V/m) @ t=4.8
-39.860318135092754
% V (V) @ t=4.8
0.04911896024735
% es.normE (V/m) @ t=4.9
59.114058621358
% es.EX (V/m) @ t=4.9
37.5136425056444
% es.EY (V/m) @ t=4.9
11.217349518075446
% es.EZ (V/m) @ t=4.9
-41.09142602592857
% es.tEX (V/m) @ t=4.9
37.513642505644334
% es.tEY (V/m) @ t=4.9
0
% es.tEZ (V/m) @ t=4.9
-41.09142602592848
% es.Ex (V/m) @ t=4.9
37.5136425056444
% es.Ey (V/m) @ t=4.9
11.217349518075446
% es.Ez (V/m) @ t=4.9
-41.09142602592857
% es.tEx (V/m) @ t=4.9
37.513642505644334
% es.tEy (V/m) @ t=4.9
0
% es.tEz (V/m) @ t=4.9
-41.09142602592848
% V (V) @ t=4.9
0.0506370442481409
% es.normE (V/m) @ t=5
60.88007001236109
% es.EX (V/m) @ t=5
38.634225948473855
% es.EY (V/m) @ t=5
11.551797881726872
% es.EZ (V/m) @ t=5
-42.319084807182065
% es.tEX (V/m) @ t=5
38.634225948473755
% es.tEY (V/m) @ t=5
0
% es.tEZ (V/m) @ t=5
-42.31908480718195
% es.Ex (V/m) @ t=5
38.634225948473855
% es.Ey (V/m) @ t=5
11.551797881726872
% es.Ez (V/m) @ t=5
-42.319084807182065
% es.tEx (V/m) @ t=5
38.634225948473755
% es.tEy (V/m) @ t=5
0
% es.tEz (V/m) @ t=5
-42.31908480718195
% V (V) @ t=5
0.052151229727974
% es.normE (V/m) @ t=5.1
62.61636598884084
% es.EX (V/m) @ t=5.1
39.73601019641454
% es.EY (V/m) @ t=5.1
11.880921691457615
% es.EZ (V/m) @ t=5.1
-43.52605611546512
% es.tEX (V/m) @ t=5.1
39.73601019641447
% es.tEY (V/m) @ t=5.1
0
% es.tEZ (V/m) @ t=5.1
-43.52605611546506
% es.Ex (V/m) @ t=5.1
39.73601019641454
% es.Ey (V/m) @ t=5.1
11.880921691457615
% es.Ez (V/m) @ t=5.1
-43.52605611546512
% es.tEx (V/m) @ t=5.1
39.73601019641447
% es.tEy (V/m) @ t=5.1
0
% es.tEz (V/m) @ t=5.1
-43.52605611546506
% V (V) @ t=5.1
0.05363929019714074
% es.normE (V/m) @ t=5.2
64.31396111910975
% es.EX (V/m) @ t=5.2
40.81331149973711
% es.EY (V/m) @ t=5.2
12.203115200210018
% es.EZ (V/m) @ t=5.2
-44.7060839888034
% es.tEX (V/m) @ t=5.2
40.81331149973704
% es.tEY (V/m) @ t=5.2
0
% es.tEZ (V/m) @ t=5.2
-44.706083988803314
% es.Ex (V/m) @ t=5.2
40.81331149973711
% es.Ey (V/m) @ t=5.2
12.203115200210018
% es.Ez (V/m) @ t=5.2
-44.7060839888034
% es.tEx (V/m) @ t=5.2
40.81331149973704
% es.tEy (V/m) @ t=5.2
0
% es.tEz (V/m) @ t=5.2
-44.706083988803314
% V (V) @ t=5.2
0.055093316721571514
% es.normE (V/m) @ t=5.3
65.9752439128678
% es.EX (V/m) @ t=5.3
41.86761185584257
% es.EY (V/m) @ t=5.3
12.518649307665632
% es.EZ (V/m) @ t=5.3
-45.86084710208605
% es.tEX (V/m) @ t=5.3
41.86761185584246
% es.tEY (V/m) @ t=5.3
0
% es.tEZ (V/m) @ t=5.3
-45.860847102085934
% es.Ex (V/m) @ t=5.3
41.86761185584257
% es.Ey (V/m) @ t=5.3
12.518649307665632
% es.Ez (V/m) @ t=5.3
-45.86084710208605
% es.tEx (V/m) @ t=5.3
41.86761185584246
% es.tEy (V/m) @ t=5.3
0
% es.tEz (V/m) @ t=5.3
-45.860847102085934
% V (V) @ t=5.3
0.056515744607996354
% es.normE (V/m) @ t=5.4
67.593470330237
% es.EX (V/m) @ t=5.4
42.894639615313466
% es.EY (V/m) @ t=5.4
12.826288083534497
% es.EZ (V/m) @ t=5.4