% Model:              1x1--2 - Copy1.mph
% Version:            COMSOL 6.1.0.252
% Date:               Apr 3 2023, 14:34
% Dimension:          0
% Nodes:              14017
% Expressions:        14017
% Description:        Electric field norm, Electric field, X component, Electric field, Y component, Electric field, Z component, Tangential electric field, X component, Tangential electric field, Y component, Tangential electric field, Z component, Electric field, x component, Electric field, y component, Electric field, z component, Tangential electric field, x component, Tangential electric field, y component, Tangential electric field, z component, Electric potential
% Length unit:        mm
% x
1.3300000000000003
% y
12.200000000000001
% z
1.66
% es.normE (V/m) @ t=0
9.041829195115081
% es.EX (V/m) @ t=0
5.7379397902203095
% es.EY (V/m) @ t=0
1.7158442965395322
% es.EZ (V/m) @ t=0
-6.285156858324902
% es.tEX (V/m) @ t=0
5.737939790220299
% es.tEY (V/m) @ t=0
0
% es.tEZ (V/m) @ t=0
-6.285156858324887
% es.Ex (V/m) @ t=0
5.7379397902203095
% es.Ey (V/m) @ t=0
1.7158442965395322
% es.Ez (V/m) @ t=0
-6.285156858324902
% es.tEx (V/m) @ t=0
5.737939790220299
% es.tEy (V/m) @ t=0
0
% es.tEz (V/m) @ t=0
-6.285156858324887
% V (V) @ t=0
0.007745035470358255
% es.normE (V/m) @ t=0.1
9.190033082473402
% es.EX (V/m) @ t=0.1
5.831989805370414
% es.EY (V/m) @ t=0.1
1.7439685481824787
% es.EZ (V/m) @ t=0.1
-6.3881764381152735
% es.tEX (V/m) @ t=0.1
5.831989805370404
% es.tEY (V/m) @ t=0.1
0
% es.tEZ (V/m) @ t=0.1
-6.388176438115259
% es.Ex (V/m) @ t=0.1
5.831989805370414
% es.Ey (V/m) @ t=0.1
1.7439685481824787
% es.Ez (V/m) @ t=0.1
-6.3881764381152735
% es.tEx (V/m) @ t=0.1
5.831989805370404
% es.tEy (V/m) @ t=0.1
0
% es.tEz (V/m) @ t=0.1
-6.388176438115259
% V (V) @ t=0.1
0.007871984078195728
% es.normE (V/m) @ t=0.2
9.62642624491047
% es.EX (V/m) @ t=0.2
6.108924482697149
% es.EY (V/m) @ t=0.2
1.8267817121342187
% es.EZ (V/m) @ t=0.2
-6.691522251081688
% es.tEX (V/m) @ t=0.2
6.108924482697137
% es.tEY (V/m) @ t=0.2
0
% es.tEZ (V/m) @ t=0.2
-6.691522251081673
% es.Ex (V/m) @ t=0.2
6.108924482697149
% es.Ey (V/m) @ t=0.2
1.8267817121342187
% es.Ez (V/m) @ t=0.2
-6.691522251081688
% es.tEx (V/m) @ t=0.2
6.108924482697137
% es.tEy (V/m) @ t=0.2
0
% es.tEz (V/m) @ t=0.2
-6.691522251081673
% V (V) @ t=0.2
0.008245789761519642
% es.normE (V/m) @ t=0.3
10.07679939469389
% es.EX (V/m) @ t=0.3
6.394730956041375
% es.EY (V/m) @ t=0.3
1.9122478363336501
% es.EZ (V/m) @ t=0.3
-7.004585735554375
% es.tEX (V/m) @ t=0.3
6.394730956041363
% es.tEY (V/m) @ t=0.3
0
% es.tEZ (V/m) @ t=0.3
-7.004585735554368
% es.Ex (V/m) @ t=0.3
6.394730956041375
% es.Ey (V/m) @ t=0.3
1.9122478363336501
% es.Ez (V/m) @ t=0.3
-7.004585735554375
% es.tEx (V/m) @ t=0.3
6.394730956041363
% es.tEy (V/m) @ t=0.3
0
% es.tEz (V/m) @ t=0.3
-7.004585735554368
% V (V) @ t=0.3
0.008631569981846124
% es.normE (V/m) @ t=0.4
10.552622574035365
% es.EX (V/m) @ t=0.4
6.696688058014205
% es.EY (V/m) @ t=0.4
2.00254355416617
% es.EZ (V/m) @ t=0.4
-7.335339995145578
% es.tEX (V/m) @ t=0.4
6.696688058014186
% es.tEY (V/m) @ t=0.4
0
% es.tEZ (V/m) @ t=0.4
-7.335339995145556
% es.Ex (V/m) @ t=0.4
6.696688058014205
% es.Ey (V/m) @ t=0.4
2.00254355416617
% es.Ez (V/m) @ t=0.4
-7.335339995145578
% es.tEx (V/m) @ t=0.4
6.696688058014186
% es.tEy (V/m) @ t=0.4
0
% es.tEz (V/m) @ t=0.4
-7.335339995145556
% V (V) @ t=0.4
0.009039149928789871
% es.normE (V/m) @ t=0.5
11.054793724134065
% es.EX (V/m) @ t=0.5
7.01536918436725
% es.EY (V/m) @ t=0.5
2.0978397906783055
% es.EZ (V/m) @ t=0.5
-7.6844058423963135
% es.tEX (V/m) @ t=0.5
7.015369184367235
% es.tEY (V/m) @ t=0.5
0
% es.tEZ (V/m) @ t=0.5
-7.684405842396298
% es.Ex (V/m) @ t=0.5
7.01536918436725
% es.Ey (V/m) @ t=0.5
2.0978397906783055
% es.Ez (V/m) @ t=0.5
-7.6844058423963135
% es.tEx (V/m) @ t=0.5
7.015369184367235
% es.tEy (V/m) @ t=0.5
0
% es.tEz (V/m) @ t=0.5
-7.684405842396298
% V (V) @ t=0.5
0.0094692843499872
% es.normE (V/m) @ t=0.6
11.596212390839597
% es.EX (V/m) @ t=0.6
7.358962636871388
% es.EY (V/m) @ t=0.6
2.200584791674297
% es.EZ (V/m) @ t=0.6
-8.060747878932771
% es.tEX (V/m) @ t=0.6
7.3589626368713805
% es.tEY (V/m) @ t=0.6
0
% es.tEZ (V/m) @ t=0.6
-8.06074787893275
% es.Ex (V/m) @ t=0.6
7.358962636871388
% es.Ey (V/m) @ t=0.6
2.200584791674297
% es.Ez (V/m) @ t=0.6
-8.060747878932771
% es.tEx (V/m) @ t=0.6
7.3589626368713805
% es.tEy (V/m) @ t=0.6
0
% es.tEz (V/m) @ t=0.6
-8.06074787893275
% V (V) @ t=0.6
0.009933013588608628
% es.normE (V/m) @ t=0.7
12.13763105755821
% es.EX (V/m) @ t=0.7
7.702556089375535
% es.EY (V/m) @ t=0.7
2.3033297926703233
% es.EZ (V/m) @ t=0.7
-8.437089915469272
% es.tEX (V/m) @ t=0.7
7.70255608937552
% es.tEY (V/m) @ t=0.7
0
% es.tEZ (V/m) @ t=0.7
-8.437089915469251
% es.Ex (V/m) @ t=0.7
7.702556089375535
% es.Ey (V/m) @ t=0.7
2.3033297926703233
% es.Ez (V/m) @ t=0.7
-8.437089915469272
% es.tEx (V/m) @ t=0.7
7.70255608937552
% es.tEy (V/m) @ t=0.7
0
% es.tEz (V/m) @ t=0.7
-8.437089915469251
% V (V) @ t=0.7
0.010396742827230061
% es.normE (V/m) @ t=0.8
12.698729598242783
% es.EX (V/m) @ t=0.8
8.058630608305736
% es.EY (V/m) @ t=0.8
2.409808235903001
% es.EZ (V/m) @ t=0.8
-8.82711916343268
% es.tEX (V/m) @ t=0.8
8.058630608305712
% es.tEY (V/m) @ t=0.8
0
% es.tEZ (V/m) @ t=0.8
-8.82711916343266
% es.Ex (V/m) @ t=0.8
8.058630608305736
% es.Ey (V/m) @ t=0.8
2.409808235903001
% es.Ez (V/m) @ t=0.8
-8.82711916343268
% es.tEx (V/m) @ t=0.8
8.058630608305712
% es.tEy (V/m) @ t=0.8
0
% es.tEz (V/m) @ t=0.8
-8.82711916343266
% V (V) @ t=0.8
0.010877360883911284
% es.normE (V/m) @ t=0.9
13.305236351258273
% es.EX (V/m) @ t=0.9
8.443503223976517
% es.EY (V/m) @ t=0.9
2.524901009597385
% es.EZ (V/m) @ t=0.9
-9.248729497925517
% es.tEX (V/m) @ t=0.9
8.443503223976492
% es.tEY (V/m) @ t=0.9
0
% es.tEZ (V/m) @ t=0.9
-9.248729497925495
% es.Ex (V/m) @ t=0.9
8.443503223976517
% es.Ey (V/m) @ t=0.9
2.524901009597385
% es.Ez (V/m) @ t=0.9
-9.248729497925517
% es.tEx (V/m) @ t=0.9
8.443503223976492
% es.tEy (V/m) @ t=0.9
0
% es.tEz (V/m) @ t=0.9
-9.248729497925495
% V (V) @ t=0.9
0.011396947230618088
% es.normE (V/m) @ t=1
13.911743104313468
% es.EX (V/m) @ t=1
8.828375839647308
% es.EY (V/m) @ t=1
2.6399937832917164
% es.EZ (V/m) @ t=1
-9.670339832418353
% es.tEX (V/m) @ t=1
8.828375839647276
% es.tEY (V/m) @ t=1
0
% es.tEZ (V/m) @ t=1
-9.670339832418325
% es.Ex (V/m) @ t=1
8.828375839647308
% es.Ey (V/m) @ t=1
2.6399937832917164
% es.Ez (V/m) @ t=1
-9.670339832418353
% es.tEx (V/m) @ t=1
8.828375839647276
% es.tEy (V/m) @ t=1
0
% es.tEz (V/m) @ t=1
-9.670339832418325
% V (V) @ t=1
0.011916533577324896
% es.normE (V/m) @ t=1.1
14.557586281434952
% es.EX (V/m) @ t=1.1
9.238233664126156
% es.EY (V/m) @ t=1.1
2.7625546674175774
% es.EZ (V/m) @ t=1.1
-10.11927261946511
% es.tEX (V/m) @ t=1.1
9.238233664126142
% es.tEY (V/m) @ t=1.1
0
% es.tEZ (V/m) @ t=1.1
-10.119272619465097
% es.Ex (V/m) @ t=1.1
9.238233664126156
% es.Ey (V/m) @ t=1.1
2.7625546674175774
% es.Ez (V/m) @ t=1.1
-10.11927261946511
% es.tEx (V/m) @ t=1.1
9.238233664126142
% es.tEy (V/m) @ t=1.1
0
% es.tEz (V/m) @ t=1.1
-10.119272619465097
% V (V) @ t=1.1
0.012469724208807587
% es.normE (V/m) @ t=1.2
15.23806462523758
% es.EX (V/m) @ t=1.2
9.67009061259997
% es.EY (V/m) @ t=1.2
2.891691117457282
% es.EZ (V/m) @ t=1.2
-10.592262440663298
% es.tEX (V/m) @ t=1.2
9.670090612599951
% es.tEY (V/m) @ t=1.2
0
% es.tEZ (V/m) @ t=1.2
-10.59226244066327
% es.Ex (V/m) @ t=1.2
9.67009061259997
% es.Ey (V/m) @ t=1.2
2.891691117457282
% es.Ez (V/m) @ t=1.2
-10.592262440663298
% es.tEx (V/m) @ t=1.2
9.670090612599951
% es.tEy (V/m) @ t=1.2
0
% es.tEz (V/m) @ t=1.2
-10.59226244066327
% V (V) @ t=1.2
0.013052502939122017
% es.normE (V/m) @ t=1.3
15.918542969117373
% es.EX (V/m) @ t=1.3
10.101947561073779
% es.EY (V/m) @ t=1.3
3.0208275674969824
% es.EZ (V/m) @ t=1.3
-11.065252261861543
% es.tEX (V/m) @ t=1.3
10.101947561073747
% es.tEY (V/m) @ t=1.3
0
% es.tEZ (V/m) @ t=1.3
-11.06525226186152
% es.Ex (V/m) @ t=1.3
10.101947561073779
% es.Ey (V/m) @ t=1.3
3.0208275674969824
% es.Ez (V/m) @ t=1.3
-11.065252261861543
% es.tEx (V/m) @ t=1.3
10.101947561073747
% es.tEy (V/m) @ t=1.3
0
% es.tEz (V/m) @ t=1.3
-11.06525226186152
% V (V) @ t=1.3
0.013635281669436448
% es.normE (V/m) @ t=1.4
16.66341203249217
% es.EX (V/m) @ t=1.4
10.57462500420199
% es.EY (V/m) @ t=1.4
3.1621770386633927
% es.EZ (V/m) @ t=1.4
-11.583040845636237
% es.tEX (V/m) @ t=1.4
10.57462500420197
% es.tEY (V/m) @ t=1.4
0
% es.tEZ (V/m) @ t=1.4
-11.583040845636207
% es.Ex (V/m) @ t=1.4
10.57462500420199
% es.Ey (V/m) @ t=1.4
3.1621770386633927
% es.Ez (V/m) @ t=1.4
-11.583040845636237
% es.tEx (V/m) @ t=1.4
10.57462500420197
% es.tEy (V/m) @ t=1.4
0
% es.tEz (V/m) @ t=1.4
-11.583040845636207
% V (V) @ t=1.4
0.01427338534240843
% es.normE (V/m) @ t=1.5
17.428481735870662
% es.EX (V/m) @ t=1.5
11.06010864239133
% es.EY (V/m) @ t=1.5
3.3073579756696807
% es.EZ (V/m) @ t=1.5
-12.114883685659152
% es.tEX (V/m) @ t=1.5
11.060108642391306
% es.tEY (V/m) @ t=1.5
0
% es.tEZ (V/m) @ t=1.5
-12.114883685659137
% es.Ex (V/m) @ t=1.5
11.06010864239133
% es.Ey (V/m) @ t=1.5
3.3073579756696807
% es.Ez (V/m) @ t=1.5
-12.114883685659152
% es.tEx (V/m) @ t=1.5
11.060108642391306
% es.tEy (V/m) @ t=1.5
0
% es.tEz (V/m) @ t=1.5
-12.114883685659137
% V (V) @ t=1.5
0.014928845542130465
% es.normE (V/m) @ t=1.6
18.19355143934411
% es.EX (V/m) @ t=1.6
11.545592280580705
% es.EY (V/m) @ t=1.6
3.4525389126759345
% es.EZ (V/m) @ t=1.6
-12.646726525682116
% es.tEX (V/m) @ t=1.6
11.54559228058067
% es.tEY (V/m) @ t=1.6
0
% es.tEZ (V/m) @ t=1.6
-12.646726525682086
% es.Ex (V/m) @ t=1.6
11.545592280580705
% es.Ey (V/m) @ t=1.6
3.4525389126759345
% es.Ez (V/m) @ t=1.6
-12.646726525682116
% es.tEx (V/m) @ t=1.6
11.54559228058067
% es.tEy (V/m) @ t=1.6
0
% es.tEz (V/m) @ t=1.6
-12.646726525682086
% V (V) @ t=1.6
0.015584305741852503
% es.normE (V/m) @ t=1.7
19.01127988106431
% es.EX (V/m) @ t=1.7
12.064508754832953
% es.EY (V/m) @ t=1.7
3.6077150887706013
% es.EZ (V/m) @ t=1.7
-13.21515875462737
% es.tEX (V/m) @ t=1.7
12.064508754832925
% es.tEY (V/m) @ t=1.7
0
% es.tEZ (V/m) @ t=1.7
-13.215158754627355
% es.Ex (V/m) @ t=1.7
12.064508754832953
% es.Ey (V/m) @ t=1.7
3.6077150887706013
% es.Ez (V/m) @ t=1.7
-13.21515875462737
% es.tEx (V/m) @ t=1.7
12.064508754832925
% es.tEy (V/m) @ t=1.7
0
% es.tEz (V/m) @ t=1.7
-13.215158754627355
% V (V) @ t=1.7
0.016284809026586963
% es.normE (V/m) @ t=1.8
19.857640743031844
% es.EX (V/m) @ t=1.8
12.60160384568529
% es.EY (V/m) @ t=1.8
3.7683260302222408
% es.EZ (V/m) @ t=1.8
-13.80348592971486
% es.tEX (V/m) @ t=1.8
12.601603845685252
% es.tEY (V/m) @ t=1.8
0
% es.tEZ (V/m) @ t=1.8
-13.803485929714832
% es.Ex (V/m) @ t=1.8
12.60160384568529
% es.Ey (V/m) @ t=1.8
3.7683260302222408
% es.Ez (V/m) @ t=1.8
-13.80348592971486
% es.tEx (V/m) @ t=1.8
12.601603845685252
% es.tEy (V/m) @ t=1.8
0
% es.tEz (V/m) @ t=1.8
-13.803485929714832
% V (V) @ t=1.8
0.017009803831316582
% es.normE (V/m) @ t=1.9
20.732267870052873
% es.EX (V/m) @ t=1.9
13.156645082579312
% es.EY (V/m) @ t=1.9
3.934302236530826
% es.EZ (V/m) @ t=1.9
-14.411453631736421
% es.tEX (V/m) @ t=1.9
13.156645082579288
% es.tEY (V/m) @ t=1.9
0
% es.tEZ (V/m) @ t=1.9
-14.411453631736377
% es.Ex (V/m) @ t=1.9
13.156645082579312
% es.Ey (V/m) @ t=1.9
3.934302236530826
% es.Ez (V/m) @ t=1.9
-14.411453631736421
% es.tEx (V/m) @ t=1.9
13.156645082579288
% es.tEy (V/m) @ t=1.9
0
% es.tEz (V/m) @ t=1.9
-14.411453631736377
% V (V) @ t=1.9
0.017758976955237534
% es.normE (V/m) @ t=2
21.63516126213912
% es.EX (V/m) @ t=2
13.729632465515037
% es.EY (V/m) @ t=2
4.105643707696656
% es.EZ (V/m) @ t=2
-15.039061860692069
% es.tEX (V/m) @ t=2
13.729632465514978
% es.tEY (V/m) @ t=2
0
% es.tEZ (V/m) @ t=2
-15.039061860692026
% es.Ex (V/m) @ t=2
13.729632465515037
% es.Ey (V/m) @ t=2
4.105643707696656
% es.Ez (V/m) @ t=2
-15.039061860692069
% es.tEx (V/m) @ t=2
13.729632465514978
% es.tEy (V/m) @ t=2
0
% es.tEz (V/m) @ t=2
-15.039061860692026
% V (V) @ t=2
0.018532328398349812
% es.normE (V/m) @ t=2.1
22.566320919318375
% es.EX (V/m) @ t=2.1
14.32056599449231
% es.EY (V/m) @ t=2.1
4.282350443719581
% es.EZ (V/m) @ t=2.1
-15.686310616581757
% es.tEX (V/m) @ t=2.1
14.320565994492279
% es.tEY (V/m) @ t=2.1
0
% es.tEZ (V/m) @ t=2.1
-15.686310616581713
% es.Ex (V/m) @ t=2.1
14.32056599449231
% es.Ey (V/m) @ t=2.1
4.282350443719581
% es.Ez (V/m) @ t=2.1
-15.686310616581757
% es.tEx (V/m) @ t=2.1
14.320565994492279
% es.tEy (V/m) @ t=2.1
0
% es.tEz (V/m) @ t=2.1
-15.686310616581713
% V (V) @ t=2.1
0.019329858160653423
% es.normE (V/m) @ t=2.2
23.54018465205877
% es.EX (V/m) @ t=2.2
14.938599509179312
% es.EY (V/m) @ t=2.2
4.467161022804664
% es.EZ (V/m) @ t=2.2
-16.363243829445103
% es.tEX (V/m) @ t=2.2
14.938599509179246
% es.tEY (V/m) @ t=2.2
0
% es.tEZ (V/m) @ t=2.2
-16.363243829445075
% es.Ex (V/m) @ t=2.2
14.938599509179312
% es.Ey (V/m) @ t=2.2
4.467161022804664
% es.Ez (V/m) @ t=2.2
-16.363243829445103
% es.tEx (V/m) @ t=2.2
14.938599509179246
% es.tEy (V/m) @ t=2.2
0
% es.tEz (V/m) @ t=2.2
-16.363243829445075
% V (V) @ t=2.2
0.020163967297428274
% es.normE (V/m) @ t=2.3
24.567771870529796
% es.EX (V/m) @ t=2.3
15.590719520067413
% es.EY (V/m) @ t=2.3
4.662165617606596
% es.EZ (V/m) @ t=2.3
-17.077527355921603
% es.tEX (V/m) @ t=2.3
15.590719520067369
% es.tEY (V/m) @ t=2.3
0
% es.tEZ (V/m) @ t=2.3
-17.07752735592156
% es.Ex (V/m) @ t=2.3
15.590719520067413
% es.Ey (V/m) @ t=2.3
4.662165617606596
% es.Ez (V/m) @ t=2.3
-17.077527355921603
% es.tEx (V/m) @ t=2.3
15.590719520067369
% es.tEy (V/m) @ t=2.3
0
% es.tEz (V/m) @ t=2.3
-17.07752735592156
% V (V) @ t=2.3
0.021044120700562403
% es.normE (V/m) @ t=2.4
25.63434971764932
% es.EX (V/m) @ t=2.4
16.267585122441353
% es.EY (V/m) @ t=2.4
4.864569685180059
% es.EZ (V/m) @ t=2.4
-17.818912011311856
% es.tEX (V/m) @ t=2.4
16.267585122441293
% es.tEY (V/m) @ t=2.4
0
% es.tEZ (V/m) @ t=2.4
-17.818912011311795
% es.Ex (V/m) @ t=2.4
16.267585122441353
% es.Ey (V/m) @ t=2.4
4.864569685180059
% es.Ez (V/m) @ t=2.4
-17.818912011311856
% es.tEx (V/m) @ t=2.4
16.267585122441293
% es.tEy (V/m) @ t=2.4
0
% es.tEz (V/m) @ t=2.4
-17.818912011311795
% V (V) @ t=2.4
0.02195766389063078
% es.normE (V/m) @ t=2.5
26.73991819342225
% es.EX (V/m) @ t=2.5
16.969196316301026
% es.EY (V/m) @ t=2.5
5.074373225524995
% es.EZ (V/m) @ t=2.5
-18.58739779561594
% es.tEX (V/m) @ t=2.5
16.969196316300973
% es.tEY (V/m) @ t=2.5
0
% es.tEZ (V/m) @ t=2.5
-18.587397795615892
% es.Ex (V/m) @ t=2.5
16.969196316301026
% es.Ey (V/m) @ t=2.5
5.074373225524995
% es.Ez (V/m) @ t=2.5
-18.58739779561594
% es.tEx (V/m) @ t=2.5
16.969196316300973
% es.tEy (V/m) @ t=2.5
0
% es.tEz (V/m) @ t=2.5
-18.587397795615892
% V (V) @ t=2.5
0.02290459686763339
% es.normE (V/m) @ t=2.6
27.884477297853486
% es.EX (V/m) @ t=2.6
17.69555310164658
% es.EY (V/m) @ t=2.6
5.291576238641305
% es.EZ (V/m) @ t=2.6
-19.38298470883364
% es.tEX (V/m) @ t=2.6
17.69555310164656
% es.tEY (V/m) @ t=2.6
0
% es.tEZ (V/m) @ t=2.6
-19.382984708833582
% es.Ex (V/m) @ t=2.6
17.69555310164658
% es.Ey (V/m) @ t=2.6
5.291576238641305
% es.Ez (V/m) @ t=2.6
-19.38298470883364
% es.tEx (V/m) @ t=2.6
17.69555310164656
% es.tEy (V/m) @ t=2.6
0
% es.tEz (V/m) @ t=2.6
-19.382984708833582
% V (V) @ t=2.6
0.02388491963157026
% es.normE (V/m) @ t=2.7
29.068027030947942
% es.EX (V/m) @ t=2.7
18.4466554784779
% es.EY (V/m) @ t=2.7
5.516178724529218
% es.EZ (V/m) @ t=2.7
-20.205672750965164
% es.tEX (V/m) @ t=2.7
18.446655478477858
% es.tEY (V/m) @ t=2.7
0
% es.tEZ (V/m) @ t=2.7
-20.20567275096513
% es.Ex (V/m) @ t=2.7
18.4466554784779
% es.Ey (V/m) @ t=2.7
5.516178724529218
% es.Ez (V/m) @ t=2.7
-20.205672750965164
% es.tEx (V/m) @ t=2.7
18.446655478477858
% es.tEy (V/m) @ t=2.7
0
% es.tEz (V/m) @ t=2.7
-20.20567275096513
% V (V) @ t=2.7
0.024898632182441365
% es.normE (V/m) @ t=2.8
30.314858276832474
% es.EX (V/m) @ t=2.8
19.237912127944327
% es.EY (V/m) @ t=2.8
5.752789349482608
% es.EZ (V/m) @ t=2.8
-21.072352948853947
% es.tEX (V/m) @ t=2.8
19.23791212794429
% es.tEY (V/m) @ t=2.8
0
% es.tEZ (V/m) @ t=2.8
-21.072352948853904
% es.Ex (V/m) @ t=2.8
19.237912127944327
% es.Ey (V/m) @ t=2.8
5.752789349482608
% es.Ez (V/m) @ t=2.8
-21.072352948853947
% es.tEx (V/m) @ t=2.8
19.23791212794429
% es.tEy (V/m) @ t=2.8
0
% es.tEz (V/m) @ t=2.8
-21.072352948853904
% V (V) @ t=2.8
0.02596656709457982
% es.normE (V/m) @ t=2.9
31.611045545089215
% es.EX (V/m) @ t=2.9
20.06048955347807
% es.EY (V/m) @ t=2.9
5.998766054944118
% es.EZ (V/m) @ t=2.9
-21.973342006038614
% es.tEX (V/m) @ t=2.9
20.060489553478035
% es.tEY (V/m) @ t=2.9
0
% es.tEZ (V/m) @ t=2.9
-21.97334200603857
% es.Ex (V/m) @ t=2.9
20.06048955347807
% es.Ey (V/m) @ t=2.9
5.998766054944118
% es.Ez (V/m) @ t=2.9
-21.973342006038614
% es.tEx (V/m) @ t=2.9
20.060489553478035
% es.tEy (V/m) @ t=2.9
0
% es.tEz (V/m) @ t=2.9
-21.97334200603857
% V (V) @ t=2.9
0.027076781459174228
% es.normE (V/m) @ t=3
32.9545166456309
% es.EX (V/m) @ t=3
20.913073281874368
% es.EY (V/m) @ t=3
6.253715687969849
% es.EZ (V/m) @ t=3
-22.90719899438426
% es.tEX (V/m) @ t=3
20.913073281874347
% es.tEY (V/m) @ t=3
0
% es.tEZ (V/m) @ t=3
-22.9071989943842
% es.Ex (V/m) @ t=3
20.913073281874368
% es.Ey (V/m) @ t=3
6.253715687969849
% es.Ez (V/m) @ t=3
-22.90719899438426
% es.tEx (V/m) @ t=3
20.913073281874347
% es.tEy (V/m) @ t=3
0
% es.tEz (V/m) @ t=3
-22.9071989943842
% V (V) @ t=3
0.028227498105259676
% es.normE (V/m) @ t=3.1
34.34527157845637
% es.EX (V/m) @ t=3.1
21.795663313133346
% es.EY (V/m) @ t=3.1
6.517638248559752
% es.EZ (V/m) @ t=3.1
-23.873923913891083
% es.tEX (V/m) @ t=3.1
21.795663313133296
% es.tEY (V/m) @ t=3.1
0
% es.tEZ (V/m) @ t=3.1
-23.873923913891055
% es.Ex (V/m) @ t=3.1
21.795663313133346
% es.Ey (V/m) @ t=3.1
6.517638248559752
% es.Ez (V/m) @ t=3.1
-23.873923913891083
% es.tEx (V/m) @ t=3.1
21.795663313133296
% es.tEy (V/m) @ t=3.1
0
% es.tEz (V/m) @ t=3.1
-23.873923913891055
% V (V) @ t=3.1
0.02941871703283617
% es.normE (V/m) @ t=3.2
35.783310343564224
% es.EX (V/m) @ t=3.2
22.708259647254835
% es.EY (V/m) @ t=3.2
6.79053373671406
% es.EZ (V/m) @ t=3.2
-24.873516764559064
% es.tEX (V/m) @ t=3.2
22.70825964725477
% es.tEY (V/m) @ t=3.2
0
% es.tEZ (V/m) @ t=3.2
-24.873516764559035
% es.Ex (V/m) @ t=3.2
22.708259647254835
% es.Ey (V/m) @ t=3.2
6.79053373671406
% es.Ez (V/m) @ t=3.2
-24.873516764559064
% es.tEx (V/m) @ t=3.2
22.70825964725477
% es.tEy (V/m) @ t=3.2
0
% es.tEz (V/m) @ t=3.2
-24.873516764559035
% V (V) @ t=3.2
0.0306504382419037
% es.normE (V/m) @ t=3.3
37.27227852112101
% es.EX (V/m) @ t=3.3
23.653161712246455
% es.EY (V/m) @ t=3.3
7.073091872960699
% es.EZ (V/m) @ t=3.3
-25.908524932442425
% es.tEX (V/m) @ t=3.3
23.653161712246394
% es.tEY (V/m) @ t=3.3
0
% es.tEZ (V/m) @ t=3.3
-25.908524932442397
% es.Ex (V/m) @ t=3.3
23.653161712246455
% es.Ey (V/m) @ t=3.3
7.073091872960699
% es.Ez (V/m) @ t=3.3
-25.908524932442425
% es.tEx (V/m) @ t=3.3
23.653161712246394
% es.tEy (V/m) @ t=3.3
0
% es.tEz (V/m) @ t=3.3
-25.908524932442397
% V (V) @ t=3.3
0.03192584132566161
% es.normE (V/m) @ t=3.4
38.81711238707395
% es.EX (V/m) @ t=3.4
24.633483034775622
% es.EY (V/m) @ t=3.4
7.366246569233768
% es.EZ (V/m) @ t=3.4
-26.982397690310464
% es.tEX (V/m) @ t=3.4
24.63348303477555
% es.tEY (V/m) @ t=3.4
0
% es.tEZ (V/m) @ t=3.4
-26.982397690310407
% es.Ex (V/m) @ t=3.4
24.633483034775622
% es.Ey (V/m) @ t=3.4
7.366246569233768
% es.Ez (V/m) @ t=3.4
-26.982397690310464
% es.tEx (V/m) @ t=3.4
24.63348303477555
% es.tEy (V/m) @ t=3.4
0
% es.tEz (V/m) @ t=3.4
-26.982397690310407
% V (V) @ t=3.4
0.03324923159316259
% es.normE (V/m) @ t=3.5
40.41259137957741
% es.EX (V/m) @ t=3.5
25.64593077646323
% es.EY (V/m) @ t=3.5
7.669010128497783
% es.EZ (V/m) @ t=3.5
-28.091487117663952
% es.tEX (V/m) @ t=3.5
25.645930776463175
% es.tEY (V/m) @ t=3.5
0
% es.tEZ (V/m) @ t=3.5
-28.091487117663895
% es.Ex (V/m) @ t=3.5
25.64593077646323
% es.Ey (V/m) @ t=3.5
7.669010128497783
% es.Ez (V/m) @ t=3.5
-28.091487117663952
% es.tEx (V/m) @ t=3.5
25.645930776463175
% es.tEy (V/m) @ t=3.5
0
% es.tEz (V/m) @ t=3.5
-28.091487117663895
% V (V) @ t=3.5
0.03461605578747426
% es.normE (V/m) @ t=3.6
42.05871549870945
% es.EX (V/m) @ t=3.6
26.690504937309413
% es.EY (V/m) @ t=3.6
7.981382550752915
% es.EZ (V/m) @ t=3.6
-29.235793214502834
% es.tEX (V/m) @ t=3.6
26.69050493730938
% es.tEY (V/m) @ t=3.6
0
% es.tEZ (V/m) @ t=3.6
-29.235793214502777
% es.Ex (V/m) @ t=3.6
26.690504937309413
% es.Ey (V/m) @ t=3.6
7.981382550752915
% es.Ez (V/m) @ t=3.6
-29.235793214502834
% es.tEx (V/m) @ t=3.6
26.69050493730938
% es.tEy (V/m) @ t=3.6
0
% es.tEz (V/m) @ t=3.6
-29.235793214502777
% V (V) @ t=3.6
0.03602631390859666
% es.normE (V/m) @ t=3.7
43.75548474455817
% es.EX (V/m) @ t=3.7
27.76720551731406
% es.EY (V/m) @ t=3.7
8.303363835999056
% es.EZ (V/m) @ t=3.7
-30.415315980827337
% es.tEX (V/m) @ t=3.7
27.767205517313972
% es.tEY (V/m) @ t=3.7
0
% es.tEZ (V/m) @ t=3.7
-30.41531598082728
% es.Ex (V/m) @ t=3.7
27.76720551731406
% es.Ey (V/m) @ t=3.7
8.303363835999056
% es.Ez (V/m) @ t=3.7
-30.415315980827337
% es.tEx (V/m) @ t=3.7
27.767205517313972
% es.tEy (V/m) @ t=3.7
0
% es.tEz (V/m) @ t=3.7
-30.41531598082728
% V (V) @ t=3.7
0.0374800059565298
% es.normE (V/m) @ t=3.8
45.502899117218995
% es.EX (V/m) @ t=3.8
28.876032516477288
% es.EY (V/m) @ t=3.8
8.634953984236299
% es.EZ (V/m) @ t=3.8
-31.63005541663749
% es.tEX (V/m) @ t=3.8
28.87603251647723
% es.tEY (V/m) @ t=3.8
0
% es.tEZ (V/m) @ t=3.8
-31.630055416637404
% es.Ex (V/m) @ t=3.8
28.876032516477288
% es.Ey (V/m) @ t=3.8
8.634953984236299
% es.Ez (V/m) @ t=3.8
-31.63005541663749
% es.tEx (V/m) @ t=3.8
28.87603251647723
% es.tEy (V/m) @ t=3.8
0
% es.tEz (V/m) @ t=3.8
-31.630055416637404
% V (V) @ t=3.8
0.03897713193127364
% es.normE (V/m) @ t=3.9
47.28845686430556
% es.EX (V/m) @ t=3.9
30.009104533420462
% es.EY (V/m) @ t=3.9
8.97378835749073
% es.EZ (V/m) @ t=3.9
-32.87127201920252
% es.tEX (V/m) @ t=3.9
30.00910453342043
% es.tEY (V/m) @ t=3.9
0
% es.tEZ (V/m) @ t=3.9
-32.87127201920243
% es.Ex (V/m) @ t=3.9
30.009104533420462
% es.Ey (V/m) @ t=3.9
8.97378835749073
% es.Ez (V/m) @ t=3.9
-32.87127201920252
% es.tEx (V/m) @ t=3.9
30.00910453342043
% es.tEy (V/m) @ t=3.9
0
% es.tEz (V/m) @ t=3.9
-32.87127201920243
% V (V) @ t=3.9
0.04050677183120853
% es.normE (V/m) @ t=4
49.1149997578568
% es.EX (V/m) @ t=4
31.168213088790086
% es.EY (V/m) @ t=4
9.32040446140996
% es.EZ (V/m) @ t=4
-34.14095236411114
% es.tEX (V/m) @ t=4
31.168213088790054
% es.tEY (V/m) @ t=4
0
% es.tEZ (V/m) @ t=4
-34.14095236411106
% es.Ex (V/m) @ t=4
31.168213088790086
% es.Ey (V/m) @ t=4
9.32040446140996
% es.Ez (V/m) @ t=4
-34.14095236411114
% es.tEx (V/m) @ t=4
31.168213088790054
% es.tEy (V/m) @ t=4
0
% es.tEz (V/m) @ t=4
-34.14095236411106
% V (V) @ t=4
0.04207140788093139
% es.normE (V/m) @ t=4.1
50.98336390322687
% es.EX (V/m) @ t=4.1
32.35388528326267
% es.EY (V/m) @ t=4.1
9.674960440746776
% es.EZ (V/m) @ t=4.1
-35.43968094104712
% es.tEX (V/m) @ t=4.1
32.35388528326258
% es.tEY (V/m) @ t=4.1
0
% es.tEZ (V/m) @ t=4.1
-35.439680941047094
% es.Ex (V/m) @ t=4.1
32.35388528326267
% es.Ey (V/m) @ t=4.1
9.674960440746776
% es.Ez (V/m) @ t=4.1
-35.43968094104712
% es.tEx (V/m) @ t=4.1
32.35388528326258
% es.tEy (V/m) @ t=4.1
0
% es.tEz (V/m) @ t=4.1
-35.439680941047094
% V (V) @ t=4.1
0.04367177039983156
% es.normE (V/m) @ t=4.2
52.89235156582612
% es.EX (V/m) @ t=4.2
33.565366036503605
% es.EY (V/m) @ t=4.2
10.0372297505579
% es.EZ (V/m) @ t=4.2
-36.76662045898489
% es.tEX (V/m) @ t=4.2
33.5653660365035
% es.tEY (V/m) @ t=4.2
0
% es.tEZ (V/m) @ t=4.2
-36.76662045898483
% es.Ex (V/m) @ t=4.2
33.565366036503605
% es.Ey (V/m) @ t=4.2
10.0372297505579
% es.Ez (V/m) @ t=4.2
-36.76662045898489
% es.tEx (V/m) @ t=4.2
33.5653660365035
% es.tEy (V/m) @ t=4.2
0
% es.tEz (V/m) @ t=4.2
-36.76662045898483
% V (V) @ t=4.2
0.04530681319344679
% es.normE (V/m) @ t=4.3
54.84076501116712
% es.EX (V/m) @ t=4.3
34.80190026817807
% es.EY (V/m) @ t=4.3
10.4069858458995
% es.EZ (V/m) @ t=4.3
-38.12093362689832
% es.tEX (V/m) @ t=4.3
34.80190026817798
% es.tEY (V/m) @ t=4.3
0
% es.tEZ (V/m) @ t=4.3
-38.12093362689821
% es.Ex (V/m) @ t=4.3
34.80190026817807
% es.Ey (V/m) @ t=4.3
10.4069858458995
% es.Ez (V/m) @ t=4.3
-38.12093362689832
% es.tEx (V/m) @ t=4.3
34.80190026817798
% es.tEy (V/m) @ t=4.3
0
% es.tEz (V/m) @ t=4.3
-38.12093362689821
% V (V) @ t=4.3
0.04697549006731485
% es.normE (V/m) @ t=4.4
56.81817217392907
% es.EX (V/m) @ t=4.4
36.05683552684973
% es.EY (V/m) @ t=4.4
10.782244246856242
% es.EZ (V/m) @ t=4.4
-39.49539937043137
% es.tEX (V/m) @ t=4.4
36.056835526849625
% es.tEY (V/m) @ t=4.4
0
% es.tEZ (V/m) @ t=4.4
-39.49539937043129
% es.Ex (V/m) @ t=4.4
36.05683552684973
% es.Ey (V/m) @ t=4.4
10.782244246856242
% es.Ez (V/m) @ t=4.4
-39.49539937043137
% es.tEx (V/m) @ t=4.4
36.056835526849625
% es.tEy (V/m) @ t=4.4
0
% es.tEz (V/m) @ t=4.4
-39.49539937043129
% V (V) @ t=4.4
0.048668995734337764
% es.normE (V/m) @ t=4.5
58.79797816609479
% es.EX (V/m) @ t=4.5
37.31319720973327
% es.EY (V/m) @ t=4.5
11.157943565088074
% es.EZ (V/m) @ t=4.5
-40.87162309798355
% es.tEX (V/m) @ t=4.5
37.31319720973326
% es.tEY (V/m) @ t=4.5
0
% es.tEZ (V/m) @ t=4.5
-40.871623097983466
% es.Ex (V/m) @ t=4.5
37.31319720973327
% es.Ey (V/m) @ t=4.5
11.157943565088074
% es.Ez (V/m) @ t=4.5
-40.87162309798355
% es.tEx (V/m) @ t=4.5
37.31319720973326
% es.tEy (V/m) @ t=4.5
0
% es.tEz (V/m) @ t=4.5
-40.871623097983466
% V (V) @ t=4.5
0.05036494419032731
% es.normE (V/m) @ t=4.6
60.79356570431118
% es.EX (V/m) @ t=4.6
38.57954182955211
% es.EY (V/m) @ t=4.6
11.536632928877344
% es.EZ (V/m) @ t=4.6
-42.25884712713936
% es.tEX (V/m) @ t=4.6
38.579541829551985
% es.tEY (V/m) @ t=4.6
0
% es.tEZ (V/m) @ t=4.6
-42.258847127139276
% es.Ex (V/m) @ t=4.6
38.57954182955211
% es.Ey (V/m) @ t=4.6
11.536632928877344
% es.Ez (V/m) @ t=4.6
-42.25884712713936
% es.tEx (V/m) @ t=4.6
38.579541829551985
% es.tEy (V/m) @ t=4.6
0
% es.tEz (V/m) @ t=4.6
-42.258847127139276
% V (V) @ t=4.6
0.05207454037982442
% es.normE (V/m) @ t=4.7
62.8007995941707
% es.EX (V/m) @ t=4.7
39.85323833988292
% es.EY (V/m) @ t=4.7
11.917526590487475
% es.EZ (V/m) @ t=4.7
-43.65420347203634
% es.tEX (V/m) @ t=4.7
39.85323833988273
% es.tEY (V/m) @ t=4.7
0
% es.tEZ (V/m) @ t=4.7
-43.65420347203623
% es.Ex (V/m) @ t=4.7
39.85323833988292
% es.Ey (V/m) @ t=4.7
11.917526590487475
% es.Ez (V/m) @ t=4.7
-43.65420347203634
% es.tEx (V/m) @ t=4.7
39.85323833988273
% es.tEy (V/m) @ t=4.7
0
% es.tEz (V/m) @ t=4.7
-43.65420347203623
% V (V) @ t=4.7
0.05379426992476201
% es.normE (V/m) @ t=4.8
64.81554464143835
% es.EX (V/m) @ t=4.8
41.131655694301884
% es.EY (V/m) @ t=4.8
12.299838802181181
% es.EZ (V/m) @ t=4.8
-45.054824146812244
% es.tEX (V/m) @ t=4.8
41.131655694301756
% es.tEY (V/m) @ t=4.8
0
% es.tEZ (V/m) @ t=4.8
-45.05482414681216
% es.Ex (V/m) @ t=4.8
41.131655694301884
% es.Ey (V/m) @ t=4.8
12.299838802181181
% es.Ez (V/m) @ t=4.8
-45.054824146812244
% es.tEx (V/m) @ t=4.8
41.131655694301756
% es.tEy (V/m) @ t=4.8
0
% es.tEz (V/m) @ t=4.8
-45.05482414681216
% V (V) @ t=4.8
0.055520618447073095
% es.normE (V/m) @ t=4.9
66.83366565210905
% es.EX (V/m) @ t=4.9
42.41216284638571
% es.EY (V/m) @ t=4.9
12.682783816221574
% es.EZ (V/m) @ t=4.9
-46.45784116560415
% es.tEX (V/m) @ t=4.9
42.412162846385634
% es.tEY (V/m) @ t=4.9
0
% es.tEZ (V/m) @ t=4.9
-46.45784116560403
% es.Ex (V/m) @ t=4.9
42.41216284638571
% es.Ey (V/m) @ t=4.9
12.682783816221574
% es.Ez (V/m) @ t=4.9
-46.45784116560415
% es.tEx (V/m) @ t=4.9
42.412162846385634
% es.tEy (V/m) @ t=4.9
0
% es.tEz (V/m) @ t=4.9
-46.45784116560403
% V (V) @ t=4.9
0.05725007156869061
% es.normE (V/m) @ t=5
68.82237881888616
% es.EX (V/m) @ t=5
43.67407488787596
% es.EY (V/m) @ t=5
13.06015818737621
% es.EZ (V/m) @ t=5
-47.84035286368281
% es.tEX (V/m) @ t=5
43.674074887875896
% es.tEY (V/m) @ t=5
0
% es.tEZ (V/m) @ t=5
-47.84035286368269
% es.Ex (V/m) @ t=5
43.67407488787596
% es.Ey (V/m) @ t=5
13.06015818737621
% es.Ez (V/m) @ t=5
-47.84035286368281
% es.tEx (V/m) @ t=5
43.674074887875896
% es.tEy (V/m) @ t=5
0
% es.tEz (V/m) @ t=5
-47.84035286368269
% V (V) @ t=5
0.058954063047299936
% es.normE (V/m) @ t=5.1
70.77905021863936
% es.EX (V/m) @ t=5.1
44.915706848053546
% es.EY (V/m) @ t=5.1
13.431460071264393
% es.EZ (V/m) @ t=5.1
-49.20054107915162
% es.tEX (V/m) @ t=5.1
44.915706848053475
% es.tEY (V/m) @ t=5.1
0
% es.tEZ (V/m) @ t=5.1
-49.200541079151535
% es.Ex (V/m) @ t=5.1
44.915706848053546
% es.Ey (V/m) @ t=5.1
13.431460071264393
% es.Ez (V/m) @ t=5.1
-49.20054107915162
% es.tEx (V/m) @ t=5.1
44.915706848053475
% es.tEy (V/m) @ t=5.1
0
% es.tEz (V/m) @ t=5.1
-49.200541079151535
% V (V) @ t=5.1
0.060630391296541644
% es.normE (V/m) @ t=5.2
72.7040366009268
% es.EX (V/m) @ t=5.2
46.137258426247314
% es.EY (V/m) @ t=5.2
13.796753185173337
% es.EZ (V/m) @ t=5.2
-50.53867899626947
% es.tEX (V/m) @ t=5.2
46.13725842624718
% es.tEY (V/m) @ t=5.2
0
% es.tEZ (V/m) @ t=5.2
-50.53867899626929
% es.Ex (V/m) @ t=5.2
46.137258426247314
% es.Ey (V/m) @ t=5.2
13.796753185173337
% es.Ez (V/m) @ t=5.2
-50.53867899626947
% es.tEx (V/m) @ t=5.2
46.13725842624718
% es.tEy (V/m) @ t=5.2
0
% es.tEz (V/m) @ t=5.2
-50.53867899626929
% V (V) @ t=5.2
0.06227946993220192
% es.normE (V/m) @ t=5.3
74.59009282359419
% es.EX (V/m) @ t=5.3
47.334138740713165
% es.EY (V/m) @ t=5.3
14.15466366370985
% es.EZ (V/m) @ t=5.3
-51.849723874995995
% es.tEX (V/m) @ t=5.3
47.33413874071303
% es.tEY (V/m) @ t=5.3
0
% es.tEZ (V/m) @ t=5.3
-51.84972387499594
% es.Ex (V/m) @ t=5.3
47.334138740713165
% es.Ey (V/m) @ t=5.3
14.15466366370985
% es.Ez (V/m) @ t=5.3
-51.849723874995995
% es.tEx (V/m) @ t=5.3
47.33413874071303
% es.tEy (V/m) @ t=5.3
0
% es.tEz (V/m) @ t=5.3
-51.84972387499594
% V (V) @ t=5.3
0.06389506507338125
% es.normE (V/m) @ t=5.4
76.42997374457278
% es.EX (V/m) @ t=5.4
48.501756909707254
% es.EY (V/m) @ t=5.4
14.503817641480683
% es.EZ (V/m) @ t=5.4