% Model:              1x1--2 - Copy1.mph
% Version:            COMSOL 6.1.0.252
% Date:               Apr 3 2023, 14:38
% Dimension:          0
% Nodes:              14017
% Expressions:        14017
% Description:        Electric field norm, Electric field, X component, Electric field, Y component, Electric field, Z component, Tangential electric field, X component, Tangential electric field, Y component, Tangential electric field, Z component, Electric field, x component, Electric field, y component, Electric field, z component, Tangential electric field, x component, Tangential electric field, y component, Tangential electric field, z component, Electric potential
% Length unit:        mm
% x
2
% y
12.199999999999998
% z
2
% es.normE (V/m) @ t=0
0.8034273755088324
% es.EX (V/m) @ t=0
-0.575179304464282
% es.EY (V/m) @ t=0
0.2190485413540082
% es.EZ (V/m) @ t=0
-0.5132608879421685
% es.tEX (V/m) @ t=0
-0.5751793044642823
% es.tEY (V/m) @ t=0
0
% es.tEZ (V/m) @ t=0
-0.5132608879421667
% es.Ex (V/m) @ t=0
-0.575179304464282
% es.Ey (V/m) @ t=0
0.2190485413540082
% es.Ez (V/m) @ t=0
-0.5132608879421685
% es.tEx (V/m) @ t=0
-0.5751793044642823
% es.tEy (V/m) @ t=0
0
% es.tEz (V/m) @ t=0
-0.5132608879421667
% V (V) @ t=0
0.008176314817408667
% es.normE (V/m) @ t=0.1
0.8165997029483918
% es.EX (V/m) @ t=0.1
-0.584609466155357
% es.EY (V/m) @ t=0.1
0.2226398789791353
% es.EZ (V/m) @ t=0.1
-0.5216758870617744
% es.tEX (V/m) @ t=0.1
-0.5846094661553578
% es.tEY (V/m) @ t=0.1
0
% es.tEZ (V/m) @ t=0.1
-0.5216758870617815
% es.Ex (V/m) @ t=0.1
-0.584609466155357
% es.Ey (V/m) @ t=0.1
0.2226398789791353
% es.Ez (V/m) @ t=0.1
-0.5216758870617744
% es.tEx (V/m) @ t=0.1
-0.5846094661553578
% es.tEy (V/m) @ t=0.1
0
% es.tEz (V/m) @ t=0.1
-0.5216758870617815
% V (V) @ t=0.1
0.008310366885004526
% es.normE (V/m) @ t=0.2
0.8553764876661184
% es.EX (V/m) @ t=0.2
-0.6123700349815405
% es.EY (V/m) @ t=0.2
0.23321210040881102
% es.EZ (V/m) @ t=0.2
-0.5464480116887551
% es.tEX (V/m) @ t=0.2
-0.6123700349815393
% es.tEY (V/m) @ t=0.2
0
% es.tEZ (V/m) @ t=0.2
-0.546448011688752
% es.Ex (V/m) @ t=0.2
-0.6123700349815405
% es.Ey (V/m) @ t=0.2
0.23321210040881102
% es.Ez (V/m) @ t=0.2
-0.5464480116887551
% es.tEx (V/m) @ t=0.2
-0.6123700349815393
% es.tEy (V/m) @ t=0.2
0
% es.tEz (V/m) @ t=0.2
-0.546448011688752
% V (V) @ t=0.2
0.008704989680296964
% es.normE (V/m) @ t=0.3
0.8955136891129917
% es.EX (V/m) @ t=0.3
-0.6411045260205931
% es.EY (V/m) @ t=0.3
0.24415527320669206
% es.EZ (V/m) @ t=0.3
-0.572089211625733
% es.tEX (V/m) @ t=0.3
-0.6411045260205943
% es.tEY (V/m) @ t=0.3
0
% es.tEZ (V/m) @ t=0.3
-0.5720892116257295
% es.Ex (V/m) @ t=0.3
-0.6411045260205931
% es.Ey (V/m) @ t=0.3
0.24415527320669206
% es.Ez (V/m) @ t=0.3
-0.572089211625733
% es.tEx (V/m) @ t=0.3
-0.6411045260205943
% es.tEy (V/m) @ t=0.3
0
% es.tEz (V/m) @ t=0.3
-0.5720892116257295
% V (V) @ t=0.3
0.009113455765351119
% es.normE (V/m) @ t=0.4
0.9377945515225266
% es.EX (V/m) @ t=0.4
-0.6713736913945152
% es.EY (V/m) @ t=0.4
0.2556828433367293
% es.EZ (V/m) @ t=0.4
-0.5990998817847379
% es.tEX (V/m) @ t=0.4
-0.6713736913945119
% es.tEY (V/m) @ t=0.4
0
% es.tEZ (V/m) @ t=0.4
-0.5990998817847348
% es.Ex (V/m) @ t=0.4
-0.6713736913945152
% es.Ey (V/m) @ t=0.4
0.2556828433367293
% es.Ez (V/m) @ t=0.4
-0.5990998817847379
% es.tEx (V/m) @ t=0.4
-0.6713736913945119
% es.tEy (V/m) @ t=0.4
0
% es.tEz (V/m) @ t=0.4
-0.5990998817847348
% V (V) @ t=0.4
0.009543739223039492
% es.normE (V/m) @ t=0.5
0.9820456692833794
% es.EX (V/m) @ t=0.5
-0.7030533787677284
% es.EY (V/m) @ t=0.5
0.2677475777000913
% es.EZ (V/m) @ t=0.5
-0.6273692316275317
% es.tEX (V/m) @ t=0.5
-0.7030533787677289
% es.tEY (V/m) @ t=0.5
0
% es.tEZ (V/m) @ t=0.5
-0.6273692316275383
% es.Ex (V/m) @ t=0.5
-0.7030533787677284
% es.Ey (V/m) @ t=0.5
0.2677475777000913
% es.Ez (V/m) @ t=0.5
-0.6273692316275317
% es.tEx (V/m) @ t=0.5
-0.7030533787677289
% es.tEy (V/m) @ t=0.5
0
% es.tEz (V/m) @ t=0.5
-0.6273692316275383
% V (V) @ t=0.5
0.009994073924087231
% es.normE (V/m) @ t=0.6
1.0305259491335237
% es.EX (V/m) @ t=0.6
-0.7377607533366961
% es.EY (V/m) @ t=0.6
0.28096535842035797
% es.EZ (V/m) @ t=0.6
-0.6583403374349368
% es.tEX (V/m) @ t=0.6
-0.7377607533366985
% es.tEY (V/m) @ t=0.6
0
% es.tEZ (V/m) @ t=0.6
-0.6583403374349324
% es.Ex (V/m) @ t=0.6
-0.7377607533366961
% es.Ey (V/m) @ t=0.6
0.28096535842035797
% es.Ez (V/m) @ t=0.6
-0.6583403374349368
% es.tEx (V/m) @ t=0.6
-0.7377607533366985
% es.tEy (V/m) @ t=0.6
0
% es.tEz (V/m) @ t=0.6
-0.6583403374349324
% V (V) @ t=0.6
0.010487448048274279
% es.normE (V/m) @ t=0.7
1.0790062289836706
% es.EX (V/m) @ t=0.7
-0.7724681279056707
% es.EY (V/m) @ t=0.7
0.294183139140622
% es.EZ (V/m) @ t=0.7
-0.6893114432423397
% es.tEX (V/m) @ t=0.7
-0.7724681279056691
% es.tEY (V/m) @ t=0.7
0
% es.tEZ (V/m) @ t=0.7
-0.6893114432423424
% es.Ex (V/m) @ t=0.7
-0.7724681279056707
% es.Ey (V/m) @ t=0.7
0.294183139140622
% es.Ez (V/m) @ t=0.7
-0.6893114432423397
% es.tEx (V/m) @ t=0.7
-0.7724681279056691
% es.tEy (V/m) @ t=0.7
0
% es.tEz (V/m) @ t=0.7
-0.6893114432423424
% V (V) @ t=0.7
0.010980822172461326
% es.normE (V/m) @ t=0.8
1.1282174363468527
% es.EX (V/m) @ t=0.8
-0.8076988090994632
% es.EY (V/m) @ t=0.8
0.30760006211792157
% es.EZ (V/m) @ t=0.8
-0.7207495336656038
% es.tEX (V/m) @ t=0.8
-0.8076988090994668
% es.tEY (V/m) @ t=0.8
0
% es.tEZ (V/m) @ t=0.8
-0.7207495336656109
% es.Ex (V/m) @ t=0.8
-0.8076988090994632
% es.Ey (V/m) @ t=0.8
0.30760006211792157
% es.Ez (V/m) @ t=0.8
-0.7207495336656038
% es.tEx (V/m) @ t=0.8
-0.8076988090994668
% es.tEy (V/m) @ t=0.8
0
% es.tEz (V/m) @ t=0.8
-0.7207495336656109
% V (V) @ t=0.8
0.011481639224899332
% es.normE (V/m) @ t=0.9
1.1826757078513797
% es.EX (V/m) @ t=0.9
-0.846686119201594
% es.EY (V/m) @ t=0.9
0.32244655530160005
% es.EZ (V/m) @ t=0.9
-0.7555399376742873
% es.tEX (V/m) @ t=0.9
-0.8466861192015998
% es.tEY (V/m) @ t=0.9
0
% es.tEZ (V/m) @ t=0.9
-0.7555399376742837
% es.Ex (V/m) @ t=0.9
-0.846686119201594
% es.Ey (V/m) @ t=0.9
0.32244655530160005
% es.Ez (V/m) @ t=0.9
-0.7555399376742873
% es.tEx (V/m) @ t=0.9
-0.8466861192015998
% es.tEy (V/m) @ t=0.9
0
% es.tEz (V/m) @ t=0.9
-0.7555399376742837
% V (V) @ t=0.9
0.012035886366130993
% es.normE (V/m) @ t=1
1.2371339793578322
% es.EX (V/m) @ t=1
-0.8856734293037183
% es.EY (V/m) @ t=1
0.33729304848526054
% es.EZ (V/m) @ t=1
-0.7903303416829788
% es.tEX (V/m) @ t=1
-0.8856734293037207
% es.tEY (V/m) @ t=1
0
% es.tEZ (V/m) @ t=1
-0.7903303416829832
% es.Ex (V/m) @ t=1
-0.8856734293037183
% es.Ey (V/m) @ t=1
0.33729304848526054
% es.Ez (V/m) @ t=1
-0.7903303416829788
% es.tEx (V/m) @ t=1
-0.8856734293037207
% es.tEy (V/m) @ t=1
0
% es.tEz (V/m) @ t=1
-0.7903303416829832
% V (V) @ t=1
0.012590133507362654
% es.normE (V/m) @ t=1.1
1.2935715357853041
% es.EX (V/m) @ t=1.1
-0.9260776326533637
% es.EY (V/m) @ t=1.1
0.3526795954934361
% es.EZ (V/m) @ t=1.1
-0.8263850726697441
% es.tEX (V/m) @ t=1.1
-0.9260776326533628
% es.tEY (V/m) @ t=1.1
0
% es.tEZ (V/m) @ t=1.1
-0.8263850726697406
% es.Ex (V/m) @ t=1.1
-0.9260776326533637
% es.Ey (V/m) @ t=1.1
0.3526795954934361
% es.Ez (V/m) @ t=1.1
-0.8263850726697441
% es.tEx (V/m) @ t=1.1
-0.9260776326533628
% es.tEy (V/m) @ t=1.1
0
% es.tEz (V/m) @ t=1.1
-0.8263850726697406
% V (V) @ t=1.1
0.013164510217008984
% es.normE (V/m) @ t=1.2
1.3548607762916538
% es.EX (V/m) @ t=1.2
-0.9699549683157305
% es.EY (V/m) @ t=1.2
0.3693899390486237
% es.EZ (V/m) @ t=1.2
-0.8655389608365605
% es.tEX (V/m) @ t=1.2
-0.9699549683157347
% es.tEY (V/m) @ t=1.2
0
% es.tEZ (V/m) @ t=1.2
-0.8655389608365667
% es.Ex (V/m) @ t=1.2
-0.9699549683157305
% es.Ey (V/m) @ t=1.2
0.3693899390486237
% es.Ez (V/m) @ t=1.2
-0.8655389608365605
% es.tEx (V/m) @ t=1.2
-0.9699549683157347
% es.tEy (V/m) @ t=1.2
0
% es.tEz (V/m) @ t=1.2
-0.8655389608365667
% V (V) @ t=1.2
0.01378822914395039
% es.normE (V/m) @ t=1.3
1.4161500167982388
% es.EX (V/m) @ t=1.3
-1.0138323039780885
% es.EY (V/m) @ t=1.3
0.38610028260380247
% es.EZ (V/m) @ t=1.3
-0.9046928490033803
% es.tEX (V/m) @ t=1.3
-1.0138323039780865
% es.tEY (V/m) @ t=1.3
0
% es.tEZ (V/m) @ t=1.3
-0.9046928490033874
% es.Ex (V/m) @ t=1.3
-1.0138323039780885
% es.Ey (V/m) @ t=1.3
0.38610028260380247
% es.Ez (V/m) @ t=1.3
-0.9046928490033803
% es.tEx (V/m) @ t=1.3
-1.0138323039780865
% es.tEy (V/m) @ t=1.3
0
% es.tEz (V/m) @ t=1.3
-0.9046928490033874
% V (V) @ t=1.3
0.014411948070891788
% es.normE (V/m) @ t=1.4
1.4810093366407426
% es.EX (V/m) @ t=1.4
-1.0602653909175401
% es.EY (V/m) @ t=1.4
0.4037844162267583
% es.EZ (V/m) @ t=1.4
-0.9461273196102233
% es.tEX (V/m) @ t=1.4
-1.06026539091754
% es.tEY (V/m) @ t=1.4
0
% es.tEZ (V/m) @ t=1.4
-0.9461273196102287
% es.Ex (V/m) @ t=1.4
-1.0602653909175401
% es.Ey (V/m) @ t=1.4
0.4037844162267583
% es.Ez (V/m) @ t=1.4
-0.9461273196102233
% es.tEx (V/m) @ t=1.4
-1.06026539091754
% es.tEy (V/m) @ t=1.4
0
% es.tEz (V/m) @ t=1.4
-0.9461273196102287
% V (V) @ t=1.4
0.015071985206285395
% es.normE (V/m) @ t=1.5
1.5501065746651235
% es.EX (V/m) @ t=1.5
-1.1097323221452366
% es.EY (V/m) @ t=1.5
0.4226245024894455
% es.EZ (V/m) @ t=1.5
-0.9902689910591995
% es.tEX (V/m) @ t=1.5
-1.1097323221452373
% es.tEY (V/m) @ t=1.5
0
% es.tEZ (V/m) @ t=1.5
-0.9902689910592031
% es.Ex (V/m) @ t=1.5
-1.1097323221452366
% es.Ey (V/m) @ t=1.5
0.4226245024894455
% es.Ez (V/m) @ t=1.5
-0.9902689910591995
% es.tEx (V/m) @ t=1.5
-1.1097323221452373
% es.tEy (V/m) @ t=1.5
0
% es.tEz (V/m) @ t=1.5
-0.9902689910592031
% V (V) @ t=1.5
0.015775134435669046
% es.normE (V/m) @ t=1.6
1.619203812691473
% es.EX (V/m) @ t=1.6
-1.1591992533729252
% es.EY (V/m) @ t=1.6
0.44146458875213623
% es.EZ (V/m) @ t=1.6
-1.0344106625081997
% es.tEX (V/m) @ t=1.6
-1.1591992533729258
% es.tEY (V/m) @ t=1.6
0
% es.tEZ (V/m) @ t=1.6
-1.0344106625081952
% es.Ex (V/m) @ t=1.6
-1.1591992533729252
% es.Ey (V/m) @ t=1.6
0.44146458875213623
% es.Ez (V/m) @ t=1.6
-1.0344106625081997
% es.tEx (V/m) @ t=1.6
-1.1591992533729258
% es.tEy (V/m) @ t=1.6
0
% es.tEz (V/m) @ t=1.6
-1.0344106625081952
% V (V) @ t=1.6
0.016478283665052704
% es.normE (V/m) @ t=1.7
1.691073457127537
% es.EX (V/m) @ t=1.7
-1.2106510493501548
% es.EY (V/m) @ t=1.7
0.4610601836213495
% es.EZ (V/m) @ t=1.7
-1.0803235604723502
% es.tEX (V/m) @ t=1.7
-1.2106510493501568
% es.tEY (V/m) @ t=1.7
0
% es.tEZ (V/m) @ t=1.7
-1.0803235604723511
% es.Ex (V/m) @ t=1.7
-1.2106510493501548
% es.Ey (V/m) @ t=1.7
0.4610601836213495
% es.Ez (V/m) @ t=1.7
-1.0803235604723502
% es.tEx (V/m) @ t=1.7
-1.2106510493501568
% es.tEy (V/m) @ t=1.7
0
% es.tEz (V/m) @ t=1.7
-1.0803235604723511
% V (V) @ t=1.7
0.01720965874982478
% es.normE (V/m) @ t=1.8
1.766694126822629
% es.EX (V/m) @ t=1.8
-1.2647883382582206
% es.EY (V/m) @ t=1.8
0.48167797056825146
% es.EZ (V/m) @ t=1.8
-1.1286329019657364
% es.tEX (V/m) @ t=1.8
-1.2647883382582221
% es.tEY (V/m) @ t=1.8
0
% es.tEZ (V/m) @ t=1.8
-1.128632901965739
% es.Ex (V/m) @ t=1.8
-1.2647883382582206
% es.Ey (V/m) @ t=1.8
0.48167797056825146
% es.Ez (V/m) @ t=1.8
-1.1286329019657364
% es.tEx (V/m) @ t=1.8
-1.2647883382582221
% es.tEy (V/m) @ t=1.8
0
% es.tEz (V/m) @ t=1.8
-1.128632901965739
% V (V) @ t=1.8
0.017979223003471254
% es.normE (V/m) @ t=1.9
1.844882091580251
% es.EX (V/m) @ t=1.9
-1.3207636453790967
% es.EY (V/m) @ t=1.9
0.50299537121882
% es.EZ (V/m) @ t=1.9
-1.178582429066088
% es.tEX (V/m) @ t=1.9
-1.320763645379099
% es.tEY (V/m) @ t=1.9
0
% es.tEZ (V/m) @ t=1.9
-1.1785824290660951
% es.Ex (V/m) @ t=1.9
-1.3207636453790967
% es.Ey (V/m) @ t=1.9
0.50299537121882
% es.Ez (V/m) @ t=1.9
-1.178582429066088
% es.tEx (V/m) @ t=1.9
-1.320763645379099
% es.tEy (V/m) @ t=1.9
0
% es.tEz (V/m) @ t=1.9
-1.1785824290660951
% V (V) @ t=1.9
0.018774924874951804
% es.normE (V/m) @ t=2
1.9256373514004224
% es.EX (V/m) @ t=2
-1.3785769707127602
% es.EY (V/m) @ t=2
0.5250123855731368
% es.EZ (V/m) @ t=2
-1.2301721417733456
% es.tEX (V/m) @ t=2
-1.3785769707127544
% es.tEY (V/m) @ t=2
0
% es.tEZ (V/m) @ t=2
-1.2301721417733518
% es.Ex (V/m) @ t=2
-1.3785769707127602
% es.Ey (V/m) @ t=2
0.5250123855731368
% es.Ez (V/m) @ t=2
-1.2301721417733456
% es.tEx (V/m) @ t=2
-1.3785769707127544
% es.tEy (V/m) @ t=2
0
% es.tEz (V/m) @ t=2
-1.2301721417733518
% V (V) @ t=2
0.019596764364266425
% es.normE (V/m) @ t=2.1
2.0089599062835255
% es.EX (V/m) @ t=2.1
-1.438228314259221
% es.EY (V/m) @ t=2.1
0.5477290136311317
% es.EZ (V/m) @ t=2.1
-1.2834020400875392
% es.tEX (V/m) @ t=2.1
-1.4382283142592307
% es.tEY (V/m) @ t=2.1
0
% es.tEZ (V/m) @ t=2.1
-1.2834020400875374
% es.Ex (V/m) @ t=2.1
-1.438228314259221
% es.Ey (V/m) @ t=2.1
0.5477290136311317
% es.Ez (V/m) @ t=2.1
-1.2834020400875392
% es.tEx (V/m) @ t=2.1
-1.4382283142592307
% es.tEy (V/m) @ t=2.1
0
% es.tEz (V/m) @ t=2.1
-1.2834020400875374
% V (V) @ t=2.1
0.02044474147141513
% es.normE (V/m) @ t=2.2
2.094849756230179
% es.EX (V/m) @ t=2.2
-1.4997176760184523
% es.EY (V/m) @ t=2.2
0.5711452553928456
% es.EZ (V/m) @ t=2.2
-1.338272124008661
% es.tEX (V/m) @ t=2.2
-1.4997176760184372
% es.tEY (V/m) @ t=2.2
0
% es.tEZ (V/m) @ t=2.2
-1.3382721240086717
% es.Ex (V/m) @ t=2.2
-1.4997176760184523
% es.Ey (V/m) @ t=2.2
0.5711452553928456
% es.Ez (V/m) @ t=2.2
-1.338272124008661
% es.tEx (V/m) @ t=2.2
-1.4997176760184372
% es.tEy (V/m) @ t=2.2
0
% es.tEz (V/m) @ t=2.2
-1.3382721240086717
% V (V) @ t=2.2
0.021318856196397902
% es.normE (V/m) @ t=2.3
2.1863914595068623
% es.EX (V/m) @ t=2.3
-1.5652525260680799
% es.EY (V/m) @ t=2.3
0.5961057377373651
% es.EZ (V/m) @ t=2.3
-1.3967518900017701
% es.tEX (V/m) @ t=2.3
-1.5652525260680763
% es.tEY (V/m) @ t=2.3
0
% es.tEZ (V/m) @ t=2.3
-1.3967518900017701
% es.Ex (V/m) @ t=2.3
-1.5652525260680799
% es.Ey (V/m) @ t=2.3
0.5961057377373651
% es.Ez (V/m) @ t=2.3
-1.3967518900017701
% es.tEx (V/m) @ t=2.3
-1.5652525260680763
% es.tEy (V/m) @ t=2.3
0
% es.tEz (V/m) @ t=2.3
-1.3967518900017701
% V (V) @ t=2.3
0.02225038395217488
% es.normE (V/m) @ t=2.4
2.2815808439016596
% es.EX (V/m) @ t=2.4
-1.6333985746909492
% es.EY (V/m) @ t=2.4
0.6220616696935544
% es.EZ (V/m) @ t=2.4
-1.4575616701988316
% es.tEX (V/m) @ t=2.4
-1.633398574690938
% es.tEY (V/m) @ t=2.4
0
% es.tEZ (V/m) @ t=2.4
-1.4575616701988139
% es.Ex (V/m) @ t=2.4
-1.6333985746909492
% es.Ey (V/m) @ t=2.4
0.6220616696935544
% es.Ez (V/m) @ t=2.4
-1.4575616701988316
% es.tEx (V/m) @ t=2.4
-1.633398574690938
% es.tEy (V/m) @ t=2.4
0
% es.tEz (V/m) @ t=2.4
-1.4575616701988139
% V (V) @ t=2.4
0.023219003737041242
% es.normE (V/m) @ t=2.5
2.380307875791471
% es.EX (V/m) @ t=2.5
-1.7040770761083768
% es.EY (V/m) @ t=2.5
0.6489829213847615
% es.EZ (V/m) @ t=2.5
-1.5206312079136968
% es.tEX (V/m) @ t=2.5
-1.7040770761083701
% es.tEY (V/m) @ t=2.5
0
% es.tEZ (V/m) @ t=2.5
-1.5206312079137163
% es.Ex (V/m) @ t=2.5
-1.7040770761083768
% es.Ey (V/m) @ t=2.5
0.6489829213847615
% es.Ez (V/m) @ t=2.5
-1.5206312079136968
% es.tEx (V/m) @ t=2.5
-1.7040770761083701
% es.tEy (V/m) @ t=2.5
0
% es.tEz (V/m) @ t=2.5
-1.5206312079137163
% V (V) @ t=2.5
0.024223599881630316
% es.normE (V/m) @ t=2.6
2.4825725551821605
% es.EX (V/m) @ t=2.6
-1.7772880303204417
% es.EY (V/m) @ t=2.6
0.6768694928109937
% es.EZ (V/m) @ t=2.6
-1.5859605031463442
% es.tEX (V/m) @ t=2.6
-1.7772880303204364
% es.tEY (V/m) @ t=2.6
0
% es.tEZ (V/m) @ t=2.6
-1.5859605031463353
% es.Ex (V/m) @ t=2.6
-1.7772880303204417
% es.Ey (V/m) @ t=2.6
0.6768694928109937
% es.Ez (V/m) @ t=2.6
-1.5859605031463442
% es.tEx (V/m) @ t=2.6
-1.7772880303204364
% es.tEy (V/m) @ t=2.6
0
% es.tEz (V/m) @ t=2.6
-1.5859605031463353
% V (V) @ t=2.6
0.025264172385942116
% es.normE (V/m) @ t=2.7
2.58837488207988
% es.EX (V/m) @ t=2.7
-1.8530314373270902
% es.EY (V/m) @ t=2.7
0.7057213839722678
% es.EZ (V/m) @ t=2.7
-1.6535495558967668
% es.tEX (V/m) @ t=2.7
-1.8530314373270809
% es.tEY (V/m) @ t=2.7
0
% es.tEZ (V/m) @ t=2.7
-1.6535495558967632
% es.Ex (V/m) @ t=2.7
-1.8530314373270902
% es.Ey (V/m) @ t=2.7
0.7057213839722678
% es.Ez (V/m) @ t=2.7
-1.6535495558967668
% es.tEx (V/m) @ t=2.7
-1.8530314373270809
% es.tEy (V/m) @ t=2.7
0
% es.tEz (V/m) @ t=2.7
-1.6535495558967632
% V (V) @ t=2.7
0.02634072124997662
% es.normE (V/m) @ t=2.8
2.6983542480168827
% es.EX (V/m) @ t=2.8
-1.9317654465924705
% es.EY (V/m) @ t=2.8
0.7357110474442674
% es.EZ (V/m) @ t=2.8
-1.7238073687228788
% es.tEX (V/m) @ t=2.8
-1.9317654465924683
% es.tEY (V/m) @ t=2.8
0
% es.tEZ (V/m) @ t=2.8
-1.7238073687228805
% es.Ex (V/m) @ t=2.8
-1.9317654465924705
% es.Ey (V/m) @ t=2.8
0.7357110474442674
% es.Ez (V/m) @ t=2.8
-1.7238073687228788
% es.tEx (V/m) @ t=2.8
-1.9317654465924683
% es.tEy (V/m) @ t=2.8
0
% es.tEz (V/m) @ t=2.8
-1.7238073687228805
% V (V) @ t=2.8
0.02745981277814268
% es.normE (V/m) @ t=2.9
2.813873329900639
% es.EX (V/m) @ t=2.9
-2.01446647033605
% es.EY (V/m) @ t=2.9
0.7672060156926168
% es.EZ (V/m) @ t=2.9
-1.7976056115200585
% es.tEX (V/m) @ t=2.9
-2.014466470336041
% es.tEY (V/m) @ t=2.9
0
% es.tEZ (V/m) @ t=2.9
-1.797605611520055
% es.Ex (V/m) @ t=2.9
-2.01446647033605
% es.Ey (V/m) @ t=2.9
0.7672060156926168
% es.Ez (V/m) @ t=2.9
-1.7976056115200585
% es.tEx (V/m) @ t=2.9
-2.014466470336041
% es.tEy (V/m) @ t=2.9
0
% es.tEz (V/m) @ t=2.9
-1.797605611520055
% V (V) @ t=2.9
0.02863544113689419
% es.normE (V/m) @ t=3
2.933658303660743
% es.EX (V/m) @ t=3
-2.1002217629393685
% es.EY (V/m) @ t=3
0.7998627210713849
% es.EZ (V/m) @ t=3
-1.8741294513091837
% es.tEX (V/m) @ t=3
-2.100221762939361
% es.tEY (V/m) @ t=3
0
% es.tEZ (V/m) @ t=3
-1.874129451309198
% es.Ex (V/m) @ t=3
-2.1002217629393685
% es.Ey (V/m) @ t=3
0.7998627210713849
% es.Ez (V/m) @ t=3
-1.8741294513091837
% es.tEx (V/m) @ t=3
-2.100221762939361
% es.tEy (V/m) @ t=3
0
% es.tEz (V/m) @ t=3
-1.874129451309198
% V (V) @ t=3
0.029854524644274124
% es.normE (V/m) @ t=3.1
3.0577091693040046
% es.EX (V/m) @ t=3.1
-2.1890313244024333
% es.EY (V/m) @ t=3.1
0.8336811635806844
% es.EZ (V/m) @ t=3.1
-1.9533788880902456
% es.tEX (V/m) @ t=3.1
-2.1890313244024293
% es.tEY (V/m) @ t=3.1
0
% es.tEZ (V/m) @ t=3.1
-1.9533788880902527
% es.Ex (V/m) @ t=3.1
-2.1890313244024333
% es.Ey (V/m) @ t=3.1
0.8336811635806844
% es.Ez (V/m) @ t=3.1
-1.9533788880902456
% es.tEx (V/m) @ t=3.1
-2.1890313244024293
% es.tEy (V/m) @ t=3.1
0
% es.tEz (V/m) @ t=3.1
-1.9533788880902527
% V (V) @ t=3.1
0.03111706330028252
% es.normE (V/m) @ t=3.2
3.18602592683945
% es.EX (V/m) @ t=3.2
-2.280895154725332
% es.EY (V/m) @ t=3.2
0.8686613432205021
% es.EZ (V/m) @ t=3.2
-2.03535392186323
% es.tEX (V/m) @ t=3.2
-2.280895154725328
% es.tEY (V/m) @ t=3.2
0
% es.tEZ (V/m) @ t=3.2
-2.0353539218632477
% es.Ex (V/m) @ t=3.2
-2.280895154725332
% es.Ey (V/m) @ t=3.2
0.8686613432205021
% es.Ez (V/m) @ t=3.2
-2.03535392186323
% es.tEx (V/m) @ t=3.2
-2.280895154725328
% es.tEy (V/m) @ t=3.2
0
% es.tEz (V/m) @ t=3.2
-2.0353539218632477
% V (V) @ t=3.2
0.03242305710491937
% es.normE (V/m) @ t=3.3
3.3186085762776827
% es.EX (V/m) @ t=3.3
-2.3758132539079955
% es.EY (V/m) @ t=3.3
0.904803259990743
% es.EZ (V/m) @ t=3.3
-2.120054552628158
% es.tEX (V/m) @ t=3.3
-2.3758132539080004
% es.tEY (V/m) @ t=3.3
0
% es.tEZ (V/m) @ t=3.3
-2.120054552628144
% es.Ex (V/m) @ t=3.3
-2.3758132539079955
% es.Ey (V/m) @ t=3.3
0.904803259990743
% es.Ez (V/m) @ t=3.3
-2.120054552628158
% es.tEx (V/m) @ t=3.3
-2.3758132539080004
% es.tEy (V/m) @ t=3.3
0
% es.tEz (V/m) @ t=3.3
-2.120054552628144
% V (V) @ t=3.3
0.03377250605818465
% es.normE (V/m) @ t=3.4
3.4558385407567522
% es.EX (V/m) @ t=3.4
-2.474058021021929
% es.EY (V/m) @ t=3.4
0.9422139689176579
% es.EZ (V/m) @ t=3.4
-2.207723578357067
% es.tEX (V/m) @ t=3.4
-2.474058021021916
% es.tEY (V/m) @ t=3.4
0
% es.tEZ (V/m) @ t=3.4
-2.207723578357058
% es.Ex (V/m) @ t=3.4
-2.474058021021929
% es.Ey (V/m) @ t=3.4
0.9422139689176579
% es.Ez (V/m) @ t=3.4
-2.207723578357067
% es.tEx (V/m) @ t=3.4
-2.474058021021916
% es.tEy (V/m) @ t=3.4
0
% es.tEz (V/m) @ t=3.4
-2.207723578357058
% V (V) @ t=3.4
0.035169194745348006
% es.normE (V/m) @ t=3.5
3.5977156222643707
% es.EX (V/m) @ t=3.5
-2.5756293146636664
% es.EY (V/m) @ t=3.5
0.9808934144284951
% es.EZ (V/m) @ t=3.5
-2.298360873012504
% es.tEX (V/m) @ t=3.5
-2.5756293146636615
% es.tEY (V/m) @ t=3.5
0
% es.tEZ (V/m) @ t=3.5
-2.2983608730125127
% es.Ex (V/m) @ t=3.5
-2.5756293146636664
% es.Ey (V/m) @ t=3.5
0.9808934144284951
% es.Ez (V/m) @ t=3.5
-2.298360873012504
% es.tEx (V/m) @ t=3.5
-2.5756293146636615
% es.tEy (V/m) @ t=3.5
0
% es.tEz (V/m) @ t=3.5
-2.2983608730125127
% V (V) @ t=3.5
0.0366131212018152
% es.normE (V/m) @ t=3.6
3.7440510802986937
% es.EX (V/m) @ t=3.6
-2.6803923429645238
% es.EY (V/m) @ t=3.6
1.0207886222346385
% es.EZ (V/m) @ t=3.6
-2.391846292306866
% es.tEX (V/m) @ t=3.6
-2.6803923429645113
% es.tEY (V/m) @ t=3.6
0
% es.tEZ (V/m) @ t=3.6
-2.3918462923068766
% es.Ex (V/m) @ t=3.6
-2.6803923429645238
% es.Ey (V/m) @ t=3.6
1.0207886222346385
% es.Ez (V/m) @ t=3.6
-2.391846292306866
% es.tEx (V/m) @ t=3.6
-2.6803923429645113
% es.tEy (V/m) @ t=3.6
0
% es.tEz (V/m) @ t=3.6
-2.3918462923068766
% V (V) @ t=3.6
0.03810241269241839
% es.normE (V/m) @ t=3.7
3.8948449148586377
% es.EX (V/m) @ t=3.7
-2.788347105924312
% es.EY (V/m) @ t=3.7
1.0618995923359895
% es.EZ (V/m) @ t=3.7
-2.488179836240276
% es.tEX (V/m) @ t=3.7
-2.7883471059243163
% es.tEY (V/m) @ t=3.7
0
% es.tEZ (V/m) @ t=3.7
-2.488179836240292
% es.Ex (V/m) @ t=3.7
-2.788347105924312
% es.Ey (V/m) @ t=3.7
1.0618995923359895
% es.Ez (V/m) @ t=3.7
-2.488179836240276
% es.tEx (V/m) @ t=3.7
-2.7883471059243163
% es.tEy (V/m) @ t=3.7
0
% es.tEz (V/m) @ t=3.7
-2.488179836240292
% V (V) @ t=3.7
0.03963706921715755
% es.normE (V/m) @ t=3.8
4.050097125943463
% es.EX (V/m) @ t=3.8
-2.899493603543256
% es.EY (V/m) @ t=3.8
1.1042263247327249
% es.EZ (V/m) @ t=3.8
-2.5873615048125345
% es.tEX (V/m) @ t=3.8
-2.8994936035432275
% es.tEY (V/m) @ t=3.8
0
% es.tEZ (V/m) @ t=3.8
-2.5873615048125416
% es.Ex (V/m) @ t=3.8
-2.899493603543256
% es.Ey (V/m) @ t=3.8
1.1042263247327249
% es.Ez (V/m) @ t=3.8
-2.5873615048125345
% es.tEx (V/m) @ t=3.8
-2.8994936035432275
% es.tEy (V/m) @ t=3.8
0
% es.tEz (V/m) @ t=3.8
-2.5873615048125416
% V (V) @ t=3.8
0.0412170907760327
% es.normE (V/m) @ t=3.9
4.2098077135525465
% es.EX (V/m) @ t=3.9
-3.0138318358211995
% es.EY (V/m) @ t=3.9
1.1477688194247095
% es.EZ (V/m) @ t=3.9
-2.689391298023871
% es.tEX (V/m) @ t=3.9
-3.013831835821172
% es.tEY (V/m) @ t=3.9
0
% es.tEZ (V/m) @ t=3.9
-2.6893912980238994
% es.Ex (V/m) @ t=3.9
-3.0138318358211995
% es.Ey (V/m) @ t=3.9
1.1477688194247095
% es.Ez (V/m) @ t=3.9
-2.689391298023871
% es.tEx (V/m) @ t=3.9
-3.013831835821172
% es.tEy (V/m) @ t=3.9
0
% es.tEz (V/m) @ t=3.9
-2.6893912980238994
% V (V) @ t=3.9
0.04284247736904382
% es.normE (V/m) @ t=4
4.3721587504930675
% es.EX (V/m) @ t=4
-3.130059365533949
% es.EY (V/m) @ t=4
1.192035960581677
% es.EZ (V/m) @ t=4
-2.7931065511745885
% es.tEX (V/m) @ t=4
-3.1300593655339206
% es.tEY (V/m) @ t=4
0
% es.tEZ (V/m) @ t=4
-2.7931065511745814
% es.Ex (V/m) @ t=4
-3.130059365533949
% es.Ey (V/m) @ t=4
1.192035960581677
% es.Ez (V/m) @ t=4
-2.7931065511745885
% es.tEx (V/m) @ t=4
-3.1300593655339206
% es.tEy (V/m) @ t=4
0
% es.tEz (V/m) @ t=4
-2.7931065511745814
% V (V) @ t=4
0.044494584879977844
% es.normE (V/m) @ t=4.1
4.537996308991929
% es.EX (V/m) @ t=4.1
-3.248782353341487
% es.EY (V/m) @ t=4.1
1.2372563159151726
% es.EZ (V/m) @ t=4.1
-2.8990483741075614
% es.tEX (V/m) @ t=4.1
-3.2487823533414684
% es.tEY (V/m) @ t=4.1
0
% es.tEZ (V/m) @ t=4.1
-2.899048374107551
% es.Ex (V/m) @ t=4.1
-3.248782353341487
% es.Ey (V/m) @ t=4.1
1.2372563159151726
% es.Ez (V/m) @ t=4.1
-2.8990483741075614
% es.tEx (V/m) @ t=4.1
-3.2487823533414684
% es.tEy (V/m) @ t=4.1
0
% es.tEz (V/m) @ t=4.1
-2.899048374107551
% V (V) @ t=4.1
0.04618209037178887
% es.normE (V/m) @ t=4.2
4.707233741679003
% es.EX (V/m) @ t=4.2
-3.3699387215180705
% es.EY (V/m) @ t=4.2
1.2834064774994083
% es.EZ (V/m) @ t=4.2
-3.0071613510382527
% es.tEX (V/m) @ t=4.2
-3.3699387215180767
% es.tEY (V/m) @ t=4.2
0
% es.tEZ (V/m) @ t=4.2
-3.007161351038256
% es.Ex (V/m) @ t=4.2
-3.3699387215180705
% es.Ey (V/m) @ t=4.2
1.2834064774994083
% es.Ez (V/m) @ t=4.2
-3.0071613510382527
% es.tEx (V/m) @ t=4.2
-3.3699387215180767
% es.tEy (V/m) @ t=4.2
0
% es.tEz (V/m) @ t=4.2
-3.007161351038256
% V (V) @ t=4.2
0.04790410521482737
% es.normE (V/m) @ t=4.3
4.879732312433259
% es.EX (V/m) @ t=4.3
-3.493429073823278
% es.EY (V/m) @ t=4.3
1.3304489655495626
% es.EZ (V/m) @ t=4.3
-3.1173567525464385
% es.tEX (V/m) @ t=4.3
-3.493429073823272
% es.tEY (V/m) @ t=4.3
0
% es.tEZ (V/m) @ t=4.3
-3.117356752546435
% es.Ex (V/m) @ t=4.3
-3.493429073823278
% es.Ey (V/m) @ t=4.3
1.3304489655495626
% es.Ez (V/m) @ t=4.3
-3.1173567525464385
% es.tEx (V/m) @ t=4.3
-3.493429073823272
% es.tEy (V/m) @ t=4.3
0
% es.tEz (V/m) @ t=4.3
-3.117356752546435
% V (V) @ t=4.3
0.04965920657272092
% es.normE (V/m) @ t=4.4
5.0553532851465315
% es.EX (V/m) @ t=4.4
-3.619154014016888
% es.EY (V/m) @ t=4.4
1.3783463002804233
% es.EZ (V/m) @ t=4.4
-3.229545849211952
% es.tEX (V/m) @ t=4.4
-3.6191540140168676
% es.tEY (V/m) @ t=4.4
0
% es.tEZ (V/m) @ t=4.4
-3.2295458492119664
% es.Ex (V/m) @ t=4.4
-3.619154014016888
% es.Ey (V/m) @ t=4.4
1.3783463002804233
% es.Ez (V/m) @ t=4.4
-3.229545849211952
% es.tEx (V/m) @ t=4.4
-3.6191540140168676
% es.tEy (V/m) @ t=4.4
0
% es.tEz (V/m) @ t=4.4
-3.2295458492119664
% V (V) @ t=4.4
0.05144597160909718
% es.normE (V/m) @ t=4.5
5.232983615189655
% es.EX (V/m) @ t=4.5
-3.7463181978427995
% es.EY (V/m) @ t=4.5
1.4267880799190351
% es.EZ (V/m) @ t=4.5
-3.343019571955253
% es.tEX (V/m) @ t=4.5
-3.7463181978428146
% es.tEY (V/m) @ t=4.5
0
% es.tEZ (V/m) @ t=4.5
-3.3430195719552884
% es.Ex (V/m) @ t=4.5
-3.7463181978427995
% es.Ey (V/m) @ t=4.5
1.4267880799190351
% es.Ez (V/m) @ t=4.5
-3.343019571955253
% es.tEx (V/m) @ t=4.5
-3.7463181978428146
% es.tEy (V/m) @ t=4.5
0
% es.tEz (V/m) @ t=4.5
-3.3430195719552884
% V (V) @ t=4.5
0.05325329293625058
% es.normE (V/m) @ t=4.6
5.4100473463081205
% es.EX (V/m) @ t=4.6
-3.873081324170255
% es.EY (V/m) @ t=4.6
1.4750541138838802
% es.EZ (V/m) @ t=4.6
-3.456137419785126
% es.tEX (V/m) @ t=4.6
-3.8730813241702506
% es.tEY (V/m) @ t=4.6
0
% es.tEZ (V/m) @ t=4.6
-3.4561374197851435
% es.Ex (V/m) @ t=4.6
-3.873081324170255
% es.Ey (V/m) @ t=4.6
1.4750541138838802
% es.Ez (V/m) @ t=4.6
-3.456137419785126
% es.tEx (V/m) @ t=4.6
-3.8730813241702506
% es.tEy (V/m) @ t=4.6
0
% es.tEz (V/m) @ t=4.6
-3.4561374197851435
% V (V) @ t=4.6
0.05505552193888116
% es.normE (V/m) @ t=4.7
5.587857750013481
% es.EX (V/m) @ t=4.7
-4.0003811649221825
% es.EY (V/m) @ t=4.7
1.5235136567883796
% es.EZ (V/m) @ t=4.7
-3.5697351526537346
% es.tEX (V/m) @ t=4.7
-4.000381164922144
% es.tEY (V/m) @ t=4.7
0
% es.tEZ (V/m) @ t=4.7
-3.5697351526537417
% es.Ex (V/m) @ t=4.7
-4.0003811649221825
% es.Ey (V/m) @ t=4.7
1.5235136567883796
% es.Ez (V/m) @ t=4.7
-3.5697351526537346
% es.tEx (V/m) @ t=4.7
-4.000381164922144
% es.tEy (V/m) @ t=4.7
0
% es.tEz (V/m) @ t=4.7
-3.5697351526537417
% V (V) @ t=4.7
0.05686566862342666
% es.normE (V/m) @ t=4.8
5.765994734810468
% es.EX (V/m) @ t=4.8
-4.127917351726589
% es.EY (V/m) @ t=4.8
1.5720504159005966
% es.EZ (V/m) @ t=4.8
-3.6835449027845755
% es.tEX (V/m) @ t=4.8
-4.127917351726596
% es.tEY (V/m) @ t=4.8
0
% es.tEZ (V/m) @ t=4.8
-3.683544902784611
% es.Ex (V/m) @ t=4.8
-4.127917351726589
% es.Ey (V/m) @ t=4.8
1.5720504159005966
% es.Ez (V/m) @ t=4.8
-3.6835449027845755
% es.tEx (V/m) @ t=4.8
-4.127917351726596
% es.tEy (V/m) @ t=4.8
0
% es.tEz (V/m) @ t=4.8
-3.683544902784611
% V (V) @ t=4.8
0.058679513500775604
% es.normE (V/m) @ t=4.9
5.944038209372374
% es.EX (V/m) @ t=4.9
-4.255389516211703
% es.EY (V/m) @ t=4.9
1.6205480984894223
% es.EZ (V/m) @ t=4.9
-3.7972988024014427
% es.tEX (V/m) @ t=4.9
-4.255389516211709
% es.tEY (V/m) @ t=4.9
0
% es.tEZ (V/m) @ t=4.9
-3.797298802401478
% es.Ex (V/m) @ t=4.9
-4.255389516211703
% es.Ey (V/m) @ t=4.9
1.6205480984894223
% es.Ez (V/m) @ t=4.9
-3.7972988024014427
% es.tEx (V/m) @ t=4.9
-4.255389516211709
% es.tEy (V/m) @ t=4.9
0
% es.tEz (V/m) @ t=4.9
-3.797298802401478
% V (V) @ t=4.9
0.06049283708181658
% es.normE (V/m) @ t=5
6.1215680825852035
% es.EX (V/m) @ t=5
-4.382497290005545
% es.EY (V/m) @ t=5
1.6688904118232202
% es.EZ (V/m) @ t=5
-3.910728983727587
% es.tEX (V/m) @ t=5
-4.3824972900055545
% es.tEY (V/m) @ t=5
0
% es.tEZ (V/m) @ t=5
-3.910728983727587
% es.Ex (V/m) @ t=5
-4.382497290005545
% es.Ey (V/m) @ t=5
1.6688904118232202
% es.Ez (V/m) @ t=5
-3.910728983727587
% es.tEx (V/m) @ t=5
-4.3824972900055545
% es.tEy (V/m) @ t=5
0
% es.tEz (V/m) @ t=5
-3.910728983727587
% V (V) @ t=5
0.06230141987743814
% es.normE (V/m) @ t=5.1
6.296131775021976
% es.EX (V/m) @ t=5.1
-4.507475618458464
% es.EY (V/m) @ t=5.1
1.7164515932977409
% es.EZ (V/m) @ t=5.1
-4.0222563613481555
% es.tEX (V/m) @ t=5.1
-4.5074756184584555
% es.tEY (V/m) @ t=5.1
0
% es.tEZ (V/m) @ t=5.1
-4.022256361348191
% es.Ex (V/m) @ t=5.1
-4.507475618458464
% es.Ey (V/m) @ t=5.1
1.7164515932977409
% es.Ez (V/m) @ t=5.1
-4.0222563613481555
% es.tEx (V/m) @ t=5.1
-4.5074756184584555
% es.tEy (V/m) @ t=5.1
0
% es.tEz (V/m) @ t=5.1
-4.022256361348191
% V (V) @ t=5.1
0.06407894268680775
% es.normE (V/m) @ t=5.2
6.466832663422119
% es.EX (V/m) @ t=5.2
-4.629680727402694
% es.EY (V/m) @ t=5.2
1.7629959014571916
% es.EZ (V/m) @ t=5.2
-4.131305643471833
% es.tEX (V/m) @ t=5.2
-4.629680727402672
% es.tEY (V/m) @ t=5.2
0
% es.tEZ (V/m) @ t=5.2
-4.131305643471812
% es.Ex (V/m) @ t=5.2
-4.629680727402694
% es.Ey (V/m) @ t=5.2
1.7629959014571916
% es.Ez (V/m) @ t=5.2
-4.131305643471833
% es.tEx (V/m) @ t=5.2
-4.629680727402672
% es.tEy (V/m) @ t=5.2
0
% es.tEz (V/m) @ t=5.2
-4.131305643471812
% V (V) @ t=5.2
0.06581600459103838
% es.normE (V/m) @ t=5.3
6.63389828353038
% es.EX (V/m) @ t=5.3
-4.749278952692288
% es.EY (V/m) @ t=5.3
1.8085693798646876
% es.EZ (V/m) @ t=5.3
-4.238026765657395
% es.tEX (V/m) @ t=5.3
-4.749278952692297
% es.tEY (V/m) @ t=5.3
0
% es.tEZ (V/m) @ t=5.3
-4.238026765657409