% Model:              1x1--2 - Copy1.mph
% Version:            COMSOL 6.1.0.252
% Date:               Apr 3 2023, 14:34
% Dimension:          0
% Nodes:              14017
% Expressions:        14017
% Description:        Electric field norm, Electric field, X component, Electric field, Y component, Electric field, Z component, Tangential electric field, X component, Tangential electric field, Y component, Tangential electric field, Z component, Electric field, x component, Electric field, y component, Electric field, z component, Tangential electric field, x component, Tangential electric field, y component, Tangential electric field, z component, Electric potential
% Length unit:        mm
% x
1.0000000000000002
% y
12.2
% z
2
% es.normE (V/m) @ t=0
0.8657622854674916
% es.EX (V/m) @ t=0
0.6013644948646863
% es.EY (V/m) @ t=0
0.09004793930889884
% es.EZ (V/m) @ t=0
-0.6004884922272511
% es.tEX (V/m) @ t=0
0.6013644948646863
% es.tEY (V/m) @ t=0
0
% es.tEZ (V/m) @ t=0
-0.6004884922272367
% es.Ex (V/m) @ t=0
0.6013644948646863
% es.Ey (V/m) @ t=0
0.09004793930889884
% es.Ez (V/m) @ t=0
-0.6004884922272511
% es.tEx (V/m) @ t=0
0.6013644948646863
% es.tEy (V/m) @ t=0
0
% es.tEz (V/m) @ t=0
-0.6004884922272367
% V (V) @ t=0
0.009271165514328125
% es.normE (V/m) @ t=0.1
0.8799529175754566
% es.EX (V/m) @ t=0.1
0.6112214084958401
% es.EY (V/m) @ t=0.1
0.0915238918577777
% es.EZ (V/m) @ t=0.1
-0.6103310480811774
% es.tEX (V/m) @ t=0.1
0.6112214084958421
% es.tEY (V/m) @ t=0.1
0
% es.tEZ (V/m) @ t=0.1
-0.610331048081163
% es.Ex (V/m) @ t=0.1
0.6112214084958401
% es.Ey (V/m) @ t=0.1
0.0915238918577777
% es.Ez (V/m) @ t=0.1
-0.6103310480811774
% es.tEx (V/m) @ t=0.1
0.6112214084958421
% es.tEy (V/m) @ t=0.1
0
% es.tEz (V/m) @ t=0.1
-0.610331048081163
% V (V) @ t=0.1
0.009423128782828201
% es.normE (V/m) @ t=0.2
0.9217378928827558
% es.EX (V/m) @ t=0.2
0.6402455467458217
% es.EY (V/m) @ t=0.2
0.09586991636544384
% es.EZ (V/m) @ t=0.2
-0.6393129083548026
% es.tEX (V/m) @ t=0.2
0.6402455467458212
% es.tEY (V/m) @ t=0.2
0
% es.tEZ (V/m) @ t=0.2
-0.6393129083547917
% es.Ex (V/m) @ t=0.2
0.6402455467458217
% es.Ey (V/m) @ t=0.2
0.09586991636544384
% es.Ez (V/m) @ t=0.2
-0.6393129083548026
% es.tEx (V/m) @ t=0.2
0.6402455467458212
% es.tEy (V/m) @ t=0.2
0
% es.tEz (V/m) @ t=0.2
-0.6393129083547917
% V (V) @ t=0.2
0.009870591296670967
% es.normE (V/m) @ t=0.3
0.9648614711490004
% es.EX (V/m) @ t=0.3
0.6701994856921254
% es.EY (V/m) @ t=0.3
0.100355186296881
% es.EZ (V/m) @ t=0.3
-0.6692232138765724
% es.tEX (V/m) @ t=0.3
0.6701994856921303
% es.tEY (V/m) @ t=0.3
0
% es.tEZ (V/m) @ t=0.3
-0.6692232138765615
% es.Ex (V/m) @ t=0.3
0.6701994856921254
% es.Ey (V/m) @ t=0.3
0.100355186296881
% es.Ez (V/m) @ t=0.3
-0.6692232138765724
% es.tEx (V/m) @ t=0.3
0.6701994856921303
% es.tEy (V/m) @ t=0.3
0
% es.tEz (V/m) @ t=0.3
-0.6692232138765615
% V (V) @ t=0.3
0.010332387982090458
% es.normE (V/m) @ t=0.4
1.010421914402223
% es.EX (V/m) @ t=0.4
0.7018460864883007
% es.EY (V/m) @ t=0.4
0.10509392416175334
% es.EZ (V/m) @ t=0.4
-0.7008237154823522
% es.tEX (V/m) @ t=0.4
0.7018460864883056
% es.tEY (V/m) @ t=0.4
0
% es.tEZ (V/m) @ t=0.4
-0.7008237154823345
% es.Ex (V/m) @ t=0.4
0.7018460864883007
% es.Ey (V/m) @ t=0.4
0.10509392416175334
% es.Ez (V/m) @ t=0.4
-0.7008237154823522
% es.tEx (V/m) @ t=0.4
0.7018460864883056
% es.tEy (V/m) @ t=0.4
0
% es.tEz (V/m) @ t=0.4
-0.7008237154823345
% V (V) @ t=0.4
0.010820279998997028
% es.normE (V/m) @ t=0.5
1.0585054965398735
% es.EX (V/m) @ t=0.5
0.7352451825661339
% es.EY (V/m) @ t=0.5
0.11009572717180544
% es.EZ (V/m) @ t=0.5
-0.7341741472160455
% es.tEX (V/m) @ t=0.5
0.7352451825661346
% es.tEY (V/m) @ t=0.5
0
% es.tEZ (V/m) @ t=0.5
-0.7341741472160379
% es.Ex (V/m) @ t=0.5
0.7352451825661339
% es.Ey (V/m) @ t=0.5
0.11009572717180544
% es.Ez (V/m) @ t=0.5
-0.7341741472160455
% es.tEx (V/m) @ t=0.5
0.7352451825661346
% es.tEy (V/m) @ t=0.5
0
% es.tEz (V/m) @ t=0.5
-0.7341741472160379
% V (V) @ t=0.5
0.01133517416917724
% es.normE (V/m) @ t=0.6
1.1103475464006913
% es.EX (V/m) @ t=0.6
0.7712547829443299
% es.EY (V/m) @ t=0.6
0.11548947719275554
% es.EZ (V/m) @ t=0.6
-0.770131260545543
% es.tEX (V/m) @ t=0.6
0.7712547829443324
% es.tEY (V/m) @ t=0.6
0
% es.tEZ (V/m) @ t=0.6
-0.7701312605455319
% es.Ex (V/m) @ t=0.6
0.7712547829443299
% es.Ey (V/m) @ t=0.6
0.11548947719275554
% es.Ez (V/m) @ t=0.6
-0.770131260545543
% es.tEx (V/m) @ t=0.6
0.7712547829443324
% es.tEy (V/m) @ t=0.6
0
% es.tEz (V/m) @ t=0.6
-0.7701312605455319
% V (V) @ t=0.6
0.011890288418710234
% es.normE (V/m) @ t=0.7
1.1621895962648376
% es.EX (V/m) @ t=0.7
0.807264383322521
% es.EY (V/m) @ t=0.7
0.1208832272137012
% es.EZ (V/m) @ t=0.7
-0.8060883738750406
% es.tEX (V/m) @ t=0.7
0.8072643833225288
% es.tEY (V/m) @ t=0.7
0
% es.tEZ (V/m) @ t=0.7
-0.8060883738750331
% es.Ex (V/m) @ t=0.7
0.807264383322521
% es.Ey (V/m) @ t=0.7
0.1208832272137012
% es.Ez (V/m) @ t=0.7
-0.8060883738750406
% es.tEx (V/m) @ t=0.7
0.8072643833225288
% es.tEy (V/m) @ t=0.7
0
% es.tEz (V/m) @ t=0.7
-0.8060883738750331
% V (V) @ t=0.7
0.01244540266824323
% es.normE (V/m) @ t=0.8
1.2159153580486657
% es.EX (V/m) @ t=0.8
0.8445826337300086
% es.EY (V/m) @ t=0.8
0.126471527750961
% es.EZ (V/m) @ t=0.8
-0.8433522474141779
% es.tEX (V/m) @ t=0.8
0.844582633730012
% es.tEY (V/m) @ t=0.8
0
% es.tEZ (V/m) @ t=0.8
-0.8433522474141597
% es.Ex (V/m) @ t=0.8
0.8445826337300086
% es.Ey (V/m) @ t=0.8
0.126471527750961
% es.Ez (V/m) @ t=0.8
-0.8433522474141779
% es.tEx (V/m) @ t=0.8
0.844582633730012
% es.tEy (V/m) @ t=0.8
0
% es.tEz (V/m) @ t=0.8
-0.8433522474141597
% V (V) @ t=0.8
0.013020726288746133
% es.normE (V/m) @ t=0.9
1.2739874886655196
% es.EX (V/m) @ t=0.9
0.8849203881491647
% es.EY (V/m) @ t=0.9
0.13250872298981708
% es.EZ (V/m) @ t=0.9
-0.8836312645035131
% es.tEX (V/m) @ t=0.9
0.8849203881491676
% es.tEY (V/m) @ t=0.9
0
% es.tEZ (V/m) @ t=0.9
-0.8836312645034949
% es.Ex (V/m) @ t=0.9
0.8849203881491647
% es.Ey (V/m) @ t=0.9
0.13250872298981708
% es.Ez (V/m) @ t=0.9
-0.8836312645035131
% es.tEx (V/m) @ t=0.9
0.8849203881491676
% es.tEy (V/m) @ t=0.9
0
% es.tEz (V/m) @ t=0.9
-0.8836312645034949
% V (V) @ t=0.9
0.013642679852588003
% es.normE (V/m) @ t=1
1.332059619292842
% es.EX (V/m) @ t=1
0.925258142568312
% es.EY (V/m) @ t=1
0.13854591822867585
% es.EZ (V/m) @ t=1
-0.9239102815928413
% es.tEX (V/m) @ t=1
0.9252581425683166
% es.tEY (V/m) @ t=1
0
% es.tEZ (V/m) @ t=1
-0.9239102815928373
% es.Ex (V/m) @ t=1
0.925258142568312
% es.Ey (V/m) @ t=1
0.13854591822867585
% es.Ez (V/m) @ t=1
-0.9239102815928413
% es.tEx (V/m) @ t=1
0.9252581425683166
% es.tEy (V/m) @ t=1
0
% es.tEz (V/m) @ t=1
-0.9239102815928373
% V (V) @ t=1
0.01426463341642987
% es.normE (V/m) @ t=1.1
1.3939001235808488
% es.EX (V/m) @ t=1.1
0.9682128220931363
% es.EY (V/m) @ t=1.1
0.14497902501098053
% es.EZ (V/m) @ t=1.1
-0.9668023753713118
% es.tEX (V/m) @ t=1.1
0.9682128220931365
% es.tEY (V/m) @ t=1.1
0
% es.tEZ (V/m) @ t=1.1
-0.9668023753712935
% es.Ex (V/m) @ t=1.1
0.9682128220931363
% es.Ey (V/m) @ t=1.1
0.14497902501098053
% es.Ez (V/m) @ t=1.1
-0.9668023753713118
% es.tEx (V/m) @ t=1.1
0.9682128220931365
% es.tEy (V/m) @ t=1.1
0
% es.tEz (V/m) @ t=1.1
-0.9668023753712935
% V (V) @ t=1.1
0.014926833921121763
% es.normE (V/m) @ t=1.2
1.4590586277438964
% es.EX (V/m) @ t=1.2
1.0134716672676187
% es.EY (V/m) @ t=1.2
0.1517607263238167
% es.EZ (V/m) @ t=1.2
-1.0119952463229098
% es.tEX (V/m) @ t=1.2
1.0134716672676207
% es.tEY (V/m) @ t=1.2
0
% es.tEZ (V/m) @ t=1.2
-1.0119952463228987
% es.Ex (V/m) @ t=1.2
1.0134716672676187
% es.Ey (V/m) @ t=1.2
0.1517607263238167
% es.Ez (V/m) @ t=1.2
-1.0119952463229098
% es.tEx (V/m) @ t=1.2
1.0134716672676207
% es.tEy (V/m) @ t=1.2
0
% es.tEz (V/m) @ t=1.2
-1.0119952463228987
% V (V) @ t=1.2
0.015624471289638824
% es.normE (V/m) @ t=1.3
1.5242171319272078
% es.EX (V/m) @ t=1.3
1.058730512442095
% es.EY (V/m) @ t=1.3
0.15854242763666326
% es.EZ (V/m) @ t=1.3
-1.0571881172745203
% es.tEX (V/m) @ t=1.3
1.0587305124420996
% es.tEY (V/m) @ t=1.3
0
% es.tEZ (V/m) @ t=1.3
-1.0571881172744986
% es.Ex (V/m) @ t=1.3
1.058730512442095
% es.Ey (V/m) @ t=1.3
0.15854242763666326
% es.Ez (V/m) @ t=1.3
-1.0571881172745203
% es.tEx (V/m) @ t=1.3
1.0587305124420996
% es.tEy (V/m) @ t=1.3
0
% es.tEz (V/m) @ t=1.3
-1.0571881172744986
% V (V) @ t=1.3
0.01632210865815589
% es.normE (V/m) @ t=1.4
1.5955375952669684
% es.EX (V/m) @ t=1.4
1.1082706288815738
% es.EY (V/m) @ t=1.4
0.16595764526052098
% es.EZ (V/m) @ t=1.4
-1.1066561126850956
% es.tEX (V/m) @ t=1.4
1.108270628881575
% es.tEY (V/m) @ t=1.4
0
% es.tEZ (V/m) @ t=1.4
-1.106656112685081
% es.Ex (V/m) @ t=1.4
1.1082706288815738
% es.Ey (V/m) @ t=1.4
0.16595764526052098
% es.Ez (V/m) @ t=1.4
-1.1066561126850956
% es.tEx (V/m) @ t=1.4
1.108270628881575
% es.tEy (V/m) @ t=1.4
0
% es.tEz (V/m) @ t=1.4
-1.106656112685081
% V (V) @ t=1.4
0.017085933139316504
% es.normE (V/m) @ t=1.5
1.6687911868658933
% es.EX (V/m) @ t=1.5
1.1591538646387605
% es.EY (V/m) @ t=1.5
0.17357160945813183
% es.EZ (V/m) @ t=1.5
-1.1574652990389729
% es.tEX (V/m) @ t=1.5
1.159153864638765
% es.tEY (V/m) @ t=1.5
0
% es.tEZ (V/m) @ t=1.5
-1.157465299038944
% es.Ex (V/m) @ t=1.5
1.1591538646387605
% es.Ey (V/m) @ t=1.5
0.17357160945813183
% es.Ez (V/m) @ t=1.5
-1.1574652990389729
% es.tEx (V/m) @ t=1.5
1.159153864638765
% es.tEy (V/m) @ t=1.5
0
% es.tEz (V/m) @ t=1.5
-1.157465299038944
% V (V) @ t=1.5
0.01787052182439536
% es.normE (V/m) @ t=1.6
1.742044778489402
% es.EX (V/m) @ t=1.6
1.2100371003959585
% es.EY (V/m) @ t=1.6
0.18118557365576077
% es.EZ (V/m) @ t=1.6
-1.2082744853928569
% es.tEX (V/m) @ t=1.6
1.210037100395959
% es.tEY (V/m) @ t=1.6
0
% es.tEZ (V/m) @ t=1.6
-1.2082744853928205
% es.Ex (V/m) @ t=1.6
1.2100371003959585
% es.Ey (V/m) @ t=1.6
0.18118557365576077
% es.Ez (V/m) @ t=1.6
-1.2082744853928569
% es.tEx (V/m) @ t=1.6
1.210037100395959
% es.tEy (V/m) @ t=1.6
0
% es.tEz (V/m) @ t=1.6
-1.2082744853928205
% V (V) @ t=1.6
0.01865511050947422
% es.normE (V/m) @ t=1.7
1.8203417931577905
% es.EX (V/m) @ t=1.7
1.2644231117890645
% es.EY (V/m) @ t=1.7
0.18932686296117396
% es.EZ (V/m) @ t=1.7
-1.2625813087536266
% es.tEX (V/m) @ t=1.7
1.264423111789064
% es.tEY (V/m) @ t=1.7
0
% es.tEZ (V/m) @ t=1.7
-1.262581308753612
% es.Ex (V/m) @ t=1.7
1.2644231117890645
% es.Ey (V/m) @ t=1.7
0.18932686296117396
% es.Ez (V/m) @ t=1.7
-1.2625813087536266
% es.tEx (V/m) @ t=1.7
1.264423111789064
% es.tEy (V/m) @ t=1.7
0
% es.tEz (V/m) @ t=1.7
-1.262581308753612
% V (V) @ t=1.7
0.019493632574802786
% es.normE (V/m) @ t=1.8
1.9013810954815502
% es.EX (V/m) @ t=1.8
1.3207137063052228
% es.EY (V/m) @ t=1.8
0.19775487759670662
% es.EZ (V/m) @ t=1.8
-1.3187899211829088
% es.tEX (V/m) @ t=1.8
1.320713706305222
% es.tEY (V/m) @ t=1.8
0
% es.tEZ (V/m) @ t=1.8
-1.3187899211829013
% es.Ex (V/m) @ t=1.8
1.3207137063052228
% es.Ey (V/m) @ t=1.8
0.19775487759670662
% es.Ez (V/m) @ t=1.8
-1.3187899211829088
% es.tEx (V/m) @ t=1.8
1.320713706305222
% es.tEy (V/m) @ t=1.8
0
% es.tEz (V/m) @ t=1.8
-1.3187899211829013
% V (V) @ t=1.8
0.02036148012839283
% es.normE (V/m) @ t=1.9
1.985127616720476
% es.EX (V/m) @ t=1.9
1.378884527883026
% es.EY (V/m) @ t=1.9
0.20646595088088582
% es.EZ (V/m) @ t=1.9
-1.3768760023500795
% es.tEX (V/m) @ t=1.9
1.3788845278830433
% es.tEY (V/m) @ t=1.9
0
% es.tEZ (V/m) @ t=1.9
-1.3768760023500644
% es.Ex (V/m) @ t=1.9
1.378884527883026
% es.Ey (V/m) @ t=1.9
0.20646595088088582
% es.Ez (V/m) @ t=1.9
-1.3768760023500795
% es.tEx (V/m) @ t=1.9
1.3788845278830433
% es.tEy (V/m) @ t=1.9
0
% es.tEz (V/m) @ t=1.9
-1.3768760023500644
% V (V) @ t=1.9
0.021258278152013626
% es.normE (V/m) @ t=2
2.0715813568776076
% es.EX (V/m) @ t=2
1.438935576522502
% es.EY (V/m) @ t=2
0.2154600828136084
% es.EZ (V/m) @ t=2
-1.4368395522551038
% es.tEX (V/m) @ t=2
1.4389355765225034
% es.tEY (V/m) @ t=2
0
% es.tEZ (V/m) @ t=2
-1.4368395522550887
% es.Ex (V/m) @ t=2
1.438935576522502
% es.Ey (V/m) @ t=2
0.2154600828136084
% es.Ez (V/m) @ t=2
-1.4368395522551038
% es.tEx (V/m) @ t=2
1.4389355765225034
% es.tEy (V/m) @ t=2
0
% es.tEz (V/m) @ t=2
-1.4368395522550887
% V (V) @ t=2
0.02218402664566517
% es.normE (V/m) @ t=2.1
2.1607423159602313
% es.EX (V/m) @ t=2.1
1.500866852223595
% es.EY (V/m) @ t=2.1
0.22473727339501282
% es.EZ (V/m) @ t=2.1
-1.4986805708980073
% es.tEX (V/m) @ t=2.1
1.5008668522235995
% es.tEY (V/m) @ t=2.1
0
% es.tEZ (V/m) @ t=2.1
-1.4986805708979851
% es.Ex (V/m) @ t=2.1
1.500866852223595
% es.Ey (V/m) @ t=2.1
0.22473727339501282
% es.Ez (V/m) @ t=2.1
-1.4986805708980073
% es.tEx (V/m) @ t=2.1
1.5008668522235995
% es.tEy (V/m) @ t=2.1
0
% es.tEz (V/m) @ t=2.1
-1.4986805708979851
% V (V) @ t=2.1
0.023138725609347467
% es.normE (V/m) @ t=2.2
2.253992225541298
% es.EX (V/m) @ t=2.2
1.565638340030691
% es.EY (V/m) @ t=2.2
0.23443975826502128
% es.EZ (V/m) @ t=2.2
-1.5633576659698347
% es.tEX (V/m) @ t=2.2
1.5656383400306986
% es.tEY (V/m) @ t=2.2
0
% es.tEZ (V/m) @ t=2.2
-1.5633576659698125
% es.Ex (V/m) @ t=2.2
1.565638340030691
% es.Ey (V/m) @ t=2.2
0.23443975826502128
% es.Ez (V/m) @ t=2.2
-1.5633576659698347
% es.tEx (V/m) @ t=2.2
1.5656383400306986
% es.tEy (V/m) @ t=2.2
0
% es.tEz (V/m) @ t=2.2
-1.5633576659698125
% V (V) @ t=2.2
0.024137211778858667
% es.normE (V/m) @ t=2.3
2.352385668438716
% es.EX (V/m) @ t=2.3
1.6339827319972455
% es.EY (V/m) @ t=2.3
0.2446760963266017
% es.EZ (V/m) @ t=2.3
-1.63160247828288
% es.tEX (V/m) @ t=2.3
1.6339827319972482
% es.tEY (V/m) @ t=2.3
0
% es.tEZ (V/m) @ t=2.3
-1.6316024782828435
% es.Ex (V/m) @ t=2.3
1.6339827319972455
% es.Ey (V/m) @ t=2.3
0.2446760963266017
% es.Ez (V/m) @ t=2.3
-1.63160247828288
% es.tEx (V/m) @ t=2.3
1.6339827319972482
% es.tEy (V/m) @ t=2.3
0
% es.tEz (V/m) @ t=2.3
-1.6316024782828435
% V (V) @ t=2.3
0.0251908090372983
% es.normE (V/m) @ t=2.4
2.454512676447253
% es.EX (V/m) @ t=2.4
1.704920425120354
% es.EY (V/m) @ t=2.4
0.25530114525593306
% es.EZ (V/m) @ t=2.4
-1.7024368103346434
% es.tEX (V/m) @ t=2.4
1.7049204251203642
% es.tEY (V/m) @ t=2.4
0
% es.tEZ (V/m) @ t=2.4
-1.7024368103346141
% es.Ex (V/m) @ t=2.4
1.704920425120354
% es.Ey (V/m) @ t=2.4
0.25530114525593306
% es.Ez (V/m) @ t=2.4
-1.7024368103346434
% es.tEx (V/m) @ t=2.4
1.7049204251203642
% es.tEy (V/m) @ t=2.4
0
% es.tEz (V/m) @ t=2.4
-1.7024368103346141
% V (V) @ t=2.4
0.026284377449906457
% es.normE (V/m) @ t=2.5
2.5603732495682356
% es.EX (V/m) @ t=2.5
1.7784514193999947
% es.EY (V/m) @ t=2.5
0.26631490505304356
% es.EZ (V/m) @ t=2.5
-1.7758606621251927
% es.tEX (V/m) @ t=2.5
1.7784514194000014
% es.tEY (V/m) @ t=2.5
0
% es.tEZ (V/m) @ t=2.5
-1.7758606621251705
% es.Ex (V/m) @ t=2.5
1.7784514193999947
% es.Ey (V/m) @ t=2.5
0.26631490505304356
% es.Ez (V/m) @ t=2.5
-1.7758606621251927
% es.tEx (V/m) @ t=2.5
1.7784514194000014
% es.tEy (V/m) @ t=2.5
0
% es.tEz (V/m) @ t=2.5
-1.7758606621251705
% V (V) @ t=2.5
0.027417917016683106
% es.normE (V/m) @ t=2.6
2.6699673878029673
% es.EX (V/m) @ t=2.6
1.8545757148361983
% es.EY (V/m) @ t=2.6
0.2777173757178515
% es.EZ (V/m) @ t=2.6
-1.8518740336545152
% es.tEX (V/m) @ t=2.6
1.854575714836204
% es.tEY (V/m) @ t=2.6
0
% es.tEZ (V/m) @ t=2.6
-1.851874033654493
% es.Ex (V/m) @ t=2.6
1.8545757148361983
% es.Ey (V/m) @ t=2.6
0.2777173757178515
% es.Ez (V/m) @ t=2.6
-1.8518740336545152
% es.tEx (V/m) @ t=2.6
1.854575714836204
% es.tEy (V/m) @ t=2.6
0
% es.tEz (V/m) @ t=2.6
-1.851874033654493
% V (V) @ t=2.6
0.02859142773762826
% es.normE (V/m) @ t=2.7
2.783295091152665
% es.EX (V/m) @ t=2.7
1.9332933114289417
% es.EY (V/m) @ t=2.7
0.2895085572505265
% es.EZ (V/m) @ t=2.7
-1.9304769249225222
% es.tEX (V/m) @ t=2.7
1.933293311428944
% es.tEY (V/m) @ t=2.7
0
% es.tEZ (V/m) @ t=2.7
-1.9304769249225
% es.Ex (V/m) @ t=2.7
1.9332933114289417
% es.Ey (V/m) @ t=2.7
0.2895085572505265
% es.Ez (V/m) @ t=2.7
-1.9304769249225222
% es.tEx (V/m) @ t=2.7
1.933293311428944
% es.tEy (V/m) @ t=2.7
0
% es.tEz (V/m) @ t=2.7
-1.9304769249225
% V (V) @ t=2.7
0.02980490961274194
% es.normE (V/m) @ t=2.8
2.902681694315367
% es.EX (V/m) @ t=2.8
2.0162195821374866
% es.EY (V/m) @ t=2.8
0.3019291789652401
% es.EZ (V/m) @ t=2.8
-2.0132823577191354
% es.tEX (V/m) @ t=2.8
2.0162195821374906
% es.tEY (V/m) @ t=2.8
0
% es.tEZ (V/m) @ t=2.8
-2.0132823577191132
% es.Ex (V/m) @ t=2.8
2.0162195821374866
% es.Ey (V/m) @ t=2.8
0.3019291789652401
% es.Ez (V/m) @ t=2.8
-2.0132823577191354
% es.tEx (V/m) @ t=2.8
2.0162195821374906
% es.tEy (V/m) @ t=2.8
0
% es.tEz (V/m) @ t=2.8
-2.0132823577191132
% V (V) @ t=2.8
0.031083294251491044
% es.normE (V/m) @ t=2.9
3.02679412823014
% es.EX (V/m) @ t=2.9
2.1024284651299987
% es.EY (V/m) @ t=2.9
0.3148412354383626
% es.EZ (V/m) @ t=2.9
-2.0993656180920874
% es.tEX (V/m) @ t=2.9
2.10242846513001
% es.tEY (V/m) @ t=2.9
0
% es.tEZ (V/m) @ t=2.9
-2.099365618092044
% es.Ex (V/m) @ t=2.9
2.1024284651299987
% es.Ey (V/m) @ t=2.9
0.3148412354383626
% es.Ez (V/m) @ t=2.9
-2.0993656180920874
% es.tEx (V/m) @ t=2.9
2.10242846513001
% es.tEy (V/m) @ t=2.9
0
% es.tEz (V/m) @ t=2.9
-2.099365618092044
% V (V) @ t=2.9
0.03241228884811747
% es.normE (V/m) @ t=3
3.1554340248386965
% es.EX (V/m) @ t=3
2.1917821572778515
% es.EY (V/m) @ t=3
0.328224190698432
% es.EZ (V/m) @ t=3
-2.188589103484632
% es.tEX (V/m) @ t=3
2.191782157277869
% es.tEY (V/m) @ t=3
0
% es.tEZ (V/m) @ t=3
-2.1885891034845883
% es.Ex (V/m) @ t=3
2.1917821572778515
% es.Ey (V/m) @ t=3
0.328224190698432
% es.Ez (V/m) @ t=3
-2.188589103484632
% es.tEx (V/m) @ t=3
2.191782157277869
% es.tEy (V/m) @ t=3
0
% es.tEz (V/m) @ t=3
-2.1885891034845883
% V (V) @ t=3
0.03378976655397807
% es.normE (V/m) @ t=3.1
3.2886013841407373
% es.EX (V/m) @ t=3.1
2.284280658581022
% es.EY (V/m) @ t=3.1
0.3420780447456716
% es.EZ (V/m) @ t=3.1
-2.28095281389691
% es.tEX (V/m) @ t=3.1
2.2842806585810456
% es.tEY (V/m) @ t=3.1
0
% es.tEZ (V/m) @ t=3.1
-2.2809528138968513
% es.Ex (V/m) @ t=3.1
2.284280658581022
% es.Ey (V/m) @ t=3.1
0.3420780447456716
% es.Ez (V/m) @ t=3.1
-2.28095281389691
% es.tEx (V/m) @ t=3.1
2.2842806585810456
% es.tEy (V/m) @ t=3.1
0
% es.tEz (V/m) @ t=3.1
-2.2809528138968513
% V (V) @ t=3.1
0.035215727369072865
% es.normE (V/m) @ t=3.2
3.426296206135822
% es.EX (V/m) @ t=3.2
2.3799239690395293
% es.EY (V/m) @ t=3.2
0.35640279757994775
% es.EZ (V/m) @ t=3.2
-2.376456749328775
% es.tEX (V/m) @ t=3.2
2.3799239690395364
% es.tEY (V/m) @ t=3.2
0
% es.tEZ (V/m) @ t=3.2
-2.3764567493287174
% es.Ex (V/m) @ t=3.2
2.3799239690395293
% es.Ey (V/m) @ t=3.2
0.35640279757994775
% es.Ez (V/m) @ t=3.2
-2.376456749328775
% es.tEx (V/m) @ t=3.2
2.3799239690395364
% es.tEy (V/m) @ t=3.2
0
% es.tEz (V/m) @ t=3.2
-2.3764567493287174
% V (V) @ t=3.2
0.03669017129340185
% es.normE (V/m) @ t=3.3
3.56886638394729
% es.EX (V/m) @ t=3.3
2.4789541146365535
% es.EY (V/m) @ t=3.3
0.37123215611415583
% es.EZ (V/m) @ t=3.3
-2.475342617718998
% es.tEX (V/m) @ t=3.3
2.478954114636567
% es.tEY (V/m) @ t=3.3
0
% es.tEZ (V/m) @ t=3.3
-2.4753426177189546
% es.Ex (V/m) @ t=3.3
2.4789541146365535
% es.Ey (V/m) @ t=3.3
0.37123215611415583
% es.Ez (V/m) @ t=3.3
-2.475342617718998
% es.tEx (V/m) @ t=3.3
2.478954114636567
% es.tEy (V/m) @ t=3.3
0
% es.tEz (V/m) @ t=3.3
-2.4753426177189546
% V (V) @ t=3.3
0.03821689120839734
% es.normE (V/m) @ t=3.4
3.716782980178129
% es.EX (V/m) @ t=3.4
2.581698809199235
% es.EY (V/m) @ t=3.4
0.38661176099121763
% es.EZ (V/m) @ t=3.4
-2.577937702248586
% es.tEX (V/m) @ t=3.4
2.5816988091992243
% es.tEY (V/m) @ t=3.4
0
% es.tEZ (V/m) @ t=3.4
-2.577937702248514
% es.Ex (V/m) @ t=3.4
2.581698809199235
% es.Ey (V/m) @ t=3.4
0.38661176099121763
% es.Ez (V/m) @ t=3.4
-2.577937702248586
% es.tEx (V/m) @ t=3.4
2.5816988091992243
% es.tEy (V/m) @ t=3.4
0
% es.tEz (V/m) @ t=3.4
-2.577937702248514
% V (V) @ t=3.4
0.039801022842356176
% es.normE (V/m) @ t=3.5
3.869547803199124
% es.EX (V/m) @ t=3.5
2.6878114654705154
% es.EY (V/m) @ t=3.5
0.40249334306917306
% es.EZ (V/m) @ t=3.5
-2.6838958711081125
% es.tEX (V/m) @ t=3.5
2.687811465470528
% es.tEY (V/m) @ t=3.5
0
% es.tEZ (V/m) @ t=3.5
-2.6838958711080405
% es.Ex (V/m) @ t=3.5
2.6878114654705154
% es.Ey (V/m) @ t=3.5
0.40249334306917306
% es.Ez (V/m) @ t=3.5
-2.6838958711081125
% es.tEx (V/m) @ t=3.5
2.687811465470528
% es.tEy (V/m) @ t=3.5
0
% es.tEz (V/m) @ t=3.5
-2.6838958711080405
% V (V) @ t=3.5
0.041437134694267845
% es.normE (V/m) @ t=3.6
4.0271608530305745
% es.EX (V/m) @ t=3.6
2.7972920834503903
% es.EY (V/m) @ t=3.6
0.41887690234820063
% es.EZ (V/m) @ t=3.6
-2.7932171242975414
% es.tEX (V/m) @ t=3.6
2.7972920834503885
% es.tEY (V/m) @ t=3.6
0
% es.tEZ (V/m) @ t=3.6
-2.7932171242974686
% es.Ex (V/m) @ t=3.6
2.7972920834503903
% es.Ey (V/m) @ t=3.6
0.41887690234820063
% es.Ez (V/m) @ t=3.6
-2.7932171242975414
% es.tEx (V/m) @ t=3.6
2.7972920834503885
% es.tEy (V/m) @ t=3.6
0
% es.tEz (V/m) @ t=3.6
-2.7932171242974686
% V (V) @ t=3.6
0.04312522676413234
% es.normE (V/m) @ t=3.7
4.1896221296953975
% es.EX (V/m) @ t=3.7
2.910140663138894
% es.EY (V/m) @ t=3.7
0.43576243882815846
% es.EZ (V/m) @ t=3.7
-2.9059014618168266
% es.tEX (V/m) @ t=3.7
2.910140663138904
% es.tEY (V/m) @ t=3.7
0
% es.tEZ (V/m) @ t=3.7
-2.9059014618168106
% es.Ex (V/m) @ t=3.7
2.910140663138894
% es.Ey (V/m) @ t=3.7
0.43576243882815846
% es.Ez (V/m) @ t=3.7
-2.9059014618168266
% es.tEx (V/m) @ t=3.7
2.910140663138904
% es.tEy (V/m) @ t=3.7
0
% es.tEz (V/m) @ t=3.7
-2.9059014618168106
% V (V) @ t=3.7
0.04486529905194969
% es.normE (V/m) @ t=3.8
4.356931633218362
% es.EX (V/m) @ t=3.8
3.026357204535974
% es.EY (V/m) @ t=3.8
0.4531499525091127
% es.EZ (V/m) @ t=3.8
-3.0219488836659654
% es.tEX (V/m) @ t=3.8
3.0263572045359695
% es.tEY (V/m) @ t=3.8
0
% es.tEZ (V/m) @ t=3.8
-3.021948883665935
% es.Ex (V/m) @ t=3.8
3.026357204535974
% es.Ey (V/m) @ t=3.8
0.4531499525091127
% es.Ez (V/m) @ t=3.8
-3.0219488836659654
% es.tEx (V/m) @ t=3.8
3.0263572045359695
% es.tEy (V/m) @ t=3.8
0
% es.tEz (V/m) @ t=3.8
-3.021948883665935
% V (V) @ t=3.8
0.046657351557719884
% es.normE (V/m) @ t=3.9
4.527896684659153
% es.EX (V/m) @ t=3.9
3.14511185101676
% es.EY (V/m) @ t=3.9
0.47092461840127897
% es.EZ (V/m) @ t=3.9
-3.1405306314020613
% es.tEX (V/m) @ t=3.9
3.1451118510167664
% es.tEY (V/m) @ t=3.9
0
% es.tEZ (V/m) @ t=3.9
-3.1405306314020045
% es.Ex (V/m) @ t=3.9
3.14511185101676
% es.Ey (V/m) @ t=3.9
0.47092461840127897
% es.Ez (V/m) @ t=3.9
-3.1405306314020613
% es.tEx (V/m) @ t=3.9
3.1451118510167664
% es.tEy (V/m) @ t=3.9
0
% es.tEz (V/m) @ t=3.9
-3.1405306314020045
% V (V) @ t=3.9
0.04848836172053355
% es.normE (V/m) @ t=4
4.702788391713526
% es.EX (V/m) @ t=4
3.266593237216827
% es.EY (V/m) @ t=4
0.48911253736279514
% es.EZ (V/m) @ t=4
-3.2618350900330206
% es.tEX (V/m) @ t=4
3.266593237216835
% es.tEY (V/m) @ t=4
0
% es.tEZ (V/m) @ t=4
-3.261835090032978
% es.Ex (V/m) @ t=4
3.266593237216827
% es.Ey (V/m) @ t=4
0.48911253736279514
% es.Ez (V/m) @ t=4
-3.2618350900330206
% es.tEx (V/m) @ t=4
3.266593237216835
% es.tEy (V/m) @ t=4
0
% es.tEz (V/m) @ t=4
-3.261835090032978
% V (V) @ t=4
0.05036128969755277
% es.normE (V/m) @ t=4.1
4.881686519613858
% es.EX (V/m) @ t=4.1
3.390856863163104
% es.EY (V/m) @ t=4.1
0.5077213887803542
% es.EZ (V/m) @ t=4.1
-3.3859176861403792
% es.tEX (V/m) @ t=4.1
3.390856863163096
% es.tEY (V/m) @ t=4.1
0
% es.tEZ (V/m) @ t=4.1
-3.3859176861403206
% es.Ex (V/m) @ t=4.1
3.390856863163104
% es.Ey (V/m) @ t=4.1
0.5077213887803542
% es.Ez (V/m) @ t=4.1
-3.3859176861403792
% es.tEx (V/m) @ t=4.1
3.390856863163096
% es.tEy (V/m) @ t=4.1
0
% es.tEz (V/m) @ t=4.1
-3.3859176861403206
% V (V) @ t=4.1
0.052277006425345336
% es.normE (V/m) @ t=4.2
5.064476803360156
% es.EX (V/m) @ t=4.2
3.517823224159872
% es.EY (V/m) @ t=4.2
0.526740171807071
% es.EZ (V/m) @ t=4.2
-3.51269902024014
% es.tEX (V/m) @ t=4.2
3.5178232241598852
% es.tEY (V/m) @ t=4.2
0
% es.tEZ (V/m) @ t=4.2
-3.5126990202400954
% es.Ex (V/m) @ t=4.2
3.517823224159872
% es.Ey (V/m) @ t=4.2
0.526740171807071
% es.Ez (V/m) @ t=4.2
-3.51269902024014
% es.tEx (V/m) @ t=4.2
3.5178232241598852
% es.tEy (V/m) @ t=4.2
0
% es.tEz (V/m) @ t=4.2
-3.5126990202400954
% V (V) @ t=4.2
0.05423426427304247
% es.normE (V/m) @ t=4.3
5.251044977979273
% es.EX (V/m) @ t=4.3
3.6474128155114736
% es.EY (V/m) @ t=4.3
0.5461578855956961
% es.EZ (V/m) @ t=4.3
-3.6420996928483085
% es.tEX (V/m) @ t=4.3
3.647412815511485
% es.tEY (V/m) @ t=4.3
0
% es.tEZ (V/m) @ t=4.3
-3.6420996928482374
% es.Ex (V/m) @ t=4.3
3.6474128155114736
% es.Ey (V/m) @ t=4.3
0.5461578855956961
% es.Ez (V/m) @ t=4.3
-3.6420996928483085
% es.tEx (V/m) @ t=4.3
3.647412815511485
% es.tEy (V/m) @ t=4.3
0
% es.tEz (V/m) @ t=4.3
-3.6420996928482374
% V (V) @ t=4.3
0.056231815609775436
% es.normE (V/m) @ t=4.4
5.440389460882279
% es.EX (V/m) @ t=4.4
3.7789308053361497
% es.EY (V/m) @ t=4.4
0.5658646519116557
% es.EZ (V/m) @ t=4.4
-3.7734259518747937
% es.tEX (V/m) @ t=4.4
3.7789308053361683
% es.tEY (V/m) @ t=4.4
0
% es.tEZ (V/m) @ t=4.4
-3.7734259518747493
% es.Ex (V/m) @ t=4.4
3.7789308053361497
% es.Ey (V/m) @ t=4.4
0.5658646519116557
% es.Ez (V/m) @ t=4.4
-3.7734259518747937
% es.tEx (V/m) @ t=4.4
3.7789308053361683
% es.tEy (V/m) @ t=4.4
0
% es.tEz (V/m) @ t=4.4
-3.7734259518747493
% V (V) @ t=4.4
0.05825908969600359
% es.normE (V/m) @ t=4.5
5.629955599924386
% es.EX (V/m) @ t=4.5
3.910605356382013
% es.EY (V/m) @ t=4.5
0.5855775277193107
% es.EZ (V/m) @ t=4.5
-3.9049087456640574
% es.tEX (V/m) @ t=4.5
3.910605356382028
% es.tEY (V/m) @ t=4.5
0
% es.tEZ (V/m) @ t=4.5
-3.9049087456639846
% es.Ex (V/m) @ t=4.5
3.910605356382013
% es.Ey (V/m) @ t=4.5
0.5855775277193107
% es.Ez (V/m) @ t=4.5
-3.9049087456640574
% es.tEx (V/m) @ t=4.5
3.910605356382028
% es.tEy (V/m) @ t=4.5
0
% es.tEz (V/m) @ t=4.5
-3.9049087456639846
% V (V) @ t=4.5
0.06028919758241374
% es.normE (V/m) @ t=4.6
5.821030151110197
% es.EX (V/m) @ t=4.6
4.043328528444904
% es.EY (V/m) @ t=4.6
0.60544163359885
% es.EZ (V/m) @ t=4.6
-4.037438700420497
% es.tEX (V/m) @ t=4.6
4.043328528444912
% es.tEY (V/m) @ t=4.6
0
% es.tEZ (V/m) @ t=4.6
-4.037438700420424
% es.Ex (V/m) @ t=4.6
4.043328528444904
% es.Ey (V/m) @ t=4.6
0.60544163359885
% es.Ez (V/m) @ t=4.6
-4.037438700420497
% es.tEx (V/m) @ t=4.6
4.043328528444912
% es.tEy (V/m) @ t=4.6
0
% es.tEz (V/m) @ t=4.6
-4.037438700420424
% V (V) @ t=4.6
0.06233561226407148
% es.normE (V/m) @ t=4.7
6.0132165918869465
% es.EX (V/m) @ t=4.7
4.176825079963591
% es.EY (V/m) @ t=4.7
0.6254145155991906
% es.EZ (V/m) @ t=4.7
-4.170740989810385
% es.tEX (V/m) @ t=4.7
4.176825079963599
% es.tEY (V/m) @ t=4.7
0
% es.tEZ (V/m) @ t=4.7
-4.1707409898103265
% es.Ex (V/m) @ t=4.7
4.176825079963591
% es.Ey (V/m) @ t=4.7
0.6254145155991906
% es.Ez (V/m) @ t=4.7
-4.170740989810385
% es.tEx (V/m) @ t=4.7
4.176825079963599
% es.tEy (V/m) @ t=4.7
0
% es.tEz (V/m) @ t=4.7
-4.1707409898103265
% V (V) @ t=4.7
0.06439412040972915
% es.normE (V/m) @ t=4.8
6.206118399747151
% es.EX (V/m) @ t=4.8
4.310819769376695
% es.EY (V/m) @ t=4.8
0.6454537197695014
% es.EZ (V/m) @ t=4.8
-4.304540787500374
% es.tEX (V/m) @ t=4.8
4.310819769376701
% es.tEY (V/m) @ t=4.8
0
% es.tEZ (V/m) @ t=4.8
-4.304540787500287
% es.Ex (V/m) @ t=4.8
4.310819769376695
% es.Ey (V/m) @ t=4.8
0.6454537197695014
% es.Ez (V/m) @ t=4.8
-4.304540787500374
% es.tEx (V/m) @ t=4.8
4.310819769376701
% es.tEy (V/m) @ t=4.8
0
% es.tEz (V/m) @ t=4.8
-4.304540787500287
% V (V) @ t=4.8
0.06646050868813917
% es.normE (V/m) @ t=4.9
6.399339052242778
% es.EX (V/m) @ t=4.9
4.445037355122943
% es.EY (V/m) @ t=4.9
0.6655167921586018
% es.EZ (V/m) @ t=4.9
-4.438563267156338
% es.tEX (V/m) @ t=4.9
4.445037355122963
% es.tEY (V/m) @ t=4.9
0
% es.tEZ (V/m) @ t=4.9
-4.438563267156223
% es.Ex (V/m) @ t=4.9
4.445037355122943
% es.Ey (V/m) @ t=4.9
0.6655167921586018
% es.Ez (V/m) @ t=4.9
-4.438563267156338
% es.tEx (V/m) @ t=4.9
4.445037355122963
% es.tEy (V/m) @ t=4.9
0
% es.tEz (V/m) @ t=4.9
-4.438563267156223
% V (V) @ t=4.9
0.06853056376805383
% es.normE (V/m) @ t=5
6.589749501207528
% es.EX (V/m) @ t=5
4.577301137682185
% es.EY (V/m) @ t=5
0.6852994312015575
% es.EZ (V/m) @ t=5
-4.570634646955954
% es.tEX (V/m) @ t=5
4.577301137682216
% es.tEY (V/m) @ t=5
0
% es.tEZ (V/m) @ t=5
-4.570634646955895
% es.Ex (V/m) @ t=5
4.577301137682185
% es.Ey (V/m) @ t=5
0.6852994312015575
% es.Ez (V/m) @ t=5
-4.570634646955954
% es.tEx (V/m) @ t=5
4.577301137682216
% es.tEy (V/m) @ t=5
0
% es.tEz (V/m) @ t=5
-4.570634646955895
% V (V) @ t=5
0.07057020329647501
% es.normE (V/m) @ t=5.1
6.7770964163257235
% es.EX (V/m) @ t=5.1
4.7074355175083795
% es.EY (V/m) @ t=5.1
0.7047729045361537
% es.EZ (V/m) @ t=5.1
-4.700579611443919
% es.tEX (V/m) @ t=5.1
4.7074355175083795
% es.tEY (V/m) @ t=5.1
0
% es.tEZ (V/m) @ t=5.1
-4.70057961144386
% es.Ex (V/m) @ t=5.1
4.7074355175083795
% es.Ey (V/m) @ t=5.1
0.7047729045361537
% es.Ez (V/m) @ t=5.1
-4.700579611443919
% es.tEx (V/m) @ t=5.1
4.7074355175083795
% es.tEy (V/m) @ t=5.1
0
% es.tEz (V/m) @ t=5.1
-4.70057961144386
% V (V) @ t=5.1
0.07257677916714908
% es.normE (V/m) @ t=5.2
6.961411719907409
% es.EX (V/m) @ t=5.2
4.835463391138832
% es.EY (V/m) @ t=5.2
0.723935814469908
% es.EZ (V/m) @ t=5.2
-4.828421080011777
% es.tEX (V/m) @ t=5.2
4.835463391138848
% es.tEY (V/m) @ t=5.2
0
% es.tEZ (V/m) @ t=5.2
-4.828421080011633
% es.Ex (V/m) @ t=5.2
4.835463391138832
% es.Ey (V/m) @ t=5.2
0.723935814469908
% es.Ez (V/m) @ t=5.2
-4.828421080011777
% es.tEx (V/m) @ t=5.2
4.835463391138848
% es.tEy (V/m) @ t=5.2
0
% es.tEz (V/m) @ t=5.2
-4.828421080011633
% V (V) @ t=5.2
0.07455076134635386
% es.normE (V/m) @ t=5.3
7.142002260281254
% es.EX (V/m) @ t=5.3
4.960903104417559
% es.EY (V/m) @ t=5.3
0.7427172822083219
% es.EZ (V/m) @ t=5.3
-4.953678085386269
% es.tEX (V/m) @ t=5.3
4.960903104417564
% es.tEY (V/m) @ t=5.3
0
% es.tEZ (V/m) @ t=5.3
-4.95367808538618
% es.Ex (V/m) @ t=5.3
4.960903104417559
% es.Ey (V/m) @ t=5.3
0.7427172822083219
% es.Ez (V/m) @ t=5.3
-4.953678085386269
% es.tEx (V/m) @ t=5.3
4.960903104417564
% es.tEy (V/m) @ t=5.3
0
% es.tEz (V/m) @ t=5.3
-4.95367808538618
% V (V) @ t=5.3