% Model:              1x1--2 - Copy1.mph
% Version:            COMSOL 6.1.0.252
% Date:               Mar 28 2023, 11:24
% Dimension:          0
% Nodes:              14017
% Expressions:        14017
% Description:        Electric field norm, Electric field, X component, Electric field, Y component, Electric field, Z component, Tangential electric field, X component, Tangential electric field, Y component, Tangential electric field, Z component, Electric field, x component, Electric field, y component, Electric field, z component, Tangential electric field, x component, Tangential electric field, y component, Tangential electric field, z component, Electric potential
% Length unit:        mm
% x
1.33
% y
12.2
% z
1
% es.normE (V/m) @ t=0
0.6859307296281718
% es.EX (V/m) @ t=0
0.5566830008525234
% es.EY (V/m) @ t=0
0.162000864179438
% es.EZ (V/m) @ t=0
-0.3395986424268732
% es.tEX (V/m) @ t=0
0.556683000852523
% es.tEY (V/m) @ t=0
0
% es.tEZ (V/m) @ t=0
-0.3395986424268713
% es.Ex (V/m) @ t=0
0.5566830008525234
% es.Ey (V/m) @ t=0
0.162000864179438
% es.Ez (V/m) @ t=0
-0.3395986424268732
% es.tEx (V/m) @ t=0
0.556683000852523
% es.tEy (V/m) @ t=0
0
% es.tEz (V/m) @ t=0
-0.3395986424268713
% V (V) @ t=0
0.012074999449771572
% es.normE (V/m) @ t=0.1
0.7085484624248974
% es.EX (V/m) @ t=0.1
0.5750382290019389
% es.EY (V/m) @ t=0.1
0.167344721166848
% es.EZ (V/m) @ t=0.1
-0.3507959686933104
% es.tEX (V/m) @ t=0.1
0.5750382290019385
% es.tEY (V/m) @ t=0.1
0
% es.tEZ (V/m) @ t=0.1
-0.350795968693312
% es.Ex (V/m) @ t=0.1
0.5750382290019389
% es.Ey (V/m) @ t=0.1
0.167344721166848
% es.Ez (V/m) @ t=0.1
-0.3507959686933104
% es.tEx (V/m) @ t=0.1
0.5750382290019385
% es.tEy (V/m) @ t=0.1
0
% es.tEz (V/m) @ t=0.1
-0.350795968693312
% V (V) @ t=0.1
0.012473086716065823
% es.normE (V/m) @ t=0.2
0.7555494536461904
% es.EX (V/m) @ t=0.2
0.6131781393321132
% es.EY (V/m) @ t=0.2
0.1784594227759599
% es.EZ (V/m) @ t=0.2
-0.3740620756681814
% es.tEX (V/m) @ t=0.2
0.6131781393321187
% es.tEY (V/m) @ t=0.2
0
% es.tEZ (V/m) @ t=0.2
-0.37406207566818495
% es.Ex (V/m) @ t=0.2
0.6131781393321132
% es.Ey (V/m) @ t=0.2
0.1784594227759599
% es.Ez (V/m) @ t=0.2
-0.3740620756681814
% es.tEx (V/m) @ t=0.2
0.6131781393321187
% es.tEy (V/m) @ t=0.2
0
% es.tEz (V/m) @ t=0.2
-0.37406207566818495
% V (V) @ t=0.2
0.013299992190496856
% es.normE (V/m) @ t=0.3
0.8049281522034458
% es.EX (V/m) @ t=0.3
0.6532507525453801
% es.EY (V/m) @ t=0.3
0.19012681815505156
% es.EZ (V/m) @ t=0.3
-0.3985076924903388
% es.tEX (V/m) @ t=0.3
0.6532507525453752
% es.tEY (V/m) @ t=0.3
0
% es.tEZ (V/m) @ t=0.3
-0.39850769249033036
% es.Ex (V/m) @ t=0.3
0.6532507525453801
% es.Ey (V/m) @ t=0.3
0.19012681815505156
% es.Ez (V/m) @ t=0.3
-0.3985076924903388
% es.tEx (V/m) @ t=0.3
0.6532507525453752
% es.tEy (V/m) @ t=0.3
0
% es.tEz (V/m) @ t=0.3
-0.39850769249033036
% V (V) @ t=0.3
0.014169062030993307
% es.normE (V/m) @ t=0.4
0.8570363745704062
% es.EX (V/m) @ t=0.4
0.6955493376020159
% es.EY (V/m) @ t=0.4
0.20240725395944048
% es.EZ (V/m) @ t=0.4
-0.42431296967498416
% es.tEX (V/m) @ t=0.4
0.6955493376020101
% es.tEY (V/m) @ t=0.4
0
% es.tEZ (V/m) @ t=0.4
-0.42431296967498255
% es.Ex (V/m) @ t=0.4
0.6955493376020159
% es.Ey (V/m) @ t=0.4
0.20240725395944048
% es.Ez (V/m) @ t=0.4
-0.42431296967498416
% es.tEx (V/m) @ t=0.4
0.6955493376020101
% es.tEy (V/m) @ t=0.4
0
% es.tEz (V/m) @ t=0.4
-0.42431296967498255
% V (V) @ t=0.4
0.015087280389090019
% es.normE (V/m) @ t=0.5
0.9129388321266472
% es.EX (V/m) @ t=0.5
0.7409128314960293
% es.EY (V/m) @ t=0.5
0.21562604912550287
% es.EZ (V/m) @ t=0.5
-0.45198566034777354
% es.tEX (V/m) @ t=0.5
0.7409128314960292
% es.tEY (V/m) @ t=0.5
0
% es.tEZ (V/m) @ t=0.5
-0.4519856603477699
% es.Ex (V/m) @ t=0.5
0.7409128314960293
% es.Ey (V/m) @ t=0.5
0.21562604912550287
% es.Ez (V/m) @ t=0.5
-0.45198566034777354
% es.tEx (V/m) @ t=0.5
0.7409128314960292
% es.tEy (V/m) @ t=0.5
0
% es.tEz (V/m) @ t=0.5
-0.4519856603477699
% V (V) @ t=0.5
0.01607082421313759
% es.normE (V/m) @ t=0.6
0.970545977661091
% es.EX (V/m) @ t=0.6
0.7876613665755845
% es.EY (V/m) @ t=0.6
0.22924286040394456
% es.EZ (V/m) @ t=0.6
-0.48050353413713076
% es.tEX (V/m) @ t=0.6
0.787661366575584
% es.tEY (V/m) @ t=0.6
0
% es.tEZ (V/m) @ t=0.6
-0.480503534137128
% es.Ex (V/m) @ t=0.6
0.7876613665755845
% es.Ey (V/m) @ t=0.6
0.22924286040394456
% es.Ez (V/m) @ t=0.6
-0.48050353413713076
% es.tEx (V/m) @ t=0.6
0.787661366575584
% es.tEy (V/m) @ t=0.6
0
% es.tEz (V/m) @ t=0.6
-0.480503534137128
% V (V) @ t=0.6
0.01708453682216484
% es.normE (V/m) @ t=0.7
1.0312201780063366
% es.EX (V/m) @ t=0.7
0.8369043088763232
% es.EY (V/m) @ t=0.7
0.24356856445238984
% es.EZ (V/m) @ t=0.7
-0.5105439445449156
% es.tEX (V/m) @ t=0.7
0.8369043088763206
% es.tEY (V/m) @ t=0.7
0
% es.tEZ (V/m) @ t=0.7
-0.5105439445449136
% es.Ex (V/m) @ t=0.7
0.8369043088763232
% es.Ey (V/m) @ t=0.7
0.24356856445238984
% es.Ez (V/m) @ t=0.7
-0.5105439445449156
% es.tEx (V/m) @ t=0.7
0.8369043088763206
% es.tEy (V/m) @ t=0.7
0
% es.tEz (V/m) @ t=0.7
-0.5105439445449136
% V (V) @ t=0.7
0.018152779423841862
% es.normE (V/m) @ t=0.8
1.0944618238146446
% es.EX (V/m) @ t=0.8
0.8882353304966905
% es.EY (V/m) @ t=0.8
0.2584876857746133
% es.EZ (V/m) @ t=0.8
-0.5418588770913908
% es.tEX (V/m) @ t=0.8
0.888235330496677
% es.tEY (V/m) @ t=0.8
0
% es.tEZ (V/m) @ t=0.8
-0.5418588770913928
% es.Ex (V/m) @ t=0.8
0.8882353304966905
% es.Ey (V/m) @ t=0.8
0.2584876857746133
% es.Ez (V/m) @ t=0.8
-0.5418588770913908
% es.tEx (V/m) @ t=0.8
0.888235330496677
% es.tEy (V/m) @ t=0.8
0
% es.tEz (V/m) @ t=0.8
-0.5418588770913928
% V (V) @ t=0.8
0.019266669323596435
% es.normE (V/m) @ t=0.9
1.1613983076128607
% es.EX (V/m) @ t=0.9
0.9425596939920795
% es.EY (V/m) @ t=0.9
0.2742949710638497
% es.EZ (V/m) @ t=0.9
-0.5749990213176194
% es.tEX (V/m) @ t=0.9
0.9425596939920666
% es.tEY (V/m) @ t=0.9
0
% es.tEZ (V/m) @ t=0.9
-0.5749990213176304
% es.Ex (V/m) @ t=0.9
0.9425596939920795
% es.Ey (V/m) @ t=0.9
0.2742949710638497
% es.Ez (V/m) @ t=0.9
-0.5749990213176194
% es.tEx (V/m) @ t=0.9
0.9425596939920666
% es.tEy (V/m) @ t=0.9
0
% es.tEz (V/m) @ t=0.9
-0.5749990213176304
% V (V) @ t=0.9
0.020445062769399207
% es.normE (V/m) @ t=1
1.2317299844263228
% es.EX (V/m) @ t=1
0.9996367935114103
% es.EY (V/m) @ t=1
0.2909120808609651
% es.EZ (V/m) @ t=1
-0.6098180118128594
% es.tEX (V/m) @ t=1
0.9996367935114066
% es.tEY (V/m) @ t=1
0
% es.tEZ (V/m) @ t=1
-0.6098180118128482
% es.Ex (V/m) @ t=1
0.9996367935114103
% es.Ey (V/m) @ t=1
0.2909120808609651
% es.Ez (V/m) @ t=1
-0.6098180118128594
% es.tEx (V/m) @ t=1
0.9996367935114066
% es.tEy (V/m) @ t=1
0
% es.tEz (V/m) @ t=1
-0.6098180118128482
% V (V) @ t=1
0.021682948039993977
% es.normE (V/m) @ t=1.1
1.3054419150712124
% es.EX (V/m) @ t=1.1
1.0594563379443227
% es.EY (V/m) @ t=1.1
0.3083301036785981
% es.EZ (V/m) @ t=1.1
-0.6463098645830608
% es.tEX (V/m) @ t=1.1
1.0594563379443152
% es.tEY (V/m) @ t=1.1
0
% es.tEZ (V/m) @ t=1.1
-0.6463098645830456
% es.Ex (V/m) @ t=1.1
1.0594563379443227
% es.Ey (V/m) @ t=1.1
0.3083301036785981
% es.Ez (V/m) @ t=1.1
-0.6463098645830608
% es.tEx (V/m) @ t=1.1
1.0594563379443152
% es.tEy (V/m) @ t=1.1
0
% es.tEz (V/m) @ t=1.1
-0.6463098645830456
% V (V) @ t=1.1
0.02298024918968399
% es.normE (V/m) @ t=1.2
1.38313398758677
% es.EX (V/m) @ t=1.2
1.1225105418402128
% es.EY (V/m) @ t=1.2
0.32667497744211516
% es.EZ (V/m) @ t=1.2
-0.6847757091221887
% es.tEX (V/m) @ t=1.2
1.1225105418402066
% es.tEY (V/m) @ t=1.2
0
% es.tEZ (V/m) @ t=1.2
-0.6847757091221922
% es.Ex (V/m) @ t=1.2
1.1225105418402128
% es.Ey (V/m) @ t=1.2
0.32667497744211516
% es.Ez (V/m) @ t=1.2
-0.6847757091221887
% es.tEx (V/m) @ t=1.2
1.1225105418402066
% es.tEy (V/m) @ t=1.2
0
% es.tEz (V/m) @ t=1.2
-0.6847757091221922
% V (V) @ t=1.2
0.02434807319392843
% es.normE (V/m) @ t=1.3
1.4645012604676055
% es.EX (V/m) @ t=1.3
1.1885491973898397
% es.EY (V/m) @ t=1.3
0.3458826840268102
% es.EZ (V/m) @ t=1.3
-0.7250624720375918
% es.tEX (V/m) @ t=1.3
1.1885491973898255
% es.tEY (V/m) @ t=1.3
0
% es.tEZ (V/m) @ t=1.3
-0.7250624720375924
% es.Ex (V/m) @ t=1.3
1.1885491973898397
% es.Ey (V/m) @ t=1.3
0.3458826840268102
% es.Ez (V/m) @ t=1.3
-0.7250624720375918
% es.tEx (V/m) @ t=1.3
1.1885491973898255
% es.tEy (V/m) @ t=1.3
0
% es.tEz (V/m) @ t=1.3
-0.7250624720375924
% V (V) @ t=1.3
0.025780774035151534
% es.normE (V/m) @ t=1.4
1.5496139135730849
% es.EX (V/m) @ t=1.4
1.2576274707536133
% es.EY (V/m) @ t=1.4
0.3659750530252596
% es.EZ (V/m) @ t=1.4
-0.7672035202138845
% es.tEX (V/m) @ t=1.4
1.2576274707536186
% es.tEY (V/m) @ t=1.4
0
% es.tEZ (V/m) @ t=1.4
-0.7672035202138758
% es.Ex (V/m) @ t=1.4
1.2576274707536133
% es.Ey (V/m) @ t=1.4
0.3659750530252596
% es.Ez (V/m) @ t=1.4
-0.7672035202138845
% es.tEx (V/m) @ t=1.4
1.2576274707536186
% es.tEy (V/m) @ t=1.4
0
% es.tEz (V/m) @ t=1.4
-0.7672035202138758
% V (V) @ t=1.4
0.027279404803350397
% es.normE (V/m) @ t=1.5
1.6385519641749797
% es.EX (V/m) @ t=1.5
1.3298082611482978
% es.EY (V/m) @ t=1.5
0.3869769740485654
% es.EZ (V/m) @ t=1.5
-0.811236897823325
% es.tEX (V/m) @ t=1.5
1.3298082611482904
% es.tEY (V/m) @ t=1.5
0
% es.tEZ (V/m) @ t=1.5
-0.8112368978233135
% es.Ex (V/m) @ t=1.5
1.3298082611482978
% es.Ey (V/m) @ t=1.5
0.3869769740485654
% es.Ez (V/m) @ t=1.5
-0.811236897823325
% es.tEx (V/m) @ t=1.5
1.3298082611482904
% es.tEy (V/m) @ t=1.5
0
% es.tEz (V/m) @ t=1.5
-0.8112368978233135
% V (V) @ t=1.5
0.028845166208083393
% es.normE (V/m) @ t=1.6
1.7312602508642205
% es.EX (V/m) @ t=1.6
1.405048207889953
% es.EY (V/m) @ t=1.6
0.4088712890045444
% es.EZ (V/m) @ t=1.6
-0.85713637844506
% es.tEX (V/m) @ t=1.6
1.4050482078899513
% es.tEY (V/m) @ t=1.6
0
% es.tEZ (V/m) @ t=1.6
-0.8571363784450554
% es.Ex (V/m) @ t=1.6
1.405048207889953
% es.Ey (V/m) @ t=1.6
0.4088712890045444
% es.Ez (V/m) @ t=1.6
-0.85713637844506
% es.tEx (V/m) @ t=1.6
1.4050482078899513
% es.tEy (V/m) @ t=1.6
0
% es.tEz (V/m) @ t=1.6
-0.8571363784450554
% V (V) @ t=1.6
0.0304772305190491
% es.normE (V/m) @ t=1.7
1.827738773636686
% es.EX (V/m) @ t=1.7
1.483347310978576
% es.EY (V/m) @ t=1.7
0.4316579978932161
% es.EZ (V/m) @ t=1.7
-0.904901962079111
% es.tEX (V/m) @ t=1.7
1.4833473109785658
% es.tEY (V/m) @ t=1.7
0
% es.tEZ (V/m) @ t=1.7
-0.9049019620791015
% es.Ex (V/m) @ t=1.7
1.483347310978576
% es.Ey (V/m) @ t=1.7
0.4316579978932161
% es.Ez (V/m) @ t=1.7
-0.904901962079111
% es.tEx (V/m) @ t=1.7
1.4833473109785658
% es.tEy (V/m) @ t=1.7
0
% es.tEz (V/m) @ t=1.7
-0.9049019620791015
% V (V) @ t=1.7
0.03217559773624751
% es.normE (V/m) @ t=1.8
1.9279875324998232
% es.EX (V/m) @ t=1.8
1.5647055704141553
% es.EY (V/m) @ t=1.8
0.45533710071453615
% es.EZ (V/m) @ t=1.8
-0.954533648725478
% es.tEX (V/m) @ t=1.8
1.564705570414148
% es.tEY (V/m) @ t=1.8
0
% es.tEZ (V/m) @ t=1.8
-0.9545336487254588
% es.Ex (V/m) @ t=1.8
1.5647055704141553
% es.Ey (V/m) @ t=1.8
0.45533710071453615
% es.Ez (V/m) @ t=1.8
-0.954533648725478
% es.tEx (V/m) @ t=1.8
1.564705570414148
% es.tEy (V/m) @ t=1.8
0
% es.tEz (V/m) @ t=1.8
-0.9545336487254588
% V (V) @ t=1.8
0.03394026785967862
% es.normE (V/m) @ t=1.9
2.0318725078564572
% es.EX (V/m) @ t=1.9
1.649014526393962
% es.EY (V/m) @ t=1.9
0.47987604458324845
% es.EZ (V/m) @ t=1.9
-1.0059653223075848
% es.tEX (V/m) @ t=1.9
1.6490145263939553
% es.tEY (V/m) @ t=1.9
0
% es.tEZ (V/m) @ t=1.9
-1.0059653223075742
% es.Ex (V/m) @ t=1.9
1.649014526393962
% es.Ey (V/m) @ t=1.9
0.47987604458324845
% es.Ez (V/m) @ t=1.9
-1.0059653223075848
% es.tEx (V/m) @ t=1.9
1.6490145263939553
% es.tEy (V/m) @ t=1.9
0
% es.tEz (V/m) @ t=1.9
-1.0059653223075742
% V (V) @ t=1.9
0.03576891288136099
% es.normE (V/m) @ t=2
2.1366100664544168
% es.EX (V/m) @ t=2
1.7340214316141562
% es.EY (V/m) @ t=2
0.5045986949062864
% es.EZ (V/m) @ t=2
-1.0578237292386388
% es.tEX (V/m) @ t=2
1.7340214316141385
% es.tEY (V/m) @ t=2
0
% es.tEZ (V/m) @ t=2
-1.0578237292386348
% es.Ex (V/m) @ t=2
1.7340214316141562
% es.Ey (V/m) @ t=2
0.5045986949062864
% es.Ez (V/m) @ t=2
-1.0578237292386388
% es.tEx (V/m) @ t=2
1.7340214316141385
% es.tEy (V/m) @ t=2
0
% es.tEz (V/m) @ t=2
-1.0578237292386348
% V (V) @ t=2
0.037613179277052475
% es.normE (V/m) @ t=2.1
2.2441814717745183
% es.EX (V/m) @ t=2.1
1.8213296889251445
% es.EY (V/m) @ t=2.1
0.5299862934687662
% es.EZ (V/m) @ t=2.1
-1.1110862888287354
% es.tEX (V/m) @ t=2.1
1.8213296889251538
% es.tEY (V/m) @ t=2.1
0
% es.tEZ (V/m) @ t=2.1
-1.11108628882873
% es.Ex (V/m) @ t=2.1
1.8213296889251445
% es.Ey (V/m) @ t=2.1
0.5299862934687662
% es.Ez (V/m) @ t=2.1
-1.1110862888287354
% es.tEx (V/m) @ t=2.1
1.8213296889251538
% es.tEy (V/m) @ t=2.1
0
% es.tEz (V/m) @ t=2.1
-1.11108628882873
% V (V) @ t=2.1
0.03950748288135161
% es.normE (V/m) @ t=2.2
2.354586723958519
% es.EX (V/m) @ t=2.2
1.91093929832704
% es.EY (V/m) @ t=2.2
0.5560388402705705
% es.EZ (V/m) @ t=2.2
-1.1657530010778387
% es.tEX (V/m) @ t=2.2
1.910939298327044
% es.tEY (V/m) @ t=2.2
0
% es.tEZ (V/m) @ t=2.2
-1.1657530010778316
% es.Ex (V/m) @ t=2.2
1.91093929832704
% es.Ey (V/m) @ t=2.2
0.5560388402705705
% es.Ez (V/m) @ t=2.2
-1.1657530010778387
% es.tEx (V/m) @ t=2.2
1.910939298327044
% es.tEy (V/m) @ t=2.2
0
% es.tEz (V/m) @ t=2.2
-1.1657530010778316
% V (V) @ t=2.2
0.04145182369425841
% es.normE (V/m) @ t=2.3
2.4678258231607995
% es.EX (V/m) @ t=2.3
2.0028502598197755
% es.EY (V/m) @ t=2.3
0.5827563353118398
% es.EZ (V/m) @ t=2.3
-1.221823865985992
% es.tEX (V/m) @ t=2.3
2.0028502598197875
% es.tEY (V/m) @ t=2.3
0
% es.tEZ (V/m) @ t=2.3
-1.2218238659859821
% es.Ex (V/m) @ t=2.3
2.0028502598197755
% es.Ey (V/m) @ t=2.3
0.5827563353118398
% es.Ez (V/m) @ t=2.3
-1.221823865985992
% es.tEx (V/m) @ t=2.3
2.0028502598197875
% es.tEy (V/m) @ t=2.3
0
% es.tEz (V/m) @ t=2.3
-1.2218238659859821
% V (V) @ t=2.3
0.04344620171577286
% es.normE (V/m) @ t=2.4
2.5838987695441107
% es.EX (V/m) @ t=2.4
2.0970625734033836
% es.EY (V/m) @ t=2.4
0.6101387785924569
% es.EZ (V/m) @ t=2.4
-1.2792988835531878
% es.tEX (V/m) @ t=2.4
2.0970625734033774
% es.tEY (V/m) @ t=2.4
0
% es.tEZ (V/m) @ t=2.4
-1.27929888355321
% es.Ex (V/m) @ t=2.4
2.0970625734033836
% es.Ey (V/m) @ t=2.4
0.6101387785924569
% es.Ez (V/m) @ t=2.4
-1.2792988835531878
% es.tEx (V/m) @ t=2.4
2.0970625734033774
% es.tEy (V/m) @ t=2.4
0
% es.tEz (V/m) @ t=2.4
-1.27929888355321
% V (V) @ t=2.4
0.04549061694589497
% es.normE (V/m) @ t=2.5
2.6987006064385923
% es.EX (V/m) @ t=2.5
2.1902475397136936
% es.EY (V/m) @ t=2.5
0.6372085439458575
% es.EZ (V/m) @ t=2.5
-1.3361478478054798
% es.tEX (V/m) @ t=2.5
2.1902475397137025
% es.tEY (V/m) @ t=2.5
0
% es.tEZ (V/m) @ t=2.5
-1.3361478478054636
% es.Ex (V/m) @ t=2.5
2.1902475397136936
% es.Ey (V/m) @ t=2.5
0.6372085439458575
% es.Ez (V/m) @ t=2.5
-1.3361478478054798
% es.tEx (V/m) @ t=2.5
2.1902475397137025
% es.tEy (V/m) @ t=2.5
0
% es.tEz (V/m) @ t=2.5
-1.3361478478054636
% V (V) @ t=2.5
0.047513088345884066
% es.normE (V/m) @ t=2.6
2.8122794843579824
% es.EX (V/m) @ t=2.6
2.282444203219446
% es.EY (V/m) @ t=2.6
0.6639770985820891
% es.EZ (V/m) @ t=2.6
-1.3923945723424183
% es.tEX (V/m) @ t=2.6
2.282444203219434
% es.tEY (V/m) @ t=2.6
0
% es.tEZ (V/m) @ t=2.6
-1.392394572342397
% es.Ex (V/m) @ t=2.6
2.282444203219446
% es.Ey (V/m) @ t=2.6
0.6639770985820891
% es.Ez (V/m) @ t=2.6
-1.3923945723424183
% es.tEx (V/m) @ t=2.6
2.282444203219434
% es.tEy (V/m) @ t=2.6
0
% es.tEz (V/m) @ t=2.6
-1.392394572342397
% V (V) @ t=2.6
0.04951446022792056
% es.normE (V/m) @ t=2.7
2.926569939679358
% es.EX (V/m) @ t=2.7
2.37522127412626
% es.EY (V/m) @ t=2.7
0.690905166638884
% es.EZ (V/m) @ t=2.7
-1.448995828708163
% es.tEX (V/m) @ t=2.7
2.375221274126247
% es.tEY (V/m) @ t=2.7
0
% es.tEZ (V/m) @ t=2.7
-1.4489958287081492
% es.Ex (V/m) @ t=2.7
2.37522127412626
% es.Ey (V/m) @ t=2.7
0.690905166638884
% es.Ez (V/m) @ t=2.7
-1.448995828708163
% es.tEx (V/m) @ t=2.7
2.375221274126247
% es.tEy (V/m) @ t=2.7
0
% es.tEz (V/m) @ t=2.7
-1.4489958287081492
% V (V) @ t=2.7
0.05152865496760105
% es.normE (V/m) @ t=2.8
3.0415719730398845
% es.EX (V/m) @ t=2.8
2.468578752434068
% es.EY (V/m) @ t=2.8
0.7179927481162335
% es.EZ (V/m) @ t=2.8
-1.5059516169026785
% es.tEX (V/m) @ t=2.8
2.468578752434084
% es.tEY (V/m) @ t=2.8
0
% es.tEZ (V/m) @ t=2.8
-1.5059516169026637
% es.Ex (V/m) @ t=2.8
2.468578752434068
% es.Ey (V/m) @ t=2.8
0.7179927481162335
% es.Ez (V/m) @ t=2.8
-1.5059516169026785
% es.tEx (V/m) @ t=2.8
2.468578752434084
% es.tEy (V/m) @ t=2.8
0
% es.tEz (V/m) @ t=2.8
-1.5059516169026637
% V (V) @ t=2.8
0.053555672564925515
% es.normE (V/m) @ t=2.9
3.157285585102372
% es.EX (V/m) @ t=2.9
2.5625166381428945
% es.EY (V/m) @ t=2.9
0.7452398430141624
% es.EZ (V/m) @ t=2.9
-1.5632619369260499
% es.tEX (V/m) @ t=2.9
2.5625166381428954
% es.tEY (V/m) @ t=2.9
0
% es.tEZ (V/m) @ t=2.9
-1.5632619369260397
% es.Ex (V/m) @ t=2.9
2.5625166381428945
% es.Ey (V/m) @ t=2.9
0.7452398430141624
% es.Ez (V/m) @ t=2.9
-1.5632619369260499
% es.tEx (V/m) @ t=2.9
2.5625166381428954
% es.tEy (V/m) @ t=2.9
0
% es.tEz (V/m) @ t=2.9
-1.5632619369260397
% V (V) @ t=2.9
0.05559551301989399
% es.normE (V/m) @ t=3
3.272315654498051
% es.EX (V/m) @ t=3
2.6558901280724037
% es.EY (V/m) @ t=3
0.7723538589834398
% es.EZ (V/m) @ t=3
-1.6202263994453179
% es.tEX (V/m) @ t=3
2.6558901280724
% es.tEY (V/m) @ t=3
0
% es.tEZ (V/m) @ t=3
-1.6202263994453006
% es.Ex (V/m) @ t=3
2.6558901280724037
% es.Ey (V/m) @ t=3
0.7723538589834398
% es.Ez (V/m) @ t=3
-1.6202263994453179
% es.tEx (V/m) @ t=3
2.6558901280724
% es.tEy (V/m) @ t=3
0
% es.tEz (V/m) @ t=3
-1.6202263994453006
% V (V) @ t=3
0.05762233595374518
% es.normE (V/m) @ t=3.1
3.3819357690320855
% es.EX (V/m) @ t=3.1
2.7448208410672423
% es.EY (V/m) @ t=3.1
0.7983435473334419
% es.EZ (V/m) @ t=3.1
-1.6744722151140596
% es.tEX (V/m) @ t=3.1
2.7448208410672166
% es.tEY (V/m) @ t=3.1
0
% es.tEZ (V/m) @ t=3.1
-1.6744722151140508
% es.Ex (V/m) @ t=3.1
2.7448208410672423
% es.Ey (V/m) @ t=3.1
0.7983435473334419
% es.Ez (V/m) @ t=3.1
-1.6744722151140596
% es.tEx (V/m) @ t=3.1
2.7448208410672166
% es.tEy (V/m) @ t=3.1
0
% es.tEz (V/m) @ t=3.1
-1.6744722151140508
% V (V) @ t=3.1
0.05954859894891407
% es.normE (V/m) @ t=3.2
3.4900776618658176
% es.EX (V/m) @ t=3.2
2.832535054943061
% es.EY (V/m) @ t=3.2
0.8240334901596372
% es.EZ (V/m) @ t=3.2
-1.72797321716915
% es.tEX (V/m) @ t=3.2
2.832535054943058
% es.tEY (V/m) @ t=3.2
0
% es.tEZ (V/m) @ t=3.2
-1.7279732171691364
% es.Ex (V/m) @ t=3.2
2.832535054943061
% es.Ey (V/m) @ t=3.2
0.8240334901596372
% es.Ez (V/m) @ t=3.2
-1.72797321716915
% es.tEx (V/m) @ t=3.2
2.832535054943058
% es.tEy (V/m) @ t=3.2
0
% es.tEz (V/m) @ t=3.2
-1.7279732171691364
% V (V) @ t=3.2
0.06144712521395198
% es.normE (V/m) @ t=3.3
3.5967413438493745
% es.EX (V/m) @ t=3.3
2.919032769699877
% es.EY (V/m) @ t=3.3
0.8494236874621188
% es.EZ (V/m) @ t=3.3
-1.7807294056105323
% es.tEX (V/m) @ t=3.3
2.9190327696998537
% es.tEY (V/m) @ t=3.3
0
% es.tEZ (V/m) @ t=3.3
-1.780729405610515
% es.Ex (V/m) @ t=3.3
2.919032769699877
% es.Ey (V/m) @ t=3.3
0.8494236874621188
% es.Ez (V/m) @ t=3.3
-1.7807294056105323
% es.tEx (V/m) @ t=3.3
2.9190327696998537
% es.tEy (V/m) @ t=3.3
0
% es.tEz (V/m) @ t=3.3
-1.780729405610515
% V (V) @ t=3.3
0.0633179147488589
% es.normE (V/m) @ t=3.4
3.7019268280934465
% es.EX (V/m) @ t=3.4
3.0043139853376943
% es.EY (V/m) @ t=3.4
0.8745141392408257
% es.EZ (V/m) @ t=3.4
-1.8327407804383626
% es.tEX (V/m) @ t=3.4
3.0043139853376744
% es.tEY (V/m) @ t=3.4
0
% es.tEZ (V/m) @ t=3.4
-1.832740780438371
% es.Ex (V/m) @ t=3.4
3.0043139853376943
% es.Ey (V/m) @ t=3.4
0.8745141392408257
% es.Ez (V/m) @ t=3.4
-1.8327407804383626
% es.tEx (V/m) @ t=3.4
3.0043139853376744
% es.tEy (V/m) @ t=3.4
0
% es.tEz (V/m) @ t=3.4
-1.832740780438371
% V (V) @ t=3.4
0.06516096755363485
% es.normE (V/m) @ t=3.5
3.804472867861968
% es.EX (V/m) @ t=3.5
3.0874670374151165
% es.EY (V/m) @ t=3.5
0.8989402587159957
% es.EZ (V/m) @ t=3.5
-1.8834561101334673
% es.tEX (V/m) @ t=3.5
3.0874670374151094
% es.tEY (V/m) @ t=3.5
0
% es.tEZ (V/m) @ t=3.5
-1.8834561101334657
% es.Ex (V/m) @ t=3.5
3.0874670374151165
% es.Ey (V/m) @ t=3.5
0.8989402587159957
% es.Ez (V/m) @ t=3.5
-1.8834561101334673
% es.tEx (V/m) @ t=3.5
3.0874670374151094
% es.tEy (V/m) @ t=3.5
0
% es.tEz (V/m) @ t=3.5
-1.8834561101334657
% V (V) @ t=3.5
0.06695897693109346
% es.normE (V/m) @ t=3.6
3.902572375736078
% es.EX (V/m) @ t=3.6
3.167073259489671
% es.EY (V/m) @ t=3.6
0.9221347022398687
% es.EZ (V/m) @ t=3.6
-1.9320176079681195
% es.tEX (V/m) @ t=3.6
3.1670732594896407
% es.tEY (V/m) @ t=3.6
0
% es.tEZ (V/m) @ t=3.6
-1.9320176079681062
% es.Ex (V/m) @ t=3.6
3.167073259489671
% es.Ey (V/m) @ t=3.6
0.9221347022398687
% es.Ez (V/m) @ t=3.6
-1.9320176079681195
% es.tEx (V/m) @ t=3.6
3.1670732594896407
% es.tEy (V/m) @ t=3.6
0
% es.tEz (V/m) @ t=3.6
-1.9320176079681062
% V (V) @ t=3.6
0.06868501144745805
% es.normE (V/m) @ t=3.7
3.9979384810693377
% es.EX (V/m) @ t=3.7
3.244477576579065
% es.EY (V/m) @ t=3.7
0.9446353232801414
% es.EZ (V/m) @ t=3.7
-1.979238473434029
% es.tEX (V/m) @ t=3.7
3.2444775765790723
% es.tEY (V/m) @ t=3.7
0
% es.tEZ (V/m) @ t=3.7
-1.979238473434009
% es.Ex (V/m) @ t=3.7
3.244477576579065
% es.Ey (V/m) @ t=3.7
0.9446353232801414
% es.Ez (V/m) @ t=3.7
-1.979238473434029
% es.tEx (V/m) @ t=3.7
3.2444775765790723
% es.tEy (V/m) @ t=3.7
0
% es.tEz (V/m) @ t=3.7
-1.979238473434009
% V (V) @ t=3.7
0.07036460265684437
% es.normE (V/m) @ t=3.8
4.090571185915099
% es.EX (V/m) @ t=3.8
3.3196799886833515
% es.EY (V/m) @ t=3.8
0.966442121836712
% es.EZ (V/m) @ t=3.8
-2.025118706531409
% es.tEX (V/m) @ t=3.8
3.3196799886832906
% es.tEY (V/m) @ t=3.8
0
% es.tEZ (V/m) @ t=3.8
-2.0251187065313445
% es.Ex (V/m) @ t=3.8
3.3196799886833515
% es.Ey (V/m) @ t=3.8
0.966442121836712
% es.Ez (V/m) @ t=3.8
-2.025118706531409
% es.tEx (V/m) @ t=3.8
3.3196799886832906
% es.tEy (V/m) @ t=3.8
0
% es.tEz (V/m) @ t=3.8
-2.0251187065313445
% V (V) @ t=3.8
0.07199775055925242
% es.normE (V/m) @ t=3.9
4.180470495069417
% es.EX (V/m) @ t=3.9
3.3926804958023213
% es.EY (V/m) @ t=3.9
0.987555097909661
% es.EZ (V/m) @ t=3.9
-2.069658307260017
% es.tEX (V/m) @ t=3.9
3.3926804958023524
% es.tEY (V/m) @ t=3.9
0
% es.tEZ (V/m) @ t=3.9
-2.069658307259999
% es.Ex (V/m) @ t=3.9
3.3926804958023213
% es.Ey (V/m) @ t=3.9
0.987555097909661
% es.Ez (V/m) @ t=3.9
-2.069658307260017
% es.tEx (V/m) @ t=3.9
3.3926804958023524
% es.tEy (V/m) @ t=3.9
0
% es.tEz (V/m) @ t=3.9
-2.069658307259999
% V (V) @ t=3.9
0.07358445515468218
% es.normE (V/m) @ t=4
4.267320817591877
% es.EX (V/m) @ t=4
3.46320037910334
% es.EY (V/m) @ t=4
1.0079660181857175
% es.EZ (V/m) @ t=4
-2.112683634699599
% es.tEX (V/m) @ t=4
3.463200379103313
% es.tEY (V/m) @ t=4
0
% es.tEZ (V/m) @ t=4
-2.1126836346995788
% es.Ex (V/m) @ t=4
3.46320037910334
% es.Ey (V/m) @ t=4
1.0079660181857175
% es.Ez (V/m) @ t=4
-2.112683634699599
% es.tEx (V/m) @ t=4
3.463200379103313
% es.tEy (V/m) @ t=4
0
% es.tEz (V/m) @ t=4
-2.1126836346995788
% V (V) @ t=4
0.07511685924438935
% es.normE (V/m) @ t=4.1
4.350917625920513
% es.EX (V/m) @ t=4.1
3.5310590140255838
% es.EY (V/m) @ t=4.1
1.0276695470419943
% es.EZ (V/m) @ t=4.1
-2.1540821603401197
% es.tEX (V/m) @ t=4.1
3.5310590140255442
% es.tEY (V/m) @ t=4.1
0
% es.tEZ (V/m) @ t=4.1
-2.1540821603400673
% es.Ex (V/m) @ t=4.1
3.5310590140255838
% es.Ey (V/m) @ t=4.1
1.0276695470419943
% es.Ez (V/m) @ t=4.1
-2.1540821603401197
% es.tEx (V/m) @ t=4.1
3.5310590140255442
% es.tEy (V/m) @ t=4.1
0
% es.tEz (V/m) @ t=4.1
-2.1540821603400673
% V (V) @ t=4.1
0.07658987094758565
% es.normE (V/m) @ t=4.2
4.431536542719153
% es.EX (V/m) @ t=4.2
3.5964998177166447
% es.EY (V/m) @ t=4.2
1.046672874985083
% es.EZ (V/m) @ t=4.2
-2.194005532267733
% es.tEX (V/m) @ t=4.2
3.596499817716648
% es.tEY (V/m) @ t=4.2
0
% es.tEZ (V/m) @ t=4.2
-2.194005532267653
% es.Ex (V/m) @ t=4.2
3.5964998177166447
% es.Ey (V/m) @ t=4.2
1.046672874985083
% es.Ez (V/m) @ t=4.2
-2.194005532267733
% es.tEx (V/m) @ t=4.2
3.596499817716648
% es.tEy (V/m) @ t=4.2
0
% es.tEz (V/m) @ t=4.2
-2.194005532267653
% V (V) @ t=4.2
0.07801035229395709
% es.normE (V/m) @ t=4.3
4.509177567809418
% es.EX (V/m) @ t=4.3
3.6595227901764296
% es.EY (V/m) @ t=4.3
1.0649760020150902
% es.EZ (V/m) @ t=4.3
-2.232453750482227
% es.tEX (V/m) @ t=4.3
3.6595227901763963
% es.tEY (V/m) @ t=4.3
0
% es.tEZ (V/m) @ t=4.3
-2.2324537504822217
% es.Ex (V/m) @ t=4.3
3.6595227901764296
% es.Ey (V/m) @ t=4.3
1.0649760020150902
% es.Ez (V/m) @ t=4.3
-2.232453750482227
% es.tEx (V/m) @ t=4.3
3.6595227901763963
% es.tEy (V/m) @ t=4.3
0
% es.tEz (V/m) @ t=4.3
-2.2324537504822217
% V (V) @ t=4.3
0.07937830328350363
% es.normE (V/m) @ t=4.4
4.583840701039016
% es.EX (V/m) @ t=4.4
3.7201279314050804
% es.EY (V/m) @ t=4.4
1.0825789281319695
% es.EZ (V/m) @ t=4.4
-2.2694268149837002
% es.tEX (V/m) @ t=4.4
3.7201279314050453
% es.tEY (V/m) @ t=4.4
0
% es.tEZ (V/m) @ t=4.4
-2.2694268149836887
% es.Ex (V/m) @ t=4.4
3.7201279314050804
% es.Ey (V/m) @ t=4.4
1.0825789281319695
% es.Ez (V/m) @ t=4.4
-2.2694268149837002
% es.tEx (V/m) @ t=4.4
3.7201279314050453
% es.tEy (V/m) @ t=4.4
0
% es.tEz (V/m) @ t=4.4
-2.2694268149836887
% V (V) @ t=4.4
0.08069372391622535
% es.normE (V/m) @ t=4.5
4.655775637446863
% es.EX (V/m) @ t=4.5
3.778515003604499
% es.EY (V/m) @ t=4.5
1.0995490868278073
% es.EZ (V/m) @ t=4.5
-2.305046132335213
% es.tEX (V/m) @ t=4.5
3.7785150036044826
% es.tEY (V/m) @ t=4.5
0
% es.tEZ (V/m) @ t=4.5
-2.305046132335235
% es.Ex (V/m) @ t=4.5
3.778515003604499
% es.Ey (V/m) @ t=4.5
1.0995490868278073
% es.Ez (V/m) @ t=4.5
-2.305046132335213
% es.tEx (V/m) @ t=4.5
3.7785150036044826
% es.tEy (V/m) @ t=4.5
0
% es.tEz (V/m) @ t=4.5
-2.305046132335235
% V (V) @ t=4.5
0.08196071580672677
% es.normE (V/m) @ t=4.6
4.725012306682562
% es.EX (V/m) @ t=4.6
3.8347079514277893
% es.EY (V/m) @ t=4.6
1.1158945610709166
% es.EZ (V/m) @ t=4.6
-2.339326255029599
% es.tEX (V/m) @ t=4.6
3.8347079514278164
% es.tEY (V/m) @ t=4.6
0
% es.tEZ (V/m) @ t=4.6
-2.33932625502959
% es.Ex (V/m) @ t=4.6
3.8347079514277893
% es.Ey (V/m) @ t=4.6
1.1158945610709166
% es.Ez (V/m) @ t=4.6
-2.339326255029599
% es.tEx (V/m) @ t=4.6
3.8347079514278164
% es.tEy (V/m) @ t=4.6
0
% es.tEz (V/m) @ t=4.6
-2.33932625502959
% V (V) @ t=4.6
0.08317977059826165
% es.normE (V/m) @ t=4.7
4.791420346234427
% es.EX (V/m) @ t=4.7
3.8886024817715334
% es.EY (V/m) @ t=4.7
1.131580144760909
% es.EZ (V/m) @ t=4.7
-2.372203798366957
% es.tEX (V/m) @ t=4.7
3.8886024817715565
% es.tEY (V/m) @ t=4.7
0
% es.tEZ (V/m) @ t=4.7
-2.372203798366968
% es.Ex (V/m) @ t=4.7
3.8886024817715334
% es.Ey (V/m) @ t=4.7
1.131580144760909
% es.Ez (V/m) @ t=4.7
-2.372203798366957
% es.tEx (V/m) @ t=4.7
3.8886024817715565
% es.tEy (V/m) @ t=4.7
0
% es.tEz (V/m) @ t=4.7
-2.372203798366968
% V (V) @ t=4.7
0.08434874689414851
% es.normE (V/m) @ t=4.8
4.854999756121428
% es.EX (V/m) @ t=4.8
3.9401985946357665
% es.EY (V/m) @ t=4.8
1.1466058378976316
% es.EZ (V/m) @ t=4.8
-2.4036787623472144
% es.tEX (V/m) @ t=4.8
3.9401985946357456
% es.tEY (V/m) @ t=4.8
0
% es.tEZ (V/m) @ t=4.8
-2.403678762347198
% es.Ex (V/m) @ t=4.8
3.9401985946357665
% es.Ey (V/m) @ t=4.8
1.1466058378976316
% es.Ez (V/m) @ t=4.8
-2.4036787623472144
% es.tEx (V/m) @ t=4.8
3.9401985946357456
% es.tEy (V/m) @ t=4.8
0
% es.tEz (V/m) @ t=4.8
-2.403678762347198
% V (V) @ t=4.8
0.08546764469438739
% es.normE (V/m) @ t=4.9
4.915750536433097
% es.EX (V/m) @ t=4.9
3.9894962900203548
% es.EY (V/m) @ t=4.9
1.160971640481195
% es.EZ (V/m) @ t=4.9
-2.433751146970444
% es.tEX (V/m) @ t=4.9
3.989496290020327
% es.tEY (V/m) @ t=4.9
0
% es.tEZ (V/m) @ t=4.9
-2.433751146970394
% es.Ex (V/m) @ t=4.9
3.9894962900203548
% es.Ey (V/m) @ t=4.9
1.160971640481195
% es.Ez (V/m) @ t=4.9
-2.433751146970444
% es.tEx (V/m) @ t=4.9
3.989496290020327
% es.tEy (V/m) @ t=4.9
0
% es.tEz (V/m) @ t=4.9
-2.433751146970394
% V (V) @ t=4.9
0.0865364639989783
% es.normE (V/m) @ t=5
4.973623238649841
% es.EX (V/m) @ t=5
4.0364604250851475
% es.EY (V/m) @ t=5
1.1746512211143711
% es.EZ (V/m) @ t=5
-2.462400318469677
% es.tEX (V/m) @ t=5
4.036460425085124
% es.tEY (V/m) @ t=5
0
% es.tEZ (V/m) @ t=5
-2.4624003184696335
% es.Ex (V/m) @ t=5
4.0364604250851475
% es.Ey (V/m) @ t=5
1.1746512211143711
% es.Ez (V/m) @ t=5
-2.462400318469677
% es.tEx (V/m) @ t=5
4.036460425085124
% es.tEy (V/m) @ t=5
0
% es.tEz (V/m) @ t=5
-2.4624003184696335
% V (V) @ t=5
0.08755484312092526
% es.normE (V/m) @ t=5.1
5.028615956719259
% es.EX (V/m) @ t=5.1
4.081089645269562
% es.EY (V/m) @ t=5.1
1.187643564868332
% es.EZ (V/m) @ t=5.1
-2.4896254815281456
% es.tEX (V/m) @ t=5.1
4.081089645269529
% es.tEY (V/m) @ t=5.1
0
% es.tEZ (V/m) @ t=5.1
-2.489625481528094
% es.Ex (V/m) @ t=5.1
4.081089645269562
% es.Ey (V/m) @ t=5.1
1.187643564868332
% es.Ez (V/m) @ t=5.1
-2.4896254815281456
% es.tEx (V/m) @ t=5.1
4.081089645269529
% es.tEy (V/m) @ t=5.1
0
% es.tEz (V/m) @ t=5.1
-2.489625481528094
% V (V) @ t=5.1
0.08852276811921177
% es.normE (V/m) @ t=5.2
5.080734880748134
% es.EX (V/m) @ t=5.2
4.123388349866406
% es.EY (V/m) @ t=5.2
1.1999519679916812
% es.EZ (V/m) @ t=5.2
-2.515429219146733
% es.tEX (V/m) @ t=5.2
4.123388349866374
% es.tEY (V/m) @ t=5.2
0
% es.tEZ (V/m) @ t=5.2
-2.5154292191467107
% es.Ex (V/m) @ t=5.2
4.123388349866406
% es.Ey (V/m) @ t=5.2
1.1999519679916812
% es.Ez (V/m) @ t=5.2
-2.515429219146733
% es.tEx (V/m) @ t=5.2
4.123388349866374
% es.tEy (V/m) @ t=5.2
0
% es.tEz (V/m) @ t=5.2
-2.5154292191467107
% V (V) @ t=5.2
0.08944028427096974
% es.normE (V/m) @ t=5.3
5.129973178294218
% es.EX (V/m) @ t=5.3
4.163351683096365
% es.EY (V/m) @ t=5.3
1.2115727922052226
% es.EZ (V/m) @ t=5.3
-2.539808680303036
% es.tEX (V/m) @ t=5.3
4.163351683096337
% es.tEY (V/m) @ t=5.3
0
% es.tEZ (V/m) @ t=5.3
-2.5398086803030537
% es.Ex (V/m) @ t=5.3
4.163351683096365
% es.Ey (V/m) @ t=5.3
1.2115727922052226
% es.Ez (V/m) @ t=5.3
-2.539808680303036
% es.tEx (V/m) @ t=5.3
4.163351683096337
% es.tEy (V/m) @ t=5.3
0
% es.tEz (V/m) @ t=5.3
-2.5398086803030537
% V (V) @ t=5.3
0.09030734160094726