% Model:              1x1--2 - Copy1.mph
% Version:            COMSOL 6.1.0.252
% Date:               Mar 28 2023, 11:30
% Dimension:          0
% Nodes:              14017
% Expressions:        14017
% Description:        Electric field norm, Electric field, X component, Electric field, Y component, Electric field, Z component, Tangential electric field, X component, Tangential electric field, Y component, Tangential electric field, Z component, Electric field, x component, Electric field, y component, Electric field, z component, Tangential electric field, x component, Tangential electric field, y component, Tangential electric field, z component, Electric potential
% Length unit:        mm
% x
1
% y
12.2
% z
1.6599999999999997
% es.normE (V/m) @ t=0
0.30879932521062314
% es.EX (V/m) @ t=0
0.17728080326924545
% es.EY (V/m) @ t=0
0.15669196739493962
% es.EZ (V/m) @ t=0
-0.15536496175965198
% es.tEX (V/m) @ t=0
0.17728080326924633
% es.tEY (V/m) @ t=0
0
% es.tEZ (V/m) @ t=0
-0.15536496175965375
% es.Ex (V/m) @ t=0
0.17728080326924545
% es.Ey (V/m) @ t=0
0.15669196739493962
% es.Ez (V/m) @ t=0
-0.15536496175965198
% es.tEx (V/m) @ t=0
0.17728080326924633
% es.tEy (V/m) @ t=0
0
% es.tEz (V/m) @ t=0
-0.15536496175965375
% V (V) @ t=0
0.010219850676198128
% es.normE (V/m) @ t=0.1
0.31750768312450006
% es.EX (V/m) @ t=0.1
0.18228026899562
% es.EY (V/m) @ t=0.1
0.16111079579489007
% es.EZ (V/m) @ t=0.1
-0.1597463256232381
% es.tEX (V/m) @ t=0.1
0.1822802689956191
% es.tEY (V/m) @ t=0.1
0
% es.tEZ (V/m) @ t=0.1
-0.15974632562323698
% es.Ex (V/m) @ t=0.1
0.18228026899562
% es.Ey (V/m) @ t=0.1
0.16111079579489007
% es.Ez (V/m) @ t=0.1
-0.1597463256232381
% es.tEx (V/m) @ t=0.1
0.1822802689956191
% es.tEy (V/m) @ t=0.1
0
% es.tEz (V/m) @ t=0.1
-0.15974632562323698
% V (V) @ t=0.1
0.010508053273033544
% es.normE (V/m) @ t=0.2
0.3371112941737481
% es.EX (V/m) @ t=0.2
0.19352978963970457
% es.EY (V/m) @ t=0.2
0.17106327074078997
% es.EZ (V/m) @ t=0.2
-0.16960733162526154
% es.tEX (V/m) @ t=0.2
0.19352978963970102
% es.tEY (V/m) @ t=0.2
0
% es.tEZ (V/m) @ t=0.2
-0.1696073316252633
% es.Ex (V/m) @ t=0.2
0.19352978963970457
% es.Ey (V/m) @ t=0.2
0.17106327074078997
% es.Ez (V/m) @ t=0.2
-0.16960733162526154
% es.tEx (V/m) @ t=0.2
0.19352978963970102
% es.tEy (V/m) @ t=0.2
0
% es.tEz (V/m) @ t=0.2
-0.1696073316252633
% V (V) @ t=0.2
0.011156164469921997
% es.normE (V/m) @ t=0.3
0.35837712711836944
% es.EX (V/m) @ t=0.3
0.2057574977896719
% es.EY (V/m) @ t=0.3
0.18183377245165566
% es.EZ (V/m) @ t=0.3
-0.18031500758998242
% es.tEX (V/m) @ t=0.3
0.20575749778967634
% es.tEY (V/m) @ t=0.3
0
% es.tEZ (V/m) @ t=0.3
-0.1803150075899822
% es.Ex (V/m) @ t=0.3
0.2057574977896719
% es.Ey (V/m) @ t=0.3
0.18183377245165566
% es.Ez (V/m) @ t=0.3
-0.18031500758998242
% es.tEx (V/m) @ t=0.3
0.20575749778967634
% es.tEy (V/m) @ t=0.3
0
% es.tEz (V/m) @ t=0.3
-0.1803150075899822
% V (V) @ t=0.3
0.011862674384363753
% es.normE (V/m) @ t=0.4
0.38061710128862114
% es.EX (V/m) @ t=0.4
0.21852764012472647
% es.EY (V/m) @ t=0.4
0.19311649676649978
% es.EZ (V/m) @ t=0.4
-0.19150545215016024
% es.tEX (V/m) @ t=0.4
0.21852764012472825
% es.tEY (V/m) @ t=0.4
0
% es.tEZ (V/m) @ t=0.4
-0.19150545215015846
% es.Ex (V/m) @ t=0.4
0.21852764012472647
% es.Ey (V/m) @ t=0.4
0.19311649676649978
% es.Ez (V/m) @ t=0.4
-0.19150545215016024
% es.tEx (V/m) @ t=0.4
0.21852764012472825
% es.tEy (V/m) @ t=0.4
0
% es.tEz (V/m) @ t=0.4
-0.19150545215015846
% V (V) @ t=0.4
0.012599022555651781
% es.normE (V/m) @ t=0.5
0.4038216674501771
% es.EX (V/m) @ t=0.5
0.23184040436040032
% es.EY (V/m) @ t=0.5
0.20490054757474896
% es.EZ (V/m) @ t=0.5
-0.20317635185124439
% es.tEX (V/m) @ t=0.5
0.23184040436039943
% es.tEY (V/m) @ t=0.5
0
% es.tEZ (V/m) @ t=0.5
-0.20317635185124772
% es.Ex (V/m) @ t=0.5
0.23184040436040032
% es.Ey (V/m) @ t=0.5
0.20490054757474896
% es.Ez (V/m) @ t=0.5
-0.20317635185124439
% es.tEx (V/m) @ t=0.5
0.23184040436039943
% es.tEy (V/m) @ t=0.5
0
% es.tEz (V/m) @ t=0.5
-0.20317635185124772
% V (V) @ t=0.5
0.013365707071980773
% es.normE (V/m) @ t=0.6
0.42848970603911074
% es.EX (V/m) @ t=0.6
0.2459959108906915
% es.EY (V/m) @ t=0.6
0.21742441551168046
% es.EZ (V/m) @ t=0.6
-0.21558475391985987
% es.tEX (V/m) @ t=0.6
0.2459959108906915
% es.tEY (V/m) @ t=0.6
0
% es.tEZ (V/m) @ t=0.6
-0.2155847539198632
% es.Ex (V/m) @ t=0.6
0.2459959108906915
% es.Ey (V/m) @ t=0.6
0.21742441551168046
% es.Ez (V/m) @ t=0.6
-0.21558475391985987
% es.tEx (V/m) @ t=0.6
0.2459959108906915
% es.tEy (V/m) @ t=0.6
0
% es.tEz (V/m) @ t=0.6
-0.2155847539198632
% V (V) @ t=0.6
0.014181215365565486
% es.normE (V/m) @ t=0.7
0.45400196070101495
% es.EX (V/m) @ t=0.7
0.26063924843997466
% es.EY (V/m) @ t=0.7
0.2303732924530122
% es.EZ (V/m) @ t=0.7
-0.2284192709759829
% es.tEX (V/m) @ t=0.7
0.260639248439972
% es.tEY (V/m) @ t=0.7
0
% es.tEZ (V/m) @ t=0.7
-0.22841927097598713
% es.Ex (V/m) @ t=0.7
0.26063924843997466
% es.Ey (V/m) @ t=0.7
0.2303732924530122
% es.Ez (V/m) @ t=0.7
-0.2284192709759829
% es.tEx (V/m) @ t=0.7
0.260639248439972
% es.tEy (V/m) @ t=0.7
0
% es.tEz (V/m) @ t=0.7
-0.22841927097598713
% V (V) @ t=0.7
0.015025110543624282
% es.normE (V/m) @ t=0.8
0.4807285551547063
% es.EX (V/m) @ t=0.8
0.2759842934563901
% es.EY (V/m) @ t=0.8
0.2439335122166515
% es.EZ (V/m) @ t=0.8
-0.24186672172622758
% es.tEX (V/m) @ t=0.8
0.2759842934563874
% es.tEY (V/m) @ t=0.8
0
% es.tEZ (V/m) @ t=0.8
-0.24186672172622892
% es.Ex (V/m) @ t=0.8
0.2759842934563901
% es.Ey (V/m) @ t=0.8
0.2439335122166515
% es.Ez (V/m) @ t=0.8
-0.24186672172622758
% es.tEx (V/m) @ t=0.8
0.2759842934563874
% es.tEy (V/m) @ t=0.8
0
% es.tEz (V/m) @ t=0.8
-0.24186672172622892
% V (V) @ t=0.8
0.01590983807556655
% es.normE (V/m) @ t=0.9
0.5085095411845671
% es.EX (V/m) @ t=0.9
0.2919386196672642
% es.EY (V/m) @ t=0.9
0.25802455102162947
% es.EZ (V/m) @ t=0.9
-0.25584637284596123
% es.tEX (V/m) @ t=0.9
0.29193861966726686
% es.tEY (V/m) @ t=0.9
0
% es.tEZ (V/m) @ t=0.9
-0.25584637284595857
% es.Ex (V/m) @ t=0.9
0.2919386196672642
% es.Ey (V/m) @ t=0.9
0.25802455102162947
% es.Ez (V/m) @ t=0.9
-0.25584637284596123
% es.tEx (V/m) @ t=0.9
0.29193861966726686
% es.tEy (V/m) @ t=0.9
0
% es.tEz (V/m) @ t=0.9
-0.25584637284595857
% V (V) @ t=0.9
0.016830019677064635
% es.normE (V/m) @ t=1
0.5378957481314464
% es.EX (V/m) @ t=1
0.3088084746441284
% es.EY (V/m) @ t=1
0.2729365236206083
% es.EZ (V/m) @ t=1
-0.27063103794704313
% es.tEX (V/m) @ t=1
0.3088084746441311
% es.tEY (V/m) @ t=1
0
% es.tEZ (V/m) @ t=1
-0.2706310379470409
% es.Ex (V/m) @ t=1
0.3088084746441284
% es.Ey (V/m) @ t=1
0.2729365236206083
% es.Ez (V/m) @ t=1
-0.27063103794704313
% es.tEx (V/m) @ t=1
0.3088084746441311
% es.tEy (V/m) @ t=1
0
% es.tEz (V/m) @ t=1
-0.2706310379470409
% V (V) @ t=1
0.017802472284770478
% es.normE (V/m) @ t=1.1
0.568718493940418
% es.EX (V/m) @ t=1.1
0.32650007530758174
% es.EY (V/m) @ t=1.1
0.288580587333918
% es.EZ (V/m) @ t=1.1
-0.2861371725282451
% es.tEX (V/m) @ t=1.1
0.32650007530758174
% es.tEY (V/m) @ t=1.1
0
% es.tEZ (V/m) @ t=1.1
-0.28613717252824955
% es.Ex (V/m) @ t=1.1
0.32650007530758174
% es.Ey (V/m) @ t=1.1
0.288580587333918
% es.Ez (V/m) @ t=1.1
-0.2861371725282451
% es.tEx (V/m) @ t=1.1
0.32650007530758174
% es.tEy (V/m) @ t=1.1
0
% es.tEz (V/m) @ t=1.1
-0.28613717252824955
% V (V) @ t=1.1
0.018822045999544616
% es.normE (V/m) @ t=1.2
0.6009391337626232
% es.EX (V/m) @ t=1.2
0.3449922921917583
% es.EY (V/m) @ t=1.2
0.304936009202295
% es.EZ (V/m) @ t=1.2
-0.3023457916881007
% es.tEX (V/m) @ t=1.2
0.34499229219175476
% es.tEY (V/m) @ t=1.2
0
% es.tEZ (V/m) @ t=1.2
-0.3023457916881114
% es.Ex (V/m) @ t=1.2
0.3449922921917583
% es.Ey (V/m) @ t=1.2
0.304936009202295
% es.Ez (V/m) @ t=1.2
-0.3023457916881007
% es.tEx (V/m) @ t=1.2
0.34499229219175476
% es.tEy (V/m) @ t=1.2
0
% es.tEz (V/m) @ t=1.2
-0.3023457916881114
% V (V) @ t=1.2
0.019887611671973164
% es.normE (V/m) @ t=1.3
0.63496713637611
% es.EX (V/m) @ t=1.3
0.3645249697831936
% es.EY (V/m) @ t=1.3
0.3222054739277773
% es.EZ (V/m) @ t=1.3
-0.31946500393247046
% es.tEX (V/m) @ t=1.3
0.36452496978319715
% es.tEY (V/m) @ t=1.3
0
% es.tEZ (V/m) @ t=1.3
-0.3194650039324749
% es.Ex (V/m) @ t=1.3
0.3645249697831936
% es.Ey (V/m) @ t=1.3
0.3222054739277773
% es.Ez (V/m) @ t=1.3
-0.31946500393247046
% es.tEx (V/m) @ t=1.3
0.36452496978319715
% es.tEy (V/m) @ t=1.3
0
% es.tEz (V/m) @ t=1.3
-0.3194650039324749
% V (V) @ t=1.3
0.021013405306945912
% es.normE (V/m) @ t=1.4
0.6706018472313904
% es.EX (V/m) @ t=1.4
0.38498057560986965
% es.EY (V/m) @ t=1.4
0.34028965867652694
% es.EZ (V/m) @ t=1.4
-0.33739282856752695
% es.tEX (V/m) @ t=1.4
0.3849805756098732
% es.tEY (V/m) @ t=1.4
0
% es.tEZ (V/m) @ t=1.4
-0.33739282856752695
% es.Ex (V/m) @ t=1.4
0.38498057560986965
% es.Ey (V/m) @ t=1.4
0.34028965867652694
% es.Ez (V/m) @ t=1.4
-0.33739282856752695
% es.tEx (V/m) @ t=1.4
0.3849805756098732
% es.tEy (V/m) @ t=1.4
0
% es.tEz (V/m) @ t=1.4
-0.33739282856752695
% V (V) @ t=1.4
0.022192450747240782
% es.normE (V/m) @ t=1.5
0.7078972652137306
% es.EX (V/m) @ t=1.5
0.40639058481632695
% es.EY (V/m) @ t=1.5
0.35921546474974164
% es.EZ (V/m) @ t=1.5
-0.35615663127658737
% es.tEX (V/m) @ t=1.5
0.4063905848163287
% es.tEY (V/m) @ t=1.5
0
% es.tEZ (V/m) @ t=1.5
-0.3561566312765905
% es.Ex (V/m) @ t=1.5
0.40639058481632695
% es.Ey (V/m) @ t=1.5
0.35921546474974164
% es.Ez (V/m) @ t=1.5
-0.35615663127658737
% es.tEx (V/m) @ t=1.5
0.4063905848163287
% es.tEy (V/m) @ t=1.5
0
% es.tEz (V/m) @ t=1.5
-0.3561566312765905
% V (V) @ t=1.5
0.02342659964322138
% es.normE (V/m) @ t=1.6
0.7471480731123188
% es.EX (V/m) @ t=1.6
0.4289267635681018
% es.EY (V/m) @ t=1.6
0.3791296979336254
% es.EZ (V/m) @ t=1.6
-0.3759057520723541
% es.tEX (V/m) @ t=1.6
0.4289267635680929
% es.tEY (V/m) @ t=1.6
0
% es.tEZ (V/m) @ t=1.6
-0.37590575207235233
% es.Ex (V/m) @ t=1.6
0.4289267635681018
% es.Ey (V/m) @ t=1.6
0.3791296979336254
% es.Ez (V/m) @ t=1.6
-0.3759057520723541
% es.tEx (V/m) @ t=1.6
0.4289267635680929
% es.tEy (V/m) @ t=1.6
0
% es.tEz (V/m) @ t=1.6
-0.37590575207235233
% V (V) @ t=1.6
0.024725956821627215
% es.normE (V/m) @ t=1.7
0.7881962525095061
% es.EX (V/m) @ t=1.7
0.4524970052761699
% es.EY (V/m) @ t=1.7
0.3999536362041818
% es.EZ (V/m) @ t=1.7
-0.39656010999634494
% es.tEX (V/m) @ t=1.7
0.4524970052761681
% es.tEY (V/m) @ t=1.7
0
% es.tEZ (V/m) @ t=1.7
-0.3965601099963507
% es.Ex (V/m) @ t=1.7
0.4524970052761699
% es.Ey (V/m) @ t=1.7
0.3999536362041818
% es.Ez (V/m) @ t=1.7
-0.39656010999634494
% es.tEx (V/m) @ t=1.7
0.4524970052761681
% es.tEy (V/m) @ t=1.7
0
% es.tEz (V/m) @ t=1.7
-0.3965601099963507
% V (V) @ t=1.7
0.026085103746623314
% es.normE (V/m) @ t=1.8
0.8310738396433911
% es.EX (V/m) @ t=1.8
0.4771188079277131
% es.EY (V/m) @ t=1.8
0.4217044808853174
% es.EZ (V/m) @ t=1.8
-0.41813544328766783
% es.tEX (V/m) @ t=1.8
0.47711880792771666
% es.tEY (V/m) @ t=1.8
0
% es.tEZ (V/m) @ t=1.8
-0.4181354432876674
% es.Ex (V/m) @ t=1.8
0.4771188079277131
% es.Ey (V/m) @ t=1.8
0.4217044808853174
% es.Ez (V/m) @ t=1.8
-0.41813544328766783
% es.tEx (V/m) @ t=1.8
0.47711880792771666
% es.tEy (V/m) @ t=1.8
0
% es.tEz (V/m) @ t=1.8
-0.4181354432876674
% V (V) @ t=1.8
0.027504976472030724
% es.normE (V/m) @ t=1.9
0.8758800483927089
% es.EX (V/m) @ t=1.9
0.5028463616223586
% es.EY (V/m) @ t=1.9
0.4444355033305287
% es.EZ (V/m) @ t=1.9
-0.4406804922235734
% es.tEX (V/m) @ t=1.9
0.5028463616223569
% es.tEY (V/m) @ t=1.9
0
% es.tEZ (V/m) @ t=1.9
-0.44068049222357786
% es.Ex (V/m) @ t=1.9
0.5028463616223586
% es.Ey (V/m) @ t=1.9
0.4444355033305287
% es.Ez (V/m) @ t=1.9
-0.4406804922235734
% es.tEx (V/m) @ t=1.9
0.5028463616223569
% es.tEy (V/m) @ t=1.9
0
% es.tEz (V/m) @ t=1.9
-0.44068049222357786
% V (V) @ t=1.9
0.02898847389413601
% es.normE (V/m) @ t=2
0.9226083268795893
% es.EX (V/m) @ t=2
0.52967608778415
% es.EY (V/m) @ t=2
0.46814318563556423
% es.EZ (V/m) @ t=2
-0.4641920381205238
% es.tEX (V/m) @ t=2
0.5296760877841535
% es.tEY (V/m) @ t=2
0
% es.tEZ (V/m) @ t=2
-0.46419203812052956
% es.Ex (V/m) @ t=2
0.52967608778415
% es.Ey (V/m) @ t=2
0.46814318563556423
% es.Ez (V/m) @ t=2
-0.4641920381205238
% es.tEx (V/m) @ t=2
0.5296760877841535
% es.tEy (V/m) @ t=2
0
% es.tEz (V/m) @ t=2
-0.46419203812052956
% V (V) @ t=2
0.030535404577225884
% es.normE (V/m) @ t=2.1
0.9712884610055218
% es.EX (V/m) @ t=2.1
0.5576242553395989
% es.EY (V/m) @ t=2.1
0.4928435209013724
% es.EZ (V/m) @ t=2.1
-0.48868471376184974
% es.tEX (V/m) @ t=2.1
0.55762425533959
% es.tEY (V/m) @ t=2.1
0
% es.tEZ (V/m) @ t=2.1
-0.48868471376185596
% es.Ex (V/m) @ t=2.1
0.5576242553395989
% es.Ey (V/m) @ t=2.1
0.4928435209013724
% es.Ez (V/m) @ t=2.1
-0.48868471376184974
% es.tEx (V/m) @ t=2.1
0.55762425533959
% es.tEy (V/m) @ t=2.1
0
% es.tEz (V/m) @ t=2.1
-0.48868471376185596
% V (V) @ t=2.1
0.03214663882658932
% es.normE (V/m) @ t=2.2
1.0219502366939506
% es.EX (V/m) @ t=2.2
0.5867071332150342
% es.EY (V/m) @ t=2.2
0.5185525022287427
% es.EZ (V/m) @ t=2.2
-0.5141731519307937
% es.tEX (V/m) @ t=2.2
0.586707133215036
% es.tEY (V/m) @ t=2.2
0
% es.tEZ (V/m) @ t=2.2
-0.514173151930791
% es.Ex (V/m) @ t=2.2
0.5867071332150342
% es.Ey (V/m) @ t=2.2
0.5185525022287427
% es.Ez (V/m) @ t=2.2
-0.5141731519307937
% es.tEx (V/m) @ t=2.2
0.586707133215036
% es.tEy (V/m) @ t=2.2
0
% es.tEz (V/m) @ t=2.2
-0.514173151930791
% V (V) @ t=2.2
0.0338230469475153
% es.normE (V/m) @ t=2.3
1.0746234399240964
% es.EX (V/m) @ t=2.3
0.6169409903368823
% es.EY (V/m) @ t=2.3
0.545286122718589
% es.EZ (V/m) @ t=2.3
-0.540671985410639
% es.tEX (V/m) @ t=2.3
0.6169409903368823
% es.tEY (V/m) @ t=2.3
0
% es.tEZ (V/m) @ t=2.3
-0.540671985410647
% es.Ex (V/m) @ t=2.3
0.6169409903368823
% es.Ey (V/m) @ t=2.3
0.545286122718589
% es.Ez (V/m) @ t=2.3
-0.540671985410639
% es.tEx (V/m) @ t=2.3
0.6169409903368823
% es.tEy (V/m) @ t=2.3
0
% es.tEz (V/m) @ t=2.3
-0.540671985410647
% V (V) @ t=2.3
0.03556549924529277
% es.normE (V/m) @ t=2.4
1.1290240758736168
% es.EX (V/m) @ t=2.4
0.6481692843969871
% es.EY (V/m) @ t=2.4
0.5728933882434761
% es.EZ (V/m) @ t=2.4
-0.5680411144660553
% es.tEX (V/m) @ t=2.4
0.6481692843969888
% es.tEY (V/m) @ t=2.4
0
% es.tEZ (V/m) @ t=2.4
-0.5680411144660624
% es.Ex (V/m) @ t=2.4
0.6481692843969871
% es.Ey (V/m) @ t=2.4
0.5728933882434761
% es.Ez (V/m) @ t=2.4
-0.5680411144660553
% es.tEx (V/m) @ t=2.4
0.6481692843969888
% es.tEy (V/m) @ t=2.4
0
% es.tEz (V/m) @ t=2.4
-0.5680411144660624
% V (V) @ t=2.4
0.03736550718036375
% es.normE (V/m) @ t=2.5
1.185084346608595
% es.EX (V/m) @ t=2.5
0.6803545411345269
% es.EY (V/m) @ t=2.5
0.601338359945431
% es.EZ (V/m) @ t=2.5
-0.5962470510578735
% es.tEX (V/m) @ t=2.5
0.6803545411345269
% es.tEY (V/m) @ t=2.5
0
% es.tEZ (V/m) @ t=2.5
-0.5962470510578726
% es.Ex (V/m) @ t=2.5
0.6803545411345269
% es.Ey (V/m) @ t=2.5
0.601338359945431
% es.Ez (V/m) @ t=2.5
-0.5962470510578735
% es.tEx (V/m) @ t=2.5
0.6803545411345269
% es.tEy (V/m) @ t=2.5
0
% es.tEz (V/m) @ t=2.5
-0.5962470510578726
% V (V) @ t=2.5
0.039221030517197046
% es.normE (V/m) @ t=2.6
1.242919286297432
% es.EX (V/m) @ t=2.6
0.7135599789655238
% es.EY (V/m) @ t=2.6
0.6306823981446481
% es.EZ (V/m) @ t=2.6
-0.6253464658195496
% es.tEX (V/m) @ t=2.6
0.7135599789655203
% es.tEY (V/m) @ t=2.6
0
% es.tEZ (V/m) @ t=2.6
-0.625346465819554
% es.Ex (V/m) @ t=2.6
0.7135599789655238
% es.Ey (V/m) @ t=2.6
0.6306823981446481
% es.Ez (V/m) @ t=2.6
-0.6253464658195496
% es.tEx (V/m) @ t=2.6
0.7135599789655203
% es.tEy (V/m) @ t=2.6
0
% es.tEz (V/m) @ t=2.6
-0.625346465819554
% V (V) @ t=2.6
0.04113548217928133
% es.normE (V/m) @ t=2.7
1.302507606218182
% es.EX (V/m) @ t=2.7
0.7477737380131408
% es.EY (V/m) @ t=2.7
0.6609143151230574
% es.EZ (V/m) @ t=2.7
-0.6553288054370849
% es.tEX (V/m) @ t=2.7
0.7477737380131373
% es.tEY (V/m) @ t=2.7
0
% es.tEZ (V/m) @ t=2.7
-0.6553288054371009
% es.Ex (V/m) @ t=2.7
0.7477737380131408
% es.Ey (V/m) @ t=2.7
0.6609143151230574
% es.Ez (V/m) @ t=2.7
-0.6553288054370849
% es.tEx (V/m) @ t=2.7
0.7477737380131373
% es.tEy (V/m) @ t=2.7
0
% es.tEz (V/m) @ t=2.7
-0.6553288054371009
% V (V) @ t=2.7
0.043108209115478344
% es.normE (V/m) @ t=2.8
1.3638280176655941
% es.EX (V/m) @ t=2.8
0.7829839584007487
% es.EY (V/m) @ t=2.8
0.6920229231624617
% es.EZ (V/m) @ t=2.8
-0.6861835165965138
% es.tEX (V/m) @ t=2.8
0.7829839584007416
% es.tEY (V/m) @ t=2.8
0
% es.tEZ (V/m) @ t=2.8
-0.6861835165965218
% es.Ex (V/m) @ t=2.8
0.7829839584007487
% es.Ey (V/m) @ t=2.8
0.6920229231624617
% es.Ez (V/m) @ t=2.8
-0.6861835165965138
% es.tEx (V/m) @ t=2.8
0.7829839584007416
% es.tEy (V/m) @ t=2.8
0
% es.tEz (V/m) @ t=2.8
-0.6861835165965218
% V (V) @ t=2.8
0.04513855827464987
% es.normE (V/m) @ t=2.9
1.4268592319566986
% es.EX (V/m) @ t=2.9
0.8191787802515194
% es.EY (V/m) @ t=2.9
0.7239970345448832
% es.EZ (V/m) @ t=2.9
-0.7179000459838534
% es.tEX (V/m) @ t=2.9
0.8191787802515194
% es.tEY (V/m) @ t=2.9
0
% es.tEZ (V/m) @ t=2.9
-0.7179000459838605
% es.Ex (V/m) @ t=2.9
0.8191787802515194
% es.Ey (V/m) @ t=2.9
0.7239970345448832
% es.Ez (V/m) @ t=2.9
-0.7179000459838534
% es.tEx (V/m) @ t=2.9
0.8191787802515194
% es.tEy (V/m) @ t=2.9
0
% es.tEz (V/m) @ t=2.9
-0.7179000459838605
% V (V) @ t=2.9
0.04722587660565769
% es.normE (V/m) @ t=3
1.4899947643140612
% es.EX (V/m) @ t=3
0.8554304531066386
% es.EY (V/m) @ t=3
0.7560273623573117
% es.EZ (V/m) @ t=3
-0.7496676648299969
% es.tEX (V/m) @ t=3
0.855430453106635
% es.tEY (V/m) @ t=3
0
% es.tEZ (V/m) @ t=3
-0.7496676648299854
% es.Ex (V/m) @ t=3
0.8554304531066386
% es.Ey (V/m) @ t=3
0.7560273623573117
% es.Ez (V/m) @ t=3
-0.7496676648299969
% es.tEx (V/m) @ t=3
0.855430453106635
% es.tEy (V/m) @ t=3
0
% es.tEz (V/m) @ t=3
-0.7496676648299854
% V (V) @ t=3
0.049316191294791485
% es.normE (V/m) @ t=3.1
1.553879273228211
% es.EX (V/m) @ t=3.1
0.8921118864138577
% es.EY (V/m) @ t=3.1
0.7884380035696843
% es.EZ (V/m) @ t=3.1
-0.7818119767541836
% es.tEX (V/m) @ t=3.1
0.8921118864138577
% es.tEY (V/m) @ t=3.1
0
% es.tEZ (V/m) @ t=3.1
-0.7818119767541845
% es.Ex (V/m) @ t=3.1
0.8921118864138577
% es.Ey (V/m) @ t=3.1
0.7884380035696843
% es.Ez (V/m) @ t=3.1
-0.7818119767541836
% es.tEx (V/m) @ t=3.1
0.8921118864138577
% es.tEy (V/m) @ t=3.1
0
% es.tEz (V/m) @ t=3.1
-0.7818119767541845
% V (V) @ t=3.1
0.051431249138038704
% es.normE (V/m) @ t=3.2
1.6184579531854189
% es.EX (V/m) @ t=3.2
0.9291918550549205
% es.EY (V/m) @ t=3.2
0.8212008957587731
% es.EZ (V/m) @ t=3.2
-0.8143055098376717
% es.tEX (V/m) @ t=3.2
0.929191855054917
% es.tEY (V/m) @ t=3.2
0
% es.tEZ (V/m) @ t=3.2
-0.8143055098376806
% es.Ex (V/m) @ t=3.2
0.9291918550549205
% es.Ey (V/m) @ t=3.2
0.8212008957587731
% es.Ez (V/m) @ t=3.2
-0.8143055098376717
% es.tEx (V/m) @ t=3.2
0.929191855054917
% es.tEy (V/m) @ t=3.2
0
% es.tEz (V/m) @ t=3.2
-0.8143055098376806
% V (V) @ t=3.2
0.05356926971152815
% es.normE (V/m) @ t=3.3
1.6835846993323647
% es.EX (V/m) @ t=3.3
0.9665863832106218
% es.EY (V/m) @ t=3.3
0.8542420099929071
% es.EZ (V/m) @ t=3.3
-0.8470747060710888
% es.tEX (V/m) @ t=3.3
0.9665863832106112
% es.tEY (V/m) @ t=3.3
0
% es.tEZ (V/m) @ t=3.3
-0.8470747060710977
% es.Ex (V/m) @ t=3.3
0.9665863832106218
% es.Ey (V/m) @ t=3.3
0.8542420099929071
% es.Ez (V/m) @ t=3.3
-0.8470747060710888
% es.tEx (V/m) @ t=3.3
0.9665863832106112
% es.tEy (V/m) @ t=3.3
0
% es.tEz (V/m) @ t=3.3
-0.8470747060710977
% V (V) @ t=3.3
0.055725401640644656
% es.normE (V/m) @ t=3.4
1.7491134068145031
% es.EX (V/m) @ t=3.4
1.0042114950616678
% es.EY (V/m) @ t=3.4
0.887487317340371
% es.EZ (V/m) @ t=3.4
-0.8800460074450234
% es.tEX (V/m) @ t=3.4
1.0042114950616678
% es.tEY (V/m) @ t=3.4
0
% es.tEZ (V/m) @ t=3.4
-0.8800460074450456
% es.Ex (V/m) @ t=3.4
1.0042114950616678
% es.Ey (V/m) @ t=3.4
0.887487317340371
% es.Ez (V/m) @ t=3.4
-0.8800460074450234
% es.tEx (V/m) @ t=3.4
1.0042114950616678
% es.tEy (V/m) @ t=3.4
0
% es.tEz (V/m) @ t=3.4
-0.8800460074450456
% V (V) @ t=3.4
0.057894793550773135
% es.normE (V/m) @ t=3.5
1.8145201211210042
% es.EX (V/m) @ t=3.5
1.041766540436008
% es.EY (V/m) @ t=3.5
0.9206707710148887
% es.EZ (V/m) @ t=3.5
-0.9129558937756981
% es.tEX (V/m) @ t=3.5
1.0417665404359937
% es.tEY (V/m) @ t=3.5
0
% es.tEZ (V/m) @ t=3.5
-0.9129558937756883
% es.Ex (V/m) @ t=3.5
1.041766540436008
% es.Ey (V/m) @ t=3.5
0.9206707710148887
% es.Ez (V/m) @ t=3.5
-0.9129558937756981
% es.tEx (V/m) @ t=3.5
1.0417665404359937
% es.tEy (V/m) @ t=3.5
0
% es.tEz (V/m) @ t=3.5
-0.9129558937756883
% V (V) @ t=3.5
0.060060135926797195
% es.normE (V/m) @ t=3.6
1.8782205567636687
% es.EX (V/m) @ t=3.6
1.0783428322715736
% es.EY (V/m) @ t=3.6
0.9529874790097175
% es.EZ (V/m) @ t=3.6
-0.9450077683602052
% es.tEX (V/m) @ t=3.6
1.0783428322715878
% es.tEY (V/m) @ t=3.6
0
% es.tEZ (V/m) @ t=3.6
-0.9450077683602132
% es.Ex (V/m) @ t=3.6
1.0783428322715736
% es.Ey (V/m) @ t=3.6
0.9529874790097175
% es.Ez (V/m) @ t=3.6
-0.9450077683602052
% es.tEx (V/m) @ t=3.6
1.0783428322715878
% es.tEy (V/m) @ t=3.6
0
% es.tEz (V/m) @ t=3.6
-0.9450077683602132
% V (V) @ t=3.6
0.06216915891376888
% es.normE (V/m) @ t=3.7
1.9408909745960021
% es.EX (V/m) @ t=3.7
1.1143279726725765
% es.EY (V/m) @ t=3.7
0.9847813270201797
% es.EZ (V/m) @ t=3.7
-0.9765415137584732
% es.tEX (V/m) @ t=3.7
1.1143279726725623
% es.tEY (V/m) @ t=3.7
0
% es.tEZ (V/m) @ t=3.7
-0.9765415137584768
% es.Ex (V/m) @ t=3.7
1.1143279726725765
% es.Ey (V/m) @ t=3.7
0.9847813270201797
% es.Ez (V/m) @ t=3.7
-0.9765415137584732
% es.tEx (V/m) @ t=3.7
1.1143279726725623
% es.tEy (V/m) @ t=3.7
0
% es.tEz (V/m) @ t=3.7
-0.9765415137584768
% V (V) @ t=3.7
0.06424412548611165
% es.normE (V/m) @ t=3.8
2.002241910107216
% es.EX (V/m) @ t=3.8
1.1495557775625045
% es.EY (V/m) @ t=3.8
1.0159054327610288
% es.EZ (V/m) @ t=3.8
-1.007411498551841
% es.tEX (V/m) @ t=3.8
1.1495557775625116
% es.tEY (V/m) @ t=3.8
0
% es.tEZ (V/m) @ t=3.8
-1.0074114985518605
% es.Ex (V/m) @ t=3.8
1.1495557775625045
% es.Ey (V/m) @ t=3.8
1.0159054327610288
% es.Ez (V/m) @ t=3.8
-1.007411498551841
% es.tEx (V/m) @ t=3.8
1.1495557775625116
% es.tEy (V/m) @ t=3.8
0
% es.tEz (V/m) @ t=3.8
-1.0074114985518605
% V (V) @ t=3.8
0.06627545753525947
% es.normE (V/m) @ t=3.9
2.0619838987867376
% es.EX (V/m) @ t=3.9
1.183860062864813
% es.EY (V/m) @ t=3.9
1.046212913947123
% es.EZ (V/m) @ t=3.9
-1.0374720913216837
% es.tEX (V/m) @ t=3.9
1.1838600628648308
% es.tEY (V/m) @ t=3.9
0
% es.tEZ (V/m) @ t=3.9
-1.0374720913217033
% es.Ex (V/m) @ t=3.9
1.183860062864813
% es.Ey (V/m) @ t=3.9
1.046212913947123
% es.Ez (V/m) @ t=3.9
-1.0374720913216837
% es.tEx (V/m) @ t=3.9
1.1838600628648308
% es.tEy (V/m) @ t=3.9
0
% es.tEz (V/m) @ t=3.9
-1.0374720913217033
% V (V) @ t=3.9
0.06825357695264635
% es.normE (V/m) @ t=4
2.1198274761243194
% es.EX (V/m) @ t=4
1.2170746445028122
% es.EY (V/m) @ t=4
1.0755568882935282
% es.EZ (V/m) @ t=4
-1.0665776606492692
% es.tEX (V/m) @ t=4
1.2170746445028229
% es.tEY (V/m) @ t=4
0
% es.tEZ (V/m) @ t=4
-1.0665776606492585
% es.Ex (V/m) @ t=4
1.2170746445028122
% es.Ey (V/m) @ t=4
1.0755568882935282
% es.Ez (V/m) @ t=4
-1.0665776606492692
% es.tEx (V/m) @ t=4
1.2170746445028229
% es.tEy (V/m) @ t=4
0
% es.tEz (V/m) @ t=4
-1.0665776606492585
% V (V) @ t=4
0.07016890562970628
% es.normE (V/m) @ t=4.1
2.1753755590493746
% es.EX (V/m) @ t=4.1
1.2489667291633602
% es.EY (V/m) @ t=4.1
1.1037410279948752
% es.EZ (V/m) @ t=4.1
-1.0945262914819605
% es.tEX (V/m) @ t=4.1
1.2489667291633637
% es.tEY (V/m) @ t=4.1
0
% es.tEZ (V/m) @ t=4.1
-1.0945262914819693
% es.Ex (V/m) @ t=4.1
1.2489667291633602
% es.Ey (V/m) @ t=4.1
1.1037410279948752
% es.Ez (V/m) @ t=4.1
-1.0945262914819605
% es.tEx (V/m) @ t=4.1
1.2489667291633637
% es.tEy (V/m) @ t=4.1
0
% es.tEz (V/m) @ t=4.1
-1.0945262914819693
% V (V) @ t=4.1
0.07200760504533057
% es.normE (V/m) @ t=4.2
2.228269370909621
% es.EX (V/m) @ t=4.2
1.2793272328233805
% es.EY (V/m) @ t=4.2
1.1305866051807278
% es.EZ (V/m) @ t=4.2
-1.1211361027004276
% es.tEX (V/m) @ t=4.2
1.2793272328233982
% es.tEY (V/m) @ t=4.2
0
% es.tEZ (V/m) @ t=4.2
-1.121136102700433
% es.Ex (V/m) @ t=4.2
1.2793272328233805
% es.Ey (V/m) @ t=4.2
1.1305866051807278
% es.Ez (V/m) @ t=4.2
-1.1211361027004276
% es.tEx (V/m) @ t=4.2
1.2793272328233982
% es.tEy (V/m) @ t=4.2
0
% es.tEz (V/m) @ t=4.2
-1.121136102700433
% V (V) @ t=4.2
0.07375735315514848
% es.normE (V/m) @ t=4.3
2.27827722271536
% es.EX (V/m) @ t=4.3
1.3080257308222976
% es.EY (V/m) @ t=4.3
1.155973282576566
% es.EZ (V/m) @ t=4.3
-1.146291678963884
% es.tEX (V/m) @ t=4.3
1.308025730822287
% es.tEY (V/m) @ t=4.3
0
% es.tEZ (V/m) @ t=4.3
-1.146291678963891
% es.Ex (V/m) @ t=4.3
1.3080257308222976
% es.Ey (V/m) @ t=4.3
1.155973282576566
% es.Ez (V/m) @ t=4.3
-1.146291678963884
% es.tEx (V/m) @ t=4.3
1.308025730822287
% es.tEy (V/m) @ t=4.3
0
% es.tEz (V/m) @ t=4.3
-1.146291678963891
% V (V) @ t=4.3
0.07541085906887202
% es.normE (V/m) @ t=4.4
2.3250931676071334
% es.EX (V/m) @ t=4.4
1.3348858374156194
% es.EY (V/m) @ t=4.4
1.179746604972193
% es.EZ (V/m) @ t=4.4
-1.1698387686237233
% es.tEX (V/m) @ t=4.4
1.3348858374156265
% es.tEY (V/m) @ t=4.4
0
% es.tEZ (V/m) @ t=4.4
-1.1698387686237481
% es.Ex (V/m) @ t=4.4
1.3348858374156194
% es.Ey (V/m) @ t=4.4
1.179746604972193
% es.Ez (V/m) @ t=4.4
-1.1698387686237233
% es.tEx (V/m) @ t=4.4
1.3348858374156265
% es.tEy (V/m) @ t=4.4
0
% es.tEz (V/m) @ t=4.4
-1.1698387686237481
% V (V) @ t=4.4
0.07695789216613293
% es.normE (V/m) @ t=4.5
2.368411258835683
% es.EX (V/m) @ t=4.5
1.3597311668592553
% es.EY (V/m) @ t=4.5
1.201752117157259
% es.EZ (V/m) @ t=4.5
-1.1916231200314336
% es.tEX (V/m) @ t=4.5
1.359731166859234
% es.tEY (V/m) @ t=4.5
0
% es.tEZ (V/m) @ t=4.5
-1.191623120031437
% es.Ex (V/m) @ t=4.5
1.3597311668592553
% es.Ey (V/m) @ t=4.5
1.201752117157259
% es.Ez (V/m) @ t=4.5
-1.1916231200314336
% es.tEx (V/m) @ t=4.5
1.359731166859234
% es.tEy (V/m) @ t=4.5
0
% es.tEz (V/m) @ t=4.5
-1.191623120031437
% V (V) @ t=4.5
0.07838822182656277
% es.normE (V/m) @ t=4.6
2.4079255497919743
% es.EX (V/m) @ t=4.6
1.382385333408699
% es.EY (V/m) @ t=4.6
1.2218353639214978
% es.EZ (V/m) @ t=4.6
-1.211490481538437
% es.tEX (V/m) @ t=4.6
1.382385333408692
% es.tEY (V/m) @ t=4.6
0
% es.tEZ (V/m) @ t=4.6
-1.211490481538462
% es.Ex (V/m) @ t=4.6
1.382385333408699
% es.Ey (V/m) @ t=4.6
1.2218353639214978
% es.Ez (V/m) @ t=4.6
-1.211490481538437
% es.tEx (V/m) @ t=4.6
1.382385333408692
% es.tEy (V/m) @ t=4.6
0
% es.tEz (V/m) @ t=4.6
-1.211490481538462
% V (V) @ t=4.6
0.0796916174297932
% es.normE (V/m) @ t=4.7
2.444992985414859
% es.EX (V/m) @ t=4.7
1.4036417498646188
% es.EY (V/m) @ t=4.7
1.2406695981809612
% es.EZ (V/m) @ t=4.7
-1.2301297872486607
% es.tEX (V/m) @ t=4.7
1.4036417498646045
% es.tEY (V/m) @ t=4.7
0
% es.tEZ (V/m) @ t=4.7
-1.2301297872486714
% es.Ex (V/m) @ t=4.7
1.4036417498646188
% es.Ey (V/m) @ t=4.7
1.2406695981809612
% es.Ez (V/m) @ t=4.7
-1.2301297872486607
% es.tEx (V/m) @ t=4.7
1.4036417498646045
% es.tEy (V/m) @ t=4.7
0
% es.tEz (V/m) @ t=4.7
-1.2301297872486714
% V (V) @ t=4.7
0.08091502048085694
% es.normE (V/m) @ t=4.8
2.478907855942235
% es.EX (V/m) @ t=4.8
1.4230908889719203
% es.EY (V/m) @ t=4.8
1.257901382035815
% es.EZ (V/m) @ t=4.8
-1.2471840819714544
% es.tEX (V/m) @ t=4.8
1.4230908889719416
% es.tEY (V/m) @ t=4.8
0
% es.tEZ (V/m) @ t=4.8
-1.2471840819714544
% es.Ex (V/m) @ t=4.8
1.4230908889719203
% es.Ey (V/m) @ t=4.8
1.257901382035815
% es.Ez (V/m) @ t=4.8
-1.2471840819714544
% es.tEx (V/m) @ t=4.8
1.4230908889719416
% es.tEy (V/m) @ t=4.8
0
% es.tEz (V/m) @ t=4.8
-1.2471840819714544
% V (V) @ t=4.8
0.08203445606604048
% es.normE (V/m) @ t=4.9
2.50924149248868
% es.EX (V/m) @ t=4.9
1.440484793594976
% es.EY (V/m) @ t=4.9
1.2733151751947585
% es.EZ (V/m) @ t=4.9
-1.26243688672478
% es.tEX (V/m) @ t=4.9
1.440484793594976
% es.tEY (V/m) @ t=4.9
0
% es.tEZ (V/m) @ t=4.9
-1.2624368867247568
% es.Ex (V/m) @ t=4.9
1.440484793594976
% es.Ey (V/m) @ t=4.9
1.2733151751947585
% es.Ez (V/m) @ t=4.9
-1.26243688672478
% es.tEx (V/m) @ t=4.9
1.440484793594976
% es.tEy (V/m) @ t=4.9
0
% es.tEz (V/m) @ t=4.9
-1.2624368867247568
% V (V) @ t=4.9
0.08303547424686733
% es.normE (V/m) @ t=5
2.535839454777694
% es.EX (V/m) @ t=5
1.4557354367564912
% es.EY (V/m) @ t=5
1.2868319352951456
% es.EZ (V/m) @ t=5
-1.2758107728804973
% es.tEX (V/m) @ t=5
1.455735436756484
% es.tEY (V/m) @ t=5
0
% es.tEZ (V/m) @ t=5
-1.2758107728805186
% es.Ex (V/m) @ t=5
1.4557354367564912
% es.Ey (V/m) @ t=5
1.2868319352951456
% es.Ez (V/m) @ t=5
-1.2758107728804973
% es.tEx (V/m) @ t=5
1.455735436756484
% es.tEy (V/m) @ t=5
0
% es.tEz (V/m) @ t=5
-1.2758107728805186
% V (V) @ t=5
0.083913053380166
% es.normE (V/m) @ t=5.1
2.558547302504496
% es.EX (V/m) @ t=5.1
1.468754791479192
% es.EY (V/m) @ t=5.1
1.2983726199735806
% es.EZ (V/m) @ t=5.1
-1.2872283118106225
% es.tEX (V/m) @ t=5.1
1.4687547914791708
% es.tEY (V/m) @ t=5.1
0
% es.tEZ (V/m) @ t=5.1
-1.287228311810651
% es.Ex (V/m) @ t=5.1
1.468754791479192
% es.Ey (V/m) @ t=5.1
1.2983726199735806
% es.Ez (V/m) @ t=5.1
-1.2872283118106225
% es.tEx (V/m) @ t=5.1
1.4687547914791708
% es.tEy (V/m) @ t=5.1
0
% es.tEz (V/m) @ t=5.1
-1.287228311810651
% V (V) @ t=5.1
0.084662171822765
% es.normE (V/m) @ t=5.2
2.5774792753679723
% es.EX (V/m) @ t=5.2
1.4796112215471027
% es.EY (V/m) @ t=5.2
1.3079922489393887
% es.EZ (V/m) @ t=5.2
-1.2967481756120094
% es.tEX (V/m) @ t=5.2
1.4796112215470743
% es.tEY (V/m) @ t=5.2
0
% es.tEZ (V/m) @ t=5.2
-1.2967481756120378
% es.Ex (V/m) @ t=5.2
1.4796112215471027
% es.Ey (V/m) @ t=5.2
1.3079922489393887
% es.Ez (V/m) @ t=5.2
-1.2967481756120094
% es.tEx (V/m) @ t=5.2
1.4796112215470743
% es.tEy (V/m) @ t=5.2
0
% es.tEz (V/m) @ t=5.2
-1.2967481756120378
% V (V) @ t=5.2
0.08528700092321226
% es.normE (V/m) @ t=5.3
2.594799839983263
% es.EX (V/m) @ t=5.3
1.4895664676955107
% es.EY (V/m) @ t=5.3
1.3167688344707233
% es.EZ (V/m) @ t=5.3
-1.3054675853786613
% es.tEX (V/m) @ t=5.3
1.4895664676955107
% es.tEY (V/m) @ t=5.3
0
% es.tEZ (V/m) @ t=5.3
-1.3054675853786648
% es.Ex (V/m) @ t=5.3
1.4895664676955107
% es.Ey (V/m) @ t=5.3