% Model:              1x1--2 - Copy1.mph
% Version:            COMSOL 6.1.0.252
% Date:               Mar 28 2023, 11:24
% Dimension:          0
% Nodes:              14017
% Expressions:        14017
% Description:        Electric field norm, Electric field, X component, Electric field, Y component, Electric field, Z component, Tangential electric field, X component, Tangential electric field, Y component, Tangential electric field, Z component, Electric field, x component, Electric field, y component, Electric field, z component, Tangential electric field, x component, Tangential electric field, y component, Tangential electric field, z component, Electric potential
% Length unit:        mm
% x
2
% y
12.2
% z
2
% es.normE (V/m) @ t=0
0.5144051804235444
% es.EX (V/m) @ t=0
0.2406872611506703
% es.EY (V/m) @ t=0
0.1844088510393318
% es.EZ (V/m) @ t=0
-0.38354556872352563
% es.tEX (V/m) @ t=0
0.24068726115066852
% es.tEY (V/m) @ t=0
0
% es.tEZ (V/m) @ t=0
-0.38354556872352674
% es.Ex (V/m) @ t=0
0.2406872611506703
% es.Ey (V/m) @ t=0
0.1844088510393318
% es.Ez (V/m) @ t=0
-0.38354556872352563
% es.tEx (V/m) @ t=0
0.24068726115066852
% es.tEy (V/m) @ t=0
0
% es.tEz (V/m) @ t=0
-0.38354556872352674
% V (V) @ t=0
0.012231021448009725
% es.normE (V/m) @ t=0.1
0.5313676107339986
% es.EX (V/m) @ t=0.1
0.24862348680155755
% es.EY (V/m) @ t=0.1
0.1904913795459917
% es.EZ (V/m) @ t=0.1
-0.39619192393501645
% es.tEX (V/m) @ t=0.1
0.24862348680155577
% es.tEY (V/m) @ t=0.1
0
% es.tEZ (V/m) @ t=0.1
-0.39619192393501734
% es.Ex (V/m) @ t=0.1
0.24862348680155755
% es.Ey (V/m) @ t=0.1
0.1904913795459917
% es.Ez (V/m) @ t=0.1
-0.39619192393501645
% es.tEx (V/m) @ t=0.1
0.24862348680155577
% es.tEy (V/m) @ t=0.1
0
% es.tEz (V/m) @ t=0.1
-0.39619192393501734
% V (V) @ t=0.1
0.012634252953574912
% es.normE (V/m) @ t=0.2
0.5666190839117395
% es.EX (V/m) @ t=0.2
0.26511488025623464
% es.EY (V/m) @ t=0.2
0.20314003304076866
% es.EZ (V/m) @ t=0.2
-0.4224688893639166
% es.tEX (V/m) @ t=0.2
0.26511488025622754
% es.tEY (V/m) @ t=0.2
0
% es.tEZ (V/m) @ t=0.2
-0.4224688893639197
% es.Ex (V/m) @ t=0.2
0.26511488025623464
% es.Ey (V/m) @ t=0.2
0.20314003304076866
% es.Ez (V/m) @ t=0.2
-0.4224688893639166
% es.tEx (V/m) @ t=0.2
0.26511488025622754
% es.tEy (V/m) @ t=0.2
0
% es.tEz (V/m) @ t=0.2
-0.4224688893639197
% V (V) @ t=0.2
0.013471846393651175
% es.normE (V/m) @ t=0.3
0.603651406236269
% es.EX (V/m) @ t=0.3
0.28244110876567774
% es.EY (V/m) @ t=0.3
0.21641999280947388
% es.EZ (V/m) @ t=0.3
-0.4500779891166813
% es.tEX (V/m) @ t=0.3
0.28244110876567596
% es.tEY (V/m) @ t=0.3
0
% es.tEZ (V/m) @ t=0.3
-0.4500779891166893
% es.Ex (V/m) @ t=0.3
0.28244110876567774
% es.Ey (V/m) @ t=0.3
0.21641999280947388
% es.Ez (V/m) @ t=0.3
-0.4500779891166813
% es.tEx (V/m) @ t=0.3
0.28244110876567596
% es.tEy (V/m) @ t=0.3
0
% es.tEz (V/m) @ t=0.3
-0.4500779891166893
% V (V) @ t=0.3
0.01435214687535555
% es.normE (V/m) @ t=0.4
0.6427225462101924
% es.EX (V/m) @ t=0.4
0.3007269514315265
% es.EY (V/m) @ t=0.4
0.23040549683192424
% es.EZ (V/m) @ t=0.4
-0.47922263577675794
% es.tEX (V/m) @ t=0.4
0.3007269514315176
% es.tEY (V/m) @ t=0.4
0
% es.tEZ (V/m) @ t=0.4
-0.4792226357767646
% es.Ex (V/m) @ t=0.4
0.3007269514315265
% es.Ey (V/m) @ t=0.4
0.23040549683192424
% es.Ez (V/m) @ t=0.4
-0.47922263577675794
% es.tEx (V/m) @ t=0.4
0.3007269514315176
% es.tEy (V/m) @ t=0.4
0
% es.tEz (V/m) @ t=0.4
-0.4792226357767646
% V (V) @ t=0.4
0.015282223284225745
% es.normE (V/m) @ t=0.5
0.6846500252902897
% es.EX (V/m) @ t=0.5
0.3203416812876885
% es.EY (V/m) @ t=0.5
0.24544885575708975
% es.EZ (V/m) @ t=0.5
-0.5104764375702717
% es.tEX (V/m) @ t=0.5
0.32034168128768314
% es.tEY (V/m) @ t=0.5
0
% es.tEZ (V/m) @ t=0.5
-0.5104764375702793
% es.Ex (V/m) @ t=0.5
0.3203416812876885
% es.Ey (V/m) @ t=0.5
0.24544885575708975
% es.Ez (V/m) @ t=0.5
-0.5104764375702717
% es.tEx (V/m) @ t=0.5
0.32034168128768314
% es.tEy (V/m) @ t=0.5
0
% es.tEz (V/m) @ t=0.5
-0.5104764375702793
% V (V) @ t=0.5
0.0162784794501406
% es.normE (V/m) @ t=0.6
0.7278547284986279
% es.EX (V/m) @ t=0.6
0.3405548381364234
% es.EY (V/m) @ t=0.6
0.26094640481678333
% es.EZ (V/m) @ t=0.6
-0.5426847849952363
% es.tEX (V/m) @ t=0.6
0.34055483813641096
% es.tEY (V/m) @ t=0.6
0
% es.tEZ (V/m) @ t=0.6
-0.5426847849952416
% es.Ex (V/m) @ t=0.6
0.3405548381364234
% es.Ey (V/m) @ t=0.6
0.26094640481678333
% es.Ez (V/m) @ t=0.6
-0.5426847849952363
% es.tEx (V/m) @ t=0.6
0.34055483813641096
% es.tEy (V/m) @ t=0.6
0
% es.tEz (V/m) @ t=0.6
-0.5426847849952416
% V (V) @ t=0.6
0.017305293102301673
% es.normE (V/m) @ t=0.7
0.7733555373201477
% es.EX (V/m) @ t=0.7
0.3618451003826344
% es.EY (V/m) @ t=0.7
0.2772546752270948
% es.EZ (V/m) @ t=0.7
-0.5766126629567538
% es.tEX (V/m) @ t=0.7
0.3618451003826344
% es.tEY (V/m) @ t=0.7
0
% es.tEZ (V/m) @ t=0.7
-0.5766126629567552
% es.Ex (V/m) @ t=0.7
0.3618451003826344
% es.Ey (V/m) @ t=0.7
0.2772546752270948
% es.Ez (V/m) @ t=0.7
-0.5766126629567538
% es.tEx (V/m) @ t=0.7
0.3618451003826344
% es.tEy (V/m) @ t=0.7
0
% es.tEz (V/m) @ t=0.7
-0.5766126629567552
% V (V) @ t=0.7
0.01838733758807792
% es.normE (V/m) @ t=0.8
0.8207784265387392
% es.EX (V/m) @ t=0.8
0.3840370123219934
% es.EY (V/m) @ t=0.8
0.2942416040665279
% es.EZ (V/m) @ t=0.8
-0.6119799675373123
% es.tEX (V/m) @ t=0.8
0.38403701232198273
% es.tEY (V/m) @ t=0.8
0
% es.tEZ (V/m) @ t=0.8
-0.6119799675373159
% es.Ex (V/m) @ t=0.8
0.3840370123219934
% es.Ey (V/m) @ t=0.8
0.2942416040665279
% es.Ez (V/m) @ t=0.8
-0.6119799675373123
% es.tEx (V/m) @ t=0.8
0.38403701232198273
% es.tEy (V/m) @ t=0.8
0
% es.tEz (V/m) @ t=0.8
-0.6119799675373159
% V (V) @ t=0.8
0.01951561604900424
% es.normE (V/m) @ t=0.9
0.8709762236589121
% es.EX (V/m) @ t=0.9
0.4075244994529381
% es.EY (V/m) @ t=0.9
0.3122357644088627
% es.EZ (V/m) @ t=0.9
-0.6494087153341641
% es.tEX (V/m) @ t=0.9
0.4075244994529257
% es.tEY (V/m) @ t=0.9
0
% es.tEZ (V/m) @ t=0.9
-0.6494087153341752
% es.Ex (V/m) @ t=0.9
0.4075244994529381
% es.Ey (V/m) @ t=0.9
0.3122357644088627
% es.Ez (V/m) @ t=0.9
-0.6494087153341641
% es.tEx (V/m) @ t=0.9
0.4075244994529257
% es.tEy (V/m) @ t=0.9
0
% es.tEz (V/m) @ t=0.9
-0.6494087153341752
% V (V) @ t=0.9
0.02070923527516372
% es.normE (V/m) @ t=1
0.923722259205364
% es.EX (V/m) @ t=1
0.432202862007145
% es.EY (V/m) @ t=1
0.331149826226401
% es.EZ (V/m) @ t=1
-0.6887335832243648
% es.tEX (V/m) @ t=1
0.43220286200713076
% es.tEY (V/m) @ t=1
0
% es.tEZ (V/m) @ t=1
-0.6887335832243764
% es.Ex (V/m) @ t=1
0.432202862007145
% es.Ey (V/m) @ t=1
0.331149826226401
% es.Ez (V/m) @ t=1
-0.6887335832243648
% es.tEx (V/m) @ t=1
0.43220286200713076
% es.tEy (V/m) @ t=1
0
% es.tEz (V/m) @ t=1
-0.6887335832243764
% V (V) @ t=1
0.0219631169547869
% es.normE (V/m) @ t=1.1
0.9790039407623974
% es.EX (V/m) @ t=1.1
0.458067173032326
% es.EY (V/m) @ t=1.1
0.35097495778889254
% es.EZ (V/m) @ t=1.1
-0.7299478018075809
% es.tEX (V/m) @ t=1.1
0.45806717303231537
% es.tEY (V/m) @ t=1.1
0
% es.tEZ (V/m) @ t=1.1
-0.729947801807576
% es.Ex (V/m) @ t=1.1
0.458067173032326
% es.Ey (V/m) @ t=1.1
0.35097495778889254
% es.Ez (V/m) @ t=1.1
-0.7299478018075809
% es.tEx (V/m) @ t=1.1
0.45806717303231537
% es.tEy (V/m) @ t=1.1
0
% es.tEz (V/m) @ t=1.1
-0.729947801807576
% V (V) @ t=1.1
0.0232771828589816
% es.normE (V/m) @ t=1.2
1.0372670879447874
% es.EX (V/m) @ t=1.2
0.48532884996555303
% es.EY (V/m) @ t=1.2
0.3718583551392207
% es.EZ (V/m) @ t=1.2
-0.7733914400004265
% es.tEX (V/m) @ t=1.2
0.4853288499655335
% es.tEY (V/m) @ t=1.2
0
% es.tEZ (V/m) @ t=1.2
-0.7733914400004451
% es.Ex (V/m) @ t=1.2
0.48532884996555303
% es.Ey (V/m) @ t=1.2
0.3718583551392207
% es.Ez (V/m) @ t=1.2
-0.7733914400004265
% es.tEx (V/m) @ t=1.2
0.4853288499655335
% es.tEy (V/m) @ t=1.2
0
% es.tEz (V/m) @ t=1.2
-0.7733914400004451
% V (V) @ t=1.2
0.024662679676760706
% es.normE (V/m) @ t=1.3
1.098285076956191
% es.EX (V/m) @ t=1.3
0.513880422814605
% es.EY (V/m) @ t=1.3
0.3937251939970441
% es.EZ (V/m) @ t=1.3
-0.8188916303028839
% es.tEX (V/m) @ t=1.3
0.5138804228145872
% es.tEY (V/m) @ t=1.3
0
% es.tEZ (V/m) @ t=1.3
-0.8188916303028861
% es.Ex (V/m) @ t=1.3
0.513880422814605
% es.Ey (V/m) @ t=1.3
0.3937251939970441
% es.Ez (V/m) @ t=1.3
-0.8188916303028839
% es.tEx (V/m) @ t=1.3
0.5138804228145872
% es.tEy (V/m) @ t=1.3
0
% es.tEz (V/m) @ t=1.3
-0.8188916303028861
% V (V) @ t=1.3
0.026113890369847757
% es.normE (V/m) @ t=1.4
1.162111891882776
% es.EX (V/m) @ t=1.4
0.5437462093795205
% es.EY (V/m) @ t=1.4
0.41659904174636964
% es.EZ (V/m) @ t=1.4
-0.866486065941332
% es.tEX (V/m) @ t=1.4
0.543746209379492
% es.tEY (V/m) @ t=1.4
0
% es.tEZ (V/m) @ t=1.4
-0.866486065941352
% es.Ex (V/m) @ t=1.4
0.5437462093795205
% es.Ey (V/m) @ t=1.4
0.41659904174636964
% es.Ez (V/m) @ t=1.4
-0.866486065941332
% es.tEx (V/m) @ t=1.4
0.543746209379492
% es.tEy (V/m) @ t=1.4
0
% es.tEz (V/m) @ t=1.4
-0.866486065941352
% V (V) @ t=1.4
0.02763188290083649
% es.normE (V/m) @ t=1.5
1.2288090839991948
% es.EX (V/m) @ t=1.5
0.5749539362695515
% es.EY (V/m) @ t=1.5
0.44050676938898015
% es.EZ (V/m) @ t=1.5
-0.9162177238857905
% es.tEX (V/m) @ t=1.5
0.5749539362695408
% es.tEY (V/m) @ t=1.5
0
% es.tEZ (V/m) @ t=1.5
-0.9162177238857936
% es.Ex (V/m) @ t=1.5
0.5749539362695515
% es.Ey (V/m) @ t=1.5
0.44050676938898015
% es.Ez (V/m) @ t=1.5
-0.9162177238857905
% es.tEx (V/m) @ t=1.5
0.5749539362695408
% es.tEy (V/m) @ t=1.5
0
% es.tEz (V/m) @ t=1.5
-0.9162177238857936
% V (V) @ t=1.5
0.029217874936685897
% es.normE (V/m) @ t=1.6
1.2983342217812424
% es.EX (V/m) @ t=1.6
0.6074844896578
% es.EY (V/m) @ t=1.6
0.4654298529261123
% es.EZ (V/m) @ t=1.6
-0.9680569772043217
% es.tEX (V/m) @ t=1.6
0.6074844896577893
% es.tEY (V/m) @ t=1.6
0
% es.tEZ (V/m) @ t=1.6
-0.9680569772043341
% es.Ex (V/m) @ t=1.6
0.6074844896578
% es.Ey (V/m) @ t=1.6
0.4654298529261123
% es.Ez (V/m) @ t=1.6
-0.9680569772043217
% es.tEx (V/m) @ t=1.6
0.6074844896577893
% es.tEy (V/m) @ t=1.6
0
% es.tEz (V/m) @ t=1.6
-0.9680569772043341
% V (V) @ t=1.6
0.03087102705721151
% es.normE (V/m) @ t=1.7
1.3706873052259567
% es.EX (V/m) @ t=1.7
0.6413378695442695
% es.EY (V/m) @ t=1.7
0.49136829235771984
% es.EZ (V/m) @ t=1.7
-1.0220038258969488
% es.tEX (V/m) @ t=1.7
0.6413378695442624
% es.tEY (V/m) @ t=1.7
0
% es.tEZ (V/m) @ t=1.7
-1.0220038258969524
% es.Ex (V/m) @ t=1.7
0.6413378695442695
% es.Ey (V/m) @ t=1.7
0.49136829235771984
% es.Ez (V/m) @ t=1.7
-1.0220038258969488
% es.tEx (V/m) @ t=1.7
0.6413378695442624
% es.tEy (V/m) @ t=1.7
0
% es.tEz (V/m) @ t=1.7
-1.0220038258969524
% V (V) @ t=1.7
0.0325913392624133
% es.normE (V/m) @ t=1.8
1.4458683343388636
% es.EX (V/m) @ t=1.8
0.6765140759289778
% es.EY (V/m) @ t=1.8
0.5183220876838419
% es.EZ (V/m) @ t=1.8
-1.0780582699636225
% es.tEX (V/m) @ t=1.8
0.676514075928953
% es.tEY (V/m) @ t=1.8
0
% es.tEZ (V/m) @ t=1.8
-1.078058269963634
% es.Ex (V/m) @ t=1.8
0.6765140759289778
% es.Ey (V/m) @ t=1.8
0.5183220876838419
% es.Ez (V/m) @ t=1.8
-1.0780582699636225
% es.tEx (V/m) @ t=1.8
0.676514075928953
% es.tEy (V/m) @ t=1.8
0
% es.tEz (V/m) @ t=1.8
-1.078058269963634
% V (V) @ t=1.8
0.034378811552291284
% es.normE (V/m) @ t=1.9
1.5237765705147737
% es.EX (V/m) @ t=1.9
0.7129661356173749
% es.EY (V/m) @ t=1.9
0.5462544026511722
% es.EZ (V/m) @ t=1.9
-1.1361456358346649
% es.tEX (V/m) @ t=1.9
0.7129661356173642
% es.tEY (V/m) @ t=1.9
0
% es.tEZ (V/m) @ t=1.9
-1.1361456358346729
% es.Ex (V/m) @ t=1.9
0.7129661356173749
% es.Ey (V/m) @ t=1.9
0.5462544026511722
% es.Ez (V/m) @ t=1.9
-1.1361456358346649
% es.tEx (V/m) @ t=1.9
0.7129661356173642
% es.tEy (V/m) @ t=1.9
0
% es.tEz (V/m) @ t=1.9
-1.1361456358346729
% V (V) @ t=1.9
0.03623108562086741
% es.normE (V/m) @ t=2
1.602319638184049
% es.EX (V/m) @ t=2
0.7497183992477439
% es.EY (V/m) @ t=2
0.5744001356443995
% es.EZ (V/m) @ t=2
-1.1947149278544273
% es.tEX (V/m) @ t=2
0.7497183992477332
% es.tEY (V/m) @ t=2
0
% es.tEZ (V/m) @ t=2
-1.1947149278544344
% es.Ex (V/m) @ t=2
0.7497183992477439
% es.Ey (V/m) @ t=2
0.5744001356443995
% es.Ez (V/m) @ t=2
-1.1947149278544273
% es.tEx (V/m) @ t=2
0.7497183992477332
% es.tEy (V/m) @ t=2
0
% es.tEz (V/m) @ t=2
-1.1947149278544344
% V (V) @ t=2
0.038099178644118575
% es.normE (V/m) @ t=2.1
1.682986795061631
% es.EX (V/m) @ t=2.1
0.7874652895656062
% es.EY (V/m) @ t=2.1
0.6033038511198789
% es.EZ (V/m) @ t=2.1
-1.2548700740360488
% es.tEX (V/m) @ t=2.1
0.7874652895655814
% es.tEY (V/m) @ t=2.1
0
% es.tEZ (V/m) @ t=2.1
-1.254870074036063
% es.Ex (V/m) @ t=2.1
0.7874652895656062
% es.Ey (V/m) @ t=2.1
0.6033038511198789
% es.Ez (V/m) @ t=2.1
-1.2548700740360488
% es.tEx (V/m) @ t=2.1
0.7874652895655814
% es.tEy (V/m) @ t=2.1
0
% es.tEz (V/m) @ t=2.1
-1.254870074036063
% V (V) @ t=2.1
0.04001795436354391
% es.normE (V/m) @ t=2.2
1.7657780412523028
% es.EX (V/m) @ t=2.2
0.8262068065709194
% es.EY (V/m) @ t=2.2
0.6329655490776922
% es.EZ (V/m) @ t=2.2
-1.316611074379578
% es.tEX (V/m) @ t=2.2
0.8262068065709016
% es.tEY (V/m) @ t=2.2
0
% es.tEZ (V/m) @ t=2.2
-1.316611074379594
% es.Ex (V/m) @ t=2.2
0.8262068065709194
% es.Ey (V/m) @ t=2.2
0.6329655490776922
% es.Ez (V/m) @ t=2.2
-1.316611074379578
% es.tEx (V/m) @ t=2.2
0.8262068065709016
% es.tEy (V/m) @ t=2.2
0
% es.tEz (V/m) @ t=2.2
-1.316611074379594
% V (V) @ t=2.2
0.04198741277914338
% es.normE (V/m) @ t=2.3
1.8506933768701623
% es.EX (V/m) @ t=2.3
0.8659429502637401
% es.EY (V/m) @ t=2.3
0.663385229517754
% es.EZ (V/m) @ t=2.3
-1.3799379288849796
% es.tEX (V/m) @ t=2.3
0.8659429502637082
% es.tEY (V/m) @ t=2.3
0
% es.tEZ (V/m) @ t=2.3
-1.379937928884999
% es.Ex (V/m) @ t=2.3
0.8659429502637401
% es.Ey (V/m) @ t=2.3
0.663385229517754
% es.Ez (V/m) @ t=2.3
-1.3799379288849796
% es.tEx (V/m) @ t=2.3
0.8659429502637082
% es.tEy (V/m) @ t=2.3
0
% es.tEz (V/m) @ t=2.3
-1.379937928884999
% V (V) @ t=2.3
0.04400755389091699
% es.normE (V/m) @ t=2.4
1.9377328020355136
% es.EX (V/m) @ t=2.4
0.9066737206440294
% es.EY (V/m) @ t=2.4
0.6945628924401213
% es.EZ (V/m) @ t=2.4
-1.4448506375522667
% es.tEX (V/m) @ t=2.4
0.9066737206440152
% es.tEY (V/m) @ t=2.4
0
% es.tEZ (V/m) @ t=2.4
-1.4448506375522783
% es.Ex (V/m) @ t=2.4
0.9066737206440294
% es.Ey (V/m) @ t=2.4
0.6945628924401213
% es.Ez (V/m) @ t=2.4
-1.4448506375522667
% es.tEx (V/m) @ t=2.4
0.9066737206440152
% es.tEy (V/m) @ t=2.4
0
% es.tEz (V/m) @ t=2.4
-1.4448506375522783
% V (V) @ t=2.4
0.046078377698864754
% es.normE (V/m) @ t=2.5
2.023815755574841
% es.EX (V/m) @ t=2.5
0.9469592092917445
% es.EY (V/m) @ t=2.5
0.725387662474045
% es.EZ (V/m) @ t=2.5
-1.5090562557117346
% es.tEX (V/m) @ t=2.5
0.9469592092917551
% es.tEY (V/m) @ t=2.5
0
% es.tEZ (V/m) @ t=2.5
-1.5090562557117266
% es.Ex (V/m) @ t=2.5
0.9469592092917445
% es.Ey (V/m) @ t=2.5
0.725387662474045
% es.Ez (V/m) @ t=2.5
-1.5090562557117346
% es.tEx (V/m) @ t=2.5
0.9469592092917551
% es.tEy (V/m) @ t=2.5
0
% es.tEz (V/m) @ t=2.5
-1.5090562557117266
% V (V) @ t=2.5
0.04812697111999993
% es.normE (V/m) @ t=2.6
2.108978371990526
% es.EX (V/m) @ t=2.6
0.9868163058245685
% es.EY (V/m) @ t=2.6
0.7558725697955779
% es.EZ (V/m) @ t=2.6
-1.5725816787951334
% es.tEX (V/m) @ t=2.6
0.9868163058245685
% es.tEY (V/m) @ t=2.6
0
% es.tEZ (V/m) @ t=2.6
-1.57258167879516
% es.Ex (V/m) @ t=2.6
0.9868163058245685
% es.Ey (V/m) @ t=2.6
0.7558725697955779
% es.Ez (V/m) @ t=2.6
-1.5725816787951334
% es.tEx (V/m) @ t=2.6
0.9868163058245685
% es.tEy (V/m) @ t=2.6
0
% es.tEz (V/m) @ t=2.6
-1.57258167879516
% V (V) @ t=2.6
0.05015418939905298
% es.normE (V/m) @ t=2.7
2.194672422420666
% es.EX (V/m) @ t=2.7
1.0269235933123397
% es.EY (V/m) @ t=2.7
0.786541134657039
% es.EZ (V/m) @ t=2.7
-1.6365074987425654
% es.tEX (V/m) @ t=2.7
1.0269235933123397
% es.tEY (V/m) @ t=2.7
0
% es.tEZ (V/m) @ t=2.7
-1.6365074987425885
% es.Ex (V/m) @ t=2.7
1.0269235933123397
% es.Ey (V/m) @ t=2.7
0.786541134657039
% es.Ez (V/m) @ t=2.7
-1.6365074987425654
% es.tEx (V/m) @ t=2.7
1.0269235933123397
% es.tEy (V/m) @ t=2.7
0
% es.tEz (V/m) @ t=2.7
-1.6365074987425885
% V (V) @ t=2.7
0.05219439415444808
% es.normE (V/m) @ t=2.8
2.280897907336775
% es.EX (V/m) @ t=2.8
1.0672810717551968
% es.EY (V/m) @ t=2.8
0.8173933570585383
% es.EZ (V/m) @ t=2.8
-1.7008337155540953
% es.tEX (V/m) @ t=2.8
1.06728107175514
% es.tEY (V/m) @ t=2.8
0
% es.tEZ (V/m) @ t=2.8
-1.7008337155540971
% es.Ex (V/m) @ t=2.8
1.0672810717551968
% es.Ey (V/m) @ t=2.8
0.8173933570585383
% es.Ez (V/m) @ t=2.8
-1.7008337155540953
% es.tEx (V/m) @ t=2.8
1.06728107175514
% es.tEy (V/m) @ t=2.8
0
% es.tEz (V/m) @ t=2.8
-1.7008337155540971
% V (V) @ t=2.8
0.054247585386185224
% es.normE (V/m) @ t=2.9
2.3676548272289653
% es.EX (V/m) @ t=2.9
1.1078887411529976
% es.EY (V/m) @ t=2.9
0.8484292369999586
% es.EZ (V/m) @ t=2.9
-1.7655603292297126
% es.tEX (V/m) @ t=2.9
1.1078887411529834
% es.tEY (V/m) @ t=2.9
0
% es.tEZ (V/m) @ t=2.9
-1.7655603292297144
% es.Ex (V/m) @ t=2.9
1.1078887411529976
% es.Ey (V/m) @ t=2.9
0.8484292369999586
% es.Ez (V/m) @ t=2.9
-1.7655603292297126
% es.tEx (V/m) @ t=2.9
1.1078887411529834
% es.tEy (V/m) @ t=2.9
0
% es.tEz (V/m) @ t=2.9
-1.7655603292297144
% V (V) @ t=2.9
0.05631376309426441
% es.normE (V/m) @ t=3
2.4539064387691427
% es.EX (V/m) @ t=3
1.1482549093322305
% es.EY (V/m) @ t=3
0.8793067108636272
% es.EZ (V/m) @ t=3
-1.8298963786802176
% es.tEX (V/m) @ t=3
1.1482549093321879
% es.tEY (V/m) @ t=3
0
% es.tEZ (V/m) @ t=3
-1.8298963786802318
% es.Ex (V/m) @ t=3
1.1482549093322305
% es.Ey (V/m) @ t=3
0.8793067108636272
% es.Ez (V/m) @ t=3
-1.8298963786802176
% es.tEx (V/m) @ t=3
1.1482549093321879
% es.tEy (V/m) @ t=3
0
% es.tEz (V/m) @ t=3
-1.8298963786802318
% V (V) @ t=3
0.05836676191383779
% es.normE (V/m) @ t=3.1
2.53614044802719
% es.EX (V/m) @ t=3.1
1.1867138142707034
% es.EY (V/m) @ t=3.1
0.9088669304636028
% es.EZ (V/m) @ t=3.1
-1.8911622342228807
% es.tEX (V/m) @ t=3.1
1.186713814270675
% es.tEY (V/m) @ t=3.1
0
% es.tEZ (V/m) @ t=3.1
-1.8911622342229037
% es.Ex (V/m) @ t=3.1
1.1867138142707034
% es.Ey (V/m) @ t=3.1
0.9088669304636028
% es.Ez (V/m) @ t=3.1
-1.8911622342228807
% es.tEx (V/m) @ t=3.1
1.186713814270675
% es.tEy (V/m) @ t=3.1
0
% es.tEz (V/m) @ t=3.1
-1.8911622342229037
% V (V) @ t=3.1
0.06031793843466693
% es.normE (V/m) @ t=3.2
2.6172786065867815
% es.EX (V/m) @ t=3.2
1.2246511400575102
% es.EY (V/m) @ t=3.2
0.9380738975429317
% es.EZ (V/m) @ t=3.2
-1.9515869779033714
% es.tEX (V/m) @ t=3.2
1.2246511400574889
% es.tEY (V/m) @ t=3.2
0
% es.tEZ (V/m) @ t=3.2
-1.9515869779033892
% es.Ex (V/m) @ t=3.2
1.2246511400575102
% es.Ey (V/m) @ t=3.2
0.9380738975429317
% es.Ez (V/m) @ t=3.2
-1.9515869779033714
% es.tEx (V/m) @ t=3.2
1.2246511400574889
% es.tEy (V/m) @ t=3.2
0
% es.tEz (V/m) @ t=3.2
-1.9515869779033892
% V (V) @ t=3.2
0.06224103173924515
% es.normE (V/m) @ t=3.3
2.697320922467094
% es.EX (V/m) @ t=3.3
1.2620668866925442
% es.EY (V/m) @ t=3.3
0.966927612101653
% es.EZ (V/m) @ t=3.3
-2.011170609721681
% es.tEX (V/m) @ t=3.3
1.2620668866925158
% es.tEY (V/m) @ t=3.3
0
% es.tEZ (V/m) @ t=3.3
-2.011170609721688
% es.Ex (V/m) @ t=3.3
1.2620668866925442
% es.Ey (V/m) @ t=3.3
0.966927612101653
% es.Ez (V/m) @ t=3.3
-2.011170609721681
% es.tEx (V/m) @ t=3.3
1.2620668866925158
% es.tEy (V/m) @ t=3.3
0
% es.tEz (V/m) @ t=3.3
-2.011170609721688
% V (V) @ t=3.3
0.06413604182757247
% es.normE (V/m) @ t=3.4
2.7762674053570087
% es.EX (V/m) @ t=3.4
1.298961054175905
% es.EY (V/m) @ t=3.4
0.9954280741397312
% es.EZ (V/m) @ t=3.4
-2.069913129677799
% es.tEX (V/m) @ t=3.4
1.2989610541758552
% es.tEY (V/m) @ t=3.4
0
% es.tEZ (V/m) @ t=3.4
-2.069913129677829
% es.Ex (V/m) @ t=3.4
1.298961054175905
% es.Ey (V/m) @ t=3.4
0.9954280741397312
% es.Ez (V/m) @ t=3.4
-2.069913129677799
% es.tEx (V/m) @ t=3.4
1.2989610541758552
% es.tEy (V/m) @ t=3.4
0
% es.tEz (V/m) @ t=3.4
-2.069913129677829
% V (V) @ t=3.4
0.0660029686996489
% es.normE (V/m) @ t=3.5
2.8532239080791975
% es.EX (V/m) @ t=3.5
1.3349314684524387
% es.EY (V/m) @ t=3.5
1.0231822908585357
% es.EZ (V/m) @ t=3.5
-2.127191815260824
% es.tEX (V/m) @ t=3.5
1.3349314684524174
% es.tEY (V/m) @ t=3.5
0
% es.tEZ (V/m) @ t=3.5
-2.1271918152608578
% es.Ex (V/m) @ t=3.5
1.3349314684524387
% es.Ey (V/m) @ t=3.5
1.0231822908585357
% es.Ez (V/m) @ t=3.5
-2.127191815260824
% es.tEx (V/m) @ t=3.5
1.3349314684524174
% es.tEy (V/m) @ t=3.5
0
% es.tEz (V/m) @ t=3.5
-2.1271918152608578
% V (V) @ t=3.5
0.06782426024149478
% es.normE (V/m) @ t=3.6
2.9267989944654063
% es.EX (V/m) @ t=3.6
1.3693522952677384
% es.EY (V/m) @ t=3.6
1.0495787152125544
% es.EZ (V/m) @ t=3.6
-2.1820376306180034
% es.tEX (V/m) @ t=3.6
1.3693522952676958
% es.tEY (V/m) @ t=3.6
0
% es.tEZ (V/m) @ t=3.6
-2.1820376306180123
% es.Ex (V/m) @ t=3.6
1.3693522952677384
% es.Ey (V/m) @ t=3.6
1.0495787152125544
% es.Ez (V/m) @ t=3.6
-2.1820376306180034
% es.tEx (V/m) @ t=3.6
1.3693522952676958
% es.tEy (V/m) @ t=3.6
0
% es.tEz (V/m) @ t=3.6
-2.1820376306180123
% V (V) @ t=3.6
0.06957260311942248
% es.normE (V/m) @ t=3.7
2.9983117549034084
% es.EX (V/m) @ t=3.7
1.4028168383897324
% es.EY (V/m) @ t=3.7
1.075197106401248
% es.EZ (V/m) @ t=3.7
-2.235369241703772
% es.tEX (V/m) @ t=3.7
1.4028168383897253
% es.tEY (V/m) @ t=3.7
0
% es.tEZ (V/m) @ t=3.7
-2.235369241703836
% es.Ex (V/m) @ t=3.7
1.4028168383897324
% es.Ey (V/m) @ t=3.7
1.075197106401248
% es.Ez (V/m) @ t=3.7
-2.235369241703772
% es.tEx (V/m) @ t=3.7
1.4028168383897253
% es.tEy (V/m) @ t=3.7
0
% es.tEz (V/m) @ t=3.7
-2.235369241703836
% V (V) @ t=3.7
0.07127389093653203
% es.normE (V/m) @ t=3.8
3.06776219091265
% es.EX (V/m) @ t=3.8
1.4353250978183496
% es.EY (V/m) @ t=3.8
1.100037464424652
% es.EZ (V/m) @ t=3.8
-2.28718664851805
% es.tEX (V/m) @ t=3.8
1.435325097818307
% es.tEY (V/m) @ t=3.8
0
% es.tEZ (V/m) @ t=3.8
-2.287186648518073
% es.Ex (V/m) @ t=3.8
1.4353250978183496
% es.Ey (V/m) @ t=3.8
1.100037464424652
% es.Ez (V/m) @ t=3.8
-2.28718664851805
% es.tEx (V/m) @ t=3.8
1.435325097818307
% es.tEy (V/m) @ t=3.8
0
% es.tEz (V/m) @ t=3.8
-2.287186648518073
% V (V) @ t=3.8
0.0729281236928234
% es.normE (V/m) @ t=3.9
3.1351503060405657
% es.EX (V/m) @ t=3.9
1.4668770735536896
% es.EY (V/m) @ t=3.9
1.1240997892826528
% es.EZ (V/m) @ t=3.9
-2.3374898510609334
% es.tEX (V/m) @ t=3.9
1.4668770735536754
% es.tEY (V/m) @ t=3.9
0
% es.tEZ (V/m) @ t=3.9
-2.3374898510609654
% es.Ex (V/m) @ t=3.9
1.4668770735536896
% es.Ey (V/m) @ t=3.9
1.1240997892826528
% es.Ez (V/m) @ t=3.9
-2.3374898510609334
% es.tEx (V/m) @ t=3.9
1.4668770735536754
% es.tEy (V/m) @ t=3.9
0
% es.tEz (V/m) @ t=3.9
-2.3374898510609654
% V (V) @ t=3.9
0.07453530138829659
% es.normE (V/m) @ t=4
3.2002565162435763
% es.EX (V/m) @ t=4
1.4973581364312665
% es.EY (V/m) @ t=4
1.147358542002955
% es.EZ (V/m) @ t=4
-2.3860828508846286
% es.tEX (V/m) @ t=4
1.4973581364312452
% es.tEY (V/m) @ t=4
0
% es.tEZ (V/m) @ t=4
-2.386082850884648
% es.Ex (V/m) @ t=4
1.4973581364312665
% es.Ey (V/m) @ t=4
1.147358542002955
% es.Ez (V/m) @ t=4
-2.3860828508846286
% es.tEx (V/m) @ t=4
1.4973581364312452
% es.tEy (V/m) @ t=4
0
% es.tEz (V/m) @ t=4
-2.386082850884648
% V (V) @ t=4
0.07608748129415366
% es.normE (V/m) @ t=4.1
3.2629385135760094
% es.EX (V/m) @ t=4.1
1.52669400068325
% es.EY (V/m) @ t=4.1
1.169797171979063
% es.EZ (V/m) @ t=4.1
-2.432838630617745
% es.tEX (V/m) @ t=4.1
1.526694000683264
% es.tEY (V/m) @ t=4.1
0
% es.tEZ (V/m) @ t=4.1
-2.4328386306177663
% es.Ex (V/m) @ t=4.1
1.52669400068325
% es.Ey (V/m) @ t=4.1
1.169797171979063
% es.Ez (V/m) @ t=4.1
-2.432838630617745
% es.tEx (V/m) @ t=4.1
1.526694000683264
% es.tEy (V/m) @ t=4.1
0
% es.tEz (V/m) @ t=4.1
-2.4328386306177663
% V (V) @ t=4.1
0.07757951610160317
% es.normE (V/m) @ t=4.2
3.3233880728317144
% es.EX (V/m) @ t=4.2
1.5549847768906773
% es.EY (V/m) @ t=4.2
1.1914379834944242
% es.EZ (V/m) @ t=4.2
-2.4779283641367567
% es.tEX (V/m) @ t=4.2
1.5549847768906346
% es.tEY (V/m) @ t=4.2
0
% es.tEZ (V/m) @ t=4.2
-2.477928364136801
% es.Ex (V/m) @ t=4.2
1.5549847768906773
% es.Ey (V/m) @ t=4.2
1.1914379834944242
% es.Ez (V/m) @ t=4.2
-2.4779283641367567
% es.tEx (V/m) @ t=4.2
1.5549847768906346
% es.tEy (V/m) @ t=4.2
0
% es.tEz (V/m) @ t=4.2
-2.477928364136801
% V (V) @ t=4.2
0.07901834253740653
% es.normE (V/m) @ t=4.3
3.381605193878817
% es.EX (V/m) @ t=4.3
1.5822304650533852
% es.EY (V/m) @ t=4.3
1.2122809765490032
% es.EZ (V/m) @ t=4.3
-2.521352051441653
% es.tEX (V/m) @ t=4.3
1.5822304650533567
% es.tEY (V/m) @ t=4.3
0
% es.tEZ (V/m) @ t=4.3
-2.521352051441653
% es.Ex (V/m) @ t=4.3
1.5822304650533852
% es.Ey (V/m) @ t=4.3
1.2122809765490032
% es.Ez (V/m) @ t=4.3
-2.521352051441653
% es.tEx (V/m) @ t=4.3
1.5822304650533567
% es.tEy (V/m) @ t=4.3
0
% es.tEz (V/m) @ t=4.3
-2.521352051441653
% V (V) @ t=4.3
0.08040396060156373
% es.normE (V/m) @ t=4.4
3.4375898766047044
% es.EX (V/m) @ t=4.4
1.608431065171466
% es.EY (V/m) @ t=4.4
1.232326151142935
% es.EZ (V/m) @ t=4.4
-2.5631096925325263
% es.tEX (V/m) @ t=4.4
1.6084310651714304
% es.tEY (V/m) @ t=4.4
0
% es.tEZ (V/m) @ t=4.4
-2.5631096925325494
% es.Ex (V/m) @ t=4.4
1.608431065171466
% es.Ey (V/m) @ t=4.4
1.232326151142935
% es.Ez (V/m) @ t=4.4
-2.5631096925325263
% es.tEx (V/m) @ t=4.4
1.6084310651714304
% es.tEy (V/m) @ t=4.4
0
% es.tEz (V/m) @ t=4.4
-2.5631096925325494
% V (V) @ t=4.4
0.08173637029407474
% es.normE (V/m) @ t=4.5
3.4915315636510407
% es.EX (V/m) @ t=4.5
1.6336736923985242
% es.EY (V/m) @ t=4.5
1.2516482094092893
% es.EZ (V/m) @ t=4.5
-2.6033384230810057
% es.tEX (V/m) @ t=4.5
1.6336736923984887
% es.tEY (V/m) @ t=4.5
0
% es.tEZ (V/m) @ t=4.5
-2.6033384230809986
% es.Ex (V/m) @ t=4.5
1.6336736923985242
% es.Ey (V/m) @ t=4.5
1.2516482094092893
% es.Ez (V/m) @ t=4.5
-2.6033384230810057
% es.tEx (V/m) @ t=4.5
1.6336736923984887
% es.tEy (V/m) @ t=4.5
0
% es.tEz (V/m) @ t=4.5
-2.6033384230809986
% V (V) @ t=4.5
0.08301972828261994
% es.normE (V/m) @ t=4.6
3.543452962529348
% es.EX (V/m) @ t=4.6
1.657968788860913
% es.EY (V/m) @ t=4.6
1.270256105578241
% es.EZ (V/m) @ t=4.6
-2.64205468096217
% es.tEX (V/m) @ t=4.6
1.6579687888608703
% es.tEY (V/m) @ t=4.6
0
% es.tEZ (V/m) @ t=4.6
-2.6420546809621897
% es.Ex (V/m) @ t=4.6
1.657968788860913
% es.Ey (V/m) @ t=4.6
1.270256105578241
% es.Ez (V/m) @ t=4.6
-2.64205468096217
% es.tEx (V/m) @ t=4.6
1.6579687888608703
% es.tEy (V/m) @ t=4.6
0
% es.tEz (V/m) @ t=4.6
-2.6420546809621897
% V (V) @ t=4.6
0.08425453280943312
% es.normE (V/m) @ t=4.7
3.5932551677181577
% es.EX (V/m) @ t=4.7
1.681270872932771
% es.EY (V/m) @ t=4.7
1.2881108386911109
% es.EZ (V/m) @ t=4.7
-2.6791868695242176
% es.tEX (V/m) @ t=4.7
1.6812708729327284
% es.tEY (V/m) @ t=4.7
0
% es.tEZ (V/m) @ t=4.7
-2.6791868695242442
% es.Ex (V/m) @ t=4.7
1.681270872932771
% es.Ey (V/m) @ t=4.7
1.2881108386911109
% es.Ez (V/m) @ t=4.7
-2.6791868695242176
% es.tEx (V/m) @ t=4.7
1.6812708729327284
% es.tEy (V/m) @ t=4.7
0
% es.tEz (V/m) @ t=4.7
-2.6791868695242442
% V (V) @ t=4.7
0.08543861373537769
% es.normE (V/m) @ t=4.8
3.6409381792310094
% es.EX (V/m) @ t=4.8
1.7035799446139777
% es.EY (V/m) @ t=4.8
1.3052124087480976
% es.EZ (V/m) @ t=4.8
-2.714734988767116
% es.tEX (V/m) @ t=4.8
1.7035799446139777
% es.tEY (V/m) @ t=4.8
0
% es.tEZ (V/m) @ t=4.8
-2.714734988767134
% es.Ex (V/m) @ t=4.8
1.7035799446139777
% es.Ey (V/m) @ t=4.8
1.3052124087480976
% es.Ez (V/m) @ t=4.8
-2.714734988767116
% es.tEx (V/m) @ t=4.8
1.7035799446139777
% es.tEy (V/m) @ t=4.8
0
% es.tEz (V/m) @ t=4.8
-2.714734988767134
% V (V) @ t=4.8
0.08657197106045374
% es.normE (V/m) @ t=4.9
3.6865019971337003
% es.EX (V/m) @ t=4.9
1.7248960039046253
% es.EY (V/m) @ t=4.9
1.3215608157491943
% es.EZ (V/m) @ t=4.9
-2.748699038690912
% es.tEX (V/m) @ t=4.9
1.7248960039046182
% es.tEY (V/m) @ t=4.9
0
% es.tEZ (V/m) @ t=4.9
-2.748699038690944
% es.Ex (V/m) @ t=4.9
1.7248960039046253
% es.Ey (V/m) @ t=4.9
1.3215608157491943
% es.Ez (V/m) @ t=4.9
-2.748699038690912
% es.tEx (V/m) @ t=4.9
1.7248960039046182
% es.tEy (V/m) @ t=4.9
0
% es.tEz (V/m) @ t=4.9
-2.748699038690944
% V (V) @ t=4.9
0.08765460478466125
% es.normE (V/m) @ t=5
3.729905764414851
% es.EX (V/m) @ t=5
1.7452025525436383
% es.EY (V/m) @ t=5
1.3371296630200646
% es.EZ (V/m) @ t=5
-2.781055689911673
% es.tEX (V/m) @ t=5
1.7452025525436028
% es.tEY (V/m) @ t=5
0
% es.tEZ (V/m) @ t=5
-2.7810556899117103
% es.Ex (V/m) @ t=5
1.7452025525436383
% es.Ey (V/m) @ t=5
1.3371296630200646
% es.Ez (V/m) @ t=5
-2.781055689911673
% es.tEx (V/m) @ t=5
1.7452025525436028
% es.tEy (V/m) @ t=5
0
% es.tEz (V/m) @ t=5
-2.7810556899117103
% V (V) @ t=5
0.08868614502021534
% es.normE (V/m) @ t=5.1
3.771147906200337
% es.EX (V/m) @ t=5.1
1.764498954615199
% es.EY (V/m) @ t=5.1
1.3519179331159492
% es.EZ (V/m) @ t=5.1
-2.8118040432119056
% es.tEX (V/m) @ t=5.1
1.7644989546151777
% es.tEY (V/m) @ t=5.1
0
% es.tEZ (V/m) @ t=5.1
-2.8118040432119358
% es.Ex (V/m) @ t=5.1
1.764498954615199
% es.Ey (V/m) @ t=5.1
1.3519179331159492
% es.Ez (V/m) @ t=5.1
-2.8118040432119056
% es.tEx (V/m) @ t=5.1
1.7644989546151777
% es.tEy (V/m) @ t=5.1
0
% es.tEz (V/m) @ t=5.1
-2.8118040432119358
% V (V) @ t=5.1
0.08966657751000483
% es.normE (V/m) @ t=5.2
3.8102335370891
% es.EX (V/m) @ t=5.2
1.782787275424134
% es.EY (V/m) @ t=5.2
1.3659289304570592
% es.EZ (V/m) @ t=5.2
-2.840947019038259
% es.tEX (V/m) @ t=5.2
1.782787275424127
% es.tEY (V/m) @ t=5.2
0
% es.tEZ (V/m) @ t=5.2
-2.840947019038282
% es.Ex (V/m) @ t=5.2
1.782787275424134
% es.Ey (V/m) @ t=5.2
1.3659289304570592
% es.Ez (V/m) @ t=5.2
-2.840947019038259
% es.tEx (V/m) @ t=5.2
1.782787275424127
% es.tEy (V/m) @ t=5.2
0
% es.tEz (V/m) @ t=5.2
-2.840947019038282
% V (V) @ t=5.2
0.09059594855776251
% es.normE (V/m) @ t=5.3
3.847157011752986
% es.EX (V/m) @ t=5.3
1.8000652353619415
% es.EY (V/m) @ t=5.3
1.3791590077445761
% es.EZ (V/m) @ t=5.3
-2.8684813939077465
% es.tEX (V/m) @ t=5.3
1.8000652353619273
% es.tEY (V/m) @ t=5.3
0
% es.tEZ (V/m) @ t=5.3
-2.8684813939077856
% es.Ex (V/m) @ t=5.3
1.8000652353619415
% es.Ey (V/m) @ t=5.3
1.3791590077445761
% es.Ez (V/m) @ t=5.3
-2.8684813939077465
% es.tEx (V/m) @ t=5.3
1.8000652353619273
% es.tEy (V/m) @ t=5.3
0
% es.tEz (V/m) @ t=5.3