% Model:              1x1--2 - Copy1.mph
% Version:            COMSOL 6.1.0.252
% Date:               Mar 28 2023, 11:24
% Dimension:          0
% Nodes:              14017
% Expressions:        14017
% Description:        Electric field norm, Electric field, X component, Electric field, Y component, Electric field, Z component, Tangential electric field, X component, Tangential electric field, Y component, Tangential electric field, Z component, Electric field, x component, Electric field, y component, Electric field, z component, Tangential electric field, x component, Tangential electric field, y component, Tangential electric field, z component, Electric potential
% Length unit:        mm
% x
1
% y
12.2
% z
2
% es.normE (V/m) @ t=0
0.31415746141720563
% es.EX (V/m) @ t=0
0.1559611489615904
% es.EY (V/m) @ t=0
0.18799473368411912
% es.EZ (V/m) @ t=0
-0.12459796409015711
% es.tEX (V/m) @ t=0
0.15596114896159108
% es.tEY (V/m) @ t=0
0
% es.tEZ (V/m) @ t=0
-0.12459796409015846
% es.Ex (V/m) @ t=0
0.1559611489615904
% es.Ey (V/m) @ t=0
0.18799473368411912
% es.Ez (V/m) @ t=0
-0.12459796409015711
% es.tEx (V/m) @ t=0
0.15596114896159108
% es.tEy (V/m) @ t=0
0
% es.tEz (V/m) @ t=0
-0.12459796409015846
% V (V) @ t=0
0.012432670165276659
% es.normE (V/m) @ t=0.1
0.32451798520557573
% es.EX (V/m) @ t=0.1
0.1611037781628617
% es.EY (V/m) @ t=0.1
0.19419560322813134
% es.EZ (V/m) @ t=0.1
-0.12870625304617977
% es.tEX (V/m) @ t=0.1
0.16110377816286814
% es.tEY (V/m) @ t=0.1
0
% es.tEZ (V/m) @ t=0.1
-0.12870625304618075
% es.Ex (V/m) @ t=0.1
0.1611037781628617
% es.Ey (V/m) @ t=0.1
0.19419560322813134
% es.Ez (V/m) @ t=0.1
-0.12870625304617977
% es.tEx (V/m) @ t=0.1
0.16110377816286814
% es.tEy (V/m) @ t=0.1
0
% es.tEz (V/m) @ t=0.1
-0.12870625304618075
% V (V) @ t=0.1
0.012842550666186798
% es.normE (V/m) @ t=0.2
0.3460552944713516
% es.EX (V/m) @ t=0.2
0.17179064137335232
% es.EY (V/m) @ t=0.2
0.20709075683211942
% es.EZ (V/m) @ t=0.2
-0.13724264337444936
% es.tEX (V/m) @ t=0.2
0.17179064137334876
% es.tEY (V/m) @ t=0.2
0
% es.tEZ (V/m) @ t=0.2
-0.13724264337445133
% es.Ex (V/m) @ t=0.2
0.17179064137335232
% es.Ey (V/m) @ t=0.2
0.20709075683211942
% es.Ez (V/m) @ t=0.2
-0.13724264337444936
% es.tEx (V/m) @ t=0.2
0.17179064137334876
% es.tEy (V/m) @ t=0.2
0
% es.tEz (V/m) @ t=0.2
-0.13724264337445133
% V (V) @ t=0.2
0.013693960670143352
% es.normE (V/m) @ t=0.3
0.3686748425271874
% es.EX (V/m) @ t=0.3
0.1830179962850209
% es.EY (V/m) @ t=0.3
0.22062913789425753
% es.EZ (V/m) @ t=0.3
-0.14621172745930888
% es.tEX (V/m) @ t=0.3
0.1830179962850167
% es.tEY (V/m) @ t=0.3
0
% es.tEZ (V/m) @ t=0.3
-0.14621172745930477
% es.Ex (V/m) @ t=0.3
0.1830179962850209
% es.Ey (V/m) @ t=0.3
0.22062913789425753
% es.Ez (V/m) @ t=0.3
-0.14621172745930888
% es.tEx (V/m) @ t=0.3
0.1830179962850167
% es.tEy (V/m) @ t=0.3
0
% es.tEz (V/m) @ t=0.3
-0.14621172745930477
% V (V) @ t=0.3
0.014588777129932238
% es.normE (V/m) @ t=0.4
0.3925204244765975
% es.EX (V/m) @ t=0.4
0.1948654989136589
% es.EY (V/m) @ t=0.4
0.23488552111161543
% es.EZ (V/m) @ t=0.4
-0.1556794273255364
% es.tEX (V/m) @ t=0.4
0.19486549891365712
% es.tEY (V/m) @ t=0.4
0
% es.tEZ (V/m) @ t=0.4
-0.1556794273255329
% es.Ex (V/m) @ t=0.4
0.1948654989136589
% es.Ey (V/m) @ t=0.4
0.23488552111161543
% es.Ez (V/m) @ t=0.4
-0.1556794273255364
% es.tEx (V/m) @ t=0.4
0.19486549891365712
% es.tEy (V/m) @ t=0.4
0
% es.tEz (V/m) @ t=0.4
-0.1556794273255329
% V (V) @ t=0.4
0.015534173438781279
% es.normE (V/m) @ t=0.5
0.4181359667532372
% es.EX (V/m) @ t=0.5
0.20757631720687542
% es.EY (V/m) @ t=0.5
0.2502220095372554
% es.EZ (V/m) @ t=0.5
-0.16583259709312026
% es.tEX (V/m) @ t=0.5
0.20757631720687186
% es.tEY (V/m) @ t=0.5
0
% es.tEZ (V/m) @ t=0.5
-0.16583259709311687
% es.Ex (V/m) @ t=0.5
0.20757631720687542
% es.Ey (V/m) @ t=0.5
0.2502220095372554
% es.Ez (V/m) @ t=0.5
-0.16583259709312026
% es.tEx (V/m) @ t=0.5
0.20757631720687186
% es.tEy (V/m) @ t=0.5
0
% es.tEz (V/m) @ t=0.5
-0.16583259709311687
% V (V) @ t=0.5
0.016546862911164344
% es.normE (V/m) @ t=0.6
0.44452875763081495
% es.EX (V/m) @ t=0.6
0.22067466273329028
% es.EY (V/m) @ t=0.6
0.2660213355580947
% es.EZ (V/m) @ t=0.6
-0.17629582692524215
% es.tEX (V/m) @ t=0.6
0.22067466273328762
% es.tEY (V/m) @ t=0.6
0
% es.tEZ (V/m) @ t=0.6
-0.17629582692524334
% es.Ex (V/m) @ t=0.6
0.22067466273329028
% es.Ey (V/m) @ t=0.6
0.2660213355580947
% es.Ez (V/m) @ t=0.6
-0.17629582692524215
% es.tEx (V/m) @ t=0.6
0.22067466273328762
% es.tEy (V/m) @ t=0.6
0
% es.tEz (V/m) @ t=0.6
-0.17629582692524334
% V (V) @ t=0.6
0.017590611227152858
% es.normE (V/m) @ t=0.7
0.4723144677856268
% es.EX (V/m) @ t=0.7
0.23447013697022978
% es.EY (V/m) @ t=0.7
0.28264652848142235
% es.EZ (V/m) @ t=0.7
-0.1873175528147053
% es.tEX (V/m) @ t=0.7
0.23447013697023777
% es.tEY (V/m) @ t=0.7
0
% es.tEZ (V/m) @ t=0.7
-0.1873175528147071
% es.Ex (V/m) @ t=0.7
0.23447013697022978
% es.Ey (V/m) @ t=0.7
0.28264652848142235
% es.Ez (V/m) @ t=0.7
-0.1873175528147053
% es.tEx (V/m) @ t=0.7
0.23447013697023777
% es.tEy (V/m) @ t=0.7
0
% es.tEz (V/m) @ t=0.7
-0.1873175528147071
% V (V) @ t=0.7
0.01869049275669715
% es.normE (V/m) @ t=0.8
0.5012661969437885
% es.EX (V/m) @ t=0.8
0.24884918073473283
% es.EY (V/m) @ t=0.8
0.299963058242235
% es.EZ (V/m) @ t=0.8
-0.198806798224461
% es.tEX (V/m) @ t=0.8
0.24884918073473017
% es.tEY (V/m) @ t=0.8
0
% es.tEZ (V/m) @ t=0.8
-0.19880679822446298
% es.Ex (V/m) @ t=0.8
0.24884918073473283
% es.Ey (V/m) @ t=0.8
0.299963058242235
% es.Ez (V/m) @ t=0.8
-0.198806798224461
% es.tEx (V/m) @ t=0.8
0.24884918073473017
% es.tEy (V/m) @ t=0.8
0
% es.tEz (V/m) @ t=0.8
-0.19880679822446298
% V (V) @ t=0.8
0.019837363647631754
% es.normE (V/m) @ t=0.9
0.5319220018054049
% es.EX (V/m) @ t=0.9
0.2640685496489632
% es.EY (V/m) @ t=0.9
0.3183070213097807
% es.EZ (V/m) @ t=0.9
-0.21096582885456616
% es.tEX (V/m) @ t=0.9
0.264068549648961
% es.tEY (V/m) @ t=0.9
0
% es.tEZ (V/m) @ t=0.9
-0.21096582885456475
% es.Ex (V/m) @ t=0.9
0.2640685496489632
% es.Ey (V/m) @ t=0.9
0.3183070213097807
% es.Ez (V/m) @ t=0.9
-0.21096582885456616
% es.tEx (V/m) @ t=0.9
0.264068549648961
% es.tEy (V/m) @ t=0.9
0
% es.tEz (V/m) @ t=0.9
-0.21096582885456475
% V (V) @ t=0.9
0.02105066076253596
% es.normE (V/m) @ t=1
0.5641388745330733
% es.EX (V/m) @ t=1
0.28006000173754053
% es.EY (V/m) @ t=1
0.33758908804534404
% es.EZ (V/m) @ t=1
-0.22374088537233927
% es.tEX (V/m) @ t=1
0.28006000173753165
% es.tEY (V/m) @ t=1
0
% es.tEZ (V/m) @ t=1
-0.22374088537233983
% es.Ex (V/m) @ t=1
0.28006000173754053
% es.Ey (V/m) @ t=1
0.33758908804534404
% es.Ez (V/m) @ t=1
-0.22374088537233927
% es.tEx (V/m) @ t=1
0.28006000173753165
% es.tEy (V/m) @ t=1
0
% es.tEz (V/m) @ t=1
-0.22374088537233983
% V (V) @ t=1
0.022325218061087528
% es.normE (V/m) @ t=1.1
0.597905870398569
% es.EX (V/m) @ t=1.1
0.2968200612084111
% es.EY (V/m) @ t=1.1
0.35780004055825
% es.EZ (V/m) @ t=1.1
-0.2371297313036429
% es.tEX (V/m) @ t=1.1
0.29682006120841464
% es.tEY (V/m) @ t=1.1
0
% es.tEZ (V/m) @ t=1.1
-0.23712973130364276
% es.Ex (V/m) @ t=1.1
0.2968200612084111
% es.Ey (V/m) @ t=1.1
0.35780004055825
% es.Ez (V/m) @ t=1.1
-0.2371297313036429
% es.tEx (V/m) @ t=1.1
0.29682006120841464
% es.tEy (V/m) @ t=1.1
0
% es.tEz (V/m) @ t=1.1
-0.23712973130364276
% V (V) @ t=1.1
0.023660953178843966
% es.normE (V/m) @ t=1.2
0.6334857435874551
% es.EX (V/m) @ t=1.2
0.3144848948518275
% es.EY (V/m) @ t=1.2
0.37908930991888323
% es.EZ (V/m) @ t=1.2
-0.2512427319693158
% es.tEX (V/m) @ t=1.2
0.3144848948518373
% es.tEY (V/m) @ t=1.2
0
% es.tEZ (V/m) @ t=1.2
-0.25124273196931673
% es.Ex (V/m) @ t=1.2
0.3144848948518275
% es.Ey (V/m) @ t=1.2
0.37908930991888323
% es.Ez (V/m) @ t=1.2
-0.2512427319693158
% es.tEx (V/m) @ t=1.2
0.3144848948518373
% es.tEy (V/m) @ t=1.2
0
% es.tEz (V/m) @ t=1.2
-0.25124273196931673
% V (V) @ t=1.2
0.0250692899081203
% es.normE (V/m) @ t=1.3
0.6707449280773623
% es.EX (V/m) @ t=1.3
0.3329852848962038
% es.EY (V/m) @ t=1.3
0.40138093571367106
% es.EZ (V/m) @ t=1.3
-0.26602378527895354
% es.tEX (V/m) @ t=1.3
0.3329852848962105
% es.tEY (V/m) @ t=1.3
0
% es.tEZ (V/m) @ t=1.3
-0.26602378527895026
% es.Ex (V/m) @ t=1.3
0.3329852848962038
% es.Ey (V/m) @ t=1.3
0.40138093571367106
% es.Ez (V/m) @ t=1.3
-0.26602378527895354
% es.tEx (V/m) @ t=1.3
0.3329852848962105
% es.tEy (V/m) @ t=1.3
0
% es.tEz (V/m) @ t=1.3
-0.26602378527895026
% V (V) @ t=1.3
0.026544421183579102
% es.normE (V/m) @ t=1.4
0.7097195701383792
% es.EX (V/m) @ t=1.4
0.3523372652722747
% es.EY (V/m) @ t=1.4
0.4246991531934179
% es.EZ (V/m) @ t=1.4
-0.2814851723604521
% es.tEX (V/m) @ t=1.4
0.3523372652722756
% es.tEY (V/m) @ t=1.4
0
% es.tEZ (V/m) @ t=1.4
-0.28148517236045173
% es.Ex (V/m) @ t=1.4
0.3523372652722747
% es.Ey (V/m) @ t=1.4
0.4246991531934179
% es.Ez (V/m) @ t=1.4
-0.2814851723604521
% es.tEx (V/m) @ t=1.4
0.3523372652722756
% es.tEy (V/m) @ t=1.4
0
% es.tEz (V/m) @ t=1.4
-0.28148517236045173
% V (V) @ t=1.4
0.02808743534930304
% es.normE (V/m) @ t=1.5
0.7504508828526506
% es.EX (V/m) @ t=1.5
0.37255911750782156
% es.EY (V/m) @ t=1.5
0.4490715948467754
% es.EZ (V/m) @ t=1.5
-0.2976408958800292
% es.tEX (V/m) @ t=1.5
0.37255911750781934
% es.tEY (V/m) @ t=1.5
0
% es.tEZ (V/m) @ t=1.5
-0.29764089588002635
% es.Ex (V/m) @ t=1.5
0.37255911750782156
% es.Ey (V/m) @ t=1.5
0.4490715948467754
% es.Ez (V/m) @ t=1.5
-0.2976408958800292
% es.tEx (V/m) @ t=1.5
0.37255911750781934
% es.tEy (V/m) @ t=1.5
0
% es.tEz (V/m) @ t=1.5
-0.29764089588002635
% V (V) @ t=1.5
0.029699573310766905
% es.normE (V/m) @ t=1.6
0.7929104552217687
% es.EX (V/m) @ t=1.6
0.3936382389094124
% es.EY (V/m) @ t=1.6
0.4744792117305834
% es.EZ (V/m) @ t=1.6
-0.3144813028528386
% es.tEX (V/m) @ t=1.6
0.39363823890941774
% es.tEY (V/m) @ t=1.6
0
% es.tEZ (V/m) @ t=1.6
-0.31448130285284487
% es.Ex (V/m) @ t=1.6
0.3936382389094124
% es.Ey (V/m) @ t=1.6
0.4744792117305834
% es.Ez (V/m) @ t=1.6
-0.3144813028528386
% es.tEx (V/m) @ t=1.6
0.39363823890941774
% es.tEy (V/m) @ t=1.6
0
% es.tEz (V/m) @ t=1.6
-0.31448130285284487
% V (V) @ t=1.6
0.03137997962790566
% es.normE (V/m) @ t=1.7
0.8370982872442652
% es.EX (V/m) @ t=1.7
0.4155746294770166
% es.EY (V/m) @ t=1.7
0.5009220038448543
% es.EZ (V/m) @ t=1.7
-0.3320063932789328
% es.tEX (V/m) @ t=1.7
0.41557462947702106
% es.tEY (V/m) @ t=1.7
0
% es.tEZ (V/m) @ t=1.7
-0.3320063932789358
% es.Ex (V/m) @ t=1.7
0.4155746294770166
% es.Ey (V/m) @ t=1.7
0.5009220038448543
% es.Ez (V/m) @ t=1.7
-0.3320063932789328
% es.tEx (V/m) @ t=1.7
0.41557462947702106
% es.tEy (V/m) @ t=1.7
0
% es.tEz (V/m) @ t=1.7
-0.3320063932789358
% V (V) @ t=1.7
0.033128654300719325
% es.normE (V/m) @ t=1.8
0.8830143789228856
% es.EX (V/m) @ t=1.8
0.4383682892106959
% es.EY (V/m) @ t=1.8
0.528399971189542
% es.EZ (V/m) @ t=1.8
-0.35021616715827797
% es.tEX (V/m) @ t=1.8
0.43836828921068616
% es.tEY (V/m) @ t=1.8
0
% es.tEZ (V/m) @ t=1.8
-0.3502161671582706
% es.Ex (V/m) @ t=1.8
0.4383682892106959
% es.Ey (V/m) @ t=1.8
0.528399971189542
% es.Ez (V/m) @ t=1.8
-0.35021616715827797
% es.tEx (V/m) @ t=1.8
0.43836828921068616
% es.tEy (V/m) @ t=1.8
0
% es.tEz (V/m) @ t=1.8
-0.3502161671582706
% V (V) @ t=1.8
0.03494559732920788
% es.normE (V/m) @ t=1.9
0.9305966631485769
% es.EX (V/m) @ t=1.9
0.4619887332085808
% es.EY (V/m) @ t=1.9
0.556875525650006
% es.EZ (V/m) @ t=1.9
-0.3690863599229548
% es.tEX (V/m) @ t=1.9
0.46198873320857103
% es.tEY (V/m) @ t=1.9
0
% es.tEZ (V/m) @ t=1.9
-0.3690863599229512
% es.Ex (V/m) @ t=1.9
0.4619887332085808
% es.Ey (V/m) @ t=1.9
0.556875525650006
% es.Ez (V/m) @ t=1.9
-0.3690863599229548
% es.tEx (V/m) @ t=1.9
0.46198873320857103
% es.tEy (V/m) @ t=1.9
0
% es.tEz (V/m) @ t=1.9
-0.3690863599229512
% V (V) @ t=1.9
0.0368284110518826
% es.normE (V/m) @ t=2
0.9785559846848692
% es.EX (V/m) @ t=2
0.48580277960386997
% es.EY (V/m) @ t=2
0.5855679491919896
% es.EZ (V/m) @ t=2
-0.3881129881742531
% es.tEX (V/m) @ t=2
0.4858027796038584
% es.tEY (V/m) @ t=2
0
% es.tEZ (V/m) @ t=2
-0.388112988174248
% es.Ex (V/m) @ t=2
0.48580277960386997
% es.Ey (V/m) @ t=2
0.5855679491919896
% es.Ez (V/m) @ t=2
-0.3881129881742531
% es.tEx (V/m) @ t=2
0.4858027796038584
% es.tEy (V/m) @ t=2
0
% es.tEz (V/m) @ t=2
-0.388112988174248
% V (V) @ t=2
0.03872729521726554
% es.normE (V/m) @ t=2.1
1.0278099055462508
% es.EX (V/m) @ t=2.1
0.5102610983888747
% es.EY (V/m) @ t=2.1
0.6150329213271015
% es.EZ (V/m) @ t=2.1
-0.4076547643238211
% es.tEX (V/m) @ t=2.1
0.5102610983888809
% es.tEY (V/m) @ t=2.1
0
% es.tEZ (V/m) @ t=2.1
-0.4076547643238145
% es.Ex (V/m) @ t=2.1
0.5102610983888747
% es.Ey (V/m) @ t=2.1
0.6150329213271015
% es.Ez (V/m) @ t=2.1
-0.4076547643238211
% es.tEx (V/m) @ t=2.1
0.5102610983888809
% es.tEy (V/m) @ t=2.1
0
% es.tEz (V/m) @ t=2.1
-0.4076547643238145
% V (V) @ t=2.1
0.04067769537445976
% es.normE (V/m) @ t=2.2
1.078358425784612
% es.EX (V/m) @ t=2.2
0.5353636895635967
% es.EY (V/m) @ t=2.2
0.6452704420553297
% es.EZ (V/m) @ t=2.2
-0.4277116883715646
% es.tEX (V/m) @ t=2.2
0.5353636895635958
% es.tEY (V/m) @ t=2.2
0
% es.tEZ (V/m) @ t=2.2
-0.4277116883715654
% es.Ex (V/m) @ t=2.2
0.5353636895635967
% es.Ey (V/m) @ t=2.2
0.6452704420553297
% es.Ez (V/m) @ t=2.2
-0.4277116883715646
% es.tEx (V/m) @ t=2.2
0.5353636895635958
% es.tEy (V/m) @ t=2.2
0
% es.tEz (V/m) @ t=2.2
-0.4277116883715654
% V (V) @ t=2.2
0.04267961152346526
% es.normE (V/m) @ t=2.3
1.1302015454565546
% es.EX (V/m) @ t=2.3
0.5611105531280529
% es.EY (V/m) @ t=2.3
0.6762805113766137
% es.EZ (V/m) @ t=2.3
-0.44828376031756534
% es.tEX (V/m) @ t=2.3
0.5611105531280458
% es.tEY (V/m) @ t=2.3
0
% es.tEZ (V/m) @ t=2.3
-0.44828376031755757
% es.Ex (V/m) @ t=2.3
0.5611105531280529
% es.Ey (V/m) @ t=2.3
0.6762805113766137
% es.Ez (V/m) @ t=2.3
-0.44828376031756534
% es.tEx (V/m) @ t=2.3
0.5611105531280458
% es.tEy (V/m) @ t=2.3
0
% es.tEz (V/m) @ t=2.3
-0.44828376031755757
% V (V) @ t=2.3
0.04473304366428205
% es.normE (V/m) @ t=2.4
1.183339264621736
% es.EX (V/m) @ t=2.4
0.5875016890822415
% es.EY (V/m) @ t=2.4
0.7080631292910384
% es.EZ (V/m) @ t=2.4
-0.46937098016176826
% es.tEX (V/m) @ t=2.4
0.5875016890822309
% es.tEY (V/m) @ t=2.4
0
% es.tEZ (V/m) @ t=2.4
-0.46937098016176254
% es.Ex (V/m) @ t=2.4
0.5875016890822415
% es.Ey (V/m) @ t=2.4
0.7080631292910384
% es.Ez (V/m) @ t=2.4
-0.46937098016176826
% es.tEx (V/m) @ t=2.4
0.5875016890822309
% es.tEy (V/m) @ t=2.4
0
% es.tEz (V/m) @ t=2.4
-0.46937098016176254
% V (V) @ t=2.4
0.04683799179691013
% es.normE (V/m) @ t=2.5
1.2358853184534488
% es.EX (V/m) @ t=2.5
0.6136036413682495
% es.EY (V/m) @ t=2.5
0.7394855032145862
% es.EZ (V/m) @ t=2.5
-0.4902284090465301
% es.tEX (V/m) @ t=2.5
0.6136036413682575
% es.tEY (V/m) @ t=2.5
0
% es.tEZ (V/m) @ t=2.5
-0.49022840904654424
% es.Ex (V/m) @ t=2.5
0.6136036413682495
% es.Ey (V/m) @ t=2.5
0.7394855032145862
% es.Ez (V/m) @ t=2.5
-0.4902284090465301
% es.tEx (V/m) @ t=2.5
0.6136036413682575
% es.tEy (V/m) @ t=2.5
0
% es.tEz (V/m) @ t=2.5
-0.49022840904654424
% V (V) @ t=2.5
0.048920336469264025
% es.normE (V/m) @ t=2.6
1.2878618324733644
% es.EX (V/m) @ t=2.6
0.6394273590962403
% es.EY (V/m) @ t=2.6
0.7705609204043857
% es.EZ (V/m) @ t=2.6
-0.5108647848417665
% es.tEX (V/m) @ t=2.6
0.6394273590962456
% es.tEY (V/m) @ t=2.6
0
% es.tEZ (V/m) @ t=2.6
-0.5108647848417649
% es.Ex (V/m) @ t=2.6
0.6394273590962403
% es.Ey (V/m) @ t=2.6
0.7705609204043857
% es.Ez (V/m) @ t=2.6
-0.5108647848417665
% es.tEx (V/m) @ t=2.6
0.6394273590962456
% es.tEy (V/m) @ t=2.6
0
% es.tEz (V/m) @ t=2.6
-0.5108647848417649
% V (V) @ t=2.6
0.05098094707635796
% es.normE (V/m) @ t=2.7
1.340157743623334
% es.EX (V/m) @ t=2.7
0.6654127504357863
% es.EY (V/m) @ t=2.7
0.801823229998889
% es.EZ (V/m) @ t=2.7
-0.5316311735527481
% es.tEX (V/m) @ t=2.7
0.6654127504357916
% es.tEY (V/m) @ t=2.7
0
% es.tEZ (V/m) @ t=2.7
-0.5316311735527469
% es.Ex (V/m) @ t=2.7
0.6654127504357863
% es.Ey (V/m) @ t=2.7
0.801823229998889
% es.Ez (V/m) @ t=2.7
-0.5316311735527481
% es.tEx (V/m) @ t=2.7
0.6654127504357916
% es.tEy (V/m) @ t=2.7
0
% es.tEz (V/m) @ t=2.7
-0.5316311735527469
% V (V) @ t=2.7
0.053054753760027176
% es.normE (V/m) @ t=2.8
1.3927730521370716
% es.EX (V/m) @ t=2.8
0.6915598153869364
% es.EY (V/m) @ t=2.8
0.8332724319979219
% es.EZ (V/m) @ t=2.8
-0.5525275751794965
% es.tEX (V/m) @ t=2.8
0.6915598153869382
% es.tEY (V/m) @ t=2.8
0
% es.tEZ (V/m) @ t=2.8
-0.5525275751794901
% es.Ex (V/m) @ t=2.8
0.6915598153869364
% es.Ey (V/m) @ t=2.8
0.8332724319979219
% es.Ez (V/m) @ t=2.8
-0.5525275751794965
% es.tEx (V/m) @ t=2.8
0.6915598153869382
% es.tEy (V/m) @ t=2.8
0
% es.tEz (V/m) @ t=2.8
-0.5525275751794901
% V (V) @ t=2.8
0.05514175652027164
% es.normE (V/m) @ t=2.9
1.4457077582578686
% es.EX (V/m) @ t=2.9
0.7178685539495957
% es.EY (V/m) @ t=2.9
0.8649085264016856
% es.EZ (V/m) @ t=2.9
-0.5735539897219439
% es.tEX (V/m) @ t=2.9
0.7178685539496144
% es.tEY (V/m) @ t=2.9
0
% es.tEZ (V/m) @ t=2.9
-0.5735539897219237
% es.Ex (V/m) @ t=2.9
0.7178685539495957
% es.Ey (V/m) @ t=2.9
0.8649085264016856
% es.Ez (V/m) @ t=2.9
-0.5735539897219439
% es.tEx (V/m) @ t=2.9
0.7178685539496144
% es.tEy (V/m) @ t=2.9
0
% es.tEz (V/m) @ t=2.9
-0.5735539897219237
% V (V) @ t=2.9
0.05724195535709137
% es.normE (V/m) @ t=3
1.4983510135837548
% es.EX (V/m) @ t=3
0.7440222998695791
% es.EY (V/m) @ t=3
0.8963842701382347
% es.EZ (V/m) @ t=3
-0.5944537219188639
% es.tEX (V/m) @ t=3
0.7440222998695845
% es.tEY (V/m) @ t=3
0
% es.tEZ (V/m) @ t=3
-0.5944537219188618
% es.Ex (V/m) @ t=3
0.7440222998695791
% es.Ey (V/m) @ t=3
0.8963842701382347
% es.Ez (V/m) @ t=3
-0.5944537219188639
% es.tEx (V/m) @ t=3
0.7440222998695845
% es.tEy (V/m) @ t=3
0
% es.tEz (V/m) @ t=3
-0.5944537219188618
% V (V) @ t=3
0.05932877301911281
% es.normE (V/m) @ t=3.1
1.5486333770866005
% es.EX (V/m) @ t=3.1
0.7689482465245998
% es.EY (V/m) @ t=3.1
0.9265232679902198
% es.EZ (V/m) @ t=3.1
-0.61435713576555
% es.tEX (V/m) @ t=3.1
0.7689482465245874
% es.tEY (V/m) @ t=3.1
0
% es.tEZ (V/m) @ t=3.1
-0.6143571357655534
% es.Ex (V/m) @ t=3.1
0.7689482465245998
% es.Ey (V/m) @ t=3.1
0.9265232679902198
% es.Ez (V/m) @ t=3.1
-0.61435713576555
% es.tEx (V/m) @ t=3.1
0.7689482465245874
% es.tEy (V/m) @ t=3.1
0
% es.tEz (V/m) @ t=3.1
-0.6143571357655534
% V (V) @ t=3.1
0.06131217070083049
% es.normE (V/m) @ t=3.2
1.5982763419459358
% es.EX (V/m) @ t=3.2
0.793538820952449
% es.EY (V/m) @ t=3.2
0.9563041184090313
% es.EZ (V/m) @ t=3.2
-0.633987648388187
% es.tEX (V/m) @ t=3.2
0.793538820952449
% es.tEY (V/m) @ t=3.2
0
% es.tEZ (V/m) @ t=3.2
-0.6339876483881801
% es.Ex (V/m) @ t=3.2
0.793538820952449
% es.Ey (V/m) @ t=3.2
0.9563041184090313
% es.Ez (V/m) @ t=3.2
-0.633987648388187
% es.tEx (V/m) @ t=3.2
0.793538820952449
% es.tEy (V/m) @ t=3.2
0
% es.tEz (V/m) @ t=3.2
-0.6339876483881801
% V (V) @ t=3.2
0.06326704826100335
% es.normE (V/m) @ t=3.3
1.6472799121380843
% es.EX (V/m) @ t=3.3
0.8177940231530982
% es.EY (V/m) @ t=3.3
0.9857268213944979
% es.EZ (V/m) @ t=3.3
-0.6533452597868159
% es.tEX (V/m) @ t=3.3
0.8177940231531124
% es.tEY (V/m) @ t=3.3
0
% es.tEZ (V/m) @ t=3.3
-0.6533452597867987
% es.Ex (V/m) @ t=3.3
0.8177940231530982
% es.Ey (V/m) @ t=3.3
0.9857268213944979
% es.Ez (V/m) @ t=3.3
-0.6533452597868159
% es.tEx (V/m) @ t=3.3
0.8177940231531124
% es.tEy (V/m) @ t=3.3
0
% es.tEz (V/m) @ t=3.3
-0.6533452597867987
% V (V) @ t=3.3
0.0651934056996314
% es.normE (V/m) @ t=3.4
1.695644092465559
% es.EX (V/m) @ t=3.4
0.8417138531265973
% es.EY (V/m) @ t=3.4
1.0147913769468495
% es.EZ (V/m) @ t=3.4
-0.6724299699614082
% es.tEX (V/m) @ t=3.4
0.8417138531266062
% es.tEY (V/m) @ t=3.4
0
% es.tEZ (V/m) @ t=3.4
-0.672429969961409
% es.Ex (V/m) @ t=3.4
0.8417138531265973
% es.Ey (V/m) @ t=3.4
1.0147913769468495
% es.Ez (V/m) @ t=3.4
-0.6724299699614082
% es.tEx (V/m) @ t=3.4
0.8417138531266062
% es.tEy (V/m) @ t=3.4
0
% es.tEz (V/m) @ t=3.4
-0.672429969961409
% V (V) @ t=3.4
0.06709124301671465
% es.normE (V/m) @ t=3.5
1.7427682068295465
% es.EX (V/m) @ t=3.5
0.8650329628062199
% es.EY (V/m) @ t=3.5
1.043093555259353
% es.EZ (V/m) @ t=3.5
-0.6910388577277651
% es.tEX (V/m) @ t=3.5
0.8650329628062252
% es.tEY (V/m) @ t=3.5
0
% es.tEZ (V/m) @ t=3.5
-0.6910388577277714
% es.Ex (V/m) @ t=3.5
0.8650329628062199
% es.Ey (V/m) @ t=3.5
1.043093555259353
% es.Ez (V/m) @ t=3.5
-0.6910388577277651
% es.tEx (V/m) @ t=3.5
0.8650329628062252
% es.tEy (V/m) @ t=3.5
0
% es.tEz (V/m) @ t=3.5
-0.6910388577277714
% V (V) @ t=3.5
0.06894267102414056
% es.normE (V/m) @ t=3.6
1.7877175121278248
% es.EX (V/m) @ t=3.6
0.8873384366711417
% es.EY (V/m) @ t=3.6
1.0700043230655405
% es.EZ (V/m) @ t=3.6
-0.7088561517764393
% es.tEX (V/m) @ t=3.6
0.8873384366711434
% es.tEY (V/m) @ t=3.6
0
% es.tEZ (V/m) @ t=3.6
-0.7088561517764265
% es.Ex (V/m) @ t=3.6
0.8873384366711417
% es.Ey (V/m) @ t=3.6
1.0700043230655405
% es.Ez (V/m) @ t=3.6
-0.7088561517764393
% es.tEx (V/m) @ t=3.6
0.8873384366711434
% es.tEy (V/m) @ t=3.6
0
% es.tEz (V/m) @ t=3.6
-0.7088561517764265
% V (V) @ t=3.6
0.07071985185777004
% es.normE (V/m) @ t=3.7
1.8313781542818774
% es.EX (V/m) @ t=3.7
0.9090217271428482
% es.EY (V/m) @ t=3.7
1.0961200168626553
% es.EZ (V/m) @ t=3.7
-0.7261812098148184
% es.tEX (V/m) @ t=3.7
0.9090217271428855
% es.tEY (V/m) @ t=3.7
0
% es.tEZ (V/m) @ t=3.7
-0.7261812098148075
% es.Ex (V/m) @ t=3.7
0.9090217271428482
% es.Ey (V/m) @ t=3.7
1.0961200168626553
% es.Ez (V/m) @ t=3.7
-0.7261812098148184
% es.tEx (V/m) @ t=3.7
0.9090217271428855
% es.tEy (V/m) @ t=3.7
0
% es.tEz (V/m) @ t=3.7
-0.7261812098148075
% V (V) @ t=3.7
0.0724491763863785
% es.normE (V/m) @ t=3.8
1.8737501340446916
% es.EX (V/m) @ t=3.8
0.9300828342213183
% es.EY (V/m) @ t=3.8
1.1214406366507337
% es.EZ (V/m) @ t=3.8
-0.7430140318431384
% es.tEX (V/m) @ t=3.8
0.9300828342213379
% es.tEY (V/m) @ t=3.8
0
% es.tEZ (V/m) @ t=3.8
-0.743014031843142
% es.Ex (V/m) @ t=3.8
0.9300828342213183
% es.Ey (V/m) @ t=3.8
1.1214406366507337
% es.Ez (V/m) @ t=3.8
-0.7430140318431384
% es.tEx (V/m) @ t=3.8
0.9300828342213379
% es.tEy (V/m) @ t=3.8
0
% es.tEz (V/m) @ t=3.8
-0.743014031843142
% V (V) @ t=3.8
0.07413064460996596
% es.normE (V/m) @ t=3.9
1.9148334531741957
% es.EX (V/m) @ t=3.9
0.9505217579065945
% es.EY (V/m) @ t=3.9
1.1459661824298593
% es.EZ (V/m) @ t=3.9
-0.7593546178612485
% es.tEX (V/m) @ t=3.9
0.9505217579065572
% es.tEY (V/m) @ t=3.9
0
% es.tEZ (V/m) @ t=3.9
-0.7593546178612309
% es.Ex (V/m) @ t=3.9
0.9505217579065945
% es.Ey (V/m) @ t=3.9
1.1459661824298593
% es.Ez (V/m) @ t=3.9
-0.7593546178612485
% es.tEx (V/m) @ t=3.9
0.9505217579065572
% es.tEy (V/m) @ t=3.9
0
% es.tEz (V/m) @ t=3.9
-0.7593546178612309
% V (V) @ t=3.9
0.07576425652853241
% es.normE (V/m) @ t=4
1.9545340876681505
% es.EX (V/m) @ t=4
0.970267704572688
% es.EY (V/m) @ t=4
1.169673257921433
% es.EZ (V/m) @ t=4
-0.7751397542380225
% es.tEX (V/m) @ t=4
0.9702677045726773
% es.tEY (V/m) @ t=4
0
% es.tEZ (V/m) @ t=4
-0.775139754238023
% es.Ex (V/m) @ t=4
0.970267704572688
% es.Ey (V/m) @ t=4
1.169673257921433
% es.Ez (V/m) @ t=4
-0.7751397542380225
% es.tEx (V/m) @ t=4
0.9702677045726773
% es.tEy (V/m) @ t=4
0
% es.tEz (V/m) @ t=4
-0.775139754238023
% V (V) @ t=4
0.07734197347326226
% es.normE (V/m) @ t=4.1
1.9927911020908033
% es.EX (V/m) @ t=4.1
0.9892747962016024
% es.EY (V/m) @ t=4.1
1.1925467010983803
% es.EZ (V/m) @ t=4.1
-0.7903284751936113
% es.tEX (V/m) @ t=4.1
0.9892747962016131
% es.tEY (V/m) @ t=4.1
0
% es.tEZ (V/m) @ t=4.1
-0.7903284751936155
% es.Ex (V/m) @ t=4.1
0.9892747962016024
% es.Ey (V/m) @ t=4.1
1.1925467010983803
% es.Ez (V/m) @ t=4.1
-0.7903284751936113
% es.tEx (V/m) @ t=4.1
0.9892747962016131
% es.tEy (V/m) @ t=4.1
0
% es.tEz (V/m) @ t=4.1
-0.7903284751936155
% V (V) @ t=4.1
0.07885858596115311
% es.normE (V/m) @ t=4.2
2.0296866129380136
% es.EX (V/m) @ t=4.2
1.0076048599127816
% es.EY (V/m) @ t=4.2
1.214606944937227
% es.EZ (V/m) @ t=4.2
-0.8049759879115719
% es.tEX (V/m) @ t=4.2
1.0076048599127887
% es.tEY (V/m) @ t=4.2
0
% es.tEZ (V/m) @ t=4.2
-0.804975987911587
% es.Ex (V/m) @ t=4.2
1.0076048599127816
% es.Ey (V/m) @ t=4.2
1.214606944937227
% es.Ez (V/m) @ t=4.2
-0.8049759879115719
% es.tEx (V/m) @ t=4.2
1.0076048599127887
% es.tEy (V/m) @ t=4.2
0
% es.tEz (V/m) @ t=4.2
-0.804975987911587
% V (V) @ t=4.2
0.08032111450751109
% es.normE (V/m) @ t=4.3
2.065220620144358
% es.EX (V/m) @ t=4.3
1.0252578957060567
% es.EY (V/m) @ t=4.3
1.2358539894378335
% es.EZ (V/m) @ t=4.3
-0.8190822923919292
% es.tEX (V/m) @ t=4.3
1.0252578957060337
% es.tEY (V/m) @ t=4.3
0
% es.tEZ (V/m) @ t=4.3
-0.8190822923919374
% es.Ex (V/m) @ t=4.3
1.0252578957060567
% es.Ey (V/m) @ t=4.3
1.2358539894378335
% es.Ez (V/m) @ t=4.3
-0.8190822923919292
% es.tEx (V/m) @ t=4.3
1.0252578957060337
% es.tEy (V/m) @ t=4.3
0
% es.tEz (V/m) @ t=4.3
-0.8190822923919374
% V (V) @ t=4.3
0.08172955911233626
% es.normE (V/m) @ t=4.4
2.0993931236540555
% es.EX (V/m) @ t=4.4
1.0422339035814616
% es.EY (V/m) @ t=4.4
1.2562878346003385
% es.EZ (V/m) @ t=4.4
-0.8326473886347223
% es.tEX (V/m) @ t=4.4
1.0422339035814332
% es.tEY (V/m) @ t=4.4
0
% es.tEZ (V/m) @ t=4.4
-0.8326473886346952
% es.Ex (V/m) @ t=4.4
1.0422339035814616
% es.Ey (V/m) @ t=4.4
1.2562878346003385
% es.Ez (V/m) @ t=4.4
-0.8326473886347223
% es.tEx (V/m) @ t=4.4
1.0422339035814332
% es.tEy (V/m) @ t=4.4
0
% es.tEz (V/m) @ t=4.4
-0.8326473886346952
% V (V) @ t=4.4
0.08308391977562861
% es.normE (V/m) @ t=4.5
2.1323249290506814
% es.EX (V/m) @ t=4.5
1.0585897741429413
% es.EY (V/m) @ t=4.5
1.2759849676489248
% es.EZ (V/m) @ t=4.5
-0.84571588558196
% es.tEX (V/m) @ t=4.5
1.0585897741429449
% es.tEY (V/m) @ t=4.5
0
% es.tEZ (V/m) @ t=4.5
-0.8457158855819508
% es.Ex (V/m) @ t=4.5
1.0585897741429413
% es.Ey (V/m) @ t=4.5
1.2759849676489248
% es.Ez (V/m) @ t=4.5
-0.84571588558196
% es.tEx (V/m) @ t=4.5
1.0585897741429449
% es.tEy (V/m) @ t=4.5
0
% es.tEz (V/m) @ t=4.5
-0.8457158855819508
% V (V) @ t=4.5
0.0843884261603737
% es.normE (V/m) @ t=4.6
2.16403051670134
% es.EX (V/m) @ t=4.6
1.074332326627463
% es.EY (V/m) @ t=4.6
1.294954556784651
% es.EZ (V/m) @ t=4.6
-0.8582931303195238
% es.tEX (V/m) @ t=4.6
1.0743323266274274
% es.tEY (V/m) @ t=4.6
0
% es.tEZ (V/m) @ t=4.6
-0.8582931303195219
% es.Ex (V/m) @ t=4.6
1.074332326627463
% es.Ey (V/m) @ t=4.6
1.294954556784651
% es.Ez (V/m) @ t=4.6
-0.8582931303195238
% es.tEx (V/m) @ t=4.6
1.0743323266274274
% es.tEy (V/m) @ t=4.6
0
% es.tEz (V/m) @ t=4.6
-0.8582931303195219
% V (V) @ t=4.6
0.08564358525844487
% es.normE (V/m) @ t=4.7
2.1944468156104
% es.EX (V/m) @ t=4.7
1.0894318592316914
% es.EY (V/m) @ t=4.7
1.3131566690778005
% es.EZ (V/m) @ t=4.7
-0.8703558331309864
% es.tEX (V/m) @ t=4.7
1.0894318592316665
% es.tEY (V/m) @ t=4.7
0
% es.tEZ (V/m) @ t=4.7
-0.870355833130999
% es.Ex (V/m) @ t=4.7
1.0894318592316914
% es.Ey (V/m) @ t=4.7
1.3131566690778005
% es.Ez (V/m) @ t=4.7
-0.8703558331309864
% es.tEx (V/m) @ t=4.7
1.0894318592316665
% es.tEy (V/m) @ t=4.7
0
% es.tEz (V/m) @ t=4.7
-0.870355833130999
% V (V) @ t=4.7
0.08684718882085878
% es.normE (V/m) @ t=4.8
2.2235738257846
% es.EX (V/m) @ t=4.8
1.1038883719554917
% es.EY (V/m) @ t=4.8
1.330591304528287
% es.EZ (V/m) @ t=4.8
-0.8819039940165929
% es.tEX (V/m) @ t=4.8
1.1038883719554633
% es.tEY (V/m) @ t=4.8
0
% es.tEZ (V/m) @ t=4.8
-0.8819039940165807
% es.Ex (V/m) @ t=4.8
1.1038883719554917
% es.Ey (V/m) @ t=4.8
1.330591304528287
% es.Ez (V/m) @ t=4.8
-0.8819039940165929
% es.tEx (V/m) @ t=4.8
1.1038883719554633
% es.tEy (V/m) @ t=4.8
0
% es.tEz (V/m) @ t=4.8
-0.8819039940165807
% V (V) @ t=4.8
0.08799923684761542
% es.normE (V/m) @ t=4.9
2.2514115472565024
% es.EX (V/m) @ t=4.9
1.117701864798967
% es.EY (V/m) @ t=4.9
1.3472584631362041
% es.EZ (V/m) @ t=4.9
-0.8929376129760627
% es.tEX (V/m) @ t=4.9
1.1177018647989314
% es.tEY (V/m) @ t=4.9
0
% es.tEZ (V/m) @ t=4.9
-0.8929376129760683
% es.Ex (V/m) @ t=4.9
1.117701864798967
% es.Ey (V/m) @ t=4.9
1.3472584631362041
% es.Ez (V/m) @ t=4.9
-0.8929376129760627
% es.tEx (V/m) @ t=4.9
1.1177018647989314
% es.tEy (V/m) @ t=4.9
0
% es.tEz (V/m) @ t=4.9
-0.8929376129760683
% V (V) @ t=4.9
0.0890997293387148
% es.normE (V/m) @ t=5
2.2779261633619887
% es.EX (V/m) @ t=5
1.1308608727366476
% es.EY (V/m) @ t=5
1.3631306465246258
% es.EZ (V/m) @ t=5
-0.9034490103473196
% es.tEX (V/m) @ t=5
1.1308608727366334
% es.tEY (V/m) @ t=5
0
% es.tEZ (V/m) @ t=5
-0.903449010347329
% es.Ex (V/m) @ t=5
1.1308608727366476
% es.Ey (V/m) @ t=5
1.3631306465246258
% es.Ez (V/m) @ t=5
-0.9034490103473196
% es.tEx (V/m) @ t=5
1.1308608727366334
% es.tEy (V/m) @ t=5
0
% es.tEz (V/m) @ t=5
-0.903449010347329
% V (V) @ t=5
0.0901482825602699
% es.normE (V/m) @ t=5.1
2.3031163706251188
% es.EX (V/m) @ t=5.1
1.1433649538558512
% es.EY (V/m) @ t=5.1
1.3782067947843126
% es.EZ (V/m) @ t=5.1
-0.9134378901219513
% es.tEX (V/m) @ t=5.1
1.1433649538558655
% es.tEY (V/m) @ t=5.1
0
% es.tEZ (V/m) @ t=5.1
-0.9134378901219538
% es.Ex (V/m) @ t=5.1
1.1433649538558512
% es.Ey (V/m) @ t=5.1
1.3782067947843126
% es.Ez (V/m) @ t=5.1
-0.9134378901219513
% es.tEx (V/m) @ t=5.1
1.1433649538558655
% es.tEy (V/m) @ t=5.1
0
% es.tEz (V/m) @ t=5.1
-0.9134378901219538
% V (V) @ t=5.1
0.09114488172147948
% es.normE (V/m) @ t=5.2
2.3269864023179387
% es.EX (V/m) @ t=5.2
1.1552155433849958
% es.EY (V/m) @ t=5.2
1.392490350249874
% es.EZ (V/m) @ t=5.2
-0.9229052136648086
% es.tEX (V/m) @ t=5.2
1.1552155433849691
% es.tEY (V/m) @ t=5.2
0
% es.tEZ (V/m) @ t=5.2
-0.922905213664804
% es.Ex (V/m) @ t=5.2
1.1552155433849958
% es.Ey (V/m) @ t=5.2
1.392490350249874
% es.Ez (V/m) @ t=5.2
-0.9229052136648086
% es.tEx (V/m) @ t=5.2
1.1552155433849691
% es.tEy (V/m) @ t=5.2
0
% es.tEz (V/m) @ t=5.2
-0.922905213664804
% V (V) @ t=5.2
0.09208957485937566
% es.normE (V/m) @ t=5.3
2.349531585899042
% es.EX (V/m) @ t=5.3
1.1664110571711745
% es.EY (V/m) @ t=5.3
1.4059775133976489
% es.EZ (V/m) @ t=5.3
-0.9318499198564645
% es.tEX (V/m) @ t=5.3
1.1664110571711603
% es.tEY (V/m) @ t=5.3
0
% es.tEZ (V/m) @ t=5.3
-0.9318499198564744
% es.Ex (V/m) @ t=5.3
1.1664110571711745
% es.Ey (V/m) @ t=5.3