% Model:              1x1--2 - Copy1.mph
% Version:            COMSOL 6.1.0.252
% Date:               Mar 28 2023, 11:25
% Dimension:          0
% Nodes:              14017
% Expressions:        14017
% Description:        Electric field norm, Electric field, X component, Electric field, Y component, Electric field, Z component, Tangential electric field, X component, Tangential electric field, Y component, Tangential electric field, Z component, Electric field, x component, Electric field, y component, Electric field, z component, Tangential electric field, x component, Tangential electric field, y component, Tangential electric field, z component, Electric potential
% Length unit:        mm
% x
1.33
% y
12.2
% z
1.66
% es.normE (V/m) @ t=0
0.5031465661572434
% es.EX (V/m) @ t=0
0.30889268285859295
% es.EY (V/m) @ t=0
0.21012735199918908
% es.EZ (V/m) @ t=0
-0.28727270830485363
% es.tEX (V/m) @ t=0
0.3088926828585965
% es.tEY (V/m) @ t=0
0
% es.tEZ (V/m) @ t=0
-0.2872727083048616
% es.Ex (V/m) @ t=0
0.30889268285859295
% es.Ey (V/m) @ t=0
0.21012735199918908
% es.Ez (V/m) @ t=0
-0.28727270830485363
% es.tEx (V/m) @ t=0
0.3088926828585965
% es.tEy (V/m) @ t=0
0
% es.tEz (V/m) @ t=0
-0.2872727083048616
% V (V) @ t=0
0.012287205843271502
% es.normE (V/m) @ t=0.1
0.519737998812712
% es.EX (V/m) @ t=0.1
0.319077699572869
% es.EY (V/m) @ t=0.1
0.21705799571599282
% es.EZ (V/m) @ t=0.1
-0.2967446777912395
% es.tEX (V/m) @ t=0.1
0.31907769957286547
% es.tEY (V/m) @ t=0.1
0
% es.tEZ (V/m) @ t=0.1
-0.29674467779124036
% es.Ex (V/m) @ t=0.1
0.319077699572869
% es.Ey (V/m) @ t=0.1
0.21705799571599282
% es.Ez (V/m) @ t=0.1
-0.2967446777912395
% es.tEx (V/m) @ t=0.1
0.31907769957286547
% es.tEy (V/m) @ t=0.1
0
% es.tEz (V/m) @ t=0.1
-0.29674467779124036
% V (V) @ t=0.1
0.012692290052899064
% es.normE (V/m) @ t=0.2
0.5542197251368519
% es.EX (V/m) @ t=0.2
0.34024126983056036
% es.EY (V/m) @ t=0.2
0.23146951941896488
% es.EZ (V/m) @ t=0.2
-0.31642553548730756
% es.tEX (V/m) @ t=0.2
0.34024126983056036
% es.tEY (V/m) @ t=0.2
0
% es.tEZ (V/m) @ t=0.2
-0.3164255354873102
% es.Ex (V/m) @ t=0.2
0.34024126983056036
% es.Ey (V/m) @ t=0.2
0.23146951941896488
% es.Ez (V/m) @ t=0.2
-0.31642553548730756
% es.tEx (V/m) @ t=0.2
0.34024126983056036
% es.tEy (V/m) @ t=0.2
0
% es.tEz (V/m) @ t=0.2
-0.3164255354873102
% V (V) @ t=0.2
0.013533734084786492
% es.normE (V/m) @ t=0.3
0.5904421901034593
% es.EX (V/m) @ t=0.3
0.3624769507017316
% es.EY (V/m) @ t=0.3
0.24660111282456154
% es.EZ (V/m) @ t=0.3
-0.337104399126658
% es.tEX (V/m) @ t=0.3
0.3624769507017316
% es.tEY (V/m) @ t=0.3
0
% es.tEZ (V/m) @ t=0.3
-0.33710439912666246
% es.Ex (V/m) @ t=0.3
0.3624769507017316
% es.Ey (V/m) @ t=0.3
0.24660111282456154
% es.Ez (V/m) @ t=0.3
-0.337104399126658
% es.tEx (V/m) @ t=0.3
0.3624769507017316
% es.tEy (V/m) @ t=0.3
0
% es.tEz (V/m) @ t=0.3
-0.33710439912666246
% V (V) @ t=0.3
0.0144180794248245
% es.normE (V/m) @ t=0.4
0.6286548192668332
% es.EX (V/m) @ t=0.4
0.3859466859963181
% es.EY (V/m) @ t=0.4
0.26253921953811554
% es.EZ (V/m) @ t=0.4
-0.3589342551595083
% es.tEX (V/m) @ t=0.4
0.38594668599631454
% es.tEY (V/m) @ t=0.4
0
% es.tEZ (V/m) @ t=0.4
-0.35893425515950916
% es.Ex (V/m) @ t=0.4
0.3859466859963181
% es.Ey (V/m) @ t=0.4
0.26253921953811554
% es.Ez (V/m) @ t=0.4
-0.3589342551595083
% es.tEx (V/m) @ t=0.4
0.38594668599631454
% es.tEy (V/m) @ t=0.4
0
% es.tEz (V/m) @ t=0.4
-0.35893425515950916
% V (V) @ t=0.4
0.015352422522810534
% es.normE (V/m) @ t=0.5
0.66966665699138
% es.EX (V/m) @ t=0.5
0.4111185377998723
% es.EY (V/m) @ t=0.5
0.2796792751862598
% es.EZ (V/m) @ t=0.5
-0.3823426775863279
% es.tEX (V/m) @ t=0.5
0.41111853779988294
% es.tEY (V/m) @ t=0.5
0
% es.tEZ (V/m) @ t=0.5
-0.38234267758632967
% es.Ex (V/m) @ t=0.5
0.4111185377998723
% es.Ey (V/m) @ t=0.5
0.2796792751862598
% es.Ez (V/m) @ t=0.5
-0.3823426775863279
% es.tEx (V/m) @ t=0.5
0.41111853779988294
% es.tEy (V/m) @ t=0.5
0
% es.tEz (V/m) @ t=0.5
-0.38234267758632967
% V (V) @ t=0.5
0.016353258486021507
% es.normE (V/m) @ t=0.6
0.7119271794537955
% es.EX (V/m) @ t=0.6
0.4370587625655702
% es.EY (V/m) @ t=0.6
0.2973372375143901
% es.EZ (V/m) @ t=0.6
-0.40646617498537907
% es.tEX (V/m) @ t=0.6
0.43705876256558085
% es.tEY (V/m) @ t=0.6
0
% es.tEZ (V/m) @ t=0.6
-0.4064661749853826
% es.Ex (V/m) @ t=0.6
0.4370587625655702
% es.Ey (V/m) @ t=0.6
0.2973372375143901
% es.Ez (V/m) @ t=0.6
-0.40646617498537907
% es.tEx (V/m) @ t=0.6
0.43705876256558085
% es.tEy (V/m) @ t=0.6
0
% es.tEz (V/m) @ t=0.6
-0.4064661749853826
% V (V) @ t=0.6
0.017384791311627564
% es.normE (V/m) @ t=0.7
0.7564315810738094
% es.EX (V/m) @ t=0.7
0.46438254923043587
% es.EY (V/m) @ t=0.7
0.315920246398409
% es.EZ (V/m) @ t=0.7
-0.4318780177092503
% es.tEX (V/m) @ t=0.7
0.46438254923043587
% es.tEY (V/m) @ t=0.7
0
% es.tEZ (V/m) @ t=0.7
-0.43187801770925205
% es.Ex (V/m) @ t=0.7
0.46438254923043587
% es.Ey (V/m) @ t=0.7
0.315920246398409
% es.Ez (V/m) @ t=0.7
-0.4318780177092503
% es.tEx (V/m) @ t=0.7
0.46438254923043587
% es.tEy (V/m) @ t=0.7
0
% es.tEz (V/m) @ t=0.7
-0.43187801770925205
% V (V) @ t=0.7
0.018471805337613185
% es.normE (V/m) @ t=0.8
0.8028143440965076
% es.EX (V/m) @ t=0.8
0.49286452168170314
% es.EY (V/m) @ t=0.8
0.33527761584658
% es.EZ (V/m) @ t=0.8
-0.4583683400039025
% es.tEX (V/m) @ t=0.8
0.4928645216816925
% es.tEY (V/m) @ t=0.8
0
% es.tEZ (V/m) @ t=0.8
-0.45836834000391136
% es.Ex (V/m) @ t=0.8
0.49286452168170314
% es.Ey (V/m) @ t=0.8
0.33527761584658
% es.Ez (V/m) @ t=0.8
-0.4583683400039025
% es.tEx (V/m) @ t=0.8
0.4928645216816925
% es.tEy (V/m) @ t=0.8
0
% es.tEz (V/m) @ t=0.8
-0.45836834000391136
% V (V) @ t=0.8
0.019605262921874922
% es.normE (V/m) @ t=0.9
0.8519132577789702
% es.EX (V/m) @ t=0.9
0.5230079752454593
% es.EY (V/m) @ t=0.9
0.35578142325296724
% es.EZ (V/m) @ t=0.9
-0.48640223681188566
% es.tEX (V/m) @ t=0.9
0.5230079752454522
% es.tEY (V/m) @ t=0.9
0
% es.tEZ (V/m) @ t=0.9
-0.48640223681189454
% es.Ex (V/m) @ t=0.9
0.5230079752454593
% es.Ey (V/m) @ t=0.9
0.35578142325296724
% es.Ez (V/m) @ t=0.9
-0.48640223681188566
% es.tEx (V/m) @ t=0.9
0.5230079752454522
% es.tEy (V/m) @ t=0.9
0
% es.tEz (V/m) @ t=0.9
-0.48640223681189454
% V (V) @ t=0.9
0.02080436476587242
% es.normE (V/m) @ t=1
0.9035056495957825
% es.EX (V/m) @ t=1
0.5546791412160452
% es.EY (V/m) @ t=1
0.3773327757631968
% es.EZ (V/m) @ t=1
-0.5158560925436682
% es.tEX (V/m) @ t=1
0.5546791412160417
% es.tEY (V/m) @ t=1
0
% es.tEZ (V/m) @ t=1
-0.5158560925436682
% es.Ex (V/m) @ t=1
0.5546791412160452
% es.Ey (V/m) @ t=1
0.3773327757631968
% es.Ez (V/m) @ t=1
-0.5158560925436682
% es.tEx (V/m) @ t=1
0.5546791412160417
% es.tEy (V/m) @ t=1
0
% es.tEz (V/m) @ t=1
-0.5158560925436682
% V (V) @ t=1
0.022064007597534335
% es.normE (V/m) @ t=1.1
0.9575785166089981
% es.EX (V/m) @ t=1.1
0.5878721232581228
% es.EY (V/m) @ t=1.1
0.39992204803441433
% es.EZ (V/m) @ t=1.1
-0.5467249866514141
% es.tEX (V/m) @ t=1.1
0.5878721232581157
% es.tEY (V/m) @ t=1.1
0
% es.tEZ (V/m) @ t=1.1
-0.5467249866514159
% es.Ex (V/m) @ t=1.1
0.5878721232581228
% es.Ey (V/m) @ t=1.1
0.39992204803441433
% es.Ez (V/m) @ t=1.1
-0.5467249866514141
% es.tEx (V/m) @ t=1.1
0.5878721232581157
% es.tEy (V/m) @ t=1.1
0
% es.tEz (V/m) @ t=1.1
-0.5467249866514159
% V (V) @ t=1.1
0.0233841116678567
% es.normE (V/m) @ t=1.2
1.0145659126166304
% es.EX (V/m) @ t=1.2
0.622859496890964
% es.EY (V/m) @ t=1.2
0.42371824465858543
% es.EZ (V/m) @ t=1.2
-0.5792640666222422
% es.tEX (V/m) @ t=1.2
0.6228594968909711
% es.tEY (V/m) @ t=1.2
0
% es.tEZ (V/m) @ t=1.2
-0.579264066622251
% es.Ex (V/m) @ t=1.2
0.622859496890964
% es.Ey (V/m) @ t=1.2
0.42371824465858543
% es.Ez (V/m) @ t=1.2
-0.5792640666222422
% es.tEx (V/m) @ t=1.2
0.6228594968909711
% es.tEy (V/m) @ t=1.2
0
% es.tEz (V/m) @ t=1.2
-0.579264066622251
% V (V) @ t=1.2
0.024775971934753484
% es.normE (V/m) @ t=1.3
1.0742471947499062
% es.EX (V/m) @ t=1.3
0.6595027035863907
% es.EY (V/m) @ t=1.3
0.44863545539849214
% es.EZ (V/m) @ t=1.3
-0.6133436331332316
% es.tEX (V/m) @ t=1.3
0.6595027035863765
% es.tEY (V/m) @ t=1.3
0
% es.tEZ (V/m) @ t=1.3
-0.613343633133244
% es.Ex (V/m) @ t=1.3
0.6595027035863907
% es.Ey (V/m) @ t=1.3
0.44863545539849214
% es.Ez (V/m) @ t=1.3
-0.6133436331332316
% es.tEx (V/m) @ t=1.3
0.6595027035863765
% es.tEy (V/m) @ t=1.3
0
% es.tEz (V/m) @ t=1.3
-0.613343633133244
% V (V) @ t=1.3
0.026233846823379738
% es.normE (V/m) @ t=1.4
1.1366758369244772
% es.EX (V/m) @ t=1.4
0.6978325364177245
% es.EY (V/m) @ t=1.4
0.47470010785976413
% es.EZ (V/m) @ t=1.4
-0.6489917714083351
% es.tEX (V/m) @ t=1.4
0.6978325364177316
% es.tEY (V/m) @ t=1.4
0
% es.tEZ (V/m) @ t=1.4
-0.6489917714083404
% es.Ex (V/m) @ t=1.4
0.6978325364177245
% es.Ey (V/m) @ t=1.4
0.47470010785976413
% es.Ez (V/m) @ t=1.4
-0.6489917714083351
% es.tEx (V/m) @ t=1.4
0.6978325364177316
% es.tEy (V/m) @ t=1.4
0
% es.tEz (V/m) @ t=1.4
-0.6489917714083404
% V (V) @ t=1.4
0.027758810334956134
% es.normE (V/m) @ t=1.5
1.201912808728153
% es.EX (V/m) @ t=1.5
0.7378841049554374
% es.EY (V/m) @ t=1.5
0.501942334204776
% es.EZ (V/m) @ t=1.5
-0.6862405035890706
% es.tEX (V/m) @ t=1.5
0.7378841049554374
% es.tEY (V/m) @ t=1.5
0
% es.tEZ (V/m) @ t=1.5
-0.686240503589076
% es.Ex (V/m) @ t=1.5
0.7378841049554374
% es.Ey (V/m) @ t=1.5
0.501942334204776
% es.Ez (V/m) @ t=1.5
-0.6862405035890706
% es.tEx (V/m) @ t=1.5
0.7378841049554374
% es.tEy (V/m) @ t=1.5
0
% es.tEz (V/m) @ t=1.5
-0.686240503589076
% V (V) @ t=1.5
0.029352087021548415
% es.normE (V/m) @ t=1.6
1.2699160796319513
% es.EX (V/m) @ t=1.6
0.779633205798099
% es.EY (V/m) @ t=1.6
0.5303413622962081
% es.EZ (V/m) @ t=1.6
-0.7250677546476627
% es.tEX (V/m) @ t=1.6
0.779633205798099
% es.tEY (V/m) @ t=1.6
0
% es.tEZ (V/m) @ t=1.6
-0.725067754647668
% es.Ex (V/m) @ t=1.6
0.779633205798099
% es.Ey (V/m) @ t=1.6
0.5303413622962081
% es.Ez (V/m) @ t=1.6
-0.7250677546476627
% es.tEx (V/m) @ t=1.6
0.779633205798099
% es.tEy (V/m) @ t=1.6
0
% es.tEz (V/m) @ t=1.6
-0.725067754647668
% V (V) @ t=1.6
0.031012832716602382
% es.normE (V/m) @ t=1.7
1.340685649632883
% es.EX (V/m) @ t=1.7
0.82307983894583
% es.EY (V/m) @ t=1.7
0.5598971921340592
% es.EZ (V/m) @ t=1.7
-0.7654735245840882
% es.tEX (V/m) @ t=1.7
0.8230798389458513
% es.tEY (V/m) @ t=1.7
0
% es.tEZ (V/m) @ t=1.7
-0.7654735245840953
% es.Ex (V/m) @ t=1.7
0.82307983894583
% es.Ey (V/m) @ t=1.7
0.5598971921340592
% es.Ez (V/m) @ t=1.7
-0.7654735245840882
% es.tEx (V/m) @ t=1.7
0.8230798389458513
% es.tEy (V/m) @ t=1.7
0
% es.tEz (V/m) @ t=1.7
-0.7654735245840953
% V (V) @ t=1.7
0.03274104742011803
% es.normE (V/m) @ t=1.8
1.414221518736534
% es.EX (V/m) @ t=1.8
0.8682240043985843
% es.EY (V/m) @ t=1.8
0.5906098237183244
% es.EZ (V/m) @ t=1.8
-0.8074578133983827
% es.tEX (V/m) @ t=1.8
0.8682240043985772
% es.tEY (V/m) @ t=1.8
0
% es.tEZ (V/m) @ t=1.8
-0.8074578133983934
% es.Ex (V/m) @ t=1.8
0.8682240043985843
% es.Ey (V/m) @ t=1.8
0.5906098237183244
% es.Ez (V/m) @ t=1.8
-0.8074578133983827
% es.tEx (V/m) @ t=1.8
0.8682240043985772
% es.tEy (V/m) @ t=1.8
0
% es.tEz (V/m) @ t=1.8
-0.8074578133983934
% V (V) @ t=1.8
0.03453673113209536
% es.normE (V/m) @ t=1.9
1.4904250384161257
% es.EX (V/m) @ t=1.9
0.9150054890180783
% es.EY (V/m) @ t=1.9
0.6224373568609298
% es.EZ (V/m) @ t=1.9
-0.8509647161983089
% es.tEX (V/m) @ t=1.9
0.9150054890180854
% es.tEY (V/m) @ t=1.9
0
% es.tEZ (V/m) @ t=1.9
-0.8509647161983125
% es.Ex (V/m) @ t=1.9
0.9150054890180783
% es.Ey (V/m) @ t=1.9
0.6224373568609298
% es.Ez (V/m) @ t=1.9
-0.8509647161983089
% es.tEx (V/m) @ t=1.9
0.9150054890180854
% es.tEy (V/m) @ t=1.9
0
% es.tEz (V/m) @ t=1.9
-0.8509647161983125
% V (V) @ t=1.9
0.03639751451977347
% es.normE (V/m) @ t=2
1.567247244747529
% es.EX (V/m) @ t=2
0.9621736452709939
% es.EY (V/m) @ t=2
0.6545095102843979
% es.EZ (V/m) @ t=2
-0.8948330691976878
% es.tEX (V/m) @ t=2
0.962173645271001
% es.tEY (V/m) @ t=2
0
% es.tEZ (V/m) @ t=2
-0.8948330691977091
% es.Ex (V/m) @ t=2
0.9621736452709939
% es.Ey (V/m) @ t=2
0.6545095102843979
% es.Ez (V/m) @ t=2
-0.8948330691976878
% es.tEx (V/m) @ t=2
0.962173645271001
% es.tEy (V/m) @ t=2
0
% es.tEz (V/m) @ t=2
-0.8948330691977091
% V (V) @ t=2
0.03827418572906778
% es.normE (V/m) @ t=2.1
1.6461464970169637
% es.EX (V/m) @ t=2.1
1.0106186270669681
% es.EY (V/m) @ t=2.1
0.6874457105344884
% es.EZ (V/m) @ t=2.1
-0.9398893358535965
% es.tEX (V/m) @ t=2.1
1.0106186270669681
% es.tEY (V/m) @ t=2.1
0
% es.tEZ (V/m) @ t=2.1
-0.9398893358536
% es.Ex (V/m) @ t=2.1
1.0106186270669681
% es.Ey (V/m) @ t=2.1
0.6874457105344884
% es.Ez (V/m) @ t=2.1
-0.9398893358535965
% es.tEx (V/m) @ t=2.1
1.0106186270669681
% es.tEy (V/m) @ t=2.1
0
% es.tEz (V/m) @ t=2.1
-0.9398893358536
% V (V) @ t=2.1
0.04020177151463596
% es.normE (V/m) @ t=2.2
1.7271227953303732
% es.EX (V/m) @ t=2.2
1.0603404344060579
% es.EY (V/m) @ t=2.2
0.7212459576112717
% es.EZ (V/m) @ t=2.2
-0.9861335161660172
% es.tEX (V/m) @ t=2.2
1.060340434406072
% es.tEY (V/m) @ t=2.2
0
% es.tEZ (V/m) @ t=2.2
-0.9861335161660136
% es.Ex (V/m) @ t=2.2
1.0603404344060579
% es.Ey (V/m) @ t=2.2
0.7212459576112717
% es.Ez (V/m) @ t=2.2
-0.9861335161660172
% es.tEx (V/m) @ t=2.2
1.060340434406072
% es.tEy (V/m) @ t=2.2
0
% es.tEz (V/m) @ t=2.2
-0.9861335161660136
% V (V) @ t=2.2
0.042180271876478
% es.normE (V/m) @ t=2.3
1.8101761398031428
% es.EX (V/m) @ t=2.3
1.1113390672882062
% es.EY (V/m) @ t=2.3
0.7559102515147504
% es.EZ (V/m) @ t=2.3
-1.0335656101349535
% es.tEX (V/m) @ t=2.3
1.111339067288192
% es.tEY (V/m) @ t=2.3
0
% es.tEZ (V/m) @ t=2.3
-1.0335656101349642
% es.Ex (V/m) @ t=2.3
1.1113390672882062
% es.Ey (V/m) @ t=2.3
0.7559102515147504
% es.Ez (V/m) @ t=2.3
-1.0335656101349535
% es.tEx (V/m) @ t=2.3
1.111339067288192
% es.tEy (V/m) @ t=2.3
0
% es.tEz (V/m) @ t=2.3
-1.0335656101349642
% V (V) @ t=2.3
0.04420968681459391
% es.normE (V/m) @ t=2.4
1.8953065305568817
% es.EX (V/m) @ t=2.4
1.1636145257134203
% es.EY (V/m) @ t=2.4
0.7914385922448925
% es.EZ (V/m) @ t=2.4
-1.0821856177604339
% es.tEX (V/m) @ t=2.4
1.1636145257134345
% es.tEY (V/m) @ t=2.4
0
% es.tEZ (V/m) @ t=2.4
-1.0821856177604303
% es.Ex (V/m) @ t=2.4
1.1636145257134203
% es.Ey (V/m) @ t=2.4
0.7914385922448925
% es.Ez (V/m) @ t=2.4
-1.0821856177604339
% es.tEx (V/m) @ t=2.4
1.1636145257134345
% es.tEy (V/m) @ t=2.4
0
% es.tEz (V/m) @ t=2.4
-1.0821856177604303
% V (V) @ t=2.4
0.046290016328983684
% es.normE (V/m) @ t=2.5
1.9794997970386894
% es.EX (V/m) @ t=2.5
1.2153195047566427
% es.EY (V/m) @ t=2.5
0.8265658433636931
% es.EZ (V/m) @ t=2.5
-1.130276366008136
% es.tEX (V/m) @ t=2.5
1.215319504756657
% es.tEY (V/m) @ t=2.5
0
% es.tEZ (V/m) @ t=2.5
-1.1302763660081396
% es.Ex (V/m) @ t=2.5
1.2153195047566427
% es.Ey (V/m) @ t=2.5
0.8265658433636931
% es.Ez (V/m) @ t=2.5
-1.130276366008136
% es.tEx (V/m) @ t=2.5
1.215319504756657
% es.tEy (V/m) @ t=2.5
0
% es.tEz (V/m) @ t=2.5
-1.1302763660081396
% V (V) @ t=2.5
0.048348010662410165
% es.normE (V/m) @ t=2.6
2.06279129501904
% es.EX (V/m) @ t=2.6
1.2664756726527102
% es.EY (V/m) @ t=2.6
0.8613068444751022
% es.EZ (V/m) @ t=2.6
-1.1778579967117508
% es.tEX (V/m) @ t=2.6
1.2664756726527173
% es.tEY (V/m) @ t=2.6
0
% es.tEZ (V/m) @ t=2.6
-1.1778579967117722
% es.Ex (V/m) @ t=2.6
1.2664756726527102
% es.Ey (V/m) @ t=2.6
0.8613068444751022
% es.Ez (V/m) @ t=2.6
-1.1778579967117508
% es.tEx (V/m) @ t=2.6
1.2664756726527173
% es.tEy (V/m) @ t=2.6
0
% es.tEz (V/m) @ t=2.6
-1.1778579967117722
% V (V) @ t=2.6
0.050384529008673955
% es.normE (V/m) @ t=2.7
2.1466015078532337
% es.EX (V/m) @ t=2.7
1.3179536054950347
% es.EY (V/m) @ t=2.7
0.896257814169175
% es.EZ (V/m) @ t=2.7
-1.225739758940943
% es.tEX (V/m) @ t=2.7
1.3179536054950347
% es.tEY (V/m) @ t=2.7
0
% es.tEZ (V/m) @ t=2.7
-1.2257397589409464
% es.Ex (V/m) @ t=2.7
1.3179536054950347
% es.Ey (V/m) @ t=2.7
0.896257814169175
% es.Ez (V/m) @ t=2.7
-1.225739758940943
% es.tEx (V/m) @ t=2.7
1.3179536054950347
% es.tEy (V/m) @ t=2.7
0
% es.tEz (V/m) @ t=2.7
-1.2257397589409464
% V (V) @ t=2.7
0.052434091650072054
% es.normE (V/m) @ t=2.8
2.230930436017807
% es.EX (V/m) @ t=2.8
1.3697533032836446
% es.EY (V/m) @ t=2.8
0.9314187524459268
% es.EZ (V/m) @ t=2.8
-1.273921652695666
% es.tEX (V/m) @ t=2.8
1.3697533032836304
% es.tEY (V/m) @ t=2.8
0
% es.tEZ (V/m) @ t=2.8
-1.2739216526956696
% es.Ex (V/m) @ t=2.8
1.3697533032836446
% es.Ey (V/m) @ t=2.8
0.9314187524459268
% es.Ez (V/m) @ t=2.8
-1.273921652695666
% es.tEx (V/m) @ t=2.8
1.3697533032836304
% es.tEy (V/m) @ t=2.8
0
% es.tEz (V/m) @ t=2.8
-1.2739216526956696
% V (V) @ t=2.8
0.05449669858660447
% es.normE (V/m) @ t=2.9
2.3157780800083376
% es.EX (V/m) @ t=2.9
1.421874766018533
% es.EY (V/m) @ t=2.9
0.9667896593053484
% es.EZ (V/m) @ t=2.9
-1.3224036779759523
% es.tEX (V/m) @ t=2.9
1.4218747660185187
% es.tEY (V/m) @ t=2.9
0
% es.tEZ (V/m) @ t=2.9
-1.3224036779759487
% es.Ex (V/m) @ t=2.9
1.421874766018533
% es.Ey (V/m) @ t=2.9
0.9667896593053484
% es.Ez (V/m) @ t=2.9
-1.3224036779759523
% es.tEx (V/m) @ t=2.9
1.4218747660185187
% es.tEy (V/m) @ t=2.9
0
% es.tEz (V/m) @ t=2.9
-1.3224036779759487
% V (V) @ t=2.9
0.056572349818271174
% es.normE (V/m) @ t=3
2.4001350984397423
% es.EX (V/m) @ t=3
1.473684044422626
% es.EY (V/m) @ t=3
1.0019777680975368
% es.EZ (V/m) @ t=3
-1.3705923821467927
% es.tEX (V/m) @ t=3
1.473684044422626
% es.tEY (V/m) @ t=3
0
% es.tEZ (V/m) @ t=3
-1.3705923821467962
% es.Ex (V/m) @ t=3
1.473684044422626
% es.Ey (V/m) @ t=3
1.0019777680975368
% es.Ez (V/m) @ t=3
-1.3705923821467927
% es.tEx (V/m) @ t=3
1.473684044422626
% es.tEy (V/m) @ t=3
0
% es.tEz (V/m) @ t=3
-1.3705923821467962
% V (V) @ t=3
0.05863476774385399
% es.normE (V/m) @ t=3.1
2.4805820300955004
% es.EX (V/m) @ t=3.1
1.5230334357533977
% es.EY (V/m) @ t=3.1
1.0356524581534323
% es.EZ (V/m) @ t=3.1
-1.4164772575895022
% es.tEX (V/m) @ t=3.1
1.5230334357533977
% es.tEY (V/m) @ t=3.1
0
% es.tEZ (V/m) @ t=3.1
-1.4164772575895128
% es.Ex (V/m) @ t=3.1
1.5230334357533977
% es.Ey (V/m) @ t=3.1
1.0356524581534323
% es.Ez (V/m) @ t=3.1
-1.4164772575895022
% es.tEx (V/m) @ t=3.1
1.5230334357533977
% es.tEy (V/m) @ t=3.1
0
% es.tEz (V/m) @ t=3.1
-1.4164772575895128
% V (V) @ t=3.1
0.060594928717078105
% es.normE (V/m) @ t=3.2
2.5599634026425373
% es.EX (V/m) @ t=3.2
1.571709532260357
% es.EY (V/m) @ t=3.2
1.068920622213529
% es.EZ (V/m) @ t=3.2
-1.4617307691466799
% es.tEX (V/m) @ t=3.2
1.5717095322603427
% es.tEY (V/m) @ t=3.2
0
% es.tEZ (V/m) @ t=3.2
-1.4617307691466905
% es.Ex (V/m) @ t=3.2
1.571709532260357
% es.Ey (V/m) @ t=3.2
1.068920622213529
% es.Ez (V/m) @ t=3.2
-1.4617307691466799
% es.tEx (V/m) @ t=3.2
1.5717095322603427
% es.tEy (V/m) @ t=3.2
0
% es.tEz (V/m) @ t=3.2
-1.4617307691466905
% V (V) @ t=3.2
0.06252688812433783
% es.normE (V/m) @ t=3.3
2.6382792241893944
% es.EX (V/m) @ t=3.3
1.6197123339435961
% es.EY (V/m) @ t=3.3
1.1017822602777123
% es.EZ (V/m) @ t=3.3
-1.5063529168182797
% es.tEX (V/m) @ t=3.3
1.6197123339435961
% es.tEY (V/m) @ t=3.3
0
% es.tEZ (V/m) @ t=3.3
-1.5063529168182868
% es.Ex (V/m) @ t=3.3
1.6197123339435961
% es.Ey (V/m) @ t=3.3
1.1017822602777123
% es.Ez (V/m) @ t=3.3
-1.5063529168182797
% es.tEx (V/m) @ t=3.3
1.6197123339435961
% es.tEy (V/m) @ t=3.3
0
% es.tEz (V/m) @ t=3.3
-1.5063529168182868
% V (V) @ t=3.3
0.06443064596563315
% es.normE (V/m) @ t=3.4
2.7155295045319137
% es.EX (V/m) @ t=3.4
1.6670418408030017
% es.EY (V/m) @ t=3.4
1.1342373723460675
% es.EZ (V/m) @ t=3.4
-1.5503437006043015
% es.tEX (V/m) @ t=3.4
1.6670418408029875
% es.tEY (V/m) @ t=3.4
0
% es.tEZ (V/m) @ t=3.4
-1.5503437006043157
% es.Ex (V/m) @ t=3.4
1.6670418408030017
% es.Ey (V/m) @ t=3.4
1.1342373723460675
% es.Ez (V/m) @ t=3.4
-1.5503437006043015
% es.tEx (V/m) @ t=3.4
1.6670418408029875
% es.tEy (V/m) @ t=3.4
0
% es.tEz (V/m) @ t=3.4
-1.5503437006043157
% V (V) @ t=3.4
0.06630620224096409
% es.normE (V/m) @ t=3.5
2.7908281390643475
% es.EX (V/m) @ t=3.5
1.713189063036296
% es.EY (V/m) @ t=3.5
1.1658455004410015
% es.EZ (V/m) @ t=3.5
-1.5932392228587844
% es.tEX (V/m) @ t=3.5
1.713189063036296
% es.tEY (V/m) @ t=3.5
0
% es.tEZ (V/m) @ t=3.5
-1.593239222858827
% es.Ex (V/m) @ t=3.5
1.713189063036296
% es.Ey (V/m) @ t=3.5
1.1658455004410015
% es.Ez (V/m) @ t=3.5
-1.5932392228587844
% es.tEx (V/m) @ t=3.5
1.713189063036296
% es.tEy (V/m) @ t=3.5
0
% es.tEz (V/m) @ t=3.5
-1.593239222858827
% V (V) @ t=3.5
0.06813590474353352
% es.normE (V/m) @ t=3.6
2.862796206570579
% es.EX (V/m) @ t=3.6
1.7573619474281372
% es.EY (V/m) @ t=3.6
1.1959212356293136
% es.EZ (V/m) @ t=3.6
-1.6343175995272645
% es.tEX (V/m) @ t=3.6
1.7573619474281372
% es.tEY (V/m) @ t=3.6
0
% es.tEZ (V/m) @ t=3.6
-1.634317599527293
% es.Ex (V/m) @ t=3.6
1.7573619474281372
% es.Ey (V/m) @ t=3.6
1.1959212356293136
% es.Ez (V/m) @ t=3.6
-1.6343175995272645
% es.tEx (V/m) @ t=3.6
1.7573619474281372
% es.tEy (V/m) @ t=3.6
0
% es.tEz (V/m) @ t=3.6
-1.634317599527293
% V (V) @ t=3.6
0.06989228438243117
% es.normE (V/m) @ t=3.7
2.93274093278675
% es.EX (V/m) @ t=3.7
1.8003113767462082
% es.EY (V/m) @ t=3.7
1.2251143597018288
% es.EZ (V/m) @ t=3.7
-1.6742631915670358
% es.tEX (V/m) @ t=3.7
1.8003113767462082
% es.tEY (V/m) @ t=3.7
0
% es.tEZ (V/m) @ t=3.7
-1.6742631915670643
% es.Ex (V/m) @ t=3.7
1.8003113767462082
% es.Ey (V/m) @ t=3.7
1.2251143597018288
% es.Ez (V/m) @ t=3.7
-1.6742631915670358
% es.tEx (V/m) @ t=3.7
1.8003113767462082
% es.tEy (V/m) @ t=3.7
0
% es.tEz (V/m) @ t=3.7
-1.6742631915670643
% V (V) @ t=3.7
0.07160138242181334
% es.normE (V/m) @ t=3.8
3.0006623192481197
% es.EX (V/m) @ t=3.8
1.8420373509905232
% es.EY (V/m) @ t=3.8
1.2534248726585115
% es.EZ (V/m) @ t=3.8
-1.7130759989780984
% es.tEX (V/m) @ t=3.8
1.8420373509905374
% es.tEY (V/m) @ t=3.8
0
% es.tEZ (V/m) @ t=3.8
-1.7130759989780984
% es.Ex (V/m) @ t=3.8
1.8420373509905232
% es.Ey (V/m) @ t=3.8
1.2534248726585115
% es.Ez (V/m) @ t=3.8
-1.7130759989780984
% es.tEx (V/m) @ t=3.8
1.8420373509905374
% es.tEy (V/m) @ t=3.8
0
% es.tEz (V/m) @ t=3.8
-1.7130759989780984
% V (V) @ t=3.8
0.07326319886168
% es.normE (V/m) @ t=3.9
3.0665603695398094
% es.EX (V/m) @ t=3.9
1.8825398701609544
% es.EY (V/m) @ t=3.9
1.2808527744994471
% es.EZ (V/m) @ t=3.9
-1.750756021760509
% es.tEX (V/m) @ t=3.9
1.8825398701609544
% es.tEY (V/m) @ t=3.9
0
% es.tEZ (V/m) @ t=3.9
-1.7507560217605231
% es.Ex (V/m) @ t=3.9
1.8825398701609544
% es.Ey (V/m) @ t=3.9
1.2808527744994471
% es.Ez (V/m) @ t=3.9
-1.750756021760509
% es.tEx (V/m) @ t=3.9
1.8825398701609544
% es.tEy (V/m) @ t=3.9
0
% es.tEz (V/m) @ t=3.9
-1.7507560217605231
% V (V) @ t=3.9
0.07487773370203114
% es.normE (V/m) @ t=4
3.1302287687553956
% es.EX (V/m) @ t=4
1.921666573085517
% es.EY (V/m) @ t=4
1.3073635751421797
% es.EZ (V/m) @ t=4
-1.787154610560691
% es.tEX (V/m) @ t=4
1.9216665730855595
% es.tEY (V/m) @ t=4
0
% es.tEZ (V/m) @ t=4
-1.787154610560691
% es.Ex (V/m) @ t=4
1.921666573085517
% es.Ey (V/m) @ t=4
1.3073635751421797
% es.Ez (V/m) @ t=4
-1.787154610560691
% es.tEx (V/m) @ t=4
1.9216665730855595
% es.tEy (V/m) @ t=4
0
% es.tEz (V/m) @ t=4
-1.787154610560691
% V (V) @ t=4
0.07643702201663473
% es.normE (V/m) @ t=4.1
3.1915338079897393
% es.EX (V/m) @ t=4.1
1.9593187216577803
% es.EY (V/m) @ t=4.1
1.3329349231872296
% es.EZ (V/m) @ t=4.1
-1.822175432727498
% es.tEX (V/m) @ t=4.1
1.9593187216577803
% es.tEY (V/m) @ t=4.1
0
% es.tEZ (V/m) @ t=4.1
-1.8221754327275477
% es.Ex (V/m) @ t=4.1
1.9593187216577803
% es.Ey (V/m) @ t=4.1
1.3329349231872296
% es.Ez (V/m) @ t=4.1
-1.822175432727498
% es.tEx (V/m) @ t=4.1
1.9593187216577803
% es.tEy (V/m) @ t=4.1
0
% es.tEz (V/m) @ t=4.1
-1.8221754327275477
% V (V) @ t=4.1
0.07793590211158676
% es.normE (V/m) @ t=4.2
3.2506556735562286
% es.EX (V/m) @ t=4.2
1.9956293794440967
% es.EY (V/m) @ t=4.2
1.3575969403072676
% es.EZ (V/m) @ t=4.2
-1.8559483101361778
% es.tEX (V/m) @ t=4.2
1.995629379444054
% es.tEY (V/m) @ t=4.2
0
% es.tEZ (V/m) @ t=4.2
-1.8559483101361849
% es.Ex (V/m) @ t=4.2
1.9956293794440967
% es.Ey (V/m) @ t=4.2
1.3575969403072676
% es.Ez (V/m) @ t=4.2
-1.8559483101361778
% es.tEx (V/m) @ t=4.2
1.995629379444054
% es.tEy (V/m) @ t=4.2
0
% es.tEz (V/m) @ t=4.2
-1.8559483101361849
% V (V) @ t=4.2
0.07938133009962277
% es.normE (V/m) @ t=4.3
3.3075943653215774
% es.EX (V/m) @ t=4.3
2.030598546444338
% es.EY (V/m) @ t=4.3
1.3813496265024323
% es.EZ (V/m) @ t=4.3
-1.8884732427867377
% es.tEX (V/m) @ t=4.3
2.0305985464443808
% es.tEY (V/m) @ t=4.3
0
% es.tEZ (V/m) @ t=4.3
-1.888473242786759
% es.Ex (V/m) @ t=4.3
2.030598546444338
% es.Ey (V/m) @ t=4.3
1.3813496265024323
% es.Ez (V/m) @ t=4.3
-1.8884732427867377
% es.tEx (V/m) @ t=4.3
2.0305985464443808
% es.tEy (V/m) @ t=4.3
0
% es.tEz (V/m) @ t=4.3
-1.888473242786759
% V (V) @ t=4.3
0.08077330598074278
% es.normE (V/m) @ t=4.4
3.362349883171934
% es.EX (V/m) @ t=4.4
2.0642262226585757
% es.EY (V/m) @ t=4.4
1.4041929817726881
% es.EZ (V/m) @ t=4.4
-1.9197502306793481
% es.tEX (V/m) @ t=4.4
2.0642262226586183
% es.tEY (V/m) @ t=4.4
0
% es.tEZ (V/m) @ t=4.4
-1.9197502306793552
% es.Ex (V/m) @ t=4.4
2.0642262226585757
% es.Ey (V/m) @ t=4.4
1.4041929817726881
% es.Ez (V/m) @ t=4.4
-1.9197502306793481
% es.tEx (V/m) @ t=4.4
2.0642262226586183
% es.tEy (V/m) @ t=4.4
0
% es.tEz (V/m) @ t=4.4
-1.9197502306793552
% V (V) @ t=4.4
0.0821118297549468
% es.normE (V/m) @ t=4.5
3.4151085981240366
% es.EX (V/m) @ t=4.5
2.096623539624673
% es.EY (V/m) @ t=4.5
1.426211434051467
% es.EZ (V/m) @ t=4.5
-1.949881753418083
% es.tEX (V/m) @ t=4.5
2.0966235396246873
% es.tEY (V/m) @ t=4.5
0
% es.tEZ (V/m) @ t=4.5
-1.9498817534181256
% es.Ex (V/m) @ t=4.5
2.096623539624673
% es.Ey (V/m) @ t=4.5
1.426211434051467
% es.Ez (V/m) @ t=4.5
-1.949881753418083
% es.tEx (V/m) @ t=4.5
2.0966235396246873
% es.tEy (V/m) @ t=4.5
0
% es.tEz (V/m) @ t=4.5
-1.9498817534181256
% V (V) @ t=4.5
0.08340107900229925
% es.normE (V/m) @ t=4.6
3.4658928495048142
% es.EX (V/m) @ t=4.6
2.1278038182118024
% es.EY (V/m) @ t=4.6
1.4474151033593223
% es.EZ (V/m) @ t=4.6
-1.9788800948012408
% es.tEX (V/m) @ t=4.6
2.1278038182118024
% es.tEY (V/m) @ t=4.6
0
% es.tEZ (V/m) @ t=4.6
-1.978880094801255
% es.Ex (V/m) @ t=4.6
2.1278038182118024
% es.Ey (V/m) @ t=4.6
1.4474151033593223
% es.Ez (V/m) @ t=4.6
-1.9788800948012408
% es.tEx (V/m) @ t=4.6
2.1278038182118024
% es.tEy (V/m) @ t=4.6
0
% es.tEz (V/m) @ t=4.6
-1.978880094801255
% V (V) @ t=4.6
0.08464155447171326
% es.normE (V/m) @ t=4.7
3.5146053354450952
% es.EX (V/m) @ t=4.7
2.1577090381692727
% es.EY (V/m) @ t=4.7
1.4677599110310702
% es.EZ (V/m) @ t=4.7
-2.006691751634179
% es.tEX (V/m) @ t=4.7
2.1577090381692727
% es.tEY (V/m) @ t=4.7
0
% es.tEZ (V/m) @ t=4.7
-2.0066917516342215
% es.Ex (V/m) @ t=4.7
2.1577090381692727
% es.Ey (V/m) @ t=4.7
1.4677599110310702
% es.Ez (V/m) @ t=4.7
-2.006691751634179
% es.tEx (V/m) @ t=4.7
2.1577090381692727
% es.tEy (V/m) @ t=4.7
0
% es.tEz (V/m) @ t=4.7
-2.0066917516342215
% V (V) @ t=4.7
0.08583107510598366
% es.normE (V/m) @ t=4.8
3.5612460559588066
% es.EX (V/m) @ t=4.8
2.1863391994972687
% es.EY (V/m) @ t=4.8
1.4872458570667781
% es.EZ (V/m) @ t=4.8
-2.033316723916883
% es.tEX (V/m) @ t=4.8
2.1863391994972687
% es.tEY (V/m) @ t=4.8
0
% es.tEZ (V/m) @ t=4.8
-2.03331672391694
% es.Ex (V/m) @ t=4.8
2.1863391994972687
% es.Ey (V/m) @ t=4.8
1.4872458570667781
% es.Ez (V/m) @ t=4.8
-2.033316723916883
% es.tEx (V/m) @ t=4.8
2.1863391994972687
% es.tEy (V/m) @ t=4.8
0
% es.tEz (V/m) @ t=4.8
-2.03331672391694
% V (V) @ t=4.8
0.08696964090511045
% es.normE (V/m) @ t=4.9
3.6058150111127447
% es.EX (V/m) @ t=4.9
2.213694302195833
% es.EY (V/m) @ t=4.9
1.5058729414664889
% es.EZ (V/m) @ t=4.9
-2.0587550116492963
% es.tEX (V/m) @ t=4.9
2.213694302195833
% es.tEY (V/m) @ t=4.9
0
% es.tEZ (V/m) @ t=4.9
-2.0587550116493105
% es.Ex (V/m) @ t=4.9
2.213694302195833
% es.Ey (V/m) @ t=4.9
1.5058729414664889
% es.Ez (V/m) @ t=4.9
-2.0587550116492963
% es.tEx (V/m) @ t=4.9
2.213694302195833
% es.tEy (V/m) @ t=4.9
0
% es.tEz (V/m) @ t=4.9
-2.0587550116493105
% V (V) @ t=4.9
0.08805725186909362
% es.normE (V/m) @ t=5
3.6482703643712857
% es.EX (V/m) @ t=5
2.2397543339132255
% es.EY (V/m) @ t=5
1.523612273251791
% es.EZ (V/m) @ t=5
-2.0829895508032905
% es.tEX (V/m) @ t=5
2.2397543339132255
% es.tEY (V/m) @ t=5
0
% es.tEZ (V/m) @ t=5
-2.082989550803319
% es.Ex (V/m) @ t=5
2.2397543339132255
% es.Ey (V/m) @ t=5
1.523612273251791
% es.Ez (V/m) @ t=5
-2.0829895508032905
% es.tEx (V/m) @ t=5
2.2397543339132255
% es.tEy (V/m) @ t=5
0
% es.tEz (V/m) @ t=5
-2.082989550803319
% V (V) @ t=5
0.08909353324608502
% es.normE (V/m) @ t=5.1
3.6886105031040466
% es.EX (V/m) @ t=5.1
2.2645185232846643
% es.EY (V/m) @ t=5.1
1.5404627388367942
% es.EZ (V/m) @ t=5.1
-2.106019683655738
% es.tEX (V/m) @ t=5.1
2.264518523284636
% es.tEY (V/m) @ t=5.1
0
% es.tEZ (V/m) @ t=5.1
-2.1060196836557594
% es.Ex (V/m) @ t=5.1
2.2645185232846643
% es.Ey (V/m) @ t=5.1
1.5404627388367942
% es.Ez (V/m) @ t=5.1
-2.106019683655738
% es.tEx (V/m) @ t=5.1
2.264518523284636
% es.tEy (V/m) @ t=5.1
0
% es.tEz (V/m) @ t=5.1
-2.1060196836557594
% V (V) @ t=5.1
0.09007847059149095
% es.normE (V/m) @ t=5.2
3.726840664529795
% es.EX (V/m) @ t=5.2
2.287989375520624
% es.EY (V/m) @ t=5.2
1.5564279548862494
% es.EZ (V/m) @ t=5.2
-2.127847546335971
% es.tEX (V/m) @ t=5.2
2.2879893755205956
% es.tEY (V/m) @ t=5.2
0
% es.tEZ (V/m) @ t=5.2
-2.1278475463359428
% es.Ex (V/m) @ t=5.2
2.287989375520624
% es.Ey (V/m) @ t=5.2
1.5564279548862494
% es.Ez (V/m) @ t=5.2
-2.127847546335971
% es.tEx (V/m) @ t=5.2
2.2879893755205956
% es.tEy (V/m) @ t=5.2
0
% es.tEz (V/m) @ t=5.2
-2.1278475463359428
% V (V) @ t=5.2
0.09101211081794316
% es.normE (V/m) @ t=5.3
3.7629550679767534
% es.EX (V/m) @ t=5.3
2.3101641254612275
% es.EY (V/m) @ t=5.3
1.571503929456929
% es.EZ (V/m) @ t=5.3
-2.1484707810619526
% es.tEX (V/m) @ t=5.3
2.3101641254611707
% es.tEY (V/m) @ t=5.3
0
% es.tEZ (V/m) @ t=5.3
-2.1484707810619312
% es.Ex (V/m) @ t=5.3
2.3101641254612275
% es.Ey (V/m) @ t=5.3
1.571503929456929
% es.Ez (V/m) @ t=5.3
-2.1484707810619526
% es.tEx (V/m) @ t=5.3
2.3101641254611707