% Model:              1x1--2 - Copy1.mph
% Version:            COMSOL 6.1.0.252
% Date:               Mar 28 2023, 11:18
% Dimension:          0
% Nodes:              14017
% Expressions:        14017
% Description:        Electric field norm, Electric field, X component, Electric field, Y component, Electric field, Z component, Tangential electric field, X component, Tangential electric field, Y component, Tangential electric field, Z component, Electric field, x component, Electric field, y component, Electric field, z component, Tangential electric field, x component, Tangential electric field, y component, Tangential electric field, z component, Electric potential
% Length unit:        mm
% x
1
% y
12.2
% z
1.6599999999999997
% es.normE (V/m) @ t=0
0.37309848286915026
% es.EX (V/m) @ t=0
0.21419549148195838
% es.EY (V/m) @ t=0
0.18931841589716925
% es.EZ (V/m) @ t=0
-0.18771525773678555
% es.tEX (V/m) @ t=0
0.21419549148195927
% es.tEY (V/m) @ t=0
0
% es.tEZ (V/m) @ t=0
-0.1877152577367891
% es.Ex (V/m) @ t=0
0.21419549148195838
% es.Ey (V/m) @ t=0
0.18931841589716925
% es.Ez (V/m) @ t=0
-0.18771525773678555
% es.tEx (V/m) @ t=0
0.21419549148195927
% es.tEy (V/m) @ t=0
0
% es.tEz (V/m) @ t=0
-0.1877152577367891
% V (V) @ t=0
0.012347815607759872
% es.normE (V/m) @ t=0.1
0.3854152317236173
% es.EX (V/m) @ t=0.1
0.22126509456300436
% es.EY (V/m) @ t=0.1
0.19557015805817413
% es.EZ (V/m) @ t=0.1
-0.19391093214608301
% es.tEX (V/m) @ t=0.1
0.22126509456300703
% es.tEY (V/m) @ t=0.1
0
% es.tEZ (V/m) @ t=0.1
-0.19391093214608546
% es.Ex (V/m) @ t=0.1
0.22126509456300436
% es.Ey (V/m) @ t=0.1
0.19557015805817413
% es.Ez (V/m) @ t=0.1
-0.19391093214608301
% es.tEx (V/m) @ t=0.1
0.22126509456300703
% es.tEy (V/m) @ t=0.1
0
% es.tEz (V/m) @ t=0.1
-0.19391093214608546
% V (V) @ t=0.1
0.012755249218829727
% es.normE (V/m) @ t=0.2
0.41098881509876434
% es.EX (V/m) @ t=0.2
0.23594471766845793
% es.EY (V/m) @ t=0.2
0.20854969803393386
% es.EZ (V/m) @ t=0.2
-0.2067758416296981
% es.tEX (V/m) @ t=0.2
0.2359447176684597
% es.tEY (V/m) @ t=0.2
0
% es.tEZ (V/m) @ t=0.2
-0.20677584162969964
% es.Ex (V/m) @ t=0.2
0.23594471766845793
% es.Ey (V/m) @ t=0.2
0.20854969803393386
% es.Ez (V/m) @ t=0.2
-0.2067758416296981
% es.tEx (V/m) @ t=0.2
0.2359447176684597
% es.tEy (V/m) @ t=0.2
0
% es.tEz (V/m) @ t=0.2
-0.20677584162969964
% V (V) @ t=0.2
0.013601323336619535
% es.normE (V/m) @ t=0.3
0.4378943470645092
% es.EX (V/m) @ t=0.3
0.25139655853037013
% es.EY (V/m) @ t=0.3
0.22219463305431653
% es.EZ (V/m) @ t=0.3
-0.22031744415120347
% es.tEX (V/m) @ t=0.3
0.2513965585303719
% es.tEY (V/m) @ t=0.3
0
% es.tEZ (V/m) @ t=0.3
-0.22031744415119903
% es.Ex (V/m) @ t=0.3
0.25139655853037013
% es.Ey (V/m) @ t=0.3
0.22219463305431653
% es.Ez (V/m) @ t=0.3
-0.22031744415120347
% es.tEx (V/m) @ t=0.3
0.2513965585303719
% es.tEy (V/m) @ t=0.3
0
% es.tEz (V/m) @ t=0.3
-0.22031744415119903
% V (V) @ t=0.3
0.01449252903495606
% es.normE (V/m) @ t=0.4
0.4661835644654827
% es.EX (V/m) @ t=0.4
0.2676527837593783
% es.EY (V/m) @ t=0.4
0.23652779877166408
% es.EZ (V/m) @ t=0.4
-0.23456390777742642
% es.tEX (V/m) @ t=0.4
0.2676527837593774
% es.tEY (V/m) @ t=0.4
0
% es.tEZ (V/m) @ t=0.4
-0.23456390777742797
% es.Ex (V/m) @ t=0.4
0.2676527837593783
% es.Ey (V/m) @ t=0.4
0.23652779877166408
% es.Ez (V/m) @ t=0.4
-0.23456390777742642
% es.tEx (V/m) @ t=0.4
0.2676527837593774
% es.tEy (V/m) @ t=0.4
0
% es.tEz (V/m) @ t=0.4
-0.23456390777742797
% V (V) @ t=0.4
0.015430921576993318
% es.normE (V/m) @ t=0.5
0.496484829010412
% es.EX (V/m) @ t=0.5
0.28504351317623033
% es.EY (V/m) @ t=0.5
0.2519104859335659
% es.EZ (V/m) @ t=0.5
-0.24980480425564444
% es.tEX (V/m) @ t=0.5
0.28504351317623033
% es.tEY (V/m) @ t=0.5
0
% es.tEZ (V/m) @ t=0.5
-0.24980480425564977
% es.Ex (V/m) @ t=0.5
0.28504351317623033
% es.Ey (V/m) @ t=0.5
0.2519104859335659
% es.Ez (V/m) @ t=0.5
-0.24980480425564444
% es.tEx (V/m) @ t=0.5
0.28504351317623033
% es.tEy (V/m) @ t=0.5
0
% es.tEz (V/m) @ t=0.5
-0.24980480425564977
% V (V) @ t=0.5
0.01643303762860073
% es.normE (V/m) @ t=0.6
0.5278470995816399
% es.EX (V/m) @ t=0.6
0.30304410801644366
% es.EY (V/m) @ t=0.6
0.2678305185335459
% es.EZ (V/m) @ t=0.6
-0.2655801682927055
% es.tEX (V/m) @ t=0.6
0.30304410801644366
% es.tEY (V/m) @ t=0.6
0
% es.tEZ (V/m) @ t=0.6
-0.2655801682927077
% es.Ex (V/m) @ t=0.6
0.30304410801644366
% es.Ey (V/m) @ t=0.6
0.2678305185335459
% es.Ez (V/m) @ t=0.6
-0.2655801682927055
% es.tEx (V/m) @ t=0.6
0.30304410801644366
% es.tEy (V/m) @ t=0.6
0
% es.tEz (V/m) @ t=0.6
-0.2655801682927077
% V (V) @ t=0.6
0.01747037175558641
% es.normE (V/m) @ t=0.7
0.5607716435328484
% es.EX (V/m) @ t=0.7
0.32194269647217055
% es.EY (V/m) @ t=0.7
0.284541763020993
% es.EZ (V/m) @ t=0.7
-0.28214250669681507
% es.tEX (V/m) @ t=0.7
0.321942696472167
% es.tEY (V/m) @ t=0.7
0
% es.tEZ (V/m) @ t=0.7
-0.2821425066968146
% es.Ex (V/m) @ t=0.7
0.32194269647217055
% es.Ey (V/m) @ t=0.7
0.284541763020993
% es.Ez (V/m) @ t=0.7
-0.28214250669681507
% es.tEx (V/m) @ t=0.7
0.321942696472167
% es.tEy (V/m) @ t=0.7
0
% es.tEz (V/m) @ t=0.7
-0.2821425066968146
% V (V) @ t=0.7
0.0185595625801783
% es.normE (V/m) @ t=0.8
0.5951402869088027
% es.EX (V/m) @ t=0.8
0.34167128147892
% es.EY (V/m) @ t=0.8
0.3019844683709456
% es.EZ (V/m) @ t=0.8
-0.29943222962721405
% es.tEX (V/m) @ t=0.8
0.34167128147891646
% es.tEY (V/m) @ t=0.8
0
% es.tEZ (V/m) @ t=0.8
-0.2994322296272216
% es.Ex (V/m) @ t=0.8
0.34167128147892
% es.Ey (V/m) @ t=0.8
0.3019844683709456
% es.Ez (V/m) @ t=0.8
-0.29943222962721405
% es.tEx (V/m) @ t=0.8
0.34167128147891646
% es.tEy (V/m) @ t=0.8
0
% es.tEz (V/m) @ t=0.8
-0.2994322296272216
% V (V) @ t=0.8
0.019696677735210295
% es.normE (V/m) @ t=0.9
0.6315857221680934
% es.EX (V/m) @ t=0.9
0.36259285820081644
% es.EY (V/m) @ t=0.9
0.320479997206621
% es.EZ (V/m) @ t=0.9
-0.31776746195005456
% es.tEX (V/m) @ t=0.9
0.3625928582008129
% es.tEY (V/m) @ t=0.9
0
% es.tEZ (V/m) @ t=0.9
-0.317767461950055
% es.Ex (V/m) @ t=0.9
0.36259285820081644
% es.Ey (V/m) @ t=0.9
0.320479997206621
% es.Ez (V/m) @ t=0.9
-0.31776746195005456
% es.tEx (V/m) @ t=0.9
0.3625928582008129
% es.tEy (V/m) @ t=0.9
0
% es.tEz (V/m) @ t=0.9
-0.317767461950055
% V (V) @ t=0.9
0.020902624578350806
% es.normE (V/m) @ t=1
0.6698045106431326
% es.EX (V/m) @ t=1
0.38453333454631533
% es.EY (V/m) @ t=1
0.33987422435847137
% es.EZ (V/m) @ t=1
-0.33699563132060106
% es.tEX (V/m) @ t=1
0.38453333454631533
% es.tEY (V/m) @ t=1
0
% es.tEZ (V/m) @ t=1
-0.33699563132060817
% es.Ex (V/m) @ t=1
0.38453333454631533
% es.Ey (V/m) @ t=1
0.33987422435847137
% es.Ez (V/m) @ t=1
-0.33699563132060106
% es.tEx (V/m) @ t=1
0.38453333454631533
% es.tEy (V/m) @ t=1
0
% es.tEz (V/m) @ t=1
-0.33699563132060817
% V (V) @ t=1
0.02216737596327791
% es.normE (V/m) @ t=1.1
0.7099591408952095
% es.EX (V/m) @ t=1.1
0.40758577263006757
% es.EY (V/m) @ t=1.1
0.3602499082300108
% es.EZ (V/m) @ t=1.1
-0.3571982971461187
% es.tEX (V/m) @ t=1.1
0.40758577263007467
% es.tEY (V/m) @ t=1.1
0
% es.tEZ (V/m) @ t=1.1
-0.35719829714612317
% es.Ex (V/m) @ t=1.1
0.40758577263006757
% es.Ey (V/m) @ t=1.1
0.3602499082300108
% es.Ez (V/m) @ t=1.1
-0.3571982971461187
% es.tEx (V/m) @ t=1.1
0.40758577263007467
% es.tEy (V/m) @ t=1.1
0
% es.tEz (V/m) @ t=1.1
-0.35719829714612317
% V (V) @ t=1.1
0.02349627855560464
% es.normE (V/m) @ t=1.2
0.7522088842954717
% es.EX (V/m) @ t=1.2
0.43184139197983207
% es.EY (V/m) @ t=1.2
0.3816881686466136
% es.EZ (V/m) @ t=1.2
-0.3784554039953081
% es.tEX (V/m) @ t=1.2
0.4318413919798303
% es.tEY (V/m) @ t=1.2
0
% es.tEZ (V/m) @ t=1.2
-0.3784554039953143
% es.Ex (V/m) @ t=1.2
0.43184139197983207
% es.Ey (V/m) @ t=1.2
0.3816881686466136
% es.Ez (V/m) @ t=1.2
-0.3784554039953081
% es.tEx (V/m) @ t=1.2
0.4318413919798303
% es.tEy (V/m) @ t=1.2
0
% es.tEz (V/m) @ t=1.2
-0.3784554039953143
% V (V) @ t=1.2
0.024894573159435843
% es.normE (V/m) @ t=1.3
0.7964416883032408
% es.EX (V/m) @ t=1.3
0.4572360167192411
% es.EY (V/m) @ t=1.3
0.40413193519788315
% es.EZ (V/m) @ t=1.3
-0.4007107082887127
% es.tEX (V/m) @ t=1.3
0.4572360167192464
% es.tEY (V/m) @ t=1.3
0
% es.tEZ (V/m) @ t=1.3
-0.40071070828870603
% es.Ex (V/m) @ t=1.3
0.4572360167192411
% es.Ey (V/m) @ t=1.3
0.40413193519788315
% es.Ez (V/m) @ t=1.3
-0.4007107082887127
% es.tEx (V/m) @ t=1.3
0.4572360167192464
% es.tEy (V/m) @ t=1.3
0
% es.tEz (V/m) @ t=1.3
-0.40071070828870603
% V (V) @ t=1.3
0.026358572700253675
% es.normE (V/m) @ t=1.4
0.8428015524627273
% es.EX (V/m) @ t=1.4
0.48385132839372424
% es.EY (V/m) @ t=1.4
0.42765564814153567
% es.EZ (V/m) @ t=1.4
-0.42403579952964643
% es.tEX (V/m) @ t=1.4
0.4838513283937189
% es.tEY (V/m) @ t=1.4
0
% es.tEZ (V/m) @ t=1.4
-0.42403579952964776
% es.Ex (V/m) @ t=1.4
0.48385132839372424
% es.Ey (V/m) @ t=1.4
0.42765564814153567
% es.Ez (V/m) @ t=1.4
-0.42403579952964643
% es.tEx (V/m) @ t=1.4
0.4838513283937189
% es.tEy (V/m) @ t=1.4
0
% es.tEz (V/m) @ t=1.4
-0.42403579952964776
% V (V) @ t=1.4
0.027892905327950097
% es.normE (V/m) @ t=1.5
0.8912543206166632
% es.EX (V/m) @ t=1.5
0.5116679524444034
% es.EY (V/m) @ t=1.5
0.45224165052519627
% es.EZ (V/m) @ t=1.5
-0.4484136969540682
% es.tEX (V/m) @ t=1.5
0.5116679524444052
% es.tEY (V/m) @ t=1.5
0
% es.tEZ (V/m) @ t=1.5
-0.44841369695407707
% es.Ex (V/m) @ t=1.5
0.5116679524444034
% es.Ey (V/m) @ t=1.5
0.45224165052519627
% es.Ez (V/m) @ t=1.5
-0.4484136969540682
% es.tEx (V/m) @ t=1.5
0.5116679524444052
% es.tEy (V/m) @ t=1.5
0
% es.tEz (V/m) @ t=1.5
-0.44841369695407707
% V (V) @ t=1.5
0.02949647326257811
% es.normE (V/m) @ t=1.6
0.9417847399740558
% es.EX (V/m) @ t=1.6
0.5406772369580732
% es.EY (V/m) @ t=1.6
0.4778820574509055
% es.EZ (V/m) @ t=1.6
-0.4738368176231047
% es.tEX (V/m) @ t=1.6
0.540677236958075
% es.tEY (V/m) @ t=1.6
0
% es.tEZ (V/m) @ t=1.6
-0.47383681762310914
% es.Ex (V/m) @ t=1.6
0.5406772369580732
% es.Ey (V/m) @ t=1.6
0.4778820574509055
% es.Ez (V/m) @ t=1.6
-0.4738368176231047
% es.tEx (V/m) @ t=1.6
0.540677236958075
% es.tEy (V/m) @ t=1.6
0
% es.tEz (V/m) @ t=1.6
-0.47383681762310914
% V (V) @ t=1.6
0.031168786278946505
% es.normE (V/m) @ t=1.7
0.9943928105350202
% es.EX (V/m) @ t=1.7
0.570879181934739
% es.EY (V/m) @ t=1.7
0.5045768689187078
% es.EZ (V/m) @ t=1.7
-0.5003051615367271
% es.tEX (V/m) @ t=1.7
0.5708791819347425
% es.tEY (V/m) @ t=1.7
0
% es.tEZ (V/m) @ t=1.7
-0.5003051615367298
% es.Ex (V/m) @ t=1.7
0.570879181934739
% es.Ey (V/m) @ t=1.7
0.5045768689187078
% es.Ez (V/m) @ t=1.7
-0.5003051615367271
% es.tEx (V/m) @ t=1.7
0.5708791819347425
% es.tEy (V/m) @ t=1.7
0
% es.tEz (V/m) @ t=1.7
-0.5003051615367298
% V (V) @ t=1.7
0.032909844377055276
% es.normE (V/m) @ t=1.8
1.0490785322997596
% es.EX (V/m) @ t=1.8
0.6022737873743651
% es.EY (V/m) @ t=1.8
0.5323260849285933
% es.EZ (V/m) @ t=1.8
-0.5278187286949292
% es.tEX (V/m) @ t=1.8
0.6022737873743651
% es.tEY (V/m) @ t=1.8
0
% es.tEZ (V/m) @ t=1.8
-0.5278187286949318
% es.Ex (V/m) @ t=1.8
0.6022737873743651
% es.Ey (V/m) @ t=1.8
0.5323260849285933
% es.Ez (V/m) @ t=1.8
-0.5278187286949292
% es.tEx (V/m) @ t=1.8
0.6022737873743651
% es.tEy (V/m) @ t=1.8
0
% es.tEz (V/m) @ t=1.8
-0.5278187286949318
% V (V) @ t=1.8
0.034719647556904425
% es.normE (V/m) @ t=1.9
1.1050488996359862
% es.EX (V/m) @ t=1.9
0.6344034324660281
% es.EY (V/m) @ t=1.9
0.5607305883393838
% es.EZ (V/m) @ t=1.9
-0.5559764854011506
% es.tEX (V/m) @ t=1.9
0.6344034324660193
% es.tEY (V/m) @ t=1.9
0
% es.tEZ (V/m) @ t=1.9
-0.5559764854011533
% es.Ex (V/m) @ t=1.9
0.6344034324660281
% es.Ey (V/m) @ t=1.9
0.5607305883393838
% es.Ez (V/m) @ t=1.9
-0.5559764854011506
% es.tEx (V/m) @ t=1.9
0.6344034324660193
% es.tEy (V/m) @ t=1.9
0
% es.tEz (V/m) @ t=1.9
-0.5559764854011533
% V (V) @ t=1.9
0.036571621839887124
% es.normE (V/m) @ t=2
1.162257165901333
% es.EX (V/m) @ t=2
0.6672411410314503
% es.EY (V/m) @ t=2
0.5897668516914703
% es.EZ (V/m) @ t=2
-0.584754791217228
% es.tEX (V/m) @ t=2
0.6672411410314609
% es.tEY (V/m) @ t=2
0
% es.tEZ (V/m) @ t=2
-0.584754791217236
% es.Ex (V/m) @ t=2
0.6672411410314503
% es.Ey (V/m) @ t=2
0.5897668516914703
% es.Ez (V/m) @ t=2
-0.584754791217228
% es.tEx (V/m) @ t=2
0.6672411410314609
% es.tEy (V/m) @ t=2
0
% es.tEz (V/m) @ t=2
-0.584754791217236
% V (V) @ t=2
0.03846420072297866
% es.normE (V/m) @ t=2.1
1.2211071286281872
% es.EX (V/m) @ t=2.1
0.7010199330165143
% es.EY (V/m) @ t=2.1
0.6196381049351256
% es.EZ (V/m) @ t=2.1
-0.6143578520009942
% es.tEX (V/m) @ t=2.1
0.7010199330165179
% es.tEY (V/m) @ t=2.1
0
% es.tEZ (V/m) @ t=2.1
-0.6143578520010067
% es.Ex (V/m) @ t=2.1
0.7010199330165143
% es.Ey (V/m) @ t=2.1
0.6196381049351256
% es.Ez (V/m) @ t=2.1
-0.6143578520009942
% es.tEx (V/m) @ t=2.1
0.7010199330165179
% es.tEy (V/m) @ t=2.1
0
% es.tEz (V/m) @ t=2.1
-0.6143578520010067
% V (V) @ t=2.1
0.04041091564292564
% es.normE (V/m) @ t=2.2
1.2815987878677901
% es.EX (V/m) @ t=2.2
0.7357398084212434
% es.EY (V/m) @ t=2.2
0.6503443480703117
% es.EZ (V/m) @ t=2.2
-0.6447856677524628
% es.tEX (V/m) @ t=2.2
0.7357398084212434
% es.tEY (V/m) @ t=2.2
0
% es.tEZ (V/m) @ t=2.2
-0.6447856677524655
% es.Ex (V/m) @ t=2.2
0.7357398084212434
% es.Ey (V/m) @ t=2.2
0.6503443480703117
% es.Ez (V/m) @ t=2.2
-0.6447856677524628
% es.tEx (V/m) @ t=2.2
0.7357398084212434
% es.tEy (V/m) @ t=2.2
0
% es.tEz (V/m) @ t=2.2
-0.6447856677524655
% V (V) @ t=2.2
0.04241176659972806
% es.normE (V/m) @ t=2.3
1.343732143674456
% es.EX (V/m) @ t=2.3
0.7714007672456376
% es.EY (V/m) @ t=2.3
0.6818855810970037
% es.EZ (V/m) @ t=2.3
-0.6760382384716301
% es.tEX (V/m) @ t=2.3
0.7714007672456304
% es.tEY (V/m) @ t=2.3
0
% es.tEZ (V/m) @ t=2.3
-0.6760382384716408
% es.Ex (V/m) @ t=2.3
0.7714007672456376
% es.Ey (V/m) @ t=2.3
0.6818855810970037
% es.Ez (V/m) @ t=2.3
-0.6760382384716301
% es.tEx (V/m) @ t=2.3
0.7714007672456304
% es.tEy (V/m) @ t=2.3
0
% es.tEz (V/m) @ t=2.3
-0.6760382384716408
% V (V) @ t=2.3
0.044466753593385915
% es.normE (V/m) @ t=2.4
1.4063965937759284
% es.EX (V/m) @ t=2.4
0.807369610211186
% es.EY (V/m) @ t=2.4
0.7136921742905198
% es.EZ (V/m) @ t=2.4
-0.7075605956260684
% es.tEX (V/m) @ t=2.4
0.8073696102111896
% es.tEY (V/m) @ t=2.4
0
% es.tEZ (V/m) @ t=2.4
-0.7075605956260773
% es.Ex (V/m) @ t=2.4
0.807369610211186
% es.Ey (V/m) @ t=2.4
0.7136921742905198
% es.Ez (V/m) @ t=2.4
-0.7075605956260684
% es.tEx (V/m) @ t=2.4
0.8073696102111896
% es.tEy (V/m) @ t=2.4
0
% es.tEz (V/m) @ t=2.4
-0.7075605956260773
% V (V) @ t=2.4
0.046539731277270194
% es.normE (V/m) @ t=2.5
1.4680659997846366
% es.EX (V/m) @ t=2.5
0.8427762241737575
% es.EY (V/m) @ t=2.5
0.7449813688455151
% es.EZ (V/m) @ t=2.5
-0.7385901271423494
% es.tEX (V/m) @ t=2.5
0.842776224173754
% es.tEY (V/m) @ t=2.5
0
% es.tEZ (V/m) @ t=2.5
-0.738590127142345
% es.Ex (V/m) @ t=2.5
0.8427762241737575
% es.Ey (V/m) @ t=2.5
0.7449813688455151
% es.Ez (V/m) @ t=2.5
-0.7385901271423494
% es.tEx (V/m) @ t=2.5
0.842776224173754
% es.tEy (V/m) @ t=2.5
0
% es.tEz (V/m) @ t=2.5
-0.738590127142345
% V (V) @ t=2.5
0.048581030388841526
% es.normE (V/m) @ t=2.6
1.5303046286725919
% es.EX (V/m) @ t=2.6
0.8785124609555304
% es.EY (V/m) @ t=2.6
0.77655547980752
% es.EZ (V/m) @ t=2.6
-0.7699084979934545
% es.tEX (V/m) @ t=2.6
0.8785124609555197
% es.tEY (V/m) @ t=2.6
0
% es.tEZ (V/m) @ t=2.6
-0.7699084979934554
% es.Ex (V/m) @ t=2.6
0.8785124609555304
% es.Ey (V/m) @ t=2.6
0.77655547980752
% es.Ez (V/m) @ t=2.6
-0.7699084979934545
% es.tEx (V/m) @ t=2.6
0.8785124609555197
% es.tEy (V/m) @ t=2.6
0
% es.tEz (V/m) @ t=2.6
-0.7699084979934554
% V (V) @ t=2.6
0.0506415611144351
% es.normE (V/m) @ t=2.7
1.5931124805412047
% es.EX (V/m) @ t=2.7
0.9145783205564477
% es.EY (V/m) @ t=2.7
0.808414507176547
% es.EZ (V/m) @ t=2.7
-0.80151570817935
% es.tEX (V/m) @ t=2.7
0.9145783205564513
% es.tEY (V/m) @ t=2.7
0
% es.tEZ (V/m) @ t=2.7
-0.801515708179366
% es.Ex (V/m) @ t=2.7
0.9145783205564477
% es.Ey (V/m) @ t=2.7
0.808414507176547
% es.Ez (V/m) @ t=2.7
-0.80151570817935
% es.tEx (V/m) @ t=2.7
0.9145783205564513
% es.tEy (V/m) @ t=2.7
0
% es.tEz (V/m) @ t=2.7
-0.801515708179366
% V (V) @ t=2.7
0.052721323454050915
% es.normE (V/m) @ t=2.8
1.6564895555202739
% es.EX (V/m) @ t=2.8
0.9509738029765664
% es.EY (V/m) @ t=2.8
0.8405584509525301
% es.EZ (V/m) @ t=2.8
-0.8334117577000324
% es.tEX (V/m) @ t=2.8
0.95097380297657
% es.tEY (V/m) @ t=2.8
0
% es.tEZ (V/m) @ t=2.8
-0.8334117577000342
% es.Ex (V/m) @ t=2.8
0.9509738029765664
% es.Ey (V/m) @ t=2.8
0.8405584509525301
% es.Ez (V/m) @ t=2.8
-0.8334117577000324
% es.tEx (V/m) @ t=2.8
0.95097380297657
% es.tEy (V/m) @ t=2.8
0
% es.tEz (V/m) @ t=2.8
-0.8334117577000342
% V (V) @ t=2.8
0.054820317407688966
% es.normE (V/m) @ t=2.9
1.7200374291932028
% es.EX (V/m) @ t=2.9
0.9874668351804168
% es.EY (V/m) @ t=2.9
0.8727897705844825
% es.EZ (V/m) @ t=2.9
-0.8653932886891891
% es.tEX (V/m) @ t=2.9
0.9874668351804203
% es.tEY (V/m) @ t=2.9
0
% es.tEZ (V/m) @ t=2.9
-0.8653932886892051
% es.Ex (V/m) @ t=2.9
0.9874668351804168
% es.Ey (V/m) @ t=2.9
0.8727897705844825
% es.Ez (V/m) @ t=2.9
-0.8653932886891891
% es.tEx (V/m) @ t=2.9
0.9874668351804203
% es.tEy (V/m) @ t=2.9
0
% es.tEz (V/m) @ t=2.9
-0.8653932886892051
% V (V) @ t=2.9
0.056924892253984935
% es.normE (V/m) @ t=3
1.7804532325440439
% es.EX (V/m) @ t=3
1.0221335727388237
% es.EY (V/m) @ t=3
0.9034708898326382
% es.EZ (V/m) @ t=3
-0.8957745003925215
% es.tEX (V/m) @ t=3
1.0221335727388237
% es.tEY (V/m) @ t=3
0
% es.tEZ (V/m) @ t=3
-0.8957745003925197
% es.Ex (V/m) @ t=3
1.0221335727388237
% es.Ey (V/m) @ t=3
0.9034708898326382
% es.Ez (V/m) @ t=3
-0.8957745003925215
% es.tEx (V/m) @ t=3
1.0221335727388237
% es.tEy (V/m) @ t=3
0
% es.tEz (V/m) @ t=3
-0.8957745003925197
% V (V) @ t=3
0.05892188592654819
% es.normE (V/m) @ t=3.1
1.8401740767510126
% es.EX (V/m) @ t=3.1
1.0563935758381504
% es.EY (V/m) @ t=3.1
0.9338101382254713
% es.EZ (V/m) @ t=3.1
-0.9257993060894165
% es.tEX (V/m) @ t=3.1
1.0563935758381433
% es.tEY (V/m) @ t=3.1
0
% es.tEZ (V/m) @ t=3.1
-0.9257993060894307
% es.Ex (V/m) @ t=3.1
1.0563935758381504
% es.Ey (V/m) @ t=3.1
0.9338101382254713
% es.Ez (V/m) @ t=3.1
-0.9257993060894165
% es.tEx (V/m) @ t=3.1
1.0563935758381433
% es.tEy (V/m) @ t=3.1
0
% es.tEz (V/m) @ t=3.1
-0.9257993060894307
% V (V) @ t=3.1
0.06089479808970834
% es.normE (V/m) @ t=3.2
1.8991999626638028
% es.EX (V/m) @ t=3.2
1.09024684447839
% es.EY (V/m) @ t=3.2
0.9638075157631221
% es.EZ (V/m) @ t=3.2
-0.9554677057798475
% es.tEX (V/m) @ t=3.2
1.0902468444783722
% es.tEY (V/m) @ t=3.2
0
% es.tEZ (V/m) @ t=3.2
-0.9554677057798671
% es.Ex (V/m) @ t=3.2
1.09024684447839
% es.Ey (V/m) @ t=3.2
0.9638075157631221
% es.Ez (V/m) @ t=3.2
-0.9554677057798475
% es.tEx (V/m) @ t=3.2
1.0902468444783722
% es.tEy (V/m) @ t=3.2
0
% es.tEz (V/m) @ t=3.2
-0.9554677057798671
% V (V) @ t=3.2
0.06284362874346532
% es.normE (V/m) @ t=3.3
1.9575308913111087
% es.EX (V/m) @ t=3.3
1.1236933786595777
% es.EY (V/m) @ t=3.3
0.9934630224454679
% es.EZ (V/m) @ t=3.3
-0.9847796994639619
% es.tEX (V/m) @ t=3.3
1.1236933786595742
% es.tEY (V/m) @ t=3.3
0
% es.tEZ (V/m) @ t=3.3
-0.9847796994639424
% es.Ex (V/m) @ t=3.3
1.1236933786595777
% es.Ey (V/m) @ t=3.3
0.9934630224454679
% es.Ez (V/m) @ t=3.3
-0.9847796994639619
% es.tEx (V/m) @ t=3.3
1.1236933786595742
% es.tEy (V/m) @ t=3.3
0
% es.tEz (V/m) @ t=3.3
-0.9847796994639424
% V (V) @ t=3.3
0.06476837788781915
% es.normE (V/m) @ t=3.4
2.015166863877643
% es.EX (V/m) @ t=3.4
1.1567331783816783
% es.EY (V/m) @ t=3.4
1.0227766582726172
% es.EZ (V/m) @ t=3.4
-1.013735287141536
% es.tEX (V/m) @ t=3.4
1.1567331783816783
% es.tEY (V/m) @ t=3.4
0
% es.tEZ (V/m) @ t=3.4
-1.013735287141543
% es.Ex (V/m) @ t=3.4
1.1567331783816783
% es.Ey (V/m) @ t=3.4
1.0227766582726172
% es.Ez (V/m) @ t=3.4
-1.013735287141536
% es.tEx (V/m) @ t=3.4
1.1567331783816783
% es.tEy (V/m) @ t=3.4
0
% es.tEz (V/m) @ t=3.4
-1.013735287141543
% V (V) @ t=3.4
0.06666904552276985
% es.normE (V/m) @ t=3.5
2.070851512062964
% es.EX (V/m) @ t=3.5
1.1886848332198845
% es.EY (V/m) @ t=3.5
1.051055672669568
% es.EZ (V/m) @ t=3.5
-1.0417369485552364
% es.tEX (V/m) @ t=3.5
1.1886848332198952
% es.tEY (V/m) @ t=3.5
0
% es.tEZ (V/m) @ t=3.5
-1.0417369485552541
% es.Ex (V/m) @ t=3.5
1.1886848332198845
% es.Ey (V/m) @ t=3.5
1.051055672669568
% es.Ez (V/m) @ t=3.5
-1.0417369485552364
% es.tEx (V/m) @ t=3.5
1.1886848332198952
% es.tEy (V/m) @ t=3.5
0
% es.tEz (V/m) @ t=3.5
-1.0417369485552541
% V (V) @ t=3.5
0.06850959579911066
% es.normE (V/m) @ t=3.6
2.124927805325563
% es.EX (V/m) @ t=3.6
1.2197343589257486
% es.EY (V/m) @ t=3.6
1.0784891770942497
% es.EZ (V/m) @ t=3.6
-1.068947798585162
% es.tEX (V/m) @ t=3.6
1.2197343589257343
% es.tEY (V/m) @ t=3.6
0
% es.tEZ (V/m) @ t=3.6
-1.068947798585171
% es.Ex (V/m) @ t=3.6
1.2197343589257486
% es.Ey (V/m) @ t=3.6
1.0784891770942497
% es.Ez (V/m) @ t=3.6
-1.068947798585162
% es.tEx (V/m) @ t=3.6
1.2197343589257343
% es.tEy (V/m) @ t=3.6
0
% es.tEz (V/m) @ t=3.6
-1.068947798585171
% V (V) @ t=3.6
0.07029986601214366
% es.normE (V/m) @ t=3.7
2.1774185863871445
% es.EX (V/m) @ t=3.7
1.2498941441859728
% es.EY (V/m) @ t=3.7
1.1050897664080956
% es.EZ (V/m) @ t=3.7
-1.0953787007152886
% es.tEX (V/m) @ t=3.7
1.2498941441859586
% es.tEY (V/m) @ t=3.7
0
% es.tEZ (V/m) @ t=3.7
-1.095378700715301
% es.Ex (V/m) @ t=3.7
1.2498941441859728
% es.Ey (V/m) @ t=3.7
1.1050897664080956
% es.Ez (V/m) @ t=3.7
-1.0953787007152886
% es.tEx (V/m) @ t=3.7
1.2498941441859586
% es.tEy (V/m) @ t=3.7
0
% es.tEz (V/m) @ t=3.7
-1.095378700715301
% V (V) @ t=3.7
0.07204051132773338
% es.normE (V/m) @ t=3.8
2.2281987346515697
% es.EX (V/m) @ t=3.8
1.2790963264067017
% es.EY (V/m) @ t=3.8
1.1307884486359754
% es.EZ (V/m) @ t=3.8
-1.1209701470879185
% es.tEX (V/m) @ t=3.8
1.2790963264066733
% es.tEY (V/m) @ t=3.8
0
% es.tEZ (V/m) @ t=3.8
-1.120970147087931
% es.Ex (V/m) @ t=3.8
1.2790963264067017
% es.Ey (V/m) @ t=3.8
1.1307884486359754
% es.Ez (V/m) @ t=3.8
-1.1209701470879185
% es.tEx (V/m) @ t=3.8
1.2790963264066733
% es.tEy (V/m) @ t=3.8
0
% es.tEz (V/m) @ t=3.8
-1.120970147087931
% V (V) @ t=3.8
0.07372794288648327
% es.normE (V/m) @ t=3.9
2.2771431325124603
% es.EX (V/m) @ t=3.9
1.3072730429936037
% es.EY (V/m) @ t=3.9
1.1555162318029968
% es.EZ (V/m) @ t=3.9
-1.1456626298452122
% es.tEX (V/m) @ t=3.9
1.3072730429936215
% es.tEY (V/m) @ t=3.9
0
% es.tEZ (V/m) @ t=3.9
-1.1456626298452193
% es.Ex (V/m) @ t=3.9
1.3072730429936037
% es.Ey (V/m) @ t=3.9
1.1555162318029968
% es.Ez (V/m) @ t=3.9
-1.1456626298452122
% es.tEx (V/m) @ t=3.9
1.3072730429936215
% es.tEy (V/m) @ t=3.9
0
% es.tEz (V/m) @ t=3.9
-1.1456626298452193
% V (V) @ t=3.9
0.0753585718289968
% es.normE (V/m) @ t=4
2.3245616890344167
% es.EX (V/m) @ t=4
1.334551808740784
% es.EY (V/m) @ t=4
1.1795002239554062
% es.EZ (V/m) @ t=4
-1.1695683343726806
% es.tEX (V/m) @ t=4
1.3345518087407982
% es.tEY (V/m) @ t=4
0
% es.tEZ (V/m) @ t=4
-1.1695683343726984
% es.Ex (V/m) @ t=4
1.334551808740784
% es.Ey (V/m) @ t=4
1.1795002239554062
% es.Ez (V/m) @ t=4
-1.1695683343726806
% es.tEx (V/m) @ t=4
1.3345518087407982
% es.tEy (V/m) @ t=4
0
% es.tEz (V/m) @ t=4
-1.1695683343726984
% V (V) @ t=4
0.07693564449985543
% es.normE (V/m) @ t=4.1
2.370481382973596
% es.EX (V/m) @ t=4.1
1.3609330748720154
% es.EY (V/m) @ t=4.1
1.2027749646639627
% es.EZ (V/m) @ t=4.1
-1.1926877854554672
% es.tEX (V/m) @ t=4.1
1.360933074872051
% es.tEY (V/m) @ t=4.1
0
% es.tEZ (V/m) @ t=4.1
-1.192687785455476
% es.Ex (V/m) @ t=4.1
1.3609330748720154
% es.Ey (V/m) @ t=4.1
1.2027749646639627
% es.Ez (V/m) @ t=4.1
-1.1926877854554672
% es.tEx (V/m) @ t=4.1
1.360933074872051
% es.tEy (V/m) @ t=4.1
0
% es.tEz (V/m) @ t=4.1
-1.192687785455476
% V (V) @ t=4.1
0.07845796197273343
% es.normE (V/m) @ t=4.2
2.414636686923619
% es.EX (V/m) @ t=4.2
1.3862859213598497
% es.EY (V/m) @ t=4.2
1.2251758966088016
% es.EZ (V/m) @ t=4.2
-1.2149060617849372
% es.tEX (V/m) @ t=4.2
1.3862859213598142
% es.tEY (V/m) @ t=4.2
0
% es.tEZ (V/m) @ t=4.2
-1.2149060617849443
% es.Ex (V/m) @ t=4.2
1.3862859213598497
% es.Ey (V/m) @ t=4.2
1.2251758966088016
% es.Ez (V/m) @ t=4.2
-1.2149060617849372
% es.tEx (V/m) @ t=4.2
1.3862859213598142
% es.tEy (V/m) @ t=4.2
0
% es.tEz (V/m) @ t=4.2
-1.2149060617849443
% V (V) @ t=4.2
0.07991972934778334
% es.normE (V/m) @ t=4.3
2.4569675396675494
% es.EX (V/m) @ t=4.3
1.4105717057766824
% es.EY (V/m) @ t=4.3
1.2466783118136284
% es.EZ (V/m) @ t=4.3
-1.236189333526907
% es.tEX (V/m) @ t=4.3
1.4105717057766896
% es.tEY (V/m) @ t=4.3
0
% es.tEZ (V/m) @ t=4.3
-1.236189333526923
% es.Ex (V/m) @ t=4.3
1.4105717057766824
% es.Ey (V/m) @ t=4.3
1.2466783118136284
% es.Ez (V/m) @ t=4.3
-1.236189333526907
% es.tEx (V/m) @ t=4.3
1.4105717057766896
% es.tEy (V/m) @ t=4.3
0
% es.tEz (V/m) @ t=4.3
-1.236189333526923
% V (V) @ t=4.3
0.08131838002208538
% es.normE (V/m) @ t=4.4
2.49741388155603
% es.EX (V/m) @ t=4.4
1.4337517856955486
% es.EY (V/m) @ t=4.4
1.2672575023023
% es.EZ (V/m) @ t=4.4
-1.2565037708474307
% es.tEX (V/m) @ t=4.4
1.4337517856955628
% es.tEY (V/m) @ t=4.4
0
% es.tEZ (V/m) @ t=4.4
-1.256503770847445
% es.Ex (V/m) @ t=4.4
1.4337517856955486
% es.Ey (V/m) @ t=4.4
1.2672575023023
% es.Ez (V/m) @ t=4.4
-1.2565037708474307
% es.tEx (V/m) @ t=4.4
1.4337517856955628
% es.tEy (V/m) @ t=4.4
0
% es.tEz (V/m) @ t=4.4
-1.256503770847445
% V (V) @ t=4.4
0.08265134739271976
% es.normE (V/m) @ t=4.5
2.5361766137366466
% es.EX (V/m) @ t=4.5
1.4559617312419348
% es.EY (V/m) @ t=4.5
1.2869873589158711
% es.EZ (V/m) @ t=4.5
-1.2759680174656634
% es.tEX (V/m) @ t=4.5
1.4559617312419277
% es.tEY (V/m) @ t=4.5
0
% es.tEZ (V/m) @ t=4.5
-1.2759680174657007
% es.Ex (V/m) @ t=4.5
1.4559617312419348
% es.Ey (V/m) @ t=4.5
1.2869873589158711
% es.Ez (V/m) @ t=4.5
-1.2759680174656634
% es.tEx (V/m) @ t=4.5
1.4559617312419277
% es.tEy (V/m) @ t=4.5
0
% es.tEz (V/m) @ t=4.5
-1.2759680174657007
% V (V) @ t=4.5
0.08392809533815249
% es.normE (V/m) @ t=4.6
2.5736708203334073
% es.EX (V/m) @ t=4.6
1.4774801009146543
% es.EY (V/m) @ t=4.6
1.3060226994109403
% es.EZ (V/m) @ t=4.6
-1.294825862763373
% es.tEX (V/m) @ t=4.6
1.4774801009146756
% es.tEY (V/m) @ t=4.6
0
% es.tEZ (V/m) @ t=4.6
-1.294825862763389
% es.Ex (V/m) @ t=4.6
1.4774801009146543
% es.Ey (V/m) @ t=4.6
1.3060226994109403
% es.Ez (V/m) @ t=4.6
-1.294825862763373
% es.tEx (V/m) @ t=4.6
1.4774801009146756
% es.tEy (V/m) @ t=4.6
0
% es.tEz (V/m) @ t=4.6
-1.294825862763389
% V (V) @ t=4.6
0.08516796199063366
% es.normE (V/m) @ t=4.7
2.6095666802743804
% es.EX (V/m) @ t=4.7
1.4980881645474184
% es.EY (V/m) @ t=4.7
1.3242368918235172
% es.EZ (V/m) @ t=4.7
-1.3128858612983514
% es.tEX (V/m) @ t=4.7
1.4980881645474113
% es.tEY (V/m) @ t=4.7
0
% es.tEZ (V/m) @ t=4.7
-1.3128858612983834
% es.Ex (V/m) @ t=4.7
1.4980881645474184
% es.Ey (V/m) @ t=4.7
1.3242368918235172
% es.Ez (V/m) @ t=4.7
-1.3128858612983514
% es.tEx (V/m) @ t=4.7
1.4980881645474113
% es.tEy (V/m) @ t=4.7
0
% es.tEz (V/m) @ t=4.7
-1.3128858612983834
% V (V) @ t=4.7
0.08635594454702361
% es.normE (V/m) @ t=4.8
2.6438746295214557
% es.EX (V/m) @ t=4.8
1.5177943422946356
% es.EY (V/m) @ t=4.8
1.3416318641161915
% es.EZ (V/m) @ t=4.8
-1.3301553731446418
% es.tEX (V/m) @ t=4.8
1.5177943422946214
% es.tEY (V/m) @ t=4.8
0
% es.tEZ (V/m) @ t=4.8
-1.3301553731446347
% es.Ex (V/m) @ t=4.8
1.5177943422946356
% es.Ey (V/m) @ t=4.8
1.3416318641161915
% es.Ez (V/m) @ t=4.8
-1.3301553731446418
% es.tEx (V/m) @ t=4.8
1.5177943422946214
% es.tEy (V/m) @ t=4.8
0
% es.tEz (V/m) @ t=4.8
-1.3301553731446347
% V (V) @ t=4.8
0.08749272637405793
% es.normE (V/m) @ t=4.9
2.676605104419942
% es.EX (V/m) @ t=4.9
1.536607054310501
% es.EY (V/m) @ t=4.9
1.3582095442512632
% es.EZ (V/m) @ t=4.9
-1.346641758376098
% es.tEX (V/m) @ t=4.9
1.5366070543104797
% es.tEY (V/m) @ t=4.9
0
% es.tEZ (V/m) @ t=4.9
-1.3466417583761086
% es.Ex (V/m) @ t=4.9
1.536607054310501
% es.Ey (V/m) @ t=4.9
1.3582095442512632
% es.Ez (V/m) @ t=4.9
-1.346641758376098
% es.tEx (V/m) @ t=4.9
1.5366070543104797
% es.tEy (V/m) @ t=4.9
0
% es.tEz (V/m) @ t=4.9
-1.3466417583761086
% V (V) @ t=4.9
0.08857899083847205
% es.normE (V/m) @ t=5
2.7077602671285503
% es.EX (V/m) @ t=5
1.5545261715931176
% es.EY (V/m) @ t=5
1.3739729261393663
% es.EZ (V/m) @ t=5
-1.362344917756328
% es.tEX (V/m) @ t=5
1.5545261715931105
% es.tEY (V/m) @ t=5
0
% es.tEZ (V/m) @ t=5
-1.3623449177563316
% es.Ex (V/m) @ t=5
1.5545261715931176
% es.Ey (V/m) @ t=5
1.3739729261393663
% es.Ez (V/m) @ t=5
-1.362344917756328
% es.tEx (V/m) @ t=5
1.5545261715931105
% es.tEy (V/m) @ t=5
0
% es.tEz (V/m) @ t=5
-1.3623449177563316
% V (V) @ t=5
0.08961461929908988
% es.normE (V/m) @ t=5.1
2.737269466759048
% es.EX (V/m) @ t=5.1
1.5714763390261481
% es.EY (V/m) @ t=5.1
1.388934383228591
% es.EZ (V/m) @ t=5.1
-1.377199115752818
% es.tEX (V/m) @ t=5.1
1.5714763390261908
% es.tEY (V/m) @ t=5.1
0
% es.tEZ (V/m) @ t=5.1
-1.377199115752802
% es.Ex (V/m) @ t=5.1
1.5714763390261481
% es.Ey (V/m) @ t=5.1
1.388934383228591
% es.Ez (V/m) @ t=5.1
-1.377199115752818
% es.tEx (V/m) @ t=5.1
1.5714763390261908
% es.tEy (V/m) @ t=5.1
0
% es.tEz (V/m) @ t=5.1
-1.377199115752802
% V (V) @ t=5.1
0.09059243605093438
% es.normE (V/m) @ t=5.2
2.765183339441205
% es.EX (V/m) @ t=5.2
1.587507510118897
% es.EY (V/m) @ t=5.2
1.40309066491184
% es.EZ (V/m) @ t=5.2
-1.391247951126024
% es.tEX (V/m) @ t=5.2
1.5875075101189111
% es.tEY (V/m) @ t=5.2
0
% es.tEZ (V/m) @ t=5.2
-1.3912479511260187
% es.Ex (V/m) @ t=5.2
1.587507510118897
% es.Ey (V/m) @ t=5.2
1.40309066491184
% es.Ez (V/m) @ t=5.2
-1.391247951126024
% es.tEx (V/m) @ t=5.2
1.5875075101189111
% es.tEy (V/m) @ t=5.2
0
% es.tEz (V/m) @ t=5.2
-1.3912479511260187
% V (V) @ t=5.2
0.09151702076109675
% es.normE (V/m) @ t=5.3
2.7915045962963143
% es.EX (V/m) @ t=5.3
1.6026201240402216
% es.EY (V/m) @ t=5.3
1.4164446942576063
% es.EZ (V/m) @ t=5.3
-1.404491820379933
% es.tEX (V/m) @ t=5.3
1.6026201240402145
% es.tEY (V/m) @ t=5.3
0
% es.tEZ (V/m) @ t=5.3
-1.4044918203799597
% es.Ex (V/m) @ t=5.3
1.6026201240402216
% es.Ey (V/m) @ t=5.3
1.4164446942576063
% es.Ez (V/m) @ t=5.3