% Model:              1 neuron.mph
% Version:            COMSOL 6.0.0.405
% Date:               Mar 16 2023, 17:21
% Dimension:          0
% Nodes:              14017
% Expressions:        14017
% Description:        Electric field norm, Electric field, X component, Electric field, Y component, Electric field, Z component, Tangential electric field, X component, Tangential electric field, Y component, Tangential electric field, Z component, Electric field, x component, Electric field, y component, Electric field, z component, Tangential electric field, x component, Tangential electric field, y component, Tangential electric field, z component, Electric potential
% Length unit:        mm
% x
1.33
% y
12.2
% z
1.33
% es.normE (V/m) @ t=0
7.678558372518079
% es.EX (V/m) @ t=0
5.9499935903214
% es.EY (V/m) @ t=0
-0.9117147477835488
% es.EZ (V/m) @ t=0
4.753398358506171
% es.tEX (V/m) @ t=0
5.94999359032143
% es.tEY (V/m) @ t=0
0
% es.tEZ (V/m) @ t=0
4.753398358506167
% es.Ex (V/m) @ t=0
5.9499935903214
% es.Ey (V/m) @ t=0
-0.9117147477835488
% es.Ez (V/m) @ t=0
4.753398358506171
% es.tEx (V/m) @ t=0
5.94999359032143
% es.tEy (V/m) @ t=0
0
% es.tEz (V/m) @ t=0
4.753398358506167
% V (V) @ t=0
0.006341204265188061
% es.normE (V/m) @ t=0.02
6.63212043756346
% es.EX (V/m) @ t=0.02
5.1391253646669295
% es.EY (V/m) @ t=0.02
-0.7874657838720633
% es.EZ (V/m) @ t=0.02
4.105602754285572
% es.tEX (V/m) @ t=0.02
5.139125364666928
% es.tEY (V/m) @ t=0.02
0
% es.tEZ (V/m) @ t=0.02
4.105602754285565
% es.Ex (V/m) @ t=0.02
5.1391253646669295
% es.Ey (V/m) @ t=0.02
-0.7874657838720633
% es.Ez (V/m) @ t=0.02
4.105602754285572
% es.tEx (V/m) @ t=0.02
5.139125364666928
% es.tEy (V/m) @ t=0.02
0
% es.tEz (V/m) @ t=0.02
4.105602754285565
% V (V) @ t=0.02
0.005477021634808971
% es.normE (V/m) @ t=0.04
6.693123842279254
% es.EX (V/m) @ t=0.04
5.186395938844728
% es.EY (V/m) @ t=0.04
-0.7947090363310787
% es.EZ (V/m) @ t=0.04
4.143366806841113
% es.tEX (V/m) @ t=0.04
5.186395938844731
% es.tEY (V/m) @ t=0.04
0
% es.tEZ (V/m) @ t=0.04
4.143366806841112
% es.Ex (V/m) @ t=0.04
5.186395938844728
% es.Ey (V/m) @ t=0.04
-0.7947090363310787
% es.Ez (V/m) @ t=0.04
4.143366806841113
% es.tEx (V/m) @ t=0.04
5.186395938844731
% es.tEy (V/m) @ t=0.04
0
% es.tEz (V/m) @ t=0.04
4.143366806841112
% V (V) @ t=0.04
0.005527400252121547
% es.normE (V/m) @ t=0.06
6.7546828612333645
% es.EX (V/m) @ t=0.06
5.234097048610087
% es.EY (V/m) @ t=0.06
-0.8020182701075189
% es.EZ (V/m) @ t=0.06
4.181474810676779
% es.tEX (V/m) @ t=0.06
5.2340970486101135
% es.tEY (V/m) @ t=0.06
0
% es.tEZ (V/m) @ t=0.06
4.1814748106767805
% es.Ex (V/m) @ t=0.06
5.234097048610087
% es.Ey (V/m) @ t=0.06
-0.8020182701075189
% es.Ez (V/m) @ t=0.06
4.181474810676779
% es.tEx (V/m) @ t=0.06
5.2340970486101135
% es.tEy (V/m) @ t=0.06
0
% es.tEz (V/m) @ t=0.06
4.1814748106767805
% V (V) @ t=0.06
0.005578237746230236
% es.normE (V/m) @ t=0.08
6.817168355132157
% es.EX (V/m) @ t=0.08
5.282516065770989
% es.EY (V/m) @ t=0.08
-0.8094375392752431
% es.EZ (V/m) @ t=0.08
4.220156345248188
% es.tEX (V/m) @ t=0.08
5.2825160657710075
% es.tEY (V/m) @ t=0.08
0
% es.tEZ (V/m) @ t=0.08
4.2201563452481885
% es.Ex (V/m) @ t=0.08
5.282516065770989
% es.Ey (V/m) @ t=0.08
-0.8094375392752431
% es.Ez (V/m) @ t=0.08
4.220156345248188
% es.tEx (V/m) @ t=0.08
5.2825160657710075
% es.tEy (V/m) @ t=0.08
0
% es.tEz (V/m) @ t=0.08
4.2201563452481885
% V (V) @ t=0.08
0.005629840448223327
% es.normE (V/m) @ t=0.1
6.880325077876861
% es.EX (V/m) @ t=0.1
5.331455205095267
% es.EY (V/m) @ t=0.1
-0.8169365288165471
% es.EZ (V/m) @ t=0.1
4.259253401443902
% es.tEX (V/m) @ t=0.1
5.331455205095281
% es.tEY (V/m) @ t=0.1
0
% es.tEZ (V/m) @ t=0.1
4.259253401443896
% es.Ex (V/m) @ t=0.1
5.331455205095267
% es.Ey (V/m) @ t=0.1
-0.8169365288165471
% es.Ez (V/m) @ t=0.1
4.259253401443902
% es.tEx (V/m) @ t=0.1
5.331455205095281
% es.tEy (V/m) @ t=0.1
0
% es.tEz (V/m) @ t=0.1
4.259253401443896
% V (V) @ t=0.1
0.005681997541469094
% es.normE (V/m) @ t=0.12
6.943481800621565
% es.EX (V/m) @ t=0.12
5.380394344419544
% es.EY (V/m) @ t=0.12
-0.8244355183578653
% es.EZ (V/m) @ t=0.12
4.2983504576396125
% es.tEX (V/m) @ t=0.12
5.380394344419567
% es.tEY (V/m) @ t=0.12
0
% es.tEZ (V/m) @ t=0.12
4.298350457639607
% es.Ex (V/m) @ t=0.12
5.380394344419544
% es.Ey (V/m) @ t=0.12
-0.8244355183578653
% es.Ez (V/m) @ t=0.12
4.2983504576396125
% es.tEx (V/m) @ t=0.12
5.380394344419567
% es.tEy (V/m) @ t=0.12
0
% es.tEz (V/m) @ t=0.12
4.298350457639607
% V (V) @ t=0.12
0.005734154634714863
% es.normE (V/m) @ t=0.14
7.007212368732803
% es.EX (V/m) @ t=0.14
5.429778149146995
% es.EY (V/m) @ t=0.14
-0.8320026283622619
% es.EZ (V/m) @ t=0.14
4.337802752832402
% es.tEX (V/m) @ t=0.14
5.429778149147022
% es.tEY (V/m) @ t=0.14
0
% es.tEZ (V/m) @ t=0.14
4.3378027528323955
% es.Ex (V/m) @ t=0.14
5.429778149146995
% es.Ey (V/m) @ t=0.14
-0.8320026283622619
% es.Ez (V/m) @ t=0.14
4.337802752832402
% es.tEx (V/m) @ t=0.14
5.429778149147022
% es.tEy (V/m) @ t=0.14
0
% es.tEz (V/m) @ t=0.14
4.3378027528323955
% V (V) @ t=0.14
0.005786785580831599
% es.normE (V/m) @ t=0.16
7.073749649683778
% es.EX (V/m) @ t=0.16
5.481336839600126
% es.EY (V/m) @ t=0.16
-0.8399029197245165
% es.EZ (V/m) @ t=0.16
4.378992543720841
% es.tEX (V/m) @ t=0.16
5.481336839600134
% es.tEY (V/m) @ t=0.16
0
% es.tEZ (V/m) @ t=0.16
4.378992543720839
% es.Ex (V/m) @ t=0.16
5.481336839600126
% es.Ey (V/m) @ t=0.16
-0.8399029197245165
% es.Ez (V/m) @ t=0.16
4.378992543720841
% es.tEx (V/m) @ t=0.16
5.481336839600134
% es.tEy (V/m) @ t=0.16
0
% es.tEz (V/m) @ t=0.16
4.378992543720839
% V (V) @ t=0.16
0.00584173417036704
% es.normE (V/m) @ t=0.18
7.140286930634737
% es.EX (V/m) @ t=0.18
5.532895530053224
% es.EY (V/m) @ t=0.18
-0.8478032110867488
% es.EZ (V/m) @ t=0.18
4.420182334609301
% es.tEX (V/m) @ t=0.18
5.532895530053262
% es.tEY (V/m) @ t=0.18
0
% es.tEZ (V/m) @ t=0.18
4.420182334609295
% es.Ex (V/m) @ t=0.18
5.532895530053224
% es.Ey (V/m) @ t=0.18
-0.8478032110867488
% es.Ez (V/m) @ t=0.18
4.420182334609301
% es.tEx (V/m) @ t=0.18
5.532895530053262
% es.tEy (V/m) @ t=0.18
0
% es.tEz (V/m) @ t=0.18
4.420182334609295
% V (V) @ t=0.18
0.00589668275990248
% es.normE (V/m) @ t=0.2
7.206824211585714
% es.EX (V/m) @ t=0.2
5.584454220506352
% es.EY (V/m) @ t=0.2
-0.8557035024489883
% es.EZ (V/m) @ t=0.2
4.461372125497749
% es.tEX (V/m) @ t=0.2
5.584454220506373
% es.tEY (V/m) @ t=0.2
0
% es.tEZ (V/m) @ t=0.2
4.461372125497744
% es.Ex (V/m) @ t=0.2
5.584454220506352
% es.Ey (V/m) @ t=0.2
-0.8557035024489883
% es.Ez (V/m) @ t=0.2
4.461372125497749
% es.tEx (V/m) @ t=0.2
5.584454220506373
% es.tEy (V/m) @ t=0.2
0
% es.tEz (V/m) @ t=0.2
4.461372125497744
% V (V) @ t=0.2
0.005951631349437921
% es.normE (V/m) @ t=0.22
7.273361492536701
% es.EX (V/m) @ t=0.22
5.63601291095949
% es.EY (V/m) @ t=0.22
-0.8636037938112366
% es.EZ (V/m) @ t=0.22
4.502561916386201
% es.tEX (V/m) @ t=0.22
5.636012910959515
% es.tEY (V/m) @ t=0.22
0
% es.tEZ (V/m) @ t=0.22
4.502561916386195
% es.Ex (V/m) @ t=0.22
5.63601291095949
% es.Ey (V/m) @ t=0.22
-0.8636037938112366
% es.Ez (V/m) @ t=0.22
4.502561916386201
% es.tEx (V/m) @ t=0.22
5.636012910959515
% es.tEy (V/m) @ t=0.22
0
% es.tEz (V/m) @ t=0.22
4.502561916386195
% V (V) @ t=0.22
0.0060065799389733615
% es.normE (V/m) @ t=0.24
7.3398987734876595
% es.EX (V/m) @ t=0.24
5.687571601412588
% es.EY (V/m) @ t=0.24
-0.8715040851734948
% es.EZ (V/m) @ t=0.24
4.543751707274653
% es.tEX (V/m) @ t=0.24
5.687571601412599
% es.tEY (V/m) @ t=0.24
0
% es.tEZ (V/m) @ t=0.24
4.543751707274646
% es.Ex (V/m) @ t=0.24
5.687571601412588
% es.Ey (V/m) @ t=0.24
-0.8715040851734948
% es.Ez (V/m) @ t=0.24
4.543751707274653
% es.tEx (V/m) @ t=0.24
5.687571601412599
% es.tEy (V/m) @ t=0.24
0
% es.tEz (V/m) @ t=0.24
4.543751707274646
% V (V) @ t=0.24
0.006061528528508801
% es.normE (V/m) @ t=0.26
7.406436054438622
% es.EX (V/m) @ t=0.26
5.739130291865705
% es.EY (V/m) @ t=0.26
-0.8794043765357413
% es.EZ (V/m) @ t=0.26
4.584941498163091
% es.tEX (V/m) @ t=0.26
5.739130291865726
% es.tEY (V/m) @ t=0.26
0
% es.tEZ (V/m) @ t=0.26
4.584941498163084
% es.Ex (V/m) @ t=0.26
5.739130291865705
% es.Ey (V/m) @ t=0.26
-0.8794043765357413
% es.Ez (V/m) @ t=0.26
4.584941498163091
% es.tEx (V/m) @ t=0.26
5.739130291865726
% es.tEy (V/m) @ t=0.26
0
% es.tEz (V/m) @ t=0.26
4.584941498163084
% V (V) @ t=0.26
0.006116477118044241
% es.normE (V/m) @ t=0.28
7.475634496370386
% es.EX (V/m) @ t=0.28
5.7927509747779435
% es.EY (V/m) @ t=0.28
-0.8876215204953128
% es.EZ (V/m) @ t=0.28
4.62777861874715
% es.tEX (V/m) @ t=0.28
5.792750974777956
% es.tEY (V/m) @ t=0.28
0
% es.tEZ (V/m) @ t=0.28
4.627778618747154
% es.Ex (V/m) @ t=0.28
5.7927509747779435
% es.Ey (V/m) @ t=0.28
-0.8876215204953128
% es.Ez (V/m) @ t=0.28
4.62777861874715
% es.tEx (V/m) @ t=0.28
5.792750974777956
% es.tEy (V/m) @ t=0.28
0
% es.tEz (V/m) @ t=0.28
4.627778618747154
% V (V) @ t=0.28
0.006173626131250215
% es.normE (V/m) @ t=0.3
7.549786232843465
% es.EX (V/m) @ t=0.3
5.850209702838316
% es.EY (V/m) @ t=0.3
-0.8964284311965649
% es.EZ (V/m) @ t=0.3
4.673681960896522
% es.tEX (V/m) @ t=0.3
5.85020970283834
% es.tEY (V/m) @ t=0.3
0
% es.tEZ (V/m) @ t=0.3
4.673681960896512
% es.Ex (V/m) @ t=0.3
5.850209702838316
% es.Ey (V/m) @ t=0.3
-0.8964284311965649
% es.Ez (V/m) @ t=0.3
4.673681960896522
% es.tEx (V/m) @ t=0.3
5.85020970283834
% es.tEy (V/m) @ t=0.3
0
% es.tEz (V/m) @ t=0.3
4.673681960896512
% V (V) @ t=0.3
0.0062348708555511785
% es.normE (V/m) @ t=0.32
7.6239379693173515
% es.EX (V/m) @ t=0.32
5.907668430898659
% es.EY (V/m) @ t=0.32
-0.9052353418978099
% es.EZ (V/m) @ t=0.32
4.71958530304588
% es.tEX (V/m) @ t=0.32
5.9076684308986795
% es.tEY (V/m) @ t=0.32
0
% es.tEZ (V/m) @ t=0.32
4.719585303045877
% es.Ex (V/m) @ t=0.32
5.907668430898659
% es.Ey (V/m) @ t=0.32
-0.9052353418978099
% es.Ez (V/m) @ t=0.32
4.71958530304588
% es.tEx (V/m) @ t=0.32
5.9076684308986795
% es.tEy (V/m) @ t=0.32
0
% es.tEz (V/m) @ t=0.32
4.719585303045877
% V (V) @ t=0.32
0.006296115579852142
% es.normE (V/m) @ t=0.34
7.698089705792089
% es.EX (V/m) @ t=0.34
5.965127158959039
% es.EY (V/m) @ t=0.34
-0.914042252599061
% es.EZ (V/m) @ t=0.34
4.765488645195249
% es.tEX (V/m) @ t=0.34
5.965127158959049
% es.tEY (V/m) @ t=0.34
0
% es.tEZ (V/m) @ t=0.34
4.765488645195248
% es.Ex (V/m) @ t=0.34
5.965127158959039
% es.Ey (V/m) @ t=0.34
-0.914042252599061
% es.Ez (V/m) @ t=0.34
4.765488645195249
% es.tEx (V/m) @ t=0.34
5.965127158959049
% es.tEy (V/m) @ t=0.34
0
% es.tEz (V/m) @ t=0.34
4.765488645195248
% V (V) @ t=0.34
0.006357360304153107
% es.normE (V/m) @ t=0.36
7.772241442267601
% es.EX (V/m) @ t=0.36
6.022585887019389
% es.EY (V/m) @ t=0.36
-0.9228491633003006
% es.EZ (V/m) @ t=0.36
4.811391987344621
% es.tEX (V/m) @ t=0.36
6.022585887019403
% es.tEY (V/m) @ t=0.36
0
% es.tEZ (V/m) @ t=0.36
4.811391987344612
% es.Ex (V/m) @ t=0.36
6.022585887019389
% es.Ey (V/m) @ t=0.36
-0.9228491633003006
% es.Ez (V/m) @ t=0.36
4.811391987344621
% es.tEx (V/m) @ t=0.36
6.022585887019403
% es.tEy (V/m) @ t=0.36
0
% es.tEz (V/m) @ t=0.36
4.811391987344612
% V (V) @ t=0.36
0.00641860502845407
% es.normE (V/m) @ t=0.38
7.846393178743909
% es.EX (V/m) @ t=0.38
6.080044615079768
% es.EY (V/m) @ t=0.38
-0.9316560740015598
% es.EZ (V/m) @ t=0.38
4.857295329493997
% es.tEX (V/m) @ t=0.38
6.080044615079787
% es.tEY (V/m) @ t=0.38
0
% es.tEZ (V/m) @ t=0.38
4.857295329493999
% es.Ex (V/m) @ t=0.38
6.080044615079768
% es.Ey (V/m) @ t=0.38
-0.9316560740015598
% es.Ez (V/m) @ t=0.38
4.857295329493997
% es.tEx (V/m) @ t=0.38
6.080044615079787
% es.tEy (V/m) @ t=0.38
0
% es.tEz (V/m) @ t=0.38
4.857295329493999
% V (V) @ t=0.38
0.006479849752755034
% es.normE (V/m) @ t=0.4
7.920544915220931
% es.EX (V/m) @ t=0.4
6.1375033431401045
% es.EY (V/m) @ t=0.4
-0.9404629847028101
% es.EZ (V/m) @ t=0.4
4.903198671643369
% es.tEX (V/m) @ t=0.4
6.137503343140127
% es.tEY (V/m) @ t=0.4
0
% es.tEZ (V/m) @ t=0.4
4.903198671643363
% es.Ex (V/m) @ t=0.4
6.1375033431401045
% es.Ey (V/m) @ t=0.4
-0.9404629847028101
% es.Ez (V/m) @ t=0.4
4.903198671643369
% es.tEx (V/m) @ t=0.4
6.137503343140127
% es.tEy (V/m) @ t=0.4
0
% es.tEz (V/m) @ t=0.4
4.903198671643363
% V (V) @ t=0.4
0.006541094477055997
% es.normE (V/m) @ t=0.42
7.9946966516987175
% es.EX (V/m) @ t=0.42
6.194962071200501
% es.EY (V/m) @ t=0.42
-0.9492698954040604
% es.EZ (V/m) @ t=0.42
4.94910201379273
% es.tEX (V/m) @ t=0.42
6.194962071200524
% es.tEY (V/m) @ t=0.42
0
% es.tEZ (V/m) @ t=0.42
4.949102013792728
% es.Ex (V/m) @ t=0.42
6.194962071200501
% es.Ey (V/m) @ t=0.42
-0.9492698954040604
% es.Ez (V/m) @ t=0.42
4.94910201379273
% es.tEx (V/m) @ t=0.42
6.194962071200524
% es.tEy (V/m) @ t=0.42
0
% es.tEz (V/m) @ t=0.42
4.949102013792728
% V (V) @ t=0.42
0.00660233920135696
% es.normE (V/m) @ t=0.44
8.06884838817719
% es.EX (V/m) @ t=0.44
6.252420799260863
% es.EY (V/m) @ t=0.44
-0.9580768061053027
% es.EZ (V/m) @ t=0.44
4.9950053559421
% es.tEX (V/m) @ t=0.44
6.252420799260879
% es.tEY (V/m) @ t=0.44
0
% es.tEZ (V/m) @ t=0.44
4.9950053559421
% es.Ex (V/m) @ t=0.44
6.252420799260863
% es.Ey (V/m) @ t=0.44
-0.9580768061053027
% es.Ez (V/m) @ t=0.44
4.9950053559421
% es.tEx (V/m) @ t=0.44
6.252420799260879
% es.tEy (V/m) @ t=0.44
0
% es.tEz (V/m) @ t=0.44
4.9950053559421
% V (V) @ t=0.44
0.006663583925657924
% es.normE (V/m) @ t=0.46
8.143000124656357
% es.EX (V/m) @ t=0.46
6.309879527321231
% es.EY (V/m) @ t=0.46
-0.9668837168065298
% es.EZ (V/m) @ t=0.46
5.040908698091468
% es.tEX (V/m) @ t=0.46
6.309879527321262
% es.tEY (V/m) @ t=0.46
0
% es.tEZ (V/m) @ t=0.46
5.040908698091471
% es.Ex (V/m) @ t=0.46
6.309879527321231
% es.Ey (V/m) @ t=0.46
-0.9668837168065298
% es.Ez (V/m) @ t=0.46
5.040908698091468
% es.tEx (V/m) @ t=0.46
6.309879527321262
% es.tEy (V/m) @ t=0.46
0
% es.tEz (V/m) @ t=0.46
5.040908698091471
% V (V) @ t=0.46
0.006724828649958888
% es.normE (V/m) @ t=0.48
8.217151861136195
% es.EX (V/m) @ t=0.48
6.3673382553815925
% es.EY (V/m) @ t=0.48
-0.9756906275077828
% es.EZ (V/m) @ t=0.48
5.086812040240844
% es.tEX (V/m) @ t=0.48
6.367338255381602
% es.tEY (V/m) @ t=0.48
0
% es.tEZ (V/m) @ t=0.48
5.086812040240836
% es.Ex (V/m) @ t=0.48
6.3673382553815925
% es.Ey (V/m) @ t=0.48
-0.9756906275077828
% es.Ez (V/m) @ t=0.48
5.086812040240844
% es.tEx (V/m) @ t=0.48
6.367338255381602
% es.tEy (V/m) @ t=0.48
0
% es.tEz (V/m) @ t=0.48
5.086812040240836
% V (V) @ t=0.48
0.006786073374259852
% es.normE (V/m) @ t=0.5
8.291303597616672
% es.EX (V/m) @ t=0.5
6.42479698344195
% es.EY (V/m) @ t=0.5
-0.9844975382090437
% es.EZ (V/m) @ t=0.5
5.132715382390202
% es.tEX (V/m) @ t=0.5
6.424796983441985
% es.tEY (V/m) @ t=0.5
0
% es.tEZ (V/m) @ t=0.5
5.1327153823902005
% es.Ex (V/m) @ t=0.5
6.42479698344195
% es.Ey (V/m) @ t=0.5
-0.9844975382090437
% es.Ez (V/m) @ t=0.5
5.132715382390202
% es.tEx (V/m) @ t=0.5
6.424796983441985
% es.tEy (V/m) @ t=0.5
0
% es.tEz (V/m) @ t=0.5
5.1327153823902005
% V (V) @ t=0.5
0.006847318098560816
% es.normE (V/m) @ t=0.52
8.365455334097778
% es.EX (V/m) @ t=0.52
6.482255711502297
% es.EY (V/m) @ t=0.52
-0.9933044489102834
% es.EZ (V/m) @ t=0.52
5.178618724539571
% es.tEX (V/m) @ t=0.52
6.48225571150234
% es.tEY (V/m) @ t=0.52
0
% es.tEZ (V/m) @ t=0.52
5.178618724539565
% es.Ex (V/m) @ t=0.52
6.482255711502297
% es.Ey (V/m) @ t=0.52
-0.9933044489102834
% es.Ez (V/m) @ t=0.52
5.178618724539571
% es.tEx (V/m) @ t=0.52
6.48225571150234
% es.tEy (V/m) @ t=0.52
0
% es.tEz (V/m) @ t=0.52
5.178618724539565
% V (V) @ t=0.52
0.0069085628228617805
% es.normE (V/m) @ t=0.54
8.439607070579541
% es.EX (V/m) @ t=0.54
6.53971443956269
% es.EY (V/m) @ t=0.54
-1.0021113596115105
% es.EZ (V/m) @ t=0.54
5.224522066688943
% es.tEX (V/m) @ t=0.54
6.539714439562723
% es.tEY (V/m) @ t=0.54
0
% es.tEZ (V/m) @ t=0.54
5.224522066688944
% es.Ex (V/m) @ t=0.54
6.53971443956269
% es.Ey (V/m) @ t=0.54
-1.0021113596115105
% es.Ez (V/m) @ t=0.54
5.224522066688943
% es.tEx (V/m) @ t=0.54
6.539714439562723
% es.tEy (V/m) @ t=0.54
0
% es.tEz (V/m) @ t=0.54
5.224522066688944
% V (V) @ t=0.54
0.006969807547162744
% es.normE (V/m) @ t=0.56
8.519880600596373
% es.EX (V/m) @ t=0.56
6.60191662933512
% es.EY (V/m) @ t=0.56
-1.0116470745165689
% es.EZ (V/m) @ t=0.56
5.274214970354506
% es.tEX (V/m) @ t=0.56
6.601916629335133
% es.tEY (V/m) @ t=0.56
0
% es.tEZ (V/m) @ t=0.56
5.274214970354503
% es.Ex (V/m) @ t=0.56
6.60191662933512
% es.Ey (V/m) @ t=0.56
-1.0116470745165689
% es.Ez (V/m) @ t=0.56
5.274214970354506
% es.tEx (V/m) @ t=0.56
6.601916629335133
% es.tEy (V/m) @ t=0.56
0
% es.tEz (V/m) @ t=0.56
5.274214970354503
% V (V) @ t=0.56
0.00703611389220715
% es.normE (V/m) @ t=0.58
8.602667148728656
% es.EX (V/m) @ t=0.58
6.666066027083972
% es.EY (V/m) @ t=0.58
-1.021481966150585
% es.EZ (V/m) @ t=0.58
5.325463502558722
% es.tEX (V/m) @ t=0.58
6.666066027083981
% es.tEY (V/m) @ t=0.58
0
% es.tEZ (V/m) @ t=0.58
5.32546350255873
% es.Ex (V/m) @ t=0.58
6.666066027083972
% es.Ey (V/m) @ t=0.58
-1.021481966150585
% es.Ez (V/m) @ t=0.58
5.325463502558722
% es.tEx (V/m) @ t=0.58
6.666066027083981
% es.tEy (V/m) @ t=0.58
0
% es.tEz (V/m) @ t=0.58
5.32546350255873
% V (V) @ t=0.58
0.007104498050646816
% es.normE (V/m) @ t=0.6
8.685453696863751
% es.EX (V/m) @ t=0.6
6.7302154248328
% es.EY (V/m) @ t=0.6
-1.0313168577845655
% es.EZ (V/m) @ t=0.6
5.376712034762958
% es.tEX (V/m) @ t=0.6
6.730215424832815
% es.tEY (V/m) @ t=0.6
0
% es.tEZ (V/m) @ t=0.6
5.376712034762956
% es.Ex (V/m) @ t=0.6
6.7302154248328
% es.Ey (V/m) @ t=0.6
-1.0313168577845655
% es.Ez (V/m) @ t=0.6
5.376712034762958
% es.tEx (V/m) @ t=0.6
6.730215424832815
% es.tEy (V/m) @ t=0.6
0
% es.tEz (V/m) @ t=0.6
5.376712034762956
% V (V) @ t=0.6
0.00717288220908648
% es.normE (V/m) @ t=0.62
8.768240245001632
% es.EX (V/m) @ t=0.62
6.794364822581702
% es.EY (V/m) @ t=0.62
-1.0411517494185425
% es.EZ (V/m) @ t=0.62
5.427960566967188
% es.tEX (V/m) @ t=0.62
6.794364822581706
% es.tEY (V/m) @ t=0.62
0
% es.tEZ (V/m) @ t=0.62
5.427960566967182
% es.Ex (V/m) @ t=0.62
6.794364822581702
% es.Ey (V/m) @ t=0.62
-1.0411517494185425
% es.Ez (V/m) @ t=0.62
5.427960566967188
% es.tEx (V/m) @ t=0.62
6.794364822581706
% es.tEy (V/m) @ t=0.62
0
% es.tEz (V/m) @ t=0.62
5.427960566967182
% V (V) @ t=0.62
0.007241266367526143
% es.normE (V/m) @ t=0.64
8.85102679314213
% es.EX (V/m) @ t=0.64
6.858514220330551
% es.EY (V/m) @ t=0.64
-1.050986641052539
% es.EZ (V/m) @ t=0.64
5.4792090991714115
% es.tEX (V/m) @ t=0.64
6.858514220330568
% es.tEY (V/m) @ t=0.64
0
% es.tEZ (V/m) @ t=0.64
5.479209099171409
% es.Ex (V/m) @ t=0.64
6.858514220330551
% es.Ey (V/m) @ t=0.64
-1.050986641052539
% es.Ez (V/m) @ t=0.64
5.4792090991714115
% es.tEx (V/m) @ t=0.64
6.858514220330568
% es.tEy (V/m) @ t=0.64
0
% es.tEz (V/m) @ t=0.64
5.479209099171409
% V (V) @ t=0.64
0.007309650525965807
% es.normE (V/m) @ t=0.66
8.933813341285205
% es.EX (V/m) @ t=0.66
6.922663618079385
% es.EY (V/m) @ t=0.66
-1.0608215326865569
% es.EZ (V/m) @ t=0.66
5.530457631375638
% es.tEX (V/m) @ t=0.66
6.922663618079417
% es.tEY (V/m) @ t=0.66
0
% es.tEZ (V/m) @ t=0.66
5.530457631375642
% es.Ex (V/m) @ t=0.66
6.922663618079385
% es.Ey (V/m) @ t=0.66
-1.0608215326865569
% es.Ez (V/m) @ t=0.66
5.530457631375638
% es.tEx (V/m) @ t=0.66
6.922663618079417
% es.tEy (V/m) @ t=0.66
0
% es.tEz (V/m) @ t=0.66
5.530457631375642
% V (V) @ t=0.66
0.007378034684405474
% es.normE (V/m) @ t=0.68
9.016599889430829
% es.EX (V/m) @ t=0.68
6.986813015828256
% es.EY (V/m) @ t=0.68
-1.0706564243205303
% es.EZ (V/m) @ t=0.68
5.5817061635798755
% es.tEX (V/m) @ t=0.68
6.98681301582825
% es.tEY (V/m) @ t=0.68
0
% es.tEZ (V/m) @ t=0.68
5.581706163579883
% es.Ex (V/m) @ t=0.68
6.986813015828256
% es.Ey (V/m) @ t=0.68
-1.0706564243205303
% es.Ez (V/m) @ t=0.68
5.5817061635798755
% es.tEx (V/m) @ t=0.68
6.98681301582825
% es.tEy (V/m) @ t=0.68
0
% es.tEz (V/m) @ t=0.68
5.581706163579883
% V (V) @ t=0.68
0.007446418842845138
% es.normE (V/m) @ t=0.7
9.099386437578882
% es.EX (V/m) @ t=0.7
7.050962413577111
% es.EY (V/m) @ t=0.7
-1.0804913159545304
% es.EZ (V/m) @ t=0.7
5.632954695784106
% es.tEX (V/m) @ t=0.7
7.050962413577141
% es.tEY (V/m) @ t=0.7
0
% es.tEZ (V/m) @ t=0.7
5.632954695784108
% es.Ex (V/m) @ t=0.7
7.050962413577111
% es.Ey (V/m) @ t=0.7
-1.0804913159545304
% es.Ez (V/m) @ t=0.7
5.632954695784106
% es.tEx (V/m) @ t=0.7
7.050962413577141
% es.tEy (V/m) @ t=0.7
0
% es.tEz (V/m) @ t=0.7
5.632954695784108
% V (V) @ t=0.7
0.007514803001284801
% es.normE (V/m) @ t=0.72
9.1821729857293
% es.EX (V/m) @ t=0.72
7.11511181132596
% es.EY (V/m) @ t=0.72
-1.0903262075885198
% es.EZ (V/m) @ t=0.72
5.684203227988325
% es.tEX (V/m) @ t=0.72
7.115111811325974
% es.tEY (V/m) @ t=0.72
0
% es.tEZ (V/m) @ t=0.72
5.684203227988328
% es.Ex (V/m) @ t=0.72
7.11511181132596
% es.Ey (V/m) @ t=0.72
-1.0903262075885198
% es.Ez (V/m) @ t=0.72
5.684203227988325
% es.tEx (V/m) @ t=0.72
7.115111811325974
% es.tEy (V/m) @ t=0.72
0
% es.tEz (V/m) @ t=0.72
5.684203227988328
% V (V) @ t=0.72
0.007583187159724466
% es.normE (V/m) @ t=0.74
9.264959533882049
% es.EX (V/m) @ t=0.74
7.179261209074823
% es.EY (V/m) @ t=0.74
-1.100161099222495
% es.EZ (V/m) @ t=0.74
5.735451760192552
% es.tEX (V/m) @ t=0.74
7.179261209074851
% es.tEY (V/m) @ t=0.74
0
% es.tEZ (V/m) @ t=0.74
5.7354517601925545
% es.Ex (V/m) @ t=0.74
7.179261209074823
% es.Ey (V/m) @ t=0.74
-1.100161099222495
% es.Ez (V/m) @ t=0.74
5.735451760192552
% es.tEx (V/m) @ t=0.74
7.179261209074851
% es.tEy (V/m) @ t=0.74
0
% es.tEz (V/m) @ t=0.74
5.7354517601925545
% V (V) @ t=0.74
0.007651571318164131
% es.normE (V/m) @ t=0.76
9.347746082037053
% es.EX (V/m) @ t=0.76
7.243410606823678
% es.EY (V/m) @ t=0.76
-1.1099959908564934
% es.EZ (V/m) @ t=0.76
5.786700292396786
% es.tEX (V/m) @ t=0.76
7.2434106068237
% es.tEY (V/m) @ t=0.76
0
% es.tEZ (V/m) @ t=0.76
5.786700292396781
% es.Ex (V/m) @ t=0.76
7.243410606823678
% es.Ey (V/m) @ t=0.76
-1.1099959908564934
% es.Ez (V/m) @ t=0.76
5.786700292396786
% es.tEx (V/m) @ t=0.76
7.2434106068237
% es.tEy (V/m) @ t=0.76
0
% es.tEz (V/m) @ t=0.76
5.786700292396781
% V (V) @ t=0.76
0.007719955476603797
% es.normE (V/m) @ t=0.78
9.43053263019424
% es.EX (V/m) @ t=0.78
7.307560004572521
% es.EY (V/m) @ t=0.78
-1.1198308824904863
% es.EZ (V/m) @ t=0.78
5.837948824601011
% es.tEX (V/m) @ t=0.78
7.307560004572547
% es.tEY (V/m) @ t=0.78
0
% es.tEZ (V/m) @ t=0.78
5.837948824601028
% es.Ex (V/m) @ t=0.78
7.307560004572521
% es.Ey (V/m) @ t=0.78
-1.1198308824904863
% es.Ez (V/m) @ t=0.78
5.837948824601011
% es.tEx (V/m) @ t=0.78
7.307560004572547
% es.tEy (V/m) @ t=0.78
0
% es.tEz (V/m) @ t=0.78
5.837948824601028
% V (V) @ t=0.78
0.00778833963504346
% es.normE (V/m) @ t=0.8
9.51331917835357
% es.EX (V/m) @ t=0.8
7.371709402321369
% es.EY (V/m) @ t=0.8
-1.1296657741244758
% es.EZ (V/m) @ t=0.8
5.889197356805249
% es.tEX (V/m) @ t=0.8
7.371709402321395
% es.tEY (V/m) @ t=0.8
0
% es.tEZ (V/m) @ t=0.8
5.889197356805234
% es.Ex (V/m) @ t=0.8
7.371709402321369
% es.Ey (V/m) @ t=0.8
-1.1296657741244758
% es.Ez (V/m) @ t=0.8
5.889197356805249
% es.tEx (V/m) @ t=0.8
7.371709402321395
% es.tEy (V/m) @ t=0.8
0
% es.tEz (V/m) @ t=0.8
5.889197356805234
% V (V) @ t=0.8
0.007856723793483124
% es.normE (V/m) @ t=0.82
9.596775690590258
% es.EX (V/m) @ t=0.82
7.436377980865508
% es.EY (V/m) @ t=0.82
-1.139579893157146
% es.EZ (V/m) @ t=0.82
5.9408606500431205
% es.tEX (V/m) @ t=0.82
7.4363779808655295
% es.tEY (V/m) @ t=0.82
0
% es.tEZ (V/m) @ t=0.82
5.940860650043126
% es.Ex (V/m) @ t=0.82
7.436377980865508
% es.Ey (V/m) @ t=0.82
-1.139579893157146
% es.Ez (V/m) @ t=0.82
5.9408606500431205
% es.tEx (V/m) @ t=0.82
7.4363779808655295
% es.tEy (V/m) @ t=0.82
0
% es.tEz (V/m) @ t=0.82
5.940860650043126
% V (V) @ t=0.82
0.007925660226517547
% es.normE (V/m) @ t=0.84
9.68935055379951
% es.EX (V/m) @ t=0.84
7.508112718452905
% es.EY (V/m) @ t=0.84
-1.1505723136305992
% es.EZ (V/m) @ t=0.84
5.998168927562432
% es.tEX (V/m) @ t=0.84
7.5081127184529315
% es.tEY (V/m) @ t=0.84
0
% es.tEZ (V/m) @ t=0.84
5.998168927562424
% es.Ex (V/m) @ t=0.84
7.508112718452905
% es.Ey (V/m) @ t=0.84
-1.1505723136305992
% es.Ez (V/m) @ t=0.84
5.998168927562432
% es.tEx (V/m) @ t=0.84
7.5081127184529315
% es.tEy (V/m) @ t=0.84
0
% es.tEz (V/m) @ t=0.84
5.998168927562424
% V (V) @ t=0.84
0.008002113232116593
% es.normE (V/m) @ t=0.86
9.78192541700868
% es.EX (V/m) @ t=0.86
7.57984745604018
% es.EY (V/m) @ t=0.86
-1.1615647341040845
% es.EZ (V/m) @ t=0.86
6.055477205081726
% es.tEX (V/m) @ t=0.86
7.5798474560401905
% es.tEY (V/m) @ t=0.86
0
% es.tEZ (V/m) @ t=0.86
6.0554772050817425
% es.Ex (V/m) @ t=0.86
7.57984745604018
% es.Ey (V/m) @ t=0.86
-1.1615647341040845
% es.Ez (V/m) @ t=0.86
6.055477205081726
% es.tEx (V/m) @ t=0.86
7.5798474560401905
% es.tEy (V/m) @ t=0.86
0
% es.tEz (V/m) @ t=0.86
6.0554772050817425
% V (V) @ t=0.86
0.00807856623771564
% es.normE (V/m) @ t=0.88
9.874500280217907
% es.EX (V/m) @ t=0.88
7.651582193627477
% es.EY (V/m) @ t=0.88
-1.172557154577575
% es.EZ (V/m) @ t=0.88
6.112785482601044
% es.tEX (V/m) @ t=0.88
7.651582193627493
% es.tEY (V/m) @ t=0.88
0
% es.tEZ (V/m) @ t=0.88
6.11278548260104
% es.Ex (V/m) @ t=0.88
7.651582193627477
% es.Ey (V/m) @ t=0.88
-1.172557154577575
% es.Ez (V/m) @ t=0.88
6.112785482601044
% es.tEx (V/m) @ t=0.88
7.651582193627493
% es.tEy (V/m) @ t=0.88
0
% es.tEz (V/m) @ t=0.88
6.11278548260104
% V (V) @ t=0.88
0.008155019243314686
% es.normE (V/m) @ t=0.9
9.96707514342715
% es.EX (V/m) @ t=0.9
7.723316931214774
% es.EY (V/m) @ t=0.9
-1.1835495750510319
% es.EZ (V/m) @ t=0.9
6.170093760120356
% es.tEX (V/m) @ t=0.9
7.723316931214809
% es.tEY (V/m) @ t=0.9
0
% es.tEZ (V/m) @ t=0.9
6.170093760120337
% es.Ex (V/m) @ t=0.9
7.723316931214774
% es.Ey (V/m) @ t=0.9
-1.1835495750510319
% es.Ez (V/m) @ t=0.9
6.170093760120356
% es.tEx (V/m) @ t=0.9
7.723316931214809
% es.tEy (V/m) @ t=0.9
0
% es.tEz (V/m) @ t=0.9
6.170093760120337
% V (V) @ t=0.9
0.00823147224891373
% es.normE (V/m) @ t=0.92
10.059650006636424
% es.EX (V/m) @ t=0.92
7.795051668802086
% es.EY (V/m) @ t=0.92
-1.194541995524542
% es.EZ (V/m) @ t=0.92
6.227402037639649
% es.tEX (V/m) @ t=0.92
7.795051668802097
% es.tEY (V/m) @ t=0.92
0
% es.tEZ (V/m) @ t=0.92
6.227402037639641
% es.Ex (V/m) @ t=0.92
7.795051668802086
% es.Ey (V/m) @ t=0.92
-1.194541995524542
% es.Ez (V/m) @ t=0.92
6.227402037639649
% es.tEx (V/m) @ t=0.92
7.795051668802097
% es.tEy (V/m) @ t=0.92
0
% es.tEz (V/m) @ t=0.92
6.227402037639641
% V (V) @ t=0.92
0.008307925254512774
% es.normE (V/m) @ t=0.94
10.152224869845728
% es.EX (V/m) @ t=0.94
7.86678640638941
% es.EY (V/m) @ t=0.94
-1.2055344159979864
% es.EZ (V/m) @ t=0.94
6.28471031515895
% es.tEX (V/m) @ t=0.94
7.866786406389428
% es.tEY (V/m) @ t=0.94
0
% es.tEZ (V/m) @ t=0.94
6.284710315158931
% es.Ex (V/m) @ t=0.94
7.86678640638941
% es.Ey (V/m) @ t=0.94
-1.2055344159979864
% es.Ez (V/m) @ t=0.94
6.28471031515895
% es.tEx (V/m) @ t=0.94
7.866786406389428
% es.tEy (V/m) @ t=0.94
0
% es.tEz (V/m) @ t=0.94
6.284710315158931
% V (V) @ t=0.94
0.008384378260111822
% es.normE (V/m) @ t=0.96
10.244799733055075
% es.EX (V/m) @ t=0.96
7.93852114397675
% es.EY (V/m) @ t=0.96
-1.2165268364714539
% es.EZ (V/m) @ t=0.96
6.342018592678265
% es.tEX (V/m) @ t=0.96
7.938521143976772
% es.tEY (V/m) @ t=0.96
0
% es.tEZ (V/m) @ t=0.96
6.342018592678278
% es.Ex (V/m) @ t=0.96
7.93852114397675
% es.Ey (V/m) @ t=0.96
-1.2165268364714539
% es.Ez (V/m) @ t=0.96
6.342018592678265
% es.tEx (V/m) @ t=0.96
7.938521143976772
% es.tEy (V/m) @ t=0.96
0
% es.tEz (V/m) @ t=0.96
6.342018592678278
% V (V) @ t=0.96
0.008460831265710867
% es.normE (V/m) @ t=0.98
10.337374596264382
% es.EX (V/m) @ t=0.98
8.010255881564019
% es.EY (V/m) @ t=0.98
-1.2275192569449214
% es.EZ (V/m) @ t=0.98
6.399326870197571
% es.tEX (V/m) @ t=0.98
8.01025588156406
% es.tEY (V/m) @ t=0.98
0
% es.tEZ (V/m) @ t=0.98
6.399326870197577
% es.Ex (V/m) @ t=0.98
8.010255881564019
% es.Ey (V/m) @ t=0.98
-1.2275192569449214
% es.Ez (V/m) @ t=0.98
6.399326870197571
% es.tEx (V/m) @ t=0.98
8.01025588156406
% es.tEy (V/m) @ t=0.98
0
% es.tEz (V/m) @ t=0.98
6.399326870197577
% V (V) @ t=0.98
0.008537284271309911
% es.normE (V/m) @ t=1
10.429949459473747
% es.EX (V/m) @ t=1
8.081990619151352
% es.EY (V/m) @ t=1
-1.238511677418396
% es.EZ (V/m) @ t=1
6.456635147716852
% es.tEX (V/m) @ t=1
8.081990619151377
% es.tEY (V/m) @ t=1
0
% es.tEZ (V/m) @ t=1
6.456635147716859
% es.Ex (V/m) @ t=1
8.081990619151352
% es.Ey (V/m) @ t=1
-1.238511677418396
% es.Ez (V/m) @ t=1
6.456635147716852
% es.tEx (V/m) @ t=1
8.081990619151377
% es.tEy (V/m) @ t=1
0
% es.tEz (V/m) @ t=1
6.456635147716859
% V (V) @ t=1
0.008613737276908959
% es.normE (V/m) @ t=1.02
10.522524322683164
% es.EX (V/m) @ t=1.02
8.153725356738684
% es.EY (V/m) @ t=1.02
-1.2495040978918759
% es.EZ (V/m) @ t=1.02
6.513943425236183
% es.tEX (V/m) @ t=1.02
8.153725356738708
% es.tEY (V/m) @ t=1.02
0
% es.tEZ (V/m) @ t=1.02
6.513943425236172
% es.Ex (V/m) @ t=1.02
8.153725356738684
% es.Ey (V/m) @ t=1.02
-1.2495040978918759
% es.Ez (V/m) @ t=1.02
6.513943425236183
% es.tEx (V/m) @ t=1.02
8.153725356738708
% es.tEy (V/m) @ t=1.02
0
% es.tEz (V/m) @ t=1.02
6.513943425236172
% V (V) @ t=1.02
0.008690190282508004
% es.normE (V/m) @ t=1.04
10.615099185892522
% es.EX (V/m) @ t=1.04
8.225460094325953
% es.EY (V/m) @ t=1.04
-1.2604965183653114
% es.EZ (V/m) @ t=1.04
6.571251702755477
% es.tEX (V/m) @ t=1.04
8.225460094325982
% es.tEY (V/m) @ t=1.04
0
% es.tEZ (V/m) @ t=1.04
6.571251702755483
% es.Ex (V/m) @ t=1.04
8.225460094325953
% es.Ey (V/m) @ t=1.04
-1.2604965183653114
% es.Ez (V/m) @ t=1.04
6.571251702755477
% es.tEx (V/m) @ t=1.04
8.225460094325982
% es.tEy (V/m) @ t=1.04
0
% es.tEz (V/m) @ t=1.04
6.571251702755483
% V (V) @ t=1.04
0.008766643288107048
% es.normE (V/m) @ t=1.06
10.707674049101986
% es.EX (V/m) @ t=1.06
8.297194831913313
% es.EY (V/m) @ t=1.06
-1.2714889388387984
% es.EZ (V/m) @ t=1.06
6.628559980274785
% es.tEX (V/m) @ t=1.06
8.29719483191334
% es.tEY (V/m) @ t=1.06
0
% es.tEZ (V/m) @ t=1.06