% Model:              1 neuron.mph
% Version:            COMSOL 6.1.0.252
% Date:               Mar 18 2023, 12:32
% Dimension:          0
% Nodes:              14017
% Expressions:        14017
% Description:        Electric field norm, Electric field, X component, Electric field, Y component, Electric field, Z component, Tangential electric field, X component, Tangential electric field, Y component, Tangential electric field, Z component, Electric field, x component, Electric field, y component, Electric field, z component, Tangential electric field, x component, Tangential electric field, y component, Tangential electric field, z component, Electric potential
% Length unit:        mm
% x
1.33
% y
12.2
% z
1.33
% es.normE (V/m) @ t=0
7.622859020711984
% es.EX (V/m) @ t=0
5.906831147748475
% es.EY (V/m) @ t=0
-0.9051020123836571
% es.EZ (V/m) @ t=0
4.718919966133162
% es.tEX (V/m) @ t=0
5.906831147748495
% es.tEY (V/m) @ t=0
0
% es.tEZ (V/m) @ t=0
4.718919966133165
% es.Ex (V/m) @ t=0
5.906831147748475
% es.Ey (V/m) @ t=0
-0.9051020123836571
% es.Ez (V/m) @ t=0
4.718919966133162
% es.tEx (V/m) @ t=0
5.906831147748495
% es.tEy (V/m) @ t=0
0
% es.tEz (V/m) @ t=0
4.718919966133165
% V (V) @ t=0
0.006295207900068884
% es.normE (V/m) @ t=0.02
6.583956400604432
% es.EX (V/m) @ t=0.02
5.101802179865036
% es.EY (V/m) @ t=0.02
-0.7817476297163442
% es.EZ (V/m) @ t=0.02
4.075788788592873
% es.tEX (V/m) @ t=0.02
5.101802179865061
% es.tEY (V/m) @ t=0.02
0
% es.tEZ (V/m) @ t=0.02
4.075788788592871
% es.Ex (V/m) @ t=0.02
5.101802179865036
% es.Ey (V/m) @ t=0.02
-0.7817476297163442
% es.Ez (V/m) @ t=0.02
4.075788788592873
% es.tEx (V/m) @ t=0.02
5.101802179865061
% es.tEy (V/m) @ t=0.02
0
% es.tEz (V/m) @ t=0.02
4.075788788592871
% V (V) @ t=0.02
0.005437247862006365
% es.normE (V/m) @ t=0.04
6.644526321224914
% es.EX (V/m) @ t=0.04
5.148736845971419
% es.EY (V/m) @ t=0.04
-0.7889393632862003
% es.EZ (V/m) @ t=0.04
4.113284515217231
% es.tEX (V/m) @ t=0.04
5.148736845971447
% es.tEY (V/m) @ t=0.04
0
% es.tEZ (V/m) @ t=0.04
4.113284515217236
% es.Ex (V/m) @ t=0.04
5.148736845971419
% es.Ey (V/m) @ t=0.04
-0.7889393632862003
% es.Ez (V/m) @ t=0.04
4.113284515217231
% es.tEx (V/m) @ t=0.04
5.148736845971447
% es.tEy (V/m) @ t=0.04
0
% es.tEz (V/m) @ t=0.04
4.113284515217236
% V (V) @ t=0.04
0.005487268394555252
% es.normE (V/m) @ t=0.06
6.705664420712741
% es.EX (V/m) @ t=0.06
5.196111780651849
% es.EY (V/m) @ t=0.06
-0.7961985911334128
% es.EZ (V/m) @ t=0.06
4.151131969832697
% es.tEX (V/m) @ t=0.06
5.196111780651878
% es.tEY (V/m) @ t=0.06
0
% es.tEZ (V/m) @ t=0.06
4.151131969832695
% es.Ex (V/m) @ t=0.06
5.196111780651849
% es.Ey (V/m) @ t=0.06
-0.7961985911334128
% es.Ez (V/m) @ t=0.06
4.151131969832697
% es.tEx (V/m) @ t=0.06
5.196111780651878
% es.tEy (V/m) @ t=0.06
0
% es.tEz (V/m) @ t=0.06
4.151131969832695
% V (V) @ t=0.06
0.005537758211097299
% es.normE (V/m) @ t=0.08
6.767683443433372
% es.EX (V/m) @ t=0.08
5.244169329054721
% es.EY (V/m) @ t=0.08
-0.8035624126661087
% es.EZ (V/m) @ t=0.08
4.1895247588650415
% es.tEX (V/m) @ t=0.08
5.244169329054748
% es.tEY (V/m) @ t=0.08
0
% es.tEZ (V/m) @ t=0.08
4.189524758865039
% es.Ex (V/m) @ t=0.08
5.244169329054721
% es.Ey (V/m) @ t=0.08
-0.8035624126661087
% es.Ez (V/m) @ t=0.08
4.1895247588650415
% es.tEx (V/m) @ t=0.08
5.244169329054748
% es.tEy (V/m) @ t=0.08
0
% es.tEz (V/m) @ t=0.08
4.189524758865039
% V (V) @ t=0.08
0.005588975517095197
% es.normE (V/m) @ t=0.1
6.83042244379334
% es.EX (V/m) @ t=0.1
5.2927847769409215
% es.EY (V/m) @ t=0.1
-0.8110117185088805
% es.EZ (V/m) @ t=0.1
4.228363249147536
% es.tEX (V/m) @ t=0.1
5.292784776940959
% es.tEY (V/m) @ t=0.1
0
% es.tEZ (V/m) @ t=0.1
4.228363249147529
% es.Ex (V/m) @ t=0.1
5.2927847769409215
% es.Ey (V/m) @ t=0.1
-0.8110117185088805
% es.Ez (V/m) @ t=0.1
4.228363249147536
% es.tEx (V/m) @ t=0.1
5.292784776940959
% es.tEy (V/m) @ t=0.1
0
% es.tEz (V/m) @ t=0.1
4.228363249147529
% V (V) @ t=0.1
0.00564078739946661
% es.normE (V/m) @ t=0.12
6.893161444153346
% es.EX (V/m) @ t=0.12
5.341400224827165
% es.EY (V/m) @ t=0.12
-0.818461024351631
% es.EZ (V/m) @ t=0.12
4.267201739430037
% es.tEX (V/m) @ t=0.12
5.341400224827169
% es.tEY (V/m) @ t=0.12
0
% es.tEZ (V/m) @ t=0.12
4.267201739430039
% es.Ex (V/m) @ t=0.12
5.341400224827165
% es.Ey (V/m) @ t=0.12
-0.818461024351631
% es.Ez (V/m) @ t=0.12
4.267201739430037
% es.tEx (V/m) @ t=0.12
5.341400224827169
% es.tEy (V/m) @ t=0.12
0
% es.tEz (V/m) @ t=0.12
4.267201739430039
% V (V) @ t=0.12
0.005692599281838024
% es.normE (V/m) @ t=0.14
6.956275404559683
% es.EX (V/m) @ t=0.14
5.390306220593068
% es.EY (V/m) @ t=0.14
-0.8259548719472889
% es.EZ (V/m) @ t=0.14
4.3062723465609185
% es.tEX (V/m) @ t=0.14
5.390306220593075
% es.tEY (V/m) @ t=0.14
0
% es.tEZ (V/m) @ t=0.14
4.306272346560908
% es.Ex (V/m) @ t=0.14
5.390306220593068
% es.Ey (V/m) @ t=0.14
-0.8259548719472889
% es.Ez (V/m) @ t=0.14
4.3062723465609185
% es.tEx (V/m) @ t=0.14
5.390306220593075
% es.tEy (V/m) @ t=0.14
0
% es.tEz (V/m) @ t=0.14
4.306272346560908
% V (V) @ t=0.14
0.0057447208602576195
% es.normE (V/m) @ t=0.16
7.022404287738849
% es.EX (V/m) @ t=0.16
5.441548410381773
% es.EY (V/m) @ t=0.16
-0.8338068642213035
% es.EZ (V/m) @ t=0.16
4.347209324199565
% es.tEX (V/m) @ t=0.16
5.441548410381791
% es.tEY (V/m) @ t=0.16
0
% es.tEZ (V/m) @ t=0.16
4.347209324199561
% es.Ex (V/m) @ t=0.16
5.441548410381773
% es.Ey (V/m) @ t=0.16
-0.8338068642213035
% es.Ez (V/m) @ t=0.16
4.347209324199565
% es.tEx (V/m) @ t=0.16
5.441548410381791
% es.tEy (V/m) @ t=0.16
0
% es.tEz (V/m) @ t=0.16
4.347209324199561
% V (V) @ t=0.16
0.005799332596434994
% es.normE (V/m) @ t=0.18
7.088533170918011
% es.EX (V/m) @ t=0.18
5.492790600170475
% es.EY (V/m) @ t=0.18
-0.8416588564952594
% es.EZ (V/m) @ t=0.18
4.388146301838214
% es.tEX (V/m) @ t=0.18
5.492790600170492
% es.tEY (V/m) @ t=0.18
0
% es.tEZ (V/m) @ t=0.18
4.38814630183821
% es.Ex (V/m) @ t=0.18
5.492790600170475
% es.Ey (V/m) @ t=0.18
-0.8416588564952594
% es.Ez (V/m) @ t=0.18
4.388146301838214
% es.tEx (V/m) @ t=0.18
5.492790600170492
% es.tEy (V/m) @ t=0.18
0
% es.tEz (V/m) @ t=0.18
4.38814630183821
% V (V) @ t=0.18
0.005853944332612368
% es.normE (V/m) @ t=0.2
7.1546620540972246
% es.EX (V/m) @ t=0.2
5.5440327899592265
% es.EY (V/m) @ t=0.2
-0.84951084876925
% es.EZ (V/m) @ t=0.2
4.429083279476869
% es.tEX (V/m) @ t=0.2
5.544032789959236
% es.tEY (V/m) @ t=0.2
0
% es.tEZ (V/m) @ t=0.2
4.429083279476863
% es.Ex (V/m) @ t=0.2
5.5440327899592265
% es.Ey (V/m) @ t=0.2
-0.84951084876925
% es.Ez (V/m) @ t=0.2
4.429083279476869
% es.tEx (V/m) @ t=0.2
5.544032789959236
% es.tEy (V/m) @ t=0.2
0
% es.tEz (V/m) @ t=0.2
4.429083279476863
% V (V) @ t=0.2
0.005908556068789743
% es.normE (V/m) @ t=0.22
7.220790937276414
% es.EX (V/m) @ t=0.22
5.595274979747947
% es.EY (V/m) @ t=0.22
-0.8573628410432441
% es.EZ (V/m) @ t=0.22
4.470020257115513
% es.tEX (V/m) @ t=0.22
5.59527497974798
% es.tEY (V/m) @ t=0.22
0
% es.tEZ (V/m) @ t=0.22
4.470020257115509
% es.Ex (V/m) @ t=0.22
5.595274979747947
% es.Ey (V/m) @ t=0.22
-0.8573628410432441
% es.Ez (V/m) @ t=0.22
4.470020257115513
% es.tEx (V/m) @ t=0.22
5.59527497974798
% es.tEy (V/m) @ t=0.22
0
% es.tEz (V/m) @ t=0.22
4.470020257115509
% V (V) @ t=0.22
0.005963167804967117
% es.normE (V/m) @ t=0.24
7.286919820455575
% es.EX (V/m) @ t=0.24
5.64651716953662
% es.EY (V/m) @ t=0.24
-0.8652148333172276
% es.EZ (V/m) @ t=0.24
4.5109572347541675
% es.tEX (V/m) @ t=0.24
5.6465171695366525
% es.tEY (V/m) @ t=0.24
0
% es.tEZ (V/m) @ t=0.24
4.510957234754162
% es.Ex (V/m) @ t=0.24
5.64651716953662
% es.Ey (V/m) @ t=0.24
-0.8652148333172276
% es.Ez (V/m) @ t=0.24
4.5109572347541675
% es.tEx (V/m) @ t=0.24
5.6465171695366525
% es.tEy (V/m) @ t=0.24
0
% es.tEz (V/m) @ t=0.24
4.510957234754162
% V (V) @ t=0.24
0.006017779541144491
% es.normE (V/m) @ t=0.26
7.353048703634772
% es.EX (V/m) @ t=0.26
5.697759359325339
% es.EY (V/m) @ t=0.26
-0.8730668255911986
% es.EZ (V/m) @ t=0.26
4.551894212392817
% es.tEX (V/m) @ t=0.26
5.697759359325369
% es.tEY (V/m) @ t=0.26
0
% es.tEZ (V/m) @ t=0.26
4.551894212392815
% es.Ex (V/m) @ t=0.26
5.697759359325339
% es.Ey (V/m) @ t=0.26
-0.8730668255911986
% es.Ez (V/m) @ t=0.26
4.551894212392817
% es.tEx (V/m) @ t=0.26
5.697759359325369
% es.tEy (V/m) @ t=0.26
0
% es.tEz (V/m) @ t=0.26
4.551894212392815
% V (V) @ t=0.26
0.006072391277321867
% es.normE (V/m) @ t=0.28
7.420945797954998
% es.EX (V/m) @ t=0.28
5.750371553119683
% es.EY (V/m) @ t=0.28
-0.8811299691433758
% es.EZ (V/m) @ t=0.28
4.5939257059739385
% es.tEX (V/m) @ t=0.28
5.750371553119717
% es.tEY (V/m) @ t=0.28
0
% es.tEZ (V/m) @ t=0.28
4.593925705973939
% es.Ex (V/m) @ t=0.28
5.750371553119683
% es.Ey (V/m) @ t=0.28
-0.8811299691433758
% es.Ez (V/m) @ t=0.28
4.5939257059739385
% es.tEx (V/m) @ t=0.28
5.750371553119717
% es.tEy (V/m) @ t=0.28
0
% es.tEz (V/m) @ t=0.28
4.593925705973939
% V (V) @ t=0.28
0.006128465673473225
% es.normE (V/m) @ t=0.3
7.494719342394704
% es.EX (V/m) @ t=0.3
5.807536800568826
% es.EY (V/m) @ t=0.3
-0.8898948501320358
% es.EZ (V/m) @ t=0.3
4.639594699731489
% es.tEX (V/m) @ t=0.3
5.807536800568862
% es.tEY (V/m) @ t=0.3
0
% es.tEZ (V/m) @ t=0.3
4.639594699731488
% es.Ex (V/m) @ t=0.3
5.807536800568826
% es.Ey (V/m) @ t=0.3
-0.8898948501320358
% es.Ez (V/m) @ t=0.3
4.639594699731489
% es.tEx (V/m) @ t=0.3
5.807536800568862
% es.tEy (V/m) @ t=0.3
0
% es.tEz (V/m) @ t=0.3
4.639594699731488
% V (V) @ t=0.3
0.006189401054930414
% es.normE (V/m) @ t=0.32
7.568492886839536
% es.EX (V/m) @ t=0.32
5.864702048017973
% es.EY (V/m) @ t=0.32
-0.8986597311207261
% es.EZ (V/m) @ t=0.32
4.685263693489015
% es.tEX (V/m) @ t=0.32
5.864702048018007
% es.tEY (V/m) @ t=0.32
0
% es.tEZ (V/m) @ t=0.32
4.6852636934890155
% es.Ex (V/m) @ t=0.32
5.864702048017973
% es.Ey (V/m) @ t=0.32
-0.8986597311207261
% es.Ez (V/m) @ t=0.32
4.685263693489015
% es.tEx (V/m) @ t=0.32
5.864702048018007
% es.tEy (V/m) @ t=0.32
0
% es.tEz (V/m) @ t=0.32
4.6852636934890155
% V (V) @ t=0.32
0.006250336436387603
% es.normE (V/m) @ t=0.34
7.642266431289356
% es.EX (V/m) @ t=0.34
5.921867295467113
% es.EY (V/m) @ t=0.34
-0.9074246121094065
% es.EZ (V/m) @ t=0.34
4.730932687246555
% es.tEX (V/m) @ t=0.34
5.921867295467137
% es.tEY (V/m) @ t=0.34
0
% es.tEZ (V/m) @ t=0.34
4.730932687246558
% es.Ex (V/m) @ t=0.34
5.921867295467113
% es.Ey (V/m) @ t=0.34
-0.9074246121094065
% es.Ez (V/m) @ t=0.34
4.730932687246555
% es.tEx (V/m) @ t=0.34
5.921867295467137
% es.tEy (V/m) @ t=0.34
0
% es.tEz (V/m) @ t=0.34
4.730932687246558
% V (V) @ t=0.34
0.006311271817844792
% es.normE (V/m) @ t=0.36
7.716039975744016
% es.EX (V/m) @ t=0.36
5.9790325429162445
% es.EY (V/m) @ t=0.36
-0.9161894930980896
% es.EZ (V/m) @ t=0.36
4.776601681004099
% es.tEX (V/m) @ t=0.36
5.979032542916268
% es.tEY (V/m) @ t=0.36
0
% es.tEZ (V/m) @ t=0.36
4.776601681004093
% es.Ex (V/m) @ t=0.36
5.9790325429162445
% es.Ey (V/m) @ t=0.36
-0.9161894930980896
% es.Ez (V/m) @ t=0.36
4.776601681004099
% es.tEx (V/m) @ t=0.36
5.979032542916268
% es.tEy (V/m) @ t=0.36
0
% es.tEz (V/m) @ t=0.36
4.776601681004093
% V (V) @ t=0.36
0.006372207199301981
% es.normE (V/m) @ t=0.38
7.7898135202033965
% es.EX (V/m) @ t=0.38
6.036197790365402
% es.EY (V/m) @ t=0.38
-0.9249543740867674
% es.EZ (V/m) @ t=0.38
4.822270674761638
% es.tEX (V/m) @ t=0.38
6.036197790365427
% es.tEY (V/m) @ t=0.38
0
% es.tEZ (V/m) @ t=0.38
4.8222706747616275
% es.Ex (V/m) @ t=0.38
6.036197790365402
% es.Ey (V/m) @ t=0.38
-0.9249543740867674
% es.Ez (V/m) @ t=0.38
4.822270674761638
% es.tEx (V/m) @ t=0.38
6.036197790365427
% es.tEy (V/m) @ t=0.38
0
% es.tEz (V/m) @ t=0.38
4.8222706747616275
% V (V) @ t=0.38
0.006433142580759171
% es.normE (V/m) @ t=0.4
7.863587064667318
% es.EX (V/m) @ t=0.4
6.093363037814531
% es.EY (V/m) @ t=0.4
-0.9337192550754212
% es.EZ (V/m) @ t=0.4
4.867939668519167
% es.tEX (V/m) @ t=0.4
6.093363037814558
% es.tEY (V/m) @ t=0.4
0
% es.tEZ (V/m) @ t=0.4
4.86793966851917
% es.Ex (V/m) @ t=0.4
6.093363037814531
% es.Ey (V/m) @ t=0.4
-0.9337192550754212
% es.Ez (V/m) @ t=0.4
4.867939668519167
% es.tEx (V/m) @ t=0.4
6.093363037814558
% es.tEy (V/m) @ t=0.4
0
% es.tEz (V/m) @ t=0.4
4.86793966851917
% V (V) @ t=0.4
0.0064940779622163596
% es.normE (V/m) @ t=0.42
7.937360609135702
% es.EX (V/m) @ t=0.42
6.150528285263675
% es.EY (V/m) @ t=0.42
-0.9424841360640777
% es.EZ (V/m) @ t=0.42
4.913608662276703
% es.tEX (V/m) @ t=0.42
6.150528285263704
% es.tEY (V/m) @ t=0.42
0
% es.tEZ (V/m) @ t=0.42
4.913608662276711
% es.Ex (V/m) @ t=0.42
6.150528285263675
% es.Ey (V/m) @ t=0.42
-0.9424841360640777
% es.Ez (V/m) @ t=0.42
4.913608662276703
% es.tEx (V/m) @ t=0.42
6.150528285263704
% es.tEy (V/m) @ t=0.42
0
% es.tEz (V/m) @ t=0.42
4.913608662276711
% V (V) @ t=0.42
0.006555013343673548
% es.normE (V/m) @ t=0.44
8.011134153608415
% es.EX (V/m) @ t=0.44
6.207693532712821
% es.EY (V/m) @ t=0.44
-0.9512490170528016
% es.EZ (V/m) @ t=0.44
4.9592776560342395
% es.tEX (V/m) @ t=0.44
6.207693532712834
% es.tEY (V/m) @ t=0.44
0
% es.tEZ (V/m) @ t=0.44
4.959277656034239
% es.Ex (V/m) @ t=0.44
6.207693532712821
% es.Ey (V/m) @ t=0.44
-0.9512490170528016
% es.Ez (V/m) @ t=0.44
4.9592776560342395
% es.tEx (V/m) @ t=0.44
6.207693532712834
% es.tEy (V/m) @ t=0.44
0
% es.tEz (V/m) @ t=0.44
4.959277656034239
% V (V) @ t=0.44
0.0066159487251307375
% es.normE (V/m) @ t=0.46
8.084907698085306
% es.EX (V/m) @ t=0.46
6.264858780161948
% es.EY (V/m) @ t=0.46
-0.9600138980414501
% es.EZ (V/m) @ t=0.46
5.004946649791768
% es.tEX (V/m) @ t=0.46
6.26485878016198
% es.tEY (V/m) @ t=0.46
0
% es.tEZ (V/m) @ t=0.46
5.004946649791774
% es.Ex (V/m) @ t=0.46
6.264858780161948
% es.Ey (V/m) @ t=0.46
-0.9600138980414501
% es.Ez (V/m) @ t=0.46
5.004946649791768
% es.tEx (V/m) @ t=0.46
6.26485878016198
% es.tEy (V/m) @ t=0.46
0
% es.tEz (V/m) @ t=0.46
5.004946649791774
% V (V) @ t=0.46
0.006676884106587927
% es.normE (V/m) @ t=0.48
8.158681242566313
% es.EX (V/m) @ t=0.48
6.322024027611094
% es.EY (V/m) @ t=0.48
-0.968778779030135
% es.EZ (V/m) @ t=0.48
5.050615643549309
% es.tEX (V/m) @ t=0.48
6.32202402761111
% es.tEY (V/m) @ t=0.48
0
% es.tEZ (V/m) @ t=0.48
5.050615643549309
% es.Ex (V/m) @ t=0.48
6.322024027611094
% es.Ey (V/m) @ t=0.48
-0.968778779030135
% es.Ez (V/m) @ t=0.48
5.050615643549309
% es.tEx (V/m) @ t=0.48
6.32202402761111
% es.tEy (V/m) @ t=0.48
0
% es.tEz (V/m) @ t=0.48
5.050615643549309
% V (V) @ t=0.48
0.0067378194880451155
% es.normE (V/m) @ t=0.5
8.232454787051296
% es.EX (V/m) @ t=0.5
6.37918927506023
% es.EY (V/m) @ t=0.5
-0.9775436600188074
% es.EZ (V/m) @ t=0.5
5.096284637306859
% es.tEX (V/m) @ t=0.5
6.379189275060255
% es.tEY (V/m) @ t=0.5
0
% es.tEZ (V/m) @ t=0.5
5.096284637306851
% es.Ex (V/m) @ t=0.5
6.37918927506023
% es.Ey (V/m) @ t=0.5
-0.9775436600188074
% es.Ez (V/m) @ t=0.5
5.096284637306859
% es.tEx (V/m) @ t=0.5
6.379189275060255
% es.tEy (V/m) @ t=0.5
0
% es.tEz (V/m) @ t=0.5
5.096284637306851
% V (V) @ t=0.5
0.006798754869502305
% es.normE (V/m) @ t=0.52
8.306228331540154
% es.EX (V/m) @ t=0.52
6.43635452250938
% es.EY (V/m) @ t=0.52
-0.986308541007479
% es.EZ (V/m) @ t=0.52
5.141953631064387
% es.tEX (V/m) @ t=0.52
6.4363545225094
% es.tEY (V/m) @ t=0.52
0
% es.tEZ (V/m) @ t=0.52
5.141953631064386
% es.Ex (V/m) @ t=0.52
6.43635452250938
% es.Ey (V/m) @ t=0.52
-0.986308541007479
% es.Ez (V/m) @ t=0.52
5.141953631064387
% es.tEx (V/m) @ t=0.52
6.4363545225094
% es.tEy (V/m) @ t=0.52
0
% es.tEz (V/m) @ t=0.52
5.141953631064386
% V (V) @ t=0.52
0.0068596902509594935
% es.normE (V/m) @ t=0.54
8.380001876032765
% es.EX (V/m) @ t=0.54
6.493519769958509
% es.EY (V/m) @ t=0.54
-0.9950734219961381
% es.EZ (V/m) @ t=0.54
5.187622624821925
% es.tEX (V/m) @ t=0.54
6.493519769958544
% es.tEY (V/m) @ t=0.54
0
% es.tEZ (V/m) @ t=0.54
5.187622624821928
% es.Ex (V/m) @ t=0.54
6.493519769958509
% es.Ey (V/m) @ t=0.54
-0.9950734219961381
% es.Ez (V/m) @ t=0.54
5.187622624821925
% es.tEx (V/m) @ t=0.54
6.493519769958544
% es.tEy (V/m) @ t=0.54
0
% es.tEz (V/m) @ t=0.54
5.187622624821928
% V (V) @ t=0.54
0.006920625632416684
% es.normE (V/m) @ t=0.56
8.457859330252091
% es.EX (V/m) @ t=0.56
6.553850737718143
% es.EY (V/m) @ t=0.56
-1.0043141471494827
% es.EZ (V/m) @ t=0.56
5.235820454712924
% es.tEX (V/m) @ t=0.56
6.5538507377181645
% es.tEY (V/m) @ t=0.56
0
% es.tEZ (V/m) @ t=0.56
5.2358204547129175
% es.Ex (V/m) @ t=0.56
6.553850737718143
% es.Ey (V/m) @ t=0.56
-1.0043141471494827
% es.Ez (V/m) @ t=0.56
5.235820454712924
% es.tEx (V/m) @ t=0.56
6.5538507377181645
% es.tEy (V/m) @ t=0.56
0
% es.tEz (V/m) @ t=0.56
5.2358204547129175
% V (V) @ t=0.56
0.006984915458716732
% es.normE (V/m) @ t=0.58
8.540272826529161
% es.EX (V/m) @ t=0.58
6.617713408128893
% es.EY (V/m) @ t=0.58
-1.0140857278215467
% es.EZ (V/m) @ t=0.58
5.28683947422293
% es.tEX (V/m) @ t=0.58
6.617713408128923
% es.tEY (V/m) @ t=0.58
0
% es.tEZ (V/m) @ t=0.58
5.286839474222927
% es.Ex (V/m) @ t=0.58
6.617713408128893
% es.Ey (V/m) @ t=0.58
-1.0140857278215467
% es.Ez (V/m) @ t=0.58
5.28683947422293
% es.tEx (V/m) @ t=0.58
6.617713408128923
% es.tEy (V/m) @ t=0.58
0
% es.tEz (V/m) @ t=0.58
5.286839474222927
% V (V) @ t=0.58
0.007052947530250854
% es.normE (V/m) @ t=0.6
8.62268632283929
% es.EX (V/m) @ t=0.6
6.6815760785395835
% es.EY (V/m) @ t=0.6
-1.023857308493648
% es.EZ (V/m) @ t=0.6
5.337858493732931
% es.tEX (V/m) @ t=0.6
6.68157607853961
% es.tEY (V/m) @ t=0.6
0
% es.tEZ (V/m) @ t=0.6
5.337858493732923
% es.Ex (V/m) @ t=0.6
6.6815760785395835
% es.Ey (V/m) @ t=0.6
-1.023857308493648
% es.Ez (V/m) @ t=0.6
5.337858493732931
% es.tEx (V/m) @ t=0.6
6.68157607853961
% es.tEy (V/m) @ t=0.6
0
% es.tEz (V/m) @ t=0.6
5.337858493732923
% V (V) @ t=0.6
0.007120979601784978
% es.normE (V/m) @ t=0.62
8.705099819181608
% es.EX (V/m) @ t=0.62
6.745438748950308
% es.EY (V/m) @ t=0.62
-1.0336288891657315
% es.EZ (V/m) @ t=0.62
5.3888775132429405
% es.tEX (V/m) @ t=0.62
6.74543874895034
% es.tEY (V/m) @ t=0.62
0
% es.tEZ (V/m) @ t=0.62
5.388877513242933
% es.Ex (V/m) @ t=0.62
6.745438748950308
% es.Ey (V/m) @ t=0.62
-1.0336288891657315
% es.Ez (V/m) @ t=0.62
5.3888775132429405
% es.tEx (V/m) @ t=0.62
6.74543874895034
% es.tEy (V/m) @ t=0.62
0
% es.tEz (V/m) @ t=0.62
5.388877513242933
% V (V) @ t=0.62
0.007189011673319102
% es.normE (V/m) @ t=0.64
8.787513315555193
% es.EX (V/m) @ t=0.64
6.809301419361045
% es.EY (V/m) @ t=0.64
-1.0434004698378434
% es.EZ (V/m) @ t=0.64
5.439896532752945
% es.tEX (V/m) @ t=0.64
6.809301419361056
% es.tEY (V/m) @ t=0.64
0
% es.tEZ (V/m) @ t=0.64
5.439896532752942
% es.Ex (V/m) @ t=0.64
6.809301419361045
% es.Ey (V/m) @ t=0.64
-1.0434004698378434
% es.Ez (V/m) @ t=0.64
5.439896532752945
% es.tEx (V/m) @ t=0.64
6.809301419361056
% es.tEy (V/m) @ t=0.64
0
% es.tEz (V/m) @ t=0.64
5.439896532752942
% V (V) @ t=0.64
0.007257043744853226
% es.normE (V/m) @ t=0.66
8.869926811959168
% es.EX (V/m) @ t=0.66
6.873164089771781
% es.EY (V/m) @ t=0.66
-1.0531720505099358
% es.EZ (V/m) @ t=0.66
5.490915552262958
% es.tEX (V/m) @ t=0.66
6.873164089771814
% es.tEY (V/m) @ t=0.66
0
% es.tEZ (V/m) @ t=0.66
5.490915552262959
% es.Ex (V/m) @ t=0.66
6.873164089771781
% es.Ey (V/m) @ t=0.66
-1.0531720505099358
% es.Ez (V/m) @ t=0.66
5.490915552262958
% es.tEx (V/m) @ t=0.66
6.873164089771814
% es.tEy (V/m) @ t=0.66
0
% es.tEz (V/m) @ t=0.66
5.490915552262959
% V (V) @ t=0.66
0.007325075816387349
% es.normE (V/m) @ t=0.68
8.952340308392664
% es.EX (V/m) @ t=0.68
6.937026760182489
% es.EY (V/m) @ t=0.68
-1.0629436311820193
% es.EZ (V/m) @ t=0.68
5.541934571772966
% es.tEX (V/m) @ t=0.68
6.9370267601825155
% es.tEY (V/m) @ t=0.68
0
% es.tEZ (V/m) @ t=0.68
5.541934571772969
% es.Ex (V/m) @ t=0.68
6.937026760182489
% es.Ey (V/m) @ t=0.68
-1.0629436311820193
% es.Ez (V/m) @ t=0.68
5.541934571772966
% es.tEx (V/m) @ t=0.68
6.9370267601825155
% es.tEy (V/m) @ t=0.68
0
% es.tEz (V/m) @ t=0.68
5.541934571772969
% V (V) @ t=0.68
0.007393107887921472
% es.normE (V/m) @ t=0.7
9.034753804854901
% es.EX (V/m) @ t=0.7
7.000889430593204
% es.EY (V/m) @ t=0.7
-1.0727152118540975
% es.EZ (V/m) @ t=0.7
5.592953591282972
% es.tEX (V/m) @ t=0.7
7.000889430593231
% es.tEY (V/m) @ t=0.7
0
% es.tEZ (V/m) @ t=0.7
5.5929535912829715
% es.Ex (V/m) @ t=0.7
7.000889430593204
% es.Ey (V/m) @ t=0.7
-1.0727152118540975
% es.Ez (V/m) @ t=0.7
5.592953591282972
% es.tEx (V/m) @ t=0.7
7.000889430593231
% es.tEy (V/m) @ t=0.7
0
% es.tEz (V/m) @ t=0.7
5.5929535912829715
% V (V) @ t=0.7
0.007461139959455597
% es.normE (V/m) @ t=0.72
9.11716730134514
% es.EX (V/m) @ t=0.72
7.064752101003961
% es.EY (V/m) @ t=0.72
-1.0824867925261952
% es.EZ (V/m) @ t=0.72
5.643972610792984
% es.tEX (V/m) @ t=0.72
7.0647521010039895
% es.tEY (V/m) @ t=0.72
0
% es.tEZ (V/m) @ t=0.72
5.643972610792982
% es.Ex (V/m) @ t=0.72
7.064752101003961
% es.Ey (V/m) @ t=0.72
-1.0824867925261952
% es.Ez (V/m) @ t=0.72
5.643972610792984
% es.tEx (V/m) @ t=0.72
7.0647521010039895
% es.tEy (V/m) @ t=0.72
0
% es.tEz (V/m) @ t=0.72
5.643972610792982
% V (V) @ t=0.72
0.00752917203098972
% es.normE (V/m) @ t=0.74
9.19958079786253
% es.EX (V/m) @ t=0.74
7.128614771414662
% es.EY (V/m) @ t=0.74
-1.0922583731983089
% es.EZ (V/m) @ t=0.74
5.694991630302983
% es.tEX (V/m) @ t=0.74
7.128614771414691
% es.tEY (V/m) @ t=0.74
0
% es.tEZ (V/m) @ t=0.74
5.69499163030297
% es.Ex (V/m) @ t=0.74
7.128614771414662
% es.Ey (V/m) @ t=0.74
-1.0922583731983089
% es.Ez (V/m) @ t=0.74
5.694991630302983
% es.tEx (V/m) @ t=0.74
7.128614771414691
% es.tEy (V/m) @ t=0.74
0
% es.tEz (V/m) @ t=0.74
5.69499163030297
% V (V) @ t=0.74
0.007597204102523843
% es.normE (V/m) @ t=0.76
9.28199429440641
% es.EX (V/m) @ t=0.76
7.192477441825362
% es.EY (V/m) @ t=0.76
-1.102029953870387
% es.EZ (V/m) @ t=0.76
5.746010649812992
% es.tEX (V/m) @ t=0.76
7.1924774418253925
% es.tEY (V/m) @ t=0.76
0
% es.tEZ (V/m) @ t=0.76
5.746010649812995
% es.Ex (V/m) @ t=0.76
7.192477441825362
% es.Ey (V/m) @ t=0.76
-1.102029953870387
% es.Ez (V/m) @ t=0.76
5.746010649812992
% es.tEx (V/m) @ t=0.76
7.1924774418253925
% es.tEy (V/m) @ t=0.76
0
% es.tEz (V/m) @ t=0.76
5.746010649812995
% V (V) @ t=0.76
0.007665236174057968
% es.normE (V/m) @ t=0.78
9.364407790976077
% es.EX (V/m) @ t=0.78
7.25634011223607
% es.EY (V/m) @ t=0.78
-1.1118015345425079
% es.EZ (V/m) @ t=0.78
5.797029669322997
% es.tEX (V/m) @ t=0.78
7.256340112236108
% es.tEY (V/m) @ t=0.78
0
% es.tEZ (V/m) @ t=0.78
5.797029669322983
% es.Ex (V/m) @ t=0.78
7.25634011223607
% es.Ey (V/m) @ t=0.78
-1.1118015345425079
% es.Ez (V/m) @ t=0.78
5.797029669322997
% es.tEx (V/m) @ t=0.78
7.256340112236108
% es.tEy (V/m) @ t=0.78
0
% es.tEz (V/m) @ t=0.78
5.797029669322983
% V (V) @ t=0.78
0.0077332682455920915
% es.normE (V/m) @ t=0.8
9.446821287570863
% es.EX (V/m) @ t=0.8
7.320202782646792
% es.EY (V/m) @ t=0.8
-1.1215731152145718
% es.EZ (V/m) @ t=0.8
5.848048688833002
% es.tEX (V/m) @ t=0.8
7.320202782646824
% es.tEY (V/m) @ t=0.8
0
% es.tEZ (V/m) @ t=0.8
5.848048688832986
% es.Ex (V/m) @ t=0.8
7.320202782646792
% es.Ey (V/m) @ t=0.8
-1.1215731152145718
% es.Ez (V/m) @ t=0.8
5.848048688833002
% es.tEx (V/m) @ t=0.8
7.320202782646824
% es.tEy (V/m) @ t=0.8
0
% es.tEz (V/m) @ t=0.8
5.848048688832986
% V (V) @ t=0.8
0.007801300317126215
% es.normE (V/m) @ t=0.82
9.529234784190134
% es.EX (V/m) @ t=0.82
7.384065453057542
% es.EY (V/m) @ t=0.82
-1.1313446958866624
% es.EZ (V/m) @ t=0.82
5.899067708343015
% es.tEX (V/m) @ t=0.82
7.384065453057568
% es.tEY (V/m) @ t=0.82
0
% es.tEZ (V/m) @ t=0.82
5.8990677083430025
% es.Ex (V/m) @ t=0.82
7.384065453057542
% es.Ey (V/m) @ t=0.82
-1.1313446958866624
% es.Ez (V/m) @ t=0.82
5.899067708343015
% es.tEx (V/m) @ t=0.82
7.384065453057568
% es.tEy (V/m) @ t=0.82
0
% es.tEz (V/m) @ t=0.82
5.8990677083430025
% V (V) @ t=0.82
0.007869332388660338
% es.normE (V/m) @ t=0.84
9.618715506460116
% es.EX (V/m) @ t=0.84
7.4534022946483205
% es.EY (V/m) @ t=0.84
-1.1419718068611875
% es.EZ (V/m) @ t=0.84
5.954460422639455
% es.tEX (V/m) @ t=0.84
7.453402294648343
% es.tEY (V/m) @ t=0.84
0
% es.tEZ (V/m) @ t=0.84
5.954460422639452
% es.Ex (V/m) @ t=0.84
7.4534022946483205
% es.Ey (V/m) @ t=0.84
-1.1419718068611875
% es.Ez (V/m) @ t=0.84
5.954460422639455
% es.tEx (V/m) @ t=0.84
7.453402294648343
% es.tEy (V/m) @ t=0.84
0
% es.tEz (V/m) @ t=0.84
5.954460422639452
% V (V) @ t=0.84
0.007943233723550512
% es.normE (V/m) @ t=0.86
9.711026321069362
% es.EX (V/m) @ t=0.86
7.524931284990284
% es.EY (V/m) @ t=0.86
-1.1529415175868252
% es.EZ (V/m) @ t=0.86
6.0116045965173805
% es.tEX (V/m) @ t=0.86
7.52493128499031
% es.tEY (V/m) @ t=0.86
0
% es.tEZ (V/m) @ t=0.86
6.01160459651738
% es.Ex (V/m) @ t=0.86
7.524931284990284
% es.Ey (V/m) @ t=0.86
-1.1529415175868252
% es.Ez (V/m) @ t=0.86
6.0116045965173805
% es.tEx (V/m) @ t=0.86
7.52493128499031
% es.tEy (V/m) @ t=0.86
0
% es.tEz (V/m) @ t=0.86
6.01160459651738
% V (V) @ t=0.86
0.008019485423073607
% es.normE (V/m) @ t=0.88
9.803337135693084
% es.EX (V/m) @ t=0.88
7.59646027533222
% es.EY (V/m) @ t=0.88
-1.1639112283124895
% es.EZ (V/m) @ t=0.88
6.06874877039532
% es.tEX (V/m) @ t=0.88
7.596460275332248
% es.tEY (V/m) @ t=0.88
0
% es.tEZ (V/m) @ t=0.88
6.068748770395314
% es.Ex (V/m) @ t=0.88
7.59646027533222
% es.Ey (V/m) @ t=0.88
-1.1639112283124895
% es.Ez (V/m) @ t=0.88
6.06874877039532
% es.tEx (V/m) @ t=0.88
7.596460275332248
% es.tEy (V/m) @ t=0.88
0
% es.tEz (V/m) @ t=0.88
6.068748770395314
% V (V) @ t=0.88
0.008095737122596702
% es.normE (V/m) @ t=0.9
9.895647950330925
% es.EX (V/m) @ t=0.9
7.667989265674205
% es.EY (V/m) @ t=0.9
-1.1748809390381574
% es.EZ (V/m) @ t=0.9
6.125892944273252
% es.tEX (V/m) @ t=0.9
7.6679892656742155
% es.tEY (V/m) @ t=0.9
0
% es.tEZ (V/m) @ t=0.9
6.125892944273235
% es.Ex (V/m) @ t=0.9
7.667989265674205
% es.Ey (V/m) @ t=0.9
-1.1748809390381574
% es.Ez (V/m) @ t=0.9
6.125892944273252
% es.tEx (V/m) @ t=0.9
7.6679892656742155
% es.tEy (V/m) @ t=0.9
0
% es.tEz (V/m) @ t=0.9
6.125892944273235
% V (V) @ t=0.9
0.0081719888221198
% es.normE (V/m) @ t=0.92
9.987958764982444
% es.EX (V/m) @ t=0.92
7.739518256016175
% es.EY (V/m) @ t=0.92
-1.1858506497637933
% es.EZ (V/m) @ t=0.92
6.183037118151174
% es.tEX (V/m) @ t=0.92
7.739518256016196
% es.tEY (V/m) @ t=0.92
0
% es.tEZ (V/m) @ t=0.92
6.183037118151184
% es.Ex (V/m) @ t=0.92
7.739518256016175
% es.Ey (V/m) @ t=0.92
-1.1858506497637933
% es.Ez (V/m) @ t=0.92
6.183037118151174
% es.tEx (V/m) @ t=0.92
7.739518256016196
% es.tEy (V/m) @ t=0.92
0
% es.tEz (V/m) @ t=0.92
6.183037118151184
% V (V) @ t=0.92
0.008248240521642894
% es.normE (V/m) @ t=0.94
10.080269579647274
% es.EX (V/m) @ t=0.94
7.811047246358124
% es.EY (V/m) @ t=0.94
-1.19682036048947
% es.EZ (V/m) @ t=0.94
6.240181292029106
% es.tEX (V/m) @ t=0.94
7.811047246358148
% es.tEY (V/m) @ t=0.94
0
% es.tEZ (V/m) @ t=0.94
6.240181292029105
% es.Ex (V/m) @ t=0.94
7.811047246358124
% es.Ey (V/m) @ t=0.94
-1.19682036048947
% es.Ez (V/m) @ t=0.94
6.240181292029106
% es.tEx (V/m) @ t=0.94
7.811047246358148
% es.tEy (V/m) @ t=0.94
0
% es.tEz (V/m) @ t=0.94
6.240181292029105
% V (V) @ t=0.94
0.008324492221165988
% es.normE (V/m) @ t=0.96
10.172580394325077
% es.EX (V/m) @ t=0.96
7.882576236700087
% es.EY (V/m) @ t=0.96
-1.2077900712151326
% es.EZ (V/m) @ t=0.96
6.297325465907053
% es.tEX (V/m) @ t=0.96
7.882576236700116
% es.tEY (V/m) @ t=0.96
0
% es.tEZ (V/m) @ t=0.96
6.29732546590704
% es.Ex (V/m) @ t=0.96
7.882576236700087
% es.Ey (V/m) @ t=0.96
-1.2077900712151326
% es.Ez (V/m) @ t=0.96
6.297325465907053
% es.tEx (V/m) @ t=0.96
7.882576236700116
% es.tEy (V/m) @ t=0.96
0
% es.tEz (V/m) @ t=0.96
6.29732546590704
% V (V) @ t=0.96
0.008400743920689084
% es.normE (V/m) @ t=0.98
10.264891209015484
% es.EX (V/m) @ t=0.98
7.954105227042065
% es.EY (V/m) @ t=0.98
-1.2187597819407863
% es.EZ (V/m) @ t=0.98
6.354469639784979
% es.tEX (V/m) @ t=0.98
7.954105227042069
% es.tEY (V/m) @ t=0.98
0
% es.tEZ (V/m) @ t=0.98
6.354469639784981
% es.Ex (V/m) @ t=0.98
7.954105227042065
% es.Ey (V/m) @ t=0.98
-1.2187597819407863
% es.Ez (V/m) @ t=0.98
6.354469639784979
% es.tEx (V/m) @ t=0.98
7.954105227042069
% es.tEy (V/m) @ t=0.98
0
% es.tEz (V/m) @ t=0.98
6.354469639784981
% V (V) @ t=0.98
0.00847699562021218
% es.normE (V/m) @ t=1
10.357202023718159
% es.EX (V/m) @ t=1
8.025634217384022
% es.EY (V/m) @ t=1
-1.2297294926664506
% es.EZ (V/m) @ t=1
6.411613813662925
% es.tEX (V/m) @ t=1
8.025634217384049
% es.tEY (V/m) @ t=1
0
% es.tEZ (V/m) @ t=1
6.411613813662917
% es.Ex (V/m) @ t=1
8.025634217384022
% es.Ey (V/m) @ t=1
-1.2297294926664506
% es.Ez (V/m) @ t=1
6.411613813662925
% es.tEx (V/m) @ t=1
8.025634217384049
% es.tEy (V/m) @ t=1
0
% es.tEz (V/m) @ t=1
6.411613813662917
% V (V) @ t=1
0.008553247319735275
% es.normE (V/m) @ t=1.02
10.449512838432742
% es.EX (V/m) @ t=1.02
8.097163207725957
% es.EY (V/m) @ t=1.02
-1.2406992033921327
% es.EZ (V/m) @ t=1.02
6.468757987540839
% es.tEX (V/m) @ t=1.02
8.097163207725973
% es.tEY (V/m) @ t=1.02
0
% es.tEZ (V/m) @ t=1.02
6.468757987540858
% es.Ex (V/m) @ t=1.02
8.097163207725957
% es.Ey (V/m) @ t=1.02
-1.2406992033921327
% es.Ez (V/m) @ t=1.02
6.468757987540839
% es.tEx (V/m) @ t=1.02
8.097163207725973
% es.tEy (V/m) @ t=1.02
0
% es.tEz (V/m) @ t=1.02
6.468757987540858
% V (V) @ t=1.02
0.00862949901925837
% es.normE (V/m) @ t=1.04
10.541823653158986
% es.EX (V/m) @ t=1.04
8.16869219806792
% es.EY (V/m) @ t=1.04
-1.2516689141178023
% es.EZ (V/m) @ t=1.04
6.525902161418772
% es.tEX (V/m) @ t=1.04
8.168692198067927
% es.tEY (V/m) @ t=1.04
0
% es.tEZ (V/m) @ t=1.04
6.525902161418786
% es.Ex (V/m) @ t=1.04
8.16869219806792
% es.Ey (V/m) @ t=1.04
-1.2516689141178023
% es.Ez (V/m) @ t=1.04
6.525902161418772
% es.tEx (V/m) @ t=1.04
8.168692198067927
% es.tEy (V/m) @ t=1.04
0
% es.tEz (V/m) @ t=1.04
6.525902161418786
% V (V) @ t=1.04
0.008705750718781465
% es.normE (V/m) @ t=1.06
10.63413446789653
% es.EX (V/m) @ t=1.06
8.240221188409848
% es.EY (V/m) @ t=1.06
-1.262638624843449
% es.EZ (V/m) @ t=1.06
6.583046335296704
% es.tEX (V/m) @ t=1.06
8.240221188409866
% es.tEY (V/m) @ t=1.06
0