% Model:              1 neuron.mph
% Version:            COMSOL 6.0.0.405
% Date:               Mar 16 2023, 17:27
% Dimension:          0
% Nodes:              14017
% Expressions:        14017
% Description:        Electric field norm, Electric field, X component, Electric field, Y component, Electric field, Z component, Tangential electric field, X component, Tangential electric field, Y component, Tangential electric field, Z component, Electric field, x component, Electric field, y component, Electric field, z component, Tangential electric field, x component, Tangential electric field, y component, Tangential electric field, z component, Electric potential
% Length unit:        mm
% x
1
% y
12.2
% z
1.33
% es.normE (V/m) @ t=0
1.476659968979533
% es.EX (V/m) @ t=0
1.3646268419671008
% es.EY (V/m) @ t=0
0.0859253598478813
% es.EZ (V/m) @ t=0
0.5516684190994918
% es.tEX (V/m) @ t=0
1.3646268419671044
% es.tEY (V/m) @ t=0
0
% es.tEZ (V/m) @ t=0
0.55166841909949
% es.Ex (V/m) @ t=0
1.3646268419671008
% es.Ey (V/m) @ t=0
0.0859253598478813
% es.Ez (V/m) @ t=0
0.5516684190994918
% es.tEx (V/m) @ t=0
1.3646268419671044
% es.tEy (V/m) @ t=0
0
% es.tEz (V/m) @ t=0
0.55166841909949
% V (V) @ t=0
0.007365817662213309
% es.normE (V/m) @ t=0.02
1.275416918346953
% es.EX (V/m) @ t=0.02
1.1786519561466102
% es.EY (V/m) @ t=0.02
0.07421522998100694
% es.EZ (V/m) @ t=0.02
0.4764856167544176
% es.tEX (V/m) @ t=0.02
1.1786519561466138
% es.tEY (V/m) @ t=0.02
0
% es.tEZ (V/m) @ t=0.02
0.47648561675441714
% es.Ex (V/m) @ t=0.02
1.1786519561466102
% es.Ey (V/m) @ t=0.02
0.07421522998100694
% es.Ez (V/m) @ t=0.02
0.4764856167544176
% es.tEx (V/m) @ t=0.02
1.1786519561466138
% es.tEy (V/m) @ t=0.02
0
% es.tEz (V/m) @ t=0.02
0.47648561675441714
% V (V) @ t=0.02
0.00636198487544482
% es.normE (V/m) @ t=0.04
1.2871455066502382
% es.EX (V/m) @ t=0.04
1.1894907032484943
% es.EY (V/m) @ t=0.04
0.07489771014566238
% es.EZ (V/m) @ t=0.04
0.4808673276314752
% es.tEX (V/m) @ t=0.04
1.1894907032484925
% es.tEY (V/m) @ t=0.04
0
% es.tEZ (V/m) @ t=0.04
0.4808673276314752
% es.Ex (V/m) @ t=0.04
1.1894907032484943
% es.Ey (V/m) @ t=0.04
0.07489771014566238
% es.Ez (V/m) @ t=0.04
0.4808673276314752
% es.tEx (V/m) @ t=0.04
1.1894907032484925
% es.tEy (V/m) @ t=0.04
0
% es.tEz (V/m) @ t=0.04
0.4808673276314752
% V (V) @ t=0.04
0.006420488698722216
% es.normE (V/m) @ t=0.06
1.2989801431280505
% es.EX (V/m) @ t=0.06
1.2004274486409736
% es.EY (V/m) @ t=0.06
0.07558637436998017
% es.EZ (V/m) @ t=0.06
0.48528866604096166
% es.tEX (V/m) @ t=0.06
1.2004274486409718
% es.tEY (V/m) @ t=0.06
0
% es.tEZ (V/m) @ t=0.06
0.48528866604095944
% es.Ex (V/m) @ t=0.06
1.2004274486409736
% es.Ey (V/m) @ t=0.06
0.07558637436998017
% es.Ez (V/m) @ t=0.06
0.48528866604096166
% es.tEx (V/m) @ t=0.06
1.2004274486409718
% es.tEy (V/m) @ t=0.06
0
% es.tEz (V/m) @ t=0.06
0.48528866604095944
% V (V) @ t=0.06
0.00647952086119109
% es.normE (V/m) @ t=0.08
1.3109946080997243
% es.EX (V/m) @ t=0.08
1.2115303852112307
% es.EY (V/m) @ t=0.08
0.07628548276958952
% es.EZ (V/m) @ t=0.08
0.4897771737479455
% es.tEX (V/m) @ t=0.08
1.2115303852112316
% es.tEY (V/m) @ t=0.08
0
% es.tEZ (V/m) @ t=0.08
0.48977717374794505
% es.Ex (V/m) @ t=0.08
1.2115303852112307
% es.Ey (V/m) @ t=0.08
0.07628548276958952
% es.Ez (V/m) @ t=0.08
0.4897771737479455
% es.tEx (V/m) @ t=0.08
1.2115303852112316
% es.tEy (V/m) @ t=0.08
0
% es.tEz (V/m) @ t=0.08
0.48977717374794505
% V (V) @ t=0.08
0.006539451008258614
% es.normE (V/m) @ t=0.1
1.3231358443791865
% es.EX (V/m) @ t=0.1
1.2227504793714683
% es.EY (V/m) @ t=0.1
0.0769919538609134
% es.EZ (V/m) @ t=0.1
0.49431303290353235
% es.tEX (V/m) @ t=0.1
1.2227504793714674
% es.tEY (V/m) @ t=0.1
0
% es.tEZ (V/m) @ t=0.1
0.49431303290353545
% es.Ex (V/m) @ t=0.1
1.2227504793714683
% es.Ey (V/m) @ t=0.1
0.0769919538609134
% es.Ez (V/m) @ t=0.1
0.49431303290353235
% es.tEx (V/m) @ t=0.1
1.2227504793714674
% es.tEy (V/m) @ t=0.1
0
% es.tEz (V/m) @ t=0.1
0.49431303290353545
% V (V) @ t=0.1
0.006600014195616363
% es.normE (V/m) @ t=0.12
1.3352770806586514
% es.EX (V/m) @ t=0.12
1.2339705735317015
% es.EY (V/m) @ t=0.12
0.07769842495224344
% es.EZ (V/m) @ t=0.12
0.49884889205913496
% es.tEX (V/m) @ t=0.12
1.233970573531706
% es.tEY (V/m) @ t=0.12
0
% es.tEZ (V/m) @ t=0.12
0.49884889205914007
% es.Ex (V/m) @ t=0.12
1.2339705735317015
% es.Ey (V/m) @ t=0.12
0.07769842495224344
% es.Ez (V/m) @ t=0.12
0.49884889205913496
% es.tEx (V/m) @ t=0.12
1.233970573531706
% es.tEy (V/m) @ t=0.12
0
% es.tEz (V/m) @ t=0.12
0.49884889205914007
% V (V) @ t=0.12
0.006660577382974112
% es.normE (V/m) @ t=0.14
1.3475369854102115
% es.EX (V/m) @ t=0.14
1.2453003296207807
% es.EY (V/m) @ t=0.14
0.07841181170281264
% es.EZ (V/m) @ t=0.14
0.5034290918014586
% es.tEX (V/m) @ t=0.14
1.245300329620779
% es.tEY (V/m) @ t=0.14
0
% es.tEZ (V/m) @ t=0.14
0.5034290918014608
% es.Ex (V/m) @ t=0.14
1.2453003296207807
% es.Ey (V/m) @ t=0.14
0.07841181170281264
% es.Ez (V/m) @ t=0.14
0.5034290918014586
% es.tEx (V/m) @ t=0.14
1.245300329620779
% es.tEy (V/m) @ t=0.14
0
% es.tEz (V/m) @ t=0.14
0.5034290918014608
% V (V) @ t=0.14
0.006721731994847284
% es.normE (V/m) @ t=0.16
1.3603266071202378
% es.EX (V/m) @ t=0.16
1.2571195989089352
% es.EY (V/m) @ t=0.16
0.07915606884310433
% es.EZ (V/m) @ t=0.16
0.5082072207858699
% es.tEX (V/m) @ t=0.16
1.2571195989089343
% es.tEY (V/m) @ t=0.16
0
% es.tEZ (V/m) @ t=0.16
0.5082072207858683
% es.Ex (V/m) @ t=0.16
1.2571195989089352
% es.Ey (V/m) @ t=0.16
0.07915606884310433
% es.Ez (V/m) @ t=0.16
0.5082072207858699
% es.tEx (V/m) @ t=0.16
1.2571195989089343
% es.tEy (V/m) @ t=0.16
0
% es.tEz (V/m) @ t=0.16
0.5082072207858683
% V (V) @ t=0.16
0.00678552663056118
% es.normE (V/m) @ t=0.18
1.3731162288302714
% es.EX (V/m) @ t=0.18
1.2689388681970937
% es.EY (V/m) @ t=0.18
0.07990032598339686
% es.EZ (V/m) @ t=0.18
0.5129853497702836
% es.tEX (V/m) @ t=0.18
1.2689388681970932
% es.tEY (V/m) @ t=0.18
0
% es.tEZ (V/m) @ t=0.18
0.5129853497702852
% es.Ex (V/m) @ t=0.18
1.2689388681970937
% es.Ey (V/m) @ t=0.18
0.07990032598339686
% es.Ez (V/m) @ t=0.18
0.5129853497702836
% es.tEx (V/m) @ t=0.18
1.2689388681970932
% es.tEy (V/m) @ t=0.18
0
% es.tEz (V/m) @ t=0.18
0.5129853497702852
% V (V) @ t=0.18
0.006849321266275073
% es.normE (V/m) @ t=0.2
1.3859058505403055
% es.EX (V/m) @ t=0.2
1.280758137485253
% es.EY (V/m) @ t=0.2
0.0806445831236885
% es.EZ (V/m) @ t=0.2
0.5177634787546919
% es.tEX (V/m) @ t=0.2
1.2807581374852521
% es.tEY (V/m) @ t=0.2
0
% es.tEZ (V/m) @ t=0.2
0.5177634787546936
% es.Ex (V/m) @ t=0.2
1.280758137485253
% es.Ey (V/m) @ t=0.2
0.0806445831236885
% es.Ez (V/m) @ t=0.2
0.5177634787546919
% es.tEx (V/m) @ t=0.2
1.2807581374852521
% es.tEy (V/m) @ t=0.2
0
% es.tEz (V/m) @ t=0.2
0.5177634787546936
% V (V) @ t=0.2
0.0069131159019889706
% es.normE (V/m) @ t=0.22
1.3986954722503375
% es.EX (V/m) @ t=0.22
1.2925774067734093
% es.EY (V/m) @ t=0.22
0.08138884026398463
% es.EZ (V/m) @ t=0.22
0.5225416077390963
% es.tEX (V/m) @ t=0.22
1.2925774067734075
% es.tEY (V/m) @ t=0.22
0
% es.tEZ (V/m) @ t=0.22
0.5225416077390981
% es.Ex (V/m) @ t=0.22
1.2925774067734093
% es.Ey (V/m) @ t=0.22
0.08138884026398463
% es.Ez (V/m) @ t=0.22
0.5225416077390963
% es.tEx (V/m) @ t=0.22
1.2925774067734075
% es.tEy (V/m) @ t=0.22
0
% es.tEz (V/m) @ t=0.22
0.5225416077390981
% V (V) @ t=0.22
0.006976910537702863
% es.normE (V/m) @ t=0.24
1.4114850939603787
% es.EX (V/m) @ t=0.24
1.3043966760615717
% es.EY (V/m) @ t=0.24
0.08213309740427971
% es.EZ (V/m) @ t=0.24
0.5273197367235052
% es.tEX (V/m) @ t=0.24
1.3043966760615744
% es.tEY (V/m) @ t=0.24
0
% es.tEZ (V/m) @ t=0.24
0.5273197367235047
% es.Ex (V/m) @ t=0.24
1.3043966760615717
% es.Ey (V/m) @ t=0.24
0.08213309740427971
% es.Ez (V/m) @ t=0.24
0.5273197367235052
% es.tEx (V/m) @ t=0.24
1.3043966760615744
% es.tEy (V/m) @ t=0.24
0
% es.tEz (V/m) @ t=0.24
0.5273197367235047
% V (V) @ t=0.24
0.00704070517341676
% es.normE (V/m) @ t=0.26
1.4242747156704196
% es.EX (V/m) @ t=0.26
1.3162159453497275
% es.EY (V/m) @ t=0.26
0.08287735454457412
% es.EZ (V/m) @ t=0.26
0.5320978657079238
% es.tEX (V/m) @ t=0.26
1.3162159453497289
% es.tEY (V/m) @ t=0.26
0
% es.tEZ (V/m) @ t=0.26
0.5320978657079234
% es.Ex (V/m) @ t=0.26
1.3162159453497275
% es.Ey (V/m) @ t=0.26
0.08287735454457412
% es.Ez (V/m) @ t=0.26
0.5320978657079238
% es.tEx (V/m) @ t=0.26
1.3162159453497289
% es.tEy (V/m) @ t=0.26
0
% es.tEz (V/m) @ t=0.26
0.5320978657079234
% V (V) @ t=0.26
0.007104499809130655
% es.normE (V/m) @ t=0.28
1.4376130594703023
% es.EX (V/m) @ t=0.28
1.3285423264334453
% es.EY (V/m) @ t=0.28
0.08365347444159343
% es.EZ (V/m) @ t=0.28
0.5370809480643279
% es.tEX (V/m) @ t=0.28
1.328542326433448
% es.tEY (V/m) @ t=0.28
0
% es.tEZ (V/m) @ t=0.28
0.5370809480643235
% es.Ex (V/m) @ t=0.28
1.3285423264334453
% es.Ey (V/m) @ t=0.28
0.08365347444159343
% es.Ez (V/m) @ t=0.28
0.5370809480643279
% es.tEx (V/m) @ t=0.28
1.328542326433448
% es.tEy (V/m) @ t=0.28
0
% es.tEz (V/m) @ t=0.28
0.5370809480643235
% V (V) @ t=0.28
0.007171034843155458
% es.normE (V/m) @ t=0.3
1.4518619933438481
% es.EX (V/m) @ t=0.3
1.3417102463868682
% es.EY (V/m) @ t=0.3
0.08448246975684903
% es.EZ (V/m) @ t=0.3
0.542404145224842
% es.tEX (V/m) @ t=0.3
1.3417102463868682
% es.tEY (V/m) @ t=0.3
0
% es.tEZ (V/m) @ t=0.3
0.5424041452248427
% es.Ex (V/m) @ t=0.3
1.3417102463868682
% es.Ey (V/m) @ t=0.3
0.08448246975684903
% es.Ez (V/m) @ t=0.3
0.542404145224842
% es.tEx (V/m) @ t=0.3
1.3417102463868682
% es.tEy (V/m) @ t=0.3
0
% es.tEz (V/m) @ t=0.3
0.5424041452248427
% V (V) @ t=0.3
0.0072421174970883516
% es.normE (V/m) @ t=0.32
1.4661109272174069
% es.EX (V/m) @ t=0.32
1.354878166340285
% es.EY (V/m) @ t=0.32
0.08531146507210458
% es.EZ (V/m) @ t=0.32
0.5477273423853468
% es.tEX (V/m) @ t=0.32
1.354878166340292
% es.tEY (V/m) @ t=0.32
0
% es.tEZ (V/m) @ t=0.32
0.5477273423853433
% es.Ex (V/m) @ t=0.32
1.354878166340285
% es.Ey (V/m) @ t=0.32
0.08531146507210458
% es.Ez (V/m) @ t=0.32
0.5477273423853468
% es.tEx (V/m) @ t=0.32
1.354878166340292
% es.tEy (V/m) @ t=0.32
0
% es.tEz (V/m) @ t=0.32
0.5477273423853433
% V (V) @ t=0.32
0.007313200151021244
% es.normE (V/m) @ t=0.34
1.4803598610909936
% es.EX (V/m) @ t=0.34
1.3680460862937052
% es.EY (V/m) @ t=0.34
0.08614046038736206
% es.EZ (V/m) @ t=0.34
0.5530505395458603
% es.tEX (V/m) @ t=0.34
1.3680460862937043
% es.tEY (V/m) @ t=0.34
0
% es.tEZ (V/m) @ t=0.34
0.5530505395458611
% es.Ex (V/m) @ t=0.34
1.3680460862937052
% es.Ey (V/m) @ t=0.34
0.08614046038736206
% es.Ez (V/m) @ t=0.34
0.5530505395458603
% es.tEx (V/m) @ t=0.34
1.3680460862937043
% es.tEy (V/m) @ t=0.34
0
% es.tEz (V/m) @ t=0.34
0.5530505395458611
% V (V) @ t=0.34
0.007384282804954136
% es.normE (V/m) @ t=0.36
1.4946087949646052
% es.EX (V/m) @ t=0.36
1.3812140062471308
% es.EY (V/m) @ t=0.36
0.08696945570261855
% es.EZ (V/m) @ t=0.36
0.5583737367063737
% es.tEX (V/m) @ t=0.36
1.3812140062471299
% es.tEY (V/m) @ t=0.36
0
% es.tEZ (V/m) @ t=0.36
0.5583737367063719
% es.Ex (V/m) @ t=0.36
1.3812140062471308
% es.Ey (V/m) @ t=0.36
0.08696945570261855
% es.Ez (V/m) @ t=0.36
0.5583737367063737
% es.tEx (V/m) @ t=0.36
1.3812140062471299
% es.tEy (V/m) @ t=0.36
0
% es.tEz (V/m) @ t=0.36
0.5583737367063719
% V (V) @ t=0.36
0.0074553654588870285
% es.normE (V/m) @ t=0.38
1.5088577288382325
% es.EX (V/m) @ t=0.38
1.394381926200552
% es.EY (V/m) @ t=0.38
0.08779845101787592
% es.EZ (V/m) @ t=0.38
0.5636969338668871
% es.tEX (V/m) @ t=0.38
1.3943819262005581
% es.tEY (V/m) @ t=0.38
0
% es.tEZ (V/m) @ t=0.38
0.5636969338668862
% es.Ex (V/m) @ t=0.38
1.394381926200552
% es.Ey (V/m) @ t=0.38
0.08779845101787592
% es.Ez (V/m) @ t=0.38
0.5636969338668871
% es.tEx (V/m) @ t=0.38
1.3943819262005581
% es.tEy (V/m) @ t=0.38
0
% es.tEz (V/m) @ t=0.38
0.5636969338668862
% V (V) @ t=0.38
0.007526448112819922
% es.normE (V/m) @ t=0.4
1.5231066627118783
% es.EX (V/m) @ t=0.4
1.4075498461539695
% es.EY (V/m) @ t=0.4
0.08862744633313241
% es.EZ (V/m) @ t=0.4
0.5690201310274068
% es.tEX (V/m) @ t=0.4
1.4075498461539686
% es.tEY (V/m) @ t=0.4
0
% es.tEZ (V/m) @ t=0.4
0.5690201310274059
% es.Ex (V/m) @ t=0.4
1.4075498461539695
% es.Ey (V/m) @ t=0.4
0.08862744633313241
% es.Ez (V/m) @ t=0.4
0.5690201310274068
% es.tEx (V/m) @ t=0.4
1.4075498461539686
% es.tEy (V/m) @ t=0.4
0
% es.tEz (V/m) @ t=0.4
0.5690201310274059
% V (V) @ t=0.4
0.007597530766752814
% es.normE (V/m) @ t=0.42
1.5373555965855532
% es.EX (V/m) @ t=0.42
1.4207177661074057
% es.EY (V/m) @ t=0.42
0.08945644164839067
% es.EZ (V/m) @ t=0.42
0.57434332818791
% es.tEX (V/m) @ t=0.42
1.4207177661074084
% es.tEY (V/m) @ t=0.42
0
% es.tEZ (V/m) @ t=0.42
0.5743433281879109
% es.Ex (V/m) @ t=0.42
1.4207177661074057
% es.Ey (V/m) @ t=0.42
0.08945644164839067
% es.Ez (V/m) @ t=0.42
0.57434332818791
% es.tEx (V/m) @ t=0.42
1.4207177661074084
% es.tEy (V/m) @ t=0.42
0
% es.tEz (V/m) @ t=0.42
0.5743433281879109
% V (V) @ t=0.42
0.007668613420685706
% es.normE (V/m) @ t=0.44
1.5516045304592345
% es.EX (V/m) @ t=0.44
1.4338856860608216
% es.EY (V/m) @ t=0.44
0.0902854369636481
% es.EZ (V/m) @ t=0.44
0.5796665253484288
% es.tEX (V/m) @ t=0.44
1.4338856860608251
% es.tEY (V/m) @ t=0.44
0
% es.tEZ (V/m) @ t=0.44
0.5796665253484288
% es.Ex (V/m) @ t=0.44
1.4338856860608216
% es.Ey (V/m) @ t=0.44
0.0902854369636481
% es.Ez (V/m) @ t=0.44
0.5796665253484288
% es.tEx (V/m) @ t=0.44
1.4338856860608251
% es.tEy (V/m) @ t=0.44
0
% es.tEz (V/m) @ t=0.44
0.5796665253484288
% V (V) @ t=0.44
0.007739696074618599
% es.normE (V/m) @ t=0.46
1.5658534643329358
% es.EX (V/m) @ t=0.46
1.4470536060142427
% es.EY (V/m) @ t=0.46
0.0911144322789037
% es.EZ (V/m) @ t=0.46
0.5849897225089404
% es.tEX (V/m) @ t=0.46
1.4470536060142463
% es.tEY (V/m) @ t=0.46
0
% es.tEZ (V/m) @ t=0.46
0.5849897225089395
% es.Ex (V/m) @ t=0.46
1.4470536060142427
% es.Ey (V/m) @ t=0.46
0.0911144322789037
% es.Ez (V/m) @ t=0.46
0.5849897225089404
% es.tEx (V/m) @ t=0.46
1.4470536060142463
% es.tEy (V/m) @ t=0.46
0
% es.tEz (V/m) @ t=0.46
0.5849897225089395
% V (V) @ t=0.46
0.007810778728551492
% es.normE (V/m) @ t=0.48
1.5801023982066584
% es.EX (V/m) @ t=0.48
1.4602215259676674
% es.EY (V/m) @ t=0.48
0.09194342759415486
% es.EZ (V/m) @ t=0.48
0.5903129196694559
% es.tEX (V/m) @ t=0.48
1.4602215259676683
% es.tEY (V/m) @ t=0.48
0
% es.tEZ (V/m) @ t=0.48
0.5903129196694539
% es.Ex (V/m) @ t=0.48
1.4602215259676674
% es.Ey (V/m) @ t=0.48
0.09194342759415486
% es.Ez (V/m) @ t=0.48
0.5903129196694559
% es.tEx (V/m) @ t=0.48
1.4602215259676683
% es.tEy (V/m) @ t=0.48
0
% es.tEz (V/m) @ t=0.48
0.5903129196694539
% V (V) @ t=0.48
0.007881861382484385
% es.normE (V/m) @ t=0.5
1.5943513320803988
% es.EX (V/m) @ t=0.5
1.4733894459210948
% es.EY (V/m) @ t=0.5
0.09277242290942028
% es.EZ (V/m) @ t=0.5
0.5956361168299673
% es.tEX (V/m) @ t=0.5
1.4733894459210903
% es.tEY (V/m) @ t=0.5
0
% es.tEZ (V/m) @ t=0.5
0.5956361168299646
% es.Ex (V/m) @ t=0.5
1.4733894459210948
% es.Ey (V/m) @ t=0.5
0.09277242290942028
% es.Ez (V/m) @ t=0.5
0.5956361168299673
% es.tEx (V/m) @ t=0.5
1.4733894459210903
% es.tEy (V/m) @ t=0.5
0
% es.tEz (V/m) @ t=0.5
0.5956361168299646
% V (V) @ t=0.5
0.007952944036417277
% es.normE (V/m) @ t=0.52
1.6086002659541476
% es.EX (V/m) @ t=0.52
1.4865573658745168
% es.EY (V/m) @ t=0.52
0.09360141822467144
% es.EZ (V/m) @ t=0.52
0.6009593139904692
% es.tEX (V/m) @ t=0.52
1.4865573658745195
% es.tEY (V/m) @ t=0.52
0
% es.tEZ (V/m) @ t=0.52
0.6009593139904701
% es.Ex (V/m) @ t=0.52
1.4865573658745168
% es.Ey (V/m) @ t=0.52
0.09360141822467144
% es.Ez (V/m) @ t=0.52
0.6009593139904692
% es.tEx (V/m) @ t=0.52
1.4865573658745195
% es.tEy (V/m) @ t=0.52
0
% es.tEz (V/m) @ t=0.52
0.6009593139904701
% V (V) @ t=0.52
0.00802402669035017
% es.normE (V/m) @ t=0.54
1.6228491998279186
% es.EX (V/m) @ t=0.54
1.4997252858279362
% es.EY (V/m) @ t=0.54
0.09443041353992981
% es.EZ (V/m) @ t=0.54
0.6062825111509946
% es.tEX (V/m) @ t=0.54
1.4997252858279344
% es.tEY (V/m) @ t=0.54
0
% es.tEZ (V/m) @ t=0.54
0.6062825111509902
% es.Ex (V/m) @ t=0.54
1.4997252858279362
% es.Ey (V/m) @ t=0.54
0.09443041353992981
% es.Ez (V/m) @ t=0.54
0.6062825111509946
% es.tEx (V/m) @ t=0.54
1.4997252858279344
% es.tEy (V/m) @ t=0.54
0
% es.tEz (V/m) @ t=0.54
0.6062825111509902
% V (V) @ t=0.54
0.008095109344283062
% es.normE (V/m) @ t=0.56
1.6383570386123272
% es.EX (V/m) @ t=0.56
1.514056412106283
% es.EY (V/m) @ t=0.56
0.09533326145489435
% es.EZ (V/m) @ t=0.56
0.6120764258319156
% es.tEX (V/m) @ t=0.56
1.5140564121062834
% es.tEY (V/m) @ t=0.56
0
% es.tEZ (V/m) @ t=0.56
0.6120764258319129
% es.Ex (V/m) @ t=0.56
1.514056412106283
% es.Ey (V/m) @ t=0.56
0.09533326145489435
% es.Ez (V/m) @ t=0.56
0.6120764258319156
% es.tEx (V/m) @ t=0.56
1.5140564121062834
% es.tEy (V/m) @ t=0.56
0
% es.tEz (V/m) @ t=0.56
0.6120764258319129
% V (V) @ t=0.56
0.008172442247826239
% es.normE (V/m) @ t=0.58
1.6542580795485693
% es.EX (V/m) @ t=0.58
1.5287508503597134
% es.EY (V/m) @ t=0.58
0.0962591762439498
% es.EZ (V/m) @ t=0.58
0.6180173628496299
% es.tEX (V/m) @ t=0.58
1.528750850359713
% es.tEY (V/m) @ t=0.58
0
% es.tEZ (V/m) @ t=0.58
0.6180173628496255
% es.Ex (V/m) @ t=0.58
1.5287508503597134
% es.Ey (V/m) @ t=0.58
0.0962591762439498
% es.Ez (V/m) @ t=0.58
0.6180173628496299
% es.tEx (V/m) @ t=0.58
1.528750850359713
% es.tEy (V/m) @ t=0.58
0
% es.tEz (V/m) @ t=0.58
0.6180173628496255
% V (V) @ t=0.58
0.008251727333438864
% es.normE (V/m) @ t=0.6
1.6701591204852448
% es.EX (V/m) @ t=0.6
1.5434452886131464
% es.EY (V/m) @ t=0.6
0.09718509103301609
% es.EZ (V/m) @ t=0.6
0.6239582998673332
% es.tEX (V/m) @ t=0.6
1.5434452886131487
% es.tEY (V/m) @ t=0.6
0
% es.tEZ (V/m) @ t=0.6
0.6239582998673341
% es.Ex (V/m) @ t=0.6
1.5434452886131464
% es.Ey (V/m) @ t=0.6
0.09718509103301609
% es.Ez (V/m) @ t=0.6
0.6239582998673332
% es.tEx (V/m) @ t=0.6
1.5434452886131487
% es.tEy (V/m) @ t=0.6
0
% es.tEz (V/m) @ t=0.6
0.6239582998673341
% V (V) @ t=0.6
0.008331012419051492
% es.normE (V/m) @ t=0.62
1.686060161422336
% es.EX (V/m) @ t=0.62
1.5581397268665702
% es.EY (V/m) @ t=0.62
0.09811100582208754
% es.EZ (V/m) @ t=0.62
0.6298992368850405
% es.tEX (V/m) @ t=0.62
1.5581397268665684
% es.tEY (V/m) @ t=0.62
0
% es.tEZ (V/m) @ t=0.62
0.6298992368850431
% es.Ex (V/m) @ t=0.62
1.5581397268665702
% es.Ey (V/m) @ t=0.62
0.09811100582208754
% es.Ez (V/m) @ t=0.62
0.6298992368850405
% es.tEx (V/m) @ t=0.62
1.5581397268665684
% es.tEy (V/m) @ t=0.62
0
% es.tEz (V/m) @ t=0.62
0.6298992368850431
% V (V) @ t=0.62
0.008410297504664117
% es.normE (V/m) @ t=0.64
1.701961202359829
% es.EX (V/m) @ t=0.64
1.5728341651199935
% es.EY (V/m) @ t=0.64
0.09903692061114311
% es.EZ (V/m) @ t=0.64
0.6358401739027282
% es.tEX (V/m) @ t=0.64
1.57283416511999
% es.tEY (V/m) @ t=0.64
0
% es.tEZ (V/m) @ t=0.64
0.6358401739027344
% es.Ex (V/m) @ t=0.64
1.5728341651199935
% es.Ey (V/m) @ t=0.64
0.09903692061114311
% es.Ez (V/m) @ t=0.64
0.6358401739027282
% es.tEx (V/m) @ t=0.64
1.57283416511999
% es.tEy (V/m) @ t=0.64
0
% es.tEz (V/m) @ t=0.64
0.6358401739027344
% V (V) @ t=0.64
0.008489582590276743
% es.normE (V/m) @ t=0.66
1.7178622432977444
% es.EX (V/m) @ t=0.66
1.5875286033734257
% es.EY (V/m) @ t=0.66
0.09996283540021023
% es.EZ (V/m) @ t=0.66
0.6417811109204556
% es.tEX (V/m) @ t=0.66
1.5875286033734257
% es.tEY (V/m) @ t=0.66
0
% es.tEZ (V/m) @ t=0.66
0.6417811109204559
% es.Ex (V/m) @ t=0.66
1.5875286033734257
% es.Ey (V/m) @ t=0.66
0.09996283540021023
% es.Ez (V/m) @ t=0.66
0.6417811109204556
% es.tEx (V/m) @ t=0.66
1.5875286033734257
% es.tEy (V/m) @ t=0.66
0
% es.tEz (V/m) @ t=0.66
0.6417811109204559
% V (V) @ t=0.66
0.008568867675889373
% es.normE (V/m) @ t=0.68
1.733763284236025
% es.EX (V/m) @ t=0.68
1.6022230416268508
% es.EY (V/m) @ t=0.68
0.1008887501892809
% es.EZ (V/m) @ t=0.68
0.6477220479381414
% es.tEX (V/m) @ t=0.68
1.6022230416268508
% es.tEY (V/m) @ t=0.68
0
% es.tEZ (V/m) @ t=0.68
0.6477220479381431
% es.Ex (V/m) @ t=0.68
1.6022230416268508
% es.Ey (V/m) @ t=0.68
0.1008887501892809
% es.Ez (V/m) @ t=0.68
0.6477220479381414
% es.tEx (V/m) @ t=0.68
1.6022230416268508
% es.tEy (V/m) @ t=0.68
0
% es.tEz (V/m) @ t=0.68
0.6477220479381431
% V (V) @ t=0.68
0.008648152761502001
% es.normE (V/m) @ t=0.7
1.7496643251746948
% es.EX (V/m) @ t=0.7
1.616917479880276
% es.EY (V/m) @ t=0.7
0.10181466497835756
% es.EZ (V/m) @ t=0.7
0.6536629849558531
% es.tEX (V/m) @ t=0.7
1.6169174798802688
% es.tEY (V/m) @ t=0.7
0
% es.tEZ (V/m) @ t=0.7
0.653662984955854
% es.Ex (V/m) @ t=0.7
1.616917479880276
% es.Ey (V/m) @ t=0.7
0.10181466497835756
% es.Ez (V/m) @ t=0.7
0.6536629849558531
% es.tEx (V/m) @ t=0.7
1.6169174798802688
% es.tEy (V/m) @ t=0.7
0
% es.tEz (V/m) @ t=0.7
0.653662984955854
% V (V) @ t=0.7
0.008727437847114626
% es.normE (V/m) @ t=0.72
1.7655653661137252
% es.EX (V/m) @ t=0.72
1.631611918133701
% es.EY (V/m) @ t=0.72
0.10274057976741047
% es.EZ (V/m) @ t=0.72
0.6596039219735532
% es.tEX (V/m) @ t=0.72
1.6316119181337045
% es.tEY (V/m) @ t=0.72
0
% es.tEZ (V/m) @ t=0.72
0.6596039219735559
% es.Ex (V/m) @ t=0.72
1.631611918133701
% es.Ey (V/m) @ t=0.72
0.10274057976741047
% es.Ez (V/m) @ t=0.72
0.6596039219735532
% es.tEx (V/m) @ t=0.72
1.6316119181337045
% es.tEy (V/m) @ t=0.72
0
% es.tEz (V/m) @ t=0.72
0.6596039219735559
% V (V) @ t=0.72
0.008806722932727254
% es.normE (V/m) @ t=0.74
1.7814664070531094
% es.EX (V/m) @ t=0.74
1.6463063563871208
% es.EY (V/m) @ t=0.74
0.10366649455647658
% es.EZ (V/m) @ t=0.74
0.6655448589912543
% es.tEX (V/m) @ t=0.74
1.6463063563871208
% es.tEY (V/m) @ t=0.74
0
% es.tEZ (V/m) @ t=0.74
0.6655448589912534
% es.Ex (V/m) @ t=0.74
1.6463063563871208
% es.Ey (V/m) @ t=0.74
0.10366649455647658
% es.Ez (V/m) @ t=0.74
0.6655448589912543
% es.tEx (V/m) @ t=0.74
1.6463063563871208
% es.tEy (V/m) @ t=0.74
0
% es.tEz (V/m) @ t=0.74
0.6655448589912534
% V (V) @ t=0.74
0.00888600801833988
% es.normE (V/m) @ t=0.76
1.7973674479928556
% es.EX (V/m) @ t=0.76
1.6610007946405494
% es.EY (V/m) @ t=0.76
0.10459240934554725
% es.EZ (V/m) @ t=0.76
0.6714857960089713
% es.tEX (V/m) @ t=0.76
1.6610007946405458
% es.tEY (V/m) @ t=0.76
0
% es.tEZ (V/m) @ t=0.76
0.6714857960089713
% es.Ex (V/m) @ t=0.76
1.6610007946405494
% es.Ey (V/m) @ t=0.76
0.10459240934554725
% es.Ez (V/m) @ t=0.76
0.6714857960089713
% es.tEx (V/m) @ t=0.76
1.6610007946405458
% es.tEy (V/m) @ t=0.76
0
% es.tEz (V/m) @ t=0.76
0.6714857960089713
% V (V) @ t=0.76
0.008965293103952507
% es.normE (V/m) @ t=0.78
1.8132684889329274
% es.EX (V/m) @ t=0.78
1.6756952328939763
% es.EY (V/m) @ t=0.78
0.10551832413460482
% es.EZ (V/m) @ t=0.78
0.6774267330266568
% es.tEX (V/m) @ t=0.78
1.6756952328939692
% es.tEY (V/m) @ t=0.78
0
% es.tEZ (V/m) @ t=0.78
0.6774267330266577
% es.Ex (V/m) @ t=0.78
1.6756952328939763
% es.Ey (V/m) @ t=0.78
0.10551832413460482
% es.Ez (V/m) @ t=0.78
0.6774267330266568
% es.tEx (V/m) @ t=0.78
1.6756952328939692
% es.tEy (V/m) @ t=0.78
0
% es.tEz (V/m) @ t=0.78
0.6774267330266577
% V (V) @ t=0.78
0.009044578189565132
% es.normE (V/m) @ t=0.8
1.829169529873334
% es.EX (V/m) @ t=0.8
1.6903896711473982
% es.EY (V/m) @ t=0.8
0.10644423892367083
% es.EZ (V/m) @ t=0.8
0.6833676700443692
% es.tEX (V/m) @ t=0.8
1.690389671147405
% es.tEY (V/m) @ t=0.8
0
% es.tEZ (V/m) @ t=0.8
0.6833676700443703
% es.Ex (V/m) @ t=0.8
1.6903896711473982
% es.Ey (V/m) @ t=0.8
0.10644423892367083
% es.Ez (V/m) @ t=0.8
0.6833676700443692
% es.tEx (V/m) @ t=0.8
1.690389671147405
% es.tEy (V/m) @ t=0.8
0
% es.tEz (V/m) @ t=0.8
0.6833676700443703
% V (V) @ t=0.8
0.00912386327517776
% es.normE (V/m) @ t=0.82
1.8453486728626642
% es.EX (V/m) @ t=0.82
1.7053411234126123
% es.EY (V/m) @ t=0.82
0.10738629974109681
% es.EZ (V/m) @ t=0.82
0.6894124793434402
% es.tEX (V/m) @ t=0.82
1.705341123412616
% es.tEY (V/m) @ t=0.82
0
% es.tEZ (V/m) @ t=0.82
0.6894124793434391
% es.Ex (V/m) @ t=0.82
1.7053411234126123
% es.Ey (V/m) @ t=0.82
0.10738629974109681
% es.Ez (V/m) @ t=0.82
0.6894124793434402
% es.tEx (V/m) @ t=0.82
1.705341123412616
% es.tEy (V/m) @ t=0.82
0
% es.tEz (V/m) @ t=0.82
0.6894124793434391
% V (V) @ t=0.82
0.009204537368928897
% es.normE (V/m) @ t=0.84
1.8631289722647044
% es.EX (V/m) @ t=0.84
1.7217723189416771
% es.EY (V/m) @ t=0.84
0.10842132038018493
% es.EZ (V/m) @ t=0.84
0.6960553272770111
% es.tEX (V/m) @ t=0.84
1.7217723189416674
% es.tEY (V/m) @ t=0.84
0
% es.tEZ (V/m) @ t=0.84
0.696055327277012
% es.Ex (V/m) @ t=0.84
1.7217723189416771
% es.Ey (V/m) @ t=0.84
0.10842132038018493
% es.Ez (V/m) @ t=0.84
0.6960553272770111
% es.tEx (V/m) @ t=0.84
1.7217723189416674
% es.tEy (V/m) @ t=0.84
0
% es.tEz (V/m) @ t=0.84
0.696055327277012
% V (V) @ t=0.84
0.009293208596462961
% es.normE (V/m) @ t=0.86
1.8809092716668554
% es.EX (V/m) @ t=0.86
1.7382035144707535
% es.EY (V/m) @ t=0.86
0.10945634101927582
% es.EZ (V/m) @ t=0.86
0.7026981752105852
% es.tEX (V/m) @ t=0.86
1.7382035144707544
% es.tEY (V/m) @ t=0.86
0
% es.tEZ (V/m) @ t=0.86
0.7026981752105832
% es.Ex (V/m) @ t=0.86
1.7382035144707535
% es.Ey (V/m) @ t=0.86
0.10945634101927582
% es.Ez (V/m) @ t=0.86
0.7026981752105852
% es.tEx (V/m) @ t=0.86
1.7382035144707544
% es.tEy (V/m) @ t=0.86
0
% es.tEz (V/m) @ t=0.86
0.7026981752105832
% V (V) @ t=0.86
0.009381879823997023
% es.normE (V/m) @ t=0.88
1.8986895710690845
% es.EX (V/m) @ t=0.88
1.7546347099998139
% es.EY (V/m) @ t=0.88
0.11049136165837026
% es.EZ (V/m) @ t=0.88
0.7093410231441566
% es.tEX (V/m) @ t=0.88
1.7546347099998112
% es.tEY (V/m) @ t=0.88
0
% es.tEZ (V/m) @ t=0.88
0.7093410231441566
% es.Ex (V/m) @ t=0.88
1.7546347099998139
% es.Ey (V/m) @ t=0.88
0.11049136165837026
% es.Ez (V/m) @ t=0.88
0.7093410231441566
% es.tEx (V/m) @ t=0.88
1.7546347099998112
% es.tEy (V/m) @ t=0.88
0
% es.tEz (V/m) @ t=0.88
0.7093410231441566
% V (V) @ t=0.88
0.009470551051531086
% es.normE (V/m) @ t=0.9
1.9164698704714178
% es.EX (V/m) @ t=0.9
1.771065905528884
% es.EY (V/m) @ t=0.9
0.11152638229745315
% es.EZ (V/m) @ t=0.9
0.7159838710777333
% es.tEX (V/m) @ t=0.9
1.7710659055288804
% es.tEY (V/m) @ t=0.9
0
% es.tEZ (V/m) @ t=0.9
0.7159838710777366
% es.Ex (V/m) @ t=0.9
1.771065905528884
% es.Ey (V/m) @ t=0.9
0.11152638229745315
% es.Ez (V/m) @ t=0.9
0.7159838710777333
% es.tEx (V/m) @ t=0.9
1.7710659055288804
% es.tEy (V/m) @ t=0.9
0
% es.tEz (V/m) @ t=0.9
0.7159838710777366
% V (V) @ t=0.9
0.009559222279065152
% es.normE (V/m) @ t=0.92
1.9342501698738173
% es.EX (V/m) @ t=0.92
1.7874971010579364
% es.EY (V/m) @ t=0.92
0.11256140293654049
% es.EZ (V/m) @ t=0.92
0.7226267190112905
% es.tEX (V/m) @ t=0.92
1.7874971010579301
% es.tEY (V/m) @ t=0.92
0
% es.tEZ (V/m) @ t=0.92
0.7226267190112923
% es.Ex (V/m) @ t=0.92
1.7874971010579364
% es.Ey (V/m) @ t=0.92
0.11256140293654049
% es.Ez (V/m) @ t=0.92
0.7226267190112905
% es.tEx (V/m) @ t=0.92
1.7874971010579301
% es.tEy (V/m) @ t=0.92
0
% es.tEz (V/m) @ t=0.92
0.7226267190112923
% V (V) @ t=0.92
0.009647893506599212
% es.normE (V/m) @ t=0.94
1.9520304692763226
% es.EX (V/m) @ t=0.94
1.8039282965870003
% es.EY (V/m) @ t=0.94
0.1135964235756276
% es.EZ (V/m) @ t=0.94
0.7292695669448701
% es.tEX (V/m) @ t=0.94
1.8039282965870083
% es.tEY (V/m) @ t=0.94
0
% es.tEZ (V/m) @ t=0.94
0.7292695669448719
% es.Ex (V/m) @ t=0.94
1.8039282965870003
% es.Ey (V/m) @ t=0.94
0.1135964235756276
% es.Ez (V/m) @ t=0.94
0.7292695669448701
% es.tEx (V/m) @ t=0.94
1.8039282965870083
% es.tEy (V/m) @ t=0.94
0
% es.tEz (V/m) @ t=0.94
0.7292695669448719
% V (V) @ t=0.94
0.009736564734133275
% es.normE (V/m) @ t=0.96
1.9698107686789195
% es.EX (V/m) @ t=0.96
1.820359492116073
% es.EY (V/m) @ t=0.96
0.11463144421471583
% es.EZ (V/m) @ t=0.96
0.7359124148784415
% es.tEX (V/m) @ t=0.96
1.820359492116065
% es.tEY (V/m) @ t=0.96
0
% es.tEZ (V/m) @ t=0.96
0.7359124148784417
% es.Ex (V/m) @ t=0.96
1.820359492116073
% es.Ey (V/m) @ t=0.96
0.11463144421471583
% es.Ez (V/m) @ t=0.96
0.7359124148784415
% es.tEx (V/m) @ t=0.96
1.820359492116065
% es.tEy (V/m) @ t=0.96
0
% es.tEz (V/m) @ t=0.96
0.7359124148784417
% V (V) @ t=0.96
0.00982523596166734
% es.normE (V/m) @ t=0.98
1.9875910680815918
% es.EX (V/m) @ t=0.98
1.8367906876451388
% es.EY (V/m) @ t=0.98
0.11566646485380416
% es.EZ (V/m) @ t=0.98
0.7425552628120116
% es.tEX (V/m) @ t=0.98
1.836790687645136
% es.tEY (V/m) @ t=0.98
0
% es.tEZ (V/m) @ t=0.98
0.7425552628120125
% es.Ex (V/m) @ t=0.98
1.8367906876451388
% es.Ey (V/m) @ t=0.98
0.11566646485380416
% es.Ez (V/m) @ t=0.98
0.7425552628120116
% es.tEx (V/m) @ t=0.98
1.836790687645136
% es.tEy (V/m) @ t=0.98
0
% es.tEz (V/m) @ t=0.98
0.7425552628120125
% V (V) @ t=0.98
0.009913907189201402
% es.normE (V/m) @ t=1
2.005371367484342
% es.EX (V/m) @ t=1
1.8532218831742044
% es.EY (V/m) @ t=1
0.11670148549289772
% es.EZ (V/m) @ t=1
0.7491981107455732
% es.tEX (V/m) @ t=1
1.8532218831741964
% es.tEY (V/m) @ t=1
0
% es.tEZ (V/m) @ t=1
0.749198110745577
% es.Ex (V/m) @ t=1
1.8532218831742044
% es.Ey (V/m) @ t=1
0.11670148549289772
% es.Ez (V/m) @ t=1
0.7491981107455732
% es.tEx (V/m) @ t=1
1.8532218831741964
% es.tEy (V/m) @ t=1
0
% es.tEz (V/m) @ t=1
0.749198110745577
% V (V) @ t=1
0.010002578416735464
% es.normE (V/m) @ t=1.02
2.023151666887176
% es.EX (V/m) @ t=1.02
1.869653078703272
% es.EY (V/m) @ t=1.02
0.11773650613198505
% es.EZ (V/m) @ t=1.02
0.7558409586791499
% es.tEX (V/m) @ t=1.02
1.8696530787032728
% es.tEY (V/m) @ t=1.02
0
% es.tEZ (V/m) @ t=1.02
0.7558409586791499
% es.Ex (V/m) @ t=1.02
1.869653078703272
% es.Ey (V/m) @ t=1.02
0.11773650613198505
% es.Ez (V/m) @ t=1.02
0.7558409586791499
% es.tEx (V/m) @ t=1.02
1.8696530787032728
% es.tEy (V/m) @ t=1.02
0
% es.tEz (V/m) @ t=1.02
0.7558409586791499
% V (V) @ t=1.02
0.010091249644269528
% es.normE (V/m) @ t=1.04
2.0409319662900773
% es.EX (V/m) @ t=1.04
1.886084274232327
% es.EY (V/m) @ t=1.04
0.11877152677107683
% es.EZ (V/m) @ t=1.04
0.7624838066127275
% es.tEX (V/m) @ t=1.04
1.8860842742323403
% es.tEY (V/m) @ t=1.04
0
% es.tEZ (V/m) @ t=1.04
0.7624838066127251
% es.Ex (V/m) @ t=1.04
1.886084274232327
% es.Ey (V/m) @ t=1.04
0.11877152677107683