% Model:              1 neuron.mph
% Version:            COMSOL 6.0.0.405
% Date:               Mar 16 2023, 17:21
% Dimension:          0
% Nodes:              14017
% Expressions:        14017
% Description:        Electric field norm, Electric field, X component, Electric field, Y component, Electric field, Z component, Tangential electric field, X component, Tangential electric field, Y component, Tangential electric field, Z component, Electric field, x component, Electric field, y component, Electric field, z component, Tangential electric field, x component, Tangential electric field, y component, Tangential electric field, z component, Electric potential
% Length unit:        mm
% x
2
% y
12.199999999999998
% z
2
% es.normE (V/m) @ t=0
0.7294850158790005
% es.EX (V/m) @ t=0
-0.5222441427198375
% es.EY (V/m) @ t=0
0.19888854972663883
% es.EZ (V/m) @ t=0
-0.4660229720983642
% es.tEX (V/m) @ t=0
-0.5222441427198374
% es.tEY (V/m) @ t=0
0
% es.tEZ (V/m) @ t=0
-0.4660229720983642
% es.Ex (V/m) @ t=0
-0.5222441427198375
% es.Ey (V/m) @ t=0
0.19888854972663883
% es.Ez (V/m) @ t=0
-0.4660229720983642
% es.tEx (V/m) @ t=0
-0.5222441427198374
% es.tEy (V/m) @ t=0
0
% es.tEz (V/m) @ t=0
-0.4660229720983642
% V (V) @ t=0
0.007423843188638249
% es.normE (V/m) @ t=0.02
0.6300704180777261
% es.EX (V/m) @ t=0.02
-0.45107243894357285
% es.EY (V/m) @ t=0.02
0.171783914997782
% es.EZ (V/m) @ t=0.02
-0.40251311868183315
% es.tEX (V/m) @ t=0.02
-0.4510724389435765
% es.tEY (V/m) @ t=0.02
0
% es.tEZ (V/m) @ t=0.02
-0.4025131186818305
% es.Ex (V/m) @ t=0.02
-0.45107243894357285
% es.Ey (V/m) @ t=0.02
0.171783914997782
% es.Ez (V/m) @ t=0.02
-0.40251311868183315
% es.tEx (V/m) @ t=0.02
-0.4510724389435765
% es.tEy (V/m) @ t=0.02
0
% es.tEz (V/m) @ t=0.02
-0.4025131186818305
% V (V) @ t=0.02
0.006412117961978418
% es.normE (V/m) @ t=0.04
0.6358659157776024
% es.EX (V/m) @ t=0.04
-0.4552214820991817
% es.EY (V/m) @ t=0.04
0.17336401288568193
% es.EZ (V/m) @ t=0.04
-0.40621550478665336
% es.tEX (V/m) @ t=0.04
-0.45522148209918245
% es.tEY (V/m) @ t=0.04
0
% es.tEZ (V/m) @ t=0.04
-0.4062155047866556
% es.Ex (V/m) @ t=0.04
-0.4552214820991817
% es.Ey (V/m) @ t=0.04
0.17336401288568193
% es.Ez (V/m) @ t=0.04
-0.40621550478665336
% es.tEx (V/m) @ t=0.04
-0.45522148209918245
% es.tEy (V/m) @ t=0.04
0
% es.tEz (V/m) @ t=0.04
-0.4062155047866556
% V (V) @ t=0.04
0.006471097758705714
% es.normE (V/m) @ t=0.06
0.6417141978375807
% es.EX (V/m) @ t=0.06
-0.4594083142596924
% es.EY (V/m) @ t=0.06
0.17495850074328523
% es.EZ (V/m) @ t=0.06
-0.4099516119724562
% es.tEX (V/m) @ t=0.06
-0.45940831425969586
% es.tEY (V/m) @ t=0.06
0
% es.tEZ (V/m) @ t=0.06
-0.409951611972458
% es.Ex (V/m) @ t=0.06
-0.4594083142596924
% es.Ey (V/m) @ t=0.06
0.17495850074328523
% es.Ez (V/m) @ t=0.06
-0.4099516119724562
% es.tEx (V/m) @ t=0.06
-0.45940831425969586
% es.tEy (V/m) @ t=0.06
0
% es.tEz (V/m) @ t=0.06
-0.409951611972458
% V (V) @ t=0.06
0.006530614770493258
% es.normE (V/m) @ t=0.08
0.6476504957880501
% es.EX (V/m) @ t=0.08
-0.4636581584829288
% es.EY (V/m) @ t=0.08
0.17657698166983193
% es.EZ (V/m) @ t=0.08
-0.4137439482729821
% es.tEX (V/m) @ t=0.08
-0.46365815848292624
% es.tEY (V/m) @ t=0.08
0
% es.tEZ (V/m) @ t=0.08
-0.4137439482729892
% es.Ex (V/m) @ t=0.08
-0.4636581584829288
% es.Ey (V/m) @ t=0.08
0.17657698166983193
% es.Ez (V/m) @ t=0.08
-0.4137439482729821
% es.tEx (V/m) @ t=0.08
-0.46365815848292624
% es.tEy (V/m) @ t=0.08
0
% es.tEz (V/m) @ t=0.08
-0.4137439482729892
% V (V) @ t=0.08
0.006591027616683127
% es.normE (V/m) @ t=0.1
0.6536505610372774
% es.EX (V/m) @ t=0.1
-0.4679536547924791
% es.EY (V/m) @ t=0.1
0.17821284551649041
% es.EZ (V/m) @ t=0.1
-0.41757702243047934
% es.tEX (V/m) @ t=0.1
-0.4679536547924763
% es.tEY (V/m) @ t=0.1
0
% es.tEZ (V/m) @ t=0.1
-0.41757702243047845
% es.Ex (V/m) @ t=0.1
-0.4679536547924791
% es.Ey (V/m) @ t=0.1
0.17821284551649041
% es.Ez (V/m) @ t=0.1
-0.41757702243047934
% es.tEx (V/m) @ t=0.1
-0.4679536547924763
% es.tEy (V/m) @ t=0.1
0
% es.tEz (V/m) @ t=0.1
-0.41757702243047845
% V (V) @ t=0.1
0.006652089492720465
% es.normE (V/m) @ t=0.12
0.659650626286511
% es.EX (V/m) @ t=0.12
-0.47224915110203547
% es.EY (V/m) @ t=0.12
0.17984870936316044
% es.EZ (V/m) @ t=0.12
-0.42141009658797524
% es.tEX (V/m) @ t=0.12
-0.472249151102035
% es.tEY (V/m) @ t=0.12
0
% es.tEZ (V/m) @ t=0.12
-0.42141009658797923
% es.Ex (V/m) @ t=0.12
-0.47224915110203547
% es.Ey (V/m) @ t=0.12
0.17984870936316044
% es.Ez (V/m) @ t=0.12
-0.42141009658797524
% es.tEx (V/m) @ t=0.12
-0.472249151102035
% es.tEy (V/m) @ t=0.12
0
% es.tEz (V/m) @ t=0.12
-0.42141009658797923
% V (V) @ t=0.12
0.006713151368757805
% es.normE (V/m) @ t=0.14
0.6657052094160665
% es.EX (V/m) @ t=0.14
-0.4765836768060038
% es.EY (V/m) @ t=0.14
0.18149943899291854
% es.EZ (V/m) @ t=0.14
-0.4252779982585855
% es.tEX (V/m) @ t=0.14
-0.476583676806001
% es.tEY (V/m) @ t=0.14
0
% es.tEZ (V/m) @ t=0.14
-0.42527799825858903
% es.Ex (V/m) @ t=0.14
-0.4765836768060038
% es.Ey (V/m) @ t=0.14
0.18149943899291854
% es.Ez (V/m) @ t=0.14
-0.4252779982585855
% es.tEx (V/m) @ t=0.14
-0.476583676806001
% es.tEy (V/m) @ t=0.14
0
% es.tEz (V/m) @ t=0.14
-0.42527799825858903
% V (V) @ t=0.14
0.006774768007974531
% es.normE (V/m) @ t=0.16
0.6720264428379297
% es.EX (V/m) @ t=0.16
-0.48110909766893395
% es.EY (V/m) @ t=0.16
0.18322287807844861
% es.EZ (V/m) @ t=0.16
-0.42931624342925145
% es.tEX (V/m) @ t=0.16
-0.4811090976689334
% es.tEY (V/m) @ t=0.16
0
% es.tEZ (V/m) @ t=0.16
-0.42931624342924835
% es.Ex (V/m) @ t=0.16
-0.48110909766893395
% es.Ey (V/m) @ t=0.16
0.18322287807844861
% es.Ez (V/m) @ t=0.16
-0.42931624342925145
% es.tEx (V/m) @ t=0.16
-0.4811090976689334
% es.tEy (V/m) @ t=0.16
0
% es.tEz (V/m) @ t=0.16
-0.42931624342924835
% V (V) @ t=0.16
0.006839098027884757
% es.normE (V/m) @ t=0.18
0.6783476762597911
% es.EX (V/m) @ t=0.18
-0.48563451853185413
% es.EY (V/m) @ t=0.18
0.18494631716397958
% es.EZ (V/m) @ t=0.18
-0.433354488599925
% es.tEX (V/m) @ t=0.18
-0.48563451853185313
% es.tEY (V/m) @ t=0.18
0
% es.tEZ (V/m) @ t=0.18
-0.4333544885999281
% es.Ex (V/m) @ t=0.18
-0.48563451853185413
% es.Ey (V/m) @ t=0.18
0.18494631716397958
% es.Ez (V/m) @ t=0.18
-0.433354488599925
% es.tEx (V/m) @ t=0.18
-0.48563451853185313
% es.tEy (V/m) @ t=0.18
0
% es.tEz (V/m) @ t=0.18
-0.4333544885999281
% V (V) @ t=0.18
0.006903428047794983
% es.normE (V/m) @ t=0.2
0.684668909681645
% es.EX (V/m) @ t=0.2
-0.4901599393947803
% es.EY (V/m) @ t=0.2
0.18666975624950188
% es.EZ (V/m) @ t=0.2
-0.4373927337705843
% es.tEX (V/m) @ t=0.2
-0.4901599393947784
% es.tEY (V/m) @ t=0.2
0
% es.tEZ (V/m) @ t=0.2
-0.43739273377058563
% es.Ex (V/m) @ t=0.2
-0.4901599393947803
% es.Ey (V/m) @ t=0.2
0.18666975624950188
% es.Ez (V/m) @ t=0.2
-0.4373927337705843
% es.tEx (V/m) @ t=0.2
-0.4901599393947784
% es.tEy (V/m) @ t=0.2
0
% es.tEz (V/m) @ t=0.2
-0.43739273377058563
% V (V) @ t=0.2
0.006967758067705206
% es.normE (V/m) @ t=0.22
0.6909901431035138
% es.EX (V/m) @ t=0.22
-0.4946853602577149
% es.EY (V/m) @ t=0.22
0.18839319533502352
% es.EZ (V/m) @ t=0.22
-0.4414309789412574
% es.tEX (V/m) @ t=0.22
-0.4946853602577108
% es.tEY (V/m) @ t=0.22
0
% es.tEZ (V/m) @ t=0.22
-0.4414309789412556
% es.Ex (V/m) @ t=0.22
-0.4946853602577149
% es.Ey (V/m) @ t=0.22
0.18839319533502352
% es.Ez (V/m) @ t=0.22
-0.4414309789412574
% es.tEx (V/m) @ t=0.22
-0.4946853602577108
% es.tEy (V/m) @ t=0.22
0
% es.tEz (V/m) @ t=0.22
-0.4414309789412556
% V (V) @ t=0.22
0.007032088087615433
% es.normE (V/m) @ t=0.24
0.6973113765253743
% es.EX (V/m) @ t=0.24
-0.4992107811206393
% es.EY (V/m) @ t=0.24
0.19011663442055005
% es.EZ (V/m) @ t=0.24
-0.4454692241119269
% es.tEX (V/m) @ t=0.24
-0.4992107811206392
% es.tEY (V/m) @ t=0.24
0
% es.tEZ (V/m) @ t=0.24
-0.44546922411192735
% es.Ex (V/m) @ t=0.24
-0.4992107811206393
% es.Ey (V/m) @ t=0.24
0.19011663442055005
% es.Ez (V/m) @ t=0.24
-0.4454692241119269
% es.tEx (V/m) @ t=0.24
-0.4992107811206392
% es.tEy (V/m) @ t=0.24
0
% es.tEz (V/m) @ t=0.24
-0.44546922411192735
% V (V) @ t=0.24
0.007096418107525659
% es.normE (V/m) @ t=0.26
0.7036326099472286
% es.EX (V/m) @ t=0.26
-0.5037362019835633
% es.EY (V/m) @ t=0.26
0.19184007350607257
% es.EZ (V/m) @ t=0.26
-0.44950746928258845
% es.tEX (V/m) @ t=0.26
-0.5037362019835654
% es.tEY (V/m) @ t=0.26
0
% es.tEZ (V/m) @ t=0.26
-0.4495074692825929
% es.Ex (V/m) @ t=0.26
-0.5037362019835633
% es.Ey (V/m) @ t=0.26
0.19184007350607257
% es.Ez (V/m) @ t=0.26
-0.44950746928258845
% es.tEx (V/m) @ t=0.26
-0.5037362019835654
% es.tEy (V/m) @ t=0.26
0
% es.tEz (V/m) @ t=0.26
-0.4495074692825929
% V (V) @ t=0.26
0.007160748127435883
% es.normE (V/m) @ t=0.28
0.7102066064895463
% es.EX (V/m) @ t=0.28
-0.5084426008036224
% es.EY (V/m) @ t=0.28
0.1936323162002107
% es.EZ (V/m) @ t=0.28
-0.4537072238643889
% es.tEX (V/m) @ t=0.28
-0.5084426008036209
% es.tEY (V/m) @ t=0.28
0
% es.tEZ (V/m) @ t=0.28
-0.4537072238643862
% es.Ex (V/m) @ t=0.28
-0.5084426008036224
% es.Ey (V/m) @ t=0.28
0.1936323162002107
% es.Ez (V/m) @ t=0.28
-0.4537072238643889
% es.tEx (V/m) @ t=0.28
-0.5084426008036209
% es.tEy (V/m) @ t=0.28
0
% es.tEz (V/m) @ t=0.28
-0.4537072238643862
% V (V) @ t=0.28
0.007227653726640276
% es.normE (V/m) @ t=0.3
0.7172510782094821
% es.EX (V/m) @ t=0.3
-0.513485859037116
% es.EY (V/m) @ t=0.3
0.19555262500582593
% es.EZ (V/m) @ t=0.3
-0.45820760050179743
% es.tEX (V/m) @ t=0.3
-0.5134858590371154
% es.tEY (V/m) @ t=0.3
0
% es.tEZ (V/m) @ t=0.3
-0.45820760050179743
% es.Ex (V/m) @ t=0.3
-0.513485859037116
% es.Ey (V/m) @ t=0.3
0.19555262500582593
% es.Ez (V/m) @ t=0.3
-0.45820760050179743
% es.tEx (V/m) @ t=0.3
-0.5134858590371154
% es.tEy (V/m) @ t=0.3
0
% es.tEz (V/m) @ t=0.3
-0.45820760050179743
% V (V) @ t=0.3
0.00729935332476062
% es.normE (V/m) @ t=0.32
0.7242955499297206
% es.EX (V/m) @ t=0.32
-0.5185291172706085
% es.EY (V/m) @ t=0.32
0.19747293381145248
% es.EZ (V/m) @ t=0.32
-0.46270797713920997
% es.tEX (V/m) @ t=0.32
-0.5185291172706097
% es.tEY (V/m) @ t=0.32
0
% es.tEZ (V/m) @ t=0.32
-0.4627079771392113
% es.Ex (V/m) @ t=0.32
-0.5185291172706085
% es.Ey (V/m) @ t=0.32
0.19747293381145248
% es.Ez (V/m) @ t=0.32
-0.46270797713920997
% es.tEx (V/m) @ t=0.32
-0.5185291172706097
% es.tEy (V/m) @ t=0.32
0
% es.tEz (V/m) @ t=0.32
-0.4627079771392113
% V (V) @ t=0.32
0.007371052922880962
% es.normE (V/m) @ t=0.34
0.7313400216502504
% es.EX (V/m) @ t=0.34
-0.5235723755041096
% es.EY (V/m) @ t=0.34
0.1993932426170817
% es.EZ (V/m) @ t=0.34
-0.4672083537766154
% es.tEX (V/m) @ t=0.34
-0.5235723755041091
% es.tEY (V/m) @ t=0.34
0
% es.tEZ (V/m) @ t=0.34
-0.4672083537766172
% es.Ex (V/m) @ t=0.34
-0.5235723755041096
% es.Ey (V/m) @ t=0.34
0.1993932426170817
% es.Ez (V/m) @ t=0.34
-0.4672083537766154
% es.tEx (V/m) @ t=0.34
-0.5235723755041091
% es.tEy (V/m) @ t=0.34
0
% es.tEz (V/m) @ t=0.34
-0.4672083537766172
% V (V) @ t=0.34
0.007442752521001307
% es.normE (V/m) @ t=0.36
0.7383844933710648
% es.EX (V/m) @ t=0.36
-0.5286156337376128
% es.EY (V/m) @ t=0.36
0.20131355142270535
% es.EZ (V/m) @ t=0.36
-0.4717087304140275
% es.tEX (V/m) @ t=0.36
-0.5286156337376104
% es.tEY (V/m) @ t=0.36
0
% es.tEZ (V/m) @ t=0.36
-0.47170873041403105
% es.Ex (V/m) @ t=0.36
-0.5286156337376128
% es.Ey (V/m) @ t=0.36
0.20131355142270535
% es.Ez (V/m) @ t=0.36
-0.4717087304140275
% es.tEx (V/m) @ t=0.36
-0.5286156337376104
% es.tEy (V/m) @ t=0.36
0
% es.tEz (V/m) @ t=0.36
-0.47170873041403105
% V (V) @ t=0.36
0.007514452119121652
% es.normE (V/m) @ t=0.38
0.7454289650921426
% es.EX (V/m) @ t=0.38
-0.5336588919711017
% es.EY (V/m) @ t=0.38
0.2032338602283208
% es.EZ (V/m) @ t=0.38
-0.47620910705144315
% es.tEX (V/m) @ t=0.38
-0.5336588919711025
% es.tEY (V/m) @ t=0.38
0
% es.tEZ (V/m) @ t=0.38
-0.4762091070514449
% es.Ex (V/m) @ t=0.38
-0.5336588919711017
% es.Ey (V/m) @ t=0.38
0.2032338602283208
% es.Ez (V/m) @ t=0.38
-0.47620910705144315
% es.tEx (V/m) @ t=0.38
-0.5336588919711025
% es.tEy (V/m) @ t=0.38
0
% es.tEz (V/m) @ t=0.38
-0.4762091070514449
% V (V) @ t=0.38
0.007586151717241993
% es.normE (V/m) @ t=0.4
0.7524734368134876
% es.EX (V/m) @ t=0.4
-0.5387021502045909
% es.EY (V/m) @ t=0.4
0.20515416903394224
% es.EZ (V/m) @ t=0.4
-0.4807094836888597
% es.tEX (V/m) @ t=0.4
-0.5387021502045899
% es.tEY (V/m) @ t=0.4
0
% es.tEZ (V/m) @ t=0.4
-0.4807094836888588
% es.Ex (V/m) @ t=0.4
-0.5387021502045909
% es.Ey (V/m) @ t=0.4
0.20515416903394224
% es.Ez (V/m) @ t=0.4
-0.4807094836888597
% es.tEx (V/m) @ t=0.4
-0.5387021502045899
% es.tEy (V/m) @ t=0.4
0
% es.tEz (V/m) @ t=0.4
-0.4807094836888588
% V (V) @ t=0.4
0.007657851315362339
% es.normE (V/m) @ t=0.42
0.759517908535096
% es.EX (V/m) @ t=0.42
-0.5437454084380887
% es.EY (V/m) @ t=0.42
0.20707447783957678
% es.EZ (V/m) @ t=0.42
-0.4852098603262691
% es.tEX (V/m) @ t=0.42
-0.5437454084380877
% es.tEY (V/m) @ t=0.42
0
% es.tEZ (V/m) @ t=0.42
-0.4852098603262691
% es.Ex (V/m) @ t=0.42
-0.5437454084380887
% es.Ey (V/m) @ t=0.42
0.20707447783957678
% es.Ez (V/m) @ t=0.42
-0.4852098603262691
% es.tEx (V/m) @ t=0.42
-0.5437454084380877
% es.tEy (V/m) @ t=0.42
0
% es.tEz (V/m) @ t=0.42
-0.4852098603262691
% V (V) @ t=0.42
0.00772955091348268
% es.normE (V/m) @ t=0.44
0.7665623802569466
% es.EX (V/m) @ t=0.44
-0.548788666671583
% es.EY (V/m) @ t=0.44
0.20899478664519267
% es.EZ (V/m) @ t=0.44
-0.48971023696367766
% es.tEX (V/m) @ t=0.44
-0.548788666671582
% es.tEY (V/m) @ t=0.44
0
% es.tEZ (V/m) @ t=0.44
-0.4897102369636759
% es.Ex (V/m) @ t=0.44
-0.548788666671583
% es.Ey (V/m) @ t=0.44
0.20899478664519267
% es.Ez (V/m) @ t=0.44
-0.48971023696367766
% es.tEx (V/m) @ t=0.44
-0.548788666671582
% es.tEy (V/m) @ t=0.44
0
% es.tEz (V/m) @ t=0.44
-0.4897102369636759
% V (V) @ t=0.44
0.007801250511603024
% es.normE (V/m) @ t=0.46
0.7736068519790535
% es.EX (V/m) @ t=0.46
-0.5538319249050844
% es.EY (V/m) @ t=0.46
0.21091509545082787
% es.EZ (V/m) @ t=0.46
-0.49421061360109064
% es.tEX (V/m) @ t=0.46
-0.5538319249050829
% es.tEY (V/m) @ t=0.46
0
% es.tEZ (V/m) @ t=0.46
-0.4942106136010924
% es.Ex (V/m) @ t=0.46
-0.5538319249050844
% es.Ey (V/m) @ t=0.46
0.21091509545082787
% es.Ez (V/m) @ t=0.46
-0.49421061360109064
% es.tEx (V/m) @ t=0.46
-0.5538319249050829
% es.tEy (V/m) @ t=0.46
0
% es.tEz (V/m) @ t=0.46
-0.4942106136010924
% V (V) @ t=0.46
0.00787295010972337
% es.normE (V/m) @ t=0.48
0.7806513237013957
% es.EX (V/m) @ t=0.48
-0.5588751831385806
% es.EY (V/m) @ t=0.48
0.21283540425644976
% es.EZ (V/m) @ t=0.48
-0.49871099023851073
% es.tEX (V/m) @ t=0.48
-0.5588751831385796
% es.tEY (V/m) @ t=0.48
0
% es.tEZ (V/m) @ t=0.48
-0.49871099023850807
% es.Ex (V/m) @ t=0.48
-0.5588751831385806
% es.Ey (V/m) @ t=0.48
0.21283540425644976
% es.Ez (V/m) @ t=0.48
-0.49871099023851073
% es.tEx (V/m) @ t=0.48
-0.5588751831385796
% es.tEy (V/m) @ t=0.48
0
% es.tEz (V/m) @ t=0.48
-0.49871099023850807
% V (V) @ t=0.48
0.00794464970784371
% es.normE (V/m) @ t=0.5
0.7876957954239551
% es.EX (V/m) @ t=0.5
-0.5639184413720678
% es.EY (V/m) @ t=0.5
0.21475571306207897
% es.EZ (V/m) @ t=0.5
-0.5032113668759162
% es.tEX (V/m) @ t=0.5
-0.5639184413720664
% es.tEY (V/m) @ t=0.5
0
% es.tEZ (V/m) @ t=0.5
-0.503211366875921
% es.Ex (V/m) @ t=0.5
-0.5639184413720678
% es.Ey (V/m) @ t=0.5
0.21475571306207897
% es.Ez (V/m) @ t=0.5
-0.5032113668759162
% es.tEx (V/m) @ t=0.5
-0.5639184413720664
% es.tEy (V/m) @ t=0.5
0
% es.tEz (V/m) @ t=0.5
-0.503211366875921
% V (V) @ t=0.5
0.008016349305964053
% es.normE (V/m) @ t=0.52
0.7947402671467463
% es.EX (V/m) @ t=0.52
-0.5689616996055612
% es.EY (V/m) @ t=0.52
0.21667602186770352
% es.EZ (V/m) @ t=0.52
-0.5077117435133278
% es.tEX (V/m) @ t=0.52
-0.5689616996055606
% es.tEY (V/m) @ t=0.52
0
% es.tEZ (V/m) @ t=0.52
-0.5077117435133314
% es.Ex (V/m) @ t=0.52
-0.5689616996055612
% es.Ey (V/m) @ t=0.52
0.21667602186770352
% es.Ez (V/m) @ t=0.52
-0.5077117435133278
% es.tEx (V/m) @ t=0.52
-0.5689616996055606
% es.tEy (V/m) @ t=0.52
0
% es.tEz (V/m) @ t=0.52
-0.5077117435133314
% V (V) @ t=0.52
0.008088048904084398
% es.normE (V/m) @ t=0.54
0.8017847388697623
% es.EX (V/m) @ t=0.54
-0.5740049578390644
% es.EY (V/m) @ t=0.54
0.21859633067332296
% es.EZ (V/m) @ t=0.54
-0.5122121201507417
% es.tEX (V/m) @ t=0.54
-0.5740049578390651
% es.tEY (V/m) @ t=0.54
0
% es.tEZ (V/m) @ t=0.54
-0.5122121201507381
% es.Ex (V/m) @ t=0.54
-0.5740049578390644
% es.Ey (V/m) @ t=0.54
0.21859633067332296
% es.Ez (V/m) @ t=0.54
-0.5122121201507417
% es.tEx (V/m) @ t=0.54
-0.5740049578390651
% es.tEy (V/m) @ t=0.54
0
% es.tEz (V/m) @ t=0.54
-0.5122121201507381
% V (V) @ t=0.54
0.008159748502204743
% es.normE (V/m) @ t=0.56
0.8094106755678361
% es.EX (V/m) @ t=0.56
-0.5794645419928189
% es.EY (V/m) @ t=0.56
0.22067492831737323
% es.EZ (V/m) @ t=0.56
-0.5170840350087236
% es.tEX (V/m) @ t=0.56
-0.5794645419928202
% es.tEY (V/m) @ t=0.56
0
% es.tEZ (V/m) @ t=0.56
-0.5170840350087209
% es.Ex (V/m) @ t=0.56
-0.5794645419928189
% es.Ey (V/m) @ t=0.56
0.22067492831737323
% es.Ez (V/m) @ t=0.56
-0.5170840350087236
% es.tEx (V/m) @ t=0.56
-0.5794645419928202
% es.tEy (V/m) @ t=0.56
0
% es.tEz (V/m) @ t=0.56
-0.5170840350087209
% V (V) @ t=0.56
0.008237372741628241
% es.normE (V/m) @ t=0.58
0.8172753057159625
% es.EX (V/m) @ t=0.58
-0.5850950294239518
% es.EY (V/m) @ t=0.58
0.22281850409499926
% es.EZ (V/m) @ t=0.58
-0.5221084676333563
% es.tEX (V/m) @ t=0.58
-0.5850950294239505
% es.tEY (V/m) @ t=0.58
0
% es.tEZ (V/m) @ t=0.58
-0.5221084676333527
% es.Ex (V/m) @ t=0.58
-0.5850950294239518
% es.Ey (V/m) @ t=0.58
0.22281850409499926
% es.Ez (V/m) @ t=0.58
-0.5221084676333563
% es.tEx (V/m) @ t=0.58
-0.5850950294239505
% es.tEy (V/m) @ t=0.58
0
% es.tEz (V/m) @ t=0.58
-0.5221084676333527
% V (V) @ t=0.58
0.008317429067469462
% es.normE (V/m) @ t=0.6
0.8251399358651023
% es.EX (V/m) @ t=0.6
-0.5907255168550846
% es.EY (V/m) @ t=0.6
0.2249620798726375
% es.EZ (V/m) @ t=0.6
-0.527132900258005
% es.tEX (V/m) @ t=0.6
-0.5907255168550836
% es.tEY (V/m) @ t=0.6
0
% es.tEZ (V/m) @ t=0.6
-0.5271329002580032
% es.Ex (V/m) @ t=0.6
-0.5907255168550846
% es.Ey (V/m) @ t=0.6
0.2249620798726375
% es.Ez (V/m) @ t=0.6
-0.527132900258005
% es.tEx (V/m) @ t=0.6
-0.5907255168550836
% es.tEy (V/m) @ t=0.6
0
% es.tEz (V/m) @ t=0.6
-0.5271329002580032
% V (V) @ t=0.6
0.008397485393310682
% es.normE (V/m) @ t=0.62
0.8330045660152096
% es.EX (V/m) @ t=0.62
-0.5963560042862138
% es.EY (V/m) @ t=0.62
0.22710565565025642
% es.EZ (V/m) @ t=0.62
-0.5321573328826568
% es.tEX (V/m) @ t=0.62
-0.596356004286213
% es.tEY (V/m) @ t=0.62
0
% es.tEZ (V/m) @ t=0.62
-0.5321573328826608
% es.Ex (V/m) @ t=0.62
-0.5963560042862138
% es.Ey (V/m) @ t=0.62
0.22710565565025642
% es.Ez (V/m) @ t=0.62
-0.5321573328826568
% es.tEx (V/m) @ t=0.62
-0.596356004286213
% es.tEy (V/m) @ t=0.62
0
% es.tEz (V/m) @ t=0.62
-0.5321573328826608
% V (V) @ t=0.62
0.008477541719151903
% es.normE (V/m) @ t=0.64
0.8408691961662539
% es.EX (V/m) @ t=0.64
-0.6019864917173413
% es.EY (V/m) @ t=0.64
0.22924923142789022
% es.EZ (V/m) @ t=0.64
-0.5371817655072944
% es.tEX (V/m) @ t=0.64
-0.6019864917173425
% es.tEY (V/m) @ t=0.64
0
% es.tEZ (V/m) @ t=0.64
-0.537181765507297
% es.Ex (V/m) @ t=0.64
-0.6019864917173413
% es.Ey (V/m) @ t=0.64
0.22924923142789022
% es.Ez (V/m) @ t=0.64
-0.5371817655072944
% es.tEx (V/m) @ t=0.64
-0.6019864917173425
% es.tEy (V/m) @ t=0.64
0
% es.tEz (V/m) @ t=0.64
-0.537181765507297
% V (V) @ t=0.64
0.008557598044993127
% es.normE (V/m) @ t=0.66
0.848733826318224
% es.EX (V/m) @ t=0.66
-0.6076169791484785
% es.EY (V/m) @ t=0.66
0.23139280720551914
% es.EZ (V/m) @ t=0.66
-0.5422061981319346
% es.tEX (V/m) @ t=0.66
-0.6076169791484796
% es.tEY (V/m) @ t=0.66
0
% es.tEZ (V/m) @ t=0.66
-0.5422061981319395
% es.Ex (V/m) @ t=0.66
-0.6076169791484785
% es.Ey (V/m) @ t=0.66
0.23139280720551914
% es.Ez (V/m) @ t=0.66
-0.5422061981319346
% es.tEx (V/m) @ t=0.66
-0.6076169791484796
% es.tEy (V/m) @ t=0.66
0
% es.tEz (V/m) @ t=0.66
-0.5422061981319395
% V (V) @ t=0.66
0.008637654370834346
% es.normE (V/m) @ t=0.68
0.8565984564710889
% es.EX (V/m) @ t=0.68
-0.6132474665796098
% es.EY (V/m) @ t=0.68
0.23353638298315338
% es.EZ (V/m) @ t=0.68
-0.547230630756582
% es.tEX (V/m) @ t=0.68
-0.6132474665796093
% es.tEY (V/m) @ t=0.68
0
% es.tEZ (V/m) @ t=0.68
-0.5472306307565775
% es.Ex (V/m) @ t=0.68
-0.6132474665796098
% es.Ey (V/m) @ t=0.68
0.23353638298315338
% es.Ez (V/m) @ t=0.68
-0.547230630756582
% es.tEx (V/m) @ t=0.68
-0.6132474665796093
% es.tEy (V/m) @ t=0.68
0
% es.tEz (V/m) @ t=0.68
-0.5472306307565775
% V (V) @ t=0.68
0.008717710696675568
% es.normE (V/m) @ t=0.7
0.8644630866248191
% es.EX (V/m) @ t=0.7
-0.6188779540107473
% es.EY (V/m) @ t=0.7
0.2356799587607934
% es.EZ (V/m) @ t=0.7
-0.5522550633812151
% es.tEX (V/m) @ t=0.7
-0.6188779540107474
% es.tEY (V/m) @ t=0.7
0
% es.tEZ (V/m) @ t=0.7
-0.5522550633812138
% es.Ex (V/m) @ t=0.7
-0.6188779540107473
% es.Ey (V/m) @ t=0.7
0.2356799587607934
% es.Ez (V/m) @ t=0.7
-0.5522550633812151
% es.tEx (V/m) @ t=0.7
-0.6188779540107474
% es.tEy (V/m) @ t=0.7
0
% es.tEz (V/m) @ t=0.7
-0.5522550633812138
% V (V) @ t=0.7
0.00879776702251679
% es.normE (V/m) @ t=0.72
0.8723277167793949
% es.EX (V/m) @ t=0.72
-0.6245084414418737
% es.EY (V/m) @ t=0.72
0.23782353453841965
% es.EZ (V/m) @ t=0.72
-0.5572794960058665
% es.tEX (V/m) @ t=0.72
-0.6245084414418727
% es.tEY (V/m) @ t=0.72
0
% es.tEZ (V/m) @ t=0.72
-0.5572794960058642
% es.Ex (V/m) @ t=0.72
-0.6245084414418737
% es.Ey (V/m) @ t=0.72
0.23782353453841965
% es.Ez (V/m) @ t=0.72
-0.5572794960058665
% es.tEx (V/m) @ t=0.72
-0.6245084414418727
% es.tEy (V/m) @ t=0.72
0
% es.tEz (V/m) @ t=0.72
-0.5572794960058642
% V (V) @ t=0.72
0.00887782334835801
% es.normE (V/m) @ t=0.74
0.8801923469347994
% es.EX (V/m) @ t=0.74
-0.6301389288730194
% es.EY (V/m) @ t=0.74
0.23996711031605122
% es.EZ (V/m) @ t=0.74
-0.5623039286305058
% es.tEX (V/m) @ t=0.74
-0.6301389288730219
% es.tEY (V/m) @ t=0.74
0
% es.tEZ (V/m) @ t=0.74
-0.5623039286305094
% es.Ex (V/m) @ t=0.74
-0.6301389288730194
% es.Ey (V/m) @ t=0.74
0.23996711031605122
% es.Ez (V/m) @ t=0.74
-0.5623039286305058
% es.tEx (V/m) @ t=0.74
-0.6301389288730219
% es.tEy (V/m) @ t=0.74
0
% es.tEz (V/m) @ t=0.74
-0.5623039286305094
% V (V) @ t=0.74
0.008957879674199233
% es.normE (V/m) @ t=0.76
0.888056977090997
% es.EX (V/m) @ t=0.76
-0.6357694163041508
% es.EY (V/m) @ t=0.76
0.24211068609368835
% es.EZ (V/m) @ t=0.76
-0.5673283612551447
% es.tEX (V/m) @ t=0.76
-0.6357694163041481
% es.tEY (V/m) @ t=0.76
0
% es.tEZ (V/m) @ t=0.76
-0.5673283612551501
% es.Ex (V/m) @ t=0.76
-0.6357694163041508
% es.Ey (V/m) @ t=0.76
0.24211068609368835
% es.Ez (V/m) @ t=0.76
-0.5673283612551447
% es.tEx (V/m) @ t=0.76
-0.6357694163041481
% es.tEy (V/m) @ t=0.76
0
% es.tEz (V/m) @ t=0.76
-0.5673283612551501
% V (V) @ t=0.76
0.009037936000040454
% es.normE (V/m) @ t=0.78
0.8959216072479734
% es.EX (V/m) @ t=0.78
-0.641399903735281
% es.EY (V/m) @ t=0.78
0.24425426187131438
% es.EZ (V/m) @ t=0.78
-0.5723527938797894
% es.tEX (V/m) @ t=0.78
-0.6413999037352798
% es.tEY (V/m) @ t=0.78
0
% es.tEZ (V/m) @ t=0.78
-0.572352793879797
% es.Ex (V/m) @ t=0.78
-0.641399903735281
% es.Ey (V/m) @ t=0.78
0.24425426187131438
% es.Ez (V/m) @ t=0.78
-0.5723527938797894
% es.tEx (V/m) @ t=0.78
-0.6413999037352798
% es.tEy (V/m) @ t=0.78
0
% es.tEz (V/m) @ t=0.78
-0.572352793879797
% V (V) @ t=0.78
0.009117992325881676
% es.normE (V/m) @ t=0.8
0.9037862374057158
% es.EX (V/m) @ t=0.8
-0.6470303911664138
% es.EY (V/m) @ t=0.8
0.24639783764895262
% es.EZ (V/m) @ t=0.8
-0.5773772265044377
% es.tEX (V/m) @ t=0.8
-0.6470303911664146
% es.tEY (V/m) @ t=0.8
0
% es.tEZ (V/m) @ t=0.8
-0.5773772265044332
% es.Ex (V/m) @ t=0.8
-0.6470303911664138
% es.Ey (V/m) @ t=0.8
0.24639783764895262
% es.Ez (V/m) @ t=0.8
-0.5773772265044377
% es.tEx (V/m) @ t=0.8
-0.6470303911664146
% es.tEy (V/m) @ t=0.8
0
% es.tEz (V/m) @ t=0.8
-0.5773772265044332
% V (V) @ t=0.8
0.009198048651722898
% es.normE (V/m) @ t=0.82
0.9117145361220684
% es.EX (V/m) @ t=0.82
-0.652706451089602
% es.EY (V/m) @ t=0.82
0.2485588124594844
% es.EZ (V/m) @ t=0.82
-0.5824423203994442
% es.tEX (V/m) @ t=0.82
-0.6527064510896028
% es.tEY (V/m) @ t=0.82
0
% es.tEZ (V/m) @ t=0.82
-0.5824423203994398
% es.Ex (V/m) @ t=0.82
-0.652706451089602
% es.Ey (V/m) @ t=0.82
0.2485588124594844
% es.Ez (V/m) @ t=0.82
-0.5824423203994442
% es.tEx (V/m) @ t=0.82
-0.6527064510896028
% es.tEy (V/m) @ t=0.82
0
% es.tEz (V/m) @ t=0.82
-0.5824423203994398
% V (V) @ t=0.82
0.009278751733888228
% es.normE (V/m) @ t=0.84
0.9205093772073442
% es.EX (V/m) @ t=0.84
-0.6590027621465295
% es.EY (V/m) @ t=0.84
0.2509565917413352
% es.EZ (V/m) @ t=0.84
-0.5880608226753896
% es.tEX (V/m) @ t=0.84
-0.6590027621465278
% es.tEY (V/m) @ t=0.84
0
% es.tEZ (V/m) @ t=0.84
-0.588060822675395
% es.Ex (V/m) @ t=0.84
-0.6590027621465295
% es.Ey (V/m) @ t=0.84
0.2509565917413352
% es.Ez (V/m) @ t=0.84
-0.5880608226753896
% es.tEx (V/m) @ t=0.84
-0.6590027621465278
% es.tEy (V/m) @ t=0.84
0
% es.tEz (V/m) @ t=0.84
-0.588060822675395
% V (V) @ t=0.84
0.009368257304685011
% es.normE (V/m) @ t=0.86
0.9293042182926263
% es.EX (V/m) @ t=0.86
-0.6652990732034472
% es.EY (V/m) @ t=0.86
0.2533543710231754
% es.EZ (V/m) @ t=0.86
-0.5936793249513483
% es.tEX (V/m) @ t=0.86
-0.6652990732034461
% es.tEY (V/m) @ t=0.86
0
% es.tEZ (V/m) @ t=0.86
-0.5936793249513581
% es.Ex (V/m) @ t=0.86
-0.6652990732034472
% es.Ey (V/m) @ t=0.86
0.2533543710231754
% es.Ez (V/m) @ t=0.86
-0.5936793249513483
% es.tEx (V/m) @ t=0.86
-0.6652990732034461
% es.tEy (V/m) @ t=0.86
0
% es.tEz (V/m) @ t=0.86
-0.5936793249513581
% V (V) @ t=0.86
0.009457762875481791
% es.normE (V/m) @ t=0.88
0.9380990593779127
% es.EX (V/m) @ t=0.88
-0.6715953842603697
% es.EY (V/m) @ t=0.88
0.2557521503050302
% es.EZ (V/m) @ t=0.88
-0.5992978272272875
% es.tEX (V/m) @ t=0.88
-0.6715953842603697
% es.tEY (V/m) @ t=0.88
0
% es.tEZ (V/m) @ t=0.88
-0.5992978272272875
% es.Ex (V/m) @ t=0.88
-0.6715953842603697
% es.Ey (V/m) @ t=0.88
0.2557521503050302
% es.Ez (V/m) @ t=0.88
-0.5992978272272875
% es.tEx (V/m) @ t=0.88
-0.6715953842603697
% es.tEy (V/m) @ t=0.88
0
% es.tEz (V/m) @ t=0.88
-0.5992978272272875
% V (V) @ t=0.88
0.009547268446278573
% es.normE (V/m) @ t=0.9
0.9468939004632109
% es.EX (V/m) @ t=0.9
-0.6778916953172918
% es.EY (V/m) @ t=0.9
0.258149929586871
% es.EZ (V/m) @ t=0.9
-0.60491632950324
% es.tEX (V/m) @ t=0.9
-0.677891695317292
% es.tEY (V/m) @ t=0.9
0
% es.tEZ (V/m) @ t=0.9
-0.6049163295032356
% es.Ex (V/m) @ t=0.9
-0.6778916953172918
% es.Ey (V/m) @ t=0.9
0.258149929586871
% es.Ez (V/m) @ t=0.9
-0.60491632950324
% es.tEx (V/m) @ t=0.9
-0.677891695317292
% es.tEy (V/m) @ t=0.9
0
% es.tEz (V/m) @ t=0.9
-0.6049163295032356
% V (V) @ t=0.9
0.009636774017075356
% es.normE (V/m) @ t=0.92
0.9556887415485142
% es.EX (V/m) @ t=0.92
-0.6841880063742081
% es.EY (V/m) @ t=0.92
0.26054770886872247
% es.EZ (V/m) @ t=0.92
-0.6105348317791894
% es.tEX (V/m) @ t=0.92
-0.6841880063742085
% es.tEY (V/m) @ t=0.92
0
% es.tEZ (V/m) @ t=0.92
-0.6105348317791934
% es.Ex (V/m) @ t=0.92
-0.6841880063742081
% es.Ey (V/m) @ t=0.92
0.26054770886872247
% es.Ez (V/m) @ t=0.92
-0.6105348317791894
% es.tEx (V/m) @ t=0.92
-0.6841880063742085
% es.tEy (V/m) @ t=0.92
0
% es.tEz (V/m) @ t=0.92
-0.6105348317791934
% V (V) @ t=0.92
0.009726279587872134
% es.normE (V/m) @ t=0.94
0.9644835826338324
% es.EX (V/m) @ t=0.94
-0.6904843174311404
% es.EY (V/m) @ t=0.94
0.26294548815057106
% es.EZ (V/m) @ t=0.94
-0.6161533340551322
% es.tEX (V/m) @ t=0.94
-0.6904843174311357
% es.tEY (V/m) @ t=0.94
0
% es.tEZ (V/m) @ t=0.94
-0.6161533340551362
% es.Ex (V/m) @ t=0.94
-0.6904843174311404
% es.Ey (V/m) @ t=0.94
0.26294548815057106
% es.Ez (V/m) @ t=0.94
-0.6161533340551322
% es.tEx (V/m) @ t=0.94
-0.6904843174311357
% es.tEy (V/m) @ t=0.94
0
% es.tEz (V/m) @ t=0.94
-0.6161533340551362
% V (V) @ t=0.94
0.009815785158668917
% es.normE (V/m) @ t=0.96
0.9732784237191558
% es.EX (V/m) @ t=0.96
-0.6967806284880556
% es.EY (V/m) @ t=0.96
0.2653432674324214
% es.EZ (V/m) @ t=0.96
-0.6217718363310913
% es.tEX (V/m) @ t=0.96
-0.6967806284880598
% es.tEY (V/m) @ t=0.96
0
% es.tEZ (V/m) @ t=0.96
-0.621771836331086
% es.Ex (V/m) @ t=0.96
-0.6967806284880556
% es.Ey (V/m) @ t=0.96
0.2653432674324214
% es.Ez (V/m) @ t=0.96
-0.6217718363310913
% es.tEx (V/m) @ t=0.96
-0.6967806284880598
% es.tEy (V/m) @ t=0.96
0
% es.tEz (V/m) @ t=0.96
-0.621771836331086
% V (V) @ t=0.96
0.009905290729465699
% es.normE (V/m) @ t=0.98
0.9820732648044803
% es.EX (V/m) @ t=0.98
-0.7030769395449734
% es.EY (V/m) @ t=0.98
0.2677410467142731
% es.EZ (V/m) @ t=0.98
-0.6273903386070359
% es.tEX (V/m) @ t=0.98
-0.7030769395449727
% es.tEY (V/m) @ t=0.98
0
% es.tEZ (V/m) @ t=0.98
-0.627390338607035
% es.Ex (V/m) @ t=0.98
-0.7030769395449734
% es.Ey (V/m) @ t=0.98
0.2677410467142731
% es.Ez (V/m) @ t=0.98
-0.6273903386070359
% es.tEx (V/m) @ t=0.98
-0.7030769395449727
% es.tEy (V/m) @ t=0.98
0
% es.tEz (V/m) @ t=0.98
-0.627390338607035
% V (V) @ t=0.98
0.009994796300262478
% es.normE (V/m) @ t=1
0.9908681058898169
% es.EX (V/m) @ t=1
-0.7093732506019002
% es.EY (V/m) @ t=1
0.27013882599611017
% es.EZ (V/m) @ t=1
-0.6330088408829861
% es.tEX (V/m) @ t=1
-0.7093732506018968
% es.tEY (V/m) @ t=1
0
% es.tEZ (V/m) @ t=1
-0.6330088408829857
% es.Ex (V/m) @ t=1
-0.7093732506019002
% es.Ey (V/m) @ t=1
0.27013882599611017
% es.Ez (V/m) @ t=1
-0.6330088408829861
% es.tEx (V/m) @ t=1
-0.7093732506018968
% es.tEy (V/m) @ t=1
0
% es.tEz (V/m) @ t=1
-0.6330088408829857
% V (V) @ t=1
0.010084301871059258
% es.normE (V/m) @ t=1.02
0.9996629469751539
% es.EX (V/m) @ t=1.02
-0.7156695616588216
% es.EY (V/m) @ t=1.02
0.272536605277961
% es.EZ (V/m) @ t=1.02
-0.638627343158924
% es.tEX (V/m) @ t=1.02
-0.7156695616588236
% es.tEY (V/m) @ t=1.02
0
% es.tEZ (V/m) @ t=1.02
-0.6386273431589338
% es.Ex (V/m) @ t=1.02
-0.7156695616588216
% es.Ey (V/m) @ t=1.02
0.272536605277961
% es.Ez (V/m) @ t=1.02
-0.638627343158924
% es.tEx (V/m) @ t=1.02
-0.7156695616588236
% es.tEy (V/m) @ t=1.02
0