% Model:              1 neuron.mph
% Version:            COMSOL 6.0.0.405
% Date:               Mar 16 2023, 17:39
% Dimension:          0
% Nodes:              14017
% Expressions:        14017
% Description:        Electric field norm, Electric field, X component, Electric field, Y component, Electric field, Z component, Tangential electric field, X component, Tangential electric field, Y component, Tangential electric field, Z component, Electric field, x component, Electric field, y component, Electric field, z component, Tangential electric field, x component, Tangential electric field, y component, Tangential electric field, z component, Electric potential
% Length unit:        mm
% x
2
% y
12.2
% z
1.6599999999999997
% es.normE (V/m) @ t=0
1.2622232310138612
% es.EX (V/m) @ t=0
-1.2196416607579783
% es.EY (V/m) @ t=0
0.09395709670575264
% es.EZ (V/m) @ t=0
-0.3108527177221503
% es.tEX (V/m) @ t=0
-1.2196416607579756
% es.tEY (V/m) @ t=0
0
% es.tEZ (V/m) @ t=0
-0.3108527177221472
% es.Ex (V/m) @ t=0
-1.2196416607579783
% es.Ey (V/m) @ t=0
0.09395709670575264
% es.Ez (V/m) @ t=0
-0.3108527177221503
% es.tEx (V/m) @ t=0
-1.2196416607579756
% es.tEy (V/m) @ t=0
0
% es.tEz (V/m) @ t=0
-0.3108527177221472
% V (V) @ t=0
0.00731483901421527
% es.normE (V/m) @ t=0.02
1.0902080731427324
% es.EX (V/m) @ t=0.02
-1.0534294941593396
% es.EY (V/m) @ t=0.02
0.08115268029128808
% es.EZ (V/m) @ t=0.02
-0.26848987573934546
% es.tEX (V/m) @ t=0.02
-1.0534294941593405
% es.tEY (V/m) @ t=0.02
0
% es.tEZ (V/m) @ t=0.02
-0.26848987573935457
% es.Ex (V/m) @ t=0.02
-1.0534294941593396
% es.Ey (V/m) @ t=0.02
0.08115268029128808
% es.Ez (V/m) @ t=0.02
-0.26848987573934546
% es.tEx (V/m) @ t=0.02
-1.0534294941593405
% es.tEy (V/m) @ t=0.02
0
% es.tEz (V/m) @ t=0.02
-0.26848987573935457
% V (V) @ t=0.02
0.006317976078023089
% es.normE (V/m) @ t=0.04
1.1002369056944072
% es.EX (V/m) @ t=0.04
-1.0631199946266885
% es.EY (V/m) @ t=0.04
0.08189921868725508
% es.EZ (V/m) @ t=0.04
-0.2709597338328482
% es.tEX (V/m) @ t=0.04
-1.0631199946266907
% es.tEY (V/m) @ t=0.04
0
% es.tEZ (V/m) @ t=0.04
-0.27095973383285177
% es.Ex (V/m) @ t=0.04
-1.0631199946266885
% es.Ey (V/m) @ t=0.04
0.08189921868725508
% es.Ez (V/m) @ t=0.04
-0.2709597338328482
% es.tEx (V/m) @ t=0.04
-1.0631199946266907
% es.tEy (V/m) @ t=0.04
0
% es.tEz (V/m) @ t=0.04
-0.27095973383285177
% V (V) @ t=0.04
0.0063760947838948576
% es.normE (V/m) @ t=0.06
1.110361991369413
% es.EX (V/m) @ t=0.06
-1.0729035093400858
% es.EY (V/m) @ t=0.06
0.08265290111481727
% es.EZ (V/m) @ t=0.06
-0.27345327078760095
% es.tEX (V/m) @ t=0.06
-1.0729035093400991
% es.tEY (V/m) @ t=0.06
0
% es.tEZ (V/m) @ t=0.06
-0.27345327078760473
% es.Ex (V/m) @ t=0.06
-1.0729035093400858
% es.Ey (V/m) @ t=0.06
0.08265290111481727
% es.Ez (V/m) @ t=0.06
-0.27345327078760095
% es.tEx (V/m) @ t=0.06
-1.0729035093400991
% es.tEy (V/m) @ t=0.06
0
% es.tEz (V/m) @ t=0.06
-0.27345327078760473
% V (V) @ t=0.06
0.006434771888660293
% es.normE (V/m) @ t=0.08
1.1206277953977613
% es.EX (V/m) @ t=0.08
-1.0828229962041371
% es.EY (V/m) @ t=0.08
0.08341705582119424
% es.EZ (V/m) @ t=0.08
-0.2759814599402981
% es.tEX (V/m) @ t=0.08
-1.0828229962041451
% es.tEY (V/m) @ t=0.08
0
% es.tEZ (V/m) @ t=0.08
-0.275981459940299
% es.Ex (V/m) @ t=0.08
-1.0828229962041371
% es.Ey (V/m) @ t=0.08
0.08341705582119424
% es.Ez (V/m) @ t=0.08
-0.2759814599402981
% es.tEx (V/m) @ t=0.08
-1.0828229962041451
% es.tEy (V/m) @ t=0.08
0
% es.tEz (V/m) @ t=0.08
-0.275981459940299
% V (V) @ t=0.08
0.006494264555116141
% es.normE (V/m) @ t=0.1
1.1310198421936857
% es.EX (V/m) @ t=0.1
-1.0928644678711823
% es.EY (V/m) @ t=0.1
0.08419060553137103
% es.EZ (V/m) @ t=0.1
-0.2785407366467698
% es.tEX (V/m) @ t=0.1
-1.092864467871184
% es.tEY (V/m) @ t=0.1
0
% es.tEZ (V/m) @ t=0.1
-0.27854073664676804
% es.Ex (V/m) @ t=0.1
-1.0928644678711823
% es.Ey (V/m) @ t=0.1
0.08419060553137103
% es.Ez (V/m) @ t=0.1
-0.2785407366467698
% es.tEx (V/m) @ t=0.1
-1.092864467871184
% es.tEy (V/m) @ t=0.1
0
% es.tEz (V/m) @ t=0.1
-0.27854073664676804
% V (V) @ t=0.1
0.006554488887076143
% es.normE (V/m) @ t=0.12
1.1414118889895994
% es.EX (V/m) @ t=0.12
-1.1029059395382186
% es.EY (V/m) @ t=0.12
0.08496415524154238
% es.EZ (V/m) @ t=0.12
-0.2811000133532331
% es.tEX (V/m) @ t=0.12
-1.1029059395382141
% es.tEY (V/m) @ t=0.12
0
% es.tEZ (V/m) @ t=0.12
-0.2811000133532371
% es.Ex (V/m) @ t=0.12
-1.1029059395382186
% es.Ey (V/m) @ t=0.12
0.08496415524154238
% es.Ez (V/m) @ t=0.12
-0.2811000133532331
% es.tEx (V/m) @ t=0.12
-1.1029059395382141
% es.tEy (V/m) @ t=0.12
0
% es.tEz (V/m) @ t=0.12
-0.2811000133532371
% V (V) @ t=0.12
0.0066147132190361455
% es.normE (V/m) @ t=0.14
1.1518403330298261
% es.EX (V/m) @ t=0.14
-1.1129825799730106
% es.EY (V/m) @ t=0.14
0.08574041580187436
% es.EZ (V/m) @ t=0.14
-0.28366825563209686
% es.tEX (V/m) @ t=0.14
-1.112982579973016
% es.tEY (V/m) @ t=0.14
0
% es.tEZ (V/m) @ t=0.14
-0.2836682556320973
% es.Ex (V/m) @ t=0.14
-1.1129825799730106
% es.Ey (V/m) @ t=0.14
0.08574041580187436
% es.Ez (V/m) @ t=0.14
-0.28366825563209686
% es.tEx (V/m) @ t=0.14
-1.112982579973016
% es.tEy (V/m) @ t=0.14
0
% es.tEz (V/m) @ t=0.14
-0.2836682556320973
% V (V) @ t=0.14
0.006675148437217934
% es.normE (V/m) @ t=0.16
1.1627978325091997
% es.EX (V/m) @ t=0.16
-1.1235704192147455
% es.EY (V/m) @ t=0.16
0.08655608017000938
% es.EZ (V/m) @ t=0.16
-0.2863668178001888
% es.tEX (V/m) @ t=0.16
-1.1235704192147633
% es.tEY (V/m) @ t=0.16
0
% es.tEZ (V/m) @ t=0.16
-0.28636681780018414
% es.Ex (V/m) @ t=0.16
-1.1235704192147455
% es.Ey (V/m) @ t=0.16
0.08655608017000938
% es.Ez (V/m) @ t=0.16
-0.2863668178001888
% es.tEx (V/m) @ t=0.16
-1.1235704192147633
% es.tEy (V/m) @ t=0.16
0
% es.tEz (V/m) @ t=0.16
-0.28636681780018414
% V (V) @ t=0.16
0.006738649011164267
% es.normE (V/m) @ t=0.18
1.1737553319885574
% es.EX (V/m) @ t=0.18
-1.1341582584564636
% es.EY (V/m) @ t=0.18
0.08737174453814789
% es.EZ (V/m) @ t=0.18
-0.28906537996828097
% es.tEX (V/m) @ t=0.18
-1.1341582584564627
% es.tEY (V/m) @ t=0.18
0
% es.tEZ (V/m) @ t=0.18
-0.28906537996828163
% es.Ex (V/m) @ t=0.18
-1.1341582584564636
% es.Ey (V/m) @ t=0.18
0.08737174453814789
% es.Ez (V/m) @ t=0.18
-0.28906537996828097
% es.tEx (V/m) @ t=0.18
-1.1341582584564627
% es.tEy (V/m) @ t=0.18
0
% es.tEz (V/m) @ t=0.18
-0.28906537996828163
% V (V) @ t=0.18
0.006802149585110598
% es.normE (V/m) @ t=0.2
1.1847128314679143
% es.EX (V/m) @ t=0.2
-1.1447460976981834
% es.EY (V/m) @ t=0.2
0.0881874089062607
% es.EZ (V/m) @ t=0.2
-0.29176394213636825
% es.tEX (V/m) @ t=0.2
-1.144746097698178
% es.tEY (V/m) @ t=0.2
0
% es.tEZ (V/m) @ t=0.2
-0.29176394213636314
% es.Ex (V/m) @ t=0.2
-1.1447460976981834
% es.Ey (V/m) @ t=0.2
0.0881874089062607
% es.Ez (V/m) @ t=0.2
-0.29176394213636825
% es.tEx (V/m) @ t=0.2
-1.144746097698178
% es.tEy (V/m) @ t=0.2
0
% es.tEz (V/m) @ t=0.2
-0.29176394213636314
% V (V) @ t=0.2
0.006865650159056929
% es.normE (V/m) @ t=0.22
1.1956703309472754
% es.EX (V/m) @ t=0.22
-1.155333936939901
% es.EY (V/m) @ t=0.22
0.08900307327440993
% es.EZ (V/m) @ t=0.22
-0.2944625043044673
% es.tEX (V/m) @ t=0.22
-1.155333936939897
% es.tEY (V/m) @ t=0.22
0
% es.tEZ (V/m) @ t=0.22
-0.2944625043044695
% es.Ex (V/m) @ t=0.22
-1.155333936939901
% es.Ey (V/m) @ t=0.22
0.08900307327440993
% es.Ez (V/m) @ t=0.22
-0.2944625043044673
% es.tEx (V/m) @ t=0.22
-1.155333936939897
% es.tEy (V/m) @ t=0.22
0
% es.tEz (V/m) @ t=0.22
-0.2944625043044695
% V (V) @ t=0.22
0.006929150733003263
% es.normE (V/m) @ t=0.24
1.2066278304266245
% es.EX (V/m) @ t=0.24
-1.1659217761816119
% es.EY (V/m) @ t=0.24
0.08981873764253606
% es.EZ (V/m) @ t=0.24
-0.29716106647255125
% es.tEX (V/m) @ t=0.24
-1.1659217761816123
% es.tEY (V/m) @ t=0.24
0
% es.tEZ (V/m) @ t=0.24
-0.2971610664725528
% es.Ex (V/m) @ t=0.24
-1.1659217761816119
% es.Ey (V/m) @ t=0.24
0.08981873764253606
% es.Ez (V/m) @ t=0.24
-0.29716106647255125
% es.tEx (V/m) @ t=0.24
-1.1659217761816123
% es.tEy (V/m) @ t=0.24
0
% es.tEz (V/m) @ t=0.24
-0.2971610664725528
% V (V) @ t=0.24
0.006992651306949593
% es.normE (V/m) @ t=0.26
1.2175853299059949
% es.EX (V/m) @ t=0.26
-1.1765096154233405
% es.EY (V/m) @ t=0.26
0.0906344020106763
% es.EZ (V/m) @ t=0.26
-0.2998596286406452
% es.tEX (V/m) @ t=0.26
-1.1765096154233454
% es.tEY (V/m) @ t=0.26
0
% es.tEZ (V/m) @ t=0.26
-0.2998596286406485
% es.Ex (V/m) @ t=0.26
-1.1765096154233405
% es.Ey (V/m) @ t=0.26
0.0906344020106763
% es.Ez (V/m) @ t=0.26
-0.2998596286406452
% es.tEx (V/m) @ t=0.26
-1.1765096154233454
% es.tEy (V/m) @ t=0.26
0
% es.tEz (V/m) @ t=0.26
-0.2998596286406485
% V (V) @ t=0.26
0.007056151880895925
% es.normE (V/m) @ t=0.28
1.2287202245865043
% es.EX (V/m) @ t=0.28
-1.1872689649846366
% es.EY (V/m) @ t=0.28
0.09146301987615962
% es.EZ (V/m) @ t=0.28
-0.30260156770060953
% es.tEX (V/m) @ t=0.28
-1.1872689649846375
% es.tEY (V/m) @ t=0.28
0
% es.tEZ (V/m) @ t=0.28
-0.30260156770060576
% es.Ex (V/m) @ t=0.28
-1.1872689649846366
% es.Ey (V/m) @ t=0.28
0.09146301987615962
% es.Ez (V/m) @ t=0.28
-0.30260156770060953
% es.tEx (V/m) @ t=0.28
-1.1872689649846375
% es.tEy (V/m) @ t=0.28
0
% es.tEz (V/m) @ t=0.28
-0.30260156770060576
% V (V) @ t=0.28
0.007120687644776749
% es.normE (V/m) @ t=0.3
1.2409550382618055
% es.EX (V/m) @ t=0.3
-1.1990917449903655
% es.EY (V/m) @ t=0.3
0.09237195444485541
% es.EZ (V/m) @ t=0.3
-0.30561246029940614
% es.tEX (V/m) @ t=0.3
-1.1990917449903655
% es.tEY (V/m) @ t=0.3
0
% es.tEZ (V/m) @ t=0.3
-0.305612460299411
% es.Ex (V/m) @ t=0.3
-1.1990917449903655
% es.Ey (V/m) @ t=0.3
0.09237195444485541
% es.Ez (V/m) @ t=0.3
-0.30561246029940614
% es.tEx (V/m) @ t=0.3
-1.1990917449903655
% es.tEy (V/m) @ t=0.3
0
% es.tEz (V/m) @ t=0.3
-0.305612460299411
% V (V) @ t=0.3
0.007191641987404302
% es.normE (V/m) @ t=0.32
1.253189851944216
% es.EX (V/m) @ t=0.32
-1.2109145249960882
% es.EY (V/m) @ t=0.32
0.0932808890135911
% es.EZ (V/m) @ t=0.32
-0.3086233528982083
% es.tEX (V/m) @ t=0.32
-1.2109145249960882
% es.tEY (V/m) @ t=0.32
0
% es.tEZ (V/m) @ t=0.32
-0.3086233528982092
% es.Ex (V/m) @ t=0.32
-1.2109145249960882
% es.Ey (V/m) @ t=0.32
0.0932808890135911
% es.Ez (V/m) @ t=0.32
-0.3086233528982083
% es.tEx (V/m) @ t=0.32
-1.2109145249960882
% es.tEy (V/m) @ t=0.32
0
% es.tEz (V/m) @ t=0.32
-0.3086233528982092
% V (V) @ t=0.32
0.0072625963300318504
% es.normE (V/m) @ t=0.34
1.2654246656335362
% es.EX (V/m) @ t=0.34
-1.2227373050018207
% es.EY (V/m) @ t=0.34
0.09418982358228778
% es.EZ (V/m) @ t=0.34
-0.3116342454970078
% es.tEX (V/m) @ t=0.34
-1.2227373050018109
% es.tEY (V/m) @ t=0.34
0
% es.tEZ (V/m) @ t=0.34
-0.31163424549700913
% es.Ex (V/m) @ t=0.34
-1.2227373050018207
% es.Ey (V/m) @ t=0.34
0.09418982358228778
% es.Ez (V/m) @ t=0.34
-0.3116342454970078
% es.tEx (V/m) @ t=0.34
-1.2227373050018109
% es.tEy (V/m) @ t=0.34
0
% es.tEz (V/m) @ t=0.34
-0.31163424549700913
% V (V) @ t=0.34
0.007333550672659403
% es.normE (V/m) @ t=0.36
1.277659479329552
% es.EX (V/m) @ t=0.36
-1.2345600850075469
% es.EY (V/m) @ t=0.36
0.09509875815097907
% es.EZ (V/m) @ t=0.36
-0.314645138095792
% es.tEX (V/m) @ t=0.36
-1.2345600850075407
% es.tEY (V/m) @ t=0.36
0
% es.tEZ (V/m) @ t=0.36
-0.3146451380957913
% es.Ex (V/m) @ t=0.36
-1.2345600850075469
% es.Ey (V/m) @ t=0.36
0.09509875815097907
% es.Ez (V/m) @ t=0.36
-0.314645138095792
% es.tEx (V/m) @ t=0.36
-1.2345600850075407
% es.tEy (V/m) @ t=0.36
0
% es.tEz (V/m) @ t=0.36
-0.3146451380957913
% V (V) @ t=0.36
0.0074045050152869545
% es.normE (V/m) @ t=0.38
1.28989429303209
% es.EX (V/m) @ t=0.38
-1.2463828650132678
% es.EY (V/m) @ t=0.38
0.09600769271971038
% es.EZ (V/m) @ t=0.38
-0.3176560306946137
% es.tEX (V/m) @ t=0.38
-1.2463828650132687
% es.tEY (V/m) @ t=0.38
0
% es.tEZ (V/m) @ t=0.38
-0.31765603069460724
% es.Ex (V/m) @ t=0.38
-1.2463828650132678
% es.Ey (V/m) @ t=0.38
0.09600769271971038
% es.Ez (V/m) @ t=0.38
-0.3176560306946137
% es.tEx (V/m) @ t=0.38
-1.2463828650132687
% es.tEy (V/m) @ t=0.38
0
% es.tEz (V/m) @ t=0.38
-0.31765603069460724
% V (V) @ t=0.38
0.007475459357914505
% es.normE (V/m) @ t=0.4
1.3021291067409675
% es.EX (V/m) @ t=0.4
-1.2582056450190056
% es.EY (V/m) @ t=0.4
0.09691662728841238
% es.EZ (V/m) @ t=0.4
-0.32066692329341207
% es.tEX (V/m) @ t=0.4
-1.2582056450190002
% es.tEY (V/m) @ t=0.4
0
% es.tEZ (V/m) @ t=0.4
-0.32066692329341073
% es.Ex (V/m) @ t=0.4
-1.2582056450190056
% es.Ey (V/m) @ t=0.4
0.09691662728841238
% es.Ez (V/m) @ t=0.4
-0.32066692329341207
% es.tEx (V/m) @ t=0.4
-1.2582056450190002
% es.tEy (V/m) @ t=0.4
0
% es.tEz (V/m) @ t=0.4
-0.32066692329341073
% V (V) @ t=0.4
0.007546413700542056
% es.normE (V/m) @ t=0.42
1.3143639204559738
% es.EX (V/m) @ t=0.42
-1.2700284250247167
% es.EY (V/m) @ t=0.42
0.09782556185712676
% es.EZ (V/m) @ t=0.42
-0.32367781589220446
% es.tEX (V/m) @ t=0.42
-1.270028425024723
% es.tEY (V/m) @ t=0.42
0
% es.tEZ (V/m) @ t=0.42
-0.3236778158922
% es.Ex (V/m) @ t=0.42
-1.2700284250247167
% es.Ey (V/m) @ t=0.42
0.09782556185712676
% es.Ez (V/m) @ t=0.42
-0.32367781589220446
% es.tEx (V/m) @ t=0.42
-1.270028425024723
% es.tEy (V/m) @ t=0.42
0
% es.tEz (V/m) @ t=0.42
-0.3236778158922
% V (V) @ t=0.42
0.007617368043169608
% es.normE (V/m) @ t=0.44
1.326598734176994
% es.EX (V/m) @ t=0.44
-1.2818512050304536
% es.EY (V/m) @ t=0.44
0.0987344964258447
% es.EZ (V/m) @ t=0.44
-0.3266887084910164
% es.tEX (V/m) @ t=0.44
-1.281851205030458
% es.tEY (V/m) @ t=0.44
0
% es.tEZ (V/m) @ t=0.44
-0.3266887084910195
% es.Ex (V/m) @ t=0.44
-1.2818512050304536
% es.Ey (V/m) @ t=0.44
0.0987344964258447
% es.Ez (V/m) @ t=0.44
-0.3266887084910164
% es.tEx (V/m) @ t=0.44
-1.281851205030458
% es.tEy (V/m) @ t=0.44
0
% es.tEz (V/m) @ t=0.44
-0.3266887084910195
% V (V) @ t=0.44
0.007688322385797157
% es.normE (V/m) @ t=0.46
1.338833547903821
% es.EX (V/m) @ t=0.46
-1.2936739850361834
% es.EY (V/m) @ t=0.46
0.09964343099454759
% es.EZ (V/m) @ t=0.46
-0.329699601089805
% es.tEX (V/m) @ t=0.46
-1.2936739850361754
% es.tEY (V/m) @ t=0.46
0
% es.tEZ (V/m) @ t=0.46
-0.3296996010897999
% es.Ex (V/m) @ t=0.46
-1.2936739850361834
% es.Ey (V/m) @ t=0.46
0.09964343099454759
% es.Ez (V/m) @ t=0.46
-0.329699601089805
% es.tEx (V/m) @ t=0.46
-1.2936739850361754
% es.tEy (V/m) @ t=0.46
0
% es.tEz (V/m) @ t=0.46
-0.3296996010897999
% V (V) @ t=0.46
0.0077592767284247076
% es.normE (V/m) @ t=0.48
1.3510683616362997
% es.EX (V/m) @ t=0.48
-1.305496765041898
% es.EY (V/m) @ t=0.48
0.10055236556325842
% es.EZ (V/m) @ t=0.48
-0.33271049368860983
% es.tEX (V/m) @ t=0.48
-1.3054967650418963
% es.tEY (V/m) @ t=0.48
0
% es.tEZ (V/m) @ t=0.48
-0.3327104936886105
% es.Ex (V/m) @ t=0.48
-1.305496765041898
% es.Ey (V/m) @ t=0.48
0.10055236556325842
% es.Ez (V/m) @ t=0.48
-0.33271049368860983
% es.tEx (V/m) @ t=0.48
-1.3054967650418963
% es.tEy (V/m) @ t=0.48
0
% es.tEz (V/m) @ t=0.48
-0.3327104936886105
% V (V) @ t=0.48
0.007830231071052261
% es.normE (V/m) @ t=0.5
1.3633031753743077
% es.EX (V/m) @ t=0.5
-1.3173195450476367
% es.EY (V/m) @ t=0.5
0.10146130013196752
% es.EZ (V/m) @ t=0.5
-0.3357213862874002
% es.tEX (V/m) @ t=0.5
-1.317319545047635
% es.tEY (V/m) @ t=0.5
0
% es.tEZ (V/m) @ t=0.5
-0.33572138628740333
% es.Ex (V/m) @ t=0.5
-1.3173195450476367
% es.Ey (V/m) @ t=0.5
0.10146130013196752
% es.Ez (V/m) @ t=0.5
-0.3357213862874002
% es.tEx (V/m) @ t=0.5
-1.317319545047635
% es.tEy (V/m) @ t=0.5
0
% es.tEz (V/m) @ t=0.5
-0.33572138628740333
% V (V) @ t=0.5
0.007901185413679809
% es.normE (V/m) @ t=0.52
1.3755379891176664
% es.EX (V/m) @ t=0.52
-1.329142325053355
% es.EY (V/m) @ t=0.52
0.10237023470069795
% es.EZ (V/m) @ t=0.52
-0.3387322788862155
% es.tEX (V/m) @ t=0.52
-1.3291423250533576
% es.tEY (V/m) @ t=0.52
0
% es.tEZ (V/m) @ t=0.52
-0.33873227888621393
% es.Ex (V/m) @ t=0.52
-1.329142325053355
% es.Ey (V/m) @ t=0.52
0.10237023470069795
% es.Ez (V/m) @ t=0.52
-0.3387322788862155
% es.tEx (V/m) @ t=0.52
-1.3291423250533576
% es.tEy (V/m) @ t=0.52
0
% es.tEz (V/m) @ t=0.52
-0.33873227888621393
% V (V) @ t=0.52
0.007972139756307362
% es.normE (V/m) @ t=0.54
1.3877728028662588
% es.EX (V/m) @ t=0.54
-1.3409651050590918
% es.EY (V/m) @ t=0.54
0.103279169269407
% es.EZ (V/m) @ t=0.54
-0.3417431714850159
% es.tEX (V/m) @ t=0.54
-1.3409651050590945
% es.tEY (V/m) @ t=0.54
0
% es.tEZ (V/m) @ t=0.54
-0.3417431714850192
% es.Ex (V/m) @ t=0.54
-1.3409651050590918
% es.Ey (V/m) @ t=0.54
0.103279169269407
% es.Ez (V/m) @ t=0.54
-0.3417431714850159
% es.tEx (V/m) @ t=0.54
-1.3409651050590945
% es.tEy (V/m) @ t=0.54
0
% es.tEz (V/m) @ t=0.54
-0.3417431714850192
% V (V) @ t=0.54
0.008043094098934913
% es.normE (V/m) @ t=0.56
1.4004230755241196
% es.EX (V/m) @ t=0.56
-1.353188783140375
% es.EY (V/m) @ t=0.56
0.10422040577059
% es.EZ (V/m) @ t=0.56
-0.3448580827068821
% es.tEX (V/m) @ t=0.56
-1.3531887831403822
% es.tEY (V/m) @ t=0.56
0
% es.tEZ (V/m) @ t=0.56
-0.3448580827068817
% es.Ex (V/m) @ t=0.56
-1.353188783140375
% es.Ey (V/m) @ t=0.56
0.10422040577059
% es.Ez (V/m) @ t=0.56
-0.3448580827068821
% es.tEx (V/m) @ t=0.56
-1.3531887831403822
% es.tEy (V/m) @ t=0.56
0
% es.tEz (V/m) @ t=0.56
-0.3448580827068817
% V (V) @ t=0.56
0.008116416980303194
% es.normE (V/m) @ t=0.58
1.414100917982513
% es.EX (V/m) @ t=0.58
-1.366404017174288
% es.EY (V/m) @ t=0.58
0.10524153582922924
% es.EZ (V/m) @ t=0.58
-0.34823026701436555
% es.tEX (V/m) @ t=0.58
-1.366404017174288
% es.tEY (V/m) @ t=0.58
0
% es.tEZ (V/m) @ t=0.58
-0.34823026701436177
% es.Ex (V/m) @ t=0.58
-1.366404017174288
% es.Ey (V/m) @ t=0.58
0.10524153582922924
% es.Ez (V/m) @ t=0.58
-0.34823026701436555
% es.tEx (V/m) @ t=0.58
-1.366404017174288
% es.tEy (V/m) @ t=0.58
0
% es.tEz (V/m) @ t=0.58
-0.34823026701436177
% V (V) @ t=0.58
0.008195598055638074
% es.normE (V/m) @ t=0.6
1.4277787604609284
% es.EX (V/m) @ t=0.6
-1.3796192512082115
% es.EY (V/m) @ t=0.6
0.10626266588787464
% es.EZ (V/m) @ t=0.6
-0.3516024513218279
% es.tEX (V/m) @ t=0.6
-1.379619251208199
% es.tEY (V/m) @ t=0.6
0
% es.tEZ (V/m) @ t=0.6
-0.35160245132182943
% es.Ex (V/m) @ t=0.6
-1.3796192512082115
% es.Ey (V/m) @ t=0.6
0.10626266588787464
% es.Ez (V/m) @ t=0.6
-0.3516024513218279
% es.tEx (V/m) @ t=0.6
-1.379619251208199
% es.tEy (V/m) @ t=0.6
0
% es.tEz (V/m) @ t=0.6
-0.35160245132182943
% V (V) @ t=0.6
0.00827477913097295
% es.normE (V/m) @ t=0.62
1.4414566029587894
% es.EX (V/m) @ t=0.62
-1.3928344852421324
% es.EY (V/m) @ t=0.62
0.10728379594650062
% es.EZ (V/m) @ t=0.62
-0.3549746356293011
% es.tEX (V/m) @ t=0.62
-1.3928344852421404
% es.tEY (V/m) @ t=0.62
0
% es.tEZ (V/m) @ t=0.62
-0.3549746356293024
% es.Ex (V/m) @ t=0.62
-1.3928344852421324
% es.Ey (V/m) @ t=0.62
0.10728379594650062
% es.Ez (V/m) @ t=0.62
-0.3549746356293011
% es.tEx (V/m) @ t=0.62
-1.3928344852421404
% es.tEy (V/m) @ t=0.62
0
% es.tEz (V/m) @ t=0.62
-0.3549746356293024
% V (V) @ t=0.62
0.008353960206307829
% es.normE (V/m) @ t=0.64
1.455134445475565
% es.EX (V/m) @ t=0.64
-1.406049719276063
% es.EY (V/m) @ t=0.64
0.10830492600515662
% es.EZ (V/m) @ t=0.64
-0.35834681993679274
% es.tEX (V/m) @ t=0.64
-1.4060497192760657
% es.tEY (V/m) @ t=0.64
0
% es.tEZ (V/m) @ t=0.64
-0.3583468199367932
% es.Ex (V/m) @ t=0.64
-1.406049719276063
% es.Ey (V/m) @ t=0.64
0.10830492600515662
% es.Ez (V/m) @ t=0.64
-0.35834681993679274
% es.tEx (V/m) @ t=0.64
-1.4060497192760657
% es.tEy (V/m) @ t=0.64
0
% es.tEz (V/m) @ t=0.64
-0.3583468199367932
% V (V) @ t=0.64
0.008433141281642706
% es.normE (V/m) @ t=0.66
1.4688122880106866
% es.EX (V/m) @ t=0.66
-1.4192649533099786
% es.EY (V/m) @ t=0.66
0.10932605606378071
% es.EZ (V/m) @ t=0.66
-0.3617190042442544
% es.tEX (V/m) @ t=0.66
-1.419264953309984
% es.tEY (V/m) @ t=0.66
0
% es.tEZ (V/m) @ t=0.66
-0.36171900424425374
% es.Ex (V/m) @ t=0.66
-1.4192649533099786
% es.Ey (V/m) @ t=0.66
0.10932605606378071
% es.Ez (V/m) @ t=0.66
-0.3617190042442544
% es.tEx (V/m) @ t=0.66
-1.419264953309984
% es.tEy (V/m) @ t=0.66
0
% es.tEz (V/m) @ t=0.66
-0.36171900424425374
% V (V) @ t=0.66
0.008512322356977584
% es.normE (V/m) @ t=0.68
1.4824901305636793
% es.EX (V/m) @ t=0.68
-1.4324801873438968
% es.EY (V/m) @ t=0.68
0.11034718612243777
% es.EZ (V/m) @ t=0.68
-0.36509118855173117
% es.tEX (V/m) @ t=0.68
-1.4324801873439057
% es.tEY (V/m) @ t=0.68
0
% es.tEZ (V/m) @ t=0.68
-0.36509118855173384
% es.Ex (V/m) @ t=0.68
-1.4324801873438968
% es.Ey (V/m) @ t=0.68
0.11034718612243777
% es.Ez (V/m) @ t=0.68
-0.36509118855173117
% es.tEx (V/m) @ t=0.68
-1.4324801873439057
% es.tEy (V/m) @ t=0.68
0
% es.tEz (V/m) @ t=0.68
-0.36509118855173384
% V (V) @ t=0.68
0.00859150343231246
% es.normE (V/m) @ t=0.7
1.496167973134052
% es.EX (V/m) @ t=0.7
-1.4456954213778275
% es.EY (V/m) @ t=0.7
0.11136831618106002
% es.EZ (V/m) @ t=0.7
-0.3684633728592024
% es.tEX (V/m) @ t=0.7
-1.445695421377824
% es.tEY (V/m) @ t=0.7
0
% es.tEZ (V/m) @ t=0.7
-0.3684633728592015
% es.Ex (V/m) @ t=0.7
-1.4456954213778275
% es.Ey (V/m) @ t=0.7
0.11136831618106002
% es.Ez (V/m) @ t=0.7
-0.3684633728592024
% es.tEx (V/m) @ t=0.7
-1.445695421377824
% es.tEy (V/m) @ t=0.7
0
% es.tEz (V/m) @ t=0.7
-0.3684633728592015
% V (V) @ t=0.7
0.008670684507647339
% es.normE (V/m) @ t=0.72
1.5098458157213135
% es.EX (V/m) @ t=0.72
-1.4589106554117457
% es.EY (V/m) @ t=0.72
0.11238944623971081
% es.EZ (V/m) @ t=0.72
-0.37183555716666894
% es.tEX (V/m) @ t=0.72
-1.4589106554117421
% es.tEY (V/m) @ t=0.72
0
% es.tEZ (V/m) @ t=0.72
-0.37183555716667627
% es.Ex (V/m) @ t=0.72
-1.4589106554117457
% es.Ey (V/m) @ t=0.72
0.11238944623971081
% es.Ez (V/m) @ t=0.72
-0.37183555716666894
% es.tEx (V/m) @ t=0.72
-1.4589106554117421
% es.tEy (V/m) @ t=0.72
0
% es.tEz (V/m) @ t=0.72
-0.37183555716667627
% V (V) @ t=0.72
0.008749865582982215
% es.normE (V/m) @ t=0.74
1.5235236583250125
% es.EX (V/m) @ t=0.74
-1.4721258894456541
% es.EY (V/m) @ t=0.74
0.11341057629834905
% es.EZ (V/m) @ t=0.74
-0.3752077414741475
% es.tEX (V/m) @ t=0.74
-1.4721258894456746
% es.tEY (V/m) @ t=0.74
0
% es.tEZ (V/m) @ t=0.74
-0.37520774147415104
% es.Ex (V/m) @ t=0.74
-1.4721258894456541
% es.Ey (V/m) @ t=0.74
0.11341057629834905
% es.Ez (V/m) @ t=0.74
-0.3752077414741475
% es.tEx (V/m) @ t=0.74
-1.4721258894456746
% es.tEy (V/m) @ t=0.74
0
% es.tEz (V/m) @ t=0.74
-0.37520774147415104
% V (V) @ t=0.74
0.008829046658317095
% es.normE (V/m) @ t=0.76
1.537201500944724
% es.EX (V/m) @ t=0.76
-1.4853411234795724
% es.EY (V/m) @ t=0.76
0.11443170635699362
% es.EZ (V/m) @ t=0.76
-0.37857992578161204
% es.tEX (V/m) @ t=0.76
-1.4853411234795786
% es.tEY (V/m) @ t=0.76
0
% es.tEZ (V/m) @ t=0.76
-0.3785799257816187
% es.Ex (V/m) @ t=0.76
-1.4853411234795724
% es.Ey (V/m) @ t=0.76
0.11443170635699362
% es.Ez (V/m) @ t=0.76
-0.37857992578161204
% es.tEx (V/m) @ t=0.76
-1.4853411234795786
% es.tEy (V/m) @ t=0.76
0
% es.tEz (V/m) @ t=0.76
-0.3785799257816187
% V (V) @ t=0.76
0.00890822773365197
% es.normE (V/m) @ t=0.78
1.5508793435800325
% es.EX (V/m) @ t=0.78
-1.4985563575135021
% es.EY (V/m) @ t=0.78
0.1154528364156382
% es.EZ (V/m) @ t=0.78
-0.38195211008909347
% es.tEX (V/m) @ t=0.78
-1.4985563575135128
% es.tEY (V/m) @ t=0.78
0
% es.tEZ (V/m) @ t=0.78
-0.3819521100890917
% es.Ex (V/m) @ t=0.78
-1.4985563575135021
% es.Ey (V/m) @ t=0.78
0.1154528364156382
% es.Ez (V/m) @ t=0.78
-0.38195211008909347
% es.tEx (V/m) @ t=0.78
-1.4985563575135128
% es.tEy (V/m) @ t=0.78
0
% es.tEz (V/m) @ t=0.78
-0.3819521100890917
% V (V) @ t=0.78
0.00898740880898685
% es.normE (V/m) @ t=0.8
1.5645571862305068
% es.EX (V/m) @ t=0.8
-1.511771591547424
% es.EY (V/m) @ t=0.8
0.11647396647427477
% es.EZ (V/m) @ t=0.8
-0.38532429439657445
% es.tEX (V/m) @ t=0.8
-1.511771591547431
% es.tEY (V/m) @ t=0.8
0
% es.tEZ (V/m) @ t=0.8
-0.38532429439658245
% es.Ex (V/m) @ t=0.8
-1.511771591547424
% es.Ey (V/m) @ t=0.8
0.11647396647427477
% es.Ez (V/m) @ t=0.8
-0.38532429439657445
% es.tEx (V/m) @ t=0.8
-1.511771591547431
% es.tEy (V/m) @ t=0.8
0
% es.tEz (V/m) @ t=0.8
-0.38532429439658245
% V (V) @ t=0.8
0.009066589884321727
% es.normE (V/m) @ t=0.82
1.5782350288957485
% es.EX (V/m) @ t=0.82
-1.524986825581335
% es.EY (V/m) @ t=0.82
0.11749509653291224
% es.EZ (V/m) @ t=0.82
-0.38869647870404966
% es.tEX (V/m) @ t=0.82
-1.5249868255813421
% es.tEY (V/m) @ t=0.82
0
% es.tEZ (V/m) @ t=0.82
-0.3886964787040501
% es.Ex (V/m) @ t=0.82
-1.524986825581335
% es.Ey (V/m) @ t=0.82
0.11749509653291224
% es.Ez (V/m) @ t=0.82
-0.38869647870404966
% es.tEx (V/m) @ t=0.82
-1.5249868255813421
% es.tEy (V/m) @ t=0.82
0
% es.tEz (V/m) @ t=0.82
-0.3886964787040501
% V (V) @ t=0.82
0.009145770959656605
% es.normE (V/m) @ t=0.84
1.5926348978206892
% es.EX (V/m) @ t=0.84
-1.5389001311043868
% es.EY (V/m) @ t=0.84
0.11856895542124601
% es.EZ (V/m) @ t=0.84
-0.3922452212378644
% es.tEX (V/m) @ t=0.84
-1.5389001311043913
% es.tEY (V/m) @ t=0.84
0
% es.tEZ (V/m) @ t=0.84
-0.39224522123786265
% es.Ex (V/m) @ t=0.84
-1.5389001311043868
% es.Ey (V/m) @ t=0.84
0.11856895542124601
% es.Ez (V/m) @ t=0.84
-0.3922452212378644
% es.tEx (V/m) @ t=0.84
-1.5389001311043913
% es.tEy (V/m) @ t=0.84
0
% es.tEz (V/m) @ t=0.84
-0.39224522123786265
% V (V) @ t=0.84
0.00922916524827432
% es.normE (V/m) @ t=0.86
1.6079652249777774
% es.EX (V/m) @ t=0.86
-1.5537130249248445
% es.EY (V/m) @ t=0.86
0.11971076471135111
% es.EZ (V/m) @ t=0.86
-0.3960214902022803
% es.tEX (V/m) @ t=0.86
-1.5537130249248392
% es.tEY (V/m) @ t=0.86
0
% es.tEZ (V/m) @ t=0.86
-0.3960214902022816
% es.Ex (V/m) @ t=0.86
-1.5537130249248445
% es.Ey (V/m) @ t=0.86
0.11971076471135111
% es.Ez (V/m) @ t=0.86
-0.3960214902022803
% es.tEx (V/m) @ t=0.86
-1.5537130249248392
% es.tEy (V/m) @ t=0.86
0
% es.tEz (V/m) @ t=0.86
-0.3960214902022816
% V (V) @ t=0.86
0.009317989005682523
% es.normE (V/m) @ t=0.88
1.62329555213529
% es.EX (V/m) @ t=0.88
-1.5685259187453102
% es.EY (V/m) @ t=0.88
0.12085257400142246
% es.EZ (V/m) @ t=0.88
-0.39979775916672144
% es.tEX (V/m) @ t=0.88
-1.5685259187453244
% es.tEY (V/m) @ t=0.88
0
% es.tEZ (V/m) @ t=0.88
-0.39979775916671656
% es.Ex (V/m) @ t=0.88
-1.5685259187453102
% es.Ey (V/m) @ t=0.88
0.12085257400142246
% es.Ez (V/m) @ t=0.88
-0.39979775916672144
% es.tEx (V/m) @ t=0.88
-1.5685259187453244
% es.tEy (V/m) @ t=0.88
0
% es.tEz (V/m) @ t=0.88
-0.39979775916671656
% V (V) @ t=0.88
0.009406812763090723
% es.normE (V/m) @ t=0.9
1.638625879293171
% es.EX (V/m) @ t=0.9
-1.5833388125657457
% es.EY (V/m) @ t=0.9
0.12199438329151957
% es.EZ (V/m) @ t=0.9
-0.4035740281311373
% es.tEX (V/m) @ t=0.9
-1.5833388125657581
% es.tEY (V/m) @ t=0.9
0
% es.tEZ (V/m) @ t=0.9
-0.4035740281311426
% es.Ex (V/m) @ t=0.9
-1.5833388125657457
% es.Ey (V/m) @ t=0.9
0.12199438329151957
% es.Ez (V/m) @ t=0.9
-0.4035740281311373
% es.tEx (V/m) @ t=0.9
-1.5833388125657581
% es.tEy (V/m) @ t=0.9
0
% es.tEz (V/m) @ t=0.9
-0.4035740281311426
% V (V) @ t=0.9
0.009495636520498925
% es.normE (V/m) @ t=0.92
1.6539562064514692
% es.EX (V/m) @ t=0.92
-1.598151706386207
% es.EY (V/m) @ t=0.92
0.12313619258161412
% es.EZ (V/m) @ t=0.92
-0.40735029709556336
% es.tEX (V/m) @ t=0.92
-1.5981517063861919
% es.tEY (V/m) @ t=0.92
0
% es.tEZ (V/m) @ t=0.92
-0.4073502970955545
% es.Ex (V/m) @ t=0.92
-1.598151706386207
% es.Ey (V/m) @ t=0.92
0.12313619258161412
% es.Ez (V/m) @ t=0.92
-0.40735029709556336
% es.tEx (V/m) @ t=0.92
-1.5981517063861919
% es.tEy (V/m) @ t=0.92
0
% es.tEz (V/m) @ t=0.92
-0.4073502970955545
% V (V) @ t=0.92
0.009584460277907126
% es.normE (V/m) @ t=0.94
1.6692865336101375
% es.EX (V/m) @ t=0.94
-1.6129646002066576
% es.EY (V/m) @ t=0.94
0.1242780018717139
% es.EZ (V/m) @ t=0.94
-0.41112656605999254
% es.tEX (V/m) @ t=0.94
-1.6129646002066558
% es.tEY (V/m) @ t=0.94
0
% es.tEZ (V/m) @ t=0.94
-0.41112656606000186
% es.Ex (V/m) @ t=0.94
-1.6129646002066576
% es.Ey (V/m) @ t=0.94
0.1242780018717139
% es.Ez (V/m) @ t=0.94
-0.41112656605999254
% es.tEx (V/m) @ t=0.94
-1.6129646002066558
% es.tEy (V/m) @ t=0.94
0
% es.tEz (V/m) @ t=0.94
-0.41112656606000186
% V (V) @ t=0.94
0.009673284035315328
% es.normE (V/m) @ t=0.96
1.6846168607691845
% es.EX (V/m) @ t=0.96
-1.6277774940271161
% es.EY (V/m) @ t=0.96
0.12541981116179413
% es.EZ (V/m) @ t=0.96
-0.4149028350244346
% es.tEX (V/m) @ t=0.96
-1.6277774940270966
% es.tEY (V/m) @ t=0.96
0
% es.tEZ (V/m) @ t=0.96
-0.41490283502442793
% es.Ex (V/m) @ t=0.96
-1.6277774940271161
% es.Ey (V/m) @ t=0.96
0.12541981116179413
% es.Ez (V/m) @ t=0.96
-0.4149028350244346
% es.tEx (V/m) @ t=0.96
-1.6277774940270966
% es.tEy (V/m) @ t=0.96
0
% es.tEz (V/m) @ t=0.96
-0.41490283502442793
% V (V) @ t=0.96
0.009762107792723528
% es.normE (V/m) @ t=0.98
1.6999471879285815
% es.EX (V/m) @ t=0.98
-1.6425903878475694
% es.EY (V/m) @ t=0.98
0.12656162045187436
% es.EZ (V/m) @ t=0.98
-0.4186791039888593
% es.tEX (V/m) @ t=0.98
-1.6425903878475676
% es.tEY (V/m) @ t=0.98
0
% es.tEZ (V/m) @ t=0.98
-0.4186791039888682
% es.Ex (V/m) @ t=0.98
-1.6425903878475694
% es.Ey (V/m) @ t=0.98
0.12656162045187436
% es.Ez (V/m) @ t=0.98
-0.4186791039888593
% es.tEx (V/m) @ t=0.98
-1.6425903878475676
% es.tEy (V/m) @ t=0.98
0
% es.tEz (V/m) @ t=0.98
-0.4186791039888682
% V (V) @ t=0.98
0.00985093155013173
% es.normE (V/m) @ t=1
1.7152775150883404
% es.EX (V/m) @ t=1
-1.6574032816680324
% es.EY (V/m) @ t=1
0.12770342974196436
% es.EZ (V/m) @ t=1
-0.42245537295329294
% es.tEX (V/m) @ t=1
-1.6574032816680422
% es.tEY (V/m) @ t=1
0
% es.tEZ (V/m) @ t=1
-0.42245537295328184
% es.Ex (V/m) @ t=1
-1.6574032816680324
% es.Ey (V/m) @ t=1
0.12770342974196436
% es.Ez (V/m) @ t=1
-0.42245537295329294
% es.tEx (V/m) @ t=1
-1.6574032816680422
% es.tEy (V/m) @ t=1
0
% es.tEz (V/m) @ t=1
-0.42245537295328184
% V (V) @ t=1
0.00993975530753993
% es.normE (V/m) @ t=1.02
1.7306078422484132
% es.EX (V/m) @ t=1.02
-1.6722161754884723
% es.EY (V/m) @ t=1.02
0.128845239032074
% es.EZ (V/m) @ t=1.02
-0.4262316419177057
% es.tEX (V/m) @ t=1.02
-1.672216175488476
% es.tEY (V/m) @ t=1.02
0
% es.tEZ (V/m) @ t=1.02
-0.4262316419177008
% es.Ex (V/m) @ t=1.02
-1.6722161754884723
% es.Ey (V/m) @ t=1.02
0.128845239032074
% es.Ez (V/m) @ t=1.02
-0.4262316419177057
% es.tEx (V/m) @ t=1.02
-1.672216175488476