% Model:              1 neuron.mph
% Version:            COMSOL 6.1.0.252
% Date:               Mar 18 2023, 12:31
% Dimension:          0
% Nodes:              14017
% Expressions:        14017
% Description:        Electric field norm, Electric field, X component, Electric field, Y component, Electric field, Z component, Tangential electric field, X component, Tangential electric field, Y component, Tangential electric field, Z component, Electric field, x component, Electric field, y component, Electric field, z component, Tangential electric field, x component, Tangential electric field, y component, Tangential electric field, z component, Electric potential
% Length unit:        mm
% x
1.66
% y
12.2
% z
1
% es.normE (V/m) @ t=0
1.4880244530030822
% es.EX (V/m) @ t=0
-0.5303894715088215
% es.EY (V/m) @ t=0
0.1685019965700938
% es.EZ (V/m) @ t=0
1.3757658332808633
% es.tEX (V/m) @ t=0
-0.5303894715088286
% es.tEY (V/m) @ t=0
0
% es.tEZ (V/m) @ t=0
1.3757658332808695
% es.Ex (V/m) @ t=0
-0.5303894715088215
% es.Ey (V/m) @ t=0
0.1685019965700938
% es.Ez (V/m) @ t=0
1.3757658332808633
% es.tEx (V/m) @ t=0
-0.5303894715088286
% es.tEy (V/m) @ t=0
0
% es.tEz (V/m) @ t=0
1.3757658332808695
% V (V) @ t=0
0.007244869346752921
% es.normE (V/m) @ t=0.02
1.2852230340943267
% es.EX (V/m) @ t=0.02
-0.4581032008453858
% es.EY (V/m) @ t=0.02
0.14553702400644686
% es.EZ (V/m) @ t=0.02
1.1882640337346402
% es.tEX (V/m) @ t=0.02
-0.4581032008453929
% es.tEY (V/m) @ t=0.02
0
% es.tEZ (V/m) @ t=0.02
1.1882640337346428
% es.Ex (V/m) @ t=0.02
-0.4581032008453858
% es.Ey (V/m) @ t=0.02
0.14553702400644686
% es.Ez (V/m) @ t=0.02
1.1882640337346402
% es.tEx (V/m) @ t=0.02
-0.4581032008453929
% es.tEy (V/m) @ t=0.02
0
% es.tEz (V/m) @ t=0.02
1.1882640337346428
% V (V) @ t=0.02
0.006257472972856899
% es.normE (V/m) @ t=0.04
1.2970449239831794
% es.EX (V/m) @ t=0.04
-0.46231697847547304
% es.EY (V/m) @ t=0.04
0.1468757242329004
% es.EZ (V/m) @ t=0.04
1.1991940643715284
% es.tEX (V/m) @ t=0.04
-0.4623169784754819
% es.tEY (V/m) @ t=0.04
0
% es.tEZ (V/m) @ t=0.04
1.1991940643715306
% es.Ex (V/m) @ t=0.04
-0.46231697847547304
% es.Ey (V/m) @ t=0.04
0.1468757242329004
% es.Ez (V/m) @ t=0.04
1.1991940643715284
% es.tEx (V/m) @ t=0.04
-0.4623169784754819
% es.tEy (V/m) @ t=0.04
0
% es.tEz (V/m) @ t=0.04
1.1991940643715306
% V (V) @ t=0.04
0.006315030976569401
% es.normE (V/m) @ t=0.06
1.3089759907219267
% es.EX (V/m) @ t=0.06
-0.46656967206260025
% es.EY (V/m) @ t=0.06
0.1482267832400418
% es.EZ (V/m) @ t=0.06
1.210225034994692
% es.tEX (V/m) @ t=0.06
-0.46656967206260735
% es.tEY (V/m) @ t=0.06
0
% es.tEZ (V/m) @ t=0.06
1.2102250349946875
% es.Ex (V/m) @ t=0.06
-0.46656967206260025
% es.Ey (V/m) @ t=0.06
0.1482267832400418
% es.Ez (V/m) @ t=0.06
1.210225034994692
% es.tEx (V/m) @ t=0.06
-0.46656967206260735
% es.tEy (V/m) @ t=0.06
0
% es.tEz (V/m) @ t=0.06
1.2102250349946875
% V (V) @ t=0.06
0.00637312075075641
% es.normE (V/m) @ t=0.08
1.321083081123394
% es.EX (V/m) @ t=0.08
-0.47088510620411284
% es.EY (V/m) @ t=0.08
0.14959777920416562
% es.EZ (V/m) @ t=0.08
1.221418750216655
% es.tEX (V/m) @ t=0.08
-0.47088510620411816
% es.tEY (V/m) @ t=0.08
0
% es.tEZ (V/m) @ t=0.08
1.2214187502166522
% es.Ex (V/m) @ t=0.08
-0.47088510620411284
% es.Ey (V/m) @ t=0.08
0.14959777920416562
% es.Ez (V/m) @ t=0.08
1.221418750216655
% es.tEx (V/m) @ t=0.08
-0.47088510620411816
% es.tEy (V/m) @ t=0.08
0
% es.tEz (V/m) @ t=0.08
1.2214187502166522
% V (V) @ t=0.08
0.006432067334552818
% es.normE (V/m) @ t=0.1
1.3333249729622947
% es.EX (V/m) @ t=0.1
-0.47524858795914193
% es.EY (V/m) @ t=0.1
0.1509840431749795
% es.EZ (V/m) @ t=0.1
1.2327370975790575
% es.tEX (V/m) @ t=0.1
-0.4752485879591437
% es.tEY (V/m) @ t=0.1
0
% es.tEZ (V/m) @ t=0.1
1.232737097579058
% es.Ex (V/m) @ t=0.1
-0.47524858795914193
% es.Ey (V/m) @ t=0.1
0.1509840431749795
% es.Ez (V/m) @ t=0.1
1.2327370975790575
% es.tEx (V/m) @ t=0.1
-0.4752485879591437
% es.tEy (V/m) @ t=0.1
0
% es.tEz (V/m) @ t=0.1
1.232737097579058
% V (V) @ t=0.1
0.0064916700753974614
% es.normE (V/m) @ t=0.12
1.3455668648011954
% es.EX (V/m) @ t=0.12
-0.47961206971417814
% es.EY (V/m) @ t=0.12
0.1523703071457866
% es.EZ (V/m) @ t=0.12
1.2440554449414583
% es.tEX (V/m) @ t=0.12
-0.479612069714187
% es.tEY (V/m) @ t=0.12
0
% es.tEZ (V/m) @ t=0.12
1.2440554449414565
% es.Ex (V/m) @ t=0.12
-0.47961206971417814
% es.Ey (V/m) @ t=0.12
0.1523703071457866
% es.Ez (V/m) @ t=0.12
1.2440554449414583
% es.tEx (V/m) @ t=0.12
-0.479612069714187
% es.tEy (V/m) @ t=0.12
0
% es.tEz (V/m) @ t=0.12
1.2440554449414565
% V (V) @ t=0.12
0.0065512728162421055
% es.normE (V/m) @ t=0.14
1.3579026391656859
% es.EX (V/m) @ t=0.14
-0.4840090148938684
% es.EY (V/m) @ t=0.14
0.15376720196638005
% es.EZ (V/m) @ t=0.14
1.2554605921800785
% es.tEX (V/m) @ t=0.14
-0.4840090148938755
% es.tEY (V/m) @ t=0.14
0
% es.tEZ (V/m) @ t=0.14
1.2554605921800794
% es.Ex (V/m) @ t=0.14
-0.4840090148938684
% es.Ey (V/m) @ t=0.14
0.15376720196638005
% es.Ez (V/m) @ t=0.14
1.2554605921800785
% es.tEx (V/m) @ t=0.14
-0.4840090148938755
% es.tEy (V/m) @ t=0.14
0
% es.tEz (V/m) @ t=0.14
1.2554605921800794
% V (V) @ t=0.14
0.0066113326647399915
% es.normE (V/m) @ t=0.16
1.3708026529067905
% es.EX (V/m) @ t=0.16
-0.48860707717976704
% es.EY (V/m) @ t=0.16
0.15522798880538125
% es.EZ (V/m) @ t=0.16
1.267387411665367
% es.tEX (V/m) @ t=0.16
-0.48860707717977414
% es.tEY (V/m) @ t=0.16
0
% es.tEZ (V/m) @ t=0.16
1.2673874116653687
% es.Ex (V/m) @ t=0.16
-0.48860707717976704
% es.Ey (V/m) @ t=0.16
0.15522798880538125
% es.Ez (V/m) @ t=0.16
1.267387411665367
% es.tEx (V/m) @ t=0.16
-0.48860707717977414
% es.tEy (V/m) @ t=0.16
0
% es.tEz (V/m) @ t=0.16
1.2673874116653687
% V (V) @ t=0.16
0.006674139756515598
% es.normE (V/m) @ t=0.18
1.3837026666479044
% es.EX (V/m) @ t=0.18
-0.49320513946565503
% es.EY (V/m) @ t=0.18
0.15668877564438888
% es.EZ (V/m) @ t=0.18
1.2793142311506678
% es.tEX (V/m) @ t=0.18
-0.49320513946566213
% es.tEY (V/m) @ t=0.18
0
% es.tEZ (V/m) @ t=0.18
1.2793142311506696
% es.Ex (V/m) @ t=0.18
-0.49320513946565503
% es.Ey (V/m) @ t=0.18
0.15668877564438888
% es.Ez (V/m) @ t=0.18
1.2793142311506678
% es.tEx (V/m) @ t=0.18
-0.49320513946566213
% es.tEy (V/m) @ t=0.18
0
% es.tEz (V/m) @ t=0.18
1.2793142311506696
% V (V) @ t=0.18
0.006736946848291205
% es.normE (V/m) @ t=0.2
1.3966026803890124
% es.EX (V/m) @ t=0.2
-0.49780320175155013
% es.EY (V/m) @ t=0.2
0.1581495624833843
% es.EZ (V/m) @ t=0.2
1.2912410506359606
% es.tEX (V/m) @ t=0.2
-0.49780320175155723
% es.tEY (V/m) @ t=0.2
0
% es.tEZ (V/m) @ t=0.2
1.2912410506359588
% es.Ex (V/m) @ t=0.2
-0.49780320175155013
% es.Ey (V/m) @ t=0.2
0.1581495624833843
% es.Ez (V/m) @ t=0.2
1.2912410506359606
% es.tEx (V/m) @ t=0.2
-0.49780320175155723
% es.tEy (V/m) @ t=0.2
0
% es.tEz (V/m) @ t=0.2
1.2912410506359588
% V (V) @ t=0.2
0.006799753940066811
% es.normE (V/m) @ t=0.22
1.409502694130119
% es.EX (V/m) @ t=0.22
-0.5024012640374435
% es.EY (V/m) @ t=0.22
0.15961034932236884
% es.EZ (V/m) @ t=0.22
1.3031678701212548
% es.tEX (V/m) @ t=0.22
-0.5024012640374523
% es.tEY (V/m) @ t=0.22
0
% es.tEZ (V/m) @ t=0.22
1.3031678701212561
% es.Ex (V/m) @ t=0.22
-0.5024012640374435
% es.Ey (V/m) @ t=0.22
0.15961034932236884
% es.Ez (V/m) @ t=0.22
1.3031678701212548
% es.tEx (V/m) @ t=0.22
-0.5024012640374523
% es.tEy (V/m) @ t=0.22
0
% es.tEz (V/m) @ t=0.22
1.3031678701212561
% V (V) @ t=0.22
0.006862561031842419
% es.normE (V/m) @ t=0.24
1.4224027078712318
% es.EX (V/m) @ t=0.24
-0.5069993263233332
% es.EY (V/m) @ t=0.24
0.16107113616137103
% es.EZ (V/m) @ t=0.24
1.3150946896065538
% es.tEX (V/m) @ t=0.24
-0.5069993263233403
% es.tEY (V/m) @ t=0.24
0
% es.tEZ (V/m) @ t=0.24
1.315094689606556
% es.Ex (V/m) @ t=0.24
-0.5069993263233332
% es.Ey (V/m) @ t=0.24
0.16107113616137103
% es.Ez (V/m) @ t=0.24
1.3150946896065538
% es.tEx (V/m) @ t=0.24
-0.5069993263233403
% es.tEy (V/m) @ t=0.24
0
% es.tEz (V/m) @ t=0.24
1.315094689606556
% V (V) @ t=0.24
0.006925368123618024
% es.normE (V/m) @ t=0.26
1.4353027216123402
% es.EX (V/m) @ t=0.26
-0.5115973886092301
% es.EY (V/m) @ t=0.26
0.16253192300036645
% es.EZ (V/m) @ t=0.26
1.3270215090918471
% es.tEX (V/m) @ t=0.26
-0.511597388609239
% es.tEY (V/m) @ t=0.26
0
% es.tEZ (V/m) @ t=0.26
1.3270215090918471
% es.Ex (V/m) @ t=0.26
-0.5115973886092301
% es.Ey (V/m) @ t=0.26
0.16253192300036645
% es.Ez (V/m) @ t=0.26
1.3270215090918471
% es.tEx (V/m) @ t=0.26
-0.511597388609239
% es.tEy (V/m) @ t=0.26
0
% es.tEz (V/m) @ t=0.26
1.3270215090918471
% V (V) @ t=0.26
0.006988175215393631
% es.normE (V/m) @ t=0.28
1.448640390434269
% es.EX (V/m) @ t=0.28
-0.5163514487866158
% es.EY (V/m) @ t=0.28
0.16404226687462709
% es.EZ (V/m) @ t=0.28
1.3393529660928758
% es.tEX (V/m) @ t=0.28
-0.5163514487866229
% es.tEY (V/m) @ t=0.28
0
% es.tEZ (V/m) @ t=0.28
1.339352966092874
% es.Ex (V/m) @ t=0.28
-0.5163514487866158
% es.Ey (V/m) @ t=0.28
0.16404226687462709
% es.Ez (V/m) @ t=0.28
1.3393529660928758
% es.tEx (V/m) @ t=0.28
-0.5163514487866229
% es.tEy (V/m) @ t=0.28
0
% es.tEz (V/m) @ t=0.28
1.339352966092874
% V (V) @ t=0.28
0.0070531132796166785
% es.normE (V/m) @ t=0.3
1.4630222998238955
% es.EX (V/m) @ t=0.3
-0.5214777183451264
% es.EY (V/m) @ t=0.3
0.16567085333053921
% es.EZ (V/m) @ t=0.3
1.3526498840874122
% es.tEX (V/m) @ t=0.3
-0.5214777183451335
% es.tEY (V/m) @ t=0.3
0
% es.tEZ (V/m) @ t=0.3
1.3526498840874126
% es.Ex (V/m) @ t=0.3
-0.5214777183451264
% es.Ey (V/m) @ t=0.3
0.16567085333053921
% es.Ez (V/m) @ t=0.3
1.3526498840874122
% es.tEx (V/m) @ t=0.3
-0.5214777183451335
% es.tEy (V/m) @ t=0.3
0
% es.tEz (V/m) @ t=0.3
1.3526498840874126
% V (V) @ t=0.3
0.007123135822406959
% es.normE (V/m) @ t=0.32
1.4774042092135216
% es.EX (V/m) @ t=0.32
-0.5266039879036353
% es.EY (V/m) @ t=0.32
0.16729943978645168
% es.EZ (V/m) @ t=0.32
1.365946802081948
% es.tEX (V/m) @ t=0.32
-0.5266039879036442
% es.tEY (V/m) @ t=0.32
0
% es.tEZ (V/m) @ t=0.32
1.3659468020819476
% es.Ex (V/m) @ t=0.32
-0.5266039879036353
% es.Ey (V/m) @ t=0.32
0.16729943978645168
% es.Ez (V/m) @ t=0.32
1.365946802081948
% es.tEx (V/m) @ t=0.32
-0.5266039879036442
% es.tEy (V/m) @ t=0.32
0
% es.tEz (V/m) @ t=0.32
1.3659468020819476
% V (V) @ t=0.32
0.007193158365197243
% es.normE (V/m) @ t=0.34
1.491786118603143
% es.EX (V/m) @ t=0.34
-0.5317302574621317
% es.EY (V/m) @ t=0.34
0.1689280262423618
% es.EZ (V/m) @ t=0.34
1.3792437200764844
% es.tEX (V/m) @ t=0.34
-0.5317302574621405
% es.tEY (V/m) @ t=0.34
0
% es.tEZ (V/m) @ t=0.34
1.3792437200764862
% es.Ex (V/m) @ t=0.34
-0.5317302574621317
% es.Ey (V/m) @ t=0.34
0.1689280262423618
% es.Ez (V/m) @ t=0.34
1.3792437200764844
% es.tEx (V/m) @ t=0.34
-0.5317302574621405
% es.tEy (V/m) @ t=0.34
0
% es.tEz (V/m) @ t=0.34
1.3792437200764862
% V (V) @ t=0.34
0.007263180907987525
% es.normE (V/m) @ t=0.36
1.506168027992771
% es.EX (V/m) @ t=0.36
-0.5368565270206493
% es.EY (V/m) @ t=0.36
0.17055661269826683
% es.EZ (V/m) @ t=0.36
1.3925406380710204
% es.tEX (V/m) @ t=0.36
-0.5368565270206582
% es.tEY (V/m) @ t=0.36
0
% es.tEZ (V/m) @ t=0.36
1.3925406380710212
% es.Ex (V/m) @ t=0.36
-0.5368565270206493
% es.Ey (V/m) @ t=0.36
0.17055661269826683
% es.Ez (V/m) @ t=0.36
1.3925406380710204
% es.tEx (V/m) @ t=0.36
-0.5368565270206582
% es.tEy (V/m) @ t=0.36
0
% es.tEz (V/m) @ t=0.36
1.3925406380710212
% V (V) @ t=0.36
0.007333203450777808
% es.normE (V/m) @ t=0.38
1.5205499373823985
% es.EX (V/m) @ t=0.38
-0.5419827965791529
% es.EY (V/m) @ t=0.38
0.17218519915418995
% es.EZ (V/m) @ t=0.38
1.405837556065559
% es.tEX (V/m) @ t=0.38
-0.5419827965791618
% es.tEY (V/m) @ t=0.38
0
% es.tEZ (V/m) @ t=0.38
1.405837556065559
% es.Ex (V/m) @ t=0.38
-0.5419827965791529
% es.Ey (V/m) @ t=0.38
0.17218519915418995
% es.Ez (V/m) @ t=0.38
1.405837556065559
% es.tEx (V/m) @ t=0.38
-0.5419827965791618
% es.tEy (V/m) @ t=0.38
0
% es.tEz (V/m) @ t=0.38
1.405837556065559
% V (V) @ t=0.38
0.007403225993568092
% es.normE (V/m) @ t=0.4
1.5349318467720123
% es.EX (V/m) @ t=0.4
-0.5471090661376511
% es.EY (V/m) @ t=0.4
0.17381378561008776
% es.EZ (V/m) @ t=0.4
1.4191344740600886
% es.tEX (V/m) @ t=0.4
-0.5471090661376582
% es.tEY (V/m) @ t=0.4
0
% es.tEZ (V/m) @ t=0.4
1.4191344740600895
% es.Ex (V/m) @ t=0.4
-0.5471090661376511
% es.Ey (V/m) @ t=0.4
0.17381378561008776
% es.Ez (V/m) @ t=0.4
1.4191344740600886
% es.tEx (V/m) @ t=0.4
-0.5471090661376582
% es.tEy (V/m) @ t=0.4
0
% es.tEz (V/m) @ t=0.4
1.4191344740600895
% V (V) @ t=0.4
0.007473248536358375
% es.normE (V/m) @ t=0.42
1.5493137561616392
% es.EX (V/m) @ t=0.42
-0.5522353356961618
% es.EY (V/m) @ t=0.42
0.17544237206601
% es.EZ (V/m) @ t=0.42
1.4324313920546232
% es.tEX (V/m) @ t=0.42
-0.5522353356961689
% es.tEY (V/m) @ t=0.42
0
% es.tEZ (V/m) @ t=0.42
1.4324313920546237
% es.Ex (V/m) @ t=0.42
-0.5522353356961618
% es.Ey (V/m) @ t=0.42
0.17544237206601
% es.Ez (V/m) @ t=0.42
1.4324313920546232
% es.tEx (V/m) @ t=0.42
-0.5522353356961689
% es.tEy (V/m) @ t=0.42
0
% es.tEz (V/m) @ t=0.42
1.4324313920546237
% V (V) @ t=0.42
0.007543271079148657
% es.normE (V/m) @ t=0.44
1.5636956655512617
% es.EX (V/m) @ t=0.44
-0.5573616052546723
% es.EY (V/m) @ t=0.44
0.17707095852192056
% es.EZ (V/m) @ t=0.44
1.445728310049156
% es.tEX (V/m) @ t=0.44
-0.5573616052546794
% es.tEY (V/m) @ t=0.44
0
% es.tEZ (V/m) @ t=0.44
1.4457283100491578
% es.Ex (V/m) @ t=0.44
-0.5573616052546723
% es.Ey (V/m) @ t=0.44
0.17707095852192056
% es.Ez (V/m) @ t=0.44
1.445728310049156
% es.tEx (V/m) @ t=0.44
-0.5573616052546794
% es.tEy (V/m) @ t=0.44
0
% es.tEz (V/m) @ t=0.44
1.4457283100491578
% V (V) @ t=0.44
0.007613293621938939
% es.normE (V/m) @ t=0.46
1.578077574940894
% es.EX (V/m) @ t=0.46
-0.562487874813183
% es.EY (V/m) @ t=0.46
0.17869954497783125
% es.EZ (V/m) @ t=0.46
1.4590252280436968
% es.tEX (V/m) @ t=0.46
-0.5624878748131901
% es.tEY (V/m) @ t=0.46
0
% es.tEZ (V/m) @ t=0.46
1.4590252280436946
% es.Ex (V/m) @ t=0.46
-0.562487874813183
% es.Ey (V/m) @ t=0.46
0.17869954497783125
% es.Ez (V/m) @ t=0.46
1.4590252280436968
% es.tEx (V/m) @ t=0.46
-0.5624878748131901
% es.tEy (V/m) @ t=0.46
0
% es.tEz (V/m) @ t=0.46
1.4590252280436946
% V (V) @ t=0.46
0.007683316164729222
% es.normE (V/m) @ t=0.48
1.5924594843305155
% es.EX (V/m) @ t=0.48
-0.5676141443716864
% es.EY (V/m) @ t=0.48
0.18032813143374649
% es.EZ (V/m) @ t=0.48
1.4723221460382305
% es.tEX (V/m) @ t=0.48
-0.5676141443716936
% es.tEY (V/m) @ t=0.48
0
% es.tEZ (V/m) @ t=0.48
1.4723221460382323
% es.Ex (V/m) @ t=0.48
-0.5676141443716864
% es.Ey (V/m) @ t=0.48
0.18032813143374649
% es.Ez (V/m) @ t=0.48
1.4723221460382305
% es.tEx (V/m) @ t=0.48
-0.5676141443716936
% es.tEy (V/m) @ t=0.48
0
% es.tEz (V/m) @ t=0.48
1.4723221460382323
% V (V) @ t=0.48
0.007753338707519505
% es.normE (V/m) @ t=0.5
1.6068413937201458
% es.EX (V/m) @ t=0.5
-0.5727404139301971
% es.EY (V/m) @ t=0.5
0.1819567178896625
% es.EZ (V/m) @ t=0.5
1.4856190640327704
% es.tEX (V/m) @ t=0.5
-0.5727404139302043
% es.tEY (V/m) @ t=0.5
0
% es.tEZ (V/m) @ t=0.5
1.4856190640327727
% es.Ex (V/m) @ t=0.5
-0.5727404139301971
% es.Ey (V/m) @ t=0.5
0.1819567178896625
% es.Ez (V/m) @ t=0.5
1.4856190640327704
% es.tEx (V/m) @ t=0.5
-0.5727404139302043
% es.tEy (V/m) @ t=0.5
0
% es.tEz (V/m) @ t=0.5
1.4856190640327727
% V (V) @ t=0.5
0.007823361250309788
% es.normE (V/m) @ t=0.52
1.6212233031097694
% es.EX (V/m) @ t=0.52
-0.5778666834887043
% es.EY (V/m) @ t=0.52
0.18358530434556353
% es.EZ (V/m) @ t=0.52
1.4989159820273055
% es.tEX (V/m) @ t=0.52
-0.577866683488715
% es.tEY (V/m) @ t=0.52
0
% es.tEZ (V/m) @ t=0.52
1.4989159820273077
% es.Ex (V/m) @ t=0.52
-0.5778666834887043
% es.Ey (V/m) @ t=0.52
0.18358530434556353
% es.Ez (V/m) @ t=0.52
1.4989159820273055
% es.tEx (V/m) @ t=0.52
-0.577866683488715
% es.tEy (V/m) @ t=0.52
0
% es.tEz (V/m) @ t=0.52
1.4989159820273077
% V (V) @ t=0.52
0.007893383793100069
% es.normE (V/m) @ t=0.54
1.6356052124993954
% es.EX (V/m) @ t=0.54
-0.5829929530472184
% es.EY (V/m) @ t=0.54
0.18521389080147066
% es.EZ (V/m) @ t=0.54
1.5122129000218387
% es.tEX (V/m) @ t=0.54
-0.5829929530472255
% es.tEY (V/m) @ t=0.54
0
% es.tEZ (V/m) @ t=0.54
1.5122129000218436
% es.Ex (V/m) @ t=0.54
-0.5829929530472184
% es.Ey (V/m) @ t=0.54
0.18521389080147066
% es.Ez (V/m) @ t=0.54
1.5122129000218387
% es.tEx (V/m) @ t=0.54
-0.5829929530472255
% es.tEy (V/m) @ t=0.54
0
% es.tEz (V/m) @ t=0.54
1.5122129000218436
% V (V) @ t=0.54
0.007963406335890351
% es.normE (V/m) @ t=0.56
1.6510045159773428
% es.EX (V/m) @ t=0.56
-0.5884820510857005
% es.EY (V/m) @ t=0.56
0.18695695232174703
% es.EZ (V/m) @ t=0.56
1.5264503878029179
% es.tEX (V/m) @ t=0.56
-0.5884820510857076
% es.tEY (V/m) @ t=0.56
0
% es.tEZ (V/m) @ t=0.56
1.52645038780292
% es.Ex (V/m) @ t=0.56
-0.5884820510857005
% es.Ey (V/m) @ t=0.56
0.18695695232174703
% es.Ez (V/m) @ t=0.56
1.5264503878029179
% es.tEx (V/m) @ t=0.56
-0.5884820510857076
% es.tEy (V/m) @ t=0.56
0
% es.tEz (V/m) @ t=0.56
1.52645038780292
% V (V) @ t=0.56
0.008038418702468738
% es.normE (V/m) @ t=0.58
1.6670801076874615
% es.EX (V/m) @ t=0.58
-0.5942123306223325
% es.EY (V/m) @ t=0.58
0.18877610838545178
% es.EZ (V/m) @ t=0.58
1.5413130967084414
% es.tEX (V/m) @ t=0.58
-0.594212330622336
% es.tEY (V/m) @ t=0.58
0
% es.tEZ (V/m) @ t=0.58
1.541313096708441
% es.Ex (V/m) @ t=0.58
-0.5942123306223325
% es.Ey (V/m) @ t=0.58
0.18877610838545178
% es.Ez (V/m) @ t=0.58
1.5413130967084414
% es.tEx (V/m) @ t=0.58
-0.594212330622336
% es.tEy (V/m) @ t=0.58
0
% es.tEz (V/m) @ t=0.58
1.541313096708441
% V (V) @ t=0.58
0.00811674793429648
% es.normE (V/m) @ t=0.6
1.6831556994005112
% es.EX (V/m) @ t=0.6
-0.5999426101589713
% es.EY (V/m) @ t=0.6
0.1905952644491481
% es.EZ (V/m) @ t=0.6
1.5561758056139547
% es.tEX (V/m) @ t=0.6
-0.5999426101589784
% es.tEY (V/m) @ t=0.6
0
% es.tEZ (V/m) @ t=0.6
1.5561758056139565
% es.Ex (V/m) @ t=0.6
-0.5999426101589713
% es.Ey (V/m) @ t=0.6
0.1905952644491481
% es.Ez (V/m) @ t=0.6
1.5561758056139547
% es.tEx (V/m) @ t=0.6
-0.5999426101589784
% es.tEy (V/m) @ t=0.6
0
% es.tEz (V/m) @ t=0.6
1.5561758056139565
% V (V) @ t=0.6
0.008195077166124224
% es.normE (V/m) @ t=0.62
1.699231291116432
% es.EX (V/m) @ t=0.62
-0.605672889695607
% es.EY (V/m) @ t=0.62
0.1924144205128503
% es.EZ (V/m) @ t=0.62
1.5710385145194858
% es.tEX (V/m) @ t=0.62
-0.6056728896956141
% es.tEY (V/m) @ t=0.62
0
% es.tEZ (V/m) @ t=0.62
1.5710385145194863
% es.Ex (V/m) @ t=0.62
-0.605672889695607
% es.Ey (V/m) @ t=0.62
0.1924144205128503
% es.Ez (V/m) @ t=0.62
1.5710385145194858
% es.tEx (V/m) @ t=0.62
-0.6056728896956141
% es.tEy (V/m) @ t=0.62
0
% es.tEz (V/m) @ t=0.62
1.5710385145194863
% V (V) @ t=0.62
0.008273406397951965
% es.normE (V/m) @ t=0.64
1.7153068828351121
% es.EX (V/m) @ t=0.64
-0.6114031692322388
% es.EY (V/m) @ t=0.64
0.19423357657654505
% es.EZ (V/m) @ t=0.64
1.5859012234250032
% es.tEX (V/m) @ t=0.64
-0.6114031692322495
% es.tEY (V/m) @ t=0.64
0
% es.tEZ (V/m) @ t=0.64
1.5859012234250045
% es.Ex (V/m) @ t=0.64
-0.6114031692322388
% es.Ey (V/m) @ t=0.64
0.19423357657654505
% es.Ez (V/m) @ t=0.64
1.5859012234250032
% es.tEx (V/m) @ t=0.64
-0.6114031692322495
% es.tEy (V/m) @ t=0.64
0
% es.tEz (V/m) @ t=0.64
1.5859012234250045
% V (V) @ t=0.64
0.00835173562977971
% es.normE (V/m) @ t=0.66
1.731382474556502
% es.EX (V/m) @ t=0.66
-0.6171334487688849
% es.EY (V/m) @ t=0.66
0.19605273264023992
% es.EZ (V/m) @ t=0.66
1.6007639323305285
% es.tEX (V/m) @ t=0.66
-0.617133448768892
% es.tEY (V/m) @ t=0.66
0
% es.tEZ (V/m) @ t=0.66
1.600763932330529
% es.Ex (V/m) @ t=0.66
-0.6171334487688849
% es.Ey (V/m) @ t=0.66
0.19605273264023992
% es.Ez (V/m) @ t=0.66
1.6007639323305285
% es.tEx (V/m) @ t=0.66
-0.617133448768892
% es.tEy (V/m) @ t=0.66
0
% es.tEz (V/m) @ t=0.66
1.600763932330529
% V (V) @ t=0.66
0.008430064861607451
% es.normE (V/m) @ t=0.68
1.7474580662805015
% es.EX (V/m) @ t=0.68
-0.6228637283055132
% es.EY (V/m) @ t=0.68
0.19787188870393735
% es.EZ (V/m) @ t=0.68
1.615626641236044
% es.tEX (V/m) @ t=0.68
-0.6228637283055203
% es.tEY (V/m) @ t=0.68
0
% es.tEZ (V/m) @ t=0.68
1.6156266412360436
% es.Ex (V/m) @ t=0.68
-0.6228637283055132
% es.Ey (V/m) @ t=0.68
0.19787188870393735
% es.Ez (V/m) @ t=0.68
1.615626641236044
% es.tEx (V/m) @ t=0.68
-0.6228637283055203
% es.tEy (V/m) @ t=0.68
0
% es.tEz (V/m) @ t=0.68
1.6156266412360436
% V (V) @ t=0.68
0.008508394093435196
% es.normE (V/m) @ t=0.7
1.7635336580070635
% es.EX (V/m) @ t=0.7
-0.6285940078421592
% es.EY (V/m) @ t=0.7
0.19969104476763655
% es.EZ (V/m) @ t=0.7
1.6304893501415658
% es.tEX (V/m) @ t=0.7
-0.6285940078421699
% es.tEY (V/m) @ t=0.7
0
% es.tEZ (V/m) @ t=0.7
1.6304893501415672
% es.Ex (V/m) @ t=0.7
-0.6285940078421592
% es.Ey (V/m) @ t=0.7
0.19969104476763655
% es.Ez (V/m) @ t=0.7
1.6304893501415658
% es.tEx (V/m) @ t=0.7
-0.6285940078421699
% es.tEy (V/m) @ t=0.7
0
% es.tEz (V/m) @ t=0.7
1.6304893501415672
% V (V) @ t=0.7
0.008586723325262939
% es.normE (V/m) @ t=0.72
1.779609249736112
% es.EX (V/m) @ t=0.72
-0.6343242873787984
% es.EY (V/m) @ t=0.72
0.20151020083133786
% es.EZ (V/m) @ t=0.72
1.6453520590470938
% es.tEX (V/m) @ t=0.72
-0.6343242873788055
% es.tEY (V/m) @ t=0.72
0
% es.tEZ (V/m) @ t=0.72
1.6453520590470916
% es.Ex (V/m) @ t=0.72
-0.6343242873787984
% es.Ey (V/m) @ t=0.72
0.20151020083133786
% es.Ez (V/m) @ t=0.72
1.6453520590470938
% es.tEx (V/m) @ t=0.72
-0.6343242873788055
% es.tEy (V/m) @ t=0.72
0
% es.tEz (V/m) @ t=0.72
1.6453520590470916
% V (V) @ t=0.72
0.00866505255709068
% es.normE (V/m) @ t=0.74
1.795684841467561
% es.EX (V/m) @ t=0.74
-0.6400545669154301
% es.EY (V/m) @ t=0.74
0.20332935689503917
% es.EZ (V/m) @ t=0.74
1.6602147679526094
% es.tEX (V/m) @ t=0.74
-0.6400545669154478
% es.tEY (V/m) @ t=0.74
0
% es.tEZ (V/m) @ t=0.74
1.6602147679526116
% es.Ex (V/m) @ t=0.74
-0.6400545669154301
% es.Ey (V/m) @ t=0.74
0.20332935689503917
% es.Ez (V/m) @ t=0.74
1.6602147679526094
% es.tEx (V/m) @ t=0.74
-0.6400545669154478
% es.tEy (V/m) @ t=0.74
0
% es.tEz (V/m) @ t=0.74
1.6602147679526116
% V (V) @ t=0.74
0.008743381788918425
% es.normE (V/m) @ t=0.76
1.8117604332013786
% es.EX (V/m) @ t=0.76
-0.6457848464520657
% es.EY (V/m) @ t=0.76
0.2051485129587287
% es.EZ (V/m) @ t=0.76
1.6750774768581422
% es.tEX (V/m) @ t=0.76
-0.6457848464520763
% es.tEY (V/m) @ t=0.76
0
% es.tEZ (V/m) @ t=0.76
1.6750774768581405
% es.Ex (V/m) @ t=0.76
-0.6457848464520657
% es.Ey (V/m) @ t=0.76
0.2051485129587287
% es.Ez (V/m) @ t=0.76
1.6750774768581422
% es.tEx (V/m) @ t=0.76
-0.6457848464520763
% es.tEy (V/m) @ t=0.76
0
% es.tEz (V/m) @ t=0.76
1.6750774768581405
% V (V) @ t=0.76
0.008821711020746166
% es.normE (V/m) @ t=0.78
1.8278360249374652
% es.EX (V/m) @ t=0.78
-0.6515151259887046
% es.EY (V/m) @ t=0.78
0.20696766902242536
% es.EZ (V/m) @ t=0.78
1.689940185763652
% es.tEX (V/m) @ t=0.78
-0.6515151259887118
% es.tEY (V/m) @ t=0.78
0
% es.tEZ (V/m) @ t=0.78
1.6899401857636542
% es.Ex (V/m) @ t=0.78
-0.6515151259887046
% es.Ey (V/m) @ t=0.78
0.20696766902242536
% es.Ez (V/m) @ t=0.78
1.689940185763652
% es.tEx (V/m) @ t=0.78
-0.6515151259887118
% es.tEy (V/m) @ t=0.78
0
% es.tEz (V/m) @ t=0.78
1.6899401857636542
% V (V) @ t=0.78
0.008900040252573911
% es.normE (V/m) @ t=0.8
1.8439116166757965
% es.EX (V/m) @ t=0.8
-0.6572454055253365
% es.EY (V/m) @ t=0.8
0.20878682508612734
% es.EZ (V/m) @ t=0.8
1.70480289466918
% es.tEX (V/m) @ t=0.8
-0.6572454055253472
% es.tEY (V/m) @ t=0.8
0
% es.tEZ (V/m) @ t=0.8
1.704802894669183
% es.Ex (V/m) @ t=0.8
-0.6572454055253365
% es.Ey (V/m) @ t=0.8
0.20878682508612734
% es.Ez (V/m) @ t=0.8
1.70480289466918
% es.tEx (V/m) @ t=0.8
-0.6572454055253472
% es.tEy (V/m) @ t=0.8
0
% es.tEz (V/m) @ t=0.8
1.704802894669183
% V (V) @ t=0.8
0.008978369484401656
% es.normE (V/m) @ t=0.82
1.8599872084162907
% es.EX (V/m) @ t=0.82
-0.6629756850619684
% es.EY (V/m) @ t=0.82
0.21060598114982643
% es.EZ (V/m) @ t=0.82
1.719665603574699
% es.tEX (V/m) @ t=0.82
-0.6629756850619755
% es.tEY (V/m) @ t=0.82
0
% es.tEZ (V/m) @ t=0.82
1.7196656035747013
% es.Ex (V/m) @ t=0.82
-0.6629756850619684
% es.Ey (V/m) @ t=0.82
0.21060598114982643
% es.Ez (V/m) @ t=0.82
1.719665603574699
% es.tEx (V/m) @ t=0.82
-0.6629756850619755
% es.tEy (V/m) @ t=0.82
0
% es.tEz (V/m) @ t=0.82
1.7196656035747013
% V (V) @ t=0.82
0.009056698716229397
% es.normE (V/m) @ t=0.84
1.8777751870097532
% es.EX (V/m) @ t=0.84
-0.6693158479634496
% es.EY (V/m) @ t=0.84
0.2126208897147761
% es.EZ (V/m) @ t=0.84
1.7361116923514213
% es.tEX (V/m) @ t=0.84
-0.6693158479634673
% es.tEY (V/m) @ t=0.84
0
% es.tEZ (V/m) @ t=0.84
1.736111692351427
% es.Ex (V/m) @ t=0.84
-0.6693158479634496
% es.Ey (V/m) @ t=0.84
0.2126208897147761
% es.Ez (V/m) @ t=0.84
1.7361116923514213
% es.tEx (V/m) @ t=0.84
-0.6693158479634673
% es.tEy (V/m) @ t=0.84
0
% es.tEz (V/m) @ t=0.84
1.736111692351427
% V (V) @ t=0.84
0.009143273777428115
% es.normE (V/m) @ t=0.86
1.895740696240634
% es.EX (V/m) @ t=0.86
-0.6757192401413202
% es.EY (V/m) @ t=0.86
0.21465609279786135
% es.EZ (V/m) @ t=0.86
1.7527219370459441
% es.tEX (V/m) @ t=0.86
-0.6757192401413344
% es.tEY (V/m) @ t=0.86
0
% es.tEZ (V/m) @ t=0.86
1.7527219370459441
% es.Ex (V/m) @ t=0.86
-0.6757192401413202
% es.Ey (V/m) @ t=0.86
0.21465609279786135
% es.Ez (V/m) @ t=0.86
1.7527219370459441
% es.tEx (V/m) @ t=0.86
-0.6757192401413344
% es.tEy (V/m) @ t=0.86
0
% es.tEz (V/m) @ t=0.86
1.7527219370459441
% V (V) @ t=0.86
0.009230703719829399
% es.normE (V/m) @ t=0.88
1.9137062054731337
% es.EX (V/m) @ t=0.88
-0.6821226323191805
% es.EY (V/m) @ t=0.88
0.2166912958809335
% es.EZ (V/m) @ t=0.88
1.7693321817404675
% es.tEX (V/m) @ t=0.88
-0.6821226323191876
% es.tEY (V/m) @ t=0.88
0
% es.tEZ (V/m) @ t=0.88
1.7693321817404648
% es.Ex (V/m) @ t=0.88
-0.6821226323191805
% es.Ey (V/m) @ t=0.88
0.2166912958809335
% es.Ez (V/m) @ t=0.88
1.7693321817404675
% es.tEx (V/m) @ t=0.88
-0.6821226323191876
% es.tEy (V/m) @ t=0.88
0
% es.tEz (V/m) @ t=0.88
1.7693321817404648
% V (V) @ t=0.88
0.009318133662230683
% es.normE (V/m) @ t=0.9
1.9316717147072096
% es.EX (V/m) @ t=0.9
-0.6885260244970405
% es.EY (V/m) @ t=0.9
0.21872649896402963
% es.EZ (V/m) @ t=0.9
1.7859424264349846
% es.tEX (V/m) @ t=0.9
-0.6885260244970547
% es.tEY (V/m) @ t=0.9
0
% es.tEZ (V/m) @ t=0.9
1.785942426434989
% es.Ex (V/m) @ t=0.9
-0.6885260244970405
% es.Ey (V/m) @ t=0.9
0.21872649896402963
% es.Ez (V/m) @ t=0.9
1.7859424264349846
% es.tEx (V/m) @ t=0.9
-0.6885260244970547
% es.tEy (V/m) @ t=0.9
0
% es.tEz (V/m) @ t=0.9
1.785942426434989
% V (V) @ t=0.9
0.009405563604631965
% es.normE (V/m) @ t=0.92
1.9496372239428308
% es.EX (V/m) @ t=0.92
-0.6949294166749042
% es.EY (V/m) @ t=0.92
0.22076170204710444
% es.EZ (V/m) @ t=0.92
1.8025526711295123
% es.tEX (V/m) @ t=0.92
-0.6949294166749148
% es.tEY (V/m) @ t=0.92
0
% es.tEZ (V/m) @ t=0.92
1.802552671129515
% es.Ex (V/m) @ t=0.92
-0.6949294166749042
% es.Ey (V/m) @ t=0.92
0.22076170204710444
% es.Ez (V/m) @ t=0.92
1.8025526711295123
% es.tEx (V/m) @ t=0.92
-0.6949294166749148
% es.tEy (V/m) @ t=0.92
0
% es.tEz (V/m) @ t=0.92
1.802552671129515
% V (V) @ t=0.92
0.009492993547033248
% es.normE (V/m) @ t=0.94
1.967602733179949
% es.EX (V/m) @ t=0.94
-0.7013328088527819
% es.EY (V/m) @ t=0.94
0.22279690513017814
% es.EZ (V/m) @ t=0.94
1.8191629158240383
% es.tEX (V/m) @ t=0.94
-0.701332808852789
% es.tEY (V/m) @ t=0.94
0
% es.tEZ (V/m) @ t=0.94
1.8191629158240339
% es.Ex (V/m) @ t=0.94
-0.7013328088527819
% es.Ey (V/m) @ t=0.94
0.22279690513017814
% es.Ez (V/m) @ t=0.94
1.8191629158240383
% es.tEx (V/m) @ t=0.94
-0.701332808852789
% es.tEy (V/m) @ t=0.94
0
% es.tEz (V/m) @ t=0.94
1.8191629158240339
% V (V) @ t=0.94
0.009580423489434532
% es.normE (V/m) @ t=0.96
1.9855682424185082
% es.EX (V/m) @ t=0.96
-0.7077362010306385
% es.EY (V/m) @ t=0.96
0.22483210821326183
% es.EZ (V/m) @ t=0.96
1.835773160518558
% es.tEX (V/m) @ t=0.96
-0.707736201030642
% es.tEY (V/m) @ t=0.96
0
% es.tEZ (V/m) @ t=0.96
1.8357731605185617
% es.Ex (V/m) @ t=0.96
-0.7077362010306385
% es.Ey (V/m) @ t=0.96
0.22483210821326183
% es.Ez (V/m) @ t=0.96
1.835773160518558
% es.tEx (V/m) @ t=0.96
-0.707736201030642
% es.tEy (V/m) @ t=0.96
0
% es.tEz (V/m) @ t=0.96
1.8357731605185617
% V (V) @ t=0.96
0.009667853431835814
% es.normE (V/m) @ t=0.98
2.003533751658485
% es.EX (V/m) @ t=0.98
-0.7141395932085127
% es.EY (V/m) @ t=0.98
0.22686731129634707
% es.EZ (V/m) @ t=0.98
1.8523834052130752
% es.tEX (V/m) @ t=0.98
-0.7141395932085163
% es.tEY (V/m) @ t=0.98
0
% es.tEZ (V/m) @ t=0.98
1.8523834052130752
% es.Ex (V/m) @ t=0.98
-0.7141395932085127
% es.Ey (V/m) @ t=0.98
0.22686731129634707
% es.Ez (V/m) @ t=0.98
1.8523834052130752
% es.tEx (V/m) @ t=0.98
-0.7141395932085163
% es.tEy (V/m) @ t=0.98
0
% es.tEz (V/m) @ t=0.98
1.8523834052130752
% V (V) @ t=0.98
0.009755283374237096
% es.normE (V/m) @ t=1
2.021499260899832
% es.EX (V/m) @ t=1
-0.7205429853863622
% es.EY (V/m) @ t=1
0.22890251437942455
% es.EZ (V/m) @ t=1
1.8689936499075968
% es.tEX (V/m) @ t=1
-0.7205429853863693
% es.tEY (V/m) @ t=1
0
% es.tEZ (V/m) @ t=1
1.8689936499076083
% es.Ex (V/m) @ t=1
-0.7205429853863622
% es.Ey (V/m) @ t=1
0.22890251437942455
% es.Ez (V/m) @ t=1
1.8689936499075968
% es.tEx (V/m) @ t=1
-0.7205429853863693
% es.tEy (V/m) @ t=1
0
% es.tEz (V/m) @ t=1
1.8689936499076083
% V (V) @ t=1
0.009842713316638382
% es.normE (V/m) @ t=1.02
2.039464770142537
% es.EX (V/m) @ t=1.02
-0.7269463775642365
% es.EY (V/m) @ t=1.02
0.2309377174625098
% es.EZ (V/m) @ t=1.02
1.8856038946021254
% es.tEX (V/m) @ t=1.02
-0.7269463775642436
% es.tEY (V/m) @ t=1.02
0
% es.tEZ (V/m) @ t=1.02
1.885603894602136
% es.Ex (V/m) @ t=1.02
-0.7269463775642365
% es.Ey (V/m) @ t=1.02
0.2309377174625098
% es.Ez (V/m) @ t=1.02
1.8856038946021254
% es.tEx (V/m) @ t=1.02
-0.7269463775642436
% es.tEy (V/m) @ t=1.02
0
% es.tEz (V/m) @ t=1.02
1.885603894602136
% V (V) @ t=1.02
0.009930143259039665
% es.normE (V/m) @ t=1.04
2.0574302793865407
% es.EX (V/m) @ t=1.04
-0.7333497697420966
% es.EY (V/m) @ t=1.04
0.23297292054559282
% es.EZ (V/m) @ t=1.04
1.9022141392966532
% es.tEX (V/m) @ t=1.04