% Model:              1 neuron.mph
% Version:            COMSOL 6.0.0.405
% Date:               Mar 16 2023, 17:31
% Dimension:          0
% Nodes:              14017
% Expressions:        14017
% Description:        Electric field norm, Electric field, X component, Electric field, Y component, Electric field, Z component, Tangential electric field, X component, Tangential electric field, Y component, Tangential electric field, Z component, Electric field, x component, Electric field, y component, Electric field, z component, Tangential electric field, x component, Tangential electric field, y component, Tangential electric field, z component, Electric potential
% Length unit:        mm
% x
1.66
% y
12.2
% z
2
% es.normE (V/m) @ t=0
1.465168498861981
% es.EX (V/m) @ t=0
-0.4370902976296914
% es.EY (V/m) @ t=0
0.03264848408500356
% es.EZ (V/m) @ t=0
-1.39571933813806
% es.tEX (V/m) @ t=0
-0.4370902976296911
% es.tEY (V/m) @ t=0
0
% es.tEZ (V/m) @ t=0
-1.395719338138072
% es.Ex (V/m) @ t=0
-0.4370902976296914
% es.Ey (V/m) @ t=0
0.03264848408500356
% es.Ez (V/m) @ t=0
-1.39571933813806
% es.tEx (V/m) @ t=0
-0.4370902976296911
% es.tEy (V/m) @ t=0
0
% es.tEz (V/m) @ t=0
-1.395719338138072
% V (V) @ t=0
0.007364551248423071
% es.normE (V/m) @ t=0.02
1.2654961468397676
% es.EX (V/m) @ t=0.02
-0.3775238776354198
% es.EY (V/m) @ t=0.02
0.028199174040938003
% es.EZ (V/m) @ t=0.02
-1.205511477737459
% es.tEX (V/m) @ t=0.02
-0.37752387763542217
% es.tEY (V/m) @ t=0.02
0
% es.tEZ (V/m) @ t=0.02
-1.2055114777374683
% es.Ex (V/m) @ t=0.02
-0.3775238776354198
% es.Ey (V/m) @ t=0.02
0.028199174040938003
% es.Ez (V/m) @ t=0.02
-1.205511477737459
% es.tEx (V/m) @ t=0.02
-0.37752387763542217
% es.tEy (V/m) @ t=0.02
0
% es.tEz (V/m) @ t=0.02
-1.2055114777374683
% V (V) @ t=0.02
0.006360914001041694
% es.normE (V/m) @ t=0.04
1.2771383169138613
% es.EX (V/m) @ t=0.04
-0.3809969864338117
% es.EY (V/m) @ t=0.04
0.028458610616734374
% es.EZ (V/m) @ t=0.04
-1.216601804781046
% es.tEX (V/m) @ t=0.04
-0.3809969864338143
% es.tEY (V/m) @ t=0.04
0
% es.tEZ (V/m) @ t=0.04
-1.2166018047810536
% es.Ex (V/m) @ t=0.04
-0.3809969864338117
% es.Ey (V/m) @ t=0.04
0.028458610616734374
% es.Ez (V/m) @ t=0.04
-1.216601804781046
% es.tEx (V/m) @ t=0.04
-0.3809969864338143
% es.tEy (V/m) @ t=0.04
0
% es.tEz (V/m) @ t=0.04
-1.2166018047810536
% V (V) @ t=0.04
0.006419431929630415
% es.normE (V/m) @ t=0.06
1.288884419872784
% es.EX (V/m) @ t=0.06
-0.38450108834758456
% es.EY (V/m) @ t=0.06
0.028720339807987265
% es.EZ (V/m) @ t=0.06
-1.2277911432651578
% es.tEX (V/m) @ t=0.06
-0.3845010883475872
% es.tEY (V/m) @ t=0.06
0
% es.tEZ (V/m) @ t=0.06
-1.227791143265172
% es.Ex (V/m) @ t=0.06
-0.38450108834758456
% es.Ey (V/m) @ t=0.06
0.028720339807987265
% es.Ez (V/m) @ t=0.06
-1.2277911432651578
% es.tEx (V/m) @ t=0.06
-0.3845010883475872
% es.tEy (V/m) @ t=0.06
0
% es.tEz (V/m) @ t=0.06
-1.227791143265172
% V (V) @ t=0.06
0.006478473162151588
% es.normE (V/m) @ t=0.08
1.3008122235469028
% es.EX (V/m) @ t=0.08
-0.3880594671299142
% es.EY (V/m) @ t=0.08
0.028986254732796535
% es.EZ (V/m) @ t=0.08
-1.2391535405660448
% es.tEX (V/m) @ t=0.08
-0.3880594671299171
% es.tEY (V/m) @ t=0.08
0
% es.tEZ (V/m) @ t=0.08
-1.2391535405660603
% es.Ex (V/m) @ t=0.08
-0.3880594671299142
% es.Ey (V/m) @ t=0.08
0.028986254732796535
% es.Ez (V/m) @ t=0.08
-1.2391535405660448
% es.tEx (V/m) @ t=0.08
-0.3880594671299171
% es.tEy (V/m) @ t=0.08
0
% es.tEz (V/m) @ t=0.08
-1.2391535405660603
% V (V) @ t=0.08
0.006538422457029064
% es.normE (V/m) @ t=0.1
1.3128612425665738
% es.EX (V/m) @ t=0.1
-0.39165405484718463
% es.EY (V/m) @ t=0.1
0.029254962024951994
% es.EZ (V/m) @ t=0.1
-1.2506313880689093
% es.tEX (V/m) @ t=0.1
-0.3916540548471872
% es.tEY (V/m) @ t=0.1
0
% es.tEZ (V/m) @ t=0.1
-1.2506313880689275
% es.Ex (V/m) @ t=0.1
-0.39165405484718463
% es.Ey (V/m) @ t=0.1
0.029254962024951994
% es.Ez (V/m) @ t=0.1
-1.2506313880689093
% es.tEx (V/m) @ t=0.1
-0.3916540548471872
% es.tEy (V/m) @ t=0.1
0
% es.tEz (V/m) @ t=0.1
-1.2506313880689275
% V (V) @ t=0.1
0.006598977534289752
% es.normE (V/m) @ t=0.12
1.3249102615862962
% es.EX (V/m) @ t=0.12
-0.3952486425644476
% es.EY (V/m) @ t=0.12
0.029523669317088698
% es.EZ (V/m) @ t=0.12
-1.2621092355717738
% es.tEX (V/m) @ t=0.12
-0.39524864256445014
% es.tEY (V/m) @ t=0.12
0
% es.tEZ (V/m) @ t=0.12
-1.2621092355717938
% es.Ex (V/m) @ t=0.12
-0.3952486425644476
% es.Ey (V/m) @ t=0.12
0.029523669317088698
% es.Ez (V/m) @ t=0.12
-1.2621092355717738
% es.tEx (V/m) @ t=0.12
-0.39524864256445014
% es.tEy (V/m) @ t=0.12
0
% es.tEz (V/m) @ t=0.12
-1.2621092355717938
% V (V) @ t=0.12
0.0066595326115504415
% es.normE (V/m) @ t=0.14
1.337093684106324
% es.EX (V/m) @ t=0.14
-0.39888328988854094
% es.EY (V/m) @ t=0.14
0.02979530333262581
% es.EZ (V/m) @ t=0.14
-1.27371513041478
% es.tEX (V/m) @ t=0.14
-0.3988832898885448
% es.tEY (V/m) @ t=0.14
0
% es.tEZ (V/m) @ t=0.14
-1.2737151304147938
% es.Ex (V/m) @ t=0.14
-0.39888328988854094
% es.Ey (V/m) @ t=0.14
0.02979530333262581
% es.Ez (V/m) @ t=0.14
-1.27371513041478
% es.tEx (V/m) @ t=0.14
-0.3988832898885448
% es.tEy (V/m) @ t=0.14
0
% es.tEz (V/m) @ t=0.14
-1.2737151304147938
% V (V) @ t=0.14
0.006720765869064515
% es.normE (V/m) @ t=0.16
1.3497839127182387
% es.EX (V/m) @ t=0.16
-0.4026689931950983
% es.EY (V/m) @ t=0.16
0.030077973379539734
% es.EZ (V/m) @ t=0.16
-1.2858038636653326
% es.tEX (V/m) @ t=0.16
-0.40266899319509974
% es.tEY (V/m) @ t=0.16
0
% es.tEZ (V/m) @ t=0.16
-1.2858038636653406
% es.Ex (V/m) @ t=0.16
-0.4026689931950983
% es.Ey (V/m) @ t=0.16
0.030077973379539734
% es.Ez (V/m) @ t=0.16
-1.2858038636653326
% es.tEx (V/m) @ t=0.16
-0.40266899319509974
% es.tEy (V/m) @ t=0.16
0
% es.tEz (V/m) @ t=0.16
-1.2858038636653406
% V (V) @ t=0.16
0.006784556395423311
% es.normE (V/m) @ t=0.18
1.3624741413301578
% es.EX (V/m) @ t=0.18
-0.40645469650165705
% es.EY (V/m) @ t=0.18
0.03036064342645111
% es.EZ (V/m) @ t=0.18
-1.297892596915874
% es.tEX (V/m) @ t=0.18
-0.40645469650166177
% es.tEY (V/m) @ t=0.18
0
% es.tEZ (V/m) @ t=0.18
-1.2978925969158803
% es.Ex (V/m) @ t=0.18
-0.40645469650165705
% es.Ey (V/m) @ t=0.18
0.03036064342645111
% es.Ez (V/m) @ t=0.18
-1.297892596915874
% es.tEx (V/m) @ t=0.18
-0.40645469650166177
% es.tEy (V/m) @ t=0.18
0
% es.tEz (V/m) @ t=0.18
-1.2978925969158803
% V (V) @ t=0.18
0.006848346921782107
% es.normE (V/m) @ t=0.2
1.3751643699421083
% es.EX (V/m) @ t=0.2
-0.4102403998082156
% es.EY (V/m) @ t=0.2
0.030643313473362424
% es.EZ (V/m) @ t=0.2
-1.3099813301664347
% es.tEX (V/m) @ t=0.2
-0.41024039980822025
% es.tEY (V/m) @ t=0.2
0
% es.tEZ (V/m) @ t=0.2
-1.3099813301664476
% es.Ex (V/m) @ t=0.2
-0.4102403998082156
% es.Ey (V/m) @ t=0.2
0.030643313473362424
% es.Ez (V/m) @ t=0.2
-1.3099813301664347
% es.tEx (V/m) @ t=0.2
-0.41024039980822025
% es.tEy (V/m) @ t=0.2
0
% es.tEz (V/m) @ t=0.2
-1.3099813301664476
% V (V) @ t=0.2
0.006912137448140905
% es.normE (V/m) @ t=0.22
1.3878545985540582
% es.EX (V/m) @ t=0.22
-0.4140261031147725
% es.EY (V/m) @ t=0.22
0.030925983520277277
% es.EZ (V/m) @ t=0.22
-1.3220700634169802
% es.tEX (V/m) @ t=0.22
-0.4140261031147716
% es.tEY (V/m) @ t=0.22
0
% es.tEZ (V/m) @ t=0.22
-1.3220700634169944
% es.Ex (V/m) @ t=0.22
-0.4140261031147725
% es.Ey (V/m) @ t=0.22
0.030925983520277277
% es.Ez (V/m) @ t=0.22
-1.3220700634169802
% es.tEx (V/m) @ t=0.22
-0.4140261031147716
% es.tEy (V/m) @ t=0.22
0
% es.tEz (V/m) @ t=0.22
-1.3220700634169944
% V (V) @ t=0.22
0.006975927974499704
% es.normE (V/m) @ t=0.24
1.4005448271660215
% es.EX (V/m) @ t=0.24
-0.4178118064213303
% es.EY (V/m) @ t=0.24
0.031208653567184982
% es.EZ (V/m) @ t=0.24
-1.3341587966675257
% es.tEX (V/m) @ t=0.24
-0.41781180642133364
% es.tEY (V/m) @ t=0.24
0
% es.tEZ (V/m) @ t=0.24
-1.3341587966675412
% es.Ex (V/m) @ t=0.24
-0.4178118064213303
% es.Ey (V/m) @ t=0.24
0.031208653567184982
% es.Ez (V/m) @ t=0.24
-1.3341587966675257
% es.tEx (V/m) @ t=0.24
-0.41781180642133364
% es.tEy (V/m) @ t=0.24
0
% es.tEz (V/m) @ t=0.24
-1.3341587966675412
% V (V) @ t=0.24
0.007039718500858501
% es.normE (V/m) @ t=0.26
1.4132350557780011
% es.EX (V/m) @ t=0.26
-0.42159750972788723
% es.EY (V/m) @ t=0.26
0.03149132361409447
% es.EZ (V/m) @ t=0.26
-1.3462475299180747
% es.tEX (V/m) @ t=0.26
-0.4215975097278921
% es.tEY (V/m) @ t=0.26
0
% es.tEZ (V/m) @ t=0.26
-1.3462475299180943
% es.Ex (V/m) @ t=0.26
-0.42159750972788723
% es.Ey (V/m) @ t=0.26
0.03149132361409447
% es.Ez (V/m) @ t=0.26
-1.3462475299180747
% es.tEx (V/m) @ t=0.26
-0.4215975097278921
% es.tEy (V/m) @ t=0.26
0
% es.tEz (V/m) @ t=0.26
-1.3462475299180943
% V (V) @ t=0.26
0.007103509027217299
% es.normE (V/m) @ t=0.28
1.4265444441046689
% es.EX (V/m) @ t=0.28
-0.42556755516390954
% es.EY (V/m) @ t=0.28
0.03178709152403364
% es.EZ (V/m) @ t=0.28
-1.3589262240609123
% es.tEX (V/m) @ t=0.28
-0.4255675551639122
% es.tEY (V/m) @ t=0.28
0
% es.tEZ (V/m) @ t=0.28
-1.3589262240609257
% es.Ex (V/m) @ t=0.28
-0.42556755516390954
% es.Ey (V/m) @ t=0.28
0.03178709152403364
% es.Ez (V/m) @ t=0.28
-1.3589262240609123
% es.tEx (V/m) @ t=0.28
-0.4255675551639122
% es.tEy (V/m) @ t=0.28
0
% es.tEz (V/m) @ t=0.28
-1.3589262240609257
% V (V) @ t=0.28
0.007170438388987747
% es.normE (V/m) @ t=0.3
1.4406774278618362
% es.EX (V/m) @ t=0.3
-0.42978280927785195
% es.EY (V/m) @ t=0.3
0.03210028198235896
% es.EZ (V/m) @ t=0.3
-1.372389673868899
% es.tEX (V/m) @ t=0.3
-0.42978280927785306
% es.tEY (V/m) @ t=0.3
0
% es.tEZ (V/m) @ t=0.3
-1.3723896738689074
% es.Ex (V/m) @ t=0.3
-0.42978280927785195
% es.Ey (V/m) @ t=0.3
0.03210028198235896
% es.Ez (V/m) @ t=0.3
-1.372389673868899
% es.tEx (V/m) @ t=0.3
-0.42978280927785306
% es.tEy (V/m) @ t=0.3
0
% es.tEz (V/m) @ t=0.3
-1.3723896738689074
% V (V) @ t=0.3
0.007241542974749154
% es.normE (V/m) @ t=0.32
1.454810411622085
% es.EX (V/m) @ t=0.32
-0.4339980633917955
% es.EY (V/m) @ t=0.32
0.03241347244067865
% es.EZ (V/m) @ t=0.32
-1.3858531236768705
% es.tEX (V/m) @ t=0.32
-0.4339980633917939
% es.tEY (V/m) @ t=0.32
0
% es.tEZ (V/m) @ t=0.32
-1.385853123676882
% es.Ex (V/m) @ t=0.32
-0.4339980633917955
% es.Ey (V/m) @ t=0.32
0.03241347244067865
% es.Ez (V/m) @ t=0.32
-1.3858531236768705
% es.tEx (V/m) @ t=0.32
-0.4339980633917939
% es.tEy (V/m) @ t=0.32
0
% es.tEz (V/m) @ t=0.32
-1.385853123676882
% V (V) @ t=0.32
0.007312647560510562
% es.normE (V/m) @ t=0.34
1.4689433953853397
% es.EX (V/m) @ t=0.34
-0.438213317505738
% es.EY (V/m) @ t=0.34
0.03272666289900061
% es.EZ (V/m) @ t=0.34
-1.3993165734848425
% es.tEX (V/m) @ t=0.34
-0.4382133175057419
% es.tEY (V/m) @ t=0.34
0
% es.tEZ (V/m) @ t=0.34
-1.3993165734848567
% es.Ex (V/m) @ t=0.34
-0.438213317505738
% es.Ey (V/m) @ t=0.34
0.03272666289900061
% es.Ez (V/m) @ t=0.34
-1.3993165734848425
% es.tEx (V/m) @ t=0.34
-0.4382133175057419
% es.tEy (V/m) @ t=0.34
0
% es.tEz (V/m) @ t=0.34
-1.3993165734848567
% V (V) @ t=0.34
0.00738375214627197
% es.normE (V/m) @ t=0.36
1.4830763791515293
% es.EX (V/m) @ t=0.36
-0.4424285716196823
% es.EY (V/m) @ t=0.36
0.033039853357323255
% es.EZ (V/m) @ t=0.36
-1.4127800232928291
% es.tEX (V/m) @ t=0.36
-0.4424285716196863
% es.tEY (V/m) @ t=0.36
0
% es.tEZ (V/m) @ t=0.36
-1.4127800232928376
% es.Ex (V/m) @ t=0.36
-0.4424285716196823
% es.Ey (V/m) @ t=0.36
0.033039853357323255
% es.Ez (V/m) @ t=0.36
-1.4127800232928291
% es.tEx (V/m) @ t=0.36
-0.4424285716196863
% es.tEy (V/m) @ t=0.36
0
% es.tEz (V/m) @ t=0.36
-1.4127800232928376
% V (V) @ t=0.36
0.007454856732033378
% es.normE (V/m) @ t=0.38
1.497209362920536
% es.EX (V/m) @ t=0.38
-0.4466438257336231
% es.EY (V/m) @ t=0.38
0.03335304381565299
% es.EZ (V/m) @ t=0.38
-1.426243473100794
% es.tEX (V/m) @ t=0.38
-0.44664382573362715
% es.tEY (V/m) @ t=0.38
0
% es.tEZ (V/m) @ t=0.38
-1.4262434731008122
% es.Ex (V/m) @ t=0.38
-0.4466438257336231
% es.Ey (V/m) @ t=0.38
0.03335304381565299
% es.Ez (V/m) @ t=0.38
-1.426243473100794
% es.tEx (V/m) @ t=0.38
-0.44664382573362715
% es.tEy (V/m) @ t=0.38
0
% es.tEz (V/m) @ t=0.38
-1.4262434731008122
% V (V) @ t=0.38
0.007525961317794784
% es.normE (V/m) @ t=0.4
1.5113423466923144
% es.EX (V/m) @ t=0.4
-0.45085907984756834
% es.EY (V/m) @ t=0.4
0.03366623427397649
% es.EZ (V/m) @ t=0.4
-1.4397069229087731
% es.tEX (V/m) @ t=0.4
-0.450859079847568
% es.tEY (V/m) @ t=0.4
0
% es.tEZ (V/m) @ t=0.4
-1.439706922908794
% es.Ex (V/m) @ t=0.4
-0.45085907984756834
% es.Ey (V/m) @ t=0.4
0.03366623427397649
% es.Ez (V/m) @ t=0.4
-1.4397069229087731
% es.tEx (V/m) @ t=0.4
-0.450859079847568
% es.tEy (V/m) @ t=0.4
0
% es.tEz (V/m) @ t=0.4
-1.439706922908794
% V (V) @ t=0.4
0.007597065903556192
% es.normE (V/m) @ t=0.42
1.5254753304667732
% es.EX (V/m) @ t=0.42
-0.45507433396150554
% es.EY (V/m) @ t=0.42
0.03397942473230536
% es.EZ (V/m) @ t=0.42
-1.4531703727167526
% es.tEX (V/m) @ t=0.42
-0.4550743339615124
% es.tEY (V/m) @ t=0.42
0
% es.tEZ (V/m) @ t=0.42
-1.4531703727167606
% es.Ex (V/m) @ t=0.42
-0.45507433396150554
% es.Ey (V/m) @ t=0.42
0.03397942473230536
% es.Ez (V/m) @ t=0.42
-1.4531703727167526
% es.tEx (V/m) @ t=0.42
-0.4550743339615124
% es.tEy (V/m) @ t=0.42
0
% es.tEz (V/m) @ t=0.42
-1.4531703727167606
% V (V) @ t=0.42
0.0076681704893176
% es.normE (V/m) @ t=0.44
1.5396083142438346
% es.EX (V/m) @ t=0.44
-0.4592895880754543
% es.EY (V/m) @ t=0.44
0.034292615190617985
% es.EZ (V/m) @ t=0.44
-1.4666338225247246
% es.tEX (V/m) @ t=0.44
-0.4592895880754604
% es.tEY (V/m) @ t=0.44
0
% es.tEZ (V/m) @ t=0.44
-1.4666338225247353
% es.Ex (V/m) @ t=0.44
-0.4592895880754543
% es.Ey (V/m) @ t=0.44
0.034292615190617985
% es.Ez (V/m) @ t=0.44
-1.4666338225247246
% es.tEx (V/m) @ t=0.44
-0.4592895880754604
% es.tEy (V/m) @ t=0.44
0
% es.tEz (V/m) @ t=0.44
-1.4666338225247353
% V (V) @ t=0.44
0.0077392750750790084
% es.normE (V/m) @ t=0.46
1.5537412980234375
% es.EX (V/m) @ t=0.46
-0.46350484218939336
% es.EY (V/m) @ t=0.46
0.0346058056489539
% es.EZ (V/m) @ t=0.46
-1.4800972723327037
% es.tEX (V/m) @ t=0.46
-0.4635048421893977
% es.tEY (V/m) @ t=0.46
0
% es.tEZ (V/m) @ t=0.46
-1.480097272332717
% es.Ex (V/m) @ t=0.46
-0.46350484218939336
% es.Ey (V/m) @ t=0.46
0.0346058056489539
% es.Ez (V/m) @ t=0.46
-1.4800972723327037
% es.tEx (V/m) @ t=0.46
-0.4635048421893977
% es.tEy (V/m) @ t=0.46
0
% es.tEz (V/m) @ t=0.46
-1.480097272332717
% V (V) @ t=0.46
0.007810379660840415
% es.normE (V/m) @ t=0.48
1.5678742818055018
% es.EX (V/m) @ t=0.48
-0.467720096303334
% es.EY (V/m) @ t=0.48
0.034918996107274114
% es.EZ (V/m) @ t=0.48
-1.4935607221406761
% es.tEX (V/m) @ t=0.48
-0.467720096303335
% es.tEY (V/m) @ t=0.48
0
% es.tEZ (V/m) @ t=0.48
-1.4935607221406846
% es.Ex (V/m) @ t=0.48
-0.467720096303334
% es.Ey (V/m) @ t=0.48
0.034918996107274114
% es.Ez (V/m) @ t=0.48
-1.4935607221406761
% es.tEx (V/m) @ t=0.48
-0.467720096303335
% es.tEy (V/m) @ t=0.48
0
% es.tEz (V/m) @ t=0.48
-1.4935607221406846
% V (V) @ t=0.48
0.007881484246601822
% es.normE (V/m) @ t=0.5
1.5820072655899602
% es.EX (V/m) @ t=0.5
-0.4719353504172731
% es.EY (V/m) @ t=0.5
0.03523218656559939
% es.EZ (V/m) @ t=0.5
-1.507024171948641
% es.tEX (V/m) @ t=0.5
-0.4719353504172794
% es.tEY (V/m) @ t=0.5
0
% es.tEZ (V/m) @ t=0.5
-1.5070241719486583
% es.Ex (V/m) @ t=0.5
-0.4719353504172731
% es.Ey (V/m) @ t=0.5
0.03523218656559939
% es.Ez (V/m) @ t=0.5
-1.507024171948641
% es.tEx (V/m) @ t=0.5
-0.4719353504172794
% es.tEy (V/m) @ t=0.5
0
% es.tEz (V/m) @ t=0.5
-1.5070241719486583
% V (V) @ t=0.5
0.00795258883236323
% es.normE (V/m) @ t=0.52
1.5961402493767787
% es.EX (V/m) @ t=0.52
-0.47615060453122104
% es.EY (V/m) @ t=0.52
0.03554537702392645
% es.EZ (V/m) @ t=0.52
-1.5204876217566268
% es.tEX (V/m) @ t=0.52
-0.4761506045312274
% es.tEY (V/m) @ t=0.52
0
% es.tEZ (V/m) @ t=0.52
-1.52048762175664
% es.Ex (V/m) @ t=0.52
-0.47615060453122104
% es.Ey (V/m) @ t=0.52
0.03554537702392645
% es.Ez (V/m) @ t=0.52
-1.5204876217566268
% es.tEx (V/m) @ t=0.52
-0.4761506045312274
% es.tEy (V/m) @ t=0.52
0
% es.tEz (V/m) @ t=0.52
-1.52048762175664
% V (V) @ t=0.52
0.008023693418124637
% es.normE (V/m) @ t=0.54
1.6102732331658671
% es.EX (V/m) @ t=0.54
-0.48036585864516435
% es.EY (V/m) @ t=0.54
0.035858567482246216
% es.EZ (V/m) @ t=0.54
-1.5339510715646067
% es.tEX (V/m) @ t=0.54
-0.48036585864516823
% es.tEY (V/m) @ t=0.54
0
% es.tEZ (V/m) @ t=0.54
-1.5339510715646218
% es.Ex (V/m) @ t=0.54
-0.48036585864516435
% es.Ey (V/m) @ t=0.54
0.035858567482246216
% es.Ez (V/m) @ t=0.54
-1.5339510715646067
% es.tEx (V/m) @ t=0.54
-0.48036585864516823
% es.tEy (V/m) @ t=0.54
0
% es.tEz (V/m) @ t=0.54
-1.5339510715646218
% V (V) @ t=0.54
0.008094798003886048
% es.normE (V/m) @ t=0.56
1.6258225652010778
% es.EX (V/m) @ t=0.56
-0.485004716981121
% es.EY (V/m) @ t=0.56
0.03620537576155539
% es.EZ (V/m) @ t=0.56
-1.5487632946487806
% es.tEX (V/m) @ t=0.56
-0.4850047169811269
% es.tEY (V/m) @ t=0.56
0
% es.tEZ (V/m) @ t=0.56
-1.5487632946488024
% es.Ex (V/m) @ t=0.56
-0.485004716981121
% es.Ey (V/m) @ t=0.56
0.03620537576155539
% es.Ez (V/m) @ t=0.56
-1.5487632946487806
% es.tEx (V/m) @ t=0.56
-0.4850047169811269
% es.tEy (V/m) @ t=0.56
0
% es.tEz (V/m) @ t=0.56
-1.5487632946488024
% V (V) @ t=0.56
0.008172943215143983
% es.normE (V/m) @ t=0.58
1.6415868464955066
% es.EX (V/m) @ t=0.58
-0.48970786276458933
% es.EY (V/m) @ t=0.58
0.03655728598222264
% es.EZ (V/m) @ t=0.58
-1.56378021161157
% es.tEX (V/m) @ t=0.58
-0.48970786276459677
% es.tEY (V/m) @ t=0.58
0
% es.tEZ (V/m) @ t=0.58
-1.56378021161159
% es.Ex (V/m) @ t=0.58
-0.48970786276458933
% es.Ey (V/m) @ t=0.58
0.03655728598222264
% es.Ez (V/m) @ t=0.58
-1.56378021161157
% es.tEx (V/m) @ t=0.58
-0.48970786276459677
% es.tEy (V/m) @ t=0.58
0
% es.tEz (V/m) @ t=0.58
-1.56378021161159
% V (V) @ t=0.58
0.008252156932848571
% es.normE (V/m) @ t=0.6
1.6573511277906168
% es.EX (V/m) @ t=0.6
-0.494411008548054
% es.EY (V/m) @ t=0.6
0.03690919620288793
% es.EZ (V/m) @ t=0.6
-1.5787971285743745
% es.tEX (V/m) @ t=0.6
-0.494411008548056
% es.tEY (V/m) @ t=0.6
0
% es.tEZ (V/m) @ t=0.6
-1.5787971285743847
% es.Ex (V/m) @ t=0.6
-0.494411008548054
% es.Ey (V/m) @ t=0.6
0.03690919620288793
% es.Ez (V/m) @ t=0.6
-1.5787971285743745
% es.tEx (V/m) @ t=0.6
-0.494411008548056
% es.tEy (V/m) @ t=0.6
0
% es.tEz (V/m) @ t=0.6
-1.5787971285743847
% V (V) @ t=0.6
0.008331370650553161
% es.normE (V/m) @ t=0.62
1.6731154090863671
% es.EX (V/m) @ t=0.62
-0.4991141543315251
% es.EY (V/m) @ t=0.62
0.037261106423560265
% es.EZ (V/m) @ t=0.62
-1.59381404553717
% es.tEX (V/m) @ t=0.62
-0.4991141543315294
% es.tEY (V/m) @ t=0.62
0
% es.tEZ (V/m) @ t=0.62
-1.5938140455371794
% es.Ex (V/m) @ t=0.62
-0.4991141543315251
% es.Ey (V/m) @ t=0.62
0.037261106423560265
% es.Ez (V/m) @ t=0.62
-1.59381404553717
% es.tEx (V/m) @ t=0.62
-0.4991141543315294
% es.tEy (V/m) @ t=0.62
0
% es.tEz (V/m) @ t=0.62
-1.5938140455371794
% V (V) @ t=0.62
0.008410584368257751
% es.normE (V/m) @ t=0.64
1.6888796903827288
% es.EX (V/m) @ t=0.64
-0.5038173001149933
% es.EY (V/m) @ t=0.64
0.03761301664422378
% es.EZ (V/m) @ t=0.64
-1.6088309624999462
% es.tEX (V/m) @ t=0.64
-0.5038173001149957
% es.tEY (V/m) @ t=0.64
0
% es.tEZ (V/m) @ t=0.64
-1.608830962499967
% es.Ex (V/m) @ t=0.64
-0.5038173001149933
% es.Ey (V/m) @ t=0.64
0.03761301664422378
% es.Ez (V/m) @ t=0.64
-1.6088309624999462
% es.tEx (V/m) @ t=0.64
-0.5038173001149957
% es.tEy (V/m) @ t=0.64
0
% es.tEz (V/m) @ t=0.64
-1.608830962499967
% V (V) @ t=0.64
0.008489798085962341
% es.normE (V/m) @ t=0.66
1.70464397167973
% es.EX (V/m) @ t=0.66
-0.5085204458984652
% es.EY (V/m) @ t=0.66
0.03796492686489813
% es.EZ (V/m) @ t=0.66
-1.6238478794627498
% es.tEX (V/m) @ t=0.66
-0.5085204458984727
% es.tEY (V/m) @ t=0.66
0
% es.tEZ (V/m) @ t=0.66
-1.6238478794627556
% es.Ex (V/m) @ t=0.66
-0.5085204458984652
% es.Ey (V/m) @ t=0.66
0.03796492686489813
% es.Ez (V/m) @ t=0.66
-1.6238478794627498
% es.tEx (V/m) @ t=0.66
-0.5085204458984727
% es.tEy (V/m) @ t=0.66
0
% es.tEz (V/m) @ t=0.66
-1.6238478794627556
% V (V) @ t=0.66
0.008569011803666933
% es.normE (V/m) @ t=0.68
1.720408252977304
% es.EX (V/m) @ t=0.68
-0.5132235916819283
% es.EY (V/m) @ t=0.68
0.038316837085575796
% es.EZ (V/m) @ t=0.68
-1.6388647964255316
% es.tEX (V/m) @ t=0.68
-0.5132235916819354
% es.tEY (V/m) @ t=0.68
0
% es.tEZ (V/m) @ t=0.68
-1.6388647964255556
% es.Ex (V/m) @ t=0.68
-0.5132235916819283
% es.Ey (V/m) @ t=0.68
0.038316837085575796
% es.Ez (V/m) @ t=0.68
-1.6388647964255316
% es.tEx (V/m) @ t=0.68
-0.5132235916819354
% es.tEy (V/m) @ t=0.68
0
% es.tEz (V/m) @ t=0.68
-1.6388647964255556
% V (V) @ t=0.68
0.008648225521371523
% es.normE (V/m) @ t=0.7
1.736172534275481
% es.EX (V/m) @ t=0.7
-0.5179267374654027
% es.EY (V/m) @ t=0.7
0.03866874730623753
% es.EZ (V/m) @ t=0.7
-1.6538817133883357
% es.tEX (V/m) @ t=0.7
-0.5179267374654053
% es.tEY (V/m) @ t=0.7
0
% es.tEZ (V/m) @ t=0.7
-1.653881713388345
% es.Ex (V/m) @ t=0.7
-0.5179267374654027
% es.Ey (V/m) @ t=0.7
0.03866874730623753
% es.Ez (V/m) @ t=0.7
-1.6538817133883357
% es.tEx (V/m) @ t=0.7
-0.5179267374654053
% es.tEy (V/m) @ t=0.7
0
% es.tEz (V/m) @ t=0.7
-1.653881713388345
% V (V) @ t=0.7
0.008727439239076111
% es.normE (V/m) @ t=0.72
1.751936815574193
% es.EX (V/m) @ t=0.72
-0.5226298832488703
% es.EY (V/m) @ t=0.72
0.03902065752690811
% es.EZ (V/m) @ t=0.72
-1.6688986303511109
% es.tEX (V/m) @ t=0.72
-0.522629883248868
% es.tEY (V/m) @ t=0.72
0
% es.tEZ (V/m) @ t=0.72
-1.6688986303511317
% es.Ex (V/m) @ t=0.72
-0.5226298832488703
% es.Ey (V/m) @ t=0.72
0.03902065752690811
% es.Ez (V/m) @ t=0.72
-1.6688986303511109
% es.tEx (V/m) @ t=0.72
-0.522629883248868
% es.tEy (V/m) @ t=0.72
0
% es.tEz (V/m) @ t=0.72
-1.6688986303511317
% V (V) @ t=0.72
0.008806652956780703
% es.normE (V/m) @ t=0.74
1.7677010968734876
% es.EX (V/m) @ t=0.74
-0.5273330290323386
% es.EY (V/m) @ t=0.74
0.03937256774757671
% es.EZ (V/m) @ t=0.74
-1.683915547313922
% es.tEX (V/m) @ t=0.74
-0.527333029032345
% es.tEY (V/m) @ t=0.74
0
% es.tEZ (V/m) @ t=0.74
-1.6839155473139336
% es.Ex (V/m) @ t=0.74
-0.5273330290323386
% es.Ey (V/m) @ t=0.74
0.03937256774757671
% es.Ez (V/m) @ t=0.74
-1.683915547313922
% es.tEx (V/m) @ t=0.74
-0.527333029032345
% es.tEy (V/m) @ t=0.74
0
% es.tEz (V/m) @ t=0.74
-1.6839155473139336
% V (V) @ t=0.74
0.008885866674485293
% es.normE (V/m) @ t=0.76
1.7834653781732823
% es.EX (V/m) @ t=0.76
-0.5320361748158096
% es.EY (V/m) @ t=0.76
0.0397244779682404
% es.EZ (V/m) @ t=0.76
-1.6989324642766972
% es.tEX (V/m) @ t=0.76
-0.5320361748158149
% es.tEY (V/m) @ t=0.76
0
% es.tEZ (V/m) @ t=0.76
-1.698932464276714
% es.Ex (V/m) @ t=0.76
-0.5320361748158096
% es.Ey (V/m) @ t=0.76
0.0397244779682404
% es.Ez (V/m) @ t=0.76
-1.6989324642766972
% es.tEx (V/m) @ t=0.76
-0.5320361748158149
% es.tEy (V/m) @ t=0.76
0
% es.tEz (V/m) @ t=0.76
-1.698932464276714
% V (V) @ t=0.76
0.008965080392189882
% es.normE (V/m) @ t=0.78
1.7992296594736246
% es.EX (V/m) @ t=0.78
-0.5367393205992796
% es.EY (V/m) @ t=0.78
0.0400763881889092
% es.EZ (V/m) @ t=0.78
-1.7139493812395008
% es.tEX (V/m) @ t=0.78
-0.5367393205992812
% es.tEY (V/m) @ t=0.78
0
% es.tEZ (V/m) @ t=0.78
-1.7139493812395168
% es.Ex (V/m) @ t=0.78
-0.5367393205992796
% es.Ey (V/m) @ t=0.78
0.0400763881889092
% es.Ez (V/m) @ t=0.78
-1.7139493812395008
% es.tEx (V/m) @ t=0.78
-0.5367393205992812
% es.tEy (V/m) @ t=0.78
0
% es.tEz (V/m) @ t=0.78
-1.7139493812395168
% V (V) @ t=0.78
0.009044294109894473
% es.normE (V/m) @ t=0.8
1.8149939407744586
% es.EX (V/m) @ t=0.8
-0.5414424663827435
% es.EY (V/m) @ t=0.8
0.040428298409578026
% es.EZ (V/m) @ t=0.8
-1.7289662982022902
% es.tEX (V/m) @ t=0.8
-0.5414424663827475
% es.tEY (V/m) @ t=0.8
0
% es.tEZ (V/m) @ t=0.8
-1.7289662982023106
% es.Ex (V/m) @ t=0.8
-0.5414424663827435
% es.Ey (V/m) @ t=0.8
0.040428298409578026
% es.Ez (V/m) @ t=0.8
-1.7289662982022902
% es.tEx (V/m) @ t=0.8
-0.5414424663827475
% es.tEy (V/m) @ t=0.8
0
% es.tEz (V/m) @ t=0.8
-1.7289662982023106
% V (V) @ t=0.8
0.009123507827599063
% es.normE (V/m) @ t=0.82
1.8313280923437953
% es.EX (V/m) @ t=0.82
-0.5463155540130193
% es.EY (V/m) @ t=0.82
0.040792788587013185
% es.EZ (V/m) @ t=0.82
-1.7445260989464124
% es.tEX (V/m) @ t=0.82
-0.5463155540130202
% es.tEY (V/m) @ t=0.82
0
% es.tEZ (V/m) @ t=0.82
-1.744526098946416
% es.Ex (V/m) @ t=0.82
-0.5463155540130193
% es.Ey (V/m) @ t=0.82
0.040792788587013185
% es.Ez (V/m) @ t=0.82
-1.7445260989464124
% es.tEx (V/m) @ t=0.82
-0.5463155540130202
% es.tEy (V/m) @ t=0.82
0
% es.tEz (V/m) @ t=0.82
-1.744526098946416
% V (V) @ t=0.82
0.009205590472665566
% es.normE (V/m) @ t=0.84
1.848946711306901
% es.EX (V/m) @ t=0.84
-0.5515716845449468
% es.EY (V/m) @ t=0.84
0.04118563354126495
% es.EZ (V/m) @ t=0.84
-1.7613095404992198
% es.tEX (V/m) @ t=0.84
-0.5515716845449532
% es.tEY (V/m) @ t=0.84
0
% es.tEZ (V/m) @ t=0.84
-1.7613095404992354
% es.Ex (V/m) @ t=0.84
-0.5515716845449468
% es.Ey (V/m) @ t=0.84
0.04118563354126495
% es.Ez (V/m) @ t=0.84
-1.7613095404992198
% es.tEx (V/m) @ t=0.84
-0.5515716845449532
% es.tEy (V/m) @ t=0.84
0
% es.tEz (V/m) @ t=0.84
-1.7613095404992354
% V (V) @ t=0.84
0.009294139578359551
% es.normE (V/m) @ t=0.86
1.8665653302701295
% es.EX (V/m) @ t=0.86
-0.5568278150768768
% es.EY (V/m) @ t=0.86
0.041578478495500934
% es.EZ (V/m) @ t=0.86
-1.7780929820520264
% es.tEX (V/m) @ t=0.86
-0.5568278150768791
% es.tEY (V/m) @ t=0.86
0
% es.tEZ (V/m) @ t=0.86
-1.778092982052045
% es.Ex (V/m) @ t=0.86
-0.5568278150768768
% es.Ey (V/m) @ t=0.86
0.041578478495500934
% es.Ez (V/m) @ t=0.86
-1.7780929820520264
% es.tEx (V/m) @ t=0.86
-0.5568278150768791
% es.tEy (V/m) @ t=0.86
0
% es.tEz (V/m) @ t=0.86
-1.778092982052045
% V (V) @ t=0.86
0.009382688684053536
% es.normE (V/m) @ t=0.88
1.8841839492334773
% es.EX (V/m) @ t=0.88
-0.5620839456087997
% es.EY (V/m) @ t=0.88
0.04197132344974183
% es.EZ (V/m) @ t=0.88
-1.7948764236048338
% es.tEX (V/m) @ t=0.88
-0.5620839456087978
% es.tEY (V/m) @ t=0.88
0
% es.tEZ (V/m) @ t=0.88
-1.7948764236048493
% es.Ex (V/m) @ t=0.88
-0.5620839456087997
% es.Ey (V/m) @ t=0.88
0.04197132344974183
% es.Ez (V/m) @ t=0.88
-1.7948764236048338
% es.tEx (V/m) @ t=0.88
-0.5620839456087978
% es.tEy (V/m) @ t=0.88
0
% es.tEz (V/m) @ t=0.88
-1.7948764236048493
% V (V) @ t=0.88
0.009471237789747523
% es.normE (V/m) @ t=0.9
1.9018025681969402
% es.EX (V/m) @ t=0.9
-0.5673400761407217
% es.EY (V/m) @ t=0.9
0.042364168404009805
% es.EZ (V/m) @ t=0.9
-1.8116598651576412
% es.tEX (V/m) @ t=0.9
-0.5673400761407272
% es.tEY (V/m) @ t=0.9
0
% es.tEZ (V/m) @ t=0.9
-1.8116598651576599
% es.Ex (V/m) @ t=0.9
-0.5673400761407217
% es.Ey (V/m) @ t=0.9
0.042364168404009805
% es.Ez (V/m) @ t=0.9
-1.8116598651576412
% es.tEx (V/m) @ t=0.9
-0.5673400761407272
% es.tEy (V/m) @ t=0.9
0
% es.tEz (V/m) @ t=0.9
-1.8116598651576599
% V (V) @ t=0.9
0.00955978689544151
% es.normE (V/m) @ t=0.92
1.919421187160526
% es.EX (V/m) @ t=0.92
-0.5725962066726535
% es.EY (V/m) @ t=0.92
0.04275701335826333
% es.EZ (V/m) @ t=0.92
-1.8284433067104553
% es.tEX (V/m) @ t=0.92
-0.5725962066726602
% es.tEY (V/m) @ t=0.92
0
% es.tEZ (V/m) @ t=0.92
-1.8284433067104642
% es.Ex (V/m) @ t=0.92
-0.5725962066726535
% es.Ey (V/m) @ t=0.92
0.04275701335826333
% es.Ez (V/m) @ t=0.92
-1.8284433067104553
% es.tEx (V/m) @ t=0.92
-0.5725962066726602
% es.tEy (V/m) @ t=0.92
0
% es.tEz (V/m) @ t=0.92
-1.8284433067104642
% V (V) @ t=0.92
0.009648336001135498
% es.normE (V/m) @ t=0.94
1.937039806124207
% es.EX (V/m) @ t=0.94
-0.577852337204581
% es.EY (V/m) @ t=0.94
0.043149858312509504
% es.EZ (V/m) @ t=0.94
-1.8452267482632552
% es.tEX (V/m) @ t=0.94
-0.5778523372045825
% es.tEY (V/m) @ t=0.94
0
% es.tEZ (V/m) @ t=0.94
-1.8452267482632836
% es.Ex (V/m) @ t=0.94
-0.577852337204581
% es.Ey (V/m) @ t=0.94
0.043149858312509504
% es.Ez (V/m) @ t=0.94
-1.8452267482632552
% es.tEx (V/m) @ t=0.94
-0.5778523372045825
% es.tEy (V/m) @ t=0.94
0
% es.tEz (V/m) @ t=0.94
-1.8452267482632836
% V (V) @ t=0.94
0.009736885106829483
% es.normE (V/m) @ t=0.96
1.9546584250880068
% es.EX (V/m) @ t=0.96
-0.5831084677365039
% es.EY (V/m) @ t=0.96
0.0435427032667635
% es.EZ (V/m) @ t=0.96
-1.8620101898160697
% es.tEX (V/m) @ t=0.96
-0.5831084677365119
% es.tEY (V/m) @ t=0.96
0
% es.tEZ (V/m) @ t=0.96
-1.8620101898160861
% es.Ex (V/m) @ t=0.96
-0.5831084677365039
% es.Ey (V/m) @ t=0.96
0.0435427032667635
% es.Ez (V/m) @ t=0.96
-1.8620101898160697
% es.tEx (V/m) @ t=0.96
-0.5831084677365119
% es.tEy (V/m) @ t=0.96
0
% es.tEz (V/m) @ t=0.96
-1.8620101898160861
% V (V) @ t=0.96
0.00982543421252347
% es.normE (V/m) @ t=0.98
1.9722770440519133
% es.EX (V/m) @ t=0.98
-0.5883645982684338
% es.EY (V/m) @ t=0.98
0.043935548221011714
% es.EZ (V/m) @ t=0.98
-1.8787936313688842
% es.tEX (V/m) @ t=0.98
-0.5883645982684342
% es.tEY (V/m) @ t=0.98
0
% es.tEZ (V/m) @ t=0.98
-1.8787936313688975
% es.Ex (V/m) @ t=0.98
-0.5883645982684338
% es.Ey (V/m) @ t=0.98
0.043935548221011714
% es.Ez (V/m) @ t=0.98
-1.8787936313688842
% es.tEx (V/m) @ t=0.98
-0.5883645982684342
% es.tEy (V/m) @ t=0.98
0
% es.tEz (V/m) @ t=0.98
-1.8787936313688975
% V (V) @ t=0.98
0.009913983318217457
% es.normE (V/m) @ t=1
1.989895663015905
% es.EX (V/m) @ t=1
-0.5936207288003558
% es.EY (V/m) @ t=1
0.04432839317526528
% es.EZ (V/m) @ t=1
-1.8955770729216845
% es.tEX (V/m) @ t=1
-0.5936207288003637
% es.tEY (V/m) @ t=1
0
% es.tEZ (V/m) @ t=1
-1.895577072921701
% es.Ex (V/m) @ t=1
-0.5936207288003558
% es.Ey (V/m) @ t=1
0.04432839317526528
% es.Ez (V/m) @ t=1
-1.8955770729216845
% es.tEx (V/m) @ t=1
-0.5936207288003637
% es.tEy (V/m) @ t=1
0
% es.tEz (V/m) @ t=1
-1.895577072921701
% V (V) @ t=1
0.010002532423911442
% es.normE (V/m) @ t=1.02
2.0075142819800096
% es.EX (V/m) @ t=1.02
-0.5988768593322833
% es.EY (V/m) @ t=1.02
0.0447212381295099
% es.EZ (V/m) @ t=1.02
-1.9123605144744982
% es.tEX (V/m) @ t=1.02
-0.5988768593322895
% es.tEY (V/m) @ t=1.02
0
% es.tEZ (V/m) @ t=1.02
-1.9123605144745195
% es.Ex (V/m) @ t=1.02
-0.5988768593322833
% es.Ey (V/m) @ t=1.02
0.0447212381295099
% es.Ez (V/m) @ t=1.02
-1.9123605144744982
% es.tEx (V/m) @ t=1.02
-0.5988768593322895
% es.tEy (V/m) @ t=1.02
0