% Model:              1 neuron.mph
% Version:            COMSOL 6.0.0.405
% Date:               Mar 16 2023, 17:31
% Dimension:          0
% Nodes:              14017
% Expressions:        14017
% Description:        Electric field norm, Electric field, X component, Electric field, Y component, Electric field, Z component, Tangential electric field, X component, Tangential electric field, Y component, Tangential electric field, Z component, Electric field, x component, Electric field, y component, Electric field, z component, Tangential electric field, x component, Tangential electric field, y component, Tangential electric field, z component, Electric potential
% Length unit:        mm
% x
1
% y
12.2
% z
1.33
% es.normE (V/m) @ t=0
1.4761207406550354
% es.EX (V/m) @ t=0
1.36412844040023
% es.EY (V/m) @ t=0
0.08589386723570097
% es.EZ (V/m) @ t=0
0.5514671672134268
% es.tEX (V/m) @ t=0
1.3641284404002372
% es.tEY (V/m) @ t=0
0
% es.tEZ (V/m) @ t=0
0.5514671672134259
% es.Ex (V/m) @ t=0
1.36412844040023
% es.Ey (V/m) @ t=0
0.08589386723570097
% es.Ez (V/m) @ t=0
0.5514671672134268
% es.tEx (V/m) @ t=0
1.3641284404002372
% es.tEy (V/m) @ t=0
0
% es.tEz (V/m) @ t=0
0.5514671672134259
% V (V) @ t=0
0.007363130245098718
% es.normE (V/m) @ t=0.02
1.2749558047706575
% es.EX (V/m) @ t=0.02
1.1782257524412558
% es.EY (V/m) @ t=0.02
0.07418830178542424
% es.EZ (V/m) @ t=0.02
0.4763135254069035
% es.tEX (V/m) @ t=0.02
1.1782257524412598
% es.tEY (V/m) @ t=0.02
0
% es.tEZ (V/m) @ t=0.02
0.4763135254069022
% es.Ex (V/m) @ t=0.02
1.1782257524412558
% es.Ey (V/m) @ t=0.02
0.07418830178542424
% es.Ez (V/m) @ t=0.02
0.4763135254069035
% es.tEx (V/m) @ t=0.02
1.1782257524412598
% es.tEy (V/m) @ t=0.02
0
% es.tEz (V/m) @ t=0.02
0.4763135254069022
% V (V) @ t=0.02
0.006359686655849604
% es.normE (V/m) @ t=0.04
1.2866849680103902
% es.EX (V/m) @ t=0.04
1.1890650279967656
% es.EY (V/m) @ t=0.04
0.07487081677273666
% es.EZ (V/m) @ t=0.04
0.48069545868053387
% es.tEX (V/m) @ t=0.04
1.1890650279967678
% es.tEY (V/m) @ t=0.04
0
% es.tEZ (V/m) @ t=0.04
0.48069545868053565
% es.Ex (V/m) @ t=0.04
1.1890650279967656
% es.Ey (V/m) @ t=0.04
0.07487081677273666
% es.Ez (V/m) @ t=0.04
0.48069545868053387
% es.tEx (V/m) @ t=0.04
1.1890650279967678
% es.tEy (V/m) @ t=0.04
0
% es.tEz (V/m) @ t=0.04
0.48069545868053565
% V (V) @ t=0.04
0.006418193301398681
% es.normE (V/m) @ t=0.06
1.2985188998801076
% es.EX (V/m) @ t=0.06
1.2000011303578386
% es.EY (V/m) @ t=0.06
0.07555941436077085
% es.EZ (V/m) @ t=0.06
0.4851165155336159
% es.tEX (V/m) @ t=0.06
1.2000011303578395
% es.tEY (V/m) @ t=0.06
0
% es.tEZ (V/m) @ t=0.06
0.48511651553362034
% es.Ex (V/m) @ t=0.06
1.2000011303578386
% es.Ey (V/m) @ t=0.06
0.07555941436077085
% es.Ez (V/m) @ t=0.06
0.4851165155336159
% es.tEx (V/m) @ t=0.06
1.2000011303578395
% es.tEy (V/m) @ t=0.06
0
% es.tEz (V/m) @ t=0.06
0.48511651553362034
% V (V) @ t=0.06
0.006477223135427085
% es.normE (V/m) @ t=0.08
1.3105355455349899
% es.EX (V/m) @ t=0.08
1.211106043604631
% es.EY (V/m) @ t=0.08
0.07625872475122525
% es.EZ (V/m) @ t=0.08
0.48960593359613513
% es.tEX (V/m) @ t=0.08
1.2111060436046293
% es.tEY (V/m) @ t=0.08
0
% es.tEZ (V/m) @ t=0.08
0.4896059335961356
% es.Ex (V/m) @ t=0.08
1.211106043604631
% es.Ey (V/m) @ t=0.08
0.07625872475122525
% es.Ez (V/m) @ t=0.08
0.48960593359613513
% es.tEx (V/m) @ t=0.08
1.2111060436046293
% es.tEy (V/m) @ t=0.08
0
% es.tEz (V/m) @ t=0.08
0.4896059335961356
% V (V) @ t=0.08
0.006537160941553345
% es.normE (V/m) @ t=0.1
1.3226740823700425
% es.EX (V/m) @ t=0.1
1.2223235731932052
% es.EY (V/m) @ t=0.1
0.0769651818171676
% es.EZ (V/m) @ t=0.1
0.49414095647433776
% es.tEX (V/m) @ t=0.1
1.222323573193207
% es.tEY (V/m) @ t=0.1
0
% es.tEZ (V/m) @ t=0.1
0.49414095647433465
% es.Ex (V/m) @ t=0.1
1.2223235731932052
% es.Ey (V/m) @ t=0.1
0.0769651818171676
% es.Ez (V/m) @ t=0.1
0.49414095647433776
% es.tEx (V/m) @ t=0.1
1.222323573193207
% es.tEy (V/m) @ t=0.1
0
% es.tEz (V/m) @ t=0.1
0.49414095647433465
% V (V) @ t=0.1
0.006597704469850019
% es.normE (V/m) @ t=0.12
1.3348126192051373
% es.EX (V/m) @ t=0.12
1.2335411027817775
% es.EY (V/m) @ t=0.12
0.07767163888311346
% es.EZ (V/m) @ t=0.12
0.4986759793525257
% es.tEX (V/m) @ t=0.12
1.2335411027817758
% es.tEY (V/m) @ t=0.12
0
% es.tEZ (V/m) @ t=0.12
0.4986759793525257
% es.Ex (V/m) @ t=0.12
1.2335411027817775
% es.Ey (V/m) @ t=0.12
0.07767163888311346
% es.Ez (V/m) @ t=0.12
0.4986759793525257
% es.tEx (V/m) @ t=0.12
1.2335411027817758
% es.tEy (V/m) @ t=0.12
0
% es.tEz (V/m) @ t=0.12
0.4986759793525257
% V (V) @ t=0.12
0.006658247998146693
% es.normE (V/m) @ t=0.14
1.34708673620793
% es.EX (V/m) @ t=0.14
1.2448839463561652
% es.EY (V/m) @ t=0.14
0.07838594491227513
% es.EZ (V/m) @ t=0.14
0.5032616037050572
% es.tEX (V/m) @ t=0.14
1.2448839463561656
% es.tEY (V/m) @ t=0.14
0
% es.tEZ (V/m) @ t=0.14
0.5032616037050559
% es.Ex (V/m) @ t=0.14
1.2448839463561652
% es.Ey (V/m) @ t=0.14
0.07838594491227513
% es.Ez (V/m) @ t=0.14
0.5032616037050572
% es.tEx (V/m) @ t=0.14
1.2448839463561656
% es.tEy (V/m) @ t=0.14
0
% es.tEz (V/m) @ t=0.14
0.5032616037050559
% V (V) @ t=0.14
0.0067194695335075615
% es.normE (V/m) @ t=0.16
1.3598720962570647
% es.EX (V/m) @ t=0.16
1.2566993214590862
% es.EY (V/m) @ t=0.16
0.0791298476585765
% es.EZ (V/m) @ t=0.16
0.5080380351079659
% es.tEX (V/m) @ t=0.16
1.2566993214590862
% es.tEY (V/m) @ t=0.16
0
% es.tEZ (V/m) @ t=0.16
0.5080380351079681
% es.Ex (V/m) @ t=0.16
1.2566993214590862
% es.Ey (V/m) @ t=0.16
0.0791298476585765
% es.Ez (V/m) @ t=0.16
0.5080380351079659
% es.tEx (V/m) @ t=0.16
1.2566993214590862
% es.tEy (V/m) @ t=0.16
0
% es.tEz (V/m) @ t=0.16
0.5080380351079681
% V (V) @ t=0.16
0.006783247684654759
% es.normE (V/m) @ t=0.18
1.3726574563062157
% es.EX (V/m) @ t=0.18
1.2685146965620024
% es.EY (V/m) @ t=0.18
0.07987375040488498
% es.EZ (V/m) @ t=0.18
0.5128144665108951
% es.tEX (V/m) @ t=0.18
1.268514696562006
% es.tEY (V/m) @ t=0.18
0
% es.tEZ (V/m) @ t=0.18
0.5128144665108931
% es.Ex (V/m) @ t=0.18
1.2685146965620024
% es.Ey (V/m) @ t=0.18
0.07987375040488498
% es.Ez (V/m) @ t=0.18
0.5128144665108951
% es.tEx (V/m) @ t=0.18
1.268514696562006
% es.tEy (V/m) @ t=0.18
0
% es.tEz (V/m) @ t=0.18
0.5128144665108931
% V (V) @ t=0.18
0.006847025835801955
% es.normE (V/m) @ t=0.2
1.3854428163553751
% es.EX (V/m) @ t=0.2
1.2803300716649164
% es.EY (V/m) @ t=0.2
0.08061765315118369
% es.EZ (V/m) @ t=0.2
0.517590897913816
% es.tEX (V/m) @ t=0.2
1.2803300716649177
% es.tEY (V/m) @ t=0.2
0
% es.tEZ (V/m) @ t=0.2
0.5175908979138151
% es.Ex (V/m) @ t=0.2
1.2803300716649164
% es.Ey (V/m) @ t=0.2
0.08061765315118369
% es.Ez (V/m) @ t=0.2
0.517590897913816
% es.tEx (V/m) @ t=0.2
1.2803300716649177
% es.tEy (V/m) @ t=0.2
0
% es.tEz (V/m) @ t=0.2
0.5175908979138151
% V (V) @ t=0.2
0.006910803986949153
% es.normE (V/m) @ t=0.22
1.3982281764045537
% es.EX (V/m) @ t=0.22
1.2921454467678348
% es.EY (V/m) @ t=0.22
0.08136155589748506
% es.EZ (V/m) @ t=0.22
0.5223673293167463
% es.tEX (V/m) @ t=0.22
1.2921454467678348
% es.tEY (V/m) @ t=0.22
0
% es.tEZ (V/m) @ t=0.22
0.5223673293167428
% es.Ex (V/m) @ t=0.22
1.2921454467678348
% es.Ey (V/m) @ t=0.22
0.08136155589748506
% es.Ez (V/m) @ t=0.22
0.5223673293167463
% es.tEx (V/m) @ t=0.22
1.2921454467678348
% es.tEy (V/m) @ t=0.22
0
% es.tEz (V/m) @ t=0.22
0.5223673293167428
% V (V) @ t=0.22
0.006974582138096349
% es.normE (V/m) @ t=0.24
1.4110135364537366
% es.EX (V/m) @ t=0.24
1.3039608218707448
% es.EY (V/m) @ t=0.24
0.08210545864379531
% es.EZ (V/m) @ t=0.24
0.5271437607196754
% es.tEX (V/m) @ t=0.24
1.303960821870751
% es.tEY (V/m) @ t=0.24
0
% es.tEZ (V/m) @ t=0.24
0.5271437607196736
% es.Ex (V/m) @ t=0.24
1.3039608218707448
% es.Ey (V/m) @ t=0.24
0.08210545864379531
% es.Ez (V/m) @ t=0.24
0.5271437607196754
% es.tEx (V/m) @ t=0.24
1.303960821870751
% es.tEy (V/m) @ t=0.24
0
% es.tEz (V/m) @ t=0.24
0.5271437607196736
% V (V) @ t=0.24
0.0070383602892435445
% es.normE (V/m) @ t=0.26
1.4237988965029333
% es.EX (V/m) @ t=0.26
1.3157761969736645
% es.EY (V/m) @ t=0.26
0.08284936139009408
% es.EZ (V/m) @ t=0.26
0.5319201921225831
% es.tEX (V/m) @ t=0.26
1.3157761969736672
% es.tEY (V/m) @ t=0.26
0
% es.tEZ (V/m) @ t=0.26
0.5319201921225845
% es.Ex (V/m) @ t=0.26
1.3157761969736645
% es.Ey (V/m) @ t=0.26
0.08284936139009408
% es.Ez (V/m) @ t=0.26
0.5319201921225831
% es.tEx (V/m) @ t=0.26
1.3157761969736672
% es.tEy (V/m) @ t=0.26
0
% es.tEz (V/m) @ t=0.26
0.5319201921225845
% V (V) @ t=0.26
0.007102138440390742
% es.normE (V/m) @ t=0.28
1.4372098040829615
% es.EX (V/m) @ t=0.28
1.328169866549386
% es.EY (V/m) @ t=0.28
0.08362925050367642
% es.EZ (V/m) @ t=0.28
0.5369298088768297
% es.tEX (V/m) @ t=0.28
1.328169866549385
% es.tEY (V/m) @ t=0.28
0
% es.tEZ (V/m) @ t=0.28
0.5369298088768302
% es.Ex (V/m) @ t=0.28
1.328169866549386
% es.Ey (V/m) @ t=0.28
0.08362925050367642
% es.Ez (V/m) @ t=0.28
0.5369298088768297
% es.tEx (V/m) @ t=0.28
1.328169866549385
% es.tEy (V/m) @ t=0.28
0
% es.tEz (V/m) @ t=0.28
0.5369298088768302
% V (V) @ t=0.28
0.007169054388244585
% es.normE (V/m) @ t=0.3
1.451452804054632
% es.EX (V/m) @ t=0.3
1.341332773322991
% es.EY (V/m) @ t=0.3
0.08445700805388684
% es.EZ (V/m) @ t=0.3
0.5422496047088043
% es.tEX (V/m) @ t=0.3
1.3413327733229927
% es.tEY (V/m) @ t=0.3
0
% es.tEZ (V/m) @ t=0.3
0.5422496047088017
% es.Ex (V/m) @ t=0.3
1.341332773322991
% es.Ey (V/m) @ t=0.3
0.08445700805388684
% es.Ez (V/m) @ t=0.3
0.5422496047088043
% es.tEx (V/m) @ t=0.3
1.3413327733229927
% es.tEy (V/m) @ t=0.3
0
% es.tEz (V/m) @ t=0.3
0.5422496047088017
% V (V) @ t=0.3
0.0072401441784221525
% es.normE (V/m) @ t=0.32
1.4656958040291412
% es.EX (V/m) @ t=0.32
1.3544956800965942
% es.EY (V/m) @ t=0.32
0.08528476560410359
% es.EZ (V/m) @ t=0.32
0.5475694005407798
% es.tEX (V/m) @ t=0.32
1.3544956800965933
% es.tEY (V/m) @ t=0.32
0
% es.tEZ (V/m) @ t=0.32
0.5475694005407816
% es.Ex (V/m) @ t=0.32
1.3544956800965942
% es.Ey (V/m) @ t=0.32
0.08528476560410359
% es.Ez (V/m) @ t=0.32
0.5475694005407798
% es.tEx (V/m) @ t=0.32
1.3544956800965933
% es.tEy (V/m) @ t=0.32
0
% es.tEz (V/m) @ t=0.32
0.5475694005407816
% V (V) @ t=0.32
0.007311233968599719
% es.normE (V/m) @ t=0.34
1.4799388040064083
% es.EX (V/m) @ t=0.34
1.367658586870192
% es.EY (V/m) @ t=0.34
0.08611252315431406
% es.EZ (V/m) @ t=0.34
0.5528891963727709
% es.tEX (V/m) @ t=0.34
1.3676585868701956
% es.tEY (V/m) @ t=0.34
0
% es.tEZ (V/m) @ t=0.34
0.5528891963727709
% es.Ex (V/m) @ t=0.34
1.367658586870192
% es.Ey (V/m) @ t=0.34
0.08611252315431406
% es.Ez (V/m) @ t=0.34
0.5528891963727709
% es.tEx (V/m) @ t=0.34
1.3676585868701956
% es.tEy (V/m) @ t=0.34
0
% es.tEz (V/m) @ t=0.34
0.5528891963727709
% V (V) @ t=0.34
0.007382323758777286
% es.normE (V/m) @ t=0.36
1.494181803986358
% es.EX (V/m) @ t=0.36
1.3808214936437988
% es.EY (V/m) @ t=0.36
0.08694028070453241
% es.EZ (V/m) @ t=0.36
0.5582089922047477
% es.tEX (V/m) @ t=0.36
1.3808214936437988
% es.tEY (V/m) @ t=0.36
0
% es.tEZ (V/m) @ t=0.36
0.5582089922047504
% es.Ex (V/m) @ t=0.36
1.3808214936437988
% es.Ey (V/m) @ t=0.36
0.08694028070453241
% es.Ez (V/m) @ t=0.36
0.5582089922047477
% es.tEx (V/m) @ t=0.36
1.3808214936437988
% es.tEy (V/m) @ t=0.36
0
% es.tEz (V/m) @ t=0.36
0.5582089922047504
% V (V) @ t=0.36
0.007453413548954853
% es.normE (V/m) @ t=0.38
1.5084248039689094
% es.EX (V/m) @ t=0.38
1.3939844004174056
% es.EY (V/m) @ t=0.38
0.08776803825475105
% es.EZ (V/m) @ t=0.38
0.5635287880367237
% es.tEX (V/m) @ t=0.38
1.3939844004174047
% es.tEY (V/m) @ t=0.38
0
% es.tEZ (V/m) @ t=0.38
0.5635287880367237
% es.Ex (V/m) @ t=0.38
1.3939844004174056
% es.Ey (V/m) @ t=0.38
0.08776803825475105
% es.Ez (V/m) @ t=0.38
0.5635287880367237
% es.tEx (V/m) @ t=0.38
1.3939844004174047
% es.tEy (V/m) @ t=0.38
0
% es.tEz (V/m) @ t=0.38
0.5635287880367237
% V (V) @ t=0.38
0.007524503339132421
% es.normE (V/m) @ t=0.4
1.5226678039539856
% es.EX (V/m) @ t=0.4
1.407147307191008
% es.EY (V/m) @ t=0.4
0.08859579580496668
% es.EZ (V/m) @ t=0.4
0.5688485838686996
% es.tEX (V/m) @ t=0.4
1.4071473071910106
% es.tEY (V/m) @ t=0.4
0
% es.tEZ (V/m) @ t=0.4
0.5688485838687014
% es.Ex (V/m) @ t=0.4
1.407147307191008
% es.Ey (V/m) @ t=0.4
0.08859579580496668
% es.Ez (V/m) @ t=0.4
0.5688485838686996
% es.tEx (V/m) @ t=0.4
1.4071473071910106
% es.tEy (V/m) @ t=0.4
0
% es.tEz (V/m) @ t=0.4
0.5688485838687014
% V (V) @ t=0.4
0.007595593129309988
% es.normE (V/m) @ t=0.42
1.5369108039415347
% es.EX (V/m) @ t=0.42
1.42031021396462
% es.EY (V/m) @ t=0.42
0.08942355335517893
% es.EZ (V/m) @ t=0.42
0.5741683797006845
% es.tEX (V/m) @ t=0.42
1.420310213964619
% es.tEY (V/m) @ t=0.42
0
% es.tEZ (V/m) @ t=0.42
0.5741683797006818
% es.Ex (V/m) @ t=0.42
1.42031021396462
% es.Ey (V/m) @ t=0.42
0.08942355335517893
% es.Ez (V/m) @ t=0.42
0.5741683797006845
% es.tEx (V/m) @ t=0.42
1.420310213964619
% es.tEy (V/m) @ t=0.42
0
% es.tEz (V/m) @ t=0.42
0.5741683797006818
% V (V) @ t=0.42
0.007666682919487555
% es.normE (V/m) @ t=0.44
1.5511538039314618
% es.EX (V/m) @ t=0.44
1.4334731207382223
% es.EY (V/m) @ t=0.44
0.0902513109053894
% es.EZ (V/m) @ t=0.44
0.5794881755326604
% es.tEX (V/m) @ t=0.44
1.4334731207382276
% es.tEY (V/m) @ t=0.44
0
% es.tEZ (V/m) @ t=0.44
0.5794881755326595
% es.Ex (V/m) @ t=0.44
1.4334731207382223
% es.Ey (V/m) @ t=0.44
0.0902513109053894
% es.Ez (V/m) @ t=0.44
0.5794881755326604
% es.tEx (V/m) @ t=0.44
1.4334731207382276
% es.tEy (V/m) @ t=0.44
0
% es.tEz (V/m) @ t=0.44
0.5794881755326595
% V (V) @ t=0.44
0.007737772709665122
% es.normE (V/m) @ t=0.46
1.5653968039237172
% es.EX (V/m) @ t=0.46
1.4466360275118233
% es.EY (V/m) @ t=0.46
0.09107906845561231
% es.EZ (V/m) @ t=0.46
0.5848079713646399
% es.tEX (V/m) @ t=0.46
1.446636027511821
% es.tEY (V/m) @ t=0.46
0
% es.tEZ (V/m) @ t=0.46
0.5848079713646399
% es.Ex (V/m) @ t=0.46
1.4466360275118233
% es.Ey (V/m) @ t=0.46
0.09107906845561231
% es.Ez (V/m) @ t=0.46
0.5848079713646399
% es.tEx (V/m) @ t=0.46
1.446636027511821
% es.tEy (V/m) @ t=0.46
0
% es.tEz (V/m) @ t=0.46
0.5848079713646399
% V (V) @ t=0.46
0.007808862499842689
% es.normE (V/m) @ t=0.48
1.579639803918242
% es.EX (V/m) @ t=0.48
1.4597989342854314
% es.EY (V/m) @ t=0.48
0.0919068260058219
% es.EZ (V/m) @ t=0.48
0.5901277671966212
% es.tEX (V/m) @ t=0.48
1.459798934285435
% es.tEY (V/m) @ t=0.48
0
% es.tEZ (V/m) @ t=0.48
0.5901277671966212
% es.Ex (V/m) @ t=0.48
1.4597989342854314
% es.Ey (V/m) @ t=0.48
0.0919068260058219
% es.Ez (V/m) @ t=0.48
0.5901277671966212
% es.tEx (V/m) @ t=0.48
1.459798934285435
% es.tEy (V/m) @ t=0.48
0
% es.tEz (V/m) @ t=0.48
0.5901277671966212
% V (V) @ t=0.48
0.007879952290020255
% es.normE (V/m) @ t=0.5
1.5938828039149657
% es.EX (V/m) @ t=0.5
1.4729618410590364
% es.EY (V/m) @ t=0.5
0.09273458355603592
% es.EZ (V/m) @ t=0.5
0.5954475630285994
% es.tEX (V/m) @ t=0.5
1.47296184105904
% es.tEY (V/m) @ t=0.5
0
% es.tEZ (V/m) @ t=0.5
0.5954475630285994
% es.Ex (V/m) @ t=0.5
1.4729618410590364
% es.Ey (V/m) @ t=0.5
0.09273458355603592
% es.Ez (V/m) @ t=0.5
0.5954475630285994
% es.tEx (V/m) @ t=0.5
1.47296184105904
% es.tEy (V/m) @ t=0.5
0
% es.tEz (V/m) @ t=0.5
0.5954475630285994
% V (V) @ t=0.5
0.007951042080197823
% es.normE (V/m) @ t=0.52
1.6081258039138335
% es.EX (V/m) @ t=0.52
1.4861247478326378
% es.EY (V/m) @ t=0.52
0.09356234110625689
% es.EZ (V/m) @ t=0.52
0.6007673588605844
% es.tEX (V/m) @ t=0.52
1.486124747832637
% es.tEY (V/m) @ t=0.52
0
% es.tEZ (V/m) @ t=0.52
0.6007673588605882
% es.Ex (V/m) @ t=0.52
1.4861247478326378
% es.Ey (V/m) @ t=0.52
0.09356234110625689
% es.Ez (V/m) @ t=0.52
0.6007673588605844
% es.tEx (V/m) @ t=0.52
1.486124747832637
% es.tEy (V/m) @ t=0.52
0
% es.tEz (V/m) @ t=0.52
0.6007673588605882
% V (V) @ t=0.52
0.008022131870375392
% es.normE (V/m) @ t=0.54
1.6223688039147905
% es.EX (V/m) @ t=0.54
1.4992876546062428
% es.EY (V/m) @ t=0.54
0.09439009865646569
% es.EZ (V/m) @ t=0.54
0.6060871546925672
% es.tEX (V/m) @ t=0.54
1.4992876546062455
% es.tEY (V/m) @ t=0.54
0
% es.tEZ (V/m) @ t=0.54
0.6060871546925646
% es.Ex (V/m) @ t=0.54
1.4992876546062428
% es.Ey (V/m) @ t=0.54
0.09439009865646569
% es.Ez (V/m) @ t=0.54
0.6060871546925672
% es.tEx (V/m) @ t=0.54
1.4992876546062455
% es.tEy (V/m) @ t=0.54
0
% es.tEz (V/m) @ t=0.54
0.6060871546925646
% V (V) @ t=0.54
0.008093221660552955
% es.normE (V/m) @ t=0.56
1.6380335592764643
% es.EX (V/m) @ t=0.56
1.5137638401021096
% es.EY (V/m) @ t=0.56
0.09530180364608398
% es.EZ (V/m) @ t=0.56
0.6119396218303148
% es.tEX (V/m) @ t=0.56
1.5137638401021087
% es.tEY (V/m) @ t=0.56
0
% es.tEZ (V/m) @ t=0.56
0.6119396218303157
% es.Ex (V/m) @ t=0.56
1.5137638401021096
% es.Ey (V/m) @ t=0.56
0.09530180364608398
% es.Ez (V/m) @ t=0.56
0.6119396218303148
% es.tEx (V/m) @ t=0.56
1.5137638401021087
% es.tEy (V/m) @ t=0.56
0
% es.tEz (V/m) @ t=0.56
0.6119396218303157
% V (V) @ t=0.56
0.008171351992849562
% es.normE (V/m) @ t=0.58
1.653914084497249
% es.EX (V/m) @ t=0.58
1.5284393327166055
% es.EY (V/m) @ t=0.58
0.09622624875092539
% es.EZ (V/m) @ t=0.58
0.6178729287633931
% es.tEX (V/m) @ t=0.58
1.5284393327166086
% es.tEY (V/m) @ t=0.58
0
% es.tEZ (V/m) @ t=0.58
0.617872928763394
% es.Ex (V/m) @ t=0.58
1.5284393327166055
% es.Ey (V/m) @ t=0.58
0.09622624875092539
% es.Ez (V/m) @ t=0.58
0.6178729287633931
% es.tEx (V/m) @ t=0.58
1.5284393327166086
% es.tEy (V/m) @ t=0.58
0
% es.tEz (V/m) @ t=0.58
0.617872928763394
% V (V) @ t=0.58
0.008250550818939204
% es.normE (V/m) @ t=0.6
1.6697946097186458
% es.EX (V/m) @ t=0.6
1.5431148253310987
% es.EY (V/m) @ t=0.6
0.0971506938557829
% es.EZ (V/m) @ t=0.6
0.6238062356964744
% es.tEX (V/m) @ t=0.6
1.543114825331104
% es.tEY (V/m) @ t=0.6
0
% es.tEZ (V/m) @ t=0.6
0.623806235696478
% es.Ex (V/m) @ t=0.6
1.5431148253310987
% es.Ey (V/m) @ t=0.6
0.0971506938557829
% es.Ez (V/m) @ t=0.6
0.6238062356964744
% es.tEx (V/m) @ t=0.6
1.543114825331104
% es.tEy (V/m) @ t=0.6
0
% es.tEz (V/m) @ t=0.6
0.623806235696478
% V (V) @ t=0.6
0.008329749645028845
% es.normE (V/m) @ t=0.62
1.6856751349406391
% es.EX (V/m) @ t=0.62
1.5577903179456003
% es.EY (V/m) @ t=0.62
0.09807513896062969
% es.EZ (V/m) @ t=0.62
0.6297395426295442
% es.tEX (V/m) @ t=0.62
1.5577903179455896
% es.tEY (V/m) @ t=0.62
0
% es.tEZ (V/m) @ t=0.62
0.6297395426295425
% es.Ex (V/m) @ t=0.62
1.5577903179456003
% es.Ey (V/m) @ t=0.62
0.09807513896062969
% es.Ez (V/m) @ t=0.62
0.6297395426295442
% es.tEx (V/m) @ t=0.62
1.5577903179455896
% es.tEy (V/m) @ t=0.62
0
% es.tEz (V/m) @ t=0.62
0.6297395426295425
% V (V) @ t=0.62
0.008408948471118486
% es.normE (V/m) @ t=0.64
1.7015556601631978
% es.EX (V/m) @ t=0.64
1.5724658105600806
% es.EY (V/m) @ t=0.64
0.0989995840654847
% es.EZ (V/m) @ t=0.64
0.6356728495626287
% es.tEX (V/m) @ t=0.64
1.5724658105600824
% es.tEY (V/m) @ t=0.64
0
% es.tEZ (V/m) @ t=0.64
0.6356728495626287
% es.Ex (V/m) @ t=0.64
1.5724658105600806
% es.Ey (V/m) @ t=0.64
0.0989995840654847
% es.Ez (V/m) @ t=0.64
0.6356728495626287
% es.tEx (V/m) @ t=0.64
1.5724658105600824
% es.tEy (V/m) @ t=0.64
0
% es.tEz (V/m) @ t=0.64
0.6356728495626287
% V (V) @ t=0.64
0.008488147297208128
% es.normE (V/m) @ t=0.66
1.7174361853863287
% es.EX (V/m) @ t=0.66
1.5871413031745742
% es.EY (V/m) @ t=0.66
0.09992402917032439
% es.EZ (V/m) @ t=0.66
0.6416061564957121
% es.tEX (V/m) @ t=0.66
1.5871413031745778
% es.tEY (V/m) @ t=0.66
0
% es.tEZ (V/m) @ t=0.66
0.6416061564957136
% es.Ex (V/m) @ t=0.66
1.5871413031745742
% es.Ey (V/m) @ t=0.66
0.09992402917032439
% es.Ez (V/m) @ t=0.66
0.6416061564957121
% es.tEx (V/m) @ t=0.66
1.5871413031745778
% es.tEy (V/m) @ t=0.66
0
% es.tEz (V/m) @ t=0.66
0.6416061564957136
% V (V) @ t=0.66
0.008567346123297768
% es.normE (V/m) @ t=0.68
1.7333167106100058
% es.EX (V/m) @ t=0.68
1.6018167957890683
% es.EY (V/m) @ t=0.68
0.10084847427516941
% es.EZ (V/m) @ t=0.68
0.6475394634287897
% es.tEX (V/m) @ t=0.68
1.6018167957890652
% es.tEY (V/m) @ t=0.68
0
% es.tEZ (V/m) @ t=0.68
0.6475394634287905
% es.Ex (V/m) @ t=0.68
1.6018167957890683
% es.Ey (V/m) @ t=0.68
0.10084847427516941
% es.Ez (V/m) @ t=0.68
0.6475394634287897
% es.tEx (V/m) @ t=0.68
1.6018167957890652
% es.tEy (V/m) @ t=0.68
0
% es.tEz (V/m) @ t=0.68
0.6475394634287905
% V (V) @ t=0.68
0.008646544949387408
% es.normE (V/m) @ t=0.7
1.7491972358342156
% es.EX (V/m) @ t=0.7
1.6164922884035624
% es.EY (V/m) @ t=0.7
0.10177291938002875
% es.EZ (V/m) @ t=0.7
0.6534727703618728
% es.tEX (V/m) @ t=0.7
1.616492288403566
% es.tEY (V/m) @ t=0.7
0
% es.tEZ (V/m) @ t=0.7
0.6534727703618746
% es.Ex (V/m) @ t=0.7
1.6164922884035624
% es.Ey (V/m) @ t=0.7
0.10177291938002875
% es.Ez (V/m) @ t=0.7
0.6534727703618728
% es.tEx (V/m) @ t=0.7
1.616492288403566
% es.tEy (V/m) @ t=0.7
0
% es.tEz (V/m) @ t=0.7
0.6534727703618746
% V (V) @ t=0.7
0.008725743775477053
% es.normE (V/m) @ t=0.72
1.765077761058949
% es.EX (V/m) @ t=0.72
1.6311677810180605
% es.EY (V/m) @ t=0.72
0.10269736448487643
% es.EZ (V/m) @ t=0.72
0.6594060772949604
% es.tEX (V/m) @ t=0.72
1.6311677810180605
% es.tEY (V/m) @ t=0.72
0
% es.tEZ (V/m) @ t=0.72
0.6594060772949639
% es.Ex (V/m) @ t=0.72
1.6311677810180605
% es.Ey (V/m) @ t=0.72
0.10269736448487643
% es.Ez (V/m) @ t=0.72
0.6594060772949604
% es.tEx (V/m) @ t=0.72
1.6311677810180605
% es.tEy (V/m) @ t=0.72
0
% es.tEz (V/m) @ t=0.72
0.6594060772949639
% V (V) @ t=0.72
0.008804942601566692
% es.normE (V/m) @ t=0.74
1.7809582862841722
% es.EX (V/m) @ t=0.74
1.6458432736325492
% es.EY (V/m) @ t=0.74
0.10362180958972411
% es.EZ (V/m) @ t=0.74
0.6653393842280346
% es.tEX (V/m) @ t=0.74
1.6458432736325435
% es.tEY (V/m) @ t=0.74
0
% es.tEZ (V/m) @ t=0.74
0.6653393842280373
% es.Ex (V/m) @ t=0.74
1.6458432736325492
% es.Ey (V/m) @ t=0.74
0.10362180958972411
% es.Ez (V/m) @ t=0.74
0.6653393842280346
% es.tEx (V/m) @ t=0.74
1.6458432736325435
% es.tEy (V/m) @ t=0.74
0
% es.tEz (V/m) @ t=0.74
0.6653393842280373
% V (V) @ t=0.74
0.008884141427656334
% es.normE (V/m) @ t=0.76
1.7968388115098883
% es.EX (V/m) @ t=0.76
1.660518766247038
% es.EY (V/m) @ t=0.76
0.10454625469456746
% es.EZ (V/m) @ t=0.76
0.6712726911611184
% es.tEX (V/m) @ t=0.76
1.6605187662470344
% es.tEY (V/m) @ t=0.76
0
% es.tEZ (V/m) @ t=0.76
0.6712726911611195
% es.Ex (V/m) @ t=0.76
1.660518766247038
% es.Ey (V/m) @ t=0.76
0.10454625469456746
% es.Ez (V/m) @ t=0.76
0.6712726911611184
% es.tEx (V/m) @ t=0.76
1.6605187662470344
% es.tEy (V/m) @ t=0.76
0
% es.tEz (V/m) @ t=0.76
0.6712726911611195
% V (V) @ t=0.76
0.008963340253745974
% es.normE (V/m) @ t=0.78
1.8127193367360874
% es.EX (V/m) @ t=0.78
1.6751942588615334
% es.EY (V/m) @ t=0.78
0.10547069979942036
% es.EZ (V/m) @ t=0.78
0.6772059980941985
% es.tEX (V/m) @ t=0.78
1.6751942588615263
% es.tEY (V/m) @ t=0.78
0
% es.tEZ (V/m) @ t=0.78
0.6772059980942009
% es.Ex (V/m) @ t=0.78
1.6751942588615334
% es.Ey (V/m) @ t=0.78
0.10547069979942036
% es.Ez (V/m) @ t=0.78
0.6772059980941985
% es.tEx (V/m) @ t=0.78
1.6751942588615263
% es.tEy (V/m) @ t=0.78
0
% es.tEz (V/m) @ t=0.78
0.6772059980942009
% V (V) @ t=0.78
0.009042539079835616
% es.normE (V/m) @ t=0.8
1.8285998619627362
% es.EX (V/m) @ t=0.8
1.6898697514760137
% es.EY (V/m) @ t=0.8
0.10639514490427693
% es.EZ (V/m) @ t=0.8
0.6831393050272752
% es.tEX (V/m) @ t=0.8
1.689869751476003
% es.tEY (V/m) @ t=0.8
0
% es.tEZ (V/m) @ t=0.8
0.683139305027276
% es.Ex (V/m) @ t=0.8
1.6898697514760137
% es.Ey (V/m) @ t=0.8
0.10639514490427693
% es.Ez (V/m) @ t=0.8
0.6831393050272752
% es.tEx (V/m) @ t=0.8
1.689869751476003
% es.tEy (V/m) @ t=0.8
0
% es.tEz (V/m) @ t=0.8
0.683139305027276
% V (V) @ t=0.8
0.009121737905925258
% es.normE (V/m) @ t=0.82
1.845054816169636
% es.EX (V/m) @ t=0.82
1.7050761267922079
% es.EY (V/m) @ t=0.82
0.10735294539225892
% es.EZ (V/m) @ t=0.82
0.6892871263949092
% es.tEX (V/m) @ t=0.82
1.705076126792207
% es.tEY (V/m) @ t=0.82
0
% es.tEZ (V/m) @ t=0.82
0.689287126394913
% es.Ex (V/m) @ t=0.82
1.7050761267922079
% es.Ey (V/m) @ t=0.82
0.10735294539225892
% es.Ez (V/m) @ t=0.82
0.6892871263949092
% es.tEx (V/m) @ t=0.82
1.705076126792207
% es.tEy (V/m) @ t=0.82
0
% es.tEz (V/m) @ t=0.82
0.689287126394913
% V (V) @ t=0.82
0.009203805032129203
% es.normE (V/m) @ t=0.84
1.8628045129451065
% es.EX (V/m) @ t=0.84
1.721479092908777
% es.EY (V/m) @ t=0.84
0.10838592773207134
% es.EZ (V/m) @ t=0.84
0.6959184556977775
% es.tEX (V/m) @ t=0.84
1.7214790929087798
% es.tEY (V/m) @ t=0.84
0
% es.tEZ (V/m) @ t=0.84
0.6959184556977767
% es.Ex (V/m) @ t=0.84
1.721479092908777
% es.Ey (V/m) @ t=0.84
0.10838592773207134
% es.Ez (V/m) @ t=0.84
0.6959184556977775
% es.tEx (V/m) @ t=0.84
1.7214790929087798
% es.tEy (V/m) @ t=0.84
0
% es.tEz (V/m) @ t=0.84
0.6959184556977767
% V (V) @ t=0.84
0.009292337205166744
% es.normE (V/m) @ t=0.86
1.880554209720679
% es.EX (V/m) @ t=0.86
1.7378820590253428
% es.EY (V/m) @ t=0.86
0.10941891007187843
% es.EZ (V/m) @ t=0.86
0.7025497850006264
% es.tEX (V/m) @ t=0.86
1.7378820590253472
% es.tEY (V/m) @ t=0.86
0
% es.tEZ (V/m) @ t=0.86
0.7025497850006333
% es.Ex (V/m) @ t=0.86
1.7378820590253428
% es.Ey (V/m) @ t=0.86
0.10941891007187843
% es.Ez (V/m) @ t=0.86
0.7025497850006264
% es.tEx (V/m) @ t=0.86
1.7378820590253472
% es.tEy (V/m) @ t=0.86
0
% es.tEz (V/m) @ t=0.86
0.7025497850006333
% V (V) @ t=0.86
0.009380869378204286
% es.normE (V/m) @ t=0.88
1.8983039064963887
% es.EX (V/m) @ t=0.88
1.754285025141927
% es.EY (V/m) @ t=0.88
0.1104518924116954
% es.EZ (V/m) @ t=0.88
0.7091811143035034
% es.tEX (V/m) @ t=0.88
1.7542850251419235
% es.tEY (V/m) @ t=0.88
0
% es.tEZ (V/m) @ t=0.88
0.7091811143035045
% es.Ex (V/m) @ t=0.88
1.754285025141927
% es.Ey (V/m) @ t=0.88
0.1104518924116954
% es.Ez (V/m) @ t=0.88
0.7091811143035034
% es.tEx (V/m) @ t=0.88
1.7542850251419235
% es.tEy (V/m) @ t=0.88
0
% es.tEz (V/m) @ t=0.88
0.7091811143035045
% V (V) @ t=0.88
0.00946940155124183
% es.normE (V/m) @ t=0.9
1.91605360327218
% es.EX (V/m) @ t=0.9
1.7706879912584919
% es.EY (V/m) @ t=0.9
0.1114848747515016
% es.EZ (V/m) @ t=0.9
0.7158124436063635
% es.tEX (V/m) @ t=0.9
1.770687991258507
% es.tEY (V/m) @ t=0.9
0
% es.tEZ (V/m) @ t=0.9
0.7158124436063615
% es.Ex (V/m) @ t=0.9
1.7706879912584919
% es.Ey (V/m) @ t=0.9
0.1114848747515016
% es.Ez (V/m) @ t=0.9
0.7158124436063635
% es.tEx (V/m) @ t=0.9
1.770687991258507
% es.tEy (V/m) @ t=0.9
0
% es.tEz (V/m) @ t=0.9
0.7158124436063615
% V (V) @ t=0.9
0.009557933724279372
% es.normE (V/m) @ t=0.92
1.9338033000480843
% es.EX (V/m) @ t=0.92
1.787090957375069
% es.EY (V/m) @ t=0.92
0.11251785709132023
% es.EZ (V/m) @ t=0.92
0.7224437729092157
% es.tEX (V/m) @ t=0.92
1.7870909573750584
% es.tEY (V/m) @ t=0.92
0
% es.tEZ (V/m) @ t=0.92
0.722443772909215
% es.Ex (V/m) @ t=0.92
1.787090957375069
% es.Ey (V/m) @ t=0.92
0.11251785709132023
% es.Ez (V/m) @ t=0.92
0.7224437729092157
% es.tEx (V/m) @ t=0.92
1.7870909573750584
% es.tEy (V/m) @ t=0.92
0
% es.tEz (V/m) @ t=0.92
0.722443772909215
% V (V) @ t=0.92
0.009646465897316915
% es.normE (V/m) @ t=0.94
1.9515529968240874
% es.EX (V/m) @ t=0.94
1.8034939234916392
% es.EY (V/m) @ t=0.94
0.11355083943111222
% es.EZ (V/m) @ t=0.94
0.729075102212084
% es.tEX (V/m) @ t=0.94
1.8034939234916472
% es.tEY (V/m) @ t=0.94
0
% es.tEZ (V/m) @ t=0.94
0.7290751022120858
% es.Ex (V/m) @ t=0.94
1.8034939234916392
% es.Ey (V/m) @ t=0.94
0.11355083943111222
% es.Ez (V/m) @ t=0.94
0.729075102212084
% es.tEx (V/m) @ t=0.94
1.8034939234916472
% es.tEy (V/m) @ t=0.94
0
% es.tEz (V/m) @ t=0.94
0.7290751022120858
% V (V) @ t=0.94
0.009734998070354455
% es.normE (V/m) @ t=0.96
1.9693026936001898
% es.EX (V/m) @ t=0.96
1.8198968896082128
% es.EY (V/m) @ t=0.96
0.11458382177093362
% es.EZ (V/m) @ t=0.96
0.7357064315149435
% es.tEX (V/m) @ t=0.96
1.8198968896082164
% es.tEY (V/m) @ t=0.96
0
% es.tEZ (V/m) @ t=0.96
0.7357064315149424
% es.Ex (V/m) @ t=0.96
1.8198968896082128
% es.Ey (V/m) @ t=0.96
0.11458382177093362
% es.Ez (V/m) @ t=0.96
0.7357064315149435
% es.tEx (V/m) @ t=0.96
1.8198968896082164
% es.tEy (V/m) @ t=0.96
0
% es.tEz (V/m) @ t=0.96
0.7357064315149424
% V (V) @ t=0.96
0.009823530243391996
% es.normE (V/m) @ t=0.98
1.987052390376398
% es.EX (V/m) @ t=0.98
1.8362998557247954
% es.EY (V/m) @ t=0.98
0.1156168041107406
% es.EZ (V/m) @ t=0.98
0.7423377608178112
% es.tEX (V/m) @ t=0.98
1.836299855724791
% es.tEY (V/m) @ t=0.98
0
% es.tEZ (V/m) @ t=0.98
0.7423377608178057
% es.Ex (V/m) @ t=0.98
1.8362998557247954
% es.Ey (V/m) @ t=0.98
0.1156168041107406
% es.Ez (V/m) @ t=0.98
0.7423377608178112
% es.tEx (V/m) @ t=0.98
1.836299855724791
% es.tEy (V/m) @ t=0.98
0
% es.tEz (V/m) @ t=0.98
0.7423377608178057
% V (V) @ t=0.98
0.009912062416429541
% es.normE (V/m) @ t=1
2.004802087152683
% es.EX (V/m) @ t=1
1.8527028218413601
% es.EY (V/m) @ t=1
0.11664978645054946
% es.EZ (V/m) @ t=1
0.74896909012068
% es.tEX (V/m) @ t=1
1.8527028218413673
% es.tEY (V/m) @ t=1
0
% es.tEZ (V/m) @ t=1
0.7489690901206774
% es.Ex (V/m) @ t=1
1.8527028218413601
% es.Ey (V/m) @ t=1
0.11664978645054946
% es.Ez (V/m) @ t=1
0.74896909012068
% es.tEx (V/m) @ t=1
1.8527028218413673
% es.tEy (V/m) @ t=1
0
% es.tEz (V/m) @ t=1
0.7489690901206774
% V (V) @ t=1
0.010000594589467083
% es.normE (V/m) @ t=1.02
2.0225517839290776
% es.EX (V/m) @ t=1.02
1.869105787957948
% es.EY (V/m) @ t=1.02
0.11768276879035477
% es.EZ (V/m) @ t=1.02
0.7556004194235413
% es.tEX (V/m) @ t=1.02
1.8691057879579365
% es.tEY (V/m) @ t=1.02
0
% es.tEZ (V/m) @ t=1.02
0.7556004194235411
% es.Ex (V/m) @ t=1.02
1.869105787957948
% es.Ey (V/m) @ t=1.02
0.11768276879035477
% es.Ez (V/m) @ t=1.02
0.7556004194235413
% es.tEx (V/m) @ t=1.02
1.8691057879579365
% es.tEy (V/m) @ t=1.02
0
% es.tEz (V/m) @ t=1.02
0.7556004194235411
% V (V) @ t=1.02
0.010089126762504624
% es.normE (V/m) @ t=1.04
2.0403014807055406
% es.EX (V/m) @ t=1.04
1.8855087540745172
% es.EY (V/m) @ t=1.04
0.11871575113018773
% es.EZ (V/m) @ t=1.04
0.7622317487263952
% es.tEX (V/m) @ t=1.04
1.8855087540745181
% es.tEY (V/m) @ t=1.04
0
% es.tEZ (V/m) @ t=1.04
0.7622317487263945
% es.Ex (V/m) @ t=1.04
1.8855087540745172
% es.Ey (V/m) @ t=1.04
0.11871575113018773
% es.Ez (V/m) @ t=1.04
0.7622317487263952