% Model:              1 neuron.mph
% Version:            COMSOL 6.0.0.405
% Date:               Mar 16 2023, 17:23
% Dimension:          0
% Nodes:              14017
% Expressions:        14017
% Description:        Electric field norm, Electric field, X component, Electric field, Y component, Electric field, Z component, Tangential electric field, X component, Tangential electric field, Y component, Tangential electric field, Z component, Electric field, x component, Electric field, y component, Electric field, z component, Tangential electric field, x component, Tangential electric field, y component, Tangential electric field, z component, Electric potential
% Length unit:        mm
% x
1.66
% y
12.2
% z
2
% es.normE (V/m) @ t=0
1.4691252605267011
% es.EX (V/m) @ t=0
-0.43826951978509054
% es.EY (V/m) @ t=0
0.032736564201061066
% es.EZ (V/m) @ t=0
-1.3994889184412735
% es.tEX (V/m) @ t=0
-0.43826951978509854
% es.tEY (V/m) @ t=0
0
% es.tEZ (V/m) @ t=0
-1.3994889184412838
% es.Ex (V/m) @ t=0
-0.43826951978509054
% es.Ey (V/m) @ t=0
0.032736564201061066
% es.Ez (V/m) @ t=0
-1.3994889184412735
% es.tEx (V/m) @ t=0
-0.43826951978509854
% es.tEy (V/m) @ t=0
0
% es.tEz (V/m) @ t=0
-1.3994889184412838
% V (V) @ t=0
0.007384441404953634
% es.normE (V/m) @ t=0.02
1.2689114546500688
% es.EX (V/m) @ t=0.02
-0.3785417275306945
% es.EY (V/m) @ t=0.02
0.02827519395006753
% es.EZ (V/m) @ t=0.02
-1.208765220291106
% es.tEX (V/m) @ t=0.02
-0.3785417275306955
% es.tEY (V/m) @ t=0.02
0
% es.tEZ (V/m) @ t=0.02
-1.2087652202911126
% es.Ex (V/m) @ t=0.02
-0.3785417275306945
% es.Ey (V/m) @ t=0.02
0.02827519395006753
% es.Ez (V/m) @ t=0.02
-1.208765220291106
% es.tEx (V/m) @ t=0.02
-0.3785417275306955
% es.tEy (V/m) @ t=0.02
0
% es.tEz (V/m) @ t=0.02
-1.2087652202911126
% V (V) @ t=0.02
0.006378082599057459
% es.normE (V/m) @ t=0.04
1.2805824030589652
% es.EX (V/m) @ t=0.04
-0.3820234056077128
% es.EY (V/m) @ t=0.04
0.02853525838538102
% es.EZ (V/m) @ t=0.04
-1.2198829672178975
% es.tEX (V/m) @ t=0.04
-0.38202340560771475
% es.tEY (V/m) @ t=0.04
0
% es.tEZ (V/m) @ t=0.04
-1.2198829672179126
% es.Ex (V/m) @ t=0.04
-0.3820234056077128
% es.Ey (V/m) @ t=0.04
0.02853525838538102
% es.Ez (V/m) @ t=0.04
-1.2198829672178975
% es.tEx (V/m) @ t=0.04
-0.38202340560771475
% es.tEy (V/m) @ t=0.04
0
% es.tEz (V/m) @ t=0.04
-1.2198829672179126
% V (V) @ t=0.04
0.006436745672038289
% es.normE (V/m) @ t=0.06
1.2923601527318285
% es.EX (V/m) @ t=0.06
-0.38553694398623173
% es.EY (V/m) @ t=0.06
0.028797701420350263
% es.EZ (V/m) @ t=0.06
-1.2311024533410193
% es.tEX (V/m) @ t=0.06
-0.38553694398623506
% es.tEY (V/m) @ t=0.06
0
% es.tEZ (V/m) @ t=0.06
-1.231102453341034
% es.Ex (V/m) @ t=0.06
-0.38553694398623173
% es.Ey (V/m) @ t=0.06
0.028797701420350263
% es.Ez (V/m) @ t=0.06
-1.2311024533410193
% es.tEx (V/m) @ t=0.06
-0.38553694398623506
% es.tEy (V/m) @ t=0.06
0
% es.tEz (V/m) @ t=0.06
-1.231102453341034
% V (V) @ t=0.06
0.0064959456549640955
% es.normE (V/m) @ t=0.08
1.3043139508346973
% es.EX (V/m) @ t=0.08
-0.38910300214833493
% es.EY (V/m) @ t=0.08
0.02906406932297597
% es.EZ (V/m) @ t=0.08
-1.242489642761083
% es.tEX (V/m) @ t=0.08
-0.38910300214833526
% es.tEY (V/m) @ t=0.08
0
% es.tEZ (V/m) @ t=0.08
-1.242489642761095
% es.Ex (V/m) @ t=0.08
-0.38910300214833493
% es.Ey (V/m) @ t=0.08
0.02906406932297597
% es.Ez (V/m) @ t=0.08
-1.242489642761083
% es.tEx (V/m) @ t=0.08
-0.38910300214833526
% es.tEy (V/m) @ t=0.08
0
% es.tEz (V/m) @ t=0.08
-1.242489642761095
% V (V) @ t=0.08
0.006556030405802423
% es.normE (V/m) @ t=0.1
1.3163978345772076
% es.EX (V/m) @ t=0.1
-0.3927078682091616
% es.EY (V/m) @ t=0.1
0.02933333738729954
% es.EZ (V/m) @ t=0.1
-1.2540007514382054
% es.tEX (V/m) @ t=0.1
-0.39270786820916825
% es.tEY (V/m) @ t=0.1
0
% es.tEZ (V/m) @ t=0.1
-1.2540007514382117
% es.Ex (V/m) @ t=0.1
-0.3927078682091616
% es.Ey (V/m) @ t=0.1
0.02933333738729954
% es.Ez (V/m) @ t=0.1
-1.2540007514382054
% es.tEx (V/m) @ t=0.1
-0.39270786820916825
% es.tEy (V/m) @ t=0.1
0
% es.tEz (V/m) @ t=0.1
-1.2540007514382117
% V (V) @ t=0.1
0.006616768929013587
% es.normE (V/m) @ t=0.12
1.3284817183197104
% es.EX (V/m) @ t=0.12
-0.3963127342699837
% es.EY (V/m) @ t=0.12
0.029602605451626927
% es.EZ (V/m) @ t=0.12
-1.2655118601153212
% es.tEX (V/m) @ t=0.12
-0.3963127342699906
% es.tEY (V/m) @ t=0.12
0
% es.tEZ (V/m) @ t=0.12
-1.2655118601153212
% es.Ex (V/m) @ t=0.12
-0.3963127342699837
% es.Ey (V/m) @ t=0.12
0.029602605451626927
% es.Ez (V/m) @ t=0.12
-1.2655118601153212
% es.tEx (V/m) @ t=0.12
-0.3963127342699906
% es.tEy (V/m) @ t=0.12
0
% es.tEz (V/m) @ t=0.12
-1.2655118601153212
% V (V) @ t=0.12
0.006677507452224751
% es.normE (V/m) @ t=0.14
1.3406693398998821
% es.EX (V/m) @ t=0.14
-0.3999485472835622
% es.EY (V/m) @ t=0.14
0.029874184854039136
% es.EZ (V/m) @ t=0.14
-1.2771217895280067
% es.tEX (V/m) @ t=0.14
-0.39994854728356444
% es.tEY (V/m) @ t=0.14
0
% es.tEZ (V/m) @ t=0.14
-1.2771217895280111
% es.Ex (V/m) @ t=0.14
-0.3999485472835622
% es.Ey (V/m) @ t=0.14
0.029874184854039136
% es.Ez (V/m) @ t=0.14
-1.2771217895280067
% es.tEx (V/m) @ t=0.14
-0.39994854728356444
% es.tEy (V/m) @ t=0.14
0
% es.tEz (V/m) @ t=0.14
-1.2771217895280111
% V (V) @ t=0.14
0.006738767421019759
% es.normE (V/m) @ t=0.16
1.3534010018005596
% es.EX (V/m) @ t=0.16
-0.4037466577815819
% es.EY (V/m) @ t=0.16
0.030157885784491613
% es.EZ (V/m) @ t=0.16
-1.2892499721244923
% es.tEX (V/m) @ t=0.16
-0.4037466577815856
% es.tEY (V/m) @ t=0.16
0
% es.tEZ (V/m) @ t=0.16
-1.2892499721245025
% es.Ex (V/m) @ t=0.16
-0.4037466577815819
% es.Ey (V/m) @ t=0.16
0.030157885784491613
% es.Ez (V/m) @ t=0.16
-1.2892499721244923
% es.tEx (V/m) @ t=0.16
-0.4037466577815856
% es.tEy (V/m) @ t=0.16
0
% es.tEz (V/m) @ t=0.16
-1.2892499721245025
% V (V) @ t=0.16
0.006802762046993951
% es.normE (V/m) @ t=0.18
1.3661326637012234
% es.EX (V/m) @ t=0.18
-0.40754476827959896
% es.EY (V/m) @ t=0.18
0.0304415867149432
% es.EZ (V/m) @ t=0.18
-1.3013781547209637
% es.tEX (V/m) @ t=0.18
-0.4075447682796032
% es.tEY (V/m) @ t=0.18
0
% es.tEZ (V/m) @ t=0.18
-1.3013781547209868
% es.Ex (V/m) @ t=0.18
-0.40754476827959896
% es.Ey (V/m) @ t=0.18
0.0304415867149432
% es.Ez (V/m) @ t=0.18
-1.3013781547209637
% es.tEx (V/m) @ t=0.18
-0.4075447682796032
% es.tEy (V/m) @ t=0.18
0
% es.tEz (V/m) @ t=0.18
-1.3013781547209868
% V (V) @ t=0.18
0.006866756672968145
% es.normE (V/m) @ t=0.2
1.3788643256018984
% es.EX (V/m) @ t=0.2
-0.41134287877761866
% es.EY (V/m) @ t=0.2
0.03072528764539479
% es.EZ (V/m) @ t=0.2
-1.3135063373174458
% es.tEX (V/m) @ t=0.2
-0.41134287877762077
% es.tEY (V/m) @ t=0.2
0
% es.tEZ (V/m) @ t=0.2
-1.313506337317456
% es.Ex (V/m) @ t=0.2
-0.41134287877761866
% es.Ey (V/m) @ t=0.2
0.03072528764539479
% es.Ez (V/m) @ t=0.2
-1.3135063373174458
% es.tEx (V/m) @ t=0.2
-0.41134287877762077
% es.tEy (V/m) @ t=0.2
0
% es.tEz (V/m) @ t=0.2
-1.313506337317456
% V (V) @ t=0.2
0.0069307512989423385
% es.normE (V/m) @ t=0.22
1.3915959875025685
% es.EX (V/m) @ t=0.22
-0.4151409892756339
% es.EY (V/m) @ t=0.22
0.03100898857584105
% es.EZ (V/m) @ t=0.22
-1.3256345199139243
% es.tEX (V/m) @ t=0.22
-0.4151409892756348
% es.tEY (V/m) @ t=0.22
0
% es.tEZ (V/m) @ t=0.22
-1.3256345199139403
% es.Ex (V/m) @ t=0.22
-0.4151409892756339
% es.Ey (V/m) @ t=0.22
0.03100898857584105
% es.Ez (V/m) @ t=0.22
-1.3256345199139243
% es.tEx (V/m) @ t=0.22
-0.4151409892756348
% es.tEy (V/m) @ t=0.22
0
% es.tEz (V/m) @ t=0.22
-1.3256345199139403
% V (V) @ t=0.22
0.0069947459249165315
% es.normE (V/m) @ t=0.24
1.404327649403238
% es.EX (V/m) @ t=0.24
-0.41893909977364735
% es.EY (V/m) @ t=0.24
0.03129268950629641
% es.EZ (V/m) @ t=0.24
-1.3377627025104029
% es.tEX (V/m) @ t=0.24
-0.4189390997736524
% es.tEY (V/m) @ t=0.24
0
% es.tEZ (V/m) @ t=0.24
-1.3377627025104175
% es.Ex (V/m) @ t=0.24
-0.41893909977364735
% es.Ey (V/m) @ t=0.24
0.03129268950629641
% es.Ez (V/m) @ t=0.24
-1.3377627025104029
% es.tEx (V/m) @ t=0.24
-0.4189390997736524
% es.tEy (V/m) @ t=0.24
0
% es.tEz (V/m) @ t=0.24
-1.3377627025104175
% V (V) @ t=0.24
0.007058740550890725
% es.normE (V/m) @ t=0.26
1.4170593113039076
% es.EX (V/m) @ t=0.26
-0.42273721027166167
% es.EY (V/m) @ t=0.26
0.031576390436746
% es.EZ (V/m) @ t=0.26
-1.3498908851068814
% es.tEX (V/m) @ t=0.26
-0.42273721027166644
% es.tEY (V/m) @ t=0.26
0
% es.tEZ (V/m) @ t=0.26
-1.3498908851068867
% es.Ex (V/m) @ t=0.26
-0.42273721027166167
% es.Ey (V/m) @ t=0.26
0.031576390436746
% es.Ez (V/m) @ t=0.26
-1.3498908851068814
% es.tEx (V/m) @ t=0.26
-0.42273721027166644
% es.tEy (V/m) @ t=0.26
0
% es.tEz (V/m) @ t=0.26
-1.3498908851068867
% V (V) @ t=0.26
0.007122735176864919
% es.normE (V/m) @ t=0.28
1.43027234942866
% es.EX (V/m) @ t=0.28
-0.4266789343171646
% es.EY (V/m) @ t=0.28
0.03187083579198574
% es.EZ (V/m) @ t=0.28
-1.3624776225050588
% es.tEX (V/m) @ t=0.28
-0.42667893431716664
% es.tEY (V/m) @ t=0.28
0
% es.tEZ (V/m) @ t=0.28
-1.362477622505077
% es.Ex (V/m) @ t=0.28
-0.4266789343171646
% es.Ey (V/m) @ t=0.28
0.03187083579198574
% es.Ez (V/m) @ t=0.28
-1.3624776225050588
% es.tEx (V/m) @ t=0.28
-0.42667893431716664
% es.tEy (V/m) @ t=0.28
0
% es.tEz (V/m) @ t=0.28
-1.362477622505077
% V (V) @ t=0.28
0.007189148237938634
% es.normE (V/m) @ t=0.3
1.4444614339118242
% es.EX (V/m) @ t=0.3
-0.43091185155631817
% es.EY (V/m) @ t=0.3
0.03218706671984396
% es.EZ (V/m) @ t=0.3
-1.3759941331698418
% es.tEX (V/m) @ t=0.3
-0.4309118515563206
% es.tEY (V/m) @ t=0.3
0
% es.tEZ (V/m) @ t=0.3
-1.3759941331698489
% es.Ex (V/m) @ t=0.3
-0.43091185155631817
% es.Ey (V/m) @ t=0.3
0.03218706671984396
% es.Ez (V/m) @ t=0.3
-1.3759941331698418
% es.tEx (V/m) @ t=0.3
-0.4309118515563206
% es.tEy (V/m) @ t=0.3
0
% es.tEz (V/m) @ t=0.3
-1.3759941331698489
% V (V) @ t=0.3
0.0072604649578425625
% es.normE (V/m) @ t=0.32
1.4586505183949876
% es.EX (V/m) @ t=0.32
-0.43514476879547537
% es.EY (V/m) @ t=0.32
0.03250329764770414
% es.EZ (V/m) @ t=0.32
-1.3895106438346172
% es.tEX (V/m) @ t=0.32
-0.4351447687954817
% es.tEY (V/m) @ t=0.32
0
% es.tEZ (V/m) @ t=0.32
-1.389510643834626
% es.Ex (V/m) @ t=0.32
-0.43514476879547537
% es.Ey (V/m) @ t=0.32
0.03250329764770414
% es.Ez (V/m) @ t=0.32
-1.3895106438346172
% es.tEx (V/m) @ t=0.32
-0.4351447687954817
% es.tEy (V/m) @ t=0.32
0
% es.tEz (V/m) @ t=0.32
-1.389510643834626
% V (V) @ t=0.32
0.0073317816777464925
% es.normE (V/m) @ t=0.34
1.4728396028781485
% es.EX (V/m) @ t=0.34
-0.43937768603463534
% es.EY (V/m) @ t=0.34
0.03281952857555785
% es.EZ (V/m) @ t=0.34
-1.4030271544993855
% es.tEX (V/m) @ t=0.34
-0.4393776860346392
% es.tEY (V/m) @ t=0.34
0
% es.tEZ (V/m) @ t=0.34
-1.403027154499398
% es.Ex (V/m) @ t=0.34
-0.43937768603463534
% es.Ey (V/m) @ t=0.34
0.03281952857555785
% es.Ez (V/m) @ t=0.34
-1.4030271544993855
% es.tEx (V/m) @ t=0.34
-0.4393776860346392
% es.tEy (V/m) @ t=0.34
0
% es.tEz (V/m) @ t=0.34
-1.403027154499398
% V (V) @ t=0.34
0.007403098397650422
% es.normE (V/m) @ t=0.36
1.4870286873613185
% es.EX (V/m) @ t=0.36
-0.443610603273789
% es.EY (V/m) @ t=0.36
0.03313575950340471
% es.EZ (V/m) @ t=0.36
-1.416543665164161
% es.tEX (V/m) @ t=0.36
-0.4436106032737932
% es.tEY (V/m) @ t=0.36
0
% es.tEZ (V/m) @ t=0.36
-1.4165436651641752
% es.Ex (V/m) @ t=0.36
-0.443610603273789
% es.Ey (V/m) @ t=0.36
0.03313575950340471
% es.Ez (V/m) @ t=0.36
-1.416543665164161
% es.tEx (V/m) @ t=0.36
-0.4436106032737932
% es.tEy (V/m) @ t=0.36
0
% es.tEz (V/m) @ t=0.36
-1.4165436651641752
% V (V) @ t=0.36
0.007474415117554351
% es.normE (V/m) @ t=0.38
1.5012177718444915
% es.EX (V/m) @ t=0.38
-0.44784352051294174
% es.EY (V/m) @ t=0.38
0.03345199043126467
% es.EZ (V/m) @ t=0.38
-1.4300601758289364
% es.tEX (V/m) @ t=0.38
-0.4478435205129436
% es.tEY (V/m) @ t=0.38
0
% es.tEZ (V/m) @ t=0.38
-1.4300601758289453
% es.Ex (V/m) @ t=0.38
-0.44784352051294174
% es.Ey (V/m) @ t=0.38
0.03345199043126467
% es.Ez (V/m) @ t=0.38
-1.4300601758289364
% es.tEx (V/m) @ t=0.38
-0.4478435205129436
% es.tEy (V/m) @ t=0.38
0
% es.tEz (V/m) @ t=0.38
-1.4300601758289453
% V (V) @ t=0.38
0.007545731837458281
% es.normE (V/m) @ t=0.4
1.5154068563276482
% es.EX (V/m) @ t=0.4
-0.4520764377520937
% es.EY (V/m) @ t=0.4
0.03376822135912063
% es.EZ (V/m) @ t=0.4
-1.4435766864936905
% es.tEX (V/m) @ t=0.4
-0.45207643775210116
% es.tEY (V/m) @ t=0.4
0
% es.tEZ (V/m) @ t=0.4
-1.44357668649371
% es.Ex (V/m) @ t=0.4
-0.4520764377520937
% es.Ey (V/m) @ t=0.4
0.03376822135912063
% es.Ez (V/m) @ t=0.4
-1.4435766864936905
% es.tEx (V/m) @ t=0.4
-0.45207643775210116
% es.tEy (V/m) @ t=0.4
0
% es.tEz (V/m) @ t=0.4
-1.44357668649371
% V (V) @ t=0.4
0.007617048557362209
% es.normE (V/m) @ t=0.42
1.5295959408108364
% es.EX (V/m) @ t=0.42
-0.4563093549912492
% es.EY (V/m) @ t=0.42
0.03408445228697259
% es.EZ (V/m) @ t=0.42
-1.457093197158473
% es.tEX (V/m) @ t=0.42
-0.45630935499124803
% es.tEY (V/m) @ t=0.42
0
% es.tEZ (V/m) @ t=0.42
-1.4570931971584873
% es.Ex (V/m) @ t=0.42
-0.4563093549912492
% es.Ey (V/m) @ t=0.42
0.03408445228697259
% es.Ez (V/m) @ t=0.42
-1.457093197158473
% es.tEx (V/m) @ t=0.42
-0.45630935499124803
% es.tEy (V/m) @ t=0.42
0
% es.tEz (V/m) @ t=0.42
-1.4570931971584873
% V (V) @ t=0.42
0.007688365277266139
% es.normE (V/m) @ t=0.44
1.543785025294017
% es.EX (V/m) @ t=0.44
-0.460542272230408
% es.EY (V/m) @ t=0.44
0.03440068321482549
% es.EZ (V/m) @ t=0.44
-1.4706097078232423
% es.tEX (V/m) @ t=0.44
-0.46054227223041266
% es.tEY (V/m) @ t=0.44
0
% es.tEZ (V/m) @ t=0.44
-1.4706097078232663
% es.Ex (V/m) @ t=0.44
-0.460542272230408
% es.Ey (V/m) @ t=0.44
0.03440068321482549
% es.Ez (V/m) @ t=0.44
-1.4706097078232423
% es.tEx (V/m) @ t=0.44
-0.46054227223041266
% es.tEy (V/m) @ t=0.44
0
% es.tEz (V/m) @ t=0.44
-1.4706097078232663
% V (V) @ t=0.44
0.007759681997170069
% es.normE (V/m) @ t=0.46
1.5579741097772122
% es.EX (V/m) @ t=0.46
-0.4647751894695654
% es.EY (V/m) @ t=0.46
0.03471691414268297
% es.EZ (V/m) @ t=0.46
-1.4841262184880244
% es.tEX (V/m) @ t=0.46
-0.4647751894695702
% es.tEY (V/m) @ t=0.46
0
% es.tEZ (V/m) @ t=0.46
-1.4841262184880364
% es.Ex (V/m) @ t=0.46
-0.4647751894695654
% es.Ey (V/m) @ t=0.46
0.03471691414268297
% es.Ez (V/m) @ t=0.46
-1.4841262184880244
% es.tEx (V/m) @ t=0.46
-0.4647751894695702
% es.tEy (V/m) @ t=0.46
0
% es.tEz (V/m) @ t=0.46
-1.4841262184880364
% V (V) @ t=0.46
0.007830998717073998
% es.normE (V/m) @ t=0.48
1.5721631942604022
% es.EX (V/m) @ t=0.48
-0.46900810670871285
% es.EY (V/m) @ t=0.48
0.0350331450705316
% es.EZ (V/m) @ t=0.48
-1.4976427291527998
% es.tEX (V/m) @ t=0.48
-0.46900810670871707
% es.tEY (V/m) @ t=0.48
0
% es.tEZ (V/m) @ t=0.48
-1.4976427291528074
% es.Ex (V/m) @ t=0.48
-0.46900810670871285
% es.Ey (V/m) @ t=0.48
0.0350331450705316
% es.Ez (V/m) @ t=0.48
-1.4976427291527998
% es.tEx (V/m) @ t=0.48
-0.46900810670871707
% es.tEy (V/m) @ t=0.48
0
% es.tEz (V/m) @ t=0.48
-1.4976427291528074
% V (V) @ t=0.48
0.007902315436977928
% es.normE (V/m) @ t=0.5
1.5863522787435926
% es.EX (V/m) @ t=0.5
-0.4732410239478736
% es.EY (V/m) @ t=0.5
0.03534937599839423
% es.EZ (V/m) @ t=0.5
-1.5111592398175682
% es.tEX (V/m) @ t=0.5
-0.47324102394787815
% es.tEY (V/m) @ t=0.5
0
% es.tEZ (V/m) @ t=0.5
-1.5111592398175793
% es.Ex (V/m) @ t=0.5
-0.4732410239478736
% es.Ey (V/m) @ t=0.5
0.03534937599839423
% es.Ez (V/m) @ t=0.5
-1.5111592398175682
% es.tEx (V/m) @ t=0.5
-0.47324102394787815
% es.tEy (V/m) @ t=0.5
0
% es.tEz (V/m) @ t=0.5
-1.5111592398175793
% V (V) @ t=0.5
0.007973632156881856
% es.normE (V/m) @ t=0.52
1.6005413632267818
% es.EX (V/m) @ t=0.52
-0.47747394118702013
% es.EY (V/m) @ t=0.52
0.03566560692625019
% es.EZ (V/m) @ t=0.52
-1.5246757504823365
% es.tEX (V/m) @ t=0.52
-0.477473941187025
% es.tEY (V/m) @ t=0.52
0
% es.tEZ (V/m) @ t=0.52
-1.5246757504823485
% es.Ex (V/m) @ t=0.52
-0.47747394118702013
% es.Ey (V/m) @ t=0.52
0.03566560692625019
% es.Ez (V/m) @ t=0.52
-1.5246757504823365
% es.tEx (V/m) @ t=0.52
-0.477473941187025
% es.tEy (V/m) @ t=0.52
0
% es.tEz (V/m) @ t=0.52
-1.5246757504823485
% V (V) @ t=0.52
0.008044948876785786
% es.normE (V/m) @ t=0.54
1.614730447709978
% es.EX (V/m) @ t=0.54
-0.4817068584261792
% es.EY (V/m) @ t=0.54
0.03598183785410038
% es.EZ (V/m) @ t=0.54
-1.5381922611471053
% es.tEX (V/m) @ t=0.54
-0.48170685842618255
% es.tEY (V/m) @ t=0.54
0
% es.tEZ (V/m) @ t=0.54
-1.5381922611471204
% es.Ex (V/m) @ t=0.54
-0.4817068584261792
% es.Ey (V/m) @ t=0.54
0.03598183785410038
% es.Ez (V/m) @ t=0.54
-1.5381922611471053
% es.tEx (V/m) @ t=0.54
-0.48170685842618255
% es.tEy (V/m) @ t=0.54
0
% es.tEz (V/m) @ t=0.54
-1.5381922611471204
% V (V) @ t=0.54
0.008116265596689716
% es.normE (V/m) @ t=0.56
1.6300286959405237
% es.EX (V/m) @ t=0.56
-0.48627063359940914
% es.EY (V/m) @ t=0.56
0.03632273116444972
% es.EZ (V/m) @ t=0.56
-1.5527653739813232
% es.tEX (V/m) @ t=0.56
-0.4862706335994105
% es.tEY (V/m) @ t=0.56
0
% es.tEZ (V/m) @ t=0.56
-1.5527653739813392
% es.Ex (V/m) @ t=0.56
-0.48627063359940914
% es.Ey (V/m) @ t=0.56
0.03632273116444972
% es.Ez (V/m) @ t=0.56
-1.5527653739813232
% es.tEx (V/m) @ t=0.56
-0.4862706335994105
% es.tEy (V/m) @ t=0.56
0
% es.tEz (V/m) @ t=0.56
-1.5527653739813392
% V (V) @ t=0.56
0.008193160903611394
% es.normE (V/m) @ t=0.58
1.6458717914016634
% es.EX (V/m) @ t=0.58
-0.4909969339448971
% es.EY (V/m) @ t=0.58
0.036675739215161866
% es.EZ (V/m) @ t=0.58
-1.5678575145670708
% es.tEX (V/m) @ t=0.58
-0.4909969339449063
% es.tEY (V/m) @ t=0.58
0
% es.tEZ (V/m) @ t=0.58
-1.5678575145670894
% es.Ex (V/m) @ t=0.58
-0.4909969339448971
% es.Ey (V/m) @ t=0.58
0.036675739215161866
% es.Ez (V/m) @ t=0.58
-1.5678575145670708
% es.tEx (V/m) @ t=0.58
-0.4909969339449063
% es.tEy (V/m) @ t=0.58
0
% es.tEz (V/m) @ t=0.58
-1.5678575145670894
% V (V) @ t=0.58
0.0082727965432337
% es.normE (V/m) @ t=0.6
1.6617148868627933
% es.EX (V/m) @ t=0.6
-0.4957232342903882
% es.EY (V/m) @ t=0.6
0.03702874726585322
% es.EZ (V/m) @ t=0.6
-1.582949655152805
% es.tEX (V/m) @ t=0.6
-0.4957232342903879
% es.tEY (V/m) @ t=0.6
0
% es.tEZ (V/m) @ t=0.6
-1.5829496551528255
% es.Ex (V/m) @ t=0.6
-0.4957232342903882
% es.Ey (V/m) @ t=0.6
0.03702874726585322
% es.Ez (V/m) @ t=0.6
-1.582949655152805
% es.tEx (V/m) @ t=0.6
-0.4957232342903879
% es.tEy (V/m) @ t=0.6
0
% es.tEz (V/m) @ t=0.6
-1.5829496551528255
% V (V) @ t=0.6
0.008352432182856008
% es.normE (V/m) @ t=0.62
1.6775579823239362
% es.EX (V/m) @ t=0.62
-0.5004495346358768
% es.EY (V/m) @ t=0.62
0.0373817553165656
% es.EZ (V/m) @ t=0.62
-1.598041795738553
% es.tEX (V/m) @ t=0.62
-0.5004495346358802
% es.tEY (V/m) @ t=0.62
0
% es.tEZ (V/m) @ t=0.62
-1.5980417957385686
% es.Ex (V/m) @ t=0.62
-0.5004495346358768
% es.Ey (V/m) @ t=0.62
0.0373817553165656
% es.Ez (V/m) @ t=0.62
-1.598041795738553
% es.tEx (V/m) @ t=0.62
-0.5004495346358802
% es.tEy (V/m) @ t=0.62
0
% es.tEz (V/m) @ t=0.62
-1.5980417957385686
% V (V) @ t=0.62
0.008432067822478318
% es.normE (V/m) @ t=0.64
1.693401077785086
% es.EX (V/m) @ t=0.64
-0.5051758349813654
% es.EY (V/m) @ t=0.64
0.037734763367251144
% es.EZ (V/m) @ t=0.64
-1.6131339363243078
% es.tEX (V/m) @ t=0.64
-0.5051758349813689
% es.tEY (V/m) @ t=0.64
0
% es.tEZ (V/m) @ t=0.64
-1.613133936324326
% es.Ex (V/m) @ t=0.64
-0.5051758349813654
% es.Ey (V/m) @ t=0.64
0.037734763367251144
% es.Ez (V/m) @ t=0.64
-1.6131339363243078
% es.tEx (V/m) @ t=0.64
-0.5051758349813689
% es.tEy (V/m) @ t=0.64
0
% es.tEz (V/m) @ t=0.64
-1.613133936324326
% V (V) @ t=0.64
0.008511703462100626
% es.normE (V/m) @ t=0.66
1.7092441732462167
% es.EX (V/m) @ t=0.66
-0.5099021353268478
% es.EY (V/m) @ t=0.66
0.038087771417958445
% es.EZ (V/m) @ t=0.66
-1.6282260769100416
% es.tEX (V/m) @ t=0.66
-0.509902135326854
% es.tEY (V/m) @ t=0.66
0
% es.tEZ (V/m) @ t=0.66
-1.628226076910062
% es.Ex (V/m) @ t=0.66
-0.5099021353268478
% es.Ey (V/m) @ t=0.66
0.038087771417958445
% es.Ez (V/m) @ t=0.66
-1.6282260769100416
% es.tEx (V/m) @ t=0.66
-0.509902135326854
% es.tEy (V/m) @ t=0.66
0
% es.tEz (V/m) @ t=0.66
-1.628226076910062
% V (V) @ t=0.66
0.008591339101722934
% es.normE (V/m) @ t=0.68
1.7250872687073582
% es.EX (V/m) @ t=0.68
-0.5146284356723427
% es.EY (V/m) @ t=0.68
0.03844077946865284
% es.EZ (V/m) @ t=0.68
-1.6433182174957826
% es.tEX (V/m) @ t=0.68
-0.5146284356723427
% es.tEY (V/m) @ t=0.68
0
% es.tEZ (V/m) @ t=0.68
-1.643318217495806
% es.Ex (V/m) @ t=0.68
-0.5146284356723427
% es.Ey (V/m) @ t=0.68
0.03844077946865284
% es.Ez (V/m) @ t=0.68
-1.6433182174957826
% es.tEx (V/m) @ t=0.68
-0.5146284356723427
% es.tEy (V/m) @ t=0.68
0
% es.tEz (V/m) @ t=0.68
-1.643318217495806
% V (V) @ t=0.68
0.008670974741345242
% es.normE (V/m) @ t=0.7
1.740930364168505
% es.EX (V/m) @ t=0.7
-0.5193547360178278
% es.EY (V/m) @ t=0.7
0.0387937875193617
% es.EZ (V/m) @ t=0.7
-1.6584103580815306
% es.tEX (V/m) @ t=0.7
-0.519354736017835
% es.tEY (V/m) @ t=0.7
0
% es.tEZ (V/m) @ t=0.7
-1.6584103580815412
% es.Ex (V/m) @ t=0.7
-0.5193547360178278
% es.Ey (V/m) @ t=0.7
0.0387937875193617
% es.Ez (V/m) @ t=0.7
-1.6584103580815306
% es.tEx (V/m) @ t=0.7
-0.519354736017835
% es.tEy (V/m) @ t=0.7
0
% es.tEz (V/m) @ t=0.7
-1.6584103580815412
% V (V) @ t=0.7
0.008750610380967552
% es.normE (V/m) @ t=0.72
1.756773459629648
% es.EX (V/m) @ t=0.72
-0.5240810363633172
% es.EY (V/m) @ t=0.72
0.039146795570065486
% es.EZ (V/m) @ t=0.72
-1.673502498667272
% es.tEX (V/m) @ t=0.72
-0.5240810363633273
% es.tEY (V/m) @ t=0.72
0
% es.tEZ (V/m) @ t=0.72
-1.6735024986672915
% es.Ex (V/m) @ t=0.72
-0.5240810363633172
% es.Ey (V/m) @ t=0.72
0.039146795570065486
% es.Ez (V/m) @ t=0.72
-1.673502498667272
% es.tEx (V/m) @ t=0.72
-0.5240810363633273
% es.tEy (V/m) @ t=0.72
0
% es.tEz (V/m) @ t=0.72
-1.6735024986672915
% V (V) @ t=0.72
0.008830246020589856
% es.normE (V/m) @ t=0.74
1.77261655509079
% es.EX (V/m) @ t=0.74
-0.5288073367088051
% es.EY (V/m) @ t=0.74
0.0394998036207634
% es.EZ (V/m) @ t=0.74
-1.688594639253012
% es.tEX (V/m) @ t=0.74
-0.5288073367088124
% es.tEY (V/m) @ t=0.74
0
% es.tEZ (V/m) @ t=0.74
-1.6885946392530284
% es.Ex (V/m) @ t=0.74
-0.5288073367088051
% es.Ey (V/m) @ t=0.74
0.0394998036207634
% es.Ez (V/m) @ t=0.74
-1.688594639253012
% es.tEx (V/m) @ t=0.74
-0.5288073367088124
% es.tEy (V/m) @ t=0.74
0
% es.tEz (V/m) @ t=0.74
-1.6885946392530284
% V (V) @ t=0.74
0.008909881660212166
% es.normE (V/m) @ t=0.76
1.78845965055194
% es.EX (V/m) @ t=0.76
-0.5335336370542909
% es.EY (V/m) @ t=0.76
0.03985281167145631
% es.EZ (V/m) @ t=0.76
-1.703686779838761
% es.tEX (V/m) @ t=0.76
-0.533533637054294
% es.tEY (V/m) @ t=0.76
0
% es.tEZ (V/m) @ t=0.76
-1.7036867798387787
% es.Ex (V/m) @ t=0.76
-0.5335336370542909
% es.Ey (V/m) @ t=0.76
0.03985281167145631
% es.Ez (V/m) @ t=0.76
-1.703686779838761
% es.tEx (V/m) @ t=0.76
-0.533533637054294
% es.tEy (V/m) @ t=0.76
0
% es.tEz (V/m) @ t=0.76
-1.7036867798387787
% V (V) @ t=0.76
0.008989517299834476
% es.normE (V/m) @ t=0.78
1.804302746013077
% es.EX (V/m) @ t=0.78
-0.5382599373997787
% es.EY (V/m) @ t=0.78
0.04020581972216354
% es.EZ (V/m) @ t=0.78
-1.7187789204244939
% es.tEX (V/m) @ t=0.78
-0.5382599373997792
% es.tEY (V/m) @ t=0.78
0
% es.tEZ (V/m) @ t=0.78
-1.7187789204245139
% es.Ex (V/m) @ t=0.78
-0.5382599373997787
% es.Ey (V/m) @ t=0.78
0.04020581972216354
% es.Ez (V/m) @ t=0.78
-1.7187789204244939
% es.tEx (V/m) @ t=0.78
-0.5382599373997792
% es.tEy (V/m) @ t=0.78
0
% es.tEz (V/m) @ t=0.78
-1.7187789204245139
% V (V) @ t=0.78
0.009069152939456784
% es.normE (V/m) @ t=0.8
1.8201458414742313
% es.EX (V/m) @ t=0.8
-0.5429862377452717
% es.EY (V/m) @ t=0.8
0.04055882777285978
% es.EZ (V/m) @ t=0.8
-1.7338710610102424
% es.tEX (V/m) @ t=0.8
-0.542986237745275
% es.tEY (V/m) @ t=0.8
0
% es.tEZ (V/m) @ t=0.8
-1.733871061010265
% es.Ex (V/m) @ t=0.8
-0.5429862377452717
% es.Ey (V/m) @ t=0.8
0.04055882777285978
% es.Ez (V/m) @ t=0.8
-1.7338710610102424
% es.tEx (V/m) @ t=0.8
-0.542986237745275
% es.tEy (V/m) @ t=0.8
0
% es.tEz (V/m) @ t=0.8
-1.733871061010265
% V (V) @ t=0.8
0.009148788579079092
% es.normE (V/m) @ t=0.82
1.836009419016884
% es.EX (V/m) @ t=0.82
-0.5477186465458547
% es.EY (V/m) @ t=0.82
0.04091228887321334
% es.EZ (V/m) @ t=0.82
-1.7489827136276777
% es.tEX (V/m) @ t=0.82
-0.5477186465458637
% es.tEY (V/m) @ t=0.82
0
% es.tEZ (V/m) @ t=0.82
-1.7489827136276999
% es.Ex (V/m) @ t=0.82
-0.5477186465458547
% es.Ey (V/m) @ t=0.82
0.04091228887321334
% es.Ez (V/m) @ t=0.82
-1.7489827136276777
% es.tEx (V/m) @ t=0.82
-0.5477186465458637
% es.tEy (V/m) @ t=0.82
0
% es.tEz (V/m) @ t=0.82
-1.7489827136276999
% V (V) @ t=0.82
0.00922852738950384
% es.normE (V/m) @ t=0.84
1.85373370849776
% es.EX (V/m) @ t=0.84
-0.5530059830922207
% es.EY (V/m) @ t=0.84
0.041306907650260585
% es.EZ (V/m) @ t=0.84
-1.765866953191391
% es.tEX (V/m) @ t=0.84
-0.5530059830922269
% es.tEY (V/m) @ t=0.84
0
% es.tEZ (V/m) @ t=0.84
-1.765866953191404
% es.Ex (V/m) @ t=0.84
-0.5530059830922207
% es.Ey (V/m) @ t=0.84
0.041306907650260585
% es.Ez (V/m) @ t=0.84
-1.765866953191391
% es.tEx (V/m) @ t=0.84
-0.5530059830922269
% es.tEy (V/m) @ t=0.84
0
% es.tEz (V/m) @ t=0.84
-1.765866953191404
% V (V) @ t=0.84
0.00931763883833852
% es.normE (V/m) @ t=0.86
1.8714579979787591
% es.EX (V/m) @ t=0.86
-0.5582933196385818
% es.EY (V/m) @ t=0.86
0.041701526427316685
% es.EZ (V/m) @ t=0.86
-1.782751192755104
% es.tEX (V/m) @ t=0.86
-0.5582933196385902
% es.tEY (V/m) @ t=0.86
0
% es.tEZ (V/m) @ t=0.86
-1.782751192755117
% es.Ex (V/m) @ t=0.86
-0.5582933196385818
% es.Ey (V/m) @ t=0.86
0.041701526427316685
% es.Ez (V/m) @ t=0.86
-1.782751192755104
% es.tEx (V/m) @ t=0.86
-0.5582933196385902
% es.tEy (V/m) @ t=0.86
0
% es.tEz (V/m) @ t=0.86
-1.782751192755117
% V (V) @ t=0.86
0.009406750287173202
% es.normE (V/m) @ t=0.88
1.8891822874598934
% es.EX (V/m) @ t=0.88
-0.5635806561849506
% es.EY (V/m) @ t=0.88
0.04209614520437077
% es.EZ (V/m) @ t=0.88
-1.7996354323188308
% es.tEX (V/m) @ t=0.88
-0.563580656184957
% es.tEY (V/m) @ t=0.88
0
% es.tEZ (V/m) @ t=0.88
-1.799635432318838
% es.Ex (V/m) @ t=0.88
-0.5635806561849506
% es.Ey (V/m) @ t=0.88
0.04209614520437077
% es.Ez (V/m) @ t=0.88
-1.7996354323188308
% es.tEx (V/m) @ t=0.88
-0.563580656184957
% es.tEy (V/m) @ t=0.88
0
% es.tEz (V/m) @ t=0.88
-1.799635432318838
% V (V) @ t=0.88
0.009495861736007883
% es.normE (V/m) @ t=0.9
1.9069065769411246
% es.EX (V/m) @ t=0.9
-0.5688679927313158
% es.EY (V/m) @ t=0.9
0.04249076398142336
% es.EZ (V/m) @ t=0.9
-1.8165196718825376
% es.tEX (V/m) @ t=0.9
-0.5688679927313203
% es.tEY (V/m) @ t=0.9
0
% es.tEZ (V/m) @ t=0.9
-1.8165196718825491
% es.Ex (V/m) @ t=0.9
-0.5688679927313158
% es.Ey (V/m) @ t=0.9
0.04249076398142336
% es.Ez (V/m) @ t=0.9
-1.8165196718825376
% es.tEx (V/m) @ t=0.9
-0.5688679927313203
% es.tEy (V/m) @ t=0.9
0
% es.tEz (V/m) @ t=0.9
-1.8165196718825491
% V (V) @ t=0.9
0.009584973184842565
% es.normE (V/m) @ t=0.92
1.924630866422492
% es.EX (V/m) @ t=0.92
-0.5741553292776891
% es.EY (V/m) @ t=0.92
0.04288538275847745
% es.EZ (V/m) @ t=0.92
-1.8334039114462644
% es.tEX (V/m) @ t=0.92
-0.5741553292776942
% es.tEY (V/m) @ t=0.92
0
% es.tEZ (V/m) @ t=0.92
-1.8334039114462763
% es.Ex (V/m) @ t=0.92
-0.5741553292776891
% es.Ey (V/m) @ t=0.92
0.04288538275847745
% es.Ez (V/m) @ t=0.92
-1.8334039114462644
% es.tEx (V/m) @ t=0.92
-0.5741553292776942
% es.tEy (V/m) @ t=0.92
0
% es.tEz (V/m) @ t=0.92
-1.8334039114462763
% V (V) @ t=0.92
0.009674084633677247
% es.normE (V/m) @ t=0.94
1.9423551559039551
% es.EX (V/m) @ t=0.94
-0.5794426658240543
% es.EY (V/m) @ t=0.94
0.04328000153552981
% es.EZ (V/m) @ t=0.94
-1.8502881510099778
% es.tEX (V/m) @ t=0.94
-0.5794426658240575
% es.tEY (V/m) @ t=0.94
0
% es.tEZ (V/m) @ t=0.94
-1.8502881510099911
% es.Ex (V/m) @ t=0.94
-0.5794426658240543
% es.Ey (V/m) @ t=0.94
0.04328000153552981
% es.Ez (V/m) @ t=0.94
-1.8502881510099778
% es.tEx (V/m) @ t=0.94
-0.5794426658240575
% es.tEy (V/m) @ t=0.94
0
% es.tEz (V/m) @ t=0.94
-1.8502881510099911
% V (V) @ t=0.94
0.009763196082511928
% es.normE (V/m) @ t=0.96
1.9600794453855204
% es.EX (V/m) @ t=0.96
-0.5847300023704249
% es.EY (V/m) @ t=0.96
0.04367462031259656
% es.EZ (V/m) @ t=0.96
-1.8671723905736837
% es.tEX (V/m) @ t=0.96
-0.5847300023704278
% es.tEY (V/m) @ t=0.96
0
% es.tEZ (V/m) @ t=0.96
-1.8671723905737032
% es.Ex (V/m) @ t=0.96
-0.5847300023704249
% es.Ey (V/m) @ t=0.96
0.04367462031259656
% es.Ez (V/m) @ t=0.96
-1.8671723905736837
% es.tEx (V/m) @ t=0.96
-0.5847300023704278
% es.tEy (V/m) @ t=0.96
0
% es.tEz (V/m) @ t=0.96
-1.8671723905737032
% V (V) @ t=0.96
0.00985230753134661
% es.normE (V/m) @ t=0.98
1.977803734867203
% es.EX (V/m) @ t=0.98
-0.5900173389167913
% es.EY (V/m) @ t=0.98
0.0440692390896453
% es.EZ (V/m) @ t=0.98
-1.8840566301374038
% es.tEX (V/m) @ t=0.98
-0.5900173389167946
% es.tEY (V/m) @ t=0.98
0
% es.tEZ (V/m) @ t=0.98
-1.8840566301374233
% es.Ex (V/m) @ t=0.98
-0.5900173389167913
% es.Ey (V/m) @ t=0.98
0.0440692390896453
% es.Ez (V/m) @ t=0.98
-1.8840566301374038
% es.tEx (V/m) @ t=0.98
-0.5900173389167946
% es.tEy (V/m) @ t=0.98
0
% es.tEz (V/m) @ t=0.98
-1.8840566301374233
% V (V) @ t=0.98
0.00994141898018129
% es.normE (V/m) @ t=1
1.9955280243489828
% es.EX (V/m) @ t=1
-0.5953046754631635
% es.EY (V/m) @ t=1
0.04446385786669968
% es.EZ (V/m) @ t=1
-1.9009408697011172
% es.tEX (V/m) @ t=1
-0.595304675463165
% es.tEY (V/m) @ t=1
0
% es.tEZ (V/m) @ t=1
-1.9009408697011434
% es.Ex (V/m) @ t=1
-0.5953046754631635
% es.Ey (V/m) @ t=1
0.04446385786669968
% es.Ez (V/m) @ t=1
-1.9009408697011172
% es.tEx (V/m) @ t=1
-0.595304675463165
% es.tEy (V/m) @ t=1
0
% es.tEz (V/m) @ t=1
-1.9009408697011434
% V (V) @ t=1
0.01003053042901597
% es.normE (V/m) @ t=1.02
2.013252313830872
% es.EX (V/m) @ t=1.02
-0.6005920120095218
% es.EY (V/m) @ t=1.02
0.044858476643757306
% es.EZ (V/m) @ t=1.02
-1.9178251092648444
% es.tEX (V/m) @ t=1.02
-0.6005920120095247
% es.tEY (V/m) @ t=1.02
0
% es.tEZ (V/m) @ t=1.02
-1.9178251092648546
% es.Ex (V/m) @ t=1.02
-0.6005920120095218
% es.Ey (V/m) @ t=1.02
0.044858476643757306
% es.Ez (V/m) @ t=1.02
-1.9178251092648444
% es.tEx (V/m) @ t=1.02
-0.6005920120095247
% es.tEy (V/m) @ t=1.02
0