% Model:              1 neuron.mph
% Version:            COMSOL 6.1.0.252
% Date:               Mar 18 2023, 12:31
% Dimension:          0
% Nodes:              14017
% Expressions:        14017
% Description:        Electric field norm, Electric field, X component, Electric field, Y component, Electric field, Z component, Tangential electric field, X component, Tangential electric field, Y component, Tangential electric field, Z component, Electric field, x component, Electric field, y component, Electric field, z component, Tangential electric field, x component, Tangential electric field, y component, Tangential electric field, z component, Electric potential
% Length unit:        mm
% x
1
% y
12.2
% z
1.6599999999999997
% es.normE (V/m) @ t=0
1.5997296068114844
% es.EX (V/m) @ t=0
1.432093295156613
% es.EY (V/m) @ t=0
0.05509994909483984
% es.EZ (V/m) @ t=0
-0.7107795510552453
% es.tEX (V/m) @ t=0
1.4320932951566103
% es.tEY (V/m) @ t=0
0
% es.tEZ (V/m) @ t=0
-0.7107795510552357
% es.Ex (V/m) @ t=0
1.432093295156613
% es.Ey (V/m) @ t=0
0.05509994909483984
% es.Ez (V/m) @ t=0
-0.7107795510552453
% es.tEx (V/m) @ t=0
1.4320932951566103
% es.tEy (V/m) @ t=0
0
% es.tEz (V/m) @ t=0
-0.7107795510552357
% V (V) @ t=0
0.00725796854156069
% es.normE (V/m) @ t=0.02
1.3817040053378524
% es.EX (V/m) @ t=0.02
1.236914687174434
% es.EY (V/m) @ t=0.02
0.04759043613088265
% es.EZ (V/m) @ t=0.02
-0.6139080874422693
% es.tEX (V/m) @ t=0.02
1.2369146871744308
% es.tEY (V/m) @ t=0.02
0
% es.tEZ (V/m) @ t=0.02
-0.6139080874422724
% es.Ex (V/m) @ t=0.02
1.236914687174434
% es.Ey (V/m) @ t=0.02
0.04759043613088265
% es.Ez (V/m) @ t=0.02
-0.6139080874422693
% es.tEx (V/m) @ t=0.02
1.2369146871744308
% es.tEy (V/m) @ t=0.02
0
% es.tEz (V/m) @ t=0.02
-0.6139080874422724
% V (V) @ t=0.02
0.00626878688850416
% es.normE (V/m) @ t=0.04
1.3944133679798234
% es.EX (V/m) @ t=0.04
1.2482922357732373
% es.EY (V/m) @ t=0.04
0.048028200082940814
% es.EZ (V/m) @ t=0.04
-0.6195550022788261
% es.tEX (V/m) @ t=0.04
1.2482922357732344
% es.tEY (V/m) @ t=0.04
0
% es.tEZ (V/m) @ t=0.04
-0.6195550022788225
% es.Ex (V/m) @ t=0.04
1.2482922357732373
% es.Ey (V/m) @ t=0.04
0.048028200082940814
% es.Ez (V/m) @ t=0.04
-0.6195550022788261
% es.tEx (V/m) @ t=0.04
1.2482922357732344
% es.tEy (V/m) @ t=0.04
0
% es.tEz (V/m) @ t=0.04
-0.6195550022788225
% V (V) @ t=0.04
0.006326448956229358
% es.normE (V/m) @ t=0.06
1.4072400936867968
% es.EX (V/m) @ t=0.06
1.259774843981512
% es.EY (V/m) @ t=0.06
0.04846999522384268
% es.EZ (V/m) @ t=0.06
-0.6252540737773077
% es.tEX (V/m) @ t=0.06
1.259774843981512
% es.tEY (V/m) @ t=0.06
0
% es.tEZ (V/m) @ t=0.06
-0.6252540737773025
% es.Ex (V/m) @ t=0.06
1.259774843981512
% es.Ey (V/m) @ t=0.06
0.04846999522384268
% es.Ez (V/m) @ t=0.06
-0.6252540737773077
% es.tEx (V/m) @ t=0.06
1.259774843981512
% es.tEy (V/m) @ t=0.06
0
% es.tEz (V/m) @ t=0.06
-0.6252540737773025
% V (V) @ t=0.06
0.006384643760276251
% es.normE (V/m) @ t=0.08
1.42025606664994
% es.EX (V/m) @ t=0.08
1.2714268730625626
% es.EY (V/m) @ t=0.08
0.04891831982256023
% es.EZ (V/m) @ t=0.08
-0.631037219393787
% es.tEX (V/m) @ t=0.08
1.2714268730625649
% es.tEY (V/m) @ t=0.08
0
% es.tEZ (V/m) @ t=0.08
-0.6310372193937859
% es.Ex (V/m) @ t=0.08
1.2714268730625626
% es.Ey (V/m) @ t=0.08
0.04891831982256023
% es.Ez (V/m) @ t=0.08
-0.631037219393787
% es.tEx (V/m) @ t=0.08
1.2714268730625649
% es.tEy (V/m) @ t=0.08
0
% es.tEz (V/m) @ t=0.08
-0.6310372193937859
% V (V) @ t=0.08
0.006443696918745127
% es.normE (V/m) @ t=0.1
1.4334169678674324
% es.EX (V/m) @ t=0.1
1.2832086470701078
% es.EY (V/m) @ t=0.1
0.04937164477341638
% es.EZ (V/m) @ t=0.1
-0.6368847501718004
% es.tEX (V/m) @ t=0.1
1.283208647070106
% es.tEY (V/m) @ t=0.1
0
% es.tEZ (V/m) @ t=0.1
-0.6368847501717951
% es.Ex (V/m) @ t=0.1
1.2832086470701078
% es.Ey (V/m) @ t=0.1
0.04937164477341638
% es.Ez (V/m) @ t=0.1
-0.6368847501718004
% es.tEx (V/m) @ t=0.1
1.283208647070106
% es.tEy (V/m) @ t=0.1
0
% es.tEz (V/m) @ t=0.1
-0.6368847501717951
% V (V) @ t=0.1
0.006503407417301801
% es.normE (V/m) @ t=0.12
1.446577869084919
% es.EX (V/m) @ t=0.12
1.2949904210776522
% es.EY (V/m) @ t=0.12
0.049824969724249435
% es.EZ (V/m) @ t=0.12
-0.6427322809498032
% es.tEX (V/m) @ t=0.12
1.2949904210776513
% es.tEY (V/m) @ t=0.12
0
% es.tEZ (V/m) @ t=0.12
-0.6427322809497902
% es.Ex (V/m) @ t=0.12
1.2949904210776522
% es.Ey (V/m) @ t=0.12
0.049824969724249435
% es.Ez (V/m) @ t=0.12
-0.6427322809498032
% es.tEx (V/m) @ t=0.12
1.2949904210776513
% es.tEy (V/m) @ t=0.12
0
% es.tEz (V/m) @ t=0.12
-0.6427322809497902
% V (V) @ t=0.12
0.006563117915858474
% es.normE (V/m) @ t=0.14
1.4598396999242458
% es.EX (V/m) @ t=0.14
1.3068625479348315
% es.EY (V/m) @ t=0.14
0.050281770281895316
% es.EZ (V/m) @ t=0.14
-0.6486246566959356
% es.tEX (V/m) @ t=0.14
1.3068625479348293
% es.tEY (V/m) @ t=0.14
0
% es.tEZ (V/m) @ t=0.14
-0.648624656695926
% es.Ex (V/m) @ t=0.14
1.3068625479348315
% es.Ey (V/m) @ t=0.14
0.050281770281895316
% es.Ez (V/m) @ t=0.14
-0.6486246566959356
% es.tEx (V/m) @ t=0.14
1.3068625479348293
% es.tEy (V/m) @ t=0.14
0
% es.tEz (V/m) @ t=0.14
-0.648624656695926
% V (V) @ t=0.14
0.006623286348832693
% es.normE (V/m) @ t=0.16
1.4737081235938907
% es.EX (V/m) @ t=0.16
1.319277700613255
% es.EY (V/m) @ t=0.16
0.05075945943632282
% es.EZ (V/m) @ t=0.16
-0.6547865532789476
% es.tEX (V/m) @ t=0.16
1.3192777006132532
% es.tEY (V/m) @ t=0.16
0
% es.tEZ (V/m) @ t=0.16
-0.654786553278953
% es.Ex (V/m) @ t=0.16
1.319277700613255
% es.Ey (V/m) @ t=0.16
0.05075945943632282
% es.Ez (V/m) @ t=0.16
-0.6547865532789476
% es.tEx (V/m) @ t=0.16
1.3192777006132532
% es.tEy (V/m) @ t=0.16
0
% es.tEz (V/m) @ t=0.16
-0.654786553278953
% V (V) @ t=0.16
0.006686206993985627
% es.normE (V/m) @ t=0.18
1.4875765472635396
% es.EX (V/m) @ t=0.18
1.3316928532916827
% es.EY (V/m) @ t=0.18
0.05123714859074319
% es.EZ (V/m) @ t=0.18
-0.6609484498619598
% es.tEX (V/m) @ t=0.18
1.3316928532916812
% es.tEY (V/m) @ t=0.18
0
% es.tEZ (V/m) @ t=0.18
-0.6609484498619622
% es.Ex (V/m) @ t=0.18
1.3316928532916827
% es.Ey (V/m) @ t=0.18
0.05123714859074319
% es.Ez (V/m) @ t=0.18
-0.6609484498619598
% es.tEx (V/m) @ t=0.18
1.3316928532916812
% es.tEy (V/m) @ t=0.18
0
% es.tEz (V/m) @ t=0.18
-0.6609484498619622
% V (V) @ t=0.18
0.006749127639138561
% es.normE (V/m) @ t=0.2
1.5014449709331918
% es.EX (V/m) @ t=0.2
1.3441080059701118
% es.EY (V/m) @ t=0.2
0.051714837745167136
% es.EZ (V/m) @ t=0.2
-0.6671103464449754
% es.tEX (V/m) @ t=0.2
1.3441080059701092
% es.tEY (V/m) @ t=0.2
0
% es.tEZ (V/m) @ t=0.2
-0.6671103464449786
% es.Ex (V/m) @ t=0.2
1.3441080059701118
% es.Ey (V/m) @ t=0.2
0.051714837745167136
% es.Ez (V/m) @ t=0.2
-0.6671103464449754
% es.tEx (V/m) @ t=0.2
1.3441080059701092
% es.tEy (V/m) @ t=0.2
0
% es.tEz (V/m) @ t=0.2
-0.6671103464449786
% V (V) @ t=0.2
0.006812048284291494
% es.normE (V/m) @ t=0.22
1.5153133946028445
% es.EX (V/m) @ t=0.22
1.356523158648543
% es.EY (V/m) @ t=0.22
0.05219252689958842
% es.EZ (V/m) @ t=0.22
-0.6732722430279874
% es.tEX (V/m) @ t=0.22
1.3565231586485407
% es.tEY (V/m) @ t=0.22
0
% es.tEZ (V/m) @ t=0.22
-0.6732722430279843
% es.Ex (V/m) @ t=0.22
1.356523158648543
% es.Ey (V/m) @ t=0.22
0.05219252689958842
% es.Ez (V/m) @ t=0.22
-0.6732722430279874
% es.tEx (V/m) @ t=0.22
1.3565231586485407
% es.tEy (V/m) @ t=0.22
0
% es.tEz (V/m) @ t=0.22
-0.6732722430279843
% V (V) @ t=0.22
0.00687496892944443
% es.normE (V/m) @ t=0.24
1.529181818272491
% es.EX (V/m) @ t=0.24
1.368938311326965
% es.EY (V/m) @ t=0.24
0.05267021605400882
% es.EZ (V/m) @ t=0.24
-0.6794341396110031
% es.tEX (V/m) @ t=0.24
1.368938311326961
% es.tEY (V/m) @ t=0.24
0
% es.tEZ (V/m) @ t=0.24
-0.6794341396109971
% es.Ex (V/m) @ t=0.24
1.368938311326965
% es.Ey (V/m) @ t=0.24
0.05267021605400882
% es.Ez (V/m) @ t=0.24
-0.6794341396110031
% es.tEx (V/m) @ t=0.24
1.368938311326961
% es.tEy (V/m) @ t=0.24
0
% es.tEz (V/m) @ t=0.24
-0.6794341396109971
% V (V) @ t=0.24
0.0069378895745973645
% es.normE (V/m) @ t=0.26
1.5430502419421384
% es.EX (V/m) @ t=0.26
1.3813534640053908
% es.EY (V/m) @ t=0.26
0.05314790520842563
% es.EZ (V/m) @ t=0.26
-0.6855960361940115
% es.tEX (V/m) @ t=0.26
1.3813534640053895
% es.tEY (V/m) @ t=0.26
0
% es.tEZ (V/m) @ t=0.26
-0.6855960361940028
% es.Ex (V/m) @ t=0.26
1.3813534640053908
% es.Ey (V/m) @ t=0.26
0.05314790520842563
% es.Ez (V/m) @ t=0.26
-0.6855960361940115
% es.tEx (V/m) @ t=0.26
1.3813534640053895
% es.tEy (V/m) @ t=0.26
0
% es.tEz (V/m) @ t=0.26
-0.6855960361940028
% V (V) @ t=0.26
0.007000810219750298
% es.normE (V/m) @ t=0.28
1.5573891694617465
% es.EX (V/m) @ t=0.28
1.3941898133156148
% es.EY (V/m) @ t=0.28
0.053641793528446724
% es.EZ (V/m) @ t=0.28
-0.6919669898387409
% es.tEX (V/m) @ t=0.28
1.3941898133156139
% es.tEY (V/m) @ t=0.28
0
% es.tEZ (V/m) @ t=0.28
-0.6919669898387362
% es.Ex (V/m) @ t=0.28
1.3941898133156148
% es.Ey (V/m) @ t=0.28
0.053641793528446724
% es.Ez (V/m) @ t=0.28
-0.6919669898387409
% es.tEx (V/m) @ t=0.28
1.3941898133156139
% es.tEy (V/m) @ t=0.28
0
% es.tEz (V/m) @ t=0.28
-0.6919669898387362
% V (V) @ t=0.28
0.007065865692867095
% es.normE (V/m) @ t=0.3
1.5728507143778396
% es.EX (V/m) @ t=0.3
1.4080311335017197
% es.EY (V/m) @ t=0.3
0.05417433289265047
% es.EZ (V/m) @ t=0.3
-0.6988367515046173
% es.tEX (V/m) @ t=0.3
1.4080311335017113
% es.tEY (V/m) @ t=0.3
0
% es.tEZ (V/m) @ t=0.3
-0.698836751504615
% es.Ex (V/m) @ t=0.3
1.4080311335017197
% es.Ey (V/m) @ t=0.3
0.05417433289265047
% es.Ez (V/m) @ t=0.3
-0.6988367515046173
% es.tEx (V/m) @ t=0.3
1.4080311335017113
% es.tEy (V/m) @ t=0.3
0
% es.tEz (V/m) @ t=0.3
-0.698836751504615
% V (V) @ t=0.3
0.007136014843774057
% es.normE (V/m) @ t=0.32
1.5883122592939356
% es.EX (V/m) @ t=0.32
1.4218724536878224
% es.EY (V/m) @ t=0.32
0.05470687225687601
% es.EZ (V/m) @ t=0.32
-0.7057065131705026
% es.tEX (V/m) @ t=0.32
1.4218724536878184
% es.tEY (V/m) @ t=0.32
0
% es.tEZ (V/m) @ t=0.32
-0.7057065131704903
% es.Ex (V/m) @ t=0.32
1.4218724536878224
% es.Ey (V/m) @ t=0.32
0.05470687225687601
% es.Ez (V/m) @ t=0.32
-0.7057065131705026
% es.tEx (V/m) @ t=0.32
1.4218724536878184
% es.tEy (V/m) @ t=0.32
0
% es.tEz (V/m) @ t=0.32
-0.7057065131704903
% V (V) @ t=0.32
0.007206163994681019
% es.normE (V/m) @ t=0.34
1.6037738042100131
% es.EX (V/m) @ t=0.34
1.4357137738739147
% es.EY (V/m) @ t=0.34
0.05523941162107443
% es.EZ (V/m) @ t=0.34
-0.7125762748363683
% es.tEX (V/m) @ t=0.34
1.4357137738739123
% es.tEY (V/m) @ t=0.34
0
% es.tEZ (V/m) @ t=0.34
-0.712576274836362
% es.Ex (V/m) @ t=0.34
1.4357137738739147
% es.Ey (V/m) @ t=0.34
0.05523941162107443
% es.Ez (V/m) @ t=0.34
-0.7125762748363683
% es.tEx (V/m) @ t=0.34
1.4357137738739123
% es.tEy (V/m) @ t=0.34
0
% es.tEz (V/m) @ t=0.34
-0.712576274836362
% V (V) @ t=0.34
0.007276313145587982
% es.normE (V/m) @ t=0.36
1.619235349126106
% es.EX (V/m) @ t=0.36
1.4495550940600137
% es.EY (V/m) @ t=0.36
0.05577195098530305
% es.EZ (V/m) @ t=0.36
-0.7194460365022535
% es.tEX (V/m) @ t=0.36
1.4495550940600133
% es.tEY (V/m) @ t=0.36
0
% es.tEZ (V/m) @ t=0.36
-0.7194460365022515
% es.Ex (V/m) @ t=0.36
1.4495550940600137
% es.Ey (V/m) @ t=0.36
0.05577195098530305
% es.Ez (V/m) @ t=0.36
-0.7194460365022535
% es.tEx (V/m) @ t=0.36
1.4495550940600133
% es.tEy (V/m) @ t=0.36
0
% es.tEz (V/m) @ t=0.36
-0.7194460365022515
% V (V) @ t=0.36
0.007346462296494944
% es.normE (V/m) @ t=0.38
1.6346968940421975
% es.EX (V/m) @ t=0.38
1.4633964142461187
% es.EY (V/m) @ t=0.38
0.056304490349512154
% es.EZ (V/m) @ t=0.38
-0.7263157981681245
% es.tEX (V/m) @ t=0.38
1.4633964142461169
% es.tEY (V/m) @ t=0.38
0
% es.tEZ (V/m) @ t=0.38
-0.7263157981681196
% es.Ex (V/m) @ t=0.38
1.4633964142461187
% es.Ey (V/m) @ t=0.38
0.056304490349512154
% es.Ez (V/m) @ t=0.38
-0.7263157981681245
% es.tEx (V/m) @ t=0.38
1.4633964142461169
% es.tEy (V/m) @ t=0.38
0
% es.tEz (V/m) @ t=0.38
-0.7263157981681196
% V (V) @ t=0.38
0.007416611447401907
% es.normE (V/m) @ t=0.4
1.6501584389582844
% es.EX (V/m) @ t=0.4
1.477237734432216
% es.EY (V/m) @ t=0.4
0.056837029713721676
% es.EZ (V/m) @ t=0.4
-0.7331855598339991
% es.tEX (V/m) @ t=0.4
1.4772377344322134
% es.tEY (V/m) @ t=0.4
0
% es.tEZ (V/m) @ t=0.4
-0.7331855598339949
% es.Ex (V/m) @ t=0.4
1.477237734432216
% es.Ey (V/m) @ t=0.4
0.056837029713721676
% es.Ez (V/m) @ t=0.4
-0.7331855598339991
% es.tEx (V/m) @ t=0.4
1.4772377344322134
% es.tEy (V/m) @ t=0.4
0
% es.tEz (V/m) @ t=0.4
-0.7331855598339949
% V (V) @ t=0.4
0.007486760598308868
% es.normE (V/m) @ t=0.42
1.665619983874367
% es.EX (V/m) @ t=0.42
1.4910790546183095
% es.EY (V/m) @ t=0.42
0.05736956907793431
% es.EZ (V/m) @ t=0.42
-0.740055321499872
% es.tEX (V/m) @ t=0.42
1.4910790546183064
% es.tEY (V/m) @ t=0.42
0
% es.tEZ (V/m) @ t=0.42
-0.7400553214998666
% es.Ex (V/m) @ t=0.42
1.4910790546183095
% es.Ey (V/m) @ t=0.42
0.05736956907793431
% es.Ez (V/m) @ t=0.42
-0.740055321499872
% es.tEx (V/m) @ t=0.42
1.4910790546183064
% es.tEy (V/m) @ t=0.42
0
% es.tEz (V/m) @ t=0.42
-0.7400553214998666
% V (V) @ t=0.42
0.007556909749215831
% es.normE (V/m) @ t=0.44
1.681081528790458
% es.EX (V/m) @ t=0.44
1.5049203748044127
% es.EY (V/m) @ t=0.44
0.057902108442138084
% es.EZ (V/m) @ t=0.44
-0.7469250831657448
% es.tEX (V/m) @ t=0.44
1.5049203748044038
% es.tEY (V/m) @ t=0.44
0
% es.tEZ (V/m) @ t=0.44
-0.7469250831657455
% es.Ex (V/m) @ t=0.44
1.5049203748044127
% es.Ey (V/m) @ t=0.44
0.057902108442138084
% es.Ez (V/m) @ t=0.44
-0.7469250831657448
% es.tEx (V/m) @ t=0.44
1.5049203748044038
% es.tEy (V/m) @ t=0.44
0
% es.tEz (V/m) @ t=0.44
-0.7469250831657455
% V (V) @ t=0.44
0.007627058900122793
% es.normE (V/m) @ t=0.46
1.696543073706553
% es.EX (V/m) @ t=0.46
1.5187616949905118
% es.EY (V/m) @ t=0.46
0.05843464780635427
% es.EZ (V/m) @ t=0.46
-0.7537948448316336
% es.tEX (V/m) @ t=0.46
1.518761694990511
% es.tEY (V/m) @ t=0.46
0
% es.tEZ (V/m) @ t=0.46
-0.7537948448316278
% es.Ex (V/m) @ t=0.46
1.5187616949905118
% es.Ey (V/m) @ t=0.46
0.05843464780635427
% es.Ez (V/m) @ t=0.46
-0.7537948448316336
% es.tEx (V/m) @ t=0.46
1.518761694990511
% es.tEy (V/m) @ t=0.46
0
% es.tEz (V/m) @ t=0.46
-0.7537948448316278
% V (V) @ t=0.46
0.0076972080510297565
% es.normE (V/m) @ t=0.48
1.712004618622644
% es.EX (V/m) @ t=0.48
1.5326030151766108
% es.EY (V/m) @ t=0.48
0.05896718717056737
% es.EZ (V/m) @ t=0.48
-0.7606646064975136
% es.tEX (V/m) @ t=0.48
1.5326030151766075
% es.tEY (V/m) @ t=0.48
0
% es.tEZ (V/m) @ t=0.48
-0.7606646064975102
% es.Ex (V/m) @ t=0.48
1.5326030151766108
% es.Ey (V/m) @ t=0.48
0.05896718717056737
% es.Ez (V/m) @ t=0.48
-0.7606646064975136
% es.tEx (V/m) @ t=0.48
1.5326030151766075
% es.tEy (V/m) @ t=0.48
0
% es.tEz (V/m) @ t=0.48
-0.7606646064975102
% V (V) @ t=0.48
0.007767357201936719
% es.normE (V/m) @ t=0.5
1.7274661635387345
% es.EX (V/m) @ t=0.5
1.5464443353627102
% es.EY (V/m) @ t=0.5
0.059499726534783554
% es.EZ (V/m) @ t=0.5
-0.7675343681633899
% es.tEX (V/m) @ t=0.5
1.5464443353627049
% es.tEY (V/m) @ t=0.5
0
% es.tEZ (V/m) @ t=0.5
-0.7675343681633855
% es.Ex (V/m) @ t=0.5
1.5464443353627102
% es.Ey (V/m) @ t=0.5
0.059499726534783554
% es.Ez (V/m) @ t=0.5
-0.7675343681633899
% es.tEx (V/m) @ t=0.5
1.5464443353627049
% es.tEy (V/m) @ t=0.5
0
% es.tEz (V/m) @ t=0.5
-0.7675343681633855
% V (V) @ t=0.5
0.00783750635284368
% es.normE (V/m) @ t=0.52
1.7429277084548098
% es.EX (V/m) @ t=0.52
1.560285655548801
% es.EY (V/m) @ t=0.52
0.060032265898986
% es.EZ (V/m) @ t=0.52
-0.7744041298292521
% es.tEX (V/m) @ t=0.52
1.5602856555488058
% es.tEY (V/m) @ t=0.52
0
% es.tEZ (V/m) @ t=0.52
-0.7744041298292501
% es.Ex (V/m) @ t=0.52
1.560285655548801
% es.Ey (V/m) @ t=0.52
0.060032265898986
% es.Ez (V/m) @ t=0.52
-0.7744041298292521
% es.tEx (V/m) @ t=0.52
1.5602856555488058
% es.tEy (V/m) @ t=0.52
0
% es.tEz (V/m) @ t=0.52
-0.7744041298292501
% V (V) @ t=0.52
0.007907655503750643
% es.normE (V/m) @ t=0.54
1.7583892533709093
% es.EX (V/m) @ t=0.54
1.5741269757349088
% es.EY (V/m) @ t=0.54
0.060564805263198185
% es.EZ (V/m) @ t=0.54
-0.781273891495132
% es.tEX (V/m) @ t=0.54
1.574126975734906
% es.tEY (V/m) @ t=0.54
0
% es.tEZ (V/m) @ t=0.54
-0.7812738914951289
% es.Ex (V/m) @ t=0.54
1.5741269757349088
% es.Ey (V/m) @ t=0.54
0.060564805263198185
% es.Ez (V/m) @ t=0.54
-0.781273891495132
% es.tEx (V/m) @ t=0.54
1.574126975734906
% es.tEy (V/m) @ t=0.54
0
% es.tEz (V/m) @ t=0.54
-0.7812738914951289
% V (V) @ t=0.54
0.007977804654657607
% es.normE (V/m) @ t=0.56
1.774942913151148
% es.EX (V/m) @ t=0.56
1.5889451204057388
% es.EY (V/m) @ t=0.56
0.06113304200680872
% es.EZ (V/m) @ t=0.56
-0.7886307494569625
% es.tEX (V/m) @ t=0.56
1.5889451204057456
% es.tEY (V/m) @ t=0.56
0
% es.tEZ (V/m) @ t=0.56
-0.78863074945696
% es.Ex (V/m) @ t=0.56
1.5889451204057388
% es.Ey (V/m) @ t=0.56
0.06113304200680872
% es.Ez (V/m) @ t=0.56
-0.7886307494569625
% es.tEx (V/m) @ t=0.56
1.5889451204057456
% es.tEy (V/m) @ t=0.56
0
% es.tEz (V/m) @ t=0.56
-0.78863074945696
% V (V) @ t=0.56
0.008052953402259774
% es.normE (V/m) @ t=0.58
1.792222530012391
% es.EX (V/m) @ t=0.58
1.6044125856389444
% es.EY (V/m) @ t=0.58
0.061725007724062864
% es.EZ (V/m) @ t=0.58
-0.7963113929562745
% es.tEX (V/m) @ t=0.58
1.6044125856389417
% es.tEY (V/m) @ t=0.58
0
% es.tEZ (V/m) @ t=0.58
-0.7963113929562695
% es.Ex (V/m) @ t=0.58
1.6044125856389444
% es.Ey (V/m) @ t=0.58
0.061725007724062864
% es.Ez (V/m) @ t=0.58
-0.7963113929562745
% es.tEx (V/m) @ t=0.58
1.6044125856389417
% es.tEy (V/m) @ t=0.58
0
% es.tEz (V/m) @ t=0.58
-0.7963113929562695
% V (V) @ t=0.58
0.008131425511416048
% es.normE (V/m) @ t=0.6
1.8095021468908645
% es.EX (V/m) @ t=0.6
1.6198800508721396
% es.EY (V/m) @ t=0.6
0.06231697344129836
% es.EZ (V/m) @ t=0.6
-0.8039920364555811
% es.tEX (V/m) @ t=0.6
1.6198800508721378
% es.tEY (V/m) @ t=0.6
0
% es.tEZ (V/m) @ t=0.6
-0.8039920364555755
% es.Ex (V/m) @ t=0.6
1.6198800508721396
% es.Ey (V/m) @ t=0.6
0.06231697344129836
% es.Ez (V/m) @ t=0.6
-0.8039920364555811
% es.tEx (V/m) @ t=0.6
1.6198800508721378
% es.tEy (V/m) @ t=0.6
0
% es.tEz (V/m) @ t=0.6
-0.8039920364555755
% V (V) @ t=0.6
0.008209897620572318
% es.normE (V/m) @ t=0.62
1.826781763786069
% es.EX (V/m) @ t=0.62
1.6353475161053204
% es.EY (V/m) @ t=0.62
0.06290893915857254
% es.EZ (V/m) @ t=0.62
-0.811672679954863
% es.tEX (V/m) @ t=0.62
1.6353475161053197
% es.tEY (V/m) @ t=0.62
0
% es.tEZ (V/m) @ t=0.62
-0.811672679954853
% es.Ex (V/m) @ t=0.62
1.6353475161053204
% es.Ey (V/m) @ t=0.62
0.06290893915857254
% es.Ez (V/m) @ t=0.62
-0.811672679954863
% es.tEx (V/m) @ t=0.62
1.6353475161053197
% es.tEy (V/m) @ t=0.62
0
% es.tEz (V/m) @ t=0.62
-0.811672679954853
% V (V) @ t=0.62
0.00828836972972859
% es.normE (V/m) @ t=0.64
1.8440613806975845
% es.EX (V/m) @ t=0.64
1.650814981338519
% es.EY (V/m) @ t=0.64
0.06350090487582358
% es.EZ (V/m) @ t=0.64
-0.8193533234541732
% es.tEX (V/m) @ t=0.64
1.65081498133853
% es.tEY (V/m) @ t=0.64
0
% es.tEZ (V/m) @ t=0.64
-0.8193533234541697
% es.Ex (V/m) @ t=0.64
1.650814981338519
% es.Ey (V/m) @ t=0.64
0.06350090487582358
% es.Ez (V/m) @ t=0.64
-0.8193533234541732
% es.tEx (V/m) @ t=0.64
1.65081498133853
% es.tEy (V/m) @ t=0.64
0
% es.tEz (V/m) @ t=0.64
-0.8193533234541697
% V (V) @ t=0.64
0.008366841838884862
% es.normE (V/m) @ t=0.66
1.8613409976249395
% es.EX (V/m) @ t=0.66
1.666282446571728
% es.EY (V/m) @ t=0.66
0.06409287059308305
% es.EZ (V/m) @ t=0.66
-0.8270339669534852
% es.tEX (V/m) @ t=0.66
1.666282446571726
% es.tEY (V/m) @ t=0.66
0
% es.tEZ (V/m) @ t=0.66
-0.8270339669534827
% es.Ex (V/m) @ t=0.66
1.666282446571728
% es.Ey (V/m) @ t=0.66
0.06409287059308305
% es.Ez (V/m) @ t=0.66
-0.8270339669534852
% es.tEx (V/m) @ t=0.66
1.666282446571726
% es.tEy (V/m) @ t=0.66
0
% es.tEz (V/m) @ t=0.66
-0.8270339669534827
% V (V) @ t=0.66
0.008445313948041135
% es.normE (V/m) @ t=0.68
1.878620614567653
% es.EX (V/m) @ t=0.68
1.6817499118049088
% es.EY (V/m) @ t=0.68
0.06468483631033453
% es.EZ (V/m) @ t=0.68
-0.8347146104527776
% es.tEX (V/m) @ t=0.68
1.681749911804915
% es.tEY (V/m) @ t=0.68
0
% es.tEZ (V/m) @ t=0.68
-0.8347146104527745
% es.Ex (V/m) @ t=0.68
1.6817499118049088
% es.Ey (V/m) @ t=0.68
0.06468483631033453
% es.Ez (V/m) @ t=0.68
-0.8347146104527776
% es.tEx (V/m) @ t=0.68
1.681749911804915
% es.tEy (V/m) @ t=0.68
0
% es.tEz (V/m) @ t=0.68
-0.8347146104527745
% V (V) @ t=0.68
0.008523786057197407
% es.normE (V/m) @ t=0.7
1.8959002315253604
% es.EX (V/m) @ t=0.7
1.6972173770381076
% es.EY (V/m) @ t=0.7
0.0652768020275874
% es.EZ (V/m) @ t=0.7
-0.8423952539520843
% es.tEX (V/m) @ t=0.7
1.697217377038104
% es.tEY (V/m) @ t=0.7
0
% es.tEZ (V/m) @ t=0.7
-0.8423952539520698
% es.Ex (V/m) @ t=0.7
1.6972173770381076
% es.Ey (V/m) @ t=0.7
0.0652768020275874
% es.Ez (V/m) @ t=0.7
-0.8423952539520843
% es.tEx (V/m) @ t=0.7
1.697217377038104
% es.tEy (V/m) @ t=0.7
0
% es.tEz (V/m) @ t=0.7
-0.8423952539520698
% V (V) @ t=0.7
0.008602258166353679
% es.normE (V/m) @ t=0.72
1.9131798484976148
% es.EX (V/m) @ t=0.72
1.7126848422712921
% es.EY (V/m) @ t=0.72
0.06586876774483882
% es.EZ (V/m) @ t=0.72
-0.8500758974513767
% es.tEX (V/m) @ t=0.72
1.712684842271301
% es.tEY (V/m) @ t=0.72
0
% es.tEZ (V/m) @ t=0.72
-0.8500758974513687
% es.Ex (V/m) @ t=0.72
1.7126848422712921
% es.Ey (V/m) @ t=0.72
0.06586876774483882
% es.Ez (V/m) @ t=0.72
-0.8500758974513767
% es.tEx (V/m) @ t=0.72
1.712684842271301
% es.tEy (V/m) @ t=0.72
0
% es.tEz (V/m) @ t=0.72
-0.8500758974513687
% V (V) @ t=0.72
0.00868073027550995
% es.normE (V/m) @ t=0.74
1.930459465484068
% es.EX (V/m) @ t=0.74
1.728152307504498
% es.EY (V/m) @ t=0.74
0.0664607334620948
% es.EZ (V/m) @ t=0.74
-0.8577565409506798
% es.tEX (V/m) @ t=0.74
1.728152307504497
% es.tEY (V/m) @ t=0.74
0
% es.tEZ (V/m) @ t=0.74
-0.8577565409506747
% es.Ex (V/m) @ t=0.74
1.728152307504498
% es.Ey (V/m) @ t=0.74
0.0664607334620948
% es.Ez (V/m) @ t=0.74
-0.8577565409506798
% es.tEx (V/m) @ t=0.74
1.728152307504497
% es.tEy (V/m) @ t=0.74
0
% es.tEz (V/m) @ t=0.74
-0.8577565409506747
% V (V) @ t=0.74
0.008759202384666221
% es.normE (V/m) @ t=0.76
1.9477390824843175
% es.EX (V/m) @ t=0.76
1.743619772737697
% es.EY (V/m) @ t=0.76
0.0670526991793596
% es.EZ (V/m) @ t=0.76
-0.8654371844499935
% es.tEX (V/m) @ t=0.76
1.7436197727377003
% es.tEY (V/m) @ t=0.76
0
% es.tEZ (V/m) @ t=0.76
-0.8654371844499806
% es.Ex (V/m) @ t=0.76
1.743619772737697
% es.Ey (V/m) @ t=0.76
0.0670526991793596
% es.Ez (V/m) @ t=0.76
-0.8654371844499935
% es.tEx (V/m) @ t=0.76
1.7436197727377003
% es.tEy (V/m) @ t=0.76
0
% es.tEz (V/m) @ t=0.76
-0.8654371844499806
% V (V) @ t=0.76
0.008837674493822494
% es.normE (V/m) @ t=0.78
1.9650186994979861
% es.EX (V/m) @ t=0.78
1.759087237970892
% es.EY (V/m) @ t=0.78
0.06764466489659687
% es.EZ (V/m) @ t=0.78
-0.8731178279492842
% es.tEX (V/m) @ t=0.78
1.7590872379708893
% es.tEY (V/m) @ t=0.78
0
% es.tEZ (V/m) @ t=0.78
-0.8731178279492795
% es.Ex (V/m) @ t=0.78
1.759087237970892
% es.Ey (V/m) @ t=0.78
0.06764466489659687
% es.Ez (V/m) @ t=0.78
-0.8731178279492842
% es.tEx (V/m) @ t=0.78
1.7590872379708893
% es.tEy (V/m) @ t=0.78
0
% es.tEz (V/m) @ t=0.78
-0.8731178279492795
% V (V) @ t=0.78
0.008916146602978766
% es.normE (V/m) @ t=0.8
1.9822983165247368
% es.EX (V/m) @ t=0.8
1.77455470320408
% es.EY (V/m) @ t=0.8
0.06823663061385016
% es.EZ (V/m) @ t=0.8
-0.8807984714485873
% es.tEX (V/m) @ t=0.8
1.7745547032040854
% es.tEY (V/m) @ t=0.8
0
% es.tEZ (V/m) @ t=0.8
-0.8807984714485784
% es.Ex (V/m) @ t=0.8
1.77455470320408
% es.Ey (V/m) @ t=0.8
0.06823663061385016
% es.Ez (V/m) @ t=0.8
-0.8807984714485873
% es.tEx (V/m) @ t=0.8
1.7745547032040854
% es.tEy (V/m) @ t=0.8
0
% es.tEz (V/m) @ t=0.8
-0.8807984714485784
% V (V) @ t=0.8
0.008994618712135036
% es.normE (V/m) @ t=0.82
1.9995779335642534
% es.EX (V/m) @ t=0.82
1.7900221684372857
% es.EY (V/m) @ t=0.82
0.06882859633112565
% es.EZ (V/m) @ t=0.82
-0.8884791149479045
% es.tEX (V/m) @ t=0.82
1.7900221684372815
% es.tEY (V/m) @ t=0.82
0
% es.tEZ (V/m) @ t=0.82
-0.8884791149478843
% es.Ex (V/m) @ t=0.82
1.7900221684372857
% es.Ey (V/m) @ t=0.82
0.06882859633112565
% es.Ez (V/m) @ t=0.82
-0.8884791149479045
% es.tEx (V/m) @ t=0.82
1.7900221684372815
% es.tEy (V/m) @ t=0.82
0
% es.tEz (V/m) @ t=0.82
-0.8884791149478843
% V (V) @ t=0.82
0.00907309082129131
% es.normE (V/m) @ t=0.84
2.0187026456009374
% es.EX (V/m) @ t=0.84
1.8071435112280776
% es.EY (V/m) @ t=0.84
0.06948893781504831
% es.EZ (V/m) @ t=0.84
-0.8969748891250005
% es.tEX (V/m) @ t=0.84
1.8071435112280732
% es.tEY (V/m) @ t=0.84
0
% es.tEZ (V/m) @ t=0.84
-0.8969748891249978
% es.Ex (V/m) @ t=0.84
1.8071435112280776
% es.Ey (V/m) @ t=0.84
0.06948893781504831
% es.Ez (V/m) @ t=0.84
-0.8969748891250005
% es.tEx (V/m) @ t=0.84
1.8071435112280732
% es.tEy (V/m) @ t=0.84
0
% es.tEz (V/m) @ t=0.84
-0.8969748891249978
% V (V) @ t=0.84
0.009159821780344886
% es.normE (V/m) @ t=0.86
2.0380186467160395
% es.EX (V/m) @ t=0.86
1.8244363187402097
% es.EY (V/m) @ t=0.86
0.07015636811380571
% es.EZ (V/m) @ t=0.86
-0.9055551714652748
% es.tEX (V/m) @ t=0.86
1.8244363187402115
% es.tEY (V/m) @ t=0.86
0
% es.tEZ (V/m) @ t=0.86
-0.9055551714652736
% es.Ex (V/m) @ t=0.86
1.8244363187402097
% es.Ey (V/m) @ t=0.86
0.07015636811380571
% es.Ez (V/m) @ t=0.86
-0.9055551714652748
% es.tEx (V/m) @ t=0.86
1.8244363187402115
% es.tEy (V/m) @ t=0.86
0
% es.tEz (V/m) @ t=0.86
-0.9055551714652736
% V (V) @ t=0.86
0.009247408970495951
% es.normE (V/m) @ t=0.88
2.0573346478406807
% es.EX (V/m) @ t=0.88
1.841729126252342
% es.EY (V/m) @ t=0.88
0.07082379841258801
% es.EZ (V/m) @ t=0.88
-0.9141354538055544
% es.tEX (V/m) @ t=0.88
1.8417291262523428
% es.tEY (V/m) @ t=0.88
0
% es.tEZ (V/m) @ t=0.88
-0.9141354538055424
% es.Ex (V/m) @ t=0.88
1.841729126252342
% es.Ey (V/m) @ t=0.88
0.07082379841258801
% es.Ez (V/m) @ t=0.88
-0.9141354538055544
% es.tEx (V/m) @ t=0.88
1.8417291262523428
% es.tEy (V/m) @ t=0.88
0
% es.tEz (V/m) @ t=0.88
-0.9141354538055424
% V (V) @ t=0.88
0.009334996160647018
% es.normE (V/m) @ t=0.9
2.076650648974603
% es.EX (V/m) @ t=0.9
1.859021933764488
% es.EY (V/m) @ t=0.9
0.07149122871134542
% es.EZ (V/m) @ t=0.9
-0.9227157361458358
% es.tEX (V/m) @ t=0.9
1.8590219337644802
% es.tEY (V/m) @ t=0.9
0
% es.tEZ (V/m) @ t=0.9
-0.9227157361458325
% es.Ex (V/m) @ t=0.9
1.859021933764488
% es.Ey (V/m) @ t=0.9
0.07149122871134542
% es.Ez (V/m) @ t=0.9
-0.9227157361458358
% es.tEx (V/m) @ t=0.9
1.8590219337644802
% es.tEy (V/m) @ t=0.9
0
% es.tEz (V/m) @ t=0.9
-0.9227157361458325
% V (V) @ t=0.9
0.009422583350798083
% es.normE (V/m) @ t=0.92
2.0959666501175356
% es.EX (V/m) @ t=0.92
1.8763147412766283
% es.EY (V/m) @ t=0.92
0.07215865901011884
% es.EZ (V/m) @ t=0.92
-0.9312960184861243
% es.tEX (V/m) @ t=0.92
1.8763147412766337
% es.tEY (V/m) @ t=0.92
0
% es.tEZ (V/m) @ t=0.92
-0.9312960184861225
% es.Ex (V/m) @ t=0.92
1.8763147412766283
% es.Ey (V/m) @ t=0.92
0.07215865901011884
% es.Ez (V/m) @ t=0.92
-0.9312960184861243
% es.tEx (V/m) @ t=0.92
1.8763147412766337
% es.tEy (V/m) @ t=0.92
0
% es.tEz (V/m) @ t=0.92
-0.9312960184861225
% V (V) @ t=0.92
0.009510170540949148
% es.normE (V/m) @ t=0.94
2.1152826512692195
% es.EX (V/m) @ t=0.94
1.89360754878876
% es.EY (V/m) @ t=0.94
0.07282608930889756
% es.EZ (V/m) @ t=0.94
-0.9398763008263951
% es.tEX (V/m) @ t=0.94
1.893607548788757
% es.tEY (V/m) @ t=0.94
0
% es.tEZ (V/m) @ t=0.94
-0.9398763008264055
% es.Ex (V/m) @ t=0.94
1.89360754878876
% es.Ey (V/m) @ t=0.94
0.07282608930889756
% es.Ez (V/m) @ t=0.94
-0.9398763008263951
% es.tEx (V/m) @ t=0.94
1.893607548788757
% es.tEy (V/m) @ t=0.94
0
% es.tEz (V/m) @ t=0.94
-0.9398763008264055
% V (V) @ t=0.94
0.009597757731100215
% es.normE (V/m) @ t=0.96
2.134598652429446
% es.EX (V/m) @ t=0.96
1.9109003563009028
% es.EY (V/m) @ t=0.96
0.07349351960765141
% es.EZ (V/m) @ t=0.96
-0.94845658316668
% es.tEX (V/m) @ t=0.96
1.9109003563008953
% es.tEY (V/m) @ t=0.96
0
% es.tEZ (V/m) @ t=0.96
-0.9484565831666814
% es.Ex (V/m) @ t=0.96
1.9109003563009028
% es.Ey (V/m) @ t=0.96
0.07349351960765141
% es.Ez (V/m) @ t=0.96
-0.94845658316668
% es.tEx (V/m) @ t=0.96
1.9109003563008953
% es.tEy (V/m) @ t=0.96
0
% es.tEz (V/m) @ t=0.96
-0.9484565831666814
% V (V) @ t=0.96
0.00968534492125128
% es.normE (V/m) @ t=0.98
2.153914653597978
% es.EX (V/m) @ t=0.98
1.928193163813042
% es.EY (V/m) @ t=0.98
0.0741609499064497
% es.EZ (V/m) @ t=0.98
-0.9570368655069827
% es.tEX (V/m) @ t=0.98
1.9281931638130416
% es.tEY (V/m) @ t=0.98
0
% es.tEZ (V/m) @ t=0.98
-0.9570368655069714
% es.Ex (V/m) @ t=0.98
1.928193163813042
% es.Ey (V/m) @ t=0.98
0.0741609499064497
% es.Ez (V/m) @ t=0.98
-0.9570368655069827
% es.tEx (V/m) @ t=0.98
1.9281931638130416
% es.tEy (V/m) @ t=0.98
0
% es.tEz (V/m) @ t=0.98
-0.9570368655069714
% V (V) @ t=0.98
0.009772932111402345
% es.normE (V/m) @ t=1
2.1732306547745655
% es.EX (V/m) @ t=1
1.9454859713251738
% es.EY (V/m) @ t=1
0.0748283802052142
% es.EZ (V/m) @ t=1
-0.965617147847257
% es.tEX (V/m) @ t=1
1.945485971325179
% es.tEY (V/m) @ t=1
0
% es.tEZ (V/m) @ t=1
-0.9656171478472473
% es.Ex (V/m) @ t=1
1.9454859713251738
% es.Ey (V/m) @ t=1
0.0748283802052142
% es.Ez (V/m) @ t=1
-0.965617147847257
% es.tEx (V/m) @ t=1
1.945485971325179
% es.tEy (V/m) @ t=1
0
% es.tEz (V/m) @ t=1
-0.9656171478472473
% V (V) @ t=1
0.009860519301553412
% es.normE (V/m) @ t=1.02
2.1925466559590268
% es.EX (V/m) @ t=1.02
1.9627787788373203
% es.EY (V/m) @ t=1.02
0.07549581050398585
% es.EZ (V/m) @ t=1.02
-0.9741974301875242
% es.tEX (V/m) @ t=1.02
1.9627787788373032
% es.tEY (V/m) @ t=1.02
0
% es.tEZ (V/m) @ t=1.02
-0.9741974301875302
% es.Ex (V/m) @ t=1.02
1.9627787788373203
% es.Ey (V/m) @ t=1.02
0.07549581050398585
% es.Ez (V/m) @ t=1.02
-0.9741974301875242
% es.tEx (V/m) @ t=1.02
1.9627787788373032
% es.tEy (V/m) @ t=1.02
0
% es.tEz (V/m) @ t=1.02
-0.9741974301875302
% V (V) @ t=1.02
0.009948106491704477
% es.normE (V/m) @ t=1.04
2.211862657151138
% es.EX (V/m) @ t=1.04
1.9800715863494454
% es.EY (V/m) @ t=1.04
0.07616324080274947
% es.EZ (V/m) @ t=1.04
-0.9827777125278163
% es.tEX (V/m) @ t=1.04