% Model:              1 neuron.mph
% Version:            COMSOL 6.0.0.405
% Date:               Mar 16 2023, 17:39
% Dimension:          0
% Nodes:              14017
% Expressions:        14017
% Description:        Electric field norm, Electric field, X component, Electric field, Y component, Electric field, Z component, Tangential electric field, X component, Tangential electric field, Y component, Tangential electric field, Z component, Electric field, x component, Electric field, y component, Electric field, z component, Tangential electric field, x component, Tangential electric field, y component, Tangential electric field, z component, Electric potential
% Length unit:        mm
% x
1.66
% y
12.200000000000001
% z
1.66
% es.normE (V/m) @ t=0
20.676250653417807
% es.EX (V/m) @ t=0
-9.76451745989656
% es.EY (V/m) @ t=0
7.83416369887199
% es.EZ (V/m) @ t=0
9.391241206892722
% es.tEX (V/m) @ t=0
-9.764517459896553
% es.tEY (V/m) @ t=0
0
% es.tEZ (V/m) @ t=0
9.391241206892715
% es.Ex (V/m) @ t=0
-9.76451745989656
% es.Ey (V/m) @ t=0
7.83416369887199
% es.Ez (V/m) @ t=0
9.391241206892722
% es.tEx (V/m) @ t=0
-9.764517459896553
% es.tEy (V/m) @ t=0
0
% es.tEz (V/m) @ t=0
9.391241206892715
% V (V) @ t=0
0.006489151612256409
% es.normE (V/m) @ t=0.02
17.858500492042097
% es.EX (V/m) @ t=0.02
-8.433813511473765
% es.EY (V/m) @ t=0.02
6.7665274144382614
% es.EZ (V/m) @ t=0.02
8.111406907969926
% es.tEX (V/m) @ t=0.02
-8.433813511473772
% es.tEY (V/m) @ t=0.02
0
% es.tEZ (V/m) @ t=0.02
8.111406907969922
% es.Ex (V/m) @ t=0.02
-8.433813511473765
% es.Ey (V/m) @ t=0.02
6.7665274144382614
% es.Ez (V/m) @ t=0.02
8.111406907969926
% es.tEx (V/m) @ t=0.02
-8.433813511473772
% es.tEy (V/m) @ t=0.02
0
% es.tEz (V/m) @ t=0.02
8.111406907969922
% V (V) @ t=0.02
0.0056048129448035095
% es.normE (V/m) @ t=0.04
18.022779665336152
% es.EX (V/m) @ t=0.04
-8.511395760221333
% es.EY (V/m) @ t=0.04
6.828772296363589
% es.EZ (V/m) @ t=0.04
8.186022983560651
% es.tEX (V/m) @ t=0.04
-8.51139576022134
% es.tEY (V/m) @ t=0.04
0
% es.tEZ (V/m) @ t=0.04
8.186022983560633
% es.Ex (V/m) @ t=0.04
-8.511395760221333
% es.Ey (V/m) @ t=0.04
6.828772296363589
% es.Ez (V/m) @ t=0.04
8.186022983560651
% es.tEx (V/m) @ t=0.04
-8.51139576022134
% es.tEy (V/m) @ t=0.04
0
% es.tEz (V/m) @ t=0.04
8.186022983560633
% V (V) @ t=0.04
0.005656371254405153
% es.normE (V/m) @ t=0.06
18.188637461892675
% es.EX (V/m) @ t=0.06
-8.589723303429452
% es.EY (V/m) @ t=0.06
6.891615254200676
% es.EZ (V/m) @ t=0.06
8.261356403941736
% es.tEX (V/m) @ t=0.06
-8.589723303429441
% es.tEY (V/m) @ t=0.06
0
% es.tEZ (V/m) @ t=0.06
8.261356403941733
% es.Ex (V/m) @ t=0.06
-8.589723303429452
% es.Ey (V/m) @ t=0.06
6.891615254200676
% es.Ez (V/m) @ t=0.06
8.261356403941736
% es.tEx (V/m) @ t=0.06
-8.589723303429441
% es.tEy (V/m) @ t=0.06
0
% es.tEz (V/m) @ t=0.06
8.261356403941733
% V (V) @ t=0.06
0.005708425003073072
% es.normE (V/m) @ t=0.08
18.356800568062862
% es.EX (V/m) @ t=0.08
-8.669139520346562
% es.EY (V/m) @ t=0.08
6.955331679233986
% es.EZ (V/m) @ t=0.08
8.337736944654399
% es.tEX (V/m) @ t=0.08
-8.669139520346572
% es.tEY (V/m) @ t=0.08
0
% es.tEZ (V/m) @ t=0.08
8.337736944654381
% es.Ex (V/m) @ t=0.08
-8.669139520346562
% es.Ey (V/m) @ t=0.08
6.955331679233986
% es.Ez (V/m) @ t=0.08
8.337736944654399
% es.tEx (V/m) @ t=0.08
-8.669139520346572
% es.tEy (V/m) @ t=0.08
0
% es.tEz (V/m) @ t=0.08
8.337736944654381
% V (V) @ t=0.08
0.005761202262592403
% es.normE (V/m) @ t=0.1
18.527031838469547
% es.EX (V/m) @ t=0.1
-8.7495324199691
% es.EY (V/m) @ t=0.1
7.019831718583642
% es.EZ (V/m) @ t=0.1
8.415056889258096
% es.tEX (V/m) @ t=0.1
-8.749532419969082
% es.tEY (V/m) @ t=0.1
0
% es.tEZ (V/m) @ t=0.1
8.415056889258096
% es.Ex (V/m) @ t=0.1
-8.7495324199691
% es.Ey (V/m) @ t=0.1
7.019831718583642
% es.Ez (V/m) @ t=0.1
8.415056889258096
% es.tEx (V/m) @ t=0.1
-8.749532419969082
% es.tEy (V/m) @ t=0.1
0
% es.tEz (V/m) @ t=0.1
8.415056889258096
% V (V) @ t=0.1
0.0058146286059739165
% es.normE (V/m) @ t=0.12
18.697263108876236
% es.EX (V/m) @ t=0.12
-8.82992531959163
% es.EY (V/m) @ t=0.12
7.084331757933306
% es.EZ (V/m) @ t=0.12
8.49237683386178
% es.tEX (V/m) @ t=0.12
-8.829925319591627
% es.tEY (V/m) @ t=0.12
0
% es.tEZ (V/m) @ t=0.12
8.492376833861812
% es.Ex (V/m) @ t=0.12
-8.82992531959163
% es.Ey (V/m) @ t=0.12
7.084331757933306
% es.Ez (V/m) @ t=0.12
8.49237683386178
% es.tEx (V/m) @ t=0.12
-8.829925319591627
% es.tEy (V/m) @ t=0.12
0
% es.tEz (V/m) @ t=0.12
8.492376833861812
% V (V) @ t=0.12
0.00586805494935543
% es.normE (V/m) @ t=0.14
18.86809045620901
% es.EX (V/m) @ t=0.14
-8.910599737306256
% es.EY (V/m) @ t=0.14
7.149057653202046
% es.EZ (V/m) @ t=0.14
8.569967495291774
% es.tEX (V/m) @ t=0.14
-8.91059973730626
% es.tEY (V/m) @ t=0.14
0
% es.tEZ (V/m) @ t=0.14
8.569967495291763
% es.Ex (V/m) @ t=0.14
-8.910599737306256
% es.Ey (V/m) @ t=0.14
7.149057653202046
% es.Ez (V/m) @ t=0.14
8.569967495291774
% es.tEx (V/m) @ t=0.14
-8.91059973730626
% es.tEy (V/m) @ t=0.14
0
% es.tEz (V/m) @ t=0.14
8.569967495291763
% V (V) @ t=0.14
0.005921668369259469
% es.normE (V/m) @ t=0.16
19.047582133652632
% es.EX (V/m) @ t=0.16
-8.995366186729257
% es.EY (V/m) @ t=0.16
7.217066497625286
% es.EZ (V/m) @ t=0.16
8.651493185653088
% es.tEX (V/m) @ t=0.16
-8.995366186729242
% es.tEY (V/m) @ t=0.16
0
% es.tEZ (V/m) @ t=0.16
8.651493185653095
% es.Ex (V/m) @ t=0.16
-8.995366186729257
% es.Ey (V/m) @ t=0.16
7.217066497625286
% es.Ez (V/m) @ t=0.16
8.651493185653088
% es.tEx (V/m) @ t=0.16
-8.995366186729242
% es.tEy (V/m) @ t=0.16
0
% es.tEz (V/m) @ t=0.16
8.651493185653095
% V (V) @ t=0.16
0.005978001056889386
% es.normE (V/m) @ t=0.18
19.22707381109626
% es.EX (V/m) @ t=0.18
-9.080132636152236
% es.EY (V/m) @ t=0.18
7.2850753420485255
% es.EZ (V/m) @ t=0.18
8.73301887601442
% es.tEX (V/m) @ t=0.18
-9.080132636152246
% es.tEY (V/m) @ t=0.18
0
% es.tEZ (V/m) @ t=0.18
8.733018876014455
% es.Ex (V/m) @ t=0.18
-9.080132636152236
% es.Ey (V/m) @ t=0.18
7.2850753420485255
% es.Ez (V/m) @ t=0.18
8.73301887601442
% es.tEx (V/m) @ t=0.18
-9.080132636152246
% es.tEy (V/m) @ t=0.18
0
% es.tEz (V/m) @ t=0.18
8.733018876014455
% V (V) @ t=0.18
0.0060343337445193015
% es.normE (V/m) @ t=0.2
19.40656548853984
% es.EX (V/m) @ t=0.2
-9.1648990855752
% es.EY (V/m) @ t=0.2
7.3530841864717615
% es.EZ (V/m) @ t=0.2
8.814544566375705
% es.tEX (V/m) @ t=0.2
-9.164899085575207
% es.tEY (V/m) @ t=0.2
0
% es.tEZ (V/m) @ t=0.2
8.814544566375702
% es.Ex (V/m) @ t=0.2
-9.1648990855752
% es.Ey (V/m) @ t=0.2
7.3530841864717615
% es.Ez (V/m) @ t=0.2
8.814544566375705
% es.tEx (V/m) @ t=0.2
-9.164899085575207
% es.tEy (V/m) @ t=0.2
0
% es.tEz (V/m) @ t=0.2
8.814544566375702
% V (V) @ t=0.2
0.0060906664321492155
% es.normE (V/m) @ t=0.22
19.586057165983473
% es.EX (V/m) @ t=0.22
-9.2496655349982
% es.EY (V/m) @ t=0.22
7.421093030895001
% es.EZ (V/m) @ t=0.22
8.89607025673702
% es.tEX (V/m) @ t=0.22
-9.249665534998186
% es.tEY (V/m) @ t=0.22
0
% es.tEZ (V/m) @ t=0.22
8.896070256737005
% es.Ex (V/m) @ t=0.22
-9.2496655349982
% es.Ey (V/m) @ t=0.22
7.421093030895001
% es.Ez (V/m) @ t=0.22
8.89607025673702
% es.tEx (V/m) @ t=0.22
-9.249665534998186
% es.tEy (V/m) @ t=0.22
0
% es.tEz (V/m) @ t=0.22
8.896070256737005
% V (V) @ t=0.22
0.006146999119779133
% es.normE (V/m) @ t=0.24
19.76554884342711
% es.EX (V/m) @ t=0.24
-9.334431984421222
% es.EY (V/m) @ t=0.24
7.489101875318234
% es.EZ (V/m) @ t=0.24
8.977595947098365
% es.tEX (V/m) @ t=0.24
-9.334431984421222
% es.tEY (V/m) @ t=0.24
0
% es.tEZ (V/m) @ t=0.24
8.977595947098365
% es.Ex (V/m) @ t=0.24
-9.334431984421222
% es.Ey (V/m) @ t=0.24
7.489101875318234
% es.Ez (V/m) @ t=0.24
8.977595947098365
% es.tEx (V/m) @ t=0.24
-9.334431984421222
% es.tEy (V/m) @ t=0.24
0
% es.tEz (V/m) @ t=0.24
8.977595947098365
% V (V) @ t=0.24
0.006203331807409049
% es.normE (V/m) @ t=0.26
19.945040520870783
% es.EX (V/m) @ t=0.26
-9.419198433844208
% es.EY (V/m) @ t=0.26
7.557110719741441
% es.EZ (V/m) @ t=0.26
9.059121637459715
% es.tEX (V/m) @ t=0.26
-9.419198433844201
% es.tEY (V/m) @ t=0.26
0
% es.tEZ (V/m) @ t=0.26
9.059121637459725
% es.Ex (V/m) @ t=0.26
-9.419198433844208
% es.Ey (V/m) @ t=0.26
7.557110719741441
% es.Ez (V/m) @ t=0.26
9.059121637459715
% es.tEx (V/m) @ t=0.26
-9.419198433844201
% es.tEy (V/m) @ t=0.26
0
% es.tEz (V/m) @ t=0.26
9.059121637459725
% V (V) @ t=0.26
0.0062596644950389645
% es.normE (V/m) @ t=0.28
20.127461220944433
% es.EX (V/m) @ t=0.28
-9.505345452427363
% es.EY (V/m) @ t=0.28
7.626228646639401
% es.EZ (V/m) @ t=0.28
9.141981651977407
% es.tEX (V/m) @ t=0.28
-9.505345452427377
% es.tEY (V/m) @ t=0.28
0
% es.tEZ (V/m) @ t=0.28
9.141981651977375
% es.Ex (V/m) @ t=0.28
-9.505345452427363
% es.Ey (V/m) @ t=0.28
7.626228646639401
% es.Ez (V/m) @ t=0.28
9.141981651977407
% es.tEx (V/m) @ t=0.28
-9.505345452427377
% es.tEy (V/m) @ t=0.28
0
% es.tEz (V/m) @ t=0.28
9.141981651977375
% V (V) @ t=0.28
0.0063169163826478775
% es.normE (V/m) @ t=0.3
20.328042996403404
% es.EX (V/m) @ t=0.3
-9.60005253479666
% es.EY (V/m) @ t=0.3
7.702223314667862
% es.EZ (V/m) @ t=0.3
9.233114993336866
% es.tEX (V/m) @ t=0.3
-9.600052534796653
% es.tEY (V/m) @ t=0.3
0
% es.tEZ (V/m) @ t=0.3
9.233114993336812
% es.Ex (V/m) @ t=0.3
-9.60005253479666
% es.Ey (V/m) @ t=0.3
7.702223314667862
% es.Ez (V/m) @ t=0.3
9.233114993336866
% es.tEx (V/m) @ t=0.3
-9.600052534796653
% es.tEy (V/m) @ t=0.3
0
% es.tEz (V/m) @ t=0.3
9.233114993336812
% V (V) @ t=0.3
0.006379867666331456
% es.normE (V/m) @ t=0.32
20.528624771923063
% es.EX (V/m) @ t=0.32
-9.6947596171659
% es.EY (V/m) @ t=0.32
7.7782179826963045
% es.EZ (V/m) @ t=0.32
9.324248334696257
% es.tEX (V/m) @ t=0.32
-9.694759617165893
% es.tEY (V/m) @ t=0.32
0
% es.tEZ (V/m) @ t=0.32
9.32424833469625
% es.Ex (V/m) @ t=0.32
-9.6947596171659
% es.Ey (V/m) @ t=0.32
7.7782179826963045
% es.Ez (V/m) @ t=0.32
9.324248334696257
% es.tEx (V/m) @ t=0.32
-9.694759617165893
% es.tEy (V/m) @ t=0.32
0
% es.tEz (V/m) @ t=0.32
9.32424833469625
% V (V) @ t=0.32
0.006442818950015035
% es.normE (V/m) @ t=0.34
20.72920654750182
% es.EX (V/m) @ t=0.34
-9.78946669953519
% es.EY (V/m) @ t=0.34
7.854212650724751
% es.EZ (V/m) @ t=0.34
9.415381676055716
% es.tEX (V/m) @ t=0.34
-9.78946669953519
% es.tEY (V/m) @ t=0.34
0
% es.tEZ (V/m) @ t=0.34
9.415381676055745
% es.Ex (V/m) @ t=0.34
-9.78946669953519
% es.Ey (V/m) @ t=0.34
7.854212650724751
% es.Ez (V/m) @ t=0.34
9.415381676055716
% es.tEx (V/m) @ t=0.34
-9.78946669953519
% es.tEy (V/m) @ t=0.34
0
% es.tEz (V/m) @ t=0.34
9.415381676055745
% V (V) @ t=0.34
0.006505770233698614
% es.normE (V/m) @ t=0.36
20.929788323137902
% es.EX (V/m) @ t=0.36
-9.884173781904451
% es.EY (V/m) @ t=0.36
7.930207318753254
% es.EZ (V/m) @ t=0.36
9.506515017415165
% es.tEX (V/m) @ t=0.36
-9.884173781904448
% es.tEY (V/m) @ t=0.36
0
% es.tEZ (V/m) @ t=0.36
9.506515017415154
% es.Ex (V/m) @ t=0.36
-9.884173781904451
% es.Ey (V/m) @ t=0.36
7.930207318753254
% es.Ez (V/m) @ t=0.36
9.506515017415165
% es.tEx (V/m) @ t=0.36
-9.884173781904448
% es.tEy (V/m) @ t=0.36
0
% es.tEz (V/m) @ t=0.36
9.506515017415154
% V (V) @ t=0.36
0.006568721517382193
% es.normE (V/m) @ t=0.38
21.13037009882955
% es.EX (V/m) @ t=0.38
-9.978880864273712
% es.EY (V/m) @ t=0.38
8.006201986781658
% es.EZ (V/m) @ t=0.38
9.597648358774595
% es.tEX (V/m) @ t=0.38
-9.978880864273698
% es.tEY (V/m) @ t=0.38
0
% es.tEZ (V/m) @ t=0.38
9.597648358774592
% es.Ex (V/m) @ t=0.38
-9.978880864273712
% es.Ey (V/m) @ t=0.38
8.006201986781658
% es.Ez (V/m) @ t=0.38
9.597648358774595
% es.tEx (V/m) @ t=0.38
-9.978880864273698
% es.tEy (V/m) @ t=0.38
0
% es.tEz (V/m) @ t=0.38
9.597648358774592
% V (V) @ t=0.38
0.006631672801065773
% es.normE (V/m) @ t=0.4
21.33095187457543
% es.EX (V/m) @ t=0.4
-10.073587946643016
% es.EY (V/m) @ t=0.4
8.082196654810119
% es.EZ (V/m) @ t=0.4
9.688781700134054
% es.tEX (V/m) @ t=0.4
-10.073587946643013
% es.tEY (V/m) @ t=0.4
0
% es.tEZ (V/m) @ t=0.4
9.68878170013403
% es.Ex (V/m) @ t=0.4
-10.073587946643016
% es.Ey (V/m) @ t=0.4
8.082196654810119
% es.Ez (V/m) @ t=0.4
9.688781700134054
% es.tEx (V/m) @ t=0.4
-10.073587946643013
% es.tEy (V/m) @ t=0.4
0
% es.tEz (V/m) @ t=0.4
9.68878170013403
% V (V) @ t=0.4
0.006694624084749351
% es.normE (V/m) @ t=0.42
21.53153365037381
% es.EX (V/m) @ t=0.42
-10.168295029012278
% es.EY (V/m) @ t=0.42
8.158191322838551
% es.EZ (V/m) @ t=0.42
9.779915041493474
% es.tEX (V/m) @ t=0.42
-10.16829502901227
% es.tEY (V/m) @ t=0.42
0
% es.tEZ (V/m) @ t=0.42
9.779915041493467
% es.Ex (V/m) @ t=0.42
-10.168295029012278
% es.Ey (V/m) @ t=0.42
8.158191322838551
% es.Ez (V/m) @ t=0.42
9.779915041493474
% es.tEx (V/m) @ t=0.42
-10.16829502901227
% es.tEy (V/m) @ t=0.42
0
% es.tEz (V/m) @ t=0.42
9.779915041493467
% V (V) @ t=0.42
0.00675757536843293
% es.normE (V/m) @ t=0.44
21.73211542622338
% es.EX (V/m) @ t=0.44
-10.263002111381532
% es.EY (V/m) @ t=0.44
8.234185990867022
% es.EZ (V/m) @ t=0.44
9.87104838285289
% es.tEX (V/m) @ t=0.44
-10.263002111381521
% es.tEY (V/m) @ t=0.44
0
% es.tEZ (V/m) @ t=0.44
9.871048382852877
% es.Ex (V/m) @ t=0.44
-10.263002111381532
% es.Ey (V/m) @ t=0.44
8.234185990867022
% es.Ez (V/m) @ t=0.44
9.87104838285289
% es.tEx (V/m) @ t=0.44
-10.263002111381521
% es.tEy (V/m) @ t=0.44
0
% es.tEz (V/m) @ t=0.44
9.871048382852877
% V (V) @ t=0.44
0.00682052665211651
% es.normE (V/m) @ t=0.46
21.93269720212265
% es.EX (V/m) @ t=0.46
-10.357709193750821
% es.EY (V/m) @ t=0.46
8.310180658895426
% es.EZ (V/m) @ t=0.46
9.96218172421234
% es.tEX (V/m) @ t=0.46
-10.357709193750807
% es.tEY (V/m) @ t=0.46
0
% es.tEZ (V/m) @ t=0.46
9.962181724212343
% es.Ex (V/m) @ t=0.46
-10.357709193750821
% es.Ey (V/m) @ t=0.46
8.310180658895426
% es.Ez (V/m) @ t=0.46
9.96218172421234
% es.tEx (V/m) @ t=0.46
-10.357709193750807
% es.tEy (V/m) @ t=0.46
0
% es.tEz (V/m) @ t=0.46
9.962181724212343
% V (V) @ t=0.46
0.006883477935800089
% es.normE (V/m) @ t=0.48
22.1332789780703
% es.EX (V/m) @ t=0.48
-10.452416276120061
% es.EY (V/m) @ t=0.48
8.386175326923901
% es.EZ (V/m) @ t=0.48
10.053315065571745
% es.tEX (V/m) @ t=0.48
-10.45241627612008
% es.tEY (V/m) @ t=0.48
0
% es.tEZ (V/m) @ t=0.48
10.053315065571752
% es.Ex (V/m) @ t=0.48
-10.452416276120061
% es.Ey (V/m) @ t=0.48
8.386175326923901
% es.Ez (V/m) @ t=0.48
10.053315065571745
% es.tEx (V/m) @ t=0.48
-10.45241627612008
% es.tEy (V/m) @ t=0.48
0
% es.tEz (V/m) @ t=0.48
10.053315065571752
% V (V) @ t=0.48
0.006946429219483668
% es.normE (V/m) @ t=0.5
22.333860754065135
% es.EX (V/m) @ t=0.5
-10.547123358489323
% es.EY (V/m) @ t=0.5
8.462169994952362
% es.EZ (V/m) @ t=0.5
10.144448406931222
% es.tEX (V/m) @ t=0.5
-10.547123358489351
% es.tEY (V/m) @ t=0.5
0
% es.tEZ (V/m) @ t=0.5
10.144448406931247
% es.Ex (V/m) @ t=0.5
-10.547123358489323
% es.Ey (V/m) @ t=0.5
8.462169994952362
% es.Ez (V/m) @ t=0.5
10.144448406931222
% es.tEx (V/m) @ t=0.5
-10.547123358489351
% es.tEy (V/m) @ t=0.5
0
% es.tEz (V/m) @ t=0.5
10.144448406931247
% V (V) @ t=0.5
0.007009380503167247
% es.normE (V/m) @ t=0.52
22.534442530105732
% es.EX (V/m) @ t=0.52
-10.641830440858662
% es.EY (V/m) @ t=0.52
8.53816466298079
% es.EZ (V/m) @ t=0.52
10.235581748290677
% es.tEX (V/m) @ t=0.52
-10.641830440858651
% es.tEY (V/m) @ t=0.52
0
% es.tEZ (V/m) @ t=0.52
10.235581748290628
% es.Ex (V/m) @ t=0.52
-10.641830440858662
% es.Ey (V/m) @ t=0.52
8.53816466298079
% es.Ez (V/m) @ t=0.52
10.235581748290677
% es.tEx (V/m) @ t=0.52
-10.641830440858651
% es.tEy (V/m) @ t=0.52
0
% es.tEz (V/m) @ t=0.52
10.235581748290628
% V (V) @ t=0.52
0.007072331786850826
% es.normE (V/m) @ t=0.54
22.73502430619092
% es.EX (V/m) @ t=0.54
-10.736537523227916
% es.EY (V/m) @ t=0.54
8.614159331009251
% es.EZ (V/m) @ t=0.54
10.326715089650115
% es.tEX (V/m) @ t=0.54
-10.736537523227902
% es.tEY (V/m) @ t=0.54
0
% es.tEZ (V/m) @ t=0.54
10.326715089650122
% es.Ex (V/m) @ t=0.54
-10.736537523227916
% es.Ey (V/m) @ t=0.54
8.614159331009251
% es.Ez (V/m) @ t=0.54
10.326715089650115
% es.tEx (V/m) @ t=0.54
-10.736537523227902
% es.tEy (V/m) @ t=0.54
0
% es.tEz (V/m) @ t=0.54
10.326715089650122
% V (V) @ t=0.54
0.007135283070534406
% es.normE (V/m) @ t=0.56
22.942284959130845
% es.EX (V/m) @ t=0.56
-10.834413448655646
% es.EY (V/m) @ t=0.56
8.692688515254282
% es.EZ (V/m) @ t=0.56
10.420860387120879
% es.tEX (V/m) @ t=0.56
-10.834413448655646
% es.tEY (V/m) @ t=0.56
0
% es.tEZ (V/m) @ t=0.56
10.420860387120882
% es.Ex (V/m) @ t=0.56
-10.834413448655646
% es.Ey (V/m) @ t=0.56
8.692688515254282
% es.Ez (V/m) @ t=0.56
10.420860387120879
% es.tEx (V/m) @ t=0.56
-10.834413448655646
% es.tEy (V/m) @ t=0.56
0
% es.tEz (V/m) @ t=0.56
10.420860387120882
% V (V) @ t=0.56
0.007200330825272924
% es.normE (V/m) @ t=0.58
23.16606472382064
% es.EX (V/m) @ t=0.58
-10.940126990148912
% es.EY (V/m) @ t=0.58
8.777486411660533
% es.EZ (V/m) @ t=0.58
10.52245526640155
% es.tEX (V/m) @ t=0.58
-10.940126990148904
% es.tEY (V/m) @ t=0.58
0
% es.tEZ (V/m) @ t=0.58
10.522455266401579
% es.Ex (V/m) @ t=0.58
-10.940126990148912
% es.Ey (V/m) @ t=0.58
8.777486411660533
% es.Ez (V/m) @ t=0.58
10.52245526640155
% es.tEx (V/m) @ t=0.58
-10.940126990148904
% es.tEy (V/m) @ t=0.58
0
% es.tEz (V/m) @ t=0.58
10.522455266401579
% V (V) @ t=0.58
0.007270563858965927
% es.normE (V/m) @ t=0.6
23.389844488681526
% es.EX (V/m) @ t=0.6
-11.045840531642185
% es.EY (V/m) @ t=0.6
8.86228430806674
% es.EZ (V/m) @ t=0.6
10.624050145682222
% es.tEX (V/m) @ t=0.6
-11.04584053164217
% es.tEY (V/m) @ t=0.6
0
% es.tEZ (V/m) @ t=0.6
10.624050145682219
% es.Ex (V/m) @ t=0.6
-11.045840531642185
% es.Ey (V/m) @ t=0.6
8.86228430806674
% es.Ez (V/m) @ t=0.6
10.624050145682222
% es.tEx (V/m) @ t=0.6
-11.04584053164217
% es.tEy (V/m) @ t=0.6
0
% es.tEz (V/m) @ t=0.6
10.624050145682219
% V (V) @ t=0.6
0.0073407968926589295
% es.normE (V/m) @ t=0.62
23.613624253708572
% es.EX (V/m) @ t=0.62
-11.151554073135472
% es.EY (V/m) @ t=0.62
8.947082204472949
% es.EZ (V/m) @ t=0.62
10.725645024962919
% es.tEX (V/m) @ t=0.62
-11.151554073135493
% es.tEY (V/m) @ t=0.62
0
% es.tEZ (V/m) @ t=0.62
10.725645024962944
% es.Ex (V/m) @ t=0.62
-11.151554073135472
% es.Ey (V/m) @ t=0.62
8.947082204472949
% es.Ez (V/m) @ t=0.62
10.725645024962919
% es.tEx (V/m) @ t=0.62
-11.151554073135493
% es.tEy (V/m) @ t=0.62
0
% es.tEz (V/m) @ t=0.62
10.725645024962944
% V (V) @ t=0.62
0.007411029926351932
% es.normE (V/m) @ t=0.64
23.837404018897146
% es.EX (V/m) @ t=0.64
-11.257267614628773
% es.EY (V/m) @ t=0.64
9.0318801008792
% es.EZ (V/m) @ t=0.64
10.82723990424362
% es.tEX (V/m) @ t=0.64
-11.257267614628752
% es.tEY (V/m) @ t=0.64
0
% es.tEZ (V/m) @ t=0.64
10.827239904243612
% es.Ex (V/m) @ t=0.64
-11.257267614628773
% es.Ey (V/m) @ t=0.64
9.0318801008792
% es.Ez (V/m) @ t=0.64
10.82723990424362
% es.tEx (V/m) @ t=0.64
-11.257267614628752
% es.tEy (V/m) @ t=0.64
0
% es.tEz (V/m) @ t=0.64
10.827239904243612
% V (V) @ t=0.64
0.007481262960044935
% es.normE (V/m) @ t=0.66
24.06118378424267
% es.EX (V/m) @ t=0.66
-11.36298115612201
% es.EY (V/m) @ t=0.66
9.116677997285443
% es.EZ (V/m) @ t=0.66
10.928834783524323
% es.tEX (V/m) @ t=0.66
-11.362981156122018
% es.tEY (V/m) @ t=0.66
0
% es.tEZ (V/m) @ t=0.66
10.928834783524309
% es.Ex (V/m) @ t=0.66
-11.36298115612201
% es.Ey (V/m) @ t=0.66
9.116677997285443
% es.Ez (V/m) @ t=0.66
10.928834783524323
% es.tEx (V/m) @ t=0.66
-11.362981156122018
% es.tEy (V/m) @ t=0.66
0
% es.tEz (V/m) @ t=0.66
10.928834783524309
% V (V) @ t=0.66
0.0075514959937379375
% es.normE (V/m) @ t=0.68
24.28496354974085
% es.EX (V/m) @ t=0.68
-11.468694697615305
% es.EY (V/m) @ t=0.68
9.201475893691615
% es.EZ (V/m) @ t=0.68
11.03042966280496
% es.tEX (V/m) @ t=0.68
-11.468694697615305
% es.tEY (V/m) @ t=0.68
0
% es.tEZ (V/m) @ t=0.68
11.030429662804949
% es.Ex (V/m) @ t=0.68
-11.468694697615305
% es.Ey (V/m) @ t=0.68
9.201475893691615
% es.Ez (V/m) @ t=0.68
11.03042966280496
% es.tEx (V/m) @ t=0.68
-11.468694697615305
% es.tEy (V/m) @ t=0.68
0
% es.tEz (V/m) @ t=0.68
11.030429662804949
% V (V) @ t=0.68
0.007621729027430939
% es.normE (V/m) @ t=0.7
24.508743315387548
% es.EX (V/m) @ t=0.7
-11.574408239108578
% es.EY (V/m) @ t=0.7
9.286273790097884
% es.EZ (V/m) @ t=0.7
11.132024542085663
% es.tEX (V/m) @ t=0.7
-11.574408239108564
% es.tEY (V/m) @ t=0.7
0
% es.tEZ (V/m) @ t=0.7
11.132024542085645
% es.Ex (V/m) @ t=0.7
-11.574408239108578
% es.Ey (V/m) @ t=0.7
9.286273790097884
% es.Ez (V/m) @ t=0.7
11.132024542085663
% es.tEx (V/m) @ t=0.7
-11.574408239108564
% es.tEy (V/m) @ t=0.7
0
% es.tEz (V/m) @ t=0.7
11.132024542085645
% V (V) @ t=0.7
0.007691962061123943
% es.normE (V/m) @ t=0.72
24.732523081178613
% es.EX (V/m) @ t=0.72
-11.680121780601866
% es.EY (V/m) @ t=0.72
9.371071686504084
% es.EZ (V/m) @ t=0.72
11.233619421366306
% es.tEX (V/m) @ t=0.72
-11.680121780601866
% es.tEY (V/m) @ t=0.72
0
% es.tEZ (V/m) @ t=0.72
11.233619421366285
% es.Ex (V/m) @ t=0.72
-11.680121780601866
% es.Ey (V/m) @ t=0.72
9.371071686504084
% es.Ez (V/m) @ t=0.72
11.233619421366306
% es.tEx (V/m) @ t=0.72
-11.680121780601866
% es.tEy (V/m) @ t=0.72
0
% es.tEz (V/m) @ t=0.72
11.233619421366285
% V (V) @ t=0.72
0.007762195094816944
% es.normE (V/m) @ t=0.74
24.95630284711031
% es.EX (V/m) @ t=0.74
-11.785835322095124
% es.EY (V/m) @ t=0.74
9.4558695829103
% es.EZ (V/m) @ t=0.74
11.33521430064702
% es.tEX (V/m) @ t=0.74
-11.785835322095117
% es.tEY (V/m) @ t=0.74
0
% es.tEZ (V/m) @ t=0.74
11.33521430064701
% es.Ex (V/m) @ t=0.74
-11.785835322095124
% es.Ey (V/m) @ t=0.74
9.4558695829103
% es.Ez (V/m) @ t=0.74
11.33521430064702
% es.tEx (V/m) @ t=0.74
-11.785835322095117
% es.tEy (V/m) @ t=0.74
0
% es.tEz (V/m) @ t=0.74
11.33521430064701
% V (V) @ t=0.74
0.007832428128509946
% es.normE (V/m) @ t=0.76
25.180082613178794
% es.EX (V/m) @ t=0.76
-11.891548863588412
% es.EY (V/m) @ t=0.76
9.540667479316532
% es.EZ (V/m) @ t=0.76
11.436809179927703
% es.tEX (V/m) @ t=0.76
-11.891548863588405
% es.tEY (V/m) @ t=0.76
0
% es.tEZ (V/m) @ t=0.76
11.436809179927707
% es.Ex (V/m) @ t=0.76
-11.891548863588412
% es.Ey (V/m) @ t=0.76
9.540667479316532
% es.Ez (V/m) @ t=0.76
11.436809179927703
% es.tEx (V/m) @ t=0.76
-11.891548863588405
% es.tEy (V/m) @ t=0.76
0
% es.tEz (V/m) @ t=0.76
11.436809179927707
% V (V) @ t=0.76
0.007902661162202947
% es.normE (V/m) @ t=0.78
25.4038623793804
% es.EX (V/m) @ t=0.78
-11.997262405081656
% es.EY (V/m) @ t=0.78
9.625465375722744
% es.EZ (V/m) @ t=0.78
11.538404059208347
% es.tEX (V/m) @ t=0.78
-11.997262405081678
% es.tEY (V/m) @ t=0.78
0
% es.tEZ (V/m) @ t=0.78
11.538404059208375
% es.Ex (V/m) @ t=0.78
-11.997262405081656
% es.Ey (V/m) @ t=0.78
9.625465375722744
% es.Ez (V/m) @ t=0.78
11.538404059208347
% es.tEx (V/m) @ t=0.78
-11.997262405081678
% es.tEy (V/m) @ t=0.78
0
% es.tEz (V/m) @ t=0.78
11.538404059208375
% V (V) @ t=0.78
0.007972894195895952
% es.normE (V/m) @ t=0.8
25.627642145711867
% es.EX (V/m) @ t=0.8
-12.102975946574958
% es.EY (V/m) @ t=0.8
9.71026327212898
% es.EZ (V/m) @ t=0.8
11.639998938489075
% es.tEX (V/m) @ t=0.8
-12.102975946574944
% es.tEY (V/m) @ t=0.8
0
% es.tEZ (V/m) @ t=0.8
11.639998938489072
% es.Ex (V/m) @ t=0.8
-12.102975946574958
% es.Ey (V/m) @ t=0.8
9.71026327212898
% es.Ez (V/m) @ t=0.8
11.639998938489075
% es.tEx (V/m) @ t=0.8
-12.102975946574944
% es.tEy (V/m) @ t=0.8
0
% es.tEz (V/m) @ t=0.8
11.639998938489072
% V (V) @ t=0.8
0.008043127229588953
% es.normE (V/m) @ t=0.82
25.85142191216957
% es.EX (V/m) @ t=0.82
-12.20868948806826
% es.EY (V/m) @ t=0.82
9.795061168535167
% es.EZ (V/m) @ t=0.82
11.741593817769758
% es.tEX (V/m) @ t=0.82
-12.20868948806826
% es.tEY (V/m) @ t=0.82
0
% es.tEZ (V/m) @ t=0.82
11.74159381776974
% es.Ex (V/m) @ t=0.82
-12.20868948806826
% es.Ey (V/m) @ t=0.82
9.795061168535167
% es.Ez (V/m) @ t=0.82
11.741593817769758
% es.tEx (V/m) @ t=0.82
-12.20868948806826
% es.tEy (V/m) @ t=0.82
0
% es.tEz (V/m) @ t=0.82
11.74159381776974
% V (V) @ t=0.82
0.008113360263281955
% es.normE (V/m) @ t=0.84
26.08712270294137
% es.EX (V/m) @ t=0.84
-12.320021964091268
% es.EY (V/m) @ t=0.84
9.88437301077046
% es.EZ (V/m) @ t=0.84
11.848619257540268
% es.tEX (V/m) @ t=0.84
-12.320021964091278
% es.tEY (V/m) @ t=0.84
0
% es.tEZ (V/m) @ t=0.84
11.848619257540292
% es.Ex (V/m) @ t=0.84
-12.320021964091268
% es.Ey (V/m) @ t=0.84
9.88437301077046
% es.Ez (V/m) @ t=0.84
11.848619257540268
% es.tEx (V/m) @ t=0.84
-12.320021964091278
% es.tEy (V/m) @ t=0.84
0
% es.tEz (V/m) @ t=0.84
11.848619257540292
% V (V) @ t=0.84
0.008187334411652872
% es.normE (V/m) @ t=0.86
26.338185837037738
% es.EX (V/m) @ t=0.86
-12.438595428789014
% es.EY (V/m) @ t=0.86
9.979501868750155
% es.EZ (V/m) @ t=0.86
11.96264293279398
% es.tEX (V/m) @ t=0.86
-12.438595428789014
% es.tEY (V/m) @ t=0.86
0
% es.tEZ (V/m) @ t=0.86
11.962642932793983
% es.Ex (V/m) @ t=0.86
-12.438595428789014
% es.Ey (V/m) @ t=0.86
9.979501868750155
% es.Ez (V/m) @ t=0.86
11.96264293279398
% es.tEx (V/m) @ t=0.86
-12.438595428789014
% es.tEy (V/m) @ t=0.86
0
% es.tEz (V/m) @ t=0.86
11.962642932793983
% V (V) @ t=0.86
0.008266129646453972
% es.normE (V/m) @ t=0.88
26.58924897113761
% es.EX (V/m) @ t=0.88
-12.557168893486747
% es.EY (V/m) @ t=0.88
10.074630726729794
% es.EZ (V/m) @ t=0.88
12.076666608047692
% es.tEX (V/m) @ t=0.88
-12.557168893486725
% es.tEY (V/m) @ t=0.88
0
% es.tEZ (V/m) @ t=0.88
12.076666608047702
% es.Ex (V/m) @ t=0.88
-12.557168893486747
% es.Ey (V/m) @ t=0.88
10.074630726729794
% es.Ez (V/m) @ t=0.88
12.076666608047692
% es.tEx (V/m) @ t=0.88
-12.557168893486725
% es.tEy (V/m) @ t=0.88
0
% es.tEz (V/m) @ t=0.88
12.076666608047702
% V (V) @ t=0.88
0.008344924881255072
% es.normE (V/m) @ t=0.9
26.84031210524094
% es.EX (V/m) @ t=0.9
-12.675742358184529
% es.EY (V/m) @ t=0.9
10.169759584709446
% es.EZ (V/m) @ t=0.9
12.190690283301382
% es.tEX (V/m) @ t=0.9
-12.675742358184522
% es.tEY (V/m) @ t=0.9
0
% es.tEZ (V/m) @ t=0.9
12.190690283301393
% es.Ex (V/m) @ t=0.9
-12.675742358184529
% es.Ey (V/m) @ t=0.9
10.169759584709446
% es.Ez (V/m) @ t=0.9
12.190690283301382
% es.tEx (V/m) @ t=0.9
-12.675742358184522
% es.tEy (V/m) @ t=0.9
0
% es.tEz (V/m) @ t=0.9
12.190690283301393
% V (V) @ t=0.9
0.008423720116056172
% es.normE (V/m) @ t=0.92
27.09137523934762
% es.EX (V/m) @ t=0.92
-12.794315822882268
% es.EY (V/m) @ t=0.92
10.264888442689099
% es.EZ (V/m) @ t=0.92
12.304713958555137
% es.tEX (V/m) @ t=0.92
-12.794315822882282
% es.tEY (V/m) @ t=0.92
0
% es.tEZ (V/m) @ t=0.92
12.304713958555112
% es.Ex (V/m) @ t=0.92
-12.794315822882268
% es.Ey (V/m) @ t=0.92
10.264888442689099
% es.Ez (V/m) @ t=0.92
12.304713958555137
% es.tEx (V/m) @ t=0.92
-12.794315822882282
% es.tEy (V/m) @ t=0.92
0
% es.tEz (V/m) @ t=0.92
12.304713958555112
% V (V) @ t=0.92
0.008502515350857272
% es.normE (V/m) @ t=0.94
27.34243837345749
% es.EX (V/m) @ t=0.94
-12.912889287579986
% es.EY (V/m) @ t=0.94
10.360017300668758
% es.EZ (V/m) @ t=0.94
12.41873763380882
% es.tEX (V/m) @ t=0.94
-12.912889287579965
% es.tEY (V/m) @ t=0.94
0
% es.tEZ (V/m) @ t=0.94
12.418737633808831
% es.Ex (V/m) @ t=0.94
-12.912889287579986
% es.Ey (V/m) @ t=0.94
10.360017300668758
% es.Ez (V/m) @ t=0.94
12.41873763380882
% es.tEx (V/m) @ t=0.94
-12.912889287579965
% es.tEy (V/m) @ t=0.94
0
% es.tEz (V/m) @ t=0.94
12.418737633808831
% V (V) @ t=0.94
0.00858131058565837
% es.normE (V/m) @ t=0.96
27.593501507570586
% es.EX (V/m) @ t=0.96
-13.031462752277747
% es.EY (V/m) @ t=0.96
10.45514615864845
% es.EZ (V/m) @ t=0.96
12.532761309062568
% es.tEX (V/m) @ t=0.96
-13.03146275227774
% es.tEY (V/m) @ t=0.96
0
% es.tEZ (V/m) @ t=0.96
12.532761309062579
% es.Ex (V/m) @ t=0.96
-13.031462752277747
% es.Ey (V/m) @ t=0.96
10.45514615864845
% es.Ez (V/m) @ t=0.96
12.532761309062568
% es.tEx (V/m) @ t=0.96
-13.03146275227774
% es.tEy (V/m) @ t=0.96
0
% es.tEz (V/m) @ t=0.96
12.532761309062579
% V (V) @ t=0.96
0.00866010582045947
% es.normE (V/m) @ t=0.98
27.84456464168664
% es.EX (V/m) @ t=0.98
-13.150036216975472
% es.EY (V/m) @ t=0.98
10.550275016628106
% es.EZ (V/m) @ t=0.98
12.646784984316191
% es.tEX (V/m) @ t=0.98
-13.150036216975472
% es.tEY (V/m) @ t=0.98
0
% es.tEZ (V/m) @ t=0.98
12.646784984316213
% es.Ex (V/m) @ t=0.98
-13.150036216975472
% es.Ey (V/m) @ t=0.98
10.550275016628106
% es.Ez (V/m) @ t=0.98
12.646784984316191
% es.tEx (V/m) @ t=0.98
-13.150036216975472
% es.tEy (V/m) @ t=0.98
0
% es.tEz (V/m) @ t=0.98
12.646784984316213
% V (V) @ t=0.98
0.00873890105526057
% es.normE (V/m) @ t=1
28.095627775805816
% es.EX (V/m) @ t=1
-13.26860968167324
% es.EY (V/m) @ t=1
10.645403874607787
% es.EZ (V/m) @ t=1
12.760808659569928
% es.tEX (V/m) @ t=1
-13.268609681673226
% es.tEY (V/m) @ t=1
0
% es.tEZ (V/m) @ t=1
12.760808659569989
% es.Ex (V/m) @ t=1
-13.26860968167324
% es.Ey (V/m) @ t=1
10.645403874607787
% es.Ez (V/m) @ t=1
12.760808659569928
% es.tEx (V/m) @ t=1
-13.268609681673226
% es.tEy (V/m) @ t=1
0
% es.tEz (V/m) @ t=1
12.760808659569989
% V (V) @ t=1
0.008817696290061672
% es.normE (V/m) @ t=1.02
28.34669090992786
% es.EX (V/m) @ t=1.02
-13.387183146370987
% es.EY (V/m) @ t=1.02
10.740532732587479
% es.EZ (V/m) @ t=1.02
12.874832334823669
% es.tEX (V/m) @ t=1.02
-13.38718314637098
% es.tEY (V/m) @ t=1.02
0
% es.tEZ (V/m) @ t=1.02
12.874832334823651
% es.Ex (V/m) @ t=1.02
-13.387183146370987
% es.Ey (V/m) @ t=1.02
10.740532732587479
% es.Ez (V/m) @ t=1.02
12.874832334823669
% es.tEx (V/m) @ t=1.02
-13.38718314637098
% es.tEy (V/m) @ t=1.02
0
% es.tEz (V/m) @ t=1.02
12.874832334823651
% V (V) @ t=1.02
0.00889649152486277
% es.normE (V/m) @ t=1.04
28.597754044052735
% es.EX (V/m) @ t=1.04
-13.505756611068747
% es.EY (V/m) @ t=1.04
10.835661590567092
% es.EZ (V/m) @ t=1.04
12.988856010077377
% es.tEX (V/m) @ t=1.04
-13.505756611068726
% es.tEY (V/m) @ t=1.04
0
% es.tEZ (V/m) @ t=1.04
12.98885601007737
% es.Ex (V/m) @ t=1.04
-13.505756611068747
% es.Ey (V/m) @ t=1.04
10.835661590567092
% es.Ez (V/m) @ t=1.04
12.988856010077377
% es.tEx (V/m) @ t=1.04
-13.505756611068726
% es.tEy (V/m) @ t=1.04
0
% es.tEz (V/m) @ t=1.04
12.98885601007737
% V (V) @ t=1.04
0.008975286759663872