% Model:              1 neuron.mph
% Version:            COMSOL 6.1.0.252
% Date:               Mar 18 2023, 12:31
% Dimension:          0
% Nodes:              14017
% Expressions:        14017
% Description:        Electric field norm, Electric field, X component, Electric field, Y component, Electric field, Z component, Tangential electric field, X component, Tangential electric field, Y component, Tangential electric field, Z component, Electric field, x component, Electric field, y component, Electric field, z component, Tangential electric field, x component, Tangential electric field, y component, Tangential electric field, z component, Electric potential
% Length unit:        mm
% x
1.33
% y
12.2
% z
1
% es.normE (V/m) @ t=0
1.55406042109886
% es.EX (V/m) @ t=0
0.47967861740095996
% es.EY (V/m) @ t=0
0.11620949681534243
% es.EZ (V/m) @ t=0
1.4735929533761025
% es.tEX (V/m) @ t=0
0.47967861740095685
% es.tEY (V/m) @ t=0
0
% es.tEZ (V/m) @ t=0
1.4735929533761016
% es.Ex (V/m) @ t=0
0.47967861740095996
% es.Ey (V/m) @ t=0
0.11620949681534243
% es.Ez (V/m) @ t=0
1.4735929533761025
% es.tEx (V/m) @ t=0
0.47967861740095685
% es.tEy (V/m) @ t=0
0
% es.tEz (V/m) @ t=0
1.4735929533761016
% V (V) @ t=0
0.007268378174922329
% es.normE (V/m) @ t=0.02
1.342259026382545
% es.EX (V/m) @ t=0.02
0.41430368257974526
% es.EY (V/m) @ t=0.02
0.10037141932779331
% es.EZ (V/m) @ t=0.02
1.2727583916611585
% es.tEX (V/m) @ t=0.02
0.4143036825797459
% es.tEY (V/m) @ t=0.02
0
% es.tEZ (V/m) @ t=0.02
1.2727583916611707
% es.Ex (V/m) @ t=0.02
0.41430368257974526
% es.Ey (V/m) @ t=0.02
0.10037141932779331
% es.Ez (V/m) @ t=0.02
1.2727583916611585
% es.tEx (V/m) @ t=0.02
0.4143036825797459
% es.tEy (V/m) @ t=0.02
0
% es.tEz (V/m) @ t=0.02
1.2727583916611707
% V (V) @ t=0.02
0.006277777805379376
% es.normE (V/m) @ t=0.04
1.3546055566343493
% es.EX (V/m) @ t=0.04
0.4181145827838605
% es.EY (V/m) @ t=0.04
0.10129467330031688
% es.EZ (V/m) @ t=0.04
1.2844656317713936
% es.tEX (V/m) @ t=0.04
0.41811458278386127
% es.tEY (V/m) @ t=0.04
0
% es.tEZ (V/m) @ t=0.04
1.2844656317713952
% es.Ex (V/m) @ t=0.04
0.4181145827838605
% es.Ey (V/m) @ t=0.04
0.10129467330031688
% es.Ez (V/m) @ t=0.04
1.2844656317713936
% es.tEx (V/m) @ t=0.04
0.41811458278386127
% es.tEy (V/m) @ t=0.04
0
% es.tEz (V/m) @ t=0.04
1.2844656317713952
% V (V) @ t=0.04
0.006335522579146385
% es.normE (V/m) @ t=0.06
1.367066103881621
% es.EX (V/m) @ t=0.06
0.4219606740853118
% es.EY (V/m) @ t=0.06
0.10222644806319675
% es.EZ (V/m) @ t=0.06
1.296280986104092
% es.tEX (V/m) @ t=0.06
0.42196067408531235
% es.tEY (V/m) @ t=0.06
0
% es.tEZ (V/m) @ t=0.06
1.2962809861040903
% es.Ex (V/m) @ t=0.06
0.4219606740853118
% es.Ey (V/m) @ t=0.06
0.10222644806319675
% es.Ez (V/m) @ t=0.06
1.296280986104092
% es.tEx (V/m) @ t=0.06
0.42196067408531235
% es.tEy (V/m) @ t=0.06
0
% es.tEz (V/m) @ t=0.06
1.2962809861040903
% V (V) @ t=0.06
0.006393800848484173
% es.normE (V/m) @ t=0.08
1.3797104913425633
% es.EX (V/m) @ t=0.08
0.4258635113314003
% es.EY (V/m) @ t=0.08
0.10317197518716004
% es.EZ (V/m) @ t=0.08
1.3082706607225074
% es.tEX (V/m) @ t=0.08
0.42586351133140354
% es.tEY (V/m) @ t=0.08
0
% es.tEZ (V/m) @ t=0.08
1.3082706607225036
% es.Ex (V/m) @ t=0.08
0.4258635113314003
% es.Ey (V/m) @ t=0.08
0.10317197518716004
% es.Ez (V/m) @ t=0.08
1.3082706607225074
% es.tEx (V/m) @ t=0.08
0.42586351133140354
% es.tEy (V/m) @ t=0.08
0
% es.tEz (V/m) @ t=0.08
1.3082706607225036
% V (V) @ t=0.08
0.006452938708125921
% es.normE (V/m) @ t=0.1
1.3924956662673724
% es.EX (V/m) @ t=0.1
0.4298098054331544
% es.EY (V/m) @ t=0.1
0.10412803406585225
% es.EZ (V/m) @ t=0.1
1.320393832307861
% es.tEX (V/m) @ t=0.1
0.4298098054331554
% es.tEY (V/m) @ t=0.1
0
% es.tEZ (V/m) @ t=0.1
1.3203938323078637
% es.Ex (V/m) @ t=0.1
0.4298098054331544
% es.Ey (V/m) @ t=0.1
0.10412803406585225
% es.Ez (V/m) @ t=0.1
1.320393832307861
% es.tEx (V/m) @ t=0.1
0.4298098054331554
% es.tEy (V/m) @ t=0.1
0
% es.tEz (V/m) @ t=0.1
1.3203938323078637
% V (V) @ t=0.1
0.006512734854311554
% es.normE (V/m) @ t=0.12
1.405280841192201
% es.EX (V/m) @ t=0.12
0.43375609953492167
% es.EY (V/m) @ t=0.12
0.10508409294456689
% es.EZ (V/m) @ t=0.12
1.332517003893229
% es.tEX (V/m) @ t=0.12
0.43375609953492145
% es.tEY (V/m) @ t=0.12
0
% es.tEZ (V/m) @ t=0.12
1.3325170038932388
% es.Ex (V/m) @ t=0.12
0.43375609953492167
% es.Ey (V/m) @ t=0.12
0.10508409294456689
% es.Ez (V/m) @ t=0.12
1.332517003893229
% es.tEx (V/m) @ t=0.12
0.43375609953492145
% es.tEy (V/m) @ t=0.12
0
% es.tEz (V/m) @ t=0.12
1.3325170038932388
% V (V) @ t=0.12
0.006572531000497188
% es.normE (V/m) @ t=0.14
1.4181640646705396
% es.EX (V/m) @ t=0.14
0.43773265736261757
% es.EY (V/m) @ t=0.14
0.10604748334762881
% es.EZ (V/m) @ t=0.14
1.3447331472450408
% es.tEX (V/m) @ t=0.14
0.4377326573626199
% es.tEY (V/m) @ t=0.14
0
% es.tEZ (V/m) @ t=0.14
1.3447331472450426
% es.Ex (V/m) @ t=0.14
0.43773265736261757
% es.Ey (V/m) @ t=0.14
0.10604748334762881
% es.Ez (V/m) @ t=0.14
1.3447331472450408
% es.tEx (V/m) @ t=0.14
0.4377326573626199
% es.tEy (V/m) @ t=0.14
0
% es.tEz (V/m) @ t=0.14
1.3447331472450426
% V (V) @ t=0.14
0.006632785737575846
% es.normE (V/m) @ t=0.16
1.4316365655929173
% es.EX (V/m) @ t=0.16
0.4418911019232651
% es.EY (V/m) @ t=0.16
0.10705493663375798
% es.EZ (V/m) @ t=0.16
1.3575080562586916
% es.tEX (V/m) @ t=0.16
0.44189110192326453
% es.tEY (V/m) @ t=0.16
0
% es.tEZ (V/m) @ t=0.16
1.3575080562586912
% es.Ex (V/m) @ t=0.16
0.4418911019232651
% es.Ey (V/m) @ t=0.16
0.10705493663375798
% es.Ez (V/m) @ t=0.16
1.3575080562586916
% es.tEx (V/m) @ t=0.16
0.44189110192326453
% es.tEy (V/m) @ t=0.16
0
% es.tEz (V/m) @ t=0.16
1.3575080562586912
% V (V) @ t=0.16
0.006695796632288603
% es.normE (V/m) @ t=0.18
1.4451090665153008
% es.EX (V/m) @ t=0.18
0.44604954648392314
% es.EY (V/m) @ t=0.18
0.10806238991987493
% es.EZ (V/m) @ t=0.18
1.370282965272346
% es.tEX (V/m) @ t=0.18
0.44604954648392336
% es.tEY (V/m) @ t=0.18
0
% es.tEZ (V/m) @ t=0.18
1.3702829652723487
% es.Ex (V/m) @ t=0.18
0.44604954648392314
% es.Ey (V/m) @ t=0.18
0.10806238991987493
% es.Ez (V/m) @ t=0.18
1.370282965272346
% es.tEx (V/m) @ t=0.18
0.44604954648392336
% es.tEy (V/m) @ t=0.18
0
% es.tEz (V/m) @ t=0.18
1.3702829652723487
% V (V) @ t=0.18
0.006758807527001358
% es.normE (V/m) @ t=0.2
1.4585815674376785
% es.EX (V/m) @ t=0.2
0.450207991044572
% es.EY (V/m) @ t=0.2
0.10906984320598456
% es.EZ (V/m) @ t=0.2
1.3830578742859978
% es.tEX (V/m) @ t=0.2
0.4502079910445751
% es.tEY (V/m) @ t=0.2
0
% es.tEZ (V/m) @ t=0.2
1.3830578742860045
% es.Ex (V/m) @ t=0.2
0.450207991044572
% es.Ey (V/m) @ t=0.2
0.10906984320598456
% es.Ez (V/m) @ t=0.2
1.3830578742859978
% es.tEx (V/m) @ t=0.2
0.4502079910445751
% es.tEy (V/m) @ t=0.2
0
% es.tEz (V/m) @ t=0.2
1.3830578742860045
% V (V) @ t=0.2
0.006821818421714114
% es.normE (V/m) @ t=0.22
1.4720540683600585
% es.EX (V/m) @ t=0.22
0.4543664356052203
% es.EY (V/m) @ t=0.22
0.11007729649210107
% es.EZ (V/m) @ t=0.22
1.3958327832996513
% es.tEX (V/m) @ t=0.22
0.4543664356052233
% es.tEY (V/m) @ t=0.22
0
% es.tEZ (V/m) @ t=0.22
1.3958327832996549
% es.Ex (V/m) @ t=0.22
0.4543664356052203
% es.Ey (V/m) @ t=0.22
0.11007729649210107
% es.Ez (V/m) @ t=0.22
1.3958327832996513
% es.tEx (V/m) @ t=0.22
0.4543664356052233
% es.tEy (V/m) @ t=0.22
0
% es.tEz (V/m) @ t=0.22
1.3958327832996549
% V (V) @ t=0.22
0.006884829316426869
% es.normE (V/m) @ t=0.24
1.4855265692824489
% es.EX (V/m) @ t=0.24
0.4585248801658762
% es.EY (V/m) @ t=0.24
0.11108474977823035
% es.EZ (V/m) @ t=0.24
1.4086076923133128
% es.tEX (V/m) @ t=0.24
0.458524880165875
% es.tEY (V/m) @ t=0.24
0
% es.tEZ (V/m) @ t=0.24
1.4086076923133177
% es.Ex (V/m) @ t=0.24
0.4585248801658762
% es.Ey (V/m) @ t=0.24
0.11108474977823035
% es.Ez (V/m) @ t=0.24
1.4086076923133128
% es.tEx (V/m) @ t=0.24
0.458524880165875
% es.tEy (V/m) @ t=0.24
0
% es.tEz (V/m) @ t=0.24
1.4086076923133177
% V (V) @ t=0.24
0.006947840211139625
% es.normE (V/m) @ t=0.26
1.4989990702048344
% es.EX (V/m) @ t=0.26
0.46268332472653173
% es.EY (V/m) @ t=0.26
0.11209220306433287
% es.EZ (V/m) @ t=0.26
1.4213826013269708
% es.tEX (V/m) @ t=0.26
0.46268332472653384
% es.tEY (V/m) @ t=0.26
0
% es.tEZ (V/m) @ t=0.26
1.4213826013269681
% es.Ex (V/m) @ t=0.26
0.46268332472653173
% es.Ey (V/m) @ t=0.26
0.11209220306433287
% es.Ez (V/m) @ t=0.26
1.4213826013269708
% es.tEx (V/m) @ t=0.26
0.46268332472653384
% es.tEy (V/m) @ t=0.26
0
% es.tEz (V/m) @ t=0.26
1.4213826013269681
% V (V) @ t=0.26
0.007010851105852382
% es.normE (V/m) @ t=0.28
1.5129286456527393
% es.EX (V/m) @ t=0.28
0.46698284961059255
% es.EY (V/m) @ t=0.28
0.1131338324637865
% es.EZ (V/m) @ t=0.28
1.434590918616637
% es.tEX (V/m) @ t=0.28
0.466982849610595
% es.tEY (V/m) @ t=0.28
0
% es.tEZ (V/m) @ t=0.28
1.4345909186166406
% es.Ex (V/m) @ t=0.28
0.46698284961059255
% es.Ey (V/m) @ t=0.28
0.1131338324637865
% es.Ez (V/m) @ t=0.28
1.434590918616637
% es.tEx (V/m) @ t=0.28
0.466982849610595
% es.tEy (V/m) @ t=0.28
0
% es.tEz (V/m) @ t=0.28
1.4345909186166406
% V (V) @ t=0.28
0.007075999887517658
% es.normE (V/m) @ t=0.3
1.5279487962657772
% es.EX (V/m) @ t=0.3
0.47161899071021207
% es.EY (V/m) @ t=0.3
0.11425700572173747
% es.EZ (V/m) @ t=0.3
1.4488333436410046
% es.tEX (V/m) @ t=0.3
0.47161899071021196
% es.tEY (V/m) @ t=0.3
0
% es.tEZ (V/m) @ t=0.3
1.4488333436410041
% es.Ex (V/m) @ t=0.3
0.47161899071021207
% es.Ey (V/m) @ t=0.3
0.11425700572173747
% es.Ez (V/m) @ t=0.3
1.4488333436410046
% es.tEx (V/m) @ t=0.3
0.47161899071021196
% es.tEy (V/m) @ t=0.3
0
% es.tEz (V/m) @ t=0.3
1.4488333436410041
% V (V) @ t=0.3
0.007146249645688907
% es.normE (V/m) @ t=0.32
1.5429689468787924
% es.EX (V/m) @ t=0.32
0.4762551318098258
% es.EY (V/m) @ t=0.32
0.115380178979678
% es.EZ (V/m) @ t=0.32
1.4630757686653513
% es.tEX (V/m) @ t=0.32
0.4762551318098289
% es.tEY (V/m) @ t=0.32
0
% es.tEZ (V/m) @ t=0.32
1.463075768665357
% es.Ex (V/m) @ t=0.32
0.4762551318098258
% es.Ey (V/m) @ t=0.32
0.115380178979678
% es.Ez (V/m) @ t=0.32
1.4630757686653513
% es.tEx (V/m) @ t=0.32
0.4762551318098289
% es.tEy (V/m) @ t=0.32
0
% es.tEz (V/m) @ t=0.32
1.463075768665357
% V (V) @ t=0.32
0.0072164994038601575
% es.normE (V/m) @ t=0.34
1.5579890974918245
% es.EX (V/m) @ t=0.34
0.48089127290943867
% es.EY (V/m) @ t=0.34
0.11650335223762198
% es.EZ (V/m) @ t=0.34
1.4773181936897153
% es.tEX (V/m) @ t=0.34
0.4808912729094388
% es.tEY (V/m) @ t=0.34
0
% es.tEZ (V/m) @ t=0.34
1.4773181936897188
% es.Ex (V/m) @ t=0.34
0.48089127290943867
% es.Ey (V/m) @ t=0.34
0.11650335223762198
% es.Ez (V/m) @ t=0.34
1.4773181936897153
% es.tEx (V/m) @ t=0.34
0.4808912729094388
% es.tEy (V/m) @ t=0.34
0
% es.tEz (V/m) @ t=0.34
1.4773181936897188
% V (V) @ t=0.34
0.007286749162031406
% es.normE (V/m) @ t=0.36
1.5730092481048463
% es.EX (V/m) @ t=0.36
0.48552741400905197
% es.EY (V/m) @ t=0.36
0.11762652549556785
% es.EZ (V/m) @ t=0.36
1.4915606187140686
% es.tEX (V/m) @ t=0.36
0.48552741400904864
% es.tEY (V/m) @ t=0.36
0
% es.tEZ (V/m) @ t=0.36
1.4915606187140718
% es.Ex (V/m) @ t=0.36
0.48552741400905197
% es.Ey (V/m) @ t=0.36
0.11762652549556785
% es.Ez (V/m) @ t=0.36
1.4915606187140686
% es.tEx (V/m) @ t=0.36
0.48552741400904864
% es.tEy (V/m) @ t=0.36
0
% es.tEz (V/m) @ t=0.36
1.4915606187140718
% V (V) @ t=0.36
0.007356998920202654
% es.normE (V/m) @ t=0.38
1.5880293987178704
% es.EX (V/m) @ t=0.38
0.49016355510866927
% es.EY (V/m) @ t=0.38
0.11874969875352981
% es.EZ (V/m) @ t=0.38
1.5058030437384216
% es.tEX (V/m) @ t=0.38
0.4901635551086727
% es.tEY (V/m) @ t=0.38
0
% es.tEZ (V/m) @ t=0.38
1.5058030437384264
% es.Ex (V/m) @ t=0.38
0.49016355510866927
% es.Ey (V/m) @ t=0.38
0.11874969875352981
% es.Ez (V/m) @ t=0.38
1.5058030437384216
% es.tEx (V/m) @ t=0.38
0.4901635551086727
% es.tEy (V/m) @ t=0.38
0
% es.tEz (V/m) @ t=0.38
1.5058030437384264
% V (V) @ t=0.38
0.007427248678373903
% es.normE (V/m) @ t=0.4
1.6030495493308985
% es.EX (V/m) @ t=0.4
0.49479969620828
% es.EY (V/m) @ t=0.4
0.11987287201146823
% es.EZ (V/m) @ t=0.4
1.520045468762783
% es.tEX (V/m) @ t=0.4
0.49479969620828257
% es.tEY (V/m) @ t=0.4
0
% es.tEZ (V/m) @ t=0.4
1.5200454687627811
% es.Ex (V/m) @ t=0.4
0.49479969620828
% es.Ey (V/m) @ t=0.4
0.11987287201146823
% es.Ez (V/m) @ t=0.4
1.520045468762783
% es.tEx (V/m) @ t=0.4
0.49479969620828257
% es.tEy (V/m) @ t=0.4
0
% es.tEz (V/m) @ t=0.4
1.5200454687627811
% V (V) @ t=0.4
0.007497498436545154
% es.normE (V/m) @ t=0.42
1.6180696999439257
% es.EX (V/m) @ t=0.42
0.49943583730789776
% es.EY (V/m) @ t=0.42
0.12099604526942276
% es.EZ (V/m) @ t=0.42
1.5342878937871394
% es.tEX (V/m) @ t=0.42
0.49943583730789953
% es.tEY (V/m) @ t=0.42
0
% es.tEZ (V/m) @ t=0.42
1.5342878937871358
% es.Ex (V/m) @ t=0.42
0.49943583730789776
% es.Ey (V/m) @ t=0.42
0.12099604526942276
% es.Ez (V/m) @ t=0.42
1.5342878937871394
% es.tEx (V/m) @ t=0.42
0.49943583730789953
% es.tEy (V/m) @ t=0.42
0
% es.tEz (V/m) @ t=0.42
1.5342878937871358
% V (V) @ t=0.42
0.007567748194716404
% es.normE (V/m) @ t=0.44
1.6330898505569484
% es.EX (V/m) @ t=0.44
0.5040719784075104
% es.EY (V/m) @ t=0.44
0.12211921852736507
% es.EZ (V/m) @ t=0.44
1.548530318811494
% es.tEX (V/m) @ t=0.44
0.5040719784075094
% es.tEY (V/m) @ t=0.44
0
% es.tEZ (V/m) @ t=0.44
1.5485303188114958
% es.Ex (V/m) @ t=0.44
0.5040719784075104
% es.Ey (V/m) @ t=0.44
0.12211921852736507
% es.Ez (V/m) @ t=0.44
1.548530318811494
% es.tEx (V/m) @ t=0.44
0.5040719784075094
% es.tEy (V/m) @ t=0.44
0
% es.tEz (V/m) @ t=0.44
1.5485303188114958
% V (V) @ t=0.44
0.007637997952887651
% es.normE (V/m) @ t=0.46
1.6481100011699703
% es.EX (V/m) @ t=0.46
0.5087081195071225
% es.EY (V/m) @ t=0.46
0.12324239178531249
% es.EZ (V/m) @ t=0.46
1.5627727438358474
% es.tEX (V/m) @ t=0.46
0.5087081195071264
% es.tEY (V/m) @ t=0.46
0
% es.tEZ (V/m) @ t=0.46
1.5627727438358505
% es.Ex (V/m) @ t=0.46
0.5087081195071225
% es.Ey (V/m) @ t=0.46
0.12324239178531249
% es.Ez (V/m) @ t=0.46
1.5627727438358474
% es.tEx (V/m) @ t=0.46
0.5087081195071264
% es.tEy (V/m) @ t=0.46
0
% es.tEz (V/m) @ t=0.46
1.5627727438358505
% V (V) @ t=0.46
0.007708247711058901
% es.normE (V/m) @ t=0.48
1.6631301517830106
% es.EX (V/m) @ t=0.48
0.5133442606067377
% es.EY (V/m) @ t=0.48
0.12436556504327312
% es.EZ (V/m) @ t=0.48
1.577015168860218
% es.tEX (V/m) @ t=0.48
0.5133442606067433
% es.tEY (V/m) @ t=0.48
0
% es.tEZ (V/m) @ t=0.48
1.5770151688602194
% es.Ex (V/m) @ t=0.48
0.5133442606067377
% es.Ey (V/m) @ t=0.48
0.12436556504327312
% es.Ez (V/m) @ t=0.48
1.577015168860218
% es.tEx (V/m) @ t=0.48
0.5133442606067433
% es.tEy (V/m) @ t=0.48
0
% es.tEz (V/m) @ t=0.48
1.5770151688602194
% V (V) @ t=0.48
0.007778497469230152
% es.normE (V/m) @ t=0.5
1.6781503023960296
% es.EX (V/m) @ t=0.5
0.5179804017063522
% es.EY (V/m) @ t=0.5
0.12548873830120977
% es.EZ (V/m) @ t=0.5
1.5912575938845683
% es.tEX (V/m) @ t=0.5
0.5179804017063532
% es.tEY (V/m) @ t=0.5
0
% es.tEZ (V/m) @ t=0.5
1.591257593884574
% es.Ex (V/m) @ t=0.5
0.5179804017063522
% es.Ey (V/m) @ t=0.5
0.12548873830120977
% es.Ez (V/m) @ t=0.5
1.5912575938845683
% es.tEx (V/m) @ t=0.5
0.5179804017063532
% es.tEy (V/m) @ t=0.5
0
% es.tEz (V/m) @ t=0.5
1.591257593884574
% V (V) @ t=0.5
0.0078487472274014
% es.normE (V/m) @ t=0.52
1.6931704530090461
% es.EX (V/m) @ t=0.52
0.5226165428059708
% es.EY (V/m) @ t=0.52
0.12661191155914653
% es.EZ (V/m) @ t=0.52
1.605500018908915
% es.tEX (V/m) @ t=0.52
0.522616542805963
% es.tEY (V/m) @ t=0.52
0
% es.tEZ (V/m) @ t=0.52
1.6055000189089217
% es.Ex (V/m) @ t=0.52
0.5226165428059708
% es.Ey (V/m) @ t=0.52
0.12661191155914653
% es.Ez (V/m) @ t=0.52
1.605500018908915
% es.tEx (V/m) @ t=0.52
0.522616542805963
% es.tEy (V/m) @ t=0.52
0
% es.tEz (V/m) @ t=0.52
1.6055000189089217
% V (V) @ t=0.52
0.007918996985572647
% es.normE (V/m) @ t=0.54
1.7081906036220802
% es.EX (V/m) @ t=0.54
0.5272526839055861
% es.EY (V/m) @ t=0.54
0.12773508481710805
% es.EZ (V/m) @ t=0.54
1.619742443933279
% es.tEX (V/m) @ t=0.54
0.5272526839055871
% es.tEY (V/m) @ t=0.54
0
% es.tEZ (V/m) @ t=0.54
1.6197424439332835
% es.Ex (V/m) @ t=0.54
0.5272526839055861
% es.Ey (V/m) @ t=0.54
0.12773508481710805
% es.Ez (V/m) @ t=0.54
1.619742443933279
% es.tEx (V/m) @ t=0.54
0.5272526839055871
% es.tEy (V/m) @ t=0.54
0
% es.tEz (V/m) @ t=0.54
1.6197424439332835
% V (V) @ t=0.54
0.007989246743743898
% es.normE (V/m) @ t=0.56
1.7242724499499382
% es.EX (V/m) @ t=0.56
0.5322162609808224
% es.EY (V/m) @ t=0.56
0.12893676048330038
% es.EZ (V/m) @ t=0.56
1.6349917455811003
% es.tEX (V/m) @ t=0.56
0.5322162609808316
% es.tEY (V/m) @ t=0.56
0
% es.tEZ (V/m) @ t=0.56
1.634991745581102
% es.Ex (V/m) @ t=0.56
0.5322162609808224
% es.Ey (V/m) @ t=0.56
0.12893676048330038
% es.Ez (V/m) @ t=0.56
1.6349917455811003
% es.tEx (V/m) @ t=0.56
0.5322162609808316
% es.tEy (V/m) @ t=0.56
0
% es.tEz (V/m) @ t=0.56
1.634991745581102
% V (V) @ t=0.56
0.008064502441353448
% es.normE (V/m) @ t=0.58
1.741060032949433
% es.EX (V/m) @ t=0.58
0.5373974932389187
% es.EY (V/m) @ t=0.58
0.13019061873567395
% es.EZ (V/m) @ t=0.58
1.6509103442270963
% es.tEX (V/m) @ t=0.58
0.5373974932389203
% es.tEY (V/m) @ t=0.58
0
% es.tEZ (V/m) @ t=0.58
1.650910344227098
% es.Ex (V/m) @ t=0.58
0.5373974932389187
% es.Ey (V/m) @ t=0.58
0.13019061873567395
% es.Ez (V/m) @ t=0.58
1.6509103442270963
% es.tEx (V/m) @ t=0.58
0.5373974932389203
% es.tEy (V/m) @ t=0.58
0
% es.tEz (V/m) @ t=0.58
1.650910344227098
% V (V) @ t=0.58
0.008143085716702893
% es.normE (V/m) @ t=0.6
1.7578476159514405
% es.EX (V/m) @ t=0.6
0.5425787254970166
% es.EY (V/m) @ t=0.6
0.13144447698807182
% es.EZ (V/m) @ t=0.6
1.6668289428730914
% es.tEX (V/m) @ t=0.6
0.542578725497016
% es.tEY (V/m) @ t=0.6
0
% es.tEZ (V/m) @ t=0.6
1.666828942873094
% es.Ex (V/m) @ t=0.6
0.5425787254970166
% es.Ey (V/m) @ t=0.6
0.13144447698807182
% es.Ez (V/m) @ t=0.6
1.6668289428730914
% es.tEx (V/m) @ t=0.6
0.542578725497016
% es.tEy (V/m) @ t=0.6
0
% es.tEz (V/m) @ t=0.6
1.666828942873094
% V (V) @ t=0.6
0.00822166899205234
% es.normE (V/m) @ t=0.62
1.774635198955877
% es.EX (V/m) @ t=0.62
0.5477599577550969
% es.EY (V/m) @ t=0.62
0.13269833524046482
% es.EZ (V/m) @ t=0.62
1.6827475415190811
% es.tEX (V/m) @ t=0.62
0.5477599577550976
% es.tEY (V/m) @ t=0.62
0
% es.tEZ (V/m) @ t=0.62
1.6827475415190811
% es.Ex (V/m) @ t=0.62
0.5477599577550969
% es.Ey (V/m) @ t=0.62
0.13269833524046482
% es.Ez (V/m) @ t=0.62
1.6827475415190811
% es.tEx (V/m) @ t=0.62
0.5477599577550976
% es.tEy (V/m) @ t=0.62
0
% es.tEz (V/m) @ t=0.62
1.6827475415190811
% V (V) @ t=0.62
0.008300252267401784
% es.normE (V/m) @ t=0.64
1.7914227819626993
% es.EX (V/m) @ t=0.64
0.5529411900131936
% es.EY (V/m) @ t=0.64
0.13395219349283694
% es.EZ (V/m) @ t=0.64
1.698666140165082
% es.tEX (V/m) @ t=0.64
0.5529411900131933
% es.tEY (V/m) @ t=0.64
0
% es.tEZ (V/m) @ t=0.64
1.6986661401650789
% es.Ex (V/m) @ t=0.64
0.5529411900131936
% es.Ey (V/m) @ t=0.64
0.13395219349283694
% es.Ez (V/m) @ t=0.64
1.698666140165082
% es.tEx (V/m) @ t=0.64
0.5529411900131933
% es.tEy (V/m) @ t=0.64
0
% es.tEz (V/m) @ t=0.64
1.6986661401650789
% V (V) @ t=0.64
0.00837883554275123
% es.normE (V/m) @ t=0.66
1.8082103649718126
% es.EX (V/m) @ t=0.66
0.558122422271277
% es.EY (V/m) @ t=0.66
0.13520605174522127
% es.EZ (V/m) @ t=0.66
1.7145847388110713
% es.tEX (V/m) @ t=0.66
0.558122422271282
% es.tEY (V/m) @ t=0.66
0
% es.tEZ (V/m) @ t=0.66
1.714584738811073
% es.Ex (V/m) @ t=0.66
0.558122422271277
% es.Ey (V/m) @ t=0.66
0.13520605174522127
% es.Ez (V/m) @ t=0.66
1.7145847388110713
% es.tEx (V/m) @ t=0.66
0.558122422271282
% es.tEy (V/m) @ t=0.66
0
% es.tEz (V/m) @ t=0.66
1.714584738811073
% V (V) @ t=0.66
0.008457418818100675
% es.normE (V/m) @ t=0.68
1.8249979479831642
% es.EX (V/m) @ t=0.68
0.5633036545293695
% es.EY (V/m) @ t=0.68
0.1364599099975965
% es.EZ (V/m) @ t=0.68
1.7305033374570544
% es.tEX (V/m) @ t=0.68
0.5633036545293635
% es.tEY (V/m) @ t=0.68
0
% es.tEZ (V/m) @ t=0.68
1.730503337457062
% es.Ex (V/m) @ t=0.68
0.5633036545293695
% es.Ey (V/m) @ t=0.68
0.1364599099975965
% es.Ez (V/m) @ t=0.68
1.7305033374570544
% es.tEx (V/m) @ t=0.68
0.5633036545293635
% es.tEy (V/m) @ t=0.68
0
% es.tEz (V/m) @ t=0.68
1.730503337457062
% V (V) @ t=0.68
0.008536002093450122
% es.normE (V/m) @ t=0.7
1.8417855309967164
% es.EX (V/m) @ t=0.7
0.5684848867874693
% es.EY (V/m) @ t=0.7
0.13771376824998194
% es.EZ (V/m) @ t=0.7
1.7464219361030557
% es.tEX (V/m) @ t=0.7
0.5684848867874663
% es.tEY (V/m) @ t=0.7
0
% es.tEZ (V/m) @ t=0.7
1.7464219361030509
% es.Ex (V/m) @ t=0.7
0.5684848867874693
% es.Ey (V/m) @ t=0.7
0.13771376824998194
% es.Ez (V/m) @ t=0.7
1.7464219361030557
% es.tEx (V/m) @ t=0.7
0.5684848867874663
% es.tEy (V/m) @ t=0.7
0
% es.tEz (V/m) @ t=0.7
1.7464219361030509
% V (V) @ t=0.7
0.008614585368799567
% es.normE (V/m) @ t=0.72
1.8585731140123856
% es.EX (V/m) @ t=0.72
0.5736661190455582
% es.EY (V/m) @ t=0.72
0.1389676265023626
% es.EZ (V/m) @ t=0.72
1.7623405347490562
% es.tEX (V/m) @ t=0.72
0.5736661190455621
% es.tEY (V/m) @ t=0.72
0
% es.tEZ (V/m) @ t=0.72
1.7623405347490522
% es.Ex (V/m) @ t=0.72
0.5736661190455582
% es.Ey (V/m) @ t=0.72
0.1389676265023626
% es.Ez (V/m) @ t=0.72
1.7623405347490562
% es.tEx (V/m) @ t=0.72
0.5736661190455621
% es.tEy (V/m) @ t=0.72
0
% es.tEz (V/m) @ t=0.72
1.7623405347490522
% V (V) @ t=0.72
0.008693168644149011
% es.normE (V/m) @ t=0.74
1.8753606970301098
% es.EX (V/m) @ t=0.74
0.5788473513036505
% es.EY (V/m) @ t=0.74
0.14022148475473262
% es.EZ (V/m) @ t=0.74
1.7782591333950468
% es.tEX (V/m) @ t=0.74
0.5788473513036578
% es.tEY (V/m) @ t=0.74
0
% es.tEZ (V/m) @ t=0.74
1.7782591333950482
% es.Ex (V/m) @ t=0.74
0.5788473513036505
% es.Ey (V/m) @ t=0.74
0.14022148475473262
% es.Ez (V/m) @ t=0.74
1.7782591333950468
% es.tEx (V/m) @ t=0.74
0.5788473513036578
% es.tEy (V/m) @ t=0.74
0
% es.tEz (V/m) @ t=0.74
1.7782591333950482
% V (V) @ t=0.74
0.008771751919498458
% es.normE (V/m) @ t=0.76
1.8921482800498473
% es.EX (V/m) @ t=0.76
0.5840285835617509
% es.EY (V/m) @ t=0.76
0.14147534300713271
% es.EZ (V/m) @ t=0.76
1.7941777320410361
% es.tEX (V/m) @ t=0.76
0.5840285835617536
% es.tEY (V/m) @ t=0.76
0
% es.tEZ (V/m) @ t=0.76
1.7941777320410388
% es.Ex (V/m) @ t=0.76
0.5840285835617509
% es.Ey (V/m) @ t=0.76
0.14147534300713271
% es.Ez (V/m) @ t=0.76
1.7941777320410361
% es.tEx (V/m) @ t=0.76
0.5840285835617536
% es.tEy (V/m) @ t=0.76
0
% es.tEz (V/m) @ t=0.76
1.7941777320410388
% V (V) @ t=0.76
0.008850335194847903
% es.normE (V/m) @ t=0.78
1.9089358630715443
% es.EX (V/m) @ t=0.78
0.5892098158198471
% es.EY (V/m) @ t=0.78
0.14272920125949196
% es.EZ (V/m) @ t=0.78
1.8100963306870335
% es.tEX (V/m) @ t=0.78
0.5892098158198351
% es.tEY (V/m) @ t=0.78
0
% es.tEZ (V/m) @ t=0.78
1.810096330687042
% es.Ex (V/m) @ t=0.78
0.5892098158198471
% es.Ey (V/m) @ t=0.78
0.14272920125949196
% es.Ez (V/m) @ t=0.78
1.8100963306870335
% es.tEx (V/m) @ t=0.78
0.5892098158198351
% es.tEy (V/m) @ t=0.78
0
% es.tEz (V/m) @ t=0.78
1.810096330687042
% V (V) @ t=0.78
0.008928918470197349
% es.normE (V/m) @ t=0.8
1.9257234460951378
% es.EX (V/m) @ t=0.8
0.5943910480779251
% es.EY (V/m) @ t=0.8
0.14398305951190682
% es.EZ (V/m) @ t=0.8
1.8260149293330228
% es.tEX (V/m) @ t=0.8
0.5943910480779309
% es.tEY (V/m) @ t=0.8
0
% es.tEZ (V/m) @ t=0.8
1.826014929333029
% es.Ex (V/m) @ t=0.8
0.5943910480779251
% es.Ey (V/m) @ t=0.8
0.14398305951190682
% es.Ez (V/m) @ t=0.8
1.8260149293330228
% es.tEx (V/m) @ t=0.8
0.5943910480779309
% es.tEy (V/m) @ t=0.8
0
% es.tEz (V/m) @ t=0.8
1.826014929333029
% V (V) @ t=0.8
0.009007501745546794
% es.normE (V/m) @ t=0.82
1.9425110291205905
% es.EX (V/m) @ t=0.82
0.5995722803360214
% es.EY (V/m) @ t=0.82
0.14523691776428038
% es.EZ (V/m) @ t=0.82
1.841933527979013
% es.tEX (V/m) @ t=0.82
0.5995722803360195
% es.tEY (V/m) @ t=0.82
0
% es.tEZ (V/m) @ t=0.82
1.8419335279790179
% es.Ex (V/m) @ t=0.82
0.5995722803360214
% es.Ey (V/m) @ t=0.82
0.14523691776428038
% es.Ez (V/m) @ t=0.82
1.841933527979013
% es.tEx (V/m) @ t=0.82
0.5995722803360195
% es.tEy (V/m) @ t=0.82
0
% es.tEz (V/m) @ t=0.82
1.8419335279790179
% V (V) @ t=0.82
0.00908608502089624
% es.normE (V/m) @ t=0.84
1.9610891257321303
% es.EX (V/m) @ t=0.84
0.6053068508389351
% es.EY (V/m) @ t=0.84
0.146626902520113
% es.EZ (V/m) @ t=0.84
1.859549541471735
% es.tEX (V/m) @ t=0.84
0.6053068508389359
% es.tEY (V/m) @ t=0.84
0
% es.tEZ (V/m) @ t=0.84
1.8595495414717398
% es.Ex (V/m) @ t=0.84
0.6053068508389351
% es.Ey (V/m) @ t=0.84
0.146626902520113
% es.Ez (V/m) @ t=0.84
1.859549541471735
% es.tEx (V/m) @ t=0.84
0.6053068508389359
% es.tEy (V/m) @ t=0.84
0
% es.tEz (V/m) @ t=0.84
1.8595495414717398
% V (V) @ t=0.84
0.009172941073084577
% es.normE (V/m) @ t=0.86
1.9798528527210215
% es.EX (V/m) @ t=0.86
0.6110987883382737
% es.EY (V/m) @ t=0.86
0.1480310001060987
% es.EZ (V/m) @ t=0.86
1.8773415333869758
% es.tEX (V/m) @ t=0.86
0.6110987883382819
% es.tEY (V/m) @ t=0.86
0
% es.tEZ (V/m) @ t=0.86
1.8773415333869803
% es.Ex (V/m) @ t=0.86
0.6110987883382737
% es.Ey (V/m) @ t=0.86
0.1480310001060987
% es.Ez (V/m) @ t=0.86
1.8773415333869758
% es.tEx (V/m) @ t=0.86
0.6110987883382819
% es.tEy (V/m) @ t=0.86
0
% es.tEz (V/m) @ t=0.86
1.8773415333869803
% V (V) @ t=0.86
0.009260654800237363
% es.normE (V/m) @ t=0.88
1.998616579711341
% es.EX (V/m) @ t=0.88
0.6168907258376254
% es.EY (V/m) @ t=0.88
0.14943509769204277
% es.EZ (V/m) @ t=0.88
1.895133525302258
% es.tEX (V/m) @ t=0.88
0.6168907258376208
% es.tEY (V/m) @ t=0.88
0
% es.tEZ (V/m) @ t=0.88
1.8951335253022688
% es.Ex (V/m) @ t=0.88
0.6168907258376254
% es.Ey (V/m) @ t=0.88
0.14943509769204277
% es.Ez (V/m) @ t=0.88
1.895133525302258
% es.tEx (V/m) @ t=0.88
0.6168907258376208
% es.tEy (V/m) @ t=0.88
0
% es.tEz (V/m) @ t=0.88
1.8951335253022688
% V (V) @ t=0.88
0.00934836852739015
% es.normE (V/m) @ t=0.9
2.017380306703009
% es.EX (V/m) @ t=0.9
0.6226826633369771
% es.EY (V/m) @ t=0.9
0.15083919527798972
% es.EZ (V/m) @ t=0.9
1.9129255172175386
% es.tEX (V/m) @ t=0.9
0.6226826633369811
% es.tEY (V/m) @ t=0.9
0
% es.tEZ (V/m) @ t=0.9
1.912925517217543
% es.Ex (V/m) @ t=0.9
0.6226826633369771
% es.Ey (V/m) @ t=0.9
0.15083919527798972
% es.Ez (V/m) @ t=0.9
1.9129255172175386
% es.tEx (V/m) @ t=0.9
0.6226826633369811
% es.tEy (V/m) @ t=0.9
0
% es.tEz (V/m) @ t=0.9
1.912925517217543
% V (V) @ t=0.9
0.009436082254542935
% es.normE (V/m) @ t=0.92
2.036144033695972
% es.EX (V/m) @ t=0.92
0.6284746008363247
% es.EY (V/m) @ t=0.92
0.15224329286396177
% es.EZ (V/m) @ t=0.92
1.9307175091327995
% es.tEX (V/m) @ t=0.92
0.62847460083632
% es.tEY (V/m) @ t=0.92
0
% es.tEZ (V/m) @ t=0.92
1.9307175091328102
% es.Ex (V/m) @ t=0.92
0.6284746008363247
% es.Ey (V/m) @ t=0.92
0.15224329286396177
% es.Ez (V/m) @ t=0.92
1.9307175091327995
% es.tEx (V/m) @ t=0.92
0.62847460083632
% es.tEy (V/m) @ t=0.92
0
% es.tEz (V/m) @ t=0.92
1.9307175091328102
% V (V) @ t=0.92
0.00952379598169572
% es.normE (V/m) @ t=0.94
2.0549077606902157
% es.EX (V/m) @ t=0.94
0.6342665383356673
% es.EY (V/m) @ t=0.94
0.1536473904499156
% es.EZ (V/m) @ t=0.94
1.9485095010480684
% es.tEX (V/m) @ t=0.94
0.634266538335666
% es.tEY (V/m) @ t=0.94
0
% es.tEZ (V/m) @ t=0.94
1.9485095010480755
% es.Ex (V/m) @ t=0.94
0.6342665383356673
% es.Ey (V/m) @ t=0.94
0.1536473904499156
% es.Ez (V/m) @ t=0.94
1.9485095010480684
% es.tEx (V/m) @ t=0.94
0.634266538335666
% es.tEy (V/m) @ t=0.94
0
% es.tEz (V/m) @ t=0.94
1.9485095010480755
% V (V) @ t=0.94
0.009611509708848505
% es.normE (V/m) @ t=0.96
2.073671487685707
% es.EX (V/m) @ t=0.96
0.6400584758350135
% es.EY (V/m) @ t=0.96
0.15505148803586832
% es.EZ (V/m) @ t=0.96
1.9663014929633413
% es.tEX (V/m) @ t=0.96
0.6400584758350192
% es.tEY (V/m) @ t=0.96
0
% es.tEZ (V/m) @ t=0.96
1.9663014929633356
% es.Ex (V/m) @ t=0.96
0.6400584758350135
% es.Ey (V/m) @ t=0.96
0.15505148803586832
% es.Ez (V/m) @ t=0.96
1.9663014929633413
% es.tEx (V/m) @ t=0.96
0.6400584758350192
% es.tEy (V/m) @ t=0.96
0
% es.tEz (V/m) @ t=0.96
1.9663014929633356
% V (V) @ t=0.96
0.00969922343600129
% es.normE (V/m) @ t=0.98
2.092435214682385
% es.EX (V/m) @ t=0.98
0.6458504133343564
% es.EY (V/m) @ t=0.98
0.1564555856218185
% es.EZ (V/m) @ t=0.98
1.984093484878593
% es.tEX (V/m) @ t=0.98
0.6458504133343439
% es.tEY (V/m) @ t=0.98
0
% es.tEZ (V/m) @ t=0.98
1.984093484878601
% es.Ex (V/m) @ t=0.98
0.6458504133343564
% es.Ey (V/m) @ t=0.98
0.1564555856218185
% es.Ez (V/m) @ t=0.98
1.984093484878593
% es.tEx (V/m) @ t=0.98
0.6458504133343439
% es.tEy (V/m) @ t=0.98
0
% es.tEz (V/m) @ t=0.98
1.984093484878601
% V (V) @ t=0.98
0.009786937163154078
% es.normE (V/m) @ t=1
2.111198941680275
% es.EX (V/m) @ t=1
0.6516423508337063
% es.EY (V/m) @ t=1
0.15785968320777855
% es.EZ (V/m) @ t=1
2.001885476793879
% es.tEX (V/m) @ t=1
0.6516423508337112
% es.tEY (V/m) @ t=1
0
% es.tEZ (V/m) @ t=1
2.0018854767938894
% es.Ex (V/m) @ t=1
0.6516423508337063
% es.Ey (V/m) @ t=1
0.15785968320777855
% es.Ez (V/m) @ t=1
2.001885476793879
% es.tEx (V/m) @ t=1
0.6516423508337112
% es.tEy (V/m) @ t=1
0
% es.tEz (V/m) @ t=1
2.0018854767938894
% V (V) @ t=1
0.009874650890306863
% es.normE (V/m) @ t=1.02
2.12996266867928
% es.EX (V/m) @ t=1.02
0.6574342883330433
% es.EY (V/m) @ t=1.02
0.15926378079374826
% es.EZ (V/m) @ t=1.02
2.019677468709138
% es.tEX (V/m) @ t=1.02
0.6574342883330502
% es.tEY (V/m) @ t=1.02
0
% es.tEZ (V/m) @ t=1.02
2.0196774687091423
% es.Ex (V/m) @ t=1.02
0.6574342883330433
% es.Ey (V/m) @ t=1.02
0.15926378079374826
% es.Ez (V/m) @ t=1.02
2.019677468709138
% es.tEx (V/m) @ t=1.02
0.6574342883330502
% es.tEy (V/m) @ t=1.02
0
% es.tEz (V/m) @ t=1.02
2.0196774687091423
% V (V) @ t=1.02
0.009962364617459647
% es.normE (V/m) @ t=1.04
2.1487263956794216
% es.EX (V/m) @ t=1.04
0.6632262258324007
% es.EY (V/m) @ t=1.04
0.16066787837969032
% es.EZ (V/m) @ t=1.04
2.037469460624414
% es.tEX (V/m) @ t=1.04
0.6632262258324033
% es.tEY (V/m) @ t=1.04
0
% es.tEZ (V/m) @ t=1.04
2.0374694606244184
% es.Ex (V/m) @ t=1.04
0.6632262258324007
% es.Ey (V/m) @ t=1.04
0.16066787837969032
% es.Ez (V/m) @ t=1.04