% Model:              1 neuron.mph
% Version:            COMSOL 6.0.0.405
% Date:               Mar 16 2023, 17:34
% Dimension:          0
% Nodes:              14017
% Expressions:        14017
% Description:        Electric field norm, Electric field, X component, Electric field, Y component, Electric field, Z component, Tangential electric field, X component, Tangential electric field, Y component, Tangential electric field, Z component, Electric field, x component, Electric field, y component, Electric field, z component, Tangential electric field, x component, Tangential electric field, y component, Tangential electric field, z component, Electric potential
% Length unit:        mm
% x
1.66
% y
12.2
% z
1
% es.normE (V/m) @ t=0
1.5034397179101
% es.EX (V/m) @ t=0
-0.5358822538162079
% es.EY (V/m) @ t=0
0.17024745631657678
% es.EZ (V/m) @ t=0
1.3900188262027693
% es.tEX (V/m) @ t=0
-0.5358822538162168
% es.tEY (V/m) @ t=0
0
% es.tEZ (V/m) @ t=0
1.3900188262027715
% es.Ex (V/m) @ t=0
-0.5358822538162079
% es.Ey (V/m) @ t=0
0.17024745631657678
% es.Ez (V/m) @ t=0
1.3900188262027693
% es.tEx (V/m) @ t=0
-0.5358822538162168
% es.tEy (V/m) @ t=0
0
% es.tEz (V/m) @ t=0
1.3900188262027715
% V (V) @ t=0
0.0073199294425507575
% es.normE (V/m) @ t=0.02
1.2985496382439456
% es.EX (V/m) @ t=0.02
-0.4628517527376925
% es.EY (V/m) @ t=0.02
0.14704598393286872
% es.EZ (V/m) @ t=0.02
1.200585844439725
% es.tEX (V/m) @ t=0.02
-0.46285175273769963
% es.tEY (V/m) @ t=0.02
0
% es.tEZ (V/m) @ t=0.02
1.2005858444397237
% es.Ex (V/m) @ t=0.02
-0.4628517527376925
% es.Ey (V/m) @ t=0.02
0.14704598393286872
% es.Ez (V/m) @ t=0.02
1.200585844439725
% es.tEx (V/m) @ t=0.02
-0.46285175273769963
% es.tEy (V/m) @ t=0.02
0
% es.tEz (V/m) @ t=0.02
1.2005858444397237
% V (V) @ t=0.02
0.006322363001037879
% es.normE (V/m) @ t=0.04
1.310493639509125
% es.EX (V/m) @ t=0.04
-0.46710904526570074
% es.EY (V/m) @ t=0.04
0.14839850596154602
% es.EZ (V/m) @ t=0.04
1.211628778083603
% es.tEX (V/m) @ t=0.04
-0.46710904526570785
% es.tEY (V/m) @ t=0.04
0
% es.tEZ (V/m) @ t=0.04
1.2116287780836057
% es.Ex (V/m) @ t=0.04
-0.46710904526570074
% es.Ey (V/m) @ t=0.04
0.14839850596154602
% es.Ez (V/m) @ t=0.04
1.211628778083603
% es.tEx (V/m) @ t=0.04
-0.46710904526570785
% es.tEy (V/m) @ t=0.04
0
% es.tEz (V/m) @ t=0.04
1.2116287780836057
% V (V) @ t=0.04
0.006380515674312592
% es.normE (V/m) @ t=0.06
1.3225456571810885
% es.EX (V/m) @ t=0.06
-0.47140483684030654
% es.EY (V/m) @ t=0.06
0.14976325986007077
% es.EZ (V/m) @ t=0.06
1.2227715800164107
% es.tEX (V/m) @ t=0.06
-0.4714048368403083
% es.tEY (V/m) @ t=0.06
0
% es.tEZ (V/m) @ t=0.06
1.2227715800164116
% es.Ex (V/m) @ t=0.06
-0.47140483684030654
% es.Ey (V/m) @ t=0.06
0.14976325986007077
% es.Ez (V/m) @ t=0.06
1.2227715800164107
% es.tEx (V/m) @ t=0.06
-0.4714048368403083
% es.tEy (V/m) @ t=0.06
0
% es.tEz (V/m) @ t=0.06
1.2227715800164116
% V (V) @ t=0.06
0.006439194353985371
% es.normE (V/m) @ t=0.08
1.3347808522642028
% es.EX (V/m) @ t=0.08
-0.475765921454813
% es.EY (V/m) @ t=0.08
0.15114875631365376
% es.EZ (V/m) @ t=0.08
1.2340837396549125
% es.tEX (V/m) @ t=0.08
-0.4757659214548219
% es.tEY (V/m) @ t=0.08
0
% es.tEZ (V/m) @ t=0.08
1.2340837396549098
% es.Ex (V/m) @ t=0.08
-0.475765921454813
% es.Ey (V/m) @ t=0.08
0.15114875631365376
% es.Ez (V/m) @ t=0.08
1.2340837396549125
% es.tEx (V/m) @ t=0.08
-0.4757659214548219
% es.tEy (V/m) @ t=0.08
0
% es.tEz (V/m) @ t=0.08
1.2340837396549098
% V (V) @ t=0.08
0.006498764803087217
% es.normE (V/m) @ t=0.1
1.3471449507265056
% es.EX (V/m) @ t=0.1
-0.48017295329301257
% es.EY (V/m) @ t=0.1
0.15254884946571612
% es.EZ (V/m) @ t=0.1
1.245515077637604
% es.tEX (V/m) @ t=0.1
-0.4801729532930161
% es.tEY (V/m) @ t=0.1
0
% es.tEZ (V/m) @ t=0.1
1.245515077637604
% es.Ex (V/m) @ t=0.1
-0.48017295329301257
% es.Ey (V/m) @ t=0.1
0.15254884946571612
% es.Ez (V/m) @ t=0.1
1.245515077637604
% es.tEx (V/m) @ t=0.1
-0.4801729532930161
% es.tEy (V/m) @ t=0.1
0
% es.tEz (V/m) @ t=0.1
1.245515077637604
% V (V) @ t=0.1
0.006558962797322187
% es.normE (V/m) @ t=0.12
1.3595090491887998
% es.EX (V/m) @ t=0.12
-0.48457998513119804
% es.EY (V/m) @ t=0.12
0.15394894261779646
% es.EZ (V/m) @ t=0.12
1.2569464156202899
% es.tEX (V/m) @ t=0.12
-0.4845799851312034
% es.tEY (V/m) @ t=0.12
0
% es.tEZ (V/m) @ t=0.12
1.2569464156202903
% es.Ex (V/m) @ t=0.12
-0.48457998513119804
% es.Ey (V/m) @ t=0.12
0.15394894261779646
% es.Ez (V/m) @ t=0.12
1.2569464156202899
% es.tEx (V/m) @ t=0.12
-0.4845799851312034
% es.tEy (V/m) @ t=0.12
0
% es.tEz (V/m) @ t=0.12
1.2569464156202903
% V (V) @ t=0.12
0.006619160791557158
% es.normE (V/m) @ t=0.14
1.3719945999680583
% es.EX (V/m) @ t=0.14
-0.4890303045465668
% es.EY (V/m) @ t=0.14
0.1553627891625471
% es.EZ (V/m) @ t=0.14
1.2684900443763132
% es.tEX (V/m) @ t=0.14
-0.4890303045465739
% es.tEY (V/m) @ t=0.14
0
% es.tEZ (V/m) @ t=0.14
1.268490044376314
% es.Ex (V/m) @ t=0.14
-0.4890303045465668
% es.Ey (V/m) @ t=0.14
0.1553627891625471
% es.Ez (V/m) @ t=0.14
1.2684900443763132
% es.tEx (V/m) @ t=0.14
-0.4890303045465739
% es.tEy (V/m) @ t=0.14
0
% es.tEz (V/m) @ t=0.14
1.268490044376314
% V (V) @ t=0.14
0.0066799502338490465
% es.normE (V/m) @ t=0.16
1.385019195612779
% es.EX (V/m) @ t=0.16
-0.49367274830171515
% es.EY (V/m) @ t=0.16
0.15683767773514445
% es.EZ (V/m) @ t=0.16
1.2805320560888824
% es.tEX (V/m) @ t=0.16
-0.49367274830172225
% es.tEY (V/m) @ t=0.16
0
% es.tEZ (V/m) @ t=0.16
1.2805320560888847
% es.Ex (V/m) @ t=0.16
-0.49367274830171515
% es.Ey (V/m) @ t=0.16
0.15683767773514445
% es.Ez (V/m) @ t=0.16
1.2805320560888824
% es.tEx (V/m) @ t=0.16
-0.49367274830172225
% es.tEy (V/m) @ t=0.16
0
% es.tEz (V/m) @ t=0.16
1.2805320560888847
% V (V) @ t=0.16
0.00674336471489103
% es.normE (V/m) @ t=0.18
1.3980437912575086
% es.EX (V/m) @ t=0.18
-0.49831519205687225
% es.EY (V/m) @ t=0.18
0.1583125663077316
% es.EZ (V/m) @ t=0.18
1.2925740678014592
% es.tEX (V/m) @ t=0.18
-0.4983151920568776
% es.tEY (V/m) @ t=0.18
0
% es.tEZ (V/m) @ t=0.18
1.2925740678014597
% es.Ex (V/m) @ t=0.18
-0.49831519205687225
% es.Ey (V/m) @ t=0.18
0.1583125663077316
% es.Ez (V/m) @ t=0.18
1.2925740678014592
% es.tEx (V/m) @ t=0.18
-0.4983151920568776
% es.tEy (V/m) @ t=0.18
0
% es.tEz (V/m) @ t=0.18
1.2925740678014597
% V (V) @ t=0.18
0.006806779195933012
% es.normE (V/m) @ t=0.2
1.4110683869022393
% es.EX (V/m) @ t=0.2
-0.5029576358120347
% es.EY (V/m) @ t=0.2
0.159787454880309
% es.EZ (V/m) @ t=0.2
1.3046160795140356
% es.tEX (V/m) @ t=0.2
-0.5029576358120436
% es.tEY (V/m) @ t=0.2
0
% es.tEZ (V/m) @ t=0.2
1.3046160795140338
% es.Ex (V/m) @ t=0.2
-0.5029576358120347
% es.Ey (V/m) @ t=0.2
0.159787454880309
% es.Ez (V/m) @ t=0.2
1.3046160795140356
% es.tEx (V/m) @ t=0.2
-0.5029576358120436
% es.tEy (V/m) @ t=0.2
0
% es.tEz (V/m) @ t=0.2
1.3046160795140338
% V (V) @ t=0.2
0.006870193676974996
% es.normE (V/m) @ t=0.22
1.4240929825469624
% es.EX (V/m) @ t=0.22
-0.5076000795671882
% es.EY (V/m) @ t=0.22
0.1612623434529029
% es.EZ (V/m) @ t=0.22
1.3166580912266057
% es.tEX (V/m) @ t=0.22
-0.5076000795671953
% es.tEY (V/m) @ t=0.22
0
% es.tEZ (V/m) @ t=0.22
1.316658091226608
% es.Ex (V/m) @ t=0.22
-0.5076000795671882
% es.Ey (V/m) @ t=0.22
0.1612623434529029
% es.Ez (V/m) @ t=0.22
1.3166580912266057
% es.tEx (V/m) @ t=0.22
-0.5076000795671953
% es.tEy (V/m) @ t=0.22
0
% es.tEz (V/m) @ t=0.22
1.316658091226608
% V (V) @ t=0.22
0.00693360815801698
% es.normE (V/m) @ t=0.24
1.4371175781916892
% es.EX (V/m) @ t=0.24
-0.5122425233223418
% es.EY (V/m) @ t=0.24
0.1627372320255016
% es.EZ (V/m) @ t=0.24
1.3287001029391794
% es.tEX (V/m) @ t=0.24
-0.5122425233223507
% es.tEY (V/m) @ t=0.24
0
% es.tEZ (V/m) @ t=0.24
1.3287001029391785
% es.Ex (V/m) @ t=0.24
-0.5122425233223418
% es.Ey (V/m) @ t=0.24
0.1627372320255016
% es.Ez (V/m) @ t=0.24
1.3287001029391794
% es.tEx (V/m) @ t=0.24
-0.5122425233223507
% es.tEy (V/m) @ t=0.24
0
% es.tEz (V/m) @ t=0.24
1.3287001029391785
% V (V) @ t=0.24
0.006997022639058963
% es.normE (V/m) @ t=0.26
1.4501421738364173
% es.EX (V/m) @ t=0.26
-0.5168849670774989
% es.EY (V/m) @ t=0.26
0.16421212059808687
% es.EZ (V/m) @ t=0.26
1.340742114651754
% es.tEX (V/m) @ t=0.26
-0.5168849670775024
% es.tEY (V/m) @ t=0.26
0
% es.tEZ (V/m) @ t=0.26
1.3407421146517562
% es.Ex (V/m) @ t=0.26
-0.5168849670774989
% es.Ey (V/m) @ t=0.26
0.16421212059808687
% es.Ez (V/m) @ t=0.26
1.340742114651754
% es.tEx (V/m) @ t=0.26
-0.5168849670775024
% es.tEy (V/m) @ t=0.26
0
% es.tEz (V/m) @ t=0.26
1.3407421146517562
% V (V) @ t=0.26
0.007060437120100946
% es.normE (V/m) @ t=0.28
1.4637295957104732
% es.EX (V/m) @ t=0.28
-0.5217278078508416
% es.EY (V/m) @ t=0.28
0.1657507684429953
% es.EZ (V/m) @ t=0.28
1.3533045702183255
% es.tEX (V/m) @ t=0.28
-0.5217278078508487
% es.tEY (V/m) @ t=0.28
0
% es.tEZ (V/m) @ t=0.28
1.3533045702183273
% es.Ex (V/m) @ t=0.28
-0.5217278078508416
% es.Ey (V/m) @ t=0.28
0.1657507684429953
% es.Ez (V/m) @ t=0.28
1.3533045702183255
% es.tEx (V/m) @ t=0.28
-0.5217278078508487
% es.tEy (V/m) @ t=0.28
0
% es.tEz (V/m) @ t=0.28
1.3533045702183273
% V (V) @ t=0.28
0.0071266020998702675
% es.normE (V/m) @ t=0.3
1.478244213012987
% es.EX (V/m) @ t=0.3
-0.5269007810689967
% es.EY (V/m) @ t=0.3
0.16739445280313892
% es.EZ (V/m) @ t=0.3
1.366724400827064
% es.tEX (V/m) @ t=0.3
-0.5269007810690038
% es.tEY (V/m) @ t=0.3
0
% es.tEZ (V/m) @ t=0.3
1.3667244008270663
% es.Ex (V/m) @ t=0.3
-0.5269007810689967
% es.Ey (V/m) @ t=0.3
0.16739445280313892
% es.Ez (V/m) @ t=0.3
1.366724400827064
% es.tEx (V/m) @ t=0.3
-0.5269007810690038
% es.tEy (V/m) @ t=0.3
0
% es.tEz (V/m) @ t=0.3
1.3667244008270663
% V (V) @ t=0.3
0.007197298229242489
% es.normE (V/m) @ t=0.32
1.4927588303157684
% es.EX (V/m) @ t=0.32
-0.5320737542871786
% es.EY (V/m) @ t=0.32
0.16903813716326954
% es.EZ (V/m) @ t=0.32
1.3801442314358066
% es.tEX (V/m) @ t=0.32
-0.5320737542871875
% es.tEY (V/m) @ t=0.32
0
% es.tEZ (V/m) @ t=0.32
1.3801442314358043
% es.Ex (V/m) @ t=0.32
-0.5320737542871786
% es.Ey (V/m) @ t=0.32
0.16903813716326954
% es.Ez (V/m) @ t=0.32
1.3801442314358066
% es.tEx (V/m) @ t=0.32
-0.5320737542871875
% es.tEy (V/m) @ t=0.32
0
% es.tEz (V/m) @ t=0.32
1.3801442314358043
% V (V) @ t=0.32
0.00726799435861471
% es.normE (V/m) @ t=0.34
1.507273447618789
% es.EX (V/m) @ t=0.34
-0.5372467275053462
% es.EY (V/m) @ t=0.34
0.1706818215234066
% es.EZ (V/m) @ t=0.34
1.3935640620445424
% es.tEX (V/m) @ t=0.34
-0.5372467275053497
% es.tEY (V/m) @ t=0.34
0
% es.tEZ (V/m) @ t=0.34
1.393564062044545
% es.Ex (V/m) @ t=0.34
-0.5372467275053462
% es.Ey (V/m) @ t=0.34
0.1706818215234066
% es.Ez (V/m) @ t=0.34
1.3935640620445424
% es.tEx (V/m) @ t=0.34
-0.5372467275053497
% es.tEy (V/m) @ t=0.34
0
% es.tEz (V/m) @ t=0.34
1.393564062044545
% V (V) @ t=0.34
0.00733869048798693
% es.normE (V/m) @ t=0.36
1.5217880649220559
% es.EX (V/m) @ t=0.36
-0.5424197007235102
% es.EY (V/m) @ t=0.36
0.17232550588355033
% es.EZ (V/m) @ t=0.36
1.406983892653285
% es.tEX (V/m) @ t=0.36
-0.5424197007235191
% es.tEY (V/m) @ t=0.36
0
% es.tEZ (V/m) @ t=0.36
1.4069838926532832
% es.Ex (V/m) @ t=0.36
-0.5424197007235102
% es.Ey (V/m) @ t=0.36
0.17232550588355033
% es.Ez (V/m) @ t=0.36
1.406983892653285
% es.tEx (V/m) @ t=0.36
-0.5424197007235191
% es.tEy (V/m) @ t=0.36
0
% es.tEz (V/m) @ t=0.36
1.4069838926532832
% V (V) @ t=0.36
0.007409386617359153
% es.normE (V/m) @ t=0.38
1.5363026822255574
% es.EX (V/m) @ t=0.38
-0.5475926739416884
% es.EY (V/m) @ t=0.38
0.17396919024368263
% es.EZ (V/m) @ t=0.38
1.4204037232620212
% es.tEX (V/m) @ t=0.38
-0.5475926739416955
% es.tEY (V/m) @ t=0.38
0
% es.tEZ (V/m) @ t=0.38
1.420403723262023
% es.Ex (V/m) @ t=0.38
-0.5475926739416884
% es.Ey (V/m) @ t=0.38
0.17396919024368263
% es.Ez (V/m) @ t=0.38
1.4204037232620212
% es.tEx (V/m) @ t=0.38
-0.5475926739416955
% es.tEy (V/m) @ t=0.38
0
% es.tEz (V/m) @ t=0.38
1.420403723262023
% V (V) @ t=0.38
0.007480082746731374
% es.normE (V/m) @ t=0.4
1.55081729952929
% es.EX (V/m) @ t=0.4
-0.5527656471598508
% es.EY (V/m) @ t=0.4
0.1756128746038229
% es.EZ (V/m) @ t=0.4
1.4338235538707655
% es.tEX (V/m) @ t=0.4
-0.5527656471598579
% es.tEY (V/m) @ t=0.4
0
% es.tEZ (V/m) @ t=0.4
1.4338235538707647
% es.Ex (V/m) @ t=0.4
-0.5527656471598508
% es.Ey (V/m) @ t=0.4
0.1756128746038229
% es.Ez (V/m) @ t=0.4
1.4338235538707655
% es.tEx (V/m) @ t=0.4
-0.5527656471598579
% es.tEy (V/m) @ t=0.4
0
% es.tEz (V/m) @ t=0.4
1.4338235538707647
% V (V) @ t=0.4
0.0075507788761035935
% es.normE (V/m) @ t=0.42
1.565331916833241
% es.EX (V/m) @ t=0.42
-0.55793862037802
% es.EY (V/m) @ t=0.42
0.17725655896395953
% es.EZ (V/m) @ t=0.42
1.4472433844795036
% es.tEX (V/m) @ t=0.42
-0.5579386203780271
% es.tEY (V/m) @ t=0.42
0
% es.tEZ (V/m) @ t=0.42
1.4472433844795063
% es.Ex (V/m) @ t=0.42
-0.55793862037802
% es.Ey (V/m) @ t=0.42
0.17725655896395953
% es.Ez (V/m) @ t=0.42
1.4472433844795036
% es.tEx (V/m) @ t=0.42
-0.5579386203780271
% es.tEy (V/m) @ t=0.42
0
% es.tEz (V/m) @ t=0.42
1.4472433844795063
% V (V) @ t=0.42
0.007621475005475815
% es.normE (V/m) @ t=0.44
1.5798465341374157
% es.EX (V/m) @ t=0.44
-0.5631115935961964
% es.EY (V/m) @ t=0.44
0.17890024332409382
% es.EZ (V/m) @ t=0.44
1.4606632150882466
% es.tEX (V/m) @ t=0.44
-0.5631115935962036
% es.tEY (V/m) @ t=0.44
0
% es.tEZ (V/m) @ t=0.44
1.4606632150882488
% es.Ex (V/m) @ t=0.44
-0.5631115935961964
% es.Ey (V/m) @ t=0.44
0.17890024332409382
% es.Ez (V/m) @ t=0.44
1.4606632150882466
% es.tEx (V/m) @ t=0.44
-0.5631115935962036
% es.tEy (V/m) @ t=0.44
0
% es.tEz (V/m) @ t=0.44
1.4606632150882488
% V (V) @ t=0.44
0.007692171134848037
% es.normE (V/m) @ t=0.46
1.594361151441797
% es.EX (V/m) @ t=0.46
-0.5682845668143659
% es.EY (V/m) @ t=0.46
0.18054392768424488
% es.EZ (V/m) @ t=0.46
1.4740830456969864
% es.tEX (V/m) @ t=0.46
-0.568284566814373
% es.tEY (V/m) @ t=0.46
0
% es.tEZ (V/m) @ t=0.46
1.474083045696987
% es.Ex (V/m) @ t=0.46
-0.5682845668143659
% es.Ey (V/m) @ t=0.46
0.18054392768424488
% es.Ez (V/m) @ t=0.46
1.4740830456969864
% es.tEx (V/m) @ t=0.46
-0.568284566814373
% es.tEy (V/m) @ t=0.46
0
% es.tEz (V/m) @ t=0.46
1.474083045696987
% V (V) @ t=0.46
0.007762867264220257
% es.normE (V/m) @ t=0.48
1.6088757687463753
% es.EX (V/m) @ t=0.48
-0.573457540032521
% es.EY (V/m) @ t=0.48
0.18218761204437406
% es.EZ (V/m) @ t=0.48
1.4875028763057263
% es.tEX (V/m) @ t=0.48
-0.5734575400325352
% es.tEY (V/m) @ t=0.48
0
% es.tEZ (V/m) @ t=0.48
1.4875028763057276
% es.Ex (V/m) @ t=0.48
-0.573457540032521
% es.Ey (V/m) @ t=0.48
0.18218761204437406
% es.Ez (V/m) @ t=0.48
1.4875028763057263
% es.tEx (V/m) @ t=0.48
-0.5734575400325352
% es.tEy (V/m) @ t=0.48
0
% es.tEz (V/m) @ t=0.48
1.4875028763057276
% V (V) @ t=0.48
0.007833563393592478
% es.normE (V/m) @ t=0.5
1.6233903860511658
% es.EX (V/m) @ t=0.5
-0.5786305132506939
% es.EY (V/m) @ t=0.5
0.18383129640452756
% es.EZ (V/m) @ t=0.5
1.5009227069144706
% es.tEX (V/m) @ t=0.5
-0.5786305132506975
% es.tEY (V/m) @ t=0.5
0
% es.tEZ (V/m) @ t=0.5
1.500922706914471
% es.Ex (V/m) @ t=0.5
-0.5786305132506939
% es.Ey (V/m) @ t=0.5
0.18383129640452756
% es.Ez (V/m) @ t=0.5
1.5009227069144706
% es.tEx (V/m) @ t=0.5
-0.5786305132506975
% es.tEy (V/m) @ t=0.5
0
% es.tEz (V/m) @ t=0.5
1.500922706914471
% V (V) @ t=0.5
0.0079042595229647
% es.normE (V/m) @ t=0.52
1.637905003356142
% es.EX (V/m) @ t=0.52
-0.5838034864688669
% es.EY (V/m) @ t=0.52
0.18547498076464208
% es.EZ (V/m) @ t=0.52
1.5143425375232105
% es.tEX (V/m) @ t=0.52
-0.583803486468874
% es.tEY (V/m) @ t=0.52
0
% es.tEZ (V/m) @ t=0.52
1.514342537523211
% es.Ex (V/m) @ t=0.52
-0.5838034864688669
% es.Ey (V/m) @ t=0.52
0.18547498076464208
% es.Ez (V/m) @ t=0.52
1.5143425375232105
% es.tEx (V/m) @ t=0.52
-0.583803486468874
% es.tEy (V/m) @ t=0.52
0
% es.tEz (V/m) @ t=0.52
1.514342537523211
% V (V) @ t=0.52
0.007974955652336921
% es.normE (V/m) @ t=0.54
1.652419620661309
% es.EX (V/m) @ t=0.54
-0.5889764596870433
% es.EY (V/m) @ t=0.54
0.1871186651247827
% es.EZ (V/m) @ t=0.54
1.5277623681319499
% es.tEX (V/m) @ t=0.54
-0.5889764596870504
% es.tEY (V/m) @ t=0.54
0
% es.tEZ (V/m) @ t=0.54
1.5277623681319472
% es.Ex (V/m) @ t=0.54
-0.5889764596870433
% es.Ey (V/m) @ t=0.54
0.1871186651247827
% es.Ez (V/m) @ t=0.54
1.5277623681319499
% es.tEx (V/m) @ t=0.54
-0.5889764596870504
% es.tEy (V/m) @ t=0.54
0
% es.tEz (V/m) @ t=0.54
1.5277623681319472
% V (V) @ t=0.54
0.008045651781709141
% es.normE (V/m) @ t=0.56
1.6682242413059667
% es.EX (V/m) @ t=0.56
-0.5946091228499218
% es.EY (V/m) @ t=0.56
0.1889084409333145
% es.EZ (V/m) @ t=0.56
1.5423749248293412
% es.tEX (V/m) @ t=0.56
-0.594609122849929
% es.tEY (V/m) @ t=0.56
0
% es.tEZ (V/m) @ t=0.56
1.5423749248293452
% es.Ex (V/m) @ t=0.56
-0.5946091228499218
% es.Ey (V/m) @ t=0.56
0.1889084409333145
% es.Ez (V/m) @ t=0.56
1.5423749248293412
% es.tEx (V/m) @ t=0.56
-0.594609122849929
% es.tEy (V/m) @ t=0.56
0
% es.tEz (V/m) @ t=0.56
1.5423749248293452
% V (V) @ t=0.56
0.008122634145655169
% es.normE (V/m) @ t=0.58
1.6844241892642766
% es.EX (V/m) @ t=0.58
-0.6003826600596217
% es.EY (V/m) @ t=0.58
0.19074298712191573
% es.EZ (V/m) @ t=0.58
1.557352997790026
% es.tEX (V/m) @ t=0.58
-0.6003826600596288
% es.tEY (V/m) @ t=0.58
0
% es.tEZ (V/m) @ t=0.58
1.5573529977900318
% es.Ex (V/m) @ t=0.58
-0.6003826600596217
% es.Ey (V/m) @ t=0.58
0.19074298712191573
% es.Ez (V/m) @ t=0.58
1.557352997790026
% es.tEx (V/m) @ t=0.58
-0.6003826600596288
% es.tEy (V/m) @ t=0.58
0
% es.tEz (V/m) @ t=0.58
1.5573529977900318
% V (V) @ t=0.58
0.008201542954401406
% es.normE (V/m) @ t=0.6
1.700624137222877
% es.EX (V/m) @ t=0.6
-0.6061561972693288
% es.EY (V/m) @ t=0.6
0.19257753331051763
% es.EZ (V/m) @ t=0.6
1.5723310707507143
% es.tEX (V/m) @ t=0.6
-0.6061561972693359
% es.tEY (V/m) @ t=0.6
0
% es.tEZ (V/m) @ t=0.6
1.5723310707507183
% es.Ex (V/m) @ t=0.6
-0.6061561972693288
% es.Ey (V/m) @ t=0.6
0.19257753331051763
% es.Ez (V/m) @ t=0.6
1.5723310707507143
% es.tEx (V/m) @ t=0.6
-0.6061561972693359
% es.tEy (V/m) @ t=0.6
0
% es.tEz (V/m) @ t=0.6
1.5723310707507183
% V (V) @ t=0.6
0.008280451763147642
% es.normE (V/m) @ t=0.62
1.7168240851817504
% es.EX (V/m) @ t=0.62
-0.611929734479043
% es.EY (V/m) @ t=0.62
0.19441207949911243
% es.EZ (V/m) @ t=0.62
1.5873091437113995
% es.tEX (V/m) @ t=0.62
-0.6119297344790501
% es.tEY (V/m) @ t=0.62
0
% es.tEZ (V/m) @ t=0.62
1.5873091437113986
% es.Ex (V/m) @ t=0.62
-0.611929734479043
% es.Ey (V/m) @ t=0.62
0.19441207949911243
% es.Ez (V/m) @ t=0.62
1.5873091437113995
% es.tEx (V/m) @ t=0.62
-0.6119297344790501
% es.tEy (V/m) @ t=0.62
0
% es.tEz (V/m) @ t=0.62
1.5873091437113986
% V (V) @ t=0.62
0.008359360571893877
% es.normE (V/m) @ t=0.64
1.733024033140887
% es.EX (V/m) @ t=0.64
-0.6177032716887499
% es.EY (V/m) @ t=0.64
0.19624662568772078
% es.EZ (V/m) @ t=0.64
1.6022872166720776
% es.tEX (V/m) @ t=0.64
-0.617703271688757
% es.tEY (V/m) @ t=0.64
0
% es.tEZ (V/m) @ t=0.64
1.6022872166720816
% es.Ex (V/m) @ t=0.64
-0.6177032716887499
% es.Ey (V/m) @ t=0.64
0.19624662568772078
% es.Ez (V/m) @ t=0.64
1.6022872166720776
% es.tEx (V/m) @ t=0.64
-0.617703271688757
% es.tEy (V/m) @ t=0.64
0
% es.tEz (V/m) @ t=0.64
1.6022872166720816
% V (V) @ t=0.64
0.008438269380640113
% es.normE (V/m) @ t=0.66
1.7492239811002939
% es.EX (V/m) @ t=0.66
-0.623476808898457
% es.EY (V/m) @ t=0.66
0.1980811718763138
% es.EZ (V/m) @ t=0.66
1.6172652896327686
% es.tEX (V/m) @ t=0.66
-0.6234768088984641
% es.tEY (V/m) @ t=0.66
0
% es.tEZ (V/m) @ t=0.66
1.6172652896327682
% es.Ex (V/m) @ t=0.66
-0.623476808898457
% es.Ey (V/m) @ t=0.66
0.1980811718763138
% es.Ez (V/m) @ t=0.66
1.6172652896327686
% es.tEx (V/m) @ t=0.66
-0.6234768088984641
% es.tEy (V/m) @ t=0.66
0
% es.tEz (V/m) @ t=0.66
1.6172652896327682
% V (V) @ t=0.66
0.008517178189386349
% es.normE (V/m) @ t=0.68
1.7654239290599456
% es.EX (V/m) @ t=0.68
-0.6292503461081606
% es.EY (V/m) @ t=0.68
0.19991571806490627
% es.EZ (V/m) @ t=0.68
1.6322433625934516
% es.tEX (V/m) @ t=0.68
-0.6292503461081712
% es.tEY (V/m) @ t=0.68
0
% es.tEZ (V/m) @ t=0.68
1.6322433625934547
% es.Ex (V/m) @ t=0.68
-0.6292503461081606
% es.Ey (V/m) @ t=0.68
0.19991571806490627
% es.Ez (V/m) @ t=0.68
1.6322433625934516
% es.tEx (V/m) @ t=0.68
-0.6292503461081712
% es.tEy (V/m) @ t=0.68
0
% es.tEz (V/m) @ t=0.68
1.6322433625934547
% V (V) @ t=0.68
0.008596086998132586
% es.normE (V/m) @ t=0.7
1.7816238770198485
% es.EX (V/m) @ t=0.7
-0.635023883317857
% es.EY (V/m) @ t=0.7
0.2017502642535136
% es.EZ (V/m) @ t=0.7
1.64722143555414
% es.tEX (V/m) @ t=0.7
-0.6350238833178712
% es.tEY (V/m) @ t=0.7
0
% es.tEZ (V/m) @ t=0.7
1.647221435554143
% es.Ex (V/m) @ t=0.7
-0.635023883317857
% es.Ey (V/m) @ t=0.7
0.2017502642535136
% es.Ez (V/m) @ t=0.7
1.64722143555414
% es.tEx (V/m) @ t=0.7
-0.6350238833178712
% es.tEy (V/m) @ t=0.7
0
% es.tEz (V/m) @ t=0.7
1.647221435554143
% V (V) @ t=0.7
0.00867499580687882
% es.normE (V/m) @ t=0.72
1.797823824979997
% es.EX (V/m) @ t=0.72
-0.640797420527571
% es.EY (V/m) @ t=0.72
0.20358481044211296
% es.EZ (V/m) @ t=0.72
1.6621995085148287
% es.tEX (V/m) @ t=0.72
-0.6407974205275782
% es.tEY (V/m) @ t=0.72
0
% es.tEZ (V/m) @ t=0.72
1.6621995085148287
% es.Ex (V/m) @ t=0.72
-0.640797420527571
% es.Ey (V/m) @ t=0.72
0.20358481044211296
% es.Ez (V/m) @ t=0.72
1.6621995085148287
% es.tEx (V/m) @ t=0.72
-0.6407974205275782
% es.tEy (V/m) @ t=0.72
0
% es.tEz (V/m) @ t=0.72
1.6621995085148287
% V (V) @ t=0.72
0.008753904615625056
% es.normE (V/m) @ t=0.74
1.814023772940369
% es.EX (V/m) @ t=0.74
-0.6465709577372817
% es.EY (V/m) @ t=0.74
0.20541935663070965
% es.EZ (V/m) @ t=0.74
1.6771775814755077
% es.tEX (V/m) @ t=0.74
-0.6465709577372923
% es.tEY (V/m) @ t=0.74
0
% es.tEZ (V/m) @ t=0.74
1.6771775814755134
% es.Ex (V/m) @ t=0.74
-0.6465709577372817
% es.Ey (V/m) @ t=0.74
0.20541935663070965
% es.Ez (V/m) @ t=0.74
1.6771775814755077
% es.tEx (V/m) @ t=0.74
-0.6465709577372923
% es.tEy (V/m) @ t=0.74
0
% es.tEz (V/m) @ t=0.74
1.6771775814755134
% V (V) @ t=0.74
0.008832813424371292
% es.normE (V/m) @ t=0.76
1.8302237209009808
% es.EX (V/m) @ t=0.76
-0.6523444949469852
% es.EY (V/m) @ t=0.76
0.207253902819315
% es.EZ (V/m) @ t=0.76
1.6921556544362013
% es.tEX (V/m) @ t=0.76
-0.6523444949469923
% es.tEY (V/m) @ t=0.76
0
% es.tEZ (V/m) @ t=0.76
1.6921556544362035
% es.Ex (V/m) @ t=0.76
-0.6523444949469852
% es.Ey (V/m) @ t=0.76
0.207253902819315
% es.Ez (V/m) @ t=0.76
1.6921556544362013
% es.tEx (V/m) @ t=0.76
-0.6523444949469923
% es.tEy (V/m) @ t=0.76
0
% es.tEz (V/m) @ t=0.76
1.6921556544362035
% V (V) @ t=0.76
0.008911722233117527
% es.normE (V/m) @ t=0.78
1.8464236688617979
% es.EX (V/m) @ t=0.78
-0.6581180321566886
% es.EY (V/m) @ t=0.78
0.2090884490079068
% es.EZ (V/m) @ t=0.78
1.7071337273968799
% es.tEX (V/m) @ t=0.78
-0.6581180321566993
% es.tEY (V/m) @ t=0.78
0
% es.tEZ (V/m) @ t=0.78
1.7071337273968812
% es.Ex (V/m) @ t=0.78
-0.6581180321566886
% es.Ey (V/m) @ t=0.78
0.2090884490079068
% es.Ez (V/m) @ t=0.78
1.7071337273968799
% es.tEx (V/m) @ t=0.78
-0.6581180321566993
% es.tEy (V/m) @ t=0.78
0
% es.tEz (V/m) @ t=0.78
1.7071337273968812
% V (V) @ t=0.78
0.008990631041863765
% es.normE (V/m) @ t=0.8
1.862623616822844
% es.EX (V/m) @ t=0.8
-0.6638915693664064
% es.EY (V/m) @ t=0.8
0.21092299519649815
% es.EZ (V/m) @ t=0.8
1.7221118003575673
% es.tEX (V/m) @ t=0.8
-0.6638915693664206
% es.tEY (V/m) @ t=0.8
0
% es.tEZ (V/m) @ t=0.8
1.7221118003575695
% es.Ex (V/m) @ t=0.8
-0.6638915693664064
% es.Ey (V/m) @ t=0.8
0.21092299519649815
% es.Ez (V/m) @ t=0.8
1.7221118003575673
% es.tEx (V/m) @ t=0.8
-0.6638915693664206
% es.tEy (V/m) @ t=0.8
0
% es.tEz (V/m) @ t=0.8
1.7221118003575695
% V (V) @ t=0.8
0.009069539850609999
% es.normE (V/m) @ t=0.82
1.879113261749162
% es.EX (V/m) @ t=0.82
-0.6697687985675673
% es.EY (V/m) @ t=0.82
0.21279029500631985
% es.EZ (V/m) @ t=0.82
1.7373575588467003
% es.tEX (V/m) @ t=0.82
-0.6697687985675851
% es.tEY (V/m) @ t=0.82
0
% es.tEZ (V/m) @ t=0.82
1.737357558846698
% es.Ex (V/m) @ t=0.82
-0.6697687985675673
% es.Ey (V/m) @ t=0.82
0.21279029500631985
% es.Ez (V/m) @ t=0.82
1.7373575588467003
% es.tEx (V/m) @ t=0.82
-0.6697687985675851
% es.tEy (V/m) @ t=0.82
0
% es.tEz (V/m) @ t=0.82
1.737357558846698
% V (V) @ t=0.82
0.009149838584367383
% es.normE (V/m) @ t=0.84
1.8972050391448076
% es.EX (V/m) @ t=0.84
-0.6762194832279451
% es.EY (V/m) @ t=0.84
0.21483873458039415
% es.EZ (V/m) @ t=0.84
1.7540837183337779
% es.tEX (V/m) @ t=0.84
-0.6762194832279593
% es.tEY (V/m) @ t=0.84
0
% es.tEZ (V/m) @ t=0.84
1.7540837183337796
% es.Ex (V/m) @ t=0.84
-0.6762194832279451
% es.Ey (V/m) @ t=0.84
0.21483873458039415
% es.Ez (V/m) @ t=0.84
1.7540837183337779
% es.tEx (V/m) @ t=0.84
-0.6762194832279593
% es.tEy (V/m) @ t=0.84
0
% es.tEz (V/m) @ t=0.84
1.7540837183337796
% V (V) @ t=0.84
0.009237824122807464
% es.normE (V/m) @ t=0.86
1.9152968165435351
% es.EX (V/m) @ t=0.86
-0.6826701678883191
% es.EY (V/m) @ t=0.86
0.2168871741544769
% es.EZ (V/m) @ t=0.86
1.7708098778208567
% es.tEX (V/m) @ t=0.86
-0.6826701678883262
% es.tEY (V/m) @ t=0.86
0
% es.tEZ (V/m) @ t=0.86
1.7708098778208612
% es.Ex (V/m) @ t=0.86
-0.6826701678883191
% es.Ey (V/m) @ t=0.86
0.2168871741544769
% es.Ez (V/m) @ t=0.86
1.7708098778208567
% es.tEx (V/m) @ t=0.86
-0.6826701678883262
% es.tEy (V/m) @ t=0.86
0
% es.tEz (V/m) @ t=0.86
1.7708098778208612
% V (V) @ t=0.86
0.009325809661247549
% es.normE (V/m) @ t=0.88
1.9333885939452595
% es.EX (V/m) @ t=0.88
-0.6891208525487039
% es.EY (V/m) @ t=0.88
0.2189356137285492
% es.EZ (V/m) @ t=0.88
1.7875360373079348
% es.tEX (V/m) @ t=0.88
-0.6891208525487146
% es.tEY (V/m) @ t=0.88
0
% es.tEZ (V/m) @ t=0.88
1.7875360373079392
% es.Ex (V/m) @ t=0.88
-0.6891208525487039
% es.Ey (V/m) @ t=0.88
0.2189356137285492
% es.Ez (V/m) @ t=0.88
1.7875360373079348
% es.tEx (V/m) @ t=0.88
-0.6891208525487146
% es.tEy (V/m) @ t=0.88
0
% es.tEz (V/m) @ t=0.88
1.7875360373079392
% V (V) @ t=0.88
0.009413795199687632
% es.normE (V/m) @ t=0.9
1.9514803713498972
% es.EX (V/m) @ t=0.9
-0.6955715372090818
% es.EY (V/m) @ t=0.9
0.22098405330263948
% es.EZ (V/m) @ t=0.9
1.8042621967950145
% es.tEX (V/m) @ t=0.9
-0.6955715372090889
% es.tEY (V/m) @ t=0.9
0
% es.tEZ (V/m) @ t=0.9
1.8042621967950154
% es.Ex (V/m) @ t=0.9
-0.6955715372090818
% es.Ey (V/m) @ t=0.9
0.22098405330263948
% es.Ez (V/m) @ t=0.9
1.8042621967950145
% es.tEx (V/m) @ t=0.9
-0.6955715372090889
% es.tEy (V/m) @ t=0.9
0
% es.tEz (V/m) @ t=0.9
1.8042621967950154
% V (V) @ t=0.9
0.009501780738127713
% es.normE (V/m) @ t=0.92
1.9695721487573556
% es.EX (V/m) @ t=0.92
-0.7020222218694488
% es.EY (V/m) @ t=0.92
0.22303249287671068
% es.EZ (V/m) @ t=0.92
1.8209883562820908
% es.tEX (V/m) @ t=0.92
-0.7020222218694631
% es.tEY (V/m) @ t=0.92
0
% es.tEZ (V/m) @ t=0.92
1.820988356282088
% es.Ex (V/m) @ t=0.92
-0.7020222218694488
% es.Ey (V/m) @ t=0.92
0.22303249287671068
% es.Ez (V/m) @ t=0.92
1.8209883562820908
% es.tEx (V/m) @ t=0.92
-0.7020222218694631
% es.tEy (V/m) @ t=0.92
0
% es.tEz (V/m) @ t=0.92
1.820988356282088
% V (V) @ t=0.92
0.009589766276567794
% es.normE (V/m) @ t=0.94
1.9876639261675741
% es.EX (V/m) @ t=0.94
-0.7084729065298372
% es.EY (V/m) @ t=0.94
0.22508093245078387
% es.EZ (V/m) @ t=0.94
1.8377145157691643
% es.tEX (V/m) @ t=0.94
-0.7084729065298514
% es.tEY (V/m) @ t=0.94
0
% es.tEZ (V/m) @ t=0.94
1.8377145157691661
% es.Ex (V/m) @ t=0.94
-0.7084729065298372
% es.Ey (V/m) @ t=0.94
0.22508093245078387
% es.Ez (V/m) @ t=0.94
1.8377145157691643
% es.tEx (V/m) @ t=0.94
-0.7084729065298514
% es.tEy (V/m) @ t=0.94
0
% es.tEz (V/m) @ t=0.94
1.8377145157691661
% V (V) @ t=0.94
0.009677751815007877
% es.normE (V/m) @ t=0.96
2.005755703580475
% es.EX (V/m) @ t=0.96
-0.7149235911902149
% es.EY (V/m) @ t=0.96
0.22712937202486416
% es.EZ (V/m) @ t=0.96
1.8544406752562441
% es.tEX (V/m) @ t=0.96
-0.7149235911902255
% es.tEY (V/m) @ t=0.96
0
% es.tEZ (V/m) @ t=0.96
1.8544406752562406
% es.Ex (V/m) @ t=0.96
-0.7149235911902149
% es.Ey (V/m) @ t=0.96
0.22712937202486416
% es.Ez (V/m) @ t=0.96
1.8544406752562441
% es.tEx (V/m) @ t=0.96
-0.7149235911902255
% es.tEy (V/m) @ t=0.96
0
% es.tEz (V/m) @ t=0.96
1.8544406752562406
% V (V) @ t=0.96
0.00976573735344796
% es.normE (V/m) @ t=0.98
2.0238474809959848
% es.EX (V/m) @ t=0.98
-0.7213742758505961
% es.EY (V/m) @ t=0.98
0.22917781159894357
% es.EZ (V/m) @ t=0.98
1.8711668347433248
% es.tEX (V/m) @ t=0.98
-0.7213742758505997
% es.tEY (V/m) @ t=0.98
0
% es.tEZ (V/m) @ t=0.98
1.871166834743324
% es.Ex (V/m) @ t=0.98
-0.7213742758505961
% es.Ey (V/m) @ t=0.98
0.22917781159894357
% es.Ez (V/m) @ t=0.98
1.8711668347433248
% es.tEx (V/m) @ t=0.98
-0.7213742758505997
% es.tEy (V/m) @ t=0.98
0
% es.tEz (V/m) @ t=0.98
1.871166834743324
% V (V) @ t=0.98
0.009853722891888041
% es.normE (V/m) @ t=1
2.0419392584140232
% es.EX (V/m) @ t=1
-0.7278249605109668
% es.EY (V/m) @ t=1
0.23122625117301854
% es.EZ (V/m) @ t=1
1.8878929942303992
% es.tEX (V/m) @ t=1
-0.7278249605109739
% es.tEY (V/m) @ t=1
0
% es.tEZ (V/m) @ t=1
1.8878929942303984
% es.Ex (V/m) @ t=1
-0.7278249605109668
% es.Ey (V/m) @ t=1
0.23122625117301854
% es.Ez (V/m) @ t=1
1.8878929942303992
% es.tEx (V/m) @ t=1
-0.7278249605109739
% es.tEy (V/m) @ t=1
0
% es.tEz (V/m) @ t=1
1.8878929942303984
% V (V) @ t=1
0.009941708430328124
% es.normE (V/m) @ t=1.02
2.060031035834543
% es.EX (V/m) @ t=1.02
-0.7342756451713551
% es.EY (V/m) @ t=1.02
0.23327469074709173
% es.EZ (V/m) @ t=1.02
1.904619153717479
% es.tEX (V/m) @ t=1.02
-0.7342756451713622
% es.tEY (V/m) @ t=1.02
0
% es.tEZ (V/m) @ t=1.02
1.90461915371748
% es.Ex (V/m) @ t=1.02
-0.7342756451713551
% es.Ey (V/m) @ t=1.02
0.23327469074709173
% es.Ez (V/m) @ t=1.02
1.904619153717479
% es.tEx (V/m) @ t=1.02
-0.7342756451713622
% es.tEy (V/m) @ t=1.02
0
% es.tEz (V/m) @ t=1.02
1.90461915371748
% V (V) @ t=1.02
0.010029693968768209
% es.normE (V/m) @ t=1.04
2.0781228132574663
% es.EX (V/m) @ t=1.04
-0.7407263298317364
% es.EY (V/m) @ t=1.04
0.23532313032118535
% es.EZ (V/m) @ t=1.04
1.9213453132045535
% es.tEX (V/m) @ t=1.04
-0.7407263298317506