% Model:              1 neuron.mph
% Version:            COMSOL 6.0.0.405
% Date:               Mar 16 2023, 17:25
% Dimension:          0
% Nodes:              14017
% Expressions:        14017
% Description:        Electric field norm, Electric field, X component, Electric field, Y component, Electric field, Z component, Tangential electric field, X component, Tangential electric field, Y component, Tangential electric field, Z component, Electric field, x component, Electric field, y component, Electric field, z component, Tangential electric field, x component, Tangential electric field, y component, Tangential electric field, z component, Electric potential
% Length unit:        mm
% x
2
% y
12.2
% z
1.33
% es.normE (V/m) @ t=0
1.322674566358374
% es.EX (V/m) @ t=0
-1.2165656130333473
% es.EY (V/m) @ t=0
0.09490028841722092
% es.EZ (V/m) @ t=0
0.5087919806642176
% es.tEX (V/m) @ t=0
-1.2165656130333415
% es.tEY (V/m) @ t=0
0
% es.tEZ (V/m) @ t=0
0.5087919806642169
% es.Ex (V/m) @ t=0
-1.2165656130333473
% es.Ey (V/m) @ t=0
0.09490028841722092
% es.Ez (V/m) @ t=0
0.5087919806642176
% es.tEx (V/m) @ t=0
-1.2165656130333415
% es.tEy (V/m) @ t=0
0
% es.tEz (V/m) @ t=0
0.5087919806642169
% V (V) @ t=0
0.00738476091238992
% es.normE (V/m) @ t=0.02
1.1424186851758966
% es.EX (V/m) @ t=0.02
-1.0507704035613599
% es.EY (V/m) @ t=0.02
0.08196714897649965
% es.EZ (V/m) @ t=0.02
0.43945312080274607
% es.tEX (V/m) @ t=0.02
-1.0507704035613559
% es.tEY (V/m) @ t=0.02
0
% es.tEZ (V/m) @ t=0.02
0.4394531208027477
% es.Ex (V/m) @ t=0.02
-1.0507704035613599
% es.Ey (V/m) @ t=0.02
0.08196714897649965
% es.Ez (V/m) @ t=0.02
0.43945312080274607
% es.tEx (V/m) @ t=0.02
-1.0507704035613559
% es.tEy (V/m) @ t=0.02
0
% es.tEz (V/m) @ t=0.02
0.4394531208027477
% V (V) @ t=0.02
0.0063783556820046754
% es.normE (V/m) @ t=0.04
1.152925861241696
% es.EX (V/m) @ t=0.04
-1.0604346616026108
% es.EY (V/m) @ t=0.04
0.08272102760313843
% es.EZ (V/m) @ t=0.04
0.4434949075512135
% es.tEX (V/m) @ t=0.04
-1.060434661602609
% es.tEY (V/m) @ t=0.04
0
% es.tEZ (V/m) @ t=0.04
0.4434949075512087
% es.Ex (V/m) @ t=0.04
-1.0604346616026108
% es.Ey (V/m) @ t=0.04
0.08272102760313843
% es.Ez (V/m) @ t=0.04
0.4434949075512135
% es.tEx (V/m) @ t=0.04
-1.060434661602609
% es.tEy (V/m) @ t=0.04
0
% es.tEz (V/m) @ t=0.04
0.4434949075512087
% V (V) @ t=0.04
0.006437019333239453
% es.normE (V/m) @ t=0.06
1.1635281183960053
% es.EX (V/m) @ t=0.06
-1.070186371845395
% es.EY (V/m) @ t=0.06
0.08348173128312197
% es.EZ (V/m) @ t=0.06
0.4475732715346353
% es.tEX (V/m) @ t=0.06
-1.0701863718453914
% es.tEY (V/m) @ t=0.06
0
% es.tEZ (V/m) @ t=0.06
0.4475732715346403
% es.Ex (V/m) @ t=0.06
-1.070186371845395
% es.Ey (V/m) @ t=0.06
0.08348173128312197
% es.Ez (V/m) @ t=0.06
0.4475732715346353
% es.tEx (V/m) @ t=0.06
-1.0701863718453914
% es.tEy (V/m) @ t=0.06
0
% es.tEz (V/m) @ t=0.06
0.4475732715346403
% V (V) @ t=0.06
0.006496213744420944
% es.normE (V/m) @ t=0.08
1.174291362072231
% es.EX (V/m) @ t=0.08
-1.0800861550653411
% es.EY (V/m) @ t=0.08
0.0842539822784159
% es.EZ (V/m) @ t=0.08
0.4517135593840797
% es.tEX (V/m) @ t=0.08
-1.0800861550653362
% es.tEY (V/m) @ t=0.08
0
% es.tEZ (V/m) @ t=0.08
0.451713559384082
% es.Ex (V/m) @ t=0.08
-1.0800861550653411
% es.Ey (V/m) @ t=0.08
0.0842539822784159
% es.Ez (V/m) @ t=0.08
0.4517135593840797
% es.tEx (V/m) @ t=0.08
-1.0800861550653362
% es.tEy (V/m) @ t=0.08
0
% es.tEz (V/m) @ t=0.08
0.451713559384082
% V (V) @ t=0.08
0.006556307078887787
% es.normE (V/m) @ t=0.1
1.1851683346422002
% es.EX (V/m) @ t=0.1
-1.0900905444081204
% es.EY (V/m) @ t=0.1
0.08503439087212783
% es.EZ (V/m) @ t=0.1
0.45589759333534224
% es.tEX (V/m) @ t=0.1
-1.0900905444081141
% es.tEY (V/m) @ t=0.1
0
% es.tEZ (V/m) @ t=0.1
0.45589759333533664
% es.Ex (V/m) @ t=0.1
-1.0900905444081204
% es.Ey (V/m) @ t=0.1
0.08503439087212783
% es.Ez (V/m) @ t=0.1
0.45589759333534224
% es.tEx (V/m) @ t=0.1
-1.0900905444081141
% es.tEy (V/m) @ t=0.1
0
% es.tEz (V/m) @ t=0.1
0.45589759333533664
% V (V) @ t=0.1
0.00661703545751604
% es.normE (V/m) @ t=0.12
1.1960453072121695
% es.EX (V/m) @ t=0.12
-1.1000949337509005
% es.EY (V/m) @ t=0.12
0.08581479946584414
% es.EZ (V/m) @ t=0.12
0.46008162728660135
% es.tEX (V/m) @ t=0.12
-1.1000949337508992
% es.tEY (V/m) @ t=0.12
0
% es.tEZ (V/m) @ t=0.12
0.46008162728660196
% es.Ex (V/m) @ t=0.12
-1.1000949337509005
% es.Ey (V/m) @ t=0.12
0.08581479946584414
% es.Ez (V/m) @ t=0.12
0.46008162728660135
% es.tEx (V/m) @ t=0.12
-1.1000949337508992
% es.tEy (V/m) @ t=0.12
0
% es.tEz (V/m) @ t=0.12
0.46008162728660196
% V (V) @ t=0.12
0.006677763836144292
% es.normE (V/m) @ t=0.14
1.2070280328151037
% es.EX (V/m) @ t=0.14
-1.110196592101309
% es.EY (V/m) @ t=0.14
0.0866027961563447
% es.EZ (V/m) @ t=0.14
0.4643063415751957
% es.tEX (V/m) @ t=0.14
-1.110196592101305
% es.tEY (V/m) @ t=0.14
0
% es.tEZ (V/m) @ t=0.14
0.46430634157519535
% es.Ex (V/m) @ t=0.14
-1.110196592101309
% es.Ey (V/m) @ t=0.14
0.0866027961563447
% es.Ez (V/m) @ t=0.14
0.4643063415751957
% es.tEx (V/m) @ t=0.14
-1.110196592101305
% es.tEy (V/m) @ t=0.14
0
% es.tEz (V/m) @ t=0.14
0.46430634157519535
% V (V) @ t=0.14
0.0067390826406612606
% es.normE (V/m) @ t=0.16
1.218486076729698
% es.EX (V/m) @ t=0.16
-1.1207354364045536
% es.EY (V/m) @ t=0.16
0.08742489835905737
% es.EZ (V/m) @ t=0.16
0.46871389798867896
% es.tEX (V/m) @ t=0.16
-1.120735436404547
% es.tEY (V/m) @ t=0.16
0
% es.tEZ (V/m) @ t=0.16
0.46871389798867824
% es.Ex (V/m) @ t=0.16
-1.1207354364045536
% es.Ey (V/m) @ t=0.16
0.08742489835905737
% es.Ez (V/m) @ t=0.16
0.46871389798867896
% es.tEx (V/m) @ t=0.16
-1.120735436404547
% es.tEy (V/m) @ t=0.16
0
% es.tEz (V/m) @ t=0.16
0.46871389798867824
% V (V) @ t=0.16
0.0068030551774516295
% es.normE (V/m) @ t=0.18
1.2299441206442954
% es.EX (V/m) @ t=0.18
-1.1312742807078018
% es.EY (V/m) @ t=0.18
0.08824700056175933
% es.EZ (V/m) @ t=0.18
0.4731214544021624
% es.tEX (V/m) @ t=0.18
-1.131274280707797
% es.tEY (V/m) @ t=0.18
0
% es.tEZ (V/m) @ t=0.18
0.4731214544021647
% es.Ex (V/m) @ t=0.18
-1.1312742807078018
% es.Ey (V/m) @ t=0.18
0.08824700056175933
% es.Ez (V/m) @ t=0.18
0.4731214544021624
% es.tEx (V/m) @ t=0.18
-1.131274280707797
% es.tEy (V/m) @ t=0.18
0
% es.tEz (V/m) @ t=0.18
0.4731214544021647
% V (V) @ t=0.18
0.006867027714241999
% es.normE (V/m) @ t=0.2
1.2414021645588922
% es.EX (V/m) @ t=0.2
-1.1418131250110504
% es.EY (V/m) @ t=0.2
0.08906910276447016
% es.EZ (V/m) @ t=0.2
0.4775290108156422
% es.tEX (V/m) @ t=0.2
-1.1418131250110477
% es.tEY (V/m) @ t=0.2
0
% es.tEZ (V/m) @ t=0.2
0.47752901081564403
% es.Ex (V/m) @ t=0.2
-1.1418131250110504
% es.Ey (V/m) @ t=0.2
0.08906910276447016
% es.Ez (V/m) @ t=0.2
0.4775290108156422
% es.tEx (V/m) @ t=0.2
-1.1418131250110477
% es.tEy (V/m) @ t=0.2
0
% es.tEz (V/m) @ t=0.2
0.47752901081564403
% V (V) @ t=0.2
0.006931000251032368
% es.normE (V/m) @ t=0.22
1.2528602084734959
% es.EX (V/m) @ t=0.22
-1.152351969314303
% es.EY (V/m) @ t=0.22
0.08989120496718556
% es.EZ (V/m) @ t=0.22
0.4819365672291281
% es.tEX (V/m) @ t=0.22
-1.1523519693142976
% es.tEY (V/m) @ t=0.22
0
% es.tEZ (V/m) @ t=0.22
0.4819365672291305
% es.Ex (V/m) @ t=0.22
-1.152351969314303
% es.Ey (V/m) @ t=0.22
0.08989120496718556
% es.Ez (V/m) @ t=0.22
0.4819365672291281
% es.tEx (V/m) @ t=0.22
-1.1523519693142976
% es.tEy (V/m) @ t=0.22
0
% es.tEz (V/m) @ t=0.22
0.4819365672291305
% V (V) @ t=0.22
0.006994972787822737
% es.normE (V/m) @ t=0.24
1.2643182523880907
% es.EX (V/m) @ t=0.24
-1.1628908136175498
% es.EY (V/m) @ t=0.24
0.09071330716989107
% es.EZ (V/m) @ t=0.24
0.4863441236426079
% es.tEX (V/m) @ t=0.24
-1.162890813617544
% es.tEY (V/m) @ t=0.24
0
% es.tEZ (V/m) @ t=0.24
0.4863441236426027
% es.Ex (V/m) @ t=0.24
-1.1628908136175498
% es.Ey (V/m) @ t=0.24
0.09071330716989107
% es.Ez (V/m) @ t=0.24
0.4863441236426079
% es.tEx (V/m) @ t=0.24
-1.162890813617544
% es.tEy (V/m) @ t=0.24
0
% es.tEz (V/m) @ t=0.24
0.4863441236426027
% V (V) @ t=0.24
0.007058945324613106
% es.normE (V/m) @ t=0.26
1.2757762963026889
% es.EX (V/m) @ t=0.26
-1.1734296579207961
% es.EY (V/m) @ t=0.26
0.09153540937259658
% es.EZ (V/m) @ t=0.26
0.4907516800560983
% es.tEX (V/m) @ t=0.26
-1.173429657920793
% es.tEY (V/m) @ t=0.26
0
% es.tEZ (V/m) @ t=0.26
0.4907516800560998
% es.Ex (V/m) @ t=0.26
-1.1734296579207961
% es.Ey (V/m) @ t=0.26
0.09153540937259658
% es.Ez (V/m) @ t=0.26
0.4907516800560983
% es.tEx (V/m) @ t=0.26
-1.173429657920793
% es.tEy (V/m) @ t=0.26
0
% es.tEz (V/m) @ t=0.26
0.4907516800560998
% V (V) @ t=0.26
0.007122917861403475
% es.normE (V/m) @ t=0.28
1.2877232021596354
% es.EX (V/m) @ t=0.28
-1.184418149915425
% es.EY (V/m) @ t=0.28
0.0923925788018174
% es.EZ (V/m) @ t=0.28
0.4953472785836341
% es.tEX (V/m) @ t=0.28
-1.1844181499154178
% es.tEY (V/m) @ t=0.28
0
% es.tEZ (V/m) @ t=0.28
0.49534727858363325
% es.Ex (V/m) @ t=0.28
-1.184418149915425
% es.Ey (V/m) @ t=0.28
0.0923925788018174
% es.Ez (V/m) @ t=0.28
0.4953472785836341
% es.tEx (V/m) @ t=0.28
-1.1844181499154178
% es.tEy (V/m) @ t=0.28
0
% es.tEz (V/m) @ t=0.28
0.49534727858363325
% V (V) @ t=0.28
0.00718962009052431
% es.normE (V/m) @ t=0.3
1.3004884824649352
% es.EX (V/m) @ t=0.3
-1.196159370133524
% es.EY (V/m) @ t=0.3
0.09330845217107364
% es.EZ (V/m) @ t=0.3
0.5002576671326953
% es.tEX (V/m) @ t=0.3
-1.1961593701335183
% es.tEY (V/m) @ t=0.3
0
% es.tEZ (V/m) @ t=0.3
0.5002576671326935
% es.Ex (V/m) @ t=0.3
-1.196159370133524
% es.Ey (V/m) @ t=0.3
0.09330845217107364
% es.Ez (V/m) @ t=0.3
0.5002576671326953
% es.tEx (V/m) @ t=0.3
-1.1961593701335183
% es.tEy (V/m) @ t=0.3
0
% es.tEz (V/m) @ t=0.3
0.5002576671326935
% V (V) @ t=0.3
0.007260891933807441
% es.normE (V/m) @ t=0.32
1.3132537627702354
% es.EX (V/m) @ t=0.32
-1.207900590351625
% es.EY (V/m) @ t=0.32
0.09422432554032723
% es.EZ (V/m) @ t=0.32
0.5051680556817544
% es.tEX (V/m) @ t=0.32
-1.207900590351625
% es.tEY (V/m) @ t=0.32
0
% es.tEZ (V/m) @ t=0.32
0.5051680556817537
% es.Ex (V/m) @ t=0.32
-1.207900590351625
% es.Ey (V/m) @ t=0.32
0.09422432554032723
% es.Ez (V/m) @ t=0.32
0.5051680556817544
% es.tEx (V/m) @ t=0.32
-1.207900590351625
% es.tEy (V/m) @ t=0.32
0
% es.tEz (V/m) @ t=0.32
0.5051680556817537
% V (V) @ t=0.32
0.007332163777090571
% es.normE (V/m) @ t=0.34
1.326019043075535
% es.EX (V/m) @ t=0.34
-1.219641810569724
% es.EY (V/m) @ t=0.34
0.09514019890957293
% es.EZ (V/m) @ t=0.34
0.5100784442308153
% es.tEX (V/m) @ t=0.34
-1.2196418105697164
% es.tEY (V/m) @ t=0.34
0
% es.tEZ (V/m) @ t=0.34
0.5100784442308139
% es.Ex (V/m) @ t=0.34
-1.219641810569724
% es.Ey (V/m) @ t=0.34
0.09514019890957293
% es.Ez (V/m) @ t=0.34
0.5100784442308153
% es.tEx (V/m) @ t=0.34
-1.2196418105697164
% es.tEy (V/m) @ t=0.34
0
% es.tEz (V/m) @ t=0.34
0.5100784442308139
% V (V) @ t=0.34
0.007403435620373703
% es.normE (V/m) @ t=0.36
1.3387843233808319
% es.EX (V/m) @ t=0.36
-1.23138303078782
% es.EY (V/m) @ t=0.36
0.09605607227882296
% es.EZ (V/m) @ t=0.36
0.514988832779872
% es.tEX (V/m) @ t=0.36
-1.2313830307878169
% es.tEY (V/m) @ t=0.36
0
% es.tEZ (V/m) @ t=0.36
0.5149888327798742
% es.Ex (V/m) @ t=0.36
-1.23138303078782
% es.Ey (V/m) @ t=0.36
0.09605607227882296
% es.Ez (V/m) @ t=0.36
0.514988832779872
% es.tEx (V/m) @ t=0.36
-1.2313830307878169
% es.tEy (V/m) @ t=0.36
0
% es.tEz (V/m) @ t=0.36
0.5149888327798742
% V (V) @ t=0.36
0.007474707463656834
% es.normE (V/m) @ t=0.38
1.351549603686141
% es.EX (V/m) @ t=0.38
-1.2431242510059226
% es.EY (V/m) @ t=0.38
0.09697194564807476
% es.EZ (V/m) @ t=0.38
0.5198992213289426
% es.tEX (V/m) @ t=0.38
-1.2431242510059155
% es.tEY (V/m) @ t=0.38
0
% es.tEZ (V/m) @ t=0.38
0.5198992213289415
% es.Ex (V/m) @ t=0.38
-1.2431242510059226
% es.Ey (V/m) @ t=0.38
0.09697194564807476
% es.Ez (V/m) @ t=0.38
0.5198992213289426
% es.tEx (V/m) @ t=0.38
-1.2431242510059155
% es.tEy (V/m) @ t=0.38
0
% es.tEz (V/m) @ t=0.38
0.5198992213289415
% V (V) @ t=0.38
0.007545979306939964
% es.normE (V/m) @ t=0.4
1.3643148839914363
% es.EX (V/m) @ t=0.4
-1.25486547122402
% es.EY (V/m) @ t=0.4
0.09788781901732307
% es.EZ (V/m) @ t=0.4
0.5248096098779893
% es.tEX (V/m) @ t=0.4
-1.2548654712240124
% es.tEY (V/m) @ t=0.4
0
% es.tEZ (V/m) @ t=0.4
0.5248096098779875
% es.Ex (V/m) @ t=0.4
-1.25486547122402
% es.Ey (V/m) @ t=0.4
0.09788781901732307
% es.Ez (V/m) @ t=0.4
0.5248096098779893
% es.tEx (V/m) @ t=0.4
-1.2548654712240124
% es.tEy (V/m) @ t=0.4
0
% es.tEz (V/m) @ t=0.4
0.5248096098779875
% V (V) @ t=0.4
0.007617251150223095
% es.normE (V/m) @ t=0.42
1.3770801642967399
% es.EX (V/m) @ t=0.42
-1.266606691442119
% es.EY (V/m) @ t=0.42
0.09880369238656778
% es.EZ (V/m) @ t=0.42
0.5297199984270522
% es.tEX (V/m) @ t=0.42
-1.266606691442112
% es.tEY (V/m) @ t=0.42
0
% es.tEZ (V/m) @ t=0.42
0.5297199984270513
% es.Ex (V/m) @ t=0.42
-1.266606691442119
% es.Ey (V/m) @ t=0.42
0.09880369238656778
% es.Ez (V/m) @ t=0.42
0.5297199984270522
% es.tEx (V/m) @ t=0.42
-1.266606691442112
% es.tEy (V/m) @ t=0.42
0
% es.tEz (V/m) @ t=0.42
0.5297199984270513
% V (V) @ t=0.42
0.007688522993506227
% es.normE (V/m) @ t=0.44
1.389845444602048
% es.EX (V/m) @ t=0.44
-1.2783479116602177
% es.EY (V/m) @ t=0.44
0.0997195657558223
% es.EZ (V/m) @ t=0.44
0.5346303869761229
% es.tEX (V/m) @ t=0.44
-1.278347911660215
% es.tEY (V/m) @ t=0.44
0
% es.tEZ (V/m) @ t=0.44
0.5346303869761186
% es.Ex (V/m) @ t=0.44
-1.2783479116602177
% es.Ey (V/m) @ t=0.44
0.0997195657558223
% es.Ez (V/m) @ t=0.44
0.5346303869761229
% es.tEx (V/m) @ t=0.44
-1.278347911660215
% es.tEy (V/m) @ t=0.44
0
% es.tEz (V/m) @ t=0.44
0.5346303869761186
% V (V) @ t=0.44
0.007759794836789357
% es.normE (V/m) @ t=0.46
1.4026107249073445
% es.EX (V/m) @ t=0.46
-1.29008913187831
% es.EY (V/m) @ t=0.46
0.10063543912507589
% es.EZ (V/m) @ t=0.46
0.539540775525176
% es.tEX (V/m) @ t=0.46
-1.2900891318783039
% es.tEY (V/m) @ t=0.46
0
% es.tEZ (V/m) @ t=0.46
0.5395407755251718
% es.Ex (V/m) @ t=0.46
-1.29008913187831
% es.Ey (V/m) @ t=0.46
0.10063543912507589
% es.Ez (V/m) @ t=0.46
0.539540775525176
% es.tEx (V/m) @ t=0.46
-1.2900891318783039
% es.tEy (V/m) @ t=0.46
0
% es.tEz (V/m) @ t=0.46
0.5395407755251718
% V (V) @ t=0.46
0.007831066680072487
% es.normE (V/m) @ t=0.48
1.4153760052126494
% es.EX (V/m) @ t=0.48
-1.3018303520964105
% es.EY (V/m) @ t=0.48
0.10155131249431443
% es.EZ (V/m) @ t=0.48
0.5444511640742342
% es.tEX (V/m) @ t=0.48
-1.3018303520964025
% es.tEY (V/m) @ t=0.48
0
% es.tEZ (V/m) @ t=0.48
0.544451164074232
% es.Ex (V/m) @ t=0.48
-1.3018303520964105
% es.Ey (V/m) @ t=0.48
0.10155131249431443
% es.Ez (V/m) @ t=0.48
0.5444511640742342
% es.tEx (V/m) @ t=0.48
-1.3018303520964025
% es.tEy (V/m) @ t=0.48
0
% es.tEz (V/m) @ t=0.48
0.544451164074232
% V (V) @ t=0.48
0.00790233852335562
% es.normE (V/m) @ t=0.5
1.4281412855179583
% es.EX (V/m) @ t=0.5
-1.3135715723145136
% es.EY (V/m) @ t=0.5
0.10246718586357423
% es.EZ (V/m) @ t=0.5
0.5493615526232907
% es.tEX (V/m) @ t=0.5
-1.3135715723145074
% es.tEY (V/m) @ t=0.5
0
% es.tEZ (V/m) @ t=0.5
0.5493615526232922
% es.Ex (V/m) @ t=0.5
-1.3135715723145136
% es.Ey (V/m) @ t=0.5
0.10246718586357423
% es.Ez (V/m) @ t=0.5
0.5493615526232907
% es.tEx (V/m) @ t=0.5
-1.3135715723145074
% es.tEy (V/m) @ t=0.5
0
% es.tEz (V/m) @ t=0.5
0.5493615526232922
% V (V) @ t=0.5
0.00797361036663875
% es.normE (V/m) @ t=0.52
1.4409065658232645
% es.EX (V/m) @ t=0.52
-1.3253127925326078
% es.EY (V/m) @ t=0.52
0.10338305923283231
% es.EZ (V/m) @ t=0.52
0.5542719411723598
% es.tEX (V/m) @ t=0.52
-1.3253127925326016
% es.tEY (V/m) @ t=0.52
0
% es.tEZ (V/m) @ t=0.52
0.554271941172356
% es.Ex (V/m) @ t=0.52
-1.3253127925326078
% es.Ey (V/m) @ t=0.52
0.10338305923283231
% es.Ez (V/m) @ t=0.52
0.5542719411723598
% es.tEx (V/m) @ t=0.52
-1.3253127925326016
% es.tEy (V/m) @ t=0.52
0
% es.tEz (V/m) @ t=0.52
0.554271941172356
% V (V) @ t=0.52
0.00804488220992188
% es.normE (V/m) @ t=0.54
1.453671846128568
% es.EX (V/m) @ t=0.54
-1.3370540127507078
% es.EY (V/m) @ t=0.54
0.10429893260207257
% es.EZ (V/m) @ t=0.54
0.55918232972141
% es.tEX (V/m) @ t=0.54
-1.337054012750702
% es.tEY (V/m) @ t=0.54
0
% es.tEZ (V/m) @ t=0.54
0.5591823297214091
% es.Ex (V/m) @ t=0.54
-1.3370540127507078
% es.Ey (V/m) @ t=0.54
0.10429893260207257
% es.Ez (V/m) @ t=0.54
0.55918232972141
% es.tEx (V/m) @ t=0.54
-1.337054012750702
% es.tEy (V/m) @ t=0.54
0
% es.tEz (V/m) @ t=0.54
0.5591823297214091
% V (V) @ t=0.54
0.008116154053205012
% es.normE (V/m) @ t=0.56
1.4675603238589119
% es.EX (V/m) @ t=0.56
-1.3498283189883113
% es.EY (V/m) @ t=0.56
0.10529540483680738
% es.EZ (V/m) @ t=0.56
0.5645247884736586
% es.tEX (V/m) @ t=0.56
-1.3498283189883082
% es.tEY (V/m) @ t=0.56
0
% es.tEZ (V/m) @ t=0.56
0.5645247884736548
% es.Ex (V/m) @ t=0.56
-1.3498283189883113
% es.Ey (V/m) @ t=0.56
0.10529540483680738
% es.Ez (V/m) @ t=0.56
0.5645247884736586
% es.tEx (V/m) @ t=0.56
-1.3498283189883082
% es.tEy (V/m) @ t=0.56
0
% es.tEz (V/m) @ t=0.56
0.5645247884736548
% V (V) @ t=0.56
0.008193696559947549
% es.normE (V/m) @ t=0.58
1.4818075813476654
% es.EX (V/m) @ t=0.58
-1.3629326209543877
% es.EY (V/m) @ t=0.58
0.10631762253789018
% es.EZ (V/m) @ t=0.58
0.5700052621818357
% es.tEX (V/m) @ t=0.58
-1.362932620954382
% es.tEY (V/m) @ t=0.58
0
% es.tEZ (V/m) @ t=0.58
0.5700052621818337
% es.Ex (V/m) @ t=0.58
-1.3629326209543877
% es.Ey (V/m) @ t=0.58
0.10631762253789018
% es.Ez (V/m) @ t=0.58
0.5700052621818357
% es.tEx (V/m) @ t=0.58
-1.362932620954382
% es.tEy (V/m) @ t=0.58
0
% es.tEz (V/m) @ t=0.58
0.5700052621818337
% V (V) @ t=0.58
0.0082732420868812
% es.normE (V/m) @ t=0.6
1.4960548388363966
% es.EX (V/m) @ t=0.6
-1.3760369229204463
% es.EY (V/m) @ t=0.6
0.10733984023896759
% es.EZ (V/m) @ t=0.6
0.5754857358899985
% es.tEX (V/m) @ t=0.6
-1.3760369229204397
% es.tEY (V/m) @ t=0.6
0
% es.tEZ (V/m) @ t=0.6
0.5754857358900018
% es.Ex (V/m) @ t=0.6
-1.3760369229204463
% es.Ey (V/m) @ t=0.6
0.10733984023896759
% es.Ez (V/m) @ t=0.6
0.5754857358899985
% es.tEx (V/m) @ t=0.6
-1.3760369229204397
% es.tEy (V/m) @ t=0.6
0
% es.tEz (V/m) @ t=0.6
0.5754857358900018
% V (V) @ t=0.6
0.008352787613814852
% es.normE (V/m) @ t=0.62
1.5103020963251486
% es.EX (V/m) @ t=0.62
-1.3891412248865216
% es.EY (V/m) @ t=0.62
0.10836205794003445
% es.EZ (V/m) @ t=0.62
0.5809662095981774
% es.tEX (V/m) @ t=0.62
-1.3891412248865134
% es.tEY (V/m) @ t=0.62
0
% es.tEZ (V/m) @ t=0.62
0.5809662095981736
% es.Ex (V/m) @ t=0.62
-1.3891412248865216
% es.Ey (V/m) @ t=0.62
0.10836205794003445
% es.Ez (V/m) @ t=0.62
0.5809662095981774
% es.tEx (V/m) @ t=0.62
-1.3891412248865134
% es.tEy (V/m) @ t=0.62
0
% es.tEz (V/m) @ t=0.62
0.5809662095981736
% V (V) @ t=0.62
0.008432333140748505
% es.normE (V/m) @ t=0.64
1.524549353813892
% es.EX (V/m) @ t=0.64
-1.4022455268525926
% es.EY (V/m) @ t=0.64
0.10938427564110309
% es.EZ (V/m) @ t=0.64
0.5864466833063438
% es.tEX (V/m) @ t=0.64
-1.4022455268525835
% es.tEY (V/m) @ t=0.64
0
% es.tEZ (V/m) @ t=0.64
0.5864466833063453
% es.Ex (V/m) @ t=0.64
-1.4022455268525926
% es.Ey (V/m) @ t=0.64
0.10938427564110309
% es.Ez (V/m) @ t=0.64
0.5864466833063438
% es.tEx (V/m) @ t=0.64
-1.4022455268525835
% es.tEy (V/m) @ t=0.64
0
% es.tEz (V/m) @ t=0.64
0.5864466833063453
% V (V) @ t=0.64
0.008511878667682157
% es.normE (V/m) @ t=0.66
1.5387966113026357
% es.EX (V/m) @ t=0.66
-1.4153498288186577
% es.EY (V/m) @ t=0.66
0.11040649334218233
% es.EZ (V/m) @ t=0.66
0.591927157014521
% es.tEX (V/m) @ t=0.66
-1.4153498288186483
% es.tEY (V/m) @ t=0.66
0
% es.tEZ (V/m) @ t=0.66
0.5919271570145206
% es.Ex (V/m) @ t=0.66
-1.4153498288186577
% es.Ey (V/m) @ t=0.66
0.11040649334218233
% es.Ez (V/m) @ t=0.66
0.591927157014521
% es.tEx (V/m) @ t=0.66
-1.4153498288186483
% es.tEy (V/m) @ t=0.66
0
% es.tEz (V/m) @ t=0.66
0.5919271570145206
% V (V) @ t=0.66
0.008591424194615808
% es.normE (V/m) @ t=0.68
1.5530438687913757
% es.EX (V/m) @ t=0.68
-1.4284541307847236
% es.EY (V/m) @ t=0.68
0.11142871104325086
% es.EZ (V/m) @ t=0.68
0.597407630722691
% es.tEX (V/m) @ t=0.68
-1.428454130784715
% es.tEY (V/m) @ t=0.68
0
% es.tEZ (V/m) @ t=0.68
0.5974076307226888
% es.Ex (V/m) @ t=0.68
-1.4284541307847236
% es.Ey (V/m) @ t=0.68
0.11142871104325086
% es.Ez (V/m) @ t=0.68
0.597407630722691
% es.tEx (V/m) @ t=0.68
-1.428454130784715
% es.tEy (V/m) @ t=0.68
0
% es.tEz (V/m) @ t=0.68
0.5974076307226888
% V (V) @ t=0.68
0.00867096972154946
% es.normE (V/m) @ t=0.7
1.5672911262801192
% es.EX (V/m) @ t=0.7
-1.4415584327507909
% es.EY (V/m) @ t=0.7
0.11245092874431772
% es.EZ (V/m) @ t=0.7
0.6028881044308663
% es.tEX (V/m) @ t=0.7
-1.4415584327507833
% es.tEY (V/m) @ t=0.7
0
% es.tEZ (V/m) @ t=0.7
0.6028881044308712
% es.Ex (V/m) @ t=0.7
-1.4415584327507909
% es.Ey (V/m) @ t=0.7
0.11245092874431772
% es.Ez (V/m) @ t=0.7
0.6028881044308663
% es.tEx (V/m) @ t=0.7
-1.4415584327507833
% es.tEy (V/m) @ t=0.7
0
% es.tEz (V/m) @ t=0.7
0.6028881044308712
% V (V) @ t=0.7
0.008750515248483111
% es.normE (V/m) @ t=0.72
1.581538383768863
% es.EX (V/m) @ t=0.72
-1.4546627347168621
% es.EY (V/m) @ t=0.72
0.11347314644538986
% es.EZ (V/m) @ t=0.72
0.6083685781390309
% es.tEX (V/m) @ t=0.72
-1.4546627347168517
% es.tEY (V/m) @ t=0.72
0
% es.tEZ (V/m) @ t=0.72
0.6083685781390251
% es.Ex (V/m) @ t=0.72
-1.4546627347168621
% es.Ey (V/m) @ t=0.72
0.11347314644538986
% es.Ez (V/m) @ t=0.72
0.6083685781390309
% es.tEx (V/m) @ t=0.72
-1.4546627347168517
% es.tEy (V/m) @ t=0.72
0
% es.tEz (V/m) @ t=0.72
0.6083685781390251
% V (V) @ t=0.72
0.008830060775416763
% es.normE (V/m) @ t=0.74
1.5957856412576232
% es.EX (V/m) @ t=0.74
-1.4677670366829414
% es.EY (V/m) @ t=0.74
0.11449536414646727
% es.EZ (V/m) @ t=0.74
0.6138490518472188
% es.tEX (V/m) @ t=0.74
-1.4677670366829307
% es.tEY (V/m) @ t=0.74
0
% es.tEZ (V/m) @ t=0.74
0.6138490518472146
% es.Ex (V/m) @ t=0.74
-1.4677670366829414
% es.Ey (V/m) @ t=0.74
0.11449536414646727
% es.Ez (V/m) @ t=0.74
0.6138490518472188
% es.tEx (V/m) @ t=0.74
-1.4677670366829307
% es.tEy (V/m) @ t=0.74
0
% es.tEz (V/m) @ t=0.74
0.6138490518472146
% V (V) @ t=0.74
0.008909606302350416
% es.normE (V/m) @ t=0.76
1.6100328987463555
% es.EX (V/m) @ t=0.76
-1.4808713386490033
% es.EY (V/m) @ t=0.76
0.11551758184754124
% es.EZ (V/m) @ t=0.76
0.6193295255553762
% es.tEX (V/m) @ t=0.76
-1.4808713386489902
% es.tEY (V/m) @ t=0.76
0
% es.tEZ (V/m) @ t=0.76
0.6193295255553721
% es.Ex (V/m) @ t=0.76
-1.4808713386490033
% es.Ey (V/m) @ t=0.76
0.11551758184754124
% es.Ez (V/m) @ t=0.76
0.6193295255553762
% es.tEx (V/m) @ t=0.76
-1.4808713386489902
% es.tEy (V/m) @ t=0.76
0
% es.tEz (V/m) @ t=0.76
0.6193295255553721
% V (V) @ t=0.76
0.008989151829284068
% es.normE (V/m) @ t=0.78
1.6242801562351001
% es.EX (V/m) @ t=0.78
-1.493975640615072
% es.EY (V/m) @ t=0.78
0.11653979954861515
% es.EZ (V/m) @ t=0.78
0.6248099992635499
% es.tEX (V/m) @ t=0.78
-1.4939756406150586
% es.tEY (V/m) @ t=0.78
0
% es.tEZ (V/m) @ t=0.78
0.6248099992635403
% es.Ex (V/m) @ t=0.78
-1.493975640615072
% es.Ey (V/m) @ t=0.78
0.11653979954861515
% es.Ez (V/m) @ t=0.78
0.6248099992635499
% es.tEx (V/m) @ t=0.78
-1.4939756406150586
% es.tEy (V/m) @ t=0.78
0
% es.tEz (V/m) @ t=0.78
0.6248099992635403
% V (V) @ t=0.78
0.009068697356217719
% es.normE (V/m) @ t=0.8
1.6385274137238341
% es.EX (V/m) @ t=0.8
-1.5070799425811339
% es.EY (V/m) @ t=0.8
0.11756201724968202
% es.EZ (V/m) @ t=0.8
0.6302904729717127
% es.tEX (V/m) @ t=0.8
-1.5070799425811305
% es.tEY (V/m) @ t=0.8
0
% es.tEZ (V/m) @ t=0.8
0.630290472971712
% es.Ex (V/m) @ t=0.8
-1.5070799425811339
% es.Ey (V/m) @ t=0.8
0.11756201724968202
% es.Ez (V/m) @ t=0.8
0.6302904729717127
% es.tEx (V/m) @ t=0.8
-1.5070799425811305
% es.tEy (V/m) @ t=0.8
0
% es.tEz (V/m) @ t=0.8
0.630290472971712
% V (V) @ t=0.8
0.009148242883151372
% es.normE (V/m) @ t=0.82
1.653013658640071
% es.EX (V/m) @ t=0.82
-1.5204040753833945
% es.EY (V/m) @ t=0.82
0.11860134471041228
% es.EZ (V/m) @ t=0.82
0.6358628447178223
% es.tEX (V/m) @ t=0.82
-1.5204040753833947
% es.tEY (V/m) @ t=0.82
0
% es.tEZ (V/m) @ t=0.82
0.635862844717817
% es.Ex (V/m) @ t=0.82
-1.5204040753833945
% es.Ey (V/m) @ t=0.82
0.11860134471041228
% es.Ez (V/m) @ t=0.82
0.6358628447178223
% es.tEx (V/m) @ t=0.82
-1.5204040753833947
% es.tEy (V/m) @ t=0.82
0
% es.tEz (V/m) @ t=0.82
0.635862844717817
% V (V) @ t=0.82
0.009229123949181134
% es.normE (V/m) @ t=0.84
1.6689457848478624
% es.EX (V/m) @ t=0.84
-1.5350581915102266
% es.EY (V/m) @ t=0.84
0.11974418674361353
% es.EZ (V/m) @ t=0.84
0.6419912024216972
% es.tEX (V/m) @ t=0.84
-1.5350581915102222
% es.tEY (V/m) @ t=0.84
0
% es.tEZ (V/m) @ t=0.84
0.6419912024216927
% es.Ex (V/m) @ t=0.84
-1.5350581915102266
% es.Ey (V/m) @ t=0.84
0.11974418674361353
% es.Ez (V/m) @ t=0.84
0.6419912024216972
% es.tEx (V/m) @ t=0.84
-1.5350581915102222
% es.tEy (V/m) @ t=0.84
0
% es.tEz (V/m) @ t=0.84
0.6419912024216927
% V (V) @ t=0.84
0.009318085067845563
% es.normE (V/m) @ t=0.86
1.6848779110557728
% es.EX (V/m) @ t=0.86
-1.549712307637064
% es.EY (V/m) @ t=0.86
0.12088702877683077
% es.EZ (V/m) @ t=0.86
0.6481195601255774
% es.tEX (V/m) @ t=0.86
-1.549712307637046
% es.tEY (V/m) @ t=0.86
0
% es.tEZ (V/m) @ t=0.86
0.6481195601255756
% es.Ex (V/m) @ t=0.86
-1.549712307637064
% es.Ey (V/m) @ t=0.86
0.12088702877683077
% es.Ez (V/m) @ t=0.86
0.6481195601255774
% es.tEx (V/m) @ t=0.86
-1.549712307637046
% es.tEy (V/m) @ t=0.86
0
% es.tEz (V/m) @ t=0.86
0.6481195601255756
% V (V) @ t=0.86
0.009407046186509992
% es.normE (V/m) @ t=0.88
1.7008100372637769
% es.EX (V/m) @ t=0.88
-1.5643664237638908
% es.EY (V/m) @ t=0.88
0.12202987081003563
% es.EZ (V/m) @ t=0.88
0.6542479178294504
% es.tEX (V/m) @ t=0.88
-1.5643664237638824
% es.tEY (V/m) @ t=0.88
0
% es.tEZ (V/m) @ t=0.88
0.6542479178294442
% es.Ex (V/m) @ t=0.88
-1.5643664237638908
% es.Ey (V/m) @ t=0.88
0.12202987081003563
% es.Ez (V/m) @ t=0.88
0.6542479178294504
% es.tEx (V/m) @ t=0.88
-1.5643664237638824
% es.tEy (V/m) @ t=0.88
0
% es.tEz (V/m) @ t=0.88
0.6542479178294442
% V (V) @ t=0.88
0.00949600730517442
% es.normE (V/m) @ t=0.9
1.7167421634718938
% es.EX (V/m) @ t=0.9
-1.5790205398907207
% es.EY (V/m) @ t=0.9
0.12317271284324921
% es.EZ (V/m) @ t=0.9
0.660376275533336
% es.tEX (V/m) @ t=0.9
-1.579020539890724
% es.tEY (V/m) @ t=0.9
0
% es.tEZ (V/m) @ t=0.9
0.6603762755333307
% es.Ex (V/m) @ t=0.9
-1.5790205398907207
% es.Ey (V/m) @ t=0.9
0.12317271284324921
% es.Ez (V/m) @ t=0.9
0.660376275533336
% es.tEx (V/m) @ t=0.9
-1.579020539890724
% es.tEy (V/m) @ t=0.9
0
% es.tEz (V/m) @ t=0.9
0.6603762755333307
% V (V) @ t=0.9
0.009584968423838849
% es.normE (V/m) @ t=0.92
1.7326742896801188
% es.EX (V/m) @ t=0.92
-1.5936746560175614
% es.EY (V/m) @ t=0.92
0.12431555487646478
% es.EZ (V/m) @ t=0.92
0.6665046332372124
% es.tEX (V/m) @ t=0.92
-1.5936746560175532
% es.tEY (V/m) @ t=0.92
0
% es.tEZ (V/m) @ t=0.92
0.6665046332372135
% es.Ex (V/m) @ t=0.92
-1.5936746560175614
% es.Ey (V/m) @ t=0.92
0.12431555487646478
% es.Ez (V/m) @ t=0.92
0.6665046332372124
% es.tEx (V/m) @ t=0.92
-1.5936746560175532
% es.tEy (V/m) @ t=0.92
0
% es.tEz (V/m) @ t=0.92
0.6665046332372135
% V (V) @ t=0.92
0.009673929542503276
% es.normE (V/m) @ t=0.94
1.74860641588843
% es.EX (V/m) @ t=0.94
-1.6083287721443884
% es.EY (V/m) @ t=0.94
0.1254583969096802
% es.EZ (V/m) @ t=0.94
0.6726329909410893
% es.tEX (V/m) @ t=0.94
-1.6083287721443806
% es.tEY (V/m) @ t=0.94
0
% es.tEZ (V/m) @ t=0.94
0.6726329909410858
% es.Ex (V/m) @ t=0.94
-1.6083287721443884
% es.Ey (V/m) @ t=0.94
0.1254583969096802
% es.Ez (V/m) @ t=0.94
0.6726329909410893
% es.tEx (V/m) @ t=0.94
-1.6083287721443806
% es.tEy (V/m) @ t=0.94
0
% es.tEz (V/m) @ t=0.94
0.6726329909410858
% V (V) @ t=0.94
0.009762890661167704
% es.normE (V/m) @ t=0.96
1.7645385420968451
% es.EX (V/m) @ t=0.96
-1.6229828882712243
% es.EY (V/m) @ t=0.96
0.12660123894288144
% es.EZ (V/m) @ t=0.96
0.6787613486449677
% es.tEX (V/m) @ t=0.96
-1.6229828882712205
% es.tEY (V/m) @ t=0.96
0
% es.tEZ (V/m) @ t=0.96
0.6787613486449686
% es.Ex (V/m) @ t=0.96
-1.6229828882712243
% es.Ey (V/m) @ t=0.96
0.12660123894288144
% es.Ez (V/m) @ t=0.96
0.6787613486449677
% es.tEx (V/m) @ t=0.96
-1.6229828882712205
% es.tEy (V/m) @ t=0.96
0
% es.tEz (V/m) @ t=0.96
0.6787613486449686
% V (V) @ t=0.96
0.009851851779832131
% es.normE (V/m) @ t=0.98
1.7804706683053602
% es.EX (V/m) @ t=0.98
-1.6376370043980637
% es.EY (V/m) @ t=0.98
0.12774408097609513
% es.EZ (V/m) @ t=0.98
0.6848897063488516
% es.tEX (V/m) @ t=0.98
-1.6376370043980604
% es.tEY (V/m) @ t=0.98
0
% es.tEZ (V/m) @ t=0.98
0.6848897063488586
% es.Ex (V/m) @ t=0.98
-1.6376370043980637
% es.Ey (V/m) @ t=0.98
0.12774408097609513
% es.Ez (V/m) @ t=0.98
0.6848897063488516
% es.tEx (V/m) @ t=0.98
-1.6376370043980604
% es.tEy (V/m) @ t=0.98
0
% es.tEz (V/m) @ t=0.98
0.6848897063488586
% V (V) @ t=0.98
0.00994081289849656
% es.normE (V/m) @ t=1
1.7964027945139567
% es.EX (V/m) @ t=1
-1.6522911205248934
% es.EY (V/m) @ t=1
0.12888692300929994
% es.EZ (V/m) @ t=1
0.6910180640527371
% es.tEX (V/m) @ t=1
-1.6522911205248878
% es.tEY (V/m) @ t=1
0
% es.tEZ (V/m) @ t=1
0.6910180640527415
% es.Ex (V/m) @ t=1
-1.6522911205248934
% es.Ey (V/m) @ t=1
0.12888692300929994
% es.Ez (V/m) @ t=1
0.6910180640527371
% es.tEx (V/m) @ t=1
-1.6522911205248878
% es.tEy (V/m) @ t=1
0
% es.tEz (V/m) @ t=1
0.6910180640527415
% V (V) @ t=1
0.01002977401716099
% es.normE (V/m) @ t=1.02
1.8123349207226425
% es.EX (V/m) @ t=1.02
-1.6669452366517263
% es.EY (V/m) @ t=1.02
0.1300297650425314
% es.EZ (V/m) @ t=1.02
0.6971464217566101
% es.tEX (V/m) @ t=1.02
-1.666945236651717
% es.tEY (V/m) @ t=1.02
0
% es.tEZ (V/m) @ t=1.02
0.6971464217566101
% es.Ex (V/m) @ t=1.02
-1.6669452366517263
% es.Ey (V/m) @ t=1.02
0.1300297650425314
% es.Ez (V/m) @ t=1.02
0.6971464217566101
% es.tEx (V/m) @ t=1.02
-1.666945236651717
% es.tEy (V/m) @ t=1.02
0
% es.tEz (V/m) @ t=1.02
0.6971464217566101
% V (V) @ t=1.02
0.010118735135825417
% es.normE (V/m) @ t=1.04
1.828267046931408
% es.EX (V/m) @ t=1.04
-1.681599352778553
% es.EY (V/m) @ t=1.04
0.13117260707573264
% es.EZ (V/m) @ t=1.04
0.7032747794604886
% es.tEX (V/m) @ t=1.04