% Model:              1 neuron.mph
% Version:            COMSOL 6.0.0.405
% Date:               Mar 16 2023, 17:25
% Dimension:          0
% Nodes:              14017
% Expressions:        14017
% Description:        Electric field norm, Electric field, X component, Electric field, Y component, Electric field, Z component, Tangential electric field, X component, Tangential electric field, Y component, Tangential electric field, Z component, Electric field, x component, Electric field, y component, Electric field, z component, Tangential electric field, x component, Tangential electric field, y component, Tangential electric field, z component, Electric potential
% Length unit:        mm
% x
1.66
% y
12.2
% z
2
% es.normE (V/m) @ t=0
1.4705986574916876
% es.EX (V/m) @ t=0
-0.4387093418137513
% es.EY (V/m) @ t=0
0.03276941705166087
% es.EZ (V/m) @ t=0
-1.4008923881373319
% es.tEX (V/m) @ t=0
-0.43870934181375176
% es.tEY (V/m) @ t=0
0
% es.tEZ (V/m) @ t=0
-1.400892388137355
% es.Ex (V/m) @ t=0
-0.4387093418137513
% es.Ey (V/m) @ t=0
0.03276941705166087
% es.Ez (V/m) @ t=0
-1.4008923881373319
% es.tEx (V/m) @ t=0
-0.43870934181375176
% es.tEy (V/m) @ t=0
0
% es.tEz (V/m) @ t=0
-1.400892388137355
% V (V) @ t=0
0.007391846886473889
% es.normE (V/m) @ t=0.02
1.2701834817030222
% es.EX (V/m) @ t=0.02
-0.37892143908525533
% es.EY (V/m) @ t=0.02
0.028303557323885245
% es.EZ (V/m) @ t=0.02
-1.2099768769609947
% es.tEX (V/m) @ t=0.02
-0.37892143908526066
% es.tEY (V/m) @ t=0.02
0
% es.tEZ (V/m) @ t=0.02
-1.209976876961011
% es.Ex (V/m) @ t=0.02
-0.37892143908525533
% es.Ey (V/m) @ t=0.02
0.028303557323885245
% es.Ez (V/m) @ t=0.02
-1.2099768769609947
% es.tEx (V/m) @ t=0.02
-0.37892143908526066
% es.tEy (V/m) @ t=0.02
0
% es.tEz (V/m) @ t=0.02
-1.209976876961011
% V (V) @ t=0.02
0.006384475969802723
% es.normE (V/m) @ t=0.04
1.2818657532805033
% es.EX (V/m) @ t=0.04
-0.3824064981149539
% es.EY (V/m) @ t=0.04
0.028563877038770856
% es.EZ (V/m) @ t=0.04
-1.2211054091794327
% es.tEX (V/m) @ t=0.04
-0.3824064981149604
% es.tEY (V/m) @ t=0.04
0
% es.tEZ (V/m) @ t=0.04
-1.2211054091794478
% es.Ex (V/m) @ t=0.04
-0.3824064981149539
% es.Ey (V/m) @ t=0.04
0.028563877038770856
% es.Ez (V/m) @ t=0.04
-1.2211054091794327
% es.tEx (V/m) @ t=0.04
-0.3824064981149604
% es.tEy (V/m) @ t=0.04
0
% es.tEz (V/m) @ t=0.04
-1.2211054091794478
% V (V) @ t=0.04
0.006443195910657643
% es.normE (V/m) @ t=0.06
1.2936537464078781
% es.EX (V/m) @ t=0.06
-0.38592309803453123
% es.EY (V/m) @ t=0.06
0.028826558843046815
% es.EZ (V/m) @ t=0.06
-1.2323346506681472
% es.tEX (V/m) @ t=0.06
-0.3859230980345352
% es.tEY (V/m) @ t=0.06
0
% es.tEZ (V/m) @ t=0.06
-1.2323346506681574
% es.Ex (V/m) @ t=0.06
-0.38592309803453123
% es.Ey (V/m) @ t=0.06
0.028826558843046815
% es.Ez (V/m) @ t=0.06
-1.2323346506681472
% es.tEx (V/m) @ t=0.06
-0.3859230980345352
% es.tEy (V/m) @ t=0.06
0
% es.tEz (V/m) @ t=0.06
-1.2323346506681574
% V (V) @ t=0.06
0.006502447119717426
% es.normE (V/m) @ t=0.08
1.3056207229776522
% es.EX (V/m) @ t=0.08
-0.38949309017865474
% es.EY (V/m) @ t=0.08
0.02909322226366027
% es.EZ (V/m) @ t=0.08
-1.2437343929569047
% es.tEX (V/m) @ t=0.08
-0.38949309017865374
% es.tEY (V/m) @ t=0.08
0
% es.tEZ (V/m) @ t=0.08
-1.2437343929569087
% es.Ex (V/m) @ t=0.08
-0.38949309017865474
% es.Ey (V/m) @ t=0.08
0.02909322226366027
% es.Ez (V/m) @ t=0.08
-1.2437343929569047
% es.tEx (V/m) @ t=0.08
-0.38949309017865374
% es.tEy (V/m) @ t=0.08
0
% es.tEz (V/m) @ t=0.08
-1.2437343929569087
% V (V) @ t=0.08
0.006562598115717323
% es.normE (V/m) @ t=0.1
1.3177141423617909
% es.EX (V/m) @ t=0.1
-0.3931008012482984
% es.EY (V/m) @ t=0.1
0.029362698496281453
% es.EZ (V/m) @ t=0.1
-1.2552545854991668
% es.tEX (V/m) @ t=0.1
-0.39310080124830193
% es.tEY (V/m) @ t=0.1
0
% es.tEZ (V/m) @ t=0.1
-1.2552545854991832
% es.Ex (V/m) @ t=0.1
-0.3931008012482984
% es.Ey (V/m) @ t=0.1
0.029362698496281453
% es.Ez (V/m) @ t=0.1
-1.2552545854991668
% es.tEx (V/m) @ t=0.1
-0.39310080124830193
% es.tEy (V/m) @ t=0.1
0
% es.tEz (V/m) @ t=0.1
-1.2552545854991832
% V (V) @ t=0.1
0.006623384766007351
% es.normE (V/m) @ t=0.12
1.3298075617459397
% es.EX (V/m) @ t=0.12
-0.3967085123179508
% es.EY (V/m) @ t=0.12
0.029632174728914447
% es.EZ (V/m) @ t=0.12
-1.2667747780414365
% es.tEX (V/m) @ t=0.12
-0.39670851231795723
% es.tEY (V/m) @ t=0.12
0
% es.tEZ (V/m) @ t=0.12
-1.2667747780414498
% es.Ex (V/m) @ t=0.12
-0.3967085123179508
% es.Ey (V/m) @ t=0.12
0.029632174728914447
% es.Ez (V/m) @ t=0.12
-1.2667747780414365
% es.tEx (V/m) @ t=0.12
-0.39670851231795723
% es.tEy (V/m) @ t=0.12
0
% es.tEz (V/m) @ t=0.12
-1.2667747780414498
% V (V) @ t=0.12
0.0066841714162973785
% es.normE (V/m) @ t=0.14
1.3420185623959524
% es.EX (V/m) @ t=0.14
-0.40035130059379553
% es.EY (V/m) @ t=0.14
0.029904271985257434
% es.EZ (V/m) @ t=0.14
-1.2784069783322316
% es.tEX (V/m) @ t=0.14
-0.4003513005938011
% es.tEY (V/m) @ t=0.14
0
% es.tEZ (V/m) @ t=0.14
-1.278406978332245
% es.Ex (V/m) @ t=0.14
-0.40035130059379553
% es.Ey (V/m) @ t=0.14
0.029904271985257434
% es.Ez (V/m) @ t=0.14
-1.2784069783322316
% es.tEx (V/m) @ t=0.14
-0.4003513005938011
% es.tEy (V/m) @ t=0.14
0
% es.tEz (V/m) @ t=0.14
-1.278406978332245
% V (V) @ t=0.14
0.006745549058840921
% es.normE (V/m) @ t=0.16
1.3547580446149101
% es.EX (V/m) @ t=0.16
-0.4041517471226477
% es.EY (V/m) @ t=0.16
0.030188149712914038
% es.EZ (V/m) @ t=0.16
-1.290542609422483
% es.tEX (V/m) @ t=0.16
-0.40415174712265056
% es.tEY (V/m) @ t=0.16
0
% es.tEZ (V/m) @ t=0.16
-1.2905426094224994
% es.Ex (V/m) @ t=0.16
-0.4041517471226477
% es.Ey (V/m) @ t=0.16
0.030188149712914038
% es.Ez (V/m) @ t=0.16
-1.290542609422483
% es.tEx (V/m) @ t=0.16
-0.40415174712265056
% es.tEy (V/m) @ t=0.16
0
% es.tEz (V/m) @ t=0.16
-1.2905426094224994
% V (V) @ t=0.16
0.006809582979245
% es.normE (V/m) @ t=0.18
1.3674975268338654
% es.EX (V/m) @ t=0.18
-0.40795219365149404
% es.EY (V/m) @ t=0.18
0.030472027440588648
% es.EZ (V/m) @ t=0.18
-1.302678240512734
% es.tEX (V/m) @ t=0.18
-0.40795219365149293
% es.tEY (V/m) @ t=0.18
0
% es.tEZ (V/m) @ t=0.18
-1.302678240512746
% es.Ex (V/m) @ t=0.18
-0.40795219365149404
% es.Ey (V/m) @ t=0.18
0.030472027440588648
% es.Ez (V/m) @ t=0.18
-1.302678240512734
% es.tEx (V/m) @ t=0.18
-0.40795219365149293
% es.tEy (V/m) @ t=0.18
0
% es.tEz (V/m) @ t=0.18
-1.302678240512746
% V (V) @ t=0.18
0.006873616899649079
% es.normE (V/m) @ t=0.2
1.380237009052816
% es.EX (V/m) @ t=0.2
-0.41175264018034574
% es.EY (V/m) @ t=0.2
0.030755905168249567
% es.EZ (V/m) @ t=0.2
-1.3148138716029778
% es.tEX (V/m) @ t=0.2
-0.4117526401803495
% es.tEY (V/m) @ t=0.2
0
% es.tEZ (V/m) @ t=0.2
-1.3148138716029862
% es.Ex (V/m) @ t=0.2
-0.41175264018034574
% es.Ey (V/m) @ t=0.2
0.030755905168249567
% es.Ez (V/m) @ t=0.2
-1.3148138716029778
% es.tEx (V/m) @ t=0.2
-0.4117526401803495
% es.tEy (V/m) @ t=0.2
0
% es.tEz (V/m) @ t=0.2
-1.3148138716029862
% V (V) @ t=0.2
0.006937650820053157
% es.normE (V/m) @ t=0.22
1.392976491271763
% es.EX (V/m) @ t=0.22
-0.4155530867091869
% es.EY (V/m) @ t=0.22
0.03103978289591172
% es.EZ (V/m) @ t=0.22
-1.326949502693222
% es.tEX (V/m) @ t=0.22
-0.41555308670918834
% es.tEY (V/m) @ t=0.22
0
% es.tEZ (V/m) @ t=0.22
-1.3269495026932265
% es.Ex (V/m) @ t=0.22
-0.4155530867091869
% es.Ey (V/m) @ t=0.22
0.03103978289591172
% es.Ez (V/m) @ t=0.22
-1.326949502693222
% es.tEx (V/m) @ t=0.22
-0.41555308670918834
% es.tEy (V/m) @ t=0.22
0
% es.tEz (V/m) @ t=0.22
-1.3269495026932265
% V (V) @ t=0.22
0.0070016847404572365
% es.normE (V/m) @ t=0.24
1.4057159734907199
% es.EX (V/m) @ t=0.24
-0.41935353323803853
% es.EY (V/m) @ t=0.24
0.03132366062356746
% es.EZ (V/m) @ t=0.24
-1.339085133783473
% es.tEX (V/m) @ t=0.24
-0.41935353323804136
% es.tEY (V/m) @ t=0.24
0
% es.tEZ (V/m) @ t=0.24
-1.339085133783481
% es.Ex (V/m) @ t=0.24
-0.41935353323803853
% es.Ey (V/m) @ t=0.24
0.03132366062356746
% es.Ez (V/m) @ t=0.24
-1.339085133783473
% es.tEx (V/m) @ t=0.24
-0.41935353323804136
% es.tEy (V/m) @ t=0.24
0
% es.tEz (V/m) @ t=0.24
-1.339085133783481
% V (V) @ t=0.24
0.007065718660861315
% es.normE (V/m) @ t=0.26
1.4184554557096658
% es.EX (V/m) @ t=0.26
-0.42315397976688485
% es.EY (V/m) @ t=0.26
0.031607538351243594
% es.EZ (V/m) @ t=0.26
-1.3512207648737138
% es.tEX (V/m) @ t=0.26
-0.4231539797668873
% es.tEY (V/m) @ t=0.26
0
% es.tEZ (V/m) @ t=0.26
-1.3512207648737284
% es.Ex (V/m) @ t=0.26
-0.42315397976688485
% es.Ey (V/m) @ t=0.26
0.031607538351243594
% es.Ez (V/m) @ t=0.26
-1.3512207648737138
% es.tEx (V/m) @ t=0.26
-0.4231539797668873
% es.tEy (V/m) @ t=0.26
0
% es.tEz (V/m) @ t=0.26
-1.3512207648737284
% V (V) @ t=0.26
0.007129752581265394
% es.normE (V/m) @ t=0.28
1.4317384515711278
% es.EX (V/m) @ t=0.28
-0.427116561061499
% es.EY (V/m) @ t=0.28
0.03190350969351895
% es.EZ (V/m) @ t=0.28
-1.363874150353781
% es.tEX (V/m) @ t=0.28
-0.42711656106150286
% es.tEY (V/m) @ t=0.28
0
% es.tEZ (V/m) @ t=0.28
-1.363874150353789
% es.Ex (V/m) @ t=0.28
-0.427116561061499
% es.Ey (V/m) @ t=0.28
0.03190350969351895
% es.Ez (V/m) @ t=0.28
-1.363874150353781
% es.tEx (V/m) @ t=0.28
-0.42711656106150286
% es.tEy (V/m) @ t=0.28
0
% es.tEz (V/m) @ t=0.28
-1.363874150353789
% V (V) @ t=0.28
0.007196518816559257
% es.normE (V/m) @ t=0.3
1.445931311013331
% es.EX (V/m) @ t=0.3
-0.4313505624401882
% es.EY (V/m) @ t=0.3
0.03221972623047828
% es.EZ (V/m) @ t=0.3
-1.3773942773950867
% es.tEX (V/m) @ t=0.3
-0.4313505624401941
% es.tEY (V/m) @ t=0.3
0
% es.tEZ (V/m) @ t=0.3
-1.377394277395105
% es.Ex (V/m) @ t=0.3
-0.4313505624401882
% es.Ey (V/m) @ t=0.3
0.03221972623047828
% es.Ez (V/m) @ t=0.3
-1.3773942773950867
% es.tEx (V/m) @ t=0.3
-0.4313505624401941
% es.tEy (V/m) @ t=0.3
0
% es.tEz (V/m) @ t=0.3
-1.377394277395105
% V (V) @ t=0.3
0.007267859056284629
% es.normE (V/m) @ t=0.32
1.4601241704555468
% es.EX (V/m) @ t=0.32
-0.4355845638188686
% es.EY (V/m) @ t=0.32
0.03253594276744028
% es.EZ (V/m) @ t=0.32
-1.3909144044364066
% es.tEX (V/m) @ t=0.32
-0.4355845638188711
% es.tEY (V/m) @ t=0.32
0
% es.tEZ (V/m) @ t=0.32
-1.3909144044364208
% es.Ex (V/m) @ t=0.32
-0.4355845638188686
% es.Ey (V/m) @ t=0.32
0.03253594276744028
% es.Ez (V/m) @ t=0.32
-1.3909144044364066
% es.tEx (V/m) @ t=0.32
-0.4355845638188711
% es.tEy (V/m) @ t=0.32
0
% es.tEz (V/m) @ t=0.32
-1.3909144044364208
% V (V) @ t=0.32
0.007339199296010002
% es.normE (V/m) @ t=0.34
1.4743170298977666
% es.EX (V/m) @ t=0.34
-0.43981856519755347
% es.EY (V/m) @ t=0.34
0.0328521593044032
% es.EZ (V/m) @ t=0.34
-1.4044345314777265
% es.tEX (V/m) @ t=0.34
-0.43981856519755524
% es.tEY (V/m) @ t=0.34
0
% es.tEZ (V/m) @ t=0.34
-1.4044345314777296
% es.Ex (V/m) @ t=0.34
-0.43981856519755347
% es.Ey (V/m) @ t=0.34
0.0328521593044032
% es.Ez (V/m) @ t=0.34
-1.4044345314777265
% es.tEx (V/m) @ t=0.34
-0.43981856519755524
% es.tEy (V/m) @ t=0.34
0
% es.tEz (V/m) @ t=0.34
-1.4044345314777296
% V (V) @ t=0.34
0.007410539535735376
% es.normE (V/m) @ t=0.36
1.4885098893399684
% es.EX (V/m) @ t=0.36
-0.44405256657623726
% es.EY (V/m) @ t=0.36
0.03316837584136702
% es.EZ (V/m) @ t=0.36
-1.4179546585190255
% es.tEX (V/m) @ t=0.36
-0.4440525665762429
% es.tEY (V/m) @ t=0.36
0
% es.tEZ (V/m) @ t=0.36
-1.4179546585190455
% es.Ex (V/m) @ t=0.36
-0.44405256657623726
% es.Ey (V/m) @ t=0.36
0.03316837584136702
% es.Ez (V/m) @ t=0.36
-1.4179546585190255
% es.tEx (V/m) @ t=0.36
-0.4440525665762429
% es.tEy (V/m) @ t=0.36
0
% es.tEz (V/m) @ t=0.36
-1.4179546585190455
% V (V) @ t=0.36
0.00748187977546075
% es.normE (V/m) @ t=0.38
1.5027027487822007
% es.EX (V/m) @ t=0.38
-0.4482865679549266
% es.EY (V/m) @ t=0.38
0.03348459237833504
% es.EZ (V/m) @ t=0.38
-1.431474785560352
% es.tEX (V/m) @ t=0.38
-0.44828656795492705
% es.tEY (V/m) @ t=0.38
0
% es.tEZ (V/m) @ t=0.38
-1.4314747855603684
% es.Ex (V/m) @ t=0.38
-0.4482865679549266
% es.Ey (V/m) @ t=0.38
0.03348459237833504
% es.Ez (V/m) @ t=0.38
-1.431474785560352
% es.tEx (V/m) @ t=0.38
-0.44828656795492705
% es.tEy (V/m) @ t=0.38
0
% es.tEz (V/m) @ t=0.38
-1.4314747855603684
% V (V) @ t=0.38
0.007553220015186123
% es.normE (V/m) @ t=0.4
1.5168956082244325
% es.EX (V/m) @ t=0.4
-0.45252056933360796
% es.EY (V/m) @ t=0.4
0.033800808915289936
% es.EZ (V/m) @ t=0.4
-1.444994912601679
% es.tEX (V/m) @ t=0.4
-0.4525205693336112
% es.tEY (V/m) @ t=0.4
0
% es.tEZ (V/m) @ t=0.4
-1.4449949126016843
% es.Ex (V/m) @ t=0.4
-0.45252056933360796
% es.Ey (V/m) @ t=0.4
0.033800808915289936
% es.Ez (V/m) @ t=0.4
-1.444994912601679
% es.tEx (V/m) @ t=0.4
-0.4525205693336112
% es.tEy (V/m) @ t=0.4
0
% es.tEz (V/m) @ t=0.4
-1.4449949126016843
% V (V) @ t=0.4
0.007624560254911495
% es.normE (V/m) @ t=0.42
1.5310884676666425
% es.EX (V/m) @ t=0.42
-0.4567545707122971
% es.EY (V/m) @ t=0.42
0.03411702545225064
% es.EZ (V/m) @ t=0.42
-1.458515039642978
% es.tEX (V/m) @ t=0.42
-0.45675457071229886
% es.tEY (V/m) @ t=0.42
0
% es.tEZ (V/m) @ t=0.42
-1.458515039642994
% es.Ex (V/m) @ t=0.42
-0.4567545707122971
% es.Ey (V/m) @ t=0.42
0.03411702545225064
% es.Ez (V/m) @ t=0.42
-1.458515039642978
% es.tEx (V/m) @ t=0.42
-0.45675457071229886
% es.tEy (V/m) @ t=0.42
0
% es.tEz (V/m) @ t=0.42
-1.458515039642994
% V (V) @ t=0.42
0.0076959004946368665
% es.normE (V/m) @ t=0.44
1.5452813271088868
% es.EX (V/m) @ t=0.44
-0.46098857209098465
% es.EY (V/m) @ t=0.44
0.034433241989212195
% es.EZ (V/m) @ t=0.44
-1.4720351666843117
% es.tEX (V/m) @ t=0.44
-0.46098857209098654
% es.tEY (V/m) @ t=0.44
0
% es.tEZ (V/m) @ t=0.44
-1.4720351666843232
% es.Ex (V/m) @ t=0.44
-0.46098857209098465
% es.Ey (V/m) @ t=0.44
0.034433241989212195
% es.Ez (V/m) @ t=0.44
-1.4720351666843117
% es.tEx (V/m) @ t=0.44
-0.46098857209098654
% es.tEy (V/m) @ t=0.44
0
% es.tEz (V/m) @ t=0.44
-1.4720351666843232
% V (V) @ t=0.44
0.007767240734362242
% es.normE (V/m) @ t=0.46
1.5594741865511041
% es.EX (V/m) @ t=0.46
-0.465222573469665
% es.EY (V/m) @ t=0.46
0.03474945852617086
% es.EZ (V/m) @ t=0.46
-1.485555293725617
% es.tEX (V/m) @ t=0.46
-0.4652225734696671
% es.tEY (V/m) @ t=0.46
0
% es.tEZ (V/m) @ t=0.46
-1.485555293725632
% es.Ex (V/m) @ t=0.46
-0.465222573469665
% es.Ey (V/m) @ t=0.46
0.03474945852617086
% es.Ez (V/m) @ t=0.46
-1.485555293725617
% es.tEx (V/m) @ t=0.46
-0.4652225734696671
% es.tEy (V/m) @ t=0.46
0
% es.tEz (V/m) @ t=0.46
-1.485555293725632
% V (V) @ t=0.46
0.007838580974087614
% es.normE (V/m) @ t=0.48
1.5736670459933317
% es.EX (V/m) @ t=0.48
-0.469456574848348
% es.EY (V/m) @ t=0.48
0.03506567506313848
% es.EZ (V/m) @ t=0.48
-1.4990754207669301
% es.tEX (V/m) @ t=0.48
-0.4694565748483548
% es.tEY (V/m) @ t=0.48
0
% es.tEZ (V/m) @ t=0.48
-1.4990754207669408
% es.Ex (V/m) @ t=0.48
-0.469456574848348
% es.Ey (V/m) @ t=0.48
0.03506567506313848
% es.Ez (V/m) @ t=0.48
-1.4990754207669301
% es.tEx (V/m) @ t=0.48
-0.4694565748483548
% es.tEy (V/m) @ t=0.48
0
% es.tEz (V/m) @ t=0.48
-1.4990754207669408
% V (V) @ t=0.48
0.007909921213812987
% es.normE (V/m) @ t=0.5
1.58785990543557
% es.EX (V/m) @ t=0.5
-0.47369057622703736
% es.EY (V/m) @ t=0.5
0.03538189160010536
% es.EZ (V/m) @ t=0.5
-1.51259554780825
% es.tEX (V/m) @ t=0.5
-0.47369057622704247
% es.tEY (V/m) @ t=0.5
0
% es.tEZ (V/m) @ t=0.5
-1.5125955478082638
% es.Ex (V/m) @ t=0.5
-0.47369057622703736
% es.Ey (V/m) @ t=0.5
0.03538189160010536
% es.Ez (V/m) @ t=0.5
-1.51259554780825
% es.tEx (V/m) @ t=0.5
-0.47369057622704247
% es.tEy (V/m) @ t=0.5
0
% es.tEz (V/m) @ t=0.5
-1.5125955478082638
% V (V) @ t=0.5
0.00798126145353836
% es.normE (V/m) @ t=0.52
1.6020527648778016
% es.EX (V/m) @ t=0.52
-0.47792457760572116
% es.EY (V/m) @ t=0.52
0.035698108137060515
% es.EZ (V/m) @ t=0.52
-1.5261156748495632
% es.tEX (V/m) @ t=0.52
-0.47792457760572304
% es.tEY (V/m) @ t=0.52
0
% es.tEZ (V/m) @ t=0.52
-1.5261156748495726
% es.Ex (V/m) @ t=0.52
-0.47792457760572116
% es.Ey (V/m) @ t=0.52
0.035698108137060515
% es.Ez (V/m) @ t=0.52
-1.5261156748495632
% es.tEx (V/m) @ t=0.52
-0.47792457760572304
% es.tEy (V/m) @ t=0.52
0
% es.tEz (V/m) @ t=0.52
-1.5261156748495726
% V (V) @ t=0.52
0.008052601693263734
% es.normE (V/m) @ t=0.54
1.6162456243200345
% es.EX (V/m) @ t=0.54
-0.48215857898440695
% es.EY (V/m) @ t=0.54
0.036014324674024066
% es.EZ (V/m) @ t=0.54
-1.5396358018908756
% es.tEX (V/m) @ t=0.54
-0.4821585789844107
% es.tEY (V/m) @ t=0.54
0
% es.tEZ (V/m) @ t=0.54
-1.5396358018908884
% es.Ex (V/m) @ t=0.54
-0.48215857898440695
% es.Ey (V/m) @ t=0.54
0.036014324674024066
% es.Ez (V/m) @ t=0.54
-1.5396358018908756
% es.tEx (V/m) @ t=0.54
-0.4821585789844107
% es.tEy (V/m) @ t=0.54
0
% es.tEz (V/m) @ t=0.54
-1.5396358018908884
% V (V) @ t=0.54
0.008123941932989107
% es.normE (V/m) @ t=0.56
1.6316873253425868
% es.EX (V/m) @ t=0.56
-0.48676514378459
% es.EY (V/m) @ t=0.56
0.03635839298880399
% es.EZ (V/m) @ t=0.56
-1.554345571070797
% es.tEX (V/m) @ t=0.56
-0.486765143784595
% es.tEY (V/m) @ t=0.56
0
% es.tEZ (V/m) @ t=0.56
-1.5543455710708098
% es.Ex (V/m) @ t=0.56
-0.48676514378459
% es.Ey (V/m) @ t=0.56
0.03635839298880399
% es.Ez (V/m) @ t=0.56
-1.554345571070797
% es.tEx (V/m) @ t=0.56
-0.486765143784595
% es.tEy (V/m) @ t=0.56
0
% es.tEz (V/m) @ t=0.56
-1.5543455710708098
% V (V) @ t=0.56
0.008201558848581217
% es.normE (V/m) @ t=0.58
1.6475279402786414
% es.EX (V/m) @ t=0.58
-0.4914907154587014
% es.EY (V/m) @ t=0.58
0.03671135791775235
% es.EZ (V/m) @ t=0.58
-1.5694353442549547
% es.tEX (V/m) @ t=0.58
-0.49149071545870626
% es.tEY (V/m) @ t=0.58
0
% es.tEZ (V/m) @ t=0.58
-1.5694353442549707
% es.Ex (V/m) @ t=0.58
-0.4914907154587014
% es.Ey (V/m) @ t=0.58
0.03671135791775235
% es.Ez (V/m) @ t=0.58
-1.5694353442549547
% es.tEx (V/m) @ t=0.58
-0.49149071545870626
% es.tEy (V/m) @ t=0.58
0
% es.tEz (V/m) @ t=0.58
-1.5694353442549707
% V (V) @ t=0.58
0.008281180704890612
% es.normE (V/m) @ t=0.6
1.663368555214701
% es.EX (V/m) @ t=0.6
-0.4962162871328075
% es.EY (V/m) @ t=0.6
0.037064322846704294
% es.EZ (V/m) @ t=0.6
-1.5845251174391195
% es.tEX (V/m) @ t=0.6
-0.4962162871328104
% es.tEY (V/m) @ t=0.6
0
% es.tEZ (V/m) @ t=0.6
-1.5845251174391368
% es.Ex (V/m) @ t=0.6
-0.4962162871328075
% es.Ey (V/m) @ t=0.6
0.037064322846704294
% es.Ez (V/m) @ t=0.6
-1.5845251174391195
% es.tEx (V/m) @ t=0.6
-0.4962162871328104
% es.tEy (V/m) @ t=0.6
0
% es.tEz (V/m) @ t=0.6
-1.5845251174391368
% V (V) @ t=0.6
0.008360802561200009
% es.normE (V/m) @ t=0.62
1.679209170150751
% es.EX (V/m) @ t=0.62
-0.5009418588069243
% es.EY (V/m) @ t=0.62
0.03741728777564378
% es.EZ (V/m) @ t=0.62
-1.5996148906232701
% es.tEX (V/m) @ t=0.62
-0.5009418588069323
% es.tEY (V/m) @ t=0.62
0
% es.tEZ (V/m) @ t=0.62
-1.5996148906232834
% es.Ex (V/m) @ t=0.62
-0.5009418588069243
% es.Ey (V/m) @ t=0.62
0.03741728777564378
% es.Ez (V/m) @ t=0.62
-1.5996148906232701
% es.tEx (V/m) @ t=0.62
-0.5009418588069323
% es.tEy (V/m) @ t=0.62
0
% es.tEz (V/m) @ t=0.62
-1.5996148906232834
% V (V) @ t=0.62
0.008440424417509406
% es.normE (V/m) @ t=0.64
1.6950497850868196
% es.EX (V/m) @ t=0.64
-0.5056674304810347
% es.EY (V/m) @ t=0.64
0.03777025270460283
% es.EZ (V/m) @ t=0.64
-1.6147046638074425
% es.tEX (V/m) @ t=0.64
-0.50566743048104
% es.tEY (V/m) @ t=0.64
0
% es.tEZ (V/m) @ t=0.64
-1.6147046638074514
% es.Ex (V/m) @ t=0.64
-0.5056674304810347
% es.Ey (V/m) @ t=0.64
0.03777025270460283
% es.Ez (V/m) @ t=0.64
-1.6147046638074425
% es.tEx (V/m) @ t=0.64
-0.50566743048104
% es.tEy (V/m) @ t=0.64
0
% es.tEz (V/m) @ t=0.64
-1.6147046638074514
% V (V) @ t=0.64
0.008520046273818799
% es.normE (V/m) @ t=0.66
1.7108904000228518
% es.EX (V/m) @ t=0.66
-0.5103930021551355
% es.EY (V/m) @ t=0.66
0.03812321763355852
% es.EZ (V/m) @ t=0.66
-1.6297944369915789
% es.tEX (V/m) @ t=0.66
-0.510393002155137
% es.tEY (V/m) @ t=0.66
0
% es.tEZ (V/m) @ t=0.66
-1.629794436991589
% es.Ex (V/m) @ t=0.66
-0.5103930021551355
% es.Ey (V/m) @ t=0.66
0.03812321763355852
% es.Ez (V/m) @ t=0.66
-1.6297944369915789
% es.tEx (V/m) @ t=0.66
-0.510393002155137
% es.tEy (V/m) @ t=0.66
0
% es.tEz (V/m) @ t=0.66
-1.629794436991589
% V (V) @ t=0.66
0.008599668130128196
% es.normE (V/m) @ t=0.68
1.7267310149589061
% es.EX (V/m) @ t=0.68
-0.515118573829246
% es.EY (V/m) @ t=0.68
0.03847618256249089
% es.EZ (V/m) @ t=0.68
-1.6448842101757366
% es.tEX (V/m) @ t=0.68
-0.5151185738292483
% es.tEY (V/m) @ t=0.68
0
% es.tEZ (V/m) @ t=0.68
-1.644884210175757
% es.Ex (V/m) @ t=0.68
-0.515118573829246
% es.Ey (V/m) @ t=0.68
0.03847618256249089
% es.Ez (V/m) @ t=0.68
-1.6448842101757366
% es.tEx (V/m) @ t=0.68
-0.5151185738292483
% es.tEy (V/m) @ t=0.68
0
% es.tEz (V/m) @ t=0.68
-1.644884210175757
% V (V) @ t=0.68
0.008679289986437593
% es.normE (V/m) @ t=0.7
1.7425716298949596
% es.EX (V/m) @ t=0.7
-0.5198441455033539
% es.EY (V/m) @ t=0.7
0.03882914749145347
% es.EZ (V/m) @ t=0.7
-1.6599739833598939
% es.tEX (V/m) @ t=0.7
-0.5198441455033631
% es.tEY (V/m) @ t=0.7
0
% es.tEZ (V/m) @ t=0.7
-1.659973983359916
% es.Ex (V/m) @ t=0.7
-0.5198441455033539
% es.Ey (V/m) @ t=0.7
0.03882914749145347
% es.Ez (V/m) @ t=0.7
-1.6599739833598939
% es.tEx (V/m) @ t=0.7
-0.5198441455033631
% es.tEy (V/m) @ t=0.7
0
% es.tEz (V/m) @ t=0.7
-1.659973983359916
% V (V) @ t=0.7
0.008758911842746988
% es.normE (V/m) @ t=0.72
1.7584122448310149
% es.EX (V/m) @ t=0.72
-0.524569717177467
% es.EY (V/m) @ t=0.72
0.0391821124203912
% es.EZ (V/m) @ t=0.72
-1.6750637565440516
% es.tEX (V/m) @ t=0.72
-0.5245697171774744
% es.tEY (V/m) @ t=0.72
0
% es.tEZ (V/m) @ t=0.72
-1.6750637565440698
% es.Ex (V/m) @ t=0.72
-0.524569717177467
% es.Ey (V/m) @ t=0.72
0.0391821124203912
% es.Ez (V/m) @ t=0.72
-1.6750637565440516
% es.tEx (V/m) @ t=0.72
-0.5245697171774744
% es.tEy (V/m) @ t=0.72
0
% es.tEz (V/m) @ t=0.72
-1.6750637565440698
% V (V) @ t=0.72
0.008838533699056383
% es.normE (V/m) @ t=0.74
1.7742528597670788
% es.EX (V/m) @ t=0.74
-0.5292952888515828
% es.EY (V/m) @ t=0.74
0.03953507734934492
% es.EZ (V/m) @ t=0.74
-1.6901535297282169
% es.tEX (V/m) @ t=0.74
-0.5292952888515892
% es.tEY (V/m) @ t=0.74
0
% es.tEZ (V/m) @ t=0.74
-1.6901535297282306
% es.Ex (V/m) @ t=0.74
-0.5292952888515828
% es.Ey (V/m) @ t=0.74
0.03953507734934492
% es.Ez (V/m) @ t=0.74
-1.6901535297282169
% es.tEx (V/m) @ t=0.74
-0.5292952888515892
% es.tEy (V/m) @ t=0.74
0
% es.tEz (V/m) @ t=0.74
-1.6901535297282306
% V (V) @ t=0.74
0.008918155555365778
% es.normE (V/m) @ t=0.76
1.7900934747031467
% es.EX (V/m) @ t=0.76
-0.5340208605256942
% es.EY (V/m) @ t=0.76
0.03988804227829329
% es.EZ (V/m) @ t=0.76
-1.7052433029123888
% es.tEX (V/m) @ t=0.76
-0.5340208605256933
% es.tEY (V/m) @ t=0.76
0
% es.tEZ (V/m) @ t=0.76
-1.7052433029123977
% es.Ex (V/m) @ t=0.76
-0.5340208605256942
% es.Ey (V/m) @ t=0.76
0.03988804227829329
% es.Ez (V/m) @ t=0.76
-1.7052433029123888
% es.tEx (V/m) @ t=0.76
-0.5340208605256933
% es.tEy (V/m) @ t=0.76
0
% es.tEz (V/m) @ t=0.76
-1.7052433029123977
% V (V) @ t=0.76
0.008997777411675175
% es.normE (V/m) @ t=0.78
1.8059340896391856
% es.EX (V/m) @ t=0.78
-0.5387464321997941
% es.EY (V/m) @ t=0.78
0.04024100720724165
% es.EZ (V/m) @ t=0.78
-1.7203330760965323
% es.tEX (V/m) @ t=0.78
-0.538746432199801
% es.tEY (V/m) @ t=0.78
0
% es.tEZ (V/m) @ t=0.78
-1.7203330760965434
% es.Ex (V/m) @ t=0.78
-0.5387464321997941
% es.Ey (V/m) @ t=0.78
0.04024100720724165
% es.Ez (V/m) @ t=0.78
-1.7203330760965323
% es.tEx (V/m) @ t=0.78
-0.538746432199801
% es.tEy (V/m) @ t=0.78
0
% es.tEz (V/m) @ t=0.78
-1.7203330760965434
% V (V) @ t=0.78
0.00907739926798457
% es.normE (V/m) @ t=0.8
1.8217747045752424
% es.EX (V/m) @ t=0.8
-0.54347200387391
% es.EY (V/m) @ t=0.8
0.040593972136180906
% es.EZ (V/m) @ t=0.8
-1.73542284928069
% es.tEX (V/m) @ t=0.8
-0.5434720038739194
% es.tEY (V/m) @ t=0.8
0
% es.tEZ (V/m) @ t=0.8
-1.7354228492807113
% es.Ex (V/m) @ t=0.8
-0.54347200387391
% es.Ey (V/m) @ t=0.8
0.040593972136180906
% es.Ez (V/m) @ t=0.8
-1.73542284928069
% es.tEx (V/m) @ t=0.8
-0.5434720038739194
% es.tEy (V/m) @ t=0.8
0
% es.tEz (V/m) @ t=0.8
-1.7354228492807113
% V (V) @ t=0.8
0.009157021124293969
% es.normE (V/m) @ t=0.82
1.83788094480848
% es.EX (V/m) @ t=0.82
-0.5482767903432917
% es.EY (V/m) @ t=0.82
0.040952777747213204
% es.EZ (V/m) @ t=0.82
-1.7507656711335295
% es.tEX (V/m) @ t=0.82
-0.5482767903432979
% es.tEY (V/m) @ t=0.82
0
% es.tEZ (V/m) @ t=0.82
-1.750765671133534
% es.Ex (V/m) @ t=0.82
-0.5482767903432917
% es.Ey (V/m) @ t=0.82
0.040952777747213204
% es.Ez (V/m) @ t=0.82
-1.7507656711335295
% es.tEx (V/m) @ t=0.82
-0.5482767903432979
% es.tEy (V/m) @ t=0.82
0
% es.tEz (V/m) @ t=0.82
-1.750765671133534
% V (V) @ t=0.82
0.009237979814914903
% es.normE (V/m) @ t=0.84
1.8555942262647767
% es.EX (V/m) @ t=0.84
-0.5535608287620054
% es.EY (V/m) @ t=0.84
0.04134691966461454
% es.EZ (V/m) @ t=0.84
-1.767639445219749
% es.tEX (V/m) @ t=0.84
-0.5535608287620128
% es.tEY (V/m) @ t=0.84
0
% es.tEZ (V/m) @ t=0.84
-1.7676394452197686
% es.Ex (V/m) @ t=0.84
-0.5535608287620054
% es.Ey (V/m) @ t=0.84
0.04134691966461454
% es.Ez (V/m) @ t=0.84
-1.767639445219749
% es.tEx (V/m) @ t=0.84
-0.5535608287620128
% es.tEy (V/m) @ t=0.84
0
% es.tEz (V/m) @ t=0.84
-1.7676394452197686
% V (V) @ t=0.84
0.009327026394263704
% es.normE (V/m) @ t=0.86
1.8733075077213897
% es.EX (V/m) @ t=0.86
-0.5588448671807255
% es.EY (V/m) @ t=0.86
0.041741061582013836
% es.EZ (V/m) @ t=0.86
-1.7845132193059818
% es.tEX (V/m) @ t=0.86
-0.5588448671807278
% es.tEY (V/m) @ t=0.86
0
% es.tEZ (V/m) @ t=0.86
-1.7845132193059987
% es.Ex (V/m) @ t=0.86
-0.5588448671807255
% es.Ey (V/m) @ t=0.86
0.041741061582013836
% es.Ez (V/m) @ t=0.86
-1.7845132193059818
% es.tEx (V/m) @ t=0.86
-0.5588448671807278
% es.tEy (V/m) @ t=0.86
0
% es.tEz (V/m) @ t=0.86
-1.7845132193059987
% V (V) @ t=0.86
0.009416072973612506
% es.normE (V/m) @ t=0.88
1.8910207891783029
% es.EX (V/m) @ t=0.88
-0.564128905599443
% es.EY (V/m) @ t=0.88
0.04213520349942532
% es.EZ (V/m) @ t=0.88
-1.8013869933922209
% es.tEX (V/m) @ t=0.88
-0.5641289055994463
% es.tEY (V/m) @ t=0.88
0
% es.tEZ (V/m) @ t=0.88
-1.8013869933922342
% es.Ex (V/m) @ t=0.88
-0.564128905599443
% es.Ey (V/m) @ t=0.88
0.04213520349942532
% es.Ez (V/m) @ t=0.88
-1.8013869933922209
% es.tEx (V/m) @ t=0.88
-0.5641289055994463
% es.tEy (V/m) @ t=0.88
0
% es.tEz (V/m) @ t=0.88
-1.8013869933922342
% V (V) @ t=0.88
0.00950511955296131
% es.normE (V/m) @ t=0.9
1.9087340706354965
% es.EX (V/m) @ t=0.9
-0.569412944018163
% es.EY (V/m) @ t=0.9
0.04252934541682639
% es.EZ (V/m) @ t=0.9
-1.8182607674784537
% es.tEX (V/m) @ t=0.9
-0.5694129440181683
% es.tEY (V/m) @ t=0.9
0
% es.tEZ (V/m) @ t=0.9
-1.8182607674784625
% es.Ex (V/m) @ t=0.9
-0.569412944018163
% es.Ey (V/m) @ t=0.9
0.04252934541682639
% es.Ez (V/m) @ t=0.9
-1.8182607674784537
% es.tEx (V/m) @ t=0.9
-0.5694129440181683
% es.tEy (V/m) @ t=0.9
0
% es.tEz (V/m) @ t=0.9
-1.8182607674784625
% V (V) @ t=0.9
0.009594166132310114
% es.normE (V/m) @ t=0.92
1.9264473520929695
% es.EX (V/m) @ t=0.92
-0.5746969824368868
% es.EY (V/m) @ t=0.92
0.04292348733422542
% es.EZ (V/m) @ t=0.92
-1.835134541564686
% es.tEX (V/m) @ t=0.92
-0.5746969824368939
% es.tEY (V/m) @ t=0.92
0
% es.tEZ (V/m) @ t=0.92
-1.835134541564707
% es.Ex (V/m) @ t=0.92
-0.5746969824368868
% es.Ey (V/m) @ t=0.92
0.04292348733422542
% es.Ez (V/m) @ t=0.92
-1.835134541564686
% es.tEx (V/m) @ t=0.92
-0.5746969824368939
% es.tEy (V/m) @ t=0.92
0
% es.tEz (V/m) @ t=0.92
-1.835134541564707
% V (V) @ t=0.92
0.009683212711658916
% es.normE (V/m) @ t=0.94
1.9441606335507187
% es.EX (V/m) @ t=0.94
-0.5799810208556078
% es.EY (V/m) @ t=0.94
0.04331762925163915
% es.EZ (V/m) @ t=0.94
-1.852008315650926
% es.tEX (V/m) @ t=0.94
-0.5799810208556124
% es.tEY (V/m) @ t=0.94
0
% es.tEZ (V/m) @ t=0.94
-1.8520083156509424
% es.Ex (V/m) @ t=0.94
-0.5799810208556078
% es.Ey (V/m) @ t=0.94
0.04331762925163915
% es.Ez (V/m) @ t=0.94
-1.852008315650926
% es.tEx (V/m) @ t=0.94
-0.5799810208556124
% es.tEy (V/m) @ t=0.94
0
% es.tEz (V/m) @ t=0.94
-1.8520083156509424
% V (V) @ t=0.94
0.009772259291007718
% es.normE (V/m) @ t=0.96
1.9618739150087254
% es.EX (V/m) @ t=0.96
-0.5852650592743294
% es.EY (V/m) @ t=0.96
0.043711771169029634
% es.EZ (V/m) @ t=0.96
-1.8688820897371592
% es.tEX (V/m) @ t=0.96
-0.5852650592743309
% es.tEY (V/m) @ t=0.96
0
% es.tEZ (V/m) @ t=0.96
-1.8688820897371716
% es.Ex (V/m) @ t=0.96
-0.5852650592743294
% es.Ey (V/m) @ t=0.96
0.043711771169029634
% es.Ez (V/m) @ t=0.96
-1.8688820897371592
% es.tEx (V/m) @ t=0.96
-0.5852650592743309
% es.tEy (V/m) @ t=0.96
0
% es.tEz (V/m) @ t=0.96
-1.8688820897371716
% V (V) @ t=0.96
0.00986130587035652
% es.normE (V/m) @ t=0.98
1.9795871964669711
% es.EX (V/m) @ t=0.98
-0.5905490976930399
% es.EY (V/m) @ t=0.98
0.04410591308644134
% es.EZ (V/m) @ t=0.98
-1.8857558638233773
% es.tEX (V/m) @ t=0.98
-0.5905490976930423
% es.tEY (V/m) @ t=0.98
0
% es.tEZ (V/m) @ t=0.98
-1.8857558638233929
% es.Ex (V/m) @ t=0.98
-0.5905490976930399
% es.Ey (V/m) @ t=0.98
0.04410591308644134
% es.Ez (V/m) @ t=0.98
-1.8857558638233773
% es.tEx (V/m) @ t=0.98
-0.5905490976930423
% es.tEy (V/m) @ t=0.98
0
% es.tEz (V/m) @ t=0.98
-1.8857558638233929
% V (V) @ t=0.98
0.009950352449705322
% es.normE (V/m) @ t=1
1.9973004779254904
% es.EX (V/m) @ t=1
-0.5958331361117635
% es.EY (V/m) @ t=1
0.04450005500383508
% es.EZ (V/m) @ t=1
-1.9026296379096173
% es.tEX (V/m) @ t=1
-0.5958331361117715
% es.tEY (V/m) @ t=1
0
% es.tEZ (V/m) @ t=1
-1.9026296379096355
% es.Ex (V/m) @ t=1
-0.5958331361117635
% es.Ey (V/m) @ t=1
0.04450005500383508
% es.Ez (V/m) @ t=1
-1.9026296379096173
% es.tEx (V/m) @ t=1
-0.5958331361117715
% es.tEy (V/m) @ t=1
0
% es.tEz (V/m) @ t=1
-1.9026296379096355
% V (V) @ t=1
0.010039399029054126
% es.normE (V/m) @ t=1.02
2.015013759384237
% es.EX (V/m) @ t=1.02
-0.6011171745304817
% es.EY (V/m) @ t=1.02
0.04489419692124348
% es.EZ (V/m) @ t=1.02
-1.919503411995843
% es.tEX (V/m) @ t=1.02
-0.6011171745304829
% es.tEY (V/m) @ t=1.02
0
% es.tEZ (V/m) @ t=1.02
-1.9195034119958656
% es.Ex (V/m) @ t=1.02
-0.6011171745304817
% es.Ey (V/m) @ t=1.02
0.04489419692124348
% es.Ez (V/m) @ t=1.02
-1.919503411995843
% es.tEx (V/m) @ t=1.02
-0.6011171745304829