% Model:              1 neuron.mph
% Version:            COMSOL 6.0.0.405
% Date:               Mar 16 2023, 17:32
% Dimension:          0
% Nodes:              14017
% Expressions:        14017
% Description:        Electric field norm, Electric field, X component, Electric field, Y component, Electric field, Z component, Tangential electric field, X component, Tangential electric field, Y component, Tangential electric field, Z component, Electric field, x component, Electric field, y component, Electric field, z component, Tangential electric field, x component, Tangential electric field, y component, Tangential electric field, z component, Electric potential
% Length unit:        mm
% x
1
% y
12.2
% z
1.33
% es.normE (V/m) @ t=0
1.450786633082661
% es.EX (V/m) @ t=0
1.340716374279463
% es.EY (V/m) @ t=0
0.08441964617467951
% es.EZ (V/m) @ t=0
0.5420026386031678
% es.tEX (V/m) @ t=0
1.340716374279463
% es.tEY (V/m) @ t=0
0
% es.tEZ (V/m) @ t=0
0.5420026386031651
% es.Ex (V/m) @ t=0
1.340716374279463
% es.Ey (V/m) @ t=0
0.08441964617467951
% es.Ez (V/m) @ t=0
0.5420026386031678
% es.tEx (V/m) @ t=0
1.340716374279463
% es.tEy (V/m) @ t=0
0
% es.tEz (V/m) @ t=0
0.5420026386031651
% V (V) @ t=0
0.007236760749621579
% es.normE (V/m) @ t=0.02
1.253072884939895
% es.EX (V/m) @ t=0.02
1.1580030423311438
% es.EY (V/m) @ t=0.02
0.07291490523639105
% es.EZ (V/m) @ t=0.02
0.46813831532779604
% es.tEX (V/m) @ t=0.02
1.158003042331143
% es.tEY (V/m) @ t=0.02
0
% es.tEZ (V/m) @ t=0.02
0.4681383153277956
% es.Ex (V/m) @ t=0.02
1.1580030423311438
% es.Ey (V/m) @ t=0.02
0.07291490523639105
% es.Ez (V/m) @ t=0.02
0.46813831532779604
% es.tEx (V/m) @ t=0.02
1.158003042331143
% es.tEy (V/m) @ t=0.02
0
% es.tEz (V/m) @ t=0.02
0.4681383153277956
% V (V) @ t=0.02
0.006250532263303927
% es.normE (V/m) @ t=0.04
1.2645993790725587
% es.EX (V/m) @ t=0.04
1.1686550283336077
% es.EY (V/m) @ t=0.04
0.07358561983422435
% es.EZ (V/m) @ t=0.04
0.472444525083616
% es.tEX (V/m) @ t=0.04
1.1686550283336086
% es.tEY (V/m) @ t=0.04
0
% es.tEZ (V/m) @ t=0.04
0.47244452508361157
% es.Ex (V/m) @ t=0.04
1.1686550283336077
% es.Ey (V/m) @ t=0.04
0.07358561983422435
% es.Ez (V/m) @ t=0.04
0.472444525083616
% es.tEx (V/m) @ t=0.04
1.1686550283336086
% es.tEy (V/m) @ t=0.04
0
% es.tEz (V/m) @ t=0.04
0.47244452508361157
% V (V) @ t=0.04
0.006308028262069545
% es.normE (V/m) @ t=0.06
1.2762294688102163
% es.EX (V/m) @ t=0.06
1.179402749581791
% es.EY (V/m) @ t=0.06
0.07426236403472364
% es.EZ (V/m) @ t=0.06
0.47678943896393355
% es.tEX (V/m) @ t=0.06
1.1794027495817918
% es.tEY (V/m) @ t=0.06
0
% es.tEZ (V/m) @ t=0.06
0.4767894389639391
% es.Ex (V/m) @ t=0.06
1.179402749581791
% es.Ey (V/m) @ t=0.06
0.07426236403472364
% es.Ez (V/m) @ t=0.06
0.47678943896393355
% es.tEx (V/m) @ t=0.06
1.1794027495817918
% es.tEy (V/m) @ t=0.06
0
% es.tEz (V/m) @ t=0.06
0.4767894389639391
% V (V) @ t=0.06
0.0063660409465028794
% es.normE (V/m) @ t=0.08
1.28803781530969
% es.EX (V/m) @ t=0.08
1.1903152043943495
% es.EY (V/m) @ t=0.08
0.07494947834152854
% es.EZ (V/m) @ t=0.08
0.4812009455437247
% es.tEX (V/m) @ t=0.08
1.1903152043943495
% es.tEY (V/m) @ t=0.08
0
% es.tEZ (V/m) @ t=0.08
0.4812009455437223
% es.Ex (V/m) @ t=0.08
1.1903152043943495
% es.Ey (V/m) @ t=0.08
0.07494947834152854
% es.Ez (V/m) @ t=0.08
0.4812009455437247
% es.tEx (V/m) @ t=0.08
1.1903152043943495
% es.tEy (V/m) @ t=0.08
0
% es.tEz (V/m) @ t=0.08
0.4812009455437223
% V (V) @ t=0.08
0.0064249429135503815
% es.normE (V/m) @ t=0.1
1.2999685764629993
% es.EX (V/m) @ t=0.1
1.201340787045948
% es.EY (V/m) @ t=0.1
0.07564371413401377
% es.EZ (V/m) @ t=0.1
0.4856581834728899
% es.tEX (V/m) @ t=0.1
1.201340787045944
% es.tEY (V/m) @ t=0.1
0
% es.tEZ (V/m) @ t=0.1
0.4856581834728946
% es.Ex (V/m) @ t=0.1
1.201340787045948
% es.Ey (V/m) @ t=0.1
0.07564371413401377
% es.Ez (V/m) @ t=0.1
0.4856581834728899
% es.tEx (V/m) @ t=0.1
1.201340787045944
% es.tEy (V/m) @ t=0.1
0
% es.tEz (V/m) @ t=0.1
0.4856581834728946
% V (V) @ t=0.1
0.006484455579582137
% es.normE (V/m) @ t=0.12
1.3118993376163035
% es.EX (V/m) @ t=0.12
1.2123663696975377
% es.EY (V/m) @ t=0.12
0.07633794992649712
% es.EZ (V/m) @ t=0.12
0.49011542140206377
% es.tEX (V/m) @ t=0.12
1.2123663696975369
% es.tEY (V/m) @ t=0.12
0
% es.tEZ (V/m) @ t=0.12
0.49011542140206954
% es.Ex (V/m) @ t=0.12
1.2123663696975377
% es.Ey (V/m) @ t=0.12
0.07633794992649712
% es.Ez (V/m) @ t=0.12
0.49011542140206377
% es.tEx (V/m) @ t=0.12
1.2123663696975369
% es.tEy (V/m) @ t=0.12
0
% es.tEz (V/m) @ t=0.12
0.49011542140206954
% V (V) @ t=0.12
0.00654396824561389
% es.normE (V/m) @ t=0.14
1.323954566885659
% es.EX (V/m) @ t=0.14
1.223506976675531
% es.EY (V/m) @ t=0.14
0.07703942953023957
% es.EZ (V/m) @ t=0.14
0.49461916086840096
% es.tEX (V/m) @ t=0.14
1.223506976675532
% es.tEY (V/m) @ t=0.14
0
% es.tEZ (V/m) @ t=0.14
0.49461916086840496
% es.Ex (V/m) @ t=0.14
1.223506976675531
% es.Ey (V/m) @ t=0.14
0.07703942953023957
% es.Ez (V/m) @ t=0.14
0.49461916086840096
% es.tEx (V/m) @ t=0.14
1.223506976675532
% es.tEy (V/m) @ t=0.14
0
% es.tEz (V/m) @ t=0.14
0.49461916086840496
% V (V) @ t=0.14
0.00660410172799253
% es.normE (V/m) @ t=0.16
1.3365214164336807
% es.EX (V/m) @ t=0.16
1.235120385683417
% es.EY (V/m) @ t=0.16
0.07777068447608415
% es.EZ (V/m) @ t=0.16
0.4993140426944276
% es.tEX (V/m) @ t=0.16
1.2351203856834205
% es.tEY (V/m) @ t=0.16
0
% es.tEZ (V/m) @ t=0.16
0.49931404269442625
% es.Ex (V/m) @ t=0.16
1.235120385683417
% es.Ey (V/m) @ t=0.16
0.07777068447608415
% es.Ez (V/m) @ t=0.16
0.4993140426944276
% es.tEx (V/m) @ t=0.16
1.2351203856834205
% es.tEy (V/m) @ t=0.16
0
% es.tEz (V/m) @ t=0.16
0.49931404269442625
% V (V) @ t=0.16
0.006666787046475755
% es.normE (V/m) @ t=0.18
1.3490882659817167
% es.EX (V/m) @ t=0.18
1.2467337946913122
% es.EY (V/m) @ t=0.18
0.07850193942192069
% es.EZ (V/m) @ t=0.18
0.5040089245204693
% es.tEX (V/m) @ t=0.18
1.2467337946913108
% es.tEY (V/m) @ t=0.18
0
% es.tEZ (V/m) @ t=0.18
0.5040089245204675
% es.Ex (V/m) @ t=0.18
1.2467337946913122
% es.Ey (V/m) @ t=0.18
0.07850193942192069
% es.Ez (V/m) @ t=0.18
0.5040089245204693
% es.tEx (V/m) @ t=0.18
1.2467337946913108
% es.tEy (V/m) @ t=0.18
0
% es.tEz (V/m) @ t=0.18
0.5040089245204675
% V (V) @ t=0.18
0.006729472364958982
% es.normE (V/m) @ t=0.2
1.361655115529731
% es.EX (V/m) @ t=0.2
1.2583472036991896
% es.EY (V/m) @ t=0.2
0.07923319436775378
% es.EZ (V/m) @ t=0.2
0.5087038063464977
% es.tEX (V/m) @ t=0.2
1.2583472036991914
% es.tEY (V/m) @ t=0.2
0
% es.tEZ (V/m) @ t=0.2
0.5087038063464995
% es.Ex (V/m) @ t=0.2
1.2583472036991896
% es.Ey (V/m) @ t=0.2
0.07923319436775378
% es.Ez (V/m) @ t=0.2
0.5087038063464977
% es.tEx (V/m) @ t=0.2
1.2583472036991914
% es.tEy (V/m) @ t=0.2
0
% es.tEz (V/m) @ t=0.2
0.5087038063464995
% V (V) @ t=0.2
0.006792157683442207
% es.normE (V/m) @ t=0.22
1.3742219650777625
% es.EX (V/m) @ t=0.22
1.269960612707083
% es.EY (V/m) @ t=0.22
0.07996444931359215
% es.EZ (V/m) @ t=0.22
0.513398688172531
% es.tEX (V/m) @ t=0.22
1.2699606127070826
% es.tEY (V/m) @ t=0.22
0
% es.tEZ (V/m) @ t=0.22
0.513398688172531
% es.Ex (V/m) @ t=0.22
1.269960612707083
% es.Ey (V/m) @ t=0.22
0.07996444931359215
% es.Ez (V/m) @ t=0.22
0.513398688172531
% es.tEx (V/m) @ t=0.22
1.2699606127070826
% es.tEy (V/m) @ t=0.22
0
% es.tEz (V/m) @ t=0.22
0.513398688172531
% V (V) @ t=0.22
0.006854843001925431
% es.normE (V/m) @ t=0.24
1.3867888146257892
% es.EX (V/m) @ t=0.24
1.2815740217149694
% es.EY (V/m) @ t=0.24
0.08069570425943778
% es.EZ (V/m) @ t=0.24
0.5180935699985691
% es.tEX (V/m) @ t=0.24
1.2815740217149703
% es.tEY (V/m) @ t=0.24
0
% es.tEZ (V/m) @ t=0.24
0.5180935699985683
% es.Ex (V/m) @ t=0.24
1.2815740217149694
% es.Ey (V/m) @ t=0.24
0.08069570425943778
% es.Ez (V/m) @ t=0.24
0.5180935699985691
% es.tEx (V/m) @ t=0.24
1.2815740217149703
% es.tEy (V/m) @ t=0.24
0
% es.tEz (V/m) @ t=0.24
0.5180935699985683
% V (V) @ t=0.24
0.006917528320408659
% es.normE (V/m) @ t=0.26
1.3993556641738185
% es.EX (V/m) @ t=0.26
1.2931874307228601
% es.EY (V/m) @ t=0.26
0.08142695920527787
% es.EZ (V/m) @ t=0.26
0.5227884518246029
% es.tEX (V/m) @ t=0.26
1.2931874307228632
% es.tEY (V/m) @ t=0.26
0
% es.tEZ (V/m) @ t=0.26
0.5227884518246002
% es.Ex (V/m) @ t=0.26
1.2931874307228601
% es.Ey (V/m) @ t=0.26
0.08142695920527787
% es.Ez (V/m) @ t=0.26
0.5227884518246029
% es.tEx (V/m) @ t=0.26
1.2931874307228632
% es.tEy (V/m) @ t=0.26
0
% es.tEz (V/m) @ t=0.26
0.5227884518246002
% V (V) @ t=0.26
0.006980213638891885
% es.normE (V/m) @ t=0.28
1.412496551848546
% es.EX (V/m) @ t=0.28
1.305331322843415
% es.EY (V/m) @ t=0.28
0.08219162437927136
% es.EZ (V/m) @ t=0.28
0.5276977978193269
% es.tEX (V/m) @ t=0.28
1.3053313228434131
% es.tEY (V/m) @ t=0.28
0
% es.tEZ (V/m) @ t=0.28
0.5276977978193274
% es.Ex (V/m) @ t=0.28
1.305331322843415
% es.Ey (V/m) @ t=0.28
0.08219162437927136
% es.Ez (V/m) @ t=0.28
0.5276977978193269
% es.tEx (V/m) @ t=0.28
1.3053313228434131
% es.tEy (V/m) @ t=0.28
0
% es.tEz (V/m) @ t=0.28
0.5276977978193274
% V (V) @ t=0.28
0.00704576201814913
% es.normE (V/m) @ t=0.3
1.4264938211444105
% es.EX (V/m) @ t=0.3
1.3182666188217862
% es.EY (V/m) @ t=0.3
0.08300613276755492
% es.EZ (V/m) @ t=0.3
0.5329270932458554
% es.tEX (V/m) @ t=0.3
1.3182666188217862
% es.tEY (V/m) @ t=0.3
0
% es.tEZ (V/m) @ t=0.3
0.5329270932458612
% es.Ex (V/m) @ t=0.3
1.3182666188217862
% es.Ey (V/m) @ t=0.3
0.08300613276755492
% es.Ez (V/m) @ t=0.3
0.5329270932458554
% es.tEx (V/m) @ t=0.3
1.3182666188217862
% es.tEy (V/m) @ t=0.3
0
% es.tEz (V/m) @ t=0.3
0.5329270932458612
% V (V) @ t=0.3
0.007115581668795796
% es.normE (V/m) @ t=0.32
1.440491090440267
% es.EX (V/m) @ t=0.32
1.3312019148001508
% es.EY (V/m) @ t=0.32
0.0838206411558261
% es.EZ (V/m) @ t=0.32
0.5381563886723755
% es.tEX (V/m) @ t=0.32
1.3312019148001495
% es.tEY (V/m) @ t=0.32
0
% es.tEZ (V/m) @ t=0.32
0.5381563886723746
% es.Ex (V/m) @ t=0.32
1.3312019148001508
% es.Ey (V/m) @ t=0.32
0.0838206411558261
% es.Ez (V/m) @ t=0.32
0.5381563886723755
% es.tEx (V/m) @ t=0.32
1.3312019148001495
% es.tEy (V/m) @ t=0.32
0
% es.tEz (V/m) @ t=0.32
0.5381563886723746
% V (V) @ t=0.32
0.0071854013194424604
% es.normE (V/m) @ t=0.34
1.4544883597361355
% es.EX (V/m) @ t=0.34
1.344137210778527
% es.EY (V/m) @ t=0.34
0.0846351495441009
% es.EZ (V/m) @ t=0.34
0.5433856840988964
% es.tEX (V/m) @ t=0.34
1.344137210778526
% es.tEY (V/m) @ t=0.34
0
% es.tEZ (V/m) @ t=0.34
0.5433856840988964
% es.Ex (V/m) @ t=0.34
1.344137210778527
% es.Ey (V/m) @ t=0.34
0.0846351495441009
% es.Ez (V/m) @ t=0.34
0.5433856840988964
% es.tEx (V/m) @ t=0.34
1.344137210778526
% es.tEy (V/m) @ t=0.34
0
% es.tEz (V/m) @ t=0.34
0.5433856840988964
% V (V) @ t=0.34
0.007255220970089125
% es.normE (V/m) @ t=0.36
1.4684856290319872
% es.EX (V/m) @ t=0.36
1.3570725067568858
% es.EY (V/m) @ t=0.36
0.08544965793237475
% es.EZ (V/m) @ t=0.36
0.5486149795254107
% es.tEX (V/m) @ t=0.36
1.357072506756893
% es.tEY (V/m) @ t=0.36
0
% es.tEZ (V/m) @ t=0.36
0.5486149795254125
% es.Ex (V/m) @ t=0.36
1.3570725067568858
% es.Ey (V/m) @ t=0.36
0.08544965793237475
% es.Ez (V/m) @ t=0.36
0.5486149795254107
% es.tEx (V/m) @ t=0.36
1.357072506756893
% es.tEy (V/m) @ t=0.36
0
% es.tEz (V/m) @ t=0.36
0.5486149795254125
% V (V) @ t=0.36
0.007325040620735791
% es.normE (V/m) @ t=0.38
1.4824828983278608
% es.EX (V/m) @ t=0.38
1.3700078027352616
% es.EY (V/m) @ t=0.38
0.08626416632064782
% es.EZ (V/m) @ t=0.38
0.5538442749519397
% es.tEX (V/m) @ t=0.38
1.3700078027352678
% es.tEY (V/m) @ t=0.38
0
% es.tEZ (V/m) @ t=0.38
0.5538442749519397
% es.Ex (V/m) @ t=0.38
1.3700078027352616
% es.Ey (V/m) @ t=0.38
0.08626416632064782
% es.Ez (V/m) @ t=0.38
0.5538442749519397
% es.tEx (V/m) @ t=0.38
1.3700078027352678
% es.tEy (V/m) @ t=0.38
0
% es.tEz (V/m) @ t=0.38
0.5538442749519397
% V (V) @ t=0.38
0.007394860271382455
% es.normE (V/m) @ t=0.4
1.4964801676237318
% es.EX (V/m) @ t=0.4
1.3829430987136337
% es.EY (V/m) @ t=0.4
0.08707867470892078
% es.EZ (V/m) @ t=0.4
0.5590735703784646
% es.tEX (V/m) @ t=0.4
1.3829430987136364
% es.tEY (V/m) @ t=0.4
0
% es.tEZ (V/m) @ t=0.4
0.5590735703784664
% es.Ex (V/m) @ t=0.4
1.3829430987136337
% es.Ey (V/m) @ t=0.4
0.08707867470892078
% es.Ez (V/m) @ t=0.4
0.5590735703784646
% es.tEx (V/m) @ t=0.4
1.3829430987136364
% es.tEy (V/m) @ t=0.4
0
% es.tEz (V/m) @ t=0.4
0.5590735703784664
% V (V) @ t=0.4
0.0074646799220291216
% es.normE (V/m) @ t=0.42
1.510477436919594
% es.EX (V/m) @ t=0.42
1.395878394691998
% es.EY (V/m) @ t=0.42
0.08789318309719457
% es.EZ (V/m) @ t=0.42
0.5643028658049851
% es.tEX (V/m) @ t=0.42
1.395878394692005
% es.tEY (V/m) @ t=0.42
0
% es.tEZ (V/m) @ t=0.42
0.5643028658049878
% es.Ex (V/m) @ t=0.42
1.395878394691998
% es.Ey (V/m) @ t=0.42
0.08789318309719457
% es.Ez (V/m) @ t=0.42
0.5643028658049851
% es.tEx (V/m) @ t=0.42
1.395878394692005
% es.tEy (V/m) @ t=0.42
0
% es.tEz (V/m) @ t=0.42
0.5643028658049878
% V (V) @ t=0.42
0.007534499572675786
% es.normE (V/m) @ t=0.44
1.5244747062154644
% es.EX (V/m) @ t=0.44
1.4088136906703674
% es.EY (V/m) @ t=0.44
0.08870769148547014
% es.EZ (V/m) @ t=0.44
0.5695321612315101
% es.tEX (V/m) @ t=0.44
1.408813690670371
% es.tEY (V/m) @ t=0.44
0
% es.tEZ (V/m) @ t=0.44
0.569532161231511
% es.Ex (V/m) @ t=0.44
1.4088136906703674
% es.Ey (V/m) @ t=0.44
0.08870769148547014
% es.Ez (V/m) @ t=0.44
0.5695321612315101
% es.tEx (V/m) @ t=0.44
1.408813690670371
% es.tEy (V/m) @ t=0.44
0
% es.tEz (V/m) @ t=0.44
0.569532161231511
% V (V) @ t=0.44
0.007604319223322451
% es.normE (V/m) @ t=0.46
1.5384719755113379
% es.EX (V/m) @ t=0.46
1.4217489866487423
% es.EY (V/m) @ t=0.46
0.08952219987374321
% es.EZ (V/m) @ t=0.46
0.5747614566580275
% es.tEX (V/m) @ t=0.46
1.4217489866487458
% es.tEY (V/m) @ t=0.46
0
% es.tEZ (V/m) @ t=0.46
0.5747614566580292
% es.Ex (V/m) @ t=0.46
1.4217489866487423
% es.Ey (V/m) @ t=0.46
0.08952219987374321
% es.Ez (V/m) @ t=0.46
0.5747614566580275
% es.tEx (V/m) @ t=0.46
1.4217489866487458
% es.tEy (V/m) @ t=0.46
0
% es.tEz (V/m) @ t=0.46
0.5747614566580292
% V (V) @ t=0.46
0.007674138873969114
% es.normE (V/m) @ t=0.48
1.5524692448072108
% es.EX (V/m) @ t=0.48
1.4346842826271118
% es.EY (V/m) @ t=0.48
0.09033670826201445
% es.EZ (V/m) @ t=0.48
0.5799907520845542
% es.tEX (V/m) @ t=0.48
1.434684282627111
% es.tEY (V/m) @ t=0.48
0
% es.tEZ (V/m) @ t=0.48
0.579990752084556
% es.Ex (V/m) @ t=0.48
1.4346842826271118
% es.Ey (V/m) @ t=0.48
0.09033670826201445
% es.Ez (V/m) @ t=0.48
0.5799907520845542
% es.tEx (V/m) @ t=0.48
1.434684282627111
% es.tEy (V/m) @ t=0.48
0
% es.tEz (V/m) @ t=0.48
0.579990752084556
% V (V) @ t=0.48
0.007743958524615778
% es.normE (V/m) @ t=0.5
1.5664665141030747
% es.EX (V/m) @ t=0.5
1.4476195786054715
% es.EY (V/m) @ t=0.5
0.09115121665029102
% es.EZ (V/m) @ t=0.5
0.5852200475110743
% es.tEX (V/m) @ t=0.5
1.4476195786054697
% es.tEY (V/m) @ t=0.5
0
% es.tEZ (V/m) @ t=0.5
0.585220047511076
% es.Ex (V/m) @ t=0.5
1.4476195786054715
% es.Ey (V/m) @ t=0.5
0.09115121665029102
% es.Ez (V/m) @ t=0.5
0.5852200475110743
% es.tEx (V/m) @ t=0.5
1.4476195786054697
% es.tEy (V/m) @ t=0.5
0
% es.tEz (V/m) @ t=0.5
0.585220047511076
% V (V) @ t=0.5
0.007813778175262446
% es.normE (V/m) @ t=0.52
1.5804637833989594
% es.EX (V/m) @ t=0.52
1.46055487458385
% es.EY (V/m) @ t=0.52
0.09196572503857015
% es.EZ (V/m) @ t=0.52
0.5904493429376045
% es.tEX (V/m) @ t=0.52
1.460554874583849
% es.tEY (V/m) @ t=0.52
0
% es.tEZ (V/m) @ t=0.52
0.5904493429376028
% es.Ex (V/m) @ t=0.52
1.46055487458385
% es.Ey (V/m) @ t=0.52
0.09196572503857015
% es.Ez (V/m) @ t=0.52
0.5904493429376045
% es.tEx (V/m) @ t=0.52
1.460554874583849
% es.tEy (V/m) @ t=0.52
0
% es.tEz (V/m) @ t=0.52
0.5904493429376028
% V (V) @ t=0.52
0.00788359782590911
% es.normE (V/m) @ t=0.54
1.5944610526948289
% es.EX (V/m) @ t=0.54
1.473490170562214
% es.EY (V/m) @ t=0.54
0.09278023342683961
% es.EZ (V/m) @ t=0.54
0.5956786383641246
% es.tEX (V/m) @ t=0.54
1.4734901705622132
% es.tEY (V/m) @ t=0.54
0
% es.tEZ (V/m) @ t=0.54
0.5956786383641228
% es.Ex (V/m) @ t=0.54
1.473490170562214
% es.Ey (V/m) @ t=0.54
0.09278023342683961
% es.Ez (V/m) @ t=0.54
0.5956786383641246
% es.tEx (V/m) @ t=0.54
1.4734901705622132
% es.tEy (V/m) @ t=0.54
0
% es.tEz (V/m) @ t=0.54
0.5956786383641228
% V (V) @ t=0.54
0.007953417476555775
% es.normE (V/m) @ t=0.56
1.6097759032604846
% es.EX (V/m) @ t=0.56
1.4876430916828554
% es.EY (V/m) @ t=0.56
0.09367139094365134
% es.EZ (V/m) @ t=0.56
0.601400151595181
% es.tEX (V/m) @ t=0.56
1.4876430916828545
% es.tEY (V/m) @ t=0.56
0
% es.tEZ (V/m) @ t=0.56
0.6014001515951821
% es.Ex (V/m) @ t=0.56
1.4876430916828554
% es.Ey (V/m) @ t=0.56
0.09367139094365134
% es.Ez (V/m) @ t=0.56
0.601400151595181
% es.tEx (V/m) @ t=0.56
1.4876430916828545
% es.tEy (V/m) @ t=0.56
0
% es.tEz (V/m) @ t=0.56
0.6014001515951821
% V (V) @ t=0.56
0.008029810296818443
% es.normE (V/m) @ t=0.58
1.6253946760819526
% es.EX (V/m) @ t=0.58
1.5020768784991874
% es.EY (V/m) @ t=0.58
0.09458022886968848
% es.EZ (V/m) @ t=0.58
0.6072352031323351
% es.tEX (V/m) @ t=0.58
1.5020768784991914
% es.tEY (V/m) @ t=0.58
0
% es.tEZ (V/m) @ t=0.58
0.6072352031323334
% es.Ex (V/m) @ t=0.58
1.5020768784991874
% es.Ey (V/m) @ t=0.58
0.09458022886968848
% es.Ez (V/m) @ t=0.58
0.6072352031323351
% es.tEx (V/m) @ t=0.58
1.5020768784991914
% es.tEy (V/m) @ t=0.58
0
% es.tEz (V/m) @ t=0.58
0.6072352031323334
% V (V) @ t=0.58
0.008107719329085165
% es.normE (V/m) @ t=0.6
1.6410134489034283
% es.EX (V/m) @ t=0.6
1.51651066531553
% es.EY (V/m) @ t=0.6
0.09548906679572755
% es.EZ (V/m) @ t=0.6
0.613070254669484
% es.tEX (V/m) @ t=0.6
1.5165106653155283
% es.tEY (V/m) @ t=0.6
0
% es.tEZ (V/m) @ t=0.6
0.6130702546694837
% es.Ex (V/m) @ t=0.6
1.51651066531553
% es.Ey (V/m) @ t=0.6
0.09548906679572755
% es.Ez (V/m) @ t=0.6
0.613070254669484
% es.tEx (V/m) @ t=0.6
1.5165106653155283
% es.tEy (V/m) @ t=0.6
0
% es.tEz (V/m) @ t=0.6
0.6130702546694837
% V (V) @ t=0.6
0.008185628361351886
% es.normE (V/m) @ t=0.62
1.6566322217248985
% es.EX (V/m) @ t=0.62
1.530944452131866
% es.EY (V/m) @ t=0.62
0.09639790472176013
% es.EZ (V/m) @ t=0.62
0.6189053062066363
% es.tEX (V/m) @ t=0.62
1.5309444521318616
% es.tEY (V/m) @ t=0.62
0
% es.tEZ (V/m) @ t=0.62
0.618905306206639
% es.Ex (V/m) @ t=0.62
1.530944452131866
% es.Ey (V/m) @ t=0.62
0.09639790472176013
% es.Ez (V/m) @ t=0.62
0.6189053062066363
% es.tEx (V/m) @ t=0.62
1.5309444521318616
% es.tEy (V/m) @ t=0.62
0
% es.tEz (V/m) @ t=0.62
0.618905306206639
% V (V) @ t=0.62
0.00826353739361861
% es.normE (V/m) @ t=0.64
1.672250994546375
% es.EX (V/m) @ t=0.64
1.5453782389482091
% es.EY (V/m) @ t=0.64
0.09730674264781414
% es.EZ (V/m) @ t=0.64
0.6247403577437853
% es.tEX (V/m) @ t=0.64
1.5453782389482127
% es.tEY (V/m) @ t=0.64
0
% es.tEZ (V/m) @ t=0.64
0.6247403577437871
% es.Ex (V/m) @ t=0.64
1.5453782389482091
% es.Ey (V/m) @ t=0.64
0.09730674264781414
% es.Ez (V/m) @ t=0.64
0.6247403577437853
% es.tEx (V/m) @ t=0.64
1.5453782389482127
% es.tEy (V/m) @ t=0.64
0
% es.tEz (V/m) @ t=0.64
0.6247403577437871
% V (V) @ t=0.64
0.008341446425885331
% es.normE (V/m) @ t=0.66
1.6878697673678418
% es.EX (V/m) @ t=0.66
1.5598120257645407
% es.EY (V/m) @ t=0.66
0.09821558057384072
% es.EZ (V/m) @ t=0.66
0.6305754092809401
% es.tEX (V/m) @ t=0.66
1.5598120257645407
% es.tEY (V/m) @ t=0.66
0
% es.tEZ (V/m) @ t=0.66
0.6305754092809428
% es.Ex (V/m) @ t=0.66
1.5598120257645407
% es.Ey (V/m) @ t=0.66
0.09821558057384072
% es.Ez (V/m) @ t=0.66
0.6305754092809401
% es.tEx (V/m) @ t=0.66
1.5598120257645407
% es.tEy (V/m) @ t=0.66
0
% es.tEz (V/m) @ t=0.66
0.6305754092809428
% V (V) @ t=0.66
0.008419355458152053
% es.normE (V/m) @ t=0.68
1.7034885401893094
% es.EX (V/m) @ t=0.68
1.5742458125808723
% es.EY (V/m) @ t=0.68
0.09912441849988751
% es.EZ (V/m) @ t=0.68
0.6364104608180954
% es.tEX (V/m) @ t=0.68
1.5742458125808723
% es.tEY (V/m) @ t=0.68
0
% es.tEZ (V/m) @ t=0.68
0.6364104608180998
% es.Ex (V/m) @ t=0.68
1.5742458125808723
% es.Ey (V/m) @ t=0.68
0.09912441849988751
% es.Ez (V/m) @ t=0.68
0.6364104608180954
% es.tEx (V/m) @ t=0.68
1.5742458125808723
% es.tEy (V/m) @ t=0.68
0
% es.tEz (V/m) @ t=0.68
0.6364104608180998
% V (V) @ t=0.68
0.008497264490418772
% es.normE (V/m) @ t=0.7
1.7191073130107963
% es.EX (V/m) @ t=0.7
1.5886795993972251
% es.EY (V/m) @ t=0.7
0.10003325642593097
% es.EZ (V/m) @ t=0.7
0.6422455123552502
% es.tEX (V/m) @ t=0.7
1.5886795993972198
% es.tEY (V/m) @ t=0.7
0
% es.tEZ (V/m) @ t=0.7
0.642245512355252
% es.Ex (V/m) @ t=0.7
1.5886795993972251
% es.Ey (V/m) @ t=0.7
0.10003325642593097
% es.Ez (V/m) @ t=0.7
0.6422455123552502
% es.tEx (V/m) @ t=0.7
1.5886795993972198
% es.tEy (V/m) @ t=0.7
0
% es.tEz (V/m) @ t=0.7
0.642245512355252
% V (V) @ t=0.7
0.008575173522685494
% es.normE (V/m) @ t=0.72
1.734726085832258
% es.EX (V/m) @ t=0.72
1.603113386213555
% es.EY (V/m) @ t=0.72
0.10094209435195312
% es.EZ (V/m) @ t=0.72
0.6480805638923948
% es.tEX (V/m) @ t=0.72
1.603113386213562
% es.tEY (V/m) @ t=0.72
0
% es.tEZ (V/m) @ t=0.72
0.6480805638923983
% es.Ex (V/m) @ t=0.72
1.603113386213555
% es.Ey (V/m) @ t=0.72
0.10094209435195312
% es.Ez (V/m) @ t=0.72
0.6480805638923948
% es.tEx (V/m) @ t=0.72
1.603113386213562
% es.tEy (V/m) @ t=0.72
0
% es.tEz (V/m) @ t=0.72
0.6480805638923983
% V (V) @ t=0.72
0.008653082554952216
% es.normE (V/m) @ t=0.74
1.7503448586537285
% es.EX (V/m) @ t=0.74
1.61754717302989
% es.EY (V/m) @ t=0.74
0.1018509322780089
% es.EZ (V/m) @ t=0.74
0.6539156154295473
% es.tEX (V/m) @ t=0.74
1.6175471730298936
% es.tEY (V/m) @ t=0.74
0
% es.tEZ (V/m) @ t=0.74
0.65391561542955
% es.Ex (V/m) @ t=0.74
1.61754717302989
% es.Ey (V/m) @ t=0.74
0.1018509322780089
% es.Ez (V/m) @ t=0.74
0.6539156154295473
% es.tEx (V/m) @ t=0.74
1.6175471730298936
% es.tEy (V/m) @ t=0.74
0
% es.tEz (V/m) @ t=0.74
0.65391561542955
% V (V) @ t=0.74
0.008730991587218937
% es.normE (V/m) @ t=0.76
1.7659636314752136
% es.EX (V/m) @ t=0.76
1.6319809598462411
% es.EY (V/m) @ t=0.76
0.10275977020404159
% es.EZ (V/m) @ t=0.76
0.6597506669667006
% es.tEX (V/m) @ t=0.76
1.6319809598462323
% es.tEY (V/m) @ t=0.76
0
% es.tEZ (V/m) @ t=0.76
0.6597506669666995
% es.Ex (V/m) @ t=0.76
1.6319809598462411
% es.Ey (V/m) @ t=0.76
0.10275977020404159
% es.Ez (V/m) @ t=0.76
0.6597506669667006
% es.tEx (V/m) @ t=0.76
1.6319809598462323
% es.tEy (V/m) @ t=0.76
0
% es.tEz (V/m) @ t=0.76
0.6597506669666995
% V (V) @ t=0.76
0.008808900619485662
% es.normE (V/m) @ t=0.78
1.7815824042966801
% es.EX (V/m) @ t=0.78
1.6464147466625692
% es.EY (V/m) @ t=0.78
0.1036686081300866
% es.EZ (V/m) @ t=0.78
0.6655857185038607
% es.tEX (V/m) @ t=0.78
1.6464147466625798
% es.tEY (V/m) @ t=0.78
0
% es.tEZ (V/m) @ t=0.78
0.6655857185038592
% es.Ex (V/m) @ t=0.78
1.6464147466625692
% es.Ey (V/m) @ t=0.78
0.1036686081300866
% es.Ez (V/m) @ t=0.78
0.6655857185038607
% es.tEx (V/m) @ t=0.78
1.6464147466625798
% es.tEy (V/m) @ t=0.78
0
% es.tEz (V/m) @ t=0.78
0.6655857185038592
% V (V) @ t=0.78
0.008886809651752382
% es.normE (V/m) @ t=0.8
1.7972011771181524
% es.EX (V/m) @ t=0.8
1.6608485334789078
% es.EY (V/m) @ t=0.8
0.10457744605612462
% es.EZ (V/m) @ t=0.8
0.6714207700410106
% es.tEX (V/m) @ t=0.8
1.6608485334789114
% es.tEY (V/m) @ t=0.8
0
% es.tEZ (V/m) @ t=0.8
0.6714207700410086
% es.Ex (V/m) @ t=0.8
1.6608485334789078
% es.Ey (V/m) @ t=0.8
0.10457744605612462
% es.Ez (V/m) @ t=0.8
0.6714207700410106
% es.tEx (V/m) @ t=0.8
1.6608485334789114
% es.tEy (V/m) @ t=0.8
0
% es.tEz (V/m) @ t=0.8
0.6714207700410086
% V (V) @ t=0.8
0.008964718684019105
% es.normE (V/m) @ t=0.82
1.813232015242187
% es.EX (V/m) @ t=0.82
1.675663121632359
% es.EY (V/m) @ t=0.82
0.10551026366394234
% es.EZ (V/m) @ t=0.82
0.6774097681187421
% es.tEX (V/m) @ t=0.82
1.6756631216323674
% es.tEY (V/m) @ t=0.82
0
% es.tEZ (V/m) @ t=0.82
0.6774097681187441
% es.Ex (V/m) @ t=0.82
1.675663121632359
% es.Ey (V/m) @ t=0.82
0.10551026366394234
% es.Ez (V/m) @ t=0.82
0.6774097681187421
% es.tEx (V/m) @ t=0.82
1.6756631216323674
% es.tEy (V/m) @ t=0.82
0
% es.tEz (V/m) @ t=0.82
0.6774097681187441
% V (V) @ t=0.82
0.009044683074105097
% es.normE (V/m) @ t=0.84
1.8306917807047989
% es.EX (V/m) @ t=0.84
1.6917982224273262
% es.EY (V/m) @ t=0.84
0.10652623610824963
% es.EZ (V/m) @ t=0.84
0.6839326097866956
% es.tEX (V/m) @ t=0.84
1.6917982224273338
% es.tEY (V/m) @ t=0.84
0
% es.tEZ (V/m) @ t=0.84
0.6839326097866985
% es.Ex (V/m) @ t=0.84
1.6917982224273262
% es.Ey (V/m) @ t=0.84
0.10652623610824963
% es.Ez (V/m) @ t=0.84
0.6839326097866956
% es.tEx (V/m) @ t=0.84
1.6917982224273338
% es.tEy (V/m) @ t=0.84
0
% es.tEz (V/m) @ t=0.84
0.6839326097866985
% V (V) @ t=0.84
0.009131774870843193
% es.normE (V/m) @ t=0.86
1.84815154616742
% es.EX (V/m) @ t=0.86
1.7079333232223028
% es.EY (V/m) @ t=0.86
0.10754220855255714
% es.EZ (V/m) @ t=0.86
0.690455451454651
% es.tEX (V/m) @ t=0.86
1.7079333232222993
% es.tEY (V/m) @ t=0.86
0
% es.tEZ (V/m) @ t=0.86
0.6904554514546493
% es.Ex (V/m) @ t=0.86
1.7079333232223028
% es.Ey (V/m) @ t=0.86
0.10754220855255714
% es.Ez (V/m) @ t=0.86
0.690455451454651
% es.tEx (V/m) @ t=0.86
1.7079333232222993
% es.tEy (V/m) @ t=0.86
0
% es.tEz (V/m) @ t=0.86
0.6904554514546493
% V (V) @ t=0.86
0.009218866667581292
% es.normE (V/m) @ t=0.88
1.8656113116300346
% es.EX (V/m) @ t=0.88
1.7240684240172781
% es.EY (V/m) @ t=0.88
0.10855818099687597
% es.EZ (V/m) @ t=0.88
0.6969782931225899
% es.tEX (V/m) @ t=0.88
1.7240684240172843
% es.tEY (V/m) @ t=0.88
0
% es.tEZ (V/m) @ t=0.88
0.6969782931225916
% es.Ex (V/m) @ t=0.88
1.7240684240172781
% es.Ey (V/m) @ t=0.88
0.10855818099687597
% es.Ez (V/m) @ t=0.88
0.6969782931225899
% es.tEx (V/m) @ t=0.88
1.7240684240172843
% es.tEy (V/m) @ t=0.88
0
% es.tEz (V/m) @ t=0.88
0.6969782931225916
% V (V) @ t=0.88
0.009305958464319388
% es.normE (V/m) @ t=0.9
1.8830710770926535
% es.EX (V/m) @ t=0.9
1.7402035248122543
% es.EY (V/m) @ t=0.9
0.10957415344118948
% es.EZ (V/m) @ t=0.9
0.7035011347905389
% es.tEX (V/m) @ t=0.9
1.740203524812257
% es.tEY (V/m) @ t=0.9
0
% es.tEZ (V/m) @ t=0.9
0.7035011347905407
% es.Ex (V/m) @ t=0.9
1.7402035248122543
% es.Ey (V/m) @ t=0.9
0.10957415344118948
% es.Ez (V/m) @ t=0.9
0.7035011347905389
% es.tEx (V/m) @ t=0.9
1.740203524812257
% es.tEy (V/m) @ t=0.9
0
% es.tEz (V/m) @ t=0.9
0.7035011347905407
% V (V) @ t=0.9
0.009393050261057485
% es.normE (V/m) @ t=0.92
1.9005308425552734
% es.EX (V/m) @ t=0.92
1.756338625607234
% es.EY (V/m) @ t=0.92
0.11059012588550399
% es.EZ (V/m) @ t=0.92
0.7100239764584815
% es.tEX (V/m) @ t=0.92
1.7563386256072224
% es.tEY (V/m) @ t=0.92
0
% es.tEZ (V/m) @ t=0.92
0.7100239764584866
% es.Ex (V/m) @ t=0.92
1.756338625607234
% es.Ey (V/m) @ t=0.92
0.11059012588550399
% es.Ez (V/m) @ t=0.92
0.7100239764584815
% es.tEx (V/m) @ t=0.92
1.7563386256072224
% es.tEy (V/m) @ t=0.92
0
% es.tEz (V/m) @ t=0.92
0.7100239764584866
% V (V) @ t=0.92
0.009480142057795581
% es.normE (V/m) @ t=0.94
1.9179906080178983
% es.EX (V/m) @ t=0.94
1.772473726402212
% es.EY (V/m) @ t=0.94
0.11160609832981938
% es.EZ (V/m) @ t=0.94
0.7165468181264412
% es.tEX (V/m) @ t=0.94
1.7724737264022021
% es.tEY (V/m) @ t=0.94
0
% es.tEZ (V/m) @ t=0.94
0.7165468181264396
% es.Ex (V/m) @ t=0.94
1.772473726402212
% es.Ey (V/m) @ t=0.94
0.11160609832981938
% es.Ez (V/m) @ t=0.94
0.7165468181264412
% es.tEx (V/m) @ t=0.94
1.7724737264022021
% es.tEy (V/m) @ t=0.94
0
% es.tEz (V/m) @ t=0.94
0.7165468181264396
% V (V) @ t=0.94
0.009567233854533678
% es.normE (V/m) @ t=0.96
1.9354503734804953
% es.EX (V/m) @ t=0.96
1.7886088271971667
% es.EY (V/m) @ t=0.96
0.11262207077413289
% es.EZ (V/m) @ t=0.96
0.7230696597943849
% es.tEX (V/m) @ t=0.96
1.7886088271971747
% es.tEY (V/m) @ t=0.96
0
% es.tEZ (V/m) @ t=0.96
0.7230696597943851
% es.Ex (V/m) @ t=0.96
1.7886088271971667
% es.Ey (V/m) @ t=0.96
0.11262207077413289
% es.Ez (V/m) @ t=0.96
0.7230696597943849
% es.tEx (V/m) @ t=0.96
1.7886088271971747
% es.tEy (V/m) @ t=0.96
0
% es.tEz (V/m) @ t=0.96
0.7230696597943851
% V (V) @ t=0.96
0.009654325651271774
% es.normE (V/m) @ t=0.98
1.9529101389431247
% es.EX (V/m) @ t=0.98
1.8047439279921544
% es.EY (V/m) @ t=0.98
0.11363804321843929
% es.EZ (V/m) @ t=0.98
0.729592501462333
% es.tEX (V/m) @ t=0.98
1.804743927992158
% es.tEY (V/m) @ t=0.98
0
% es.tEZ (V/m) @ t=0.98
0.7295925014623323
% es.Ex (V/m) @ t=0.98
1.8047439279921544
% es.Ey (V/m) @ t=0.98
0.11363804321843929
% es.Ez (V/m) @ t=0.98
0.729592501462333
% es.tEx (V/m) @ t=0.98
1.804743927992158
% es.tEy (V/m) @ t=0.98
0
% es.tEz (V/m) @ t=0.98
0.7295925014623323
% V (V) @ t=0.98
0.009741417448009873
% es.normE (V/m) @ t=1
1.9703699044057417
% es.EX (V/m) @ t=1
1.8208790287871306
% es.EY (V/m) @ t=1
0.1146540156627619
% es.EZ (V/m) @ t=1
0.7361153431302743
% es.tEX (V/m) @ t=1
1.820879028787127
% es.tEY (V/m) @ t=1
0
% es.tEZ (V/m) @ t=1
0.736115343130276
% es.Ex (V/m) @ t=1
1.8208790287871306
% es.Ey (V/m) @ t=1
0.1146540156627619
% es.Ez (V/m) @ t=1
0.7361153431302743
% es.tEx (V/m) @ t=1
1.820879028787127
% es.tEy (V/m) @ t=1
0
% es.tEz (V/m) @ t=1
0.736115343130276
% V (V) @ t=1
0.009828509244747968
% es.normE (V/m) @ t=1.02
1.9878296698683564
% es.EX (V/m) @ t=1.02
1.8370141295820988
% es.EY (V/m) @ t=1.02
0.11566998810707452
% es.EZ (V/m) @ t=1.02
0.7426381847982326
% es.tEX (V/m) @ t=1.02
1.8370141295820908
% es.tEY (V/m) @ t=1.02
0
% es.tEZ (V/m) @ t=1.02
0.7426381847982326
% es.Ex (V/m) @ t=1.02
1.8370141295820988
% es.Ey (V/m) @ t=1.02
0.11566998810707452
% es.Ez (V/m) @ t=1.02
0.7426381847982326
% es.tEx (V/m) @ t=1.02
1.8370141295820908
% es.tEy (V/m) @ t=1.02
0
% es.tEz (V/m) @ t=1.02
0.7426381847982326
% V (V) @ t=1.02
0.009915601041486066
% es.normE (V/m) @ t=1.04
2.005289435330967
% es.EX (V/m) @ t=1.04
1.8531492303770696
% es.EY (V/m) @ t=1.04
0.11668596055137903
% es.EZ (V/m) @ t=1.04
0.7491610264661714
% es.tEX (V/m) @ t=1.04
1.8531492303770722
% es.tEY (V/m) @ t=1.04
0
% es.tEZ (V/m) @ t=1.04
0.7491610264661723
% es.Ex (V/m) @ t=1.04
1.8531492303770696
% es.Ey (V/m) @ t=1.04
0.11668596055137903
% es.Ez (V/m) @ t=1.04
0.7491610264661714