% Model:              1 neuron.mph
% Version:            COMSOL 6.0.0.405
% Date:               Mar 16 2023, 17:25
% Dimension:          0
% Nodes:              14017
% Expressions:        14017
% Description:        Electric field norm, Electric field, X component, Electric field, Y component, Electric field, Z component, Tangential electric field, X component, Tangential electric field, Y component, Tangential electric field, Z component, Electric field, x component, Electric field, y component, Electric field, z component, Tangential electric field, x component, Tangential electric field, y component, Tangential electric field, z component, Electric potential
% Length unit:        mm
% x
1.33
% y
12.2
% z
2
% es.normE (V/m) @ t=0
1.4770284778240632
% es.EX (V/m) @ t=0
0.5886538010407356
% es.EY (V/m) @ t=0
0.1556286588090372
% es.EZ (V/m) @ t=0
-1.344494735675899
% es.tEX (V/m) @ t=0
0.5886538010407358
% es.tEY (V/m) @ t=0
0
% es.tEZ (V/m) @ t=0
-1.3444947356759034
% es.Ex (V/m) @ t=0
0.5886538010407356
% es.Ey (V/m) @ t=0
0.1556286588090372
% es.Ez (V/m) @ t=0
-1.344494735675899
% es.tEx (V/m) @ t=0
0.5886538010407358
% es.tEy (V/m) @ t=0
0
% es.tEz (V/m) @ t=0
-1.3444947356759034
% V (V) @ t=0
0.00738527700746035
% es.normE (V/m) @ t=0.02
1.275737037618238
% es.EX (V/m) @ t=0.02
0.5084312642106561
% es.EY (V/m) @ t=0.02
0.13441937545028182
% es.EZ (V/m) @ t=0.02
-1.1612651731853871
% es.tEX (V/m) @ t=0.02
0.5084312642106563
% es.tEY (V/m) @ t=0.02
0
% es.tEZ (V/m) @ t=0.02
-1.1612651731853898
% es.Ex (V/m) @ t=0.02
0.5084312642106561
% es.Ey (V/m) @ t=0.02
0.13441937545028182
% es.Ez (V/m) @ t=0.02
-1.1612651731853871
% es.tEx (V/m) @ t=0.02
0.5084312642106563
% es.tEy (V/m) @ t=0.02
0
% es.tEz (V/m) @ t=0.02
-1.1612651731853898
% V (V) @ t=0.02
0.006378801442718036
% es.normE (V/m) @ t=0.04
1.2874703877629603
% es.EX (V/m) @ t=0.04
0.5131074644375129
% es.EY (V/m) @ t=0.04
0.13565567586810223
% es.EZ (V/m) @ t=0.04
-1.1719456897763054
% es.tEX (V/m) @ t=0.04
0.5131074644375166
% es.tEY (V/m) @ t=0.04
0
% es.tEZ (V/m) @ t=0.04
-1.1719456897763099
% es.Ex (V/m) @ t=0.04
0.5131074644375129
% es.Ey (V/m) @ t=0.04
0.13565567586810223
% es.Ez (V/m) @ t=0.04
-1.1719456897763054
% es.tEx (V/m) @ t=0.04
0.5131074644375166
% es.tEy (V/m) @ t=0.04
0
% es.tEz (V/m) @ t=0.04
-1.1719456897763099
% V (V) @ t=0.04
0.006437469192887094
% es.normE (V/m) @ t=0.06
1.2993099233041772
% es.EX (V/m) @ t=0.06
0.517825983352634
% es.EY (V/m) @ t=0.06
0.13690317194702661
% es.EZ (V/m) @ t=0.06
-1.182722863291061
% es.tEX (V/m) @ t=0.06
0.5178259833526306
% es.tEY (V/m) @ t=0.06
0
% es.tEZ (V/m) @ t=0.06
-1.1827228632910654
% es.Ex (V/m) @ t=0.06
0.517825983352634
% es.Ey (V/m) @ t=0.06
0.13690317194702661
% es.Ez (V/m) @ t=0.06
-1.182722863291061
% es.tEx (V/m) @ t=0.06
0.5178259833526306
% es.tEy (V/m) @ t=0.06
0
% es.tEz (V/m) @ t=0.06
-1.1827228632910654
% V (V) @ t=0.06
0.006496667738341967
% es.normE (V/m) @ t=0.08
1.3113292231354015
% es.EX (V/m) @ t=0.08
0.5226161457726148
% es.EY (V/m) @ t=0.08
0.13816960131709388
% es.EZ (V/m) @ t=0.08
-1.1936636713339075
% es.tEX (V/m) @ t=0.08
0.5226161457726115
% es.tEY (V/m) @ t=0.08
0
% es.tEZ (V/m) @ t=0.08
-1.1936636713339048
% es.Ex (V/m) @ t=0.08
0.5226161457726148
% es.Ey (V/m) @ t=0.08
0.13816960131709388
% es.Ez (V/m) @ t=0.08
-1.1936636713339075
% es.tEx (V/m) @ t=0.08
0.5226161457726115
% es.tEy (V/m) @ t=0.08
0
% es.tEz (V/m) @ t=0.08
-1.1936636713339048
% V (V) @ t=0.08
0.006556765271783126
% es.normE (V/m) @ t=0.1
1.323475517410591
% es.EX (V/m) @ t=0.1
0.527456920731143
% es.EY (V/m) @ t=0.1
0.13944940610665268
% es.EZ (V/m) @ t=0.1
-1.2047200789538968
% es.tEX (V/m) @ t=0.1
0.5274569207311433
% es.tEY (V/m) @ t=0.1
0
% es.tEZ (V/m) @ t=0.1
-1.2047200789538959
% es.Ex (V/m) @ t=0.1
0.527456920731143
% es.Ey (V/m) @ t=0.1
0.13944940610665268
% es.Ez (V/m) @ t=0.1
-1.2047200789538968
% es.tEx (V/m) @ t=0.1
0.5274569207311433
% es.tEy (V/m) @ t=0.1
0
% es.tEz (V/m) @ t=0.1
-1.2047200789538959
% V (V) @ t=0.1
0.006617497895093662
% es.normE (V/m) @ t=0.12
1.3356218116857819
% es.EX (V/m) @ t=0.12
0.5322976956896952
% es.EY (V/m) @ t=0.12
0.1407292108961955
% es.EZ (V/m) @ t=0.12
-1.215776486573879
% es.tEX (V/m) @ t=0.12
0.5322976956896954
% es.tEY (V/m) @ t=0.12
0
% es.tEZ (V/m) @ t=0.12
-1.2157764865738816
% es.Ex (V/m) @ t=0.12
0.5322976956896952
% es.Ey (V/m) @ t=0.12
0.1407292108961955
% es.Ez (V/m) @ t=0.12
-1.215776486573879
% es.tEx (V/m) @ t=0.12
0.5322976956896954
% es.tEy (V/m) @ t=0.12
0
% es.tEz (V/m) @ t=0.12
-1.2157764865738816
% V (V) @ t=0.12
0.006678230518404195
% es.normE (V/m) @ t=0.14
1.347886201578445
% es.EX (V/m) @ t=0.14
0.5371855363234312
% es.EY (V/m) @ t=0.14
0.14202146005105298
% es.EZ (V/m) @ t=0.14
-1.226940393028415
% es.tEX (V/m) @ t=0.14
0.5371855363234279
% es.tEY (V/m) @ t=0.14
0
% es.tEZ (V/m) @ t=0.14
-1.2269403930284195
% es.Ex (V/m) @ t=0.14
0.5371855363234312
% es.Ey (V/m) @ t=0.14
0.14202146005105298
% es.Ez (V/m) @ t=0.14
-1.226940393028415
% es.tEx (V/m) @ t=0.14
0.5371855363234279
% es.tEy (V/m) @ t=0.14
0
% es.tEz (V/m) @ t=0.14
-1.2269403930284195
% V (V) @ t=0.14
0.006739553608575781
% es.normE (V/m) @ t=0.16
1.3606813848482315
% es.EX (V/m) @ t=0.16
0.5422849186656127
% es.EY (V/m) @ t=0.16
0.14336964173603484
% es.EZ (V/m) @ t=0.16
-1.238587464486458
% es.tEX (V/m) @ t=0.16
0.5422849186656094
% es.tEY (V/m) @ t=0.16
0
% es.tEZ (V/m) @ t=0.16
-1.2385874644864625
% es.Ex (V/m) @ t=0.16
0.5422849186656127
% es.Ey (V/m) @ t=0.16
0.14336964173603484
% es.Ez (V/m) @ t=0.16
-1.238587464486458
% es.tEx (V/m) @ t=0.16
0.5422849186656094
% es.tEy (V/m) @ t=0.16
0
% es.tEz (V/m) @ t=0.16
-1.2385874644864625
% V (V) @ t=0.16
0.006803530615175303
% es.normE (V/m) @ t=0.18
1.3734765681180194
% es.EX (V/m) @ t=0.18
0.5473843010078008
% es.EY (V/m) @ t=0.18
0.14471782342102735
% es.EZ (V/m) @ t=0.18
-1.2502345359444993
% es.tEX (V/m) @ t=0.18
0.5473843010077974
% es.tEY (V/m) @ t=0.18
0
% es.tEZ (V/m) @ t=0.18
-1.250234535944502
% es.Ex (V/m) @ t=0.18
0.5473843010078008
% es.Ey (V/m) @ t=0.18
0.14471782342102735
% es.Ez (V/m) @ t=0.18
-1.2502345359444993
% es.tEx (V/m) @ t=0.18
0.5473843010077974
% es.tEy (V/m) @ t=0.18
0
% es.tEz (V/m) @ t=0.18
-1.250234535944502
% V (V) @ t=0.18
0.006867507621774829
% es.normE (V/m) @ t=0.2
1.3862717513878
% es.EX (V/m) @ t=0.2
0.5524836833499787
% es.EY (V/m) @ t=0.2
0.1460660051060123
% es.EZ (V/m) @ t=0.2
-1.261881607402537
% es.tEX (V/m) @ t=0.2
0.5524836833499789
% es.tEY (V/m) @ t=0.2
0
% es.tEZ (V/m) @ t=0.2
-1.2618816074025414
% es.Ex (V/m) @ t=0.2
0.5524836833499787
% es.Ey (V/m) @ t=0.2
0.1460660051060123
% es.Ez (V/m) @ t=0.2
-1.261881607402537
% es.tEx (V/m) @ t=0.2
0.5524836833499789
% es.tEy (V/m) @ t=0.2
0
% es.tEz (V/m) @ t=0.2
-1.2618816074025414
% V (V) @ t=0.2
0.006931484628374354
% es.normE (V/m) @ t=0.22
1.3990669346575886
% es.EX (V/m) @ t=0.22
0.5575830656921601
% es.EY (V/m) @ t=0.22
0.14741418679101548
% es.EZ (V/m) @ t=0.22
-1.27352867886058
% es.tEX (V/m) @ t=0.22
0.5575830656921603
% es.tEY (V/m) @ t=0.22
0
% es.tEZ (V/m) @ t=0.22
-1.2735286788605826
% es.Ex (V/m) @ t=0.22
0.5575830656921601
% es.Ey (V/m) @ t=0.22
0.14741418679101548
% es.Ez (V/m) @ t=0.22
-1.27352867886058
% es.tEx (V/m) @ t=0.22
0.5575830656921603
% es.tEy (V/m) @ t=0.22
0
% es.tEz (V/m) @ t=0.22
-1.2735286788605826
% V (V) @ t=0.22
0.006995461634973877
% es.normE (V/m) @ t=0.24
1.4118621179273683
% es.EX (V/m) @ t=0.24
0.5626824480343415
% es.EY (V/m) @ t=0.24
0.14876236847599555
% es.EZ (V/m) @ t=0.24
-1.2851757503186159
% es.tEX (V/m) @ t=0.24
0.5626824480343418
% es.tEY (V/m) @ t=0.24
0
% es.tEZ (V/m) @ t=0.24
-1.2851757503186185
% es.Ex (V/m) @ t=0.24
0.5626824480343415
% es.Ey (V/m) @ t=0.24
0.14876236847599555
% es.Ez (V/m) @ t=0.24
-1.2851757503186159
% es.tEx (V/m) @ t=0.24
0.5626824480343418
% es.tEy (V/m) @ t=0.24
0
% es.tEz (V/m) @ t=0.24
-1.2851757503186185
% V (V) @ t=0.24
0.007059438641573402
% es.normE (V/m) @ t=0.26
1.4246573011971515
% es.EX (V/m) @ t=0.26
0.5677818303765225
% es.EY (V/m) @ t=0.26
0.15011055016098274
% es.EZ (V/m) @ t=0.26
-1.2968228217766553
% es.tEX (V/m) @ t=0.26
0.5677818303765227
% es.tEY (V/m) @ t=0.26
0
% es.tEZ (V/m) @ t=0.26
-1.2968228217766544
% es.Ex (V/m) @ t=0.26
0.5677818303765225
% es.Ey (V/m) @ t=0.26
0.15011055016098274
% es.Ez (V/m) @ t=0.26
-1.2968228217766553
% es.tEx (V/m) @ t=0.26
0.5677818303765227
% es.tEy (V/m) @ t=0.26
0
% es.tEz (V/m) @ t=0.26
-1.2968228217766544
% V (V) @ t=0.26
0.007123415648172928
% es.normE (V/m) @ t=0.28
1.4379983696266985
% es.EX (V/m) @ t=0.28
0.5730987706374424
% es.EY (V/m) @ t=0.28
0.15151622953978672
% es.EZ (V/m) @ t=0.28
-1.3089667972629888
% es.tEX (V/m) @ t=0.28
0.5730987706374426
% es.tEY (V/m) @ t=0.28
0
% es.tEZ (V/m) @ t=0.28
-1.3089667972629933
% es.Ex (V/m) @ t=0.28
0.5730987706374424
% es.Ey (V/m) @ t=0.28
0.15151622953978672
% es.Ez (V/m) @ t=0.28
-1.3089667972629888
% es.tEx (V/m) @ t=0.28
0.5730987706374426
% es.tEy (V/m) @ t=0.28
0
% es.tEz (V/m) @ t=0.28
-1.3089667972629933
% V (V) @ t=0.28
0.0071901225434119155
% es.normE (V/m) @ t=0.3
1.4522532716517718
% es.EX (V/m) @ t=0.3
0.5787799115576988
% es.EY (V/m) @ t=0.3
0.1530181623581921
% es.EZ (V/m) @ t=0.3
-1.321942609971292
% es.tEX (V/m) @ t=0.3
0.578779911557699
% es.tEY (V/m) @ t=0.3
0
% es.tEZ (V/m) @ t=0.3
-1.3219426099712983
% es.Ex (V/m) @ t=0.3
0.5787799115576988
% es.Ey (V/m) @ t=0.3
0.1530181623581921
% es.Ez (V/m) @ t=0.3
-1.321942609971292
% es.tEx (V/m) @ t=0.3
0.578779911557699
% es.tEy (V/m) @ t=0.3
0
% es.tEz (V/m) @ t=0.3
-1.3219426099712983
% V (V) @ t=0.3
0.007261399381442315
% es.normE (V/m) @ t=0.32
1.4665081736768442
% es.EX (V/m) @ t=0.32
0.5844610524779517
% es.EY (V/m) @ t=0.32
0.15452009517660503
% es.EZ (V/m) @ t=0.32
-1.3349184226795918
% es.tEX (V/m) @ t=0.32
0.5844610524779483
% es.tEY (V/m) @ t=0.32
0
% es.tEZ (V/m) @ t=0.32
-1.3349184226795945
% es.Ex (V/m) @ t=0.32
0.5844610524779517
% es.Ey (V/m) @ t=0.32
0.15452009517660503
% es.Ez (V/m) @ t=0.32
-1.3349184226795918
% es.tEx (V/m) @ t=0.32
0.5844610524779483
% es.tEy (V/m) @ t=0.32
0
% es.tEz (V/m) @ t=0.32
-1.3349184226795945
% V (V) @ t=0.32
0.007332676219472713
% es.normE (V/m) @ t=0.34
1.4807630757019146
% es.EX (V/m) @ t=0.34
0.5901421933981938
% es.EY (V/m) @ t=0.34
0.15602202799502152
% es.EZ (V/m) @ t=0.34
-1.3478942353878915
% es.tEX (V/m) @ t=0.34
0.5901421933981905
% es.tEY (V/m) @ t=0.34
0
% es.tEZ (V/m) @ t=0.34
-1.3478942353878942
% es.Ex (V/m) @ t=0.34
0.5901421933981938
% es.Ey (V/m) @ t=0.34
0.15602202799502152
% es.Ez (V/m) @ t=0.34
-1.3478942353878915
% es.tEx (V/m) @ t=0.34
0.5901421933981905
% es.tEy (V/m) @ t=0.34
0
% es.tEz (V/m) @ t=0.34
-1.3478942353878942
% V (V) @ t=0.34
0.007403953057503114
% es.normE (V/m) @ t=0.36
1.495017977726993
% es.EX (V/m) @ t=0.36
0.5958233343184534
% es.EY (V/m) @ t=0.36
0.15752396081343267
% es.EZ (V/m) @ t=0.36
-1.3608700480961895
% es.tEX (V/m) @ t=0.36
0.5958233343184536
% es.tEY (V/m) @ t=0.36
0
% es.tEZ (V/m) @ t=0.36
-1.360870048096194
% es.Ex (V/m) @ t=0.36
0.5958233343184534
% es.Ey (V/m) @ t=0.36
0.15752396081343267
% es.Ez (V/m) @ t=0.36
-1.3608700480961895
% es.tEx (V/m) @ t=0.36
0.5958233343184536
% es.tEy (V/m) @ t=0.36
0
% es.tEz (V/m) @ t=0.36
-1.360870048096194
% V (V) @ t=0.36
0.007475229895533512
% es.normE (V/m) @ t=0.38
1.5092728797520762
% es.EX (V/m) @ t=0.38
0.6015044752387098
% es.EY (V/m) @ t=0.38
0.15902589363183983
% es.EZ (V/m) @ t=0.38
-1.3738458608044928
% es.tEX (V/m) @ t=0.38
0.60150447523871
% es.tEY (V/m) @ t=0.38
0
% es.tEZ (V/m) @ t=0.38
-1.3738458608044954
% es.Ex (V/m) @ t=0.38
0.6015044752387098
% es.Ey (V/m) @ t=0.38
0.15902589363183983
% es.Ez (V/m) @ t=0.38
-1.3738458608044928
% es.tEx (V/m) @ t=0.38
0.60150447523871
% es.tEy (V/m) @ t=0.38
0
% es.tEz (V/m) @ t=0.38
-1.3738458608044954
% V (V) @ t=0.38
0.007546506733563912
% es.normE (V/m) @ t=0.4
1.5235277817771578
% es.EX (V/m) @ t=0.4
0.6071856161589595
% es.EY (V/m) @ t=0.4
0.16052782645024521
% es.EZ (V/m) @ t=0.4
-1.3868216735127943
% es.tEX (V/m) @ t=0.4
0.6071856161589597
% es.tEY (V/m) @ t=0.4
0
% es.tEZ (V/m) @ t=0.4
-1.3868216735127934
% es.Ex (V/m) @ t=0.4
0.6071856161589595
% es.Ey (V/m) @ t=0.4
0.16052782645024521
% es.Ez (V/m) @ t=0.4
-1.3868216735127943
% es.tEx (V/m) @ t=0.4
0.6071856161589597
% es.tEy (V/m) @ t=0.4
0
% es.tEz (V/m) @ t=0.4
-1.3868216735127934
% V (V) @ t=0.4
0.007617783571594311
% es.normE (V/m) @ t=0.42
1.5377826838022393
% es.EX (V/m) @ t=0.42
0.6128667570792083
% es.EY (V/m) @ t=0.42
0.16202975926866214
% es.EZ (V/m) @ t=0.42
-1.3997974862210922
% es.tEX (V/m) @ t=0.42
0.6128667570792086
% es.tEY (V/m) @ t=0.42
0
% es.tEZ (V/m) @ t=0.42
-1.399797486221095
% es.Ex (V/m) @ t=0.42
0.6128667570792083
% es.Ey (V/m) @ t=0.42
0.16202975926866214
% es.Ez (V/m) @ t=0.42
-1.3997974862210922
% es.tEx (V/m) @ t=0.42
0.6128667570792086
% es.tEy (V/m) @ t=0.42
0
% es.tEz (V/m) @ t=0.42
-1.399797486221095
% V (V) @ t=0.42
0.007689060409624712
% es.normE (V/m) @ t=0.44
1.5520375858273288
% es.EX (V/m) @ t=0.44
0.6185478979994647
% es.EY (V/m) @ t=0.44
0.16353169208707463
% es.EZ (V/m) @ t=0.44
-1.4127732989293937
% es.tEX (V/m) @ t=0.44
0.618547897999465
% es.tEY (V/m) @ t=0.44
0
% es.tEZ (V/m) @ t=0.44
-1.4127732989293964
% es.Ex (V/m) @ t=0.44
0.6185478979994647
% es.Ey (V/m) @ t=0.44
0.16353169208707463
% es.Ez (V/m) @ t=0.44
-1.4127732989293937
% es.tEx (V/m) @ t=0.44
0.618547897999465
% es.tEy (V/m) @ t=0.44
0
% es.tEz (V/m) @ t=0.44
-1.4127732989293964
% V (V) @ t=0.44
0.00776033724765511
% es.normE (V/m) @ t=0.46
1.5662924878524205
% es.EX (V/m) @ t=0.46
0.6242290389197216
% es.EY (V/m) @ t=0.46
0.16503362490548357
% es.EZ (V/m) @ t=0.46
-1.4257491116376952
% es.tEX (V/m) @ t=0.46
0.6242290389197218
% es.tEY (V/m) @ t=0.46
0
% es.tEZ (V/m) @ t=0.46
-1.4257491116377015
% es.Ex (V/m) @ t=0.46
0.6242290389197216
% es.Ey (V/m) @ t=0.46
0.16503362490548357
% es.Ez (V/m) @ t=0.46
-1.4257491116376952
% es.tEx (V/m) @ t=0.46
0.6242290389197218
% es.tEy (V/m) @ t=0.46
0
% es.tEz (V/m) @ t=0.46
-1.4257491116377015
% V (V) @ t=0.46
0.00783161408568551
% es.normE (V/m) @ t=0.48
1.580547389877506
% es.EX (V/m) @ t=0.48
0.6299101798399669
% es.EY (V/m) @ t=0.48
0.1665355577238934
% es.EZ (V/m) @ t=0.48
-1.4387249243459932
% es.tEX (V/m) @ t=0.48
0.6299101798399636
% es.tEY (V/m) @ t=0.48
0
% es.tEZ (V/m) @ t=0.48
-1.438724924345994
% es.Ex (V/m) @ t=0.48
0.6299101798399669
% es.Ey (V/m) @ t=0.48
0.1665355577238934
% es.Ez (V/m) @ t=0.48
-1.4387249243459932
% es.tEx (V/m) @ t=0.48
0.6299101798399636
% es.tEy (V/m) @ t=0.48
0
% es.tEz (V/m) @ t=0.48
-1.438724924345994
% V (V) @ t=0.48
0.007902890923715909
% es.normE (V/m) @ t=0.5
1.594802291902607
% es.EX (V/m) @ t=0.5
0.6355913207602268
% es.EY (V/m) @ t=0.5
0.1680374905423041
% es.EZ (V/m) @ t=0.5
-1.4517007370542991
% es.tEX (V/m) @ t=0.5
0.6355913207602271
% es.tEY (V/m) @ t=0.5
0
% es.tEZ (V/m) @ t=0.5
-1.4517007370543027
% es.Ex (V/m) @ t=0.5
0.6355913207602268
% es.Ey (V/m) @ t=0.5
0.1680374905423041
% es.Ez (V/m) @ t=0.5
-1.4517007370542991
% es.tEx (V/m) @ t=0.5
0.6355913207602271
% es.tEy (V/m) @ t=0.5
0
% es.tEz (V/m) @ t=0.5
-1.4517007370543027
% V (V) @ t=0.5
0.00797416776174631
% es.normE (V/m) @ t=0.52
1.6090571939276956
% es.EX (V/m) @ t=0.52
0.6412724616804686
% es.EY (V/m) @ t=0.52
0.16953942336073302
% es.EZ (V/m) @ t=0.52
-1.4646765497625944
% es.tEX (V/m) @ t=0.52
0.6412724616804688
% es.tEY (V/m) @ t=0.52
0
% es.tEZ (V/m) @ t=0.52
-1.464676549762597
% es.Ex (V/m) @ t=0.52
0.6412724616804686
% es.Ey (V/m) @ t=0.52
0.16953942336073302
% es.Ez (V/m) @ t=0.52
-1.4646765497625944
% es.tEx (V/m) @ t=0.52
0.6412724616804688
% es.tEy (V/m) @ t=0.52
0
% es.tEz (V/m) @ t=0.52
-1.464676549762597
% V (V) @ t=0.52
0.008045444599776708
% es.normE (V/m) @ t=0.54
1.6233120959527954
% es.EX (V/m) @ t=0.54
0.6469536026007254
% es.EY (V/m) @ t=0.54
0.17104135617914373
% es.EZ (V/m) @ t=0.54
-1.477652362470896
% es.tEX (V/m) @ t=0.54
0.6469536026007257
% es.tEY (V/m) @ t=0.54
0
% es.tEZ (V/m) @ t=0.54
-1.4776523624708986
% es.Ex (V/m) @ t=0.54
0.6469536026007254
% es.Ey (V/m) @ t=0.54
0.17104135617914373
% es.Ez (V/m) @ t=0.54
-1.477652362470896
% es.tEx (V/m) @ t=0.54
0.6469536026007257
% es.tEy (V/m) @ t=0.54
0
% es.tEz (V/m) @ t=0.54
-1.4776523624708986
% V (V) @ t=0.54
0.008116721437807109
% es.normE (V/m) @ t=0.56
1.6388213064428419
% es.EX (V/m) @ t=0.56
0.6531346329105612
% es.EY (V/m) @ t=0.56
0.1726754777256092
% es.EZ (V/m) @ t=0.56
-1.491769933041616
% es.tEX (V/m) @ t=0.56
0.6531346329105578
% es.tEY (V/m) @ t=0.56
0
% es.tEZ (V/m) @ t=0.56
-1.4917699330416223
% es.Ex (V/m) @ t=0.56
0.6531346329105612
% es.Ey (V/m) @ t=0.56
0.1726754777256092
% es.Ez (V/m) @ t=0.56
-1.491769933041616
% es.tEx (V/m) @ t=0.56
0.6531346329105578
% es.tEy (V/m) @ t=0.56
0
% es.tEz (V/m) @ t=0.56
-1.4917699330416223
% V (V) @ t=0.56
0.008194269369937198
% es.normE (V/m) @ t=0.58
1.6547311771178097
% es.EX (V/m) @ t=0.58
0.6594753414660983
% es.EY (V/m) @ t=0.58
0.17435182394144988
% es.EZ (V/m) @ t=0.58
-1.5062522120784623
% es.tEX (V/m) @ t=0.58
0.659475341466095
% es.tEY (V/m) @ t=0.58
0
% es.tEZ (V/m) @ t=0.58
-1.5062522120784667
% es.Ex (V/m) @ t=0.58
0.6594753414660983
% es.Ey (V/m) @ t=0.58
0.17435182394144988
% es.Ez (V/m) @ t=0.58
-1.5062522120784623
% es.tEx (V/m) @ t=0.58
0.659475341466095
% es.tEy (V/m) @ t=0.58
0
% es.tEz (V/m) @ t=0.58
-1.5062522120784667
% V (V) @ t=0.58
0.008273820459816603
% es.normE (V/m) @ t=0.6
1.6706410477927873
% es.EX (V/m) @ t=0.6
0.6658160500216532
% es.EY (V/m) @ t=0.6
0.17602817015729944
% es.EZ (V/m) @ t=0.6
-1.5207344911153102
% es.tEX (V/m) @ t=0.6
0.6658160500216534
% es.tEY (V/m) @ t=0.6
0
% es.tEZ (V/m) @ t=0.6
-1.5207344911153147
% es.Ex (V/m) @ t=0.6
0.6658160500216532
% es.Ey (V/m) @ t=0.6
0.17602817015729944
% es.Ez (V/m) @ t=0.6
-1.5207344911153102
% es.tEx (V/m) @ t=0.6
0.6658160500216534
% es.tEy (V/m) @ t=0.6
0
% es.tEz (V/m) @ t=0.6
-1.5207344911153147
% V (V) @ t=0.6
0.008353371549696006
% es.normE (V/m) @ t=0.62
1.6865509184677476
% es.EX (V/m) @ t=0.62
0.6721567585771904
% es.EY (V/m) @ t=0.62
0.1777045163731188
% es.EZ (V/m) @ t=0.62
-1.535216770152151
% es.tEX (V/m) @ t=0.62
0.6721567585771906
% es.tEY (V/m) @ t=0.62
0
% es.tEZ (V/m) @ t=0.62
-1.5352167701521555
% es.Ex (V/m) @ t=0.62
0.6721567585771904
% es.Ey (V/m) @ t=0.62
0.1777045163731188
% es.Ez (V/m) @ t=0.62
-1.535216770152151
% es.tEx (V/m) @ t=0.62
0.6721567585771906
% es.tEy (V/m) @ t=0.62
0
% es.tEz (V/m) @ t=0.62
-1.5352167701521555
% V (V) @ t=0.62
0.00843292263957541
% es.normE (V/m) @ t=0.64
1.7024607891427141
% es.EX (V/m) @ t=0.64
0.6784974671327411
% es.EY (V/m) @ t=0.64
0.1793808625889617
% es.EZ (V/m) @ t=0.64
-1.5496990491889902
% es.tEX (V/m) @ t=0.64
0.6784974671327415
% es.tEY (V/m) @ t=0.64
0
% es.tEZ (V/m) @ t=0.64
-1.5496990491889928
% es.Ex (V/m) @ t=0.64
0.6784974671327411
% es.Ey (V/m) @ t=0.64
0.1793808625889617
% es.Ez (V/m) @ t=0.64
-1.5496990491889902
% es.tEx (V/m) @ t=0.64
0.6784974671327415
% es.tEy (V/m) @ t=0.64
0
% es.tEz (V/m) @ t=0.64
-1.5496990491889928
% V (V) @ t=0.64
0.008512473729454817
% es.normE (V/m) @ t=0.66
1.7183706598176793
% es.EX (V/m) @ t=0.66
0.684838175688278
% es.EY (V/m) @ t=0.66
0.18105720880482012
% es.EZ (V/m) @ t=0.66
-1.564181328225831
% es.tEX (V/m) @ t=0.66
0.6848381756882782
% es.tEY (V/m) @ t=0.66
0
% es.tEZ (V/m) @ t=0.66
-1.5641813282258337
% es.Ex (V/m) @ t=0.66
0.684838175688278
% es.Ey (V/m) @ t=0.66
0.18105720880482012
% es.Ez (V/m) @ t=0.66
-1.564181328225831
% es.tEx (V/m) @ t=0.66
0.6848381756882782
% es.tEy (V/m) @ t=0.66
0
% es.tEz (V/m) @ t=0.66
-1.5641813282258337
% V (V) @ t=0.66
0.00859202481933422
% es.normE (V/m) @ t=0.68
1.7342805304926476
% es.EX (V/m) @ t=0.68
0.6911788842438293
% es.EY (V/m) @ t=0.68
0.18273355502065902
% es.EZ (V/m) @ t=0.68
-1.5786636072626719
% es.tEX (V/m) @ t=0.68
0.6911788842438296
% es.tEY (V/m) @ t=0.68
0
% es.tEZ (V/m) @ t=0.68
-1.578663607262678
% es.Ex (V/m) @ t=0.68
0.6911788842438293
% es.Ey (V/m) @ t=0.68
0.18273355502065902
% es.Ez (V/m) @ t=0.68
-1.5786636072626719
% es.tEx (V/m) @ t=0.68
0.6911788842438296
% es.tEy (V/m) @ t=0.68
0
% es.tEz (V/m) @ t=0.68
-1.578663607262678
% V (V) @ t=0.68
0.008671575909213625
% es.normE (V/m) @ t=0.7
1.7501904011676113
% es.EX (V/m) @ t=0.7
0.6975195927993629
% es.EY (V/m) @ t=0.7
0.18440990123650325
% es.EZ (V/m) @ t=0.7
-1.5931458862995145
% es.tEX (V/m) @ t=0.7
0.6975195927993596
% es.tEY (V/m) @ t=0.7
0
% es.tEZ (V/m) @ t=0.7
-1.593145886299519
% es.Ex (V/m) @ t=0.7
0.6975195927993629
% es.Ey (V/m) @ t=0.7
0.18440990123650325
% es.Ez (V/m) @ t=0.7
-1.5931458862995145
% es.tEx (V/m) @ t=0.7
0.6975195927993596
% es.tEy (V/m) @ t=0.7
0
% es.tEz (V/m) @ t=0.7
-1.593145886299519
% V (V) @ t=0.7
0.008751126999093032
% es.normE (V/m) @ t=0.72
1.7661002718425818
% es.EX (V/m) @ t=0.72
0.7038603013549107
% es.EY (V/m) @ t=0.72
0.18608624745234215
% es.EZ (V/m) @ t=0.72
-1.6076281653363589
% es.tEX (V/m) @ t=0.72
0.703860301354911
% es.tEY (V/m) @ t=0.72
0
% es.tEZ (V/m) @ t=0.72
-1.6076281653363598
% es.Ex (V/m) @ t=0.72
0.7038603013549107
% es.Ey (V/m) @ t=0.72
0.18608624745234215
% es.Ez (V/m) @ t=0.72
-1.6076281653363589
% es.tEx (V/m) @ t=0.72
0.703860301354911
% es.tEy (V/m) @ t=0.72
0
% es.tEz (V/m) @ t=0.72
-1.6076281653363598
% V (V) @ t=0.72
0.008830678088972435
% es.normE (V/m) @ t=0.74
1.7820101425175503
% es.EX (V/m) @ t=0.74
0.7102010099104616
% es.EY (V/m) @ t=0.74
0.18776259366818548
% es.EZ (V/m) @ t=0.74
-1.6221104443731997
% es.tEX (V/m) @ t=0.74
0.7102010099104619
% es.tEY (V/m) @ t=0.74
0
% es.tEZ (V/m) @ t=0.74
-1.6221104443732024
% es.Ex (V/m) @ t=0.74
0.7102010099104616
% es.Ey (V/m) @ t=0.74
0.18776259366818548
% es.Ez (V/m) @ t=0.74
-1.6221104443731997
% es.tEx (V/m) @ t=0.74
0.7102010099104619
% es.tEy (V/m) @ t=0.74
0
% es.tEz (V/m) @ t=0.74
-1.6221104443732024
% V (V) @ t=0.74
0.008910229178851842
% es.normE (V/m) @ t=0.76
1.7979200131925182
% es.EX (V/m) @ t=0.76
0.7165417184660023
% es.EY (V/m) @ t=0.76
0.18943893988402793
% es.EZ (V/m) @ t=0.76
-1.6365927234100432
% es.tEX (V/m) @ t=0.76
0.716541718465999
% es.tEY (V/m) @ t=0.76
0
% es.tEZ (V/m) @ t=0.76
-1.6365927234100504
% es.Ex (V/m) @ t=0.76
0.7165417184660023
% es.Ey (V/m) @ t=0.76
0.18943893988402793
% es.Ez (V/m) @ t=0.76
-1.6365927234100432
% es.tEx (V/m) @ t=0.76
0.716541718465999
% es.tEy (V/m) @ t=0.76
0
% es.tEz (V/m) @ t=0.76
-1.6365927234100504
% V (V) @ t=0.76
0.008989780268731243
% es.normE (V/m) @ t=0.78
1.8138298838674847
% es.EX (V/m) @ t=0.78
0.722882427021543
% es.EY (V/m) @ t=0.78
0.19111528609987571
% es.EZ (V/m) @ t=0.78
-1.6510750024468859
% es.tEX (V/m) @ t=0.78
0.7228824270215433
% es.tEY (V/m) @ t=0.78
0
% es.tEZ (V/m) @ t=0.78
-1.6510750024468877
% es.Ex (V/m) @ t=0.78
0.722882427021543
% es.Ey (V/m) @ t=0.78
0.19111528609987571
% es.Ez (V/m) @ t=0.78
-1.6510750024468859
% es.tEx (V/m) @ t=0.78
0.7228824270215433
% es.tEy (V/m) @ t=0.78
0
% es.tEz (V/m) @ t=0.78
-1.6510750024468877
% V (V) @ t=0.78
0.009069331358610652
% es.normE (V/m) @ t=0.8
1.8297397545424552
% es.EX (V/m) @ t=0.8
0.7292231355770944
% es.EY (V/m) @ t=0.8
0.19279163231569507
% es.EZ (V/m) @ t=0.8
-1.6655572814837303
% es.tEX (V/m) @ t=0.8
0.7292231355770946
% es.tEY (V/m) @ t=0.8
0
% es.tEZ (V/m) @ t=0.8
-1.6655572814837356
% es.Ex (V/m) @ t=0.8
0.7292231355770944
% es.Ey (V/m) @ t=0.8
0.19279163231569507
% es.Ez (V/m) @ t=0.8
-1.6655572814837303
% es.tEx (V/m) @ t=0.8
0.7292231355770946
% es.tEy (V/m) @ t=0.8
0
% es.tEz (V/m) @ t=0.8
-1.6655572814837356
% V (V) @ t=0.8
0.009148882448490055
% es.normE (V/m) @ t=0.82
1.8459163911191228
% es.EX (V/m) @ t=0.82
0.7356701658413922
% es.EY (V/m) @ t=0.82
0.19449599614927227
% es.EZ (V/m) @ t=0.82
-1.6802823949269108
% es.tEX (V/m) @ t=0.82
0.7356701658413924
% es.tEY (V/m) @ t=0.82
0
% es.tEZ (V/m) @ t=0.82
-1.6802823949269161
% es.Ex (V/m) @ t=0.82
0.7356701658413922
% es.Ey (V/m) @ t=0.82
0.19449599614927227
% es.Ez (V/m) @ t=0.82
-1.6802823949269108
% es.tEx (V/m) @ t=0.82
0.7356701658413924
% es.tEy (V/m) @ t=0.82
0
% es.tEz (V/m) @ t=0.82
-1.6802823949269161
% V (V) @ t=0.82
0.009229769193992023
% es.normE (V/m) @ t=0.84
1.863706969611345
% es.EX (V/m) @ t=0.84
0.7427604457157588
% es.EY (V/m) @ t=0.84
0.1963698674324128
% es.EZ (V/m) @ t=0.84
-1.6964766640020192
% es.tEX (V/m) @ t=0.84
0.7427604457157626
% es.tEY (V/m) @ t=0.84
0
% es.tEZ (V/m) @ t=0.84
-1.6964766640020201
% es.Ex (V/m) @ t=0.84
0.7427604457157588
% es.Ey (V/m) @ t=0.84
0.1963698674324128
% es.Ez (V/m) @ t=0.84
-1.6964766640020192
% es.tEx (V/m) @ t=0.84
0.7427604457157626
% es.tEy (V/m) @ t=0.84
0
% es.tEz (V/m) @ t=0.84
-1.6964766640020201
% V (V) @ t=0.84
0.009318736697117282
% es.normE (V/m) @ t=0.86
1.8814975481039222
% es.EX (V/m) @ t=0.86
0.7498507255901472
% es.EY (V/m) @ t=0.86
0.1982437387155187
% es.EZ (V/m) @ t=0.86
-1.7126709330771357
% es.tEX (V/m) @ t=0.86
0.7498507255901474
% es.tEY (V/m) @ t=0.86
0
% es.tEZ (V/m) @ t=0.86
-1.7126709330771366
% es.Ex (V/m) @ t=0.86
0.7498507255901472
% es.Ey (V/m) @ t=0.86
0.1982437387155187
% es.Ez (V/m) @ t=0.86
-1.7126709330771357
% es.tEx (V/m) @ t=0.86
0.7498507255901474
% es.tEy (V/m) @ t=0.86
0
% es.tEz (V/m) @ t=0.86
-1.7126709330771366
% V (V) @ t=0.86
0.00940770420024254
% es.normE (V/m) @ t=0.88
1.8992881265968318
% es.EX (V/m) @ t=0.88
0.7569410054645327
% es.EY (V/m) @ t=0.88
0.2001176099986557
% es.EZ (V/m) @ t=0.88
-1.7288652021522504
% es.tEX (V/m) @ t=0.88
0.7569410054645331
% es.tEY (V/m) @ t=0.88
0
% es.tEZ (V/m) @ t=0.88
-1.7288652021522601
% es.Ex (V/m) @ t=0.88
0.7569410054645327
% es.Ey (V/m) @ t=0.88
0.2001176099986557
% es.Ez (V/m) @ t=0.88
-1.7288652021522504
% es.tEx (V/m) @ t=0.88
0.7569410054645331
% es.tEy (V/m) @ t=0.88
0
% es.tEz (V/m) @ t=0.88
-1.7288652021522601
% V (V) @ t=0.88
0.009496671703367796
% es.normE (V/m) @ t=0.9
1.917078705090065
% es.EX (V/m) @ t=0.9
0.7640312853389177
% es.EY (V/m) @ t=0.9
0.20199148128179
% es.EZ (V/m) @ t=0.9
-1.745059471227365
% es.tEX (V/m) @ t=0.9
0.764031285338918
% es.tEY (V/m) @ t=0.9
0
% es.tEZ (V/m) @ t=0.9
-1.7450594712273677
% es.Ex (V/m) @ t=0.9
0.7640312853389177
% es.Ey (V/m) @ t=0.9
0.20199148128179
% es.Ez (V/m) @ t=0.9
-1.745059471227365
% es.tEx (V/m) @ t=0.9
0.764031285338918
% es.tEy (V/m) @ t=0.9
0
% es.tEz (V/m) @ t=0.9
-1.7450594712273677
% V (V) @ t=0.9
0.009585639206493052
% es.normE (V/m) @ t=0.92
1.934869283583608
% es.EX (V/m) @ t=0.92
0.771121565213289
% es.EY (V/m) @ t=0.92
0.20386535256489768
% es.EZ (V/m) @ t=0.92
-1.7612537403024824
% es.tEX (V/m) @ t=0.92
0.7711215652132895
% es.tEY (V/m) @ t=0.92
0
% es.tEZ (V/m) @ t=0.92
-1.7612537403024877
% es.Ex (V/m) @ t=0.92
0.771121565213289
% es.Ey (V/m) @ t=0.92
0.20386535256489768
% es.Ez (V/m) @ t=0.92
-1.7612537403024824
% es.tEx (V/m) @ t=0.92
0.7711215652132895
% es.tEy (V/m) @ t=0.92
0
% es.tEz (V/m) @ t=0.92
-1.7612537403024877
% V (V) @ t=0.92
0.00967460670961831
% es.normE (V/m) @ t=0.94
1.9526598620774605
% es.EX (V/m) @ t=0.94
0.778211845087674
% es.EY (V/m) @ t=0.94
0.2057392238480178
% es.EZ (V/m) @ t=0.94
-1.7774480093775962
% es.tEX (V/m) @ t=0.94
0.7782118450876743
% es.tEY (V/m) @ t=0.94
0
% es.tEZ (V/m) @ t=0.94
-1.7774480093775935
% es.Ex (V/m) @ t=0.94
0.778211845087674
% es.Ey (V/m) @ t=0.94
0.2057392238480178
% es.Ez (V/m) @ t=0.94
-1.7774480093775962
% es.tEx (V/m) @ t=0.94
0.7782118450876743
% es.tEy (V/m) @ t=0.94
0
% es.tEz (V/m) @ t=0.94
-1.7774480093775935
% V (V) @ t=0.94
0.009763574212743568
% es.normE (V/m) @ t=0.96
1.9704504405716117
% es.EX (V/m) @ t=0.96
0.7853021249620691
% es.EY (V/m) @ t=0.96
0.2076130951311317
% es.EZ (V/m) @ t=0.96
-1.7936422784527082
% es.tEX (V/m) @ t=0.96
0.7853021249620658
% es.tEY (V/m) @ t=0.96
0
% es.tEZ (V/m) @ t=0.96
-1.79364227845271
% es.Ex (V/m) @ t=0.96
0.7853021249620691
% es.Ey (V/m) @ t=0.96
0.2076130951311317
% es.Ez (V/m) @ t=0.96
-1.7936422784527082
% es.tEx (V/m) @ t=0.96
0.7853021249620658
% es.tEy (V/m) @ t=0.96
0
% es.tEz (V/m) @ t=0.96
-1.79364227845271
% V (V) @ t=0.96
0.009852541715868825
% es.normE (V/m) @ t=0.98
1.988241019066046
% es.EX (V/m) @ t=0.98
0.7923924048364366
% es.EY (V/m) @ t=0.98
0.20948696641426867
% es.EZ (V/m) @ t=0.98
-1.809836547527822
% es.tEX (V/m) @ t=0.98
0.7923924048364368
% es.tEY (V/m) @ t=0.98
0
% es.tEZ (V/m) @ t=0.98
-1.8098365475278317
% es.Ex (V/m) @ t=0.98
0.7923924048364366
% es.Ey (V/m) @ t=0.98
0.20948696641426867
% es.Ez (V/m) @ t=0.98
-1.809836547527822
% es.tEx (V/m) @ t=0.98
0.7923924048364368
% es.tEy (V/m) @ t=0.98
0
% es.tEz (V/m) @ t=0.98
-1.8098365475278317
% V (V) @ t=0.98
0.009941509218994084
% es.normE (V/m) @ t=1
2.0060315975607654
% es.EX (V/m) @ t=1
0.7994826847108252
% es.EY (V/m) @ t=1
0.21136083769740477
% es.EZ (V/m) @ t=1
-1.8260308166029295
% es.tEX (V/m) @ t=1
0.7994826847108221
% es.tEY (V/m) @ t=1
0
% es.tEZ (V/m) @ t=1
-1.8260308166029393
% es.Ex (V/m) @ t=1
0.7994826847108252
% es.Ey (V/m) @ t=1
0.21136083769740477
% es.Ez (V/m) @ t=1
-1.8260308166029295
% es.tEx (V/m) @ t=1
0.7994826847108221
% es.tEy (V/m) @ t=1
0
% es.tEz (V/m) @ t=1
-1.8260308166029393
% V (V) @ t=1
0.010030476722119342
% es.normE (V/m) @ t=1.02
2.023822176055761
% es.EX (V/m) @ t=1.02
0.8065729645851996
% es.EY (V/m) @ t=1.02
0.21323470898050356
% es.EZ (V/m) @ t=1.02
-1.8422250856780495
% es.tEX (V/m) @ t=1.02
0.8065729645851998
% es.tEY (V/m) @ t=1.02
0
% es.tEZ (V/m) @ t=1.02
-1.8422250856780558
% es.Ex (V/m) @ t=1.02
0.8065729645851996
% es.Ey (V/m) @ t=1.02
0.21323470898050356
% es.Ez (V/m) @ t=1.02
-1.8422250856780495
% es.tEx (V/m) @ t=1.02
0.8065729645851998
% es.tEy (V/m) @ t=1.02
0
% es.tEz (V/m) @ t=1.02
-1.8422250856780558
% V (V) @ t=1.02
0.010119444225244599
% es.normE (V/m) @ t=1.04
2.041612754551025
% es.EX (V/m) @ t=1.04
0.8136632444595879
% es.EY (V/m) @ t=1.04
0.21510858026363966
% es.EZ (V/m) @ t=1.04
-1.858419354753159
% es.tEX (V/m) @ t=1.04
0.8136632444595846
% es.tEY (V/m) @ t=1.04
0