% Model:              1 neuron.mph
% Version:            COMSOL 6.0.0.405
% Date:               Mar 16 2023, 17:34
% Dimension:          0
% Nodes:              14017
% Expressions:        14017
% Description:        Electric field norm, Electric field, X component, Electric field, Y component, Electric field, Z component, Tangential electric field, X component, Tangential electric field, Y component, Tangential electric field, Z component, Electric field, x component, Electric field, y component, Electric field, z component, Tangential electric field, x component, Tangential electric field, y component, Tangential electric field, z component, Electric potential
% Length unit:        mm
% x
1
% y
12.2
% z
1.33
% es.normE (V/m) @ t=0
1.4718898394491782
% es.EX (V/m) @ t=0
1.3602184519997165
% es.EY (V/m) @ t=0
0.08564756077364771
% es.EZ (V/m) @ t=0
0.5498867320796015
% es.tEX (V/m) @ t=0
1.3602184519997191
% es.tEY (V/m) @ t=0
0
% es.tEZ (V/m) @ t=0
0.5498867320796013
% es.Ex (V/m) @ t=0
1.3602184519997165
% es.Ey (V/m) @ t=0
0.08564756077364771
% es.Ez (V/m) @ t=0
0.5498867320796015
% es.tEx (V/m) @ t=0
1.3602184519997191
% es.tEy (V/m) @ t=0
0
% es.tEz (V/m) @ t=0
0.5498867320796013
% V (V) @ t=0
0.0073420281521366535
% es.normE (V/m) @ t=0.02
1.2712994037193597
% es.EX (V/m) @ t=0.02
1.1748466902991304
% es.EY (V/m) @ t=0.02
0.07397543771543402
% es.EZ (V/m) @ t=0.02
0.47494768795451403
% es.tEX (V/m) @ t=0.02
1.1748466902991321
% es.tEY (V/m) @ t=0.02
0
% es.tEZ (V/m) @ t=0.02
0.4749476879545145
% es.Ex (V/m) @ t=0.02
1.1748466902991304
% es.Ey (V/m) @ t=0.02
0.07397543771543402
% es.Ez (V/m) @ t=0.02
0.47494768795451403
% es.tEx (V/m) @ t=0.02
1.1748466902991321
% es.tEy (V/m) @ t=0.02
0
% es.tEz (V/m) @ t=0.02
0.4749476879545145
% V (V) @ t=0.02
0.006341450078755483
% es.normE (V/m) @ t=0.04
1.2829927558086438
% es.EX (V/m) @ t=0.04
1.1856528738790568
% es.EY (V/m) @ t=0.04
0.07465586407932384
% es.EZ (V/m) @ t=0.04
0.47931623704681114
% es.tEX (V/m) @ t=0.04
1.185652873879059
% es.tEY (V/m) @ t=0.04
0
% es.tEZ (V/m) @ t=0.04
0.4793162370468087
% es.Ex (V/m) @ t=0.04
1.1856528738790568
% es.Ey (V/m) @ t=0.04
0.07465586407932384
% es.Ez (V/m) @ t=0.04
0.47931623704681114
% es.tEx (V/m) @ t=0.04
1.185652873879059
% es.tEy (V/m) @ t=0.04
0
% es.tEz (V/m) @ t=0.04
0.4793162370468087
% V (V) @ t=0.04
0.006399778313130247
% es.normE (V/m) @ t=0.06
1.294791859506208
% es.EX (V/m) @ t=0.06
1.1965567864531161
% es.EY (V/m) @ t=0.06
0.07534244134683926
% es.EZ (V/m) @ t=0.06
0.4837242922933229
% es.tEX (V/m) @ t=0.06
1.1965567864531197
% es.tEY (V/m) @ t=0.06
0
% es.tEZ (V/m) @ t=0.06
0.4837242922933238
% es.Ex (V/m) @ t=0.06
1.1965567864531161
% es.Ey (V/m) @ t=0.06
0.07534244134683926
% es.Ez (V/m) @ t=0.06
0.4837242922933229
% es.tEx (V/m) @ t=0.06
1.1965567864531197
% es.tEy (V/m) @ t=0.06
0
% es.tEz (V/m) @ t=0.06
0.4837242922933238
% V (V) @ t=0.06
0.006458634142306168
% es.normE (V/m) @ t=0.08
1.3067702949590658
% es.EX (V/m) @ t=0.08
1.2076264243955324
% es.EY (V/m) @ t=0.08
0.0760394559701289
% es.EZ (V/m) @ t=0.08
0.48819934607468385
% es.tEX (V/m) @ t=0.08
1.2076264243955324
% es.tEY (V/m) @ t=0.08
0
% es.tEZ (V/m) @ t=0.08
0.48819934607468696
% es.Ex (V/m) @ t=0.08
1.2076264243955324
% es.Ey (V/m) @ t=0.08
0.0760394559701289
% es.Ez (V/m) @ t=0.08
0.48819934607468385
% es.tEx (V/m) @ t=0.08
1.2076264243955324
% es.tEy (V/m) @ t=0.08
0
% es.tEz (V/m) @ t=0.08
0.48819934607468696
% V (V) @ t=0.08
0.0065183844327978465
% es.normE (V/m) @ t=0.1
1.318874927572958
% es.EX (V/m) @ t=0.1
1.2188126845779093
% es.EY (V/m) @ t=0.1
0.07674381544240871
% es.EZ (V/m) @ t=0.1
0.4927215472498645
% es.tEX (V/m) @ t=0.1
1.218812684577907
% es.tEY (V/m) @ t=0.1
0
% es.tEZ (V/m) @ t=0.1
0.4927215472498663
% es.Ex (V/m) @ t=0.1
1.2188126845779093
% es.Ey (V/m) @ t=0.1
0.07674381544240871
% es.Ez (V/m) @ t=0.1
0.4927215472498645
% es.tEx (V/m) @ t=0.1
1.218812684577907
% es.tEy (V/m) @ t=0.1
0
% es.tEz (V/m) @ t=0.1
0.4927215472498663
% V (V) @ t=0.1
0.006578764162724405
% es.normE (V/m) @ t=0.12
1.3309795601868513
% es.EX (V/m) @ t=0.12
1.229998944760283
% es.EY (V/m) @ t=0.12
0.07744817491470002
% es.EZ (V/m) @ t=0.12
0.4972437484250529
% es.tEX (V/m) @ t=0.12
1.2299989447602817
% es.tEY (V/m) @ t=0.12
0
% es.tEZ (V/m) @ t=0.12
0.49724374842505403
% es.Ex (V/m) @ t=0.12
1.229998944760283
% es.Ey (V/m) @ t=0.12
0.07744817491470002
% es.Ez (V/m) @ t=0.12
0.4972437484250529
% es.tEx (V/m) @ t=0.12
1.2299989447602817
% es.tEy (V/m) @ t=0.12
0
% es.tEz (V/m) @ t=0.12
0.49724374842505403
% V (V) @ t=0.12
0.006639143892650961
% es.normE (V/m) @ t=0.14
1.3432030988755836
% es.EX (V/m) @ t=0.14
1.2412950905732156
% es.EY (V/m) @ t=0.14
0.07815945005265862
% es.EZ (V/m) @ t=0.14
0.5018103696580463
% es.tEX (V/m) @ t=0.14
1.2412950905732147
% es.tEY (V/m) @ t=0.14
0
% es.tEZ (V/m) @ t=0.14
0.5018103696580498
% es.Ex (V/m) @ t=0.14
1.2412950905732156
% es.Ey (V/m) @ t=0.14
0.07815945005265862
% es.Ez (V/m) @ t=0.14
0.5018103696580463
% es.tEx (V/m) @ t=0.14
1.2412950905732147
% es.tEy (V/m) @ t=0.14
0
% es.tEz (V/m) @ t=0.14
0.5018103696580498
% V (V) @ t=0.14
0.006700116856716344
% es.normE (V/m) @ t=0.16
1.3559543813795685
% es.EX (V/m) @ t=0.16
1.253078944537247
% es.EY (V/m) @ t=0.16
0.07890141916314408
% es.EZ (V/m) @ t=0.16
0.5065741415480254
% es.tEX (V/m) @ t=0.16
1.2530789445372479
% es.tEY (V/m) @ t=0.16
0
% es.tEZ (V/m) @ t=0.16
0.5065741415480258
% es.Ex (V/m) @ t=0.16
1.253078944537247
% es.Ey (V/m) @ t=0.16
0.07890141916314408
% es.Ez (V/m) @ t=0.16
0.5065741415480254
% es.tEx (V/m) @ t=0.16
1.2530789445372479
% es.tEy (V/m) @ t=0.16
0
% es.tEz (V/m) @ t=0.16
0.5065741415480258
% V (V) @ t=0.16
0.006763722786743956
% es.normE (V/m) @ t=0.18
1.3687056638835515
% es.EX (V/m) @ t=0.18
1.264862798501269
% es.EY (V/m) @ t=0.18
0.07964338827362771
% es.EZ (V/m) @ t=0.18
0.5113379134380214
% es.tEX (V/m) @ t=0.18
1.2648627985012677
% es.tEY (V/m) @ t=0.18
0
% es.tEZ (V/m) @ t=0.18
0.5113379134380245
% es.Ex (V/m) @ t=0.18
1.264862798501269
% es.Ey (V/m) @ t=0.18
0.07964338827362771
% es.Ez (V/m) @ t=0.18
0.5113379134380214
% es.tEx (V/m) @ t=0.18
1.2648627985012677
% es.tEy (V/m) @ t=0.18
0
% es.tEz (V/m) @ t=0.18
0.5113379134380245
% V (V) @ t=0.18
0.00682732871677157
% es.normE (V/m) @ t=0.2
1.3814569463875337
% es.EX (V/m) @ t=0.2
1.2766466524652902
% es.EY (V/m) @ t=0.2
0.0803853573841059
% es.EZ (V/m) @ t=0.2
0.5161016853280154
% es.tEX (V/m) @ t=0.2
1.2766466524652902
% es.tEY (V/m) @ t=0.2
0
% es.tEZ (V/m) @ t=0.2
0.5161016853280156
% es.Ex (V/m) @ t=0.2
1.2766466524652902
% es.Ey (V/m) @ t=0.2
0.0803853573841059
% es.Ez (V/m) @ t=0.2
0.5161016853280154
% es.tEx (V/m) @ t=0.2
1.2766466524652902
% es.tEy (V/m) @ t=0.2
0
% es.tEz (V/m) @ t=0.2
0.5161016853280156
% V (V) @ t=0.2
0.006890934646799183
% es.normE (V/m) @ t=0.22
1.3942082288915127
% es.EX (V/m) @ t=0.22
1.2884305064293122
% es.EY (V/m) @ t=0.22
0.08112732649459048
% es.EZ (V/m) @ t=0.22
0.5208654572180009
% es.tEX (V/m) @ t=0.22
1.2884305064293127
% es.tEY (V/m) @ t=0.22
0
% es.tEZ (V/m) @ t=0.22
0.5208654572180045
% es.Ex (V/m) @ t=0.22
1.2884305064293122
% es.Ey (V/m) @ t=0.22
0.08112732649459048
% es.Ez (V/m) @ t=0.22
0.5208654572180009
% es.tEx (V/m) @ t=0.22
1.2884305064293127
% es.tEy (V/m) @ t=0.22
0
% es.tEz (V/m) @ t=0.22
0.5208654572180045
% V (V) @ t=0.22
0.006954540576826796
% es.normE (V/m) @ t=0.24
1.4069595113954976
% es.EX (V/m) @ t=0.24
1.300214360393337
% es.EY (V/m) @ t=0.24
0.08186929560506612
% es.EZ (V/m) @ t=0.24
0.5256292291079931
% es.tEX (V/m) @ t=0.24
1.3002143603933396
% es.tEY (V/m) @ t=0.24
0
% es.tEZ (V/m) @ t=0.24
0.5256292291079925
% es.Ex (V/m) @ t=0.24
1.300214360393337
% es.Ey (V/m) @ t=0.24
0.08186929560506612
% es.Ez (V/m) @ t=0.24
0.5256292291079931
% es.tEx (V/m) @ t=0.24
1.3002143603933396
% es.tEy (V/m) @ t=0.24
0
% es.tEz (V/m) @ t=0.24
0.5256292291079925
% V (V) @ t=0.24
0.0070181465068544086
% es.normE (V/m) @ t=0.26
1.4197107938994769
% es.EX (V/m) @ t=0.26
1.311998214357354
% es.EY (V/m) @ t=0.26
0.08261126471555502
% es.EZ (V/m) @ t=0.26
0.5303930009979854
% es.tEX (V/m) @ t=0.26
1.3119982143573532
% es.tEY (V/m) @ t=0.26
0
% es.tEZ (V/m) @ t=0.26
0.5303930009979836
% es.Ex (V/m) @ t=0.26
1.311998214357354
% es.Ey (V/m) @ t=0.26
0.08261126471555502
% es.Ez (V/m) @ t=0.26
0.5303930009979854
% es.tEx (V/m) @ t=0.26
1.3119982143573532
% es.tEy (V/m) @ t=0.26
0
% es.tEz (V/m) @ t=0.26
0.5303930009979836
% V (V) @ t=0.26
0.007081752436882022
% es.normE (V/m) @ t=0.28
1.4330132966524403
% es.EX (V/m) @ t=0.28
1.3242915421275194
% es.EY (V/m) @ t=0.28
0.08338503063333785
% es.EZ (V/m) @ t=0.28
0.5353625087484875
% es.tEX (V/m) @ t=0.28
1.3242915421275185
% es.tEY (V/m) @ t=0.28
0
% es.tEZ (V/m) @ t=0.28
0.5353625087484879
% es.Ex (V/m) @ t=0.28
1.3242915421275194
% es.Ey (V/m) @ t=0.28
0.08338503063333785
% es.Ez (V/m) @ t=0.28
0.5353625087484875
% es.tEx (V/m) @ t=0.28
1.3242915421275185
% es.tEy (V/m) @ t=0.28
0
% es.tEz (V/m) @ t=0.28
0.5353625087484879
% V (V) @ t=0.28
0.0071481172124229
% es.normE (V/m) @ t=0.3
1.4472238752354016
% es.EX (V/m) @ t=0.3
1.3374241729707652
% es.EY (V/m) @ t=0.3
0.08421117835713815
% es.EZ (V/m) @ t=0.3
0.5406709441099702
% es.tEX (V/m) @ t=0.3
1.337424172970767
% es.tEY (V/m) @ t=0.3
0
% es.tEZ (V/m) @ t=0.3
0.5406709441099737
% es.Ex (V/m) @ t=0.3
1.3374241729707652
% es.Ey (V/m) @ t=0.3
0.08421117835713815
% es.Ez (V/m) @ t=0.3
0.5406709441099702
% es.tEx (V/m) @ t=0.3
1.337424172970767
% es.tEy (V/m) @ t=0.3
0
% es.tEz (V/m) @ t=0.3
0.5406709441099737
% V (V) @ t=0.3
0.007219026887995045
% es.normE (V/m) @ t=0.32
1.4614344538196553
% es.EX (V/m) @ t=0.32
1.350556803814019
% es.EY (V/m) @ t=0.32
0.08503732608094466
% es.EZ (V/m) @ t=0.32
0.5459793794714614
% es.tEX (V/m) @ t=0.32
1.350556803814018
% es.tEY (V/m) @ t=0.32
0
% es.tEZ (V/m) @ t=0.32
0.5459793794714587
% es.Ex (V/m) @ t=0.32
1.350556803814019
% es.Ey (V/m) @ t=0.32
0.08503732608094466
% es.Ez (V/m) @ t=0.32
0.5459793794714614
% es.tEx (V/m) @ t=0.32
1.350556803814018
% es.tEy (V/m) @ t=0.32
0
% es.tEz (V/m) @ t=0.32
0.5459793794714587
% V (V) @ t=0.32
0.007289936563567188
% es.normE (V/m) @ t=0.34
1.4756450324051418
% es.EX (V/m) @ t=0.34
1.3636894346572666
% es.EY (V/m) @ t=0.34
0.08586347380474763
% es.EZ (V/m) @ t=0.34
0.5512878148329419
% es.tEX (V/m) @ t=0.34
1.3636894346572692
% es.tEY (V/m) @ t=0.34
0
% es.tEZ (V/m) @ t=0.34
0.5512878148329401
% es.Ex (V/m) @ t=0.34
1.3636894346572666
% es.Ey (V/m) @ t=0.34
0.08586347380474763
% es.Ez (V/m) @ t=0.34
0.5512878148329419
% es.tEx (V/m) @ t=0.34
1.3636894346572692
% es.tEy (V/m) @ t=0.34
0
% es.tEz (V/m) @ t=0.34
0.5512878148329401
% V (V) @ t=0.34
0.007360846239139335
% es.normE (V/m) @ t=0.36
1.4898556109918357
% es.EX (V/m) @ t=0.36
1.376822065500515
% es.EY (V/m) @ t=0.36
0.08668962152855492
% es.EZ (V/m) @ t=0.36
0.5565962501944202
% es.tEX (V/m) @ t=0.36
1.3768220655005141
% es.tEY (V/m) @ t=0.36
0
% es.tEZ (V/m) @ t=0.36
0.556596250194421
% es.Ex (V/m) @ t=0.36
1.376822065500515
% es.Ey (V/m) @ t=0.36
0.08668962152855492
% es.Ez (V/m) @ t=0.36
0.5565962501944202
% es.tEx (V/m) @ t=0.36
1.3768220655005141
% es.tEy (V/m) @ t=0.36
0
% es.tEz (V/m) @ t=0.36
0.556596250194421
% V (V) @ t=0.36
0.007431755914711482
% es.normE (V/m) @ t=0.38
1.5040661895797083
% es.EX (V/m) @ t=0.38
1.3899546963437661
% es.EY (V/m) @ t=0.38
0.0875157692523641
% es.EZ (V/m) @ t=0.38
0.5619046855559025
% es.tEX (V/m) @ t=0.38
1.3899546963437688
% es.tEY (V/m) @ t=0.38
0
% es.tEZ (V/m) @ t=0.38
0.5619046855559025
% es.Ex (V/m) @ t=0.38
1.3899546963437661
% es.Ey (V/m) @ t=0.38
0.0875157692523641
% es.Ez (V/m) @ t=0.38
0.5619046855559025
% es.tEx (V/m) @ t=0.38
1.3899546963437688
% es.tEy (V/m) @ t=0.38
0
% es.tEz (V/m) @ t=0.38
0.5619046855559025
% V (V) @ t=0.38
0.0075026655902836244
% es.normE (V/m) @ t=0.4
1.5182767681687146
% es.EX (V/m) @ t=0.4
1.4030873271870083
% es.EY (V/m) @ t=0.4
0.08834191697616173
% es.EZ (V/m) @ t=0.4
0.5672131209173892
% es.tEX (V/m) @ t=0.4
1.4030873271870083
% es.tEY (V/m) @ t=0.4
0
% es.tEZ (V/m) @ t=0.4
0.5672131209173892
% es.Ex (V/m) @ t=0.4
1.4030873271870083
% es.Ey (V/m) @ t=0.4
0.08834191697616173
% es.Ez (V/m) @ t=0.4
0.5672131209173892
% es.tEx (V/m) @ t=0.4
1.4030873271870083
% es.tEy (V/m) @ t=0.4
0
% es.tEz (V/m) @ t=0.4
0.5672131209173892
% V (V) @ t=0.4
0.007573575265855771
% es.normE (V/m) @ t=0.42
1.5324873467588298
% es.EX (V/m) @ t=0.42
1.4162199580302568
% es.EY (V/m) @ t=0.42
0.08916806469996552
% es.EZ (V/m) @ t=0.42
0.5725215562788586
% es.tEX (V/m) @ t=0.42
1.4162199580302568
% es.tEY (V/m) @ t=0.42
0
% es.tEZ (V/m) @ t=0.42
0.5725215562788559
% es.Ex (V/m) @ t=0.42
1.4162199580302568
% es.Ey (V/m) @ t=0.42
0.08916806469996552
% es.Ez (V/m) @ t=0.42
0.5725215562788586
% es.tEx (V/m) @ t=0.42
1.4162199580302568
% es.tEy (V/m) @ t=0.42
0
% es.tEz (V/m) @ t=0.42
0.5725215562788559
% V (V) @ t=0.42
0.0076444849414279165
% es.normE (V/m) @ t=0.44
1.546697925350029
% es.EX (V/m) @ t=0.44
1.4293525888735052
% es.EY (V/m) @ t=0.44
0.08999421242377209
% es.EZ (V/m) @ t=0.44
0.577829991640344
% es.tEX (V/m) @ t=0.44
1.429352588873507
% es.tEY (V/m) @ t=0.44
0
% es.tEZ (V/m) @ t=0.44
0.5778299916403431
% es.Ex (V/m) @ t=0.44
1.4293525888735052
% es.Ey (V/m) @ t=0.44
0.08999421242377209
% es.Ez (V/m) @ t=0.44
0.577829991640344
% es.tEx (V/m) @ t=0.44
1.429352588873507
% es.tEy (V/m) @ t=0.44
0
% es.tEz (V/m) @ t=0.44
0.5778299916403431
% V (V) @ t=0.44
0.007715394617000059
% es.normE (V/m) @ t=0.46
1.560908503942278
% es.EX (V/m) @ t=0.46
1.4424852197167546
% es.EY (V/m) @ t=0.46
0.0908203601475821
% es.EZ (V/m) @ t=0.46
0.5831384270018285
% es.tEX (V/m) @ t=0.46
1.4424852197167546
% es.tEY (V/m) @ t=0.46
0
% es.tEZ (V/m) @ t=0.46
0.5831384270018294
% es.Ex (V/m) @ t=0.46
1.4424852197167546
% es.Ey (V/m) @ t=0.46
0.0908203601475821
% es.Ez (V/m) @ t=0.46
0.5831384270018285
% es.tEx (V/m) @ t=0.46
1.4424852197167546
% es.tEy (V/m) @ t=0.46
0
% es.tEz (V/m) @ t=0.46
0.5831384270018294
% V (V) @ t=0.46
0.007786304292572206
% es.normE (V/m) @ t=0.48
1.5751190825355472
% es.EX (V/m) @ t=0.48
1.4556178505600048
% es.EY (V/m) @ t=0.48
0.09164650787137607
% es.EZ (V/m) @ t=0.48
0.5884468623633108
% es.tEX (V/m) @ t=0.48
1.455617850560003
% es.tEY (V/m) @ t=0.48
0
% es.tEZ (V/m) @ t=0.48
0.5884468623633108
% es.Ex (V/m) @ t=0.48
1.4556178505600048
% es.Ey (V/m) @ t=0.48
0.09164650787137607
% es.Ez (V/m) @ t=0.48
0.5884468623633108
% es.tEx (V/m) @ t=0.48
1.455617850560003
% es.tEy (V/m) @ t=0.48
0
% es.tEz (V/m) @ t=0.48
0.5884468623633108
% V (V) @ t=0.48
0.007857213968144351
% es.normE (V/m) @ t=0.5
1.5893296611298027
% es.EX (V/m) @ t=0.5
1.468750481403247
% es.EY (V/m) @ t=0.5
0.09247265559517998
% es.EZ (V/m) @ t=0.5
0.5937552977247926
% es.tEX (V/m) @ t=0.5
1.4687504814032497
% es.tEY (V/m) @ t=0.5
0
% es.tEZ (V/m) @ t=0.5
0.5937552977247953
% es.Ex (V/m) @ t=0.5
1.468750481403247
% es.Ey (V/m) @ t=0.5
0.09247265559517998
% es.Ez (V/m) @ t=0.5
0.5937552977247926
% es.tEx (V/m) @ t=0.5
1.4687504814032497
% es.tEy (V/m) @ t=0.5
0
% es.tEz (V/m) @ t=0.5
0.5937552977247953
% V (V) @ t=0.5
0.007928123643716495
% es.normE (V/m) @ t=0.52
1.6035402397250365
% es.EX (V/m) @ t=0.52
1.4818831122465008
% es.EY (V/m) @ t=0.52
0.09329880331898477
% es.EZ (V/m) @ t=0.52
0.599063733086278
% es.tEX (V/m) @ t=0.52
1.4818831122465035
% es.tEY (V/m) @ t=0.52
0
% es.tEZ (V/m) @ t=0.52
0.5990637330862754
% es.Ex (V/m) @ t=0.52
1.4818831122465008
% es.Ey (V/m) @ t=0.52
0.09329880331898477
% es.Ez (V/m) @ t=0.52
0.599063733086278
% es.tEx (V/m) @ t=0.52
1.4818831122465035
% es.tEy (V/m) @ t=0.52
0
% es.tEz (V/m) @ t=0.52
0.5990637330862754
% V (V) @ t=0.52
0.007999033319288642
% es.normE (V/m) @ t=0.54
1.6177508183211995
% es.EX (V/m) @ t=0.54
1.4950157430897413
% es.EY (V/m) @ t=0.54
0.09412495104280277
% es.EZ (V/m) @ t=0.54
0.6043721684477601
% es.tEX (V/m) @ t=0.54
1.495015743089744
% es.tEY (V/m) @ t=0.54
0
% es.tEZ (V/m) @ t=0.54
0.6043721684477599
% es.Ex (V/m) @ t=0.54
1.4950157430897413
% es.Ey (V/m) @ t=0.54
0.09412495104280277
% es.Ez (V/m) @ t=0.54
0.6043721684477601
% es.tEx (V/m) @ t=0.54
1.495015743089744
% es.tEy (V/m) @ t=0.54
0
% es.tEz (V/m) @ t=0.54
0.6043721684477599
% V (V) @ t=0.54
0.008069942994860786
% es.normE (V/m) @ t=0.56
1.6332244385959964
% es.EX (V/m) @ t=0.56
1.509315628949392
% es.EY (V/m) @ t=0.56
0.09502444434632334
% es.EZ (V/m) @ t=0.56
0.610152362318972
% es.tEX (V/m) @ t=0.56
1.5093156289493903
% es.tEY (V/m) @ t=0.56
0
% es.tEZ (V/m) @ t=0.56
0.610152362318972
% es.Ex (V/m) @ t=0.56
1.509315628949392
% es.Ey (V/m) @ t=0.56
0.09502444434632334
% es.Ez (V/m) @ t=0.56
0.610152362318972
% es.tEx (V/m) @ t=0.56
1.5093156289493903
% es.tEy (V/m) @ t=0.56
0
% es.tEz (V/m) @ t=0.56
0.610152362318972
% V (V) @ t=0.56
0.008147157905791206
% es.normE (V/m) @ t=0.58
1.6490851236633424
% es.EX (V/m) @ t=0.58
1.5239732253479077
% es.EY (V/m) @ t=0.58
0.09594641473195192
% es.EZ (V/m) @ t=0.58
0.6160771287029463
% es.tEX (V/m) @ t=0.58
1.5239732253479055
% es.tEY (V/m) @ t=0.58
0
% es.tEZ (V/m) @ t=0.58
0.6160771287029463
% es.Ex (V/m) @ t=0.58
1.5239732253479077
% es.Ey (V/m) @ t=0.58
0.09594641473195192
% es.Ez (V/m) @ t=0.58
0.6160771287029463
% es.tEx (V/m) @ t=0.58
1.5239732253479055
% es.tEy (V/m) @ t=0.58
0
% es.tEz (V/m) @ t=0.58
0.6160771287029463
% V (V) @ t=0.58
0.008226305084397516
% es.normE (V/m) @ t=0.6
1.6649458087320994
% es.EX (V/m) @ t=0.6
1.5386308217464157
% es.EY (V/m) @ t=0.6
0.09686838511759299
% es.EZ (V/m) @ t=0.6
0.6220018950869255
% es.tEX (V/m) @ t=0.6
1.5386308217464073
% es.tEY (V/m) @ t=0.6
0
% es.tEZ (V/m) @ t=0.6
0.6220018950869264
% es.Ex (V/m) @ t=0.6
1.5386308217464157
% es.Ey (V/m) @ t=0.6
0.09686838511759299
% es.Ez (V/m) @ t=0.6
0.6220018950869255
% es.tEx (V/m) @ t=0.6
1.5386308217464073
% es.tEy (V/m) @ t=0.6
0
% es.tEz (V/m) @ t=0.6
0.6220018950869264
% V (V) @ t=0.6
0.008305452263003827
% es.normE (V/m) @ t=0.62
1.6808064938022362
% es.EX (V/m) @ t=0.62
1.553288418144934
% es.EY (V/m) @ t=0.62
0.09779035550323145
% es.EZ (V/m) @ t=0.62
0.6279266614708896
% es.tEX (V/m) @ t=0.62
1.5532884181449358
% es.tEY (V/m) @ t=0.62
0
% es.tEZ (V/m) @ t=0.62
0.6279266614708914
% es.Ex (V/m) @ t=0.62
1.553288418144934
% es.Ey (V/m) @ t=0.62
0.09779035550323145
% es.Ez (V/m) @ t=0.62
0.6279266614708896
% es.tEx (V/m) @ t=0.62
1.5532884181449358
% es.tEy (V/m) @ t=0.62
0
% es.tEz (V/m) @ t=0.62
0.6279266614708914
% V (V) @ t=0.62
0.008384599441610139
% es.normE (V/m) @ t=0.64
1.6966671788737049
% es.EX (V/m) @ t=0.64
1.5679460145434376
% es.EY (V/m) @ t=0.64
0.09871232588887069
% es.EZ (V/m) @ t=0.64
0.633851427854875
% es.tEX (V/m) @ t=0.64
1.5679460145434376
% es.tEY (V/m) @ t=0.64
0
% es.tEZ (V/m) @ t=0.64
0.6338514278548733
% es.Ex (V/m) @ t=0.64
1.5679460145434376
% es.Ey (V/m) @ t=0.64
0.09871232588887069
% es.Ez (V/m) @ t=0.64
0.633851427854875
% es.tEx (V/m) @ t=0.64
1.5679460145434376
% es.tEy (V/m) @ t=0.64
0
% es.tEz (V/m) @ t=0.64
0.6338514278548733
% V (V) @ t=0.64
0.008463746620216447
% es.normE (V/m) @ t=0.66
1.7125278639464838
% es.EX (V/m) @ t=0.66
1.5826036109419568
% es.EY (V/m) @ t=0.66
0.09963429627451359
% es.EZ (V/m) @ t=0.66
0.6397761942388482
% es.tEX (V/m) @ t=0.66
1.58260361094196
% es.tEY (V/m) @ t=0.66
0
% es.tEZ (V/m) @ t=0.66
0.6397761942388458
% es.Ex (V/m) @ t=0.66
1.5826036109419568
% es.Ey (V/m) @ t=0.66
0.09963429627451359
% es.Ez (V/m) @ t=0.66
0.6397761942388482
% es.tEx (V/m) @ t=0.66
1.58260361094196
% es.tEy (V/m) @ t=0.66
0
% es.tEz (V/m) @ t=0.66
0.6397761942388458
% V (V) @ t=0.66
0.008542893798822759
% es.normE (V/m) @ t=0.68
1.7283885490205178
% es.EX (V/m) @ t=0.68
1.5972612073404675
% es.EY (V/m) @ t=0.68
0.10055626666014572
% es.EZ (V/m) @ t=0.68
0.6457009606228195
% es.tEX (V/m) @ t=0.68
1.597261207340467
% es.tEY (V/m) @ t=0.68
0
% es.tEZ (V/m) @ t=0.68
0.6457009606228201
% es.Ex (V/m) @ t=0.68
1.5972612073404675
% es.Ey (V/m) @ t=0.68
0.10055626666014572
% es.Ez (V/m) @ t=0.68
0.6457009606228195
% es.tEx (V/m) @ t=0.68
1.597261207340467
% es.tEy (V/m) @ t=0.68
0
% es.tEz (V/m) @ t=0.68
0.6457009606228201
% V (V) @ t=0.68
0.008622040977429071
% es.normE (V/m) @ t=0.7
1.744249234095776
% es.EX (V/m) @ t=0.7
1.611918803738976
% es.EY (V/m) @ t=0.7
0.10147823704578673
% es.EZ (V/m) @ t=0.7
0.6516257270067793
% es.tEX (V/m) @ t=0.7
1.6119188037389724
% es.tEY (V/m) @ t=0.7
0
% es.tEZ (V/m) @ t=0.7
0.6516257270067802
% es.Ex (V/m) @ t=0.7
1.611918803738976
% es.Ey (V/m) @ t=0.7
0.10147823704578673
% es.Ez (V/m) @ t=0.7
0.6516257270067793
% es.tEx (V/m) @ t=0.7
1.6119188037389724
% es.tEy (V/m) @ t=0.7
0
% es.tEz (V/m) @ t=0.7
0.6516257270067802
% V (V) @ t=0.7
0.00870118815603538
% es.normE (V/m) @ t=0.72
1.7601099191722434
% es.EX (V/m) @ t=0.72
1.6265764001374916
% es.EY (V/m) @ t=0.72
0.10240020743142964
% es.EZ (V/m) @ t=0.72
0.657550493390757
% es.tEX (V/m) @ t=0.72
1.6265764001374885
% es.tEY (V/m) @ t=0.72
0
% es.tEZ (V/m) @ t=0.72
0.6575504933907581
% es.Ex (V/m) @ t=0.72
1.6265764001374916
% es.Ey (V/m) @ t=0.72
0.10240020743142964
% es.Ez (V/m) @ t=0.72
0.657550493390757
% es.tEx (V/m) @ t=0.72
1.6265764001374885
% es.tEy (V/m) @ t=0.72
0
% es.tEz (V/m) @ t=0.72
0.6575504933907581
% V (V) @ t=0.72
0.008780335334641691
% es.normE (V/m) @ t=0.74
1.7759706042498613
% es.EX (V/m) @ t=0.74
1.6412339965359952
% es.EY (V/m) @ t=0.74
0.10332217781706443
% es.EZ (V/m) @ t=0.74
0.6634752597747255
% es.tEX (V/m) @ t=0.74
1.641233996536009
% es.tEY (V/m) @ t=0.74
0
% es.tEZ (V/m) @ t=0.74
0.6634752597747235
% es.Ex (V/m) @ t=0.74
1.6412339965359952
% es.Ey (V/m) @ t=0.74
0.10332217781706443
% es.Ez (V/m) @ t=0.74
0.6634752597747255
% es.tEx (V/m) @ t=0.74
1.641233996536009
% es.tEy (V/m) @ t=0.74
0
% es.tEz (V/m) @ t=0.74
0.6634752597747235
% V (V) @ t=0.74
0.008859482513248
% es.normE (V/m) @ t=0.76
1.7918312893286275
% es.EX (V/m) @ t=0.76
1.6558915929345144
% es.EY (V/m) @ t=0.76
0.10424414820270189
% es.EZ (V/m) @ t=0.76
0.6694000261586961
% es.tEX (V/m) @ t=0.76
1.6558915929345215
% es.tEY (V/m) @ t=0.76
0
% es.tEZ (V/m) @ t=0.76
0.6694000261586979
% es.Ex (V/m) @ t=0.76
1.6558915929345144
% es.Ey (V/m) @ t=0.76
0.10424414820270189
% es.Ez (V/m) @ t=0.76
0.6694000261586961
% es.tEx (V/m) @ t=0.76
1.6558915929345215
% es.tEy (V/m) @ t=0.76
0
% es.tEz (V/m) @ t=0.76
0.6694000261586979
% V (V) @ t=0.76
0.00893862969185431
% es.normE (V/m) @ t=0.78
1.8076919744084945
% es.EX (V/m) @ t=0.78
1.6705491893330287
% es.EY (V/m) @ t=0.78
0.10516611858834224
% es.EZ (V/m) @ t=0.78
0.6753247925426709
% es.tEX (V/m) @ t=0.78
1.6705491893330215
% es.tEY (V/m) @ t=0.78
0
% es.tEZ (V/m) @ t=0.78
0.6753247925426691
% es.Ex (V/m) @ t=0.78
1.6705491893330287
% es.Ey (V/m) @ t=0.78
0.10516611858834224
% es.Ez (V/m) @ t=0.78
0.6753247925426709
% es.tEx (V/m) @ t=0.78
1.6705491893330215
% es.tEy (V/m) @ t=0.78
0
% es.tEz (V/m) @ t=0.78
0.6753247925426691
% V (V) @ t=0.78
0.009017776870460618
% es.normE (V/m) @ t=0.8
1.8235526594894282
% es.EX (V/m) @ t=0.8
1.6852067857315371
% es.EY (V/m) @ t=0.8
0.10608808897398403
% es.EZ (V/m) @ t=0.8
0.6812495589266379
% es.tEX (V/m) @ t=0.8
1.6852067857315305
% es.tEY (V/m) @ t=0.8
0
% es.tEZ (V/m) @ t=0.8
0.681249558926643
% es.Ex (V/m) @ t=0.8
1.6852067857315371
% es.Ey (V/m) @ t=0.8
0.10608808897398403
% es.Ez (V/m) @ t=0.8
0.6812495589266379
% es.tEx (V/m) @ t=0.8
1.6852067857315305
% es.tEy (V/m) @ t=0.8
0
% es.tEz (V/m) @ t=0.8
0.681249558926643
% V (V) @ t=0.8
0.009096924049066934
% es.normE (V/m) @ t=0.82
1.8396965501785894
% es.EX (V/m) @ t=0.82
1.7001259518336145
% es.EY (V/m) @ t=0.82
0.10702709808446387
% es.EZ (V/m) @ t=0.82
0.687280522113936
% es.tEX (V/m) @ t=0.82
1.7001259518336216
% es.tEY (V/m) @ t=0.82
0
% es.tEZ (V/m) @ t=0.82
0.6872805221139306
% es.Ex (V/m) @ t=0.82
1.7001259518336145
% es.Ey (V/m) @ t=0.82
0.10702709808446387
% es.Ez (V/m) @ t=0.82
0.687280522113936
% es.tEx (V/m) @ t=0.82
1.7001259518336216
% es.tEy (V/m) @ t=0.82
0
% es.tEz (V/m) @ t=0.82
0.6872805221139306
% V (V) @ t=0.82
0.009177465262314825
% es.normE (V/m) @ t=0.84
1.8574066737098414
% es.EX (V/m) @ t=0.84
1.7164916961367238
% es.EY (V/m) @ t=0.84
0.10806033771009393
% es.EZ (V/m) @ t=0.84
0.69389879330593
% es.tEX (V/m) @ t=0.84
1.7164916961367247
% es.tEY (V/m) @ t=0.84
0
% es.tEZ (V/m) @ t=0.84
0.6938987933059302
% es.Ex (V/m) @ t=0.84
1.7164916961367238
% es.Ey (V/m) @ t=0.84
0.10806033771009393
% es.Ez (V/m) @ t=0.84
0.69389879330593
% es.tEx (V/m) @ t=0.84
1.7164916961367247
% es.tEy (V/m) @ t=0.84
0
% es.tEz (V/m) @ t=0.84
0.6938987933059302
% V (V) @ t=0.84
0.009265716008037363
% es.normE (V/m) @ t=0.86
1.8751167972564744
% es.EX (V/m) @ t=0.86
1.7328574404398447
% es.EY (V/m) @ t=0.86
0.10909357733573644
% es.EZ (V/m) @ t=0.86
0.7005170644979444
% es.tEX (V/m) @ t=0.86
1.7328574404398402
% es.tEY (V/m) @ t=0.86
0
% es.tEZ (V/m) @ t=0.86
0.7005170644979488
% es.Ex (V/m) @ t=0.86
1.7328574404398447
% es.Ey (V/m) @ t=0.86
0.10909357733573644
% es.Ez (V/m) @ t=0.86
0.7005170644979444
% es.tEx (V/m) @ t=0.86
1.7328574404398402
% es.tEy (V/m) @ t=0.86
0
% es.tEz (V/m) @ t=0.86
0.7005170644979488
% V (V) @ t=0.86
0.009353966753759902
% es.normE (V/m) @ t=0.88
1.8928269208180277
% es.EX (V/m) @ t=0.88
1.7492231847429585
% es.EY (V/m) @ t=0.88
0.11012681696137683
% es.EZ (V/m) @ t=0.88
0.7071353356899512
% es.tEX (V/m) @ t=0.88
1.749223184742963
% es.tEY (V/m) @ t=0.88
0
% es.tEZ (V/m) @ t=0.88
0.7071353356899528
% es.Ex (V/m) @ t=0.88
1.7492231847429585
% es.Ey (V/m) @ t=0.88
0.11012681696137683
% es.Ez (V/m) @ t=0.88
0.7071353356899512
% es.tEx (V/m) @ t=0.88
1.749223184742963
% es.tEy (V/m) @ t=0.88
0
% es.tEz (V/m) @ t=0.88
0.7071353356899528
% V (V) @ t=0.88
0.00944221749948244
% es.normE (V/m) @ t=0.9
1.9105370443940912
% es.EX (V/m) @ t=0.9
1.7655889290460633
% es.EY (V/m) @ t=0.9
0.11116005658702122
% es.EZ (V/m) @ t=0.9
0.7137536068819645
% es.tEX (V/m) @ t=0.9
1.765588929046066
% es.tEY (V/m) @ t=0.9
0
% es.tEZ (V/m) @ t=0.9
0.7137536068819617
% es.Ex (V/m) @ t=0.9
1.7655889290460633
% es.Ey (V/m) @ t=0.9
0.11116005658702122
% es.Ez (V/m) @ t=0.9
0.7137536068819645
% es.tEx (V/m) @ t=0.9
1.765588929046066
% es.tEy (V/m) @ t=0.9
0
% es.tEz (V/m) @ t=0.9
0.7137536068819617
% V (V) @ t=0.9
0.009530468245204978
% es.normE (V/m) @ t=0.92
1.9282471679842734
% es.EX (V/m) @ t=0.92
1.781954673349179
% es.EY (V/m) @ t=0.92
0.11219329621265206
% es.EZ (V/m) @ t=0.92
0.7203718780739612
% es.tEX (V/m) @ t=0.92
1.7819546733491798
% es.tEY (V/m) @ t=0.92
0
% es.tEZ (V/m) @ t=0.92
0.7203718780739594
% es.Ex (V/m) @ t=0.92
1.781954673349179
% es.Ey (V/m) @ t=0.92
0.11219329621265206
% es.Ez (V/m) @ t=0.92
0.7203718780739612
% es.tEx (V/m) @ t=0.92
1.7819546733491798
% es.tEy (V/m) @ t=0.92
0
% es.tEz (V/m) @ t=0.92
0.7203718780739594
% V (V) @ t=0.92
0.009618718990927515
% es.normE (V/m) @ t=0.94
1.9459572915881966
% es.EX (V/m) @ t=0.94
1.7983204176522998
% es.EY (V/m) @ t=0.94
0.11322653583829967
% es.EZ (V/m) @ t=0.94
0.7269901492659738
% es.tEX (V/m) @ t=0.94
1.7983204176522989
% es.tEY (V/m) @ t=0.94
0
% es.tEZ (V/m) @ t=0.94
0.7269901492659749
% es.Ex (V/m) @ t=0.94
1.7983204176522998
% es.Ey (V/m) @ t=0.94
0.11322653583829967
% es.Ez (V/m) @ t=0.94
0.7269901492659738
% es.tEx (V/m) @ t=0.94
1.7983204176522989
% es.tEy (V/m) @ t=0.94
0
% es.tEz (V/m) @ t=0.94
0.7269901492659749
% V (V) @ t=0.94
0.009706969736650056
% es.normE (V/m) @ t=0.96
1.9636674152054598
% es.EX (V/m) @ t=0.96
1.8146861619553993
% es.EY (V/m) @ t=0.96
0.11425977546395183
% es.EZ (V/m) @ t=0.96
0.7336084204579905
% es.tEX (V/m) @ t=0.96
1.8146861619554073
% es.tEY (V/m) @ t=0.96
0
% es.tEZ (V/m) @ t=0.96
0.7336084204579878
% es.Ex (V/m) @ t=0.96
1.8146861619553993
% es.Ey (V/m) @ t=0.96
0.11425977546395183
% es.Ez (V/m) @ t=0.96
0.7336084204579905
% es.tEx (V/m) @ t=0.96
1.8146861619554073
% es.tEy (V/m) @ t=0.96
0
% es.tEz (V/m) @ t=0.96
0.7336084204579878
% V (V) @ t=0.96
0.009795220482372594
% es.normE (V/m) @ t=0.98
1.9813775388357349
% es.EX (V/m) @ t=0.98
1.831051906258513
% es.EY (V/m) @ t=0.98
0.11529301508959078
% es.EZ (V/m) @ t=0.98
0.7402266916500031
% es.tEX (V/m) @ t=0.98
1.8310519062585051
% es.tEY (V/m) @ t=0.98
0
% es.tEZ (V/m) @ t=0.98
0.7402266916500029
% es.Ex (V/m) @ t=0.98
1.831051906258513
% es.Ey (V/m) @ t=0.98
0.11529301508959078
% es.Ez (V/m) @ t=0.98
0.7402266916500031
% es.tEx (V/m) @ t=0.98
1.8310519062585051
% es.tEy (V/m) @ t=0.98
0
% es.tEz (V/m) @ t=0.98
0.7402266916500029
% V (V) @ t=0.98
0.009883471228095133
% es.normE (V/m) @ t=1
1.9990876624786584
% es.EX (V/m) @ t=1
1.847417650561626
% es.EY (V/m) @ t=1
0.11632625471523295
% es.EZ (V/m) @ t=1
0.7468449628419997
% es.tEX (V/m) @ t=1
1.847417650561626
% es.tEY (V/m) @ t=1
0
% es.tEZ (V/m) @ t=1
0.7468449628419935
% es.Ex (V/m) @ t=1
1.847417650561626
% es.Ey (V/m) @ t=1
0.11632625471523295
% es.Ez (V/m) @ t=1
0.7468449628419997
% es.tEx (V/m) @ t=1
1.847417650561626
% es.tEy (V/m) @ t=1
0
% es.tEz (V/m) @ t=1
0.7468449628419935
% V (V) @ t=1
0.00997172197381767
% es.normE (V/m) @ t=1.02
2.0167977861339077
% es.EX (V/m) @ t=1.02
1.863783394864737
% es.EY (V/m) @ t=1.02
0.11735949434088178
% es.EZ (V/m) @ t=1.02
0.7534632340340113
% es.tEX (V/m) @ t=1.02
1.863783394864738
% es.tEY (V/m) @ t=1.02
0
% es.tEZ (V/m) @ t=1.02
0.753463234034013
% es.Ex (V/m) @ t=1.02
1.863783394864737
% es.Ey (V/m) @ t=1.02
0.11735949434088178
% es.Ez (V/m) @ t=1.02
0.7534632340340113
% es.tEx (V/m) @ t=1.02
1.863783394864738
% es.tEy (V/m) @ t=1.02
0
% es.tEz (V/m) @ t=1.02
0.753463234034013
% V (V) @ t=1.02
0.010059972719540207
% es.normE (V/m) @ t=1.04
2.034507909801161
% es.EX (V/m) @ t=1.04
1.8801491391678518
% es.EY (V/m) @ t=1.04
0.11839273396652061
% es.EZ (V/m) @ t=1.04
0.7600815052260306
% es.tEX (V/m) @ t=1.04
1.8801491391678624
% es.tEY (V/m) @ t=1.04
0
% es.tEZ (V/m) @ t=1.04
0.7600815052260241
% es.Ex (V/m) @ t=1.04
1.8801491391678518
% es.Ey (V/m) @ t=1.04
0.11839273396652061
% es.Ez (V/m) @ t=1.04
0.7600815052260306