% Model:              1 neuron.mph
% Version:            COMSOL 6.0.0.405
% Date:               Mar 16 2023, 17:29
% Dimension:          0
% Nodes:              14017
% Expressions:        14017
% Description:        Electric field norm, Electric field, X component, Electric field, Y component, Electric field, Z component, Tangential electric field, X component, Tangential electric field, Y component, Tangential electric field, Z component, Electric field, x component, Electric field, y component, Electric field, z component, Tangential electric field, x component, Tangential electric field, y component, Tangential electric field, z component, Electric potential
% Length unit:        mm
% x
1.3300000000000003
% y
12.200000000000001
% z
1.66
% es.normE (V/m) @ t=0
7.269081021807537
% es.EX (V/m) @ t=0
4.612955821901717
% es.EY (V/m) @ t=0
1.3794346476561357
% es.EZ (V/m) @ t=0
-5.052882800049113
% es.tEX (V/m) @ t=0
4.612955821901705
% es.tEY (V/m) @ t=0
0
% es.tEZ (V/m) @ t=0
-5.0528828000490975
% es.Ex (V/m) @ t=0
4.612955821901717
% es.Ey (V/m) @ t=0
1.3794346476561357
% es.Ez (V/m) @ t=0
-5.052882800049113
% es.tEx (V/m) @ t=0
4.612955821901705
% es.tEy (V/m) @ t=0
0
% es.tEz (V/m) @ t=0
-5.0528828000490975
% V (V) @ t=0
0.0062265388775282786
% es.normE (V/m) @ t=0.02
6.278439655340754
% es.EX (V/m) @ t=0.02
3.984295220800669
% es.EY (V/m) @ t=0.02
1.1914432055185427
% es.EZ (V/m) @ t=0.02
-4.364268280834635
% es.tEX (V/m) @ t=0.02
3.9842952208006577
% es.tEY (V/m) @ t=0.02
0
% es.tEZ (V/m) @ t=0.02
-4.364268280834628
% es.Ex (V/m) @ t=0.02
3.984295220800669
% es.Ey (V/m) @ t=0.02
1.1914432055185427
% es.Ez (V/m) @ t=0.02
-4.364268280834635
% es.tEx (V/m) @ t=0.02
3.9842952208006577
% es.tEy (V/m) @ t=0.02
0
% es.tEz (V/m) @ t=0.02
-4.364268280834628
% V (V) @ t=0.02
0.0053779767269463265
% es.normE (V/m) @ t=0.04
6.336185006791432
% es.EX (V/m) @ t=0.04
4.020940396449963
% es.EY (V/m) @ t=0.04
1.2024013910417
% es.EZ (V/m) @ t=0.04
-4.404408223659612
% es.tEX (V/m) @ t=0.04
4.020940396449959
% es.tEY (V/m) @ t=0.04
0
% es.tEZ (V/m) @ t=0.04
-4.404408223659605
% es.Ex (V/m) @ t=0.04
4.020940396449963
% es.Ey (V/m) @ t=0.04
1.2024013910417
% es.Ez (V/m) @ t=0.04
-4.404408223659612
% es.tEx (V/m) @ t=0.04
4.020940396449959
% es.tEy (V/m) @ t=0.04
0
% es.tEz (V/m) @ t=0.04
-4.404408223659605
% V (V) @ t=0.04
0.005427440158077417
% es.normE (V/m) @ t=0.06
6.394439318325586
% es.EX (V/m) @ t=0.06
4.057908556926669
% es.EY (V/m) @ t=0.06
1.2134561606142107
% es.EZ (V/m) @ t=0.06
-4.444901955577713
% es.tEX (V/m) @ t=0.06
4.0579085569266535
% es.tEY (V/m) @ t=0.06
0
% es.tEZ (V/m) @ t=0.06
-4.4449019555776985
% es.Ex (V/m) @ t=0.06
4.057908556926669
% es.Ey (V/m) @ t=0.06
1.2134561606142107
% es.Ez (V/m) @ t=0.06
-4.444901955577713
% es.tEx (V/m) @ t=0.06
4.0579085569266535
% es.tEy (V/m) @ t=0.06
0
% es.tEz (V/m) @ t=0.06
-4.4449019555776985
% V (V) @ t=0.06
0.005477339556614284
% es.normE (V/m) @ t=0.08
6.453610070723601
% es.EX (V/m) @ t=0.08
4.0954582916234
% es.EY (V/m) @ t=0.08
1.2246848408005473
% es.EZ (V/m) @ t=0.08
-4.4860327227865255
% es.tEX (V/m) @ t=0.08
4.095458291623395
% es.tEY (V/m) @ t=0.08
0
% es.tEZ (V/m) @ t=0.08
-4.48603272278651
% es.Ex (V/m) @ t=0.08
4.0954582916234
% es.Ey (V/m) @ t=0.08
1.2246848408005473
% es.Ez (V/m) @ t=0.08
-4.4860327227865255
% es.tEx (V/m) @ t=0.08
4.095458291623395
% es.tEy (V/m) @ t=0.08
0
% es.tEz (V/m) @ t=0.08
-4.48603272278651
% V (V) @ t=0.08
0.005528023955089438
% es.normE (V/m) @ t=0.1
6.513361380542195
% es.EX (V/m) @ t=0.1
4.133376448596344
% es.EY (V/m) @ t=0.1
1.2360236918678995
% es.EZ (V/m) @ t=0.1
-4.527567046383716
% es.tEX (V/m) @ t=0.1
4.133376448596341
% es.tEY (V/m) @ t=0.1
0
% es.tEZ (V/m) @ t=0.1
-4.527567046383702
% es.Ex (V/m) @ t=0.1
4.133376448596344
% es.Ey (V/m) @ t=0.1
1.2360236918678995
% es.Ez (V/m) @ t=0.1
-4.527567046383716
% es.tEx (V/m) @ t=0.1
4.133376448596341
% es.tEy (V/m) @ t=0.1
0
% es.tEz (V/m) @ t=0.1
-4.527567046383702
% V (V) @ t=0.1
0.005579205644287114
% es.normE (V/m) @ t=0.12
6.5731126903608175
% es.EX (V/m) @ t=0.12
4.1712946055692885
% es.EY (V/m) @ t=0.12
1.247362542935238
% es.EZ (V/m) @ t=0.12
-4.569101369980932
% es.tEX (V/m) @ t=0.12
4.171294605569276
% es.tEY (V/m) @ t=0.12
0
% es.tEZ (V/m) @ t=0.12
-4.569101369980917
% es.Ex (V/m) @ t=0.12
4.1712946055692885
% es.Ey (V/m) @ t=0.12
1.247362542935238
% es.Ez (V/m) @ t=0.12
-4.569101369980932
% es.tEx (V/m) @ t=0.12
4.171294605569276
% es.tEy (V/m) @ t=0.12
0
% es.tEz (V/m) @ t=0.12
-4.569101369980917
% V (V) @ t=0.12
0.005630387333484789
% es.normE (V/m) @ t=0.14
6.633605757301316
% es.EX (V/m) @ t=0.14
4.209683481103379
% es.EY (V/m) @ t=0.14
1.2588421553214573
% es.EZ (V/m) @ t=0.14
-4.611151303872821
% es.tEX (V/m) @ t=0.14
4.209683481103365
% es.tEY (V/m) @ t=0.14
0
% es.tEZ (V/m) @ t=0.14
-4.611151303872809
% es.Ex (V/m) @ t=0.14
4.209683481103379
% es.Ey (V/m) @ t=0.14
1.2588421553214573
% es.Ez (V/m) @ t=0.14
-4.611151303872821
% es.tEx (V/m) @ t=0.14
4.209683481103365
% es.tEy (V/m) @ t=0.14
0
% es.tEz (V/m) @ t=0.14
-4.611151303872809
% V (V) @ t=0.14
0.005682204396512356
% es.normE (V/m) @ t=0.16
6.696523349245553
% es.EX (V/m) @ t=0.16
4.249610958543057
% es.EY (V/m) @ t=0.16
1.2707818635087742
% es.EZ (V/m) @ t=0.16
-4.6548865738602325
% es.tEX (V/m) @ t=0.16
4.249610958543042
% es.tEY (V/m) @ t=0.16
0
% es.tEZ (V/m) @ t=0.16
-4.654886573860222
% es.Ex (V/m) @ t=0.16
4.249610958543057
% es.Ey (V/m) @ t=0.16
1.2707818635087742
% es.Ez (V/m) @ t=0.16
-4.6548865738602325
% es.tEx (V/m) @ t=0.16
4.249610958543042
% es.tEy (V/m) @ t=0.16
0
% es.tEz (V/m) @ t=0.16
-4.654886573860222
% V (V) @ t=0.16
0.005736098257580441
% es.normE (V/m) @ t=0.18
6.759440941189795
% es.EX (V/m) @ t=0.18
4.28953843598274
% es.EY (V/m) @ t=0.18
1.282721571696077
% es.EZ (V/m) @ t=0.18
-4.698621843847642
% es.tEX (V/m) @ t=0.18
4.289538435982733
% es.tEY (V/m) @ t=0.18
0
% es.tEZ (V/m) @ t=0.18
-4.698621843847627
% es.Ex (V/m) @ t=0.18
4.28953843598274
% es.Ey (V/m) @ t=0.18
1.282721571696077
% es.Ez (V/m) @ t=0.18
-4.698621843847642
% es.tEx (V/m) @ t=0.18
4.289538435982733
% es.tEy (V/m) @ t=0.18
0
% es.tEz (V/m) @ t=0.18
-4.698621843847627
% V (V) @ t=0.18
0.005789992118648526
% es.normE (V/m) @ t=0.2
6.8223585331340395
% es.EX (V/m) @ t=0.2
4.329465913422423
% es.EY (V/m) @ t=0.2
1.2946612798833763
% es.EZ (V/m) @ t=0.2
-4.742357113835061
% es.tEX (V/m) @ t=0.2
4.329465913422416
% es.tEY (V/m) @ t=0.2
0
% es.tEZ (V/m) @ t=0.2
-4.7423571138350535
% es.Ex (V/m) @ t=0.2
4.329465913422423
% es.Ey (V/m) @ t=0.2
1.2946612798833763
% es.Ez (V/m) @ t=0.2
-4.742357113835061
% es.tEx (V/m) @ t=0.2
4.329465913422416
% es.tEy (V/m) @ t=0.2
0
% es.tEz (V/m) @ t=0.2
-4.7423571138350535
% V (V) @ t=0.2
0.005843885979716612
% es.normE (V/m) @ t=0.22
6.8852761250782715
% es.EX (V/m) @ t=0.22
4.369393390862099
% es.EY (V/m) @ t=0.22
1.3066009880707024
% es.EZ (V/m) @ t=0.22
-4.786092383822465
% es.tEX (V/m) @ t=0.22
4.3693933908620854
% es.tEY (V/m) @ t=0.22
0
% es.tEZ (V/m) @ t=0.22
-4.786092383822455
% es.Ex (V/m) @ t=0.22
4.369393390862099
% es.Ey (V/m) @ t=0.22
1.3066009880707024
% es.Ez (V/m) @ t=0.22
-4.786092383822465
% es.tEx (V/m) @ t=0.22
4.3693933908620854
% es.tEy (V/m) @ t=0.22
0
% es.tEz (V/m) @ t=0.22
-4.786092383822455
% V (V) @ t=0.22
0.005897779840784696
% es.normE (V/m) @ t=0.24
6.948193717022515
% es.EX (V/m) @ t=0.24
4.409320868301789
% es.EY (V/m) @ t=0.24
1.318540696258007
% es.EZ (V/m) @ t=0.24
-4.82982765380987
% es.tEX (V/m) @ t=0.24
4.409320868301772
% es.tEY (V/m) @ t=0.24
0
% es.tEZ (V/m) @ t=0.24
-4.829827653809867
% es.Ex (V/m) @ t=0.24
4.409320868301789
% es.Ey (V/m) @ t=0.24
1.318540696258007
% es.Ez (V/m) @ t=0.24
-4.82982765380987
% es.tEx (V/m) @ t=0.24
4.409320868301772
% es.tEy (V/m) @ t=0.24
0
% es.tEz (V/m) @ t=0.24
-4.829827653809867
% V (V) @ t=0.24
0.00595167370185278
% es.normE (V/m) @ t=0.26
7.011111308966758
% es.EX (V/m) @ t=0.26
4.449248345741465
% es.EY (V/m) @ t=0.26
1.3304804044453136
% es.EZ (V/m) @ t=0.26
-4.873562923797296
% es.tEX (V/m) @ t=0.26
4.449248345741449
% es.tEY (V/m) @ t=0.26
0
% es.tEZ (V/m) @ t=0.26
-4.873562923797282
% es.Ex (V/m) @ t=0.26
4.449248345741465
% es.Ey (V/m) @ t=0.26
1.3304804044453136
% es.Ez (V/m) @ t=0.26
-4.873562923797296
% es.tEx (V/m) @ t=0.26
4.449248345741449
% es.tEy (V/m) @ t=0.26
0
% es.tEz (V/m) @ t=0.26
-4.873562923797282
% V (V) @ t=0.26
0.006005567562920867
% es.normE (V/m) @ t=0.28
7.077433104941026
% es.EX (V/m) @ t=0.28
4.49133610712121
% es.EY (V/m) @ t=0.28
1.3430661196208715
% es.EZ (V/m) @ t=0.28
-4.919664542093446
% es.tEX (V/m) @ t=0.28
4.491336107121192
% es.tEY (V/m) @ t=0.28
0
% es.tEZ (V/m) @ t=0.28
-4.919664542093442
% es.Ex (V/m) @ t=0.28
4.49133610712121
% es.Ey (V/m) @ t=0.28
1.3430661196208715
% es.Ez (V/m) @ t=0.28
-4.919664542093446
% es.tEx (V/m) @ t=0.28
4.491336107121192
% es.tEy (V/m) @ t=0.28
0
% es.tEz (V/m) @ t=0.28
-4.919664542093442
% V (V) @ t=0.28
0.0060623774573367656
% es.normE (V/m) @ t=0.3
7.1474660421141305
% es.EX (V/m) @ t=0.3
4.535778932610034
% es.EY (V/m) @ t=0.3
1.3563560884568333
% es.EZ (V/m) @ t=0.3
-4.968345868486397
% es.tEX (V/m) @ t=0.3
4.535778932610031
% es.tEY (V/m) @ t=0.3
0
% es.tEZ (V/m) @ t=0.3
-4.96834586848639
% es.Ex (V/m) @ t=0.3
4.535778932610034
% es.Ey (V/m) @ t=0.3
1.3563560884568333
% es.Ez (V/m) @ t=0.3
-4.968345868486397
% es.tEx (V/m) @ t=0.3
4.535778932610031
% es.tEy (V/m) @ t=0.3
0
% es.tEz (V/m) @ t=0.3
-4.96834586848639
% V (V) @ t=0.3
0.0061223663067738136
% es.normE (V/m) @ t=0.32
7.2174989792872655
% es.EX (V/m) @ t=0.32
4.580221758098894
% es.EY (V/m) @ t=0.32
1.369646057292792
% es.EZ (V/m) @ t=0.32
-5.0170271948793435
% es.tEX (V/m) @ t=0.32
4.580221758098878
% es.tEY (V/m) @ t=0.32
0
% es.tEZ (V/m) @ t=0.32
-5.017027194879333
% es.Ex (V/m) @ t=0.32
4.580221758098894
% es.Ey (V/m) @ t=0.32
1.369646057292792
% es.Ez (V/m) @ t=0.32
-5.0170271948793435
% es.tEx (V/m) @ t=0.32
4.580221758098878
% es.tEy (V/m) @ t=0.32
0
% es.tEz (V/m) @ t=0.32
-5.017027194879333
% V (V) @ t=0.32
0.006182355156210861
% es.normE (V/m) @ t=0.34
7.287531916460374
% es.EX (V/m) @ t=0.34
4.624664583587711
% es.EY (V/m) @ t=0.34
1.3829360261287629
% es.EZ (V/m) @ t=0.34
-5.065708521272299
% es.tEX (V/m) @ t=0.34
4.624664583587709
% es.tEY (V/m) @ t=0.34
0
% es.tEZ (V/m) @ t=0.34
-5.065708521272287
% es.Ex (V/m) @ t=0.34
4.624664583587711
% es.Ey (V/m) @ t=0.34
1.3829360261287629
% es.Ez (V/m) @ t=0.34
-5.065708521272299
% es.tEx (V/m) @ t=0.34
4.624664583587709
% es.tEy (V/m) @ t=0.34
0
% es.tEz (V/m) @ t=0.34
-5.065708521272287
% V (V) @ t=0.34
0.006242344005647907
% es.normE (V/m) @ t=0.36
7.3575648536335025
% es.EX (V/m) @ t=0.36
4.6691074090765525
% es.EY (V/m) @ t=0.36
1.3962259949647267
% es.EZ (V/m) @ t=0.36
-5.114389847665253
% es.tEX (V/m) @ t=0.36
4.669107409076539
% es.tEY (V/m) @ t=0.36
0
% es.tEZ (V/m) @ t=0.36
-5.114389847665242
% es.Ex (V/m) @ t=0.36
4.6691074090765525
% es.Ey (V/m) @ t=0.36
1.3962259949647267
% es.Ez (V/m) @ t=0.36
-5.114389847665253
% es.tEx (V/m) @ t=0.36
4.669107409076539
% es.tEy (V/m) @ t=0.36
0
% es.tEz (V/m) @ t=0.36
-5.114389847665242
% V (V) @ t=0.36
0.006302332855084954
% es.normE (V/m) @ t=0.38
7.427597790806604
% es.EX (V/m) @ t=0.38
4.713550234565392
% es.EY (V/m) @ t=0.38
1.4095159638006602
% es.EZ (V/m) @ t=0.38
-5.1630711740581825
% es.tEX (V/m) @ t=0.38
4.71355023456538
% es.tEY (V/m) @ t=0.38
0
% es.tEZ (V/m) @ t=0.38
-5.163071174058167
% es.Ex (V/m) @ t=0.38
4.713550234565392
% es.Ey (V/m) @ t=0.38
1.4095159638006602
% es.Ez (V/m) @ t=0.38
-5.1630711740581825
% es.tEx (V/m) @ t=0.38
4.71355023456538
% es.tEy (V/m) @ t=0.38
0
% es.tEz (V/m) @ t=0.38
-5.163071174058167
% V (V) @ t=0.38
0.006362321704522
% es.normE (V/m) @ t=0.4
7.497630727979734
% es.EX (V/m) @ t=0.4
4.757993060054229
% es.EY (V/m) @ t=0.4
1.42280593263664
% es.EZ (V/m) @ t=0.4
-5.211752500451141
% es.tEX (V/m) @ t=0.4
4.757993060054222
% es.tEY (V/m) @ t=0.4
0
% es.tEZ (V/m) @ t=0.4
-5.211752500451129
% es.Ex (V/m) @ t=0.4
4.757993060054229
% es.Ey (V/m) @ t=0.4
1.42280593263664
% es.Ez (V/m) @ t=0.4
-5.211752500451141
% es.tEx (V/m) @ t=0.4
4.757993060054222
% es.tEy (V/m) @ t=0.4
0
% es.tEz (V/m) @ t=0.4
-5.211752500451129
% V (V) @ t=0.4
0.0064223105539590476
% es.normE (V/m) @ t=0.42
7.567663665152855
% es.EX (V/m) @ t=0.42
4.802435885543062
% es.EY (V/m) @ t=0.42
1.4360959014726056
% es.EZ (V/m) @ t=0.42
-5.260433826844091
% es.tEX (V/m) @ t=0.42
4.802435885543049
% es.tEY (V/m) @ t=0.42
0
% es.tEZ (V/m) @ t=0.42
-5.260433826844084
% es.Ex (V/m) @ t=0.42
4.802435885543062
% es.Ey (V/m) @ t=0.42
1.4360959014726056
% es.Ez (V/m) @ t=0.42
-5.260433826844091
% es.tEx (V/m) @ t=0.42
4.802435885543049
% es.tEy (V/m) @ t=0.42
0
% es.tEz (V/m) @ t=0.42
-5.260433826844084
% V (V) @ t=0.42
0.006482299403396094
% es.normE (V/m) @ t=0.44
7.637696602325972
% es.EX (V/m) @ t=0.44
4.846878711031896
% es.EY (V/m) @ t=0.44
1.4493858703085427
% es.EZ (V/m) @ t=0.44
-5.309115153237035
% es.tEX (V/m) @ t=0.44
4.846878711031886
% es.tEY (V/m) @ t=0.44
0
% es.tEZ (V/m) @ t=0.44
-5.309115153237024
% es.Ex (V/m) @ t=0.44
4.846878711031896
% es.Ey (V/m) @ t=0.44
1.4493858703085427
% es.Ez (V/m) @ t=0.44
-5.309115153237035
% es.tEx (V/m) @ t=0.44
4.846878711031886
% es.tEy (V/m) @ t=0.44
0
% es.tEz (V/m) @ t=0.44
-5.309115153237024
% V (V) @ t=0.44
0.006542288252833143
% es.normE (V/m) @ t=0.46
7.707729539499086
% es.EX (V/m) @ t=0.46
4.891321536520735
% es.EY (V/m) @ t=0.46
1.4626758391445174
% es.EZ (V/m) @ t=0.46
-5.357796479629979
% es.tEX (V/m) @ t=0.46
4.891321536520721
% es.tEY (V/m) @ t=0.46
0
% es.tEZ (V/m) @ t=0.46
-5.357796479629967
% es.Ex (V/m) @ t=0.46
4.891321536520735
% es.Ey (V/m) @ t=0.46
1.4626758391445174
% es.Ez (V/m) @ t=0.46
-5.357796479629979
% es.tEx (V/m) @ t=0.46
4.891321536520721
% es.tEy (V/m) @ t=0.46
0
% es.tEz (V/m) @ t=0.46
-5.357796479629967
% V (V) @ t=0.46
0.006602277102270188
% es.normE (V/m) @ t=0.48
7.777762476672201
% es.EX (V/m) @ t=0.48
4.9357643620095715
% es.EY (V/m) @ t=0.48
1.475965807980481
% es.EZ (V/m) @ t=0.48
-5.4064778060229255
% es.tEX (V/m) @ t=0.48
4.935764362009565
% es.tEY (V/m) @ t=0.48
0
% es.tEZ (V/m) @ t=0.48
-5.406477806022915
% es.Ex (V/m) @ t=0.48
4.9357643620095715
% es.Ey (V/m) @ t=0.48
1.475965807980481
% es.Ez (V/m) @ t=0.48
-5.4064778060229255
% es.tEx (V/m) @ t=0.48
4.935764362009565
% es.tEy (V/m) @ t=0.48
0
% es.tEz (V/m) @ t=0.48
-5.406477806022915
% V (V) @ t=0.48
0.006662265951707236
% es.normE (V/m) @ t=0.5
7.847795413845329
% es.EX (V/m) @ t=0.5
4.980207187498412
% es.EY (V/m) @ t=0.5
1.489255776816443
% es.EZ (V/m) @ t=0.5
-5.455159132415873
% es.tEX (V/m) @ t=0.5
4.980207187498403
% es.tEY (V/m) @ t=0.5
0
% es.tEZ (V/m) @ t=0.5
-5.455159132415862
% es.Ex (V/m) @ t=0.5
4.980207187498412
% es.Ey (V/m) @ t=0.5
1.489255776816443
% es.Ez (V/m) @ t=0.5
-5.455159132415873
% es.tEx (V/m) @ t=0.5
4.980207187498403
% es.tEy (V/m) @ t=0.5
0
% es.tEz (V/m) @ t=0.5
-5.455159132415862
% V (V) @ t=0.5
0.006722254801144283
% es.normE (V/m) @ t=0.52
7.917828351018446
% es.EX (V/m) @ t=0.52
5.024650012987236
% es.EY (V/m) @ t=0.52
1.5025457456524158
% es.EZ (V/m) @ t=0.52
-5.503840458808824
% es.tEX (V/m) @ t=0.52
5.024650012987226
% es.tEY (V/m) @ t=0.52
0
% es.tEZ (V/m) @ t=0.52
-5.503840458808809
% es.Ex (V/m) @ t=0.52
5.024650012987236
% es.Ey (V/m) @ t=0.52
1.5025457456524158
% es.Ez (V/m) @ t=0.52
-5.503840458808824
% es.tEx (V/m) @ t=0.52
5.024650012987226
% es.tEy (V/m) @ t=0.52
0
% es.tEz (V/m) @ t=0.52
-5.503840458808809
% V (V) @ t=0.52
0.0067822436505813296
% es.normE (V/m) @ t=0.54
7.987861288191562
% es.EX (V/m) @ t=0.54
5.069092838476069
% es.EY (V/m) @ t=0.54
1.5158357144883672
% es.EZ (V/m) @ t=0.54
-5.552521785201767
% es.tEX (V/m) @ t=0.54
5.0690928384760525
% es.tEY (V/m) @ t=0.54
0
% es.tEZ (V/m) @ t=0.54
-5.5525217852017565
% es.Ex (V/m) @ t=0.54
5.069092838476069
% es.Ey (V/m) @ t=0.54
1.5158357144883672
% es.Ez (V/m) @ t=0.54
-5.552521785201767
% es.tEx (V/m) @ t=0.54
5.0690928384760525
% es.tEy (V/m) @ t=0.54
0
% es.tEz (V/m) @ t=0.54
-5.5525217852017565
% V (V) @ t=0.54
0.006842232500018376
% es.normE (V/m) @ t=0.56
8.065685042246784
% es.EX (V/m) @ t=0.56
5.11847975511828
% es.EY (V/m) @ t=0.56
1.5306041265900947
% es.EZ (V/m) @ t=0.56
-5.606618629087222
% es.tEX (V/m) @ t=0.56
5.118479755118263
% es.tEY (V/m) @ t=0.56
0
% es.tEZ (V/m) @ t=0.56
-5.606618629087208
% es.Ex (V/m) @ t=0.56
5.11847975511828
% es.Ey (V/m) @ t=0.56
1.5306041265900947
% es.Ez (V/m) @ t=0.56
-5.606618629087222
% es.tEx (V/m) @ t=0.56
5.118479755118263
% es.tEy (V/m) @ t=0.56
0
% es.tEz (V/m) @ t=0.56
-5.606618629087208
% V (V) @ t=0.56
0.006908894674775721
% es.normE (V/m) @ t=0.58
8.143776676332049
% es.EX (V/m) @ t=0.58
5.16803666976026
% es.EY (V/m) @ t=0.58
1.5454233735956202
% es.EZ (V/m) @ t=0.58
-5.660901680530973
% es.tEX (V/m) @ t=0.58
5.168036669760253
% es.tEY (V/m) @ t=0.58
0
% es.tEZ (V/m) @ t=0.58
-5.660901680530959
% es.Ex (V/m) @ t=0.58
5.16803666976026
% es.Ey (V/m) @ t=0.58
1.5454233735956202
% es.Ez (V/m) @ t=0.58
-5.660901680530973
% es.tEx (V/m) @ t=0.58
5.168036669760253
% es.tEy (V/m) @ t=0.58
0
% es.tEz (V/m) @ t=0.58
-5.660901680530959
% V (V) @ t=0.58
0.006975786305649716
% es.normE (V/m) @ t=0.6
8.221868310417312
% es.EX (V/m) @ t=0.6
5.2175935844022465
% es.EY (V/m) @ t=0.6
1.5602426206011046
% es.EZ (V/m) @ t=0.6
-5.715184731974709
% es.tEX (V/m) @ t=0.6
5.2175935844022465
% es.tEY (V/m) @ t=0.6
0
% es.tEZ (V/m) @ t=0.6
-5.7151847319746985
% es.Ex (V/m) @ t=0.6
5.2175935844022465
% es.Ey (V/m) @ t=0.6
1.5602426206011046
% es.Ez (V/m) @ t=0.6
-5.715184731974709
% es.tEx (V/m) @ t=0.6
5.2175935844022465
% es.tEy (V/m) @ t=0.6
0
% es.tEz (V/m) @ t=0.6
-5.7151847319746985
% V (V) @ t=0.6
0.007042677936523709
% es.normE (V/m) @ t=0.62
8.299959944502579
% es.EX (V/m) @ t=0.62
5.26715049904425
% es.EY (V/m) @ t=0.62
1.5750618676065926
% es.EZ (V/m) @ t=0.62
-5.769467783418445
% es.tEX (V/m) @ t=0.62
5.267150499044245
% es.tEY (V/m) @ t=0.62
0
% es.tEZ (V/m) @ t=0.62
-5.769467783418431
% es.Ex (V/m) @ t=0.62
5.26715049904425
% es.Ey (V/m) @ t=0.62
1.5750618676065926
% es.Ez (V/m) @ t=0.62
-5.769467783418445
% es.tEx (V/m) @ t=0.62
5.267150499044245
% es.tEy (V/m) @ t=0.62
0
% es.tEz (V/m) @ t=0.62
-5.769467783418431
% V (V) @ t=0.62
0.007109569567397702
% es.normE (V/m) @ t=0.64
8.378051578587852
% es.EX (V/m) @ t=0.64
5.316707413686247
% es.EY (V/m) @ t=0.64
1.5898811146120737
% es.EZ (V/m) @ t=0.64
-5.823750834862203
% es.tEX (V/m) @ t=0.64
5.316707413686237
% es.tEY (V/m) @ t=0.64
0
% es.tEZ (V/m) @ t=0.64
-5.823750834862189
% es.Ex (V/m) @ t=0.64
5.316707413686247
% es.Ey (V/m) @ t=0.64
1.5898811146120737
% es.Ez (V/m) @ t=0.64
-5.823750834862203
% es.tEx (V/m) @ t=0.64
5.316707413686237
% es.tEy (V/m) @ t=0.64
0
% es.tEz (V/m) @ t=0.64
-5.823750834862189
% V (V) @ t=0.64
0.007176461198271696
% es.normE (V/m) @ t=0.66
8.456143212673119
% es.EX (V/m) @ t=0.66
5.3662643283282305
% es.EY (V/m) @ t=0.66
1.6047003616175797
% es.EZ (V/m) @ t=0.66
-5.878033886305947
% es.tEX (V/m) @ t=0.66
5.366264328328214
% es.tEY (V/m) @ t=0.66
0
% es.tEZ (V/m) @ t=0.66
-5.878033886305936
% es.Ex (V/m) @ t=0.66
5.3662643283282305
% es.Ey (V/m) @ t=0.66
1.6047003616175797
% es.Ez (V/m) @ t=0.66
-5.878033886305947
% es.tEx (V/m) @ t=0.66
5.366264328328214
% es.tEy (V/m) @ t=0.66
0
% es.tEz (V/m) @ t=0.66
-5.878033886305936
% V (V) @ t=0.66
0.007243352829145691
% es.normE (V/m) @ t=0.68
8.534234846758377
% es.EX (V/m) @ t=0.68
5.415821242970225
% es.EY (V/m) @ t=0.68
1.6195196086230852
% es.EZ (V/m) @ t=0.68
-5.932316937749676
% es.tEX (V/m) @ t=0.68
5.415821242970208
% es.tEY (V/m) @ t=0.68
0
% es.tEZ (V/m) @ t=0.68
-5.932316937749662
% es.Ex (V/m) @ t=0.68
5.415821242970225
% es.Ey (V/m) @ t=0.68
1.6195196086230852
% es.Ez (V/m) @ t=0.68
-5.932316937749676
% es.tEx (V/m) @ t=0.68
5.415821242970208
% es.tEy (V/m) @ t=0.68
0
% es.tEz (V/m) @ t=0.68
-5.932316937749662
% V (V) @ t=0.68
0.007310244460019684
% es.normE (V/m) @ t=0.7
8.612326480843635
% es.EX (V/m) @ t=0.7
5.465378157612211
% es.EY (V/m) @ t=0.7
1.6343388556285805
% es.EZ (V/m) @ t=0.7
-5.9865999891934205
% es.tEX (V/m) @ t=0.7
5.465378157612198
% es.tEY (V/m) @ t=0.7
0
% es.tEZ (V/m) @ t=0.7
-5.986599989193409
% es.Ex (V/m) @ t=0.7
5.465378157612211
% es.Ey (V/m) @ t=0.7
1.6343388556285805
% es.Ez (V/m) @ t=0.7
-5.9865999891934205
% es.tEx (V/m) @ t=0.7
5.465378157612198
% es.tEy (V/m) @ t=0.7
0
% es.tEz (V/m) @ t=0.7
-5.986599989193409
% V (V) @ t=0.7
0.007377136090893679
% es.normE (V/m) @ t=0.72
8.690418114928912
% es.EX (V/m) @ t=0.72
5.514935072254205
% es.EY (V/m) @ t=0.72
1.6491581026341002
% es.EZ (V/m) @ t=0.72
-6.040883040637167
% es.tEX (V/m) @ t=0.72
5.514935072254195
% es.tEY (V/m) @ t=0.72
0
% es.tEZ (V/m) @ t=0.72
-6.040883040637152
% es.Ex (V/m) @ t=0.72
5.514935072254205
% es.Ey (V/m) @ t=0.72
1.6491581026341002
% es.Ez (V/m) @ t=0.72
-6.040883040637167
% es.tEx (V/m) @ t=0.72
5.514935072254195
% es.tEy (V/m) @ t=0.72
0
% es.tEz (V/m) @ t=0.72
-6.040883040637152
% V (V) @ t=0.72
0.007444027721767672
% es.normE (V/m) @ t=0.74
8.76850974901416
% es.EX (V/m) @ t=0.74
5.564491986896192
% es.EY (V/m) @ t=0.74
1.6639773496395778
% es.EZ (V/m) @ t=0.74
-6.0951660920808965
% es.tEX (V/m) @ t=0.74
5.564491986896182
% es.tEY (V/m) @ t=0.74
0
% es.tEZ (V/m) @ t=0.74
-6.0951660920808814
% es.Ex (V/m) @ t=0.74
5.564491986896192
% es.Ey (V/m) @ t=0.74
1.6639773496395778
% es.Ez (V/m) @ t=0.74
-6.0951660920808965
% es.tEx (V/m) @ t=0.74
5.564491986896182
% es.tEy (V/m) @ t=0.74
0
% es.tEz (V/m) @ t=0.74
-6.0951660920808814
% V (V) @ t=0.74
0.007510919352641667
% es.normE (V/m) @ t=0.76
8.846601383099419
% es.EX (V/m) @ t=0.76
5.614048901538179
% es.EY (V/m) @ t=0.76
1.6787965966450766
% es.EZ (V/m) @ t=0.76
-6.149449143524629
% es.tEX (V/m) @ t=0.76
5.614048901538162
% es.tEY (V/m) @ t=0.76
0
% es.tEZ (V/m) @ t=0.76
-6.149449143524608
% es.Ex (V/m) @ t=0.76
5.614048901538179
% es.Ey (V/m) @ t=0.76
1.6787965966450766
% es.Ez (V/m) @ t=0.76
-6.149449143524629
% es.tEx (V/m) @ t=0.76
5.614048901538162
% es.tEy (V/m) @ t=0.76
0
% es.tEz (V/m) @ t=0.76
-6.149449143524608
% V (V) @ t=0.76
0.00757781098351566
% es.normE (V/m) @ t=0.78
8.924693017184678
% es.EX (V/m) @ t=0.78
5.663605816180164
% es.EY (V/m) @ t=0.78
1.6936158436505613
% es.EZ (V/m) @ t=0.78
-6.2037321949683655
% es.tEX (V/m) @ t=0.78
5.6636058161801515
% es.tEY (V/m) @ t=0.78
0
% es.tEZ (V/m) @ t=0.78
-6.203732194968344
% es.Ex (V/m) @ t=0.78
5.663605816180164
% es.Ey (V/m) @ t=0.78
1.6936158436505613
% es.Ez (V/m) @ t=0.78
-6.2037321949683655
% es.tEx (V/m) @ t=0.78
5.6636058161801515
% es.tEy (V/m) @ t=0.78
0
% es.tEz (V/m) @ t=0.78
-6.203732194968344
% V (V) @ t=0.78
0.0076447026143896535
% es.normE (V/m) @ t=0.8
9.002784651269941
% es.EX (V/m) @ t=0.8
5.713162730822157
% es.EY (V/m) @ t=0.8
1.708435090656074
% es.EZ (V/m) @ t=0.8
-6.258015246412105
% es.tEX (V/m) @ t=0.8
5.71316273082215
% es.tEY (V/m) @ t=0.8
0
% es.tEZ (V/m) @ t=0.8
-6.258015246412098
% es.Ex (V/m) @ t=0.8
5.713162730822157
% es.Ey (V/m) @ t=0.8
1.708435090656074
% es.Ez (V/m) @ t=0.8
-6.258015246412105
% es.tEx (V/m) @ t=0.8
5.71316273082215
% es.tEy (V/m) @ t=0.8
0
% es.tEz (V/m) @ t=0.8
-6.258015246412098
% V (V) @ t=0.8
0.00771159424526365
% es.normE (V/m) @ t=0.82
9.085037119436754
% es.EX (V/m) @ t=0.82
5.765360109727467
% es.EY (V/m) @ t=0.82
1.7240439283399978
% es.EZ (V/m) @ t=0.82
-6.315190575840207
% es.tEX (V/m) @ t=0.82
5.7653601097274505
% es.tEY (V/m) @ t=0.82
0
% es.tEZ (V/m) @ t=0.82
-6.3151905758402
% es.Ex (V/m) @ t=0.82
5.765360109727467
% es.Ey (V/m) @ t=0.82
1.7240439283399978
% es.Ez (V/m) @ t=0.82
-6.315190575840207
% es.tEx (V/m) @ t=0.82
5.7653601097274505
% es.tEy (V/m) @ t=0.82
0
% es.tEz (V/m) @ t=0.82
-6.3151905758402
% V (V) @ t=0.82
0.0077820499554236144
% es.normE (V/m) @ t=0.84
9.172271706503036
% es.EX (V/m) @ t=0.84
5.820719140035322
% es.EY (V/m) @ t=0.84
1.740598209789415
% es.EZ (V/m) @ t=0.84
-6.375829074557435
% es.tEX (V/m) @ t=0.84
5.820719140035308
% es.tEY (V/m) @ t=0.84
0
% es.tEZ (V/m) @ t=0.84
-6.375829074557413
% es.Ex (V/m) @ t=0.84
5.820719140035322
% es.Ey (V/m) @ t=0.84
1.740598209789415
% es.Ez (V/m) @ t=0.84
-6.375829074557435
% es.tEx (V/m) @ t=0.84
5.820719140035308
% es.tEy (V/m) @ t=0.84
0
% es.tEz (V/m) @ t=0.84
-6.375829074557413
% V (V) @ t=0.84
0.00785677323944543
% es.normE (V/m) @ t=0.86
9.259506293569322
% es.EX (V/m) @ t=0.86
5.876078170343163
% es.EY (V/m) @ t=0.86
1.7571524912388963
% es.EZ (V/m) @ t=0.86
-6.436467573274671
% es.tEX (V/m) @ t=0.86
5.876078170343154
% es.tEY (V/m) @ t=0.86
0
% es.tEZ (V/m) @ t=0.86
-6.436467573274649
% es.Ex (V/m) @ t=0.86
5.876078170343163
% es.Ey (V/m) @ t=0.86
1.7571524912388963
% es.Ez (V/m) @ t=0.86
-6.436467573274671
% es.tEx (V/m) @ t=0.86
5.876078170343154
% es.tEy (V/m) @ t=0.86
0
% es.tEz (V/m) @ t=0.86
-6.436467573274649
% V (V) @ t=0.86
0.007931496523467245
% es.normE (V/m) @ t=0.88
9.34674088063559
% es.EX (V/m) @ t=0.88
5.9314372006510245
% es.EY (V/m) @ t=0.88
1.7737067726883096
% es.EZ (V/m) @ t=0.88
-6.497106071991877
% es.tEX (V/m) @ t=0.88
5.931437200651015
% es.tEY (V/m) @ t=0.88
0
% es.tEZ (V/m) @ t=0.88
-6.497106071991862
% es.Ex (V/m) @ t=0.88
5.9314372006510245
% es.Ey (V/m) @ t=0.88
1.7737067726883096
% es.Ez (V/m) @ t=0.88
-6.497106071991877
% es.tEx (V/m) @ t=0.88
5.931437200651015
% es.tEy (V/m) @ t=0.88
0
% es.tEz (V/m) @ t=0.88
-6.497106071991862
% V (V) @ t=0.88
0.008006219807489064
% es.normE (V/m) @ t=0.9
9.433975467701853
% es.EX (V/m) @ t=0.9
5.986796230958867
% es.EY (V/m) @ t=0.9
1.7902610541377588
% es.EZ (V/m) @ t=0.9
-6.55774457070909
% es.tEX (V/m) @ t=0.9
5.986796230958857
% es.tEY (V/m) @ t=0.9
0
% es.tEZ (V/m) @ t=0.9
-6.557744570709083
% es.Ex (V/m) @ t=0.9
5.986796230958867
% es.Ey (V/m) @ t=0.9
1.7902610541377588
% es.Ez (V/m) @ t=0.9
-6.55774457070909
% es.tEx (V/m) @ t=0.9
5.986796230958857
% es.tEy (V/m) @ t=0.9
0
% es.tEz (V/m) @ t=0.9
-6.557744570709083
% V (V) @ t=0.9
0.008080943091510879
% es.normE (V/m) @ t=0.92
9.52121005476815
% es.EX (V/m) @ t=0.92
6.042155261266732
% es.EY (V/m) @ t=0.92
1.8068153355871903
% es.EZ (V/m) @ t=0.92
-6.618383069426333
% es.tEX (V/m) @ t=0.92
6.042155261266719
% es.tEY (V/m) @ t=0.92
0
% es.tEZ (V/m) @ t=0.92
-6.618383069426319
% es.Ex (V/m) @ t=0.92
6.042155261266732
% es.Ey (V/m) @ t=0.92
1.8068153355871903
% es.Ez (V/m) @ t=0.92
-6.618383069426333
% es.tEx (V/m) @ t=0.92
6.042155261266719
% es.tEy (V/m) @ t=0.92
0
% es.tEz (V/m) @ t=0.92
-6.618383069426319
% V (V) @ t=0.92
0.008155666375532696
% es.normE (V/m) @ t=0.94
9.608444641834422
% es.EX (V/m) @ t=0.94
6.097514291574573
% es.EY (V/m) @ t=0.94
1.8233696170366462
% es.EZ (V/m) @ t=0.94
-6.679021568143558
% es.tEX (V/m) @ t=0.94
6.097514291574562
% es.tEY (V/m) @ t=0.94
0
% es.tEZ (V/m) @ t=0.94
-6.679021568143543
% es.Ex (V/m) @ t=0.94
6.097514291574573
% es.Ey (V/m) @ t=0.94
1.8233696170366462
% es.Ez (V/m) @ t=0.94
-6.679021568143558
% es.tEx (V/m) @ t=0.94
6.097514291574562
% es.tEy (V/m) @ t=0.94
0
% es.tEz (V/m) @ t=0.94
-6.679021568143543
% V (V) @ t=0.94
0.008230389659554511
% es.normE (V/m) @ t=0.96
9.695679228900728
% es.EX (V/m) @ t=0.96
6.152873321882437
% es.EY (V/m) @ t=0.96
1.8399238984861168
% es.EZ (V/m) @ t=0.96
-6.7396600668608
% es.tEX (V/m) @ t=0.96
6.152873321882419
% es.tEY (V/m) @ t=0.96
0
% es.tEZ (V/m) @ t=0.96
-6.739660066860786
% es.Ex (V/m) @ t=0.96
6.152873321882437
% es.Ey (V/m) @ t=0.96
1.8399238984861168
% es.Ez (V/m) @ t=0.96
-6.7396600668608
% es.tEx (V/m) @ t=0.96
6.152873321882419
% es.tEy (V/m) @ t=0.96
0
% es.tEz (V/m) @ t=0.96
-6.739660066860786
% V (V) @ t=0.96
0.008305112943576326
% es.normE (V/m) @ t=0.98
9.782913815966982
% es.EX (V/m) @ t=0.98
6.208232352190277
% es.EY (V/m) @ t=0.98
1.85647817993552
% es.EZ (V/m) @ t=0.98
-6.800298565578014
% es.tEX (V/m) @ t=0.98
6.208232352190272
% es.tEY (V/m) @ t=0.98
0
% es.tEZ (V/m) @ t=0.98
-6.800298565577999
% es.Ex (V/m) @ t=0.98
6.208232352190277
% es.Ey (V/m) @ t=0.98
1.85647817993552
% es.Ez (V/m) @ t=0.98
-6.800298565578014
% es.tEx (V/m) @ t=0.98
6.208232352190272
% es.tEy (V/m) @ t=0.98
0
% es.tEz (V/m) @ t=0.98
-6.800298565577999
% V (V) @ t=0.98
0.008379836227598143
% es.normE (V/m) @ t=1
9.870148403033255
% es.EX (V/m) @ t=1
6.263591382498123
% es.EY (V/m) @ t=1
1.873032461384983
% es.EZ (V/m) @ t=1
-6.860937064295232
% es.tEX (V/m) @ t=1
6.263591382498111
% es.tEY (V/m) @ t=1
0
% es.tEZ (V/m) @ t=1
-6.860937064295217
% es.Ex (V/m) @ t=1
6.263591382498123
% es.Ey (V/m) @ t=1
1.873032461384983
% es.Ez (V/m) @ t=1
-6.860937064295232
% es.tEx (V/m) @ t=1
6.263591382498111
% es.tEy (V/m) @ t=1
0
% es.tEz (V/m) @ t=1
-6.860937064295217
% V (V) @ t=1
0.008454559511619959
% es.normE (V/m) @ t=1.02
9.957382990099546
% es.EX (V/m) @ t=1.02
6.318950412805991
% es.EY (V/m) @ t=1.02
1.889586742834418
% es.EZ (V/m) @ t=1.02
-6.92157556301246
% es.tEX (V/m) @ t=1.02
6.31895041280598
% es.tEY (V/m) @ t=1.02
0
% es.tEZ (V/m) @ t=1.02
-6.921575563012445
% es.Ex (V/m) @ t=1.02
6.318950412805991
% es.Ey (V/m) @ t=1.02
1.889586742834418
% es.Ez (V/m) @ t=1.02
-6.92157556301246
% es.tEx (V/m) @ t=1.02
6.31895041280598
% es.tEy (V/m) @ t=1.02
0
% es.tEz (V/m) @ t=1.02
-6.921575563012445
% V (V) @ t=1.02
0.008529282795641776
% es.normE (V/m) @ t=1.04
10.044617577165823
% es.EX (V/m) @ t=1.04
6.37430944311383
% es.EY (V/m) @ t=1.04
1.9061410242838353
% es.EZ (V/m) @ t=1.04
-6.982214061729688
% es.tEX (V/m) @ t=1.04
6.374309443113819
% es.tEY (V/m) @ t=1.04
0
% es.tEZ (V/m) @ t=1.04
-6.982214061729673
% es.Ex (V/m) @ t=1.04
6.37430944311383
% es.Ey (V/m) @ t=1.04
1.9061410242838353
% es.Ez (V/m) @ t=1.04
-6.982214061729688
% es.tEx (V/m) @ t=1.04
6.374309443113819
% es.tEy (V/m) @ t=1.04
0
% es.tEz (V/m) @ t=1.04
-6.982214061729673
% V (V) @ t=1.04
0.008604006079663593
% es.normE (V/m) @ t=1.06
10.1318521642321
% es.EX (V/m) @ t=1.06
6.429668473421687
% es.EY (V/m) @ t=1.06