% Model:              1 neuron.mph
% Version:            COMSOL 6.0.0.405
% Date:               Mar 16 2023, 17:39
% Dimension:          0
% Nodes:              14017
% Expressions:        14017
% Description:        Electric field norm, Electric field, X component, Electric field, Y component, Electric field, Z component, Tangential electric field, X component, Tangential electric field, Y component, Tangential electric field, Z component, Electric field, x component, Electric field, y component, Electric field, z component, Tangential electric field, x component, Tangential electric field, y component, Tangential electric field, z component, Electric potential
% Length unit:        mm
% x
2
% y
12.2
% z
1
% es.normE (V/m) @ t=0
0.775649229485662
% es.EX (V/m) @ t=0
-0.5009042094094862
% es.EY (V/m) @ t=0
0.11128931315144647
% es.EZ (V/m) @ t=0
0.5712608592101391
% es.tEX (V/m) @ t=0
-0.5009042094094844
% es.tEY (V/m) @ t=0
0
% es.tEZ (V/m) @ t=0
0.5712608592101414
% es.Ex (V/m) @ t=0
-0.5009042094094862
% es.Ey (V/m) @ t=0
0.11128931315144647
% es.Ez (V/m) @ t=0
0.5712608592101391
% es.tEx (V/m) @ t=0
-0.5009042094094844
% es.tEy (V/m) @ t=0
0
% es.tEz (V/m) @ t=0
0.5712608592101414
% V (V) @ t=0
0.007506750996370548
% es.normE (V/m) @ t=0.02
0.6699441231833281
% es.EX (V/m) @ t=0.02
-0.43264122244563374
% es.EY (V/m) @ t=0.02
0.09612286178030899
% es.EZ (V/m) @ t=0.02
0.493409701361871
% es.tEX (V/m) @ t=0.02
-0.4326412224456322
% es.tEY (V/m) @ t=0.02
0
% es.tEZ (V/m) @ t=0.02
0.4934097013618799
% es.Ex (V/m) @ t=0.02
-0.43264122244563374
% es.Ey (V/m) @ t=0.02
0.09612286178030899
% es.Ez (V/m) @ t=0.02
0.493409701361871
% es.tEx (V/m) @ t=0.02
-0.4326412224456322
% es.tEy (V/m) @ t=0.02
0
% es.tEz (V/m) @ t=0.02
0.4934097013618799
% V (V) @ t=0.02
0.006483734391968937
% es.normE (V/m) @ t=0.04
0.6761069267258543
% es.EX (V/m) @ t=0.04
-0.43662108004172473
% es.EY (V/m) @ t=0.04
0.09700709843943195
% es.EZ (V/m) @ t=0.04
0.4979485666976524
% es.tEX (V/m) @ t=0.04
-0.4366210800417252
% es.tEY (V/m) @ t=0.04
0
% es.tEZ (V/m) @ t=0.04
0.49794856669765464
% es.Ex (V/m) @ t=0.04
-0.43662108004172473
% es.Ey (V/m) @ t=0.04
0.09700709843943195
% es.Ez (V/m) @ t=0.04
0.4979485666976524
% es.tEx (V/m) @ t=0.04
-0.4366210800417252
% es.tEy (V/m) @ t=0.04
0
% es.tEz (V/m) @ t=0.04
0.49794856669765464
% V (V) @ t=0.04
0.006543377912427895
% es.normE (V/m) @ t=0.06
0.6823289046017762
% es.EX (V/m) @ t=0.06
-0.4406391530742726
% es.EY (V/m) @ t=0.06
0.09789981916840901
% es.EZ (V/m) @ t=0.06
0.5025310155223739
% es.tEX (V/m) @ t=0.06
-0.44063915307427126
% es.tEY (V/m) @ t=0.06
0
% es.tEZ (V/m) @ t=0.06
0.5025310155223761
% es.Ex (V/m) @ t=0.06
-0.4406391530742726
% es.Ey (V/m) @ t=0.06
0.09789981916840901
% es.Ez (V/m) @ t=0.06
0.5025310155223739
% es.tEx (V/m) @ t=0.06
-0.44063915307427126
% es.tEy (V/m) @ t=0.06
0
% es.tEz (V/m) @ t=0.06
0.5025310155223761
% V (V) @ t=0.06
0.006603594462625043
% es.normE (V/m) @ t=0.08
0.6886373584628083
% es.EX (V/m) @ t=0.08
-0.44471307134342797
% es.EY (V/m) @ t=0.08
0.09880494664554834
% es.EZ (V/m) @ t=0.08
0.5071771536093799
% es.tEX (V/m) @ t=0.08
-0.44471307134342664
% es.tEY (V/m) @ t=0.08
0
% es.tEZ (V/m) @ t=0.08
0.5071771536093816
% es.Ex (V/m) @ t=0.08
-0.44471307134342797
% es.Ey (V/m) @ t=0.08
0.09880494664554834
% es.Ez (V/m) @ t=0.08
0.5071771536093799
% es.tEx (V/m) @ t=0.08
-0.44471307134342664
% es.tEy (V/m) @ t=0.08
0
% es.tEz (V/m) @ t=0.08
0.5071771536093816
% V (V) @ t=0.08
0.006664647969284963
% es.normE (V/m) @ t=0.1
0.6950233925927516
% es.EX (V/m) @ t=0.1
-0.44883709009386097
% es.EY (V/m) @ t=0.1
0.09972120459845901
% es.EZ (V/m) @ t=0.1
0.5118804292946368
% es.tEX (V/m) @ t=0.1
-0.44883709009385964
% es.tEY (V/m) @ t=0.1
0
% es.tEZ (V/m) @ t=0.1
0.5118804292946444
% es.Ex (V/m) @ t=0.1
-0.44883709009386097
% es.Ey (V/m) @ t=0.1
0.09972120459845901
% es.Ez (V/m) @ t=0.1
0.5118804292946368
% es.tEx (V/m) @ t=0.1
-0.44883709009385964
% es.tEy (V/m) @ t=0.1
0
% es.tEz (V/m) @ t=0.1
0.5118804292946444
% V (V) @ t=0.1
0.006726452335358077
% es.normE (V/m) @ t=0.12
0.7014094267226906
% es.EX (V/m) @ t=0.12
-0.45296110884429464
% es.EY (V/m) @ t=0.12
0.1006374625513759
% es.EZ (V/m) @ t=0.12
0.5165837049798845
% es.tEX (V/m) @ t=0.12
-0.45296110884429464
% es.tEY (V/m) @ t=0.12
0
% es.tEZ (V/m) @ t=0.12
0.5165837049798885
% es.Ex (V/m) @ t=0.12
-0.45296110884429464
% es.Ey (V/m) @ t=0.12
0.1006374625513759
% es.Ez (V/m) @ t=0.12
0.5165837049798845
% es.tEx (V/m) @ t=0.12
-0.45296110884429464
% es.tEy (V/m) @ t=0.12
0
% es.tEz (V/m) @ t=0.12
0.5165837049798885
% V (V) @ t=0.12
0.006788256701431192
% es.normE (V/m) @ t=0.14
0.707817825448387
% es.EX (V/m) @ t=0.14
-0.45709957025671
% es.EY (V/m) @ t=0.14
0.10155692980363101
% es.EZ (V/m) @ t=0.14
0.5213034519091231
% es.tEX (V/m) @ t=0.14
-0.45709957025670844
% es.tEY (V/m) @ t=0.14
0
% es.tEZ (V/m) @ t=0.14
0.5213034519091324
% es.Ex (V/m) @ t=0.14
-0.45709957025671
% es.Ey (V/m) @ t=0.14
0.10155692980363101
% es.Ez (V/m) @ t=0.14
0.5213034519091231
% es.tEx (V/m) @ t=0.14
-0.45709957025670844
% es.tEy (V/m) @ t=0.14
0
% es.tEz (V/m) @ t=0.14
0.5213034519091324
% V (V) @ t=0.14
0.0068502774879383044
% es.normE (V/m) @ t=0.16
0.7145513067799676
% es.EX (V/m) @ t=0.16
-0.4614479642895335
% es.EY (V/m) @ t=0.16
0.10252304611683521
% es.EZ (V/m) @ t=0.16
0.5262626180962289
% es.tEX (V/m) @ t=0.16
-0.46144796428953216
% es.tEY (V/m) @ t=0.16
0
% es.tEZ (V/m) @ t=0.16
0.526262618096236
% es.Ex (V/m) @ t=0.16
-0.4614479642895335
% es.Ey (V/m) @ t=0.16
0.10252304611683521
% es.Ez (V/m) @ t=0.16
0.5262626180962289
% es.tEx (V/m) @ t=0.16
-0.46144796428953216
% es.tEy (V/m) @ t=0.16
0
% es.tEz (V/m) @ t=0.16
0.526262618096236
% V (V) @ t=0.16
0.006915444073252502
% es.normE (V/m) @ t=0.18
0.7212847881115603
% es.EX (V/m) @ t=0.18
-0.46579635832235744
% es.EY (V/m) @ t=0.18
0.10348916243005274
% es.EZ (V/m) @ t=0.18
0.531221784283348
% es.tEX (V/m) @ t=0.18
-0.4657963583223592
% es.tEY (V/m) @ t=0.18
0
% es.tEZ (V/m) @ t=0.18
0.5312217842833538
% es.Ex (V/m) @ t=0.18
-0.46579635832235744
% es.Ey (V/m) @ t=0.18
0.10348916243005274
% es.Ez (V/m) @ t=0.18
0.531221784283348
% es.tEx (V/m) @ t=0.18
-0.4657963583223592
% es.tEy (V/m) @ t=0.18
0
% es.tEz (V/m) @ t=0.18
0.5312217842833538
% V (V) @ t=0.18
0.006980610658566699
% es.normE (V/m) @ t=0.2
0.7280182694431397
% es.EX (V/m) @ t=0.2
-0.47014475235518316
% es.EY (V/m) @ t=0.2
0.10445527874326493
% es.EZ (V/m) @ t=0.2
0.5361809504704498
% es.tEX (V/m) @ t=0.2
-0.47014475235518316
% es.tEY (V/m) @ t=0.2
0
% es.tEZ (V/m) @ t=0.2
0.5361809504704573
% es.Ex (V/m) @ t=0.2
-0.47014475235518316
% es.Ey (V/m) @ t=0.2
0.10445527874326493
% es.Ez (V/m) @ t=0.2
0.5361809504704498
% es.tEx (V/m) @ t=0.2
-0.47014475235518316
% es.tEy (V/m) @ t=0.2
0
% es.tEz (V/m) @ t=0.2
0.5361809504704573
% V (V) @ t=0.2
0.007045777243880895
% es.normE (V/m) @ t=0.22
0.7347517507747248
% es.EX (V/m) @ t=0.22
-0.4744931463880082
% es.EY (V/m) @ t=0.22
0.10542139505647796
% es.EZ (V/m) @ t=0.22
0.5411401166575591
% es.tEX (V/m) @ t=0.22
-0.47449314638800666
% es.tEY (V/m) @ t=0.22
0
% es.tEZ (V/m) @ t=0.22
0.5411401166575649
% es.Ex (V/m) @ t=0.22
-0.4744931463880082
% es.Ey (V/m) @ t=0.22
0.10542139505647796
% es.Ez (V/m) @ t=0.22
0.5411401166575591
% es.tEx (V/m) @ t=0.22
-0.47449314638800666
% es.tEy (V/m) @ t=0.22
0
% es.tEz (V/m) @ t=0.22
0.5411401166575649
% V (V) @ t=0.22
0.007110943829195091
% es.normE (V/m) @ t=0.24
0.7414852321063079
% es.EX (V/m) @ t=0.24
-0.4788415404208355
% es.EY (V/m) @ t=0.24
0.10638751136968927
% es.EZ (V/m) @ t=0.24
0.5460992828446645
% es.tEX (V/m) @ t=0.24
-0.47884154042083393
% es.tEY (V/m) @ t=0.24
0
% es.tEZ (V/m) @ t=0.24
0.546099282844672
% es.Ex (V/m) @ t=0.24
-0.4788415404208355
% es.Ey (V/m) @ t=0.24
0.10638751136968927
% es.Ez (V/m) @ t=0.24
0.5460992828446645
% es.tEx (V/m) @ t=0.24
-0.47884154042083393
% es.tEy (V/m) @ t=0.24
0
% es.tEz (V/m) @ t=0.24
0.546099282844672
% V (V) @ t=0.24
0.007176110414509287
% es.normE (V/m) @ t=0.26
0.7482187134378951
% es.EX (V/m) @ t=0.26
-0.483189934453659
% es.EY (V/m) @ t=0.26
0.10735362768290502
% es.EZ (V/m) @ t=0.26
0.5510584490317751
% es.tEX (V/m) @ t=0.26
-0.48318993445365743
% es.tEY (V/m) @ t=0.26
0
% es.tEZ (V/m) @ t=0.26
0.5510584490317827
% es.Ex (V/m) @ t=0.26
-0.483189934453659
% es.Ey (V/m) @ t=0.26
0.10735362768290502
% es.Ez (V/m) @ t=0.26
0.5510584490317751
% es.tEx (V/m) @ t=0.26
-0.48318993445365743
% es.tEy (V/m) @ t=0.26
0
% es.tEz (V/m) @ t=0.26
0.5510584490317827
% V (V) @ t=0.26
0.007241276999823482
% es.normE (V/m) @ t=0.28
0.7550615173054938
% es.EX (V/m) @ t=0.28
-0.4876089446662655
% es.EY (V/m) @ t=0.28
0.10833535469077282
% es.EZ (V/m) @ t=0.28
0.5560981542308201
% es.tEX (V/m) @ t=0.28
-0.4876089446662655
% es.tEY (V/m) @ t=0.28
0
% es.tEZ (V/m) @ t=0.28
0.5560981542308241
% es.Ex (V/m) @ t=0.28
-0.4876089446662655
% es.Ey (V/m) @ t=0.28
0.10833535469077282
% es.Ez (V/m) @ t=0.28
0.5560981542308201
% es.tEx (V/m) @ t=0.28
-0.4876089446662655
% es.tEy (V/m) @ t=0.28
0
% es.tEz (V/m) @ t=0.28
0.5560981542308241
% V (V) @ t=0.28
0.007307505701549728
% es.normE (V/m) @ t=0.3
0.7625821632614195
% es.EX (V/m) @ t=0.3
-0.492465802558431
% es.EY (V/m) @ t=0.3
0.10941387405483471
% es.EZ (V/m) @ t=0.3
0.5616372325140038
% es.tEX (V/m) @ t=0.3
-0.492465802558431
% es.tEY (V/m) @ t=0.3
0
% es.tEZ (V/m) @ t=0.3
0.5616372325140095
% es.Ex (V/m) @ t=0.3
-0.492465802558431
% es.Ey (V/m) @ t=0.3
0.10941387405483471
% es.Ez (V/m) @ t=0.3
0.5616372325140038
% es.tEx (V/m) @ t=0.3
-0.492465802558431
% es.tEy (V/m) @ t=0.3
0
% es.tEz (V/m) @ t=0.3
0.5616372325140095
% V (V) @ t=0.3
0.007380319936617986
% es.normE (V/m) @ t=0.32
0.7701028092187765
% es.EX (V/m) @ t=0.32
-0.4973226604505965
% es.EY (V/m) @ t=0.32
0.11049239341890649
% es.EZ (V/m) @ t=0.32
0.5671763107971945
% es.tEX (V/m) @ t=0.32
-0.4973226604505947
% es.tEY (V/m) @ t=0.32
0
% es.tEZ (V/m) @ t=0.32
0.5671763107972017
% es.Ex (V/m) @ t=0.32
-0.4973226604505965
% es.Ey (V/m) @ t=0.32
0.11049239341890649
% es.Ez (V/m) @ t=0.32
0.5671763107971945
% es.tEx (V/m) @ t=0.32
-0.4973226604505947
% es.tEy (V/m) @ t=0.32
0
% es.tEz (V/m) @ t=0.32
0.5671763107972017
% V (V) @ t=0.32
0.007453134171686245
% es.normE (V/m) @ t=0.34
0.7776234551775127
% es.EX (V/m) @ t=0.34
-0.5021795183427549
% es.EY (V/m) @ t=0.34
0.11157091278298709
% es.EZ (V/m) @ t=0.34
0.5727153890803867
% es.tEX (V/m) @ t=0.34
-0.5021795183427533
% es.tEY (V/m) @ t=0.34
0
% es.tEZ (V/m) @ t=0.34
0.5727153890803907
% es.Ex (V/m) @ t=0.34
-0.5021795183427549
% es.Ey (V/m) @ t=0.34
0.11157091278298709
% es.Ez (V/m) @ t=0.34
0.5727153890803867
% es.tEx (V/m) @ t=0.34
-0.5021795183427533
% es.tEy (V/m) @ t=0.34
0
% es.tEz (V/m) @ t=0.34
0.5727153890803907
% V (V) @ t=0.34
0.0075259484067545035
% es.normE (V/m) @ t=0.36
0.785144101137591
% es.EX (V/m) @ t=0.36
-0.5070363762349201
% es.EY (V/m) @ t=0.36
0.11264943214705164
% es.EZ (V/m) @ t=0.36
0.5782544673635757
% es.tEX (V/m) @ t=0.36
-0.5070363762349186
% es.tEY (V/m) @ t=0.36
0
% es.tEZ (V/m) @ t=0.36
0.5782544673635797
% es.Ex (V/m) @ t=0.36
-0.5070363762349201
% es.Ey (V/m) @ t=0.36
0.11264943214705164
% es.Ez (V/m) @ t=0.36
0.5782544673635757
% es.tEx (V/m) @ t=0.36
-0.5070363762349186
% es.tEy (V/m) @ t=0.36
0
% es.tEz (V/m) @ t=0.36
0.5782544673635797
% V (V) @ t=0.36
0.007598762641822762
% es.normE (V/m) @ t=0.38
0.7926647470989763
% es.EX (V/m) @ t=0.38
-0.5118932341270834
% es.EY (V/m) @ t=0.38
0.11372795151111176
% es.EZ (V/m) @ t=0.38
0.5837935456467709
% es.tEX (V/m) @ t=0.38
-0.5118932341270817
% es.tEY (V/m) @ t=0.38
0
% es.tEZ (V/m) @ t=0.38
0.5837935456467767
% es.Ex (V/m) @ t=0.38
-0.5118932341270834
% es.Ey (V/m) @ t=0.38
0.11372795151111176
% es.Ez (V/m) @ t=0.38
0.5837935456467709
% es.tEx (V/m) @ t=0.38
-0.5118932341270817
% es.tEy (V/m) @ t=0.38
0
% es.tEz (V/m) @ t=0.38
0.5837935456467767
% V (V) @ t=0.38
0.007671576876891021
% es.normE (V/m) @ t=0.4
0.8001853930616213
% es.EX (V/m) @ t=0.4
-0.5167500920192492
% es.EY (V/m) @ t=0.4
0.11480647087518975
% es.EZ (V/m) @ t=0.4
0.5893326239299501
% es.tEX (V/m) @ t=0.4
-0.5167500920192492
% es.tEY (V/m) @ t=0.4
0
% es.tEZ (V/m) @ t=0.4
0.5893326239299648
% es.Ex (V/m) @ t=0.4
-0.5167500920192492
% es.Ey (V/m) @ t=0.4
0.11480647087518975
% es.Ez (V/m) @ t=0.4
0.5893326239299501
% es.tEx (V/m) @ t=0.4
-0.5167500920192492
% es.tEy (V/m) @ t=0.4
0
% es.tEz (V/m) @ t=0.4
0.5893326239299648
% V (V) @ t=0.4
0.007744391111959279
% es.normE (V/m) @ t=0.42
0.8077060390255058
% es.EX (V/m) @ t=0.42
-0.5216069499114131
% es.EY (V/m) @ t=0.42
0.11588499023926147
% es.EZ (V/m) @ t=0.42
0.5948717022131409
% es.tEX (V/m) @ t=0.42
-0.5216069499114131
% es.tEY (V/m) @ t=0.42
0
% es.tEZ (V/m) @ t=0.42
0.5948717022131467
% es.Ex (V/m) @ t=0.42
-0.5216069499114131
% es.Ey (V/m) @ t=0.42
0.11588499023926147
% es.Ez (V/m) @ t=0.42
0.5948717022131409
% es.tEx (V/m) @ t=0.42
-0.5216069499114131
% es.tEy (V/m) @ t=0.42
0
% es.tEz (V/m) @ t=0.42
0.5948717022131467
% V (V) @ t=0.42
0.007817205347027536
% es.normE (V/m) @ t=0.44
0.8152266849905896
% es.EX (V/m) @ t=0.44
-0.5264638078035784
% es.EY (V/m) @ t=0.44
0.11696350960333496
% es.EZ (V/m) @ t=0.44
0.6004107804963352
% es.tEX (V/m) @ t=0.44
-0.5264638078035784
% es.tEY (V/m) @ t=0.44
0
% es.tEZ (V/m) @ t=0.44
0.6004107804963428
% es.Ex (V/m) @ t=0.44
-0.5264638078035784
% es.Ey (V/m) @ t=0.44
0.11696350960333496
% es.Ez (V/m) @ t=0.44
0.6004107804963352
% es.tEx (V/m) @ t=0.44
-0.5264638078035784
% es.tEy (V/m) @ t=0.44
0
% es.tEz (V/m) @ t=0.44
0.6004107804963428
% V (V) @ t=0.44
0.007890019582095795
% es.normE (V/m) @ t=0.46
0.8227473309568322
% es.EX (V/m) @ t=0.46
-0.5313206656957421
% es.EY (V/m) @ t=0.46
0.1180420289674004
% es.EZ (V/m) @ t=0.46
0.6059498587795193
% es.tEX (V/m) @ t=0.46
-0.5313206656957421
% es.tEY (V/m) @ t=0.46
0
% es.tEZ (V/m) @ t=0.46
0.6059498587795251
% es.Ex (V/m) @ t=0.46
-0.5313206656957421
% es.Ey (V/m) @ t=0.46
0.1180420289674004
% es.Ez (V/m) @ t=0.46
0.6059498587795193
% es.tEx (V/m) @ t=0.46
-0.5313206656957421
% es.tEy (V/m) @ t=0.46
0
% es.tEz (V/m) @ t=0.46
0.6059498587795251
% V (V) @ t=0.46
0.007962833817164052
% es.normE (V/m) @ t=0.48
0.8302679769242175
% es.EX (V/m) @ t=0.48
-0.5361775235879056
% es.EY (V/m) @ t=0.48
0.11912054833147384
% es.EZ (V/m) @ t=0.48
0.6114889370627172
% es.tEX (V/m) @ t=0.48
-0.5361775235879036
% es.tEY (V/m) @ t=0.48
0
% es.tEZ (V/m) @ t=0.48
0.6114889370627177
% es.Ex (V/m) @ t=0.48
-0.5361775235879056
% es.Ey (V/m) @ t=0.48
0.11912054833147384
% es.Ez (V/m) @ t=0.48
0.6114889370627172
% es.tEx (V/m) @ t=0.48
-0.5361775235879036
% es.tEy (V/m) @ t=0.48
0
% es.tEz (V/m) @ t=0.48
0.6114889370627177
% V (V) @ t=0.48
0.008035648052232313
% es.normE (V/m) @ t=0.5
0.8377886228927007
% es.EX (V/m) @ t=0.5
-0.5410343814800784
% es.EY (V/m) @ t=0.5
0.12019906769554739
% es.EZ (V/m) @ t=0.5
0.6170280153459
% es.tEX (V/m) @ t=0.5
-0.5410343814800767
% es.tEY (V/m) @ t=0.5
0
% es.tEZ (V/m) @ t=0.5
0.6170280153459027
% es.Ex (V/m) @ t=0.5
-0.5410343814800784
% es.Ey (V/m) @ t=0.5
0.12019906769554739
% es.Ez (V/m) @ t=0.5
0.6170280153459
% es.tEx (V/m) @ t=0.5
-0.5410343814800767
% es.tEy (V/m) @ t=0.5
0
% es.tEz (V/m) @ t=0.5
0.6170280153459027
% V (V) @ t=0.5
0.008108462287300569
% es.normE (V/m) @ t=0.52
0.8453092688622492
% es.EX (V/m) @ t=0.52
-0.545891239372231
% es.EY (V/m) @ t=0.52
0.12127758705961644
% es.EZ (V/m) @ t=0.52
0.6225670936290912
% es.tEX (V/m) @ t=0.52
-0.545891239372231
% es.tEY (V/m) @ t=0.52
0
% es.tEZ (V/m) @ t=0.52
0.6225670936291019
% es.Ex (V/m) @ t=0.52
-0.545891239372231
% es.Ey (V/m) @ t=0.52
0.12127758705961644
% es.Ez (V/m) @ t=0.52
0.6225670936290912
% es.tEx (V/m) @ t=0.52
-0.545891239372231
% es.tEy (V/m) @ t=0.52
0
% es.tEz (V/m) @ t=0.52
0.6225670936291019
% V (V) @ t=0.52
0.008181276522368832
% es.normE (V/m) @ t=0.54
0.85282991483286
% es.EX (V/m) @ t=0.54
-0.5507480972643983
% es.EY (V/m) @ t=0.54
0.12235610642368988
% es.EZ (V/m) @ t=0.54
0.6281061719122896
% es.tEX (V/m) @ t=0.54
-0.5507480972643963
% es.tEY (V/m) @ t=0.54
0
% es.tEZ (V/m) @ t=0.54
0.6281061719122913
% es.Ex (V/m) @ t=0.54
-0.5507480972643983
% es.Ey (V/m) @ t=0.54
0.12235610642368988
% es.Ez (V/m) @ t=0.54
0.6281061719122896
% es.tEx (V/m) @ t=0.54
-0.5507480972643963
% es.tEy (V/m) @ t=0.54
0
% es.tEz (V/m) @ t=0.54
0.6281061719122913
% V (V) @ t=0.54
0.008254090757437089
% es.normE (V/m) @ t=0.56
0.8606041604755345
% es.EX (V/m) @ t=0.56
-0.5557686329331089
% es.EY (V/m) @ t=0.56
0.12347142133550354
% es.EZ (V/m) @ t=0.56
0.6338318953863631
% es.tEX (V/m) @ t=0.56
-0.5557686329331051
% es.tEY (V/m) @ t=0.56
0
% es.tEZ (V/m) @ t=0.56
0.6338318953863702
% es.Ex (V/m) @ t=0.56
-0.5557686329331089
% es.Ey (V/m) @ t=0.56
0.12347142133550354
% es.Ez (V/m) @ t=0.56
0.6338318953863631
% es.tEx (V/m) @ t=0.56
-0.5557686329331051
% es.tEy (V/m) @ t=0.56
0
% es.tEz (V/m) @ t=0.56
0.6338318953863702
% V (V) @ t=0.56
0.008329336946155688
% es.normE (V/m) @ t=0.58
0.8690056435133325
% es.EX (V/m) @ t=0.58
-0.5611939988655235
% es.EY (V/m) @ t=0.58
0.12467774402865917
% es.EZ (V/m) @ t=0.58
0.6400192552746162
% es.tEX (V/m) @ t=0.58
-0.5611939988655215
% es.tEY (V/m) @ t=0.58
0
% es.tEZ (V/m) @ t=0.58
0.640019255274618
% es.Ex (V/m) @ t=0.58
-0.5611939988655235
% es.Ey (V/m) @ t=0.58
0.12467774402865917
% es.Ez (V/m) @ t=0.58
0.6400192552746162
% es.tEx (V/m) @ t=0.58
-0.5611939988655215
% es.tEy (V/m) @ t=0.58
0
% es.tEz (V/m) @ t=0.58
0.640019255274618
% V (V) @ t=0.58
0.008410598175268806
% es.normE (V/m) @ t=0.6
0.8774071265551433
% es.EX (V/m) @ t=0.6
-0.5666193647979421
% es.EY (V/m) @ t=0.6
0.12588406672180774
% es.EZ (V/m) @ t=0.6
0.6462066151628738
% es.tEX (V/m) @ t=0.6
-0.5666193647979401
% es.tEY (V/m) @ t=0.6
0
% es.tEZ (V/m) @ t=0.6
0.646206615162872
% es.Ex (V/m) @ t=0.6
-0.5666193647979421
% es.Ey (V/m) @ t=0.6
0.12588406672180774
% es.Ez (V/m) @ t=0.6
0.6462066151628738
% es.tEx (V/m) @ t=0.6
-0.5666193647979401
% es.tEy (V/m) @ t=0.6
0
% es.tEz (V/m) @ t=0.6
0.646206615162872
% V (V) @ t=0.6
0.008491859404381921
% es.normE (V/m) @ t=0.62
0.8858086096008462
% es.EX (V/m) @ t=0.62
-0.5720447307303564
% es.EY (V/m) @ t=0.62
0.12709038941495626
% es.EZ (V/m) @ t=0.62
0.6523939750511341
% es.tEX (V/m) @ t=0.62
-0.5720447307303547
% es.tEY (V/m) @ t=0.62
0
% es.tEZ (V/m) @ t=0.62
0.6523939750511483
% es.Ex (V/m) @ t=0.62
-0.5720447307303564
% es.Ey (V/m) @ t=0.62
0.12709038941495626
% es.Ez (V/m) @ t=0.62
0.6523939750511341
% es.tEx (V/m) @ t=0.62
-0.5720447307303547
% es.tEy (V/m) @ t=0.62
0
% es.tEz (V/m) @ t=0.62
0.6523939750511483
% V (V) @ t=0.62
0.00857312063349504
% es.normE (V/m) @ t=0.64
0.8942100926503427
% es.EX (V/m) @ t=0.64
-0.5774700966627779
% es.EY (V/m) @ t=0.64
0.12829671210810656
% es.EZ (V/m) @ t=0.64
0.6585813349394032
% es.tEX (V/m) @ t=0.64
-0.5774700966627759
% es.tEY (V/m) @ t=0.64
0
% es.tEZ (V/m) @ t=0.64
0.6585813349394112
% es.Ex (V/m) @ t=0.64
-0.5774700966627779
% es.Ey (V/m) @ t=0.64
0.12829671210810656
% es.Ez (V/m) @ t=0.64
0.6585813349394032
% es.tEx (V/m) @ t=0.64
-0.5774700966627759
% es.tEy (V/m) @ t=0.64
0
% es.tEz (V/m) @ t=0.64
0.6585813349394112
% V (V) @ t=0.64
0.008654381862608154
% es.normE (V/m) @ t=0.66
0.9026115757035093
% es.EX (V/m) @ t=0.66
-0.5828954625951925
% es.EY (V/m) @ t=0.66
0.1295030348012568
% es.EZ (V/m) @ t=0.66
0.6647686948276688
% es.tEX (V/m) @ t=0.66
-0.5828954625951941
% es.tEY (V/m) @ t=0.66
0
% es.tEZ (V/m) @ t=0.66
0.6647686948276803
% es.Ex (V/m) @ t=0.66
-0.5828954625951925
% es.Ey (V/m) @ t=0.66
0.1295030348012568
% es.Ez (V/m) @ t=0.66
0.6647686948276688
% es.tEx (V/m) @ t=0.66
-0.5828954625951941
% es.tEy (V/m) @ t=0.66
0
% es.tEz (V/m) @ t=0.66
0.6647686948276803
% V (V) @ t=0.66
0.008735643091721272
% es.normE (V/m) @ t=0.68
0.9110130587602541
% es.EX (V/m) @ t=0.68
-0.5883208285276147
% es.EY (V/m) @ t=0.68
0.13070935749440188
% es.EZ (V/m) @ t=0.68
0.6709560547159299
% es.tEX (V/m) @ t=0.68
-0.5883208285276091
% es.tEY (V/m) @ t=0.68
0
% es.tEZ (V/m) @ t=0.68
0.6709560547159343
% es.Ex (V/m) @ t=0.68
-0.5883208285276147
% es.Ey (V/m) @ t=0.68
0.13070935749440188
% es.Ez (V/m) @ t=0.68
0.6709560547159299
% es.tEx (V/m) @ t=0.68
-0.5883208285276091
% es.tEy (V/m) @ t=0.68
0
% es.tEz (V/m) @ t=0.68
0.6709560547159343
% V (V) @ t=0.68
0.008816904320834389
% es.normE (V/m) @ t=0.7
0.91941454182047
% es.EX (V/m) @ t=0.7
-0.5937461944600253
% es.EY (V/m) @ t=0.7
0.13191568018755567
% es.EZ (V/m) @ t=0.7
0.6771434146041919
% es.tEX (V/m) @ t=0.7
-0.5937461944600269
% es.tEY (V/m) @ t=0.7
0
% es.tEZ (V/m) @ t=0.7
0.6771434146042035
% es.Ex (V/m) @ t=0.7
-0.5937461944600253
% es.Ey (V/m) @ t=0.7
0.13191568018755567
% es.Ez (V/m) @ t=0.7
0.6771434146041919
% es.tEx (V/m) @ t=0.7
-0.5937461944600269
% es.tEy (V/m) @ t=0.7
0
% es.tEz (V/m) @ t=0.7
0.6771434146042035
% V (V) @ t=0.7
0.008898165549947505
% es.normE (V/m) @ t=0.72
0.9278160248840719
% es.EX (V/m) @ t=0.72
-0.5991715603924399
% es.EY (V/m) @ t=0.72
0.13312200288070686
% es.EZ (V/m) @ t=0.72
0.6833307744924539
% es.tEX (V/m) @ t=0.72
-0.5991715603924415
% es.tEY (V/m) @ t=0.72
0
% es.tEZ (V/m) @ t=0.72
0.6833307744924513
% es.Ex (V/m) @ t=0.72
-0.5991715603924399
% es.Ey (V/m) @ t=0.72
0.13312200288070686
% es.Ez (V/m) @ t=0.72
0.6833307744924539
% es.tEx (V/m) @ t=0.72
-0.5991715603924415
% es.tEy (V/m) @ t=0.72
0
% es.tEz (V/m) @ t=0.72
0.6833307744924513
% V (V) @ t=0.72
0.00897942677906062
% es.normE (V/m) @ t=0.74
0.9362175079509683
% es.EX (V/m) @ t=0.74
-0.6045969263248656
% es.EY (V/m) @ t=0.74
0.1343283255738652
% es.EZ (V/m) @ t=0.74
0.6895181343807097
% es.tEX (V/m) @ t=0.74
-0.6045969263248601
% es.tEY (V/m) @ t=0.74
0
% es.tEZ (V/m) @ t=0.74
0.689518134380716
% es.Ex (V/m) @ t=0.74
-0.6045969263248656
% es.Ey (V/m) @ t=0.74
0.1343283255738652
% es.Ez (V/m) @ t=0.74
0.6895181343807097
% es.tEx (V/m) @ t=0.74
-0.6045969263248601
% es.tEy (V/m) @ t=0.74
0
% es.tEz (V/m) @ t=0.74
0.689518134380716
% V (V) @ t=0.74
0.009060688008173738
% es.normE (V/m) @ t=0.76
0.9446189910210647
% es.EX (V/m) @ t=0.76
-0.61002229225728
% es.EY (V/m) @ t=0.76
0.13553464826700035
% es.EZ (V/m) @ t=0.76
0.6957054942689753
% es.tEX (V/m) @ t=0.76
-0.6100222922572778
% es.tEY (V/m) @ t=0.76
0
% es.tEZ (V/m) @ t=0.76
0.6957054942689789
% es.Ex (V/m) @ t=0.76
-0.61002229225728
% es.Ey (V/m) @ t=0.76
0.13553464826700035
% es.Ez (V/m) @ t=0.76
0.6957054942689753
% es.tEx (V/m) @ t=0.76
-0.6100222922572778
% es.tEy (V/m) @ t=0.76
0
% es.tEz (V/m) @ t=0.76
0.6957054942689789
% V (V) @ t=0.76
0.009141949237286853
% es.normE (V/m) @ t=0.78
0.9530204740942849
% es.EX (V/m) @ t=0.78
-0.6154476581896982
% es.EY (V/m) @ t=0.78
0.1367409709601516
% es.EZ (V/m) @ t=0.78
0.7018928541572365
% es.tEX (V/m) @ t=0.78
-0.6154476581896959
% es.tEY (V/m) @ t=0.78
0
% es.tEZ (V/m) @ t=0.78
0.7018928541572471
% es.Ex (V/m) @ t=0.78
-0.6154476581896982
% es.Ey (V/m) @ t=0.78
0.1367409709601516
% es.Ez (V/m) @ t=0.78
0.7018928541572365
% es.tEx (V/m) @ t=0.78
-0.6154476581896959
% es.tEy (V/m) @ t=0.78
0
% es.tEz (V/m) @ t=0.78
0.7018928541572471
% V (V) @ t=0.78
0.009223210466399972
% es.normE (V/m) @ t=0.8
0.9614219571705387
% es.EX (V/m) @ t=0.8
-0.6208730241221163
% es.EY (V/m) @ t=0.8
0.13794729365330716
% es.EZ (V/m) @ t=0.8
0.7080802140454914
% es.tEX (V/m) @ t=0.8
-0.6208730241221105
% es.tEY (V/m) @ t=0.8
0
% es.tEZ (V/m) @ t=0.8
0.7080802140454914
% es.Ex (V/m) @ t=0.8
-0.6208730241221163
% es.Ey (V/m) @ t=0.8
0.13794729365330716
% es.Ez (V/m) @ t=0.8
0.7080802140454914
% es.tEx (V/m) @ t=0.8
-0.6208730241221105
% es.tEy (V/m) @ t=0.8
0
% es.tEz (V/m) @ t=0.8
0.7080802140454914
% V (V) @ t=0.8
0.009304471695513086
% es.normE (V/m) @ t=0.82
0.9698234402497594
% es.EX (V/m) @ t=0.82
-0.6262983900545271
% es.EY (V/m) @ t=0.82
0.13915361634645662
% es.EZ (V/m) @ t=0.82
0.7142675739337676
% es.tEX (V/m) @ t=0.82
-0.6262983900545285
% es.tEY (V/m) @ t=0.82
0
% es.tEZ (V/m) @ t=0.82
0.7142675739337676
% es.Ex (V/m) @ t=0.82
-0.6262983900545271
% es.Ey (V/m) @ t=0.82
0.13915361634645662
% es.Ez (V/m) @ t=0.82
0.7142675739337676
% es.tEx (V/m) @ t=0.82
-0.6262983900545285
% es.tEy (V/m) @ t=0.82
0
% es.tEz (V/m) @ t=0.82
0.7142675739337676
% V (V) @ t=0.82
0.009385732924626205
% es.normE (V/m) @ t=0.84
0.9786698756535993
% es.EX (V/m) @ t=0.84
-0.6320111696206361
% es.EY (V/m) @ t=0.84
0.14042347773688035
% es.EZ (V/m) @ t=0.84
0.7207827341206334
% es.tEX (V/m) @ t=0.84
-0.6320111696206374
% es.tEY (V/m) @ t=0.84
0
% es.tEZ (V/m) @ t=0.84
0.7207827341206476
% es.Ex (V/m) @ t=0.84
-0.6320111696206361
% es.Ey (V/m) @ t=0.84
0.14042347773688035
% es.Ez (V/m) @ t=0.84
0.7207827341206334
% es.tEx (V/m) @ t=0.84
-0.6320111696206374
% es.tEy (V/m) @ t=0.84
0
% es.tEz (V/m) @ t=0.84
0.7207827341206476
% V (V) @ t=0.84
0.009471316963089014
% es.normE (V/m) @ t=0.86
0.9880897106424404
% es.EX (V/m) @ t=0.86
-0.6380943323715933
% es.EY (V/m) @ t=0.86
0.14177521995094722
% es.EZ (V/m) @ t=0.86
0.7277203228368512
% es.tEX (V/m) @ t=0.86
-0.6380943323715875
% es.tEY (V/m) @ t=0.86
0
% es.tEZ (V/m) @ t=0.86
0.7277203228368583
% es.Ex (V/m) @ t=0.86
-0.6380943323715933
% es.Ey (V/m) @ t=0.86
0.14177521995094722
% es.Ez (V/m) @ t=0.86
0.7277203228368512
% es.tEx (V/m) @ t=0.86
-0.6380943323715875
% es.tEy (V/m) @ t=0.86
0
% es.tEz (V/m) @ t=0.86
0.7277203228368583
% V (V) @ t=0.86
0.009562471704214084
% es.normE (V/m) @ t=0.88
0.9975095456313563
% es.EX (V/m) @ t=0.88
-0.644177495122543
% es.EY (V/m) @ t=0.88
0.14312696216501397
% es.EZ (V/m) @ t=0.88
0.7346579115530663
% es.tEX (V/m) @ t=0.88
-0.6441774951225443
% es.tEY (V/m) @ t=0.88
0
% es.tEZ (V/m) @ t=0.88
0.7346579115530627
% es.Ex (V/m) @ t=0.88
-0.644177495122543
% es.Ey (V/m) @ t=0.88
0.14312696216501397
% es.Ez (V/m) @ t=0.88
0.7346579115530663
% es.tEx (V/m) @ t=0.88
-0.6441774951225443
% es.tEy (V/m) @ t=0.88
0
% es.tEz (V/m) @ t=0.88
0.7346579115530627
% V (V) @ t=0.88
0.009653626445339153
% es.normE (V/m) @ t=0.9
1.0069293806203414
% es.EX (V/m) @ t=0.9
-0.6502606578734853
% es.EY (V/m) @ t=0.9
0.14447870437908594
% es.EZ (V/m) @ t=0.9
0.7415955002692671
% es.tEX (V/m) @ t=0.9
-0.6502606578734866
% es.tEY (V/m) @ t=0.9
0
% es.tEZ (V/m) @ t=0.9
0.7415955002692742
% es.Ex (V/m) @ t=0.9
-0.6502606578734853
% es.Ey (V/m) @ t=0.9
0.14447870437908594
% es.Ez (V/m) @ t=0.9
0.7415955002692671
% es.tEx (V/m) @ t=0.9
-0.6502606578734866
% es.tEy (V/m) @ t=0.9
0
% es.tEz (V/m) @ t=0.9
0.7415955002692742
% V (V) @ t=0.9
0.009744781186464225
% es.normE (V/m) @ t=0.92
1.0163492156094178
% es.EX (V/m) @ t=0.92
-0.6563438206244423
% es.EY (V/m) @ t=0.92
0.14583044659315003
% es.EZ (V/m) @ t=0.92
0.7485330889854787
% es.tEX (V/m) @ t=0.92
-0.6563438206244401
% es.tEY (V/m) @ t=0.92
0
% es.tEZ (V/m) @ t=0.92
0.7485330889854724
% es.Ex (V/m) @ t=0.92
-0.6563438206244423
% es.Ey (V/m) @ t=0.92
0.14583044659315003
% es.Ez (V/m) @ t=0.92
0.7485330889854787
% es.tEx (V/m) @ t=0.92
-0.6563438206244401
% es.tEy (V/m) @ t=0.92
0
% es.tEz (V/m) @ t=0.92
0.7485330889854724
% V (V) @ t=0.92
0.009835935927589298
% es.normE (V/m) @ t=0.94
1.0257690505985644
% es.EX (V/m) @ t=0.94
-0.6624269833753886
% es.EY (V/m) @ t=0.94
0.14718218880722922
% es.EZ (V/m) @ t=0.94
0.7554706777016857
% es.tEX (V/m) @ t=0.94
-0.66242698337539
% es.tEY (V/m) @ t=0.94
0
% es.tEZ (V/m) @ t=0.94
0.7554706777016902
% es.Ex (V/m) @ t=0.94
-0.6624269833753886
% es.Ey (V/m) @ t=0.94
0.14718218880722922
% es.Ez (V/m) @ t=0.94
0.7554706777016857
% es.tEx (V/m) @ t=0.94
-0.66242698337539
% es.tEy (V/m) @ t=0.94
0
% es.tEz (V/m) @ t=0.94
0.7554706777016902
% V (V) @ t=0.94
0.009927090668714365
% es.normE (V/m) @ t=0.96
1.0351888855877838
% es.EX (V/m) @ t=0.96
-0.6685101461263385
% es.EY (V/m) @ t=0.96
0.14853393102129864
% es.EZ (V/m) @ t=0.96
0.7624082664178937
% es.tEX (V/m) @ t=0.96
-0.6685101461263363
% es.tEY (V/m) @ t=0.96
0
% es.tEZ (V/m) @ t=0.96
0.7624082664179017
% es.Ex (V/m) @ t=0.96
-0.6685101461263385
% es.Ey (V/m) @ t=0.96
0.14853393102129864
% es.Ez (V/m) @ t=0.96
0.7624082664178937
% es.tEx (V/m) @ t=0.96
-0.6685101461263363
% es.tEy (V/m) @ t=0.96
0
% es.tEz (V/m) @ t=0.96
0.7624082664179017
% V (V) @ t=0.96
0.010018245409839437
% es.normE (V/m) @ t=0.98
1.04460872057708
% es.EX (V/m) @ t=0.98
-0.6745933088772957
% es.EY (V/m) @ t=0.98
0.1498856732353646
% es.EZ (V/m) @ t=0.98
0.7693458551341008
% es.tEX (V/m) @ t=0.98
-0.6745933088772897
% es.tEY (V/m) @ t=0.98
0
% es.tEZ (V/m) @ t=0.98
0.7693458551341052
% es.Ex (V/m) @ t=0.98
-0.6745933088772957
% es.Ey (V/m) @ t=0.98
0.1498856732353646
% es.Ez (V/m) @ t=0.98
0.7693458551341008
% es.tEx (V/m) @ t=0.98
-0.6745933088772897
% es.tEy (V/m) @ t=0.98
0
% es.tEz (V/m) @ t=0.98
0.7693458551341052
% V (V) @ t=0.98
0.010109400150964508
% es.normE (V/m) @ t=1
1.054028555566446
% es.EX (V/m) @ t=1
-0.6806764716282416
% es.EY (V/m) @ t=1
0.1512374154494357
% es.EZ (V/m) @ t=1
0.7762834438503159
% es.tEX (V/m) @ t=1
-0.680676471628243
% es.tEY (V/m) @ t=1
0
% es.tEZ (V/m) @ t=1
0.7762834438503239
% es.Ex (V/m) @ t=1
-0.6806764716282416
% es.Ey (V/m) @ t=1
0.1512374154494357
% es.Ez (V/m) @ t=1
0.7762834438503159
% es.tEx (V/m) @ t=1
-0.680676471628243
% es.tEy (V/m) @ t=1
0
% es.tEz (V/m) @ t=1
0.7762834438503239
% V (V) @ t=1
0.010200554892089578
% es.normE (V/m) @ t=1.02
1.0634483905558794
% es.EX (V/m) @ t=1.02
-0.6867596343791948
% es.EY (V/m) @ t=1.02
0.15258915766349535
% es.EZ (V/m) @ t=1.02
0.7832210325665274
% es.tEX (V/m) @ t=1.02
-0.6867596343791926
% es.tEY (V/m) @ t=1.02
0
% es.tEZ (V/m) @ t=1.02
0.7832210325665354
% es.Ex (V/m) @ t=1.02
-0.6867596343791948
% es.Ey (V/m) @ t=1.02
0.15258915766349535
% es.Ez (V/m) @ t=1.02
0.7832210325665274
% es.tEx (V/m) @ t=1.02
-0.6867596343791926
% es.tEy (V/m) @ t=1.02
0
% es.tEz (V/m) @ t=1.02
0.7832210325665354
% V (V) @ t=1.02
0.010291709633214649
% es.normE (V/m) @ t=1.04
1.0728682255453674
% es.EX (V/m) @ t=1.04
-0.692842797130141
% es.EY (V/m) @ t=1.04
0.153940899877563