% Model:              1 neuron.mph
% Version:            COMSOL 6.0.0.405
% Date:               Mar 16 2023, 17:34
% Dimension:          0
% Nodes:              14017
% Expressions:        14017
% Description:        Electric field norm, Electric field, X component, Electric field, Y component, Electric field, Z component, Tangential electric field, X component, Tangential electric field, Y component, Tangential electric field, Z component, Electric field, x component, Electric field, y component, Electric field, z component, Tangential electric field, x component, Tangential electric field, y component, Tangential electric field, z component, Electric potential
% Length unit:        mm
% x
1.66
% y
12.2
% z
2
% es.normE (V/m) @ t=0
1.460969719757904
% es.EX (V/m) @ t=0
-0.4358383018217372
% es.EY (V/m) @ t=0
0.03255496724959099
% es.EZ (V/m) @ t=0
-1.3917193948322604
% es.tEX (V/m) @ t=0
-0.43583830182174665
% es.tEY (V/m) @ t=0
0
% es.tEZ (V/m) @ t=0
-1.3917193948322772
% es.Ex (V/m) @ t=0
-0.4358383018217372
% es.Ey (V/m) @ t=0
0.03255496724959099
% es.Ez (V/m) @ t=0
-1.3917193948322604
% es.tEx (V/m) @ t=0
-0.43583830182174665
% es.tEy (V/m) @ t=0
0
% es.tEz (V/m) @ t=0
-1.3917193948322772
% V (V) @ t=0
0.007343445505928032
% es.normE (V/m) @ t=0.02
1.2618674935876215
% es.EX (V/m) @ t=0.02
-0.3764418796545487
% es.EY (V/m) @ t=0.02
0.028118350865403728
% es.EZ (V/m) @ t=0.02
-1.2020546626603368
% es.tEX (V/m) @ t=0.02
-0.37644187965455345
% es.tEY (V/m) @ t=0.02
0
% es.tEZ (V/m) @ t=0.02
-1.2020546626603514
% es.Ex (V/m) @ t=0.02
-0.3764418796545487
% es.Ey (V/m) @ t=0.02
0.028118350865403728
% es.Ez (V/m) @ t=0.02
-1.2020546626603368
% es.tEx (V/m) @ t=0.02
-0.37644187965455345
% es.tEy (V/m) @ t=0.02
0
% es.tEz (V/m) @ t=0.02
-1.2020546626603514
% V (V) @ t=0.02
0.006342674273721448
% es.normE (V/m) @ t=0.04
1.2734741065563102
% es.EX (V/m) @ t=0.04
-0.3799043820778947
% es.EY (V/m) @ t=0.04
0.02837698977945654
% es.EZ (V/m) @ t=0.04
-1.2131111177865157
% es.tEX (V/m) @ t=0.04
-0.37990438207789623
% es.tEY (V/m) @ t=0.04
0
% es.tEZ (V/m) @ t=0.04
-1.2131111177865268
% es.Ex (V/m) @ t=0.04
-0.3799043820778947
% es.Ey (V/m) @ t=0.04
0.02837698977945654
% es.Ez (V/m) @ t=0.04
-1.2131111177865157
% es.tEx (V/m) @ t=0.04
-0.37990438207789623
% es.tEy (V/m) @ t=0.04
0
% es.tEz (V/m) @ t=0.04
-1.2131111177865268
% V (V) @ t=0.04
0.006401013766657977
% es.normE (V/m) @ t=0.06
1.285185675865391
% es.EX (V/m) @ t=0.06
-0.3833981929394148
% es.EY (V/m) @ t=0.06
0.02863796228856267
% es.EZ (V/m) @ t=0.06
-1.224267555370231
% es.tEX (V/m) @ t=0.06
-0.383398192939417
% es.tEY (V/m) @ t=0.06
0
% es.tEZ (V/m) @ t=0.06
-1.224267555370246
% es.Ex (V/m) @ t=0.06
-0.3833981929394148
% es.Ey (V/m) @ t=0.06
0.02863796228856267
% es.Ez (V/m) @ t=0.06
-1.224267555370231
% es.tEx (V/m) @ t=0.06
-0.383398192939417
% es.tEy (V/m) @ t=0.06
0
% es.tEz (V/m) @ t=0.06
-1.224267555370246
% V (V) @ t=0.06
0.006459880957304539
% es.normE (V/m) @ t=0.08
1.2970752555340401
% es.EX (V/m) @ t=0.08
-0.3869451100049931
% es.EY (V/m) @ t=0.08
0.028902905799314565
% es.EZ (V/m) @ t=0.08
-1.2355935646648888
% es.tEX (V/m) @ t=0.08
-0.3869451100049943
% es.tEY (V/m) @ t=0.08
0
% es.tEZ (V/m) @ t=0.08
-1.2355935646648968
% es.Ex (V/m) @ t=0.08
-0.3869451100049931
% es.Ey (V/m) @ t=0.08
0.028902905799314565
% es.Ez (V/m) @ t=0.08
-1.2355935646648888
% es.tEx (V/m) @ t=0.08
-0.3869451100049943
% es.tEy (V/m) @ t=0.08
0
% es.tEz (V/m) @ t=0.08
-1.2355935646648968
% V (V) @ t=0.08
0.006519642781046064
% es.normE (V/m) @ t=0.1
1.3090901024871866
% es.EX (V/m) @ t=0.1
-0.39052939832238726
% es.EY (V/m) @ t=0.1
0.029170643735040837
% es.EZ (V/m) @ t=0.1
-1.2470389029008988
% es.tEX (V/m) @ t=0.1
-0.39052939832239275
% es.tEY (V/m) @ t=0.1
0
% es.tEZ (V/m) @ t=0.1
-1.2470389029009024
% es.Ex (V/m) @ t=0.1
-0.39052939832238726
% es.Ey (V/m) @ t=0.1
0.029170643735040837
% es.Ez (V/m) @ t=0.1
-1.2470389029008988
% es.tEx (V/m) @ t=0.1
-0.39052939832239275
% es.tEy (V/m) @ t=0.1
0
% es.tEz (V/m) @ t=0.1
-1.2470389029009024
% V (V) @ t=0.1
0.006580034165104839
% es.normE (V/m) @ t=0.12
1.3211049494403246
% es.EX (V/m) @ t=0.12
-0.39411368663977353
% es.EY (V/m) @ t=0.12
0.029438381670759114
% es.EZ (V/m) @ t=0.12
-1.2584842411369017
% es.tEX (V/m) @ t=0.12
-0.39411368663977697
% es.tEY (V/m) @ t=0.12
0
% es.tEZ (V/m) @ t=0.12
-1.2584842411369142
% es.Ex (V/m) @ t=0.12
-0.39411368663977353
% es.Ey (V/m) @ t=0.12
0.029438381670759114
% es.Ez (V/m) @ t=0.12
-1.2584842411369017
% es.tEx (V/m) @ t=0.12
-0.39411368663977697
% es.tEy (V/m) @ t=0.12
0
% es.tEz (V/m) @ t=0.12
-1.2584842411369142
% V (V) @ t=0.12
0.006640425549163614
% es.normE (V/m) @ t=0.14
1.333237806780455
% es.EX (V/m) @ t=0.14
-0.3977331770927345
% es.EY (V/m) @ t=0.14
0.029708742748804584
% es.EZ (V/m) @ t=0.14
-1.2700419973952481
% es.tEX (V/m) @ t=0.14
-0.3977331770927428
% es.tEY (V/m) @ t=0.14
0
% es.tEZ (V/m) @ t=0.14
-1.2700419973952561
% es.Ex (V/m) @ t=0.14
-0.3977331770927345
% es.Ey (V/m) @ t=0.14
0.029708742748804584
% es.Ez (V/m) @ t=0.14
-1.2700419973952481
% es.tEx (V/m) @ t=0.14
-0.3977331770927428
% es.tEy (V/m) @ t=0.14
0
% es.tEz (V/m) @ t=0.14
-1.2700419973952561
% V (V) @ t=0.14
0.0067014102832143934
% es.normE (V/m) @ t=0.16
1.3458944325819642
% es.EX (V/m) @ t=0.16
-0.4015089060671764
% es.EY (V/m) @ t=0.16
0.029990746185247927
% es.EZ (V/m) @ t=0.16
-1.2820987013826528
% es.tEX (V/m) @ t=0.16
-0.4015089060671784
% es.tEY (V/m) @ t=0.16
0
% es.tEZ (V/m) @ t=0.16
-1.2820987013826617
% es.Ex (V/m) @ t=0.16
-0.4015089060671764
% es.Ey (V/m) @ t=0.16
0.029990746185247927
% es.Ez (V/m) @ t=0.16
-1.2820987013826528
% es.tEx (V/m) @ t=0.16
-0.4015089060671784
% es.tEy (V/m) @ t=0.16
0
% es.tEz (V/m) @ t=0.16
-1.2820987013826617
% V (V) @ t=0.16
0.006765028497421482
% es.normE (V/m) @ t=0.18
1.3585510583834677
% es.EX (V/m) @ t=0.18
-0.4052846350416178
% es.EY (V/m) @ t=0.18
0.03027274962167563
% es.EZ (V/m) @ t=0.18
-1.2941554053700508
% es.tEX (V/m) @ t=0.18
-0.40528463504162104
% es.tEY (V/m) @ t=0.18
0
% es.tEZ (V/m) @ t=0.18
-1.294155405370061
% es.Ex (V/m) @ t=0.18
-0.4052846350416178
% es.Ey (V/m) @ t=0.18
0.03027274962167563
% es.Ez (V/m) @ t=0.18
-1.2941554053700508
% es.tEx (V/m) @ t=0.18
-0.40528463504162104
% es.tEy (V/m) @ t=0.18
0
% es.tEz (V/m) @ t=0.18
-1.294155405370061
% V (V) @ t=0.18
0.00682864671162857
% es.normE (V/m) @ t=0.2
1.3712076841849616
% es.EX (V/m) @ t=0.2
-0.4090603640160566
% es.EY (V/m) @ t=0.2
0.030554753058122747
% es.EZ (V/m) @ t=0.2
-1.3062121093574377
% es.tEX (V/m) @ t=0.2
-0.40906036401606016
% es.tEY (V/m) @ t=0.2
0
% es.tEZ (V/m) @ t=0.2
-1.3062121093574532
% es.Ex (V/m) @ t=0.2
-0.4090603640160566
% es.Ey (V/m) @ t=0.2
0.030554753058122747
% es.Ez (V/m) @ t=0.2
-1.3062121093574377
% es.tEx (V/m) @ t=0.2
-0.40906036401606016
% es.tEy (V/m) @ t=0.2
0
% es.tEz (V/m) @ t=0.2
-1.3062121093574532
% V (V) @ t=0.2
0.006892264925835657
% es.normE (V/m) @ t=0.22
1.38386430998646
% es.EX (V/m) @ t=0.22
-0.4128360929904963
% es.EY (V/m) @ t=0.22
0.030836756494545016
% es.EZ (V/m) @ t=0.22
-1.3182688133448286
% es.tEX (V/m) @ t=0.22
-0.4128360929904993
% es.tEY (V/m) @ t=0.22
0
% es.tEZ (V/m) @ t=0.22
-1.3182688133448446
% es.Ex (V/m) @ t=0.22
-0.4128360929904963
% es.Ey (V/m) @ t=0.22
0.030836756494545016
% es.Ez (V/m) @ t=0.22
-1.3182688133448286
% es.tEx (V/m) @ t=0.22
-0.4128360929904993
% es.tEy (V/m) @ t=0.22
0
% es.tEz (V/m) @ t=0.22
-1.3182688133448446
% V (V) @ t=0.22
0.006955883140042744
% es.normE (V/m) @ t=0.24
1.3965209357879558
% es.EX (V/m) @ t=0.24
-0.41661182196493685
% es.EY (V/m) @ t=0.24
0.03111875993099046
% es.EZ (V/m) @ t=0.24
-1.3303255173322155
% es.tEX (V/m) @ t=0.24
-0.4166118219649455
% es.tEY (V/m) @ t=0.24
0
% es.tEZ (V/m) @ t=0.24
-1.330325517332236
% es.Ex (V/m) @ t=0.24
-0.41661182196493685
% es.Ey (V/m) @ t=0.24
0.03111875993099046
% es.Ez (V/m) @ t=0.24
-1.3303255173322155
% es.tEx (V/m) @ t=0.24
-0.4166118219649455
% es.tEy (V/m) @ t=0.24
0
% es.tEz (V/m) @ t=0.24
-1.330325517332236
% V (V) @ t=0.24
0.007019501354249831
% es.normE (V/m) @ t=0.26
1.4091775615894706
% es.EX (V/m) @ t=0.26
-0.42038755093938185
% es.EY (V/m) @ t=0.26
0.03140076336743059
% es.EZ (V/m) @ t=0.26
-1.3423822213196206
% es.tEX (V/m) @ t=0.26
-0.4203875509393846
% es.tEY (V/m) @ t=0.26
0
% es.tEZ (V/m) @ t=0.26
-1.3423822213196281
% es.Ex (V/m) @ t=0.26
-0.42038755093938185
% es.Ey (V/m) @ t=0.26
0.03140076336743059
% es.Ez (V/m) @ t=0.26
-1.3423822213196206
% es.tEx (V/m) @ t=0.26
-0.4203875509393846
% es.tEy (V/m) @ t=0.26
0
% es.tEz (V/m) @ t=0.26
-1.3423822213196281
% V (V) @ t=0.26
0.007083119568456918
% es.normE (V/m) @ t=0.28
1.4223801880630687
% es.EX (V/m) @ t=0.28
-0.42432592339678277
% es.EY (V/m) @ t=0.28
0.03169439140145451
% es.EZ (V/m) @ t=0.28
-1.3549591588159156
% es.tEX (V/m) @ t=0.28
-0.42432592339678976
% es.tEY (V/m) @ t=0.28
0
% es.tEZ (V/m) @ t=0.28
-1.3549591588159347
% es.Ex (V/m) @ t=0.28
-0.42432592339678277
% es.Ey (V/m) @ t=0.28
0.03169439140145451
% es.Ez (V/m) @ t=0.28
-1.3549591588159156
% es.tEx (V/m) @ t=0.28
-0.42432592339678976
% es.tEy (V/m) @ t=0.28
0
% es.tEz (V/m) @ t=0.28
-1.3549591588159347
% V (V) @ t=0.28
0.007149497271891145
% es.normE (V/m) @ t=0.3
1.4364822916785096
% es.EX (V/m) @ t=0.3
-0.4285322334270769
% es.EY (V/m) @ t=0.3
0.032007169704546486
% es.EZ (V/m) @ t=0.3
-1.3683931248335868
% es.tEX (V/m) @ t=0.3
-0.42853223342707736
% es.tEY (V/m) @ t=0.3
0
% es.tEZ (V/m) @ t=0.3
-1.3683931248335925
% es.Ex (V/m) @ t=0.3
-0.4285322334270769
% es.Ey (V/m) @ t=0.3
0.032007169704546486
% es.Ez (V/m) @ t=0.3
-1.3683931248335868
% es.tEx (V/m) @ t=0.3
-0.42853223342707736
% es.tEy (V/m) @ t=0.3
0
% es.tEz (V/m) @ t=0.3
-1.3683931248335925
% V (V) @ t=0.3
0.007220420935805734
% es.normE (V/m) @ t=0.32
1.45058439529668
% es.EX (V/m) @ t=0.32
-0.4327385434573683
% es.EY (V/m) @ t=0.32
0.03231994800764601
% es.EZ (V/m) @ t=0.32
-1.381827090851258
% es.tEX (V/m) @ t=0.32
-0.43273854345737206
% es.tEY (V/m) @ t=0.32
0
% es.tEZ (V/m) @ t=0.32
-1.3818270908512584
% es.Ex (V/m) @ t=0.32
-0.4327385434573683
% es.Ey (V/m) @ t=0.32
0.03231994800764601
% es.Ez (V/m) @ t=0.32
-1.381827090851258
% es.tEx (V/m) @ t=0.32
-0.43273854345737206
% es.tEy (V/m) @ t=0.32
0
% es.tEz (V/m) @ t=0.32
-1.3818270908512584
% V (V) @ t=0.32
0.007291344599720325
% es.normE (V/m) @ t=0.34
1.4646864989174906
% es.EX (V/m) @ t=0.34
-0.436944853487665
% es.EY (V/m) @ t=0.34
0.03263272631074332
% es.EZ (V/m) @ t=0.34
-1.3952610568689154
% es.tEX (V/m) @ t=0.34
-0.43694485348766676
% es.tEY (V/m) @ t=0.34
0
% es.tEZ (V/m) @ t=0.34
-1.3952610568689243
% es.Ex (V/m) @ t=0.34
-0.436944853487665
% es.Ey (V/m) @ t=0.34
0.03263272631074332
% es.Ez (V/m) @ t=0.34
-1.3952610568689154
% es.tEx (V/m) @ t=0.34
-0.43694485348766676
% es.tEy (V/m) @ t=0.34
0
% es.tEz (V/m) @ t=0.34
-1.3952610568689243
% V (V) @ t=0.34
0.007362268263634913
% es.normE (V/m) @ t=0.36
1.478788602540876
% es.EX (V/m) @ t=0.36
-0.44115116351796
% es.EY (V/m) @ t=0.36
0.0329455046138273
% es.EZ (V/m) @ t=0.36
-1.4086950228865724
% es.tEX (V/m) @ t=0.36
-0.441151163517965
% es.tEY (V/m) @ t=0.36
0
% es.tEZ (V/m) @ t=0.36
-1.4086950228865973
% es.Ex (V/m) @ t=0.36
-0.44115116351796
% es.Ey (V/m) @ t=0.36
0.0329455046138273
% es.Ez (V/m) @ t=0.36
-1.4086950228865724
% es.tEx (V/m) @ t=0.36
-0.441151163517965
% es.tEy (V/m) @ t=0.36
0
% es.tEz (V/m) @ t=0.36
-1.4086950228865973
% V (V) @ t=0.36
0.007433191927549503
% es.normE (V/m) @ t=0.38
1.49289070616677
% es.EX (V/m) @ t=0.38
-0.4453574735482515
% es.EY (V/m) @ t=0.38
0.033258282916924606
% es.EZ (V/m) @ t=0.38
-1.4221289889042366
% es.tEX (V/m) @ t=0.38
-0.44535747354825617
% es.tEY (V/m) @ t=0.38
0
% es.tEZ (V/m) @ t=0.38
-1.422128988904249
% es.Ex (V/m) @ t=0.38
-0.4453574735482515
% es.Ey (V/m) @ t=0.38
0.033258282916924606
% es.Ez (V/m) @ t=0.38
-1.4221289889042366
% es.tEx (V/m) @ t=0.38
-0.44535747354825617
% es.tEy (V/m) @ t=0.38
0
% es.tEz (V/m) @ t=0.38
-1.422128988904249
% V (V) @ t=0.38
0.007504115591464093
% es.normE (V/m) @ t=0.4
1.506992809795097
% es.EX (V/m) @ t=0.4
-0.44956378357854465
% es.EY (V/m) @ t=0.4
0.03357106122002435
% es.EZ (V/m) @ t=0.4
-1.4355629549219002
% es.tEX (V/m) @ t=0.4
-0.44956378357855087
% es.tEY (V/m) @ t=0.4
0
% es.tEZ (V/m) @ t=0.4
-1.435562954921914
% es.Ex (V/m) @ t=0.4
-0.44956378357854465
% es.Ey (V/m) @ t=0.4
0.03357106122002435
% es.Ez (V/m) @ t=0.4
-1.4355629549219002
% es.tEx (V/m) @ t=0.4
-0.44956378357855087
% es.tEy (V/m) @ t=0.4
0
% es.tEz (V/m) @ t=0.4
-1.435562954921914
% V (V) @ t=0.4
0.007575039255378682
% es.normE (V/m) @ t=0.42
1.5210949134257905
% es.EX (V/m) @ t=0.42
-0.45377009360884135
% es.EY (V/m) @ t=0.42
0.03388383952312077
% es.EZ (V/m) @ t=0.42
-1.4489969209395648
% es.tEX (V/m) @ t=0.42
-0.453770093608842
% es.tEY (V/m) @ t=0.42
0
% es.tEZ (V/m) @ t=0.42
-1.4489969209395728
% es.Ex (V/m) @ t=0.42
-0.45377009360884135
% es.Ey (V/m) @ t=0.42
0.03388383952312077
% es.Ez (V/m) @ t=0.42
-1.4489969209395648
% es.tEx (V/m) @ t=0.42
-0.453770093608842
% es.tEy (V/m) @ t=0.42
0
% es.tEz (V/m) @ t=0.42
-1.4489969209395728
% V (V) @ t=0.42
0.007645962919293271
% es.normE (V/m) @ t=0.44
1.5351970170587672
% es.EX (V/m) @ t=0.44
-0.4579764036391265
% es.EY (V/m) @ t=0.44
0.034196617826214554
% es.EZ (V/m) @ t=0.44
-1.4624308869572151
% es.tEX (V/m) @ t=0.44
-0.45797640363913317
% es.tEY (V/m) @ t=0.44
0
% es.tEZ (V/m) @ t=0.44
-1.4624308869572307
% es.Ex (V/m) @ t=0.44
-0.4579764036391265
% es.Ey (V/m) @ t=0.44
0.034196617826214554
% es.Ez (V/m) @ t=0.44
-1.4624308869572151
% es.tEx (V/m) @ t=0.44
-0.45797640363913317
% es.tEy (V/m) @ t=0.44
0
% es.tEz (V/m) @ t=0.44
-1.4624308869572307
% V (V) @ t=0.44
0.007716886583207861
% es.normE (V/m) @ t=0.46
1.5492991206939983
% es.EX (V/m) @ t=0.46
-0.46218271366942676
% es.EY (V/m) @ t=0.46
0.034509396129315195
% es.EZ (V/m) @ t=0.46
-1.4758648529748792
% es.tEX (V/m) @ t=0.46
-0.4621827136694314
% es.tEY (V/m) @ t=0.46
0
% es.tEZ (V/m) @ t=0.46
-1.4758648529748895
% es.Ex (V/m) @ t=0.46
-0.46218271366942676
% es.Ey (V/m) @ t=0.46
0.034509396129315195
% es.Ez (V/m) @ t=0.46
-1.4758648529748792
% es.tEx (V/m) @ t=0.46
-0.4621827136694314
% es.tEy (V/m) @ t=0.46
0
% es.tEz (V/m) @ t=0.46
-1.4758648529748895
% V (V) @ t=0.46
0.00778781024712245
% es.normE (V/m) @ t=0.48
1.5634012243314115
% es.EX (V/m) @ t=0.48
-0.46638902369972357
% es.EY (V/m) @ t=0.48
0.034822174432401584
% es.EZ (V/m) @ t=0.48
-1.4892988189925505
% es.tEX (V/m) @ t=0.48
-0.4663890236997261
% es.tEY (V/m) @ t=0.48
0
% es.tEZ (V/m) @ t=0.48
-1.4892988189925624
% es.Ex (V/m) @ t=0.48
-0.46638902369972357
% es.Ey (V/m) @ t=0.48
0.034822174432401584
% es.Ez (V/m) @ t=0.48
-1.4892988189925505
% es.tEx (V/m) @ t=0.48
-0.4663890236997261
% es.tEy (V/m) @ t=0.48
0
% es.tEz (V/m) @ t=0.48
-1.4892988189925624
% V (V) @ t=0.48
0.007858733911037039
% es.normE (V/m) @ t=0.5
1.577503327970934
% es.EX (V/m) @ t=0.5
-0.47059533373001405
% es.EY (V/m) @ t=0.5
0.035134952735502475
% es.EZ (V/m) @ t=0.5
-1.5027327850102146
% es.tEX (V/m) @ t=0.5
-0.4705953337300173
% es.tEY (V/m) @ t=0.5
0
% es.tEZ (V/m) @ t=0.5
-1.5027327850102203
% es.Ex (V/m) @ t=0.5
-0.47059533373001405
% es.Ey (V/m) @ t=0.5
0.035134952735502475
% es.Ez (V/m) @ t=0.5
-1.5027327850102146
% es.tEx (V/m) @ t=0.5
-0.4705953337300173
% es.tEy (V/m) @ t=0.5
0
% es.tEz (V/m) @ t=0.5
-1.5027327850102203
% V (V) @ t=0.5
0.00792965757495163
% es.normE (V/m) @ t=0.52
1.591605431612513
% es.EX (V/m) @ t=0.52
-0.474801643760309
% es.EY (V/m) @ t=0.52
0.03544773103859623
% es.EZ (V/m) @ t=0.52
-1.516166751027872
% es.tEX (V/m) @ t=0.52
-0.47480164376031553
% es.tEY (V/m) @ t=0.52
0
% es.tEZ (V/m) @ t=0.52
-1.5161667510278862
% es.Ex (V/m) @ t=0.52
-0.474801643760309
% es.Ey (V/m) @ t=0.52
0.03544773103859623
% es.Ez (V/m) @ t=0.52
-1.516166751027872
% es.tEx (V/m) @ t=0.52
-0.47480164376031553
% es.tEy (V/m) @ t=0.52
0
% es.tEz (V/m) @ t=0.52
-1.5161667510278862
% V (V) @ t=0.52
0.008000581238866216
% es.normE (V/m) @ t=0.54
1.6057075352560986
% es.EX (V/m) @ t=0.54
-0.4790079537906014
% es.EY (V/m) @ t=0.54
0.03576050934168795
% es.EZ (V/m) @ t=0.54
-1.5296007170455286
% es.tEX (V/m) @ t=0.54
-0.4790079537906031
% es.tEY (V/m) @ t=0.54
0
% es.tEZ (V/m) @ t=0.54
-1.529600717045545
% es.Ex (V/m) @ t=0.54
-0.4790079537906014
% es.Ey (V/m) @ t=0.54
0.03576050934168795
% es.Ez (V/m) @ t=0.54
-1.5296007170455286
% es.tEx (V/m) @ t=0.54
-0.4790079537906031
% es.tEy (V/m) @ t=0.54
0
% es.tEz (V/m) @ t=0.54
-1.529600717045545
% V (V) @ t=0.54
0.008071504902780807
% es.normE (V/m) @ t=0.56
1.621062708448753
% es.EX (V/m) @ t=0.56
-0.48358795319050085
% es.EY (V/m) @ t=0.56
0.036100919922613973
% es.EZ (V/m) @ t=0.56
-1.5442284172941103
% es.tEX (V/m) @ t=0.56
-0.48358795319050785
% es.tEY (V/m) @ t=0.56
0
% es.tEZ (V/m) @ t=0.56
-1.5442284172941223
% es.Ex (V/m) @ t=0.56
-0.48358795319050085
% es.Ey (V/m) @ t=0.56
0.036100919922613973
% es.Ez (V/m) @ t=0.56
-1.5442284172941103
% es.tEx (V/m) @ t=0.56
-0.48358795319050785
% es.tEy (V/m) @ t=0.56
0
% es.tEz (V/m) @ t=0.56
-1.5442284172941223
% V (V) @ t=0.56
0.008148735078583644
% es.normE (V/m) @ t=0.58
1.6368018904313437
% es.EX (V/m) @ t=0.58
-0.4882824713749797
% es.EY (V/m) @ t=0.58
0.036449798539098036
% es.EZ (V/m) @ t=0.58
-1.5592219427556984
% es.tEX (V/m) @ t=0.58
-0.4882824713749798
% es.tEY (V/m) @ t=0.58
0
% es.tEZ (V/m) @ t=0.58
-1.5592219427557072
% es.Ex (V/m) @ t=0.58
-0.4882824713749797
% es.Ey (V/m) @ t=0.58
0.036449798539098036
% es.Ez (V/m) @ t=0.58
-1.5592219427556984
% es.tEx (V/m) @ t=0.58
-0.4882824713749798
% es.tEy (V/m) @ t=0.58
0
% es.tEz (V/m) @ t=0.58
-1.5592219427557072
% V (V) @ t=0.58
0.00822789791326071
% es.normE (V/m) @ t=0.6
1.652541072416946
% es.EX (V/m) @ t=0.6
-0.492976989559457
% es.EY (V/m) @ t=0.6
0.036798677155576734
% es.EZ (V/m) @ t=0.6
-1.5742154682172793
% es.tEX (V/m) @ t=0.6
-0.49297698955946245
% es.tEY (V/m) @ t=0.6
0
% es.tEZ (V/m) @ t=0.6
-1.5742154682172984
% es.Ex (V/m) @ t=0.6
-0.492976989559457
% es.Ey (V/m) @ t=0.6
0.036798677155576734
% es.Ez (V/m) @ t=0.6
-1.5742154682172793
% es.tEx (V/m) @ t=0.6
-0.49297698955946245
% es.tEy (V/m) @ t=0.6
0
% es.tEz (V/m) @ t=0.6
-1.5742154682172984
% V (V) @ t=0.6
0.008307060747937781
% es.normE (V/m) @ t=0.62
1.668280254405487
% es.EX (V/m) @ t=0.62
-0.4976715077439323
% es.EY (V/m) @ t=0.62
0.03714755577206437
% es.EZ (V/m) @ t=0.62
-1.5892089936788674
% es.tEX (V/m) @ t=0.62
-0.497671507743938
% es.tEY (V/m) @ t=0.62
0
% es.tEZ (V/m) @ t=0.62
-1.5892089936788825
% es.Ex (V/m) @ t=0.62
-0.4976715077439323
% es.Ey (V/m) @ t=0.62
0.03714755577206437
% es.Ez (V/m) @ t=0.62
-1.5892089936788674
% es.tEx (V/m) @ t=0.62
-0.497671507743938
% es.tEy (V/m) @ t=0.62
0
% es.tEz (V/m) @ t=0.62
-1.5892089936788825
% V (V) @ t=0.62
0.008386223582614847
% es.normE (V/m) @ t=0.64
1.684019436396896
% es.EX (V/m) @ t=0.64
-0.5023660259284166
% es.EY (V/m) @ t=0.64
0.037496434388549986
% es.EZ (V/m) @ t=0.64
-1.60420251914047
% es.tEX (V/m) @ t=0.64
-0.5023660259284171
% es.tEY (V/m) @ t=0.64
0
% es.tEZ (V/m) @ t=0.64
-1.6042025191404887
% es.Ex (V/m) @ t=0.64
-0.5023660259284166
% es.Ey (V/m) @ t=0.64
0.037496434388549986
% es.Ez (V/m) @ t=0.64
-1.60420251914047
% es.tEx (V/m) @ t=0.64
-0.5023660259284171
% es.tEy (V/m) @ t=0.64
0
% es.tEz (V/m) @ t=0.64
-1.6042025191404887
% V (V) @ t=0.64
0.008465386417291916
% es.normE (V/m) @ t=0.66
1.6997586183910445
% es.EX (V/m) @ t=0.66
-0.5070605441128839
% es.EY (V/m) @ t=0.66
0.03784531300503072
% es.EZ (V/m) @ t=0.66
-1.6191960446020444
% es.tEX (V/m) @ t=0.66
-0.5070605441128926
% es.tEY (V/m) @ t=0.66
0
% es.tEZ (V/m) @ t=0.66
-1.6191960446020586
% es.Ex (V/m) @ t=0.66
-0.5070605441128839
% es.Ey (V/m) @ t=0.66
0.03784531300503072
% es.Ez (V/m) @ t=0.66
-1.6191960446020444
% es.tEx (V/m) @ t=0.66
-0.5070605441128926
% es.tEy (V/m) @ t=0.66
0
% es.tEz (V/m) @ t=0.66
-1.6191960446020586
% V (V) @ t=0.66
0.008544549251968984
% es.normE (V/m) @ t=0.68
1.7154978003879204
% es.EX (V/m) @ t=0.68
-0.5117550622973719
% es.EY (V/m) @ t=0.68
0.038194191621519845
% es.EZ (V/m) @ t=0.68
-1.6341895700636462
% es.tEX (V/m) @ t=0.68
-0.5117550622973752
% es.tEY (V/m) @ t=0.68
0
% es.tEZ (V/m) @ t=0.68
-1.6341895700636568
% es.Ex (V/m) @ t=0.68
-0.5117550622973719
% es.Ey (V/m) @ t=0.68
0.038194191621519845
% es.Ez (V/m) @ t=0.68
-1.6341895700636462
% es.tEx (V/m) @ t=0.68
-0.5117550622973752
% es.tEy (V/m) @ t=0.68
0
% es.tEz (V/m) @ t=0.68
-1.6341895700636568
% V (V) @ t=0.68
0.008623712086646054
% es.normE (V/m) @ t=0.7
1.7312369823873994
% es.EX (V/m) @ t=0.7
-0.5164495804818456
% es.EY (V/m) @ t=0.7
0.03854307023799499
% es.EZ (V/m) @ t=0.7
-1.6491830955252338
% es.tEX (V/m) @ t=0.7
-0.5164495804818543
% es.tEY (V/m) @ t=0.7
0
% es.tEZ (V/m) @ t=0.7
-1.6491830955252427
% es.Ex (V/m) @ t=0.7
-0.5164495804818456
% es.Ey (V/m) @ t=0.7
0.03854307023799499
% es.Ez (V/m) @ t=0.7
-1.6491830955252338
% es.tEx (V/m) @ t=0.7
-0.5164495804818543
% es.tEy (V/m) @ t=0.7
0
% es.tEz (V/m) @ t=0.7
-1.6491830955252427
% V (V) @ t=0.7
0.008702874921323121
% es.normE (V/m) @ t=0.72
1.746976164389425
% es.EX (V/m) @ t=0.72
-0.52114409866632
% es.EY (V/m) @ t=0.72
0.038891948854488156
% es.EZ (V/m) @ t=0.72
-1.6641766209868152
% es.tEX (V/m) @ t=0.72
-0.5211440986663227
% es.tEY (V/m) @ t=0.72
0
% es.tEZ (V/m) @ t=0.72
-1.6641766209868258
% es.Ex (V/m) @ t=0.72
-0.52114409866632
% es.Ey (V/m) @ t=0.72
0.038891948854488156
% es.Ez (V/m) @ t=0.72
-1.6641766209868152
% es.tEx (V/m) @ t=0.72
-0.5211440986663227
% es.tEy (V/m) @ t=0.72
0
% es.tEz (V/m) @ t=0.72
-1.6641766209868258
% V (V) @ t=0.72
0.008782037756000187
% es.normE (V/m) @ t=0.74
1.762715346393946
% es.EX (V/m) @ t=0.74
-0.5258386168507982
% es.EY (V/m) @ t=0.74
0.039240827470966626
% es.EZ (V/m) @ t=0.74
-1.67917014644841
% es.tEX (V/m) @ t=0.74
-0.5258386168507982
% es.tEY (V/m) @ t=0.74
0
% es.tEZ (V/m) @ t=0.74
-1.6791701464484312
% es.Ex (V/m) @ t=0.74
-0.5258386168507982
% es.Ey (V/m) @ t=0.74
0.039240827470966626
% es.Ez (V/m) @ t=0.74
-1.67917014644841
% es.tEx (V/m) @ t=0.74
-0.5258386168507982
% es.tEy (V/m) @ t=0.74
0
% es.tEz (V/m) @ t=0.74
-1.6791701464484312
% V (V) @ t=0.74
0.008861200590677255
% es.normE (V/m) @ t=0.76
1.7784545284008786
% es.EX (V/m) @ t=0.76
-0.5305331350352807
% es.EY (V/m) @ t=0.76
0.039589706087452464
% es.EZ (V/m) @ t=0.76
-1.6941636719099984
% es.tEX (V/m) @ t=0.76
-0.5305331350352844
% es.tEY (V/m) @ t=0.76
0
% es.tEZ (V/m) @ t=0.76
-1.6941636719100224
% es.Ex (V/m) @ t=0.76
-0.5305331350352807
% es.Ey (V/m) @ t=0.76
0.039589706087452464
% es.Ez (V/m) @ t=0.76
-1.6941636719099984
% es.tEx (V/m) @ t=0.76
-0.5305331350352844
% es.tEy (V/m) @ t=0.76
0
% es.tEz (V/m) @ t=0.76
-1.6941636719100224
% V (V) @ t=0.76
0.008940363425354324
% es.normE (V/m) @ t=0.78
1.794193710410156
% es.EX (V/m) @ t=0.78
-0.5352276532197542
% es.EY (V/m) @ t=0.78
0.03993858470393141
% es.EZ (V/m) @ t=0.78
-1.7091571973715793
% es.tEX (V/m) @ t=0.78
-0.53522765321976
% es.tEY (V/m) @ t=0.78
0
% es.tEZ (V/m) @ t=0.78
-1.709157197371594
% es.Ex (V/m) @ t=0.78
-0.5352276532197542
% es.Ey (V/m) @ t=0.78
0.03993858470393141
% es.Ez (V/m) @ t=0.78
-1.7091571973715793
% es.tEx (V/m) @ t=0.78
-0.53522765321976
% es.tEy (V/m) @ t=0.78
0
% es.tEz (V/m) @ t=0.78
-1.709157197371594
% V (V) @ t=0.78
0.009019526260031392
% es.normE (V/m) @ t=0.8
1.8099328924217397
% es.EX (V/m) @ t=0.8
-0.5399221714042357
% es.EY (V/m) @ t=0.8
0.040287463320420616
% es.EZ (V/m) @ t=0.8
-1.724150722833175
% es.tEX (V/m) @ t=0.8
-0.539922171404239
% es.tEY (V/m) @ t=0.8
0
% es.tEZ (V/m) @ t=0.8
-1.7241507228331923
% es.Ex (V/m) @ t=0.8
-0.5399221714042357
% es.Ey (V/m) @ t=0.8
0.040287463320420616
% es.Ez (V/m) @ t=0.8
-1.724150722833175
% es.tEx (V/m) @ t=0.8
-0.539922171404239
% es.tEy (V/m) @ t=0.8
0
% es.tEz (V/m) @ t=0.8
-1.7241507228331923
% V (V) @ t=0.8
0.00909868909470846
% es.normE (V/m) @ t=0.82
1.8259554495483317
% es.EX (V/m) @ t=0.82
-0.5447017089466346
% es.EY (V/m) @ t=0.82
0.04064374620934151
% es.EZ (V/m) @ t=0.82
-1.7394139634714896
% es.tEX (V/m) @ t=0.82
-0.5447017089466399
% es.tEY (V/m) @ t=0.82
0
% es.tEZ (V/m) @ t=0.82
-1.739413963471506
% es.Ex (V/m) @ t=0.82
-0.5447017089466346
% es.Ey (V/m) @ t=0.82
0.04064374620934151
% es.Ez (V/m) @ t=0.82
-1.7394139634714896
% es.tEx (V/m) @ t=0.82
-0.5447017089466399
% es.tEy (V/m) @ t=0.82
0
% es.tEz (V/m) @ t=0.82
-1.739413963471506
% V (V) @ t=0.82
0.009179246009775245
% es.normE (V/m) @ t=0.84
1.8435451769571882
% es.EX (V/m) @ t=0.84
-0.5499514353074084
% es.EY (V/m) @ t=0.84
0.041040977491620556
% es.EZ (V/m) @ t=0.84
-1.7561688298211777
% es.tEX (V/m) @ t=0.84
-0.5499514353074169
% es.tEY (V/m) @ t=0.84
0
% es.tEZ (V/m) @ t=0.84
-1.7561688298211973
% es.Ex (V/m) @ t=0.84
-0.5499514353074084
% es.Ey (V/m) @ t=0.84
0.041040977491620556
% es.Ez (V/m) @ t=0.84
-1.7561688298211777
% es.tEx (V/m) @ t=0.84
-0.5499514353074169
% es.tEy (V/m) @ t=0.84
0
% es.tEz (V/m) @ t=0.84
-1.7561688298211973
% V (V) @ t=0.84
0.00926751271032095
% es.normE (V/m) @ t=0.86
1.8611349043988015
% es.EX (V/m) @ t=0.86
-0.5552011616681771
% es.EY (V/m) @ t=0.86
0.0414382087739122
% es.EZ (V/m) @ t=0.86
-1.7729236961708654
% es.tEX (V/m) @ t=0.86
-0.5552011616681831
% es.tEY (V/m) @ t=0.86
0
% es.tEZ (V/m) @ t=0.86
-1.7729236961708725
% es.Ex (V/m) @ t=0.86
-0.5552011616681771
% es.Ey (V/m) @ t=0.86
0.0414382087739122
% es.Ez (V/m) @ t=0.86
-1.7729236961708654
% es.tEx (V/m) @ t=0.86
-0.5552011616681831
% es.tEy (V/m) @ t=0.86
0
% es.tEz (V/m) @ t=0.86
-1.7729236961708725
% V (V) @ t=0.86
0.009355779410866653
% es.normE (V/m) @ t=0.88
1.8787246318722333
% es.EX (V/m) @ t=0.88
-0.5604508880289406
% es.EY (V/m) @ t=0.88
0.04183544005618403
% es.EZ (V/m) @ t=0.88
-1.789678562520531
% es.tEX (V/m) @ t=0.88
-0.5604508880289458
% es.tEY (V/m) @ t=0.88
0
% es.tEZ (V/m) @ t=0.88
-1.789678562520554
% es.Ex (V/m) @ t=0.88
-0.5604508880289406
% es.Ey (V/m) @ t=0.88
0.04183544005618403
% es.Ez (V/m) @ t=0.88
-1.789678562520531
% es.tEx (V/m) @ t=0.88
-0.5604508880289458
% es.tEy (V/m) @ t=0.88
0
% es.tEz (V/m) @ t=0.88
-1.789678562520554
% V (V) @ t=0.88
0.009444046111412358
% es.normE (V/m) @ t=0.9
1.8963143593766487
% es.EX (V/m) @ t=0.9
-0.5657006143897136
% es.EY (V/m) @ t=0.9
0.04223267133847369
% es.EZ (V/m) @ t=0.9
-1.8064334288702257
% es.tEX (V/m) @ t=0.9
-0.5657006143897227
% es.tEY (V/m) @ t=0.9
0
% es.tEZ (V/m) @ t=0.9
-1.8064334288702373
% es.Ex (V/m) @ t=0.9
-0.5657006143897136
% es.Ey (V/m) @ t=0.9
0.04223267133847369
% es.Ez (V/m) @ t=0.9
-1.8064334288702257
% es.tEx (V/m) @ t=0.9
-0.5657006143897227
% es.tEy (V/m) @ t=0.9
0
% es.tEz (V/m) @ t=0.9
-1.8064334288702373
% V (V) @ t=0.9
0.009532312811958064
% es.normE (V/m) @ t=0.92
1.913904086911153
% es.EX (V/m) @ t=0.92
-0.5709503407504779
% es.EY (V/m) @ t=0.92
0.0426299026207438
% es.EZ (V/m) @ t=0.92
-1.823188295219913
% es.tEX (V/m) @ t=0.92
-0.5709503407504855
% es.tEY (V/m) @ t=0.92
0
% es.tEZ (V/m) @ t=0.92
-1.8231882952199268
% es.Ex (V/m) @ t=0.92
-0.5709503407504779
% es.Ey (V/m) @ t=0.92
0.0426299026207438
% es.Ez (V/m) @ t=0.92
-1.823188295219913
% es.tEx (V/m) @ t=0.92
-0.5709503407504855
% es.tEy (V/m) @ t=0.92
0
% es.tEz (V/m) @ t=0.92
-1.8231882952199268
% V (V) @ t=0.92
0.00962057951250377
% es.normE (V/m) @ t=0.94
1.9314938144749394
% es.EX (V/m) @ t=0.94
-0.5762000671112519
% es.EY (V/m) @ t=0.94
0.043027133903028134
% es.EZ (V/m) @ t=0.94
-1.8399431615696007
% es.tEX (V/m) @ t=0.94
-0.5762000671112517
% es.tEY (V/m) @ t=0.94
0
% es.tEZ (V/m) @ t=0.94
-1.8399431615696242
% es.Ex (V/m) @ t=0.94
-0.5762000671112519
% es.Ey (V/m) @ t=0.94
0.043027133903028134
% es.Ez (V/m) @ t=0.94
-1.8399431615696007
% es.tEx (V/m) @ t=0.94
-0.5762000671112517
% es.tEy (V/m) @ t=0.94
0
% es.tEz (V/m) @ t=0.94
-1.8399431615696242
% V (V) @ t=0.94
0.009708846213049472
% es.normE (V/m) @ t=0.96
1.9490835420672075
% es.EX (V/m) @ t=0.96
-0.5814497934720197
% es.EY (V/m) @ t=0.96
0.04342436518531245
% es.EZ (V/m) @ t=0.96
-1.856698027919288
% es.tEX (V/m) @ t=0.96
-0.5814497934720251
% es.tEY (V/m) @ t=0.96
0
% es.tEZ (V/m) @ t=0.96
-1.8566980279193066
% es.Ex (V/m) @ t=0.96
-0.5814497934720197
% es.Ey (V/m) @ t=0.96
0.04342436518531245
% es.Ez (V/m) @ t=0.96
-1.856698027919288
% es.tEx (V/m) @ t=0.96
-0.5814497934720251
% es.tEy (V/m) @ t=0.96
0
% es.tEz (V/m) @ t=0.96
-1.8566980279193066
% V (V) @ t=0.96
0.009797112913595177
% es.normE (V/m) @ t=0.98
1.9666732696871918
% es.EX (V/m) @ t=0.98
-0.5866995198327931
% es.EY (V/m) @ t=0.98
0.04382159646759319
% es.EZ (V/m) @ t=0.98
-1.873452894268968
% es.tEX (V/m) @ t=0.98
-0.5866995198327984
% es.tEY (V/m) @ t=0.98
0
% es.tEZ (V/m) @ t=0.98
-1.8734528942689819
% es.Ex (V/m) @ t=0.98
-0.5866995198327931
% es.Ey (V/m) @ t=0.98
0.04382159646759319
% es.Ez (V/m) @ t=0.98
-1.873452894268968
% es.tEx (V/m) @ t=0.98
-0.5866995198327984
% es.tEy (V/m) @ t=0.98
0
% es.tEz (V/m) @ t=0.98
-1.8734528942689819
% V (V) @ t=0.98
0.009885379614140882
% es.normE (V/m) @ t=1
1.9842629973341723
% es.EX (V/m) @ t=1
-0.5919492461935645
% es.EY (V/m) @ t=1
0.0442188277498793
% es.EZ (V/m) @ t=1
-1.8902077606186625
% es.tEX (V/m) @ t=1
-0.5919492461935718
% es.tEY (V/m) @ t=1
0
% es.tEZ (V/m) @ t=1
-1.8902077606186793
% es.Ex (V/m) @ t=1
-0.5919492461935645
% es.Ey (V/m) @ t=1
0.0442188277498793
% es.Ez (V/m) @ t=1
-1.8902077606186625
% es.tEx (V/m) @ t=1
-0.5919492461935718
% es.tEy (V/m) @ t=1
0
% es.tEz (V/m) @ t=1
-1.8902077606186793
% V (V) @ t=1
0.009973646314686585
% es.normE (V/m) @ t=1.02
2.001852725007409
% es.EX (V/m) @ t=1.02
-0.597198972554327
% es.EY (V/m) @ t=1.02
0.04461605903214563
% es.EZ (V/m) @ t=1.02
-1.906962626968343
% es.tEX (V/m) @ t=1.02
-0.5971989725543274
% es.tEY (V/m) @ t=1.02
0
% es.tEZ (V/m) @ t=1.02
-1.9069626269683617
% es.Ex (V/m) @ t=1.02
-0.597198972554327
% es.Ey (V/m) @ t=1.02
0.04461605903214563
% es.Ez (V/m) @ t=1.02
-1.906962626968343
% es.tEx (V/m) @ t=1.02
-0.5971989725543274