% Model:              1 neuron.mph
% Version:            COMSOL 6.0.0.405
% Date:               Mar 16 2023, 17:39
% Dimension:          0
% Nodes:              14017
% Expressions:        14017
% Description:        Electric field norm, Electric field, X component, Electric field, Y component, Electric field, Z component, Tangential electric field, X component, Tangential electric field, Y component, Tangential electric field, Z component, Electric field, x component, Electric field, y component, Electric field, z component, Tangential electric field, x component, Tangential electric field, y component, Tangential electric field, z component, Electric potential
% Length unit:        mm
% x
1.0000000000000002
% y
12.2
% z
2
% es.normE (V/m) @ t=0
0.7011324145871295
% es.EX (V/m) @ t=0
0.4870118501371722
% es.EY (V/m) @ t=0
0.07292382693743671
% es.EZ (V/m) @ t=0
-0.48630189936377133
% es.tEX (V/m) @ t=0
0.4870118501371723
% es.tEY (V/m) @ t=0
0
% es.tEZ (V/m) @ t=0
-0.4863018993637658
% es.Ex (V/m) @ t=0
0.4870118501371722
% es.Ey (V/m) @ t=0
0.07292382693743671
% es.Ez (V/m) @ t=0
-0.48630189936377133
% es.tEx (V/m) @ t=0
0.4870118501371723
% es.tEy (V/m) @ t=0
0
% es.tEz (V/m) @ t=0
-0.4863018993637658
% V (V) @ t=0
0.007508232771159733
% es.normE (V/m) @ t=0.02
0.605582433335687
% es.EX (V/m) @ t=0.02
0.4206421130778516
% es.EY (V/m) @ t=0.02
0.06298581141452442
% es.EZ (V/m) @ t=0.02
-0.42002891403420084
% es.tEX (V/m) @ t=0.02
0.42064211307785326
% es.tEY (V/m) @ t=0.02
0
% es.tEZ (V/m) @ t=0.02
-0.4200289140341953
% es.Ex (V/m) @ t=0.02
0.4206421130778516
% es.Ey (V/m) @ t=0.02
0.06298581141452442
% es.Ez (V/m) @ t=0.02
-0.42002891403420084
% es.tEx (V/m) @ t=0.02
0.42064211307785326
% es.tEy (V/m) @ t=0.02
0
% es.tEz (V/m) @ t=0.02
-0.4200289140341953
% V (V) @ t=0.02
0.006485014228658707
% es.normE (V/m) @ t=0.04
0.6111531874797547
% es.EX (V/m) @ t=0.04
0.42451159913187053
% es.EY (V/m) @ t=0.04
0.06356522895574707
% es.EZ (V/m) @ t=0.04
-0.4238927592090229
% es.tEX (V/m) @ t=0.04
0.42451159913186975
% es.tEY (V/m) @ t=0.04
0
% es.tEZ (V/m) @ t=0.04
-0.42389275920901737
% es.Ex (V/m) @ t=0.04
0.42451159913187053
% es.Ey (V/m) @ t=0.04
0.06356522895574707
% es.Ez (V/m) @ t=0.04
-0.4238927592090229
% es.tEx (V/m) @ t=0.04
0.42451159913186975
% es.tEy (V/m) @ t=0.04
0
% es.tEz (V/m) @ t=0.04
-0.42389275920901737
% V (V) @ t=0.04
0.006544669518792992
% es.normE (V/m) @ t=0.06
0.6167774126572356
% es.EX (V/m) @ t=0.06
0.42841822901012516
% es.EY (V/m) @ t=0.06
0.06415019198046606
% es.EZ (V/m) @ t=0.06
-0.42779369416509083
% es.tEX (V/m) @ t=0.06
0.4284182290101277
% es.tEY (V/m) @ t=0.06
0
% es.tEZ (V/m) @ t=0.06
-0.4277936941650853
% es.Ex (V/m) @ t=0.06
0.42841822901012516
% es.Ey (V/m) @ t=0.06
0.06415019198046606
% es.Ez (V/m) @ t=0.06
-0.42779369416509083
% es.tEx (V/m) @ t=0.06
0.4284182290101277
% es.tEy (V/m) @ t=0.06
0
% es.tEz (V/m) @ t=0.06
-0.4277936941650853
% V (V) @ t=0.06
0.006604897956844113
% es.normE (V/m) @ t=0.08
0.6224798038480474
% es.EX (V/m) @ t=0.08
0.43237915388555404
% es.EY (V/m) @ t=0.08
0.06474328305883209
% es.EZ (V/m) @ t=0.08
-0.43174884496515475
% es.tEX (V/m) @ t=0.08
0.4323791538855546
% es.tEY (V/m) @ t=0.08
0
% es.tEZ (V/m) @ t=0.08
-0.4317488449651492
% es.Ex (V/m) @ t=0.08
0.43237915388555404
% es.Ey (V/m) @ t=0.08
0.06474328305883209
% es.Ez (V/m) @ t=0.08
-0.43174884496515475
% es.tEx (V/m) @ t=0.08
0.4323791538855546
% es.tEy (V/m) @ t=0.08
0
% es.tEz (V/m) @ t=0.08
-0.4317488449651492
% V (V) @ t=0.08
0.00666596351717655
% es.normE (V/m) @ t=0.1
0.6282523201761928
% es.EX (V/m) @ t=0.1
0.4363887884747165
% es.EY (V/m) @ t=0.1
0.06534366606439426
% es.EZ (V/m) @ t=0.1
-0.435752634468211
% es.tEX (V/m) @ t=0.1
0.43638878847472085
% es.tEY (V/m) @ t=0.1
0
% es.tEZ (V/m) @ t=0.1
-0.4357526344682019
% es.Ex (V/m) @ t=0.1
0.4363887884747165
% es.Ey (V/m) @ t=0.1
0.06534366606439426
% es.Ez (V/m) @ t=0.1
-0.435752634468211
% es.tEx (V/m) @ t=0.1
0.43638878847472085
% es.tEy (V/m) @ t=0.1
0
% es.tEz (V/m) @ t=0.1
-0.4357526344682019
% V (V) @ t=0.1
0.006727780085683109
% es.normE (V/m) @ t=0.12
0.6340248365043392
% es.EX (V/m) @ t=0.12
0.4403984230638819
% es.EY (V/m) @ t=0.12
0.06594404906996393
% es.EZ (V/m) @ t=0.12
-0.4397564239712677
% es.tEX (V/m) @ t=0.12
0.4403984230638842
% es.tEY (V/m) @ t=0.12
0
% es.tEZ (V/m) @ t=0.12
-0.43975642397126213
% es.Ex (V/m) @ t=0.12
0.4403984230638819
% es.Ey (V/m) @ t=0.12
0.06594404906996393
% es.Ez (V/m) @ t=0.12
-0.4397564239712677
% es.tEx (V/m) @ t=0.12
0.4403984230638842
% es.tEy (V/m) @ t=0.12
0
% es.tEz (V/m) @ t=0.12
-0.43975642397126213
% V (V) @ t=0.12
0.006789596654189666
% es.normE (V/m) @ t=0.14
0.6398175702031095
% es.EX (V/m) @ t=0.14
0.4444221006117296
% es.EY (V/m) @ t=0.14
0.06654653601754454
% es.EZ (V/m) @ t=0.14
-0.44377423595713994
% es.tEX (V/m) @ t=0.14
0.44442210061173015
% es.tEY (V/m) @ t=0.14
0
% es.tEZ (V/m) @ t=0.14
-0.4437742359571364
% es.Ex (V/m) @ t=0.14
0.4444221006117296
% es.Ey (V/m) @ t=0.14
0.06654653601754454
% es.Ez (V/m) @ t=0.14
-0.44377423595713994
% es.tEx (V/m) @ t=0.14
0.44442210061173015
% es.tEy (V/m) @ t=0.14
0
% es.tEz (V/m) @ t=0.14
-0.4437742359571364
% V (V) @ t=0.14
0.006851629685480185
% es.normE (V/m) @ t=0.16
0.645904175322561
% es.EX (V/m) @ t=0.16
0.4486499008565542
% es.EY (V/m) @ t=0.16
0.06717960500486458
% es.EZ (V/m) @ t=0.16
-0.44799587301127963
% es.tEX (V/m) @ t=0.16
0.44864990085655476
% es.tEY (V/m) @ t=0.16
0
% es.tEZ (V/m) @ t=0.16
-0.4479958730112741
% es.Ex (V/m) @ t=0.16
0.4486499008565542
% es.Ey (V/m) @ t=0.16
0.06717960500486458
% es.Ez (V/m) @ t=0.16
-0.44799587301127963
% es.tEx (V/m) @ t=0.16
0.44864990085655476
% es.tEy (V/m) @ t=0.16
0
% es.tEz (V/m) @ t=0.16
-0.4479958730112741
% V (V) @ t=0.16
0.006916809131159492
% es.normE (V/m) @ t=0.18
0.6519907804420119
% es.EX (V/m) @ t=0.18
0.4528777011013748
% es.EY (V/m) @ t=0.18
0.06781267399218652
% es.EZ (V/m) @ t=0.18
-0.45221751006542044
% es.tEX (V/m) @ t=0.18
0.45287770110137426
% es.tEY (V/m) @ t=0.18
0
% es.tEZ (V/m) @ t=0.18
-0.4522175100654149
% es.Ex (V/m) @ t=0.18
0.4528777011013748
% es.Ey (V/m) @ t=0.18
0.06781267399218652
% es.Ez (V/m) @ t=0.18
-0.45221751006542044
% es.tEx (V/m) @ t=0.18
0.45287770110137426
% es.tEy (V/m) @ t=0.18
0
% es.tEz (V/m) @ t=0.18
-0.4522175100654149
% V (V) @ t=0.18
0.006981988576838794
% es.normE (V/m) @ t=0.2
0.6580773855614674
% es.EX (V/m) @ t=0.2
0.45710550134619765
% es.EY (V/m) @ t=0.2
0.06844574297951334
% es.EZ (V/m) @ t=0.2
-0.4564391471195688
% es.tEX (V/m) @ t=0.2
0.4571055013462002
% es.tEY (V/m) @ t=0.2
0
% es.tEZ (V/m) @ t=0.2
-0.4564391471195597
% es.Ex (V/m) @ t=0.2
0.45710550134619765
% es.Ey (V/m) @ t=0.2
0.06844574297951334
% es.Ez (V/m) @ t=0.2
-0.4564391471195688
% es.tEx (V/m) @ t=0.2
0.4571055013462002
% es.tEy (V/m) @ t=0.2
0
% es.tEz (V/m) @ t=0.2
-0.4564391471195597
% V (V) @ t=0.2
0.007047168022518101
% es.normE (V/m) @ t=0.22
0.6641639906809274
% es.EX (V/m) @ t=0.22
0.46133330159101893
% es.EY (V/m) @ t=0.22
0.06907881196684235
% es.EZ (V/m) @ t=0.22
-0.460660784173722
% es.tEX (V/m) @ t=0.22
0.46133330159102104
% es.tEY (V/m) @ t=0.22
0
% es.tEZ (V/m) @ t=0.22
-0.4606607841737147
% es.Ex (V/m) @ t=0.22
0.46133330159101893
% es.Ey (V/m) @ t=0.22
0.06907881196684235
% es.Ez (V/m) @ t=0.22
-0.460660784173722
% es.tEx (V/m) @ t=0.22
0.46133330159102104
% es.tEy (V/m) @ t=0.22
0
% es.tEz (V/m) @ t=0.22
-0.4606607841737147
% V (V) @ t=0.22
0.007112347468197404
% es.normE (V/m) @ t=0.24
0.6702505958003813
% es.EX (V/m) @ t=0.24
0.46556110183584687
% es.EY (V/m) @ t=0.24
0.0697118809541632
% es.EZ (V/m) @ t=0.24
-0.46488242122786194
% es.tEX (V/m) @ t=0.24
0.4655611018358472
% es.tEY (V/m) @ t=0.24
0
% es.tEZ (V/m) @ t=0.24
-0.46488242122785284
% es.Ex (V/m) @ t=0.24
0.46556110183584687
% es.Ey (V/m) @ t=0.24
0.0697118809541632
% es.Ez (V/m) @ t=0.24
-0.46488242122786194
% es.tEx (V/m) @ t=0.24
0.4655611018358472
% es.tEy (V/m) @ t=0.24
0
% es.tEz (V/m) @ t=0.24
-0.46488242122785284
% V (V) @ t=0.24
0.007177526913876711
% es.normE (V/m) @ t=0.26
0.6763372009198336
% es.EX (V/m) @ t=0.26
0.46978890208066704
% es.EY (V/m) @ t=0.26
0.07034494994148643
% es.EZ (V/m) @ t=0.26
-0.4691040582820063
% es.tEX (V/m) @ t=0.26
0.4697889020806685
% es.tEY (V/m) @ t=0.26
0
% es.tEZ (V/m) @ t=0.26
-0.4691040582819972
% es.Ex (V/m) @ t=0.26
0.46978890208066704
% es.Ey (V/m) @ t=0.26
0.07034494994148643
% es.Ez (V/m) @ t=0.26
-0.4691040582820063
% es.tEx (V/m) @ t=0.26
0.4697889020806685
% es.tEy (V/m) @ t=0.26
0
% es.tEz (V/m) @ t=0.26
-0.4691040582819972
% V (V) @ t=0.26
0.007242706359556014
% es.normE (V/m) @ t=0.28
0.6825224035960022
% es.EX (V/m) @ t=0.28
0.474085218400521
% es.EY (V/m) @ t=0.28
0.07098808151111805
% es.EZ (V/m) @ t=0.28
-0.47339411272436593
% es.tEX (V/m) @ t=0.28
0.47408521840052287
% es.tEY (V/m) @ t=0.28
0
% es.tEZ (V/m) @ t=0.28
-0.4733941127243586
% es.Ex (V/m) @ t=0.28
0.474085218400521
% es.Ey (V/m) @ t=0.28
0.07098808151111805
% es.Ez (V/m) @ t=0.28
-0.47339411272436593
% es.tEx (V/m) @ t=0.28
0.47408521840052287
% es.tEy (V/m) @ t=0.28
0
% es.tEz (V/m) @ t=0.28
-0.4733941127243586
% V (V) @ t=0.28
0.0073089481923452005
% es.normE (V/m) @ t=0.3
0.6893189493342807
% es.EX (V/m) @ t=0.3
0.47880636093664786
% es.EY (V/m) @ t=0.3
0.07169360499050767
% es.EZ (V/m) @ t=0.3
-0.4781083814865019
% es.tEX (V/m) @ t=0.3
0.47880636093664974
% es.tEY (V/m) @ t=0.3
0
% es.tEZ (V/m) @ t=0.3
-0.4781083814864928
% es.Ex (V/m) @ t=0.3
0.47880636093664786
% es.Ey (V/m) @ t=0.3
0.07169360499050767
% es.Ez (V/m) @ t=0.3
-0.4781083814865019
% es.tEx (V/m) @ t=0.3
0.47880636093664974
% es.tEy (V/m) @ t=0.3
0
% es.tEz (V/m) @ t=0.3
-0.4781083814864928
% V (V) @ t=0.3
0.007381777236907867
% es.normE (V/m) @ t=0.32
0.6961154950765762
% es.EX (V/m) @ t=0.32
0.4835275034727763
% es.EY (V/m) @ t=0.32
0.07239912846989419
% es.EZ (V/m) @ t=0.32
-0.4828226502486357
% es.tEX (V/m) @ t=0.32
0.4835275034727782
% es.tEY (V/m) @ t=0.32
0
% es.tEZ (V/m) @ t=0.32
-0.48282265024863014
% es.Ex (V/m) @ t=0.32
0.4835275034727763
% es.Ey (V/m) @ t=0.32
0.07239912846989419
% es.Ez (V/m) @ t=0.32
-0.4828226502486357
% es.tEx (V/m) @ t=0.32
0.4835275034727782
% es.tEy (V/m) @ t=0.32
0
% es.tEz (V/m) @ t=0.32
-0.48282265024863014
% V (V) @ t=0.32
0.007454606281470539
% es.normE (V/m) @ t=0.34
0.7029120408227774
% es.EX (V/m) @ t=0.34
0.4882486460089047
% es.EY (V/m) @ t=0.34
0.0731046519492839
% es.EZ (V/m) @ t=0.34
-0.487536919010777
% es.tEX (V/m) @ t=0.34
0.48824864600890705
% es.tEY (V/m) @ t=0.34
0
% es.tEZ (V/m) @ t=0.34
-0.4875369190107679
% es.Ex (V/m) @ t=0.34
0.4882486460089047
% es.Ey (V/m) @ t=0.34
0.0731046519492839
% es.Ez (V/m) @ t=0.34
-0.487536919010777
% es.tEx (V/m) @ t=0.34
0.48824864600890705
% es.tEy (V/m) @ t=0.34
0
% es.tEz (V/m) @ t=0.34
-0.4875369190107679
% V (V) @ t=0.34
0.007527435326033207
% es.normE (V/m) @ t=0.36
0.7097085865727617
% es.EX (V/m) @ t=0.36
0.4929697885450345
% es.EY (V/m) @ t=0.36
0.07381017542867807
% es.EZ (V/m) @ t=0.36
-0.4922511877729072
% es.tEX (V/m) @ t=0.36
0.49296978854503726
% es.tEY (V/m) @ t=0.36
0
% es.tEZ (V/m) @ t=0.36
-0.49225118777290167
% es.Ex (V/m) @ t=0.36
0.4929697885450345
% es.Ey (V/m) @ t=0.36
0.07381017542867807
% es.Ez (V/m) @ t=0.36
-0.4922511877729072
% es.tEx (V/m) @ t=0.36
0.49296978854503726
% es.tEy (V/m) @ t=0.36
0
% es.tEz (V/m) @ t=0.36
-0.49225118777290167
% V (V) @ t=0.36
0.007600264370595877
% es.normE (V/m) @ t=0.38
0.7165051323264345
% es.EX (V/m) @ t=0.38
0.49769093108116313
% es.EY (V/m) @ t=0.38
0.0745156989080637
% es.EZ (V/m) @ t=0.38
-0.4969654565350521
% es.tEX (V/m) @ t=0.38
0.49769093108116547
% es.tEY (V/m) @ t=0.38
0
% es.tEZ (V/m) @ t=0.38
-0.496965456535043
% es.Ex (V/m) @ t=0.38
0.49769093108116313
% es.Ey (V/m) @ t=0.38
0.0745156989080637
% es.Ez (V/m) @ t=0.38
-0.4969654565350521
% es.tEx (V/m) @ t=0.38
0.49769093108116547
% es.tEy (V/m) @ t=0.38
0
% es.tEz (V/m) @ t=0.38
-0.496965456535043
% V (V) @ t=0.38
0.007673093415158548
% es.normE (V/m) @ t=0.4
0.7233016780836691
% es.EX (V/m) @ t=0.4
0.5024120736172878
% es.EY (V/m) @ t=0.4
0.07522122238745943
% es.EZ (V/m) @ t=0.4
-0.5016797252971756
% es.tEX (V/m) @ t=0.4
0.5024120736172906
% es.tEY (V/m) @ t=0.4
0
% es.tEZ (V/m) @ t=0.4
-0.5016797252971665
% es.Ex (V/m) @ t=0.4
0.5024120736172878
% es.Ey (V/m) @ t=0.4
0.07522122238745943
% es.Ez (V/m) @ t=0.4
-0.5016797252971756
% es.tEx (V/m) @ t=0.4
0.5024120736172906
% es.tEy (V/m) @ t=0.4
0
% es.tEz (V/m) @ t=0.4
-0.5016797252971665
% V (V) @ t=0.4
0.0077459224597212165
% es.normE (V/m) @ t=0.42
0.7300982238444036
% es.EX (V/m) @ t=0.42
0.5071332161534196
% es.EY (V/m) @ t=0.42
0.07592674586685005
% es.EZ (V/m) @ t=0.42
-0.5063939940593272
% es.tEX (V/m) @ t=0.42
0.5071332161534206
% es.tEY (V/m) @ t=0.42
0
% es.tEZ (V/m) @ t=0.42
-0.5063939940593216
% es.Ex (V/m) @ t=0.42
0.5071332161534196
% es.Ey (V/m) @ t=0.42
0.07592674586685005
% es.Ez (V/m) @ t=0.42
-0.5063939940593272
% es.tEx (V/m) @ t=0.42
0.5071332161534206
% es.tEy (V/m) @ t=0.42
0
% es.tEz (V/m) @ t=0.42
-0.5063939940593216
% V (V) @ t=0.42
0.007818751504283886
% es.normE (V/m) @ t=0.44
0.7368947696084934
% es.EX (V/m) @ t=0.44
0.5118543586895467
% es.EY (V/m) @ t=0.44
0.07663226934622894
% es.EZ (V/m) @ t=0.44
-0.5111082628214494
% es.tEX (V/m) @ t=0.44
0.5118543586895494
% es.tEY (V/m) @ t=0.44
0
% es.tEZ (V/m) @ t=0.44
-0.5111082628214385
% es.Ex (V/m) @ t=0.44
0.5118543586895467
% es.Ey (V/m) @ t=0.44
0.07663226934622894
% es.Ez (V/m) @ t=0.44
-0.5111082628214494
% es.tEx (V/m) @ t=0.44
0.5118543586895494
% es.tEy (V/m) @ t=0.44
0
% es.tEz (V/m) @ t=0.44
-0.5111082628214385
% V (V) @ t=0.44
0.007891580548846555
% es.normE (V/m) @ t=0.46
0.7436913153758817
% es.EX (V/m) @ t=0.46
0.5165755012256698
% es.EY (V/m) @ t=0.46
0.0773377928256277
% es.EZ (V/m) @ t=0.46
-0.5158225315835858
% es.tEX (V/m) @ t=0.46
0.5165755012256668
% es.tEY (V/m) @ t=0.46
0
% es.tEZ (V/m) @ t=0.46
-0.5158225315835749
% es.Ex (V/m) @ t=0.46
0.5165755012256698
% es.Ey (V/m) @ t=0.46
0.0773377928256277
% es.Ez (V/m) @ t=0.46
-0.5158225315835858
% es.tEx (V/m) @ t=0.46
0.5165755012256668
% es.tEy (V/m) @ t=0.46
0
% es.tEz (V/m) @ t=0.46
-0.5158225315835749
% V (V) @ t=0.46
0.007964409593409223
% es.normE (V/m) @ t=0.48
0.7504878611464756
% es.EX (V/m) @ t=0.48
0.5212966437618022
% es.EY (V/m) @ t=0.48
0.07804331630501671
% es.EZ (V/m) @ t=0.48
-0.520536800345724
% es.tEX (V/m) @ t=0.48
0.5212966437618045
% es.tEY (V/m) @ t=0.48
0
% es.tEZ (V/m) @ t=0.48
-0.5205368003457131
% es.Ex (V/m) @ t=0.48
0.5212966437618022
% es.Ey (V/m) @ t=0.48
0.07804331630501671
% es.Ez (V/m) @ t=0.48
-0.520536800345724
% es.tEx (V/m) @ t=0.48
0.5212966437618045
% es.tEy (V/m) @ t=0.48
0
% es.tEz (V/m) @ t=0.48
-0.5205368003457131
% V (V) @ t=0.48
0.008037238637971894
% es.normE (V/m) @ t=0.5
0.7572844069201854
% es.EX (V/m) @ t=0.5
0.5260177862979319
% es.EY (V/m) @ t=0.5
0.07874883978440186
% es.EZ (V/m) @ t=0.5
-0.5252510691078685
% es.tEX (V/m) @ t=0.5
0.5260177862979325
% es.tEY (V/m) @ t=0.5
0
% es.tEZ (V/m) @ t=0.5
-0.5252510691078576
% es.Ex (V/m) @ t=0.5
0.5260177862979319
% es.Ey (V/m) @ t=0.5
0.07874883978440186
% es.Ez (V/m) @ t=0.5
-0.5252510691078685
% es.tEx (V/m) @ t=0.5
0.5260177862979325
% es.tEy (V/m) @ t=0.5
0
% es.tEz (V/m) @ t=0.5
-0.5252510691078576
% V (V) @ t=0.5
0.008110067682534564
% es.normE (V/m) @ t=0.52
0.7640809526969181
% es.EX (V/m) @ t=0.52
0.530738928834055
% es.EY (V/m) @ t=0.52
0.0794543632637979
% es.EZ (V/m) @ t=0.52
-0.5299653378700098
% es.tEX (V/m) @ t=0.52
0.5307389288340596
% es.tEY (V/m) @ t=0.52
0
% es.tEZ (V/m) @ t=0.52
-0.5299653378699989
% es.Ex (V/m) @ t=0.52
0.530738928834055
% es.Ey (V/m) @ t=0.52
0.0794543632637979
% es.Ez (V/m) @ t=0.52
-0.5299653378700098
% es.tEx (V/m) @ t=0.52
0.5307389288340596
% es.tEy (V/m) @ t=0.52
0
% es.tEz (V/m) @ t=0.52
-0.5299653378699989
% V (V) @ t=0.52
0.008182896727097233
% es.normE (V/m) @ t=0.54
0.7708774984765969
% es.EX (V/m) @ t=0.54
0.5354600713701854
% es.EY (V/m) @ t=0.54
0.080159886743182
% es.EZ (V/m) @ t=0.54
-0.5346796066321404
% es.tEX (V/m) @ t=0.54
0.535460071370186
% es.tEY (V/m) @ t=0.54
0
% es.tEZ (V/m) @ t=0.54
-0.5346796066321331
% es.Ex (V/m) @ t=0.54
0.5354600713701854
% es.Ey (V/m) @ t=0.54
0.080159886743182
% es.Ez (V/m) @ t=0.54
-0.5346796066321404
% es.tEx (V/m) @ t=0.54
0.535460071370186
% es.tEy (V/m) @ t=0.54
0
% es.tEz (V/m) @ t=0.54
-0.5346796066321331
% V (V) @ t=0.54
0.008255725771659903
% es.normE (V/m) @ t=0.56
0.7779044974457303
% es.EX (V/m) @ t=0.56
0.540341127154198
% es.EY (V/m) @ t=0.56
0.08089043255667713
% es.EZ (V/m) @ t=0.56
-0.5395535489617889
% es.tEX (V/m) @ t=0.56
0.5403411271542009
% es.tEY (V/m) @ t=0.56
0
% es.tEZ (V/m) @ t=0.56
-0.539553548961778
% es.Ex (V/m) @ t=0.56
0.540341127154198
% es.Ey (V/m) @ t=0.56
0.08089043255667713
% es.Ez (V/m) @ t=0.56
-0.5395535489617889
% es.tEx (V/m) @ t=0.56
0.5403411271542009
% es.tEy (V/m) @ t=0.56
0
% es.tEz (V/m) @ t=0.56
-0.539553548961778
% V (V) @ t=0.56
0.008330986915793632
% es.normE (V/m) @ t=0.58
0.7855014847641992
% es.EX (V/m) @ t=0.58
0.5456177022547318
% es.EY (V/m) @ t=0.58
0.08168286702924182
% es.EZ (V/m) @ t=0.58
-0.5448224177976984
% es.tEX (V/m) @ t=0.58
0.5456177022547342
% es.tEY (V/m) @ t=0.58
0
% es.tEZ (V/m) @ t=0.58
-0.5448224177976875
% es.Ex (V/m) @ t=0.58
0.5456177022547318
% es.Ey (V/m) @ t=0.58
0.08168286702924182
% es.Ez (V/m) @ t=0.58
-0.5448224177976984
% es.tEx (V/m) @ t=0.58
0.5456177022547342
% es.tEy (V/m) @ t=0.58
0
% es.tEz (V/m) @ t=0.58
-0.5448224177976875
% V (V) @ t=0.58
0.008412263461232954
% es.normE (V/m) @ t=0.6
0.7930984720939968
% es.EX (V/m) @ t=0.6
0.5508942773552811
% es.EY (V/m) @ t=0.6
0.08247530150181542
% es.EZ (V/m) @ t=0.6
-0.5500912866336158
% es.tEX (V/m) @ t=0.6
0.5508942773552852
% es.tEY (V/m) @ t=0.6
0
% es.tEZ (V/m) @ t=0.6
-0.5500912866335979
% es.Ex (V/m) @ t=0.6
0.5508942773552811
% es.Ey (V/m) @ t=0.6
0.08247530150181542
% es.Ez (V/m) @ t=0.6
-0.5500912866336158
% es.tEx (V/m) @ t=0.6
0.5508942773552852
% es.tEy (V/m) @ t=0.6
0
% es.tEz (V/m) @ t=0.6
-0.5500912866335979
% V (V) @ t=0.6
0.008493540006672278
% es.normE (V/m) @ t=0.62
0.8006954594347728
% es.EX (V/m) @ t=0.62
0.5561708524558228
% es.EY (V/m) @ t=0.62
0.08326773597437617
% es.EZ (V/m) @ t=0.62
-0.5553601554695335
% es.tEX (V/m) @ t=0.62
0.5561708524558249
% es.tEY (V/m) @ t=0.62
0
% es.tEZ (V/m) @ t=0.62
-0.5553601554695224
% es.Ex (V/m) @ t=0.62
0.5561708524558228
% es.Ey (V/m) @ t=0.62
0.08326773597437617
% es.Ez (V/m) @ t=0.62
-0.5553601554695335
% es.tEx (V/m) @ t=0.62
0.5561708524558249
% es.tEy (V/m) @ t=0.62
0
% es.tEz (V/m) @ t=0.62
-0.5553601554695224
% V (V) @ t=0.62
0.008574816552111598
% es.normE (V/m) @ t=0.64
0.8082924467862207
% es.EX (V/m) @ t=0.64
0.5614474275563616
% es.EY (V/m) @ t=0.64
0.08406017044695238
% es.EZ (V/m) @ t=0.64
-0.5606290243054433
% es.tEX (V/m) @ t=0.64
0.5614474275563675
% es.tEY (V/m) @ t=0.64
0
% es.tEZ (V/m) @ t=0.64
-0.5606290243054324
% es.Ex (V/m) @ t=0.64
0.5614474275563616
% es.Ey (V/m) @ t=0.64
0.08406017044695238
% es.Ez (V/m) @ t=0.64
-0.5606290243054433
% es.tEx (V/m) @ t=0.64
0.5614474275563675
% es.tEy (V/m) @ t=0.64
0
% es.tEz (V/m) @ t=0.64
-0.5606290243054324
% V (V) @ t=0.64
0.008656093097550922
% es.normE (V/m) @ t=0.66
0.8158894341480496
% es.EX (V/m) @ t=0.66
0.5667240026569057
% es.EY (V/m) @ t=0.66
0.08485260491951269
% es.EZ (V/m) @ t=0.66
-0.5658978931413572
% es.tEX (V/m) @ t=0.66
0.566724002656908
% es.tEY (V/m) @ t=0.66
0
% es.tEZ (V/m) @ t=0.66
-0.5658978931413428
% es.Ex (V/m) @ t=0.66
0.5667240026569057
% es.Ey (V/m) @ t=0.66
0.08485260491951269
% es.Ez (V/m) @ t=0.66
-0.5658978931413572
% es.tEx (V/m) @ t=0.66
0.566724002656908
% es.tEy (V/m) @ t=0.66
0
% es.tEz (V/m) @ t=0.66
-0.5658978931413428
% V (V) @ t=0.66
0.008737369642990243
% es.normE (V/m) @ t=0.68
0.8234864215199714
% es.EX (V/m) @ t=0.68
0.5720005777574501
% es.EY (V/m) @ t=0.68
0.08564503939208004
% es.EZ (V/m) @ t=0.68
-0.5711667619772636
% es.tEX (V/m) @ t=0.68
0.5720005777574524
% es.tEY (V/m) @ t=0.68
0
% es.tEZ (V/m) @ t=0.68
-0.5711667619772491
% es.Ex (V/m) @ t=0.68
0.5720005777574501
% es.Ey (V/m) @ t=0.68
0.08564503939208004
% es.Ez (V/m) @ t=0.68
-0.5711667619772636
% es.tEx (V/m) @ t=0.68
0.5720005777574524
% es.tEy (V/m) @ t=0.68
0
% es.tEz (V/m) @ t=0.68
-0.5711667619772491
% V (V) @ t=0.68
0.008818646188429567
% es.normE (V/m) @ t=0.7
0.8310834089017085
% es.EX (V/m) @ t=0.7
0.5772771528579926
% es.EY (V/m) @ t=0.7
0.08643747386467071
% es.EZ (V/m) @ t=0.7
-0.5764356308131733
% es.tEX (V/m) @ t=0.7
0.5772771528579963
% es.tEY (V/m) @ t=0.7
0
% es.tEZ (V/m) @ t=0.7
-0.5764356308131622
% es.Ex (V/m) @ t=0.7
0.5772771528579926
% es.Ey (V/m) @ t=0.7
0.08643747386467071
% es.Ez (V/m) @ t=0.7
-0.5764356308131733
% es.tEx (V/m) @ t=0.7
0.5772771528579963
% es.tEy (V/m) @ t=0.7
0
% es.tEz (V/m) @ t=0.7
-0.5764356308131622
% V (V) @ t=0.7
0.008899922733868889
% es.normE (V/m) @ t=0.72
0.8386803962929978
% es.EX (V/m) @ t=0.72
0.5825537279585348
% es.EY (V/m) @ t=0.72
0.08722990833723498
% es.EZ (V/m) @ t=0.72
-0.5817044996490945
% es.tEX (V/m) @ t=0.72
0.5825537279585369
% es.tEY (V/m) @ t=0.72
0
% es.tEZ (V/m) @ t=0.72
-0.5817044996490766
% es.Ex (V/m) @ t=0.72
0.5825537279585348
% es.Ey (V/m) @ t=0.72
0.08722990833723498
% es.Ez (V/m) @ t=0.72
-0.5817044996490945
% es.tEx (V/m) @ t=0.72
0.5825537279585369
% es.tEy (V/m) @ t=0.72
0
% es.tEz (V/m) @ t=0.72
-0.5817044996490766
% V (V) @ t=0.72
0.008981199279308209
% es.normE (V/m) @ t=0.74
0.8462773836935698
% es.EX (V/m) @ t=0.74
0.5878303030590764
% es.EY (V/m) @ t=0.74
0.0880223428098004
% es.EZ (V/m) @ t=0.74
-0.5869733684850014
% es.tEX (V/m) @ t=0.74
0.5878303030590764
% es.tEY (V/m) @ t=0.74
0
% es.tEZ (V/m) @ t=0.74
-0.5869733684849834
% es.Ex (V/m) @ t=0.74
0.5878303030590764
% es.Ey (V/m) @ t=0.74
0.0880223428098004
% es.Ez (V/m) @ t=0.74
-0.5869733684850014
% es.tEx (V/m) @ t=0.74
0.5878303030590764
% es.tEy (V/m) @ t=0.74
0
% es.tEz (V/m) @ t=0.74
-0.5869733684849834
% V (V) @ t=0.74
0.009062475824747535
% es.normE (V/m) @ t=0.76
0.8538743711031849
% es.EX (V/m) @ t=0.76
0.5931068781596154
% es.EY (V/m) @ t=0.76
0.08881477728237064
% es.EZ (V/m) @ t=0.76
-0.5922422373209109
% es.tEX (V/m) @ t=0.76
0.5931068781596172
% es.tEY (V/m) @ t=0.76
0
% es.tEZ (V/m) @ t=0.76
-0.5922422373209035
% es.Ex (V/m) @ t=0.76
0.5931068781596154
% es.Ey (V/m) @ t=0.76
0.08881477728237064
% es.Ez (V/m) @ t=0.76
-0.5922422373209109
% es.tEx (V/m) @ t=0.76
0.5931068781596172
% es.tEy (V/m) @ t=0.76
0
% es.tEz (V/m) @ t=0.76
-0.5922422373209035
% V (V) @ t=0.76
0.009143752370186855
% es.normE (V/m) @ t=0.78
0.8614713585216177
% es.EX (V/m) @ t=0.78
0.5983834532601624
% es.EY (V/m) @ t=0.78
0.08960721175493955
% es.EZ (V/m) @ t=0.78
-0.5975111061568315
% es.tEX (V/m) @ t=0.78
0.5983834532601677
% es.tEY (V/m) @ t=0.78
0
% es.tEZ (V/m) @ t=0.78
-0.5975111061568241
% es.Ex (V/m) @ t=0.78
0.5983834532601624
% es.Ey (V/m) @ t=0.78
0.08960721175493955
% es.Ez (V/m) @ t=0.78
-0.5975111061568315
% es.tEx (V/m) @ t=0.78
0.5983834532601677
% es.tEy (V/m) @ t=0.78
0
% es.tEz (V/m) @ t=0.78
-0.5975111061568241
% V (V) @ t=0.78
0.00922502891562618
% es.normE (V/m) @ t=0.8
0.8690683459486103
% es.EX (V/m) @ t=0.8
0.6036600283607048
% es.EY (V/m) @ t=0.8
0.0903996462275147
% es.EZ (V/m) @ t=0.8
-0.6027799749927418
% es.tEX (V/m) @ t=0.8
0.6036600283607121
% es.tEY (V/m) @ t=0.8
0
% es.tEZ (V/m) @ t=0.8
-0.6027799749927238
% es.Ex (V/m) @ t=0.8
0.6036600283607048
% es.Ey (V/m) @ t=0.8
0.0903996462275147
% es.Ez (V/m) @ t=0.8
-0.6027799749927418
% es.tEx (V/m) @ t=0.8
0.6036600283607121
% es.tEy (V/m) @ t=0.8
0
% es.tEz (V/m) @ t=0.8
-0.6027799749927238
% V (V) @ t=0.8
0.0093063054610655
% es.normE (V/m) @ t=0.82
0.8766653333839587
% es.EX (V/m) @ t=0.82
0.6089366034612507
% es.EY (V/m) @ t=0.82
0.09119208070007251
% es.EZ (V/m) @ t=0.82
-0.6080488438286518
% es.tEX (V/m) @ t=0.82
0.6089366034612493
% es.tEY (V/m) @ t=0.82
0
% es.tEZ (V/m) @ t=0.82
-0.6080488438286373
% es.Ex (V/m) @ t=0.82
0.6089366034612507
% es.Ey (V/m) @ t=0.82
0.09119208070007251
% es.Ez (V/m) @ t=0.82
-0.6080488438286518
% es.tEx (V/m) @ t=0.82
0.6089366034612493
% es.tEy (V/m) @ t=0.82
0
% es.tEz (V/m) @ t=0.82
-0.6080488438286373
% V (V) @ t=0.82
0.009387582006504826
% es.normE (V/m) @ t=0.84
0.884663626913686
% es.EX (V/m) @ t=0.84
0.6144920480284295
% es.EY (V/m) @ t=0.84
0.09202547594366017
% es.EZ (V/m) @ t=0.84
-0.613596180460027
% es.tEX (V/m) @ t=0.84
0.6144920480284295
% es.tEY (V/m) @ t=0.84
0
% es.tEZ (V/m) @ t=0.84
-0.6135961804600125
% es.Ex (V/m) @ t=0.84
0.6144920480284295
% es.Ey (V/m) @ t=0.84
0.09202547594366017
% es.Ez (V/m) @ t=0.84
-0.613596180460027
% es.tEx (V/m) @ t=0.84
0.6144920480284295
% es.tEy (V/m) @ t=0.84
0
% es.tEz (V/m) @ t=0.84
-0.6135961804600125
% V (V) @ t=0.84
0.00947318246157362
% es.normE (V/m) @ t=0.86
0.8931790741536105
% es.EX (V/m) @ t=0.86
0.6204068651134784
% es.EY (V/m) @ t=0.86
0.09291165636874155
% es.EZ (V/m) @ t=0.86
-0.6195023719850932
% es.tEX (V/m) @ t=0.86
0.6204068651134764
% es.tEY (V/m) @ t=0.86
0
% es.tEZ (V/m) @ t=0.86
-0.619502371985075
% es.Ex (V/m) @ t=0.86
0.6204068651134784
% es.Ey (V/m) @ t=0.86
0.09291165636874155
% es.Ez (V/m) @ t=0.86
-0.6195023719850932
% es.tEx (V/m) @ t=0.86
0.6204068651134764
% es.tEy (V/m) @ t=0.86
0
% es.tEz (V/m) @ t=0.86
-0.619502371985075
% V (V) @ t=0.86
0.009564355037209328
% es.normE (V/m) @ t=0.88
0.9016945213937538
% es.EX (V/m) @ t=0.88
0.626321682198518
% es.EY (V/m) @ t=0.88
0.09379783679383163
% es.EZ (V/m) @ t=0.88
-0.6254085635101496
% es.tEX (V/m) @ t=0.88
0.6263216821985198
% es.tEY (V/m) @ t=0.88
0
% es.tEZ (V/m) @ t=0.88
-0.6254085635101387
% es.Ex (V/m) @ t=0.88
0.626321682198518
% es.Ey (V/m) @ t=0.88
0.09379783679383163
% es.Ez (V/m) @ t=0.88
-0.6254085635101496
% es.tEx (V/m) @ t=0.88
0.6263216821985198
% es.tEy (V/m) @ t=0.88
0
% es.tEz (V/m) @ t=0.88
-0.6254085635101387
% V (V) @ t=0.88
0.00965552761284504
% es.normE (V/m) @ t=0.9
0.9102099686341316
% es.EX (V/m) @ t=0.9
0.6322364992835561
% es.EY (V/m) @ t=0.9
0.09468401721890385
% es.EZ (V/m) @ t=0.9
-0.6313147550352196
% es.tEX (V/m) @ t=0.9
0.6322364992835627
% es.tEY (V/m) @ t=0.9
0
% es.tEZ (V/m) @ t=0.9
-0.6313147550352087
% es.Ex (V/m) @ t=0.9
0.6322364992835561
% es.Ey (V/m) @ t=0.9
0.09468401721890385
% es.Ez (V/m) @ t=0.9
-0.6313147550352196
% es.tEx (V/m) @ t=0.9
0.6322364992835627
% es.tEy (V/m) @ t=0.9
0
% es.tEz (V/m) @ t=0.9
-0.6313147550352087
% V (V) @ t=0.9
0.009746700188480749
% es.normE (V/m) @ t=0.92
0.9187254158747327
% es.EX (V/m) @ t=0.92
0.638151316368609
% es.EY (V/m) @ t=0.92
0.0955701976439941
% es.EZ (V/m) @ t=0.92
-0.6372209465602718
% es.tEX (V/m) @ t=0.92
0.6381513163686106
% es.tEY (V/m) @ t=0.92
0
% es.tEZ (V/m) @ t=0.92
-0.6372209465602574
% es.Ex (V/m) @ t=0.92
0.638151316368609
% es.Ey (V/m) @ t=0.92
0.0955701976439941
% es.Ez (V/m) @ t=0.92
-0.6372209465602718
% es.tEx (V/m) @ t=0.92
0.6381513163686106
% es.tEy (V/m) @ t=0.92
0
% es.tEz (V/m) @ t=0.92
-0.6372209465602574
% V (V) @ t=0.92
0.00983787276411646
% es.normE (V/m) @ t=0.94
0.927240863115536
% es.EX (V/m) @ t=0.94
0.6440661334536506
% es.EY (V/m) @ t=0.94
0.09645637806907459
% es.EZ (V/m) @ t=0.94
-0.6431271380853274
% es.tEX (V/m) @ t=0.94
0.6440661334536544
% es.tEY (V/m) @ t=0.94
0
% es.tEZ (V/m) @ t=0.94
-0.6431271380853198
% es.Ex (V/m) @ t=0.94
0.6440661334536506
% es.Ey (V/m) @ t=0.94
0.09645637806907459
% es.Ez (V/m) @ t=0.94
-0.6431271380853274
% es.tEx (V/m) @ t=0.94
0.6440661334536544
% es.tEy (V/m) @ t=0.94
0
% es.tEz (V/m) @ t=0.94
-0.6431271380853198
% V (V) @ t=0.94
0.00992904533975217
% es.normE (V/m) @ t=0.96
0.9357563103565583
% es.EX (V/m) @ t=0.96
0.6499809505386935
% es.EY (V/m) @ t=0.96
0.0973425584941458
% es.EZ (V/m) @ t=0.96
-0.649033329610391
% es.tEX (V/m) @ t=0.96
0.6499809505386969
% es.tEY (V/m) @ t=0.96
0
% es.tEZ (V/m) @ t=0.96
-0.6490333296103836
% es.Ex (V/m) @ t=0.96
0.6499809505386935
% es.Ey (V/m) @ t=0.96
0.0973425584941458
% es.Ez (V/m) @ t=0.96
-0.649033329610391
% es.tEx (V/m) @ t=0.96
0.6499809505386969
% es.tEy (V/m) @ t=0.96
0
% es.tEz (V/m) @ t=0.96
-0.6490333296103836
% V (V) @ t=0.96
0.01002021791538788
% es.normE (V/m) @ t=0.98
0.944271757597787
% es.EX (V/m) @ t=0.98
0.6558957676237425
% es.EY (V/m) @ t=0.98
0.098228738919235
% es.EZ (V/m) @ t=0.98
-0.6549395211354543
% es.tEX (V/m) @ t=0.98
0.6558957676237402
% es.tEY (V/m) @ t=0.98
0
% es.tEZ (V/m) @ t=0.98
-0.654939521135447
% es.Ex (V/m) @ t=0.98
0.6558957676237425
% es.Ey (V/m) @ t=0.98
0.098228738919235
% es.Ez (V/m) @ t=0.98
-0.6549395211354543
% es.tEx (V/m) @ t=0.98
0.6558957676237402
% es.tEy (V/m) @ t=0.98
0
% es.tEz (V/m) @ t=0.98
-0.654939521135447
% V (V) @ t=0.98
0.01011139049102359
% es.normE (V/m) @ t=1
0.9527872048392056
% es.EX (V/m) @ t=1
0.6618105847087841
% es.EY (V/m) @ t=1
0.0991149193443146
% es.EZ (V/m) @ t=1
-0.6608457126605136
% es.tEX (V/m) @ t=1
0.6618105847087903
% es.tEY (V/m) @ t=1
0
% es.tEZ (V/m) @ t=1
-0.6608457126605027
% es.Ex (V/m) @ t=1
0.6618105847087841
% es.Ey (V/m) @ t=1
0.0991149193443146
% es.Ez (V/m) @ t=1
-0.6608457126605136
% es.tEx (V/m) @ t=1
0.6618105847087903
% es.tEy (V/m) @ t=1
0
% es.tEz (V/m) @ t=1
-0.6608457126605027
% V (V) @ t=1
0.010202563066659301
% es.normE (V/m) @ t=1.02
0.9613026520808142
% es.EX (V/m) @ t=1.02
0.6677254017938254
% es.EY (V/m) @ t=1.02
0.10000109976940025
% es.EZ (V/m) @ t=1.02
-0.6667519041855698
% es.tEX (V/m) @ t=1.02
0.6677254017938234
% es.tEY (V/m) @ t=1.02
0
% es.tEZ (V/m) @ t=1.02
-0.6667519041855519
% es.Ex (V/m) @ t=1.02
0.6677254017938254
% es.Ey (V/m) @ t=1.02
0.10000109976940025
% es.Ez (V/m) @ t=1.02
-0.6667519041855698
% es.tEx (V/m) @ t=1.02
0.6677254017938234
% es.tEy (V/m) @ t=1.02
0
% es.tEz (V/m) @ t=1.02
-0.6667519041855519
% V (V) @ t=1.02
0.01029373564229501
% es.normE (V/m) @ t=1.04
0.9698180993226122
% es.EX (V/m) @ t=1.04
0.673640218878871