% Model:              1 neuron.mph
% Version:            COMSOL 6.1.0.252
% Date:               Mar 18 2023, 12:31
% Dimension:          0
% Nodes:              14017
% Expressions:        14017
% Description:        Electric field norm, Electric field, X component, Electric field, Y component, Electric field, Z component, Tangential electric field, X component, Tangential electric field, Y component, Tangential electric field, Z component, Electric field, x component, Electric field, y component, Electric field, z component, Tangential electric field, x component, Tangential electric field, y component, Tangential electric field, z component, Electric potential
% Length unit:        mm
% x
2
% y
12.2
% z
1.33
% es.normE (V/m) @ t=0
1.3005427534666663
% es.EX (V/m) @ t=0
-1.1962095416792455
% es.EY (V/m) @ t=0
0.09331301587225582
% es.EZ (V/m) @ t=0
0.5002778857331833
% es.tEX (V/m) @ t=0
-1.1962095416792424
% es.tEY (V/m) @ t=0
0
% es.tEZ (V/m) @ t=0
0.5002778857331833
% es.Ex (V/m) @ t=0
-1.1962095416792455
% es.Ey (V/m) @ t=0
0.09331301587225582
% es.Ez (V/m) @ t=0
0.5002778857331833
% es.tEx (V/m) @ t=0
-1.1962095416792424
% es.tEy (V/m) @ t=0
0
% es.tEz (V/m) @ t=0
0.5002778857331833
% V (V) @ t=0
0.007261177905788354
% es.normE (V/m) @ t=0.02
1.1232930378876194
% es.EX (V/m) @ t=0.02
-1.0331792964574835
% es.EY (V/m) @ t=0.02
0.08059547872087464
% es.EZ (V/m) @ t=0.02
0.43209550096571503
% es.tEX (V/m) @ t=0.02
-1.0331792964574777
% es.tEY (V/m) @ t=0.02
0
% es.tEZ (V/m) @ t=0.02
0.4320955009657119
% es.Ex (V/m) @ t=0.02
-1.0331792964574835
% es.Ey (V/m) @ t=0.02
0.08059547872087464
% es.Ez (V/m) @ t=0.02
0.43209550096571503
% es.tEx (V/m) @ t=0.02
-1.0331792964574777
% es.tEy (V/m) @ t=0.02
0
% es.tEz (V/m) @ t=0.02
0.4320955009657119
% V (V) @ t=0.02
0.006271558852142766
% es.normE (V/m) @ t=0.04
1.1336254503490149
% es.EX (V/m) @ t=0.04
-1.0426828090867186
% es.EY (V/m) @ t=0.04
0.08133682927496289
% es.EZ (V/m) @ t=0.04
0.436070064918866
% es.tEX (V/m) @ t=0.04
-1.0426828090867142
% es.tEY (V/m) @ t=0.04
0
% es.tEZ (V/m) @ t=0.04
0.4360700649188711
% es.Ex (V/m) @ t=0.04
-1.0426828090867186
% es.Ey (V/m) @ t=0.04
0.08133682927496289
% es.Ez (V/m) @ t=0.04
0.436070064918866
% es.tEx (V/m) @ t=0.04
-1.0426828090867142
% es.tEy (V/m) @ t=0.04
0
% es.tEz (V/m) @ t=0.04
0.4360700649188711
% V (V) @ t=0.04
0.006329246418431448
% es.normE (V/m) @ t=0.06
1.1440532782278154
% es.EX (V/m) @ t=0.06
-1.0522740869444203
% es.EY (V/m) @ t=0.06
0.08208501881958813
% es.EZ (V/m) @ t=0.06
0.4400813227703753
% es.tEX (V/m) @ t=0.06
-1.0522740869444158
% es.tEY (V/m) @ t=0.06
0
% es.tEZ (V/m) @ t=0.06
0.44008132277037504
% es.Ex (V/m) @ t=0.06
-1.0522740869444203
% es.Ey (V/m) @ t=0.06
0.08208501881958813
% es.Ez (V/m) @ t=0.06
0.4400813227703753
% es.tEx (V/m) @ t=0.06
-1.0522740869444158
% es.tEy (V/m) @ t=0.06
0
% es.tEz (V/m) @ t=0.06
0.44008132277037504
% V (V) @ t=0.06
0.006387466955396514
% es.normE (V/m) @ t=0.08
1.1546349577075603
% es.EX (V/m) @ t=0.08
-1.0620068697012628
% es.EY (V/m) @ t=0.08
0.08284425409589485
% es.EZ (V/m) @ t=0.08
0.44415177187345034
% es.tEX (V/m) @ t=0.08
-1.0620068697012588
% es.tEY (V/m) @ t=0.08
0
% es.tEZ (V/m) @ t=0.08
0.44415177187344845
% es.Ex (V/m) @ t=0.08
-1.0620068697012628
% es.Ey (V/m) @ t=0.08
0.08284425409589485
% es.Ez (V/m) @ t=0.08
0.44415177187345034
% es.tEx (V/m) @ t=0.08
-1.0620068697012588
% es.tEy (V/m) @ t=0.08
0
% es.tEz (V/m) @ t=0.08
0.44415177187344845
% V (V) @ t=0.08
0.006446546227545044
% es.normE (V/m) @ t=0.1
1.165334458942834
% es.EX (V/m) @ t=0.1
-1.0718480189328825
% es.EY (V/m) @ t=0.1
0.08361194835144703
% es.EZ (V/m) @ t=0.1
0.4482675504831893
% es.tEX (V/m) @ t=0.1
-1.0718480189328785
% es.tEY (V/m) @ t=0.1
0
% es.tEZ (V/m) @ t=0.1
0.448267550483191
% es.Ex (V/m) @ t=0.1
-1.0718480189328825
% es.Ey (V/m) @ t=0.1
0.08361194835144703
% es.Ez (V/m) @ t=0.1
0.4482675504831893
% es.tEx (V/m) @ t=0.1
-1.0718480189328785
% es.tEy (V/m) @ t=0.1
0
% es.tEz (V/m) @ t=0.1
0.448267550483191
% V (V) @ t=0.1
0.006506283131373958
% es.normE (V/m) @ t=0.12
1.1760339601781136
% es.EX (V/m) @ t=0.12
-1.081689168164508
% es.EY (V/m) @ t=0.12
0.08437964260698666
% es.EZ (V/m) @ t=0.12
0.4523833290929293
% es.tEX (V/m) @ t=0.12
-1.0816891681645018
% es.tEY (V/m) @ t=0.12
0
% es.tEZ (V/m) @ t=0.12
0.4523833290929318
% es.Ex (V/m) @ t=0.12
-1.081689168164508
% es.Ey (V/m) @ t=0.12
0.08437964260698666
% es.Ez (V/m) @ t=0.12
0.4523833290929293
% es.tEx (V/m) @ t=0.12
-1.0816891681645018
% es.tEy (V/m) @ t=0.12
0
% es.tEz (V/m) @ t=0.12
0.4523833290929318
% V (V) @ t=0.12
0.006566020035202871
% es.normE (V/m) @ t=0.14
1.1868155149609858
% es.EX (V/m) @ t=0.14
-1.091605788655193
% es.EY (V/m) @ t=0.14
0.08515322368020795
% es.EZ (V/m) @ t=0.14
0.45653067051336566
% es.tEX (V/m) @ t=0.14
-1.0916057886551886
% es.tEY (V/m) @ t=0.14
0
% es.tEZ (V/m) @ t=0.14
0.4565306705133665
% es.Ex (V/m) @ t=0.14
-1.091605788655193
% es.Ey (V/m) @ t=0.14
0.08515322368020795
% es.Ez (V/m) @ t=0.14
0.45653067051336566
% es.tEx (V/m) @ t=0.14
-1.0916057886551886
% es.tEy (V/m) @ t=0.14
0
% es.tEz (V/m) @ t=0.14
0.4565306705133665
% V (V) @ t=0.14
0.006626215075858625
% es.normE (V/m) @ t=0.16
1.1980902162826494
% es.EX (V/m) @ t=0.16
-1.1019759957521233
% es.EY (V/m) @ t=0.16
0.08596218486618207
% es.EZ (V/m) @ t=0.16
0.4608677062408412
% es.tEX (V/m) @ t=0.16
-1.1019759957521194
% es.tEY (V/m) @ t=0.16
0
% es.tEZ (V/m) @ t=0.16
0.46086770624083684
% es.Ex (V/m) @ t=0.16
-1.1019759957521233
% es.Ey (V/m) @ t=0.16
0.08596218486618207
% es.Ez (V/m) @ t=0.16
0.4608677062408412
% es.tEx (V/m) @ t=0.16
-1.1019759957521194
% es.tEy (V/m) @ t=0.16
0
% es.tEz (V/m) @ t=0.16
0.46086770624083684
% V (V) @ t=0.16
0.006689163545184609
% es.normE (V/m) @ t=0.18
1.2093649176043062
% es.EX (V/m) @ t=0.18
-1.1123462028490487
% es.EY (V/m) @ t=0.18
0.08677114605215164
% es.EZ (V/m) @ t=0.18
0.46520474196831174
% es.tEX (V/m) @ t=0.18
-1.1123462028490456
% es.tEY (V/m) @ t=0.18
0
% es.tEZ (V/m) @ t=0.18
0.46520474196831074
% es.Ex (V/m) @ t=0.18
-1.1123462028490487
% es.Ey (V/m) @ t=0.18
0.08677114605215164
% es.Ez (V/m) @ t=0.18
0.46520474196831174
% es.tEx (V/m) @ t=0.18
-1.1123462028490456
% es.tEy (V/m) @ t=0.18
0
% es.tEz (V/m) @ t=0.18
0.46520474196831074
% V (V) @ t=0.18
0.006752112014510593
% es.normE (V/m) @ t=0.2
1.2206396189259618
% es.EX (V/m) @ t=0.2
-1.1227164099459745
% es.EY (V/m) @ t=0.2
0.08758010723811155
% es.EZ (V/m) @ t=0.2
0.46954177769578026
% es.tEX (V/m) @ t=0.2
-1.1227164099459666
% es.tEY (V/m) @ t=0.2
0
% es.tEZ (V/m) @ t=0.2
0.46954177769577754
% es.Ex (V/m) @ t=0.2
-1.1227164099459745
% es.Ey (V/m) @ t=0.2
0.08758010723811155
% es.Ez (V/m) @ t=0.2
0.46954177769578026
% es.tEx (V/m) @ t=0.2
-1.1227164099459666
% es.tEy (V/m) @ t=0.2
0
% es.tEz (V/m) @ t=0.2
0.46954177769577754
% V (V) @ t=0.2
0.006815060483836577
% es.normE (V/m) @ t=0.22
1.2319143202476295
% es.EX (V/m) @ t=0.22
-1.1330866170429088
% es.EY (V/m) @ t=0.22
0.088389068424082
% es.EZ (V/m) @ t=0.22
0.47387881342325505
% es.tEX (V/m) @ t=0.22
-1.1330866170429026
% es.tEY (V/m) @ t=0.22
0
% es.tEZ (V/m) @ t=0.22
0.473878813423255
% es.Ex (V/m) @ t=0.22
-1.1330866170429088
% es.Ey (V/m) @ t=0.22
0.088389068424082
% es.Ez (V/m) @ t=0.22
0.47387881342325505
% es.tEx (V/m) @ t=0.22
-1.1330866170429026
% es.tEy (V/m) @ t=0.22
0
% es.tEz (V/m) @ t=0.22
0.473878813423255
% V (V) @ t=0.22
0.006878008953162559
% es.normE (V/m) @ t=0.24
1.243189021569279
% es.EX (V/m) @ t=0.24
-1.1434568241398284
% es.EY (V/m) @ t=0.24
0.08919802961005169
% es.EZ (V/m) @ t=0.24
0.4782158491507183
% es.tEX (V/m) @ t=0.24
-1.1434568241398244
% es.tEY (V/m) @ t=0.24
0
% es.tEZ (V/m) @ t=0.24
0.47821584915071824
% es.Ex (V/m) @ t=0.24
-1.1434568241398284
% es.Ey (V/m) @ t=0.24
0.08919802961005169
% es.Ez (V/m) @ t=0.24
0.4782158491507183
% es.tEx (V/m) @ t=0.24
-1.1434568241398244
% es.tEy (V/m) @ t=0.24
0
% es.tEz (V/m) @ t=0.24
0.47821584915071824
% V (V) @ t=0.24
0.006940957422488543
% es.normE (V/m) @ t=0.26
1.254463722890942
% es.EX (V/m) @ t=0.26
-1.1538270312367596
% es.EY (V/m) @ t=0.26
0.09000699079600705
% es.EZ (V/m) @ t=0.26
0.4825528848781923
% es.tEX (V/m) @ t=0.26
-1.1538270312367533
% es.tEY (V/m) @ t=0.26
0
% es.tEZ (V/m) @ t=0.26
0.4825528848781886
% es.Ex (V/m) @ t=0.26
-1.1538270312367596
% es.Ey (V/m) @ t=0.26
0.09000699079600705
% es.Ez (V/m) @ t=0.26
0.4825528848781923
% es.tEx (V/m) @ t=0.26
-1.1538270312367533
% es.tEy (V/m) @ t=0.26
0
% es.tEz (V/m) @ t=0.26
0.4825528848781886
% V (V) @ t=0.26
0.007003905891814525
% es.normE (V/m) @ t=0.28
1.2661209340358335
% es.EX (V/m) @ t=0.28
-1.1645490646858678
% es.EY (V/m) @ t=0.28
0.09084339270407471
% es.EZ (V/m) @ t=0.28
0.4870370545284926
% es.tEX (V/m) @ t=0.28
-1.1645490646858638
% es.tEY (V/m) @ t=0.28
0
% es.tEZ (V/m) @ t=0.28
0.4870370545284963
% es.Ex (V/m) @ t=0.28
-1.1645490646858678
% es.Ey (V/m) @ t=0.28
0.09084339270407471
% es.Ez (V/m) @ t=0.28
0.4870370545284926
% es.tEx (V/m) @ t=0.28
-1.1645490646858638
% es.tEy (V/m) @ t=0.28
0
% es.tEz (V/m) @ t=0.28
0.4870370545284963
% V (V) @ t=0.28
0.0070689901323932915
% es.normE (V/m) @ t=0.3
1.2786908097251513
% es.EX (V/m) @ t=0.3
-1.1761105522298263
% es.EY (V/m) @ t=0.3
0.09174526789573623
% es.EZ (V/m) @ t=0.3
0.4918722842208832
% es.tEX (V/m) @ t=0.3
-1.1761105522298188
% es.tEY (V/m) @ t=0.3
0
% es.tEZ (V/m) @ t=0.3
0.4918722842208787
% es.Ex (V/m) @ t=0.3
-1.1761105522298263
% es.Ey (V/m) @ t=0.3
0.09174526789573623
% es.Ez (V/m) @ t=0.3
0.4918722842208832
% es.tEx (V/m) @ t=0.3
-1.1761105522298188
% es.tEy (V/m) @ t=0.3
0
% es.tEz (V/m) @ t=0.3
0.4918722842208787
% V (V) @ t=0.3
0.007139170301439986
% es.normE (V/m) @ t=0.32
1.2912606854144741
% es.EX (V/m) @ t=0.32
-1.1876720397737865
% es.EY (V/m) @ t=0.32
0.0926471430873897
% es.EZ (V/m) @ t=0.32
0.4967075139132852
% es.tEX (V/m) @ t=0.32
-1.1876720397737799
% es.tEY (V/m) @ t=0.32
0
% es.tEZ (V/m) @ t=0.32
0.4967075139132824
% es.Ex (V/m) @ t=0.32
-1.1876720397737865
% es.Ey (V/m) @ t=0.32
0.0926471430873897
% es.Ez (V/m) @ t=0.32
0.4967075139132852
% es.tEx (V/m) @ t=0.32
-1.1876720397737799
% es.tEy (V/m) @ t=0.32
0
% es.tEz (V/m) @ t=0.32
0.4967075139132824
% V (V) @ t=0.32
0.007209350470486681
% es.normE (V/m) @ t=0.34
1.3038305611037941
% es.EX (V/m) @ t=0.34
-1.199233527317746
% es.EY (V/m) @ t=0.34
0.09354901827904849
% es.EZ (V/m) @ t=0.34
0.5015427436056803
% es.tEX (V/m) @ t=0.34
-1.199233527317741
% es.tEY (V/m) @ t=0.34
0
% es.tEZ (V/m) @ t=0.34
0.5015427436056825
% es.Ex (V/m) @ t=0.34
-1.199233527317746
% es.Ey (V/m) @ t=0.34
0.09354901827904849
% es.Ez (V/m) @ t=0.34
0.5015427436056803
% es.tEx (V/m) @ t=0.34
-1.199233527317741
% es.tEy (V/m) @ t=0.34
0
% es.tEz (V/m) @ t=0.34
0.5015427436056825
% V (V) @ t=0.34
0.007279530639533375
% es.normE (V/m) @ t=0.36
1.3164004367931192
% es.EX (V/m) @ t=0.36
-1.2107950148617097
% es.EY (V/m) @ t=0.36
0.09445089347070201
% es.EZ (V/m) @ t=0.36
0.5063779732980771
% es.tEX (V/m) @ t=0.36
-1.2107950148617066
% es.tEY (V/m) @ t=0.36
0
% es.tEZ (V/m) @ t=0.36
0.5063779732980755
% es.Ex (V/m) @ t=0.36
-1.2107950148617097
% es.Ey (V/m) @ t=0.36
0.09445089347070201
% es.Ez (V/m) @ t=0.36
0.5063779732980771
% es.tEx (V/m) @ t=0.36
-1.2107950148617066
% es.tEy (V/m) @ t=0.36
0
% es.tEz (V/m) @ t=0.36
0.5063779732980755
% V (V) @ t=0.36
0.007349710808580071
% es.normE (V/m) @ t=0.38
1.3289703124824368
% es.EX (V/m) @ t=0.38
-1.2223565024056646
% es.EY (V/m) @ t=0.38
0.09535276866236264
% es.EZ (V/m) @ t=0.38
0.5112132029904763
% es.tEX (V/m) @ t=0.38
-1.2223565024056597
% es.tEY (V/m) @ t=0.38
0
% es.tEZ (V/m) @ t=0.38
0.5112132029904721
% es.Ex (V/m) @ t=0.38
-1.2223565024056646
% es.Ey (V/m) @ t=0.38
0.09535276866236264
% es.Ez (V/m) @ t=0.38
0.5112132029904763
% es.tEx (V/m) @ t=0.38
-1.2223565024056597
% es.tEy (V/m) @ t=0.38
0
% es.tEz (V/m) @ t=0.38
0.5112132029904721
% V (V) @ t=0.38
0.007419890977626765
% es.normE (V/m) @ t=0.4
1.341540188171758
% es.EX (V/m) @ t=0.4
-1.2339179899496249
% es.EY (V/m) @ t=0.4
0.09625464385401172
% es.EZ (V/m) @ t=0.4
0.5160484326828731
% es.tEX (V/m) @ t=0.4
-1.2339179899496218
% es.tEY (V/m) @ t=0.4
0
% es.tEZ (V/m) @ t=0.4
0.5160484326828723
% es.Ex (V/m) @ t=0.4
-1.2339179899496249
% es.Ey (V/m) @ t=0.4
0.09625464385401172
% es.Ez (V/m) @ t=0.4
0.5160484326828731
% es.tEx (V/m) @ t=0.4
-1.2339179899496218
% es.tEy (V/m) @ t=0.4
0
% es.tEz (V/m) @ t=0.4
0.5160484326828723
% V (V) @ t=0.4
0.00749007114667346
% es.normE (V/m) @ t=0.42
1.3541100638610866
% es.EX (V/m) @ t=0.42
-1.2454794774935913
% es.EY (V/m) @ t=0.42
0.0971565190456794
% es.EZ (V/m) @ t=0.42
0.5208836623752717
% es.tEX (V/m) @ t=0.42
-1.2454794774935873
% es.tEY (V/m) @ t=0.42
0
% es.tEZ (V/m) @ t=0.42
0.5208836623752724
% es.Ex (V/m) @ t=0.42
-1.2454794774935913
% es.Ey (V/m) @ t=0.42
0.0971565190456794
% es.Ez (V/m) @ t=0.42
0.5208836623752717
% es.tEx (V/m) @ t=0.42
-1.2454794774935873
% es.tEy (V/m) @ t=0.42
0
% es.tEz (V/m) @ t=0.42
0.5208836623752724
% V (V) @ t=0.42
0.007560251315720155
% es.normE (V/m) @ t=0.44
1.366679939550413
% es.EX (V/m) @ t=0.44
-1.2570409650375551
% es.EY (V/m) @ t=0.44
0.09805839423733209
% es.EZ (V/m) @ t=0.44
0.5257188920676727
% es.tEX (V/m) @ t=0.44
-1.2570409650375485
% es.tEY (V/m) @ t=0.44
0
% es.tEZ (V/m) @ t=0.44
0.5257188920676761
% es.Ex (V/m) @ t=0.44
-1.2570409650375551
% es.Ey (V/m) @ t=0.44
0.09805839423733209
% es.Ez (V/m) @ t=0.44
0.5257188920676727
% es.tEx (V/m) @ t=0.44
-1.2570409650375485
% es.tEy (V/m) @ t=0.44
0
% es.tEz (V/m) @ t=0.44
0.5257188920676761
% V (V) @ t=0.44
0.007630431484766849
% es.normE (V/m) @ t=0.46
1.379249815239734
% es.EX (V/m) @ t=0.46
-1.2686024525815145
% es.EY (V/m) @ t=0.46
0.09896026942897929
% es.EZ (V/m) @ t=0.46
0.5305541217600713
% es.tEX (V/m) @ t=0.46
-1.2686024525815052
% es.tEY (V/m) @ t=0.46
0
% es.tEZ (V/m) @ t=0.46
0.5305541217600727
% es.Ex (V/m) @ t=0.46
-1.2686024525815145
% es.Ey (V/m) @ t=0.46
0.09896026942897929
% es.Ez (V/m) @ t=0.46
0.5305541217600713
% es.tEx (V/m) @ t=0.46
-1.2686024525815052
% es.tEy (V/m) @ t=0.46
0
% es.tEz (V/m) @ t=0.46
0.5305541217600727
% V (V) @ t=0.46
0.007700611653813545
% es.normE (V/m) @ t=0.48
1.3918196909290521
% es.EX (V/m) @ t=0.48
-1.2801639401254725
% es.EY (V/m) @ t=0.48
0.09986214462063991
% es.EZ (V/m) @ t=0.48
0.5353893514524628
% es.tEX (V/m) @ t=0.48
-1.2801639401254672
% es.tEY (V/m) @ t=0.48
0
% es.tEZ (V/m) @ t=0.48
0.5353893514524657
% es.Ex (V/m) @ t=0.48
-1.2801639401254725
% es.Ey (V/m) @ t=0.48
0.09986214462063991
% es.Ez (V/m) @ t=0.48
0.5353893514524628
% es.tEx (V/m) @ t=0.48
-1.2801639401254672
% es.tEy (V/m) @ t=0.48
0
% es.tEz (V/m) @ t=0.48
0.5353893514524657
% V (V) @ t=0.48
0.007770791822860239
% es.normE (V/m) @ t=0.5
1.404389566618383
% es.EX (V/m) @ t=0.5
-1.2917254276694412
% es.EY (V/m) @ t=0.5
0.10076401981229255
% es.EZ (V/m) @ t=0.5
0.540224581144864
% es.tEX (V/m) @ t=0.5
-1.2917254276694354
% es.tEY (V/m) @ t=0.5
0
% es.tEZ (V/m) @ t=0.5
0.5402245811448694
% es.Ex (V/m) @ t=0.5
-1.2917254276694412
% es.Ey (V/m) @ t=0.5
0.10076401981229255
% es.Ez (V/m) @ t=0.5
0.540224581144864
% es.tEx (V/m) @ t=0.5
-1.2917254276694354
% es.tEy (V/m) @ t=0.5
0
% es.tEz (V/m) @ t=0.5
0.5402245811448694
% V (V) @ t=0.5
0.007840971991906935
% es.normE (V/m) @ t=0.52
1.416959442307696
% es.EX (V/m) @ t=0.52
-1.3032869152133895
% es.EY (V/m) @ t=0.52
0.10166589500395584
% es.EZ (V/m) @ t=0.52
0.5450598108372644
% es.tEX (V/m) @ t=0.52
-1.3032869152133868
% es.tEY (V/m) @ t=0.52
0
% es.tEZ (V/m) @ t=0.52
0.5450598108372624
% es.Ex (V/m) @ t=0.52
-1.3032869152133895
% es.Ey (V/m) @ t=0.52
0.10166589500395584
% es.Ez (V/m) @ t=0.52
0.5450598108372644
% es.tEx (V/m) @ t=0.52
-1.3032869152133868
% es.tEy (V/m) @ t=0.52
0
% es.tEz (V/m) @ t=0.52
0.5450598108372624
% V (V) @ t=0.52
0.00791115216095363
% es.normE (V/m) @ t=0.54
1.4295293179970257
% es.EX (V/m) @ t=0.54
-1.3148484027573564
% es.EY (V/m) @ t=0.54
0.10256777019561203
% es.EZ (V/m) @ t=0.54
0.5498950405296654
% es.tEX (V/m) @ t=0.54
-1.3148484027573515
% es.tEY (V/m) @ t=0.54
0
% es.tEZ (V/m) @ t=0.54
0.5498950405296696
% es.Ex (V/m) @ t=0.54
-1.3148484027573564
% es.Ey (V/m) @ t=0.54
0.10256777019561203
% es.Ez (V/m) @ t=0.54
0.5498950405296654
% es.tEx (V/m) @ t=0.54
-1.3148484027573515
% es.tEy (V/m) @ t=0.54
0
% es.tEz (V/m) @ t=0.54
0.5498950405296696
% V (V) @ t=0.54
0.007981332330000325
% es.normE (V/m) @ t=0.56
1.4429873995950206
% es.EX (V/m) @ t=0.56
-1.3272275810691827
% es.EY (V/m) @ t=0.56
0.10353217119826269
% es.EZ (V/m) @ t=0.56
0.555070319252899
% es.tEX (V/m) @ t=0.56
-1.3272275810691792
% es.tEY (V/m) @ t=0.56
0
% es.tEZ (V/m) @ t=0.56
0.5550703192528985
% es.Ex (V/m) @ t=0.56
-1.3272275810691827
% es.Ey (V/m) @ t=0.56
0.10353217119826269
% es.Ez (V/m) @ t=0.56
0.555070319252899
% es.tEx (V/m) @ t=0.56
-1.3272275810691792
% es.tEy (V/m) @ t=0.56
0
% es.tEz (V/m) @ t=0.56
0.5550703192528985
% V (V) @ t=0.56
0.008056514097920634
% es.normE (V/m) @ t=0.58
1.4570358946984687
% es.EX (V/m) @ t=0.58
-1.3401502996356978
% es.EY (V/m) @ t=0.58
0.10453813472866302
% es.EZ (V/m) @ t=0.58
0.5604716373838163
% es.tEX (V/m) @ t=0.58
-1.340150299635698
% es.tEY (V/m) @ t=0.58
0
% es.tEZ (V/m) @ t=0.58
0.5604716373838166
% es.Ex (V/m) @ t=0.58
-1.3401502996356978
% es.Ey (V/m) @ t=0.58
0.10453813472866302
% es.Ez (V/m) @ t=0.58
0.5604716373838163
% es.tEx (V/m) @ t=0.58
-1.340150299635698
% es.tEy (V/m) @ t=0.58
0
% es.tEz (V/m) @ t=0.58
0.5604716373838166
% V (V) @ t=0.58
0.008135020558294952
% es.normE (V/m) @ t=0.6
1.471084389812081
% es.EX (V/m) @ t=0.6
-1.3530730182022292
% es.EY (V/m) @ t=0.6
0.1055440982590492
% es.EZ (V/m) @ t=0.6
0.5658729555147257
% es.tEX (V/m) @ t=0.6
-1.3530730182022204
% es.tEY (V/m) @ t=0.6
0
% es.tEZ (V/m) @ t=0.6
0.5658729555147275
% es.Ex (V/m) @ t=0.6
-1.3530730182022292
% es.Ey (V/m) @ t=0.6
0.1055440982590492
% es.Ez (V/m) @ t=0.6
0.5658729555147257
% es.tEx (V/m) @ t=0.6
-1.3530730182022204
% es.tEy (V/m) @ t=0.6
0
% es.tEz (V/m) @ t=0.6
0.5658729555147275
% V (V) @ t=0.6
0.008213527018669266
% es.normE (V/m) @ t=0.62
1.4851328849355483
% es.EX (V/m) @ t=0.62
-1.3659957367687465
% es.EY (V/m) @ t=0.62
0.10655006178944243
% es.EZ (V/m) @ t=0.62
0.5712742736456431
% es.tEX (V/m) @ t=0.62
-1.3659957367687383
% es.tEY (V/m) @ t=0.62
0
% es.tEZ (V/m) @ t=0.62
0.5712742736456455
% es.Ex (V/m) @ t=0.62
-1.3659957367687465
% es.Ey (V/m) @ t=0.62
0.10655006178944243
% es.Ez (V/m) @ t=0.62
0.5712742736456431
% es.tEx (V/m) @ t=0.62
-1.3659957367687383
% es.tEy (V/m) @ t=0.62
0
% es.tEz (V/m) @ t=0.62
0.5712742736456455
% V (V) @ t=0.62
0.008292033479043582
% es.normE (V/m) @ t=0.64
1.499181380068605
% es.EX (V/m) @ t=0.64
-1.3789184553352636
% es.EY (V/m) @ t=0.64
0.10755602531983749
% es.EZ (V/m) @ t=0.64
0.5766755917765667
% es.tEX (V/m) @ t=0.64
-1.3789184553352634
% es.tEY (V/m) @ t=0.64
0
% es.tEZ (V/m) @ t=0.64
0.5766755917765636
% es.Ex (V/m) @ t=0.64
-1.3789184553352636
% es.Ey (V/m) @ t=0.64
0.10755602531983749
% es.Ez (V/m) @ t=0.64
0.5766755917765667
% es.tEx (V/m) @ t=0.64
-1.3789184553352634
% es.tEy (V/m) @ t=0.64
0
% es.tEz (V/m) @ t=0.64
0.5766755917765636
% V (V) @ t=0.64
0.008370539939417897
% es.normE (V/m) @ t=0.66
1.513229875210985
% es.EX (V/m) @ t=0.66
-1.3918411739017873
% es.EY (V/m) @ t=0.66
0.10856198885023427
% es.EZ (V/m) @ t=0.66
0.5820769099074814
% es.tEX (V/m) @ t=0.66
-1.3918411739017795
% es.tEY (V/m) @ t=0.66
0
% es.tEZ (V/m) @ t=0.66
0.5820769099074816
% es.Ex (V/m) @ t=0.66
-1.3918411739017873
% es.Ey (V/m) @ t=0.66
0.10856198885023427
% es.Ez (V/m) @ t=0.66
0.5820769099074814
% es.tEx (V/m) @ t=0.66
-1.3918411739017795
% es.tEy (V/m) @ t=0.66
0
% es.tEz (V/m) @ t=0.66
0.5820769099074816
% V (V) @ t=0.66
0.008449046399792213
% es.normE (V/m) @ t=0.68
1.5272783703624282
% es.EX (V/m) @ t=0.68
-1.4047638924683084
% es.EY (V/m) @ t=0.68
0.1095679523806311
% es.EZ (V/m) @ t=0.68
0.5874782280384032
% es.tEX (V/m) @ t=0.68
-1.4047638924683046
% es.tEY (V/m) @ t=0.68
0
% es.tEZ (V/m) @ t=0.68
0.5874782280384032
% es.Ex (V/m) @ t=0.68
-1.4047638924683084
% es.Ey (V/m) @ t=0.68
0.1095679523806311
% es.Ez (V/m) @ t=0.68
0.5874782280384032
% es.tEx (V/m) @ t=0.68
-1.4047638924683046
% es.tEy (V/m) @ t=0.68
0
% es.tEz (V/m) @ t=0.68
0.5874782280384032
% V (V) @ t=0.68
0.00852755286016653
% es.normE (V/m) @ t=0.7
1.5413268655226755
% es.EX (V/m) @ t=0.7
-1.417686611034825
% es.EY (V/m) @ t=0.7
0.11057391591102084
% es.EZ (V/m) @ t=0.7
0.592879546169307
% es.tEX (V/m) @ t=0.7
-1.4176866110348225
% es.tEY (V/m) @ t=0.7
0
% es.tEZ (V/m) @ t=0.7
0.5928795461693142
% es.Ex (V/m) @ t=0.7
-1.417686611034825
% es.Ey (V/m) @ t=0.7
0.11057391591102084
% es.Ez (V/m) @ t=0.7
0.592879546169307
% es.tEx (V/m) @ t=0.7
-1.4176866110348225
% es.tEy (V/m) @ t=0.7
0
% es.tEz (V/m) @ t=0.7
0.5928795461693142
% V (V) @ t=0.7
0.008606059320540847
% es.normE (V/m) @ t=0.72
1.555375360691512
% es.EX (V/m) @ t=0.72
-1.4306093296013473
% es.EY (V/m) @ t=0.72
0.11157987944141584
% es.EZ (V/m) @ t=0.72
0.5982808643002291
% es.tEX (V/m) @ t=0.72
-1.4306093296013387
% es.tEY (V/m) @ t=0.72
0
% es.tEZ (V/m) @ t=0.72
0.5982808643002286
% es.Ex (V/m) @ t=0.72
-1.4306093296013473
% es.Ey (V/m) @ t=0.72
0.11157987944141584
% es.Ez (V/m) @ t=0.72
0.5982808643002291
% es.tEx (V/m) @ t=0.72
-1.4306093296013387
% es.tEy (V/m) @ t=0.72
0
% es.tEz (V/m) @ t=0.72
0.5982808643002286
% V (V) @ t=0.72
0.00868456578091516
% es.normE (V/m) @ t=0.74
1.5694238558686844
% es.EX (V/m) @ t=0.74
-1.4435320481678626
% es.EY (V/m) @ t=0.74
0.11258584297181612
% es.EZ (V/m) @ t=0.74
0.603682182431142
% es.tEX (V/m) @ t=0.74
-1.4435320481678566
% es.tEY (V/m) @ t=0.74
0
% es.tEZ (V/m) @ t=0.74
0.6036821824311431
% es.Ex (V/m) @ t=0.74
-1.4435320481678626
% es.Ey (V/m) @ t=0.74
0.11258584297181612
% es.Ez (V/m) @ t=0.74
0.603682182431142
% es.tEx (V/m) @ t=0.74
-1.4435320481678566
% es.tEy (V/m) @ t=0.74
0
% es.tEz (V/m) @ t=0.74
0.6036821824311431
% V (V) @ t=0.74
0.008763072241289476
% es.normE (V/m) @ t=0.76
1.5834723510539863
% es.EX (V/m) @ t=0.76
-1.4564547667343828
% es.EY (V/m) @ t=0.76
0.11359180650221123
% es.EZ (V/m) @ t=0.76
0.6090835005620585
% es.tEX (V/m) @ t=0.76
-1.45645476673438
% es.tEY (V/m) @ t=0.76
0
% es.tEZ (V/m) @ t=0.76
0.6090835005620576
% es.Ex (V/m) @ t=0.76
-1.4564547667343828
% es.Ey (V/m) @ t=0.76
0.11359180650221123
% es.Ez (V/m) @ t=0.76
0.6090835005620585
% es.tEx (V/m) @ t=0.76
-1.45645476673438
% es.tEy (V/m) @ t=0.76
0
% es.tEz (V/m) @ t=0.76
0.6090835005620576
% V (V) @ t=0.76
0.00884157870166379
% es.normE (V/m) @ t=0.78
1.5975208462472112
% es.EX (V/m) @ t=0.78
-1.4693774853009145
% es.EY (V/m) @ t=0.78
0.11459777003260452
% es.EZ (V/m) @ t=0.78
0.6144848186929819
% es.tEX (V/m) @ t=0.78
-1.4693774853009032
% es.tEY (V/m) @ t=0.78
0
% es.tEZ (V/m) @ t=0.78
0.6144848186929792
% es.Ex (V/m) @ t=0.78
-1.4693774853009145
% es.Ey (V/m) @ t=0.78
0.11459777003260452
% es.Ez (V/m) @ t=0.78
0.6144848186929819
% es.tEx (V/m) @ t=0.78
-1.4693774853009032
% es.tEy (V/m) @ t=0.78
0
% es.tEz (V/m) @ t=0.78
0.6144848186929792
% V (V) @ t=0.78
0.008920085162038108
% es.normE (V/m) @ t=0.8
1.611569341448111
% es.EX (V/m) @ t=0.8
-1.4823002038674236
% es.EY (V/m) @ t=0.8
0.11560373356299058
% es.EZ (V/m) @ t=0.8
0.6198861368238879
% es.tEX (V/m) @ t=0.8
-1.4823002038674176
% es.tEY (V/m) @ t=0.8
0
% es.tEZ (V/m) @ t=0.8
0.6198861368238866
% es.Ex (V/m) @ t=0.8
-1.4823002038674236
% es.Ey (V/m) @ t=0.8
0.11560373356299058
% es.Ez (V/m) @ t=0.8
0.6198861368238879
% es.tEx (V/m) @ t=0.8
-1.4823002038674176
% es.tEy (V/m) @ t=0.8
0
% es.tEz (V/m) @ t=0.8
0.6198861368238866
% V (V) @ t=0.8
0.008998591622412426
% es.normE (V/m) @ t=0.82
1.6256178366565415
% es.EX (V/m) @ t=0.82
-1.4952229224339535
% es.EY (V/m) @ t=0.82
0.1166096970933928
% es.EZ (V/m) @ t=0.82
0.6252874549548132
% es.tEX (V/m) @ t=0.82
-1.4952229224339444
% es.tEY (V/m) @ t=0.82
0
% es.tEZ (V/m) @ t=0.82
0.6252874549548153
% es.Ex (V/m) @ t=0.82
-1.4952229224339535
% es.Ey (V/m) @ t=0.82
0.1166096970933928
% es.Ez (V/m) @ t=0.82
0.6252874549548132
% es.tEx (V/m) @ t=0.82
-1.4952229224339444
% es.tEy (V/m) @ t=0.82
0
% es.tEz (V/m) @ t=0.82
0.6252874549548153
% V (V) @ t=0.82
0.009077098082786741
% es.normE (V/m) @ t=0.84
1.641165490775092
% es.EX (V/m) @ t=0.84
-1.5095226743393606
% es.EY (V/m) @ t=0.84
0.11772624756317174
% es.EZ (V/m) @ t=0.84
0.6312695158014727
% es.tEX (V/m) @ t=0.84
-1.50952267433936
% es.tEY (V/m) @ t=0.84
0
% es.tEZ (V/m) @ t=0.84
0.6312695158014705
% es.Ex (V/m) @ t=0.84
-1.5095226743393606
% es.Ey (V/m) @ t=0.84
0.11772624756317174
% es.Ez (V/m) @ t=0.84
0.6312695158014727
% es.tEx (V/m) @ t=0.84
-1.50952267433936
% es.tEy (V/m) @ t=0.84
0
% es.tEz (V/m) @ t=0.84
0.6312695158014705
% V (V) @ t=0.84
0.009163867569434337
% es.normE (V/m) @ t=0.86
1.6568685692610683
% es.EX (V/m) @ t=0.86
-1.5239651893148984
% es.EY (V/m) @ t=0.86
0.11885426306473595
% es.EZ (V/m) @ t=0.86
0.6373117847859495
% es.tEX (V/m) @ t=0.86
-1.5239651893148913
% es.tEY (V/m) @ t=0.86
0
% es.tEZ (V/m) @ t=0.86
0.6373117847859504
% es.Ex (V/m) @ t=0.86
-1.5239651893148984
% es.Ey (V/m) @ t=0.86
0.11885426306473595
% es.Ez (V/m) @ t=0.86
0.6373117847859495
% es.tEx (V/m) @ t=0.86
-1.5239651893148913
% es.tEy (V/m) @ t=0.86
0
% es.tEz (V/m) @ t=0.86
0.6373117847859504
% V (V) @ t=0.86
0.009251493720162587
% es.normE (V/m) @ t=0.88
1.6725716477526544
% es.EX (V/m) @ t=0.88
-1.5384077042904314
% es.EY (V/m) @ t=0.88
0.11998227856628413
% es.EZ (V/m) @ t=0.88
0.6433540537704283
% es.tEX (V/m) @ t=0.88
-1.5384077042904245
% es.tEY (V/m) @ t=0.88
0
% es.tEZ (V/m) @ t=0.88
0.6433540537704303
% es.Ex (V/m) @ t=0.88
-1.5384077042904314
% es.Ey (V/m) @ t=0.88
0.11998227856628413
% es.Ez (V/m) @ t=0.88
0.6433540537704283
% es.tEx (V/m) @ t=0.88
-1.5384077042904245
% es.tEy (V/m) @ t=0.88
0
% es.tEz (V/m) @ t=0.88
0.6433540537704303
% V (V) @ t=0.88
0.00933911987089084
% es.normE (V/m) @ t=0.9
1.6882747262497038
% es.EX (V/m) @ t=0.9
-1.552850219265973
% es.EY (V/m) @ t=0.9
0.12111029406783952
% es.EZ (V/m) @ t=0.9
0.6493963227548998
% es.tEX (V/m) @ t=0.9
-1.5528502192659595
% es.tEY (V/m) @ t=0.9
0
% es.tEZ (V/m) @ t=0.9
0.6493963227549031
% es.Ex (V/m) @ t=0.9
-1.552850219265973
% es.Ey (V/m) @ t=0.9
0.12111029406783952
% es.Ez (V/m) @ t=0.9
0.6493963227548998
% es.tEx (V/m) @ t=0.9
-1.5528502192659595
% es.tEy (V/m) @ t=0.9
0
% es.tEz (V/m) @ t=0.9
0.6493963227549031
% V (V) @ t=0.9
0.00942674602161909
% es.normE (V/m) @ t=0.92
1.7039778047520477
% es.EX (V/m) @ t=0.92
-1.5672927342414982
% es.EY (V/m) @ t=0.92
0.12223830956939319
% es.EZ (V/m) @ t=0.92
0.6554385917393799
% es.tEX (V/m) @ t=0.92
-1.5672927342414944
% es.tEY (V/m) @ t=0.92
0
% es.tEZ (V/m) @ t=0.92
0.6554385917393795
% es.Ex (V/m) @ t=0.92
-1.5672927342414982
% es.Ey (V/m) @ t=0.92
0.12223830956939319
% es.Ez (V/m) @ t=0.92
0.6554385917393799
% es.tEx (V/m) @ t=0.92
-1.5672927342414944
% es.tEy (V/m) @ t=0.92
0
% es.tEz (V/m) @ t=0.92
0.6554385917393795
% V (V) @ t=0.92
0.00951437217234734
% es.normE (V/m) @ t=0.94
1.719680883259573
% es.EX (V/m) @ t=0.94
-1.5817352492170471
% es.EY (V/m) @ t=0.94
0.12336632507094669
% es.EZ (V/m) @ t=0.94
0.6614808607238569
% es.tEX (V/m) @ t=0.94
-1.5817352492170365
% es.tEY (V/m) @ t=0.94
0
% es.tEZ (V/m) @ t=0.94
0.6614808607238558
% es.Ex (V/m) @ t=0.94
-1.5817352492170471
% es.Ey (V/m) @ t=0.94
0.12336632507094669
% es.Ez (V/m) @ t=0.94
0.6614808607238569
% es.tEx (V/m) @ t=0.94
-1.5817352492170365
% es.tEy (V/m) @ t=0.94
0
% es.tEz (V/m) @ t=0.94
0.6614808607238558
% V (V) @ t=0.94
0.009601998323075591
% es.normE (V/m) @ t=0.96
1.735383961772094
% es.EX (V/m) @ t=0.96
-1.5961777641925725
% es.EY (V/m) @ t=0.96
0.12449434057248782
% es.EZ (V/m) @ t=0.96
0.6675231297083248
% es.tEX (V/m) @ t=0.96
-1.5961777641925643
% es.tEY (V/m) @ t=0.96
0
% es.tEZ (V/m) @ t=0.96
0.6675231297083144
% es.Ex (V/m) @ t=0.96
-1.5961777641925725
% es.Ey (V/m) @ t=0.96
0.12449434057248782
% es.Ez (V/m) @ t=0.96
0.6675231297083248
% es.tEx (V/m) @ t=0.96
-1.5961777641925643
% es.tEy (V/m) @ t=0.96
0
% es.tEz (V/m) @ t=0.96
0.6675231297083144
% V (V) @ t=0.96
0.009689624473803844
% es.normE (V/m) @ t=0.98
1.7510870402895164
% es.EX (V/m) @ t=0.98
-1.610620279168107
% es.EY (V/m) @ t=0.98
0.12562235607404676
% es.EZ (V/m) @ t=0.98
0.6735653986928087
% es.tEX (V/m) @ t=0.98
-1.610620279168101
% es.tEY (V/m) @ t=0.98
0
% es.tEZ (V/m) @ t=0.98
0.6735653986928085
% es.Ex (V/m) @ t=0.98
-1.610620279168107
% es.Ey (V/m) @ t=0.98
0.12562235607404676
% es.Ez (V/m) @ t=0.98
0.6735653986928087
% es.tEx (V/m) @ t=0.98
-1.610620279168101
% es.tEy (V/m) @ t=0.98
0
% es.tEz (V/m) @ t=0.98
0.6735653986928085
% V (V) @ t=0.98
0.009777250624532094
% es.normE (V/m) @ t=1
1.7667901188116875
% es.EX (V/m) @ t=1
-1.6250627941436386
% es.EY (V/m) @ t=1
0.1267503715756163
% es.EZ (V/m) @ t=1
0.6796076676772784
% es.tEX (V/m) @ t=1
-1.6250627941436324
% es.tEY (V/m) @ t=1
0
% es.tEZ (V/m) @ t=1
0.6796076676772849
% es.Ex (V/m) @ t=1
-1.6250627941436386
% es.Ey (V/m) @ t=1
0.1267503715756163
% es.Ez (V/m) @ t=1
0.6796076676772784
% es.tEx (V/m) @ t=1
-1.6250627941436324
% es.tEy (V/m) @ t=1
0
% es.tEz (V/m) @ t=1
0.6796076676772849
% V (V) @ t=1
0.009864876775260345
% es.normE (V/m) @ t=1.02
1.782493197338501
% es.EX (V/m) @ t=1.02
-1.6395053091191785
% es.EY (V/m) @ t=1.02
0.12787838707715038
% es.EZ (V/m) @ t=1.02
0.6856499366617659
% es.tEX (V/m) @ t=1.02
-1.639505309119178
% es.tEY (V/m) @ t=1.02
0
% es.tEZ (V/m) @ t=1.02
0.6856499366617683
% es.Ex (V/m) @ t=1.02
-1.6395053091191785
% es.Ey (V/m) @ t=1.02
0.12787838707715038
% es.Ez (V/m) @ t=1.02
0.6856499366617659
% es.tEx (V/m) @ t=1.02
-1.639505309119178
% es.tEy (V/m) @ t=1.02
0
% es.tEz (V/m) @ t=1.02
0.6856499366617683
% V (V) @ t=1.02
0.009952502925988597
% es.normE (V/m) @ t=1.04
1.7981962758698233
% es.EX (V/m) @ t=1.04
-1.6539478240947243
% es.EY (V/m) @ t=1.04
0.12900640257870932
% es.EZ (V/m) @ t=1.04