% Model:              1 neuron.mph
% Version:            COMSOL 6.1.0.252
% Date:               Mar 18 2023, 12:32
% Dimension:          0
% Nodes:              14017
% Expressions:        14017
% Description:        Electric field norm, Electric field, X component, Electric field, Y component, Electric field, Z component, Tangential electric field, X component, Tangential electric field, Y component, Tangential electric field, Z component, Electric field, x component, Electric field, y component, Electric field, z component, Tangential electric field, x component, Tangential electric field, y component, Tangential electric field, z component, Electric potential
% Length unit:        mm
% x
1.3300000000000003
% y
12.200000000000001
% z
1.66
% es.normE (V/m) @ t=0
7.202153719102286
% es.EX (V/m) @ t=0
4.570482035774893
% es.EY (V/m) @ t=0
1.3667341282852463
% es.EZ (V/m) @ t=0
-5.0063615652856175
% es.tEX (V/m) @ t=0
4.570482035774875
% es.tEY (V/m) @ t=0
0
% es.tEZ (V/m) @ t=0
-5.006361565285603
% es.Ex (V/m) @ t=0
4.570482035774893
% es.Ey (V/m) @ t=0
1.3667341282852463
% es.Ez (V/m) @ t=0
-5.0063615652856175
% es.tEx (V/m) @ t=0
4.570482035774875
% es.tEy (V/m) @ t=0
0
% es.tEz (V/m) @ t=0
-5.006361565285603
% V (V) @ t=0
0.0061692114991850865
% es.normE (V/m) @ t=0.02
6.220588089072157
% es.EX (V/m) @ t=0.02
3.9475811499001376
% es.EY (V/m) @ t=0.02
1.1804649551206496
% es.EZ (V/m) @ t=0.02
-4.324055585128391
% es.tEX (V/m) @ t=0.02
3.9475811499001265
% es.tEY (V/m) @ t=0.02
0
% es.tEZ (V/m) @ t=0.02
-4.324055585128379
% es.Ex (V/m) @ t=0.02
3.9475811499001376
% es.Ey (V/m) @ t=0.02
1.1804649551206496
% es.Ez (V/m) @ t=0.02
-4.324055585128391
% es.tEx (V/m) @ t=0.02
3.9475811499001265
% es.tEy (V/m) @ t=0.02
0
% es.tEz (V/m) @ t=0.02
-4.324055585128379
% V (V) @ t=0.02
0.00532842323160957
% es.normE (V/m) @ t=0.04
6.277815147025761
% es.EX (V/m) @ t=0.04
3.9838974399130107
% es.EY (V/m) @ t=0.04
1.1913247931900508
% es.EZ (V/m) @ t=0.04
-4.363835234549895
% es.tEX (V/m) @ t=0.04
3.9838974399130014
% es.tEY (V/m) @ t=0.04
0
% es.tEZ (V/m) @ t=0.04
-4.363835234549888
% es.Ex (V/m) @ t=0.04
3.9838974399130107
% es.Ey (V/m) @ t=0.04
1.1913247931900508
% es.Ez (V/m) @ t=0.04
-4.363835234549895
% es.tEx (V/m) @ t=0.04
3.9838974399130014
% es.tEy (V/m) @ t=0.04
0
% es.tEz (V/m) @ t=0.04
-4.363835234549888
% V (V) @ t=0.04
0.005377442617336988
% es.normE (V/m) @ t=0.06
6.3355790327196555
% es.EX (V/m) @ t=0.06
4.020554377743281
% es.EY (V/m) @ t=0.06
1.202286499340852
% es.EZ (V/m) @ t=0.06
-4.4039880603795805
% es.tEX (V/m) @ t=0.06
4.020554377743279
% es.tEY (V/m) @ t=0.06
0
% es.tEZ (V/m) @ t=0.06
-4.40398806037957
% es.Ex (V/m) @ t=0.06
4.020554377743281
% es.Ey (V/m) @ t=0.06
1.202286499340852
% es.Ez (V/m) @ t=0.06
-4.4039880603795805
% es.tEx (V/m) @ t=0.06
4.020554377743279
% es.tEy (V/m) @ t=0.06
0
% es.tEz (V/m) @ t=0.06
-4.40398806037957
% V (V) @ t=0.06
0.005426921896464205
% es.normE (V/m) @ t=0.08
6.3941752231401106
% es.EX (V/m) @ t=0.08
4.05773949779473
% es.EY (V/m) @ t=0.08
1.2134061502276745
% es.EZ (V/m) @ t=0.08
-4.4447194363581595
% es.tEX (V/m) @ t=0.08
4.057739497794718
% es.tEY (V/m) @ t=0.08
0
% es.tEZ (V/m) @ t=0.08
-4.444719436358149
% es.Ex (V/m) @ t=0.08
4.05773949779473
% es.Ey (V/m) @ t=0.08
1.2134061502276745
% es.Ez (V/m) @ t=0.08
-4.4447194363581595
% es.tEx (V/m) @ t=0.08
4.057739497794718
% es.tEy (V/m) @ t=0.08
0
% es.tEz (V/m) @ t=0.08
-4.444719436358149
% V (V) @ t=0.08
0.005477114104447957
% es.normE (V/m) @ t=0.1
6.453451655345524
% es.EX (V/m) @ t=0.1
4.095356300624633
% es.EY (V/m) @ t=0.1
1.224654889182562
% es.EZ (V/m) @ t=0.1
-4.48592366077005
% es.tEX (V/m) @ t=0.1
4.095356300624632
% es.tEY (V/m) @ t=0.1
0
% es.tEZ (V/m) @ t=0.1
-4.485923660770046
% es.Ex (V/m) @ t=0.1
4.095356300624633
% es.Ey (V/m) @ t=0.1
1.224654889182562
% es.Ez (V/m) @ t=0.1
-4.48592366077005
% es.tEx (V/m) @ t=0.1
4.095356300624632
% es.tEy (V/m) @ t=0.1
0
% es.tEz (V/m) @ t=0.1
-4.485923660770046
% V (V) @ t=0.1
0.005527888988442589
% es.normE (V/m) @ t=0.12
6.512728087550936
% es.EX (V/m) @ t=0.12
4.132973103454544
% es.EY (V/m) @ t=0.12
1.2359036281374347
% es.EZ (V/m) @ t=0.12
-4.52712788518194
% es.tEX (V/m) @ t=0.12
4.132973103454535
% es.tEY (V/m) @ t=0.12
0
% es.tEZ (V/m) @ t=0.12
-4.527127885181925
% es.Ex (V/m) @ t=0.12
4.132973103454544
% es.Ey (V/m) @ t=0.12
1.2359036281374347
% es.Ez (V/m) @ t=0.12
-4.52712788518194
% es.tEx (V/m) @ t=0.12
4.132973103454535
% es.tEy (V/m) @ t=0.12
0
% es.tEz (V/m) @ t=0.12
-4.527127885181925
% V (V) @ t=0.12
0.005578663872437222
% es.normE (V/m) @ t=0.14
6.5723587901741825
% es.EX (V/m) @ t=0.14
4.170814711062349
% es.EY (V/m) @ t=0.14
1.247219593235306
% es.EZ (V/m) @ t=0.14
-4.568578381089362
% es.tEX (V/m) @ t=0.14
4.170814711062338
% es.tEY (V/m) @ t=0.14
0
% es.tEZ (V/m) @ t=0.14
-4.568578381089348
% es.Ex (V/m) @ t=0.14
4.170814711062349
% es.Ey (V/m) @ t=0.14
1.247219593235306
% es.Ez (V/m) @ t=0.14
-4.568578381089362
% es.tEx (V/m) @ t=0.14
4.170814711062338
% es.tEy (V/m) @ t=0.14
0
% es.tEz (V/m) @ t=0.14
-4.568578381089348
% V (V) @ t=0.14
0.005629742255332024
% es.normE (V/m) @ t=0.16
6.6348380574932
% es.EX (V/m) @ t=0.16
4.210463895372856
% es.EY (V/m) @ t=0.16
1.259076100269375
% es.EZ (V/m) @ t=0.16
-4.612009060078586
% es.tEX (V/m) @ t=0.16
4.21046389537284
% es.tEY (V/m) @ t=0.16
0
% es.tEZ (V/m) @ t=0.16
-4.612009060078575
% es.Ex (V/m) @ t=0.16
4.210463895372856
% es.Ey (V/m) @ t=0.16
1.259076100269375
% es.Ez (V/m) @ t=0.16
-4.612009060078586
% es.tEx (V/m) @ t=0.16
4.21046389537284
% es.tEy (V/m) @ t=0.16
0
% es.tEz (V/m) @ t=0.16
-4.612009060078575
% V (V) @ t=0.16
0.005683260966881872
% es.normE (V/m) @ t=0.18
6.697317324812227
% es.EX (V/m) @ t=0.18
4.250113079683352
% es.EY (V/m) @ t=0.18
1.2709326073034477
% es.EZ (V/m) @ t=0.18
-4.655439739067827
% es.tEX (V/m) @ t=0.18
4.250113079683341
% es.tEY (V/m) @ t=0.18
0
% es.tEZ (V/m) @ t=0.18
-4.655439739067816
% es.Ex (V/m) @ t=0.18
4.250113079683352
% es.Ey (V/m) @ t=0.18
1.2709326073034477
% es.Ez (V/m) @ t=0.18
-4.655439739067827
% es.tEx (V/m) @ t=0.18
4.250113079683341
% es.tEy (V/m) @ t=0.18
0
% es.tEz (V/m) @ t=0.18
-4.655439739067816
% V (V) @ t=0.18
0.005736779678431718
% es.normE (V/m) @ t=0.2
6.7597965921312575
% es.EX (V/m) @ t=0.2
4.289762263993852
% es.EY (V/m) @ t=0.2
1.282789114337529
% es.EZ (V/m) @ t=0.2
-4.698870418057065
% es.tEX (V/m) @ t=0.2
4.28976226399384
% es.tEY (V/m) @ t=0.2
0
% es.tEZ (V/m) @ t=0.2
-4.698870418057058
% es.Ex (V/m) @ t=0.2
4.289762263993852
% es.Ey (V/m) @ t=0.2
1.282789114337529
% es.Ez (V/m) @ t=0.2
-4.698870418057065
% es.tEx (V/m) @ t=0.2
4.28976226399384
% es.tEy (V/m) @ t=0.2
0
% es.tEz (V/m) @ t=0.2
-4.698870418057058
% V (V) @ t=0.2
0.005790298389981566
% es.normE (V/m) @ t=0.22
6.822275859450292
% es.EX (V/m) @ t=0.22
4.329411448304361
% es.EY (V/m) @ t=0.22
1.2946456213715962
% es.EZ (V/m) @ t=0.22
-4.742301097046292
% es.tEX (V/m) @ t=0.22
4.329411448304345
% es.tEY (V/m) @ t=0.22
0
% es.tEZ (V/m) @ t=0.22
-4.7423010970462816
% es.Ex (V/m) @ t=0.22
4.329411448304361
% es.Ey (V/m) @ t=0.22
1.2946456213715962
% es.Ez (V/m) @ t=0.22
-4.742301097046292
% es.tEx (V/m) @ t=0.22
4.329411448304345
% es.tEy (V/m) @ t=0.22
0
% es.tEz (V/m) @ t=0.22
-4.7423010970462816
% V (V) @ t=0.22
0.005843817101531412
% es.normE (V/m) @ t=0.24
6.884755126769335
% es.EX (V/m) @ t=0.24
4.369060632614854
% es.EY (V/m) @ t=0.24
1.3065021284056957
% es.EZ (V/m) @ t=0.24
-4.78573177603554
% es.tEX (V/m) @ t=0.24
4.3690606326148425
% es.tEY (V/m) @ t=0.24
0
% es.tEZ (V/m) @ t=0.24
-4.7857317760355365
% es.Ex (V/m) @ t=0.24
4.369060632614854
% es.Ey (V/m) @ t=0.24
1.3065021284056957
% es.Ez (V/m) @ t=0.24
-4.78573177603554
% es.tEx (V/m) @ t=0.24
4.3690606326148425
% es.tEy (V/m) @ t=0.24
0
% es.tEz (V/m) @ t=0.24
-4.7857317760355365
% V (V) @ t=0.24
0.00589733581308126
% es.normE (V/m) @ t=0.26
6.947234394088364
% es.EX (V/m) @ t=0.26
4.4087098169253505
% es.EY (V/m) @ t=0.26
1.3183586354397503
% es.EZ (V/m) @ t=0.26
-4.829162455024767
% es.tEX (V/m) @ t=0.26
4.408709816925341
% es.tEY (V/m) @ t=0.26
0
% es.tEZ (V/m) @ t=0.26
-4.82916245502476
% es.Ex (V/m) @ t=0.26
4.4087098169253505
% es.Ey (V/m) @ t=0.26
1.3183586354397503
% es.Ez (V/m) @ t=0.26
-4.829162455024767
% es.tEx (V/m) @ t=0.26
4.408709816925341
% es.tEy (V/m) @ t=0.26
0
% es.tEz (V/m) @ t=0.26
-4.82916245502476
% V (V) @ t=0.26
0.005950854524631109
% es.normE (V/m) @ t=0.28
7.011384536528824
% es.EX (V/m) @ t=0.28
4.449418469048025
% es.EY (V/m) @ t=0.28
1.3305320555459232
% es.EZ (V/m) @ t=0.28
-4.873755230333768
% es.tEX (V/m) @ t=0.28
4.449418469048024
% es.tEY (V/m) @ t=0.28
0
% es.tEZ (V/m) @ t=0.28
-4.873755230333754
% es.Ex (V/m) @ t=0.28
4.449418469048025
% es.Ey (V/m) @ t=0.28
1.3305320555459232
% es.Ez (V/m) @ t=0.28
-4.873755230333768
% es.tEx (V/m) @ t=0.28
4.449418469048024
% es.tEy (V/m) @ t=0.28
0
% es.tEz (V/m) @ t=0.28
-4.873755230333754
% V (V) @ t=0.28
0.006005806696741974
% es.normE (V/m) @ t=0.3
7.081087643814907
% es.EX (V/m) @ t=0.3
4.493648142842563
% es.EY (V/m) @ t=0.3
1.343758700471217
% es.EZ (V/m) @ t=0.3
-4.922210101573997
% es.tEX (V/m) @ t=0.3
4.49364814284256
% es.tEY (V/m) @ t=0.3
0
% es.tEZ (V/m) @ t=0.3
-4.922210101573986
% es.Ex (V/m) @ t=0.3
4.493648142842563
% es.Ey (V/m) @ t=0.3
1.343758700471217
% es.Ez (V/m) @ t=0.3
-4.922210101573997
% es.tEx (V/m) @ t=0.3
4.49364814284256
% es.tEy (V/m) @ t=0.3
0
% es.tEz (V/m) @ t=0.3
-4.922210101573986
% V (V) @ t=0.3
0.006065522813205965
% es.normE (V/m) @ t=0.32
7.150790751104952
% es.EX (V/m) @ t=0.32
4.5378778166371045
% es.EY (V/m) @ t=0.32
1.3569853453965535
% es.EZ (V/m) @ t=0.32
-4.970664972814221
% es.tEX (V/m) @ t=0.32
4.537877816637094
% es.tEY (V/m) @ t=0.32
0
% es.tEZ (V/m) @ t=0.32
-4.970664972814214
% es.Ex (V/m) @ t=0.32
4.5378778166371045
% es.Ey (V/m) @ t=0.32
1.3569853453965535
% es.Ez (V/m) @ t=0.32
-4.970664972814221
% es.tEx (V/m) @ t=0.32
4.537877816637094
% es.tEy (V/m) @ t=0.32
0
% es.tEz (V/m) @ t=0.32
-4.970664972814214
% V (V) @ t=0.32
0.0061252389296699555
% es.normE (V/m) @ t=0.34
7.220493858398812
% es.EX (V/m) @ t=0.34
4.5821074904316355
% es.EY (V/m) @ t=0.34
1.3702119903218686
% es.EZ (V/m) @ t=0.34
-5.019119844054436
% es.tEX (V/m) @ t=0.34
4.582107490431623
% es.tEY (V/m) @ t=0.34
0
% es.tEZ (V/m) @ t=0.34
-5.019119844054429
% es.Ex (V/m) @ t=0.34
4.5821074904316355
% es.Ey (V/m) @ t=0.34
1.3702119903218686
% es.Ez (V/m) @ t=0.34
-5.019119844054436
% es.tEx (V/m) @ t=0.34
4.582107490431623
% es.tEy (V/m) @ t=0.34
0
% es.tEz (V/m) @ t=0.34
-5.019119844054429
% V (V) @ t=0.34
0.006184955046133946
% es.normE (V/m) @ t=0.36
7.2901969656964285
% es.EX (V/m) @ t=0.36
4.6263371642261895
% es.EY (V/m) @ t=0.36
1.3834386352471923
% es.EZ (V/m) @ t=0.36
-5.067574715294668
% es.tEX (V/m) @ t=0.36
4.626337164226174
% es.tEY (V/m) @ t=0.36
0
% es.tEZ (V/m) @ t=0.36
-5.067574715294654
% es.Ex (V/m) @ t=0.36
4.6263371642261895
% es.Ey (V/m) @ t=0.36
1.3834386352471923
% es.Ez (V/m) @ t=0.36
-5.067574715294668
% es.tEx (V/m) @ t=0.36
4.626337164226174
% es.tEy (V/m) @ t=0.36
0
% es.tEz (V/m) @ t=0.36
-5.067574715294654
% V (V) @ t=0.36
0.006244671162597936
% es.normE (V/m) @ t=0.38
7.359900072997647
% es.EX (V/m) @ t=0.38
4.670566838020717
% es.EY (V/m) @ t=0.38
1.3966652801724988
% es.EZ (V/m) @ t=0.38
-5.116029586534896
% es.tEX (V/m) @ t=0.38
4.6705668380207115
% es.tEY (V/m) @ t=0.38
0
% es.tEZ (V/m) @ t=0.38
-5.116029586534886
% es.Ex (V/m) @ t=0.38
4.670566838020717
% es.Ey (V/m) @ t=0.38
1.3966652801724988
% es.Ez (V/m) @ t=0.38
-5.116029586534896
% es.tEx (V/m) @ t=0.38
4.6705668380207115
% es.tEy (V/m) @ t=0.38
0
% es.tEz (V/m) @ t=0.38
-5.116029586534886
% V (V) @ t=0.38
0.006304387279061927
% es.normE (V/m) @ t=0.4
7.429603180302397
% es.EX (V/m) @ t=0.4
4.7147965118152655
% es.EY (V/m) @ t=0.4
1.409891925097812
% es.EZ (V/m) @ t=0.4
-5.1644844577751226
% es.tEX (V/m) @ t=0.4
4.714796511815255
% es.tEY (V/m) @ t=0.4
0
% es.tEZ (V/m) @ t=0.4
-5.164484457775115
% es.Ex (V/m) @ t=0.4
4.7147965118152655
% es.Ey (V/m) @ t=0.4
1.409891925097812
% es.Ez (V/m) @ t=0.4
-5.1644844577751226
% es.tEx (V/m) @ t=0.4
4.714796511815255
% es.tEy (V/m) @ t=0.4
0
% es.tEz (V/m) @ t=0.4
-5.164484457775115
% V (V) @ t=0.4
0.006364103395525919
% es.normE (V/m) @ t=0.42
7.499306287610549
% es.EX (V/m) @ t=0.42
4.759026185609794
% es.EY (V/m) @ t=0.42
1.423118570023122
% es.EZ (V/m) @ t=0.42
-5.212939329015347
% es.tEX (V/m) @ t=0.42
4.75902618560978
% es.tEY (V/m) @ t=0.42
0
% es.tEZ (V/m) @ t=0.42
-5.212939329015333
% es.Ex (V/m) @ t=0.42
4.759026185609794
% es.Ey (V/m) @ t=0.42
1.423118570023122
% es.Ez (V/m) @ t=0.42
-5.212939329015347
% es.tEx (V/m) @ t=0.42
4.75902618560978
% es.tEy (V/m) @ t=0.42
0
% es.tEz (V/m) @ t=0.42
-5.212939329015333
% V (V) @ t=0.42
0.006423819511989908
% es.normE (V/m) @ t=0.44
7.569009394922036
% es.EX (V/m) @ t=0.44
4.803255859404336
% es.EY (V/m) @ t=0.44
1.4363452149484404
% es.EZ (V/m) @ t=0.44
-5.261394200255569
% es.tEX (V/m) @ t=0.44
4.803255859404318
% es.tEY (V/m) @ t=0.44
0
% es.tEZ (V/m) @ t=0.44
-5.2613942002555545
% es.Ex (V/m) @ t=0.44
4.803255859404336
% es.Ey (V/m) @ t=0.44
1.4363452149484404
% es.Ez (V/m) @ t=0.44
-5.261394200255569
% es.tEx (V/m) @ t=0.44
4.803255859404318
% es.tEy (V/m) @ t=0.44
0
% es.tEz (V/m) @ t=0.44
-5.2613942002555545
% V (V) @ t=0.44
0.006483535628453899
% es.normE (V/m) @ t=0.46
7.638712502236766
% es.EX (V/m) @ t=0.46
4.847485533198874
% es.EY (V/m) @ t=0.46
1.4495718598737573
% es.EZ (V/m) @ t=0.46
-5.3098490714957975
% es.tEX (V/m) @ t=0.46
4.847485533198862
% es.tEY (V/m) @ t=0.46
0
% es.tEZ (V/m) @ t=0.46
-5.309849071495786
% es.Ex (V/m) @ t=0.46
4.847485533198874
% es.Ey (V/m) @ t=0.46
1.4495718598737573
% es.Ez (V/m) @ t=0.46
-5.3098490714957975
% es.tEx (V/m) @ t=0.46
4.847485533198862
% es.tEy (V/m) @ t=0.46
0
% es.tEz (V/m) @ t=0.46
-5.309849071495786
% V (V) @ t=0.46
0.0065432517449178895
% es.normE (V/m) @ t=0.48
7.708415609554633
% es.EX (V/m) @ t=0.48
4.891715206993411
% es.EY (V/m) @ t=0.48
1.462798504799083
% es.EZ (V/m) @ t=0.48
-5.358303942736029
% es.tEX (V/m) @ t=0.48
4.891715206993402
% es.tEY (V/m) @ t=0.48
0
% es.tEZ (V/m) @ t=0.48
-5.358303942736015
% es.Ex (V/m) @ t=0.48
4.891715206993411
% es.Ey (V/m) @ t=0.48
1.462798504799083
% es.Ez (V/m) @ t=0.48
-5.358303942736029
% es.tEx (V/m) @ t=0.48
4.891715206993402
% es.tEy (V/m) @ t=0.48
0
% es.tEz (V/m) @ t=0.48
-5.358303942736015
% V (V) @ t=0.48
0.00660296786138188
% es.normE (V/m) @ t=0.5
7.778118716875566
% es.EX (V/m) @ t=0.5
4.9359448807879405
% es.EY (V/m) @ t=0.5
1.476025149724391
% es.EZ (V/m) @ t=0.5
-5.406758813976258
% es.tEX (V/m) @ t=0.5
4.935944880787938
% es.tEY (V/m) @ t=0.5
0
% es.tEZ (V/m) @ t=0.5
-5.406758813976244
% es.Ex (V/m) @ t=0.5
4.9359448807879405
% es.Ey (V/m) @ t=0.5
1.476025149724391
% es.Ez (V/m) @ t=0.5
-5.406758813976258
% es.tEx (V/m) @ t=0.5
4.935944880787938
% es.tEy (V/m) @ t=0.5
0
% es.tEz (V/m) @ t=0.5
-5.406758813976244
% V (V) @ t=0.5
0.006662683977845869
% es.normE (V/m) @ t=0.52
7.847821824199482
% es.EX (V/m) @ t=0.52
4.980174554582479
% es.EY (V/m) @ t=0.52
1.4892517946497292
% es.EZ (V/m) @ t=0.52
-5.455213685216483
% es.tEX (V/m) @ t=0.52
4.980174554582464
% es.tEY (V/m) @ t=0.52
0
% es.tEZ (V/m) @ t=0.52
-5.455213685216468
% es.Ex (V/m) @ t=0.52
4.980174554582479
% es.Ey (V/m) @ t=0.52
1.4892517946497292
% es.Ez (V/m) @ t=0.52
-5.455213685216483
% es.tEx (V/m) @ t=0.52
4.980174554582464
% es.tEy (V/m) @ t=0.52
0
% es.tEz (V/m) @ t=0.52
-5.455213685216468
% V (V) @ t=0.52
0.00672240009430986
% es.normE (V/m) @ t=0.54
7.917524931526305
% es.EX (V/m) @ t=0.54
5.0244042283770245
% es.EY (V/m) @ t=0.54
1.5024784395750337
% es.EZ (V/m) @ t=0.54
-5.503668556456708
% es.tEX (V/m) @ t=0.54
5.0244042283770085
% es.tEY (V/m) @ t=0.54
0
% es.tEZ (V/m) @ t=0.54
-5.503668556456693
% es.Ex (V/m) @ t=0.54
5.0244042283770245
% es.Ey (V/m) @ t=0.54
1.5024784395750337
% es.Ez (V/m) @ t=0.54
-5.503668556456708
% es.tEx (V/m) @ t=0.54
5.0244042283770085
% es.tEy (V/m) @ t=0.54
0
% es.tEz (V/m) @ t=0.54
-5.503668556456693
% V (V) @ t=0.54
0.006782116210773851
% es.normE (V/m) @ t=0.56
7.9910846634139325
% es.EX (V/m) @ t=0.56
5.07108785761185
% es.EY (V/m) @ t=0.56
1.5164381868704235
% es.EZ (V/m) @ t=0.56
-5.554799441320312
% es.tEX (V/m) @ t=0.56
5.071087857611847
% es.tEY (V/m) @ t=0.56
0
% es.tEZ (V/m) @ t=0.56
-5.554799441320298
% es.Ex (V/m) @ t=0.56
5.07108785761185
% es.Ey (V/m) @ t=0.56
1.5164381868704235
% es.Ez (V/m) @ t=0.56
-5.554799441320312
% es.tEx (V/m) @ t=0.56
5.071087857611847
% es.tEy (V/m) @ t=0.56
0
% es.tEz (V/m) @ t=0.56
-5.554799441320298
% V (V) @ t=0.56
0.006845119067414355
% es.normE (V/m) @ t=0.58
8.068946876223087
% es.EX (V/m) @ t=0.58
5.120509138971348
% es.EY (V/m) @ t=0.58
1.5312157889761178
% es.EZ (V/m) @ t=0.58
-5.60891570817634
% es.tEX (V/m) @ t=0.58
5.120509138971335
% es.tEY (V/m) @ t=0.58
0
% es.tEZ (V/m) @ t=0.58
-5.608915708176326
% es.Ex (V/m) @ t=0.58
5.120509138971348
% es.Ey (V/m) @ t=0.58
1.5312157889761178
% es.Ez (V/m) @ t=0.58
-5.60891570817634
% es.tEx (V/m) @ t=0.58
5.120509138971335
% es.tEy (V/m) @ t=0.58
0
% es.tEz (V/m) @ t=0.58
-5.608915708176326
% V (V) @ t=0.58
0.006911788637426939
% es.normE (V/m) @ t=0.6
8.146809089057722
% es.EX (V/m) @ t=0.6
5.169930420330832
% es.EY (V/m) @ t=0.6
1.5459933910817825
% es.EZ (V/m) @ t=0.6
-5.663031975032364
% es.tEX (V/m) @ t=0.6
5.1699304203308225
% es.tEY (V/m) @ t=0.6
0
% es.tEZ (V/m) @ t=0.6
-5.663031975032356
% es.Ex (V/m) @ t=0.6
5.169930420330832
% es.Ey (V/m) @ t=0.6
1.5459933910817825
% es.Ez (V/m) @ t=0.6
-5.663031975032364
% es.tEx (V/m) @ t=0.6
5.1699304203308225
% es.tEy (V/m) @ t=0.6
0
% es.tEz (V/m) @ t=0.6
-5.663031975032356
% V (V) @ t=0.6
0.0069784582074395194
% es.normE (V/m) @ t=0.62
8.224671301917118
% es.EX (V/m) @ t=0.62
5.2193517016903375
% es.EY (V/m) @ t=0.62
1.5607709931874612
% es.EZ (V/m) @ t=0.62
-5.717148241888406
% es.tEX (V/m) @ t=0.62
5.219351701690336
% es.tEY (V/m) @ t=0.62
0
% es.tEZ (V/m) @ t=0.62
-5.717148241888392
% es.Ex (V/m) @ t=0.62
5.2193517016903375
% es.Ey (V/m) @ t=0.62
1.5607709931874612
% es.Ez (V/m) @ t=0.62
-5.717148241888406
% es.tEx (V/m) @ t=0.62
5.219351701690336
% es.tEy (V/m) @ t=0.62
0
% es.tEz (V/m) @ t=0.62
-5.717148241888392
% V (V) @ t=0.62
0.0070451277774521035
% es.normE (V/m) @ t=0.64
8.302533514800562
% es.EX (V/m) @ t=0.64
5.268772983049832
% es.EY (V/m) @ t=0.64
1.5755485952931259
% es.EZ (V/m) @ t=0.64
-5.771264508744441
% es.tEX (V/m) @ t=0.64
5.268772983049816
% es.tEY (V/m) @ t=0.64
0
% es.tEZ (V/m) @ t=0.64
-5.7712645087444265
% es.Ex (V/m) @ t=0.64
5.268772983049832
% es.Ey (V/m) @ t=0.64
1.5755485952931259
% es.Ez (V/m) @ t=0.64
-5.771264508744441
% es.tEx (V/m) @ t=0.64
5.268772983049816
% es.tEy (V/m) @ t=0.64
0
% es.tEz (V/m) @ t=0.64
-5.7712645087444265
% V (V) @ t=0.64
0.007111797347464688
% es.normE (V/m) @ t=0.66
8.380395727707379
% es.EX (V/m) @ t=0.66
5.318194264409323
% es.EY (V/m) @ t=0.66
1.5903261973988045
% es.EZ (V/m) @ t=0.66
-5.825380775600461
% es.tEX (V/m) @ t=0.66
5.318194264409314
% es.tEY (V/m) @ t=0.66
0
% es.tEZ (V/m) @ t=0.66
-5.825380775600447
% es.Ex (V/m) @ t=0.66
5.318194264409323
% es.Ey (V/m) @ t=0.66
1.5903261973988045
% es.Ez (V/m) @ t=0.66
-5.825380775600461
% es.tEx (V/m) @ t=0.66
5.318194264409314
% es.tEy (V/m) @ t=0.66
0
% es.tEz (V/m) @ t=0.66
-5.825380775600447
% V (V) @ t=0.66
0.00717846691747727
% es.normE (V/m) @ t=0.68
8.458257940636951
% es.EX (V/m) @ t=0.68
5.367615545768815
% es.EY (V/m) @ t=0.68
1.6051037995044832
% es.EZ (V/m) @ t=0.68
-5.8794970424565065
% es.tEX (V/m) @ t=0.68
5.367615545768798
% es.tEY (V/m) @ t=0.68
0
% es.tEZ (V/m) @ t=0.68
-5.879497042456499
% es.Ex (V/m) @ t=0.68
5.367615545768815
% es.Ey (V/m) @ t=0.68
1.6051037995044832
% es.Ez (V/m) @ t=0.68
-5.8794970424565065
% es.tEx (V/m) @ t=0.68
5.367615545768798
% es.tEy (V/m) @ t=0.68
0
% es.tEz (V/m) @ t=0.68
-5.879497042456499
% V (V) @ t=0.68
0.007245136487489854
% es.normE (V/m) @ t=0.7
8.536120153588627
% es.EX (V/m) @ t=0.7
5.417036827128302
% es.EY (V/m) @ t=0.7
1.6198814016101624
% es.EZ (V/m) @ t=0.7
-5.933613309312527
% es.tEX (V/m) @ t=0.7
5.4170368271282925
% es.tEY (V/m) @ t=0.7
0
% es.tEZ (V/m) @ t=0.7
-5.933613309312513
% es.Ex (V/m) @ t=0.7
5.417036827128302
% es.Ey (V/m) @ t=0.7
1.6198814016101624
% es.Ez (V/m) @ t=0.7
-5.933613309312527
% es.tEx (V/m) @ t=0.7
5.4170368271282925
% es.tEy (V/m) @ t=0.7
0
% es.tEz (V/m) @ t=0.7
-5.933613309312513
% V (V) @ t=0.7
0.0073118060575024365
% es.normE (V/m) @ t=0.72
8.613982366561821
% es.EX (V/m) @ t=0.72
5.466458108487801
% es.EY (V/m) @ t=0.72
1.634659003715841
% es.EZ (V/m) @ t=0.72
-5.9877295761685545
% es.tEX (V/m) @ t=0.72
5.466458108487784
% es.tEY (V/m) @ t=0.72
0
% es.tEZ (V/m) @ t=0.72
-5.987729576168547
% es.Ex (V/m) @ t=0.72
5.466458108487801
% es.Ey (V/m) @ t=0.72
1.634659003715841
% es.Ez (V/m) @ t=0.72
-5.9877295761685545
% es.tEx (V/m) @ t=0.72
5.466458108487784
% es.tEy (V/m) @ t=0.72
0
% es.tEz (V/m) @ t=0.72
-5.987729576168547
% V (V) @ t=0.72
0.007378475627515021
% es.normE (V/m) @ t=0.74
8.691844579555951
% es.EX (V/m) @ t=0.74
5.515879389847289
% es.EY (V/m) @ t=0.74
1.649436605821502
% es.EZ (V/m) @ t=0.74
-6.041845843024583
% es.tEX (V/m) @ t=0.74
5.515879389847273
% es.tEY (V/m) @ t=0.74
0
% es.tEZ (V/m) @ t=0.74
-6.041845843024561
% es.Ex (V/m) @ t=0.74
5.515879389847289
% es.Ey (V/m) @ t=0.74
1.649436605821502
% es.Ez (V/m) @ t=0.74
-6.041845843024583
% es.tEx (V/m) @ t=0.74
5.515879389847273
% es.tEy (V/m) @ t=0.74
0
% es.tEz (V/m) @ t=0.74
-6.041845843024561
% V (V) @ t=0.74
0.007445145197527603
% es.normE (V/m) @ t=0.76
8.769706792570458
% es.EX (V/m) @ t=0.76
5.5653006712067725
% es.EY (V/m) @ t=0.76
1.66421420792717
% es.EZ (V/m) @ t=0.76
-6.095962109880618
% es.tEX (V/m) @ t=0.76
5.565300671206767
% es.tEY (V/m) @ t=0.76
0
% es.tEZ (V/m) @ t=0.76
-6.095962109880606
% es.Ex (V/m) @ t=0.76
5.5653006712067725
% es.Ey (V/m) @ t=0.76
1.66421420792717
% es.Ez (V/m) @ t=0.76
-6.095962109880618
% es.tEx (V/m) @ t=0.76
5.565300671206767
% es.tEy (V/m) @ t=0.76
0
% es.tEz (V/m) @ t=0.76
-6.095962109880606
% V (V) @ t=0.76
0.007511814767540185
% es.normE (V/m) @ t=0.78
8.847569005604832
% es.EX (V/m) @ t=0.78
5.614721952566278
% es.EY (V/m) @ t=0.78
1.6789918100328522
% es.EZ (V/m) @ t=0.78
-6.150078376736649
% es.tEX (V/m) @ t=0.78
5.614721952566262
% es.tEY (V/m) @ t=0.78
0
% es.tEZ (V/m) @ t=0.78
-6.1500783767366345
% es.Ex (V/m) @ t=0.78
5.614721952566278
% es.Ey (V/m) @ t=0.78
1.6789918100328522
% es.Ez (V/m) @ t=0.78
-6.150078376736649
% es.tEx (V/m) @ t=0.78
5.614721952566262
% es.tEy (V/m) @ t=0.78
0
% es.tEz (V/m) @ t=0.78
-6.1500783767366345
% V (V) @ t=0.78
0.0075784843375527695
% es.normE (V/m) @ t=0.8
8.925431218658513
% es.EX (V/m) @ t=0.8
5.664143233925772
% es.EY (V/m) @ t=0.8
1.6937694121385167
% es.EZ (V/m) @ t=0.8
-6.20419464359268
% es.tEX (V/m) @ t=0.8
5.664143233925763
% es.tEY (V/m) @ t=0.8
0
% es.tEZ (V/m) @ t=0.8
-6.204194643592673
% es.Ex (V/m) @ t=0.8
5.664143233925772
% es.Ey (V/m) @ t=0.8
1.6937694121385167
% es.Ez (V/m) @ t=0.8
-6.20419464359268
% es.tEx (V/m) @ t=0.8
5.664143233925763
% es.tEy (V/m) @ t=0.8
0
% es.tEz (V/m) @ t=0.8
-6.204194643592673
% V (V) @ t=0.8
0.007645153907565352
% es.normE (V/m) @ t=0.82
9.003293431731011
% es.EX (V/m) @ t=0.82
5.713564515285259
% es.EY (V/m) @ t=0.82
1.7085470142441954
% es.EZ (V/m) @ t=0.82
-6.258310910448701
% es.tEX (V/m) @ t=0.82
5.713564515285247
% es.tEY (V/m) @ t=0.82
0
% es.tEZ (V/m) @ t=0.82
-6.258310910448686
% es.Ex (V/m) @ t=0.82
5.713564515285259
% es.Ey (V/m) @ t=0.82
1.7085470142441954
% es.Ez (V/m) @ t=0.82
-6.258310910448701
% es.tEx (V/m) @ t=0.82
5.713564515285247
% es.tEy (V/m) @ t=0.82
0
% es.tEz (V/m) @ t=0.82
-6.258310910448686
% V (V) @ t=0.82
0.007711823477577934
% es.normE (V/m) @ t=0.84
9.087836256941532
% es.EX (V/m) @ t=0.84
5.767213461695924
% es.EY (V/m) @ t=0.84
1.7245901321369943
% es.EZ (V/m) @ t=0.84
-6.31707970071548
% es.tEX (V/m) @ t=0.84
5.767213461695909
% es.tEY (V/m) @ t=0.84
0
% es.tEZ (V/m) @ t=0.84
-6.31707970071548
% es.Ex (V/m) @ t=0.84
5.767213461695924
% es.Ey (V/m) @ t=0.84
1.7245901321369943
% es.Ez (V/m) @ t=0.84
-6.31707970071548
% es.tEx (V/m) @ t=0.84
5.767213461695909
% es.tEy (V/m) @ t=0.84
0
% es.tEz (V/m) @ t=0.84
-6.31707970071548
% V (V) @ t=0.84
0.007784245864810237
% es.normE (V/m) @ t=0.86
9.175054353914899
% es.EX (V/m) @ t=0.86
5.822555389629714
% es.EY (V/m) @ t=0.86
1.741140029734185
% es.EZ (V/m) @ t=0.86
-6.3777116083472585
% es.tEX (V/m) @ t=0.86
5.822555389629702
% es.tEY (V/m) @ t=0.86
0
% es.tEZ (V/m) @ t=0.86
-6.377711608347251
% es.Ex (V/m) @ t=0.86
5.822555389629714
% es.Ey (V/m) @ t=0.86
1.741140029734185
% es.Ez (V/m) @ t=0.86
-6.3777116083472585
% es.tEx (V/m) @ t=0.86
5.822555389629702
% es.tEy (V/m) @ t=0.86
0
% es.tEz (V/m) @ t=0.86
-6.377711608347251
% V (V) @ t=0.86
0.007858971985460629
% es.normE (V/m) @ t=0.88
9.262272450899438
% es.EX (V/m) @ t=0.88
5.877897317563509
% es.EY (V/m) @ t=0.88
1.7576899273313682
% es.EZ (V/m) @ t=0.88
-6.4383435159790565
% es.tEX (V/m) @ t=0.88
5.8778973175635
% es.tEY (V/m) @ t=0.88
0
% es.tEZ (V/m) @ t=0.88
-6.438343515979034
% es.Ex (V/m) @ t=0.88
5.877897317563509
% es.Ey (V/m) @ t=0.88
1.7576899273313682
% es.Ez (V/m) @ t=0.88
-6.4383435159790565
% es.tEx (V/m) @ t=0.88
5.8778973175635
% es.tEy (V/m) @ t=0.88
0
% es.tEz (V/m) @ t=0.88
-6.438343515979034
% V (V) @ t=0.88
0.007933698106111019
% es.normE (V/m) @ t=0.9
9.34949054789479
% es.EX (V/m) @ t=0.9
5.933239245497296
% es.EY (V/m) @ t=0.9
1.7742398249285163
% es.EZ (V/m) @ t=0.9
-6.4989754236108315
% es.tEX (V/m) @ t=0.9
5.933239245497286
% es.tEY (V/m) @ t=0.9
0
% es.tEZ (V/m) @ t=0.9
-6.49897542361081
% es.Ex (V/m) @ t=0.9
5.933239245497296
% es.Ey (V/m) @ t=0.9
1.7742398249285163
% es.Ez (V/m) @ t=0.9
-6.4989754236108315
% es.tEx (V/m) @ t=0.9
5.933239245497286
% es.tEy (V/m) @ t=0.9
0
% es.tEz (V/m) @ t=0.9
-6.49897542361081
% V (V) @ t=0.9
0.008008424226761408
% es.normE (V/m) @ t=0.92
9.436708644900687
% es.EX (V/m) @ t=0.92
5.988581173431097
% es.EY (V/m) @ t=0.92
1.7907897225256857
% es.EZ (V/m) @ t=0.92
-6.559607331242594
% es.tEX (V/m) @ t=0.92
5.988581173431081
% es.tEY (V/m) @ t=0.92
0
% es.tEZ (V/m) @ t=0.92
-6.559607331242573
% es.Ex (V/m) @ t=0.92
5.988581173431097
% es.Ey (V/m) @ t=0.92
1.7907897225256857
% es.Ez (V/m) @ t=0.92
-6.559607331242594
% es.tEx (V/m) @ t=0.92
5.988581173431081
% es.tEy (V/m) @ t=0.92
0
% es.tEz (V/m) @ t=0.92
-6.559607331242573
% V (V) @ t=0.92
0.0080831503474118
% es.normE (V/m) @ t=0.94
9.523926741916846
% es.EX (V/m) @ t=0.94
6.043923101364902
% es.EY (V/m) @ t=0.94
1.8073396201228693
% es.EZ (V/m) @ t=0.94
-6.620239238874366
% es.tEX (V/m) @ t=0.94
6.043923101364888
% es.tEY (V/m) @ t=0.94
0
% es.tEZ (V/m) @ t=0.94
-6.620239238874344
% es.Ex (V/m) @ t=0.94
6.043923101364902
% es.Ey (V/m) @ t=0.94
1.8073396201228693
% es.Ez (V/m) @ t=0.94
-6.620239238874366
% es.tEx (V/m) @ t=0.94
6.043923101364888
% es.tEy (V/m) @ t=0.94
0
% es.tEz (V/m) @ t=0.94
-6.620239238874344
% V (V) @ t=0.94
0.00815787646806219
% es.normE (V/m) @ t=0.96
9.611144838942968
% es.EX (V/m) @ t=0.96
6.099265029298688
% es.EY (V/m) @ t=0.96
1.823889517720053
% es.EZ (V/m) @ t=0.96
-6.680871146506142
% es.tEX (V/m) @ t=0.96
6.0992650292986745
% es.tEY (V/m) @ t=0.96
0
% es.tEZ (V/m) @ t=0.96
-6.680871146506127
% es.Ex (V/m) @ t=0.96
6.099265029298688
% es.Ey (V/m) @ t=0.96
1.823889517720053
% es.Ez (V/m) @ t=0.96
-6.680871146506142
% es.tEx (V/m) @ t=0.96
6.0992650292986745
% es.tEy (V/m) @ t=0.96
0
% es.tEz (V/m) @ t=0.96
-6.680871146506127
% V (V) @ t=0.96
0.00823260258871258
% es.normE (V/m) @ t=0.98
9.698362935978793
% es.EX (V/m) @ t=0.98
6.154606957232473
% es.EY (V/m) @ t=0.98
1.8404394153172254
% es.EZ (V/m) @ t=0.98
-6.741503054137925
% es.tEX (V/m) @ t=0.98
6.1546069572324615
% es.tEY (V/m) @ t=0.98
0
% es.tEZ (V/m) @ t=0.98
-6.741503054137903
% es.Ex (V/m) @ t=0.98
6.154606957232473
% es.Ey (V/m) @ t=0.98
1.8404394153172254
% es.Ez (V/m) @ t=0.98
-6.741503054137925
% es.tEx (V/m) @ t=0.98
6.1546069572324615
% es.tEy (V/m) @ t=0.98
0
% es.tEz (V/m) @ t=0.98
-6.741503054137903
% V (V) @ t=0.98
0.00830732870936297
% es.normE (V/m) @ t=1
9.785581033024066
% es.EX (V/m) @ t=1
6.20994888516626
% es.EY (V/m) @ t=1
1.8569893129143948
% es.EZ (V/m) @ t=1
-6.802134961769708
% es.tEX (V/m) @ t=1
6.209948885166245
% es.tEY (V/m) @ t=1
0
% es.tEZ (V/m) @ t=1
-6.802134961769694
% es.Ex (V/m) @ t=1
6.20994888516626
% es.Ey (V/m) @ t=1
1.8569893129143948
% es.Ez (V/m) @ t=1
-6.802134961769708
% es.tEx (V/m) @ t=1
6.209948885166245
% es.tEy (V/m) @ t=1
0
% es.tEz (V/m) @ t=1
-6.802134961769694
% V (V) @ t=1
0.00838205483001336
% es.normE (V/m) @ t=1.02
9.87279913007853
% es.EX (V/m) @ t=1.02
6.265290813100061
% es.EY (V/m) @ t=1.02
1.8735392105115745
% es.EZ (V/m) @ t=1.02
-6.862766869401473
% es.tEX (V/m) @ t=1.02
6.2652908131000284
% es.tEY (V/m) @ t=1.02
0
% es.tEZ (V/m) @ t=1.02
-6.862766869401466
% es.Ex (V/m) @ t=1.02
6.265290813100061
% es.Ey (V/m) @ t=1.02
1.8735392105115745
% es.Ez (V/m) @ t=1.02
-6.862766869401473
% es.tEx (V/m) @ t=1.02
6.2652908131000284
% es.tEy (V/m) @ t=1.02
0
% es.tEz (V/m) @ t=1.02
-6.862766869401466
% V (V) @ t=1.02
0.00845678095066375
% es.normE (V/m) @ t=1.04
9.960017227141943
% es.EX (V/m) @ t=1.04
6.320632741033858
% es.EY (V/m) @ t=1.04
1.890089108108726
% es.EZ (V/m) @ t=1.04
-6.923398777033253
% es.tEX (V/m) @ t=1.04
6.320632741033847
% es.tEY (V/m) @ t=1.04
0
% es.tEZ (V/m) @ t=1.04
-6.923398777033238
% es.Ex (V/m) @ t=1.04
6.320632741033858
% es.Ey (V/m) @ t=1.04
1.890089108108726
% es.Ez (V/m) @ t=1.04
-6.923398777033253
% es.tEx (V/m) @ t=1.04
6.320632741033847
% es.tEy (V/m) @ t=1.04
0
% es.tEz (V/m) @ t=1.04
-6.923398777033238
% V (V) @ t=1.04
0.008531507071314141
% es.normE (V/m) @ t=1.06
10.047235324214084
% es.EX (V/m) @ t=1.06
6.375974668967649