% Model:              1 neuron.mph
% Version:            COMSOL 6.0.0.405
% Date:               Mar 16 2023, 17:29
% Dimension:          0
% Nodes:              14017
% Expressions:        14017
% Description:        Electric field norm, Electric field, X component, Electric field, Y component, Electric field, Z component, Tangential electric field, X component, Tangential electric field, Y component, Tangential electric field, Z component, Electric field, x component, Electric field, y component, Electric field, z component, Tangential electric field, x component, Tangential electric field, y component, Tangential electric field, z component, Electric potential
% Length unit:        mm
% x
1.66
% y
12.2
% z
1
% es.normE (V/m) @ t=0
1.4879103028592917
% es.EX (V/m) @ t=0
-0.5303461458284849
% es.EY (V/m) @ t=0
0.16848890288675777
% es.EZ (V/m) @ t=0
1.3756612840322964
% es.tEX (V/m) @ t=0
-0.5303461458284938
% es.tEY (V/m) @ t=0
0
% es.tEZ (V/m) @ t=0
1.3756612840322955
% es.Ex (V/m) @ t=0
-0.5303461458284849
% es.Ey (V/m) @ t=0
0.16848890288675777
% es.Ez (V/m) @ t=0
1.3756612840322964
% es.tEx (V/m) @ t=0
-0.5303461458284938
% es.tEy (V/m) @ t=0
0
% es.tEz (V/m) @ t=0
1.3756612840322955
% V (V) @ t=0
0.007244321510058658
% es.normE (V/m) @ t=0.02
1.2851356345992078
% es.EX (V/m) @ t=0.02
-0.45806977041019903
% es.EY (V/m) @ t=0.02
0.14552698023895105
% es.EZ (V/m) @ t=0.02
1.1881840819237945
% es.tEX (V/m) @ t=0.02
-0.45806977041020613
% es.tEY (V/m) @ t=0.02
0
% es.tEZ (V/m) @ t=0.02
1.188184081923799
% es.Ex (V/m) @ t=0.02
-0.45806977041019903
% es.Ey (V/m) @ t=0.02
0.14552698023895105
% es.Ez (V/m) @ t=0.02
1.1881840819237945
% es.tEx (V/m) @ t=0.02
-0.45806977041020613
% es.tEy (V/m) @ t=0.02
0
% es.tEz (V/m) @ t=0.02
1.188184081923799
% V (V) @ t=0.02
0.006257054401838346
% es.normE (V/m) @ t=0.04
1.2969555472336487
% es.EX (V/m) @ t=0.04
-0.4622828234835561
% es.EY (V/m) @ t=0.04
0.1468654507655165
% es.EZ (V/m) @ t=0.04
1.1991122918940325
% es.tEX (V/m) @ t=0.04
-0.4622828234835614
% es.tEY (V/m) @ t=0.04
0
% es.tEZ (V/m) @ t=0.04
1.1991122918940311
% es.Ex (V/m) @ t=0.04
-0.4622828234835561
% es.Ey (V/m) @ t=0.04
0.1468654507655165
% es.Ez (V/m) @ t=0.04
1.1991122918940325
% es.tEx (V/m) @ t=0.04
-0.4622828234835614
% es.tEy (V/m) @ t=0.04
0
% es.tEz (V/m) @ t=0.04
1.1991122918940311
% V (V) @ t=0.04
0.0063146030661334965
% es.normE (V/m) @ t=0.06
1.3088796388400787
% es.EX (V/m) @ t=0.06
-0.4665330097312199
% es.EY (V/m) @ t=0.06
0.14821571833327407
% es.EZ (V/m) @ t=0.06
1.210136821523497
% es.tEX (V/m) @ t=0.06
-0.4665330097312288
% es.tEY (V/m) @ t=0.06
0
% es.tEZ (V/m) @ t=0.06
1.2101368215234976
% es.Ex (V/m) @ t=0.06
-0.4665330097312199
% es.Ey (V/m) @ t=0.06
0.14821571833327407
% es.Ez (V/m) @ t=0.06
1.210136821523497
% es.tEx (V/m) @ t=0.06
-0.4665330097312288
% es.tEy (V/m) @ t=0.06
0
% es.tEz (V/m) @ t=0.06
1.2101368215234976
% V (V) @ t=0.06
0.006372658959852503
% es.normE (V/m) @ t=0.08
1.3209913172189194
% es.EX (V/m) @ t=0.08
-0.47085005888380926
% es.EY (V/m) @ t=0.08
0.14958722800776292
% es.EZ (V/m) @ t=0.08
1.2213347862215804
% es.tEX (V/m) @ t=0.08
-0.4708500588838128
% es.tEY (V/m) @ t=0.08
0
% es.tEZ (V/m) @ t=0.08
1.2213347862215826
% es.Ex (V/m) @ t=0.08
-0.47085005888380926
% es.Ey (V/m) @ t=0.08
0.14958722800776292
% es.Ez (V/m) @ t=0.08
1.2213347862215804
% es.tEx (V/m) @ t=0.08
-0.4708500588838128
% es.tEy (V/m) @ t=0.08
0
% es.tEz (V/m) @ t=0.08
1.2213347862215826
% V (V) @ t=0.08
0.006431628169497687
% es.normE (V/m) @ t=0.1
1.3332218302078642
% es.EX (V/m) @ t=0.1
-0.4752094651127232
% es.EY (V/m) @ t=0.1
0.15097219437455411
% es.EZ (V/m) @ t=0.1
1.232642620546891
% es.tEX (V/m) @ t=0.1
-0.4752094651127303
% es.tEY (V/m) @ t=0.1
0
% es.tEZ (V/m) @ t=0.1
1.2326426205468932
% es.Ex (V/m) @ t=0.1
-0.4752094651127232
% es.Ey (V/m) @ t=0.1
0.15097219437455411
% es.Ez (V/m) @ t=0.1
1.232642620546891
% es.tEx (V/m) @ t=0.1
-0.4752094651127303
% es.tEy (V/m) @ t=0.1
0
% es.tEz (V/m) @ t=0.1
1.2326426205468932
% V (V) @ t=0.1
0.006491175956942266
% es.normE (V/m) @ t=0.12
1.3454523431968064
% es.EX (V/m) @ t=0.12
-0.47956887134163906
% es.EY (V/m) @ t=0.12
0.15235716074133288
% es.EZ (V/m) @ t=0.12
1.2439504548721985
% es.tEX (V/m) @ t=0.12
-0.47956887134164794
% es.tEY (V/m) @ t=0.12
0
% es.tEZ (V/m) @ t=0.12
1.2439504548721967
% es.Ex (V/m) @ t=0.12
-0.47956887134163906
% es.Ey (V/m) @ t=0.12
0.15235716074133288
% es.Ez (V/m) @ t=0.12
1.2439504548721985
% es.tEx (V/m) @ t=0.12
-0.47956887134164794
% es.tEy (V/m) @ t=0.12
0
% es.tEz (V/m) @ t=0.12
1.2439504548721967
% V (V) @ t=0.12
0.006550723744386847
% es.normE (V/m) @ t=0.14
1.3578346866371738
% es.EX (V/m) @ t=0.14
-0.4839823955403708
% es.EY (V/m) @ t=0.14
0.15375932017401273
% es.EZ (V/m) @ t=0.14
1.255398665453678
% es.tEX (V/m) @ t=0.14
-0.4839823955403779
% es.tEY (V/m) @ t=0.14
0
% es.tEZ (V/m) @ t=0.14
1.2553986654536784
% es.Ex (V/m) @ t=0.14
-0.4839823955403708
% es.Ey (V/m) @ t=0.14
0.15375932017401273
% es.Ez (V/m) @ t=0.14
1.255398665453678
% es.tEx (V/m) @ t=0.14
-0.4839823955403779
% es.tEy (V/m) @ t=0.14
0
% es.tEz (V/m) @ t=0.14
1.2553986654536784
% V (V) @ t=0.14
0.006611010762971994
% es.normE (V/m) @ t=0.16
1.3707133067090211
% es.EX (V/m) @ t=0.16
-0.48857281102483463
% es.EY (V/m) @ t=0.16
0.15521767727157465
% es.EZ (V/m) @ t=0.16
1.2673057132110883
% es.tEX (V/m) @ t=0.16
-0.4885728110248435
% es.tEY (V/m) @ t=0.16
0
% es.tEZ (V/m) @ t=0.16
1.267305713211087
% es.Ex (V/m) @ t=0.16
-0.48857281102483463
% es.Ey (V/m) @ t=0.16
0.15521767727157465
% es.Ez (V/m) @ t=0.16
1.2673057132110883
% es.tEx (V/m) @ t=0.16
-0.4885728110248435
% es.tEy (V/m) @ t=0.16
0
% es.tEz (V/m) @ t=0.16
1.267305713211087
% V (V) @ t=0.16
0.006673714050078123
% es.normE (V/m) @ t=0.18
1.38359192678087
% es.EX (V/m) @ t=0.18
-0.4931632265093002
% es.EY (V/m) @ t=0.18
0.15667603436913458
% es.EZ (V/m) @ t=0.18
1.2792127609684991
% es.tEX (V/m) @ t=0.18
-0.49316322650930555
% es.tEY (V/m) @ t=0.18
0
% es.tEZ (V/m) @ t=0.18
1.2792127609685
% es.Ex (V/m) @ t=0.18
-0.4931632265093002
% es.Ey (V/m) @ t=0.18
0.15667603436913458
% es.Ez (V/m) @ t=0.18
1.2792127609684991
% es.tEx (V/m) @ t=0.18
-0.49316322650930555
% es.tEy (V/m) @ t=0.18
0
% es.tEz (V/m) @ t=0.18
1.2792127609685
% V (V) @ t=0.18
0.006736417337184251
% es.normE (V/m) @ t=0.2
1.396470546852709
% es.EX (V/m) @ t=0.2
-0.4977536419937587
% es.EY (V/m) @ t=0.2
0.15813439146668007
% es.EZ (V/m) @ t=0.2
1.2911198087259046
% es.tEX (V/m) @ t=0.2
-0.4977536419937676
% es.tEY (V/m) @ t=0.2
0
% es.tEZ (V/m) @ t=0.2
1.291119808725905
% es.Ex (V/m) @ t=0.2
-0.4977536419937587
% es.Ey (V/m) @ t=0.2
0.15813439146668007
% es.Ez (V/m) @ t=0.2
1.2911198087259046
% es.tEx (V/m) @ t=0.2
-0.4977536419937676
% es.tEy (V/m) @ t=0.2
0
% es.tEz (V/m) @ t=0.2
1.291119808725905
% V (V) @ t=0.2
0.006799120624290381
% es.normE (V/m) @ t=0.22
1.4093491669245553
% es.EX (V/m) @ t=0.22
-0.5023440574782189
% es.EY (V/m) @ t=0.22
0.15959274856424432
% es.EZ (V/m) @ t=0.22
1.3030268564833132
% es.tEX (V/m) @ t=0.22
-0.502344057478226
% es.tEY (V/m) @ t=0.22
0
% es.tEZ (V/m) @ t=0.22
1.3030268564833118
% es.Ex (V/m) @ t=0.22
-0.5023440574782189
% es.Ey (V/m) @ t=0.22
0.15959274856424432
% es.Ez (V/m) @ t=0.22
1.3030268564833132
% es.tEx (V/m) @ t=0.22
-0.502344057478226
% es.tEy (V/m) @ t=0.22
0
% es.tEz (V/m) @ t=0.22
1.3030268564833118
% V (V) @ t=0.22
0.006861823911396509
% es.normE (V/m) @ t=0.24
1.4222277869963997
% es.EX (V/m) @ t=0.24
-0.5069344729626845
% es.EY (V/m) @ t=0.24
0.1610511056618037
% es.EZ (V/m) @ t=0.24
1.3149339042407195
% es.tEX (V/m) @ t=0.24
-0.5069344729626916
% es.tEY (V/m) @ t=0.24
0
% es.tEZ (V/m) @ t=0.24
1.3149339042407213
% es.Ex (V/m) @ t=0.24
-0.5069344729626845
% es.Ey (V/m) @ t=0.24
0.1610511056618037
% es.Ez (V/m) @ t=0.24
1.3149339042407195
% es.tEx (V/m) @ t=0.24
-0.5069344729626916
% es.tEy (V/m) @ t=0.24
0
% es.tEz (V/m) @ t=0.24
1.3149339042407213
% V (V) @ t=0.24
0.0069245271985026394
% es.normE (V/m) @ t=0.26
1.4351064070682429
% es.EX (V/m) @ t=0.26
-0.511524888447143
% es.EY (V/m) @ t=0.26
0.1625094627593573
% es.EZ (V/m) @ t=0.26
1.3268409519981281
% es.tEX (V/m) @ t=0.26
-0.51152488844715
% es.tEY (V/m) @ t=0.26
0
% es.tEZ (V/m) @ t=0.26
1.3268409519981281
% es.Ex (V/m) @ t=0.26
-0.511524888447143
% es.Ey (V/m) @ t=0.26
0.1625094627593573
% es.Ez (V/m) @ t=0.26
1.3268409519981281
% es.tEx (V/m) @ t=0.26
-0.51152488844715
% es.tEy (V/m) @ t=0.26
0
% es.tEz (V/m) @ t=0.26
1.3268409519981281
% V (V) @ t=0.26
0.006987230485608767
% es.normE (V/m) @ t=0.28
1.4486818317328631
% es.EX (V/m) @ t=0.28
-0.5163636699887754
% es.EY (V/m) @ t=0.28
0.164046724514888
% es.EZ (V/m) @ t=0.28
1.3393922372508706
% es.tEX (V/m) @ t=0.28
-0.5163636699887825
% es.tEY (V/m) @ t=0.28
0
% es.tEZ (V/m) @ t=0.28
1.3393922372508742
% es.Ex (V/m) @ t=0.28
-0.5163636699887754
% es.Ey (V/m) @ t=0.28
0.164046724514888
% es.Ez (V/m) @ t=0.28
1.3393922372508706
% es.tEx (V/m) @ t=0.28
-0.5163636699887825
% es.tEy (V/m) @ t=0.28
0
% es.tEz (V/m) @ t=0.28
1.3393922372508742
% V (V) @ t=0.28
0.007053326442081525
% es.normE (V/m) @ t=0.3
1.463016887785317
% es.EX (V/m) @ t=0.3
-0.5214732113024635
% es.EY (V/m) @ t=0.3
0.1656700052999469
% es.EZ (V/m) @ t=0.3
1.3526458471262486
% es.tEX (V/m) @ t=0.3
-0.5214732113024706
% es.tEY (V/m) @ t=0.3
0
% es.tEZ (V/m) @ t=0.3
1.3526458471262508
% es.Ex (V/m) @ t=0.3
-0.5214732113024635
% es.Ey (V/m) @ t=0.3
0.1656700052999469
% es.Ez (V/m) @ t=0.3
1.3526458471262486
% es.tEx (V/m) @ t=0.3
-0.5214732113024706
% es.tEy (V/m) @ t=0.3
0
% es.tEz (V/m) @ t=0.3
1.3526458471262508
% V (V) @ t=0.3
0.007123120965076577
% es.normE (V/m) @ t=0.32
1.4773519438377685
% es.EX (V/m) @ t=0.32
-0.52658275261615
% es.EY (V/m) @ t=0.32
0.16729328608501237
% es.EZ (V/m) @ t=0.32
1.3658994570016256
% es.tEX (V/m) @ t=0.32
-0.5265827526161588
% es.tEY (V/m) @ t=0.32
0
% es.tEZ (V/m) @ t=0.32
1.3658994570016274
% es.Ex (V/m) @ t=0.32
-0.52658275261615
% es.Ey (V/m) @ t=0.32
0.16729328608501237
% es.Ez (V/m) @ t=0.32
1.3658994570016256
% es.tEx (V/m) @ t=0.32
-0.5265827526161588
% es.tEy (V/m) @ t=0.32
0
% es.tEz (V/m) @ t=0.32
1.3658994570016274
% V (V) @ t=0.32
0.0071929154880716285
% es.normE (V/m) @ t=0.34
1.49168699989022
% es.EX (V/m) @ t=0.34
-0.5316922939298329
% es.EY (V/m) @ t=0.34
0.16891656687007806
% es.EZ (V/m) @ t=0.34
1.3791530668770031
% es.tEX (V/m) @ t=0.34
-0.53169229392984
% es.tEY (V/m) @ t=0.34
0
% es.tEZ (V/m) @ t=0.34
1.379153066877005
% es.Ex (V/m) @ t=0.34
-0.5316922939298329
% es.Ey (V/m) @ t=0.34
0.16891656687007806
% es.Ez (V/m) @ t=0.34
1.3791530668770031
% es.tEx (V/m) @ t=0.34
-0.53169229392984
% es.tEy (V/m) @ t=0.34
0
% es.tEz (V/m) @ t=0.34
1.379153066877005
% V (V) @ t=0.34
0.00726271001106668
% es.normE (V/m) @ t=0.36
1.5060220559426694
% es.EX (V/m) @ t=0.36
-0.5368018352435157
% es.EY (V/m) @ t=0.36
0.17053984765513064
% es.EZ (V/m) @ t=0.36
1.3924066767523797
% es.tEX (V/m) @ t=0.36
-0.5368018352435281
% es.tEY (V/m) @ t=0.36
0
% es.tEZ (V/m) @ t=0.36
1.3924066767523762
% es.Ex (V/m) @ t=0.36
-0.5368018352435157
% es.Ey (V/m) @ t=0.36
0.17053984765513064
% es.Ez (V/m) @ t=0.36
1.3924066767523797
% es.tEx (V/m) @ t=0.36
-0.5368018352435281
% es.tEy (V/m) @ t=0.36
0
% es.tEz (V/m) @ t=0.36
1.3924066767523762
% V (V) @ t=0.36
0.007332504534061733
% es.normE (V/m) @ t=0.38
1.5203571119951171
% es.EX (V/m) @ t=0.38
-0.5419113765572039
% es.EY (V/m) @ t=0.38
0.17216312844018922
% es.EZ (V/m) @ t=0.38
1.4056602866277519
% es.tEX (V/m) @ t=0.38
-0.5419113765572092
% es.tEY (V/m) @ t=0.38
0
% es.tEZ (V/m) @ t=0.38
1.4056602866277554
% es.Ex (V/m) @ t=0.38
-0.5419113765572039
% es.Ey (V/m) @ t=0.38
0.17216312844018922
% es.Ez (V/m) @ t=0.38
1.4056602866277519
% es.tEx (V/m) @ t=0.38
-0.5419113765572092
% es.tEy (V/m) @ t=0.38
0
% es.tEz (V/m) @ t=0.38
1.4056602866277554
% V (V) @ t=0.38
0.007402299057056787
% es.normE (V/m) @ t=0.4
1.5346921680475707
% es.EX (V/m) @ t=0.4
-0.5470209178708904
% es.EY (V/m) @ t=0.4
0.17378640922524768
% es.EZ (V/m) @ t=0.4
1.4189138965031312
% es.tEX (V/m) @ t=0.4
-0.5470209178708975
% es.tEY (V/m) @ t=0.4
0
% es.tEZ (V/m) @ t=0.4
1.418913896503133
% es.Ex (V/m) @ t=0.4
-0.5470209178708904
% es.Ey (V/m) @ t=0.4
0.17378640922524768
% es.Ez (V/m) @ t=0.4
1.4189138965031312
% es.tEx (V/m) @ t=0.4
-0.5470209178708975
% es.tEy (V/m) @ t=0.4
0
% es.tEz (V/m) @ t=0.4
1.418913896503133
% V (V) @ t=0.4
0.007472093580051838
% es.normE (V/m) @ t=0.42
1.549027224100025
% es.EX (V/m) @ t=0.42
-0.5521304591845715
% es.EY (V/m) @ t=0.42
0.1754096900103217
% es.EZ (V/m) @ t=0.42
1.4321675063785109
% es.tEX (V/m) @ t=0.42
-0.5521304591845786
% es.tEY (V/m) @ t=0.42
0
% es.tEZ (V/m) @ t=0.42
1.4321675063785122
% es.Ex (V/m) @ t=0.42
-0.5521304591845715
% es.Ey (V/m) @ t=0.42
0.1754096900103217
% es.Ez (V/m) @ t=0.42
1.4321675063785109
% es.tEx (V/m) @ t=0.42
-0.5521304591845786
% es.tEy (V/m) @ t=0.42
0
% es.tEz (V/m) @ t=0.42
1.4321675063785122
% V (V) @ t=0.42
0.00754188810304689
% es.normE (V/m) @ t=0.44
1.5633622801524782
% es.EX (V/m) @ t=0.44
-0.5572400004982561
% es.EY (V/m) @ t=0.44
0.17703297079537128
% es.EZ (V/m) @ t=0.44
1.4454211162538915
% es.tEX (V/m) @ t=0.44
-0.5572400004982596
% es.tEY (V/m) @ t=0.44
0
% es.tEZ (V/m) @ t=0.44
1.4454211162538906
% es.Ex (V/m) @ t=0.44
-0.5572400004982561
% es.Ey (V/m) @ t=0.44
0.17703297079537128
% es.Ez (V/m) @ t=0.44
1.4454211162538915
% es.tEx (V/m) @ t=0.44
-0.5572400004982596
% es.tEy (V/m) @ t=0.44
0
% es.tEz (V/m) @ t=0.44
1.4454211162538906
% V (V) @ t=0.44
0.007611682626041943
% es.normE (V/m) @ t=0.46
1.577697336204932
% es.EX (V/m) @ t=0.46
-0.5623495418119409
% es.EY (V/m) @ t=0.46
0.1786562515804352
% es.EZ (V/m) @ t=0.46
1.4586747261292712
% es.tEX (V/m) @ t=0.46
-0.562349541811948
% es.tEY (V/m) @ t=0.46
0
% es.tEZ (V/m) @ t=0.46
1.458674726129269
% es.Ex (V/m) @ t=0.46
-0.5623495418119409
% es.Ey (V/m) @ t=0.46
0.1786562515804352
% es.Ez (V/m) @ t=0.46
1.4586747261292712
% es.tEx (V/m) @ t=0.46
-0.562349541811948
% es.tEy (V/m) @ t=0.46
0
% es.tEz (V/m) @ t=0.46
1.458674726129269
% V (V) @ t=0.46
0.0076814771490369945
% es.normE (V/m) @ t=0.48
1.5920323922573867
% es.EX (V/m) @ t=0.48
-0.5674590831256291
% es.EY (V/m) @ t=0.48
0.18027953236550298
% es.EZ (V/m) @ t=0.48
1.47192833600465
% es.tEX (V/m) @ t=0.48
-0.5674590831256362
% es.tEY (V/m) @ t=0.48
0
% es.tEZ (V/m) @ t=0.48
1.4719283360046473
% es.Ex (V/m) @ t=0.48
-0.5674590831256291
% es.Ey (V/m) @ t=0.48
0.18027953236550298
% es.Ez (V/m) @ t=0.48
1.47192833600465
% es.tEx (V/m) @ t=0.48
-0.5674590831256362
% es.tEy (V/m) @ t=0.48
0
% es.tEz (V/m) @ t=0.48
1.4719283360046473
% V (V) @ t=0.48
0.007751271672032048
% es.normE (V/m) @ t=0.5
1.606367448309832
% es.EX (V/m) @ t=0.5
-0.5725686244393102
% es.EY (V/m) @ t=0.5
0.1819028131505589
% es.EZ (V/m) @ t=0.5
1.4851819458800217
% es.tEX (V/m) @ t=0.5
-0.5725686244393173
% es.tEY (V/m) @ t=0.5
0
% es.tEZ (V/m) @ t=0.5
1.485181945880024
% es.Ex (V/m) @ t=0.5
-0.5725686244393102
% es.Ey (V/m) @ t=0.5
0.1819028131505589
% es.Ez (V/m) @ t=0.5
1.4851819458800217
% es.tEx (V/m) @ t=0.5
-0.5725686244393173
% es.tEy (V/m) @ t=0.5
0
% es.tEz (V/m) @ t=0.5
1.485181945880024
% V (V) @ t=0.5
0.007821066195027098
% es.normE (V/m) @ t=0.52
1.6207025043622891
% es.EX (V/m) @ t=0.52
-0.5776781657529985
% es.EY (V/m) @ t=0.52
0.18352609393562314
% es.EZ (V/m) @ t=0.52
1.4984355557554037
% es.tEX (V/m) @ t=0.52
-0.5776781657530056
% es.tEY (V/m) @ t=0.52
0
% es.tEZ (V/m) @ t=0.52
1.4984355557554059
% es.Ex (V/m) @ t=0.52
-0.5776781657529985
% es.Ey (V/m) @ t=0.52
0.18352609393562314
% es.Ez (V/m) @ t=0.52
1.4984355557554037
% es.tEx (V/m) @ t=0.52
-0.5776781657530056
% es.tEy (V/m) @ t=0.52
0
% es.tEz (V/m) @ t=0.52
1.4984355557554059
% V (V) @ t=0.52
0.00789086071802215
% es.normE (V/m) @ t=0.54
1.6350375604147374
% es.EX (V/m) @ t=0.54
-0.5827877070666795
% es.EY (V/m) @ t=0.54
0.18514937472068105
% es.EZ (V/m) @ t=0.54
1.5116891656307794
% es.tEX (V/m) @ t=0.54
-0.5827877070666866
% es.tEY (V/m) @ t=0.54
0
% es.tEZ (V/m) @ t=0.54
1.5116891656307772
% es.Ex (V/m) @ t=0.54
-0.5827877070666795
% es.Ey (V/m) @ t=0.54
0.18514937472068105
% es.Ez (V/m) @ t=0.54
1.5116891656307794
% es.tEx (V/m) @ t=0.54
-0.5827877070666866
% es.tEy (V/m) @ t=0.54
0
% es.tEz (V/m) @ t=0.54
1.5116891656307772
% V (V) @ t=0.54
0.007960655241017203
% es.normE (V/m) @ t=0.56
1.6509673263913562
% es.EX (V/m) @ t=0.56
-0.5884656633257667
% es.EY (V/m) @ t=0.56
0.18695323920235674
% es.EZ (V/m) @ t=0.56
1.5264171787585448
% es.tEX (V/m) @ t=0.56
-0.5884656633257773
% es.tEY (V/m) @ t=0.56
0
% es.tEZ (V/m) @ t=0.56
1.5264171787585425
% es.Ex (V/m) @ t=0.56
-0.5884656633257667
% es.Ey (V/m) @ t=0.56
0.18695323920235674
% es.Ez (V/m) @ t=0.56
1.5264171787585448
% es.tEx (V/m) @ t=0.56
-0.5884656633257773
% es.tEy (V/m) @ t=0.56
0
% es.tEz (V/m) @ t=0.56
1.5264171787585425
% V (V) @ t=0.56
0.008038213931733021
% es.normE (V/m) @ t=0.58
1.6669519249932083
% es.EX (V/m) @ t=0.58
-0.5941631640068115
% es.EY (V/m) @ t=0.58
0.18876331288735315
% es.EZ (V/m) @ t=0.58
1.541195887877953
% es.tEX (V/m) @ t=0.58
-0.5941631640068257
% es.tEY (V/m) @ t=0.58
0
% es.tEZ (V/m) @ t=0.58
1.5411958878779535
% es.Ex (V/m) @ t=0.58
-0.5941631640068115
% es.Ey (V/m) @ t=0.58
0.18876331288735315
% es.Ez (V/m) @ t=0.58
1.541195887877953
% es.tEx (V/m) @ t=0.58
-0.5941631640068257
% es.tEy (V/m) @ t=0.58
0
% es.tEz (V/m) @ t=0.58
1.5411958878779535
% V (V) @ t=0.58
0.008116039586172127
% es.normE (V/m) @ t=0.6
1.6829365235950682
% es.EX (V/m) @ t=0.6
-0.5998606646878668
% es.EY (V/m) @ t=0.6
0.19057338657235567
% es.EZ (V/m) @ t=0.6
1.5559745969973648
% es.tEX (V/m) @ t=0.6
-0.5998606646878739
% es.tEY (V/m) @ t=0.6
0
% es.tEZ (V/m) @ t=0.6
1.5559745969973662
% es.Ex (V/m) @ t=0.6
-0.5998606646878668
% es.Ey (V/m) @ t=0.6
0.19057338657235567
% es.Ez (V/m) @ t=0.6
1.5559745969973648
% es.tEx (V/m) @ t=0.6
-0.5998606646878739
% es.tEy (V/m) @ t=0.6
0
% es.tEz (V/m) @ t=0.6
1.5559745969973662
% V (V) @ t=0.6
0.008193865240611232
% es.normE (V/m) @ t=0.62
1.6989211221969234
% es.EX (V/m) @ t=0.62
-0.6055581653689186
% es.EY (V/m) @ t=0.62
0.19238346025735242
% es.EZ (V/m) @ t=0.62
1.570753306116774
% es.tEX (V/m) @ t=0.62
-0.6055581653689293
% es.tEY (V/m) @ t=0.62
0
% es.tEZ (V/m) @ t=0.62
1.570753306116777
% es.Ex (V/m) @ t=0.62
-0.6055581653689186
% es.Ey (V/m) @ t=0.62
0.19238346025735242
% es.Ez (V/m) @ t=0.62
1.570753306116774
% es.tEx (V/m) @ t=0.62
-0.6055581653689293
% es.tEy (V/m) @ t=0.62
0
% es.tEz (V/m) @ t=0.62
1.570753306116777
% V (V) @ t=0.62
0.008271690895050336
% es.normE (V/m) @ t=0.64
1.714905720798782
% es.EX (V/m) @ t=0.64
-0.6112556660499704
% es.EY (V/m) @ t=0.64
0.19419353394235062
% es.EZ (V/m) @ t=0.64
1.5855320152361858
% es.tEX (V/m) @ t=0.64
-0.6112556660499846
% es.tEY (V/m) @ t=0.64
0
% es.tEZ (V/m) @ t=0.64
1.585532015236188
% es.Ex (V/m) @ t=0.64
-0.6112556660499704
% es.Ey (V/m) @ t=0.64
0.19419353394235062
% es.Ez (V/m) @ t=0.64
1.5855320152361858
% es.tEx (V/m) @ t=0.64
-0.6112556660499846
% es.tEy (V/m) @ t=0.64
0
% es.tEz (V/m) @ t=0.64
1.585532015236188
% V (V) @ t=0.64
0.008349516549489441
% es.normE (V/m) @ t=0.66
1.7308903194006362
% es.EX (V/m) @ t=0.66
-0.6169531667310294
% es.EY (V/m) @ t=0.66
0.19600360762734048
% es.EZ (V/m) @ t=0.66
1.6003107243555932
% es.tEX (V/m) @ t=0.66
-0.616953166731033
% es.tEY (V/m) @ t=0.66
0
% es.tEZ (V/m) @ t=0.66
1.6003107243555972
% es.Ex (V/m) @ t=0.66
-0.6169531667310294
% es.Ey (V/m) @ t=0.66
0.19600360762734048
% es.Ez (V/m) @ t=0.66
1.6003107243555932
% es.tEx (V/m) @ t=0.66
-0.616953166731033
% es.tEy (V/m) @ t=0.66
0
% es.tEz (V/m) @ t=0.66
1.6003107243555972
% V (V) @ t=0.66
0.008427342203928543
% es.normE (V/m) @ t=0.68
1.7468749180024914
% es.EX (V/m) @ t=0.68
-0.6226506674120741
% es.EY (V/m) @ t=0.68
0.19781368131234578
% es.EZ (V/m) @ t=0.68
1.6150894334750037
% es.tEX (V/m) @ t=0.68
-0.6226506674120812
% es.tEY (V/m) @ t=0.68
0
% es.tEZ (V/m) @ t=0.68
1.6150894334750046
% es.Ex (V/m) @ t=0.68
-0.6226506674120741
% es.Ey (V/m) @ t=0.68
0.19781368131234578
% es.Ez (V/m) @ t=0.68
1.6150894334750037
% es.tEx (V/m) @ t=0.68
-0.6226506674120812
% es.tEy (V/m) @ t=0.68
0
% es.tEz (V/m) @ t=0.68
1.6150894334750046
% V (V) @ t=0.68
0.008505167858367649
% es.normE (V/m) @ t=0.7
1.7628595166043508
% es.EX (V/m) @ t=0.7
-0.6283481680931259
% es.EY (V/m) @ t=0.7
0.1996237549973483
% es.EZ (V/m) @ t=0.7
1.6298681425944164
% es.tEX (V/m) @ t=0.7
-0.6283481680931436
% es.tEY (V/m) @ t=0.7
0
% es.tEZ (V/m) @ t=0.7
1.6298681425944173
% es.Ex (V/m) @ t=0.7
-0.6283481680931259
% es.Ey (V/m) @ t=0.7
0.1996237549973483
% es.Ez (V/m) @ t=0.7
1.6298681425944164
% es.tEx (V/m) @ t=0.7
-0.6283481680931436
% es.tEy (V/m) @ t=0.7
0
% es.tEz (V/m) @ t=0.7
1.6298681425944173
% V (V) @ t=0.7
0.008582993512806754
% es.normE (V/m) @ t=0.72
1.7788441152062069
% es.EX (V/m) @ t=0.72
-0.6340456687741848
% es.EY (V/m) @ t=0.72
0.20143382868233628
% es.EZ (V/m) @ t=0.72
1.644646851713825
% es.tEX (V/m) @ t=0.72
-0.6340456687741919
% es.tEY (V/m) @ t=0.72
0
% es.tEZ (V/m) @ t=0.72
1.6446468517138273
% es.Ex (V/m) @ t=0.72
-0.6340456687741848
% es.Ey (V/m) @ t=0.72
0.20143382868233628
% es.Ez (V/m) @ t=0.72
1.644646851713825
% es.tEx (V/m) @ t=0.72
-0.6340456687741919
% es.tEy (V/m) @ t=0.72
0
% es.tEz (V/m) @ t=0.72
1.6446468517138273
% V (V) @ t=0.72
0.008660819167245858
% es.normE (V/m) @ t=0.74
1.7948287138080654
% es.EX (V/m) @ t=0.74
-0.6397431694552401
% es.EY (V/m) @ t=0.74
0.20324390236733447
% es.EZ (V/m) @ t=0.74
1.6594255608332351
% es.tEX (V/m) @ t=0.74
-0.6397431694552472
% es.tEY (V/m) @ t=0.74
0
% es.tEZ (V/m) @ t=0.74
1.6594255608332347
% es.Ex (V/m) @ t=0.74
-0.6397431694552401
% es.Ey (V/m) @ t=0.74
0.20324390236733447
% es.Ez (V/m) @ t=0.74
1.6594255608332351
% es.tEx (V/m) @ t=0.74
-0.6397431694552472
% es.tEy (V/m) @ t=0.74
0
% es.tEz (V/m) @ t=0.74
1.6594255608332347
% V (V) @ t=0.74
0.008738644821684963
% es.normE (V/m) @ t=0.76
1.8108133124099277
% es.EX (V/m) @ t=0.76
-0.6454406701363026
% es.EY (V/m) @ t=0.76
0.20505397605233333
% es.EZ (V/m) @ t=0.76
1.6742042699526478
% es.tEX (V/m) @ t=0.76
-0.6454406701363097
% es.tEY (V/m) @ t=0.76
0
% es.tEZ (V/m) @ t=0.76
1.674204269952651
% es.Ex (V/m) @ t=0.76
-0.6454406701363026
% es.Ey (V/m) @ t=0.76
0.20505397605233333
% es.Ez (V/m) @ t=0.76
1.6742042699526478
% es.tEx (V/m) @ t=0.76
-0.6454406701363097
% es.tEy (V/m) @ t=0.76
0
% es.tEz (V/m) @ t=0.76
1.674204269952651
% V (V) @ t=0.76
0.008816470476124067
% es.normE (V/m) @ t=0.78
1.8267979110117742
% es.EX (V/m) @ t=0.78
-0.6511381708173402
% es.EY (V/m) @ t=0.78
0.2068640497373333
% es.EZ (V/m) @ t=0.78
1.6889829790720516
% es.tEX (V/m) @ t=0.78
-0.6511381708173579
% es.tEY (V/m) @ t=0.78
0
% es.tEZ (V/m) @ t=0.78
1.688982979072053
% es.Ex (V/m) @ t=0.78
-0.6511381708173402
% es.Ey (V/m) @ t=0.78
0.2068640497373333
% es.Ez (V/m) @ t=0.78
1.6889829790720516
% es.tEx (V/m) @ t=0.78
-0.6511381708173579
% es.tEy (V/m) @ t=0.78
0
% es.tEz (V/m) @ t=0.78
1.688982979072053
% V (V) @ t=0.78
0.008894296130563173
% es.normE (V/m) @ t=0.8
1.842782509613642
% es.EX (V/m) @ t=0.8
-0.6568356714984026
% es.EY (V/m) @ t=0.8
0.20867412342232705
% es.EZ (V/m) @ t=0.8
1.7037616881914714
% es.tEX (V/m) @ t=0.8
-0.6568356714984133
% es.tEY (V/m) @ t=0.8
0
% es.tEZ (V/m) @ t=0.8
1.7037616881914692
% es.Ex (V/m) @ t=0.8
-0.6568356714984026
% es.Ey (V/m) @ t=0.8
0.20867412342232705
% es.Ez (V/m) @ t=0.8
1.7037616881914714
% es.tEx (V/m) @ t=0.8
-0.6568356714984133
% es.tEy (V/m) @ t=0.8
0
% es.tEz (V/m) @ t=0.8
1.7037616881914692
% V (V) @ t=0.8
0.008972121785002278
% es.normE (V/m) @ t=0.82
1.8596187906384674
% es.EX (V/m) @ t=0.82
-0.6628367432525698
% es.EY (V/m) @ t=0.82
0.21058064045975344
% es.EZ (V/m) @ t=0.82
1.719327828191688
% es.tEX (V/m) @ t=0.82
-0.6628367432525769
% es.tEY (V/m) @ t=0.82
0
% es.tEZ (V/m) @ t=0.82
1.7193278281916902
% es.Ex (V/m) @ t=0.82
-0.6628367432525698
% es.Ey (V/m) @ t=0.82
0.21058064045975344
% es.Ez (V/m) @ t=0.82
1.719327828191688
% es.tEx (V/m) @ t=0.82
-0.6628367432525769
% es.tEy (V/m) @ t=0.82
0
% es.tEz (V/m) @ t=0.82
1.7193278281916902
% V (V) @ t=0.82
0.009054094099336598
% es.normE (V/m) @ t=0.84
1.8774748631312241
% es.EX (V/m) @ t=0.84
-0.6692013063527277
% es.EY (V/m) @ t=0.84
0.21260263728786066
% es.EZ (V/m) @ t=0.84
1.7358368258489079
% es.tEX (V/m) @ t=0.84
-0.6692013063527348
% es.tEY (V/m) @ t=0.84
0
% es.tEZ (V/m) @ t=0.84
1.7358368258489056
% es.Ex (V/m) @ t=0.84
-0.6692013063527277
% es.Ey (V/m) @ t=0.84
0.21260263728786066
% es.Ez (V/m) @ t=0.84
1.7358368258489079
% es.tEx (V/m) @ t=0.84
-0.6692013063527348
% es.tEy (V/m) @ t=0.84
0
% es.tEz (V/m) @ t=0.84
1.7358368258489056
% V (V) @ t=0.84
0.00914103156061713
% es.normE (V/m) @ t=0.86
1.8953309356239922
% es.EX (V/m) @ t=0.86
-0.6755658694528928
% es.EY (V/m) @ t=0.86
0.21462463411598232
% es.EZ (V/m) @ t=0.86
1.7523458235061344
% es.tEX (V/m) @ t=0.86
-0.6755658694528999
% es.tEY (V/m) @ t=0.86
0
% es.tEZ (V/m) @ t=0.86
1.7523458235061327
% es.Ex (V/m) @ t=0.86
-0.6755658694528928
% es.Ey (V/m) @ t=0.86
0.21462463411598232
% es.Ez (V/m) @ t=0.86
1.7523458235061344
% es.tEx (V/m) @ t=0.86
-0.6755658694528999
% es.tEy (V/m) @ t=0.86
0
% es.tEz (V/m) @ t=0.86
1.7523458235061327
% V (V) @ t=0.86
0.009227969021897662
% es.normE (V/m) @ t=0.88
1.913187008116756
% es.EX (V/m) @ t=0.88
-0.6819304325530435
% es.EY (V/m) @ t=0.88
0.21664663094409664
% es.EZ (V/m) @ t=0.88
1.7688548211633623
% es.tEX (V/m) @ t=0.88
-0.6819304325530506
% es.tEY (V/m) @ t=0.88
0
% es.tEZ (V/m) @ t=0.88
1.768854821163366
% es.Ex (V/m) @ t=0.88
-0.6819304325530435
% es.Ey (V/m) @ t=0.88
0.21664663094409664
% es.Ez (V/m) @ t=0.88
1.7688548211633623
% es.tEx (V/m) @ t=0.88
-0.6819304325530506
% es.tEy (V/m) @ t=0.88
0
% es.tEz (V/m) @ t=0.88
1.768854821163366
% V (V) @ t=0.88
0.009314906483178193
% es.normE (V/m) @ t=0.9
1.9310430806095105
% es.EX (V/m) @ t=0.9
-0.6882949956531909
% es.EY (V/m) @ t=0.9
0.2186686277722092
% es.EZ (V/m) @ t=0.9
1.7853638188205823
% es.tEX (V/m) @ t=0.9
-0.6882949956532086
% es.tEY (V/m) @ t=0.9
0
% es.tEZ (V/m) @ t=0.9
1.7853638188205867
% es.Ex (V/m) @ t=0.9
-0.6882949956531909
% es.Ey (V/m) @ t=0.9
0.2186686277722092
% es.Ez (V/m) @ t=0.9
1.7853638188205823
% es.tEx (V/m) @ t=0.9
-0.6882949956532086
% es.tEy (V/m) @ t=0.9
0
% es.tEz (V/m) @ t=0.9
1.7853638188205867
% V (V) @ t=0.9
0.009401843944458725
% es.normE (V/m) @ t=0.92
1.9488991531022744
% es.EX (V/m) @ t=0.92
-0.6946595587533523
% es.EY (V/m) @ t=0.92
0.22069062460032707
% es.EZ (V/m) @ t=0.92
1.8018728164778066
% es.tEX (V/m) @ t=0.92
-0.6946595587533594
% es.tEY (V/m) @ t=0.92
0
% es.tEZ (V/m) @ t=0.92
1.801872816477804
% es.Ex (V/m) @ t=0.92
-0.6946595587533523
% es.Ey (V/m) @ t=0.92
0.22069062460032707
% es.Ez (V/m) @ t=0.92
1.8018728164778066
% es.tEx (V/m) @ t=0.92
-0.6946595587533594
% es.tEy (V/m) @ t=0.92
0
% es.tEz (V/m) @ t=0.92
1.801872816477804
% V (V) @ t=0.92
0.009488781405739256
% es.normE (V/m) @ t=0.94
1.9667552255950402
% es.EX (V/m) @ t=0.94
-0.7010241218535174
% es.EY (V/m) @ t=0.94
0.22271262142843362
% es.EZ (V/m) @ t=0.94
1.8183818141350327
% es.tEX (V/m) @ t=0.94
-0.7010241218535245
% es.tEY (V/m) @ t=0.94
0
% es.tEZ (V/m) @ t=0.94
1.8183818141350336
% es.Ex (V/m) @ t=0.94
-0.7010241218535174
% es.Ey (V/m) @ t=0.94
0.22271262142843362
% es.Ez (V/m) @ t=0.94
1.8183818141350327
% es.tEx (V/m) @ t=0.94
-0.7010241218535245
% es.tEy (V/m) @ t=0.94
0
% es.tEz (V/m) @ t=0.94
1.8183818141350336
% V (V) @ t=0.94
0.009575718867019786
% es.normE (V/m) @ t=0.96
1.984611298087796
% es.EX (V/m) @ t=0.96
-0.707388684953668
% es.EY (V/m) @ t=0.96
0.2247346182565646
% es.EZ (V/m) @ t=0.96
1.83489081179225
% es.tEX (V/m) @ t=0.96
-0.7073886849536751
% es.tEY (V/m) @ t=0.96
0
% es.tEZ (V/m) @ t=0.96
1.8348908117922527
% es.Ex (V/m) @ t=0.96
-0.707388684953668
% es.Ey (V/m) @ t=0.96
0.2247346182565646
% es.Ez (V/m) @ t=0.96
1.83489081179225
% es.tEx (V/m) @ t=0.96
-0.7073886849536751
% es.tEy (V/m) @ t=0.96
0
% es.tEz (V/m) @ t=0.96
1.8348908117922527
% V (V) @ t=0.96
0.00966265632830032
% es.normE (V/m) @ t=0.98
2.0024673705805647
% es.EX (V/m) @ t=0.98
-0.7137532480538294
% es.EY (V/m) @ t=0.98
0.22675661508467537
% es.EZ (V/m) @ t=0.98
1.8513998094494806
% es.tEX (V/m) @ t=0.98
-0.713753248053833
% es.tEY (V/m) @ t=0.98
0
% es.tEZ (V/m) @ t=0.98
1.8513998094494788
% es.Ex (V/m) @ t=0.98
-0.7137532480538294
% es.Ey (V/m) @ t=0.98
0.22675661508467537
% es.Ez (V/m) @ t=0.98
1.8513998094494806
% es.tEx (V/m) @ t=0.98
-0.713753248053833
% es.tEy (V/m) @ t=0.98
0
% es.tEz (V/m) @ t=0.98
1.8513998094494788
% V (V) @ t=0.98
0.00974959378958085
% es.normE (V/m) @ t=1
2.0203234430733277
% es.EX (V/m) @ t=1
-0.7201178111539838
% es.EY (V/m) @ t=1
0.2287786119127888
% es.EZ (V/m) @ t=1
1.8679088071067076
% es.tEX (V/m) @ t=1
-0.720117811153998
% es.tEY (V/m) @ t=1
0
% es.tEZ (V/m) @ t=1
1.8679088071067067
% es.Ex (V/m) @ t=1
-0.7201178111539838
% es.Ey (V/m) @ t=1
0.2287786119127888
% es.Ez (V/m) @ t=1
1.8679088071067076
% es.tEx (V/m) @ t=1
-0.720117811153998
% es.tEy (V/m) @ t=1
0
% es.tEz (V/m) @ t=1
1.8679088071067067
% V (V) @ t=1
0.009836531250861381
% es.normE (V/m) @ t=1.02
2.0381795155660867
% es.EX (V/m) @ t=1.02
-0.7264823742541346
% es.EY (V/m) @ t=1.02
0.23080060874090158
% es.EZ (V/m) @ t=1.02
1.884417804763931
% es.tEX (V/m) @ t=1.02
-0.7264823742541417
% es.tEY (V/m) @ t=1.02
0
% es.tEZ (V/m) @ t=1.02
1.8844178047639328
% es.Ex (V/m) @ t=1.02
-0.7264823742541346
% es.Ey (V/m) @ t=1.02
0.23080060874090158
% es.Ez (V/m) @ t=1.02
1.884417804763931
% es.tEx (V/m) @ t=1.02
-0.7264823742541417
% es.tEy (V/m) @ t=1.02
0
% es.tEz (V/m) @ t=1.02
1.8844178047639328
% V (V) @ t=1.02
0.009923468712141916
% es.normE (V/m) @ t=1.04
2.0560355880588475
% es.EX (V/m) @ t=1.04
-0.7328469373542855
% es.EY (V/m) @ t=1.04
0.2328226055690319
% es.EZ (V/m) @ t=1.04
1.9009268024211536
% es.tEX (V/m) @ t=1.04
-0.7328469373542997