% Model:              1 neuron.mph
% Version:            COMSOL 6.1.0.252
% Date:               Mar 18 2023, 12:28
% Dimension:          0
% Nodes:              14017
% Expressions:        14017
% Description:        Electric field norm, Electric field, X component, Electric field, Y component, Electric field, Z component, Tangential electric field, X component, Tangential electric field, Y component, Tangential electric field, Z component, Electric field, x component, Electric field, y component, Electric field, z component, Tangential electric field, x component, Tangential electric field, y component, Tangential electric field, z component, Electric potential
% Length unit:        mm
% x
2
% y
12.199999999999998
% z
2
% es.normE (V/m) @ t=0
0.7353264025879376
% es.EX (V/m) @ t=0
-0.5264274115018978
% es.EY (V/m) @ t=0
0.20048132749404468
% es.EZ (V/m) @ t=0
-0.4697529931745912
% es.tEX (V/m) @ t=0
-0.5264274115018972
% es.tEY (V/m) @ t=0
0
% es.tEZ (V/m) @ t=0
-0.46975299317459207
% es.Ex (V/m) @ t=0
-0.5264274115018978
% es.Ey (V/m) @ t=0
0.20048132749404468
% es.Ez (V/m) @ t=0
-0.4697529931745912
% es.tEx (V/m) @ t=0
-0.5264274115018972
% es.tEy (V/m) @ t=0
0
% es.tEz (V/m) @ t=0
-0.46975299317459207
% V (V) @ t=0
0.007483263079718345
% es.normE (V/m) @ t=0.02
0.6351087860399179
% es.EX (V/m) @ t=0.02
-0.4546806329447992
% es.EY (V/m) @ t=0.02
0.17315773323701
% es.EZ (V/m) @ t=0.02
-0.40573036956711706
% es.tEX (V/m) @ t=0.02
-0.45468063294479566
% es.tEY (V/m) @ t=0.02
0
% es.tEZ (V/m) @ t=0.02
-0.4057303695671184
% es.Ex (V/m) @ t=0.02
-0.4546806329447992
% es.Ey (V/m) @ t=0.02
0.17315773323701
% es.Ez (V/m) @ t=0.02
-0.40573036956711706
% es.tEx (V/m) @ t=0.02
-0.45468063294479566
% es.tEy (V/m) @ t=0.02
0
% es.tEz (V/m) @ t=0.02
-0.4057303695671184
% V (V) @ t=0.02
0.006463369301284876
% es.normE (V/m) @ t=0.04
0.6409500480576892
% es.EX (V/m) @ t=0.04
-0.4588624496191621
% es.EY (V/m) @ t=0.04
0.17475031184952017
% es.EZ (V/m) @ t=0.04
-0.4094619776941322
% es.tEX (V/m) @ t=0.04
-0.45886244961916356
% es.tEY (V/m) @ t=0.04
0
% es.tEZ (V/m) @ t=0.04
-0.4094619776941322
% es.Ex (V/m) @ t=0.04
-0.4588624496191621
% es.Ey (V/m) @ t=0.04
0.17475031184952017
% es.Ez (V/m) @ t=0.04
-0.4094619776941322
% es.tEx (V/m) @ t=0.04
-0.45886244961916356
% es.tEy (V/m) @ t=0.04
0
% es.tEz (V/m) @ t=0.04
-0.4094619776941322
% V (V) @ t=0.04
0.006522814507420555
% es.normE (V/m) @ t=0.06
0.6468449288639424
% es.EX (V/m) @ t=0.06
-0.4630826529490457
% es.EY (V/m) @ t=0.06
0.1763575070302903
% es.EZ (V/m) @ t=0.06
-0.4132278400985223
% es.tEX (V/m) @ t=0.06
-0.4630826529490435
% es.tEY (V/m) @ t=0.06
0
% es.tEZ (V/m) @ t=0.06
-0.4132278400985214
% es.Ex (V/m) @ t=0.06
-0.4630826529490457
% es.Ey (V/m) @ t=0.06
0.1763575070302903
% es.Ez (V/m) @ t=0.06
-0.4132278400985223
% es.tEx (V/m) @ t=0.06
-0.4630826529490435
% es.tEy (V/m) @ t=0.06
0
% es.tEz (V/m) @ t=0.06
-0.4132278400985214
% V (V) @ t=0.06
0.006582805518297576
% es.normE (V/m) @ t=0.08
0.6528274978880586
% es.EX (V/m) @ t=0.08
-0.4673656330478714
% es.EY (V/m) @ t=0.08
0.17798861024555568
% es.EZ (V/m) @ t=0.08
-0.41704972074001123
% es.tEX (V/m) @ t=0.08
-0.4673656330478688
% es.tEY (V/m) @ t=0.08
0
% es.tEZ (V/m) @ t=0.08
-0.41704972074000946
% es.Ex (V/m) @ t=0.08
-0.4673656330478714
% es.Ey (V/m) @ t=0.08
0.17798861024555568
% es.Ez (V/m) @ t=0.08
-0.41704972074001123
% es.tEx (V/m) @ t=0.08
-0.4673656330478688
% es.tEy (V/m) @ t=0.08
0
% es.tEz (V/m) @ t=0.08
-0.41704972074000946
% V (V) @ t=0.08
0.0066436888853168485
% es.normE (V/m) @ t=0.1
0.6588756862497529
% es.EX (V/m) @ t=0.1
-0.47169559060950583
% es.EY (V/m) @ t=0.1
0.17963760445492327
% es.EZ (V/m) @ t=0.1
-0.42091352126194925
% es.tEX (V/m) @ t=0.1
-0.4716955906095044
% es.tEY (V/m) @ t=0.1
0
% es.tEZ (V/m) @ t=0.1
-0.42091352126195325
% es.Ex (V/m) @ t=0.1
-0.47169559060950583
% es.Ey (V/m) @ t=0.1
0.17963760445492327
% es.Ez (V/m) @ t=0.1
-0.42091352126194925
% es.tEx (V/m) @ t=0.1
-0.4716955906095044
% es.tEy (V/m) @ t=0.1
0
% es.tEz (V/m) @ t=0.1
-0.42091352126195325
% V (V) @ t=0.1
0.006705240025274737
% es.normE (V/m) @ t=0.12
0.6649238746114425
% es.EX (V/m) @ t=0.12
-0.47602554817113674
% es.EY (V/m) @ t=0.12
0.18128659866428132
% es.EZ (V/m) @ t=0.12
-0.4247773217838886
% es.tEX (V/m) @ t=0.12
-0.4760255481711384
% es.tEY (V/m) @ t=0.12
0
% es.tEZ (V/m) @ t=0.12
-0.4247773217838908
% es.Ex (V/m) @ t=0.12
-0.47602554817113674
% es.Ey (V/m) @ t=0.12
0.18128659866428132
% es.Ez (V/m) @ t=0.12
-0.4247773217838886
% es.tEx (V/m) @ t=0.12
-0.4760255481711384
% es.tEy (V/m) @ t=0.12
0
% es.tEz (V/m) @ t=0.12
-0.4247773217838908
% V (V) @ t=0.12
0.006766791165232624
% es.normE (V/m) @ t=0.14
0.6710220407694582
% es.EX (V/m) @ t=0.14
-0.4803912854055411
% es.EY (V/m) @ t=0.14
0.18294921853946056
% es.EZ (V/m) @ t=0.14
-0.42867305005272627
% es.tEX (V/m) @ t=0.14
-0.4803912854055383
% es.tEY (V/m) @ t=0.14
0
% es.tEZ (V/m) @ t=0.14
-0.4286730500527298
% es.Ex (V/m) @ t=0.14
-0.4803912854055411
% es.Ey (V/m) @ t=0.14
0.18294921853946056
% es.Ez (V/m) @ t=0.14
-0.42867305005272627
% es.tEx (V/m) @ t=0.14
-0.4803912854055383
% es.tEy (V/m) @ t=0.14
0
% es.tEz (V/m) @ t=0.14
-0.4286730500527298
% V (V) @ t=0.14
0.006828850943843051
% es.normE (V/m) @ t=0.16
0.677394833241604
% es.EX (V/m) @ t=0.16
-0.484953630741482
% es.EY (V/m) @ t=0.16
0.18468671099120537
% es.EZ (V/m) @ t=0.16
-0.43274422021963854
% es.tEX (V/m) @ t=0.16
-0.48495363074148257
% es.tEY (V/m) @ t=0.16
0
% es.tEZ (V/m) @ t=0.16
-0.43274422021963854
% es.Ex (V/m) @ t=0.16
-0.484953630741482
% es.Ey (V/m) @ t=0.16
0.18468671099120537
% es.Ez (V/m) @ t=0.16
-0.43274422021963854
% es.tEx (V/m) @ t=0.16
-0.48495363074148257
% es.tEy (V/m) @ t=0.16
0
% es.tEz (V/m) @ t=0.16
-0.43274422021963854
% V (V) @ t=0.16
0.0068937056747849805
% es.normE (V/m) @ t=0.18
0.6837676257137468
% es.EX (V/m) @ t=0.18
-0.4895159760774215
% es.EY (V/m) @ t=0.18
0.18642420344292976
% es.EZ (V/m) @ t=0.18
-0.43681539038655703
% es.tEX (V/m) @ t=0.18
-0.48951597607742015
% es.tEY (V/m) @ t=0.18
0
% es.tEZ (V/m) @ t=0.18
-0.43681539038655526
% es.Ex (V/m) @ t=0.18
-0.4895159760774215
% es.Ey (V/m) @ t=0.18
0.18642420344292976
% es.Ez (V/m) @ t=0.18
-0.43681539038655703
% es.tEx (V/m) @ t=0.18
-0.48951597607742015
% es.tEy (V/m) @ t=0.18
0
% es.tEz (V/m) @ t=0.18
-0.43681539038655526
% V (V) @ t=0.18
0.006958560405726909
% es.normE (V/m) @ t=0.2
0.6901404181858909
% es.EX (V/m) @ t=0.2
-0.4940783214133545
% es.EY (V/m) @ t=0.2
0.18816169589467813
% es.EZ (V/m) @ t=0.2
-0.44088656055347375
% es.tEX (V/m) @ t=0.2
-0.4940783214133584
% es.tEY (V/m) @ t=0.2
0
% es.tEZ (V/m) @ t=0.2
-0.44088656055347464
% es.Ex (V/m) @ t=0.2
-0.4940783214133545
% es.Ey (V/m) @ t=0.2
0.18816169589467813
% es.Ez (V/m) @ t=0.2
-0.44088656055347375
% es.tEx (V/m) @ t=0.2
-0.4940783214133584
% es.tEy (V/m) @ t=0.2
0
% es.tEz (V/m) @ t=0.2
-0.44088656055347464
% V (V) @ t=0.2
0.007023415136668837
% es.normE (V/m) @ t=0.22
0.6965132106580391
% es.EX (V/m) @ t=0.22
-0.4986406667492981
% es.EY (V/m) @ t=0.22
0.18989918834641317
% es.EZ (V/m) @ t=0.22
-0.44495773072039135
% es.tEX (V/m) @ t=0.22
-0.4986406667492971
% es.tEY (V/m) @ t=0.22
0
% es.tEZ (V/m) @ t=0.22
-0.4449577307203949
% es.Ex (V/m) @ t=0.22
-0.4986406667492981
% es.Ey (V/m) @ t=0.22
0.18989918834641317
% es.Ez (V/m) @ t=0.22
-0.44495773072039135
% es.tEx (V/m) @ t=0.22
-0.4986406667492971
% es.tEy (V/m) @ t=0.22
0
% es.tEz (V/m) @ t=0.22
-0.4449577307203949
% V (V) @ t=0.22
0.007088269867610765
% es.normE (V/m) @ t=0.24
0.7028860031301798
% es.EX (V/m) @ t=0.24
-0.5032030120852372
% es.EY (V/m) @ t=0.24
0.19163668079814777
% es.EZ (V/m) @ t=0.24
-0.44902890088730185
% es.tEX (V/m) @ t=0.24
-0.503203012085236
% es.tEY (V/m) @ t=0.24
0
% es.tEZ (V/m) @ t=0.24
-0.44902890088730363
% es.Ex (V/m) @ t=0.24
-0.5032030120852372
% es.Ey (V/m) @ t=0.24
0.19163668079814777
% es.Ez (V/m) @ t=0.24
-0.44902890088730185
% es.tEx (V/m) @ t=0.24
-0.503203012085236
% es.tEy (V/m) @ t=0.24
0
% es.tEz (V/m) @ t=0.24
-0.44902890088730363
% V (V) @ t=0.24
0.007153124598552695
% es.normE (V/m) @ t=0.26
0.7092587956023246
% es.EX (V/m) @ t=0.26
-0.5077653574211748
% es.EY (V/m) @ t=0.26
0.19337417324988992
% es.EZ (V/m) @ t=0.26
-0.4531000710542177
% es.tEX (V/m) @ t=0.26
-0.5077653574211729
% es.tEY (V/m) @ t=0.26
0
% es.tEZ (V/m) @ t=0.26
-0.45310007105421946
% es.Ex (V/m) @ t=0.26
-0.5077653574211748
% es.Ey (V/m) @ t=0.26
0.19337417324988992
% es.Ez (V/m) @ t=0.26
-0.4531000710542177
% es.tEx (V/m) @ t=0.26
-0.5077653574211729
% es.tEy (V/m) @ t=0.26
0
% es.tEz (V/m) @ t=0.26
-0.45310007105421946
% V (V) @ t=0.26
0.007217979329494624
% es.normE (V/m) @ t=0.28
0.715864181037924
% es.EX (V/m) @ t=0.28
-0.5124942815020587
% es.EY (V/m) @ t=0.28
0.1951747455891193
% es.EZ (V/m) @ t=0.28
-0.45731993463201537
% es.tEX (V/m) @ t=0.28
-0.5124942815020583
% es.tEY (V/m) @ t=0.28
0
% es.tEZ (V/m) @ t=0.28
-0.4573199346320207
% es.Ex (V/m) @ t=0.28
-0.5124942815020587
% es.Ey (V/m) @ t=0.28
0.1951747455891193
% es.Ez (V/m) @ t=0.28
-0.45731993463201537
% es.tEx (V/m) @ t=0.28
-0.5124942815020583
% es.tEy (V/m) @ t=0.28
0
% es.tEz (V/m) @ t=0.28
-0.4573199346320207
% V (V) @ t=0.28
0.0072852222348056455
% es.normE (V/m) @ t=0.3
0.7229685256723963
% es.EX (V/m) @ t=0.3
-0.5175805508593386
% es.EY (V/m) @ t=0.3
0.19711063711234922
% es.EZ (V/m) @ t=0.3
-0.46185877580821844
% es.tEX (V/m) @ t=0.3
-0.5175805508593363
% es.tEY (V/m) @ t=0.3
0
% es.tEZ (V/m) @ t=0.3
-0.4618587758082189
% es.Ex (V/m) @ t=0.3
-0.5175805508593386
% es.Ey (V/m) @ t=0.3
0.19711063711234922
% es.Ez (V/m) @ t=0.3
-0.46185877580821844
% es.tEx (V/m) @ t=0.3
-0.5175805508593363
% es.tEy (V/m) @ t=0.3
0
% es.tEz (V/m) @ t=0.3
-0.4618587758082189
% V (V) @ t=0.3
0.00735758825969737
% es.normE (V/m) @ t=0.32
0.7300728703096449
% es.EX (V/m) @ t=0.32
-0.5226668202166161
% es.EY (V/m) @ t=0.32
0.19904652863555827
% es.EZ (V/m) @ t=0.32
-0.4663976169844162
% es.tEX (V/m) @ t=0.32
-0.5226668202166169
% es.tEY (V/m) @ t=0.32
0
% es.tEZ (V/m) @ t=0.32
-0.4663976169844162
% es.Ex (V/m) @ t=0.32
-0.5226668202166161
% es.Ey (V/m) @ t=0.32
0.19904652863555827
% es.Ez (V/m) @ t=0.32
-0.4663976169844162
% es.tEx (V/m) @ t=0.32
-0.5226668202166169
% es.tEy (V/m) @ t=0.32
0
% es.tEz (V/m) @ t=0.32
-0.4663976169844162
% V (V) @ t=0.32
0.007429954284589097
% es.normE (V/m) @ t=0.34
0.7371772149495958
% es.EX (V/m) @ t=0.34
-0.5277530895738912
% es.EY (V/m) @ t=0.34
0.20098242015877577
% es.EZ (V/m) @ t=0.34
-0.4709364581606108
% es.tEX (V/m) @ t=0.34
-0.5277530895738907
% es.tEY (V/m) @ t=0.34
0
% es.tEZ (V/m) @ t=0.34
-0.47093645816061347
% es.Ex (V/m) @ t=0.34
-0.5277530895738912
% es.Ey (V/m) @ t=0.34
0.20098242015877577
% es.Ez (V/m) @ t=0.34
-0.4709364581606108
% es.tEx (V/m) @ t=0.34
-0.5277530895738907
% es.tEy (V/m) @ t=0.34
0
% es.tEz (V/m) @ t=0.34
-0.47093645816061347
% V (V) @ t=0.34
0.007502320309480824
% es.normE (V/m) @ t=0.36
0.7442815595921763
% es.EX (V/m) @ t=0.36
-0.5328393589311583
% es.EY (V/m) @ t=0.36
0.20291831168199215
% es.EZ (V/m) @ t=0.36
-0.4754752993368143
% es.tEX (V/m) @ t=0.36
-0.5328393589311577
% es.tEY (V/m) @ t=0.36
0
% es.tEZ (V/m) @ t=0.36
-0.4754752993368143
% es.Ex (V/m) @ t=0.36
-0.5328393589311583
% es.Ey (V/m) @ t=0.36
0.20291831168199215
% es.Ez (V/m) @ t=0.36
-0.4754752993368143
% es.tEx (V/m) @ t=0.36
-0.5328393589311577
% es.tEy (V/m) @ t=0.36
0
% es.tEz (V/m) @ t=0.36
-0.4754752993368143
% V (V) @ t=0.36
0.0075746863343725485
% es.normE (V/m) @ t=0.38
0.7513859042373106
% es.EX (V/m) @ t=0.38
-0.5379256282884323
% es.EY (V/m) @ t=0.38
0.20485420320521852
% es.EZ (V/m) @ t=0.38
-0.48001414051300717
% es.tEX (V/m) @ t=0.38
-0.5379256282884317
% es.tEY (V/m) @ t=0.38
0
% es.tEZ (V/m) @ t=0.38
-0.48001414051300717
% es.Ex (V/m) @ t=0.38
-0.5379256282884323
% es.Ey (V/m) @ t=0.38
0.20485420320521852
% es.Ez (V/m) @ t=0.38
-0.48001414051300717
% es.tEx (V/m) @ t=0.38
-0.5379256282884317
% es.tEy (V/m) @ t=0.38
0
% es.tEz (V/m) @ t=0.38
-0.48001414051300717
% V (V) @ t=0.38
0.007647052359264275
% es.normE (V/m) @ t=0.4
0.7584902488849325
% es.EX (V/m) @ t=0.4
-0.5430118976457118
% es.EY (V/m) @ t=0.4
0.20679009472843246
% es.EZ (V/m) @ t=0.4
-0.4845529816892089
% es.tEX (V/m) @ t=0.4
-0.543011897645709
% es.tEY (V/m) @ t=0.4
0
% es.tEZ (V/m) @ t=0.4
-0.48455298168920446
% es.Ex (V/m) @ t=0.4
-0.5430118976457118
% es.Ey (V/m) @ t=0.4
0.20679009472843246
% es.Ez (V/m) @ t=0.4
-0.4845529816892089
% es.tEx (V/m) @ t=0.4
-0.543011897645709
% es.tEy (V/m) @ t=0.4
0
% es.tEz (V/m) @ t=0.4
-0.48455298168920446
% V (V) @ t=0.4
0.007719418384156
% es.normE (V/m) @ t=0.42
0.765594593534956
% es.EX (V/m) @ t=0.42
-0.5480981670029902
% es.EY (V/m) @ t=0.42
0.2087259862516384
% es.EZ (V/m) @ t=0.42
-0.48909182286539643
% es.tEX (V/m) @ t=0.42
-0.548098167002991
% es.tEY (V/m) @ t=0.42
0
% es.tEZ (V/m) @ t=0.42
-0.48909182286540176
% es.Ex (V/m) @ t=0.42
-0.5480981670029902
% es.Ey (V/m) @ t=0.42
0.2087259862516384
% es.Ez (V/m) @ t=0.42
-0.48909182286539643
% es.tEx (V/m) @ t=0.42
-0.548098167002991
% es.tEy (V/m) @ t=0.42
0
% es.tEz (V/m) @ t=0.42
-0.48909182286540176
% V (V) @ t=0.42
0.00779178440904773
% es.normE (V/m) @ t=0.44
0.7726989381873317
% es.EX (V/m) @ t=0.44
-0.5531844363602662
% es.EY (V/m) @ t=0.44
0.21066187777486212
% es.EZ (V/m) @ t=0.44
-0.4936306640415893
% es.tEX (V/m) @ t=0.44
-0.5531844363602652
% es.tEY (V/m) @ t=0.44
0
% es.tEZ (V/m) @ t=0.44
-0.49363066404159106
% es.Ex (V/m) @ t=0.44
-0.5531844363602662
% es.Ey (V/m) @ t=0.44
0.21066187777486212
% es.Ez (V/m) @ t=0.44
-0.4936306640415893
% es.tEx (V/m) @ t=0.44
-0.5531844363602652
% es.tEy (V/m) @ t=0.44
0
% es.tEz (V/m) @ t=0.44
-0.49363066404159106
% V (V) @ t=0.44
0.007864150433939452
% es.normE (V/m) @ t=0.46
0.7798032828419927
% es.EX (V/m) @ t=0.46
-0.5582707057175281
% es.EY (V/m) @ t=0.46
0.21259776929808027
% es.EZ (V/m) @ t=0.46
-0.49816950521780523
% es.tEX (V/m) @ t=0.46
-0.5582707057175271
% es.tEY (V/m) @ t=0.46
0
% es.tEZ (V/m) @ t=0.46
-0.49816950521781056
% es.Ex (V/m) @ t=0.46
-0.5582707057175281
% es.Ey (V/m) @ t=0.46
0.21259776929808027
% es.Ez (V/m) @ t=0.46
-0.49816950521780523
% es.tEx (V/m) @ t=0.46
-0.5582707057175271
% es.tEy (V/m) @ t=0.46
0
% es.tEz (V/m) @ t=0.46
-0.49816950521781056
% V (V) @ t=0.46
0.007936516458831179
% es.normE (V/m) @ t=0.48
0.786907627498867
% es.EX (V/m) @ t=0.48
-0.5633569750748056
% es.EY (V/m) @ t=0.48
0.214533660821294
% es.EZ (V/m) @ t=0.48
-0.5027083463939919
% es.tEX (V/m) @ t=0.48
-0.5633569750748042
% es.tEY (V/m) @ t=0.48
0
% es.tEZ (V/m) @ t=0.48
-0.5027083463939936
% es.Ex (V/m) @ t=0.48
-0.5633569750748056
% es.Ey (V/m) @ t=0.48
0.214533660821294
% es.Ez (V/m) @ t=0.48
-0.5027083463939919
% es.tEx (V/m) @ t=0.48
-0.5633569750748042
% es.tEy (V/m) @ t=0.48
0
% es.tEz (V/m) @ t=0.48
-0.5027083463939936
% V (V) @ t=0.48
0.008008882483722906
% es.normE (V/m) @ t=0.5
0.7940119721579071
% es.EX (V/m) @ t=0.5
-0.568443244432086
% es.EY (V/m) @ t=0.5
0.21646955234450793
% es.EZ (V/m) @ t=0.5
-0.5072471875701865
% es.tEX (V/m) @ t=0.5
-0.5684432444320868
% es.tEY (V/m) @ t=0.5
0
% es.tEZ (V/m) @ t=0.5
-0.5072471875701909
% es.Ex (V/m) @ t=0.5
-0.568443244432086
% es.Ey (V/m) @ t=0.5
0.21646955234450793
% es.Ez (V/m) @ t=0.5
-0.5072471875701865
% es.tEx (V/m) @ t=0.5
-0.5684432444320868
% es.tEy (V/m) @ t=0.5
0
% es.tEz (V/m) @ t=0.5
-0.5072471875701909
% V (V) @ t=0.5
0.008081248508614632
% es.normE (V/m) @ t=0.52
0.8011163168190603
% es.EX (V/m) @ t=0.52
-0.5735295137893671
% es.EY (V/m) @ t=0.52
0.21840544386773164
% es.EZ (V/m) @ t=0.52
-0.5117860287463909
% es.tEX (V/m) @ t=0.52
-0.5735295137893675
% es.tEY (V/m) @ t=0.52
0
% es.tEZ (V/m) @ t=0.52
-0.5117860287463909
% es.Ex (V/m) @ t=0.52
-0.5735295137893671
% es.Ey (V/m) @ t=0.52
0.21840544386773164
% es.Ez (V/m) @ t=0.52
-0.5117860287463909
% es.tEx (V/m) @ t=0.52
-0.5735295137893675
% es.tEy (V/m) @ t=0.52
0
% es.tEz (V/m) @ t=0.52
-0.5117860287463909
% V (V) @ t=0.52
0.008153614533506359
% es.normE (V/m) @ t=0.54
0.8082206614822418
% es.EX (V/m) @ t=0.54
-0.5786157831466298
% es.EY (V/m) @ t=0.54
0.22034133539094825
% es.EZ (V/m) @ t=0.54
-0.5163248699225882
% es.tEX (V/m) @ t=0.54
-0.5786157831466305
% es.tEY (V/m) @ t=0.54
0
% es.tEZ (V/m) @ t=0.54
-0.5163248699225846
% es.Ex (V/m) @ t=0.54
-0.5786157831466298
% es.Ey (V/m) @ t=0.54
0.22034133539094825
% es.Ez (V/m) @ t=0.54
-0.5163248699225882
% es.tEx (V/m) @ t=0.54
-0.5786157831466305
% es.tEy (V/m) @ t=0.54
0
% es.tEz (V/m) @ t=0.54
-0.5163248699225846
% V (V) @ t=0.54
0.008225980558398084
% es.normE (V/m) @ t=0.56
0.8158590068204051
% es.EX (V/m) @ t=0.56
-0.5840840919067913
% es.EY (V/m) @ t=0.56
0.22242418094250227
% es.EZ (V/m) @ t=0.56
-0.5212044241433533
% es.tEX (V/m) @ t=0.56
-0.5840840919067902
% es.tEY (V/m) @ t=0.56
0
% es.tEZ (V/m) @ t=0.56
-0.5212044241433489
% es.Ex (V/m) @ t=0.56
-0.5840840919067913
% es.Ey (V/m) @ t=0.56
0.22242418094250227
% es.Ez (V/m) @ t=0.56
-0.5212044241433533
% es.tEx (V/m) @ t=0.56
-0.5840840919067902
% es.tEy (V/m) @ t=0.56
0
% es.tEz (V/m) @ t=0.56
-0.5212044241433489
% V (V) @ t=0.56
0.008303695039300717
% es.normE (V/m) @ t=0.58
0.8237901025170971
% es.EX (V/m) @ t=0.58
-0.589761842670843
% es.EY (V/m) @ t=0.58
0.2245875897709051
% es.EZ (V/m) @ t=0.58
-0.5262707643926432
% es.tEX (V/m) @ t=0.58
-0.5897618426708438
% es.tEY (V/m) @ t=0.58
0
% es.tEZ (V/m) @ t=0.58
-0.5262707643926472
% es.Ex (V/m) @ t=0.58
-0.589761842670843
% es.Ey (V/m) @ t=0.58
0.2245875897709051
% es.Ez (V/m) @ t=0.58
-0.5262707643926432
% es.tEx (V/m) @ t=0.58
-0.5897618426708438
% es.tEy (V/m) @ t=0.58
0
% es.tEz (V/m) @ t=0.58
-0.5262707643926472
% V (V) @ t=0.58
0.008384341655831887
% es.normE (V/m) @ t=0.6
0.8317211982169099
% es.EX (V/m) @ t=0.6
-0.595439593434891
% es.EY (V/m) @ t=0.6
0.22675099859930326
% es.EZ (V/m) @ t=0.6
-0.5313371046419437
% es.tEX (V/m) @ t=0.6
-0.5954395934348882
% es.tEY (V/m) @ t=0.6
0
% es.tEZ (V/m) @ t=0.6
-0.5313371046419535
% es.Ex (V/m) @ t=0.6
-0.595439593434891
% es.Ey (V/m) @ t=0.6
0.22675099859930326
% es.Ez (V/m) @ t=0.6
-0.5313371046419437
% es.tEx (V/m) @ t=0.6
-0.5954395934348882
% es.tEy (V/m) @ t=0.6
0
% es.tEz (V/m) @ t=0.6
-0.5313371046419535
% V (V) @ t=0.6
0.008464988272363052
% es.normE (V/m) @ t=0.62
0.839652293919753
% es.EX (V/m) @ t=0.62
-0.601117344198944
% es.EY (V/m) @ t=0.62
0.22891440742769475
% es.EZ (V/m) @ t=0.62
-0.5364034448912425
% es.tEX (V/m) @ t=0.62
-0.6011173441989466
% es.tEY (V/m) @ t=0.62
0
% es.tEZ (V/m) @ t=0.62
-0.5364034448912403
% es.Ex (V/m) @ t=0.62
-0.601117344198944
% es.Ey (V/m) @ t=0.62
0.22891440742769475
% es.Ez (V/m) @ t=0.62
-0.5364034448912425
% es.tEx (V/m) @ t=0.62
-0.6011173441989466
% es.tEy (V/m) @ t=0.62
0
% es.tEz (V/m) @ t=0.62
-0.5364034448912403
% V (V) @ t=0.62
0.00854563488889422
% es.normE (V/m) @ t=0.64
0.8475833896255426
% es.EX (V/m) @ t=0.64
-0.6067950949629978
% es.EY (V/m) @ t=0.64
0.23107781625610335
% es.EZ (V/m) @ t=0.64
-0.5414697851405377
% es.tEX (V/m) @ t=0.64
-0.606795094962995
% es.tEY (V/m) @ t=0.64
0
% es.tEZ (V/m) @ t=0.64
-0.5414697851405377
% es.Ex (V/m) @ t=0.64
-0.6067950949629978
% es.Ey (V/m) @ t=0.64
0.23107781625610335
% es.Ez (V/m) @ t=0.64
-0.5414697851405377
% es.tEx (V/m) @ t=0.64
-0.606795094962995
% es.tEy (V/m) @ t=0.64
0
% es.tEz (V/m) @ t=0.64
-0.5414697851405377
% V (V) @ t=0.64
0.008626281505425387
% es.normE (V/m) @ t=0.66
0.8555144853341956
% es.EX (V/m) @ t=0.66
-0.6124728457270482
% es.EY (V/m) @ t=0.66
0.23324122508449552
% es.EZ (V/m) @ t=0.66
-0.5465361253898462
% es.tEX (V/m) @ t=0.66
-0.6124728457270456
% es.tEY (V/m) @ t=0.66
0
% es.tEZ (V/m) @ t=0.66
-0.5465361253898458
% es.Ex (V/m) @ t=0.66
-0.6124728457270482
% es.Ey (V/m) @ t=0.66
0.23324122508449552
% es.Ez (V/m) @ t=0.66
-0.5465361253898462
% es.tEx (V/m) @ t=0.66
-0.6124728457270456
% es.tEy (V/m) @ t=0.66
0
% es.tEz (V/m) @ t=0.66
-0.5465361253898458
% V (V) @ t=0.66
0.008706928121956555
% es.normE (V/m) @ t=0.68
0.863445581045621
% es.EX (V/m) @ t=0.68
-0.6181505964911059
% es.EY (V/m) @ t=0.68
0.23540463391288213
% es.EZ (V/m) @ t=0.68
-0.551602465639133
% es.tEX (V/m) @ t=0.68
-0.6181505964911045
% es.tEY (V/m) @ t=0.68
0
% es.tEZ (V/m) @ t=0.68
-0.551602465639145
% es.Ex (V/m) @ t=0.68
-0.6181505964911059
% es.Ey (V/m) @ t=0.68
0.23540463391288213
% es.Ez (V/m) @ t=0.68
-0.551602465639133
% es.tEx (V/m) @ t=0.68
-0.6181505964911045
% es.tEy (V/m) @ t=0.68
0
% es.tEz (V/m) @ t=0.68
-0.551602465639145
% V (V) @ t=0.68
0.008787574738487723
% es.normE (V/m) @ t=0.7
0.8713766767597547
% es.EX (V/m) @ t=0.7
-0.6238283472551484
% es.EY (V/m) @ t=0.7
0.23756804274128251
% es.EZ (V/m) @ t=0.7
-0.5566688058884313
% es.tEX (V/m) @ t=0.7
-0.6238283472551485
% es.tEY (V/m) @ t=0.7
0
% es.tEZ (V/m) @ t=0.7
-0.5566688058884388
% es.Ex (V/m) @ t=0.7
-0.6238283472551484
% es.Ey (V/m) @ t=0.7
0.23756804274128251
% es.Ez (V/m) @ t=0.7
-0.5566688058884313
% es.tEx (V/m) @ t=0.7
-0.6238283472551485
% es.tEy (V/m) @ t=0.7
0
% es.tEz (V/m) @ t=0.7
-0.5566688058884388
% V (V) @ t=0.7
0.00886822135501889
% es.normE (V/m) @ t=0.72
0.879307772476533
% es.EX (V/m) @ t=0.72
-0.6295060980192008
% es.EY (V/m) @ t=0.72
0.23973145156968068
% es.EZ (V/m) @ t=0.72
-0.5617351461377358
% es.tEX (V/m) @ t=0.72
-0.6295060980192002
% es.tEY (V/m) @ t=0.72
0
% es.tEZ (V/m) @ t=0.72
-0.561735146137738
% es.Ex (V/m) @ t=0.72
-0.6295060980192008
% es.Ey (V/m) @ t=0.72
0.23973145156968068
% es.Ez (V/m) @ t=0.72
-0.5617351461377358
% es.tEx (V/m) @ t=0.72
-0.6295060980192002
% es.tEy (V/m) @ t=0.72
0
% es.tEz (V/m) @ t=0.72
-0.561735146137738
% V (V) @ t=0.72
0.008948867971550055
% es.normE (V/m) @ t=0.74
0.8872388681958656
% es.EX (V/m) @ t=0.74
-0.6351838487832506
% es.EY (V/m) @ t=0.74
0.24189486039807906
% es.EZ (V/m) @ t=0.74
-0.5668014863870279
% es.tEX (V/m) @ t=0.74
-0.6351838487832517
% es.tEY (V/m) @ t=0.74
0
% es.tEZ (V/m) @ t=0.74
-0.5668014863870257
% es.Ex (V/m) @ t=0.74
-0.6351838487832506
% es.Ey (V/m) @ t=0.74
0.24189486039807906
% es.Ez (V/m) @ t=0.74
-0.5668014863870279
% es.tEx (V/m) @ t=0.74
-0.6351838487832517
% es.tEy (V/m) @ t=0.74
0
% es.tEz (V/m) @ t=0.74
-0.5668014863870257
% V (V) @ t=0.74
0.009029514588081225
% es.normE (V/m) @ t=0.76
0.8951699639176937
% es.EX (V/m) @ t=0.76
-0.6408615995473089
% es.EY (V/m) @ t=0.76
0.244058269226481
% es.EZ (V/m) @ t=0.76
-0.5718678266363133
% es.tEX (V/m) @ t=0.76
-0.6408615995473101
% es.tEY (V/m) @ t=0.76
0
% es.tEZ (V/m) @ t=0.76
-0.5718678266363204
% es.Ex (V/m) @ t=0.76
-0.6408615995473089
% es.Ey (V/m) @ t=0.76
0.244058269226481
% es.Ez (V/m) @ t=0.76
-0.5718678266363133
% es.tEx (V/m) @ t=0.76
-0.6408615995473101
% es.tEy (V/m) @ t=0.76
0
% es.tEz (V/m) @ t=0.76
-0.5718678266363204
% V (V) @ t=0.76
0.009110161204612392
% es.normE (V/m) @ t=0.78
0.9031010596419577
% es.EX (V/m) @ t=0.78
-0.6465393503113556
% es.EY (V/m) @ t=0.78
0.2462216780548745
% es.EZ (V/m) @ t=0.78
-0.5769341668856223
% es.tEX (V/m) @ t=0.78
-0.6465393503113568
% es.tEY (V/m) @ t=0.78
0
% es.tEZ (V/m) @ t=0.78
-0.5769341668856276
% es.Ex (V/m) @ t=0.78
-0.6465393503113556
% es.Ey (V/m) @ t=0.78
0.2462216780548745
% es.Ez (V/m) @ t=0.78
-0.5769341668856223
% es.tEx (V/m) @ t=0.78
-0.6465393503113568
% es.tEy (V/m) @ t=0.78
0
% es.tEz (V/m) @ t=0.78
-0.5769341668856276
% V (V) @ t=0.78
0.009190807821143558
% es.normE (V/m) @ t=0.8
0.9110321553685857
% es.EX (V/m) @ t=0.8
-0.6522171010754131
% es.EY (V/m) @ t=0.8
0.24838508688327576
% es.EZ (V/m) @ t=0.8
-0.5820005071349135
% es.tEX (V/m) @ t=0.8
-0.6522171010754096
% es.tEY (V/m) @ t=0.8
0
% es.tEZ (V/m) @ t=0.8
-0.5820005071349215
% es.Ex (V/m) @ t=0.8
-0.6522171010754131
% es.Ey (V/m) @ t=0.8
0.24838508688327576
% es.Ez (V/m) @ t=0.8
-0.5820005071349135
% es.tEx (V/m) @ t=0.8
-0.6522171010754096
% es.tEy (V/m) @ t=0.8
0
% es.tEz (V/m) @ t=0.8
-0.5820005071349215
% V (V) @ t=0.8
0.009271454437674726
% es.normE (V/m) @ t=0.82
0.9189632510975176
% es.EX (V/m) @ t=0.82
-0.6578948518394603
% es.EY (V/m) @ t=0.82
0.25054849571166415
% es.EZ (V/m) @ t=0.82
-0.5870668473842211
% es.tEX (V/m) @ t=0.82
-0.6578948518394561
% es.tEY (V/m) @ t=0.82
0
% es.tEZ (V/m) @ t=0.82
-0.5870668473842171
% es.Ex (V/m) @ t=0.82
-0.6578948518394603
% es.Ey (V/m) @ t=0.82
0.25054849571166415
% es.Ez (V/m) @ t=0.82
-0.5870668473842211
% es.tEx (V/m) @ t=0.82
-0.6578948518394561
% es.tEy (V/m) @ t=0.82
0
% es.tEz (V/m) @ t=0.82
-0.5870668473842171
% V (V) @ t=0.82
0.009352101054205895
% es.normE (V/m) @ t=0.84
0.9278116998290789
% es.EX (V/m) @ t=0.84
-0.6642293884906547
% es.EY (V/m) @ t=0.84
0.25296178177004935
% es.EZ (V/m) @ t=0.84
-0.5927192983495795
% es.tEX (V/m) @ t=0.84
-0.6642293884906554
% es.tEY (V/m) @ t=0.84
0
% es.tEZ (V/m) @ t=0.84
-0.5927192983495821
% es.Ex (V/m) @ t=0.84
-0.6642293884906547
% es.Ey (V/m) @ t=0.84
0.25296178177004935
% es.Ez (V/m) @ t=0.84
-0.5927192983495795
% es.tEx (V/m) @ t=0.84
-0.6642293884906554
% es.tEy (V/m) @ t=0.84
0
% es.tEz (V/m) @ t=0.84
-0.5927192983495821
% V (V) @ t=0.84
0.009442098057684888
% es.normE (V/m) @ t=0.86
0.9366847710349044
% es.EX (V/m) @ t=0.86
-0.6705815537894064
% es.EY (V/m) @ t=0.86
0.25538177472898393
% es.EZ (V/m) @ t=0.86
-0.5983874809855712
% es.tEX (V/m) @ t=0.86
-0.6705815537894035
% es.tEY (V/m) @ t=0.86
0
% es.tEZ (V/m) @ t=0.86
-0.5983874809855667
% es.Ex (V/m) @ t=0.86
-0.6705815537894064
% es.Ey (V/m) @ t=0.86
0.25538177472898393
% es.Ez (V/m) @ t=0.86
-0.5983874809855712
% es.tEx (V/m) @ t=0.86
-0.6705815537894035
% es.tEy (V/m) @ t=0.86
0
% es.tEz (V/m) @ t=0.86
-0.5983874809855667
% V (V) @ t=0.86
0.009532346032872204
% es.normE (V/m) @ t=0.88
0.9455578422420037
% es.EX (V/m) @ t=0.88
-0.6769337190881668
% es.EY (V/m) @ t=0.88
0.2578017676879294
% es.EZ (V/m) @ t=0.88
-0.6040556636215548
% es.tEX (V/m) @ t=0.88
-0.6769337190881641
% es.tEY (V/m) @ t=0.88
0
% es.tEZ (V/m) @ t=0.88
-0.6040556636215513
% es.Ex (V/m) @ t=0.88
-0.6769337190881668
% es.Ey (V/m) @ t=0.88
0.2578017676879294
% es.Ez (V/m) @ t=0.88
-0.6040556636215548
% es.tEx (V/m) @ t=0.88
-0.6769337190881641
% es.tEy (V/m) @ t=0.88
0
% es.tEz (V/m) @ t=0.88
-0.6040556636215513
% V (V) @ t=0.88
0.009622594008059518
% es.normE (V/m) @ t=0.9
0.9544309134503206
% es.EX (V/m) @ t=0.9
-0.6832858843869152
% es.EY (V/m) @ t=0.9
0.2602217606468533
% es.EZ (V/m) @ t=0.9
-0.6097238462575354
% es.tEX (V/m) @ t=0.9
-0.6832858843869136
% es.tEY (V/m) @ t=0.9
0
% es.tEZ (V/m) @ t=0.9
-0.6097238462575376
% es.Ex (V/m) @ t=0.9
-0.6832858843869152
% es.Ey (V/m) @ t=0.9
0.2602217606468533
% es.Ez (V/m) @ t=0.9
-0.6097238462575354
% es.tEx (V/m) @ t=0.9
-0.6832858843869136
% es.tEy (V/m) @ t=0.9
0
% es.tEz (V/m) @ t=0.9
-0.6097238462575376
% V (V) @ t=0.9
0.009712841983246834
% es.normE (V/m) @ t=0.92
0.9633039846598543
% es.EX (V/m) @ t=0.92
-0.6896380496856775
% es.EY (V/m) @ t=0.92
0.26264175360578457
% es.EZ (V/m) @ t=0.92
-0.6153920288935235
% es.tEX (V/m) @ t=0.92
-0.6896380496856813
% es.tEY (V/m) @ t=0.92
0
% es.tEZ (V/m) @ t=0.92
-0.6153920288935222
% es.Ex (V/m) @ t=0.92
-0.6896380496856775
% es.Ey (V/m) @ t=0.92
0.26264175360578457
% es.Ez (V/m) @ t=0.92
-0.6153920288935235
% es.tEx (V/m) @ t=0.92
-0.6896380496856813
% es.tEy (V/m) @ t=0.92
0
% es.tEz (V/m) @ t=0.92
-0.6153920288935222
% V (V) @ t=0.92
0.009803089958434154
% es.normE (V/m) @ t=0.94
0.972177055870543
% es.EX (V/m) @ t=0.94
-0.6959902149844281
% es.EY (V/m) @ t=0.94
0.2650617465647236
% es.EZ (V/m) @ t=0.94
-0.6210602115295036
% es.tEX (V/m) @ t=0.94
-0.6959902149844273
% es.tEY (V/m) @ t=0.94
0
% es.tEZ (V/m) @ t=0.94
-0.6210602115294996
% es.Ex (V/m) @ t=0.94
-0.6959902149844281
% es.Ey (V/m) @ t=0.94
0.2650617465647236
% es.Ez (V/m) @ t=0.94
-0.6210602115295036
% es.tEx (V/m) @ t=0.94
-0.6959902149844273
% es.tEy (V/m) @ t=0.94
0
% es.tEz (V/m) @ t=0.94
-0.6210602115294996
% V (V) @ t=0.94
0.009893337933621469
% es.normE (V/m) @ t=0.96
0.9810501270823795
% es.EX (V/m) @ t=0.96
-0.7023423802831905
% es.EY (V/m) @ t=0.96
0.2674817395236584
% es.EZ (V/m) @ t=0.96
-0.6267283941654909
% es.tEX (V/m) @ t=0.96
-0.702342380283191
% es.tEY (V/m) @ t=0.96
0
% es.tEZ (V/m) @ t=0.96
-0.6267283941654984
% es.Ex (V/m) @ t=0.96
-0.7023423802831905
% es.Ey (V/m) @ t=0.96
0.2674817395236584
% es.Ez (V/m) @ t=0.96
-0.6267283941654909
% es.tEx (V/m) @ t=0.96
-0.702342380283191
% es.tEy (V/m) @ t=0.96
0
% es.tEz (V/m) @ t=0.96
-0.6267283941654984
% V (V) @ t=0.96
0.009983585908808783
% es.normE (V/m) @ t=0.98
0.989923198295316
% es.EX (V/m) @ t=0.98
-0.7086945455819496
% es.EY (V/m) @ t=0.98
0.2699017324825983
% es.EZ (V/m) @ t=0.98
-0.6323965768014719
% es.tEX (V/m) @ t=0.98
-0.7086945455819449
% es.tEY (V/m) @ t=0.98
0
% es.tEZ (V/m) @ t=0.98
-0.6323965768014705
% es.Ex (V/m) @ t=0.98
-0.7086945455819496
% es.Ey (V/m) @ t=0.98
0.2699017324825983
% es.Ez (V/m) @ t=0.98
-0.6323965768014719
% es.tEx (V/m) @ t=0.98
-0.7086945455819449
% es.tEy (V/m) @ t=0.98
0
% es.tEz (V/m) @ t=0.98
-0.6323965768014705
% V (V) @ t=0.98
0.010073833883996103
% es.normE (V/m) @ t=1
0.9987962695093252
% es.EX (V/m) @ t=1
-0.7150467108807048
% es.EY (V/m) @ t=1
0.2723217254415198
% es.EZ (V/m) @ t=1
-0.6380647594374604
% es.tEX (V/m) @ t=1
-0.715046710880705
% es.tEY (V/m) @ t=1
0
% es.tEZ (V/m) @ t=1
-0.6380647594374622
% es.Ex (V/m) @ t=1
-0.7150467108807048
% es.Ey (V/m) @ t=1
0.2723217254415198
% es.Ez (V/m) @ t=1
-0.6380647594374604
% es.tEx (V/m) @ t=1
-0.715046710880705
% es.tEy (V/m) @ t=1
0
% es.tEz (V/m) @ t=1
-0.6380647594374622
% V (V) @ t=1
0.010164081859183417
% es.normE (V/m) @ t=1.02
1.0076693407243806
% es.EX (V/m) @ t=1.02
-0.7213988761794599
% es.EY (V/m) @ t=1.02
0.274741718400459
% es.EZ (V/m) @ t=1.02
-0.6437329420734406
% es.tEX (V/m) @ t=1.02
-0.7213988761794545
% es.tEY (V/m) @ t=1.02
0
% es.tEZ (V/m) @ t=1.02
-0.6437329420734468
% es.Ex (V/m) @ t=1.02
-0.7213988761794599
% es.Ey (V/m) @ t=1.02
0.274741718400459
% es.Ez (V/m) @ t=1.02
-0.6437329420734406
% es.tEx (V/m) @ t=1.02
-0.7213988761794545