% Model:              1 neuron.mph
% Version:            COMSOL 6.0.0.405
% Date:               Mar 16 2023, 17:23
% Dimension:          0
% Nodes:              14017
% Expressions:        14017
% Description:        Electric field norm, Electric field, X component, Electric field, Y component, Electric field, Z component, Tangential electric field, X component, Tangential electric field, Y component, Tangential electric field, Z component, Electric field, x component, Electric field, y component, Electric field, z component, Tangential electric field, x component, Tangential electric field, y component, Tangential electric field, z component, Electric potential
% Length unit:        mm
% x
1.33
% y
12.2
% z
2
% es.normE (V/m) @ t=0
1.4755488584703116
% es.EX (V/m) @ t=0
0.5880643713722276
% es.EY (V/m) @ t=0
0.15547276494797613
% es.EZ (V/m) @ t=0
-1.343147770449625
% es.tEX (V/m) @ t=0
0.5880643713722278
% es.tEY (V/m) @ t=0
0
% es.tEZ (V/m) @ t=0
-1.3431477704496295
% es.Ex (V/m) @ t=0
0.5880643713722276
% es.Ey (V/m) @ t=0
0.15547276494797613
% es.Ez (V/m) @ t=0
-1.343147770449625
% es.tEx (V/m) @ t=0
0.5880643713722278
% es.tEy (V/m) @ t=0
0
% es.tEz (V/m) @ t=0
-1.3431477704496295
% V (V) @ t=0
0.007377878210383133
% es.normE (V/m) @ t=0.02
1.274459638416245
% es.EX (V/m) @ t=0.02
0.5079223924864682
% es.EY (V/m) @ t=0.02
0.1342847871807309
% es.EZ (V/m) @ t=0.02
-1.1601022981090283
% es.tEX (V/m) @ t=0.02
0.5079223924864684
% es.tEY (V/m) @ t=0.02
0
% es.tEZ (V/m) @ t=0.02
-1.1601022981090345
% es.Ex (V/m) @ t=0.02
0.5079223924864682
% es.Ey (V/m) @ t=0.02
0.1342847871807309
% es.Ez (V/m) @ t=0.02
-1.1601022981090283
% es.tEx (V/m) @ t=0.02
0.5079223924864684
% es.tEy (V/m) @ t=0.02
0
% es.tEz (V/m) @ t=0.02
-1.1601022981090345
% V (V) @ t=0.02
0.006372413843004396
% es.normE (V/m) @ t=0.04
1.2861816167563096
% es.EX (V/m) @ t=0.04
0.5125940630979742
% es.EY (V/m) @ t=0.04
0.13551988636532997
% es.EZ (V/m) @ t=0.04
-1.170772462466105
% es.tEX (V/m) @ t=0.04
0.5125940630979744
% es.tEY (V/m) @ t=0.04
0
% es.tEZ (V/m) @ t=0.04
-1.170772462466104
% es.Ex (V/m) @ t=0.04
0.5125940630979742
% es.Ey (V/m) @ t=0.04
0.13551988636532997
% es.Ez (V/m) @ t=0.04
-1.170772462466105
% es.tEx (V/m) @ t=0.04
0.5125940630979744
% es.tEy (V/m) @ t=0.04
0
% es.tEz (V/m) @ t=0.04
-1.170772462466104
% V (V) @ t=0.04
0.006431024777045281
% es.normE (V/m) @ t=0.06
1.298010863627176
% es.EX (V/m) @ t=0.06
0.517308483399179
% es.EY (V/m) @ t=0.06
0.1367662859149732
% es.EZ (V/m) @ t=0.06
-1.1815402707428033
% es.tEX (V/m) @ t=0.06
0.5173084833991792
% es.tEY (V/m) @ t=0.06
0
% es.tEZ (V/m) @ t=0.06
-1.1815402707428042
% es.Ex (V/m) @ t=0.06
0.517308483399179
% es.Ey (V/m) @ t=0.06
0.1367662859149732
% es.Ez (V/m) @ t=0.06
-1.1815402707428033
% es.tEx (V/m) @ t=0.06
0.5173084833991792
% es.tEy (V/m) @ t=0.06
0
% es.tEz (V/m) @ t=0.06
-1.1815402707428042
% V (V) @ t=0.06
0.006490172143719299
% es.normE (V/m) @ t=0.08
1.310016928242196
% es.EX (V/m) @ t=0.08
0.5220933741247713
% es.EY (V/m) @ t=0.08
0.13803131927489343
% es.EZ (V/m) @ t=0.08
-1.1924690299840002
% es.tEX (V/m) @ t=0.08
0.5220933741247715
% es.tEY (V/m) @ t=0.08
0
% es.tEZ (V/m) @ t=0.08
-1.192469029984002
% es.Ex (V/m) @ t=0.08
0.5220933741247713
% es.Ey (V/m) @ t=0.08
0.13803131927489343
% es.Ez (V/m) @ t=0.08
-1.1924690299840002
% es.tEx (V/m) @ t=0.08
0.5220933741247715
% es.tEy (V/m) @ t=0.08
0
% es.tEz (V/m) @ t=0.08
-1.192469029984002
% V (V) @ t=0.08
0.006550203492095109
% es.normE (V/m) @ t=0.1
1.3221536469581638
% es.EX (V/m) @ t=0.1
0.5269303368298248
% es.EY (V/m) @ t=0.1
0.1393101215228918
% es.EZ (V/m) @ t=0.1
-1.2035167190512928
% es.tEX (V/m) @ t=0.1
0.526930336829825
% es.tEY (V/m) @ t=0.1
0
% es.tEZ (V/m) @ t=0.1
-1.2035167190513008
% es.Ex (V/m) @ t=0.1
0.5269303368298248
% es.Ey (V/m) @ t=0.1
0.1393101215228918
% es.Ez (V/m) @ t=0.1
-1.2035167190512928
% es.tEx (V/m) @ t=0.1
0.526930336829825
% es.tEy (V/m) @ t=0.1
0
% es.tEz (V/m) @ t=0.1
-1.2035167190513008
% V (V) @ t=0.1
0.006610888031897219
% es.normE (V/m) @ t=0.12
1.3342903656741196
% es.EX (V/m) @ t=0.12
0.531767299534849
% es.EY (V/m) @ t=0.12
0.14058892377090126
% es.EZ (V/m) @ t=0.12
-1.2145644081185845
% es.tEX (V/m) @ t=0.12
0.5317672995348492
% es.tEY (V/m) @ t=0.12
0
% es.tEZ (V/m) @ t=0.12
-1.2145644081185853
% es.Ex (V/m) @ t=0.12
0.531767299534849
% es.Ey (V/m) @ t=0.12
0.14058892377090126
% es.Ez (V/m) @ t=0.12
-1.2145644081185845
% es.tEx (V/m) @ t=0.12
0.5317672995348492
% es.tEy (V/m) @ t=0.12
0
% es.tEz (V/m) @ t=0.12
-1.2145644081185853
% V (V) @ t=0.12
0.00667157257169933
% es.normE (V/m) @ t=0.14
1.346531275865725
% es.EX (V/m) @ t=0.14
0.5366457864595311
% es.EY (V/m) @ t=0.14
0.14187870386970491
% es.EZ (V/m) @ t=0.14
-1.2257069396640796
% es.tEX (V/m) @ t=0.14
0.5366457864595313
% es.tEY (V/m) @ t=0.14
0
% es.tEZ (V/m) @ t=0.14
-1.2257069396640858
% es.Ex (V/m) @ t=0.14
0.5366457864595311
% es.Ey (V/m) @ t=0.14
0.14187870386970491
% es.Ez (V/m) @ t=0.14
-1.2257069396640796
% es.tEx (V/m) @ t=0.14
0.5366457864595313
% es.tEy (V/m) @ t=0.14
0
% es.tEz (V/m) @ t=0.14
-1.2257069396640858
% V (V) @ t=0.14
0.006732778093616884
% es.normE (V/m) @ t=0.16
1.3593186054263127
% es.EX (V/m) @ t=0.16
0.5417420420428245
% es.EY (V/m) @ t=0.16
0.14322605595583493
% es.EZ (V/m) @ t=0.16
-1.2373468609122709
% es.tEX (V/m) @ t=0.16
0.5417420420428245
% es.tEY (V/m) @ t=0.16
0
% es.tEZ (V/m) @ t=0.16
-1.2373468609122718
% es.Ex (V/m) @ t=0.16
0.5417420420428245
% es.Ey (V/m) @ t=0.16
0.14322605595583493
% es.Ez (V/m) @ t=0.16
-1.2373468609122709
% es.tEx (V/m) @ t=0.16
0.5417420420428245
% es.tEy (V/m) @ t=0.16
0
% es.tEz (V/m) @ t=0.16
-1.2373468609122718
% V (V) @ t=0.16
0.006796715842110663
% es.normE (V/m) @ t=0.18
1.3721059349868923
% es.EX (V/m) @ t=0.18
0.5468382976261179
% es.EY (V/m) @ t=0.18
0.14457340804197694
% es.EZ (V/m) @ t=0.18
-1.2489867821604514
% es.tEX (V/m) @ t=0.18
0.5468382976261181
% es.tEY (V/m) @ t=0.18
0
% es.tEZ (V/m) @ t=0.18
-1.2489867821604541
% es.Ex (V/m) @ t=0.18
0.5468382976261179
% es.Ey (V/m) @ t=0.18
0.14457340804197694
% es.Ez (V/m) @ t=0.18
-1.2489867821604514
% es.tEx (V/m) @ t=0.18
0.5468382976261181
% es.tEy (V/m) @ t=0.18
0
% es.tEz (V/m) @ t=0.18
-1.2489867821604541
% V (V) @ t=0.18
0.006860653590604442
% es.normE (V/m) @ t=0.2
1.3848932645474834
% es.EX (V/m) @ t=0.2
0.5519345532094111
% es.EY (V/m) @ t=0.2
0.14592076012810518
% es.EZ (V/m) @ t=0.2
-1.2606267034086462
% es.tEX (V/m) @ t=0.2
0.5519345532094113
% es.tEY (V/m) @ t=0.2
0
% es.tEZ (V/m) @ t=0.2
-1.2606267034086507
% es.Ex (V/m) @ t=0.2
0.5519345532094111
% es.Ey (V/m) @ t=0.2
0.14592076012810518
% es.Ez (V/m) @ t=0.2
-1.2606267034086462
% es.tEx (V/m) @ t=0.2
0.5519345532094113
% es.tEy (V/m) @ t=0.2
0
% es.tEz (V/m) @ t=0.2
-1.2606267034086507
% V (V) @ t=0.2
0.006924591339098222
% es.normE (V/m) @ t=0.22
1.3976805941080497
% es.EX (V/m) @ t=0.22
0.557030808792683
% es.EY (V/m) @ t=0.22
0.14726811221423475
% es.EZ (V/m) @ t=0.22
-1.2722666246568233
% es.tEX (V/m) @ t=0.22
0.5570308087926832
% es.tEY (V/m) @ t=0.22
0
% es.tEZ (V/m) @ t=0.22
-1.272266624656826
% es.Ex (V/m) @ t=0.22
0.557030808792683
% es.Ey (V/m) @ t=0.22
0.14726811221423475
% es.Ez (V/m) @ t=0.22
-1.2722666246568233
% es.tEx (V/m) @ t=0.22
0.5570308087926832
% es.tEy (V/m) @ t=0.22
0
% es.tEz (V/m) @ t=0.22
-1.272266624656826
% V (V) @ t=0.22
0.006988529087592001
% es.normE (V/m) @ t=0.24
1.4104679236686455
% es.EX (V/m) @ t=0.24
0.5621270643759904
% es.EY (V/m) @ t=0.24
0.14861546430035544
% es.EZ (V/m) @ t=0.24
-1.283906545905018
% es.tEX (V/m) @ t=0.24
0.5621270643759906
% es.tEY (V/m) @ t=0.24
0
% es.tEZ (V/m) @ t=0.24
-1.2839065459050225
% es.Ex (V/m) @ t=0.24
0.5621270643759904
% es.Ey (V/m) @ t=0.24
0.14861546430035544
% es.Ez (V/m) @ t=0.24
-1.283906545905018
% es.tEx (V/m) @ t=0.24
0.5621270643759906
% es.tEy (V/m) @ t=0.24
0
% es.tEz (V/m) @ t=0.24
-1.2839065459050225
% V (V) @ t=0.24
0.00705246683608578
% es.normE (V/m) @ t=0.26
1.4232552532292244
% es.EX (V/m) @ t=0.26
0.5672233199592764
% es.EY (V/m) @ t=0.26
0.14996281638648723
% es.EZ (V/m) @ t=0.26
-1.2955464671532022
% es.tEX (V/m) @ t=0.26
0.5672233199592767
% es.tEY (V/m) @ t=0.26
0
% es.tEZ (V/m) @ t=0.26
-1.2955464671532084
% es.Ex (V/m) @ t=0.26
0.5672233199592764
% es.Ey (V/m) @ t=0.26
0.14996281638648723
% es.Ez (V/m) @ t=0.26
-1.2955464671532022
% es.tEx (V/m) @ t=0.26
0.5672233199592767
% es.tEy (V/m) @ t=0.26
0
% es.tEz (V/m) @ t=0.26
-1.2955464671532084
% V (V) @ t=0.26
0.007116404584579557
% es.normE (V/m) @ t=0.28
1.4365260596949558
% es.EX (V/m) @ t=0.28
0.572512275063241
% es.EY (V/m) @ t=0.28
0.15136114044207183
% es.EZ (V/m) @ t=0.28
-1.307626474336721
% es.tEX (V/m) @ t=0.28
0.5725122750632412
% es.tEY (V/m) @ t=0.28
0
% es.tEZ (V/m) @ t=0.28
-1.3076264743367254
% es.Ex (V/m) @ t=0.28
0.572512275063241
% es.Ey (V/m) @ t=0.28
0.15136114044207183
% es.Ez (V/m) @ t=0.28
-1.307626474336721
% es.tEx (V/m) @ t=0.28
0.5725122750632412
% es.tEy (V/m) @ t=0.28
0
% es.tEz (V/m) @ t=0.28
-1.3076264743367254
% V (V) @ t=0.28
0.0071827586203240526
% es.normE (V/m) @ t=0.3
1.4507771718945985
% es.EX (V/m) @ t=0.3
0.578191950888346
% es.EY (V/m) @ t=0.3
0.15286281610225272
% es.EZ (V/m) @ t=0.3
-1.3205988070092571
% es.tEX (V/m) @ t=0.3
0.5781919508883462
% es.tEY (V/m) @ t=0.3
0
% es.tEZ (V/m) @ t=0.3
-1.3205988070092634
% es.Ex (V/m) @ t=0.3
0.578191950888346
% es.Ey (V/m) @ t=0.3
0.15286281610225272
% es.Ez (V/m) @ t=0.3
-1.3205988070092571
% es.tEx (V/m) @ t=0.3
0.5781919508883462
% es.tEy (V/m) @ t=0.3
0
% es.tEz (V/m) @ t=0.3
-1.3205988070092634
% V (V) @ t=0.3
0.007254011959885159
% es.normE (V/m) @ t=0.32
1.4650282840942639
% es.EX (V/m) @ t=0.32
0.5838716267134585
% es.EY (V/m) @ t=0.32
0.1543644917624274
% es.EZ (V/m) @ t=0.32
-1.3335711396817986
% es.tEX (V/m) @ t=0.32
0.5838716267134587
% es.tEY (V/m) @ t=0.32
0
% es.tEZ (V/m) @ t=0.32
-1.3335711396817995
% es.Ex (V/m) @ t=0.32
0.5838716267134585
% es.Ey (V/m) @ t=0.32
0.1543644917624274
% es.Ez (V/m) @ t=0.32
-1.3335711396817986
% es.tEx (V/m) @ t=0.32
0.5838716267134587
% es.tEy (V/m) @ t=0.32
0
% es.tEz (V/m) @ t=0.32
-1.3335711396817995
% V (V) @ t=0.32
0.007325265299446262
% es.normE (V/m) @ t=0.34
1.4792793962939386
% es.EX (V/m) @ t=0.34
0.5895513025385639
% es.EY (V/m) @ t=0.34
0.15586616742261583
% es.EZ (V/m) @ t=0.34
-1.3465434723543366
% es.tEX (V/m) @ t=0.34
0.5895513025385641
% es.tEY (V/m) @ t=0.34
0
% es.tEZ (V/m) @ t=0.34
-1.3465434723543357
% es.Ex (V/m) @ t=0.34
0.5895513025385639
% es.Ey (V/m) @ t=0.34
0.15586616742261583
% es.Ez (V/m) @ t=0.34
-1.3465434723543366
% es.tEx (V/m) @ t=0.34
0.5895513025385641
% es.tEy (V/m) @ t=0.34
0
% es.tEz (V/m) @ t=0.34
-1.3465434723543357
% V (V) @ t=0.34
0.007396518639007368
% es.normE (V/m) @ t=0.36
1.4935305084936292
% es.EX (V/m) @ t=0.36
0.5952309783636622
% es.EY (V/m) @ t=0.36
0.15736784308278384
% es.EZ (V/m) @ t=0.36
-1.3595158050268816
% es.tEX (V/m) @ t=0.36
0.5952309783636625
% es.tEY (V/m) @ t=0.36
0
% es.tEZ (V/m) @ t=0.36
-1.359515805026886
% es.Ex (V/m) @ t=0.36
0.5952309783636622
% es.Ey (V/m) @ t=0.36
0.15736784308278384
% es.Ez (V/m) @ t=0.36
-1.3595158050268816
% es.tEx (V/m) @ t=0.36
0.5952309783636625
% es.tEy (V/m) @ t=0.36
0
% es.tEz (V/m) @ t=0.36
-1.359515805026886
% V (V) @ t=0.36
0.007467771978568475
% es.normE (V/m) @ t=0.38
1.5077816206933268
% es.EX (V/m) @ t=0.38
0.6009106541887748
% es.EY (V/m) @ t=0.38
0.15886951874295852
% es.EZ (V/m) @ t=0.38
-1.3724881376994125
% es.tEX (V/m) @ t=0.38
0.600910654188775
% es.tEY (V/m) @ t=0.38
0
% es.tEZ (V/m) @ t=0.38
-1.372488137699417
% es.Ex (V/m) @ t=0.38
0.6009106541887748
% es.Ey (V/m) @ t=0.38
0.15886951874295852
% es.Ez (V/m) @ t=0.38
-1.3724881376994125
% es.tEx (V/m) @ t=0.38
0.600910654188775
% es.tEy (V/m) @ t=0.38
0
% es.tEz (V/m) @ t=0.38
-1.372488137699417
% V (V) @ t=0.38
0.0075390253181295795
% es.normE (V/m) @ t=0.4
1.522032732893047
% es.EX (V/m) @ t=0.4
0.6065903300138802
% es.EY (V/m) @ t=0.4
0.16037119440313852
% es.EZ (V/m) @ t=0.4
-1.3854604703719557
% es.tEX (V/m) @ t=0.4
0.6065903300138804
% es.tEY (V/m) @ t=0.4
0
% es.tEZ (V/m) @ t=0.4
-1.3854604703719584
% es.Ex (V/m) @ t=0.4
0.6065903300138802
% es.Ey (V/m) @ t=0.4
0.16037119440313852
% es.Ez (V/m) @ t=0.4
-1.3854604703719557
% es.tEx (V/m) @ t=0.4
0.6065903300138804
% es.tEy (V/m) @ t=0.4
0
% es.tEz (V/m) @ t=0.4
-1.3854604703719584
% V (V) @ t=0.4
0.007610278657690685
% es.normE (V/m) @ t=0.42
1.536283845092779
% es.EX (V/m) @ t=0.42
0.6122700058389856
% es.EY (V/m) @ t=0.42
0.16187287006330964
% es.EZ (V/m) @ t=0.42
-1.398432803044499
% es.tEX (V/m) @ t=0.42
0.6122700058389858
% es.tEY (V/m) @ t=0.42
0
% es.tEZ (V/m) @ t=0.42
-1.3984328030445052
% es.Ex (V/m) @ t=0.42
0.6122700058389856
% es.Ey (V/m) @ t=0.42
0.16187287006330964
% es.Ez (V/m) @ t=0.42
-1.398432803044499
% es.tEx (V/m) @ t=0.42
0.6122700058389858
% es.tEy (V/m) @ t=0.42
0
% es.tEz (V/m) @ t=0.42
-1.3984328030445052
% V (V) @ t=0.42
0.007681531997251791
% es.normE (V/m) @ t=0.44
1.550534957292517
% es.EX (V/m) @ t=0.44
0.6179496816640906
% es.EY (V/m) @ t=0.44
0.16337454572349408
% es.EZ (V/m) @ t=0.44
-1.4114051357170334
% es.tEX (V/m) @ t=0.44
0.6179496816640908
% es.tEY (V/m) @ t=0.44
0
% es.tEZ (V/m) @ t=0.44
-1.4114051357170343
% es.Ex (V/m) @ t=0.44
0.6179496816640906
% es.Ey (V/m) @ t=0.44
0.16337454572349408
% es.Ez (V/m) @ t=0.44
-1.4114051357170334
% es.tEx (V/m) @ t=0.44
0.6179496816640908
% es.tEy (V/m) @ t=0.44
0
% es.tEz (V/m) @ t=0.44
-1.4114051357170343
% V (V) @ t=0.44
0.007752785336812898
% es.normE (V/m) @ t=0.46
1.564786069492281
% es.EX (V/m) @ t=0.46
0.6236293574892107
% es.EY (V/m) @ t=0.46
0.16487622138367897
% es.EZ (V/m) @ t=0.46
-1.4243774683895767
% es.tEX (V/m) @ t=0.46
0.6236293574892109
% es.tEY (V/m) @ t=0.46
0
% es.tEZ (V/m) @ t=0.46
-1.4243774683895758
% es.Ex (V/m) @ t=0.46
0.6236293574892107
% es.Ey (V/m) @ t=0.46
0.16487622138367897
% es.Ez (V/m) @ t=0.46
-1.4243774683895767
% es.tEx (V/m) @ t=0.46
0.6236293574892109
% es.tEy (V/m) @ t=0.46
0
% es.tEz (V/m) @ t=0.46
-1.4243774683895758
% V (V) @ t=0.46
0.007824038676374
% es.normE (V/m) @ t=0.48
1.579037181692047
% es.EX (V/m) @ t=0.48
0.629309033314309
% es.EY (V/m) @ t=0.48
0.1663778970438483
% es.EZ (V/m) @ t=0.48
-1.43734980106212
% es.tEX (V/m) @ t=0.48
0.6293090333143092
% es.tEY (V/m) @ t=0.48
0
% es.tEZ (V/m) @ t=0.48
-1.4373498010621226
% es.Ex (V/m) @ t=0.48
0.629309033314309
% es.Ey (V/m) @ t=0.48
0.1663778970438483
% es.Ez (V/m) @ t=0.48
-1.43734980106212
% es.tEx (V/m) @ t=0.48
0.6293090333143092
% es.tEy (V/m) @ t=0.48
0
% es.tEz (V/m) @ t=0.48
-1.4373498010621226
% V (V) @ t=0.48
0.007895292015935107
% es.normE (V/m) @ t=0.5
1.59328829389182
% es.EX (V/m) @ t=0.5
0.634988709139418
% es.EY (V/m) @ t=0.5
0.1678795727040301
% es.EZ (V/m) @ t=0.5
-1.4503221337346526
% es.tEX (V/m) @ t=0.5
0.6349887091394146
% es.tEY (V/m) @ t=0.5
0
% es.tEZ (V/m) @ t=0.5
-1.450322133734657
% es.Ex (V/m) @ t=0.5
0.634988709139418
% es.Ey (V/m) @ t=0.5
0.1678795727040301
% es.Ez (V/m) @ t=0.5
-1.4503221337346526
% es.tEx (V/m) @ t=0.5
0.6349887091394146
% es.tEy (V/m) @ t=0.5
0
% es.tEz (V/m) @ t=0.5
-1.450322133734657
% V (V) @ t=0.5
0.00796654535549621
% es.normE (V/m) @ t=0.52
1.6075394060916117
% es.EX (V/m) @ t=0.52
0.6406683849645267
% es.EY (V/m) @ t=0.52
0.16938124836420165
% es.EZ (V/m) @ t=0.52
-1.463294466407194
% es.tEX (V/m) @ t=0.52
0.6406683849645272
% es.tEY (V/m) @ t=0.52
0
% es.tEZ (V/m) @ t=0.52
-1.4632944664071967
% es.Ex (V/m) @ t=0.52
0.6406683849645267
% es.Ey (V/m) @ t=0.52
0.16938124836420165
% es.Ez (V/m) @ t=0.52
-1.463294466407194
% es.tEx (V/m) @ t=0.52
0.6406683849645272
% es.tEy (V/m) @ t=0.52
0
% es.tEz (V/m) @ t=0.52
-1.4632944664071967
% V (V) @ t=0.52
0.008037798695057316
% es.normE (V/m) @ t=0.54
1.62179051829141
% es.EX (V/m) @ t=0.54
0.6463480607896319
% es.EY (V/m) @ t=0.54
0.1708829240243941
% es.EZ (V/m) @ t=0.54
-1.4762667990797302
% es.tEX (V/m) @ t=0.54
0.6463480607896321
% es.tEY (V/m) @ t=0.54
0
% es.tEZ (V/m) @ t=0.54
-1.4762667990797365
% es.Ex (V/m) @ t=0.54
0.6463480607896319
% es.Ey (V/m) @ t=0.54
0.1708829240243941
% es.Ez (V/m) @ t=0.54
-1.4762667990797302
% es.tEx (V/m) @ t=0.54
0.6463480607896321
% es.tEy (V/m) @ t=0.54
0
% es.tEz (V/m) @ t=0.54
-1.4762667990797365
% V (V) @ t=0.54
0.008109052034618423
% es.normE (V/m) @ t=0.56
1.637155656122967
% es.EX (V/m) @ t=0.56
0.6524716753261524
% es.EY (V/m) @ t=0.56
0.17250189124945292
% es.EZ (V/m) @ t=0.56
-1.4902532212596737
% es.tEX (V/m) @ t=0.56
0.6524716753261526
% es.tEY (V/m) @ t=0.56
0
% es.tEZ (V/m) @ t=0.56
-1.4902532212596764
% es.Ex (V/m) @ t=0.56
0.6524716753261524
% es.Ey (V/m) @ t=0.56
0.17250189124945292
% es.Ez (V/m) @ t=0.56
-1.4902532212596737
% es.tEx (V/m) @ t=0.56
0.6524716753261526
% es.tEy (V/m) @ t=0.56
0
% es.tEz (V/m) @ t=0.56
-1.4902532212596764
% V (V) @ t=0.56
0.008185878998171662
% es.normE (V/m) @ t=0.58
1.653068029456706
% es.EX (V/m) @ t=0.58
0.6588133629632964
% es.EY (V/m) @ t=0.58
0.17417847484039406
% es.EZ (V/m) @ t=0.58
-1.504737787975091
% es.tEX (V/m) @ t=0.58
0.6588133629632931
% es.tEY (V/m) @ t=0.58
0
% es.tEZ (V/m) @ t=0.58
-1.5047377879750936
% es.Ex (V/m) @ t=0.58
0.6588133629632964
% es.Ey (V/m) @ t=0.58
0.17417847484039406
% es.Ez (V/m) @ t=0.58
-1.504737787975091
% es.tEx (V/m) @ t=0.58
0.6588133629632931
% es.tEy (V/m) @ t=0.58
0
% es.tEz (V/m) @ t=0.58
-1.5047377879750936
% V (V) @ t=0.58
0.00826544385647102
% es.normE (V/m) @ t=0.6
1.6689804027904493
% es.EX (V/m) @ t=0.6
0.6651550506004533
% es.EY (V/m) @ t=0.6
0.17585505843134763
% es.EZ (V/m) @ t=0.6
-1.519222354690501
% es.tEX (V/m) @ t=0.6
0.6651550506004535
% es.tEY (V/m) @ t=0.6
0
% es.tEZ (V/m) @ t=0.6
-1.5192223546905002
% es.Ex (V/m) @ t=0.6
0.6651550506004533
% es.Ey (V/m) @ t=0.6
0.17585505843134763
% es.Ez (V/m) @ t=0.6
-1.519222354690501
% es.tEx (V/m) @ t=0.6
0.6651550506004535
% es.tEy (V/m) @ t=0.6
0
% es.tEz (V/m) @ t=0.6
-1.5192223546905002
% V (V) @ t=0.6
0.00834500871477038
% es.normE (V/m) @ t=0.62
1.6848927761241894
% es.EX (V/m) @ t=0.62
0.6714967382375934
% es.EY (V/m) @ t=0.62
0.1775316420223092
% es.EZ (V/m) @ t=0.62
-1.5337069214059094
% es.tEX (V/m) @ t=0.62
0.6714967382375936
% es.tEY (V/m) @ t=0.62
0
% es.tEZ (V/m) @ t=0.62
-1.5337069214059085
% es.Ex (V/m) @ t=0.62
0.6714967382375934
% es.Ey (V/m) @ t=0.62
0.1775316420223092
% es.Ez (V/m) @ t=0.62
-1.5337069214059094
% es.tEx (V/m) @ t=0.62
0.6714967382375936
% es.tEy (V/m) @ t=0.62
0
% es.tEz (V/m) @ t=0.62
-1.5337069214059085
% V (V) @ t=0.62
0.00842457357306974
% es.normE (V/m) @ t=0.64
1.7008051494579242
% es.EX (V/m) @ t=0.64
0.6778384258747263
% es.EY (V/m) @ t=0.64
0.1792082256132459
% es.EZ (V/m) @ t=0.64
-1.5481914881213132
% es.tEX (V/m) @ t=0.64
0.6778384258747265
% es.tEY (V/m) @ t=0.64
0
% es.tEZ (V/m) @ t=0.64
-1.548191488121315
% es.Ex (V/m) @ t=0.64
0.6778384258747263
% es.Ey (V/m) @ t=0.64
0.1792082256132459
% es.Ez (V/m) @ t=0.64
-1.5481914881213132
% es.tEx (V/m) @ t=0.64
0.6778384258747265
% es.tEy (V/m) @ t=0.64
0
% es.tEz (V/m) @ t=0.64
-1.548191488121315
% V (V) @ t=0.64
0.008504138431369098
% es.normE (V/m) @ t=0.66
1.7167175227916798
% es.EX (V/m) @ t=0.66
0.684180113511873
% es.EY (V/m) @ t=0.66
0.18088480920419148
% es.EZ (V/m) @ t=0.66
-1.5626760548367296
% es.tEX (V/m) @ t=0.66
0.6841801135118732
% es.tEY (V/m) @ t=0.66
0
% es.tEZ (V/m) @ t=0.66
-1.562676054836734
% es.Ex (V/m) @ t=0.66
0.684180113511873
% es.Ey (V/m) @ t=0.66
0.18088480920419148
% es.Ez (V/m) @ t=0.66
-1.5626760548367296
% es.tEx (V/m) @ t=0.66
0.6841801135118732
% es.tEy (V/m) @ t=0.66
0
% es.tEz (V/m) @ t=0.66
-1.562676054836734
% V (V) @ t=0.66
0.008583703289668457
% es.normE (V/m) @ t=0.68
1.7326298961254276
% es.EX (V/m) @ t=0.68
0.6905218011490131
% es.EY (V/m) @ t=0.68
0.1825613927951406
% es.EZ (V/m) @ t=0.68
-1.5771606215521343
% es.tEX (V/m) @ t=0.68
0.6905218011490133
% es.tEY (V/m) @ t=0.68
0
% es.tEZ (V/m) @ t=0.68
-1.5771606215521388
% es.Ex (V/m) @ t=0.68
0.6905218011490131
% es.Ey (V/m) @ t=0.68
0.1825613927951406
% es.Ez (V/m) @ t=0.68
-1.5771606215521343
% es.tEx (V/m) @ t=0.68
0.6905218011490133
% es.tEy (V/m) @ t=0.68
0
% es.tEz (V/m) @ t=0.68
-1.5771606215521388
% V (V) @ t=0.68
0.008663268147967817
% es.normE (V/m) @ t=0.7
1.7485422694591952
% es.EX (V/m) @ t=0.7
0.69686348878616
% es.EY (V/m) @ t=0.7
0.18423797638609862
% es.EZ (V/m) @ t=0.7
-1.5916451882675533
% es.tEX (V/m) @ t=0.7
0.6968634887861604
% es.tEY (V/m) @ t=0.7
0
% es.tEZ (V/m) @ t=0.7
-1.5916451882675542
% es.Ex (V/m) @ t=0.7
0.69686348878616
% es.Ey (V/m) @ t=0.7
0.18423797638609862
% es.Ez (V/m) @ t=0.7
-1.5916451882675533
% es.tEx (V/m) @ t=0.7
0.6968634887861604
% es.tEy (V/m) @ t=0.7
0
% es.tEz (V/m) @ t=0.7
-1.5916451882675542
% V (V) @ t=0.7
0.008742833006267173
% es.normE (V/m) @ t=0.72
1.7644546427929475
% es.EX (V/m) @ t=0.72
0.7032051764232958
% es.EY (V/m) @ t=0.72
0.18591455997705753
% es.EZ (V/m) @ t=0.72
-1.6061297549829563
% es.tEX (V/m) @ t=0.72
0.7032051764232925
% es.tEY (V/m) @ t=0.72
0
% es.tEZ (V/m) @ t=0.72
-1.6061297549829607
% es.Ex (V/m) @ t=0.72
0.7032051764232958
% es.Ey (V/m) @ t=0.72
0.18591455997705753
% es.Ez (V/m) @ t=0.72
-1.6061297549829563
% es.tEx (V/m) @ t=0.72
0.7032051764232925
% es.tEy (V/m) @ t=0.72
0
% es.tEz (V/m) @ t=0.72
-1.6061297549829607
% V (V) @ t=0.72
0.008822397864566532
% es.normE (V/m) @ t=0.74
1.7803670161267124
% es.EX (V/m) @ t=0.74
0.709546864060447
% es.EY (V/m) @ t=0.74
0.1875911435679969
% es.EZ (V/m) @ t=0.74
-1.6206143216983646
% es.tEX (V/m) @ t=0.74
0.7095468640604472
% es.tEY (V/m) @ t=0.74
0
% es.tEZ (V/m) @ t=0.74
-1.6206143216983726
% es.Ex (V/m) @ t=0.74
0.709546864060447
% es.Ey (V/m) @ t=0.74
0.1875911435679969
% es.Ez (V/m) @ t=0.74
-1.6206143216983646
% es.tEx (V/m) @ t=0.74
0.7095468640604472
% es.tEy (V/m) @ t=0.74
0
% es.tEz (V/m) @ t=0.74
-1.6206143216983726
% V (V) @ t=0.74
0.008901962722865892
% es.normE (V/m) @ t=0.76
1.7962793894604734
% es.EX (V/m) @ t=0.76
0.7158885516975684
% es.EY (V/m) @ t=0.76
0.1892677271589558
% es.EZ (V/m) @ t=0.76
-1.6350988884137747
% es.tEX (V/m) @ t=0.76
0.715888551697565
% es.tEY (V/m) @ t=0.76
0
% es.tEZ (V/m) @ t=0.76
-1.6350988884137756
% es.Ex (V/m) @ t=0.76
0.7158885516975684
% es.Ey (V/m) @ t=0.76
0.1892677271589558
% es.Ez (V/m) @ t=0.76
-1.6350988884137747
% es.tEx (V/m) @ t=0.76
0.715888551697565
% es.tEy (V/m) @ t=0.76
0
% es.tEz (V/m) @ t=0.76
-1.6350988884137756
% V (V) @ t=0.76
0.008981527581165253
% es.normE (V/m) @ t=0.78
1.812191762794261
% es.EX (V/m) @ t=0.78
0.7222302393347408
% es.EY (V/m) @ t=0.78
0.19094431074989515
% es.EZ (V/m) @ t=0.78
-1.649583455129192
% es.tEX (V/m) @ t=0.78
0.7222302393347411
% es.tEY (V/m) @ t=0.78
0
% es.tEZ (V/m) @ t=0.78
-1.6495834551291964
% es.Ex (V/m) @ t=0.78
0.7222302393347408
% es.Ey (V/m) @ t=0.78
0.19094431074989515
% es.Ez (V/m) @ t=0.78
-1.649583455129192
% es.tEx (V/m) @ t=0.78
0.7222302393347411
% es.tEy (V/m) @ t=0.78
0
% es.tEz (V/m) @ t=0.78
-1.6495834551291964
% V (V) @ t=0.78
0.00906109243946461
% es.normE (V/m) @ t=0.8
1.828104136128033
% es.EX (V/m) @ t=0.8
0.7285719269718802
% es.EY (V/m) @ t=0.8
0.1926208943408576
% es.EZ (V/m) @ t=0.8
-1.6640680218445985
% es.tEX (V/m) @ t=0.8
0.7285719269718807
% es.tEY (V/m) @ t=0.8
0
% es.tEZ (V/m) @ t=0.8
-1.664068021844603
% es.Ex (V/m) @ t=0.8
0.7285719269718802
% es.Ey (V/m) @ t=0.8
0.1926208943408576
% es.Ez (V/m) @ t=0.8
-1.6640680218445985
% es.tEx (V/m) @ t=0.8
0.7285719269718807
% es.tEy (V/m) @ t=0.8
0
% es.tEz (V/m) @ t=0.8
-1.664068021844603
% V (V) @ t=0.8
0.009140657297763968
% es.normE (V/m) @ t=0.82
1.8440370818728125
% es.EX (V/m) @ t=0.82
0.7349218107140383
% es.EY (V/m) @ t=0.82
0.19429963994745103
% es.EZ (V/m) @ t=0.82
-1.678571316618565
% es.tEX (V/m) @ t=0.82
0.7349218107140385
% es.tEY (V/m) @ t=0.82
0
% es.tEZ (V/m) @ t=0.82
-1.6785713166185658
% es.Ex (V/m) @ t=0.82
0.7349218107140383
% es.Ey (V/m) @ t=0.82
0.19429963994745103
% es.Ez (V/m) @ t=0.82
-1.678571316618565
% es.tEx (V/m) @ t=0.82
0.7349218107140385
% es.tEy (V/m) @ t=0.82
0
% es.tEz (V/m) @ t=0.82
-1.6785713166185658
% V (V) @ t=0.82
0.00922032523486153
% es.normE (V/m) @ t=0.84
1.861838945616254
% es.EX (V/m) @ t=0.84
0.7420162765178222
% es.EY (V/m) @ t=0.84
0.19617479568629026
% es.EZ (V/m) @ t=0.84
-1.6947759776397318
% es.tEX (V/m) @ t=0.84
0.742016276517826
% es.tEY (V/m) @ t=0.84
0
% es.tEZ (V/m) @ t=0.84
-1.694775977639729
% es.Ex (V/m) @ t=0.84
0.7420162765178222
% es.Ey (V/m) @ t=0.84
0.19617479568629026
% es.Ez (V/m) @ t=0.84
-1.6947759776397318
% es.tEx (V/m) @ t=0.84
0.742016276517826
% es.tEy (V/m) @ t=0.84
0
% es.tEz (V/m) @ t=0.84
-1.694775977639729
% V (V) @ t=0.84
0.009309357452166694
% es.normE (V/m) @ t=0.86
1.8796408093601338
% es.EX (V/m) @ t=0.86
0.7491107423215926
% es.EY (V/m) @ t=0.86
0.19804995142514858
% es.EZ (V/m) @ t=0.86
-1.7109806386608986
% es.tEX (V/m) @ t=0.86
0.749110742321593
% es.tEY (V/m) @ t=0.86
0
% es.tEZ (V/m) @ t=0.86
-1.7109806386608994
% es.Ex (V/m) @ t=0.86
0.7491107423215926
% es.Ey (V/m) @ t=0.86
0.19804995142514858
% es.Ez (V/m) @ t=0.86
-1.7109806386608986
% es.tEx (V/m) @ t=0.86
0.749110742321593
% es.tEy (V/m) @ t=0.86
0
% es.tEz (V/m) @ t=0.86
-1.7109806386608994
% V (V) @ t=0.86
0.009398389669471858
% es.normE (V/m) @ t=0.88
1.897442673104449
% es.EX (V/m) @ t=0.88
0.756205208125377
% es.EY (V/m) @ t=0.88
0.1999251071640087
% es.EZ (V/m) @ t=0.88
-1.7271852996820654
% es.tEX (V/m) @ t=0.88
0.7562052081253738
% es.tEY (V/m) @ t=0.88
0
% es.tEZ (V/m) @ t=0.88
-1.7271852996820716
% es.Ex (V/m) @ t=0.88
0.756205208125377
% es.Ey (V/m) @ t=0.88
0.1999251071640087
% es.Ez (V/m) @ t=0.88
-1.7271852996820654
% es.tEx (V/m) @ t=0.88
0.7562052081253738
% es.tEy (V/m) @ t=0.88
0
% es.tEz (V/m) @ t=0.88
-1.7271852996820716
% V (V) @ t=0.88
0.00948742188677702
% es.normE (V/m) @ t=0.9
1.9152445368491813
% es.EX (V/m) @ t=0.9
0.7632996739291573
% es.EY (V/m) @ t=0.9
0.20180026290286612
% es.EZ (V/m) @ t=0.9
-1.7433899607032348
% es.tEX (V/m) @ t=0.9
0.7632996739291542
% es.tEY (V/m) @ t=0.9
0
% es.tEZ (V/m) @ t=0.9
-1.7433899607032401
% es.Ex (V/m) @ t=0.9
0.7632996739291573
% es.Ey (V/m) @ t=0.9
0.20180026290286612
% es.Ez (V/m) @ t=0.9
-1.7433899607032348
% es.tEx (V/m) @ t=0.9
0.7632996739291542
% es.tEy (V/m) @ t=0.9
0
% es.tEz (V/m) @ t=0.9
-1.7433899607032401
% V (V) @ t=0.9
0.009576454104082182
% es.normE (V/m) @ t=0.92
1.9330464005943153
% es.EX (V/m) @ t=0.92
0.7703941397329419
% es.EY (V/m) @ t=0.92
0.20367541864171734
% es.EZ (V/m) @ t=0.92
-1.759594621724399
% es.tEX (V/m) @ t=0.92
0.7703941397329421
% es.tEY (V/m) @ t=0.92
0
% es.tEZ (V/m) @ t=0.92
-1.7595946217244052
% es.Ex (V/m) @ t=0.92
0.7703941397329419
% es.Ey (V/m) @ t=0.92
0.20367541864171734
% es.Ez (V/m) @ t=0.92
-1.759594621724399
% es.tEx (V/m) @ t=0.92
0.7703941397329421
% es.tEy (V/m) @ t=0.92
0
% es.tEz (V/m) @ t=0.92
-1.7595946217244052
% V (V) @ t=0.92
0.009665486321387346
% es.normE (V/m) @ t=0.94
1.9508482643398342
% es.EX (V/m) @ t=0.94
0.7774886055367078
% es.EY (V/m) @ t=0.94
0.20555057438057478
% es.EZ (V/m) @ t=0.94
-1.7757992827455586
% es.tEX (V/m) @ t=0.94
0.7774886055367083
% es.tEY (V/m) @ t=0.94
0
% es.tEZ (V/m) @ t=0.94
-1.7757992827455684
% es.Ex (V/m) @ t=0.94
0.7774886055367078
% es.Ey (V/m) @ t=0.94
0.20555057438057478
% es.Ez (V/m) @ t=0.94
-1.7757992827455586
% es.tEx (V/m) @ t=0.94
0.7774886055367083
% es.tEy (V/m) @ t=0.94
0
% es.tEz (V/m) @ t=0.94
-1.7757992827455684
% V (V) @ t=0.94
0.009754518538692507
% es.normE (V/m) @ t=0.96
1.9686501280857533
% es.EX (V/m) @ t=0.96
0.784583071340496
% es.EY (V/m) @ t=0.96
0.207425730119442
% es.EZ (V/m) @ t=0.96
-1.7920039437667263
% es.tEX (V/m) @ t=0.96
0.7845830713404962
% es.tEY (V/m) @ t=0.96
0
% es.tEZ (V/m) @ t=0.96
-1.7920039437667317
% es.Ex (V/m) @ t=0.96
0.784583071340496
% es.Ey (V/m) @ t=0.96
0.207425730119442
% es.Ez (V/m) @ t=0.96
-1.7920039437667263
% es.tEx (V/m) @ t=0.96
0.7845830713404962
% es.tEy (V/m) @ t=0.96
0
% es.tEz (V/m) @ t=0.96
-1.7920039437667317
% V (V) @ t=0.96
0.00984355075599767
% es.normE (V/m) @ t=0.98
1.9864519918320458
% es.EX (V/m) @ t=0.98
0.7916775371442804
% es.EY (V/m) @ t=0.98
0.20930088585829143
% es.EZ (V/m) @ t=0.98
-1.8082086047878976
% es.tEX (V/m) @ t=0.98
0.791677537144277
% es.tEY (V/m) @ t=0.98
0
% es.tEZ (V/m) @ t=0.98
-1.8082086047878967
% es.Ex (V/m) @ t=0.98
0.7916775371442804
% es.Ey (V/m) @ t=0.98
0.20930088585829143
% es.Ez (V/m) @ t=0.98
-1.8082086047878976
% es.tEx (V/m) @ t=0.98
0.791677537144277
% es.tEy (V/m) @ t=0.98
0
% es.tEz (V/m) @ t=0.98
-1.8082086047878967
% V (V) @ t=0.98
0.009932582973302833
% es.normE (V/m) @ t=1
2.004253855578698
% es.EX (V/m) @ t=1
0.7987720029480607
% es.EY (V/m) @ t=1
0.21117604159713554
% es.EZ (V/m) @ t=1
-1.8244132658090662
% es.tEX (V/m) @ t=1
0.7987720029480574
% es.tEY (V/m) @ t=1
0
% es.tEZ (V/m) @ t=1
-1.8244132658090635
% es.Ex (V/m) @ t=1
0.7987720029480607
% es.Ey (V/m) @ t=1
0.21117604159713554
% es.Ez (V/m) @ t=1
-1.8244132658090662
% es.tEx (V/m) @ t=1
0.7987720029480574
% es.tEy (V/m) @ t=1
0
% es.tEz (V/m) @ t=1
-1.8244132658090635
% V (V) @ t=1
0.010021615190607996
% es.normE (V/m) @ t=1.02
2.022055719325693
% es.EX (V/m) @ t=1.02
0.8058664687518309
% es.EY (V/m) @ t=1.02
0.2130511973360063
% es.EZ (V/m) @ t=1.02
-1.840617926830225
% es.tEX (V/m) @ t=1.02
0.8058664687518311
% es.tEY (V/m) @ t=1.02
0
% es.tEZ (V/m) @ t=1.02
-1.8406179268302303
% es.Ex (V/m) @ t=1.02
0.8058664687518309
% es.Ey (V/m) @ t=1.02
0.2130511973360063
% es.Ez (V/m) @ t=1.02
-1.840617926830225
% es.tEx (V/m) @ t=1.02
0.8058664687518311
% es.tEy (V/m) @ t=1.02
0
% es.tEz (V/m) @ t=1.02
-1.8406179268302303
% V (V) @ t=1.02
0.010110647407913158
% es.normE (V/m) @ t=1.04
2.0398575830730374
% es.EX (V/m) @ t=1.04
0.812960934555601
% es.EY (V/m) @ t=1.04
0.21492635307486996
% es.EZ (V/m) @ t=1.04
-1.856822587851389
% es.tEX (V/m) @ t=1.04
0.8129609345555977
% es.tEY (V/m) @ t=1.04
0