% Model:              1 neuron.mph
% Version:            COMSOL 6.0.0.405
% Date:               Mar 16 2023, 17:21
% Dimension:          0
% Nodes:              14017
% Expressions:        14017
% Description:        Electric field norm, Electric field, X component, Electric field, Y component, Electric field, Z component, Tangential electric field, X component, Tangential electric field, Y component, Tangential electric field, Z component, Electric field, x component, Electric field, y component, Electric field, z component, Tangential electric field, x component, Tangential electric field, y component, Tangential electric field, z component, Electric potential
% Length unit:        mm
% x
1.66
% y
12.2
% z
1
% es.normE (V/m) @ t=0
1.4849821612679572
% es.EX (V/m) @ t=0
-0.5293013882154498
% es.EY (V/m) @ t=0
0.16815729432395787
% es.EZ (V/m) @ t=0
1.3729544452768332
% es.tEX (V/m) @ t=0
-0.5293013882154569
% es.tEY (V/m) @ t=0
0
% es.tEZ (V/m) @ t=0
1.3729544452768305
% es.Ex (V/m) @ t=0
-0.5293013882154498
% es.Ey (V/m) @ t=0
0.16815729432395787
% es.Ez (V/m) @ t=0
1.3729544452768332
% es.tEx (V/m) @ t=0
-0.5293013882154569
% es.tEy (V/m) @ t=0
0
% es.tEz (V/m) @ t=0
1.3729544452768305
% V (V) @ t=0
0.007230066892532009
% es.normE (V/m) @ t=0.02
1.2826080188007478
% es.EX (V/m) @ t=0.02
-0.45716791926210554
% es.EY (V/m) @ t=0.02
0.14524073069978172
% es.EZ (V/m) @ t=0.02
1.1858474983103884
% es.tEX (V/m) @ t=0.02
-0.4571679192621073
% es.tEY (V/m) @ t=0.02
0
% es.tEZ (V/m) @ t=0.02
1.185847498310392
% es.Ex (V/m) @ t=0.02
-0.45716791926210554
% es.Ey (V/m) @ t=0.02
0.14524073069978172
% es.Ez (V/m) @ t=0.02
1.1858474983103884
% es.tEx (V/m) @ t=0.02
-0.4571679192621073
% es.tEy (V/m) @ t=0.02
0
% es.tEz (V/m) @ t=0.02
1.185847498310392
% V (V) @ t=0.02
0.006244749600492686
% es.normE (V/m) @ t=0.04
1.294405671766433
% es.EX (V/m) @ t=0.04
-0.46137302982503847
% es.EY (V/m) @ t=0.04
0.1465766802699141
% es.EZ (V/m) @ t=0.04
1.1967551310733784
% es.tEX (V/m) @ t=0.04
-0.461373029825042
% es.tEY (V/m) @ t=0.04
0
% es.tEZ (V/m) @ t=0.04
1.196755131073381
% es.Ex (V/m) @ t=0.04
-0.46137302982503847
% es.Ey (V/m) @ t=0.04
0.1465766802699141
% es.Ez (V/m) @ t=0.04
1.1967551310733784
% es.tEx (V/m) @ t=0.04
-0.461373029825042
% es.tEy (V/m) @ t=0.04
0
% es.tEz (V/m) @ t=0.04
1.196755131073381
% V (V) @ t=0.04
0.006302189913688066
% es.normE (V/m) @ t=0.06
1.306310776700779
% es.EX (V/m) @ t=0.06
-0.4656164403273907
% es.EY (V/m) @ t=0.06
0.14792479740782738
% es.EZ (V/m) @ t=0.06
1.207762109550485
% es.tEX (V/m) @ t=0.06
-0.46561644032739424
% es.tEY (V/m) @ t=0.06
0
% es.tEZ (V/m) @ t=0.06
1.2077621095504867
% es.Ex (V/m) @ t=0.06
-0.4656164403273907
% es.Ey (V/m) @ t=0.06
0.14792479740782738
% es.Ez (V/m) @ t=0.06
1.207762109550485
% es.tEx (V/m) @ t=0.06
-0.46561644032739424
% es.tEy (V/m) @ t=0.06
0
% es.tEz (V/m) @ t=0.06
1.2077621095504867
% V (V) @ t=0.06
0.006360153420308173
% es.normE (V/m) @ t=0.08
1.3183950551689883
% es.EX (V/m) @ t=0.08
-0.46992371519858567
% es.EY (V/m) @ t=0.08
0.14929320341240304
% es.EZ (V/m) @ t=0.08
1.2189347445656078
% es.tEX (V/m) @ t=0.08
-0.4699237151985928
% es.tEY (V/m) @ t=0.08
0
% es.tEZ (V/m) @ t=0.08
1.2189347445656082
% es.Ex (V/m) @ t=0.08
-0.46992371519858567
% es.Ey (V/m) @ t=0.08
0.14929320341240304
% es.Ez (V/m) @ t=0.08
1.2189347445656078
% es.tEx (V/m) @ t=0.08
-0.4699237151985928
% es.tEy (V/m) @ t=0.08
0
% es.tEz (V/m) @ t=0.08
1.2189347445656082
% V (V) @ t=0.08
0.006418989380419753
% es.normE (V/m) @ t=0.1
1.3306091444270618
% es.EX (V/m) @ t=0.1
-0.4742772596498236
% es.EY (V/m) @ t=0.1
0.1506763086515721
% es.EZ (V/m) @ t=0.1
1.2302273973399487
% es.tEX (V/m) @ t=0.1
-0.4742772596498307
% es.tEY (V/m) @ t=0.1
0
% es.tEZ (V/m) @ t=0.1
1.2302273973399496
% es.Ex (V/m) @ t=0.1
-0.4742772596498236
% es.Ey (V/m) @ t=0.1
0.1506763086515721
% es.Ez (V/m) @ t=0.1
1.2302273973399487
% es.tEx (V/m) @ t=0.1
-0.4742772596498307
% es.tEy (V/m) @ t=0.1
0
% es.tEz (V/m) @ t=0.1
1.2302273973399496
% V (V) @ t=0.1
0.006478457430965716
% es.normE (V/m) @ t=0.12
1.3428232336851345
% es.EX (V/m) @ t=0.12
-0.4786308041010632
% es.EY (V/m) @ t=0.12
0.15205941389073896
% es.EZ (V/m) @ t=0.12
1.2415200501142882
% es.tEX (V/m) @ t=0.12
-0.47863080410107206
% es.tEY (V/m) @ t=0.12
0
% es.tEZ (V/m) @ t=0.12
1.2415200501142856
% es.Ex (V/m) @ t=0.12
-0.4786308041010632
% es.Ey (V/m) @ t=0.12
0.15205941389073896
% es.Ez (V/m) @ t=0.12
1.2415200501142882
% es.tEx (V/m) @ t=0.12
-0.47863080410107206
% es.tEy (V/m) @ t=0.12
0
% es.tEz (V/m) @ t=0.12
1.2415200501142856
% V (V) @ t=0.12
0.006537925481511678
% es.normE (V/m) @ t=0.14
1.3551483010935574
% es.EX (V/m) @ t=0.14
-0.483023904959306
% es.EY (V/m) @ t=0.14
0.15345508638103278
% es.EZ (V/m) @ t=0.14
1.252915308831811
% es.tEX (V/m) @ t=0.14
-0.48302390495931313
% es.tEY (V/m) @ t=0.14
0
% es.tEZ (V/m) @ t=0.14
1.2529153088318106
% es.Ex (V/m) @ t=0.14
-0.483023904959306
% es.Ey (V/m) @ t=0.14
0.15345508638103278
% es.Ez (V/m) @ t=0.14
1.252915308831811
% es.tEx (V/m) @ t=0.14
-0.48302390495931313
% es.tEy (V/m) @ t=0.14
0
% es.tEz (V/m) @ t=0.14
1.2529153088318106
% V (V) @ t=0.14
0.006597933813846675
% es.normE (V/m) @ t=0.16
1.368016169433531
% es.EX (V/m) @ t=0.16
-0.4876104786272927
% es.EY (V/m) @ t=0.16
0.15491222606644883
% es.EZ (V/m) @ t=0.16
1.2648124195027766
% es.tEX (V/m) @ t=0.16
-0.48761047862729623
% es.tEY (V/m) @ t=0.16
0
% es.tEZ (V/m) @ t=0.16
1.2648124195027783
% es.Ex (V/m) @ t=0.16
-0.4876104786272927
% es.Ey (V/m) @ t=0.16
0.15491222606644883
% es.Ez (V/m) @ t=0.16
1.2648124195027766
% es.tEx (V/m) @ t=0.16
-0.48761047862729623
% es.tEy (V/m) @ t=0.16
0
% es.tEz (V/m) @ t=0.16
1.2648124195027783
% V (V) @ t=0.16
0.006660584697507873
% es.normE (V/m) @ t=0.18
1.3808840377735119
% es.EX (V/m) @ t=0.18
-0.49219705229528277
% es.EY (V/m) @ t=0.18
0.15636936575186744
% es.EZ (V/m) @ t=0.18
1.2767095301737474
% es.tEX (V/m) @ t=0.18
-0.49219705229528987
% es.tEY (V/m) @ t=0.18
0
% es.tEZ (V/m) @ t=0.18
1.276709530173746
% es.Ex (V/m) @ t=0.18
-0.49219705229528277
% es.Ey (V/m) @ t=0.18
0.15636936575186744
% es.Ez (V/m) @ t=0.18
1.2767095301737474
% es.tEx (V/m) @ t=0.18
-0.49219705229528987
% es.tEy (V/m) @ t=0.18
0
% es.tEz (V/m) @ t=0.18
1.276709530173746
% V (V) @ t=0.18
0.006723235581169073
% es.normE (V/m) @ t=0.2
1.3937519061134853
% es.EX (V/m) @ t=0.2
-0.4967836259632641
% es.EY (V/m) @ t=0.2
0.15782650543727983
% es.EZ (V/m) @ t=0.2
1.2886066408447152
% es.tEX (V/m) @ t=0.2
-0.49678362596327297
% es.tEY (V/m) @ t=0.2
0
% es.tEZ (V/m) @ t=0.2
1.288606640844721
% es.Ex (V/m) @ t=0.2
-0.4967836259632641
% es.Ey (V/m) @ t=0.2
0.15782650543727983
% es.Ez (V/m) @ t=0.2
1.2886066408447152
% es.tEx (V/m) @ t=0.2
-0.49678362596327297
% es.tEy (V/m) @ t=0.2
0
% es.tEz (V/m) @ t=0.2
1.288606640844721
% V (V) @ t=0.2
0.006785886464830275
% es.normE (V/m) @ t=0.22
1.4066197744534636
% es.EX (V/m) @ t=0.22
-0.501370199631251
% es.EY (V/m) @ t=0.22
0.15928364512270177
% es.EZ (V/m) @ t=0.22
1.3005037515156843
% es.tEX (V/m) @ t=0.22
-0.5013701996312563
% es.tEY (V/m) @ t=0.22
0
% es.tEZ (V/m) @ t=0.22
1.3005037515156834
% es.Ex (V/m) @ t=0.22
-0.501370199631251
% es.Ey (V/m) @ t=0.22
0.15928364512270177
% es.Ez (V/m) @ t=0.22
1.3005037515156843
% es.tEx (V/m) @ t=0.22
-0.5013701996312563
% es.tEy (V/m) @ t=0.22
0
% es.tEz (V/m) @ t=0.22
1.3005037515156834
% V (V) @ t=0.22
0.006848537348491472
% es.normE (V/m) @ t=0.24
1.4194876427934429
% es.EX (V/m) @ t=0.24
-0.5059567732992375
% es.EY (V/m) @ t=0.24
0.16074078480812126
% es.EZ (V/m) @ t=0.24
1.3124008621866543
% es.tEX (V/m) @ t=0.24
-0.5059567732992464
% es.tEY (V/m) @ t=0.24
0
% es.tEZ (V/m) @ t=0.24
1.3124008621866556
% es.Ex (V/m) @ t=0.24
-0.5059567732992375
% es.Ey (V/m) @ t=0.24
0.16074078480812126
% es.Ez (V/m) @ t=0.24
1.3124008621866543
% es.tEx (V/m) @ t=0.24
-0.5059567732992464
% es.tEy (V/m) @ t=0.24
0
% es.tEz (V/m) @ t=0.24
1.3124008621866556
% V (V) @ t=0.24
0.006911188232152672
% es.normE (V/m) @ t=0.26
1.432355511133417
% es.EX (V/m) @ t=0.26
-0.5105433469672241
% es.EY (V/m) @ t=0.26
0.16219792449352843
% es.EZ (V/m) @ t=0.26
1.324297972857623
% es.tEX (V/m) @ t=0.26
-0.510543346967233
% es.tEY (V/m) @ t=0.26
0
% es.tEZ (V/m) @ t=0.26
1.3242979728576234
% es.Ex (V/m) @ t=0.26
-0.5105433469672241
% es.Ey (V/m) @ t=0.26
0.16219792449352843
% es.Ez (V/m) @ t=0.26
1.324297972857623
% es.tEx (V/m) @ t=0.26
-0.510543346967233
% es.tEy (V/m) @ t=0.26
0
% es.tEz (V/m) @ t=0.26
1.3242979728576234
% V (V) @ t=0.26
0.006973839115813871
% es.normE (V/m) @ t=0.28
1.445738013794183
% es.EX (V/m) @ t=0.28
-0.5153133675540088
% es.EY (V/m) @ t=0.28
0.16371332624951251
% es.EZ (V/m) @ t=0.28
1.3366708917568921
% es.tEX (V/m) @ t=0.28
-0.5153133675540106
% es.tEY (V/m) @ t=0.28
0
% es.tEZ (V/m) @ t=0.28
1.3366708917568895
% es.Ex (V/m) @ t=0.28
-0.5153133675540088
% es.Ey (V/m) @ t=0.28
0.16371332624951251
% es.Ez (V/m) @ t=0.28
1.3366708917568921
% es.tEx (V/m) @ t=0.28
-0.5153133675540106
% es.tEy (V/m) @ t=0.28
0
% es.tEz (V/m) @ t=0.28
1.3366708917568895
% V (V) @ t=0.28
0.00703899841106336
% es.normE (V/m) @ t=0.3
1.4600784199376893
% es.EX (V/m) @ t=0.3
-0.5204248431027046
% es.EY (V/m) @ t=0.3
0.1653371728527554
% es.EZ (V/m) @ t=0.3
1.3499294460298592
% es.tEX (V/m) @ t=0.3
-0.5204248431027064
% es.tEY (V/m) @ t=0.3
0
% es.tEZ (V/m) @ t=0.3
1.3499294460298579
% es.Ex (V/m) @ t=0.3
-0.5204248431027046
% es.Ey (V/m) @ t=0.3
0.1653371728527554
% es.Ez (V/m) @ t=0.3
1.3499294460298592
% es.tEx (V/m) @ t=0.3
-0.5204248431027064
% es.tEy (V/m) @ t=0.3
0
% es.tEz (V/m) @ t=0.3
1.3499294460298579
% V (V) @ t=0.3
0.007108826684069512
% es.normE (V/m) @ t=0.32
1.4744188260811946
% es.EX (V/m) @ t=0.32
-0.5255363186514005
% es.EY (V/m) @ t=0.32
0.16696101945599295
% es.EZ (V/m) @ t=0.32
1.3631880003028218
% es.tEX (V/m) @ t=0.32
-0.5255363186514023
% es.tEY (V/m) @ t=0.32
0
% es.tEZ (V/m) @ t=0.32
1.363188000302821
% es.Ex (V/m) @ t=0.32
-0.5255363186514005
% es.Ey (V/m) @ t=0.32
0.16696101945599295
% es.Ez (V/m) @ t=0.32
1.3631880003028218
% es.tEx (V/m) @ t=0.32
-0.5255363186514023
% es.tEy (V/m) @ t=0.32
0
% es.tEz (V/m) @ t=0.32
1.363188000302821
% V (V) @ t=0.32
0.007178654957075665
% es.normE (V/m) @ t=0.34
1.4887592322247047
% es.EX (V/m) @ t=0.34
-0.5306477942000982
% es.EY (V/m) @ t=0.34
0.1685848660592314
% es.EZ (V/m) @ t=0.34
1.3764465545757862
% es.tEX (V/m) @ t=0.34
-0.5306477942001053
% es.tEY (V/m) @ t=0.34
0
% es.tEZ (V/m) @ t=0.34
1.3764465545757893
% es.Ex (V/m) @ t=0.34
-0.5306477942000982
% es.Ey (V/m) @ t=0.34
0.1685848660592314
% es.Ez (V/m) @ t=0.34
1.3764465545757862
% es.tEx (V/m) @ t=0.34
-0.5306477942001053
% es.tEy (V/m) @ t=0.34
0
% es.tEz (V/m) @ t=0.34
1.3764465545757893
% V (V) @ t=0.34
0.007248483230081817
% es.normE (V/m) @ t=0.36
1.503099638368215
% es.EX (V/m) @ t=0.36
-0.5357592697487887
% es.EY (V/m) @ t=0.36
0.17020871266247117
% es.EZ (V/m) @ t=0.36
1.3897051088487493
% es.tEX (V/m) @ t=0.36
-0.5357592697487941
% es.tEY (V/m) @ t=0.36
0
% es.tEZ (V/m) @ t=0.36
1.3897051088487533
% es.Ex (V/m) @ t=0.36
-0.5357592697487887
% es.Ey (V/m) @ t=0.36
0.17020871266247117
% es.Ez (V/m) @ t=0.36
1.3897051088487493
% es.tEx (V/m) @ t=0.36
-0.5357592697487941
% es.tEy (V/m) @ t=0.36
0
% es.tEz (V/m) @ t=0.36
1.3897051088487533
% V (V) @ t=0.36
0.007318311503087972
% es.normE (V/m) @ t=0.38
1.517440044511736
% es.EX (V/m) @ t=0.38
-0.5408707452974917
% es.EY (V/m) @ t=0.38
0.17183255926570418
% es.EZ (V/m) @ t=0.38
1.4029636631217164
% es.tEX (V/m) @ t=0.38
-0.540870745297497
% es.tEY (V/m) @ t=0.38
0
% es.tEZ (V/m) @ t=0.38
1.4029636631217146
% es.Ex (V/m) @ t=0.38
-0.5408707452974917
% es.Ey (V/m) @ t=0.38
0.17183255926570418
% es.Ez (V/m) @ t=0.38
1.4029636631217164
% es.tEx (V/m) @ t=0.38
-0.540870745297497
% es.tEy (V/m) @ t=0.38
0
% es.tEz (V/m) @ t=0.38
1.4029636631217146
% V (V) @ t=0.38
0.007388139776094125
% es.normE (V/m) @ t=0.4
1.5317804506552508
% es.EX (V/m) @ t=0.4
-0.5459822208461822
% es.EY (V/m) @ t=0.4
0.1734564058689506
% es.EZ (V/m) @ t=0.4
1.4162222173946777
% es.tEX (V/m) @ t=0.4
-0.5459822208461929
% es.tEY (V/m) @ t=0.4
0
% es.tEZ (V/m) @ t=0.4
1.4162222173946803
% es.Ex (V/m) @ t=0.4
-0.5459822208461822
% es.Ey (V/m) @ t=0.4
0.1734564058689506
% es.Ez (V/m) @ t=0.4
1.4162222173946777
% es.tEx (V/m) @ t=0.4
-0.5459822208461929
% es.tEy (V/m) @ t=0.4
0
% es.tEz (V/m) @ t=0.4
1.4162222173946803
% V (V) @ t=0.4
0.007457968049100277
% es.normE (V/m) @ t=0.42
1.5461208567987743
% es.EX (V/m) @ t=0.42
-0.5510936963948851
% es.EY (V/m) @ t=0.42
0.17508025247218018
% es.EZ (V/m) @ t=0.42
1.4294807716676425
% es.tEX (V/m) @ t=0.42
-0.5510936963948958
% es.tEY (V/m) @ t=0.42
0
% es.tEZ (V/m) @ t=0.42
1.4294807716676452
% es.Ex (V/m) @ t=0.42
-0.5510936963948851
% es.Ey (V/m) @ t=0.42
0.17508025247218018
% es.Ez (V/m) @ t=0.42
1.4294807716676425
% es.tEx (V/m) @ t=0.42
-0.5510936963948958
% es.tEy (V/m) @ t=0.42
0
% es.tEz (V/m) @ t=0.42
1.4294807716676452
% V (V) @ t=0.42
0.007527796322106431
% es.normE (V/m) @ t=0.44
1.5604612629423062
% es.EX (V/m) @ t=0.44
-0.5562051719435882
% es.EY (V/m) @ t=0.44
0.1767040990754164
% es.EZ (V/m) @ t=0.44
1.4427393259406114
% es.tEX (V/m) @ t=0.44
-0.5562051719435918
% es.tEY (V/m) @ t=0.44
0
% es.tEZ (V/m) @ t=0.44
1.4427393259406118
% es.Ex (V/m) @ t=0.44
-0.5562051719435882
% es.Ey (V/m) @ t=0.44
0.1767040990754164
% es.Ez (V/m) @ t=0.44
1.4427393259406114
% es.tEx (V/m) @ t=0.44
-0.5562051719435918
% es.tEy (V/m) @ t=0.44
0
% es.tEz (V/m) @ t=0.44
1.4427393259406118
% V (V) @ t=0.44
0.007597624595112585
% es.normE (V/m) @ t=0.46
1.5748016690858335
% es.EX (V/m) @ t=0.46
-0.5613166474922805
% es.EY (V/m) @ t=0.46
0.17832794567865617
% es.EZ (V/m) @ t=0.46
1.4559978802135776
% es.tEX (V/m) @ t=0.46
-0.5613166474922947
% es.tEY (V/m) @ t=0.46
0
% es.tEZ (V/m) @ t=0.46
1.455997880213575
% es.Ex (V/m) @ t=0.46
-0.5613166474922805
% es.Ey (V/m) @ t=0.46
0.17832794567865617
% es.Ez (V/m) @ t=0.46
1.4559978802135776
% es.tEx (V/m) @ t=0.46
-0.5613166474922947
% es.tEy (V/m) @ t=0.46
0
% es.tEz (V/m) @ t=0.46
1.455997880213575
% V (V) @ t=0.46
0.0076674528681187374
% es.normE (V/m) @ t=0.48
1.5891420752293592
% es.EX (V/m) @ t=0.48
-0.5664281230409763
% es.EY (V/m) @ t=0.48
0.1799517922818994
% es.EZ (V/m) @ t=0.48
1.4692564344865362
% es.tEX (V/m) @ t=0.48
-0.5664281230409834
% es.tEY (V/m) @ t=0.48
0
% es.tEZ (V/m) @ t=0.48
1.4692564344865389
% es.Ex (V/m) @ t=0.48
-0.5664281230409763
% es.Ey (V/m) @ t=0.48
0.1799517922818994
% es.Ez (V/m) @ t=0.48
1.4692564344865362
% es.tEx (V/m) @ t=0.48
-0.5664281230409834
% es.tEy (V/m) @ t=0.48
0
% es.tEz (V/m) @ t=0.48
1.4692564344865389
% V (V) @ t=0.48
0.007737281141124891
% es.normE (V/m) @ t=0.5
1.6034824813728914
% es.EX (V/m) @ t=0.5
-0.5715395985896722
% es.EY (V/m) @ t=0.5
0.18157563888513917
% es.EZ (V/m) @ t=0.5
1.4825149887595002
% es.tEX (V/m) @ t=0.5
-0.5715395985896793
% es.tEY (V/m) @ t=0.5
0
% es.tEZ (V/m) @ t=0.5
1.482514988759502
% es.Ex (V/m) @ t=0.5
-0.5715395985896722
% es.Ey (V/m) @ t=0.5
0.18157563888513917
% es.Ez (V/m) @ t=0.5
1.4825149887595002
% es.tEx (V/m) @ t=0.5
-0.5715395985896793
% es.tEy (V/m) @ t=0.5
0
% es.tEz (V/m) @ t=0.5
1.482514988759502
% V (V) @ t=0.5
0.007807109414131043
% es.normE (V/m) @ t=0.52
1.617822887516426
% es.EX (V/m) @ t=0.52
-0.576651074138368
% es.EY (V/m) @ t=0.52
0.1831994854883754
% es.EZ (V/m) @ t=0.52
1.4957735430324646
% es.tEX (V/m) @ t=0.52
-0.5766510741383751
% es.tEY (V/m) @ t=0.52
0
% es.tEZ (V/m) @ t=0.52
1.495773543032466
% es.Ex (V/m) @ t=0.52
-0.576651074138368
% es.Ey (V/m) @ t=0.52
0.1831994854883754
% es.Ez (V/m) @ t=0.52
1.4957735430324646
% es.tEx (V/m) @ t=0.52
-0.5766510741383751
% es.tEy (V/m) @ t=0.52
0
% es.tEz (V/m) @ t=0.52
1.495773543032466
% V (V) @ t=0.52
0.007876937687137197
% es.normE (V/m) @ t=0.54
1.6321632936599666
% es.EX (V/m) @ t=0.54
-0.581762549687064
% es.EY (V/m) @ t=0.54
0.1848233320916115
% es.EZ (V/m) @ t=0.54
1.509032097305432
% es.tEX (V/m) @ t=0.54
-0.5817625496870711
% es.tEY (V/m) @ t=0.54
0
% es.tEZ (V/m) @ t=0.54
1.5090320973054299
% es.Ex (V/m) @ t=0.54
-0.581762549687064
% es.Ey (V/m) @ t=0.54
0.1848233320916115
% es.Ez (V/m) @ t=0.54
1.509032097305432
% es.tEx (V/m) @ t=0.54
-0.5817625496870711
% es.tEy (V/m) @ t=0.54
0
% es.tEz (V/m) @ t=0.54
1.5090320973054299
% V (V) @ t=0.54
0.007946765960143348
% es.normE (V/m) @ t=0.56
1.6476875754831712
% es.EX (V/m) @ t=0.56
-0.5872960285099774
% es.EY (V/m) @ t=0.56
0.186581206414984
% es.EZ (V/m) @ t=0.56
1.5233852113394266
% es.tEX (V/m) @ t=0.56
-0.587296028509981
% es.tEY (V/m) @ t=0.56
0
% es.tEZ (V/m) @ t=0.56
1.523385211339428
% es.Ex (V/m) @ t=0.56
-0.5872960285099774
% es.Ey (V/m) @ t=0.56
0.186581206414984
% es.Ez (V/m) @ t=0.56
1.5233852113394266
% es.tEx (V/m) @ t=0.56
-0.587296028509981
% es.tEy (V/m) @ t=0.56
0
% es.tEz (V/m) @ t=0.56
1.523385211339428
% V (V) @ t=0.56
0.008022364362044548
% es.normE (V/m) @ t=0.58
1.6636978425016977
% es.EX (V/m) @ t=0.58
-0.5930027411843425
% es.EY (V/m) @ t=0.58
0.18839409959621123
% es.EZ (V/m) @ t=0.58
1.538187646065103
% es.tEX (V/m) @ t=0.58
-0.5930027411843496
% es.tEY (V/m) @ t=0.58
0
% es.tEZ (V/m) @ t=0.58
1.5381876460651007
% es.Ex (V/m) @ t=0.58
-0.5930027411843425
% es.Ey (V/m) @ t=0.58
0.18839409959621123
% es.Ez (V/m) @ t=0.58
1.538187646065103
% es.tEx (V/m) @ t=0.58
-0.5930027411843496
% es.tEy (V/m) @ t=0.58
0
% es.tEz (V/m) @ t=0.58
1.5381876460651007
% V (V) @ t=0.58
0.008100331422468016
% es.normE (V/m) @ t=0.6
1.6797081095202206
% es.EX (V/m) @ t=0.6
-0.5987094538587004
% es.EY (V/m) @ t=0.6
0.19020699277743625
% es.EZ (V/m) @ t=0.6
1.5529900807907668
% es.tEX (V/m) @ t=0.6
-0.598709453858704
% es.tEY (V/m) @ t=0.6
0
% es.tEZ (V/m) @ t=0.6
1.552990080790762
% es.Ex (V/m) @ t=0.6
-0.5987094538587004
% es.Ey (V/m) @ t=0.6
0.19020699277743625
% es.Ez (V/m) @ t=0.6
1.5529900807907668
% es.tEx (V/m) @ t=0.6
-0.598709453858704
% es.tEy (V/m) @ t=0.6
0
% es.tEz (V/m) @ t=0.6
1.552990080790762
% V (V) @ t=0.6
0.008178298482891491
% es.normE (V/m) @ t=0.62
1.6957183765387533
% es.EX (V/m) @ t=0.62
-0.6044161665330583
% es.EY (V/m) @ t=0.62
0.19201988595866415
% es.EZ (V/m) @ t=0.62
1.567792515516429
% es.tEX (V/m) @ t=0.62
-0.6044161665330725
% es.tEY (V/m) @ t=0.62
0
% es.tEZ (V/m) @ t=0.62
1.5677925155164303
% es.Ex (V/m) @ t=0.62
-0.6044161665330583
% es.Ey (V/m) @ t=0.62
0.19201988595866415
% es.Ez (V/m) @ t=0.62
1.567792515516429
% es.tEx (V/m) @ t=0.62
-0.6044161665330725
% es.tEy (V/m) @ t=0.62
0
% es.tEz (V/m) @ t=0.62
1.5677925155164303
% V (V) @ t=0.62
0.008256265543314963
% es.normE (V/m) @ t=0.64
1.7117286435573038
% es.EX (V/m) @ t=0.64
-0.6101228792074268
% es.EY (V/m) @ t=0.64
0.19383277913989228
% es.EZ (V/m) @ t=0.64
1.5825949502420955
% es.tEX (V/m) @ t=0.64
-0.6101228792074339
% es.tEY (V/m) @ t=0.64
0
% es.tEZ (V/m) @ t=0.64
1.5825949502420977
% es.Ex (V/m) @ t=0.64
-0.6101228792074268
% es.Ey (V/m) @ t=0.64
0.19383277913989228
% es.Ez (V/m) @ t=0.64
1.5825949502420955
% es.tEx (V/m) @ t=0.64
-0.6101228792074339
% es.tEy (V/m) @ t=0.64
0
% es.tEz (V/m) @ t=0.64
1.5825949502420977
% V (V) @ t=0.64
0.008334232603738436
% es.normE (V/m) @ t=0.66
1.7277389105758727
% es.EX (V/m) @ t=0.66
-0.615829591881799
% es.EY (V/m) @ t=0.66
0.19564567232111196
% es.EZ (V/m) @ t=0.66
1.59739738496777
% es.tEX (V/m) @ t=0.66
-0.6158295918818096
% es.tEY (V/m) @ t=0.66
0
% es.tEZ (V/m) @ t=0.66
1.597397384967766
% es.Ex (V/m) @ t=0.66
-0.615829591881799
% es.Ey (V/m) @ t=0.66
0.19564567232111196
% es.Ez (V/m) @ t=0.66
1.59739738496777
% es.tEx (V/m) @ t=0.66
-0.6158295918818096
% es.tEy (V/m) @ t=0.66
0
% es.tEz (V/m) @ t=0.66
1.597397384967766
% V (V) @ t=0.66
0.008412199664161908
% es.normE (V/m) @ t=0.68
1.743749177594438
% es.EX (V/m) @ t=0.68
-0.6215363045561498
% es.EY (V/m) @ t=0.68
0.19745856550234797
% es.EZ (V/m) @ t=0.68
1.612199819693438
% es.tEX (V/m) @ t=0.68
-0.6215363045561569
% es.tEY (V/m) @ t=0.68
0
% es.tEZ (V/m) @ t=0.68
1.6121998196934397
% es.Ex (V/m) @ t=0.68
-0.6215363045561498
% es.Ey (V/m) @ t=0.68
0.19745856550234797
% es.Ez (V/m) @ t=0.68
1.612199819693438
% es.tEx (V/m) @ t=0.68
-0.6215363045561569
% es.tEy (V/m) @ t=0.68
0
% es.tEz (V/m) @ t=0.68
1.6121998196934397
% V (V) @ t=0.68
0.008490166724585382
% es.normE (V/m) @ t=0.7
1.7597594446130156
% es.EX (V/m) @ t=0.7
-0.6272430172305183
% es.EY (V/m) @ t=0.7
0.19927145868356977
% es.EZ (V/m) @ t=0.7
1.6270022544191014
% es.tEX (V/m) @ t=0.7
-0.6272430172305254
% es.tEY (V/m) @ t=0.7
0
% es.tEZ (V/m) @ t=0.7
1.6270022544191018
% es.Ex (V/m) @ t=0.7
-0.6272430172305183
% es.Ey (V/m) @ t=0.7
0.19927145868356977
% es.Ez (V/m) @ t=0.7
1.6270022544191014
% es.tEx (V/m) @ t=0.7
-0.6272430172305254
% es.tEy (V/m) @ t=0.7
0
% es.tEz (V/m) @ t=0.7
1.6270022544191018
% V (V) @ t=0.7
0.008568133785008853
% es.normE (V/m) @ t=0.72
1.7757697116316034
% es.EX (V/m) @ t=0.72
-0.6329497299048763
% es.EY (V/m) @ t=0.72
0.20108435186480622
% es.EZ (V/m) @ t=0.72
1.6418046891447688
% es.tEX (V/m) @ t=0.72
-0.632949729904887
% es.tEY (V/m) @ t=0.72
0
% es.tEZ (V/m) @ t=0.72
1.6418046891447684
% es.Ex (V/m) @ t=0.72
-0.6329497299048763
% es.Ey (V/m) @ t=0.72
0.20108435186480622
% es.Ez (V/m) @ t=0.72
1.6418046891447688
% es.tEx (V/m) @ t=0.72
-0.632949729904887
% es.tEy (V/m) @ t=0.72
0
% es.tEz (V/m) @ t=0.72
1.6418046891447684
% V (V) @ t=0.72
0.008646100845432327
% es.normE (V/m) @ t=0.74
1.7917799786501964
% es.EX (V/m) @ t=0.74
-0.6386564425792411
% es.EY (V/m) @ t=0.74
0.20289724504604711
% es.EZ (V/m) @ t=0.74
1.656607123870431
% es.tEX (V/m) @ t=0.74
-0.6386564425792483
% es.tEY (V/m) @ t=0.74
0
% es.tEZ (V/m) @ t=0.74
1.6566071238704314
% es.Ex (V/m) @ t=0.74
-0.6386564425792411
% es.Ey (V/m) @ t=0.74
0.20289724504604711
% es.Ez (V/m) @ t=0.74
1.656607123870431
% es.tEx (V/m) @ t=0.74
-0.6386564425792483
% es.tEy (V/m) @ t=0.74
0
% es.tEz (V/m) @ t=0.74
1.6566071238704314
% V (V) @ t=0.74
0.0087240679058558
% es.normE (V/m) @ t=0.76
1.807790245668798
% es.EX (V/m) @ t=0.76
-0.6443631552535956
% es.EY (V/m) @ t=0.76
0.20471013822726136
% es.EZ (V/m) @ t=0.76
1.6714095585960984
% es.tEX (V/m) @ t=0.76
-0.6443631552536098
% es.tEY (V/m) @ t=0.76
0
% es.tEZ (V/m) @ t=0.76
1.6714095585960989
% es.Ex (V/m) @ t=0.76
-0.6443631552535956
% es.Ey (V/m) @ t=0.76
0.20471013822726136
% es.Ez (V/m) @ t=0.76
1.6714095585960984
% es.tEx (V/m) @ t=0.76
-0.6443631552536098
% es.tEy (V/m) @ t=0.76
0
% es.tEz (V/m) @ t=0.76
1.6714095585960989
% V (V) @ t=0.76
0.008802034966279272
% es.normE (V/m) @ t=0.78
1.823800512687418
% es.EX (V/m) @ t=0.78
-0.6500698679279606
% es.EY (V/m) @ t=0.78
0.20652303140848915
% es.EZ (V/m) @ t=0.78
1.6862119933217703
% es.tEX (V/m) @ t=0.78
-0.6500698679279713
% es.tEY (V/m) @ t=0.78
0
% es.tEZ (V/m) @ t=0.78
1.6862119933217725
% es.Ex (V/m) @ t=0.78
-0.6500698679279606
% es.Ey (V/m) @ t=0.78
0.20652303140848915
% es.Ez (V/m) @ t=0.78
1.6862119933217703
% es.tEx (V/m) @ t=0.78
-0.6500698679279713
% es.tEy (V/m) @ t=0.78
0
% es.tEz (V/m) @ t=0.78
1.6862119933217725
% V (V) @ t=0.78
0.008880002026702744
% es.normE (V/m) @ t=0.8
1.8398107797060361
% es.EX (V/m) @ t=0.8
-0.6557765806023185
% es.EY (V/m) @ t=0.8
0.20833592458971384
% es.EZ (V/m) @ t=0.8
1.701014428047436
% es.tEX (V/m) @ t=0.8
-0.6557765806023327
% es.tEY (V/m) @ t=0.8
0
% es.tEZ (V/m) @ t=0.8
1.7010144280474355
% es.Ex (V/m) @ t=0.8
-0.6557765806023185
% es.Ey (V/m) @ t=0.8
0.20833592458971384
% es.Ez (V/m) @ t=0.8
1.701014428047436
% es.tEx (V/m) @ t=0.8
-0.6557765806023327
% es.tEy (V/m) @ t=0.8
0
% es.tEz (V/m) @ t=0.8
1.7010144280474355
% V (V) @ t=0.8
0.008957969087126217
% es.normE (V/m) @ t=0.82
1.8559506194070208
% es.EX (V/m) @ t=0.82
-0.6615294730771576
% es.EY (V/m) @ t=0.82
0.2101634956782883
% es.EZ (V/m) @ t=0.82
1.7159366611042626
% es.tEX (V/m) @ t=0.82
-0.6615294730771647
% es.tEY (V/m) @ t=0.82
0
% es.tEZ (V/m) @ t=0.82
1.7159366611042666
% es.Ex (V/m) @ t=0.82
-0.6615294730771576
% es.Ey (V/m) @ t=0.82
0.2101634956782883
% es.Ez (V/m) @ t=0.82
1.7159366611042626
% es.tEx (V/m) @ t=0.82
-0.6615294730771647
% es.tEy (V/m) @ t=0.82
0
% es.tEz (V/m) @ t=0.82
1.7159366611042666
% V (V) @ t=0.82
0.009036566000490461
% es.normE (V/m) @ t=0.84
1.8738539703731925
% es.EX (V/m) @ t=0.84
-0.6679108822799503
% es.EY (V/m) @ t=0.84
0.21219083615084133
% es.EZ (V/m) @ t=0.84
1.7324893744654326
% es.tEX (V/m) @ t=0.84
-0.667910882279961
% es.tEY (V/m) @ t=0.84
0
% es.tEZ (V/m) @ t=0.84
1.7324893744654304
% es.Ex (V/m) @ t=0.84
-0.6679108822799503
% es.Ey (V/m) @ t=0.84
0.21219083615084133
% es.Ez (V/m) @ t=0.84
1.7324893744654326
% es.tEx (V/m) @ t=0.84
-0.667910882279961
% es.tEy (V/m) @ t=0.84
0
% es.tEz (V/m) @ t=0.84
1.7324893744654304
% V (V) @ t=0.84
0.00912373534390904
% es.normE (V/m) @ t=0.86
1.891757321339354
% es.EX (V/m) @ t=0.86
-0.6742922914827394
% es.EY (V/m) @ t=0.86
0.21421817662340858
% es.EZ (V/m) @ t=0.86
1.7490420878265924
% es.tEX (V/m) @ t=0.86
-0.67429229148275
% es.tEY (V/m) @ t=0.86
0
% es.tEZ (V/m) @ t=0.86
1.749042087826595
% es.Ex (V/m) @ t=0.86
-0.6742922914827394
% es.Ey (V/m) @ t=0.86
0.21421817662340858
% es.Ez (V/m) @ t=0.86
1.7490420878265924
% es.tEx (V/m) @ t=0.86
-0.67429229148275
% es.tEy (V/m) @ t=0.86
0
% es.tEz (V/m) @ t=0.86
1.749042087826595
% V (V) @ t=0.86
0.009210904687327617
% es.normE (V/m) @ t=0.88
1.9096606723055145
% es.EX (V/m) @ t=0.88
-0.6806737006855142
% es.EY (V/m) @ t=0.88
0.21624551709597406
% es.EZ (V/m) @ t=0.88
1.7655948011877562
% es.tEX (V/m) @ t=0.88
-0.680673700685532
% es.tEY (V/m) @ t=0.88
0
% es.tEZ (V/m) @ t=0.88
1.7655948011877545
% es.Ex (V/m) @ t=0.88
-0.6806737006855142
% es.Ey (V/m) @ t=0.88
0.21624551709597406
% es.Ez (V/m) @ t=0.88
1.7655948011877562
% es.tEx (V/m) @ t=0.88
-0.680673700685532
% es.tEy (V/m) @ t=0.88
0
% es.tEz (V/m) @ t=0.88
1.7655948011877545
% V (V) @ t=0.88
0.009298074030746194
% es.normE (V/m) @ t=0.9
1.9275640232716746
% es.EX (V/m) @ t=0.9
-0.6870551098883069
% es.EY (V/m) @ t=0.9
0.2182728575685342
% es.EZ (V/m) @ t=0.9
1.7821475145489138
% es.tEX (V/m) @ t=0.9
-0.687055109888314
% es.tEY (V/m) @ t=0.9
0
% es.tEZ (V/m) @ t=0.9
1.7821475145489156
% es.Ex (V/m) @ t=0.9
-0.6870551098883069
% es.Ey (V/m) @ t=0.9
0.2182728575685342
% es.Ez (V/m) @ t=0.9
1.7821475145489138
% es.tEx (V/m) @ t=0.9
-0.687055109888314
% es.tEy (V/m) @ t=0.9
0
% es.tEz (V/m) @ t=0.9
1.7821475145489156
% V (V) @ t=0.9
0.009385243374164775
% es.normE (V/m) @ t=0.92
1.945467374237833
% es.EX (V/m) @ t=0.92
-0.6934365190910889
% es.EY (V/m) @ t=0.92
0.22030019804109813
% es.EZ (V/m) @ t=0.92
1.7987002279100732
% es.tEX (V/m) @ t=0.92
-0.693436519091096
% es.tEY (V/m) @ t=0.92
0
% es.tEZ (V/m) @ t=0.92
1.7987002279100714
% es.Ex (V/m) @ t=0.92
-0.6934365190910889
% es.Ey (V/m) @ t=0.92
0.22030019804109813
% es.Ez (V/m) @ t=0.92
1.7987002279100732
% es.tEx (V/m) @ t=0.92
-0.693436519091096
% es.tEy (V/m) @ t=0.92
0
% es.tEz (V/m) @ t=0.92
1.7987002279100714
% V (V) @ t=0.92
0.009472412717583353
% es.normE (V/m) @ t=0.94
1.9633707252040011
% es.EX (V/m) @ t=0.94
-0.6998179282938852
% es.EY (V/m) @ t=0.94
0.22232753851366005
% es.EZ (V/m) @ t=0.94
1.815252941271237
% es.tEX (V/m) @ t=0.94
-0.6998179282938923
% es.tEY (V/m) @ t=0.94
0
% es.tEZ (V/m) @ t=0.94
1.815252941271238
% es.Ex (V/m) @ t=0.94
-0.6998179282938852
% es.Ey (V/m) @ t=0.94
0.22232753851366005
% es.Ez (V/m) @ t=0.94
1.815252941271237
% es.tEx (V/m) @ t=0.94
-0.6998179282938923
% es.tEy (V/m) @ t=0.94
0
% es.tEz (V/m) @ t=0.94
1.815252941271238
% V (V) @ t=0.94
0.009559582061001928
% es.normE (V/m) @ t=0.96
1.9812740761701613
% es.EX (V/m) @ t=0.96
-0.7061993374966673
% es.EY (V/m) @ t=0.96
0.2243548789862222
% es.EZ (V/m) @ t=0.96
1.8318056546323973
% es.tEX (V/m) @ t=0.96
-0.7061993374966744
% es.tEY (V/m) @ t=0.96
0
% es.tEZ (V/m) @ t=0.96
1.8318056546323973
% es.Ex (V/m) @ t=0.96
-0.7061993374966673
% es.Ey (V/m) @ t=0.96
0.2243548789862222
% es.Ez (V/m) @ t=0.96
1.8318056546323973
% es.tEx (V/m) @ t=0.96
-0.7061993374966744
% es.tEy (V/m) @ t=0.96
0
% es.tEz (V/m) @ t=0.96
1.8318056546323973
% V (V) @ t=0.96
0.009646751404420508
% es.normE (V/m) @ t=0.98
1.9991774271363303
% es.EX (V/m) @ t=0.98
-0.7125807466994564
% es.EY (V/m) @ t=0.98
0.2263822194587859
% es.EZ (V/m) @ t=0.98
1.8483583679935647
% es.tEX (V/m) @ t=0.98
-0.7125807466994706
% es.tEY (V/m) @ t=0.98
0
% es.tEZ (V/m) @ t=0.98
1.8483583679935602
% es.Ex (V/m) @ t=0.98
-0.7125807466994564
% es.Ey (V/m) @ t=0.98
0.2263822194587859
% es.Ez (V/m) @ t=0.98
1.8483583679935647
% es.tEx (V/m) @ t=0.98
-0.7125807466994706
% es.tEy (V/m) @ t=0.98
0
% es.tEz (V/m) @ t=0.98
1.8483583679935602
% V (V) @ t=0.98
0.009733920747839084
% es.normE (V/m) @ t=1
2.0170807781024838
% es.EX (V/m) @ t=1
-0.7189621559022454
% es.EY (V/m) @ t=1
0.22840955993135137
% es.EZ (V/m) @ t=1
1.864911081354716
% es.tEX (V/m) @ t=1
-0.7189621559022525
% es.tEY (V/m) @ t=1
0
% es.tEZ (V/m) @ t=1
1.8649110813547232
% es.Ex (V/m) @ t=1
-0.7189621559022454
% es.Ey (V/m) @ t=1
0.22840955993135137
% es.Ez (V/m) @ t=1
1.864911081354716
% es.tEx (V/m) @ t=1
-0.7189621559022525
% es.tEy (V/m) @ t=1
0
% es.tEz (V/m) @ t=1
1.8649110813547232
% V (V) @ t=1
0.009821090091257662
% es.normE (V/m) @ t=1.02
2.0349841290686506
% es.EX (V/m) @ t=1.02
-0.7253435651050346
% es.EY (V/m) @ t=1.02
0.2304369004038993
% es.EZ (V/m) @ t=1.02
1.8814637947158825
% es.tEX (V/m) @ t=1.02
-0.7253435651050417
% es.tEY (V/m) @ t=1.02
0
% es.tEZ (V/m) @ t=1.02
1.881463794715886
% es.Ex (V/m) @ t=1.02
-0.7253435651050346
% es.Ey (V/m) @ t=1.02
0.2304369004038993
% es.Ez (V/m) @ t=1.02
1.8814637947158825
% es.tEx (V/m) @ t=1.02
-0.7253435651050417
% es.tEy (V/m) @ t=1.02
0
% es.tEz (V/m) @ t=1.02
1.881463794715886
% V (V) @ t=1.02
0.00990825943467624
% es.normE (V/m) @ t=1.04
2.052887480034816
% es.EX (V/m) @ t=1.04
-0.7317249743078272
% es.EY (V/m) @ t=1.04
0.2324642408764701
% es.EZ (V/m) @ t=1.04
1.8980165080770428
% es.tEX (V/m) @ t=1.04
-0.7317249743078308