% Model:              1 neuron.mph
% Version:            COMSOL 6.1.0.252
% Date:               Mar 18 2023, 12:31
% Dimension:          0
% Nodes:              14017
% Expressions:        14017
% Description:        Electric field norm, Electric field, X component, Electric field, Y component, Electric field, Z component, Tangential electric field, X component, Tangential electric field, Y component, Tangential electric field, Z component, Electric field, x component, Electric field, y component, Electric field, z component, Tangential electric field, x component, Tangential electric field, y component, Tangential electric field, z component, Electric potential
% Length unit:        mm
% x
2
% y
12.2
% z
1.6599999999999997
% es.normE (V/m) @ t=0
1.2531096108628346
% es.EX (V/m) @ t=0
-1.2108355961920303
% es.EY (V/m) @ t=0
0.0932788653323427
% es.EZ (V/m) @ t=0
-0.30860782298538036
% es.tEX (V/m) @ t=0
-1.2108355961920267
% es.tEY (V/m) @ t=0
0
% es.tEZ (V/m) @ t=0
-0.30860782298538325
% es.Ex (V/m) @ t=0
-1.2108355961920303
% es.Ey (V/m) @ t=0
0.0932788653323427
% es.Ez (V/m) @ t=0
-0.30860782298538036
% es.tEx (V/m) @ t=0
-1.2108355961920267
% es.tEy (V/m) @ t=0
0
% es.tEz (V/m) @ t=0
-0.30860782298538325
% V (V) @ t=0
0.00726201924002647
% es.normE (V/m) @ t=0.02
1.0823245200454608
% es.EX (V/m) @ t=0.02
-1.0458119869916929
% es.EY (V/m) @ t=0.02
0.08056598647865176
% es.EZ (V/m) @ t=0.02
-0.26654797132248365
% es.tEX (V/m) @ t=0.02
-1.0458119869916942
% es.tEY (V/m) @ t=0.02
0
% es.tEZ (V/m) @ t=0.02
-0.2665479713224901
% es.Ex (V/m) @ t=0.02
-1.0458119869916929
% es.Ey (V/m) @ t=0.02
0.08056598647865176
% es.Ez (V/m) @ t=0.02
-0.26654797132248365
% es.tEx (V/m) @ t=0.02
-1.0458119869916942
% es.tEy (V/m) @ t=0.02
0
% es.tEz (V/m) @ t=0.02
-0.2665479713224901
% V (V) @ t=0.02
0.006272285519450603
% es.normE (V/m) @ t=0.04
1.0922801056925167
% es.EX (V/m) @ t=0.04
-1.0554317126351074
% es.EY (V/m) @ t=0.04
0.08130707350607724
% es.EZ (V/m) @ t=0.04
-0.2689997862281197
% es.tEX (V/m) @ t=0.04
-1.0554317126351105
% es.tEY (V/m) @ t=0.04
0
% es.tEZ (V/m) @ t=0.04
-0.2689997862281217
% es.Ex (V/m) @ t=0.04
-1.0554317126351074
% es.Ey (V/m) @ t=0.04
0.08130707350607724
% es.Ez (V/m) @ t=0.04
-0.2689997862281197
% es.tEx (V/m) @ t=0.04
-1.0554317126351105
% es.tEy (V/m) @ t=0.04
0
% es.tEz (V/m) @ t=0.04
-0.2689997862281217
% V (V) @ t=0.04
0.00632997976532203
% es.normE (V/m) @ t=0.06
1.1023276126128279
% es.EX (V/m) @ t=0.06
-1.0651402637415002
% es.EY (V/m) @ t=0.06
0.08205498962215002
% es.EZ (V/m) @ t=0.06
-0.2714742228233624
% es.tEX (V/m) @ t=0.06
-1.0651402637414922
% es.tEY (V/m) @ t=0.06
0
% es.tEZ (V/m) @ t=0.06
-0.271474222823362
% es.Ex (V/m) @ t=0.06
-1.0651402637415002
% es.Ey (V/m) @ t=0.06
0.08205498962215002
% es.Ez (V/m) @ t=0.06
-0.2714742228233624
% es.tEx (V/m) @ t=0.06
-1.0651402637414922
% es.tEy (V/m) @ t=0.06
0
% es.tEz (V/m) @ t=0.06
-0.271474222823362
% V (V) @ t=0.06
0.006388207047932952
% es.normE (V/m) @ t=0.08
1.1125233740140819
% es.EX (V/m) @ t=0.08
-1.0749920627551153
% es.EY (V/m) @ t=0.08
0.08281395480484355
% es.EZ (V/m) @ t=0.08
-0.2739851866303722
% es.tEX (V/m) @ t=0.08
-1.0749920627551202
% es.tEY (V/m) @ t=0.08
0
% es.tEZ (V/m) @ t=0.08
-0.2739851866303722
% es.Ex (V/m) @ t=0.08
-1.0749920627551153
% es.Ey (V/m) @ t=0.08
0.08281395480484355
% es.Ez (V/m) @ t=0.08
-0.2739851866303722
% es.tEx (V/m) @ t=0.08
-1.0749920627551202
% es.tEy (V/m) @ t=0.08
0
% es.tEz (V/m) @ t=0.08
-0.2739851866303722
% V (V) @ t=0.08
0.006447293160930794
% es.normE (V/m) @ t=0.1
1.1228326708163818
% es.EX (V/m) @ t=0.1
-1.0849535630640492
% es.EY (V/m) @ t=0.1
0.08358138152071654
% es.EZ (V/m) @ t=0.1
-0.27652412349834554
% es.tEX (V/m) @ t=0.1
-1.084953563064051
% es.tEY (V/m) @ t=0.1
0
% es.tEZ (V/m) @ t=0.1
-0.27652412349834776
% es.Ex (V/m) @ t=0.1
-1.0849535630640492
% es.Ey (V/m) @ t=0.1
0.08358138152071654
% es.Ez (V/m) @ t=0.1
-0.27652412349834554
% es.tEx (V/m) @ t=0.1
-1.084953563064051
% es.tEy (V/m) @ t=0.1
0
% es.tEz (V/m) @ t=0.1
-0.27652412349834776
% V (V) @ t=0.1
0.006507036978517189
% es.normE (V/m) @ t=0.12
1.1331419676186678
% es.EX (V/m) @ t=0.12
-1.094915063372969
% es.EY (V/m) @ t=0.12
0.0843488082365616
% es.EZ (V/m) @ t=0.12
-0.2790630603663231
% es.tEX (V/m) @ t=0.12
-1.0949150633729747
% es.tEY (V/m) @ t=0.12
0
% es.tEZ (V/m) @ t=0.12
-0.27906306036632245
% es.Ex (V/m) @ t=0.12
-1.094915063372969
% es.Ey (V/m) @ t=0.12
0.0843488082365616
% es.Ez (V/m) @ t=0.12
-0.2790630603663231
% es.tEx (V/m) @ t=0.12
-1.0949150633729747
% es.tEy (V/m) @ t=0.12
0
% es.tEz (V/m) @ t=0.12
-0.27906306036632245
% V (V) @ t=0.12
0.006566780796103586
% es.normE (V/m) @ t=0.14
1.1435303244132062
% es.EX (V/m) @ t=0.14
-1.1049529568992407
% es.EY (V/m) @ t=0.14
0.08512211913768286
% es.EZ (V/m) @ t=0.14
-0.2816214665795169
% es.tEX (V/m) @ t=0.14
-1.104952956899245
% es.tEY (V/m) @ t=0.14
0
% es.tEZ (V/m) @ t=0.14
-0.2816214665795176
% es.Ex (V/m) @ t=0.14
-1.1049529568992407
% es.Ey (V/m) @ t=0.14
0.08512211913768286
% es.Ez (V/m) @ t=0.14
-0.2816214665795169
% es.tEx (V/m) @ t=0.14
-1.104952956899245
% es.tEy (V/m) @ t=0.14
0
% es.tEz (V/m) @ t=0.14
-0.2816214665795176
% V (V) @ t=0.14
0.006626982803880263
% es.normE (V/m) @ t=0.16
1.1543938363066615
% es.EX (V/m) @ t=0.16
-1.1154499780539484
% es.EY (V/m) @ t=0.16
0.08593079433055023
% es.EZ (V/m) @ t=0.16
-0.28429688467691583
% es.tEX (V/m) @ t=0.16
-1.1154499780539364
% es.tEY (V/m) @ t=0.16
0
% es.tEZ (V/m) @ t=0.16
-0.28429688467692493
% es.Ex (V/m) @ t=0.16
-1.1154499780539484
% es.Ey (V/m) @ t=0.16
0.08593079433055023
% es.Ez (V/m) @ t=0.16
-0.28429688467691583
% es.tEx (V/m) @ t=0.16
-1.1154499780539364
% es.tEy (V/m) @ t=0.16
0
% es.tEz (V/m) @ t=0.16
-0.28429688467692493
% V (V) @ t=0.16
0.006689938561044497
% es.normE (V/m) @ t=0.18
1.1652573482001294
% es.EX (V/m) @ t=0.18
-1.1259469992086677
% es.EY (V/m) @ t=0.18
0.08673946952339795
% es.EZ (V/m) @ t=0.18
-0.28697230277432295
% es.tEX (V/m) @ t=0.18
-1.1259469992086633
% es.tEY (V/m) @ t=0.18
0
% es.tEZ (V/m) @ t=0.18
-0.28697230277431807
% es.Ex (V/m) @ t=0.18
-1.1259469992086677
% es.Ey (V/m) @ t=0.18
0.08673946952339795
% es.Ez (V/m) @ t=0.18
-0.28697230277432295
% es.tEx (V/m) @ t=0.18
-1.1259469992086633
% es.tEy (V/m) @ t=0.18
0
% es.tEz (V/m) @ t=0.18
-0.28697230277431807
% V (V) @ t=0.18
0.006752894318208731
% es.normE (V/m) @ t=0.2
1.1761208600935804
% es.EX (V/m) @ t=0.2
-1.1364440203633683
% es.EY (V/m) @ t=0.2
0.08754814471625727
% es.EZ (V/m) @ t=0.2
-0.2896477208717292
% es.tEX (V/m) @ t=0.2
-1.1364440203633759
% es.tEY (V/m) @ t=0.2
0
% es.tEZ (V/m) @ t=0.2
-0.2896477208717325
% es.Ex (V/m) @ t=0.2
-1.1364440203633683
% es.Ey (V/m) @ t=0.2
0.08754814471625727
% es.Ez (V/m) @ t=0.2
-0.2896477208717292
% es.tEx (V/m) @ t=0.2
-1.1364440203633759
% es.tEy (V/m) @ t=0.2
0
% es.tEz (V/m) @ t=0.2
-0.2896477208717325
% V (V) @ t=0.2
0.0068158500753729674
% es.normE (V/m) @ t=0.22
1.1869843719870434
% es.EX (V/m) @ t=0.22
-1.1469410415180832
% es.EY (V/m) @ t=0.22
0.08835681990910244
% es.EZ (V/m) @ t=0.22
-0.29232313896912987
% es.tEX (V/m) @ t=0.22
-1.1469410415180885
% es.tEY (V/m) @ t=0.22
0
% es.tEZ (V/m) @ t=0.22
-0.2923231389691292
% es.Ex (V/m) @ t=0.22
-1.1469410415180832
% es.Ey (V/m) @ t=0.22
0.08835681990910244
% es.Ez (V/m) @ t=0.22
-0.29232313896912987
% es.tEx (V/m) @ t=0.22
-1.1469410415180885
% es.tEy (V/m) @ t=0.22
0
% es.tEz (V/m) @ t=0.22
-0.2923231389691292
% V (V) @ t=0.22
0.006878805832537203
% es.normE (V/m) @ t=0.24
1.1978478838805031
% es.EX (V/m) @ t=0.24
-1.1574380626727918
% es.EY (V/m) @ t=0.24
0.08916549510195282
% es.EZ (V/m) @ t=0.24
-0.2949985570665379
% es.tEX (V/m) @ t=0.24
-1.157438062672794
% es.tEY (V/m) @ t=0.24
0
% es.tEZ (V/m) @ t=0.24
-0.294998557066533
% es.Ex (V/m) @ t=0.24
-1.1574380626727918
% es.Ey (V/m) @ t=0.24
0.08916549510195282
% es.Ez (V/m) @ t=0.24
-0.2949985570665379
% es.tEx (V/m) @ t=0.24
-1.157438062672794
% es.tEy (V/m) @ t=0.24
0
% es.tEz (V/m) @ t=0.24
-0.294998557066533
% V (V) @ t=0.24
0.006941761589701438
% es.normE (V/m) @ t=0.26
1.2087113957739692
% es.EX (V/m) @ t=0.26
-1.1679350838275102
% es.EY (V/m) @ t=0.26
0.08997417029480947
% es.EZ (V/m) @ t=0.26
-0.297673975163929
% es.tEX (V/m) @ t=0.26
-1.1679350838275067
% es.tEY (V/m) @ t=0.26
0
% es.tEZ (V/m) @ t=0.26
-0.29767397516393324
% es.Ex (V/m) @ t=0.26
-1.1679350838275102
% es.Ey (V/m) @ t=0.26
0.08997417029480947
% es.Ez (V/m) @ t=0.26
-0.297673975163929
% es.tEx (V/m) @ t=0.26
-1.1679350838275067
% es.tEy (V/m) @ t=0.26
0
% es.tEz (V/m) @ t=0.26
-0.29767397516393324
% V (V) @ t=0.26
0.007004717346865672
% es.normE (V/m) @ t=0.28
1.2199434582682724
% es.EX (V/m) @ t=0.28
-1.1787882254809396
% es.EY (V/m) @ t=0.28
0.09081027178275458
% es.EZ (V/m) @ t=0.28
-0.3004401480363186
% es.tEX (V/m) @ t=0.28
-1.1787882254809396
% es.tEY (V/m) @ t=0.28
0
% es.tEZ (V/m) @ t=0.28
-0.3004401480363246
% es.Ex (V/m) @ t=0.28
-1.1787882254809396
% es.Ey (V/m) @ t=0.28
0.09081027178275458
% es.Ez (V/m) @ t=0.28
-0.3004401480363186
% es.tEx (V/m) @ t=0.28
-1.1787882254809396
% es.tEy (V/m) @ t=0.28
0
% es.tEz (V/m) @ t=0.28
-0.3004401480363246
% V (V) @ t=0.28
0.007069809125291367
% es.normE (V/m) @ t=0.3
1.2320548787445045
% es.EX (V/m) @ t=0.3
-1.1904910670191686
% es.EY (V/m) @ t=0.3
0.09171181213161145
% es.EZ (V/m) @ t=0.3
-0.30342286087797143
% es.tEX (V/m) @ t=0.3
-1.1904910670191704
% es.tEY (V/m) @ t=0.3
0
% es.tEZ (V/m) @ t=0.3
-0.303422860877971
% es.Ex (V/m) @ t=0.3
-1.1904910670191686
% es.Ey (V/m) @ t=0.3
0.09171181213161145
% es.Ez (V/m) @ t=0.3
-0.30342286087797143
% es.tEx (V/m) @ t=0.3
-1.1904910670191704
% es.tEy (V/m) @ t=0.3
0
% es.tEz (V/m) @ t=0.3
-0.303422860877971
% V (V) @ t=0.3
0.007139997428703148
% es.normE (V/m) @ t=0.32
1.2441662992207365
% es.EX (V/m) @ t=0.32
-1.2021939085573985
% es.EY (V/m) @ t=0.32
0.09261335248044605
% es.EZ (V/m) @ t=0.32
-0.30640557371962807
% es.tEX (V/m) @ t=0.32
-1.202193908557394
% es.tEY (V/m) @ t=0.32
0
% es.tEZ (V/m) @ t=0.32
-0.3064055737196263
% es.Ex (V/m) @ t=0.32
-1.2021939085573985
% es.Ey (V/m) @ t=0.32
0.09261335248044605
% es.Ez (V/m) @ t=0.32
-0.30640557371962807
% es.tEx (V/m) @ t=0.32
-1.202193908557394
% es.tEy (V/m) @ t=0.32
0
% es.tEz (V/m) @ t=0.32
-0.3064055737196263
% V (V) @ t=0.32
0.007210185732114931
% es.normE (V/m) @ t=0.34
1.2562777196969719
% es.EX (V/m) @ t=0.34
-1.2138967500956266
% es.EY (V/m) @ t=0.34
0.09351489282931258
% es.EZ (V/m) @ t=0.34
-0.30938828656129447
% es.tEX (V/m) @ t=0.34
-1.2138967500956248
% es.tEY (V/m) @ t=0.34
0
% es.tEZ (V/m) @ t=0.34
-0.30938828656129047
% es.Ex (V/m) @ t=0.34
-1.2138967500956266
% es.Ey (V/m) @ t=0.34
0.09351489282931258
% es.Ez (V/m) @ t=0.34
-0.30938828656129447
% es.tEx (V/m) @ t=0.34
-1.2138967500956248
% es.tEy (V/m) @ t=0.34
0
% es.tEz (V/m) @ t=0.34
-0.30938828656129047
% V (V) @ t=0.34
0.007280374035526712
% es.normE (V/m) @ t=0.36
1.2683891401732057
% es.EX (V/m) @ t=0.36
-1.2255995916338556
% es.EY (V/m) @ t=0.36
0.09441643317816323
% es.EZ (V/m) @ t=0.36
-0.31237099940295354
% es.tEX (V/m) @ t=0.36
-1.225599591633861
% es.tEY (V/m) @ t=0.36
0
% es.tEZ (V/m) @ t=0.36
-0.31237099940294755
% es.Ex (V/m) @ t=0.36
-1.2255995916338556
% es.Ey (V/m) @ t=0.36
0.09441643317816323
% es.Ez (V/m) @ t=0.36
-0.31237099940295354
% es.tEx (V/m) @ t=0.36
-1.225599591633861
% es.tEy (V/m) @ t=0.36
0
% es.tEz (V/m) @ t=0.36
-0.31237099940294755
% V (V) @ t=0.36
0.007350562338938493
% es.normE (V/m) @ t=0.38
1.2805005606494413
% es.EX (V/m) @ t=0.38
-1.2373024331720925
% es.EY (V/m) @ t=0.38
0.09531797352700144
% es.EZ (V/m) @ t=0.38
-0.3153537122445931
% es.tEX (V/m) @ t=0.38
-1.2373024331720863
% es.tEY (V/m) @ t=0.38
0
% es.tEZ (V/m) @ t=0.38
-0.3153537122445922
% es.Ex (V/m) @ t=0.38
-1.2373024331720925
% es.Ey (V/m) @ t=0.38
0.09531797352700144
% es.Ez (V/m) @ t=0.38
-0.3153537122445931
% es.tEx (V/m) @ t=0.38
-1.2373024331720863
% es.tEy (V/m) @ t=0.38
0
% es.tEz (V/m) @ t=0.38
-0.3153537122445922
% V (V) @ t=0.38
0.0074207506423502765
% es.normE (V/m) @ t=0.4
1.2926119811256807
% es.EX (V/m) @ t=0.4
-1.249005274710326
% es.EY (V/m) @ t=0.4
0.09621951387585376
% es.EZ (V/m) @ t=0.4
-0.31833642508625526
% es.tEX (V/m) @ t=0.4
-1.2490052747103224
% es.tEY (V/m) @ t=0.4
0
% es.tEZ (V/m) @ t=0.4
-0.31833642508625815
% es.Ex (V/m) @ t=0.4
-1.249005274710326
% es.Ey (V/m) @ t=0.4
0.09621951387585376
% es.Ez (V/m) @ t=0.4
-0.31833642508625526
% es.tEx (V/m) @ t=0.4
-1.2490052747103224
% es.tEy (V/m) @ t=0.4
0
% es.tEz (V/m) @ t=0.4
-0.31833642508625815
% V (V) @ t=0.4
0.007490938945762057
% es.normE (V/m) @ t=0.42
1.3047234016019107
% es.EX (V/m) @ t=0.42
-1.2607081162485487
% es.EY (V/m) @ t=0.42
0.09712105422471862
% es.EZ (V/m) @ t=0.42
-0.3213191379279168
% es.tEX (V/m) @ t=0.42
-1.2607081162485532
% es.tEY (V/m) @ t=0.42
0
% es.tEZ (V/m) @ t=0.42
-0.321319137927917
% es.Ex (V/m) @ t=0.42
-1.2607081162485487
% es.Ey (V/m) @ t=0.42
0.09712105422471862
% es.Ez (V/m) @ t=0.42
-0.3213191379279168
% es.tEx (V/m) @ t=0.42
-1.2607081162485532
% es.tEy (V/m) @ t=0.42
0
% es.tEz (V/m) @ t=0.42
-0.321319137927917
% V (V) @ t=0.42
0.007561127249173839
% es.normE (V/m) @ t=0.44
1.316834822078166
% es.EX (V/m) @ t=0.44
-1.2724109577868017
% es.EY (V/m) @ t=0.44
0.09802259457356916
% es.EZ (V/m) @ t=0.44
-0.32430185076956564
% es.tEX (V/m) @ t=0.44
-1.2724109577867981
% es.tEY (V/m) @ t=0.44
0
% es.tEZ (V/m) @ t=0.44
-0.32430185076956697
% es.Ex (V/m) @ t=0.44
-1.2724109577868017
% es.Ey (V/m) @ t=0.44
0.09802259457356916
% es.Ez (V/m) @ t=0.44
-0.32430185076956564
% es.tEx (V/m) @ t=0.44
-1.2724109577867981
% es.tEy (V/m) @ t=0.44
0
% es.tEz (V/m) @ t=0.44
-0.32430185076956697
% V (V) @ t=0.44
0.007631315552585622
% es.normE (V/m) @ t=0.46
1.328946242554399
% es.EX (V/m) @ t=0.46
-1.2841137993250307
% es.EY (V/m) @ t=0.46
0.09892413492240915
% es.EZ (V/m) @ t=0.46
-0.32728456361122116
% es.tEX (V/m) @ t=0.46
-1.284113799325029
% es.tEY (V/m) @ t=0.46
0
% es.tEZ (V/m) @ t=0.46
-0.32728456361122404
% es.Ex (V/m) @ t=0.46
-1.2841137993250307
% es.Ey (V/m) @ t=0.46
0.09892413492240915
% es.Ez (V/m) @ t=0.46
-0.32728456361122116
% es.tEx (V/m) @ t=0.46
-1.284113799325029
% es.tEy (V/m) @ t=0.46
0
% es.tEz (V/m) @ t=0.46
-0.32728456361122404
% V (V) @ t=0.46
0.007701503855997402
% es.normE (V/m) @ t=0.48
1.3410576630306439
% es.EX (V/m) @ t=0.48
-1.295816640863272
% es.EY (V/m) @ t=0.48
0.09982567527124991
% es.EZ (V/m) @ t=0.48
-0.330267276452876
% es.tEX (V/m) @ t=0.48
-1.2958166408632668
% es.tEY (V/m) @ t=0.48
0
% es.tEZ (V/m) @ t=0.48
-0.3302672764528758
% es.Ex (V/m) @ t=0.48
-1.295816640863272
% es.Ey (V/m) @ t=0.48
0.09982567527124991
% es.Ez (V/m) @ t=0.48
-0.330267276452876
% es.tEx (V/m) @ t=0.48
-1.2958166408632668
% es.tEy (V/m) @ t=0.48
0
% es.tEz (V/m) @ t=0.48
-0.3302672764528758
% V (V) @ t=0.48
0.007771692159409184
% es.normE (V/m) @ t=0.5
1.353169083506867
% es.EX (V/m) @ t=0.5
-1.3075194824014877
% es.EY (V/m) @ t=0.5
0.10072721562010856
% es.EZ (V/m) @ t=0.5
-0.3332499892945351
% es.tEX (V/m) @ t=0.5
-1.3075194824014904
% es.tEY (V/m) @ t=0.5
0
% es.tEZ (V/m) @ t=0.5
-0.33324998929454175
% es.Ex (V/m) @ t=0.5
-1.3075194824014877
% es.Ey (V/m) @ t=0.5
0.10072721562010856
% es.Ez (V/m) @ t=0.5
-0.3332499892945351
% es.tEx (V/m) @ t=0.5
-1.3075194824014904
% es.tEy (V/m) @ t=0.5
0
% es.tEz (V/m) @ t=0.5
-0.33324998929454175
% V (V) @ t=0.5
0.007841880462820966
% es.normE (V/m) @ t=0.52
1.3652805039830964
% es.EX (V/m) @ t=0.52
-1.3192223239397114
% es.EY (V/m) @ t=0.52
0.10162875596897153
% es.EZ (V/m) @ t=0.52
-0.3362327021361875
% es.tEX (V/m) @ t=0.52
-1.319222323939714
% es.tEY (V/m) @ t=0.52
0
% es.tEZ (V/m) @ t=0.52
-0.33623270213618817
% es.Ex (V/m) @ t=0.52
-1.3192223239397114
% es.Ey (V/m) @ t=0.52
0.10162875596897153
% es.Ez (V/m) @ t=0.52
-0.3362327021361875
% es.tEx (V/m) @ t=0.52
-1.319222323939714
% es.tEy (V/m) @ t=0.52
0
% es.tEz (V/m) @ t=0.52
-0.33623270213618817
% V (V) @ t=0.52
0.007912068766232747
% es.normE (V/m) @ t=0.54
1.3773919244593675
% es.EX (V/m) @ t=0.54
-1.3309251654779777
% es.EY (V/m) @ t=0.54
0.10253029631779997
% es.EZ (V/m) @ t=0.54
-0.3392154149778517
% es.tEX (V/m) @ t=0.54
-1.3309251654779821
% es.tEY (V/m) @ t=0.54
0
% es.tEZ (V/m) @ t=0.54
-0.33921541497785945
% es.Ex (V/m) @ t=0.54
-1.3309251654779777
% es.Ey (V/m) @ t=0.54
0.10253029631779997
% es.Ez (V/m) @ t=0.54
-0.3392154149778517
% es.tEx (V/m) @ t=0.54
-1.3309251654779821
% es.tEy (V/m) @ t=0.54
0
% es.tEz (V/m) @ t=0.54
-0.33921541497785945
% V (V) @ t=0.54
0.007982257069644528
% es.normE (V/m) @ t=0.56
1.3903567225595017
% es.EX (V/m) @ t=0.56
-1.3434534849065614
% es.EY (V/m) @ t=0.56
0.10349306862880531
% es.EZ (V/m) @ t=0.56
-0.34240553030911847
% es.tEX (V/m) @ t=0.56
-1.3434534849065578
% es.tEY (V/m) @ t=0.56
0
% es.tEZ (V/m) @ t=0.56
-0.3424055303091169
% es.Ex (V/m) @ t=0.56
-1.3434534849065614
% es.Ey (V/m) @ t=0.56
0.10349306862880531
% es.Ez (V/m) @ t=0.56
-0.34240553030911847
% es.tEx (V/m) @ t=0.56
-1.3434534849065578
% es.tEy (V/m) @ t=0.56
0
% es.tEz (V/m) @ t=0.56
-0.3424055303091169
% V (V) @ t=0.56
0.008057448290913203
% es.normE (V/m) @ t=0.58
1.4038887829152435
% es.EX (V/m) @ t=0.58
-1.3565305208921021
% es.EY (V/m) @ t=0.58
0.10449654341269349
% es.EZ (V/m) @ t=0.58
-0.3457335114528095
% es.tEX (V/m) @ t=0.58
-1.356530520892095
% es.tEY (V/m) @ t=0.58
0
% es.tEZ (V/m) @ t=0.58
-0.34573351145280995
% es.Ex (V/m) @ t=0.58
-1.3565305208921021
% es.Ey (V/m) @ t=0.58
0.10449654341269349
% es.Ez (V/m) @ t=0.58
-0.3457335114528095
% es.tEx (V/m) @ t=0.58
-1.356530520892095
% es.tEy (V/m) @ t=0.58
0
% es.tEz (V/m) @ t=0.58
-0.34573351145280995
% V (V) @ t=0.58
0.008135965081398269
% es.normE (V/m) @ t=0.6
1.4174208432982316
% es.EX (V/m) @ t=0.6
-1.3696075568776296
% es.EY (V/m) @ t=0.6
0.10550001819655946
% es.EZ (V/m) @ t=0.6
-0.3490614925964972
% es.tEX (V/m) @ t=0.6
-1.3696075568776411
% es.tEY (V/m) @ t=0.6
0
% es.tEZ (V/m) @ t=0.6
-0.3490614925965012
% es.Ex (V/m) @ t=0.6
-1.3696075568776296
% es.Ey (V/m) @ t=0.6
0.10550001819655946
% es.Ez (V/m) @ t=0.6
-0.3490614925964972
% es.tEx (V/m) @ t=0.6
-1.3696075568776411
% es.tEy (V/m) @ t=0.6
0
% es.tEz (V/m) @ t=0.6
-0.3490614925965012
% V (V) @ t=0.6
0.008214481871883332
% es.normE (V/m) @ t=0.62
1.4309529037077224
% es.EX (V/m) @ t=0.62
-1.3826845928631677
% es.EY (V/m) @ t=0.62
0.10650349298043243
% es.EZ (V/m) @ t=0.62
-0.3523894737401978
% es.tEX (V/m) @ t=0.62
-1.3826845928631712
% es.tEY (V/m) @ t=0.62
0
% es.tEZ (V/m) @ t=0.62
-0.35238947374019425
% es.Ex (V/m) @ t=0.62
-1.3826845928631677
% es.Ey (V/m) @ t=0.62
0.10650349298043243
% es.Ez (V/m) @ t=0.62
-0.3523894737401978
% es.tEx (V/m) @ t=0.62
-1.3826845928631712
% es.tEy (V/m) @ t=0.62
0
% es.tEz (V/m) @ t=0.62
-0.35238947374019425
% V (V) @ t=0.62
0.008292998662368396
% es.normE (V/m) @ t=0.64
1.4444849641429691
% es.EX (V/m) @ t=0.64
-1.3957616288487245
% es.EY (V/m) @ t=0.64
0.10750696776431529
% es.EZ (V/m) @ t=0.64
-0.3557174548838704
% es.tEX (V/m) @ t=0.64
-1.3957616288487174
% es.tEY (V/m) @ t=0.64
0
% es.tEZ (V/m) @ t=0.64
-0.35571745488387485
% es.Ex (V/m) @ t=0.64
-1.3957616288487245
% es.Ey (V/m) @ t=0.64
0.10750696776431529
% es.Ez (V/m) @ t=0.64
-0.3557174548838704
% es.tEx (V/m) @ t=0.64
-1.3957616288487174
% es.tEy (V/m) @ t=0.64
0
% es.tEz (V/m) @ t=0.64
-0.35571745488387485
% V (V) @ t=0.64
0.008371515452853459
% es.normE (V/m) @ t=0.66
1.4580170246032158
% es.EX (V/m) @ t=0.66
-1.4088386648342528
% es.EY (V/m) @ t=0.66
0.10851044254816339
% es.EZ (V/m) @ t=0.66
-0.35904543602755656
% es.tEX (V/m) @ t=0.66
-1.4088386648342635
% es.tEY (V/m) @ t=0.66
0
% es.tEZ (V/m) @ t=0.66
-0.35904543602755723
% es.Ex (V/m) @ t=0.66
-1.4088386648342528
% es.Ey (V/m) @ t=0.66
0.10851044254816339
% es.Ez (V/m) @ t=0.66
-0.35904543602755656
% es.tEx (V/m) @ t=0.66
-1.4088386648342635
% es.tEy (V/m) @ t=0.66
0
% es.tEz (V/m) @ t=0.66
-0.35904543602755723
% V (V) @ t=0.66
0.008450032243338524
% es.normE (V/m) @ t=0.68
1.4715490850878141
% es.EX (V/m) @ t=0.68
-1.4219157008197891
% es.EY (V/m) @ t=0.68
0.10951391733205867
% es.EZ (V/m) @ t=0.68
-0.3623734171712558
% es.tEX (V/m) @ t=0.68
-1.4219157008197918
% es.tEY (V/m) @ t=0.68
0
% es.tEZ (V/m) @ t=0.68
-0.3623734171712574
% es.Ex (V/m) @ t=0.68
-1.4219157008197891
% es.Ey (V/m) @ t=0.68
0.10951391733205867
% es.Ez (V/m) @ t=0.68
-0.3623734171712558
% es.tEx (V/m) @ t=0.68
-1.4219157008197918
% es.tEy (V/m) @ t=0.68
0
% es.tEz (V/m) @ t=0.68
-0.3623734171712574
% V (V) @ t=0.68
0.008528549033823586
% es.normE (V/m) @ t=0.7
1.485081145596076
% es.EX (V/m) @ t=0.7
-1.4349927368053201
% es.EY (V/m) @ t=0.7
0.11051739211594064
% es.EZ (V/m) @ t=0.7
-0.36570139831494886
% es.tEX (V/m) @ t=0.7
-1.4349927368053237
% es.tEY (V/m) @ t=0.7
0
% es.tEZ (V/m) @ t=0.7
-0.36570139831494686
% es.Ex (V/m) @ t=0.7
-1.4349927368053201
% es.Ey (V/m) @ t=0.7
0.11051739211594064
% es.Ez (V/m) @ t=0.7
-0.36570139831494886
% es.tEx (V/m) @ t=0.7
-1.4349927368053237
% es.tEy (V/m) @ t=0.7
0
% es.tEz (V/m) @ t=0.7
-0.36570139831494686
% V (V) @ t=0.7
0.008607065824308651
% es.normE (V/m) @ t=0.72
1.4986132061273736
% es.EX (V/m) @ t=0.72
-1.4480697727908556
% es.EY (V/m) @ t=0.72
0.11152086689982249
% es.EZ (V/m) @ t=0.72
-0.36902937945864656
% es.tEX (V/m) @ t=0.72
-1.4480697727908538
% es.tEY (V/m) @ t=0.72
0
% es.tEZ (V/m) @ t=0.72
-0.3690293794586452
% es.Ex (V/m) @ t=0.72
-1.4480697727908556
% es.Ey (V/m) @ t=0.72
0.11152086689982249
% es.Ez (V/m) @ t=0.72
-0.36902937945864656
% es.tEx (V/m) @ t=0.72
-1.4480697727908538
% es.tEy (V/m) @ t=0.72
0
% es.tEz (V/m) @ t=0.72
-0.3690293794586452
% V (V) @ t=0.72
0.008685582614793715
% es.normE (V/m) @ t=0.74
1.5121452666810797
% es.EX (V/m) @ t=0.74
-1.4611468087763972
% es.EY (V/m) @ t=0.74
0.11252434168367514
% es.EZ (V/m) @ t=0.74
-0.3723573606023156
% es.tEX (V/m) @ t=0.74
-1.461146808776407
% es.tEY (V/m) @ t=0.74
0
% es.tEZ (V/m) @ t=0.74
-0.3723573606023205
% es.Ex (V/m) @ t=0.74
-1.4611468087763972
% es.Ey (V/m) @ t=0.74
0.11252434168367514
% es.Ez (V/m) @ t=0.74
-0.3723573606023156
% es.tEx (V/m) @ t=0.74
-1.461146808776407
% es.tEy (V/m) @ t=0.74
0
% es.tEz (V/m) @ t=0.74
-0.3723573606023205
% V (V) @ t=0.74
0.00876409940527878
% es.normE (V/m) @ t=0.76
1.5256773272566095
% es.EX (V/m) @ t=0.76
-1.4742238447619354
% es.EY (V/m) @ t=0.76
0.11352781646754728
% es.EZ (V/m) @ t=0.76
-0.37568534174602486
% es.tEX (V/m) @ t=0.76
-1.47422384476193
% es.tEY (V/m) @ t=0.76
0
% es.tEZ (V/m) @ t=0.76
-0.37568534174602064
% es.Ex (V/m) @ t=0.76
-1.4742238447619354
% es.Ey (V/m) @ t=0.76
0.11352781646754728
% es.Ez (V/m) @ t=0.76
-0.37568534174602486
% es.tEx (V/m) @ t=0.76
-1.47422384476193
% es.tEy (V/m) @ t=0.76
0
% es.tEz (V/m) @ t=0.76
-0.37568534174602064
% V (V) @ t=0.76
0.008842616195763842
% es.normE (V/m) @ t=0.78
1.5392093878533901
% es.EX (V/m) @ t=0.78
-1.4873008807474895
% es.EY (V/m) @ t=0.78
0.11453129125142042
% es.EZ (V/m) @ t=0.78
-0.379013322889715
% es.tEX (V/m) @ t=0.78
-1.4873008807474815
% es.tEY (V/m) @ t=0.78
0
% es.tEZ (V/m) @ t=0.78
-0.3790133228897101
% es.Ex (V/m) @ t=0.78
-1.4873008807474895
% es.Ey (V/m) @ t=0.78
0.11453129125142042
% es.Ez (V/m) @ t=0.78
-0.379013322889715
% es.tEx (V/m) @ t=0.78
-1.4873008807474815
% es.tEy (V/m) @ t=0.78
0
% es.tEz (V/m) @ t=0.78
-0.3790133228897101
% V (V) @ t=0.78
0.008921132986248907
% es.normE (V/m) @ t=0.8
1.552741448470821
% es.EX (V/m) @ t=0.8
-1.5003779167330071
% es.EY (V/m) @ t=0.8
0.11553476603530849
% es.EZ (V/m) @ t=0.8
-0.3823413040334023
% es.tEX (V/m) @ t=0.8
-1.5003779167330134
% es.tEY (V/m) @ t=0.8
0
% es.tEZ (V/m) @ t=0.8
-0.3823413040333872
% es.Ex (V/m) @ t=0.8
-1.5003779167330071
% es.Ey (V/m) @ t=0.8
0.11553476603530849
% es.Ez (V/m) @ t=0.8
-0.3823413040334023
% es.tEx (V/m) @ t=0.8
-1.5003779167330134
% es.tEy (V/m) @ t=0.8
0
% es.tEz (V/m) @ t=0.8
-0.3823413040333872
% V (V) @ t=0.8
0.00899964977673397
% es.normE (V/m) @ t=0.82
1.566273509108414
% es.EX (V/m) @ t=0.82
-1.51345495271854
% es.EY (V/m) @ t=0.82
0.11653824081917263
% es.EZ (V/m) @ t=0.82
-0.38566928517709176
% es.tEX (V/m) @ t=0.82
-1.5134549527185452
% es.tEY (V/m) @ t=0.82
0
% es.tEZ (V/m) @ t=0.82
-0.38566928517709087
% es.Ex (V/m) @ t=0.82
-1.51345495271854
% es.Ey (V/m) @ t=0.82
0.11653824081917263
% es.Ez (V/m) @ t=0.82
-0.38566928517709176
% es.tEx (V/m) @ t=0.82
-1.5134549527185452
% es.tEy (V/m) @ t=0.82
0
% es.tEz (V/m) @ t=0.82
-0.38566928517709087
% V (V) @ t=0.82
0.009078166567219034
% es.normE (V/m) @ t=0.84
1.5812561716395486
% es.EX (V/m) @ t=0.84
-1.5279314185200095
% es.EY (V/m) @ t=0.84
0.11765545817961748
% es.EZ (V/m) @ t=0.84
-0.38936145673396894
% es.tEX (V/m) @ t=0.84
-1.5279314185200104
% es.tEY (V/m) @ t=0.84
0
% es.tEZ (V/m) @ t=0.84
-0.3893614567339725
% es.Ex (V/m) @ t=0.84
-1.5279314185200095
% es.Ey (V/m) @ t=0.84
0.11765545817961748
% es.Ez (V/m) @ t=0.84
-0.38936145673396894
% es.tEx (V/m) @ t=0.84
-1.5279314185200104
% es.tEy (V/m) @ t=0.84
0
% es.tEz (V/m) @ t=0.84
-0.3893614567339725
% V (V) @ t=0.84
0.009164945481886786
% es.normE (V/m) @ t=0.86
1.5963892244283384
% es.EX (V/m) @ t=0.86
-1.5425529693323465
% es.EY (V/m) @ t=0.86
0.1187844677305599
% es.EZ (V/m) @ t=0.86
-0.393091385504134
% es.tEX (V/m) @ t=0.86
-1.5425529693323323
% es.tEY (V/m) @ t=0.86
0
% es.tEZ (V/m) @ t=0.86
-0.39309138550412825
% es.Ex (V/m) @ t=0.86
-1.5425529693323465
% es.Ey (V/m) @ t=0.86
0.1187844677305599
% es.Ez (V/m) @ t=0.86
-0.393091385504134
% es.tEx (V/m) @ t=0.86
-1.5425529693323323
% es.tEy (V/m) @ t=0.86
0
% es.tEz (V/m) @ t=0.86
-0.39309138550412825
% V (V) @ t=0.86
0.009252580967111512
% es.normE (V/m) @ t=0.88
1.6115222772322098
% es.EX (V/m) @ t=0.88
-1.5571745201446827
% es.EY (V/m) @ t=0.88
0.11991347728150503
% es.EZ (V/m) @ t=0.88
-0.396821314274324
% es.tEX (V/m) @ t=0.88
-1.5571745201446756
% es.tEY (V/m) @ t=0.88
0
% es.tEZ (V/m) @ t=0.88
-0.3968213142743142
% es.Ex (V/m) @ t=0.88
-1.5571745201446827
% es.Ey (V/m) @ t=0.88
0.11991347728150503
% es.Ez (V/m) @ t=0.88
-0.396821314274324
% es.tEx (V/m) @ t=0.88
-1.5571745201446756
% es.tEy (V/m) @ t=0.88
0
% es.tEz (V/m) @ t=0.88
-0.3968213142743142
% V (V) @ t=0.88
0.009340216452336242
% es.normE (V/m) @ t=0.9
1.6266553300507045
% es.EX (V/m) @ t=0.9
-1.5717960709569958
% es.EY (V/m) @ t=0.9
0.12104248683243324
% es.EZ (V/m) @ t=0.9
-0.4005512430444802
% es.tEX (V/m) @ t=0.9
-1.5717960709569976
% es.tEY (V/m) @ t=0.9
0
% es.tEZ (V/m) @ t=0.9
-0.4005512430444842
% es.Ex (V/m) @ t=0.9
-1.5717960709569958
% es.Ey (V/m) @ t=0.9
0.12104248683243324
% es.Ez (V/m) @ t=0.9
-0.4005512430444802
% es.tEx (V/m) @ t=0.9
-1.5717960709569976
% es.tEy (V/m) @ t=0.9
0
% es.tEz (V/m) @ t=0.9
-0.4005512430444842
% V (V) @ t=0.9
0.009427851937560969
% es.normE (V/m) @ t=0.92
1.6417883828834865
% es.EX (V/m) @ t=0.92
-1.5864176217693453
% es.EY (V/m) @ t=0.92
0.12217149638335523
% es.EZ (V/m) @ t=0.92
-0.4042811718146444
% es.tEX (V/m) @ t=0.92
-1.5864176217693302
% es.tEY (V/m) @ t=0.92
0
% es.tEZ (V/m) @ t=0.92
-0.4042811718146435
% es.Ex (V/m) @ t=0.92
-1.5864176217693453
% es.Ey (V/m) @ t=0.92
0.12217149638335523
% es.Ez (V/m) @ t=0.92
-0.4042811718146444
% es.tEx (V/m) @ t=0.92
-1.5864176217693302
% es.tEy (V/m) @ t=0.92
0
% es.tEz (V/m) @ t=0.92
-0.4042811718146435
% V (V) @ t=0.92
0.009515487422785698
% es.normE (V/m) @ t=0.94
1.6569214357301116
% es.EX (V/m) @ t=0.94
-1.6010391725816735
% es.EY (V/m) @ t=0.94
0.123300505934271
% es.EZ (V/m) @ t=0.94
-0.40801110058482504
% es.tEX (V/m) @ t=0.94
-1.6010391725816895
% es.tEY (V/m) @ t=0.94
0
% es.tEZ (V/m) @ t=0.94
-0.4080111005848259
% es.Ex (V/m) @ t=0.94
-1.6010391725816735
% es.Ey (V/m) @ t=0.94
0.123300505934271
% es.Ez (V/m) @ t=0.94
-0.40801110058482504
% es.tEx (V/m) @ t=0.94
-1.6010391725816895
% es.tEy (V/m) @ t=0.94
0
% es.tEz (V/m) @ t=0.94
-0.4080111005848259
% V (V) @ t=0.94
0.009603122908010428
% es.normE (V/m) @ t=0.96
1.6720544885902242
% es.EX (V/m) @ t=0.96
-1.6156607233940026
% es.EY (V/m) @ t=0.96
0.12442951548522141
% es.EZ (V/m) @ t=0.96
-0.411741029355007
% es.tEX (V/m) @ t=0.96
-1.6156607233940097
% es.tEY (V/m) @ t=0.96
0
% es.tEZ (V/m) @ t=0.96
-0.41174102935500656
% es.Ex (V/m) @ t=0.96
-1.6156607233940026
% es.Ey (V/m) @ t=0.96
0.12442951548522141
% es.Ez (V/m) @ t=0.96
-0.411741029355007
% es.tEx (V/m) @ t=0.96
-1.6156607233940097
% es.tEy (V/m) @ t=0.96
0
% es.tEz (V/m) @ t=0.96
-0.41174102935500656
% V (V) @ t=0.96
0.009690758393235155
% es.normE (V/m) @ t=0.98
1.6871875414634645
% es.EX (V/m) @ t=0.98
-1.6302822742063432
% es.EY (V/m) @ t=0.98
0.12555852503615594
% es.EZ (V/m) @ t=0.98
-0.4154709581251774
% es.tEX (V/m) @ t=0.98
-1.6302822742063334
% es.tEY (V/m) @ t=0.98
0
% es.tEZ (V/m) @ t=0.98
-0.41547095812516766
% es.Ex (V/m) @ t=0.98
-1.6302822742063432
% es.Ey (V/m) @ t=0.98
0.12555852503615594
% es.Ez (V/m) @ t=0.98
-0.4154709581251774
% es.tEx (V/m) @ t=0.98
-1.6302822742063334
% es.tEy (V/m) @ t=0.98
0
% es.tEz (V/m) @ t=0.98
-0.41547095812516766
% V (V) @ t=0.98
0.009778393878459885
% es.normE (V/m) @ t=1
1.7023205943494748
% es.EX (V/m) @ t=1
-1.6449038250186803
% es.EY (V/m) @ t=1
0.1266875345870877
% es.EZ (V/m) @ t=1
-0.4192008868953594
% es.tEX (V/m) @ t=1
-1.6449038250186732
% es.tEY (V/m) @ t=1
0
% es.tEZ (V/m) @ t=1
-0.4192008868953554
% es.Ex (V/m) @ t=1
-1.6449038250186803
% es.Ey (V/m) @ t=1
0.1266875345870877
% es.Ez (V/m) @ t=1
-0.4192008868953594
% es.tEx (V/m) @ t=1
-1.6449038250186732
% es.tEy (V/m) @ t=1
0
% es.tEz (V/m) @ t=1
-0.4192008868953554
% V (V) @ t=1
0.009866029363684614
% es.normE (V/m) @ t=1.02
1.7174536472479063
% es.EX (V/m) @ t=1.02
-1.659525375831013
% es.EY (V/m) @ t=1.02
0.1278165441380008
% es.EZ (V/m) @ t=1.02
-0.4229308156655165
% es.tEX (V/m) @ t=1.02
-1.6595253758310093
% es.tEY (V/m) @ t=1.02
0
% es.tEZ (V/m) @ t=1.02
-0.42293081566551116
% es.Ex (V/m) @ t=1.02
-1.659525375831013
% es.Ey (V/m) @ t=1.02
0.1278165441380008
% es.Ez (V/m) @ t=1.02
-0.4229308156655165
% es.tEx (V/m) @ t=1.02