% Model:              1 neuron.mph
% Version:            COMSOL 6.1.0.252
% Date:               Mar 18 2023, 12:25
% Dimension:          0
% Nodes:              14017
% Expressions:        14017
% Description:        Electric field norm, Electric field, X component, Electric field, Y component, Electric field, Z component, Tangential electric field, X component, Tangential electric field, Y component, Tangential electric field, Z component, Electric field, x component, Electric field, y component, Electric field, z component, Tangential electric field, x component, Tangential electric field, y component, Tangential electric field, z component, Electric potential
% Length unit:        mm
% x
1.66
% y
12.2
% z
2
% es.normE (V/m) @ t=0
1.4550375710444423
% es.EX (V/m) @ t=0
-0.43406966917930356
% es.EY (V/m) @ t=0
0.032422965112745464
% es.EZ (V/m) @ t=0
-1.3860680908272562
% es.tEX (V/m) @ t=0
-0.4340696691793049
% es.tEY (V/m) @ t=0
0
% es.tEZ (V/m) @ t=0
-1.3860680908272744
% es.Ex (V/m) @ t=0
-0.43406966917930356
% es.Ey (V/m) @ t=0
0.032422965112745464
% es.Ez (V/m) @ t=0
-1.3860680908272562
% es.tEx (V/m) @ t=0
-0.4340696691793049
% es.tEy (V/m) @ t=0
0
% es.tEz (V/m) @ t=0
-1.3860680908272744
% V (V) @ t=0
0.007313625319802787
% es.normE (V/m) @ t=0.02
1.256732885964707
% es.EX (V/m) @ t=0.02
-0.3749110255997203
% es.EY (V/m) @ t=0.02
0.028004092346796836
% es.EZ (V/m) @ t=0.02
-1.1971631431363838
% es.tEX (V/m) @ t=0.02
-0.37491102559972234
% es.tEY (V/m) @ t=0.02
0
% es.tEZ (V/m) @ t=0.02
-1.1971631431363945
% es.Ex (V/m) @ t=0.02
-0.3749110255997203
% es.Ey (V/m) @ t=0.02
0.028004092346796836
% es.Ez (V/m) @ t=0.02
-1.1971631431363838
% es.tEx (V/m) @ t=0.02
-0.37491102559972234
% es.tEy (V/m) @ t=0.02
0
% es.tEz (V/m) @ t=0.02
-1.1971631431363945
% V (V) @ t=0.02
0.006316863315821742
% es.normE (V/m) @ t=0.04
1.2682935990406996
% es.EX (V/m) @ t=0.04
-0.3783598402714867
% es.EY (V/m) @ t=0.04
0.028261702636424864
% es.EZ (V/m) @ t=0.04
-1.2081758728485474
% es.tEX (V/m) @ t=0.04
-0.37835984027149294
% es.tEY (V/m) @ t=0.04
0
% es.tEZ (V/m) @ t=0.04
-1.208175872848551
% es.Ex (V/m) @ t=0.04
-0.3783598402714867
% es.Ey (V/m) @ t=0.04
0.028261702636424864
% es.Ez (V/m) @ t=0.04
-1.2081758728485474
% es.tEx (V/m) @ t=0.04
-0.37835984027149294
% es.tEy (V/m) @ t=0.04
0
% es.tEz (V/m) @ t=0.04
-1.208175872848551
% V (V) @ t=0.04
0.006374972277698868
% es.normE (V/m) @ t=0.06
1.279961427392379
% es.EX (V/m) @ t=0.06
-0.3818406097801236
% es.EY (V/m) @ t=0.06
0.02852169978688844
% es.EZ (V/m) @ t=0.06
-1.2192906405228099
% es.tEX (V/m) @ t=0.06
-0.38184060978012724
% es.tEY (V/m) @ t=0.06
0
% es.tEZ (V/m) @ t=0.06
-1.2192906405228308
% es.Ex (V/m) @ t=0.06
-0.3818406097801236
% es.Ey (V/m) @ t=0.06
0.02852169978688844
% es.Ez (V/m) @ t=0.06
-1.2192906405228099
% es.tEx (V/m) @ t=0.06
-0.38184060978012724
% es.tEy (V/m) @ t=0.06
0
% es.tEz (V/m) @ t=0.06
-1.2192906405228308
% V (V) @ t=0.06
0.006433619645517634
% es.normE (V/m) @ t=0.08
1.2918005178397043
% es.EX (V/m) @ t=0.08
-0.3853724705206845
% es.EY (V/m) @ t=0.08
0.028785513183605144
% es.EZ (V/m) @ t=0.08
-1.2305685523933332
% es.tEX (V/m) @ t=0.08
-0.38537247052068935
% es.tEY (V/m) @ t=0.08
0
% es.tEZ (V/m) @ t=0.08
-1.2305685523933558
% es.Ex (V/m) @ t=0.08
-0.3853724705206845
% es.Ey (V/m) @ t=0.08
0.028785513183605144
% es.Ez (V/m) @ t=0.08
-1.2305685523933332
% es.tEx (V/m) @ t=0.08
-0.38537247052068935
% es.tEy (V/m) @ t=0.08
0
% es.tEz (V/m) @ t=0.08
-1.2305685523933558
% V (V) @ t=0.08
0.006493127848941079
% es.normE (V/m) @ t=0.1
1.30377271702293
% es.EX (V/m) @ t=0.1
-0.3889440405108168
% es.EY (V/m) @ t=0.1
0.02905229265235975
% es.EZ (V/m) @ t=0.1
-1.2419732635865635
% es.tEX (V/m) @ t=0.1
-0.38894404051082176
% es.tEY (V/m) @ t=0.1
0
% es.tEZ (V/m) @ t=0.1
-1.2419732635865683
% es.Ex (V/m) @ t=0.1
-0.3889440405108168
% es.Ey (V/m) @ t=0.1
0.02905229265235975
% es.Ez (V/m) @ t=0.1
-1.2419732635865635
% es.tEx (V/m) @ t=0.1
-0.38894404051082176
% es.tEy (V/m) @ t=0.1
0
% es.tEz (V/m) @ t=0.1
-1.2419732635865683
% V (V) @ t=0.1
0.006553305113073629
% es.normE (V/m) @ t=0.12
1.3157449162061559
% es.EX (V/m) @ t=0.12
-0.3925156105009501
% es.EY (V/m) @ t=0.12
0.029319072121113343
% es.EZ (V/m) @ t=0.12
-1.2533779747797933
% es.tEX (V/m) @ t=0.12
-0.39251561050095063
% es.tEY (V/m) @ t=0.12
0
% es.tEZ (V/m) @ t=0.12
-1.2533779747798013
% es.Ex (V/m) @ t=0.12
-0.3925156105009501
% es.Ey (V/m) @ t=0.12
0.029319072121113343
% es.Ez (V/m) @ t=0.12
-1.2533779747797933
% es.tEx (V/m) @ t=0.12
-0.39251561050095063
% es.tEy (V/m) @ t=0.12
0
% es.tEz (V/m) @ t=0.12
-1.2533779747798013
% V (V) @ t=0.12
0.00661348237720618
% es.normE (V/m) @ t=0.14
1.3278043442722445
% es.EX (V/m) @ t=0.14
-0.39611320283958124
% es.EY (V/m) @ t=0.14
0.029587795389974227
% es.EZ (V/m) @ t=0.14
-1.2648657801431211
% es.tEX (V/m) @ t=0.14
-0.39611320283958307
% es.tEY (V/m) @ t=0.14
0
% es.tEZ (V/m) @ t=0.14
-1.2648657801431398
% es.Ex (V/m) @ t=0.14
-0.39611320283958124
% es.Ey (V/m) @ t=0.14
0.029587795389974227
% es.Ez (V/m) @ t=0.14
-1.2648657801431211
% es.tEx (V/m) @ t=0.14
-0.39611320283958307
% es.tEy (V/m) @ t=0.14
0
% es.tEz (V/m) @ t=0.14
-1.2648657801431398
% V (V) @ t=0.14
0.0066740980877174885
% es.normE (V/m) @ t=0.16
1.3404208105010653
% es.EX (V/m) @ t=0.16
-0.3998769722599145
% es.EY (V/m) @ t=0.16
0.029868931644127038
% es.EZ (V/m) @ t=0.16
-1.2768842196533825
% es.tEX (V/m) @ t=0.16
-0.3998769722599178
% es.tEY (V/m) @ t=0.16
0
% es.tEZ (V/m) @ t=0.16
-1.2768842196533994
% es.Ex (V/m) @ t=0.16
-0.3998769722599145
% es.Ey (V/m) @ t=0.16
0.029868931644127038
% es.Ez (V/m) @ t=0.16
-1.2768842196533825
% es.tEx (V/m) @ t=0.16
-0.3998769722599178
% es.tEy (V/m) @ t=0.16
0
% es.tEz (V/m) @ t=0.16
-1.2768842196533994
% V (V) @ t=0.16
0.006737513689242296
% es.normE (V/m) @ t=0.18
1.3530372767298915
% es.EX (V/m) @ t=0.18
-0.40364074168024333
% es.EY (V/m) @ t=0.18
0.03015006789828193
% es.EZ (V/m) @ t=0.18
-1.2889026591636505
% es.tEX (V/m) @ t=0.18
-0.40364074168024544
% es.tEY (V/m) @ t=0.18
0
% es.tEZ (V/m) @ t=0.18
-1.2889026591636519
% es.Ex (V/m) @ t=0.18
-0.40364074168024333
% es.Ey (V/m) @ t=0.18
0.03015006789828193
% es.Ez (V/m) @ t=0.18
-1.2889026591636505
% es.tEx (V/m) @ t=0.18
-0.40364074168024544
% es.tEy (V/m) @ t=0.18
0
% es.tEz (V/m) @ t=0.18
-1.2889026591636519
% V (V) @ t=0.18
0.006800929290767103
% es.normE (V/m) @ t=0.2
1.3656537429587086
% es.EX (V/m) @ t=0.2
-0.4074045111005731
% es.EY (V/m) @ t=0.2
0.030431204152445518
% es.EZ (V/m) @ t=0.2
-1.3009210986739088
% es.tEX (V/m) @ t=0.2
-0.4074045111005766
% es.tEY (V/m) @ t=0.2
0
% es.tEZ (V/m) @ t=0.2
-1.3009210986739097
% es.Ex (V/m) @ t=0.2
-0.4074045111005731
% es.Ey (V/m) @ t=0.2
0.030431204152445518
% es.Ez (V/m) @ t=0.2
-1.3009210986739088
% es.tEx (V/m) @ t=0.2
-0.4074045111005766
% es.tEy (V/m) @ t=0.2
0
% es.tEz (V/m) @ t=0.2
-1.3009210986739097
% V (V) @ t=0.2
0.006864344892291909
% es.normE (V/m) @ t=0.22
1.3782702091875274
% es.EX (V/m) @ t=0.22
-0.41116828052089915
% es.EY (V/m) @ t=0.22
0.030712340406597552
% es.EZ (V/m) @ t=0.22
-1.3129395381841702
% es.tEX (V/m) @ t=0.22
-0.41116828052090426
% es.tEY (V/m) @ t=0.22
0
% es.tEZ (V/m) @ t=0.22
-1.3129395381841835
% es.Ex (V/m) @ t=0.22
-0.41116828052089915
% es.Ey (V/m) @ t=0.22
0.030712340406597552
% es.Ez (V/m) @ t=0.22
-1.3129395381841702
% es.tEx (V/m) @ t=0.22
-0.41116828052090426
% es.tEy (V/m) @ t=0.22
0
% es.tEz (V/m) @ t=0.22
-1.3129395381841835
% V (V) @ t=0.22
0.006927760493816717
% es.normE (V/m) @ t=0.24
1.3908866754163518
% es.EX (V/m) @ t=0.24
-0.41493204994123334
% es.EY (V/m) @ t=0.24
0.030993476660758572
% es.EZ (V/m) @ t=0.24
-1.3249579776944351
% es.tEX (V/m) @ t=0.24
-0.4149320499412319
% es.tEY (V/m) @ t=0.24
0
% es.tEZ (V/m) @ t=0.24
-1.3249579776944431
% es.Ex (V/m) @ t=0.24
-0.41493204994123334
% es.Ey (V/m) @ t=0.24
0.030993476660758572
% es.Ez (V/m) @ t=0.24
-1.3249579776944351
% es.tEx (V/m) @ t=0.24
-0.4149320499412319
% es.tEy (V/m) @ t=0.24
0
% es.tEz (V/m) @ t=0.24
-1.3249579776944431
% V (V) @ t=0.24
0.006991176095341523
% es.normE (V/m) @ t=0.26
1.403503141645178
% es.EX (V/m) @ t=0.26
-0.4186958193615613
% es.EY (V/m) @ t=0.26
0.031274612914916684
% es.EZ (V/m) @ t=0.26
-1.3369764172047036
% es.tEX (V/m) @ t=0.26
-0.41869581936156663
% es.tEY (V/m) @ t=0.26
0
% es.tEZ (V/m) @ t=0.26
-1.336976417204708
% es.Ex (V/m) @ t=0.26
-0.4186958193615613
% es.Ey (V/m) @ t=0.26
0.031274612914916684
% es.Ez (V/m) @ t=0.26
-1.3369764172047036
% es.tEx (V/m) @ t=0.26
-0.41869581936156663
% es.tEy (V/m) @ t=0.26
0
% es.tEz (V/m) @ t=0.26
-1.336976417204708
% V (V) @ t=0.26
0.007054591696866332
% es.normE (V/m) @ t=0.28
1.4165270695226901
% es.EX (V/m) @ t=0.28
-0.4225811433917753
% es.EY (V/m) @ t=0.28
0.031564829129405204
% es.EZ (V/m) @ t=0.28
-1.3493830045031037
% es.tEX (V/m) @ t=0.28
-0.4225811433917812
% es.tEY (V/m) @ t=0.28
0
% es.tEZ (V/m) @ t=0.28
-1.3493830045031183
% es.Ex (V/m) @ t=0.28
-0.4225811433917753
% es.Ey (V/m) @ t=0.28
0.031564829129405204
% es.Ez (V/m) @ t=0.28
-1.3493830045031037
% es.tEx (V/m) @ t=0.28
-0.4225811433917812
% es.tEy (V/m) @ t=0.28
0
% es.tEz (V/m) @ t=0.28
-1.3493830045031183
% V (V) @ t=0.28
0.0071200553718879
% es.normE (V/m) @ t=0.3
1.430594477019844
% es.EX (V/m) @ t=0.3
-0.4267777599288759
% es.EY (V/m) @ t=0.3
0.03187829846131032
% es.EZ (V/m) @ t=0.3
-1.3627836100302977
% es.tEX (V/m) @ t=0.3
-0.42677775992887845
% es.tEY (V/m) @ t=0.3
0
% es.tEZ (V/m) @ t=0.3
-1.362783610030311
% es.Ex (V/m) @ t=0.3
-0.4267777599288759
% es.Ey (V/m) @ t=0.3
0.03187829846131032
% es.Ez (V/m) @ t=0.3
-1.3627836100302977
% es.tEx (V/m) @ t=0.3
-0.42677775992887845
% es.tEy (V/m) @ t=0.3
0
% es.tEz (V/m) @ t=0.3
-1.362783610030311
% V (V) @ t=0.3
0.007190764014037523
% es.normE (V/m) @ t=0.32
1.4446618845170078
% es.EX (V/m) @ t=0.32
-0.4309743764659739
% es.EY (V/m) @ t=0.32
0.03219176779322432
% es.EZ (V/m) @ t=0.32
-1.3761842155575024
% es.tEX (V/m) @ t=0.32
-0.4309743764659757
% es.tEY (V/m) @ t=0.32
0
% es.tEZ (V/m) @ t=0.32
-1.376184215557518
% es.Ex (V/m) @ t=0.32
-0.4309743764659739
% es.Ey (V/m) @ t=0.32
0.03219176779322432
% es.Ez (V/m) @ t=0.32
-1.3761842155575024
% es.tEx (V/m) @ t=0.32
-0.4309743764659757
% es.tEy (V/m) @ t=0.32
0
% es.tEz (V/m) @ t=0.32
-1.376184215557518
% V (V) @ t=0.32
0.007261472656187147
% es.normE (V/m) @ t=0.34
1.4587292920141635
% es.EX (V/m) @ t=0.34
-0.43517099300307027
% es.EY (V/m) @ t=0.34
0.03250523712513562
% es.EZ (V/m) @ t=0.34
-1.3895848210846995
% es.tEX (V/m) @ t=0.34
-0.43517099300307294
% es.tEY (V/m) @ t=0.34
0
% es.tEZ (V/m) @ t=0.34
-1.3895848210847106
% es.Ex (V/m) @ t=0.34
-0.43517099300307027
% es.Ey (V/m) @ t=0.34
0.03250523712513562
% es.Ez (V/m) @ t=0.34
-1.3895848210846995
% es.tEx (V/m) @ t=0.34
-0.43517099300307294
% es.tEy (V/m) @ t=0.34
0
% es.tEz (V/m) @ t=0.34
-1.3895848210847106
% V (V) @ t=0.34
0.0073321812983367695
% es.normE (V/m) @ t=0.36
1.472796699511309
% es.EX (V/m) @ t=0.36
-0.4393676095401754
% es.EY (V/m) @ t=0.36
0.03281870645702939
% es.EZ (V/m) @ t=0.36
-1.4029854266118829
% es.tEX (V/m) @ t=0.36
-0.4393676095401773
% es.tEY (V/m) @ t=0.36
0
% es.tEZ (V/m) @ t=0.36
-1.402985426611897
% es.Ex (V/m) @ t=0.36
-0.4393676095401754
% es.Ey (V/m) @ t=0.36
0.03281870645702939
% es.Ez (V/m) @ t=0.36
-1.4029854266118829
% es.tEx (V/m) @ t=0.36
-0.4393676095401773
% es.tEy (V/m) @ t=0.36
0
% es.tEz (V/m) @ t=0.36
-1.402985426611897
% V (V) @ t=0.36
0.007402889940486393
% es.normE (V/m) @ t=0.38
1.4868641070084716
% es.EX (V/m) @ t=0.38
-0.443564226077268
% es.EY (V/m) @ t=0.38
0.03313217578895249
% es.EZ (V/m) @ t=0.38
-1.4163860321390875
% es.tEX (V/m) @ t=0.38
-0.443564226077271
% es.tEY (V/m) @ t=0.38
0
% es.tEZ (V/m) @ t=0.38
-1.416386032139103
% es.Ex (V/m) @ t=0.38
-0.443564226077268
% es.Ey (V/m) @ t=0.38
0.03313217578895249
% es.Ez (V/m) @ t=0.38
-1.4163860321390875
% es.tEx (V/m) @ t=0.38
-0.443564226077271
% es.tEy (V/m) @ t=0.38
0
% es.tEz (V/m) @ t=0.38
-1.416386032139103
% V (V) @ t=0.38
0.0074735985826360155
% es.normE (V/m) @ t=0.4
1.5009315145056301
% es.EX (V/m) @ t=0.4
-0.4477608426143723
% es.EY (V/m) @ t=0.4
0.03344564512085025
% es.EZ (V/m) @ t=0.4
-1.4297866376662847
% es.tEX (V/m) @ t=0.4
-0.4477608426143789
% es.tEY (V/m) @ t=0.4
0
% es.tEZ (V/m) @ t=0.4
-1.4297866376662958
% es.Ex (V/m) @ t=0.4
-0.4477608426143723
% es.Ey (V/m) @ t=0.4
0.03344564512085025
% es.Ez (V/m) @ t=0.4
-1.4297866376662847
% es.tEx (V/m) @ t=0.4
-0.4477608426143789
% es.tEy (V/m) @ t=0.4
0
% es.tEz (V/m) @ t=0.4
-1.4297866376662958
% V (V) @ t=0.4
0.007544307224785641
% es.normE (V/m) @ t=0.42
1.514998922002787
% es.EX (V/m) @ t=0.42
-0.45195745915147123
% es.EY (V/m) @ t=0.42
0.03375911445276711
% es.EZ (V/m) @ t=0.42
-1.4431872431934822
% es.tEX (V/m) @ t=0.42
-0.45195745915147256
% es.tEY (V/m) @ t=0.42
0
% es.tEZ (V/m) @ t=0.42
-1.4431872431934956
% es.Ex (V/m) @ t=0.42
-0.45195745915147123
% es.Ey (V/m) @ t=0.42
0.03375911445276711
% es.Ez (V/m) @ t=0.42
-1.4431872431934822
% es.tEx (V/m) @ t=0.42
-0.45195745915147256
% es.tEy (V/m) @ t=0.42
0
% es.tEz (V/m) @ t=0.42
-1.4431872431934956
% V (V) @ t=0.42
0.007615015866935264
% es.normE (V/m) @ t=0.44
1.5290663294999436
% es.EX (V/m) @ t=0.44
-0.456154075688571
% es.EY (V/m) @ t=0.44
0.034072583784659785
% es.EZ (V/m) @ t=0.44
-1.4565878487206794
% es.tEX (V/m) @ t=0.44
-0.45615407568857336
% es.tEY (V/m) @ t=0.44
0
% es.tEZ (V/m) @ t=0.44
-1.4565878487206891
% es.Ex (V/m) @ t=0.44
-0.456154075688571
% es.Ey (V/m) @ t=0.44
0.034072583784659785
% es.Ez (V/m) @ t=0.44
-1.4565878487206794
% es.tEx (V/m) @ t=0.44
-0.45615407568857336
% es.tEy (V/m) @ t=0.44
0
% es.tEz (V/m) @ t=0.44
-1.4565878487206891
% V (V) @ t=0.44
0.007685724509084886
% es.normE (V/m) @ t=0.46
1.5431337369971019
% es.EX (V/m) @ t=0.46
-0.4603506922256707
% es.EY (V/m) @ t=0.46
0.034386053116567804
% es.EZ (V/m) @ t=0.46
-1.4699884542478774
% es.tEX (V/m) @ t=0.46
-0.46035069222567415
% es.tEY (V/m) @ t=0.46
0
% es.tEZ (V/m) @ t=0.46
-1.469988454247889
% es.Ex (V/m) @ t=0.46
-0.4603506922256707
% es.Ey (V/m) @ t=0.46
0.034386053116567804
% es.Ez (V/m) @ t=0.46
-1.4699884542478774
% es.tEx (V/m) @ t=0.46
-0.46035069222567415
% es.tEy (V/m) @ t=0.46
0
% es.tEz (V/m) @ t=0.46
-1.469988454247889
% V (V) @ t=0.46
0.0077564331512345085
% es.normE (V/m) @ t=0.48
1.557201144494258
% es.EX (V/m) @ t=0.48
-0.4645473087627652
% es.EY (V/m) @ t=0.48
0.034699522448477356
% es.EZ (V/m) @ t=0.48
-1.483389059775075
% es.tEX (V/m) @ t=0.48
-0.4645473087627714
% es.tEY (V/m) @ t=0.48
0
% es.tEZ (V/m) @ t=0.48
-1.4833890597750887
% es.Ex (V/m) @ t=0.48
-0.4645473087627652
% es.Ey (V/m) @ t=0.48
0.034699522448477356
% es.Ez (V/m) @ t=0.48
-1.483389059775075
% es.tEx (V/m) @ t=0.48
-0.4645473087627714
% es.tEy (V/m) @ t=0.48
0
% es.tEz (V/m) @ t=0.48
-1.4833890597750887
% V (V) @ t=0.48
0.007827141793384132
% es.normE (V/m) @ t=0.5
1.5712685519914062
% es.EX (V/m) @ t=0.5
-0.46874392529986064
% es.EY (V/m) @ t=0.5
0.03501299178038152
% es.EZ (V/m) @ t=0.5
-1.4967896653022645
% es.tEX (V/m) @ t=0.5
-0.46874392529986864
% es.tEY (V/m) @ t=0.5
0
% es.tEZ (V/m) @ t=0.5
-1.4967896653022734
% es.Ex (V/m) @ t=0.5
-0.46874392529986064
% es.Ey (V/m) @ t=0.5
0.03501299178038152
% es.Ez (V/m) @ t=0.5
-1.4967896653022645
% es.tEx (V/m) @ t=0.5
-0.46874392529986864
% es.tEy (V/m) @ t=0.5
0
% es.tEz (V/m) @ t=0.5
-1.4967896653022734
% V (V) @ t=0.5
0.007897850435533756
% es.normE (V/m) @ t=0.52
1.5853359594885723
% es.EX (V/m) @ t=0.52
-0.472940541836963
% es.EY (V/m) @ t=0.52
0.035326461112303774
% es.EZ (V/m) @ t=0.52
-1.51019027082947
% es.tEX (V/m) @ t=0.52
-0.4729405418369659
% es.tEY (V/m) @ t=0.52
0
% es.tEZ (V/m) @ t=0.52
-1.510190270829474
% es.Ex (V/m) @ t=0.52
-0.472940541836963
% es.Ey (V/m) @ t=0.52
0.035326461112303774
% es.Ez (V/m) @ t=0.52
-1.51019027082947
% es.tEx (V/m) @ t=0.52
-0.4729405418369659
% es.tEy (V/m) @ t=0.52
0
% es.tEz (V/m) @ t=0.52
-1.510190270829474
% V (V) @ t=0.52
0.00796855907768338
% es.normE (V/m) @ t=0.54
1.5994033669857155
% es.EX (V/m) @ t=0.54
-0.4771371583740628
% es.EY (V/m) @ t=0.54
0.03563993044419909
% es.EZ (V/m) @ t=0.54
-1.523590876356653
% es.tEX (V/m) @ t=0.54
-0.4771371583740702
% es.tEY (V/m) @ t=0.54
0
% es.tEZ (V/m) @ t=0.54
-1.523590876356666
% es.Ex (V/m) @ t=0.54
-0.4771371583740628
% es.Ey (V/m) @ t=0.54
0.03563993044419909
% es.Ez (V/m) @ t=0.54
-1.523590876356653
% es.tEx (V/m) @ t=0.54
-0.4771371583740702
% es.tEy (V/m) @ t=0.54
0
% es.tEz (V/m) @ t=0.54
-1.523590876356666
% V (V) @ t=0.54
0.008039267719833001
% es.normE (V/m) @ t=0.56
1.6144119973819486
% es.EX (V/m) @ t=0.56
-0.48161456242273537
% es.EY (V/m) @ t=0.56
0.035974372250543556
% es.EZ (V/m) @ t=0.56
-1.5378880904278707
% es.tEX (V/m) @ t=0.56
-0.4816145624227417
% es.tEY (V/m) @ t=0.56
0
% es.tEZ (V/m) @ t=0.56
-1.5378880904278898
% es.Ex (V/m) @ t=0.56
-0.48161456242273537
% es.Ey (V/m) @ t=0.56
0.035974372250543556
% es.Ez (V/m) @ t=0.56
-1.5378880904278707
% es.tEx (V/m) @ t=0.56
-0.4816145624227417
% es.tEy (V/m) @ t=0.56
0
% es.tEz (V/m) @ t=0.56
-1.5378880904278898
% V (V) @ t=0.56
0.00811470734794767
% es.normE (V/m) @ t=0.58
1.6301257849917115
% es.EX (V/m) @ t=0.58
-0.4863023303920708
% es.EY (V/m) @ t=0.58
0.03632452647915798
% es.EZ (V/m) @ t=0.58
-1.5528570369687782
% es.tEX (V/m) @ t=0.58
-0.48630233039207127
% es.tEY (V/m) @ t=0.58
0
% es.tEZ (V/m) @ t=0.58
-1.5528570369687884
% es.Ex (V/m) @ t=0.58
-0.4863023303920708
% es.Ey (V/m) @ t=0.58
0.03632452647915798
% es.Ez (V/m) @ t=0.58
-1.5528570369687782
% es.tEx (V/m) @ t=0.58
-0.48630233039207127
% es.tEy (V/m) @ t=0.58
0
% es.tEz (V/m) @ t=0.58
-1.5528570369687884
% V (V) @ t=0.58
0.008193691395650515
% es.normE (V/m) @ t=0.6
1.6458395726014572
% es.EX (V/m) @ t=0.6
-0.49099009836139396
% es.EY (V/m) @ t=0.6
0.03667468070776146
% es.EZ (V/m) @ t=0.6
-1.5678259835096706
% es.tEX (V/m) @ t=0.6
-0.49099009836140084
% es.tEY (V/m) @ t=0.6
0
% es.tEZ (V/m) @ t=0.6
-1.567825983509688
% es.Ex (V/m) @ t=0.6
-0.49099009836139396
% es.Ey (V/m) @ t=0.6
0.03667468070776146
% es.Ez (V/m) @ t=0.6
-1.5678259835096706
% es.tEx (V/m) @ t=0.6
-0.49099009836140084
% es.tEy (V/m) @ t=0.6
0
% es.tEz (V/m) @ t=0.6
-1.567825983509688
% V (V) @ t=0.6
0.008272675443353361
% es.normE (V/m) @ t=0.62
1.6615533602112187
% es.EX (V/m) @ t=0.62
-0.49567786633072497
% es.EY (V/m) @ t=0.62
0.03702483493637544
% es.EZ (V/m) @ t=0.62
-1.5827949300505781
% es.tEX (V/m) @ t=0.62
-0.49567786633072686
% es.tEY (V/m) @ t=0.62
0
% es.tEZ (V/m) @ t=0.62
-1.5827949300505937
% es.Ex (V/m) @ t=0.62
-0.49567786633072497
% es.Ey (V/m) @ t=0.62
0.03702483493637544
% es.Ez (V/m) @ t=0.62
-1.5827949300505781
% es.tEx (V/m) @ t=0.62
-0.49567786633072686
% es.tEy (V/m) @ t=0.62
0
% es.tEz (V/m) @ t=0.62
-1.5827949300505937
% V (V) @ t=0.62
0.008351659491056205
% es.normE (V/m) @ t=0.64
1.677267147820979
% es.EX (V/m) @ t=0.64
-0.5003656343000527
% es.EY (V/m) @ t=0.64
0.037374989164978924
% es.EZ (V/m) @ t=0.64
-1.5977638765914852
% es.tEX (V/m) @ t=0.64
-0.5003656343000564
% es.tEY (V/m) @ t=0.64
0
% es.tEZ (V/m) @ t=0.64
-1.5977638765914994
% es.Ex (V/m) @ t=0.64
-0.5003656343000527
% es.Ey (V/m) @ t=0.64
0.037374989164978924
% es.Ez (V/m) @ t=0.64
-1.5977638765914852
% es.tEx (V/m) @ t=0.64
-0.5003656343000564
% es.tEy (V/m) @ t=0.64
0
% es.tEz (V/m) @ t=0.64
-1.5977638765914994
% V (V) @ t=0.64
0.008430643538759053
% es.normE (V/m) @ t=0.66
1.6929809354307186
% es.EX (V/m) @ t=0.66
-0.5050534022693749
% es.EY (V/m) @ t=0.66
0.0377251433935862
% es.EZ (V/m) @ t=0.66
-1.612732823132371
% es.tEX (V/m) @ t=0.66
-0.5050534022693824
% es.tEY (V/m) @ t=0.66
0
% es.tEZ (V/m) @ t=0.66
-1.6127328231323839
% es.Ex (V/m) @ t=0.66
-0.5050534022693749
% es.Ey (V/m) @ t=0.66
0.0377251433935862
% es.Ez (V/m) @ t=0.66
-1.612732823132371
% es.tEx (V/m) @ t=0.66
-0.5050534022693824
% es.tEy (V/m) @ t=0.66
0
% es.tEz (V/m) @ t=0.66
-1.6127328231323839
% V (V) @ t=0.66
0.008509627586461897
% es.normE (V/m) @ t=0.68
1.7086947230404848
% es.EX (V/m) @ t=0.68
-0.5097411702387052
% es.EY (V/m) @ t=0.68
0.03807529762218968
% es.EZ (V/m) @ t=0.68
-1.6277017696732847
% es.tEX (V/m) @ t=0.68
-0.5097411702387085
% es.tEY (V/m) @ t=0.68
0
% es.tEZ (V/m) @ t=0.68
-1.6277017696733047
% es.Ex (V/m) @ t=0.68
-0.5097411702387052
% es.Ey (V/m) @ t=0.68
0.03807529762218968
% es.Ez (V/m) @ t=0.68
-1.6277017696732847
% es.tEx (V/m) @ t=0.68
-0.5097411702387085
% es.tEy (V/m) @ t=0.68
0
% es.tEz (V/m) @ t=0.68
-1.6277017696733047
% V (V) @ t=0.68
0.008588611634164743
% es.normE (V/m) @ t=0.7
1.7244085106502387
% es.EX (V/m) @ t=0.7
-0.5144289382080319
% es.EY (V/m) @ t=0.7
0.03842545185080029
% es.EZ (V/m) @ t=0.7
-1.6426707162141847
% es.tEX (V/m) @ t=0.7
-0.5144289382080416
% es.tEY (V/m) @ t=0.7
0
% es.tEZ (V/m) @ t=0.7
-1.6426707162142034
% es.Ex (V/m) @ t=0.7
-0.5144289382080319
% es.Ey (V/m) @ t=0.7
0.03842545185080029
% es.Ez (V/m) @ t=0.7
-1.6426707162141847
% es.tEx (V/m) @ t=0.7
-0.5144289382080416
% es.tEy (V/m) @ t=0.7
0
% es.tEz (V/m) @ t=0.7
-1.6426707162142034
% V (V) @ t=0.7
0.008667595681867589
% es.normE (V/m) @ t=0.72
1.7401222982600149
% es.EX (V/m) @ t=0.72
-0.5191167061773674
% es.EY (V/m) @ t=0.72
0.03877560607941091
% es.EZ (V/m) @ t=0.72
-1.6576396627551064
% es.tEX (V/m) @ t=0.72
-0.5191167061773712
% es.tEY (V/m) @ t=0.72
0
% es.tEZ (V/m) @ t=0.72
-1.6576396627551162
% es.Ex (V/m) @ t=0.72
-0.5191167061773674
% es.Ey (V/m) @ t=0.72
0.03877560607941091
% es.Ez (V/m) @ t=0.72
-1.6576396627551064
% es.tEx (V/m) @ t=0.72
-0.5191167061773712
% es.tEy (V/m) @ t=0.72
0
% es.tEz (V/m) @ t=0.72
-1.6576396627551162
% V (V) @ t=0.72
0.008746579729570434
% es.normE (V/m) @ t=0.74
1.7558360858697468
% es.EX (V/m) @ t=0.74
-0.5238044741466915
% es.EY (V/m) @ t=0.74
0.03912576030801642
% es.EZ (V/m) @ t=0.74
-1.6726086092959846
% es.tEX (V/m) @ t=0.74
-0.5238044741466972
% es.tEY (V/m) @ t=0.74
0
% es.tEZ (V/m) @ t=0.74
-1.6726086092960077
% es.Ex (V/m) @ t=0.74
-0.5238044741466915
% es.Ey (V/m) @ t=0.74
0.03912576030801642
% es.Ez (V/m) @ t=0.74
-1.6726086092959846
% es.tEx (V/m) @ t=0.74
-0.5238044741466972
% es.tEy (V/m) @ t=0.74
0
% es.tEz (V/m) @ t=0.74
-1.6726086092960077
% V (V) @ t=0.74
0.00882556377727328
% es.normE (V/m) @ t=0.76
1.7715498734795068
% es.EX (V/m) @ t=0.76
-0.5284922421160172
% es.EY (V/m) @ t=0.76
0.03947591453661816
% es.EZ (V/m) @ t=0.76
-1.6875775558368922
% es.tEX (V/m) @ t=0.76
-0.5284922421160196
% es.tEY (V/m) @ t=0.76
0
% es.tEZ (V/m) @ t=0.76
-1.6875775558369073
% es.Ex (V/m) @ t=0.76
-0.5284922421160172
% es.Ey (V/m) @ t=0.76
0.03947591453661816
% es.Ez (V/m) @ t=0.76
-1.6875775558368922
% es.tEx (V/m) @ t=0.76
-0.5284922421160196
% es.tEy (V/m) @ t=0.76
0
% es.tEz (V/m) @ t=0.76
-1.6875775558369073
% V (V) @ t=0.76
0.008904547824976124
% es.normE (V/m) @ t=0.78
1.7872636610892698
% es.EX (V/m) @ t=0.78
-0.5331800100853528
% es.EY (V/m) @ t=0.78
0.03982606876522875
% es.EZ (V/m) @ t=0.78
-1.7025465023777993
% es.tEX (V/m) @ t=0.78
-0.5331800100853528
% es.tEY (V/m) @ t=0.78
0
% es.tEZ (V/m) @ t=0.78
-1.702546502377813
% es.Ex (V/m) @ t=0.78
-0.5331800100853528
% es.Ey (V/m) @ t=0.78
0.03982606876522875
% es.Ez (V/m) @ t=0.78
-1.7025465023777993
% es.tEx (V/m) @ t=0.78
-0.5331800100853528
% es.tEy (V/m) @ t=0.78
0
% es.tEz (V/m) @ t=0.78
-1.702546502377813
% V (V) @ t=0.78
0.00898353187267897
% es.normE (V/m) @ t=0.8
1.8029774486990162
% es.EX (V/m) @ t=0.8
-0.5378677780546769
% es.EY (V/m) @ t=0.8
0.04017622299384113
% es.EZ (V/m) @ t=0.8
-1.7175154489186921
% es.tEX (V/m) @ t=0.8
-0.5378677780546823
% es.tEY (V/m) @ t=0.8
0
% es.tEZ (V/m) @ t=0.8
-1.7175154489187117
% es.Ex (V/m) @ t=0.8
-0.5378677780546769
% es.Ey (V/m) @ t=0.8
0.04017622299384113
% es.Ez (V/m) @ t=0.8
-1.7175154489186921
% es.tEx (V/m) @ t=0.8
-0.5378677780546823
% es.tEy (V/m) @ t=0.8
0
% es.tEz (V/m) @ t=0.8
-1.7175154489187117
% V (V) @ t=0.8
0.009062515920381816
% es.normE (V/m) @ t=0.82
1.818691236308784
% es.EX (V/m) @ t=0.82
-0.5425555460240099
% es.EY (V/m) @ t=0.82
0.04052637722244838
% es.EZ (V/m) @ t=0.82
-1.7324843954596059
% es.tEX (V/m) @ t=0.82
-0.5425555460240084
% es.tEY (V/m) @ t=0.82
0
% es.tEZ (V/m) @ t=0.82
-1.7324843954596192
% es.Ex (V/m) @ t=0.82
-0.5425555460240099
% es.Ey (V/m) @ t=0.82
0.04052637722244838
% es.Ez (V/m) @ t=0.82
-1.7324843954596059
% es.tEx (V/m) @ t=0.82
-0.5425555460240084
% es.tEy (V/m) @ t=0.82
0
% es.tEz (V/m) @ t=0.82
-1.7324843954596192
% V (V) @ t=0.82
0.009141499968084662
% es.normE (V/m) @ t=0.84
1.8360194836770103
% es.EX (V/m) @ t=0.84
-0.5477249428024764
% es.EY (V/m) @ t=0.84
0.0409125066543255
% es.EZ (V/m) @ t=0.84
-1.7489912756059605
% es.tEX (V/m) @ t=0.84
-0.5477249428024855
% es.tEY (V/m) @ t=0.84
0
% es.tEZ (V/m) @ t=0.84
-1.7489912756059844
% es.Ex (V/m) @ t=0.84
-0.5477249428024764
% es.Ey (V/m) @ t=0.84
0.0409125066543255
% es.Ez (V/m) @ t=0.84
-1.7489912756059605
% es.tEx (V/m) @ t=0.84
-0.5477249428024855
% es.tEy (V/m) @ t=0.84
0
% es.tEz (V/m) @ t=0.84
-1.7489912756059844
% V (V) @ t=0.84
0.009228598964839215
% es.normE (V/m) @ t=0.86
1.853604980772409
% es.EX (V/m) @ t=0.86
-0.5529710828252994
% es.EY (V/m) @ t=0.86
0.0413043684131687
% es.EZ (V/m) @ t=0.86
-1.7657432117212464
% es.tEX (V/m) @ t=0.86
-0.5529710828253087
% es.tEY (V/m) @ t=0.86
0
% es.tEZ (V/m) @ t=0.86
-1.765743211721257
% es.Ex (V/m) @ t=0.86
-0.5529710828252994
% es.Ey (V/m) @ t=0.86
0.0413043684131687
% es.Ez (V/m) @ t=0.86
-1.7657432117212464
% es.tEx (V/m) @ t=0.86
-0.5529710828253087
% es.tEy (V/m) @ t=0.86
0
% es.tEz (V/m) @ t=0.86
-1.765743211721257
% V (V) @ t=0.86
0.009316991006167067
% es.normE (V/m) @ t=0.88
1.8711904778678101
% es.EX (V/m) @ t=0.88
-0.5582172228481287
% es.EY (V/m) @ t=0.88
0.04169623017202945
% es.EZ (V/m) @ t=0.88
-1.7824951478365323
% es.tEX (V/m) @ t=0.88
-0.5582172228481319
% es.tEY (V/m) @ t=0.88
0
% es.tEZ (V/m) @ t=0.88
-1.78249514783655
% es.Ex (V/m) @ t=0.88
-0.5582172228481287
% es.Ey (V/m) @ t=0.88
0.04169623017202945
% es.Ez (V/m) @ t=0.88
-1.7824951478365323
% es.tEx (V/m) @ t=0.88
-0.5582172228481319
% es.tEy (V/m) @ t=0.88
0
% es.tEz (V/m) @ t=0.88
-1.78249514783655
% V (V) @ t=0.88
0.00940538304749492
% es.normE (V/m) @ t=0.9
1.888775974963208
% es.EX (V/m) @ t=0.9
-0.5634633628709536
% es.EY (V/m) @ t=0.9
0.04208809193087952
% es.EZ (V/m) @ t=0.9
-1.7992470839518173
% es.tEX (V/m) @ t=0.9
-0.5634633628709551
% es.tEY (V/m) @ t=0.9
0
% es.tEZ (V/m) @ t=0.9
-1.799247083951844
% es.Ex (V/m) @ t=0.9
-0.5634633628709536
% es.Ey (V/m) @ t=0.9
0.04208809193087952
% es.Ez (V/m) @ t=0.9
-1.7992470839518173
% es.tEx (V/m) @ t=0.9
-0.5634633628709551
% es.tEy (V/m) @ t=0.9
0
% es.tEz (V/m) @ t=0.9
-1.799247083951844
% V (V) @ t=0.9
0.009493775088822768
% es.normE (V/m) @ t=0.92
1.9063614720586006
% es.EX (V/m) @ t=0.92
-0.5687095028937774
% es.EY (V/m) @ t=0.92
0.04247995368973875
% es.EZ (V/m) @ t=0.92
-1.8159990200670966
% es.tEX (V/m) @ t=0.92
-0.5687095028937819
% es.tEY (V/m) @ t=0.92
0
% es.tEZ (V/m) @ t=0.92
-1.8159990200671086
% es.Ex (V/m) @ t=0.92
-0.5687095028937774
% es.Ey (V/m) @ t=0.92
0.04247995368973875
% es.Ez (V/m) @ t=0.92
-1.8159990200670966
% es.tEx (V/m) @ t=0.92
-0.5687095028937819
% es.tEy (V/m) @ t=0.92
0
% es.tEz (V/m) @ t=0.92
-1.8159990200671086
% V (V) @ t=0.92
0.00958216713015062
% es.normE (V/m) @ t=0.94
1.9239469691539934
% es.EX (V/m) @ t=0.94
-0.5739556429166022
% es.EY (V/m) @ t=0.94
0.04287181544859417
% es.EZ (V/m) @ t=0.94
-1.832750956182375
% es.tEX (V/m) @ t=0.94
-0.5739556429166122
% es.tEY (V/m) @ t=0.94
0
% es.tEZ (V/m) @ t=0.94
-1.8327509561823954
% es.Ex (V/m) @ t=0.94
-0.5739556429166022
% es.Ey (V/m) @ t=0.94
0.04287181544859417
% es.Ez (V/m) @ t=0.94
-1.832750956182375
% es.tEx (V/m) @ t=0.94
-0.5739556429166122
% es.tEy (V/m) @ t=0.94
0
% es.tEz (V/m) @ t=0.94
-1.8327509561823954
% V (V) @ t=0.94
0.009670559171478472
% es.normE (V/m) @ t=0.96
1.9415324662493871
% es.EX (V/m) @ t=0.96
-0.5792017829394288
% es.EY (V/m) @ t=0.96
0.04326367720744628
% es.EZ (V/m) @ t=0.96
-1.8495028922976537
% es.tEX (V/m) @ t=0.96
-0.5792017829394318
% es.tEY (V/m) @ t=0.96
0
% es.tEZ (V/m) @ t=0.96
-1.849502892297675
% es.Ex (V/m) @ t=0.96
-0.5792017829394288
% es.Ey (V/m) @ t=0.96
0.04326367720744628
% es.Ez (V/m) @ t=0.96
-1.8495028922976537
% es.tEx (V/m) @ t=0.96
-0.5792017829394318
% es.tEy (V/m) @ t=0.96
0
% es.tEz (V/m) @ t=0.96
-1.849502892297675
% V (V) @ t=0.96
0.009758951212806323
% es.normE (V/m) @ t=0.98
1.9591179633447928
% es.EX (V/m) @ t=0.98
-0.5844479229622563
% es.EY (V/m) @ t=0.98
0.0436555389663017
% es.EZ (V/m) @ t=0.98
-1.8662548284129463
% es.tEX (V/m) @ t=0.98
-0.5844479229622621
% es.tEY (V/m) @ t=0.98
0
% es.tEZ (V/m) @ t=0.98
-1.866254828412968
% es.Ex (V/m) @ t=0.98
-0.5844479229622563
% es.Ey (V/m) @ t=0.98
0.0436555389663017
% es.Ez (V/m) @ t=0.98
-1.8662548284129463
% es.tEx (V/m) @ t=0.98
-0.5844479229622621
% es.tEy (V/m) @ t=0.98
0
% es.tEz (V/m) @ t=0.98
-1.866254828412968
% V (V) @ t=0.98
0.009847343254134175
% es.normE (V/m) @ t=1
1.976703460440191
% es.EX (V/m) @ t=1
-0.5896940629850767
% es.EY (V/m) @ t=1
0.04404740072515001
% es.EZ (V/m) @ t=1
-1.8830067645282322
% es.tEX (V/m) @ t=1
-0.5896940629850818
% es.tEY (V/m) @ t=1
0
% es.tEZ (V/m) @ t=1
-1.8830067645282478
% es.Ex (V/m) @ t=1
-0.5896940629850767
% es.Ey (V/m) @ t=1
0.04404740072515001
% es.Ez (V/m) @ t=1
-1.8830067645282322
% es.tEx (V/m) @ t=1
-0.5896940629850818
% es.tEy (V/m) @ t=1
0
% es.tEz (V/m) @ t=1
-1.8830067645282478
% V (V) @ t=1
0.009935735295462027
% es.normE (V/m) @ t=1.02
1.9942889575355753
% es.EX (V/m) @ t=1.02
-0.5949402030078978
% es.EY (V/m) @ t=1.02
0.0444392624840039
% es.EZ (V/m) @ t=1.02
-1.8997587006435035
% es.tEX (V/m) @ t=1.02
-0.594940203007905
% es.tEY (V/m) @ t=1.02
0
% es.tEZ (V/m) @ t=1.02
-1.8997587006435266
% es.Ex (V/m) @ t=1.02
-0.5949402030078978
% es.Ey (V/m) @ t=1.02
0.0444392624840039
% es.Ez (V/m) @ t=1.02
-1.8997587006435035
% es.tEx (V/m) @ t=1.02