% Model:              1 neuron.mph
% Version:            COMSOL 6.0.0.405
% Date:               Mar 16 2023, 17:31
% Dimension:          0
% Nodes:              14017
% Expressions:        14017
% Description:        Electric field norm, Electric field, X component, Electric field, Y component, Electric field, Z component, Tangential electric field, X component, Tangential electric field, Y component, Tangential electric field, Z component, Electric field, x component, Electric field, y component, Electric field, z component, Tangential electric field, x component, Tangential electric field, y component, Tangential electric field, z component, Electric potential
% Length unit:        mm
% x
1.3300000000000003
% y
12.200000000000001
% z
1.66
% es.normE (V/m) @ t=0
7.36605715945986
% es.EX (V/m) @ t=0
4.674496645482378
% es.EY (V/m) @ t=0
1.3978375708583535
% es.EZ (V/m) @ t=0
-5.1202929826294685
% es.tEX (V/m) @ t=0
4.67449664548236
% es.tEY (V/m) @ t=0
0
% es.tEZ (V/m) @ t=0
-5.120292982629458
% es.Ex (V/m) @ t=0
4.674496645482378
% es.Ey (V/m) @ t=0
1.3978375708583535
% es.Ez (V/m) @ t=0
-5.1202929826294685
% es.tEx (V/m) @ t=0
4.67449664548236
% es.tEy (V/m) @ t=0
0
% es.tEz (V/m) @ t=0
-5.120292982629458
% V (V) @ t=0
0.006309606685172685
% es.normE (V/m) @ t=0.02
6.362214858943862
% es.EX (V/m) @ t=0.02
4.037458824549379
% es.EY (V/m) @ t=0.02
1.2073410324405702
% es.EZ (V/m) @ t=0.02
-4.422502161991204
% es.tEX (V/m) @ t=0.02
4.037458824549368
% es.tEY (V/m) @ t=0.02
0
% es.tEZ (V/m) @ t=0.02
-4.422502161991193
% es.Ex (V/m) @ t=0.02
4.037458824549379
% es.Ey (V/m) @ t=0.02
1.2073410324405702
% es.Ez (V/m) @ t=0.02
-4.422502161991204
% es.tEx (V/m) @ t=0.02
4.037458824549368
% es.tEy (V/m) @ t=0.02
0
% es.tEz (V/m) @ t=0.02
-4.422502161991193
% V (V) @ t=0.02
0.005449736707279682
% es.normE (V/m) @ t=0.04
6.420745060203969
% es.EX (V/m) @ t=0.04
4.0746021773885115
% es.EY (V/m) @ t=0.04
1.2184481793401756
% es.EZ (V/m) @ t=0.04
-4.463187577172745
% es.tEX (V/m) @ t=0.04
4.074602177388507
% es.tEY (V/m) @ t=0.04
0
% es.tEZ (V/m) @ t=0.04
-4.463187577172733
% es.Ex (V/m) @ t=0.04
4.0746021773885115
% es.Ey (V/m) @ t=0.04
1.2184481793401756
% es.Ez (V/m) @ t=0.04
-4.463187577172745
% es.tEx (V/m) @ t=0.04
4.074602177388507
% es.tEy (V/m) @ t=0.04
0
% es.tEz (V/m) @ t=0.04
-4.463187577172733
% V (V) @ t=0.04
0.005499872103633019
% es.normE (V/m) @ t=0.06
6.479798123943151
% es.EX (V/m) @ t=0.06
4.112077136974461
% es.EY (V/m) @ t=0.06
1.2296545084767427
% es.EZ (V/m) @ t=0.06
-4.504236610688653
% es.tEX (V/m) @ t=0.06
4.11207713697446
% es.tEY (V/m) @ t=0.06
0
% es.tEZ (V/m) @ t=0.06
-4.504236610688642
% es.Ex (V/m) @ t=0.06
4.112077136974461
% es.Ey (V/m) @ t=0.06
1.2296545084767427
% es.Ez (V/m) @ t=0.06
-4.504236610688653
% es.tEx (V/m) @ t=0.06
4.11207713697446
% es.tEy (V/m) @ t=0.06
0
% es.tEz (V/m) @ t=0.06
-4.504236610688642
% V (V) @ t=0.06
0.005550455943934888
% es.normE (V/m) @ t=0.08
6.53976265202632
% es.EX (V/m) @ t=0.08
4.150131693384587
% es.EY (V/m) @ t=0.08
1.2410340388711445
% es.EZ (V/m) @ t=0.08
-4.545918246416491
% es.tEX (V/m) @ t=0.08
4.1501316933845835
% es.tEY (V/m) @ t=0.08
0
% es.tEZ (V/m) @ t=0.08
-4.545918246416477
% es.Ex (V/m) @ t=0.08
4.150131693384587
% es.Ey (V/m) @ t=0.08
1.2410340388711445
% es.Ez (V/m) @ t=0.08
-4.545918246416491
% es.tEx (V/m) @ t=0.08
4.1501316933845835
% es.tEy (V/m) @ t=0.08
0
% es.tEz (V/m) @ t=0.08
-4.545918246416477
% V (V) @ t=0.08
0.005601817175605643
% es.normE (V/m) @ t=0.1
6.600335232011866
% es.EX (V/m) @ t=0.1
4.188572907762627
% es.EY (V/m) @ t=0.1
1.252529114492149
% es.EZ (V/m) @ t=0.1
-4.58802190082281
% es.tEX (V/m) @ t=0.1
4.188572907762612
% es.tEY (V/m) @ t=0.1
0
% es.tEZ (V/m) @ t=0.1
-4.588021900822805
% es.Ex (V/m) @ t=0.1
4.188572907762627
% es.Ey (V/m) @ t=0.1
1.252529114492149
% es.Ez (V/m) @ t=0.1
-4.58802190082281
% es.tEx (V/m) @ t=0.1
4.188572907762612
% es.tEy (V/m) @ t=0.1
0
% es.tEz (V/m) @ t=0.1
-4.588021900822805
% V (V) @ t=0.1
0.005653697017031407
% es.normE (V/m) @ t=0.12
6.660907811998371
% es.EX (V/m) @ t=0.12
4.227014122140667
% es.EY (V/m) @ t=0.12
1.26402419011314
% es.EZ (V/m) @ t=0.12
-4.630125555229126
% es.tEX (V/m) @ t=0.12
4.227014122140664
% es.tEY (V/m) @ t=0.12
0
% es.tEZ (V/m) @ t=0.12
-4.630125555229119
% es.Ex (V/m) @ t=0.12
4.227014122140667
% es.Ey (V/m) @ t=0.12
1.26402419011314
% es.Ez (V/m) @ t=0.12
-4.630125555229126
% es.tEx (V/m) @ t=0.12
4.227014122140664
% es.tEy (V/m) @ t=0.12
0
% es.tEz (V/m) @ t=0.12
-4.630125555229119
% V (V) @ t=0.12
0.00570557685845717
% es.normE (V/m) @ t=0.14
6.72215710823098
% es.EX (V/m) @ t=0.14
4.265884191389118
% es.EY (V/m) @ t=0.14
1.2756475673078727
% es.EZ (V/m) @ t=0.14
-4.672700094313068
% es.tEX (V/m) @ t=0.14
4.265884191389117
% es.tEY (V/m) @ t=0.14
0
% es.tEZ (V/m) @ t=0.14
-4.672700094313054
% es.Ex (V/m) @ t=0.14
4.265884191389118
% es.Ey (V/m) @ t=0.14
1.2756475673078727
% es.Ez (V/m) @ t=0.14
-4.672700094313068
% es.tEx (V/m) @ t=0.14
4.265884191389117
% es.tEy (V/m) @ t=0.14
0
% es.tEz (V/m) @ t=0.14
-4.672700094313054
% V (V) @ t=0.14
0.005758038029544681
% es.normE (V/m) @ t=0.16
6.7859581528552155
% es.EX (V/m) @ t=0.16
4.306371378201119
% es.EY (V/m) @ t=0.16
1.2877547415690873
% es.EZ (V/m) @ t=0.16
-4.717050236136165
% es.tEX (V/m) @ t=0.16
4.30637137820111
% es.tEY (V/m) @ t=0.16
0
% es.tEZ (V/m) @ t=0.16
-4.71705023613615
% es.Ex (V/m) @ t=0.16
4.306371378201119
% es.Ey (V/m) @ t=0.16
1.2877547415690873
% es.Ez (V/m) @ t=0.16
-4.717050236136165
% es.tEx (V/m) @ t=0.16
4.30637137820111
% es.tEy (V/m) @ t=0.16
0
% es.tEz (V/m) @ t=0.16
-4.71705023613615
% V (V) @ t=0.16
0.00581269126715888
% es.normE (V/m) @ t=0.18
6.849759197479695
% es.EX (V/m) @ t=0.18
4.346858565013114
% es.EY (V/m) @ t=0.18
1.2998619158303288
% es.EZ (V/m) @ t=0.18
-4.7614003779592355
% es.tEX (V/m) @ t=0.18
4.346858565013106
% es.tEY (V/m) @ t=0.18
0
% es.tEZ (V/m) @ t=0.18
-4.761400377959225
% es.Ex (V/m) @ t=0.18
4.346858565013114
% es.Ey (V/m) @ t=0.18
1.2998619158303288
% es.Ez (V/m) @ t=0.18
-4.7614003779592355
% es.tEx (V/m) @ t=0.18
4.346858565013106
% es.tEy (V/m) @ t=0.18
0
% es.tEz (V/m) @ t=0.18
-4.761400377959225
% V (V) @ t=0.18
0.0058673445047730775
% es.normE (V/m) @ t=0.2
6.913560242104439
% es.EX (V/m) @ t=0.2
4.387345751825121
% es.EY (V/m) @ t=0.2
1.3119690900915562
% es.EZ (V/m) @ t=0.2
-4.805750519782313
% es.tEX (V/m) @ t=0.2
4.3873457518251096
% es.tEY (V/m) @ t=0.2
0
% es.tEZ (V/m) @ t=0.2
-4.805750519782306
% es.Ex (V/m) @ t=0.2
4.387345751825121
% es.Ey (V/m) @ t=0.2
1.3119690900915562
% es.Ez (V/m) @ t=0.2
-4.805750519782313
% es.tEx (V/m) @ t=0.2
4.3873457518251096
% es.tEy (V/m) @ t=0.2
0
% es.tEz (V/m) @ t=0.2
-4.805750519782306
% V (V) @ t=0.2
0.005921997742387275
% es.normE (V/m) @ t=0.22
6.97736128672944
% es.EX (V/m) @ t=0.22
4.42783293863711
% es.EY (V/m) @ t=0.22
1.3240762643527937
% es.EZ (V/m) @ t=0.22
-4.850100661605417
% es.tEX (V/m) @ t=0.22
4.4278329386371
% es.tEY (V/m) @ t=0.22
0
% es.tEZ (V/m) @ t=0.22
-4.850100661605403
% es.Ex (V/m) @ t=0.22
4.42783293863711
% es.Ey (V/m) @ t=0.22
1.3240762643527937
% es.Ez (V/m) @ t=0.22
-4.850100661605417
% es.tEx (V/m) @ t=0.22
4.4278329386371
% es.tEy (V/m) @ t=0.22
0
% es.tEz (V/m) @ t=0.22
-4.850100661605403
% V (V) @ t=0.22
0.005976650980001473
% es.normE (V/m) @ t=0.24
7.041162331354677
% es.EX (V/m) @ t=0.24
4.468320125449111
% es.EY (V/m) @ t=0.24
1.3361834386140388
% es.EZ (V/m) @ t=0.24
-4.894450803428505
% es.tEX (V/m) @ t=0.24
4.468320125449107
% es.tEY (V/m) @ t=0.24
0
% es.tEZ (V/m) @ t=0.24
-4.894450803428491
% es.Ex (V/m) @ t=0.24
4.468320125449111
% es.Ey (V/m) @ t=0.24
1.3361834386140388
% es.Ez (V/m) @ t=0.24
-4.894450803428505
% es.tEx (V/m) @ t=0.24
4.468320125449107
% es.tEy (V/m) @ t=0.24
0
% es.tEz (V/m) @ t=0.24
-4.894450803428491
% V (V) @ t=0.24
0.0060313042176156715
% es.normE (V/m) @ t=0.26
7.104963375980147
% es.EX (V/m) @ t=0.26
4.508807312261102
% es.EY (V/m) @ t=0.26
1.3482906128752714
% es.EZ (V/m) @ t=0.26
-4.938800945251594
% es.tEX (V/m) @ t=0.26
4.508807312261089
% es.tEY (V/m) @ t=0.26
0
% es.tEZ (V/m) @ t=0.26
-4.93880094525158
% es.Ex (V/m) @ t=0.26
4.508807312261102
% es.Ey (V/m) @ t=0.26
1.3482906128752714
% es.Ez (V/m) @ t=0.26
-4.938800945251594
% es.tEx (V/m) @ t=0.26
4.508807312261089
% es.tEy (V/m) @ t=0.26
0
% es.tEz (V/m) @ t=0.26
-4.93880094525158
% V (V) @ t=0.26
0.006085957455229869
% es.normE (V/m) @ t=0.28
7.171887523814089
% es.EX (V/m) @ t=0.28
4.551270402020272
% es.EY (V/m) @ t=0.28
1.360989246372117
% es.EZ (V/m) @ t=0.28
-4.985326981276563
% es.tEX (V/m) @ t=0.28
4.551270402020265
% es.tEY (V/m) @ t=0.28
0
% es.tEZ (V/m) @ t=0.28
-4.985326981276549
% es.Ex (V/m) @ t=0.28
4.551270402020272
% es.Ey (V/m) @ t=0.28
1.360989246372117
% es.Ez (V/m) @ t=0.28
-4.985326981276563
% es.tEx (V/m) @ t=0.28
4.551270402020265
% es.tEy (V/m) @ t=0.28
0
% es.tEz (V/m) @ t=0.28
-4.985326981276549
% V (V) @ t=0.28
0.0061433029282325895
% es.normE (V/m) @ t=0.3
7.24296596897786
% es.EX (V/m) @ t=0.3
4.596361803336706
% es.EY (V/m) @ t=0.3
1.3744746286042175
% es.EZ (V/m) @ t=0.3
-5.034747353729542
% es.tEX (V/m) @ t=0.3
4.5963618033366895
% es.tEY (V/m) @ t=0.3
0
% es.tEZ (V/m) @ t=0.3
-5.034747353729528
% es.Ex (V/m) @ t=0.3
4.596361803336706
% es.Ey (V/m) @ t=0.3
1.3744746286042175
% es.Ez (V/m) @ t=0.3
-5.034747353729542
% es.tEx (V/m) @ t=0.3
4.5963618033366895
% es.tEy (V/m) @ t=0.3
0
% es.tEz (V/m) @ t=0.3
-5.034747353729528
% V (V) @ t=0.3
0.0062042295656830355
% es.normE (V/m) @ t=0.32
7.3140444141973155
% es.EX (V/m) @ t=0.32
4.64145320465315
% es.EY (V/m) @ t=0.32
1.3879600108362915
% es.EZ (V/m) @ t=0.32
-5.084167726182514
% es.tEX (V/m) @ t=0.32
4.641453204653137
% es.tEY (V/m) @ t=0.32
0
% es.tEZ (V/m) @ t=0.32
-5.084167726182503
% es.Ex (V/m) @ t=0.32
4.64145320465315
% es.Ey (V/m) @ t=0.32
1.3879600108362915
% es.Ez (V/m) @ t=0.32
-5.084167726182514
% es.tEx (V/m) @ t=0.32
4.641453204653137
% es.tEy (V/m) @ t=0.32
0
% es.tEz (V/m) @ t=0.32
-5.084167726182503
% V (V) @ t=0.32
0.006265156203133478
% es.normE (V/m) @ t=0.34
7.38512285947084
% es.EX (V/m) @ t=0.34
4.686544605969582
% es.EY (V/m) @ t=0.34
1.4014453930684028
% es.EZ (V/m) @ t=0.34
-5.133588098635486
% es.tEX (V/m) @ t=0.34
4.686544605969576
% es.tEY (V/m) @ t=0.34
0
% es.tEZ (V/m) @ t=0.34
-5.133588098635475
% es.Ex (V/m) @ t=0.34
4.686544605969582
% es.Ey (V/m) @ t=0.34
1.4014453930684028
% es.Ez (V/m) @ t=0.34
-5.133588098635486
% es.tEx (V/m) @ t=0.34
4.686544605969576
% es.tEy (V/m) @ t=0.34
0
% es.tEz (V/m) @ t=0.34
-5.133588098635475
% V (V) @ t=0.34
0.006326082840583924
% es.normE (V/m) @ t=0.36
7.456201304796913
% es.EX (V/m) @ t=0.36
4.731636007286035
% es.EY (V/m) @ t=0.36
1.4149307753004854
% es.EZ (V/m) @ t=0.36
-5.183008471088465
% es.tEX (V/m) @ t=0.36
4.731636007286009
% es.tEY (V/m) @ t=0.36
0
% es.tEZ (V/m) @ t=0.36
-5.183008471088451
% es.Ex (V/m) @ t=0.36
4.731636007286035
% es.Ey (V/m) @ t=0.36
1.4149307753004854
% es.Ez (V/m) @ t=0.36
-5.183008471088465
% es.tEx (V/m) @ t=0.36
4.731636007286009
% es.tEy (V/m) @ t=0.36
0
% es.tEz (V/m) @ t=0.36
-5.183008471088451
% V (V) @ t=0.36
0.006387009478034368
% es.normE (V/m) @ t=0.38
7.527279750174021
% es.EX (V/m) @ t=0.38
4.7767274086024685
% es.EY (V/m) @ t=0.38
1.4284161575325915
% es.EZ (V/m) @ t=0.38
-5.232428843541452
% es.tEX (V/m) @ t=0.38
4.7767274086024525
% es.tEY (V/m) @ t=0.38
0
% es.tEZ (V/m) @ t=0.38
-5.232428843541441
% es.Ex (V/m) @ t=0.38
4.7767274086024685
% es.Ey (V/m) @ t=0.38
1.4284161575325915
% es.Ez (V/m) @ t=0.38
-5.232428843541452
% es.tEx (V/m) @ t=0.38
4.7767274086024525
% es.tEy (V/m) @ t=0.38
0
% es.tEz (V/m) @ t=0.38
-5.232428843541441
% V (V) @ t=0.38
0.006447936115484812
% es.normE (V/m) @ t=0.4
7.598358195600731
% es.EX (V/m) @ t=0.4
4.821818809918897
% es.EY (V/m) @ t=0.4
1.4419015397646868
% es.EZ (V/m) @ t=0.4
-5.281849215994434
% es.tEX (V/m) @ t=0.4
4.821818809918881
% es.tEY (V/m) @ t=0.4
0
% es.tEZ (V/m) @ t=0.4
-5.281849215994427
% es.Ex (V/m) @ t=0.4
4.821818809918897
% es.Ey (V/m) @ t=0.4
1.4419015397646868
% es.Ez (V/m) @ t=0.4
-5.281849215994434
% es.tEx (V/m) @ t=0.4
4.821818809918881
% es.tEy (V/m) @ t=0.4
0
% es.tEz (V/m) @ t=0.4
-5.281849215994427
% V (V) @ t=0.4
0.006508862752935256
% es.normE (V/m) @ t=0.42
7.669436641075682
% es.EX (V/m) @ t=0.42
4.86691021123534
% es.EY (V/m) @ t=0.42
1.4553869219967857
% es.EZ (V/m) @ t=0.42
-5.331269588447418
% es.tEX (V/m) @ t=0.42
4.8669102112353375
% es.tEY (V/m) @ t=0.42
0
% es.tEZ (V/m) @ t=0.42
-5.331269588447403
% es.Ex (V/m) @ t=0.42
4.86691021123534
% es.Ey (V/m) @ t=0.42
1.4553869219967857
% es.Ez (V/m) @ t=0.42
-5.331269588447418
% es.tEx (V/m) @ t=0.42
4.8669102112353375
% es.tEy (V/m) @ t=0.42
0
% es.tEz (V/m) @ t=0.42
-5.331269588447403
% V (V) @ t=0.42
0.0065697893903857
% es.normE (V/m) @ t=0.44
7.7405150865975205
% es.EX (V/m) @ t=0.44
4.912001612551785
% es.EY (V/m) @ t=0.44
1.4688723042288827
% es.EZ (V/m) @ t=0.44
-5.380689960900385
% es.tEX (V/m) @ t=0.44
4.912001612551774
% es.tEY (V/m) @ t=0.44
0
% es.tEZ (V/m) @ t=0.44
-5.380689960900371
% es.Ex (V/m) @ t=0.44
4.912001612551785
% es.Ey (V/m) @ t=0.44
1.4688723042288827
% es.Ez (V/m) @ t=0.44
-5.380689960900385
% es.tEx (V/m) @ t=0.44
4.912001612551774
% es.tEy (V/m) @ t=0.44
0
% es.tEz (V/m) @ t=0.44
-5.380689960900371
% V (V) @ t=0.44
0.006630716027836146
% es.normE (V/m) @ t=0.46
7.811593532164984
% es.EX (V/m) @ t=0.46
4.957093013868217
% es.EY (V/m) @ t=0.46
1.482357686460969
% es.EZ (V/m) @ t=0.46
-5.4301103333533725
% es.tEX (V/m) @ t=0.46
4.9570930138681994
% es.tEY (V/m) @ t=0.46
0
% es.tEZ (V/m) @ t=0.46
-5.430110333353361
% es.Ex (V/m) @ t=0.46
4.957093013868217
% es.Ey (V/m) @ t=0.46
1.482357686460969
% es.Ez (V/m) @ t=0.46
-5.4301103333533725
% es.tEx (V/m) @ t=0.46
4.9570930138681994
% es.tEy (V/m) @ t=0.46
0
% es.tEz (V/m) @ t=0.46
-5.430110333353361
% V (V) @ t=0.46
0.006691642665286589
% es.normE (V/m) @ t=0.48
7.882671977776844
% es.EX (V/m) @ t=0.48
5.002184415184655
% es.EY (V/m) @ t=0.48
1.49584306869305
% es.EZ (V/m) @ t=0.48
-5.4795307058063445
% es.tEX (V/m) @ t=0.48
5.002184415184638
% es.tEY (V/m) @ t=0.48
0
% es.tEZ (V/m) @ t=0.48
-5.479530705806333
% es.Ex (V/m) @ t=0.48
5.002184415184655
% es.Ey (V/m) @ t=0.48
1.49584306869305
% es.Ez (V/m) @ t=0.48
-5.4795307058063445
% es.tEx (V/m) @ t=0.48
5.002184415184638
% es.tEy (V/m) @ t=0.48
0
% es.tEz (V/m) @ t=0.48
-5.479530705806333
% V (V) @ t=0.48
0.006752569302737033
% es.normE (V/m) @ t=0.5
7.95375042343189
% es.EX (V/m) @ t=0.5
5.047275816501088
% es.EY (V/m) @ t=0.5
1.5093284509251612
% es.EZ (V/m) @ t=0.5
-5.528951078259331
% es.tEX (V/m) @ t=0.5
5.047275816501082
% es.tEY (V/m) @ t=0.5
0
% es.tEZ (V/m) @ t=0.5
-5.528951078259324
% es.Ex (V/m) @ t=0.5
5.047275816501088
% es.Ey (V/m) @ t=0.5
1.5093284509251612
% es.Ez (V/m) @ t=0.5
-5.528951078259331
% es.tEx (V/m) @ t=0.5
5.047275816501082
% es.tEy (V/m) @ t=0.5
0
% es.tEz (V/m) @ t=0.5
-5.528951078259324
% V (V) @ t=0.5
0.0068134959401874775
% es.normE (V/m) @ t=0.52
8.024828869128989
% es.EX (V/m) @ t=0.52
5.092367217817538
% es.EY (V/m) @ t=0.52
1.5228138331572478
% es.EZ (V/m) @ t=0.52
-5.578371450712302
% es.tEX (V/m) @ t=0.52
5.092367217817529
% es.tEY (V/m) @ t=0.52
0
% es.tEZ (V/m) @ t=0.52
-5.578371450712291
% es.Ex (V/m) @ t=0.52
5.092367217817538
% es.Ey (V/m) @ t=0.52
1.5228138331572478
% es.Ez (V/m) @ t=0.52
-5.578371450712302
% es.tEx (V/m) @ t=0.52
5.092367217817529
% es.tEy (V/m) @ t=0.52
0
% es.tEz (V/m) @ t=0.52
-5.578371450712291
% V (V) @ t=0.52
0.006874422577637923
% es.normE (V/m) @ t=0.54
8.095907314867038
% es.EX (V/m) @ t=0.54
5.137458619133966
% es.EY (V/m) @ t=0.54
1.5362992153893535
% es.EZ (V/m) @ t=0.54
-5.627791823165296
% es.tEX (V/m) @ t=0.54
5.13745861913395
% es.tEY (V/m) @ t=0.54
0
% es.tEZ (V/m) @ t=0.54
-5.6277918231652855
% es.Ex (V/m) @ t=0.54
5.137458619133966
% es.Ey (V/m) @ t=0.54
1.5362992153893535
% es.Ez (V/m) @ t=0.54
-5.627791823165296
% es.tEx (V/m) @ t=0.54
5.13745861913395
% es.tEy (V/m) @ t=0.54
0
% es.tEz (V/m) @ t=0.54
-5.6277918231652855
% V (V) @ t=0.54
0.006935349215088367
% es.normE (V/m) @ t=0.56
8.174076027804597
% es.EX (V/m) @ t=0.56
5.187067213120753
% es.EY (V/m) @ t=0.56
1.551133646528654
% es.EZ (V/m) @ t=0.56
-5.6821261725270915
% es.tEX (V/m) @ t=0.56
5.187067213120747
% es.tEY (V/m) @ t=0.56
0
% es.tEZ (V/m) @ t=0.56
-5.682126172527081
% es.Ex (V/m) @ t=0.56
5.187067213120753
% es.Ey (V/m) @ t=0.56
1.551133646528654
% es.Ez (V/m) @ t=0.56
-5.6821261725270915
% es.tEx (V/m) @ t=0.56
5.187067213120747
% es.tEy (V/m) @ t=0.56
0
% es.tEz (V/m) @ t=0.56
-5.682126172527081
% V (V) @ t=0.56
0.007002299025240354
% es.normE (V/m) @ t=0.58
8.253320780970661
% es.EX (V/m) @ t=0.58
5.237361349818418
% es.EY (V/m) @ t=0.58
1.5661728133771797
% es.EZ (V/m) @ t=0.58
-5.737206281766106
% es.tEX (V/m) @ t=0.58
5.237361349818401
% es.tEY (V/m) @ t=0.58
0
% es.tEZ (V/m) @ t=0.58
-5.737206281766099
% es.Ex (V/m) @ t=0.58
5.237361349818418
% es.Ey (V/m) @ t=0.58
1.5661728133771797
% es.Ez (V/m) @ t=0.58
-5.737206281766106
% es.tEx (V/m) @ t=0.58
5.237361349818401
% es.tEy (V/m) @ t=0.58
0
% es.tEz (V/m) @ t=0.58
-5.737206281766099
% V (V) @ t=0.58
0.007070162930150552
% es.normE (V/m) @ t=0.6
8.332565534148696
% es.EX (V/m) @ t=0.6
5.287655486516067
% es.EY (V/m) @ t=0.6
1.581211980225702
% es.EZ (V/m) @ t=0.6
-5.792286391005128
% es.tEX (V/m) @ t=0.6
5.2876554865160506
% es.tEY (V/m) @ t=0.6
0
% es.tEZ (V/m) @ t=0.6
-5.792286391005117
% es.Ex (V/m) @ t=0.6
5.287655486516067
% es.Ey (V/m) @ t=0.6
1.581211980225702
% es.Ez (V/m) @ t=0.6
-5.792286391005128
% es.tEx (V/m) @ t=0.6
5.2876554865160506
% es.tEy (V/m) @ t=0.6
0
% es.tEz (V/m) @ t=0.6
-5.792286391005117
% V (V) @ t=0.6
0.007138026835060752
% es.normE (V/m) @ t=0.62
8.411810287338378
% es.EX (V/m) @ t=0.62
5.337949623213716
% es.EY (V/m) @ t=0.62
1.596251147074189
% es.EZ (V/m) @ t=0.62
-5.847366500244153
% es.tEX (V/m) @ t=0.62
5.3379496232137065
% es.tEY (V/m) @ t=0.62
0
% es.tEZ (V/m) @ t=0.62
-5.847366500244138
% es.Ex (V/m) @ t=0.62
5.337949623213716
% es.Ey (V/m) @ t=0.62
1.596251147074189
% es.Ez (V/m) @ t=0.62
-5.847366500244153
% es.tEx (V/m) @ t=0.62
5.3379496232137065
% es.tEy (V/m) @ t=0.62
0
% es.tEz (V/m) @ t=0.62
-5.847366500244138
% V (V) @ t=0.62
0.00720589073997095
% es.normE (V/m) @ t=0.64
8.491055040539377
% es.EX (V/m) @ t=0.64
5.388243759911381
% es.EY (V/m) @ t=0.64
1.6112903139227073
% es.EZ (V/m) @ t=0.64
-5.902446609483171
% es.tEX (V/m) @ t=0.64
5.388243759911364
% es.tEY (V/m) @ t=0.64
0
% es.tEZ (V/m) @ t=0.64
-5.902446609483157
% es.Ex (V/m) @ t=0.64
5.388243759911381
% es.Ey (V/m) @ t=0.64
1.6112903139227073
% es.Ez (V/m) @ t=0.64
-5.902446609483171
% es.tEx (V/m) @ t=0.64
5.388243759911364
% es.tEy (V/m) @ t=0.64
0
% es.tEz (V/m) @ t=0.64
-5.902446609483157
% V (V) @ t=0.64
0.007273754644881152
% es.normE (V/m) @ t=0.66
8.570299793751378
% es.EX (V/m) @ t=0.66
5.438537896609031
% es.EY (V/m) @ t=0.66
1.6263294807712332
% es.EZ (V/m) @ t=0.66
-5.957526718722185
% es.tEX (V/m) @ t=0.66
5.438537896609017
% es.tEY (V/m) @ t=0.66
0
% es.tEZ (V/m) @ t=0.66
-5.957526718722177
% es.Ex (V/m) @ t=0.66
5.438537896609031
% es.Ey (V/m) @ t=0.66
1.6263294807712332
% es.Ez (V/m) @ t=0.66
-5.957526718722185
% es.tEx (V/m) @ t=0.66
5.438537896609017
% es.tEy (V/m) @ t=0.66
0
% es.tEz (V/m) @ t=0.66
-5.957526718722177
% V (V) @ t=0.66
0.007341618549791352
% es.normE (V/m) @ t=0.68
8.649544546974102
% es.EX (V/m) @ t=0.68
5.4888320333066805
% es.EY (V/m) @ t=0.68
1.6413686476197662
% es.EZ (V/m) @ t=0.68
-6.012606827961228
% es.tEX (V/m) @ t=0.68
5.488832033306664
% es.tEY (V/m) @ t=0.68
0
% es.tEZ (V/m) @ t=0.68
-6.012606827961213
% es.Ex (V/m) @ t=0.68
5.4888320333066805
% es.Ey (V/m) @ t=0.68
1.6413686476197662
% es.Ez (V/m) @ t=0.68
-6.012606827961228
% es.tEx (V/m) @ t=0.68
5.488832033306664
% es.tEy (V/m) @ t=0.68
0
% es.tEz (V/m) @ t=0.68
-6.012606827961213
% V (V) @ t=0.68
0.007409482454701553
% es.normE (V/m) @ t=0.7
8.728789300207193
% es.EX (V/m) @ t=0.7
5.539126170004322
% es.EY (V/m) @ t=0.7
1.6564078144682814
% es.EZ (V/m) @ t=0.7
-6.067686937200217
% es.tEX (V/m) @ t=0.7
5.539126170004312
% es.tEY (V/m) @ t=0.7
0
% es.tEZ (V/m) @ t=0.7
-6.067686937200203
% es.Ex (V/m) @ t=0.7
5.539126170004322
% es.Ey (V/m) @ t=0.7
1.6564078144682814
% es.Ez (V/m) @ t=0.7
-6.067686937200217
% es.tEx (V/m) @ t=0.7
5.539126170004312
% es.tEy (V/m) @ t=0.7
0
% es.tEz (V/m) @ t=0.7
-6.067686937200203
% V (V) @ t=0.7
0.007477346359611752
% es.normE (V/m) @ t=0.72
8.808034053450449
% es.EX (V/m) @ t=0.72
5.5894203067019825
% es.EY (V/m) @ t=0.72
1.6714469813167754
% es.EZ (V/m) @ t=0.72
-6.122767046439249
% es.tEX (V/m) @ t=0.72
5.589420306701976
% es.tEY (V/m) @ t=0.72
0
% es.tEZ (V/m) @ t=0.72
-6.122767046439234
% es.Ex (V/m) @ t=0.72
5.5894203067019825
% es.Ey (V/m) @ t=0.72
1.6714469813167754
% es.Ez (V/m) @ t=0.72
-6.122767046439249
% es.tEx (V/m) @ t=0.72
5.589420306701976
% es.tEy (V/m) @ t=0.72
0
% es.tEz (V/m) @ t=0.72
-6.122767046439234
% V (V) @ t=0.72
0.00754521026452195
% es.normE (V/m) @ t=0.74
8.887278806703547
% es.EX (V/m) @ t=0.74
5.63971444339964
% es.EY (V/m) @ t=0.74
1.6864861481653008
% es.EZ (V/m) @ t=0.74
-6.17784715567826
% es.tEX (V/m) @ t=0.74
5.6397144433996305
% es.tEY (V/m) @ t=0.74
0
% es.tEZ (V/m) @ t=0.74
-6.177847155678246
% es.Ex (V/m) @ t=0.74
5.63971444339964
% es.Ey (V/m) @ t=0.74
1.6864861481653008
% es.Ez (V/m) @ t=0.74
-6.17784715567826
% es.tEx (V/m) @ t=0.74
5.6397144433996305
% es.tEy (V/m) @ t=0.74
0
% es.tEz (V/m) @ t=0.74
-6.177847155678246
% V (V) @ t=0.74
0.0076130741694321515
% es.normE (V/m) @ t=0.76
8.966523559966266
% es.EX (V/m) @ t=0.76
5.690008580097302
% es.EY (V/m) @ t=0.76
1.7015253150138019
% es.EZ (V/m) @ t=0.76
-6.232927264917296
% es.tEX (V/m) @ t=0.76
5.690008580097291
% es.tEY (V/m) @ t=0.76
0
% es.tEZ (V/m) @ t=0.76
-6.232927264917285
% es.Ex (V/m) @ t=0.76
5.690008580097302
% es.Ey (V/m) @ t=0.76
1.7015253150138019
% es.Ez (V/m) @ t=0.76
-6.232927264917296
% es.tEx (V/m) @ t=0.76
5.690008580097291
% es.tEy (V/m) @ t=0.76
0
% es.tEz (V/m) @ t=0.76
-6.232927264917285
% V (V) @ t=0.76
0.00768093807434235
% es.normE (V/m) @ t=0.78
9.045768313238327
% es.EX (V/m) @ t=0.78
5.740302716794952
% es.EY (V/m) @ t=0.78
1.716564481862342
% es.EZ (V/m) @ t=0.78
-6.288007374156325
% es.tEX (V/m) @ t=0.78
5.740302716794927
% es.tEY (V/m) @ t=0.78
0
% es.tEZ (V/m) @ t=0.78
-6.288007374156311
% es.Ex (V/m) @ t=0.78
5.740302716794952
% es.Ey (V/m) @ t=0.78
1.716564481862342
% es.Ez (V/m) @ t=0.78
-6.288007374156325
% es.tEx (V/m) @ t=0.78
5.740302716794927
% es.tEy (V/m) @ t=0.78
0
% es.tEz (V/m) @ t=0.78
-6.288007374156311
% V (V) @ t=0.78
0.007748801979252552
% es.normE (V/m) @ t=0.8
9.125013066519461
% es.EX (V/m) @ t=0.8
5.790596853492604
% es.EY (V/m) @ t=0.8
1.7316036487108537
% es.EZ (V/m) @ t=0.8
-6.343087483395336
% es.tEX (V/m) @ t=0.8
5.790596853492594
% es.tEY (V/m) @ t=0.8
0
% es.tEZ (V/m) @ t=0.8
-6.343087483395314
% es.Ex (V/m) @ t=0.8
5.790596853492604
% es.Ey (V/m) @ t=0.8
1.7316036487108537
% es.Ez (V/m) @ t=0.8
-6.343087483395336
% es.tEx (V/m) @ t=0.8
5.790596853492594
% es.tEy (V/m) @ t=0.8
0
% es.tEz (V/m) @ t=0.8
-6.343087483395314
% V (V) @ t=0.8
0.00781666588416275
% es.normE (V/m) @ t=0.82
9.207124557120919
% es.EX (V/m) @ t=0.82
5.842709201091228
% es.EY (V/m) @ t=0.82
1.747186621805291
% es.EZ (V/m) @ t=0.82
-6.40016115989502
% es.tEX (V/m) @ t=0.82
5.842709201091211
% es.tEY (V/m) @ t=0.82
0
% es.tEZ (V/m) @ t=0.82
-6.400161159894998
% es.Ex (V/m) @ t=0.82
5.842709201091228
% es.Ey (V/m) @ t=0.82
1.747186621805291
% es.Ez (V/m) @ t=0.82
-6.40016115989502
% es.tEx (V/m) @ t=0.82
5.842709201091211
% es.tEy (V/m) @ t=0.82
0
% es.tEz (V/m) @ t=0.82
-6.400161159894998
% V (V) @ t=0.82
0.007886988266450866
% es.normE (V/m) @ t=0.84
9.295697572058199
% es.EX (V/m) @ t=0.84
5.898919731641342
% es.EY (V/m) @ t=0.84
1.7639953149109076
% es.EZ (V/m) @ t=0.84
-6.46172826636802
% es.tEX (V/m) @ t=0.84
5.898919731641333
% es.tEY (V/m) @ t=0.84
0
% es.tEZ (V/m) @ t=0.84
-6.461728266368006
% es.Ex (V/m) @ t=0.84
5.898919731641342
% es.Ey (V/m) @ t=0.84
1.7639953149109076
% es.Ez (V/m) @ t=0.84
-6.46172826636802
% es.tEx (V/m) @ t=0.84
5.898919731641333
% es.tEy (V/m) @ t=0.84
0
% es.tEz (V/m) @ t=0.84
-6.461728266368006
% V (V) @ t=0.84
0.007962851969644807
% es.normE (V/m) @ t=0.86
9.384270586997701
% es.EX (V/m) @ t=0.86
5.955130262191432
% es.EY (V/m) @ t=0.86
1.7808040080165353
% es.EZ (V/m) @ t=0.86
-6.523295372841046
% es.tEX (V/m) @ t=0.86
5.955130262191416
% es.tEY (V/m) @ t=0.86
0
% es.tEZ (V/m) @ t=0.86
-6.523295372841032
% es.Ex (V/m) @ t=0.86
5.955130262191432
% es.Ey (V/m) @ t=0.86
1.7808040080165353
% es.Ez (V/m) @ t=0.86
-6.523295372841046
% es.tEx (V/m) @ t=0.86
5.955130262191416
% es.tEy (V/m) @ t=0.86
0
% es.tEz (V/m) @ t=0.86
-6.523295372841032
% V (V) @ t=0.86
0.008038715672838747
% es.normE (V/m) @ t=0.88
9.47284360193936
% es.EX (V/m) @ t=0.88
6.01134079274153
% es.EY (V/m) @ t=0.88
1.7976127011221905
% es.EZ (V/m) @ t=0.88
-6.584862479314072
% es.tEX (V/m) @ t=0.88
6.011340792741513
% es.tEY (V/m) @ t=0.88
0
% es.tEZ (V/m) @ t=0.88
-6.58486247931405
% es.Ex (V/m) @ t=0.88
6.01134079274153
% es.Ey (V/m) @ t=0.88
1.7976127011221905
% es.Ez (V/m) @ t=0.88
-6.584862479314072
% es.tEx (V/m) @ t=0.88
6.011340792741513
% es.tEy (V/m) @ t=0.88
0
% es.tEz (V/m) @ t=0.88
-6.58486247931405
% V (V) @ t=0.88
0.00811457937603269
% es.normE (V/m) @ t=0.9
9.561416616883125
% es.EX (V/m) @ t=0.9
6.067551323291662
% es.EY (V/m) @ t=0.9
1.814421394227793
% es.EZ (V/m) @ t=0.9
-6.646429585787087
% es.tEX (V/m) @ t=0.9
6.067551323291645
% es.tEY (V/m) @ t=0.9
0
% es.tEZ (V/m) @ t=0.9
-6.646429585787072
% es.Ex (V/m) @ t=0.9
6.067551323291662
% es.Ey (V/m) @ t=0.9
1.814421394227793
% es.Ez (V/m) @ t=0.9
-6.646429585787087
% es.tEx (V/m) @ t=0.9
6.067551323291645
% es.tEy (V/m) @ t=0.9
0
% es.tEz (V/m) @ t=0.9
-6.646429585787072
% V (V) @ t=0.9
0.00819044307922663
% es.normE (V/m) @ t=0.92
9.64998963182889
% es.EX (V/m) @ t=0.92
6.123761853841756
% es.EY (V/m) @ t=0.92
1.8312300873334308
% es.EZ (V/m) @ t=0.92
-6.707996692260087
% es.tEX (V/m) @ t=0.92
6.123761853841742
% es.tEY (V/m) @ t=0.92
0
% es.tEZ (V/m) @ t=0.92
-6.707996692260073
% es.Ex (V/m) @ t=0.92
6.123761853841756
% es.Ey (V/m) @ t=0.92
1.8312300873334308
% es.Ez (V/m) @ t=0.92
-6.707996692260087
% es.tEx (V/m) @ t=0.92
6.123761853841742
% es.tEy (V/m) @ t=0.92
0
% es.tEz (V/m) @ t=0.92
-6.707996692260073
% V (V) @ t=0.92
0.00826630678242057
% es.normE (V/m) @ t=0.94
9.73856264677667
% es.EX (V/m) @ t=0.94
6.179972384391849
% es.EY (V/m) @ t=0.94
1.8480387804390759
% es.EZ (V/m) @ t=0.94
-6.769563798733117
% es.tEX (V/m) @ t=0.94
6.1799723843918315
% es.tEY (V/m) @ t=0.94
0
% es.tEZ (V/m) @ t=0.94
-6.769563798733102
% es.Ex (V/m) @ t=0.94
6.179972384391849
% es.Ey (V/m) @ t=0.94
1.8480387804390759
% es.Ez (V/m) @ t=0.94
-6.769563798733117
% es.tEx (V/m) @ t=0.94
6.1799723843918315
% es.tEy (V/m) @ t=0.94
0
% es.tEz (V/m) @ t=0.94
-6.769563798733102
% V (V) @ t=0.94
0.008342170485614512
% es.normE (V/m) @ t=0.96
9.827135661726365
% es.EX (V/m) @ t=0.96
6.236182914941944
% es.EY (V/m) @ t=0.96
1.8648474735447067
% es.EZ (V/m) @ t=0.96
-6.831130905206132
% es.tEX (V/m) @ t=0.96
6.236182914941929
% es.tEY (V/m) @ t=0.96
0
% es.tEZ (V/m) @ t=0.96
-6.831130905206117
% es.Ex (V/m) @ t=0.96
6.236182914941944
% es.Ey (V/m) @ t=0.96
1.8648474735447067
% es.Ez (V/m) @ t=0.96
-6.831130905206132
% es.tEx (V/m) @ t=0.96
6.236182914941929
% es.tEy (V/m) @ t=0.96
0
% es.tEz (V/m) @ t=0.96
-6.831130905206117
% V (V) @ t=0.96
0.008418034188808453
% es.normE (V/m) @ t=0.98
9.91570867667793
% es.EX (V/m) @ t=0.98
6.292393445492047
% es.EY (V/m) @ t=0.98
1.881656166650302
% es.EZ (V/m) @ t=0.98
-6.892698011679143
% es.tEX (V/m) @ t=0.98
6.29239344549204
% es.tEY (V/m) @ t=0.98
0
% es.tEZ (V/m) @ t=0.98
-6.892698011679128
% es.Ex (V/m) @ t=0.98
6.292393445492047
% es.Ey (V/m) @ t=0.98
1.881656166650302
% es.Ez (V/m) @ t=0.98
-6.892698011679143
% es.tEx (V/m) @ t=0.98
6.29239344549204
% es.tEy (V/m) @ t=0.98
0
% es.tEz (V/m) @ t=0.98
-6.892698011679128
% V (V) @ t=0.98
0.008493897892002392
% es.normE (V/m) @ t=1
10.004281691631345
% es.EX (V/m) @ t=1
6.3486039760421615
% es.EY (V/m) @ t=1
1.8984648597559577
% es.EZ (V/m) @ t=1
-6.954265118152158
% es.tEX (V/m) @ t=1
6.348603976042151
% es.tEY (V/m) @ t=1
0
% es.tEZ (V/m) @ t=1
-6.9542651181521435
% es.Ex (V/m) @ t=1
6.3486039760421615
% es.Ey (V/m) @ t=1
1.8984648597559577
% es.Ez (V/m) @ t=1
-6.954265118152158
% es.tEx (V/m) @ t=1
6.348603976042151
% es.tEy (V/m) @ t=1
0
% es.tEz (V/m) @ t=1
-6.9542651181521435
% V (V) @ t=1
0.008569761595196334
% es.normE (V/m) @ t=1.02
10.092854706586504
% es.EX (V/m) @ t=1.02
6.404814506592262
% es.EY (V/m) @ t=1.02
1.91527355286156
% es.EZ (V/m) @ t=1.02
-7.0158322246251625
% es.tEX (V/m) @ t=1.02
6.404814506592247
% es.tEY (V/m) @ t=1.02
0
% es.tEZ (V/m) @ t=1.02
-7.015832224625147
% es.Ex (V/m) @ t=1.02
6.404814506592262
% es.Ey (V/m) @ t=1.02
1.91527355286156
% es.Ez (V/m) @ t=1.02
-7.0158322246251625
% es.tEx (V/m) @ t=1.02
6.404814506592247
% es.tEy (V/m) @ t=1.02
0
% es.tEz (V/m) @ t=1.02
-7.015832224625147
% V (V) @ t=1.02
0.008645625298390275
% es.normE (V/m) @ t=1.04
10.181427721543432
% es.EX (V/m) @ t=1.04
6.461025037142363
% es.EY (V/m) @ t=1.04
1.9320822459672162
% es.EZ (V/m) @ t=1.04
-7.077399331098195
% es.tEX (V/m) @ t=1.04
6.461025037142352
% es.tEY (V/m) @ t=1.04
0
% es.tEZ (V/m) @ t=1.04
-7.077399331098181
% es.Ex (V/m) @ t=1.04
6.461025037142363
% es.Ey (V/m) @ t=1.04
1.9320822459672162
% es.Ez (V/m) @ t=1.04
-7.077399331098195
% es.tEx (V/m) @ t=1.04
6.461025037142352
% es.tEy (V/m) @ t=1.04
0
% es.tEz (V/m) @ t=1.04
-7.077399331098181
% V (V) @ t=1.04
0.008721489001584214
% es.normE (V/m) @ t=1.06
10.270000736502027
% es.EX (V/m) @ t=1.06
6.517235567692477
% es.EY (V/m) @ t=1.06
1.9488909390728364