% Model:              1 neuron.mph
% Version:            COMSOL 6.0.0.405
% Date:               Mar 16 2023, 17:21
% Dimension:          0
% Nodes:              14017
% Expressions:        14017
% Description:        Electric field norm, Electric field, X component, Electric field, Y component, Electric field, Z component, Tangential electric field, X component, Tangential electric field, Y component, Tangential electric field, Z component, Electric field, x component, Electric field, y component, Electric field, z component, Tangential electric field, x component, Tangential electric field, y component, Tangential electric field, z component, Electric potential
% Length unit:        mm
% x
2
% y
12.2
% z
1
% es.normE (V/m) @ t=0
0.7684731361601683
% es.EX (V/m) @ t=0
-0.49626852820433065
% es.EY (V/m) @ t=0
0.11025925379444029
% es.EZ (V/m) @ t=0
0.5659771362738253
% es.tEX (V/m) @ t=0
-0.49626852820433065
% es.tEY (V/m) @ t=0
0
% es.tEZ (V/m) @ t=0
0.5659771362738293
% es.Ex (V/m) @ t=0
-0.49626852820433065
% es.Ey (V/m) @ t=0
0.11025925379444029
% es.Ez (V/m) @ t=0
0.5659771362738253
% es.tEx (V/m) @ t=0
-0.49626852820433065
% es.tEy (V/m) @ t=0
0
% es.tEz (V/m) @ t=0
0.5659771362738293
% V (V) @ t=0
0.007437317613726599
% es.normE (V/m) @ t=0.02
0.6637452169303901
% es.EX (V/m) @ t=0.02
-0.42863679465338067
% es.EY (V/m) @ t=0.02
0.09523306544209181
% es.EZ (V/m) @ t=0.02
0.4888454773652833
% es.tEX (V/m) @ t=0.02
-0.4286367946533791
% es.tEY (V/m) @ t=0.02
0
% es.tEZ (V/m) @ t=0.02
0.4888454773652873
% es.Ex (V/m) @ t=0.02
-0.42863679465338067
% es.Ey (V/m) @ t=0.02
0.09523306544209181
% es.Ez (V/m) @ t=0.02
0.4888454773652833
% es.tEx (V/m) @ t=0.02
-0.4286367946533791
% es.tEy (V/m) @ t=0.02
0
% es.tEz (V/m) @ t=0.02
0.4888454773652873
% V (V) @ t=0.02
0.006423756085444211
% es.normE (V/m) @ t=0.04
0.6698504614700711
% es.EX (V/m) @ t=0.04
-0.4325794709098103
% es.EY (V/m) @ t=0.04
0.09610903554915373
% es.EZ (V/m) @ t=0.04
0.4933419635444287
% es.tEX (V/m) @ t=0.04
-0.43257947090980875
% es.tEY (V/m) @ t=0.04
0
% es.tEZ (V/m) @ t=0.04
0.49334196354443627
% es.Ex (V/m) @ t=0.04
-0.4325794709098103
% es.Ey (V/m) @ t=0.04
0.09610903554915373
% es.Ez (V/m) @ t=0.04
0.4933419635444287
% es.tEx (V/m) @ t=0.04
-0.43257947090980875
% es.tEy (V/m) @ t=0.04
0
% es.tEz (V/m) @ t=0.04
0.49334196354443627
% V (V) @ t=0.04
0.006482842931607544
% es.normE (V/m) @ t=0.06
0.6760113118146632
% es.EX (V/m) @ t=0.06
-0.43655805677372395
% es.EY (V/m) @ t=0.06
0.09699298328077105
% es.EZ (V/m) @ t=0.06
0.4978794031840206
% es.tEX (V/m) @ t=0.06
-0.4365580567737226
% es.tEY (V/m) @ t=0.06
0
% es.tEZ (V/m) @ t=0.06
0.4978794031840281
% es.Ex (V/m) @ t=0.06
-0.43655805677372395
% es.Ey (V/m) @ t=0.06
0.09699298328077105
% es.Ez (V/m) @ t=0.06
0.4978794031840206
% es.tEx (V/m) @ t=0.06
-0.4365580567737226
% es.tEy (V/m) @ t=0.06
0
% es.tEz (V/m) @ t=0.06
0.4978794031840281
% V (V) @ t=0.06
0.006542467967674539
% es.normE (V/m) @ t=0.08
0.6822648831912637
% es.EX (V/m) @ t=0.08
-0.44059652110077474
% es.EY (V/m) @ t=0.08
0.0978902326272389
% es.EZ (V/m) @ t=0.08
0.5024851315671279
% es.tEX (V/m) @ t=0.08
-0.44059652110077474
% es.tEY (V/m) @ t=0.08
0
% es.tEZ (V/m) @ t=0.08
0.5024851315671337
% es.Ex (V/m) @ t=0.08
-0.44059652110077474
% es.Ey (V/m) @ t=0.08
0.0978902326272389
% es.Ez (V/m) @ t=0.08
0.5024851315671279
% es.tEx (V/m) @ t=0.08
-0.44059652110077474
% es.tEy (V/m) @ t=0.08
0
% es.tEz (V/m) @ t=0.08
0.5024851315671337
% V (V) @ t=0.08
0.0066029904634944524
% es.normE (V/m) @ t=0.1
0.6885856307302103
% es.EX (V/m) @ t=0.1
-0.44467836722884524
% es.EY (V/m) @ t=0.1
0.09879711896133553
% es.EZ (V/m) @ t=0.1
0.5071403349789461
% es.tEX (V/m) @ t=0.1
-0.4446783672288437
% es.tEY (V/m) @ t=0.1
0
% es.tEZ (V/m) @ t=0.1
0.5071403349789536
% es.Ex (V/m) @ t=0.1
-0.44467836722884524
% es.Ey (V/m) @ t=0.1
0.09879711896133553
% es.Ez (V/m) @ t=0.1
0.5071403349789461
% es.tEx (V/m) @ t=0.1
-0.4446783672288437
% es.tEy (V/m) @ t=0.1
0
% es.tEz (V/m) @ t=0.1
0.5071403349789536
% V (V) @ t=0.1
0.006664163166724396
% es.normE (V/m) @ t=0.12
0.6949063782691585
% es.EX (V/m) @ t=0.12
-0.44876021335691596
% es.EY (V/m) @ t=0.12
0.09970400529542511
% es.EZ (V/m) @ t=0.12
0.5117955383907695
% es.tEX (V/m) @ t=0.12
-0.4487602133569162
% es.tEY (V/m) @ t=0.12
0
% es.tEZ (V/m) @ t=0.12
0.51179553839077
% es.Ex (V/m) @ t=0.12
-0.44876021335691596
% es.Ey (V/m) @ t=0.12
0.09970400529542511
% es.Ez (V/m) @ t=0.12
0.5117955383907695
% es.tEx (V/m) @ t=0.12
-0.4487602133569162
% es.tEy (V/m) @ t=0.12
0
% es.tEz (V/m) @ t=0.12
0.51179553839077
% V (V) @ t=0.12
0.006725335869954338
% es.normE (V/m) @ t=0.14
0.7012845569426842
% es.EX (V/m) @ t=0.14
-0.45287914735816504
% es.EY (V/m) @ t=0.14
0.10061913267177997
% es.EZ (V/m) @ t=0.14
0.5164930395339096
% es.tEX (V/m) @ t=0.14
-0.4528791473581635
% es.tEY (V/m) @ t=0.14
0
% es.tEZ (V/m) @ t=0.14
0.5164930395339171
% es.Ex (V/m) @ t=0.14
-0.45287914735816504
% es.Ey (V/m) @ t=0.14
0.10061913267177997
% es.Ez (V/m) @ t=0.14
0.5164930395339096
% es.tEx (V/m) @ t=0.14
-0.4528791473581635
% es.tEy (V/m) @ t=0.14
0
% es.tEz (V/m) @ t=0.14
0.5164930395339171
% V (V) @ t=0.14
0.006787064343574893
% es.normE (V/m) @ t=0.16
0.707943634813504
% es.EX (V/m) @ t=0.16
-0.4571794804190057
% es.EY (V/m) @ t=0.16
0.10157456749067845
% es.EZ (V/m) @ t=0.16
0.5213974214719852
% es.tEX (V/m) @ t=0.16
-0.4571794804190059
% es.tEY (V/m) @ t=0.16
0
% es.tEZ (V/m) @ t=0.16
0.5213974214719892
% es.Ex (V/m) @ t=0.16
-0.4571794804190057
% es.Ey (V/m) @ t=0.16
0.10157456749067845
% es.Ez (V/m) @ t=0.16
0.5213974214719852
% es.tEx (V/m) @ t=0.16
-0.4571794804190059
% es.tEy (V/m) @ t=0.16
0
% es.tEz (V/m) @ t=0.16
0.5213974214719892
% V (V) @ t=0.16
0.006851511124220746
% es.normE (V/m) @ t=0.18
0.7146027126843297
% es.EX (V/m) @ t=0.18
-0.4614798134798537
% es.EY (V/m) @ t=0.18
0.10253000230958231
% es.EZ (V/m) @ t=0.18
0.5263018034100604
% es.tEX (V/m) @ t=0.18
-0.4614798134798519
% es.tEY (V/m) @ t=0.18
0
% es.tEZ (V/m) @ t=0.18
0.5263018034100644
% es.Ex (V/m) @ t=0.18
-0.4614798134798537
% es.Ey (V/m) @ t=0.18
0.10253000230958231
% es.Ez (V/m) @ t=0.18
0.5263018034100604
% es.tEx (V/m) @ t=0.18
-0.4614798134798519
% es.tEy (V/m) @ t=0.18
0
% es.tEz (V/m) @ t=0.18
0.5263018034100644
% V (V) @ t=0.18
0.006915957904866599
% es.normE (V/m) @ t=0.2
0.7212617905551655
% es.EX (V/m) @ t=0.2
-0.46578014654069966
% es.EY (V/m) @ t=0.2
0.10348543712848168
% es.EZ (V/m) @ t=0.2
0.531206185348152
% es.tEX (V/m) @ t=0.2
-0.46578014654069966
% es.tEY (V/m) @ t=0.2
0
% es.tEZ (V/m) @ t=0.2
0.5312061853481507
% es.Ex (V/m) @ t=0.2
-0.46578014654069966
% es.Ey (V/m) @ t=0.2
0.10348543712848168
% es.Ez (V/m) @ t=0.2
0.531206185348152
% es.tEx (V/m) @ t=0.2
-0.46578014654069966
% es.tEy (V/m) @ t=0.2
0
% es.tEz (V/m) @ t=0.2
0.5312061853481507
% V (V) @ t=0.2
0.006980404685512453
% es.normE (V/m) @ t=0.22
0.7279208684259897
% es.EX (V/m) @ t=0.22
-0.4700804796015512
% es.EY (V/m) @ t=0.22
0.10444087194737228
% es.EZ (V/m) @ t=0.22
0.5361105672862245
% es.tEX (V/m) @ t=0.22
-0.4700804796015512
% es.tEY (V/m) @ t=0.22
0
% es.tEZ (V/m) @ t=0.22
0.5361105672862321
% es.Ex (V/m) @ t=0.22
-0.4700804796015512
% es.Ey (V/m) @ t=0.22
0.10444087194737228
% es.Ez (V/m) @ t=0.22
0.5361105672862245
% es.tEx (V/m) @ t=0.22
-0.4700804796015512
% es.tEy (V/m) @ t=0.22
0
% es.tEz (V/m) @ t=0.22
0.5361105672862321
% V (V) @ t=0.22
0.007044851466158305
% es.normE (V/m) @ t=0.24
0.7345799462968211
% es.EX (V/m) @ t=0.24
-0.47438081266240073
% es.EY (V/m) @ t=0.24
0.10539630676627343
% es.EZ (V/m) @ t=0.24
0.541014949224309
% es.tEX (V/m) @ t=0.24
-0.4743808126623992
% es.tEY (V/m) @ t=0.24
0
% es.tEZ (V/m) @ t=0.24
0.5410149492243144
% es.Ex (V/m) @ t=0.24
-0.47438081266240073
% es.Ey (V/m) @ t=0.24
0.10539630676627343
% es.Ez (V/m) @ t=0.24
0.541014949224309
% es.tEx (V/m) @ t=0.24
-0.4743808126623992
% es.tEy (V/m) @ t=0.24
0
% es.tEz (V/m) @ t=0.24
0.5410149492243144
% V (V) @ t=0.24
0.007109298246804158
% es.normE (V/m) @ t=0.26
0.7412390241676498
% es.EX (V/m) @ t=0.26
-0.4786811457232465
% es.EY (V/m) @ t=0.26
0.10635174158517458
% es.EZ (V/m) @ t=0.26
0.5459193311623896
% es.tEX (V/m) @ t=0.26
-0.47868114572324494
% es.tEY (V/m) @ t=0.26
0
% es.tEZ (V/m) @ t=0.26
0.5459193311623971
% es.Ex (V/m) @ t=0.26
-0.4786811457232465
% es.Ey (V/m) @ t=0.26
0.10635174158517458
% es.Ez (V/m) @ t=0.26
0.5459193311623896
% es.tEx (V/m) @ t=0.26
-0.47868114572324494
% es.tEy (V/m) @ t=0.26
0
% es.tEz (V/m) @ t=0.26
0.5459193311623971
% V (V) @ t=0.26
0.007173745027450012
% es.normE (V/m) @ t=0.28
0.7481644045505336
% es.EX (V/m) @ t=0.28
-0.48315347038927303
% es.EY (V/m) @ t=0.28
0.10734533134804702
% es.EZ (V/m) @ t=0.28
0.5510198468287584
% es.tEX (V/m) @ t=0.28
-0.4831534703892715
% es.tEY (V/m) @ t=0.28
0
% es.tEZ (V/m) @ t=0.28
0.5510198468287641
% es.Ex (V/m) @ t=0.28
-0.48315347038927303
% es.Ey (V/m) @ t=0.28
0.10734533134804702
% es.Ez (V/m) @ t=0.28
0.5510198468287584
% es.tEx (V/m) @ t=0.28
-0.4831534703892715
% es.tEy (V/m) @ t=0.28
0
% es.tEz (V/m) @ t=0.28
0.5510198468287641
% V (V) @ t=0.28
0.007240772044492914
% es.normE (V/m) @ t=0.3
0.7555854613651701
% es.EX (V/m) @ t=0.3
-0.48794592791653435
% es.EY (V/m) @ t=0.3
0.10840993999218973
% es.EZ (V/m) @ t=0.3
0.5564854317760277
% es.tEX (V/m) @ t=0.3
-0.48794592791653457
% es.tEY (V/m) @ t=0.3
0
% es.tEZ (V/m) @ t=0.3
0.5564854317760353
% es.Ex (V/m) @ t=0.3
-0.48794592791653435
% es.Ey (V/m) @ t=0.3
0.10840993999218973
% es.Ez (V/m) @ t=0.3
0.5564854317760277
% es.tEx (V/m) @ t=0.3
-0.48794592791653457
% es.tEy (V/m) @ t=0.3
0
% es.tEz (V/m) @ t=0.3
0.5564854317760353
% V (V) @ t=0.3
0.007312601728849669
% es.normE (V/m) @ t=0.32
0.763006518179866
% es.EX (V/m) @ t=0.32
-0.4927383854437992
% es.EY (V/m) @ t=0.32
0.10947454863634049
% es.EZ (V/m) @ t=0.32
0.5619510167233059
% es.tEX (V/m) @ t=0.32
-0.49273838544379944
% es.tEY (V/m) @ t=0.32
0
% es.tEZ (V/m) @ t=0.32
0.5619510167233099
% es.Ex (V/m) @ t=0.32
-0.4927383854437992
% es.Ey (V/m) @ t=0.32
0.10947454863634049
% es.Ez (V/m) @ t=0.32
0.5619510167233059
% es.tEx (V/m) @ t=0.32
-0.49273838544379944
% es.tEy (V/m) @ t=0.32
0
% es.tEz (V/m) @ t=0.32
0.5619510167233099
% V (V) @ t=0.32
0.007384431413206426
% es.normE (V/m) @ t=0.34
0.770427574994599
% es.EX (V/m) @ t=0.34
-0.49753084297106276
% es.EY (V/m) @ t=0.34
0.11053915728047964
% es.EZ (V/m) @ t=0.34
0.5674166016705735
% es.tEX (V/m) @ t=0.34
-0.497530842971061
% es.tEY (V/m) @ t=0.34
0
% es.tEZ (V/m) @ t=0.34
0.5674166016705775
% es.Ex (V/m) @ t=0.34
-0.49753084297106276
% es.Ey (V/m) @ t=0.34
0.11053915728047964
% es.Ez (V/m) @ t=0.34
0.5674166016705735
% es.tEx (V/m) @ t=0.34
-0.497530842971061
% es.tEy (V/m) @ t=0.34
0
% es.tEz (V/m) @ t=0.34
0.5674166016705775
% V (V) @ t=0.34
0.007456261097563182
% es.normE (V/m) @ t=0.36
0.7778486318093816
% es.EX (V/m) @ t=0.36
-0.5023233004983279
% es.EY (V/m) @ t=0.36
0.11160376592461968
% es.EZ (V/m) @ t=0.36
0.5728821866178433
% es.tEX (V/m) @ t=0.36
-0.5023233004983261
% es.tEY (V/m) @ t=0.36
0
% es.tEZ (V/m) @ t=0.36
0.5728821866178491
% es.Ex (V/m) @ t=0.36
-0.5023233004983279
% es.Ey (V/m) @ t=0.36
0.11160376592461968
% es.Ez (V/m) @ t=0.36
0.5728821866178433
% es.tEx (V/m) @ t=0.36
-0.5023233004983261
% es.tEy (V/m) @ t=0.36
0
% es.tEz (V/m) @ t=0.36
0.5728821866178491
% V (V) @ t=0.36
0.00752809078191994
% es.normE (V/m) @ t=0.38
0.7852696886242128
% es.EX (V/m) @ t=0.38
-0.507115758025591
% es.EY (V/m) @ t=0.38
0.11266837456876416
% es.EZ (V/m) @ t=0.38
0.5783477715651197
% es.tEX (V/m) @ t=0.38
-0.507115758025591
% es.tEY (V/m) @ t=0.38
0
% es.tEZ (V/m) @ t=0.38
0.5783477715651308
% es.Ex (V/m) @ t=0.38
-0.507115758025591
% es.Ey (V/m) @ t=0.38
0.11266837456876416
% es.Ez (V/m) @ t=0.38
0.5783477715651197
% es.tEx (V/m) @ t=0.38
-0.507115758025591
% es.tEy (V/m) @ t=0.38
0
% es.tEz (V/m) @ t=0.38
0.5783477715651308
% V (V) @ t=0.38
0.007599920466276694
% es.normE (V/m) @ t=0.4
0.7926907454390839
% es.EX (V/m) @ t=0.4
-0.5119082155528576
% es.EY (V/m) @ t=0.4
0.1137329832129042
% es.EZ (V/m) @ t=0.4
0.5838133565123891
% es.tEX (V/m) @ t=0.4
-0.5119082155528578
% es.tEY (V/m) @ t=0.4
0
% es.tEZ (V/m) @ t=0.4
0.5838133565123949
% es.Ex (V/m) @ t=0.4
-0.5119082155528576
% es.Ey (V/m) @ t=0.4
0.1137329832129042
% es.Ez (V/m) @ t=0.4
0.5838133565123891
% es.tEx (V/m) @ t=0.4
-0.5119082155528578
% es.tEy (V/m) @ t=0.4
0
% es.tEz (V/m) @ t=0.4
0.5838133565123949
% V (V) @ t=0.4
0.007671750150633452
% es.normE (V/m) @ t=0.42
0.8001118022539936
% es.EX (V/m) @ t=0.42
-0.5167006730801174
% es.EY (V/m) @ t=0.42
0.11479759185704513
% es.EZ (V/m) @ t=0.42
0.5892789414596589
% es.tEX (V/m) @ t=0.42
-0.5167006730801156
% es.tEY (V/m) @ t=0.42
0
% es.tEZ (V/m) @ t=0.42
0.58927894145967
% es.Ex (V/m) @ t=0.42
-0.5167006730801174
% es.Ey (V/m) @ t=0.42
0.11479759185704513
% es.Ez (V/m) @ t=0.42
0.5892789414596589
% es.tEx (V/m) @ t=0.42
-0.5167006730801156
% es.tEy (V/m) @ t=0.42
0
% es.tEz (V/m) @ t=0.42
0.58927894145967
% V (V) @ t=0.42
0.007743579834990208
% es.normE (V/m) @ t=0.44
0.8075328590689543
% es.EX (V/m) @ t=0.44
-0.5214931306073791
% es.EY (V/m) @ t=0.44
0.11586220050119234
% es.EZ (V/m) @ t=0.44
0.5947445264069402
% es.tEX (V/m) @ t=0.44
-0.5214931306073789
% es.tEY (V/m) @ t=0.44
0
% es.tEZ (V/m) @ t=0.44
0.5947445264069442
% es.Ex (V/m) @ t=0.44
-0.5214931306073791
% es.Ey (V/m) @ t=0.44
0.11586220050119234
% es.Ez (V/m) @ t=0.44
0.5947445264069402
% es.tEx (V/m) @ t=0.44
-0.5214931306073789
% es.tEy (V/m) @ t=0.44
0
% es.tEz (V/m) @ t=0.44
0.5947445264069442
% V (V) @ t=0.44
0.007815409519346964
% es.normE (V/m) @ t=0.46
0.8149539158839474
% es.EX (V/m) @ t=0.46
-0.526285588134644
% es.EY (V/m) @ t=0.46
0.11692680914533948
% es.EZ (V/m) @ t=0.46
0.6002101113542047
% es.tEX (V/m) @ t=0.46
-0.526285588134644
% es.tEY (V/m) @ t=0.46
0
% es.tEZ (V/m) @ t=0.46
0.6002101113542122
% es.Ex (V/m) @ t=0.46
-0.526285588134644
% es.Ey (V/m) @ t=0.46
0.11692680914533948
% es.Ez (V/m) @ t=0.46
0.6002101113542047
% es.tEx (V/m) @ t=0.46
-0.526285588134644
% es.tEy (V/m) @ t=0.46
0
% es.tEz (V/m) @ t=0.46
0.6002101113542122
% V (V) @ t=0.46
0.007887239203703718
% es.normE (V/m) @ t=0.48
0.8223749726989874
% es.EX (V/m) @ t=0.48
-0.5310780456619091
% es.EY (V/m) @ t=0.48
0.11799141778948574
% es.EZ (V/m) @ t=0.48
0.6056756963014811
% es.tEX (V/m) @ t=0.48
-0.5310780456619073
% es.tEY (V/m) @ t=0.48
0
% es.tEZ (V/m) @ t=0.48
0.6056756963014833
% es.Ex (V/m) @ t=0.48
-0.5310780456619091
% es.Ey (V/m) @ t=0.48
0.11799141778948574
% es.Ez (V/m) @ t=0.48
0.6056756963014811
% es.tEx (V/m) @ t=0.48
-0.5310780456619073
% es.tEy (V/m) @ t=0.48
0
% es.tEz (V/m) @ t=0.48
0.6056756963014833
% V (V) @ t=0.48
0.007959068888060476
% es.normE (V/m) @ t=0.5
0.8297960295140558
% es.EX (V/m) @ t=0.5
-0.5358705031891742
% es.EY (V/m) @ t=0.5
0.11905602643362578
% es.EZ (V/m) @ t=0.5
0.6111412812487473
% es.tEX (V/m) @ t=0.5
-0.5358705031891722
% es.tEY (V/m) @ t=0.5
0
% es.tEZ (V/m) @ t=0.5
0.6111412812487478
% es.Ex (V/m) @ t=0.5
-0.5358705031891742
% es.Ey (V/m) @ t=0.5
0.11905602643362578
% es.Ez (V/m) @ t=0.5
0.6111412812487473
% es.tEx (V/m) @ t=0.5
-0.5358705031891722
% es.tEy (V/m) @ t=0.5
0
% es.tEz (V/m) @ t=0.5
0.6111412812487478
% V (V) @ t=0.5
0.008030898572417232
% es.normE (V/m) @ t=0.52
0.8372170863291679
% es.EX (V/m) @ t=0.52
-0.5406629607164335
% es.EY (V/m) @ t=0.52
0.12012063507775872
% es.EZ (V/m) @ t=0.52
0.6166068661960296
% es.tEX (V/m) @ t=0.52
-0.5406629607164335
% es.tEY (V/m) @ t=0.52
0
% es.tEZ (V/m) @ t=0.52
0.6166068661960296
% es.Ex (V/m) @ t=0.52
-0.5406629607164335
% es.Ey (V/m) @ t=0.52
0.12012063507775872
% es.Ez (V/m) @ t=0.52
0.6166068661960296
% es.tEx (V/m) @ t=0.52
-0.5406629607164335
% es.tEy (V/m) @ t=0.52
0
% es.tEz (V/m) @ t=0.52
0.6166068661960296
% V (V) @ t=0.52
0.00810272825677399
% es.normE (V/m) @ t=0.54
0.8446381431443102
% es.EX (V/m) @ t=0.54
-0.5454554182436986
% es.EY (V/m) @ t=0.54
0.12118524372190859
% es.EZ (V/m) @ t=0.54
0.6220724511432936
% es.tEX (V/m) @ t=0.54
-0.5454554182436968
% es.tEY (V/m) @ t=0.54
0
% es.tEZ (V/m) @ t=0.54
0.6220724511432971
% es.Ex (V/m) @ t=0.54
-0.5454554182436986
% es.Ey (V/m) @ t=0.54
0.12118524372190859
% es.Ez (V/m) @ t=0.54
0.6220724511432936
% es.tEx (V/m) @ t=0.54
-0.5454554182436968
% es.tEy (V/m) @ t=0.54
0
% es.tEz (V/m) @ t=0.54
0.6220724511432971
% V (V) @ t=0.54
0.008174557941130742
% es.normE (V/m) @ t=0.56
0.8526718094732315
% es.EX (V/m) @ t=0.56
-0.5506435281781648
% es.EY (V/m) @ t=0.56
0.12233762936985998
% es.EZ (V/m) @ t=0.56
0.6279892275021508
% es.tEX (V/m) @ t=0.56
-0.550643528178161
% es.tEY (V/m) @ t=0.56
0
% es.tEZ (V/m) @ t=0.56
0.6279892275021606
% es.Ex (V/m) @ t=0.56
-0.5506435281781648
% es.Ey (V/m) @ t=0.56
0.12233762936985998
% es.Ez (V/m) @ t=0.56
0.6279892275021508
% es.tEx (V/m) @ t=0.56
-0.550643528178161
% es.tEy (V/m) @ t=0.56
0
% es.tEz (V/m) @ t=0.56
0.6279892275021606
% V (V) @ t=0.56
0.0082523229815907
% es.normE (V/m) @ t=0.58
0.8609569541959197
% es.EX (V/m) @ t=0.58
-0.5559940548390518
% es.EY (V/m) @ t=0.58
0.12352604779140713
% es.EZ (V/m) @ t=0.58
0.6340912195471065
% es.tEX (V/m) @ t=0.58
-0.5559940548390498
% es.tEY (V/m) @ t=0.58
0
% es.tEZ (V/m) @ t=0.58
0.6340912195471162
% es.Ex (V/m) @ t=0.58
-0.5559940548390518
% es.Ey (V/m) @ t=0.58
0.12352604779140713
% es.Ez (V/m) @ t=0.58
0.6340912195471065
% es.tEx (V/m) @ t=0.58
-0.5559940548390498
% es.tEy (V/m) @ t=0.58
0
% es.tEz (V/m) @ t=0.58
0.6340912195471162
% V (V) @ t=0.58
0.008332524506932072
% es.normE (V/m) @ t=0.6
0.8692420989187721
% es.EX (V/m) @ t=0.6
-0.5613445814999372
% es.EY (V/m) @ t=0.6
0.12471446621294713
% es.EZ (V/m) @ t=0.6
0.6401932115920639
% es.tEX (V/m) @ t=0.6
-0.5613445814999352
% es.tEY (V/m) @ t=0.6
0
% es.tEZ (V/m) @ t=0.6
0.6401932115920754
% es.Ex (V/m) @ t=0.6
-0.5613445814999372
% es.Ey (V/m) @ t=0.6
0.12471446621294713
% es.Ez (V/m) @ t=0.6
0.6401932115920639
% es.tEx (V/m) @ t=0.6
-0.5613445814999352
% es.tEy (V/m) @ t=0.6
0
% es.tEz (V/m) @ t=0.6
0.6401932115920754
% V (V) @ t=0.6
0.008412726032273443
% es.normE (V/m) @ t=0.62
0.8775272436417969
% es.EX (V/m) @ t=0.62
-0.5666951081608327
% es.EY (V/m) @ t=0.62
0.12590288463448795
% es.EZ (V/m) @ t=0.62
0.6462952036370275
% es.tEX (V/m) @ t=0.62
-0.5666951081608307
% es.tEY (V/m) @ t=0.62
0
% es.tEZ (V/m) @ t=0.62
0.6462952036370382
% es.Ex (V/m) @ t=0.62
-0.5666951081608327
% es.Ey (V/m) @ t=0.62
0.12590288463448795
% es.Ez (V/m) @ t=0.62
0.6462952036370275
% es.tEx (V/m) @ t=0.62
-0.5666951081608307
% es.tEy (V/m) @ t=0.62
0
% es.tEz (V/m) @ t=0.62
0.6462952036370382
% V (V) @ t=0.62
0.008492927557614816
% es.normE (V/m) @ t=0.64
0.8858123883649757
% es.EX (V/m) @ t=0.64
-0.5720456348217142
% es.EY (V/m) @ t=0.64
0.1270913030560431
% es.EZ (V/m) @ t=0.64
0.6523971956819938
% es.tEX (V/m) @ t=0.64
-0.5720456348217122
% es.tEY (V/m) @ t=0.64
0
% es.tEZ (V/m) @ t=0.64
0.6523971956819938
% es.Ex (V/m) @ t=0.64
-0.5720456348217142
% es.Ey (V/m) @ t=0.64
0.1270913030560431
% es.Ez (V/m) @ t=0.64
0.6523971956819938
% es.tEx (V/m) @ t=0.64
-0.5720456348217122
% es.tEy (V/m) @ t=0.64
0
% es.tEz (V/m) @ t=0.64
0.6523971956819938
% V (V) @ t=0.64
0.00857312908295619
% es.normE (V/m) @ t=0.66
0.8940975330883053
% es.EX (V/m) @ t=0.66
-0.5773961614826031
% es.EY (V/m) @ t=0.66
0.12827972147759115
% es.EZ (V/m) @ t=0.66
0.6584991877269566
% es.tEX (V/m) @ t=0.66
-0.5773961614826011
% es.tEY (V/m) @ t=0.66
0
% es.tEZ (V/m) @ t=0.66
0.6584991877269673
% es.Ex (V/m) @ t=0.66
-0.5773961614826031
% es.Ey (V/m) @ t=0.66
0.12827972147759115
% es.Ez (V/m) @ t=0.66
0.6584991877269566
% es.tEx (V/m) @ t=0.66
-0.5773961614826011
% es.tEy (V/m) @ t=0.66
0
% es.tEz (V/m) @ t=0.66
0.6584991877269673
% V (V) @ t=0.66
0.008653330608297557
% es.normE (V/m) @ t=0.68
0.9023826778117796
% es.EX (V/m) @ t=0.68
-0.582746688143492
% es.EY (V/m) @ t=0.68
0.12946813989913825
% es.EZ (V/m) @ t=0.68
0.6646011797719105
% es.tEX (V/m) @ t=0.68
-0.5827466881434864
% es.tEY (V/m) @ t=0.68
0
% es.tEZ (V/m) @ t=0.68
0.6646011797719158
% es.Ex (V/m) @ t=0.68
-0.582746688143492
% es.Ey (V/m) @ t=0.68
0.12946813989913825
% es.Ez (V/m) @ t=0.68
0.6646011797719105
% es.tEx (V/m) @ t=0.68
-0.5827466881434864
% es.tEy (V/m) @ t=0.68
0
% es.tEz (V/m) @ t=0.68
0.6646011797719158
% V (V) @ t=0.68
0.00873353213363893
% es.normE (V/m) @ t=0.7
0.9106678225354075
% es.EX (V/m) @ t=0.7
-0.5880972148043802
% es.EY (V/m) @ t=0.7
0.1306565583206764
% es.EZ (V/m) @ t=0.7
0.670703171816883
% es.tEX (V/m) @ t=0.7
-0.5880972148043782
% es.tEY (V/m) @ t=0.7
0
% es.tEZ (V/m) @ t=0.7
0.670703171816883
% es.Ex (V/m) @ t=0.7
-0.5880972148043802
% es.Ey (V/m) @ t=0.7
0.1306565583206764
% es.Ez (V/m) @ t=0.7
0.670703171816883
% es.tEx (V/m) @ t=0.7
-0.5880972148043782
% es.tEy (V/m) @ t=0.7
0
% es.tEz (V/m) @ t=0.7
0.670703171816883
% V (V) @ t=0.7
0.008813733658980302
% es.normE (V/m) @ t=0.72
0.9189529672591636
% es.EX (V/m) @ t=0.72
-0.5934477414652655
% es.EY (V/m) @ t=0.72
0.13184497674222712
% es.EZ (V/m) @ t=0.72
0.6768051638618386
% es.tEX (V/m) @ t=0.72
-0.5934477414652635
% es.tEY (V/m) @ t=0.72
0
% es.tEZ (V/m) @ t=0.72
0.6768051638618457
% es.Ex (V/m) @ t=0.72
-0.5934477414652655
% es.Ey (V/m) @ t=0.72
0.13184497674222712
% es.Ez (V/m) @ t=0.72
0.6768051638618386
% es.tEx (V/m) @ t=0.72
-0.5934477414652635
% es.tEy (V/m) @ t=0.72
0
% es.tEz (V/m) @ t=0.72
0.6768051638618457
% V (V) @ t=0.72
0.008893935184321673
% es.normE (V/m) @ t=0.74
0.9272381119830606
% es.EX (V/m) @ t=0.74
-0.5987982681261537
% es.EY (V/m) @ t=0.74
0.13303339516377416
% es.EZ (V/m) @ t=0.74
0.6829071559067987
% es.tEX (V/m) @ t=0.74
-0.5987982681261514
% es.tEY (V/m) @ t=0.74
0
% es.tEZ (V/m) @ t=0.74
0.6829071559068094
% es.Ex (V/m) @ t=0.74
-0.5987982681261537
% es.Ey (V/m) @ t=0.74
0.13303339516377416
% es.Ez (V/m) @ t=0.74
0.6829071559067987
% es.tEx (V/m) @ t=0.74
-0.5987982681261514
% es.tEy (V/m) @ t=0.74
0
% es.tEz (V/m) @ t=0.74
0.6829071559068094
% V (V) @ t=0.74
0.008974136709663046
% es.normE (V/m) @ t=0.76
0.9355232567071001
% es.EX (V/m) @ t=0.76
-0.604148794787043
% es.EY (V/m) @ t=0.76
0.13422181358531415
% es.EZ (V/m) @ t=0.76
0.6890091479517721
% es.tEX (V/m) @ t=0.76
-0.6041487947870408
% es.tEY (V/m) @ t=0.76
0
% es.tEZ (V/m) @ t=0.76
0.6890091479517686
% es.Ex (V/m) @ t=0.76
-0.604148794787043
% es.Ey (V/m) @ t=0.76
0.13422181358531415
% es.Ez (V/m) @ t=0.76
0.6890091479517721
% es.tEx (V/m) @ t=0.76
-0.6041487947870408
% es.tEy (V/m) @ t=0.76
0
% es.tEz (V/m) @ t=0.76
0.6890091479517686
% V (V) @ t=0.76
0.009054338235004416
% es.normE (V/m) @ t=0.78
0.9438084014312611
% es.EX (V/m) @ t=0.78
-0.6094993214479352
% es.EY (V/m) @ t=0.78
0.1354102320068693
% es.EZ (V/m) @ t=0.78
0.6951111399967278
% es.tEX (V/m) @ t=0.78
-0.609499321447933
% es.tEY (V/m) @ t=0.78
0
% es.tEZ (V/m) @ t=0.78
0.6951111399967314
% es.Ex (V/m) @ t=0.78
-0.6094993214479352
% es.Ey (V/m) @ t=0.78
0.1354102320068693
% es.Ez (V/m) @ t=0.78
0.6951111399967278
% es.tEx (V/m) @ t=0.78
-0.609499321447933
% es.tEy (V/m) @ t=0.78
0
% es.tEz (V/m) @ t=0.78
0.6951111399967314
% V (V) @ t=0.78
0.009134539760345789
% es.normE (V/m) @ t=0.8
0.9520935461555433
% es.EX (V/m) @ t=0.8
-0.6148498481088236
% es.EY (V/m) @ t=0.8
0.136598650428419
% es.EZ (V/m) @ t=0.8
0.7012131320416808
% es.tEX (V/m) @ t=0.8
-0.6148498481088214
% es.tEY (V/m) @ t=0.8
0
% es.tEZ (V/m) @ t=0.8
0.701213132041695
% es.Ex (V/m) @ t=0.8
-0.6148498481088236
% es.Ey (V/m) @ t=0.8
0.136598650428419
% es.Ez (V/m) @ t=0.8
0.7012131320416808
% es.tEx (V/m) @ t=0.8
-0.6148498481088214
% es.tEy (V/m) @ t=0.8
0
% es.tEz (V/m) @ t=0.8
0.701213132041695
% V (V) @ t=0.8
0.00921474128568716
% es.normE (V/m) @ t=0.82
0.9604457512280333
% es.EX (V/m) @ t=0.82
-0.6202436749936822
% es.EY (V/m) @ t=0.82
0.13779671018360307
% es.EZ (V/m) @ t=0.82
0.7073645126091517
% es.tEX (V/m) @ t=0.82
-0.6202436749936799
% es.tEY (V/m) @ t=0.82
0
% es.tEZ (V/m) @ t=0.82
0.7073645126091561
% es.Ex (V/m) @ t=0.82
-0.6202436749936822
% es.Ey (V/m) @ t=0.82
0.13779671018360307
% es.Ez (V/m) @ t=0.82
0.7073645126091517
% es.tEx (V/m) @ t=0.82
-0.6202436749936799
% es.tEy (V/m) @ t=0.82
0
% es.tEz (V/m) @ t=0.82
0.7073645126091561
% V (V) @ t=0.82
0.009295590747656322
% es.normE (V/m) @ t=0.84
0.9697106616420059
% es.EX (V/m) @ t=0.84
-0.626226826969088
% es.EY (V/m) @ t=0.84
0.13912599050314312
% es.EZ (V/m) @ t=0.84
0.7141880812815833
% es.tEX (V/m) @ t=0.84
-0.6262268269690896
% es.tEY (V/m) @ t=0.84
0
% es.tEZ (V/m) @ t=0.84
0.7141880812815904
% es.Ex (V/m) @ t=0.84
-0.626226826969088
% es.Ey (V/m) @ t=0.84
0.13912599050314312
% es.Ez (V/m) @ t=0.84
0.7141880812815833
% es.tEx (V/m) @ t=0.84
-0.6262268269690896
% es.tEy (V/m) @ t=0.84
0
% es.tEz (V/m) @ t=0.84
0.7141880812815904
% V (V) @ t=0.84
0.009385258762436463
% es.normE (V/m) @ t=0.86
0.9789755720559674
% es.EX (V/m) @ t=0.86
-0.6322099789444979
% es.EY (V/m) @ t=0.86
0.14045527082267872
% es.EZ (V/m) @ t=0.86
0.7210116499539936
% es.tEX (V/m) @ t=0.86
-0.6322099789444957
% es.tEY (V/m) @ t=0.86
0
% es.tEZ (V/m) @ t=0.86
0.7210116499540087
% es.Ex (V/m) @ t=0.86
-0.6322099789444979
% es.Ey (V/m) @ t=0.86
0.14045527082267872
% es.Ez (V/m) @ t=0.86
0.7210116499539936
% es.tEx (V/m) @ t=0.86
-0.6322099789444957
% es.tEy (V/m) @ t=0.86
0
% es.tEz (V/m) @ t=0.86
0.7210116499540087
% V (V) @ t=0.86
0.009474926777216605
% es.normE (V/m) @ t=0.88
0.9882404824699471
% es.EX (V/m) @ t=0.88
-0.6381931309199071
% es.EY (V/m) @ t=0.88
0.14178455114221344
% es.EZ (V/m) @ t=0.88
0.7278352186264261
% es.tEX (V/m) @ t=0.88
-0.6381931309199049
% es.tEY (V/m) @ t=0.88
0
% es.tEZ (V/m) @ t=0.88
0.7278352186264261
% es.Ex (V/m) @ t=0.88
-0.6381931309199071
% es.Ey (V/m) @ t=0.88
0.14178455114221344
% es.Ez (V/m) @ t=0.88
0.7278352186264261
% es.tEx (V/m) @ t=0.88
-0.6381931309199049
% es.tEy (V/m) @ t=0.88
0
% es.tEz (V/m) @ t=0.88
0.7278352186264261
% V (V) @ t=0.88
0.009564594791996745
% es.normE (V/m) @ t=0.9
0.9975053928839199
% es.EX (V/m) @ t=0.9
-0.6441762828953201
% es.EY (V/m) @ t=0.9
0.14311383146173384
% es.EZ (V/m) @ t=0.9
0.7346587872988506
% es.tEX (V/m) @ t=0.9
-0.6441762828953179
% es.tEY (V/m) @ t=0.9
0
% es.tEZ (V/m) @ t=0.9
0.7346587872988515
% es.Ex (V/m) @ t=0.9
-0.6441762828953201
% es.Ey (V/m) @ t=0.9
0.14311383146173384
% es.Ez (V/m) @ t=0.9
0.7346587872988506
% es.tEx (V/m) @ t=0.9
-0.6441762828953179
% es.tEy (V/m) @ t=0.9
0
% es.tEz (V/m) @ t=0.9
0.7346587872988515
% V (V) @ t=0.9
0.009654262806776889
% es.normE (V/m) @ t=0.92
1.0067703032978854
% es.EX (V/m) @ t=0.92
-0.6501594348707227
% es.EY (V/m) @ t=0.92
0.144443111781266
% es.EZ (V/m) @ t=0.92
0.741482355971268
% es.tEX (V/m) @ t=0.92
-0.650159434870724
% es.tEY (V/m) @ t=0.92
0
% es.tEZ (V/m) @ t=0.92
0.741482355971276
% es.Ex (V/m) @ t=0.92
-0.6501594348707227
% es.Ey (V/m) @ t=0.92
0.144443111781266
% es.Ez (V/m) @ t=0.92
0.741482355971268
% es.tEx (V/m) @ t=0.92
-0.650159434870724
% es.tEy (V/m) @ t=0.92
0
% es.tEz (V/m) @ t=0.92
0.741482355971276
% V (V) @ t=0.92
0.009743930821557032
% es.normE (V/m) @ t=0.94
1.0160352137118633
% es.EX (V/m) @ t=0.94
-0.6561425868461324
% es.EY (V/m) @ t=0.94
0.14577239210080695
% es.EZ (V/m) @ t=0.94
0.7483059246436925
% es.tEX (V/m) @ t=0.94
-0.6561425868461337
% es.tEY (V/m) @ t=0.94
0
% es.tEZ (V/m) @ t=0.94
0.7483059246437005
% es.Ex (V/m) @ t=0.94
-0.6561425868461324
% es.Ey (V/m) @ t=0.94
0.14577239210080695
% es.Ez (V/m) @ t=0.94
0.7483059246436925
% es.tEx (V/m) @ t=0.94
-0.6561425868461337
% es.tEy (V/m) @ t=0.94
0
% es.tEz (V/m) @ t=0.94
0.7483059246437005
% V (V) @ t=0.94
0.009833598836337172
% es.normE (V/m) @ t=0.96
1.0253001241258402
% es.EX (V/m) @ t=0.96
-0.6621257388215462
% es.EY (V/m) @ t=0.96
0.14710167242034522
% es.EZ (V/m) @ t=0.96
0.7551294933161135
% es.tEX (V/m) @ t=0.96
-0.662125738821544
% es.tEY (V/m) @ t=0.96
0
% es.tEZ (V/m) @ t=0.96
0.755129493316125
% es.Ex (V/m) @ t=0.96
-0.6621257388215462
% es.Ey (V/m) @ t=0.96
0.14710167242034522
% es.Ez (V/m) @ t=0.96
0.7551294933161135
% es.tEx (V/m) @ t=0.96
-0.662125738821544
% es.tEy (V/m) @ t=0.96
0
% es.tEz (V/m) @ t=0.96
0.755129493316125
% V (V) @ t=0.96
0.009923266851117314
% es.normE (V/m) @ t=0.98
1.0345650345398163
% es.EX (V/m) @ t=0.98
-0.6681088907969484
% es.EY (V/m) @ t=0.98
0.14843095273987106
% es.EZ (V/m) @ t=0.98
0.7619530619885415
% es.tEX (V/m) @ t=0.98
-0.6681088907969459
% es.tEY (V/m) @ t=0.98
0
% es.tEZ (V/m) @ t=0.98
0.7619530619885495
% es.Ex (V/m) @ t=0.98
-0.6681088907969484
% es.Ey (V/m) @ t=0.98
0.14843095273987106
% es.Ez (V/m) @ t=0.98
0.7619530619885415
% es.tEx (V/m) @ t=0.98
-0.6681088907969459
% es.tEy (V/m) @ t=0.98
0
% es.tEz (V/m) @ t=0.98
0.7619530619885495
% V (V) @ t=0.98
0.010012934865897457
% es.normE (V/m) @ t=1
1.0438299449537944
% es.EX (V/m) @ t=1
-0.6740920427723578
% es.EY (V/m) @ t=1
0.14976023305940656
% es.EZ (V/m) @ t=1
0.7687766306609634
% es.tEX (V/m) @ t=1
-0.6740920427723591
% es.tEY (V/m) @ t=1
0
% es.tEZ (V/m) @ t=1
0.7687766306609749
% es.Ex (V/m) @ t=1
-0.6740920427723578
% es.Ey (V/m) @ t=1
0.14976023305940656
% es.Ez (V/m) @ t=1
0.7687766306609634
% es.tEx (V/m) @ t=1
-0.6740920427723591
% es.tEy (V/m) @ t=1
0
% es.tEz (V/m) @ t=1
0.7687766306609749
% V (V) @ t=1
0.010102602880677599
% es.normE (V/m) @ t=1.02
1.0530948553677675
% es.EX (V/m) @ t=1.02
-0.6800751947477677
% es.EY (V/m) @ t=1.02
0.1510895133789414
% es.EZ (V/m) @ t=1.02
0.7756001993333763
% es.tEX (V/m) @ t=1.02
-0.6800751947477688
% es.tEY (V/m) @ t=1.02
0
% es.tEZ (V/m) @ t=1.02
0.7756001993333914
% es.Ex (V/m) @ t=1.02
-0.6800751947477677
% es.Ey (V/m) @ t=1.02
0.1510895133789414
% es.Ez (V/m) @ t=1.02
0.7756001993333763
% es.tEx (V/m) @ t=1.02
-0.6800751947477688
% es.tEy (V/m) @ t=1.02
0
% es.tEz (V/m) @ t=1.02
0.7756001993333914
% V (V) @ t=1.02
0.01019227089545774
% es.normE (V/m) @ t=1.04
1.062359765781753
% es.EX (V/m) @ t=1.04
-0.6860583467231771
% es.EY (V/m) @ t=1.04
0.15241879369847433