% Model:              1 neuron.mph
% Version:            COMSOL 6.1.0.252
% Date:               Mar 18 2023, 13:28
% Dimension:          0
% Nodes:              14017
% Expressions:        14017
% Description:        Electric field norm, Electric field, X component, Electric field, Y component, Electric field, Z component, Tangential electric field, X component, Tangential electric field, Y component, Tangential electric field, Z component, Electric field, x component, Electric field, y component, Electric field, z component, Tangential electric field, x component, Tangential electric field, y component, Tangential electric field, z component, Electric potential
% Length unit:        mm
% x
1
% y
12.2
% z
1
% es.normE (V/m) @ t=0
1.2127885209208151
% es.EX (V/m) @ t=0
0.8234983678717995
% es.EY (V/m) @ t=0
0.23388415249244332
% es.EZ (V/m) @ t=0
0.8367127945713317
% es.tEX (V/m) @ t=0
0.8234983678718066
% es.tEY (V/m) @ t=0
0
% es.tEZ (V/m) @ t=0
0.8367127945713264
% es.Ex (V/m) @ t=0
0.8234983678717995
% es.Ey (V/m) @ t=0
0.23388415249244332
% es.Ez (V/m) @ t=0
0.8367127945713317
% es.tEx (V/m) @ t=0
0.8234983678718066
% es.tEy (V/m) @ t=0
0
% es.tEz (V/m) @ t=0
0.8367127945713264
% V (V) @ t=0
0.011372667926722594
% es.normE (V/m) @ t=0.02
1.0474986693803836
% es.EX (V/m) @ t=0.02
0.7112645191768614
% es.EY (V/m) @ t=0.02
0.2020082932754157
% es.EZ (V/m) @ t=0.02
0.7226779639160004
% es.tEX (V/m) @ t=0.02
0.7112645191768792
% es.tEY (V/m) @ t=0.02
0
% es.tEZ (V/m) @ t=0.02
0.7226779639159844
% es.Ex (V/m) @ t=0.02
0.7112645191768614
% es.Ey (V/m) @ t=0.02
0.2020082932754157
% es.Ez (V/m) @ t=0.02
0.7226779639160004
% es.tEx (V/m) @ t=0.02
0.7112645191768792
% es.tEy (V/m) @ t=0.02
0
% es.tEz (V/m) @ t=0.02
0.7226779639159844
% V (V) @ t=0.02
0.009822697238153178
% es.normE (V/m) @ t=0.04
1.0571356731838573
% es.EX (V/m) @ t=0.04
0.7178081630433226
% es.EY (V/m) @ t=0.04
0.2038667738615434
% es.EZ (V/m) @ t=0.04
0.7293266122178164
% es.tEX (V/m) @ t=0.04
0.7178081630433155
% es.tEY (V/m) @ t=0.04
0
% es.tEZ (V/m) @ t=0.04
0.7293266122177968
% es.Ex (V/m) @ t=0.04
0.7178081630433226
% es.Ey (V/m) @ t=0.04
0.2038667738615434
% es.Ez (V/m) @ t=0.04
0.7293266122178164
% es.tEx (V/m) @ t=0.04
0.7178081630433155
% es.tEy (V/m) @ t=0.04
0
% es.tEz (V/m) @ t=0.04
0.7293266122177968
% V (V) @ t=0.04
0.009913066103885457
% es.normE (V/m) @ t=0.06
1.0668483049928836
% es.EX (V/m) @ t=0.06
0.7244031595676077
% es.EY (V/m) @ t=0.06
0.20573983848119148
% es.EZ (V/m) @ t=0.06
0.7360274369561468
% es.tEX (V/m) @ t=0.06
0.7244031595676148
% es.tEY (V/m) @ t=0.06
0
% es.tEZ (V/m) @ t=0.06
0.7360274369561353
% es.Ex (V/m) @ t=0.06
0.7244031595676077
% es.Ey (V/m) @ t=0.06
0.20573983848119148
% es.Ez (V/m) @ t=0.06
0.7360274369561468
% es.tEx (V/m) @ t=0.06
0.7244031595676148
% es.tEy (V/m) @ t=0.06
0
% es.tEz (V/m) @ t=0.06
0.7360274369561353
% V (V) @ t=0.06
0.010004144208043393
% es.normE (V/m) @ t=0.08
1.0767351514172654
% es.EX (V/m) @ t=0.08
0.7311164490655209
% es.EY (V/m) @ t=0.08
0.20764650207029156
% es.EZ (V/m) @ t=0.08
0.7428484536348998
% es.tEX (V/m) @ t=0.08
0.7311164490655244
% es.tEY (V/m) @ t=0.08
0
% es.tEZ (V/m) @ t=0.08
0.7428484536348847
% es.Ex (V/m) @ t=0.08
0.7311164490655209
% es.Ey (V/m) @ t=0.08
0.20764650207029156
% es.Ez (V/m) @ t=0.08
0.7428484536348998
% es.tEx (V/m) @ t=0.08
0.7311164490655244
% es.tEy (V/m) @ t=0.08
0
% es.tEz (V/m) @ t=0.08
0.7428484536348847
% V (V) @ t=0.08
0.01009685581523588
% es.normE (V/m) @ t=0.1
1.0866890492816186
% es.EX (V/m) @ t=0.1
0.737875266972182
% es.EY (V/m) @ t=0.1
0.20956609717655006
% es.EZ (V/m) @ t=0.1
0.7497157295937038
% es.tEX (V/m) @ t=0.1
0.737875266972182
% es.tEY (V/m) @ t=0.1
0
% es.tEZ (V/m) @ t=0.1
0.7497157295936887
% es.Ex (V/m) @ t=0.1
0.737875266972182
% es.Ey (V/m) @ t=0.1
0.20956609717655006
% es.Ez (V/m) @ t=0.1
0.7497157295937038
% es.tEx (V/m) @ t=0.1
0.737875266972182
% es.tEy (V/m) @ t=0.1
0
% es.tEz (V/m) @ t=0.1
0.7497157295936887
% V (V) @ t=0.1
0.01019019612244031
% es.normE (V/m) @ t=0.12
1.0966429471460417
% es.EX (V/m) @ t=0.12
0.7446340848789106
% es.EY (V/m) @ t=0.12
0.2114856922827979
% es.EZ (V/m) @ t=0.12
0.7565830055525442
% es.tEX (V/m) @ t=0.12
0.7446340848788822
% es.tEY (V/m) @ t=0.12
0
% es.tEZ (V/m) @ t=0.12
0.7565830055525282
% es.Ex (V/m) @ t=0.12
0.7446340848789106
% es.Ey (V/m) @ t=0.12
0.2114856922827979
% es.Ez (V/m) @ t=0.12
0.7565830055525442
% es.tEx (V/m) @ t=0.12
0.7446340848788822
% es.tEy (V/m) @ t=0.12
0
% es.tEz (V/m) @ t=0.12
0.7565830055525282
% V (V) @ t=0.12
0.010283536429644743
% es.normE (V/m) @ t=0.14
1.106827979408279
% es.EX (V/m) @ t=0.14
0.7515498475886879
% es.EY (V/m) @ t=0.14
0.21344985761408708
% es.EZ (V/m) @ t=0.14
0.7636097432909681
% es.tEX (V/m) @ t=0.14
0.7515498475886631
% es.tEY (V/m) @ t=0.14
0
% es.tEZ (V/m) @ t=0.14
0.7636097432909636
% es.Ex (V/m) @ t=0.14
0.7515498475886879
% es.Ey (V/m) @ t=0.14
0.21344985761408708
% es.Ez (V/m) @ t=0.14
0.7636097432909681
% es.tEx (V/m) @ t=0.14
0.7515498475886631
% es.tEy (V/m) @ t=0.14
0
% es.tEz (V/m) @ t=0.14
0.7636097432909636
% V (V) @ t=0.14
0.010379044443864654
% es.normE (V/m) @ t=0.16
1.1172912696016466
% es.EX (V/m) @ t=0.16
0.7586545529076787
% es.EY (V/m) @ t=0.16
0.21546768011936202
% es.EZ (V/m) @ t=0.16
0.7708284537747065
% es.tEX (V/m) @ t=0.16
0.7586545529076716
% es.tEY (V/m) @ t=0.16
0
% es.tEZ (V/m) @ t=0.16
0.7708284537746906
% es.Ex (V/m) @ t=0.16
0.7586545529076787
% es.Ey (V/m) @ t=0.16
0.21546768011936202
% es.Ez (V/m) @ t=0.16
0.7708284537747065
% es.tEx (V/m) @ t=0.16
0.7586545529076716
% es.tEy (V/m) @ t=0.16
0
% es.tEz (V/m) @ t=0.16
0.7708284537746906
% V (V) @ t=0.16
0.010477162115820372
% es.normE (V/m) @ t=0.18
1.127754559795041
% es.EX (V/m) @ t=0.18
0.7657592582266624
% es.EY (V/m) @ t=0.18
0.21748550262468136
% es.EZ (V/m) @ t=0.18
0.7780471642584672
% es.tEX (V/m) @ t=0.18
0.7657592582266375
% es.tEY (V/m) @ t=0.18
0
% es.tEZ (V/m) @ t=0.18
0.778047164258453
% es.Ex (V/m) @ t=0.18
0.7657592582266624
% es.Ey (V/m) @ t=0.18
0.21748550262468136
% es.Ez (V/m) @ t=0.18
0.7780471642584672
% es.tEx (V/m) @ t=0.18
0.7657592582266375
% es.tEy (V/m) @ t=0.18
0
% es.tEz (V/m) @ t=0.18
0.778047164258453
% V (V) @ t=0.18
0.010575279787776098
% es.normE (V/m) @ t=0.2
1.1382178499883888
% es.EX (V/m) @ t=0.2
0.772863963545614
% es.EY (V/m) @ t=0.2
0.21950332512994208
% es.EZ (V/m) @ t=0.2
0.7852658747422163
% es.tEX (V/m) @ t=0.2
0.7728639635456176
% es.tEY (V/m) @ t=0.2
0
% es.tEZ (V/m) @ t=0.2
0.7852658747421941
% es.Ex (V/m) @ t=0.2
0.772863963545614
% es.Ey (V/m) @ t=0.2
0.21950332512994208
% es.Ez (V/m) @ t=0.2
0.7852658747422163
% es.tEx (V/m) @ t=0.2
0.7728639635456176
% es.tEy (V/m) @ t=0.2
0
% es.tEz (V/m) @ t=0.2
0.7852658747421941
% V (V) @ t=0.2
0.01067339745973182
% es.normE (V/m) @ t=0.22
1.1486811401817483
% es.EX (V/m) @ t=0.22
0.7799686688646155
% es.EY (V/m) @ t=0.22
0.22152114763523834
% es.EZ (V/m) @ t=0.22
0.7924845852259246
% es.tEX (V/m) @ t=0.22
0.7799686688646119
% es.tEY (V/m) @ t=0.22
0
% es.tEZ (V/m) @ t=0.22
0.7924845852259139
% es.Ex (V/m) @ t=0.22
0.7799686688646155
% es.Ey (V/m) @ t=0.22
0.22152114763523834
% es.Ez (V/m) @ t=0.22
0.7924845852259246
% es.tEx (V/m) @ t=0.22
0.7799686688646119
% es.tEy (V/m) @ t=0.22
0
% es.tEz (V/m) @ t=0.22
0.7924845852259139
% V (V) @ t=0.22
0.010771515131687542
% es.normE (V/m) @ t=0.24
1.1591444303751195
% es.EX (V/m) @ t=0.24
0.7870733741835885
% es.EY (V/m) @ t=0.24
0.22353897014052926
% es.EZ (V/m) @ t=0.24
0.7997032957096764
% es.tEX (V/m) @ t=0.24
0.7870733741835778
% es.tEY (V/m) @ t=0.24
0
% es.tEZ (V/m) @ t=0.24
0.7997032957096621
% es.Ex (V/m) @ t=0.24
0.7870733741835885
% es.Ey (V/m) @ t=0.24
0.22353897014052926
% es.Ez (V/m) @ t=0.24
0.7997032957096764
% es.tEx (V/m) @ t=0.24
0.7870733741835778
% es.tEy (V/m) @ t=0.24
0
% es.tEz (V/m) @ t=0.24
0.7997032957096621
% V (V) @ t=0.24
0.010869632803643264
% es.normE (V/m) @ t=0.26
1.1696077205685138
% es.EX (V/m) @ t=0.26
0.7941780795026041
% es.EY (V/m) @ t=0.26
0.22555679264582018
% es.EZ (V/m) @ t=0.26
0.8069220061934157
% es.tEX (V/m) @ t=0.26
0.7941780795025721
% es.tEY (V/m) @ t=0.26
0
% es.tEZ (V/m) @ t=0.26
0.8069220061934104
% es.Ex (V/m) @ t=0.26
0.7941780795026041
% es.Ey (V/m) @ t=0.26
0.22555679264582018
% es.Ez (V/m) @ t=0.26
0.8069220061934157
% es.tEx (V/m) @ t=0.26
0.7941780795025721
% es.tEy (V/m) @ t=0.26
0
% es.tEz (V/m) @ t=0.26
0.8069220061934104
% V (V) @ t=0.26
0.010967750475598986
% es.normE (V/m) @ t=0.28
1.1811177163184865
% es.EX (V/m) @ t=0.28
0.8019936198688988
% es.EY (V/m) @ t=0.28
0.22777621690307015
% es.EZ (V/m) @ t=0.28
0.814862872386116
% es.tEX (V/m) @ t=0.28
0.8019936198689237
% es.tEY (V/m) @ t=0.28
0
% es.tEZ (V/m) @ t=0.28
0.8148628723861009
% es.Ex (V/m) @ t=0.28
0.8019936198688988
% es.Ey (V/m) @ t=0.28
0.22777621690307015
% es.Ez (V/m) @ t=0.28
0.814862872386116
% es.tEx (V/m) @ t=0.28
0.8019936198689237
% es.tEy (V/m) @ t=0.28
0
% es.tEz (V/m) @ t=0.28
0.8148628723861009
% V (V) @ t=0.28
0.011075702810947063
% es.normE (V/m) @ t=0.3
1.1927223700202125
% es.EX (V/m) @ t=0.3
0.809873444015043
% es.EY (V/m) @ t=0.3
0.23001387284800856
% es.EZ (V/m) @ t=0.3
0.8228690461332722
% es.tEX (V/m) @ t=0.3
0.809873444015011
% es.tEY (V/m) @ t=0.3
0
% es.tEZ (V/m) @ t=0.3
0.8228690461332633
% es.Ex (V/m) @ t=0.3
0.809873444015043
% es.Ey (V/m) @ t=0.3
0.23001387284800856
% es.Ez (V/m) @ t=0.3
0.8228690461332722
% es.tEx (V/m) @ t=0.3
0.809873444015011
% es.tEy (V/m) @ t=0.3
0
% es.tEz (V/m) @ t=0.3
0.8228690461332633
% V (V) @ t=0.3
0.011184544535947603
% es.normE (V/m) @ t=0.32
1.2043270237220272
% es.EX (V/m) @ t=0.32
0.8177532681611126
% es.EY (V/m) @ t=0.32
0.23225152879295585
% es.EZ (V/m) @ t=0.32
0.8308752198804221
% es.tEX (V/m) @ t=0.32
0.8177532681611126
% es.tEY (V/m) @ t=0.32
0
% es.tEZ (V/m) @ t=0.32
0.8308752198804115
% es.Ex (V/m) @ t=0.32
0.8177532681611126
% es.Ey (V/m) @ t=0.32
0.23225152879295585
% es.Ez (V/m) @ t=0.32
0.8308752198804221
% es.tEx (V/m) @ t=0.32
0.8177532681611126
% es.tEy (V/m) @ t=0.32
0
% es.tEz (V/m) @ t=0.32
0.8308752198804115
% V (V) @ t=0.32
0.01129338626094815
% es.normE (V/m) @ t=0.34
1.2159316774240332
% es.EX (V/m) @ t=0.34
0.825633092307271
% es.EY (V/m) @ t=0.34
0.23448918473791025
% es.EZ (V/m) @ t=0.34
0.8388813936275676
% es.tEX (V/m) @ t=0.34
0.8256330923072568
% es.tEY (V/m) @ t=0.34
0
% es.tEZ (V/m) @ t=0.34
0.8388813936275596
% es.Ex (V/m) @ t=0.34
0.825633092307271
% es.Ey (V/m) @ t=0.34
0.23448918473791025
% es.Ez (V/m) @ t=0.34
0.8388813936275676
% es.tEx (V/m) @ t=0.34
0.8256330923072568
% es.tEy (V/m) @ t=0.34
0
% es.tEz (V/m) @ t=0.34
0.8388813936275596
% V (V) @ t=0.34
0.011402227985948695
% es.normE (V/m) @ t=0.36
1.2275363311261511
% es.EX (V/m) @ t=0.36
0.8335129164533868
% es.EY (V/m) @ t=0.36
0.23672684068285044
% es.EZ (V/m) @ t=0.36
0.8468875673747247
% es.tEX (V/m) @ t=0.36
0.833512916453401
% es.tEY (V/m) @ t=0.36
0
% es.tEZ (V/m) @ t=0.36
0.8468875673747149
% es.Ex (V/m) @ t=0.36
0.8335129164533868
% es.Ey (V/m) @ t=0.36
0.23672684068285044
% es.Ez (V/m) @ t=0.36
0.8468875673747247
% es.tEx (V/m) @ t=0.36
0.833512916453401
% es.tEy (V/m) @ t=0.36
0
% es.tEz (V/m) @ t=0.36
0.8468875673747149
% V (V) @ t=0.36
0.011511069710949237
% es.normE (V/m) @ t=0.38
1.2391409848283883
% es.EX (V/m) @ t=0.38
0.8413927405994777
% es.EY (V/m) @ t=0.38
0.23896449662782082
% es.EZ (V/m) @ t=0.38
0.8548937411218853
% es.tEX (V/m) @ t=0.38
0.8413927405994599
% es.tEY (V/m) @ t=0.38
0
% es.tEZ (V/m) @ t=0.38
0.8548937411218631
% es.Ex (V/m) @ t=0.38
0.8413927405994777
% es.Ey (V/m) @ t=0.38
0.23896449662782082
% es.Ez (V/m) @ t=0.38
0.8548937411218853
% es.tEx (V/m) @ t=0.38
0.8413927405994599
% es.tEy (V/m) @ t=0.38
0
% es.tEz (V/m) @ t=0.38
0.8548937411218631
% V (V) @ t=0.38
0.011619911435949783
% es.normE (V/m) @ t=0.4
1.25074563853079
% es.EX (V/m) @ t=0.4
0.8492725647456218
% es.EY (V/m) @ t=0.4
0.24120215257279298
% es.EZ (V/m) @ t=0.4
0.8628999148690539
% es.tEX (V/m) @ t=0.4
0.8492725647456041
% es.tEY (V/m) @ t=0.4
0
% es.tEZ (V/m) @ t=0.4
0.8628999148690397
% es.Ex (V/m) @ t=0.4
0.8492725647456218
% es.Ey (V/m) @ t=0.4
0.24120215257279298
% es.Ez (V/m) @ t=0.4
0.8628999148690539
% es.tEx (V/m) @ t=0.4
0.8492725647456041
% es.tEy (V/m) @ t=0.4
0
% es.tEz (V/m) @ t=0.4
0.8628999148690397
% V (V) @ t=0.4
0.011728753160950327
% es.normE (V/m) @ t=0.42
1.2623502922332388
% es.EX (V/m) @ t=0.42
0.857152388891695
% es.EY (V/m) @ t=0.42
0.24343980851776514
% es.EZ (V/m) @ t=0.42
0.8709060886161897
% es.tEX (V/m) @ t=0.42
0.8571523888916772
% es.tEY (V/m) @ t=0.42
0
% es.tEZ (V/m) @ t=0.42
0.8709060886161737
% es.Ex (V/m) @ t=0.42
0.857152388891695
% es.Ey (V/m) @ t=0.42
0.24343980851776514
% es.Ez (V/m) @ t=0.42
0.8709060886161897
% es.tEx (V/m) @ t=0.42
0.8571523888916772
% es.tEy (V/m) @ t=0.42
0
% es.tEz (V/m) @ t=0.42
0.8709060886161737
% V (V) @ t=0.42
0.011837594885950868
% es.normE (V/m) @ t=0.44
1.2739549459358213
% es.EX (V/m) @ t=0.44
0.8650322130378072
% es.EY (V/m) @ t=0.44
0.24567746446266803
% es.EZ (V/m) @ t=0.44
0.8789122623633299
% es.tEX (V/m) @ t=0.44
0.8650322130378356
% es.tEY (V/m) @ t=0.44
0
% es.tEZ (V/m) @ t=0.44
0.8789122623633219
% es.Ex (V/m) @ t=0.44
0.8650322130378072
% es.Ey (V/m) @ t=0.44
0.24567746446266803
% es.Ez (V/m) @ t=0.44
0.8789122623633299
% es.tEx (V/m) @ t=0.44
0.8650322130378356
% es.tEy (V/m) @ t=0.44
0
% es.tEz (V/m) @ t=0.44
0.8789122623633219
% V (V) @ t=0.44
0.011946436610951414
% es.normE (V/m) @ t=0.46
1.285559599638567
% es.EX (V/m) @ t=0.46
0.8729120371839194
% es.EY (V/m) @ t=0.46
0.24791512040770058
% es.EZ (V/m) @ t=0.46
0.8869184361104869
% es.tEX (V/m) @ t=0.46
0.8729120371838803
% es.tEY (V/m) @ t=0.46
0
% es.tEZ (V/m) @ t=0.46
0.88691843611047
% es.Ex (V/m) @ t=0.46
0.8729120371839194
% es.Ey (V/m) @ t=0.46
0.24791512040770058
% es.Ez (V/m) @ t=0.46
0.8869184361104869
% es.tEx (V/m) @ t=0.46
0.8729120371838803
% es.tEy (V/m) @ t=0.46
0
% es.tEz (V/m) @ t=0.46
0.88691843611047
% V (V) @ t=0.46
0.012055278335951956
% es.normE (V/m) @ t=0.48
1.2971642533413885
% es.EX (V/m) @ t=0.48
0.8807918613300281
% es.EY (V/m) @ t=0.48
0.25015277635258215
% es.EZ (V/m) @ t=0.48
0.8949246098576564
% es.tEX (V/m) @ t=0.48
0.8807918613300529
% es.tEY (V/m) @ t=0.48
0
% es.tEZ (V/m) @ t=0.48
0.8949246098576396
% es.Ex (V/m) @ t=0.48
0.8807918613300281
% es.Ey (V/m) @ t=0.48
0.25015277635258215
% es.Ez (V/m) @ t=0.48
0.8949246098576564
% es.tEx (V/m) @ t=0.48
0.8807918613300529
% es.tEy (V/m) @ t=0.48
0
% es.tEz (V/m) @ t=0.48
0.8949246098576396
% V (V) @ t=0.48
0.012164120060952502
% es.normE (V/m) @ t=0.5
1.308768907044343
% es.EX (V/m) @ t=0.5
0.8886716854761261
% es.EY (V/m) @ t=0.5
0.2523904322976005
% es.EZ (V/m) @ t=0.5
0.9029307836048197
% es.tEX (V/m) @ t=0.5
0.8886716854760977
% es.tEY (V/m) @ t=0.5
0
% es.tEZ (V/m) @ t=0.5
0.9029307836047948
% es.Ex (V/m) @ t=0.5
0.8886716854761261
% es.Ey (V/m) @ t=0.5
0.2523904322976005
% es.Ez (V/m) @ t=0.5
0.9029307836048197
% es.tEx (V/m) @ t=0.5
0.8886716854760977
% es.tEy (V/m) @ t=0.5
0
% es.tEz (V/m) @ t=0.5
0.9029307836047948
% V (V) @ t=0.5
0.012272961785953048
% es.normE (V/m) @ t=0.52
1.3203735607474112
% es.EX (V/m) @ t=0.52
0.8965515096222632
% es.EY (V/m) @ t=0.52
0.2546280882425762
% es.EZ (V/m) @ t=0.52
0.9109369573519768
% es.tEX (V/m) @ t=0.52
0.8965515096222418
% es.tEY (V/m) @ t=0.52
0
% es.tEZ (V/m) @ t=0.52
0.9109369573519643
% es.Ex (V/m) @ t=0.52
0.8965515096222632
% es.Ey (V/m) @ t=0.52
0.2546280882425762
% es.Ez (V/m) @ t=0.52
0.9109369573519768
% es.tEx (V/m) @ t=0.52
0.8965515096222418
% es.tEy (V/m) @ t=0.52
0
% es.tEz (V/m) @ t=0.52
0.9109369573519643
% V (V) @ t=0.52
0.01238180351095359
% es.normE (V/m) @ t=0.54
1.3330605365492034
% es.EX (V/m) @ t=0.54
0.9051660188952333
% es.EY (V/m) @ t=0.54
0.2570749914387811
% es.EZ (V/m) @ t=0.54
0.9196897825234647
% es.tEX (V/m) @ t=0.54
0.9051660188952155
% es.tEY (V/m) @ t=0.54
0
% es.tEZ (V/m) @ t=0.54
0.9196897825234558
% es.Ex (V/m) @ t=0.54
0.9051660188952333
% es.Ey (V/m) @ t=0.54
0.2570749914387811
% es.Ez (V/m) @ t=0.54
0.9196897825234647
% es.tEx (V/m) @ t=0.54
0.9051660188952155
% es.tEy (V/m) @ t=0.54
0
% es.tEz (V/m) @ t=0.54
0.9196897825234558
% V (V) @ t=0.54
0.012500754463029094
% es.normE (V/m) @ t=0.56
1.3459480077144064
% es.EX (V/m) @ t=0.56
0.9139166253259212
% es.EY (V/m) @ t=0.56
0.2595606567591737
% es.EZ (V/m) @ t=0.56
0.928580921556124
% es.tEX (V/m) @ t=0.56
0.9139166253258963
% es.tEY (V/m) @ t=0.56
0
% es.tEZ (V/m) @ t=0.56
0.9285809215561187
% es.Ex (V/m) @ t=0.56
0.9139166253259212
% es.Ey (V/m) @ t=0.56
0.2595606567591737
% es.Ez (V/m) @ t=0.56
0.928580921556124
% es.tEx (V/m) @ t=0.56
0.9139166253258963
% es.tEy (V/m) @ t=0.56
0
% es.tEz (V/m) @ t=0.56
0.9285809215561187
% V (V) @ t=0.56
0.01262157810453424
% es.normE (V/m) @ t=0.58
1.3588354788798163
% es.EX (V/m) @ t=0.58
0.9226672317565701
% es.EY (V/m) @ t=0.58
0.26204632207955925
% es.EZ (V/m) @ t=0.58
0.9374720605887958
% es.tEX (V/m) @ t=0.58
0.922667231756563
% es.tEY (V/m) @ t=0.58
0
% es.tEZ (V/m) @ t=0.58
0.9374720605887887
% es.Ex (V/m) @ t=0.58
0.9226672317565701
% es.Ey (V/m) @ t=0.58
0.26204632207955925
% es.Ez (V/m) @ t=0.58
0.9374720605887958
% es.tEx (V/m) @ t=0.58
0.922667231756563
% es.tEy (V/m) @ t=0.58
0
% es.tEz (V/m) @ t=0.58
0.9374720605887887
% V (V) @ t=0.58
0.012742401746039387
% es.normE (V/m) @ t=0.6
1.371722950045473
% es.EX (V/m) @ t=0.6
0.9314178381872473
% es.EY (V/m) @ t=0.6
0.26453198739997674
% es.EZ (V/m) @ t=0.6
0.9463631996214836
% es.tEX (V/m) @ t=0.6
0.931417838187258
% es.tEY (V/m) @ t=0.6
0
% es.tEZ (V/m) @ t=0.6
0.9463631996214659
% es.Ex (V/m) @ t=0.6
0.9314178381872473
% es.Ey (V/m) @ t=0.6
0.26453198739997674
% es.Ez (V/m) @ t=0.6
0.9463631996214836
% es.tEx (V/m) @ t=0.6
0.931417838187258
% es.tEy (V/m) @ t=0.6
0
% es.tEz (V/m) @ t=0.6
0.9463631996214659
% V (V) @ t=0.6
0.012863225387544537
% es.normE (V/m) @ t=0.62
1.38461042121128
% es.EX (V/m) @ t=0.62
0.9401684446178571
% es.EY (V/m) @ t=0.62
0.26701765272046885
% es.EZ (V/m) @ t=0.62
0.9552543386541235
% es.tEX (V/m) @ t=0.62
0.9401684446178677
% es.tEY (V/m) @ t=0.62
0
% es.tEZ (V/m) @ t=0.62
0.9552543386541004
% es.Ex (V/m) @ t=0.62
0.9401684446178571
% es.Ey (V/m) @ t=0.62
0.26701765272046885
% es.Ez (V/m) @ t=0.62
0.9552543386541235
% es.tEx (V/m) @ t=0.62
0.9401684446178677
% es.tEy (V/m) @ t=0.62
0
% es.tEz (V/m) @ t=0.62
0.9552543386541004
% V (V) @ t=0.62
0.012984049029049682
% es.normE (V/m) @ t=0.64
1.3974978923773436
% es.EX (V/m) @ t=0.64
0.9489190510485557
% es.EY (V/m) @ t=0.64
0.2695033180408384
% es.EZ (V/m) @ t=0.64
0.9641454776868059
% es.tEX (V/m) @ t=0.64
0.9489190510485486
% es.tEY (V/m) @ t=0.64
0
% es.tEZ (V/m) @ t=0.64
0.9641454776867846
% es.Ex (V/m) @ t=0.64
0.9489190510485557
% es.Ey (V/m) @ t=0.64
0.2695033180408384
% es.Ez (V/m) @ t=0.64
0.9641454776868059
% es.tEx (V/m) @ t=0.64
0.9489190510485486
% es.tEy (V/m) @ t=0.64
0
% es.tEz (V/m) @ t=0.64
0.9641454776867846
% V (V) @ t=0.64
0.01310487267055483
% es.normE (V/m) @ t=0.66
1.4103853635435577
% es.EX (V/m) @ t=0.66
0.957669657479169
% es.EY (V/m) @ t=0.66
0.27198898336128785
% es.EZ (V/m) @ t=0.66
0.9730366167194688
% es.tEX (V/m) @ t=0.66
0.9576696574791583
% es.tEY (V/m) @ t=0.66
0
% es.tEZ (V/m) @ t=0.66
0.9730366167194546
% es.Ex (V/m) @ t=0.66
0.957669657479169
% es.Ey (V/m) @ t=0.66
0.27198898336128785
% es.Ez (V/m) @ t=0.66
0.9730366167194688
% es.tEx (V/m) @ t=0.66
0.9576696574791583
% es.tEy (V/m) @ t=0.66
0
% es.tEz (V/m) @ t=0.66
0.9730366167194546
% V (V) @ t=0.66
0.013225696312059977
% es.normE (V/m) @ t=0.68
1.4232728347099854
% es.EX (V/m) @ t=0.68
0.9664202639098214
% es.EY (V/m) @ t=0.68
0.274474648681732
% es.EZ (V/m) @ t=0.68
0.9819277557521335
% es.tEX (V/m) @ t=0.68
0.9664202639098107
% es.tEY (V/m) @ t=0.68
0
% es.tEZ (V/m) @ t=0.68
0.9819277557521175
% es.Ex (V/m) @ t=0.68
0.9664202639098214
% es.Ey (V/m) @ t=0.68
0.274474648681732
% es.Ez (V/m) @ t=0.68
0.9819277557521335
% es.tEx (V/m) @ t=0.68
0.9664202639098107
% es.tEy (V/m) @ t=0.68
0
% es.tEz (V/m) @ t=0.68
0.9819277557521175
% V (V) @ t=0.68
0.013346519953565124
% es.normE (V/m) @ t=0.7
1.4361603058766481
% es.EX (V/m) @ t=0.7
0.9751708703405377
% es.EY (V/m) @ t=0.7
0.27696031400216725
% es.EZ (V/m) @ t=0.7
0.990818894784816
% es.tEX (V/m) @ t=0.7
0.97517087034052
% es.tEY (V/m) @ t=0.7
0
% es.tEZ (V/m) @ t=0.7
0.9908188947848018
% es.Ex (V/m) @ t=0.7
0.9751708703405377
% es.Ey (V/m) @ t=0.7
0.27696031400216725
% es.Ez (V/m) @ t=0.7
0.990818894784816
% es.tEx (V/m) @ t=0.7
0.97517087034052
% es.tEy (V/m) @ t=0.7
0
% es.tEz (V/m) @ t=0.7
0.9908188947848018
% V (V) @ t=0.7
0.013467343595070272
% es.normE (V/m) @ t=0.72
1.4490477770434063
% es.EX (V/m) @ t=0.72
0.9839214767711546
% es.EY (V/m) @ t=0.72
0.2794459793226096
% es.EZ (V/m) @ t=0.72
0.9997100338174558
% es.tEX (V/m) @ t=0.72
0.9839214767711439
% es.tEY (V/m) @ t=0.72
0
% es.tEZ (V/m) @ t=0.72
0.9997100338174363
% es.Ex (V/m) @ t=0.72
0.9839214767711546
% es.Ey (V/m) @ t=0.72
0.2794459793226096
% es.Ez (V/m) @ t=0.72
0.9997100338174558
% es.tEx (V/m) @ t=0.72
0.9839214767711439
% es.tEy (V/m) @ t=0.72
0
% es.tEz (V/m) @ t=0.72
0.9997100338174363
% V (V) @ t=0.72
0.013588167236575419
% es.normE (V/m) @ t=0.74
1.4619352482104122
% es.EX (V/m) @ t=0.74
0.9926720832018638
% es.EY (V/m) @ t=0.74
0.28193164464295073
% es.EZ (V/m) @ t=0.74
1.0086011728501472
% es.tEX (V/m) @ t=0.74
0.992672083201839
% es.tEY (V/m) @ t=0.74
0
% es.tEZ (V/m) @ t=0.74
1.0086011728501347
% es.Ex (V/m) @ t=0.74
0.9926720832018638
% es.Ey (V/m) @ t=0.74
0.28193164464295073
% es.Ez (V/m) @ t=0.74
1.0086011728501472
% es.tEx (V/m) @ t=0.74
0.992672083201839
% es.tEy (V/m) @ t=0.74
0
% es.tEz (V/m) @ t=0.74
1.0086011728501347
% V (V) @ t=0.74
0.013708990878080567
% es.normE (V/m) @ t=0.76
1.4748227193775514
% es.EX (V/m) @ t=0.76
1.001422689632527
% es.EY (V/m) @ t=0.76
0.28441730996337
% es.EZ (V/m) @ t=0.76
1.0174923118828065
% es.tEX (V/m) @ t=0.76
1.0014226896325198
% es.tEY (V/m) @ t=0.76
0
% es.tEZ (V/m) @ t=0.76
1.0174923118827905
% es.Ex (V/m) @ t=0.76
1.001422689632527
% es.Ey (V/m) @ t=0.76
0.28441730996337
% es.Ez (V/m) @ t=0.76
1.0174923118828065
% es.tEx (V/m) @ t=0.76
1.0014226896325198
% es.tEy (V/m) @ t=0.76
0
% es.tEz (V/m) @ t=0.76
1.0174923118827905
% V (V) @ t=0.76
0.013829814519585716
% es.normE (V/m) @ t=0.78
1.4877101905448393
% es.EX (V/m) @ t=0.78
1.0101732960631225
% es.EY (V/m) @ t=0.78
0.28690297528387276
% es.EZ (V/m) @ t=0.78
1.026383450915473
% es.tEX (V/m) @ t=0.78
1.0101732960631011
% es.tEY (V/m) @ t=0.78
0
% es.tEZ (V/m) @ t=0.78
1.0263834509154535
% es.Ex (V/m) @ t=0.78
1.0101732960631225
% es.Ey (V/m) @ t=0.78
0.28690297528387276
% es.Ez (V/m) @ t=0.78
1.026383450915473
% es.tEx (V/m) @ t=0.78
1.0101732960631011
% es.tEy (V/m) @ t=0.78
0
% es.tEz (V/m) @ t=0.78
1.0263834509154535
% V (V) @ t=0.78
0.01395063816109086
% es.normE (V/m) @ t=0.8
1.5017167626815109
% es.EX (V/m) @ t=0.8
1.0196838523125678
% es.EY (V/m) @ t=0.8
0.28960432166869765
% es.EZ (V/m) @ t=0.8
1.0360466738927663
% es.tEX (V/m) @ t=0.8
1.0196838523125393
% es.tEY (V/m) @ t=0.8
0
% es.tEZ (V/m) @ t=0.8
1.0360466738927485
% es.Ex (V/m) @ t=0.8
1.0196838523125678
% es.Ey (V/m) @ t=0.8
0.28960432166869765
% es.Ez (V/m) @ t=0.8
1.0360466738927663
% es.tEx (V/m) @ t=0.8
1.0196838523125393
% es.tEy (V/m) @ t=0.8
0
% es.tEz (V/m) @ t=0.8
1.0360466738927485
% V (V) @ t=0.8
0.014081967273414646
% es.normE (V/m) @ t=0.82
1.516056954916508
% es.EX (V/m) @ t=0.82
1.0294209605356102
% es.EY (V/m) @ t=0.82
0.2923699656815195
% es.EZ (V/m) @ t=0.82
1.045940066201167
% es.tEX (V/m) @ t=0.82
1.029420960535603
% es.tEY (V/m) @ t=0.82
0
% es.tEZ (V/m) @ t=0.82
1.0459400662011475
% es.Ex (V/m) @ t=0.82
1.0294209605356102
% es.Ey (V/m) @ t=0.82
0.2923699656815195
% es.Ez (V/m) @ t=0.82
1.045940066201167
% es.tEx (V/m) @ t=0.82
1.029420960535603
% es.tEy (V/m) @ t=0.82
0
% es.tEz (V/m) @ t=0.82
1.0459400662011475
% V (V) @ t=0.82
0.014216428217720928
% es.normE (V/m) @ t=0.84
1.5303971471514821
% es.EX (V/m) @ t=0.84
1.0391580687585602
% es.EY (V/m) @ t=0.84
0.2951356096944515
% es.EZ (V/m) @ t=0.84
1.0558334585095341
% es.tEX (V/m) @ t=0.84
1.0391580687585673
% es.tEY (V/m) @ t=0.84
0
% es.tEZ (V/m) @ t=0.84
1.055833458509511
% es.Ex (V/m) @ t=0.84
1.0391580687585602
% es.Ey (V/m) @ t=0.84
0.2951356096944515
% es.Ez (V/m) @ t=0.84
1.0558334585095341
% es.tEx (V/m) @ t=0.84
1.0391580687585673
% es.tEy (V/m) @ t=0.84
0
% es.tEz (V/m) @ t=0.84
1.055833458509511
% V (V) @ t=0.84
0.01435088916202721
% es.normE (V/m) @ t=0.86
1.5447373393865504
% es.EX (V/m) @ t=0.86
1.0488951769816026
% es.EY (V/m) @ t=0.86
0.29790125370735154
% es.EZ (V/m) @ t=0.86
1.06572685081791
% es.tEX (V/m) @ t=0.86
1.0488951769816026
% es.tEY (V/m) @ t=0.86
0
% es.tEZ (V/m) @ t=0.86
1.0657268508178959
% es.Ex (V/m) @ t=0.86
1.0488951769816026
% es.Ey (V/m) @ t=0.86
0.29790125370735154
% es.Ez (V/m) @ t=0.86
1.06572685081791
% es.tEx (V/m) @ t=0.86
1.0488951769816026
% es.tEy (V/m) @ t=0.86
0
% es.tEz (V/m) @ t=0.86
1.0657268508178959
% V (V) @ t=0.86
0.014485350106333495
% es.normE (V/m) @ t=0.88
1.5590775316216219
% es.EX (V/m) @ t=0.88
1.0586322852046308
% es.EY (V/m) @ t=0.88
0.3006668977202267
% es.EZ (V/m) @ t=0.88
1.075620243126295
% es.tEX (V/m) @ t=0.88
1.0586322852046095
% es.tEY (V/m) @ t=0.88
0
% es.tEZ (V/m) @ t=0.88
1.0756202431262736
% es.Ex (V/m) @ t=0.88
1.0586322852046308
% es.Ey (V/m) @ t=0.88
0.3006668977202267
% es.Ez (V/m) @ t=0.88
1.075620243126295
% es.tEx (V/m) @ t=0.88
1.0586322852046095
% es.tEy (V/m) @ t=0.88
0
% es.tEz (V/m) @ t=0.88
1.0756202431262736
% V (V) @ t=0.88
0.014619811050639777
% es.normE (V/m) @ t=0.9
1.573417723856735
% es.EX (V/m) @ t=0.9
1.0683693934276697
% es.EY (V/m) @ t=0.9
0.30343254173308765
% es.EZ (V/m) @ t=0.9
1.0855136354346655
% es.tEX (V/m) @ t=0.9
1.0683693934276448
% es.tEY (V/m) @ t=0.9
0
% es.tEZ (V/m) @ t=0.9
1.0855136354346513
% es.Ex (V/m) @ t=0.9
1.0683693934276697
% es.Ey (V/m) @ t=0.9
0.30343254173308765
% es.Ez (V/m) @ t=0.9
1.0855136354346655
% es.tEx (V/m) @ t=0.9
1.0683693934276448
% es.tEy (V/m) @ t=0.9
0
% es.tEz (V/m) @ t=0.9
1.0855136354346513
% V (V) @ t=0.9
0.014754271994946059
% es.normE (V/m) @ t=0.92
1.5877579160918016
% es.EX (V/m) @ t=0.92
1.0781065016505949
% es.EY (V/m) @ t=0.92
0.3061981857460374
% es.EZ (V/m) @ t=0.92
1.0954070277430237
% es.tEX (V/m) @ t=0.92
1.078106501650609
% es.tEY (V/m) @ t=0.92
0
% es.tEZ (V/m) @ t=0.92
1.0954070277430077
% es.Ex (V/m) @ t=0.92
1.0781065016505949
% es.Ey (V/m) @ t=0.92
0.3061981857460374
% es.Ez (V/m) @ t=0.92
1.0954070277430237
% es.tEx (V/m) @ t=0.92
1.078106501650609
% es.tEy (V/m) @ t=0.92
0
% es.tEz (V/m) @ t=0.92
1.0954070277430077
% V (V) @ t=0.92
0.014888732939252344
% es.normE (V/m) @ t=0.94
1.6020981083269676
% es.EX (V/m) @ t=0.94
1.0878436098736266
% es.EY (V/m) @ t=0.94
0.30896382975893744
% es.EZ (V/m) @ t=0.94
1.1053004200513943
% es.tEX (V/m) @ t=0.94
1.0878436098736017
% es.tEY (V/m) @ t=0.94
0
% es.tEZ (V/m) @ t=0.94
1.1053004200513854
% es.Ex (V/m) @ t=0.94
1.0878436098736266
% es.Ey (V/m) @ t=0.94
0.30896382975893744
% es.Ez (V/m) @ t=0.94
1.1053004200513943
% es.tEx (V/m) @ t=0.94
1.0878436098736017
% es.tEy (V/m) @ t=0.94
0
% es.tEz (V/m) @ t=0.94
1.1053004200513854
% V (V) @ t=0.94
0.015023193883558626
% es.normE (V/m) @ t=0.96
1.616438300562155
% es.EX (V/m) @ t=0.96
1.0975807180966655
% es.EY (V/m) @ t=0.96
0.31172947377178417
% es.EZ (V/m) @ t=0.96
1.1151938123597684
% es.tEX (V/m) @ t=0.96
1.0975807180966513
% es.tEY (V/m) @ t=0.96
0
% es.tEZ (V/m) @ t=0.96
1.115193812359756
% es.Ex (V/m) @ t=0.96
1.0975807180966655
% es.Ey (V/m) @ t=0.96
0.31172947377178417
% es.Ez (V/m) @ t=0.96
1.1151938123597684
% es.tEx (V/m) @ t=0.96
1.0975807180966513
% es.tEy (V/m) @ t=0.96
0
% es.tEz (V/m) @ t=0.96
1.115193812359756
% V (V) @ t=0.96
0.015157654827864908
% es.normE (V/m) @ t=0.98
1.6307784927973765
% es.EX (V/m) @ t=0.98
1.1073178263196723
% es.EY (V/m) @ t=0.98
0.3144951177847304
% es.EZ (V/m) @ t=0.98
1.1250872046681533
% es.tEX (V/m) @ t=0.98
1.1073178263196155
% es.tEY (V/m) @ t=0.98
0
% es.tEZ (V/m) @ t=0.98
1.1250872046681337
% es.Ex (V/m) @ t=0.98
1.1073178263196723
% es.Ey (V/m) @ t=0.98
0.3144951177847304
% es.Ez (V/m) @ t=0.98
1.1250872046681533
% es.tEx (V/m) @ t=0.98
1.1073178263196155
% es.tEy (V/m) @ t=0.98
0
% es.tEz (V/m) @ t=0.98
1.1250872046681337
% V (V) @ t=0.98
0.015292115772171194
% es.normE (V/m) @ t=1
1.6451186850325974
% es.EX (V/m) @ t=1
1.1170549345426863
% es.EY (V/m) @ t=1
0.31726076179757356
% es.EZ (V/m) @ t=1
1.1349805969765256
% es.tEX (V/m) @ t=1
1.117054934542665
% es.tEY (V/m) @ t=1
0
% es.tEZ (V/m) @ t=1
1.1349805969765043
% es.Ex (V/m) @ t=1
1.1170549345426863
% es.Ey (V/m) @ t=1
0.31726076179757356
% es.Ez (V/m) @ t=1
1.1349805969765256
% es.tEx (V/m) @ t=1
1.117054934542665
% es.tEy (V/m) @ t=1
0
% es.tEz (V/m) @ t=1
1.1349805969765043
% V (V) @ t=1
0.015426576716477475
% es.normE (V/m) @ t=1.02
1.6594588772678587
% es.EX (V/m) @ t=1.02
1.1267920427656932
% es.EY (V/m) @ t=1.02
0.3200264058104345
% es.EZ (V/m) @ t=1.02
1.14487398928493
% es.tEX (V/m) @ t=1.02
1.1267920427656861
% es.tEY (V/m) @ t=1.02
0
% es.tEZ (V/m) @ t=1.02
1.1448739892849105
% es.Ex (V/m) @ t=1.02
1.1267920427656932
% es.Ey (V/m) @ t=1.02
0.3200264058104345
% es.Ez (V/m) @ t=1.02
1.14487398928493
% es.tEx (V/m) @ t=1.02
1.1267920427656861
% es.tEy (V/m) @ t=1.02
0
% es.tEz (V/m) @ t=1.02
1.1448739892849105
% V (V) @ t=1.02
0.01556103766078376
% es.normE (V/m) @ t=1.04
1.6737990695031377
% es.EX (V/m) @ t=1.04
1.1365291509887072
% es.EY (V/m) @ t=1.04
0.3227920498233736
% es.EZ (V/m) @ t=1.04
1.1547673815932846
% es.tEX (V/m) @ t=1.04
1.1365291509886788
% es.tEY (V/m) @ t=1.04
0
% es.tEZ (V/m) @ t=1.04
1.1547673815932669
% es.Ex (V/m) @ t=1.04
1.1365291509887072
% es.Ey (V/m) @ t=1.04
0.3227920498233736
% es.Ez (V/m) @ t=1.04
1.1547673815932846
% es.tEx (V/m) @ t=1.04