% Model:              1 neuron.mph
% Version:            COMSOL 6.0.0.405
% Date:               Mar 16 2023, 18:13
% Dimension:          0
% Nodes:              14017
% Expressions:        14017
% Description:        Electric field norm, Electric field, X component, Electric field, Y component, Electric field, Z component, Tangential electric field, X component, Tangential electric field, Y component, Tangential electric field, Z component, Electric field, x component, Electric field, y component, Electric field, z component, Tangential electric field, x component, Tangential electric field, y component, Tangential electric field, z component, Electric potential
% Length unit:        mm
% x
1
% y
12.2
% z
1.6599999999999997
% es.normE (V/m) @ t=0
2.3843400863465236
% es.EX (V/m) @ t=0
2.1344843297918805
% es.EY (V/m) @ t=0
0.08212479846323084
% es.EZ (V/m) @ t=0
-1.0593912092974624
% es.tEX (V/m) @ t=0
2.1344843297918716
% es.tEY (V/m) @ t=0
0
% es.tEZ (V/m) @ t=0
-1.0593912092974378
% es.Ex (V/m) @ t=0
2.1344843297918805
% es.Ey (V/m) @ t=0
0.08212479846323084
% es.Ez (V/m) @ t=0
-1.0593912092974624
% es.tEx (V/m) @ t=0
2.1344843297918716
% es.tEy (V/m) @ t=0
0
% es.tEz (V/m) @ t=0
-1.0593912092974378
% V (V) @ t=0
0.010817737191411372
% es.normE (V/m) @ t=0.02
2.0594025937439984
% es.EX (V/m) @ t=0.02
1.843597140522744
% es.EY (V/m) @ t=0.02
0.07093284403259492
% es.EZ (V/m) @ t=0.02
-0.9150175414922377
% es.tEX (V/m) @ t=0.02
1.8435971405227365
% es.tEY (V/m) @ t=0.02
0
% es.tEZ (V/m) @ t=0.02
-0.9150175414922259
% es.Ex (V/m) @ t=0.02
1.843597140522744
% es.Ey (V/m) @ t=0.02
0.07093284403259492
% es.Ez (V/m) @ t=0.02
-0.9150175414922377
% es.tEx (V/m) @ t=0.02
1.8435971405227365
% es.tEy (V/m) @ t=0.02
0
% es.tEz (V/m) @ t=0.02
-0.9150175414922259
% V (V) @ t=0.02
0.009343497657117278
% es.normE (V/m) @ t=0.04
2.0783496615365866
% es.EX (V/m) @ t=0.04
1.86055873895912
% es.EY (V/m) @ t=0.04
0.07158544529710917
% es.EZ (V/m) @ t=0.04
-0.9234359536457727
% es.tEX (V/m) @ t=0.04
1.860558738959111
% es.tEY (V/m) @ t=0.04
0
% es.tEZ (V/m) @ t=0.04
-0.9234359536457717
% es.Ex (V/m) @ t=0.04
1.86055873895912
% es.Ey (V/m) @ t=0.04
0.07158544529710917
% es.Ez (V/m) @ t=0.04
-0.9234359536457727
% es.tEx (V/m) @ t=0.04
1.860558738959111
% es.tEy (V/m) @ t=0.04
0
% es.tEz (V/m) @ t=0.04
-0.9234359536457717
% V (V) @ t=0.04
0.00942946040705977
% es.normE (V/m) @ t=0.06
2.097450798133928
% es.EX (V/m) @ t=0.06
1.8776582608412236
% es.EY (V/m) @ t=0.06
0.07224335167107027
% es.EZ (V/m) @ t=0.06
-0.9319228214434037
% es.tEX (V/m) @ t=0.06
1.8776582608412165
% es.tEY (V/m) @ t=0.06
0
% es.tEZ (V/m) @ t=0.06
-0.9319228214433934
% es.Ex (V/m) @ t=0.06
1.8776582608412236
% es.Ey (V/m) @ t=0.06
0.07224335167107027
% es.Ez (V/m) @ t=0.06
-0.9319228214434037
% es.tEx (V/m) @ t=0.06
1.8776582608412165
% es.tEy (V/m) @ t=0.06
0
% es.tEz (V/m) @ t=0.06
-0.9319228214433934
% V (V) @ t=0.06
0.009516122227728312
% es.normE (V/m) @ t=0.08
2.1168823681028357
% es.EX (V/m) @ t=0.08
1.8950535904739154
% es.EY (V/m) @ t=0.08
0.07291264139426018
% es.EZ (V/m) @ t=0.08
-0.9405565034285515
% es.tEX (V/m) @ t=0.08
1.8950535904739132
% es.tEY (V/m) @ t=0.08
0
% es.tEZ (V/m) @ t=0.08
-0.9405565034285459
% es.Ex (V/m) @ t=0.08
1.8950535904739154
% es.Ey (V/m) @ t=0.08
0.07291264139426018
% es.Ez (V/m) @ t=0.08
-0.9405565034285515
% es.tEx (V/m) @ t=0.08
1.8950535904739132
% es.tEy (V/m) @ t=0.08
0
% es.tEz (V/m) @ t=0.08
-0.9405565034285459
% V (V) @ t=0.08
0.009604283139178587
% es.normE (V/m) @ t=0.1
2.1364628847424907
% es.EX (V/m) @ t=0.1
1.912582258877512
% es.EY (V/m) @ t=0.1
0.07358706229398562
% es.EZ (V/m) @ t=0.1
-0.9492563636097703
% es.tEX (V/m) @ t=0.1
1.91258225887751
% es.tEY (V/m) @ t=0.1
0
% es.tEZ (V/m) @ t=0.1
-0.949256363609777
% es.Ex (V/m) @ t=0.1
1.912582258877512
% es.Ey (V/m) @ t=0.1
0.07358706229398562
% es.Ez (V/m) @ t=0.1
-0.9492563636097703
% es.tEx (V/m) @ t=0.1
1.91258225887751
% es.tEy (V/m) @ t=0.1
0
% es.tEz (V/m) @ t=0.1
-0.949256363609777
% V (V) @ t=0.1
0.009693119783167656
% es.normE (V/m) @ t=0.12
2.156043401382152
% es.EX (V/m) @ t=0.12
1.9301109272811137
% es.EY (V/m) @ t=0.12
0.07426148319370396
% es.EZ (V/m) @ t=0.12
-0.9579562237909928
% es.tEX (V/m) @ t=0.12
1.9301109272811088
% es.tEY (V/m) @ t=0.12
0
% es.tEZ (V/m) @ t=0.12
-0.957956223790994
% es.Ex (V/m) @ t=0.12
1.9301109272811137
% es.Ey (V/m) @ t=0.12
0.07426148319370396
% es.Ez (V/m) @ t=0.12
-0.9579562237909928
% es.tEx (V/m) @ t=0.12
1.9301109272811088
% es.tEy (V/m) @ t=0.12
0
% es.tEz (V/m) @ t=0.12
-0.957956223790994
% V (V) @ t=0.12
0.009781956427156728
% es.normE (V/m) @ t=0.14
2.1760170680660407
% es.EX (V/m) @ t=0.14
1.9479915468964677
% es.EY (V/m) @ t=0.14
0.07494944371348311
% es.EZ (V/m) @ t=0.14
-0.9668307664796932
% es.tEX (V/m) @ t=0.14
1.9479915468964641
% es.tEY (V/m) @ t=0.14
0
% es.tEZ (V/m) @ t=0.14
-0.9668307664797027
% es.Ex (V/m) @ t=0.14
1.9479915468964677
% es.Ey (V/m) @ t=0.14
0.07494944371348311
% es.Ez (V/m) @ t=0.14
-0.9668307664796932
% es.tEx (V/m) @ t=0.14
1.9479915468964641
% es.tEy (V/m) @ t=0.14
0
% es.tEz (V/m) @ t=0.14
-0.9668307664797027
% V (V) @ t=0.14
0.00987257686260822
% es.normE (V/m) @ t=0.16
2.1966101865905716
% es.EX (V/m) @ t=0.16
1.9664267049867379
% es.EY (V/m) @ t=0.16
0.0756587374180496
% es.EZ (V/m) @ t=0.16
-0.9759805409847709
% es.tEX (V/m) @ t=0.16
1.966426704986727
% es.tEY (V/m) @ t=0.16
0
% es.tEZ (V/m) @ t=0.16
-0.9759805409847502
% es.Ex (V/m) @ t=0.16
1.9664267049867379
% es.Ey (V/m) @ t=0.16
0.0756587374180496
% es.Ez (V/m) @ t=0.16
-0.9759805409847709
% es.tEx (V/m) @ t=0.16
1.966426704986727
% es.tEy (V/m) @ t=0.16
0
% es.tEz (V/m) @ t=0.16
-0.9759805409847502
% V (V) @ t=0.16
0.00996600786089946
% es.normE (V/m) @ t=0.18
2.2172033051151
% es.EX (V/m) @ t=0.18
1.9848618630770043
% es.EY (V/m) @ t=0.18
0.0763680311226285
% es.EZ (V/m) @ t=0.18
-0.9851303154898486
% es.tEX (V/m) @ t=0.18
1.9848618630770112
% es.tEY (V/m) @ t=0.18
0
% es.tEZ (V/m) @ t=0.18
-0.9851303154898474
% es.Ex (V/m) @ t=0.18
1.9848618630770043
% es.Ey (V/m) @ t=0.18
0.0763680311226285
% es.Ez (V/m) @ t=0.18
-0.9851303154898486
% es.tEx (V/m) @ t=0.18
1.9848618630770112
% es.tEy (V/m) @ t=0.18
0
% es.tEz (V/m) @ t=0.18
-0.9851303154898474
% V (V) @ t=0.18
0.010059438859190698
% es.normE (V/m) @ t=0.2
2.2377964236396335
% es.EX (V/m) @ t=0.2
2.0032970211672856
% es.EY (V/m) @ t=0.2
0.07707732482719762
% es.EZ (V/m) @ t=0.2
-0.9942800899949086
% es.tEX (V/m) @ t=0.2
2.003297021167282
% es.tEY (V/m) @ t=0.2
0
% es.tEZ (V/m) @ t=0.2
-0.9942800899949091
% es.Ex (V/m) @ t=0.2
2.0032970211672856
% es.Ey (V/m) @ t=0.2
0.07707732482719762
% es.Ez (V/m) @ t=0.2
-0.9942800899949086
% es.tEx (V/m) @ t=0.2
2.003297021167282
% es.tEy (V/m) @ t=0.2
0
% es.tEz (V/m) @ t=0.2
-0.9942800899949091
% V (V) @ t=0.2
0.01015286985748194
% es.normE (V/m) @ t=0.22
2.258389542164159
% es.EX (V/m) @ t=0.22
2.021732179257552
% es.EY (V/m) @ t=0.22
0.0777866185317943
% es.EZ (V/m) @ t=0.22
-1.0034298644999793
% es.tEX (V/m) @ t=0.22
2.021732179257559
% es.tEY (V/m) @ t=0.22
0
% es.tEZ (V/m) @ t=0.22
-1.003429864499978
% es.Ex (V/m) @ t=0.22
2.021732179257552
% es.Ey (V/m) @ t=0.22
0.0777866185317943
% es.Ez (V/m) @ t=0.22
-1.0034298644999793
% es.tEx (V/m) @ t=0.22
2.021732179257559
% es.tEy (V/m) @ t=0.22
0
% es.tEz (V/m) @ t=0.22
-1.003429864499978
% V (V) @ t=0.22
0.010246300855773181
% es.normE (V/m) @ t=0.24
2.2789826606887074
% es.EX (V/m) @ t=0.24
2.0401673373478366
% es.EY (V/m) @ t=0.24
0.0784959122363528
% es.EZ (V/m) @ t=0.24
-1.0125796390050676
% es.tEX (V/m) @ t=0.24
2.040167337347829
% es.tEY (V/m) @ t=0.24
0
% es.tEZ (V/m) @ t=0.24
-1.0125796390050539
% es.Ex (V/m) @ t=0.24
2.0401673373478366
% es.Ey (V/m) @ t=0.24
0.0784959122363528
% es.Ez (V/m) @ t=0.24
-1.0125796390050676
% es.tEx (V/m) @ t=0.24
2.040167337347829
% es.tEy (V/m) @ t=0.24
0
% es.tEz (V/m) @ t=0.24
-1.0125796390050539
% V (V) @ t=0.24
0.010339731854064421
% es.normE (V/m) @ t=0.26
2.299575779213228
% es.EX (V/m) @ t=0.26
2.0586024954381
% es.EY (V/m) @ t=0.26
0.07920520594092989
% es.EZ (V/m) @ t=0.26
-1.0217294135101347
% es.tEX (V/m) @ t=0.26
2.058602495438093
% es.tEY (V/m) @ t=0.26
0
% es.tEZ (V/m) @ t=0.26
-1.0217294135101227
% es.Ex (V/m) @ t=0.26
2.0586024954381
% es.Ey (V/m) @ t=0.26
0.07920520594092989
% es.Ez (V/m) @ t=0.26
-1.0217294135101347
% es.tEx (V/m) @ t=0.26
2.058602495438093
% es.tEy (V/m) @ t=0.26
0
% es.tEz (V/m) @ t=0.26
-1.0217294135101227
% V (V) @ t=0.26
0.01043316285235566
% es.normE (V/m) @ t=0.28
2.3219529215015315
% es.EX (V/m) @ t=0.28
2.078634696232747
% es.EY (V/m) @ t=0.28
0.07997583299426672
% es.EZ (V/m) @ t=0.28
-1.0316719260434708
% es.tEX (V/m) @ t=0.28
2.0786346962327418
% es.tEY (V/m) @ t=0.28
0
% es.tEZ (V/m) @ t=0.28
-1.0316719260434652
% es.Ex (V/m) @ t=0.28
2.078634696232747
% es.Ey (V/m) @ t=0.28
0.07997583299426672
% es.Ez (V/m) @ t=0.28
-1.0316719260434708
% es.tEx (V/m) @ t=0.28
2.0786346962327418
% es.tEy (V/m) @ t=0.28
0
% es.tEz (V/m) @ t=0.28
-1.0316719260434652
% V (V) @ t=0.28
0.010534692516454544
% es.normE (V/m) @ t=0.3
2.344815254685285
% es.EX (V/m) @ t=0.3
2.0991012357371766
% es.EY (V/m) @ t=0.3
0.08076314053300238
% es.EZ (V/m) @ t=0.3
-1.041830035073678
% es.tEX (V/m) @ t=0.3
2.099101235737173
% es.tEY (V/m) @ t=0.3
0
% es.tEZ (V/m) @ t=0.3
-1.04183003507368
% es.Ex (V/m) @ t=0.3
2.0991012357371766
% es.Ey (V/m) @ t=0.3
0.08076314053300238
% es.Ez (V/m) @ t=0.3
-1.041830035073678
% es.tEx (V/m) @ t=0.3
2.099101235737173
% es.tEy (V/m) @ t=0.3
0
% es.tEz (V/m) @ t=0.3
-1.04183003507368
% V (V) @ t=0.3
0.010638424729081511
% es.normE (V/m) @ t=0.32
2.367677587869024
% es.EX (V/m) @ t=0.32
2.119567775241585
% es.EY (V/m) @ t=0.32
0.08155044807171494
% es.EZ (V/m) @ t=0.32
-1.0519881441038672
% es.tEX (V/m) @ t=0.32
2.119567775241592
% es.tEY (V/m) @ t=0.32
0
% es.tEZ (V/m) @ t=0.32
-1.0519881441038592
% es.Ex (V/m) @ t=0.32
2.119567775241585
% es.Ey (V/m) @ t=0.32
0.08155044807171494
% es.Ez (V/m) @ t=0.32
-1.0519881441038672
% es.tEx (V/m) @ t=0.32
2.119567775241592
% es.tEy (V/m) @ t=0.32
0
% es.tEz (V/m) @ t=0.32
-1.0519881441038592
% V (V) @ t=0.32
0.010742156941708476
% es.normE (V/m) @ t=0.34
2.3905399210527802
% es.EX (V/m) @ t=0.34
2.140034314746001
% es.EY (V/m) @ t=0.34
0.0823377556104595
% es.EZ (V/m) @ t=0.34
-1.062146253134046
% es.tEX (V/m) @ t=0.34
2.1400343147460097
% es.tEY (V/m) @ t=0.34
0
% es.tEZ (V/m) @ t=0.34
-1.0621462531340455
% es.Ex (V/m) @ t=0.34
2.140034314746001
% es.Ey (V/m) @ t=0.34
0.0823377556104595
% es.Ez (V/m) @ t=0.34
-1.062146253134046
% es.tEx (V/m) @ t=0.34
2.1400343147460097
% es.tEy (V/m) @ t=0.34
0
% es.tEz (V/m) @ t=0.34
-1.0621462531340455
% V (V) @ t=0.34
0.010845889154335443
% es.normE (V/m) @ t=0.36
2.4134022542365763
% es.EX (V/m) @ t=0.36
2.16050085425043
% es.EY (V/m) @ t=0.36
0.08312506314917559
% es.EZ (V/m) @ t=0.36
-1.07230436216426
% es.tEX (V/m) @ t=0.36
2.1605008542504276
% es.tEY (V/m) @ t=0.36
0
% es.tEZ (V/m) @ t=0.36
-1.072304362164246
% es.Ex (V/m) @ t=0.36
2.16050085425043
% es.Ey (V/m) @ t=0.36
0.08312506314917559
% es.Ez (V/m) @ t=0.36
-1.07230436216426
% es.tEx (V/m) @ t=0.36
2.1605008542504276
% es.tEy (V/m) @ t=0.36
0
% es.tEz (V/m) @ t=0.36
-1.072304362164246
% V (V) @ t=0.36
0.010949621366962408
% es.normE (V/m) @ t=0.38
2.4362645874203803
% es.EX (V/m) @ t=0.38
2.1809673937548566
% es.EY (V/m) @ t=0.38
0.08391237068791396
% es.EZ (V/m) @ t=0.38
-1.082462471194467
% es.tEX (V/m) @ t=0.38
2.1809673937548526
% es.tEY (V/m) @ t=0.38
0
% es.tEZ (V/m) @ t=0.38
-1.0824624711944324
% es.Ex (V/m) @ t=0.38
2.1809673937548566
% es.Ey (V/m) @ t=0.38
0.08391237068791396
% es.Ez (V/m) @ t=0.38
-1.082462471194467
% es.tEx (V/m) @ t=0.38
2.1809673937548526
% es.tEy (V/m) @ t=0.38
0
% es.tEz (V/m) @ t=0.38
-1.0824624711944324
% V (V) @ t=0.38
0.011053353579589373
% es.normE (V/m) @ t=0.4
2.4591269206041684
% es.EX (V/m) @ t=0.4
2.201433933259275
% es.EY (V/m) @ t=0.4
0.08469967822663005
% es.EZ (V/m) @ t=0.4
-1.092620580224628
% es.tEX (V/m) @ t=0.4
2.2014339332592696
% es.tEY (V/m) @ t=0.4
0
% es.tEZ (V/m) @ t=0.4
-1.0926205802246258
% es.Ex (V/m) @ t=0.4
2.201433933259275
% es.Ey (V/m) @ t=0.4
0.08469967822663005
% es.Ez (V/m) @ t=0.4
-1.092620580224628
% es.tEx (V/m) @ t=0.4
2.2014339332592696
% es.tEy (V/m) @ t=0.4
0
% es.tEz (V/m) @ t=0.4
-1.0926205802246258
% V (V) @ t=0.4
0.011157085792216342
% es.normE (V/m) @ t=0.42
2.481989253787995
% es.EX (V/m) @ t=0.42
2.2219004727637004
% es.EY (V/m) @ t=0.42
0.08548698576535857
% es.EZ (V/m) @ t=0.42
-1.102778689254835
% es.tEX (V/m) @ t=0.42
2.2219004727636937
% es.tEY (V/m) @ t=0.42
0
% es.tEZ (V/m) @ t=0.42
-1.1027786892548548
% es.Ex (V/m) @ t=0.42
2.2219004727637004
% es.Ey (V/m) @ t=0.42
0.08548698576535857
% es.Ez (V/m) @ t=0.42
-1.102778689254835
% es.tEx (V/m) @ t=0.42
2.2219004727636937
% es.tEy (V/m) @ t=0.42
0
% es.tEz (V/m) @ t=0.42
-1.1027786892548548
% V (V) @ t=0.42
0.011260818004843309
% es.normE (V/m) @ t=0.44
2.504851586971804
% es.EX (V/m) @ t=0.44
2.2423670122681028
% es.EY (V/m) @ t=0.44
0.08627429330408978
% es.EZ (V/m) @ t=0.44
-1.1129367982850207
% es.tEX (V/m) @ t=0.44
2.2423670122681063
% es.tEY (V/m) @ t=0.44
0
% es.tEZ (V/m) @ t=0.44
-1.1129367982850198
% es.Ex (V/m) @ t=0.44
2.2423670122681028
% es.Ey (V/m) @ t=0.44
0.08627429330408978
% es.Ez (V/m) @ t=0.44
-1.1129367982850207
% es.tEx (V/m) @ t=0.44
2.2423670122681063
% es.tEy (V/m) @ t=0.44
0
% es.tEz (V/m) @ t=0.44
-1.1129367982850198
% V (V) @ t=0.44
0.011364550217470274
% es.normE (V/m) @ t=0.46
2.5277139201556555
% es.EX (V/m) @ t=0.46
2.2628335517725353
% es.EY (V/m) @ t=0.46
0.08706160084282011
% es.EZ (V/m) @ t=0.46
-1.1230949073152172
% es.tEX (V/m) @ t=0.46
2.2628335517725375
% es.tEY (V/m) @ t=0.46
0
% es.tEZ (V/m) @ t=0.46
-1.1230949073152274
% es.Ex (V/m) @ t=0.46
2.2628335517725353
% es.Ey (V/m) @ t=0.46
0.08706160084282011
% es.Ez (V/m) @ t=0.46
-1.1230949073152172
% es.tEx (V/m) @ t=0.46
2.2628335517725375
% es.tEy (V/m) @ t=0.46
0
% es.tEz (V/m) @ t=0.46
-1.1230949073152274
% V (V) @ t=0.46
0.01146828243009724
% es.normE (V/m) @ t=0.48
2.550576253339514
% es.EX (V/m) @ t=0.48
2.283300091276961
% es.EY (V/m) @ t=0.48
0.08784890838154158
% es.EZ (V/m) @ t=0.48
-1.1332530163454173
% es.tEX (V/m) @ t=0.48
2.2833000912769617
% es.tEY (V/m) @ t=0.48
0
% es.tEZ (V/m) @ t=0.48
-1.1332530163454209
% es.Ex (V/m) @ t=0.48
2.283300091276961
% es.Ey (V/m) @ t=0.48
0.08784890838154158
% es.Ez (V/m) @ t=0.48
-1.1332530163454173
% es.tEx (V/m) @ t=0.48
2.2833000912769617
% es.tEy (V/m) @ t=0.48
0
% es.tEz (V/m) @ t=0.48
-1.1332530163454209
% V (V) @ t=0.48
0.011572014642724206
% es.normE (V/m) @ t=0.5
2.573438586523374
% es.EX (V/m) @ t=0.5
2.303766630781377
% es.EY (V/m) @ t=0.5
0.08863621592026388
% es.EZ (V/m) @ t=0.5
-1.1434111253756172
% es.tEX (V/m) @ t=0.5
2.3037666307813733
% es.tEY (V/m) @ t=0.5
0
% es.tEZ (V/m) @ t=0.5
-1.143411125375593
% es.Ex (V/m) @ t=0.5
2.303766630781377
% es.Ey (V/m) @ t=0.5
0.08863621592026388
% es.Ez (V/m) @ t=0.5
-1.1434111253756172
% es.tEx (V/m) @ t=0.5
2.3037666307813733
% es.tEy (V/m) @ t=0.5
0
% es.tEz (V/m) @ t=0.5
-1.143411125375593
% V (V) @ t=0.5
0.011675746855351173
% es.normE (V/m) @ t=0.52
2.596300919707251
% es.EX (V/m) @ t=0.52
2.324233170285803
% es.EY (V/m) @ t=0.52
0.08942352345899779
% es.EZ (V/m) @ t=0.52
-1.15356923440581
% es.tEX (V/m) @ t=0.52
2.3242331702857975
% es.tEY (V/m) @ t=0.52
0
% es.tEZ (V/m) @ t=0.52
-1.1535692344058006
% es.Ex (V/m) @ t=0.52
2.324233170285803
% es.Ey (V/m) @ t=0.52
0.08942352345899779
% es.Ez (V/m) @ t=0.52
-1.15356923440581
% es.tEx (V/m) @ t=0.52
2.3242331702857975
% es.tEy (V/m) @ t=0.52
0
% es.tEz (V/m) @ t=0.52
-1.1535692344058006
% V (V) @ t=0.52
0.01177947906797814
% es.normE (V/m) @ t=0.54
2.620655942742692
% es.EX (V/m) @ t=0.54
2.3460358297743014
% es.EY (V/m) @ t=0.54
0.09026171447239206
% es.EZ (V/m) @ t=0.54
-1.1643909077661527
% es.tEX (V/m) @ t=0.54
2.346035829774297
% es.tEY (V/m) @ t=0.54
0
% es.tEZ (V/m) @ t=0.54
-1.1643909077661405
% es.Ex (V/m) @ t=0.54
2.3460358297743014
% es.Ey (V/m) @ t=0.54
0.09026171447239206
% es.Ez (V/m) @ t=0.54
-1.1643909077661527
% es.tEx (V/m) @ t=0.54
2.346035829774297
% es.tEy (V/m) @ t=0.54
0
% es.tEz (V/m) @ t=0.54
-1.1643909077661405
% V (V) @ t=0.54
0.011890004702972651
% es.normE (V/m) @ t=0.56
2.6460828496370477
% es.EX (V/m) @ t=0.56
2.3687979420535856
% es.EY (V/m) @ t=0.56
0.09113644433884788
% es.EZ (V/m) @ t=0.56
-1.1756890792374464
% es.tEX (V/m) @ t=0.56
2.3687979420535763
% es.tEY (V/m) @ t=0.56
0
% es.tEZ (V/m) @ t=0.56
-1.1756890792374435
% es.Ex (V/m) @ t=0.56
2.3687979420535856
% es.Ey (V/m) @ t=0.56
0.09113644433884788
% es.Ez (V/m) @ t=0.56
-1.1756890792374464
% es.tEx (V/m) @ t=0.56
2.3687979420535763
% es.tEy (V/m) @ t=0.56
0
% es.tEz (V/m) @ t=0.56
-1.1756890792374435
% V (V) @ t=0.56
0.012005408618456177
% es.normE (V/m) @ t=0.58
2.671509756531982
% es.EX (V/m) @ t=0.58
2.391560054332845
% es.EY (V/m) @ t=0.58
0.09201117420527355
% es.EZ (V/m) @ t=0.58
-1.18698725070874
% es.tEX (V/m) @ t=0.58
2.3915600543328415
% es.tEY (V/m) @ t=0.58
0
% es.tEZ (V/m) @ t=0.58
-1.1869872507087322
% es.Ex (V/m) @ t=0.58
2.391560054332845
% es.Ey (V/m) @ t=0.58
0.09201117420527355
% es.Ez (V/m) @ t=0.58
-1.18698725070874
% es.tEx (V/m) @ t=0.58
2.3915600543328415
% es.tEy (V/m) @ t=0.58
0
% es.tEz (V/m) @ t=0.58
-1.1869872507087322
% V (V) @ t=0.58
0.012120812533939698
% es.normE (V/m) @ t=0.6
2.6969366634275334
% es.EX (V/m) @ t=0.6
2.414322166612125
% es.EY (V/m) @ t=0.6
0.09288590407174357
% es.EZ (V/m) @ t=0.6
-1.1982854221800618
% es.tEX (V/m) @ t=0.6
2.414322166612119
% es.tEY (V/m) @ t=0.6
0
% es.tEZ (V/m) @ t=0.6
-1.1982854221800494
% es.Ex (V/m) @ t=0.6
2.414322166612125
% es.Ey (V/m) @ t=0.6
0.09288590407174357
% es.Ez (V/m) @ t=0.6
-1.1982854221800618
% es.tEx (V/m) @ t=0.6
2.414322166612119
% es.tEy (V/m) @ t=0.6
0
% es.tEz (V/m) @ t=0.6
-1.1982854221800494
% V (V) @ t=0.6
0.012236216449423224
% es.normE (V/m) @ t=0.62
2.7223635703236164
% es.EX (V/m) @ t=0.62
2.4370842788913847
% es.EY (V/m) @ t=0.62
0.09376063393817008
% es.EZ (V/m) @ t=0.62
-1.2095835936513448
% es.tEX (V/m) @ t=0.62
2.437084278891378
% es.tEY (V/m) @ t=0.62
0
% es.tEZ (V/m) @ t=0.62
-1.2095835936513382
% es.Ex (V/m) @ t=0.62
2.4370842788913847
% es.Ey (V/m) @ t=0.62
0.09376063393817008
% es.Ez (V/m) @ t=0.62
-1.2095835936513448
% es.tEx (V/m) @ t=0.62
2.437084278891378
% es.tEy (V/m) @ t=0.62
0
% es.tEz (V/m) @ t=0.62
-1.2095835936513382
% V (V) @ t=0.62
0.01235162036490675
% es.normE (V/m) @ t=0.64
2.7477904772202884
% es.EX (V/m) @ t=0.64
2.459846391170662
% es.EY (V/m) @ t=0.64
0.09463536380463394
% es.EZ (V/m) @ t=0.64
-1.2208817651226704
% es.tEX (V/m) @ t=0.64
2.4598463911706574
% es.tEY (V/m) @ t=0.64
0
% es.tEZ (V/m) @ t=0.64
-1.2208817651226553
% es.Ex (V/m) @ t=0.64
2.459846391170662
% es.Ey (V/m) @ t=0.64
0.09463536380463394
% es.Ez (V/m) @ t=0.64
-1.2208817651226704
% es.tEx (V/m) @ t=0.64
2.4598463911706574
% es.tEy (V/m) @ t=0.64
0
% es.tEz (V/m) @ t=0.64
-1.2208817651226553
% V (V) @ t=0.64
0.012467024280390274
% es.normE (V/m) @ t=0.66
2.7732173841174643
% es.EX (V/m) @ t=0.66
2.482608503449925
% es.EY (V/m) @ t=0.66
0.09551009367105512
% es.EZ (V/m) @ t=0.66
-1.2321799365939534
% es.tEX (V/m) @ t=0.66
2.4826085034499217
% es.tEY (V/m) @ t=0.66
0
% es.tEZ (V/m) @ t=0.66
-1.2321799365939512
% es.Ex (V/m) @ t=0.66
2.482608503449925
% es.Ey (V/m) @ t=0.66
0.09551009367105512
% es.Ez (V/m) @ t=0.66
-1.2321799365939534
% es.tEx (V/m) @ t=0.66
2.4826085034499217
% es.tEy (V/m) @ t=0.66
0
% es.tEz (V/m) @ t=0.66
-1.2321799365939512
% V (V) @ t=0.66
0.012582428195873798
% es.normE (V/m) @ t=0.68
2.7986442910151927
% es.EX (V/m) @ t=0.68
2.5053706157292046
% es.EY (V/m) @ t=0.68
0.0963848235375207
% es.EZ (V/m) @ t=0.68
-1.2434781080652648
% es.tEX (V/m) @ t=0.68
2.505370615729201
% es.tEY (V/m) @ t=0.68
0
% es.tEZ (V/m) @ t=0.68
-1.2434781080652542
% es.Ex (V/m) @ t=0.68
2.5053706157292046
% es.Ey (V/m) @ t=0.68
0.0963848235375207
% es.Ez (V/m) @ t=0.68
-1.2434781080652648
% es.tEx (V/m) @ t=0.68
2.505370615729201
% es.tEy (V/m) @ t=0.68
0
% es.tEz (V/m) @ t=0.68
-1.2434781080652542
% V (V) @ t=0.68
0.012697832111357322
% es.normE (V/m) @ t=0.7
2.824071197913403
% es.EX (V/m) @ t=0.7
2.52813272800846
% es.EY (V/m) @ t=0.7
0.09725955340394371
% es.EZ (V/m) @ t=0.7
-1.254776279536569
% es.tEX (V/m) @ t=0.7
2.5281327280084573
% es.tEY (V/m) @ t=0.7
0
% es.tEZ (V/m) @ t=0.7
-1.254776279536543
% es.Ex (V/m) @ t=0.7
2.52813272800846
% es.Ey (V/m) @ t=0.7
0.09725955340394371
% es.Ez (V/m) @ t=0.7
-1.254776279536569
% es.tEx (V/m) @ t=0.7
2.5281327280084573
% es.tEy (V/m) @ t=0.7
0
% es.tEz (V/m) @ t=0.7
-1.254776279536543
% V (V) @ t=0.7
0.012813236026840844
% es.normE (V/m) @ t=0.72
2.849498104812114
% es.EX (V/m) @ t=0.72
2.5508948402877336
% es.EY (V/m) @ t=0.72
0.09813428327039864
% es.EZ (V/m) @ t=0.72
-1.2660744510078483
% es.tEX (V/m) @ t=0.72
2.5508948402877305
% es.tEY (V/m) @ t=0.72
0
% es.tEZ (V/m) @ t=0.72
-1.266074451007853
% es.Ex (V/m) @ t=0.72
2.5508948402877336
% es.Ey (V/m) @ t=0.72
0.09813428327039864
% es.Ez (V/m) @ t=0.72
-1.2660744510078483
% es.tEx (V/m) @ t=0.72
2.5508948402877305
% es.tEy (V/m) @ t=0.72
0
% es.tEz (V/m) @ t=0.72
-1.266074451007853
% V (V) @ t=0.72
0.01292863994232437
% es.normE (V/m) @ t=0.74
2.8749250117113236
% es.EX (V/m) @ t=0.74
2.573656952567007
% es.EY (V/m) @ t=0.74
0.09900901313683402
% es.EZ (V/m) @ t=0.74
-1.2773726224791633
% es.tEX (V/m) @ t=0.74
2.5736569525670028
% es.tEY (V/m) @ t=0.74
0
% es.tEZ (V/m) @ t=0.74
-1.277372622479156
% es.Ex (V/m) @ t=0.74
2.573656952567007
% es.Ey (V/m) @ t=0.74
0.09900901313683402
% es.Ez (V/m) @ t=0.74
-1.2773726224791633
% es.tEx (V/m) @ t=0.74
2.5736569525670028
% es.tEy (V/m) @ t=0.74
0
% es.tEz (V/m) @ t=0.74
-1.277372622479156
% V (V) @ t=0.74
0.013044043857807896
% es.normE (V/m) @ t=0.76
2.900351918610981
% es.EX (V/m) @ t=0.76
2.5964190648462706
% es.EY (V/m) @ t=0.76
0.09988374300330322
% es.EZ (V/m) @ t=0.76
-1.2886707939504496
% es.tEX (V/m) @ t=0.76
2.596419064846269
% es.tEY (V/m) @ t=0.76
0
% es.tEZ (V/m) @ t=0.76
-1.2886707939504518
% es.Ex (V/m) @ t=0.76
2.5964190648462706
% es.Ey (V/m) @ t=0.76
0.09988374300330322
% es.Ez (V/m) @ t=0.76
-1.2886707939504496
% es.tEx (V/m) @ t=0.76
2.596419064846269
% es.tEy (V/m) @ t=0.76
0
% es.tEz (V/m) @ t=0.76
-1.2886707939504518
% V (V) @ t=0.76
0.013159447773291418
% es.normE (V/m) @ t=0.78
2.925778825511098
% es.EX (V/m) @ t=0.78
2.619181177125533
% es.EY (V/m) @ t=0.78
0.10075847286971196
% es.EZ (V/m) @ t=0.78
-1.2999689654217468
% es.tEX (V/m) @ t=0.78
2.6191811771255393
% es.tEY (V/m) @ t=0.78
0
% es.tEZ (V/m) @ t=0.78
-1.2999689654217477
% es.Ex (V/m) @ t=0.78
2.619181177125533
% es.Ey (V/m) @ t=0.78
0.10075847286971196
% es.Ez (V/m) @ t=0.78
-1.2999689654217468
% es.tEx (V/m) @ t=0.78
2.6191811771255393
% es.tEy (V/m) @ t=0.78
0
% es.tEz (V/m) @ t=0.78
-1.2999689654217477
% V (V) @ t=0.78
0.013274851688774944
% es.normE (V/m) @ t=0.8
2.9522997146495067
% es.EX (V/m) @ t=0.8
2.6429227675588423
% es.EY (V/m) @ t=0.8
0.1016713574217738
% es.EZ (V/m) @ t=0.8
-1.3117528984063087
% es.tEX (V/m) @ t=0.8
2.6429227675588383
% es.tEY (V/m) @ t=0.8
0
% es.tEZ (V/m) @ t=0.8
-1.31175289840629
% es.Ex (V/m) @ t=0.8
2.6429227675588423
% es.Ey (V/m) @ t=0.8
0.1016713574217738
% es.Ez (V/m) @ t=0.8
-1.3117528984063087
% es.tEx (V/m) @ t=0.8
2.6429227675588383
% es.tEy (V/m) @ t=0.8
0
% es.tEz (V/m) @ t=0.8
-1.31175289840629
% V (V) @ t=0.8
0.013395200111917978
% es.normE (V/m) @ t=0.82
2.9806215307015647
% es.EX (V/m) @ t=0.82
2.6682767868852144
% es.EY (V/m) @ t=0.82
0.10264705268304047
% es.EZ (V/m) @ t=0.82
-1.3243364979233387
% es.tEX (V/m) @ t=0.82
2.6682767868851984
% es.tEY (V/m) @ t=0.82
0
% es.tEZ (V/m) @ t=0.82
-1.3243364979233263
% es.Ex (V/m) @ t=0.82
2.6682767868852144
% es.Ey (V/m) @ t=0.82
0.10264705268304047
% es.Ez (V/m) @ t=0.82
-1.3243364979233387
% es.tEx (V/m) @ t=0.82
2.6682767868851984
% es.tEy (V/m) @ t=0.82
0
% es.tEz (V/m) @ t=0.82
-1.3243364979233263
% V (V) @ t=0.82
0.013523688243924761
% es.normE (V/m) @ t=0.84
3.0089433467536724
% es.EX (V/m) @ t=0.84
2.6936308062115755
% es.EY (V/m) @ t=0.84
0.10362274794427684
% es.EZ (V/m) @ t=0.84
-1.3369200974403685
% es.tEX (V/m) @ t=0.84
2.6936308062115657
% es.tEY (V/m) @ t=0.84
0
% es.tEZ (V/m) @ t=0.84
-1.3369200974403412
% es.Ex (V/m) @ t=0.84
2.6936308062115755
% es.Ey (V/m) @ t=0.84
0.10362274794427684
% es.Ez (V/m) @ t=0.84
-1.3369200974403685
% es.tEx (V/m) @ t=0.84
2.6936308062115657
% es.tEy (V/m) @ t=0.84
0
% es.tEz (V/m) @ t=0.84
-1.3369200974403412
% V (V) @ t=0.84
0.013652176375931541
% es.normE (V/m) @ t=0.86
3.0372651628058076
% es.EX (V/m) @ t=0.86
2.7189848255379117
% es.EY (V/m) @ t=0.86
0.10459844320548661
% es.EZ (V/m) @ t=0.86
-1.3495036969573806
% es.tEX (V/m) @ t=0.86
2.71898482553791
% es.tEY (V/m) @ t=0.86
0
% es.tEZ (V/m) @ t=0.86
-1.3495036969573846
% es.Ex (V/m) @ t=0.86
2.7189848255379117
% es.Ey (V/m) @ t=0.86
0.10459844320548661
% es.Ez (V/m) @ t=0.86
-1.3495036969573806
% es.tEx (V/m) @ t=0.86
2.71898482553791
% es.tEy (V/m) @ t=0.86
0
% es.tEz (V/m) @ t=0.86
-1.3495036969573846
% V (V) @ t=0.86
0.013780664507938325
% es.normE (V/m) @ t=0.88
3.0655869788580423
% es.EX (V/m) @ t=0.88
2.7443388448642834
% es.EY (V/m) @ t=0.88
0.10557413846673191
% es.EZ (V/m) @ t=0.88
-1.3620872964744142
% es.tEX (V/m) @ t=0.88
2.7443388448642843
% es.tEY (V/m) @ t=0.88
0
% es.tEZ (V/m) @ t=0.88
-1.3620872964744208
% es.Ex (V/m) @ t=0.88
2.7443388448642834
% es.Ey (V/m) @ t=0.88
0.10557413846673191
% es.Ez (V/m) @ t=0.88
-1.3620872964744142
% es.tEx (V/m) @ t=0.88
2.7443388448642843
% es.tEy (V/m) @ t=0.88
0
% es.tEz (V/m) @ t=0.88
-1.3620872964744208
% V (V) @ t=0.88
0.013909152639945108
% es.normE (V/m) @ t=0.9
3.093908794910331
% es.EX (V/m) @ t=0.9
2.769692864190648
% es.EY (V/m) @ t=0.9
0.10654983372799237
% es.EZ (V/m) @ t=0.9
-1.3746708959914584
% es.tEX (V/m) @ t=0.9
2.7696928641906506
% es.tEY (V/m) @ t=0.9
0
% es.tEZ (V/m) @ t=0.9
-1.37467089599145
% es.Ex (V/m) @ t=0.9
2.769692864190648
% es.Ey (V/m) @ t=0.9
0.10654983372799237
% es.Ez (V/m) @ t=0.9
-1.3746708959914584
% es.tEx (V/m) @ t=0.9
2.7696928641906506
% es.tEy (V/m) @ t=0.9
0
% es.tEz (V/m) @ t=0.9
-1.37467089599145
% V (V) @ t=0.9
0.014037640771951888
% es.normE (V/m) @ t=0.92
3.1222306109626587
% es.EX (V/m) @ t=0.92
2.795046883517009
% es.EY (V/m) @ t=0.92
0.10752552898919499
% es.EZ (V/m) @ t=0.92
-1.3872544955084773
% es.tEX (V/m) @ t=0.92
2.7950468835169886
% es.tEY (V/m) @ t=0.92
0
% es.tEZ (V/m) @ t=0.92
-1.387254495508472
% es.Ex (V/m) @ t=0.92
2.795046883517009
% es.Ey (V/m) @ t=0.92
0.10752552898919499
% es.Ez (V/m) @ t=0.92
-1.3872544955084773
% es.tEx (V/m) @ t=0.92
2.7950468835169886
% es.tEy (V/m) @ t=0.92
0
% es.tEz (V/m) @ t=0.92
-1.387254495508472
% V (V) @ t=0.92
0.014166128903958672
% es.normE (V/m) @ t=0.94
3.150552427015043
% es.EX (V/m) @ t=0.94
2.8204009028433594
% es.EY (V/m) @ t=0.94
0.10850122425044739
% es.EZ (V/m) @ t=0.94
-1.3998380950255251
% es.tEX (V/m) @ t=0.94
2.820400902843364
% es.tEY (V/m) @ t=0.94
0
% es.tEZ (V/m) @ t=0.94
-1.3998380950255083
% es.Ex (V/m) @ t=0.94
2.8204009028433594
% es.Ey (V/m) @ t=0.94
0.10850122425044739
% es.Ez (V/m) @ t=0.94
-1.3998380950255251
% es.tEx (V/m) @ t=0.94
2.820400902843364
% es.tEy (V/m) @ t=0.94
0
% es.tEz (V/m) @ t=0.94
-1.3998380950255083
% V (V) @ t=0.94
0.014294617035965454
% es.normE (V/m) @ t=0.96
3.1788742430674723
% es.EX (V/m) @ t=0.96
2.8457549221697143
% es.EY (V/m) @ t=0.96
0.1094769195116731
% es.EZ (V/m) @ t=0.96
-1.4124216945425516
% es.tEX (V/m) @ t=0.96
2.845754922169716
% es.tEY (V/m) @ t=0.96
0
% es.tEZ (V/m) @ t=0.96
-1.4124216945425374
% es.Ex (V/m) @ t=0.96
2.8457549221697143
% es.Ey (V/m) @ t=0.96
0.1094769195116731
% es.Ez (V/m) @ t=0.96
-1.4124216945425516
% es.tEx (V/m) @ t=0.96
2.845754922169716
% es.tEy (V/m) @ t=0.96
0
% es.tEz (V/m) @ t=0.96
-1.4124216945425374
% V (V) @ t=0.96
0.014423105167972234
% es.normE (V/m) @ t=0.98
3.2071960591199815
% es.EX (V/m) @ t=0.98
2.8711089414960886
% es.EY (V/m) @ t=0.98
0.11045261477293622
% es.EZ (V/m) @ t=0.98
-1.4250052940596027
% es.tEX (V/m) @ t=0.98
2.8711089414960806
% es.tEY (V/m) @ t=0.98
0
% es.tEZ (V/m) @ t=0.98
-1.4250052940595808
% es.Ex (V/m) @ t=0.98
2.8711089414960886
% es.Ey (V/m) @ t=0.98
0.11045261477293622
% es.Ez (V/m) @ t=0.98
-1.4250052940596027
% es.tEx (V/m) @ t=0.98
2.8711089414960806
% es.tEy (V/m) @ t=0.98
0
% es.tEz (V/m) @ t=0.98
-1.4250052940595808
% V (V) @ t=0.98
0.014551593299979019
% es.normE (V/m) @ t=1
3.2355178751725004
% es.EX (V/m) @ t=1
2.8964629608224466
% es.EY (V/m) @ t=1
0.11142831003418152
% es.EZ (V/m) @ t=1
-1.4375888935766006
% es.tEX (V/m) @ t=1
2.8964629608224417
% es.tEY (V/m) @ t=1
0
% es.tEZ (V/m) @ t=1
-1.4375888935765957
% es.Ex (V/m) @ t=1
2.8964629608224466
% es.Ey (V/m) @ t=1
0.11142831003418152
% es.Ez (V/m) @ t=1
-1.4375888935766006
% es.tEx (V/m) @ t=1
2.8964629608224417
% es.tEy (V/m) @ t=1
0
% es.tEz (V/m) @ t=1
-1.4375888935765957
% V (V) @ t=1
0.014680081431985802
% es.normE (V/m) @ t=1.02
3.263839691225096
% es.EX (V/m) @ t=1.02
2.9218169801488103
% es.EY (V/m) @ t=1.02
0.11240400529541617
% es.EZ (V/m) @ t=1.02
-1.4501724930936555
% es.tEX (V/m) @ t=1.02
2.921816980148815
% es.tEY (V/m) @ t=1.02
0
% es.tEZ (V/m) @ t=1.02
-1.4501724930936604
% es.Ex (V/m) @ t=1.02
2.9218169801488103
% es.Ey (V/m) @ t=1.02
0.11240400529541617
% es.Ez (V/m) @ t=1.02
-1.4501724930936555
% es.tEx (V/m) @ t=1.02
2.921816980148815
% es.tEy (V/m) @ t=1.02
0
% es.tEz (V/m) @ t=1.02
-1.4501724930936604
% V (V) @ t=1.02
0.014808569563992584
% es.normE (V/m) @ t=1.04
3.2921615072777195
% es.EX (V/m) @ t=1.04
2.9471709994751722
% es.EY (V/m) @ t=1.04
0.11337970055662239
% es.EZ (V/m) @ t=1.04
-1.4627560926106746
% es.tEX (V/m) @ t=1.04
2.9471709994751674
% es.tEY (V/m) @ t=1.04
0
% es.tEZ (V/m) @ t=1.04
-1.4627560926106824