% Model:              1 neuron.mph
% Version:            COMSOL 6.0.0.405
% Date:               Mar 16 2023, 18:22
% Dimension:          0
% Nodes:              14017
% Expressions:        14017
% Description:        Electric field norm, Electric field, X component, Electric field, Y component, Electric field, Z component, Tangential electric field, X component, Tangential electric field, Y component, Tangential electric field, Z component, Electric field, x component, Electric field, y component, Electric field, z component, Tangential electric field, x component, Tangential electric field, y component, Tangential electric field, z component, Electric potential
% Length unit:        mm
% x
1.0000000000000002
% y
12.2
% z
2
% es.normE (V/m) @ t=0
1.0513994915637679
% es.EX (V/m) @ t=0
0.7303096806634162
% es.EY (V/m) @ t=0
0.10935507723551147
% es.EZ (V/m) @ t=0
-0.7292455582185755
% es.tEX (V/m) @ t=0
0.7303096806634177
% es.tEY (V/m) @ t=0
0
% es.tEZ (V/m) @ t=0
-0.7292455582185644
% es.Ex (V/m) @ t=0
0.7303096806634162
% es.Ey (V/m) @ t=0
0.10935507723551147
% es.Ez (V/m) @ t=0
-0.7292455582185755
% es.tEx (V/m) @ t=0
0.7303096806634177
% es.tEy (V/m) @ t=0
0
% es.tEz (V/m) @ t=0
-0.7292455582185644
% V (V) @ t=0
0.011259127193430115
% es.normE (V/m) @ t=0.02
0.9081148880303462
% es.EX (V/m) @ t=0.02
0.630783159404702
% es.EY (V/m) @ t=0.02
0.0944521837350214
% es.EZ (V/m) @ t=0.02
-0.629864055866791
% es.tEX (V/m) @ t=0.02
0.6307831594047015
% es.tEY (V/m) @ t=0.02
0
% es.tEZ (V/m) @ t=0.02
-0.6298640558667801
% es.Ex (V/m) @ t=0.02
0.630783159404702
% es.Ey (V/m) @ t=0.02
0.0944521837350214
% es.Ez (V/m) @ t=0.02
-0.629864055866791
% es.tEx (V/m) @ t=0.02
0.6307831594047015
% es.tEy (V/m) @ t=0.02
0
% es.tEz (V/m) @ t=0.02
-0.6298640558667801
% V (V) @ t=0.02
0.009724734351124595
% es.normE (V/m) @ t=0.04
0.9164697351335924
% es.EX (V/m) @ t=0.04
0.6365864968121644
% es.EY (V/m) @ t=0.04
0.09532116221554404
% es.EZ (V/m) @ t=0.04
-0.63565893715874
% es.tEX (V/m) @ t=0.04
0.6365864968121677
% es.tEY (V/m) @ t=0.04
0
% es.tEZ (V/m) @ t=0.04
-0.6356589371587362
% es.Ex (V/m) @ t=0.04
0.6365864968121644
% es.Ey (V/m) @ t=0.04
0.09532116221554404
% es.Ez (V/m) @ t=0.04
-0.63565893715874
% es.tEx (V/m) @ t=0.04
0.6365864968121677
% es.tEy (V/m) @ t=0.04
0
% es.tEz (V/m) @ t=0.04
-0.6356589371587362
% V (V) @ t=0.04
0.009814204036518389
% es.normE (V/m) @ t=0.06
0.9248932259865503
% es.EX (V/m) @ t=0.06
0.6424375149319024
% es.EY (V/m) @ t=0.06
0.09619727859066735
% es.EZ (V/m) @ t=0.06
-0.6415014296185417
% es.tEX (V/m) @ t=0.06
0.6424375149319008
% es.tEY (V/m) @ t=0.06
0
% es.tEZ (V/m) @ t=0.06
-0.641501429618538
% es.Ex (V/m) @ t=0.06
0.6424375149319024
% es.Ey (V/m) @ t=0.06
0.09619727859066735
% es.Ez (V/m) @ t=0.06
-0.6415014296185417
% es.tEx (V/m) @ t=0.06
0.6424375149319008
% es.tEy (V/m) @ t=0.06
0
% es.tEz (V/m) @ t=0.06
-0.641501429618538
% V (V) @ t=0.06
0.009904408908407257
% es.normE (V/m) @ t=0.08
0.9334608179822764
% es.EX (V/m) @ t=0.08
0.6483886264218681
% es.EY (V/m) @ t=0.08
0.09708838463624558
% es.EZ (V/m) @ t=0.08
-0.6474438697453964
% es.tEX (V/m) @ t=0.08
0.6483886264218772
% es.tEY (V/m) @ t=0.08
0
% es.tEZ (V/m) @ t=0.08
-0.6474438697453855
% es.Ex (V/m) @ t=0.08
0.6483886264218681
% es.Ey (V/m) @ t=0.08
0.09708838463624558
% es.Ez (V/m) @ t=0.08
-0.6474438697453964
% es.tEx (V/m) @ t=0.08
0.6483886264218772
% es.tEy (V/m) @ t=0.08
0
% es.tEz (V/m) @ t=0.08
-0.6474438697453855
% V (V) @ t=0.08
0.009996156800143177
% es.normE (V/m) @ t=0.1
0.9420963588341227
% es.EX (V/m) @ t=0.1
0.6543869355251495
% es.EY (V/m) @ t=0.1
0.09798655884895874
% es.EZ (V/m) @ t=0.1
-0.6534334387812606
% es.tEX (V/m) @ t=0.1
0.6543869355251544
% es.tEY (V/m) @ t=0.1
0
% es.tEZ (V/m) @ t=0.1
-0.6534334387812497
% es.Ex (V/m) @ t=0.1
0.6543869355251495
% es.Ey (V/m) @ t=0.1
0.09798655884895874
% es.Ez (V/m) @ t=0.1
-0.6534334387812606
% es.tEx (V/m) @ t=0.1
0.6543869355251544
% es.tEy (V/m) @ t=0.1
0
% es.tEz (V/m) @ t=0.1
-0.6534334387812497
% V (V) @ t=0.1
0.01008863228106806
% es.normE (V/m) @ t=0.12
0.9507318996859773
% es.EX (V/m) @ t=0.12
0.6603852446284304
% es.EY (V/m) @ t=0.12
0.0988847330616961
% es.EZ (V/m) @ t=0.12
-0.6594230078171315
% es.tEX (V/m) @ t=0.12
0.6603852446284377
% es.tEY (V/m) @ t=0.12
0
% es.tEZ (V/m) @ t=0.12
-0.6594230078171206
% es.Ex (V/m) @ t=0.12
0.6603852446284304
% es.Ey (V/m) @ t=0.12
0.0988847330616961
% es.Ez (V/m) @ t=0.12
-0.6594230078171315
% es.tEx (V/m) @ t=0.12
0.6603852446284377
% es.tEy (V/m) @ t=0.12
0
% es.tEz (V/m) @ t=0.12
-0.6594230078171206
% V (V) @ t=0.12
0.010181107761992941
% es.normE (V/m) @ t=0.14
0.9595326683406811
% es.EX (V/m) @ t=0.14
0.666498321832506
% es.EY (V/m) @ t=0.14
0.09980009435724657
% es.EZ (V/m) @ t=0.14
-0.6655271778502236
% es.tEX (V/m) @ t=0.14
0.6664983218325111
% es.tEY (V/m) @ t=0.14
0
% es.tEZ (V/m) @ t=0.14
-0.6655271778502128
% es.Ex (V/m) @ t=0.14
0.666498321832506
% es.Ey (V/m) @ t=0.14
0.09980009435724657
% es.Ez (V/m) @ t=0.14
-0.6655271778502236
% es.tEx (V/m) @ t=0.14
0.6664983218325111
% es.tEy (V/m) @ t=0.14
0
% es.tEz (V/m) @ t=0.14
-0.6655271778502128
% V (V) @ t=0.14
0.010275352502634514
% es.normE (V/m) @ t=0.16
0.96861619513734
% es.EX (V/m) @ t=0.16
0.6728078043290207
% es.EY (V/m) @ t=0.16
0.10074486830323681
% es.EZ (V/m) @ t=0.16
-0.6718274672075366
% es.tEX (V/m) @ t=0.16
0.672807804329024
% es.tEY (V/m) @ t=0.16
0
% es.tEZ (V/m) @ t=0.16
-0.6718274672075291
% es.Ex (V/m) @ t=0.16
0.6728078043290207
% es.Ey (V/m) @ t=0.16
0.10074486830323681
% es.Ez (V/m) @ t=0.16
-0.6718274672075366
% es.tEx (V/m) @ t=0.16
0.672807804329024
% es.tEy (V/m) @ t=0.16
0
% es.tEz (V/m) @ t=0.16
-0.6718274672075291
% V (V) @ t=0.16
0.010372625018151277
% es.normE (V/m) @ t=0.18
0.9776997219340078
% es.EX (V/m) @ t=0.18
0.679117286825538
% es.EY (V/m) @ t=0.18
0.10168964224923599
% es.EZ (V/m) @ t=0.18
-0.6781277565648574
% es.tEX (V/m) @ t=0.18
0.6791172868255426
% es.tEY (V/m) @ t=0.18
0
% es.tEZ (V/m) @ t=0.18
-0.6781277565648534
% es.Ex (V/m) @ t=0.18
0.679117286825538
% es.Ey (V/m) @ t=0.18
0.10168964224923599
% es.Ez (V/m) @ t=0.18
-0.6781277565648574
% es.tEx (V/m) @ t=0.18
0.6791172868255426
% es.tEy (V/m) @ t=0.18
0
% es.tEz (V/m) @ t=0.18
-0.6781277565648534
% V (V) @ t=0.18
0.010469897533668043
% es.normE (V/m) @ t=0.2
0.9867832487306781
% es.EX (V/m) @ t=0.2
0.6854267693220513
% es.EY (V/m) @ t=0.2
0.1026344161952289
% es.EZ (V/m) @ t=0.2
-0.6844280459221881
% es.tEX (V/m) @ t=0.2
0.6854267693220555
% es.tEY (V/m) @ t=0.2
0
% es.tEZ (V/m) @ t=0.2
-0.6844280459221772
% es.Ex (V/m) @ t=0.2
0.6854267693220513
% es.Ey (V/m) @ t=0.2
0.1026344161952289
% es.Ez (V/m) @ t=0.2
-0.6844280459221881
% es.tEx (V/m) @ t=0.2
0.6854267693220555
% es.tEy (V/m) @ t=0.2
0
% es.tEz (V/m) @ t=0.2
-0.6844280459221772
% V (V) @ t=0.2
0.010567170049184806
% es.normE (V/m) @ t=0.22
0.9958667755273414
% es.EX (V/m) @ t=0.22
0.6917362518185699
% es.EY (V/m) @ t=0.22
0.10357919014122341
% es.EZ (V/m) @ t=0.22
-0.6907283352795017
% es.tEX (V/m) @ t=0.22
0.6917362518185715
% es.tEY (V/m) @ t=0.22
0
% es.tEZ (V/m) @ t=0.22
-0.6907283352794944
% es.Ex (V/m) @ t=0.22
0.6917362518185699
% es.Ey (V/m) @ t=0.22
0.10357919014122341
% es.Ez (V/m) @ t=0.22
-0.6907283352795017
% es.tEx (V/m) @ t=0.22
0.6917362518185715
% es.tEy (V/m) @ t=0.22
0
% es.tEz (V/m) @ t=0.22
-0.6907283352794944
% V (V) @ t=0.22
0.01066444256470157
% es.normE (V/m) @ t=0.24
1.0049503023240094
% es.EX (V/m) @ t=0.24
0.6980457343150925
% es.EY (V/m) @ t=0.24
0.1045239640872272
% es.EZ (V/m) @ t=0.24
-0.697028624636818
% es.tEX (V/m) @ t=0.24
0.6980457343150923
% es.tEY (V/m) @ t=0.24
0
% es.tEZ (V/m) @ t=0.24
-0.6970286246368036
% es.Ex (V/m) @ t=0.24
0.6980457343150925
% es.Ey (V/m) @ t=0.24
0.1045239640872272
% es.Ez (V/m) @ t=0.24
-0.697028624636818
% es.tEx (V/m) @ t=0.24
0.6980457343150923
% es.tEy (V/m) @ t=0.24
0
% es.tEz (V/m) @ t=0.24
-0.6970286246368036
% V (V) @ t=0.24
0.010761715080218335
% es.normE (V/m) @ t=0.26
1.014033829120674
% es.EX (V/m) @ t=0.26
0.7043552168116063
% es.EY (V/m) @ t=0.26
0.10546873803322793
% es.EZ (V/m) @ t=0.26
-0.7033289139941385
% es.tEX (V/m) @ t=0.26
0.704355216811611
% es.tEY (V/m) @ t=0.26
0
% es.tEZ (V/m) @ t=0.26
-0.7033289139941274
% es.Ex (V/m) @ t=0.26
0.7043552168116063
% es.Ey (V/m) @ t=0.26
0.10546873803322793
% es.Ez (V/m) @ t=0.26
-0.7033289139941385
% es.tEx (V/m) @ t=0.26
0.704355216811611
% es.tEy (V/m) @ t=0.26
0
% es.tEz (V/m) @ t=0.26
-0.7033289139941274
% V (V) @ t=0.26
0.0108589875957351
% es.normE (V/m) @ t=0.28
1.0238677957579188
% es.EX (V/m) @ t=0.28
0.7111859450065585
% es.EY (V/m) @ t=0.28
0.10649165336580729
% es.EZ (V/m) @ t=0.28
-0.7101496953821074
% es.tEX (V/m) @ t=0.28
0.7111859450065627
% es.tEY (V/m) @ t=0.28
0
% es.tEZ (V/m) @ t=0.28
-0.7101496953820963
% es.Ex (V/m) @ t=0.28
0.7111859450065585
% es.Ey (V/m) @ t=0.28
0.10649165336580729
% es.Ez (V/m) @ t=0.28
-0.7101496953821074
% es.tEx (V/m) @ t=0.28
0.7111859450065627
% es.tEy (V/m) @ t=0.28
0
% es.tEz (V/m) @ t=0.28
-0.7101496953820963
% V (V) @ t=0.28
0.010964290885226453
% es.normE (V/m) @ t=0.3
1.0339554613958022
% es.EX (V/m) @ t=0.3
0.7181928892092715
% es.EY (V/m) @ t=0.3
0.10754098572831261
% es.EZ (V/m) @ t=0.3
-0.717146437987572
% es.tEX (V/m) @ t=0.3
0.7181928892092739
% es.tEY (V/m) @ t=0.3
0
% es.tEZ (V/m) @ t=0.3
-0.7171464379875649
% es.Ex (V/m) @ t=0.3
0.7181928892092715
% es.Ey (V/m) @ t=0.3
0.10754098572831261
% es.Ez (V/m) @ t=0.3
-0.717146437987572
% es.tEx (V/m) @ t=0.3
0.7181928892092739
% es.tEy (V/m) @ t=0.3
0
% es.tEz (V/m) @ t=0.3
-0.7171464379875649
% V (V) @ t=0.3
0.011072309114971916
% es.normE (V/m) @ t=0.32
1.0440431270336963
% es.EX (V/m) @ t=0.32
0.7251998334119831
% es.EY (V/m) @ t=0.32
0.108590318090797
% es.EZ (V/m) @ t=0.32
-0.7241431805930216
% es.tEX (V/m) @ t=0.32
0.7251998334119856
% es.tEY (V/m) @ t=0.32
0
% es.tEZ (V/m) @ t=0.32
-0.7241431805930034
% es.Ex (V/m) @ t=0.32
0.7251998334119831
% es.Ey (V/m) @ t=0.32
0.108590318090797
% es.Ez (V/m) @ t=0.32
-0.7241431805930216
% es.tEx (V/m) @ t=0.32
0.7251998334119856
% es.tEy (V/m) @ t=0.32
0
% es.tEz (V/m) @ t=0.32
-0.7241431805930034
% V (V) @ t=0.32
0.011180327344717383
% es.normE (V/m) @ t=0.34
1.0541307926716037
% es.EX (V/m) @ t=0.34
0.7322067776146948
% es.EY (V/m) @ t=0.34
0.10963965045326518
% es.EZ (V/m) @ t=0.34
-0.7311399231984717
% es.tEX (V/m) @ t=0.34
0.7322067776146945
% es.tEY (V/m) @ t=0.34
0
% es.tEZ (V/m) @ t=0.34
-0.731139923198457
% es.Ex (V/m) @ t=0.34
0.7322067776146948
% es.Ey (V/m) @ t=0.34
0.10963965045326518
% es.Ez (V/m) @ t=0.34
-0.7311399231984717
% es.tEx (V/m) @ t=0.34
0.7322067776146945
% es.tEy (V/m) @ t=0.34
0
% es.tEz (V/m) @ t=0.34
-0.731139923198457
% V (V) @ t=0.34
0.01128834557446285
% es.normE (V/m) @ t=0.36
1.0642184583095333
% es.EX (V/m) @ t=0.36
0.7392137218173966
% es.EY (V/m) @ t=0.36
0.11068898281573802
% es.EZ (V/m) @ t=0.36
-0.7381366658039359
% es.tEX (V/m) @ t=0.36
0.7392137218173991
% es.tEY (V/m) @ t=0.36
0
% es.tEZ (V/m) @ t=0.36
-0.7381366658039177
% es.Ex (V/m) @ t=0.36
0.7392137218173966
% es.Ey (V/m) @ t=0.36
0.11068898281573802
% es.Ez (V/m) @ t=0.36
-0.7381366658039359
% es.tEx (V/m) @ t=0.36
0.7392137218173991
% es.tEy (V/m) @ t=0.36
0
% es.tEz (V/m) @ t=0.36
-0.7381366658039177
% V (V) @ t=0.36
0.011396363804208316
% es.normE (V/m) @ t=0.38
1.0743061239474814
% es.EX (V/m) @ t=0.38
0.7462206660201116
% es.EY (V/m) @ t=0.38
0.1117383151782213
% es.EZ (V/m) @ t=0.38
-0.745133408409389
% es.tEX (V/m) @ t=0.38
0.7462206660201138
% es.tEY (V/m) @ t=0.38
0
% es.tEZ (V/m) @ t=0.38
-0.7451334084093784
% es.Ex (V/m) @ t=0.38
0.7462206660201116
% es.Ey (V/m) @ t=0.38
0.1117383151782213
% es.Ez (V/m) @ t=0.38
-0.745133408409389
% es.tEx (V/m) @ t=0.38
0.7462206660201138
% es.tEy (V/m) @ t=0.38
0
% es.tEz (V/m) @ t=0.38
-0.7451334084093784
% V (V) @ t=0.38
0.011504382033953781
% es.normE (V/m) @ t=0.4
1.084393789585441
% es.EX (V/m) @ t=0.4
0.7532276102228208
% es.EY (V/m) @ t=0.4
0.11278764754070675
% es.EZ (V/m) @ t=0.4
-0.7521301510148453
% es.tEX (V/m) @ t=0.4
0.7532276102228197
% es.tEY (V/m) @ t=0.4
0
% es.tEZ (V/m) @ t=0.4
-0.752130151014831
% es.Ex (V/m) @ t=0.4
0.7532276102228208
% es.Ey (V/m) @ t=0.4
0.11278764754070675
% es.Ez (V/m) @ t=0.4
-0.7521301510148453
% es.tEx (V/m) @ t=0.4
0.7532276102228197
% es.tEy (V/m) @ t=0.4
0
% es.tEz (V/m) @ t=0.4
-0.752130151014831
% V (V) @ t=0.4
0.011612400263699247
% es.normE (V/m) @ t=0.42
1.0944814552234159
% es.EX (V/m) @ t=0.42
0.7602345544255262
% es.EY (V/m) @ t=0.42
0.11383697990319414
% es.EZ (V/m) @ t=0.42
-0.7591268936202962
% es.tEX (V/m) @ t=0.42
0.7602345544255269
% es.tEY (V/m) @ t=0.42
0
% es.tEZ (V/m) @ t=0.42
-0.7591268936202855
% es.Ex (V/m) @ t=0.42
0.7602345544255262
% es.Ey (V/m) @ t=0.42
0.11383697990319414
% es.Ez (V/m) @ t=0.42
-0.7591268936202962
% es.tEx (V/m) @ t=0.42
0.7602345544255269
% es.tEy (V/m) @ t=0.42
0
% es.tEz (V/m) @ t=0.42
-0.7591268936202855
% V (V) @ t=0.42
0.011720418493444714
% es.normE (V/m) @ t=0.44
1.104569120861408
% es.EX (V/m) @ t=0.44
0.7672414986282365
% es.EY (V/m) @ t=0.44
0.11488631226567136
% es.EZ (V/m) @ t=0.44
-0.7661236362257489
% es.tEX (V/m) @ t=0.44
0.767241498628239
% es.tEY (V/m) @ t=0.44
0
% es.tEZ (V/m) @ t=0.44
-0.7661236362257311
% es.Ex (V/m) @ t=0.44
0.7672414986282365
% es.Ey (V/m) @ t=0.44
0.11488631226567136
% es.Ez (V/m) @ t=0.44
-0.7661236362257489
% es.tEx (V/m) @ t=0.44
0.767241498628239
% es.tEy (V/m) @ t=0.44
0
% es.tEz (V/m) @ t=0.44
-0.7661236362257311
% V (V) @ t=0.44
0.011828436723190179
% es.normE (V/m) @ t=0.46
1.114656786499426
% es.EX (V/m) @ t=0.46
0.7742484428309491
% es.EY (V/m) @ t=0.46
0.11593564462813355
% es.EZ (V/m) @ t=0.46
-0.7731203788312162
% es.tEX (V/m) @ t=0.46
0.7742484428309506
% es.tEY (V/m) @ t=0.46
0
% es.tEZ (V/m) @ t=0.46
-0.7731203788312051
% es.Ex (V/m) @ t=0.46
0.7742484428309491
% es.Ey (V/m) @ t=0.46
0.11593564462813355
% es.Ez (V/m) @ t=0.46
-0.7731203788312162
% es.tEx (V/m) @ t=0.46
0.7742484428309506
% es.tEy (V/m) @ t=0.46
0
% es.tEz (V/m) @ t=0.46
-0.7731203788312051
% V (V) @ t=0.46
0.011936454952935643
% es.normE (V/m) @ t=0.48
1.124744452137455
% es.EX (V/m) @ t=0.48
0.7812553870336589
% es.EY (V/m) @ t=0.48
0.11698497699062393
% es.EZ (V/m) @ t=0.48
-0.7801171214366769
% es.tEX (V/m) @ t=0.48
0.7812553870336632
% es.tEY (V/m) @ t=0.48
0
% es.tEZ (V/m) @ t=0.48
-0.7801171214366587
% es.Ex (V/m) @ t=0.48
0.7812553870336589
% es.Ey (V/m) @ t=0.48
0.11698497699062393
% es.Ez (V/m) @ t=0.48
-0.7801171214366769
% es.tEx (V/m) @ t=0.48
0.7812553870336632
% es.tEy (V/m) @ t=0.48
0
% es.tEz (V/m) @ t=0.48
-0.7801171214366587
% V (V) @ t=0.48
0.01204447318268111
% es.normE (V/m) @ t=0.5
1.1348321177754834
% es.EX (V/m) @ t=0.5
0.788262331236365
% es.EY (V/m) @ t=0.5
0.11803430935310388
% es.EZ (V/m) @ t=0.5
-0.7871138640421198
% es.tEX (V/m) @ t=0.5
0.7882623312363708
% es.tEY (V/m) @ t=0.5
0
% es.tEZ (V/m) @ t=0.5
-0.7871138640421051
% es.Ex (V/m) @ t=0.5
0.788262331236365
% es.Ey (V/m) @ t=0.5
0.11803430935310388
% es.Ez (V/m) @ t=0.5
-0.7871138640421198
% es.tEx (V/m) @ t=0.5
0.7882623312363708
% es.tEy (V/m) @ t=0.5
0
% es.tEz (V/m) @ t=0.5
-0.7871138640421051
% V (V) @ t=0.5
0.012152491412426575
% es.normE (V/m) @ t=0.52
1.1449197834135414
% es.EX (V/m) @ t=0.52
0.7952692754390764
% es.EY (V/m) @ t=0.52
0.11908364171559249
% es.EZ (V/m) @ t=0.52
-0.7941106066475836
% es.tEX (V/m) @ t=0.52
0.7952692754390789
% es.tEY (V/m) @ t=0.52
0
% es.tEZ (V/m) @ t=0.52
-0.7941106066475729
% es.Ex (V/m) @ t=0.52
0.7952692754390764
% es.Ey (V/m) @ t=0.52
0.11908364171559249
% es.Ez (V/m) @ t=0.52
-0.7941106066475836
% es.tEx (V/m) @ t=0.52
0.7952692754390789
% es.tEy (V/m) @ t=0.52
0
% es.tEz (V/m) @ t=0.52
-0.7941106066475729
% V (V) @ t=0.52
0.012260509642172042
% es.normE (V/m) @ t=0.54
1.155579609472757
% es.EX (V/m) @ t=0.54
0.802673666458029
% es.EY (V/m) @ t=0.54
0.12019236547695555
% es.EZ (V/m) @ t=0.54
-0.8015042096941962
% es.tEX (V/m) @ t=0.54
0.802673666458031
% es.tEY (V/m) @ t=0.54
0
% es.tEZ (V/m) @ t=0.54
-0.8015042096941851
% es.Ex (V/m) @ t=0.54
0.802673666458029
% es.Ey (V/m) @ t=0.54
0.12019236547695555
% es.Ez (V/m) @ t=0.54
-0.8015042096941962
% es.tEx (V/m) @ t=0.54
0.802673666458031
% es.tEy (V/m) @ t=0.54
0
% es.tEz (V/m) @ t=0.54
-0.8015042096941851
% V (V) @ t=0.54
0.01237466224384437
% es.normE (V/m) @ t=0.56
1.1668016299387456
% es.EX (V/m) @ t=0.56
0.8104685814783124
% es.EY (V/m) @ t=0.56
0.12135944614494804
% es.EZ (V/m) @ t=0.56
-0.8092877605806863
% es.tEX (V/m) @ t=0.56
0.8104685814783137
% es.tEY (V/m) @ t=0.56
0
% es.tEZ (V/m) @ t=0.56
-0.8092877605806752
% es.Ex (V/m) @ t=0.56
0.8104685814783124
% es.Ey (V/m) @ t=0.56
0.12135944614494804
% es.Ez (V/m) @ t=0.56
-0.8092877605806863
% es.tEx (V/m) @ t=0.56
0.8104685814783137
% es.tEy (V/m) @ t=0.56
0
% es.tEz (V/m) @ t=0.56
-0.8092877605806752
% V (V) @ t=0.56
0.012494842367621984
% es.normE (V/m) @ t=0.58
1.1780236504047572
% es.EX (V/m) @ t=0.58
0.8182634964985993
% es.EY (V/m) @ t=0.58
0.12252652681294252
% es.EZ (V/m) @ t=0.58
-0.8170713114671755
% es.tEX (V/m) @ t=0.58
0.8182634964986084
% es.tEY (V/m) @ t=0.58
0
% es.tEZ (V/m) @ t=0.58
-0.8170713114671644
% es.Ex (V/m) @ t=0.58
0.8182634964985993
% es.Ey (V/m) @ t=0.58
0.12252652681294252
% es.Ez (V/m) @ t=0.58
-0.8170713114671755
% es.tEx (V/m) @ t=0.58
0.8182634964986084
% es.tEy (V/m) @ t=0.58
0
% es.tEz (V/m) @ t=0.58
-0.8170713114671644
% V (V) @ t=0.58
0.0126150224913996
% es.normE (V/m) @ t=0.6
1.1892456708707995
% es.EX (V/m) @ t=0.6
0.8260584115188934
% es.EY (V/m) @ t=0.6
0.12369360748093483
% es.EZ (V/m) @ t=0.6
-0.8248548623536762
% es.tEX (V/m) @ t=0.6
0.8260584115188983
% es.tEY (V/m) @ t=0.6
0
% es.tEZ (V/m) @ t=0.6
-0.8248548623536616
% es.Ex (V/m) @ t=0.6
0.8260584115188934
% es.Ey (V/m) @ t=0.6
0.12369360748093483
% es.Ez (V/m) @ t=0.6
-0.8248548623536762
% es.tEx (V/m) @ t=0.6
0.8260584115188983
% es.tEy (V/m) @ t=0.6
0
% es.tEz (V/m) @ t=0.6
-0.8248548623536616
% V (V) @ t=0.6
0.012735202615177214
% es.normE (V/m) @ t=0.62
1.2004676913368222
% es.EX (V/m) @ t=0.62
0.8338533265391763
% es.EY (V/m) @ t=0.62
0.1248606881489222
% es.EZ (V/m) @ t=0.62
-0.832638413240141
% es.tEX (V/m) @ t=0.62
0.8338533265391797
% es.tEY (V/m) @ t=0.62
0
% es.tEZ (V/m) @ t=0.62
-0.8326384132401303
% es.Ex (V/m) @ t=0.62
0.8338533265391763
% es.Ey (V/m) @ t=0.62
0.1248606881489222
% es.Ez (V/m) @ t=0.62
-0.832638413240141
% es.tEx (V/m) @ t=0.62
0.8338533265391797
% es.tEy (V/m) @ t=0.62
0
% es.tEz (V/m) @ t=0.62
-0.8326384132401303
% V (V) @ t=0.62
0.012855382738954828
% es.normE (V/m) @ t=0.64
1.2116897118028929
% es.EX (V/m) @ t=0.64
0.8416482415594693
% es.EY (V/m) @ t=0.64
0.1260277688168971
% es.EZ (V/m) @ t=0.64
-0.8404219641266377
% es.tEX (V/m) @ t=0.64
0.8416482415594744
% es.tEY (V/m) @ t=0.64
0
% es.tEZ (V/m) @ t=0.64
-0.8404219641266195
% es.Ex (V/m) @ t=0.64
0.8416482415594693
% es.Ey (V/m) @ t=0.64
0.1260277688168971
% es.Ez (V/m) @ t=0.64
-0.8404219641266377
% es.tEx (V/m) @ t=0.64
0.8416482415594744
% es.tEy (V/m) @ t=0.64
0
% es.tEz (V/m) @ t=0.64
-0.8404219641266195
% V (V) @ t=0.64
0.012975562862732442
% es.normE (V/m) @ t=0.66
1.2229117322689684
% es.EX (V/m) @ t=0.66
0.8494431565797524
% es.EY (V/m) @ t=0.66
0.12719484948490578
% es.EZ (V/m) @ t=0.66
-0.8482055150131269
% es.tEX (V/m) @ t=0.66
0.849443156579754
% es.tEY (V/m) @ t=0.66
0
% es.tEZ (V/m) @ t=0.66
-0.8482055150131087
% es.Ex (V/m) @ t=0.66
0.8494431565797524
% es.Ey (V/m) @ t=0.66
0.12719484948490578
% es.Ez (V/m) @ t=0.66
-0.8482055150131269
% es.tEx (V/m) @ t=0.66
0.849443156579754
% es.tEy (V/m) @ t=0.66
0
% es.tEz (V/m) @ t=0.66
-0.8482055150131087
% V (V) @ t=0.66
0.013095742986510056
% es.normE (V/m) @ t=0.68
1.2341337527350578
% es.EX (V/m) @ t=0.68
0.8572380716000343
% es.EY (V/m) @ t=0.68
0.1283619301528821
% es.EZ (V/m) @ t=0.68
-0.855989065899617
% es.tEX (V/m) @ t=0.68
0.8572380716000447
% es.tEY (V/m) @ t=0.68
0
% es.tEZ (V/m) @ t=0.68
-0.8559890658996059
% es.Ex (V/m) @ t=0.68
0.8572380716000343
% es.Ey (V/m) @ t=0.68
0.1283619301528821
% es.Ez (V/m) @ t=0.68
-0.855989065899617
% es.tEx (V/m) @ t=0.68
0.8572380716000447
% es.tEy (V/m) @ t=0.68
0
% es.tEz (V/m) @ t=0.68
-0.8559890658996059
% V (V) @ t=0.68
0.01321592311028767
% es.normE (V/m) @ t=0.7
1.2453557732011713
% es.EX (V/m) @ t=0.7
0.8650329866203228
% es.EY (V/m) @ t=0.7
0.1295290108208615
% es.EZ (V/m) @ t=0.7
-0.8637726167861133
% es.tEX (V/m) @ t=0.7
0.8650329866203244
% es.tEY (V/m) @ t=0.7
0
% es.tEZ (V/m) @ t=0.7
-0.8637726167860951
% es.Ex (V/m) @ t=0.7
0.8650329866203228
% es.Ey (V/m) @ t=0.7
0.1295290108208615
% es.Ez (V/m) @ t=0.7
-0.8637726167861133
% es.tEx (V/m) @ t=0.7
0.8650329866203244
% es.tEy (V/m) @ t=0.7
0
% es.tEz (V/m) @ t=0.7
-0.8637726167860951
% V (V) @ t=0.7
0.013336103234065288
% es.normE (V/m) @ t=0.72
1.2565777936672964
% es.EX (V/m) @ t=0.72
0.8728279016406175
% es.EY (V/m) @ t=0.72
0.13069609148885936
% es.EZ (V/m) @ t=0.72
-0.8715561676726034
% es.tEX (V/m) @ t=0.72
0.8728279016406186
% es.tEY (V/m) @ t=0.72
0
% es.tEZ (V/m) @ t=0.72
-0.8715561676725923
% es.Ex (V/m) @ t=0.72
0.8728279016406175
% es.Ey (V/m) @ t=0.72
0.13069609148885936
% es.Ez (V/m) @ t=0.72
-0.8715561676726034
% es.tEx (V/m) @ t=0.72
0.8728279016406186
% es.tEy (V/m) @ t=0.72
0
% es.tEz (V/m) @ t=0.72
-0.8715561676725923
% V (V) @ t=0.72
0.0134562833578429
% es.normE (V/m) @ t=0.74
1.2677998141334244
% es.EX (V/m) @ t=0.74
0.8806228166609016
% es.EY (V/m) @ t=0.74
0.13186317215683424
% es.EZ (V/m) @ t=0.74
-0.8793397185590854
% es.tEX (V/m) @ t=0.74
0.8806228166609067
% es.tEY (V/m) @ t=0.74
0
% es.tEZ (V/m) @ t=0.74
-0.8793397185590672
% es.Ex (V/m) @ t=0.74
0.8806228166609016
% es.Ey (V/m) @ t=0.74
0.13186317215683424
% es.Ez (V/m) @ t=0.74
-0.8793397185590854
% es.tEx (V/m) @ t=0.74
0.8806228166609067
% es.tEy (V/m) @ t=0.74
0
% es.tEz (V/m) @ t=0.74
-0.8793397185590672
% V (V) @ t=0.74
0.013576463481620516
% es.normE (V/m) @ t=0.76
1.279021834599583
% es.EX (V/m) @ t=0.76
0.8884177316811923
% es.EY (V/m) @ t=0.76
0.13303025282485353
% es.EZ (V/m) @ t=0.76
-0.8871232694455817
% es.tEX (V/m) @ t=0.76
0.888417731681197
% es.tEY (V/m) @ t=0.76
0
% es.tEZ (V/m) @ t=0.76
-0.8871232694455635
% es.Ex (V/m) @ t=0.76
0.8884177316811923
% es.Ey (V/m) @ t=0.76
0.13303025282485353
% es.Ez (V/m) @ t=0.76
-0.8871232694455817
% es.tEx (V/m) @ t=0.76
0.888417731681197
% es.tEy (V/m) @ t=0.76
0
% es.tEz (V/m) @ t=0.76
-0.8871232694455635
% V (V) @ t=0.76
0.01369664360539813
% es.normE (V/m) @ t=0.78
1.2902438550657405
% es.EX (V/m) @ t=0.78
0.8962126467014773
% es.EY (V/m) @ t=0.78
0.13419733349281943
% es.EZ (V/m) @ t=0.78
-0.8949068203320647
% es.tEX (V/m) @ t=0.78
0.8962126467014806
% es.tEY (V/m) @ t=0.78
0
% es.tEZ (V/m) @ t=0.78
-0.8949068203320536
% es.Ex (V/m) @ t=0.78
0.8962126467014773
% es.Ey (V/m) @ t=0.78
0.13419733349281943
% es.Ez (V/m) @ t=0.78
-0.8949068203320647
% es.tEx (V/m) @ t=0.78
0.8962126467014806
% es.tEy (V/m) @ t=0.78
0
% es.tEz (V/m) @ t=0.78
-0.8949068203320536
% V (V) @ t=0.78
0.013816823729175745
% es.normE (V/m) @ t=0.8
1.3018013454837036
% es.EX (V/m) @ t=0.8
0.9042405691931859
% es.EY (V/m) @ t=0.8
0.13539938000824897
% es.EZ (V/m) @ t=0.8
-0.9029230434408926
% es.tEX (V/m) @ t=0.8
0.904240569193187
% es.tEY (V/m) @ t=0.8
0
% es.tEZ (V/m) @ t=0.8
-0.9029230434408779
% es.Ex (V/m) @ t=0.8
0.9042405691931859
% es.Ey (V/m) @ t=0.8
0.13539938000824897
% es.Ez (V/m) @ t=0.8
-0.9029230434408926
% es.tEx (V/m) @ t=0.8
0.904240569193187
% es.tEy (V/m) @ t=0.8
0
% es.tEz (V/m) @ t=0.8
-0.9029230434408779
% V (V) @ t=0.8
0.013940591770994357
% es.normE (V/m) @ t=0.82
1.314306533491247
% es.EX (V/m) @ t=0.82
0.9129267343019787
% es.EY (V/m) @ t=0.82
0.13670020451900744
% es.EZ (V/m) @ t=0.82
-0.9115965620931412
% es.tEX (V/m) @ t=0.82
0.9129267343019833
% es.tEY (V/m) @ t=0.82
0
% es.tEZ (V/m) @ t=0.82
-0.9115965620931306
% es.Ex (V/m) @ t=0.82
0.9129267343019787
% es.Ey (V/m) @ t=0.82
0.13670020451900744
% es.Ez (V/m) @ t=0.82
-0.9115965620931412
% es.tEx (V/m) @ t=0.82
0.9129267343019833
% es.tEy (V/m) @ t=0.82
0
% es.tEz (V/m) @ t=0.82
-0.9115965620931306
% V (V) @ t=0.82
0.01407449562754368
% es.normE (V/m) @ t=0.84
1.3268117214988095
% es.EX (V/m) @ t=0.84
0.9216128994107746
% es.EY (V/m) @ t=0.84
0.13800102902978206
% es.EZ (V/m) @ t=0.84
-0.9202700807453676
% es.tEX (V/m) @ t=0.84
0.9216128994107793
% es.tEY (V/m) @ t=0.84
0
% es.tEZ (V/m) @ t=0.84
-0.920270080745353
% es.Ex (V/m) @ t=0.84
0.9216128994107746
% es.Ey (V/m) @ t=0.84
0.13800102902978206
% es.Ez (V/m) @ t=0.84
-0.9202700807453676
% es.tEx (V/m) @ t=0.84
0.9216128994107793
% es.tEy (V/m) @ t=0.84
0
% es.tEz (V/m) @ t=0.84
-0.920270080745353
% V (V) @ t=0.84
0.014208399484092998
% es.normE (V/m) @ t=0.86
1.339316909506416
% es.EX (V/m) @ t=0.86
0.9302990645195666
% es.EY (V/m) @ t=0.86
0.13930185354054964
% es.EZ (V/m) @ t=0.86
-0.92894359939763
% es.tEX (V/m) @ t=0.86
0.9302990645195703
% es.tEY (V/m) @ t=0.86
0
% es.tEZ (V/m) @ t=0.86
-0.9289435993976118
% es.Ex (V/m) @ t=0.86
0.9302990645195666
% es.Ey (V/m) @ t=0.86
0.13930185354054964
% es.Ez (V/m) @ t=0.86
-0.92894359939763
% es.tEx (V/m) @ t=0.86
0.9302990645195703
% es.tEy (V/m) @ t=0.86
0
% es.tEz (V/m) @ t=0.86
-0.9289435993976118
% V (V) @ t=0.86
0.014342303340642317
% es.normE (V/m) @ t=0.88
1.351822097514033
% es.EX (V/m) @ t=0.88
0.9389852296283574
% es.EY (V/m) @ t=0.88
0.1406026780513241
% es.EZ (V/m) @ t=0.88
-0.9376171180498605
% es.tEX (V/m) @ t=0.88
0.9389852296283583
% es.tEY (V/m) @ t=0.88
0
% es.tEZ (V/m) @ t=0.88
-0.9376171180498423
% es.Ex (V/m) @ t=0.88
0.9389852296283574
% es.Ey (V/m) @ t=0.88
0.1406026780513241
% es.Ez (V/m) @ t=0.88
-0.9376171180498605
% es.tEx (V/m) @ t=0.88
0.9389852296283583
% es.tEy (V/m) @ t=0.88
0
% es.tEz (V/m) @ t=0.88
-0.9376171180498423
% V (V) @ t=0.88
0.01447620719719164
% es.normE (V/m) @ t=0.9
1.3643272855216833
% es.EX (V/m) @ t=0.9
0.9476713947371607
% es.EY (V/m) @ t=0.9
0.1419035025621047
% es.EZ (V/m) @ t=0.9
-0.9462906367020985
% es.tEX (V/m) @ t=0.9
0.9476713947371618
% es.tEY (V/m) @ t=0.9
0
% es.tEZ (V/m) @ t=0.9
-0.9462906367020807
% es.Ex (V/m) @ t=0.9
0.9476713947371607
% es.Ey (V/m) @ t=0.9
0.1419035025621047
% es.Ez (V/m) @ t=0.9
-0.9462906367020985
% es.tEx (V/m) @ t=0.9
0.9476713947371618
% es.tEy (V/m) @ t=0.9
0
% es.tEz (V/m) @ t=0.9
-0.9462906367020807
% V (V) @ t=0.9
0.014610111053740955
% es.normE (V/m) @ t=0.92
1.3768324735293747
% es.EX (V/m) @ t=0.92
0.9563575598459522
% es.EY (V/m) @ t=0.92
0.1432043270728543
% es.EZ (V/m) @ t=0.92
-0.954964155354372
% es.tEX (V/m) @ t=0.92
0.9563575598459528
% es.tEY (V/m) @ t=0.92
0
% es.tEZ (V/m) @ t=0.92
-0.9549641553543537
% es.Ex (V/m) @ t=0.92
0.9563575598459522
% es.Ey (V/m) @ t=0.92
0.1432043270728543
% es.Ez (V/m) @ t=0.92
-0.954964155354372
% es.tEx (V/m) @ t=0.92
0.9563575598459528
% es.tEy (V/m) @ t=0.92
0
% es.tEz (V/m) @ t=0.92
-0.9549641553543537
% V (V) @ t=0.92
0.014744014910290279
% es.normE (V/m) @ t=0.94
1.389337661537056
% es.EX (V/m) @ t=0.94
0.9650437249547481
% es.EY (V/m) @ t=0.94
0.1445051515836261
% es.EZ (V/m) @ t=0.94
-0.9636376740065882
% es.tEX (V/m) @ t=0.94
0.9650437249547519
% es.tEY (V/m) @ t=0.94
0
% es.tEZ (V/m) @ t=0.94
-0.96363767400657
% es.Ex (V/m) @ t=0.94
0.9650437249547481
% es.Ey (V/m) @ t=0.94
0.1445051515836261
% es.Ez (V/m) @ t=0.94
-0.9636376740065882
% es.tEx (V/m) @ t=0.94
0.9650437249547519
% es.tEy (V/m) @ t=0.94
0
% es.tEz (V/m) @ t=0.94
-0.96363767400657
% V (V) @ t=0.94
0.014877918766839601
% es.normE (V/m) @ t=0.96
1.4018428495447925
% es.EX (V/m) @ t=0.96
0.9737298900635427
% es.EY (V/m) @ t=0.96
0.14580597609439788
% es.EZ (V/m) @ t=0.96
-0.9723111926588541
% es.tEX (V/m) @ t=0.96
0.9737298900635465
% es.tEY (V/m) @ t=0.96
0
% es.tEZ (V/m) @ t=0.96
-0.9723111926588359
% es.Ex (V/m) @ t=0.96
0.9737298900635427
% es.Ey (V/m) @ t=0.96
0.14580597609439788
% es.Ez (V/m) @ t=0.96
-0.9723111926588541
% es.tEx (V/m) @ t=0.96
0.9737298900635465
% es.tEy (V/m) @ t=0.96
0
% es.tEz (V/m) @ t=0.96
-0.9723111926588359
% V (V) @ t=0.96
0.01501182262338892
% es.normE (V/m) @ t=0.98
1.4143480375525184
% es.EX (V/m) @ t=0.98
0.9824160551723355
% es.EY (V/m) @ t=0.98
0.14710680060514947
% es.EZ (V/m) @ t=0.98
-0.9809847113110703
% es.tEX (V/m) @ t=0.98
0.9824160551723393
% es.tEY (V/m) @ t=0.98
0
% es.tEZ (V/m) @ t=0.98
-0.9809847113110521
% es.Ex (V/m) @ t=0.98
0.9824160551723355
% es.Ey (V/m) @ t=0.98
0.14710680060514947
% es.Ez (V/m) @ t=0.98
-0.9809847113110703
% es.tEx (V/m) @ t=0.98
0.9824160551723393
% es.tEy (V/m) @ t=0.98
0
% es.tEz (V/m) @ t=0.98
-0.9809847113110521
% V (V) @ t=0.98
0.01514572647993824
% es.normE (V/m) @ t=1
1.4268532255603
% es.EX (V/m) @ t=1
0.991102220281127
% es.EY (V/m) @ t=1
0.1484076251159292
% es.EZ (V/m) @ t=1
-0.9896582299633363
% es.tEX (V/m) @ t=1
0.9911022202811313
% es.tEY (V/m) @ t=1
0
% es.tEZ (V/m) @ t=1
-0.9896582299633181
% es.Ex (V/m) @ t=1
0.991102220281127
% es.Ey (V/m) @ t=1
0.1484076251159292
% es.Ez (V/m) @ t=1
-0.9896582299633363
% es.tEx (V/m) @ t=1
0.9911022202811313
% es.tEy (V/m) @ t=1
0
% es.tEz (V/m) @ t=1
-0.9896582299633181
% V (V) @ t=1
0.015279630336487562
% es.normE (V/m) @ t=1.02
1.4393584135680748
% es.EX (V/m) @ t=1.02
0.9997883853899172
% es.EY (V/m) @ t=1.02
0.14970844962668411
% es.EZ (V/m) @ t=1.02
-0.9983317486155676
% es.tEX (V/m) @ t=1.02
0.9997883853899228
% es.tEY (V/m) @ t=1.02
0
% es.tEZ (V/m) @ t=1.02
-0.9983317486155565
% es.Ex (V/m) @ t=1.02
0.9997883853899172
% es.Ey (V/m) @ t=1.02
0.14970844962668411
% es.Ez (V/m) @ t=1.02
-0.9983317486155676
% es.tEx (V/m) @ t=1.02
0.9997883853899228
% es.tEy (V/m) @ t=1.02
0
% es.tEz (V/m) @ t=1.02
-0.9983317486155565
% V (V) @ t=1.02
0.015413534193036881
% es.normE (V/m) @ t=1.04
1.4518636015758941
% es.EX (V/m) @ t=1.04
1.0084745504987167
% es.EY (V/m) @ t=1.04
0.1510092741374685
% es.EZ (V/m) @ t=1.04
-1.0070052672678185
% es.tEX (V/m) @ t=1.04
1.0084745504987223