% Model:              1 neuron.mph
% Version:            COMSOL 6.1.0.252
% Date:               Mar 18 2023, 13:24
% Dimension:          0
% Nodes:              14017
% Expressions:        14017
% Description:        Electric field norm, Electric field, X component, Electric field, Y component, Electric field, Z component, Tangential electric field, X component, Tangential electric field, Y component, Tangential electric field, Z component, Electric field, x component, Electric field, y component, Electric field, z component, Tangential electric field, x component, Tangential electric field, y component, Tangential electric field, z component, Electric potential
% Length unit:        mm
% x
1.33
% y
12.2
% z
1.33
% es.normE (V/m) @ t=0
11.681723053413634
% es.EX (V/m) @ t=0
9.051982068056088
% es.EY (V/m) @ t=0
-1.3870321009079465
% es.EZ (V/m) @ t=0
7.231551077543784
% es.tEX (V/m) @ t=0
9.051982068056114
% es.tEY (V/m) @ t=0
0
% es.tEZ (V/m) @ t=0
7.2315510775437835
% es.Ex (V/m) @ t=0
9.051982068056088
% es.Ey (V/m) @ t=0
-1.3870321009079465
% es.Ez (V/m) @ t=0
7.231551077543784
% es.tEx (V/m) @ t=0
9.051982068056114
% es.tEy (V/m) @ t=0
0
% es.tEz (V/m) @ t=0
7.2315510775437835
% V (V) @ t=0
0.009647150887743441
% es.normE (V/m) @ t=0.02
10.089628269230797
% es.EX (V/m) @ t=0.02
7.818293050884754
% es.EY (V/m) @ t=0.02
-1.1979943529144172
% es.EZ (V/m) @ t=0.02
6.245967470295087
% es.tEX (V/m) @ t=0.02
7.8182930508847885
% es.tEY (V/m) @ t=0.02
0
% es.tEZ (V/m) @ t=0.02
6.2459674702950805
% es.Ex (V/m) @ t=0.02
7.818293050884754
% es.Ey (V/m) @ t=0.02
-1.1979943529144172
% es.Ez (V/m) @ t=0.02
6.245967470295087
% es.tEx (V/m) @ t=0.02
7.8182930508847885
% es.tEy (V/m) @ t=0.02
0
% es.tEz (V/m) @ t=0.02
6.2459674702950805
% V (V) @ t=0.02
0.008332346671785836
% es.normE (V/m) @ t=0.04
10.182449521296775
% es.EX (V/m) @ t=0.04
7.890218768746097
% es.EY (V/m) @ t=0.04
-1.2090154995902278
% es.EZ (V/m) @ t=0.04
6.303428311668653
% es.tEX (V/m) @ t=0.04
7.890218768746127
% es.tEY (V/m) @ t=0.04
0
% es.tEZ (V/m) @ t=0.04
6.3034283116686645
% es.Ex (V/m) @ t=0.04
7.890218768746097
% es.Ey (V/m) @ t=0.04
-1.2090154995902278
% es.Ez (V/m) @ t=0.04
6.303428311668653
% es.tEx (V/m) @ t=0.04
7.890218768746127
% es.tEy (V/m) @ t=0.04
0
% es.tEz (V/m) @ t=0.04
6.3034283116686645
% V (V) @ t=0.04
0.008409001497704323
% es.normE (V/m) @ t=0.06
10.276000021800098
% es.EX (V/m) @ t=0.06
7.962709567888021
% es.EY (V/m) @ t=0.06
-1.2201232521227752
% es.EZ (V/m) @ t=0.06
6.361340590508997
% es.tEX (V/m) @ t=0.06
7.96270956788803
% es.tEY (V/m) @ t=0.06
0
% es.tEZ (V/m) @ t=0.06
6.361340590509012
% es.Ex (V/m) @ t=0.06
7.962709567888021
% es.Ey (V/m) @ t=0.06
-1.2201232521227752
% es.Ez (V/m) @ t=0.06
6.361340590508997
% es.tEx (V/m) @ t=0.06
7.96270956788803
% es.tEy (V/m) @ t=0.06
0
% es.tEz (V/m) @ t=0.06
6.361340590509012
% V (V) @ t=0.06
0.008486258605318061
% es.normE (V/m) @ t=0.08
10.371226759749991
% es.EX (V/m) @ t=0.08
8.036499257752574
% es.EY (V/m) @ t=0.08
-1.2314300237455669
% es.EZ (V/m) @ t=0.08
6.420290542651177
% es.tEX (V/m) @ t=0.08
8.036499257752594
% es.tEY (V/m) @ t=0.08
0
% es.tEZ (V/m) @ t=0.08
6.420290542651164
% es.Ex (V/m) @ t=0.08
8.036499257752574
% es.Ey (V/m) @ t=0.08
-1.2314300237455669
% es.Ez (V/m) @ t=0.08
6.420290542651177
% es.tEx (V/m) @ t=0.08
8.036499257752594
% es.tEy (V/m) @ t=0.08
0
% es.tEz (V/m) @ t=0.08
6.420290542651164
% V (V) @ t=0.08
0.008564899982396675
% es.normE (V/m) @ t=0.1
10.467101815187803
% es.EX (V/m) @ t=0.1
8.11079131890828
% es.EY (V/m) @ t=0.1
-1.2428137698787936
% es.EZ (V/m) @ t=0.1
6.479641835158203
% es.tEX (V/m) @ t=0.1
8.110791318908305
% es.tEY (V/m) @ t=0.1
0
% es.tEZ (V/m) @ t=0.1
6.479641835158198
% es.Ex (V/m) @ t=0.1
8.11079131890828
% es.Ey (V/m) @ t=0.1
-1.2428137698787936
% es.Ez (V/m) @ t=0.1
6.479641835158203
% es.tEx (V/m) @ t=0.1
8.110791318908305
% es.tEy (V/m) @ t=0.1
0
% es.tEz (V/m) @ t=0.1
6.479641835158198
% V (V) @ t=0.1
0.008644076752658384
% es.normE (V/m) @ t=0.12
10.562976870625647
% es.EX (V/m) @ t=0.12
8.185083380064022
% es.EY (V/m) @ t=0.12
-1.2541975160119545
% es.EZ (V/m) @ t=0.12
6.538993127665247
% es.tEX (V/m) @ t=0.12
8.185083380064043
% es.tEY (V/m) @ t=0.12
0
% es.tEZ (V/m) @ t=0.12
6.538993127665235
% es.Ex (V/m) @ t=0.12
8.185083380064022
% es.Ey (V/m) @ t=0.12
-1.2541975160119545
% es.Ez (V/m) @ t=0.12
6.538993127665247
% es.tEx (V/m) @ t=0.12
8.185083380064043
% es.tEy (V/m) @ t=0.12
0
% es.tEz (V/m) @ t=0.12
6.538993127665235
% V (V) @ t=0.12
0.008723253522920095
% es.normE (V/m) @ t=0.14
10.661068978842938
% es.EX (V/m) @ t=0.14
8.261093400186887
% es.EY (V/m) @ t=0.14
-1.2658445054454592
% es.EZ (V/m) @ t=0.14
6.599716882834642
% es.tEX (V/m) @ t=0.14
8.261093400186908
% es.tEY (V/m) @ t=0.14
0
% es.tEZ (V/m) @ t=0.14
6.599716882834625
% es.Ex (V/m) @ t=0.14
8.261093400186887
% es.Ey (V/m) @ t=0.14
-1.2658445054454592
% es.Ez (V/m) @ t=0.14
6.599716882834642
% es.tEx (V/m) @ t=0.14
8.261093400186908
% es.tEy (V/m) @ t=0.14
0
% es.tEz (V/m) @ t=0.14
6.599716882834625
% V (V) @ t=0.14
0.008804261210718345
% es.normE (V/m) @ t=0.16
10.76185141933798
% es.EX (V/m) @ t=0.16
8.339188116039121
% es.EY (V/m) @ t=0.16
-1.2778109333489027
% es.EZ (V/m) @ t=0.16
6.662106083515683
% es.tEX (V/m) @ t=0.16
8.339188116039145
% es.tEY (V/m) @ t=0.16
0
% es.tEZ (V/m) @ t=0.16
6.662106083515661
% es.Ex (V/m) @ t=0.16
8.339188116039121
% es.Ey (V/m) @ t=0.16
-1.2778109333489027
% es.Ez (V/m) @ t=0.16
6.662106083515683
% es.tEx (V/m) @ t=0.16
8.339188116039145
% es.tEy (V/m) @ t=0.16
0
% es.tEz (V/m) @ t=0.16
6.662106083515661
% V (V) @ t=0.16
0.008887490666348244
% es.normE (V/m) @ t=0.18
10.862633859833004
% es.EX (V/m) @ t=0.18
8.417282831891342
% es.EY (V/m) @ t=0.18
-1.2897773612523782
% es.EZ (V/m) @ t=0.18
6.724495284196701
% es.tEX (V/m) @ t=0.18
8.417282831891368
% es.tEY (V/m) @ t=0.18
0
% es.tEZ (V/m) @ t=0.18
6.724495284196716
% es.Ex (V/m) @ t=0.18
8.417282831891342
% es.Ey (V/m) @ t=0.18
-1.2897773612523782
% es.Ez (V/m) @ t=0.18
6.724495284196701
% es.tEx (V/m) @ t=0.18
8.417282831891368
% es.tEy (V/m) @ t=0.18
0
% es.tEz (V/m) @ t=0.18
6.724495284196716
% V (V) @ t=0.18
0.008970720121978144
% es.normE (V/m) @ t=0.2
10.96341630032806
% es.EX (V/m) @ t=0.2
8.495377547743598
% es.EY (V/m) @ t=0.2
-1.3017437891558359
% es.EZ (V/m) @ t=0.2
6.786884484877731
% es.tEX (V/m) @ t=0.2
8.495377547743635
% es.tEY (V/m) @ t=0.2
0
% es.tEZ (V/m) @ t=0.2
6.786884484877736
% es.Ex (V/m) @ t=0.2
8.495377547743598
% es.Ey (V/m) @ t=0.2
-1.3017437891558359
% es.Ez (V/m) @ t=0.2
6.786884484877731
% es.tEx (V/m) @ t=0.2
8.495377547743635
% es.tEy (V/m) @ t=0.2
0
% es.tEz (V/m) @ t=0.2
6.786884484877736
% V (V) @ t=0.2
0.009053949577608047
% es.normE (V/m) @ t=0.22
11.064198740823132
% es.EX (V/m) @ t=0.22
8.573472263595866
% es.EY (V/m) @ t=0.22
-1.3137102170592723
% es.EZ (V/m) @ t=0.22
6.849273685558772
% es.tEX (V/m) @ t=0.22
8.573472263595901
% es.tEY (V/m) @ t=0.22
0
% es.tEZ (V/m) @ t=0.22
6.849273685558764
% es.Ex (V/m) @ t=0.22
8.573472263595866
% es.Ey (V/m) @ t=0.22
-1.3137102170592723
% es.Ez (V/m) @ t=0.22
6.849273685558772
% es.tEx (V/m) @ t=0.22
8.573472263595901
% es.tEy (V/m) @ t=0.22
0
% es.tEz (V/m) @ t=0.22
6.849273685558764
% V (V) @ t=0.22
0.00913717903323795
% es.normE (V/m) @ t=0.24
11.164981181318161
% es.EX (V/m) @ t=0.24
8.651566979448072
% es.EY (V/m) @ t=0.24
-1.3256766449627637
% es.EZ (V/m) @ t=0.24
6.9116628862398155
% es.tEX (V/m) @ t=0.24
8.651566979448097
% es.tEY (V/m) @ t=0.24
0
% es.tEZ (V/m) @ t=0.24
6.911662886239812
% es.Ex (V/m) @ t=0.24
8.651566979448072
% es.Ey (V/m) @ t=0.24
-1.3256766449627637
% es.Ez (V/m) @ t=0.24
6.9116628862398155
% es.tEx (V/m) @ t=0.24
8.651566979448097
% es.tEy (V/m) @ t=0.24
0
% es.tEz (V/m) @ t=0.24
6.911662886239812
% V (V) @ t=0.24
0.009220408488867848
% es.normE (V/m) @ t=0.26
11.265763621813242
% es.EX (V/m) @ t=0.26
8.729661695300356
% es.EY (V/m) @ t=0.26
-1.3376430728662232
% es.EZ (V/m) @ t=0.26
6.9740520869208495
% es.tEX (V/m) @ t=0.26
8.729661695300377
% es.tEY (V/m) @ t=0.26
0
% es.tEZ (V/m) @ t=0.26
6.97405208692084
% es.Ex (V/m) @ t=0.26
8.729661695300356
% es.Ey (V/m) @ t=0.26
-1.3376430728662232
% es.Ez (V/m) @ t=0.26
6.9740520869208495
% es.tEx (V/m) @ t=0.26
8.729661695300377
% es.tEy (V/m) @ t=0.26
0
% es.tEz (V/m) @ t=0.26
6.97405208692084
% V (V) @ t=0.26
0.00930363794449775
% es.normE (V/m) @ t=0.28
11.376577258367416
% es.EX (V/m) @ t=0.28
8.815529419584655
% es.EY (V/m) @ t=0.28
-1.3508006247480715
% es.EZ (V/m) @ t=0.28
7.042651073172467
% es.tEX (V/m) @ t=0.28
8.815529419584674
% es.tEY (V/m) @ t=0.28
0
% es.tEZ (V/m) @ t=0.28
7.042651073172461
% es.Ex (V/m) @ t=0.28
8.815529419584655
% es.Ey (V/m) @ t=0.28
-1.3508006247480715
% es.Ez (V/m) @ t=0.28
7.042651073172467
% es.tEx (V/m) @ t=0.28
8.815529419584674
% es.tEy (V/m) @ t=0.28
0
% es.tEz (V/m) @ t=0.28
7.042651073172461
% V (V) @ t=0.28
0.00939515165527969
% es.normE (V/m) @ t=0.3
11.48834513624903
% es.EX (V/m) @ t=0.3
8.902136569740065
% es.EY (V/m) @ t=0.3
-1.3640714851247981
% es.EZ (V/m) @ t=0.3
7.111840780011246
% es.tEX (V/m) @ t=0.3
8.902136569740092
% es.tEY (V/m) @ t=0.3
0
% es.tEZ (V/m) @ t=0.3
7.111840780011248
% es.Ex (V/m) @ t=0.3
8.902136569740065
% es.Ey (V/m) @ t=0.3
-1.3640714851247981
% es.Ez (V/m) @ t=0.3
7.111840780011246
% es.tEx (V/m) @ t=0.3
8.902136569740092
% es.tEy (V/m) @ t=0.3
0
% es.tEz (V/m) @ t=0.3
7.111840780011248
% V (V) @ t=0.3
0.00948745342549008
% es.normE (V/m) @ t=0.32
11.600113014130624
% es.EX (V/m) @ t=0.32
8.988743719895453
% es.EY (V/m) @ t=0.32
-1.3773423455015
% es.EZ (V/m) @ t=0.32
7.181030486850018
% es.tEX (V/m) @ t=0.32
8.98874371989551
% es.tEY (V/m) @ t=0.32
0
% es.tEZ (V/m) @ t=0.32
7.181030486850029
% es.Ex (V/m) @ t=0.32
8.988743719895453
% es.Ey (V/m) @ t=0.32
-1.3773423455015
% es.Ez (V/m) @ t=0.32
7.181030486850018
% es.tEx (V/m) @ t=0.32
8.98874371989551
% es.tEy (V/m) @ t=0.32
0
% es.tEz (V/m) @ t=0.32
7.181030486850029
% V (V) @ t=0.32
0.009579755195700469
% es.normE (V/m) @ t=0.34
11.71188089201226
% es.EX (V/m) @ t=0.34
9.075350870050869
% es.EY (V/m) @ t=0.34
-1.3906132058781537
% es.EZ (V/m) @ t=0.34
7.25022019368883
% es.tEX (V/m) @ t=0.34
9.0753508700509
% es.tEY (V/m) @ t=0.34
0
% es.tEZ (V/m) @ t=0.34
7.250220193688811
% es.Ex (V/m) @ t=0.34
9.075350870050869
% es.Ey (V/m) @ t=0.34
-1.3906132058781537
% es.Ez (V/m) @ t=0.34
7.25022019368883
% es.tEx (V/m) @ t=0.34
9.0753508700509
% es.tEy (V/m) @ t=0.34
0
% es.tEz (V/m) @ t=0.34
7.250220193688811
% V (V) @ t=0.34
0.009672056965910858
% es.normE (V/m) @ t=0.36
11.823648769893868
% es.EX (V/m) @ t=0.36
9.16195802020627
% es.EY (V/m) @ t=0.36
-1.4038840662548449
% es.EZ (V/m) @ t=0.36
7.319409900527602
% es.tEX (V/m) @ t=0.36
9.161958020206331
% es.tEY (V/m) @ t=0.36
0
% es.tEZ (V/m) @ t=0.36
7.3194099005276065
% es.Ex (V/m) @ t=0.36
9.16195802020627
% es.Ey (V/m) @ t=0.36
-1.4038840662548449
% es.Ez (V/m) @ t=0.36
7.319409900527602
% es.tEx (V/m) @ t=0.36
9.161958020206331
% es.tEy (V/m) @ t=0.36
0
% es.tEz (V/m) @ t=0.36
7.3194099005276065
% V (V) @ t=0.36
0.009764358736121248
% es.normE (V/m) @ t=0.38
11.935416647775524
% es.EX (V/m) @ t=0.38
9.248565170361738
% es.EY (V/m) @ t=0.38
-1.4171549266315395
% es.EZ (V/m) @ t=0.38
7.388599607366373
% es.tEX (V/m) @ t=0.38
9.248565170361749
% es.tEY (V/m) @ t=0.38
0
% es.tEZ (V/m) @ t=0.38
7.388599607366387
% es.Ex (V/m) @ t=0.38
9.248565170361738
% es.Ey (V/m) @ t=0.38
-1.4171549266315395
% es.Ez (V/m) @ t=0.38
7.388599607366373
% es.tEx (V/m) @ t=0.38
9.248565170361749
% es.tEy (V/m) @ t=0.38
0
% es.tEz (V/m) @ t=0.38
7.388599607366387
% V (V) @ t=0.38
0.009856660506331636
% es.normE (V/m) @ t=0.4
12.047184525657087
% es.EX (V/m) @ t=0.4
9.335172320517092
% es.EY (V/m) @ t=0.4
-1.430425787008211
% es.EZ (V/m) @ t=0.4
7.457789314205143
% es.tEX (V/m) @ t=0.4
9.335172320517138
% es.tEY (V/m) @ t=0.4
0
% es.tEZ (V/m) @ t=0.4
7.457789314205161
% es.Ex (V/m) @ t=0.4
9.335172320517092
% es.Ey (V/m) @ t=0.4
-1.430425787008211
% es.Ez (V/m) @ t=0.4
7.457789314205143
% es.tEx (V/m) @ t=0.4
9.335172320517138
% es.tEy (V/m) @ t=0.4
0
% es.tEz (V/m) @ t=0.4
7.457789314205161
% V (V) @ t=0.4
0.009948962276542028
% es.normE (V/m) @ t=0.42
12.158952403538784
% es.EX (V/m) @ t=0.42
9.421779470672572
% es.EY (V/m) @ t=0.42
-1.4436966473848738
% es.EZ (V/m) @ t=0.42
7.52697902104396
% es.tEX (V/m) @ t=0.42
9.421779470672599
% es.tEY (V/m) @ t=0.42
0
% es.tEZ (V/m) @ t=0.42
7.526979021043948
% es.Ex (V/m) @ t=0.42
9.421779470672572
% es.Ey (V/m) @ t=0.42
-1.4436966473848738
% es.Ez (V/m) @ t=0.42
7.52697902104396
% es.tEx (V/m) @ t=0.42
9.421779470672599
% es.tEy (V/m) @ t=0.42
0
% es.tEz (V/m) @ t=0.42
7.526979021043948
% V (V) @ t=0.42
0.010041264046752416
% es.normE (V/m) @ t=0.44
12.270720281420363
% es.EX (V/m) @ t=0.44
9.508386620827954
% es.EY (V/m) @ t=0.44
-1.456967507761556
% es.EZ (V/m) @ t=0.44
7.596168727882718
% es.tEX (V/m) @ t=0.44
9.508386620828002
% es.tEY (V/m) @ t=0.44
0
% es.tEZ (V/m) @ t=0.44
7.596168727882723
% es.Ex (V/m) @ t=0.44
9.508386620827954
% es.Ey (V/m) @ t=0.44
-1.456967507761556
% es.Ez (V/m) @ t=0.44
7.596168727882718
% es.tEx (V/m) @ t=0.44
9.508386620828002
% es.tEy (V/m) @ t=0.44
0
% es.tEz (V/m) @ t=0.44
7.596168727882723
% V (V) @ t=0.44
0.010133565816962804
% es.normE (V/m) @ t=0.46
12.382488159302035
% es.EX (V/m) @ t=0.46
9.594993770983415
% es.EY (V/m) @ t=0.46
-1.4702383681382631
% es.EZ (V/m) @ t=0.46
7.665358434721512
% es.tEX (V/m) @ t=0.46
9.59499377098342
% es.tEY (V/m) @ t=0.46
0
% es.tEZ (V/m) @ t=0.46
7.665358434721531
% es.Ex (V/m) @ t=0.46
9.594993770983415
% es.Ey (V/m) @ t=0.46
-1.4702383681382631
% es.Ez (V/m) @ t=0.46
7.665358434721512
% es.tEx (V/m) @ t=0.46
9.59499377098342
% es.tEy (V/m) @ t=0.46
0
% es.tEz (V/m) @ t=0.46
7.665358434721531
% V (V) @ t=0.46
0.010225867587173193
% es.normE (V/m) @ t=0.48
12.494256037183607
% es.EX (V/m) @ t=0.48
9.68160092113876
% es.EY (V/m) @ t=0.48
-1.4835092285149472
% es.EZ (V/m) @ t=0.48
7.734548141560294
% es.tEX (V/m) @ t=0.48
9.68160092113881
% es.tEY (V/m) @ t=0.48
0
% es.tEZ (V/m) @ t=0.48
7.734548141560291
% es.Ex (V/m) @ t=0.48
9.68160092113876
% es.Ey (V/m) @ t=0.48
-1.4835092285149472
% es.Ez (V/m) @ t=0.48
7.734548141560294
% es.tEx (V/m) @ t=0.48
9.68160092113881
% es.tEy (V/m) @ t=0.48
0
% es.tEz (V/m) @ t=0.48
7.734548141560291
% V (V) @ t=0.48
0.010318169357383583
% es.normE (V/m) @ t=0.5
12.606023915065254
% es.EX (V/m) @ t=0.5
9.768208071294211
% es.EY (V/m) @ t=0.5
-1.4967800888915992
% es.EZ (V/m) @ t=0.5
7.803737848399074
% es.tEX (V/m) @ t=0.5
9.768208071294241
% es.tEY (V/m) @ t=0.5
0
% es.tEZ (V/m) @ t=0.5
7.803737848399064
% es.Ex (V/m) @ t=0.5
9.768208071294211
% es.Ey (V/m) @ t=0.5
-1.4967800888915992
% es.Ez (V/m) @ t=0.5
7.803737848399074
% es.tEx (V/m) @ t=0.5
9.768208071294241
% es.tEy (V/m) @ t=0.5
0
% es.tEz (V/m) @ t=0.5
7.803737848399064
% V (V) @ t=0.5
0.010410471127593973
% es.normE (V/m) @ t=0.52
12.717791792946866
% es.EX (V/m) @ t=0.52
9.854815221449586
% es.EY (V/m) @ t=0.52
-1.5100509492683063
% es.EZ (V/m) @ t=0.52
7.872927555237878
% es.tEX (V/m) @ t=0.52
9.854815221449659
% es.tEY (V/m) @ t=0.52
0
% es.tEZ (V/m) @ t=0.52
7.872927555237874
% es.Ex (V/m) @ t=0.52
9.854815221449586
% es.Ey (V/m) @ t=0.52
-1.5100509492683063
% es.Ez (V/m) @ t=0.52
7.872927555237878
% es.tEx (V/m) @ t=0.52
9.854815221449659
% es.tEy (V/m) @ t=0.52
0
% es.tEz (V/m) @ t=0.52
7.872927555237874
% V (V) @ t=0.52
0.010502772897804363
% es.normE (V/m) @ t=0.54
12.839912352908474
% es.EX (V/m) @ t=0.54
9.949444506507415
% es.EY (V/m) @ t=0.54
-1.524550978802532
% es.EZ (V/m) @ t=0.54
7.948526080864143
% es.tEX (V/m) @ t=0.54
9.949444506507486
% es.tEY (V/m) @ t=0.54
0
% es.tEZ (V/m) @ t=0.54
7.948526080864157
% es.Ex (V/m) @ t=0.54
9.949444506507415
% es.Ey (V/m) @ t=0.54
-1.524550978802532
% es.Ez (V/m) @ t=0.54
7.948526080864143
% es.tEx (V/m) @ t=0.54
9.949444506507486
% es.tEy (V/m) @ t=0.54
0
% es.tEz (V/m) @ t=0.54
7.948526080864157
% V (V) @ t=0.54
0.010603624110290139
% es.normE (V/m) @ t=0.56
12.964066048979502
% es.EX (V/m) @ t=0.56
10.045649237620577
% es.EY (V/m) @ t=0.56
-1.5392924016470388
% es.EZ (V/m) @ t=0.56
8.025383217620824
% es.tEX (V/m) @ t=0.56
10.045649237620603
% es.tEY (V/m) @ t=0.56
0
% es.tEZ (V/m) @ t=0.56
8.025383217620817
% es.Ex (V/m) @ t=0.56
10.045649237620577
% es.Ey (V/m) @ t=0.56
-1.5392924016470388
% es.Ez (V/m) @ t=0.56
8.025383217620824
% es.tEx (V/m) @ t=0.56
10.045649237620603
% es.tEy (V/m) @ t=0.56
0
% es.tEz (V/m) @ t=0.56
8.025383217620817
% V (V) @ t=0.56
0.01070615432534459
% es.normE (V/m) @ t=0.58
13.088219745050491
% es.EX (V/m) @ t=0.58
10.141853968733681
% es.EY (V/m) @ t=0.58
-1.5540338244916327
% es.EZ (V/m) @ t=0.58
8.102240354377496
% es.tEX (V/m) @ t=0.58
10.141853968733693
% es.tEY (V/m) @ t=0.58
0
% es.tEZ (V/m) @ t=0.58
8.102240354377493
% es.Ex (V/m) @ t=0.58
10.141853968733681
% es.Ey (V/m) @ t=0.58
-1.5540338244916327
% es.Ez (V/m) @ t=0.58
8.102240354377496
% es.tEx (V/m) @ t=0.58
10.141853968733693
% es.tEy (V/m) @ t=0.58
0
% es.tEz (V/m) @ t=0.58
8.102240354377493
% V (V) @ t=0.58
0.01080868454039904
% es.normE (V/m) @ t=0.6
13.212373441121487
% es.EX (V/m) @ t=0.6
10.238058699846786
% es.EY (V/m) @ t=0.6
-1.5687752473361876
% es.EZ (V/m) @ t=0.6
8.179097491134184
% es.tEX (V/m) @ t=0.6
10.23805869984684
% es.tEY (V/m) @ t=0.6
0
% es.tEZ (V/m) @ t=0.6
8.179097491134165
% es.Ex (V/m) @ t=0.6
10.238058699846786
% es.Ey (V/m) @ t=0.6
-1.5687752473361876
% es.Ez (V/m) @ t=0.6
8.179097491134184
% es.tEx (V/m) @ t=0.6
10.23805869984684
% es.tEy (V/m) @ t=0.6
0
% es.tEz (V/m) @ t=0.6
8.179097491134165
% V (V) @ t=0.6
0.01091121475545349
% es.normE (V/m) @ t=0.62
13.336527137192446
% es.EX (V/m) @ t=0.62
10.334263430959847
% es.EY (V/m) @ t=0.62
-1.5835166701807886
% es.EZ (V/m) @ t=0.62
8.25595462789086
% es.tEX (V/m) @ t=0.62
10.334263430959902
% es.tEY (V/m) @ t=0.62
0
% es.tEZ (V/m) @ t=0.62
8.255954627890874
% es.Ex (V/m) @ t=0.62
10.334263430959847
% es.Ey (V/m) @ t=0.62
-1.5835166701807886
% es.Ez (V/m) @ t=0.62
8.25595462789086
% es.tEx (V/m) @ t=0.62
10.334263430959902
% es.tEy (V/m) @ t=0.62
0
% es.tEz (V/m) @ t=0.62
8.255954627890874
% V (V) @ t=0.62
0.011013744970507939
% es.normE (V/m) @ t=0.64
13.460680833263414
% es.EX (V/m) @ t=0.64
10.430468162072938
% es.EY (V/m) @ t=0.64
-1.5982580930253452
% es.EZ (V/m) @ t=0.64
8.33281176464752
% es.tEX (V/m) @ t=0.64
10.43046816207299
% es.tEY (V/m) @ t=0.64
0
% es.tEZ (V/m) @ t=0.64
8.33281176464752
% es.Ex (V/m) @ t=0.64
10.430468162072938
% es.Ey (V/m) @ t=0.64
-1.5982580930253452
% es.Ez (V/m) @ t=0.64
8.33281176464752
% es.tEx (V/m) @ t=0.64
10.43046816207299
% es.tEy (V/m) @ t=0.64
0
% es.tEz (V/m) @ t=0.64
8.33281176464752
% V (V) @ t=0.64
0.011116275185562388
% es.normE (V/m) @ t=0.66
13.584834529334412
% es.EX (V/m) @ t=0.66
10.526672893186042
% es.EY (V/m) @ t=0.66
-1.6129995158699337
% es.EZ (V/m) @ t=0.66
8.409668901404206
% es.tEX (V/m) @ t=0.66
10.526672893186081
% es.tEY (V/m) @ t=0.66
0
% es.tEZ (V/m) @ t=0.66
8.409668901404208
% es.Ex (V/m) @ t=0.66
10.526672893186042
% es.Ey (V/m) @ t=0.66
-1.6129995158699337
% es.Ez (V/m) @ t=0.66
8.409668901404206
% es.tEx (V/m) @ t=0.66
10.526672893186081
% es.tEy (V/m) @ t=0.66
0
% es.tEz (V/m) @ t=0.66
8.409668901404208
% V (V) @ t=0.66
0.011218805400616837
% es.normE (V/m) @ t=0.68
13.708988225405372
% es.EX (V/m) @ t=0.68
10.622877624299118
% es.EY (V/m) @ t=0.68
-1.6277409387145063
% es.EZ (V/m) @ t=0.68
8.486526038160873
% es.tEX (V/m) @ t=0.68
10.622877624299171
% es.tEY (V/m) @ t=0.68
0
% es.tEZ (V/m) @ t=0.68
8.486526038160868
% es.Ex (V/m) @ t=0.68
10.622877624299118
% es.Ey (V/m) @ t=0.68
-1.6277409387145063
% es.Ez (V/m) @ t=0.68
8.486526038160873
% es.tEx (V/m) @ t=0.68
10.622877624299171
% es.tEy (V/m) @ t=0.68
0
% es.tEz (V/m) @ t=0.68
8.486526038160868
% V (V) @ t=0.68
0.01132133561567129
% es.normE (V/m) @ t=0.7
13.833141921476404
% es.EX (V/m) @ t=0.7
10.719082355412265
% es.EY (V/m) @ t=0.7
-1.6424823615590292
% es.EZ (V/m) @ t=0.7
8.563383174917567
% es.tEX (V/m) @ t=0.7
10.719082355412318
% es.tEY (V/m) @ t=0.7
0
% es.tEZ (V/m) @ t=0.7
8.563383174917554
% es.Ex (V/m) @ t=0.7
10.719082355412265
% es.Ey (V/m) @ t=0.7
-1.6424823615590292
% es.Ez (V/m) @ t=0.7
8.563383174917567
% es.tEx (V/m) @ t=0.7
10.719082355412318
% es.tEy (V/m) @ t=0.7
0
% es.tEz (V/m) @ t=0.7
8.563383174917554
% V (V) @ t=0.7
0.011423865830725738
% es.normE (V/m) @ t=0.72
13.957295617547373
% es.EX (V/m) @ t=0.72
10.815287086525363
% es.EY (V/m) @ t=0.72
-1.6572237844036533
% es.EZ (V/m) @ t=0.72
8.640240311674216
% es.tEX (V/m) @ t=0.72
10.815287086525409
% es.tEY (V/m) @ t=0.72
0
% es.tEZ (V/m) @ t=0.72
8.640240311674201
% es.Ex (V/m) @ t=0.72
10.815287086525363
% es.Ey (V/m) @ t=0.72
-1.6572237844036533
% es.Ez (V/m) @ t=0.72
8.640240311674216
% es.tEx (V/m) @ t=0.72
10.815287086525409
% es.tEy (V/m) @ t=0.72
0
% es.tEz (V/m) @ t=0.72
8.640240311674201
% V (V) @ t=0.72
0.01152639604578019
% es.normE (V/m) @ t=0.74
14.08144931361841
% es.EX (V/m) @ t=0.74
10.911491817638517
% es.EY (V/m) @ t=0.74
-1.6719652072482276
% es.EZ (V/m) @ t=0.74
8.717097448430906
% es.tEX (V/m) @ t=0.74
10.911491817638527
% es.tEY (V/m) @ t=0.74
0
% es.tEZ (V/m) @ t=0.74
8.71709744843089
% es.Ex (V/m) @ t=0.74
10.911491817638517
% es.Ey (V/m) @ t=0.74
-1.6719652072482276
% es.Ez (V/m) @ t=0.74
8.717097448430906
% es.tEx (V/m) @ t=0.74
10.911491817638527
% es.tEy (V/m) @ t=0.74
0
% es.tEz (V/m) @ t=0.74
8.71709744843089
% V (V) @ t=0.74
0.01162892626083464
% es.normE (V/m) @ t=0.76
14.205603009689398
% es.EX (V/m) @ t=0.76
11.007696548751628
% es.EY (V/m) @ t=0.76
-1.686706630092802
% es.EZ (V/m) @ t=0.76
8.793954585187564
% es.tEX (V/m) @ t=0.76
11.007696548751646
% es.tEY (V/m) @ t=0.76
0
% es.tEZ (V/m) @ t=0.76
8.793954585187578
% es.Ex (V/m) @ t=0.76
11.007696548751628
% es.Ey (V/m) @ t=0.76
-1.686706630092802
% es.Ez (V/m) @ t=0.76
8.793954585187564
% es.tEx (V/m) @ t=0.76
11.007696548751646
% es.tEy (V/m) @ t=0.76
0
% es.tEz (V/m) @ t=0.76
8.793954585187578
% V (V) @ t=0.76
0.01173145647588909
% es.normE (V/m) @ t=0.78
14.329756705760389
% es.EX (V/m) @ t=0.78
11.10390127986471
% es.EY (V/m) @ t=0.78
-1.7014480529373994
% es.EZ (V/m) @ t=0.78
8.870811721944262
% es.tEX (V/m) @ t=0.78
11.103901279864735
% es.tEY (V/m) @ t=0.78
0
% es.tEZ (V/m) @ t=0.78
8.870811721944245
% es.Ex (V/m) @ t=0.78
11.10390127986471
% es.Ey (V/m) @ t=0.78
-1.7014480529373994
% es.Ez (V/m) @ t=0.78
8.870811721944262
% es.tEx (V/m) @ t=0.78
11.103901279864735
% es.tEy (V/m) @ t=0.78
0
% es.tEz (V/m) @ t=0.78
8.870811721944245
% V (V) @ t=0.78
0.01183398669094354
% es.normE (V/m) @ t=0.8
14.464522476743017
% es.EX (V/m) @ t=0.8
11.208329140041297
% es.EY (V/m) @ t=0.8
-1.717449498762658
% es.EZ (V/m) @ t=0.8
8.954238246494217
% es.tEX (V/m) @ t=0.8
11.208329140041293
% es.tEY (V/m) @ t=0.8
0
% es.tEZ (V/m) @ t=0.8
8.954238246494205
% es.Ex (V/m) @ t=0.8
11.208329140041297
% es.Ey (V/m) @ t=0.8
-1.717449498762658
% es.Ez (V/m) @ t=0.8
8.954238246494217
% es.tEx (V/m) @ t=0.8
11.208329140041293
% es.tEy (V/m) @ t=0.8
0
% es.tEz (V/m) @ t=0.8
8.954238246494205
% V (V) @ t=0.8
0.011945280696164712
% es.normE (V/m) @ t=0.82
14.602665870646904
% es.EX (V/m) @ t=0.82
11.315374266816566
% es.EY (V/m) @ t=0.82
-1.7338519860935975
% es.EZ (V/m) @ t=0.82
9.039755683045303
% es.tEX (V/m) @ t=0.82
11.315374266816628
% es.tEY (V/m) @ t=0.82
0
% es.tEZ (V/m) @ t=0.82
9.03975568304529
% es.Ex (V/m) @ t=0.82
11.315374266816566
% es.Ey (V/m) @ t=0.82
-1.7338519860935975
% es.Ez (V/m) @ t=0.82
9.039755683045303
% es.tEx (V/m) @ t=0.82
11.315374266816628
% es.tEy (V/m) @ t=0.82
0
% es.tEz (V/m) @ t=0.82
9.03975568304529
% V (V) @ t=0.82
0.012059364050197556
% es.normE (V/m) @ t=0.84
14.740809264550787
% es.EX (V/m) @ t=0.84
11.422419393591888
% es.EY (V/m) @ t=0.84
-1.7502544734245244
% es.EZ (V/m) @ t=0.84
9.125273119596317
% es.tEX (V/m) @ t=0.84
11.422419393591936
% es.tEY (V/m) @ t=0.84
0
% es.tEZ (V/m) @ t=0.84
9.125273119596303
% es.Ex (V/m) @ t=0.84
11.422419393591888
% es.Ey (V/m) @ t=0.84
-1.7502544734245244
% es.Ez (V/m) @ t=0.84
9.125273119596317
% es.tEx (V/m) @ t=0.84
11.422419393591936
% es.tEy (V/m) @ t=0.84
0
% es.tEz (V/m) @ t=0.84
9.125273119596303
% V (V) @ t=0.84
0.012173447404230398
% es.normE (V/m) @ t=0.86
14.878952658454725
% es.EX (V/m) @ t=0.86
11.529464520367227
% es.EY (V/m) @ t=0.86
-1.7666569607554532
% es.EZ (V/m) @ t=0.86
9.210790556147389
% es.tEX (V/m) @ t=0.86
11.529464520367299
% es.tEY (V/m) @ t=0.86
0
% es.tEZ (V/m) @ t=0.86
9.210790556147375
% es.Ex (V/m) @ t=0.86
11.529464520367227
% es.Ey (V/m) @ t=0.86
-1.7666569607554532
% es.Ez (V/m) @ t=0.86
9.210790556147389
% es.tEx (V/m) @ t=0.86
11.529464520367299
% es.tEy (V/m) @ t=0.86
0
% es.tEz (V/m) @ t=0.86
9.210790556147375
% V (V) @ t=0.86
0.012287530758263238
% es.normE (V/m) @ t=0.88
15.017096052358607
% es.EX (V/m) @ t=0.88
11.63650964714252
% es.EY (V/m) @ t=0.88
-1.7830594480864086
% es.EZ (V/m) @ t=0.88
9.296307992698432
% es.tEX (V/m) @ t=0.88
11.636509647142578
% es.tEY (V/m) @ t=0.88
0
% es.tEZ (V/m) @ t=0.88
9.29630799269843
% es.Ex (V/m) @ t=0.88
11.63650964714252
% es.Ey (V/m) @ t=0.88
-1.7830594480864086
% es.Ez (V/m) @ t=0.88
9.296307992698432
% es.tEx (V/m) @ t=0.88
11.636509647142578
% es.tEy (V/m) @ t=0.88
0
% es.tEz (V/m) @ t=0.88
9.29630799269843
% V (V) @ t=0.88
0.012401614112296082
% es.normE (V/m) @ t=0.9
15.155239446262552
% es.EX (V/m) @ t=0.9
11.74355477391791
% es.EY (V/m) @ t=0.9
-1.7994619354173569
% es.EZ (V/m) @ t=0.9
9.38182542924946
% es.tEX (V/m) @ t=0.9
11.743554773917943
% es.tEY (V/m) @ t=0.9
0
% es.tEZ (V/m) @ t=0.9
9.381825429249458
% es.Ex (V/m) @ t=0.9
11.74355477391791
% es.Ey (V/m) @ t=0.9
-1.7994619354173569
% es.Ez (V/m) @ t=0.9
9.38182542924946
% es.tEx (V/m) @ t=0.9
11.743554773917943
% es.tEy (V/m) @ t=0.9
0
% es.tEz (V/m) @ t=0.9
9.381825429249458
% V (V) @ t=0.9
0.012515697466328926
% es.normE (V/m) @ t=0.92
15.293382840166412
% es.EX (V/m) @ t=0.92
11.850599900693153
% es.EY (V/m) @ t=0.92
-1.8158644227482785
% es.EZ (V/m) @ t=0.92
9.467342865800532
% es.tEX (V/m) @ t=0.92
11.850599900693222
% es.tEY (V/m) @ t=0.92
0
% es.tEZ (V/m) @ t=0.92
9.467342865800514
% es.Ex (V/m) @ t=0.92
11.850599900693153
% es.Ey (V/m) @ t=0.92
-1.8158644227482785
% es.Ez (V/m) @ t=0.92
9.467342865800532
% es.tEx (V/m) @ t=0.92
11.850599900693222
% es.tEy (V/m) @ t=0.92
0
% es.tEz (V/m) @ t=0.92
9.467342865800514
% V (V) @ t=0.92
0.012629780820361768
% es.normE (V/m) @ t=0.94
15.431526234070372
% es.EX (V/m) @ t=0.94
11.957645027468558
% es.EY (V/m) @ t=0.94
-1.8322669100792304
% es.EZ (V/m) @ t=0.94
9.55286030235156
% es.tEX (V/m) @ t=0.94
11.957645027468587
% es.tEY (V/m) @ t=0.94
0
% es.tEZ (V/m) @ t=0.94
9.552860302351556
% es.Ex (V/m) @ t=0.94
11.957645027468558
% es.Ey (V/m) @ t=0.94
-1.8322669100792304
% es.Ez (V/m) @ t=0.94
9.55286030235156
% es.tEx (V/m) @ t=0.94
11.957645027468587
% es.tEy (V/m) @ t=0.94
0
% es.tEz (V/m) @ t=0.94
9.552860302351556
% V (V) @ t=0.94
0.012743864174394612
% es.normE (V/m) @ t=0.96
15.569669627974243
% es.EX (V/m) @ t=0.96
12.064690154243806
% es.EY (V/m) @ t=0.96
-1.8486693974101893
% es.EZ (V/m) @ t=0.96
9.638377738902639
% es.tEX (V/m) @ t=0.96
12.064690154243864
% es.tEY (V/m) @ t=0.96
0
% es.tEZ (V/m) @ t=0.96
9.638377738902614
% es.Ex (V/m) @ t=0.96
12.064690154243806
% es.Ey (V/m) @ t=0.96
-1.8486693974101893
% es.Ez (V/m) @ t=0.96
9.638377738902639
% es.tEx (V/m) @ t=0.96
12.064690154243864
% es.tEy (V/m) @ t=0.96
0
% es.tEz (V/m) @ t=0.96
9.638377738902614
% V (V) @ t=0.96
0.012857947528427453
% es.normE (V/m) @ t=0.98
15.707813021878177
% es.EX (V/m) @ t=0.98
12.171735281019183
% es.EY (V/m) @ t=0.98
-1.8650718847411447
% es.EZ (V/m) @ t=0.98
9.72389517545366
% es.tEX (V/m) @ t=0.98
12.17173528101923
% es.tEY (V/m) @ t=0.98
0
% es.tEZ (V/m) @ t=0.98
9.723895175453682
% es.Ex (V/m) @ t=0.98
12.171735281019183
% es.Ey (V/m) @ t=0.98
-1.8650718847411447
% es.Ez (V/m) @ t=0.98
9.72389517545366
% es.tEx (V/m) @ t=0.98
12.17173528101923
% es.tEy (V/m) @ t=0.98
0
% es.tEz (V/m) @ t=0.98
9.723895175453682
% V (V) @ t=0.98
0.012972030882460295
% es.normE (V/m) @ t=1
15.845956415782094
% es.EX (V/m) @ t=1
12.278780407794482
% es.EY (V/m) @ t=1
-1.8814743720720664
% es.EZ (V/m) @ t=1
9.809412612004753
% es.tEX (V/m) @ t=1
12.278780407794478
% es.tEY (V/m) @ t=1
0
% es.tEZ (V/m) @ t=1
9.809412612004738
% es.Ex (V/m) @ t=1
12.278780407794482
% es.Ey (V/m) @ t=1
-1.8814743720720664
% es.Ez (V/m) @ t=1
9.809412612004753
% es.tEx (V/m) @ t=1
12.278780407794478
% es.tEy (V/m) @ t=1
0
% es.tEz (V/m) @ t=1
9.809412612004738
% V (V) @ t=1
0.013086114236493139
% es.normE (V/m) @ t=1.02
15.984099809685988
% es.EX (V/m) @ t=1.02
12.38582553456981
% es.EY (V/m) @ t=1.02
-1.8978768594030253
% es.EZ (V/m) @ t=1.02
9.894930048555775
% es.tEX (V/m) @ t=1.02
12.385825534569843
% es.tEY (V/m) @ t=1.02
0
% es.tEZ (V/m) @ t=1.02
9.894930048555768
% es.Ex (V/m) @ t=1.02
12.38582553456981
% es.Ey (V/m) @ t=1.02
-1.8978768594030253
% es.Ez (V/m) @ t=1.02
9.894930048555775
% es.tEx (V/m) @ t=1.02
12.385825534569843
% es.tEy (V/m) @ t=1.02
0
% es.tEz (V/m) @ t=1.02
9.894930048555768
% V (V) @ t=1.02
0.013200197590525983
% es.normE (V/m) @ t=1.04
16.122243203589896
% es.EX (V/m) @ t=1.04
12.49287066134513
% es.EY (V/m) @ t=1.04
-1.9142793467339594
% es.EZ (V/m) @ t=1.04
9.980447485106824
% es.tEX (V/m) @ t=1.04
12.49287066134518
% es.tEY (V/m) @ t=1.04
0
% es.tEZ (V/m) @ t=1.04
9.980447485106822
% es.Ex (V/m) @ t=1.04
12.49287066134513
% es.Ey (V/m) @ t=1.04
-1.9142793467339594
% es.Ez (V/m) @ t=1.04
9.980447485106824
% es.tEx (V/m) @ t=1.04
12.49287066134518
% es.tEy (V/m) @ t=1.04
0
% es.tEz (V/m) @ t=1.04
9.980447485106822
% V (V) @ t=1.04
0.013314280944558827
% es.normE (V/m) @ t=1.06
16.26502405585102
% es.EX (V/m) @ t=1.06
12.60350928192743
% es.EY (V/m) @ t=1.06
-1.931232455037044
% es.EZ (V/m) @ t=1.06