% Model:              1 neuron.mph
% Version:            COMSOL 6.1.0.252
% Date:               Mar 18 2023, 13:25
% Dimension:          0
% Nodes:              14017
% Expressions:        14017
% Description:        Electric field norm, Electric field, X component, Electric field, Y component, Electric field, Z component, Tangential electric field, X component, Tangential electric field, Y component, Tangential electric field, Z component, Electric field, x component, Electric field, y component, Electric field, z component, Tangential electric field, x component, Tangential electric field, y component, Tangential electric field, z component, Electric potential
% Length unit:        mm
% x
1.66
% y
12.2
% z
2
% es.normE (V/m) @ t=0
2.1953538336627165
% es.EX (V/m) @ t=0
-0.6549202293125607
% es.EY (V/m) @ t=0
0.04892002804275482
% es.EZ (V/m) @ t=0
-2.0912936177559924
% es.tEX (V/m) @ t=0
-0.6549202293125695
% es.tEY (V/m) @ t=0
0
% es.tEZ (V/m) @ t=0
-2.0912936177560075
% es.Ex (V/m) @ t=0
-0.6549202293125607
% es.Ey (V/m) @ t=0
0.04892002804275482
% es.Ez (V/m) @ t=0
-2.0912936177559924
% es.tEx (V/m) @ t=0
-0.6549202293125695
% es.tEy (V/m) @ t=0
0
% es.tEz (V/m) @ t=0
-2.0912936177560075
% V (V) @ t=0
0.01103475615927341
% es.normE (V/m) @ t=0.02
1.8961504229855066
% es.EX (V/m) @ t=0.02
-0.5656615580180684
% es.EY (V/m) @ t=0.02
0.042252748045303073
% es.EZ (V/m) @ t=0.02
-1.8062725092543657
% es.tEX (V/m) @ t=0.02
-0.5656615580180748
% es.tEY (V/m) @ t=0.02
0
% es.tEZ (V/m) @ t=0.02
-1.8062725092543674
% es.Ex (V/m) @ t=0.02
-0.5656615580180684
% es.Ey (V/m) @ t=0.02
0.042252748045303073
% es.Ez (V/m) @ t=0.02
-1.8062725092543657
% es.tEx (V/m) @ t=0.02
-0.5656615580180748
% es.tEy (V/m) @ t=0.02
0
% es.tEz (V/m) @ t=0.02
-1.8062725092543674
% V (V) @ t=0.02
0.009530836082071283
% es.normE (V/m) @ t=0.04
1.9135943825337196
% es.EX (V/m) @ t=0.04
-0.5708654581754355
% es.EY (V/m) @ t=0.04
0.042641459821637834
% es.EZ (V/m) @ t=0.04
-1.8228896215450514
% es.tEX (V/m) @ t=0.04
-0.5708654581754438
% es.tEY (V/m) @ t=0.04
0
% es.tEZ (V/m) @ t=0.04
-1.822889621545067
% es.Ex (V/m) @ t=0.04
-0.5708654581754355
% es.Ey (V/m) @ t=0.04
0.042641459821637834
% es.Ez (V/m) @ t=0.04
-1.8228896215450514
% es.tEx (V/m) @ t=0.04
-0.5708654581754438
% es.tEy (V/m) @ t=0.04
0
% es.tEz (V/m) @ t=0.04
-1.822889621545067
% V (V) @ t=0.04
0.00961851661515912
% es.normE (V/m) @ t=0.06
1.9311753870622992
% es.EX (V/m) @ t=0.06
-0.5761102414643524
% es.EY (V/m) @ t=0.06
0.043033224298784215
% es.EZ (V/m) @ t=0.06
-1.839637282996299
% es.tEX (V/m) @ t=0.06
-0.5761102414643595
% es.tEY (V/m) @ t=0.06
0
% es.tEZ (V/m) @ t=0.06
-1.839637282996307
% es.Ex (V/m) @ t=0.06
-0.5761102414643524
% es.Ey (V/m) @ t=0.06
0.043033224298784215
% es.Ez (V/m) @ t=0.06
-1.839637282996299
% es.tEx (V/m) @ t=0.06
-0.5761102414643595
% es.tEy (V/m) @ t=0.06
0
% es.tEz (V/m) @ t=0.06
-1.839637282996307
% V (V) @ t=0.06
0.009706886053536866
% es.normE (V/m) @ t=0.08
1.9490714095695207
% es.EX (V/m) @ t=0.08
-0.5814490013925915
% es.EY (V/m) @ t=0.08
0.0434320090117723
% es.EZ (V/m) @ t=0.08
-1.856685030436799
% es.tEX (V/m) @ t=0.08
-0.5814490013925955
% es.tEY (V/m) @ t=0.08
0
% es.tEZ (V/m) @ t=0.08
-1.8566850304368137
% es.Ex (V/m) @ t=0.08
-0.5814490013925915
% es.Ey (V/m) @ t=0.08
0.0434320090117723
% es.Ez (V/m) @ t=0.08
-1.856685030436799
% es.tEx (V/m) @ t=0.08
-0.5814490013925955
% es.tEy (V/m) @ t=0.08
0
% es.tEz (V/m) @ t=0.08
-1.8566850304368137
% V (V) @ t=0.08
0.009796838871877205
% es.normE (V/m) @ t=0.1
1.9670892714169845
% es.EX (V/m) @ t=0.1
-0.5868241086168853
% es.EY (V/m) @ t=0.1
0.04383350893773584
% es.EZ (V/m) @ t=0.1
-1.8738488419797505
% es.tEX (V/m) @ t=0.1
-0.586824108616895
% es.tEY (V/m) @ t=0.1
0
% es.tEZ (V/m) @ t=0.1
-1.8738488419797754
% es.Ex (V/m) @ t=0.1
-0.5868241086168853
% es.Ey (V/m) @ t=0.1
0.04383350893773584
% es.Ez (V/m) @ t=0.1
-1.8738488419797505
% es.tEx (V/m) @ t=0.1
-0.586824108616895
% es.tEy (V/m) @ t=0.1
0
% es.tEz (V/m) @ t=0.1
-1.8738488419797754
% V (V) @ t=0.1
0.00988740409326459
% es.normE (V/m) @ t=0.12
1.9851071332644628
% es.EX (V/m) @ t=0.12
-0.5921992158411782
% es.EY (V/m) @ t=0.12
0.044235008863705155
% es.EZ (V/m) @ t=0.12
-1.8910126535227167
% es.tEX (V/m) @ t=0.12
-0.592199215841184
% es.tEY (V/m) @ t=0.12
0
% es.tEZ (V/m) @ t=0.12
-1.8910126535227283
% es.Ex (V/m) @ t=0.12
-0.5921992158411782
% es.Ey (V/m) @ t=0.12
0.044235008863705155
% es.Ez (V/m) @ t=0.12
-1.8910126535227167
% es.tEx (V/m) @ t=0.12
-0.592199215841184
% es.tEy (V/m) @ t=0.12
0
% es.tEz (V/m) @ t=0.12
-1.8910126535227283
% V (V) @ t=0.12
0.009977969314651971
% es.normE (V/m) @ t=0.14
2.0035416471098815
% es.EX (V/m) @ t=0.14
-0.5976986191046996
% es.EY (V/m) @ t=0.14
0.0446457931676886
% es.EZ (V/m) @ t=0.14
-1.9085733676826062
% es.tEX (V/m) @ t=0.14
-0.5976986191047082
% es.tEY (V/m) @ t=0.14
0
% es.tEZ (V/m) @ t=0.14
-1.908573367682628
% es.Ex (V/m) @ t=0.14
-0.5976986191046996
% es.Ey (V/m) @ t=0.14
0.0446457931676886
% es.Ez (V/m) @ t=0.14
-1.9085733676826062
% es.tEx (V/m) @ t=0.14
-0.5976986191047082
% es.tEy (V/m) @ t=0.14
0
% es.tEz (V/m) @ t=0.14
-1.908573367682628
% V (V) @ t=0.14
0.010070628804652355
% es.normE (V/m) @ t=0.16
2.0224817566402797
% es.EX (V/m) @ t=0.16
-0.6033488521767859
% es.EY (V/m) @ t=0.16
0.045067843807826025
% es.EZ (V/m) @ t=0.16
-1.926615712199406
% es.tEX (V/m) @ t=0.16
-0.60334885217679
% es.tEY (V/m) @ t=0.16
0
% es.tEZ (V/m) @ t=0.16
-1.92661571219943
% es.Ex (V/m) @ t=0.16
-0.6033488521767859
% es.Ey (V/m) @ t=0.16
0.045067843807826025
% es.Ez (V/m) @ t=0.16
-1.926615712199406
% es.tEx (V/m) @ t=0.16
-0.60334885217679
% es.tEy (V/m) @ t=0.16
0
% es.tEz (V/m) @ t=0.16
-1.92661571219943
% V (V) @ t=0.16
0.010165829631737738
% es.normE (V/m) @ t=0.18
2.041421866170672
% es.EX (V/m) @ t=0.18
-0.6089990852488739
% es.EY (V/m) @ t=0.18
0.045489894447961726
% es.EZ (V/m) @ t=0.18
-1.9446580567161993
% es.tEX (V/m) @ t=0.18
-0.6089990852488754
% es.tEY (V/m) @ t=0.18
0
% es.tEZ (V/m) @ t=0.18
-1.944658056716217
% es.Ex (V/m) @ t=0.18
-0.6089990852488739
% es.Ey (V/m) @ t=0.18
0.045489894447961726
% es.Ez (V/m) @ t=0.18
-1.9446580567161993
% es.tEx (V/m) @ t=0.18
-0.6089990852488754
% es.tEy (V/m) @ t=0.18
0
% es.tEz (V/m) @ t=0.18
-1.944658056716217
% V (V) @ t=0.18
0.01026103045882312
% es.normE (V/m) @ t=0.2
2.0603619757010714
% es.EX (V/m) @ t=0.2
-0.614649318320962
% es.EY (V/m) @ t=0.2
0.045911945088088726
% es.EZ (V/m) @ t=0.2
-1.9627004012329992
% es.tEX (V/m) @ t=0.2
-0.6146493183209643
% es.tEY (V/m) @ t=0.2
0
% es.tEZ (V/m) @ t=0.2
-1.96270040123302
% es.Ex (V/m) @ t=0.2
-0.614649318320962
% es.Ey (V/m) @ t=0.2
0.045911945088088726
% es.Ez (V/m) @ t=0.2
-1.9627004012329992
% es.tEx (V/m) @ t=0.2
-0.6146493183209643
% es.tEy (V/m) @ t=0.2
0
% es.tEz (V/m) @ t=0.2
-1.96270040123302
% V (V) @ t=0.2
0.010356231285908502
% es.normE (V/m) @ t=0.22
2.079302085231471
% es.EX (V/m) @ t=0.22
-0.6202995513930509
% es.EY (V/m) @ t=0.22
0.04633399572822265
% es.EZ (V/m) @ t=0.22
-1.9807427457497995
% es.tEX (V/m) @ t=0.22
-0.6202995513930496
% es.tEY (V/m) @ t=0.22
0
% es.tEZ (V/m) @ t=0.22
-1.9807427457498212
% es.Ex (V/m) @ t=0.22
-0.6202995513930509
% es.Ey (V/m) @ t=0.22
0.04633399572822265
% es.Ez (V/m) @ t=0.22
-1.9807427457497995
% es.tEx (V/m) @ t=0.22
-0.6202995513930496
% es.tEy (V/m) @ t=0.22
0
% es.tEz (V/m) @ t=0.22
-1.9807427457498212
% V (V) @ t=0.22
0.010451432112993887
% es.normE (V/m) @ t=0.24
2.098242194761866
% es.EX (V/m) @ t=0.24
-0.62594978446513
% es.EY (V/m) @ t=0.24
0.046756046368351206
% es.EZ (V/m) @ t=0.24
-1.9987850902665993
% es.tEX (V/m) @ t=0.24
-0.6259497844651349
% es.tEY (V/m) @ t=0.24
0
% es.tEZ (V/m) @ t=0.24
-1.9987850902666073
% es.Ex (V/m) @ t=0.24
-0.62594978446513
% es.Ey (V/m) @ t=0.24
0.046756046368351206
% es.Ez (V/m) @ t=0.24
-1.9987850902665993
% es.tEx (V/m) @ t=0.24
-0.6259497844651349
% es.tEy (V/m) @ t=0.24
0
% es.tEz (V/m) @ t=0.24
-1.9987850902666073
% V (V) @ t=0.24
0.01054663294007927
% es.normE (V/m) @ t=0.26
2.1171823042922626
% es.EX (V/m) @ t=0.26
-0.6316000175372296
% es.EY (V/m) @ t=0.26
0.04717809700848338
% es.EZ (V/m) @ t=0.26
-2.016827434783393
% es.tEX (V/m) @ t=0.26
-0.6316000175372274
% es.tEY (V/m) @ t=0.26
0
% es.tEZ (V/m) @ t=0.26
-2.0168274347834174
% es.Ex (V/m) @ t=0.26
-0.6316000175372296
% es.Ey (V/m) @ t=0.26
0.04717809700848338
% es.Ez (V/m) @ t=0.26
-2.016827434783393
% es.tEx (V/m) @ t=0.26
-0.6316000175372274
% es.tEy (V/m) @ t=0.26
0
% es.tEz (V/m) @ t=0.26
-2.0168274347834174
% V (V) @ t=0.26
0.010641833767164653
% es.normE (V/m) @ t=0.28
2.138007571230248
% es.EX (V/m) @ t=0.28
-0.6378126317262569
% es.EY (V/m) @ t=0.28
0.047642151264488924
% es.EZ (V/m) @ t=0.28
-2.0366655803810247
% es.tEX (V/m) @ t=0.28
-0.6378126317262627
% es.tEY (V/m) @ t=0.28
0
% es.tEZ (V/m) @ t=0.28
-2.0366655803810376
% es.Ex (V/m) @ t=0.28
-0.6378126317262569
% es.Ey (V/m) @ t=0.28
0.047642151264488924
% es.Ez (V/m) @ t=0.28
-2.0366655803810247
% es.tEx (V/m) @ t=0.28
-0.6378126317262627
% es.tEy (V/m) @ t=0.28
0
% es.tEz (V/m) @ t=0.28
-2.0366655803810376
% V (V) @ t=0.28
0.010746510399126557
% es.normE (V/m) @ t=0.3
2.159012168239775
% es.EX (V/m) @ t=0.3
-0.6440787437534712
% es.EY (V/m) @ t=0.3
0.0481102012141328
% es.EZ (V/m) @ t=0.3
-2.0566745558175867
% es.tEX (V/m) @ t=0.3
-0.6440787437534787
% es.tEY (V/m) @ t=0.3
0
% es.tEZ (V/m) @ t=0.3
-2.0566745558176107
% es.Ex (V/m) @ t=0.3
-0.6440787437534712
% es.Ey (V/m) @ t=0.3
0.0481102012141328
% es.Ez (V/m) @ t=0.3
-2.0566745558175867
% es.tEx (V/m) @ t=0.3
-0.6440787437534787
% es.tEy (V/m) @ t=0.3
0
% es.tEz (V/m) @ t=0.3
-2.0566745558176107
% V (V) @ t=0.3
0.010852088439511787
% es.normE (V/m) @ t=0.32
2.180016765249319
% es.EX (V/m) @ t=0.32
-0.6503448557806952
% es.EY (V/m) @ t=0.32
0.048578251163755415
% es.EZ (V/m) @ t=0.32
-2.0766835312541634
% es.tEX (V/m) @ t=0.32
-0.6503448557807054
% es.tEY (V/m) @ t=0.32
0
% es.tEZ (V/m) @ t=0.32
-2.0766835312541856
% es.Ex (V/m) @ t=0.32
-0.6503448557806952
% es.Ey (V/m) @ t=0.32
0.048578251163755415
% es.Ez (V/m) @ t=0.32
-2.0766835312541634
% es.tEx (V/m) @ t=0.32
-0.6503448557807054
% es.tEy (V/m) @ t=0.32
0
% es.tEz (V/m) @ t=0.32
-2.0766835312541856
% V (V) @ t=0.32
0.01095766647989702
% es.normE (V/m) @ t=0.34
2.201021362258847
% es.EX (V/m) @ t=0.34
-0.6566109678079046
% es.EY (V/m) @ t=0.34
0.04904630111338183
% es.EZ (V/m) @ t=0.34
-2.0966925066907267
% es.tEX (V/m) @ t=0.34
-0.6566109678079144
% es.tEY (V/m) @ t=0.34
0
% es.tEZ (V/m) @ t=0.34
-2.0966925066907445
% es.Ex (V/m) @ t=0.34
-0.6566109678079046
% es.Ey (V/m) @ t=0.34
0.04904630111338183
% es.Ez (V/m) @ t=0.34
-2.0966925066907267
% es.tEx (V/m) @ t=0.34
-0.6566109678079144
% es.tEy (V/m) @ t=0.34
0
% es.tEz (V/m) @ t=0.34
-2.0966925066907445
% V (V) @ t=0.34
0.011063244520282253
% es.normE (V/m) @ t=0.36
2.2220259592683878
% es.EX (V/m) @ t=0.36
-0.6628770798351198
% es.EY (V/m) @ t=0.36
0.049514351063016576
% es.EZ (V/m) @ t=0.36
-2.1167014821273025
% es.tEX (V/m) @ t=0.36
-0.6628770798351233
% es.tEY (V/m) @ t=0.36
0
% es.tEZ (V/m) @ t=0.36
-2.1167014821273176
% es.Ex (V/m) @ t=0.36
-0.6628770798351198
% es.Ey (V/m) @ t=0.36
0.049514351063016576
% es.Ez (V/m) @ t=0.36
-2.1167014821273025
% es.tEx (V/m) @ t=0.36
-0.6628770798351233
% es.tEy (V/m) @ t=0.36
0
% es.tEz (V/m) @ t=0.36
-2.1167014821273176
% V (V) @ t=0.36
0.011168822560667485
% es.normE (V/m) @ t=0.38
2.243030556277918
% es.EX (V/m) @ t=0.38
-0.6691431918623365
% es.EY (V/m) @ t=0.38
0.04998240101265165
% es.EZ (V/m) @ t=0.38
-2.136710457563866
% es.tEX (V/m) @ t=0.38
-0.669143191862343
% es.tEY (V/m) @ t=0.38
0
% es.tEZ (V/m) @ t=0.38
-2.1367104575638782
% es.Ex (V/m) @ t=0.38
-0.6691431918623365
% es.Ey (V/m) @ t=0.38
0.04998240101265165
% es.Ez (V/m) @ t=0.38
-2.136710457563866
% es.tEx (V/m) @ t=0.38
-0.669143191862343
% es.tEy (V/m) @ t=0.38
0
% es.tEz (V/m) @ t=0.38
-2.1367104575638782
% V (V) @ t=0.38
0.011274400601052718
% es.normE (V/m) @ t=0.4
2.2640351532874448
% es.EX (V/m) @ t=0.4
-0.67540930388955
% es.EY (V/m) @ t=0.4
0.05045045096228509
% es.EZ (V/m) @ t=0.4
-2.1567194330004273
% es.tEX (V/m) @ t=0.4
-0.6754093038895554
% es.tEY (V/m) @ t=0.4
0
% es.tEZ (V/m) @ t=0.4
-2.1567194330004433
% es.Ex (V/m) @ t=0.4
-0.67540930388955
% es.Ey (V/m) @ t=0.4
0.05045045096228509
% es.Ez (V/m) @ t=0.4
-2.1567194330004273
% es.tEx (V/m) @ t=0.4
-0.6754093038895554
% es.tEy (V/m) @ t=0.4
0
% es.tEz (V/m) @ t=0.4
-2.1567194330004433
% V (V) @ t=0.4
0.011379978641437949
% es.normE (V/m) @ t=0.42
2.2850397502969746
% es.EX (V/m) @ t=0.42
-0.6816754159167657
% es.EY (V/m) @ t=0.42
0.05091850091190242
% es.EZ (V/m) @ t=0.42
-2.1767284084369907
% es.tEX (V/m) @ t=0.42
-0.6816754159167644
% es.tEY (V/m) @ t=0.42
0
% es.tEZ (V/m) @ t=0.42
-2.1767284084370173
% es.Ex (V/m) @ t=0.42
-0.6816754159167657
% es.Ey (V/m) @ t=0.42
0.05091850091190242
% es.Ez (V/m) @ t=0.42
-2.1767284084369907
% es.tEx (V/m) @ t=0.42
-0.6816754159167644
% es.tEy (V/m) @ t=0.42
0
% es.tEz (V/m) @ t=0.42
-2.1767284084370173
% V (V) @ t=0.42
0.01148555668182318
% es.normE (V/m) @ t=0.44
2.3060443473065253
% es.EX (V/m) @ t=0.44
-0.6879415279439861
% es.EY (V/m) @ t=0.44
0.05138655086154256
% es.EZ (V/m) @ t=0.44
-2.1967373838735744
% es.tEX (V/m) @ t=0.44
-0.6879415279439947
% es.tEY (V/m) @ t=0.44
0
% es.tEZ (V/m) @ t=0.44
-2.1967373838735993
% es.Ex (V/m) @ t=0.44
-0.6879415279439861
% es.Ey (V/m) @ t=0.44
0.05138655086154256
% es.Ez (V/m) @ t=0.44
-2.1967373838735744
% es.tEx (V/m) @ t=0.44
-0.6879415279439947
% es.tEy (V/m) @ t=0.44
0
% es.tEz (V/m) @ t=0.44
-2.1967373838735993
% V (V) @ t=0.44
0.011591134722208414
% es.normE (V/m) @ t=0.46
2.327048944316057
% es.EX (V/m) @ t=0.46
-0.6942076399711906
% es.EY (V/m) @ t=0.46
0.05185460081117556
% es.EZ (V/m) @ t=0.46
-2.216746359310143
% es.tEX (V/m) @ t=0.46
-0.6942076399711858
% es.tEY (V/m) @ t=0.46
0
% es.tEZ (V/m) @ t=0.46
-2.2167463593101715
% es.Ex (V/m) @ t=0.46
-0.6942076399711906
% es.Ey (V/m) @ t=0.46
0.05185460081117556
% es.Ez (V/m) @ t=0.46
-2.216746359310143
% es.tEx (V/m) @ t=0.46
-0.6942076399711858
% es.tEy (V/m) @ t=0.46
0
% es.tEz (V/m) @ t=0.46
-2.2167463593101715
% V (V) @ t=0.46
0.011696712762593648
% es.normE (V/m) @ t=0.48
2.348053541325579
% es.EX (V/m) @ t=0.48
-0.7004737519984047
% es.EY (V/m) @ t=0.48
0.05232265076081263
% es.EZ (V/m) @ t=0.48
-2.2367553347466993
% es.tEX (V/m) @ t=0.48
-0.7004737519984054
% es.tEY (V/m) @ t=0.48
0
% es.tEZ (V/m) @ t=0.48
-2.236755334746717
% es.Ex (V/m) @ t=0.48
-0.7004737519984047
% es.Ey (V/m) @ t=0.48
0.05232265076081263
% es.Ez (V/m) @ t=0.48
-2.2367553347466993
% es.tEx (V/m) @ t=0.48
-0.7004737519984054
% es.tEy (V/m) @ t=0.48
0
% es.tEz (V/m) @ t=0.48
-2.236755334746717
% V (V) @ t=0.48
0.01180229080297888
% es.normE (V/m) @ t=0.5
2.369058138335106
% es.EX (V/m) @ t=0.5
-0.7067398640256154
% es.EY (V/m) @ t=0.5
0.05279070071042655
% es.EZ (V/m) @ t=0.5
-2.2567643101832617
% es.tEX (V/m) @ t=0.5
-0.7067398640256215
% es.tEY (V/m) @ t=0.5
0
% es.tEZ (V/m) @ t=0.5
-2.256764310183276
% es.Ex (V/m) @ t=0.5
-0.7067398640256154
% es.Ey (V/m) @ t=0.5
0.05279070071042655
% es.Ez (V/m) @ t=0.5
-2.2567643101832617
% es.tEx (V/m) @ t=0.5
-0.7067398640256215
% es.tEy (V/m) @ t=0.5
0
% es.tEz (V/m) @ t=0.5
-2.256764310183276
% V (V) @ t=0.5
0.011907868843364111
% es.normE (V/m) @ t=0.52
2.3900627353446575
% es.EX (V/m) @ t=0.52
-0.71300597605284
% es.EY (V/m) @ t=0.52
0.05325875066007206
% es.EZ (V/m) @ t=0.52
-2.2767732856198455
% es.tEX (V/m) @ t=0.52
-0.7130059760528482
% es.tEY (V/m) @ t=0.52
0
% es.tEZ (V/m) @ t=0.52
-2.276773285619872
% es.Ex (V/m) @ t=0.52
-0.71300597605284
% es.Ey (V/m) @ t=0.52
0.05325875066007206
% es.Ez (V/m) @ t=0.52
-2.2767732856198455
% es.tEx (V/m) @ t=0.52
-0.7130059760528482
% es.tEy (V/m) @ t=0.52
0
% es.tEz (V/m) @ t=0.52
-2.276773285619872
% V (V) @ t=0.52
0.012013446883749343
% es.normE (V/m) @ t=0.54
2.4130129289859887
% es.EX (V/m) @ t=0.54
-0.7198525013333532
% es.EY (V/m) @ t=0.54
0.05377015885508955
% es.EZ (V/m) @ t=0.54
-2.298635635566902
% es.tEX (V/m) @ t=0.54
-0.7198525013333672
% es.tEY (V/m) @ t=0.54
0
% es.tEZ (V/m) @ t=0.54
-2.298635635566934
% es.Ex (V/m) @ t=0.54
-0.7198525013333532
% es.Ey (V/m) @ t=0.54
0.05377015885508955
% es.Ez (V/m) @ t=0.54
-2.298635635566902
% es.tEx (V/m) @ t=0.54
-0.7198525013333672
% es.tEy (V/m) @ t=0.54
0
% es.tEz (V/m) @ t=0.54
-2.298635635566934
% V (V) @ t=0.54
0.0121288041015163
% es.normE (V/m) @ t=0.56
2.4363452132523653
% es.EX (V/m) @ t=0.56
-0.726813012451988
% es.EY (V/m) @ t=0.56
0.054290082062334724
% es.EZ (V/m) @ t=0.56
-2.320861964878225
% es.tEX (V/m) @ t=0.56
-0.726813012452002
% es.tEY (V/m) @ t=0.56
0
% es.tEZ (V/m) @ t=0.56
-2.3208619648782394
% es.Ex (V/m) @ t=0.56
-0.726813012451988
% es.Ey (V/m) @ t=0.56
0.054290082062334724
% es.Ez (V/m) @ t=0.56
-2.320861964878225
% es.tEx (V/m) @ t=0.56
-0.726813012452002
% es.tEy (V/m) @ t=0.56
0
% es.tEz (V/m) @ t=0.56
-2.3208619648782394
% V (V) @ t=0.56
0.012246081826307521
% es.normE (V/m) @ t=0.58
2.459677497518695
% es.EX (V/m) @ t=0.58
-0.7337735235706269
% es.EY (V/m) @ t=0.58
0.05481000526956249
% es.EZ (V/m) @ t=0.58
-2.3430882941894966
% es.tEX (V/m) @ t=0.58
-0.7337735235706369
% es.tEY (V/m) @ t=0.58
0
% es.tEZ (V/m) @ t=0.58
-2.3430882941895304
% es.Ex (V/m) @ t=0.58
-0.7337735235706269
% es.Ey (V/m) @ t=0.58
0.05481000526956249
% es.Ez (V/m) @ t=0.58
-2.3430882941894966
% es.tEx (V/m) @ t=0.58
-0.7337735235706369
% es.tEy (V/m) @ t=0.58
0
% es.tEz (V/m) @ t=0.58
-2.3430882941895304
% V (V) @ t=0.58
0.012363359551098746
% es.normE (V/m) @ t=0.6
2.48300978178507
% es.EX (V/m) @ t=0.6
-0.7407340346892591
% es.EY (V/m) @ t=0.6
0.05532992847680766
% es.EZ (V/m) @ t=0.6
-2.3653146235008187
% es.tEX (V/m) @ t=0.6
-0.7407340346892681
% es.tEY (V/m) @ t=0.6
0
% es.tEZ (V/m) @ t=0.6
-2.3653146235008276
% es.Ex (V/m) @ t=0.6
-0.7407340346892591
% es.Ey (V/m) @ t=0.6
0.05532992847680766
% es.Ez (V/m) @ t=0.6
-2.3653146235008187
% es.tEx (V/m) @ t=0.6
-0.7407340346892681
% es.tEy (V/m) @ t=0.6
0
% es.tEz (V/m) @ t=0.6
-2.3653146235008276
% V (V) @ t=0.6
0.012480637275889968
% es.normE (V/m) @ t=0.62
2.5063420660514
% es.EX (V/m) @ t=0.62
-0.7476945458078958
% es.EY (V/m) @ t=0.62
0.05584985168404262
% es.EZ (V/m) @ t=0.62
-2.387540952812091
% es.tEX (V/m) @ t=0.62
-0.7476945458078958
% es.tEY (V/m) @ t=0.62
0
% es.tEZ (V/m) @ t=0.62
-2.3875409528121194
% es.Ex (V/m) @ t=0.62
-0.7476945458078958
% es.Ey (V/m) @ t=0.62
0.05584985168404262
% es.Ez (V/m) @ t=0.62
-2.387540952812091
% es.tEx (V/m) @ t=0.62
-0.7476945458078958
% es.tEy (V/m) @ t=0.62
0
% es.tEz (V/m) @ t=0.62
-2.3875409528121194
% V (V) @ t=0.62
0.012597915000681189
% es.normE (V/m) @ t=0.64
2.529674350317766
% es.EX (V/m) @ t=0.64
-0.7546550569265247
% es.EY (V/m) @ t=0.64
0.05636977489126842
% es.EZ (V/m) @ t=0.64
-2.409767282123405
% es.tEX (V/m) @ t=0.64
-0.7546550569265307
% es.tEY (V/m) @ t=0.64
0
% es.tEZ (V/m) @ t=0.64
-2.4097672821234237
% es.Ex (V/m) @ t=0.64
-0.7546550569265247
% es.Ey (V/m) @ t=0.64
0.05636977489126842
% es.Ez (V/m) @ t=0.64
-2.409767282123405
% es.tEx (V/m) @ t=0.64
-0.7546550569265307
% es.tEy (V/m) @ t=0.64
0
% es.tEz (V/m) @ t=0.64
-2.4097672821234237
% V (V) @ t=0.64
0.01271519272547241
% es.normE (V/m) @ t=0.66
2.5530066345841056
% es.EX (V/m) @ t=0.66
-0.7616155680451517
% es.EY (V/m) @ t=0.66
0.05688969809851356
% es.EZ (V/m) @ t=0.66
-2.4319936114346916
% es.tEX (V/m) @ t=0.66
-0.7616155680451584
% es.tEY (V/m) @ t=0.66
0
% es.tEZ (V/m) @ t=0.66
-2.431993611434714
% es.Ex (V/m) @ t=0.66
-0.7616155680451517
% es.Ey (V/m) @ t=0.66
0.05688969809851356
% es.Ez (V/m) @ t=0.66
-2.4319936114346916
% es.tEx (V/m) @ t=0.66
-0.7616155680451584
% es.tEy (V/m) @ t=0.66
0
% es.tEz (V/m) @ t=0.66
-2.431993611434714
% V (V) @ t=0.66
0.012832470450263632
% es.normE (V/m) @ t=0.68
2.576338918850462
% es.EX (V/m) @ t=0.68
-0.768576079163794
% es.EY (V/m) @ t=0.68
0.057409621305760675
% es.EZ (V/m) @ t=0.68
-2.4542199407459915
% es.tEX (V/m) @ t=0.68
-0.7685760791638003
% es.tEY (V/m) @ t=0.68
0
% es.tEZ (V/m) @ t=0.68
-2.454219940746034
% es.Ex (V/m) @ t=0.68
-0.768576079163794
% es.Ey (V/m) @ t=0.68
0.057409621305760675
% es.Ez (V/m) @ t=0.68
-2.4542199407459915
% es.tEx (V/m) @ t=0.68
-0.7685760791638003
% es.tEy (V/m) @ t=0.68
0
% es.tEz (V/m) @ t=0.68
-2.454219940746034
% V (V) @ t=0.68
0.012949748175054851
% es.normE (V/m) @ t=0.7
2.599671203116811
% es.EX (V/m) @ t=0.7
-0.7755365902824236
% es.EY (V/m) @ t=0.7
0.057929544512999184
% es.EZ (V/m) @ t=0.7
-2.476446270057286
% es.tEX (V/m) @ t=0.7
-0.775536590282428
% es.tEY (V/m) @ t=0.7
0
% es.tEZ (V/m) @ t=0.7
-2.476446270057311
% es.Ex (V/m) @ t=0.7
-0.7755365902824236
% es.Ey (V/m) @ t=0.7
0.057929544512999184
% es.Ez (V/m) @ t=0.7
-2.476446270057286
% es.tEx (V/m) @ t=0.7
-0.775536590282428
% es.tEy (V/m) @ t=0.7
0
% es.tEz (V/m) @ t=0.7
-2.476446270057311
% V (V) @ t=0.7
0.013067025899846074
% es.normE (V/m) @ t=0.72
2.6230034873831602
% es.EX (V/m) @ t=0.72
-0.7824971014010594
% es.EY (V/m) @ t=0.72
0.058449467720224815
% es.EZ (V/m) @ t=0.72
-2.4986725993685788
% es.tEX (V/m) @ t=0.72
-0.78249710140107
% es.tEY (V/m) @ t=0.72
0
% es.tEZ (V/m) @ t=0.72
-2.498672599368616
% es.Ex (V/m) @ t=0.72
-0.7824971014010594
% es.Ey (V/m) @ t=0.72
0.058449467720224815
% es.Ez (V/m) @ t=0.72
-2.4986725993685788
% es.tEx (V/m) @ t=0.72
-0.78249710140107
% es.tEy (V/m) @ t=0.72
0
% es.tEz (V/m) @ t=0.72
-2.498672599368616
% V (V) @ t=0.72
0.013184303624637296
% es.normE (V/m) @ t=0.74
2.6463357716495195
% es.EX (V/m) @ t=0.74
-0.7894576125196884
% es.EY (V/m) @ t=0.74
0.05896939092746657
% es.EZ (V/m) @ t=0.74
-2.5208989286798857
% es.tEX (V/m) @ t=0.74
-0.7894576125196906
% es.tEY (V/m) @ t=0.74
0
% es.tEZ (V/m) @ t=0.74
-2.5208989286799195
% es.Ex (V/m) @ t=0.74
-0.7894576125196884
% es.Ey (V/m) @ t=0.74
0.05896939092746657
% es.Ez (V/m) @ t=0.74
-2.5208989286798857
% es.tEx (V/m) @ t=0.74
-0.7894576125196906
% es.tEy (V/m) @ t=0.74
0
% es.tEz (V/m) @ t=0.74
-2.5208989286799195
% V (V) @ t=0.74
0.013301581349428515
% es.normE (V/m) @ t=0.76
2.6696680559158628
% es.EX (V/m) @ t=0.76
-0.796418123638325
% es.EY (V/m) @ t=0.76
0.05948931413470486
% es.EZ (V/m) @ t=0.76
-2.543125257991173
% es.tEX (V/m) @ t=0.76
-0.7964181236383325
% es.tEY (V/m) @ t=0.76
0
% es.tEZ (V/m) @ t=0.76
-2.5431252579912123
% es.Ex (V/m) @ t=0.76
-0.796418123638325
% es.Ey (V/m) @ t=0.76
0.05948931413470486
% es.Ez (V/m) @ t=0.76
-2.543125257991173
% es.tEx (V/m) @ t=0.76
-0.7964181236383325
% es.tEy (V/m) @ t=0.76
0
% es.tEz (V/m) @ t=0.76
-2.5431252579912123
% V (V) @ t=0.76
0.013418859074219738
% es.normE (V/m) @ t=0.78
2.693000340182209
% es.EX (V/m) @ t=0.78
-0.803378634756952
% es.EY (V/m) @ t=0.78
0.06000923734194315
% es.EZ (V/m) @ t=0.78
-2.565351587302467
% es.tEX (V/m) @ t=0.78
-0.8033786347569603
% es.tEY (V/m) @ t=0.78
0
% es.tEZ (V/m) @ t=0.78
-2.5653515873025015
% es.Ex (V/m) @ t=0.78
-0.803378634756952
% es.Ey (V/m) @ t=0.78
0.06000923734194315
% es.Ez (V/m) @ t=0.78
-2.565351587302467
% es.tEx (V/m) @ t=0.78
-0.8033786347569603
% es.tEy (V/m) @ t=0.78
0
% es.tEz (V/m) @ t=0.78
-2.5653515873025015
% V (V) @ t=0.78
0.013536136799010962
% es.normE (V/m) @ t=0.8
2.718326959325359
% es.EX (V/m) @ t=0.8
-0.8109340979922766
% es.EY (V/m) @ t=0.8
0.06057360142610252
% es.EZ (V/m) @ t=0.8
-2.5894777195802945
% es.tEX (V/m) @ t=0.8
-0.8109340979922877
% es.tEY (V/m) @ t=0.8
0
% es.tEZ (V/m) @ t=0.8
-2.589477719580316
% es.Ex (V/m) @ t=0.8
-0.8109340979922766
% es.Ey (V/m) @ t=0.8
0.06057360142610252
% es.Ez (V/m) @ t=0.8
-2.5894777195802945
% es.tEx (V/m) @ t=0.8
-0.8109340979922877
% es.tEy (V/m) @ t=0.8
0
% es.tEz (V/m) @ t=0.8
-2.589477719580316
% V (V) @ t=0.8
0.01366343886174981
% es.normE (V/m) @ t=0.82
2.74428833757534
% es.EX (V/m) @ t=0.82
-0.8186789232442797
% es.EY (V/m) @ t=0.82
0.06115211020163866
% es.EZ (V/m) @ t=0.82
-2.6142085232441685
% es.tEX (V/m) @ t=0.82
-0.8186789232442848
% es.tEY (V/m) @ t=0.82
0
% es.tEZ (V/m) @ t=0.82
-2.614208523244182
% es.Ex (V/m) @ t=0.82
-0.8186789232442797
% es.Ey (V/m) @ t=0.82
0.06115211020163866
% es.Ez (V/m) @ t=0.82
-2.6142085232441685
% es.tEx (V/m) @ t=0.82
-0.8186789232442848
% es.tEy (V/m) @ t=0.82
0
% es.tEz (V/m) @ t=0.82
-2.614208523244182
% V (V) @ t=0.82
0.013793931481839992
% es.normE (V/m) @ t=0.84
2.7702497158252806
% es.EX (V/m) @ t=0.84
-0.8264237484962773
% es.EY (V/m) @ t=0.84
0.061730618977178936
% es.EZ (V/m) @ t=0.84
-2.638939326908001
% es.tEX (V/m) @ t=0.84
-0.826423748496282
% es.tEY (V/m) @ t=0.84
0
% es.tEZ (V/m) @ t=0.84
-2.6389393269080355
% es.Ex (V/m) @ t=0.84
-0.8264237484962773
% es.Ey (V/m) @ t=0.84
0.061730618977178936
% es.Ez (V/m) @ t=0.84
-2.638939326908001
% es.tEx (V/m) @ t=0.84
-0.826423748496282
% es.tEy (V/m) @ t=0.84
0
% es.tEz (V/m) @ t=0.84
-2.6389393269080355
% V (V) @ t=0.84
0.013924424101930169
% es.normE (V/m) @ t=0.86
2.796211094075235
% es.EX (V/m) @ t=0.86
-0.8341685737482748
% es.EY (V/m) @ t=0.86
0.06230912775271538
% es.EZ (V/m) @ t=0.86
-2.6636701305718473
% es.tEX (V/m) @ t=0.86
-0.8341685737482862
% es.tEY (V/m) @ t=0.86
0
% es.tEZ (V/m) @ t=0.86
-2.6636701305718624
% es.Ex (V/m) @ t=0.86
-0.8341685737482748
% es.Ey (V/m) @ t=0.86
0.06230912775271538
% es.Ez (V/m) @ t=0.86
-2.6636701305718473
% es.tEx (V/m) @ t=0.86
-0.8341685737482862
% es.tEy (V/m) @ t=0.86
0
% es.tEz (V/m) @ t=0.86
-2.6636701305718624
% V (V) @ t=0.86
0.014054916722020354
% es.normE (V/m) @ t=0.88
2.8221724723251906
% es.EX (V/m) @ t=0.88
-0.8419133990002758
% es.EY (V/m) @ t=0.88
0.06288763652825721
% es.EZ (V/m) @ t=0.88
-2.6884009342356947
% es.tEX (V/m) @ t=0.88
-0.8419133990002763
% es.tEY (V/m) @ t=0.88
0
% es.tEZ (V/m) @ t=0.88
-2.6884009342357444
% es.Ex (V/m) @ t=0.88
-0.8419133990002758
% es.Ey (V/m) @ t=0.88
0.06288763652825721
% es.Ez (V/m) @ t=0.88
-2.6884009342356947
% es.tEx (V/m) @ t=0.88
-0.8419133990002763
% es.tEy (V/m) @ t=0.88
0
% es.tEz (V/m) @ t=0.88
-2.6884009342357444
% V (V) @ t=0.88
0.014185409342110536
% es.normE (V/m) @ t=0.9
2.8481338505751697
% es.EX (V/m) @ t=0.9
-0.8496582242522701
% es.EY (V/m) @ t=0.9
0.06346614530378122
% es.EZ (V/m) @ t=0.9
-2.7131317378995687
% es.tEX (V/m) @ t=0.9
-0.8496582242522734
% es.tEY (V/m) @ t=0.9
0
% es.tEZ (V/m) @ t=0.9
-2.7131317378995696
% es.Ex (V/m) @ t=0.9
-0.8496582242522701
% es.Ey (V/m) @ t=0.9
0.06346614530378122
% es.Ez (V/m) @ t=0.9
-2.7131317378995687
% es.tEx (V/m) @ t=0.9
-0.8496582242522734
% es.tEy (V/m) @ t=0.9
0
% es.tEz (V/m) @ t=0.9
-2.7131317378995696
% V (V) @ t=0.9
0.014315901962200716
% es.normE (V/m) @ t=0.92
2.8740952288251167
% es.EX (V/m) @ t=0.92
-0.8574030495042624
% es.EY (V/m) @ t=0.92
0.06404465407933364
% es.EZ (V/m) @ t=0.92
-2.737862541563408
% es.tEX (V/m) @ t=0.92
-0.8574030495042635
% es.tEY (V/m) @ t=0.92
0
% es.tEZ (V/m) @ t=0.92
-2.7378625415634392
% es.Ex (V/m) @ t=0.92
-0.8574030495042624
% es.Ey (V/m) @ t=0.92
0.06404465407933364
% es.Ez (V/m) @ t=0.92
-2.737862541563408
% es.tEx (V/m) @ t=0.92
-0.8574030495042635
% es.tEy (V/m) @ t=0.92
0
% es.tEz (V/m) @ t=0.92
-2.7378625415634392
% V (V) @ t=0.92
0.014446394582290897
% es.normE (V/m) @ t=0.94
2.900056607075092
% es.EX (V/m) @ t=0.94
-0.8651478747562635
% es.EY (V/m) @ t=0.94
0.06462316285487364
% es.EZ (V/m) @ t=0.94
-2.762593345227276
% es.tEX (V/m) @ t=0.94
-0.8651478747562606
% es.tEY (V/m) @ t=0.94
0
% es.tEZ (V/m) @ t=0.94
-2.762593345227293
% es.Ex (V/m) @ t=0.94
-0.8651478747562635
% es.Ey (V/m) @ t=0.94
0.06462316285487364
% es.Ez (V/m) @ t=0.94
-2.762593345227276
% es.tEx (V/m) @ t=0.94
-0.8651478747562606
% es.tEy (V/m) @ t=0.94
0
% es.tEz (V/m) @ t=0.94
-2.762593345227293
% V (V) @ t=0.94
0.014576887202381079
% es.normE (V/m) @ t=0.96
2.9260179853250365
% es.EX (V/m) @ t=0.96
-0.8728927000082558
% es.EY (V/m) @ t=0.96
0.0652016716304048
% es.EZ (V/m) @ t=0.96
-2.7873241488911153
% es.tEX (V/m) @ t=0.96
-0.8728927000082649
% es.tEY (V/m) @ t=0.96
0
% es.tEZ (V/m) @ t=0.96
-2.7873241488911322
% es.Ex (V/m) @ t=0.96
-0.8728927000082558
% es.Ey (V/m) @ t=0.96
0.0652016716304048
% es.Ez (V/m) @ t=0.96
-2.7873241488911153
% es.tEx (V/m) @ t=0.96
-0.8728927000082649
% es.tEy (V/m) @ t=0.96
0
% es.tEz (V/m) @ t=0.96
-2.7873241488911322
% V (V) @ t=0.96
0.014707379822471257
% es.normE (V/m) @ t=0.98
2.951979363575015
% es.EX (V/m) @ t=0.98
-0.8806375252602641
% es.EY (V/m) @ t=0.98
0.06578018040595368
% es.EZ (V/m) @ t=0.98
-2.812054952554983
% es.tEX (V/m) @ t=0.98
-0.8806375252602692
% es.tEY (V/m) @ t=0.98
0
% es.tEZ (V/m) @ t=0.98
-2.812054952555002
% es.Ex (V/m) @ t=0.98
-0.8806375252602641
% es.Ey (V/m) @ t=0.98
0.06578018040595368
% es.Ez (V/m) @ t=0.98
-2.812054952554983
% es.tEx (V/m) @ t=0.98
-0.8806375252602692
% es.tEy (V/m) @ t=0.98
0
% es.tEz (V/m) @ t=0.98
-2.812054952555002
% V (V) @ t=0.98
0.014837872442561437
% es.normE (V/m) @ t=1
2.9779407418249635
% es.EX (V/m) @ t=1
-0.8883823505122634
% es.EY (V/m) @ t=1
0.06635868918149729
% es.EZ (V/m) @ t=1
-2.8367857562188226
% es.tEX (V/m) @ t=1
-0.8883823505122734
% es.tEY (V/m) @ t=1
0
% es.tEZ (V/m) @ t=1
-2.8367857562188554
% es.Ex (V/m) @ t=1
-0.8883823505122634
% es.Ey (V/m) @ t=1
0.06635868918149729
% es.Ez (V/m) @ t=1
-2.8367857562188226
% es.tEx (V/m) @ t=1
-0.8883823505122734
% es.tEy (V/m) @ t=1
0
% es.tEz (V/m) @ t=1
-2.8367857562188554
% V (V) @ t=1
0.01496836506265162
% es.normE (V/m) @ t=1.02
3.0039021200749216
% es.EX (V/m) @ t=1.02
-0.8961271757642524
% es.EY (V/m) @ t=1.02
0.06693719795704033
% es.EZ (V/m) @ t=1.02
-2.8615165598826753
% es.tEX (V/m) @ t=1.02
-0.8961271757642635
% es.tEY (V/m) @ t=1.02
0
% es.tEZ (V/m) @ t=1.02
-2.861516559882709
% es.Ex (V/m) @ t=1.02
-0.8961271757642524
% es.Ey (V/m) @ t=1.02
0.06693719795704033
% es.Ez (V/m) @ t=1.02
-2.8615165598826753
% es.tEx (V/m) @ t=1.02
-0.8961271757642635
% es.tEy (V/m) @ t=1.02
0
% es.tEz (V/m) @ t=1.02
-2.861516559882709
% V (V) @ t=1.02
0.015098857682741803
% es.normE (V/m) @ t=1.04