% Model:              1 neuron.mph
% Version:            COMSOL 6.0.0.405
% Date:               Mar 16 2023, 18:13
% Dimension:          0
% Nodes:              14017
% Expressions:        14017
% Description:        Electric field norm, Electric field, X component, Electric field, Y component, Electric field, Z component, Tangential electric field, X component, Tangential electric field, Y component, Tangential electric field, Z component, Electric field, x component, Electric field, y component, Electric field, z component, Tangential electric field, x component, Tangential electric field, y component, Tangential electric field, z component, Electric potential
% Length unit:        mm
% x
1.33
% y
12.2
% z
2
% es.normE (V/m) @ t=0
2.1646144655370962
% es.EX (V/m) @ t=0
0.8626814570877996
% es.EY (V/m) @ t=0
0.22807687944811228
% es.EZ (V/m) @ t=0
-1.9703846619525578
% es.tEX (V/m) @ t=0
0.8626814570877963
% es.tEY (V/m) @ t=0
0
% es.tEZ (V/m) @ t=0
-1.9703846619525613
% es.Ex (V/m) @ t=0
0.8626814570877996
% es.Ey (V/m) @ t=0
0.22807687944811228
% es.Ez (V/m) @ t=0
-1.9703846619525578
% es.tEx (V/m) @ t=0
0.8626814570877963
% es.tEy (V/m) @ t=0
0
% es.tEz (V/m) @ t=0
-1.9703846619525613
% V (V) @ t=0
0.010823272698659655
% es.normE (V/m) @ t=0.02
1.869621146220699
% es.EX (V/m) @ t=0.02
0.7451153636678536
% es.EY (V/m) @ t=0.02
0.19699459836596578
% es.EZ (V/m) @ t=0.02
-1.7018609497252113
% es.tEX (V/m) @ t=0.02
0.7451153636678538
% es.tEY (V/m) @ t=0.02
0
% es.tEZ (V/m) @ t=0.02
-1.7018609497252122
% es.Ex (V/m) @ t=0.02
0.7451153636678536
% es.Ey (V/m) @ t=0.02
0.19699459836596578
% es.Ez (V/m) @ t=0.02
-1.7018609497252113
% es.tEx (V/m) @ t=0.02
0.7451153636678538
% es.tEy (V/m) @ t=0.02
0
% es.tEz (V/m) @ t=0.02
-1.7018609497252122
% V (V) @ t=0.02
0.009348278786269973
% es.normE (V/m) @ t=0.04
1.8868221724453642
% es.EX (V/m) @ t=0.04
0.751970628892108
% es.EY (V/m) @ t=0.04
0.19880700224340053
% es.EZ (V/m) @ t=0.04
-1.7175185362770646
% es.tEX (V/m) @ t=0.04
0.7519706288921082
% es.tEY (V/m) @ t=0.04
0
% es.tEZ (V/m) @ t=0.04
-1.7175185362770709
% es.Ex (V/m) @ t=0.04
0.751970628892108
% es.Ey (V/m) @ t=0.04
0.19880700224340053
% es.Ez (V/m) @ t=0.04
-1.7175185362770646
% es.tEx (V/m) @ t=0.04
0.7519706288921082
% es.tEy (V/m) @ t=0.04
0
% es.tEz (V/m) @ t=0.04
-1.7175185362770709
% V (V) @ t=0.04
0.009434285523965923
% es.normE (V/m) @ t=0.06
1.9041630681405413
% es.EX (V/m) @ t=0.06
0.7588816372158524
% es.EY (V/m) @ t=0.06
0.2006341419940414
% es.EZ (V/m) @ t=0.06
-1.7333034421092046
% es.tEX (V/m) @ t=0.06
0.7588816372158491
% es.tEY (V/m) @ t=0.06
0
% es.tEZ (V/m) @ t=0.06
-1.7333034421092055
% es.Ex (V/m) @ t=0.06
0.7588816372158524
% es.Ey (V/m) @ t=0.06
0.2006341419940414
% es.Ez (V/m) @ t=0.06
-1.7333034421092046
% es.tEx (V/m) @ t=0.06
0.7588816372158491
% es.tEy (V/m) @ t=0.06
0
% es.tEz (V/m) @ t=0.06
-1.7333034421092055
% V (V) @ t=0.06
0.009520991690346658
% es.normE (V/m) @ t=0.08
1.9218039483830731
% es.EX (V/m) @ t=0.08
0.7659122011263848
% es.EY (V/m) @ t=0.08
0.20249289213387023
% es.EZ (V/m) @ t=0.08
-1.74936141471047
% es.tEX (V/m) @ t=0.08
0.7659122011263886
% es.tEY (V/m) @ t=0.08
0
% es.tEZ (V/m) @ t=0.08
-1.7493614147104761
% es.Ex (V/m) @ t=0.08
0.7659122011263848
% es.Ey (V/m) @ t=0.08
0.20249289213387023
% es.Ez (V/m) @ t=0.08
-1.74936141471047
% es.tEx (V/m) @ t=0.08
0.7659122011263886
% es.tEy (V/m) @ t=0.08
0
% es.tEz (V/m) @ t=0.08
-1.7493614147104761
% V (V) @ t=0.08
0.009609197714279788
% es.normE (V/m) @ t=0.1
1.9395800501360512
% es.EX (V/m) @ t=0.1
0.7729966561028816
% es.EY (V/m) @ t=0.1
0.20436589102286185
% es.EZ (V/m) @ t=0.1
-1.7655424753217641
% es.tEX (V/m) @ t=0.1
0.7729966561028818
% es.tEY (V/m) @ t=0.1
0
% es.tEZ (V/m) @ t=0.1
-1.765542475321766
% es.Ex (V/m) @ t=0.1
0.7729966561028816
% es.Ey (V/m) @ t=0.1
0.20436589102286185
% es.Ez (V/m) @ t=0.1
-1.7655424753217641
% es.tEx (V/m) @ t=0.1
0.7729966561028818
% es.tEy (V/m) @ t=0.1
0
% es.tEz (V/m) @ t=0.1
-1.765542475321766
% V (V) @ t=0.1
0.009698079816382477
% es.normE (V/m) @ t=0.12
1.9573561518890195
% es.EX (V/m) @ t=0.12
0.7800811110793604
% es.EY (V/m) @ t=0.12
0.20623888991187211
% es.EZ (V/m) @ t=0.12
-1.781723535933053
% es.tEX (V/m) @ t=0.12
0.7800811110793608
% es.tEY (V/m) @ t=0.12
0
% es.tEZ (V/m) @ t=0.12
-1.7817235359330574
% es.Ex (V/m) @ t=0.12
0.7800811110793604
% es.Ey (V/m) @ t=0.12
0.20623888991187211
% es.Ez (V/m) @ t=0.12
-1.781723535933053
% es.tEx (V/m) @ t=0.12
0.7800811110793608
% es.tEy (V/m) @ t=0.12
0
% es.tEz (V/m) @ t=0.12
-1.7817235359330574
% V (V) @ t=0.12
0.009786961918485165
% es.normE (V/m) @ t=0.14
1.975489171914227
% es.EX (V/m) @ t=0.14
0.7873078113489453
% es.EY (V/m) @ t=0.14
0.20814949397239513
% es.EZ (V/m) @ t=0.14
-1.7982294889810921
% es.tEX (V/m) @ t=0.14
0.787307811348942
% es.tEY (V/m) @ t=0.14
0
% es.tEZ (V/m) @ t=0.14
-1.7982294889810966
% es.Ex (V/m) @ t=0.14
0.7873078113489453
% es.Ey (V/m) @ t=0.14
0.20814949397239513
% es.Ez (V/m) @ t=0.14
-1.7982294889810921
% es.tEx (V/m) @ t=0.14
0.787307811348942
% es.tEy (V/m) @ t=0.14
0
% es.tEz (V/m) @ t=0.14
-1.7982294889810966
% V (V) @ t=0.14
0.009877628725106814
% es.normE (V/m) @ t=0.16
1.994184556573378
% es.EX (V/m) @ t=0.16
0.7947586349778715
% es.EY (V/m) @ t=0.16
0.2101193491841471
% es.EZ (V/m) @ t=0.16
-1.815247346379441
% es.tEX (V/m) @ t=0.16
0.7947586349778684
% es.tEY (V/m) @ t=0.16
0
% es.tEZ (V/m) @ t=0.16
-1.8152473463794472
% es.Ex (V/m) @ t=0.16
0.7947586349778715
% es.Ey (V/m) @ t=0.16
0.2101193491841471
% es.Ez (V/m) @ t=0.16
-1.815247346379441
% es.tEx (V/m) @ t=0.16
0.7947586349778684
% es.tEy (V/m) @ t=0.16
0
% es.tEz (V/m) @ t=0.16
-1.8152473463794472
% V (V) @ t=0.16
0.009971107533190854
% es.normE (V/m) @ t=0.18
2.0128799412325193
% es.EX (V/m) @ t=0.18
0.8022094586067865
% es.EY (V/m) @ t=0.18
0.21208920439587597
% es.EZ (V/m) @ t=0.18
-1.8322652037777862
% es.tEX (V/m) @ t=0.18
0.8022094586067867
% es.tEY (V/m) @ t=0.18
0
% es.tEZ (V/m) @ t=0.18
-1.8322652037777925
% es.Ex (V/m) @ t=0.18
0.8022094586067865
% es.Ey (V/m) @ t=0.18
0.21208920439587597
% es.Ez (V/m) @ t=0.18
-1.8322652037777862
% es.tEx (V/m) @ t=0.18
0.8022094586067867
% es.tEy (V/m) @ t=0.18
0
% es.tEz (V/m) @ t=0.18
-1.8322652037777925
% V (V) @ t=0.18
0.010064586341274894
% es.normE (V/m) @ t=0.2
2.0315753258916676
% es.EX (V/m) @ t=0.2
0.8096602822357133
% es.EY (V/m) @ t=0.2
0.21405905960759952
% es.EZ (V/m) @ t=0.2
-1.849283061176136
% es.tEX (V/m) @ t=0.2
0.8096602822357135
% es.tEY (V/m) @ t=0.2
0
% es.tEZ (V/m) @ t=0.2
-1.8492830611761395
% es.Ex (V/m) @ t=0.2
0.8096602822357133
% es.Ey (V/m) @ t=0.2
0.21405905960759952
% es.Ez (V/m) @ t=0.2
-1.849283061176136
% es.tEx (V/m) @ t=0.2
0.8096602822357135
% es.tEy (V/m) @ t=0.2
0
% es.tEz (V/m) @ t=0.2
-1.8492830611761395
% V (V) @ t=0.2
0.010158065149358932
% es.normE (V/m) @ t=0.22
2.050270710550821
% es.EX (V/m) @ t=0.22
0.8171111058646459
% es.EY (V/m) @ t=0.22
0.21602891481934794
% es.EZ (V/m) @ t=0.22
-1.8663009185744839
% es.tEX (V/m) @ t=0.22
0.8171111058646461
% es.tEY (V/m) @ t=0.22
0
% es.tEZ (V/m) @ t=0.22
-1.86630091857449
% es.Ex (V/m) @ t=0.22
0.8171111058646459
% es.Ey (V/m) @ t=0.22
0.21602891481934794
% es.Ez (V/m) @ t=0.22
-1.8663009185744839
% es.tEx (V/m) @ t=0.22
0.8171111058646461
% es.tEy (V/m) @ t=0.22
0
% es.tEz (V/m) @ t=0.22
-1.86630091857449
% V (V) @ t=0.22
0.01025154395744297
% es.normE (V/m) @ t=0.24
2.0689660952099582
% es.EX (V/m) @ t=0.24
0.824561929493558
% es.EY (V/m) @ t=0.24
0.2179987700310786
% es.EZ (V/m) @ t=0.24
-1.8833187759728265
% es.tEX (V/m) @ t=0.24
0.8245619294935582
% es.tEY (V/m) @ t=0.24
0
% es.tEZ (V/m) @ t=0.24
-1.8833187759728318
% es.Ex (V/m) @ t=0.24
0.824561929493558
% es.Ey (V/m) @ t=0.24
0.2179987700310786
% es.Ez (V/m) @ t=0.24
-1.8833187759728265
% es.tEx (V/m) @ t=0.24
0.8245619294935582
% es.tEy (V/m) @ t=0.24
0
% es.tEz (V/m) @ t=0.24
-1.8833187759728318
% V (V) @ t=0.24
0.010345022765527012
% es.normE (V/m) @ t=0.26
2.0876614798691095
% es.EX (V/m) @ t=0.26
0.8320127531224841
% es.EY (V/m) @ t=0.26
0.2199686252428128
% es.EZ (V/m) @ t=0.26
-1.900336633371177
% es.tEX (V/m) @ t=0.26
0.8320127531224846
% es.tEY (V/m) @ t=0.26
0
% es.tEZ (V/m) @ t=0.26
-1.9003366333711789
% es.Ex (V/m) @ t=0.26
0.8320127531224841
% es.Ey (V/m) @ t=0.26
0.2199686252428128
% es.Ez (V/m) @ t=0.26
-1.900336633371177
% es.tEx (V/m) @ t=0.26
0.8320127531224846
% es.tEy (V/m) @ t=0.26
0
% es.tEz (V/m) @ t=0.26
-1.9003366333711789
% V (V) @ t=0.26
0.01043850157361105
% es.normE (V/m) @ t=0.28
2.1079763843825186
% es.EX (V/m) @ t=0.28
0.8401090011095365
% es.EY (V/m) @ t=0.28
0.2221090024699146
% es.EZ (V/m) @ t=0.28
-1.91882870877705
% es.tEX (V/m) @ t=0.28
0.8401090011095405
% es.tEY (V/m) @ t=0.28
0
% es.tEZ (V/m) @ t=0.28
-1.9188287087770508
% es.Ex (V/m) @ t=0.28
0.8401090011095365
% es.Ey (V/m) @ t=0.28
0.2221090024699146
% es.Ez (V/m) @ t=0.28
-1.91882870877705
% es.tEx (V/m) @ t=0.28
0.8401090011095405
% es.tEy (V/m) @ t=0.28
0
% es.tEz (V/m) @ t=0.28
-1.9188287087770508
% V (V) @ t=0.28
0.010540083209195144
% es.normE (V/m) @ t=0.3
2.1287317405895916
% es.EX (V/m) @ t=0.3
0.8483807815242528
% es.EY (V/m) @ t=0.3
0.22429575560917492
% es.EZ (V/m) @ t=0.3
-1.9377217189516456
% es.tEX (V/m) @ t=0.3
0.848380781524253
% es.tEY (V/m) @ t=0.3
0
% es.tEZ (V/m) @ t=0.3
-1.9377217189516482
% es.Ex (V/m) @ t=0.3
0.8483807815242528
% es.Ey (V/m) @ t=0.3
0.22429575560917492
% es.Ez (V/m) @ t=0.3
-1.9377217189516456
% es.tEx (V/m) @ t=0.3
0.848380781524253
% es.tEy (V/m) @ t=0.3
0
% es.tEz (V/m) @ t=0.3
-1.9377217189516482
% V (V) @ t=0.3
0.010643868525139363
% es.normE (V/m) @ t=0.32
2.1494870967966895
% es.EX (V/m) @ t=0.32
0.856652561938972
% es.EY (V/m) @ t=0.32
0.22648250874841924
% es.EZ (V/m) @ t=0.32
-1.9566147291262475
% es.tEX (V/m) @ t=0.32
0.8566525619389722
% es.tEY (V/m) @ t=0.32
0
% es.tEZ (V/m) @ t=0.32
-1.9566147291262475
% es.Ex (V/m) @ t=0.32
0.856652561938972
% es.Ey (V/m) @ t=0.32
0.22648250874841924
% es.Ez (V/m) @ t=0.32
-1.9566147291262475
% es.tEx (V/m) @ t=0.32
0.8566525619389722
% es.tEy (V/m) @ t=0.32
0
% es.tEz (V/m) @ t=0.32
-1.9566147291262475
% V (V) @ t=0.32
0.010747653841083582
% es.normE (V/m) @ t=0.34
2.1702424530038087
% es.EX (V/m) @ t=0.34
0.8649243423536996
% es.EY (V/m) @ t=0.34
0.22866926188765913
% es.EZ (V/m) @ t=0.34
-1.975507739300851
% es.tEX (V/m) @ t=0.34
0.8649243423536999
% es.tEY (V/m) @ t=0.34
0
% es.tEZ (V/m) @ t=0.34
-1.9755077393008538
% es.Ex (V/m) @ t=0.34
0.8649243423536996
% es.Ey (V/m) @ t=0.34
0.22866926188765913
% es.Ez (V/m) @ t=0.34
-1.975507739300851
% es.tEx (V/m) @ t=0.34
0.8649243423536999
% es.tEy (V/m) @ t=0.34
0
% es.tEz (V/m) @ t=0.34
-1.9755077393008538
% V (V) @ t=0.34
0.010851439157027807
% es.normE (V/m) @ t=0.36
2.1909978092109323
% es.EX (V/m) @ t=0.36
0.8731961227684086
% es.EY (V/m) @ t=0.36
0.23085601502691588
% es.EZ (V/m) @ t=0.36
-1.994400749475445
% es.tEX (V/m) @ t=0.36
0.8731961227684053
% es.tEY (V/m) @ t=0.36
0
% es.tEZ (V/m) @ t=0.36
-1.9944007494754583
% es.Ex (V/m) @ t=0.36
0.8731961227684086
% es.Ey (V/m) @ t=0.36
0.23085601502691588
% es.Ez (V/m) @ t=0.36
-1.994400749475445
% es.tEx (V/m) @ t=0.36
0.8731961227684053
% es.tEy (V/m) @ t=0.36
0
% es.tEz (V/m) @ t=0.36
-1.9944007494754583
% V (V) @ t=0.36
0.010955224472972026
% es.normE (V/m) @ t=0.38
2.2117531654180747
% es.EX (V/m) @ t=0.38
0.8814679031831285
% es.EY (V/m) @ t=0.38
0.2330427681661602
% es.EZ (V/m) @ t=0.38
-2.013293759650039
% es.tEX (V/m) @ t=0.38
0.8814679031831254
% es.tEY (V/m) @ t=0.38
0
% es.tEZ (V/m) @ t=0.38
-2.0132937596500486
% es.Ex (V/m) @ t=0.38
0.8814679031831285
% es.Ey (V/m) @ t=0.38
0.2330427681661602
% es.Ez (V/m) @ t=0.38
-2.013293759650039
% es.tEx (V/m) @ t=0.38
0.8814679031831254
% es.tEy (V/m) @ t=0.38
0
% es.tEz (V/m) @ t=0.38
-2.0132937596500486
% V (V) @ t=0.38
0.011059009788916245
% es.normE (V/m) @ t=0.4
2.2325085216252427
% es.EX (V/m) @ t=0.4
0.8897396835978406
% es.EY (V/m) @ t=0.4
0.23522952130541874
% es.EZ (V/m) @ t=0.4
-2.0321867698246416
% es.tEX (V/m) @ t=0.4
0.8897396835978446
% es.tEY (V/m) @ t=0.4
0
% es.tEZ (V/m) @ t=0.4
-2.0321867698246443
% es.Ex (V/m) @ t=0.4
0.8897396835978406
% es.Ey (V/m) @ t=0.4
0.23522952130541874
% es.Ez (V/m) @ t=0.4
-2.0321867698246416
% es.tEx (V/m) @ t=0.4
0.8897396835978446
% es.tEy (V/m) @ t=0.4
0
% es.tEz (V/m) @ t=0.4
-2.0321867698246443
% V (V) @ t=0.4
0.011162795104860465
% es.normE (V/m) @ t=0.42
2.253263877832426
% es.EX (V/m) @ t=0.42
0.8980114640125711
% es.EY (V/m) @ t=0.42
0.2374162744446755
% es.EZ (V/m) @ t=0.42
-2.0510797799992373
% es.tEX (V/m) @ t=0.42
0.8980114640125714
% es.tEY (V/m) @ t=0.42
0
% es.tEZ (V/m) @ t=0.42
-2.051079779999238
% es.Ex (V/m) @ t=0.42
0.8980114640125711
% es.Ey (V/m) @ t=0.42
0.2374162744446755
% es.Ez (V/m) @ t=0.42
-2.0510797799992373
% es.tEx (V/m) @ t=0.42
0.8980114640125714
% es.tEy (V/m) @ t=0.42
0
% es.tEz (V/m) @ t=0.42
-2.051079779999238
% V (V) @ t=0.42
0.011266580420804688
% es.normE (V/m) @ t=0.44
2.274019234039633
% es.EX (V/m) @ t=0.44
0.9062832444272915
% es.EY (V/m) @ t=0.44
0.2396030275838994
% es.EZ (V/m) @ t=0.44
-2.06997279017385
% es.tEX (V/m) @ t=0.44
0.9062832444272919
% es.tEY (V/m) @ t=0.44
0
% es.tEZ (V/m) @ t=0.44
-2.0699727901738534
% es.Ex (V/m) @ t=0.44
0.9062832444272915
% es.Ey (V/m) @ t=0.44
0.2396030275838994
% es.Ez (V/m) @ t=0.44
-2.06997279017385
% es.tEx (V/m) @ t=0.44
0.9062832444272919
% es.tEy (V/m) @ t=0.44
0
% es.tEz (V/m) @ t=0.44
-2.0699727901738534
% V (V) @ t=0.44
0.011370365736748907
% es.normE (V/m) @ t=0.46
2.2947745902468304
% es.EX (V/m) @ t=0.46
0.9145550248419971
% es.EY (V/m) @ t=0.46
0.24178978072316148
% es.EZ (V/m) @ t=0.46
-2.0888658003484366
% es.tEX (V/m) @ t=0.46
0.9145550248419974
% es.tEY (V/m) @ t=0.46
0
% es.tEZ (V/m) @ t=0.46
-2.08886580034844
% es.Ex (V/m) @ t=0.46
0.9145550248419971
% es.Ey (V/m) @ t=0.46
0.24178978072316148
% es.Ez (V/m) @ t=0.46
-2.0888658003484366
% es.tEx (V/m) @ t=0.46
0.9145550248419974
% es.tEy (V/m) @ t=0.46
0
% es.tEz (V/m) @ t=0.46
-2.08886580034844
% V (V) @ t=0.46
0.011474151052693128
% es.normE (V/m) @ t=0.48
2.315529946454058
% es.EX (V/m) @ t=0.48
0.9228268052567234
% es.EY (V/m) @ t=0.48
0.24397653386240226
% es.EZ (V/m) @ t=0.48
-2.1077588105230323
% es.tEX (V/m) @ t=0.48
0.9228268052567237
% es.tEY (V/m) @ t=0.48
0
% es.tEZ (V/m) @ t=0.48
-2.107758810523043
% es.Ex (V/m) @ t=0.48
0.9228268052567234
% es.Ey (V/m) @ t=0.48
0.24397653386240226
% es.Ez (V/m) @ t=0.48
-2.1077588105230323
% es.tEx (V/m) @ t=0.48
0.9228268052567237
% es.tEy (V/m) @ t=0.48
0
% es.tEz (V/m) @ t=0.48
-2.107758810523043
% V (V) @ t=0.48
0.011577936368637345
% es.normE (V/m) @ t=0.5
2.336285302661314
% es.EX (V/m) @ t=0.5
0.9310985856714469
% es.EY (V/m) @ t=0.5
0.2461632870016519
% es.EZ (V/m) @ t=0.5
-2.126651820697644
% es.tEX (V/m) @ t=0.5
0.9310985856714438
% es.tEY (V/m) @ t=0.5
0
% es.tEZ (V/m) @ t=0.5
-2.1266518206976475
% es.Ex (V/m) @ t=0.5
0.9310985856714469
% es.Ey (V/m) @ t=0.5
0.2461632870016519
% es.Ez (V/m) @ t=0.5
-2.126651820697644
% es.tEx (V/m) @ t=0.5
0.9310985856714438
% es.tEy (V/m) @ t=0.5
0
% es.tEz (V/m) @ t=0.5
-2.1266518206976475
% V (V) @ t=0.5
0.011681721684581568
% es.normE (V/m) @ t=0.52
2.357040658868555
% es.EX (V/m) @ t=0.52
0.9393703660861636
% es.EY (V/m) @ t=0.52
0.24835004014088824
% es.EZ (V/m) @ t=0.52
-2.145544830872229
% es.tEX (V/m) @ t=0.52
0.9393703660861639
% es.tEY (V/m) @ t=0.52
0
% es.tEZ (V/m) @ t=0.52
-2.145544830872236
% es.Ex (V/m) @ t=0.52
0.9393703660861636
% es.Ey (V/m) @ t=0.52
0.24835004014088824
% es.Ez (V/m) @ t=0.52
-2.145544830872229
% es.tEx (V/m) @ t=0.52
0.9393703660861639
% es.tEy (V/m) @ t=0.52
0
% es.tEz (V/m) @ t=0.52
-2.145544830872236
% V (V) @ t=0.52
0.011785507000525787
% es.normE (V/m) @ t=0.54
2.379150691431059
% es.EX (V/m) @ t=0.54
0.9481819609069837
% es.EY (V/m) @ t=0.54
0.2506789743793698
% es.EZ (V/m) @ t=0.54
-2.1656710415790412
% es.tEX (V/m) @ t=0.54
0.9481819609069841
% es.tEY (V/m) @ t=0.54
0
% es.tEZ (V/m) @ t=0.54
-2.165671041579044
% es.Ex (V/m) @ t=0.54
0.9481819609069837
% es.Ey (V/m) @ t=0.54
0.2506789743793698
% es.Ez (V/m) @ t=0.54
-2.1656710415790412
% es.tEx (V/m) @ t=0.54
0.9481819609069841
% es.tEy (V/m) @ t=0.54
0
% es.tEz (V/m) @ t=0.54
-2.165671041579044
% V (V) @ t=0.54
0.011896089297049939
% es.normE (V/m) @ t=0.56
2.4022335019071797
% es.EX (V/m) @ t=0.56
0.9573811904047349
% es.EY (V/m) @ t=0.56
0.25311000727221167
% es.EZ (V/m) @ t=0.56
-2.1866827997713214
% es.tEX (V/m) @ t=0.56
0.9573811904047353
% es.tEY (V/m) @ t=0.56
0
% es.tEZ (V/m) @ t=0.56
-2.1866827997713276
% es.Ex (V/m) @ t=0.56
0.9573811904047349
% es.Ey (V/m) @ t=0.56
0.25311000727221167
% es.Ez (V/m) @ t=0.56
-2.1866827997713214
% es.tEx (V/m) @ t=0.56
0.9573811904047353
% es.tEy (V/m) @ t=0.56
0
% es.tEz (V/m) @ t=0.56
-2.1866827997713276
% V (V) @ t=0.56
0.012011552429175551
% es.normE (V/m) @ t=0.58
2.4253163123841164
% es.EX (V/m) @ t=0.58
0.9665804199025145
% es.EY (V/m) @ t=0.58
0.2555410401650713
% es.EZ (V/m) @ t=0.58
-2.2076945579635883
% es.tEX (V/m) @ t=0.58
0.966580419902515
% es.tEY (V/m) @ t=0.58
0
% es.tEZ (V/m) @ t=0.58
-2.2076945579635954
% es.Ex (V/m) @ t=0.58
0.9665804199025145
% es.Ey (V/m) @ t=0.58
0.2555410401650713
% es.Ez (V/m) @ t=0.58
-2.2076945579635883
% es.tEx (V/m) @ t=0.58
0.966580419902515
% es.tEy (V/m) @ t=0.58
0
% es.tEz (V/m) @ t=0.58
-2.2076945579635954
% V (V) @ t=0.58
0.012127015561301161
% es.normE (V/m) @ t=0.6
2.4483991228618605
% es.EX (V/m) @ t=0.6
0.975779649400295
% es.EY (V/m) @ t=0.6
0.2579720730578954
% es.EZ (V/m) @ t=0.6
-2.2287063161558773
% es.tEX (V/m) @ t=0.6
0.9757796494002955
% es.tEY (V/m) @ t=0.6
0
% es.tEZ (V/m) @ t=0.6
-2.2287063161558756
% es.Ex (V/m) @ t=0.6
0.975779649400295
% es.Ey (V/m) @ t=0.6
0.2579720730578954
% es.Ez (V/m) @ t=0.6
-2.2287063161558773
% es.tEx (V/m) @ t=0.6
0.9757796494002955
% es.tEy (V/m) @ t=0.6
0
% es.tEz (V/m) @ t=0.6
-2.2287063161558756
% V (V) @ t=0.6
0.012242478693426774
% es.normE (V/m) @ t=0.62
2.4714819333403706
% es.EX (V/m) @ t=0.62
0.9849788788980818
% es.EY (V/m) @ t=0.62
0.2604031059507337
% es.EZ (V/m) @ t=0.62
-2.2497180743481575
% es.tEX (V/m) @ t=0.62
0.9849788788980822
% es.tEY (V/m) @ t=0.62
0
% es.tEZ (V/m) @ t=0.62
-2.2497180743481593
% es.Ex (V/m) @ t=0.62
0.9849788788980818
% es.Ey (V/m) @ t=0.62
0.2604031059507337
% es.Ez (V/m) @ t=0.62
-2.2497180743481575
% es.tEx (V/m) @ t=0.62
0.9849788788980822
% es.tEy (V/m) @ t=0.62
0
% es.tEz (V/m) @ t=0.62
-2.2497180743481593
% V (V) @ t=0.62
0.012357941825552384
% es.normE (V/m) @ t=0.64
2.494564743819614
% es.EX (V/m) @ t=0.64
0.9941781083958472
% es.EY (V/m) @ t=0.64
0.2628341388435862
% es.EZ (V/m) @ t=0.64
-2.270729832540429
% es.tEX (V/m) @ t=0.64
0.9941781083958476
% es.tEY (V/m) @ t=0.64
0
% es.tEZ (V/m) @ t=0.64
-2.270729832540429
% es.Ex (V/m) @ t=0.64
0.9941781083958472
% es.Ey (V/m) @ t=0.64
0.2628341388435862
% es.Ez (V/m) @ t=0.64
-2.270729832540429
% es.tEx (V/m) @ t=0.64
0.9941781083958476
% es.tEy (V/m) @ t=0.64
0
% es.tEz (V/m) @ t=0.64
-2.270729832540429
% V (V) @ t=0.64
0.012473404957677995
% es.normE (V/m) @ t=0.66
2.517647554299586
% es.EX (V/m) @ t=0.66
1.0033773378936197
% es.EY (V/m) @ t=0.66
0.2652651717364396
% es.EZ (V/m) @ t=0.66
-2.2917415907326983
% es.tEX (V/m) @ t=0.66
1.0033773378936202
% es.tEY (V/m) @ t=0.66
0
% es.tEZ (V/m) @ t=0.66
-2.291741590732702
% es.Ex (V/m) @ t=0.66
1.0033773378936197
% es.Ey (V/m) @ t=0.66
0.2652651717364396
% es.Ez (V/m) @ t=0.66
-2.2917415907326983
% es.tEx (V/m) @ t=0.66
1.0033773378936202
% es.tEy (V/m) @ t=0.66
0
% es.tEz (V/m) @ t=0.66
-2.291741590732702
% V (V) @ t=0.66
0.012588868089803603
% es.normE (V/m) @ t=0.68
2.540730364780279
% es.EX (V/m) @ t=0.68
1.0125765673913931
% es.EY (V/m) @ t=0.68
0.2676962046292788
% es.EZ (V/m) @ t=0.68
-2.312753348924984
% es.tEX (V/m) @ t=0.68
1.0125765673913936
% es.tEY (V/m) @ t=0.68
0
% es.tEZ (V/m) @ t=0.68
-2.312753348924982
% es.Ex (V/m) @ t=0.68
1.0125765673913931
% es.Ey (V/m) @ t=0.68
0.2676962046292788
% es.Ez (V/m) @ t=0.68
-2.312753348924984
% es.tEx (V/m) @ t=0.68
1.0125765673913936
% es.tEy (V/m) @ t=0.68
0
% es.tEz (V/m) @ t=0.68
-2.312753348924982
% V (V) @ t=0.68
0.012704331221929217
% es.normE (V/m) @ t=0.7
2.563813175261649
% es.EX (V/m) @ t=0.7
1.0217757968891585
% es.EY (V/m) @ t=0.7
0.27012723752211887
% es.EZ (V/m) @ t=0.7
-2.3337651071172605
% es.tEX (V/m) @ t=0.7
1.021775796889166
% es.tEY (V/m) @ t=0.7
0
% es.tEZ (V/m) @ t=0.7
-2.3337651071172694
% es.Ex (V/m) @ t=0.7
1.0217757968891585
% es.Ey (V/m) @ t=0.7
0.27012723752211887
% es.Ez (V/m) @ t=0.7
-2.3337651071172605
% es.tEx (V/m) @ t=0.7
1.021775796889166
% es.tEy (V/m) @ t=0.7
0
% es.tEz (V/m) @ t=0.7
-2.3337651071172694
% V (V) @ t=0.7
0.012819794354054828
% es.normE (V/m) @ t=0.72
2.586895985743686
% es.EX (V/m) @ t=0.72
1.0309750263869382
% es.EY (V/m) @ t=0.72
0.2725582704149616
% es.EZ (V/m) @ t=0.72
-2.3547768653095265
% es.tEX (V/m) @ t=0.72
1.0309750263869386
% es.tEY (V/m) @ t=0.72
0
% es.tEZ (V/m) @ t=0.72
-2.3547768653095282
% es.Ex (V/m) @ t=0.72
1.0309750263869382
% es.Ey (V/m) @ t=0.72
0.2725582704149616
% es.Ez (V/m) @ t=0.72
-2.3547768653095265
% es.tEx (V/m) @ t=0.72
1.0309750263869386
% es.tEy (V/m) @ t=0.72
0
% es.tEz (V/m) @ t=0.72
-2.3547768653095282
% V (V) @ t=0.72
0.012935257486180438
% es.normE (V/m) @ t=0.74
2.609978796226397
% es.EX (V/m) @ t=0.74
1.040174255884725
% es.EY (V/m) @ t=0.74
0.2749893033078008
% es.EZ (V/m) @ t=0.74
-2.3757886235018137
% es.tEX (V/m) @ t=0.74
1.0401742558847253
% es.tEY (V/m) @ t=0.74
0
% es.tEZ (V/m) @ t=0.74
-2.3757886235018226
% es.Ex (V/m) @ t=0.74
1.040174255884725
% es.Ey (V/m) @ t=0.74
0.2749893033078008
% es.Ez (V/m) @ t=0.74
-2.3757886235018137
% es.tEx (V/m) @ t=0.74
1.0401742558847253
% es.tEy (V/m) @ t=0.74
0
% es.tEz (V/m) @ t=0.74
-2.3757886235018226
% V (V) @ t=0.74
0.013050720618306049
% es.normE (V/m) @ t=0.76
2.6330616067097212
% es.EX (V/m) @ t=0.76
1.0493734853824974
% es.EY (V/m) @ t=0.76
0.27742033620064444
% es.EZ (V/m) @ t=0.76
-2.3968003816940833
% es.tEX (V/m) @ t=0.76
1.0493734853824979
% es.tEY (V/m) @ t=0.76
0
% es.tEZ (V/m) @ t=0.76
-2.3968003816940957
% es.Ex (V/m) @ t=0.76
1.0493734853824974
% es.Ey (V/m) @ t=0.76
0.27742033620064444
% es.Ez (V/m) @ t=0.76
-2.3968003816940833
% es.tEx (V/m) @ t=0.76
1.0493734853824979
% es.tEy (V/m) @ t=0.76
0
% es.tEz (V/m) @ t=0.76
-2.3968003816940957
% V (V) @ t=0.76
0.01316618375043166
% es.normE (V/m) @ t=0.78
2.656144417193677
% es.EX (V/m) @ t=0.78
1.0585727148802708
% es.EY (V/m) @ t=0.78
0.2798513690934854
% es.EZ (V/m) @ t=0.78
-2.417812139886367
% es.tEX (V/m) @ t=0.78
1.0585727148802713
% es.tEY (V/m) @ t=0.78
0
% es.tEZ (V/m) @ t=0.78
-2.4178121398863723
% es.Ex (V/m) @ t=0.78
1.0585727148802708
% es.Ey (V/m) @ t=0.78
0.2798513690934854
% es.Ez (V/m) @ t=0.78
-2.417812139886367
% es.tEx (V/m) @ t=0.78
1.0585727148802713
% es.tEy (V/m) @ t=0.78
0
% es.tEz (V/m) @ t=0.78
-2.4178121398863723
% V (V) @ t=0.78
0.01328164688255727
% es.normE (V/m) @ t=0.8
2.6802208044665985
% es.EX (V/m) @ t=0.8
1.0681679904138526
% es.EY (V/m) @ t=0.8
0.2823875887547649
% es.EZ (V/m) @ t=0.8
-2.439728251367141
% es.tEX (V/m) @ t=0.8
1.068167990413853
% es.tEY (V/m) @ t=0.8
0
% es.tEZ (V/m) @ t=0.8
-2.4397282513671534
% es.Ex (V/m) @ t=0.8
1.0681679904138526
% es.Ey (V/m) @ t=0.8
0.2823875887547649
% es.Ez (V/m) @ t=0.8
-2.439728251367141
% es.tEx (V/m) @ t=0.8
1.068167990413853
% es.tEy (V/m) @ t=0.8
0
% es.tEz (V/m) @ t=0.8
-2.4397282513671534
% V (V) @ t=0.8
0.013402056979158639
% es.normE (V/m) @ t=0.82
2.7059328299767977
% es.EX (V/m) @ t=0.82
1.0784152417658945
% es.EY (V/m) @ t=0.82
0.2850969681581832
% es.EZ (V/m) @ t=0.82
-2.4631331202703652
% es.tEX (V/m) @ t=0.82
1.078415241765895
% es.tEY (V/m) @ t=0.82
0
% es.tEZ (V/m) @ t=0.82
-2.4631331202703706
% es.Ex (V/m) @ t=0.82
1.0784152417658945
% es.Ey (V/m) @ t=0.82
0.2850969681581832
% es.Ez (V/m) @ t=0.82
-2.4631331202703652
% es.tEx (V/m) @ t=0.82
1.078415241765895
% es.tEy (V/m) @ t=0.82
0
% es.tEz (V/m) @ t=0.82
-2.4631331202703706
% V (V) @ t=0.82
0.01353061082906465
% es.normE (V/m) @ t=0.84
2.7316448554870845
% es.EX (V/m) @ t=0.84
1.088662493117965
% es.EY (V/m) @ t=0.84
0.2878063475615775
% es.EZ (V/m) @ t=0.84
-2.486537989173586
% es.tEX (V/m) @ t=0.84
1.0886624931179654
% es.tEY (V/m) @ t=0.84
0
% es.tEZ (V/m) @ t=0.84
-2.4865379891735913
% es.Ex (V/m) @ t=0.84
1.088662493117965
% es.Ey (V/m) @ t=0.84
0.2878063475615775
% es.Ez (V/m) @ t=0.84
-2.486537989173586
% es.tEx (V/m) @ t=0.84
1.0886624931179654
% es.tEy (V/m) @ t=0.84
0
% es.tEz (V/m) @ t=0.84
-2.4865379891735913
% V (V) @ t=0.84
0.01365916467897066
% es.normE (V/m) @ t=0.86
2.757356880997458
% es.EX (V/m) @ t=0.86
1.0989097444700344
% es.EY (V/m) @ t=0.86
0.29051572696501005
% es.EZ (V/m) @ t=0.86
-2.50994285807681
% es.tEX (V/m) @ t=0.86
1.0989097444700349
% es.tEY (V/m) @ t=0.86
0
% es.tEZ (V/m) @ t=0.86
-2.5099428580768084
% es.Ex (V/m) @ t=0.86
1.0989097444700344
% es.Ey (V/m) @ t=0.86
0.29051572696501005
% es.Ez (V/m) @ t=0.86
-2.50994285807681
% es.tEx (V/m) @ t=0.86
1.0989097444700349
% es.tEy (V/m) @ t=0.86
0
% es.tEz (V/m) @ t=0.86
-2.5099428580768084
% V (V) @ t=0.86
0.013787718528876673
% es.normE (V/m) @ t=0.88
2.7830689065078946
% es.EX (V/m) @ t=0.88
1.1091569958220773
% es.EY (V/m) @ t=0.88
0.2932251063684177
% es.EZ (V/m) @ t=0.88
-2.5333477269800344
% es.tEX (V/m) @ t=0.88
1.1091569958220777
% es.tEY (V/m) @ t=0.88
0
% es.tEZ (V/m) @ t=0.88
-2.5333477269800326
% es.Ex (V/m) @ t=0.88
1.1091569958220773
% es.Ey (V/m) @ t=0.88
0.2932251063684177
% es.Ez (V/m) @ t=0.88
-2.5333477269800344
% es.tEx (V/m) @ t=0.88
1.1091569958220777
% es.tEy (V/m) @ t=0.88
0
% es.tEz (V/m) @ t=0.88
-2.5333477269800326
% V (V) @ t=0.88
0.013916272378782683
% es.normE (V/m) @ t=0.9
2.808780932018397
% es.EX (V/m) @ t=0.9
1.1194042471741183
% es.EY (V/m) @ t=0.9
0.29593448577184756
% es.EZ (V/m) @ t=0.9
-2.5567525958832444
% es.tEX (V/m) @ t=0.9
1.1194042471741188
% es.tEY (V/m) @ t=0.9
0
% es.tEZ (V/m) @ t=0.9
-2.5567525958832533
% es.Ex (V/m) @ t=0.9
1.1194042471741183
% es.Ey (V/m) @ t=0.9
0.29593448577184756
% es.Ez (V/m) @ t=0.9
-2.5567525958832444
% es.tEx (V/m) @ t=0.9
1.1194042471741188
% es.tEy (V/m) @ t=0.9
0
% es.tEz (V/m) @ t=0.9
-2.5567525958832533
% V (V) @ t=0.9
0.014044826228688695
% es.normE (V/m) @ t=0.92
2.8344929575289886
% es.EX (V/m) @ t=0.92
1.1296514985261745
% es.EY (V/m) @ t=0.92
0.29864386517526587
% es.EZ (V/m) @ t=0.92
-2.5801574647864687
% es.tEX (V/m) @ t=0.92
1.129651498526175
% es.tEY (V/m) @ t=0.92
0
% es.tEZ (V/m) @ t=0.92
-2.5801574647864776
% es.Ex (V/m) @ t=0.92
1.1296514985261745
% es.Ey (V/m) @ t=0.92
0.29864386517526587
% es.Ez (V/m) @ t=0.92
-2.5801574647864687
% es.tEx (V/m) @ t=0.92
1.129651498526175
% es.tEy (V/m) @ t=0.92
0
% es.tEz (V/m) @ t=0.92
-2.5801574647864776
% V (V) @ t=0.92
0.014173380078594705
% es.normE (V/m) @ t=0.94
2.8602049830396488
% es.EX (V/m) @ t=0.94
1.139898749878245
% es.EY (V/m) @ t=0.94
0.30135324457866286
% es.EZ (V/m) @ t=0.94
-2.603562333689686
% es.tEX (V/m) @ t=0.94
1.1398987498782454
% es.tEY (V/m) @ t=0.94
0
% es.tEZ (V/m) @ t=0.94
-2.6035623336896982
% es.Ex (V/m) @ t=0.94
1.139898749878245
% es.Ey (V/m) @ t=0.94
0.30135324457866286
% es.Ez (V/m) @ t=0.94
-2.603562333689686
% es.tEx (V/m) @ t=0.94
1.1398987498782454
% es.tEy (V/m) @ t=0.94
0
% es.tEz (V/m) @ t=0.94
-2.6035623336896982
% V (V) @ t=0.94
0.014301933928500717
% es.normE (V/m) @ t=0.96
2.8859170085503836
% es.EX (V/m) @ t=0.96
1.150146001230301
% es.EY (V/m) @ t=0.96
0.30406262398206785
% es.EZ (V/m) @ t=0.96
-2.6269672025929136
% es.tEX (V/m) @ t=0.96
1.1501460012303015
% es.tEY (V/m) @ t=0.96
0
% es.tEZ (V/m) @ t=0.96
-2.626967202592926
% es.Ex (V/m) @ t=0.96
1.150146001230301
% es.Ey (V/m) @ t=0.96
0.30406262398206785
% es.Ez (V/m) @ t=0.96
-2.6269672025929136
% es.tEx (V/m) @ t=0.96
1.1501460012303015
% es.tEy (V/m) @ t=0.96
0
% es.tEz (V/m) @ t=0.96
-2.626967202592926
% V (V) @ t=0.96
0.014430487778406727
% es.normE (V/m) @ t=0.98
2.9116290340611597
% es.EX (V/m) @ t=0.98
1.160393252582343
% es.EY (V/m) @ t=0.98
0.3067720033854968
% es.EZ (V/m) @ t=0.98
-2.6503720714961165
% es.tEX (V/m) @ t=0.98
1.1603932525823435
% es.tEY (V/m) @ t=0.98
0
% es.tEZ (V/m) @ t=0.98
-2.6503720714961183
% es.Ex (V/m) @ t=0.98
1.160393252582343
% es.Ey (V/m) @ t=0.98
0.3067720033854968
% es.Ez (V/m) @ t=0.98
-2.6503720714961165
% es.tEx (V/m) @ t=0.98
1.1603932525823435
% es.tEy (V/m) @ t=0.98
0
% es.tEz (V/m) @ t=0.98
-2.6503720714961183
% V (V) @ t=0.98
0.014559041628312737
% es.normE (V/m) @ t=1
2.9373410595720375
% es.EX (V/m) @ t=1
1.1706405039344125
% es.EY (V/m) @ t=1
0.30948138278888404
% es.EZ (V/m) @ t=1
-2.6737769403993514
% es.tEX (V/m) @ t=1
1.170640503934413
% es.tEY (V/m) @ t=1
0
% es.tEZ (V/m) @ t=1
-2.673776940399353
% es.Ex (V/m) @ t=1
1.1706405039344125
% es.Ey (V/m) @ t=1
0.30948138278888404
% es.Ez (V/m) @ t=1
-2.6737769403993514
% es.tEx (V/m) @ t=1
1.170640503934413
% es.tEy (V/m) @ t=1
0
% es.tEz (V/m) @ t=1
-2.673776940399353
% V (V) @ t=1
0.01468759547821875
% es.normE (V/m) @ t=1.02
2.9630530850829575
% es.EX (V/m) @ t=1.02
1.1808877552864687
% es.EY (V/m) @ t=1.02
0.31219076219230324
% es.EZ (V/m) @ t=1.02
-2.697181809302565
% es.tEX (V/m) @ t=1.02
1.1808877552864692
% es.tEY (V/m) @ t=1.02
0
% es.tEZ (V/m) @ t=1.02
-2.697181809302567
% es.Ex (V/m) @ t=1.02
1.1808877552864687
% es.Ey (V/m) @ t=1.02
0.31219076219230324
% es.Ez (V/m) @ t=1.02
-2.697181809302565
% es.tEx (V/m) @ t=1.02
1.1808877552864692
% es.tEy (V/m) @ t=1.02
0
% es.tEz (V/m) @ t=1.02
-2.697181809302567
% V (V) @ t=1.02
0.01481614932812476
% es.normE (V/m) @ t=1.04
2.9887651105939517
% es.EX (V/m) @ t=1.04
1.1911350066385253
% es.EY (V/m) @ t=1.04
0.3149001415957384
% es.EZ (V/m) @ t=1.04
-2.7205866782057893
% es.tEX (V/m) @ t=1.04
1.1911350066385253
% es.tEY (V/m) @ t=1.04
0
% es.tEZ (V/m) @ t=1.04
-2.720586678205798