% Model:              1 neuron.mph
% Version:            COMSOL 6.0.0.405
% Date:               Mar 16 2023, 18:13
% Dimension:          0
% Nodes:              14017
% Expressions:        14017
% Description:        Electric field norm, Electric field, X component, Electric field, Y component, Electric field, Z component, Tangential electric field, X component, Tangential electric field, Y component, Tangential electric field, Z component, Electric field, x component, Electric field, y component, Electric field, z component, Tangential electric field, x component, Tangential electric field, y component, Tangential electric field, z component, Electric potential
% Length unit:        mm
% x
2
% y
12.2
% z
1.6599999999999997
% es.normE (V/m) @ t=0
1.8677117652278223
% es.EX (V/m) @ t=0
-1.8047036494374664
% es.EY (V/m) @ t=0
0.1390281698764193
% es.EZ (V/m) @ t=0
-0.45996945931018596
% es.tEX (V/m) @ t=0
-1.804703649437469
% es.tEY (V/m) @ t=0
0
% es.tEZ (V/m) @ t=0
-0.45996945931019084
% es.Ex (V/m) @ t=0
-1.8047036494374664
% es.Ey (V/m) @ t=0
0.1390281698764193
% es.Ez (V/m) @ t=0
-0.45996945931018596
% es.tEx (V/m) @ t=0
-1.804703649437469
% es.tEy (V/m) @ t=0
0
% es.tEz (V/m) @ t=0
-0.45996945931019084
% V (V) @ t=0
0.010823772098611543
% es.normE (V/m) @ t=0.02
1.6131802991970723
% es.EX (V/m) @ t=0.02
-1.5587589194042932
% es.EY (V/m) @ t=0.02
0.12008143293613238
% es.EZ (V/m) @ t=0.02
-0.3972848940539966
% es.tEX (V/m) @ t=0.02
-1.5587589194042764
% es.tEY (V/m) @ t=0.02
0
% es.tEZ (V/m) @ t=0.02
-0.39728489405399614
% es.Ex (V/m) @ t=0.02
-1.5587589194042932
% es.Ey (V/m) @ t=0.02
0.12008143293613238
% es.Ez (V/m) @ t=0.02
-0.3972848940539966
% es.tEx (V/m) @ t=0.02
-1.5587589194042764
% es.tEy (V/m) @ t=0.02
0
% es.tEz (V/m) @ t=0.02
-0.39728489405399614
% V (V) @ t=0.02
0.009348710128062496
% es.normE (V/m) @ t=0.04
1.628021999556509
% es.EX (V/m) @ t=0.04
-1.5730999283681326
% es.EY (V/m) @ t=0.04
0.12118621465706458
% es.EZ (V/m) @ t=0.04
-0.40094002318764677
% es.tEX (V/m) @ t=0.04
-1.5730999283681282
% es.tEY (V/m) @ t=0.04
0
% es.tEZ (V/m) @ t=0.04
-0.40094002318764943
% es.Ex (V/m) @ t=0.04
-1.5730999283681326
% es.Ey (V/m) @ t=0.04
0.12118621465706458
% es.Ez (V/m) @ t=0.04
-0.40094002318764677
% es.tEx (V/m) @ t=0.04
-1.5730999283681282
% es.tEy (V/m) @ t=0.04
0
% es.tEz (V/m) @ t=0.04
-0.40094002318764943
% V (V) @ t=0.04
0.00943472083423966
% es.normE (V/m) @ t=0.06
1.6429843851434418
% es.EX (V/m) @ t=0.06
-1.5875575521189482
% es.EY (V/m) @ t=0.06
0.12229997832152306
% es.EZ (V/m) @ t=0.06
-0.40462487092101895
% es.tEX (V/m) @ t=0.06
-1.5875575521189447
% es.tEY (V/m) @ t=0.06
0
% es.tEZ (V/m) @ t=0.06
-0.40462487092102073
% es.Ex (V/m) @ t=0.06
-1.5875575521189482
% es.Ey (V/m) @ t=0.06
0.12229997832152306
% es.Ez (V/m) @ t=0.06
-0.40462487092101895
% es.tEx (V/m) @ t=0.06
-1.5875575521189447
% es.tEy (V/m) @ t=0.06
0
% es.tEz (V/m) @ t=0.06
-0.40462487092102073
% V (V) @ t=0.06
0.009521431001460494
% es.normE (V/m) @ t=0.08
1.6582056081061376
% es.EX (V/m) @ t=0.08
-1.6022652799819612
% es.EY (V/m) @ t=0.08
0.1234330114021659
% es.EZ (V/m) @ t=0.08
-0.40837346783266915
% es.tEX (V/m) @ t=0.08
-1.6022652799819657
% es.tEY (V/m) @ t=0.08
0
% es.tEZ (V/m) @ t=0.08
-0.4083734678326678
% es.Ex (V/m) @ t=0.08
-1.6022652799819612
% es.Ey (V/m) @ t=0.08
0.1234330114021659
% es.Ez (V/m) @ t=0.08
-0.40837346783266915
% es.tEx (V/m) @ t=0.08
-1.6022652799819657
% es.tEy (V/m) @ t=0.08
0
% es.tEz (V/m) @ t=0.08
-0.4083734678326678
% V (V) @ t=0.08
0.0096096410953222
% es.normE (V/m) @ t=0.1
1.6735435050149272
% es.EX (V/m) @ t=0.1
-1.617085745171332
% es.EY (V/m) @ t=0.1
0.12457473039540812
% es.EZ (V/m) @ t=0.1
-0.4121508004250347
% es.tEX (V/m) @ t=0.1
-1.6170857451713339
% es.tEY (V/m) @ t=0.1
0
% es.tEZ (V/m) @ t=0.1
-0.4121508004250387
% es.Ex (V/m) @ t=0.1
-1.617085745171332
% es.Ey (V/m) @ t=0.1
0.12457473039540812
% es.Ez (V/m) @ t=0.1
-0.4121508004250347
% es.tEx (V/m) @ t=0.1
-1.6170857451713339
% es.tEy (V/m) @ t=0.1
0
% es.tEz (V/m) @ t=0.1
-0.4121508004250387
% V (V) @ t=0.1
0.0096985272984959
% es.normE (V/m) @ t=0.12
1.6888814019237164
% es.EX (V/m) @ t=0.12
-1.631906210360702
% es.EY (V/m) @ t=0.12
0.125716449388668
% es.EZ (V/m) @ t=0.12
-0.4159281330173963
% es.tEX (V/m) @ t=0.12
-1.6319062103607092
% es.tEY (V/m) @ t=0.12
0
% es.tEZ (V/m) @ t=0.12
-0.4159281330174096
% es.Ex (V/m) @ t=0.12
-1.631906210360702
% es.Ey (V/m) @ t=0.12
0.125716449388668
% es.Ez (V/m) @ t=0.12
-0.4159281330173963
% es.tEx (V/m) @ t=0.12
-1.6319062103607092
% es.tEy (V/m) @ t=0.12
0
% es.tEz (V/m) @ t=0.12
-0.4159281330174096
% V (V) @ t=0.12
0.009787413501669598
% es.normE (V/m) @ t=0.14
1.7045272621194965
% es.EX (V/m) @ t=0.14
-1.6470242506444874
% es.EY (V/m) @ t=0.14
0.12688109060252817
% es.EZ (V/m) @ t=0.14
-0.4197813054611452
% es.tEX (V/m) @ t=0.14
-1.6470242506444635
% es.tEY (V/m) @ t=0.14
0
% es.tEZ (V/m) @ t=0.14
-0.41978130546113945
% es.Ex (V/m) @ t=0.14
-1.6470242506444874
% es.Ey (V/m) @ t=0.14
0.12688109060252817
% es.Ez (V/m) @ t=0.14
-0.4197813054611452
% es.tEx (V/m) @ t=0.14
-1.6470242506444635
% es.tEy (V/m) @ t=0.14
0
% es.tEz (V/m) @ t=0.14
-0.41978130546113945
% V (V) @ t=0.14
0.009878084491811606
% es.normE (V/m) @ t=0.16
1.720658352897765
% es.EX (V/m) @ t=0.16
-1.6626111537521764
% es.EY (V/m) @ t=0.16
0.12808184833723102
% es.EZ (V/m) @ t=0.16
-0.4237539720680368
% es.tEX (V/m) @ t=0.16
-1.6626111537521826
% es.tEY (V/m) @ t=0.16
0
% es.tEZ (V/m) @ t=0.16
-0.42375397206803633
% es.Ex (V/m) @ t=0.16
-1.6626111537521764
% es.Ey (V/m) @ t=0.16
0.12808184833723102
% es.Ez (V/m) @ t=0.16
-0.4237539720680368
% es.tEx (V/m) @ t=0.16
-1.6626111537521826
% es.tEy (V/m) @ t=0.16
0
% es.tEz (V/m) @ t=0.16
-0.42375397206803633
% V (V) @ t=0.16
0.009971567613324163
% es.normE (V/m) @ t=0.18
1.7367894436760347
% es.EX (V/m) @ t=0.18
-1.6781980568598662
% es.EY (V/m) @ t=0.18
0.12928260607191
% es.EZ (V/m) @ t=0.18
-0.4277266386749372
% es.tEX (V/m) @ t=0.18
-1.678198056859868
% es.tEY (V/m) @ t=0.18
0
% es.tEZ (V/m) @ t=0.18
-0.42772663867493854
% es.Ex (V/m) @ t=0.18
-1.6781980568598662
% es.Ey (V/m) @ t=0.18
0.12928260607191
% es.Ez (V/m) @ t=0.18
-0.4277266386749372
% es.tEx (V/m) @ t=0.18
-1.678198056859868
% es.tEy (V/m) @ t=0.18
0
% es.tEz (V/m) @ t=0.18
-0.42772663867493854
% V (V) @ t=0.18
0.010065050734836722
% es.normE (V/m) @ t=0.2
1.7529205344543404
% es.EX (V/m) @ t=0.2
-1.6937849599675925
% es.EY (V/m) @ t=0.2
0.13048336380661274
% es.EZ (V/m) @ t=0.2
-0.43169930528183276
% es.tEX (V/m) @ t=0.2
-1.6937849599675872
% es.tEY (V/m) @ t=0.2
0
% es.tEZ (V/m) @ t=0.2
-0.4316993052818283
% es.Ex (V/m) @ t=0.2
-1.6937849599675925
% es.Ey (V/m) @ t=0.2
0.13048336380661274
% es.Ez (V/m) @ t=0.2
-0.43169930528183276
% es.tEx (V/m) @ t=0.2
-1.6937849599675872
% es.tEy (V/m) @ t=0.2
0
% es.tEz (V/m) @ t=0.2
-0.4316993052818283
% V (V) @ t=0.2
0.010158533856349284
% es.normE (V/m) @ t=0.22
1.7690516252326116
% es.EX (V/m) @ t=0.22
-1.7093718630752823
% es.EY (V/m) @ t=0.22
0.13168412154130937
% es.EZ (V/m) @ t=0.22
-0.4356719718887332
% es.tEX (V/m) @ t=0.22
-1.7093718630752814
% es.tEY (V/m) @ t=0.22
0
% es.tEZ (V/m) @ t=0.22
-0.4356719718887234
% es.Ex (V/m) @ t=0.22
-1.7093718630752823
% es.Ey (V/m) @ t=0.22
0.13168412154130937
% es.Ez (V/m) @ t=0.22
-0.4356719718887332
% es.tEx (V/m) @ t=0.22
-1.7093718630752814
% es.tEy (V/m) @ t=0.22
0
% es.tEz (V/m) @ t=0.22
-0.4356719718887234
% V (V) @ t=0.22
0.010252016977861841
% es.normE (V/m) @ t=0.24
1.7851827160108804
% es.EX (V/m) @ t=0.24
-1.7249587661829686
% es.EY (V/m) @ t=0.24
0.13288487927600157
% es.EZ (V/m) @ t=0.24
-0.43964463849563806
% es.tEX (V/m) @ t=0.24
-1.7249587661829864
% es.tEY (V/m) @ t=0.24
0
% es.tEZ (V/m) @ t=0.24
-0.4396446384956345
% es.Ex (V/m) @ t=0.24
-1.7249587661829686
% es.Ey (V/m) @ t=0.24
0.13288487927600157
% es.Ez (V/m) @ t=0.24
-0.43964463849563806
% es.tEx (V/m) @ t=0.24
-1.7249587661829864
% es.tEy (V/m) @ t=0.24
0
% es.tEz (V/m) @ t=0.24
-0.4396446384956345
% V (V) @ t=0.24
0.010345500099374398
% es.normE (V/m) @ t=0.26
1.8013138067891736
% es.EX (V/m) @ t=0.26
-1.7405456692906824
% es.EY (V/m) @ t=0.26
0.13408563701070353
% es.EZ (V/m) @ t=0.26
-0.44361730510253183
% es.tEX (V/m) @ t=0.26
-1.74054566929067
% es.tEY (V/m) @ t=0.26
0
% es.tEZ (V/m) @ t=0.26
-0.4436173051025314
% es.Ex (V/m) @ t=0.26
-1.7405456692906824
% es.Ey (V/m) @ t=0.26
0.13408563701070353
% es.Ez (V/m) @ t=0.26
-0.44361730510253183
% es.tEx (V/m) @ t=0.26
-1.74054566929067
% es.tEy (V/m) @ t=0.26
0
% es.tEz (V/m) @ t=0.26
-0.4436173051025314
% V (V) @ t=0.26
0.01043898322088696
% es.normE (V/m) @ t=0.28
1.8188423196592385
% es.EX (V/m) @ t=0.28
-1.7574829210403404
% es.EY (V/m) @ t=0.28
0.13539029759443677
% es.EZ (V/m) @ t=0.28
-0.44793389239357495
% es.tEX (V/m) @ t=0.28
-1.7574829210403635
% es.tEY (V/m) @ t=0.28
0
% es.tEZ (V/m) @ t=0.28
-0.4479338923935714
% es.Ex (V/m) @ t=0.28
-1.7574829210403404
% es.Ey (V/m) @ t=0.28
0.13539029759443677
% es.Ez (V/m) @ t=0.28
-0.44793389239357495
% es.tEx (V/m) @ t=0.28
-1.7574829210403635
% es.tEy (V/m) @ t=0.28
0
% es.tEz (V/m) @ t=0.28
-0.4479338923935714
% V (V) @ t=0.28
0.010540569550146237
% es.normE (V/m) @ t=0.3
1.836750881545464
% es.EX (V/m) @ t=0.3
-1.7747874195050546
% es.EY (V/m) @ t=0.3
0.13672321605081306
% es.EZ (V/m) @ t=0.3
-0.4523440138561243
% es.tEX (V/m) @ t=0.3
-1.774787419505067
% es.tEY (V/m) @ t=0.3
0
% es.tEZ (V/m) @ t=0.3
-0.45234401385612166
% es.Ex (V/m) @ t=0.3
-1.7747874195050546
% es.Ey (V/m) @ t=0.3
0.13672321605081306
% es.Ez (V/m) @ t=0.3
-0.4523440138561243
% es.tEx (V/m) @ t=0.3
-1.774787419505067
% es.tEy (V/m) @ t=0.3
0
% es.tEz (V/m) @ t=0.3
-0.45234401385612166
% V (V) @ t=0.3
0.010644359663179184
% es.normE (V/m) @ t=0.32
1.8546594434317856
% es.EX (V/m) @ t=0.32
-1.792091917969782
% es.EY (V/m) @ t=0.32
0.13805613450718834
% es.EZ (V/m) @ t=0.32
-0.4567541353186684
% es.tEX (V/m) @ t=0.32
-1.7920919179697723
% es.tEY (V/m) @ t=0.32
0
% es.tEZ (V/m) @ t=0.32
-0.4567541353186577
% es.Ex (V/m) @ t=0.32
-1.792091917969782
% es.Ey (V/m) @ t=0.32
0.13805613450718834
% es.Ez (V/m) @ t=0.32
-0.4567541353186684
% es.tEx (V/m) @ t=0.32
-1.7920919179697723
% es.tEy (V/m) @ t=0.32
0
% es.tEz (V/m) @ t=0.32
-0.4567541353186577
% V (V) @ t=0.32
0.01074814977621213
% es.normE (V/m) @ t=0.34
1.8725680053181462
% es.EX (V/m) @ t=0.34
-1.8093964164344651
% es.EY (V/m) @ t=0.34
0.1393890529636026
% es.EZ (V/m) @ t=0.34
-0.4611642567812009
% es.tEX (V/m) @ t=0.34
-1.8093964164344705
% es.tEY (V/m) @ t=0.34
0
% es.tEZ (V/m) @ t=0.34
-0.4611642567812133
% es.Ex (V/m) @ t=0.34
-1.8093964164344651
% es.Ey (V/m) @ t=0.34
0.1393890529636026
% es.Ez (V/m) @ t=0.34
-0.4611642567812009
% es.tEx (V/m) @ t=0.34
-1.8093964164344705
% es.tEy (V/m) @ t=0.34
0
% es.tEz (V/m) @ t=0.34
-0.4611642567812133
% V (V) @ t=0.34
0.010851939889245075
% es.normE (V/m) @ t=0.36
1.8904765672046402
% es.EX (V/m) @ t=0.36
-1.8267009148992015
% es.EY (V/m) @ t=0.36
0.140721971419985
% es.EZ (V/m) @ t=0.36
-0.4655743782437547
% es.tEX (V/m) @ t=0.36
-1.826700914899174
% es.tEY (V/m) @ t=0.36
0
% es.tEZ (V/m) @ t=0.36
-0.46557437824375647
% es.Ex (V/m) @ t=0.36
-1.8267009148992015
% es.Ey (V/m) @ t=0.36
0.140721971419985
% es.Ez (V/m) @ t=0.36
-0.4655743782437547
% es.tEx (V/m) @ t=0.36
-1.826700914899174
% es.tEy (V/m) @ t=0.36
0
% es.tEz (V/m) @ t=0.36
-0.46557437824375647
% V (V) @ t=0.36
0.010955730002278025
% es.normE (V/m) @ t=0.38
1.9083851290911547
% es.EX (V/m) @ t=0.38
-1.8440054133638828
% es.EY (V/m) @ t=0.38
0.14205488987637105
% es.EZ (V/m) @ t=0.38
-0.46998449970629386
% es.tEX (V/m) @ t=0.38
-1.8440054133638935
% es.tEY (V/m) @ t=0.38
0
% es.tEZ (V/m) @ t=0.38
-0.46998449970629963
% es.Ex (V/m) @ t=0.38
-1.8440054133638828
% es.Ey (V/m) @ t=0.38
0.14205488987637105
% es.Ez (V/m) @ t=0.38
-0.46998449970629386
% es.tEx (V/m) @ t=0.38
-1.8440054133638935
% es.tEy (V/m) @ t=0.38
0
% es.tEz (V/m) @ t=0.38
-0.46998449970629963
% V (V) @ t=0.38
0.011059520115310969
% es.normE (V/m) @ t=0.4
1.9262936909777513
% es.EX (V/m) @ t=0.4
-1.8613099118285694
% es.EY (V/m) @ t=0.4
0.1433878083327419
% es.EZ (V/m) @ t=0.4
-0.4743946211688437
% es.tEX (V/m) @ t=0.4
-1.8613099118285792
% es.tEY (V/m) @ t=0.4
0
% es.tEZ (V/m) @ t=0.4
-0.474394621168841
% es.Ex (V/m) @ t=0.4
-1.8613099118285694
% es.Ey (V/m) @ t=0.4
0.1433878083327419
% es.Ez (V/m) @ t=0.4
-0.4743946211688437
% es.tEx (V/m) @ t=0.4
-1.8613099118285792
% es.tEy (V/m) @ t=0.4
0
% es.tEz (V/m) @ t=0.4
-0.474394621168841
% V (V) @ t=0.4
0.011163310228343916
% es.normE (V/m) @ t=0.42
1.9442022528644656
% es.EX (V/m) @ t=0.42
-1.8786144102933013
% es.EY (V/m) @ t=0.42
0.14472072678914105
% es.EZ (V/m) @ t=0.42
-0.47880474263138995
% es.tEX (V/m) @ t=0.42
-1.8786144102933058
% es.tEY (V/m) @ t=0.42
0
% es.tEZ (V/m) @ t=0.42
-0.4788047426314037
% es.Ex (V/m) @ t=0.42
-1.8786144102933013
% es.Ey (V/m) @ t=0.42
0.14472072678914105
% es.Ez (V/m) @ t=0.42
-0.47880474263138995
% es.tEx (V/m) @ t=0.42
-1.8786144102933058
% es.tEy (V/m) @ t=0.42
0
% es.tEz (V/m) @ t=0.42
-0.4788047426314037
% V (V) @ t=0.42
0.011267100341376863
% es.normE (V/m) @ t=0.44
1.9621108147512165
% es.EX (V/m) @ t=0.44
-1.895918908757996
% es.EY (V/m) @ t=0.44
0.14605364524554387
% es.EZ (V/m) @ t=0.44
-0.48321486409393977
% es.tEX (V/m) @ t=0.44
-1.8959189087580022
% es.tEY (V/m) @ t=0.44
0
% es.tEZ (V/m) @ t=0.44
-0.48321486409394154
% es.Ex (V/m) @ t=0.44
-1.895918908757996
% es.Ey (V/m) @ t=0.44
0.14605364524554387
% es.Ez (V/m) @ t=0.44
-0.48321486409393977
% es.tEx (V/m) @ t=0.44
-1.8959189087580022
% es.tEy (V/m) @ t=0.44
0
% es.tEz (V/m) @ t=0.44
-0.48321486409394154
% V (V) @ t=0.44
0.01137089045440981
% es.normE (V/m) @ t=0.46
1.9800193766380376
% es.EX (V/m) @ t=0.46
-1.9132234072226977
% es.EY (V/m) @ t=0.46
0.14738656370190595
% es.EZ (V/m) @ t=0.46
-0.4876249855564816
% es.tEX (V/m) @ t=0.46
-1.9132234072227003
% es.tEY (V/m) @ t=0.46
0
% es.tEZ (V/m) @ t=0.46
-0.4876249855564758
% es.Ex (V/m) @ t=0.46
-1.9132234072226977
% es.Ey (V/m) @ t=0.46
0.14738656370190595
% es.Ez (V/m) @ t=0.46
-0.4876249855564816
% es.tEx (V/m) @ t=0.46
-1.9132234072227003
% es.tEy (V/m) @ t=0.46
0
% es.tEz (V/m) @ t=0.46
-0.4876249855564758
% V (V) @ t=0.46
0.011474680567442757
% es.normE (V/m) @ t=0.48
1.99792793852495
% es.EX (V/m) @ t=0.48
-1.9305279056874207
% es.EY (V/m) @ t=0.48
0.14871948215830255
% es.EZ (V/m) @ t=0.48
-0.49203510701902475
% es.tEX (V/m) @ t=0.48
-1.930527905687427
% es.tEY (V/m) @ t=0.48
0
% es.tEZ (V/m) @ t=0.48
-0.4920351070190243
% es.Ex (V/m) @ t=0.48
-1.9305279056874207
% es.Ey (V/m) @ t=0.48
0.14871948215830255
% es.Ez (V/m) @ t=0.48
-0.49203510701902475
% es.tEx (V/m) @ t=0.48
-1.930527905687427
% es.tEy (V/m) @ t=0.48
0
% es.tEz (V/m) @ t=0.48
-0.4920351070190243
% V (V) @ t=0.48
0.0115784706804757
% es.normE (V/m) @ t=0.5
2.0158365004118846
% es.EX (V/m) @ t=0.5
-1.947832404152102
% es.EY (V/m) @ t=0.5
0.15005240061468317
% es.EZ (V/m) @ t=0.5
-0.4964452284815617
% es.tEX (V/m) @ t=0.5
-1.9478324041521091
% es.tEY (V/m) @ t=0.5
0
% es.tEZ (V/m) @ t=0.5
-0.49644522848156036
% es.Ex (V/m) @ t=0.5
-1.947832404152102
% es.Ey (V/m) @ t=0.5
0.15005240061468317
% es.Ez (V/m) @ t=0.5
-0.4964452284815617
% es.tEx (V/m) @ t=0.5
-1.9478324041521091
% es.tEy (V/m) @ t=0.5
0
% es.tEz (V/m) @ t=0.5
-0.49644522848156036
% V (V) @ t=0.5
0.011682260793508648
% es.normE (V/m) @ t=0.52
2.03374506229889
% es.EX (V/m) @ t=0.52
-1.9651369026167833
% es.EY (V/m) @ t=0.52
0.15138531907109565
% es.EZ (V/m) @ t=0.52
-0.50085534994412
% es.tEX (V/m) @ t=0.52
-1.965136902616793
% es.tEY (V/m) @ t=0.52
0
% es.tEZ (V/m) @ t=0.52
-0.5008553499441177
% es.Ex (V/m) @ t=0.52
-1.9651369026167833
% es.Ey (V/m) @ t=0.52
0.15138531907109565
% es.Ez (V/m) @ t=0.52
-0.50085534994412
% es.tEx (V/m) @ t=0.52
-1.965136902616793
% es.tEy (V/m) @ t=0.52
0
% es.tEz (V/m) @ t=0.52
-0.5008553499441177
% V (V) @ t=0.52
0.011786050906541596
% es.normE (V/m) @ t=0.54
2.052822671051086
% es.EX (V/m) @ t=0.54
-1.983571328931192
% es.EY (V/m) @ t=0.54
0.15280471473876356
% es.EZ (V/m) @ t=0.54
-0.505552323521314
% es.tEX (V/m) @ t=0.54
-1.9835713289311876
% es.tEY (V/m) @ t=0.54
0
% es.tEZ (V/m) @ t=0.54
-0.5055523235213215
% es.Ex (V/m) @ t=0.54
-1.983571328931192
% es.Ey (V/m) @ t=0.54
0.15280471473876356
% es.Ez (V/m) @ t=0.54
-0.505552323521314
% es.tEx (V/m) @ t=0.54
-1.9835713289311876
% es.tEy (V/m) @ t=0.54
0
% es.tEz (V/m) @ t=0.54
-0.5055523235213215
% V (V) @ t=0.54
0.011896638343404159
% es.normE (V/m) @ t=0.56
2.0727397592620562
% es.EX (V/m) @ t=0.56
-2.0028171437747284
% es.EY (V/m) @ t=0.56
0.15428620872299992
% es.EZ (V/m) @ t=0.56
-0.510455282388171
% es.tEX (V/m) @ t=0.56
-2.0028171437747364
% es.tEY (V/m) @ t=0.56
0
% es.tEZ (V/m) @ t=0.56
-0.5104552823881701
% es.Ex (V/m) @ t=0.56
-2.0028171437747284
% es.Ey (V/m) @ t=0.56
0.15428620872299992
% es.Ez (V/m) @ t=0.56
-0.510455282388171
% es.tEx (V/m) @ t=0.56
-2.0028171437747364
% es.tEy (V/m) @ t=0.56
0
% es.tEz (V/m) @ t=0.56
-0.5104552823881701
% V (V) @ t=0.56
0.012012106862351938
% es.normE (V/m) @ t=0.58
2.0926568474766905
% es.EX (V/m) @ t=0.58
-2.0220629586182977
% es.EY (V/m) @ t=0.58
0.15576770270724494
% es.EZ (V/m) @ t=0.58
-0.5153582412550031
% es.tEX (V/m) @ t=0.58
-2.022062958618303
% es.tEY (V/m) @ t=0.58
0
% es.tEZ (V/m) @ t=0.58
-0.515358241255008
% es.Ex (V/m) @ t=0.58
-2.0220629586182977
% es.Ey (V/m) @ t=0.58
0.15576770270724494
% es.Ez (V/m) @ t=0.58
-0.5153582412550031
% es.tEx (V/m) @ t=0.58
-2.022062958618303
% es.tEy (V/m) @ t=0.58
0
% es.tEz (V/m) @ t=0.58
-0.515358241255008
% V (V) @ t=0.58
0.012127575381299716
% es.normE (V/m) @ t=0.6
2.112573935694838
% es.EX (V/m) @ t=0.6
-2.0413087734618394
% es.EY (V/m) @ t=0.6
0.15724919669145898
% es.EZ (V/m) @ t=0.6
-0.5202612001218672
% es.tEX (V/m) @ t=0.6
-2.0413087734618376
% es.tEY (V/m) @ t=0.6
0
% es.tEZ (V/m) @ t=0.6
-0.5202612001218707
% es.Ex (V/m) @ t=0.6
-2.0413087734618394
% es.Ey (V/m) @ t=0.6
0.15724919669145898
% es.Ez (V/m) @ t=0.6
-0.5202612001218672
% es.tEx (V/m) @ t=0.6
-2.0413087734618376
% es.tEy (V/m) @ t=0.6
0
% es.tEz (V/m) @ t=0.6
-0.5202612001218707
% V (V) @ t=0.6
0.012243043900247493
% es.normE (V/m) @ t=0.62
2.132491023916444
% es.EX (V/m) @ t=0.62
-2.0605545883054024
% es.EY (V/m) @ t=0.62
0.1587306906756909
% es.EZ (V/m) @ t=0.62
-0.5251641589887308
% es.tEX (V/m) @ t=0.62
-2.060554588305404
% es.tEY (V/m) @ t=0.62
0
% es.tEZ (V/m) @ t=0.62
-0.5251641589887299
% es.Ex (V/m) @ t=0.62
-2.0605545883054024
% es.Ey (V/m) @ t=0.62
0.1587306906756909
% es.Ez (V/m) @ t=0.62
-0.5251641589887308
% es.tEx (V/m) @ t=0.62
-2.060554588305404
% es.tEy (V/m) @ t=0.62
0
% es.tEz (V/m) @ t=0.62
-0.5251641589887299
% V (V) @ t=0.62
0.012358512419195269
% es.normE (V/m) @ t=0.64
2.152408112141382
% es.EX (V/m) @ t=0.64
-2.0798004031489636
% es.EY (V/m) @ t=0.64
0.1602121846599316
% es.EZ (V/m) @ t=0.64
-0.5300671178555643
% es.tEX (V/m) @ t=0.64
-2.0798004031489796
% es.tEY (V/m) @ t=0.64
0
% es.tEZ (V/m) @ t=0.64
-0.5300671178555714
% es.Ex (V/m) @ t=0.64
-2.0798004031489636
% es.Ey (V/m) @ t=0.64
0.1602121846599316
% es.Ez (V/m) @ t=0.64
-0.5300671178555643
% es.tEx (V/m) @ t=0.64
-2.0798004031489796
% es.tEy (V/m) @ t=0.64
0
% es.tEz (V/m) @ t=0.64
-0.5300671178555714
% V (V) @ t=0.64
0.012473980938143047
% es.normE (V/m) @ t=0.66
2.1723252003695843
% es.EX (V/m) @ t=0.66
-2.0990462179925355
% es.EY (V/m) @ t=0.66
0.16169367864415718
% es.EZ (V/m) @ t=0.66
-0.5349700767224239
% es.tEX (V/m) @ t=0.66
-2.099046217992548
% es.tEY (V/m) @ t=0.66
0
% es.tEZ (V/m) @ t=0.66
-0.5349700767224164
% es.Ex (V/m) @ t=0.66
-2.0990462179925355
% es.Ey (V/m) @ t=0.66
0.16169367864415718
% es.Ez (V/m) @ t=0.66
-0.5349700767224239
% es.tEx (V/m) @ t=0.66
-2.099046217992548
% es.tEy (V/m) @ t=0.66
0
% es.tEz (V/m) @ t=0.66
-0.5349700767224164
% V (V) @ t=0.66
0.012589449457090826
% es.normE (V/m) @ t=0.68
2.1922422886009336
% es.EX (V/m) @ t=0.68
-2.1182920328361003
% es.EY (V/m) @ t=0.68
0.16317517262838888
% es.EZ (V/m) @ t=0.68
-0.5398730355892596
% es.tEX (V/m) @ t=0.68
-2.1182920328360844
% es.tEY (V/m) @ t=0.68
0
% es.tEZ (V/m) @ t=0.68
-0.5398730355892543
% es.Ex (V/m) @ t=0.68
-2.1182920328361003
% es.Ey (V/m) @ t=0.68
0.16317517262838888
% es.Ez (V/m) @ t=0.68
-0.5398730355892596
% es.tEx (V/m) @ t=0.68
-2.1182920328360844
% es.tEy (V/m) @ t=0.68
0
% es.tEz (V/m) @ t=0.68
-0.5398730355892543
% V (V) @ t=0.68
0.012704917976038602
% es.normE (V/m) @ t=0.7
2.2121593768353307
% es.EX (V/m) @ t=0.7
-2.1375378476796323
% es.EY (V/m) @ t=0.7
0.1646566666126208
% es.EZ (V/m) @ t=0.7
-0.5447759944561108
% es.tEX (V/m) @ t=0.7
-2.137537847679649
% es.tEY (V/m) @ t=0.7
0
% es.tEZ (V/m) @ t=0.7
-0.5447759944561241
% es.Ex (V/m) @ t=0.7
-2.1375378476796323
% es.Ey (V/m) @ t=0.7
0.1646566666126208
% es.Ez (V/m) @ t=0.7
-0.5447759944561108
% es.tEx (V/m) @ t=0.7
-2.137537847679649
% es.tEy (V/m) @ t=0.7
0
% es.tEz (V/m) @ t=0.7
-0.5447759944561241
% V (V) @ t=0.7
0.012820386494986378
% es.normE (V/m) @ t=0.72
2.23207646507276
% es.EX (V/m) @ t=0.72
-2.1567836625232006
% es.EY (V/m) @ t=0.72
0.16613816059685615
% es.EZ (V/m) @ t=0.72
-0.5496789533229811
% es.tEX (V/m) @ t=0.72
-2.1567836625232104
% es.tEY (V/m) @ t=0.72
0
% es.tEZ (V/m) @ t=0.72
-0.5496789533229709
% es.Ex (V/m) @ t=0.72
-2.1567836625232006
% es.Ey (V/m) @ t=0.72
0.16613816059685615
% es.Ez (V/m) @ t=0.72
-0.5496789533229811
% es.tEx (V/m) @ t=0.72
-2.1567836625232104
% es.tEy (V/m) @ t=0.72
0
% es.tEz (V/m) @ t=0.72
-0.5496789533229709
% V (V) @ t=0.72
0.012935855013934155
% es.normE (V/m) @ t=0.74
2.251993553313083
% es.EX (V/m) @ t=0.74
-2.1760294773667557
% es.EY (V/m) @ t=0.74
0.16761965458107475
% es.EZ (V/m) @ t=0.74
-0.5545819121898288
% es.tEX (V/m) @ t=0.74
-2.176029477366761
% es.tEY (V/m) @ t=0.74
0
% es.tEZ (V/m) @ t=0.74
-0.5545819121898194
% es.Ex (V/m) @ t=0.74
-2.1760294773667557
% es.Ey (V/m) @ t=0.74
0.16761965458107475
% es.Ez (V/m) @ t=0.74
-0.5545819121898288
% es.tEx (V/m) @ t=0.74
-2.176029477366761
% es.tEy (V/m) @ t=0.74
0
% es.tEz (V/m) @ t=0.74
-0.5545819121898194
% V (V) @ t=0.74
0.013051323532881933
% es.normE (V/m) @ t=0.76
2.271910641556269
% es.EX (V/m) @ t=0.76
-2.1952752922103347
% es.EY (V/m) @ t=0.76
0.16910114856530734
% es.EZ (V/m) @ t=0.76
-0.5594848710566871
% es.tEX (V/m) @ t=0.76
-2.19527529221034
% es.tEY (V/m) @ t=0.76
0
% es.tEZ (V/m) @ t=0.76
-0.5594848710566787
% es.Ex (V/m) @ t=0.76
-2.1952752922103347
% es.Ey (V/m) @ t=0.76
0.16910114856530734
% es.Ez (V/m) @ t=0.76
-0.5594848710566871
% es.tEx (V/m) @ t=0.76
-2.19527529221034
% es.tEy (V/m) @ t=0.76
0
% es.tEz (V/m) @ t=0.76
-0.5594848710566787
% V (V) @ t=0.76
0.013166792051829712
% es.normE (V/m) @ t=0.78
2.291827729802194
% es.EX (V/m) @ t=0.78
-2.2145211070538977
% es.EY (V/m) @ t=0.78
0.17058264254953115
% es.EZ (V/m) @ t=0.78
-0.5643878299235134
% es.tEX (V/m) @ t=0.78
-2.214521107053905
% es.tEY (V/m) @ t=0.78
0
% es.tEZ (V/m) @ t=0.78
-0.5643878299235112
% es.Ex (V/m) @ t=0.78
-2.2145211070538977
% es.Ey (V/m) @ t=0.78
0.17058264254953115
% es.Ez (V/m) @ t=0.78
-0.5643878299235134
% es.tEx (V/m) @ t=0.78
-2.214521107053905
% es.tEy (V/m) @ t=0.78
0
% es.tEz (V/m) @ t=0.78
-0.5643878299235112
% V (V) @ t=0.78
0.013282260570777488
% es.normE (V/m) @ t=0.8
2.312601952400322
% es.EX (V/m) @ t=0.8
-2.2345948545834933
% es.EY (V/m) @ t=0.8
0.17212842660073535
% es.EZ (V/m) @ t=0.8
-0.5695028226507217
% es.tEX (V/m) @ t=0.8
-2.234594854583502
% es.tEY (V/m) @ t=0.8
0
% es.tEZ (V/m) @ t=0.8
-0.5695028226507262
% es.Ex (V/m) @ t=0.8
-2.2345948545834933
% es.Ey (V/m) @ t=0.8
0.17212842660073535
% es.Ez (V/m) @ t=0.8
-0.5695028226507217
% es.tEx (V/m) @ t=0.8
-2.234594854583502
% es.tEy (V/m) @ t=0.8
0
% es.tEz (V/m) @ t=0.8
-0.5695028226507262
% V (V) @ t=0.8
0.013402676255955839
% es.normE (V/m) @ t=0.82
2.3347872000282472
% es.EX (V/m) @ t=0.82
-2.2560315550069454
% es.EY (V/m) @ t=0.82
0.17378004574492067
% es.EZ (V/m) @ t=0.82
-0.5749668681070337
% es.tEX (V/m) @ t=0.82
-2.2560315550069703
% es.tEY (V/m) @ t=0.82
0
% es.tEZ (V/m) @ t=0.82
-0.5749668681070332
% es.Ex (V/m) @ t=0.82
-2.2560315550069454
% es.Ey (V/m) @ t=0.82
0.17378004574492067
% es.Ez (V/m) @ t=0.82
-0.5749668681070337
% es.tEx (V/m) @ t=0.82
-2.2560315550069703
% es.tEy (V/m) @ t=0.82
0
% es.tEz (V/m) @ t=0.82
-0.5749668681070332
% V (V) @ t=0.82
0.013531236026570064
% es.normE (V/m) @ t=0.84
2.3569724476565472
% es.EX (V/m) @ t=0.84
-2.2774682554304047
% es.EY (V/m) @ t=0.84
0.17543166488910933
% es.EZ (V/m) @ t=0.84
-0.5804309135633563
% es.tEX (V/m) @ t=0.84
-2.2774682554304206
% es.tEY (V/m) @ t=0.84
0
% es.tEZ (V/m) @ t=0.84
-0.5804309135633403
% es.Ex (V/m) @ t=0.84
-2.2774682554304047
% es.Ey (V/m) @ t=0.84
0.17543166488910933
% es.Ez (V/m) @ t=0.84
-0.5804309135633563
% es.tEx (V/m) @ t=0.84
-2.2774682554304206
% es.tEy (V/m) @ t=0.84
0
% es.tEz (V/m) @ t=0.84
-0.5804309135633403
% V (V) @ t=0.84
0.013659795797184297
% es.normE (V/m) @ t=0.86
2.3791576952851896
% es.EX (V/m) @ t=0.86
-2.298904955853855
% es.EY (V/m) @ t=0.86
0.17708328403327345
% es.EZ (V/m) @ t=0.86
-0.5858949590196691
% es.tEX (V/m) @ t=0.86
-2.298904955853871
% es.tEY (V/m) @ t=0.86
0
% es.tEZ (V/m) @ t=0.86
-0.5858949590196758
% es.Ex (V/m) @ t=0.86
-2.298904955853855
% es.Ey (V/m) @ t=0.86
0.17708328403327345
% es.Ez (V/m) @ t=0.86
-0.5858949590196691
% es.tEx (V/m) @ t=0.86
-2.298904955853871
% es.tEy (V/m) @ t=0.86
0
% es.tEz (V/m) @ t=0.86
-0.5858949590196758
% V (V) @ t=0.86
0.013788355567798527
% es.normE (V/m) @ t=0.88
2.4013429429141926
% es.EX (V/m) @ t=0.88
-2.3203416562773214
% es.EY (V/m) @ t=0.88
0.17873490317745688
% es.EZ (V/m) @ t=0.88
-0.5913590044759705
% es.tEX (V/m) @ t=0.88
-2.320341656277325
% es.tEY (V/m) @ t=0.88
0
% es.tEZ (V/m) @ t=0.88
-0.5913590044759722
% es.Ex (V/m) @ t=0.88
-2.3203416562773214
% es.Ey (V/m) @ t=0.88
0.17873490317745688
% es.Ez (V/m) @ t=0.88
-0.5913590044759705
% es.tEx (V/m) @ t=0.88
-2.320341656277325
% es.tEy (V/m) @ t=0.88
0
% es.tEz (V/m) @ t=0.88
-0.5913590044759722
% V (V) @ t=0.88
0.013916915338412753
% es.normE (V/m) @ t=0.9
2.4235281905435055
% es.EX (V/m) @ t=0.9
-2.3417783567007575
% es.EY (V/m) @ t=0.9
0.18038652232163332
% es.EZ (V/m) @ t=0.9
-0.5968230499322926
% es.tEX (V/m) @ t=0.9
-2.341778356700761
% es.tEY (V/m) @ t=0.9
0
% es.tEZ (V/m) @ t=0.9
-0.5968230499322971
% es.Ex (V/m) @ t=0.9
-2.3417783567007575
% es.Ey (V/m) @ t=0.9
0.18038652232163332
% es.Ez (V/m) @ t=0.9
-0.5968230499322926
% es.tEx (V/m) @ t=0.9
-2.341778356700761
% es.tEy (V/m) @ t=0.9
0
% es.tEz (V/m) @ t=0.9
-0.5968230499322971
% V (V) @ t=0.9
0.014045475109026984
% es.normE (V/m) @ t=0.92
2.4457134381731866
% es.EX (V/m) @ t=0.92
-2.3632150571242416
% es.EY (V/m) @ t=0.92
0.18203814146580266
% es.EZ (V/m) @ t=0.92
-0.6022870953885917
% es.tEX (V/m) @ t=0.92
-2.36321505712424
% es.tEY (V/m) @ t=0.92
0
% es.tEZ (V/m) @ t=0.92
-0.6022870953885828
% es.Ex (V/m) @ t=0.92
-2.3632150571242416
% es.Ey (V/m) @ t=0.92
0.18203814146580266
% es.Ez (V/m) @ t=0.92
-0.6022870953885917
% es.tEx (V/m) @ t=0.92
-2.36321505712424
% es.tEy (V/m) @ t=0.92
0
% es.tEz (V/m) @ t=0.92
-0.6022870953885828
% V (V) @ t=0.92
0.014174034879641214
% es.normE (V/m) @ t=0.94
2.4678986858031546
% es.EX (V/m) @ t=0.94
-2.38465175754769
% es.EY (V/m) @ t=0.94
0.1836897606100003
% es.EZ (V/m) @ t=0.94
-0.6077511408448966
% es.tEX (V/m) @ t=0.94
-2.3846517575476938
% es.tEY (V/m) @ t=0.94
0
% es.tEZ (V/m) @ t=0.94
-0.6077511408448935
% es.Ex (V/m) @ t=0.94
-2.38465175754769
% es.Ey (V/m) @ t=0.94
0.1836897606100003
% es.Ez (V/m) @ t=0.94
-0.6077511408448966
% es.tEx (V/m) @ t=0.94
-2.3846517575476938
% es.tEy (V/m) @ t=0.94
0
% es.tEz (V/m) @ t=0.94
-0.6077511408448935
% V (V) @ t=0.94
0.014302594650255442
% es.normE (V/m) @ t=0.96
2.49008393343345
% es.EX (V/m) @ t=0.96
-2.406088457971153
% es.EY (V/m) @ t=0.96
0.18534137975417664
% es.EZ (V/m) @ t=0.96
-0.6132151863012258
% es.tEX (V/m) @ t=0.96
-2.4060884579711406
% es.tEY (V/m) @ t=0.96
0
% es.tEZ (V/m) @ t=0.96
-0.6132151863012183
% es.Ex (V/m) @ t=0.96
-2.406088457971153
% es.Ey (V/m) @ t=0.96
0.18534137975417664
% es.Ez (V/m) @ t=0.96
-0.6132151863012258
% es.tEx (V/m) @ t=0.96
-2.4060884579711406
% es.tEy (V/m) @ t=0.96
0
% es.tEz (V/m) @ t=0.96
-0.6132151863012183
% V (V) @ t=0.96
0.01443115442086967
% es.normE (V/m) @ t=0.98
2.512269181064015
% es.EX (V/m) @ t=0.98
-2.427525158394589
% es.EY (V/m) @ t=0.98
0.1869929988983584
% es.EZ (V/m) @ t=0.98
-0.6186792317575325
% es.tEX (V/m) @ t=0.98
-2.427525158394591
% es.tEY (V/m) @ t=0.98
0
% es.tEZ (V/m) @ t=0.98
-0.6186792317575254
% es.Ex (V/m) @ t=0.98
-2.427525158394589
% es.Ey (V/m) @ t=0.98
0.1869929988983584
% es.Ez (V/m) @ t=0.98
-0.6186792317575325
% es.tEx (V/m) @ t=0.98
-2.427525158394591
% es.tEy (V/m) @ t=0.98
0
% es.tEz (V/m) @ t=0.98
-0.6186792317575254
% V (V) @ t=0.98
0.0145597141914839
% es.normE (V/m) @ t=1
2.534454428694902
% es.EX (V/m) @ t=1
-2.4489618588180555
% es.EY (V/m) @ t=1
0.1886446180425384
% es.EZ (V/m) @ t=1
-0.6241432772138329
% es.tEX (V/m) @ t=1
-2.448961858818059
% es.tEY (V/m) @ t=1
0
% es.tEZ (V/m) @ t=1
-0.6241432772138147
% es.Ex (V/m) @ t=1
-2.4489618588180555
% es.Ey (V/m) @ t=1
0.1886446180425384
% es.Ez (V/m) @ t=1
-0.6241432772138329
% es.tEx (V/m) @ t=1
-2.448961858818059
% es.tEy (V/m) @ t=1
0
% es.tEz (V/m) @ t=1
-0.6241432772138147
% V (V) @ t=1
0.01468827396209813
% es.normE (V/m) @ t=1.02
2.556639676326051
% es.EX (V/m) @ t=1.02
-2.4703985592414934
% es.EY (V/m) @ t=1.02
0.19029623718672184
% es.EZ (V/m) @ t=1.02
-0.6296073226701466
% es.tEX (V/m) @ t=1.02
-2.470398559241495
% es.tEY (V/m) @ t=1.02
0
% es.tEZ (V/m) @ t=1.02
-0.6296073226701431
% es.Ex (V/m) @ t=1.02
-2.4703985592414934
% es.Ey (V/m) @ t=1.02
0.19029623718672184
% es.Ez (V/m) @ t=1.02
-0.6296073226701466
% es.tEx (V/m) @ t=1.02
-2.470398559241495
% es.tEy (V/m) @ t=1.02
0
% es.tEz (V/m) @ t=1.02
-0.6296073226701431
% V (V) @ t=1.02