% Model:              1 neuron.mph
% Version:            COMSOL 6.0.0.405
% Date:               Mar 16 2023, 18:15
% Dimension:          0
% Nodes:              14017
% Expressions:        14017
% Description:        Electric field norm, Electric field, X component, Electric field, Y component, Electric field, Z component, Tangential electric field, X component, Tangential electric field, Y component, Tangential electric field, Z component, Electric field, x component, Electric field, y component, Electric field, z component, Tangential electric field, x component, Tangential electric field, y component, Tangential electric field, z component, Electric potential
% Length unit:        mm
% x
1
% y
12.2
% z
1.33
% es.normE (V/m) @ t=0
2.160151567956646
% es.EX (V/m) @ t=0
1.996262396021815
% es.EY (V/m) @ t=0
0.12569663053411817
% es.EZ (V/m) @ t=0
0.8070154850358893
% es.tEX (V/m) @ t=0
1.9962623960218124
% es.tEY (V/m) @ t=0
0
% es.tEZ (V/m) @ t=0
0.807015485035889
% es.Ex (V/m) @ t=0
1.996262396021815
% es.Ey (V/m) @ t=0
0.12569663053411817
% es.Ez (V/m) @ t=0
0.8070154850358893
% es.tEx (V/m) @ t=0
1.9962623960218124
% es.tEy (V/m) @ t=0
0
% es.tEz (V/m) @ t=0
0.807015485035889
% V (V) @ t=0
0.010775192618218592
% es.normE (V/m) @ t=0.02
1.8657644712165462
% es.EX (V/m) @ t=0.02
1.7242102400484667
% es.EY (V/m) @ t=0.02
0.10856659832671911
% es.EZ (V/m) @ t=0.02
0.6970348018723653
% es.tEX (V/m) @ t=0.02
1.7242102400484676
% es.tEY (V/m) @ t=0.02
0
% es.tEZ (V/m) @ t=0.02
0.6970348018723671
% es.Ex (V/m) @ t=0.02
1.7242102400484667
% es.Ey (V/m) @ t=0.02
0.10856659832671911
% es.Ez (V/m) @ t=0.02
0.6970348018723653
% es.tEx (V/m) @ t=0.02
1.7242102400484676
% es.tEy (V/m) @ t=0.02
0
% es.tEz (V/m) @ t=0.02
0.6970348018723671
% V (V) @ t=0.02
0.009306741168767145
% es.normE (V/m) @ t=0.04
1.8829281444962729
% es.EX (V/m) @ t=0.04
1.7400717172434588
% es.EY (V/m) @ t=0.04
0.1095653322403709
% es.EZ (V/m) @ t=0.04
0.703447014832314
% es.tEX (V/m) @ t=0.04
1.740071717243456
% es.tEY (V/m) @ t=0.04
0
% es.tEZ (V/m) @ t=0.04
0.7034470148323138
% es.Ex (V/m) @ t=0.04
1.7400717172434588
% es.Ey (V/m) @ t=0.04
0.1095653322403709
% es.Ez (V/m) @ t=0.04
0.703447014832314
% es.tEx (V/m) @ t=0.04
1.740071717243456
% es.tEy (V/m) @ t=0.04
0
% es.tEz (V/m) @ t=0.04
0.7034470148323138
% V (V) @ t=0.04
0.009392356354917569
% es.normE (V/m) @ t=0.06
1.9002308705901272
% es.EX (V/m) @ t=0.06
1.7560616967998675
% es.EY (V/m) @ t=0.06
0.11057215809308762
% es.EZ (V/m) @ t=0.06
0.7099111783382923
% es.tEX (V/m) @ t=0.06
1.7560616967998701
% es.tEY (V/m) @ t=0.06
0
% es.tEZ (V/m) @ t=0.06
0.7099111783382916
% es.Ex (V/m) @ t=0.06
1.7560616967998675
% es.Ey (V/m) @ t=0.06
0.11057215809308762
% es.Ez (V/m) @ t=0.06
0.7099111783382923
% es.tEx (V/m) @ t=0.06
1.7560616967998701
% es.tEy (V/m) @ t=0.06
0
% es.tEz (V/m) @ t=0.06
0.7099111783382916
% V (V) @ t=0.06
0.009478665068041632
% es.normE (V/m) @ t=0.08
1.9178340534418912
% es.EX (V/m) @ t=0.08
1.7723293389368182
% es.EY (V/m) @ t=0.08
0.11159646589388306
% es.EZ (V/m) @ t=0.08
0.7164875869786349
% es.tEX (V/m) @ t=0.08
1.7723293389368138
% es.tEY (V/m) @ t=0.08
0
% es.tEZ (V/m) @ t=0.08
0.7164875869786349
% es.Ex (V/m) @ t=0.08
1.7723293389368182
% es.Ey (V/m) @ t=0.08
0.11159646589388306
% es.Ez (V/m) @ t=0.08
0.7164875869786349
% es.tEx (V/m) @ t=0.08
1.7723293389368138
% es.tEy (V/m) @ t=0.08
0
% es.tEz (V/m) @ t=0.08
0.7164875869786349
% V (V) @ t=0.08
0.009566472696207202
% es.normE (V/m) @ t=0.1
1.9355706237917074
% es.EX (V/m) @ t=0.1
1.788720249117996
% es.EY (V/m) @ t=0.1
0.11262853478924151
% es.EZ (V/m) @ t=0.1
0.7231138267419119
% es.tEX (V/m) @ t=0.1
1.7887202491179952
% es.tEY (V/m) @ t=0.1
0
% es.tEZ (V/m) @ t=0.1
0.7231138267419137
% es.Ex (V/m) @ t=0.1
1.788720249117996
% es.Ey (V/m) @ t=0.1
0.11262853478924151
% es.Ez (V/m) @ t=0.1
0.7231138267419119
% es.tEx (V/m) @ t=0.1
1.7887202491179952
% es.tEy (V/m) @ t=0.1
0
% es.tEz (V/m) @ t=0.1
0.7231138267419137
% V (V) @ t=0.1
0.00965494576631056
% es.normE (V/m) @ t=0.12
1.9533071941415325
% es.EX (V/m) @ t=0.12
1.8051111592991758
% es.EY (V/m) @ t=0.12
0.11366060368460906
% es.EZ (V/m) @ t=0.12
0.7297400665052054
% es.tEX (V/m) @ t=0.12
1.8051111592991749
% es.tEY (V/m) @ t=0.12
0
% es.tEZ (V/m) @ t=0.12
0.7297400665052036
% es.Ex (V/m) @ t=0.12
1.8051111592991758
% es.Ey (V/m) @ t=0.12
0.11366060368460906
% es.Ez (V/m) @ t=0.12
0.7297400665052054
% es.tEx (V/m) @ t=0.12
1.8051111592991749
% es.tEy (V/m) @ t=0.12
0
% es.tEz (V/m) @ t=0.12
0.7297400665052036
% V (V) @ t=0.12
0.009743418836413924
% es.normE (V/m) @ t=0.14
1.9714054550457356
% es.EX (V/m) @ t=0.14
1.8218363182555821
% es.EY (V/m) @ t=0.14
0.11471371947719156
% es.EZ (V/m) @ t=0.14
0.7365014324058947
% es.tEX (V/m) @ t=0.14
1.8218363182555777
% es.tEY (V/m) @ t=0.14
0
% es.tEZ (V/m) @ t=0.14
0.7365014324059
% es.Ex (V/m) @ t=0.14
1.8218363182555821
% es.Ey (V/m) @ t=0.14
0.11471371947719156
% es.Ez (V/m) @ t=0.14
0.7365014324058947
% es.tEx (V/m) @ t=0.14
1.8218363182555777
% es.tEy (V/m) @ t=0.14
0
% es.tEz (V/m) @ t=0.14
0.7365014324059
% V (V) @ t=0.14
0.009833695995899259
% es.normE (V/m) @ t=0.16
1.9900582731632706
% es.EX (V/m) @ t=0.16
1.8390739596838221
% es.EY (V/m) @ t=0.16
0.11579910514392
% es.EZ (V/m) @ t=0.16
0.7434699786526047
% es.tEX (V/m) @ t=0.16
1.8390739596838266
% es.tEY (V/m) @ t=0.16
0
% es.tEZ (V/m) @ t=0.16
0.7434699786526058
% es.Ex (V/m) @ t=0.16
1.8390739596838221
% es.Ey (V/m) @ t=0.16
0.11579910514392
% es.Ez (V/m) @ t=0.16
0.7434699786526047
% es.tEx (V/m) @ t=0.16
1.8390739596838266
% es.tEy (V/m) @ t=0.16
0
% es.tEz (V/m) @ t=0.16
0.7434699786526058
% V (V) @ t=0.16
0.009926739251341934
% es.normE (V/m) @ t=0.18
2.00871109128081
% es.EX (V/m) @ t=0.18
1.8563116011120595
% es.EY (V/m) @ t=0.18
0.11688449081066099
% es.EZ (V/m) @ t=0.18
0.7504385248993344
% es.tEX (V/m) @ t=0.18
1.8563116011120666
% es.tEY (V/m) @ t=0.18
0
% es.tEZ (V/m) @ t=0.18
0.750438524899343
% es.Ex (V/m) @ t=0.18
1.8563116011120595
% es.Ey (V/m) @ t=0.18
0.11688449081066099
% es.Ez (V/m) @ t=0.18
0.7504385248993344
% es.tEx (V/m) @ t=0.18
1.8563116011120666
% es.tEy (V/m) @ t=0.18
0
% es.tEz (V/m) @ t=0.18
0.750438524899343
% V (V) @ t=0.18
0.01001978250678461
% es.normE (V/m) @ t=0.2
2.027363909398344
% es.EX (V/m) @ t=0.2
1.8735492425403004
% es.EY (V/m) @ t=0.2
0.11796987647739654
% es.EZ (V/m) @ t=0.2
0.757407071146039
% es.tEX (V/m) @ t=0.2
1.8735492425403066
% es.tEY (V/m) @ t=0.2
0
% es.tEZ (V/m) @ t=0.2
0.7574070711460381
% es.Ex (V/m) @ t=0.2
1.8735492425403004
% es.Ey (V/m) @ t=0.2
0.11796987647739654
% es.Ez (V/m) @ t=0.2
0.757407071146039
% es.tEx (V/m) @ t=0.2
1.8735492425403066
% es.tEy (V/m) @ t=0.2
0
% es.tEz (V/m) @ t=0.2
0.7574070711460381
% V (V) @ t=0.2
0.010112825762227285
% es.normE (V/m) @ t=0.22
2.046016727515889
% es.EX (V/m) @ t=0.22
1.8907868839685475
% es.EY (V/m) @ t=0.22
0.11905526214414541
% es.EZ (V/m) @ t=0.22
0.7643756173927589
% es.tEX (V/m) @ t=0.22
1.8907868839685449
% es.tEY (V/m) @ t=0.22
0
% es.tEZ (V/m) @ t=0.22
0.7643756173927563
% es.Ex (V/m) @ t=0.22
1.8907868839685475
% es.Ey (V/m) @ t=0.22
0.11905526214414541
% es.Ez (V/m) @ t=0.22
0.7643756173927589
% es.tEx (V/m) @ t=0.22
1.8907868839685449
% es.tEy (V/m) @ t=0.22
0
% es.tEz (V/m) @ t=0.22
0.7643756173927563
% V (V) @ t=0.22
0.010205869017669962
% es.normE (V/m) @ t=0.24
2.0646695456334276
% es.EX (V/m) @ t=0.24
1.9080245253967814
% es.EY (V/m) @ t=0.24
0.12014064781088274
% es.EZ (V/m) @ t=0.24
0.7713441636394938
% es.tEX (V/m) @ t=0.24
1.9080245253967885
% es.tEY (V/m) @ t=0.24
0
% es.tEZ (V/m) @ t=0.24
0.7713441636394975
% es.Ex (V/m) @ t=0.24
1.9080245253967814
% es.Ey (V/m) @ t=0.24
0.12014064781088274
% es.Ez (V/m) @ t=0.24
0.7713441636394938
% es.tEx (V/m) @ t=0.24
1.9080245253967885
% es.tEy (V/m) @ t=0.24
0
% es.tEz (V/m) @ t=0.24
0.7713441636394975
% V (V) @ t=0.24
0.01029891227311264
% es.normE (V/m) @ t=0.26
2.0833223637509573
% es.EX (V/m) @ t=0.26
1.9252621668250187
% es.EY (V/m) @ t=0.26
0.12122603347760508
% es.EZ (V/m) @ t=0.26
0.7783127098861968
% es.tEX (V/m) @ t=0.26
1.9252621668250214
% es.tEY (V/m) @ t=0.26
0
% es.tEZ (V/m) @ t=0.26
0.7783127098861993
% es.Ex (V/m) @ t=0.26
1.9252621668250187
% es.Ey (V/m) @ t=0.26
0.12122603347760508
% es.Ez (V/m) @ t=0.26
0.7783127098861968
% es.tEx (V/m) @ t=0.26
1.9252621668250214
% es.tEy (V/m) @ t=0.26
0
% es.tEz (V/m) @ t=0.26
0.7783127098861993
% V (V) @ t=0.26
0.010391955528555314
% es.normE (V/m) @ t=0.28
2.103615649395557
% es.EX (V/m) @ t=0.28
1.9440158004021493
% es.EY (V/m) @ t=0.28
0.12240688935862643
% es.EZ (V/m) @ t=0.28
0.7858941571016014
% es.tEX (V/m) @ t=0.28
1.9440158004021484
% es.tEY (V/m) @ t=0.28
0
% es.tEZ (V/m) @ t=0.28
0.7858941571015996
% es.Ex (V/m) @ t=0.28
1.9440158004021493
% es.Ey (V/m) @ t=0.28
0.12240688935862643
% es.Ez (V/m) @ t=0.28
0.7858941571016014
% es.tEx (V/m) @ t=0.28
1.9440158004021484
% es.tEy (V/m) @ t=0.28
0
% es.tEz (V/m) @ t=0.28
0.7858941571015996
% V (V) @ t=0.28
0.010493179703899002
% es.normE (V/m) @ t=0.3
2.1243211936349615
% es.EX (V/m) @ t=0.3
1.9631504112206688
% es.EY (V/m) @ t=0.3
0.1236117374343575
% es.EZ (V/m) @ t=0.3
0.793629629732268
% es.tEX (V/m) @ t=0.3
1.9631504112206724
% es.tEY (V/m) @ t=0.3
0
% es.tEZ (V/m) @ t=0.3
0.7936296297322691
% es.Ex (V/m) @ t=0.3
1.9631504112206688
% es.Ey (V/m) @ t=0.3
0.1236117374343575
% es.Ez (V/m) @ t=0.3
0.793629629732268
% es.tEx (V/m) @ t=0.3
1.9631504112206724
% es.tEy (V/m) @ t=0.3
0
% es.tEz (V/m) @ t=0.3
0.7936296297322691
% V (V) @ t=0.3
0.010596459789821247
% es.normE (V/m) @ t=0.32
2.1450267378743644
% es.EX (V/m) @ t=0.32
1.9822850220391839
% es.EY (V/m) @ t=0.32
0.12481658551010644
% es.EZ (V/m) @ t=0.32
0.8013651023629345
% es.tEX (V/m) @ t=0.32
1.982285022039191
% es.tEY (V/m) @ t=0.32
0
% es.tEZ (V/m) @ t=0.32
0.8013651023629333
% es.Ex (V/m) @ t=0.32
1.9822850220391839
% es.Ey (V/m) @ t=0.32
0.12481658551010644
% es.Ez (V/m) @ t=0.32
0.8013651023629345
% es.tEx (V/m) @ t=0.32
1.982285022039191
% es.tEy (V/m) @ t=0.32
0
% es.tEz (V/m) @ t=0.32
0.8013651023629333
% V (V) @ t=0.32
0.010699739875743495
% es.normE (V/m) @ t=0.34
2.1657322821137677
% es.EX (V/m) @ t=0.34
2.0014196328577034
% es.EY (V/m) @ t=0.34
0.12602143358585427
% es.EZ (V/m) @ t=0.34
0.8091005749935862
% es.tEX (V/m) @ t=0.34
2.0014196328577114
% es.tEY (V/m) @ t=0.34
0
% es.tEZ (V/m) @ t=0.34
0.8091005749935833
% es.Ex (V/m) @ t=0.34
2.0014196328577034
% es.Ey (V/m) @ t=0.34
0.12602143358585427
% es.Ez (V/m) @ t=0.34
0.8091005749935862
% es.tEx (V/m) @ t=0.34
2.0014196328577114
% es.tEy (V/m) @ t=0.34
0
% es.tEz (V/m) @ t=0.34
0.8091005749935833
% V (V) @ t=0.34
0.010803019961665739
% es.normE (V/m) @ t=0.36
2.1864378263531505
% es.EX (V/m) @ t=0.36
2.020554243676199
% es.EY (V/m) @ t=0.36
0.12722628166158534
% es.EZ (V/m) @ t=0.36
0.8168360476242433
% es.tEX (V/m) @ t=0.36
2.020554243676207
% es.tEY (V/m) @ t=0.36
0
% es.tEZ (V/m) @ t=0.36
0.8168360476242467
% es.Ex (V/m) @ t=0.36
2.020554243676199
% es.Ey (V/m) @ t=0.36
0.12722628166158534
% es.Ez (V/m) @ t=0.36
0.8168360476242433
% es.tEx (V/m) @ t=0.36
2.020554243676207
% es.tEy (V/m) @ t=0.36
0
% es.tEz (V/m) @ t=0.36
0.8168360476242467
% V (V) @ t=0.36
0.01090630004758798
% es.normE (V/m) @ t=0.38
2.2071433705925623
% es.EX (V/m) @ t=0.38
2.039688854494721
% es.EY (V/m) @ t=0.38
0.12843112973734028
% es.EZ (V/m) @ t=0.38
0.824571520254904
% es.tEX (V/m) @ t=0.38
2.0396888544947167
% es.tEY (V/m) @ t=0.38
0
% es.tEZ (V/m) @ t=0.38
0.8245715202549122
% es.Ex (V/m) @ t=0.38
2.039688854494721
% es.Ey (V/m) @ t=0.38
0.12843112973734028
% es.Ez (V/m) @ t=0.38
0.824571520254904
% es.tEx (V/m) @ t=0.38
2.0396888544947167
% es.tEy (V/m) @ t=0.38
0
% es.tEz (V/m) @ t=0.38
0.8245715202549122
% V (V) @ t=0.38
0.011009580133510229
% es.normE (V/m) @ t=0.4
2.2278489148319705
% es.EX (V/m) @ t=0.4
2.058823465313238
% es.EY (V/m) @ t=0.4
0.12963597781308578
% es.EZ (V/m) @ t=0.4
0.8323069928855673
% es.tEX (V/m) @ t=0.4
2.058823465313248
% es.tEY (V/m) @ t=0.4
0
% es.tEZ (V/m) @ t=0.4
0.8323069928855737
% es.Ex (V/m) @ t=0.4
2.058823465313238
% es.Ey (V/m) @ t=0.4
0.12963597781308578
% es.Ez (V/m) @ t=0.4
0.8323069928855673
% es.tEx (V/m) @ t=0.4
2.058823465313248
% es.tEy (V/m) @ t=0.4
0
% es.tEz (V/m) @ t=0.4
0.8323069928855737
% V (V) @ t=0.4
0.011112860219432473
% es.normE (V/m) @ t=0.42
2.2485544590713724
% es.EX (V/m) @ t=0.42
2.0779580761317495
% es.EY (V/m) @ t=0.42
0.13084082588881873
% es.EZ (V/m) @ t=0.42
0.8400424655162257
% es.tEX (V/m) @ t=0.42
2.0779580761317558
% es.tEY (V/m) @ t=0.42
0
% es.tEZ (V/m) @ t=0.42
0.8400424655162255
% es.Ex (V/m) @ t=0.42
2.0779580761317495
% es.Ey (V/m) @ t=0.42
0.13084082588881873
% es.Ez (V/m) @ t=0.42
0.8400424655162257
% es.tEx (V/m) @ t=0.42
2.0779580761317558
% es.tEy (V/m) @ t=0.42
0
% es.tEz (V/m) @ t=0.42
0.8400424655162255
% V (V) @ t=0.42
0.011216140305354717
% es.normE (V/m) @ t=0.44
2.26926000331078
% es.EX (V/m) @ t=0.44
2.097092686950262
% es.EY (V/m) @ t=0.44
0.13204567396456746
% es.EZ (V/m) @ t=0.44
0.8477779381468908
% es.tEX (V/m) @ t=0.44
2.0970926869502655
% es.tEY (V/m) @ t=0.44
0
% es.tEZ (V/m) @ t=0.44
0.8477779381468915
% es.Ex (V/m) @ t=0.44
2.097092686950262
% es.Ey (V/m) @ t=0.44
0.13204567396456746
% es.Ez (V/m) @ t=0.44
0.8477779381468908
% es.tEx (V/m) @ t=0.44
2.0970926869502655
% es.tEy (V/m) @ t=0.44
0
% es.tEz (V/m) @ t=0.44
0.8477779381468915
% V (V) @ t=0.44
0.011319420391276964
% es.normE (V/m) @ t=0.46
2.2899655475501826
% es.EX (V/m) @ t=0.46
2.11622729776877
% es.EY (V/m) @ t=0.46
0.13325052204031085
% es.EZ (V/m) @ t=0.46
0.8555134107775488
% es.tEX (V/m) @ t=0.46
2.11622729776877
% es.tEY (V/m) @ t=0.46
0
% es.tEZ (V/m) @ t=0.46
0.8555134107775437
% es.Ex (V/m) @ t=0.46
2.11622729776877
% es.Ey (V/m) @ t=0.46
0.13325052204031085
% es.Ez (V/m) @ t=0.46
0.8555134107775488
% es.tEx (V/m) @ t=0.46
2.11622729776877
% es.tEy (V/m) @ t=0.46
0
% es.tEz (V/m) @ t=0.46
0.8555134107775437
% V (V) @ t=0.46
0.011422700477199208
% es.normE (V/m) @ t=0.48
2.310671091789609
% es.EX (V/m) @ t=0.48
2.1353619085872966
% es.EY (V/m) @ t=0.48
0.13445537011606057
% es.EZ (V/m) @ t=0.48
0.8632488834082246
% es.tEX (V/m) @ t=0.48
2.135361908587287
% es.tEY (V/m) @ t=0.48
0
% es.tEZ (V/m) @ t=0.48
0.8632488834082168
% es.Ex (V/m) @ t=0.48
2.1353619085872966
% es.Ey (V/m) @ t=0.48
0.13445537011606057
% es.Ez (V/m) @ t=0.48
0.8632488834082246
% es.tEx (V/m) @ t=0.48
2.135361908587287
% es.tEy (V/m) @ t=0.48
0
% es.tEz (V/m) @ t=0.48
0.8632488834082168
% V (V) @ t=0.48
0.011525980563121456
% es.normE (V/m) @ t=0.5
2.3313766360290087
% es.EX (V/m) @ t=0.5
2.1544965194058037
% es.EY (V/m) @ t=0.5
0.1356602181918034
% es.EZ (V/m) @ t=0.5
0.8709843560388746
% es.tEX (V/m) @ t=0.5
2.154496519405807
% es.tEY (V/m) @ t=0.5
0
% es.tEZ (V/m) @ t=0.5
0.870984356038873
% es.Ex (V/m) @ t=0.5
2.1544965194058037
% es.Ey (V/m) @ t=0.5
0.1356602181918034
% es.Ez (V/m) @ t=0.5
0.8709843560388746
% es.tEx (V/m) @ t=0.5
2.154496519405807
% es.tEy (V/m) @ t=0.5
0
% es.tEz (V/m) @ t=0.5
0.870984356038873
% V (V) @ t=0.5
0.0116292606490437
% es.normE (V/m) @ t=0.52
2.3520821802684293
% es.EX (V/m) @ t=0.52
2.173631130224325
% es.EY (V/m) @ t=0.52
0.13686506626754347
% es.EZ (V/m) @ t=0.52
0.8787198286695428
% es.tEX (V/m) @ t=0.52
2.173631130224333
% es.tEY (V/m) @ t=0.52
0
% es.tEZ (V/m) @ t=0.52
0.8787198286695448
% es.Ex (V/m) @ t=0.52
2.173631130224325
% es.Ey (V/m) @ t=0.52
0.13686506626754347
% es.Ez (V/m) @ t=0.52
0.8787198286695428
% es.tEx (V/m) @ t=0.52
2.173631130224333
% es.tEy (V/m) @ t=0.52
0
% es.tEz (V/m) @ t=0.52
0.8787198286695448
% V (V) @ t=0.52
0.011732540734965945
% es.normE (V/m) @ t=0.54
2.3741968870579107
% es.EX (V/m) @ t=0.54
2.1940680055099984
% es.EY (V/m) @ t=0.54
0.13815189847725495
% es.EZ (V/m) @ t=0.54
0.8869817183910049
% es.tEX (V/m) @ t=0.54
2.194068005509992
% es.tEY (V/m) @ t=0.54
0
% es.tEZ (V/m) @ t=0.54
0.8869817183910023
% es.Ex (V/m) @ t=0.54
2.1940680055099984
% es.Ey (V/m) @ t=0.54
0.13815189847725495
% es.Ez (V/m) @ t=0.54
0.8869817183910049
% es.tEx (V/m) @ t=0.54
2.194068005509992
% es.tEy (V/m) @ t=0.54
0
% es.tEz (V/m) @ t=0.54
0.8869817183910023
% V (V) @ t=0.54
0.01184285194931883
% es.normE (V/m) @ t=0.56
2.397220162812001
% es.EX (V/m) @ t=0.56
2.215344526355736
% es.EY (V/m) @ t=0.56
0.1394915906211831
% es.EZ (V/m) @ t=0.56
0.8955830197943382
% es.tEX (V/m) @ t=0.56
2.2153445263557323
% es.tEY (V/m) @ t=0.56
0
% es.tEZ (V/m) @ t=0.56
0.8955830197943406
% es.Ex (V/m) @ t=0.56
2.215344526355736
% es.Ey (V/m) @ t=0.56
0.1394915906211831
% es.Ez (V/m) @ t=0.56
0.8955830197943382
% es.tEx (V/m) @ t=0.56
2.2153445263557323
% es.tEy (V/m) @ t=0.56
0
% es.tEz (V/m) @ t=0.56
0.8955830197943406
% V (V) @ t=0.56
0.011957696540660574
% es.normE (V/m) @ t=0.58
2.420243438566067
% es.EX (V/m) @ t=0.58
2.2366210472014476
% es.EY (V/m) @ t=0.58
0.14083128276511936
% es.EZ (V/m) @ t=0.58
0.9041843211976655
% es.tEX (V/m) @ t=0.58
2.236621047201451
% es.tEY (V/m) @ t=0.58
0
% es.tEZ (V/m) @ t=0.58
0.9041843211976675
% es.Ex (V/m) @ t=0.58
2.2366210472014476
% es.Ey (V/m) @ t=0.58
0.14083128276511936
% es.Ez (V/m) @ t=0.58
0.9041843211976655
% es.tEx (V/m) @ t=0.58
2.236621047201451
% es.tEy (V/m) @ t=0.58
0
% es.tEz (V/m) @ t=0.58
0.9041843211976675
% V (V) @ t=0.58
0.012072541132002314
% es.normE (V/m) @ t=0.6
2.443266714320152
% es.EX (V/m) @ t=0.6
2.25789756804718
% es.EY (V/m) @ t=0.6
0.14217097490905195
% es.EZ (V/m) @ t=0.6
0.9127856226009923
% es.tEX (V/m) @ t=0.6
2.2578975680471824
% es.tEY (V/m) @ t=0.6
0
% es.tEZ (V/m) @ t=0.6
0.9127856226009934
% es.Ex (V/m) @ t=0.6
2.25789756804718
% es.Ey (V/m) @ t=0.6
0.14217097490905195
% es.Ez (V/m) @ t=0.6
0.9127856226009923
% es.tEx (V/m) @ t=0.6
2.2578975680471824
% es.tEy (V/m) @ t=0.6
0
% es.tEz (V/m) @ t=0.6
0.9127856226009934
% V (V) @ t=0.6
0.012187385723344055
% es.normE (V/m) @ t=0.62
2.466289990074232
% es.EX (V/m) @ t=0.62
2.2791740888929084
% es.EY (V/m) @ t=0.62
0.1435106670529872
% es.EZ (V/m) @ t=0.62
0.9213869240043167
% es.tEX (V/m) @ t=0.62
2.279174088892905
% es.tEY (V/m) @ t=0.62
0
% es.tEZ (V/m) @ t=0.62
0.921386924004314
% es.Ex (V/m) @ t=0.62
2.2791740888929084
% es.Ey (V/m) @ t=0.62
0.1435106670529872
% es.Ez (V/m) @ t=0.62
0.9213869240043167
% es.tEx (V/m) @ t=0.62
2.279174088892905
% es.tEy (V/m) @ t=0.62
0
% es.tEz (V/m) @ t=0.62
0.921386924004314
% V (V) @ t=0.62
0.012302230314685799
% es.normE (V/m) @ t=0.64
2.4893132658283093
% es.EX (V/m) @ t=0.64
2.3004506097386326
% es.EY (V/m) @ t=0.64
0.14485035919692457
% es.EZ (V/m) @ t=0.64
0.9299882254076439
% es.tEX (V/m) @ t=0.64
2.3004506097386273
% es.tEY (V/m) @ t=0.64
0
% es.tEZ (V/m) @ t=0.64
0.9299882254076479
% es.Ex (V/m) @ t=0.64
2.3004506097386326
% es.Ey (V/m) @ t=0.64
0.14485035919692457
% es.Ez (V/m) @ t=0.64
0.9299882254076439
% es.tEx (V/m) @ t=0.64
2.3004506097386273
% es.tEy (V/m) @ t=0.64
0
% es.tEz (V/m) @ t=0.64
0.9299882254076479
% V (V) @ t=0.64
0.012417074906027543
% es.normE (V/m) @ t=0.66
2.5123365415823895
% es.EX (V/m) @ t=0.66
2.3217271305843568
% es.EY (V/m) @ t=0.66
0.14619005134086605
% es.EZ (V/m) @ t=0.66
0.9385895268109756
% es.tEX (V/m) @ t=0.66
2.3217271305843585
% es.tEY (V/m) @ t=0.66
0
% es.tEZ (V/m) @ t=0.66
0.9385895268109747
% es.Ex (V/m) @ t=0.66
2.3217271305843568
% es.Ey (V/m) @ t=0.66
0.14619005134086605
% es.Ez (V/m) @ t=0.66
0.9385895268109756
% es.tEx (V/m) @ t=0.66
2.3217271305843585
% es.tEy (V/m) @ t=0.66
0
% es.tEz (V/m) @ t=0.66
0.9385895268109747
% V (V) @ t=0.66
0.012531919497369285
% es.normE (V/m) @ t=0.68
2.5353598173364738
% es.EX (V/m) @ t=0.68
2.3430036514300907
% es.EY (V/m) @ t=0.68
0.14752974348478554
% es.EZ (V/m) @ t=0.68
0.947190828214298
% es.tEX (V/m) @ t=0.68
2.34300365143009
% es.tEY (V/m) @ t=0.68
0
% es.tEZ (V/m) @ t=0.68
0.9471908282142989
% es.Ex (V/m) @ t=0.68
2.3430036514300907
% es.Ey (V/m) @ t=0.68
0.14752974348478554
% es.Ez (V/m) @ t=0.68
0.947190828214298
% es.tEx (V/m) @ t=0.68
2.34300365143009
% es.tEy (V/m) @ t=0.68
0
% es.tEz (V/m) @ t=0.68
0.9471908282142989
% V (V) @ t=0.68
0.012646764088711026
% es.normE (V/m) @ t=0.7
2.5583830930905385
% es.EX (V/m) @ t=0.7
2.3642801722758007
% es.EY (V/m) @ t=0.7
0.14886943562872357
% es.EZ (V/m) @ t=0.7
0.9557921296176253
% es.tEX (V/m) @ t=0.7
2.364280172275807
% es.tEY (V/m) @ t=0.7
0
% es.tEZ (V/m) @ t=0.7
0.9557921296176257
% es.Ex (V/m) @ t=0.7
2.3642801722758007
% es.Ey (V/m) @ t=0.7
0.14886943562872357
% es.Ez (V/m) @ t=0.7
0.9557921296176253
% es.tEx (V/m) @ t=0.7
2.364280172275807
% es.tEy (V/m) @ t=0.7
0
% es.tEz (V/m) @ t=0.7
0.9557921296176257
% V (V) @ t=0.7
0.01276160868005277
% es.normE (V/m) @ t=0.72
2.5814063688446343
% es.EX (V/m) @ t=0.72
2.3855566931215346
% es.EY (V/m) @ t=0.72
0.1502091277726535
% es.EZ (V/m) @ t=0.72
0.9643934310209739
% es.tEX (V/m) @ t=0.72
2.385556693121538
% es.tEY (V/m) @ t=0.72
0
% es.tEZ (V/m) @ t=0.72
0.964393431020973
% es.Ex (V/m) @ t=0.72
2.3855566931215346
% es.Ey (V/m) @ t=0.72
0.1502091277726535
% es.Ez (V/m) @ t=0.72
0.9643934310209739
% es.tEx (V/m) @ t=0.72
2.385556693121538
% es.tEy (V/m) @ t=0.72
0
% es.tEz (V/m) @ t=0.72
0.964393431020973
% V (V) @ t=0.72
0.012876453271394512
% es.normE (V/m) @ t=0.74
2.6044296445987123
% es.EX (V/m) @ t=0.74
2.406833213967259
% es.EY (V/m) @ t=0.74
0.15154881991657643
% es.EZ (V/m) @ t=0.74
0.9729947324243047
% es.tEX (V/m) @ t=0.74
2.406833213967257
% es.tEY (V/m) @ t=0.74
0
% es.tEZ (V/m) @ t=0.74
0.9729947324242989
% es.Ex (V/m) @ t=0.74
2.406833213967259
% es.Ey (V/m) @ t=0.74
0.15154881991657643
% es.Ez (V/m) @ t=0.74
0.9729947324243047
% es.tEx (V/m) @ t=0.74
2.406833213967257
% es.tEy (V/m) @ t=0.74
0
% es.tEz (V/m) @ t=0.74
0.9729947324242989
% V (V) @ t=0.74
0.012991297862736255
% es.normE (V/m) @ t=0.76
2.627452920352791
% es.EX (V/m) @ t=0.76
2.428109734812989
% es.EY (V/m) @ t=0.76
0.15288851206052856
% es.EZ (V/m) @ t=0.76
0.9815960338276146
% es.tEX (V/m) @ t=0.76
2.428109734812983
% es.tEY (V/m) @ t=0.76
0
% es.tEZ (V/m) @ t=0.76
0.9815960338276195
% es.Ex (V/m) @ t=0.76
2.428109734812989
% es.Ey (V/m) @ t=0.76
0.15288851206052856
% es.Ez (V/m) @ t=0.76
0.9815960338276146
% es.tEx (V/m) @ t=0.76
2.428109734812983
% es.tEy (V/m) @ t=0.76
0
% es.tEz (V/m) @ t=0.76
0.9815960338276195
% V (V) @ t=0.76
0.013106142454077999
% es.normE (V/m) @ t=0.78
2.6504761961068573
% es.EX (V/m) @ t=0.78
2.4493862556587
% es.EY (V/m) @ t=0.78
0.15422820420445238
% es.EZ (V/m) @ t=0.78
0.9901973352309437
% es.tEX (V/m) @ t=0.78
2.449386255658709
% es.tEY (V/m) @ t=0.78
0
% es.tEZ (V/m) @ t=0.78
0.9901973352309428
% es.Ex (V/m) @ t=0.78
2.4493862556587
% es.Ey (V/m) @ t=0.78
0.15422820420445238
% es.Ez (V/m) @ t=0.78
0.9901973352309437
% es.tEx (V/m) @ t=0.78
2.449386255658709
% es.tEy (V/m) @ t=0.78
0
% es.tEz (V/m) @ t=0.78
0.9901973352309428
% V (V) @ t=0.78
0.013220987045419743
% es.normE (V/m) @ t=0.8
2.674591772996867
% es.EX (V/m) @ t=0.8
2.471672200031028
% es.EY (V/m) @ t=0.8
0.1556314613623323
% es.EZ (V/m) @ t=0.8
0.9992067252655841
% es.tEX (V/m) @ t=0.8
2.47167220003103
% es.tEY (V/m) @ t=0.8
0
% es.tEZ (V/m) @ t=0.8
0.999206725265589
% es.Ex (V/m) @ t=0.8
2.471672200031028
% es.Ey (V/m) @ t=0.8
0.1556314613623323
% es.Ez (V/m) @ t=0.8
0.9992067252655841
% es.tEx (V/m) @ t=0.8
2.47167220003103
% es.tEy (V/m) @ t=0.8
0
% es.tEz (V/m) @ t=0.8
0.999206725265589
% V (V) @ t=0.8
0.013341279424869078
% es.normE (V/m) @ t=0.82
2.700235613611723
% es.EX (V/m) @ t=0.82
2.4953704521525237
% es.EY (V/m) @ t=0.82
0.15712365379805449
% es.EZ (V/m) @ t=0.82
1.008787081521243
% es.tEX (V/m) @ t=0.82
2.495370452152537
% es.tEY (V/m) @ t=0.82
0
% es.tEZ (V/m) @ t=0.82
1.0087870815212456
% es.Ex (V/m) @ t=0.82
2.4953704521525237
% es.Ey (V/m) @ t=0.82
0.15712365379805449
% es.Ez (V/m) @ t=0.82
1.008787081521243
% es.tEx (V/m) @ t=0.82
2.495370452152537
% es.tEy (V/m) @ t=0.82
0
% es.tEz (V/m) @ t=0.82
1.0087870815212456
% V (V) @ t=0.82
0.013469193930371059
% es.normE (V/m) @ t=0.84
2.7258794542265767
% es.EX (V/m) @ t=0.84
2.519068704274023
% es.EY (V/m) @ t=0.84
0.15861584623376246
% es.EZ (V/m) @ t=0.84
1.018367437776888
% es.tEX (V/m) @ t=0.84
2.5190687042740283
% es.tEY (V/m) @ t=0.84
0
% es.tEZ (V/m) @ t=0.84
1.018367437776889
% es.Ex (V/m) @ t=0.84
2.519068704274023
% es.Ey (V/m) @ t=0.84
0.15861584623376246
% es.Ez (V/m) @ t=0.84
1.018367437776888
% es.tEx (V/m) @ t=0.84
2.5190687042740283
% es.tEy (V/m) @ t=0.84
0
% es.tEz (V/m) @ t=0.84
1.018367437776889
% V (V) @ t=0.84
0.013597108435873041
% es.normE (V/m) @ t=0.86
2.751523294841421
% es.EX (V/m) @ t=0.86
2.542766956395514
% es.EY (V/m) @ t=0.86
0.16010803866948475
% es.EZ (V/m) @ t=0.86
1.0279477940325252
% es.tEX (V/m) @ t=0.86
2.542766956395509
% es.tEY (V/m) @ t=0.86
0
% es.tEZ (V/m) @ t=0.86
1.0279477940325306
% es.Ex (V/m) @ t=0.86
2.542766956395514
% es.Ey (V/m) @ t=0.86
0.16010803866948475
% es.Ez (V/m) @ t=0.86
1.0279477940325252
% es.tEx (V/m) @ t=0.86
2.542766956395509
% es.tEy (V/m) @ t=0.86
0
% es.tEz (V/m) @ t=0.86
1.0279477940325306
% V (V) @ t=0.86
0.013725022941375021
% es.normE (V/m) @ t=0.88
2.777167135456259
% es.EX (V/m) @ t=0.88
2.566465208517
% es.EY (V/m) @ t=0.88
0.1616002311051874
% es.EZ (V/m) @ t=0.88
1.0375281502881606
% es.tEX (V/m) @ t=0.88
2.5664652085169983
% es.tEY (V/m) @ t=0.88
0
% es.tEZ (V/m) @ t=0.88
1.0375281502881615
% es.Ex (V/m) @ t=0.88
2.566465208517
% es.Ey (V/m) @ t=0.88
0.1616002311051874
% es.Ez (V/m) @ t=0.88
1.0375281502881606
% es.tEx (V/m) @ t=0.88
2.5664652085169983
% es.tEy (V/m) @ t=0.88
0
% es.tEz (V/m) @ t=0.88
1.0375281502881615
% V (V) @ t=0.88
0.013852937446877
% es.normE (V/m) @ t=0.9
2.802810976071105
% es.EX (V/m) @ t=0.9
2.5901634606384922
% es.EY (V/m) @ t=0.9
0.1630924235408917
% es.EZ (V/m) @ t=0.9
1.0471085065437986
% es.tEX (V/m) @ t=0.9
2.5901634606384913
% es.tEY (V/m) @ t=0.9
0
% es.tEZ (V/m) @ t=0.9
1.0471085065437977
% es.Ex (V/m) @ t=0.9
2.5901634606384922
% es.Ey (V/m) @ t=0.9
0.1630924235408917
% es.Ez (V/m) @ t=0.9
1.0471085065437986
% es.tEx (V/m) @ t=0.9
2.5901634606384913
% es.tEy (V/m) @ t=0.9
0
% es.tEz (V/m) @ t=0.9
1.0471085065437977
% V (V) @ t=0.9
0.01398085195237898
% es.normE (V/m) @ t=0.92
2.828454816685958
% es.EX (V/m) @ t=0.92
2.613861712759988
% es.EY (V/m) @ t=0.92
0.16458461597659624
% es.EZ (V/m) @ t=0.92
1.0566888627994526
% es.tEX (V/m) @ t=0.92
2.613861712759986
% es.tEY (V/m) @ t=0.92
0
% es.tEZ (V/m) @ t=0.92
1.0566888627994517
% es.Ex (V/m) @ t=0.92
2.613861712759988
% es.Ey (V/m) @ t=0.92
0.16458461597659624
% es.Ez (V/m) @ t=0.92
1.0566888627994526
% es.tEx (V/m) @ t=0.92
2.613861712759986
% es.tEy (V/m) @ t=0.92
0
% es.tEz (V/m) @ t=0.92
1.0566888627994517
% V (V) @ t=0.92
0.014108766457880962
% es.normE (V/m) @ t=0.94
2.854098657300794
% es.EX (V/m) @ t=0.94
2.6375599648814667
% es.EY (V/m) @ t=0.94
0.16607680841231143
% es.EZ (V/m) @ t=0.94
1.0662692190550964
% es.tEX (V/m) @ t=0.94
2.6375599648814667
% es.tEY (V/m) @ t=0.94
0
% es.tEZ (V/m) @ t=0.94
1.0662692190550995
% es.Ex (V/m) @ t=0.94
2.6375599648814667
% es.Ey (V/m) @ t=0.94
0.16607680841231143
% es.Ez (V/m) @ t=0.94
1.0662692190550964
% es.tEx (V/m) @ t=0.94
2.6375599648814667
% es.tEy (V/m) @ t=0.94
0
% es.tEz (V/m) @ t=0.94
1.0662692190550995
% V (V) @ t=0.94
0.014236680963382944
% es.normE (V/m) @ t=0.96
2.8797424979156423
% es.EX (V/m) @ t=0.96
2.661258217002966
% es.EY (V/m) @ t=0.96
0.16756900084802817
% es.EZ (V/m) @ t=0.96
1.0758495753107233
% es.tEX (V/m) @ t=0.96
2.661258217002972
% es.tEY (V/m) @ t=0.96
0
% es.tEZ (V/m) @ t=0.96
1.0758495753107207
% es.Ex (V/m) @ t=0.96
2.661258217002966
% es.Ey (V/m) @ t=0.96
0.16756900084802817
% es.Ez (V/m) @ t=0.96
1.0758495753107233
% es.tEx (V/m) @ t=0.96
2.661258217002972
% es.tEy (V/m) @ t=0.96
0
% es.tEz (V/m) @ t=0.96
1.0758495753107207
% V (V) @ t=0.96
0.014364595468884921
% es.normE (V/m) @ t=0.98
2.9053863385304917
% es.EX (V/m) @ t=0.98
2.6849564691244545
% es.EY (V/m) @ t=0.98
0.16906119328372382
% es.EZ (V/m) @ t=0.98
1.08542993156638
% es.tEX (V/m) @ t=0.98
2.684956469124451
% es.tEY (V/m) @ t=0.98
0
% es.tEZ (V/m) @ t=0.98
1.085429931566373
% es.Ex (V/m) @ t=0.98
2.6849564691244545
% es.Ey (V/m) @ t=0.98
0.16906119328372382
% es.Ez (V/m) @ t=0.98
1.08542993156638
% es.tEx (V/m) @ t=0.98
2.684956469124451
% es.tEy (V/m) @ t=0.98
0
% es.tEz (V/m) @ t=0.98
1.085429931566373
% V (V) @ t=0.98
0.014492509974386902
% es.normE (V/m) @ t=1
2.931030179145334
% es.EX (V/m) @ t=1
2.7086547212459475
% es.EY (V/m) @ t=1
0.17055338571943346
% es.EZ (V/m) @ t=1
1.0950102878220074
% es.tEX (V/m) @ t=1
2.70865472124596
% es.tEY (V/m) @ t=1
0
% es.tEZ (V/m) @ t=1
1.0950102878220092
% es.Ex (V/m) @ t=1
2.7086547212459475
% es.Ey (V/m) @ t=1
0.17055338571943346
% es.Ez (V/m) @ t=1
1.0950102878220074
% es.tEx (V/m) @ t=1
2.70865472124596
% es.tEy (V/m) @ t=1
0
% es.tEz (V/m) @ t=1
1.0950102878220092
% V (V) @ t=1
0.014620424479888882
% es.normE (V/m) @ t=1.02
2.9566740197601806
% es.EX (V/m) @ t=1.02
2.7323529733674405
% es.EY (V/m) @ t=1.02
0.17204557815514154
% es.EZ (V/m) @ t=1.02
1.1045906440776454
% es.tEX (V/m) @ t=1.02
2.7323529733674548
% es.tEY (V/m) @ t=1.02
0
% es.tEZ (V/m) @ t=1.02
1.1045906440776525
% es.Ex (V/m) @ t=1.02
2.7323529733674405
% es.Ey (V/m) @ t=1.02
0.17204557815514154
% es.Ez (V/m) @ t=1.02
1.1045906440776454
% es.tEx (V/m) @ t=1.02
2.7323529733674548
% es.tEy (V/m) @ t=1.02
0
% es.tEz (V/m) @ t=1.02
1.1045906440776525
% V (V) @ t=1.02
0.014748338985390859
% es.normE (V/m) @ t=1.04
2.9823178603750327
% es.EX (V/m) @ t=1.04
2.7560512254889318
% es.EY (V/m) @ t=1.04
0.17353777059086006
% es.EZ (V/m) @ t=1.04
1.1141710003333003
% es.tEX (V/m) @ t=1.04
2.75605122548893
% es.tEY (V/m) @ t=1.04
0
% es.tEZ (V/m) @ t=1.04
1.114171000333302
% es.Ex (V/m) @ t=1.04
2.7560512254889318
% es.Ey (V/m) @ t=1.04
0.17353777059086006
% es.Ez (V/m) @ t=1.04
1.1141710003333003
% es.tEx (V/m) @ t=1.04
2.75605122548893
% es.tEy (V/m) @ t=1.04
0
% es.tEz (V/m) @ t=1.04
1.114171000333302