% Model:              1 neuron.mph
% Version:            COMSOL 6.1.0.252
% Date:               Mar 18 2023, 13:27
% Dimension:          0
% Nodes:              14017
% Expressions:        14017
% Description:        Electric field norm, Electric field, X component, Electric field, Y component, Electric field, Z component, Tangential electric field, X component, Tangential electric field, Y component, Tangential electric field, Z component, Electric field, x component, Electric field, y component, Electric field, z component, Tangential electric field, x component, Tangential electric field, y component, Tangential electric field, z component, Electric potential
% Length unit:        mm
% x
1
% y
12.2
% z
1.33
% es.normE (V/m) @ t=0
2.2004344545921084
% es.EX (V/m) @ t=0
2.0334896610582263
% es.EY (V/m) @ t=0
0.128040717312784
% es.EZ (V/m) @ t=0
0.8220633285920036
% es.tEX (V/m) @ t=0
2.03348966105823
% es.tEY (V/m) @ t=0
0
% es.tEZ (V/m) @ t=0
0.8220633285920003
% es.Ex (V/m) @ t=0
2.0334896610582263
% es.Ey (V/m) @ t=0
0.128040717312784
% es.Ez (V/m) @ t=0
0.8220633285920036
% es.tEx (V/m) @ t=0
2.03348966105823
% es.tEy (V/m) @ t=0
0
% es.tEz (V/m) @ t=0
0.8220633285920003
% V (V) @ t=0
0.010976131071970143
% es.normE (V/m) @ t=0.02
1.9005385210723702
% es.EX (V/m) @ t=0.02
1.7563465363854833
% es.EY (V/m) @ t=0.02
0.11059012269474822
% es.EZ (V/m) @ t=0.02
0.7100247952833207
% es.tEX (V/m) @ t=0.02
1.7563465363854878
% es.tEY (V/m) @ t=0.02
0
% es.tEZ (V/m) @ t=0.02
0.7100247952833154
% es.Ex (V/m) @ t=0.02
1.7563465363854833
% es.Ey (V/m) @ t=0.02
0.11059012269474822
% es.Ez (V/m) @ t=0.02
0.7100247952833207
% es.tEx (V/m) @ t=0.02
1.7563465363854878
% es.tEy (V/m) @ t=0.02
0
% es.tEz (V/m) @ t=0.02
0.7100247952833154
% V (V) @ t=0.02
0.00948020053289473
% es.normE (V/m) @ t=0.04
1.918022734648994
% es.EX (V/m) @ t=0.04
1.7725042398492699
% es.EY (V/m) @ t=0.04
0.1116075090057157
% es.EZ (V/m) @ t=0.04
0.7165567467705556
% es.tEX (V/m) @ t=0.04
1.7725042398492725
% es.tEY (V/m) @ t=0.04
0
% es.tEZ (V/m) @ t=0.04
0.7165567467705571
% es.Ex (V/m) @ t=0.04
1.7725042398492699
% es.Ey (V/m) @ t=0.04
0.1116075090057157
% es.Ez (V/m) @ t=0.04
0.7165567467705556
% es.tEx (V/m) @ t=0.04
1.7725042398492725
% es.tEy (V/m) @ t=0.04
0
% es.tEz (V/m) @ t=0.04
0.7165567467705571
% V (V) @ t=0.04
0.009567414673791484
% es.normE (V/m) @ t=0.06
1.9356455698749873
% es.EX (V/m) @ t=0.06
1.7887900483321353
% es.EY (V/m) @ t=0.06
0.11263295953358332
% es.EZ (V/m) @ t=0.06
0.7231404850613419
% es.tEX (V/m) @ t=0.06
1.7887900483321353
% es.tEY (V/m) @ t=0.06
0
% es.tEZ (V/m) @ t=0.06
0.7231404850613425
% es.Ex (V/m) @ t=0.06
1.7887900483321353
% es.Ey (V/m) @ t=0.06
0.11263295953358332
% es.Ez (V/m) @ t=0.06
0.7231404850613419
% es.tEx (V/m) @ t=0.06
1.7887900483321353
% es.tEy (V/m) @ t=0.06
0
% es.tEz (V/m) @ t=0.06
0.7231404850613425
% V (V) @ t=0.06
0.009655320348245799
% es.normE (V/m) @ t=0.08
1.9535813303214866
% es.EX (V/m) @ t=0.08
1.805365040413058
% es.EY (V/m) @ t=0.08
0.1136766200881002
% es.EZ (V/m) @ t=0.08
0.7298411301903316
% es.tEX (V/m) @ t=0.08
1.805365040413065
% es.tEY (V/m) @ t=0.08
0
% es.tEZ (V/m) @ t=0.08
0.7298411301903354
% es.Ex (V/m) @ t=0.08
1.805365040413058
% es.Ey (V/m) @ t=0.08
0.1136766200881002
% es.Ez (V/m) @ t=0.08
0.7298411301903316
% es.tEx (V/m) @ t=0.08
1.805365040413065
% es.tEy (V/m) @ t=0.08
0
% es.tEz (V/m) @ t=0.08
0.7298411301903354
% V (V) @ t=0.08
0.009744786903327415
% es.normE (V/m) @ t=0.1
1.971643204325126
% es.EX (V/m) @ t=0.1
1.8220565778211926
% es.EY (V/m) @ t=0.1
0.11472761955647792
% es.EZ (V/m) @ t=0.1
0.7365888905284987
% es.tEX (V/m) @ t=0.1
1.8220565778211864
% es.tEY (V/m) @ t=0.1
0
% es.tEZ (V/m) @ t=0.1
0.7365888905284961
% es.Ex (V/m) @ t=0.1
1.8220565778211926
% es.Ey (V/m) @ t=0.1
0.11472761955647792
% es.Ez (V/m) @ t=0.1
0.7365888905284987
% es.tEx (V/m) @ t=0.1
1.8220565778211864
% es.tEy (V/m) @ t=0.1
0
% es.tEz (V/m) @ t=0.1
0.7365888905284961
% V (V) @ t=0.1
0.009834882516711932
% es.normE (V/m) @ t=0.12
1.989705078328754
% es.EX (V/m) @ t=0.12
1.8387481152293175
% es.EY (V/m) @ t=0.12
0.11577861902485309
% es.EZ (V/m) @ t=0.12
0.7433366508666588
% es.tEX (V/m) @ t=0.12
1.8387481152293237
% es.tEY (V/m) @ t=0.12
0
% es.tEZ (V/m) @ t=0.12
0.7433366508666568
% es.Ex (V/m) @ t=0.12
1.8387481152293175
% es.Ey (V/m) @ t=0.12
0.11577861902485309
% es.Ez (V/m) @ t=0.12
0.7433366508666588
% es.tEx (V/m) @ t=0.12
1.8387481152293237
% es.tEy (V/m) @ t=0.12
0
% es.tEz (V/m) @ t=0.12
0.7433366508666568
% V (V) @ t=0.12
0.009924978130096448
% es.normE (V/m) @ t=0.14
2.0081702989772663
% es.EX (V/m) @ t=0.14
1.8558123978783438
% es.EY (V/m) @ t=0.14
0.11685308830776897
% es.EZ (V/m) @ t=0.14
0.7502350977822045
% es.tEX (V/m) @ t=0.14
1.8558123978783367
% es.tEY (V/m) @ t=0.14
0
% es.tEZ (V/m) @ t=0.14
0.7502350977822045
% es.Ex (V/m) @ t=0.14
1.8558123978783438
% es.Ey (V/m) @ t=0.14
0.11685308830776897
% es.Ez (V/m) @ t=0.14
0.7502350977822045
% es.tEx (V/m) @ t=0.14
1.8558123978783367
% es.tEy (V/m) @ t=0.14
0
% es.tEz (V/m) @ t=0.14
0.7502350977822045
% V (V) @ t=0.14
0.010017085718747881
% es.normE (V/m) @ t=0.16
2.027159185033825
% es.EX (V/m) @ t=0.16
1.8733606160978153
% es.EY (V/m) @ t=0.16
0.11795802847759274
% es.EZ (V/m) @ t=0.16
0.7573291812526151
% es.tEX (V/m) @ t=0.16
1.8733606160978127
% es.tEY (V/m) @ t=0.16
0
% es.tEZ (V/m) @ t=0.16
0.7573291812526124
% es.Ex (V/m) @ t=0.16
1.8733606160978153
% es.Ey (V/m) @ t=0.16
0.11795802847759274
% es.Ez (V/m) @ t=0.16
0.7573291812526151
% es.tEx (V/m) @ t=0.16
1.8733606160978127
% es.tEy (V/m) @ t=0.16
0
% es.tEz (V/m) @ t=0.16
0.7573291812526124
% V (V) @ t=0.16
0.010111805457177894
% es.normE (V/m) @ t=0.18
2.046148071090389
% es.EX (V/m) @ t=0.18
1.8909088343172877
% es.EY (V/m) @ t=0.18
0.11906296864743515
% es.EZ (V/m) @ t=0.18
0.7644232647230345
% es.tEX (V/m) @ t=0.18
1.8909088343172922
% es.tEY (V/m) @ t=0.18
0
% es.tEZ (V/m) @ t=0.18
0.7644232647230345
% es.Ex (V/m) @ t=0.18
1.8909088343172877
% es.Ey (V/m) @ t=0.18
0.11906296864743515
% es.Ez (V/m) @ t=0.18
0.7644232647230345
% es.tEx (V/m) @ t=0.18
1.8909088343172922
% es.tEy (V/m) @ t=0.18
0
% es.tEz (V/m) @ t=0.18
0.7644232647230345
% V (V) @ t=0.18
0.010206525195607906
% es.normE (V/m) @ t=0.2
2.0651369571469536
% es.EX (V/m) @ t=0.2
1.9084570525367726
% es.EY (V/m) @ t=0.2
0.12016790881726147
% es.EZ (V/m) @ t=0.2
0.7715173481934288
% es.tEX (V/m) @ t=0.2
1.90845705253677
% es.tEY (V/m) @ t=0.2
0
% es.tEZ (V/m) @ t=0.2
0.7715173481934268
% es.Ex (V/m) @ t=0.2
1.9084570525367726
% es.Ey (V/m) @ t=0.2
0.12016790881726147
% es.Ez (V/m) @ t=0.2
0.7715173481934288
% es.tEx (V/m) @ t=0.2
1.90845705253677
% es.tEy (V/m) @ t=0.2
0
% es.tEz (V/m) @ t=0.2
0.7715173481934268
% V (V) @ t=0.2
0.01030124493403792
% es.normE (V/m) @ t=0.22
2.0841258432035126
% es.EX (V/m) @ t=0.22
1.9260052707562414
% es.EY (V/m) @ t=0.22
0.12127284898708612
% es.EZ (V/m) @ t=0.22
0.7786114316638464
% es.tEX (V/m) @ t=0.22
1.9260052707562405
% es.tEY (V/m) @ t=0.22
0
% es.tEZ (V/m) @ t=0.22
0.7786114316638488
% es.Ex (V/m) @ t=0.22
1.9260052707562414
% es.Ey (V/m) @ t=0.22
0.12127284898708612
% es.Ez (V/m) @ t=0.22
0.7786114316638464
% es.tEx (V/m) @ t=0.22
1.9260052707562405
% es.tEy (V/m) @ t=0.22
0
% es.tEz (V/m) @ t=0.22
0.7786114316638488
% V (V) @ t=0.22
0.010395964672467934
% es.normE (V/m) @ t=0.24
2.103114729260082
% es.EX (V/m) @ t=0.24
1.9435534889757236
% es.EY (V/m) @ t=0.24
0.12237778915692465
% es.EZ (V/m) @ t=0.24
0.7857055151342582
% es.tEX (V/m) @ t=0.24
1.943553488975727
% es.tEY (V/m) @ t=0.24
0
% es.tEZ (V/m) @ t=0.24
0.7857055151342576
% es.Ex (V/m) @ t=0.24
1.9435534889757236
% es.Ey (V/m) @ t=0.24
0.12237778915692465
% es.Ez (V/m) @ t=0.24
0.7857055151342582
% es.tEx (V/m) @ t=0.24
1.943553488975727
% es.tEy (V/m) @ t=0.24
0
% es.tEz (V/m) @ t=0.24
0.7857055151342576
% V (V) @ t=0.24
0.010490684410897946
% es.normE (V/m) @ t=0.26
2.1221036153166466
% es.EX (V/m) @ t=0.26
1.9611017071951986
% es.EY (V/m) @ t=0.26
0.1234827293267502
% es.EZ (V/m) @ t=0.26
0.7927995986046759
% es.tEX (V/m) @ t=0.26
1.9611017071951995
% es.tEY (V/m) @ t=0.26
0
% es.tEZ (V/m) @ t=0.26
0.792799598604669
% es.Ex (V/m) @ t=0.26
1.9611017071951986
% es.Ey (V/m) @ t=0.26
0.1234827293267502
% es.Ez (V/m) @ t=0.26
0.7927995986046759
% es.tEx (V/m) @ t=0.26
1.9611017071951995
% es.tEy (V/m) @ t=0.26
0
% es.tEz (V/m) @ t=0.26
0.792799598604669
% V (V) @ t=0.26
0.010585404149327961
% es.normE (V/m) @ t=0.28
2.1429187140967354
% es.EX (V/m) @ t=0.28
1.980337591897757
% es.EY (V/m) @ t=0.28
0.12469390949110859
% es.EZ (V/m) @ t=0.28
0.800575923862598
% es.tEX (V/m) @ t=0.28
1.9803375918977615
% es.tEY (V/m) @ t=0.28
0
% es.tEZ (V/m) @ t=0.28
0.8005759238625996
% es.Ex (V/m) @ t=0.28
1.980337591897757
% es.Ey (V/m) @ t=0.28
0.12469390949110859
% es.Ez (V/m) @ t=0.28
0.800575923862598
% es.tEx (V/m) @ t=0.28
1.9803375918977615
% es.tEy (V/m) @ t=0.28
0
% es.tEz (V/m) @ t=0.28
0.8005759238625996
% V (V) @ t=0.28
0.010689234282972625
% es.normE (V/m) @ t=0.3
2.1639832889483293
% es.EX (V/m) @ t=0.3
1.999804026086017
% es.EY (V/m) @ t=0.3
0.12591960293540372
% es.EZ (V/m) @ t=0.3
0.8084454491069268
% es.tEX (V/m) @ t=0.3
1.999804026086025
% es.tEY (V/m) @ t=0.3
0
% es.tEZ (V/m) @ t=0.3
0.8084454491069217
% es.Ex (V/m) @ t=0.3
1.999804026086017
% es.Ey (V/m) @ t=0.3
0.12591960293540372
% es.Ez (V/m) @ t=0.3
0.8084454491069268
% es.tEx (V/m) @ t=0.3
1.999804026086025
% es.tEy (V/m) @ t=0.3
0
% es.tEz (V/m) @ t=0.3
0.8084454491069217
% V (V) @ t=0.3
0.01079430897349646
% es.normE (V/m) @ t=0.32
2.1850478637999187
% es.EX (V/m) @ t=0.32
2.019270460274286
% es.EY (V/m) @ t=0.32
0.1271452963796741
% es.EZ (V/m) @ t=0.32
0.8163149743512224
% es.tEX (V/m) @ t=0.32
2.019270460274278
% es.tEY (V/m) @ t=0.32
0
% es.tEZ (V/m) @ t=0.32
0.8163149743512141
% es.Ex (V/m) @ t=0.32
2.019270460274286
% es.Ey (V/m) @ t=0.32
0.1271452963796741
% es.Ez (V/m) @ t=0.32
0.8163149743512224
% es.tEx (V/m) @ t=0.32
2.019270460274278
% es.tEy (V/m) @ t=0.32
0
% es.tEz (V/m) @ t=0.32
0.8163149743512141
% V (V) @ t=0.32
0.010899383664020292
% es.normE (V/m) @ t=0.34
2.2061124386515187
% es.EX (V/m) @ t=0.34
2.0387368944625575
% es.EY (V/m) @ t=0.34
0.12837098982397754
% es.EZ (V/m) @ t=0.34
0.8241844995955334
% es.tEX (V/m) @ t=0.34
2.0387368944625717
% es.tEY (V/m) @ t=0.34
0
% es.tEZ (V/m) @ t=0.34
0.8241844995955319
% es.Ex (V/m) @ t=0.34
2.0387368944625575
% es.Ey (V/m) @ t=0.34
0.12837098982397754
% es.Ez (V/m) @ t=0.34
0.8241844995955334
% es.tEx (V/m) @ t=0.34
2.0387368944625717
% es.tEy (V/m) @ t=0.34
0
% es.tEz (V/m) @ t=0.34
0.8241844995955319
% V (V) @ t=0.34
0.01100445835454413
% es.normE (V/m) @ t=0.36
2.2271770135031073
% es.EX (V/m) @ t=0.36
2.0582033286508183
% es.EY (V/m) @ t=0.36
0.12959668326826135
% es.EZ (V/m) @ t=0.36
0.8320540248398383
% es.tEX (V/m) @ t=0.36
2.0582033286508157
% es.tEY (V/m) @ t=0.36
0
% es.tEZ (V/m) @ t=0.36
0.8320540248398363
% es.Ex (V/m) @ t=0.36
2.0582033286508183
% es.Ey (V/m) @ t=0.36
0.12959668326826135
% es.Ez (V/m) @ t=0.36
0.8320540248398383
% es.tEx (V/m) @ t=0.36
2.0582033286508157
% es.tEy (V/m) @ t=0.36
0
% es.tEz (V/m) @ t=0.36
0.8320540248398363
% V (V) @ t=0.36
0.01110953304506796
% es.normE (V/m) @ t=0.38
2.2482415883547118
% es.EX (V/m) @ t=0.38
2.0776697628390846
% es.EY (V/m) @ t=0.38
0.13082237671254326
% es.EZ (V/m) @ t=0.38
0.839923550084176
% es.tEX (V/m) @ t=0.38
2.077669762839095
% es.tEY (V/m) @ t=0.38
0
% es.tEZ (V/m) @ t=0.38
0.8399235500841788
% es.Ex (V/m) @ t=0.38
2.0776697628390846
% es.Ey (V/m) @ t=0.38
0.13082237671254326
% es.Ez (V/m) @ t=0.38
0.839923550084176
% es.tEx (V/m) @ t=0.38
2.077669762839095
% es.tEy (V/m) @ t=0.38
0
% es.tEz (V/m) @ t=0.38
0.8399235500841788
% V (V) @ t=0.38
0.011214607735591794
% es.normE (V/m) @ t=0.4
2.2693061632063047
% es.EX (V/m) @ t=0.4
2.097136197027349
% es.EY (V/m) @ t=0.4
0.13204807015684306
% es.EZ (V/m) @ t=0.4
0.8477930753284777
% es.tEX (V/m) @ t=0.4
2.097136197027348
% es.tEY (V/m) @ t=0.4
0
% es.tEZ (V/m) @ t=0.4
0.847793075328477
% es.Ex (V/m) @ t=0.4
2.097136197027349
% es.Ey (V/m) @ t=0.4
0.13204807015684306
% es.Ez (V/m) @ t=0.4
0.8477930753284777
% es.tEx (V/m) @ t=0.4
2.097136197027348
% es.tEy (V/m) @ t=0.4
0
% es.tEz (V/m) @ t=0.4
0.847793075328477
% V (V) @ t=0.4
0.011319682426115626
% es.normE (V/m) @ t=0.42
2.2903707380579177
% es.EX (V/m) @ t=0.42
2.1166026312156294
% es.EY (V/m) @ t=0.42
0.13327376360111243
% es.EZ (V/m) @ t=0.42
0.8556626005728003
% es.tEX (V/m) @ t=0.42
2.1166026312156223
% es.tEY (V/m) @ t=0.42
0
% es.tEZ (V/m) @ t=0.42
0.8556626005727956
% es.Ex (V/m) @ t=0.42
2.1166026312156294
% es.Ey (V/m) @ t=0.42
0.13327376360111243
% es.Ez (V/m) @ t=0.42
0.8556626005728003
% es.tEx (V/m) @ t=0.42
2.1166026312156223
% es.tEy (V/m) @ t=0.42
0
% es.tEz (V/m) @ t=0.42
0.8556626005727956
% V (V) @ t=0.42
0.011424757116639463
% es.normE (V/m) @ t=0.44
2.3114353129094933
% es.EX (V/m) @ t=0.44
2.136069065403876
% es.EY (V/m) @ t=0.44
0.134499457045407
% es.EZ (V/m) @ t=0.44
0.8635321258170972
% es.tEX (V/m) @ t=0.44
2.1360690654038788
% es.tEY (V/m) @ t=0.44
0
% es.tEZ (V/m) @ t=0.44
0.863532125817092
% es.Ex (V/m) @ t=0.44
2.136069065403876
% es.Ey (V/m) @ t=0.44
0.134499457045407
% es.Ez (V/m) @ t=0.44
0.8635321258170972
% es.tEx (V/m) @ t=0.44
2.1360690654038788
% es.tEy (V/m) @ t=0.44
0
% es.tEz (V/m) @ t=0.44
0.863532125817092
% V (V) @ t=0.44
0.011529831807163295
% es.normE (V/m) @ t=0.46
2.3324998877610943
% es.EX (V/m) @ t=0.46
2.155535499592144
% es.EY (V/m) @ t=0.46
0.1357251504896907
% es.EZ (V/m) @ t=0.46
0.871401651061414
% es.tEX (V/m) @ t=0.46
2.1555354995921405
% es.tEY (V/m) @ t=0.46
0
% es.tEZ (V/m) @ t=0.46
0.8714016510614129
% es.Ex (V/m) @ t=0.46
2.155535499592144
% es.Ey (V/m) @ t=0.46
0.1357251504896907
% es.Ez (V/m) @ t=0.46
0.871401651061414
% es.tEx (V/m) @ t=0.46
2.1555354995921405
% es.tEy (V/m) @ t=0.46
0
% es.tEz (V/m) @ t=0.46
0.8714016510614129
% V (V) @ t=0.46
0.01163490649768713
% es.normE (V/m) @ t=0.48
2.353564462612694
% es.EX (V/m) @ t=0.48
2.1750019337804076
% es.EY (V/m) @ t=0.48
0.13695084393398138
% es.EZ (V/m) @ t=0.48
0.8792711763057277
% es.tEX (V/m) @ t=0.48
2.1750019337804147
% es.tEY (V/m) @ t=0.48
0
% es.tEZ (V/m) @ t=0.48
0.8792711763057226
% es.Ex (V/m) @ t=0.48
2.1750019337804076
% es.Ey (V/m) @ t=0.48
0.13695084393398138
% es.Ez (V/m) @ t=0.48
0.8792711763057277
% es.tEx (V/m) @ t=0.48
2.1750019337804147
% es.tEy (V/m) @ t=0.48
0
% es.tEz (V/m) @ t=0.48
0.8792711763057226
% V (V) @ t=0.48
0.011739981188210962
% es.normE (V/m) @ t=0.5
2.374629037464305
% es.EX (V/m) @ t=0.5
2.194468367968688
% es.EY (V/m) @ t=0.5
0.1381765373782724
% es.EZ (V/m) @ t=0.5
0.8871407015500374
% es.tEX (V/m) @ t=0.5
2.1944683679686836
% es.tEY (V/m) @ t=0.5
0
% es.tEZ (V/m) @ t=0.5
0.8871407015500434
% es.Ex (V/m) @ t=0.5
2.194468367968688
% es.Ey (V/m) @ t=0.5
0.1381765373782724
% es.Ez (V/m) @ t=0.5
0.8871407015500374
% es.tEx (V/m) @ t=0.5
2.1944683679686836
% es.tEy (V/m) @ t=0.5
0
% es.tEz (V/m) @ t=0.5
0.8871407015500434
% V (V) @ t=0.5
0.011845055878734799
% es.normE (V/m) @ t=0.52
2.3956936123159016
% es.EX (V/m) @ t=0.52
2.2139348021569463
% es.EY (V/m) @ t=0.52
0.13940223082255976
% es.EZ (V/m) @ t=0.52
0.8950102267943565
% es.tEX (V/m) @ t=0.52
2.213934802156949
% es.tEY (V/m) @ t=0.52
0
% es.tEZ (V/m) @ t=0.52
0.8950102267943545
% es.Ex (V/m) @ t=0.52
2.2139348021569463
% es.Ey (V/m) @ t=0.52
0.13940223082255976
% es.Ez (V/m) @ t=0.52
0.8950102267943565
% es.tEx (V/m) @ t=0.52
2.213934802156949
% es.tEy (V/m) @ t=0.52
0
% es.tEz (V/m) @ t=0.52
0.8950102267943545
% V (V) @ t=0.52
0.01195013056925863
% es.normE (V/m) @ t=0.54
2.4185590029888755
% es.EX (V/m) @ t=0.54
2.2350654242425696
% es.EY (V/m) @ t=0.54
0.14073271720649783
% es.EZ (V/m) @ t=0.54
0.903552525485966
% es.tEX (V/m) @ t=0.54
2.235065424242567
% es.tEY (V/m) @ t=0.54
0
% es.tEZ (V/m) @ t=0.54
0.9035525254859702
% es.Ex (V/m) @ t=0.54
2.2350654242425696
% es.Ey (V/m) @ t=0.54
0.14073271720649783
% es.Ez (V/m) @ t=0.54
0.903552525485966
% es.tEx (V/m) @ t=0.54
2.235065424242567
% es.tEy (V/m) @ t=0.54
0
% es.tEz (V/m) @ t=0.54
0.9035525254859702
% V (V) @ t=0.54
0.012064187777308367
% es.normE (V/m) @ t=0.56
2.4419646608043424
% es.EX (V/m) @ t=0.56
2.256695323394279
% es.EY (V/m) @ t=0.56
0.14209464277558004
% es.EZ (V/m) @ t=0.56
0.9122966645788335
% es.tEX (V/m) @ t=0.56
2.2566953233942826
% es.tEY (V/m) @ t=0.56
0
% es.tEZ (V/m) @ t=0.56
0.9122966645788324
% es.Ex (V/m) @ t=0.56
2.256695323394279
% es.Ey (V/m) @ t=0.56
0.14209464277558004
% es.Ez (V/m) @ t=0.56
0.9122966645788335
% es.tEx (V/m) @ t=0.56
2.2566953233942826
% es.tEy (V/m) @ t=0.56
0
% es.tEz (V/m) @ t=0.56
0.9122966645788324
% V (V) @ t=0.56
0.012180939852328047
% es.normE (V/m) @ t=0.58
2.465370318619798
% es.EX (V/m) @ t=0.58
2.2783252225459814
% es.EY (V/m) @ t=0.58
0.14345656834468878
% es.EZ (V/m) @ t=0.58
0.9210408036716817
% es.tEX (V/m) @ t=0.58
2.2783252225459822
% es.tEY (V/m) @ t=0.58
0
% es.tEZ (V/m) @ t=0.58
0.9210408036716782
% es.Ex (V/m) @ t=0.58
2.2783252225459814
% es.Ey (V/m) @ t=0.58
0.14345656834468878
% es.Ez (V/m) @ t=0.58
0.9210408036716817
% es.tEx (V/m) @ t=0.58
2.2783252225459822
% es.tEy (V/m) @ t=0.58
0
% es.tEz (V/m) @ t=0.58
0.9210408036716782
% V (V) @ t=0.58
0.012297691927347719
% es.normE (V/m) @ t=0.6
2.4887759764352335
% es.EX (V/m) @ t=0.6
2.2999551216976633
% es.EY (V/m) @ t=0.6
0.14481849391378887
% es.EZ (V/m) @ t=0.6
0.9297849427645266
% es.tEX (V/m) @ t=0.6
2.2999551216976677
% es.tEY (V/m) @ t=0.6
0
% es.tEZ (V/m) @ t=0.6
0.9297849427645302
% es.Ex (V/m) @ t=0.6
2.2999551216976633
% es.Ey (V/m) @ t=0.6
0.14481849391378887
% es.Ez (V/m) @ t=0.6
0.9297849427645266
% es.tEx (V/m) @ t=0.6
2.2999551216976677
% es.tEy (V/m) @ t=0.6
0
% es.tEz (V/m) @ t=0.6
0.9297849427645302
% V (V) @ t=0.6
0.012414444002367396
% es.normE (V/m) @ t=0.62
2.5121816342507097
% es.EX (V/m) @ t=0.62
2.321585020849385
% es.EY (V/m) @ t=0.62
0.14618041948287908
% es.EZ (V/m) @ t=0.62
0.9385290818573822
% es.tEX (V/m) @ t=0.62
2.321585020849387
% es.tEY (V/m) @ t=0.62
0
% es.tEZ (V/m) @ t=0.62
0.938529081857383
% es.Ex (V/m) @ t=0.62
2.321585020849385
% es.Ey (V/m) @ t=0.62
0.14618041948287908
% es.Ez (V/m) @ t=0.62
0.9385290818573822
% es.tEx (V/m) @ t=0.62
2.321585020849387
% es.tEy (V/m) @ t=0.62
0
% es.tEz (V/m) @ t=0.62
0.938529081857383
% V (V) @ t=0.62
0.012531196077387072
% es.normE (V/m) @ t=0.64
2.5355872920661655
% es.EX (V/m) @ t=0.64
2.3432149200010937
% es.EY (V/m) @ t=0.64
0.14754234505196484
% es.EZ (V/m) @ t=0.64
0.9472732209502168
% es.tEX (V/m) @ t=0.64
2.343214920001092
% es.tEY (V/m) @ t=0.64
0
% es.tEZ (V/m) @ t=0.64
0.9472732209502226
% es.Ex (V/m) @ t=0.64
2.3432149200010937
% es.Ey (V/m) @ t=0.64
0.14754234505196484
% es.Ez (V/m) @ t=0.64
0.9472732209502168
% es.tEx (V/m) @ t=0.64
2.343214920001092
% es.tEy (V/m) @ t=0.64
0
% es.tEz (V/m) @ t=0.64
0.9472732209502226
% V (V) @ t=0.64
0.01264794815240675
% es.normE (V/m) @ t=0.66
2.55899294988163
% es.EX (V/m) @ t=0.66
2.364844819152804
% es.EY (V/m) @ t=0.66
0.14890427062106826
% es.EZ (V/m) @ t=0.66
0.9560173600430684
% es.tEX (V/m) @ t=0.66
2.3648448191528093
% es.tEY (V/m) @ t=0.66
0
% es.tEZ (V/m) @ t=0.66
0.9560173600430799
% es.Ex (V/m) @ t=0.66
2.364844819152804
% es.Ey (V/m) @ t=0.66
0.14890427062106826
% es.Ez (V/m) @ t=0.66
0.9560173600430684
% es.tEx (V/m) @ t=0.66
2.3648448191528093
% es.tEy (V/m) @ t=0.66
0
% es.tEz (V/m) @ t=0.66
0.9560173600430799
% V (V) @ t=0.66
0.012764700227426424
% es.normE (V/m) @ t=0.68
2.5823986076970984
% es.EX (V/m) @ t=0.68
2.3864747183045107
% es.EY (V/m) @ t=0.68
0.15026619619016368
% es.EZ (V/m) @ t=0.68
0.964761499135939
% es.tEX (V/m) @ t=0.68
2.3864747183045036
% es.tEY (V/m) @ t=0.68
0
% es.tEZ (V/m) @ t=0.68
0.9647614991359417
% es.Ex (V/m) @ t=0.68
2.3864747183045107
% es.Ey (V/m) @ t=0.68
0.15026619619016368
% es.Ez (V/m) @ t=0.68
0.964761499135939
% es.tEx (V/m) @ t=0.68
2.3864747183045036
% es.tEy (V/m) @ t=0.68
0
% es.tEz (V/m) @ t=0.68
0.9647614991359417
% V (V) @ t=0.68
0.012881452302446098
% es.normE (V/m) @ t=0.7
2.6058042655125524
% es.EX (V/m) @ t=0.7
2.4081046174562086
% es.EY (V/m) @ t=0.7
0.15162812175927165
% es.EZ (V/m) @ t=0.7
0.973505638228791
% es.tEX (V/m) @ t=0.7
2.4081046174562086
% es.tEY (V/m) @ t=0.7
0
% es.tEZ (V/m) @ t=0.7
0.9735056382287945
% es.Ex (V/m) @ t=0.7
2.4081046174562086
% es.Ey (V/m) @ t=0.7
0.15162812175927165
% es.Ez (V/m) @ t=0.7
0.973505638228791
% es.tEx (V/m) @ t=0.7
2.4081046174562086
% es.tEy (V/m) @ t=0.7
0
% es.tEz (V/m) @ t=0.7
0.9735056382287945
% V (V) @ t=0.7
0.012998204377465773
% es.normE (V/m) @ t=0.72
2.6292099233280237
% es.EX (V/m) @ t=0.72
2.429734516607925
% es.EY (V/m) @ t=0.72
0.1529900473283663
% es.EZ (V/m) @ t=0.72
0.982249777321643
% es.tEX (V/m) @ t=0.72
2.4297345166079296
% es.tEY (V/m) @ t=0.72
0
% es.tEZ (V/m) @ t=0.72
0.9822497773216403
% es.Ex (V/m) @ t=0.72
2.429734516607925
% es.Ey (V/m) @ t=0.72
0.1529900473283663
% es.Ez (V/m) @ t=0.72
0.982249777321643
% es.tEx (V/m) @ t=0.72
2.4297345166079296
% es.tEy (V/m) @ t=0.72
0
% es.tEz (V/m) @ t=0.72
0.9822497773216403
% V (V) @ t=0.72
0.01311495645248545
% es.normE (V/m) @ t=0.74
2.652615581143471
% es.EX (V/m) @ t=0.74
2.4513644157596204
% es.EY (V/m) @ t=0.74
0.1543519728974555
% es.EZ (V/m) @ t=0.74
0.9909939164144834
% es.tEX (V/m) @ t=0.74
2.4513644157596097
% es.tEY (V/m) @ t=0.74
0
% es.tEZ (V/m) @ t=0.74
0.9909939164144843
% es.Ex (V/m) @ t=0.74
2.4513644157596204
% es.Ey (V/m) @ t=0.74
0.1543519728974555
% es.Ez (V/m) @ t=0.74
0.9909939164144834
% es.tEx (V/m) @ t=0.74
2.4513644157596097
% es.tEy (V/m) @ t=0.74
0
% es.tEz (V/m) @ t=0.74
0.9909939164144843
% V (V) @ t=0.74
0.013231708527505128
% es.normE (V/m) @ t=0.76
2.676021238958926
% es.EX (V/m) @ t=0.76
2.4729943149113183
% es.EY (V/m) @ t=0.76
0.1557138984665698
% es.EZ (V/m) @ t=0.76
0.9997380555073363
% es.tEX (V/m) @ t=0.76
2.472994314911327
% es.tEY (V/m) @ t=0.76
0
% es.tEZ (V/m) @ t=0.76
0.9997380555073381
% es.Ex (V/m) @ t=0.76
2.4729943149113183
% es.Ey (V/m) @ t=0.76
0.1557138984665698
% es.Ez (V/m) @ t=0.76
0.9997380555073363
% es.tEx (V/m) @ t=0.76
2.472994314911327
% es.tEy (V/m) @ t=0.76
0
% es.tEz (V/m) @ t=0.76
0.9997380555073381
% V (V) @ t=0.76
0.013348460602524804
% es.normE (V/m) @ t=0.78
2.6994268967743906
% es.EX (V/m) @ t=0.78
2.494624214063027
% es.EY (V/m) @ t=0.78
0.15707582403565024
% es.EZ (V/m) @ t=0.78
1.0084821946001892
% es.tEX (V/m) @ t=0.78
2.494624214063032
% es.tEY (V/m) @ t=0.78
0
% es.tEZ (V/m) @ t=0.78
1.0084821946001918
% es.Ex (V/m) @ t=0.78
2.494624214063027
% es.Ey (V/m) @ t=0.78
0.15707582403565024
% es.Ez (V/m) @ t=0.78
1.0084821946001892
% es.tEx (V/m) @ t=0.78
2.494624214063032
% es.tEy (V/m) @ t=0.78
0
% es.tEz (V/m) @ t=0.78
1.0084821946001918
% V (V) @ t=0.78
0.01346521267754448
% es.normE (V/m) @ t=0.8
2.7245747350331273
% es.EX (V/m) @ t=0.8
2.5178641146673417
% es.EY (V/m) @ t=0.8
0.15853913092001526
% es.EZ (V/m) @ t=0.8
1.0178772006867947
% es.tEX (V/m) @ t=0.8
2.5178641146673435
% es.tEY (V/m) @ t=0.8
0
% es.tEZ (V/m) @ t=0.8
1.0178772006867902
% es.Ex (V/m) @ t=0.8
2.5178641146673417
% es.Ey (V/m) @ t=0.8
0.15853913092001526
% es.Ez (V/m) @ t=0.8
1.0178772006867947
% es.tEx (V/m) @ t=0.8
2.5178641146673435
% es.tEy (V/m) @ t=0.8
0
% es.tEz (V/m) @ t=0.8
1.0178772006867902
% V (V) @ t=0.8
0.013590654828240059
% es.normE (V/m) @ t=0.82
2.7506255253676857
% es.EX (V/m) @ t=0.82
2.5419384604976543
% es.EY (V/m) @ t=0.82
0.16005498257346007
% es.EZ (V/m) @ t=0.82
1.0276095436464763
% es.tEX (V/m) @ t=0.82
2.5419384604976543
% es.tEY (V/m) @ t=0.82
0
% es.tEZ (V/m) @ t=0.82
1.0276095436464772
% es.Ex (V/m) @ t=0.82
2.5419384604976543
% es.Ey (V/m) @ t=0.82
0.16005498257346007
% es.Ez (V/m) @ t=0.82
1.0276095436464763
% es.tEx (V/m) @ t=0.82
2.5419384604976543
% es.tEy (V/m) @ t=0.82
0
% es.tEz (V/m) @ t=0.82
1.0276095436464772
% V (V) @ t=0.82
0.013720600945158522
% es.normE (V/m) @ t=0.84
2.776676315702223
% es.EX (V/m) @ t=0.84
2.5660128063279473
% es.EY (V/m) @ t=0.84
0.1615708342268869
% es.EZ (V/m) @ t=0.84
1.037341886606153
% es.tEX (V/m) @ t=0.84
2.5660128063279455
% es.tEY (V/m) @ t=0.84
0
% es.tEZ (V/m) @ t=0.84
1.0373418866061543
% es.Ex (V/m) @ t=0.84
2.5660128063279473
% es.Ey (V/m) @ t=0.84
0.1615708342268869
% es.Ez (V/m) @ t=0.84
1.037341886606153
% es.tEx (V/m) @ t=0.84
2.5660128063279455
% es.tEy (V/m) @ t=0.84
0
% es.tEz (V/m) @ t=0.84
1.0373418866061543
% V (V) @ t=0.84
0.013850547062076984
% es.normE (V/m) @ t=0.86
2.802727106036781
% es.EX (V/m) @ t=0.86
2.590087152158251
% es.EY (V/m) @ t=0.86
0.16308668588031916
% es.EZ (V/m) @ t=0.86
1.0470742295658573
% es.tEX (V/m) @ t=0.86
2.5900871521582527
% es.tEY (V/m) @ t=0.86
0
% es.tEZ (V/m) @ t=0.86
1.0470742295658582
% es.Ex (V/m) @ t=0.86
2.590087152158251
% es.Ey (V/m) @ t=0.86
0.16308668588031916
% es.Ez (V/m) @ t=0.86
1.0470742295658573
% es.tEx (V/m) @ t=0.86
2.5900871521582527
% es.tEy (V/m) @ t=0.86
0
% es.tEz (V/m) @ t=0.86
1.0470742295658582
% V (V) @ t=0.86
0.013980493178995447
% es.normE (V/m) @ t=0.88
2.828777896371342
% es.EX (V/m) @ t=0.88
2.6141614979885652
% es.EY (V/m) @ t=0.88
0.164602537533737
% es.EZ (V/m) @ t=0.88
1.056806572525546
% es.tEX (V/m) @ t=0.88
2.6141614979885652
% es.tEY (V/m) @ t=0.88
0
% es.tEZ (V/m) @ t=0.88
1.056806572525545
% es.Ex (V/m) @ t=0.88
2.6141614979885652
% es.Ey (V/m) @ t=0.88
0.164602537533737
% es.Ez (V/m) @ t=0.88
1.056806572525546
% es.tEx (V/m) @ t=0.88
2.6141614979885652
% es.tEy (V/m) @ t=0.88
0
% es.tEz (V/m) @ t=0.88
1.056806572525545
% V (V) @ t=0.88
0.01411043929591391
% es.normE (V/m) @ t=0.9
2.8548286867058827
% es.EX (V/m) @ t=0.9
2.63823584381886
% es.EY (V/m) @ t=0.9
0.16611838918716237
% es.EZ (V/m) @ t=0.9
1.0665389154852258
% es.tEX (V/m) @ t=0.9
2.63823584381886
% es.tEY (V/m) @ t=0.9
0
% es.tEZ (V/m) @ t=0.9
1.0665389154852276
% es.Ex (V/m) @ t=0.9
2.63823584381886
% es.Ey (V/m) @ t=0.9
0.16611838918716237
% es.Ez (V/m) @ t=0.9
1.0665389154852258
% es.tEx (V/m) @ t=0.9
2.63823584381886
% es.tEy (V/m) @ t=0.9
0
% es.tEz (V/m) @ t=0.9
1.0665389154852276
% V (V) @ t=0.9
0.014240385412832374
% es.normE (V/m) @ t=0.92
2.8808794770404447
% es.EX (V/m) @ t=0.92
2.662310189649167
% es.EY (V/m) @ t=0.92
0.16763424084060163
% es.EZ (V/m) @ t=0.92
1.0762712584449332
% es.tEX (V/m) @ t=0.92
2.6623101896491725
% es.tEY (V/m) @ t=0.92
0
% es.tEZ (V/m) @ t=0.92
1.0762712584449377
% es.Ex (V/m) @ t=0.92
2.662310189649167
% es.Ey (V/m) @ t=0.92
0.16763424084060163
% es.Ez (V/m) @ t=0.92
1.0762712584449332
% es.tEx (V/m) @ t=0.92
2.6623101896491725
% es.tEy (V/m) @ t=0.92
0
% es.tEz (V/m) @ t=0.92
1.0762712584449377
% V (V) @ t=0.92
0.014370331529750837
% es.normE (V/m) @ t=0.94
2.906930267374981
% es.EX (V/m) @ t=0.94
2.6863845354794638
% es.EY (V/m) @ t=0.94
0.169150092494034
% es.EZ (V/m) @ t=0.94
1.0860036014045966
% es.tEX (V/m) @ t=0.94
2.6863845354794744
% es.tEY (V/m) @ t=0.94
0
% es.tEZ (V/m) @ t=0.94
1.0860036014046015
% es.Ex (V/m) @ t=0.94
2.6863845354794638
% es.Ey (V/m) @ t=0.94
0.169150092494034
% es.Ez (V/m) @ t=0.94
1.0860036014045966
% es.tEx (V/m) @ t=0.94
2.6863845354794744
% es.tEy (V/m) @ t=0.94
0
% es.tEz (V/m) @ t=0.94
1.0860036014046015
% V (V) @ t=0.94
0.014500277646669297
% es.normE (V/m) @ t=0.96
2.9329810577095605
% es.EX (V/m) @ t=0.96
2.7104588813097914
% es.EY (V/m) @ t=0.96
0.17066594414746605
% es.EZ (V/m) @ t=0.96
1.0957359443643
% es.tEX (V/m) @ t=0.96
2.7104588813097816
% es.tEY (V/m) @ t=0.96
0
% es.tEZ (V/m) @ t=0.96
1.0957359443642964
% es.Ex (V/m) @ t=0.96
2.7104588813097914
% es.Ey (V/m) @ t=0.96
0.17066594414746605
% es.Ez (V/m) @ t=0.96
1.0957359443643
% es.tEx (V/m) @ t=0.96
2.7104588813097816
% es.tEy (V/m) @ t=0.96
0
% es.tEz (V/m) @ t=0.96
1.0957359443642964
% V (V) @ t=0.96
0.01463022376358776
% es.normE (V/m) @ t=0.98
2.9590318480441136
% es.EX (V/m) @ t=0.98
2.734533227140096
% es.EY (V/m) @ t=0.98
0.17218179580088055
% es.EZ (V/m) @ t=0.98
1.1054682873239914
% es.tEX (V/m) @ t=0.98
2.7345332271400924
% es.tEY (V/m) @ t=0.98
0
% es.tEZ (V/m) @ t=0.98
1.1054682873239896
% es.Ex (V/m) @ t=0.98
2.734533227140096
% es.Ey (V/m) @ t=0.98
0.17218179580088055
% es.Ez (V/m) @ t=0.98
1.1054682873239914
% es.tEx (V/m) @ t=0.98
2.7345332271400924
% es.tEy (V/m) @ t=0.98
0
% es.tEz (V/m) @ t=0.98
1.1054682873239896
% V (V) @ t=0.98
0.014760169880506224
% es.normE (V/m) @ t=1
2.9850826383786453
% es.EX (V/m) @ t=1
2.7586075729703783
% es.EY (V/m) @ t=1
0.1736976474543216
% es.EZ (V/m) @ t=1
1.1152006302836748
% es.tEX (V/m) @ t=1
2.7586075729703765
% es.tEY (V/m) @ t=1
0
% es.tEZ (V/m) @ t=1
1.11520063028368
% es.Ex (V/m) @ t=1
2.7586075729703783
% es.Ey (V/m) @ t=1
0.1736976474543216
% es.Ez (V/m) @ t=1
1.1152006302836748
% es.tEx (V/m) @ t=1
2.7586075729703765
% es.tEy (V/m) @ t=1
0
% es.tEz (V/m) @ t=1
1.11520063028368
% V (V) @ t=1
0.014890115997424687
% es.normE (V/m) @ t=1.02
3.0111334287132014
% es.EX (V/m) @ t=1.02
2.7826819188006873
% es.EY (V/m) @ t=1.02
0.1752134991077665
% es.EZ (V/m) @ t=1.02
1.1249329732433608
% es.tEX (V/m) @ t=1.02
2.7826819188006873
% es.tEY (V/m) @ t=1.02
0
% es.tEZ (V/m) @ t=1.02
1.1249329732433608
% es.Ex (V/m) @ t=1.02
2.7826819188006873
% es.Ey (V/m) @ t=1.02
0.1752134991077665
% es.Ez (V/m) @ t=1.02
1.1249329732433608
% es.tEx (V/m) @ t=1.02
2.7826819188006873
% es.tEy (V/m) @ t=1.02
0
% es.tEz (V/m) @ t=1.02
1.1249329732433608
% V (V) @ t=1.02
0.01502006211434315
% es.normE (V/m) @ t=1.04
3.0371842190477616
% es.EX (V/m) @ t=1.04
2.8067562646309945
% es.EY (V/m) @ t=1.04
0.17672935076118812
% es.EZ (V/m) @ t=1.04
1.134665316203061
% es.tEX (V/m) @ t=1.04
2.806756264631
% es.tEY (V/m) @ t=1.04
0
% es.tEZ (V/m) @ t=1.04
1.1346653162030558
% es.Ex (V/m) @ t=1.04
2.8067562646309945
% es.Ey (V/m) @ t=1.04
0.17672935076118812
% es.Ez (V/m) @ t=1.04
1.134665316203061
% es.tEx (V/m) @ t=1.04
2.806756264631
% es.tEy (V/m) @ t=1.04
0
% es.tEz (V/m) @ t=1.04