% Model:              1 neuron.mph
% Version:            COMSOL 6.0.0.405
% Date:               Mar 16 2023, 18:13
% Dimension:          0
% Nodes:              14017
% Expressions:        14017
% Description:        Electric field norm, Electric field, X component, Electric field, Y component, Electric field, Z component, Tangential electric field, X component, Tangential electric field, Y component, Tangential electric field, Z component, Electric field, x component, Electric field, y component, Electric field, z component, Tangential electric field, x component, Tangential electric field, y component, Tangential electric field, z component, Electric potential
% Length unit:        mm
% x
1.66
% y
12.2
% z
1
% es.normE (V/m) @ t=0
2.217843409913865
% es.EX (V/m) @ t=0
-0.7905228281010855
% es.EY (V/m) @ t=0
0.25114549442571765
% es.EZ (V/m) @ t=0
2.050527111207269
% es.tEX (V/m) @ t=0
-0.7905228281010926
% es.tEY (V/m) @ t=0
0
% es.tEZ (V/m) @ t=0
2.050527111207275
% es.Ex (V/m) @ t=0
-0.7905228281010855
% es.Ey (V/m) @ t=0
0.25114549442571765
% es.Ez (V/m) @ t=0
2.050527111207269
% es.tEx (V/m) @ t=0
-0.7905228281010926
% es.tEy (V/m) @ t=0
0
% es.tEz (V/m) @ t=0
2.050527111207275
% V (V) @ t=0
0.010798210981293521
% es.normE (V/m) @ t=0.02
1.9155960577373192
% es.EX (V/m) @ t=0.02
-0.6827905010635603
% es.EY (V/m) @ t=0.02
0.21691942569898637
% es.EZ (V/m) @ t=0.02
1.7710815979828212
% es.tEX (V/m) @ t=0.02
-0.6827905010635781
% es.tEY (V/m) @ t=0.02
0
% es.tEZ (V/m) @ t=0.02
1.7710815979828212
% es.Ex (V/m) @ t=0.02
-0.6827905010635603
% es.Ey (V/m) @ t=0.02
0.21691942569898637
% es.Ez (V/m) @ t=0.02
1.7710815979828212
% es.tEx (V/m) @ t=0.02
-0.6827905010635781
% es.tEy (V/m) @ t=0.02
0
% es.tEz (V/m) @ t=0.02
1.7710815979828212
% V (V) @ t=0.02
0.009326632475959037
% es.normE (V/m) @ t=0.04
1.9332200667829398
% es.EX (V/m) @ t=0.04
-0.6890723608601664
% es.EY (V/m) @ t=0.04
0.218915144092235
% es.EZ (V/m) @ t=0.04
1.7873760343741774
% es.tEX (V/m) @ t=0.04
-0.6890723608601735
% es.tEY (V/m) @ t=0.04
0
% es.tEZ (V/m) @ t=0.04
1.7873760343741765
% es.Ex (V/m) @ t=0.04
-0.6890723608601664
% es.Ey (V/m) @ t=0.04
0.218915144092235
% es.Ez (V/m) @ t=0.04
1.7873760343741774
% es.tEx (V/m) @ t=0.04
-0.6890723608601735
% es.tEy (V/m) @ t=0.04
0
% es.tEz (V/m) @ t=0.04
1.7873760343741765
% V (V) @ t=0.04
0.009412440061445045
% es.normE (V/m) @ t=0.06
1.9509873897722292
% es.EX (V/m) @ t=0.06
-0.6954053028877031
% es.EY (V/m) @ t=0.06
0.22092709205576178
% es.EZ (V/m) @ t=0.06
1.8038029729866167
% es.tEX (V/m) @ t=0.06
-0.6954053028877208
% es.tEY (V/m) @ t=0.06
0
% es.tEZ (V/m) @ t=0.06
1.803802972986622
% es.Ex (V/m) @ t=0.06
-0.6954053028877031
% es.Ey (V/m) @ t=0.06
0.22092709205576178
% es.Ez (V/m) @ t=0.06
1.8038029729866167
% es.tEx (V/m) @ t=0.06
-0.6954053028877208
% es.tEy (V/m) @ t=0.06
0
% es.tEz (V/m) @ t=0.06
1.803802972986622
% V (V) @ t=0.06
0.009498945455118205
% es.normE (V/m) @ t=0.08
1.9690620672701806
% es.EX (V/m) @ t=0.08
-0.7018477979684314
% es.EY (V/m) @ t=0.08
0.22297384319112745
% es.EZ (V/m) @ t=0.08
1.8205140789472951
% es.tEX (V/m) @ t=0.08
-0.7018477979684385
% es.tEY (V/m) @ t=0.08
0
% es.tEZ (V/m) @ t=0.08
1.8205140789472978
% es.Ex (V/m) @ t=0.08
-0.7018477979684314
% es.Ey (V/m) @ t=0.08
0.22297384319112745
% es.Ez (V/m) @ t=0.08
1.8205140789472951
% es.tEx (V/m) @ t=0.08
-0.7018477979684385
% es.tEy (V/m) @ t=0.08
0
% es.tEz (V/m) @ t=0.08
1.8205140789472978
% V (V) @ t=0.08
0.009586947234643636
% es.normE (V/m) @ t=0.1
1.9872752883740048
% es.EX (V/m) @ t=0.1
-0.7083396753572045
% es.EY (V/m) @ t=0.1
0.22503628225943673
% es.EZ (V/m) @ t=0.1
1.8373532766326326
% es.tEX (V/m) @ t=0.1
-0.7083396753572117
% es.tEY (V/m) @ t=0.1
0
% es.tEZ (V/m) @ t=0.1
1.8373532766326335
% es.Ex (V/m) @ t=0.1
-0.7083396753572045
% es.Ey (V/m) @ t=0.1
0.22503628225943673
% es.Ez (V/m) @ t=0.1
1.8373532766326326
% es.tEx (V/m) @ t=0.1
-0.7083396753572117
% es.tEy (V/m) @ t=0.1
0
% es.tEz (V/m) @ t=0.1
1.8373532766326335
% V (V) @ t=0.1
0.009675623527429572
% es.normE (V/m) @ t=0.12
2.0054885094778405
% es.EX (V/m) @ t=0.12
-0.7148315527459919
% es.EY (V/m) @ t=0.12
0.22709872132776554
% es.EZ (V/m) @ t=0.12
1.8541924743179745
% es.tEX (V/m) @ t=0.12
-0.714831552745999
% es.tEY (V/m) @ t=0.12
0
% es.tEZ (V/m) @ t=0.12
1.854192474317971
% es.Ex (V/m) @ t=0.12
-0.7148315527459919
% es.Ey (V/m) @ t=0.12
0.22709872132776554
% es.Ez (V/m) @ t=0.12
1.8541924743179745
% es.tEx (V/m) @ t=0.12
-0.714831552745999
% es.tEy (V/m) @ t=0.12
0
% es.tEz (V/m) @ t=0.12
1.854192474317971
% V (V) @ t=0.12
0.009764299820215507
% es.normE (V/m) @ t=0.14
2.0240674315154283
% es.EX (V/m) @ t=0.14
-0.7214537794078194
% es.EY (V/m) @ t=0.14
0.22920257291549295
% es.EZ (V/m) @ t=0.14
1.8713697841259282
% es.tEX (V/m) @ t=0.14
-0.7214537794078265
% es.tEY (V/m) @ t=0.14
0
% es.tEZ (V/m) @ t=0.14
1.8713697841259318
% es.Ex (V/m) @ t=0.14
-0.7214537794078194
% es.Ey (V/m) @ t=0.14
0.22920257291549295
% es.Ez (V/m) @ t=0.14
1.8713697841259282
% es.tEx (V/m) @ t=0.14
-0.7214537794078265
% es.tEy (V/m) @ t=0.14
0
% es.tEz (V/m) @ t=0.14
1.8713697841259318
% V (V) @ t=0.14
0.00985475668386448
% es.normE (V/m) @ t=0.16
2.043222556251914
% es.EX (V/m) @ t=0.16
-0.7282813859196816
% es.EY (V/m) @ t=0.16
0.23137167455658103
% es.EZ (V/m) @ t=0.16
1.8890798273769684
% es.tEX (V/m) @ t=0.16
-0.7282813859196958
% es.tEY (V/m) @ t=0.16
0
% es.tEZ (V/m) @ t=0.16
1.8890798273769676
% es.Ex (V/m) @ t=0.16
-0.7282813859196816
% es.Ey (V/m) @ t=0.16
0.23137167455658103
% es.Ez (V/m) @ t=0.16
1.8890798273769684
% es.tEx (V/m) @ t=0.16
-0.7282813859196958
% es.tEy (V/m) @ t=0.16
0
% es.tEz (V/m) @ t=0.16
1.8890798273769676
% V (V) @ t=0.16
0.009948019035938869
% es.normE (V/m) @ t=0.18
2.062377680988397
% es.EX (V/m) @ t=0.18
-0.7351089924315439
% es.EY (V/m) @ t=0.18
0.2335407761976711
% es.EZ (V/m) @ t=0.18
1.906789870628005
% es.tEX (V/m) @ t=0.18
-0.735108992431551
% es.tEY (V/m) @ t=0.18
0
% es.tEZ (V/m) @ t=0.18
1.9067898706280086
% es.Ex (V/m) @ t=0.18
-0.7351089924315439
% es.Ey (V/m) @ t=0.18
0.2335407761976711
% es.Ez (V/m) @ t=0.18
1.906789870628005
% es.tEx (V/m) @ t=0.18
-0.735108992431551
% es.tEy (V/m) @ t=0.18
0
% es.tEz (V/m) @ t=0.18
1.9067898706280086
% V (V) @ t=0.18
0.01004128138801326
% es.normE (V/m) @ t=0.2
2.081532805724875
% es.EX (V/m) @ t=0.2
-0.7419365989434097
% es.EY (V/m) @ t=0.2
0.23570987783876274
% es.EZ (V/m) @ t=0.2
1.9244999138790364
% es.tEX (V/m) @ t=0.2
-0.7419365989434203
% es.tEY (V/m) @ t=0.2
0
% es.tEZ (V/m) @ t=0.2
1.9244999138790373
% es.Ex (V/m) @ t=0.2
-0.7419365989434097
% es.Ey (V/m) @ t=0.2
0.23570987783876274
% es.Ez (V/m) @ t=0.2
1.9244999138790364
% es.tEx (V/m) @ t=0.2
-0.7419365989434203
% es.tEy (V/m) @ t=0.2
0
% es.tEz (V/m) @ t=0.2
1.9244999138790373
% V (V) @ t=0.2
0.010134543740087648
% es.normE (V/m) @ t=0.22
2.1006879304613597
% es.EX (V/m) @ t=0.22
-0.7487642054552758
% es.EY (V/m) @ t=0.22
0.23787897947984749
% es.EZ (V/m) @ t=0.22
1.9422099571300748
% es.tEX (V/m) @ t=0.22
-0.7487642054552829
% es.tEY (V/m) @ t=0.22
0
% es.tEZ (V/m) @ t=0.22
1.9422099571300766
% es.Ex (V/m) @ t=0.22
-0.7487642054552758
% es.Ey (V/m) @ t=0.22
0.23787897947984749
% es.Ez (V/m) @ t=0.22
1.9422099571300748
% es.tEx (V/m) @ t=0.22
-0.7487642054552829
% es.tEy (V/m) @ t=0.22
0
% es.tEz (V/m) @ t=0.22
1.9422099571300766
% V (V) @ t=0.22
0.010227806092162037
% es.normE (V/m) @ t=0.24
2.1198430551978387
% es.EX (V/m) @ t=0.24
-0.7555918119671344
% es.EY (V/m) @ t=0.24
0.24004808112092846
% es.EZ (V/m) @ t=0.24
1.9599200003811088
% es.tEX (V/m) @ t=0.24
-0.7555918119671522
% es.tEY (V/m) @ t=0.24
0
% es.tEZ (V/m) @ t=0.24
1.9599200003811088
% es.Ex (V/m) @ t=0.24
-0.7555918119671344
% es.Ey (V/m) @ t=0.24
0.24004808112092846
% es.Ez (V/m) @ t=0.24
1.9599200003811088
% es.tEx (V/m) @ t=0.24
-0.7555918119671522
% es.tEy (V/m) @ t=0.24
0
% es.tEz (V/m) @ t=0.24
1.9599200003811088
% V (V) @ t=0.24
0.010321068444236426
% es.normE (V/m) @ t=0.26
2.138998179934328
% es.EX (V/m) @ t=0.26
-0.7624194184789969
% es.EY (V/m) @ t=0.26
0.24221718276200788
% es.EZ (V/m) @ t=0.26
1.9776300436321543
% es.tEX (V/m) @ t=0.26
-0.7624194184790146
% es.tEY (V/m) @ t=0.26
0
% es.tEZ (V/m) @ t=0.26
1.9776300436321534
% es.Ex (V/m) @ t=0.26
-0.7624194184789969
% es.Ey (V/m) @ t=0.26
0.24221718276200788
% es.Ez (V/m) @ t=0.26
1.9776300436321543
% es.tEx (V/m) @ t=0.26
-0.7624194184790146
% es.tEy (V/m) @ t=0.26
0
% es.tEz (V/m) @ t=0.26
1.9776300436321534
% V (V) @ t=0.26
0.010414330796310815
% es.normE (V/m) @ t=0.28
2.1598130213879276
% es.EX (V/m) @ t=0.28
-0.769838591675057
% es.EY (V/m) @ t=0.28
0.24457429537536957
% es.EZ (V/m) @ t=0.28
1.9968745947111577
% es.tEX (V/m) @ t=0.28
-0.7698385916750712
% es.tEY (V/m) @ t=0.28
0
% es.tEZ (V/m) @ t=0.28
1.9968745947111533
% es.Ex (V/m) @ t=0.28
-0.769838591675057
% es.Ey (V/m) @ t=0.28
0.24457429537536957
% es.Ez (V/m) @ t=0.28
1.9968745947111577
% es.tEx (V/m) @ t=0.28
-0.7698385916750712
% es.tEy (V/m) @ t=0.28
0
% es.tEz (V/m) @ t=0.28
1.9968745947111533
% V (V) @ t=0.28
0.010515677143538236
% es.normE (V/m) @ t=0.3
2.1810792466495776
% es.EX (V/m) @ t=0.3
-0.777418649930511
% es.EY (V/m) @ t=0.3
0.2469825402740058
% es.EZ (V/m) @ t=0.3
2.0165364772417984
% es.tEX (V/m) @ t=0.3
-0.7774186499305146
% es.tEY (V/m) @ t=0.3
0
% es.tEZ (V/m) @ t=0.3
2.0165364772417966
% es.Ex (V/m) @ t=0.3
-0.777418649930511
% es.Ey (V/m) @ t=0.3
0.2469825402740058
% es.Ez (V/m) @ t=0.3
2.0165364772417984
% es.tEx (V/m) @ t=0.3
-0.7774186499305146
% es.tEy (V/m) @ t=0.3
0
% es.tEz (V/m) @ t=0.3
2.0165364772417966
% V (V) @ t=0.3
0.010619222049398424
% es.normE (V/m) @ t=0.32
2.2023454719112245
% es.EX (V/m) @ t=0.32
-0.784998708185965
% es.EY (V/m) @ t=0.32
0.24939078517262292
% es.EZ (V/m) @ t=0.32
2.0361983597724356
% es.tEX (V/m) @ t=0.32
-0.7849987081859721
% es.tEY (V/m) @ t=0.32
0
% es.tEZ (V/m) @ t=0.32
2.036198359772442
% es.Ex (V/m) @ t=0.32
-0.784998708185965
% es.Ey (V/m) @ t=0.32
0.24939078517262292
% es.Ez (V/m) @ t=0.32
2.0361983597724356
% es.tEx (V/m) @ t=0.32
-0.7849987081859721
% es.tEy (V/m) @ t=0.32
0
% es.tEz (V/m) @ t=0.32
2.036198359772442
% V (V) @ t=0.32
0.010722766955258612
% es.normE (V/m) @ t=0.34
2.2236116971728794
% es.EX (V/m) @ t=0.34
-0.7925787664414119
% es.EY (V/m) @ t=0.34
0.2517990300712263
% es.EZ (V/m) @ t=0.34
2.05586024230308
% es.tEX (V/m) @ t=0.34
-0.7925787664414226
% es.tEY (V/m) @ t=0.34
0
% es.tEZ (V/m) @ t=0.34
2.0558602423030745
% es.Ex (V/m) @ t=0.34
-0.7925787664414119
% es.Ey (V/m) @ t=0.34
0.2517990300712263
% es.Ez (V/m) @ t=0.34
2.05586024230308
% es.tEx (V/m) @ t=0.34
-0.7925787664414226
% es.tEy (V/m) @ t=0.34
0
% es.tEz (V/m) @ t=0.34
2.0558602423030745
% V (V) @ t=0.34
0.0108263118611188
% es.normE (V/m) @ t=0.36
2.2448779224345383
% es.EX (V/m) @ t=0.36
-0.8001588246968732
% es.EY (V/m) @ t=0.36
0.25420727496983786
% es.EZ (V/m) @ t=0.36
2.075522124833716
% es.tEX (V/m) @ t=0.36
-0.8001588246968874
% es.tEY (V/m) @ t=0.36
0
% es.tEZ (V/m) @ t=0.36
2.0755221248337143
% es.Ex (V/m) @ t=0.36
-0.8001588246968732
% es.Ey (V/m) @ t=0.36
0.25420727496983786
% es.Ez (V/m) @ t=0.36
2.075522124833716
% es.tEx (V/m) @ t=0.36
-0.8001588246968874
% es.tEy (V/m) @ t=0.36
0
% es.tEz (V/m) @ t=0.36
2.0755221248337143
% V (V) @ t=0.36
0.010929856766978984
% es.normE (V/m) @ t=0.38
2.266144147696205
% es.EX (V/m) @ t=0.38
-0.8077388829523307
% es.EY (V/m) @ t=0.38
0.2566155198684763
% es.EZ (V/m) @ t=0.38
2.095184007364357
% es.tEX (V/m) @ t=0.38
-0.8077388829523378
% es.tEY (V/m) @ t=0.38
0
% es.tEZ (V/m) @ t=0.38
2.0951840073643595
% es.Ex (V/m) @ t=0.38
-0.8077388829523307
% es.Ey (V/m) @ t=0.38
0.2566155198684763
% es.Ez (V/m) @ t=0.38
2.095184007364357
% es.tEx (V/m) @ t=0.38
-0.8077388829523378
% es.tEy (V/m) @ t=0.38
0
% es.tEz (V/m) @ t=0.38
2.0951840073643595
% V (V) @ t=0.38
0.011033401672839175
% es.normE (V/m) @ t=0.4
2.287410372957874
% es.EX (V/m) @ t=0.4
-0.8153189412077918
% es.EY (V/m) @ t=0.4
0.2590237647670912
% es.EZ (V/m) @ t=0.4
2.114845889894995
% es.tEX (V/m) @ t=0.4
-0.8153189412077954
% es.tEY (V/m) @ t=0.4
0
% es.tEZ (V/m) @ t=0.4
2.1148458898949922
% es.Ex (V/m) @ t=0.4
-0.8153189412077918
% es.Ey (V/m) @ t=0.4
0.2590237647670912
% es.Ez (V/m) @ t=0.4
2.114845889894995
% es.tEx (V/m) @ t=0.4
-0.8153189412077954
% es.tEy (V/m) @ t=0.4
0
% es.tEz (V/m) @ t=0.4
2.1148458898949922
% V (V) @ t=0.4
0.011136946578699364
% es.normE (V/m) @ t=0.42
2.3086765982195336
% es.EX (V/m) @ t=0.42
-0.8228989994632245
% es.EY (V/m) @ t=0.42
0.26143200966571034
% es.EZ (V/m) @ t=0.42
2.1345077724256303
% es.tEX (V/m) @ t=0.42
-0.8228989994632316
% es.tEY (V/m) @ t=0.42
0
% es.tEZ (V/m) @ t=0.42
2.134507772425632
% es.Ex (V/m) @ t=0.42
-0.8228989994632245
% es.Ey (V/m) @ t=0.42
0.26143200966571034
% es.Ez (V/m) @ t=0.42
2.1345077724256303
% es.tEx (V/m) @ t=0.42
-0.8228989994632316
% es.tEy (V/m) @ t=0.42
0
% es.tEz (V/m) @ t=0.42
2.134507772425632
% V (V) @ t=0.42
0.01124049148455955
% es.normE (V/m) @ t=0.44
2.3299428234812085
% es.EX (V/m) @ t=0.44
-0.830479057718682
% es.EY (V/m) @ t=0.44
0.26384025456433124
% es.EZ (V/m) @ t=0.44
2.1541696549562683
% es.tEX (V/m) @ t=0.44
-0.8304790577186962
% es.tEY (V/m) @ t=0.44
0
% es.tEZ (V/m) @ t=0.44
2.15416965495627
% es.Ex (V/m) @ t=0.44
-0.830479057718682
% es.Ey (V/m) @ t=0.44
0.26384025456433124
% es.Ez (V/m) @ t=0.44
2.1541696549562683
% es.tEx (V/m) @ t=0.44
-0.8304790577186962
% es.tEy (V/m) @ t=0.44
0
% es.tEz (V/m) @ t=0.44
2.15416965495627
% V (V) @ t=0.44
0.011344036390419738
% es.normE (V/m) @ t=0.46
2.3512090487428976
% es.EX (V/m) @ t=0.46
-0.8380591159741291
% es.EY (V/m) @ t=0.46
0.26624849946294793
% es.EZ (V/m) @ t=0.46
2.1738315374869215
% es.tEX (V/m) @ t=0.46
-0.8380591159741397
% es.tEY (V/m) @ t=0.46
0
% es.tEZ (V/m) @ t=0.46
2.1738315374869206
% es.Ex (V/m) @ t=0.46
-0.8380591159741291
% es.Ey (V/m) @ t=0.46
0.26624849946294793
% es.Ez (V/m) @ t=0.46
2.1738315374869215
% es.tEx (V/m) @ t=0.46
-0.8380591159741397
% es.tEy (V/m) @ t=0.46
0
% es.tEz (V/m) @ t=0.46
2.1738315374869206
% V (V) @ t=0.46
0.011447581296279926
% es.normE (V/m) @ t=0.48
2.372475274004569
% es.EX (V/m) @ t=0.48
-0.8456391742295936
% es.EY (V/m) @ t=0.48
0.2686567443615582
% es.EZ (V/m) @ t=0.48
2.193493420017547
% es.tEX (V/m) @ t=0.48
-0.8456391742295971
% es.tEY (V/m) @ t=0.48
0
% es.tEZ (V/m) @ t=0.48
2.1934934200175444
% es.Ex (V/m) @ t=0.48
-0.8456391742295936
% es.Ey (V/m) @ t=0.48
0.2686567443615582
% es.Ez (V/m) @ t=0.48
2.193493420017547
% es.tEx (V/m) @ t=0.48
-0.8456391742295971
% es.tEy (V/m) @ t=0.48
0
% es.tEz (V/m) @ t=0.48
2.1934934200175444
% V (V) @ t=0.48
0.011551126202140116
% es.normE (V/m) @ t=0.5
2.393741499266259
% es.EX (V/m) @ t=0.5
-0.8532192324850406
% es.EY (V/m) @ t=0.5
0.27106498926018086
% es.EZ (V/m) @ t=0.5
2.213155302548193
% es.tEX (V/m) @ t=0.5
-0.8532192324850548
% es.tEY (V/m) @ t=0.5
0
% es.tEZ (V/m) @ t=0.5
2.2131553025481914
% es.Ex (V/m) @ t=0.5
-0.8532192324850406
% es.Ey (V/m) @ t=0.5
0.27106498926018086
% es.Ez (V/m) @ t=0.5
2.213155302548193
% es.tEx (V/m) @ t=0.5
-0.8532192324850548
% es.tEy (V/m) @ t=0.5
0
% es.tEz (V/m) @ t=0.5
2.2131553025481914
% V (V) @ t=0.5
0.011654671108000303
% es.normE (V/m) @ t=0.52
2.4150077245279524
% es.EX (V/m) @ t=0.52
-0.8607992907404982
% es.EY (V/m) @ t=0.52
0.27347323415881175
% es.EZ (V/m) @ t=0.52
2.232817185078834
% es.tEX (V/m) @ t=0.52
-0.8607992907405124
% es.tEY (V/m) @ t=0.52
0
% es.tEZ (V/m) @ t=0.52
2.232817185078831
% es.Ex (V/m) @ t=0.52
-0.8607992907404982
% es.Ey (V/m) @ t=0.52
0.27347323415881175
% es.Ez (V/m) @ t=0.52
2.232817185078834
% es.tEx (V/m) @ t=0.52
-0.8607992907405124
% es.tEy (V/m) @ t=0.52
0
% es.tEz (V/m) @ t=0.52
2.232817185078831
% V (V) @ t=0.52
0.011758216013860491
% es.normE (V/m) @ t=0.54
2.437663655231629
% es.EX (V/m) @ t=0.54
-0.8688746047382587
% es.EY (V/m) @ t=0.54
0.27603915660682365
% es.EZ (V/m) @ t=0.54
2.253763940873414
% es.tEX (V/m) @ t=0.54
-0.8688746047382658
% es.tEY (V/m) @ t=0.54
0
% es.tEZ (V/m) @ t=0.54
2.253763940873416
% es.Ex (V/m) @ t=0.54
-0.8688746047382587
% es.Ey (V/m) @ t=0.54
0.27603915660682365
% es.Ez (V/m) @ t=0.54
2.253763940873414
% es.tEx (V/m) @ t=0.54
-0.8688746047382658
% es.tEy (V/m) @ t=0.54
0
% es.tEz (V/m) @ t=0.54
2.253763940873416
% V (V) @ t=0.54
0.011868541839101526
% es.normE (V/m) @ t=0.56
2.46131751784315
% es.EX (V/m) @ t=0.56
-0.8773055563357244
% es.EY (V/m) @ t=0.56
0.2787183055364295
% es.EZ (V/m) @ t=0.56
2.2756333497631687
% es.tEX (V/m) @ t=0.56
-0.8773055563357315
% es.tEY (V/m) @ t=0.56
0
% es.tEZ (V/m) @ t=0.56
2.2756333497631687
% es.Ex (V/m) @ t=0.56
-0.8773055563357244
% es.Ey (V/m) @ t=0.56
0.2787183055364295
% es.Ez (V/m) @ t=0.56
2.2756333497631687
% es.tEx (V/m) @ t=0.56
-0.8773055563357315
% es.tEy (V/m) @ t=0.56
0
% es.tEz (V/m) @ t=0.56
2.2756333497631687
% V (V) @ t=0.56
0.011983736966576909
% es.normE (V/m) @ t=0.58
2.484971380454885
% es.EX (V/m) @ t=0.58
-0.8857365079332293
% es.EY (V/m) @ t=0.58
0.28139745446604647
% es.EZ (V/m) @ t=0.58
2.297502758652925
% es.tEX (V/m) @ t=0.58
-0.88573650793324
% es.tEY (V/m) @ t=0.58
0
% es.tEZ (V/m) @ t=0.58
2.297502758652934
% es.Ex (V/m) @ t=0.58
-0.8857365079332293
% es.Ey (V/m) @ t=0.58
0.28139745446604647
% es.Ez (V/m) @ t=0.58
2.297502758652925
% es.tEx (V/m) @ t=0.58
-0.88573650793324
% es.tEy (V/m) @ t=0.58
0
% es.tEz (V/m) @ t=0.58
2.297502758652934
% V (V) @ t=0.58
0.012098932094052293
% es.normE (V/m) @ t=0.6
2.508625243066805
% es.EX (V/m) @ t=0.6
-0.8941674595306914
% es.EY (V/m) @ t=0.6
0.28407660339569607
% es.EZ (V/m) @ t=0.6
2.3193721675426877
% es.tEX (V/m) @ t=0.6
-0.8941674595307056
% es.tEY (V/m) @ t=0.6
0
% es.tEZ (V/m) @ t=0.6
2.3193721675426833
% es.Ex (V/m) @ t=0.6
-0.8941674595306914
% es.Ey (V/m) @ t=0.6
0.28407660339569607
% es.Ez (V/m) @ t=0.6
2.3193721675426877
% es.tEx (V/m) @ t=0.6
-0.8941674595307056
% es.tEy (V/m) @ t=0.6
0
% es.tEz (V/m) @ t=0.6
2.3193721675426833
% V (V) @ t=0.6
0.012214127221527673
% es.normE (V/m) @ t=0.62
2.532279105678917
% es.EX (V/m) @ t=0.62
-0.9025984111281893
% es.EY (V/m) @ t=0.62
0.28675575232530925
% es.EZ (V/m) @ t=0.62
2.3412415764324477
% es.tEX (V/m) @ t=0.62
-0.902598411128207
% es.tEY (V/m) @ t=0.62
0
% es.tEZ (V/m) @ t=0.62
2.341241576432452
% es.Ex (V/m) @ t=0.62
-0.9025984111281893
% es.Ey (V/m) @ t=0.62
0.28675575232530925
% es.Ez (V/m) @ t=0.62
2.3412415764324477
% es.tEx (V/m) @ t=0.62
-0.902598411128207
% es.tEy (V/m) @ t=0.62
0
% es.tEz (V/m) @ t=0.62
2.341241576432452
% V (V) @ t=0.62
0.01232932234900306
% es.normE (V/m) @ t=0.64
2.555932968291215
% es.EX (V/m) @ t=0.64
-0.9110293627256656
% es.EY (V/m) @ t=0.64
0.2894349012549393
% es.EZ (V/m) @ t=0.64
2.363110985322219
% es.tEX (V/m) @ t=0.64
-0.9110293627256798
% es.tEY (V/m) @ t=0.64
0
% es.tEZ (V/m) @ t=0.64
2.3631109853222174
% es.Ex (V/m) @ t=0.64
-0.9110293627256656
% es.Ey (V/m) @ t=0.64
0.2894349012549393
% es.Ez (V/m) @ t=0.64
2.363110985322219
% es.tEx (V/m) @ t=0.64
-0.9110293627256798
% es.tEy (V/m) @ t=0.64
0
% es.tEz (V/m) @ t=0.64
2.3631109853222174
% V (V) @ t=0.64
0.01244451747647844
% es.normE (V/m) @ t=0.66
2.5795868309036782
% es.EX (V/m) @ t=0.66
-0.9194603143231492
% es.EY (V/m) @ t=0.66
0.2921140501845554
% es.EZ (V/m) @ t=0.66
2.384980394211979
% es.tEX (V/m) @ t=0.66
-0.919460314323167
% es.tEY (V/m) @ t=0.66
0
% es.tEZ (V/m) @ t=0.66
2.3849803942119774
% es.Ex (V/m) @ t=0.66
-0.9194603143231492
% es.Ey (V/m) @ t=0.66
0.2921140501845554
% es.Ez (V/m) @ t=0.66
2.384980394211979
% es.tEx (V/m) @ t=0.66
-0.919460314323167
% es.tEy (V/m) @ t=0.66
0
% es.tEz (V/m) @ t=0.66
2.3849803942119774
% V (V) @ t=0.66
0.012559712603953822
% es.normE (V/m) @ t=0.68
2.603240693516307
% es.EX (V/m) @ t=0.68
-0.9278912659206326
% es.EY (V/m) @ t=0.68
0.2947931991141668
% es.EZ (V/m) @ t=0.68
2.406849803101734
% es.tEX (V/m) @ t=0.68
-0.9278912659206469
% es.tEY (V/m) @ t=0.68
0
% es.tEZ (V/m) @ t=0.68
2.4068498031017374
% es.Ex (V/m) @ t=0.68
-0.9278912659206326
% es.Ey (V/m) @ t=0.68
0.2947931991141668
% es.Ez (V/m) @ t=0.68
2.406849803101734
% es.tEx (V/m) @ t=0.68
-0.9278912659206469
% es.tEy (V/m) @ t=0.68
0
% es.tEz (V/m) @ t=0.68
2.4068498031017374
% V (V) @ t=0.68
0.012674907731429206
% es.normE (V/m) @ t=0.7
2.6268945561291046
% es.EX (V/m) @ t=0.7
-0.9363222175181021
% es.EY (V/m) @ t=0.7
0.29747234804380307
% es.EZ (V/m) @ t=0.7
2.428719211991493
% es.tEX (V/m) @ t=0.7
-0.9363222175181198
% es.tEY (V/m) @ t=0.7
0
% es.tEZ (V/m) @ t=0.7
2.4287192119914955
% es.Ex (V/m) @ t=0.7
-0.9363222175181021
% es.Ey (V/m) @ t=0.7
0.29747234804380307
% es.Ez (V/m) @ t=0.7
2.428719211991493
% es.tEx (V/m) @ t=0.7
-0.9363222175181198
% es.tEy (V/m) @ t=0.7
0
% es.tEz (V/m) @ t=0.7
2.4287192119914955
% V (V) @ t=0.7
0.01279010285890459
% es.normE (V/m) @ t=0.72
2.650548418742074
% es.EX (V/m) @ t=0.72
-0.9447531691155961
% es.EY (V/m) @ t=0.72
0.3001514969734216
% es.EZ (V/m) @ t=0.72
2.4505886208812573
% es.tEX (V/m) @ t=0.72
-0.9447531691155997
% es.tEY (V/m) @ t=0.72
0
% es.tEZ (V/m) @ t=0.72
2.450588620881252
% es.Ex (V/m) @ t=0.72
-0.9447531691155961
% es.Ey (V/m) @ t=0.72
0.3001514969734216
% es.Ez (V/m) @ t=0.72
2.4505886208812573
% es.tEx (V/m) @ t=0.72
-0.9447531691155997
% es.tEy (V/m) @ t=0.72
0
% es.tEz (V/m) @ t=0.72
2.450588620881252
% V (V) @ t=0.72
0.012905297986379974
% es.normE (V/m) @ t=0.74
2.674202281355188
% es.EX (V/m) @ t=0.74
-0.9531841207130654
% es.EY (V/m) @ t=0.74
0.3028306459030454
% es.EZ (V/m) @ t=0.74
2.4724580297710146
% es.tEX (V/m) @ t=0.74
-0.9531841207130796
% es.tEY (V/m) @ t=0.74
0
% es.tEZ (V/m) @ t=0.74
2.472458029771012
% es.Ex (V/m) @ t=0.74
-0.9531841207130654
% es.Ey (V/m) @ t=0.74
0.3028306459030454
% es.Ez (V/m) @ t=0.74
2.4724580297710146
% es.tEx (V/m) @ t=0.74
-0.9531841207130796
% es.tEy (V/m) @ t=0.74
0
% es.tEz (V/m) @ t=0.74
2.472458029771012
% V (V) @ t=0.74
0.013020493113855352
% es.normE (V/m) @ t=0.76
2.6978561439684716
% es.EX (V/m) @ t=0.76
-0.9616150723105668
% es.EY (V/m) @ t=0.76
0.30550979483268437
% es.EZ (V/m) @ t=0.76
2.4943274386607754
% es.tEX (V/m) @ t=0.76
-0.9616150723105739
% es.tEY (V/m) @ t=0.76
0
% es.tEZ (V/m) @ t=0.76
2.4943274386607754
% es.Ex (V/m) @ t=0.76
-0.9616150723105668
% es.Ey (V/m) @ t=0.76
0.30550979483268437
% es.Ez (V/m) @ t=0.76
2.4943274386607754
% es.tEx (V/m) @ t=0.76
-0.9616150723105739
% es.tEy (V/m) @ t=0.76
0
% es.tEz (V/m) @ t=0.76
2.4943274386607754
% V (V) @ t=0.76
0.013135688241330736
% es.normE (V/m) @ t=0.78
2.7215100065819
% es.EX (V/m) @ t=0.78
-0.9700460239080502
% es.EY (V/m) @ t=0.78
0.30818894376229755
% es.EZ (V/m) @ t=0.78
2.5161968475505416
% es.tEX (V/m) @ t=0.78
-0.9700460239080679
% es.tEY (V/m) @ t=0.78
0
% es.tEZ (V/m) @ t=0.78
2.5161968475505425
% es.Ex (V/m) @ t=0.78
-0.9700460239080502
% es.Ey (V/m) @ t=0.78
0.30818894376229755
% es.Ez (V/m) @ t=0.78
2.5161968475505416
% es.tEx (V/m) @ t=0.78
-0.9700460239080679
% es.tEy (V/m) @ t=0.78
0
% es.tEz (V/m) @ t=0.78
2.5161968475505425
% V (V) @ t=0.78
0.013250883368806119
% es.normE (V/m) @ t=0.8
2.7461803415726
% es.EX (V/m) @ t=0.8
-0.9788393628782339
% es.EY (V/m) @ t=0.8
0.3109829197453755
% es.EZ (V/m) @ t=0.8
2.5390060374683063
% es.tEX (V/m) @ t=0.8
-0.9788393628782481
% es.tEY (V/m) @ t=0.8
0
% es.tEZ (V/m) @ t=0.8
2.5390060374683046
% es.Ex (V/m) @ t=0.8
-0.9788393628782339
% es.Ey (V/m) @ t=0.8
0.3109829197453755
% es.Ez (V/m) @ t=0.8
2.5390060374683063
% es.tEx (V/m) @ t=0.8
-0.9788393628782481
% es.tEy (V/m) @ t=0.8
0
% es.tEz (V/m) @ t=0.8
2.5390060374683046
% V (V) @ t=0.8
0.013371014294587832
% es.normE (V/m) @ t=0.82
2.772524005798073
% es.EX (V/m) @ t=0.82
-0.9882292683647917
% es.EY (V/m) @ t=0.82
0.31396592542545254
% es.EZ (V/m) @ t=0.82
2.5633623063857387
% es.tEX (V/m) @ t=0.82
-0.988229268364806
% es.tEY (V/m) @ t=0.82
0
% es.tEZ (V/m) @ t=0.82
2.563362306385743
% es.Ex (V/m) @ t=0.82
-0.9882292683647917
% es.Ey (V/m) @ t=0.82
0.31396592542545254
% es.Ez (V/m) @ t=0.82
2.5633623063857387
% es.tEx (V/m) @ t=0.82
-0.988229268364806
% es.tEy (V/m) @ t=0.82
0
% es.tEz (V/m) @ t=0.82
2.563362306385743
% V (V) @ t=0.82
0.013499270591789781
% es.normE (V/m) @ t=0.84
2.7988676700235695
% es.EX (V/m) @ t=0.84
-0.9976191738513565
% es.EY (V/m) @ t=0.84
0.3169489311055711
% es.EZ (V/m) @ t=0.84
2.5877185753031666
% es.tEX (V/m) @ t=0.84
-0.9976191738513707
% es.tEY (V/m) @ t=0.84
0
% es.tEZ (V/m) @ t=0.84
2.5877185753031675
% es.Ex (V/m) @ t=0.84
-0.9976191738513565
% es.Ey (V/m) @ t=0.84
0.3169489311055711
% es.Ez (V/m) @ t=0.84
2.5877185753031666
% es.tEx (V/m) @ t=0.84
-0.9976191738513707
% es.tEy (V/m) @ t=0.84
0
% es.tEz (V/m) @ t=0.84
2.5877185753031675
% V (V) @ t=0.84
0.013627526888991725
% es.normE (V/m) @ t=0.86
2.825211334249089
% es.EX (V/m) @ t=0.86
-1.0070090793379072
% es.EY (V/m) @ t=0.86
0.31993193678567056
% es.EZ (V/m) @ t=0.86
2.612074844220608
% es.tEX (V/m) @ t=0.86
-1.0070090793379214
% es.tEY (V/m) @ t=0.86
0
% es.tEZ (V/m) @ t=0.86
2.612074844220606
% es.Ex (V/m) @ t=0.86
-1.0070090793379072
% es.Ey (V/m) @ t=0.86
0.31993193678567056
% es.Ez (V/m) @ t=0.86
2.612074844220608
% es.tEx (V/m) @ t=0.86
-1.0070090793379214
% es.tEy (V/m) @ t=0.86
0
% es.tEz (V/m) @ t=0.86
2.612074844220606
% V (V) @ t=0.86
0.013755783186193672
% es.normE (V/m) @ t=0.88
2.851554998474633
% es.EX (V/m) @ t=0.88
-1.0163989848244863
% es.EY (V/m) @ t=0.88
0.3229149424657669
% es.EZ (V/m) @ t=0.88
2.636431113138043
% es.tEX (V/m) @ t=0.88
-1.0163989848245005
% es.tEY (V/m) @ t=0.88
0
% es.tEZ (V/m) @ t=0.88
2.6364311131380465
% es.Ex (V/m) @ t=0.88
-1.0163989848244863
% es.Ey (V/m) @ t=0.88
0.3229149424657669
% es.Ez (V/m) @ t=0.88
2.636431113138043
% es.tEx (V/m) @ t=0.88
-1.0163989848245005
% es.tEy (V/m) @ t=0.88
0
% es.tEz (V/m) @ t=0.88
2.6364311131380465
% V (V) @ t=0.88
0.013884039483395618
% es.normE (V/m) @ t=0.9
2.8778986627001695
% es.EX (V/m) @ t=0.9
-1.0257888903110404
% es.EY (V/m) @ t=0.9
0.32589794814587747
% es.EZ (V/m) @ t=0.9
2.6607873820554593
% es.tEX (V/m) @ t=0.9
-1.0257888903110581
% es.tEY (V/m) @ t=0.9
0
% es.tEZ (V/m) @ t=0.9
2.6607873820554637
% es.Ex (V/m) @ t=0.9
-1.0257888903110404
% es.Ey (V/m) @ t=0.9
0.32589794814587747
% es.Ez (V/m) @ t=0.9
2.6607873820554593
% es.tEx (V/m) @ t=0.9
-1.0257888903110581
% es.tEy (V/m) @ t=0.9
0
% es.tEz (V/m) @ t=0.9
2.6607873820554637
% V (V) @ t=0.9
0.014012295780597567
% es.normE (V/m) @ t=0.92
2.9042423269257602
% es.EX (V/m) @ t=0.92
-1.0351787957976195
% es.EY (V/m) @ t=0.92
0.3288809538259627
% es.EZ (V/m) @ t=0.92
2.6851436509729067
% es.tEX (V/m) @ t=0.92
-1.0351787957976373
% es.tEY (V/m) @ t=0.92
0
% es.tEZ (V/m) @ t=0.92
2.6851436509729005
% es.Ex (V/m) @ t=0.92
-1.0351787957976195
% es.Ey (V/m) @ t=0.92
0.3288809538259627
% es.Ez (V/m) @ t=0.92
2.6851436509729067
% es.tEx (V/m) @ t=0.92
-1.0351787957976373
% es.tEy (V/m) @ t=0.92
0
% es.tEz (V/m) @ t=0.92
2.6851436509729005
% V (V) @ t=0.92
0.014140552077799512
% es.normE (V/m) @ t=0.94
2.9305859911513306
% es.EX (V/m) @ t=0.94
-1.0445687012841558
% es.EY (V/m) @ t=0.94
0.33186395950607683
% es.EZ (V/m) @ t=0.94
2.7094999198903293
% es.tEX (V/m) @ t=0.94
-1.0445687012841736
% es.tEY (V/m) @ t=0.94
0
% es.tEZ (V/m) @ t=0.94
2.709499919890332
% es.Ex (V/m) @ t=0.94
-1.0445687012841558
% es.Ey (V/m) @ t=0.94
0.33186395950607683
% es.Ez (V/m) @ t=0.94
2.7094999198903293
% es.tEx (V/m) @ t=0.94
-1.0445687012841736
% es.tEy (V/m) @ t=0.94
0
% es.tEz (V/m) @ t=0.94
2.709499919890332
% V (V) @ t=0.94
0.014268808375001461
% es.normE (V/m) @ t=0.96
2.9569296553769426
% es.EX (V/m) @ t=0.96
-1.0539586067707314
% es.EY (V/m) @ t=0.96
0.3348469651861621
% es.EZ (V/m) @ t=0.96
2.7338561888077644
% es.tEX (V/m) @ t=0.96
-1.0539586067707385
% es.tEY (V/m) @ t=0.96
0
% es.tEZ (V/m) @ t=0.96
2.7338561888077724
% es.Ex (V/m) @ t=0.96
-1.0539586067707314
% es.Ey (V/m) @ t=0.96
0.3348469651861621
% es.Ez (V/m) @ t=0.96
2.7338561888077644
% es.tEx (V/m) @ t=0.96
-1.0539586067707385
% es.tEy (V/m) @ t=0.96
0
% es.tEz (V/m) @ t=0.96
2.7338561888077724
% V (V) @ t=0.96
0.014397064672203403
% es.normE (V/m) @ t=0.98
2.9832733196025645
% es.EX (V/m) @ t=0.98
-1.0633485122572892
% es.EY (V/m) @ t=0.98
0.33782997086626554
% es.EZ (V/m) @ t=0.98
2.7582124577252003
% es.tEX (V/m) @ t=0.98
-1.0633485122573034
% es.tEY (V/m) @ t=0.98
0
% es.tEZ (V/m) @ t=0.98
2.7582124577251967
% es.Ex (V/m) @ t=0.98
-1.0633485122572892
% es.Ey (V/m) @ t=0.98
0.33782997086626554
% es.Ez (V/m) @ t=0.98
2.7582124577252003
% es.tEx (V/m) @ t=0.98
-1.0633485122573034
% es.tEy (V/m) @ t=0.98
0
% es.tEz (V/m) @ t=0.98
2.7582124577251967
% V (V) @ t=0.98
0.014525320969405352
% es.normE (V/m) @ t=1
3.009616983828195
% es.EX (V/m) @ t=1
-1.072738417743854
% es.EY (V/m) @ t=1
0.34081297654636367
% es.EZ (V/m) @ t=1
2.782568726642623
% es.tEX (V/m) @ t=1
-1.0727384177438681
% es.tEY (V/m) @ t=1
0
% es.tEZ (V/m) @ t=1
2.7825687266426353
% es.Ex (V/m) @ t=1
-1.072738417743854
% es.Ey (V/m) @ t=1
0.34081297654636367
% es.Ez (V/m) @ t=1
2.782568726642623
% es.tEx (V/m) @ t=1
-1.0727384177438681
% es.tEy (V/m) @ t=1
0
% es.tEz (V/m) @ t=1
2.7825687266426353
% V (V) @ t=1
0.014653577266607301
% es.normE (V/m) @ t=1.02
3.0359606480538477
% es.EX (V/m) @ t=1.02
-1.0821283232304189
% es.EY (V/m) @ t=1.02
0.3437959822264629
% es.EZ (V/m) @ t=1.02
2.8069249955600553
% es.tEX (V/m) @ t=1.02
-1.0821283232304473
% es.tEY (V/m) @ t=1.02
0
% es.tEZ (V/m) @ t=1.02
2.8069249955600597
% es.Ex (V/m) @ t=1.02
-1.0821283232304189
% es.Ey (V/m) @ t=1.02
0.3437959822264629
% es.Ez (V/m) @ t=1.02
2.8069249955600553
% es.tEx (V/m) @ t=1.02
-1.0821283232304473
% es.tEy (V/m) @ t=1.02
0
% es.tEz (V/m) @ t=1.02
2.8069249955600597
% V (V) @ t=1.02
0.014781833563809247
% es.normE (V/m) @ t=1.04
3.0623043122795117
% es.EX (V/m) @ t=1.04
-1.0915182287169765
% es.EY (V/m) @ t=1.04
0.3467789879065726
% es.EZ (V/m) @ t=1.04
2.831281264477483
% es.tEX (V/m) @ t=1.04
-1.0915182287169978
% es.tEY (V/m) @ t=1.04
0
% es.tEZ (V/m) @ t=1.04