% Model:              1 neuron.mph
% Version:            COMSOL 6.1.0.252
% Date:               Mar 18 2023, 13:22
% Dimension:          0
% Nodes:              14017
% Expressions:        14017
% Description:        Electric field norm, Electric field, X component, Electric field, Y component, Electric field, Z component, Tangential electric field, X component, Tangential electric field, Y component, Tangential electric field, Z component, Electric field, x component, Electric field, y component, Electric field, z component, Tangential electric field, x component, Tangential electric field, y component, Tangential electric field, z component, Electric potential
% Length unit:        mm
% x
2
% y
12.2
% z
1
% es.normE (V/m) @ t=0
1.1706138464374185
% es.EX (V/m) @ t=0
-0.7559673874623667
% es.EY (V/m) @ t=0
0.16795816818870346
% es.EZ (V/m) @ t=0
0.86214978785332
% es.tEX (V/m) @ t=0
-0.7559673874623676
% es.tEY (V/m) @ t=0
0
% es.tEZ (V/m) @ t=0
0.8621497878533315
% es.Ex (V/m) @ t=0
-0.7559673874623667
% es.Ey (V/m) @ t=0
0.16795816818870346
% es.Ez (V/m) @ t=0
0.86214978785332
% es.tEx (V/m) @ t=0
-0.7559673874623676
% es.tEy (V/m) @ t=0
0
% es.tEz (V/m) @ t=0
0.8621497878533315
% V (V) @ t=0
0.011329234103995427
% es.normE (V/m) @ t=0.02
1.0110716077117705
% es.EX (V/m) @ t=0.02
-0.6529370587066434
% es.EY (V/m) @ t=0.02
0.14506725314709845
% es.EZ (V/m) @ t=0.02
0.7446479253264755
% es.tEX (V/m) @ t=0.02
-0.6529370587066412
% es.tEY (V/m) @ t=0.02
0
% es.tEZ (V/m) @ t=0.02
0.7446479253264977
% es.Ex (V/m) @ t=0.02
-0.6529370587066434
% es.Ey (V/m) @ t=0.02
0.14506725314709845
% es.Ez (V/m) @ t=0.02
0.7446479253264755
% es.tEx (V/m) @ t=0.02
-0.6529370587066412
% es.tEy (V/m) @ t=0.02
0
% es.tEz (V/m) @ t=0.02
0.7446479253264977
% V (V) @ t=0.02
0.009785179772601722
% es.normE (V/m) @ t=0.04
1.0203731073944544
% es.EX (V/m) @ t=0.04
-0.6589438477076097
% es.EY (V/m) @ t=0.04
0.1464018203984424
% es.EZ (V/m) @ t=0.04
0.7514984217674341
% es.tEX (V/m) @ t=0.04
-0.6589438477076075
% es.tEY (V/m) @ t=0.04
0
% es.tEZ (V/m) @ t=0.04
0.7514984217674314
% es.Ex (V/m) @ t=0.04
-0.6589438477076097
% es.Ey (V/m) @ t=0.04
0.1464018203984424
% es.Ez (V/m) @ t=0.04
0.7514984217674341
% es.tEx (V/m) @ t=0.04
-0.6589438477076075
% es.tEy (V/m) @ t=0.04
0
% es.tEz (V/m) @ t=0.04
0.7514984217674314
% V (V) @ t=0.04
0.0098751999458233
% es.normE (V/m) @ t=0.06
1.029747975791277
% es.EX (V/m) @ t=0.06
-0.664998017438363
% es.EY (V/m) @ t=0.06
0.147746914297044
% es.EZ (V/m) @ t=0.06
0.7584029537550441
% es.tEX (V/m) @ t=0.06
-0.6649980174383572
% es.tEY (V/m) @ t=0.06
0
% es.tEZ (V/m) @ t=0.06
0.7584029537550441
% es.Ex (V/m) @ t=0.06
-0.664998017438363
% es.Ey (V/m) @ t=0.06
0.147746914297044
% es.Ez (V/m) @ t=0.06
0.7584029537550441
% es.tEx (V/m) @ t=0.06
-0.6649980174383572
% es.tEy (V/m) @ t=0.06
0
% es.tEz (V/m) @ t=0.06
0.7584029537550441
% V (V) @ t=0.06
0.00996593021179035
% es.normE (V/m) @ t=0.08
1.0392901602750029
% es.EX (V/m) @ t=0.08
-0.6711602376484889
% es.EY (V/m) @ t=0.08
0.1491160146164311
% es.EZ (V/m) @ t=0.08
0.7654307130316669
% es.tEX (V/m) @ t=0.08
-0.6711602376484902
% es.tEY (V/m) @ t=0.08
0
% es.tEZ (V/m) @ t=0.08
0.7654307130316855
% es.Ex (V/m) @ t=0.08
-0.6711602376484889
% es.Ey (V/m) @ t=0.08
0.1491160146164311
% es.Ez (V/m) @ t=0.08
0.7654307130316669
% es.tEx (V/m) @ t=0.08
-0.6711602376484902
% es.tEy (V/m) @ t=0.08
0
% es.tEz (V/m) @ t=0.08
0.7654307130316855
% V (V) @ t=0.08
0.010058279748992302
% es.normE (V/m) @ t=0.1
1.0488982455434805
% es.EX (V/m) @ t=0.1
-0.677365015699368
% es.EY (V/m) @ t=0.1
0.15049457034438396
% es.EZ (V/m) @ t=0.1
0.77250700783887
% es.tEX (V/m) @ t=0.1
-0.6773650156993658
% es.tEY (V/m) @ t=0.1
0
% es.tEZ (V/m) @ t=0.1
0.7725070078388772
% es.Ex (V/m) @ t=0.1
-0.677365015699368
% es.Ey (V/m) @ t=0.1
0.15049457034438396
% es.Ez (V/m) @ t=0.1
0.77250700783887
% es.tEx (V/m) @ t=0.1
-0.6773650156993658
% es.tEy (V/m) @ t=0.1
0
% es.tEz (V/m) @ t=0.1
0.7725070078388772
% V (V) @ t=0.1
0.01015126706853213
% es.normE (V/m) @ t=0.12
1.0585063308119533
% es.EX (V/m) @ t=0.12
-0.6835697937502485
% es.EY (V/m) @ t=0.12
0.1518731260723618
% es.EZ (V/m) @ t=0.12
0.7795833026460599
% es.tEX (V/m) @ t=0.12
-0.6835697937502463
% es.tEY (V/m) @ t=0.12
0
% es.tEZ (V/m) @ t=0.12
0.7795833026460679
% es.Ex (V/m) @ t=0.12
-0.6835697937502485
% es.Ey (V/m) @ t=0.12
0.1518731260723618
% es.Ez (V/m) @ t=0.12
0.7795833026460599
% es.tEx (V/m) @ t=0.12
-0.6835697937502463
% es.tEy (V/m) @ t=0.12
0
% es.tEz (V/m) @ t=0.12
0.7795833026460679
% V (V) @ t=0.12
0.010244254388071961
% es.normE (V/m) @ t=0.14
1.068333253973975
% es.EX (V/m) @ t=0.14
-0.6899158945263328
% es.EY (V/m) @ t=0.14
0.1532830803554479
% es.EZ (V/m) @ t=0.14
0.7868207701850389
% es.tEX (V/m) @ t=0.14
-0.689915894526334
% es.tEY (V/m) @ t=0.14
0
% es.tEZ (V/m) @ t=0.14
0.7868207701850469
% es.Ex (V/m) @ t=0.14
-0.6899158945263328
% es.Ey (V/m) @ t=0.14
0.1532830803554479
% es.Ez (V/m) @ t=0.14
0.7868207701850389
% es.tEx (V/m) @ t=0.14
-0.689915894526334
% es.tEy (V/m) @ t=0.14
0
% es.tEz (V/m) @ t=0.14
0.7868207701850469
% V (V) @ t=0.14
0.010339359631843115
% es.normE (V/m) @ t=0.16
1.0784337262415624
% es.EX (V/m) @ t=0.16
-0.6964386498317243
% es.EY (V/m) @ t=0.16
0.15473228308191844
% es.EZ (V/m) @ t=0.16
0.7942597049192175
% es.tEX (V/m) @ t=0.16
-0.6964386498317219
% es.tEY (V/m) @ t=0.16
0
% es.tEZ (V/m) @ t=0.16
0.7942597049192317
% es.Ex (V/m) @ t=0.16
-0.6964386498317243
% es.Ey (V/m) @ t=0.16
0.15473228308191844
% es.Ez (V/m) @ t=0.16
0.7942597049192175
% es.tEx (V/m) @ t=0.16
-0.6964386498317219
% es.tEy (V/m) @ t=0.16
0
% es.tEz (V/m) @ t=0.16
0.7942597049192317
% V (V) @ t=0.16
0.01043711229772984
% es.normE (V/m) @ t=0.18
1.0885341985091483
% es.EX (V/m) @ t=0.18
-0.7029614051371165
% es.EY (V/m) @ t=0.18
0.1561814858083801
% es.EZ (V/m) @ t=0.18
0.8016986396534014
% es.tEX (V/m) @ t=0.18
-0.702961405137114
% es.tEY (V/m) @ t=0.18
0
% es.tEZ (V/m) @ t=0.18
0.8016986396534023
% es.Ex (V/m) @ t=0.18
-0.7029614051371165
% es.Ey (V/m) @ t=0.18
0.1561814858083801
% es.Ez (V/m) @ t=0.18
0.8016986396534014
% es.tEx (V/m) @ t=0.18
-0.702961405137114
% es.tEy (V/m) @ t=0.18
0
% es.tEz (V/m) @ t=0.18
0.8016986396534023
% V (V) @ t=0.18
0.010534864963616566
% es.normE (V/m) @ t=0.2
1.098634670776736
% es.EX (V/m) @ t=0.2
-0.7094841604425035
% es.EY (V/m) @ t=0.2
0.15763068853483986
% es.EZ (V/m) @ t=0.2
0.809137574387587
% es.tEX (V/m) @ t=0.2
-0.7094841604425046
% es.tEY (V/m) @ t=0.2
0
% es.tEZ (V/m) @ t=0.2
0.8091375743876021
% es.Ex (V/m) @ t=0.2
-0.7094841604425035
% es.Ey (V/m) @ t=0.2
0.15763068853483986
% es.Ez (V/m) @ t=0.2
0.809137574387587
% es.tEx (V/m) @ t=0.2
-0.7094841604425046
% es.tEy (V/m) @ t=0.2
0
% es.tEz (V/m) @ t=0.2
0.8091375743876021
% V (V) @ t=0.2
0.010632617629503294
% es.normE (V/m) @ t=0.22
1.1087351430443255
% es.EX (V/m) @ t=0.22
-0.7160069157478921
% es.EY (V/m) @ t=0.22
0.15907989126129973
% es.EZ (V/m) @ t=0.22
0.8165765091217754
% es.tEX (V/m) @ t=0.22
-0.7160069157478932
% es.tEY (V/m) @ t=0.22
0
% es.tEZ (V/m) @ t=0.22
0.8165765091217789
% es.Ex (V/m) @ t=0.22
-0.7160069157478921
% es.Ey (V/m) @ t=0.22
0.15907989126129973
% es.Ez (V/m) @ t=0.22
0.8165765091217754
% es.tEx (V/m) @ t=0.22
-0.7160069157478932
% es.tEy (V/m) @ t=0.22
0
% es.tEz (V/m) @ t=0.22
0.8165765091217789
% V (V) @ t=0.22
0.01073037029539002
% es.normE (V/m) @ t=0.24
1.118835615311919
% es.EX (V/m) @ t=0.24
-0.7225296710532902
% es.EY (V/m) @ t=0.24
0.16052909398777016
% es.EZ (V/m) @ t=0.24
0.8240154438559575
% es.tEX (V/m) @ t=0.24
-0.7225296710532878
% es.tEY (V/m) @ t=0.24
0
% es.tEZ (V/m) @ t=0.24
0.8240154438559646
% es.Ex (V/m) @ t=0.24
-0.7225296710532902
% es.Ey (V/m) @ t=0.24
0.16052909398777016
% es.Ez (V/m) @ t=0.24
0.8240154438559575
% es.tEx (V/m) @ t=0.24
-0.7225296710532878
% es.tEy (V/m) @ t=0.24
0
% es.tEz (V/m) @ t=0.24
0.8240154438559646
% V (V) @ t=0.24
0.010828122961276743
% es.normE (V/m) @ t=0.26
1.1289360875794996
% es.EX (V/m) @ t=0.26
-0.7290524263586788
% es.EY (V/m) @ t=0.26
0.1619782967142248
% es.EZ (V/m) @ t=0.26
0.8314543785901343
% es.tEX (V/m) @ t=0.26
-0.7290524263586764
% es.tEY (V/m) @ t=0.26
0
% es.tEZ (V/m) @ t=0.26
0.8314543785901423
% es.Ex (V/m) @ t=0.26
-0.7290524263586788
% es.Ey (V/m) @ t=0.26
0.1619782967142248
% es.Ez (V/m) @ t=0.26
0.8314543785901343
% es.tEx (V/m) @ t=0.26
-0.7290524263586764
% es.tEy (V/m) @ t=0.26
0
% es.tEz (V/m) @ t=0.26
0.8314543785901423
% V (V) @ t=0.26
0.01092587562716347
% es.normE (V/m) @ t=0.28
1.140027093017504
% es.EX (V/m) @ t=0.28
-0.7362148575327134
% es.EY (V/m) @ t=0.28
0.16356961639317702
% es.EZ (V/m) @ t=0.28
0.8396228342205587
% es.tEX (V/m) @ t=0.28
-0.7362148575327108
% es.tEY (V/m) @ t=0.28
0
% es.tEZ (V/m) @ t=0.28
0.8396228342205596
% es.Ex (V/m) @ t=0.28
-0.7362148575327134
% es.Ey (V/m) @ t=0.28
0.16356961639317702
% es.Ez (V/m) @ t=0.28
0.8396228342205587
% es.tEx (V/m) @ t=0.28
-0.7362148575327108
% es.tEy (V/m) @ t=0.28
0
% es.tEz (V/m) @ t=0.28
0.8396228342205596
% V (V) @ t=0.28
0.011033215082951605
% es.normE (V/m) @ t=0.3
1.1512300262811146
% es.EX (V/m) @ t=0.3
-0.7434495705153843
% es.EY (V/m) @ t=0.3
0.16517699494014126
% es.EZ (V/m) @ t=0.3
0.8478737239279956
% es.tEX (V/m) @ t=0.3
-0.7434495705153816
% es.tEY (V/m) @ t=0.3
0
% es.tEZ (V/m) @ t=0.3
0.8478737239280107
% es.Ex (V/m) @ t=0.3
-0.7434495705153843
% es.Ey (V/m) @ t=0.3
0.16517699494014126
% es.Ez (V/m) @ t=0.3
0.8478737239279956
% es.tEx (V/m) @ t=0.3
-0.7434495705153816
% es.tEy (V/m) @ t=0.3
0
% es.tEz (V/m) @ t=0.3
0.8478737239280107
% V (V) @ t=0.3
0.011141637822551067
% es.normE (V/m) @ t=0.32
1.16243295954472
% es.EX (V/m) @ t=0.32
-0.7506842834980447
% es.EY (V/m) @ t=0.32
0.16678437348711972
% es.EZ (V/m) @ t=0.32
0.8561246136354281
% es.tEX (V/m) @ t=0.32
-0.7506842834980421
% es.tEY (V/m) @ t=0.32
0
% es.tEZ (V/m) @ t=0.32
0.8561246136354255
% es.Ex (V/m) @ t=0.32
-0.7506842834980447
% es.Ey (V/m) @ t=0.32
0.16678437348711972
% es.Ez (V/m) @ t=0.32
0.8561246136354281
% es.tEx (V/m) @ t=0.32
-0.7506842834980421
% es.tEy (V/m) @ t=0.32
0
% es.tEz (V/m) @ t=0.32
0.8561246136354255
% V (V) @ t=0.32
0.011250060562150528
% es.normE (V/m) @ t=0.34
1.1736358928083257
% es.EX (V/m) @ t=0.34
-0.7579189964807165
% es.EY (V/m) @ t=0.34
0.16839175203410717
% es.EZ (V/m) @ t=0.34
0.8643755033428571
% es.tEX (V/m) @ t=0.34
-0.7579189964807174
% es.tEY (V/m) @ t=0.34
0
% es.tEZ (V/m) @ t=0.34
0.8643755033428686
% es.Ex (V/m) @ t=0.34
-0.7579189964807165
% es.Ey (V/m) @ t=0.34
0.16839175203410717
% es.Ez (V/m) @ t=0.34
0.8643755033428571
% es.tEx (V/m) @ t=0.34
-0.7579189964807174
% es.tEy (V/m) @ t=0.34
0
% es.tEz (V/m) @ t=0.34
0.8643755033428686
% V (V) @ t=0.34
0.011358483301749985
% es.normE (V/m) @ t=0.36
1.1848388260719427
% es.EX (V/m) @ t=0.36
-0.7651537094633847
% es.EY (V/m) @ t=0.36
0.16999913058109117
% es.EZ (V/m) @ t=0.36
0.8726263930502958
% es.tEX (V/m) @ t=0.36
-0.7651537094633785
% es.tEY (V/m) @ t=0.36
0
% es.tEZ (V/m) @ t=0.36
0.8726263930503109
% es.Ex (V/m) @ t=0.36
-0.7651537094633847
% es.Ey (V/m) @ t=0.36
0.16999913058109117
% es.Ez (V/m) @ t=0.36
0.8726263930502958
% es.tEx (V/m) @ t=0.36
-0.7651537094633785
% es.tEy (V/m) @ t=0.36
0
% es.tEz (V/m) @ t=0.36
0.8726263930503109
% V (V) @ t=0.36
0.011466906041349445
% es.normE (V/m) @ t=0.38
1.1960417593355448
% es.EX (V/m) @ t=0.38
-0.7723884224460493
% es.EY (V/m) @ t=0.38
0.17160650912806963
% es.EZ (V/m) @ t=0.38
0.8808772827577247
% es.tEX (V/m) @ t=0.38
-0.7723884224460467
% es.tEY (V/m) @ t=0.38
0
% es.tEZ (V/m) @ t=0.38
0.8808772827577256
% es.Ex (V/m) @ t=0.38
-0.7723884224460493
% es.Ey (V/m) @ t=0.38
0.17160650912806963
% es.Ez (V/m) @ t=0.38
0.8808772827577247
% es.tEx (V/m) @ t=0.38
-0.7723884224460467
% es.tEy (V/m) @ t=0.38
0
% es.tEz (V/m) @ t=0.38
0.8808772827577256
% V (V) @ t=0.38
0.011575328780948902
% es.normE (V/m) @ t=0.4
1.2072446925991451
% es.EX (V/m) @ t=0.4
-0.7796231354287133
% es.EY (V/m) @ t=0.4
0.17321388767504287
% es.EZ (V/m) @ t=0.4
0.8891281724651536
% es.tEX (V/m) @ t=0.4
-0.7796231354287106
% es.tEY (V/m) @ t=0.4
0
% es.tEZ (V/m) @ t=0.4
0.8891281724651545
% es.Ex (V/m) @ t=0.4
-0.7796231354287133
% es.Ey (V/m) @ t=0.4
0.17321388767504287
% es.Ez (V/m) @ t=0.4
0.8891281724651536
% es.tEx (V/m) @ t=0.4
-0.7796231354287106
% es.tEy (V/m) @ t=0.4
0
% es.tEz (V/m) @ t=0.4
0.8891281724651545
% V (V) @ t=0.4
0.011683751520548366
% es.normE (V/m) @ t=0.42
1.2184476258627535
% es.EX (V/m) @ t=0.42
-0.7868578484113851
% es.EY (V/m) @ t=0.42
0.17482126622204275
% es.EZ (V/m) @ t=0.42
0.8973790621725763
% es.tEX (V/m) @ t=0.42
-0.7868578484113824
% es.tEY (V/m) @ t=0.42
0
% es.tEZ (V/m) @ t=0.42
0.8973790621725692
% es.Ex (V/m) @ t=0.42
-0.7868578484113851
% es.Ey (V/m) @ t=0.42
0.17482126622204275
% es.Ez (V/m) @ t=0.42
0.8973790621725763
% es.tEx (V/m) @ t=0.42
-0.7868578484113824
% es.tEy (V/m) @ t=0.42
0
% es.tEz (V/m) @ t=0.42
0.8973790621725692
% V (V) @ t=0.42
0.011792174260147824
% es.normE (V/m) @ t=0.44
1.229650559126362
% es.EX (V/m) @ t=0.44
-0.7940925613940535
% es.EY (V/m) @ t=0.44
0.17642864476900888
% es.EZ (V/m) @ t=0.44
0.9056299518800115
% es.tEX (V/m) @ t=0.44
-0.7940925613940504
% es.tEY (V/m) @ t=0.44
0
% es.tEZ (V/m) @ t=0.44
0.9056299518800257
% es.Ex (V/m) @ t=0.44
-0.7940925613940535
% es.Ey (V/m) @ t=0.44
0.17642864476900888
% es.Ez (V/m) @ t=0.44
0.9056299518800115
% es.tEx (V/m) @ t=0.44
-0.7940925613940504
% es.tEy (V/m) @ t=0.44
0
% es.tEz (V/m) @ t=0.44
0.9056299518800257
% V (V) @ t=0.44
0.011900596999747283
% es.normE (V/m) @ t=0.46
1.2408534923899643
% es.EX (V/m) @ t=0.46
-0.8013272743767175
% es.EY (V/m) @ t=0.46
0.17803602331599444
% es.EZ (V/m) @ t=0.46
0.9138808415874378
% es.tEX (V/m) @ t=0.46
-0.8013272743767148
% es.tEY (V/m) @ t=0.46
0
% es.tEZ (V/m) @ t=0.46
0.9138808415874484
% es.Ex (V/m) @ t=0.46
-0.8013272743767175
% es.Ey (V/m) @ t=0.46
0.17803602331599444
% es.Ez (V/m) @ t=0.46
0.9138808415874378
% es.tEx (V/m) @ t=0.46
-0.8013272743767148
% es.tEy (V/m) @ t=0.46
0
% es.tEz (V/m) @ t=0.46
0.9138808415874484
% V (V) @ t=0.46
0.012009019739346745
% es.normE (V/m) @ t=0.48
1.2520564256535676
% es.EX (V/m) @ t=0.48
-0.8085619873593859
% es.EY (V/m) @ t=0.48
0.17964340186297134
% es.EZ (V/m) @ t=0.48
0.9221317312948623
% es.tEX (V/m) @ t=0.48
-0.8085619873593868
% es.tEY (V/m) @ t=0.48
0
% es.tEZ (V/m) @ t=0.48
0.9221317312948702
% es.Ex (V/m) @ t=0.48
-0.8085619873593859
% es.Ey (V/m) @ t=0.48
0.17964340186297134
% es.Ez (V/m) @ t=0.48
0.9221317312948623
% es.tEx (V/m) @ t=0.48
-0.8085619873593868
% es.tEy (V/m) @ t=0.48
0
% es.tEz (V/m) @ t=0.48
0.9221317312948702
% V (V) @ t=0.48
0.012117442478946203
% es.normE (V/m) @ t=0.5
1.2632593589171806
% es.EX (V/m) @ t=0.5
-0.815796700342053
% es.EY (V/m) @ t=0.5
0.1812507804099498
% es.EZ (V/m) @ t=0.5
0.9303826210023027
% es.tEX (V/m) @ t=0.5
-0.8157967003420539
% es.tEY (V/m) @ t=0.5
0
% es.tEZ (V/m) @ t=0.5
0.9303826210023143
% es.Ex (V/m) @ t=0.5
-0.815796700342053
% es.Ey (V/m) @ t=0.5
0.1812507804099498
% es.Ez (V/m) @ t=0.5
0.9303826210023027
% es.tEx (V/m) @ t=0.5
-0.8157967003420539
% es.tEy (V/m) @ t=0.5
0
% es.tEz (V/m) @ t=0.5
0.9303826210023143
% V (V) @ t=0.5
0.012225865218545663
% es.normE (V/m) @ t=0.52
1.274462292180789
% es.EX (V/m) @ t=0.52
-0.8230314133247147
% es.EY (V/m) @ t=0.52
0.18285815895692836
% es.EZ (V/m) @ t=0.52
0.9386335107097414
% es.tEX (V/m) @ t=0.52
-0.8230314133247081
% es.tEY (V/m) @ t=0.52
0
% es.tEZ (V/m) @ t=0.52
0.9386335107097423
% es.Ex (V/m) @ t=0.52
-0.8230314133247147
% es.Ey (V/m) @ t=0.52
0.18285815895692836
% es.Ez (V/m) @ t=0.52
0.9386335107097414
% es.tEx (V/m) @ t=0.52
-0.8230314133247081
% es.tEy (V/m) @ t=0.52
0
% es.tEz (V/m) @ t=0.52
0.9386335107097423
% V (V) @ t=0.52
0.012334287958145123
% es.normE (V/m) @ t=0.54
1.2866678299250194
% es.EX (V/m) @ t=0.54
-0.8309135936792615
% es.EY (V/m) @ t=0.54
0.18460939260640263
% es.EZ (V/m) @ t=0.54
0.9476228127922868
% es.tEX (V/m) @ t=0.54
-0.8309135936792624
% es.tEY (V/m) @ t=0.54
0
% es.tEZ (V/m) @ t=0.54
0.9476228127922948
% es.Ex (V/m) @ t=0.54
-0.8309135936792615
% es.Ey (V/m) @ t=0.54
0.18460939260640263
% es.Ez (V/m) @ t=0.54
0.9476228127922868
% es.tEx (V/m) @ t=0.54
-0.8309135936792624
% es.tEy (V/m) @ t=0.54
0
% es.tEz (V/m) @ t=0.54
0.9476228127922948
% V (V) @ t=0.54
0.012452413646403898
% es.normE (V/m) @ t=0.56
1.299113859641565
% es.EX (V/m) @ t=0.56
-0.8389510802470599
% es.EY (V/m) @ t=0.56
0.18639513238267547
% es.EZ (V/m) @ t=0.56
0.956789235815247
% es.tEX (V/m) @ t=0.56
-0.8389510802470608
% es.tEY (V/m) @ t=0.56
0
% es.tEZ (V/m) @ t=0.56
0.9567892358152621
% es.Ex (V/m) @ t=0.56
-0.8389510802470599
% es.Ey (V/m) @ t=0.56
0.18639513238267547
% es.Ez (V/m) @ t=0.56
0.956789235815247
% es.tEx (V/m) @ t=0.56
-0.8389510802470608
% es.tEy (V/m) @ t=0.56
0
% es.tEz (V/m) @ t=0.56
0.9567892358152621
% V (V) @ t=0.56
0.012572866754203925
% es.normE (V/m) @ t=0.58
1.3115598893581144
% es.EX (V/m) @ t=0.58
-0.8469885668148582
% es.EY (V/m) @ t=0.58
0.18818087215894475
% es.EZ (V/m) @ t=0.58
0.9659556588382108
% es.tEX (V/m) @ t=0.58
-0.8469885668148551
% es.tEY (V/m) @ t=0.58
0
% es.tEZ (V/m) @ t=0.58
0.9659556588382294
% es.Ex (V/m) @ t=0.58
-0.8469885668148582
% es.Ey (V/m) @ t=0.58
0.18818087215894475
% es.Ez (V/m) @ t=0.58
0.9659556588382108
% es.tEx (V/m) @ t=0.58
-0.8469885668148551
% es.tEy (V/m) @ t=0.58
0
% es.tEz (V/m) @ t=0.58
0.9659556588382294
% V (V) @ t=0.58
0.012693319862003956
% es.normE (V/m) @ t=0.6
1.3240059190746707
% es.EX (V/m) @ t=0.6
-0.8550260533826557
% es.EY (V/m) @ t=0.6
0.18996661193520692
% es.EZ (V/m) @ t=0.6
0.9751220818611888
% es.tEX (V/m) @ t=0.6
-0.855026053382649
% es.tEY (V/m) @ t=0.6
0
% es.tEZ (V/m) @ t=0.6
0.9751220818612039
% es.Ex (V/m) @ t=0.6
-0.8550260533826557
% es.Ey (V/m) @ t=0.6
0.18996661193520692
% es.Ez (V/m) @ t=0.6
0.9751220818611888
% es.tEx (V/m) @ t=0.6
-0.855026053382649
% es.tEy (V/m) @ t=0.6
0
% es.tEz (V/m) @ t=0.6
0.9751220818612039
% V (V) @ t=0.6
0.012813772969803985
% es.normE (V/m) @ t=0.62
1.3364519487912117
% es.EX (V/m) @ t=0.62
-0.8630635399504429
% es.EY (V/m) @ t=0.62
0.19175235171147087
% es.EZ (V/m) @ t=0.62
0.9842885048841516
% es.tEX (V/m) @ t=0.62
-0.8630635399504403
% es.tEY (V/m) @ t=0.62
0
% es.tEZ (V/m) @ t=0.62
0.9842885048841632
% es.Ex (V/m) @ t=0.62
-0.8630635399504429
% es.Ey (V/m) @ t=0.62
0.19175235171147087
% es.Ez (V/m) @ t=0.62
0.9842885048841516
% es.tEx (V/m) @ t=0.62
-0.8630635399504403
% es.tEy (V/m) @ t=0.62
0
% es.tEz (V/m) @ t=0.62
0.9842885048841632
% V (V) @ t=0.62
0.012934226077604015
% es.normE (V/m) @ t=0.64
1.3488979785077548
% es.EX (V/m) @ t=0.64
-0.8711010265182382
% es.EY (V/m) @ t=0.64
0.1935380914877527
% es.EZ (V/m) @ t=0.64
0.9934549279071074
% es.tEX (V/m) @ t=0.64
-0.8711010265182351
% es.tEY (V/m) @ t=0.64
0
% es.tEZ (V/m) @ t=0.64
0.9934549279071225
% es.Ex (V/m) @ t=0.64
-0.8711010265182382
% es.Ey (V/m) @ t=0.64
0.1935380914877527
% es.Ez (V/m) @ t=0.64
0.9934549279071074
% es.tEx (V/m) @ t=0.64
-0.8711010265182351
% es.tEy (V/m) @ t=0.64
0
% es.tEz (V/m) @ t=0.64
0.9934549279071225
% V (V) @ t=0.64
0.013054679185404042
% es.normE (V/m) @ t=0.66
1.3613440082243131
% es.EX (V/m) @ t=0.66
-0.8791385130860436
% es.EY (V/m) @ t=0.66
0.19532383126401487
% es.EZ (V/m) @ t=0.66
1.0026213509300819
% es.tEX (V/m) @ t=0.66
-0.8791385130860405
% es.tEY (V/m) @ t=0.66
0
% es.tEZ (V/m) @ t=0.66
1.0026213509300899
% es.Ex (V/m) @ t=0.66
-0.8791385130860436
% es.Ey (V/m) @ t=0.66
0.19532383126401487
% es.Ez (V/m) @ t=0.66
1.0026213509300819
% es.tEx (V/m) @ t=0.66
-0.8791385130860405
% es.tEy (V/m) @ t=0.66
0
% es.tEz (V/m) @ t=0.66
1.0026213509300899
% V (V) @ t=0.66
0.013175132293204073
% es.normE (V/m) @ t=0.68
1.3737900379408505
% es.EX (V/m) @ t=0.68
-0.8871759996538304
% es.EY (V/m) @ t=0.68
0.19710957104026805
% es.EZ (V/m) @ t=0.68
1.011787773953043
% es.tEX (V/m) @ t=0.68
-0.887175999653834
% es.tEY (V/m) @ t=0.68
0
% es.tEZ (V/m) @ t=0.68
1.011787773953058
% es.Ex (V/m) @ t=0.68
-0.8871759996538304
% es.Ey (V/m) @ t=0.68
0.19710957104026805
% es.Ez (V/m) @ t=0.68
1.011787773953043
% es.tEx (V/m) @ t=0.68
-0.887175999653834
% es.tEy (V/m) @ t=0.68
0
% es.tEz (V/m) @ t=0.68
1.011787773953058
% V (V) @ t=0.68
0.0132955854010041
% es.normE (V/m) @ t=0.7
1.3862360676573964
% es.EX (V/m) @ t=0.7
-0.8952134862216288
% es.EY (V/m) @ t=0.7
0.1988953108165482
% es.EZ (V/m) @ t=0.7
1.0209541969759979
% es.tEX (V/m) @ t=0.7
-0.8952134862216332
% es.tEY (V/m) @ t=0.7
0
% es.tEZ (V/m) @ t=0.7
1.0209541969760156
% es.Ex (V/m) @ t=0.7
-0.8952134862216288
% es.Ey (V/m) @ t=0.7
0.1988953108165482
% es.Ez (V/m) @ t=0.7
1.0209541969759979
% es.tEx (V/m) @ t=0.7
-0.8952134862216332
% es.tEy (V/m) @ t=0.7
0
% es.tEz (V/m) @ t=0.7
1.0209541969760156
% V (V) @ t=0.7
0.01341603850880413
% es.normE (V/m) @ t=0.72
1.3986820973739582
% es.EX (V/m) @ t=0.72
-0.9032509727894227
% es.EY (V/m) @ t=0.72
0.2006810505928297
% es.EZ (V/m) @ t=0.72
1.0301206199989803
% es.tEX (V/m) @ t=0.72
-0.9032509727894236
% es.tEY (V/m) @ t=0.72
0
% es.tEZ (V/m) @ t=0.72
1.0301206199989847
% es.Ex (V/m) @ t=0.72
-0.9032509727894227
% es.Ey (V/m) @ t=0.72
0.2006810505928297
% es.Ez (V/m) @ t=0.72
1.0301206199989803
% es.tEx (V/m) @ t=0.72
-0.9032509727894236
% es.tEy (V/m) @ t=0.72
0
% es.tEz (V/m) @ t=0.72
1.0301206199989847
% V (V) @ t=0.72
0.013536491616604158
% es.normE (V/m) @ t=0.74
1.4111281270905023
% es.EX (V/m) @ t=0.74
-0.9112884593572215
% es.EY (V/m) @ t=0.74
0.2024667903690831
% es.EZ (V/m) @ t=0.74
1.0392870430219432
% es.tEX (V/m) @ t=0.74
-0.9112884593572184
% es.tEY (V/m) @ t=0.74
0
% es.tEZ (V/m) @ t=0.74
1.0392870430219583
% es.Ex (V/m) @ t=0.74
-0.9112884593572215
% es.Ey (V/m) @ t=0.74
0.2024667903690831
% es.Ez (V/m) @ t=0.74
1.0392870430219432
% es.tEx (V/m) @ t=0.74
-0.9112884593572184
% es.tEy (V/m) @ t=0.74
0
% es.tEz (V/m) @ t=0.74
1.0392870430219583
% V (V) @ t=0.74
0.013656944724404188
% es.normE (V/m) @ t=0.76
1.4235741568070521
% es.EX (V/m) @ t=0.76
-0.9193259459250154
% es.EY (V/m) @ t=0.76
0.2042525301453506
% es.EZ (V/m) @ t=0.76
1.048453466044914
% es.tEX (V/m) @ t=0.76
-0.9193259459250123
% es.tEY (V/m) @ t=0.76
0
% es.tEZ (V/m) @ t=0.76
1.0484534660449185
% es.Ex (V/m) @ t=0.76
-0.9193259459250154
% es.Ey (V/m) @ t=0.76
0.2042525301453506
% es.Ez (V/m) @ t=0.76
1.048453466044914
% es.tEx (V/m) @ t=0.76
-0.9193259459250123
% es.tEy (V/m) @ t=0.76
0
% es.tEz (V/m) @ t=0.76
1.0484534660449185
% V (V) @ t=0.76
0.013777397832204216
% es.normE (V/m) @ t=0.78
1.4360201865236022
% es.EX (V/m) @ t=0.78
-0.9273634324928133
% es.EY (V/m) @ t=0.78
0.20603826992162166
% es.EZ (V/m) @ t=0.78
1.0576198890678778
% es.tEX (V/m) @ t=0.78
-0.9273634324928106
% es.tEY (V/m) @ t=0.78
0
% es.tEZ (V/m) @ t=0.78
1.057619889067893
% es.Ex (V/m) @ t=0.78
-0.9273634324928133
% es.Ey (V/m) @ t=0.78
0.20603826992162166
% es.Ez (V/m) @ t=0.78
1.0576198890678778
% es.tEx (V/m) @ t=0.78
-0.9273634324928106
% es.tEy (V/m) @ t=0.78
0
% es.tEz (V/m) @ t=0.78
1.057619889067893
% V (V) @ t=0.78
0.013897850940004248
% es.normE (V/m) @ t=0.8
1.4494697156191045
% es.EX (V/m) @ t=0.8
-0.9360489662041473
% es.EY (V/m) @ t=0.8
0.2079679902472773
% es.EZ (V/m) @ t=0.8
1.0675253830959752
% es.tEX (V/m) @ t=0.8
-0.9360489662041438
% es.tEY (V/m) @ t=0.8
0
% es.tEZ (V/m) @ t=0.8
1.0675253830959903
% es.Ex (V/m) @ t=0.8
-0.9360489662041473
% es.Ey (V/m) @ t=0.8
0.2079679902472773
% es.Ez (V/m) @ t=0.8
1.0675253830959752
% es.tEx (V/m) @ t=0.8
-0.9360489662041438
% es.tEy (V/m) @ t=0.8
0
% es.tEz (V/m) @ t=0.8
1.0675253830959903
% V (V) @ t=0.8
0.014028015962796575
% es.normE (V/m) @ t=0.82
1.4633200239207191
% es.EX (V/m) @ t=0.82
-0.9449933180325223
% es.EY (V/m) @ t=0.82
0.20995521375776627
% es.EZ (V/m) @ t=0.82
1.0777260484982767
% es.tEX (V/m) @ t=0.82
-0.9449933180325232
% es.tEY (V/m) @ t=0.82
0
% es.tEZ (V/m) @ t=0.82
1.0777260484982918
% es.Ex (V/m) @ t=0.82
-0.9449933180325223
% es.Ey (V/m) @ t=0.82
0.20995521375776627
% es.Ez (V/m) @ t=0.82
1.0777260484982767
% es.tEx (V/m) @ t=0.82
-0.9449933180325232
% es.tEy (V/m) @ t=0.82
0
% es.tEz (V/m) @ t=0.82
1.0777260484982918
% V (V) @ t=0.82
0.014162059745917324
% es.normE (V/m) @ t=0.84
1.477170332222365
% es.EX (V/m) @ t=0.84
-0.953937669860907
% es.EY (V/m) @ t=0.84
0.21194243726825324
% es.EZ (V/m) @ t=0.84
1.087926713900612
% es.tEX (V/m) @ t=0.84
-0.9539376698609039
% es.tEY (V/m) @ t=0.84
0
% es.tEZ (V/m) @ t=0.84
1.0879267139006163
% es.Ex (V/m) @ t=0.84
-0.953937669860907
% es.Ey (V/m) @ t=0.84
0.21194243726825324
% es.Ez (V/m) @ t=0.84
1.087926713900612
% es.tEx (V/m) @ t=0.84
-0.9539376698609039
% es.tEy (V/m) @ t=0.84
0
% es.tEz (V/m) @ t=0.84
1.0879267139006163
% V (V) @ t=0.84
0.014296103529038075
% es.normE (V/m) @ t=0.86
1.4910206405239868
% es.EX (V/m) @ t=0.86
-0.9628820216892962
% es.EY (V/m) @ t=0.86
0.21392966077874753
% es.EZ (V/m) @ t=0.86
1.0981273793029116
% es.tEX (V/m) @ t=0.86
-0.9628820216892962
% es.tEY (V/m) @ t=0.86
0
% es.tEZ (V/m) @ t=0.86
1.0981273793029267
% es.Ex (V/m) @ t=0.86
-0.9628820216892962
% es.Ey (V/m) @ t=0.86
0.21392966077874753
% es.Ez (V/m) @ t=0.86
1.0981273793029116
% es.tEx (V/m) @ t=0.86
-0.9628820216892962
% es.tEy (V/m) @ t=0.86
0
% es.tEz (V/m) @ t=0.86
1.0981273793029267
% V (V) @ t=0.86
0.014430147312158824
% es.normE (V/m) @ t=0.88
1.504870948825626
% es.EX (V/m) @ t=0.88
-0.9718263735176844
% es.EY (V/m) @ t=0.88
0.21591688428923994
% es.EZ (V/m) @ t=0.88
1.1083280447052353
% es.tEX (V/m) @ t=0.88
-0.9718263735176809
% es.tEY (V/m) @ t=0.88
0
% es.tEZ (V/m) @ t=0.88
1.1083280447052433
% es.Ex (V/m) @ t=0.88
-0.9718263735176844
% es.Ey (V/m) @ t=0.88
0.21591688428923994
% es.Ez (V/m) @ t=0.88
1.1083280447052353
% es.tEx (V/m) @ t=0.88
-0.9718263735176809
% es.tEy (V/m) @ t=0.88
0
% es.tEz (V/m) @ t=0.88
1.1083280447052433
% V (V) @ t=0.88
0.014564191095279577
% es.normE (V/m) @ t=0.9
1.5187212571272446
% es.EX (V/m) @ t=0.9
-0.9807707253460634
% es.EY (V/m) @ t=0.9
0.21790410779971647
% es.EZ (V/m) @ t=0.9
1.1185287101075403
% es.tEX (V/m) @ t=0.9
-0.9807707253460674
% es.tEY (V/m) @ t=0.9
0
% es.tEZ (V/m) @ t=0.9
1.1185287101075518
% es.Ex (V/m) @ t=0.9
-0.9807707253460634
% es.Ey (V/m) @ t=0.9
0.21790410779971647
% es.Ez (V/m) @ t=0.9
1.1185287101075403
% es.tEx (V/m) @ t=0.9
-0.9807707253460674
% es.tEy (V/m) @ t=0.9
0
% es.tEz (V/m) @ t=0.9
1.1185287101075518
% V (V) @ t=0.9
0.014698234878400326
% es.normE (V/m) @ t=0.92
1.532571565428873
% es.EX (V/m) @ t=0.92
-0.9897150771744516
% es.EY (V/m) @ t=0.92
0.21989133131021776
% es.EZ (V/m) @ t=0.92
1.1287293755098462
% es.tEX (V/m) @ t=0.92
-0.9897150771744485
% es.tEY (V/m) @ t=0.92
0
% es.tEZ (V/m) @ t=0.92
1.1287293755098684
% es.Ex (V/m) @ t=0.92
-0.9897150771744516
% es.Ey (V/m) @ t=0.92
0.21989133131021776
% es.Ez (V/m) @ t=0.92
1.1287293755098462
% es.tEx (V/m) @ t=0.92
-0.9897150771744485
% es.tEy (V/m) @ t=0.92
0
% es.tEz (V/m) @ t=0.92
1.1287293755098684
% V (V) @ t=0.92
0.014832278661521077
% es.normE (V/m) @ t=0.94
1.546421873730504
% es.EX (V/m) @ t=0.94
-0.9986594290028341
% es.EY (V/m) @ t=0.94
0.22187855482072627
% es.EZ (V/m) @ t=0.94
1.1389300409121592
% es.tEX (V/m) @ t=0.94
-0.9986594290028306
% es.tEY (V/m) @ t=0.94
0
% es.tEZ (V/m) @ t=0.94
1.1389300409121637
% es.Ex (V/m) @ t=0.94
-0.9986594290028341
% es.Ey (V/m) @ t=0.94
0.22187855482072627
% es.Ez (V/m) @ t=0.94
1.1389300409121592
% es.tEx (V/m) @ t=0.94
-0.9986594290028306
% es.tEy (V/m) @ t=0.94
0
% es.tEz (V/m) @ t=0.94
1.1389300409121637
% V (V) @ t=0.94
0.014966322444641826
% es.normE (V/m) @ t=0.96
1.5602721820321368
% es.EX (V/m) @ t=0.96
-1.0076037808312228
% es.EY (V/m) @ t=0.96
0.22386577833121502
% es.EZ (V/m) @ t=0.96
1.1491307063144767
% es.tEX (V/m) @ t=0.96
-1.0076037808312228
% es.tEY (V/m) @ t=0.96
0
% es.tEZ (V/m) @ t=0.96
1.1491307063144882
% es.Ex (V/m) @ t=0.96
-1.0076037808312228
% es.Ey (V/m) @ t=0.96
0.22386577833121502
% es.Ez (V/m) @ t=0.96
1.1491307063144767
% es.tEx (V/m) @ t=0.96
-1.0076037808312228
% es.tEy (V/m) @ t=0.96
0
% es.tEz (V/m) @ t=0.96
1.1491307063144882
% V (V) @ t=0.96
0.015100366227762573
% es.normE (V/m) @ t=0.98
1.5741224903337723
% es.EX (V/m) @ t=0.98
-1.016548132659608
% es.EY (V/m) @ t=0.98
0.22585300184170398
% es.EZ (V/m) @ t=0.98
1.1593313717167923
% es.tEX (V/m) @ t=0.98
-1.0165481326596049
% es.tEY (V/m) @ t=0.98
0
% es.tEZ (V/m) @ t=0.98
1.159331371716804
% es.Ex (V/m) @ t=0.98
-1.016548132659608
% es.Ey (V/m) @ t=0.98
0.22585300184170398
% es.Ez (V/m) @ t=0.98
1.1593313717167923
% es.tEx (V/m) @ t=0.98
-1.0165481326596049
% es.tEy (V/m) @ t=0.98
0
% es.tEz (V/m) @ t=0.98
1.159331371716804
% V (V) @ t=0.98
0.015234410010883326
% es.normE (V/m) @ t=1
1.587972798635402
% es.EX (V/m) @ t=1
-1.025492484487994
% es.EY (V/m) @ t=1
0.2278402253522036
% es.EZ (V/m) @ t=1
1.1695320371191054
% es.tEX (V/m) @ t=1
-1.025492484487994
% es.tEY (V/m) @ t=1
0
% es.tEZ (V/m) @ t=1
1.1695320371191134
% es.Ex (V/m) @ t=1
-1.025492484487994
% es.Ey (V/m) @ t=1
0.2278402253522036
% es.Ez (V/m) @ t=1
1.1695320371191054
% es.tEx (V/m) @ t=1
-1.025492484487994
% es.tEy (V/m) @ t=1
0
% es.tEz (V/m) @ t=1
1.1695320371191134
% V (V) @ t=1
0.015368453794004075
% es.normE (V/m) @ t=1.02
1.601823106937033
% es.EX (V/m) @ t=1.02
-1.0344368363163783
% es.EY (V/m) @ t=1.02
0.22982744886268525
% es.EZ (V/m) @ t=1.02
1.1797327025214193
% es.tEX (V/m) @ t=1.02
-1.0344368363163747
% es.tEY (V/m) @ t=1.02
0
% es.tEZ (V/m) @ t=1.02
1.1797327025214308
% es.Ex (V/m) @ t=1.02
-1.0344368363163783
% es.Ey (V/m) @ t=1.02
0.22982744886268525
% es.Ez (V/m) @ t=1.02
1.1797327025214193
% es.tEx (V/m) @ t=1.02
-1.0344368363163747
% es.tEy (V/m) @ t=1.02
0
% es.tEz (V/m) @ t=1.02
1.1797327025214308
% V (V) @ t=1.02
0.015502497577124824
% es.normE (V/m) @ t=1.04
1.6156734152386452
% es.EX (V/m) @ t=1.04
-1.0433811881447652
% es.EY (V/m) @ t=1.04
0.23181467237318854
% es.EZ (V/m) @ t=1.04
1.1899333679237056
% es.tEX (V/m) @ t=1.04
-1.0433811881447652