% Model:              1 neuron.mph
% Version:            COMSOL 6.0.0.405
% Date:               Mar 16 2023, 18:06
% Dimension:          0
% Nodes:              14017
% Expressions:        14017
% Description:        Electric field norm, Electric field, X component, Electric field, Y component, Electric field, Z component, Tangential electric field, X component, Tangential electric field, Y component, Tangential electric field, Z component, Electric field, x component, Electric field, y component, Electric field, z component, Tangential electric field, x component, Tangential electric field, y component, Tangential electric field, z component, Electric potential
% Length unit:        mm
% x
1.33
% y
12.2
% z
1
% es.normE (V/m) @ t=0
2.3043426439632038
% es.EX (V/m) @ t=0
0.7112646142366139
% es.EY (V/m) @ t=0
0.17231418949569144
% es.EZ (V/m) @ t=0
2.1850255155238507
% es.tEX (V/m) @ t=0
0.7112646142366188
% es.tEY (V/m) @ t=0
0
% es.tEZ (V/m) @ t=0
2.185025515523856
% es.Ex (V/m) @ t=0
0.7112646142366139
% es.Ey (V/m) @ t=0
0.17231418949569144
% es.Ez (V/m) @ t=0
2.1850255155238507
% es.tEx (V/m) @ t=0
0.7112646142366188
% es.tEy (V/m) @ t=0
0
% es.tEz (V/m) @ t=0
2.185025515523856
% V (V) @ t=0
0.010777464097038164
% es.normE (V/m) @ t=0.02
1.990305117903604
% es.EX (V/m) @ t=0.02
0.6143329466422284
% es.EY (V/m) @ t=0.02
0.1488310842313365
% es.EZ (V/m) @ t=0.02
1.8872486156187076
% es.tEX (V/m) @ t=0.02
0.6143329466422358
% es.tEY (V/m) @ t=0.02
0
% es.tEZ (V/m) @ t=0.02
1.8872486156187183
% es.Ex (V/m) @ t=0.02
0.6143329466422284
% es.Ey (V/m) @ t=0.02
0.1488310842313365
% es.Ez (V/m) @ t=0.02
1.8872486156187076
% es.tEx (V/m) @ t=0.02
0.6143329466422358
% es.tEy (V/m) @ t=0.02
0
% es.tEz (V/m) @ t=0.02
1.8872486156187183
% V (V) @ t=0.02
0.009308702951260914
% es.normE (V/m) @ t=0.04
2.00861426014995
% es.EX (V/m) @ t=0.04
0.6199842977573596
% es.EY (V/m) @ t=0.04
0.15020020608451856
% es.EZ (V/m) @ t=0.04
1.904609723613155
% es.tEX (V/m) @ t=0.04
0.6199842977573624
% es.tEY (V/m) @ t=0.04
0
% es.tEZ (V/m) @ t=0.04
1.904609723613163
% es.Ex (V/m) @ t=0.04
0.6199842977573596
% es.Ey (V/m) @ t=0.04
0.15020020608451856
% es.Ez (V/m) @ t=0.04
1.904609723613155
% es.tEx (V/m) @ t=0.04
0.6199842977573624
% es.tEy (V/m) @ t=0.04
0
% es.tEz (V/m) @ t=0.04
1.904609723613163
% V (V) @ t=0.04
0.009394334909974048
% es.normE (V/m) @ t=0.06
2.0270736279607293
% es.EX (V/m) @ t=0.06
0.6256820144681217
% es.EY (V/m) @ t=0.06
0.15158056083009996
% es.EZ (V/m) @ t=0.06
1.922113279764806
% es.tEX (V/m) @ t=0.06
0.6256820144681257
% es.tEY (V/m) @ t=0.06
0
% es.tEZ (V/m) @ t=0.06
1.9221132797648153
% es.Ex (V/m) @ t=0.06
0.6256820144681217
% es.Ey (V/m) @ t=0.06
0.15158056083009996
% es.Ez (V/m) @ t=0.06
1.922113279764806
% es.tEx (V/m) @ t=0.06
0.6256820144681257
% es.tEy (V/m) @ t=0.06
0
% es.tEz (V/m) @ t=0.06
1.9221132797648153
% V (V) @ t=0.06
0.009480670063268536
% es.normE (V/m) @ t=0.08
2.0458492851992576
% es.EX (V/m) @ t=0.08
0.6314773574858701
% es.EY (V/m) @ t=0.08
0.15298456699743757
% es.EZ (V/m) @ t=0.08
1.9399167482636694
% es.tEX (V/m) @ t=0.08
0.6314773574858634
% es.tEY (V/m) @ t=0.08
0
% es.tEZ (V/m) @ t=0.08
1.9399167482636646
% es.Ex (V/m) @ t=0.08
0.6314773574858701
% es.Ey (V/m) @ t=0.08
0.15298456699743757
% es.Ez (V/m) @ t=0.08
1.9399167482636694
% es.tEx (V/m) @ t=0.08
0.6314773574858634
% es.tEy (V/m) @ t=0.08
0
% es.tEz (V/m) @ t=0.08
1.9399167482636646
% V (V) @ t=0.08
0.009568484587295875
% es.normE (V/m) @ t=0.1
2.064773032077481
% es.EX (V/m) @ t=0.1
0.637318410044795
% es.EY (V/m) @ t=0.1
0.1543996469795742
% es.EZ (V/m) @ t=0.1
1.9578606385014288
% es.tEX (V/m) @ t=0.1
0.6373184100447986
% es.tEY (V/m) @ t=0.1
0
% es.tEZ (V/m) @ t=0.1
1.9578606385014368
% es.Ex (V/m) @ t=0.1
0.637318410044795
% es.Ey (V/m) @ t=0.1
0.1543996469795742
% es.Ez (V/m) @ t=0.1
1.9578606385014288
% es.tEx (V/m) @ t=0.1
0.6373184100447986
% es.tEy (V/m) @ t=0.1
0
% es.tEz (V/m) @ t=0.1
1.9578606385014368
% V (V) @ t=0.1
0.009656991766403125
% es.normE (V/m) @ t=0.12
2.083696778955712
% es.EX (V/m) @ t=0.12
0.643159462603728
% es.EY (V/m) @ t=0.12
0.15581472696166843
% es.EZ (V/m) @ t=0.12
1.975804528739197
% es.tEX (V/m) @ t=0.12
0.6431594626037338
% es.tEY (V/m) @ t=0.12
0
% es.tEZ (V/m) @ t=0.12
1.9758045287391859
% es.Ex (V/m) @ t=0.12
0.643159462603728
% es.Ey (V/m) @ t=0.12
0.15581472696166843
% es.Ez (V/m) @ t=0.12
1.975804528739197
% es.tEx (V/m) @ t=0.12
0.6431594626037338
% es.tEy (V/m) @ t=0.12
0
% es.tEz (V/m) @ t=0.12
1.9758045287391859
% V (V) @ t=0.12
0.009745498945510368
% es.normE (V/m) @ t=0.14
2.102985463529206
% es.EX (V/m) @ t=0.14
0.6491131576632917
% es.EY (V/m) @ t=0.14
0.15725709622474016
% es.EZ (V/m) @ t=0.14
1.9940944605250928
% es.tEX (V/m) @ t=0.14
0.6491131576632867
% es.tEY (V/m) @ t=0.14
0
% es.tEZ (V/m) @ t=0.14
1.994094460525094
% es.Ex (V/m) @ t=0.14
0.6491131576632917
% es.Ey (V/m) @ t=0.14
0.15725709622474016
% es.Ez (V/m) @ t=0.14
1.9940944605250928
% es.tEx (V/m) @ t=0.14
0.6491131576632867
% es.tEy (V/m) @ t=0.14
0
% es.tEz (V/m) @ t=0.14
1.994094460525094
% V (V) @ t=0.14
0.009835712969281861
% es.normE (V/m) @ t=0.16
2.122890493274622
% es.EX (V/m) @ t=0.16
0.6552570952281631
% es.EY (V/m) @ t=0.16
0.15874555449643168
% es.EZ (V/m) @ t=0.16
2.0129688236817063
% es.tEX (V/m) @ t=0.16
0.6552570952281656
% es.tEY (V/m) @ t=0.16
0
% es.tEZ (V/m) @ t=0.16
2.012968823681721
% es.Ex (V/m) @ t=0.16
0.6552570952281631
% es.Ey (V/m) @ t=0.16
0.15874555449643168
% es.Ez (V/m) @ t=0.16
2.0129688236817063
% es.tEx (V/m) @ t=0.16
0.6552570952281656
% es.tEy (V/m) @ t=0.16
0
% es.tEz (V/m) @ t=0.16
2.012968823681721
% V (V) @ t=0.16
0.009928809691885797
% es.normE (V/m) @ t=0.18
2.1427955230200446
% es.EX (V/m) @ t=0.18
0.6614010327930245
% es.EY (V/m) @ t=0.18
0.16023401276812144
% es.EZ (V/m) @ t=0.18
2.0318431868383304
% es.tEX (V/m) @ t=0.18
0.6614010327930231
% es.tEY (V/m) @ t=0.18
0
% es.tEZ (V/m) @ t=0.18
2.031843186838355
% es.Ex (V/m) @ t=0.18
0.6614010327930245
% es.Ey (V/m) @ t=0.18
0.16023401276812144
% es.Ez (V/m) @ t=0.18
2.0318431868383304
% es.tEx (V/m) @ t=0.18
0.6614010327930231
% es.tEy (V/m) @ t=0.18
0
% es.tEz (V/m) @ t=0.18
2.031843186838355
% V (V) @ t=0.18
0.010021906414489737
% es.normE (V/m) @ t=0.2
2.1627005527654966
% es.EX (V/m) @ t=0.2
0.6675449703578942
% es.EY (V/m) @ t=0.2
0.16172247103978998
% es.EZ (V/m) @ t=0.2
2.0507175499949835
% es.tEX (V/m) @ t=0.2
0.6675449703578948
% es.tEY (V/m) @ t=0.2
0
% es.tEZ (V/m) @ t=0.2
2.0507175499949675
% es.Ex (V/m) @ t=0.2
0.6675449703578942
% es.Ey (V/m) @ t=0.2
0.16172247103978998
% es.Ez (V/m) @ t=0.2
2.0507175499949835
% es.tEx (V/m) @ t=0.2
0.6675449703578948
% es.tEy (V/m) @ t=0.2
0
% es.tEz (V/m) @ t=0.2
2.0507175499949675
% V (V) @ t=0.2
0.010115003137093674
% es.normE (V/m) @ t=0.22
2.1826055825109067
% es.EX (V/m) @ t=0.22
0.6736889079227556
% es.EY (V/m) @ t=0.22
0.1632109293114935
% es.EZ (V/m) @ t=0.22
2.0695919131515934
% es.tEX (V/m) @ t=0.22
0.6736889079227666
% es.tEY (V/m) @ t=0.22
0
% es.tEZ (V/m) @ t=0.22
2.0695919131516014
% es.Ex (V/m) @ t=0.22
0.6736889079227556
% es.Ey (V/m) @ t=0.22
0.1632109293114935
% es.Ez (V/m) @ t=0.22
2.0695919131515934
% es.tEx (V/m) @ t=0.22
0.6736889079227666
% es.tEy (V/m) @ t=0.22
0
% es.tEz (V/m) @ t=0.22
2.0695919131516014
% V (V) @ t=0.22
0.010208099859697612
% es.normE (V/m) @ t=0.24
2.202510612256323
% es.EX (V/m) @ t=0.24
0.6798328454876111
% es.EY (V/m) @ t=0.24
0.1646993875831585
% es.EZ (V/m) @ t=0.24
2.088466276308215
% es.tEX (V/m) @ t=0.24
0.679832845487617
% es.tEY (V/m) @ t=0.24
0
% es.tEZ (V/m) @ t=0.24
2.0884662763082265
% es.Ex (V/m) @ t=0.24
0.6798328454876111
% es.Ey (V/m) @ t=0.24
0.1646993875831585
% es.Ez (V/m) @ t=0.24
2.088466276308215
% es.tEx (V/m) @ t=0.24
0.679832845487617
% es.tEy (V/m) @ t=0.24
0
% es.tEz (V/m) @ t=0.24
2.0884662763082265
% V (V) @ t=0.24
0.01030119658230155
% es.normE (V/m) @ t=0.26
2.222415642001767
% es.EX (V/m) @ t=0.26
0.6859767830524832
% es.EY (V/m) @ t=0.26
0.1661878458548589
% es.EZ (V/m) @ t=0.26
2.107340639464857
% es.tEX (V/m) @ t=0.26
0.6859767830524888
% es.tEY (V/m) @ t=0.26
0
% es.tEZ (V/m) @ t=0.26
2.107340639464855
% es.Ex (V/m) @ t=0.26
0.6859767830524832
% es.Ey (V/m) @ t=0.26
0.1661878458548589
% es.Ez (V/m) @ t=0.26
2.107340639464857
% es.tEx (V/m) @ t=0.26
0.6859767830524888
% es.tEy (V/m) @ t=0.26
0
% es.tEz (V/m) @ t=0.26
2.107340639464855
% V (V) @ t=0.26
0.010394293304905485
% es.normE (V/m) @ t=0.28
2.2439768148973562
% es.EX (V/m) @ t=0.28
0.6926320075131086
% es.EY (V/m) @ t=0.28
0.16780016653705476
% es.EZ (V/m) @ t=0.28
2.127785359054613
% es.tEX (V/m) @ t=0.28
0.6926320075131116
% es.tEY (V/m) @ t=0.28
0
% es.tEZ (V/m) @ t=0.28
2.127785359054627
% es.Ex (V/m) @ t=0.28
0.6926320075131086
% es.Ey (V/m) @ t=0.28
0.16780016653705476
% es.Ez (V/m) @ t=0.28
2.127785359054613
% es.tEx (V/m) @ t=0.28
0.6926320075131116
% es.tEy (V/m) @ t=0.28
0
% es.tEz (V/m) @ t=0.28
2.127785359054627
% V (V) @ t=0.28
0.010495119360342592
% es.normE (V/m) @ t=0.3
2.2660798016117245
% es.EX (V/m) @ t=0.3
0.6994545015152818
% es.EY (V/m) @ t=0.3
0.16945300929948726
% es.EZ (V/m) @ t=0.3
2.148743826997452
% es.tEX (V/m) @ t=0.3
0.6994545015152909
% es.tEY (V/m) @ t=0.3
0
% es.tEZ (V/m) @ t=0.3
2.1487438269974657
% es.Ex (V/m) @ t=0.3
0.6994545015152818
% es.Ey (V/m) @ t=0.3
0.16945300929948726
% es.Ez (V/m) @ t=0.3
2.148743826997452
% es.tEx (V/m) @ t=0.3
0.6994545015152909
% es.tEy (V/m) @ t=0.3
0
% es.tEz (V/m) @ t=0.3
2.1487438269974657
% V (V) @ t=0.3
0.010598474097758765
% es.normE (V/m) @ t=0.32
2.288182788326104
% es.EX (V/m) @ t=0.32
0.7062769955174667
% es.EY (V/m) @ t=0.32
0.17110585206187334
% es.EZ (V/m) @ t=0.32
2.1697022949402887
% es.tEX (V/m) @ t=0.32
0.7062769955174701
% es.tEY (V/m) @ t=0.32
0
% es.tEZ (V/m) @ t=0.32
2.1697022949402953
% es.Ex (V/m) @ t=0.32
0.7062769955174667
% es.Ey (V/m) @ t=0.32
0.17110585206187334
% es.Ez (V/m) @ t=0.32
2.1697022949402887
% es.tEx (V/m) @ t=0.32
0.7062769955174701
% es.tEy (V/m) @ t=0.32
0
% es.tEz (V/m) @ t=0.32
2.1697022949402953
% V (V) @ t=0.32
0.010701828835174934
% es.normE (V/m) @ t=0.34
2.310285775040488
% es.EX (V/m) @ t=0.34
0.7130994895196432
% es.EY (V/m) @ t=0.34
0.1727586948243116
% es.EZ (V/m) @ t=0.34
2.190660762883116
% es.tEX (V/m) @ t=0.34
0.7130994895196423
% es.tEY (V/m) @ t=0.34
0
% es.tEZ (V/m) @ t=0.34
2.1906607628831054
% es.Ex (V/m) @ t=0.34
0.7130994895196432
% es.Ey (V/m) @ t=0.34
0.1727586948243116
% es.Ez (V/m) @ t=0.34
2.190660762883116
% es.tEx (V/m) @ t=0.34
0.7130994895196423
% es.tEy (V/m) @ t=0.34
0
% es.tEz (V/m) @ t=0.34
2.1906607628831054
% V (V) @ t=0.34
0.010805183572591108
% es.normE (V/m) @ t=0.36
2.3323887617548853
% es.EX (V/m) @ t=0.36
0.7199219835218317
% es.EY (V/m) @ t=0.36
0.17441153758671768
% es.EZ (V/m) @ t=0.36
2.2116192308259426
% es.tEX (V/m) @ t=0.36
0.7199219835218287
% es.tEY (V/m) @ t=0.36
0
% es.tEZ (V/m) @ t=0.36
2.2116192308259457
% es.Ex (V/m) @ t=0.36
0.7199219835218317
% es.Ey (V/m) @ t=0.36
0.17441153758671768
% es.Ez (V/m) @ t=0.36
2.2116192308259426
% es.tEx (V/m) @ t=0.36
0.7199219835218287
% es.tEy (V/m) @ t=0.36
0
% es.tEz (V/m) @ t=0.36
2.2116192308259457
% V (V) @ t=0.36
0.010908538310007277
% es.normE (V/m) @ t=0.38
2.354491748469317
% es.EX (V/m) @ t=0.38
0.7267444775240185
% es.EY (V/m) @ t=0.38
0.17606438034913774
% es.EZ (V/m) @ t=0.38
2.2325776987687926
% es.tEX (V/m) @ t=0.38
0.7267444775240222
% es.tEY (V/m) @ t=0.38
0
% es.tEZ (V/m) @ t=0.38
2.23257769876877
% es.Ex (V/m) @ t=0.38
0.7267444775240185
% es.Ey (V/m) @ t=0.38
0.17606438034913774
% es.Ez (V/m) @ t=0.38
2.2325776987687926
% es.tEx (V/m) @ t=0.38
0.7267444775240222
% es.tEy (V/m) @ t=0.38
0
% es.tEz (V/m) @ t=0.38
2.23257769876877
% V (V) @ t=0.38
0.011011893047423447
% es.normE (V/m) @ t=0.4
2.3765947351837324
% es.EX (V/m) @ t=0.4
0.7335669715261895
% es.EY (V/m) @ t=0.4
0.1777172231115518
% es.EZ (V/m) @ t=0.4
2.253536166711619
% es.tEX (V/m) @ t=0.4
0.7335669715261943
% es.tEY (V/m) @ t=0.4
0
% es.tEZ (V/m) @ t=0.4
2.253536166711614
% es.Ex (V/m) @ t=0.4
0.7335669715261895
% es.Ey (V/m) @ t=0.4
0.1777172231115518
% es.Ez (V/m) @ t=0.4
2.253536166711619
% es.tEx (V/m) @ t=0.4
0.7335669715261943
% es.tEy (V/m) @ t=0.4
0
% es.tEz (V/m) @ t=0.4
2.253536166711614
% V (V) @ t=0.4
0.011115247784839622
% es.normE (V/m) @ t=0.42
2.398697721898169
% es.EX (V/m) @ t=0.42
0.740389465528371
% es.EY (V/m) @ t=0.42
0.1793700658739914
% es.EZ (V/m) @ t=0.42
2.27449463465445
% es.tEX (V/m) @ t=0.42
0.7403894655283736
% es.tEY (V/m) @ t=0.42
0
% es.tEZ (V/m) @ t=0.42
2.274494634654447
% es.Ex (V/m) @ t=0.42
0.740389465528371
% es.Ey (V/m) @ t=0.42
0.1793700658739914
% es.Ez (V/m) @ t=0.42
2.27449463465445
% es.tEx (V/m) @ t=0.42
0.7403894655283736
% es.tEy (V/m) @ t=0.42
0
% es.tEz (V/m) @ t=0.42
2.274494634654447
% V (V) @ t=0.42
0.011218602522255794
% es.normE (V/m) @ t=0.44
2.4208007086126138
% es.EX (V/m) @ t=0.44
0.7472119595305463
% es.EY (V/m) @ t=0.44
0.1810229086363998
% es.EZ (V/m) @ t=0.44
2.295453102597283
% es.tEX (V/m) @ t=0.44
0.7472119595305386
% es.tEY (V/m) @ t=0.44
0
% es.tEZ (V/m) @ t=0.44
2.295453102597291
% es.Ex (V/m) @ t=0.44
0.7472119595305463
% es.Ey (V/m) @ t=0.44
0.1810229086363998
% es.Ez (V/m) @ t=0.44
2.295453102597283
% es.tEx (V/m) @ t=0.44
0.7472119595305386
% es.tEy (V/m) @ t=0.44
0
% es.tEz (V/m) @ t=0.44
2.295453102597291
% V (V) @ t=0.44
0.011321957259671965
% es.normE (V/m) @ t=0.46
2.442903695327068
% es.EX (V/m) @ t=0.46
0.7540344535327217
% es.EY (V/m) @ t=0.46
0.18267575139880732
% es.EZ (V/m) @ t=0.46
2.3164115705401143
% es.tEX (V/m) @ t=0.46
0.754034453532725
% es.tEY (V/m) @ t=0.46
0
% es.tEZ (V/m) @ t=0.46
2.316411570540108
% es.Ex (V/m) @ t=0.46
0.7540344535327217
% es.Ey (V/m) @ t=0.46
0.18267575139880732
% es.Ez (V/m) @ t=0.46
2.3164115705401143
% es.tEx (V/m) @ t=0.46
0.754034453532725
% es.tEy (V/m) @ t=0.46
0
% es.tEz (V/m) @ t=0.46
2.316411570540108
% V (V) @ t=0.46
0.011425311997088137
% es.normE (V/m) @ t=0.48
2.4650066820415257
% es.EX (V/m) @ t=0.48
0.7608569475349046
% es.EY (V/m) @ t=0.48
0.18432859416121994
% es.EZ (V/m) @ t=0.48
2.3373700384829355
% es.tEX (V/m) @ t=0.48
0.7608569475349114
% es.tEY (V/m) @ t=0.48
0
% es.tEZ (V/m) @ t=0.48
2.337370038482952
% es.Ex (V/m) @ t=0.48
0.7608569475349046
% es.Ey (V/m) @ t=0.48
0.18432859416121994
% es.Ez (V/m) @ t=0.48
2.3373700384829355
% es.tEx (V/m) @ t=0.48
0.7608569475349114
% es.tEy (V/m) @ t=0.48
0
% es.tEz (V/m) @ t=0.48
2.337370038482952
% V (V) @ t=0.48
0.011528666734504306
% es.normE (V/m) @ t=0.5
2.4871096687560246
% es.EX (V/m) @ t=0.5
0.7676794415370902
% es.EY (V/m) @ t=0.5
0.18598143692364544
% es.EZ (V/m) @ t=0.5
2.3583285064257877
% es.tEX (V/m) @ t=0.5
0.7676794415370907
% es.tEY (V/m) @ t=0.5
0
% es.tEZ (V/m) @ t=0.5
2.358328506425771
% es.Ex (V/m) @ t=0.5
0.7676794415370902
% es.Ey (V/m) @ t=0.5
0.18598143692364544
% es.Ez (V/m) @ t=0.5
2.3583285064257877
% es.tEx (V/m) @ t=0.5
0.7676794415370907
% es.tEy (V/m) @ t=0.5
0
% es.tEz (V/m) @ t=0.5
2.358328506425771
% V (V) @ t=0.5
0.01163202147192048
% es.normE (V/m) @ t=0.52
2.509212655470477
% es.EX (V/m) @ t=0.52
0.77450193553925
% es.EY (V/m) @ t=0.52
0.18763427968606605
% es.EZ (V/m) @ t=0.52
2.3792869743685894
% es.tEX (V/m) @ t=0.52
0.7745019355392486
% es.tEY (V/m) @ t=0.52
0
% es.tEZ (V/m) @ t=0.52
2.3792869743686005
% es.Ex (V/m) @ t=0.52
0.77450193553925
% es.Ey (V/m) @ t=0.52
0.18763427968606605
% es.Ez (V/m) @ t=0.52
2.3792869743685894
% es.tEx (V/m) @ t=0.52
0.7745019355392486
% es.tEy (V/m) @ t=0.52
0
% es.tEz (V/m) @ t=0.52
2.3792869743686005
% V (V) @ t=0.52
0.011735376209336647
% es.normE (V/m) @ t=0.54
2.532600990795526
% es.EX (V/m) @ t=0.54
0.7817210385650784
% es.EY (V/m) @ t=0.54
0.1893832124669631
% es.EZ (V/m) @ t=0.54
2.4014642805108766
% es.tEX (V/m) @ t=0.54
0.781721038565081
% es.tEY (V/m) @ t=0.54
0
% es.tEZ (V/m) @ t=0.54
2.401464280510883
% es.Ex (V/m) @ t=0.54
0.7817210385650784
% es.Ey (V/m) @ t=0.54
0.1893832124669631
% es.Ez (V/m) @ t=0.54
2.4014642805108766
% es.tEx (V/m) @ t=0.54
0.781721038565081
% es.tEy (V/m) @ t=0.54
0
% es.tEz (V/m) @ t=0.54
2.401464280510883
% V (V) @ t=0.54
0.01184476461142801
% es.normE (V/m) @ t=0.56
2.557191689269371
% es.EX (V/m) @ t=0.56
0.7893111445006251
% es.EY (V/m) @ t=0.56
0.19122203144385475
% es.EZ (V/m) @ t=0.56
2.424781733476621
% es.tEX (V/m) @ t=0.56
0.7893111445006156
% es.tEY (V/m) @ t=0.56
0
% es.tEZ (V/m) @ t=0.56
2.4247817334766175
% es.Ex (V/m) @ t=0.56
0.7893111445006251
% es.Ey (V/m) @ t=0.56
0.19122203144385475
% es.Ez (V/m) @ t=0.56
2.424781733476621
% es.tEx (V/m) @ t=0.56
0.7893111445006156
% es.tEy (V/m) @ t=0.56
0
% es.tEz (V/m) @ t=0.56
2.4247817334766175
% V (V) @ t=0.56
0.011959797129052024
% es.normE (V/m) @ t=0.58
2.5817823877432207
% es.EX (V/m) @ t=0.58
0.796901250436169
% es.EY (V/m) @ t=0.58
0.19306085042073684
% es.EZ (V/m) @ t=0.58
2.4480991864423562
% es.tEX (V/m) @ t=0.58
0.7969012504361643
% es.tEY (V/m) @ t=0.58
0
% es.tEZ (V/m) @ t=0.58
2.4480991864423647
% es.Ex (V/m) @ t=0.58
0.796901250436169
% es.Ey (V/m) @ t=0.58
0.19306085042073684
% es.Ez (V/m) @ t=0.58
2.4480991864423562
% es.tEx (V/m) @ t=0.58
0.7969012504361643
% es.tEy (V/m) @ t=0.58
0
% es.tEz (V/m) @ t=0.58
2.4480991864423647
% V (V) @ t=0.58
0.012074829646676034
% es.normE (V/m) @ t=0.6
2.606373086217091
% es.EX (V/m) @ t=0.6
0.8044913563716958
% es.EY (V/m) @ t=0.6
0.19489966939762993
% es.EZ (V/m) @ t=0.6
2.471416639408103
% es.tEX (V/m) @ t=0.6
0.804491356371706
% es.tEY (V/m) @ t=0.6
0
% es.tEZ (V/m) @ t=0.6
2.47141663940811
% es.Ex (V/m) @ t=0.6
0.8044913563716958
% es.Ey (V/m) @ t=0.6
0.19489966939762993
% es.Ez (V/m) @ t=0.6
2.471416639408103
% es.tEx (V/m) @ t=0.6
0.804491356371706
% es.tEy (V/m) @ t=0.6
0
% es.tEz (V/m) @ t=0.6
2.47141663940811
% V (V) @ t=0.6
0.012189862164300048
% es.normE (V/m) @ t=0.62
2.63096378469098
% es.EX (V/m) @ t=0.62
0.8120814623072363
% es.EY (V/m) @ t=0.62
0.19673848837451835
% es.EZ (V/m) @ t=0.62
2.4947340923738515
% es.tEX (V/m) @ t=0.62
0.8120814623072405
% es.tEY (V/m) @ t=0.62
0
% es.tEZ (V/m) @ t=0.62
2.494734092373845
% es.Ex (V/m) @ t=0.62
0.8120814623072363
% es.Ey (V/m) @ t=0.62
0.19673848837451835
% es.Ez (V/m) @ t=0.62
2.4947340923738515
% es.tEx (V/m) @ t=0.62
0.8120814623072405
% es.tEy (V/m) @ t=0.62
0
% es.tEz (V/m) @ t=0.62
2.494734092373845
% V (V) @ t=0.62
0.012304894681924061
% es.normE (V/m) @ t=0.64
2.655554483164863
% es.EX (V/m) @ t=0.64
0.8196715682427722
% es.EY (V/m) @ t=0.64
0.1985773073514039
% es.EZ (V/m) @ t=0.64
2.5180515453395813
% es.tEX (V/m) @ t=0.64
0.8196715682427751
% es.tEY (V/m) @ t=0.64
0
% es.tEZ (V/m) @ t=0.64
2.518051545339592
% es.Ex (V/m) @ t=0.64
0.8196715682427722
% es.Ey (V/m) @ t=0.64
0.1985773073514039
% es.Ez (V/m) @ t=0.64
2.5180515453395813
% es.tEx (V/m) @ t=0.64
0.8196715682427751
% es.tEy (V/m) @ t=0.64
0
% es.tEz (V/m) @ t=0.64
2.518051545339592
% V (V) @ t=0.64
0.012419927199548073
% es.normE (V/m) @ t=0.66
2.6801451816388
% es.EX (V/m) @ t=0.66
0.8272616741783232
% es.EY (V/m) @ t=0.66
0.20041612632832506
% es.EZ (V/m) @ t=0.66
2.5413689983053467
% es.tEX (V/m) @ t=0.66
0.8272616741783168
% es.tEY (V/m) @ t=0.66
0
% es.tEZ (V/m) @ t=0.66
2.541368998305355
% es.Ex (V/m) @ t=0.66
0.8272616741783232
% es.Ey (V/m) @ t=0.66
0.20041612632832506
% es.Ez (V/m) @ t=0.66
2.5413689983053467
% es.tEx (V/m) @ t=0.66
0.8272616741783168
% es.tEy (V/m) @ t=0.66
0
% es.tEz (V/m) @ t=0.66
2.541368998305355
% V (V) @ t=0.66
0.012534959717172086
% es.normE (V/m) @ t=0.68
2.704735880112688
% es.EX (V/m) @ t=0.68
0.8348517801138566
% es.EY (V/m) @ t=0.68
0.20225494530522414
% es.EZ (V/m) @ t=0.68
2.5646864512710548
% es.tEX (V/m) @ t=0.68
0.8348517801138513
% es.tEY (V/m) @ t=0.68
0
% es.tEZ (V/m) @ t=0.68
2.564686451271074
% es.Ex (V/m) @ t=0.68
0.8348517801138566
% es.Ey (V/m) @ t=0.68
0.20225494530522414
% es.Ez (V/m) @ t=0.68
2.5646864512710548
% es.tEx (V/m) @ t=0.68
0.8348517801138513
% es.tEy (V/m) @ t=0.68
0
% es.tEz (V/m) @ t=0.68
2.564686451271074
% V (V) @ t=0.68
0.012649992234796098
% es.normE (V/m) @ t=0.7
2.729326578586623
% es.EX (V/m) @ t=0.7
0.8424418860493867
% es.EY (V/m) @ t=0.7
0.20409376428211723
% es.EZ (V/m) @ t=0.7
2.5880039042368006
% es.tEX (V/m) @ t=0.7
0.8424418860493859
% es.tEY (V/m) @ t=0.7
0
% es.tEZ (V/m) @ t=0.7
2.5880039042368193
% es.Ex (V/m) @ t=0.7
0.8424418860493867
% es.Ey (V/m) @ t=0.7
0.20409376428211723
% es.Ez (V/m) @ t=0.7
2.5880039042368006
% es.tEx (V/m) @ t=0.7
0.8424418860493859
% es.tEy (V/m) @ t=0.7
0
% es.tEz (V/m) @ t=0.7
2.5880039042368193
% V (V) @ t=0.7
0.012765024752420114
% es.normE (V/m) @ t=0.72
2.753917277060574
% es.EX (V/m) @ t=0.72
0.8500319919849237
% es.EY (V/m) @ t=0.72
0.2059325832590273
% es.EZ (V/m) @ t=0.72
2.611321357202548
% es.tEX (V/m) @ t=0.72
0.8500319919849204
% es.tEY (V/m) @ t=0.72
0
% es.tEZ (V/m) @ t=0.72
2.611321357202554
% es.Ex (V/m) @ t=0.72
0.8500319919849237
% es.Ey (V/m) @ t=0.72
0.2059325832590273
% es.Ez (V/m) @ t=0.72
2.611321357202548
% es.tEx (V/m) @ t=0.72
0.8500319919849204
% es.tEy (V/m) @ t=0.72
0
% es.tEz (V/m) @ t=0.72
2.611321357202554
% V (V) @ t=0.72
0.012880057270044126
% es.normE (V/m) @ t=0.74
2.778507975534537
% es.EX (V/m) @ t=0.74
0.8576220979204707
% es.EY (V/m) @ t=0.74
0.2077714022359125
% es.EZ (V/m) @ t=0.74
2.634638810168294
% es.tEX (V/m) @ t=0.74
0.8576220979204692
% es.tEY (V/m) @ t=0.74
0
% es.tEZ (V/m) @ t=0.74
2.634638810168301
% es.Ex (V/m) @ t=0.74
0.8576220979204707
% es.Ey (V/m) @ t=0.74
0.2077714022359125
% es.Ez (V/m) @ t=0.74
2.634638810168294
% es.tEx (V/m) @ t=0.74
0.8576220979204692
% es.tEy (V/m) @ t=0.74
0
% es.tEz (V/m) @ t=0.74
2.634638810168301
% V (V) @ t=0.74
0.012995089787668139
% es.normE (V/m) @ t=0.76
2.803098674008506
% es.EX (V/m) @ t=0.76
0.8652122038559971
% es.EY (V/m) @ t=0.76
0.20961022121279815
% es.EZ (V/m) @ t=0.76
2.657956263134041
% es.tEX (V/m) @ t=0.76
0.8652122038559966
% es.tEY (V/m) @ t=0.76
0
% es.tEZ (V/m) @ t=0.76
2.6579562631340465
% es.Ex (V/m) @ t=0.76
0.8652122038559971
% es.Ey (V/m) @ t=0.76
0.20961022121279815
% es.Ez (V/m) @ t=0.76
2.657956263134041
% es.tEx (V/m) @ t=0.76
0.8652122038559966
% es.tEy (V/m) @ t=0.76
0
% es.tEz (V/m) @ t=0.76
2.6579562631340465
% V (V) @ t=0.76
0.013110122305292151
% es.normE (V/m) @ t=0.78
2.8276893724824825
% es.EX (V/m) @ t=0.78
0.8728023097915476
% es.EY (V/m) @ t=0.78
0.21144904018970823
% es.EZ (V/m) @ t=0.78
2.681273716099775
% es.tEX (V/m) @ t=0.78
0.8728023097915454
% es.tEY (V/m) @ t=0.78
0
% es.tEZ (V/m) @ t=0.78
2.6812737160997955
% es.Ex (V/m) @ t=0.78
0.8728023097915476
% es.Ey (V/m) @ t=0.78
0.21144904018970823
% es.Ez (V/m) @ t=0.78
2.681273716099775
% es.tEx (V/m) @ t=0.78
0.8728023097915454
% es.tEy (V/m) @ t=0.78
0
% es.tEz (V/m) @ t=0.78
2.6812737160997955
% V (V) @ t=0.78
0.013225154822916163
% es.normE (V/m) @ t=0.8
2.853066120234343
% es.EX (V/m) @ t=0.8
0.8806350731652817
% es.EY (V/m) @ t=0.8
0.2133466449920065
% es.EZ (V/m) @ t=0.8
2.7053365060355077
% es.tEX (V/m) @ t=0.8
0.8806350731652941
% es.tEY (V/m) @ t=0.8
0
% es.tEZ (V/m) @ t=0.8
2.705336506035504
% es.Ex (V/m) @ t=0.8
0.8806350731652817
% es.Ey (V/m) @ t=0.8
0.2133466449920065
% es.Ez (V/m) @ t=0.8
2.7053365060355077
% es.tEx (V/m) @ t=0.8
0.8806350731652941
% es.tEy (V/m) @ t=0.8
0
% es.tEz (V/m) @ t=0.8
2.705336506035504
% V (V) @ t=0.8
0.013343858058654536
% es.normE (V/m) @ t=0.82
2.8804654809197903
% es.EX (V/m) @ t=0.82
0.8890922275114308
% es.EY (V/m) @ t=0.82
0.21539551381073552
% es.EZ (V/m) @ t=0.82
2.7313171505355758
% es.tEX (V/m) @ t=0.82
0.8890922275114264
% es.tEY (V/m) @ t=0.82
0
% es.tEZ (V/m) @ t=0.82
2.7313171505355847
% es.Ex (V/m) @ t=0.82
0.8890922275114308
% es.Ey (V/m) @ t=0.82
0.21539551381073552
% es.Ez (V/m) @ t=0.82
2.7313171505355758
% es.tEx (V/m) @ t=0.82
0.8890922275114264
% es.tEy (V/m) @ t=0.82
0
% es.tEz (V/m) @ t=0.82
2.7313171505355847
% V (V) @ t=0.82
0.013472006557104468
% es.normE (V/m) @ t=0.84
2.907864841605245
% es.EX (V/m) @ t=0.84
0.8975493818575979
% es.EY (V/m) @ t=0.84
0.2174443826294763
% es.EZ (V/m) @ t=0.84
2.757297795035644
% es.tEX (V/m) @ t=0.84
0.8975493818576084
% es.tEY (V/m) @ t=0.84
0
% es.tEZ (V/m) @ t=0.84
2.757297795035651
% es.Ex (V/m) @ t=0.84
0.8975493818575979
% es.Ey (V/m) @ t=0.84
0.2174443826294763
% es.Ez (V/m) @ t=0.84
2.757297795035644
% es.tEx (V/m) @ t=0.84
0.8975493818576084
% es.tEy (V/m) @ t=0.84
0
% es.tEz (V/m) @ t=0.84
2.757297795035651
% V (V) @ t=0.84
0.0136001550555544
% es.normE (V/m) @ t=0.86
2.9352642022906847
% es.EX (V/m) @ t=0.86
0.906006536203749
% es.EY (V/m) @ t=0.86
0.2194932514481598
% es.EZ (V/m) @ t=0.86
2.7832784395357066
% es.tEX (V/m) @ t=0.86
0.9060065362037335
% es.tEY (V/m) @ t=0.86
0
% es.tEZ (V/m) @ t=0.86
2.783278439535728
% es.Ex (V/m) @ t=0.86
0.906006536203749
% es.Ey (V/m) @ t=0.86
0.2194932514481598
% es.Ez (V/m) @ t=0.86
2.7832784395357066
% es.tEx (V/m) @ t=0.86
0.9060065362037335
% es.tEy (V/m) @ t=0.86
0
% es.tEz (V/m) @ t=0.86
2.783278439535728
% V (V) @ t=0.86
0.013728303554004334
% es.normE (V/m) @ t=0.88
2.962663562976126
% es.EX (V/m) @ t=0.88
0.9144636905499033
% es.EY (V/m) @ t=0.88
0.22154212026686126
% es.EZ (V/m) @ t=0.88
2.8092590840357694
% es.tEX (V/m) @ t=0.88
0.9144636905498942
% es.tEY (V/m) @ t=0.88
0
% es.tEZ (V/m) @ t=0.88
2.8092590840357694
% es.Ex (V/m) @ t=0.88
0.9144636905499033
% es.Ey (V/m) @ t=0.88
0.22154212026686126
% es.Ez (V/m) @ t=0.88
2.8092590840357694
% es.tEx (V/m) @ t=0.88
0.9144636905498942
% es.tEy (V/m) @ t=0.88
0
% es.tEz (V/m) @ t=0.88
2.8092590840357694
% V (V) @ t=0.88
0.013856452052454267
% es.normE (V/m) @ t=0.9
2.990062923661589
% es.EX (V/m) @ t=0.9
0.922920844896052
% es.EY (V/m) @ t=0.9
0.22359098908559472
% es.EZ (V/m) @ t=0.9
2.8352397285358526
% es.tEX (V/m) @ t=0.9
0.9229208448960549
% es.tEY (V/m) @ t=0.9
0
% es.tEZ (V/m) @ t=0.9
2.835239728535864
% es.Ex (V/m) @ t=0.9
0.922920844896052
% es.Ey (V/m) @ t=0.9
0.22359098908559472
% es.Ez (V/m) @ t=0.9
2.8352397285358526
% es.tEx (V/m) @ t=0.9
0.9229208448960549
% es.tEy (V/m) @ t=0.9
0
% es.tEz (V/m) @ t=0.9
2.835239728535864
% V (V) @ t=0.9
0.013984600550904202
% es.normE (V/m) @ t=0.92
3.0174622843470185
% es.EX (V/m) @ t=0.92
0.9313779992421869
% es.EY (V/m) @ t=0.92
0.22563985790431085
% es.EZ (V/m) @ t=0.92
2.8612203730359074
% es.tEX (V/m) @ t=0.92
0.9313779992421871
% es.tEY (V/m) @ t=0.92
0
% es.tEZ (V/m) @ t=0.92
2.8612203730359127
% es.Ex (V/m) @ t=0.92
0.9313779992421869
% es.Ey (V/m) @ t=0.92
0.22563985790431085
% es.Ez (V/m) @ t=0.92
2.8612203730359074
% es.tEx (V/m) @ t=0.92
0.9313779992421871
% es.tEy (V/m) @ t=0.92
0
% es.tEz (V/m) @ t=0.92
2.8612203730359127
% V (V) @ t=0.92
0.014112749049354136
% es.normE (V/m) @ t=0.94
3.044861645032489
% es.EX (V/m) @ t=0.94
0.9398351535883442
% es.EY (V/m) @ t=0.94
0.22768872672301121
% es.EZ (V/m) @ t=0.94
2.8872010175359986
% es.tEX (V/m) @ t=0.94
0.939835153588362
% es.tEY (V/m) @ t=0.94
0
% es.tEZ (V/m) @ t=0.94
2.8872010175359932
% es.Ex (V/m) @ t=0.94
0.9398351535883442
% es.Ey (V/m) @ t=0.94
0.22768872672301121
% es.Ez (V/m) @ t=0.94
2.8872010175359986
% es.tEx (V/m) @ t=0.94
0.939835153588362
% es.tEy (V/m) @ t=0.94
0
% es.tEz (V/m) @ t=0.94
2.8872010175359932
% V (V) @ t=0.94
0.01424089754780407
% es.normE (V/m) @ t=0.96
3.0722610057179343
% es.EX (V/m) @ t=0.96
0.9482923079344978
% es.EY (V/m) @ t=0.96
0.22973759554175155
% es.EZ (V/m) @ t=0.96
2.913181662036062
% es.tEX (V/m) @ t=0.96
0.9482923079344943
% es.tEY (V/m) @ t=0.96
0
% es.tEZ (V/m) @ t=0.96
2.9131816620360595
% es.Ex (V/m) @ t=0.96
0.9482923079344978
% es.Ey (V/m) @ t=0.96
0.22973759554175155
% es.Ez (V/m) @ t=0.96
2.913181662036062
% es.tEx (V/m) @ t=0.96
0.9482923079344943
% es.tEy (V/m) @ t=0.96
0
% es.tEz (V/m) @ t=0.96
2.9131816620360595
% V (V) @ t=0.96
0.014369046046254002
% es.normE (V/m) @ t=0.98
3.0996603664033913
% es.EX (V/m) @ t=0.98
0.9567494622806401
% es.EY (V/m) @ t=0.98
0.23178646436045303
% es.EZ (V/m) @ t=0.98
2.9391623065361445
% es.tEX (V/m) @ t=0.98
0.9567494622806407
% es.tEY (V/m) @ t=0.98
0
% es.tEZ (V/m) @ t=0.98
2.9391623065361543
% es.Ex (V/m) @ t=0.98
0.9567494622806401
% es.Ey (V/m) @ t=0.98
0.23178646436045303
% es.Ez (V/m) @ t=0.98
2.9391623065361445
% es.tEx (V/m) @ t=0.98
0.9567494622806407
% es.tEy (V/m) @ t=0.98
0
% es.tEz (V/m) @ t=0.98
2.9391623065361543
% V (V) @ t=0.98
0.014497194544703938
% es.normE (V/m) @ t=1
3.127059727088823
% es.EX (V/m) @ t=1
0.9652066166267814
% es.EY (V/m) @ t=1
0.23383533317913718
% es.EZ (V/m) @ t=1
2.965142951036201
% es.tEX (V/m) @ t=1
0.9652066166267872
% es.tEY (V/m) @ t=1
0
% es.tEZ (V/m) @ t=1
2.9651429510362206
% es.Ex (V/m) @ t=1
0.9652066166267814
% es.Ey (V/m) @ t=1
0.23383533317913718
% es.Ez (V/m) @ t=1
2.965142951036201
% es.tEx (V/m) @ t=1
0.9652066166267872
% es.tEy (V/m) @ t=1
0
% es.tEz (V/m) @ t=1
2.9651429510362206
% V (V) @ t=1
0.014625343043153868
% es.normE (V/m) @ t=1.02
3.1544590877742786
% es.EX (V/m) @ t=1.02
0.9736637709729323
% es.EY (V/m) @ t=1.02
0.23588420199786309
% es.EZ (V/m) @ t=1.02
2.991123595536277
% es.tEX (V/m) @ t=1.02
0.9736637709729479
% es.tEY (V/m) @ t=1.02
0
% es.tEZ (V/m) @ t=1.02
2.9911235955362976
% es.Ex (V/m) @ t=1.02
0.9736637709729323
% es.Ey (V/m) @ t=1.02
0.23588420199786309
% es.Ez (V/m) @ t=1.02
2.991123595536277
% es.tEx (V/m) @ t=1.02
0.9736637709729479
% es.tEy (V/m) @ t=1.02
0
% es.tEz (V/m) @ t=1.02
2.9911235955362976
% V (V) @ t=1.02
0.014753491541603804
% es.normE (V/m) @ t=1.04
3.1818584484597334
% es.EX (V/m) @ t=1.04
0.9821209253190808
% es.EY (V/m) @ t=1.04
0.2379330708165821
% es.EZ (V/m) @ t=1.04
3.017104240036354
% es.tEX (V/m) @ t=1.04
0.9821209253190943
% es.tEY (V/m) @ t=1.04
0
% es.tEZ (V/m) @ t=1.04
3.017104240036364
% es.Ex (V/m) @ t=1.04
0.9821209253190808
% es.Ey (V/m) @ t=1.04
0.2379330708165821
% es.Ez (V/m) @ t=1.04
3.017104240036354
% es.tEx (V/m) @ t=1.04
0.9821209253190943
% es.tEy (V/m) @ t=1.04
0
% es.tEz (V/m) @ t=1.04
3.017104240036364