% Model:              1 neuron.mph
% Version:            COMSOL 6.0.0.405
% Date:               Mar 16 2023, 18:13
% Dimension:          0
% Nodes:              14017
% Expressions:        14017
% Description:        Electric field norm, Electric field, X component, Electric field, Y component, Electric field, Z component, Tangential electric field, X component, Tangential electric field, Y component, Tangential electric field, Z component, Electric field, x component, Electric field, y component, Electric field, z component, Tangential electric field, x component, Tangential electric field, y component, Tangential electric field, z component, Electric potential
% Length unit:        mm
% x
2
% y
12.2
% z
1
% es.normE (V/m) @ t=0
1.1477276881079026
% es.EX (V/m) @ t=0
-0.741187339018966
% es.EY (V/m) @ t=0
0.16467450826244878
% es.EZ (V/m) @ t=0
0.8452946921117075
% es.tEX (V/m) @ t=0
-0.7411873390189669
% es.tEY (V/m) @ t=0
0
% es.tEZ (V/m) @ t=0
0.8452946921117084
% es.Ex (V/m) @ t=0
-0.741187339018966
% es.Ey (V/m) @ t=0
0.16467450826244878
% es.Ez (V/m) @ t=0
0.8452946921117075
% es.tEx (V/m) @ t=0
-0.7411873390189669
% es.tEy (V/m) @ t=0
0
% es.tEz (V/m) @ t=0
0.8452946921117084
% V (V) @ t=0
0.011107744090639629
% es.normE (V/m) @ t=0.02
0.9913155387123203
% es.EX (V/m) @ t=0.02
-0.6401784446324665
% es.EY (V/m) @ t=0.02
0.14223269208318134
% es.EZ (V/m) @ t=0.02
0.7300980640209724
% es.tEX (V/m) @ t=0.02
-0.6401784446324679
% es.tEY (V/m) @ t=0.02
0
% es.tEZ (V/m) @ t=0.02
0.7300980640209662
% es.Ex (V/m) @ t=0.02
-0.6401784446324665
% es.Ey (V/m) @ t=0.02
0.14223269208318134
% es.Ez (V/m) @ t=0.02
0.7300980640209724
% es.tEx (V/m) @ t=0.02
-0.6401784446324679
% es.tEy (V/m) @ t=0.02
0
% es.tEz (V/m) @ t=0.02
0.7300980640209662
% V (V) @ t=0.02
0.009593982461681996
% es.normE (V/m) @ t=0.04
1.0004359135304974
% es.EX (V/m) @ t=0.04
-0.6460682619296825
% es.EY (V/m) @ t=0.04
0.14354127187332288
% es.EZ (V/m) @ t=0.04
0.7368151663959512
% es.tEX (V/m) @ t=0.04
-0.6460682619296803
% es.tEY (V/m) @ t=0.04
0
% es.tEZ (V/m) @ t=0.04
0.7368151663959663
% es.Ex (V/m) @ t=0.04
-0.6460682619296825
% es.Ey (V/m) @ t=0.04
0.14354127187332288
% es.Ez (V/m) @ t=0.04
0.7368151663959512
% es.tEx (V/m) @ t=0.04
-0.6460682619296803
% es.tEy (V/m) @ t=0.04
0
% es.tEz (V/m) @ t=0.04
0.7368151663959663
% V (V) @ t=0.04
0.009682249740370213
% es.normE (V/m) @ t=0.06
1.0096304529651154
% es.EX (V/m) @ t=0.06
-0.6520059739569253
% es.EY (V/m) @ t=0.06
0.14486049278420587
% es.EZ (V/m) @ t=0.06
0.743586890387486
% es.tEX (V/m) @ t=0.06
-0.6520059739569266
% es.tEY (V/m) @ t=0.06
0
% es.tEZ (V/m) @ t=0.06
0.7435868903874931
% es.Ex (V/m) @ t=0.06
-0.6520059739569253
% es.Ey (V/m) @ t=0.06
0.14486049278420587
% es.Ez (V/m) @ t=0.06
0.743586890387486
% es.tEx (V/m) @ t=0.06
-0.6520059739569266
% es.tEy (V/m) @ t=0.06
0
% es.tEz (V/m) @ t=0.06
0.7435868903874931
% V (V) @ t=0.06
0.009771234828929654
% es.normE (V/m) @ t=0.08
1.0189840474095382
% es.EX (V/m) @ t=0.08
-0.6580464013284799
% es.EY (V/m) @ t=0.08
0.14620253460140298
% es.EZ (V/m) @ t=0.08
0.7504757577117713
% es.tEX (V/m) @ t=0.08
-0.6580464013284812
% es.tEY (V/m) @ t=0.08
0
% es.tEZ (V/m) @ t=0.08
0.7504757577117793
% es.Ex (V/m) @ t=0.08
-0.6580464013284799
% es.Ey (V/m) @ t=0.08
0.14620253460140298
% es.Ez (V/m) @ t=0.08
0.7504757577117713
% es.tEx (V/m) @ t=0.08
-0.6580464013284812
% es.tEy (V/m) @ t=0.08
0
% es.tEz (V/m) @ t=0.08
0.7504757577117793
% V (V) @ t=0.08
0.00986175919912708
% es.normE (V/m) @ t=0.1
1.0284093377424997
% es.EX (V/m) @ t=0.1
-0.6641331288315846
% es.EY (V/m) @ t=0.1
0.1475548632065503
% es.EZ (V/m) @ t=0.1
0.7574174287505544
% es.tEX (V/m) @ t=0.1
-0.6641331288315857
% es.tEY (V/m) @ t=0.1
0
% es.tEZ (V/m) @ t=0.1
0.7574174287505695
% es.Ex (V/m) @ t=0.1
-0.6641331288315846
% es.Ey (V/m) @ t=0.1
0.1475548632065503
% es.Ez (V/m) @ t=0.1
0.7574174287505544
% es.tEx (V/m) @ t=0.1
-0.6641331288315857
% es.tEy (V/m) @ t=0.1
0
% es.tEz (V/m) @ t=0.1
0.7574174287505695
% V (V) @ t=0.1
0.009952977418357427
% es.normE (V/m) @ t=0.12
1.0378346280754576
% es.EX (V/m) @ t=0.12
-0.6702198563346855
% es.EY (V/m) @ t=0.12
0.14890719181169043
% es.EZ (V/m) @ t=0.12
0.7643590997893375
% es.tEX (V/m) @ t=0.12
-0.6702198563346833
% es.tEY (V/m) @ t=0.12
0
% es.tEZ (V/m) @ t=0.12
0.7643590997893446
% es.Ex (V/m) @ t=0.12
-0.6702198563346855
% es.Ey (V/m) @ t=0.12
0.14890719181169043
% es.Ez (V/m) @ t=0.12
0.7643590997893375
% es.tEx (V/m) @ t=0.12
-0.6702198563346833
% es.tEy (V/m) @ t=0.12
0
% es.tEz (V/m) @ t=0.12
0.7643590997893446
% V (V) @ t=0.12
0.010044195637587771
% es.normE (V/m) @ t=0.14
1.0474491676753368
% es.EX (V/m) @ t=0.14
-0.6764287987434494
% es.EY (V/m) @ t=0.14
0.1502866737506927
% es.EZ (V/m) @ t=0.14
0.7714401515821407
% es.tEX (V/m) @ t=0.14
-0.6764287987434507
% es.tEY (V/m) @ t=0.14
0
% es.tEZ (V/m) @ t=0.14
0.7714401515821523
% es.Ex (V/m) @ t=0.14
-0.6764287987434494
% es.Ey (V/m) @ t=0.14
0.1502866737506927
% es.Ez (V/m) @ t=0.14
0.7714401515821407
% es.tEx (V/m) @ t=0.14
-0.6764287987434507
% es.tEy (V/m) @ t=0.14
0
% es.tEz (V/m) @ t=0.14
0.7714401515821523
% V (V) @ t=0.14
0.010137245466799309
% es.normE (V/m) @ t=0.16
1.0573618906493747
% es.EX (V/m) @ t=0.16
-0.6828303043971586
% es.EY (V/m) @ t=0.16
0.15170893880242098
% es.EZ (V/m) @ t=0.16
0.7787408133327514
% es.tEX (V/m) @ t=0.16
-0.6828303043971562
% es.tEY (V/m) @ t=0.16
0
% es.tEZ (V/m) @ t=0.16
0.7787408133327585
% es.Ex (V/m) @ t=0.16
-0.6828303043971586
% es.Ey (V/m) @ t=0.16
0.15170893880242098
% es.Ez (V/m) @ t=0.16
0.7787408133327514
% es.tEx (V/m) @ t=0.16
-0.6828303043971562
% es.tEy (V/m) @ t=0.16
0
% es.tEz (V/m) @ t=0.16
0.7787408133327585
% V (V) @ t=0.16
0.010233181202272032
% es.normE (V/m) @ t=0.18
1.067274613623416
% es.EX (V/m) @ t=0.18
-0.6892318100508679
% es.EY (V/m) @ t=0.18
0.15313120385414491
% es.EZ (V/m) @ t=0.18
0.7860414750833682
% es.tEX (V/m) @ t=0.18
-0.6892318100508654
% es.tEY (V/m) @ t=0.18
0
% es.tEZ (V/m) @ t=0.18
0.7860414750833717
% es.Ex (V/m) @ t=0.18
-0.6892318100508679
% es.Ey (V/m) @ t=0.18
0.15313120385414491
% es.Ez (V/m) @ t=0.18
0.7860414750833682
% es.tEx (V/m) @ t=0.18
-0.6892318100508654
% es.tEy (V/m) @ t=0.18
0
% es.tEz (V/m) @ t=0.18
0.7860414750833717
% V (V) @ t=0.18
0.010329116937744754
% es.normE (V/m) @ t=0.2
1.0771873365974418
% es.EX (V/m) @ t=0.2
-0.6956333157045735
% es.EY (V/m) @ t=0.2
0.15455346890585187
% es.EZ (V/m) @ t=0.2
0.7933421368339744
% es.tEX (V/m) @ t=0.2
-0.6956333157045711
% es.tEY (V/m) @ t=0.2
0
% es.tEZ (V/m) @ t=0.2
0.7933421368339788
% es.Ex (V/m) @ t=0.2
-0.6956333157045735
% es.Ey (V/m) @ t=0.2
0.15455346890585187
% es.Ez (V/m) @ t=0.2
0.7933421368339744
% es.tEx (V/m) @ t=0.2
-0.6956333157045711
% es.tEy (V/m) @ t=0.2
0
% es.tEz (V/m) @ t=0.2
0.7933421368339788
% V (V) @ t=0.2
0.010425052673217477
% es.normE (V/m) @ t=0.22
1.087100059571485
% es.EX (V/m) @ t=0.22
-0.7020348213582832
% es.EY (V/m) @ t=0.22
0.15597573395756348
% es.EZ (V/m) @ t=0.22
0.8006427985845974
% es.tEX (V/m) @ t=0.22
-0.7020348213582808
% es.tEY (V/m) @ t=0.22
0
% es.tEZ (V/m) @ t=0.22
0.8006427985845983
% es.Ex (V/m) @ t=0.22
-0.7020348213582832
% es.Ey (V/m) @ t=0.22
0.15597573395756348
% es.Ez (V/m) @ t=0.22
0.8006427985845974
% es.tEx (V/m) @ t=0.22
-0.7020348213582808
% es.tEy (V/m) @ t=0.22
0
% es.tEz (V/m) @ t=0.22
0.8006427985845983
% V (V) @ t=0.22
0.010520988408690198
% es.normE (V/m) @ t=0.24
1.0970127825455152
% es.EX (V/m) @ t=0.24
-0.7084363270119882
% es.EY (V/m) @ t=0.24
0.15739799900928375
% es.EZ (V/m) @ t=0.24
0.8079434603352045
% es.tEX (V/m) @ t=0.24
-0.7084363270119893
% es.tEY (V/m) @ t=0.24
0
% es.tEZ (V/m) @ t=0.24
0.8079434603352125
% es.Ex (V/m) @ t=0.24
-0.7084363270119882
% es.Ey (V/m) @ t=0.24
0.15739799900928375
% es.Ez (V/m) @ t=0.24
0.8079434603352045
% es.tEx (V/m) @ t=0.24
-0.7084363270119893
% es.tEy (V/m) @ t=0.24
0
% es.tEz (V/m) @ t=0.24
0.8079434603352125
% V (V) @ t=0.24
0.01061692414416292
% es.normE (V/m) @ t=0.26
1.1069255055195564
% es.EX (V/m) @ t=0.26
-0.7148378326656943
% es.EY (V/m) @ t=0.26
0.1588202640610078
% es.EZ (V/m) @ t=0.26
0.815244122085824
% es.tEX (V/m) @ t=0.26
-0.7148378326656954
% es.tEY (V/m) @ t=0.26
0
% es.tEZ (V/m) @ t=0.26
0.8152441220858249
% es.Ex (V/m) @ t=0.26
-0.7148378326656943
% es.Ey (V/m) @ t=0.26
0.1588202640610078
% es.Ez (V/m) @ t=0.26
0.815244122085824
% es.tEx (V/m) @ t=0.26
-0.7148378326656954
% es.tEy (V/m) @ t=0.26
0
% es.tEz (V/m) @ t=0.26
0.8152441220858249
% V (V) @ t=0.26
0.010712859879635644
% es.normE (V/m) @ t=0.28
1.1176971315341064
% es.EX (V/m) @ t=0.28
-0.7217940214691274
% es.EY (V/m) @ t=0.28
0.160365769149988
% es.EZ (V/m) @ t=0.28
0.8231773470543038
% es.tEX (V/m) @ t=0.28
-0.7217940214691285
% es.tEY (V/m) @ t=0.28
0
% es.tEZ (V/m) @ t=0.28
0.8231773470543189
% es.Ex (V/m) @ t=0.28
-0.7217940214691274
% es.Ey (V/m) @ t=0.28
0.160365769149988
% es.Ez (V/m) @ t=0.28
0.8231773470543038
% es.tEx (V/m) @ t=0.28
-0.7217940214691285
% es.tEy (V/m) @ t=0.28
0
% es.tEz (V/m) @ t=0.28
0.8231773470543189
% V (V) @ t=0.28
0.010817111254895895
% es.normE (V/m) @ t=0.3
1.1287023485712755
% es.EX (V/m) @ t=0.3
-0.7289010643248268
% es.EY (V/m) @ t=0.3
0.16194479113783078
% es.EZ (V/m) @ t=0.3
0.8312826066785828
% es.tEX (V/m) @ t=0.3
-0.7289010643248242
% es.tEY (V/m) @ t=0.3
0
% es.tEZ (V/m) @ t=0.3
0.8312826066785908
% es.Ex (V/m) @ t=0.3
-0.7289010643248268
% es.Ey (V/m) @ t=0.3
0.16194479113783078
% es.Ez (V/m) @ t=0.3
0.8312826066785828
% es.tEx (V/m) @ t=0.3
-0.7289010643248242
% es.tEy (V/m) @ t=0.3
0
% es.tEz (V/m) @ t=0.3
0.8312826066785908
% V (V) @ t=0.3
0.010923624187875545
% es.normE (V/m) @ t=0.32
1.1397075656084197
% es.EX (V/m) @ t=0.32
-0.7360081071805153
% es.EY (V/m) @ t=0.32
0.16352381312567
% es.EZ (V/m) @ t=0.32
0.8393878663028342
% es.tEX (V/m) @ t=0.32
-0.7360081071805129
% es.tEY (V/m) @ t=0.32
0
% es.tEZ (V/m) @ t=0.32
0.8393878663028564
% es.Ex (V/m) @ t=0.32
-0.7360081071805153
% es.Ey (V/m) @ t=0.32
0.16352381312567
% es.Ez (V/m) @ t=0.32
0.8393878663028342
% es.tEx (V/m) @ t=0.32
-0.7360081071805129
% es.tEy (V/m) @ t=0.32
0
% es.tEz (V/m) @ t=0.32
0.8393878663028564
% V (V) @ t=0.32
0.011030137120855193
% es.normE (V/m) @ t=0.34
1.1507127826455772
% es.EX (V/m) @ t=0.34
-0.7431151500362114
% es.EY (V/m) @ t=0.34
0.16510283511351276
% es.EZ (V/m) @ t=0.34
0.8474931259270999
% es.tEX (V/m) @ t=0.34
-0.7431151500362088
% es.tEY (V/m) @ t=0.34
0
% es.tEZ (V/m) @ t=0.34
0.8474931259270999
% es.Ex (V/m) @ t=0.34
-0.7431151500362114
% es.Ey (V/m) @ t=0.34
0.16510283511351276
% es.Ez (V/m) @ t=0.34
0.8474931259270999
% es.tEx (V/m) @ t=0.34
-0.7431151500362088
% es.tEy (V/m) @ t=0.34
0
% es.tEz (V/m) @ t=0.34
0.8474931259270999
% V (V) @ t=0.34
0.01113665005383484
% es.normE (V/m) @ t=0.36
1.1617179996827305
% es.EX (V/m) @ t=0.36
-0.7502221928919075
% es.EY (V/m) @ t=0.36
0.16668185710133965
% es.EZ (V/m) @ t=0.36
0.8555983855513603
% es.tEX (V/m) @ t=0.36
-0.7502221928919051
% es.tEY (V/m) @ t=0.36
0
% es.tEZ (V/m) @ t=0.36
0.8555983855513709
% es.Ex (V/m) @ t=0.36
-0.7502221928919075
% es.Ey (V/m) @ t=0.36
0.16668185710133965
% es.Ez (V/m) @ t=0.36
0.8555983855513603
% es.tEx (V/m) @ t=0.36
-0.7502221928919051
% es.tEy (V/m) @ t=0.36
0
% es.tEz (V/m) @ t=0.36
0.8555983855513709
% V (V) @ t=0.36
0.011243162986814489
% es.normE (V/m) @ t=0.38
1.1727232167198898
% es.EX (V/m) @ t=0.38
-0.7573292357476031
% es.EY (V/m) @ t=0.38
0.16826087908918763
% es.EZ (V/m) @ t=0.38
0.8637036451756224
% es.tEX (V/m) @ t=0.38
-0.7573292357476005
% es.tEY (V/m) @ t=0.38
0
% es.tEZ (V/m) @ t=0.38
0.8637036451756233
% es.Ex (V/m) @ t=0.38
-0.7573292357476031
% es.Ey (V/m) @ t=0.38
0.16826087908918763
% es.Ez (V/m) @ t=0.38
0.8637036451756224
% es.tEx (V/m) @ t=0.38
-0.7573292357476005
% es.tEy (V/m) @ t=0.38
0
% es.tEz (V/m) @ t=0.38
0.8637036451756233
% V (V) @ t=0.38
0.011349675919794137
% es.normE (V/m) @ t=0.4
1.183728433757039
% es.EX (V/m) @ t=0.4
-0.7644362786032952
% es.EY (V/m) @ t=0.4
0.1698399010770162
% es.EZ (V/m) @ t=0.4
0.87180890479988
% es.tEX (V/m) @ t=0.4
-0.7644362786032928
% es.tEY (V/m) @ t=0.4
0
% es.tEZ (V/m) @ t=0.4
0.8718089047998951
% es.Ex (V/m) @ t=0.4
-0.7644362786032952
% es.Ey (V/m) @ t=0.4
0.1698399010770162
% es.Ez (V/m) @ t=0.4
0.87180890479988
% es.tEx (V/m) @ t=0.4
-0.7644362786032928
% es.tEy (V/m) @ t=0.4
0
% es.tEz (V/m) @ t=0.4
0.8718089047998951
% V (V) @ t=0.4
0.011456188852773786
% es.normE (V/m) @ t=0.42
1.1947336507942077
% es.EX (V/m) @ t=0.42
-0.7715433214589911
% es.EY (V/m) @ t=0.42
0.17141892306485373
% es.EZ (V/m) @ t=0.42
0.8799141644241555
% es.tEX (V/m) @ t=0.42
-0.7715433214589884
% es.tEY (V/m) @ t=0.42
0
% es.tEZ (V/m) @ t=0.42
0.8799141644241599
% es.Ex (V/m) @ t=0.42
-0.7715433214589911
% es.Ey (V/m) @ t=0.42
0.17141892306485373
% es.Ez (V/m) @ t=0.42
0.8799141644241555
% es.tEx (V/m) @ t=0.42
-0.7715433214589884
% es.tEy (V/m) @ t=0.42
0
% es.tEz (V/m) @ t=0.42
0.8799141644241599
% V (V) @ t=0.42
0.011562701785753433
% es.normE (V/m) @ t=0.44
1.2057388678313612
% es.EX (V/m) @ t=0.44
-0.7786503643146867
% es.EY (V/m) @ t=0.44
0.17299794505268395
% es.EZ (V/m) @ t=0.44
0.888019424048414
% es.tEX (V/m) @ t=0.44
-0.7786503643146876
% es.tEY (V/m) @ t=0.44
0
% es.tEZ (V/m) @ t=0.44
0.8880194240484114
% es.Ex (V/m) @ t=0.44
-0.7786503643146867
% es.Ey (V/m) @ t=0.44
0.17299794505268395
% es.Ez (V/m) @ t=0.44
0.888019424048414
% es.tEx (V/m) @ t=0.44
-0.7786503643146876
% es.tEy (V/m) @ t=0.44
0
% es.tEz (V/m) @ t=0.44
0.8880194240484114
% V (V) @ t=0.44
0.01166921471873308
% es.normE (V/m) @ t=0.46
1.2167440848685138
% es.EX (V/m) @ t=0.46
-0.7857574071703821
% es.EY (V/m) @ t=0.46
0.1745769670405285
% es.EZ (V/m) @ t=0.46
0.8961246836726682
% es.tEX (V/m) @ t=0.46
-0.785757407170383
% es.tEY (V/m) @ t=0.46
0
% es.tEZ (V/m) @ t=0.46
0.8961246836726833
% es.Ex (V/m) @ t=0.46
-0.7857574071703821
% es.Ey (V/m) @ t=0.46
0.1745769670405285
% es.Ez (V/m) @ t=0.46
0.8961246836726682
% es.tEx (V/m) @ t=0.46
-0.785757407170383
% es.tEy (V/m) @ t=0.46
0
% es.tEz (V/m) @ t=0.46
0.8961246836726833
% V (V) @ t=0.46
0.011775727651712732
% es.normE (V/m) @ t=0.48
1.2277493019056833
% es.EX (V/m) @ t=0.48
-0.792864450026074
% es.EY (V/m) @ t=0.48
0.17615598902836416
% es.EZ (V/m) @ t=0.48
0.9042299432969481
% es.tEX (V/m) @ t=0.48
-0.7928644500260749
% es.tEY (V/m) @ t=0.48
0
% es.tEZ (V/m) @ t=0.48
0.9042299432969418
% es.Ex (V/m) @ t=0.48
-0.792864450026074
% es.Ey (V/m) @ t=0.48
0.17615598902836416
% es.Ez (V/m) @ t=0.48
0.9042299432969481
% es.tEx (V/m) @ t=0.48
-0.7928644500260749
% es.tEy (V/m) @ t=0.48
0
% es.tEz (V/m) @ t=0.48
0.9042299432969418
% V (V) @ t=0.48
0.011882240584692377
% es.normE (V/m) @ t=0.5
1.238754518942835
% es.EX (V/m) @ t=0.5
-0.7999714928817663
% es.EY (V/m) @ t=0.5
0.17773501101621048
% es.EZ (V/m) @ t=0.5
0.9123352029211995
% es.tEX (V/m) @ t=0.5
-0.7999714928817636
% es.tEY (V/m) @ t=0.5
0
% es.tEZ (V/m) @ t=0.5
0.9123352029212066
% es.Ex (V/m) @ t=0.5
-0.7999714928817663
% es.Ey (V/m) @ t=0.5
0.17773501101621048
% es.Ez (V/m) @ t=0.5
0.9123352029211995
% es.tEx (V/m) @ t=0.5
-0.7999714928817636
% es.tEy (V/m) @ t=0.5
0
% es.tEz (V/m) @ t=0.5
0.9123352029212066
% V (V) @ t=0.5
0.011988753517672026
% es.normE (V/m) @ t=0.52
1.2497597359799908
% es.EX (V/m) @ t=0.52
-0.8070785357374621
% es.EY (V/m) @ t=0.52
0.17931403300405502
% es.EZ (V/m) @ t=0.52
0.9204404625454536
% es.tEX (V/m) @ t=0.52
-0.8070785357374595
% es.tEY (V/m) @ t=0.52
0
% es.tEZ (V/m) @ t=0.52
0.9204404625454572
% es.Ex (V/m) @ t=0.52
-0.8070785357374621
% es.Ey (V/m) @ t=0.52
0.17931403300405502
% es.Ez (V/m) @ t=0.52
0.9204404625454536
% es.tEx (V/m) @ t=0.52
-0.8070785357374595
% es.tEy (V/m) @ t=0.52
0
% es.tEz (V/m) @ t=0.52
0.9204404625454572
% V (V) @ t=0.52
0.012095266450651674
% es.normE (V/m) @ t=0.54
1.2614841418295677
% es.EX (V/m) @ t=0.54
-0.8146500902637381
% es.EY (V/m) @ t=0.54
0.18099626947559078
% es.EZ (V/m) @ t=0.54
0.9290753366526765
% es.tEX (V/m) @ t=0.54
-0.8146500902637355
% es.tEY (V/m) @ t=0.54
0
% es.tEZ (V/m) @ t=0.54
0.9290753366526845
% es.Ex (V/m) @ t=0.54
-0.8146500902637381
% es.Ey (V/m) @ t=0.54
0.18099626947559078
% es.Ez (V/m) @ t=0.54
0.9290753366526765
% es.tEx (V/m) @ t=0.54
-0.8146500902637355
% es.tEy (V/m) @ t=0.54
0
% es.tEz (V/m) @ t=0.54
0.9290753366526845
% V (V) @ t=0.54
0.012208754286803682
% es.normE (V/m) @ t=0.56
1.273724989107602
% es.EX (V/m) @ t=0.56
-0.8225552054163052
% es.EY (V/m) @ t=0.56
0.1827526231114891
% es.EZ (V/m) @ t=0.56
0.9380905209863135
% es.tEX (V/m) @ t=0.56
-0.822555205416299
% es.tEY (V/m) @ t=0.56
0
% es.tEZ (V/m) @ t=0.56
0.9380905209863251
% es.Ex (V/m) @ t=0.56
-0.8225552054163052
% es.Ey (V/m) @ t=0.56
0.1827526231114891
% es.Ez (V/m) @ t=0.56
0.9380905209863135
% es.tEx (V/m) @ t=0.56
-0.822555205416299
% es.tEy (V/m) @ t=0.56
0
% es.tEz (V/m) @ t=0.56
0.9380905209863251
% V (V) @ t=0.56
0.012327250722777336
% es.normE (V/m) @ t=0.58
1.2859658363856676
% es.EX (V/m) @ t=0.58
-0.830460320568855
% es.EY (V/m) @ t=0.58
0.18450897674737865
% es.EZ (V/m) @ t=0.58
0.9471057053199745
% es.tEX (V/m) @ t=0.58
-0.8304603205688523
% es.tEY (V/m) @ t=0.58
0
% es.tEZ (V/m) @ t=0.58
0.947105705319971
% es.Ex (V/m) @ t=0.58
-0.830460320568855
% es.Ey (V/m) @ t=0.58
0.18450897674737865
% es.Ez (V/m) @ t=0.58
0.9471057053199745
% es.tEx (V/m) @ t=0.58
-0.8304603205688523
% es.tEy (V/m) @ t=0.58
0
% es.tEz (V/m) @ t=0.58
0.947105705319971
% V (V) @ t=0.58
0.012445747158750988
% es.normE (V/m) @ t=0.6
1.2982066836637505
% es.EX (V/m) @ t=0.6
-0.8383654357214185
% es.EY (V/m) @ t=0.6
0.18626533038327153
% es.EZ (V/m) @ t=0.6
0.9561208896536106
% es.tEX (V/m) @ t=0.6
-0.8383654357214154
% es.tEY (V/m) @ t=0.6
0
% es.tEZ (V/m) @ t=0.6
0.9561208896536186
% es.Ex (V/m) @ t=0.6
-0.8383654357214185
% es.Ey (V/m) @ t=0.6
0.18626533038327153
% es.Ez (V/m) @ t=0.6
0.9561208896536106
% es.tEx (V/m) @ t=0.6
-0.8383654357214154
% es.tEy (V/m) @ t=0.6
0
% es.tEz (V/m) @ t=0.6
0.9561208896536186
% V (V) @ t=0.6
0.012564243594724642
% es.normE (V/m) @ t=0.62
1.3104475309418693
% es.EX (V/m) @ t=0.62
-0.8462705508739714
% es.EY (V/m) @ t=0.62
0.1880216840191682
% es.EZ (V/m) @ t=0.62
0.9651360739872645
% es.tEX (V/m) @ t=0.62
-0.8462705508739687
% es.tEY (V/m) @ t=0.62
0
% es.tEZ (V/m) @ t=0.62
0.9651360739872725
% es.Ex (V/m) @ t=0.62
-0.8462705508739714
% es.Ey (V/m) @ t=0.62
0.1880216840191682
% es.Ez (V/m) @ t=0.62
0.9651360739872645
% es.tEx (V/m) @ t=0.62
-0.8462705508739687
% es.tEy (V/m) @ t=0.62
0
% es.tEz (V/m) @ t=0.62
0.9651360739872725
% V (V) @ t=0.62
0.012682740030698296
% es.normE (V/m) @ t=0.64
1.3226883782200134
% es.EX (V/m) @ t=0.64
-0.8541756660265314
% es.EY (V/m) @ t=0.64
0.1897780376550594
% es.EZ (V/m) @ t=0.64
0.9741512583209122
% es.tEX (V/m) @ t=0.64
-0.8541756660265283
% es.tEY (V/m) @ t=0.64
0
% es.tEZ (V/m) @ t=0.64
0.9741512583209273
% es.Ex (V/m) @ t=0.64
-0.8541756660265314
% es.Ey (V/m) @ t=0.64
0.1897780376550594
% es.Ez (V/m) @ t=0.64
0.9741512583209122
% es.tEx (V/m) @ t=0.64
-0.8541756660265283
% es.tEy (V/m) @ t=0.64
0
% es.tEz (V/m) @ t=0.64
0.9741512583209273
% V (V) @ t=0.64
0.01280123646667195
% es.normE (V/m) @ t=0.66
1.3349292254981822
% es.EX (V/m) @ t=0.66
-0.8620807811790918
% es.EY (V/m) @ t=0.66
0.19153439129094718
% es.EZ (V/m) @ t=0.66
0.9831664426545581
% es.tEX (V/m) @ t=0.66
-0.8620807811790887
% es.tEY (V/m) @ t=0.66
0
% es.tEZ (V/m) @ t=0.66
0.983166442654559
% es.Ex (V/m) @ t=0.66
-0.8620807811790918
% es.Ey (V/m) @ t=0.66
0.19153439129094718
% es.Ez (V/m) @ t=0.66
0.9831664426545581
% es.tEx (V/m) @ t=0.66
-0.8620807811790887
% es.tEy (V/m) @ t=0.66
0
% es.tEz (V/m) @ t=0.66
0.983166442654559
% V (V) @ t=0.66
0.012919732902645606
% es.normE (V/m) @ t=0.68
1.3471700727763687
% es.EX (V/m) @ t=0.68
-0.8699858963316518
% es.EY (V/m) @ t=0.68
0.19329074492684373
% es.EZ (V/m) @ t=0.68
0.9921816269881987
% es.tEX (V/m) @ t=0.68
-0.8699858963316487
% es.tEY (V/m) @ t=0.68
0
% es.tEZ (V/m) @ t=0.68
0.9921816269882129
% es.Ex (V/m) @ t=0.68
-0.8699858963316518
% es.Ey (V/m) @ t=0.68
0.19329074492684373
% es.Ez (V/m) @ t=0.68
0.9921816269881987
% es.tEx (V/m) @ t=0.68
-0.8699858963316487
% es.tEy (V/m) @ t=0.68
0
% es.tEz (V/m) @ t=0.68
0.9921816269882129
% V (V) @ t=0.68
0.013038229338619258
% es.normE (V/m) @ t=0.7
1.3594109200545863
% es.EX (V/m) @ t=0.7
-0.8778910114842153
% es.EY (V/m) @ t=0.7
0.19504709856273672
% es.EZ (V/m) @ t=0.7
1.0011968113218446
% es.tEX (V/m) @ t=0.7
-0.8778910114842127
% es.tEY (V/m) @ t=0.7
0
% es.tEZ (V/m) @ t=0.7
1.0011968113218526
% es.Ex (V/m) @ t=0.7
-0.8778910114842153
% es.Ey (V/m) @ t=0.7
0.19504709856273672
% es.Ez (V/m) @ t=0.7
1.0011968113218446
% es.tEx (V/m) @ t=0.7
-0.8778910114842127
% es.tEy (V/m) @ t=0.7
0
% es.tEz (V/m) @ t=0.7
1.0011968113218526
% V (V) @ t=0.7
0.013156725774592908
% es.normE (V/m) @ t=0.72
1.3716517673328221
% es.EX (V/m) @ t=0.72
-0.8857961266367722
% es.EY (V/m) @ t=0.72
0.1968034521986226
% es.EZ (V/m) @ t=0.72
1.0102119956554887
% es.tEX (V/m) @ t=0.72
-0.8857961266367691
% es.tEY (V/m) @ t=0.72
0
% es.tEZ (V/m) @ t=0.72
1.0102119956555002
% es.Ex (V/m) @ t=0.72
-0.8857961266367722
% es.Ey (V/m) @ t=0.72
0.1968034521986226
% es.Ez (V/m) @ t=0.72
1.0102119956554887
% es.tEx (V/m) @ t=0.72
-0.8857961266367691
% es.tEy (V/m) @ t=0.72
0
% es.tEz (V/m) @ t=0.72
1.0102119956555002
% V (V) @ t=0.72
0.013275222210566566
% es.normE (V/m) @ t=0.74
1.383892614611098
% es.EX (V/m) @ t=0.74
-0.8937012417893353
% es.EY (V/m) @ t=0.74
0.19855980583451738
% es.EZ (V/m) @ t=0.74
1.0192271799891506
% es.tEX (V/m) @ t=0.74
-0.8937012417893322
% es.tEY (V/m) @ t=0.74
0
% es.tEZ (V/m) @ t=0.74
1.019227179989148
% es.Ex (V/m) @ t=0.74
-0.8937012417893353
% es.Ey (V/m) @ t=0.74
0.19855980583451738
% es.Ez (V/m) @ t=0.74
1.0192271799891506
% es.tEx (V/m) @ t=0.74
-0.8937012417893322
% es.tEy (V/m) @ t=0.74
0
% es.tEz (V/m) @ t=0.74
1.019227179989148
% V (V) @ t=0.74
0.013393718646540216
% es.normE (V/m) @ t=0.76
1.3961334618893757
% es.EX (V/m) @ t=0.76
-0.9016063569418917
% es.EY (V/m) @ t=0.76
0.20031615947042103
% es.EZ (V/m) @ t=0.76
1.0282423643227903
% es.tEX (V/m) @ t=0.76
-0.9016063569418891
% es.tEY (V/m) @ t=0.76
0
% es.tEZ (V/m) @ t=0.76
1.0282423643227947
% es.Ex (V/m) @ t=0.76
-0.9016063569418917
% es.Ey (V/m) @ t=0.76
0.20031615947042103
% es.Ez (V/m) @ t=0.76
1.0282423643227903
% es.tEx (V/m) @ t=0.76
-0.9016063569418891
% es.tEy (V/m) @ t=0.76
0
% es.tEz (V/m) @ t=0.76
1.0282423643227947
% V (V) @ t=0.76
0.013512215082513872
% es.normE (V/m) @ t=0.78
1.4083743091676806
% es.EX (V/m) @ t=0.78
-0.9095114720944446
% es.EY (V/m) @ t=0.78
0.2020725131063087
% es.EZ (V/m) @ t=0.78
1.0372575486564442
% es.tEX (V/m) @ t=0.78
-0.9095114720944415
% es.tEY (V/m) @ t=0.78
0
% es.tEZ (V/m) @ t=0.78
1.0372575486564486
% es.Ex (V/m) @ t=0.78
-0.9095114720944446
% es.Ey (V/m) @ t=0.78
0.2020725131063087
% es.Ez (V/m) @ t=0.78
1.0372575486564442
% es.tEx (V/m) @ t=0.78
-0.9095114720944415
% es.tEy (V/m) @ t=0.78
0
% es.tEz (V/m) @ t=0.78
1.0372575486564486
% V (V) @ t=0.78
0.013630711518487526
% es.normE (V/m) @ t=0.8
1.4211411599439192
% es.EX (V/m) @ t=0.8
-0.9177562115427946
% es.EY (V/m) @ t=0.8
0.20390431356829197
% es.EZ (V/m) @ t=0.8
1.0466601886171594
% es.tEX (V/m) @ t=0.8
-0.917756211542792
% es.tEY (V/m) @ t=0.8
0
% es.tEZ (V/m) @ t=0.8
1.0466601886171532
% es.Ex (V/m) @ t=0.8
-0.9177562115427946
% es.Ey (V/m) @ t=0.8
0.20390431356829197
% es.Ez (V/m) @ t=0.8
1.0466601886171594
% es.tEx (V/m) @ t=0.8
-0.917756211542792
% es.tEy (V/m) @ t=0.8
0
% es.tEz (V/m) @ t=0.8
1.0466601886171532
% V (V) @ t=0.8
0.0137542855900759
% es.normE (V/m) @ t=0.82
1.434773924099024
% es.EX (V/m) @ t=0.82
-0.9265600446524611
% es.EY (V/m) @ t=0.82
0.20586031551635653
% es.EZ (V/m) @ t=0.82
1.0567006627605728
% es.tEX (V/m) @ t=0.82
-0.926560044652458
% es.tEY (V/m) @ t=0.82
0
% es.tEZ (V/m) @ t=0.82
1.0567006627605844
% es.Ex (V/m) @ t=0.82
-0.9265600446524611
% es.Ey (V/m) @ t=0.82
0.20586031551635653
% es.Ez (V/m) @ t=0.82
1.0567006627605728
% es.tEx (V/m) @ t=0.82
-0.926560044652458
% es.tEy (V/m) @ t=0.82
0
% es.tEz (V/m) @ t=0.82
1.0567006627605844
% V (V) @ t=0.82
0.01388621852739289
% es.normE (V/m) @ t=0.84
1.4484066882541318
% es.EX (V/m) @ t=0.84
-0.9353638777621343
% es.EY (V/m) @ t=0.84
0.20781631746442109
% es.EZ (V/m) @ t=0.84
1.0667411369039792
% es.tEX (V/m) @ t=0.84
-0.9353638777621351
% es.tEY (V/m) @ t=0.84
0
% es.tEZ (V/m) @ t=0.84
1.0667411369040014
% es.Ex (V/m) @ t=0.84
-0.9353638777621343
% es.Ey (V/m) @ t=0.84
0.20781631746442109
% es.Ez (V/m) @ t=0.84
1.0667411369039792
% es.tEx (V/m) @ t=0.84
-0.9353638777621351
% es.tEy (V/m) @ t=0.84
0
% es.tEz (V/m) @ t=0.84
1.0667411369040014
% V (V) @ t=0.84
0.014018151464709883
% es.normE (V/m) @ t=0.86
1.462039452409249
% es.EX (V/m) @ t=0.86
-0.9441677108718007
% es.EY (V/m) @ t=0.86
0.20977231941248053
% es.EZ (V/m) @ t=0.86
1.076781611047406
% es.tEX (V/m) @ t=0.86
-0.9441677108718012
% es.tEY (V/m) @ t=0.86
0
% es.tEZ (V/m) @ t=0.86
1.0767816110474033
% es.Ex (V/m) @ t=0.86
-0.9441677108718007
% es.Ey (V/m) @ t=0.86
0.20977231941248053
% es.Ez (V/m) @ t=0.86
1.076781611047406
% es.tEx (V/m) @ t=0.86
-0.9441677108718012
% es.tEy (V/m) @ t=0.86
0
% es.tEz (V/m) @ t=0.86
1.0767816110474033
% V (V) @ t=0.86
0.014150084402026874
% es.normE (V/m) @ t=0.88
1.4756722165643477
% es.EX (V/m) @ t=0.88
-0.9529715439814632
% es.EY (V/m) @ t=0.88
0.2117283213605362
% es.EZ (V/m) @ t=0.88
1.0868220851908053
% es.tEX (V/m) @ t=0.88
-0.9529715439814632
% es.tEY (V/m) @ t=0.88
0
% es.tEZ (V/m) @ t=0.88
1.0868220851908132
% es.Ex (V/m) @ t=0.88
-0.9529715439814632
% es.Ey (V/m) @ t=0.88
0.2117283213605362
% es.Ez (V/m) @ t=0.88
1.0868220851908053
% es.tEx (V/m) @ t=0.88
-0.9529715439814632
% es.tEy (V/m) @ t=0.88
0
% es.tEz (V/m) @ t=0.88
1.0868220851908132
% V (V) @ t=0.88
0.014282017339343865
% es.normE (V/m) @ t=0.9
1.489304980719478
% es.EX (V/m) @ t=0.9
-0.9617753770911359
% es.EY (V/m) @ t=0.9
0.21368432330860243
% es.EZ (V/m) @ t=0.9
1.0968625593342338
% es.tEX (V/m) @ t=0.9
-0.9617753770911328
% es.tEY (V/m) @ t=0.9
0
% es.tEZ (V/m) @ t=0.9
1.0968625593342383
% es.Ex (V/m) @ t=0.9
-0.9617753770911359
% es.Ey (V/m) @ t=0.9
0.21368432330860243
% es.Ez (V/m) @ t=0.9
1.0968625593342338
% es.tEx (V/m) @ t=0.9
-0.9617753770911328
% es.tEy (V/m) @ t=0.9
0
% es.tEz (V/m) @ t=0.9
1.0968625593342383
% V (V) @ t=0.9
0.01441395027666086
% es.normE (V/m) @ t=0.92
1.502937744874594
% es.EX (V/m) @ t=0.92
-0.9705792102007988
% es.EY (V/m) @ t=0.92
0.21564032525665466
% es.EZ (V/m) @ t=0.92
1.10690303347765
% es.tEX (V/m) @ t=0.92
-0.9705792102007957
% es.tEY (V/m) @ t=0.92
0
% es.tEZ (V/m) @ t=0.92
1.1069030334776615
% es.Ex (V/m) @ t=0.92
-0.9705792102007988
% es.Ey (V/m) @ t=0.92
0.21564032525665466
% es.Ez (V/m) @ t=0.92
1.10690303347765
% es.tEx (V/m) @ t=0.92
-0.9705792102007957
% es.tEy (V/m) @ t=0.92
0
% es.tEz (V/m) @ t=0.92
1.1069030334776615
% V (V) @ t=0.92
0.014545883213977852
% es.normE (V/m) @ t=0.94
1.5165705090297283
% es.EX (V/m) @ t=0.94
-0.9793830433104755
% es.EY (V/m) @ t=0.94
0.21759632720470323
% es.EZ (V/m) @ t=0.94
1.1169435076210776
% es.tEX (V/m) @ t=0.94
-0.9793830433104755
% es.tEY (V/m) @ t=0.94
0
% es.tEZ (V/m) @ t=0.94
1.1169435076210785
% es.Ex (V/m) @ t=0.94
-0.9793830433104755
% es.Ey (V/m) @ t=0.94
0.21759632720470323
% es.Ez (V/m) @ t=0.94
1.1169435076210776
% es.tEx (V/m) @ t=0.94
-0.9793830433104755
% es.tEy (V/m) @ t=0.94
0
% es.tEz (V/m) @ t=0.94
1.1169435076210785
% V (V) @ t=0.94
0.014677816151294843
% es.normE (V/m) @ t=0.96
1.5302032731848536
% es.EX (V/m) @ t=0.96
-0.9881868764201416
% es.EY (V/m) @ t=0.96
0.21955232915277512
% es.EZ (V/m) @ t=0.96
1.1269839817644902
% es.tEX (V/m) @ t=0.96
-0.9881868764201385
% es.tEY (V/m) @ t=0.96
0
% es.tEZ (V/m) @ t=0.96
1.1269839817644947
% es.Ex (V/m) @ t=0.96
-0.9881868764201416
% es.Ey (V/m) @ t=0.96
0.21955232915277512
% es.Ez (V/m) @ t=0.96
1.1269839817644902
% es.tEx (V/m) @ t=0.96
-0.9881868764201385
% es.tEy (V/m) @ t=0.96
0
% es.tEz (V/m) @ t=0.96
1.1269839817644947
% V (V) @ t=0.96
0.014809749088611837
% es.normE (V/m) @ t=0.98
1.5438360373399787
% es.EX (V/m) @ t=0.98
-0.9969907095298041
% es.EY (V/m) @ t=0.98
0.22150833110082535
% es.EZ (V/m) @ t=0.98
1.1370244559079108
% es.tEX (V/m) @ t=0.98
-0.9969907095298045
% es.tEY (V/m) @ t=0.98
0
% es.tEZ (V/m) @ t=0.98
1.1370244559079188
% es.Ex (V/m) @ t=0.98
-0.9969907095298041
% es.Ey (V/m) @ t=0.98
0.22150833110082535
% es.Ez (V/m) @ t=0.98
1.1370244559079108
% es.tEx (V/m) @ t=0.98
-0.9969907095298045
% es.tEy (V/m) @ t=0.98
0
% es.tEz (V/m) @ t=0.98
1.1370244559079188
% V (V) @ t=0.98
0.014941682025928828
% es.normE (V/m) @ t=1
1.5574688014951006
% es.EX (V/m) @ t=1
-1.0057945426394772
% es.EY (V/m) @ t=1
0.22346433304889524
% es.EZ (V/m) @ t=1
1.147064930051311
% es.tEX (V/m) @ t=1
-1.0057945426394737
% es.tEY (V/m) @ t=1
0
% es.tEZ (V/m) @ t=1
1.1470649300513367
% es.Ex (V/m) @ t=1
-1.0057945426394772
% es.Ey (V/m) @ t=1
0.22346433304889524
% es.Ez (V/m) @ t=1
1.147064930051311
% es.tEx (V/m) @ t=1
-1.0057945426394737
% es.tEy (V/m) @ t=1
0
% es.tEz (V/m) @ t=1
1.1470649300513367
% V (V) @ t=1
0.015073614963245819
% es.normE (V/m) @ t=1.02
1.57110156565024
% es.EX (V/m) @ t=1.02
-1.0145983757491397
% es.EY (V/m) @ t=1.02
0.22542033499694036
% es.EZ (V/m) @ t=1.02
1.1571054041947448
% es.tEX (V/m) @ t=1.02
-1.0145983757491361
% es.tEY (V/m) @ t=1.02
0
% es.tEZ (V/m) @ t=1.02
1.15710540419476
% es.Ex (V/m) @ t=1.02
-1.0145983757491397
% es.Ey (V/m) @ t=1.02
0.22542033499694036
% es.Ez (V/m) @ t=1.02
1.1571054041947448
% es.tEx (V/m) @ t=1.02
-1.0145983757491361
% es.tEy (V/m) @ t=1.02
0
% es.tEz (V/m) @ t=1.02
1.15710540419476
% V (V) @ t=1.02
0.015205547900562815
% es.normE (V/m) @ t=1.04
1.5847343298053702
% es.EX (V/m) @ t=1.04
-1.0234022088588057
% es.EY (V/m) @ t=1.04
0.22737633694499781
% es.EZ (V/m) @ t=1.04
1.1671458783381556
% es.tEX (V/m) @ t=1.04