% Model:              1 neuron.mph
% Version:            COMSOL 6.1.0.252
% Date:               Mar 18 2023, 13:24
% Dimension:          0
% Nodes:              14017
% Expressions:        14017
% Description:        Electric field norm, Electric field, X component, Electric field, Y component, Electric field, Z component, Tangential electric field, X component, Tangential electric field, Y component, Tangential electric field, Z component, Electric field, x component, Electric field, y component, Electric field, z component, Tangential electric field, x component, Tangential electric field, y component, Tangential electric field, z component, Electric potential
% Length unit:        mm
% x
1.0000000000000002
% y
12.2
% z
2
% es.normE (V/m) @ t=0
1.056800749658889
% es.EX (V/m) @ t=0
0.7340610092101929
% es.EY (V/m) @ t=0
0.10991734705387529
% es.EZ (V/m) @ t=0
-0.7329921139362483
% es.tEX (V/m) @ t=0
0.7340610092101936
% es.tEY (V/m) @ t=0
0
% es.tEZ (V/m) @ t=0
-0.7329921139362447
% es.Ex (V/m) @ t=0
0.7340610092101929
% es.Ey (V/m) @ t=0
0.10991734705387529
% es.Ez (V/m) @ t=0
-0.7329921139362483
% es.tEx (V/m) @ t=0
0.7340610092101936
% es.tEy (V/m) @ t=0
0
% es.tEz (V/m) @ t=0
-0.7329921139362447
% V (V) @ t=0
0.011316954748020233
% es.normE (V/m) @ t=0.02
0.9127700317205423
% es.EX (V/m) @ t=0.02
0.6340162900993875
% es.EY (V/m) @ t=0.02
0.09493678035764597
% es.EZ (V/m) @ t=0.02
-0.633093073789583
% es.tEX (V/m) @ t=0.02
0.6340162900993889
% es.tEY (V/m) @ t=0.02
0
% es.tEZ (V/m) @ t=0.02
-0.633093073789579
% es.Ex (V/m) @ t=0.02
0.6340162900993875
% es.Ey (V/m) @ t=0.02
0.09493678035764597
% es.Ez (V/m) @ t=0.02
-0.633093073789583
% es.tEx (V/m) @ t=0.02
0.6340162900993889
% es.tEy (V/m) @ t=0.02
0
% es.tEz (V/m) @ t=0.02
-0.633093073789579
% V (V) @ t=0.02
0.009774574000416168
% es.normE (V/m) @ t=0.04
0.9211672154055577
% es.EX (V/m) @ t=0.04
0.6398490311843064
% es.EY (V/m) @ t=0.04
0.09581016793291042
% es.EZ (V/m) @ t=0.04
-0.6389173214038382
% es.tEX (V/m) @ t=0.04
0.6398490311843115
% es.tEY (V/m) @ t=0.04
0
% es.tEZ (V/m) @ t=0.04
-0.6389173214038308
% es.Ex (V/m) @ t=0.04
0.6398490311843064
% es.Ey (V/m) @ t=0.04
0.09581016793291042
% es.Ez (V/m) @ t=0.04
-0.6389173214038382
% es.tEx (V/m) @ t=0.04
0.6398490311843115
% es.tEy (V/m) @ t=0.04
0
% es.tEz (V/m) @ t=0.04
-0.6389173214038308
% V (V) @ t=0.04
0.009864496842123423
% es.normE (V/m) @ t=0.06
0.9296303700807107
% es.EX (V/m) @ t=0.06
0.6457275961234046
% es.EY (V/m) @ t=0.06
0.09669041582749538
% es.EZ (V/m) @ t=0.06
-0.6447873266404083
% es.tEX (V/m) @ t=0.06
0.6457275961234119
% es.tEY (V/m) @ t=0.06
0
% es.tEZ (V/m) @ t=0.06
-0.6447873266403974
% es.Ex (V/m) @ t=0.06
0.6457275961234046
% es.Ey (V/m) @ t=0.06
0.09669041582749538
% es.Ez (V/m) @ t=0.06
-0.6447873266404083
% es.tEx (V/m) @ t=0.06
0.6457275961234119
% es.tEy (V/m) @ t=0.06
0
% es.tEz (V/m) @ t=0.06
-0.6447873266403974
% V (V) @ t=0.06
0.009955126205316285
% es.normE (V/m) @ t=0.08
0.9382451681946393
% es.EX (V/m) @ t=0.08
0.6517114936486001
% es.EY (V/m) @ t=0.08
0.0975864367176818
% es.EZ (V/m) @ t=0.08
-0.6507625108498873
% es.tEX (V/m) @ t=0.08
0.6517114936485999
% es.tEY (V/m) @ t=0.08
0
% es.tEZ (V/m) @ t=0.08
-0.6507625108498729
% es.Ex (V/m) @ t=0.08
0.6517114936486001
% es.Ey (V/m) @ t=0.08
0.0975864367176818
% es.Ez (V/m) @ t=0.08
-0.6507625108498873
% es.tEx (V/m) @ t=0.08
0.6517114936485999
% es.tEy (V/m) @ t=0.08
0
% es.tEz (V/m) @ t=0.08
-0.6507625108498729
% V (V) @ t=0.08
0.010047379442022256
% es.normE (V/m) @ t=0.1
0.9469186173627595
% es.EX (V/m) @ t=0.1
0.6577361306035032
% es.EY (V/m) @ t=0.1
0.0984885581212
% es.EZ (V/m) @ t=0.1
-0.6567783750761851
% es.tEX (V/m) @ t=0.1
0.6577361306035083
% es.tEY (V/m) @ t=0.1
0
% es.tEZ (V/m) @ t=0.1
-0.6567783750761742
% es.Ex (V/m) @ t=0.1
0.6577361306035032
% es.Ey (V/m) @ t=0.1
0.0984885581212
% es.Ez (V/m) @ t=0.1
-0.6567783750761851
% es.tEx (V/m) @ t=0.1
0.6577361306035083
% es.tEy (V/m) @ t=0.1
0
% es.tEz (V/m) @ t=0.1
-0.6567783750761742
% V (V) @ t=0.1
0.010140260743444816
% es.normE (V/m) @ t=0.12
0.9555920665308861
% es.EX (V/m) @ t=0.12
0.663760767558411
% es.EY (V/m) @ t=0.12
0.0993906795247046
% es.EZ (V/m) @ t=0.12
-0.6627942393024899
% es.tEX (V/m) @ t=0.12
0.6637607675584123
% es.tEY (V/m) @ t=0.12
0
% es.tEZ (V/m) @ t=0.12
-0.6627942393024826
% es.Ex (V/m) @ t=0.12
0.663760767558411
% es.Ey (V/m) @ t=0.12
0.0993906795247046
% es.Ez (V/m) @ t=0.12
-0.6627942393024899
% es.tEx (V/m) @ t=0.12
0.6637607675584123
% es.tEy (V/m) @ t=0.12
0
% es.tEz (V/m) @ t=0.12
-0.6627942393024826
% V (V) @ t=0.12
0.010233142044867374
% es.normE (V/m) @ t=0.14
0.9644660839001933
% es.EX (V/m) @ t=0.14
0.6699247205518544
% es.EY (V/m) @ t=0.14
0.10031366186323226
% es.EZ (V/m) @ t=0.14
-0.6689492167292188
% es.tEX (V/m) @ t=0.14
0.6699247205518537
% es.tEY (V/m) @ t=0.14
0
% es.tEZ (V/m) @ t=0.14
-0.6689492167292044
% es.Ex (V/m) @ t=0.14
0.6699247205518544
% es.Ey (V/m) @ t=0.14
0.10031366186323226
% es.Ez (V/m) @ t=0.14
-0.6689492167292188
% es.tEx (V/m) @ t=0.14
0.6699247205518537
% es.tEy (V/m) @ t=0.14
0
% es.tEz (V/m) @ t=0.14
-0.6689492167292044
% V (V) @ t=0.14
0.01032817117283031
% es.normE (V/m) @ t=0.16
0.9735834852387717
% es.EX (V/m) @ t=0.16
0.6762577297079537
% es.EY (V/m) @ t=0.16
0.10126195836989055
% es.EZ (V/m) @ t=0.16
-0.6752730041801549
% es.tEX (V/m) @ t=0.16
0.6762577297079524
% es.tEY (V/m) @ t=0.16
0
% es.tEZ (V/m) @ t=0.16
-0.675273004180144
% es.Ex (V/m) @ t=0.16
0.6762577297079537
% es.Ey (V/m) @ t=0.16
0.10126195836989055
% es.Ez (V/m) @ t=0.16
-0.6752730041801549
% es.tEx (V/m) @ t=0.16
0.6762577297079524
% es.tEy (V/m) @ t=0.16
0
% es.tEz (V/m) @ t=0.16
-0.675273004180144
% V (V) @ t=0.16
0.010425806628943001
% es.normE (V/m) @ t=0.18
0.9827008865773372
% es.EX (V/m) @ t=0.18
0.6825907388640451
% es.EY (V/m) @ t=0.18
0.10221025487654312
% es.EZ (V/m) @ t=0.18
-0.6815967916310812
% es.tEX (V/m) @ t=0.18
0.682590738864052
% es.tEY (V/m) @ t=0.18
0
% es.tEZ (V/m) @ t=0.18
-0.6815967916310703
% es.Ex (V/m) @ t=0.18
0.6825907388640451
% es.Ey (V/m) @ t=0.18
0.10221025487654312
% es.Ez (V/m) @ t=0.18
-0.6815967916310812
% es.tEx (V/m) @ t=0.18
0.682590738864052
% es.tEy (V/m) @ t=0.18
0
% es.tEz (V/m) @ t=0.18
-0.6815967916310703
% V (V) @ t=0.18
0.010523442085055693
% es.normE (V/m) @ t=0.2
0.9918182879159287
% es.EX (V/m) @ t=0.2
0.6889237480201529
% es.EY (V/m) @ t=0.2
0.10315855138320834
% es.EZ (V/m) @ t=0.2
-0.6879205790820315
% es.tEX (V/m) @ t=0.2
0.6889237480201542
% es.tEY (V/m) @ t=0.2
0
% es.tEZ (V/m) @ t=0.2
-0.6879205790820171
% es.Ex (V/m) @ t=0.2
0.6889237480201529
% es.Ey (V/m) @ t=0.2
0.10315855138320834
% es.Ez (V/m) @ t=0.2
-0.6879205790820315
% es.tEx (V/m) @ t=0.2
0.6889237480201542
% es.tEy (V/m) @ t=0.2
0
% es.tEz (V/m) @ t=0.2
-0.6879205790820171
% V (V) @ t=0.2
0.010621077541168386
% es.normE (V/m) @ t=0.22
1.000935689254502
% es.EX (V/m) @ t=0.22
0.6952567571762513
% es.EY (V/m) @ t=0.22
0.10410684788987423
% es.EZ (V/m) @ t=0.22
-0.6942443665329614
% es.tEX (V/m) @ t=0.22
0.695256757176252
% es.tEY (V/m) @ t=0.22
0
% es.tEZ (V/m) @ t=0.22
-0.6942443665329434
% es.Ex (V/m) @ t=0.22
0.6952567571762513
% es.Ey (V/m) @ t=0.22
0.10410684788987423
% es.Ez (V/m) @ t=0.22
-0.6942443665329614
% es.tEx (V/m) @ t=0.22
0.695256757176252
% es.tEy (V/m) @ t=0.22
0
% es.tEz (V/m) @ t=0.22
-0.6942443665329434
% V (V) @ t=0.22
0.010718712997281079
% es.normE (V/m) @ t=0.24
1.0100530905930807
% es.EX (V/m) @ t=0.24
0.7015897663323512
% es.EY (V/m) @ t=0.24
0.10505514439653058
% es.EZ (V/m) @ t=0.24
-0.7005681539838977
% es.tEX (V/m) @ t=0.24
0.701589766332348
% es.tEY (V/m) @ t=0.24
0
% es.tEZ (V/m) @ t=0.24
-0.7005681539838831
% es.Ex (V/m) @ t=0.24
0.7015897663323512
% es.Ey (V/m) @ t=0.24
0.10505514439653058
% es.Ez (V/m) @ t=0.24
-0.7005681539838977
% es.tEx (V/m) @ t=0.24
0.701589766332348
% es.tEy (V/m) @ t=0.24
0
% es.tEz (V/m) @ t=0.24
-0.7005681539838831
% V (V) @ t=0.24
0.01081634845339377
% es.normE (V/m) @ t=0.26
1.019170491931645
% es.EX (V/m) @ t=0.26
0.7079227754884434
% es.EY (V/m) @ t=0.26
0.1060034409032029
% es.EZ (V/m) @ t=0.26
-0.7068919414348236
% es.tEX (V/m) @ t=0.26
0.7079227754884467
% es.tEY (V/m) @ t=0.26
0
% es.tEZ (V/m) @ t=0.26
-0.7068919414348089
% es.Ex (V/m) @ t=0.26
0.7079227754884434
% es.Ey (V/m) @ t=0.26
0.1060034409032029
% es.Ez (V/m) @ t=0.26
-0.7068919414348236
% es.tEx (V/m) @ t=0.26
0.7079227754884467
% es.tEy (V/m) @ t=0.26
0
% es.tEz (V/m) @ t=0.26
-0.7068919414348089
% V (V) @ t=0.26
0.010913983909506464
% es.normE (V/m) @ t=0.28
1.0291953722322074
% es.EX (V/m) @ t=0.28
0.7148861255588896
% es.EY (V/m) @ t=0.28
0.10704611912687234
% es.EZ (V/m) @ t=0.28
-0.7138451537370121
% es.tEX (V/m) @ t=0.28
0.714886125558893
% es.tEY (V/m) @ t=0.28
0
% es.tEZ (V/m) @ t=0.28
-0.7138451537370045
% es.Ex (V/m) @ t=0.28
0.7148861255588896
% es.Ey (V/m) @ t=0.28
0.10704611912687234
% es.Ez (V/m) @ t=0.28
-0.7138451537370121
% es.tEx (V/m) @ t=0.28
0.714886125558893
% es.tEy (V/m) @ t=0.28
0
% es.tEz (V/m) @ t=0.28
-0.7138451537370045
% V (V) @ t=0.28
0.0110213374951458
% es.normE (V/m) @ t=0.3
1.039306578622333
% es.EX (V/m) @ t=0.3
0.7219094383045188
% es.EY (V/m) @ t=0.3
0.10809777563535816
% es.EZ (V/m) @ t=0.3
-0.7208582415716989
% es.tEX (V/m) @ t=0.3
0.7219094383045181
% es.tEY (V/m) @ t=0.3
0
% es.tEZ (V/m) @ t=0.3
-0.7208582415716842
% es.Ex (V/m) @ t=0.3
0.7219094383045188
% es.Ey (V/m) @ t=0.3
0.10809777563535816
% es.Ez (V/m) @ t=0.3
-0.7208582415716989
% es.tEx (V/m) @ t=0.3
0.7219094383045181
% es.tEy (V/m) @ t=0.3
0
% es.tEz (V/m) @ t=0.3
-0.7208582415716842
% V (V) @ t=0.3
0.011129615540915806
% es.normE (V/m) @ t=0.32
1.0494177850124413
% es.EX (V/m) @ t=0.32
0.7289327510501353
% es.EY (V/m) @ t=0.32
0.10914943214380923
% es.EZ (V/m) @ t=0.32
-0.727871329406375
% es.tEX (V/m) @ t=0.32
0.7289327510501322
% es.tEY (V/m) @ t=0.32
0
% es.tEZ (V/m) @ t=0.32
-0.727871329406371
% es.Ex (V/m) @ t=0.32
0.7289327510501353
% es.Ey (V/m) @ t=0.32
0.10914943214380923
% es.Ez (V/m) @ t=0.32
-0.727871329406375
% es.tEx (V/m) @ t=0.32
0.7289327510501322
% es.tEy (V/m) @ t=0.32
0
% es.tEz (V/m) @ t=0.32
-0.727871329406371
% V (V) @ t=0.32
0.01123789358668581
% es.normE (V/m) @ t=0.34
1.059528991402547
% es.EX (V/m) @ t=0.34
0.7359560637957439
% es.EY (V/m) @ t=0.34
0.11020108865229006
% es.EZ (V/m) @ t=0.34
-0.734884417241052
% es.tEX (V/m) @ t=0.34
0.7359560637957472
% es.tEY (V/m) @ t=0.34
0
% es.tEZ (V/m) @ t=0.34
-0.7348844172410374
% es.Ex (V/m) @ t=0.34
0.7359560637957439
% es.Ey (V/m) @ t=0.34
0.11020108865229006
% es.Ez (V/m) @ t=0.34
-0.734884417241052
% es.tEx (V/m) @ t=0.34
0.7359560637957472
% es.tEy (V/m) @ t=0.34
0
% es.tEz (V/m) @ t=0.34
-0.7348844172410374
% V (V) @ t=0.34
0.011346171632455816
% es.normE (V/m) @ t=0.36
1.0696401977926642
% es.EX (V/m) @ t=0.36
0.7429793765413628
% es.EY (V/m) @ t=0.36
0.1112527451607519
% es.EZ (V/m) @ t=0.36
-0.7418975050757388
% es.tEX (V/m) @ t=0.36
0.7429793765413653
% es.tEY (V/m) @ t=0.36
0
% es.tEZ (V/m) @ t=0.36
-0.7418975050757242
% es.Ex (V/m) @ t=0.36
0.7429793765413628
% es.Ey (V/m) @ t=0.36
0.1112527451607519
% es.Ez (V/m) @ t=0.36
-0.7418975050757388
% es.tEx (V/m) @ t=0.36
0.7429793765413653
% es.tEy (V/m) @ t=0.36
0
% es.tEz (V/m) @ t=0.36
-0.7418975050757242
% V (V) @ t=0.36
0.01145444967822582
% es.normE (V/m) @ t=0.38
1.0797514041827823
% es.EX (V/m) @ t=0.38
0.7500026892869835
% es.EY (V/m) @ t=0.38
0.11230440166922917
% es.EZ (V/m) @ t=0.38
-0.748910592910423
% es.tEX (V/m) @ t=0.38
0.750002689286986
% es.tEY (V/m) @ t=0.38
0
% es.tEZ (V/m) @ t=0.38
-0.748910592910419
% es.Ex (V/m) @ t=0.38
0.7500026892869835
% es.Ey (V/m) @ t=0.38
0.11230440166922917
% es.Ez (V/m) @ t=0.38
-0.748910592910423
% es.tEx (V/m) @ t=0.38
0.750002689286986
% es.tEy (V/m) @ t=0.38
0
% es.tEz (V/m) @ t=0.38
-0.748910592910419
% V (V) @ t=0.38
0.011562727723995823
% es.normE (V/m) @ t=0.4
1.0898626105728975
% es.EX (V/m) @ t=0.4
0.757026002032607
% es.EY (V/m) @ t=0.4
0.11335605817768307
% es.EZ (V/m) @ t=0.4
-0.7559236807451022
% es.tEX (V/m) @ t=0.4
0.7570260020326058
% es.tEY (V/m) @ t=0.4
0
% es.tEZ (V/m) @ t=0.4
-0.7559236807450915
% es.Ex (V/m) @ t=0.4
0.757026002032607
% es.Ey (V/m) @ t=0.4
0.11335605817768307
% es.Ez (V/m) @ t=0.4
-0.7559236807451022
% es.tEx (V/m) @ t=0.4
0.7570260020326058
% es.tEy (V/m) @ t=0.4
0
% es.tEz (V/m) @ t=0.4
-0.7559236807450915
% V (V) @ t=0.4
0.011671005769765826
% es.normE (V/m) @ t=0.42
1.0999738169630047
% es.EX (V/m) @ t=0.42
0.7640493147782172
% es.EY (V/m) @ t=0.42
0.11440771468616923
% es.EZ (V/m) @ t=0.42
-0.7629367685797792
% es.tEX (V/m) @ t=0.42
0.764049314778223
% es.tEY (V/m) @ t=0.42
0
% es.tEZ (V/m) @ t=0.42
-0.762936768579765
% es.Ex (V/m) @ t=0.42
0.7640493147782172
% es.Ey (V/m) @ t=0.42
0.11440771468616923
% es.Ez (V/m) @ t=0.42
-0.7629367685797792
% es.tEx (V/m) @ t=0.42
0.764049314778223
% es.tEy (V/m) @ t=0.42
0
% es.tEz (V/m) @ t=0.42
-0.762936768579765
% V (V) @ t=0.42
0.011779283815535833
% es.normE (V/m) @ t=0.44
1.1100850233531219
% es.EX (V/m) @ t=0.44
0.7710726275238355
% es.EY (V/m) @ t=0.44
0.11545937119462557
% es.EZ (V/m) @ t=0.44
-0.7699498564144664
% es.tEX (V/m) @ t=0.44
0.7710726275238375
% es.tEY (V/m) @ t=0.44
0
% es.tEZ (V/m) @ t=0.44
-0.7699498564144518
% es.Ex (V/m) @ t=0.44
0.7710726275238355
% es.Ey (V/m) @ t=0.44
0.11545937119462557
% es.Ez (V/m) @ t=0.44
-0.7699498564144664
% es.tEx (V/m) @ t=0.44
0.7710726275238375
% es.tEy (V/m) @ t=0.44
0
% es.tEz (V/m) @ t=0.44
-0.7699498564144518
% V (V) @ t=0.44
0.011887561861305837
% es.normE (V/m) @ t=0.46
1.1201962297432386
% es.EX (V/m) @ t=0.46
0.7780959402694576
% es.EY (V/m) @ t=0.46
0.11651102770309812
% es.EZ (V/m) @ t=0.46
-0.7769629442491457
% es.tEX (V/m) @ t=0.46
0.7780959402694636
% es.tEY (V/m) @ t=0.46
0
% es.tEZ (V/m) @ t=0.46
-0.7769629442491315
% es.Ex (V/m) @ t=0.46
0.7780959402694576
% es.Ey (V/m) @ t=0.46
0.11651102770309812
% es.Ez (V/m) @ t=0.46
-0.7769629442491457
% es.tEx (V/m) @ t=0.46
0.7780959402694636
% es.tEy (V/m) @ t=0.46
0
% es.tEz (V/m) @ t=0.46
-0.7769629442491315
% V (V) @ t=0.46
0.011995839907075843
% es.normE (V/m) @ t=0.48
1.1303074361333523
% es.EX (V/m) @ t=0.48
0.7851192530150641
% es.EY (V/m) @ t=0.48
0.11756268421156296
% es.EZ (V/m) @ t=0.48
-0.7839760320838369
% es.tEX (V/m) @ t=0.48
0.7851192530150701
% es.tEY (V/m) @ t=0.48
0
% es.tEZ (V/m) @ t=0.48
-0.7839760320838192
% es.Ex (V/m) @ t=0.48
0.7851192530150641
% es.Ey (V/m) @ t=0.48
0.11756268421156296
% es.Ez (V/m) @ t=0.48
-0.7839760320838369
% es.tEx (V/m) @ t=0.48
0.7851192530150701
% es.tEy (V/m) @ t=0.48
0
% es.tEz (V/m) @ t=0.48
-0.7839760320838192
% V (V) @ t=0.48
0.012104117952845845
% es.normE (V/m) @ t=0.5
1.1404186425234553
% es.EX (V/m) @ t=0.5
0.7921425657606831
% es.EY (V/m) @ t=0.5
0.11861434072003374
% es.EZ (V/m) @ t=0.5
-0.790989119918502
% es.tEX (V/m) @ t=0.5
0.7921425657606891
% es.tEY (V/m) @ t=0.5
0
% es.tEZ (V/m) @ t=0.5
-0.7909891199184909
% es.Ex (V/m) @ t=0.5
0.7921425657606831
% es.Ey (V/m) @ t=0.5
0.11861434072003374
% es.Ez (V/m) @ t=0.5
-0.790989119918502
% es.tEx (V/m) @ t=0.5
0.7921425657606891
% es.tEy (V/m) @ t=0.5
0
% es.tEz (V/m) @ t=0.5
-0.7909891199184909
% V (V) @ t=0.5
0.012212395998615849
% es.normE (V/m) @ t=0.52
1.1505298489135698
% es.EX (V/m) @ t=0.52
0.7991658785063067
% es.EY (V/m) @ t=0.52
0.11966599722850035
% es.EZ (V/m) @ t=0.52
-0.7980022077531825
% es.tEX (V/m) @ t=0.52
0.7991658785063107
% es.tEY (V/m) @ t=0.52
0
% es.tEZ (V/m) @ t=0.52
-0.7980022077531643
% es.Ex (V/m) @ t=0.52
0.7991658785063067
% es.Ey (V/m) @ t=0.52
0.11966599722850035
% es.Ez (V/m) @ t=0.52
-0.7980022077531825
% es.tEx (V/m) @ t=0.52
0.7991658785063107
% es.tEy (V/m) @ t=0.52
0
% es.tEz (V/m) @ t=0.52
-0.7980022077531643
% V (V) @ t=0.52
0.012320674044385853
% es.normE (V/m) @ t=0.54
1.1615776271305707
% es.EX (V/m) @ t=0.54
0.8068397405778247
% es.EY (V/m) @ t=0.54
0.12081507029582594
% es.EZ (V/m) @ t=0.54
-0.8056648960315616
% es.tEX (V/m) @ t=0.54
0.806839740577828
% es.tEY (V/m) @ t=0.54
0
% es.tEZ (V/m) @ t=0.54
-0.8056648960315469
% es.Ex (V/m) @ t=0.54
0.8068397405778247
% es.Ey (V/m) @ t=0.54
0.12081507029582594
% es.Ez (V/m) @ t=0.54
-0.8056648960315616
% es.tEx (V/m) @ t=0.54
0.806839740577828
% es.tEy (V/m) @ t=0.54
0
% es.tEz (V/m) @ t=0.54
-0.8056648960315469
% V (V) @ t=0.54
0.01243898136161992
% es.normE (V/m) @ t=0.56
1.1728093362348022
% es.EX (V/m) @ t=0.56
0.8146413623269979
% es.EY (V/m) @ t=0.56
0.1219832747459082
% es.EZ (V/m) @ t=0.56
-0.813455157639106
% es.tEX (V/m) @ t=0.56
0.8146413623269995
% es.tEY (V/m) @ t=0.56
0
% es.tEZ (V/m) @ t=0.56
-0.8134551576390878
% es.Ex (V/m) @ t=0.56
0.8146413623269979
% es.Ey (V/m) @ t=0.56
0.1219832747459082
% es.Ez (V/m) @ t=0.56
-0.813455157639106
% es.tEx (V/m) @ t=0.56
0.8146413623269995
% es.tEy (V/m) @ t=0.56
0
% es.tEz (V/m) @ t=0.56
-0.8134551576390878
% V (V) @ t=0.56
0.012559258301199827
% es.normE (V/m) @ t=0.58
1.1840410453390238
% es.EX (V/m) @ t=0.58
0.8224429840761709
% es.EY (V/m) @ t=0.58
0.12315147919598007
% es.EZ (V/m) @ t=0.58
-0.8212454192466359
% es.tEX (V/m) @ t=0.58
0.8224429840761758
% es.tEY (V/m) @ t=0.58
0
% es.tEZ (V/m) @ t=0.58
-0.8212454192466216
% es.Ex (V/m) @ t=0.58
0.8224429840761709
% es.Ey (V/m) @ t=0.58
0.12315147919598007
% es.Ez (V/m) @ t=0.58
-0.8212454192466359
% es.tEx (V/m) @ t=0.58
0.8224429840761758
% es.tEy (V/m) @ t=0.58
0
% es.tEz (V/m) @ t=0.58
-0.8212454192466216
% V (V) @ t=0.58
0.012679535240779735
% es.normE (V/m) @ t=0.6
1.1952727544432467
% es.EX (V/m) @ t=0.6
0.8302446058253492
% es.EY (V/m) @ t=0.6
0.12431968364606583
% es.EZ (V/m) @ t=0.6
-0.829035680854159
% es.tEX (V/m) @ t=0.6
0.8302446058253494
% es.tEY (V/m) @ t=0.6
0
% es.tEZ (V/m) @ t=0.6
-0.8290356808541413
% es.Ex (V/m) @ t=0.6
0.8302446058253492
% es.Ey (V/m) @ t=0.6
0.12431968364606583
% es.Ez (V/m) @ t=0.6
-0.829035680854159
% es.tEx (V/m) @ t=0.6
0.8302446058253494
% es.tEy (V/m) @ t=0.6
0
% es.tEz (V/m) @ t=0.6
-0.8290356808541413
% V (V) @ t=0.6
0.012799812180359641
% es.normE (V/m) @ t=0.62
1.2065044635474782
% es.EX (V/m) @ t=0.62
0.8380462275745189
% es.EY (V/m) @ t=0.62
0.12548788809614003
% es.EZ (V/m) @ t=0.62
-0.8368259424617075
% es.tEX (V/m) @ t=0.62
0.8380462275745209
% es.tEY (V/m) @ t=0.62
0
% es.tEZ (V/m) @ t=0.62
-0.8368259424616893
% es.Ex (V/m) @ t=0.62
0.8380462275745189
% es.Ey (V/m) @ t=0.62
0.12548788809614003
% es.Ez (V/m) @ t=0.62
-0.8368259424617075
% es.tEx (V/m) @ t=0.62
0.8380462275745209
% es.tEy (V/m) @ t=0.62
0
% es.tEz (V/m) @ t=0.62
-0.8368259424616893
% V (V) @ t=0.62
0.012920089119939547
% es.normE (V/m) @ t=0.64
1.2177361726517013
% es.EX (V/m) @ t=0.64
0.8458478493236876
% es.EY (V/m) @ t=0.64
0.12665609254621996
% es.EZ (V/m) @ t=0.64
-0.8446162040692404
% es.tEX (V/m) @ t=0.64
0.8458478493237003
% es.tEY (V/m) @ t=0.64
0
% es.tEZ (V/m) @ t=0.64
-0.8446162040692293
% es.Ex (V/m) @ t=0.64
0.8458478493236876
% es.Ey (V/m) @ t=0.64
0.12665609254621996
% es.Ez (V/m) @ t=0.64
-0.8446162040692404
% es.tEx (V/m) @ t=0.64
0.8458478493237003
% es.tEy (V/m) @ t=0.64
0
% es.tEz (V/m) @ t=0.64
-0.8446162040692293
% V (V) @ t=0.64
0.013040366059519456
% es.normE (V/m) @ t=0.66
1.2289678817559349
% es.EX (V/m) @ t=0.66
0.8536494710728706
% es.EY (V/m) @ t=0.66
0.12782429699631032
% es.EZ (V/m) @ t=0.66
-0.8524064656767814
% es.tEX (V/m) @ t=0.66
0.8536494710728717
% es.tEY (V/m) @ t=0.66
0
% es.tEZ (V/m) @ t=0.66
-0.8524064656767631
% es.Ex (V/m) @ t=0.66
0.8536494710728706
% es.Ey (V/m) @ t=0.66
0.12782429699631032
% es.Ez (V/m) @ t=0.66
-0.8524064656767814
% es.tEx (V/m) @ t=0.66
0.8536494710728717
% es.tEy (V/m) @ t=0.66
0
% es.tEz (V/m) @ t=0.66
-0.8524064656767631
% V (V) @ t=0.66
0.01316064299909936
% es.normE (V/m) @ t=0.68
1.2401995908601615
% es.EX (V/m) @ t=0.68
0.8614510928220469
% es.EY (V/m) @ t=0.68
0.12899250144638313
% es.EZ (V/m) @ t=0.68
-0.8601967272843143
% es.tEX (V/m) @ t=0.68
0.8614510928220485
% es.tEY (V/m) @ t=0.68
0
% es.tEZ (V/m) @ t=0.68
-0.8601967272843032
% es.Ex (V/m) @ t=0.68
0.8614510928220469
% es.Ey (V/m) @ t=0.68
0.12899250144638313
% es.Ez (V/m) @ t=0.68
-0.8601967272843143
% es.tEx (V/m) @ t=0.68
0.8614510928220485
% es.tEy (V/m) @ t=0.68
0
% es.tEz (V/m) @ t=0.68
-0.8601967272843032
% V (V) @ t=0.68
0.013280919938679267
% es.normE (V/m) @ t=0.7
1.2514312999643917
% es.EX (V/m) @ t=0.7
0.8692527145712219
% es.EY (V/m) @ t=0.7
0.13016070589648487
% es.EZ (V/m) @ t=0.7
-0.867986988891849
% es.tEX (V/m) @ t=0.7
0.8692527145712234
% es.tEY (V/m) @ t=0.7
0
% es.tEZ (V/m) @ t=0.7
-0.8679869888918308
% es.Ex (V/m) @ t=0.7
0.8692527145712219
% es.Ey (V/m) @ t=0.7
0.13016070589648487
% es.Ez (V/m) @ t=0.7
-0.867986988891849
% es.tEx (V/m) @ t=0.7
0.8692527145712234
% es.tEy (V/m) @ t=0.7
0
% es.tEz (V/m) @ t=0.7
-0.8679869888918308
% V (V) @ t=0.7
0.013401196878259176
% es.normE (V/m) @ t=0.72
1.2626630090686133
% es.EX (V/m) @ t=0.72
0.8770543363203962
% es.EY (V/m) @ t=0.72
0.1313289103465602
% es.EZ (V/m) @ t=0.72
-0.8757772504993757
% es.tEX (V/m) @ t=0.72
0.8770543363203993
% es.tEY (V/m) @ t=0.72
0
% es.tEZ (V/m) @ t=0.72
-0.8757772504993646
% es.Ex (V/m) @ t=0.72
0.8770543363203962
% es.Ey (V/m) @ t=0.72
0.1313289103465602
% es.Ez (V/m) @ t=0.72
-0.8757772504993757
% es.tEx (V/m) @ t=0.72
0.8770543363203993
% es.tEy (V/m) @ t=0.72
0
% es.tEz (V/m) @ t=0.72
-0.8757772504993646
% V (V) @ t=0.72
0.013521473817839082
% es.normE (V/m) @ t=0.74
1.2738947181728437
% es.EX (V/m) @ t=0.74
0.8848559580695701
% es.EY (V/m) @ t=0.74
0.13249711479664456
% es.EZ (V/m) @ t=0.74
-0.8835675121069158
% es.tEX (V/m) @ t=0.74
0.8848559580695681
% es.tEY (V/m) @ t=0.74
0
% es.tEZ (V/m) @ t=0.74
-0.8835675121069047
% es.Ex (V/m) @ t=0.74
0.8848559580695701
% es.Ey (V/m) @ t=0.74
0.13249711479664456
% es.Ez (V/m) @ t=0.74
-0.8835675121069158
% es.tEx (V/m) @ t=0.74
0.8848559580695681
% es.tEy (V/m) @ t=0.74
0
% es.tEz (V/m) @ t=0.74
-0.8835675121069047
% V (V) @ t=0.74
0.01364175075741899
% es.normE (V/m) @ t=0.76
1.2851264272770664
% es.EX (V/m) @ t=0.76
0.8926575798187415
% es.EY (V/m) @ t=0.76
0.13366531924672675
% es.EZ (V/m) @ t=0.76
-0.8913577737144505
% es.tEX (V/m) @ t=0.76
0.892657579818751
% es.tEY (V/m) @ t=0.76
0
% es.tEZ (V/m) @ t=0.76
-0.8913577737144394
% es.Ex (V/m) @ t=0.76
0.8926575798187415
% es.Ey (V/m) @ t=0.76
0.13366531924672675
% es.Ez (V/m) @ t=0.76
-0.8913577737144505
% es.tEx (V/m) @ t=0.76
0.892657579818751
% es.tEy (V/m) @ t=0.76
0
% es.tEz (V/m) @ t=0.76
-0.8913577737144394
% V (V) @ t=0.76
0.013762027696998896
% es.normE (V/m) @ t=0.78
1.2963581363813046
% es.EX (V/m) @ t=0.78
0.900459201567924
% es.EY (V/m) @ t=0.78
0.1348335236968009
% es.EZ (V/m) @ t=0.78
-0.8991480353219914
% es.tEX (V/m) @ t=0.78
0.90045920156793
% es.tEY (V/m) @ t=0.78
0
% es.tEZ (V/m) @ t=0.78
-0.8991480353219803
% es.Ex (V/m) @ t=0.78
0.900459201567924
% es.Ey (V/m) @ t=0.78
0.1348335236968009
% es.Ez (V/m) @ t=0.78
-0.8991480353219914
% es.tEx (V/m) @ t=0.78
0.90045920156793
% es.tEy (V/m) @ t=0.78
0
% es.tEz (V/m) @ t=0.78
-0.8991480353219803
% V (V) @ t=0.78
0.013882304636578802
% es.normE (V/m) @ t=0.8
1.308549879557898
% es.EX (V/m) @ t=0.8
0.9089276695394048
% es.EY (V/m) @ t=0.8
0.13610158111427267
% es.EZ (V/m) @ t=0.8
-0.9076041720312111
% es.tEX (V/m) @ t=0.8
0.9089276695394117
% es.tEY (V/m) @ t=0.8
0
% es.tEZ (V/m) @ t=0.8
-0.9076041720312
% es.Ex (V/m) @ t=0.8
0.9089276695394048
% es.Ey (V/m) @ t=0.8
0.13610158111427267
% es.Ez (V/m) @ t=0.8
-0.9076041720312111
% es.tEx (V/m) @ t=0.8
0.9089276695394117
% es.tEy (V/m) @ t=0.8
0
% es.tEz (V/m) @ t=0.8
-0.9076041720312
% V (V) @ t=0.8
0.014012862273009541
% es.normE (V/m) @ t=0.82
1.3210471834391533
% es.EX (V/m) @ t=0.82
0.9176083820628802
% es.EY (V/m) @ t=0.82
0.13740141984450127
% es.EZ (V/m) @ t=0.82
-0.9162722442030842
% es.tEX (V/m) @ t=0.82
0.9176083820628866
% es.tEY (V/m) @ t=0.82
0
% es.tEZ (V/m) @ t=0.82
-0.9162722442030695
% es.Ex (V/m) @ t=0.82
0.9176083820628802
% es.Ey (V/m) @ t=0.82
0.13740141984450127
% es.Ez (V/m) @ t=0.82
-0.9162722442030842
% es.tEx (V/m) @ t=0.82
0.9176083820628866
% es.tEy (V/m) @ t=0.82
0
% es.tEz (V/m) @ t=0.82
-0.9162722442030695
% V (V) @ t=0.82
0.014146692060986402
% es.normE (V/m) @ t=0.84
1.3335444873204436
% es.EX (V/m) @ t=0.84
0.9262890945863773
% es.EY (V/m) @ t=0.84
0.13870125857474613
% es.EZ (V/m) @ t=0.84
-0.9249403163749803
% es.tEX (V/m) @ t=0.84
0.926289094586378
% es.tEY (V/m) @ t=0.84
0
% es.tEZ (V/m) @ t=0.84
-0.9249403163749692
% es.Ex (V/m) @ t=0.84
0.9262890945863773
% es.Ey (V/m) @ t=0.84
0.13870125857474613
% es.Ez (V/m) @ t=0.84
-0.9249403163749803
% es.tEx (V/m) @ t=0.84
0.926289094586378
% es.tEy (V/m) @ t=0.84
0
% es.tEz (V/m) @ t=0.84
-0.9249403163749692
% V (V) @ t=0.84
0.014280521848963262
% es.normE (V/m) @ t=0.86
1.346041791201701
% es.EX (V/m) @ t=0.86
0.9349698071098549
% es.EY (V/m) @ t=0.86
0.14000109730495752
% es.EZ (V/m) @ t=0.86
-0.9336083885468516
% es.tEX (V/m) @ t=0.86
0.9349698071098596
% es.tEY (V/m) @ t=0.86
0
% es.tEZ (V/m) @ t=0.86
-0.9336083885468334
% es.Ex (V/m) @ t=0.86
0.9349698071098549
% es.Ey (V/m) @ t=0.86
0.14000109730495752
% es.Ez (V/m) @ t=0.86
-0.9336083885468516
% es.tEx (V/m) @ t=0.86
0.9349698071098596
% es.tEy (V/m) @ t=0.86
0
% es.tEz (V/m) @ t=0.86
-0.9336083885468334
% V (V) @ t=0.86
0.014414351636940121
% es.normE (V/m) @ t=0.88
1.3585390950829788
% es.EX (V/m) @ t=0.88
0.9436505196333387
% es.EY (V/m) @ t=0.88
0.14130093603517685
% es.EZ (V/m) @ t=0.88
-0.9422764607187442
% es.tEX (V/m) @ t=0.88
0.9436505196333429
% es.tEY (V/m) @ t=0.88
0
% es.tEZ (V/m) @ t=0.88
-0.942276460718733
% es.Ex (V/m) @ t=0.88
0.9436505196333387
% es.Ey (V/m) @ t=0.88
0.14130093603517685
% es.Ez (V/m) @ t=0.88
-0.9422764607187442
% es.tEx (V/m) @ t=0.88
0.9436505196333429
% es.tEy (V/m) @ t=0.88
0
% es.tEz (V/m) @ t=0.88
-0.942276460718733
% V (V) @ t=0.88
0.014548181424916984
% es.normE (V/m) @ t=0.9
1.371036398964262
% es.EX (V/m) @ t=0.9
0.9523312321568298
% es.EY (V/m) @ t=0.9
0.1426007747654086
% es.EZ (V/m) @ t=0.9
-0.9509445328906359
% es.tEX (V/m) @ t=0.9
0.9523312321568316
% es.tEY (V/m) @ t=0.9
0
% es.tEZ (V/m) @ t=0.9
-0.9509445328906176
% es.Ex (V/m) @ t=0.9
0.9523312321568298
% es.Ey (V/m) @ t=0.9
0.1426007747654086
% es.Ez (V/m) @ t=0.9
-0.9509445328906359
% es.tEx (V/m) @ t=0.9
0.9523312321568316
% es.tEy (V/m) @ t=0.9
0
% es.tEz (V/m) @ t=0.9
-0.9509445328906176
% V (V) @ t=0.9
0.014682011212893845
% es.normE (V/m) @ t=0.92
1.3835337028455306
% es.EX (V/m) @ t=0.92
0.9610119446803116
% es.EY (V/m) @ t=0.92
0.14390061349563343
% es.EZ (V/m) @ t=0.92
-0.9596126050625169
% es.tEX (V/m) @ t=0.92
0.9610119446803127
% es.tEY (V/m) @ t=0.92
0
% es.tEZ (V/m) @ t=0.92
-0.9596126050625022
% es.Ex (V/m) @ t=0.92
0.9610119446803116
% es.Ey (V/m) @ t=0.92
0.14390061349563343
% es.Ez (V/m) @ t=0.92
-0.9596126050625169
% es.tEx (V/m) @ t=0.92
0.9610119446803127
% es.tEy (V/m) @ t=0.92
0
% es.tEz (V/m) @ t=0.92
-0.9596126050625022
% V (V) @ t=0.92
0.014815841000870708
% es.normE (V/m) @ t=0.94
1.3960310067267923
% es.EX (V/m) @ t=0.94
0.9696926572038007
% es.EY (V/m) @ t=0.94
0.1452004522258475
% es.EZ (V/m) @ t=0.94
-0.9682806772343846
% es.tEX (V/m) @ t=0.94
0.9696926572038049
% es.tEY (V/m) @ t=0.94
0
% es.tEZ (V/m) @ t=0.94
-0.9682806772343735
% es.Ex (V/m) @ t=0.94
0.9696926572038007
% es.Ey (V/m) @ t=0.94
0.1452004522258475
% es.Ez (V/m) @ t=0.94
-0.9682806772343846
% es.tEx (V/m) @ t=0.94
0.9696926572038049
% es.tEy (V/m) @ t=0.94
0
% es.tEz (V/m) @ t=0.94
-0.9682806772343735
% V (V) @ t=0.94
0.01494967078884757
% es.normE (V/m) @ t=0.96
1.4085283106080744
% es.EX (V/m) @ t=0.96
0.9783733697272787
% es.EY (V/m) @ t=0.96
0.14650029095609968
% es.EZ (V/m) @ t=0.96
-0.9769487494062834
% es.tEX (V/m) @ t=0.96
0.9783733697272825
% es.tEY (V/m) @ t=0.96
0
% es.tEZ (V/m) @ t=0.96
-0.9769487494062652
% es.Ex (V/m) @ t=0.96
0.9783733697272787
% es.Ey (V/m) @ t=0.96
0.14650029095609968
% es.Ez (V/m) @ t=0.96
-0.9769487494062834
% es.tEx (V/m) @ t=0.96
0.9783733697272825
% es.tEy (V/m) @ t=0.96
0
% es.tEz (V/m) @ t=0.96
-0.9769487494062652
% V (V) @ t=0.96
0.015083500576824428
% es.normE (V/m) @ t=0.98
1.4210256144893432
% es.EX (V/m) @ t=0.98
0.987054082250763
% es.EY (V/m) @ t=0.98
0.1478001296863128
% es.EZ (V/m) @ t=0.98
-0.9856168215781653
% es.tEX (V/m) @ t=0.98
0.9870540822507676
% es.tEY (V/m) @ t=0.98
0
% es.tEZ (V/m) @ t=0.98
-0.9856168215781507
% es.Ex (V/m) @ t=0.98
0.987054082250763
% es.Ey (V/m) @ t=0.98
0.1478001296863128
% es.Ez (V/m) @ t=0.98
-0.9856168215781653
% es.tEx (V/m) @ t=0.98
0.9870540822507676
% es.tEy (V/m) @ t=0.98
0
% es.tEz (V/m) @ t=0.98
-0.9856168215781507
% V (V) @ t=0.98
0.015217330364801288
% es.normE (V/m) @ t=1
1.4335229183706157
% es.EX (V/m) @ t=1
0.9957347947742534
% es.EY (V/m) @ t=1
0.14909996841653989
% es.EZ (V/m) @ t=1
-0.9942848937500472
% es.tEX (V/m) @ t=1
0.995734794774259
% es.tEY (V/m) @ t=1
0
% es.tEZ (V/m) @ t=1
-0.994284893750029
% es.Ex (V/m) @ t=1
0.9957347947742534
% es.Ey (V/m) @ t=1
0.14909996841653989
% es.Ez (V/m) @ t=1
-0.9942848937500472
% es.tEx (V/m) @ t=1
0.995734794774259
% es.tEy (V/m) @ t=1
0
% es.tEz (V/m) @ t=1
-0.994284893750029
% V (V) @ t=1
0.01535116015277815
% es.normE (V/m) @ t=1.02
1.446020222251892
% es.EX (V/m) @ t=1.02
1.0044155072977274
% es.EY (V/m) @ t=1.02
0.15039980714675516
% es.EZ (V/m) @ t=1.02
-1.002952965921946
% es.tEX (V/m) @ t=1.02
1.004415507297733
% es.tEY (V/m) @ t=1.02
0
% es.tEZ (V/m) @ t=1.02
-1.0029529659219278
% es.Ex (V/m) @ t=1.02
1.0044155072977274
% es.Ey (V/m) @ t=1.02
0.15039980714675516
% es.Ez (V/m) @ t=1.02
-1.002952965921946
% es.tEx (V/m) @ t=1.02
1.004415507297733
% es.tEy (V/m) @ t=1.02
0
% es.tEz (V/m) @ t=1.02
-1.0029529659219278
% V (V) @ t=1.02
0.015484989940755013
% es.normE (V/m) @ t=1.04
1.4585175261331607
% es.EX (V/m) @ t=1.04
1.0130962198212072
% es.EY (V/m) @ t=1.04
0.15169964587697543
% es.EZ (V/m) @ t=1.04
-1.0116210380938306
% es.tEX (V/m) @ t=1.04
1.0130962198212128