% Model:              1 neuron.mph
% Version:            COMSOL 6.0.0.405
% Date:               Mar 16 2023, 18:19
% Dimension:          0
% Nodes:              14017
% Expressions:        14017
% Description:        Electric field norm, Electric field, X component, Electric field, Y component, Electric field, Z component, Tangential electric field, X component, Tangential electric field, Y component, Tangential electric field, Z component, Electric field, x component, Electric field, y component, Electric field, z component, Tangential electric field, x component, Tangential electric field, y component, Tangential electric field, z component, Electric potential
% Length unit:        mm
% x
1.33
% y
12.2
% z
2
% es.normE (V/m) @ t=0
2.1866105172331514
% es.EX (V/m) @ t=0
0.8714474844998465
% es.EY (V/m) @ t=0
0.23039461344905465
% es.EZ (V/m) @ t=0
-1.9904071190035992
% es.tEX (V/m) @ t=0
0.8714474844998432
% es.tEY (V/m) @ t=0
0
% es.tEZ (V/m) @ t=0
-1.9904071190036028
% es.Ex (V/m) @ t=0
0.8714474844998465
% es.Ey (V/m) @ t=0
0.23039461344905465
% es.Ez (V/m) @ t=0
-1.9904071190035992
% es.tEx (V/m) @ t=0
0.8714474844998432
% es.tEy (V/m) @ t=0
0
% es.tEz (V/m) @ t=0
-1.9904071190036028
% V (V) @ t=0
0.010933252483747623
% es.normE (V/m) @ t=0.02
1.8886176243741346
% es.EX (V/m) @ t=0.02
0.7526859790991474
% es.EY (V/m) @ t=0.02
0.19899626592018382
% es.EZ (V/m) @ t=0.02
-1.7191529698160037
% es.tEX (V/m) @ t=0.02
0.7526859790991511
% es.tEY (V/m) @ t=0.02
0
% es.tEZ (V/m) @ t=0.02
-1.7191529698160046
% es.Ex (V/m) @ t=0.02
0.7526859790991474
% es.Ey (V/m) @ t=0.02
0.19899626592018382
% es.Ez (V/m) @ t=0.02
-1.7191529698160037
% es.tEx (V/m) @ t=0.02
0.7526859790991511
% es.tEy (V/m) @ t=0.02
0
% es.tEz (V/m) @ t=0.02
-1.7191529698160046
% V (V) @ t=0.02
0.009443260763987396
% es.normE (V/m) @ t=0.04
1.9059918020579918
% es.EX (V/m) @ t=0.04
0.7596102501339177
% es.EY (V/m) @ t=0.04
0.20082691578879963
% es.EZ (V/m) @ t=0.04
-1.7349681716371856
% es.tEX (V/m) @ t=0.04
0.7596102501339179
% es.tEY (V/m) @ t=0.04
0
% es.tEZ (V/m) @ t=0.04
-1.73496817163719
% es.Ex (V/m) @ t=0.04
0.7596102501339177
% es.Ey (V/m) @ t=0.04
0.20082691578879963
% es.Ez (V/m) @ t=0.04
-1.7349681716371856
% es.tEx (V/m) @ t=0.04
0.7596102501339179
% es.tEy (V/m) @ t=0.04
0
% es.tEz (V/m) @ t=0.04
-1.73496817163719
% V (V) @ t=0.04
0.00953013319895182
% es.normE (V/m) @ t=0.06
1.923504140135163
% es.EX (V/m) @ t=0.06
0.7665895835518608
% es.EY (V/m) @ t=0.06
0.20267212371801246
% es.EZ (V/m) @ t=0.06
-1.7509091366396454
% es.tEX (V/m) @ t=0.06
0.7665895835518612
% es.tEY (V/m) @ t=0.06
0
% es.tEZ (V/m) @ t=0.06
-1.7509091366396508
% es.Ex (V/m) @ t=0.06
0.7665895835518608
% es.Ey (V/m) @ t=0.06
0.20267212371801246
% es.Ez (V/m) @ t=0.06
-1.7509091366396454
% es.tEx (V/m) @ t=0.06
0.7665895835518612
% es.tEy (V/m) @ t=0.06
0
% es.tEz (V/m) @ t=0.06
-1.7509091366396508
% V (V) @ t=0.06
0.009617696403808365
% es.normE (V/m) @ t=0.08
1.9413264820785905
% es.EX (V/m) @ t=0.08
0.7736924647179373
% es.EY (V/m) @ t=0.08
0.20454999357964887
% es.EZ (V/m) @ t=0.08
-1.7671322894709052
% es.tEX (V/m) @ t=0.08
0.773692464717934
% es.tEY (V/m) @ t=0.08
0
% es.tEZ (V/m) @ t=0.08
-1.7671322894709096
% es.Ex (V/m) @ t=0.08
0.7736924647179373
% es.Ey (V/m) @ t=0.08
0.20454999357964887
% es.Ez (V/m) @ t=0.08
-1.7671322894709052
% es.tEx (V/m) @ t=0.08
0.773692464717934
% es.tEy (V/m) @ t=0.08
0
% es.tEz (V/m) @ t=0.08
-1.7671322894709096
% V (V) @ t=0.08
0.00970680978834716
% es.normE (V/m) @ t=0.1
1.9592755273105587
% es.EX (V/m) @ t=0.1
0.7808458417251478
% es.EY (V/m) @ t=0.1
0.20644121286915507
% es.EZ (V/m) @ t=0.1
-1.7834707767537186
% es.tEX (V/m) @ t=0.1
0.7808458417251445
% es.tEY (V/m) @ t=0.1
0
% es.tEZ (V/m) @ t=0.1
-1.7834707767537186
% es.Ex (V/m) @ t=0.1
0.7808458417251478
% es.Ey (V/m) @ t=0.1
0.20644121286915507
% es.Ez (V/m) @ t=0.1
-1.7834707767537186
% es.tEx (V/m) @ t=0.1
0.7808458417251445
% es.tEy (V/m) @ t=0.1
0
% es.tEz (V/m) @ t=0.1
-1.7834707767537186
% V (V) @ t=0.1
0.009796556754866518
% es.normE (V/m) @ t=0.12
1.9772245725425206
% es.EX (V/m) @ t=0.12
0.7879992187323483
% es.EY (V/m) @ t=0.12
0.20833243215867459
% es.EZ (V/m) @ t=0.12
-1.7998092640365284
% es.tEX (V/m) @ t=0.12
0.7879992187323488
% es.tEY (V/m) @ t=0.12
0
% es.tEZ (V/m) @ t=0.12
-1.7998092640365346
% es.Ex (V/m) @ t=0.12
0.7879992187323483
% es.Ey (V/m) @ t=0.12
0.20833243215867459
% es.Ez (V/m) @ t=0.12
-1.7998092640365284
% es.tEx (V/m) @ t=0.12
0.7879992187323488
% es.tEy (V/m) @ t=0.12
0
% es.tEz (V/m) @ t=0.12
-1.7998092640365346
% V (V) @ t=0.12
0.009886303721385877
% es.normE (V/m) @ t=0.14
1.9955695252892967
% es.EX (V/m) @ t=0.14
0.7953103807986897
% es.EY (V/m) @ t=0.14
0.2102653703790507
% es.EZ (V/m) @ t=0.14
-1.8165081335456037
% es.tEX (V/m) @ t=0.14
0.7953103807986865
% es.tEY (V/m) @ t=0.14
0
% es.tEZ (V/m) @ t=0.14
-1.8165081335456055
% es.Ex (V/m) @ t=0.14
0.7953103807986897
% es.Ey (V/m) @ t=0.14
0.2102653703790507
% es.Ez (V/m) @ t=0.14
-1.8165081335456037
% es.tEx (V/m) @ t=0.14
0.7953103807986865
% es.tEy (V/m) @ t=0.14
0
% es.tEz (V/m) @ t=0.14
-1.8165081335456055
% V (V) @ t=0.14
0.009978030036739806
% es.normE (V/m) @ t=0.16
2.0144406917937427
% es.EX (V/m) @ t=0.16
0.8028312601999081
% es.EY (V/m) @ t=0.16
0.21225375860875584
% es.EZ (V/m) @ t=0.16
-1.8336859989776855
% es.tEX (V/m) @ t=0.16
0.8028312601999086
% es.tEY (V/m) @ t=0.16
0
% es.tEZ (V/m) @ t=0.16
-1.8336859989776872
% es.Ex (V/m) @ t=0.16
0.8028312601999081
% es.Ey (V/m) @ t=0.16
0.21225375860875584
% es.Ez (V/m) @ t=0.16
-1.8336859989776855
% es.tEx (V/m) @ t=0.16
0.8028312601999086
% es.tEy (V/m) @ t=0.16
0
% es.tEz (V/m) @ t=0.16
-1.8336859989776872
% V (V) @ t=0.16
0.010072387170022169
% es.normE (V/m) @ t=0.18
2.0333118582982053
% es.EX (V/m) @ t=0.18
0.810352139601145
% es.EY (V/m) @ t=0.18
0.21424214683844767
% es.EZ (V/m) @ t=0.18
-1.850863864409778
% es.tEX (V/m) @ t=0.18
0.8103521396011453
% es.tEY (V/m) @ t=0.18
0
% es.tEZ (V/m) @ t=0.18
-1.850863864409785
% es.Ex (V/m) @ t=0.18
0.810352139601145
% es.Ey (V/m) @ t=0.18
0.21424214683844767
% es.Ez (V/m) @ t=0.18
-1.850863864409778
% es.tEx (V/m) @ t=0.18
0.8103521396011453
% es.tEy (V/m) @ t=0.18
0
% es.tEz (V/m) @ t=0.18
-1.850863864409785
% V (V) @ t=0.18
0.010166744303304531
% es.normE (V/m) @ t=0.2
2.0521830248026616
% es.EX (V/m) @ t=0.2
0.8178730190023813
% es.EY (V/m) @ t=0.2
0.21623053506815992
% es.EZ (V/m) @ t=0.2
-1.8680417298418615
% es.tEX (V/m) @ t=0.2
0.8178730190023815
% es.tEY (V/m) @ t=0.2
0
% es.tEZ (V/m) @ t=0.2
-1.8680417298418632
% es.Ex (V/m) @ t=0.2
0.8178730190023813
% es.Ey (V/m) @ t=0.2
0.21623053506815992
% es.Ez (V/m) @ t=0.2
-1.8680417298418615
% es.tEx (V/m) @ t=0.2
0.8178730190023815
% es.tEy (V/m) @ t=0.2
0
% es.tEz (V/m) @ t=0.2
-1.8680417298418632
% V (V) @ t=0.2
0.010261101436586893
% es.normE (V/m) @ t=0.22
2.071054191307101
% es.EX (V/m) @ t=0.22
0.8253938984035962
% es.EY (V/m) @ t=0.22
0.21821892329786774
% es.EZ (V/m) @ t=0.22
-1.8852195952739361
% es.tEX (V/m) @ t=0.22
0.8253938984035964
% es.tEY (V/m) @ t=0.22
0
% es.tEZ (V/m) @ t=0.22
-1.885219595273945
% es.Ex (V/m) @ t=0.22
0.8253938984035962
% es.Ey (V/m) @ t=0.22
0.21821892329786774
% es.Ez (V/m) @ t=0.22
-1.8852195952739361
% es.tEx (V/m) @ t=0.22
0.8253938984035964
% es.tEy (V/m) @ t=0.22
0
% es.tEz (V/m) @ t=0.22
-1.885219595273945
% V (V) @ t=0.22
0.010355458569869256
% es.normE (V/m) @ t=0.24
2.0899253578115715
% es.EX (V/m) @ t=0.24
0.8329147778048329
% es.EY (V/m) @ t=0.24
0.2202073115275489
% es.EZ (V/m) @ t=0.24
-1.9023974607060392
% es.tEX (V/m) @ t=0.24
0.8329147778048331
% es.tEY (V/m) @ t=0.24
0
% es.tEZ (V/m) @ t=0.24
-1.9023974607060428
% es.Ex (V/m) @ t=0.24
0.8329147778048329
% es.Ey (V/m) @ t=0.24
0.2202073115275489
% es.Ez (V/m) @ t=0.24
-1.9023974607060392
% es.tEx (V/m) @ t=0.24
0.8329147778048331
% es.tEy (V/m) @ t=0.24
0
% es.tEz (V/m) @ t=0.24
-1.9023974607060428
% V (V) @ t=0.24
0.010449815703151616
% es.normE (V/m) @ t=0.26
2.108796524316007
% es.EX (V/m) @ t=0.26
0.8404356572060407
% es.EY (V/m) @ t=0.26
0.22219569975726117
% es.EZ (V/m) @ t=0.26
-1.919575326138112
% es.tEX (V/m) @ t=0.26
0.840435657206041
% es.tEY (V/m) @ t=0.26
0
% es.tEZ (V/m) @ t=0.26
-1.9195753261381174
% es.Ex (V/m) @ t=0.26
0.8404356572060407
% es.Ey (V/m) @ t=0.26
0.22219569975726117
% es.Ez (V/m) @ t=0.26
-1.919575326138112
% es.tEx (V/m) @ t=0.26
0.840435657206041
% es.tEy (V/m) @ t=0.26
0
% es.tEz (V/m) @ t=0.26
-1.9195753261381174
% V (V) @ t=0.26
0.010544172836433977
% es.normE (V/m) @ t=0.28
2.1294604472009446
% es.EX (V/m) @ t=0.28
0.8486710256679493
% es.EY (V/m) @ t=0.28
0.22437301698030065
% es.EZ (V/m) @ t=0.28
-1.938385078519178
% es.tEX (V/m) @ t=0.28
0.8486710256679495
% es.tEY (V/m) @ t=0.28
0
% es.tEZ (V/m) @ t=0.28
-1.9383850785191772
% es.Ex (V/m) @ t=0.28
0.8486710256679493
% es.Ey (V/m) @ t=0.28
0.22437301698030065
% es.Ez (V/m) @ t=0.28
-1.938385078519178
% es.tEx (V/m) @ t=0.28
0.8486710256679495
% es.tEy (V/m) @ t=0.28
0
% es.tEz (V/m) @ t=0.28
-1.9383850785191772
% V (V) @ t=0.28
0.0106474919044191
% es.normE (V/m) @ t=0.3
2.1503962888062276
% es.EX (V/m) @ t=0.3
0.8570147652131597
% es.EY (V/m) @ t=0.3
0.2265789902609594
% es.EZ (V/m) @ t=0.3
-1.9574423495345403
% es.tEX (V/m) @ t=0.3
0.8570147652131563
% es.tEY (V/m) @ t=0.3
0
% es.tEZ (V/m) @ t=0.3
-1.957442349534542
% es.Ex (V/m) @ t=0.3
0.8570147652131597
% es.Ey (V/m) @ t=0.3
0.2265789902609594
% es.Ez (V/m) @ t=0.3
-1.9574423495345403
% es.tEx (V/m) @ t=0.3
0.8570147652131563
% es.tEy (V/m) @ t=0.3
0
% es.tEz (V/m) @ t=0.3
-1.957442349534542
% V (V) @ t=0.3
0.01075217028582958
% es.normE (V/m) @ t=0.32
2.171332130411515
% es.EX (V/m) @ t=0.32
0.865358504758371
% es.EY (V/m) @ t=0.32
0.22878496354158528
% es.EZ (V/m) @ t=0.32
-1.9764996205499088
% es.tEX (V/m) @ t=0.32
0.8653585047583712
% es.tEY (V/m) @ t=0.32
0
% es.tEZ (V/m) @ t=0.32
-1.9764996205499088
% es.Ex (V/m) @ t=0.32
0.865358504758371
% es.Ey (V/m) @ t=0.32
0.22878496354158528
% es.Ez (V/m) @ t=0.32
-1.9764996205499088
% es.tEx (V/m) @ t=0.32
0.8653585047583712
% es.tEy (V/m) @ t=0.32
0
% es.tEz (V/m) @ t=0.32
-1.9764996205499088
% V (V) @ t=0.32
0.010856848667240059
% es.normE (V/m) @ t=0.34
2.192267972016806
% es.EX (V/m) @ t=0.34
0.8737022443035916
% es.EY (V/m) @ t=0.34
0.23099093682223515
% es.EZ (V/m) @ t=0.34
-1.9955568915652728
% es.tEX (V/m) @ t=0.34
0.8737022443035918
% es.tEY (V/m) @ t=0.34
0
% es.tEZ (V/m) @ t=0.34
-1.9955568915652773
% es.Ex (V/m) @ t=0.34
0.8737022443035916
% es.Ey (V/m) @ t=0.34
0.23099093682223515
% es.Ez (V/m) @ t=0.34
-1.9955568915652728
% es.tEx (V/m) @ t=0.34
0.8737022443035918
% es.tEy (V/m) @ t=0.34
0
% es.tEz (V/m) @ t=0.34
-1.9955568915652773
% V (V) @ t=0.34
0.01096152704865054
% es.normE (V/m) @ t=0.36
2.213203813622081
% es.EX (V/m) @ t=0.36
0.8820459838487851
% es.EY (V/m) @ t=0.36
0.2331969101028859
% es.EZ (V/m) @ t=0.36
-2.0146141625806306
% es.tEX (V/m) @ t=0.36
0.8820459838487853
% es.tEY (V/m) @ t=0.36
0
% es.tEZ (V/m) @ t=0.36
-2.0146141625806333
% es.Ex (V/m) @ t=0.36
0.8820459838487851
% es.Ey (V/m) @ t=0.36
0.2331969101028859
% es.Ez (V/m) @ t=0.36
-2.0146141625806306
% es.tEx (V/m) @ t=0.36
0.8820459838487853
% es.tEy (V/m) @ t=0.36
0
% es.tEz (V/m) @ t=0.36
-2.0146141625806333
% V (V) @ t=0.36
0.01106620543006102
% es.normE (V/m) @ t=0.38
2.2341396552273824
% es.EX (V/m) @ t=0.38
0.8903897233940068
% es.EY (V/m) @ t=0.38
0.23540288338352333
% es.EZ (V/m) @ t=0.38
-2.0336714335960044
% es.tEX (V/m) @ t=0.38
0.8903897233940072
% es.tEY (V/m) @ t=0.38
0
% es.tEZ (V/m) @ t=0.38
-2.0336714335960178
% es.Ex (V/m) @ t=0.38
0.8903897233940068
% es.Ey (V/m) @ t=0.38
0.23540288338352333
% es.Ez (V/m) @ t=0.38
-2.0336714335960044
% es.tEx (V/m) @ t=0.38
0.8903897233940072
% es.tEy (V/m) @ t=0.38
0
% es.tEz (V/m) @ t=0.38
-2.0336714335960178
% V (V) @ t=0.38
0.011170883811471502
% es.normE (V/m) @ t=0.4
2.25507549683267
% es.EX (V/m) @ t=0.4
0.8987334629392203
% es.EY (V/m) @ t=0.4
0.23760885666415277
% es.EZ (V/m) @ t=0.4
-2.0527287046113667
% es.tEX (V/m) @ t=0.4
0.8987334629392207
% es.tEY (V/m) @ t=0.4
0
% es.tEZ (V/m) @ t=0.4
-2.0527287046113774
% es.Ex (V/m) @ t=0.4
0.8987334629392203
% es.Ey (V/m) @ t=0.4
0.23760885666415277
% es.Ez (V/m) @ t=0.4
-2.0527287046113667
% es.tEx (V/m) @ t=0.4
0.8987334629392207
% es.tEy (V/m) @ t=0.4
0
% es.tEz (V/m) @ t=0.4
-2.0527287046113774
% V (V) @ t=0.4
0.01127556219288198
% es.normE (V/m) @ t=0.42
2.2760113384379546
% es.EX (V/m) @ t=0.42
0.907077202484428
% es.EY (V/m) @ t=0.42
0.2398148299447973
% es.EZ (V/m) @ t=0.42
-2.0717859756267263
% es.tEX (V/m) @ t=0.42
0.9070772024844285
% es.tEY (V/m) @ t=0.42
0
% es.tEZ (V/m) @ t=0.42
-2.0717859756267263
% es.Ex (V/m) @ t=0.42
0.907077202484428
% es.Ey (V/m) @ t=0.42
0.2398148299447973
% es.Ez (V/m) @ t=0.42
-2.0717859756267263
% es.tEx (V/m) @ t=0.42
0.9070772024844285
% es.tEy (V/m) @ t=0.42
0
% es.tEz (V/m) @ t=0.42
-2.0717859756267263
% V (V) @ t=0.42
0.011380240574292459
% es.normE (V/m) @ t=0.44
2.2969471800432597
% es.EX (V/m) @ t=0.44
0.9154209420296457
% es.EY (V/m) @ t=0.44
0.2420208032254454
% es.EZ (V/m) @ t=0.44
-2.090843246642101
% es.tEX (V/m) @ t=0.44
0.9154209420296424
% es.tEY (V/m) @ t=0.44
0
% es.tEZ (V/m) @ t=0.44
-2.0908432466421
% es.Ex (V/m) @ t=0.44
0.9154209420296457
% es.Ey (V/m) @ t=0.44
0.2420208032254454
% es.Ez (V/m) @ t=0.44
-2.090843246642101
% es.tEx (V/m) @ t=0.44
0.9154209420296424
% es.tEy (V/m) @ t=0.44
0
% es.tEz (V/m) @ t=0.44
-2.0908432466421
% V (V) @ t=0.44
0.01148491895570294
% es.normE (V/m) @ t=0.46
2.3178830216485498
% es.EX (V/m) @ t=0.46
0.9237646815748599
% es.EY (V/m) @ t=0.46
0.24422677650607572
% es.EZ (V/m) @ t=0.46
-2.1099005176574623
% es.tEX (V/m) @ t=0.46
0.9237646815748568
% es.tEY (V/m) @ t=0.46
0
% es.tEZ (V/m) @ t=0.46
-2.1099005176574614
% es.Ex (V/m) @ t=0.46
0.9237646815748599
% es.Ey (V/m) @ t=0.46
0.24422677650607572
% es.Ez (V/m) @ t=0.46
-2.1099005176574623
% es.tEx (V/m) @ t=0.46
0.9237646815748568
% es.tEy (V/m) @ t=0.46
0
% es.tEz (V/m) @ t=0.46
-2.1099005176574614
% V (V) @ t=0.46
0.01158959733711342
% es.normE (V/m) @ t=0.48
2.338818863253852
% es.EX (V/m) @ t=0.48
0.9321084211200774
% es.EY (V/m) @ t=0.48
0.24643274978671048
% es.EZ (V/m) @ t=0.48
-2.1289577886728335
% es.tEX (V/m) @ t=0.48
0.9321084211200779
% es.tEY (V/m) @ t=0.48
0
% es.tEZ (V/m) @ t=0.48
-2.1289577886728335
% es.Ex (V/m) @ t=0.48
0.9321084211200774
% es.Ey (V/m) @ t=0.48
0.24643274978671048
% es.Ez (V/m) @ t=0.48
-2.1289577886728335
% es.tEx (V/m) @ t=0.48
0.9321084211200779
% es.tEy (V/m) @ t=0.48
0
% es.tEz (V/m) @ t=0.48
-2.1289577886728335
% V (V) @ t=0.48
0.011694275718523899
% es.normE (V/m) @ t=0.5
2.359754704859145
% es.EX (V/m) @ t=0.5
0.9404521606652887
% es.EY (V/m) @ t=0.5
0.24863872306737544
% es.EZ (V/m) @ t=0.5
-2.148015059688193
% es.tEX (V/m) @ t=0.5
0.9404521606652856
% es.tEY (V/m) @ t=0.5
0
% es.tEZ (V/m) @ t=0.5
-2.148015059688193
% es.Ex (V/m) @ t=0.5
0.9404521606652887
% es.Ey (V/m) @ t=0.5
0.24863872306737544
% es.Ez (V/m) @ t=0.5
-2.148015059688193
% es.tEx (V/m) @ t=0.5
0.9404521606652856
% es.tEy (V/m) @ t=0.5
0
% es.tEz (V/m) @ t=0.5
-2.148015059688193
% V (V) @ t=0.5
0.01179895409993438
% es.normE (V/m) @ t=0.52
2.380690546464443
% es.EX (V/m) @ t=0.52
0.9487959002105064
% es.EY (V/m) @ t=0.52
0.250844696348012
% es.EZ (V/m) @ t=0.52
-2.167072330703558
% es.tEX (V/m) @ t=0.52
0.9487959002105066
% es.tEY (V/m) @ t=0.52
0
% es.tEZ (V/m) @ t=0.52
-2.1670723307035615
% es.Ex (V/m) @ t=0.52
0.9487959002105064
% es.Ey (V/m) @ t=0.52
0.250844696348012
% es.Ez (V/m) @ t=0.52
-2.167072330703558
% es.tEx (V/m) @ t=0.52
0.9487959002105066
% es.tEy (V/m) @ t=0.52
0
% es.tEz (V/m) @ t=0.52
-2.1670723307035615
% V (V) @ t=0.52
0.01190363248134486
% es.normE (V/m) @ t=0.54
2.4033643715477777
% es.EX (V/m) @ t=0.54
0.9578322832397679
% es.EY (V/m) @ t=0.54
0.2532337497183388
% es.EZ (V/m) @ t=0.54
-2.187711644940512
% es.tEX (V/m) @ t=0.54
0.9578322832397683
% es.tEY (V/m) @ t=0.54
0
% es.tEZ (V/m) @ t=0.54
-2.187711644940519
% es.Ex (V/m) @ t=0.54
0.9578322832397679
% es.Ey (V/m) @ t=0.54
0.2532337497183388
% es.Ez (V/m) @ t=0.54
-2.187711644940512
% es.tEx (V/m) @ t=0.54
0.9578322832397683
% es.tEy (V/m) @ t=0.54
0
% es.tEz (V/m) @ t=0.54
-2.187711644940519
% V (V) @ t=0.54
0.012017003540892805
% es.normE (V/m) @ t=0.56
2.426629294305699
% es.EX (V/m) @ t=0.56
0.9671042381015336
% es.EY (V/m) @ t=0.56
0.25568506962726456
% es.EZ (V/m) @ t=0.56
-2.208889020718999
% es.tEX (V/m) @ t=0.56
0.9671042381015269
% es.tEY (V/m) @ t=0.56
0
% es.tEZ (V/m) @ t=0.56
-2.2088890207190026
% es.Ex (V/m) @ t=0.56
0.9671042381015336
% es.Ey (V/m) @ t=0.56
0.25568506962726456
% es.Ez (V/m) @ t=0.56
-2.208889020718999
% es.tEx (V/m) @ t=0.56
0.9671042381015269
% es.tEy (V/m) @ t=0.56
0
% es.tEz (V/m) @ t=0.56
-2.2088890207190026
% V (V) @ t=0.56
0.012133331027758943
% es.normE (V/m) @ t=0.58
2.449894217063629
% es.EX (V/m) @ t=0.58
0.9763761929632926
% es.EY (V/m) @ t=0.58
0.2581363895361921
% es.EZ (V/m) @ t=0.58
-2.230066396497497
% es.tEX (V/m) @ t=0.58
0.9763761929632926
% es.tEY (V/m) @ t=0.58
0
% es.tEZ (V/m) @ t=0.58
-2.2300663964975023
% es.Ex (V/m) @ t=0.58
0.9763761929632926
% es.Ey (V/m) @ t=0.58
0.2581363895361921
% es.Ez (V/m) @ t=0.58
-2.230066396497497
% es.tEx (V/m) @ t=0.58
0.9763761929632926
% es.tEy (V/m) @ t=0.58
0
% es.tEz (V/m) @ t=0.58
-2.2300663964975023
% V (V) @ t=0.58
0.012249658514625079
% es.normE (V/m) @ t=0.6
2.473159139821539
% es.EX (V/m) @ t=0.6
0.9856481478250312
% es.EY (V/m) @ t=0.6
0.2605877094451037
% es.EZ (V/m) @ t=0.6
-2.251243772275984
% es.tEX (V/m) @ t=0.6
0.9856481478250316
% es.tEY (V/m) @ t=0.6
0
% es.tEZ (V/m) @ t=0.6
-2.2512437722759877
% es.Ex (V/m) @ t=0.6
0.9856481478250312
% es.Ey (V/m) @ t=0.6
0.2605877094451037
% es.Ez (V/m) @ t=0.6
-2.251243772275984
% es.tEx (V/m) @ t=0.6
0.9856481478250316
% es.tEy (V/m) @ t=0.6
0
% es.tEz (V/m) @ t=0.6
-2.2512437722759877
% V (V) @ t=0.6
0.012365986001491214
% es.normE (V/m) @ t=0.62
2.4964240625794663
% es.EX (V/m) @ t=0.62
0.9949201026867898
% es.EY (V/m) @ t=0.62
0.2630390293540046
% es.EZ (V/m) @ t=0.62
-2.272421148054482
% es.tEX (V/m) @ t=0.62
0.9949201026867902
% es.tEY (V/m) @ t=0.62
0
% es.tEZ (V/m) @ t=0.62
-2.2724211480544945
% es.Ex (V/m) @ t=0.62
0.9949201026867898
% es.Ey (V/m) @ t=0.62
0.2630390293540046
% es.Ez (V/m) @ t=0.62
-2.272421148054482
% es.tEx (V/m) @ t=0.62
0.9949201026867902
% es.tEy (V/m) @ t=0.62
0
% es.tEz (V/m) @ t=0.62
-2.2724211480544945
% V (V) @ t=0.62
0.01248231348835735
% es.normE (V/m) @ t=0.64
2.519688985337397
% es.EX (V/m) @ t=0.64
1.0041920575485501
% es.EY (V/m) @ t=0.64
0.265490349262933
% es.EZ (V/m) @ t=0.64
-2.29359852383298
% es.tEX (V/m) @ t=0.64
1.0041920575485506
% es.tEY (V/m) @ t=0.64
0
% es.tEZ (V/m) @ t=0.64
-2.2935985238329835
% es.Ex (V/m) @ t=0.64
1.0041920575485501
% es.Ey (V/m) @ t=0.64
0.265490349262933
% es.Ez (V/m) @ t=0.64
-2.29359852383298
% es.tEx (V/m) @ t=0.64
1.0041920575485506
% es.tEy (V/m) @ t=0.64
0
% es.tEz (V/m) @ t=0.64
-2.2935985238329835
% V (V) @ t=0.64
0.012598640975223487
% es.normE (V/m) @ t=0.66
2.5429539080953303
% es.EX (V/m) @ t=0.66
1.0134640124103158
% es.EY (V/m) @ t=0.66
0.2679416691718801
% es.EZ (V/m) @ t=0.66
-2.3147758996114742
% es.tEX (V/m) @ t=0.66
1.0134640124103091
% es.tEY (V/m) @ t=0.66
0
% es.tEZ (V/m) @ t=0.66
-2.314775899611483
% es.Ex (V/m) @ t=0.66
1.0134640124103158
% es.Ey (V/m) @ t=0.66
0.2679416691718801
% es.Ez (V/m) @ t=0.66
-2.3147758996114742
% es.tEx (V/m) @ t=0.66
1.0134640124103091
% es.tEy (V/m) @ t=0.66
0
% es.tEz (V/m) @ t=0.66
-2.314775899611483
% V (V) @ t=0.66
0.012714968462089618
% es.normE (V/m) @ t=0.68
2.5662188308532476
% es.EX (V/m) @ t=0.68
1.022735967272054
% es.EY (V/m) @ t=0.68
0.2703929890807881
% es.EZ (V/m) @ t=0.68
-2.3359532753899703
% es.tEX (V/m) @ t=0.68
1.0227359672720544
% es.tEY (V/m) @ t=0.68
0
% es.tEZ (V/m) @ t=0.68
-2.335953275389972
% es.Ex (V/m) @ t=0.68
1.022735967272054
% es.Ey (V/m) @ t=0.68
0.2703929890807881
% es.Ez (V/m) @ t=0.68
-2.3359532753899703
% es.tEx (V/m) @ t=0.68
1.0227359672720544
% es.tEy (V/m) @ t=0.68
0
% es.tEz (V/m) @ t=0.68
-2.335953275389972
% V (V) @ t=0.68
0.01283129594895576
% es.normE (V/m) @ t=0.7
2.589483753611169
% es.EX (V/m) @ t=0.7
1.032007922133813
% es.EY (V/m) @ t=0.7
0.2728443089896997
% es.EZ (V/m) @ t=0.7
-2.3571306511684593
% es.tEX (V/m) @ t=0.7
1.032007922133813
% es.tEY (V/m) @ t=0.7
0
% es.tEZ (V/m) @ t=0.7
-2.357130651168461
% es.Ex (V/m) @ t=0.7
1.032007922133813
% es.Ey (V/m) @ t=0.7
0.2728443089896997
% es.Ez (V/m) @ t=0.7
-2.3571306511684593
% es.tEx (V/m) @ t=0.7
1.032007922133813
% es.tEy (V/m) @ t=0.7
0
% es.tEz (V/m) @ t=0.7
-2.357130651168461
% V (V) @ t=0.7
0.012947623435821893
% es.normE (V/m) @ t=0.72
2.6127486763691046
% es.EX (V/m) @ t=0.72
1.041279876995572
% es.EY (V/m) @ t=0.72
0.2752956288986237
% es.EZ (V/m) @ t=0.72
-2.3783080269469625
% es.tEX (V/m) @ t=0.72
1.0412798769955725
% es.tEY (V/m) @ t=0.72
0
% es.tEZ (V/m) @ t=0.72
-2.378308026946968
% es.Ex (V/m) @ t=0.72
1.041279876995572
% es.Ey (V/m) @ t=0.72
0.2752956288986237
% es.Ez (V/m) @ t=0.72
-2.3783080269469625
% es.tEx (V/m) @ t=0.72
1.0412798769955725
% es.tEy (V/m) @ t=0.72
0
% es.tEz (V/m) @ t=0.72
-2.378308026946968
% V (V) @ t=0.72
0.013063950922688031
% es.normE (V/m) @ t=0.74
2.6360135991270166
% es.EX (V/m) @ t=0.74
1.0505518318573173
% es.EY (V/m) @ t=0.74
0.277746948807561
% es.EZ (V/m) @ t=0.74
-2.3994854027254444
% es.tEX (V/m) @ t=0.74
1.0505518318573177
% es.tEY (V/m) @ t=0.74
0
% es.tEZ (V/m) @ t=0.74
-2.3994854027254533
% es.Ex (V/m) @ t=0.74
1.0505518318573173
% es.Ey (V/m) @ t=0.74
0.277746948807561
% es.Ez (V/m) @ t=0.74
-2.3994854027254444
% es.tEx (V/m) @ t=0.74
1.0505518318573177
% es.tEy (V/m) @ t=0.74
0
% es.tEz (V/m) @ t=0.74
-2.3994854027254533
% V (V) @ t=0.74
0.013180278409554163
% es.normE (V/m) @ t=0.76
2.659278521884956
% es.EX (V/m) @ t=0.76
1.05982378671909
% es.EY (V/m) @ t=0.76
0.28019826871646725
% es.EZ (V/m) @ t=0.76
-2.4206627785039476
% es.tEX (V/m) @ t=0.76
1.0598237867190905
% es.tEY (V/m) @ t=0.76
0
% es.tEZ (V/m) @ t=0.76
-2.420662778503953
% es.Ex (V/m) @ t=0.76
1.05982378671909
% es.Ey (V/m) @ t=0.76
0.28019826871646725
% es.Ez (V/m) @ t=0.76
-2.4206627785039476
% es.tEx (V/m) @ t=0.76
1.0598237867190905
% es.tEy (V/m) @ t=0.76
0
% es.tEz (V/m) @ t=0.76
-2.420662778503953
% V (V) @ t=0.76
0.0132966058964203
% es.normE (V/m) @ t=0.78
2.6825434446428904
% es.EX (V/m) @ t=0.78
1.0690957415808575
% es.EY (V/m) @ t=0.78
0.28264958862538236
% es.EZ (V/m) @ t=0.78
-2.4418401542824473
% es.tEX (V/m) @ t=0.78
1.0690957415808509
% es.tEY (V/m) @ t=0.78
0
% es.tEZ (V/m) @ t=0.78
-2.441840154282449
% es.Ex (V/m) @ t=0.78
1.0690957415808575
% es.Ey (V/m) @ t=0.78
0.28264958862538236
% es.Ez (V/m) @ t=0.78
-2.4418401542824473
% es.tEx (V/m) @ t=0.78
1.0690957415808509
% es.tEy (V/m) @ t=0.78
0
% es.tEz (V/m) @ t=0.78
-2.441840154282449
% V (V) @ t=0.78
0.013412933383286437
% es.normE (V/m) @ t=0.8
2.7074510495621396
% es.EX (V/m) @ t=0.8
1.079022372270726
% es.EY (V/m) @ t=0.8
0.28527401785076023
% es.EZ (V/m) @ t=0.8
-2.46451281085867
% es.tEX (V/m) @ t=0.8
1.0790223722707264
% es.tEY (V/m) @ t=0.8
0
% es.tEZ (V/m) @ t=0.8
-2.4645128108586754
% es.Ex (V/m) @ t=0.8
1.079022372270726
% es.Ey (V/m) @ t=0.8
0.28527401785076023
% es.Ez (V/m) @ t=0.8
-2.46451281085867
% es.tEx (V/m) @ t=0.8
1.0790223722707264
% es.tEy (V/m) @ t=0.8
0
% es.tEz (V/m) @ t=0.8
-2.4645128108586754
% V (V) @ t=0.8
0.013537472975353902
% es.normE (V/m) @ t=0.82
2.733347968179821
% es.EX (V/m) @ t=0.82
1.0893432848125455
% es.EY (V/m) @ t=0.82
0.2880027030437162
% es.EZ (V/m) @ t=0.82
-2.48808600791134
% es.tEX (V/m) @ t=0.82
1.0893432848125455
% es.tEY (V/m) @ t=0.82
0
% es.tEZ (V/m) @ t=0.82
-2.488086007911349
% es.Ex (V/m) @ t=0.82
1.0893432848125455
% es.Ey (V/m) @ t=0.82
0.2880027030437162
% es.Ez (V/m) @ t=0.82
-2.48808600791134
% es.tEx (V/m) @ t=0.82
1.0893432848125455
% es.tEy (V/m) @ t=0.82
0
% es.tEz (V/m) @ t=0.82
-2.488086007911349
% V (V) @ t=0.82
0.013666958349606056
% es.normE (V/m) @ t=0.84
2.759244886797508
% es.EX (V/m) @ t=0.84
1.099664197354394
% es.EY (V/m) @ t=0.84
0.29073138823665
% es.EZ (V/m) @ t=0.84
-2.5116592049640065
% es.tEX (V/m) @ t=0.84
1.099664197354394
% es.tEY (V/m) @ t=0.84
0
% es.tEZ (V/m) @ t=0.84
-2.5116592049640083
% es.Ex (V/m) @ t=0.84
1.099664197354394
% es.Ey (V/m) @ t=0.84
0.29073138823665
% es.Ez (V/m) @ t=0.84
-2.5116592049640065
% es.tEx (V/m) @ t=0.84
1.099664197354394
% es.tEy (V/m) @ t=0.84
0
% es.tEz (V/m) @ t=0.84
-2.5116592049640083
% V (V) @ t=0.84
0.013796443723858208
% es.normE (V/m) @ t=0.86
2.7851418054152015
% es.EX (V/m) @ t=0.86
1.1099851098962419
% es.EY (V/m) @ t=0.86
0.2934600734295678
% es.EZ (V/m) @ t=0.86
-2.535232402016682
% es.tEX (V/m) @ t=0.86
1.1099851098962423
% es.tEY (V/m) @ t=0.86
0
% es.tEZ (V/m) @ t=0.86
-2.5352324020166854
% es.Ex (V/m) @ t=0.86
1.1099851098962419
% es.Ey (V/m) @ t=0.86
0.2934600734295678
% es.Ez (V/m) @ t=0.86
-2.535232402016682
% es.tEx (V/m) @ t=0.86
1.1099851098962423
% es.tEy (V/m) @ t=0.86
0
% es.tEz (V/m) @ t=0.86
-2.5352324020166854
% V (V) @ t=0.86
0.013925929098110364
% es.normE (V/m) @ t=0.88
2.8110387240329047
% es.EX (V/m) @ t=0.88
1.1203060224380903
% es.EY (V/m) @ t=0.88
0.29618875862253
% es.EZ (V/m) @ t=0.88
-2.558805599069361
% es.tEX (V/m) @ t=0.88
1.1203060224380907
% es.tEY (V/m) @ t=0.88
0
% es.tEZ (V/m) @ t=0.88
-2.5588055990693626
% es.Ex (V/m) @ t=0.88
1.1203060224380903
% es.Ey (V/m) @ t=0.88
0.29618875862253
% es.Ez (V/m) @ t=0.88
-2.558805599069361
% es.tEx (V/m) @ t=0.88
1.1203060224380907
% es.tEy (V/m) @ t=0.88
0
% es.tEz (V/m) @ t=0.88
-2.5588055990693626
% V (V) @ t=0.88
0.01405541447236252
% es.normE (V/m) @ t=0.9
2.8369356426505656
% es.EX (V/m) @ t=0.9
1.1306269349799236
% es.EY (V/m) @ t=0.9
0.29891744381544694
% es.EZ (V/m) @ t=0.9
-2.582378796122006
% es.tEX (V/m) @ t=0.9
1.130626934979924
% es.tEY (V/m) @ t=0.9
0
% es.tEZ (V/m) @ t=0.9
-2.5823787961220113
% es.Ex (V/m) @ t=0.9
1.1306269349799236
% es.Ey (V/m) @ t=0.9
0.29891744381544694
% es.Ez (V/m) @ t=0.9
-2.582378796122006
% es.tEx (V/m) @ t=0.9
1.130626934979924
% es.tEy (V/m) @ t=0.9
0
% es.tEz (V/m) @ t=0.9
-2.5823787961220113
% V (V) @ t=0.9
0.014184899846614673
% es.normE (V/m) @ t=0.92
2.8628325612682675
% es.EX (V/m) @ t=0.92
1.140947847521765
% es.EY (V/m) @ t=0.92
0.3016461290083887
% es.EZ (V/m) @ t=0.92
-2.60595199317469
% es.tEX (V/m) @ t=0.92
1.1409478475217583
% es.tEY (V/m) @ t=0.92
0
% es.tEZ (V/m) @ t=0.92
-2.6059519931746884
% es.Ex (V/m) @ t=0.92
1.140947847521765
% es.Ey (V/m) @ t=0.92
0.3016461290083887
% es.Ez (V/m) @ t=0.92
-2.60595199317469
% es.tEx (V/m) @ t=0.92
1.1409478475217583
% es.tEy (V/m) @ t=0.92
0
% es.tEz (V/m) @ t=0.92
-2.6059519931746884
% V (V) @ t=0.92
0.014314385220866829
% es.normE (V/m) @ t=0.94
2.888729479885959
% es.EX (V/m) @ t=0.94
1.1512687600636204
% es.EY (V/m) @ t=0.94
0.30437481420131984
% es.EZ (V/m) @ t=0.94
-2.6295251902273566
% es.tEX (V/m) @ t=0.94
1.1512687600636209
% es.tEY (V/m) @ t=0.94
0
% es.tEZ (V/m) @ t=0.94
-2.6295251902273584
% es.Ex (V/m) @ t=0.94
1.1512687600636204
% es.Ey (V/m) @ t=0.94
0.30437481420131984
% es.Ez (V/m) @ t=0.94
-2.6295251902273566
% es.tEx (V/m) @ t=0.94
1.1512687600636209
% es.tEy (V/m) @ t=0.94
0
% es.tEz (V/m) @ t=0.94
-2.6295251902273584
% V (V) @ t=0.94
0.014443870595118986
% es.normE (V/m) @ t=0.96
2.91462639850365
% es.EX (V/m) @ t=0.96
1.1615896726054546
% es.EY (V/m) @ t=0.96
0.3071034993942714
% es.EZ (V/m) @ t=0.96
-2.6530983872800302
% es.tEX (V/m) @ t=0.96
1.161589672605455
% es.tEY (V/m) @ t=0.96
0
% es.tEZ (V/m) @ t=0.96
-2.653098387280032
% es.Ex (V/m) @ t=0.96
1.1615896726054546
% es.Ey (V/m) @ t=0.96
0.3071034993942714
% es.Ez (V/m) @ t=0.96
-2.6530983872800302
% es.tEx (V/m) @ t=0.96
1.161589672605455
% es.tEy (V/m) @ t=0.96
0
% es.tEz (V/m) @ t=0.96
-2.653098387280032
% V (V) @ t=0.96
0.014573355969371142
% es.normE (V/m) @ t=0.98
2.9405233171213405
% es.EX (V/m) @ t=0.98
1.1719105851473022
% es.EY (V/m) @ t=0.98
0.30983218458721673
% es.EZ (V/m) @ t=0.98
-2.6766715843326967
% es.tEX (V/m) @ t=0.98
1.1719105851473026
% es.tEY (V/m) @ t=0.98
0
% es.tEZ (V/m) @ t=0.98
-2.6766715843326985
% es.Ex (V/m) @ t=0.98
1.1719105851473022
% es.Ey (V/m) @ t=0.98
0.30983218458721673
% es.Ez (V/m) @ t=0.98
-2.6766715843326967
% es.tEx (V/m) @ t=0.98
1.1719105851473026
% es.tEy (V/m) @ t=0.98
0
% es.tEz (V/m) @ t=0.98
-2.6766715843326985
% V (V) @ t=0.98
0.01470284134362329
% es.normE (V/m) @ t=1
2.9664202357390224
% es.EX (V/m) @ t=1
1.1822314976891364
% es.EY (V/m) @ t=1
0.31256086978013364
% es.EZ (V/m) @ t=1
-2.700244781385363
% es.tEX (V/m) @ t=1
1.1822314976891368
% es.tEY (V/m) @ t=1
0
% es.tEZ (V/m) @ t=1
-2.700244781385365
% es.Ex (V/m) @ t=1
1.1822314976891364
% es.Ey (V/m) @ t=1
0.31256086978013364
% es.Ez (V/m) @ t=1
-2.700244781385363
% es.tEx (V/m) @ t=1
1.1822314976891368
% es.tEy (V/m) @ t=1
0
% es.tEz (V/m) @ t=1
-2.700244781385365
% V (V) @ t=1
0.014832326717875446
% es.normE (V/m) @ t=1.02
2.992317154356714
% es.EX (V/m) @ t=1.02
1.192552410230984
% es.EY (V/m) @ t=1.02
0.3152895549730683
% es.EZ (V/m) @ t=1.02
-2.723817978438033
% es.tEX (V/m) @ t=1.02
1.1925524102309843
% es.tEY (V/m) @ t=1.02
0
% es.tEZ (V/m) @ t=1.02
-2.7238179784380385
% es.Ex (V/m) @ t=1.02
1.192552410230984
% es.Ey (V/m) @ t=1.02
0.3152895549730683
% es.Ez (V/m) @ t=1.02
-2.723817978438033
% es.tEx (V/m) @ t=1.02
1.1925524102309843
% es.tEy (V/m) @ t=1.02
0
% es.tEz (V/m) @ t=1.02
-2.7238179784380385
% V (V) @ t=1.02
0.014961812092127604
% es.normE (V/m) @ t=1.04
3.018214072974401
% es.EX (V/m) @ t=1.04
1.202873322772818
% es.EY (V/m) @ t=1.04
0.3180182401660021
% es.EZ (V/m) @ t=1.04
-2.747391175490703
% es.tEX (V/m) @ t=1.04
1.2028733227728186
% es.tEY (V/m) @ t=1.04
0
% es.tEZ (V/m) @ t=1.04
-2.747391175490712
% es.Ex (V/m) @ t=1.04
1.202873322772818