% Model:              1 neuron.mph
% Version:            COMSOL 6.1.0.252
% Date:               Mar 18 2023, 13:28
% Dimension:          0
% Nodes:              14017
% Expressions:        14017
% Description:        Electric field norm, Electric field, X component, Electric field, Y component, Electric field, Z component, Tangential electric field, X component, Tangential electric field, Y component, Tangential electric field, Z component, Electric field, x component, Electric field, y component, Electric field, z component, Tangential electric field, x component, Tangential electric field, y component, Tangential electric field, z component, Electric potential
% Length unit:        mm
% x
1.33
% y
12.2
% z
1.33
% es.normE (V/m) @ t=0
11.745855848825151
% es.EX (V/m) @ t=0
9.101677683947331
% es.EY (V/m) @ t=0
-1.3946469688985133
% es.EZ (V/m) @ t=0
7.2712522044649885
% es.tEX (V/m) @ t=0
9.101677683947333
% es.tEY (V/m) @ t=0
0
% es.tEZ (V/m) @ t=0
7.2712522044649885
% es.Ex (V/m) @ t=0
9.101677683947331
% es.Ey (V/m) @ t=0
-1.3946469688985133
% es.Ez (V/m) @ t=0
7.2712522044649885
% es.tEx (V/m) @ t=0
9.101677683947333
% es.tEy (V/m) @ t=0
0
% es.tEz (V/m) @ t=0
7.2712522044649885
% V (V) @ t=0
0.009700113960634336
% es.normE (V/m) @ t=0.02
10.145023760021472
% es.EX (V/m) @ t=0.02
7.861218244849602
% es.EY (V/m) @ t=0.02
-1.2045717770595772
% es.EZ (V/m) @ t=0.02
6.280259816460674
% es.tEX (V/m) @ t=0.02
7.861218244849609
% es.tEY (V/m) @ t=0.02
0
% es.tEZ (V/m) @ t=0.02
6.280259816460668
% es.Ex (V/m) @ t=0.02
7.861218244849602
% es.Ey (V/m) @ t=0.02
-1.2045717770595772
% es.Ez (V/m) @ t=0.02
6.280259816460674
% es.tEx (V/m) @ t=0.02
7.861218244849609
% es.tEy (V/m) @ t=0.02
0
% es.tEz (V/m) @ t=0.02
6.280259816460668
% V (V) @ t=0.02
0.008378094139307003
% es.normE (V/m) @ t=0.04
10.238358115744873
% es.EX (V/m) @ t=0.04
7.933541550216265
% es.EY (V/m) @ t=0.04
-1.2156538252953055
% es.EZ (V/m) @ t=0.04
6.3380383093349
% es.tEX (V/m) @ t=0.04
7.933541550216299
% es.tEY (V/m) @ t=0.04
0
% es.tEZ (V/m) @ t=0.04
6.338038309334901
% es.Ex (V/m) @ t=0.04
7.933541550216265
% es.Ey (V/m) @ t=0.04
-1.2156538252953055
% es.Ez (V/m) @ t=0.04
6.3380383093349
% es.tEx (V/m) @ t=0.04
7.933541550216299
% es.tEy (V/m) @ t=0.04
0
% es.tEz (V/m) @ t=0.04
6.338038309334901
% V (V) @ t=0.04
0.008455172632105976
% es.normE (V/m) @ t=0.06
10.332424939106147
% es.EX (V/m) @ t=0.06
8.006432437530657
% es.EY (V/m) @ t=0.06
-1.226822858023441
% es.EZ (V/m) @ t=0.06
6.396270226087378
% es.tEX (V/m) @ t=0.06
8.00643243753068
% es.tEY (V/m) @ t=0.06
0
% es.tEZ (V/m) @ t=0.06
6.396270226087379
% es.Ex (V/m) @ t=0.06
8.006432437530657
% es.Ey (V/m) @ t=0.06
-1.226822858023441
% es.Ez (V/m) @ t=0.06
6.396270226087378
% es.tEx (V/m) @ t=0.06
8.00643243753068
% es.tEy (V/m) @ t=0.06
0
% es.tEz (V/m) @ t=0.06
6.396270226087379
% V (V) @ t=0.06
0.008532856066006752
% es.normE (V/m) @ t=0.08
10.428178999543857
% es.EX (V/m) @ t=0.08
8.080630724571918
% es.EY (V/m) @ t=0.08
-1.2381921809642975
% es.EZ (V/m) @ t=0.08
6.455546651553912
% es.tEX (V/m) @ t=0.08
8.080630724571932
% es.tEY (V/m) @ t=0.08
0
% es.tEZ (V/m) @ t=0.08
6.455546651553913
% es.Ex (V/m) @ t=0.08
8.080630724571918
% es.Ey (V/m) @ t=0.08
-1.2381921809642975
% es.Ez (V/m) @ t=0.08
6.455546651553912
% es.tEx (V/m) @ t=0.08
8.080630724571932
% es.tEy (V/m) @ t=0.08
0
% es.tEz (V/m) @ t=0.08
6.455546651553913
% V (V) @ t=0.08
0.008611932740607465
% es.normE (V/m) @ t=0.1
10.524582441064833
% es.EX (V/m) @ t=0.1
8.15533220151031
% es.EY (V/m) @ t=0.1
-1.249638591278968
% es.EZ (V/m) @ t=0.1
6.5152250858487655
% es.tEX (V/m) @ t=0.1
8.155332201510372
% es.tEY (V/m) @ t=0.1
0
% es.tEZ (V/m) @ t=0.1
6.515225085848766
% es.Ex (V/m) @ t=0.1
8.15533220151031
% es.Ey (V/m) @ t=0.1
-1.249638591278968
% es.Ez (V/m) @ t=0.1
6.5152250858487655
% es.tEx (V/m) @ t=0.1
8.155332201510372
% es.tEy (V/m) @ t=0.1
0
% es.tEz (V/m) @ t=0.1
6.515225085848766
% V (V) @ t=0.1
0.008691545643440489
% es.normE (V/m) @ t=0.12
10.620985882585803
% es.EX (V/m) @ t=0.12
8.230033678448688
% es.EY (V/m) @ t=0.12
-1.2610850015936474
% es.EZ (V/m) @ t=0.12
6.574903520143624
% es.tEX (V/m) @ t=0.12
8.230033678448715
% es.tEY (V/m) @ t=0.12
0
% es.tEZ (V/m) @ t=0.12
6.574903520143618
% es.Ex (V/m) @ t=0.12
8.230033678448688
% es.Ey (V/m) @ t=0.12
-1.2610850015936474
% es.Ez (V/m) @ t=0.12
6.574903520143624
% es.tEx (V/m) @ t=0.12
8.230033678448715
% es.tEy (V/m) @ t=0.12
0
% es.tEz (V/m) @ t=0.12
6.574903520143618
% V (V) @ t=0.12
0.008771158546273512
% es.normE (V/m) @ t=0.14
10.71962791772938
% es.EX (V/m) @ t=0.14
8.306469831635471
% es.EY (V/m) @ t=0.14
-1.2727972945839472
% es.EZ (V/m) @ t=0.14
6.635967700537798
% es.tEX (V/m) @ t=0.14
8.306469831635505
% es.tEY (V/m) @ t=0.14
0
% es.tEZ (V/m) @ t=0.14
6.6359677005377975
% es.Ex (V/m) @ t=0.14
8.306469831635471
% es.Ey (V/m) @ t=0.14
-1.2727972945839472
% es.Ez (V/m) @ t=0.14
6.635967700537798
% es.tEx (V/m) @ t=0.14
8.306469831635505
% es.tEy (V/m) @ t=0.14
0
% es.tEz (V/m) @ t=0.14
6.6359677005377975
% V (V) @ t=0.14
0.008852620405553409
% es.normE (V/m) @ t=0.16
10.820964949531973
% es.EX (V/m) @ t=0.16
8.384994325754992
% es.EY (V/m) @ t=0.16
-1.2848296782398503
% es.EZ (V/m) @ t=0.16
6.698700152059995
% es.tEX (V/m) @ t=0.16
8.384994325755008
% es.tEY (V/m) @ t=0.16
0
% es.tEZ (V/m) @ t=0.16
6.698700152059996
% es.Ex (V/m) @ t=0.16
8.384994325754992
% es.Ey (V/m) @ t=0.16
-1.2848296782398503
% es.Ez (V/m) @ t=0.16
6.698700152059995
% es.tEx (V/m) @ t=0.16
8.384994325755008
% es.tEy (V/m) @ t=0.16
0
% es.tEz (V/m) @ t=0.16
6.698700152059996
% V (V) @ t=0.16
0.008936308185338386
% es.normE (V/m) @ t=0.18
10.922301981334556
% es.EX (V/m) @ t=0.18
8.463518819874515
% es.EY (V/m) @ t=0.18
-1.2968620618956521
% es.EZ (V/m) @ t=0.18
6.761432603582177
% es.tEX (V/m) @ t=0.18
8.463518819874555
% es.tEY (V/m) @ t=0.18
0
% es.tEZ (V/m) @ t=0.18
6.761432603582181
% es.Ex (V/m) @ t=0.18
8.463518819874515
% es.Ey (V/m) @ t=0.18
-1.2968620618956521
% es.Ez (V/m) @ t=0.18
6.761432603582177
% es.tEx (V/m) @ t=0.18
8.463518819874555
% es.tEy (V/m) @ t=0.18
0
% es.tEz (V/m) @ t=0.18
6.761432603582181
% V (V) @ t=0.18
0.009019995965123363
% es.normE (V/m) @ t=0.2
11.023639013137164
% es.EX (V/m) @ t=0.2
8.542043313994057
% es.EY (V/m) @ t=0.2
-1.3088944455515161
% es.EZ (V/m) @ t=0.2
6.824165055104373
% es.tEX (V/m) @ t=0.2
8.5420433139941
% es.tEY (V/m) @ t=0.2
0
% es.tEZ (V/m) @ t=0.2
6.824165055104379
% es.Ex (V/m) @ t=0.2
8.542043313994057
% es.Ey (V/m) @ t=0.2
-1.3088944455515161
% es.Ez (V/m) @ t=0.2
6.824165055104373
% es.tEx (V/m) @ t=0.2
8.5420433139941
% es.tEy (V/m) @ t=0.2
0
% es.tEz (V/m) @ t=0.2
6.824165055104379
% V (V) @ t=0.2
0.009103683744908338
% es.normE (V/m) @ t=0.22
11.124976044939782
% es.EX (V/m) @ t=0.22
8.620567808113611
% es.EY (V/m) @ t=0.22
-1.320926829207382
% es.EZ (V/m) @ t=0.22
6.886897506626556
% es.tEX (V/m) @ t=0.22
8.620567808113645
% es.tEY (V/m) @ t=0.22
0
% es.tEZ (V/m) @ t=0.22
6.886897506626549
% es.Ex (V/m) @ t=0.22
8.620567808113611
% es.Ey (V/m) @ t=0.22
-1.320926829207382
% es.Ez (V/m) @ t=0.22
6.886897506626556
% es.tEx (V/m) @ t=0.22
8.620567808113645
% es.tEy (V/m) @ t=0.22
0
% es.tEz (V/m) @ t=0.22
6.886897506626549
% V (V) @ t=0.22
0.009187371524693315
% es.normE (V/m) @ t=0.24
11.226313076742368
% es.EX (V/m) @ t=0.24
8.699092302233122
% es.EY (V/m) @ t=0.24
-1.3329592128632264
% es.EZ (V/m) @ t=0.24
6.949629958148753
% es.tEX (V/m) @ t=0.24
8.699092302233133
% es.tEY (V/m) @ t=0.24
0
% es.tEZ (V/m) @ t=0.24
6.9496299581487415
% es.Ex (V/m) @ t=0.24
8.699092302233122
% es.Ey (V/m) @ t=0.24
-1.3329592128632264
% es.Ez (V/m) @ t=0.24
6.949629958148753
% es.tEx (V/m) @ t=0.24
8.699092302233133
% es.tEy (V/m) @ t=0.24
0
% es.tEz (V/m) @ t=0.24
6.9496299581487415
% V (V) @ t=0.24
0.00927105930447829
% es.normE (V/m) @ t=0.26
11.327650108544983
% es.EX (V/m) @ t=0.26
8.77761679635267
% es.EY (V/m) @ t=0.26
-1.3449915965190655
% es.EZ (V/m) @ t=0.26
7.012362409670946
% es.tEX (V/m) @ t=0.26
8.777616796352692
% es.tEY (V/m) @ t=0.26
0
% es.tEZ (V/m) @ t=0.26
7.0123624096709465
% es.Ex (V/m) @ t=0.26
8.77761679635267
% es.Ey (V/m) @ t=0.26
-1.3449915965190655
% es.Ez (V/m) @ t=0.26
7.012362409670946
% es.tEx (V/m) @ t=0.26
8.777616796352692
% es.tEy (V/m) @ t=0.26
0
% es.tEz (V/m) @ t=0.26
7.0123624096709465
% V (V) @ t=0.26
0.009354747084263265
% es.normE (V/m) @ t=0.28
11.439128426998673
% es.EX (V/m) @ t=0.28
8.864001262833568
% es.EY (V/m) @ t=0.28
-1.358233527304277
% es.EZ (V/m) @ t=0.28
7.0813694601016595
% es.tEX (V/m) @ t=0.28
8.864001262833597
% es.tEY (V/m) @ t=0.28
0
% es.tEZ (V/m) @ t=0.28
7.081369460101661
% es.Ex (V/m) @ t=0.28
8.864001262833568
% es.Ey (V/m) @ t=0.28
-1.358233527304277
% es.Ez (V/m) @ t=0.28
7.0813694601016595
% es.tEx (V/m) @ t=0.28
8.864001262833597
% es.tEy (V/m) @ t=0.28
0
% es.tEz (V/m) @ t=0.28
7.081369460101661
% V (V) @ t=0.28
0.00944682641426937
% es.normE (V/m) @ t=0.3
11.551523864331045
% es.EX (V/m) @ t=0.3
8.951096539416188
% es.EY (V/m) @ t=0.3
-1.3715848424840633
% es.EZ (V/m) @ t=0.3
7.15094394869675
% es.tEX (V/m) @ t=0.3
8.95109653941625
% es.tEY (V/m) @ t=0.3
0
% es.tEZ (V/m) @ t=0.3
7.150943948696741
% es.Ex (V/m) @ t=0.3
8.951096539416188
% es.Ey (V/m) @ t=0.3
-1.3715848424840633
% es.Ez (V/m) @ t=0.3
7.15094394869675
% es.tEx (V/m) @ t=0.3
8.95109653941625
% es.tEy (V/m) @ t=0.3
0
% es.tEz (V/m) @ t=0.3
7.150943948696741
% V (V) @ t=0.3
0.009539664627181485
% es.normE (V/m) @ t=0.32
11.663919301668944
% es.EX (V/m) @ t=0.32
9.038191815998896
% es.EY (V/m) @ t=0.32
-1.3849361576638213
% es.EZ (V/m) @ t=0.32
7.2205184372918545
% es.tEX (V/m) @ t=0.32
9.038191815998921
% es.tEY (V/m) @ t=0.32
0
% es.tEZ (V/m) @ t=0.32
7.220518437291834
% es.Ex (V/m) @ t=0.32
9.038191815998896
% es.Ey (V/m) @ t=0.32
-1.3849361576638213
% es.Ez (V/m) @ t=0.32
7.2205184372918545
% es.tEx (V/m) @ t=0.32
9.038191815998921
% es.tEy (V/m) @ t=0.32
0
% es.tEz (V/m) @ t=0.32
7.220518437291834
% V (V) @ t=0.32
0.009632502840093602
% es.normE (V/m) @ t=0.34
11.77631473901207
% es.EX (V/m) @ t=0.34
9.125287092581537
% es.EY (V/m) @ t=0.34
-1.3982874728435952
% es.EZ (V/m) @ t=0.34
7.290092925886923
% es.tEX (V/m) @ t=0.34
9.125287092581575
% es.tEY (V/m) @ t=0.34
0
% es.tEZ (V/m) @ t=0.34
7.290092925886927
% es.Ex (V/m) @ t=0.34
9.125287092581537
% es.Ey (V/m) @ t=0.34
-1.3982874728435952
% es.Ez (V/m) @ t=0.34
7.290092925886923
% es.tEx (V/m) @ t=0.34
9.125287092581575
% es.tEy (V/m) @ t=0.34
0
% es.tEz (V/m) @ t=0.34
7.290092925886927
% V (V) @ t=0.34
0.009725341053005718
% es.normE (V/m) @ t=0.36
11.888710176360394
% es.EX (V/m) @ t=0.36
9.212382369164215
% es.EY (V/m) @ t=0.36
-1.4116387880233816
% es.EZ (V/m) @ t=0.36
7.359667414482028
% es.tEX (V/m) @ t=0.36
9.212382369164258
% es.tEY (V/m) @ t=0.36
0
% es.tEZ (V/m) @ t=0.36
7.359667414482021
% es.Ex (V/m) @ t=0.36
9.212382369164215
% es.Ey (V/m) @ t=0.36
-1.4116387880233816
% es.Ez (V/m) @ t=0.36
7.359667414482028
% es.tEx (V/m) @ t=0.36
9.212382369164258
% es.tEy (V/m) @ t=0.36
0
% es.tEz (V/m) @ t=0.36
7.359667414482021
% V (V) @ t=0.36
0.009818179265917834
% es.normE (V/m) @ t=0.38
12.001105613713689
% es.EX (V/m) @ t=0.38
9.299477645746872
% es.EY (V/m) @ t=0.38
-1.4249901032031271
% es.EZ (V/m) @ t=0.38
7.429241903077111
% es.tEX (V/m) @ t=0.38
9.29947764574687
% es.tEY (V/m) @ t=0.38
0
% es.tEZ (V/m) @ t=0.38
7.429241903077114
% es.Ex (V/m) @ t=0.38
9.299477645746872
% es.Ey (V/m) @ t=0.38
-1.4249901032031271
% es.Ez (V/m) @ t=0.38
7.429241903077111
% es.tEx (V/m) @ t=0.38
9.29947764574687
% es.tEy (V/m) @ t=0.38
0
% es.tEz (V/m) @ t=0.38
7.429241903077114
% V (V) @ t=0.38
0.009911017478829953
% es.normE (V/m) @ t=0.4
12.11350105107186
% es.EX (V/m) @ t=0.4
9.38657292232953
% es.EY (V/m) @ t=0.4
-1.4383414183828744
% es.EZ (V/m) @ t=0.4
7.498816391672219
% es.tEX (V/m) @ t=0.4
9.386572922329554
% es.tEY (V/m) @ t=0.4
0
% es.tEZ (V/m) @ t=0.4
7.4988163916722135
% es.Ex (V/m) @ t=0.4
9.38657292232953
% es.Ey (V/m) @ t=0.4
-1.4383414183828744
% es.Ez (V/m) @ t=0.4
7.498816391672219
% es.tEx (V/m) @ t=0.4
9.386572922329554
% es.tEy (V/m) @ t=0.4
0
% es.tEz (V/m) @ t=0.4
7.4988163916722135
% V (V) @ t=0.4
0.010003855691742067
% es.normE (V/m) @ t=0.42
12.22589648843477
% es.EX (V/m) @ t=0.42
9.473668198912208
% es.EY (V/m) @ t=0.42
-1.4516927335626963
% es.EZ (V/m) @ t=0.42
7.568390880267298
% es.tEX (V/m) @ t=0.42
9.47366819891225
% es.tEY (V/m) @ t=0.42
0
% es.tEZ (V/m) @ t=0.42
7.5683908802673
% es.Ex (V/m) @ t=0.42
9.473668198912208
% es.Ey (V/m) @ t=0.42
-1.4516927335626963
% es.Ez (V/m) @ t=0.42
7.568390880267298
% es.tEx (V/m) @ t=0.42
9.47366819891225
% es.tEy (V/m) @ t=0.42
0
% es.tEz (V/m) @ t=0.42
7.5683908802673
% V (V) @ t=0.42
0.010096693904654183
% es.normE (V/m) @ t=0.44
12.338291925802281
% es.EX (V/m) @ t=0.44
9.560763475494886
% es.EY (V/m) @ t=0.44
-1.465044048742449
% es.EZ (V/m) @ t=0.44
7.6379653688623925
% es.tEX (V/m) @ t=0.44
9.560763475494948
% es.tEY (V/m) @ t=0.44
0
% es.tEZ (V/m) @ t=0.44
7.6379653688624
% es.Ex (V/m) @ t=0.44
9.560763475494886
% es.Ey (V/m) @ t=0.44
-1.465044048742449
% es.Ez (V/m) @ t=0.44
7.6379653688623925
% es.tEx (V/m) @ t=0.44
9.560763475494948
% es.tEy (V/m) @ t=0.44
0
% es.tEz (V/m) @ t=0.44
7.6379653688624
% V (V) @ t=0.44
0.0101895321175663
% es.normE (V/m) @ t=0.46
12.450687363174277
% es.EX (V/m) @ t=0.46
9.647858752077571
% es.EY (V/m) @ t=0.46
-1.4783953639222247
% es.EZ (V/m) @ t=0.46
7.707539857457489
% es.tEX (V/m) @ t=0.46
9.647858752077589
% es.tEY (V/m) @ t=0.46
0
% es.tEZ (V/m) @ t=0.46
7.707539857457486
% es.Ex (V/m) @ t=0.46
9.647858752077571
% es.Ey (V/m) @ t=0.46
-1.4783953639222247
% es.Ez (V/m) @ t=0.46
7.707539857457489
% es.tEx (V/m) @ t=0.46
9.647858752077589
% es.tEy (V/m) @ t=0.46
0
% es.tEz (V/m) @ t=0.46
7.707539857457486
% V (V) @ t=0.46
0.010282370330478418
% es.normE (V/m) @ t=0.48
12.5630828005506
% es.EX (V/m) @ t=0.48
9.734954028660228
% es.EY (V/m) @ t=0.48
-1.4917466791019773
% es.EZ (V/m) @ t=0.48
7.77711434605258
% es.tEX (V/m) @ t=0.48
9.734954028660244
% es.tEY (V/m) @ t=0.48
0
% es.tEZ (V/m) @ t=0.48
7.7771143460525725
% es.Ex (V/m) @ t=0.48
9.734954028660228
% es.Ey (V/m) @ t=0.48
-1.4917466791019773
% es.Ez (V/m) @ t=0.48
7.77711434605258
% es.tEx (V/m) @ t=0.48
9.734954028660244
% es.tEy (V/m) @ t=0.48
0
% es.tEz (V/m) @ t=0.48
7.7771143460525725
% V (V) @ t=0.48
0.010375208543390534
% es.normE (V/m) @ t=0.5
12.675478237931163
% es.EX (V/m) @ t=0.5
9.822049305242878
% es.EY (V/m) @ t=0.5
-1.505097994281762
% es.EZ (V/m) @ t=0.5
7.8466888346476775
% es.tEX (V/m) @ t=0.5
9.822049305242928
% es.tEY (V/m) @ t=0.5
0
% es.tEZ (V/m) @ t=0.5
7.846688834647686
% es.Ex (V/m) @ t=0.5
9.822049305242878
% es.Ey (V/m) @ t=0.5
-1.505097994281762
% es.Ez (V/m) @ t=0.5
7.8466888346476775
% es.tEx (V/m) @ t=0.5
9.822049305242928
% es.tEy (V/m) @ t=0.5
0
% es.tEz (V/m) @ t=0.5
7.846688834647686
% V (V) @ t=0.5
0.01046804675630265
% es.normE (V/m) @ t=0.52
12.787873675315895
% es.EX (V/m) @ t=0.52
9.909144581825583
% es.EY (V/m) @ t=0.52
-1.5184493094615252
% es.EZ (V/m) @ t=0.52
7.91626332324277
% es.tEX (V/m) @ t=0.52
9.909144581825611
% es.tEY (V/m) @ t=0.52
0
% es.tEZ (V/m) @ t=0.52
7.916263323242766
% es.Ex (V/m) @ t=0.52
9.909144581825583
% es.Ey (V/m) @ t=0.52
-1.5184493094615252
% es.Ez (V/m) @ t=0.52
7.91626332324277
% es.tEx (V/m) @ t=0.52
9.909144581825611
% es.tEy (V/m) @ t=0.52
0
% es.tEz (V/m) @ t=0.52
7.916263323242766
% V (V) @ t=0.52
0.010560884969214767
% es.normE (V/m) @ t=0.54
12.910743264144457
% es.EX (V/m) @ t=0.54
10.004352710093968
% es.EY (V/m) @ t=0.54
-1.533033099210444
% es.EZ (V/m) @ t=0.54
7.992328720993997
% es.tEX (V/m) @ t=0.54
10.004352710094027
% es.tEY (V/m) @ t=0.54
0
% es.tEZ (V/m) @ t=0.54
7.992328720993995
% es.Ex (V/m) @ t=0.54
10.004352710093968
% es.Ey (V/m) @ t=0.54
-1.533033099210444
% es.Ez (V/m) @ t=0.54
7.992328720993997
% es.tEx (V/m) @ t=0.54
10.004352710094027
% es.tEy (V/m) @ t=0.54
0
% es.tEz (V/m) @ t=0.54
7.992328720993995
% V (V) @ t=0.54
0.010662338964508394
% es.normE (V/m) @ t=0.56
13.035553143029398
% es.EX (V/m) @ t=0.56
10.101063708115221
% es.EY (V/m) @ t=0.56
-1.5478451994010243
% es.EZ (V/m) @ t=0.56
8.069596530846148
% es.tEX (V/m) @ t=0.56
10.101063708115294
% es.tEY (V/m) @ t=0.56
0
% es.tEZ (V/m) @ t=0.56
8.069596530846141
% es.Ex (V/m) @ t=0.56
10.101063708115221
% es.Ey (V/m) @ t=0.56
-1.5478451994010243
% es.Ez (V/m) @ t=0.56
8.069596530846148
% es.tEx (V/m) @ t=0.56
10.101063708115294
% es.tEy (V/m) @ t=0.56
0
% es.tEz (V/m) @ t=0.56
8.069596530846141
% V (V) @ t=0.56
0.01076538899523325
% es.normE (V/m) @ t=0.58
13.160363021922937
% es.EX (V/m) @ t=0.58
10.197774706136537
% es.EY (V/m) @ t=0.58
-1.5626572995915797
% es.EZ (V/m) @ t=0.58
8.146864340698258
% es.tEX (V/m) @ t=0.58
10.19777470613656
% es.tEY (V/m) @ t=0.58
0
% es.tEZ (V/m) @ t=0.58
8.146864340698258
% es.Ex (V/m) @ t=0.58
10.197774706136537
% es.Ey (V/m) @ t=0.58
-1.5626572995915797
% es.Ez (V/m) @ t=0.58
8.146864340698258
% es.tEx (V/m) @ t=0.58
10.19777470613656
% es.tEy (V/m) @ t=0.58
0
% es.tEz (V/m) @ t=0.58
8.146864340698258
% V (V) @ t=0.58
0.010868439025958108
% es.normE (V/m) @ t=0.6
13.28517290082485
% es.EX (V/m) @ t=0.6
10.294485704157902
% es.EY (V/m) @ t=0.6
-1.5774693997821316
% es.EZ (V/m) @ t=0.6
8.22413215055038
% es.tEX (V/m) @ t=0.6
10.294485704157912
% es.tEY (V/m) @ t=0.6
0
% es.tEZ (V/m) @ t=0.6
8.224132150550368
% es.Ex (V/m) @ t=0.6
10.294485704157902
% es.Ey (V/m) @ t=0.6
-1.5774693997821316
% es.Ez (V/m) @ t=0.6
8.22413215055038
% es.tEx (V/m) @ t=0.6
10.294485704157912
% es.tEy (V/m) @ t=0.6
0
% es.tEz (V/m) @ t=0.6
8.224132150550368
% V (V) @ t=0.6
0.010971489056682965
% es.normE (V/m) @ t=0.62
13.409982779734785
% es.EX (V/m) @ t=0.62
10.391196702179176
% es.EY (V/m) @ t=0.62
-1.5922814999726693
% es.EZ (V/m) @ t=0.62
8.301399960402494
% es.tEX (V/m) @ t=0.62
10.391196702179235
% es.tEY (V/m) @ t=0.62
0
% es.tEZ (V/m) @ t=0.62
8.301399960402485
% es.Ex (V/m) @ t=0.62
10.391196702179176
% es.Ey (V/m) @ t=0.62
-1.5922814999726693
% es.Ez (V/m) @ t=0.62
8.301399960402494
% es.tEx (V/m) @ t=0.62
10.391196702179235
% es.tEy (V/m) @ t=0.62
0
% es.tEz (V/m) @ t=0.62
8.301399960402485
% V (V) @ t=0.62
0.011074539087407822
% es.normE (V/m) @ t=0.64
13.534792658652572
% es.EX (V/m) @ t=0.64
10.487907700200413
% es.EY (V/m) @ t=0.64
-1.6070936001632248
% es.EZ (V/m) @ t=0.64
8.37866777025461
% es.tEX (V/m) @ t=0.64
10.487907700200445
% es.tEY (V/m) @ t=0.64
0
% es.tEZ (V/m) @ t=0.64
8.378667770254623
% es.Ex (V/m) @ t=0.64
10.487907700200413
% es.Ey (V/m) @ t=0.64
-1.6070936001632248
% es.Ez (V/m) @ t=0.64
8.37866777025461
% es.tEx (V/m) @ t=0.64
10.487907700200445
% es.tEy (V/m) @ t=0.64
0
% es.tEz (V/m) @ t=0.64
8.378667770254623
% V (V) @ t=0.64
0.011177589118132677
% es.normE (V/m) @ t=0.66
13.659602537578099
% es.EX (V/m) @ t=0.66
10.584618698221757
% es.EY (V/m) @ t=0.66
-1.621905700353805
% es.EZ (V/m) @ t=0.66
8.45593558010672
% es.tEX (V/m) @ t=0.66
10.584618698221796
% es.tEY (V/m) @ t=0.66
0
% es.tEZ (V/m) @ t=0.66
8.455935580106718
% es.Ex (V/m) @ t=0.66
10.584618698221757
% es.Ey (V/m) @ t=0.66
-1.621905700353805
% es.Ez (V/m) @ t=0.66
8.45593558010672
% es.tEx (V/m) @ t=0.66
10.584618698221796
% es.tEy (V/m) @ t=0.66
0
% es.tEz (V/m) @ t=0.66
8.455935580106718
% V (V) @ t=0.66
0.011280639148857536
% es.normE (V/m) @ t=0.68
13.784412416511074
% es.EX (V/m) @ t=0.68
10.681329696243086
% es.EY (V/m) @ t=0.68
-1.636717800544357
% es.EZ (V/m) @ t=0.68
8.533203389958848
% es.tEX (V/m) @ t=0.68
10.681329696243118
% es.tEY (V/m) @ t=0.68
0
% es.tEZ (V/m) @ t=0.68
8.533203389958835
% es.Ex (V/m) @ t=0.68
10.681329696243086
% es.Ey (V/m) @ t=0.68
-1.636717800544357
% es.Ez (V/m) @ t=0.68
8.533203389958848
% es.tEx (V/m) @ t=0.68
10.681329696243118
% es.tEy (V/m) @ t=0.68
0
% es.tEz (V/m) @ t=0.68
8.533203389958835
% V (V) @ t=0.68
0.011383689179582393
% es.normE (V/m) @ t=0.7
13.909222295451237
% es.EX (V/m) @ t=0.7
10.778040694264359
% es.EY (V/m) @ t=0.7
-1.6515299007348911
% es.EZ (V/m) @ t=0.7
8.610471199810947
% es.tEX (V/m) @ t=0.7
10.778040694264414
% es.tEY (V/m) @ t=0.7
0
% es.tEZ (V/m) @ t=0.7
8.610471199810945
% es.Ex (V/m) @ t=0.7
10.778040694264359
% es.Ey (V/m) @ t=0.7
-1.6515299007348911
% es.Ez (V/m) @ t=0.7
8.610471199810947
% es.tEx (V/m) @ t=0.7
10.778040694264414
% es.tEy (V/m) @ t=0.7
0
% es.tEz (V/m) @ t=0.7
8.610471199810945
% V (V) @ t=0.7
0.01148673921030725
% es.normE (V/m) @ t=0.72
14.0340321743985
% es.EX (V/m) @ t=0.72
10.874751692285653
% es.EY (V/m) @ t=0.72
-1.666342000925436
% es.EZ (V/m) @ t=0.72
8.687739009663085
% es.tEX (V/m) @ t=0.72
10.874751692285681
% es.tEY (V/m) @ t=0.72
0
% es.tEZ (V/m) @ t=0.72
8.687739009663076
% es.Ex (V/m) @ t=0.72
10.874751692285653
% es.Ey (V/m) @ t=0.72
-1.666342000925436
% es.Ez (V/m) @ t=0.72
8.687739009663085
% es.tEx (V/m) @ t=0.72
10.874751692285681
% es.tEy (V/m) @ t=0.72
0
% es.tEz (V/m) @ t=0.72
8.687739009663076
% V (V) @ t=0.72
0.011589789241032105
% es.normE (V/m) @ t=0.74
14.158842053352638
% es.EX (V/m) @ t=0.74
10.971462690306963
% es.EY (V/m) @ t=0.74
-1.6811541011160216
% es.EZ (V/m) @ t=0.74
8.765006819515209
% es.tEX (V/m) @ t=0.74
10.971462690307003
% es.tEY (V/m) @ t=0.74
0
% es.tEZ (V/m) @ t=0.74
8.765006819515202
% es.Ex (V/m) @ t=0.74
10.971462690306963
% es.Ey (V/m) @ t=0.74
-1.6811541011160216
% es.Ez (V/m) @ t=0.74
8.765006819515209
% es.tEx (V/m) @ t=0.74
10.971462690307003
% es.tEy (V/m) @ t=0.74
0
% es.tEz (V/m) @ t=0.74
8.765006819515202
% V (V) @ t=0.74
0.011692839271756964
% es.normE (V/m) @ t=0.76
14.283651932313461
% es.EX (V/m) @ t=0.76
11.068173688328292
% es.EY (V/m) @ t=0.76
-1.6959662013065433
% es.EZ (V/m) @ t=0.76
8.842274629367308
% es.tEX (V/m) @ t=0.76
11.068173688328354
% es.tEY (V/m) @ t=0.76
0
% es.tEZ (V/m) @ t=0.76
8.842274629367296
% es.Ex (V/m) @ t=0.76
11.068173688328292
% es.Ey (V/m) @ t=0.76
-1.6959662013065433
% es.Ez (V/m) @ t=0.76
8.842274629367308
% es.tEx (V/m) @ t=0.76
11.068173688328354
% es.tEy (V/m) @ t=0.76
0
% es.tEz (V/m) @ t=0.76
8.842274629367296
% V (V) @ t=0.76
0.011795889302481821
% es.normE (V/m) @ t=0.78
14.408461811280771
% es.EX (V/m) @ t=0.78
11.16488468634956
% es.EY (V/m) @ t=0.78
-1.7107783014971254
% es.EZ (V/m) @ t=0.78
8.919542439219429
% es.tEX (V/m) @ t=0.78
11.164884686349593
% es.tEY (V/m) @ t=0.78
0
% es.tEZ (V/m) @ t=0.78
8.919542439219441
% es.Ex (V/m) @ t=0.78
11.16488468634956
% es.Ey (V/m) @ t=0.78
-1.7107783014971254
% es.Ez (V/m) @ t=0.78
8.919542439219429
% es.tEx (V/m) @ t=0.78
11.164884686349593
% es.tEy (V/m) @ t=0.78
0
% es.tEz (V/m) @ t=0.78
8.919542439219441
% V (V) @ t=0.78
0.011898939333206678
% es.normE (V/m) @ t=0.8
14.544112334807586
% es.EX (V/m) @ t=0.8
11.269996929051137
% es.EY (V/m) @ t=0.8
-1.7268807888797202
% es.EZ (V/m) @ t=0.8
9.003519116791793
% es.tEX (V/m) @ t=0.8
11.269996929051185
% es.tEY (V/m) @ t=0.8
0
% es.tEZ (V/m) @ t=0.8
9.00351911679179
% es.Ex (V/m) @ t=0.8
11.269996929051137
% es.Ey (V/m) @ t=0.8
-1.7268807888797202
% es.Ez (V/m) @ t=0.8
9.003519116791793
% es.tEx (V/m) @ t=0.8
11.269996929051185
% es.tEy (V/m) @ t=0.8
0
% es.tEz (V/m) @ t=0.8
9.00351911679179
% V (V) @ t=0.8
0.012010951740828162
% es.normE (V/m) @ t=0.82
14.682994610430551
% es.EX (V/m) @ t=0.82
11.377613703652008
% es.EY (V/m) @ t=0.82
-1.7433679592477542
% es.EZ (V/m) @ t=0.82
9.089495804345157
% es.tEX (V/m) @ t=0.82
11.377613703652056
% es.tEY (V/m) @ t=0.82
0
% es.tEZ (V/m) @ t=0.82
9.089495804345148
% es.Ex (V/m) @ t=0.82
11.377613703652008
% es.Ey (V/m) @ t=0.82
-1.7433679592477542
% es.Ez (V/m) @ t=0.82
9.089495804345157
% es.tEx (V/m) @ t=0.82
11.377613703652056
% es.tEy (V/m) @ t=0.82
0
% es.tEz (V/m) @ t=0.82
9.089495804345148
% V (V) @ t=0.82
0.01212563596193508
% es.normE (V/m) @ t=0.84
14.821876886054488
% es.EX (V/m) @ t=0.84
11.485230478252857
% es.EY (V/m) @ t=0.84
-1.7598551296158096
% es.EZ (V/m) @ t=0.84
9.175472491898507
% es.tEX (V/m) @ t=0.84
11.4852304782529
% es.tEY (V/m) @ t=0.84
0
% es.tEZ (V/m) @ t=0.84
9.175472491898509
% es.Ex (V/m) @ t=0.84
11.485230478252857
% es.Ey (V/m) @ t=0.84
-1.7598551296158096
% es.Ez (V/m) @ t=0.84
9.175472491898507
% es.tEx (V/m) @ t=0.84
11.4852304782529
% es.tEy (V/m) @ t=0.84
0
% es.tEz (V/m) @ t=0.84
9.175472491898509
% V (V) @ t=0.84
0.012240320183041997
% es.normE (V/m) @ t=0.86
14.96075916167936
% es.EX (V/m) @ t=0.86
11.592847252853659
% es.EY (V/m) @ t=0.86
-1.7763422999838152
% es.EZ (V/m) @ t=0.86
9.261449179451887
% es.tEX (V/m) @ t=0.86
11.592847252853714
% es.tEY (V/m) @ t=0.86
0
% es.tEZ (V/m) @ t=0.86
9.261449179451883
% es.Ex (V/m) @ t=0.86
11.592847252853659
% es.Ey (V/m) @ t=0.86
-1.7763422999838152
% es.Ez (V/m) @ t=0.86
9.261449179451887
% es.tEx (V/m) @ t=0.86
11.592847252853714
% es.tEy (V/m) @ t=0.86
0
% es.tEz (V/m) @ t=0.86
9.261449179451883
% V (V) @ t=0.86
0.012355004404148918
% es.normE (V/m) @ t=0.88
15.099641437305236
% es.EX (V/m) @ t=0.88
11.70046402745453
% es.EY (V/m) @ t=0.88
-1.7928294703518795
% es.EZ (V/m) @ t=0.88
9.347425867005272
% es.tEX (V/m) @ t=0.88
11.700464027454558
% es.tEY (V/m) @ t=0.88
0
% es.tEZ (V/m) @ t=0.88
9.347425867005256
% es.Ex (V/m) @ t=0.88
11.70046402745453
% es.Ey (V/m) @ t=0.88
-1.7928294703518795
% es.Ez (V/m) @ t=0.88
9.347425867005272
% es.tEx (V/m) @ t=0.88
11.700464027454558
% es.tEy (V/m) @ t=0.88
0
% es.tEz (V/m) @ t=0.88
9.347425867005256
% V (V) @ t=0.88
0.012469688625255836
% es.normE (V/m) @ t=0.9
15.23852371293194
% es.EX (V/m) @ t=0.9
11.808080802055315
% es.EY (V/m) @ t=0.9
-1.8093166407198904
% es.EZ (V/m) @ t=0.9
9.433402554558644
% es.tEX (V/m) @ t=0.9
11.808080802055343
% es.tEY (V/m) @ t=0.9
0
% es.tEZ (V/m) @ t=0.9
9.433402554558644
% es.Ex (V/m) @ t=0.9
11.808080802055315
% es.Ey (V/m) @ t=0.9
-1.8093166407198904
% es.Ez (V/m) @ t=0.9
9.433402554558644
% es.tEx (V/m) @ t=0.9
11.808080802055343
% es.tEy (V/m) @ t=0.9
0
% es.tEz (V/m) @ t=0.9
9.433402554558644
% V (V) @ t=0.9
0.012584372846362756
% es.normE (V/m) @ t=0.92
15.377405988559548
% es.EX (V/m) @ t=0.92
11.915697576656136
% es.EY (V/m) @ t=0.92
-1.825803811087928
% es.EZ (V/m) @ t=0.92
9.519379242111993
% es.tEX (V/m) @ t=0.92
11.91569757665619
% es.tEY (V/m) @ t=0.92
0
% es.tEZ (V/m) @ t=0.92
9.519379242111988
% es.Ex (V/m) @ t=0.92
11.915697576656136
% es.Ey (V/m) @ t=0.92
-1.825803811087928
% es.Ez (V/m) @ t=0.92
9.519379242111993
% es.tEx (V/m) @ t=0.92
11.91569757665619
% es.tEy (V/m) @ t=0.92
0
% es.tEz (V/m) @ t=0.92
9.519379242111988
% V (V) @ t=0.92
0.012699057067469674
% es.normE (V/m) @ t=0.94
15.51628826418807
% es.EX (V/m) @ t=0.94
12.023314351257008
% es.EY (V/m) @ t=0.94
-1.8422909814559265
% es.EZ (V/m) @ t=0.94
9.605355929665365
% es.tEX (V/m) @ t=0.94
12.023314351257032
% es.tEY (V/m) @ t=0.94
0
% es.tEZ (V/m) @ t=0.94
9.605355929665365
% es.Ex (V/m) @ t=0.94
12.023314351257008
% es.Ey (V/m) @ t=0.94
-1.8422909814559265
% es.Ez (V/m) @ t=0.94
9.605355929665365
% es.tEx (V/m) @ t=0.94
12.023314351257032
% es.tEy (V/m) @ t=0.94
0
% es.tEz (V/m) @ t=0.94
9.605355929665365
% V (V) @ t=0.94
0.012813741288576593
% es.normE (V/m) @ t=0.96
15.6551705398174
% es.EX (V/m) @ t=0.96
12.130931125857837
% es.EY (V/m) @ t=0.96
-1.8587781518239765
% es.EZ (V/m) @ t=0.96
9.691332617218738
% es.tEX (V/m) @ t=0.96
12.130931125857874
% es.tEY (V/m) @ t=0.96
0
% es.tEZ (V/m) @ t=0.96
9.691332617218752
% es.Ex (V/m) @ t=0.96
12.130931125857837
% es.Ey (V/m) @ t=0.96
-1.8587781518239765
% es.Ez (V/m) @ t=0.96
9.691332617218738
% es.tEx (V/m) @ t=0.96
12.130931125857874
% es.tEy (V/m) @ t=0.96
0
% es.tEz (V/m) @ t=0.96
9.691332617218752
% V (V) @ t=0.96
0.012928425509683513
% es.normE (V/m) @ t=0.98
15.79405281544755
% es.EX (V/m) @ t=0.98
12.238547900458672
% es.EY (V/m) @ t=0.98
-1.8752653221919875
% es.EZ (V/m) @ t=0.98
9.777309304772109
% es.tEX (V/m) @ t=0.98
12.238547900458746
% es.tEY (V/m) @ t=0.98
0
% es.tEZ (V/m) @ t=0.98
9.77730930477211
% es.Ex (V/m) @ t=0.98
12.238547900458672
% es.Ey (V/m) @ t=0.98
-1.8752653221919875
% es.Ez (V/m) @ t=0.98
9.777309304772109
% es.tEx (V/m) @ t=0.98
12.238547900458746
% es.tEy (V/m) @ t=0.98
0
% es.tEz (V/m) @ t=0.98
9.77730930477211
% V (V) @ t=0.98
0.013043109730790432
% es.normE (V/m) @ t=1
15.93293509107854
% es.EX (V/m) @ t=1
12.346164675059551
% es.EY (V/m) @ t=1
-1.8917524925600215
% es.EZ (V/m) @ t=1
9.863285992325487
% es.tEX (V/m) @ t=1
12.34616467505959
% es.tEY (V/m) @ t=1
0
% es.tEZ (V/m) @ t=1
9.863285992325485
% es.Ex (V/m) @ t=1
12.346164675059551
% es.Ey (V/m) @ t=1
-1.8917524925600215
% es.Ez (V/m) @ t=1
9.863285992325487
% es.tEx (V/m) @ t=1
12.34616467505959
% es.tEy (V/m) @ t=1
0
% es.tEz (V/m) @ t=1
9.863285992325485
% V (V) @ t=1
0.013157793951897352
% es.normE (V/m) @ t=1.02
16.071817366710256
% es.EX (V/m) @ t=1.02
12.45378144966038
% es.EY (V/m) @ t=1.02
-1.9082396629280627
% es.EZ (V/m) @ t=1.02
9.94926267987886
% es.tEX (V/m) @ t=1.02
12.453781449660433
% es.tEY (V/m) @ t=1.02
0
% es.tEZ (V/m) @ t=1.02
9.94926267987886
% es.Ex (V/m) @ t=1.02
12.45378144966038
% es.Ey (V/m) @ t=1.02
-1.9082396629280627
% es.Ez (V/m) @ t=1.02
9.94926267987886
% es.tEx (V/m) @ t=1.02
12.453781449660433
% es.tEy (V/m) @ t=1.02
0
% es.tEz (V/m) @ t=1.02
9.94926267987886
% V (V) @ t=1.02
0.013272478173004268
% es.normE (V/m) @ t=1.04
16.210699642342703
% es.EX (V/m) @ t=1.04
12.561398224261179
% es.EY (V/m) @ t=1.04
-1.9247268332960843
% es.EZ (V/m) @ t=1.04
10.035239367432222
% es.tEX (V/m) @ t=1.04
12.56139822426122
% es.tEY (V/m) @ t=1.04
0
% es.tEZ (V/m) @ t=1.04
10.035239367432231
% es.Ex (V/m) @ t=1.04
12.561398224261179
% es.Ey (V/m) @ t=1.04
-1.9247268332960843
% es.Ez (V/m) @ t=1.04
10.035239367432222
% es.tEx (V/m) @ t=1.04
12.56139822426122
% es.tEy (V/m) @ t=1.04
0
% es.tEz (V/m) @ t=1.04
10.035239367432231
% V (V) @ t=1.04
0.01338716239411119
% es.normE (V/m) @ t=1.06
16.35435885902904
% es.EX (V/m) @ t=1.06
12.6727169535117
% es.EY (V/m) @ t=1.06
-1.9417824721000496
% es.EZ (V/m) @ t=1.06