% Model:              1 neuron.mph
% Version:            COMSOL 6.0.0.405
% Date:               Mar 16 2023, 18:06
% Dimension:          0
% Nodes:              14017
% Expressions:        14017
% Description:        Electric field norm, Electric field, X component, Electric field, Y component, Electric field, Z component, Tangential electric field, X component, Tangential electric field, Y component, Tangential electric field, Z component, Electric field, x component, Electric field, y component, Electric field, z component, Tangential electric field, x component, Tangential electric field, y component, Tangential electric field, z component, Electric potential
% Length unit:        mm
% x
2
% y
12.2
% z
1.33
% es.normE (V/m) @ t=0
1.928426547471882
% es.EX (V/m) @ t=0
-1.773722518401011
% es.EY (V/m) @ t=0
0.13836270509536652
% es.EZ (V/m) @ t=0
0.7418055625078988
% es.tEX (V/m) @ t=0
-1.7737225184009997
% es.tEY (V/m) @ t=0
0
% es.tEZ (V/m) @ t=0
0.7418055625078885
% es.Ex (V/m) @ t=0
-1.773722518401011
% es.Ey (V/m) @ t=0
0.13836270509536652
% es.Ez (V/m) @ t=0
0.7418055625078988
% es.tEx (V/m) @ t=0
-1.7737225184009997
% es.tEy (V/m) @ t=0
0
% es.tEz (V/m) @ t=0
0.7418055625078885
% V (V) @ t=0
0.010766785764494347
% es.normE (V/m) @ t=0.02
1.6656191566085128
% es.EX (V/m) @ t=0.02
-1.53199830482903
% es.EY (V/m) @ t=0.02
0.11950653815030121
% es.EZ (V/m) @ t=0.02
0.6407117576189185
% es.tEX (V/m) @ t=0.02
-1.5319983048290258
% es.tEY (V/m) @ t=0.02
0
% es.tEZ (V/m) @ t=0.02
0.6407117576189201
% es.Ex (V/m) @ t=0.02
-1.53199830482903
% es.Ey (V/m) @ t=0.02
0.11950653815030121
% es.Ez (V/m) @ t=0.02
0.6407117576189185
% es.tEx (V/m) @ t=0.02
-1.5319983048290258
% es.tEy (V/m) @ t=0.02
0
% es.tEz (V/m) @ t=0.02
0.6407117576189201
% V (V) @ t=0.02
0.009299479867925073
% es.normE (V/m) @ t=0.04
1.6809414693441336
% es.EX (V/m) @ t=0.04
-1.5460914150433052
% es.EY (V/m) @ t=0.04
0.12060590329745413
% es.EZ (V/m) @ t=0.04
0.6466057771278613
% es.tEX (V/m) @ t=0.04
-1.5460914150433016
% es.tEY (V/m) @ t=0.04
0
% es.tEZ (V/m) @ t=0.04
0.646605777127867
% es.Ex (V/m) @ t=0.04
-1.5460914150433052
% es.Ey (V/m) @ t=0.04
0.12060590329745413
% es.Ez (V/m) @ t=0.04
0.6466057771278613
% es.tEx (V/m) @ t=0.04
-1.5460914150433016
% es.tEy (V/m) @ t=0.04
0
% es.tEz (V/m) @ t=0.04
0.646605777127867
% V (V) @ t=0.04
0.009385026980270529
% es.normE (V/m) @ t=0.06
1.696389482997013
% es.EX (V/m) @ t=0.06
-1.5603001451317613
% es.EY (V/m) @ t=0.06
0.12171427960684406
% es.EZ (V/m) @ t=0.06
0.6525481434198449
% es.tEX (V/m) @ t=0.06
-1.5603001451317535
% es.tEY (V/m) @ t=0.06
0
% es.tEZ (V/m) @ t=0.06
0.6525481434198461
% es.Ex (V/m) @ t=0.06
-1.5603001451317613
% es.Ey (V/m) @ t=0.06
0.12171427960684406
% es.Ez (V/m) @ t=0.06
0.6525481434198449
% es.tEx (V/m) @ t=0.06
-1.5603001451317535
% es.tEy (V/m) @ t=0.06
0
% es.tEz (V/m) @ t=0.06
0.6525481434198461
% V (V) @ t=0.06
0.009471276594189155
% es.normE (V/m) @ t=0.08
1.7121021862709207
% es.EX (V/m) @ t=0.08
-1.5747523310681708
% es.EY (V/m) @ t=0.08
0.12284164611178594
% es.EZ (V/m) @ t=0.08
0.6585923267032832
% es.tEX (V/m) @ t=0.08
-1.5747523310681597
% es.tEY (V/m) @ t=0.08
0
% es.tEZ (V/m) @ t=0.08
0.6585923267032818
% es.Ex (V/m) @ t=0.08
-1.5747523310681708
% es.Ey (V/m) @ t=0.08
0.12284164611178594
% es.Ez (V/m) @ t=0.08
0.6585923267032832
% es.tEx (V/m) @ t=0.08
-1.5747523310681597
% es.tEy (V/m) @ t=0.08
0
% es.tEz (V/m) @ t=0.08
0.6585923267032818
% V (V) @ t=0.08
0.00955900411356154
% es.normE (V/m) @ t=0.1
1.7279388196770715
% es.EX (V/m) @ t=0.1
-1.5893185052876029
% es.EY (V/m) @ t=0.1
0.12397790400216191
% es.EZ (V/m) @ t=0.1
0.6646841816451781
% es.tEX (V/m) @ t=0.1
-1.58931850528759
% es.tEY (V/m) @ t=0.1
0
% es.tEZ (V/m) @ t=0.1
0.6646841816451747
% es.Ex (V/m) @ t=0.1
-1.5893185052876029
% es.Ey (V/m) @ t=0.1
0.12397790400216191
% es.Ez (V/m) @ t=0.1
0.6646841816451781
% es.tEx (V/m) @ t=0.1
-1.58931850528759
% es.tEy (V/m) @ t=0.1
0
% es.tEz (V/m) @ t=0.1
0.6646841816451747
% V (V) @ t=0.1
0.009647423601956587
% es.normE (V/m) @ t=0.12
1.7437754530832286
% es.EX (V/m) @ t=0.12
-1.603884679507036
% es.EY (V/m) @ t=0.12
0.1251141618925556
% es.EZ (V/m) @ t=0.12
0.6707760365870818
% es.tEX (V/m) @ t=0.12
-1.6038846795070238
% es.tEY (V/m) @ t=0.12
0
% es.tEZ (V/m) @ t=0.12
0.6707760365870854
% es.Ex (V/m) @ t=0.12
-1.603884679507036
% es.Ey (V/m) @ t=0.12
0.1251141618925556
% es.Ez (V/m) @ t=0.12
0.6707760365870818
% es.tEx (V/m) @ t=0.12
-1.6038846795070238
% es.tEy (V/m) @ t=0.12
0
% es.tEz (V/m) @ t=0.12
0.6707760365870854
% V (V) @ t=0.12
0.00973584309035164
% es.normE (V/m) @ t=0.14
1.7599174897823464
% es.EX (V/m) @ t=0.14
-1.6187317567921868
% es.EY (V/m) @ t=0.14
0.1262723318649961
% es.EZ (V/m) @ t=0.14
0.6769853703997835
% es.tEX (V/m) @ t=0.14
-1.6187317567921813
% es.tEY (V/m) @ t=0.14
0
% es.tEZ (V/m) @ t=0.14
0.6769853703997839
% es.Ex (V/m) @ t=0.14
-1.6187317567921868
% es.Ey (V/m) @ t=0.14
0.1262723318649961
% es.Ez (V/m) @ t=0.14
0.6769853703997835
% es.tEx (V/m) @ t=0.14
-1.6187317567921813
% es.tEy (V/m) @ t=0.14
0
% es.tEz (V/m) @ t=0.14
0.6769853703997839
% V (V) @ t=0.14
0.009825967732423408
% es.normE (V/m) @ t=0.16
1.776575323691647
% es.EX (V/m) @ t=0.16
-1.6340532527262697
% es.EY (V/m) @ t=0.16
0.1274675092668356
% es.EZ (V/m) @ t=0.16
0.6833931148885133
% es.tEX (V/m) @ t=0.16
-1.6340532527262663
% es.tEY (V/m) @ t=0.16
0
% es.tEZ (V/m) @ t=0.16
0.6833931148885064
% es.Ex (V/m) @ t=0.16
-1.6340532527262697
% es.Ey (V/m) @ t=0.16
0.1274675092668356
% es.Ez (V/m) @ t=0.16
0.6833931148885133
% es.tEx (V/m) @ t=0.16
-1.6340532527262663
% es.tEy (V/m) @ t=0.16
0
% es.tEz (V/m) @ t=0.16
0.6833931148885064
% V (V) @ t=0.16
0.009918972217409996
% es.normE (V/m) @ t=0.18
1.7932331576009444
% es.EX (V/m) @ t=0.18
-1.6493747486603565
% es.EY (V/m) @ t=0.18
0.12866268666866998
% es.EZ (V/m) @ t=0.18
0.6898008593772251
% es.tEX (V/m) @ t=0.18
-1.6493747486603443
% es.tEY (V/m) @ t=0.18
0
% es.tEZ (V/m) @ t=0.18
0.6898008593772254
% es.Ex (V/m) @ t=0.18
-1.6493747486603565
% es.Ey (V/m) @ t=0.18
0.12866268666866998
% es.Ez (V/m) @ t=0.18
0.6898008593772251
% es.tEx (V/m) @ t=0.18
-1.6493747486603443
% es.tEy (V/m) @ t=0.18
0
% es.tEz (V/m) @ t=0.18
0.6898008593772254
% V (V) @ t=0.18
0.010011976702396579
% es.normE (V/m) @ t=0.2
1.809890991510244
% es.EX (V/m) @ t=0.2
-1.6646962445944438
% es.EY (V/m) @ t=0.2
0.12985786407051136
% es.EZ (V/m) @ t=0.2
0.696208603865939
% es.tEX (V/m) @ t=0.2
-1.6646962445944347
% es.tEY (V/m) @ t=0.2
0
% es.tEZ (V/m) @ t=0.2
0.6962086038659443
% es.Ex (V/m) @ t=0.2
-1.6646962445944438
% es.Ey (V/m) @ t=0.2
0.12985786407051136
% es.Ez (V/m) @ t=0.2
0.696208603865939
% es.tEx (V/m) @ t=0.2
-1.6646962445944347
% es.tEy (V/m) @ t=0.2
0
% es.tEz (V/m) @ t=0.2
0.6962086038659443
% V (V) @ t=0.2
0.010104981187383167
% es.normE (V/m) @ t=0.22
1.8265488254195525
% es.EX (V/m) @ t=0.22
-1.6800177405285377
% es.EY (V/m) @ t=0.22
0.13105304147234387
% es.EZ (V/m) @ t=0.22
0.702616348354665
% es.tEX (V/m) @ t=0.22
-1.680017740528534
% es.tEY (V/m) @ t=0.22
0
% es.tEZ (V/m) @ t=0.22
0.7026163483546668
% es.Ex (V/m) @ t=0.22
-1.6800177405285377
% es.Ey (V/m) @ t=0.22
0.13105304147234387
% es.Ez (V/m) @ t=0.22
0.702616348354665
% es.tEx (V/m) @ t=0.22
-1.680017740528534
% es.tEy (V/m) @ t=0.22
0
% es.tEz (V/m) @ t=0.22
0.7026163483546668
% V (V) @ t=0.22
0.010197985672369753
% es.normE (V/m) @ t=0.24
1.8432066593288474
% es.EX (V/m) @ t=0.24
-1.6953392364626174
% es.EY (V/m) @ t=0.24
0.1322482188741817
% es.EZ (V/m) @ t=0.24
0.709024092843386
% es.tEX (V/m) @ t=0.24
-1.695339236462619
% es.tEY (V/m) @ t=0.24
0
% es.tEZ (V/m) @ t=0.24
0.7090240928433857
% es.Ex (V/m) @ t=0.24
-1.6953392364626174
% es.Ey (V/m) @ t=0.24
0.1322482188741817
% es.Ez (V/m) @ t=0.24
0.709024092843386
% es.tEx (V/m) @ t=0.24
-1.695339236462619
% es.tEy (V/m) @ t=0.24
0
% es.tEz (V/m) @ t=0.24
0.7090240928433857
% V (V) @ t=0.24
0.01029099015735634
% es.normE (V/m) @ t=0.26
1.8598644932381458
% es.EX (V/m) @ t=0.26
-1.7106607323967047
% es.EY (V/m) @ t=0.26
0.1334433962760071
% es.EZ (V/m) @ t=0.26
0.7154318373321015
% es.tEX (V/m) @ t=0.26
-1.7106607323967058
% es.tEY (V/m) @ t=0.26
0
% es.tEZ (V/m) @ t=0.26
0.7154318373321047
% es.Ex (V/m) @ t=0.26
-1.7106607323967047
% es.Ey (V/m) @ t=0.26
0.1334433962760071
% es.Ez (V/m) @ t=0.26
0.7154318373321015
% es.tEx (V/m) @ t=0.26
-1.7106607323967058
% es.tEy (V/m) @ t=0.26
0
% es.tEz (V/m) @ t=0.26
0.7154318373321047
% V (V) @ t=0.26
0.010383994642342928
% es.normE (V/m) @ t=0.28
1.8779087995366994
% es.EX (V/m) @ t=0.28
-1.727257387804629
% es.EY (V/m) @ t=0.28
0.13473826987065696
% es.EZ (V/m) @ t=0.28
0.7223730960544278
% es.tEX (V/m) @ t=0.28
-1.7272573878046167
% es.tEY (V/m) @ t=0.28
0
% es.tEZ (V/m) @ t=0.28
0.7223730960544259
% es.Ex (V/m) @ t=0.28
-1.727257387804629
% es.Ey (V/m) @ t=0.28
0.13473826987065696
% es.Ez (V/m) @ t=0.28
0.7223730960544278
% es.tEx (V/m) @ t=0.28
-1.7272573878046167
% es.tEy (V/m) @ t=0.28
0
% es.tEz (V/m) @ t=0.28
0.7223730960544259
% V (V) @ t=0.28
0.010484720696790722
% es.normE (V/m) @ t=0.3
1.8964066957920334
% es.EX (V/m) @ t=0.3
-1.744271216706228
% es.EY (V/m) @ t=0.3
0.13606575947130028
% es.EZ (V/m) @ t=0.3
0.7294888960802468
% es.tEX (V/m) @ t=0.3
-1.7442712167062187
% es.tEY (V/m) @ t=0.3
0
% es.tEZ (V/m) @ t=0.3
0.7294888960802517
% es.Ex (V/m) @ t=0.3
-1.744271216706228
% es.Ey (V/m) @ t=0.3
0.13606575947130028
% es.Ez (V/m) @ t=0.3
0.7294888960802468
% es.tEx (V/m) @ t=0.3
-1.7442712167062187
% es.tEy (V/m) @ t=0.3
0
% es.tEz (V/m) @ t=0.3
0.7294888960802517
% V (V) @ t=0.3
0.010587972893399567
% es.normE (V/m) @ t=0.32
1.9149045920475016
% es.EX (V/m) @ t=0.32
-1.761285045607836
% es.EY (V/m) @ t=0.32
0.13739324907193828
% es.EZ (V/m) @ t=0.32
0.7366046961060959
% es.tEX (V/m) @ t=0.32
-1.761285045607833
% es.tEY (V/m) @ t=0.32
0
% es.tEZ (V/m) @ t=0.32
0.7366046961060846
% es.Ex (V/m) @ t=0.32
-1.761285045607836
% es.Ey (V/m) @ t=0.32
0.13739324907193828
% es.Ez (V/m) @ t=0.32
0.7366046961060959
% es.tEx (V/m) @ t=0.32
-1.761285045607833
% es.tEy (V/m) @ t=0.32
0
% es.tEz (V/m) @ t=0.32
0.7366046961060846
% V (V) @ t=0.32
0.010691225090008413
% es.normE (V/m) @ t=0.34
1.9334024883030718
% es.EX (V/m) @ t=0.34
-1.778298874509438
% es.EY (V/m) @ t=0.34
0.1387207386725745
% es.EZ (V/m) @ t=0.34
0.7437204961319326
% es.tEX (V/m) @ t=0.34
-1.7782988745094297
% es.tEY (V/m) @ t=0.34
0
% es.tEZ (V/m) @ t=0.34
0.7437204961319352
% es.Ex (V/m) @ t=0.34
-1.778298874509438
% es.Ey (V/m) @ t=0.34
0.1387207386725745
% es.Ez (V/m) @ t=0.34
0.7437204961319326
% es.tEx (V/m) @ t=0.34
-1.7782988745094297
% es.tEy (V/m) @ t=0.34
0
% es.tEz (V/m) @ t=0.34
0.7437204961319352
% V (V) @ t=0.34
0.010794477286617258
% es.normE (V/m) @ t=0.36
1.9519003845587475
% es.EX (V/m) @ t=0.36
-1.7953127034110417
% es.EY (V/m) @ t=0.36
0.14004822827321073
% es.EZ (V/m) @ t=0.36
0.750836296157757
% es.tEX (V/m) @ t=0.36
-1.7953127034110352
% es.tEY (V/m) @ t=0.36
0
% es.tEZ (V/m) @ t=0.36
0.7508362961577504
% es.Ex (V/m) @ t=0.36
-1.7953127034110417
% es.Ey (V/m) @ t=0.36
0.14004822827321073
% es.Ez (V/m) @ t=0.36
0.750836296157757
% es.tEx (V/m) @ t=0.36
-1.7953127034110352
% es.tEy (V/m) @ t=0.36
0
% es.tEz (V/m) @ t=0.36
0.7508362961577504
% V (V) @ t=0.36
0.010897729483226105
% es.normE (V/m) @ t=0.38
1.970398280814539
% es.EX (V/m) @ t=0.38
-1.8123265323126472
% es.EY (V/m) @ t=0.38
0.14137571787385228
% es.EZ (V/m) @ t=0.38
0.7579520961836026
% es.tEX (V/m) @ t=0.38
-1.8123265323126407
% es.tEY (V/m) @ t=0.38
0
% es.tEZ (V/m) @ t=0.38
0.757952096183601
% es.Ex (V/m) @ t=0.38
-1.8123265323126472
% es.Ey (V/m) @ t=0.38
0.14137571787385228
% es.Ez (V/m) @ t=0.38
0.7579520961836026
% es.tEx (V/m) @ t=0.38
-1.8123265323126407
% es.tEy (V/m) @ t=0.38
0
% es.tEz (V/m) @ t=0.38
0.757952096183601
% V (V) @ t=0.38
0.011000981679834949
% es.normE (V/m) @ t=0.4
1.98889617707042
% es.EX (V/m) @ t=0.4
-1.8293403612142496
% es.EY (V/m) @ t=0.4
0.14270320747448673
% es.EZ (V/m) @ t=0.4
0.7650678962094233
% es.tEX (V/m) @ t=0.4
-1.8293403612142427
% es.tEY (V/m) @ t=0.4
0
% es.tEZ (V/m) @ t=0.4
0.7650678962094268
% es.Ex (V/m) @ t=0.4
-1.8293403612142496
% es.Ey (V/m) @ t=0.4
0.14270320747448673
% es.Ez (V/m) @ t=0.4
0.7650678962094233
% es.tEx (V/m) @ t=0.4
-1.8293403612142427
% es.tEy (V/m) @ t=0.4
0
% es.tEz (V/m) @ t=0.4
0.7650678962094268
% V (V) @ t=0.4
0.011104233876443796
% es.normE (V/m) @ t=0.42
2.007394073326404
% es.EX (V/m) @ t=0.42
-1.8463541901158462
% es.EY (V/m) @ t=0.42
0.1440306970751336
% es.EZ (V/m) @ t=0.42
0.7721836962352618
% es.tEX (V/m) @ t=0.42
-1.8463541901158376
% es.tEY (V/m) @ t=0.42
0
% es.tEZ (V/m) @ t=0.42
0.7721836962352562
% es.Ex (V/m) @ t=0.42
-1.8463541901158462
% es.Ey (V/m) @ t=0.42
0.1440306970751336
% es.Ez (V/m) @ t=0.42
0.7721836962352618
% es.tEx (V/m) @ t=0.42
-1.8463541901158376
% es.tEy (V/m) @ t=0.42
0
% es.tEz (V/m) @ t=0.42
0.7721836962352562
% V (V) @ t=0.42
0.011207486073052641
% es.normE (V/m) @ t=0.44
2.025891969582495
% es.EX (V/m) @ t=0.44
-1.8633680190174549
% es.EY (V/m) @ t=0.44
0.1453581866757646
% es.EZ (V/m) @ t=0.44
0.7792994962610985
% es.tEX (V/m) @ t=0.44
-1.8633680190174449
% es.tEY (V/m) @ t=0.44
0
% es.tEZ (V/m) @ t=0.44
0.7792994962610926
% es.Ex (V/m) @ t=0.44
-1.8633680190174549
% es.Ey (V/m) @ t=0.44
0.1453581866757646
% es.Ez (V/m) @ t=0.44
0.7792994962610985
% es.tEx (V/m) @ t=0.44
-1.8633680190174449
% es.tEy (V/m) @ t=0.44
0
% es.tEz (V/m) @ t=0.44
0.7792994962610926
% V (V) @ t=0.44
0.011310738269661485
% es.normE (V/m) @ t=0.46
2.0443898658386663
% es.EX (V/m) @ t=0.46
-1.8803818479190488
% es.EY (V/m) @ t=0.46
0.14668567627640794
% es.EZ (V/m) @ t=0.46
0.7864152962869335
% es.tEX (V/m) @ t=0.46
-1.8803818479190433
% es.tEY (V/m) @ t=0.46
0
% es.tEZ (V/m) @ t=0.46
0.7864152962869362
% es.Ex (V/m) @ t=0.46
-1.8803818479190488
% es.Ey (V/m) @ t=0.46
0.14668567627640794
% es.Ez (V/m) @ t=0.46
0.7864152962869335
% es.tEx (V/m) @ t=0.46
-1.8803818479190433
% es.tEy (V/m) @ t=0.46
0
% es.tEz (V/m) @ t=0.46
0.7864152962869362
% V (V) @ t=0.46
0.011413990466270328
% es.normE (V/m) @ t=0.48
2.0628877620949506
% es.EX (V/m) @ t=0.48
-1.8973956768206646
% es.EY (V/m) @ t=0.48
0.14801316587705837
% es.EZ (V/m) @ t=0.48
0.7935310963127666
% es.tEX (V/m) @ t=0.48
-1.8973956768206524
% es.tEY (V/m) @ t=0.48
0
% es.tEZ (V/m) @ t=0.48
0.7935310963127655
% es.Ex (V/m) @ t=0.48
-1.8973956768206646
% es.Ey (V/m) @ t=0.48
0.14801316587705837
% es.Ez (V/m) @ t=0.48
0.7935310963127666
% es.tEx (V/m) @ t=0.48
-1.8973956768206524
% es.tEy (V/m) @ t=0.48
0
% es.tEz (V/m) @ t=0.48
0.7935310963127655
% V (V) @ t=0.48
0.011517242662879176
% es.normE (V/m) @ t=0.5
2.0813856583512997
% es.EX (V/m) @ t=0.5
-1.9144095057222599
% es.EY (V/m) @ t=0.5
0.14934065547768738
% es.EZ (V/m) @ t=0.5
0.8006468963385911
% es.tEX (V/m) @ t=0.5
-1.9144095057222472
% es.tEY (V/m) @ t=0.5
0
% es.tEZ (V/m) @ t=0.5
0.8006468963385842
% es.Ex (V/m) @ t=0.5
-1.9144095057222599
% es.Ey (V/m) @ t=0.5
0.14934065547768738
% es.Ez (V/m) @ t=0.5
0.8006468963385911
% es.tEx (V/m) @ t=0.5
-1.9144095057222472
% es.tEy (V/m) @ t=0.5
0
% es.tEz (V/m) @ t=0.5
0.8006468963385842
% V (V) @ t=0.5
0.011620494859488023
% es.normE (V/m) @ t=0.52
2.099883554607758
% es.EX (V/m) @ t=0.52
-1.9314233346238712
% es.EY (V/m) @ t=0.52
0.1506681450783326
% es.EZ (V/m) @ t=0.52
0.8077626963644331
% es.tEX (V/m) @ t=0.52
-1.9314233346238598
% es.tEY (V/m) @ t=0.52
0
% es.tEZ (V/m) @ t=0.52
0.8077626963644349
% es.Ex (V/m) @ t=0.52
-1.9314233346238712
% es.Ey (V/m) @ t=0.52
0.1506681450783326
% es.Ez (V/m) @ t=0.52
0.8077626963644331
% es.tEx (V/m) @ t=0.52
-1.9314233346238598
% es.tEy (V/m) @ t=0.52
0
% es.tEz (V/m) @ t=0.52
0.8077626963644349
% V (V) @ t=0.52
0.011723747056096866
% es.normE (V/m) @ t=0.54
2.119456443981124
% es.EX (V/m) @ t=0.54
-1.949426032656749
% es.EY (V/m) @ t=0.54
0.15207247248212397
% es.EZ (V/m) @ t=0.54
0.8152917698411164
% es.tEX (V/m) @ t=0.54
-1.9494260326567456
% es.tEY (V/m) @ t=0.54
0
% es.tEZ (V/m) @ t=0.54
0.8152917698411066
% es.Ex (V/m) @ t=0.54
-1.949426032656749
% es.Ey (V/m) @ t=0.54
0.15207247248212397
% es.Ez (V/m) @ t=0.54
0.8152917698411164
% es.tEx (V/m) @ t=0.54
-1.9494260326567456
% es.tEy (V/m) @ t=0.54
0
% es.tEz (V/m) @ t=0.54
0.8152917698411066
% V (V) @ t=0.54
0.011833027079860416
% es.normE (V/m) @ t=0.56
2.140034922109507
% es.EX (V/m) @ t=0.56
-1.968353755848301
% es.EY (V/m) @ t=0.56
0.15354867683991646
% es.EZ (V/m) @ t=0.56
0.8232074347558023
% es.tEX (V/m) @ t=0.56
-1.9683537558483
% es.tEY (V/m) @ t=0.56
0
% es.tEZ (V/m) @ t=0.56
0.8232074347558118
% es.Ex (V/m) @ t=0.56
-1.968353755848301
% es.Ey (V/m) @ t=0.56
0.15354867683991646
% es.Ez (V/m) @ t=0.56
0.8232074347558023
% es.tEx (V/m) @ t=0.56
-1.9683537558483
% es.tEy (V/m) @ t=0.56
0
% es.tEz (V/m) @ t=0.56
0.8232074347558118
% V (V) @ t=0.56
0.011947945758521698
% es.normE (V/m) @ t=0.58
2.160613400238043
% es.EX (V/m) @ t=0.58
-1.9872814790398798
% es.EY (V/m) @ t=0.58
0.15502488119772306
% es.EZ (V/m) @ t=0.58
0.8311230996704865
% es.tEX (V/m) @ t=0.58
-1.9872814790398685
% es.tEY (V/m) @ t=0.58
0
% es.tEZ (V/m) @ t=0.58
0.8311230996704921
% es.Ex (V/m) @ t=0.58
-1.9872814790398798
% es.Ey (V/m) @ t=0.58
0.15502488119772306
% es.Ez (V/m) @ t=0.58
0.8311230996704865
% es.tEx (V/m) @ t=0.58
-1.9872814790398685
% es.tEy (V/m) @ t=0.58
0
% es.tEz (V/m) @ t=0.58
0.8311230996704921
% V (V) @ t=0.58
0.012062864437182977
% es.normE (V/m) @ t=0.6
2.181191878366688
% es.EX (V/m) @ t=0.6
-2.006209202231445
% es.EY (V/m) @ t=0.6
0.15650108555552267
% es.EZ (V/m) @ t=0.6
0.8390387645851652
% es.tEX (V/m) @ t=0.6
-2.006209202231437
% es.tEY (V/m) @ t=0.6
0
% es.tEZ (V/m) @ t=0.6
0.8390387645851654
% es.Ex (V/m) @ t=0.6
-2.006209202231445
% es.Ey (V/m) @ t=0.6
0.15650108555552267
% es.Ez (V/m) @ t=0.6
0.8390387645851652
% es.tEx (V/m) @ t=0.6
-2.006209202231437
% es.tEy (V/m) @ t=0.6
0
% es.tEz (V/m) @ t=0.6
0.8390387645851654
% V (V) @ t=0.6
0.012177783115844257
% es.normE (V/m) @ t=0.62
2.2017703564954507
% es.EX (V/m) @ t=0.62
-2.0251369254230056
% es.EY (V/m) @ t=0.62
0.1579772899133025
% es.EZ (V/m) @ t=0.62
0.8469544294998511
% es.tEX (V/m) @ t=0.62
-2.025136925423004
% es.tEY (V/m) @ t=0.62
0
% es.tEZ (V/m) @ t=0.62
0.8469544294998492
% es.Ex (V/m) @ t=0.62
-2.0251369254230056
% es.Ey (V/m) @ t=0.62
0.1579772899133025
% es.Ez (V/m) @ t=0.62
0.8469544294998511
% es.tEx (V/m) @ t=0.62
-2.025136925423004
% es.tEy (V/m) @ t=0.62
0
% es.tEz (V/m) @ t=0.62
0.8469544294998492
% V (V) @ t=0.62
0.012292701794505537
% es.normE (V/m) @ t=0.64
2.2223488346243236
% es.EX (V/m) @ t=0.64
-2.0440646486145626
% es.EY (V/m) @ t=0.64
0.15945349427110733
% es.EZ (V/m) @ t=0.64
0.854870094414521
% es.tEX (V/m) @ t=0.64
-2.044064648614558
% es.tEY (V/m) @ t=0.64
0
% es.tEZ (V/m) @ t=0.64
0.8548700944145224
% es.Ex (V/m) @ t=0.64
-2.0440646486145626
% es.Ey (V/m) @ t=0.64
0.15945349427110733
% es.Ez (V/m) @ t=0.64
0.854870094414521
% es.tEx (V/m) @ t=0.64
-2.044064648614558
% es.tEy (V/m) @ t=0.64
0
% es.tEz (V/m) @ t=0.64
0.8548700944145224
% V (V) @ t=0.64
0.012407620473166818
% es.normE (V/m) @ t=0.66
2.2429273127533333
% es.EX (V/m) @ t=0.66
-2.062992371806133
% es.EY (V/m) @ t=0.66
0.1609296986289016
% es.EZ (V/m) @ t=0.66
0.8627857593292193
% es.tEX (V/m) @ t=0.66
-2.0629923718061303
% es.tEY (V/m) @ t=0.66
0
% es.tEZ (V/m) @ t=0.66
0.8627857593292134
% es.Ex (V/m) @ t=0.66
-2.062992371806133
% es.Ey (V/m) @ t=0.66
0.1609296986289016
% es.Ez (V/m) @ t=0.66
0.8627857593292193
% es.tEx (V/m) @ t=0.66
-2.0629923718061303
% es.tEy (V/m) @ t=0.66
0
% es.tEz (V/m) @ t=0.66
0.8627857593292134
% V (V) @ t=0.66
0.012522539151828098
% es.normE (V/m) @ t=0.68
2.2635057908824363
% es.EX (V/m) @ t=0.68
-2.0819200949976953
% es.EY (V/m) @ t=0.68
0.16240590298667623
% es.EZ (V/m) @ t=0.68
0.8707014242438945
% es.tEX (V/m) @ t=0.68
-2.0819200949976846
% es.tEY (V/m) @ t=0.68
0
% es.tEZ (V/m) @ t=0.68
0.8707014242438937
% es.Ex (V/m) @ t=0.68
-2.0819200949976953
% es.Ey (V/m) @ t=0.68
0.16240590298667623
% es.Ez (V/m) @ t=0.68
0.8707014242438945
% es.tEx (V/m) @ t=0.68
-2.0819200949976846
% es.tEy (V/m) @ t=0.68
0
% es.tEz (V/m) @ t=0.68
0.8707014242438937
% V (V) @ t=0.68
0.012637457830489378
% es.normE (V/m) @ t=0.7
2.2840842690116636
% es.EX (V/m) @ t=0.7
-2.1008478181892665
% es.EY (V/m) @ t=0.7
0.16388210734449005
% es.EZ (V/m) @ t=0.7
0.8786170891585804
% es.tEX (V/m) @ t=0.7
-2.100847818189255
% es.tEY (V/m) @ t=0.7
0
% es.tEZ (V/m) @ t=0.7
0.8786170891585776
% es.Ex (V/m) @ t=0.7
-2.1008478181892665
% es.Ey (V/m) @ t=0.7
0.16388210734449005
% es.Ez (V/m) @ t=0.7
0.8786170891585804
% es.tEx (V/m) @ t=0.7
-2.100847818189255
% es.tEy (V/m) @ t=0.7
0
% es.tEz (V/m) @ t=0.7
0.8786170891585776
% V (V) @ t=0.7
0.012752376509150657
% es.normE (V/m) @ t=0.72
2.3046627471409886
% es.EX (V/m) @ t=0.72
-2.1197755413808332
% es.EY (V/m) @ t=0.72
0.16535831170226278
% es.EZ (V/m) @ t=0.72
0.8865327540732699
% es.tEX (V/m) @ t=0.72
-2.1197755413808164
% es.tEY (V/m) @ t=0.72
0
% es.tEZ (V/m) @ t=0.72
0.886532754073265
% es.Ex (V/m) @ t=0.72
-2.1197755413808332
% es.Ey (V/m) @ t=0.72
0.16535831170226278
% es.Ez (V/m) @ t=0.72
0.8865327540732699
% es.tEx (V/m) @ t=0.72
-2.1197755413808164
% es.tEy (V/m) @ t=0.72
0
% es.tEz (V/m) @ t=0.72
0.886532754073265
% V (V) @ t=0.72
0.012867295187811937
% es.normE (V/m) @ t=0.74
2.3252412252704033
% es.EX (V/m) @ t=0.74
-2.138703264572385
% es.EY (V/m) @ t=0.74
0.1668345160600837
% es.EZ (V/m) @ t=0.74
0.8944484189879504
% es.tEX (V/m) @ t=0.74
-2.138703264572383
% es.tEY (V/m) @ t=0.74
0
% es.tEZ (V/m) @ t=0.74
0.894448418987956
% es.Ex (V/m) @ t=0.74
-2.138703264572385
% es.Ey (V/m) @ t=0.74
0.1668345160600837
% es.Ez (V/m) @ t=0.74
0.8944484189879504
% es.tEx (V/m) @ t=0.74
-2.138703264572383
% es.tEy (V/m) @ t=0.74
0
% es.tEz (V/m) @ t=0.74
0.894448418987956
% V (V) @ t=0.74
0.012982213866473215
% es.normE (V/m) @ t=0.76
2.3458197033999264
% es.EX (V/m) @ t=0.76
-2.1576309877639526
% es.EY (V/m) @ t=0.76
0.16831072041785478
% es.EZ (V/m) @ t=0.76
0.9023640839026222
% es.tEX (V/m) @ t=0.76
-2.1576309877639464
% es.tEY (V/m) @ t=0.76
0
% es.tEZ (V/m) @ t=0.76
0.9023640839026186
% es.Ex (V/m) @ t=0.76
-2.1576309877639526
% es.Ey (V/m) @ t=0.76
0.16831072041785478
% es.Ez (V/m) @ t=0.76
0.9023640839026222
% es.tEx (V/m) @ t=0.76
-2.1576309877639464
% es.tEy (V/m) @ t=0.76
0
% es.tEz (V/m) @ t=0.76
0.9023640839026186
% V (V) @ t=0.76
0.013097132545134496
% es.normE (V/m) @ t=0.78
2.366398181529555
% es.EX (V/m) @ t=0.78
-2.1765587109555193
% es.EY (V/m) @ t=0.78
0.16978692477565616
% es.EZ (V/m) @ t=0.78
0.910279748817315
% es.tEX (V/m) @ t=0.78
-2.1765587109555167
% es.tEY (V/m) @ t=0.78
0
% es.tEZ (V/m) @ t=0.78
0.9102797488173167
% es.Ex (V/m) @ t=0.78
-2.1765587109555193
% es.Ey (V/m) @ t=0.78
0.16978692477565616
% es.Ez (V/m) @ t=0.78
0.910279748817315
% es.tEx (V/m) @ t=0.78
-2.1765587109555167
% es.tEy (V/m) @ t=0.78
0
% es.tEz (V/m) @ t=0.78
0.9102797488173167
% V (V) @ t=0.78
0.013212051223795776
% es.normE (V/m) @ t=0.8
2.387634649885525
% es.EX (V/m) @ t=0.8
-2.196091608972239
% es.EY (V/m) @ t=0.8
0.1713104140805637
% es.EZ (V/m) @ t=0.8
0.9184485842929621
% es.tEX (V/m) @ t=0.8
-2.196091608972228
% es.tEY (V/m) @ t=0.8
0
% es.tEZ (V/m) @ t=0.8
0.9184485842929604
% es.Ex (V/m) @ t=0.8
-2.196091608972239
% es.Ey (V/m) @ t=0.8
0.1713104140805637
% es.Ez (V/m) @ t=0.8
0.9184485842929621
% es.tEx (V/m) @ t=0.8
-2.196091608972228
% es.tEy (V/m) @ t=0.8
0
% es.tEz (V/m) @ t=0.8
0.9184485842929604
% V (V) @ t=0.8
0.013330636947576852
% es.normE (V/m) @ t=0.82
2.410564217617472
% es.EX (V/m) @ t=0.82
-2.2171817050717317
% es.EY (V/m) @ t=0.82
0.1729555740596268
% es.EZ (V/m) @ t=0.82
0.9272688624522263
% es.tEX (V/m) @ t=0.82
-2.217181705071729
% es.tEY (V/m) @ t=0.82
0
% es.tEZ (V/m) @ t=0.82
0.9272688624522232
% es.Ex (V/m) @ t=0.82
-2.2171817050717317
% es.Ey (V/m) @ t=0.82
0.1729555740596268
% es.Ez (V/m) @ t=0.82
0.9272688624522263
% es.tEx (V/m) @ t=0.82
-2.217181705071729
% es.tEy (V/m) @ t=0.82
0
% es.tEz (V/m) @ t=0.82
0.9272688624522232
% V (V) @ t=0.82
0.013458658482949165
% es.normE (V/m) @ t=0.84
2.4334937853494187
% es.EX (V/m) @ t=0.84
-2.2382718011712237
% es.EY (V/m) @ t=0.84
0.17460073403872012
% es.EZ (V/m) @ t=0.84
0.9360891406114887
% es.tEX (V/m) @ t=0.84
-2.2382718011712157
% es.tEY (V/m) @ t=0.84
0
% es.tEZ (V/m) @ t=0.84
0.9360891406114931
% es.Ex (V/m) @ t=0.84
-2.2382718011712237
% es.Ey (V/m) @ t=0.84
0.17460073403872012
% es.Ez (V/m) @ t=0.84
0.9360891406114887
% es.tEx (V/m) @ t=0.84
-2.2382718011712157
% es.tEy (V/m) @ t=0.84
0
% es.tEz (V/m) @ t=0.84
0.9360891406114931
% V (V) @ t=0.84
0.013586680018321477
% es.normE (V/m) @ t=0.86
2.456423353081355
% es.EX (V/m) @ t=0.86
-2.259361897270704
% es.EY (V/m) @ t=0.86
0.176245894017794
% es.EZ (V/m) @ t=0.86
0.9449094187707495
% es.tEX (V/m) @ t=0.86
-2.2593618972707006
% es.tEY (V/m) @ t=0.86
0
% es.tEZ (V/m) @ t=0.86
0.9449094187707558
% es.Ex (V/m) @ t=0.86
-2.259361897270704
% es.Ey (V/m) @ t=0.86
0.176245894017794
% es.Ez (V/m) @ t=0.86
0.9449094187707495
% es.tEx (V/m) @ t=0.86
-2.2593618972707006
% es.tEy (V/m) @ t=0.86
0
% es.tEz (V/m) @ t=0.86
0.9449094187707558
% V (V) @ t=0.86
0.013714701553693786
% es.normE (V/m) @ t=0.88
2.479352920813298
% es.EX (V/m) @ t=0.88
-2.2804519933701926
% es.EY (V/m) @ t=0.88
0.17789105399687843
% es.EZ (V/m) @ t=0.88
0.9537296969300119
% es.tEX (V/m) @ t=0.88
-2.28045199337018
% es.tEY (V/m) @ t=0.88
0
% es.tEZ (V/m) @ t=0.88
0.9537296969300044
% es.Ex (V/m) @ t=0.88
-2.2804519933701926
% es.Ey (V/m) @ t=0.88
0.17789105399687843
% es.Ez (V/m) @ t=0.88
0.9537296969300119
% es.tEx (V/m) @ t=0.88
-2.28045199337018
% es.tEy (V/m) @ t=0.88
0
% es.tEz (V/m) @ t=0.88
0.9537296969300044
% V (V) @ t=0.88
0.013842723089066098
% es.normE (V/m) @ t=0.9
2.5022824885452426
% es.EX (V/m) @ t=0.9
-2.3015420894696854
% es.EY (V/m) @ t=0.9
0.1795362139759522
% es.EZ (V/m) @ t=0.9
0.9625499750892673
% es.tEX (V/m) @ t=0.9
-2.3015420894696756
% es.tEY (V/m) @ t=0.9
0
% es.tEZ (V/m) @ t=0.9
0.9625499750892672
% es.Ex (V/m) @ t=0.9
-2.3015420894696854
% es.Ey (V/m) @ t=0.9
0.1795362139759522
% es.Ez (V/m) @ t=0.9
0.9625499750892673
% es.tEx (V/m) @ t=0.9
-2.3015420894696756
% es.tEy (V/m) @ t=0.9
0
% es.tEz (V/m) @ t=0.9
0.9625499750892672
% V (V) @ t=0.9
0.01397074462443841
% es.normE (V/m) @ t=0.92
2.5252120562771845
% es.EX (V/m) @ t=0.92
-2.3226321855691685
% es.EY (V/m) @ t=0.92
0.18118137395502087
% es.EZ (V/m) @ t=0.92
0.9713702532485383
% es.tEX (V/m) @ t=0.92
-2.3226321855691605
% es.tEY (V/m) @ t=0.92
0
% es.tEZ (V/m) @ t=0.92
0.9713702532485442
% es.Ex (V/m) @ t=0.92
-2.3226321855691685
% es.Ey (V/m) @ t=0.92
0.18118137395502087
% es.Ez (V/m) @ t=0.92
0.9713702532485383
% es.tEx (V/m) @ t=0.92
-2.3226321855691605
% es.tEy (V/m) @ t=0.92
0
% es.tEz (V/m) @ t=0.92
0.9713702532485442
% V (V) @ t=0.92
0.014098766159810722
% es.normE (V/m) @ t=0.94
2.5481416240091317
% es.EX (V/m) @ t=0.94
-2.3437222816686614
% es.EY (V/m) @ t=0.94
0.18282653393410708
% es.EZ (V/m) @ t=0.94
0.9801905314077956
% es.tEX (V/m) @ t=0.94
-2.343722281668647
% es.tEY (V/m) @ t=0.94
0
% es.tEZ (V/m) @ t=0.94
0.9801905314077928
% es.Ex (V/m) @ t=0.94
-2.3437222816686614
% es.Ey (V/m) @ t=0.94
0.18282653393410708
% es.Ez (V/m) @ t=0.94
0.9801905314077956
% es.tEx (V/m) @ t=0.94
-2.343722281668647
% es.tEy (V/m) @ t=0.94
0
% es.tEz (V/m) @ t=0.94
0.9801905314077928
% V (V) @ t=0.94
0.014226787695183034
% es.normE (V/m) @ t=0.96
2.5710711917410674
% es.EX (V/m) @ t=0.96
-2.364812377768142
% es.EY (V/m) @ t=0.96
0.18447169391318086
% es.EZ (V/m) @ t=0.96
0.9890108095670561
% es.tEX (V/m) @ t=0.96
-2.3648123777681267
% es.tEY (V/m) @ t=0.96
0
% es.tEZ (V/m) @ t=0.96
0.9890108095670556
% es.Ex (V/m) @ t=0.96
-2.364812377768142
% es.Ey (V/m) @ t=0.96
0.18447169391318086
% es.Ez (V/m) @ t=0.96
0.9890108095670561
% es.tEx (V/m) @ t=0.96
-2.3648123777681267
% es.tEy (V/m) @ t=0.96
0
% es.tEz (V/m) @ t=0.96
0.9890108095670556
% V (V) @ t=0.96
0.014354809230555342
% es.normE (V/m) @ t=0.98
2.5940007594730172
% es.EX (V/m) @ t=0.98
-2.385902473867638
% es.EY (V/m) @ t=0.98
0.18611685389226174
% es.EZ (V/m) @ t=0.98
0.9978310877263133
% es.tEX (V/m) @ t=0.98
-2.3859024738676275
% es.tEY (V/m) @ t=0.98
0
% es.tEZ (V/m) @ t=0.98
0.9978310877263112
% es.Ex (V/m) @ t=0.98
-2.385902473867638
% es.Ey (V/m) @ t=0.98
0.18611685389226174
% es.Ez (V/m) @ t=0.98
0.9978310877263133
% es.tEx (V/m) @ t=0.98
-2.3859024738676275
% es.tEy (V/m) @ t=0.98
0
% es.tEz (V/m) @ t=0.98
0.9978310877263112
% V (V) @ t=0.98
0.014482830765927657
% es.normE (V/m) @ t=1
2.6169303272049573
% es.EX (V/m) @ t=1
-2.406992569967123
% es.EY (V/m) @ t=1
0.18776201387132307
% es.EZ (V/m) @ t=1
1.0066513658855758
% es.tEX (V/m) @ t=1
-2.4069925699671124
% es.tEY (V/m) @ t=1
0
% es.tEZ (V/m) @ t=1
1.006651365885567
% es.Ex (V/m) @ t=1
-2.406992569967123
% es.Ey (V/m) @ t=1
0.18776201387132307
% es.Ez (V/m) @ t=1
1.0066513658855758
% es.tEx (V/m) @ t=1
-2.4069925699671124
% es.tEy (V/m) @ t=1
0
% es.tEz (V/m) @ t=1
1.006651365885567
% V (V) @ t=1
0.014610852301299966
% es.normE (V/m) @ t=1.02
2.6398598949368965
% es.EX (V/m) @ t=1.02
-2.428082666066608
% es.EY (V/m) @ t=1.02
0.18940717385040406
% es.EZ (V/m) @ t=1.02
1.015471644044831
% es.tEX (V/m) @ t=1.02
-2.428082666066592
% es.tEY (V/m) @ t=1.02
0
% es.tEZ (V/m) @ t=1.02
1.0154716440448368
% es.Ex (V/m) @ t=1.02
-2.428082666066608
% es.Ey (V/m) @ t=1.02
0.18940717385040406
% es.Ez (V/m) @ t=1.02
1.015471644044831
% es.tEx (V/m) @ t=1.02
-2.428082666066592
% es.tEy (V/m) @ t=1.02
0
% es.tEz (V/m) @ t=1.02
1.0154716440448368
% V (V) @ t=1.02
0.014738873836672278
% es.normE (V/m) @ t=1.04
2.6627894626688446
% es.EX (V/m) @ t=1.04
-2.449172762166099
% es.EY (V/m) @ t=1.04
0.1910523338294814
% es.EZ (V/m) @ t=1.04
1.0242919222040956
% es.tEX (V/m) @ t=1.04
-2.4491727621660857
% es.tEY (V/m) @ t=1.04
0
% es.tEZ (V/m) @ t=1.04