% Model:              1 neuron.mph
% Version:            COMSOL 6.1.0.252
% Date:               Mar 18 2023, 13:26
% Dimension:          0
% Nodes:              14017
% Expressions:        14017
% Description:        Electric field norm, Electric field, X component, Electric field, Y component, Electric field, Z component, Tangential electric field, X component, Tangential electric field, Y component, Tangential electric field, Z component, Electric field, x component, Electric field, y component, Electric field, z component, Tangential electric field, x component, Tangential electric field, y component, Tangential electric field, z component, Electric potential
% Length unit:        mm
% x
2
% y
12.199999999999998
% z
2
% es.normE (V/m) @ t=0
1.1041190012053166
% es.EX (V/m) @ t=0
-0.7904476487769598
% es.EY (V/m) @ t=0
0.30102991452093586
% es.EZ (V/m) @ t=0
-0.7053532375807103
% es.tEX (V/m) @ t=0
-0.7904476487769498
% es.tEY (V/m) @ t=0
0
% es.tEZ (V/m) @ t=0
-0.7053532375807183
% es.Ex (V/m) @ t=0
-0.7904476487769598
% es.Ey (V/m) @ t=0
0.30102991452093586
% es.Ez (V/m) @ t=0
-0.7053532375807103
% es.tEx (V/m) @ t=0
-0.7904476487769498
% es.tEy (V/m) @ t=0
0
% es.tEz (V/m) @ t=0
-0.7053532375807183
% V (V) @ t=0
0.011236387922815927
% es.normE (V/m) @ t=0.02
0.9536392641711318
% es.EX (V/m) @ t=0.02
-0.6827179979868241
% es.EY (V/m) @ t=0.02
0.2600027227791448
% es.EZ (V/m) @ t=0.02
-0.6092210546480081
% es.tEX (V/m) @ t=0.02
-0.6827179979868223
% es.tEY (V/m) @ t=0.02
0
% es.tEZ (V/m) @ t=0.02
-0.6092210546480077
% es.Ex (V/m) @ t=0.02
-0.6827179979868241
% es.Ey (V/m) @ t=0.02
0.2600027227791448
% es.Ez (V/m) @ t=0.02
-0.6092210546480081
% es.tEx (V/m) @ t=0.02
-0.6827179979868223
% es.tEy (V/m) @ t=0.02
0
% es.tEz (V/m) @ t=0.02
-0.6092210546480077
% V (V) @ t=0.02
0.009704987128655413
% es.normE (V/m) @ t=0.04
0.9624123738572762
% es.EX (V/m) @ t=0.04
-0.6889987375081204
% es.EY (V/m) @ t=0.04
0.26239464682010305
% es.EZ (V/m) @ t=0.04
-0.6148256509199523
% es.tEX (V/m) @ t=0.04
-0.6889987375081179
% es.tEY (V/m) @ t=0.04
0
% es.tEZ (V/m) @ t=0.04
-0.6148256509199514
% es.Ex (V/m) @ t=0.04
-0.6889987375081204
% es.Ey (V/m) @ t=0.04
0.26239464682010305
% es.Ez (V/m) @ t=0.04
-0.6148256509199523
% es.tEx (V/m) @ t=0.04
-0.6889987375081179
% es.tEy (V/m) @ t=0.04
0
% es.tEz (V/m) @ t=0.04
-0.6148256509199514
% V (V) @ t=0.04
0.009794269218567271
% es.normE (V/m) @ t=0.06
0.9712550389118029
% es.EX (V/m) @ t=0.06
-0.6953292728083924
% es.EY (V/m) @ t=0.06
0.2648055325508609
% es.EZ (V/m) @ t=0.06
-0.6204746822833549
% es.tEX (V/m) @ t=0.06
-0.6953292728083911
% es.tEY (V/m) @ t=0.06
0
% es.tEZ (V/m) @ t=0.06
-0.6204746822833505
% es.Ex (V/m) @ t=0.06
-0.6953292728083924
% es.Ey (V/m) @ t=0.06
0.2648055325508609
% es.Ez (V/m) @ t=0.06
-0.6204746822833549
% es.tEx (V/m) @ t=0.06
-0.6953292728083911
% es.tEy (V/m) @ t=0.06
0
% es.tEz (V/m) @ t=0.06
-0.6204746822833505
% V (V) @ t=0.06
0.009884259237976221
% es.normE (V/m) @ t=0.08
0.9802547222471617
% es.EX (V/m) @ t=0.08
-0.7017722184127404
% es.EY (V/m) @ t=0.08
0.26725922947151837
% es.EZ (V/m) @ t=0.08
-0.6262240226049096
% es.tEX (V/m) @ t=0.08
-0.7017722184127377
% es.tEY (V/m) @ t=0.08
0
% es.tEZ (V/m) @ t=0.08
-0.6262240226049167
% es.Ex (V/m) @ t=0.08
-0.7017722184127404
% es.Ey (V/m) @ t=0.08
0.26725922947151837
% es.Ez (V/m) @ t=0.08
-0.6262240226049096
% es.tEx (V/m) @ t=0.08
-0.7017722184127377
% es.tEy (V/m) @ t=0.08
0
% es.tEz (V/m) @ t=0.08
-0.6262240226049167
% V (V) @ t=0.08
0.00997584714902178
% es.normE (V/m) @ t=0.1
0.9893176863046487
% es.EX (V/m) @ t=0.1
-0.7082604670555597
% es.EY (V/m) @ t=0.1
0.2697301799437586
% es.EZ (V/m) @ t=0.1
-0.6320137889410358
% es.tEX (V/m) @ t=0.1
-0.7082604670555588
% es.tEY (V/m) @ t=0.1
0
% es.tEZ (V/m) @ t=0.1
-0.6320137889410358
% es.Ex (V/m) @ t=0.1
-0.7082604670555597
% es.Ey (V/m) @ t=0.1
0.2697301799437586
% es.Ez (V/m) @ t=0.1
-0.6320137889410358
% es.tEx (V/m) @ t=0.1
-0.7082604670555588
% es.tEy (V/m) @ t=0.1
0
% es.tEz (V/m) @ t=0.1
-0.6320137889410358
% V (V) @ t=0.1
0.01006807903436208
% es.normE (V/m) @ t=0.12
0.998380650362139
% es.EX (V/m) @ t=0.12
-0.7147487156983849
% es.EY (V/m) @ t=0.12
0.27220113041602567
% es.EZ (V/m) @ t=0.12
-0.6378035552771468
% es.tEX (V/m) @ t=0.12
-0.7147487156983878
% es.tEY (V/m) @ t=0.12
0
% es.tEZ (V/m) @ t=0.12
-0.637803555277145
% es.Ex (V/m) @ t=0.12
-0.7147487156983849
% es.Ey (V/m) @ t=0.12
0.27220113041602567
% es.Ez (V/m) @ t=0.12
-0.6378035552771468
% es.tEx (V/m) @ t=0.12
-0.7147487156983878
% es.tEy (V/m) @ t=0.12
0
% es.tEz (V/m) @ t=0.12
-0.637803555277145
% V (V) @ t=0.12
0.01016031091970238
% es.normE (V/m) @ t=0.14
1.0076460026630072
% es.EX (V/m) @ t=0.14
-0.72138185583392
% es.EY (V/m) @ t=0.14
0.27472726007881
% es.EZ (V/m) @ t=0.14
-0.6437226150291151
% es.tEX (V/m) @ t=0.14
-0.7213818558339224
% es.tEY (V/m) @ t=0.14
0
% es.tEZ (V/m) @ t=0.14
-0.6437226150291124
% es.Ex (V/m) @ t=0.14
-0.72138185583392
% es.Ey (V/m) @ t=0.14
0.27472726007881
% es.Ez (V/m) @ t=0.14
-0.6437226150291151
% es.tEx (V/m) @ t=0.14
-0.7213818558339224
% es.tEy (V/m) @ t=0.14
0
% es.tEz (V/m) @ t=0.14
-0.6437226150291124
% V (V) @ t=0.14
0.010254602486329537
% es.normE (V/m) @ t=0.16
1.0171741158505794
% es.EX (V/m) @ t=0.16
-0.7282031087593561
% es.EY (V/m) @ t=0.16
0.2773250289475353
% es.EZ (V/m) @ t=0.16
-0.6498095365699621
% es.tEX (V/m) @ t=0.16
-0.7282031087593595
% es.tEY (V/m) @ t=0.16
0
% es.tEZ (V/m) @ t=0.16
-0.6498095365699683
% es.Ex (V/m) @ t=0.16
-0.7282031087593561
% es.Ey (V/m) @ t=0.16
0.2773250289475353
% es.Ez (V/m) @ t=0.16
-0.6498095365699621
% es.tEx (V/m) @ t=0.16
-0.7282031087593595
% es.tEy (V/m) @ t=0.16
0
% es.tEz (V/m) @ t=0.16
-0.6498095365699683
% V (V) @ t=0.16
0.010351568139515257
% es.normE (V/m) @ t=0.18
1.026702229038143
% es.EX (V/m) @ t=0.18
-0.7350243616847856
% es.EY (V/m) @ t=0.18
0.27992279781624707
% es.EZ (V/m) @ t=0.18
-0.6558964581108073
% es.tEX (V/m) @ t=0.18
-0.7350243616847894
% es.tEY (V/m) @ t=0.18
0
% es.tEZ (V/m) @ t=0.18
-0.6558964581108118
% es.Ex (V/m) @ t=0.18
-0.7350243616847856
% es.Ey (V/m) @ t=0.18
0.27992279781624707
% es.Ez (V/m) @ t=0.18
-0.6558964581108073
% es.tEx (V/m) @ t=0.18
-0.7350243616847894
% es.tEy (V/m) @ t=0.18
0
% es.tEz (V/m) @ t=0.18
-0.6558964581108118
% V (V) @ t=0.18
0.010448533792700977
% es.normE (V/m) @ t=0.2
1.0362303422257089
% es.EX (V/m) @ t=0.2
-0.7418456146102217
% es.EY (V/m) @ t=0.2
0.2825205666849522
% es.EZ (V/m) @ t=0.2
-0.6619833796516552
% es.tEX (V/m) @ t=0.2
-0.7418456146102219
% es.tEY (V/m) @ t=0.2
0
% es.tEZ (V/m) @ t=0.2
-0.6619833796516517
% es.Ex (V/m) @ t=0.2
-0.7418456146102217
% es.Ey (V/m) @ t=0.2
0.2825205666849522
% es.Ez (V/m) @ t=0.2
-0.6619833796516552
% es.tEx (V/m) @ t=0.2
-0.7418456146102219
% es.tEy (V/m) @ t=0.2
0
% es.tEz (V/m) @ t=0.2
-0.6619833796516517
% V (V) @ t=0.2
0.010545499445886697
% es.normE (V/m) @ t=0.22
1.045758455413283
% es.EX (V/m) @ t=0.22
-0.7486668675356618
% es.EY (V/m) @ t=0.22
0.2851183355536657
% es.EZ (V/m) @ t=0.22
-0.6680703011925058
% es.tEX (V/m) @ t=0.22
-0.7486668675356594
% es.tEY (V/m) @ t=0.22
0
% es.tEZ (V/m) @ t=0.22
-0.6680703011925093
% es.Ex (V/m) @ t=0.22
-0.7486668675356618
% es.Ey (V/m) @ t=0.22
0.2851183355536657
% es.Ez (V/m) @ t=0.22
-0.6680703011925058
% es.tEx (V/m) @ t=0.22
-0.7486668675356594
% es.tEy (V/m) @ t=0.22
0
% es.tEz (V/m) @ t=0.22
-0.6680703011925093
% V (V) @ t=0.22
0.010642465099072419
% es.normE (V/m) @ t=0.24
1.0552865686008541
% es.EX (V/m) @ t=0.24
-0.7554881204610826
% es.EY (V/m) @ t=0.24
0.2877161044223704
% es.EZ (V/m) @ t=0.24
-0.6741572227333767
% es.tEX (V/m) @ t=0.24
-0.7554881204610746
% es.tEY (V/m) @ t=0.24
0
% es.tEZ (V/m) @ t=0.24
-0.6741572227333723
% es.Ex (V/m) @ t=0.24
-0.7554881204610826
% es.Ey (V/m) @ t=0.24
0.2877161044223704
% es.Ez (V/m) @ t=0.24
-0.6741572227333767
% es.tEx (V/m) @ t=0.24
-0.7554881204610746
% es.tEy (V/m) @ t=0.24
0
% es.tEz (V/m) @ t=0.24
-0.6741572227333723
% V (V) @ t=0.24
0.010739430752258137
% es.normE (V/m) @ t=0.26
1.0648146817884239
% es.EX (V/m) @ t=0.26
-0.7623093733865234
% es.EY (V/m) @ t=0.26
0.29031387329107794
% es.EZ (V/m) @ t=0.26
-0.6802441442742229
% es.tEX (V/m) @ t=0.26
-0.7623093733865147
% es.tEY (V/m) @ t=0.26
0
% es.tEZ (V/m) @ t=0.26
-0.6802441442742211
% es.Ex (V/m) @ t=0.26
-0.7623093733865234
% es.Ey (V/m) @ t=0.26
0.29031387329107794
% es.Ez (V/m) @ t=0.26
-0.6802441442742229
% es.tEx (V/m) @ t=0.26
-0.7623093733865147
% es.tEy (V/m) @ t=0.26
0
% es.tEz (V/m) @ t=0.26
-0.6802441442742211
% V (V) @ t=0.26
0.010836396405443857
% es.normE (V/m) @ t=0.28
1.0752591234566926
% es.EX (V/m) @ t=0.28
-0.769786640973406
% es.EY (V/m) @ t=0.28
0.29316144541122524
% es.EZ (V/m) @ t=0.28
-0.6869164564876007
% es.tEX (V/m) @ t=0.28
-0.769786640973404
% es.tEY (V/m) @ t=0.28
0
% es.tEZ (V/m) @ t=0.28
-0.6869164564875998
% es.Ex (V/m) @ t=0.28
-0.769786640973406
% es.Ey (V/m) @ t=0.28
0.29316144541122524
% es.Ez (V/m) @ t=0.28
-0.6869164564876007
% es.tEx (V/m) @ t=0.28
-0.769786640973404
% es.tEy (V/m) @ t=0.28
0
% es.tEz (V/m) @ t=0.28
-0.6869164564875998
% V (V) @ t=0.28
0.010942688457242044
% es.normE (V/m) @ t=0.3
1.0858287433293583
% es.EX (V/m) @ t=0.3
-0.7773535256998909
% es.EY (V/m) @ t=0.3
0.2960431427639194
% es.EZ (V/m) @ t=0.3
-0.6936687380076076
% es.tEX (V/m) @ t=0.3
-0.7773535256998927
% es.tEY (V/m) @ t=0.3
0
% es.tEZ (V/m) @ t=0.3
-0.6936687380076112
% es.Ex (V/m) @ t=0.3
-0.7773535256998909
% es.Ey (V/m) @ t=0.3
0.2960431427639194
% es.Ez (V/m) @ t=0.3
-0.6936687380076076
% es.tEx (V/m) @ t=0.3
-0.7773535256998927
% es.tEy (V/m) @ t=0.3
0
% es.tEz (V/m) @ t=0.3
-0.6936687380076112
% V (V) @ t=0.3
0.011050254573806637
% es.normE (V/m) @ t=0.32
1.0963983632020387
% es.EX (V/m) @ t=0.32
-0.7849204104263836
% es.EY (V/m) @ t=0.32
0.29892484011660847
% es.EZ (V/m) @ t=0.32
-0.7004210195276279
% es.tEX (V/m) @ t=0.32
-0.7849204104263738
% es.tEY (V/m) @ t=0.32
0
% es.tEZ (V/m) @ t=0.32
-0.7004210195276226
% es.Ex (V/m) @ t=0.32
-0.7849204104263836
% es.Ey (V/m) @ t=0.32
0.29892484011660847
% es.Ez (V/m) @ t=0.32
-0.7004210195276279
% es.tEx (V/m) @ t=0.32
-0.7849204104263738
% es.tEy (V/m) @ t=0.32
0
% es.tEz (V/m) @ t=0.32
-0.7004210195276226
% V (V) @ t=0.32
0.011157820690371231
% es.normE (V/m) @ t=0.34
1.1069679830747061
% es.EX (V/m) @ t=0.34
-0.7924872951528623
% es.EY (V/m) @ t=0.34
0.30180653746928066
% es.EZ (V/m) @ t=0.34
-0.70717330104765
% es.tEX (V/m) @ t=0.34
-0.7924872951528616
% es.tEY (V/m) @ t=0.34
0
% es.tEZ (V/m) @ t=0.34
-0.7071733010476535
% es.Ex (V/m) @ t=0.34
-0.7924872951528623
% es.Ey (V/m) @ t=0.34
0.30180653746928066
% es.Ez (V/m) @ t=0.34
-0.70717330104765
% es.tEx (V/m) @ t=0.34
-0.7924872951528616
% es.tEy (V/m) @ t=0.34
0
% es.tEz (V/m) @ t=0.34
-0.7071733010476535
% V (V) @ t=0.34
0.011265386806935828
% es.normE (V/m) @ t=0.36
1.1175376029473805
% es.EX (V/m) @ t=0.36
-0.8000541798793537
% es.EY (V/m) @ t=0.36
0.3046882348219595
% es.EZ (V/m) @ t=0.36
-0.7139255825676649
% es.tEX (V/m) @ t=0.36
-0.8000541798793432
% es.tEY (V/m) @ t=0.36
0
% es.tEZ (V/m) @ t=0.36
-0.7139255825676738
% es.Ex (V/m) @ t=0.36
-0.8000541798793537
% es.Ey (V/m) @ t=0.36
0.3046882348219595
% es.Ez (V/m) @ t=0.36
-0.7139255825676649
% es.tEx (V/m) @ t=0.36
-0.8000541798793432
% es.tEy (V/m) @ t=0.36
0
% es.tEz (V/m) @ t=0.36
-0.7139255825676738
% V (V) @ t=0.36
0.01137295292350042
% es.normE (V/m) @ t=0.38
1.1281072228200522
% es.EX (V/m) @ t=0.38
-0.8076210646058362
% es.EY (V/m) @ t=0.38
0.30756993217464124
% es.EZ (V/m) @ t=0.38
-0.720677864087679
% es.tEX (V/m) @ t=0.38
-0.8076210646058355
% es.tEY (V/m) @ t=0.38
0
% es.tEZ (V/m) @ t=0.38
-0.7206778640876781
% es.Ex (V/m) @ t=0.38
-0.8076210646058362
% es.Ey (V/m) @ t=0.38
0.30756993217464124
% es.Ez (V/m) @ t=0.38
-0.720677864087679
% es.tEx (V/m) @ t=0.38
-0.8076210646058355
% es.tEy (V/m) @ t=0.38
0
% es.tEz (V/m) @ t=0.38
-0.7206778640876781
% V (V) @ t=0.38
0.011480519040065014
% es.normE (V/m) @ t=0.4
1.138676842692735
% es.EX (V/m) @ t=0.4
-0.8151879493323204
% es.EY (V/m) @ t=0.4
0.31045162952733785
% es.EZ (V/m) @ t=0.4
-0.727430145607701
% es.tEX (V/m) @ t=0.4
-0.8151879493323166
% es.tEY (V/m) @ t=0.4
0
% es.tEZ (V/m) @ t=0.4
-0.7274301456076984
% es.Ex (V/m) @ t=0.4
-0.8151879493323204
% es.Ey (V/m) @ t=0.4
0.31045162952733785
% es.Ez (V/m) @ t=0.4
-0.727430145607701
% es.tEx (V/m) @ t=0.4
-0.8151879493323166
% es.tEy (V/m) @ t=0.4
0
% es.tEz (V/m) @ t=0.4
-0.7274301456076984
% V (V) @ t=0.4
0.011588085156629608
% es.normE (V/m) @ t=0.42
1.1492464625654062
% es.EX (V/m) @ t=0.42
-0.8227548340588087
% es.EY (V/m) @ t=0.42
0.31333332687998605
% es.EZ (V/m) @ t=0.42
-0.7341824271277213
% es.tEX (V/m) @ t=0.42
-0.8227548340588124
% es.tEY (V/m) @ t=0.42
0
% es.tEZ (V/m) @ t=0.42
-0.7341824271277169
% es.Ex (V/m) @ t=0.42
-0.8227548340588087
% es.Ey (V/m) @ t=0.42
0.31333332687998605
% es.Ez (V/m) @ t=0.42
-0.7341824271277213
% es.tEx (V/m) @ t=0.42
-0.8227548340588124
% es.tEy (V/m) @ t=0.42
0
% es.tEz (V/m) @ t=0.42
-0.7341824271277169
% V (V) @ t=0.42
0.011695651273194201
% es.normE (V/m) @ t=0.44
1.159816082438096
% es.EX (V/m) @ t=0.44
-0.830321718785308
% es.EY (V/m) @ t=0.44
0.3162150242326942
% es.EZ (V/m) @ t=0.44
-0.7409347086477283
% es.tEX (V/m) @ t=0.44
-0.8303217187853149
% es.tEY (V/m) @ t=0.44
0
% es.tEZ (V/m) @ t=0.44
-0.7409347086477283
% es.Ex (V/m) @ t=0.44
-0.830321718785308
% es.Ey (V/m) @ t=0.44
0.3162150242326942
% es.Ez (V/m) @ t=0.44
-0.7409347086477283
% es.tEx (V/m) @ t=0.44
-0.8303217187853149
% es.tEy (V/m) @ t=0.44
0
% es.tEz (V/m) @ t=0.44
-0.7409347086477283
% V (V) @ t=0.44
0.011803217389758798
% es.normE (V/m) @ t=0.46
1.1703857023107738
% es.EX (V/m) @ t=0.46
-0.8378886035117878
% es.EY (V/m) @ t=0.46
0.3190967215853713
% es.EZ (V/m) @ t=0.46
-0.7476869901677521
% es.tEX (V/m) @ t=0.46
-0.8378886035117818
% es.tEY (V/m) @ t=0.46
0
% es.tEZ (V/m) @ t=0.46
-0.7476869901677485
% es.Ex (V/m) @ t=0.46
-0.8378886035117878
% es.Ey (V/m) @ t=0.46
0.3190967215853713
% es.Ez (V/m) @ t=0.46
-0.7476869901677521
% es.tEx (V/m) @ t=0.46
-0.8378886035117818
% es.tEy (V/m) @ t=0.46
0
% es.tEz (V/m) @ t=0.46
-0.7476869901677485
% V (V) @ t=0.46
0.01191078350632339
% es.normE (V/m) @ t=0.48
1.1809553221834483
% es.EX (V/m) @ t=0.48
-0.8454554882382708
% es.EY (V/m) @ t=0.48
0.32197841893805856
% es.EZ (V/m) @ t=0.48
-0.754439271687759
% es.tEX (V/m) @ t=0.48
-0.8454554882382785
% es.tEY (V/m) @ t=0.48
0
% es.tEZ (V/m) @ t=0.48
-0.7544392716877653
% es.Ex (V/m) @ t=0.48
-0.8454554882382708
% es.Ey (V/m) @ t=0.48
0.32197841893805856
% es.Ez (V/m) @ t=0.48
-0.754439271687759
% es.tEx (V/m) @ t=0.48
-0.8454554882382785
% es.tEy (V/m) @ t=0.48
0
% es.tEz (V/m) @ t=0.48
-0.7544392716877653
% V (V) @ t=0.48
0.012018349622887984
% es.normE (V/m) @ t=0.5
1.1915249420561336
% es.EX (V/m) @ t=0.5
-0.8530223729647595
% es.EY (V/m) @ t=0.5
0.3248601162907305
% es.EZ (V/m) @ t=0.5
-0.7611915532077802
% es.tEX (V/m) @ t=0.5
-0.8530223729647557
% es.tEY (V/m) @ t=0.5
0
% es.tEZ (V/m) @ t=0.5
-0.7611915532077926
% es.Ex (V/m) @ t=0.5
-0.8530223729647595
% es.Ey (V/m) @ t=0.5
0.3248601162907305
% es.Ez (V/m) @ t=0.5
-0.7611915532077802
% es.tEx (V/m) @ t=0.5
-0.8530223729647557
% es.tEy (V/m) @ t=0.5
0
% es.tEz (V/m) @ t=0.5
-0.7611915532077926
% V (V) @ t=0.5
0.01212591573945258
% es.normE (V/m) @ t=0.52
1.2020945619288148
% es.EX (V/m) @ t=0.52
-0.8605892576912375
% es.EY (V/m) @ t=0.52
0.32774181364341803
% es.EZ (V/m) @ t=0.52
-0.7679438347278014
% es.tEX (V/m) @ t=0.52
-0.8605892576912444
% es.tEY (V/m) @ t=0.52
0
% es.tEZ (V/m) @ t=0.52
-0.767943834727804
% es.Ex (V/m) @ t=0.52
-0.8605892576912375
% es.Ey (V/m) @ t=0.52
0.32774181364341803
% es.Ez (V/m) @ t=0.52
-0.7679438347278014
% es.tEx (V/m) @ t=0.52
-0.8605892576912444
% es.tEy (V/m) @ t=0.52
0
% es.tEz (V/m) @ t=0.52
-0.767943834727804
% V (V) @ t=0.52
0.012233481856017173
% es.normE (V/m) @ t=0.54
1.2135677865605092
% es.EX (V/m) @ t=0.54
-0.8688030382640399
% es.EY (V/m) @ t=0.54
0.3308698785011961
% es.EZ (V/m) @ t=0.54
-0.775273372438078
% es.tEX (V/m) @ t=0.54
-0.8688030382640379
% es.tEY (V/m) @ t=0.54
0
% es.tEZ (V/m) @ t=0.54
-0.7752733724380771
% es.Ex (V/m) @ t=0.54
-0.8688030382640399
% es.Ey (V/m) @ t=0.54
0.3308698785011961
% es.Ez (V/m) @ t=0.54
-0.775273372438078
% es.tEx (V/m) @ t=0.54
-0.8688030382640379
% es.tEy (V/m) @ t=0.54
0
% es.tEz (V/m) @ t=0.54
-0.7752733724380771
% V (V) @ t=0.54
0.01235024347960236
% es.normE (V/m) @ t=0.56
1.225312103857694
% es.EX (V/m) @ t=0.56
-0.8772108956359177
% es.EY (V/m) @ t=0.56
0.33407185667449957
% es.EZ (V/m) @ t=0.56
-0.7827760941845581
% es.tEX (V/m) @ t=0.56
-0.8772108956359177
% es.tEY (V/m) @ t=0.56
0
% es.tEZ (V/m) @ t=0.56
-0.782776094184559
% es.Ex (V/m) @ t=0.56
-0.8772108956359177
% es.Ey (V/m) @ t=0.56
0.33407185667449957
% es.Ez (V/m) @ t=0.56
-0.7827760941845581
% es.tEx (V/m) @ t=0.56
-0.8772108956359177
% es.tEy (V/m) @ t=0.56
0
% es.tEz (V/m) @ t=0.56
-0.782776094184559
% V (V) @ t=0.56
0.012469763869654761
% es.normE (V/m) @ t=0.58
1.2370564211548745
% es.EX (V/m) @ t=0.58
-0.8856187530078128
% es.EY (V/m) @ t=0.58
0.33727383484778795
% es.EZ (V/m) @ t=0.58
-0.7902788159310168
% es.tEX (V/m) @ t=0.58
-0.8856187530078077
% es.tEY (V/m) @ t=0.58
0
% es.tEZ (V/m) @ t=0.58
-0.7902788159310266
% es.Ex (V/m) @ t=0.58
-0.8856187530078128
% es.Ey (V/m) @ t=0.58
0.33727383484778795
% es.Ez (V/m) @ t=0.58
-0.7902788159310168
% es.tEx (V/m) @ t=0.58
-0.8856187530078077
% es.tEy (V/m) @ t=0.58
0
% es.tEz (V/m) @ t=0.58
-0.7902788159310266
% V (V) @ t=0.58
0.012589284259707161
% es.normE (V/m) @ t=0.6
1.2488007384520596
% es.EX (V/m) @ t=0.6
-0.8940266103796823
% es.EY (V/m) @ t=0.6
0.3404758130210923
% es.EZ (V/m) @ t=0.6
-0.7977815376775013
% es.tEX (V/m) @ t=0.6
-0.8940266103796803
% es.tEY (V/m) @ t=0.6
0
% es.tEZ (V/m) @ t=0.6
-0.7977815376775101
% es.Ex (V/m) @ t=0.6
-0.8940266103796823
% es.Ey (V/m) @ t=0.6
0.3404758130210923
% es.Ez (V/m) @ t=0.6
-0.7977815376775013
% es.tEx (V/m) @ t=0.6
-0.8940266103796803
% es.tEy (V/m) @ t=0.6
0
% es.tEz (V/m) @ t=0.6
-0.7977815376775101
% V (V) @ t=0.6
0.012708804649759563
% es.normE (V/m) @ t=0.62
1.260545055749244
% es.EX (V/m) @ t=0.62
-0.9024344677515743
% es.EY (V/m) @ t=0.62
0.34367779119438335
% es.EZ (V/m) @ t=0.62
-0.805284259423968
% es.tEX (V/m) @ t=0.62
-0.9024344677515672
% es.tEY (V/m) @ t=0.62
0
% es.tEZ (V/m) @ t=0.62
-0.8052842594239777
% es.Ex (V/m) @ t=0.62
-0.9024344677515743
% es.Ey (V/m) @ t=0.62
0.34367779119438335
% es.Ez (V/m) @ t=0.62
-0.805284259423968
% es.tEx (V/m) @ t=0.62
-0.9024344677515672
% es.tEy (V/m) @ t=0.62
0
% es.tEz (V/m) @ t=0.62
-0.8052842594239777
% V (V) @ t=0.62
0.012828325039811968
% es.normE (V/m) @ t=0.64
1.2722893730464246
% es.EX (V/m) @ t=0.64
-0.910842325123445
% es.EY (V/m) @ t=0.64
0.3468797693676615
% es.EZ (V/m) @ t=0.64
-0.812786981170456
% es.tEX (V/m) @ t=0.64
-0.910842325123447
% es.tEY (V/m) @ t=0.64
0
% es.tEZ (V/m) @ t=0.64
-0.8127869811704542
% es.Ex (V/m) @ t=0.64
-0.910842325123445
% es.Ey (V/m) @ t=0.64
0.3468797693676615
% es.Ez (V/m) @ t=0.64
-0.812786981170456
% es.tEx (V/m) @ t=0.64
-0.910842325123447
% es.tEy (V/m) @ t=0.64
0
% es.tEz (V/m) @ t=0.64
-0.8127869811704542
% V (V) @ t=0.64
0.012947845429864368
% es.normE (V/m) @ t=0.66
1.2840336903436218
% es.EX (V/m) @ t=0.66
-0.9192501824953443
% es.EY (V/m) @ t=0.66
0.35008174754097654
% es.EZ (V/m) @ t=0.66
-0.8202897029169236
% es.tEX (V/m) @ t=0.66
-0.9192501824953476
% es.tEY (V/m) @ t=0.66
0
% es.tEZ (V/m) @ t=0.66
-0.8202897029169218
% es.Ex (V/m) @ t=0.66
-0.9192501824953443
% es.Ey (V/m) @ t=0.66
0.35008174754097654
% es.Ez (V/m) @ t=0.66
-0.8202897029169236
% es.tEx (V/m) @ t=0.66
-0.9192501824953476
% es.tEy (V/m) @ t=0.66
0
% es.tEz (V/m) @ t=0.66
-0.8202897029169218
% V (V) @ t=0.66
0.013067365819916773
% es.normE (V/m) @ t=0.68
1.2957780076408034
% es.EX (V/m) @ t=0.68
-0.9276580398672183
% es.EY (V/m) @ t=0.68
0.3532837257142649
% es.EZ (V/m) @ t=0.68
-0.8277924246634036
% es.tEX (V/m) @ t=0.68
-0.9276580398672234
% es.tEY (V/m) @ t=0.68
0
% es.tEZ (V/m) @ t=0.68
-0.8277924246634036
% es.Ex (V/m) @ t=0.68
-0.9276580398672183
% es.Ey (V/m) @ t=0.68
0.3532837257142649
% es.Ez (V/m) @ t=0.68
-0.8277924246634036
% es.tEx (V/m) @ t=0.68
-0.9276580398672234
% es.tEy (V/m) @ t=0.68
0
% es.tEz (V/m) @ t=0.68
-0.8277924246634036
% V (V) @ t=0.68
0.013186886209969172
% es.normE (V/m) @ t=0.7
1.307522324937997
% es.EX (V/m) @ t=0.7
-0.9360658972391047
% es.EY (V/m) @ t=0.7
0.3564857038875635
% es.EZ (V/m) @ t=0.7
-0.8352951464098837
% es.tEX (V/m) @ t=0.7
-0.9360658972390996
% es.tEY (V/m) @ t=0.7
0
% es.tEZ (V/m) @ t=0.7
-0.8352951464098783
% es.Ex (V/m) @ t=0.7
-0.9360658972391047
% es.Ey (V/m) @ t=0.7
0.3564857038875635
% es.Ez (V/m) @ t=0.7
-0.8352951464098837
% es.tEx (V/m) @ t=0.7
-0.9360658972390996
% es.tEy (V/m) @ t=0.7
0
% es.tEz (V/m) @ t=0.7
-0.8352951464098783
% V (V) @ t=0.7
0.013306406600021574
% es.normE (V/m) @ t=0.72
1.3192666422351713
% es.EX (V/m) @ t=0.72
-0.9444737546109867
% es.EY (V/m) @ t=0.72
0.359687682060839
% es.EZ (V/m) @ t=0.72
-0.8427978681563468
% es.tEX (V/m) @ t=0.72
-0.9444737546109829
% es.tEY (V/m) @ t=0.72
0
% es.tEZ (V/m) @ t=0.72
-0.8427978681563548
% es.Ex (V/m) @ t=0.72
-0.9444737546109867
% es.Ey (V/m) @ t=0.72
0.359687682060839
% es.Ez (V/m) @ t=0.72
-0.8427978681563468
% es.tEx (V/m) @ t=0.72
-0.9444737546109829
% es.tEy (V/m) @ t=0.72
0
% es.tEz (V/m) @ t=0.72
-0.8427978681563548
% V (V) @ t=0.72
0.013425926990073977
% es.normE (V/m) @ t=0.74
1.331010959532362
% es.EX (V/m) @ t=0.74
-0.9528816119828574
% es.EY (V/m) @ t=0.74
0.3628896602341394
% es.EZ (V/m) @ t=0.74
-0.8503005899028384
% es.tEX (V/m) @ t=0.74
-0.9528816119828485
% es.tEY (V/m) @ t=0.74
0
% es.tEZ (V/m) @ t=0.74
-0.8503005899028366
% es.Ex (V/m) @ t=0.74
-0.9528816119828574
% es.Ey (V/m) @ t=0.74
0.3628896602341394
% es.Ez (V/m) @ t=0.74
-0.8503005899028384
% es.tEx (V/m) @ t=0.74
-0.9528816119828485
% es.tEy (V/m) @ t=0.74
0
% es.tEz (V/m) @ t=0.74
-0.8503005899028366
% V (V) @ t=0.74
0.013545447380126377
% es.normE (V/m) @ t=0.76
1.3427552768295437
% es.EX (V/m) @ t=0.76
-0.9612894693547529
% es.EY (V/m) @ t=0.76
0.366091638407426
% es.EZ (V/m) @ t=0.76
-0.8578033116492945
% es.tEX (V/m) @ t=0.76
-0.9612894693547527
% es.tEY (V/m) @ t=0.76
0
% es.tEZ (V/m) @ t=0.76
-0.8578033116492989
% es.Ex (V/m) @ t=0.76
-0.9612894693547529
% es.Ey (V/m) @ t=0.76
0.366091638407426
% es.Ez (V/m) @ t=0.76
-0.8578033116492945
% es.tEx (V/m) @ t=0.76
-0.9612894693547527
% es.tEy (V/m) @ t=0.76
0
% es.tEz (V/m) @ t=0.76
-0.8578033116492989
% V (V) @ t=0.76
0.01366496777017878
% es.normE (V/m) @ t=0.78
1.3544995941267386
% es.EX (V/m) @ t=0.78
-0.9696973267266291
% es.EY (V/m) @ t=0.78
0.36929361658072724
% es.EZ (V/m) @ t=0.78
-0.865306033395786
% es.tEX (V/m) @ t=0.78
-0.9696973267266289
% es.tEY (V/m) @ t=0.78
0
% es.tEZ (V/m) @ t=0.78
-0.8653060333957807
% es.Ex (V/m) @ t=0.78
-0.9696973267266291
% es.Ey (V/m) @ t=0.78
0.36929361658072724
% es.Ez (V/m) @ t=0.78
-0.865306033395786
% es.tEx (V/m) @ t=0.78
-0.9696973267266289
% es.tEy (V/m) @ t=0.78
0
% es.tEz (V/m) @ t=0.78
-0.8653060333957807
% V (V) @ t=0.78
0.01378448816023118
% es.normE (V/m) @ t=0.8
1.3671180945484476
% es.EX (V/m) @ t=0.8
-0.9787310170917249
% es.EY (V/m) @ t=0.8
0.3727339405189629
% es.EZ (V/m) @ t=0.8
-0.873367215333599
% es.tEX (V/m) @ t=0.8
-0.9787310170917198
% es.tEY (V/m) @ t=0.8
0
% es.tEZ (V/m) @ t=0.8
-0.8733672153336034
% es.Ex (V/m) @ t=0.8
-0.9787310170917249
% es.Ey (V/m) @ t=0.8
0.3727339405189629
% es.Ez (V/m) @ t=0.8
-0.873367215333599
% es.tEx (V/m) @ t=0.8
-0.9787310170917198
% es.tEy (V/m) @ t=0.8
0
% es.tEz (V/m) @ t=0.8
-0.8733672153336034
% V (V) @ t=0.8
0.013912904681092497
% es.normE (V/m) @ t=0.82
1.3801896740240516
% es.EX (V/m) @ t=0.82
-0.98808906949551
% es.EY (V/m) @ t=0.82
0.37629779632443094
% es.EZ (V/m) @ t=0.82
-0.8817178407621906
% es.tEX (V/m) @ t=0.82
-0.9880890694955133
% es.tEY (V/m) @ t=0.82
0
% es.tEZ (V/m) @ t=0.82
-0.8817178407622013
% es.Ex (V/m) @ t=0.82
-0.98808906949551
% es.Ey (V/m) @ t=0.82
0.37629779632443094
% es.Ez (V/m) @ t=0.82
-0.8817178407621906
% es.tEx (V/m) @ t=0.82
-0.9880890694955133
% es.tEy (V/m) @ t=0.82
0
% es.tEz (V/m) @ t=0.82
-0.8817178407622013
% V (V) @ t=0.82
0.014045931964180988
% es.normE (V/m) @ t=0.84
1.3932612534996576
% es.EX (V/m) @ t=0.84
-0.9974471218992826
% es.EY (V/m) @ t=0.84
0.3798616521299083
% es.EZ (V/m) @ t=0.84
-0.8900684661907903
% es.tEX (V/m) @ t=0.84
-0.9974471218992815
% es.tEY (V/m) @ t=0.84
0
% es.tEZ (V/m) @ t=0.84
-0.8900684661907956
% es.Ex (V/m) @ t=0.84
-0.9974471218992826
% es.Ey (V/m) @ t=0.84
0.3798616521299083
% es.Ez (V/m) @ t=0.84
-0.8900684661907903
% es.tEx (V/m) @ t=0.84
-0.9974471218992815
% es.tEy (V/m) @ t=0.84
0
% es.tEz (V/m) @ t=0.84
-0.8900684661907956
% V (V) @ t=0.84
0.014178959247269477
% es.normE (V/m) @ t=0.86
1.4063328329752727
% es.EX (V/m) @ t=0.86
-1.0068051743030815
% es.EY (V/m) @ t=0.86
0.3834255079353941
% es.EZ (V/m) @ t=0.86
-0.8984190916193757
% es.tEX (V/m) @ t=0.86
-1.0068051743030866
% es.tEY (V/m) @ t=0.86
0
% es.tEZ (V/m) @ t=0.86
-0.8984190916193722
% es.Ex (V/m) @ t=0.86
-1.0068051743030815
% es.Ey (V/m) @ t=0.86
0.3834255079353941
% es.Ez (V/m) @ t=0.86
-0.8984190916193757
% es.tEx (V/m) @ t=0.86
-1.0068051743030866
% es.tEy (V/m) @ t=0.86
0
% es.tEz (V/m) @ t=0.86
-0.8984190916193722
% V (V) @ t=0.86
0.014311986530357965
% es.normE (V/m) @ t=0.88
1.419404412450879
% es.EX (V/m) @ t=0.88
-1.016163226706859
% es.EY (V/m) @ t=0.88
0.3869893637408657
% es.EZ (V/m) @ t=0.88
-0.9067697170479754
% es.tEX (V/m) @ t=0.88
-1.0161632267068588
% es.tEY (V/m) @ t=0.88
0
% es.tEZ (V/m) @ t=0.88
-0.9067697170479772
% es.Ex (V/m) @ t=0.88
-1.016163226706859
% es.Ey (V/m) @ t=0.88
0.3869893637408657
% es.Ez (V/m) @ t=0.88
-0.9067697170479754
% es.tEx (V/m) @ t=0.88
-1.0161632267068588
% es.tEy (V/m) @ t=0.88
0
% es.tEz (V/m) @ t=0.88
-0.9067697170479772
% V (V) @ t=0.88
0.014445013813446454
% es.normE (V/m) @ t=0.9
1.432475991926474
% es.EX (V/m) @ t=0.9
-1.025521279110633
% es.EY (V/m) @ t=0.9
0.39055321954633726
% es.EZ (V/m) @ t=0.9
-0.9151203424765608
% es.tEX (V/m) @ t=0.9
-1.025521279110635
% es.tEY (V/m) @ t=0.9
0
% es.tEZ (V/m) @ t=0.9
-0.9151203424765626
% es.Ex (V/m) @ t=0.9
-1.025521279110633
% es.Ey (V/m) @ t=0.9
0.39055321954633726
% es.Ez (V/m) @ t=0.9
-0.9151203424765608
% es.tEx (V/m) @ t=0.9
-1.025521279110635
% es.tEy (V/m) @ t=0.9
0
% es.tEz (V/m) @ t=0.9
-0.9151203424765626
% V (V) @ t=0.9
0.01457804109653494
% es.normE (V/m) @ t=0.92
1.445547571402078
% es.EX (V/m) @ t=0.92
-1.034879331514418
% es.EY (V/m) @ t=0.92
0.39411707535180884
% es.EZ (V/m) @ t=0.92
-0.9234709679051498
% es.tEX (V/m) @ t=0.92
-1.0348793315144142
% es.tEY (V/m) @ t=0.92
0
% es.tEZ (V/m) @ t=0.92
-0.9234709679051534
% es.Ex (V/m) @ t=0.92
-1.034879331514418
% es.Ey (V/m) @ t=0.92
0.39411707535180884
% es.Ez (V/m) @ t=0.92
-0.9234709679051498
% es.tEx (V/m) @ t=0.92
-1.0348793315144142
% es.tEy (V/m) @ t=0.92
0
% es.tEz (V/m) @ t=0.92
-0.9234709679051534
% V (V) @ t=0.92
0.014711068379623434
% es.normE (V/m) @ t=0.94
1.4586191508776885
% es.EX (V/m) @ t=0.94
-1.0442373839182026
% es.EY (V/m) @ t=0.94
0.39768093115727776
% es.EZ (V/m) @ t=0.94
-0.9318215933337495
% es.tEX (V/m) @ t=0.94
-1.0442373839182069
% es.tEY (V/m) @ t=0.94
0
% es.tEZ (V/m) @ t=0.94
-0.9318215933337601
% es.Ex (V/m) @ t=0.94
-1.0442373839182026
% es.Ey (V/m) @ t=0.94
0.39768093115727776
% es.Ez (V/m) @ t=0.94
-0.9318215933337495
% es.tEx (V/m) @ t=0.94
-1.0442373839182069
% es.tEy (V/m) @ t=0.94
0
% es.tEz (V/m) @ t=0.94
-0.9318215933337601
% V (V) @ t=0.94
0.01484409566271192
% es.normE (V/m) @ t=0.96
1.4716907303532896
% es.EX (V/m) @ t=0.96
-1.053595436321986
% es.EY (V/m) @ t=0.96
0.401244786962756
% es.EZ (V/m) @ t=0.96
-0.9401722187623331
% es.tEX (V/m) @ t=0.96
-1.053595436321984
% es.tEY (V/m) @ t=0.96
0
% es.tEZ (V/m) @ t=0.96
-0.9401722187623385
% es.Ex (V/m) @ t=0.96
-1.053595436321986
% es.Ey (V/m) @ t=0.96
0.401244786962756
% es.Ez (V/m) @ t=0.96
-0.9401722187623331
% es.tEx (V/m) @ t=0.96
-1.053595436321984
% es.tEy (V/m) @ t=0.96
0
% es.tEz (V/m) @ t=0.96
-0.9401722187623385
% V (V) @ t=0.96
0.014977122945800406
% es.normE (V/m) @ t=0.98
1.4847623098289073
% es.EX (V/m) @ t=0.98
-1.062953488725774
% es.EY (V/m) @ t=0.98
0.40480864276824535
% es.EZ (V/m) @ t=0.98
-0.948522844190931
% es.tEX (V/m) @ t=0.98
-1.0629534887257739
% es.tEY (V/m) @ t=0.98
0
% es.tEZ (V/m) @ t=0.98
-0.9485228441909292
% es.Ex (V/m) @ t=0.98
-1.062953488725774
% es.Ey (V/m) @ t=0.98
0.40480864276824535
% es.Ez (V/m) @ t=0.98
-0.948522844190931
% es.tEx (V/m) @ t=0.98
-1.0629534887257739
% es.tEy (V/m) @ t=0.98
0
% es.tEz (V/m) @ t=0.98
-0.9485228441909292
% V (V) @ t=0.98
0.0151101502288889
% es.normE (V/m) @ t=1
1.497833889304507
% es.EX (V/m) @ t=1
-1.0723115411295445
% es.EY (V/m) @ t=1
0.4083724985737205
% es.EZ (V/m) @ t=1
-0.9568734696195271
% es.tEX (V/m) @ t=1
-1.0723115411295452
% es.tEY (V/m) @ t=1
0
% es.tEZ (V/m) @ t=1
-0.9568734696195342
% es.Ex (V/m) @ t=1
-1.0723115411295445
% es.Ey (V/m) @ t=1
0.4083724985737205
% es.Ez (V/m) @ t=1
-0.9568734696195271
% es.tEx (V/m) @ t=1
-1.0723115411295452
% es.tEy (V/m) @ t=1
0
% es.tEz (V/m) @ t=1
-0.9568734696195342
% V (V) @ t=1
0.015243177511977386
% es.normE (V/m) @ t=1.02
1.510905468780117
% es.EX (V/m) @ t=1.02
-1.0816695935333362
% es.EY (V/m) @ t=1.02
0.4119363543791823
% es.EZ (V/m) @ t=1.02
-0.9652240950481188
% es.tEX (V/m) @ t=1.02
-1.0816695935333316
% es.tEY (V/m) @ t=1.02
0
% es.tEZ (V/m) @ t=1.02
-0.965224095048125
% es.Ex (V/m) @ t=1.02
-1.0816695935333362
% es.Ey (V/m) @ t=1.02
0.4119363543791823
% es.Ez (V/m) @ t=1.02
-0.9652240950481188
% es.tEx (V/m) @ t=1.02
-1.0816695935333316
% es.tEy (V/m) @ t=1.02
0
% es.tEz (V/m) @ t=1.02
-0.965224095048125
% V (V) @ t=1.02
0.015376204795065875
% es.normE (V/m) @ t=1.04
1.5239770482557073