% Model:              1 neuron.mph
% Version:            COMSOL 6.0.0.405
% Date:               Mar 16 2023, 18:24
% Dimension:          0
% Nodes:              14017
% Expressions:        14017
% Description:        Electric field norm, Electric field, X component, Electric field, Y component, Electric field, Z component, Tangential electric field, X component, Tangential electric field, Y component, Tangential electric field, Z component, Electric field, x component, Electric field, y component, Electric field, z component, Tangential electric field, x component, Tangential electric field, y component, Tangential electric field, z component, Electric potential
% Length unit:        mm
% x
2
% y
12.2
% z
1.6599999999999997
% es.normE (V/m) @ t=0
1.8933264998140977
% es.EX (V/m) @ t=0
-1.8294539215718952
% es.EY (V/m) @ t=0
0.14093496648973225
% es.EZ (V/m) @ t=0
-0.4662790120232625
% es.tEX (V/m) @ t=0
-1.8294539215718864
% es.tEY (V/m) @ t=0
0
% es.tEZ (V/m) @ t=0
-0.4662790120232625
% es.Ex (V/m) @ t=0
-1.8294539215718952
% es.Ey (V/m) @ t=0
0.14093496648973225
% es.Ez (V/m) @ t=0
-0.4662790120232625
% es.tEx (V/m) @ t=0
-1.8294539215718864
% es.tEy (V/m) @ t=0
0
% es.tEz (V/m) @ t=0
-0.4662790120232625
% V (V) @ t=0
0.010972212795175466
% es.normE (V/m) @ t=0.02
1.635300022374929
% es.EX (V/m) @ t=0.02
-1.5801321317269839
% es.EY (V/m) @ t=0.02
0.12172805701994371
% es.EZ (V/m) @ t=0.02
-0.4027335384648736
% es.tEX (V/m) @ t=0.02
-1.580132131726959
% es.tEY (V/m) @ t=0.02
0
% es.tEZ (V/m) @ t=0.02
-0.40273353846487403
% es.Ex (V/m) @ t=0.02
-1.5801321317269839
% es.Ey (V/m) @ t=0.02
0.12172805701994371
% es.Ez (V/m) @ t=0.02
-0.4027335384648736
% es.tEx (V/m) @ t=0.02
-1.580132131726959
% es.tEy (V/m) @ t=0.02
0
% es.tEz (V/m) @ t=0.02
-0.40273353846487403
% V (V) @ t=0.02
0.009476896765482676
% es.normE (V/m) @ t=0.04
1.650341306541818
% es.EX (V/m) @ t=0.04
-1.5946659842952347
% es.EY (V/m) @ t=0.04
0.12284771080276724
% es.EZ (V/m) @ t=0.04
-0.4064378432800275
% es.tEX (V/m) @ t=0.04
-1.5946659842952364
% es.tEY (V/m) @ t=0.04
0
% es.tEZ (V/m) @ t=0.04
-0.4064378432800293
% es.Ex (V/m) @ t=0.04
-1.5946659842952347
% es.Ey (V/m) @ t=0.04
0.12284771080276724
% es.Ez (V/m) @ t=0.04
-0.4064378432800275
% es.tEx (V/m) @ t=0.04
-1.5946659842952364
% es.tEy (V/m) @ t=0.04
0
% es.tEz (V/m) @ t=0.04
-0.4064378432800293
% V (V) @ t=0.04
0.009564063771083056
% es.normE (V/m) @ t=0.06
1.6655020232208675
% es.EX (V/m) @ t=0.06
-1.6093152330259723
% es.EY (V/m) @ t=0.06
0.12397627921138799
% es.EZ (V/m) @ t=0.06
-0.41017158216449756
% es.tEX (V/m) @ t=0.06
-1.6093152330259937
% es.tEY (V/m) @ t=0.06
0
% es.tEZ (V/m) @ t=0.06
-0.41017158216450333
% es.Ex (V/m) @ t=0.06
-1.6093152330259723
% es.Ey (V/m) @ t=0.06
0.12397627921138799
% es.Ez (V/m) @ t=0.06
-0.41017158216449756
% es.tEx (V/m) @ t=0.06
-1.6093152330259937
% es.tEy (V/m) @ t=0.06
0
% es.tEz (V/m) @ t=0.06
-0.41017158216450333
% V (V) @ t=0.06
0.009651922404992545
% es.normE (V/m) @ t=0.08
1.6809314806660862
% es.EX (V/m) @ t=0.08
-1.624224170915439
% es.EY (V/m) @ t=0.08
0.1251248030716
% es.EZ (V/m) @ t=0.08
-0.41397146324930567
% es.tEX (V/m) @ t=0.08
-1.6242241709154346
% es.tEY (V/m) @ t=0.08
0
% es.tEZ (V/m) @ t=0.08
-0.41397146324931455
% es.Ex (V/m) @ t=0.08
-1.624224170915439
% es.Ey (V/m) @ t=0.08
0.1251248030716
% es.Ez (V/m) @ t=0.08
-0.41397146324930567
% es.tEx (V/m) @ t=0.08
-1.6242241709154346
% es.tEy (V/m) @ t=0.08
0
% es.tEz (V/m) @ t=0.08
-0.41397146324931455
% V (V) @ t=0.08
0.009741339468128543
% es.normE (V/m) @ t=0.1
1.696470162015189
% es.EX (V/m) @ t=0.1
-1.6392386538776416
% es.EY (V/m) @ t=0.1
0.12628143739588416
% es.EZ (V/m) @ t=0.1
-0.41779822640874187
% es.tEX (V/m) @ t=0.1
-1.6392386538776176
% es.tEY (V/m) @ t=0.1
0
% es.tEZ (V/m) @ t=0.1
-0.41779822640874187
% es.Ex (V/m) @ t=0.1
-1.6392386538776416
% es.Ey (V/m) @ t=0.1
0.12628143739588416
% es.Ez (V/m) @ t=0.1
-0.41779822640874187
% es.tEx (V/m) @ t=0.1
-1.6392386538776176
% es.tEy (V/m) @ t=0.1
0
% es.tEz (V/m) @ t=0.1
-0.41779822640874187
% V (V) @ t=0.1
0.009831389921302277
% es.normE (V/m) @ t=0.12
1.71200884336429
% es.EX (V/m) @ t=0.12
-1.654253136839844
% es.EY (V/m) @ t=0.12
0.12743807172018096
% es.EZ (V/m) @ t=0.12
-0.42162498956816385
% es.tEX (V/m) @ t=0.12
-1.6542531368398556
% es.tEY (V/m) @ t=0.12
0
% es.tEZ (V/m) @ t=0.12
-0.4216249895681585
% es.Ex (V/m) @ t=0.12
-1.654253136839844
% es.Ey (V/m) @ t=0.12
0.12743807172018096
% es.Ez (V/m) @ t=0.12
-0.42162498956816385
% es.tEx (V/m) @ t=0.12
-1.6542531368398556
% es.tEy (V/m) @ t=0.12
0
% es.tEz (V/m) @ t=0.12
-0.4216249895681585
% V (V) @ t=0.12
0.009921440374476013
% es.normE (V/m) @ t=0.14
1.727891931762079
% es.EX (V/m) @ t=0.14
-1.6696003948711455
% es.EY (V/m) @ t=0.14
0.12862038736233405
% es.EZ (V/m) @ t=0.14
-0.42553660963577666
% es.tEX (V/m) @ t=0.14
-1.6696003948711535
% es.tEY (V/m) @ t=0.14
0
% es.tEZ (V/m) @ t=0.14
-0.4255366096357722
% es.Ex (V/m) @ t=0.14
-1.6696003948711455
% es.Ey (V/m) @ t=0.14
0.12862038736233405
% es.Ez (V/m) @ t=0.14
-0.42553660963577666
% es.tEx (V/m) @ t=0.14
-1.6696003948711535
% es.tEy (V/m) @ t=0.14
0
% es.tEz (V/m) @ t=0.14
-0.4255366096357722
% V (V) @ t=0.14
0.010013485809773522
% es.normE (V/m) @ t=0.16
1.744228499449385
% es.EX (V/m) @ t=0.16
-1.6853858164141444
% es.EY (V/m) @ t=0.16
0.1298365174859979
% es.EZ (V/m) @ t=0.16
-0.42955996043180456
% es.tEX (V/m) @ t=0.16
-1.6853858164141435
% es.tEY (V/m) @ t=0.16
0
% es.tEZ (V/m) @ t=0.16
-0.4295599604318081
% es.Ex (V/m) @ t=0.16
-1.6853858164141444
% es.Ey (V/m) @ t=0.16
0.1298365174859979
% es.Ez (V/m) @ t=0.16
-0.42955996043180456
% es.tEx (V/m) @ t=0.16
-1.6853858164141435
% es.tEy (V/m) @ t=0.16
0
% es.tEz (V/m) @ t=0.16
-0.4295599604318081
% V (V) @ t=0.16
0.010108158029509833
% es.normE (V/m) @ t=0.18
1.7605650671367208
% es.EX (V/m) @ t=0.18
-1.7011712379571637
% es.EY (V/m) @ t=0.18
0.13105264760966795
% es.EZ (V/m) @ t=0.18
-0.4335833112278462
% es.tEX (V/m) @ t=0.18
-1.7011712379571478
% es.tEY (V/m) @ t=0.18
0
% es.tEZ (V/m) @ t=0.18
-0.433583311227844
% es.Ex (V/m) @ t=0.18
-1.7011712379571637
% es.Ey (V/m) @ t=0.18
0.13105264760966795
% es.Ez (V/m) @ t=0.18
-0.4335833112278462
% es.tEx (V/m) @ t=0.18
-1.7011712379571478
% es.tEy (V/m) @ t=0.18
0
% es.tEz (V/m) @ t=0.18
-0.433583311227844
% V (V) @ t=0.18
0.010202830249246142
% es.normE (V/m) @ t=0.2
1.7769016348240247
% es.EX (V/m) @ t=0.2
-1.7169566595001484
% es.EY (V/m) @ t=0.2
0.1322687777333309
% es.EZ (V/m) @ t=0.2
-0.4376066620238781
% es.tEX (V/m) @ t=0.2
-1.7169566595001466
% es.tEY (V/m) @ t=0.2
0
% es.tEZ (V/m) @ t=0.2
-0.4376066620238852
% es.Ex (V/m) @ t=0.2
-1.7169566595001484
% es.Ey (V/m) @ t=0.2
0.1322687777333309
% es.Ez (V/m) @ t=0.2
-0.4376066620238781
% es.tEx (V/m) @ t=0.2
-1.7169566595001466
% es.tEy (V/m) @ t=0.2
0
% es.tEz (V/m) @ t=0.2
-0.4376066620238852
% V (V) @ t=0.2
0.010297502468982448
% es.normE (V/m) @ t=0.22
1.793238202511355
% es.EX (V/m) @ t=0.22
-1.7327420810431562
% es.EY (V/m) @ t=0.22
0.13348490785698153
% es.EZ (V/m) @ t=0.22
-0.441630012819906
% es.tEX (V/m) @ t=0.22
-1.7327420810431455
% es.tEY (V/m) @ t=0.22
0
% es.tEZ (V/m) @ t=0.22
-0.4416300128199051
% es.Ex (V/m) @ t=0.22
-1.7327420810431562
% es.Ey (V/m) @ t=0.22
0.13348490785698153
% es.Ez (V/m) @ t=0.22
-0.441630012819906
% es.tEx (V/m) @ t=0.22
-1.7327420810431455
% es.tEy (V/m) @ t=0.22
0
% es.tEz (V/m) @ t=0.22
-0.4416300128199051
% V (V) @ t=0.22
0.010392174688718756
% es.normE (V/m) @ t=0.24
1.8095747701986804
% es.EX (V/m) @ t=0.24
-1.7485275025861489
% es.EY (V/m) @ t=0.24
0.13470103798066124
% es.EZ (V/m) @ t=0.24
-0.44565336361594543
% es.tEX (V/m) @ t=0.24
-1.748527502586155
% es.tEY (V/m) @ t=0.24
0
% es.tEZ (V/m) @ t=0.24
-0.445653363615941
% es.Ex (V/m) @ t=0.24
-1.7485275025861489
% es.Ey (V/m) @ t=0.24
0.13470103798066124
% es.Ez (V/m) @ t=0.24
-0.44565336361594543
% es.tEx (V/m) @ t=0.24
-1.748527502586155
% es.tEy (V/m) @ t=0.24
0
% es.tEz (V/m) @ t=0.24
-0.445653363615941
% V (V) @ t=0.24
0.010486846908455066
% es.normE (V/m) @ t=0.26
1.8259113378860183
% es.EX (V/m) @ t=0.26
-1.764312924129153
% es.EY (V/m) @ t=0.26
0.13591716810431886
% es.EZ (V/m) @ t=0.26
-0.4496767144119773
% es.tEX (V/m) @ t=0.26
-1.7643129241291522
% es.tEY (V/m) @ t=0.26
0
% es.tEZ (V/m) @ t=0.26
-0.44967671441196977
% es.Ex (V/m) @ t=0.26
-1.764312924129153
% es.Ey (V/m) @ t=0.26
0.13591716810431886
% es.Ez (V/m) @ t=0.26
-0.4496767144119773
% es.tEx (V/m) @ t=0.26
-1.7643129241291522
% es.tEy (V/m) @ t=0.26
0
% es.tEz (V/m) @ t=0.26
-0.44967671441196977
% V (V) @ t=0.26
0.010581519128191372
% es.normE (V/m) @ t=0.28
1.843807609390486
% es.EX (V/m) @ t=0.28
-1.7816055453562898
% es.EY (V/m) @ t=0.28
0.13724901692582236
% es.EZ (V/m) @ t=0.28
-0.45408385382033956
% es.tEX (V/m) @ t=0.28
-1.7816055453562996
% es.tEY (V/m) @ t=0.28
0
% es.tEZ (V/m) @ t=0.28
-0.45408385382034666
% es.Ex (V/m) @ t=0.28
-1.7816055453562898
% es.Ey (V/m) @ t=0.28
0.13724901692582236
% es.Ez (V/m) @ t=0.28
-0.45408385382033956
% es.tEx (V/m) @ t=0.28
-1.7816055453562996
% es.tEy (V/m) @ t=0.28
0
% es.tEz (V/m) @ t=0.28
-0.45408385382034666
% V (V) @ t=0.28
0.010685238124707643
% es.normE (V/m) @ t=0.3
1.8619309716642345
% es.EX (V/m) @ t=0.3
-1.7991176128217337
% es.EY (V/m) @ t=0.3
0.13859771423341327
% es.EZ (V/m) @ t=0.3
-0.4585468723322954
% es.tEX (V/m) @ t=0.3
-1.7991176128217194
% es.tEY (V/m) @ t=0.3
0
% es.tEZ (V/m) @ t=0.3
-0.45854687233229185
% es.Ex (V/m) @ t=0.3
-1.7991176128217337
% es.Ey (V/m) @ t=0.3
0.13859771423341327
% es.Ez (V/m) @ t=0.3
-0.4585468723322954
% es.tEx (V/m) @ t=0.3
-1.7991176128217194
% es.tEy (V/m) @ t=0.3
0
% es.tEz (V/m) @ t=0.3
-0.45854687233229185
% V (V) @ t=0.3
0.010790274319704012
% es.normE (V/m) @ t=0.32
1.8800543339381233
% es.EX (V/m) @ t=0.32
-1.8166296802871926
% es.EY (V/m) @ t=0.32
0.13994641154099885
% es.EZ (V/m) @ t=0.32
-0.46300989084423794
% es.tEX (V/m) @ t=0.32
-1.8166296802871855
% es.tEY (V/m) @ t=0.32
0
% es.tEZ (V/m) @ t=0.32
-0.4630098908442264
% es.Ex (V/m) @ t=0.32
-1.8166296802871926
% es.Ey (V/m) @ t=0.32
0.13994641154099885
% es.Ez (V/m) @ t=0.32
-0.46300989084423794
% es.tEx (V/m) @ t=0.32
-1.8166296802871855
% es.tEy (V/m) @ t=0.32
0
% es.tEz (V/m) @ t=0.32
-0.4630098908442264
% V (V) @ t=0.32
0.010895310514700381
% es.normE (V/m) @ t=0.34
1.8981776962120924
% es.EX (V/m) @ t=0.34
-1.8341417477526099
% es.EY (V/m) @ t=0.34
0.14129510884856655
% es.EZ (V/m) @ t=0.34
-0.4674729093561649
% es.tEX (V/m) @ t=0.34
-1.8341417477526232
% es.tEY (V/m) @ t=0.34
0
% es.tEZ (V/m) @ t=0.34
-0.4674729093561609
% es.Ex (V/m) @ t=0.34
-1.8341417477526099
% es.Ey (V/m) @ t=0.34
0.14129510884856655
% es.Ez (V/m) @ t=0.34
-0.4674729093561649
% es.tEx (V/m) @ t=0.34
-1.8341417477526232
% es.tEy (V/m) @ t=0.34
0
% es.tEz (V/m) @ t=0.34
-0.4674729093561609
% V (V) @ t=0.34
0.01100034670969675
% es.normE (V/m) @ t=0.36
1.9163010584862274
% es.EX (V/m) @ t=0.36
-1.8516538152180626
% es.EY (V/m) @ t=0.36
0.14264380615616012
% es.EZ (V/m) @ t=0.36
-0.47193592786812033
% es.tEX (V/m) @ t=0.36
-1.851653815218068
% es.tEY (V/m) @ t=0.36
0
% es.tEZ (V/m) @ t=0.36
-0.47193592786810257
% es.Ex (V/m) @ t=0.36
-1.8516538152180626
% es.Ey (V/m) @ t=0.36
0.14264380615616012
% es.Ez (V/m) @ t=0.36
-0.47193592786812033
% es.tEx (V/m) @ t=0.36
-1.851653815218068
% es.tEy (V/m) @ t=0.36
0
% es.tEz (V/m) @ t=0.36
-0.47193592786810257
% V (V) @ t=0.36
0.01110538290469312
% es.normE (V/m) @ t=0.38
1.934424420760482
% es.EX (V/m) @ t=0.38
-1.8691658826835225
% es.EY (V/m) @ t=0.38
0.1439925034637457
% es.EZ (V/m) @ t=0.38
-0.47639894638004954
% es.tEX (V/m) @ t=0.38
-1.8691658826835127
% es.tEY (V/m) @ t=0.38
0
% es.tEZ (V/m) @ t=0.38
-0.4763989463800442
% es.Ex (V/m) @ t=0.38
-1.8691658826835225
% es.Ey (V/m) @ t=0.38
0.1439925034637457
% es.Ez (V/m) @ t=0.38
-0.47639894638004954
% es.tEx (V/m) @ t=0.38
-1.8691658826835127
% es.tEy (V/m) @ t=0.38
0
% es.tEz (V/m) @ t=0.38
-0.4763989463800442
% V (V) @ t=0.38
0.011210419099689489
% es.normE (V/m) @ t=0.4
1.9525477830348383
% es.EX (V/m) @ t=0.4
-1.886677950148962
% es.EY (V/m) @ t=0.4
0.14534120077133839
% es.EZ (V/m) @ t=0.4
-0.4808619648920023
% es.tEX (V/m) @ t=0.4
-1.8866779501489699
% es.tEY (V/m) @ t=0.4
0
% es.tEZ (V/m) @ t=0.4
-0.48086196489200184
% es.Ex (V/m) @ t=0.4
-1.886677950148962
% es.Ey (V/m) @ t=0.4
0.14534120077133839
% es.Ez (V/m) @ t=0.4
-0.4808619648920023
% es.tEx (V/m) @ t=0.4
-1.8866779501489699
% es.tEy (V/m) @ t=0.4
0
% es.tEz (V/m) @ t=0.4
-0.48086196489200184
% V (V) @ t=0.4
0.011315455294685858
% es.normE (V/m) @ t=0.42
1.9706711453092844
% es.EX (V/m) @ t=0.42
-1.9041900176143853
% es.EY (V/m) @ t=0.42
0.1466898980789071
% es.EZ (V/m) @ t=0.42
-0.48532498340393415
% es.tEX (V/m) @ t=0.42
-1.904190017614388
% es.tEY (V/m) @ t=0.42
0
% es.tEZ (V/m) @ t=0.42
-0.4853249834039204
% es.Ex (V/m) @ t=0.42
-1.9041900176143853
% es.Ey (V/m) @ t=0.42
0.1466898980789071
% es.Ez (V/m) @ t=0.42
-0.48532498340393415
% es.tEx (V/m) @ t=0.42
-1.904190017614388
% es.tEy (V/m) @ t=0.42
0
% es.tEz (V/m) @ t=0.42
-0.4853249834039204
% V (V) @ t=0.42
0.011420491489682225
% es.normE (V/m) @ t=0.44
1.9887945075838593
% es.EX (V/m) @ t=0.44
-1.921702085079822
% es.EY (V/m) @ t=0.44
0.14803859538649
% es.EZ (V/m) @ t=0.44
-0.4897880019158878
% es.tEX (V/m) @ t=0.44
-1.9217020850798434
% es.tEY (V/m) @ t=0.44
0
% es.tEZ (V/m) @ t=0.44
-0.4897880019158798
% es.Ex (V/m) @ t=0.44
-1.921702085079822
% es.Ey (V/m) @ t=0.44
0.14803859538649
% es.Ez (V/m) @ t=0.44
-0.4897880019158878
% es.tEx (V/m) @ t=0.44
-1.9217020850798434
% es.tEy (V/m) @ t=0.44
0
% es.tEz (V/m) @ t=0.44
-0.4897880019158798
% V (V) @ t=0.44
0.011525527684678594
% es.normE (V/m) @ t=0.46
2.006917869858548
% es.EX (V/m) @ t=0.46
-1.9392141525452704
% es.EY (V/m) @ t=0.46
0.14938729269409046
% es.EZ (V/m) @ t=0.46
-0.4942510204278179
% es.tEX (V/m) @ t=0.46
-1.939214152545274
% es.tEY (V/m) @ t=0.46
0
% es.tEZ (V/m) @ t=0.46
-0.49425102042782143
% es.Ex (V/m) @ t=0.46
-1.9392141525452704
% es.Ey (V/m) @ t=0.46
0.14938729269409046
% es.Ez (V/m) @ t=0.46
-0.4942510204278179
% es.tEx (V/m) @ t=0.46
-1.939214152545274
% es.tEy (V/m) @ t=0.46
0
% es.tEz (V/m) @ t=0.46
-0.49425102042782143
% V (V) @ t=0.46
0.011630563879674963
% es.normE (V/m) @ t=0.48
2.025041232133347
% es.EX (V/m) @ t=0.48
-1.9567262200107223
% es.EY (V/m) @ t=0.48
0.15073599000168236
% es.EZ (V/m) @ t=0.48
-0.49871403893976485
% es.tEX (V/m) @ t=0.48
-1.9567262200107187
% es.tEY (V/m) @ t=0.48
0
% es.tEZ (V/m) @ t=0.48
-0.49871403893976307
% es.Ex (V/m) @ t=0.48
-1.9567262200107223
% es.Ey (V/m) @ t=0.48
0.15073599000168236
% es.Ez (V/m) @ t=0.48
-0.49871403893976485
% es.tEx (V/m) @ t=0.48
-1.9567262200107187
% es.tEy (V/m) @ t=0.48
0
% es.tEz (V/m) @ t=0.48
-0.49871403893976307
% V (V) @ t=0.48
0.011735600074671332
% es.normE (V/m) @ t=0.5
2.043164594408235
% es.EX (V/m) @ t=0.5
-1.9742382874761688
% es.EY (V/m) @ t=0.5
0.1520846873092243
% es.EZ (V/m) @ t=0.5
-0.5031770574517007
% es.tEX (V/m) @ t=0.5
-1.9742382874761617
% es.tEY (V/m) @ t=0.5
0
% es.tEZ (V/m) @ t=0.5
-0.5031770574516994
% es.Ex (V/m) @ t=0.5
-1.9742382874761688
% es.Ey (V/m) @ t=0.5
0.1520846873092243
% es.Ez (V/m) @ t=0.5
-0.5031770574517007
% es.tEx (V/m) @ t=0.5
-1.9742382874761617
% es.tEy (V/m) @ t=0.5
0
% es.tEz (V/m) @ t=0.5
-0.5031770574516994
% V (V) @ t=0.5
0.0118406362696677
% es.normE (V/m) @ t=0.52
2.06128795668321
% es.EX (V/m) @ t=0.52
-1.9917503549416002
% es.EY (V/m) @ t=0.52
0.15343338461681877
% es.EZ (V/m) @ t=0.52
-0.5076400759636335
% es.tEX (V/m) @ t=0.52
-1.9917503549416224
% es.tEY (V/m) @ t=0.52
0
% es.tEZ (V/m) @ t=0.52
-0.5076400759636392
% es.Ex (V/m) @ t=0.52
-1.9917503549416002
% es.Ey (V/m) @ t=0.52
0.15343338461681877
% es.Ez (V/m) @ t=0.52
-0.5076400759636335
% es.tEx (V/m) @ t=0.52
-1.9917503549416224
% es.tEy (V/m) @ t=0.52
0
% es.tEz (V/m) @ t=0.52
-0.5076400759636392
% V (V) @ t=0.52
0.011945672464664069
% es.normE (V/m) @ t=0.54
2.0809337224827082
% es.EX (V/m) @ t=0.54
-2.0107334592427186
% es.EY (V/m) @ t=0.54
0.15489543122239158
% es.EZ (V/m) @ t=0.54
-0.5124780458779767
% es.tEX (V/m) @ t=0.54
-2.010733459242692
% es.tEY (V/m) @ t=0.54
0
% es.tEZ (V/m) @ t=0.54
-0.5124780458779821
% es.Ex (V/m) @ t=0.54
-2.0107334592427186
% es.Ey (V/m) @ t=0.54
0.15489543122239158
% es.Ez (V/m) @ t=0.54
-0.5124780458779767
% es.tEx (V/m) @ t=0.54
-2.010733459242692
% es.tEy (V/m) @ t=0.54
0
% es.tEz (V/m) @ t=0.54
-0.5124780458779821
% V (V) @ t=0.54
0.012059530775629613
% es.normE (V/m) @ t=0.56
2.1010723931074753
% es.EX (V/m) @ t=0.56
-2.0301928375032166
% es.EY (V/m) @ t=0.56
0.1563941766498721
% es.EZ (V/m) @ t=0.56
-0.5174374128808754
% es.tEX (V/m) @ t=0.56
-2.030192837503238
% es.tEY (V/m) @ t=0.56
0
% es.tEZ (V/m) @ t=0.56
-0.5174374128808754
% es.Ex (V/m) @ t=0.56
-2.0301928375032166
% es.Ey (V/m) @ t=0.56
0.1563941766498721
% es.Ez (V/m) @ t=0.56
-0.5174374128808754
% es.tEx (V/m) @ t=0.56
-2.030192837503238
% es.tEy (V/m) @ t=0.56
0
% es.tEz (V/m) @ t=0.56
-0.5174374128808754
% V (V) @ t=0.56
0.012176245401271397
% es.normE (V/m) @ t=0.58
2.1212110637323405
% es.EX (V/m) @ t=0.58
-2.0496522157637367
% es.EY (V/m) @ t=0.58
0.1578929220773988
% es.EZ (V/m) @ t=0.58
-0.5223967798837821
% es.tEX (V/m) @ t=0.58
-2.0496522157637305
% es.tEY (V/m) @ t=0.58
0
% es.tEZ (V/m) @ t=0.58
-0.5223967798837954
% es.Ex (V/m) @ t=0.58
-2.0496522157637367
% es.Ey (V/m) @ t=0.58
0.1578929220773988
% es.Ez (V/m) @ t=0.58
-0.5223967798837821
% es.tEx (V/m) @ t=0.58
-2.0496522157637305
% es.tEy (V/m) @ t=0.58
0
% es.tEz (V/m) @ t=0.58
-0.5223967798837954
% V (V) @ t=0.58
0.012292960026913175
% es.normE (V/m) @ t=0.6
2.141349734357247
% es.EX (V/m) @ t=0.6
-2.0691115940242275
% es.EY (V/m) @ t=0.6
0.15939166750492717
% es.EZ (V/m) @ t=0.6
-0.5273561468866923
% es.tEX (V/m) @ t=0.6
-2.069111594024232
% es.tEY (V/m) @ t=0.6
0
% es.tEZ (V/m) @ t=0.6
-0.5273561468866959
% es.Ex (V/m) @ t=0.6
-2.0691115940242275
% es.Ey (V/m) @ t=0.6
0.15939166750492717
% es.Ez (V/m) @ t=0.6
-0.5273561468866923
% es.tEx (V/m) @ t=0.6
-2.069111594024232
% es.tEy (V/m) @ t=0.6
0
% es.tEz (V/m) @ t=0.6
-0.5273561468866959
% V (V) @ t=0.6
0.012409674652554955
% es.normE (V/m) @ t=0.62
2.161488404982215
% es.EX (V/m) @ t=0.62
-2.088570972284722
% es.EY (V/m) @ t=0.62
0.1608904129324139
% es.EZ (V/m) @ t=0.62
-0.5323155138895794
% es.tEX (V/m) @ t=0.62
-2.088570972284728
% es.tEY (V/m) @ t=0.62
0
% es.tEZ (V/m) @ t=0.62
-0.5323155138895714
% es.Ex (V/m) @ t=0.62
-2.088570972284722
% es.Ey (V/m) @ t=0.62
0.1608904129324139
% es.Ez (V/m) @ t=0.62
-0.5323155138895794
% es.tEx (V/m) @ t=0.62
-2.088570972284728
% es.tEy (V/m) @ t=0.62
0
% es.tEz (V/m) @ t=0.62
-0.5323155138895714
% V (V) @ t=0.62
0.012526389278196737
% es.normE (V/m) @ t=0.64
2.1816270756072846
% es.EX (V/m) @ t=0.64
-2.108030350545243
% es.EY (V/m) @ t=0.64
0.16238915835995127
% es.EZ (V/m) @ t=0.64
-0.5372748808924954
% es.tEX (V/m) @ t=0.64
-2.1080303505452456
% es.tEY (V/m) @ t=0.64
0
% es.tEZ (V/m) @ t=0.64
-0.537274880892479
% es.Ex (V/m) @ t=0.64
-2.108030350545243
% es.Ey (V/m) @ t=0.64
0.16238915835995127
% es.Ez (V/m) @ t=0.64
-0.5372748808924954
% es.tEx (V/m) @ t=0.64
-2.1080303505452456
% es.tEy (V/m) @ t=0.64
0
% es.tEz (V/m) @ t=0.64
-0.537274880892479
% V (V) @ t=0.64
0.012643103903838519
% es.normE (V/m) @ t=0.66
2.201765746232395
% es.EX (V/m) @ t=0.66
-2.127489728805749
% es.EY (V/m) @ t=0.66
0.16388790378746887
% es.EZ (V/m) @ t=0.66
-0.5422342478953834
% es.tEX (V/m) @ t=0.66
-2.1274897288057666
% es.tEY (V/m) @ t=0.66
0
% es.tEZ (V/m) @ t=0.66
-0.5422342478953777
% es.Ex (V/m) @ t=0.66
-2.127489728805749
% es.Ey (V/m) @ t=0.66
0.16388790378746887
% es.Ez (V/m) @ t=0.66
-0.5422342478953834
% es.tEx (V/m) @ t=0.66
-2.1274897288057666
% es.tEy (V/m) @ t=0.66
0
% es.tEz (V/m) @ t=0.66
-0.5422342478953777
% V (V) @ t=0.66
0.012759818529480299
% es.normE (V/m) @ t=0.68
2.22190441685759
% es.EX (V/m) @ t=0.68
-2.1469491070662787
% es.EY (V/m) @ t=0.68
0.16538664921496704
% es.EZ (V/m) @ t=0.68
-0.5471936148982803
% es.tEX (V/m) @ t=0.68
-2.1469491070662734
% es.tEY (V/m) @ t=0.68
0
% es.tEZ (V/m) @ t=0.68
-0.5471936148982817
% es.Ex (V/m) @ t=0.68
-2.1469491070662787
% es.Ey (V/m) @ t=0.68
0.16538664921496704
% es.Ez (V/m) @ t=0.68
-0.5471936148982803
% es.tEx (V/m) @ t=0.68
-2.1469491070662734
% es.tEy (V/m) @ t=0.68
0
% es.tEz (V/m) @ t=0.68
-0.5471936148982817
% V (V) @ t=0.68
0.01287653315512208
% es.normE (V/m) @ t=0.7
2.2420430874827897
% es.EX (V/m) @ t=0.7
-2.16640848532675
% es.EY (V/m) @ t=0.7
0.16688539464249819
% es.EZ (V/m) @ t=0.7
-0.5521529819011723
% es.tEX (V/m) @ t=0.7
-2.1664084853267376
% es.tEY (V/m) @ t=0.7
0
% es.tEZ (V/m) @ t=0.7
-0.5521529819011874
% es.Ex (V/m) @ t=0.7
-2.16640848532675
% es.Ey (V/m) @ t=0.7
0.16688539464249819
% es.Ez (V/m) @ t=0.7
-0.5521529819011723
% es.tEx (V/m) @ t=0.7
-2.1664084853267376
% es.tEy (V/m) @ t=0.7
0
% es.tEz (V/m) @ t=0.7
-0.5521529819011874
% V (V) @ t=0.7
0.012993247780763861
% es.normE (V/m) @ t=0.72
2.262181758108115
% es.EX (V/m) @ t=0.72
-2.1858678635872923
% es.EY (V/m) @ t=0.72
0.16838414007000446
% es.EZ (V/m) @ t=0.72
-0.5571123489040639
% es.tEX (V/m) @ t=0.72
-2.1858678635872835
% es.tEY (V/m) @ t=0.72
0
% es.tEZ (V/m) @ t=0.72
-0.5571123489040737
% es.Ex (V/m) @ t=0.72
-2.1858678635872923
% es.Ey (V/m) @ t=0.72
0.16838414007000446
% es.Ez (V/m) @ t=0.72
-0.5571123489040639
% es.tEx (V/m) @ t=0.72
-2.1858678635872835
% es.tEy (V/m) @ t=0.72
0
% es.tEz (V/m) @ t=0.72
-0.5571123489040737
% V (V) @ t=0.72
0.013109962406405643
% es.normE (V/m) @ t=0.74
2.2823204287334438
% es.EX (V/m) @ t=0.74
-2.205327241847778
% es.EY (V/m) @ t=0.74
0.16988288549752306
% es.EZ (V/m) @ t=0.74
-0.562071715906959
% es.tEX (V/m) @ t=0.74
-2.205327241847776
% es.tEY (V/m) @ t=0.74
0
% es.tEZ (V/m) @ t=0.74
-0.5620717159069564
% es.Ex (V/m) @ t=0.74
-2.205327241847778
% es.Ey (V/m) @ t=0.74
0.16988288549752306
% es.Ez (V/m) @ t=0.74
-0.562071715906959
% es.tEx (V/m) @ t=0.74
-2.205327241847776
% es.tEy (V/m) @ t=0.74
0
% es.tEz (V/m) @ t=0.74
-0.5620717159069564
% V (V) @ t=0.74
0.013226677032047423
% es.normE (V/m) @ t=0.76
2.3024590993588485
% es.EX (V/m) @ t=0.76
-2.2247866201082847
% es.EY (V/m) @ t=0.76
0.17138163092501146
% es.EZ (V/m) @ t=0.76
-0.5670310829098648
% es.tEX (V/m) @ t=0.76
-2.2247866201082935
% es.tEY (V/m) @ t=0.76
0
% es.tEZ (V/m) @ t=0.76
-0.567031082909871
% es.Ex (V/m) @ t=0.76
-2.2247866201082847
% es.Ey (V/m) @ t=0.76
0.17138163092501146
% es.Ez (V/m) @ t=0.76
-0.5670310829098648
% es.tEx (V/m) @ t=0.76
-2.2247866201082935
% es.tEy (V/m) @ t=0.76
0
% es.tEz (V/m) @ t=0.76
-0.567031082909871
% V (V) @ t=0.76
0.013343391657689205
% es.normE (V/m) @ t=0.78
2.3225977699843074
% es.EX (V/m) @ t=0.78
-2.2442459983687915
% es.EY (V/m) @ t=0.78
0.1728803763525586
% es.EZ (V/m) @ t=0.78
-0.5719904499127546
% es.tEX (V/m) @ t=0.78
-2.2442459983688003
% es.tEY (V/m) @ t=0.78
0
% es.tEZ (V/m) @ t=0.78
-0.5719904499127679
% es.Ex (V/m) @ t=0.78
-2.2442459983687915
% es.Ey (V/m) @ t=0.78
0.1728803763525586
% es.Ez (V/m) @ t=0.78
-0.5719904499127546
% es.tEx (V/m) @ t=0.78
-2.2442459983688003
% es.tEy (V/m) @ t=0.78
0
% es.tEz (V/m) @ t=0.78
-0.5719904499127679
% V (V) @ t=0.78
0.013460106283330985
% es.normE (V/m) @ t=0.8
2.3441890545690383
% es.EX (V/m) @ t=0.8
-2.265108938814044
% es.EY (V/m) @ t=0.8
0.17448740911152283
% es.EZ (V/m) @ t=0.8
-0.5773076948403792
% es.tEX (V/m) @ t=0.8
-2.265108938814034
% es.tEY (V/m) @ t=0.8
0
% es.tEZ (V/m) @ t=0.8
-0.5773076948403784
% es.Ex (V/m) @ t=0.8
-2.265108938814044
% es.Ey (V/m) @ t=0.8
0.17448740911152283
% es.Ez (V/m) @ t=0.8
-0.5773076948403792
% es.tEx (V/m) @ t=0.8
-2.265108938814034
% es.tEy (V/m) @ t=0.8
0
% es.tEz (V/m) @ t=0.8
-0.5773076948403784
% V (V) @ t=0.8
0.013585235805323531
% es.normE (V/m) @ t=0.82
2.3666047878555245
% es.EX (V/m) @ t=0.82
-2.2867684880304644
% es.EY (V/m) @ t=0.82
0.17615590166112893
% es.EZ (V/m) @ t=0.82
-0.5828280577323826
% es.tEX (V/m) @ t=0.82
-2.2867684880304537
% es.tEY (V/m) @ t=0.82
0
% es.tEZ (V/m) @ t=0.82
-0.5828280577323817
% es.Ex (V/m) @ t=0.82
-2.2867684880304644
% es.Ey (V/m) @ t=0.82
0.17615590166112893
% es.Ez (V/m) @ t=0.82
-0.5828280577323826
% es.tEx (V/m) @ t=0.82
-2.2867684880304537
% es.tEy (V/m) @ t=0.82
0
% es.tEz (V/m) @ t=0.82
-0.5828280577323817
% V (V) @ t=0.82
0.013715141303980367
% es.normE (V/m) @ t=0.84
2.3890205211419717
% es.EX (V/m) @ t=0.84
-2.3084280372468484
% es.EY (V/m) @ t=0.84
0.17782439421074048
% es.EZ (V/m) @ t=0.84
-0.5883484206243716
% es.tEX (V/m) @ t=0.84
-2.3084280372468484
% es.tEY (V/m) @ t=0.84
0
% es.tEZ (V/m) @ t=0.84
-0.588348420624385
% es.Ex (V/m) @ t=0.84
-2.3084280372468484
% es.Ey (V/m) @ t=0.84
0.17782439421074048
% es.Ez (V/m) @ t=0.84
-0.5883484206243716
% es.tEx (V/m) @ t=0.84
-2.3084280372468484
% es.tEy (V/m) @ t=0.84
0
% es.tEz (V/m) @ t=0.84
-0.588348420624385
% V (V) @ t=0.84
0.013845046802637201
% es.normE (V/m) @ t=0.86
2.411436254428405
% es.EX (V/m) @ t=0.86
-2.3300875864632165
% es.EY (V/m) @ t=0.86
0.17949288676038921
% es.EZ (V/m) @ t=0.86
-0.5938687835163523
% es.tEX (V/m) @ t=0.86
-2.3300875864632253
% es.tEY (V/m) @ t=0.86
0
% es.tEZ (V/m) @ t=0.86
-0.5938687835163527
% es.Ex (V/m) @ t=0.86
-2.3300875864632165
% es.Ey (V/m) @ t=0.86
0.17949288676038921
% es.Ez (V/m) @ t=0.86
-0.5938687835163523
% es.tEx (V/m) @ t=0.86
-2.3300875864632253
% es.tEy (V/m) @ t=0.86
0
% es.tEz (V/m) @ t=0.86
-0.5938687835163527
% V (V) @ t=0.86
0.013974952301294037
% es.normE (V/m) @ t=0.88
2.4338519877148554
% es.EX (V/m) @ t=0.88
-2.351747135679597
% es.EY (V/m) @ t=0.88
0.18116137931000975
% es.EZ (V/m) @ t=0.88
-0.5993891464083605
% es.tEX (V/m) @ t=0.88
-2.351747135679588
% es.tEY (V/m) @ t=0.88
0
% es.tEZ (V/m) @ t=0.88
-0.599389146408349
% es.Ex (V/m) @ t=0.88
-2.351747135679597
% es.Ey (V/m) @ t=0.88
0.18116137931000975
% es.Ez (V/m) @ t=0.88
-0.5993891464083605
% es.tEx (V/m) @ t=0.88
-2.351747135679588
% es.tEy (V/m) @ t=0.88
0
% es.tEz (V/m) @ t=0.88
-0.599389146408349
% V (V) @ t=0.88
0.014104857799950868
% es.normE (V/m) @ t=0.9
2.456267721001306
% es.EX (V/m) @ t=0.9
-2.3734066848959827
% es.EY (V/m) @ t=0.9
0.18282987185965316
% es.EZ (V/m) @ t=0.9
-0.604909509300346
% es.tEX (V/m) @ t=0.9
-2.373406684895997
% es.tEY (V/m) @ t=0.9
0
% es.tEZ (V/m) @ t=0.9
-0.6049095093003523
% es.Ex (V/m) @ t=0.9
-2.3734066848959827
% es.Ey (V/m) @ t=0.9
0.18282987185965316
% es.Ez (V/m) @ t=0.9
-0.604909509300346
% es.tEx (V/m) @ t=0.9
-2.373406684895997
% es.tEy (V/m) @ t=0.9
0
% es.tEz (V/m) @ t=0.9
-0.6049095093003523
% V (V) @ t=0.9
0.014234763298607706
% es.normE (V/m) @ t=0.92
2.4786834542877774
% es.EX (V/m) @ t=0.92
-2.3950662341123934
% es.EY (V/m) @ t=0.92
0.1844983644092434
% es.EZ (V/m) @ t=0.92
-0.6104298721923316
% es.tEX (V/m) @ t=0.92
-2.3950662341124023
% es.tEY (V/m) @ t=0.92
0
% es.tEZ (V/m) @ t=0.92
-0.6104298721923342
% es.Ex (V/m) @ t=0.92
-2.3950662341123934
% es.Ey (V/m) @ t=0.92
0.1844983644092434
% es.Ez (V/m) @ t=0.92
-0.6104298721923316
% es.tEx (V/m) @ t=0.92
-2.3950662341124023
% es.tEy (V/m) @ t=0.92
0
% es.tEz (V/m) @ t=0.92
-0.6104298721923342
% V (V) @ t=0.92
0.014364668797264538
% es.normE (V/m) @ t=0.94
2.5010991875742112
% es.EX (V/m) @ t=0.94
-2.4167257833287596
% es.EY (V/m) @ t=0.94
0.1861668569588657
% es.EZ (V/m) @ t=0.94
-0.6159502350843309
% es.tEX (V/m) @ t=0.94
-2.416725783328765
% es.tEY (V/m) @ t=0.94
0
% es.tEZ (V/m) @ t=0.94
-0.615950235084334
% es.Ex (V/m) @ t=0.94
-2.4167257833287596
% es.Ey (V/m) @ t=0.94
0.1861668569588657
% es.Ez (V/m) @ t=0.94
-0.6159502350843309
% es.tEx (V/m) @ t=0.94
-2.416725783328765
% es.tEy (V/m) @ t=0.94
0
% es.tEz (V/m) @ t=0.94
-0.615950235084334
% V (V) @ t=0.94
0.014494574295921372
% es.normE (V/m) @ t=0.96
2.523514920860685
% es.EX (V/m) @ t=0.96
-2.4383853325451703
% es.EY (V/m) @ t=0.96
0.18783534950850023
% es.EZ (V/m) @ t=0.96
-0.6214705979763115
% es.tEX (V/m) @ t=0.96
-2.4383853325451703
% es.tEY (V/m) @ t=0.96
0
% es.tEZ (V/m) @ t=0.96
-0.6214705979763089
% es.Ex (V/m) @ t=0.96
-2.4383853325451703
% es.Ey (V/m) @ t=0.96
0.18783534950850023
% es.Ez (V/m) @ t=0.96
-0.6214705979763115
% es.tEx (V/m) @ t=0.96
-2.4383853325451703
% es.tEy (V/m) @ t=0.96
0
% es.tEz (V/m) @ t=0.96
-0.6214705979763089
% V (V) @ t=0.96
0.014624479794578208
% es.normE (V/m) @ t=0.98
2.545930654147123
% es.EX (V/m) @ t=0.98
-2.460044881761542
% es.EY (V/m) @ t=0.98
0.18950384205813653
% es.EZ (V/m) @ t=0.98
-0.6269909608683006
% es.tEX (V/m) @ t=0.98
-2.460044881761565
% es.tEY (V/m) @ t=0.98
0
% es.tEZ (V/m) @ t=0.98
-0.626990960868298
% es.Ex (V/m) @ t=0.98
-2.460044881761542
% es.Ey (V/m) @ t=0.98
0.18950384205813653
% es.Ez (V/m) @ t=0.98
-0.6269909608683006
% es.tEx (V/m) @ t=0.98
-2.460044881761565
% es.tEy (V/m) @ t=0.98
0
% es.tEz (V/m) @ t=0.98
-0.626990960868298
% V (V) @ t=0.98
0.014754385293235042
% es.normE (V/m) @ t=1
2.568346387433594
% es.EX (V/m) @ t=1
-2.4817044309779472
% es.EY (V/m) @ t=1
0.19117233460777827
% es.EZ (V/m) @ t=1
-0.6325113237602897
% es.tEX (V/m) @ t=1
-2.4817044309779455
% es.tEY (V/m) @ t=1
0
% es.tEZ (V/m) @ t=1
-0.6325113237602977
% es.Ex (V/m) @ t=1
-2.4817044309779472
% es.Ey (V/m) @ t=1
0.19117233460777827
% es.Ez (V/m) @ t=1
-0.6325113237602897
% es.tEx (V/m) @ t=1
-2.4817044309779455
% es.tEy (V/m) @ t=1
0
% es.tEz (V/m) @ t=1
-0.6325113237602977
% V (V) @ t=1
0.014884290791891873
% es.normE (V/m) @ t=1.02
2.5907621207200515
% es.EX (V/m) @ t=1.02
-2.503363980194342
% es.EY (V/m) @ t=1.02
0.19284082715738815
% es.EZ (V/m) @ t=1.02
-0.6380316866522784
% es.tEX (V/m) @ t=1.02
-2.503363980194351
% es.tEY (V/m) @ t=1.02
0
% es.tEZ (V/m) @ t=1.02
-0.6380316866522868
% es.Ex (V/m) @ t=1.02
-2.503363980194342
% es.Ey (V/m) @ t=1.02
0.19284082715738815
% es.Ez (V/m) @ t=1.02
-0.6380316866522784
% es.tEx (V/m) @ t=1.02
-2.503363980194351
% es.tEy (V/m) @ t=1.02
0
% es.tEz (V/m) @ t=1.02
-0.6380316866522868
% V (V) @ t=1.02