% Model:              1 neuron.mph
% Version:            COMSOL 6.0.0.405
% Date:               Mar 16 2023, 18:06
% Dimension:          0
% Nodes:              14017
% Expressions:        14017
% Description:        Electric field norm, Electric field, X component, Electric field, Y component, Electric field, Z component, Tangential electric field, X component, Tangential electric field, Y component, Tangential electric field, Z component, Electric field, x component, Electric field, y component, Electric field, z component, Tangential electric field, x component, Tangential electric field, y component, Tangential electric field, z component, Electric potential
% Length unit:        mm
% x
1.0000000000000002
% y
12.2
% z
2
% es.normE (V/m) @ t=0
1.0321240087896002
% es.EX (V/m) @ t=0
0.716921761229981
% es.EY (V/m) @ t=0
0.10734992876260535
% es.EZ (V/m) @ t=0
-0.7158753042422177
% es.tEX (V/m) @ t=0
0.7169217612299832
% es.tEY (V/m) @ t=0
0
% es.tEZ (V/m) @ t=0
-0.715875304242207
% es.Ex (V/m) @ t=0
0.716921761229981
% es.Ey (V/m) @ t=0
0.10734992876260535
% es.Ez (V/m) @ t=0
-0.7158753042422177
% es.tEx (V/m) @ t=0
0.7169217612299832
% es.tEy (V/m) @ t=0
0
% es.tEz (V/m) @ t=0
-0.715875304242207
% V (V) @ t=0
0.011052725533546227
% es.normE (V/m) @ t=0.02
0.8914653876655927
% es.EX (V/m) @ t=0.02
0.619219134199821
% es.EY (V/m) @ t=0.02
0.09272021045048456
% es.EZ (V/m) @ t=0.02
-0.6183152870535735
% es.tEX (V/m) @ t=0.02
0.6192191341998234
% es.tEY (V/m) @ t=0.02
0
% es.tEZ (V/m) @ t=0.02
-0.6183152870535626
% es.Ex (V/m) @ t=0.02
0.619219134199821
% es.Ey (V/m) @ t=0.02
0.09272021045048456
% es.Ez (V/m) @ t=0.02
-0.6183152870535735
% es.tEx (V/m) @ t=0.02
0.6192191341998234
% es.tEy (V/m) @ t=0.02
0
% es.tEz (V/m) @ t=0.02
-0.6183152870535626
% V (V) @ t=0.02
0.009546451552042376
% es.normE (V/m) @ t=0.04
0.8996661281259233
% es.EX (V/m) @ t=0.04
0.62491543483431
% es.EY (V/m) @ t=0.04
0.09357316801666943
% es.EZ (V/m) @ t=0.04
-0.6240032710186794
% es.tEX (V/m) @ t=0.04
0.6249154348343118
% es.tEY (V/m) @ t=0.04
0
% es.tEZ (V/m) @ t=0.04
-0.6240032710186685
% es.Ex (V/m) @ t=0.04
0.62491543483431
% es.Ey (V/m) @ t=0.04
0.09357316801666943
% es.Ez (V/m) @ t=0.04
-0.6240032710186794
% es.tEx (V/m) @ t=0.04
0.6249154348343118
% es.tEy (V/m) @ t=0.04
0
% es.tEz (V/m) @ t=0.04
-0.6240032710186685
% V (V) @ t=0.04
0.009634270596447154
% es.normE (V/m) @ t=0.06
0.9079341468300859
% es.EX (V/m) @ t=0.06
0.6306584686241801
% es.EY (V/m) @ t=0.06
0.09443310724580017
% es.EZ (V/m) @ t=0.06
-0.6297379236042782
% es.tEX (V/m) @ t=0.06
0.6306584686241834
% es.tEY (V/m) @ t=0.06
0
% es.tEZ (V/m) @ t=0.06
-0.6297379236042673
% es.Ex (V/m) @ t=0.06
0.6306584686241801
% es.Ey (V/m) @ t=0.06
0.09443310724580017
% es.Ez (V/m) @ t=0.06
-0.6297379236042782
% es.tEx (V/m) @ t=0.06
0.6306584686241834
% es.tEy (V/m) @ t=0.06
0
% es.tEz (V/m) @ t=0.06
-0.6297379236042673
% V (V) @ t=0.06
0.009722810785071737
% es.normE (V/m) @ t=0.08
0.9163438316791386
% es.EX (V/m) @ t=0.08
0.6364999050220157
% es.EY (V/m) @ t=0.08
0.09530777890561581
% es.EZ (V/m) @ t=0.08
-0.635570835654182
% es.tEX (V/m) @ t=0.08
0.6364999050220157
% es.tEY (V/m) @ t=0.08
0
% es.tEZ (V/m) @ t=0.08
-0.6355708356541712
% es.Ex (V/m) @ t=0.08
0.6364999050220157
% es.Ey (V/m) @ t=0.08
0.09530777890561581
% es.Ez (V/m) @ t=0.08
-0.635570835654182
% es.tEx (V/m) @ t=0.08
0.6364999050220157
% es.tEy (V/m) @ t=0.08
0
% es.tEz (V/m) @ t=0.08
-0.6355708356541712
% V (V) @ t=0.08
0.009812868126858675
% es.normE (V/m) @ t=0.1
0.9248198459294328
% es.EX (V/m) @ t=0.1
0.6423874144323616
% es.EY (V/m) @ t=0.1
0.09618934842596166
% es.EZ (V/m) @ t=0.1
-0.6414497536954216
% es.tEX (V/m) @ t=0.1
0.6423874144323687
% es.tEY (V/m) @ t=0.1
0
% es.tEZ (V/m) @ t=0.1
-0.6414497536954071
% es.Ex (V/m) @ t=0.1
0.6423874144323616
% es.Ey (V/m) @ t=0.1
0.09618934842596166
% es.Ez (V/m) @ t=0.1
-0.6414497536954216
% es.tEx (V/m) @ t=0.1
0.6423874144323687
% es.tEy (V/m) @ t=0.1
0
% es.tEz (V/m) @ t=0.1
-0.6414497536954071
% V (V) @ t=0.1
0.009903635813808985
% es.normE (V/m) @ t=0.12
0.9332958601797284
% es.EX (V/m) @ t=0.12
0.6482749238427095
% es.EY (V/m) @ t=0.12
0.09707091794629441
% es.EZ (V/m) @ t=0.12
-0.6473286717366606
% es.tEX (V/m) @ t=0.12
0.648274923842715
% es.tEY (V/m) @ t=0.12
0
% es.tEZ (V/m) @ t=0.12
-0.6473286717366498
% es.Ex (V/m) @ t=0.12
0.6482749238427095
% es.Ey (V/m) @ t=0.12
0.09707091794629441
% es.Ez (V/m) @ t=0.12
-0.6473286717366606
% es.tEx (V/m) @ t=0.12
0.648274923842715
% es.tEy (V/m) @ t=0.12
0
% es.tEz (V/m) @ t=0.12
-0.6473286717366498
% V (V) @ t=0.12
0.009994403500759292
% es.normE (V/m) @ t=0.14
0.9419353311132543
% es.EX (V/m) @ t=0.14
0.6542759716485165
% es.EY (V/m) @ t=0.14
0.09796948776283976
% es.EZ (V/m) @ t=0.14
-0.6533209625833956
% es.tEX (V/m) @ t=0.14
0.6542759716485196
% es.tEY (V/m) @ t=0.14
0
% es.tEZ (V/m) @ t=0.14
-0.653320962583388
% es.Ex (V/m) @ t=0.14
0.6542759716485165
% es.Ey (V/m) @ t=0.14
0.09796948776283976
% es.Ez (V/m) @ t=0.14
-0.6533209625833956
% es.tEx (V/m) @ t=0.14
0.6542759716485196
% es.tEy (V/m) @ t=0.14
0
% es.tEz (V/m) @ t=0.14
-0.653320962583388
% V (V) @ t=0.14
0.01008692162561467
% es.normE (V/m) @ t=0.16
0.9508508648894076
% es.EX (V/m) @ t=0.16
0.6604687750410365
% es.EY (V/m) @ t=0.16
0.09889676946810377
% es.EZ (V/m) @ t=0.16
-0.6595047293511236
% es.tEX (V/m) @ t=0.16
0.6604687750410378
% es.tEY (V/m) @ t=0.16
0
% es.tEZ (V/m) @ t=0.16
-0.6595047293511125
% es.Ex (V/m) @ t=0.16
0.6604687750410365
% es.Ey (V/m) @ t=0.16
0.09889676946810377
% es.Ez (V/m) @ t=0.16
-0.6595047293511236
% es.tEx (V/m) @ t=0.16
0.6604687750410378
% es.tEy (V/m) @ t=0.16
0
% es.tEz (V/m) @ t=0.16
-0.6595047293511125
% V (V) @ t=0.16
0.010182396074153692
% es.normE (V/m) @ t=0.18
0.9597663986655496
% es.EX (V/m) @ t=0.18
0.6666615784335574
% es.EY (V/m) @ t=0.18
0.09982405117337234
% es.EZ (V/m) @ t=0.18
-0.6656884961188332
% es.tEX (V/m) @ t=0.18
0.6666615784335637
% es.tEY (V/m) @ t=0.18
0
% es.tEZ (V/m) @ t=0.18
-0.6656884961188223
% es.Ex (V/m) @ t=0.18
0.6666615784335574
% es.Ey (V/m) @ t=0.18
0.09982405117337234
% es.Ez (V/m) @ t=0.18
-0.6656884961188332
% es.tEx (V/m) @ t=0.18
0.6666615784335637
% es.tEy (V/m) @ t=0.18
0
% es.tEz (V/m) @ t=0.18
-0.6656884961188223
% V (V) @ t=0.18
0.01027787052269271
% es.normE (V/m) @ t=0.2
0.9686819324417029
% es.EX (V/m) @ t=0.2
0.6728543818260815
% es.EY (V/m) @ t=0.2
0.10075133287865962
% es.EZ (V/m) @ t=0.2
-0.6718722628865537
% es.tEX (V/m) @ t=0.2
0.6728543818260824
% es.tEY (V/m) @ t=0.2
0
% es.tEZ (V/m) @ t=0.2
-0.6718722628865463
% es.Ex (V/m) @ t=0.2
0.6728543818260815
% es.Ey (V/m) @ t=0.2
0.10075133287865962
% es.Ez (V/m) @ t=0.2
-0.6718722628865537
% es.tEx (V/m) @ t=0.2
0.6728543818260824
% es.tEy (V/m) @ t=0.2
0
% es.tEz (V/m) @ t=0.2
-0.6718722628865463
% V (V) @ t=0.2
0.010373344971231734
% es.normE (V/m) @ t=0.22
0.9775974662178601
% es.EX (V/m) @ t=0.22
0.679047185218602
% es.EY (V/m) @ t=0.22
0.10167861458391864
% es.EZ (V/m) @ t=0.22
-0.6780560296542846
% es.tEX (V/m) @ t=0.22
0.6790471852186011
% es.tEY (V/m) @ t=0.22
0
% es.tEZ (V/m) @ t=0.22
-0.6780560296542699
% es.Ex (V/m) @ t=0.22
0.679047185218602
% es.Ey (V/m) @ t=0.22
0.10167861458391864
% es.Ez (V/m) @ t=0.22
-0.6780560296542846
% es.tEx (V/m) @ t=0.22
0.6790471852186011
% es.tEy (V/m) @ t=0.22
0
% es.tEz (V/m) @ t=0.22
-0.6780560296542699
% V (V) @ t=0.22
0.010468819419770755
% es.normE (V/m) @ t=0.24
0.9865129999940153
% es.EX (V/m) @ t=0.24
0.6852399886111236
% es.EY (V/m) @ t=0.24
0.10260589628919686
% es.EZ (V/m) @ t=0.24
-0.6842397964220128
% es.tEX (V/m) @ t=0.24
0.6852399886111269
% es.tEY (V/m) @ t=0.24
0
% es.tEZ (V/m) @ t=0.24
-0.684239796422002
% es.Ex (V/m) @ t=0.24
0.6852399886111236
% es.Ey (V/m) @ t=0.24
0.10260589628919686
% es.Ez (V/m) @ t=0.24
-0.6842397964220128
% es.tEx (V/m) @ t=0.24
0.6852399886111269
% es.tEy (V/m) @ t=0.24
0
% es.tEz (V/m) @ t=0.24
-0.684239796422002
% V (V) @ t=0.24
0.010564293868309774
% es.normE (V/m) @ t=0.26
0.9954285337701697
% es.EX (V/m) @ t=0.26
0.6914327920036485
% es.EY (V/m) @ t=0.26
0.10353317799446365
% es.EZ (V/m) @ t=0.26
-0.6904235631897331
% es.tEX (V/m) @ t=0.26
0.69143279200365
% es.tEY (V/m) @ t=0.26
0
% es.tEZ (V/m) @ t=0.26
-0.6904235631897255
% es.Ex (V/m) @ t=0.26
0.6914327920036485
% es.Ey (V/m) @ t=0.26
0.10353317799446365
% es.Ez (V/m) @ t=0.26
-0.6904235631897331
% es.tEx (V/m) @ t=0.26
0.69143279200365
% es.tEy (V/m) @ t=0.26
0
% es.tEz (V/m) @ t=0.26
-0.6904235631897255
% V (V) @ t=0.26
0.010659768316848795
% es.normE (V/m) @ t=0.28
1.0050860966623434
% es.EX (V/m) @ t=0.28
0.6981409825842457
% es.EY (V/m) @ t=0.28
0.10453808391476821
% es.EZ (V/m) @ t=0.28
-0.6971218618037704
% es.tEX (V/m) @ t=0.28
0.6981409825842455
% es.tEY (V/m) @ t=0.28
0
% es.tEZ (V/m) @ t=0.28
-0.6971218618037596
% es.Ex (V/m) @ t=0.28
0.6981409825842457
% es.Ey (V/m) @ t=0.28
0.10453808391476821
% es.Ez (V/m) @ t=0.28
-0.6971218618037704
% es.tEx (V/m) @ t=0.28
0.6981409825842455
% es.tEy (V/m) @ t=0.28
0
% es.tEz (V/m) @ t=0.28
-0.6971218618037596
% V (V) @ t=0.28
0.01076316979714903
% es.normE (V/m) @ t=0.3
1.0149864173317584
% es.EX (V/m) @ t=0.3
0.7050177841333236
% es.EY (V/m) @ t=0.3
0.10556838490576542
% es.EZ (V/m) @ t=0.3
-0.7039884915578365
% es.tEX (V/m) @ t=0.3
0.7050177841333234
% es.tEY (V/m) @ t=0.3
0
% es.tEZ (V/m) @ t=0.3
-0.7039884915578183
% es.Ex (V/m) @ t=0.3
0.7050177841333236
% es.Ey (V/m) @ t=0.3
0.10556838490576542
% es.Ez (V/m) @ t=0.3
-0.7039884915578365
% es.tEx (V/m) @ t=0.3
0.7050177841333234
% es.tEy (V/m) @ t=0.3
0
% es.tEz (V/m) @ t=0.3
-0.7039884915578183
% V (V) @ t=0.3
0.010869164637418974
% es.normE (V/m) @ t=0.32
1.0248867380018183
% es.EX (V/m) @ t=0.32
0.7118945856823937
% es.EY (V/m) @ t=0.32
0.10659868589678467
% es.EZ (V/m) @ t=0.32
-0.7108551213119174
% es.tEX (V/m) @ t=0.32
0.7118945856823968
% es.tEY (V/m) @ t=0.32
0
% es.tEZ (V/m) @ t=0.32
-0.7108551213119068
% es.Ex (V/m) @ t=0.32
0.7118945856823937
% es.Ey (V/m) @ t=0.32
0.10659868589678467
% es.Ez (V/m) @ t=0.32
-0.7108551213119174
% es.tEx (V/m) @ t=0.32
0.7118945856823968
% es.tEy (V/m) @ t=0.32
0
% es.tEz (V/m) @ t=0.32
-0.7108551213119068
% V (V) @ t=0.32
0.010975159477688914
% es.normE (V/m) @ t=0.34
1.0347870586724994
% es.EX (V/m) @ t=0.34
0.7187713872314705
% es.EY (V/m) @ t=0.34
0.10762898688779482
% es.EZ (V/m) @ t=0.34
-0.7177217510659912
% es.tEX (V/m) @ t=0.34
0.7187713872314703
% es.tEY (V/m) @ t=0.34
0
% es.tEZ (V/m) @ t=0.34
-0.7177217510659801
% es.Ex (V/m) @ t=0.34
0.7187713872314705
% es.Ey (V/m) @ t=0.34
0.10762898688779482
% es.Ez (V/m) @ t=0.34
-0.7177217510659912
% es.tEx (V/m) @ t=0.34
0.7187713872314703
% es.tEy (V/m) @ t=0.34
0
% es.tEz (V/m) @ t=0.34
-0.7177217510659801
% V (V) @ t=0.34
0.011081154317958856
% es.normE (V/m) @ t=0.36
1.0446873793437947
% es.EX (V/m) @ t=0.36
0.7256481887805422
% es.EY (V/m) @ t=0.36
0.10865928787881762
% es.EZ (V/m) @ t=0.36
-0.7245883808200753
% es.tEX (V/m) @ t=0.36
0.7256481887805437
% es.tEY (V/m) @ t=0.36
0
% es.tEZ (V/m) @ t=0.36
-0.7245883808200677
% es.Ex (V/m) @ t=0.36
0.7256481887805422
% es.Ey (V/m) @ t=0.36
0.10865928787881762
% es.Ez (V/m) @ t=0.36
-0.7245883808200753
% es.tEx (V/m) @ t=0.36
0.7256481887805437
% es.tEy (V/m) @ t=0.36
0
% es.tEz (V/m) @ t=0.36
-0.7245883808200677
% V (V) @ t=0.36
0.0111871491582288
% es.normE (V/m) @ t=0.38
1.0545877000156665
% es.EX (V/m) @ t=0.38
0.73252499032962
% es.EY (V/m) @ t=0.38
0.10968958886983154
% es.EZ (V/m) @ t=0.38
-0.731455010574138
% es.tEX (V/m) @ t=0.38
0.7325249903296278
% es.tEY (V/m) @ t=0.38
0
% es.tEZ (V/m) @ t=0.38
-0.731455010574134
% es.Ex (V/m) @ t=0.38
0.73252499032962
% es.Ey (V/m) @ t=0.38
0.10968958886983154
% es.Ez (V/m) @ t=0.38
-0.731455010574138
% es.tEx (V/m) @ t=0.38
0.7325249903296278
% es.tEy (V/m) @ t=0.38
0
% es.tEz (V/m) @ t=0.38
-0.731455010574134
% V (V) @ t=0.38
0.01129314399849874
% es.normE (V/m) @ t=0.4
1.064488020688124
% es.EX (V/m) @ t=0.4
0.7394017918786973
% es.EY (V/m) @ t=0.4
0.11071988986083653
% es.EZ (V/m) @ t=0.4
-0.7383216403282256
% es.tEX (V/m) @ t=0.4
0.7394017918787013
% es.tEY (V/m) @ t=0.4
0
% es.tEZ (V/m) @ t=0.4
-0.7383216403282216
% es.Ex (V/m) @ t=0.4
0.7394017918786973
% es.Ey (V/m) @ t=0.4
0.11071988986083653
% es.Ez (V/m) @ t=0.4
-0.7383216403282256
% es.tEx (V/m) @ t=0.4
0.7394017918787013
% es.tEy (V/m) @ t=0.4
0
% es.tEz (V/m) @ t=0.4
-0.7383216403282216
% V (V) @ t=0.4
0.011399138838768683
% es.normE (V/m) @ t=0.42
1.0743883413611242
% es.EX (V/m) @ t=0.42
0.7462785934277767
% es.EY (V/m) @ t=0.42
0.11175019085185295
% es.EZ (V/m) @ t=0.42
-0.7451882700822856
% es.tEX (V/m) @ t=0.42
0.7462785934277756
% es.tEY (V/m) @ t=0.42
0
% es.tEZ (V/m) @ t=0.42
-0.7451882700822745
% es.Ex (V/m) @ t=0.42
0.7462785934277767
% es.Ey (V/m) @ t=0.42
0.11175019085185295
% es.Ez (V/m) @ t=0.42
-0.7451882700822856
% es.tEx (V/m) @ t=0.42
0.7462785934277756
% es.tEy (V/m) @ t=0.42
0
% es.tEz (V/m) @ t=0.42
-0.7451882700822745
% V (V) @ t=0.42
0.011505133679038623
% es.normE (V/m) @ t=0.44
1.0842886620346794
% es.EX (V/m) @ t=0.44
0.7531553949768528
% es.EY (V/m) @ t=0.44
0.1127804918428475
% es.EZ (V/m) @ t=0.44
-0.7520548998363661
% es.tEX (V/m) @ t=0.44
0.7531553949768597
% es.tEY (V/m) @ t=0.44
0
% es.tEZ (V/m) @ t=0.44
-0.7520548998363479
% es.Ex (V/m) @ t=0.44
0.7531553949768528
% es.Ey (V/m) @ t=0.44
0.1127804918428475
% es.Ez (V/m) @ t=0.44
-0.7520548998363661
% es.tEx (V/m) @ t=0.44
0.7531553949768597
% es.tEy (V/m) @ t=0.44
0
% es.tEz (V/m) @ t=0.44
-0.7520548998363479
% V (V) @ t=0.44
0.011611128519308568
% es.normE (V/m) @ t=0.46
1.094188982708747
% es.EX (V/m) @ t=0.46
0.7600321965259236
% es.EY (V/m) @ t=0.46
0.11381079283385787
% es.EZ (V/m) @ t=0.46
-0.7589215295904359
% es.tEX (V/m) @ t=0.46
0.760032196525926
% es.tEY (V/m) @ t=0.46
0
% es.tEZ (V/m) @ t=0.46
-0.7589215295904213
% es.Ex (V/m) @ t=0.46
0.7600321965259236
% es.Ey (V/m) @ t=0.46
0.11381079283385787
% es.Ez (V/m) @ t=0.46
-0.7589215295904359
% es.tEx (V/m) @ t=0.46
0.760032196525926
% es.tEy (V/m) @ t=0.46
0
% es.tEz (V/m) @ t=0.46
-0.7589215295904213
% V (V) @ t=0.46
0.011717123359578507
% es.normE (V/m) @ t=0.48
1.1040893033833372
% es.EX (V/m) @ t=0.48
0.766908998075001
% es.EY (V/m) @ t=0.48
0.11484109382485669
% es.EZ (V/m) @ t=0.48
-0.7657881593445128
% es.tEX (V/m) @ t=0.48
0.7669089980749995
% es.tEY (V/m) @ t=0.48
0
% es.tEZ (V/m) @ t=0.48
-0.7657881593444946
% es.Ex (V/m) @ t=0.48
0.766908998075001
% es.Ey (V/m) @ t=0.48
0.11484109382485669
% es.Ez (V/m) @ t=0.48
-0.7657881593445128
% es.tEx (V/m) @ t=0.48
0.7669089980749995
% es.tEy (V/m) @ t=0.48
0
% es.tEz (V/m) @ t=0.48
-0.7657881593444946
% V (V) @ t=0.48
0.011823118199848449
% es.normE (V/m) @ t=0.5
1.1139896240584268
% es.EX (V/m) @ t=0.5
0.7737857996240767
% es.EY (V/m) @ t=0.5
0.1158713948158917
% es.EZ (V/m) @ t=0.5
-0.7726547890985906
% es.tEX (V/m) @ t=0.5
0.7737857996240809
% es.tEY (V/m) @ t=0.5
0
% es.tEZ (V/m) @ t=0.5
-0.772654789098576
% es.Ex (V/m) @ t=0.5
0.7737857996240767
% es.Ey (V/m) @ t=0.5
0.1158713948158917
% es.Ez (V/m) @ t=0.5
-0.7726547890985906
% es.tEx (V/m) @ t=0.5
0.7737857996240809
% es.tEy (V/m) @ t=0.5
0
% es.tEz (V/m) @ t=0.5
-0.772654789098576
% V (V) @ t=0.5
0.011929113040118391
% es.normE (V/m) @ t=0.52
1.123889944733989
% es.EX (V/m) @ t=0.52
0.7806626011731506
% es.EY (V/m) @ t=0.52
0.11690169580689408
% es.EZ (V/m) @ t=0.52
-0.7795214188526569
% es.tEX (V/m) @ t=0.52
0.7806626011731543
% es.tEY (V/m) @ t=0.52
0
% es.tEZ (V/m) @ t=0.52
-0.7795214188526423
% es.Ex (V/m) @ t=0.52
0.7806626011731506
% es.Ey (V/m) @ t=0.52
0.11690169580689408
% es.Ez (V/m) @ t=0.52
-0.7795214188526569
% es.tEx (V/m) @ t=0.52
0.7806626011731543
% es.tEy (V/m) @ t=0.52
0
% es.tEz (V/m) @ t=0.52
-0.7795214188526423
% V (V) @ t=0.52
0.012035107880388331
% es.normE (V/m) @ t=0.54
1.1343656620525362
% es.EX (V/m) @ t=0.54
0.7879391211340392
% es.EY (V/m) @ t=0.54
0.11799124543721656
% es.EZ (V/m) @ t=0.54
-0.7867873214593146
% es.tEX (V/m) @ t=0.54
0.7879391211340381
% es.tEY (V/m) @ t=0.54
0
% es.tEZ (V/m) @ t=0.54
-0.786787321459304
% es.Ex (V/m) @ t=0.54
0.7879391211340392
% es.Ey (V/m) @ t=0.54
0.11799124543721656
% es.Ez (V/m) @ t=0.54
-0.7867873214593146
% es.tEx (V/m) @ t=0.54
0.7879391211340381
% es.tEy (V/m) @ t=0.54
0
% es.tEz (V/m) @ t=0.54
-0.786787321459304
% V (V) @ t=0.54
0.012147290102313604
% es.normE (V/m) @ t=0.56
1.1453796269049064
% es.EX (V/m) @ t=0.56
0.7955895526425707
% es.EY (V/m) @ t=0.56
0.11913621846001399
% es.EZ (V/m) @ t=0.56
-0.7944267188208864
% es.tEX (V/m) @ t=0.56
0.7955895526425723
% es.tEY (V/m) @ t=0.56
0
% es.tEZ (V/m) @ t=0.56
-0.7944267188208753
% es.Ex (V/m) @ t=0.56
0.7955895526425707
% es.Ey (V/m) @ t=0.56
0.11913621846001399
% es.Ez (V/m) @ t=0.56
-0.7944267188208864
% es.tEx (V/m) @ t=0.56
0.7955895526425723
% es.tEy (V/m) @ t=0.56
0
% es.tEz (V/m) @ t=0.56
-0.7944267188208753
% V (V) @ t=0.56
0.012265260232382148
% es.normE (V/m) @ t=0.58
1.1563935917580017
% es.EX (V/m) @ t=0.58
0.8032399841511064
% es.EY (V/m) @ t=0.58
0.12028119148280053
% es.EZ (V/m) @ t=0.58
-0.8020661161824658
% es.tEX (V/m) @ t=0.58
0.8032399841511078
% es.tEY (V/m) @ t=0.58
0
% es.tEZ (V/m) @ t=0.58
-0.8020661161824476
% es.Ex (V/m) @ t=0.58
0.8032399841511064
% es.Ey (V/m) @ t=0.58
0.12028119148280053
% es.Ez (V/m) @ t=0.58
-0.8020661161824658
% es.tEx (V/m) @ t=0.58
0.8032399841511078
% es.tEy (V/m) @ t=0.58
0
% es.tEz (V/m) @ t=0.58
-0.8020661161824476
% V (V) @ t=0.58
0.012383230362450691
% es.normE (V/m) @ t=0.6
1.1674075566117765
% es.EX (V/m) @ t=0.6
0.8108904156596417
% es.EY (V/m) @ t=0.6
0.12142616450562543
% es.EZ (V/m) @ t=0.6
-0.809705513544031
% es.tEX (V/m) @ t=0.6
0.8108904156596437
% es.tEY (V/m) @ t=0.6
0
% es.tEZ (V/m) @ t=0.6
-0.8097055135440199
% es.Ex (V/m) @ t=0.6
0.8108904156596417
% es.Ey (V/m) @ t=0.6
0.12142616450562543
% es.Ez (V/m) @ t=0.6
-0.809705513544031
% es.tEx (V/m) @ t=0.6
0.8108904156596437
% es.tEy (V/m) @ t=0.6
0
% es.tEz (V/m) @ t=0.6
-0.8097055135440199
% V (V) @ t=0.6
0.012501200492519236
% es.normE (V/m) @ t=0.62
1.178421521466233
% es.EX (V/m) @ t=0.62
0.8185408471681814
% es.EY (V/m) @ t=0.62
0.12257113752842425
% es.EZ (V/m) @ t=0.62
-0.8173449109055997
% es.tEX (V/m) @ t=0.62
0.8185408471681863
% es.tEY (V/m) @ t=0.62
0
% es.tEZ (V/m) @ t=0.62
-0.817344910905585
% es.Ex (V/m) @ t=0.62
0.8185408471681814
% es.Ey (V/m) @ t=0.62
0.12257113752842425
% es.Ez (V/m) @ t=0.62
-0.8173449109055997
% es.tEx (V/m) @ t=0.62
0.8185408471681863
% es.tEy (V/m) @ t=0.62
0
% es.tEz (V/m) @ t=0.62
-0.817344910905585
% V (V) @ t=0.62
0.012619170622587782
% es.normE (V/m) @ t=0.64
1.1894354863213326
% es.EX (V/m) @ t=0.64
0.8261912786767207
% es.EY (V/m) @ t=0.64
0.12371611055121456
% es.EZ (V/m) @ t=0.64
-0.8249843082671577
% es.tEX (V/m) @ t=0.64
0.8261912786767223
% es.tEY (V/m) @ t=0.64
0
% es.tEZ (V/m) @ t=0.64
-0.8249843082671431
% es.Ex (V/m) @ t=0.64
0.8261912786767207
% es.Ey (V/m) @ t=0.64
0.12371611055121456
% es.Ez (V/m) @ t=0.64
-0.8249843082671577
% es.tEx (V/m) @ t=0.64
0.8261912786767223
% es.tEy (V/m) @ t=0.64
0
% es.tEz (V/m) @ t=0.64
-0.8249843082671431
% V (V) @ t=0.64
0.012737140752656324
% es.normE (V/m) @ t=0.66
1.200449451177083
% es.EX (V/m) @ t=0.66
0.8338417101852491
% es.EY (V/m) @ t=0.66
0.1248610835740197
% es.EZ (V/m) @ t=0.66
-0.8326237056287473
% es.tEX (V/m) @ t=0.66
0.8338417101852582
% es.tEY (V/m) @ t=0.66
0
% es.tEZ (V/m) @ t=0.66
-0.8326237056287296
% es.Ex (V/m) @ t=0.66
0.8338417101852491
% es.Ey (V/m) @ t=0.66
0.1248610835740197
% es.Ez (V/m) @ t=0.66
-0.8326237056287473
% es.tEx (V/m) @ t=0.66
0.8338417101852582
% es.tEy (V/m) @ t=0.66
0
% es.tEz (V/m) @ t=0.66
-0.8326237056287296
% V (V) @ t=0.66
0.01285511088272487
% es.normE (V/m) @ t=0.68
1.2114634160334579
% es.EX (V/m) @ t=0.68
0.8414921416937939
% es.EY (V/m) @ t=0.68
0.1260060565968445
% es.EZ (V/m) @ t=0.68
-0.8402631029903236
% es.tEX (V/m) @ t=0.68
0.8414921416937955
% es.tEY (V/m) @ t=0.68
0
% es.tEZ (V/m) @ t=0.68
-0.8402631029903089
% es.Ex (V/m) @ t=0.68
0.8414921416937939
% es.Ey (V/m) @ t=0.68
0.1260060565968445
% es.Ez (V/m) @ t=0.68
-0.8402631029903236
% es.tEx (V/m) @ t=0.68
0.8414921416937955
% es.tEy (V/m) @ t=0.68
0
% es.tEz (V/m) @ t=0.68
-0.8402631029903089
% V (V) @ t=0.68
0.012973081012793415
% es.normE (V/m) @ t=0.7
1.2224773808904197
% es.EX (V/m) @ t=0.7
0.8491425732023286
% es.EY (V/m) @ t=0.7
0.12715102961962504
% es.EZ (V/m) @ t=0.7
-0.8479025003518923
% es.tEX (V/m) @ t=0.7
0.8491425732023323
% es.tEY (V/m) @ t=0.7
0
% es.tEZ (V/m) @ t=0.7
-0.8479025003518741
% es.Ex (V/m) @ t=0.7
0.8491425732023286
% es.Ey (V/m) @ t=0.7
0.12715102961962504
% es.Ez (V/m) @ t=0.7
-0.8479025003518923
% es.tEx (V/m) @ t=0.7
0.8491425732023323
% es.tEy (V/m) @ t=0.7
0
% es.tEz (V/m) @ t=0.7
-0.8479025003518741
% V (V) @ t=0.7
0.013091051142861958
% es.normE (V/m) @ t=0.72
1.2334913457479602
% es.EX (V/m) @ t=0.72
0.8567930047108627
% es.EY (V/m) @ t=0.72
0.1282960026424238
% es.EZ (V/m) @ t=0.72
-0.8555418977134503
% es.tEX (V/m) @ t=0.72
0.8567930047108678
% es.tEY (V/m) @ t=0.72
0
% es.tEZ (V/m) @ t=0.72
-0.8555418977134321
% es.Ex (V/m) @ t=0.72
0.8567930047108627
% es.Ey (V/m) @ t=0.72
0.1282960026424238
% es.Ez (V/m) @ t=0.72
-0.8555418977134503
% es.tEx (V/m) @ t=0.72
0.8567930047108678
% es.tEy (V/m) @ t=0.72
0
% es.tEz (V/m) @ t=0.72
-0.8555418977134321
% V (V) @ t=0.72
0.013209021272930504
% es.normE (V/m) @ t=0.74
1.2445053106060846
% es.EX (V/m) @ t=0.74
0.8644434362194027
% es.EY (V/m) @ t=0.74
0.12944097566523882
% es.EZ (V/m) @ t=0.74
-0.863181295075016
% es.tEX (V/m) @ t=0.74
0.8644434362194025
% es.tEY (V/m) @ t=0.74
0
% es.tEZ (V/m) @ t=0.74
-0.8631812950749982
% es.Ex (V/m) @ t=0.74
0.8644434362194027
% es.Ey (V/m) @ t=0.74
0.12944097566523882
% es.Ez (V/m) @ t=0.74
-0.863181295075016
% es.tEx (V/m) @ t=0.74
0.8644434362194025
% es.tEy (V/m) @ t=0.74
0
% es.tEz (V/m) @ t=0.74
-0.8631812950749982
% V (V) @ t=0.74
0.013326991402999049
% es.normE (V/m) @ t=0.76
1.255519275464764
% es.EX (V/m) @ t=0.76
0.8720938677279355
% es.EY (V/m) @ t=0.76
0.13058594868804663
% es.EZ (V/m) @ t=0.76
-0.8708206924365913
% es.tEX (V/m) @ t=0.76
0.8720938677279348
% es.tEY (V/m) @ t=0.76
0
% es.tEZ (V/m) @ t=0.76
-0.8708206924365767
% es.Ex (V/m) @ t=0.76
0.8720938677279355
% es.Ey (V/m) @ t=0.76
0.13058594868804663
% es.Ez (V/m) @ t=0.76
-0.8708206924365913
% es.tEx (V/m) @ t=0.76
0.8720938677279348
% es.tEy (V/m) @ t=0.76
0
% es.tEz (V/m) @ t=0.76
-0.8708206924365767
% V (V) @ t=0.76
0.01344496153306759
% es.normE (V/m) @ t=0.78
1.2665332403239842
% es.EX (V/m) @ t=0.78
0.8797442992364755
% es.EY (V/m) @ t=0.78
0.13173092171082273
% es.EZ (V/m) @ t=0.78
-0.8784600897981671
% es.tEX (V/m) @ t=0.78
0.8797442992364735
% es.tEY (V/m) @ t=0.78
0
% es.tEZ (V/m) @ t=0.78
-0.878460089798156
% es.Ex (V/m) @ t=0.78
0.8797442992364755
% es.Ey (V/m) @ t=0.78
0.13173092171082273
% es.Ez (V/m) @ t=0.78
-0.8784600897981671
% es.tEx (V/m) @ t=0.78
0.8797442992364735
% es.tEy (V/m) @ t=0.78
0
% es.tEz (V/m) @ t=0.78
-0.878460089798156
% V (V) @ t=0.78
0.013562931663136137
% es.normE (V/m) @ t=0.8
1.2778993606723987
% es.EX (V/m) @ t=0.8
0.8876393297517393
% es.EY (V/m) @ t=0.8
0.13291267513082816
% es.EZ (V/m) @ t=0.8
-0.8863436938026639
% es.tEX (V/m) @ t=0.8
0.8876393297517442
% es.tEY (V/m) @ t=0.8
0
% es.tEZ (V/m) @ t=0.8
-0.8863436938026528
% es.Ex (V/m) @ t=0.8
0.8876393297517393
% es.Ey (V/m) @ t=0.8
0.13291267513082816
% es.Ez (V/m) @ t=0.8
-0.8863436938026639
% es.tEx (V/m) @ t=0.8
0.8876393297517442
% es.tEy (V/m) @ t=0.8
0
% es.tEz (V/m) @ t=0.8
-0.8863436938026528
% V (V) @ t=0.8
0.013684666361977052
% es.normE (V/m) @ t=0.82
1.2901716255415319
% es.EX (V/m) @ t=0.82
0.8961637471623105
% es.EY (V/m) @ t=0.82
0.1341890695728732
% es.EZ (V/m) @ t=0.82
-0.8948556750964074
% es.tEX (V/m) @ t=0.82
0.8961637471623138
% es.tEY (V/m) @ t=0.82
0
% es.tEZ (V/m) @ t=0.82
-0.8948556750963927
% es.Ex (V/m) @ t=0.82
0.8961637471623105
% es.Ey (V/m) @ t=0.82
0.1341890695728732
% es.Ez (V/m) @ t=0.82
-0.8948556750964074
% es.tEx (V/m) @ t=0.82
0.8961637471623138
% es.tEy (V/m) @ t=0.82
0
% es.tEz (V/m) @ t=0.82
-0.8948556750963927
% V (V) @ t=0.82
0.01381608781418421
% es.normE (V/m) @ t=0.84
1.3024438904106748
% es.EX (V/m) @ t=0.84
0.9046881645728762
% es.EY (V/m) @ t=0.84
0.13546546401491893
% es.EZ (V/m) @ t=0.84
-0.9033676563901651
% es.tEX (V/m) @ t=0.84
0.9046881645728733
% es.tEY (V/m) @ t=0.84
0
% es.tEZ (V/m) @ t=0.84
-0.9033676563901469
% es.Ex (V/m) @ t=0.84
0.9046881645728762
% es.Ey (V/m) @ t=0.84
0.13546546401491893
% es.Ez (V/m) @ t=0.84
-0.9033676563901651
% es.tEx (V/m) @ t=0.84
0.9046881645728733
% es.tEy (V/m) @ t=0.84
0
% es.tEz (V/m) @ t=0.84
-0.9033676563901469
% V (V) @ t=0.84
0.013947509266391368
% es.normE (V/m) @ t=0.86
1.3147161552798239
% es.EX (V/m) @ t=0.86
0.9132125819834551
% es.EY (V/m) @ t=0.86
0.13674185845696768
% es.EZ (V/m) @ t=0.86
-0.9118796376839193
% es.tEX (V/m) @ t=0.86
0.9132125819834598
% es.tEY (V/m) @ t=0.86
0
% es.tEZ (V/m) @ t=0.86
-0.9118796376839082
% es.Ex (V/m) @ t=0.86
0.9132125819834551
% es.Ey (V/m) @ t=0.86
0.13674185845696768
% es.Ez (V/m) @ t=0.86
-0.9118796376839193
% es.tEx (V/m) @ t=0.86
0.9132125819834598
% es.tEy (V/m) @ t=0.86
0
% es.tEz (V/m) @ t=0.86
-0.9118796376839082
% V (V) @ t=0.86
0.014078930718598528
% es.normE (V/m) @ t=0.88
1.326988420148962
% es.EX (V/m) @ t=0.88
0.9217369993940132
% es.EY (V/m) @ t=0.88
0.13801825289900121
% es.EZ (V/m) @ t=0.88
-0.9203916189776806
% es.tEX (V/m) @ t=0.88
0.9217369993940179
% es.tEY (V/m) @ t=0.88
0
% es.tEZ (V/m) @ t=0.88
-0.9203916189776624
% es.Ex (V/m) @ t=0.88
0.9217369993940132
% es.Ey (V/m) @ t=0.88
0.13801825289900121
% es.Ez (V/m) @ t=0.88
-0.9203916189776806
% es.tEx (V/m) @ t=0.88
0.9217369993940179
% es.tEy (V/m) @ t=0.88
0
% es.tEz (V/m) @ t=0.88
-0.9203916189776624
% V (V) @ t=0.88
0.014210352170805685
% es.normE (V/m) @ t=0.9
1.339260685018116
% es.EX (V/m) @ t=0.9
0.9302614168045922
% es.EY (V/m) @ t=0.9
0.13929464734106334
% es.EZ (V/m) @ t=0.9
-0.9289036002714384
% es.tEX (V/m) @ t=0.9
0.9302614168045893
% es.tEY (V/m) @ t=0.9
0
% es.tEZ (V/m) @ t=0.9
-0.9289036002714237
% es.Ex (V/m) @ t=0.9
0.9302614168045922
% es.Ey (V/m) @ t=0.9
0.13929464734106334
% es.Ez (V/m) @ t=0.9
-0.9289036002714384
% es.tEx (V/m) @ t=0.9
0.9302614168045893
% es.tEy (V/m) @ t=0.9
0
% es.tEz (V/m) @ t=0.9
-0.9289036002714237
% V (V) @ t=0.9
0.014341773623012845
% es.normE (V/m) @ t=0.92
1.3515329498872624
% es.EX (V/m) @ t=0.92
0.9387858342151547
% es.EY (V/m) @ t=0.92
0.1405710417831046
% es.EZ (V/m) @ t=0.92
-0.9374155815651997
% es.tEX (V/m) @ t=0.92
0.9387858342151603
% es.tEY (V/m) @ t=0.92
0
% es.tEZ (V/m) @ t=0.92
-0.937415581565185
% es.Ex (V/m) @ t=0.92
0.9387858342151547
% es.Ey (V/m) @ t=0.92
0.1405710417831046
% es.Ez (V/m) @ t=0.92
-0.9374155815651997
% es.tEx (V/m) @ t=0.92
0.9387858342151603
% es.tEy (V/m) @ t=0.92
0
% es.tEz (V/m) @ t=0.92
-0.937415581565185
% V (V) @ t=0.92
0.014473195075220005
% es.normE (V/m) @ t=0.94
1.3638052147564084
% es.EX (V/m) @ t=0.94
0.9473102516257284
% es.EY (V/m) @ t=0.94
0.14184743622515
% es.EZ (V/m) @ t=0.94
-0.945927562858953
% es.tEX (V/m) @ t=0.94
0.947310251625733
% es.tEY (V/m) @ t=0.94
0
% es.tEZ (V/m) @ t=0.94
-0.9459275628589383
% es.Ex (V/m) @ t=0.94
0.9473102516257284
% es.Ey (V/m) @ t=0.94
0.14184743622515
% es.Ez (V/m) @ t=0.94
-0.945927562858953
% es.tEx (V/m) @ t=0.94
0.947310251625733
% es.tEy (V/m) @ t=0.94
0
% es.tEz (V/m) @ t=0.94
-0.9459275628589383
% V (V) @ t=0.94
0.014604616527427162
% es.normE (V/m) @ t=0.96
1.3760774796255466
% es.EX (V/m) @ t=0.96
0.955834669036294
% es.EY (V/m) @ t=0.96
0.1431238306671942
% es.EZ (V/m) @ t=0.96
-0.9544395441527
% es.tEX (V/m) @ t=0.96
0.9558346690362982
% es.tEY (V/m) @ t=0.96
0
% es.tEZ (V/m) @ t=0.96
-0.9544395441526854
% es.Ex (V/m) @ t=0.96
0.955834669036294
% es.Ey (V/m) @ t=0.96
0.1431238306671942
% es.Ez (V/m) @ t=0.96
-0.9544395441527
% es.tEx (V/m) @ t=0.96
0.9558346690362982
% es.tEy (V/m) @ t=0.96
0
% es.tEz (V/m) @ t=0.96
-0.9544395441526854
% V (V) @ t=0.96
0.014736037979634319
% es.normE (V/m) @ t=0.98
1.38834974449468
% es.EX (V/m) @ t=0.98
0.964359086446853
% es.EY (V/m) @ t=0.98
0.1444002251092497
% es.EZ (V/m) @ t=0.98
-0.9629515254464409
% es.tEX (V/m) @ t=0.98
0.9643590864468585
% es.tEY (V/m) @ t=0.98
0
% es.tEZ (V/m) @ t=0.98
-0.9629515254464263
% es.Ex (V/m) @ t=0.98
0.964359086446853
% es.Ey (V/m) @ t=0.98
0.1444002251092497
% es.Ez (V/m) @ t=0.98
-0.9629515254464409
% es.tEx (V/m) @ t=0.98
0.9643590864468585
% es.tEy (V/m) @ t=0.98
0
% es.tEz (V/m) @ t=0.98
-0.9629515254464263
% V (V) @ t=0.98
0.014867459431841482
% es.normE (V/m) @ t=1
1.4006220093638548
% es.EX (V/m) @ t=1
0.9728835038574333
% es.EY (V/m) @ t=1
0.14567661955128514
% es.EZ (V/m) @ t=1
-0.9714635067402191
% es.tEX (V/m) @ t=1
0.9728835038574379
% es.tEY (V/m) @ t=1
0
% es.tEZ (V/m) @ t=1
-0.9714635067402009
% es.Ex (V/m) @ t=1
0.9728835038574333
% es.Ey (V/m) @ t=1
0.14567661955128514
% es.Ez (V/m) @ t=1
-0.9714635067402191
% es.tEx (V/m) @ t=1
0.9728835038574379
% es.tEy (V/m) @ t=1
0
% es.tEz (V/m) @ t=1
-0.9714635067402009
% V (V) @ t=1
0.014998880884048639
% es.normE (V/m) @ t=1.02
1.4128942742330093
% es.EX (V/m) @ t=1.02
0.9814079212680007
% es.EY (V/m) @ t=1.02
0.14695301399333643
% es.EZ (V/m) @ t=1.02
-0.9799754880339813
% es.tEX (V/m) @ t=1.02
0.9814079212680045
% es.tEY (V/m) @ t=1.02
0
% es.tEZ (V/m) @ t=1.02
-0.9799754880339631
% es.Ex (V/m) @ t=1.02
0.9814079212680007
% es.Ey (V/m) @ t=1.02
0.14695301399333643
% es.Ez (V/m) @ t=1.02
-0.9799754880339813
% es.tEx (V/m) @ t=1.02
0.9814079212680045
% es.tEy (V/m) @ t=1.02
0
% es.tEz (V/m) @ t=1.02
-0.9799754880339631
% V (V) @ t=1.02
0.015130302336255796
% es.normE (V/m) @ t=1.04
1.4251665391021535
% es.EX (V/m) @ t=1.04
0.9899323386785743
% es.EY (V/m) @ t=1.04
0.14822940843538523
% es.EZ (V/m) @ t=1.04
-0.9884874693277204
% es.tEX (V/m) @ t=1.04