% Model:              1 neuron.mph
% Version:            COMSOL 6.1.0.252
% Date:               Mar 18 2023, 13:24
% Dimension:          0
% Nodes:              14017
% Expressions:        14017
% Description:        Electric field norm, Electric field, X component, Electric field, Y component, Electric field, Z component, Tangential electric field, X component, Tangential electric field, Y component, Tangential electric field, Z component, Electric field, x component, Electric field, y component, Electric field, z component, Tangential electric field, x component, Tangential electric field, y component, Tangential electric field, z component, Electric potential
% Length unit:        mm
% x
1.33
% y
12.2
% z
2
% es.normE (V/m) @ t=0
2.2049505484276364
% es.EX (V/m) @ t=0
0.8787562706152219
% es.EY (V/m) @ t=0
0.2323273636211809
% es.EZ (V/m) @ t=0
-2.007101671489295
% es.tEX (V/m) @ t=0
0.8787562706152223
% es.tEY (V/m) @ t=0
0
% es.tEZ (V/m) @ t=0
-2.0071016714893055
% es.Ex (V/m) @ t=0
0.8787562706152219
% es.Ey (V/m) @ t=0
0.2323273636211809
% es.Ez (V/m) @ t=0
-2.007101671489295
% es.tEx (V/m) @ t=0
0.8787562706152223
% es.tEy (V/m) @ t=0
0
% es.tEz (V/m) @ t=0
-2.0071016714893055
% V (V) @ t=0
0.011024947566500345
% es.normE (V/m) @ t=0.02
1.9044392075710432
% es.EX (V/m) @ t=0.02
0.7589911243939396
% es.EY (V/m) @ t=0.02
0.20066361186737147
% es.EZ (V/m) @ t=0.02
-1.7335550311008232
% es.tEX (V/m) @ t=0.02
0.75899112439394
% es.tEY (V/m) @ t=0.02
0
% es.tEZ (V/m) @ t=0.02
-1.7335550311008276
% es.Ex (V/m) @ t=0.02
0.7589911243939396
% es.Ey (V/m) @ t=0.02
0.20066361186737147
% es.Ez (V/m) @ t=0.02
-1.7335550311008232
% es.tEx (V/m) @ t=0.02
0.75899112439394
% es.tEy (V/m) @ t=0.02
0
% es.tEz (V/m) @ t=0.02
-1.7335550311008276
% V (V) @ t=0.02
0.00952236429631727
% es.normE (V/m) @ t=0.04
1.9219594213917612
% es.EX (V/m) @ t=0.04
0.7659735931439935
% es.EY (V/m) @ t=0.04
0.2025096516168814
% es.EZ (V/m) @ t=0.04
-1.7495031665908618
% es.tEX (V/m) @ t=0.04
0.7659735931439937
% es.tEY (V/m) @ t=0.04
0
% es.tEZ (V/m) @ t=0.04
-1.7495031665908698
% es.Ex (V/m) @ t=0.04
0.7659735931439935
% es.Ey (V/m) @ t=0.04
0.2025096516168814
% es.Ez (V/m) @ t=0.04
-1.7495031665908618
% es.tEx (V/m) @ t=0.04
0.7659735931439937
% es.tEy (V/m) @ t=0.04
0
% es.tEz (V/m) @ t=0.04
-1.7495031665908698
% V (V) @ t=0.04
0.00960996689177012
% es.normE (V/m) @ t=0.06
1.9396172787110153
% es.EX (V/m) @ t=0.06
0.7730109173559991
% es.EY (V/m) @ t=0.06
0.20437019274027168
% es.EZ (V/m) @ t=0.06
-1.7655765953539104
% es.tEX (V/m) @ t=0.06
0.7730109173559994
% es.tEY (V/m) @ t=0.06
0
% es.tEZ (V/m) @ t=0.06
-1.765576595353913
% es.Ex (V/m) @ t=0.06
0.7730109173559991
% es.Ey (V/m) @ t=0.06
0.20437019274027168
% es.Ez (V/m) @ t=0.06
-1.7655765953539104
% es.tEx (V/m) @ t=0.06
0.7730109173559994
% es.tEy (V/m) @ t=0.06
0
% es.tEz (V/m) @ t=0.06
-1.765576595353913
% V (V) @ t=0.06
0.0096982577802114
% es.normE (V/m) @ t=0.08
1.9575915313588486
% es.EX (V/m) @ t=0.08
0.7801743374193402
% es.EY (V/m) @ t=0.08
0.20626407203864083
% es.EZ (V/m) @ t=0.08
-1.781938029267116
% es.tEX (V/m) @ t=0.08
0.7801743374193406
% es.tEY (V/m) @ t=0.08
0
% es.tEZ (V/m) @ t=0.08
-1.7819380292671188
% es.Ex (V/m) @ t=0.08
0.7801743374193402
% es.Ey (V/m) @ t=0.08
0.20626407203864083
% es.Ez (V/m) @ t=0.08
-1.781938029267116
% es.tEx (V/m) @ t=0.08
0.7801743374193406
% es.tEy (V/m) @ t=0.08
0
% es.tEz (V/m) @ t=0.08
-1.7819380292671188
% V (V) @ t=0.08
0.009788130641146071
% es.normE (V/m) @ t=0.1
1.9756881560638437
% es.EX (V/m) @ t=0.1
0.7873865275097016
% es.EY (V/m) @ t=0.1
0.20817084552567877
% es.EZ (V/m) @ t=0.1
-1.7984108547829
% es.tEX (V/m) @ t=0.1
0.7873865275096983
% es.tEY (V/m) @ t=0.1
0
% es.tEZ (V/m) @ t=0.1
-1.7984108547829063
% es.Ex (V/m) @ t=0.1
0.7873865275097016
% es.Ey (V/m) @ t=0.1
0.20817084552567877
% es.Ez (V/m) @ t=0.1
-1.7984108547829
% es.tEx (V/m) @ t=0.1
0.7873865275096983
% es.tEy (V/m) @ t=0.1
0
% es.tEz (V/m) @ t=0.1
-1.7984108547829063
% V (V) @ t=0.1
0.009878615360761655
% es.normE (V/m) @ t=0.12
1.993784780768837
% es.EX (V/m) @ t=0.12
0.7945987176000735
% es.EY (V/m) @ t=0.12
0.21007761901269895
% es.EZ (V/m) @ t=0.12
-1.8148836802986787
% es.tEX (V/m) @ t=0.12
0.7945987176000702
% es.tEY (V/m) @ t=0.12
0
% es.tEZ (V/m) @ t=0.12
-1.8148836802986796
% es.Ex (V/m) @ t=0.12
0.7945987176000735
% es.Ey (V/m) @ t=0.12
0.21007761901269895
% es.Ez (V/m) @ t=0.12
-1.8148836802986787
% es.tEx (V/m) @ t=0.12
0.7945987176000702
% es.tEy (V/m) @ t=0.12
0
% es.tEz (V/m) @ t=0.12
-1.8148836802986796
% V (V) @ t=0.12
0.009969100080377232
% es.normE (V/m) @ t=0.14
2.0122998787829136
% es.EX (V/m) @ t=0.14
0.8019776851103864
% es.EY (V/m) @ t=0.14
0.21202848537542618
% es.EZ (V/m) @ t=0.14
-1.8317374297908433
% es.tEX (V/m) @ t=0.14
0.801977685110383
% es.tEY (V/m) @ t=0.14
0
% es.tEZ (V/m) @ t=0.14
-1.8317374297908415
% es.Ex (V/m) @ t=0.14
0.8019776851103864
% es.Ey (V/m) @ t=0.14
0.21202848537542618
% es.Ez (V/m) @ t=0.14
-1.8317374297908433
% es.tEx (V/m) @ t=0.14
0.801977685110383
% es.tEy (V/m) @ t=0.14
0
% es.tEz (V/m) @ t=0.14
-1.8317374297908415
% V (V) @ t=0.14
0.01006167720705221
% es.normE (V/m) @ t=0.16
2.031322782592705
% es.EX (V/m) @ t=0.16
0.8095590324107722
% es.EY (V/m) @ t=0.16
0.21403285722430976
% es.EZ (V/m) @ t=0.16
-1.8490534200011934
% es.tEX (V/m) @ t=0.16
0.8095590324107724
% es.tEY (V/m) @ t=0.16
0
% es.tEZ (V/m) @ t=0.16
-1.8490534200011979
% es.Ex (V/m) @ t=0.16
0.8095590324107722
% es.Ey (V/m) @ t=0.16
0.21403285722430976
% es.Ez (V/m) @ t=0.16
-1.8490534200011934
% es.tEx (V/m) @ t=0.16
0.8095590324107724
% es.tEy (V/m) @ t=0.16
0
% es.tEz (V/m) @ t=0.16
-1.8490534200011979
% V (V) @ t=0.16
0.010156793411868342
% es.normE (V/m) @ t=0.18
2.050345686402496
% es.EX (V/m) @ t=0.18
0.8171403797111678
% es.EY (V/m) @ t=0.18
0.2160372290731587
% es.EZ (V/m) @ t=0.18
-1.8663694102115427
% es.tEX (V/m) @ t=0.18
0.817140379711168
% es.tEY (V/m) @ t=0.18
0
% es.tEZ (V/m) @ t=0.18
-1.8663694102115471
% es.Ex (V/m) @ t=0.18
0.8171403797111678
% es.Ey (V/m) @ t=0.18
0.2160372290731587
% es.Ez (V/m) @ t=0.18
-1.8663694102115427
% es.tEx (V/m) @ t=0.18
0.817140379711168
% es.tEy (V/m) @ t=0.18
0
% es.tEz (V/m) @ t=0.18
-1.8663694102115471
% V (V) @ t=0.18
0.010251909616684474
% es.normE (V/m) @ t=0.2
2.0693685902122847
% es.EX (V/m) @ t=0.2
0.8247217270115463
% es.EY (V/m) @ t=0.2
0.21804160092203784
% es.EZ (V/m) @ t=0.2
-1.8836854004218946
% es.tEX (V/m) @ t=0.2
0.8247217270115432
% es.tEY (V/m) @ t=0.2
0
% es.tEZ (V/m) @ t=0.2
-1.8836854004219052
% es.Ex (V/m) @ t=0.2
0.8247217270115463
% es.Ey (V/m) @ t=0.2
0.21804160092203784
% es.Ez (V/m) @ t=0.2
-1.8836854004218946
% es.tEx (V/m) @ t=0.2
0.8247217270115432
% es.tEy (V/m) @ t=0.2
0
% es.tEz (V/m) @ t=0.2
-1.8836854004219052
% V (V) @ t=0.2
0.010347025821500606
% es.normE (V/m) @ t=0.22
2.0883914940220807
% es.EX (V/m) @ t=0.22
0.8323030743119386
% es.EY (V/m) @ t=0.22
0.22004597277089744
% es.EZ (V/m) @ t=0.22
-1.90100139063225
% es.tEX (V/m) @ t=0.22
0.8323030743119388
% es.tEY (V/m) @ t=0.22
0
% es.tEZ (V/m) @ t=0.22
-1.9010013906322527
% es.Ex (V/m) @ t=0.22
0.8323030743119386
% es.Ey (V/m) @ t=0.22
0.22004597277089744
% es.Ez (V/m) @ t=0.22
-1.90100139063225
% es.tEx (V/m) @ t=0.22
0.8323030743119388
% es.tEy (V/m) @ t=0.22
0
% es.tEz (V/m) @ t=0.22
-1.9010013906322527
% V (V) @ t=0.22
0.010442142026316738
% es.normE (V/m) @ t=0.24
2.1074143978318776
% es.EX (V/m) @ t=0.24
0.8398844216123242
% es.EY (V/m) @ t=0.24
0.2220503446197597
% es.EZ (V/m) @ t=0.24
-1.9183173808426082
% es.tEX (V/m) @ t=0.24
0.8398844216123211
% es.tEY (V/m) @ t=0.24
0
% es.tEZ (V/m) @ t=0.24
-1.9183173808426108
% es.Ex (V/m) @ t=0.24
0.8398844216123242
% es.Ey (V/m) @ t=0.24
0.2220503446197597
% es.Ez (V/m) @ t=0.24
-1.9183173808426082
% es.tEx (V/m) @ t=0.24
0.8398844216123211
% es.tEy (V/m) @ t=0.24
0
% es.tEz (V/m) @ t=0.24
-1.9183173808426108
% V (V) @ t=0.24
0.010537258231132872
% es.normE (V/m) @ t=0.26
2.126437301641671
% es.EX (V/m) @ t=0.26
0.8474657689127236
% es.EY (V/m) @ t=0.26
0.22405471646862285
% es.EZ (V/m) @ t=0.26
-1.9356333710529565
% es.tEX (V/m) @ t=0.26
0.8474657689127238
% es.tEY (V/m) @ t=0.26
0
% es.tEZ (V/m) @ t=0.26
-1.9356333710529672
% es.Ex (V/m) @ t=0.26
0.8474657689127236
% es.Ey (V/m) @ t=0.26
0.22405471646862285
% es.Ez (V/m) @ t=0.26
-1.9356333710529565
% es.tEx (V/m) @ t=0.26
0.8474657689127238
% es.tEy (V/m) @ t=0.26
0
% es.tEz (V/m) @ t=0.26
-1.9356333710529672
% V (V) @ t=0.26
0.010632374435949003
% es.normE (V/m) @ t=0.28
2.1473536015826924
% es.EX (V/m) @ t=0.28
0.855801703731883
% es.EY (V/m) @ t=0.28
0.2262585824448733
% es.EZ (V/m) @ t=0.28
-1.9546728657373835
% es.tEX (V/m) @ t=0.28
0.8558017037318799
% es.tEY (V/m) @ t=0.28
0
% es.tEZ (V/m) @ t=0.28
-1.9546728657373844
% es.Ex (V/m) @ t=0.28
0.855801703731883
% es.Ey (V/m) @ t=0.28
0.2262585824448733
% es.Ez (V/m) @ t=0.28
-1.9546728657373835
% es.tEx (V/m) @ t=0.28
0.8558017037318799
% es.tEy (V/m) @ t=0.28
0
% es.tEz (V/m) @ t=0.28
-1.9546728657373844
% V (V) @ t=0.28
0.010736958022971867
% es.normE (V/m) @ t=0.3
2.1684500153233817
% es.EX (V/m) @ t=0.3
0.8642094204792694
% es.EY (V/m) @ t=0.3
0.22848142577332808
% es.EZ (V/m) @ t=0.3
-1.9738763128744692
% es.tEX (V/m) @ t=0.3
0.8642094204792699
% es.tEY (V/m) @ t=0.3
0
% es.tEZ (V/m) @ t=0.3
-1.9738763128744754
% es.Ex (V/m) @ t=0.3
0.8642094204792694
% es.Ey (V/m) @ t=0.3
0.22848142577332808
% es.Ez (V/m) @ t=0.3
-1.9738763128744692
% es.tEx (V/m) @ t=0.3
0.8642094204792699
% es.tEy (V/m) @ t=0.3
0
% es.tEz (V/m) @ t=0.3
-1.9738763128744754
% V (V) @ t=0.3
0.010842442217191611
% es.normE (V/m) @ t=0.32
2.189546429064083
% es.EX (V/m) @ t=0.32
0.8726171372266693
% es.EY (V/m) @ t=0.32
0.23070426910177577
% es.EZ (V/m) @ t=0.32
-1.9930797600115637
% es.tEX (V/m) @ t=0.32
0.8726171372266731
% es.tEY (V/m) @ t=0.32
0
% es.tEZ (V/m) @ t=0.32
-1.9930797600115682
% es.Ex (V/m) @ t=0.32
0.8726171372266693
% es.Ey (V/m) @ t=0.32
0.23070426910177577
% es.Ez (V/m) @ t=0.32
-1.9930797600115637
% es.tEx (V/m) @ t=0.32
0.8726171372266731
% es.tEy (V/m) @ t=0.32
0
% es.tEz (V/m) @ t=0.32
-1.9930797600115682
% V (V) @ t=0.32
0.010947926411411355
% es.normE (V/m) @ t=0.34
2.2106428428047957
% es.EX (V/m) @ t=0.34
0.881024853974083
% es.EY (V/m) @ t=0.34
0.23292711243023678
% es.EZ (V/m) @ t=0.34
-2.0122832071486627
% es.tEX (V/m) @ t=0.34
0.8810248539740835
% es.tEY (V/m) @ t=0.34
0
% es.tEZ (V/m) @ t=0.34
-2.01228320714867
% es.Ex (V/m) @ t=0.34
0.881024853974083
% es.Ey (V/m) @ t=0.34
0.23292711243023678
% es.Ez (V/m) @ t=0.34
-2.0122832071486627
% es.tEx (V/m) @ t=0.34
0.8810248539740835
% es.tEy (V/m) @ t=0.34
0
% es.tEz (V/m) @ t=0.34
-2.01228320714867
% V (V) @ t=0.34
0.0110534106056311
% es.normE (V/m) @ t=0.36
2.231739256545495
% es.EX (V/m) @ t=0.36
0.889432570721473
% es.EY (V/m) @ t=0.36
0.23514995575869957
% es.EZ (V/m) @ t=0.36
-2.031486654285758
% es.tEX (V/m) @ t=0.36
0.8894325707214734
% es.tEY (V/m) @ t=0.36
0
% es.tEZ (V/m) @ t=0.36
-2.0314866542857644
% es.Ex (V/m) @ t=0.36
0.889432570721473
% es.Ey (V/m) @ t=0.36
0.23514995575869957
% es.Ez (V/m) @ t=0.36
-2.031486654285758
% es.tEx (V/m) @ t=0.36
0.8894325707214734
% es.tEy (V/m) @ t=0.36
0
% es.tEz (V/m) @ t=0.36
-2.0314866542857644
% V (V) @ t=0.36
0.011158894799850844
% es.normE (V/m) @ t=0.38
2.2528356702861876
% es.EX (V/m) @ t=0.38
0.8978402874688618
% es.EY (V/m) @ t=0.38
0.23737279908716236
% es.EZ (V/m) @ t=0.38
-2.0506901014228447
% es.tEX (V/m) @ t=0.38
0.897840287468862
% es.tEY (V/m) @ t=0.38
0
% es.tEZ (V/m) @ t=0.38
-2.050690101422852
% es.Ex (V/m) @ t=0.38
0.8978402874688618
% es.Ey (V/m) @ t=0.38
0.23737279908716236
% es.Ez (V/m) @ t=0.38
-2.0506901014228447
% es.tEx (V/m) @ t=0.38
0.897840287468862
% es.tEy (V/m) @ t=0.38
0
% es.tEz (V/m) @ t=0.38
-2.050690101422852
% V (V) @ t=0.38
0.011264378994070588
% es.normE (V/m) @ t=0.4
2.2739320840268897
% es.EX (V/m) @ t=0.4
0.9062480042162586
% es.EY (V/m) @ t=0.4
0.23959564241563136
% es.EZ (V/m) @ t=0.4
-2.0698935485599392
% es.tEX (V/m) @ t=0.4
0.9062480042162591
% es.tEY (V/m) @ t=0.4
0
% es.tEZ (V/m) @ t=0.4
-2.0698935485599463
% es.Ex (V/m) @ t=0.4
0.9062480042162586
% es.Ey (V/m) @ t=0.4
0.23959564241563136
% es.Ez (V/m) @ t=0.4
-2.0698935485599392
% es.tEx (V/m) @ t=0.4
0.9062480042162591
% es.tEy (V/m) @ t=0.4
0
% es.tEz (V/m) @ t=0.4
-2.0698935485599463
% V (V) @ t=0.4
0.01136986318829033
% es.normE (V/m) @ t=0.42
2.2950284977676034
% es.EX (V/m) @ t=0.42
0.9146557209636617
% es.EY (V/m) @ t=0.42
0.2418184857441119
% es.EZ (V/m) @ t=0.42
-2.089096995697041
% es.tEX (V/m) @ t=0.42
0.9146557209636619
% es.tEY (V/m) @ t=0.42
0
% es.tEZ (V/m) @ t=0.42
-2.0890969956970444
% es.Ex (V/m) @ t=0.42
0.9146557209636617
% es.Ey (V/m) @ t=0.42
0.2418184857441119
% es.Ez (V/m) @ t=0.42
-2.089096995697041
% es.tEx (V/m) @ t=0.42
0.9146557209636619
% es.tEy (V/m) @ t=0.42
0
% es.tEz (V/m) @ t=0.42
-2.0890969956970444
% V (V) @ t=0.42
0.011475347382510076
% es.normE (V/m) @ t=0.44
2.3161249115082923
% es.EX (V/m) @ t=0.44
0.9230634377110509
% es.EY (V/m) @ t=0.44
0.24404132907256493
% es.EZ (V/m) @ t=0.44
-2.1083004428341265
% es.tEX (V/m) @ t=0.44
0.9230634377110514
% es.tEY (V/m) @ t=0.44
0
% es.tEZ (V/m) @ t=0.44
-2.10830044283413
% es.Ex (V/m) @ t=0.44
0.9230634377110509
% es.Ey (V/m) @ t=0.44
0.24404132907256493
% es.Ez (V/m) @ t=0.44
-2.1083004428341265
% es.tEx (V/m) @ t=0.44
0.9230634377110514
% es.tEy (V/m) @ t=0.44
0
% es.tEz (V/m) @ t=0.44
-2.10830044283413
% V (V) @ t=0.44
0.011580831576729822
% es.normE (V/m) @ t=0.46
2.337221325248993
% es.EX (V/m) @ t=0.46
0.9314711544584338
% es.EY (V/m) @ t=0.46
0.24626417240102505
% es.EZ (V/m) @ t=0.46
-2.1275038899712246
% es.tEX (V/m) @ t=0.46
0.9314711544584342
% es.tEY (V/m) @ t=0.46
0
% es.tEZ (V/m) @ t=0.46
-2.1275038899712353
% es.Ex (V/m) @ t=0.46
0.9314711544584338
% es.Ey (V/m) @ t=0.46
0.24626417240102505
% es.Ez (V/m) @ t=0.46
-2.1275038899712246
% es.tEx (V/m) @ t=0.46
0.9314711544584342
% es.tEy (V/m) @ t=0.46
0
% es.tEz (V/m) @ t=0.46
-2.1275038899712353
% V (V) @ t=0.46
0.011686315770949564
% es.normE (V/m) @ t=0.48
2.358317738989702
% es.EX (V/m) @ t=0.48
0.9398788712058439
% es.EY (V/m) @ t=0.48
0.24848701572948428
% es.EZ (V/m) @ t=0.48
-2.146707337108322
% es.tEX (V/m) @ t=0.48
0.9398788712058441
% es.tEY (V/m) @ t=0.48
0
% es.tEZ (V/m) @ t=0.48
-2.146707337108328
% es.Ex (V/m) @ t=0.48
0.9398788712058439
% es.Ey (V/m) @ t=0.48
0.24848701572948428
% es.Ez (V/m) @ t=0.48
-2.146707337108322
% es.tEx (V/m) @ t=0.48
0.9398788712058441
% es.tEy (V/m) @ t=0.48
0
% es.tEz (V/m) @ t=0.48
-2.146707337108328
% V (V) @ t=0.48
0.01179179996516931
% es.normE (V/m) @ t=0.5
2.379414152730404
% es.EX (V/m) @ t=0.5
0.948286587953248
% es.EY (V/m) @ t=0.5
0.2507098590579382
% es.EZ (V/m) @ t=0.5
-2.1659107842454137
% es.tEX (V/m) @ t=0.5
0.9482865879532483
% es.tEY (V/m) @ t=0.5
0
% es.tEZ (V/m) @ t=0.5
-2.1659107842454173
% es.Ex (V/m) @ t=0.5
0.948286587953248
% es.Ey (V/m) @ t=0.5
0.2507098590579382
% es.Ez (V/m) @ t=0.5
-2.1659107842454137
% es.tEx (V/m) @ t=0.5
0.9482865879532483
% es.tEy (V/m) @ t=0.5
0
% es.tEz (V/m) @ t=0.5
-2.1659107842454173
% V (V) @ t=0.5
0.011897284159389053
% es.normE (V/m) @ t=0.52
2.4005105664710955
% es.EX (V/m) @ t=0.52
0.9566943047006298
% es.EY (V/m) @ t=0.52
0.25293270238640275
% es.EZ (V/m) @ t=0.52
-2.185114231382504
% es.tEX (V/m) @ t=0.52
0.9566943047006302
% es.tEY (V/m) @ t=0.52
0
% es.tEZ (V/m) @ t=0.52
-2.1851142313825065
% es.Ex (V/m) @ t=0.52
0.9566943047006298
% es.Ey (V/m) @ t=0.52
0.25293270238640275
% es.Ez (V/m) @ t=0.52
-2.185114231382504
% es.tEx (V/m) @ t=0.52
0.9566943047006302
% es.tEy (V/m) @ t=0.52
0
% es.tEz (V/m) @ t=0.52
-2.1851142313825065
% V (V) @ t=0.52
0.012002768353608799
% es.normE (V/m) @ t=0.54
2.423561083520166
% es.EX (V/m) @ t=0.54
0.9658808078119152
% es.EY (V/m) @ t=0.54
0.25536144744438705
% es.EZ (V/m) @ t=0.54
-2.2060964398901213
% es.tEX (V/m) @ t=0.54
0.9658808078119083
% es.tEY (V/m) @ t=0.54
0
% es.tEZ (V/m) @ t=0.54
-2.2060964398901284
% es.Ex (V/m) @ t=0.54
0.9658808078119152
% es.Ey (V/m) @ t=0.54
0.25536144744438705
% es.Ez (V/m) @ t=0.54
-2.2060964398901213
% es.tEx (V/m) @ t=0.54
0.9658808078119083
% es.tEy (V/m) @ t=0.54
0
% es.tEz (V/m) @ t=0.54
-2.2060964398901284
% V (V) @ t=0.54
0.012118023032509419
% es.normE (V/m) @ t=0.56
2.446995361798135
% es.EX (V/m) @ t=0.56
0.9752202547367443
% es.EY (V/m) @ t=0.56
0.25783062900359255
% es.EZ (V/m) @ t=0.56
-2.2274279746828682
% es.tEX (V/m) @ t=0.56
0.9752202547367448
% es.tEY (V/m) @ t=0.56
0
% es.tEZ (V/m) @ t=0.56
-2.227427974682872
% es.Ex (V/m) @ t=0.56
0.9752202547367443
% es.Ey (V/m) @ t=0.56
0.25783062900359255
% es.Ez (V/m) @ t=0.56
-2.2274279746828682
% es.tEx (V/m) @ t=0.56
0.9752202547367448
% es.tEy (V/m) @ t=0.56
0
% es.tEz (V/m) @ t=0.56
-2.227427974682872
% V (V) @ t=0.56
0.01223519651129756
% es.normE (V/m) @ t=0.58
2.4704296400761234
% es.EX (V/m) @ t=0.58
0.9845597016615968
% es.EY (V/m) @ t=0.58
0.2602998105627705
% es.EZ (V/m) @ t=0.58
-2.2487595094756276
% es.tEX (V/m) @ t=0.58
0.9845597016615972
% es.tEY (V/m) @ t=0.58
0
% es.tEZ (V/m) @ t=0.58
-2.248759509475633
% es.Ex (V/m) @ t=0.58
0.9845597016615968
% es.Ey (V/m) @ t=0.58
0.2602998105627705
% es.Ez (V/m) @ t=0.58
-2.2487595094756276
% es.tEx (V/m) @ t=0.58
0.9845597016615972
% es.tEy (V/m) @ t=0.58
0
% es.tEz (V/m) @ t=0.58
-2.248759509475633
% V (V) @ t=0.58
0.0123523699900857
% es.normE (V/m) @ t=0.6
2.493863918354105
% es.EX (V/m) @ t=0.6
0.9938991485864404
% es.EY (V/m) @ t=0.6
0.26276899212194316
% es.EZ (V/m) @ t=0.6
-2.2700910442683853
% es.tEX (V/m) @ t=0.6
0.9938991485864408
% es.tEY (V/m) @ t=0.6
0
% es.tEZ (V/m) @ t=0.6
-2.270091044268387
% es.Ex (V/m) @ t=0.6
0.9938991485864404
% es.Ey (V/m) @ t=0.6
0.26276899212194316
% es.Ez (V/m) @ t=0.6
-2.2700910442683853
% es.tEx (V/m) @ t=0.6
0.9938991485864408
% es.tEy (V/m) @ t=0.6
0
% es.tEz (V/m) @ t=0.6
-2.270091044268387
% V (V) @ t=0.6
0.01246954346887384
% es.normE (V/m) @ t=0.62
2.51729819663208
% es.EX (V/m) @ t=0.62
1.0032385955112768
% es.EY (V/m) @ t=0.62
0.26523817368113
% es.EZ (V/m) @ t=0.62
-2.2914225790611376
% es.tEX (V/m) @ t=0.62
1.0032385955112773
% es.tEY (V/m) @ t=0.62
0
% es.tEZ (V/m) @ t=0.62
-2.291422579061141
% es.Ex (V/m) @ t=0.62
1.0032385955112768
% es.Ey (V/m) @ t=0.62
0.26523817368113
% es.Ez (V/m) @ t=0.62
-2.2914225790611376
% es.tEx (V/m) @ t=0.62
1.0032385955112773
% es.tEy (V/m) @ t=0.62
0
% es.tEz (V/m) @ t=0.62
-2.291422579061141
% V (V) @ t=0.62
0.012586716947661981
% es.normE (V/m) @ t=0.64
2.540732474910053
% es.EX (V/m) @ t=0.64
1.012578042436115
% es.EY (V/m) @ t=0.64
0.26770735524030975
% es.EZ (V/m) @ t=0.64
-2.3127541138538863
% es.tEX (V/m) @ t=0.64
1.0125780424361155
% es.tEY (V/m) @ t=0.64
0
% es.tEZ (V/m) @ t=0.64
-2.312754113853895
% es.Ex (V/m) @ t=0.64
1.012578042436115
% es.Ey (V/m) @ t=0.64
0.26770735524030975
% es.Ez (V/m) @ t=0.64
-2.3127541138538863
% es.tEx (V/m) @ t=0.64
1.0125780424361155
% es.tEy (V/m) @ t=0.64
0
% es.tEz (V/m) @ t=0.64
-2.312754113853895
% V (V) @ t=0.64
0.012703890426450122
% es.normE (V/m) @ t=0.66
2.5641667531880197
% es.EX (V/m) @ t=0.66
1.0219174893609373
% es.EY (V/m) @ t=0.66
0.2701765367994824
% es.EZ (V/m) @ t=0.66
-2.334085648646637
% es.tEX (V/m) @ t=0.66
1.0219174893609377
% es.tEY (V/m) @ t=0.66
0
% es.tEZ (V/m) @ t=0.66
-2.334085648646653
% es.Ex (V/m) @ t=0.66
1.0219174893609373
% es.Ey (V/m) @ t=0.66
0.2701765367994824
% es.Ez (V/m) @ t=0.66
-2.334085648646637
% es.tEx (V/m) @ t=0.66
1.0219174893609377
% es.tEy (V/m) @ t=0.66
0
% es.tEz (V/m) @ t=0.66
-2.334085648646653
% V (V) @ t=0.66
0.012821063905238263
% es.normE (V/m) @ t=0.68
2.5876010314660136
% es.EX (V/m) @ t=0.68
1.0312569362857897
% es.EY (V/m) @ t=0.68
0.27264571835867635
% es.EZ (V/m) @ t=0.68
-2.3554171834394015
% es.tEX (V/m) @ t=0.68
1.0312569362857902
% es.tEY (V/m) @ t=0.68
0
% es.tEZ (V/m) @ t=0.68
-2.355417183439407
% es.Ex (V/m) @ t=0.68
1.0312569362857897
% es.Ey (V/m) @ t=0.68
0.27264571835867635
% es.Ez (V/m) @ t=0.68
-2.3554171834394015
% es.tEx (V/m) @ t=0.68
1.0312569362857902
% es.tEy (V/m) @ t=0.68
0
% es.tEz (V/m) @ t=0.68
-2.355417183439407
% V (V) @ t=0.68
0.012938237384026403
% es.normE (V/m) @ t=0.7
2.6110353097439756
% es.EX (V/m) @ t=0.7
1.0405963832106049
% es.EY (V/m) @ t=0.7
0.2751148999178641
% es.EZ (V/m) @ t=0.7
-2.3767487182321485
% es.tEX (V/m) @ t=0.7
1.0405963832105982
% es.tEY (V/m) @ t=0.7
0
% es.tEZ (V/m) @ t=0.7
-2.376748718232143
% es.Ex (V/m) @ t=0.7
1.0405963832106049
% es.Ey (V/m) @ t=0.7
0.2751148999178641
% es.Ez (V/m) @ t=0.7
-2.3767487182321485
% es.tEx (V/m) @ t=0.7
1.0405963832105982
% es.tEy (V/m) @ t=0.7
0
% es.tEz (V/m) @ t=0.7
-2.376748718232143
% V (V) @ t=0.7
0.013055410862814542
% es.normE (V/m) @ t=0.72
2.6344695880219597
% es.EX (V/m) @ t=0.72
1.0499358301354413
% es.EY (V/m) @ t=0.72
0.2775840814770536
% es.EZ (V/m) @ t=0.72
-2.3980802530249097
% es.tEX (V/m) @ t=0.72
1.0499358301354347
% es.tEY (V/m) @ t=0.72
0
% es.tEZ (V/m) @ t=0.72
-2.398080253024915
% es.Ex (V/m) @ t=0.72
1.0499358301354413
% es.Ey (V/m) @ t=0.72
0.2775840814770536
% es.Ez (V/m) @ t=0.72
-2.3980802530249097
% es.tEx (V/m) @ t=0.72
1.0499358301354347
% es.tEy (V/m) @ t=0.72
0
% es.tEz (V/m) @ t=0.72
-2.398080253024915
% V (V) @ t=0.72
0.013172584341602685
% es.normE (V/m) @ t=0.74
2.657903866299932
% es.EX (V/m) @ t=0.74
1.0592752770602867
% es.EY (V/m) @ t=0.74
0.28005326303622535
% es.EZ (V/m) @ t=0.74
-2.4194117878176566
% es.tEX (V/m) @ t=0.74
1.0592752770602871
% es.tEY (V/m) @ t=0.74
0
% es.tEZ (V/m) @ t=0.74
-2.419411787817662
% es.Ex (V/m) @ t=0.74
1.0592752770602867
% es.Ey (V/m) @ t=0.74
0.28005326303622535
% es.Ez (V/m) @ t=0.74
-2.4194117878176566
% es.tEx (V/m) @ t=0.74
1.0592752770602871
% es.tEy (V/m) @ t=0.74
0
% es.tEz (V/m) @ t=0.74
-2.419411787817662
% V (V) @ t=0.74
0.013289757820390826
% es.normE (V/m) @ t=0.76
2.6813381445779196
% es.EX (V/m) @ t=0.76
1.0686147239851231
% es.EY (V/m) @ t=0.76
0.28252244459541576
% es.EZ (V/m) @ t=0.76
-2.4407433226104214
% es.tEX (V/m) @ t=0.76
1.0686147239851236
% es.tEY (V/m) @ t=0.76
0
% es.tEZ (V/m) @ t=0.76
-2.4407433226104267
% es.Ex (V/m) @ t=0.76
1.0686147239851231
% es.Ey (V/m) @ t=0.76
0.28252244459541576
% es.Ez (V/m) @ t=0.76
-2.4407433226104214
% es.tEx (V/m) @ t=0.76
1.0686147239851236
% es.tEy (V/m) @ t=0.76
0
% es.tEz (V/m) @ t=0.76
-2.4407433226104267
% V (V) @ t=0.76
0.013406931299178965
% es.normE (V/m) @ t=0.78
2.7047724228559007
% es.EX (V/m) @ t=0.78
1.07795417090996
% es.EY (V/m) @ t=0.78
0.2849916261546088
% es.EZ (V/m) @ t=0.78
-2.462074857403179
% es.tEX (V/m) @ t=0.78
1.07795417090996
% es.tEY (V/m) @ t=0.78
0
% es.tEZ (V/m) @ t=0.78
-2.4620748574031843
% es.Ex (V/m) @ t=0.78
1.07795417090996
% es.Ey (V/m) @ t=0.78
0.2849916261546088
% es.Ez (V/m) @ t=0.78
-2.462074857403179
% es.tEx (V/m) @ t=0.78
1.07795417090996
% es.tEy (V/m) @ t=0.78
0
% es.tEz (V/m) @ t=0.78
-2.4620748574031843
% V (V) @ t=0.78
0.013524104777967106
% es.normE (V/m) @ t=0.8
2.7302097541241466
% es.EX (V/m) @ t=0.8
1.088091910431721
% es.EY (V/m) @ t=0.8
0.2876718622355847
% es.EZ (V/m) @ t=0.8
-2.485229712359251
% es.tEX (V/m) @ t=0.8
1.0880919104317144
% es.tEY (V/m) @ t=0.8
0
% es.tEZ (V/m) @ t=0.8
-2.4852297123592564
% es.Ex (V/m) @ t=0.8
1.088091910431721
% es.Ey (V/m) @ t=0.8
0.2876718622355847
% es.Ez (V/m) @ t=0.8
-2.485229712359251
% es.tEx (V/m) @ t=0.8
1.0880919104317144
% es.tEy (V/m) @ t=0.8
0
% es.tEz (V/m) @ t=0.8
-2.4852297123592564
% V (V) @ t=0.8
0.013651293684236909
% es.normE (V/m) @ t=0.82
2.7562846193100357
% es.EX (V/m) @ t=0.82
1.098483731402752
% es.EY (V/m) @ t=0.82
0.29041927298283277
% es.EZ (V/m) @ t=0.82
-2.5089648956703297
% es.tEX (V/m) @ t=0.82
1.0984837314027525
% es.tEY (V/m) @ t=0.82
0
% es.tEZ (V/m) @ t=0.82
-2.5089648956703243
% es.Ex (V/m) @ t=0.82
1.098483731402752
% es.Ey (V/m) @ t=0.82
0.29041927298283277
% es.Ez (V/m) @ t=0.82
-2.5089648956703297
% es.tEx (V/m) @ t=0.82
1.0984837314027525
% es.tEy (V/m) @ t=0.82
0
% es.tEz (V/m) @ t=0.82
-2.5089648956703243
% V (V) @ t=0.82
0.013781670311825088
% es.normE (V/m) @ t=0.84
2.7823594844959088
% es.EX (V/m) @ t=0.84
1.108875552373775
% es.EY (V/m) @ t=0.84
0.29316668373006394
% es.EZ (V/m) @ t=0.84
-2.5327000789813976
% es.tEX (V/m) @ t=0.84
1.1088755523737754
% es.tEY (V/m) @ t=0.84
0
% es.tEZ (V/m) @ t=0.84
-2.5327000789813994
% es.Ex (V/m) @ t=0.84
1.108875552373775
% es.Ey (V/m) @ t=0.84
0.29316668373006394
% es.Ez (V/m) @ t=0.84
-2.5327000789813976
% es.tEx (V/m) @ t=0.84
1.1088755523737754
% es.tEy (V/m) @ t=0.84
0
% es.tEz (V/m) @ t=0.84
-2.5327000789813994
% V (V) @ t=0.84
0.013912046939413268
% es.normE (V/m) @ t=0.86
2.8084343496817787
% es.EX (V/m) @ t=0.86
1.11926737334479
% es.EY (V/m) @ t=0.86
0.29591409447733064
% es.EZ (V/m) @ t=0.86
-2.556435262292462
% es.tEX (V/m) @ t=0.86
1.1192673733447833
% es.tEY (V/m) @ t=0.86
0
% es.tEZ (V/m) @ t=0.86
-2.5564352622924744
% es.Ex (V/m) @ t=0.86
1.11926737334479
% es.Ey (V/m) @ t=0.86
0.29591409447733064
% es.Ez (V/m) @ t=0.86
-2.556435262292462
% es.tEx (V/m) @ t=0.86
1.1192673733447833
% es.tEy (V/m) @ t=0.86
0
% es.tEz (V/m) @ t=0.86
-2.5564352622924744
% V (V) @ t=0.86
0.014042423567001455
% es.normE (V/m) @ t=0.88
2.8345092148676434
% es.EX (V/m) @ t=0.88
1.1296591943158059
% es.EY (V/m) @ t=0.88
0.29866150522456625
% es.EZ (V/m) @ t=0.88
-2.580170445603523
% es.tEX (V/m) @ t=0.88
1.1296591943158063
% es.tEY (V/m) @ t=0.88
0
% es.tEZ (V/m) @ t=0.88
-2.5801704456035353
% es.Ex (V/m) @ t=0.88
1.1296591943158059
% es.Ey (V/m) @ t=0.88
0.29866150522456625
% es.Ez (V/m) @ t=0.88
-2.580170445603523
% es.tEx (V/m) @ t=0.88
1.1296591943158063
% es.tEy (V/m) @ t=0.88
0
% es.tEz (V/m) @ t=0.88
-2.5801704456035353
% V (V) @ t=0.88
0.014172800194589635
% es.normE (V/m) @ t=0.9
2.860584080053532
% es.EX (V/m) @ t=0.9
1.140051015286843
% es.EY (V/m) @ t=0.9
0.3014089159717894
% es.EZ (V/m) @ t=0.9
-2.6039056289146014
% es.tEX (V/m) @ t=0.9
1.1400510152868435
% es.tEY (V/m) @ t=0.9
0
% es.tEZ (V/m) @ t=0.9
-2.6039056289146068
% es.Ex (V/m) @ t=0.9
1.140051015286843
% es.Ey (V/m) @ t=0.9
0.3014089159717894
% es.Ez (V/m) @ t=0.9
-2.6039056289146014
% es.tEx (V/m) @ t=0.9
1.1400510152868435
% es.tEy (V/m) @ t=0.9
0
% es.tEz (V/m) @ t=0.9
-2.6039056289146068
% V (V) @ t=0.9
0.014303176822177816
% es.normE (V/m) @ t=0.92
2.886658945239401
% es.EX (V/m) @ t=0.92
1.150442836257866
% es.EY (V/m) @ t=0.92
0.3041563267190597
% es.EZ (V/m) @ t=0.92
-2.6276408122256623
% es.tEX (V/m) @ t=0.92
1.1504428362578665
% es.tEY (V/m) @ t=0.92
0
% es.tEZ (V/m) @ t=0.92
-2.6276408122256676
% es.Ex (V/m) @ t=0.92
1.150442836257866
% es.Ey (V/m) @ t=0.92
0.3041563267190597
% es.Ez (V/m) @ t=0.92
-2.6276408122256623
% es.tEx (V/m) @ t=0.92
1.1504428362578665
% es.tEy (V/m) @ t=0.92
0
% es.tEz (V/m) @ t=0.92
-2.6276408122256676
% V (V) @ t=0.92
0.014433553449766
% es.normE (V/m) @ t=0.94
2.912733810425277
% es.EX (V/m) @ t=0.94
1.160834657228889
% es.EY (V/m) @ t=0.94
0.3069037374663015
% es.EZ (V/m) @ t=0.94
-2.65137599553673
% es.tEX (V/m) @ t=0.94
1.1608346572288895
% es.tEY (V/m) @ t=0.94
0
% es.tEZ (V/m) @ t=0.94
-2.6513759955367355
% es.Ex (V/m) @ t=0.94
1.160834657228889
% es.Ey (V/m) @ t=0.94
0.3069037374663015
% es.Ez (V/m) @ t=0.94
-2.65137599553673
% es.tEx (V/m) @ t=0.94
1.1608346572288895
% es.tEy (V/m) @ t=0.94
0
% es.tEz (V/m) @ t=0.94
-2.6513759955367355
% V (V) @ t=0.94
0.01456393007735418
% es.normE (V/m) @ t=0.96
2.9388086756111695
% es.EX (V/m) @ t=0.96
1.1712264781999333
% es.EY (V/m) @ t=0.96
0.30965114821354334
% es.EZ (V/m) @ t=0.96
-2.675111178847809
% es.tEX (V/m) @ t=0.96
1.1712264781999266
% es.tEY (V/m) @ t=0.96
0
% es.tEZ (V/m) @ t=0.96
-2.6751111788478212
% es.Ex (V/m) @ t=0.96
1.1712264781999333
% es.Ey (V/m) @ t=0.96
0.30965114821354334
% es.Ez (V/m) @ t=0.96
-2.675111178847809
% es.tEx (V/m) @ t=0.96
1.1712264781999266
% es.tEy (V/m) @ t=0.96
0
% es.tEz (V/m) @ t=0.96
-2.6751111788478212
% V (V) @ t=0.96
0.01469430670494236
% es.normE (V/m) @ t=0.98
2.96488354079703
% es.EX (V/m) @ t=0.98
1.181618299170942
% es.EY (V/m) @ t=0.98
0.3123985589607994
% es.EZ (V/m) @ t=0.98
-2.698846362158866
% es.tEX (V/m) @ t=0.98
1.1816182991709354
% es.tEY (V/m) @ t=0.98
0
% es.tEZ (V/m) @ t=0.98
-2.698846362158875
% es.Ex (V/m) @ t=0.98
1.181618299170942
% es.Ey (V/m) @ t=0.98
0.3123985589607994
% es.Ez (V/m) @ t=0.98
-2.698846362158866
% es.tEx (V/m) @ t=0.98
1.1816182991709354
% es.tEy (V/m) @ t=0.98
0
% es.tEz (V/m) @ t=0.98
-2.698846362158875
% V (V) @ t=0.98
0.014824683332530545
% es.normE (V/m) @ t=1
2.9909584059829166
% es.EX (V/m) @ t=1
1.1920101201419713
% es.EY (V/m) @ t=1
0.31514596970804476
% es.EZ (V/m) @ t=1
-2.7225815454699447
% es.tEX (V/m) @ t=1
1.1920101201419717
% es.tEY (V/m) @ t=1
0
% es.tEZ (V/m) @ t=1
-2.722581545469943
% es.Ex (V/m) @ t=1
1.1920101201419713
% es.Ey (V/m) @ t=1
0.31514596970804476
% es.Ez (V/m) @ t=1
-2.7225815454699447
% es.tEx (V/m) @ t=1
1.1920101201419717
% es.tEy (V/m) @ t=1
0
% es.tEz (V/m) @ t=1
-2.722581545469943
% V (V) @ t=1
0.014955059960118724
% es.normE (V/m) @ t=1.02
3.017033271168792
% es.EX (V/m) @ t=1.02
1.202401941112988
% es.EY (V/m) @ t=1.02
0.3178933804552857
% es.EZ (V/m) @ t=1.02
-2.746316728781016
% es.tEX (V/m) @ t=1.02
1.2024019411129814
% es.tEY (V/m) @ t=1.02
0
% es.tEZ (V/m) @ t=1.02
-2.7463167287810215
% es.Ex (V/m) @ t=1.02
1.202401941112988
% es.Ey (V/m) @ t=1.02
0.3178933804552857
% es.Ez (V/m) @ t=1.02
-2.746316728781016
% es.tEx (V/m) @ t=1.02
1.2024019411129814
% es.tEy (V/m) @ t=1.02
0
% es.tEz (V/m) @ t=1.02
-2.7463167287810215
% V (V) @ t=1.02
0.015085436587706912
% es.normE (V/m) @ t=1.04
3.043108136354674
% es.EX (V/m) @ t=1.04
1.2127937620840323
% es.EY (V/m) @ t=1.04
0.3206407912025311
% es.EZ (V/m) @ t=1.04
-2.770051912092084
% es.tEX (V/m) @ t=1.04
1.2127937620840328
% es.tEY (V/m) @ t=1.04
0
% es.tEZ (V/m) @ t=1.04
-2.7700519120920895
% es.Ex (V/m) @ t=1.04