% Model:              1 neuron.mph
% Version:            COMSOL 6.1.0.252
% Date:               Mar 18 2023, 13:28
% Dimension:          0
% Nodes:              14017
% Expressions:        14017
% Description:        Electric field norm, Electric field, X component, Electric field, Y component, Electric field, Z component, Tangential electric field, X component, Tangential electric field, Y component, Tangential electric field, Z component, Electric field, x component, Electric field, y component, Electric field, z component, Tangential electric field, x component, Tangential electric field, y component, Tangential electric field, z component, Electric potential
% Length unit:        mm
% x
2
% y
12.199999999999998
% z
2
% es.normE (V/m) @ t=0
1.1158947657086702
% es.EX (V/m) @ t=0
-0.7988779554166727
% es.EY (V/m) @ t=0
0.304240494781576
% es.EZ (V/m) @ t=0
-0.7128761042327687
% es.tEX (V/m) @ t=0
-0.7988779554166676
% es.tEY (V/m) @ t=0
0
% es.tEZ (V/m) @ t=0
-0.7128761042327678
% es.Ex (V/m) @ t=0
-0.7988779554166727
% es.Ey (V/m) @ t=0
0.304240494781576
% es.Ez (V/m) @ t=0
-0.7128761042327687
% es.tEx (V/m) @ t=0
-0.7988779554166676
% es.tEy (V/m) @ t=0
0
% es.tEz (V/m) @ t=0
-0.7128761042327678
% V (V) @ t=0
0.011356226616274813
% es.normE (V/m) @ t=0.02
0.9638104771168754
% es.EX (V/m) @ t=0.02
-0.6899996013596408
% es.EY (V/m) @ t=0.02
0.262775834331586
% es.EZ (V/m) @ t=0.02
-0.6157188637208804
% es.tEX (V/m) @ t=0.02
-0.6899996013596361
% es.tEY (V/m) @ t=0.02
0
% es.tEZ (V/m) @ t=0.02
-0.6157188637208808
% es.Ex (V/m) @ t=0.02
-0.6899996013596408
% es.Ey (V/m) @ t=0.02
0.262775834331586
% es.Ez (V/m) @ t=0.02
-0.6157188637208804
% es.tEx (V/m) @ t=0.02
-0.6899996013596361
% es.tEy (V/m) @ t=0.02
0
% es.tEz (V/m) @ t=0.02
-0.6157188637208808
% V (V) @ t=0.02
0.009808496698475147
% es.normE (V/m) @ t=0.04
0.9726775494035478
% es.EX (V/m) @ t=0.04
-0.6963476091947665
% es.EY (V/m) @ t=0.04
0.2651933790612093
% es.EZ (V/m) @ t=0.04
-0.6213834859221548
% es.tEX (V/m) @ t=0.04
-0.6963476091947629
% es.tEY (V/m) @ t=0.04
0
% es.tEZ (V/m) @ t=0.04
-0.6213834859221494
% es.Ex (V/m) @ t=0.04
-0.6963476091947665
% es.Ey (V/m) @ t=0.04
0.2651933790612093
% es.Ez (V/m) @ t=0.04
-0.6213834859221548
% es.tEx (V/m) @ t=0.04
-0.6963476091947629
% es.tEy (V/m) @ t=0.04
0
% es.tEz (V/m) @ t=0.04
-0.6213834859221494
% V (V) @ t=0.04
0.00989873491804773
% es.normE (V/m) @ t=0.06
0.9816142069044358
% es.EX (V/m) @ t=0.06
-0.7027454336456789
% es.EY (V/m) @ t=0.06
0.26762989424348627
% es.EZ (V/m) @ t=0.06
-0.6270925625302173
% es.tEX (V/m) @ t=0.06
-0.70274543364568
% es.tEY (V/m) @ t=0.06
0
% es.tEZ (V/m) @ t=0.06
-0.6270925625302244
% es.Ex (V/m) @ t=0.06
-0.7027454336456789
% es.Ey (V/m) @ t=0.06
0.26762989424348627
% es.Ez (V/m) @ t=0.06
-0.6270925625302173
% es.tEx (V/m) @ t=0.06
-0.70274543364568
% es.tEy (V/m) @ t=0.06
0
% es.tEz (V/m) @ t=0.06
-0.6270925625302244
% V (V) @ t=0.06
0.00998968135126206
% es.normE (V/m) @ t=0.08
0.9907111622753662
% es.EX (V/m) @ t=0.08
-0.7092580166388818
% es.EY (V/m) @ t=0.08
0.27011011779700644
% es.EZ (V/m) @ t=0.08
-0.6329040413230973
% es.tEX (V/m) @ t=0.08
-0.7092580166388802
% es.tEY (V/m) @ t=0.08
0
% es.tEZ (V/m) @ t=0.08
-0.6329040413231004
% es.Ex (V/m) @ t=0.08
-0.7092580166388818
% es.Ey (V/m) @ t=0.08
0.27011011779700644
% es.Ez (V/m) @ t=0.08
-0.6329040413230973
% es.tEx (V/m) @ t=0.08
-0.7092580166388802
% es.tEy (V/m) @ t=0.08
0
% es.tEz (V/m) @ t=0.08
-0.6329040413231004
% V (V) @ t=0.08
0.010082258924277323
% es.normE (V/m) @ t=0.1
0.9998698128318593
% es.EX (V/m) @ t=0.1
-0.7158147677146645
% es.EY (V/m) @ t=0.1
0.2726071637579488
% es.EZ (V/m) @ t=0.1
-0.6387549325036206
% es.tEX (V/m) @ t=0.1
-0.7158147677146669
% es.tEY (V/m) @ t=0.1
0
% es.tEZ (V/m) @ t=0.1
-0.638754932503625
% es.Ex (V/m) @ t=0.1
-0.7158147677146645
% es.Ey (V/m) @ t=0.1
0.2726071637579488
% es.Ez (V/m) @ t=0.1
-0.6387549325036206
% es.tEx (V/m) @ t=0.1
-0.7158147677146669
% es.tEy (V/m) @ t=0.1
0
% es.tEz (V/m) @ t=0.1
-0.638754932503625
% V (V) @ t=0.1
0.010175464287746986
% es.normE (V/m) @ t=0.12
1.0090284633883377
% es.EX (V/m) @ t=0.12
-0.7223715187904471
% es.EY (V/m) @ t=0.12
0.2751042097188572
% es.EZ (V/m) @ t=0.12
-0.6446058236841372
% es.tEX (V/m) @ t=0.12
-0.7223715187904465
% es.tEY (V/m) @ t=0.12
0
% es.tEZ (V/m) @ t=0.12
-0.6446058236841417
% es.Ex (V/m) @ t=0.12
-0.7223715187904471
% es.Ey (V/m) @ t=0.12
0.2751042097188572
% es.Ez (V/m) @ t=0.12
-0.6446058236841372
% es.tEx (V/m) @ t=0.12
-0.7223715187904465
% es.tEy (V/m) @ t=0.12
0
% es.tEz (V/m) @ t=0.12
-0.6446058236841417
% V (V) @ t=0.12
0.010268669651216651
% es.normE (V/m) @ t=0.14
1.0183997788297274
% es.EX (V/m) @ t=0.14
-0.729080518230494
% es.EY (V/m) @ t=0.14
0.2776592291298261
% es.EZ (V/m) @ t=0.14
-0.6505925774886387
% es.tEX (V/m) @ t=0.14
-0.7290805182304934
% es.tEY (V/m) @ t=0.14
0
% es.tEZ (V/m) @ t=0.14
-0.6505925774886521
% es.Ex (V/m) @ t=0.14
-0.729080518230494
% es.Ey (V/m) @ t=0.14
0.2776592291298261
% es.Ez (V/m) @ t=0.14
-0.6505925774886387
% es.tEx (V/m) @ t=0.14
-0.7290805182304934
% es.tEy (V/m) @ t=0.14
0
% es.tEz (V/m) @ t=0.14
-0.6505925774886521
% V (V) @ t=0.14
0.01036403959108477
% es.normE (V/m) @ t=0.16
1.0280271171368058
% es.EX (V/m) @ t=0.16
-0.7359728063339801
% es.EY (V/m) @ t=0.16
0.280284041580795
% es.EZ (V/m) @ t=0.16
-0.6567428935020443
% es.tEX (V/m) @ t=0.16
-0.7359728063339772
% es.tEY (V/m) @ t=0.16
0
% es.tEZ (V/m) @ t=0.16
-0.656742893502047
% es.Ex (V/m) @ t=0.16
-0.7359728063339801
% es.Ey (V/m) @ t=0.16
0.280284041580795
% es.Ez (V/m) @ t=0.16
-0.6567428935020443
% es.tEx (V/m) @ t=0.16
-0.7359728063339772
% es.tEy (V/m) @ t=0.16
0
% es.tEz (V/m) @ t=0.16
-0.656742893502047
% V (V) @ t=0.16
0.010462015419803477
% es.normE (V/m) @ t=0.18
1.0376544554438705
% es.EX (V/m) @ t=0.18
-0.742865094437456
% es.EY (V/m) @ t=0.18
0.2829088540317619
% es.EZ (V/m) @ t=0.18
-0.6628932095154401
% es.tEX (V/m) @ t=0.18
-0.742865094437458
% es.tEY (V/m) @ t=0.18
0
% es.tEZ (V/m) @ t=0.18
-0.6628932095154436
% es.Ex (V/m) @ t=0.18
-0.742865094437456
% es.Ey (V/m) @ t=0.18
0.2829088540317619
% es.Ez (V/m) @ t=0.18
-0.6628932095154401
% es.tEx (V/m) @ t=0.18
-0.742865094437458
% es.tEy (V/m) @ t=0.18
0
% es.tEz (V/m) @ t=0.18
-0.6628932095154436
% V (V) @ t=0.18
0.01055999124852218
% es.normE (V/m) @ t=0.2
1.0472817937509478
% es.EX (V/m) @ t=0.2
-0.7497573825409358
% es.EY (V/m) @ t=0.2
0.28553366648274325
% es.EZ (V/m) @ t=0.2
-0.6690435255288438
% es.tEX (V/m) @ t=0.2
-0.7497573825409369
% es.tEY (V/m) @ t=0.2
0
% es.tEZ (V/m) @ t=0.2
-0.6690435255288456
% es.Ex (V/m) @ t=0.2
-0.7497573825409358
% es.Ey (V/m) @ t=0.2
0.28553366648274325
% es.Ez (V/m) @ t=0.2
-0.6690435255288438
% es.tEx (V/m) @ t=0.2
-0.7497573825409369
% es.tEy (V/m) @ t=0.2
0
% es.tEz (V/m) @ t=0.2
-0.6690435255288456
% V (V) @ t=0.2
0.010657967077240886
% es.normE (V/m) @ t=0.22
1.0569091320580153
% es.EX (V/m) @ t=0.22
-0.7566496706444177
% es.EY (V/m) @ t=0.22
0.28815847893370283
% es.EZ (V/m) @ t=0.22
-0.6751938415422396
% es.tEX (V/m) @ t=0.22
-0.7566496706444141
% es.tEY (V/m) @ t=0.22
0
% es.tEZ (V/m) @ t=0.22
-0.6751938415422423
% es.Ex (V/m) @ t=0.22
-0.7566496706444177
% es.Ey (V/m) @ t=0.22
0.28815847893370283
% es.Ez (V/m) @ t=0.22
-0.6751938415422396
% es.tEx (V/m) @ t=0.22
-0.7566496706444141
% es.tEy (V/m) @ t=0.22
0
% es.tEz (V/m) @ t=0.22
-0.6751938415422423
% V (V) @ t=0.22
0.01075594290595959
% es.normE (V/m) @ t=0.24
1.0665364703650786
% es.EX (V/m) @ t=0.24
-0.7635419587478924
% es.EY (V/m) @ t=0.24
0.2907832913846786
% es.EZ (V/m) @ t=0.24
-0.68134415755563
% es.tEX (V/m) @ t=0.24
-0.7635419587478949
% es.tEY (V/m) @ t=0.24
0
% es.tEZ (V/m) @ t=0.24
-0.6813441575556318
% es.Ex (V/m) @ t=0.24
-0.7635419587478924
% es.Ey (V/m) @ t=0.24
0.2907832913846786
% es.Ez (V/m) @ t=0.24
-0.68134415755563
% es.tEx (V/m) @ t=0.24
-0.7635419587478949
% es.tEy (V/m) @ t=0.24
0
% es.tEz (V/m) @ t=0.24
-0.6813441575556318
% V (V) @ t=0.24
0.010853918734678293
% es.normE (V/m) @ t=0.26
1.0761638086721537
% es.EX (V/m) @ t=0.26
-0.7704342468513741
% es.EY (V/m) @ t=0.26
0.2934081038356253
% es.EZ (V/m) @ t=0.26
-0.6874944735690427
% es.tEX (V/m) @ t=0.26
-0.7704342468513747
% es.tEY (V/m) @ t=0.26
0
% es.tEZ (V/m) @ t=0.26
-0.6874944735690409
% es.Ex (V/m) @ t=0.26
-0.7704342468513741
% es.Ey (V/m) @ t=0.26
0.2934081038356253
% es.Ez (V/m) @ t=0.26
-0.6874944735690427
% es.tEx (V/m) @ t=0.26
-0.7704342468513747
% es.tEy (V/m) @ t=0.26
0
% es.tEz (V/m) @ t=0.26
-0.6874944735690409
% V (V) @ t=0.26
0.010951894563396998
% es.normE (V/m) @ t=0.28
1.0867539993457649
% es.EX (V/m) @ t=0.28
-0.7780158550932776
% es.EY (V/m) @ t=0.28
0.29629489471956294
% es.EZ (V/m) @ t=0.28
-0.6942601592386959
% es.tEX (V/m) @ t=0.28
-0.7780158550932796
% es.tEY (V/m) @ t=0.28
0
% es.tEZ (V/m) @ t=0.28
-0.6942601592387021
% es.Ex (V/m) @ t=0.28
-0.7780158550932776
% es.Ey (V/m) @ t=0.28
0.29629489471956294
% es.Ez (V/m) @ t=0.28
-0.6942601592386959
% es.tEx (V/m) @ t=0.28
-0.7780158550932796
% es.tEy (V/m) @ t=0.28
0
% es.tEz (V/m) @ t=0.28
-0.6942601592387021
% V (V) @ t=0.28
0.011059691042386858
% es.normE (V/m) @ t=0.3
1.0974312647775502
% es.EX (V/m) @ t=0.3
-0.7856598014319398
% es.EY (V/m) @ t=0.3
0.2992053774064505
% es.EZ (V/m) @ t=0.3
-0.7010814953544333
% es.tEX (V/m) @ t=0.3
-0.7856598014319438
% es.tEY (V/m) @ t=0.3
0
% es.tEZ (V/m) @ t=0.3
-0.7010814953544386
% es.Ex (V/m) @ t=0.3
-0.7856598014319398
% es.Ey (V/m) @ t=0.3
0.2992053774064505
% es.Ez (V/m) @ t=0.3
-0.7010814953544333
% es.tEx (V/m) @ t=0.3
-0.7856598014319438
% es.tEy (V/m) @ t=0.3
0
% es.tEz (V/m) @ t=0.3
-0.7010814953544386
% V (V) @ t=0.3
0.011168375643764158
% es.normE (V/m) @ t=0.32
1.108108530209876
% es.EX (V/m) @ t=0.32
-0.7933037477706237
% es.EY (V/m) @ t=0.32
0.30211586009333846
% es.EZ (V/m) @ t=0.32
-0.7079028314701725
% es.tEX (V/m) @ t=0.32
-0.7933037477706297
% es.tEY (V/m) @ t=0.32
0
% es.tEZ (V/m) @ t=0.32
-0.7079028314701699
% es.Ex (V/m) @ t=0.32
-0.7933037477706237
% es.Ey (V/m) @ t=0.32
0.30211586009333846
% es.Ez (V/m) @ t=0.32
-0.7079028314701725
% es.tEx (V/m) @ t=0.32
-0.7933037477706297
% es.tEy (V/m) @ t=0.32
0
% es.tEz (V/m) @ t=0.32
-0.7079028314701699
% V (V) @ t=0.32
0.011277060245141456
% es.normE (V/m) @ t=0.34
1.1187857956427014
% es.EX (V/m) @ t=0.34
-0.8009476941093039
% es.EY (V/m) @ t=0.34
0.3050263427802391
% es.EZ (V/m) @ t=0.34
-0.7147241675858975
% es.tEX (V/m) @ t=0.34
-0.8009476941092974
% es.tEY (V/m) @ t=0.34
0
% es.tEZ (V/m) @ t=0.34
-0.7147241675858922
% es.Ex (V/m) @ t=0.34
-0.8009476941093039
% es.Ey (V/m) @ t=0.34
0.3050263427802391
% es.Ez (V/m) @ t=0.34
-0.7147241675858975
% es.tEx (V/m) @ t=0.34
-0.8009476941092974
% es.tEy (V/m) @ t=0.34
0
% es.tEz (V/m) @ t=0.34
-0.7147241675858922
% V (V) @ t=0.34
0.011385744846518754
% es.normE (V/m) @ t=0.36
1.1294630610760124
% es.EX (V/m) @ t=0.36
-0.808591640447964
% es.EY (V/m) @ t=0.36
0.3079368254671351
% es.EZ (V/m) @ t=0.36
-0.7215455037016314
% es.tEX (V/m) @ t=0.36
-0.808591640447966
% es.tEY (V/m) @ t=0.36
0
% es.tEZ (V/m) @ t=0.36
-0.7215455037016305
% es.Ex (V/m) @ t=0.36
-0.808591640447964
% es.Ey (V/m) @ t=0.36
0.3079368254671351
% es.Ez (V/m) @ t=0.36
-0.7215455037016314
% es.tEx (V/m) @ t=0.36
-0.808591640447966
% es.tEy (V/m) @ t=0.36
0
% es.tEz (V/m) @ t=0.36
-0.7215455037016305
% V (V) @ t=0.36
0.011494429447896052
% es.normE (V/m) @ t=0.38
1.140140326509819
% es.EX (V/m) @ t=0.38
-0.8162355867866495
% es.EY (V/m) @ t=0.38
0.31084730815402417
% es.EZ (V/m) @ t=0.38
-0.728366839817367
% es.tEX (V/m) @ t=0.38
-0.8162355867866409
% es.tEY (V/m) @ t=0.38
0
% es.tEZ (V/m) @ t=0.38
-0.7283668398173742
% es.Ex (V/m) @ t=0.38
-0.8162355867866495
% es.Ey (V/m) @ t=0.38
0.31084730815402417
% es.Ez (V/m) @ t=0.38
-0.728366839817367
% es.tEx (V/m) @ t=0.38
-0.8162355867866409
% es.tEy (V/m) @ t=0.38
0
% es.tEz (V/m) @ t=0.38
-0.7283668398173742
% V (V) @ t=0.38
0.01160311404927335
% es.normE (V/m) @ t=0.4
1.1508175919440977
% es.EX (V/m) @ t=0.4
-0.8238795331253221
% es.EY (V/m) @ t=0.4
0.31375779084093924
% es.EZ (V/m) @ t=0.4
-0.7351881759331125
% es.tEX (V/m) @ t=0.4
-0.8238795331253224
% es.tEY (V/m) @ t=0.4
0
% es.tEZ (V/m) @ t=0.4
-0.7351881759331089
% es.Ex (V/m) @ t=0.4
-0.8238795331253221
% es.Ey (V/m) @ t=0.4
0.31375779084093924
% es.Ez (V/m) @ t=0.4
-0.7351881759331125
% es.tEx (V/m) @ t=0.4
-0.8238795331253224
% es.tEy (V/m) @ t=0.4
0
% es.tEz (V/m) @ t=0.4
-0.7351881759331089
% V (V) @ t=0.4
0.011711798650650649
% es.normE (V/m) @ t=0.42
1.161494857378816
% es.EX (V/m) @ t=0.42
-0.8315234794639987
% es.EY (V/m) @ t=0.42
0.3166682735278241
% es.EZ (V/m) @ t=0.42
-0.7420095120488419
% es.tEX (V/m) @ t=0.42
-0.8315234794639936
% es.tEY (V/m) @ t=0.42
0
% es.tEZ (V/m) @ t=0.42
-0.7420095120488455
% es.Ex (V/m) @ t=0.42
-0.8315234794639987
% es.Ey (V/m) @ t=0.42
0.3166682735278241
% es.Ez (V/m) @ t=0.42
-0.7420095120488419
% es.tEx (V/m) @ t=0.42
-0.8315234794639936
% es.tEy (V/m) @ t=0.42
0
% es.tEz (V/m) @ t=0.42
-0.7420095120488455
% V (V) @ t=0.42
0.011820483252027949
% es.normE (V/m) @ t=0.44
1.1721721228139805
% es.EX (V/m) @ t=0.44
-0.8391674258026827
% es.EY (V/m) @ t=0.44
0.319578756214711
% es.EZ (V/m) @ t=0.44
-0.7488308481645713
% es.tEX (V/m) @ t=0.44
-0.8391674258026804
% es.tEY (V/m) @ t=0.44
0
% es.tEZ (V/m) @ t=0.44
-0.7488308481645696
% es.Ex (V/m) @ t=0.44
-0.8391674258026827
% es.Ey (V/m) @ t=0.44
0.319578756214711
% es.Ez (V/m) @ t=0.44
-0.7488308481645713
% es.tEx (V/m) @ t=0.44
-0.8391674258026804
% es.tEy (V/m) @ t=0.44
0
% es.tEz (V/m) @ t=0.44
-0.7488308481645696
% V (V) @ t=0.44
0.011929167853405245
% es.normE (V/m) @ t=0.46
1.1828493882495739
% es.EX (V/m) @ t=0.46
-0.8468113721413555
% es.EY (V/m) @ t=0.46
0.3224892389016225
% es.EZ (V/m) @ t=0.46
-0.7556521842803017
% es.tEX (V/m) @ t=0.46
-0.8468113721413553
% es.tEY (V/m) @ t=0.46
0
% es.tEZ (V/m) @ t=0.46
-0.7556521842803061
% es.Ex (V/m) @ t=0.46
-0.8468113721413555
% es.Ey (V/m) @ t=0.46
0.3224892389016225
% es.Ez (V/m) @ t=0.46
-0.7556521842803017
% es.tEx (V/m) @ t=0.46
-0.8468113721413553
% es.tEy (V/m) @ t=0.46
0
% es.tEz (V/m) @ t=0.46
-0.7556521842803061
% V (V) @ t=0.46
0.012037852454782545
% es.normE (V/m) @ t=0.48
1.1935266536855886
% es.EX (V/m) @ t=0.48
-0.8544553184800232
% es.EY (V/m) @ t=0.48
0.3253997215885036
% es.EZ (V/m) @ t=0.48
-0.7624735203960542
% es.tEX (V/m) @ t=0.48
-0.8544553184800194
% es.tEY (V/m) @ t=0.48
0
% es.tEZ (V/m) @ t=0.48
-0.7624735203960586
% es.Ex (V/m) @ t=0.48
-0.8544553184800232
% es.Ey (V/m) @ t=0.48
0.3253997215885036
% es.Ez (V/m) @ t=0.48
-0.7624735203960542
% es.tEx (V/m) @ t=0.48
-0.8544553184800194
% es.tEy (V/m) @ t=0.48
0
% es.tEz (V/m) @ t=0.48
-0.7624735203960586
% V (V) @ t=0.48
0.012146537056159841
% es.normE (V/m) @ t=0.5
1.2042039191220015
% es.EX (V/m) @ t=0.5
-0.8620992648186949
% es.EY (V/m) @ t=0.5
0.3283102042754047
% es.EZ (V/m) @ t=0.5
-0.7692948565117783
% es.tEX (V/m) @ t=0.5
-0.8620992648186907
% es.tEY (V/m) @ t=0.5
0
% es.tEZ (V/m) @ t=0.5
-0.7692948565117756
% es.Ex (V/m) @ t=0.5
-0.8620992648186949
% es.Ey (V/m) @ t=0.5
0.3283102042754047
% es.Ez (V/m) @ t=0.5
-0.7692948565117783
% es.tEx (V/m) @ t=0.5
-0.8620992648186907
% es.tEy (V/m) @ t=0.5
0
% es.tEz (V/m) @ t=0.5
-0.7692948565117756
% V (V) @ t=0.5
0.012255221657537143
% es.normE (V/m) @ t=0.52
1.2148811845588108
% es.EX (V/m) @ t=0.52
-0.8697432111573751
% es.EY (V/m) @ t=0.52
0.3312206869622951
% es.EZ (V/m) @ t=0.52
-0.7761161926275006
% es.tEX (V/m) @ t=0.52
-0.8697432111573771
% es.tEY (V/m) @ t=0.52
0
% es.tEZ (V/m) @ t=0.52
-0.7761161926275051
% es.Ex (V/m) @ t=0.52
-0.8697432111573751
% es.Ey (V/m) @ t=0.52
0.3312206869622951
% es.Ez (V/m) @ t=0.52
-0.7761161926275006
% es.tEx (V/m) @ t=0.52
-0.8697432111573771
% es.tEy (V/m) @ t=0.52
0
% es.tEz (V/m) @ t=0.52
-0.7761161926275051
% V (V) @ t=0.52
0.01236390625891444
% es.normE (V/m) @ t=0.54
1.226554772767194
% es.EX (V/m) @ t=0.54
-0.8781004193633974
% es.EY (V/m) @ t=0.54
0.33440391567054206
% es.EZ (V/m) @ t=0.54
-0.7835734757554675
% es.tEX (V/m) @ t=0.54
-0.8781004193633919
% es.tEY (V/m) @ t=0.54
0
% es.tEZ (V/m) @ t=0.54
-0.7835734757554604
% es.Ex (V/m) @ t=0.54
-0.8781004193633974
% es.Ey (V/m) @ t=0.54
0.33440391567054206
% es.Ez (V/m) @ t=0.54
-0.7835734757554675
% es.tEx (V/m) @ t=0.54
-0.8781004193633919
% es.tEy (V/m) @ t=0.54
0
% es.tEz (V/m) @ t=0.54
-0.7835734757554604
% V (V) @ t=0.54
0.012482685050501196
% es.normE (V/m) @ t=0.56
1.2384129253459455
% es.EX (V/m) @ t=0.56
-0.8865897561633671
% es.EY (V/m) @ t=0.56
0.33763766936819817
% es.EZ (V/m) @ t=0.56
-0.7911485652437706
% es.tEX (V/m) @ t=0.56
-0.8865897561633709
% es.tEY (V/m) @ t=0.56
0
% es.tEZ (V/m) @ t=0.56
-0.7911485652437698
% es.Ex (V/m) @ t=0.56
-0.8865897561633671
% es.Ey (V/m) @ t=0.56
0.33763766936819817
% es.Ez (V/m) @ t=0.56
-0.7911485652437706
% es.tEx (V/m) @ t=0.56
-0.8865897561633709
% es.tEy (V/m) @ t=0.56
0
% es.tEz (V/m) @ t=0.56
-0.7911485652437698
% V (V) @ t=0.56
0.012603333746005026
% es.normE (V/m) @ t=0.58
1.2502710779255284
% es.EX (V/m) @ t=0.58
-0.8950790929633541
% es.EY (V/m) @ t=0.58
0.34087142306586093
% es.EZ (V/m) @ t=0.58
-0.7987236547320657
% es.tEX (V/m) @ t=0.58
-0.8950790929633476
% es.tEY (V/m) @ t=0.58
0
% es.tEZ (V/m) @ t=0.58
-0.7987236547320613
% es.Ex (V/m) @ t=0.58
-0.8950790929633541
% es.Ey (V/m) @ t=0.58
0.34087142306586093
% es.Ez (V/m) @ t=0.58
-0.7987236547320657
% es.tEx (V/m) @ t=0.58
-0.8950790929633476
% es.tEy (V/m) @ t=0.58
0
% es.tEz (V/m) @ t=0.58
-0.7987236547320613
% V (V) @ t=0.58
0.01272398244150886
% es.normE (V/m) @ t=0.6
1.262129230505924
% es.EX (V/m) @ t=0.6
-0.9035684297633451
% es.EY (V/m) @ t=0.6
0.34410517676351215
% es.EZ (V/m) @ t=0.6
-0.8062987442203777
% es.tEX (V/m) @ t=0.6
-0.9035684297633448
% es.tEY (V/m) @ t=0.6
0
% es.tEZ (V/m) @ t=0.6
-0.8062987442203777
% es.Ex (V/m) @ t=0.6
-0.9035684297633451
% es.Ey (V/m) @ t=0.6
0.34410517676351215
% es.Ez (V/m) @ t=0.6
-0.8062987442203777
% es.tEx (V/m) @ t=0.6
-0.9035684297633448
% es.tEy (V/m) @ t=0.6
0
% es.tEz (V/m) @ t=0.6
-0.8062987442203777
% V (V) @ t=0.6
0.012844631137012693
% es.normE (V/m) @ t=0.62
1.2739873830870798
% es.EX (V/m) @ t=0.62
-0.9120577665633187
% es.EY (V/m) @ t=0.62
0.34733893046117803
% es.EZ (V/m) @ t=0.62
-0.8138738337086773
% es.tEX (V/m) @ t=0.62
-0.9120577665633203
% es.tEY (V/m) @ t=0.62
0
% es.tEZ (V/m) @ t=0.62
-0.8138738337086817
% es.Ex (V/m) @ t=0.62
-0.9120577665633187
% es.Ey (V/m) @ t=0.62
0.34733893046117803
% es.Ez (V/m) @ t=0.62
-0.8138738337086773
% es.tEx (V/m) @ t=0.62
-0.9120577665633203
% es.tEy (V/m) @ t=0.62
0
% es.tEz (V/m) @ t=0.62
-0.8138738337086817
% V (V) @ t=0.62
0.012965279832516524
% es.normE (V/m) @ t=0.64
1.2858455356689977
% es.EX (V/m) @ t=0.64
-0.9205471033632995
% es.EY (V/m) @ t=0.64
0.35057268415886034
% es.EZ (V/m) @ t=0.64
-0.8214489231969679
% es.tEX (V/m) @ t=0.64
-0.9205471033633001
% es.tEY (V/m) @ t=0.64
0
% es.tEZ (V/m) @ t=0.64
-0.8214489231969697
% es.Ex (V/m) @ t=0.64
-0.9205471033632995
% es.Ey (V/m) @ t=0.64
0.35057268415886034
% es.Ez (V/m) @ t=0.64
-0.8214489231969679
% es.tEx (V/m) @ t=0.64
-0.9205471033633001
% es.tEy (V/m) @ t=0.64
0
% es.tEz (V/m) @ t=0.64
-0.8214489231969697
% V (V) @ t=0.64
0.01308592852802036
% es.normE (V/m) @ t=0.66
1.2977036882516682
% es.EX (V/m) @ t=0.66
-0.9290364401632945
% es.EY (V/m) @ t=0.66
0.35380643785650845
% es.EZ (V/m) @ t=0.66
-0.8290240126852844
% es.tEX (V/m) @ t=0.66
-0.9290364401632907
% es.tEY (V/m) @ t=0.66
0
% es.tEZ (V/m) @ t=0.66
-0.8290240126852879
% es.Ex (V/m) @ t=0.66
-0.9290364401632945
% es.Ey (V/m) @ t=0.66
0.35380643785650845
% es.Ez (V/m) @ t=0.66
-0.8290240126852844
% es.tEx (V/m) @ t=0.66
-0.9290364401632907
% es.tEy (V/m) @ t=0.66
0
% es.tEz (V/m) @ t=0.66
-0.8290240126852879
% V (V) @ t=0.66
0.013206577223524191
% es.normE (V/m) @ t=0.68
1.3095618408350314
% es.EX (V/m) @ t=0.68
-0.9375257769632679
% es.EY (V/m) @ t=0.68
0.35704019155416855
% es.EZ (V/m) @ t=0.68
-0.8365991021735812
% es.tEX (V/m) @ t=0.68
-0.9375257769632626
% es.tEY (V/m) @ t=0.68
0
% es.tEZ (V/m) @ t=0.68
-0.8365991021735901
% es.Ex (V/m) @ t=0.68
-0.9375257769632679
% es.Ey (V/m) @ t=0.68
0.35704019155416855
% es.Ez (V/m) @ t=0.68
-0.8365991021735812
% es.tEx (V/m) @ t=0.68
-0.9375257769632626
% es.tEy (V/m) @ t=0.68
0
% es.tEz (V/m) @ t=0.68
-0.8365991021735901
% V (V) @ t=0.68
0.013327225919028024
% es.normE (V/m) @ t=0.7
1.3214199934191044
% es.EX (V/m) @ t=0.7
-0.946015113763256
% es.EY (V/m) @ t=0.7
0.3602739452518513
% es.EZ (V/m) @ t=0.7
-0.8441741916618728
% es.tEX (V/m) @ t=0.7
-0.9460151137632535
% es.tEY (V/m) @ t=0.7
0
% es.tEZ (V/m) @ t=0.7
-0.8441741916618888
% es.Ex (V/m) @ t=0.7
-0.946015113763256
% es.Ey (V/m) @ t=0.7
0.3602739452518513
% es.Ez (V/m) @ t=0.7
-0.8441741916618728
% es.tEx (V/m) @ t=0.7
-0.9460151137632535
% es.tEy (V/m) @ t=0.7
0
% es.tEz (V/m) @ t=0.7
-0.8441741916618888
% V (V) @ t=0.7
0.013447874614531858
% es.normE (V/m) @ t=0.72
1.333278146003848
% es.EX (V/m) @ t=0.72
-0.954504450563235
% es.EY (V/m) @ t=0.72
0.36350769894948165
% es.EZ (V/m) @ t=0.72
-0.8517492811501866
% es.tEX (V/m) @ t=0.72
-0.9545044505632365
% es.tEY (V/m) @ t=0.72
0
% es.tEZ (V/m) @ t=0.72
-0.8517492811501839
% es.Ex (V/m) @ t=0.72
-0.954504450563235
% es.Ey (V/m) @ t=0.72
0.36350769894948165
% es.Ez (V/m) @ t=0.72
-0.8517492811501866
% es.tEx (V/m) @ t=0.72
-0.9545044505632365
% es.tEy (V/m) @ t=0.72
0
% es.tEz (V/m) @ t=0.72
-0.8517492811501839
% V (V) @ t=0.72
0.013568523310035689
% es.normE (V/m) @ t=0.74
1.3451362985892645
% es.EX (V/m) @ t=0.74
-0.9629937873632122
% es.EY (V/m) @ t=0.74
0.36674145264717106
% es.EZ (V/m) @ t=0.74
-0.859324370638495
% es.tEX (V/m) @ t=0.74
-0.9629937873632093
% es.tEY (V/m) @ t=0.74
0
% es.tEZ (V/m) @ t=0.74
-0.859324370638495
% es.Ex (V/m) @ t=0.74
-0.9629937873632122
% es.Ey (V/m) @ t=0.74
0.36674145264717106
% es.Ez (V/m) @ t=0.74
-0.859324370638495
% es.tEx (V/m) @ t=0.74
-0.9629937873632093
% es.tEy (V/m) @ t=0.74
0
% es.tEz (V/m) @ t=0.74
-0.859324370638495
% V (V) @ t=0.74
0.01368917200553952
% es.normE (V/m) @ t=0.76
1.3569944511753205
% es.EX (V/m) @ t=0.76
-0.9714831241632125
% es.EY (V/m) @ t=0.76
0.36997520634482095
% es.EZ (V/m) @ t=0.76
-0.8668994601267892
% es.tEX (V/m) @ t=0.76
-0.9714831241632069
% es.tEY (V/m) @ t=0.76
0
% es.tEZ (V/m) @ t=0.76
-0.8668994601267901
% es.Ex (V/m) @ t=0.76
-0.9714831241632125
% es.Ey (V/m) @ t=0.76
0.36997520634482095
% es.Ez (V/m) @ t=0.76
-0.8668994601267892
% es.tEx (V/m) @ t=0.76
-0.9714831241632069
% es.tEy (V/m) @ t=0.76
0
% es.tEz (V/m) @ t=0.76
-0.8668994601267901
% V (V) @ t=0.76
0.01380982070104335
% es.normE (V/m) @ t=0.78
1.3688526037620008
% es.EX (V/m) @ t=0.78
-0.979972460963191
% es.EY (V/m) @ t=0.78
0.37320896004250326
% es.EZ (V/m) @ t=0.78
-0.8744745496150887
% es.tEX (V/m) @ t=0.78
-0.9799724609631926
% es.tEY (V/m) @ t=0.78
0
% es.tEZ (V/m) @ t=0.78
-0.8744745496150923
% es.Ex (V/m) @ t=0.78
-0.979972460963191
% es.Ey (V/m) @ t=0.78
0.37320896004250326
% es.Ez (V/m) @ t=0.78
-0.8744745496150887
% es.tEx (V/m) @ t=0.78
-0.9799724609631926
% es.tEy (V/m) @ t=0.78
0
% es.tEz (V/m) @ t=0.78
-0.8744745496150923
% V (V) @ t=0.78
0.013930469396547185
% es.normE (V/m) @ t=0.8
1.3817403178010808
% es.EX (V/m) @ t=0.8
-0.9891988588028251
% es.EY (V/m) @ t=0.8
0.37672310506650364
% es.EZ (V/m) @ t=0.8
-0.8827075297718574
% es.tEX (V/m) @ t=0.8
-0.989198858802824
% es.tEY (V/m) @ t=0.8
0
% es.tEZ (V/m) @ t=0.8
-0.8827075297718547
% es.Ex (V/m) @ t=0.8
-0.9891988588028251
% es.Ey (V/m) @ t=0.8
0.37672310506650364
% es.Ez (V/m) @ t=0.8
-0.8827075297718574
% es.tEx (V/m) @ t=0.8
-0.989198858802824
% es.tEy (V/m) @ t=0.8
0
% es.tEz (V/m) @ t=0.8
-0.8827075297718547
% V (V) @ t=0.8
0.014061608502339264
% es.normE (V/m) @ t=0.82
1.3949349589203504
% es.EX (V/m) @ t=0.82
-0.9986449851417161
% es.EY (V/m) @ t=0.82
0.3803208387786148
% es.EZ (V/m) @ t=0.82
-0.8911366366012912
% es.tEX (V/m) @ t=0.82
-0.9986449851417105
% es.tEY (V/m) @ t=0.82
0
% es.tEZ (V/m) @ t=0.82
-0.8911366366012867
% es.Ex (V/m) @ t=0.82
-0.9986449851417161
% es.Ey (V/m) @ t=0.82
0.3803208387786148
% es.Ez (V/m) @ t=0.82
-0.8911366366012912
% es.tEx (V/m) @ t=0.82
-0.9986449851417105
% es.tEy (V/m) @ t=0.82
0
% es.tEz (V/m) @ t=0.82
-0.8911366366012867
% V (V) @ t=0.82
0.014195874950353068
% es.normE (V/m) @ t=0.84
1.4081296000397208
% es.EX (V/m) @ t=0.84
-1.0080911114806013
% es.EY (V/m) @ t=0.84
0.38391857249075123
% es.EZ (V/m) @ t=0.84
-0.8995657434307187
% es.tEX (V/m) @ t=0.84
-1.0080911114806037
% es.tEY (V/m) @ t=0.84
0
% es.tEZ (V/m) @ t=0.84
-0.8995657434307383
% es.Ex (V/m) @ t=0.84
-1.0080911114806013
% es.Ey (V/m) @ t=0.84
0.38391857249075123
% es.Ez (V/m) @ t=0.84
-0.8995657434307187
% es.tEx (V/m) @ t=0.84
-1.0080911114806037
% es.tEy (V/m) @ t=0.84
0
% es.tEz (V/m) @ t=0.84
-0.8995657434307383
% V (V) @ t=0.84
0.014330141398366874
% es.normE (V/m) @ t=0.86
1.4213242411591946
% es.EX (V/m) @ t=0.86
-1.0175372378195078
% es.EY (V/m) @ t=0.86
0.3875163062028646
% es.EZ (V/m) @ t=0.86
-0.90799485026014
% es.tEX (V/m) @ t=0.86
-1.0175372378195076
% es.tEY (V/m) @ t=0.86
0
% es.tEZ (V/m) @ t=0.86
-0.9079948502601436
% es.Ex (V/m) @ t=0.86
-1.0175372378195078
% es.Ey (V/m) @ t=0.86
0.3875163062028646
% es.Ez (V/m) @ t=0.86
-0.90799485026014
% es.tEx (V/m) @ t=0.86
-1.0175372378195076
% es.tEy (V/m) @ t=0.86
0
% es.tEz (V/m) @ t=0.86
-0.9079948502601436
% V (V) @ t=0.86
0.014464407846380678
% es.normE (V/m) @ t=0.88
1.4345188822787598
% es.EX (V/m) @ t=0.88
-1.0269833641583943
% es.EY (V/m) @ t=0.88
0.3911140399149864
% es.EZ (V/m) @ t=0.88
-0.916423957089572
% es.tEX (V/m) @ t=0.88
-1.0269833641583932
% es.tEY (V/m) @ t=0.88
0
% es.tEZ (V/m) @ t=0.88
-0.9164239570895791
% es.Ex (V/m) @ t=0.88
-1.0269833641583943
% es.Ey (V/m) @ t=0.88
0.3911140399149864
% es.Ez (V/m) @ t=0.88
-0.916423957089572
% es.tEx (V/m) @ t=0.88
-1.0269833641583932
% es.tEy (V/m) @ t=0.88
0
% es.tEz (V/m) @ t=0.88
-0.9164239570895791
% V (V) @ t=0.88
0.014598674294394485
% es.normE (V/m) @ t=0.9
1.4477135233984284
% es.EX (V/m) @ t=0.9
-1.0364294904973013
% es.EY (V/m) @ t=0.9
0.39471177362707976
% es.EZ (V/m) @ t=0.9
-0.9248530639190111
% es.tEX (V/m) @ t=0.9
-1.0364294904972975
% es.tEY (V/m) @ t=0.9
0
% es.tEZ (V/m) @ t=0.9
-0.9248530639190164
% es.Ex (V/m) @ t=0.9
-1.0364294904973013
% es.Ey (V/m) @ t=0.9
0.39471177362707976
% es.Ez (V/m) @ t=0.9
-0.9248530639190111
% es.tEx (V/m) @ t=0.9
-1.0364294904972975
% es.tEy (V/m) @ t=0.9
0
% es.tEz (V/m) @ t=0.9
-0.9248530639190164
% V (V) @ t=0.9
0.014732940742408294
% es.normE (V/m) @ t=0.92
1.4609081645181825
% es.EX (V/m) @ t=0.92
-1.0458756168361931
% es.EY (V/m) @ t=0.92
0.3983095073391989
% es.EZ (V/m) @ t=0.92
-0.9332821707484458
% es.tEX (V/m) @ t=0.92
-1.0458756168361867
% es.tEY (V/m) @ t=0.92
0
% es.tEZ (V/m) @ t=0.92
-0.9332821707484449
% es.Ex (V/m) @ t=0.92
-1.0458756168361931
% es.Ey (V/m) @ t=0.92
0.3983095073391989
% es.Ez (V/m) @ t=0.92
-0.9332821707484458
% es.tEx (V/m) @ t=0.92
-1.0458756168361867
% es.tEy (V/m) @ t=0.92
0
% es.tEz (V/m) @ t=0.92
-0.9332821707484449
% V (V) @ t=0.92
0.014867207190422102
% es.normE (V/m) @ t=0.94
1.4741028056380188
% es.EX (V/m) @ t=0.94
-1.0553217431750856
% es.EY (V/m) @ t=0.94
0.4019072410513118
% es.EZ (V/m) @ t=0.94
-0.9417112775778733
% es.tEX (V/m) @ t=0.94
-1.0553217431750874
% es.tEY (V/m) @ t=0.94
0
% es.tEZ (V/m) @ t=0.94
-0.9417112775778733
% es.Ex (V/m) @ t=0.94
-1.0553217431750856
% es.Ey (V/m) @ t=0.94
0.4019072410513118
% es.Ez (V/m) @ t=0.94
-0.9417112775778733
% es.tEx (V/m) @ t=0.94
-1.0553217431750874
% es.tEy (V/m) @ t=0.94
0
% es.tEz (V/m) @ t=0.94
-0.9417112775778733
% V (V) @ t=0.94
0.015001473638435906
% es.normE (V/m) @ t=0.96
1.4872974467579358
% es.EX (V/m) @ t=0.96
-1.0647678695139626
% es.EY (V/m) @ t=0.96
0.4055049747634194
% es.EZ (V/m) @ t=0.96
-0.9501403844073106
% es.tEX (V/m) @ t=0.96
-1.0647678695139597
% es.tEY (V/m) @ t=0.96
0
% es.tEZ (V/m) @ t=0.96
-0.9501403844073195
% es.Ex (V/m) @ t=0.96
-1.0647678695139626
% es.Ey (V/m) @ t=0.96
0.4055049747634194
% es.Ez (V/m) @ t=0.96
-0.9501403844073106
% es.tEx (V/m) @ t=0.96
-1.0647678695139597
% es.tEy (V/m) @ t=0.96
0
% es.tEz (V/m) @ t=0.96
-0.9501403844073195
% V (V) @ t=0.96
0.01513574008644971
% es.normE (V/m) @ t=0.98
1.5004920878779473
% es.EX (V/m) @ t=0.98
-1.074213995852855
% es.EY (V/m) @ t=0.98
0.40910270847553276
% es.EZ (V/m) @ t=0.98
-0.9585694912367462
% es.tEX (V/m) @ t=0.98
-1.074213995852853
% es.tEY (V/m) @ t=0.98
0
% es.tEZ (V/m) @ t=0.98
-0.9585694912367551
% es.Ex (V/m) @ t=0.98
-1.074213995852855
% es.Ey (V/m) @ t=0.98
0.40910270847553276
% es.Ez (V/m) @ t=0.98
-0.9585694912367462
% es.tEx (V/m) @ t=0.98
-1.074213995852853
% es.tEy (V/m) @ t=0.98
0
% es.tEz (V/m) @ t=0.98
-0.9585694912367551
% V (V) @ t=0.98
0.015270006534463518
% es.normE (V/m) @ t=1
1.513686728998047
% es.EX (V/m) @ t=1
-1.0836601221917468
% es.EY (V/m) @ t=1
0.41270044218765634
% es.EZ (V/m) @ t=1
-0.966998598066187
% es.tEX (V/m) @ t=1
-1.0836601221917421
% es.tEY (V/m) @ t=1
0
% es.tEZ (V/m) @ t=1
-0.9669985980661835
% es.Ex (V/m) @ t=1
-1.0836601221917468
% es.Ey (V/m) @ t=1
0.41270044218765634
% es.Ez (V/m) @ t=1
-0.966998598066187
% es.tEx (V/m) @ t=1
-1.0836601221917421
% es.tEy (V/m) @ t=1
0
% es.tEz (V/m) @ t=1
-0.9669985980661835
% V (V) @ t=1
0.015404272982477322
% es.normE (V/m) @ t=1.02
1.5268813701182213
% es.EX (V/m) @ t=1.02
-1.093106248530648
% es.EY (V/m) @ t=1.02
0.41629817589976703
% es.EZ (V/m) @ t=1.02
-0.9754277048956173
% es.tEX (V/m) @ t=1.02
-1.0931062485306495
% es.tEY (V/m) @ t=1.02
0
% es.tEZ (V/m) @ t=1.02
-0.975427704895619
% es.Ex (V/m) @ t=1.02
-1.093106248530648
% es.Ey (V/m) @ t=1.02
0.41629817589976703
% es.Ez (V/m) @ t=1.02
-0.9754277048956173
% es.tEx (V/m) @ t=1.02
-1.0931062485306495
% es.tEy (V/m) @ t=1.02
0
% es.tEz (V/m) @ t=1.02
-0.975427704895619
% V (V) @ t=1.02
0.015538539430491133