% Model:              1 neuron.mph
% Version:            COMSOL 6.1.0.252
% Date:               Mar 18 2023, 13:22
% Dimension:          0
% Nodes:              14017
% Expressions:        14017
% Description:        Electric field norm, Electric field, X component, Electric field, Y component, Electric field, Z component, Tangential electric field, X component, Tangential electric field, Y component, Tangential electric field, Z component, Electric field, x component, Electric field, y component, Electric field, z component, Tangential electric field, x component, Tangential electric field, y component, Tangential electric field, z component, Electric potential
% Length unit:        mm
% x
1
% y
12.2
% z
1
% es.normE (V/m) @ t=0
1.2077143401911075
% es.EX (V/m) @ t=0
0.8200527317992687
% es.EY (V/m) @ t=0
0.23290564775745004
% es.EZ (V/m) @ t=0
0.8332122527335599
% es.tEX (V/m) @ t=0
0.820052731799251
% es.tEY (V/m) @ t=0
0
% es.tEZ (V/m) @ t=0
0.8332122527335457
% es.Ex (V/m) @ t=0
0.8200527317992687
% es.Ey (V/m) @ t=0
0.23290564775745004
% es.Ez (V/m) @ t=0
0.8332122527335599
% es.tEx (V/m) @ t=0
0.820052731799251
% es.tEy (V/m) @ t=0
0
% es.tEz (V/m) @ t=0
0.8332122527335457
% V (V) @ t=0
0.011325083148858554
% es.normE (V/m) @ t=0.02
1.0431156978945677
% es.EX (V/m) @ t=0.02
0.7082882508772457
% es.EY (V/m) @ t=0.02
0.2011630808750411
% es.EZ (V/m) @ t=0.02
0.719654268856945
% es.tEX (V/m) @ t=0.02
0.7082882508772599
% es.tEY (V/m) @ t=0.02
0
% es.tEZ (V/m) @ t=0.02
0.7196542688569352
% es.Ex (V/m) @ t=0.02
0.7082882508772457
% es.Ey (V/m) @ t=0.02
0.2011630808750411
% es.Ez (V/m) @ t=0.02
0.719654268856945
% es.tEx (V/m) @ t=0.02
0.7082882508772599
% es.tEy (V/m) @ t=0.02
0
% es.tEz (V/m) @ t=0.02
0.7196542688569352
% V (V) @ t=0.02
0.00978159454860975
% es.normE (V/m) @ t=0.04
1.0527119917097036
% es.EX (V/m) @ t=0.04
0.7148042510997925
% es.EY (V/m) @ t=0.04
0.20301370986644862
% es.EZ (V/m) @ t=0.04
0.7262748324265074
% es.tEX (V/m) @ t=0.04
0.7148042510997925
% es.tEY (V/m) @ t=0.04
0
% es.tEZ (V/m) @ t=0.04
0.7262748324264905
% es.Ex (V/m) @ t=0.04
0.7148042510997925
% es.Ey (V/m) @ t=0.04
0.20301370986644862
% es.Ez (V/m) @ t=0.04
0.7262748324265074
% es.tEx (V/m) @ t=0.04
0.7148042510997925
% es.tEy (V/m) @ t=0.04
0
% es.tEz (V/m) @ t=0.04
0.7262748324264905
% V (V) @ t=0.04
0.009871581739068557
% es.normE (V/m) @ t=0.06
1.0623839802652426
% es.EX (V/m) @ t=0.06
0.7213716492083648
% es.EY (V/m) @ t=0.06
0.20487893582238215
% es.EZ (V/m) @ t=0.06
0.7329476185181623
% es.tEX (V/m) @ t=0.06
0.721371649208379
% es.tEY (V/m) @ t=0.06
0
% es.tEZ (V/m) @ t=0.06
0.7329476185181534
% es.Ex (V/m) @ t=0.06
0.7213716492083648
% es.Ey (V/m) @ t=0.06
0.20487893582238215
% es.Ez (V/m) @ t=0.06
0.7329476185181623
% es.tEx (V/m) @ t=0.06
0.721371649208379
% es.tEy (V/m) @ t=0.06
0
% es.tEz (V/m) @ t=0.06
0.7329476185181534
% V (V) @ t=0.06
0.009962278761982576
% es.normE (V/m) @ t=0.08
1.0722285871837642
% es.EX (V/m) @ t=0.08
0.7280562571263651
% es.EY (V/m) @ t=0.08
0.20677745135435188
% es.EZ (V/m) @ t=0.08
0.7397394954136507
% es.tEX (V/m) @ t=0.08
0.7280562571263829
% es.tEY (V/m) @ t=0.08
0
% es.tEZ (V/m) @ t=0.08
0.7397394954136445
% es.Ex (V/m) @ t=0.08
0.7280562571263651
% es.Ey (V/m) @ t=0.08
0.20677745135435188
% es.Ez (V/m) @ t=0.08
0.7397394954136507
% es.tEx (V/m) @ t=0.08
0.7280562571263829
% es.tEy (V/m) @ t=0.08
0
% es.tEz (V/m) @ t=0.08
0.7397394954136445
% V (V) @ t=0.08
0.010054594462917666
% es.normE (V/m) @ t=0.1
1.0821411832944534
% es.EX (V/m) @ t=0.1
0.7347870304703292
% es.EY (V/m) @ t=0.1
0.20868907865120967
% es.EZ (V/m) @ t=0.1
0.7465782786023301
% es.tEX (V/m) @ t=0.1
0.7347870304703008
% es.tEY (V/m) @ t=0.1
0
% es.tEZ (V/m) @ t=0.1
0.7465782786023141
% es.Ex (V/m) @ t=0.1
0.7347870304703292
% es.Ey (V/m) @ t=0.1
0.20868907865120967
% es.Ez (V/m) @ t=0.1
0.7465782786023301
% es.tEx (V/m) @ t=0.1
0.7347870304703008
% es.tEy (V/m) @ t=0.1
0
% es.tEz (V/m) @ t=0.1
0.7465782786023141
% V (V) @ t=0.1
0.010147547712541519
% es.normE (V/m) @ t=0.12
1.0920537794050968
% es.EX (V/m) @ t=0.12
0.74151780381424
% es.EY (V/m) @ t=0.12
0.21060070594803904
% es.EZ (V/m) @ t=0.12
0.7534170617910041
% es.tEX (V/m) @ t=0.12
0.7415178038142045
% es.tEY (V/m) @ t=0.12
0
% es.tEZ (V/m) @ t=0.12
0.7534170617909837
% es.Ex (V/m) @ t=0.12
0.74151780381424
% es.Ey (V/m) @ t=0.12
0.21060070594803904
% es.Ez (V/m) @ t=0.12
0.7534170617910041
% es.tEx (V/m) @ t=0.12
0.7415178038142045
% es.tEy (V/m) @ t=0.12
0
% es.tEz (V/m) @ t=0.12
0.7534170617909837
% V (V) @ t=0.12
0.010240500962165368
% es.normE (V/m) @ t=0.14
1.1021921492312177
% es.EX (V/m) @ t=0.14
0.748401880303053
% es.EY (V/m) @ t=0.14
0.21255587321039293
% es.EZ (V/m) @ t=0.14
0.7604116081698038
% es.tEX (V/m) @ t=0.14
0.7484018803030068
% es.tEY (V/m) @ t=0.14
0
% es.tEZ (V/m) @ t=0.14
0.7604116081697896
% es.Ex (V/m) @ t=0.14
0.748401880303053
% es.Ey (V/m) @ t=0.14
0.21255587321039293
% es.Ez (V/m) @ t=0.14
0.7604116081698038
% es.tEx (V/m) @ t=0.14
0.7484018803030068
% es.tEy (V/m) @ t=0.14
0
% es.tEz (V/m) @ t=0.14
0.7604116081697896
% V (V) @ t=0.14
0.010335571360008282
% es.normE (V/m) @ t=0.16
1.1126127379951805
% es.EX (V/m) @ t=0.16
0.7554775869406427
% es.EY (V/m) @ t=0.16
0.2145654657756566
% es.EZ (V/m) @ t=0.16
0.7676008597737214
% es.tEX (V/m) @ t=0.16
0.7554775869406569
% es.tEY (V/m) @ t=0.16
0
% es.tEZ (V/m) @ t=0.16
0.7676008597737152
% es.Ex (V/m) @ t=0.16
0.7554775869406427
% es.Ey (V/m) @ t=0.16
0.2145654657756566
% es.Ez (V/m) @ t=0.16
0.7676008597737214
% es.tEx (V/m) @ t=0.16
0.7554775869406569
% es.tEy (V/m) @ t=0.16
0
% es.tEz (V/m) @ t=0.16
0.7676008597737152
% V (V) @ t=0.16
0.010433288209945274
% es.normE (V/m) @ t=0.18
1.1230333267592147
% es.EX (V/m) @ t=0.18
0.7625532935782999
% es.EY (V/m) @ t=0.18
0.21657505834091495
% es.EZ (V/m) @ t=0.18
0.7747901113776692
% es.tEX (V/m) @ t=0.18
0.7625532935782786
% es.tEY (V/m) @ t=0.18
0
% es.tEZ (V/m) @ t=0.18
0.7747901113776621
% es.Ex (V/m) @ t=0.18
0.7625532935782999
% es.Ey (V/m) @ t=0.18
0.21657505834091495
% es.Ez (V/m) @ t=0.18
0.7747901113776692
% es.tEx (V/m) @ t=0.18
0.7625532935782786
% es.tEy (V/m) @ t=0.18
0
% es.tEz (V/m) @ t=0.18
0.7747901113776621
% V (V) @ t=0.18
0.010531005059882269
% es.normE (V/m) @ t=0.2
1.133453915523231
% es.EX (V/m) @ t=0.2
0.7696290002159323
% es.EY (V/m) @ t=0.2
0.21858465090617685
% es.EZ (V/m) @ t=0.2
0.7819793629816081
% es.tEX (V/m) @ t=0.2
0.7696290002159571
% es.tEY (V/m) @ t=0.2
0
% es.tEZ (V/m) @ t=0.2
0.7819793629816019
% es.Ex (V/m) @ t=0.2
0.7696290002159323
% es.Ey (V/m) @ t=0.2
0.21858465090617685
% es.Ez (V/m) @ t=0.2
0.7819793629816081
% es.tEx (V/m) @ t=0.2
0.7696290002159571
% es.tEy (V/m) @ t=0.2
0
% es.tEz (V/m) @ t=0.2
0.7819793629816019
% V (V) @ t=0.2
0.010628721909819264
% es.normE (V/m) @ t=0.22
1.1438745042872671
% es.EX (V/m) @ t=0.22
0.7767047068535895
% es.EY (V/m) @ t=0.22
0.22059424347150625
% es.EZ (V/m) @ t=0.22
0.7891686145855434
% es.tEX (V/m) @ t=0.22
0.7767047068535646
% es.tEY (V/m) @ t=0.22
0
% es.tEZ (V/m) @ t=0.22
0.7891686145855346
% es.Ex (V/m) @ t=0.22
0.7767047068535895
% es.Ey (V/m) @ t=0.22
0.22059424347150625
% es.Ez (V/m) @ t=0.22
0.7891686145855434
% es.tEx (V/m) @ t=0.22
0.7767047068535646
% es.tEy (V/m) @ t=0.22
0
% es.tEz (V/m) @ t=0.22
0.7891686145855346
% V (V) @ t=0.22
0.01072643875975626
% es.normE (V/m) @ t=0.24
1.1542950930512343
% es.EX (V/m) @ t=0.24
0.7837804134911863
% es.EY (V/m) @ t=0.24
0.22260383603677703
% es.EZ (V/m) @ t=0.24
0.7963578661894459
% es.tEX (V/m) @ t=0.24
0.7837804134911863
% es.tEY (V/m) @ t=0.24
0
% es.tEZ (V/m) @ t=0.24
0.7963578661894388
% es.Ex (V/m) @ t=0.24
0.7837804134911863
% es.Ey (V/m) @ t=0.24
0.22260383603677703
% es.Ez (V/m) @ t=0.24
0.7963578661894459
% es.tEx (V/m) @ t=0.24
0.7837804134911863
% es.tEy (V/m) @ t=0.24
0
% es.tEz (V/m) @ t=0.24
0.7963578661894388
% V (V) @ t=0.24
0.010824155609693253
% es.normE (V/m) @ t=0.26
1.1647156818153042
% es.EX (V/m) @ t=0.26
0.7908561201289181
% es.EY (V/m) @ t=0.26
0.2246134286019803
% es.EZ (V/m) @ t=0.26
0.8035471177934008
% es.tEX (V/m) @ t=0.26
0.7908561201288933
% es.tEY (V/m) @ t=0.26
0
% es.tEZ (V/m) @ t=0.26
0.8035471177933928
% es.Ex (V/m) @ t=0.26
0.7908561201289181
% es.Ey (V/m) @ t=0.26
0.2246134286019803
% es.Ez (V/m) @ t=0.26
0.8035471177934008
% es.tEx (V/m) @ t=0.26
0.7908561201288933
% es.tEy (V/m) @ t=0.26
0
% es.tEz (V/m) @ t=0.26
0.8035471177933928
% V (V) @ t=0.26
0.010921872459630246
% es.normE (V/m) @ t=0.28
1.1761582046456556
% es.EX (V/m) @ t=0.28
0.7986257351952375
% es.EY (V/m) @ t=0.28
0.22682009094213917
% es.EZ (V/m) @ t=0.28
0.8114414118088771
% es.tEX (V/m) @ t=0.28
0.7986257351952588
% es.tEY (V/m) @ t=0.28
0
% es.tEZ (V/m) @ t=0.28
0.8114414118088717
% es.Ex (V/m) @ t=0.28
0.7986257351952375
% es.Ey (V/m) @ t=0.28
0.22682009094213917
% es.Ez (V/m) @ t=0.28
0.8114414118088771
% es.tEx (V/m) @ t=0.28
0.7986257351952588
% es.tEy (V/m) @ t=0.28
0
% es.tEz (V/m) @ t=0.28
0.8114414118088717
% V (V) @ t=0.28
0.01102917258529455
% es.normE (V/m) @ t=0.3
1.1877162035260613
% es.EX (V/m) @ t=0.3
0.8064737602168712
% es.EY (V/m) @ t=0.3
0.22904902168491148
% es.EZ (V/m) @ t=0.3
0.8194153738924115
% es.tEX (V/m) @ t=0.3
0.8064737602168606
% es.tEY (V/m) @ t=0.3
0
% es.tEZ (V/m) @ t=0.3
0.8194153738923902
% es.Ex (V/m) @ t=0.3
0.8064737602168712
% es.Ey (V/m) @ t=0.3
0.22904902168491148
% es.Ez (V/m) @ t=0.3
0.8194153738924115
% es.tEx (V/m) @ t=0.3
0.8064737602168606
% es.tEy (V/m) @ t=0.3
0
% es.tEz (V/m) @ t=0.3
0.8194153738923902
% V (V) @ t=0.3
0.011137555597677096
% es.normE (V/m) @ t=0.32
1.1992742024064578
% es.EX (V/m) @ t=0.32
0.8143217852384907
% es.EY (V/m) @ t=0.32
0.23127795242767135
% es.EZ (V/m) @ t=0.32
0.8273893359759716
% es.tEX (V/m) @ t=0.32
0.8143217852384765
% es.tEY (V/m) @ t=0.32
0
% es.tEZ (V/m) @ t=0.32
0.8273893359759583
% es.Ex (V/m) @ t=0.32
0.8143217852384907
% es.Ey (V/m) @ t=0.32
0.23127795242767135
% es.Ez (V/m) @ t=0.32
0.8273893359759716
% es.tEx (V/m) @ t=0.32
0.8143217852384765
% es.tEy (V/m) @ t=0.32
0
% es.tEz (V/m) @ t=0.32
0.8273893359759583
% V (V) @ t=0.32
0.011245938610059639
% es.normE (V/m) @ t=0.34
1.2108322012868908
% es.EX (V/m) @ t=0.34
0.8221698102601742
% es.EY (V/m) @ t=0.34
0.23350688317037616
% es.EZ (V/m) @ t=0.34
0.8353632980595291
% es.tEX (V/m) @ t=0.34
0.8221698102601778
% es.tEY (V/m) @ t=0.34
0
% es.tEZ (V/m) @ t=0.34
0.8353632980595123
% es.Ex (V/m) @ t=0.34
0.8221698102601742
% es.Ey (V/m) @ t=0.34
0.23350688317037616
% es.Ez (V/m) @ t=0.34
0.8353632980595291
% es.tEx (V/m) @ t=0.34
0.8221698102601778
% es.tEy (V/m) @ t=0.34
0
% es.tEz (V/m) @ t=0.34
0.8353632980595123
% V (V) @ t=0.34
0.011354321622442189
% es.normE (V/m) @ t=0.36
1.2223902001672704
% es.EX (V/m) @ t=0.36
0.8300178352817618
% es.EY (V/m) @ t=0.36
0.23573581391316445
% es.EZ (V/m) @ t=0.36
0.8433372601430751
% es.tEX (V/m) @ t=0.36
0.8300178352817511
% es.tEY (V/m) @ t=0.36
0
% es.tEZ (V/m) @ t=0.36
0.8433372601430662
% es.Ex (V/m) @ t=0.36
0.8300178352817618
% es.Ey (V/m) @ t=0.36
0.23573581391316445
% es.Ez (V/m) @ t=0.36
0.8433372601430751
% es.tEx (V/m) @ t=0.36
0.8300178352817511
% es.tEy (V/m) @ t=0.36
0
% es.tEz (V/m) @ t=0.36
0.8433372601430662
% V (V) @ t=0.36
0.011462704634824733
% es.normE (V/m) @ t=0.38
1.2339481990476786
% es.EX (V/m) @ t=0.38
0.8378658603033848
% es.EY (V/m) @ t=0.38
0.2379647446558959
% es.EZ (V/m) @ t=0.38
0.8513112222266512
% es.tEX (V/m) @ t=0.38
0.8378658603033671
% es.tEY (V/m) @ t=0.38
0
% es.tEZ (V/m) @ t=0.38
0.8513112222266415
% es.Ex (V/m) @ t=0.38
0.8378658603033848
% es.Ey (V/m) @ t=0.38
0.2379647446558959
% es.Ez (V/m) @ t=0.38
0.8513112222266512
% es.tEx (V/m) @ t=0.38
0.8378658603033671
% es.tEy (V/m) @ t=0.38
0
% es.tEz (V/m) @ t=0.38
0.8513112222266415
% V (V) @ t=0.38
0.011571087647207282
% es.normE (V/m) @ t=0.4
1.2455061979280837
% es.EX (V/m) @ t=0.4
0.8457138853250399
% es.EY (V/m) @ t=0.4
0.24019367539860426
% es.EZ (V/m) @ t=0.4
0.859285184310199
% es.tEX (V/m) @ t=0.4
0.8457138853250257
% es.tEY (V/m) @ t=0.4
0
% es.tEZ (V/m) @ t=0.4
0.8592851843101812
% es.Ex (V/m) @ t=0.4
0.8457138853250399
% es.Ey (V/m) @ t=0.4
0.24019367539860426
% es.Ez (V/m) @ t=0.4
0.859285184310199
% es.tEx (V/m) @ t=0.4
0.8457138853250257
% es.tEy (V/m) @ t=0.4
0
% es.tEz (V/m) @ t=0.4
0.8592851843101812
% V (V) @ t=0.4
0.011679470659589828
% es.normE (V/m) @ t=0.42
1.2570641968084688
% es.EX (V/m) @ t=0.42
0.8535619103466416
% es.EY (V/m) @ t=0.42
0.24242260614139255
% es.EZ (V/m) @ t=0.42
0.8672591463937396
% es.tEX (V/m) @ t=0.42
0.8535619103466558
% es.tEY (V/m) @ t=0.42
0
% es.tEZ (V/m) @ t=0.42
0.8672591463937209
% es.Ex (V/m) @ t=0.42
0.8535619103466416
% es.Ey (V/m) @ t=0.42
0.24242260614139255
% es.Ez (V/m) @ t=0.42
0.8672591463937396
% es.tEx (V/m) @ t=0.42
0.8535619103466558
% es.tEy (V/m) @ t=0.42
0
% es.tEz (V/m) @ t=0.42
0.8672591463937209
% V (V) @ t=0.42
0.011787853671972374
% es.normE (V/m) @ t=0.44
1.2686221956889052
% es.EX (V/m) @ t=0.44
0.8614099353683002
% es.EY (V/m) @ t=0.44
0.24465153688412578
% es.EZ (V/m) @ t=0.44
0.8752331084773068
% es.tEX (V/m) @ t=0.44
0.8614099353682576
% es.tEY (V/m) @ t=0.44
0
% es.tEZ (V/m) @ t=0.44
0.8752331084772891
% es.Ex (V/m) @ t=0.44
0.8614099353683002
% es.Ey (V/m) @ t=0.44
0.24465153688412578
% es.Ez (V/m) @ t=0.44
0.8752331084773068
% es.tEx (V/m) @ t=0.44
0.8614099353682576
% es.tEy (V/m) @ t=0.44
0
% es.tEz (V/m) @ t=0.44
0.8752331084772891
% V (V) @ t=0.44
0.011896236684354921
% es.normE (V/m) @ t=0.46
1.2801801945692814
% es.EX (V/m) @ t=0.46
0.869257960389902
% es.EY (V/m) @ t=0.46
0.24688046762689453
% es.EZ (V/m) @ t=0.46
0.8832070705608492
% es.tEX (V/m) @ t=0.46
0.8692579603898736
% es.tEY (V/m) @ t=0.46
0
% es.tEZ (V/m) @ t=0.46
0.883207070560843
% es.Ex (V/m) @ t=0.46
0.869257960389902
% es.Ey (V/m) @ t=0.46
0.24688046762689453
% es.Ez (V/m) @ t=0.46
0.8832070705608492
% es.tEx (V/m) @ t=0.46
0.8692579603898736
% es.tEy (V/m) @ t=0.46
0
% es.tEz (V/m) @ t=0.46
0.883207070560843
% V (V) @ t=0.46
0.012004619696737467
% es.normE (V/m) @ t=0.48
1.2917381934497019
% es.EX (V/m) @ t=0.48
0.8771059854115499
% es.EY (V/m) @ t=0.48
0.2491093983696402
% es.EZ (V/m) @ t=0.48
0.891181032644405
% es.tEX (V/m) @ t=0.48
0.8771059854115322
% es.tEY (V/m) @ t=0.48
0
% es.tEZ (V/m) @ t=0.48
0.8911810326443899
% es.Ex (V/m) @ t=0.48
0.8771059854115499
% es.Ey (V/m) @ t=0.48
0.2491093983696402
% es.Ez (V/m) @ t=0.48
0.891181032644405
% es.tEx (V/m) @ t=0.48
0.8771059854115322
% es.tEy (V/m) @ t=0.48
0
% es.tEz (V/m) @ t=0.48
0.8911810326443899
% V (V) @ t=0.48
0.012113002709120016
% es.normE (V/m) @ t=0.5
1.3032961923300856
% es.EX (V/m) @ t=0.5
0.884954010433173
% es.EY (V/m) @ t=0.5
0.2513383291123592
% es.EZ (V/m) @ t=0.5
0.8991549947279527
% es.tEX (V/m) @ t=0.5
0.8849540104331624
% es.tEY (V/m) @ t=0.5
0
% es.tEZ (V/m) @ t=0.5
0.8991549947279438
% es.Ex (V/m) @ t=0.5
0.884954010433173
% es.Ey (V/m) @ t=0.5
0.2513383291123592
% es.Ez (V/m) @ t=0.5
0.8991549947279527
% es.tEx (V/m) @ t=0.5
0.8849540104331624
% es.tEy (V/m) @ t=0.5
0
% es.tEz (V/m) @ t=0.5
0.8991549947279438
% V (V) @ t=0.5
0.01222138572150256
% es.normE (V/m) @ t=0.52
1.3148541912105067
% es.EX (V/m) @ t=0.52
0.8928020354548103
% es.EY (V/m) @ t=0.52
0.2535672598550498
% es.EZ (V/m) @ t=0.52
0.9071289568115457
% es.tEX (V/m) @ t=0.52
0.8928020354548067
% es.tEY (V/m) @ t=0.52
0
% es.tEZ (V/m) @ t=0.52
0.9071289568115262
% es.Ex (V/m) @ t=0.52
0.8928020354548103
% es.Ey (V/m) @ t=0.52
0.2535672598550498
% es.Ez (V/m) @ t=0.52
0.9071289568115457
% es.tEx (V/m) @ t=0.52
0.8928020354548067
% es.tEy (V/m) @ t=0.52
0
% es.tEz (V/m) @ t=0.52
0.9071289568115262
% V (V) @ t=0.52
0.012329768733885107
% es.normE (V/m) @ t=0.54
1.32744656471159
% es.EX (V/m) @ t=0.54
0.90135241139361
% es.EY (V/m) @ t=0.54
0.25599567432497494
% es.EZ (V/m) @ t=0.54
0.9158165414352819
% es.tEX (V/m) @ t=0.54
0.9013524113935887
% es.tEY (V/m) @ t=0.54
0
% es.tEZ (V/m) @ t=0.54
0.9158165414352766
% es.Ex (V/m) @ t=0.54
0.90135241139361
% es.Ey (V/m) @ t=0.54
0.25599567432497494
% es.Ez (V/m) @ t=0.54
0.9158165414352819
% es.tEx (V/m) @ t=0.54
0.9013524113935887
% es.tEy (V/m) @ t=0.54
0
% es.tEz (V/m) @ t=0.54
0.9158165414352766
% V (V) @ t=0.54
0.012447851141070464
% es.normE (V/m) @ t=0.56
1.340287050800883
% es.EX (V/m) @ t=0.56
0.9100712583102961
% es.EY (V/m) @ t=0.56
0.258471938406446
% es.EZ (V/m) @ t=0.56
0.92467530073014
% es.tEX (V/m) @ t=0.56
0.9100712583102677
% es.tEY (V/m) @ t=0.56
0
% es.tEZ (V/m) @ t=0.56
0.9246753007301223
% es.Ex (V/m) @ t=0.56
0.9100712583102961
% es.Ey (V/m) @ t=0.56
0.258471938406446
% es.Ez (V/m) @ t=0.56
0.92467530073014
% es.tEx (V/m) @ t=0.56
0.9100712583102677
% es.tEy (V/m) @ t=0.56
0
% es.tEz (V/m) @ t=0.56
0.9246753007301223
% V (V) @ t=0.56
0.01256826011534331
% es.normE (V/m) @ t=0.58
1.3531275368901712
% es.EX (V/m) @ t=0.58
0.9187901052270071
% es.EY (V/m) @ t=0.58
0.26094820248789397
% es.EZ (V/m) @ t=0.58
0.933534060024984
% es.tEX (V/m) @ t=0.58
0.9187901052270036
% es.tEY (V/m) @ t=0.58
0
% es.tEZ (V/m) @ t=0.58
0.933534060024968
% es.Ex (V/m) @ t=0.58
0.9187901052270071
% es.Ey (V/m) @ t=0.58
0.26094820248789397
% es.Ez (V/m) @ t=0.58
0.933534060024984
% es.tEx (V/m) @ t=0.58
0.9187901052270036
% es.tEy (V/m) @ t=0.58
0
% es.tEz (V/m) @ t=0.58
0.933534060024968
% V (V) @ t=0.58
0.012688669089616156
% es.normE (V/m) @ t=0.6
1.3659680229794744
% es.EX (V/m) @ t=0.6
0.9275089521437394
% es.EY (V/m) @ t=0.6
0.2634244665693313
% es.EZ (V/m) @ t=0.6
0.9423928193198279
% es.tEX (V/m) @ t=0.6
0.9275089521437536
% es.tEY (V/m) @ t=0.6
0
% es.tEZ (V/m) @ t=0.6
0.9423928193198137
% es.Ex (V/m) @ t=0.6
0.9275089521437394
% es.Ey (V/m) @ t=0.6
0.2634244665693313
% es.Ez (V/m) @ t=0.6
0.9423928193198279
% es.tEx (V/m) @ t=0.6
0.9275089521437536
% es.tEy (V/m) @ t=0.6
0
% es.tEz (V/m) @ t=0.6
0.9423928193198137
% V (V) @ t=0.6
0.012809078063889005
% es.normE (V/m) @ t=0.62
1.3788085090687672
% es.EX (V/m) @ t=0.62
0.9362277990604362
% es.EY (V/m) @ t=0.62
0.26590073065077924
% es.EZ (V/m) @ t=0.62
0.9512515786146949
% es.tEX (V/m) @ t=0.62
0.9362277990604184
% es.tEY (V/m) @ t=0.62
0
% es.tEZ (V/m) @ t=0.62
0.9512515786146736
% es.Ex (V/m) @ t=0.62
0.9362277990604362
% es.Ey (V/m) @ t=0.62
0.26590073065077924
% es.Ez (V/m) @ t=0.62
0.9512515786146949
% es.tEx (V/m) @ t=0.62
0.9362277990604184
% es.tEy (V/m) @ t=0.62
0
% es.tEz (V/m) @ t=0.62
0.9512515786146736
% V (V) @ t=0.62
0.012929487038161852
% es.normE (V/m) @ t=0.64
1.3916489951580555
% es.EX (V/m) @ t=0.64
0.9449466459771614
% es.EY (V/m) @ t=0.64
0.26837699473226984
% es.EZ (V/m) @ t=0.64
0.9601103379095086
% es.tEX (V/m) @ t=0.64
0.9449466459771259
% es.tEY (V/m) @ t=0.64
0
% es.tEZ (V/m) @ t=0.64
0.9601103379094909
% es.Ex (V/m) @ t=0.64
0.9449466459771614
% es.Ey (V/m) @ t=0.64
0.26837699473226984
% es.Ez (V/m) @ t=0.64
0.9601103379095086
% es.tEx (V/m) @ t=0.64
0.9449466459771259
% es.tEy (V/m) @ t=0.64
0
% es.tEz (V/m) @ t=0.64
0.9601103379094909
% V (V) @ t=0.64
0.013049896012434696
% es.normE (V/m) @ t=0.66
1.4044894812473623
% es.EX (V/m) @ t=0.66
0.953665492893883
% es.EY (V/m) @ t=0.66
0.2708532588137196
% es.EZ (V/m) @ t=0.66
0.9689690972043543
% es.tEX (V/m) @ t=0.66
0.9536654928938759
% es.tEY (V/m) @ t=0.66
0
% es.tEZ (V/m) @ t=0.66
0.9689690972043365
% es.Ex (V/m) @ t=0.66
0.953665492893883
% es.Ey (V/m) @ t=0.66
0.2708532588137196
% es.Ez (V/m) @ t=0.66
0.9689690972043543
% es.tEx (V/m) @ t=0.66
0.9536654928938759
% es.tEy (V/m) @ t=0.66
0
% es.tEz (V/m) @ t=0.66
0.9689690972043365
% V (V) @ t=0.66
0.013170304986707545
% es.normE (V/m) @ t=0.68
1.4173299673366868
% es.EX (V/m) @ t=0.68
0.9623843398106509
% es.EY (V/m) @ t=0.68
0.2733295228951196
% es.EZ (V/m) @ t=0.68
0.9778278564992231
% es.tEX (V/m) @ t=0.68
0.9623843398106402
% es.tEY (V/m) @ t=0.68
0
% es.tEZ (V/m) @ t=0.68
0.9778278564992036
% es.Ex (V/m) @ t=0.68
0.9623843398106509
% es.Ey (V/m) @ t=0.68
0.2733295228951196
% es.Ez (V/m) @ t=0.68
0.9778278564992231
% es.tEx (V/m) @ t=0.68
0.9623843398106402
% es.tEy (V/m) @ t=0.68
0
% es.tEz (V/m) @ t=0.68
0.9778278564992036
% V (V) @ t=0.68
0.013290713960980392
% es.normE (V/m) @ t=0.7
1.4301704534260016
% es.EX (V/m) @ t=0.7
0.9711031867273725
% es.EY (V/m) @ t=0.7
0.27580578697663505
% es.EZ (V/m) @ t=0.7
0.9866866157940688
% es.tEX (V/m) @ t=0.7
0.9711031867273476
% es.tEY (V/m) @ t=0.7
0
% es.tEZ (V/m) @ t=0.7
0.9866866157940422
% es.Ex (V/m) @ t=0.7
0.9711031867273725
% es.Ey (V/m) @ t=0.7
0.27580578697663505
% es.Ez (V/m) @ t=0.7
0.9866866157940688
% es.tEx (V/m) @ t=0.7
0.9711031867273476
% es.tEy (V/m) @ t=0.7
0
% es.tEz (V/m) @ t=0.7
0.9866866157940422
% V (V) @ t=0.7
0.013411122935253239
% es.normE (V/m) @ t=0.72
1.4430109395152815
% es.EX (V/m) @ t=0.72
0.979822033644087
% es.EY (V/m) @ t=0.72
0.2782820510580777
% es.EZ (V/m) @ t=0.72
0.9955453750888914
% es.tEX (V/m) @ t=0.72
0.9798220336440693
% es.tEY (V/m) @ t=0.72
0
% es.tEZ (V/m) @ t=0.72
0.9955453750888736
% es.Ex (V/m) @ t=0.72
0.979822033644087
% es.Ey (V/m) @ t=0.72
0.2782820510580777
% es.Ez (V/m) @ t=0.72
0.9955453750888914
% es.tEx (V/m) @ t=0.72
0.9798220336440693
% es.tEy (V/m) @ t=0.72
0
% es.tEz (V/m) @ t=0.72
0.9955453750888736
% V (V) @ t=0.72
0.013531531909526084
% es.normE (V/m) @ t=0.74
1.4558514256045618
% es.EX (V/m) @ t=0.74
0.9885408805607767
% es.EY (V/m) @ t=0.74
0.2807583151395612
% es.EZ (V/m) @ t=0.74
1.0044041343837335
% es.tEX (V/m) @ t=0.74
0.9885408805607767
% es.tEY (V/m) @ t=0.74
0
% es.tEZ (V/m) @ t=0.74
1.0044041343837122
% es.Ex (V/m) @ t=0.74
0.9885408805607767
% es.Ey (V/m) @ t=0.74
0.2807583151395612
% es.Ez (V/m) @ t=0.74
1.0044041343837335
% es.tEx (V/m) @ t=0.74
0.9885408805607767
% es.tEy (V/m) @ t=0.74
0
% es.tEz (V/m) @ t=0.74
1.0044041343837122
% V (V) @ t=0.74
0.01365194088379893
% es.normE (V/m) @ t=0.76
1.4686919116938426
% es.EX (V/m) @ t=0.76
0.9972597274774806
% es.EY (V/m) @ t=0.76
0.2832345792209878
% es.EZ (V/m) @ t=0.76
1.0132628936785792
% es.tEX (V/m) @ t=0.76
0.9972597274774984
% es.tEY (V/m) @ t=0.76
0
% es.tEZ (V/m) @ t=0.76
1.0132628936785721
% es.Ex (V/m) @ t=0.76
0.9972597274774806
% es.Ey (V/m) @ t=0.76
0.2832345792209878
% es.Ez (V/m) @ t=0.76
1.0132628936785792
% es.tEx (V/m) @ t=0.76
0.9972597274774984
% es.tEy (V/m) @ t=0.76
0
% es.tEz (V/m) @ t=0.76
1.0132628936785721
% V (V) @ t=0.76
0.013772349858071777
% es.normE (V/m) @ t=0.78
1.481532397783172
% es.EX (V/m) @ t=0.78
1.0059785743942413
% es.EY (V/m) @ t=0.78
0.2857108433024642
% es.EZ (V/m) @ t=0.78
1.0221216529734196
% es.tEX (V/m) @ t=0.78
1.0059785743942484
% es.tEY (V/m) @ t=0.78
0
% es.tEZ (V/m) @ t=0.78
1.0221216529734036
% es.Ex (V/m) @ t=0.78
1.0059785743942413
% es.Ey (V/m) @ t=0.78
0.2857108433024642
% es.Ez (V/m) @ t=0.78
1.0221216529734196
% es.tEx (V/m) @ t=0.78
1.0059785743942484
% es.tEy (V/m) @ t=0.78
0
% es.tEz (V/m) @ t=0.78
1.0221216529734036
% V (V) @ t=0.78
0.013892758832344624
% es.normE (V/m) @ t=0.8
1.4954081875913536
% es.EX (V/m) @ t=0.8
1.015400405245174
% es.EY (V/m) @ t=0.8
0.28838676350802217
% es.EZ (V/m) @ t=0.8
1.0316946770962687
% es.tEX (V/m) @ t=0.8
1.0154004052451882
% es.tEY (V/m) @ t=0.8
0
% es.tEZ (V/m) @ t=0.8
1.0316946770962474
% es.Ex (V/m) @ t=0.8
1.015400405245174
% es.Ey (V/m) @ t=0.8
0.28838676350802217
% es.Ez (V/m) @ t=0.8
1.0316946770962687
% es.tEx (V/m) @ t=0.8
1.0154004052451882
% es.tEy (V/m) @ t=0.8
0
% es.tEz (V/m) @ t=0.8
1.0316946770962474
% V (V) @ t=0.8
0.014022876163137828
% es.normE (V/m) @ t=0.82
1.509697458674463
% es.EX (V/m) @ t=0.82
1.0251029949576456
% es.EY (V/m) @ t=0.82
0.29114242269957913
% es.EZ (V/m) @ t=0.82
1.0415529654621238
% es.tEX (V/m) @ t=0.82
1.0251029949576207
% es.tEY (V/m) @ t=0.82
0
% es.tEZ (V/m) @ t=0.82
1.0415529654621096
% es.Ex (V/m) @ t=0.82
1.0251029949576456
% es.Ey (V/m) @ t=0.82
0.29114242269957913
% es.Ez (V/m) @ t=0.82
1.0415529654621238
% es.tEx (V/m) @ t=0.82
1.0251029949576207
% es.tEy (V/m) @ t=0.82
0
% es.tEz (V/m) @ t=0.82
1.0415529654621096
% V (V) @ t=0.82
0.014156870833071171
% es.normE (V/m) @ t=0.84
1.523986729757576
% es.EX (V/m) @ t=0.84
1.0348055846700994
% es.EY (V/m) @ t=0.84
0.2938980818911219
% es.EZ (V/m) @ t=0.84
1.0514112538280038
% es.tEX (V/m) @ t=0.84
1.0348055846700817
% es.tEY (V/m) @ t=0.84
0
% es.tEZ (V/m) @ t=0.84
1.051411253827986
% es.Ex (V/m) @ t=0.84
1.0348055846700994
% es.Ey (V/m) @ t=0.84
0.2938980818911219
% es.Ez (V/m) @ t=0.84
1.0514112538280038
% es.tEx (V/m) @ t=0.84
1.0348055846700817
% es.tEy (V/m) @ t=0.84
0
% es.tEz (V/m) @ t=0.84
1.051411253827986
% V (V) @ t=0.84
0.014290865503004513
% es.normE (V/m) @ t=0.86
1.5382760008406402
% es.EX (V/m) @ t=0.86
1.044508174382468
% es.EY (V/m) @ t=0.86
0.29665374108268594
% es.EZ (V/m) @ t=0.86
1.0612695421938803
% es.tEX (V/m) @ t=0.86
1.0445081743824574
% es.tEY (V/m) @ t=0.86
0
% es.tEZ (V/m) @ t=0.86
1.0612695421938625
% es.Ex (V/m) @ t=0.86
1.044508174382468
% es.Ey (V/m) @ t=0.86
0.29665374108268594
% es.Ez (V/m) @ t=0.86
1.0612695421938803
% es.tEx (V/m) @ t=0.86
1.0445081743824574
% es.tEy (V/m) @ t=0.86
0
% es.tEz (V/m) @ t=0.86
1.0612695421938625
% V (V) @ t=0.86
0.014424860172937856
% es.normE (V/m) @ t=0.88
1.5525652719237715
% es.EX (V/m) @ t=0.88
1.0542107640949645
% es.EY (V/m) @ t=0.88
0.29940940027423224
% es.EZ (V/m) @ t=0.88
1.0711278305597443
% es.tEX (V/m) @ t=0.88
1.0542107640949467
% es.tEY (V/m) @ t=0.88
0
% es.tEZ (V/m) @ t=0.88
1.0711278305597247
% es.Ex (V/m) @ t=0.88
1.0542107640949645
% es.Ey (V/m) @ t=0.88
0.29940940027423224
% es.Ez (V/m) @ t=0.88
1.0711278305597443
% es.tEx (V/m) @ t=0.88
1.0542107640949467
% es.tEy (V/m) @ t=0.88
0
% es.tEz (V/m) @ t=0.88
1.0711278305597247
% V (V) @ t=0.88
0.0145588548428712
% es.normE (V/m) @ t=0.9
1.566854543006845
% es.EX (V/m) @ t=0.9
1.0639133538073438
% es.EY (V/m) @ t=0.9
0.30216505946578565
% es.EZ (V/m) @ t=0.9
1.0809861189256278
% es.tEX (V/m) @ t=0.9
1.0639133538073509
% es.tEY (V/m) @ t=0.9
0
% es.tEZ (V/m) @ t=0.9
1.0809861189256011
% es.Ex (V/m) @ t=0.9
1.0639133538073438
% es.Ey (V/m) @ t=0.9
0.30216505946578565
% es.Ez (V/m) @ t=0.9
1.0809861189256278
% es.tEx (V/m) @ t=0.9
1.0639133538073509
% es.tEy (V/m) @ t=0.9
0
% es.tEz (V/m) @ t=0.9
1.0809861189256011
% V (V) @ t=0.9
0.014692849512804541
% es.normE (V/m) @ t=0.92
1.5811438140899292
% es.EX (V/m) @ t=0.92
1.073615943519787
% es.EY (V/m) @ t=0.92
0.30492071865736037
% es.EZ (V/m) @ t=0.92
1.090844407291474
% es.tEX (V/m) @ t=0.92
1.0736159435197692
% es.tEY (V/m) @ t=0.92
0
% es.tEZ (V/m) @ t=0.92
1.0908444072914492
% es.Ex (V/m) @ t=0.92
1.073615943519787
% es.Ey (V/m) @ t=0.92
0.30492071865736037
% es.Ez (V/m) @ t=0.92
1.090844407291474
% es.tEx (V/m) @ t=0.92
1.0736159435197692
% es.tEy (V/m) @ t=0.92
0
% es.tEz (V/m) @ t=0.92
1.0908444072914492
% V (V) @ t=0.92
0.014826844182737883
% es.normE (V/m) @ t=0.94
1.595433085173053
% es.EX (V/m) @ t=0.94
1.0833185332322195
% es.EY (V/m) @ t=0.94
0.3076763778489351
% es.EZ (V/m) @ t=0.94
1.100702695657363
% es.tEX (V/m) @ t=0.94
1.0833185332321875
% es.tEY (V/m) @ t=0.94
0
% es.tEZ (V/m) @ t=0.94
1.100702695657347
% es.Ex (V/m) @ t=0.94
1.0833185332322195
% es.Ey (V/m) @ t=0.94
0.3076763778489351
% es.Ez (V/m) @ t=0.94
1.100702695657363
% es.tEx (V/m) @ t=0.94
1.0833185332321875
% es.tEy (V/m) @ t=0.94
0
% es.tEz (V/m) @ t=0.94
1.100702695657347
% V (V) @ t=0.94
0.014960838852671226
% es.normE (V/m) @ t=0.96
1.609722356256151
% es.EX (V/m) @ t=0.96
1.093021122944677
% es.EY (V/m) @ t=0.96
0.3104320370404565
% es.EZ (V/m) @ t=0.96
1.1105609840232287
% es.tEX (V/m) @ t=0.96
1.0930211229446911
% es.tEY (V/m) @ t=0.96
0
% es.tEZ (V/m) @ t=0.96
1.1105609840232091
% es.Ex (V/m) @ t=0.96
1.093021122944677
% es.Ey (V/m) @ t=0.96
0.3104320370404565
% es.Ez (V/m) @ t=0.96
1.1105609840232287
% es.tEx (V/m) @ t=0.96
1.0930211229446911
% es.tEy (V/m) @ t=0.96
0
% es.tEz (V/m) @ t=0.96
1.1105609840232091
% V (V) @ t=0.96
0.01509483352260457
% es.normE (V/m) @ t=0.98
1.6240116273392764
% es.EX (V/m) @ t=0.98
1.1027237126571166
% es.EY (V/m) @ t=0.98
0.31318769623199216
% es.EZ (V/m) @ t=0.98
1.1204192723891406
% es.tEX (V/m) @ t=0.98
1.102723712657081
% es.tEY (V/m) @ t=0.98
0
% es.tEZ (V/m) @ t=0.98
1.120419272389121
% es.Ex (V/m) @ t=0.98
1.1027237126571166
% es.Ey (V/m) @ t=0.98
0.31318769623199216
% es.Ez (V/m) @ t=0.98
1.1204192723891406
% es.tEx (V/m) @ t=0.98
1.102723712657081
% es.tEy (V/m) @ t=0.98
0
% es.tEz (V/m) @ t=0.98
1.120419272389121
% V (V) @ t=0.98
0.015228828192537913
% es.normE (V/m) @ t=1
1.6383008984223426
% es.EX (V/m) @ t=1
1.1124263023695349
% es.EY (V/m) @ t=1
0.3159433554235207
% es.EZ (V/m) @ t=1
1.1302775607549869
% es.tEX (V/m) @ t=1
1.1124263023695278
% es.tEY (V/m) @ t=1
0
% es.tEZ (V/m) @ t=1
1.130277560754962
% es.Ex (V/m) @ t=1
1.1124263023695349
% es.Ey (V/m) @ t=1
0.3159433554235207
% es.Ez (V/m) @ t=1
1.1302775607549869
% es.tEx (V/m) @ t=1
1.1124263023695278
% es.tEy (V/m) @ t=1
0
% es.tEz (V/m) @ t=1
1.130277560754962
% V (V) @ t=1
0.015362822862471256
% es.normE (V/m) @ t=1.02
1.6525901695054812
% es.EX (V/m) @ t=1.02
1.122128892082003
% es.EY (V/m) @ t=1.02
0.318699014615099
% es.EZ (V/m) @ t=1.02
1.1401358491208757
% es.tEX (V/m) @ t=1.02
1.1221288920819745
% es.tEY (V/m) @ t=1.02
0
% es.tEZ (V/m) @ t=1.02
1.1401358491208597
% es.Ex (V/m) @ t=1.02
1.122128892082003
% es.Ey (V/m) @ t=1.02
0.318699014615099
% es.Ez (V/m) @ t=1.02
1.1401358491208757
% es.tEx (V/m) @ t=1.02
1.1221288920819745
% es.tEy (V/m) @ t=1.02
0
% es.tEz (V/m) @ t=1.02
1.1401358491208597
% V (V) @ t=1.02
0.015496817532404596
% es.normE (V/m) @ t=1.04
1.666879440588569
% es.EX (V/m) @ t=1.04
1.131831481794407
% es.EY (V/m) @ t=1.04
0.32145467380667014
% es.EZ (V/m) @ t=1.04
1.1499941374867522
% es.tEX (V/m) @ t=1.04
1.1318314817943929
% es.tEY (V/m) @ t=1.04
0
% es.tEZ (V/m) @ t=1.04
1.1499941374867362
% es.Ex (V/m) @ t=1.04
1.131831481794407
% es.Ey (V/m) @ t=1.04
0.32145467380667014
% es.Ez (V/m) @ t=1.04
1.1499941374867522
% es.tEx (V/m) @ t=1.04