% Model:              1 neuron.mph
% Version:            COMSOL 6.1.0.252
% Date:               Mar 18 2023, 13:28
% Dimension:          0
% Nodes:              14017
% Expressions:        14017
% Description:        Electric field norm, Electric field, X component, Electric field, Y component, Electric field, Z component, Tangential electric field, X component, Tangential electric field, Y component, Tangential electric field, Z component, Electric field, x component, Electric field, y component, Electric field, z component, Tangential electric field, x component, Tangential electric field, y component, Tangential electric field, z component, Electric potential
% Length unit:        mm
% x
1.66
% y
12.2
% z
2
% es.normE (V/m) @ t=0
2.2074066324152417
% es.EX (V/m) @ t=0
-0.6585157656449201
% es.EY (V/m) @ t=0
0.04918866590499586
% es.EZ (V/m) @ t=0
-2.1027751282899985
% es.tEX (V/m) @ t=0
-0.6585157656449283
% es.tEY (V/m) @ t=0
0
% es.tEZ (V/m) @ t=0
-2.102775128290011
% es.Ex (V/m) @ t=0
-0.6585157656449201
% es.Ey (V/m) @ t=0
0.04918866590499586
% es.Ez (V/m) @ t=0
-2.1027751282899985
% es.tEx (V/m) @ t=0
-0.6585157656449283
% es.tEy (V/m) @ t=0
0
% es.tEz (V/m) @ t=0
-2.102775128290011
% V (V) @ t=0
0.011095337411254253
% es.normE (V/m) @ t=0.02
1.9065611820808717
% es.EX (V/m) @ t=0.02
-0.5687672494347475
% es.EY (V/m) @ t=0.02
0.04248478906540186
% es.EZ (V/m) @ t=0.02
-1.816189810513643
% es.tEX (V/m) @ t=0.02
-0.568767249434746
% es.tEY (V/m) @ t=0.02
0
% es.tEZ (V/m) @ t=0.02
-1.816189810513647
% es.Ex (V/m) @ t=0.02
-0.5687672494347475
% es.Ey (V/m) @ t=0.02
0.04248478906540186
% es.Ez (V/m) @ t=0.02
-1.816189810513643
% es.tEx (V/m) @ t=0.02
-0.568767249434746
% es.tEy (V/m) @ t=0.02
0
% es.tEz (V/m) @ t=0.02
-1.816189810513647
% V (V) @ t=0.02
0.00958316384693459
% es.normE (V/m) @ t=0.04
1.924101582830714
% es.EX (V/m) @ t=0.04
-0.5739999210961768
% es.EY (V/m) @ t=0.04
0.04287565347121891
% es.EZ (V/m) @ t=0.04
-1.83289879222228
% es.tEX (V/m) @ t=0.04
-0.5739999210961848
% es.tEY (V/m) @ t=0.04
0
% es.tEZ (V/m) @ t=0.04
-1.832898792222287
% es.Ex (V/m) @ t=0.04
-0.5739999210961768
% es.Ey (V/m) @ t=0.04
0.04287565347121891
% es.Ez (V/m) @ t=0.04
-1.83289879222228
% es.tEx (V/m) @ t=0.04
-0.5739999210961848
% es.tEy (V/m) @ t=0.04
0
% es.tEz (V/m) @ t=0.04
-1.832898792222287
% V (V) @ t=0.04
0.009671328999932382
% es.normE (V/m) @ t=0.06
1.9417796302978183
% es.EX (V/m) @ t=0.06
-0.579273654875353
% es.EY (V/m) @ t=0.06
0.04326958322714325
% es.EZ (V/m) @ t=0.06
-1.8497388964737809
% es.tEX (V/m) @ t=0.06
-0.5792736548753581
% es.tEY (V/m) @ t=0.06
0
% es.tEZ (V/m) @ t=0.06
-1.849738896473787
% es.Ex (V/m) @ t=0.06
-0.579273654875353
% es.Ey (V/m) @ t=0.06
0.04326958322714325
% es.Ez (V/m) @ t=0.06
-1.8497388964737809
% es.tEx (V/m) @ t=0.06
-0.5792736548753581
% es.tEy (V/m) @ t=0.06
0
% es.tEz (V/m) @ t=0.06
-1.849738896473787
% V (V) @ t=0.06
0.009760186098273841
% es.normE (V/m) @ t=0.08
1.9597747806128956
% es.EX (V/m) @ t=0.08
-0.5846419894966375
% es.EY (V/m) @ t=0.08
0.04367058479580875
% es.EZ (V/m) @ t=0.08
-1.8668810719056586
% es.tEX (V/m) @ t=0.08
-0.5846419894966424
% es.tEY (V/m) @ t=0.08
0
% es.tEZ (V/m) @ t=0.08
-1.8668810719056799
% es.Ex (V/m) @ t=0.08
-0.5846419894966375
% es.Ey (V/m) @ t=0.08
0.04367058479580875
% es.Ez (V/m) @ t=0.08
-1.8668810719056586
% es.tEx (V/m) @ t=0.08
-0.5846419894966424
% es.tEy (V/m) @ t=0.08
0
% es.tEz (V/m) @ t=0.08
-1.8668810719056799
% V (V) @ t=0.08
0.009850636858891393
% es.normE (V/m) @ t=0.1
1.9778919769603807
% es.EX (V/m) @ t=0.1
-0.5900467339373647
% es.EY (V/m) @ t=0.1
0.04407430815234517
% es.EZ (V/m) @ t=0.1
-1.884139508005978
% es.tEX (V/m) @ t=0.1
-0.5900467339373705
% es.tEY (V/m) @ t=0.1
0
% es.tEZ (V/m) @ t=0.1
-1.8841395080059842
% es.Ex (V/m) @ t=0.1
-0.5900467339373647
% es.Ey (V/m) @ t=0.1
0.04407430815234517
% es.Ez (V/m) @ t=0.1
-1.884139508005978
% es.tEx (V/m) @ t=0.1
-0.5900467339373705
% es.tEy (V/m) @ t=0.1
0
% es.tEz (V/m) @ t=0.1
-1.8841395080059842
% V (V) @ t=0.1
0.009941700985674064
% es.normE (V/m) @ t=0.12
1.9960091733078644
% es.EX (V/m) @ t=0.12
-0.5954514783780893
% es.EY (V/m) @ t=0.12
0.044478031508888516
% es.EZ (V/m) @ t=0.12
-1.9013979441062974
% es.tEX (V/m) @ t=0.12
-0.5954514783780951
% es.tEY (V/m) @ t=0.12
0
% es.tEZ (V/m) @ t=0.12
-1.9013979441063107
% es.Ex (V/m) @ t=0.12
-0.5954514783780893
% es.Ey (V/m) @ t=0.12
0.044478031508888516
% es.Ez (V/m) @ t=0.12
-1.9013979441062974
% es.tEx (V/m) @ t=0.12
-0.5954514783780951
% es.tEy (V/m) @ t=0.12
0
% es.tEz (V/m) @ t=0.12
-1.9013979441063107
% V (V) @ t=0.12
0.010032765112456741
% es.normE (V/m) @ t=0.14
2.0145470343005254
% es.EX (V/m) @ t=0.14
-0.6009817113284914
% es.EY (V/m) @ t=0.14
0.044891118247200656
% es.EZ (V/m) @ t=0.14
-1.9190571070305835
% es.tEX (V/m) @ t=0.14
-0.6009817113284939
% es.tEY (V/m) @ t=0.14
0
% es.tEZ (V/m) @ t=0.14
-1.9190571070306008
% es.Ex (V/m) @ t=0.14
-0.6009817113284914
% es.Ey (V/m) @ t=0.14
0.044891118247200656
% es.Ez (V/m) @ t=0.14
-1.9190571070305835
% es.tEx (V/m) @ t=0.14
-0.6009817113284939
% es.tEy (V/m) @ t=0.14
0
% es.tEz (V/m) @ t=0.14
-1.9190571070306008
% V (V) @ t=0.14
0.01012594409762266
% es.normE (V/m) @ t=0.16
2.0335913247772703
% es.EX (V/m) @ t=0.16
-0.6066630173056584
% es.EY (V/m) @ t=0.16
0.04531547736756254
% es.EZ (V/m) @ t=0.16
-1.9371986967075112
% es.tEX (V/m) @ t=0.16
-0.6066630173056602
% es.tEY (V/m) @ t=0.16
0
% es.tEZ (V/m) @ t=0.16
-1.9371986967075188
% es.Ex (V/m) @ t=0.16
-0.6066630173056584
% es.Ey (V/m) @ t=0.16
0.04531547736756254
% es.Ez (V/m) @ t=0.16
-1.9371986967075112
% es.tEx (V/m) @ t=0.16
-0.6066630173056602
% es.tEy (V/m) @ t=0.16
0
% es.tEz (V/m) @ t=0.16
-1.9371986967075188
% V (V) @ t=0.16
0.010221669117146814
% es.normE (V/m) @ t=0.18
2.0526356152539913
% es.EX (V/m) @ t=0.18
-0.6123443232828379
% es.EY (V/m) @ t=0.18
0.045739836487937044
% es.EZ (V/m) @ t=0.18
-1.9553402863844105
% es.tEX (V/m) @ t=0.18
-0.6123443232828443
% es.tEY (V/m) @ t=0.18
0
% es.tEZ (V/m) @ t=0.18
-1.9553402863844376
% es.Ex (V/m) @ t=0.18
-0.6123443232828379
% es.Ey (V/m) @ t=0.18
0.045739836487937044
% es.Ez (V/m) @ t=0.18
-1.9553402863844105
% es.tEx (V/m) @ t=0.18
-0.6123443232828443
% es.tEy (V/m) @ t=0.18
0
% es.tEz (V/m) @ t=0.18
-1.9553402863844376
% V (V) @ t=0.18
0.010317394136670965
% es.normE (V/m) @ t=0.2
2.0716799057307336
% es.EX (V/m) @ t=0.2
-0.6180256292600155
% es.EY (V/m) @ t=0.2
0.04616419560829382
% es.EZ (V/m) @ t=0.2
-1.973481876061331
% es.tEX (V/m) @ t=0.2
-0.6180256292600212
% es.tEY (V/m) @ t=0.2
0
% es.tEZ (V/m) @ t=0.2
-1.9734818760613493
% es.Ex (V/m) @ t=0.2
-0.6180256292600155
% es.Ey (V/m) @ t=0.2
0.04616419560829382
% es.Ez (V/m) @ t=0.2
-1.973481876061331
% es.tEx (V/m) @ t=0.2
-0.6180256292600212
% es.tEy (V/m) @ t=0.2
0
% es.tEz (V/m) @ t=0.2
-1.9734818760613493
% V (V) @ t=0.2
0.010413119156195118
% es.normE (V/m) @ t=0.22
2.0907241962074874
% es.EX (V/m) @ t=0.22
-0.6237069352371898
% es.EY (V/m) @ t=0.22
0.04658855472866606
% es.EZ (V/m) @ t=0.22
-1.9916234657382654
% es.tEX (V/m) @ t=0.22
-0.6237069352371911
% es.tEY (V/m) @ t=0.22
0
% es.tEZ (V/m) @ t=0.22
-1.9916234657382814
% es.Ex (V/m) @ t=0.22
-0.6237069352371898
% es.Ey (V/m) @ t=0.22
0.04658855472866606
% es.Ez (V/m) @ t=0.22
-1.9916234657382654
% es.tEx (V/m) @ t=0.22
-0.6237069352371911
% es.tEy (V/m) @ t=0.22
0
% es.tEz (V/m) @ t=0.22
-1.9916234657382814
% V (V) @ t=0.22
0.01050884417571927
% es.normE (V/m) @ t=0.24
2.1097684866842146
% es.EX (V/m) @ t=0.24
-0.6293882412143648
% es.EY (V/m) @ t=0.24
0.04701291384901929
% es.EZ (V/m) @ t=0.24
-2.0097650554151723
% es.tEX (V/m) @ t=0.24
-0.6293882412143681
% es.tEY (V/m) @ t=0.24
0
% es.tEZ (V/m) @ t=0.24
-2.009765055415193
% es.Ex (V/m) @ t=0.24
-0.6293882412143648
% es.Ey (V/m) @ t=0.24
0.04701291384901929
% es.Ez (V/m) @ t=0.24
-2.0097650554151723
% es.tEx (V/m) @ t=0.24
-0.6293882412143681
% es.tEy (V/m) @ t=0.24
0
% es.tEz (V/m) @ t=0.24
-2.009765055415193
% V (V) @ t=0.24
0.010604569195243423
% es.normE (V/m) @ t=0.26
2.1288127771609533
% es.EX (V/m) @ t=0.26
-0.6350695471915373
% es.EY (V/m) @ t=0.26
0.047437272969386865
% es.EZ (V/m) @ t=0.26
-2.027906645092092
% es.tEX (V/m) @ t=0.26
-0.6350695471915415
% es.tEY (V/m) @ t=0.26
0
% es.tEZ (V/m) @ t=0.26
-2.027906645092104
% es.Ex (V/m) @ t=0.26
-0.6350695471915373
% es.Ey (V/m) @ t=0.26
0.047437272969386865
% es.Ez (V/m) @ t=0.26
-2.027906645092092
% es.tEx (V/m) @ t=0.26
-0.6350695471915415
% es.tEy (V/m) @ t=0.26
0
% es.tEz (V/m) @ t=0.26
-2.027906645092104
% V (V) @ t=0.26
0.010700294214767573
% es.normE (V/m) @ t=0.28
2.1497605585851147
% es.EX (V/m) @ t=0.28
-0.641318419486292
% es.EY (V/m) @ t=0.28
0.04790334589866649
% es.EZ (V/m) @ t=0.28
-2.0478616117019657
% es.tEX (V/m) @ t=0.28
-0.6413184194862964
% es.tEY (V/m) @ t=0.28
0
% es.tEZ (V/m) @ t=0.28
-2.047861611701973
% es.Ex (V/m) @ t=0.28
-0.641318419486292
% es.Ey (V/m) @ t=0.28
0.04790334589866649
% es.Ez (V/m) @ t=0.28
-2.0478616117019657
% es.tEx (V/m) @ t=0.28
-0.6413184194862964
% es.tEy (V/m) @ t=0.28
0
% es.tEz (V/m) @ t=0.28
-2.047861611701973
% V (V) @ t=0.28
0.01080561488018696
% es.normE (V/m) @ t=0.3
2.1708804806395756
% es.EX (V/m) @ t=0.3
-0.6476186191717144
% es.EY (V/m) @ t=0.3
0.048373191181741604
% es.EZ (V/m) @ t=0.3
-2.067980569555422
% es.tEX (V/m) @ t=0.3
-0.6476186191717126
% es.tEY (V/m) @ t=0.3
0
% es.tEZ (V/m) @ t=0.3
-2.067980569555445
% es.Ex (V/m) @ t=0.3
-0.6476186191717144
% es.Ey (V/m) @ t=0.3
0.048373191181741604
% es.Ez (V/m) @ t=0.3
-2.067980569555422
% es.tEx (V/m) @ t=0.3
-0.6476186191717126
% es.tEy (V/m) @ t=0.3
0
% es.tEz (V/m) @ t=0.3
-2.067980569555445
% V (V) @ t=0.3
0.010911803319909087
% es.normE (V/m) @ t=0.32
2.1920004026943927
% es.EX (V/m) @ t=0.32
-0.6539188188571246
% es.EY (V/m) @ t=0.32
0.0488430364648338
% es.EZ (V/m) @ t=0.32
-2.0880995274089136
% es.tEX (V/m) @ t=0.32
-0.6539188188571323
% es.tEY (V/m) @ t=0.32
0
% es.tEZ (V/m) @ t=0.32
-2.088099527408936
% es.Ex (V/m) @ t=0.32
-0.6539188188571246
% es.Ey (V/m) @ t=0.32
0.0488430364648338
% es.Ez (V/m) @ t=0.32
-2.0880995274089136
% es.tEx (V/m) @ t=0.32
-0.6539188188571323
% es.tEy (V/m) @ t=0.32
0
% es.tEz (V/m) @ t=0.32
-2.088099527408936
% V (V) @ t=0.32
0.011017991759631215
% es.normE (V/m) @ t=0.34
2.2131203247495055
% es.EX (V/m) @ t=0.34
-0.6602190185425383
% es.EY (V/m) @ t=0.34
0.04931288174792309
% es.EZ (V/m) @ t=0.34
-2.108218485262383
% es.tEX (V/m) @ t=0.34
-0.6602190185425485
% es.tEY (V/m) @ t=0.34
0
% es.tEZ (V/m) @ t=0.34
-2.1082184852624
% es.Ex (V/m) @ t=0.34
-0.6602190185425383
% es.Ey (V/m) @ t=0.34
0.04931288174792309
% es.Ez (V/m) @ t=0.34
-2.108218485262383
% es.tEx (V/m) @ t=0.34
-0.6602190185425485
% es.tEy (V/m) @ t=0.34
0
% es.tEz (V/m) @ t=0.34
-2.1082184852624
% V (V) @ t=0.34
0.01112418019935334
% es.normE (V/m) @ t=0.36
2.234240246804914
% es.EX (V/m) @ t=0.36
-0.6665192182279518
% es.EY (V/m) @ t=0.36
0.04978272703100556
% es.EZ (V/m) @ t=0.36
-2.12833744311584
% es.tEX (V/m) @ t=0.36
-0.6665192182279576
% es.tEY (V/m) @ t=0.36
0
% es.tEZ (V/m) @ t=0.36
-2.128337443115864
% es.Ex (V/m) @ t=0.36
-0.6665192182279518
% es.Ey (V/m) @ t=0.36
0.04978272703100556
% es.Ez (V/m) @ t=0.36
-2.12833744311584
% es.tEx (V/m) @ t=0.36
-0.6665192182279576
% es.tEy (V/m) @ t=0.36
0
% es.tEz (V/m) @ t=0.36
-2.128337443115864
% V (V) @ t=0.36
0.011230368639075465
% es.normE (V/m) @ t=0.38
2.255360168860655
% es.EX (V/m) @ t=0.38
-0.6728194179133691
% es.EY (V/m) @ t=0.38
0.05025257231411749
% es.EZ (V/m) @ t=0.38
-2.148456400969332
% es.tEX (V/m) @ t=0.38
-0.6728194179133737
% es.tEY (V/m) @ t=0.38
0
% es.tEZ (V/m) @ t=0.38
-2.148456400969355
% es.Ex (V/m) @ t=0.38
-0.6728194179133691
% es.Ey (V/m) @ t=0.38
0.05025257231411749
% es.Ez (V/m) @ t=0.38
-2.148456400969332
% es.tEx (V/m) @ t=0.38
-0.6728194179133737
% es.tEy (V/m) @ t=0.38
0
% es.tEz (V/m) @ t=0.38
-2.148456400969355
% V (V) @ t=0.38
0.011336557078797592
% es.normE (V/m) @ t=0.4
2.2764800909166714
% es.EX (V/m) @ t=0.4
-0.679119617598781
% es.EY (V/m) @ t=0.4
0.05072241759719261
% es.EZ (V/m) @ t=0.4
-2.1685753588228085
% es.tEX (V/m) @ t=0.4
-0.6791196175987899
% es.tEY (V/m) @ t=0.4
0
% es.tEZ (V/m) @ t=0.4
-2.168575358822819
% es.Ex (V/m) @ t=0.4
-0.679119617598781
% es.Ey (V/m) @ t=0.4
0.05072241759719261
% es.Ez (V/m) @ t=0.4
-2.1685753588228085
% es.tEx (V/m) @ t=0.4
-0.6791196175987899
% es.tEy (V/m) @ t=0.4
0
% es.tEz (V/m) @ t=0.4
-2.168575358822819
% V (V) @ t=0.4
0.011442745518519721
% es.normE (V/m) @ t=0.42
2.297600012972965
% es.EX (V/m) @ t=0.42
-0.685419817284201
% es.EY (V/m) @ t=0.42
0.051192262880289
% es.EZ (V/m) @ t=0.42
-2.188694316676279
% es.tEX (V/m) @ t=0.42
-0.6854198172842132
% es.tEY (V/m) @ t=0.42
0
% es.tEZ (V/m) @ t=0.42
-2.1886943166762896
% es.Ex (V/m) @ t=0.42
-0.685419817284201
% es.Ey (V/m) @ t=0.42
0.051192262880289
% es.Ez (V/m) @ t=0.42
-2.188694316676279
% es.tEx (V/m) @ t=0.42
-0.6854198172842132
% es.tEy (V/m) @ t=0.42
0
% es.tEz (V/m) @ t=0.42
-2.1886943166762896
% V (V) @ t=0.42
0.011548933958241846
% es.normE (V/m) @ t=0.44
2.3187199350295247
% es.EX (V/m) @ t=0.44
-0.6917200169696102
% es.EY (V/m) @ t=0.44
0.05166210816335852
% es.EZ (V/m) @ t=0.44
-2.208813274529742
% es.tEX (V/m) @ t=0.44
-0.6917200169696187
% es.tEY (V/m) @ t=0.44
0
% es.tEZ (V/m) @ t=0.44
-2.20881327452976
% es.Ex (V/m) @ t=0.44
-0.6917200169696102
% es.Ey (V/m) @ t=0.44
0.05166210816335852
% es.Ez (V/m) @ t=0.44
-2.208813274529742
% es.tEx (V/m) @ t=0.44
-0.6917200169696187
% es.tEy (V/m) @ t=0.44
0
% es.tEz (V/m) @ t=0.44
-2.20881327452976
% V (V) @ t=0.44
0.011655122397963971
% es.normE (V/m) @ t=0.46
2.339839857086366
% es.EX (V/m) @ t=0.46
-0.6980202166550212
% es.EY (V/m) @ t=0.46
0.05213195344643695
% es.EZ (V/m) @ t=0.46
-2.228932232383219
% es.tEX (V/m) @ t=0.46
-0.6980202166550278
% es.tEY (V/m) @ t=0.46
0
% es.tEZ (V/m) @ t=0.46
-2.2289322323832383
% es.Ex (V/m) @ t=0.46
-0.6980202166550212
% es.Ey (V/m) @ t=0.46
0.05213195344643695
% es.Ez (V/m) @ t=0.46
-2.228932232383219
% es.tEx (V/m) @ t=0.46
-0.6980202166550278
% es.tEy (V/m) @ t=0.46
0
% es.tEz (V/m) @ t=0.46
-2.2289322323832383
% V (V) @ t=0.46
0.0117613108376861
% es.normE (V/m) @ t=0.48
2.3609597791434638
% es.EX (V/m) @ t=0.48
-0.7043204163404403
% es.EY (V/m) @ t=0.48
0.052601798729533356
% es.EZ (V/m) @ t=0.48
-2.249051190236689
% es.tEX (V/m) @ t=0.48
-0.7043204163404475
% es.tEY (V/m) @ t=0.48
0
% es.tEZ (V/m) @ t=0.48
-2.2490511902367087
% es.Ex (V/m) @ t=0.48
-0.7043204163404403
% es.Ey (V/m) @ t=0.48
0.052601798729533356
% es.Ez (V/m) @ t=0.48
-2.249051190236689
% es.tEx (V/m) @ t=0.48
-0.7043204163404475
% es.tEy (V/m) @ t=0.48
0
% es.tEz (V/m) @ t=0.48
-2.2490511902367087
% V (V) @ t=0.48
0.011867499277408225
% es.normE (V/m) @ t=0.5
2.3820797012008135
% es.EX (V/m) @ t=0.5
-0.7106206160258585
% es.EY (V/m) @ t=0.5
0.05307164401260313
% es.EZ (V/m) @ t=0.5
-2.2691701480901596
% es.tEX (V/m) @ t=0.5
-0.7106206160258672
% es.tEY (V/m) @ t=0.5
0
% es.tEZ (V/m) @ t=0.5
-2.269170148090174
% es.Ex (V/m) @ t=0.5
-0.7106206160258585
% es.Ey (V/m) @ t=0.5
0.05307164401260313
% es.Ez (V/m) @ t=0.5
-2.2691701480901596
% es.tEx (V/m) @ t=0.5
-0.7106206160258672
% es.tEy (V/m) @ t=0.5
0
% es.tEz (V/m) @ t=0.5
-2.269170148090174
% V (V) @ t=0.5
0.01197368771713035
% es.normE (V/m) @ t=0.52
2.4031996232584087
% es.EX (V/m) @ t=0.52
-0.7169208157112721
% es.EY (V/m) @ t=0.52
0.053541489295715505
% es.EZ (V/m) @ t=0.52
-2.28928910594363
% es.tEX (V/m) @ t=0.52
-0.7169208157112728
% es.tEY (V/m) @ t=0.52
0
% es.tEZ (V/m) @ t=0.52
-2.2892891059436513
% es.Ex (V/m) @ t=0.52
-0.7169208157112721
% es.Ey (V/m) @ t=0.52
0.053541489295715505
% es.Ez (V/m) @ t=0.52
-2.28928910594363
% es.tEx (V/m) @ t=0.52
-0.7169208157112728
% es.tEy (V/m) @ t=0.52
0
% es.tEz (V/m) @ t=0.52
-2.2892891059436513
% V (V) @ t=0.52
0.012079876156852475
% es.normE (V/m) @ t=0.54
2.4262928435139113
% es.EX (V/m) @ t=0.54
-0.7238102792695107
% es.EY (V/m) @ t=0.54
0.054056755728488726
% es.EZ (V/m) @ t=0.54
-2.3112875967078566
% es.tEX (V/m) @ t=0.54
-0.7238102792695109
% es.tEY (V/m) @ t=0.54
0
% es.tEZ (V/m) @ t=0.54
-2.3112875967078894
% es.Ex (V/m) @ t=0.54
-0.7238102792695107
% es.Ey (V/m) @ t=0.54
0.054056755728488726
% es.Ez (V/m) @ t=0.54
-2.3112875967078566
% es.tEx (V/m) @ t=0.54
-0.7238102792695109
% es.tEy (V/m) @ t=0.54
0
% es.tEz (V/m) @ t=0.54
-2.3112875967078894
% V (V) @ t=0.54
0.01219592563740216
% es.normE (V/m) @ t=0.56
2.449751608499416
% es.EX (V/m) @ t=0.56
-0.7308089013437941
% es.EY (V/m) @ t=0.56
0.05458043622757189
% es.EZ (V/m) @ t=0.56
-2.333634262598511
% es.tEX (V/m) @ t=0.56
-0.7308089013437922
% es.tEY (V/m) @ t=0.56
0
% es.tEZ (V/m) @ t=0.56
-2.3336342625985287
% es.Ex (V/m) @ t=0.56
-0.7308089013437941
% es.Ey (V/m) @ t=0.56
0.05458043622757189
% es.Ez (V/m) @ t=0.56
-2.333634262598511
% es.tEx (V/m) @ t=0.56
-0.7308089013437922
% es.tEy (V/m) @ t=0.56
0
% es.tEz (V/m) @ t=0.56
-2.3336342625985287
% V (V) @ t=0.56
0.012313801831981133
% es.normE (V/m) @ t=0.58
2.473210373485429
% es.EX (V/m) @ t=0.58
-0.7378075234180863
% es.EY (V/m) @ t=0.58
0.05510411672665634
% es.EZ (V/m) @ t=0.58
-2.3559809284891573
% es.tEX (V/m) @ t=0.58
-0.7378075234180912
% es.tEY (V/m) @ t=0.58
0
% es.tEZ (V/m) @ t=0.58
-2.35598092848919
% es.Ex (V/m) @ t=0.58
-0.7378075234180863
% es.Ey (V/m) @ t=0.58
0.05510411672665634
% es.Ez (V/m) @ t=0.58
-2.3559809284891573
% es.tEx (V/m) @ t=0.58
-0.7378075234180912
% es.tEy (V/m) @ t=0.58
0
% es.tEz (V/m) @ t=0.58
-2.35598092848919
% V (V) @ t=0.58
0.012431678026560101
% es.normE (V/m) @ t=0.6
2.4966691384719457
% es.EX (V/m) @ t=0.6
-0.7448061454923698
% es.EY (V/m) @ t=0.6
0.055627797225746595
% es.EZ (V/m) @ t=0.6
-2.378327594379811
% es.tEX (V/m) @ t=0.6
-0.744806145492376
% es.tEY (V/m) @ t=0.6
0
% es.tEZ (V/m) @ t=0.6
-2.3783275943798206
% es.Ex (V/m) @ t=0.6
-0.7448061454923698
% es.Ey (V/m) @ t=0.6
0.055627797225746595
% es.Ez (V/m) @ t=0.6
-2.378327594379811
% es.tEx (V/m) @ t=0.6
-0.744806145492376
% es.tEy (V/m) @ t=0.6
0
% es.tEz (V/m) @ t=0.6
-2.3783275943798206
% V (V) @ t=0.6
0.012549554221139072
% es.normE (V/m) @ t=0.62
2.5201279034589392
% es.EX (V/m) @ t=0.62
-0.7518047675666577
% es.EY (V/m) @ t=0.62
0.05615147772482572
% es.EZ (V/m) @ t=0.62
-2.400674260270457
% es.tEX (V/m) @ t=0.62
-0.7518047675666608
% es.tEY (V/m) @ t=0.62
0
% es.tEZ (V/m) @ t=0.62
-2.400674260270474
% es.Ex (V/m) @ t=0.62
-0.7518047675666577
% es.Ey (V/m) @ t=0.62
0.05615147772482572
% es.Ez (V/m) @ t=0.62
-2.400674260270457
% es.tEx (V/m) @ t=0.62
-0.7518047675666608
% es.tEy (V/m) @ t=0.62
0
% es.tEz (V/m) @ t=0.62
-2.400674260270474
% V (V) @ t=0.62
0.012667430415718044
% es.normE (V/m) @ t=0.64
2.5435866684464132
% es.EX (V/m) @ t=0.64
-0.7588033896409535
% es.EY (V/m) @ t=0.64
0.05667515822391375
% es.EZ (V/m) @ t=0.64
-2.4230209261611106
% es.tEX (V/m) @ t=0.64
-0.7588033896409634
% es.tEY (V/m) @ t=0.64
0
% es.tEZ (V/m) @ t=0.64
-2.4230209261611346
% es.Ex (V/m) @ t=0.64
-0.7588033896409535
% es.Ey (V/m) @ t=0.64
0.05667515822391375
% es.Ez (V/m) @ t=0.64
-2.4230209261611106
% es.tEx (V/m) @ t=0.64
-0.7588033896409634
% es.tEy (V/m) @ t=0.64
0
% es.tEz (V/m) @ t=0.64
-2.4230209261611346
% V (V) @ t=0.64
0.01278530661029701
% es.normE (V/m) @ t=0.66
2.5670454334343287
% es.EX (V/m) @ t=0.66
-0.7658020117152371
% es.EY (V/m) @ t=0.66
0.05719883872299503
% es.EZ (V/m) @ t=0.66
-2.445367592051749
% es.tEX (V/m) @ t=0.66
-0.7658020117152446
% es.tEY (V/m) @ t=0.66
0
% es.tEZ (V/m) @ t=0.66
-2.445367592051772
% es.Ex (V/m) @ t=0.66
-0.7658020117152371
% es.Ey (V/m) @ t=0.66
0.05719883872299503
% es.Ez (V/m) @ t=0.66
-2.445367592051749
% es.tEx (V/m) @ t=0.66
-0.7658020117152446
% es.tEy (V/m) @ t=0.66
0
% es.tEz (V/m) @ t=0.66
-2.445367592051772
% V (V) @ t=0.66
0.012903182804875983
% es.normE (V/m) @ t=0.68
2.590504198422691
% es.EX (V/m) @ t=0.68
-0.7728006337895206
% es.EY (V/m) @ t=0.68
0.05772251922209039
% es.EZ (V/m) @ t=0.68
-2.467714257942389
% es.tEX (V/m) @ t=0.68
-0.7728006337895224
% es.tEY (V/m) @ t=0.68
0
% es.tEZ (V/m) @ t=0.68
-2.4677142579424256
% es.Ex (V/m) @ t=0.68
-0.7728006337895206
% es.Ey (V/m) @ t=0.68
0.05772251922209039
% es.Ez (V/m) @ t=0.68
-2.467714257942389
% es.tEx (V/m) @ t=0.68
-0.7728006337895224
% es.tEy (V/m) @ t=0.68
0
% es.tEz (V/m) @ t=0.68
-2.4677142579424256
% V (V) @ t=0.68
0.013021058999454951
% es.normE (V/m) @ t=0.7
2.613962963411515
% es.EX (V/m) @ t=0.7
-0.7797992558638127
% es.EY (V/m) @ t=0.7
0.05824619972118021
% es.EZ (V/m) @ t=0.7
-2.490060923833057
% es.tEX (V/m) @ t=0.7
-0.7797992558638214
% es.tEY (V/m) @ t=0.7
0
% es.tEZ (V/m) @ t=0.7
-2.490060923833065
% es.Ex (V/m) @ t=0.7
-0.7797992558638127
% es.Ey (V/m) @ t=0.7
0.05824619972118021
% es.Ez (V/m) @ t=0.7
-2.490060923833057
% es.tEx (V/m) @ t=0.7
-0.7797992558638214
% es.tEy (V/m) @ t=0.7
0
% es.tEz (V/m) @ t=0.7
-2.490060923833065
% V (V) @ t=0.7
0.013138935194033925
% es.normE (V/m) @ t=0.72
2.6374217284007244
% es.EX (V/m) @ t=0.72
-0.7867978779380944
% es.EY (V/m) @ t=0.72
0.05876988022024737
% es.EZ (V/m) @ t=0.72
-2.512407589723689
% es.tEX (V/m) @ t=0.72
-0.7867978779380991
% es.tEY (V/m) @ t=0.72
0
% es.tEZ (V/m) @ t=0.72
-2.5124075897237166
% es.Ex (V/m) @ t=0.72
-0.7867978779380944
% es.Ey (V/m) @ t=0.72
0.05876988022024737
% es.Ez (V/m) @ t=0.72
-2.512407589723689
% es.tEx (V/m) @ t=0.72
-0.7867978779380991
% es.tEy (V/m) @ t=0.72
0
% es.tEz (V/m) @ t=0.72
-2.5124075897237166
% V (V) @ t=0.72
0.013256811388612894
% es.normE (V/m) @ t=0.74
2.6608804933903834
% es.EX (V/m) @ t=0.74
-0.7937965000123886
% es.EY (V/m) @ t=0.74
0.05929356071933027
% es.EZ (V/m) @ t=0.74
-2.5347542556143567
% es.tEX (V/m) @ t=0.74
-0.7937965000123981
% es.tEY (V/m) @ t=0.74
0
% es.tEZ (V/m) @ t=0.74
-2.534754255614356
% es.Ex (V/m) @ t=0.74
-0.7937965000123886
% es.Ey (V/m) @ t=0.74
0.05929356071933027
% es.Ez (V/m) @ t=0.74
-2.5347542556143567
% es.tEx (V/m) @ t=0.74
-0.7937965000123981
% es.tEy (V/m) @ t=0.74
0
% es.tEz (V/m) @ t=0.74
-2.534754255614356
% V (V) @ t=0.74
0.013374687583191864
% es.normE (V/m) @ t=0.76
2.684339258380388
% es.EX (V/m) @ t=0.76
-0.8007951220866614
% es.EY (V/m) @ t=0.76
0.0598172412184276
% es.EZ (V/m) @ t=0.76
-2.5571009215049747
% es.tEX (V/m) @ t=0.76
-0.8007951220866687
% es.tEY (V/m) @ t=0.76
0
% es.tEZ (V/m) @ t=0.76
-2.5571009215049934
% es.Ex (V/m) @ t=0.76
-0.8007951220866614
% es.Ey (V/m) @ t=0.76
0.0598172412184276
% es.Ez (V/m) @ t=0.76
-2.5571009215049747
% es.tEx (V/m) @ t=0.76
-0.8007951220866687
% es.tEy (V/m) @ t=0.76
0
% es.tEz (V/m) @ t=0.76
-2.5571009215049934
% V (V) @ t=0.76
0.013492563777770833
% es.normE (V/m) @ t=0.78
2.707798023370829
% es.EX (V/m) @ t=0.78
-0.8077937441609582
% es.EY (V/m) @ t=0.78
0.06034092171750827
% es.EZ (V/m) @ t=0.78
-2.5794475873956353
% es.tEX (V/m) @ t=0.78
-0.8077937441609677
% es.tEY (V/m) @ t=0.78
0
% es.tEZ (V/m) @ t=0.78
-2.579447587395663
% es.Ex (V/m) @ t=0.78
-0.8077937441609582
% es.Ey (V/m) @ t=0.78
0.06034092171750827
% es.Ez (V/m) @ t=0.78
-2.5794475873956353
% es.tEx (V/m) @ t=0.78
-0.8077937441609677
% es.tEy (V/m) @ t=0.78
0
% es.tEz (V/m) @ t=0.78
-2.579447587395663
% V (V) @ t=0.78
0.013610439972349802
% es.normE (V/m) @ t=0.8
2.733292694091852
% es.EX (V/m) @ t=0.8
-0.81539953499288
% es.EY (V/m) @ t=0.8
0.06090956724965958
% es.EZ (V/m) @ t=0.8
-2.603733726828211
% es.tEX (V/m) @ t=0.8
-0.815399534992892
% es.tEY (V/m) @ t=0.8
0
% es.tEZ (V/m) @ t=0.8
-2.603733726828244
% es.Ex (V/m) @ t=0.8
-0.81539953499288
% es.Ey (V/m) @ t=0.8
0.06090956724965958
% es.Ez (V/m) @ t=0.8
-2.603733726828211
% es.tEx (V/m) @ t=0.8
-0.815399534992892
% es.tEy (V/m) @ t=0.8
0
% es.tEz (V/m) @ t=0.8
-2.603733726828244
% V (V) @ t=0.8
0.0137385659411595
% es.normE (V/m) @ t=0.82
2.7593942975996413
% es.EX (V/m) @ t=0.82
-0.8231863315661619
% es.EY (V/m) @ t=0.82
0.06149161750505165
% es.EZ (V/m) @ t=0.82
-2.628598051224854
% es.tEX (V/m) @ t=0.82
-0.8231863315661698
% es.tEY (V/m) @ t=0.82
0
% es.tEZ (V/m) @ t=0.82
-2.6285980512248877
% es.Ex (V/m) @ t=0.82
-0.8231863315661619
% es.Ey (V/m) @ t=0.82
0.06149161750505165
% es.Ez (V/m) @ t=0.82
-2.628598051224854
% es.tEx (V/m) @ t=0.82
-0.8231863315661698
% es.tEy (V/m) @ t=0.82
0
% es.tEz (V/m) @ t=0.82
-2.6285980512248877
% V (V) @ t=0.82
0.013869747515120396
% es.normE (V/m) @ t=0.84
2.785495901107512
% es.EX (V/m) @ t=0.84
-0.8309731281394563
% es.EY (V/m) @ t=0.84
0.06207366776041197
% es.EZ (V/m) @ t=0.84
-2.653462375621512
% es.tEX (V/m) @ t=0.84
-0.8309731281394619
% es.tEY (V/m) @ t=0.84
0
% es.tEZ (V/m) @ t=0.84
-2.653462375621535
% es.Ex (V/m) @ t=0.84
-0.8309731281394563
% es.Ey (V/m) @ t=0.84
0.06207366776041197
% es.Ez (V/m) @ t=0.84
-2.653462375621512
% es.tEx (V/m) @ t=0.84
-0.8309731281394619
% es.tEy (V/m) @ t=0.84
0
% es.tEz (V/m) @ t=0.84
-2.653462375621535
% V (V) @ t=0.84
0.014000929089081295
% es.normE (V/m) @ t=0.86
2.811597504615427
% es.EX (V/m) @ t=0.86
-0.8387599247127366
% es.EY (V/m) @ t=0.86
0.06265571801578115
% es.EZ (V/m) @ t=0.86
-2.6783267000181548
% es.tEX (V/m) @ t=0.86
-0.8387599247127397
% es.tEY (V/m) @ t=0.86
0
% es.tEZ (V/m) @ t=0.86
-2.6783267000181787
% es.Ex (V/m) @ t=0.86
-0.8387599247127366
% es.Ey (V/m) @ t=0.86
0.06265571801578115
% es.Ez (V/m) @ t=0.86
-2.6783267000181548
% es.tEx (V/m) @ t=0.86
-0.8387599247127397
% es.tEy (V/m) @ t=0.86
0
% es.tEz (V/m) @ t=0.86
-2.6783267000181787
% V (V) @ t=0.86
0.014132110663042194
% es.normE (V/m) @ t=0.88
2.8376991081234095
% es.EX (V/m) @ t=0.88
-0.8465467212860205
% es.EY (V/m) @ t=0.88
0.06323776827114362
% es.EZ (V/m) @ t=0.88
-2.7031910244148047
% es.tEX (V/m) @ t=0.88
-0.8465467212860318
% es.tEY (V/m) @ t=0.88
0
% es.tEZ (V/m) @ t=0.88
-2.7031910244148385
% es.Ex (V/m) @ t=0.88
-0.8465467212860205
% es.Ey (V/m) @ t=0.88
0.06323776827114362
% es.Ez (V/m) @ t=0.88
-2.7031910244148047
% es.tEx (V/m) @ t=0.88
-0.8465467212860318
% es.tEy (V/m) @ t=0.88
0
% es.tEz (V/m) @ t=0.88
-2.7031910244148385
% V (V) @ t=0.88
0.01426329223700309
% es.normE (V/m) @ t=0.9
2.863800711631452
% es.EX (V/m) @ t=0.9
-0.8543335178593079
% es.EY (V/m) @ t=0.9
0.06381981852651636
% es.EZ (V/m) @ t=0.9
-2.7280553488114547
% es.tEX (V/m) @ t=0.9
-0.8543335178593239
% es.tEY (V/m) @ t=0.9
0
% es.tEZ (V/m) @ t=0.9
-2.7280553488114823
% es.Ex (V/m) @ t=0.9
-0.8543335178593079
% es.Ey (V/m) @ t=0.9
0.06381981852651636
% es.Ez (V/m) @ t=0.9
-2.7280553488114547
% es.tEx (V/m) @ t=0.9
-0.8543335178593239
% es.tEy (V/m) @ t=0.9
0
% es.tEz (V/m) @ t=0.9
-2.7280553488114823
% V (V) @ t=0.9
0.014394473810963988
% es.normE (V/m) @ t=0.92
2.889902315139552
% es.EX (V/m) @ t=0.92
-0.86212031443259
% es.EY (V/m) @ t=0.92
0.06440186878189044
% es.EZ (V/m) @ t=0.92
-2.7529196732081047
% es.tEX (V/m) @ t=0.92
-0.8621203144326017
% es.tEY (V/m) @ t=0.92
0
% es.tEZ (V/m) @ t=0.92
-2.752919673208128
% es.Ex (V/m) @ t=0.92
-0.86212031443259
% es.Ey (V/m) @ t=0.92
0.06440186878189044
% es.Ez (V/m) @ t=0.92
-2.7529196732081047
% es.tEx (V/m) @ t=0.92
-0.8621203144326017
% es.tEy (V/m) @ t=0.92
0
% es.tEz (V/m) @ t=0.92
-2.752919673208128
% V (V) @ t=0.92
0.014525655384924887
% es.normE (V/m) @ t=0.94
2.9160039186477116
% es.EX (V/m) @ t=0.94
-0.8699071110058845
% es.EY (V/m) @ t=0.94
0.06498391903726852
% es.EZ (V/m) @ t=0.94
-2.7777839976047556
% es.tEX (V/m) @ t=0.94
-0.8699071110058938
% es.tEY (V/m) @ t=0.94
0
% es.tEZ (V/m) @ t=0.94
-2.7777839976047733
% es.Ex (V/m) @ t=0.94
-0.8699071110058845
% es.Ey (V/m) @ t=0.94
0.06498391903726852
% es.Ez (V/m) @ t=0.94
-2.7777839976047556
% es.tEx (V/m) @ t=0.94
-0.8699071110058938
% es.tEy (V/m) @ t=0.94
0
% es.tEz (V/m) @ t=0.94
-2.7777839976047733
% V (V) @ t=0.94
0.014656836958885784
% es.normE (V/m) @ t=0.96
2.942105522155932
% es.EX (V/m) @ t=0.96
-0.8776939075791645
% es.EY (V/m) @ t=0.96
0.06556596929263815
% es.EZ (V/m) @ t=0.96
-2.80264832200142
% es.tEX (V/m) @ t=0.96
-0.8776939075791645
% es.tEY (V/m) @ t=0.96
0
% es.tEZ (V/m) @ t=0.96
-2.802648322001419
% es.Ex (V/m) @ t=0.96
-0.8776939075791645
% es.Ey (V/m) @ t=0.96
0.06556596929263815
% es.Ez (V/m) @ t=0.96
-2.80264832200142
% es.tEx (V/m) @ t=0.96
-0.8776939075791645
% es.tEy (V/m) @ t=0.96
0
% es.tEz (V/m) @ t=0.96
-2.802648322001419
% V (V) @ t=0.96
0.014788018532846682
% es.normE (V/m) @ t=0.98
2.968207125664182
% es.EX (V/m) @ t=0.98
-0.885480704152454
% es.EY (V/m) @ t=0.98
0.06614801954801755
% es.EZ (V/m) @ t=0.98
-2.8275126463980556
% es.tEX (V/m) @ t=0.98
-0.8854807041524637
% es.tEY (V/m) @ t=0.98
0
% es.tEZ (V/m) @ t=0.98
-2.8275126463980786
% es.Ex (V/m) @ t=0.98
-0.885480704152454
% es.Ey (V/m) @ t=0.98
0.06614801954801755
% es.Ez (V/m) @ t=0.98
-2.8275126463980556
% es.tEx (V/m) @ t=0.98
-0.8854807041524637
% es.tEy (V/m) @ t=0.98
0
% es.tEz (V/m) @ t=0.98
-2.8275126463980786
% V (V) @ t=0.98
0.014919200106807579
% es.normE (V/m) @ t=1
2.994308729172497
% es.EX (V/m) @ t=1
-0.8932675007257411
% es.EY (V/m) @ t=1
0.06673006980336943
% es.EZ (V/m) @ t=1
-2.8523769707947064
% es.tEX (V/m) @ t=1
-0.8932675007257558
% es.tEY (V/m) @ t=1
0
% es.tEZ (V/m) @ t=1
-2.8523769707947384
% es.Ex (V/m) @ t=1
-0.8932675007257411
% es.Ey (V/m) @ t=1
0.06673006980336943
% es.Ez (V/m) @ t=1
-2.8523769707947064
% es.tEx (V/m) @ t=1
-0.8932675007257558
% es.tEy (V/m) @ t=1
0
% es.tEz (V/m) @ t=1
-2.8523769707947384
% V (V) @ t=1
0.015050381680768476
% es.normE (V/m) @ t=1.02
3.0204103326808456
% es.EX (V/m) @ t=1.02
-0.9010542972990161
% es.EY (V/m) @ t=1.02
0.06731212005875817
% es.EZ (V/m) @ t=1.02
-2.877241295191342
% es.tEX (V/m) @ t=1.02
-0.9010542972990194
% es.tEY (V/m) @ t=1.02
0
% es.tEZ (V/m) @ t=1.02
-2.877241295191368
% es.Ex (V/m) @ t=1.02
-0.9010542972990161
% es.Ey (V/m) @ t=1.02
0.06731212005875817
% es.Ez (V/m) @ t=1.02
-2.877241295191342
% es.tEx (V/m) @ t=1.02
-0.9010542972990194
% es.tEy (V/m) @ t=1.02
0
% es.tEz (V/m) @ t=1.02
-2.877241295191368
% V (V) @ t=1.02
0.015181563254729377
% es.normE (V/m) @ t=1.04
3.046511936189277
% es.EX (V/m) @ t=1.04