% Model:              1 neuron.mph
% Version:            COMSOL 6.0.0.405
% Date:               Mar 16 2023, 18:09
% Dimension:          0
% Nodes:              14017
% Expressions:        14017
% Description:        Electric field norm, Electric field, X component, Electric field, Y component, Electric field, Z component, Tangential electric field, X component, Tangential electric field, Y component, Tangential electric field, Z component, Electric field, x component, Electric field, y component, Electric field, z component, Tangential electric field, x component, Tangential electric field, y component, Tangential electric field, z component, Electric potential
% Length unit:        mm
% x
1.0000000000000002
% y
12.2
% z
2
% es.normE (V/m) @ t=0
1.0275692016745062
% es.EX (V/m) @ t=0
0.7137577542457811
% es.EY (V/m) @ t=0
0.10687625655328786
% es.EZ (V/m) @ t=0
-0.7127162966327876
% es.tEX (V/m) @ t=0
0.7137577542457798
% es.tEY (V/m) @ t=0
0
% es.tEZ (V/m) @ t=0
-0.71271629663278
% es.Ex (V/m) @ t=0
0.7137577542457811
% es.Ey (V/m) @ t=0
0.10687625655328786
% es.Ez (V/m) @ t=0
-0.7127162966327876
% es.tEx (V/m) @ t=0
0.7137577542457798
% es.tEy (V/m) @ t=0
0
% es.tEz (V/m) @ t=0
-0.71271629663278
% V (V) @ t=0
0.011003946503785346
% es.normE (V/m) @ t=0.02
0.8875308121465999
% es.EX (V/m) @ t=0.02
0.6164859740480528
% es.EY (V/m) @ t=0.02
0.0923110404466172
% es.EZ (V/m) @ t=0.02
-0.615586441740672
% es.tEX (V/m) @ t=0.02
0.6164859740480546
% es.tEY (V/m) @ t=0.02
0
% es.tEZ (V/m) @ t=0.02
-0.6155864417406574
% es.Ex (V/m) @ t=0.02
0.6164859740480528
% es.Ey (V/m) @ t=0.02
0.0923110404466172
% es.Ez (V/m) @ t=0.02
-0.615586441740672
% es.tEx (V/m) @ t=0.02
0.6164859740480546
% es.tEy (V/m) @ t=0.02
0
% es.tEz (V/m) @ t=0.02
-0.6155864417406574
% V (V) @ t=0.02
0.009504314749561978
% es.normE (V/m) @ t=0.04
0.8956948743921469
% es.EX (V/m) @ t=0.04
0.6221567964448518
% es.EY (V/m) @ t=0.04
0.09316017119874098
% es.EZ (V/m) @ t=0.04
-0.6212489916595121
% es.tEX (V/m) @ t=0.04
0.6221567964448536
% es.tEY (V/m) @ t=0.04
0
% es.tEZ (V/m) @ t=0.04
-0.6212489916595048
% es.Ex (V/m) @ t=0.04
0.6221567964448518
% es.Ey (V/m) @ t=0.04
0.09316017119874098
% es.Ez (V/m) @ t=0.04
-0.6212489916595121
% es.tEx (V/m) @ t=0.04
0.6221567964448536
% es.tEy (V/m) @ t=0.04
0
% es.tEz (V/m) @ t=0.04
-0.6212489916595048
% V (V) @ t=0.04
0.009591741520396841
% es.normE (V/m) @ t=0.06
0.9039261062303734
% es.EX (V/m) @ t=0.06
0.6278742749112616
% es.EY (V/m) @ t=0.06
0.09401628230601433
% es.EZ (V/m) @ t=0.06
-0.6269581326633873
% es.tEX (V/m) @ t=0.06
0.6278742749112634
% es.tEY (V/m) @ t=0.06
0
% es.tEZ (V/m) @ t=0.06
-0.62695813266338
% es.Ex (V/m) @ t=0.06
0.6278742749112616
% es.Ey (V/m) @ t=0.06
0.09401628230601433
% es.Ez (V/m) @ t=0.06
-0.6269581326633873
% es.tEx (V/m) @ t=0.06
0.6278742749112634
% es.tEy (V/m) @ t=0.06
0
% es.tEz (V/m) @ t=0.06
-0.62695813266338
% V (V) @ t=0.06
0.0096798878275552
% es.normE (V/m) @ t=0.08
0.9122979337856628
% es.EX (V/m) @ t=0.08
0.6336894127196164
% es.EY (V/m) @ t=0.08
0.09488702220690293
% es.EZ (V/m) @ t=0.08
-0.6327647875778335
% es.tEX (V/m) @ t=0.08
0.6336894127196238
% es.tEY (V/m) @ t=0.08
0
% es.tEZ (V/m) @ t=0.08
-0.6327647875778224
% es.Ex (V/m) @ t=0.08
0.6336894127196164
% es.Ey (V/m) @ t=0.08
0.09488702220690293
% es.Ez (V/m) @ t=0.08
-0.6327647875778335
% es.tEx (V/m) @ t=0.08
0.6336894127196238
% es.tEy (V/m) @ t=0.08
0
% es.tEz (V/m) @ t=0.08
-0.6327647875778224
% V (V) @ t=0.08
0.009769539509050577
% es.normE (V/m) @ t=0.1
0.9207364322312495
% es.EX (V/m) @ t=0.1
0.6395508608666585
% es.EY (V/m) @ t=0.1
0.09576469912346969
% es.EZ (V/m) @ t=0.1
-0.6386176838669777
% es.tEX (V/m) @ t=0.1
0.6395508608666618
% es.tEY (V/m) @ t=0.1
0
% es.tEZ (V/m) @ t=0.1
-0.6386176838669702
% es.Ex (V/m) @ t=0.1
0.6395508608666585
% es.Ey (V/m) @ t=0.1
0.09576469912346969
% es.Ez (V/m) @ t=0.1
-0.6386176838669777
% es.tEx (V/m) @ t=0.1
0.6395508608666618
% es.tEy (V/m) @ t=0.1
0
% es.tEz (V/m) @ t=0.1
-0.6386176838669702
% V (V) @ t=0.1
0.009859905043352997
% es.normE (V/m) @ t=0.12
0.929174930676838
% es.EX (V/m) @ t=0.12
0.645412309013693
% es.EY (V/m) @ t=0.12
0.09664237604003045
% es.EZ (V/m) @ t=0.12
-0.6444705801561252
% es.tEX (V/m) @ t=0.12
0.6454123090136941
% es.tEY (V/m) @ t=0.12
0
% es.tEZ (V/m) @ t=0.12
-0.6444705801561179
% es.Ex (V/m) @ t=0.12
0.645412309013693
% es.Ey (V/m) @ t=0.12
0.09664237604003045
% es.Ez (V/m) @ t=0.12
-0.6444705801561252
% es.tEx (V/m) @ t=0.12
0.6454123090136941
% es.tEy (V/m) @ t=0.12
0
% es.tEz (V/m) @ t=0.12
-0.6444705801561179
% V (V) @ t=0.12
0.00995027057765542
% es.normE (V/m) @ t=0.14
0.9377738568665146
% es.EX (V/m) @ t=0.14
0.6513851920809819
% es.EY (V/m) @ t=0.14
0.09753674575454618
% es.EZ (V/m) @ t=0.14
-0.6504347451687009
% es.tEX (V/m) @ t=0.14
0.6513851920809812
% es.tEY (V/m) @ t=0.14
0
% es.tEZ (V/m) @ t=0.14
-0.6504347451686865
% es.Ex (V/m) @ t=0.14
0.6513851920809819
% es.Ey (V/m) @ t=0.14
0.09753674575454618
% es.Ez (V/m) @ t=0.14
-0.6504347451687009
% es.tEx (V/m) @ t=0.14
0.6513851920809812
% es.tEy (V/m) @ t=0.14
0
% es.tEz (V/m) @ t=0.14
-0.6504347451686865
% V (V) @ t=0.14
0.010042353810356525
% es.normE (V/m) @ t=0.16
0.9466502417034353
% es.EX (V/m) @ t=0.16
0.6575508010536362
% es.EY (V/m) @ t=0.16
0.09845998554491331
% es.EZ (V/m) @ t=0.16
-0.6565913486504524
% es.tEX (V/m) @ t=0.16
0.6575508010536342
% es.tEY (V/m) @ t=0.16
0
% es.tEZ (V/m) @ t=0.16
-0.6565913486504416
% es.Ex (V/m) @ t=0.16
0.6575508010536362
% es.Ey (V/m) @ t=0.16
0.09845998554491331
% es.Ez (V/m) @ t=0.16
-0.6565913486504524
% es.tEx (V/m) @ t=0.16
0.6575508010536342
% es.tEy (V/m) @ t=0.16
0
% es.tEz (V/m) @ t=0.16
-0.6565913486504416
% V (V) @ t=0.16
0.010137407790273107
% es.normE (V/m) @ t=0.18
0.9555266265403675
% es.EX (V/m) @ t=0.18
0.6637164100263033
% es.EY (V/m) @ t=0.18
0.0993832253352891
% es.EZ (V/m) @ t=0.18
-0.6627479521322075
% es.tEX (V/m) @ t=0.18
0.6637164100263049
% es.tEY (V/m) @ t=0.18
0
% es.tEZ (V/m) @ t=0.18
-0.6627479521321966
% es.Ex (V/m) @ t=0.18
0.6637164100263033
% es.Ey (V/m) @ t=0.18
0.0993832253352891
% es.Ez (V/m) @ t=0.18
-0.6627479521322075
% es.tEx (V/m) @ t=0.18
0.6637164100263049
% es.tEy (V/m) @ t=0.18
0
% es.tEz (V/m) @ t=0.18
-0.6627479521321966
% V (V) @ t=0.18
0.010232461770189688
% es.normE (V/m) @ t=0.2
0.9644030113772859
% es.EX (V/m) @ t=0.2
0.669882018998954
% es.EY (V/m) @ t=0.2
0.10030646512565689
% es.EZ (V/m) @ t=0.2
-0.6689045556139555
% es.tEX (V/m) @ t=0.2
0.6698820189989569
% es.tEY (V/m) @ t=0.2
0
% es.tEZ (V/m) @ t=0.2
-0.6689045556139375
% es.Ex (V/m) @ t=0.2
0.669882018998954
% es.Ey (V/m) @ t=0.2
0.10030646512565689
% es.Ez (V/m) @ t=0.2
-0.6689045556139555
% es.tEx (V/m) @ t=0.2
0.6698820189989569
% es.tEy (V/m) @ t=0.2
0
% es.tEz (V/m) @ t=0.2
-0.6689045556139375
% V (V) @ t=0.2
0.01032751575010627
% es.normE (V/m) @ t=0.22
0.9732793962142083
% es.EX (V/m) @ t=0.22
0.6760476279716114
% es.EY (V/m) @ t=0.22
0.10122970491603267
% es.EZ (V/m) @ t=0.22
-0.6750611590957076
% es.tEX (V/m) @ t=0.22
0.6760476279716165
% es.tEY (V/m) @ t=0.22
0
% es.tEZ (V/m) @ t=0.22
-0.6750611590957001
% es.Ex (V/m) @ t=0.22
0.6760476279716114
% es.Ey (V/m) @ t=0.22
0.10122970491603267
% es.Ez (V/m) @ t=0.22
-0.6750611590957076
% es.tEx (V/m) @ t=0.22
0.6760476279716165
% es.tEy (V/m) @ t=0.22
0
% es.tEz (V/m) @ t=0.22
-0.6750611590957001
% V (V) @ t=0.22
0.01042256973002285
% es.normE (V/m) @ t=0.24
0.9821557810511391
% es.EX (V/m) @ t=0.24
0.6822132369442786
% es.EY (V/m) @ t=0.24
0.10215294470639513
% es.EZ (V/m) @ t=0.24
-0.6812177625774556
% es.tEX (V/m) @ t=0.24
0.6822132369442793
% es.tEY (V/m) @ t=0.24
0
% es.tEZ (V/m) @ t=0.24
-0.6812177625774409
% es.Ex (V/m) @ t=0.24
0.6822132369442786
% es.Ey (V/m) @ t=0.24
0.10215294470639513
% es.Ez (V/m) @ t=0.24
-0.6812177625774556
% es.tEx (V/m) @ t=0.24
0.6822132369442793
% es.tEy (V/m) @ t=0.24
0
% es.tEz (V/m) @ t=0.24
-0.6812177625774409
% V (V) @ t=0.24
0.010517623709939432
% es.normE (V/m) @ t=0.26
0.9910321658880699
% es.EX (V/m) @ t=0.26
0.6883788459169347
% es.EY (V/m) @ t=0.26
0.10307618449677558
% es.EZ (V/m) @ t=0.26
-0.6873743660592178
% es.tEX (V/m) @ t=0.26
0.6883788459169393
% es.tEY (V/m) @ t=0.26
0
% es.tEZ (V/m) @ t=0.26
-0.6873743660592102
% es.Ex (V/m) @ t=0.26
0.6883788459169347
% es.Ey (V/m) @ t=0.26
0.10307618449677558
% es.Ez (V/m) @ t=0.26
-0.6873743660592178
% es.tEx (V/m) @ t=0.26
0.6883788459169393
% es.tEy (V/m) @ t=0.26
0
% es.tEz (V/m) @ t=0.26
-0.6873743660592102
% V (V) @ t=0.26
0.010612677689856014
% es.normE (V/m) @ t=0.28
1.0006368265121597
% es.EX (V/m) @ t=0.28
0.6950503467018807
% es.EY (V/m) @ t=0.28
0.10407550601481702
% es.EZ (V/m) @ t=0.28
-0.6940359488077257
% es.tEX (V/m) @ t=0.28
0.6950503467018834
% es.tEY (V/m) @ t=0.28
0
% es.tEZ (V/m) @ t=0.28
-0.6940359488077075
% es.Ex (V/m) @ t=0.28
0.6950503467018807
% es.Ey (V/m) @ t=0.28
0.10407550601481702
% es.Ez (V/m) @ t=0.28
-0.6940359488077257
% es.tEx (V/m) @ t=0.28
0.6950503467018834
% es.tEy (V/m) @ t=0.28
0
% es.tEz (V/m) @ t=0.28
-0.6940359488077075
% V (V) @ t=0.28
0.01071551715592076
% es.normE (V/m) @ t=0.3
1.0104941336188622
% es.EX (V/m) @ t=0.3
0.7018973466438918
% es.EY (V/m) @ t=0.3
0.10510122107935471
% es.EZ (V/m) @ t=0.3
-0.7008727141417386
% es.tEX (V/m) @ t=0.3
0.7018973466438951
% es.tEY (V/m) @ t=0.3
0
% es.tEZ (V/m) @ t=0.3
-0.7008727141417275
% es.Ex (V/m) @ t=0.3
0.7018973466438918
% es.Ey (V/m) @ t=0.3
0.10510122107935471
% es.Ez (V/m) @ t=0.3
-0.7008727141417386
% es.tEx (V/m) @ t=0.3
0.7018973466438951
% es.tEy (V/m) @ t=0.3
0
% es.tEz (V/m) @ t=0.3
-0.7008727141417275
% V (V) @ t=0.3
0.010821057488501143
% es.normE (V/m) @ t=0.32
1.0203514407259775
% es.EX (V/m) @ t=0.32
0.7087443465858982
% es.EY (V/m) @ t=0.32
0.10612693614389429
% es.EZ (V/m) @ t=0.32
-0.7077094794757333
% es.tEX (V/m) @ t=0.32
0.7087443465859069
% es.tEY (V/m) @ t=0.32
0
% es.tEZ (V/m) @ t=0.32
-0.7077094794757262
% es.Ex (V/m) @ t=0.32
0.7087443465858982
% es.Ey (V/m) @ t=0.32
0.10612693614389429
% es.Ez (V/m) @ t=0.32
-0.7077094794757333
% es.tEx (V/m) @ t=0.32
0.7087443465859069
% es.tEy (V/m) @ t=0.32
0
% es.tEz (V/m) @ t=0.32
-0.7077094794757262
% V (V) @ t=0.32
0.010926597821081522
% es.normE (V/m) @ t=0.34
1.0302087478335284
% es.EX (V/m) @ t=0.34
0.7155913465279189
% es.EY (V/m) @ t=0.34
0.10715265120842399
% es.EZ (V/m) @ t=0.34
-0.7145462448097533
% es.tEX (V/m) @ t=0.34
0.7155913465279213
% es.tEY (V/m) @ t=0.34
0
% es.tEZ (V/m) @ t=0.34
-0.714546244809739
% es.Ex (V/m) @ t=0.34
0.7155913465279189
% es.Ey (V/m) @ t=0.34
0.10715265120842399
% es.Ez (V/m) @ t=0.34
-0.7145462448097533
% es.tEx (V/m) @ t=0.34
0.7155913465279213
% es.tEy (V/m) @ t=0.34
0
% es.tEz (V/m) @ t=0.34
-0.714546244809739
% V (V) @ t=0.34
0.011032138153661903
% es.normE (V/m) @ t=0.36
1.040066054941466
% es.EX (V/m) @ t=0.36
0.7224383464699253
% es.EY (V/m) @ t=0.36
0.10817836627295913
% es.EZ (V/m) @ t=0.36
-0.7213830101437622
% es.tEX (V/m) @ t=0.36
0.7224383464699295
% es.tEY (V/m) @ t=0.36
0
% es.tEZ (V/m) @ t=0.36
-0.7213830101437511
% es.Ex (V/m) @ t=0.36
0.7224383464699253
% es.Ey (V/m) @ t=0.36
0.10817836627295913
% es.Ez (V/m) @ t=0.36
-0.7213830101437622
% es.tEx (V/m) @ t=0.36
0.7224383464699295
% es.tEy (V/m) @ t=0.36
0
% es.tEz (V/m) @ t=0.36
-0.7213830101437511
% V (V) @ t=0.36
0.011137678486242284
% es.normE (V/m) @ t=0.38
1.0499233620498005
% es.EX (V/m) @ t=0.38
0.7292853464119451
% es.EY (V/m) @ t=0.38
0.10920408133750037
% es.EZ (V/m) @ t=0.38
-0.7282197754777644
% es.tEX (V/m) @ t=0.38
0.7292853464119458
% es.tEY (V/m) @ t=0.38
0
% es.tEZ (V/m) @ t=0.38
-0.7282197754777568
% es.Ex (V/m) @ t=0.38
0.7292853464119451
% es.Ey (V/m) @ t=0.38
0.10920408133750037
% es.Ez (V/m) @ t=0.38
-0.7282197754777644
% es.tEx (V/m) @ t=0.38
0.7292853464119458
% es.tEy (V/m) @ t=0.38
0
% es.tEz (V/m) @ t=0.38
-0.7282197754777568
% V (V) @ t=0.38
0.011243218818822663
% es.normE (V/m) @ t=0.4
1.059780669158509
% es.EX (V/m) @ t=0.4
0.7361323463539564
% es.EY (V/m) @ t=0.4
0.11022979640203995
% es.EZ (V/m) @ t=0.4
-0.73505654081178
% es.tEX (V/m) @ t=0.4
0.7361323463539611
% es.tEY (V/m) @ t=0.4
0
% es.tEZ (V/m) @ t=0.4
-0.7350565408117617
% es.Ex (V/m) @ t=0.4
0.7361323463539564
% es.Ey (V/m) @ t=0.4
0.11022979640203995
% es.Ez (V/m) @ t=0.4
-0.73505654081178
% es.tEx (V/m) @ t=0.4
0.7361323463539611
% es.tEy (V/m) @ t=0.4
0
% es.tEz (V/m) @ t=0.4
-0.7350565408117617
% V (V) @ t=0.4
0.011348759151403043
% es.normE (V/m) @ t=0.42
1.069637976267583
% es.EX (V/m) @ t=0.42
0.742979346295968
% es.EY (V/m) @ t=0.42
0.11125551146657958
% es.EZ (V/m) @ t=0.42
-0.7418933061457818
% es.tEX (V/m) @ t=0.42
0.742979346295972
% es.tEY (V/m) @ t=0.42
0
% es.tEZ (V/m) @ t=0.42
-0.7418933061457675
% es.Ex (V/m) @ t=0.42
0.742979346295968
% es.Ey (V/m) @ t=0.42
0.11125551146657958
% es.Ez (V/m) @ t=0.42
-0.7418933061457818
% es.tEx (V/m) @ t=0.42
0.742979346295972
% es.tEy (V/m) @ t=0.42
0
% es.tEz (V/m) @ t=0.42
-0.7418933061457675
% V (V) @ t=0.42
0.011454299483983426
% es.normE (V/m) @ t=0.44
1.079495283377017
% es.EX (V/m) @ t=0.44
0.7498263462379813
% es.EY (V/m) @ t=0.44
0.11228122653110656
% es.EZ (V/m) @ t=0.44
-0.748730071479784
% es.tEX (V/m) @ t=0.44
0.7498263462379837
% es.tEY (V/m) @ t=0.44
0
% es.tEZ (V/m) @ t=0.44
-0.7487300714797804
% es.Ex (V/m) @ t=0.44
0.7498263462379813
% es.Ey (V/m) @ t=0.44
0.11228122653110656
% es.Ez (V/m) @ t=0.44
-0.748730071479784
% es.tEx (V/m) @ t=0.44
0.7498263462379837
% es.tEy (V/m) @ t=0.44
0
% es.tEz (V/m) @ t=0.44
-0.7487300714797804
% V (V) @ t=0.44
0.011559839816563805
% es.normE (V/m) @ t=0.46
1.0893525904868062
% es.EX (V/m) @ t=0.46
0.7566733461799939
% es.EY (V/m) @ t=0.46
0.1133069415956382
% es.EZ (V/m) @ t=0.46
-0.7555668368138
% es.tEX (V/m) @ t=0.46
0.7566733461799964
% es.tEY (V/m) @ t=0.46
0
% es.tEZ (V/m) @ t=0.46
-0.7555668368137853
% es.Ex (V/m) @ t=0.46
0.7566733461799939
% es.Ey (V/m) @ t=0.46
0.1133069415956382
% es.Ez (V/m) @ t=0.46
-0.7555668368138
% es.tEx (V/m) @ t=0.46
0.7566733461799964
% es.tEy (V/m) @ t=0.46
0
% es.tEz (V/m) @ t=0.46
-0.7555668368137853
% V (V) @ t=0.46
0.011665380149144184
% es.normE (V/m) @ t=0.48
1.0992098975969316
% es.EX (V/m) @ t=0.48
0.7635203461220093
% es.EY (V/m) @ t=0.48
0.11433265666017961
% es.EZ (V/m) @ t=0.48
-0.7624036021478058
% es.tEX (V/m) @ t=0.48
0.7635203461220081
% es.tEY (V/m) @ t=0.48
0
% es.tEZ (V/m) @ t=0.48
-0.7624036021477911
% es.Ex (V/m) @ t=0.48
0.7635203461220093
% es.Ey (V/m) @ t=0.48
0.11433265666017961
% es.Ez (V/m) @ t=0.48
-0.7624036021478058
% es.tEx (V/m) @ t=0.48
0.7635203461220081
% es.tEy (V/m) @ t=0.48
0
% es.tEz (V/m) @ t=0.48
-0.7624036021477911
% V (V) @ t=0.48
0.011770920481724567
% es.normE (V/m) @ t=0.5
1.109067204707385
% es.EX (V/m) @ t=0.5
0.7703673460640192
% es.EY (V/m) @ t=0.5
0.11535837172471747
% es.EZ (V/m) @ t=0.5
-0.7692403674818142
% es.tEX (V/m) @ t=0.5
0.7703673460640235
% es.tEY (V/m) @ t=0.5
0
% es.tEZ (V/m) @ t=0.5
-0.7692403674818102
% es.Ex (V/m) @ t=0.5
0.7703673460640192
% es.Ey (V/m) @ t=0.5
0.11535837172471747
% es.Ez (V/m) @ t=0.5
-0.7692403674818142
% es.tEx (V/m) @ t=0.5
0.7703673460640235
% es.tEy (V/m) @ t=0.5
0
% es.tEz (V/m) @ t=0.5
-0.7692403674818102
% V (V) @ t=0.5
0.011876460814304948
% es.normE (V/m) @ t=0.52
1.1189245118181517
% es.EX (V/m) @ t=0.52
0.7772143460060292
% es.EY (V/m) @ t=0.52
0.11638408678925688
% es.EZ (V/m) @ t=0.52
-0.7760771328158129
% es.tEX (V/m) @ t=0.52
0.7772143460060308
% es.tEY (V/m) @ t=0.52
0
% es.tEZ (V/m) @ t=0.52
-0.7760771328158018
% es.Ex (V/m) @ t=0.52
0.7772143460060292
% es.Ey (V/m) @ t=0.52
0.11638408678925688
% es.Ez (V/m) @ t=0.52
-0.7760771328158129
% es.tEx (V/m) @ t=0.52
0.7772143460060308
% es.tEy (V/m) @ t=0.52
0
% es.tEz (V/m) @ t=0.52
-0.7760771328158018
% V (V) @ t=0.52
0.011982001146885328
% es.normE (V/m) @ t=0.54
1.1293314245948949
% es.EX (V/m) @ t=0.54
0.7844430486062406
% es.EY (V/m) @ t=0.54
0.11746621345489455
% es.EZ (V/m) @ t=0.54
-0.78329543622583
% es.tEX (V/m) @ t=0.54
0.7844430486062395
% es.tEY (V/m) @ t=0.54
0
% es.tEZ (V/m) @ t=0.54
-0.7832954362258189
% es.Ex (V/m) @ t=0.54
0.7844430486062406
% es.Ey (V/m) @ t=0.54
0.11746621345489455
% es.Ez (V/m) @ t=0.54
-0.78329543622583
% es.tEx (V/m) @ t=0.54
0.7844430486062395
% es.tEy (V/m) @ t=0.54
0
% es.tEz (V/m) @ t=0.54
-0.7832954362258189
% V (V) @ t=0.54
0.012093457226162358
% es.normE (V/m) @ t=0.56
1.1402999829353717
% es.EX (V/m) @ t=0.56
0.7920618156060442
% es.EY (V/m) @ t=0.56
0.11860598749826456
% es.EZ (V/m) @ t=0.56
-0.7909036358478265
% es.tEX (V/m) @ t=0.56
0.7920618156060502
% es.tEY (V/m) @ t=0.56
0
% es.tEZ (V/m) @ t=0.56
-0.7909036358478154
% es.Ex (V/m) @ t=0.56
0.7920618156060442
% es.Ey (V/m) @ t=0.56
0.11860598749826456
% es.Ez (V/m) @ t=0.56
-0.7909036358478265
% es.tEx (V/m) @ t=0.56
0.7920618156060502
% es.tEy (V/m) @ t=0.56
0
% es.tEz (V/m) @ t=0.56
-0.7909036358478154
% V (V) @ t=0.56
0.012210958645008917
% es.normE (V/m) @ t=0.58
1.1512685412780164
% es.EX (V/m) @ t=0.58
0.7996805826058544
% es.EY (V/m) @ t=0.58
0.11974576154165428
% es.EZ (V/m) @ t=0.58
-0.7985118354698328
% es.tEX (V/m) @ t=0.58
0.7996805826058577
% es.tEY (V/m) @ t=0.58
0
% es.tEZ (V/m) @ t=0.58
-0.7985118354698182
% es.Ex (V/m) @ t=0.58
0.7996805826058544
% es.Ey (V/m) @ t=0.58
0.11974576154165428
% es.Ez (V/m) @ t=0.58
-0.7985118354698328
% es.tEx (V/m) @ t=0.58
0.7996805826058577
% es.tEy (V/m) @ t=0.58
0
% es.tEz (V/m) @ t=0.58
-0.7985118354698182
% V (V) @ t=0.58
0.012328460063855478
% es.normE (V/m) @ t=0.6
1.162237099622745
% es.EX (V/m) @ t=0.6
0.8072993496056642
% es.EY (V/m) @ t=0.6
0.12088553558503945
% es.EZ (V/m) @ t=0.6
-0.8061200350918258
% es.tEX (V/m) @ t=0.6
0.8072993496056609
% es.tEY (V/m) @ t=0.6
0
% es.tEZ (V/m) @ t=0.6
-0.8061200350918076
% es.Ex (V/m) @ t=0.6
0.8072993496056642
% es.Ey (V/m) @ t=0.6
0.12088553558503945
% es.Ez (V/m) @ t=0.6
-0.8061200350918258
% es.tEx (V/m) @ t=0.6
0.8072993496056609
% es.tEy (V/m) @ t=0.6
0
% es.tEz (V/m) @ t=0.6
-0.8061200350918076
% V (V) @ t=0.6
0.012445961482702038
% es.normE (V/m) @ t=0.62
1.1732056579694925
% es.EX (V/m) @ t=0.62
0.8149181166054607
% es.EY (V/m) @ t=0.62
0.12202530962841401
% es.EZ (V/m) @ t=0.62
-0.8137282347138073
% es.tEX (V/m) @ t=0.62
0.8149181166054649
% es.tEY (V/m) @ t=0.62
0
% es.tEZ (V/m) @ t=0.62
-0.8137282347137962
% es.Ex (V/m) @ t=0.62
0.8149181166054607
% es.Ey (V/m) @ t=0.62
0.12202530962841401
% es.Ez (V/m) @ t=0.62
-0.8137282347138073
% es.tEx (V/m) @ t=0.62
0.8149181166054649
% es.tEy (V/m) @ t=0.62
0
% es.tEz (V/m) @ t=0.62
-0.8137282347137962
% V (V) @ t=0.62
0.012563462901548606
% es.normE (V/m) @ t=0.64
1.1841742163182398
% es.EX (V/m) @ t=0.64
0.8225368836052696
% es.EY (V/m) @ t=0.64
0.12316508367179735
% es.EZ (V/m) @ t=0.64
-0.8213364343358074
% es.tEX (V/m) @ t=0.64
0.8225368836052747
% es.tEY (V/m) @ t=0.64
0
% es.tEZ (V/m) @ t=0.64
-0.8213364343357927
% es.Ex (V/m) @ t=0.64
0.8225368836052696
% es.Ey (V/m) @ t=0.64
0.12316508367179735
% es.Ez (V/m) @ t=0.64
-0.8213364343358074
% es.tEx (V/m) @ t=0.64
0.8225368836052747
% es.tEy (V/m) @ t=0.64
0
% es.tEz (V/m) @ t=0.64
-0.8213364343357927
% V (V) @ t=0.64
0.012680964320395165
% es.normE (V/m) @ t=0.66
1.1951427746688994
% es.EX (V/m) @ t=0.66
0.8301556506050662
% es.EY (V/m) @ t=0.66
0.12430485771518068
% es.EZ (V/m) @ t=0.66
-0.8289446339578035
% es.tEX (V/m) @ t=0.66
0.8301556506050716
% es.tEY (V/m) @ t=0.66
0
% es.tEZ (V/m) @ t=0.66
-0.8289446339577893
% es.Ex (V/m) @ t=0.66
0.8301556506050662
% es.Ey (V/m) @ t=0.66
0.12430485771518068
% es.Ez (V/m) @ t=0.66
-0.8289446339578035
% es.tEx (V/m) @ t=0.66
0.8301556506050716
% es.tEy (V/m) @ t=0.66
0
% es.tEz (V/m) @ t=0.66
-0.8289446339577893
% V (V) @ t=0.66
0.012798465739241727
% es.normE (V/m) @ t=0.68
1.2061113330214375
% es.EX (V/m) @ t=0.68
0.83777441760487
% es.EY (V/m) @ t=0.68
0.1254446317585493
% es.EZ (V/m) @ t=0.68
-0.8365528335798023
% es.tEX (V/m) @ t=0.68
0.837774417604872
% es.tEY (V/m) @ t=0.68
0
% es.tEZ (V/m) @ t=0.68
-0.836552833579784
% es.Ex (V/m) @ t=0.68
0.83777441760487
% es.Ey (V/m) @ t=0.68
0.1254446317585493
% es.Ez (V/m) @ t=0.68
-0.8365528335798023
% es.tEx (V/m) @ t=0.68
0.837774417604872
% es.tEy (V/m) @ t=0.68
0
% es.tEz (V/m) @ t=0.68
-0.836552833579784
% V (V) @ t=0.68
0.012915967158088288
% es.normE (V/m) @ t=0.7
1.217079891375791
% es.EX (V/m) @ t=0.7
0.8453931846046732
% es.EY (V/m) @ t=0.7
0.12658440580195568
% es.EZ (V/m) @ t=0.7
-0.8441610332017881
% es.tEX (V/m) @ t=0.7
0.8453931846046818
% es.tEY (V/m) @ t=0.7
0
% es.tEZ (V/m) @ t=0.7
-0.8441610332017806
% es.Ex (V/m) @ t=0.7
0.8453931846046732
% es.Ey (V/m) @ t=0.7
0.12658440580195568
% es.Ez (V/m) @ t=0.7
-0.8441610332017881
% es.tEx (V/m) @ t=0.7
0.8453931846046818
% es.tEy (V/m) @ t=0.7
0
% es.tEz (V/m) @ t=0.7
-0.8441610332017806
% V (V) @ t=0.7
0.013033468576934852
% es.normE (V/m) @ t=0.72
1.2280484497319302
% es.EX (V/m) @ t=0.72
0.8530119516044812
% es.EY (V/m) @ t=0.72
0.12772417984532214
% es.EZ (V/m) @ t=0.72
-0.8517692328237882
% es.tEX (V/m) @ t=0.72
0.8530119516044863
% es.tEY (V/m) @ t=0.72
0
% es.tEZ (V/m) @ t=0.72
-0.8517692328237771
% es.Ex (V/m) @ t=0.72
0.8530119516044812
% es.Ey (V/m) @ t=0.72
0.12772417984532214
% es.Ez (V/m) @ t=0.72
-0.8517692328237882
% es.tEx (V/m) @ t=0.72
0.8530119516044863
% es.tEy (V/m) @ t=0.72
0
% es.tEz (V/m) @ t=0.72
-0.8517692328237771
% V (V) @ t=0.72
0.013150969995781412
% es.normE (V/m) @ t=0.74
1.2390170080897822
% es.EX (V/m) @ t=0.74
0.8606307186042843
% es.EY (V/m) @ t=0.74
0.12886395388870037
% es.EZ (V/m) @ t=0.74
-0.8593774324457804
% es.tEX (V/m) @ t=0.74
0.860630718604297
% es.tEY (V/m) @ t=0.74
0
% es.tEZ (V/m) @ t=0.74
-0.8593774324457657
% es.Ex (V/m) @ t=0.74
0.8606307186042843
% es.Ey (V/m) @ t=0.74
0.12886395388870037
% es.Ez (V/m) @ t=0.74
-0.8593774324457804
% es.tEx (V/m) @ t=0.74
0.860630718604297
% es.tEy (V/m) @ t=0.74
0
% es.tEz (V/m) @ t=0.74
-0.8593774324457657
% V (V) @ t=0.74
0.013268471414627975
% es.normE (V/m) @ t=0.76
1.249985566449329
% es.EX (V/m) @ t=0.76
0.8682494856040972
% es.EY (V/m) @ t=0.76
0.13000372793207499
% es.EZ (V/m) @ t=0.76
-0.8669856320677831
% es.tEX (V/m) @ t=0.76
0.8682494856041036
% es.tEY (V/m) @ t=0.76
0
% es.tEZ (V/m) @ t=0.76
-0.8669856320677685
% es.Ex (V/m) @ t=0.76
0.8682494856040972
% es.Ey (V/m) @ t=0.76
0.13000372793207499
% es.Ez (V/m) @ t=0.76
-0.8669856320677831
% es.tEx (V/m) @ t=0.76
0.8682494856041036
% es.tEy (V/m) @ t=0.76
0
% es.tEz (V/m) @ t=0.76
-0.8669856320677685
% V (V) @ t=0.76
0.013385972833474537
% es.normE (V/m) @ t=0.78
1.2609541248104974
% es.EX (V/m) @ t=0.78
0.8758682526038928
% es.EY (V/m) @ t=0.78
0.13114350197545455
% es.EZ (V/m) @ t=0.78
-0.8745938316897806
% es.tEX (V/m) @ t=0.78
0.8758682526039032
% es.tEY (V/m) @ t=0.78
0
% es.tEZ (V/m) @ t=0.78
-0.8745938316897659
% es.Ex (V/m) @ t=0.78
0.8758682526038928
% es.Ey (V/m) @ t=0.78
0.13114350197545455
% es.Ez (V/m) @ t=0.78
-0.8745938316897806
% es.tEx (V/m) @ t=0.78
0.8758682526039032
% es.tEy (V/m) @ t=0.78
0
% es.tEz (V/m) @ t=0.78
-0.8745938316897659
% V (V) @ t=0.78
0.013503474252321101
% es.normE (V/m) @ t=0.8
1.2722320166359693
% es.EX (V/m) @ t=0.8
0.883701899203128
% es.EY (V/m) @ t=0.8
0.13231563231325166
% es.EZ (V/m) @ t=0.8
-0.8824165018742369
% es.tEX (V/m) @ t=0.8
0.8837018992031309
% es.tEY (V/m) @ t=0.8
0
% es.tEZ (V/m) @ t=0.8
-0.8824165018742187
% es.Ex (V/m) @ t=0.8
0.883701899203128
% es.Ey (V/m) @ t=0.8
0.13231563231325166
% es.Ez (V/m) @ t=0.8
-0.8824165018742369
% es.tEx (V/m) @ t=0.8
0.8837018992031309
% es.tEy (V/m) @ t=0.8
0
% es.tEz (V/m) @ t=0.8
-0.8824165018742187
% V (V) @ t=0.8
0.013624280890594113
% es.normE (V/m) @ t=0.82
1.284454330007449
% es.EX (V/m) @ t=0.82
0.8921915916164245
% es.EY (V/m) @ t=0.82
0.13358654918809398
% es.EZ (V/m) @ t=0.82
-0.8908939690478923
% es.tEX (V/m) @ t=0.82
0.8921915916164278
% es.tEY (V/m) @ t=0.82
0
% es.tEZ (V/m) @ t=0.82
-0.8908939690478741
% es.Ex (V/m) @ t=0.82
0.8921915916164245
% es.Ey (V/m) @ t=0.82
0.13358654918809398
% es.Ez (V/m) @ t=0.82
-0.8908939690478923
% es.tEx (V/m) @ t=0.82
0.8921915916164278
% es.tEy (V/m) @ t=0.82
0
% es.tEz (V/m) @ t=0.82
-0.8908939690478741
% V (V) @ t=0.82
0.013755178646754424
% es.normE (V/m) @ t=0.84
1.2966766433790293
% es.EX (V/m) @ t=0.84
0.9006812840297218
% es.EY (V/m) @ t=0.84
0.1348574660629499
% es.EZ (V/m) @ t=0.84
-0.8993714362215623
% es.tEX (V/m) @ t=0.84
0.9006812840297265
% es.tEY (V/m) @ t=0.84
0
% es.tEZ (V/m) @ t=0.84
-0.8993714362215517
% es.Ex (V/m) @ t=0.84
0.9006812840297218
% es.Ey (V/m) @ t=0.84
0.1348574660629499
% es.Ez (V/m) @ t=0.84
-0.8993714362215623
% es.tEx (V/m) @ t=0.84
0.9006812840297265
% es.tEy (V/m) @ t=0.84
0
% es.tEz (V/m) @ t=0.84
-0.8993714362215517
% V (V) @ t=0.84
0.013886076402914733
% es.normE (V/m) @ t=0.86
1.3088989567507052
% es.EX (V/m) @ t=0.86
0.9091709764430391
% es.EY (V/m) @ t=0.86
0.136128382937802
% es.EZ (V/m) @ t=0.86
-0.9078489033952324
% es.tEX (V/m) @ t=0.86
0.9091709764430402
% es.tEY (V/m) @ t=0.86
0
% es.tEZ (V/m) @ t=0.86
-0.9078489033952213
% es.Ex (V/m) @ t=0.86
0.9091709764430391
% es.Ey (V/m) @ t=0.86
0.136128382937802
% es.Ez (V/m) @ t=0.86
-0.9078489033952324
% es.tEx (V/m) @ t=0.86
0.9091709764430402
% es.tEy (V/m) @ t=0.86
0
% es.tEz (V/m) @ t=0.86
-0.9078489033952213
% V (V) @ t=0.86
0.014016974159075048
% es.normE (V/m) @ t=0.88
1.3211212701224535
% es.EX (V/m) @ t=0.88
0.9176606688563413
% es.EY (V/m) @ t=0.88
0.13739929981266946
% es.EZ (V/m) @ t=0.88
-0.9163263705688949
% es.tEX (V/m) @ t=0.88
0.917660668856346
% es.tEY (V/m) @ t=0.88
0
% es.tEZ (V/m) @ t=0.88
-0.9163263705688767
% es.Ex (V/m) @ t=0.88
0.9176606688563413
% es.Ey (V/m) @ t=0.88
0.13739929981266946
% es.Ez (V/m) @ t=0.88
-0.9163263705688949
% es.tEx (V/m) @ t=0.88
0.917660668856346
% es.tEy (V/m) @ t=0.88
0
% es.tEz (V/m) @ t=0.88
-0.9163263705688767
% V (V) @ t=0.88
0.014147871915235359
% es.normE (V/m) @ t=0.9
1.333343583494293
% es.EX (V/m) @ t=0.9
0.9261503612696449
% es.EY (V/m) @ t=0.9
0.13867021668751378
% es.EZ (V/m) @ t=0.9
-0.9248038377425751
% es.tEX (V/m) @ t=0.9
0.9261503612696425
% es.tEY (V/m) @ t=0.9
0
% es.tEZ (V/m) @ t=0.9
-0.9248038377425605
% es.Ex (V/m) @ t=0.9
0.9261503612696449
% es.Ey (V/m) @ t=0.9
0.13867021668751378
% es.Ez (V/m) @ t=0.9
-0.9248038377425751
% es.tEx (V/m) @ t=0.9
0.9261503612696425
% es.tEy (V/m) @ t=0.9
0
% es.tEz (V/m) @ t=0.9
-0.9248038377425605
% V (V) @ t=0.9
0.014278769671395667
% es.normE (V/m) @ t=0.92
1.3455658968661999
% es.EX (V/m) @ t=0.92
0.934640053682944
% es.EY (V/m) @ t=0.92
0.13994113356234655
% es.EZ (V/m) @ t=0.92
-0.9332813049162483
% es.tEX (V/m) @ t=0.92
0.9346400536829482
% es.tEY (V/m) @ t=0.92
0
% es.tEZ (V/m) @ t=0.92
-0.9332813049162301
% es.Ex (V/m) @ t=0.92
0.934640053682944
% es.Ey (V/m) @ t=0.92
0.13994113356234655
% es.Ez (V/m) @ t=0.92
-0.9332813049162483
% es.tEx (V/m) @ t=0.92
0.9346400536829482
% es.tEy (V/m) @ t=0.92
0
% es.tEz (V/m) @ t=0.92
-0.9332813049162301
% V (V) @ t=0.92
0.014409667427555981
% es.normE (V/m) @ t=0.94
1.357788210238174
% es.EX (V/m) @ t=0.94
0.9431297460962516
% es.EY (V/m) @ t=0.94
0.1412120504372193
% es.EZ (V/m) @ t=0.94
-0.9417587720898966
% es.tEX (V/m) @ t=0.94
0.9431297460962562
% es.tEY (V/m) @ t=0.94
0
% es.tEZ (V/m) @ t=0.94
-0.9417587720898783
% es.Ex (V/m) @ t=0.94
0.9431297460962516
% es.Ey (V/m) @ t=0.94
0.1412120504372193
% es.Ez (V/m) @ t=0.94
-0.9417587720898966
% es.tEx (V/m) @ t=0.94
0.9431297460962562
% es.tEy (V/m) @ t=0.94
0
% es.tEz (V/m) @ t=0.94
-0.9417587720898783
% V (V) @ t=0.94
0.014540565183716289
% es.normE (V/m) @ t=0.96
1.3700105236102398
% es.EX (V/m) @ t=0.96
0.9516194385095542
% es.EY (V/m) @ t=0.96
0.14248296731206433
% es.EZ (V/m) @ t=0.96
-0.9502362392635741
% es.tEX (V/m) @ t=0.96
0.9516194385095589
% es.tEY (V/m) @ t=0.96
0
% es.tEZ (V/m) @ t=0.96
-0.950236239263563
% es.Ex (V/m) @ t=0.96
0.9516194385095542
% es.Ey (V/m) @ t=0.96
0.14248296731206433
% es.Ez (V/m) @ t=0.96
-0.9502362392635741
% es.tEx (V/m) @ t=0.96
0.9516194385095589
% es.tEy (V/m) @ t=0.96
0
% es.tEz (V/m) @ t=0.96
-0.950236239263563
% V (V) @ t=0.96
0.0146714629398766
% es.normE (V/m) @ t=0.98
1.382232836982378
% es.EX (V/m) @ t=0.98
0.9601091309228602
% es.EY (V/m) @ t=0.98
0.14375388418691915
% es.EZ (V/m) @ t=0.98
-0.9587137064372508
% es.tEX (V/m) @ t=0.98
0.9601091309228638
% es.tEY (V/m) @ t=0.98
0
% es.tEZ (V/m) @ t=0.98
-0.9587137064372326
% es.Ex (V/m) @ t=0.98
0.9601091309228602
% es.Ey (V/m) @ t=0.98
0.14375388418691915
% es.Ez (V/m) @ t=0.98
-0.9587137064372508
% es.tEx (V/m) @ t=0.98
0.9601091309228638
% es.tEy (V/m) @ t=0.98
0
% es.tEz (V/m) @ t=0.98
-0.9587137064372326
% V (V) @ t=0.98
0.014802360696036911
% es.normE (V/m) @ t=1
1.3944551503545701
% es.EX (V/m) @ t=1
0.9685988233361653
% es.EY (V/m) @ t=1
0.14502480106179028
% es.EZ (V/m) @ t=1
-0.9671911736108991
% es.tEX (V/m) @ t=1
0.9685988233361709
% es.tEY (V/m) @ t=1
0
% es.tEZ (V/m) @ t=1
-0.967191173610888
% es.Ex (V/m) @ t=1
0.9685988233361653
% es.Ey (V/m) @ t=1
0.14502480106179028
% es.Ez (V/m) @ t=1
-0.9671911736108991
% es.tEx (V/m) @ t=1
0.9685988233361709
% es.tEy (V/m) @ t=1
0
% es.tEz (V/m) @ t=1
-0.967191173610888
% V (V) @ t=1
0.014933258452197225
% es.normE (V/m) @ t=1.02
1.4066774637268504
% es.EX (V/m) @ t=1.02
0.977088515749472
% es.EY (V/m) @ t=1.02
0.14629571793663015
% es.EZ (V/m) @ t=1.02
-0.9756686407845829
% es.tEX (V/m) @ t=1.02
0.9770885157494744
% es.tEY (V/m) @ t=1.02
0
% es.tEZ (V/m) @ t=1.02
-0.9756686407845647
% es.Ex (V/m) @ t=1.02
0.977088515749472
% es.Ey (V/m) @ t=1.02
0.14629571793663015
% es.Ez (V/m) @ t=1.02
-0.9756686407845829
% es.tEx (V/m) @ t=1.02
0.9770885157494744
% es.tEy (V/m) @ t=1.02
0
% es.tEz (V/m) @ t=1.02
-0.9756686407845647
% V (V) @ t=1.02
0.015064156208357533
% es.normE (V/m) @ t=1.04
1.4188997770991851
% es.EX (V/m) @ t=1.04
0.9855782081627782
% es.EY (V/m) @ t=1.04
0.14756663481146653
% es.EZ (V/m) @ t=1.04
-0.9841461079582454