% Model:              1 neuron.mph
% Version:            COMSOL 6.0.0.405
% Date:               Mar 16 2023, 18:21
% Dimension:          0
% Nodes:              14017
% Expressions:        14017
% Description:        Electric field norm, Electric field, X component, Electric field, Y component, Electric field, Z component, Tangential electric field, X component, Tangential electric field, Y component, Tangential electric field, Z component, Electric field, x component, Electric field, y component, Electric field, z component, Tangential electric field, x component, Tangential electric field, y component, Tangential electric field, z component, Electric potential
% Length unit:        mm
% x
1.66
% y
12.200000000000001
% z
1.66
% es.normE (V/m) @ t=0
30.856898890079005
% es.EX (V/m) @ t=0
-14.572405909938908
% es.EY (V/m) @ t=0
11.691578477686477
% es.EZ (V/m) @ t=0
14.015334198715703
% es.tEX (V/m) @ t=0
-14.572405909938936
% es.tEY (V/m) @ t=0
0
% es.tEZ (V/m) @ t=0
14.015334198715692
% es.Ex (V/m) @ t=0
-14.572405909938908
% es.Ey (V/m) @ t=0
11.691578477686477
% es.Ez (V/m) @ t=0
14.015334198715703
% es.tEx (V/m) @ t=0
-14.572405909938936
% es.tEy (V/m) @ t=0
0
% es.tEz (V/m) @ t=0
14.015334198715692
% V (V) @ t=0
0.009684304341664668
% es.normE (V/m) @ t=0.02
26.65168709904316
% es.EX (V/m) @ t=0.02
-12.586462561683526
% es.EY (V/m) @ t=0.02
10.098237428266462
% es.EZ (V/m) @ t=0.02
12.105309185501419
% es.tEX (V/m) @ t=0.02
-12.586462561683518
% es.tEY (V/m) @ t=0.02
0
% es.tEZ (V/m) @ t=0.02
12.105309185501426
% es.Ex (V/m) @ t=0.02
-12.586462561683526
% es.Ey (V/m) @ t=0.02
10.098237428266462
% es.Ez (V/m) @ t=0.02
12.105309185501419
% es.tEx (V/m) @ t=0.02
-12.586462561683518
% es.tEy (V/m) @ t=0.02
0
% es.tEz (V/m) @ t=0.02
12.105309185501426
% V (V) @ t=0.02
0.008364516797259053
% es.normE (V/m) @ t=0.04
26.89685552625921
% es.EX (V/m) @ t=0.04
-12.702245305994055
% es.EY (V/m) @ t=0.04
10.191130962742562
% es.EZ (V/m) @ t=0.04
12.216665604081584
% es.tEX (V/m) @ t=0.04
-12.702245305994047
% es.tEY (V/m) @ t=0.04
0
% es.tEZ (V/m) @ t=0.04
12.216665604081584
% es.Ex (V/m) @ t=0.04
-12.702245305994055
% es.Ey (V/m) @ t=0.04
10.191130962742562
% es.Ez (V/m) @ t=0.04
12.216665604081584
% es.tEx (V/m) @ t=0.04
-12.702245305994047
% es.tEy (V/m) @ t=0.04
0
% es.tEz (V/m) @ t=0.04
12.216665604081584
% V (V) @ t=0.04
0.008441461835608517
% es.normE (V/m) @ t=0.06
27.14397745807971
% es.EX (V/m) @ t=0.06
-12.818950780026306
% es.EY (V/m) @ t=0.06
10.284764706563482
% es.EZ (V/m) @ t=0.06
12.32890906786701
% es.tEX (V/m) @ t=0.06
-12.818950780026306
% es.tEY (V/m) @ t=0.06
0
% es.tEZ (V/m) @ t=0.06
12.328909067867016
% es.Ex (V/m) @ t=0.06
-12.818950780026306
% es.Ey (V/m) @ t=0.06
10.284764706563482
% es.Ez (V/m) @ t=0.06
12.32890906786701
% es.tEx (V/m) @ t=0.06
-12.818950780026306
% es.tEy (V/m) @ t=0.06
0
% es.tEz (V/m) @ t=0.06
12.328909067867016
% V (V) @ t=0.06
0.008519019946592698
% es.normE (V/m) @ t=0.08
27.39546473087212
% es.EX (V/m) @ t=0.08
-12.937717480932307
% es.EY (V/m) @ t=0.08
10.380052399644594
% es.EZ (V/m) @ t=0.08
12.443135768615623
% es.tEX (V/m) @ t=0.08
-12.937717480932307
% es.tEY (V/m) @ t=0.08
0
% es.tEZ (V/m) @ t=0.08
12.443135768615633
% es.Ex (V/m) @ t=0.08
-12.937717480932307
% es.Ey (V/m) @ t=0.08
10.380052399644594
% es.Ez (V/m) @ t=0.08
12.443135768615623
% es.tEx (V/m) @ t=0.08
-12.937717480932307
% es.tEy (V/m) @ t=0.08
0
% es.tEz (V/m) @ t=0.08
12.443135768615633
% V (V) @ t=0.08
0.008597948152860838
% es.normE (V/m) @ t=0.1
27.648758588817515
% es.EX (V/m) @ t=0.1
-13.057337215287689
% es.EY (V/m) @ t=0.1
10.476024575380475
% es.EZ (V/m) @ t=0.1
12.558183226889422
% es.tEX (V/m) @ t=0.1
-13.057337215287689
% es.tEY (V/m) @ t=0.1
0
% es.tEZ (V/m) @ t=0.1
12.558183226889412
% es.Ex (V/m) @ t=0.1
-13.057337215287689
% es.Ey (V/m) @ t=0.1
10.476024575380475
% es.Ez (V/m) @ t=0.1
12.558183226889422
% es.tEx (V/m) @ t=0.1
-13.057337215287689
% es.tEy (V/m) @ t=0.1
0
% es.tEz (V/m) @ t=0.1
12.558183226889412
% V (V) @ t=0.1
0.008677443369544447
% es.normE (V/m) @ t=0.12
27.90205244676289
% es.EX (V/m) @ t=0.12
-13.176956949643092
% es.EY (V/m) @ t=0.12
10.571996751116327
% es.EZ (V/m) @ t=0.12
12.673230685163155
% es.tEX (V/m) @ t=0.12
-13.176956949643099
% es.tEY (V/m) @ t=0.12
0
% es.tEZ (V/m) @ t=0.12
12.67323068516319
% es.Ex (V/m) @ t=0.12
-13.176956949643092
% es.Ey (V/m) @ t=0.12
10.571996751116327
% es.Ez (V/m) @ t=0.12
12.673230685163155
% es.tEx (V/m) @ t=0.12
-13.176956949643099
% es.tEy (V/m) @ t=0.12
0
% es.tEz (V/m) @ t=0.12
12.67323068516319
% V (V) @ t=0.12
0.008756938586228058
% es.normE (V/m) @ t=0.14
28.16086969707162
% es.EX (V/m) @ t=0.14
-13.299185241135397
% es.EY (V/m) @ t=0.14
10.6700617396626
% es.EZ (V/m) @ t=0.14
12.790786760239385
% es.tEX (V/m) @ t=0.14
-13.299185241135405
% es.tEY (V/m) @ t=0.14
0
% es.tEZ (V/m) @ t=0.14
12.79078676023937
% es.Ex (V/m) @ t=0.14
-13.299185241135397
% es.Ey (V/m) @ t=0.14
10.6700617396626
% es.Ez (V/m) @ t=0.14
12.790786760239385
% es.tEx (V/m) @ t=0.14
-13.299185241135405
% es.tEy (V/m) @ t=0.14
0
% es.tEz (V/m) @ t=0.14
12.79078676023937
% V (V) @ t=0.14
0.008838167281441118
% es.normE (V/m) @ t=0.16
28.427184336590713
% es.EX (V/m) @ t=0.16
-13.42495435805641
% es.EY (V/m) @ t=0.16
10.770967488225846
% es.EZ (V/m) @ t=0.16
12.911748002884863
% es.tEX (V/m) @ t=0.16
-13.424954358056397
% es.tEY (V/m) @ t=0.16
0
% es.tEZ (V/m) @ t=0.16
12.911748002884849
% es.Ex (V/m) @ t=0.16
-13.42495435805641
% es.Ey (V/m) @ t=0.16
10.770967488225846
% es.Ez (V/m) @ t=0.16
12.911748002884863
% es.tEx (V/m) @ t=0.16
-13.424954358056397
% es.tEy (V/m) @ t=0.16
0
% es.tEz (V/m) @ t=0.16
12.911748002884849
% V (V) @ t=0.16
0.008921748980454756
% es.normE (V/m) @ t=0.18
28.693498976109712
% es.EX (V/m) @ t=0.18
-13.550723474977417
% es.EY (V/m) @ t=0.18
10.871873236789085
% es.EZ (V/m) @ t=0.18
13.032709245530299
% es.tEX (V/m) @ t=0.18
-13.550723474977417
% es.tEY (V/m) @ t=0.18
0
% es.tEZ (V/m) @ t=0.18
13.032709245530299
% es.Ex (V/m) @ t=0.18
-13.550723474977417
% es.Ey (V/m) @ t=0.18
10.871873236789085
% es.Ez (V/m) @ t=0.18
13.032709245530299
% es.tEx (V/m) @ t=0.18
-13.550723474977417
% es.tEy (V/m) @ t=0.18
0
% es.tEz (V/m) @ t=0.18
13.032709245530299
% V (V) @ t=0.18
0.009005330679468395
% es.normE (V/m) @ t=0.2
28.959813615628853
% es.EX (V/m) @ t=0.2
-13.676492591898473
% es.EY (V/m) @ t=0.2
10.972778985352257
% es.EZ (V/m) @ t=0.2
13.153670488175827
% es.tEX (V/m) @ t=0.2
-13.67649259189843
% es.tEY (V/m) @ t=0.2
0
% es.tEZ (V/m) @ t=0.2
13.153670488175862
% es.Ex (V/m) @ t=0.2
-13.676492591898473
% es.Ey (V/m) @ t=0.2
10.972778985352257
% es.Ez (V/m) @ t=0.2
13.153670488175827
% es.tEx (V/m) @ t=0.2
-13.67649259189843
% es.tEy (V/m) @ t=0.2
0
% es.tEz (V/m) @ t=0.2
13.153670488175862
% V (V) @ t=0.2
0.009088912378482033
% es.normE (V/m) @ t=0.22
29.226128255147927
% es.EX (V/m) @ t=0.22
-13.802261708819465
% es.EY (V/m) @ t=0.22
11.07368473391551
% es.EZ (V/m) @ t=0.22
13.274631730821284
% es.tEX (V/m) @ t=0.22
-13.802261708819486
% es.tEY (V/m) @ t=0.22
0
% es.tEZ (V/m) @ t=0.22
13.274631730821312
% es.Ex (V/m) @ t=0.22
-13.802261708819465
% es.Ey (V/m) @ t=0.22
11.07368473391551
% es.Ez (V/m) @ t=0.22
13.274631730821284
% es.tEx (V/m) @ t=0.22
-13.802261708819486
% es.tEy (V/m) @ t=0.22
0
% es.tEz (V/m) @ t=0.22
13.274631730821312
% V (V) @ t=0.22
0.009172494077495673
% es.normE (V/m) @ t=0.24
29.492442894666965
% es.EX (V/m) @ t=0.24
-13.928030825740493
% es.EY (V/m) @ t=0.24
11.174590482478767
% es.EZ (V/m) @ t=0.24
13.39559297346674
% es.tEX (V/m) @ t=0.24
-13.9280308257405
% es.tEY (V/m) @ t=0.24
0
% es.tEZ (V/m) @ t=0.24
13.395592973466705
% es.Ex (V/m) @ t=0.24
-13.928030825740493
% es.Ey (V/m) @ t=0.24
11.174590482478767
% es.Ez (V/m) @ t=0.24
13.39559297346674
% es.tEx (V/m) @ t=0.24
-13.9280308257405
% es.tEy (V/m) @ t=0.24
0
% es.tEz (V/m) @ t=0.24
13.395592973466705
% V (V) @ t=0.24
0.00925607577650931
% es.normE (V/m) @ t=0.26
29.758757534185975
% es.EX (V/m) @ t=0.26
-14.053799942661485
% es.EY (V/m) @ t=0.26
11.27549623104197
% es.EZ (V/m) @ t=0.26
13.516554216112155
% es.tEX (V/m) @ t=0.26
-14.053799942661477
% es.tEY (V/m) @ t=0.26
0
% es.tEZ (V/m) @ t=0.26
13.516554216112183
% es.Ex (V/m) @ t=0.26
-14.053799942661485
% es.Ey (V/m) @ t=0.26
11.27549623104197
% es.Ez (V/m) @ t=0.26
13.516554216112155
% es.tEx (V/m) @ t=0.26
-14.053799942661477
% es.tEy (V/m) @ t=0.26
0
% es.tEz (V/m) @ t=0.26
13.516554216112183
% V (V) @ t=0.26
0.009339657475522949
% es.normE (V/m) @ t=0.28
30.050097407184218
% es.EX (V/m) @ t=0.28
-14.191386985299303
% es.EY (V/m) @ t=0.28
11.385883875284811
% es.EZ (V/m) @ t=0.28
13.64888263396001
% es.tEX (V/m) @ t=0.28
-14.191386985299275
% es.tEY (V/m) @ t=0.28
0
% es.tEZ (V/m) @ t=0.28
13.648882633960028
% es.Ex (V/m) @ t=0.28
-14.191386985299303
% es.Ey (V/m) @ t=0.28
11.385883875284811
% es.Ez (V/m) @ t=0.28
13.64888263396001
% es.tEx (V/m) @ t=0.28
-14.191386985299275
% es.tEy (V/m) @ t=0.28
0
% es.tEz (V/m) @ t=0.28
13.648882633960028
% V (V) @ t=0.28
0.009431093304737138
% es.normE (V/m) @ t=0.3
30.34557847993377
% es.EX (V/m) @ t=0.3
-14.330929669672926
% es.EY (V/m) @ t=0.3
11.497840592761875
% es.EZ (V/m) @ t=0.3
13.783092102914097
% es.tEX (V/m) @ t=0.3
-14.330929669672933
% es.tEY (V/m) @ t=0.3
0
% es.tEZ (V/m) @ t=0.3
13.783092102914111
% es.Ex (V/m) @ t=0.3
-14.330929669672926
% es.Ey (V/m) @ t=0.3
11.497840592761875
% es.Ez (V/m) @ t=0.3
13.783092102914097
% es.tEx (V/m) @ t=0.3
-14.330929669672933
% es.tEy (V/m) @ t=0.3
0
% es.tEz (V/m) @ t=0.3
13.783092102914111
% V (V) @ t=0.3
0.009523828842985426
% es.normE (V/m) @ t=0.32
30.641059552683334
% es.EX (V/m) @ t=0.32
-14.47047235404655
% es.EY (V/m) @ t=0.32
11.609797310238882
% es.EZ (V/m) @ t=0.32
13.917301571868169
% es.tEX (V/m) @ t=0.32
-14.470472354046535
% es.tEY (V/m) @ t=0.32
0
% es.tEZ (V/m) @ t=0.32
13.917301571868165
% es.Ex (V/m) @ t=0.32
-14.47047235404655
% es.Ey (V/m) @ t=0.32
11.609797310238882
% es.Ez (V/m) @ t=0.32
13.917301571868169
% es.tEx (V/m) @ t=0.32
-14.470472354046535
% es.tEy (V/m) @ t=0.32
0
% es.tEz (V/m) @ t=0.32
13.917301571868165
% V (V) @ t=0.32
0.009616564381233709
% es.normE (V/m) @ t=0.34
30.93654062543294
% es.EX (V/m) @ t=0.34
-14.610015038420187
% es.EY (V/m) @ t=0.34
11.721754027715896
% es.EZ (V/m) @ t=0.34
14.051511040822298
% es.tEX (V/m) @ t=0.34
-14.610015038420173
% es.tEY (V/m) @ t=0.34
0
% es.tEZ (V/m) @ t=0.34
14.051511040822277
% es.Ex (V/m) @ t=0.34
-14.610015038420187
% es.Ey (V/m) @ t=0.34
11.721754027715896
% es.Ez (V/m) @ t=0.34
14.051511040822298
% es.tEx (V/m) @ t=0.34
-14.610015038420173
% es.tEy (V/m) @ t=0.34
0
% es.tEz (V/m) @ t=0.34
14.051511040822277
% V (V) @ t=0.34
0.009709299919481995
% es.normE (V/m) @ t=0.36
31.232021698182585
% es.EX (V/m) @ t=0.36
-14.749557722793796
% es.EY (V/m) @ t=0.36
11.833710745192967
% es.EZ (V/m) @ t=0.36
14.185720509776392
% es.tEX (V/m) @ t=0.36
-14.749557722793803
% es.tEY (V/m) @ t=0.36
0
% es.tEZ (V/m) @ t=0.36
14.185720509776417
% es.Ex (V/m) @ t=0.36
-14.749557722793796
% es.Ey (V/m) @ t=0.36
11.833710745192967
% es.Ez (V/m) @ t=0.36
14.185720509776392
% es.tEx (V/m) @ t=0.36
-14.749557722793803
% es.tEy (V/m) @ t=0.36
0
% es.tEz (V/m) @ t=0.36
14.185720509776417
% V (V) @ t=0.36
0.009802035457730281
% es.normE (V/m) @ t=0.38
31.527502770932223
% es.EX (V/m) @ t=0.38
-14.889100407167433
% es.EY (V/m) @ t=0.38
11.945667462669995
% es.EZ (V/m) @ t=0.38
14.31992997873051
% es.tEX (V/m) @ t=0.38
-14.889100407167419
% es.tEY (V/m) @ t=0.38
0
% es.tEZ (V/m) @ t=0.38
14.3199299787305
% es.Ex (V/m) @ t=0.38
-14.889100407167433
% es.Ey (V/m) @ t=0.38
11.945667462669995
% es.Ez (V/m) @ t=0.38
14.31992997873051
% es.tEx (V/m) @ t=0.38
-14.889100407167419
% es.tEy (V/m) @ t=0.38
0
% es.tEz (V/m) @ t=0.38
14.3199299787305
% V (V) @ t=0.38
0.009894770995978568
% es.normE (V/m) @ t=0.4
31.822983843681875
% es.EX (V/m) @ t=0.4
-15.02864309154102
% es.EY (V/m) @ t=0.4
12.057624180147009
% es.EZ (V/m) @ t=0.4
14.454139447684568
% es.tEX (V/m) @ t=0.4
-15.02864309154102
% es.tEY (V/m) @ t=0.4
0
% es.tEZ (V/m) @ t=0.4
14.454139447684554
% es.Ex (V/m) @ t=0.4
-15.02864309154102
% es.Ey (V/m) @ t=0.4
12.057624180147009
% es.Ez (V/m) @ t=0.4
14.454139447684568
% es.tEx (V/m) @ t=0.4
-15.02864309154102
% es.tEy (V/m) @ t=0.4
0
% es.tEz (V/m) @ t=0.4
14.454139447684554
% V (V) @ t=0.4
0.009987506534226852
% es.normE (V/m) @ t=0.42
32.118464916431634
% es.EX (V/m) @ t=0.42
-15.16818577591468
% es.EY (V/m) @ t=0.42
12.169580897624073
% es.EZ (V/m) @ t=0.42
14.588348916638711
% es.tEX (V/m) @ t=0.42
-15.1681857759147
% es.tEY (V/m) @ t=0.42
0
% es.tEZ (V/m) @ t=0.42
14.588348916638694
% es.Ex (V/m) @ t=0.42
-15.16818577591468
% es.Ey (V/m) @ t=0.42
12.169580897624073
% es.Ez (V/m) @ t=0.42
14.588348916638711
% es.tEx (V/m) @ t=0.42
-15.1681857759147
% es.tEy (V/m) @ t=0.42
0
% es.tEz (V/m) @ t=0.42
14.588348916638694
% V (V) @ t=0.42
0.010080242072475138
% es.normE (V/m) @ t=0.44
32.41394598918135
% es.EX (V/m) @ t=0.44
-15.307728460288331
% es.EY (V/m) @ t=0.44
12.281537615101058
% es.EZ (V/m) @ t=0.44
14.722558385592798
% es.tEX (V/m) @ t=0.44
-15.307728460288288
% es.tEY (V/m) @ t=0.44
0
% es.tEZ (V/m) @ t=0.44
14.722558385592748
% es.Ex (V/m) @ t=0.44
-15.307728460288331
% es.Ey (V/m) @ t=0.44
12.281537615101058
% es.Ez (V/m) @ t=0.44
14.722558385592798
% es.tEx (V/m) @ t=0.44
-15.307728460288288
% es.tEy (V/m) @ t=0.44
0
% es.tEz (V/m) @ t=0.44
14.722558385592748
% V (V) @ t=0.44
0.010172977610723425
% es.normE (V/m) @ t=0.46
32.709427061931
% es.EX (V/m) @ t=0.46
-15.447271144661869
% es.EY (V/m) @ t=0.46
12.393494332578129
% es.EZ (V/m) @ t=0.46
14.856767854546888
% es.tEX (V/m) @ t=0.46
-15.447271144661876
% es.tEY (V/m) @ t=0.46
0
% es.tEZ (V/m) @ t=0.46
14.85676785454686
% es.Ex (V/m) @ t=0.46
-15.447271144661869
% es.Ey (V/m) @ t=0.46
12.393494332578129
% es.Ez (V/m) @ t=0.46
14.856767854546888
% es.tEx (V/m) @ t=0.46
-15.447271144661876
% es.tEy (V/m) @ t=0.46
0
% es.tEz (V/m) @ t=0.46
14.85676785454686
% V (V) @ t=0.46
0.01026571314897171
% es.normE (V/m) @ t=0.48
33.004908134680825
% es.EX (V/m) @ t=0.48
-15.586813829035535
% es.EY (V/m) @ t=0.48
12.50545105005515
% es.EZ (V/m) @ t=0.48
14.990977323501006
% es.tEX (V/m) @ t=0.48
-15.586813829035542
% es.tEY (V/m) @ t=0.48
0
% es.tEZ (V/m) @ t=0.48
14.990977323501
% es.Ex (V/m) @ t=0.48
-15.586813829035535
% es.Ey (V/m) @ t=0.48
12.50545105005515
% es.Ez (V/m) @ t=0.48
14.990977323501006
% es.tEx (V/m) @ t=0.48
-15.586813829035542
% es.tEy (V/m) @ t=0.48
0
% es.tEz (V/m) @ t=0.48
14.990977323501
% V (V) @ t=0.48
0.010358448687219995
% es.normE (V/m) @ t=0.5
33.30038920743063
% es.EX (V/m) @ t=0.5
-15.726356513409158
% es.EY (V/m) @ t=0.5
12.617407767532164
% es.EZ (V/m) @ t=0.5
15.125186792455104
% es.tEX (V/m) @ t=0.5
-15.726356513409172
% es.tEY (V/m) @ t=0.5
0
% es.tEZ (V/m) @ t=0.5
15.125186792455139
% es.Ex (V/m) @ t=0.5
-15.726356513409158
% es.Ey (V/m) @ t=0.5
12.617407767532164
% es.Ez (V/m) @ t=0.5
15.125186792455104
% es.tEx (V/m) @ t=0.5
-15.726356513409172
% es.tEy (V/m) @ t=0.5
0
% es.tEz (V/m) @ t=0.5
15.125186792455139
% V (V) @ t=0.5
0.010451184225468282
% es.normE (V/m) @ t=0.52
33.595870280180414
% es.EX (V/m) @ t=0.52
-15.865899197782781
% es.EY (V/m) @ t=0.52
12.729364485009235
% es.EZ (V/m) @ t=0.52
15.259396261409194
% es.tEX (V/m) @ t=0.52
-15.865899197782788
% es.tEY (V/m) @ t=0.52
0
% es.tEZ (V/m) @ t=0.52
15.259396261409194
% es.Ex (V/m) @ t=0.52
-15.865899197782781
% es.Ey (V/m) @ t=0.52
12.729364485009235
% es.Ez (V/m) @ t=0.52
15.259396261409194
% es.tEx (V/m) @ t=0.52
-15.865899197782788
% es.tEy (V/m) @ t=0.52
0
% es.tEz (V/m) @ t=0.52
15.259396261409194
% V (V) @ t=0.52
0.010543919763716568
% es.normE (V/m) @ t=0.54
33.91522554718653
% es.EX (V/m) @ t=0.54
-16.016716758268828
% es.EY (V/m) @ t=0.54
12.850367078184519
% es.EZ (V/m) @ t=0.54
15.404449342855663
% es.tEX (V/m) @ t=0.54
-16.016716758268828
% es.tEY (V/m) @ t=0.54
0
% es.tEZ (V/m) @ t=0.54
15.404449342855685
% es.Ex (V/m) @ t=0.54
-16.016716758268828
% es.Ey (V/m) @ t=0.54
12.850367078184519
% es.Ez (V/m) @ t=0.54
15.404449342855663
% es.tEx (V/m) @ t=0.54
-16.016716758268828
% es.tEy (V/m) @ t=0.54
0
% es.tEz (V/m) @ t=0.54
15.404449342855685
% V (V) @ t=0.54
0.01064414809689521
% es.normE (V/m) @ t=0.56
34.24360712877157
% es.EX (V/m) @ t=0.56
-16.17179710465402
% es.EY (V/m) @ t=0.56
12.974789720590252
% es.EZ (V/m) @ t=0.56
15.553602158788493
% es.tEX (V/m) @ t=0.56
-16.17179710465401
% es.tEY (V/m) @ t=0.56
0
% es.tEZ (V/m) @ t=0.56
15.553602158788493
% es.Ex (V/m) @ t=0.56
-16.17179710465402
% es.Ey (V/m) @ t=0.56
12.974789720590252
% es.Ez (V/m) @ t=0.56
15.553602158788493
% es.tEx (V/m) @ t=0.56
-16.17179710465401
% es.tEy (V/m) @ t=0.56
0
% es.tEz (V/m) @ t=0.56
15.553602158788493
% V (V) @ t=0.56
0.010747209293180807
% es.normE (V/m) @ t=0.58
34.57198871035663
% es.EX (V/m) @ t=0.58
-16.326877451039266
% es.EY (V/m) @ t=0.58
13.099212362995914
% es.EZ (V/m) @ t=0.58
15.702754974721344
% es.tEX (V/m) @ t=0.58
-16.326877451039238
% es.tEY (V/m) @ t=0.58
0
% es.tEZ (V/m) @ t=0.58
15.702754974721302
% es.Ex (V/m) @ t=0.58
-16.326877451039266
% es.Ey (V/m) @ t=0.58
13.099212362995914
% es.Ez (V/m) @ t=0.58
15.702754974721344
% es.tEx (V/m) @ t=0.58
-16.326877451039238
% es.tEy (V/m) @ t=0.58
0
% es.tEz (V/m) @ t=0.58
15.702754974721302
% V (V) @ t=0.58
0.010850270489466409
% es.normE (V/m) @ t=0.6
34.90037029194161
% es.EX (V/m) @ t=0.6
-16.481957797424457
% es.EY (V/m) @ t=0.6
13.223635005401661
% es.EZ (V/m) @ t=0.6
15.85190779065416
% es.tEX (V/m) @ t=0.6
-16.481957797424457
% es.tEY (V/m) @ t=0.6
0
% es.tEZ (V/m) @ t=0.6
15.851907790654195
% es.Ex (V/m) @ t=0.6
-16.481957797424457
% es.Ey (V/m) @ t=0.6
13.223635005401661
% es.Ez (V/m) @ t=0.6
15.85190779065416
% es.tEx (V/m) @ t=0.6
-16.481957797424457
% es.tEy (V/m) @ t=0.6
0
% es.tEz (V/m) @ t=0.6
15.851907790654195
% V (V) @ t=0.6
0.010953331685752004
% es.normE (V/m) @ t=0.62
35.22875187352664
% es.EX (V/m) @ t=0.62
-16.637038143809647
% es.EY (V/m) @ t=0.62
13.348057647807366
% es.EZ (V/m) @ t=0.62
16.00106060658701
% es.tEX (V/m) @ t=0.62
-16.637038143809654
% es.tEY (V/m) @ t=0.62
0
% es.tEZ (V/m) @ t=0.62
16.001060606586975
% es.Ex (V/m) @ t=0.62
-16.637038143809647
% es.Ey (V/m) @ t=0.62
13.348057647807366
% es.Ez (V/m) @ t=0.62
16.00106060658701
% es.tEx (V/m) @ t=0.62
-16.637038143809654
% es.tEy (V/m) @ t=0.62
0
% es.tEz (V/m) @ t=0.62
16.001060606586975
% V (V) @ t=0.62
0.011056392882037604
% es.normE (V/m) @ t=0.64
35.55713345511174
% es.EX (V/m) @ t=0.64
-16.792118490194866
% es.EY (V/m) @ t=0.64
13.472480290213035
% es.EZ (V/m) @ t=0.64
16.15021342251989
% es.tEX (V/m) @ t=0.64
-16.792118490194866
% es.tEY (V/m) @ t=0.64
0
% es.tEZ (V/m) @ t=0.64
16.15021342251987
% es.Ex (V/m) @ t=0.64
-16.792118490194866
% es.Ey (V/m) @ t=0.64
13.472480290213035
% es.Ez (V/m) @ t=0.64
16.15021342251989
% es.tEx (V/m) @ t=0.64
-16.792118490194866
% es.tEy (V/m) @ t=0.64
0
% es.tEz (V/m) @ t=0.64
16.15021342251987
% V (V) @ t=0.64
0.011159454078323201
% es.normE (V/m) @ t=0.66
35.88551503669691
% es.EX (V/m) @ t=0.66
-16.947198836580142
% es.EY (V/m) @ t=0.66
13.596902932618768
% es.EZ (V/m) @ t=0.66
16.299366238452784
% es.tEX (V/m) @ t=0.66
-16.947198836580107
% es.tEY (V/m) @ t=0.66
0
% es.tEZ (V/m) @ t=0.66
16.299366238452762
% es.Ex (V/m) @ t=0.66
-16.947198836580142
% es.Ey (V/m) @ t=0.66
13.596902932618768
% es.Ez (V/m) @ t=0.66
16.299366238452784
% es.tEx (V/m) @ t=0.66
-16.947198836580107
% es.tEy (V/m) @ t=0.66
0
% es.tEz (V/m) @ t=0.66
16.299366238452762
% V (V) @ t=0.66
0.0112625152746088
% es.normE (V/m) @ t=0.68
36.213896618281936
% es.EX (V/m) @ t=0.68
-17.10227918296532
% es.EY (V/m) @ t=0.68
13.721325575024501
% es.EZ (V/m) @ t=0.68
16.448519054385606
% es.tEX (V/m) @ t=0.68
-17.102279182965347
% es.tEY (V/m) @ t=0.68
0
% es.tEZ (V/m) @ t=0.68
16.4485190543856
% es.Ex (V/m) @ t=0.68
-17.10227918296532
% es.Ey (V/m) @ t=0.68
13.721325575024501
% es.Ez (V/m) @ t=0.68
16.448519054385606
% es.tEx (V/m) @ t=0.68
-17.102279182965347
% es.tEy (V/m) @ t=0.68
0
% es.tEz (V/m) @ t=0.68
16.4485190543856
% V (V) @ t=0.68
0.011365576470894399
% es.normE (V/m) @ t=0.7
36.542278199867006
% es.EX (V/m) @ t=0.7
-17.257359529350538
% es.EY (V/m) @ t=0.7
13.8457482174301
% es.EZ (V/m) @ t=0.7
16.597671870318457
% es.tEX (V/m) @ t=0.7
-17.257359529350524
% es.tEY (V/m) @ t=0.7
0
% es.tEZ (V/m) @ t=0.7
16.597671870318436
% es.Ex (V/m) @ t=0.7
-17.257359529350538
% es.Ey (V/m) @ t=0.7
13.8457482174301
% es.Ez (V/m) @ t=0.7
16.597671870318457
% es.tEx (V/m) @ t=0.7
-17.257359529350524
% es.tEy (V/m) @ t=0.7
0
% es.tEz (V/m) @ t=0.7
16.597671870318436
% V (V) @ t=0.7
0.011468637667179997
% es.normE (V/m) @ t=0.72
36.870659781452076
% es.EX (V/m) @ t=0.72
-17.41243987573573
% es.EY (V/m) @ t=0.72
13.97017085983589
% es.EZ (V/m) @ t=0.72
16.7468246862513
% es.tEX (V/m) @ t=0.72
-17.41243987573572
% es.tEY (V/m) @ t=0.72
0
% es.tEZ (V/m) @ t=0.72
16.74682468625133
% es.Ex (V/m) @ t=0.72
-17.41243987573573
% es.Ey (V/m) @ t=0.72
13.97017085983589
% es.Ez (V/m) @ t=0.72
16.7468246862513
% es.tEx (V/m) @ t=0.72
-17.41243987573572
% es.tEy (V/m) @ t=0.72
0
% es.tEz (V/m) @ t=0.72
16.74682468625133
% V (V) @ t=0.72
0.011571698863465596
% es.normE (V/m) @ t=0.74
37.19904136303721
% es.EX (V/m) @ t=0.74
-17.56752022212096
% es.EY (V/m) @ t=0.74
14.094593502241608
% es.EZ (V/m) @ t=0.74
16.89597750218421
% es.tEX (V/m) @ t=0.74
-17.567520222120983
% es.tEY (V/m) @ t=0.74
0
% es.tEZ (V/m) @ t=0.74
16.895977502184166
% es.Ex (V/m) @ t=0.74
-17.56752022212096
% es.Ey (V/m) @ t=0.74
14.094593502241608
% es.Ez (V/m) @ t=0.74
16.89597750218421
% es.tEx (V/m) @ t=0.74
-17.567520222120983
% es.tEy (V/m) @ t=0.74
0
% es.tEz (V/m) @ t=0.74
16.895977502184166
% V (V) @ t=0.74
0.011674760059751193
% es.normE (V/m) @ t=0.76
37.5274229446223
% es.EX (V/m) @ t=0.76
-17.722600568506124
% es.EY (V/m) @ t=0.76
14.219016144647306
% es.EZ (V/m) @ t=0.76
17.04513031811703
% es.tEX (V/m) @ t=0.76
-17.722600568506152
% es.tEY (V/m) @ t=0.76
0
% es.tEZ (V/m) @ t=0.76
17.04513031811706
% es.Ex (V/m) @ t=0.76
-17.722600568506124
% es.Ey (V/m) @ t=0.76
14.219016144647306
% es.Ez (V/m) @ t=0.76
17.04513031811703
% es.tEx (V/m) @ t=0.76
-17.722600568506152
% es.tEy (V/m) @ t=0.76
0
% es.tEz (V/m) @ t=0.76
17.04513031811706
% V (V) @ t=0.76
0.011777821256036793
% es.normE (V/m) @ t=0.78
37.85580452620741
% es.EX (V/m) @ t=0.78
-17.877680914891357
% es.EY (V/m) @ t=0.78
14.343438787052968
% es.EZ (V/m) @ t=0.78
17.194283134049876
% es.tEX (V/m) @ t=0.78
-17.87768091489133
% es.tEY (V/m) @ t=0.78
0
% es.tEZ (V/m) @ t=0.78
17.194283134049897
% es.Ex (V/m) @ t=0.78
-17.877680914891357
% es.Ey (V/m) @ t=0.78
14.343438787052968
% es.Ez (V/m) @ t=0.78
17.194283134049876
% es.tEx (V/m) @ t=0.78
-17.87768091489133
% es.tEy (V/m) @ t=0.78
0
% es.tEz (V/m) @ t=0.78
17.194283134049897
% V (V) @ t=0.78
0.01188088245232239
% es.normE (V/m) @ t=0.8
38.206245623659626
% es.EX (V/m) @ t=0.8
-18.043179084809168
% es.EY (V/m) @ t=0.8
14.476219717552873
% es.EZ (V/m) @ t=0.8
17.353455406490994
% es.tEX (V/m) @ t=0.8
-18.043179084809168
% es.tEY (V/m) @ t=0.8
0
% es.tEZ (V/m) @ t=0.8
17.35345540649098
% es.Ex (V/m) @ t=0.8
-18.043179084809168
% es.Ey (V/m) @ t=0.8
14.476219717552873
% es.Ez (V/m) @ t=0.8
17.353455406490994
% es.tEx (V/m) @ t=0.8
-18.043179084809168
% es.tEy (V/m) @ t=0.8
0
% es.tEz (V/m) @ t=0.8
17.35345540649098
% V (V) @ t=0.8
0.011990866924649679
% es.normE (V/m) @ t=0.82
38.571809413938524
% es.EX (V/m) @ t=0.82
-18.21581909528956
% es.EY (V/m) @ t=0.82
14.614730593540365
% es.EZ (V/m) @ t=0.82
17.51949642274225
% es.tEX (V/m) @ t=0.82
-18.21581909528956
% es.tEY (V/m) @ t=0.82
0
% es.tEZ (V/m) @ t=0.82
17.519496422742236
% es.Ex (V/m) @ t=0.82
-18.21581909528956
% es.Ey (V/m) @ t=0.82
14.614730593540365
% es.Ez (V/m) @ t=0.82
17.51949642274225
% es.tEx (V/m) @ t=0.82
-18.21581909528956
% es.tEy (V/m) @ t=0.82
0
% es.tEz (V/m) @ t=0.82
17.519496422742236
% V (V) @ t=0.82
0.01210559758350088
% es.normE (V/m) @ t=0.84
38.9373732042173
% es.EX (V/m) @ t=0.84
-18.38845910576984
% es.EY (V/m) @ t=0.84
14.753241469527936
% es.EZ (V/m) @ t=0.84
17.685537438993407
% es.tEX (V/m) @ t=0.84
-18.38845910576981
% es.tEY (V/m) @ t=0.84
0
% es.tEZ (V/m) @ t=0.84
17.68553743899338
% es.Ex (V/m) @ t=0.84
-18.38845910576984
% es.Ey (V/m) @ t=0.84
14.753241469527936
% es.Ez (V/m) @ t=0.84
17.685537438993407
% es.tEx (V/m) @ t=0.84
-18.38845910576981
% es.tEy (V/m) @ t=0.84
0
% es.tEz (V/m) @ t=0.84
17.68553743899338
% V (V) @ t=0.84
0.012220328242352082
% es.normE (V/m) @ t=0.86
39.302936994496136
% es.EX (V/m) @ t=0.86
-18.56109911625009
% es.EY (V/m) @ t=0.86
14.891752345515378
% es.EZ (V/m) @ t=0.86
17.851578455244642
% es.tEX (V/m) @ t=0.86
-18.56109911625012
% es.tEY (V/m) @ t=0.86
0
% es.tEZ (V/m) @ t=0.86
17.851578455244635
% es.Ex (V/m) @ t=0.86
-18.56109911625009
% es.Ey (V/m) @ t=0.86
14.891752345515378
% es.Ez (V/m) @ t=0.86
17.851578455244642
% es.tEx (V/m) @ t=0.86
-18.56109911625012
% es.tEy (V/m) @ t=0.86
0
% es.tEz (V/m) @ t=0.86
17.851578455244635
% V (V) @ t=0.86
0.01233505890120328
% es.normE (V/m) @ t=0.88
39.668500784774984
% es.EX (V/m) @ t=0.88
-18.7337391267304
% es.EY (V/m) @ t=0.88
15.030263221503013
% es.EZ (V/m) @ t=0.88
18.0176194714958
% es.tEX (V/m) @ t=0.88
-18.733739126730384
% es.tEY (V/m) @ t=0.88
0
% es.tEZ (V/m) @ t=0.88
18.017619471495777
% es.Ex (V/m) @ t=0.88
-18.7337391267304
% es.Ey (V/m) @ t=0.88
15.030263221503013
% es.Ez (V/m) @ t=0.88
18.0176194714958
% es.tEx (V/m) @ t=0.88
-18.733739126730384
% es.tEy (V/m) @ t=0.88
0
% es.tEz (V/m) @ t=0.88
18.017619471495777
% V (V) @ t=0.88
0.012449789560054481
% es.normE (V/m) @ t=0.9
40.034064575053904
% es.EX (V/m) @ t=0.9
-18.906379137210763
% es.EY (V/m) @ t=0.9
15.168774097490505
% es.EZ (V/m) @ t=0.9
18.183660487747048
% es.tEX (V/m) @ t=0.9
-18.90637913721074
% es.tEY (V/m) @ t=0.9
0
% es.tEZ (V/m) @ t=0.9
18.183660487747034
% es.Ex (V/m) @ t=0.9
-18.906379137210763
% es.Ey (V/m) @ t=0.9
15.168774097490505
% es.Ez (V/m) @ t=0.9
18.183660487747048
% es.tEx (V/m) @ t=0.9
-18.90637913721074
% es.tEy (V/m) @ t=0.9
0
% es.tEz (V/m) @ t=0.9
18.183660487747034
% V (V) @ t=0.9
0.012564520218905683
% es.normE (V/m) @ t=0.92
40.39962836533267
% es.EX (V/m) @ t=0.92
-19.079019147691
% es.EY (V/m) @ t=0.92
15.307284973478012
% es.EZ (V/m) @ t=0.92
18.349701503998226
% es.tEX (V/m) @ t=0.92
-19.079019147691056
% es.tEY (V/m) @ t=0.92
0
% es.tEZ (V/m) @ t=0.92
18.349701503998233
% es.Ex (V/m) @ t=0.92
-19.079019147691
% es.Ey (V/m) @ t=0.92
15.307284973478012
% es.Ez (V/m) @ t=0.92
18.349701503998226
% es.tEx (V/m) @ t=0.92
-19.079019147691056
% es.tEy (V/m) @ t=0.92
0
% es.tEz (V/m) @ t=0.92
18.349701503998233
% V (V) @ t=0.92
0.012679250877756882
% es.normE (V/m) @ t=0.94
40.76519215561157
% es.EX (V/m) @ t=0.94
-19.251659158171265
% es.EY (V/m) @ t=0.94
15.445795849465611
% es.EZ (V/m) @ t=0.94
18.515742520249454
% es.tEX (V/m) @ t=0.94
-19.251659158171293
% es.tEY (V/m) @ t=0.94
0
% es.tEZ (V/m) @ t=0.94
18.515742520249432
% es.Ex (V/m) @ t=0.94
-19.251659158171265
% es.Ey (V/m) @ t=0.94
15.445795849465611
% es.Ez (V/m) @ t=0.94
18.515742520249454
% es.tEx (V/m) @ t=0.94
-19.251659158171293
% es.tEy (V/m) @ t=0.94
0
% es.tEz (V/m) @ t=0.94
18.515742520249432
% V (V) @ t=0.94
0.01279398153660808
% es.normE (V/m) @ t=0.96
41.1307559458905
% es.EX (V/m) @ t=0.96
-19.424299168651686
% es.EY (V/m) @ t=0.96
15.58430672545309
% es.EZ (V/m) @ t=0.96
18.681783536500767
% es.tEX (V/m) @ t=0.96
-19.424299168651658
% es.tEY (V/m) @ t=0.96
0
% es.tEZ (V/m) @ t=0.96
18.681783536500745
% es.Ex (V/m) @ t=0.96
-19.424299168651686
% es.Ey (V/m) @ t=0.96
15.58430672545309
% es.Ez (V/m) @ t=0.96
18.681783536500767
% es.tEx (V/m) @ t=0.96
-19.424299168651658
% es.tEy (V/m) @ t=0.96
0
% es.tEz (V/m) @ t=0.96
18.681783536500745
% V (V) @ t=0.96
0.01290871219545928
% es.normE (V/m) @ t=0.98
41.49631973616934
% es.EX (V/m) @ t=0.98
-19.596939179131923
% es.EY (V/m) @ t=0.98
15.722817601440568
% es.EZ (V/m) @ t=0.98
18.847824552751916
% es.tEX (V/m) @ t=0.98
-19.596939179131923
% es.tEY (V/m) @ t=0.98
0
% es.tEZ (V/m) @ t=0.98
18.847824552751888
% es.Ex (V/m) @ t=0.98
-19.596939179131923
% es.Ey (V/m) @ t=0.98
15.722817601440568
% es.Ez (V/m) @ t=0.98
18.847824552751916
% es.tEx (V/m) @ t=0.98
-19.596939179131923
% es.tEy (V/m) @ t=0.98
0
% es.tEz (V/m) @ t=0.98
18.847824552751888
% V (V) @ t=0.98
0.013023442854310481
% es.normE (V/m) @ t=1
41.861883526448196
% es.EX (V/m) @ t=1
-19.769579189612244
% es.EY (V/m) @ t=1
15.86132847742806
% es.EZ (V/m) @ t=1
19.01386556900308
% es.tEX (V/m) @ t=1
-19.769579189612223
% es.tEY (V/m) @ t=1
0
% es.tEZ (V/m) @ t=1
19.013865569003087
% es.Ex (V/m) @ t=1
-19.769579189612244
% es.Ey (V/m) @ t=1
15.86132847742806
% es.Ez (V/m) @ t=1
19.01386556900308
% es.tEx (V/m) @ t=1
-19.769579189612223
% es.tEy (V/m) @ t=1
0
% es.tEz (V/m) @ t=1
19.013865569003087
% V (V) @ t=1
0.013138173513161685
% es.normE (V/m) @ t=1.02
42.227447316726966
% es.EX (V/m) @ t=1.02
-19.942219200092467
% es.EY (V/m) @ t=1.02
15.999839353415638
% es.EZ (V/m) @ t=1.02
19.17990658525423
% es.tEX (V/m) @ t=1.02
-19.94221920009248
% es.tEY (V/m) @ t=1.02
0
% es.tEZ (V/m) @ t=1.02
19.17990658525423
% es.Ex (V/m) @ t=1.02
-19.942219200092467
% es.Ey (V/m) @ t=1.02
15.999839353415638
% es.Ez (V/m) @ t=1.02
19.17990658525423
% es.tEx (V/m) @ t=1.02
-19.94221920009248
% es.tEy (V/m) @ t=1.02
0
% es.tEz (V/m) @ t=1.02
19.17990658525423
% V (V) @ t=1.02
0.013252904172012882
% es.normE (V/m) @ t=1.04
42.59301110700591
% es.EX (V/m) @ t=1.04
-20.11485921057283
% es.EY (V/m) @ t=1.04
16.138350229403173
% es.EZ (V/m) @ t=1.04
19.34594760150557
% es.tEX (V/m) @ t=1.04
-20.114859210572817
% es.tEY (V/m) @ t=1.04
0
% es.tEZ (V/m) @ t=1.04
19.345947601505543
% es.Ex (V/m) @ t=1.04
-20.11485921057283
% es.Ey (V/m) @ t=1.04
16.138350229403173