% Model:              1 neuron.mph
% Version:            COMSOL 6.0.0.405
% Date:               Mar 16 2023, 18:08
% Dimension:          0
% Nodes:              14017
% Expressions:        14017
% Description:        Electric field norm, Electric field, X component, Electric field, Y component, Electric field, Z component, Tangential electric field, X component, Tangential electric field, Y component, Tangential electric field, Z component, Electric field, x component, Electric field, y component, Electric field, z component, Tangential electric field, x component, Tangential electric field, y component, Tangential electric field, z component, Electric potential
% Length unit:        mm
% x
1
% y
12.2
% z
1.33
% es.normE (V/m) @ t=0
2.153345703785817
% es.EX (V/m) @ t=0
1.9899725723287665
% es.EY (V/m) @ t=0
0.12530066182138633
% es.EZ (V/m) @ t=0
0.8044736566209674
% es.tEX (V/m) @ t=0
1.9899725723287602
% es.tEY (V/m) @ t=0
0
% es.tEZ (V/m) @ t=0
0.804473656620968
% es.Ex (V/m) @ t=0
1.9899725723287665
% es.Ey (V/m) @ t=0
0.12530066182138633
% es.Ez (V/m) @ t=0
0.8044736566209674
% es.tEx (V/m) @ t=0
1.9899725723287602
% es.tEy (V/m) @ t=0
0
% es.tEz (V/m) @ t=0
0.804473656620968
% V (V) @ t=0
0.01074124226859069
% es.normE (V/m) @ t=0.02
1.8598861510139344
% es.EX (V/m) @ t=0.02
1.7187776312852758
% es.EY (V/m) @ t=0.02
0.10822459454063271
% es.EZ (V/m) @ t=0.02
0.6948393889411295
% es.tEX (V/m) @ t=0.02
1.7187776312852723
% es.tEY (V/m) @ t=0.02
0
% es.tEZ (V/m) @ t=0.02
0.6948393889411286
% es.Ex (V/m) @ t=0.02
1.7187776312852758
% es.Ey (V/m) @ t=0.02
0.10822459454063271
% es.Ez (V/m) @ t=0.02
0.6948393889411295
% es.tEx (V/m) @ t=0.02
1.7187776312852723
% es.tEy (V/m) @ t=0.02
0
% es.tEz (V/m) @ t=0.02
0.6948393889411286
% V (V) @ t=0.02
0.009277417785185763
% es.normE (V/m) @ t=0.04
1.8769954955781882
% es.EX (V/m) @ t=0.04
1.7345888995161767
% es.EY (V/m) @ t=0.04
0.10922016719809335
% es.EZ (V/m) @ t=0.04
0.7012313104587835
% es.tEX (V/m) @ t=0.04
1.7345888995161776
% es.tEY (V/m) @ t=0.04
0
% es.tEZ (V/m) @ t=0.04
0.7012313104587853
% es.Ex (V/m) @ t=0.04
1.7345888995161767
% es.Ey (V/m) @ t=0.04
0.10922016719809335
% es.Ez (V/m) @ t=0.04
0.7012313104587835
% es.tEx (V/m) @ t=0.04
1.7345888995161776
% es.tEy (V/m) @ t=0.04
0
% es.tEz (V/m) @ t=0.04
0.7012313104587853
% V (V) @ t=0.04
0.009362762014623056
% es.normE (V/m) @ t=0.06
1.8942462919656524
% es.EX (V/m) @ t=0.06
1.7505308877985168
% es.EY (V/m) @ t=0.06
0.1102239706881265
% es.EZ (V/m) @ t=0.06
0.7076760770711379
% es.tEX (V/m) @ t=0.06
1.7505308877985115
% es.tEY (V/m) @ t=0.06
0
% es.tEZ (V/m) @ t=0.06
0.7076760770711412
% es.Ex (V/m) @ t=0.06
1.7505308877985168
% es.Ey (V/m) @ t=0.06
0.1102239706881265
% es.Ez (V/m) @ t=0.06
0.7076760770711379
% es.tEx (V/m) @ t=0.06
1.7505308877985115
% es.tEy (V/m) @ t=0.06
0
% es.tEz (V/m) @ t=0.06
0.7076760770711412
% V (V) @ t=0.06
0.009448811842141452
% es.normE (V/m) @ t=0.08
1.9117901684506686
% es.EX (V/m) @ t=0.08
1.7667437204539507
% es.EY (V/m) @ t=0.08
0.11124482807936553
% es.EZ (V/m) @ t=0.08
0.7142303359554703
% es.tEX (V/m) @ t=0.08
1.7667437204539542
% es.tEY (V/m) @ t=0.08
0
% es.tEZ (V/m) @ t=0.08
0.7142303359554765
% es.Ex (V/m) @ t=0.08
1.7667437204539507
% es.Ey (V/m) @ t=0.08
0.11124482807936553
% es.Ez (V/m) @ t=0.08
0.7142303359554703
% es.tEx (V/m) @ t=0.08
1.7667437204539542
% es.tEy (V/m) @ t=0.08
0
% es.tEz (V/m) @ t=0.08
0.7142303359554765
% V (V) @ t=0.08
0.009536323615053875
% es.normE (V/m) @ t=0.1
1.92947600955464
% es.EX (V/m) @ t=0.1
1.783087746999871
% es.EY (V/m) @ t=0.1
0.11227394618365127
% es.EZ (V/m) @ t=0.1
0.7208376316335015
% es.tEX (V/m) @ t=0.1
1.7830877469998772
% es.tEY (V/m) @ t=0.1
0
% es.tEZ (V/m) @ t=0.1
0.720837631633505
% es.Ex (V/m) @ t=0.1
1.783087746999871
% es.Ey (V/m) @ t=0.1
0.11227394618365127
% es.Ez (V/m) @ t=0.1
0.7208376316335015
% es.tEx (V/m) @ t=0.1
1.7830877469998772
% es.tEy (V/m) @ t=0.1
0
% es.tEz (V/m) @ t=0.1
0.720837631633505
% V (V) @ t=0.1
0.009624543537453501
% es.normE (V/m) @ t=0.12
1.9471618506586295
% es.EX (V/m) @ t=0.12
1.799431773545808
% es.EY (V/m) @ t=0.12
0.11330306428795867
% es.EZ (V/m) @ t=0.12
0.7274449273115398
% es.tEX (V/m) @ t=0.12
1.799431773545816
% es.tEY (V/m) @ t=0.12
0
% es.tEZ (V/m) @ t=0.12
0.7274449273115398
% es.Ex (V/m) @ t=0.12
1.799431773545808
% es.Ey (V/m) @ t=0.12
0.11330306428795867
% es.Ez (V/m) @ t=0.12
0.7274449273115398
% es.tEx (V/m) @ t=0.12
1.799431773545816
% es.tEy (V/m) @ t=0.12
0
% es.tEz (V/m) @ t=0.12
0.7274449273115398
% V (V) @ t=0.12
0.009712763459853132
% es.normE (V/m) @ t=0.14
1.9651759038633092
% es.EX (V/m) @ t=0.14
1.8160791105097465
% es.EY (V/m) @ t=0.14
0.11435128103164838
% es.EZ (V/m) @ t=0.14
0.7341748415341356
% es.tEX (V/m) @ t=0.14
1.8160791105097385
% es.tEY (V/m) @ t=0.14
0
% es.tEZ (V/m) @ t=0.14
0.734174841534132
% es.Ex (V/m) @ t=0.14
1.8160791105097465
% es.Ey (V/m) @ t=0.14
0.11435128103164838
% es.Ez (V/m) @ t=0.14
0.7341748415341356
% es.tEx (V/m) @ t=0.14
1.8160791105097385
% es.tEy (V/m) @ t=0.14
0
% es.tEz (V/m) @ t=0.14
0.734174841534132
% V (V) @ t=0.14
0.009802620500537509
% es.normE (V/m) @ t=0.16
1.983780919116208
% es.EX (V/m) @ t=0.16
1.83327257281608
% es.EY (V/m) @ t=0.16
0.11543388581598368
% es.EZ (V/m) @ t=0.16
0.7411255364838669
% es.tEX (V/m) @ t=0.16
1.8332725728160906
% es.tEY (V/m) @ t=0.16
0
% es.tEZ (V/m) @ t=0.16
0.7411255364838616
% es.Ex (V/m) @ t=0.16
1.83327257281608
% es.Ey (V/m) @ t=0.16
0.11543388581598368
% es.Ez (V/m) @ t=0.16
0.7411255364838669
% es.tEx (V/m) @ t=0.16
1.8332725728160906
% es.tEy (V/m) @ t=0.16
0
% es.tEz (V/m) @ t=0.16
0.7411255364838616
% V (V) @ t=0.16
0.009895425253304103
% es.normE (V/m) @ t=0.18
2.0023859343691313
% es.EX (V/m) @ t=0.18
1.8504660351224382
% es.EY (V/m) @ t=0.18
0.1165164906003403
% es.EZ (V/m) @ t=0.18
0.7480762314335991
% es.tEX (V/m) @ t=0.18
1.8504660351224498
% es.tEY (V/m) @ t=0.18
0
% es.tEZ (V/m) @ t=0.18
0.7480762314336036
% es.Ex (V/m) @ t=0.18
1.8504660351224382
% es.Ey (V/m) @ t=0.18
0.1165164906003403
% es.Ez (V/m) @ t=0.18
0.7480762314335991
% es.tEx (V/m) @ t=0.18
1.8504660351224498
% es.tEy (V/m) @ t=0.18
0
% es.tEz (V/m) @ t=0.18
0.7480762314336036
% V (V) @ t=0.18
0.0099882300060707
% es.normE (V/m) @ t=0.2
2.0209909496220497
% es.EX (V/m) @ t=0.2
1.8676594974287886
% es.EY (V/m) @ t=0.2
0.11759909538468993
% es.EZ (V/m) @ t=0.2
0.7550269263833373
% es.tEX (V/m) @ t=0.2
1.8676594974287823
% es.tEY (V/m) @ t=0.2
0
% es.tEZ (V/m) @ t=0.2
0.7550269263833358
% es.Ex (V/m) @ t=0.2
1.8676594974287886
% es.Ey (V/m) @ t=0.2
0.11759909538468993
% es.Ez (V/m) @ t=0.2
0.7550269263833373
% es.tEx (V/m) @ t=0.2
1.8676594974287823
% es.tEy (V/m) @ t=0.2
0
% es.tEz (V/m) @ t=0.2
0.7550269263833358
% V (V) @ t=0.2
0.010081034758837298
% es.normE (V/m) @ t=0.22
2.03959596487495
% es.EX (V/m) @ t=0.22
1.884852959735123
% es.EY (V/m) @ t=0.22
0.11868170016902069
% es.EZ (V/m) @ t=0.22
0.7619776213330713
% es.tEX (V/m) @ t=0.22
1.8848529597351362
% es.tEY (V/m) @ t=0.22
0
% es.tEZ (V/m) @ t=0.22
0.7619776213330671
% es.Ex (V/m) @ t=0.22
1.884852959735123
% es.Ey (V/m) @ t=0.22
0.11868170016902069
% es.Ez (V/m) @ t=0.22
0.7619776213330713
% es.tEx (V/m) @ t=0.22
1.8848529597351362
% es.tEy (V/m) @ t=0.22
0
% es.tEz (V/m) @ t=0.22
0.7619776213330671
% V (V) @ t=0.22
0.010173839511603895
% es.normE (V/m) @ t=0.24
2.058200980127869
% es.EX (V/m) @ t=0.24
1.9020464220414777
% es.EY (V/m) @ t=0.24
0.11976430495336665
% es.EZ (V/m) @ t=0.24
0.7689283162828009
% es.tEX (V/m) @ t=0.24
1.9020464220414741
% es.tEY (V/m) @ t=0.24
0
% es.tEZ (V/m) @ t=0.24
0.7689283162828002
% es.Ex (V/m) @ t=0.24
1.9020464220414777
% es.Ey (V/m) @ t=0.24
0.11976430495336665
% es.Ez (V/m) @ t=0.24
0.7689283162828009
% es.tEx (V/m) @ t=0.24
1.9020464220414741
% es.tEy (V/m) @ t=0.24
0
% es.tEz (V/m) @ t=0.24
0.7689283162828002
% V (V) @ t=0.24
0.01026664426437049
% es.normE (V/m) @ t=0.26
2.0768059953807807
% es.EX (V/m) @ t=0.26
1.9192398843478218
% es.EY (V/m) @ t=0.26
0.12084690973772416
% es.EZ (V/m) @ t=0.26
0.7758790112325369
% es.tEX (V/m) @ t=0.26
1.9192398843478227
% es.tEY (V/m) @ t=0.26
0
% es.tEZ (V/m) @ t=0.26
0.7758790112325316
% es.Ex (V/m) @ t=0.26
1.9192398843478218
% es.Ey (V/m) @ t=0.26
0.12084690973772416
% es.Ez (V/m) @ t=0.26
0.7758790112325369
% es.tEx (V/m) @ t=0.26
1.9192398843478227
% es.tEy (V/m) @ t=0.26
0
% es.tEz (V/m) @ t=0.26
0.7758790112325316
% V (V) @ t=0.26
0.010359449017137087
% es.normE (V/m) @ t=0.28
2.096902744985467
% es.EX (V/m) @ t=0.28
1.9378119129613163
% es.EY (V/m) @ t=0.28
0.12201630890385995
% es.EZ (V/m) @ t=0.28
0.7833869853938704
% es.tEX (V/m) @ t=0.28
1.9378119129613243
% es.tEY (V/m) @ t=0.28
0
% es.tEZ (V/m) @ t=0.28
0.7833869853938733
% es.Ex (V/m) @ t=0.28
1.9378119129613163
% es.Ey (V/m) @ t=0.28
0.12201630890385995
% es.Ez (V/m) @ t=0.28
0.7833869853938704
% es.tEx (V/m) @ t=0.28
1.9378119129613243
% es.tEy (V/m) @ t=0.28
0
% es.tEz (V/m) @ t=0.28
0.7833869853938733
% V (V) @ t=0.28
0.010459696034176088
% es.normE (V/m) @ t=0.3
2.117568558903417
% es.EX (V/m) @ t=0.3
1.9569098347326124
% es.EY (V/m) @ t=0.3
0.12321881824488079
% es.EZ (V/m) @ t=0.3
0.7911075494922069
% es.tEX (V/m) @ t=0.3
1.9569098347326062
% es.tEY (V/m) @ t=0.3
0
% es.tEZ (V/m) @ t=0.3
0.7911075494922137
% es.Ex (V/m) @ t=0.3
1.9569098347326124
% es.Ey (V/m) @ t=0.3
0.12321881824488079
% es.Ez (V/m) @ t=0.3
0.7911075494922069
% es.tEx (V/m) @ t=0.3
1.9569098347326062
% es.tEy (V/m) @ t=0.3
0
% es.tEz (V/m) @ t=0.3
0.7911075494922137
% V (V) @ t=0.3
0.010562782113681102
% es.normE (V/m) @ t=0.32
2.138234372821375
% es.EX (V/m) @ t=0.32
1.9760077565039218
% es.EY (V/m) @ t=0.32
0.12442132758591751
% es.EZ (V/m) @ t=0.32
0.7988281135905277
% es.tEX (V/m) @ t=0.32
1.9760077565039218
% es.tEY (V/m) @ t=0.32
0
% es.tEZ (V/m) @ t=0.32
0.7988281135905337
% es.Ex (V/m) @ t=0.32
1.9760077565039218
% es.Ey (V/m) @ t=0.32
0.12442132758591751
% es.Ez (V/m) @ t=0.32
0.7988281135905277
% es.tEx (V/m) @ t=0.32
1.9760077565039218
% es.tEy (V/m) @ t=0.32
0
% es.tEz (V/m) @ t=0.32
0.7988281135905337
% V (V) @ t=0.32
0.01066586819318612
% es.normE (V/m) @ t=0.34
2.158900186739337
% es.EX (V/m) @ t=0.34
1.995105678275225
% es.EY (V/m) @ t=0.34
0.1256238369269259
% es.EZ (V/m) @ t=0.34
0.8065486776888793
% es.tEX (V/m) @ t=0.34
1.995105678275225
% es.tEY (V/m) @ t=0.34
0
% es.tEZ (V/m) @ t=0.34
0.80654867768888
% es.Ex (V/m) @ t=0.34
1.995105678275225
% es.Ey (V/m) @ t=0.34
0.1256238369269259
% es.Ez (V/m) @ t=0.34
0.8065486776888793
% es.tEx (V/m) @ t=0.34
1.995105678275225
% es.tEy (V/m) @ t=0.34
0
% es.tEz (V/m) @ t=0.34
0.80654867768888
% V (V) @ t=0.34
0.010768954272691133
% es.normE (V/m) @ t=0.36
2.1795660006573008
% es.EX (V/m) @ t=0.36
2.0142036000465335
% es.EY (V/m) @ t=0.36
0.12682634626797318
% es.EZ (V/m) @ t=0.36
0.8142692417872175
% es.tEX (V/m) @ t=0.36
2.0142036000465353
% es.tEY (V/m) @ t=0.36
0
% es.tEZ (V/m) @ t=0.36
0.8142692417872173
% es.Ex (V/m) @ t=0.36
2.0142036000465335
% es.Ey (V/m) @ t=0.36
0.12682634626797318
% es.Ez (V/m) @ t=0.36
0.8142692417872175
% es.tEx (V/m) @ t=0.36
2.0142036000465353
% es.tEy (V/m) @ t=0.36
0
% es.tEz (V/m) @ t=0.36
0.8142692417872173
% V (V) @ t=0.36
0.01087204035219615
% es.normE (V/m) @ t=0.38
2.200231814575247
% es.EX (V/m) @ t=0.38
2.033301521817828
% es.EY (V/m) @ t=0.38
0.12802885560899568
% es.EZ (V/m) @ t=0.38
0.8219898058855413
% es.tEX (V/m) @ t=0.38
2.0333015218178243
% es.tEY (V/m) @ t=0.38
0
% es.tEZ (V/m) @ t=0.38
0.8219898058855404
% es.Ex (V/m) @ t=0.38
2.033301521817828
% es.Ey (V/m) @ t=0.38
0.12802885560899568
% es.Ez (V/m) @ t=0.38
0.8219898058855413
% es.tEx (V/m) @ t=0.38
2.0333015218178243
% es.tEy (V/m) @ t=0.38
0
% es.tEz (V/m) @ t=0.38
0.8219898058855404
% V (V) @ t=0.38
0.010975126431701166
% es.normE (V/m) @ t=0.4
2.220897628493208
% es.EX (V/m) @ t=0.4
2.0523994435891346
% es.EY (V/m) @ t=0.4
0.1292313649500243
% es.EZ (V/m) @ t=0.4
0.8297103699838757
% es.tEX (V/m) @ t=0.4
2.052399443589138
% es.tEY (V/m) @ t=0.4
0
% es.tEZ (V/m) @ t=0.4
0.8297103699838777
% es.Ex (V/m) @ t=0.4
2.0523994435891346
% es.Ey (V/m) @ t=0.4
0.1292313649500243
% es.Ez (V/m) @ t=0.4
0.8297103699838757
% es.tEx (V/m) @ t=0.4
2.052399443589138
% es.tEy (V/m) @ t=0.4
0
% es.tEz (V/m) @ t=0.4
0.8297103699838777
% V (V) @ t=0.4
0.011078212511206184
% es.normE (V/m) @ t=0.42
2.2415634424111897
% es.EX (V/m) @ t=0.42
2.071497365360461
% es.EY (V/m) @ t=0.42
0.1304338742910478
% es.EZ (V/m) @ t=0.42
0.8374309340822166
% es.tEX (V/m) @ t=0.42
2.071497365360452
% es.tEY (V/m) @ t=0.42
0
% es.tEZ (V/m) @ t=0.42
0.8374309340822204
% es.Ex (V/m) @ t=0.42
2.071497365360461
% es.Ey (V/m) @ t=0.42
0.1304338742910478
% es.Ez (V/m) @ t=0.42
0.8374309340822166
% es.tEx (V/m) @ t=0.42
2.071497365360452
% es.tEy (V/m) @ t=0.42
0
% es.tEz (V/m) @ t=0.42
0.8374309340822204
% V (V) @ t=0.42
0.0111812985907112
% es.normE (V/m) @ t=0.44
2.2622292563291477
% es.EX (V/m) @ t=0.44
2.090595287131765
% es.EY (V/m) @ t=0.44
0.13163638363206764
% es.EZ (V/m) @ t=0.44
0.8451514981805464
% es.tEX (V/m) @ t=0.44
2.0905952871317677
% es.tEY (V/m) @ t=0.44
0
% es.tEZ (V/m) @ t=0.44
0.8451514981805475
% es.Ex (V/m) @ t=0.44
2.090595287131765
% es.Ey (V/m) @ t=0.44
0.13163638363206764
% es.Ez (V/m) @ t=0.44
0.8451514981805464
% es.tEx (V/m) @ t=0.44
2.0905952871317677
% es.tEy (V/m) @ t=0.44
0
% es.tEz (V/m) @ t=0.44
0.8451514981805475
% V (V) @ t=0.44
0.011284384670216216
% es.normE (V/m) @ t=0.46
2.282895070247098
% es.EX (V/m) @ t=0.46
2.109693208903061
% es.EY (V/m) @ t=0.46
0.13283889297310714
% es.EZ (V/m) @ t=0.46
0.8528720622788721
% es.tEX (V/m) @ t=0.46
2.1096932089030602
% es.tEY (V/m) @ t=0.46
0
% es.tEZ (V/m) @ t=0.46
0.8528720622788812
% es.Ex (V/m) @ t=0.46
2.109693208903061
% es.Ey (V/m) @ t=0.46
0.13283889297310714
% es.Ez (V/m) @ t=0.46
0.8528720622788721
% es.tEx (V/m) @ t=0.46
2.1096932089030602
% es.tEy (V/m) @ t=0.46
0
% es.tEz (V/m) @ t=0.46
0.8528720622788812
% V (V) @ t=0.46
0.01138747074972123
% es.normE (V/m) @ t=0.48
2.303560884165055
% es.EX (V/m) @ t=0.48
2.1287911306743554
% es.EY (V/m) @ t=0.48
0.13404140231414108
% es.EZ (V/m) @ t=0.48
0.8605926263772183
% es.tEX (V/m) @ t=0.48
2.1287911306743528
% es.tEY (V/m) @ t=0.48
0
% es.tEZ (V/m) @ t=0.48
0.8605926263772128
% es.Ex (V/m) @ t=0.48
2.1287911306743554
% es.Ey (V/m) @ t=0.48
0.13404140231414108
% es.Ez (V/m) @ t=0.48
0.8605926263772183
% es.tEx (V/m) @ t=0.48
2.1287911306743528
% es.tEy (V/m) @ t=0.48
0
% es.tEz (V/m) @ t=0.48
0.8605926263772128
% V (V) @ t=0.48
0.011490556829226247
% es.normE (V/m) @ t=0.5
2.324226698083023
% es.EX (V/m) @ t=0.5
2.1478890524456746
% es.EY (V/m) @ t=0.5
0.13524391165514593
% es.EZ (V/m) @ t=0.5
0.8683131904755388
% es.tEX (V/m) @ t=0.5
2.1478890524456737
% es.tEY (V/m) @ t=0.5
0
% es.tEZ (V/m) @ t=0.5
0.868313190475543
% es.Ex (V/m) @ t=0.5
2.1478890524456746
% es.Ey (V/m) @ t=0.5
0.13524391165514593
% es.Ez (V/m) @ t=0.5
0.8683131904755388
% es.tEx (V/m) @ t=0.5
2.1478890524456737
% es.tEy (V/m) @ t=0.5
0
% es.tEz (V/m) @ t=0.5
0.868313190475543
% V (V) @ t=0.5
0.011593642908731265
% es.normE (V/m) @ t=0.52
2.3448925120009854
% es.EX (V/m) @ t=0.52
2.1669869742169814
% es.EY (V/m) @ t=0.52
0.13644642099618154
% es.EZ (V/m) @ t=0.52
0.8760337545738681
% es.tEX (V/m) @ t=0.52
2.166986974216984
% es.tEY (V/m) @ t=0.52
0
% es.tEZ (V/m) @ t=0.52
0.8760337545738768
% es.Ex (V/m) @ t=0.52
2.1669869742169814
% es.Ey (V/m) @ t=0.52
0.13644642099618154
% es.Ez (V/m) @ t=0.52
0.8760337545738681
% es.tEx (V/m) @ t=0.52
2.166986974216984
% es.tEy (V/m) @ t=0.52
0
% es.tEz (V/m) @ t=0.52
0.8760337545738768
% V (V) @ t=0.52
0.01169672898823628
% es.normE (V/m) @ t=0.54
2.366623376544384
% es.EX (V/m) @ t=0.54
2.187069137841708
% es.EY (V/m) @ t=0.54
0.13771090786662554
% es.EZ (V/m) @ t=0.54
0.8841522230021404
% es.tEX (V/m) @ t=0.54
2.187069137841709
% es.tEY (V/m) @ t=0.54
0
% es.tEZ (V/m) @ t=0.54
0.8841522230021397
% es.Ex (V/m) @ t=0.54
2.187069137841708
% es.Ey (V/m) @ t=0.54
0.13771090786662554
% es.Ez (V/m) @ t=0.54
0.8841522230021404
% es.tEx (V/m) @ t=0.54
2.187069137841709
% es.tEy (V/m) @ t=0.54
0
% es.tEz (V/m) @ t=0.54
0.8841522230021397
% V (V) @ t=0.54
0.011805127165115689
% es.normE (V/m) @ t=0.56
2.3896174696679626
% es.EX (V/m) @ t=0.56
2.208318684884067
% es.EY (V/m) @ t=0.56
0.13904890465724562
% es.EZ (V/m) @ t=0.56
0.8927426353077259
% es.tEX (V/m) @ t=0.56
2.2083186848840572
% es.tEY (V/m) @ t=0.56
0
% es.tEZ (V/m) @ t=0.56
0.8927426353077266
% es.Ex (V/m) @ t=0.56
2.208318684884067
% es.Ey (V/m) @ t=0.56
0.13904890465724562
% es.Ez (V/m) @ t=0.56
0.8927426353077259
% es.tEx (V/m) @ t=0.56
2.2083186848840572
% es.tEy (V/m) @ t=0.56
0
% es.tEz (V/m) @ t=0.56
0.8927426353077266
% V (V) @ t=0.56
0.01191982588120288
% es.normE (V/m) @ t=0.58
2.4126115627915317
% es.EX (V/m) @ t=0.58
2.2295682319264056
% es.EY (V/m) @ t=0.58
0.14038690144787924
% es.EZ (V/m) @ t=0.58
0.901333047613331
% es.tEX (V/m) @ t=0.58
2.2295682319264074
% es.tEY (V/m) @ t=0.58
0
% es.tEZ (V/m) @ t=0.58
0.9013330476133325
% es.Ex (V/m) @ t=0.58
2.2295682319264056
% es.Ey (V/m) @ t=0.58
0.14038690144787924
% es.Ez (V/m) @ t=0.58
0.901333047613331
% es.tEx (V/m) @ t=0.58
2.2295682319264074
% es.tEy (V/m) @ t=0.58
0
% es.tEz (V/m) @ t=0.58
0.9013330476133325
% V (V) @ t=0.58
0.012034524597290066
% es.normE (V/m) @ t=0.6
2.435605655915106
% es.EX (V/m) @ t=0.6
2.2508177789687602
% es.EY (V/m) @ t=0.6
0.14172489823850676
% es.EZ (V/m) @ t=0.6
0.909923459918913
% es.tEX (V/m) @ t=0.6
2.250817778968754
% es.tEY (V/m) @ t=0.6
0
% es.tEZ (V/m) @ t=0.6
0.9099234599189203
% es.Ex (V/m) @ t=0.6
2.2508177789687602
% es.Ey (V/m) @ t=0.6
0.14172489823850676
% es.Ez (V/m) @ t=0.6
0.909923459918913
% es.tEx (V/m) @ t=0.6
2.250817778968754
% es.tEy (V/m) @ t=0.6
0
% es.tEz (V/m) @ t=0.6
0.9099234599189203
% V (V) @ t=0.6
0.012149223313377257
% es.normE (V/m) @ t=0.62
2.4585997490386795
% es.EX (V/m) @ t=0.62
2.272067326011106
% es.EY (V/m) @ t=0.62
0.14306289502915248
% es.EZ (V/m) @ t=0.62
0.9185138722245112
% es.tEX (V/m) @ t=0.62
2.272067326011097
% es.tEY (V/m) @ t=0.62
0
% es.tEZ (V/m) @ t=0.62
0.918513872224505
% es.Ex (V/m) @ t=0.62
2.272067326011106
% es.Ey (V/m) @ t=0.62
0.14306289502915248
% es.Ez (V/m) @ t=0.62
0.9185138722245112
% es.tEx (V/m) @ t=0.62
2.272067326011097
% es.tEy (V/m) @ t=0.62
0
% es.tEz (V/m) @ t=0.62
0.918513872224505
% V (V) @ t=0.62
0.012263922029464445
% es.normE (V/m) @ t=0.64
2.4815938421622477
% es.EX (V/m) @ t=0.64
2.2933168730534463
% es.EY (V/m) @ t=0.64
0.1444008918197881
% es.EZ (V/m) @ t=0.64
0.9271042845301114
% es.tEX (V/m) @ t=0.64
2.2933168730534437
% es.tEY (V/m) @ t=0.64
0
% es.tEZ (V/m) @ t=0.64
0.927104284530107
% es.Ex (V/m) @ t=0.64
2.2933168730534463
% es.Ey (V/m) @ t=0.64
0.1444008918197881
% es.Ez (V/m) @ t=0.64
0.9271042845301114
% es.tEx (V/m) @ t=0.64
2.2933168730534437
% es.tEy (V/m) @ t=0.64
0
% es.tEz (V/m) @ t=0.64
0.927104284530107
% V (V) @ t=0.64
0.012378620745551632
% es.normE (V/m) @ t=0.66
2.5045879352858087
% es.EX (V/m) @ t=0.66
2.3145664200957823
% es.EY (V/m) @ t=0.66
0.1457388886104135
% es.EZ (V/m) @ t=0.66
0.9356946968357063
% es.tEX (V/m) @ t=0.66
2.3145664200957743
% es.tEY (V/m) @ t=0.66
0
% es.tEZ (V/m) @ t=0.66
0.9356946968356992
% es.Ex (V/m) @ t=0.66
2.3145664200957823
% es.Ey (V/m) @ t=0.66
0.1457388886104135
% es.Ez (V/m) @ t=0.66
0.9356946968357063
% es.tEx (V/m) @ t=0.66
2.3145664200957743
% es.tEy (V/m) @ t=0.66
0
% es.tEz (V/m) @ t=0.66
0.9356946968356992
% V (V) @ t=0.66
0.012493319461638824
% es.normE (V/m) @ t=0.68
2.527582028409373
% es.EX (V/m) @ t=0.68
2.335815967138129
% es.EY (V/m) @ t=0.68
0.14707688540104358
% es.EZ (V/m) @ t=0.68
0.9442851091412807
% es.tEX (V/m) @ t=0.68
2.3358159671381227
% es.tEY (V/m) @ t=0.68
0
% es.tEZ (V/m) @ t=0.68
0.944285109141286
% es.Ex (V/m) @ t=0.68
2.335815967138129
% es.Ey (V/m) @ t=0.68
0.14707688540104358
% es.Ez (V/m) @ t=0.68
0.9442851091412807
% es.tEx (V/m) @ t=0.68
2.3358159671381227
% es.tEy (V/m) @ t=0.68
0
% es.tEz (V/m) @ t=0.68
0.944285109141286
% V (V) @ t=0.68
0.012608018177726011
% es.normE (V/m) @ t=0.7
2.550576121532942
% es.EX (V/m) @ t=0.7
2.35706551418047
% es.EY (V/m) @ t=0.7
0.14841488219169563
% es.EZ (V/m) @ t=0.7
0.9528755214468765
% es.tEX (V/m) @ t=0.7
2.3570655141804675
% es.tEY (V/m) @ t=0.7
0
% es.tEZ (V/m) @ t=0.7
0.95287552144688
% es.Ex (V/m) @ t=0.7
2.35706551418047
% es.Ey (V/m) @ t=0.7
0.14841488219169563
% es.Ez (V/m) @ t=0.7
0.9528755214468765
% es.tEx (V/m) @ t=0.7
2.3570655141804675
% es.tEy (V/m) @ t=0.7
0
% es.tEz (V/m) @ t=0.7
0.95287552144688
% V (V) @ t=0.7
0.012722716893813197
% es.normE (V/m) @ t=0.72
2.5735702146565083
% es.EX (V/m) @ t=0.72
2.378315061222809
% es.EY (V/m) @ t=0.72
0.14975287898231682
% es.EZ (V/m) @ t=0.72
0.9614659337524802
% es.tEX (V/m) @ t=0.72
2.3783150612228035
% es.tEY (V/m) @ t=0.72
0
% es.tEZ (V/m) @ t=0.72
0.9614659337524829
% es.Ex (V/m) @ t=0.72
2.378315061222809
% es.Ey (V/m) @ t=0.72
0.14975287898231682
% es.Ez (V/m) @ t=0.72
0.9614659337524802
% es.tEx (V/m) @ t=0.72
2.3783150612228035
% es.tEy (V/m) @ t=0.72
0
% es.tEz (V/m) @ t=0.72
0.9614659337524829
% V (V) @ t=0.72
0.012837415609900387
% es.normE (V/m) @ t=0.74
2.5965643077800733
% es.EX (V/m) @ t=0.74
2.399564608265151
% es.EY (V/m) @ t=0.74
0.1510908757729612
% es.EZ (V/m) @ t=0.74
0.9700563460580667
% es.tEX (V/m) @ t=0.74
2.3995646082651394
% es.tEY (V/m) @ t=0.74
0
% es.tEZ (V/m) @ t=0.74
0.9700563460580724
% es.Ex (V/m) @ t=0.74
2.399564608265151
% es.Ey (V/m) @ t=0.74
0.1510908757729612
% es.Ez (V/m) @ t=0.74
0.9700563460580667
% es.tEx (V/m) @ t=0.74
2.3995646082651394
% es.tEy (V/m) @ t=0.74
0
% es.tEz (V/m) @ t=0.74
0.9700563460580724
% V (V) @ t=0.74
0.012952114325987576
% es.normE (V/m) @ t=0.76
2.6195584009036397
% es.EX (V/m) @ t=0.76
2.420814155307494
% es.EY (V/m) @ t=0.76
0.15242887256357418
% es.EZ (V/m) @ t=0.76
0.978646758363654
% es.tEX (V/m) @ t=0.76
2.420814155307495
% es.tEY (V/m) @ t=0.76
0
% es.tEZ (V/m) @ t=0.76
0.9786467583636487
% es.Ex (V/m) @ t=0.76
2.420814155307494
% es.Ey (V/m) @ t=0.76
0.15242887256357418
% es.Ez (V/m) @ t=0.76
0.978646758363654
% es.tEx (V/m) @ t=0.76
2.420814155307495
% es.tEy (V/m) @ t=0.76
0
% es.tEz (V/m) @ t=0.76
0.9786467583636487
% V (V) @ t=0.76
0.013066813042074766
% es.normE (V/m) @ t=0.78
2.6425524940272114
% es.EX (V/m) @ t=0.78
2.442063702349838
% es.EY (V/m) @ t=0.78
0.15376686935421058
% es.EZ (V/m) @ t=0.78
0.9872371706692569
% es.tEX (V/m) @ t=0.78
2.4420637023498397
% es.tEY (V/m) @ t=0.78
0
% es.tEZ (V/m) @ t=0.78
0.9872371706692569
% es.Ex (V/m) @ t=0.78
2.442063702349838
% es.Ey (V/m) @ t=0.78
0.15376686935421058
% es.Ez (V/m) @ t=0.78
0.9872371706692569
% es.tEx (V/m) @ t=0.78
2.4420637023498397
% es.tEy (V/m) @ t=0.78
0
% es.tEz (V/m) @ t=0.78
0.9872371706692569
% V (V) @ t=0.78
0.013181511758161953
% es.normE (V/m) @ t=0.8
2.6660499013427845
% es.EX (V/m) @ t=0.8
2.463778376890609
% es.EY (V/m) @ t=0.8
0.15513415387357155
% es.EZ (V/m) @ t=0.8
0.996015618604627
% es.tEX (V/m) @ t=0.8
2.4637783768906107
% es.tEY (V/m) @ t=0.8
0
% es.tEZ (V/m) @ t=0.8
0.9960156186046278
% es.Ex (V/m) @ t=0.8
2.463778376890609
% es.Ey (V/m) @ t=0.8
0.15513415387357155
% es.Ez (V/m) @ t=0.8
0.996015618604627
% es.tEx (V/m) @ t=0.8
2.4637783768906107
% es.tEy (V/m) @ t=0.8
0
% es.tEz (V/m) @ t=0.8
0.9960156186046278
% V (V) @ t=0.8
0.013298721014111586
% es.normE (V/m) @ t=0.82
2.691678871754915
% es.EX (V/m) @ t=0.82
2.4874628917947197
% es.EY (V/m) @ t=0.82
0.15662547352396783
% es.EZ (V/m) @ t=0.82
1.0055904077034565
% es.tEX (V/m) @ t=0.82
2.4874628917947224
% es.tEY (V/m) @ t=0.82
0
% es.tEZ (V/m) @ t=0.82
1.0055904077034628
% es.Ex (V/m) @ t=0.82
2.4874628917947197
% es.Ey (V/m) @ t=0.82
0.15662547352396783
% es.Ez (V/m) @ t=0.82
1.0055904077034565
% es.tEx (V/m) @ t=0.82
2.4874628917947224
% es.tEy (V/m) @ t=0.82
0
% es.tEz (V/m) @ t=0.82
1.0055904077034628
% V (V) @ t=0.82
0.013426562543516162
% es.normE (V/m) @ t=0.84
2.7173078421670303
% es.EX (V/m) @ t=0.84
2.5111474066988055
% es.EY (V/m) @ t=0.84
0.15811679317433036
% es.EZ (V/m) @ t=0.84
1.0151651968023083
% es.tEX (V/m) @ t=0.84
2.5111474066988038
% es.tEY (V/m) @ t=0.84
0
% es.tEZ (V/m) @ t=0.84
1.0151651968023128
% es.Ex (V/m) @ t=0.84
2.5111474066988055
% es.Ey (V/m) @ t=0.84
0.15811679317433036
% es.Ez (V/m) @ t=0.84
1.0151651968023083
% es.tEx (V/m) @ t=0.84
2.5111474066988038
% es.tEy (V/m) @ t=0.84
0
% es.tEz (V/m) @ t=0.84
1.0151651968023128
% V (V) @ t=0.84
0.013554404072920741
% es.normE (V/m) @ t=0.86
2.7429368125791447
% es.EX (V/m) @ t=0.86
2.534831921602894
% es.EY (V/m) @ t=0.86
0.1596081128247251
% es.EZ (V/m) @ t=0.86
1.0247399859011486
% es.tEX (V/m) @ t=0.86
2.5348319216028905
% es.tEY (V/m) @ t=0.86
0
% es.tEZ (V/m) @ t=0.86
1.024739985901154
% es.Ex (V/m) @ t=0.86
2.534831921602894
% es.Ey (V/m) @ t=0.86
0.1596081128247251
% es.Ez (V/m) @ t=0.86
1.0247399859011486
% es.tEx (V/m) @ t=0.86
2.5348319216028905
% es.tEy (V/m) @ t=0.86
0
% es.tEz (V/m) @ t=0.86
1.024739985901154
% V (V) @ t=0.86
0.013682245602325314
% es.normE (V/m) @ t=0.88
2.768565782991272
% es.EX (V/m) @ t=0.88
2.558516436506996
% es.EY (V/m) @ t=0.88
0.1610994324750893
% es.EZ (V/m) @ t=0.88
1.0343147749999941
% es.tEX (V/m) @ t=0.88
2.5585164365069986
% es.tEY (V/m) @ t=0.88
0
% es.tEZ (V/m) @ t=0.88
1.0343147749999924
% es.Ex (V/m) @ t=0.88
2.558516436506996
% es.Ey (V/m) @ t=0.88
0.1610994324750893
% es.Ez (V/m) @ t=0.88
1.0343147749999941
% es.tEx (V/m) @ t=0.88
2.5585164365069986
% es.tEy (V/m) @ t=0.88
0
% es.tEz (V/m) @ t=0.88
1.0343147749999924
% V (V) @ t=0.88
0.013810087131729893
% es.normE (V/m) @ t=0.9
2.794194753403392
% es.EX (V/m) @ t=0.9
2.5822009514110906
% es.EY (V/m) @ t=0.9
0.16259075212547158
% es.EZ (V/m) @ t=0.9
1.0438895640988335
% es.tEX (V/m) @ t=0.9
2.582200951411087
% es.tEY (V/m) @ t=0.9
0
% es.tEZ (V/m) @ t=0.9
1.043889564098838
% es.Ex (V/m) @ t=0.9
2.5822009514110906
% es.Ey (V/m) @ t=0.9
0.16259075212547158
% es.Ez (V/m) @ t=0.9
1.0438895640988335
% es.tEx (V/m) @ t=0.9
2.582200951411087
% es.tEy (V/m) @ t=0.9
0
% es.tEz (V/m) @ t=0.9
1.043889564098838
% V (V) @ t=0.9
0.013937928661134467
% es.normE (V/m) @ t=0.92
2.819823723815489
% es.EX (V/m) @ t=0.92
2.6058854663151703
% es.EY (V/m) @ t=0.92
0.16408207177583944
% es.EZ (V/m) @ t=0.92
1.0534643531976515
% es.tEX (V/m) @ t=0.92
2.6058854663151667
% es.tEY (V/m) @ t=0.92
0
% es.tEZ (V/m) @ t=0.92
1.053464353197656
% es.Ex (V/m) @ t=0.92
2.6058854663151703
% es.Ey (V/m) @ t=0.92
0.16408207177583944
% es.Ez (V/m) @ t=0.92
1.0534643531976515
% es.tEx (V/m) @ t=0.92
2.6058854663151667
% es.tEy (V/m) @ t=0.92
0
% es.tEz (V/m) @ t=0.92
1.053464353197656
% V (V) @ t=0.92
0.014065770190539046
% es.normE (V/m) @ t=0.94
2.845452694227622
% es.EX (V/m) @ t=0.94
2.6295699812192765
% es.EY (V/m) @ t=0.94
0.1655733914262233
% es.EZ (V/m) @ t=0.94
1.063039142296498
% es.tEX (V/m) @ t=0.94
2.6295699812192783
% es.tEY (V/m) @ t=0.94
0
% es.tEZ (V/m) @ t=0.94
1.0630391422964962
% es.Ex (V/m) @ t=0.94
2.6295699812192765
% es.Ey (V/m) @ t=0.94
0.1655733914262233
% es.Ez (V/m) @ t=0.94
1.063039142296498
% es.tEx (V/m) @ t=0.94
2.6295699812192783
% es.tEy (V/m) @ t=0.94
0
% es.tEz (V/m) @ t=0.94
1.0630391422964962
% V (V) @ t=0.94
0.014193611719943624
% es.normE (V/m) @ t=0.96
2.871081664639749
% es.EX (V/m) @ t=0.96
2.6532544961233766
% es.EY (V/m) @ t=0.96
0.1670647110766179
% es.EZ (V/m) @ t=0.96
1.0726139313953436
% es.tEX (V/m) @ t=0.96
2.653254496123374
% es.tEY (V/m) @ t=0.96
0
% es.tEZ (V/m) @ t=0.96
1.072613931395348
% es.Ex (V/m) @ t=0.96
2.6532544961233766
% es.Ey (V/m) @ t=0.96
0.1670647110766179
% es.Ez (V/m) @ t=0.96
1.0726139313953436
% es.tEx (V/m) @ t=0.96
2.653254496123374
% es.tEy (V/m) @ t=0.96
0
% es.tEz (V/m) @ t=0.96
1.072613931395348
% V (V) @ t=0.96
0.014321453249348196
% es.normE (V/m) @ t=0.98
2.8967106350518588
% es.EX (V/m) @ t=0.98
2.676939011027452
% es.EY (V/m) @ t=0.98
0.16855603072698588
% es.EZ (V/m) @ t=0.98
1.0821887204942051
% es.tEX (V/m) @ t=0.98
2.6769390110274376
% es.tEY (V/m) @ t=0.98
0
% es.tEZ (V/m) @ t=0.98
1.0821887204942033
% es.Ex (V/m) @ t=0.98
2.676939011027452
% es.Ey (V/m) @ t=0.98
0.16855603072698588
% es.Ez (V/m) @ t=0.98
1.0821887204942051
% es.tEx (V/m) @ t=0.98
2.6769390110274376
% es.tEy (V/m) @ t=0.98
0
% es.tEz (V/m) @ t=0.98
1.0821887204942033
% V (V) @ t=0.98
0.014449294778752777
% es.normE (V/m) @ t=1
2.9223396054639714
% es.EX (V/m) @ t=1
2.7006235259315456
% es.EY (V/m) @ t=1
0.17004735037734675
% es.EZ (V/m) @ t=1
1.091763509593033
% es.tEX (V/m) @ t=1
2.700623525931544
% es.tEY (V/m) @ t=1
0
% es.tEZ (V/m) @ t=1
1.0917635095930276
% es.Ex (V/m) @ t=1
2.7006235259315456
% es.Ey (V/m) @ t=1
0.17004735037734675
% es.Ez (V/m) @ t=1
1.091763509593033
% es.tEx (V/m) @ t=1
2.700623525931544
% es.tEy (V/m) @ t=1
0
% es.tEz (V/m) @ t=1
1.0917635095930276
% V (V) @ t=1
0.014577136308157353
% es.normE (V/m) @ t=1.02
2.947968575876091
% es.EX (V/m) @ t=1.02
2.7243080408356324
% es.EY (V/m) @ t=1.02
0.17153867002773782
% es.EZ (V/m) @ t=1.02
1.101338298691891
% es.tEX (V/m) @ t=1.02
2.724308040835645
% es.tEY (V/m) @ t=1.02
0
% es.tEZ (V/m) @ t=1.02
1.1013382986918892
% es.Ex (V/m) @ t=1.02
2.7243080408356324
% es.Ey (V/m) @ t=1.02
0.17153867002773782
% es.Ez (V/m) @ t=1.02
1.101338298691891
% es.tEx (V/m) @ t=1.02
2.724308040835645
% es.tEy (V/m) @ t=1.02
0
% es.tEz (V/m) @ t=1.02
1.1013382986918892
% V (V) @ t=1.02
0.01470497783756193
% es.normE (V/m) @ t=1.04
2.973597546288219
% es.EX (V/m) @ t=1.04
2.7479925557397458
% es.EY (V/m) @ t=1.04
0.173029989678104
% es.EZ (V/m) @ t=1.04
1.110913087790708
% es.tEX (V/m) @ t=1.04
2.747992555739742
% es.tEY (V/m) @ t=1.04
0
% es.tEZ (V/m) @ t=1.04
1.1109130877907063
% es.Ex (V/m) @ t=1.04
2.7479925557397458
% es.Ey (V/m) @ t=1.04
0.173029989678104
% es.Ez (V/m) @ t=1.04
1.110913087790708
% es.tEx (V/m) @ t=1.04
2.747992555739742
% es.tEy (V/m) @ t=1.04
0
% es.tEz (V/m) @ t=1.04