% Model:              1 neuron.mph
% Version:            COMSOL 6.0.0.405
% Date:               Mar 16 2023, 18:15
% Dimension:          0
% Nodes:              14017
% Expressions:        14017
% Description:        Electric field norm, Electric field, X component, Electric field, Y component, Electric field, Z component, Tangential electric field, X component, Tangential electric field, Y component, Tangential electric field, Z component, Electric field, x component, Electric field, y component, Electric field, z component, Tangential electric field, x component, Tangential electric field, y component, Tangential electric field, z component, Electric potential
% Length unit:        mm
% x
1.66
% y
12.2
% z
1
% es.normE (V/m) @ t=0
2.206454245982197
% es.EX (V/m) @ t=0
-0.7864633715715309
% es.EY (V/m) @ t=0
0.2498557697414261
% es.EZ (V/m) @ t=0
2.039997128883207
% es.tEX (V/m) @ t=0
-0.7864633715715451
% es.tEY (V/m) @ t=0
0
% es.tEZ (V/m) @ t=0
2.0399971288832095
% es.Ex (V/m) @ t=0
-0.7864633715715309
% es.Ey (V/m) @ t=0
0.2498557697414261
% es.Ez (V/m) @ t=0
2.039997128883207
% es.tEx (V/m) @ t=0
-0.7864633715715451
% es.tEy (V/m) @ t=0
0
% es.tEz (V/m) @ t=0
2.0399971288832095
% V (V) @ t=0
0.010742760374235815
% es.normE (V/m) @ t=0.02
1.9057569855523895
% es.EX (V/m) @ t=0.02
-0.6792835459882276
% es.EY (V/m) @ t=0.02
0.21580523547887465
% es.EZ (V/m) @ t=0.02
1.7619847707963796
% es.tEX (V/m) @ t=0.02
-0.6792835459882347
% es.tEY (V/m) @ t=0.02
0
% es.tEZ (V/m) @ t=0.02
1.7619847707963814
% es.Ex (V/m) @ t=0.02
-0.6792835459882276
% es.Ey (V/m) @ t=0.02
0.21580523547887465
% es.Ez (V/m) @ t=0.02
1.7619847707963796
% es.tEx (V/m) @ t=0.02
-0.6792835459882347
% es.tEy (V/m) @ t=0.02
0
% es.tEz (V/m) @ t=0.02
1.7619847707963814
% V (V) @ t=0.02
0.009278728815608359
% es.normE (V/m) @ t=0.04
1.923288562448489
% es.EX (V/m) @ t=0.04
-0.685532460129636
% es.EY (V/m) @ t=0.04
0.2177904858148605
% es.EZ (V/m) @ t=0.04
1.7781937479877472
% es.tEX (V/m) @ t=0.04
-0.6855324601296431
% es.tEY (V/m) @ t=0.04
0
% es.tEZ (V/m) @ t=0.04
1.7781937479877463
% es.Ex (V/m) @ t=0.04
-0.685532460129636
% es.Ey (V/m) @ t=0.04
0.2177904858148605
% es.Ez (V/m) @ t=0.04
1.7781937479877472
% es.tEx (V/m) @ t=0.04
-0.6855324601296431
% es.tEy (V/m) @ t=0.04
0
% es.tEz (V/m) @ t=0.04
1.7781937479877463
% V (V) @ t=0.04
0.009364086308437351
% es.normE (V/m) @ t=0.06
1.940962175759652
% es.EX (V/m) @ t=0.06
-0.6918320014447314
% es.EY (V/m) @ t=0.06
0.21979181880805387
% es.EZ (V/m) @ t=0.06
1.7945340462395558
% es.tEX (V/m) @ t=0.06
-0.6918320014447386
% es.tEY (V/m) @ t=0.06
0
% es.tEZ (V/m) @ t=0.06
1.7945340462395496
% es.Ex (V/m) @ t=0.06
-0.6918320014447314
% es.Ey (V/m) @ t=0.06
0.21979181880805387
% es.Ez (V/m) @ t=0.06
1.7945340462395558
% es.tEx (V/m) @ t=0.06
-0.6918320014447386
% es.tEy (V/m) @ t=0.06
0
% es.tEz (V/m) @ t=0.06
1.7945340462395496
% V (V) @ t=0.06
0.009450135240355702
% es.normE (V/m) @ t=0.08
1.9589426799211573
% es.EX (V/m) @ t=0.08
-0.6982409301272697
% es.EY (V/m) @ t=0.08
0.22182790645142503
% es.EZ (V/m) @ t=0.08
1.8111580831545533
% es.tEX (V/m) @ t=0.08
-0.6982409301272733
% es.tEY (V/m) @ t=0.08
0
% es.tEZ (V/m) @ t=0.08
1.8111580831545524
% es.Ex (V/m) @ t=0.08
-0.6982409301272697
% es.Ey (V/m) @ t=0.08
0.22182790645142503
% es.Ez (V/m) @ t=0.08
1.8111580831545533
% es.tEx (V/m) @ t=0.08
-0.6982409301272733
% es.tEy (V/m) @ t=0.08
0
% es.tEz (V/m) @ t=0.08
1.8111580831545524
% V (V) @ t=0.08
0.009537678576627774
% es.normE (V/m) @ t=0.1
1.9770594279900888
% es.EX (V/m) @ t=0.1
-0.7046984212297994
% es.EY (V/m) @ t=0.1
0.22387942338936417
% es.EZ (V/m) @ t=0.1
1.8279080855850367
% es.tEX (V/m) @ t=0.1
-0.7046984212298065
% es.tEY (V/m) @ t=0.1
0
% es.tEZ (V/m) @ t=0.1
1.8279080855850438
% es.Ex (V/m) @ t=0.1
-0.7046984212297994
% es.Ey (V/m) @ t=0.1
0.22387942338936417
% es.Ez (V/m) @ t=0.1
1.8279080855850367
% es.tEx (V/m) @ t=0.1
-0.7046984212298065
% es.tEy (V/m) @ t=0.1
0
% es.tEz (V/m) @ t=0.1
1.8279080855850438
% V (V) @ t=0.1
0.009625885352321987
% es.normE (V/m) @ t=0.12
1.9951761760590236
% es.EX (V/m) @ t=0.12
-0.7111559123323397
% es.EY (V/m) @ t=0.12
0.22593094032733707
% es.EZ (V/m) @ t=0.12
1.8446580880155157
% es.tEX (V/m) @ t=0.12
-0.7111559123323468
% es.tEY (V/m) @ t=0.12
0
% es.tEZ (V/m) @ t=0.12
1.8446580880155174
% es.Ex (V/m) @ t=0.12
-0.7111559123323397
% es.Ey (V/m) @ t=0.12
0.22593094032733707
% es.Ez (V/m) @ t=0.12
1.8446580880155157
% es.tEx (V/m) @ t=0.12
-0.7111559123323468
% es.tEy (V/m) @ t=0.12
0
% es.tEz (V/m) @ t=0.12
1.8446580880155174
% V (V) @ t=0.12
0.009714092128016199
% es.normE (V/m) @ t=0.14
2.0136623702204295
% es.EX (V/m) @ t=0.14
-0.7177450879537055
% es.EY (V/m) @ t=0.14
0.22802429158958692
% es.EZ (V/m) @ t=0.14
1.8617496651774461
% es.tEX (V/m) @ t=0.14
-0.7177450879537233
% es.tEY (V/m) @ t=0.14
0
% es.tEZ (V/m) @ t=0.14
1.8617496651774488
% es.Ex (V/m) @ t=0.14
-0.7177450879537055
% es.Ey (V/m) @ t=0.14
0.22802429158958692
% es.Ez (V/m) @ t=0.14
1.8617496651774461
% es.tEx (V/m) @ t=0.14
-0.7177450879537233
% es.tEy (V/m) @ t=0.14
0
% es.tEz (V/m) @ t=0.14
1.8617496651774488
% V (V) @ t=0.14
0.0098040975625719
% es.normE (V/m) @ t=0.16
2.0327150126704114
% es.EX (V/m) @ t=0.16
-0.7245361671054045
% es.EY (V/m) @ t=0.16
0.23018178477102702
% es.EZ (V/m) @ t=0.16
1.8793649572357722
% es.tEX (V/m) @ t=0.16
-0.7245361671054116
% es.tEY (V/m) @ t=0.16
0
% es.tEZ (V/m) @ t=0.16
1.8793649572357722
% es.Ex (V/m) @ t=0.16
-0.7245361671054045
% es.Ey (V/m) @ t=0.16
0.23018178477102702
% es.Ez (V/m) @ t=0.16
1.8793649572357722
% es.tEx (V/m) @ t=0.16
-0.7245361671054116
% es.tEy (V/m) @ t=0.16
0
% es.tEz (V/m) @ t=0.16
1.8793649572357722
% V (V) @ t=0.16
0.009896860766811904
% es.normE (V/m) @ t=0.18
2.051767655120398
% es.EX (V/m) @ t=0.18
-0.7313272462570926
% es.EY (V/m) @ t=0.18
0.2323392779524509
% es.EZ (V/m) @ t=0.18
1.8969802492941081
% es.tEX (V/m) @ t=0.18
-0.7313272462570997
% es.tEY (V/m) @ t=0.18
0
% es.tEZ (V/m) @ t=0.18
1.8969802492941064
% es.Ex (V/m) @ t=0.18
-0.7313272462570926
% es.Ey (V/m) @ t=0.18
0.2323392779524509
% es.Ez (V/m) @ t=0.18
1.8969802492941081
% es.tEx (V/m) @ t=0.18
-0.7313272462570997
% es.tEy (V/m) @ t=0.18
0
% es.tEz (V/m) @ t=0.18
1.8969802492941064
% V (V) @ t=0.18
0.00998962397105191
% es.normE (V/m) @ t=0.2
2.070820297570385
% es.EX (V/m) @ t=0.2
-0.7381183254087809
% es.EY (V/m) @ t=0.2
0.23449677113387768
% es.EZ (V/m) @ t=0.2
1.9145955413524467
% es.tEX (V/m) @ t=0.2
-0.7381183254087951
% es.tEY (V/m) @ t=0.2
0
% es.tEZ (V/m) @ t=0.2
1.914595541352444
% es.Ex (V/m) @ t=0.2
-0.7381183254087809
% es.Ey (V/m) @ t=0.2
0.23449677113387768
% es.Ez (V/m) @ t=0.2
1.9145955413524467
% es.tEx (V/m) @ t=0.2
-0.7381183254087951
% es.tEy (V/m) @ t=0.2
0
% es.tEz (V/m) @ t=0.2
1.914595541352444
% V (V) @ t=0.2
0.010082387175291916
% es.normE (V/m) @ t=0.22
2.0898729400203706
% es.EX (V/m) @ t=0.22
-0.7449094045604762
% es.EY (V/m) @ t=0.22
0.236654264315314
% es.EZ (V/m) @ t=0.22
1.9322108334107782
% es.tEX (V/m) @ t=0.22
-0.7449094045604833
% es.tEY (V/m) @ t=0.22
0
% es.tEZ (V/m) @ t=0.22
1.9322108334107728
% es.Ex (V/m) @ t=0.22
-0.7449094045604762
% es.Ey (V/m) @ t=0.22
0.236654264315314
% es.Ez (V/m) @ t=0.22
1.9322108334107782
% es.tEx (V/m) @ t=0.22
-0.7449094045604833
% es.tEy (V/m) @ t=0.22
0
% es.tEz (V/m) @ t=0.22
1.9322108334107728
% V (V) @ t=0.22
0.01017515037953192
% es.normE (V/m) @ t=0.24
2.1089255824703503
% es.EX (V/m) @ t=0.24
-0.7517004837121751
% es.EY (V/m) @ t=0.24
0.238811757496739
% es.EZ (V/m) @ t=0.24
1.9498261254691034
% es.tEX (V/m) @ t=0.24
-0.7517004837121858
% es.tEY (V/m) @ t=0.24
0
% es.tEZ (V/m) @ t=0.24
1.9498261254691052
% es.Ex (V/m) @ t=0.24
-0.7517004837121751
% es.Ey (V/m) @ t=0.24
0.238811757496739
% es.Ez (V/m) @ t=0.24
1.9498261254691034
% es.tEx (V/m) @ t=0.24
-0.7517004837121858
% es.tEy (V/m) @ t=0.24
0
% es.tEz (V/m) @ t=0.24
1.9498261254691052
% V (V) @ t=0.24
0.010267913583771927
% es.normE (V/m) @ t=0.26
2.1279782249203407
% es.EX (V/m) @ t=0.26
-0.7584915628638705
% es.EY (V/m) @ t=0.26
0.24096925067818442
% es.EZ (V/m) @ t=0.26
1.9674414175274402
% es.tEX (V/m) @ t=0.26
-0.7584915628638812
% es.tEY (V/m) @ t=0.26
0
% es.tEZ (V/m) @ t=0.26
1.9674414175274446
% es.Ex (V/m) @ t=0.26
-0.7584915628638705
% es.Ey (V/m) @ t=0.26
0.24096925067818442
% es.Ez (V/m) @ t=0.26
1.9674414175274402
% es.tEx (V/m) @ t=0.26
-0.7584915628638812
% es.tEy (V/m) @ t=0.26
0
% es.tEz (V/m) @ t=0.26
1.9674414175274446
% V (V) @ t=0.26
0.010360676788011933
% es.normE (V/m) @ t=0.28
2.148706564392608
% es.EX (V/m) @ t=0.28
-0.765879923605913
% es.EY (V/m) @ t=0.28
0.24331646741941348
% es.EZ (V/m) @ t=0.28
1.9866059910453364
% es.tEX (V/m) @ t=0.28
-0.7658799236059272
% es.tEY (V/m) @ t=0.28
0
% es.tEZ (V/m) @ t=0.28
1.986605991045339
% es.Ex (V/m) @ t=0.28
-0.765879923605913
% es.Ey (V/m) @ t=0.28
0.24331646741941348
% es.Ez (V/m) @ t=0.28
1.9866059910453364
% es.tEx (V/m) @ t=0.28
-0.7658799236059272
% es.tEy (V/m) @ t=0.28
0
% es.tEz (V/m) @ t=0.28
1.986605991045339
% V (V) @ t=0.28
0.010461596278963762
% es.normE (V/m) @ t=0.3
2.169856015827399
% es.EX (V/m) @ t=0.3
-0.7734183845267913
% es.EY (V/m) @ t=0.3
0.24571136274428684
% es.EZ (V/m) @ t=0.3
2.006159907593175
% es.tEX (V/m) @ t=0.3
-0.7734183845267985
% es.tEY (V/m) @ t=0.3
0
% es.tEZ (V/m) @ t=0.3
2.006159907593176
% es.Ex (V/m) @ t=0.3
-0.7734183845267913
% es.Ey (V/m) @ t=0.3
0.24571136274428684
% es.Ez (V/m) @ t=0.3
2.006159907593175
% es.tEx (V/m) @ t=0.3
-0.7734183845267985
% es.tEy (V/m) @ t=0.3
0
% es.tEz (V/m) @ t=0.3
2.006159907593176
% V (V) @ t=0.3
0.01056456549003698
% es.normE (V/m) @ t=0.32
2.1910054672621966
% es.EX (V/m) @ t=0.32
-0.7809568454476805
% es.EY (V/m) @ t=0.32
0.24810625806914066
% es.EZ (V/m) @ t=0.32
2.025713824141019
% es.tEX (V/m) @ t=0.32
-0.7809568454476841
% es.tEY (V/m) @ t=0.32
0
% es.tEZ (V/m) @ t=0.32
2.025713824141018
% es.Ex (V/m) @ t=0.32
-0.7809568454476805
% es.Ey (V/m) @ t=0.32
0.24810625806914066
% es.Ez (V/m) @ t=0.32
2.025713824141019
% es.tEx (V/m) @ t=0.32
-0.7809568454476841
% es.tEy (V/m) @ t=0.32
0
% es.tEz (V/m) @ t=0.32
2.025713824141018
% V (V) @ t=0.32
0.0106675347011102
% es.normE (V/m) @ t=0.34
2.2121549186969793
% es.EX (V/m) @ t=0.34
-0.7884953063685485
% es.EY (V/m) @ t=0.34
0.2505011533940149
% es.EZ (V/m) @ t=0.34
2.0452677406888506
% es.tEX (V/m) @ t=0.34
-0.7884953063685627
% es.tEY (V/m) @ t=0.34
0
% es.tEZ (V/m) @ t=0.34
2.0452677406888515
% es.Ex (V/m) @ t=0.34
-0.7884953063685485
% es.Ey (V/m) @ t=0.34
0.2505011533940149
% es.Ez (V/m) @ t=0.34
2.0452677406888506
% es.tEx (V/m) @ t=0.34
-0.7884953063685627
% es.tEy (V/m) @ t=0.34
0
% es.tEz (V/m) @ t=0.34
2.0452677406888515
% V (V) @ t=0.34
0.010770503912183418
% es.normE (V/m) @ t=0.36
2.233304370131772
% es.EX (V/m) @ t=0.36
-0.7960337672894338
% es.EY (V/m) @ t=0.36
0.25289604871887916
% es.EZ (V/m) @ t=0.36
2.064821657236683
% es.tEX (V/m) @ t=0.36
-0.7960337672894409
% es.tEY (V/m) @ t=0.36
0
% es.tEZ (V/m) @ t=0.36
2.064821657236685
% es.Ex (V/m) @ t=0.36
-0.7960337672894338
% es.Ey (V/m) @ t=0.36
0.25289604871887916
% es.Ez (V/m) @ t=0.36
2.064821657236683
% es.tEx (V/m) @ t=0.36
-0.7960337672894409
% es.tEy (V/m) @ t=0.36
0
% es.tEz (V/m) @ t=0.36
2.064821657236685
% V (V) @ t=0.36
0.010873473123256636
% es.normE (V/m) @ t=0.38
2.2544538215665657
% es.EX (V/m) @ t=0.38
-0.8035722282103086
% es.EY (V/m) @ t=0.38
0.2552909440437463
% es.EZ (V/m) @ t=0.38
2.084375573784521
% es.tEX (V/m) @ t=0.38
-0.8035722282103193
% es.tEY (V/m) @ t=0.38
0
% es.tEZ (V/m) @ t=0.38
2.084375573784518
% es.Ex (V/m) @ t=0.38
-0.8035722282103086
% es.Ey (V/m) @ t=0.38
0.2552909440437463
% es.Ez (V/m) @ t=0.38
2.084375573784521
% es.tEx (V/m) @ t=0.38
-0.8035722282103193
% es.tEy (V/m) @ t=0.38
0
% es.tEz (V/m) @ t=0.38
2.084375573784518
% V (V) @ t=0.38
0.010976442334329855
% es.normE (V/m) @ t=0.4
2.2756032730013507
% es.EX (V/m) @ t=0.4
-0.81111068913118
% es.EY (V/m) @ t=0.4
0.25768583936858946
% es.EZ (V/m) @ t=0.4
2.1039294903323524
% es.tEX (V/m) @ t=0.4
-0.8111106891311978
% es.tEY (V/m) @ t=0.4
0
% es.tEZ (V/m) @ t=0.4
2.103929490332355
% es.Ex (V/m) @ t=0.4
-0.81111068913118
% es.Ey (V/m) @ t=0.4
0.25768583936858946
% es.Ez (V/m) @ t=0.4
2.1039294903323524
% es.tEx (V/m) @ t=0.4
-0.8111106891311978
% es.tEy (V/m) @ t=0.4
0
% es.tEz (V/m) @ t=0.4
2.103929490332355
% V (V) @ t=0.4
0.011079411545403074
% es.normE (V/m) @ t=0.42
2.29675272443614
% es.EX (V/m) @ t=0.42
-0.8186491500520406
% es.EY (V/m) @ t=0.42
0.26008073469346527
% es.EZ (V/m) @ t=0.42
2.1234834068801858
% es.tEX (V/m) @ t=0.42
-0.8186491500520549
% es.tEY (V/m) @ t=0.42
0
% es.tEZ (V/m) @ t=0.42
2.123483406880185
% es.Ex (V/m) @ t=0.42
-0.8186491500520406
% es.Ey (V/m) @ t=0.42
0.26008073469346527
% es.Ez (V/m) @ t=0.42
2.1234834068801858
% es.tEx (V/m) @ t=0.42
-0.8186491500520549
% es.tEy (V/m) @ t=0.42
0
% es.tEz (V/m) @ t=0.42
2.123483406880185
% V (V) @ t=0.42
0.011182380756476295
% es.normE (V/m) @ t=0.44
2.3179021758709446
% es.EX (V/m) @ t=0.44
-0.8261876109729406
% es.EY (V/m) @ t=0.44
0.2624756300183264
% es.EZ (V/m) @ t=0.44
2.1430373234280227
% es.tEX (V/m) @ t=0.44
-0.8261876109729477
% es.tEY (V/m) @ t=0.44
0
% es.tEZ (V/m) @ t=0.44
2.1430373234280236
% es.Ex (V/m) @ t=0.44
-0.8261876109729406
% es.Ey (V/m) @ t=0.44
0.2624756300183264
% es.Ez (V/m) @ t=0.44
2.1430373234280227
% es.tEx (V/m) @ t=0.44
-0.8261876109729477
% es.tEy (V/m) @ t=0.44
0
% es.tEz (V/m) @ t=0.44
2.1430373234280236
% V (V) @ t=0.44
0.011285349967549515
% es.normE (V/m) @ t=0.46
2.339051627305744
% es.EX (V/m) @ t=0.46
-0.8337260718938049
% es.EY (V/m) @ t=0.46
0.26487052534318556
% es.EZ (V/m) @ t=0.46
2.162591239975864
% es.tEX (V/m) @ t=0.46
-0.833726071893812
% es.tEY (V/m) @ t=0.46
0
% es.tEZ (V/m) @ t=0.46
2.1625912399758622
% es.Ex (V/m) @ t=0.46
-0.8337260718938049
% es.Ey (V/m) @ t=0.46
0.26487052534318556
% es.Ez (V/m) @ t=0.46
2.162591239975864
% es.tEx (V/m) @ t=0.46
-0.833726071893812
% es.tEy (V/m) @ t=0.46
0
% es.tEz (V/m) @ t=0.46
2.1625912399758622
% V (V) @ t=0.46
0.011388319178622734
% es.normE (V/m) @ t=0.48
2.3602010787405456
% es.EX (V/m) @ t=0.48
-0.8412645328146762
% es.EY (V/m) @ t=0.48
0.2672654206680749
% es.EZ (V/m) @ t=0.48
2.1821451565237
% es.tEX (V/m) @ t=0.48
-0.8412645328146904
% es.tEY (V/m) @ t=0.48
0
% es.tEZ (V/m) @ t=0.48
2.1821451565237027
% es.Ex (V/m) @ t=0.48
-0.8412645328146762
% es.Ey (V/m) @ t=0.48
0.2672654206680749
% es.Ez (V/m) @ t=0.48
2.1821451565237
% es.tEx (V/m) @ t=0.48
-0.8412645328146904
% es.tEy (V/m) @ t=0.48
0
% es.tEz (V/m) @ t=0.48
2.1821451565237027
% V (V) @ t=0.48
0.011491288389695951
% es.normE (V/m) @ t=0.5
2.3813505301753364
% es.EX (V/m) @ t=0.5
-0.8488029937355476
% es.EY (V/m) @ t=0.5
0.26966031599291984
% es.EZ (V/m) @ t=0.5
2.20169907307153
% es.tEX (V/m) @ t=0.5
-0.8488029937355618
% es.tEY (V/m) @ t=0.5
0
% es.tEZ (V/m) @ t=0.5
2.201699073071538
% es.Ex (V/m) @ t=0.5
-0.8488029937355476
% es.Ey (V/m) @ t=0.5
0.26966031599291984
% es.Ez (V/m) @ t=0.5
2.20169907307153
% es.tEx (V/m) @ t=0.5
-0.8488029937355618
% es.tEy (V/m) @ t=0.5
0
% es.tEz (V/m) @ t=0.5
2.201699073071538
% V (V) @ t=0.5
0.01159425760076917
% es.normE (V/m) @ t=0.52
2.402499981610144
% es.EX (V/m) @ t=0.52
-0.8563414546564224
% es.EY (V/m) @ t=0.52
0.2720552113177923
% es.EZ (V/m) @ t=0.52
2.221252989619371
% es.tEX (V/m) @ t=0.52
-0.8563414546564331
% es.tEY (V/m) @ t=0.52
0
% es.tEZ (V/m) @ t=0.52
2.2212529896193676
% es.Ex (V/m) @ t=0.52
-0.8563414546564224
% es.Ey (V/m) @ t=0.52
0.2720552113177923
% es.Ez (V/m) @ t=0.52
2.221252989619371
% es.tEx (V/m) @ t=0.52
-0.8563414546564331
% es.tEy (V/m) @ t=0.52
0
% es.tEz (V/m) @ t=0.52
2.2212529896193676
% V (V) @ t=0.52
0.011697226811842388
% es.normE (V/m) @ t=0.54
2.4250887350973813
% es.EX (V/m) @ t=0.54
-0.8643929368172397
% es.EY (V/m) @ t=0.54
0.27461312094595436
% es.EZ (V/m) @ t=0.54
2.2421376251876373
% es.tEX (V/m) @ t=0.54
-0.8643929368172504
% es.tEY (V/m) @ t=0.54
0
% es.tEZ (V/m) @ t=0.54
2.2421376251876417
% es.Ex (V/m) @ t=0.54
-0.8643929368172397
% es.Ey (V/m) @ t=0.54
0.27461312094595436
% es.Ez (V/m) @ t=0.54
2.2421376251876373
% es.tEx (V/m) @ t=0.54
-0.8643929368172504
% es.tEy (V/m) @ t=0.54
0
% es.tEz (V/m) @ t=0.54
2.2421376251876417
% V (V) @ t=0.54
0.011807205997765614
% es.normE (V/m) @ t=0.56
2.4486054902373944
% es.EX (V/m) @ t=0.56
-0.8727751935765773
% es.EY (V/m) @ t=0.56
0.2772761353661548
% es.EZ (V/m) @ t=0.56
2.263880252619572
% es.tEX (V/m) @ t=0.56
-0.8727751935765808
% es.tEY (V/m) @ t=0.56
0
% es.tEZ (V/m) @ t=0.56
2.263880252619577
% es.Ex (V/m) @ t=0.56
-0.8727751935765773
% es.Ey (V/m) @ t=0.56
0.2772761353661548
% es.Ez (V/m) @ t=0.56
2.263880252619572
% es.tEx (V/m) @ t=0.56
-0.8727751935765808
% es.tEy (V/m) @ t=0.56
0
% es.tEz (V/m) @ t=0.56
2.263880252619577
% V (V) @ t=0.56
0.011921704921735289
% es.normE (V/m) @ t=0.58
2.472122245377413
% es.EX (V/m) @ t=0.58
-0.8811574503359154
% es.EY (V/m) @ t=0.58
0.2799391497863424
% es.EZ (V/m) @ t=0.58
2.2856228800515153
% es.tEX (V/m) @ t=0.58
-0.8811574503359332
% es.tEY (V/m) @ t=0.58
0
% es.tEZ (V/m) @ t=0.58
2.2856228800515197
% es.Ex (V/m) @ t=0.58
-0.8811574503359154
% es.Ey (V/m) @ t=0.58
0.2799391497863424
% es.Ez (V/m) @ t=0.58
2.2856228800515153
% es.tEx (V/m) @ t=0.58
-0.8811574503359332
% es.tEy (V/m) @ t=0.58
0
% es.tEz (V/m) @ t=0.58
2.2856228800515197
% V (V) @ t=0.58
0.012036203845704967
% es.normE (V/m) @ t=0.6
2.4956390005174267
% es.EX (V/m) @ t=0.6
-0.8895397070952566
% es.EY (V/m) @ t=0.6
0.2826021642065295
% es.EZ (V/m) @ t=0.6
2.30736550748345
% es.tEX (V/m) @ t=0.6
-0.8895397070952709
% es.tEY (V/m) @ t=0.6
0
% es.tEZ (V/m) @ t=0.6
2.307365507483448
% es.Ex (V/m) @ t=0.6
-0.8895397070952566
% es.Ey (V/m) @ t=0.6
0.2826021642065295
% es.Ez (V/m) @ t=0.6
2.30736550748345
% es.tEx (V/m) @ t=0.6
-0.8895397070952709
% es.tEy (V/m) @ t=0.6
0
% es.tEz (V/m) @ t=0.6
2.307365507483448
% V (V) @ t=0.6
0.012150702769674646
% es.normE (V/m) @ t=0.62
2.5191557556574438
% es.EX (V/m) @ t=0.62
-0.8979219638546019
% es.EY (V/m) @ t=0.62
0.28526517862672685
% es.EZ (V/m) @ t=0.62
2.329108134915387
% es.tEX (V/m) @ t=0.62
-0.8979219638546161
% es.tEY (V/m) @ t=0.62
0
% es.tEZ (V/m) @ t=0.62
2.3291081349153835
% es.Ex (V/m) @ t=0.62
-0.8979219638546019
% es.Ey (V/m) @ t=0.62
0.28526517862672685
% es.Ez (V/m) @ t=0.62
2.329108134915387
% es.tEx (V/m) @ t=0.62
-0.8979219638546161
% es.tEy (V/m) @ t=0.62
0
% es.tEz (V/m) @ t=0.62
2.3291081349153835
% V (V) @ t=0.62
0.012265201693644324
% es.normE (V/m) @ t=0.64
2.542672510797449
% es.EX (V/m) @ t=0.64
-0.9063042206139396
% es.EY (V/m) @ t=0.64
0.28792819304691863
% es.EZ (V/m) @ t=0.64
2.3508507623473127
% es.tEX (V/m) @ t=0.64
-0.9063042206139538
% es.tEY (V/m) @ t=0.64
0
% es.tEZ (V/m) @ t=0.64
2.3508507623473083
% es.Ex (V/m) @ t=0.64
-0.9063042206139396
% es.Ey (V/m) @ t=0.64
0.28792819304691863
% es.Ez (V/m) @ t=0.64
2.3508507623473127
% es.tEx (V/m) @ t=0.64
-0.9063042206139538
% es.tEy (V/m) @ t=0.64
0
% es.tEz (V/m) @ t=0.64
2.3508507623473083
% V (V) @ t=0.64
0.012379700617614002
% es.normE (V/m) @ t=0.66
2.5661892659374628
% es.EX (V/m) @ t=0.66
-0.9146864773732706
% es.EY (V/m) @ t=0.66
0.29059120746710776
% es.EZ (V/m) @ t=0.66
2.3725933897792526
% es.tEX (V/m) @ t=0.66
-0.9146864773732848
% es.tEY (V/m) @ t=0.66
0
% es.tEZ (V/m) @ t=0.66
2.3725933897792544
% es.Ex (V/m) @ t=0.66
-0.9146864773732706
% es.Ey (V/m) @ t=0.66
0.29059120746710776
% es.Ez (V/m) @ t=0.66
2.3725933897792526
% es.tEx (V/m) @ t=0.66
-0.9146864773732848
% es.tEy (V/m) @ t=0.66
0
% es.tEz (V/m) @ t=0.66
2.3725933897792544
% V (V) @ t=0.66
0.012494199541583683
% es.normE (V/m) @ t=0.68
2.5897060210774727
% es.EX (V/m) @ t=0.68
-0.9230687341326154
% es.EY (V/m) @ t=0.68
0.29325422188730665
% es.EZ (V/m) @ t=0.68
2.39433601721118
% es.tEX (V/m) @ t=0.68
-0.9230687341326296
% es.tEY (V/m) @ t=0.68
0
% es.tEZ (V/m) @ t=0.68
2.3943360172111827
% es.Ex (V/m) @ t=0.68
-0.9230687341326154
% es.Ey (V/m) @ t=0.68
0.29325422188730665
% es.Ez (V/m) @ t=0.68
2.39433601721118
% es.tEx (V/m) @ t=0.68
-0.9230687341326296
% es.tEy (V/m) @ t=0.68
0
% es.tEz (V/m) @ t=0.68
2.3943360172111827
% V (V) @ t=0.68
0.012608698465553361
% es.normE (V/m) @ t=0.7
2.613222776217486
% es.EX (V/m) @ t=0.7
-0.9314509908919535
% es.EY (V/m) @ t=0.7
0.29591723630750044
% es.EZ (V/m) @ t=0.7
2.4160786446431137
% es.tEX (V/m) @ t=0.7
-0.9314509908919677
% es.tEY (V/m) @ t=0.7
0
% es.tEZ (V/m) @ t=0.7
2.4160786446431146
% es.Ex (V/m) @ t=0.7
-0.9314509908919535
% es.Ey (V/m) @ t=0.7
0.29591723630750044
% es.Ez (V/m) @ t=0.7
2.4160786446431137
% es.tEx (V/m) @ t=0.7
-0.9314509908919677
% es.tEy (V/m) @ t=0.7
0
% es.tEz (V/m) @ t=0.7
2.4160786446431146
% V (V) @ t=0.7
0.012723197389523037
% es.normE (V/m) @ t=0.72
2.636739531357504
% es.EX (V/m) @ t=0.72
-0.9398332476513018
% es.EY (V/m) @ t=0.72
0.2985802507276867
% es.EZ (V/m) @ t=0.72
2.43782127207505
% es.tEX (V/m) @ t=0.72
-0.9398332476513125
% es.tEY (V/m) @ t=0.72
0
% es.tEZ (V/m) @ t=0.72
2.437821272075052
% es.Ex (V/m) @ t=0.72
-0.9398332476513018
% es.Ey (V/m) @ t=0.72
0.2985802507276867
% es.Ez (V/m) @ t=0.72
2.43782127207505
% es.tEx (V/m) @ t=0.72
-0.9398332476513125
% es.tEy (V/m) @ t=0.72
0
% es.tEz (V/m) @ t=0.72
2.437821272075052
% V (V) @ t=0.72
0.012837696313492717
% es.normE (V/m) @ t=0.74
2.6602562864975194
% es.EX (V/m) @ t=0.74
-0.9482155044106504
% es.EY (V/m) @ t=0.74
0.3012432651478776
% es.EZ (V/m) @ t=0.74
2.459563899506983
% es.tEX (V/m) @ t=0.74
-0.9482155044106575
% es.tEY (V/m) @ t=0.74
0
% es.tEZ (V/m) @ t=0.74
2.4595638995069944
% es.Ex (V/m) @ t=0.74
-0.9482155044106504
% es.Ey (V/m) @ t=0.74
0.3012432651478776
% es.Ez (V/m) @ t=0.74
2.459563899506983
% es.tEx (V/m) @ t=0.74
-0.9482155044106575
% es.tEy (V/m) @ t=0.74
0
% es.tEz (V/m) @ t=0.74
2.4595638995069944
% V (V) @ t=0.74
0.012952195237462395
% es.normE (V/m) @ t=0.76
2.683773041637533
% es.EX (V/m) @ t=0.76
-0.9565977611699954
% es.EY (V/m) @ t=0.76
0.30390627956805427
% es.EZ (V/m) @ t=0.76
2.4813065269389156
% es.tEX (V/m) @ t=0.76
-0.9565977611700025
% es.tEY (V/m) @ t=0.76
0
% es.tEZ (V/m) @ t=0.76
2.4813065269389174
% es.Ex (V/m) @ t=0.76
-0.9565977611699954
% es.Ey (V/m) @ t=0.76
0.30390627956805427
% es.Ez (V/m) @ t=0.76
2.4813065269389156
% es.tEx (V/m) @ t=0.76
-0.9565977611700025
% es.tEy (V/m) @ t=0.76
0
% es.tEz (V/m) @ t=0.76
2.4813065269389174
% V (V) @ t=0.76
0.013066694161432075
% es.normE (V/m) @ t=0.78
2.707289796777546
% es.EX (V/m) @ t=0.78
-0.9649800179293369
% es.EY (V/m) @ t=0.78
0.3065692939882445
% es.EZ (V/m) @ t=0.78
2.5030491543708493
% es.tEX (V/m) @ t=0.78
-0.9649800179293546
% es.tEY (V/m) @ t=0.78
0
% es.tEZ (V/m) @ t=0.78
2.503049154370851
% es.Ex (V/m) @ t=0.78
-0.9649800179293369
% es.Ey (V/m) @ t=0.78
0.3065692939882445
% es.Ez (V/m) @ t=0.78
2.5030491543708493
% es.tEx (V/m) @ t=0.78
-0.9649800179293546
% es.tEy (V/m) @ t=0.78
0
% es.tEz (V/m) @ t=0.78
2.503049154370851
% V (V) @ t=0.78
0.013181193085401752
% es.normE (V/m) @ t=0.8
2.7319222924673583
% es.EX (V/m) @ t=0.8
-0.9737599668214751
% es.EY (V/m) @ t=0.8
0.3093586415676013
% es.EZ (V/m) @ t=0.8
2.5258233499806417
% es.tEX (V/m) @ t=0.8
-0.9737599668214894
% es.tEY (V/m) @ t=0.8
0
% es.tEZ (V/m) @ t=0.8
2.5258233499806426
% es.Ex (V/m) @ t=0.8
-0.9737599668214751
% es.Ey (V/m) @ t=0.8
0.3093586415676013
% es.Ez (V/m) @ t=0.8
2.5258233499806417
% es.tEx (V/m) @ t=0.8
-0.9737599668214894
% es.tEy (V/m) @ t=0.8
0
% es.tEz (V/m) @ t=0.8
2.5258233499806426
% V (V) @ t=0.8
0.013301123396445121
% es.normE (V/m) @ t=0.82
2.758115846506829
% es.EX (V/m) @ t=0.82
-0.9830963359536524
% es.EY (V/m) @ t=0.82
0.3123247447851609
% es.EZ (V/m) @ t=0.82
2.550040836432167
% es.tEX (V/m) @ t=0.82
-0.9830963359536666
% es.tEY (V/m) @ t=0.82
0
% es.tEZ (V/m) @ t=0.82
2.5500408364321707
% es.Ex (V/m) @ t=0.82
-0.9830963359536524
% es.Ey (V/m) @ t=0.82
0.3123247447851609
% es.Ez (V/m) @ t=0.82
2.550040836432167
% es.tEx (V/m) @ t=0.82
-0.9830963359536666
% es.tEy (V/m) @ t=0.82
0
% es.tEz (V/m) @ t=0.82
2.5500408364321707
% V (V) @ t=0.82
0.013428652886476124
% es.normE (V/m) @ t=0.84
2.784309400546316
% es.EX (V/m) @ t=0.84
-0.9924327050858368
% es.EY (V/m) @ t=0.84
0.31529084800271967
% es.EZ (V/m) @ t=0.84
2.574258322883707
% es.tEX (V/m) @ t=0.84
-0.992432705085851
% es.tEY (V/m) @ t=0.84
0
% es.tEZ (V/m) @ t=0.84
2.5742583228837006
% es.Ex (V/m) @ t=0.84
-0.9924327050858368
% es.Ey (V/m) @ t=0.84
0.31529084800271967
% es.Ez (V/m) @ t=0.84
2.574258322883707
% es.tEx (V/m) @ t=0.84
-0.992432705085851
% es.tEy (V/m) @ t=0.84
0
% es.tEz (V/m) @ t=0.84
2.5742583228837006
% V (V) @ t=0.84
0.013556182376507133
% es.normE (V/m) @ t=0.86
2.8105029545857905
% es.EX (V/m) @ t=0.86
-1.0017690742180143
% es.EY (V/m) @ t=0.86
0.3182569512202822
% es.EZ (V/m) @ t=0.86
2.598475809335234
% es.tEX (V/m) @ t=0.86
-1.0017690742180285
% es.tEY (V/m) @ t=0.86
0
% es.tEZ (V/m) @ t=0.86
2.5984758093352305
% es.Ex (V/m) @ t=0.86
-1.0017690742180143
% es.Ey (V/m) @ t=0.86
0.3182569512202822
% es.Ez (V/m) @ t=0.86
2.598475809335234
% es.tEx (V/m) @ t=0.86
-1.0017690742180285
% es.tEy (V/m) @ t=0.86
0
% es.tEz (V/m) @ t=0.86
2.5984758093352305
% V (V) @ t=0.86
0.013683711866538138
% es.normE (V/m) @ t=0.88
2.8366965086252733
% es.EX (V/m) @ t=0.88
-1.0111054433501987
% es.EY (V/m) @ t=0.88
0.32122305443783294
% es.EZ (V/m) @ t=0.88
2.622693295786772
% es.tEX (V/m) @ t=0.88
-1.0111054433502058
% es.tEY (V/m) @ t=0.88
0
% es.tEZ (V/m) @ t=0.88
2.622693295786771
% es.Ex (V/m) @ t=0.88
-1.0111054433501987
% es.Ey (V/m) @ t=0.88
0.32122305443783294
% es.Ez (V/m) @ t=0.88
2.622693295786772
% es.tEx (V/m) @ t=0.88
-1.0111054433502058
% es.tEy (V/m) @ t=0.88
0
% es.tEz (V/m) @ t=0.88
2.622693295786771
% V (V) @ t=0.88
0.013811241356569144
% es.normE (V/m) @ t=0.9
2.862890062664735
% es.EX (V/m) @ t=0.9
-1.0204418124823618
% es.EY (V/m) @ t=0.9
0.324189157655405
% es.EZ (V/m) @ t=0.9
2.6469107822382902
% es.tEX (V/m) @ t=0.9
-1.020441812482376
% es.tEY (V/m) @ t=0.9
0
% es.tEZ (V/m) @ t=0.9
2.646910782238301
% es.Ex (V/m) @ t=0.9
-1.0204418124823618
% es.Ey (V/m) @ t=0.9
0.324189157655405
% es.Ez (V/m) @ t=0.9
2.6469107822382902
% es.tEx (V/m) @ t=0.9
-1.020441812482376
% es.tEy (V/m) @ t=0.9
0
% es.tEz (V/m) @ t=0.9
2.646910782238301
% V (V) @ t=0.9
0.013938770846600152
% es.normE (V/m) @ t=0.92
2.8890836167042195
% es.EX (V/m) @ t=0.92
-1.0297781816145393
% es.EY (V/m) @ t=0.92
0.3271552608729533
% es.EZ (V/m) @ t=0.92
2.6711282686898308
% es.tEX (V/m) @ t=0.92
-1.0297781816145535
% es.tEY (V/m) @ t=0.92
0
% es.tEZ (V/m) @ t=0.92
2.6711282686898308
% es.Ex (V/m) @ t=0.92
-1.0297781816145393
% es.Ey (V/m) @ t=0.92
0.3271552608729533
% es.Ez (V/m) @ t=0.92
2.6711282686898308
% es.tEx (V/m) @ t=0.92
-1.0297781816145535
% es.tEy (V/m) @ t=0.92
0
% es.tEz (V/m) @ t=0.92
2.6711282686898308
% V (V) @ t=0.92
0.014066300336631159
% es.normE (V/m) @ t=0.94
2.915277170743696
% es.EX (V/m) @ t=0.94
-1.039114550746731
% es.EY (V/m) @ t=0.94
0.3301213640905023
% es.EZ (V/m) @ t=0.94
2.695345755141357
% es.tEX (V/m) @ t=0.94
-1.0391145507467452
% es.tEY (V/m) @ t=0.94
0
% es.tEZ (V/m) @ t=0.94
2.6953457551413695
% es.Ex (V/m) @ t=0.94
-1.039114550746731
% es.Ey (V/m) @ t=0.94
0.3301213640905023
% es.Ez (V/m) @ t=0.94
2.695345755141357
% es.tEx (V/m) @ t=0.94
-1.0391145507467452
% es.tEy (V/m) @ t=0.94
0
% es.tEz (V/m) @ t=0.94
2.6953457551413695
% V (V) @ t=0.94
0.014193829826662167
% es.normE (V/m) @ t=0.96
2.9414707247831724
% es.EX (V/m) @ t=0.96
-1.0484509198788938
% es.EY (V/m) @ t=0.96
0.33308746730807237
% es.EZ (V/m) @ t=0.96
2.7195632415928914
% es.tEX (V/m) @ t=0.96
-1.048450919878908
% es.tEY (V/m) @ t=0.96
0
% es.tEZ (V/m) @ t=0.96
2.7195632415928905
% es.Ex (V/m) @ t=0.96
-1.0484509198788938
% es.Ey (V/m) @ t=0.96
0.33308746730807237
% es.Ez (V/m) @ t=0.96
2.7195632415928914
% es.tEx (V/m) @ t=0.96
-1.048450919878908
% es.tEy (V/m) @ t=0.96
0
% es.tEz (V/m) @ t=0.96
2.7195632415928905
% V (V) @ t=0.96
0.014321359316693169
% es.normE (V/m) @ t=0.98
2.967664278822654
% es.EX (V/m) @ t=0.98
-1.0577872890110678
% es.EY (V/m) @ t=0.98
0.33605357052562423
% es.EZ (V/m) @ t=0.98
2.74378072804443
% es.tEX (V/m) @ t=0.98
-1.0577872890110855
% es.tEY (V/m) @ t=0.98
0
% es.tEZ (V/m) @ t=0.98
2.743780728044433
% es.Ex (V/m) @ t=0.98
-1.0577872890110678
% es.Ey (V/m) @ t=0.98
0.33605357052562423
% es.Ez (V/m) @ t=0.98
2.74378072804443
% es.tEx (V/m) @ t=0.98
-1.0577872890110855
% es.tEy (V/m) @ t=0.98
0
% es.tEz (V/m) @ t=0.98
2.743780728044433
% V (V) @ t=0.98
0.01444888880672418
% es.normE (V/m) @ t=1
2.993857832862134
% es.EX (V/m) @ t=1
-1.0671236581432595
% es.EY (V/m) @ t=1
0.339019673743177
% es.EZ (V/m) @ t=1
2.767998214495959
% es.tEX (V/m) @ t=1
-1.0671236581432773
% es.tEY (V/m) @ t=1
0
% es.tEZ (V/m) @ t=1
2.767998214495959
% es.Ex (V/m) @ t=1
-1.0671236581432595
% es.Ey (V/m) @ t=1
0.339019673743177
% es.Ez (V/m) @ t=1
2.767998214495959
% es.tEx (V/m) @ t=1
-1.0671236581432773
% es.tEy (V/m) @ t=1
0
% es.tEz (V/m) @ t=1
2.767998214495959
% V (V) @ t=1
0.014576418296755184
% es.normE (V/m) @ t=1.02
3.020051386901608
% es.EX (V/m) @ t=1.02
-1.0764600272754261
% es.EY (V/m) @ t=1.02
0.3419857769607366
% es.EZ (V/m) @ t=1.02
2.79221570094749
% es.tEX (V/m) @ t=1.02
-1.0764600272754545
% es.tEY (V/m) @ t=1.02
0
% es.tEZ (V/m) @ t=1.02
2.7922157009474944
% es.Ex (V/m) @ t=1.02
-1.0764600272754261
% es.Ey (V/m) @ t=1.02
0.3419857769607366
% es.Ez (V/m) @ t=1.02
2.79221570094749
% es.tEx (V/m) @ t=1.02
-1.0764600272754545
% es.tEy (V/m) @ t=1.02
0
% es.tEz (V/m) @ t=1.02
2.7922157009474944
% V (V) @ t=1.02
0.014703947786786188
% es.normE (V/m) @ t=1.04
3.0462449409410777
% es.EX (V/m) @ t=1.04
-1.0857963964075998
% es.EY (V/m) @ t=1.04
0.3449518801782978
% es.EZ (V/m) @ t=1.04
2.8164331873990145
% es.tEX (V/m) @ t=1.04
-1.0857963964076176
% es.tEY (V/m) @ t=1.04
0
% es.tEZ (V/m) @ t=1.04
2.8164331873990225
% es.Ex (V/m) @ t=1.04