% Model:              1 neuron.mph
% Version:            COMSOL 6.1.0.252
% Date:               Mar 18 2023, 13:27
% Dimension:          0
% Nodes:              14017
% Expressions:        14017
% Description:        Electric field norm, Electric field, X component, Electric field, Y component, Electric field, Z component, Tangential electric field, X component, Tangential electric field, Y component, Tangential electric field, Z component, Electric field, x component, Electric field, y component, Electric field, z component, Tangential electric field, x component, Tangential electric field, y component, Tangential electric field, z component, Electric potential
% Length unit:        mm
% x
1.66
% y
12.2
% z
1
% es.normE (V/m) @ t=0
2.247600461530304
% es.EX (V/m) @ t=0
-0.801130252124458
% es.EY (V/m) @ t=0
0.2545150062404513
% es.EZ (V/m) @ t=0
2.0780389249483475
% es.tEX (V/m) @ t=0
-0.8011302521244651
% es.tEY (V/m) @ t=0
0
% es.tEZ (V/m) @ t=0
2.0780389249483378
% es.Ex (V/m) @ t=0
-0.801130252124458
% es.Ey (V/m) @ t=0
0.2545150062404513
% es.Ez (V/m) @ t=0
2.0780389249483475
% es.tEx (V/m) @ t=0
-0.8011302521244651
% es.tEy (V/m) @ t=0
0
% es.tEz (V/m) @ t=0
2.0780389249483378
% V (V) @ t=0
0.010943093807381121
% es.normE (V/m) @ t=0.02
1.9412762999832296
% es.EX (V/m) @ t=0.02
-0.6919446753978116
% es.EY (V/m) @ t=0.02
0.21982730395326966
% es.EZ (V/m) @ t=0.02
1.794824206723999
% es.tEX (V/m) @ t=0.02
-0.6919446753978258
% es.tEY (V/m) @ t=0.02
0
% es.tEZ (V/m) @ t=0.02
1.7948242067240017
% es.Ex (V/m) @ t=0.02
-0.6919446753978116
% es.Ey (V/m) @ t=0.02
0.21982730395326966
% es.Ez (V/m) @ t=0.02
1.794824206723999
% es.tEx (V/m) @ t=0.02
-0.6919446753978258
% es.tEy (V/m) @ t=0.02
0
% es.tEz (V/m) @ t=0.02
1.7948242067240017
% V (V) @ t=0.02
0.009451665898008124
% es.normE (V/m) @ t=0.04
1.9591352849980574
% es.EX (V/m) @ t=0.04
-0.6983102966602797
% es.EY (V/m) @ t=0.04
0.22184962953173604
% es.EZ (V/m) @ t=0.04
1.8113358895650489
% es.tEX (V/m) @ t=0.04
-0.6983102966602868
% es.tEY (V/m) @ t=0.04
0
% es.tEZ (V/m) @ t=0.04
1.8113358895650489
% es.Ex (V/m) @ t=0.04
-0.6983102966602797
% es.Ey (V/m) @ t=0.04
0.22184962953173604
% es.Ez (V/m) @ t=0.04
1.8113358895650489
% es.tEx (V/m) @ t=0.04
-0.6983102966602868
% es.tEy (V/m) @ t=0.04
0
% es.tEz (V/m) @ t=0.04
1.8113358895650489
% V (V) @ t=0.04
0.009538617531471281
% es.normE (V/m) @ t=0.06
1.9771358649448425
% es.EX (V/m) @ t=0.06
-0.7047263874305892
% es.EY (V/m) @ t=0.06
0.22388798860971693
% es.EZ (V/m) @ t=0.06
1.8279784853635093
% es.tEX (V/m) @ t=0.06
-0.704726387430607
% es.tEY (V/m) @ t=0.06
0
% es.tEZ (V/m) @ t=0.06
1.827978485363511
% es.Ex (V/m) @ t=0.06
-0.7047263874305892
% es.Ey (V/m) @ t=0.06
0.22388798860971693
% es.Ez (V/m) @ t=0.06
1.8279784853635093
% es.tEx (V/m) @ t=0.06
-0.704726387430607
% es.tEy (V/m) @ t=0.06
0
% es.tEz (V/m) @ t=0.06
1.827978485363511
% V (V) @ t=0.06
0.00962625861665516
% es.normE (V/m) @ t=0.08
1.9954560763679132
% es.EX (V/m) @ t=0.08
-0.7112564071982783
% es.EY (V/m) @ t=0.08
0.22596254259083914
% es.EZ (V/m) @ t=0.08
1.8449165992118024
% es.tEX (V/m) @ t=0.08
-0.7112564071982925
% es.tEY (V/m) @ t=0.08
0
% es.tEZ (V/m) @ t=0.08
1.8449165992118033
% es.Ex (V/m) @ t=0.08
-0.7112564071982783
% es.Ey (V/m) @ t=0.08
0.22596254259083914
% es.Ez (V/m) @ t=0.08
1.8449165992118024
% es.tEx (V/m) @ t=0.08
-0.7112564071982925
% es.tEy (V/m) @ t=0.08
0
% es.tEz (V/m) @ t=0.08
1.8449165992118033
% V (V) @ t=0.08
0.009715455884576719
% es.normE (V/m) @ t=0.1
2.0139051040697673
% es.EX (V/m) @ t=0.1
-0.7178323420606231
% es.EY (V/m) @ t=0.1
0.22805168366078377
% es.EZ (V/m) @ t=0.1
1.8619738112663633
% es.tEX (V/m) @ t=0.1
-0.7178323420606302
% es.tEY (V/m) @ t=0.1
0
% es.tEZ (V/m) @ t=0.1
1.8619738112663597
% es.Ex (V/m) @ t=0.1
-0.7178323420606231
% es.Ey (V/m) @ t=0.1
0.22805168366078377
% es.Ez (V/m) @ t=0.1
1.8619738112663633
% es.tEx (V/m) @ t=0.1
-0.7178323420606302
% es.tEy (V/m) @ t=0.1
0
% es.tEz (V/m) @ t=0.1
1.8619738112663597
% V (V) @ t=0.1
0.00980528031748121
% es.normE (V/m) @ t=0.12
2.0323541317716094
% es.EX (V/m) @ t=0.12
-0.7244082769229642
% es.EY (V/m) @ t=0.12
0.23014082473072217
% es.EZ (V/m) @ t=0.12
1.8790310233209127
% es.tEX (V/m) @ t=0.12
-0.7244082769229748
% es.tEY (V/m) @ t=0.12
0
% es.tEZ (V/m) @ t=0.12
1.879031023320918
% es.Ex (V/m) @ t=0.12
-0.7244082769229642
% es.Ey (V/m) @ t=0.12
0.23014082473072217
% es.Ez (V/m) @ t=0.12
1.8790310233209127
% es.tEx (V/m) @ t=0.12
-0.7244082769229748
% es.tEy (V/m) @ t=0.12
0
% es.tEz (V/m) @ t=0.12
1.879031023320918
% V (V) @ t=0.12
0.009895104750385698
% es.normE (V/m) @ t=0.14
2.051215152260488
% es.EX (V/m) @ t=0.14
-0.7311310616123482
% es.EY (V/m) @ t=0.14
0.2322766191671668
% es.EZ (V/m) @ t=0.14
1.8964691469792356
% es.tEX (V/m) @ t=0.14
-0.7311310616123553
% es.tEY (V/m) @ t=0.14
0
% es.tEZ (V/m) @ t=0.14
1.8964691469792392
% es.Ex (V/m) @ t=0.14
-0.7311310616123482
% es.Ey (V/m) @ t=0.14
0.2322766191671668
% es.Ez (V/m) @ t=0.14
1.8964691469792356
% es.tEx (V/m) @ t=0.14
-0.7311310616123553
% es.tEy (V/m) @ t=0.14
0
% es.tEz (V/m) @ t=0.14
1.8964691469792392
% V (V) @ t=0.14
0.009986935102592447
% es.normE (V/m) @ t=0.16
2.070611063453587
% es.EX (V/m) @ t=0.16
-0.7380445015992774
% es.EY (V/m) @ t=0.16
0.23447298372241643
% es.EZ (V/m) @ t=0.16
1.9144018086061863
% es.tEX (V/m) @ t=0.16
-0.7380445015992916
% es.tEY (V/m) @ t=0.16
0
% es.tEZ (V/m) @ t=0.16
1.9144018086061934
% es.Ex (V/m) @ t=0.16
-0.7380445015992774
% es.Ey (V/m) @ t=0.16
0.23447298372241643
% es.Ez (V/m) @ t=0.16
1.9144018086061863
% es.tEx (V/m) @ t=0.16
-0.7380445015992916
% es.tEy (V/m) @ t=0.16
0
% es.tEz (V/m) @ t=0.16
1.9144018086061934
% V (V) @ t=0.16
0.010081369742111976
% es.normE (V/m) @ t=0.18
2.0900069746466894
% es.EX (V/m) @ t=0.18
-0.7449579415862063
% es.EY (V/m) @ t=0.18
0.23666934827767383
% es.EZ (V/m) @ t=0.18
1.9323344702331386
% es.tEX (V/m) @ t=0.18
-0.7449579415862205
% es.tEY (V/m) @ t=0.18
0
% es.tEZ (V/m) @ t=0.18
1.932334470233135
% es.Ex (V/m) @ t=0.18
-0.7449579415862063
% es.Ey (V/m) @ t=0.18
0.23666934827767383
% es.Ez (V/m) @ t=0.18
1.9323344702331386
% es.tEx (V/m) @ t=0.18
-0.7449579415862205
% es.tEy (V/m) @ t=0.18
0
% es.tEz (V/m) @ t=0.18
1.932334470233135
% V (V) @ t=0.18
0.010175804381631504
% es.normE (V/m) @ t=0.2
2.1094028858397875
% es.EX (V/m) @ t=0.2
-0.7518713815731461
% es.EY (V/m) @ t=0.2
0.23886571283292368
% es.EZ (V/m) @ t=0.2
1.9502671318600857
% es.tEX (V/m) @ t=0.2
-0.7518713815731497
% es.tEY (V/m) @ t=0.2
0
% es.tEZ (V/m) @ t=0.2
1.9502671318600875
% es.Ex (V/m) @ t=0.2
-0.7518713815731461
% es.Ey (V/m) @ t=0.2
0.23886571283292368
% es.Ez (V/m) @ t=0.2
1.9502671318600857
% es.tEx (V/m) @ t=0.2
-0.7518713815731497
% es.tEy (V/m) @ t=0.2
0
% es.tEz (V/m) @ t=0.2
1.9502671318600875
% V (V) @ t=0.2
0.010270239021151036
% es.normE (V/m) @ t=0.22
2.128798797032884
% es.EX (V/m) @ t=0.22
-0.7587848215600751
% es.EY (V/m) @ t=0.22
0.24106207738817043
% es.EZ (V/m) @ t=0.22
1.9681997934870328
% es.tEX (V/m) @ t=0.22
-0.7587848215600858
% es.tEY (V/m) @ t=0.22
0
% es.tEZ (V/m) @ t=0.22
1.9681997934870363
% es.Ex (V/m) @ t=0.22
-0.7587848215600751
% es.Ey (V/m) @ t=0.22
0.24106207738817043
% es.Ez (V/m) @ t=0.22
1.9681997934870328
% es.tEx (V/m) @ t=0.22
-0.7587848215600858
% es.tEy (V/m) @ t=0.22
0
% es.tEz (V/m) @ t=0.22
1.9681997934870363
% V (V) @ t=0.22
0.010364673660670566
% es.normE (V/m) @ t=0.24
2.1481947082259802
% es.EX (V/m) @ t=0.24
-0.7656982615470008
% es.EY (V/m) @ t=0.24
0.24325844194341406
% es.EZ (V/m) @ t=0.24
1.9861324551139825
% es.tEX (V/m) @ t=0.24
-0.765698261547015
% es.tEY (V/m) @ t=0.24
0
% es.tEZ (V/m) @ t=0.24
1.986132455113978
% es.Ex (V/m) @ t=0.24
-0.7656982615470008
% es.Ey (V/m) @ t=0.24
0.24325844194341406
% es.Ez (V/m) @ t=0.24
1.9861324551139825
% es.tEx (V/m) @ t=0.24
-0.765698261547015
% es.tEy (V/m) @ t=0.24
0
% es.tEz (V/m) @ t=0.24
1.986132455113978
% V (V) @ t=0.24
0.010459108300190095
% es.normE (V/m) @ t=0.26
2.167590619419089
% es.EX (V/m) @ t=0.26
-0.7726117015339371
% es.EY (V/m) @ t=0.26
0.24545480649868145
% es.EZ (V/m) @ t=0.26
2.0040651167409376
% es.tEX (V/m) @ t=0.26
-0.7726117015339442
% es.tEY (V/m) @ t=0.26
0
% es.tEZ (V/m) @ t=0.26
2.0040651167409322
% es.Ex (V/m) @ t=0.26
-0.7726117015339371
% es.Ey (V/m) @ t=0.26
0.24545480649868145
% es.Ez (V/m) @ t=0.26
2.0040651167409376
% es.tEx (V/m) @ t=0.26
-0.7726117015339442
% es.tEy (V/m) @ t=0.26
0
% es.tEz (V/m) @ t=0.26
2.0040651167409322
% V (V) @ t=0.26
0.010553542939709625
% es.normE (V/m) @ t=0.28
2.1888519167856533
% es.EX (V/m) @ t=0.28
-0.780190033042412
% es.EY (V/m) @ t=0.28
0.24786240206546162
% es.EZ (V/m) @ t=0.28
2.0237224384539285
% es.tEX (V/m) @ t=0.28
-0.7801900330424226
% es.tEY (V/m) @ t=0.28
0
% es.tEZ (V/m) @ t=0.28
2.0237224384539285
% es.Ex (V/m) @ t=0.28
-0.780190033042412
% es.Ey (V/m) @ t=0.28
0.24786240206546162
% es.Ez (V/m) @ t=0.28
2.0237224384539285
% es.tEx (V/m) @ t=0.28
-0.7801900330424226
% es.tEy (V/m) @ t=0.28
0
% es.tEz (V/m) @ t=0.28
2.0237224384539285
% V (V) @ t=0.28
0.01065706054864643
% es.normE (V/m) @ t=0.3
2.210368041647599
% es.EX (V/m) @ t=0.3
-0.7878591943444823
% es.EY (V/m) @ t=0.3
0.25029885357122406
% es.EZ (V/m) @ t=0.3
2.0436153632910177
% es.tEX (V/m) @ t=0.3
-0.7878591943445
% es.tEY (V/m) @ t=0.3
0
% es.tEZ (V/m) @ t=0.3
2.0436153632910194
% es.Ex (V/m) @ t=0.3
-0.7878591943444823
% es.Ey (V/m) @ t=0.3
0.25029885357122406
% es.Ez (V/m) @ t=0.3
2.0436153632910177
% es.tEx (V/m) @ t=0.3
-0.7878591943445
% es.tEy (V/m) @ t=0.3
0
% es.tEz (V/m) @ t=0.3
2.0436153632910194
% V (V) @ t=0.3
0.010761818967867003
% es.normE (V/m) @ t=0.32
2.2318841665095377
% es.EX (V/m) @ t=0.32
-0.7955283556465347
% es.EY (V/m) @ t=0.32
0.2527353050769796
% es.EZ (V/m) @ t=0.32
2.0635082881281077
% es.tEX (V/m) @ t=0.32
-0.7955283556465418
% es.tEY (V/m) @ t=0.32
0
% es.tEZ (V/m) @ t=0.32
2.0635082881281086
% es.Ex (V/m) @ t=0.32
-0.7955283556465347
% es.Ey (V/m) @ t=0.32
0.2527353050769796
% es.Ez (V/m) @ t=0.32
2.0635082881281077
% es.tEx (V/m) @ t=0.32
-0.7955283556465418
% es.tEy (V/m) @ t=0.32
0
% es.tEz (V/m) @ t=0.32
2.0635082881281086
% V (V) @ t=0.32
0.010866577387087573
% es.normE (V/m) @ t=0.34
2.2534002913714897
% es.EX (V/m) @ t=0.34
-0.8031975169486191
% es.EY (V/m) @ t=0.34
0.2551717565827236
% es.EZ (V/m) @ t=0.34
2.083401212965202
% es.tEX (V/m) @ t=0.34
-0.8031975169486262
% es.tEY (V/m) @ t=0.34
0
% es.tEZ (V/m) @ t=0.34
2.0834012129651995
% es.Ex (V/m) @ t=0.34
-0.8031975169486191
% es.Ey (V/m) @ t=0.34
0.2551717565827236
% es.Ez (V/m) @ t=0.34
2.083401212965202
% es.tEx (V/m) @ t=0.34
-0.8031975169486262
% es.tEy (V/m) @ t=0.34
0
% es.tEz (V/m) @ t=0.34
2.0834012129651995
% V (V) @ t=0.34
0.01097133580630815
% es.normE (V/m) @ t=0.36
2.274916416233432
% es.EX (V/m) @ t=0.36
-0.8108666782506752
% es.EY (V/m) @ t=0.36
0.25760820808849605
% es.EZ (V/m) @ t=0.36
2.1032941378022905
% es.tEX (V/m) @ t=0.36
-0.8108666782506894
% es.tEY (V/m) @ t=0.36
0
% es.tEZ (V/m) @ t=0.36
2.103294137802296
% es.Ex (V/m) @ t=0.36
-0.8108666782506752
% es.Ey (V/m) @ t=0.36
0.25760820808849605
% es.Ez (V/m) @ t=0.36
2.1032941378022905
% es.tEx (V/m) @ t=0.36
-0.8108666782506894
% es.tEy (V/m) @ t=0.36
0
% es.tEz (V/m) @ t=0.36
2.103294137802296
% V (V) @ t=0.36
0.011076094225528719
% es.normE (V/m) @ t=0.38
2.2964325410953776
% es.EX (V/m) @ t=0.38
-0.8185358395527524
% es.EY (V/m) @ t=0.38
0.2600446595942463
% es.EZ (V/m) @ t=0.38
2.1231870626393796
% es.tEX (V/m) @ t=0.38
-0.8185358395527595
% es.tEY (V/m) @ t=0.38
0
% es.tEZ (V/m) @ t=0.38
2.1231870626393814
% es.Ex (V/m) @ t=0.38
-0.8185358395527524
% es.Ey (V/m) @ t=0.38
0.2600446595942463
% es.Ez (V/m) @ t=0.38
2.1231870626393796
% es.tEx (V/m) @ t=0.38
-0.8185358395527595
% es.tEy (V/m) @ t=0.38
0
% es.tEz (V/m) @ t=0.38
2.1231870626393814
% V (V) @ t=0.38
0.011180852644749295
% es.normE (V/m) @ t=0.4
2.317948665957326
% es.EX (V/m) @ t=0.4
-0.8262050008548156
% es.EY (V/m) @ t=0.4
0.2624811111000356
% es.EZ (V/m) @ t=0.4
2.1430799874764705
% es.tEX (V/m) @ t=0.4
-0.8262050008548227
% es.tEY (V/m) @ t=0.4
0
% es.tEZ (V/m) @ t=0.4
2.1430799874764688
% es.Ex (V/m) @ t=0.4
-0.8262050008548156
% es.Ey (V/m) @ t=0.4
0.2624811111000356
% es.Ez (V/m) @ t=0.4
2.1430799874764705
% es.tEx (V/m) @ t=0.4
-0.8262050008548227
% es.tEy (V/m) @ t=0.4
0
% es.tEz (V/m) @ t=0.4
2.1430799874764688
% V (V) @ t=0.4
0.011285611063969869
% es.normE (V/m) @ t=0.42
2.3394647908192736
% es.EX (V/m) @ t=0.42
-0.8338741621568858
% es.EY (V/m) @ t=0.42
0.2649175626057705
% es.EZ (V/m) @ t=0.42
2.162972912313566
% es.tEX (V/m) @ t=0.42
-0.8338741621569
% es.tEY (V/m) @ t=0.42
0
% es.tEZ (V/m) @ t=0.42
2.162972912313565
% es.Ex (V/m) @ t=0.42
-0.8338741621568858
% es.Ey (V/m) @ t=0.42
0.2649175626057705
% es.Ez (V/m) @ t=0.42
2.162972912313566
% es.tEx (V/m) @ t=0.42
-0.8338741621569
% es.tEy (V/m) @ t=0.42
0
% es.tEz (V/m) @ t=0.42
2.162972912313565
% V (V) @ t=0.42
0.011390369483190438
% es.normE (V/m) @ t=0.44
2.360980915681224
% es.EX (V/m) @ t=0.44
-0.8415433234589632
% es.EY (V/m) @ t=0.44
0.2673540141115349
% es.EZ (V/m) @ t=0.44
2.182865837150657
% es.tEX (V/m) @ t=0.44
-0.8415433234589774
% es.tEY (V/m) @ t=0.44
0
% es.tEZ (V/m) @ t=0.44
2.1828658371506595
% es.Ex (V/m) @ t=0.44
-0.8415433234589632
% es.Ey (V/m) @ t=0.44
0.2673540141115349
% es.Ez (V/m) @ t=0.44
2.182865837150657
% es.tEx (V/m) @ t=0.44
-0.8415433234589774
% es.tEy (V/m) @ t=0.44
0
% es.tEz (V/m) @ t=0.44
2.1828658371506595
% V (V) @ t=0.44
0.011495127902411011
% es.normE (V/m) @ t=0.46
2.38249704054316
% es.EX (V/m) @ t=0.46
-0.8492124847610262
% es.EY (V/m) @ t=0.46
0.2697904656172885
% es.EZ (V/m) @ t=0.46
2.20275876198774
% es.tEX (V/m) @ t=0.46
-0.8492124847610333
% es.tEY (V/m) @ t=0.46
0
% es.tEZ (V/m) @ t=0.46
2.2027587619877433
% es.Ex (V/m) @ t=0.46
-0.8492124847610262
% es.Ey (V/m) @ t=0.46
0.2697904656172885
% es.Ez (V/m) @ t=0.46
2.20275876198774
% es.tEx (V/m) @ t=0.46
-0.8492124847610333
% es.tEy (V/m) @ t=0.46
0
% es.tEz (V/m) @ t=0.46
2.2027587619877433
% V (V) @ t=0.46
0.011599886321631586
% es.normE (V/m) @ t=0.48
2.4040131654051087
% es.EX (V/m) @ t=0.48
-0.8568816460630964
% es.EY (V/m) @ t=0.48
0.27222691712305647
% es.EZ (V/m) @ t=0.48
2.2226516868248325
% es.tEX (V/m) @ t=0.48
-0.8568816460631106
% es.tEY (V/m) @ t=0.48
0
% es.tEZ (V/m) @ t=0.48
2.222651686824836
% es.Ex (V/m) @ t=0.48
-0.8568816460630964
% es.Ey (V/m) @ t=0.48
0.27222691712305647
% es.Ez (V/m) @ t=0.48
2.2226516868248325
% es.tEx (V/m) @ t=0.48
-0.8568816460631106
% es.tEy (V/m) @ t=0.48
0
% es.tEz (V/m) @ t=0.48
2.222651686824836
% V (V) @ t=0.48
0.01170464474085216
% es.normE (V/m) @ t=0.5
2.425529290267055
% es.EX (V/m) @ t=0.5
-0.8645508073651595
% es.EY (V/m) @ t=0.5
0.27466336862881824
% es.EZ (V/m) @ t=0.5
2.242544611661926
% es.tEX (V/m) @ t=0.5
-0.8645508073651738
% es.tEY (V/m) @ t=0.5
0
% es.tEZ (V/m) @ t=0.5
2.2425446116619305
% es.Ex (V/m) @ t=0.5
-0.8645508073651595
% es.Ey (V/m) @ t=0.5
0.27466336862881824
% es.Ez (V/m) @ t=0.5
2.242544611661926
% es.tEx (V/m) @ t=0.5
-0.8645508073651738
% es.tEy (V/m) @ t=0.5
0
% es.tEz (V/m) @ t=0.5
2.2425446116619305
% V (V) @ t=0.5
0.011809403160072732
% es.normE (V/m) @ t=0.52
2.447045415129005
% es.EX (V/m) @ t=0.52
-0.8722199686672298
% es.EY (V/m) @ t=0.52
0.27709982013457646
% es.EZ (V/m) @ t=0.52
2.2624375364990197
% es.tEX (V/m) @ t=0.52
-0.872219968667237
% es.tEY (V/m) @ t=0.52
0
% es.tEZ (V/m) @ t=0.52
2.2624375364990232
% es.Ex (V/m) @ t=0.52
-0.8722199686672298
% es.Ey (V/m) @ t=0.52
0.27709982013457646
% es.Ez (V/m) @ t=0.52
2.2624375364990197
% es.tEx (V/m) @ t=0.52
-0.872219968667237
% es.tEy (V/m) @ t=0.52
0
% es.tEz (V/m) @ t=0.52
2.2624375364990232
% V (V) @ t=0.52
0.011914161579293306
% es.normE (V/m) @ t=0.54
2.4704009482570166
% es.EX (V/m) @ t=0.54
-0.8805447655085954
% es.EY (V/m) @ t=0.54
0.2797445629230275
% es.EZ (V/m) @ t=0.54
2.2840311025281057
% es.tEX (V/m) @ t=0.54
-0.8805447655086096
% es.tEY (V/m) @ t=0.54
0
% es.tEZ (V/m) @ t=0.54
2.2840311025281093
% es.Ex (V/m) @ t=0.54
-0.8805447655085954
% es.Ey (V/m) @ t=0.54
0.2797445629230275
% es.Ez (V/m) @ t=0.54
2.2840311025281057
% es.tEx (V/m) @ t=0.54
-0.8805447655086096
% es.tEy (V/m) @ t=0.54
0
% es.tEz (V/m) @ t=0.54
2.2840311025281093
% V (V) @ t=0.54
0.012027875480229468
% es.normE (V/m) @ t=0.56
2.494308326740872
% es.EX (V/m) @ t=0.56
-0.8890662611656146
% es.EY (V/m) @ t=0.56
0.28245179568676315
% es.EZ (V/m) @ t=0.56
2.3061348820650283
% es.tEX (V/m) @ t=0.56
-0.8890662611656288
% es.tEY (V/m) @ t=0.56
0
% es.tEZ (V/m) @ t=0.56
2.3061348820650327
% es.Ex (V/m) @ t=0.56
-0.8890662611656146
% es.Ey (V/m) @ t=0.56
0.28245179568676315
% es.Ez (V/m) @ t=0.56
2.3061348820650283
% es.tEx (V/m) @ t=0.56
-0.8890662611656288
% es.tEy (V/m) @ t=0.56
0
% es.tEz (V/m) @ t=0.56
2.3061348820650327
% V (V) @ t=0.56
0.012144276137056239
% es.normE (V/m) @ t=0.58
2.518215705224729
% es.EX (V/m) @ t=0.58
-0.8975877568226478
% es.EY (V/m) @ t=0.58
0.2851590284504735
% es.EZ (V/m) @ t=0.58
2.32823866160195
% es.tEX (V/m) @ t=0.58
-0.8975877568226549
% es.tEY (V/m) @ t=0.58
0
% es.tEZ (V/m) @ t=0.58
2.3282386616019544
% es.Ex (V/m) @ t=0.58
-0.8975877568226478
% es.Ey (V/m) @ t=0.58
0.2851590284504735
% es.Ez (V/m) @ t=0.58
2.32823866160195
% es.tEx (V/m) @ t=0.58
-0.8975877568226549
% es.tEy (V/m) @ t=0.58
0
% es.tEz (V/m) @ t=0.58
2.3282386616019544
% V (V) @ t=0.58
0.01226067679388301
% es.normE (V/m) @ t=0.6
2.542123083708579
% es.EX (V/m) @ t=0.6
-0.906109252479671
% es.EY (V/m) @ t=0.6
0.2878662612141869
% es.EZ (V/m) @ t=0.6
2.350342441138868
% es.tEX (V/m) @ t=0.6
-0.9061092524796888
% es.tEY (V/m) @ t=0.6
0
% es.tEZ (V/m) @ t=0.6
2.3503424411388654
% es.Ex (V/m) @ t=0.6
-0.906109252479671
% es.Ey (V/m) @ t=0.6
0.2878662612141869
% es.Ez (V/m) @ t=0.6
2.350342441138868
% es.tEx (V/m) @ t=0.6
-0.9061092524796888
% es.tEy (V/m) @ t=0.6
0
% es.tEz (V/m) @ t=0.6
2.3503424411388654
% V (V) @ t=0.6
0.01237707745070978
% es.normE (V/m) @ t=0.62
2.5660304621924404
% es.EX (V/m) @ t=0.62
-0.914630748136708
% es.EY (V/m) @ t=0.62
0.2905734939778868
% es.EZ (V/m) @ t=0.62
2.372446220675795
% es.tEX (V/m) @ t=0.62
-0.9146307481367222
% es.tEY (V/m) @ t=0.62
0
% es.tEZ (V/m) @ t=0.62
2.372446220675796
% es.Ex (V/m) @ t=0.62
-0.914630748136708
% es.Ey (V/m) @ t=0.62
0.2905734939778868
% es.Ez (V/m) @ t=0.62
2.372446220675795
% es.tEx (V/m) @ t=0.62
-0.9146307481367222
% es.tEy (V/m) @ t=0.62
0
% es.tEz (V/m) @ t=0.62
2.372446220675796
% V (V) @ t=0.62
0.012493478107536555
% es.normE (V/m) @ t=0.64
2.5899378406762876
% es.EX (V/m) @ t=0.64
-0.9231522437937343
% es.EY (V/m) @ t=0.64
0.293280726741592
% es.EZ (V/m) @ t=0.64
2.394550000212708
% es.tEX (V/m) @ t=0.64
-0.9231522437937485
% es.tEY (V/m) @ t=0.64
0
% es.tEZ (V/m) @ t=0.64
2.394550000212707
% es.Ex (V/m) @ t=0.64
-0.9231522437937343
% es.Ey (V/m) @ t=0.64
0.293280726741592
% es.Ez (V/m) @ t=0.64
2.394550000212708
% es.tEx (V/m) @ t=0.64
-0.9231522437937485
% es.tEy (V/m) @ t=0.64
0
% es.tEz (V/m) @ t=0.64
2.394550000212707
% V (V) @ t=0.64
0.012609878764363326
% es.normE (V/m) @ t=0.66
2.6138452191601522
% es.EX (V/m) @ t=0.66
-0.9316737394507641
% es.EY (V/m) @ t=0.66
0.29598795950531676
% es.EZ (V/m) @ t=0.66
2.4166537797496375
% es.tEX (V/m) @ t=0.66
-0.9316737394507677
% es.tEY (V/m) @ t=0.66
0
% es.tEZ (V/m) @ t=0.66
2.4166537797496446
% es.Ex (V/m) @ t=0.66
-0.9316737394507641
% es.Ey (V/m) @ t=0.66
0.29598795950531676
% es.Ez (V/m) @ t=0.66
2.4166537797496375
% es.tEx (V/m) @ t=0.66
-0.9316737394507677
% es.tEy (V/m) @ t=0.66
0
% es.tEz (V/m) @ t=0.66
2.4166537797496446
% V (V) @ t=0.66
0.012726279421190097
% es.normE (V/m) @ t=0.68
2.637752597644002
% es.EX (V/m) @ t=0.68
-0.94019523510778
% es.EY (V/m) @ t=0.68
0.2986951922690406
% es.EZ (V/m) @ t=0.68
2.4387575592865565
% es.tEX (V/m) @ t=0.68
-0.9401952351077942
% es.tEY (V/m) @ t=0.68
0
% es.tEZ (V/m) @ t=0.68
2.4387575592865502
% es.Ex (V/m) @ t=0.68
-0.94019523510778
% es.Ey (V/m) @ t=0.68
0.2986951922690406
% es.Ez (V/m) @ t=0.68
2.4387575592865565
% es.tEx (V/m) @ t=0.68
-0.9401952351077942
% es.tEy (V/m) @ t=0.68
0
% es.tEz (V/m) @ t=0.68
2.4387575592865502
% V (V) @ t=0.68
0.012842680078016868
% es.normE (V/m) @ t=0.7
2.6616599761278534
% es.EX (V/m) @ t=0.7
-0.948716730764817
% es.EY (V/m) @ t=0.7
0.30140242503275916
% es.EZ (V/m) @ t=0.7
2.4608613388234684
% es.tEX (V/m) @ t=0.7
-0.9487167307648348
% es.tEY (V/m) @ t=0.7
0
% es.tEZ (V/m) @ t=0.7
2.46086133882347
% es.Ex (V/m) @ t=0.7
-0.948716730764817
% es.Ey (V/m) @ t=0.7
0.30140242503275916
% es.Ez (V/m) @ t=0.7
2.4608613388234684
% es.tEx (V/m) @ t=0.7
-0.9487167307648348
% es.tEy (V/m) @ t=0.7
0
% es.tEz (V/m) @ t=0.7
2.46086133882347
% V (V) @ t=0.7
0.01295908073484364
% es.normE (V/m) @ t=0.72
2.685567354611721
% es.EX (V/m) @ t=0.72
-0.9572382264218611
% es.EY (V/m) @ t=0.72
0.3041096577964546
% es.EZ (V/m) @ t=0.72
2.4829651183604
% es.tEX (V/m) @ t=0.72
-0.9572382264218753
% es.tEY (V/m) @ t=0.72
0
% es.tEZ (V/m) @ t=0.72
2.4829651183604042
% es.Ex (V/m) @ t=0.72
-0.9572382264218611
% es.Ey (V/m) @ t=0.72
0.3041096577964546
% es.Ez (V/m) @ t=0.72
2.4829651183604
% es.tEx (V/m) @ t=0.72
-0.9572382264218753
% es.tEy (V/m) @ t=0.72
0
% es.tEz (V/m) @ t=0.72
2.4829651183604042
% V (V) @ t=0.72
0.013075481391670411
% es.normE (V/m) @ t=0.74
2.7094747330955733
% es.EX (V/m) @ t=0.74
-0.9657597220788803
% es.EY (V/m) @ t=0.74
0.3068168905601758
% es.EZ (V/m) @ t=0.74
2.5050688978973197
% es.tEX (V/m) @ t=0.74
-0.9657597220788874
% es.tEY (V/m) @ t=0.74
0
% es.tEZ (V/m) @ t=0.74
2.5050688978973277
% es.Ex (V/m) @ t=0.74
-0.9657597220788803
% es.Ey (V/m) @ t=0.74
0.3068168905601758
% es.Ez (V/m) @ t=0.74
2.5050688978973197
% es.tEx (V/m) @ t=0.74
-0.9657597220788874
% es.tEy (V/m) @ t=0.74
0
% es.tEz (V/m) @ t=0.74
2.5050688978973277
% V (V) @ t=0.74
0.013191882048497182
% es.normE (V/m) @ t=0.76
2.733382111579428
% es.EX (V/m) @ t=0.76
-0.9742812177358997
% es.EY (V/m) @ t=0.76
0.3095241233238961
% es.EZ (V/m) @ t=0.76
2.527172677434243
% es.tEX (V/m) @ t=0.76
-0.9742812177359139
% es.tEY (V/m) @ t=0.76
0
% es.tEZ (V/m) @ t=0.76
2.527172677434244
% es.Ex (V/m) @ t=0.76
-0.9742812177358997
% es.Ey (V/m) @ t=0.76
0.3095241233238961
% es.Ez (V/m) @ t=0.76
2.527172677434243
% es.tEx (V/m) @ t=0.76
-0.9742812177359139
% es.tEy (V/m) @ t=0.76
0
% es.tEz (V/m) @ t=0.76
2.527172677434244
% V (V) @ t=0.76
0.013308282705323953
% es.normE (V/m) @ t=0.78
2.7572894900632763
% es.EX (V/m) @ t=0.78
-0.9828027133929225
% es.EY (V/m) @ t=0.78
0.31223135608762087
% es.EZ (V/m) @ t=0.78
2.549276456971156
% es.tEX (V/m) @ t=0.78
-0.9828027133929402
% es.tEY (V/m) @ t=0.78
0
% es.tEZ (V/m) @ t=0.78
2.5492764569711532
% es.Ex (V/m) @ t=0.78
-0.9828027133929225
% es.Ey (V/m) @ t=0.78
0.31223135608762087
% es.Ez (V/m) @ t=0.78
2.549276456971156
% es.tEx (V/m) @ t=0.78
-0.9828027133929402
% es.tEy (V/m) @ t=0.78
0
% es.tEz (V/m) @ t=0.78
2.5492764569711532
% V (V) @ t=0.78
0.013424683362150724
% es.normE (V/m) @ t=0.8
2.7829763860498895
% es.EX (V/m) @ t=0.8
-0.9919584974807654
% es.EY (V/m) @ t=0.8
0.3151400997618845
% es.EZ (V/m) @ t=0.8
2.5730255049691753
% es.tEX (V/m) @ t=0.8
-0.991958497480776
% es.tEY (V/m) @ t=0.8
0
% es.tEZ (V/m) @ t=0.8
2.573025504969179
% es.Ex (V/m) @ t=0.8
-0.9919584974807654
% es.Ey (V/m) @ t=0.8
0.3151400997618845
% es.Ez (V/m) @ t=0.8
2.5730255049691753
% es.tEx (V/m) @ t=0.8
-0.991958497480776
% es.tEy (V/m) @ t=0.8
0
% es.tEz (V/m) @ t=0.8
2.573025504969179
% V (V) @ t=0.8
0.013549747939225858
% es.normE (V/m) @ t=0.82
2.809585585480587
% es.EX (V/m) @ t=0.82
-1.0014430259632712
% es.EY (V/m) @ t=0.82
0.31815328422224054
% es.EZ (V/m) @ t=0.82
2.5976272766778514
% es.tEX (V/m) @ t=0.82
-1.0014430259632854
% es.tEY (V/m) @ t=0.82
0
% es.tEZ (V/m) @ t=0.82
2.597627276677855
% es.Ex (V/m) @ t=0.82
-1.0014430259632712
% es.Ey (V/m) @ t=0.82
0.31815328422224054
% es.Ez (V/m) @ t=0.82
2.5976272766778514
% es.tEx (V/m) @ t=0.82
-1.0014430259632854
% es.tEy (V/m) @ t=0.82
0
% es.tEz (V/m) @ t=0.82
2.597627276677855
% V (V) @ t=0.82
0.013679302926466762
% es.normE (V/m) @ t=0.84
2.836194784911304
% es.EX (V/m) @ t=0.84
-1.0109275544457879
% es.EY (V/m) @ t=0.84
0.3211664686825786
% es.EZ (V/m) @ t=0.84
2.6222290483865454
% es.tEX (V/m) @ t=0.84
-1.010927554445802
% es.tEY (V/m) @ t=0.84
0
% es.tEZ (V/m) @ t=0.84
2.6222290483865507
% es.Ex (V/m) @ t=0.84
-1.0109275544457879
% es.Ey (V/m) @ t=0.84
0.3211664686825786
% es.Ez (V/m) @ t=0.84
2.6222290483865454
% es.tEx (V/m) @ t=0.84
-1.010927554445802
% es.tEy (V/m) @ t=0.84
0
% es.tEz (V/m) @ t=0.84
2.6222290483865507
% V (V) @ t=0.84
0.013808857913707662
% es.normE (V/m) @ t=0.86
2.86280398434201
% es.EX (V/m) @ t=0.86
-1.0204120829283008
% es.EY (V/m) @ t=0.86
0.3241796531429235
% es.EZ (V/m) @ t=0.86
2.6468308200952286
% es.tEX (V/m) @ t=0.86
-1.0204120829283043
% es.tEY (V/m) @ t=0.86
0
% es.tEZ (V/m) @ t=0.86
2.646830820095232
% es.Ex (V/m) @ t=0.86
-1.0204120829283008
% es.Ey (V/m) @ t=0.86
0.3241796531429235
% es.Ez (V/m) @ t=0.86
2.6468308200952286
% es.tEx (V/m) @ t=0.86
-1.0204120829283043
% es.tEy (V/m) @ t=0.86
0
% es.tEz (V/m) @ t=0.86
2.646830820095232
% V (V) @ t=0.86
0.013938412900948563
% es.normE (V/m) @ t=0.88
2.889413183772728
% es.EX (V/m) @ t=0.88
-1.0298966114108175
% es.EY (V/m) @ t=0.88
0.32719283760329043
% es.EZ (V/m) @ t=0.88
2.671432591803921
% es.tEX (V/m) @ t=0.88
-1.0298966114108352
% es.tEY (V/m) @ t=0.88
0
% es.tEZ (V/m) @ t=0.88
2.671432591803919
% es.Ex (V/m) @ t=0.88
-1.0298966114108175
% es.Ey (V/m) @ t=0.88
0.32719283760329043
% es.Ez (V/m) @ t=0.88
2.671432591803921
% es.tEx (V/m) @ t=0.88
-1.0298966114108352
% es.tEy (V/m) @ t=0.88
0
% es.tEz (V/m) @ t=0.88
2.671432591803919
% V (V) @ t=0.88
0.01406796788818947
% es.normE (V/m) @ t=0.9
2.9160223832034387
% es.EX (V/m) @ t=0.9
-1.0393811398933341
% es.EY (V/m) @ t=0.9
0.3302060220636338
% es.EZ (V/m) @ t=0.9
2.6960343635126094
% es.tEX (V/m) @ t=0.9
-1.039381139893352
% es.tEY (V/m) @ t=0.9
0
% es.tEZ (V/m) @ t=0.9
2.6960343635126147
% es.Ex (V/m) @ t=0.9
-1.0393811398933341
% es.Ey (V/m) @ t=0.9
0.3302060220636338
% es.Ez (V/m) @ t=0.9
2.6960343635126094
% es.tEx (V/m) @ t=0.9
-1.039381139893352
% es.tEy (V/m) @ t=0.9
0
% es.tEz (V/m) @ t=0.9
2.6960343635126147
% V (V) @ t=0.9
0.014197522875430371
% es.normE (V/m) @ t=0.92
2.9426315826341423
% es.EX (V/m) @ t=0.92
-1.04886566837584
% es.EY (V/m) @ t=0.92
0.3332192065239967
% es.EZ (V/m) @ t=0.92
2.72063613522129
% es.tEX (V/m) @ t=0.92
-1.0488656683758542
% es.tEY (V/m) @ t=0.92
0
% es.tEZ (V/m) @ t=0.92
2.720636135221289
% es.Ex (V/m) @ t=0.92
-1.04886566837584
% es.Ey (V/m) @ t=0.92
0.3332192065239967
% es.Ez (V/m) @ t=0.92
2.72063613522129
% es.tEx (V/m) @ t=0.92
-1.0488656683758542
% es.tEy (V/m) @ t=0.92
0
% es.tEz (V/m) @ t=0.92
2.720636135221289
% V (V) @ t=0.92
0.014327077862671275
% es.normE (V/m) @ t=0.94
2.969240782064856
% es.EX (V/m) @ t=0.94
-1.058350196858353
% es.EY (V/m) @ t=0.94
0.33623239098434743
% es.EZ (V/m) @ t=0.94
2.7452379069299795
% es.tEX (V/m) @ t=0.94
-1.0583501968583708
% es.tEY (V/m) @ t=0.94
0
% es.tEZ (V/m) @ t=0.94
2.7452379069299795
% es.Ex (V/m) @ t=0.94
-1.058350196858353
% es.Ey (V/m) @ t=0.94
0.33623239098434743
% es.Ez (V/m) @ t=0.94
2.7452379069299795
% es.tEx (V/m) @ t=0.94
-1.0583501968583708
% es.tEy (V/m) @ t=0.94
0
% es.tEz (V/m) @ t=0.94
2.7452379069299795
% V (V) @ t=0.94
0.014456632849912178
% es.normE (V/m) @ t=0.96
2.9958499814955677
% es.EX (V/m) @ t=0.96
-1.067834725340873
% es.EY (V/m) @ t=0.96
0.33924557544468703
% es.EZ (V/m) @ t=0.96
2.7698396786386663
% es.tEX (V/m) @ t=0.96
-1.0678347253408873
% es.tEY (V/m) @ t=0.96
0
% es.tEZ (V/m) @ t=0.96
2.76983967863867
% es.Ex (V/m) @ t=0.96
-1.067834725340873
% es.Ey (V/m) @ t=0.96
0.33924557544468703
% es.Ez (V/m) @ t=0.96
2.7698396786386663
% es.tEx (V/m) @ t=0.96
-1.0678347253408873
% es.tEy (V/m) @ t=0.96
0
% es.tEz (V/m) @ t=0.96
2.76983967863867
% V (V) @ t=0.96
0.014586187837153082
% es.normE (V/m) @ t=0.98
3.0224591809262855
% es.EX (V/m) @ t=0.98
-1.0773192538234004
% es.EY (V/m) @ t=0.98
0.34225875990503596
% es.EZ (V/m) @ t=0.98
2.7944414503473567
% es.tEX (V/m) @ t=0.98
-1.0773192538234182
% es.tEY (V/m) @ t=0.98
0
% es.tEZ (V/m) @ t=0.98
2.794441450347353
% es.Ex (V/m) @ t=0.98
-1.0773192538234004
% es.Ey (V/m) @ t=0.98
0.34225875990503596
% es.Ez (V/m) @ t=0.98
2.7944414503473567
% es.tEx (V/m) @ t=0.98
-1.0773192538234182
% es.tEy (V/m) @ t=0.98
0
% es.tEz (V/m) @ t=0.98
2.794441450347353
% V (V) @ t=0.98
0.014715742824393988
% es.normE (V/m) @ t=1
3.0490683803569967
% es.EX (V/m) @ t=1
-1.0868037823059171
% es.EY (V/m) @ t=1
0.34527194436540776
% es.EZ (V/m) @ t=1
2.819043222056041
% es.tEX (V/m) @ t=1
-1.0868037823059349
% es.tEY (V/m) @ t=1
0
% es.tEZ (V/m) @ t=1
2.8190432220560417
% es.Ex (V/m) @ t=1
-1.0868037823059171
% es.Ey (V/m) @ t=1
0.34527194436540776
% es.Ez (V/m) @ t=1
2.819043222056041
% es.tEx (V/m) @ t=1
-1.0868037823059349
% es.tEy (V/m) @ t=1
0
% es.tEz (V/m) @ t=1
2.8190432220560417
% V (V) @ t=1
0.014845297811634888
% es.normE (V/m) @ t=1.02
3.075677579787704
% es.EX (V/m) @ t=1.02
-1.096288310788423
% es.EY (V/m) @ t=1.02
0.3482851288257407
% es.EZ (V/m) @ t=1.02
2.8436449937647303
% es.tEX (V/m) @ t=1.02
-1.0962883107884371
% es.tEY (V/m) @ t=1.02
0
% es.tEZ (V/m) @ t=1.02
2.8436449937647374
% es.Ex (V/m) @ t=1.02
-1.096288310788423
% es.Ey (V/m) @ t=1.02
0.3482851288257407
% es.Ez (V/m) @ t=1.02
2.8436449937647303
% es.tEx (V/m) @ t=1.02
-1.0962883107884371
% es.tEy (V/m) @ t=1.02
0
% es.tEz (V/m) @ t=1.02
2.8436449937647374
% V (V) @ t=1.02
0.014974852798875794
% es.normE (V/m) @ t=1.04
3.10228677921841
% es.EX (V/m) @ t=1.04
-1.1057728392709394
% es.EY (V/m) @ t=1.04
0.3512983132860954
% es.EZ (V/m) @ t=1.04
2.86824676547341
% es.tEX (V/m) @ t=1.04
-1.1057728392709536
% es.tEY (V/m) @ t=1.04
0
% es.tEZ (V/m) @ t=1.04
2.868246765473401
% es.Ex (V/m) @ t=1.04
-1.1057728392709394