% Model:              1 neuron.mph
% Version:            COMSOL 6.1.0.252
% Date:               Mar 18 2023, 13:27
% Dimension:          0
% Nodes:              14017
% Expressions:        14017
% Description:        Electric field norm, Electric field, X component, Electric field, Y component, Electric field, Z component, Tangential electric field, X component, Tangential electric field, Y component, Tangential electric field, Z component, Electric field, x component, Electric field, y component, Electric field, z component, Tangential electric field, x component, Tangential electric field, y component, Tangential electric field, z component, Electric potential
% Length unit:        mm
% x
2
% y
12.2
% z
1.6599999999999997
% es.normE (V/m) @ t=0
1.8927721188320852
% es.EX (V/m) @ t=0
-1.8289181645804984
% es.EY (V/m) @ t=0
0.14089376552083965
% es.EZ (V/m) @ t=0
-0.4661427742061597
% es.tEX (V/m) @ t=0
-1.8289181645805126
% es.tEY (V/m) @ t=0
0
% es.tEZ (V/m) @ t=0
-0.4661427742061637
% es.Ex (V/m) @ t=0
-1.8289181645804984
% es.Ey (V/m) @ t=0
0.14089376552083965
% es.Ez (V/m) @ t=0
-0.4661427742061597
% es.tEx (V/m) @ t=0
-1.8289181645805126
% es.tEy (V/m) @ t=0
0
% es.tEz (V/m) @ t=0
-0.4661427742061637
% V (V) @ t=0
0.01096899889943194
% es.normE (V/m) @ t=0.02
1.6348073069891589
% es.EX (V/m) @ t=0.02
-1.5796559708064466
% es.EY (V/m) @ t=0.02
0.12169143669762128
% es.EZ (V/m) @ t=0.02
-0.40261244722043044
% es.tEX (V/m) @ t=0.02
-1.5796559708064528
% es.tEY (V/m) @ t=0.02
0
% es.tEZ (V/m) @ t=0.02
-0.40261244722044154
% es.Ex (V/m) @ t=0.02
-1.5796559708064466
% es.Ey (V/m) @ t=0.02
0.12169143669762128
% es.Ez (V/m) @ t=0.02
-0.40261244722043044
% es.tEx (V/m) @ t=0.02
-1.5796559708064528
% es.tEy (V/m) @ t=0.02
0
% es.tEz (V/m) @ t=0.02
-0.40261244722044154
% V (V) @ t=0.02
0.009474040399831922
% es.normE (V/m) @ t=0.04
1.6498468974640788
% es.EX (V/m) @ t=0.04
-1.5941881902965669
% es.EY (V/m) @ t=0.04
0.12281095096149863
% es.EZ (V/m) @ t=0.04
-0.4063163254571447
% es.tEX (V/m) @ t=0.04
-1.5941881902965793
% es.tEY (V/m) @ t=0.04
0
% es.tEZ (V/m) @ t=0.04
-0.4063163254571407
% es.Ex (V/m) @ t=0.04
-1.5941881902965669
% es.Ey (V/m) @ t=0.04
0.12281095096149863
% es.Ez (V/m) @ t=0.04
-0.4063163254571447
% es.tEx (V/m) @ t=0.04
-1.5941881902965793
% es.tEy (V/m) @ t=0.04
0
% es.tEz (V/m) @ t=0.04
-0.4063163254571407
% V (V) @ t=0.04
0.009561197869787312
% es.normE (V/m) @ t=0.06
1.6650057238758111
% es.EX (V/m) @ t=0.06
-1.6088356245800695
% es.EY (V/m) @ t=0.06
0.12393933761579334
% es.EZ (V/m) @ t=0.06
-0.41004956425494
% es.tEX (V/m) @ t=0.06
-1.6088356245800561
% es.tEY (V/m) @ t=0.06
0
% es.tEZ (V/m) @ t=0.06
-0.41004956425493155
% es.Ex (V/m) @ t=0.06
-1.6088356245800695
% es.Ey (V/m) @ t=0.06
0.12393933761579334
% es.Ez (V/m) @ t=0.06
-0.41004956425494
% es.tEx (V/m) @ t=0.06
-1.6088356245800561
% es.tEy (V/m) @ t=0.06
0
% es.tEz (V/m) @ t=0.06
-0.41004956425493155
% V (V) @ t=0.06
0.009649046425012808
% es.normE (V/m) @ t=0.08
1.6804337250804233
% es.EX (V/m) @ t=0.08
-1.623743151984601
% es.EY (V/m) @ t=0.08
0.12508776312851244
% es.EZ (V/m) @ t=0.08
-0.41384909688885907
% es.tEX (V/m) @ t=0.08
-1.6237431519845966
% es.tEY (V/m) @ t=0.08
0
% es.tEZ (V/m) @ t=0.08
-0.41384909688887106
% es.Ex (V/m) @ t=0.08
-1.623743151984601
% es.Ey (V/m) @ t=0.08
0.12508776312851244
% es.Ez (V/m) @ t=0.08
-0.41384909688885907
% es.tEx (V/m) @ t=0.08
-1.6237431519845966
% es.tEy (V/m) @ t=0.08
0
% es.tEz (V/m) @ t=0.08
-0.41384909688887106
% V (V) @ t=0.08
0.009738454845928233
% es.normE (V/m) @ t=0.1
1.6959702077636463
% es.EX (V/m) @ t=0.1
-1.6387555008177817
% es.EY (V/m) @ t=0.1
0.12624426460169158
% es.EZ (V/m) @ t=0.1
-0.41767534693301744
% es.tEX (V/m) @ t=0.1
-1.6387555008177923
% es.tEY (V/m) @ t=0.1
0
% es.tEZ (V/m) @ t=0.1
-0.4176753469330201
% es.Ex (V/m) @ t=0.1
-1.6387555008177817
% es.Ey (V/m) @ t=0.1
0.12624426460169158
% es.Ez (V/m) @ t=0.1
-0.41767534693301744
% es.tEx (V/m) @ t=0.1
-1.6387555008177923
% es.tEy (V/m) @ t=0.1
0
% es.tEz (V/m) @ t=0.1
-0.4176753469330201
% V (V) @ t=0.1
0.00982849191611158
% es.normE (V/m) @ t=0.12
1.7115066904468954
% es.EX (V/m) @ t=0.12
-1.6537678496509836
% es.EY (V/m) @ t=0.12
0.12740076607489204
% es.EZ (V/m) @ t=0.12
-0.42150159697719003
% es.tEX (V/m) @ t=0.12
-1.6537678496509862
% es.tEY (V/m) @ t=0.12
0
% es.tEZ (V/m) @ t=0.12
-0.42150159697717626
% es.Ex (V/m) @ t=0.12
-1.6537678496509836
% es.Ey (V/m) @ t=0.12
0.12740076607489204
% es.Ez (V/m) @ t=0.12
-0.42150159697719003
% es.tEx (V/m) @ t=0.12
-1.6537678496509862
% es.tEy (V/m) @ t=0.12
0
% es.tEz (V/m) @ t=0.12
-0.42150159697717626
% V (V) @ t=0.12
0.00991852898629493
% es.normE (V/m) @ t=0.14
1.7273901233939088
% es.EX (V/m) @ t=0.14
-1.6691154444687903
% es.EY (V/m) @ t=0.14
0.12858309299964987
% es.EZ (V/m) @ t=0.14
-0.42541329123148186
% es.tEX (V/m) @ t=0.14
-1.6691154444687992
% es.tEY (V/m) @ t=0.14
0
% es.tEZ (V/m) @ t=0.14
-0.42541329123148053
% es.Ex (V/m) @ t=0.14
-1.6691154444687903
% es.Ey (V/m) @ t=0.14
0.12858309299964987
% es.Ez (V/m) @ t=0.14
-0.42541329123148186
% es.tEx (V/m) @ t=0.14
-1.6691154444687992
% es.tEy (V/m) @ t=0.14
0
% es.tEz (V/m) @ t=0.14
-0.42541329123148053
% V (V) @ t=0.14
0.010010576724645826
% es.normE (V/m) @ t=0.16
1.7437240022632448
% es.EX (V/m) @ t=0.16
-1.684898289529964
% es.EY (V/m) @ t=0.16
0.1297989491375331
% es.EZ (V/m) @ t=0.16
-0.4294359178010345
% es.tEX (V/m) @ t=0.16
-1.6848982895299827
% es.tEY (V/m) @ t=0.16
0
% es.tEZ (V/m) @ t=0.16
-0.4294359178010261
% es.Ex (V/m) @ t=0.16
-1.684898289529964
% es.Ey (V/m) @ t=0.16
0.1297989491375331
% es.Ez (V/m) @ t=0.16
-0.4294359178010345
% es.tEx (V/m) @ t=0.16
-1.6848982895299827
% es.tEy (V/m) @ t=0.16
0
% es.tEz (V/m) @ t=0.16
-0.4294359178010261
% V (V) @ t=0.16
0.010105234915766715
% es.normE (V/m) @ t=0.18
1.7600578811325889
% es.EX (V/m) @ t=0.18
-1.7006811345911421
% es.EY (V/m) @ t=0.18
0.13101480527543574
% es.EZ (V/m) @ t=0.18
-0.43345854437059694
% es.tEX (V/m) @ t=0.18
-1.7006811345911608
% es.tEY (V/m) @ t=0.18
0
% es.tEZ (V/m) @ t=0.18
-0.43345854437059295
% es.Ex (V/m) @ t=0.18
-1.7006811345911421
% es.Ey (V/m) @ t=0.18
0.13101480527543574
% es.Ez (V/m) @ t=0.18
-0.43345854437059694
% es.tEx (V/m) @ t=0.18
-1.7006811345911608
% es.tEy (V/m) @ t=0.18
0
% es.tEz (V/m) @ t=0.18
-0.43345854437059295
% V (V) @ t=0.18
0.010199893106887601
% es.normE (V/m) @ t=0.2
1.7763917600019492
% es.EX (V/m) @ t=0.2
-1.7164639796523398
% es.EY (V/m) @ t=0.2
0.13223066141332607
% es.EZ (V/m) @ t=0.2
-0.43748117094015004
% es.tEX (V/m) @ t=0.2
-1.7164639796523318
% es.tEY (V/m) @ t=0.2
0
% es.tEZ (V/m) @ t=0.2
-0.4374811709401527
% es.Ex (V/m) @ t=0.2
-1.7164639796523398
% es.Ey (V/m) @ t=0.2
0.13223066141332607
% es.Ez (V/m) @ t=0.2
-0.43748117094015004
% es.tEx (V/m) @ t=0.2
-1.7164639796523318
% es.tEy (V/m) @ t=0.2
0
% es.tEz (V/m) @ t=0.2
-0.4374811709401527
% V (V) @ t=0.2
0.010294551298008487
% es.normE (V/m) @ t=0.22
1.7927256388712864
% es.EX (V/m) @ t=0.22
-1.7322468247135143
% es.EY (V/m) @ t=0.22
0.13344651755121717
% es.EZ (V/m) @ t=0.22
-0.4415037975097027
% es.tEX (V/m) @ t=0.22
-1.7322468247135099
% es.tEY (V/m) @ t=0.22
0
% es.tEZ (V/m) @ t=0.22
-0.44150379750969826
% es.Ex (V/m) @ t=0.22
-1.7322468247135143
% es.Ey (V/m) @ t=0.22
0.13344651755121717
% es.Ez (V/m) @ t=0.22
-0.4415037975097027
% es.tEx (V/m) @ t=0.22
-1.7322468247135099
% es.tEy (V/m) @ t=0.22
0
% es.tEz (V/m) @ t=0.22
-0.44150379750969826
% V (V) @ t=0.22
0.010389209489129374
% es.normE (V/m) @ t=0.24
1.8090595177406388
% es.EX (V/m) @ t=0.24
-1.748029669774703
% es.EY (V/m) @ t=0.24
0.13466237368909417
% es.EZ (V/m) @ t=0.24
-0.4455264240792638
% es.tEX (V/m) @ t=0.24
-1.7480296697747022
% es.tEY (V/m) @ t=0.24
0
% es.tEZ (V/m) @ t=0.24
-0.44552642407926335
% es.Ex (V/m) @ t=0.24
-1.748029669774703
% es.Ey (V/m) @ t=0.24
0.13466237368909417
% es.Ez (V/m) @ t=0.24
-0.4455264240792638
% es.tEx (V/m) @ t=0.24
-1.7480296697747022
% es.tEy (V/m) @ t=0.24
0
% es.tEz (V/m) @ t=0.24
-0.44552642407926335
% V (V) @ t=0.24
0.01048386768025026
% es.normE (V/m) @ t=0.26
1.8253933966099862
% es.EX (V/m) @ t=0.26
-1.7638125148358874
% es.EY (V/m) @ t=0.26
0.1358782298269694
% es.EZ (V/m) @ t=0.26
-0.44954905064882267
% es.tEX (V/m) @ t=0.26
-1.7638125148358714
% es.tEY (V/m) @ t=0.26
0
% es.tEZ (V/m) @ t=0.26
-0.4495490506488107
% es.Ex (V/m) @ t=0.26
-1.7638125148358874
% es.Ey (V/m) @ t=0.26
0.1358782298269694
% es.Ez (V/m) @ t=0.26
-0.44954905064882267
% es.tEx (V/m) @ t=0.26
-1.7638125148358714
% es.tEy (V/m) @ t=0.26
0
% es.tEz (V/m) @ t=0.26
-0.4495490506488107
% V (V) @ t=0.26
0.010578525871371147
% es.normE (V/m) @ t=0.28
1.8432980936390708
% es.EX (V/m) @ t=0.28
-1.7811132057993824
% es.EY (V/m) @ t=0.28
0.1372109695596917
% es.EZ (V/m) @ t=0.28
-0.45395846553527486
% es.tEX (V/m) @ t=0.28
-1.78111320579937
% es.tEY (V/m) @ t=0.28
0
% es.tEZ (V/m) @ t=0.28
-0.45395846553527264
% es.Ex (V/m) @ t=0.28
-1.7811132057993824
% es.Ey (V/m) @ t=0.28
0.1372109695596917
% es.Ez (V/m) @ t=0.28
-0.45395846553527486
% es.tEx (V/m) @ t=0.28
-1.78111320579937
% es.tEy (V/m) @ t=0.28
0
% es.tEz (V/m) @ t=0.28
-0.45395846553527264
% V (V) @ t=0.28
0.01068228855515044
% es.normE (V/m) @ t=0.3
1.8614173776866627
% es.EX (V/m) @ t=0.3
-1.7986212473239256
% es.EY (V/m) @ t=0.3
0.1385596765779583
% es.EZ (V/m) @ t=0.3
-0.45842071897035197
% es.tEX (V/m) @ t=0.3
-1.7986212473239327
% es.tEY (V/m) @ t=0.3
0
% es.tEZ (V/m) @ t=0.3
-0.45842071897034664
% es.Ex (V/m) @ t=0.3
-1.7986212473239256
% es.Ey (V/m) @ t=0.3
0.1385596765779583
% es.Ez (V/m) @ t=0.3
-0.45842071897035197
% es.tEx (V/m) @ t=0.3
-1.7986212473239327
% es.tEy (V/m) @ t=0.3
0
% es.tEz (V/m) @ t=0.3
-0.45842071897034664
% V (V) @ t=0.3
0.010787294989469896
% es.normE (V/m) @ t=0.32
1.8795366617342875
% es.EX (V/m) @ t=0.32
-1.816129288848491
% es.EY (V/m) @ t=0.32
0.13990838359623825
% es.EZ (V/m) @ t=0.32
-0.4628829724054482
% es.tEX (V/m) @ t=0.32
-1.8161292888484901
% es.tEY (V/m) @ t=0.32
0
% es.tEZ (V/m) @ t=0.32
-0.4628829724054384
% es.Ex (V/m) @ t=0.32
-1.816129288848491
% es.Ey (V/m) @ t=0.32
0.13990838359623825
% es.Ez (V/m) @ t=0.32
-0.4628829724054482
% es.tEx (V/m) @ t=0.32
-1.8161292888484901
% es.tEy (V/m) @ t=0.32
0
% es.tEz (V/m) @ t=0.32
-0.4628829724054384
% V (V) @ t=0.32
0.010892301423789358
% es.normE (V/m) @ t=0.34
1.897655945781906
% es.EX (V/m) @ t=0.34
-1.8336373303730573
% es.EY (V/m) @ t=0.34
0.14125709061449054
% es.EZ (V/m) @ t=0.34
-0.46734522584050353
% es.tEX (V/m) @ t=0.34
-1.8336373303730529
% es.tEY (V/m) @ t=0.34
0
% es.tEZ (V/m) @ t=0.34
-0.4673452258404982
% es.Ex (V/m) @ t=0.34
-1.8336373303730573
% es.Ey (V/m) @ t=0.34
0.14125709061449054
% es.Ez (V/m) @ t=0.34
-0.46734522584050353
% es.tEx (V/m) @ t=0.34
-1.8336373303730529
% es.tEy (V/m) @ t=0.34
0
% es.tEz (V/m) @ t=0.34
-0.4673452258404982
% V (V) @ t=0.34
0.010997307858108816
% es.normE (V/m) @ t=0.36
1.9157752298295359
% es.EX (V/m) @ t=0.36
-1.8511453718976245
% es.EY (V/m) @ t=0.36
0.14260579763274128
% es.EZ (V/m) @ t=0.36
-0.47180747927558464
% es.tEX (V/m) @ t=0.36
-1.8511453718976298
% es.tEY (V/m) @ t=0.36
0
% es.tEZ (V/m) @ t=0.36
-0.47180747927558464
% es.Ex (V/m) @ t=0.36
-1.8511453718976245
% es.Ey (V/m) @ t=0.36
0.14260579763274128
% es.Ez (V/m) @ t=0.36
-0.47180747927558464
% es.tEx (V/m) @ t=0.36
-1.8511453718976298
% es.tEy (V/m) @ t=0.36
0
% es.tEz (V/m) @ t=0.36
-0.47180747927558464
% V (V) @ t=0.36
0.011102314292428276
% es.normE (V/m) @ t=0.38
1.9338945138771637
% es.EX (V/m) @ t=0.38
-1.8686534134221793
% es.EY (V/m) @ t=0.38
0.14395450465102744
% es.EZ (V/m) @ t=0.38
-0.47626973271067463
% es.tEX (V/m) @ t=0.38
-1.8686534134221713
% es.tEY (V/m) @ t=0.38
0
% es.tEZ (V/m) @ t=0.38
-0.47626973271065864
% es.Ex (V/m) @ t=0.38
-1.8686534134221793
% es.Ey (V/m) @ t=0.38
0.14395450465102744
% es.Ez (V/m) @ t=0.38
-0.47626973271067463
% es.tEx (V/m) @ t=0.38
-1.8686534134221713
% es.tEy (V/m) @ t=0.38
0
% es.tEz (V/m) @ t=0.38
-0.47626973271065864
% V (V) @ t=0.38
0.011207320726747736
% es.normE (V/m) @ t=0.4
1.9520137979247956
% es.EX (V/m) @ t=0.4
-1.8861614549467465
% es.EY (V/m) @ t=0.4
0.14530321166926374
% es.EZ (V/m) @ t=0.4
-0.48073198614573
% es.tEX (V/m) @ t=0.4
-1.8861614549467571
% es.tEY (V/m) @ t=0.4
0
% es.tEZ (V/m) @ t=0.4
-0.4807319861457291
% es.Ex (V/m) @ t=0.4
-1.8861614549467465
% es.Ey (V/m) @ t=0.4
0.14530321166926374
% es.Ez (V/m) @ t=0.4
-0.48073198614573
% es.tEx (V/m) @ t=0.4
-1.8861614549467571
% es.tEy (V/m) @ t=0.4
0
% es.tEz (V/m) @ t=0.4
-0.4807319861457291
% V (V) @ t=0.4
0.011312327161067197
% es.normE (V/m) @ t=0.42
1.9701330819724396
% es.EX (V/m) @ t=0.42
-1.903669496471311
% es.EY (V/m) @ t=0.42
0.14665191868752148
% es.EZ (V/m) @ t=0.42
-0.4851942395808191
% es.tEX (V/m) @ t=0.42
-1.903669496471311
% es.tEY (V/m) @ t=0.42
0
% es.tEZ (V/m) @ t=0.42
-0.485194239580812
% es.Ex (V/m) @ t=0.42
-1.903669496471311
% es.Ey (V/m) @ t=0.42
0.14665191868752148
% es.Ez (V/m) @ t=0.42
-0.4851942395808191
% es.tEx (V/m) @ t=0.42
-1.903669496471311
% es.tEy (V/m) @ t=0.42
0
% es.tEz (V/m) @ t=0.42
-0.485194239580812
% V (V) @ t=0.42
0.011417333595386655
% es.normE (V/m) @ t=0.44
1.9882523660200746
% es.EX (V/m) @ t=0.44
-1.9211775379958587
% es.EY (V/m) @ t=0.44
0.14800062570582107
% es.EZ (V/m) @ t=0.44
-0.48965649301590863
% es.tEX (V/m) @ t=0.44
-1.9211775379958507
% es.tEY (V/m) @ t=0.44
0
% es.tEZ (V/m) @ t=0.44
-0.4896564930159002
% es.Ex (V/m) @ t=0.44
-1.9211775379958587
% es.Ey (V/m) @ t=0.44
0.14800062570582107
% es.Ez (V/m) @ t=0.44
-0.48965649301590863
% es.tEx (V/m) @ t=0.44
-1.9211775379958507
% es.tEy (V/m) @ t=0.44
0
% es.tEz (V/m) @ t=0.44
-0.4896564930159002
% V (V) @ t=0.44
0.011522340029706115
% es.normE (V/m) @ t=0.46
2.006371650067724
% es.EX (V/m) @ t=0.46
-1.938685579520432
% es.EY (V/m) @ t=0.46
0.14934933272405748
% es.EZ (V/m) @ t=0.46
-0.49411874645095777
% es.tEX (V/m) @ t=0.46
-1.938685579520449
% es.tEY (V/m) @ t=0.46
0
% es.tEZ (V/m) @ t=0.46
-0.4941187464509582
% es.Ex (V/m) @ t=0.46
-1.938685579520432
% es.Ey (V/m) @ t=0.46
0.14934933272405748
% es.Ez (V/m) @ t=0.46
-0.49411874645095777
% es.tEx (V/m) @ t=0.46
-1.938685579520449
% es.tEy (V/m) @ t=0.46
0
% es.tEz (V/m) @ t=0.46
-0.4941187464509582
% V (V) @ t=0.46
0.011627346464025575
% es.normE (V/m) @ t=0.48
2.0244909341153683
% es.EX (V/m) @ t=0.48
-1.9561936210449833
% es.EY (V/m) @ t=0.48
0.15069803974234008
% es.EZ (V/m) @ t=0.48
-0.4985809998860411
% es.tEX (V/m) @ t=0.48
-1.9561936210450046
% es.tEY (V/m) @ t=0.48
0
% es.tEZ (V/m) @ t=0.48
-0.4985809998860464
% es.Ex (V/m) @ t=0.48
-1.9561936210449833
% es.Ey (V/m) @ t=0.48
0.15069803974234008
% es.Ez (V/m) @ t=0.48
-0.4985809998860411
% es.tEx (V/m) @ t=0.48
-1.9561936210450046
% es.tEy (V/m) @ t=0.48
0
% es.tEz (V/m) @ t=0.48
-0.4985809998860464
% V (V) @ t=0.48
0.011732352898345033
% es.normE (V/m) @ t=0.5
2.0426102181630243
% es.EX (V/m) @ t=0.5
-1.9737016625695425
% es.EY (V/m) @ t=0.5
0.15204674676059426
% es.EZ (V/m) @ t=0.5
-0.5030432533211346
% es.tEX (V/m) @ t=0.5
-1.9737016625695336
% es.tEY (V/m) @ t=0.5
0
% es.tEZ (V/m) @ t=0.5
-0.503043253321124
% es.Ex (V/m) @ t=0.5
-1.9737016625695425
% es.Ey (V/m) @ t=0.5
0.15204674676059426
% es.Ez (V/m) @ t=0.5
-0.5030432533211346
% es.tEx (V/m) @ t=0.5
-1.9737016625695336
% es.tEy (V/m) @ t=0.5
0
% es.tEz (V/m) @ t=0.5
-0.503043253321124
% V (V) @ t=0.5
0.011837359332664494
% es.normE (V/m) @ t=0.52
2.060729502210701
% es.EX (V/m) @ t=0.52
-1.9912097040941221
% es.EY (V/m) @ t=0.52
0.15339545377884933
% es.EZ (V/m) @ t=0.52
-0.5075055067562135
% es.tEX (V/m) @ t=0.52
-1.991209704094132
% es.tEY (V/m) @ t=0.52
0
% es.tEZ (V/m) @ t=0.52
-0.507505506756198
% es.Ex (V/m) @ t=0.52
-1.9912097040941221
% es.Ey (V/m) @ t=0.52
0.15339545377884933
% es.Ez (V/m) @ t=0.52
-0.5075055067562135
% es.tEx (V/m) @ t=0.52
-1.991209704094132
% es.tEy (V/m) @ t=0.52
0
% es.tEz (V/m) @ t=0.52
-0.507505506756198
% V (V) @ t=0.52
0.011942365766983952
% es.normE (V/m) @ t=0.54
2.080397828879886
% es.EX (V/m) @ t=0.54
-2.0102145246527297
% es.EY (V/m) @ t=0.54
0.15485947919879506
% es.EZ (V/m) @ t=0.54
-0.5123492690813864
% es.tEX (V/m) @ t=0.54
-2.0102145246527243
% es.tEY (V/m) @ t=0.54
0
% es.tEZ (V/m) @ t=0.54
-0.5123492690813922
% es.Ex (V/m) @ t=0.54
-2.0102145246527297
% es.Ey (V/m) @ t=0.54
0.15485947919879506
% es.Ez (V/m) @ t=0.54
-0.5123492690813864
% es.tEx (V/m) @ t=0.54
-2.0102145246527243
% es.tEy (V/m) @ t=0.54
0
% es.tEz (V/m) @ t=0.54
-0.5123492690813922
% V (V) @ t=0.54
0.01205634887704584
% es.normE (V/m) @ t=0.56
2.100530887600411
% es.EX (V/m) @ t=0.56
-2.0296683975364385
% es.EY (V/m) @ t=0.56
0.15635810157345986
% es.EZ (V/m) @ t=0.56
-0.5173074888183002
% es.tEX (V/m) @ t=0.56
-2.0296683975364385
% es.tEY (V/m) @ t=0.56
0
% es.tEZ (V/m) @ t=0.56
-0.5173074888183073
% es.Ex (V/m) @ t=0.56
-2.0296683975364385
% es.Ey (V/m) @ t=0.56
0.15635810157345986
% es.Ez (V/m) @ t=0.56
-0.5173074888183002
% es.tEx (V/m) @ t=0.56
-2.0296683975364385
% es.tEy (V/m) @ t=0.56
0
% es.tEz (V/m) @ t=0.56
-0.5173074888183073
% V (V) @ t=0.56
0.012173025101469972
% es.normE (V/m) @ t=0.58
2.1206639463209065
% es.EX (V/m) @ t=0.58
-2.0491222704201304
% es.EY (V/m) @ t=0.58
0.1578567239480847
% es.EZ (V/m) @ t=0.58
-0.522265708555171
% es.tEX (V/m) @ t=0.58
-2.049122270420124
% es.tEY (V/m) @ t=0.58
0
% es.tEZ (V/m) @ t=0.58
-0.5222657085551745
% es.Ex (V/m) @ t=0.58
-2.0491222704201304
% es.Ey (V/m) @ t=0.58
0.1578567239480847
% es.Ez (V/m) @ t=0.58
-0.522265708555171
% es.tEx (V/m) @ t=0.58
-2.049122270420124
% es.tEy (V/m) @ t=0.58
0
% es.tEz (V/m) @ t=0.58
-0.5222657085551745
% V (V) @ t=0.58
0.0122897013258941
% es.normE (V/m) @ t=0.6
2.140797005041425
% es.EX (V/m) @ t=0.6
-2.068576143303831
% es.EY (V/m) @ t=0.6
0.15935534632270343
% es.EZ (V/m) @ t=0.6
-0.5272239282920914
% es.tEX (V/m) @ t=0.6
-2.06857614330384
% es.tEY (V/m) @ t=0.6
0
% es.tEZ (V/m) @ t=0.6
-0.5272239282920861
% es.Ex (V/m) @ t=0.6
-2.068576143303831
% es.Ey (V/m) @ t=0.6
0.15935534632270343
% es.Ez (V/m) @ t=0.6
-0.5272239282920914
% es.tEx (V/m) @ t=0.6
-2.06857614330384
% es.tEy (V/m) @ t=0.6
0
% es.tEz (V/m) @ t=0.6
-0.5272239282920861
% V (V) @ t=0.6
0.012406377550318228
% es.normE (V/m) @ t=0.62
2.160930063761948
% es.EX (V/m) @ t=0.62
-2.088030016187542
% es.EY (V/m) @ t=0.62
0.1608539686973327
% es.EZ (V/m) @ t=0.62
-0.5321821480289892
% es.tEX (V/m) @ t=0.62
-2.0880300161875702
% es.tEY (V/m) @ t=0.62
0
% es.tEZ (V/m) @ t=0.62
-0.5321821480289941
% es.Ex (V/m) @ t=0.62
-2.088030016187542
% es.Ey (V/m) @ t=0.62
0.1608539686973327
% es.Ez (V/m) @ t=0.62
-0.5321821480289892
% es.tEx (V/m) @ t=0.62
-2.0880300161875702
% es.tEy (V/m) @ t=0.62
0
% es.tEz (V/m) @ t=0.62
-0.5321821480289941
% V (V) @ t=0.62
0.01252305377474236
% es.normE (V/m) @ t=0.64
2.1810631224824832
% es.EX (V/m) @ t=0.64
-2.107483889071265
% es.EY (V/m) @ t=0.64
0.16235259107196653
% es.EZ (V/m) @ t=0.64
-0.537140367765875
% es.tEX (V/m) @ t=0.64
-2.1074838890712577
% es.tEY (V/m) @ t=0.64
0
% es.tEZ (V/m) @ t=0.64
-0.5371403677658719
% es.Ex (V/m) @ t=0.64
-2.107483889071265
% es.Ey (V/m) @ t=0.64
0.16235259107196653
% es.Ez (V/m) @ t=0.64
-0.537140367765875
% es.tEx (V/m) @ t=0.64
-2.1074838890712577
% es.tEy (V/m) @ t=0.64
0
% es.tEz (V/m) @ t=0.64
-0.5371403677658719
% V (V) @ t=0.64
0.01263972999916649
% es.normE (V/m) @ t=0.66
2.201196181203
% es.EX (V/m) @ t=0.66
-2.1269377619549648
% es.EY (V/m) @ t=0.66
0.16385121344659836
% es.EZ (V/m) @ t=0.66
-0.5420985875027746
% es.tEX (V/m) @ t=0.66
-2.1269377619549594
% es.tEY (V/m) @ t=0.66
0
% es.tEZ (V/m) @ t=0.66
-0.5420985875027817
% es.Ex (V/m) @ t=0.66
-2.1269377619549648
% es.Ey (V/m) @ t=0.66
0.16385121344659836
% es.Ez (V/m) @ t=0.66
-0.5420985875027746
% es.tEx (V/m) @ t=0.66
-2.1269377619549594
% es.tEy (V/m) @ t=0.66
0
% es.tEz (V/m) @ t=0.66
-0.5420985875027817
% V (V) @ t=0.66
0.01275640622359062
% es.normE (V/m) @ t=0.68
2.221329239923537
% es.EX (V/m) @ t=0.68
-2.1463916348386816
% es.EY (V/m) @ t=0.68
0.16534983582122775
% es.EZ (V/m) @ t=0.68
-0.5470568072396849
% es.tEX (V/m) @ t=0.68
-2.1463916348386896
% es.tEY (V/m) @ t=0.68
0
% es.tEZ (V/m) @ t=0.68
-0.5470568072396862
% es.Ex (V/m) @ t=0.68
-2.1463916348386816
% es.Ey (V/m) @ t=0.68
0.16534983582122775
% es.Ez (V/m) @ t=0.68
-0.5470568072396849
% es.tEx (V/m) @ t=0.68
-2.1463916348386896
% es.tEy (V/m) @ t=0.68
0
% es.tEz (V/m) @ t=0.68
-0.5470568072396862
% V (V) @ t=0.68
0.01287308244801475
% es.normE (V/m) @ t=0.7
2.2414622986440795
% es.EX (V/m) @ t=0.7
-2.16584550772241
% es.EY (V/m) @ t=0.7
0.16684845819584293
% es.EZ (V/m) @ t=0.7
-0.5520150269765742
% es.tEX (V/m) @ t=0.7
-2.1658455077223913
% es.tEY (V/m) @ t=0.7
0
% es.tEZ (V/m) @ t=0.7
-0.5520150269765658
% es.Ex (V/m) @ t=0.7
-2.16584550772241
% es.Ey (V/m) @ t=0.7
0.16684845819584293
% es.Ez (V/m) @ t=0.7
-0.5520150269765742
% es.tEx (V/m) @ t=0.7
-2.1658455077223913
% es.tEy (V/m) @ t=0.7
0
% es.tEz (V/m) @ t=0.7
-0.5520150269765658
% V (V) @ t=0.7
0.012989758672438881
% es.normE (V/m) @ t=0.72
2.261595357364583
% es.EX (V/m) @ t=0.72
-2.1852993806060903
% es.EY (V/m) @ t=0.72
0.16834708057047842
% es.EZ (V/m) @ t=0.72
-0.55697324671348
% es.tEX (V/m) @ t=0.72
-2.1852993806060894
% es.tEY (V/m) @ t=0.72
0
% es.tEZ (V/m) @ t=0.72
-0.5569732467134756
% es.Ex (V/m) @ t=0.72
-2.1852993806060903
% es.Ey (V/m) @ t=0.72
0.16834708057047842
% es.Ez (V/m) @ t=0.72
-0.55697324671348
% es.tEx (V/m) @ t=0.72
-2.1852993806060894
% es.tEy (V/m) @ t=0.72
0
% es.tEz (V/m) @ t=0.72
-0.5569732467134756
% V (V) @ t=0.72
0.013106434896863011
% es.normE (V/m) @ t=0.74
2.281728416085108
% es.EX (V/m) @ t=0.74
-2.204753253489791
% es.EY (V/m) @ t=0.74
0.16984570294514412
% es.EZ (V/m) @ t=0.74
-0.5619314664503761
% es.tEX (V/m) @ t=0.74
-2.204753253489791
% es.tEY (V/m) @ t=0.74
0
% es.tEZ (V/m) @ t=0.74
-0.5619314664503818
% es.Ex (V/m) @ t=0.74
-2.204753253489791
% es.Ey (V/m) @ t=0.74
0.16984570294514412
% es.Ez (V/m) @ t=0.74
-0.5619314664503761
% es.tEx (V/m) @ t=0.74
-2.204753253489791
% es.tEy (V/m) @ t=0.74
0
% es.tEz (V/m) @ t=0.74
-0.5619314664503818
% V (V) @ t=0.74
0.01322311112128714
% es.normE (V/m) @ t=0.76
2.3018614748056363
% es.EX (V/m) @ t=0.76
-2.2242071263735017
% es.EY (V/m) @ t=0.76
0.17134432531974753
% es.EZ (V/m) @ t=0.76
-0.566889686187265
% es.tEX (V/m) @ t=0.76
-2.2242071263735212
% es.tEY (V/m) @ t=0.76
0
% es.tEZ (V/m) @ t=0.76
-0.5668896861872454
% es.Ex (V/m) @ t=0.76
-2.2242071263735017
% es.Ey (V/m) @ t=0.76
0.17134432531974753
% es.Ez (V/m) @ t=0.76
-0.566889686187265
% es.tEx (V/m) @ t=0.76
-2.2242071263735212
% es.tEy (V/m) @ t=0.76
0
% es.tEz (V/m) @ t=0.76
-0.5668896861872454
% V (V) @ t=0.76
0.013339787345711267
% es.normE (V/m) @ t=0.78
2.3219945335261594
% es.EX (V/m) @ t=0.78
-2.2436609992572
% es.EY (V/m) @ t=0.78
0.17284294769437258
% es.EZ (V/m) @ t=0.78
-0.5718479059241708
% es.tEX (V/m) @ t=0.78
-2.243660999257191
% es.tEY (V/m) @ t=0.78
0
% es.tEZ (V/m) @ t=0.78
-0.5718479059241695
% es.Ex (V/m) @ t=0.78
-2.2436609992572
% es.Ey (V/m) @ t=0.78
0.17284294769437258
% es.Ez (V/m) @ t=0.78
-0.5718479059241708
% es.tEx (V/m) @ t=0.78
-2.243660999257191
% es.tEy (V/m) @ t=0.78
0
% es.tEz (V/m) @ t=0.78
-0.5718479059241695
% V (V) @ t=0.78
0.013456463570135399
% es.normE (V/m) @ t=0.8
2.3436261950975856
% es.EX (V/m) @ t=0.8
-2.2645629141635784
% es.EY (V/m) @ t=0.8
0.17445313279541197
% es.EZ (V/m) @ t=0.8
-0.577175208476683
% es.tEX (V/m) @ t=0.8
-2.2645629141635872
% es.tEY (V/m) @ t=0.8
0
% es.tEZ (V/m) @ t=0.8
-0.5771752084766888
% es.Ex (V/m) @ t=0.8
-2.2645629141635784
% es.Ey (V/m) @ t=0.8
0.17445313279541197
% es.Ez (V/m) @ t=0.8
-0.577175208476683
% es.tEx (V/m) @ t=0.8
-2.2645629141635872
% es.tEy (V/m) @ t=0.8
0
% es.tEz (V/m) @ t=0.8
-0.5771752084766888
% V (V) @ t=0.8
0.013581824219810001
% es.normE (V/m) @ t=0.82
2.366034565281656
% es.EX (V/m) @ t=0.82
-2.286215332587153
% es.EY (V/m) @ t=0.82
0.1761211395737865
% es.EZ (V/m) @ t=0.82
-0.5826938024053527
% es.tEX (V/m) @ t=0.82
-2.286215332587137
% es.tEY (V/m) @ t=0.82
0
% es.tEZ (V/m) @ t=0.82
-0.5826938024053412
% es.Ex (V/m) @ t=0.82
-2.286215332587153
% es.Ey (V/m) @ t=0.82
0.1761211395737865
% es.Ez (V/m) @ t=0.82
-0.5826938024053527
% es.tEx (V/m) @ t=0.82
-2.286215332587137
% es.tEy (V/m) @ t=0.82
0
% es.tEz (V/m) @ t=0.82
-0.5826938024053412
% V (V) @ t=0.82
0.013711685907157005
% es.normE (V/m) @ t=0.84
2.38844293546574
% es.EX (V/m) @ t=0.84
-2.3078677510107513
% es.EY (V/m) @ t=0.84
0.17778914635214127
% es.EZ (V/m) @ t=0.84
-0.5882123963339909
% es.tEX (V/m) @ t=0.84
-2.3078677510107433
% es.tEY (V/m) @ t=0.84
0
% es.tEZ (V/m) @ t=0.84
-0.5882123963340007
% es.Ex (V/m) @ t=0.84
-2.3078677510107513
% es.Ey (V/m) @ t=0.84
0.17778914635214127
% es.Ez (V/m) @ t=0.84
-0.5882123963339909
% es.tEx (V/m) @ t=0.84
-2.3078677510107433
% es.tEy (V/m) @ t=0.84
0
% es.tEz (V/m) @ t=0.84
-0.5882123963340007
% V (V) @ t=0.84
0.013841547594504015
% es.normE (V/m) @ t=0.86
2.4108513056497882
% es.EX (V/m) @ t=0.86
-2.3295201694343044
% es.EY (V/m) @ t=0.86
0.1794571531305139
% es.EZ (V/m) @ t=0.86
-0.5937309902626557
% es.tEX (V/m) @ t=0.86
-2.329520169434307
% es.tEY (V/m) @ t=0.86
0
% es.tEZ (V/m) @ t=0.86
-0.5937309902626602
% es.Ex (V/m) @ t=0.86
-2.3295201694343044
% es.Ey (V/m) @ t=0.86
0.1794571531305139
% es.Ez (V/m) @ t=0.86
-0.5937309902626557
% es.tEx (V/m) @ t=0.86
-2.329520169434307
% es.tEy (V/m) @ t=0.86
0
% es.tEz (V/m) @ t=0.86
-0.5937309902626602
% V (V) @ t=0.86
0.013971409281851024
% es.normE (V/m) @ t=0.88
2.433259675833874
% es.EX (V/m) @ t=0.88
-2.351172587857895
% es.EY (V/m) @ t=0.88
0.18112515990890454
% es.EZ (V/m) @ t=0.88
-0.5992495841913184
% es.tEX (V/m) @ t=0.88
-2.3511725878578886
% es.tEY (V/m) @ t=0.88
0
% es.tEZ (V/m) @ t=0.88
-0.5992495841913019
% es.Ex (V/m) @ t=0.88
-2.351172587857895
% es.Ey (V/m) @ t=0.88
0.18112515990890454
% es.Ez (V/m) @ t=0.88
-0.5992495841913184
% es.tEx (V/m) @ t=0.88
-2.3511725878578886
% es.tEy (V/m) @ t=0.88
0
% es.tEz (V/m) @ t=0.88
-0.5992495841913019
% V (V) @ t=0.88
0.014101270969198028
% es.normE (V/m) @ t=0.9
2.4556680460179385
% es.EX (V/m) @ t=0.9
-2.372825006281472
% es.EY (V/m) @ t=0.9
0.18279316668721324
% es.EZ (V/m) @ t=0.9
-0.6047681781199725
% es.tEX (V/m) @ t=0.9
-2.37282500628147
% es.tEY (V/m) @ t=0.9
0
% es.tEZ (V/m) @ t=0.9
-0.604768178119965
% es.Ex (V/m) @ t=0.9
-2.372825006281472
% es.Ey (V/m) @ t=0.9
0.18279316668721324
% es.Ez (V/m) @ t=0.9
-0.6047681781199725
% es.tEx (V/m) @ t=0.9
-2.37282500628147
% es.tEy (V/m) @ t=0.9
0
% es.tEz (V/m) @ t=0.9
-0.604768178119965
% V (V) @ t=0.9
0.014231132656545034
% es.normE (V/m) @ t=0.92
2.478076416201992
% es.EX (V/m) @ t=0.92
-2.3944774247050304
% es.EY (V/m) @ t=0.92
0.18446117346559843
% es.EZ (V/m) @ t=0.92
-0.6102867720486316
% es.tEX (V/m) @ t=0.92
-2.394477424705034
% es.tEY (V/m) @ t=0.92
0
% es.tEZ (V/m) @ t=0.92
-0.6102867720486209
% es.Ex (V/m) @ t=0.92
-2.3944774247050304
% es.Ey (V/m) @ t=0.92
0.18446117346559843
% es.Ez (V/m) @ t=0.92
-0.6102867720486316
% es.tEx (V/m) @ t=0.92
-2.394477424705034
% es.tEy (V/m) @ t=0.92
0
% es.tEz (V/m) @ t=0.92
-0.6102867720486209
% V (V) @ t=0.92
0.01436099434389204
% es.normE (V/m) @ t=0.94
2.500484786386054
% es.EX (V/m) @ t=0.94
-2.4161298431285996
% es.EY (V/m) @ t=0.94
0.18612918024395497
% es.EZ (V/m) @ t=0.94
-0.6158053659772933
% es.tEX (V/m) @ t=0.94
-2.416129843128612
% es.tEY (V/m) @ t=0.94
0
% es.tEZ (V/m) @ t=0.94
-0.6158053659772769
% es.Ex (V/m) @ t=0.94
-2.4161298431285996
% es.Ey (V/m) @ t=0.94
0.18612918024395497
% es.Ez (V/m) @ t=0.94
-0.6158053659772933
% es.tEx (V/m) @ t=0.94
-2.416129843128612
% es.tEy (V/m) @ t=0.94
0
% es.tEz (V/m) @ t=0.94
-0.6158053659772769
% V (V) @ t=0.94
0.01449085603123905
% es.normE (V/m) @ t=0.96
2.5228931565701274
% es.EX (V/m) @ t=0.96
-2.437782261552181
% es.EY (V/m) @ t=0.96
0.18779718702230996
% es.EZ (V/m) @ t=0.96
-0.621323959905947
% es.tEX (V/m) @ t=0.96
-2.43778226155219
% es.tEY (V/m) @ t=0.96
0
% es.tEZ (V/m) @ t=0.96
-0.6213239599059506
% es.Ex (V/m) @ t=0.96
-2.437782261552181
% es.Ey (V/m) @ t=0.96
0.18779718702230996
% es.Ez (V/m) @ t=0.96
-0.621323959905947
% es.tEx (V/m) @ t=0.96
-2.43778226155219
% es.tEy (V/m) @ t=0.96
0
% es.tEz (V/m) @ t=0.96
-0.6213239599059506
% V (V) @ t=0.96
0.014620717718586059
% es.normE (V/m) @ t=0.98
2.545301526754187
% es.EX (V/m) @ t=0.98
-2.4594346799757485
% es.EY (V/m) @ t=0.98
0.18946519380068616
% es.EZ (V/m) @ t=0.98
-0.6268425538345994
% es.tEX (V/m) @ t=0.98
-2.459434679975768
% es.tEY (V/m) @ t=0.98
0
% es.tEZ (V/m) @ t=0.98
-0.6268425538345888
% es.Ex (V/m) @ t=0.98
-2.4594346799757485
% es.Ey (V/m) @ t=0.98
0.18946519380068616
% es.Ez (V/m) @ t=0.98
-0.6268425538345994
% es.tEx (V/m) @ t=0.98
-2.459434679975768
% es.tEy (V/m) @ t=0.98
0
% es.tEz (V/m) @ t=0.98
-0.6268425538345888
% V (V) @ t=0.98
0.014750579405933063
% es.normE (V/m) @ t=1
2.5677098969382444
% es.EX (V/m) @ t=1
-2.481087098399316
% es.EY (V/m) @ t=1
0.1911332005790074
% es.EZ (V/m) @ t=1
-0.6323611477632549
% es.tEX (V/m) @ t=1
-2.4810870983993176
% es.tEY (V/m) @ t=1
0
% es.tEZ (V/m) @ t=1
-0.6323611477632554
% es.Ex (V/m) @ t=1
-2.481087098399316
% es.Ey (V/m) @ t=1
0.1911332005790074
% es.Ez (V/m) @ t=1
-0.6323611477632549
% es.tEx (V/m) @ t=1
-2.4810870983993176
% es.tEy (V/m) @ t=1
0
% es.tEz (V/m) @ t=1
-0.6323611477632554
% V (V) @ t=1
0.014880441093280069
% es.normE (V/m) @ t=1.02
2.590118267122336
% es.EX (V/m) @ t=1.02
-2.502739516822915
% es.EY (V/m) @ t=1.02
0.19280120735737305
% es.EZ (V/m) @ t=1.02
-0.6378797416919109
% es.tEX (V/m) @ t=1.02
-2.5027395168229276
% es.tEY (V/m) @ t=1.02
0
% es.tEZ (V/m) @ t=1.02
-0.637879741691922
% es.Ex (V/m) @ t=1.02
-2.502739516822915
% es.Ey (V/m) @ t=1.02
0.19280120735737305
% es.Ez (V/m) @ t=1.02
-0.6378797416919109
% es.tEx (V/m) @ t=1.02
-2.5027395168229276
% es.tEy (V/m) @ t=1.02
0
% es.tEz (V/m) @ t=1.02
-0.637879741691922
% V (V) @ t=1.02
0.015010302780627075