% Model:              1 neuron.mph
% Version:            COMSOL 6.0.0.405
% Date:               Mar 16 2023, 18:15
% Dimension:          0
% Nodes:              14017
% Expressions:        14017
% Description:        Electric field norm, Electric field, X component, Electric field, Y component, Electric field, Z component, Tangential electric field, X component, Tangential electric field, Y component, Tangential electric field, Z component, Electric field, x component, Electric field, y component, Electric field, z component, Tangential electric field, x component, Tangential electric field, y component, Tangential electric field, z component, Electric potential
% Length unit:        mm
% x
2
% y
12.2
% z
1
% es.normE (V/m) @ t=0
1.1418337615185785
% es.EX (V/m) @ t=0
-0.7373812284816326
% es.EY (V/m) @ t=0
0.16382882627336126
% es.EZ (V/m) @ t=0
0.8409537645707186
% es.tEX (V/m) @ t=0
-0.7373812284816299
% es.tEY (V/m) @ t=0
0
% es.tEZ (V/m) @ t=0
0.8409537645707266
% es.Ex (V/m) @ t=0
-0.7373812284816326
% es.Ey (V/m) @ t=0
0.16382882627336126
% es.Ez (V/m) @ t=0
0.8409537645707186
% es.tEx (V/m) @ t=0
-0.7373812284816299
% es.tEy (V/m) @ t=0
0
% es.tEz (V/m) @ t=0
0.8409537645707266
% V (V) @ t=0
0.011050703983374922
% es.normE (V/m) @ t=0.02
0.9862237891781478
% es.EX (V/m) @ t=0.02
-0.6368903545788969
% es.EY (V/m) @ t=0.02
0.14150210938952945
% es.EZ (V/m) @ t=0.02
0.7263479467363005
% es.tEX (V/m) @ t=0.02
-0.6368903545788982
% es.tEY (V/m) @ t=0.02
0
% es.tEZ (V/m) @ t=0.02
0.7263479467363183
% es.Ex (V/m) @ t=0.02
-0.6368903545788969
% es.Ey (V/m) @ t=0.02
0.14150210938952945
% es.Ez (V/m) @ t=0.02
0.7263479467363005
% es.tEx (V/m) @ t=0.02
-0.6368903545788982
% es.tEy (V/m) @ t=0.02
0
% es.tEz (V/m) @ t=0.02
0.7263479467363183
% V (V) @ t=0.02
0.009544705635813876
% es.normE (V/m) @ t=0.04
0.995296329695174
% es.EX (V/m) @ t=0.04
-0.6427492820143312
% es.EY (V/m) @ t=0.04
0.14280382573842576
% es.EZ (V/m) @ t=0.04
0.7330298187092747
% es.tEX (V/m) @ t=0.04
-0.642749282014329
% es.tEY (V/m) @ t=0.04
0
% es.tEZ (V/m) @ t=0.04
0.7330298187092934
% es.Ex (V/m) @ t=0.04
-0.6427492820143312
% es.Ey (V/m) @ t=0.04
0.14280382573842576
% es.Ez (V/m) @ t=0.04
0.7330298187092747
% es.tEx (V/m) @ t=0.04
-0.642749282014329
% es.tEy (V/m) @ t=0.04
0
% es.tEz (V/m) @ t=0.04
0.7330298187092934
% V (V) @ t=0.04
0.009632509921764551
% es.normE (V/m) @ t=0.06
1.0044423729434766
% es.EX (V/m) @ t=0.06
-0.6486556766743745
% es.EY (V/m) @ t=0.06
0.14411608817789479
% es.EZ (V/m) @ t=0.06
0.7397658248586696
% es.tEX (V/m) @ t=0.06
-0.6486556766743687
% es.tEY (V/m) @ t=0.06
0
% es.tEZ (V/m) @ t=0.06
0.7397658248586767
% es.Ex (V/m) @ t=0.06
-0.6486556766743745
% es.Ey (V/m) @ t=0.06
0.14411608817789479
% es.Ez (V/m) @ t=0.06
0.7397658248586696
% es.tEx (V/m) @ t=0.06
-0.6486556766743687
% es.tEy (V/m) @ t=0.06
0
% es.tEz (V/m) @ t=0.06
0.7397658248586767
% V (V) @ t=0.06
0.009721025470111827
% es.normE (V/m) @ t=0.08
1.0137472327772552
% es.EX (V/m) @ t=0.08
-0.6546646327378565
% es.EY (V/m) @ t=0.08
0.14545113739243498
% es.EZ (V/m) @ t=0.08
0.7466187987755717
% es.tEX (V/m) @ t=0.08
-0.6546646327378542
% es.tEY (V/m) @ t=0.08
0
% es.tEZ (V/m) @ t=0.08
0.7466187987755726
% es.Ex (V/m) @ t=0.08
-0.6546646327378565
% es.Ey (V/m) @ t=0.08
0.14545113739243498
% es.Ez (V/m) @ t=0.08
0.7466187987755717
% es.tEx (V/m) @ t=0.08
-0.6546646327378542
% es.tEy (V/m) @ t=0.08
0
% es.tEz (V/m) @ t=0.08
0.7466187987755726
% V (V) @ t=0.08
0.00981107825399769
% es.normE (V/m) @ t=0.1
1.023122599086372
% es.EX (V/m) @ t=0.1
-0.6607191208409442
% es.EY (V/m) @ t=0.1
0.14679630277457845
% es.EZ (V/m) @ t=0.1
0.7535237004240258
% es.tEX (V/m) @ t=0.1
-0.6607191208409455
% es.tEY (V/m) @ t=0.1
0
% es.tEZ (V/m) @ t=0.1
0.7535237004240338
% es.Ex (V/m) @ t=0.1
-0.6607191208409442
% es.Ey (V/m) @ t=0.1
0.14679630277457845
% es.Ez (V/m) @ t=0.1
0.7535237004240258
% es.tEx (V/m) @ t=0.1
-0.6607191208409455
% es.tEy (V/m) @ t=0.1
0
% es.tEz (V/m) @ t=0.1
0.7535237004240338
% V (V) @ t=0.1
0.009901813492170364
% es.normE (V/m) @ t=0.12
1.0324979653954889
% es.EX (V/m) @ t=0.12
-0.6667736089440348
% es.EY (V/m) @ t=0.12
0.14814146815672624
% es.EZ (V/m) @ t=0.12
0.7604286020724746
% es.tEX (V/m) @ t=0.12
-0.6667736089440361
% es.tEY (V/m) @ t=0.12
0
% es.tEZ (V/m) @ t=0.12
0.7604286020724818
% es.Ex (V/m) @ t=0.12
-0.6667736089440348
% es.Ey (V/m) @ t=0.12
0.14814146815672624
% es.Ez (V/m) @ t=0.12
0.7604286020724746
% es.tEx (V/m) @ t=0.12
-0.6667736089440361
% es.tEy (V/m) @ t=0.12
0
% es.tEz (V/m) @ t=0.12
0.7604286020724818
% V (V) @ t=0.12
0.009992548730343036
% es.normE (V/m) @ t=0.14
1.0420645183601331
% es.EX (V/m) @ t=0.14
-0.672951562985955
% es.EY (V/m) @ t=0.14
0.1495140647526706
% es.EZ (V/m) @ t=0.14
0.7674743114286446
% es.tEX (V/m) @ t=0.14
-0.6729515629859528
% es.tEY (V/m) @ t=0.14
0
% es.tEZ (V/m) @ t=0.14
0.7674743114286562
% es.Ex (V/m) @ t=0.14
-0.672951562985955
% es.Ey (V/m) @ t=0.14
0.1495140647526706
% es.Ez (V/m) @ t=0.14
0.7674743114286446
% es.tEx (V/m) @ t=0.14
-0.6729515629859528
% es.tEy (V/m) @ t=0.14
0
% es.tEz (V/m) @ t=0.14
0.7674743114286562
% V (V) @ t=0.14
0.010085134189094158
% es.normE (V/m) @ t=0.16
1.0519242057116975
% es.EX (V/m) @ t=0.16
-0.6793188195301132
% es.EY (V/m) @ t=0.16
0.15092871989093426
% es.EZ (V/m) @ t=0.16
0.7747359123226412
% es.tEX (V/m) @ t=0.16
-0.6793188195301074
% es.tEY (V/m) @ t=0.16
0
% es.tEZ (V/m) @ t=0.16
0.7747359123226492
% es.Ex (V/m) @ t=0.16
-0.6793188195301132
% es.Ey (V/m) @ t=0.16
0.15092871989093426
% es.Ez (V/m) @ t=0.16
0.7747359123226412
% es.tEx (V/m) @ t=0.16
-0.6793188195301074
% es.tEy (V/m) @ t=0.16
0
% es.tEz (V/m) @ t=0.16
0.7747359123226492
% V (V) @ t=0.16
0.010180556473843689
% es.normE (V/m) @ t=0.18
1.0617838930632781
% es.EX (V/m) @ t=0.18
-0.6856860760742671
% es.EY (V/m) @ t=0.18
0.15234337502918527
% es.EZ (V/m) @ t=0.18
0.7819975132166634
% es.tEX (V/m) @ t=0.18
-0.6856860760742647
% es.tEY (V/m) @ t=0.18
0
% es.tEZ (V/m) @ t=0.18
0.7819975132166714
% es.Ex (V/m) @ t=0.18
-0.6856860760742671
% es.Ey (V/m) @ t=0.18
0.15234337502918527
% es.Ez (V/m) @ t=0.18
0.7819975132166634
% es.tEx (V/m) @ t=0.18
-0.6856860760742647
% es.tEy (V/m) @ t=0.18
0
% es.tEz (V/m) @ t=0.18
0.7819975132166714
% V (V) @ t=0.18
0.010275978758593218
% es.normE (V/m) @ t=0.2
1.0716435804148556
% es.EX (V/m) @ t=0.2
-0.692053332618425
% es.EY (V/m) @ t=0.2
0.15375803016744438
% es.EZ (V/m) @ t=0.2
0.7892591141106777
% es.tEX (V/m) @ t=0.2
-0.6920533326184226
% es.tEY (V/m) @ t=0.2
0
% es.tEZ (V/m) @ t=0.2
0.7892591141106786
% es.Ex (V/m) @ t=0.2
-0.692053332618425
% es.Ey (V/m) @ t=0.2
0.15375803016744438
% es.Ez (V/m) @ t=0.2
0.7892591141106777
% es.tEx (V/m) @ t=0.2
-0.6920533326184226
% es.tEy (V/m) @ t=0.2
0
% es.tEz (V/m) @ t=0.2
0.7892591141106786
% V (V) @ t=0.2
0.010371401043342748
% es.normE (V/m) @ t=0.22
1.0815032677664238
% es.EX (V/m) @ t=0.22
-0.698420589162583
% es.EY (V/m) @ t=0.22
0.15517268530568662
% es.EZ (V/m) @ t=0.22
0.7965207150046858
% es.tEX (V/m) @ t=0.22
-0.698420589162577
% es.tEY (V/m) @ t=0.22
0
% es.tEZ (V/m) @ t=0.22
0.7965207150046938
% es.Ex (V/m) @ t=0.22
-0.698420589162583
% es.Ey (V/m) @ t=0.22
0.15517268530568662
% es.Ez (V/m) @ t=0.22
0.7965207150046858
% es.tEx (V/m) @ t=0.22
-0.698420589162577
% es.tEy (V/m) @ t=0.22
0
% es.tEz (V/m) @ t=0.22
0.7965207150046938
% V (V) @ t=0.22
0.01046682332809228
% es.normE (V/m) @ t=0.24
1.091362955118
% es.EX (V/m) @ t=0.24
-0.7047878457067374
% es.EY (V/m) @ t=0.24
0.15658734044395195
% es.EZ (V/m) @ t=0.24
0.8037823158987001
% es.tEX (V/m) @ t=0.24
-0.7047878457067351
% es.tEY (V/m) @ t=0.24
0
% es.tEZ (V/m) @ t=0.24
0.803782315898701
% es.Ex (V/m) @ t=0.24
-0.7047878457067374
% es.Ey (V/m) @ t=0.24
0.15658734044395195
% es.Ez (V/m) @ t=0.24
0.8037823158987001
% es.tEx (V/m) @ t=0.24
-0.7047878457067351
% es.tEy (V/m) @ t=0.24
0
% es.tEz (V/m) @ t=0.24
0.803782315898701
% V (V) @ t=0.24
0.010562245612841808
% es.normE (V/m) @ t=0.26
1.101222642469565
% es.EX (V/m) @ t=0.26
-0.7111551022508882
% es.EY (V/m) @ t=0.26
0.15800199558220673
% es.EZ (V/m) @ t=0.26
0.8110439167927037
% es.tEX (V/m) @ t=0.26
-0.7111551022508857
% es.tEY (V/m) @ t=0.26
0
% es.tEZ (V/m) @ t=0.26
0.8110439167927153
% es.Ex (V/m) @ t=0.26
-0.7111551022508882
% es.Ey (V/m) @ t=0.26
0.15800199558220673
% es.Ez (V/m) @ t=0.26
0.8110439167927037
% es.tEx (V/m) @ t=0.26
-0.7111551022508857
% es.tEy (V/m) @ t=0.26
0
% es.tEz (V/m) @ t=0.26
0.8110439167927153
% V (V) @ t=0.26
0.010657667897591339
% es.normE (V/m) @ t=0.28
1.1119494826561507
% es.EX (V/m) @ t=0.28
-0.7180823572948349
% es.EY (V/m) @ t=0.28
0.15954106840419424
% es.EZ (V/m) @ t=0.28
0.8189441677210105
% es.tEX (V/m) @ t=0.28
-0.718082357294836
% es.tEY (V/m) @ t=0.28
0
% es.tEZ (V/m) @ t=0.28
0.8189441677210114
% es.Ex (V/m) @ t=0.28
-0.7180823572948349
% es.Ey (V/m) @ t=0.28
0.15954106840419424
% es.Ez (V/m) @ t=0.28
0.8189441677210105
% es.tEx (V/m) @ t=0.28
-0.718082357294836
% es.tEy (V/m) @ t=0.28
0
% es.tEz (V/m) @ t=0.28
0.8189441677210114
% V (V) @ t=0.28
0.010761480337579444
% es.normE (V/m) @ t=0.3
1.1228942431632063
% es.EX (V/m) @ t=0.3
-0.7251503430699882
% es.EY (V/m) @ t=0.3
0.16111140808064672
% es.EZ (V/m) @ t=0.3
0.8270049149476915
% es.tEX (V/m) @ t=0.3
-0.7251503430699857
% es.tEY (V/m) @ t=0.3
0
% es.tEZ (V/m) @ t=0.3
0.8270049149476995
% es.Ex (V/m) @ t=0.3
-0.7251503430699882
% es.Ey (V/m) @ t=0.3
0.16111140808064672
% es.Ez (V/m) @ t=0.3
0.8270049149476915
% es.tEx (V/m) @ t=0.3
-0.7251503430699857
% es.tEy (V/m) @ t=0.3
0
% es.tEz (V/m) @ t=0.3
0.8270049149476995
% V (V) @ t=0.3
0.01086740127014778
% es.normE (V/m) @ t=0.32
1.1338390036702872
% es.EX (V/m) @ t=0.32
-0.7322183288451449
% es.EY (V/m) @ t=0.32
0.16268174775711708
% es.EZ (V/m) @ t=0.32
0.8350656621744008
% es.tEX (V/m) @ t=0.32
-0.7322183288451423
% es.tEY (V/m) @ t=0.32
0
% es.tEZ (V/m) @ t=0.32
0.835065662174415
% es.Ex (V/m) @ t=0.32
-0.7322183288451449
% es.Ey (V/m) @ t=0.32
0.16268174775711708
% es.Ez (V/m) @ t=0.32
0.8350656621744008
% es.tEx (V/m) @ t=0.32
-0.7322183288451423
% es.tEy (V/m) @ t=0.32
0
% es.tEz (V/m) @ t=0.32
0.835065662174415
% V (V) @ t=0.32
0.010973322202716115
% es.normE (V/m) @ t=0.34
1.144783764177359
% es.EX (V/m) @ t=0.34
-0.7392863146202986
% es.EY (V/m) @ t=0.34
0.164252087433591
% es.EZ (V/m) @ t=0.34
0.8431264094010951
% es.tEX (V/m) @ t=0.34
-0.7392863146202961
% es.tEY (V/m) @ t=0.34
0
% es.tEZ (V/m) @ t=0.34
0.8431264094010951
% es.Ex (V/m) @ t=0.34
-0.7392863146202986
% es.Ey (V/m) @ t=0.34
0.164252087433591
% es.Ez (V/m) @ t=0.34
0.8431264094010951
% es.tEx (V/m) @ t=0.34
-0.7392863146202961
% es.tEy (V/m) @ t=0.34
0
% es.tEz (V/m) @ t=0.34
0.8431264094010951
% V (V) @ t=0.34
0.011079243135284453
% es.normE (V/m) @ t=0.36
1.1557285246844258
% es.EX (V/m) @ t=0.36
-0.7463543003954549
% es.EY (V/m) @ t=0.36
0.16582242711007367
% es.EZ (V/m) @ t=0.36
0.8511871566277804
% es.tEX (V/m) @ t=0.36
-0.7463543003954523
% es.tEY (V/m) @ t=0.36
0
% es.tEZ (V/m) @ t=0.36
0.851187156627784
% es.Ex (V/m) @ t=0.36
-0.7463543003954549
% es.Ey (V/m) @ t=0.36
0.16582242711007367
% es.Ez (V/m) @ t=0.36
0.8511871566277804
% es.tEx (V/m) @ t=0.36
-0.7463543003954523
% es.tEy (V/m) @ t=0.36
0
% es.tEz (V/m) @ t=0.36
0.851187156627784
% V (V) @ t=0.36
0.01118516406785279
% es.normE (V/m) @ t=0.38
1.166673285191491
% es.EX (V/m) @ t=0.38
-0.7534222861706084
% es.EY (V/m) @ t=0.38
0.16739276678652615
% es.EZ (V/m) @ t=0.38
0.859247903854472
% es.tEX (V/m) @ t=0.38
-0.7534222861706021
% es.tEY (V/m) @ t=0.38
0
% es.tEZ (V/m) @ t=0.38
0.85924790385448
% es.Ex (V/m) @ t=0.38
-0.7534222861706084
% es.Ey (V/m) @ t=0.38
0.16739276678652615
% es.Ez (V/m) @ t=0.38
0.859247903854472
% es.tEx (V/m) @ t=0.38
-0.7534222861706021
% es.tEy (V/m) @ t=0.38
0
% es.tEz (V/m) @ t=0.38
0.85924790385448
% V (V) @ t=0.38
0.011291085000421126
% es.normE (V/m) @ t=0.4
1.1776180456985705
% es.EX (V/m) @ t=0.4
-0.7604902719457685
% es.EY (V/m) @ t=0.4
0.16896310646300006
% es.EZ (V/m) @ t=0.4
0.8673086510811734
% es.tEX (V/m) @ t=0.4
-0.760490271945766
% es.tEY (V/m) @ t=0.4
0
% es.tEZ (V/m) @ t=0.4
0.8673086510811814
% es.Ex (V/m) @ t=0.4
-0.7604902719457685
% es.Ey (V/m) @ t=0.4
0.16896310646300006
% es.Ez (V/m) @ t=0.4
0.8673086510811734
% es.tEx (V/m) @ t=0.4
-0.760490271945766
% es.tEy (V/m) @ t=0.4
0
% es.tEz (V/m) @ t=0.4
0.8673086510811814
% V (V) @ t=0.4
0.01139700593298946
% es.normE (V/m) @ t=0.42
1.1885628062056262
% es.EX (V/m) @ t=0.42
-0.7675582577209217
% es.EY (V/m) @ t=0.42
0.1705334461394632
% es.EZ (V/m) @ t=0.42
0.8753693983078508
% es.tEX (V/m) @ t=0.42
-0.767558257720919
% es.tEY (V/m) @ t=0.42
0
% es.tEZ (V/m) @ t=0.42
0.8753693983078623
% es.Ex (V/m) @ t=0.42
-0.7675582577209217
% es.Ey (V/m) @ t=0.42
0.1705334461394632
% es.Ez (V/m) @ t=0.42
0.8753693983078508
% es.tEx (V/m) @ t=0.42
-0.767558257720919
% es.tEy (V/m) @ t=0.42
0
% es.tEz (V/m) @ t=0.42
0.8753693983078623
% V (V) @ t=0.42
0.011502926865557796
% es.normE (V/m) @ t=0.44
1.1995075667126978
% es.EX (V/m) @ t=0.44
-0.7746262434960756
% es.EY (V/m) @ t=0.44
0.17210378581593533
% es.EZ (V/m) @ t=0.44
0.883430145534545
% es.tEX (V/m) @ t=0.44
-0.7746262434960729
% es.tEY (V/m) @ t=0.44
0
% es.tEZ (V/m) @ t=0.44
0.8834301455345566
% es.Ex (V/m) @ t=0.44
-0.7746262434960756
% es.Ey (V/m) @ t=0.44
0.17210378581593533
% es.Ez (V/m) @ t=0.44
0.883430145534545
% es.tEx (V/m) @ t=0.44
-0.7746262434960729
% es.tEy (V/m) @ t=0.44
0
% es.tEz (V/m) @ t=0.44
0.8834301455345566
% V (V) @ t=0.44
0.011608847798126133
% es.normE (V/m) @ t=0.46
1.2104523272197523
% es.EX (V/m) @ t=0.46
-0.7816942292712326
% es.EY (V/m) @ t=0.46
0.17367412549240746
% es.EZ (V/m) @ t=0.46
0.8914908927612144
% es.tEX (V/m) @ t=0.46
-0.7816942292712299
% es.tEY (V/m) @ t=0.46
0
% es.tEZ (V/m) @ t=0.46
0.8914908927612366
% es.Ex (V/m) @ t=0.46
-0.7816942292712326
% es.Ey (V/m) @ t=0.46
0.17367412549240746
% es.Ez (V/m) @ t=0.46
0.8914908927612144
% es.tEx (V/m) @ t=0.46
-0.7816942292712299
% es.tEy (V/m) @ t=0.46
0
% es.tEz (V/m) @ t=0.46
0.8914908927612366
% V (V) @ t=0.46
0.011714768730694469
% es.normE (V/m) @ t=0.48
1.2213970877268387
% es.EX (V/m) @ t=0.48
-0.7887622150463893
% es.EY (V/m) @ t=0.48
0.17524446516888126
% es.EZ (V/m) @ t=0.48
0.8995516399879318
% es.tEX (V/m) @ t=0.48
-0.7887622150463867
% es.tEY (V/m) @ t=0.48
0
% es.tEZ (V/m) @ t=0.48
0.8995516399879318
% es.Ex (V/m) @ t=0.48
-0.7887622150463893
% es.Ey (V/m) @ t=0.48
0.17524446516888126
% es.Ez (V/m) @ t=0.48
0.8995516399879318
% es.tEx (V/m) @ t=0.48
-0.7887622150463867
% es.tEy (V/m) @ t=0.48
0
% es.tEz (V/m) @ t=0.48
0.8995516399879318
% V (V) @ t=0.48
0.011820689663262803
% es.normE (V/m) @ t=0.5
1.2323418482339
% es.EX (V/m) @ t=0.5
-0.795830200821543
% es.EY (V/m) @ t=0.5
0.1768148048453534
% es.EZ (V/m) @ t=0.5
0.9076123872146118
% es.tEX (V/m) @ t=0.5
-0.7958302008215403
% es.tEY (V/m) @ t=0.5
0
% es.tEZ (V/m) @ t=0.5
0.907612387214634
% es.Ex (V/m) @ t=0.5
-0.795830200821543
% es.Ey (V/m) @ t=0.5
0.1768148048453534
% es.Ez (V/m) @ t=0.5
0.9076123872146118
% es.tEx (V/m) @ t=0.5
-0.7958302008215403
% es.tEy (V/m) @ t=0.5
0
% es.tEz (V/m) @ t=0.5
0.907612387214634
% V (V) @ t=0.5
0.011926610595831139
% es.normE (V/m) @ t=0.52
1.2432866087409766
% es.EX (V/m) @ t=0.52
-0.8028981865967033
% es.EY (V/m) @ t=0.52
0.1783851445218112
% es.EZ (V/m) @ t=0.52
0.915673134441314
% es.tEX (V/m) @ t=0.52
-0.8028981865967002
% es.tEY (V/m) @ t=0.52
0
% es.tEZ (V/m) @ t=0.52
0.9156731344413078
% es.Ex (V/m) @ t=0.52
-0.8028981865967033
% es.Ey (V/m) @ t=0.52
0.1783851445218112
% es.Ez (V/m) @ t=0.52
0.915673134441314
% es.tEx (V/m) @ t=0.52
-0.8028981865967002
% es.tEy (V/m) @ t=0.52
0
% es.tEz (V/m) @ t=0.52
0.9156731344413078
% V (V) @ t=0.52
0.012032531528399474
% es.normE (V/m) @ t=0.54
1.2549762194259368
% es.EX (V/m) @ t=0.54
-0.8104471842208083
% es.EY (V/m) @ t=0.54
0.18006235453258845
% es.EZ (V/m) @ t=0.54
0.924282462276401
% es.tEX (V/m) @ t=0.54
-0.8104471842208052
% es.tEY (V/m) @ t=0.54
0
% es.tEZ (V/m) @ t=0.54
0.9242824622764081
% es.Ex (V/m) @ t=0.54
-0.8104471842208083
% es.Ey (V/m) @ t=0.54
0.18006235453258845
% es.Ez (V/m) @ t=0.54
0.924282462276401
% es.tEx (V/m) @ t=0.54
-0.8104471842208052
% es.tEy (V/m) @ t=0.54
0
% es.tEz (V/m) @ t=0.54
0.9242824622764081
% V (V) @ t=0.54
0.012145663311872262
% es.normE (V/m) @ t=0.56
1.2671460782943946
% es.EX (V/m) @ t=0.56
-0.8183063181294266
% es.EY (V/m) @ t=0.56
0.1818084700567737
% es.EZ (V/m) @ t=0.56
0.9332454919008146
% es.tEX (V/m) @ t=0.56
-0.8183063181294274
% es.tEY (V/m) @ t=0.56
0
% es.tEZ (V/m) @ t=0.56
0.9332454919008155
% es.Ex (V/m) @ t=0.56
-0.8183063181294266
% es.Ey (V/m) @ t=0.56
0.1818084700567737
% es.Ez (V/m) @ t=0.56
0.9332454919008146
% es.tEx (V/m) @ t=0.56
-0.8183063181294274
% es.tEy (V/m) @ t=0.56
0
% es.tEz (V/m) @ t=0.56
0.9332454919008155
% V (V) @ t=0.56
0.012263444349854161
% es.normE (V/m) @ t=0.58
1.279315937162838
% es.EX (V/m) @ t=0.58
-0.8261654520380501
% es.EY (V/m) @ t=0.58
0.18355458558094673
% es.EZ (V/m) @ t=0.58
0.9422085215252052
% es.tEX (V/m) @ t=0.58
-0.8261654520380439
% es.tEY (V/m) @ t=0.58
0
% es.tEZ (V/m) @ t=0.58
0.9422085215252061
% es.Ex (V/m) @ t=0.58
-0.8261654520380501
% es.Ey (V/m) @ t=0.58
0.18355458558094673
% es.Ez (V/m) @ t=0.58
0.9422085215252052
% es.tEx (V/m) @ t=0.58
-0.8261654520380439
% es.tEy (V/m) @ t=0.58
0
% es.tEz (V/m) @ t=0.58
0.9422085215252061
% V (V) @ t=0.58
0.012381225387836061
% es.normE (V/m) @ t=0.6
1.29148579603129
% es.EX (V/m) @ t=0.6
-0.8340245859466728
% es.EY (V/m) @ t=0.6
0.1853007011051515
% es.EZ (V/m) @ t=0.6
0.9511715511495984
% es.tEX (V/m) @ t=0.6
-0.8340245859466737
% es.tEY (V/m) @ t=0.6
0
% es.tEZ (V/m) @ t=0.6
0.9511715511496135
% es.Ex (V/m) @ t=0.6
-0.8340245859466728
% es.Ey (V/m) @ t=0.6
0.1853007011051515
% es.Ez (V/m) @ t=0.6
0.9511715511495984
% es.tEx (V/m) @ t=0.6
-0.8340245859466737
% es.tEy (V/m) @ t=0.6
0
% es.tEz (V/m) @ t=0.6
0.9511715511496135
% V (V) @ t=0.6
0.012499006425817962
% es.normE (V/m) @ t=0.62
1.3036556548997482
% es.EX (V/m) @ t=0.62
-0.8418837198552924
% es.EY (V/m) @ t=0.62
0.1870468166293192
% es.EZ (V/m) @ t=0.62
0.9601345807740147
% es.tEX (V/m) @ t=0.62
-0.8418837198552898
% es.tEY (V/m) @ t=0.62
0
% es.tEZ (V/m) @ t=0.62
0.9601345807740262
% es.Ex (V/m) @ t=0.62
-0.8418837198552924
% es.Ey (V/m) @ t=0.62
0.1870468166293192
% es.Ez (V/m) @ t=0.62
0.9601345807740147
% es.tEx (V/m) @ t=0.62
-0.8418837198552898
% es.tEy (V/m) @ t=0.62
0
% es.tEz (V/m) @ t=0.62
0.9601345807740262
% V (V) @ t=0.62
0.012616787463799864
% es.normE (V/m) @ t=0.64
1.3158255137681916
% es.EX (V/m) @ t=0.64
-0.8497428537639151
% es.EY (V/m) @ t=0.64
0.18879293215350457
% es.EZ (V/m) @ t=0.64
0.9690976103983999
% es.tEX (V/m) @ t=0.64
-0.849742853763916
% es.tEY (V/m) @ t=0.64
0
% es.tEZ (V/m) @ t=0.64
0.9690976103984186
% es.Ex (V/m) @ t=0.64
-0.8497428537639151
% es.Ey (V/m) @ t=0.64
0.18879293215350457
% es.Ez (V/m) @ t=0.64
0.9690976103983999
% es.tEx (V/m) @ t=0.64
-0.849742853763916
% es.tEy (V/m) @ t=0.64
0
% es.tEz (V/m) @ t=0.64
0.9690976103984186
% V (V) @ t=0.64
0.012734568501781765
% es.normE (V/m) @ t=0.66
1.3279953726366505
% es.EX (V/m) @ t=0.66
-0.8576019876725383
% es.EY (V/m) @ t=0.66
0.19053904767767216
% es.EZ (V/m) @ t=0.66
0.9780606400228162
% es.tEX (V/m) @ t=0.66
-0.8576019876725356
% es.tEY (V/m) @ t=0.66
0
% es.tEZ (V/m) @ t=0.66
0.9780606400228171
% es.Ex (V/m) @ t=0.66
-0.8576019876725383
% es.Ey (V/m) @ t=0.66
0.19053904767767216
% es.Ez (V/m) @ t=0.66
0.9780606400228162
% es.tEx (V/m) @ t=0.66
-0.8576019876725356
% es.tEy (V/m) @ t=0.66
0
% es.tEz (V/m) @ t=0.66
0.9780606400228171
% V (V) @ t=0.66
0.012852349539763667
% es.normE (V/m) @ t=0.68
1.3401652315050916
% es.EX (V/m) @ t=0.68
-0.8654611215811574
% es.EY (V/m) @ t=0.68
0.19228516320186462
% es.EZ (V/m) @ t=0.68
0.9870236696472015
% es.tEX (V/m) @ t=0.68
-0.8654611215811583
% es.tEY (V/m) @ t=0.68
0
% es.tEZ (V/m) @ t=0.68
0.9870236696472094
% es.Ex (V/m) @ t=0.68
-0.8654611215811574
% es.Ey (V/m) @ t=0.68
0.19228516320186462
% es.Ez (V/m) @ t=0.68
0.9870236696472015
% es.tEx (V/m) @ t=0.68
-0.8654611215811583
% es.tEy (V/m) @ t=0.68
0
% es.tEz (V/m) @ t=0.68
0.9870236696472094
% V (V) @ t=0.68
0.012970130577745568
% es.normE (V/m) @ t=0.7
1.3523350903735487
% es.EX (V/m) @ t=0.7
-0.8733202554897876
% es.EY (V/m) @ t=0.7
0.19403127872604287
% es.EZ (V/m) @ t=0.7
0.9959866992716035
% es.tEX (V/m) @ t=0.7
-0.873320255489785
% es.tEY (V/m) @ t=0.7
0
% es.tEZ (V/m) @ t=0.7
0.995986699271608
% es.Ex (V/m) @ t=0.7
-0.8733202554897876
% es.Ey (V/m) @ t=0.7
0.19403127872604287
% es.Ez (V/m) @ t=0.7
0.9959866992716035
% es.tEx (V/m) @ t=0.7
-0.873320255489785
% es.tEy (V/m) @ t=0.7
0
% es.tEz (V/m) @ t=0.7
0.995986699271608
% V (V) @ t=0.7
0.01308791161572747
% es.normE (V/m) @ t=0.72
1.3645049492420012
% es.EX (V/m) @ t=0.72
-0.8811793893984032
% es.EY (V/m) @ t=0.72
0.1957773942502281
% es.EZ (V/m) @ t=0.72
1.004949728896011
% es.tEX (V/m) @ t=0.72
-0.8811793893984037
% es.tEY (V/m) @ t=0.72
0
% es.tEZ (V/m) @ t=0.72
1.0049497288960296
% es.Ex (V/m) @ t=0.72
-0.8811793893984032
% es.Ey (V/m) @ t=0.72
0.1957773942502281
% es.Ez (V/m) @ t=0.72
1.004949728896011
% es.tEx (V/m) @ t=0.72
-0.8811793893984037
% es.tEy (V/m) @ t=0.72
0
% es.tEz (V/m) @ t=0.72
1.0049497288960296
% V (V) @ t=0.72
0.01320569265370937
% es.normE (V/m) @ t=0.74
1.376674808110451
% es.EX (V/m) @ t=0.74
-0.8890385233070264
% es.EY (V/m) @ t=0.74
0.19752350977441002
% es.EZ (V/m) @ t=0.74
1.013912758520406
% es.tEX (V/m) @ t=0.74
-0.8890385233070233
% es.tEY (V/m) @ t=0.74
0
% es.tEZ (V/m) @ t=0.74
1.0139127585204069
% es.Ex (V/m) @ t=0.74
-0.8890385233070264
% es.Ey (V/m) @ t=0.74
0.19752350977441002
% es.Ez (V/m) @ t=0.74
1.013912758520406
% es.tEx (V/m) @ t=0.74
-0.8890385233070233
% es.tEy (V/m) @ t=0.74
0
% es.tEz (V/m) @ t=0.74
1.0139127585204069
% V (V) @ t=0.74
0.013323473691691274
% es.normE (V/m) @ t=0.76
1.3888446669788932
% es.EX (V/m) @ t=0.76
-0.896897657215642
% es.EY (V/m) @ t=0.76
0.19926962529858827
% es.EZ (V/m) @ t=0.76
1.0228757881448018
% es.tEX (V/m) @ t=0.76
-0.8968976572156464
% es.tEY (V/m) @ t=0.76
0
% es.tEZ (V/m) @ t=0.76
1.0228757881448063
% es.Ex (V/m) @ t=0.76
-0.896897657215642
% es.Ey (V/m) @ t=0.76
0.19926962529858827
% es.Ez (V/m) @ t=0.76
1.0228757881448018
% es.tEx (V/m) @ t=0.76
-0.8968976572156464
% es.tEy (V/m) @ t=0.76
0
% es.tEz (V/m) @ t=0.76
1.0228757881448063
% V (V) @ t=0.76
0.013441254729673174
% es.normE (V/m) @ t=0.78
1.4010145258473599
% es.EX (V/m) @ t=0.78
-0.9047567911242651
% es.EY (V/m) @ t=0.78
0.20101574082275764
% es.EZ (V/m) @ t=0.78
1.0318388177692217
% es.tEX (V/m) @ t=0.78
-0.9047567911242616
% es.tEY (V/m) @ t=0.78
0
% es.tEZ (V/m) @ t=0.78
1.0318388177692333
% es.Ex (V/m) @ t=0.78
-0.9047567911242651
% es.Ey (V/m) @ t=0.78
0.20101574082275764
% es.Ez (V/m) @ t=0.78
1.0318388177692217
% es.tEx (V/m) @ t=0.78
-0.9047567911242616
% es.tEy (V/m) @ t=0.78
0
% es.tEz (V/m) @ t=0.78
1.0318388177692333
% V (V) @ t=0.78
0.013559035767655074
% es.normE (V/m) @ t=0.8
1.4137617711284263
% es.EX (V/m) @ t=0.8
-0.91298879462992
% es.EY (V/m) @ t=0.8
0.20284469898413504
% es.EZ (V/m) @ t=0.8
1.0412270878698342
% es.tEX (V/m) @ t=0.8
-0.91298879462992
% es.tEY (V/m) @ t=0.8
0
% es.tEZ (V/m) @ t=0.8
1.0412270878698457
% es.Ex (V/m) @ t=0.8
-0.91298879462992
% es.Ey (V/m) @ t=0.8
0.20284469898413504
% es.Ez (V/m) @ t=0.8
1.0412270878698342
% es.tEx (V/m) @ t=0.8
-0.91298879462992
% es.tEy (V/m) @ t=0.8
0
% es.tEz (V/m) @ t=0.8
1.0412270878698457
% V (V) @ t=0.8
0.013682403910970224
% es.normE (V/m) @ t=0.82
1.42731685106298
% es.EX (V/m) @ t=0.82
-0.9217424885929923
% es.EY (V/m) @ t=0.82
0.20478956419081584
% es.EZ (V/m) @ t=0.82
1.051210321733457
% es.tEX (V/m) @ t=0.82
-0.9217424885929888
% es.tEY (V/m) @ t=0.82
0
% es.tEZ (V/m) @ t=0.82
1.0512103217334614
% es.Ex (V/m) @ t=0.82
-0.9217424885929923
% es.Ey (V/m) @ t=0.82
0.20478956419081584
% es.Ez (V/m) @ t=0.82
1.051210321733457
% es.tEx (V/m) @ t=0.82
-0.9217424885929888
% es.tEy (V/m) @ t=0.82
0
% es.tEz (V/m) @ t=0.82
1.0512103217334614
% V (V) @ t=0.82
0.013813589102283254
% es.normE (V/m) @ t=0.84
1.4408719309975266
% es.EX (V/m) @ t=0.84
-0.9304961825560678
% es.EY (V/m) @ t=0.84
0.20673442939748055
% es.EZ (V/m) @ t=0.84
1.0611935555970735
% es.tEX (V/m) @ t=0.84
-0.9304961825560714
% es.tEY (V/m) @ t=0.84
0
% es.tEZ (V/m) @ t=0.84
1.0611935555970842
% es.Ex (V/m) @ t=0.84
-0.9304961825560678
% es.Ey (V/m) @ t=0.84
0.20673442939748055
% es.Ez (V/m) @ t=0.84
1.0611935555970735
% es.tEx (V/m) @ t=0.84
-0.9304961825560714
% es.tEy (V/m) @ t=0.84
0
% es.tEz (V/m) @ t=0.84
1.0611935555970842
% V (V) @ t=0.84
0.013944774293596286
% es.normE (V/m) @ t=0.86
1.4544270109320871
% es.EX (V/m) @ t=0.86
-0.9392498765191468
% es.EY (V/m) @ t=0.86
0.2086792946041648
% es.EZ (V/m) @ t=0.86
1.0711767894607034
% es.tEX (V/m) @ t=0.86
-0.9392498765191437
% es.tEY (V/m) @ t=0.86
0
% es.tEZ (V/m) @ t=0.86
1.071176789460714
% es.Ex (V/m) @ t=0.86
-0.9392498765191468
% es.Ey (V/m) @ t=0.86
0.2086792946041648
% es.Ez (V/m) @ t=0.86
1.0711767894607034
% es.tEx (V/m) @ t=0.86
-0.9392498765191437
% es.tEy (V/m) @ t=0.86
0
% es.tEz (V/m) @ t=0.86
1.071176789460714
% V (V) @ t=0.86
0.014075959484909323
% es.normE (V/m) @ t=0.88
1.46798209086663
% es.EX (V/m) @ t=0.88
-0.9480035704822116
% es.EY (V/m) @ t=0.88
0.21062415981083837
% es.EZ (V/m) @ t=0.88
1.0811600233243226
% es.tEX (V/m) @ t=0.88
-0.9480035704822085
% es.tEY (V/m) @ t=0.88
0
% es.tEZ (V/m) @ t=0.88
1.0811600233243377
% es.Ex (V/m) @ t=0.88
-0.9480035704822116
% es.Ey (V/m) @ t=0.88
0.21062415981083837
% es.Ez (V/m) @ t=0.88
1.0811600233243226
% es.tEx (V/m) @ t=0.88
-0.9480035704822085
% es.tEy (V/m) @ t=0.88
0
% es.tEz (V/m) @ t=0.88
1.0811600233243377
% V (V) @ t=0.88
0.014207144676222357
% es.normE (V/m) @ t=0.9
1.481537170801193
% es.EX (V/m) @ t=0.9
-0.9567572644452937
% es.EY (V/m) @ t=0.9
0.21256902501751018
% es.EZ (V/m) @ t=0.9
1.091143257187957
% es.tEX (V/m) @ t=0.9
-0.9567572644452906
% es.tEY (V/m) @ t=0.9
0
% es.tEZ (V/m) @ t=0.9
1.0911432571879613
% es.Ex (V/m) @ t=0.9
-0.9567572644452937
% es.Ey (V/m) @ t=0.9
0.21256902501751018
% es.Ez (V/m) @ t=0.9
1.091143257187957
% es.tEx (V/m) @ t=0.9
-0.9567572644452906
% es.tEy (V/m) @ t=0.9
0
% es.tEz (V/m) @ t=0.9
1.0911432571879613
% V (V) @ t=0.9
0.014338329867535388
% es.normE (V/m) @ t=0.92
1.495092250735743
% es.EX (V/m) @ t=0.92
-0.9655109584083661
% es.EY (V/m) @ t=0.92
0.21451389022419098
% es.EZ (V/m) @ t=0.92
1.1011264910515761
% es.tEX (V/m) @ t=0.92
-0.9655109584083625
% es.tEY (V/m) @ t=0.92
0
% es.tEZ (V/m) @ t=0.92
1.101126491051584
% es.Ex (V/m) @ t=0.92
-0.9655109584083661
% es.Ey (V/m) @ t=0.92
0.21451389022419098
% es.Ez (V/m) @ t=0.92
1.1011264910515761
% es.tEx (V/m) @ t=0.92
-0.9655109584083625
% es.tEy (V/m) @ t=0.92
0
% es.tEz (V/m) @ t=0.92
1.101126491051584
% V (V) @ t=0.92
0.014469515058848423
% es.normE (V/m) @ t=0.94
1.508647330670295
% es.EX (V/m) @ t=0.94
-0.974264652371438
% es.EY (V/m) @ t=0.94
0.21645875543085746
% es.EZ (V/m) @ t=0.94
1.1111097249152024
% es.tEX (V/m) @ t=0.94
-0.974264652371438
% es.tEY (V/m) @ t=0.94
0
% es.tEZ (V/m) @ t=0.94
1.111109724915214
% es.Ex (V/m) @ t=0.94
-0.974264652371438
% es.Ey (V/m) @ t=0.94
0.21645875543085746
% es.Ez (V/m) @ t=0.94
1.1111097249152024
% es.tEx (V/m) @ t=0.94
-0.974264652371438
% es.tEy (V/m) @ t=0.94
0
% es.tEz (V/m) @ t=0.94
1.111109724915214
% V (V) @ t=0.94
0.014600700250161453
% es.normE (V/m) @ t=0.96
1.5222024106048577
% es.EX (V/m) @ t=0.96
-0.9830183463345206
% es.EY (V/m) @ t=0.96
0.21840362063755048
% es.EZ (V/m) @ t=0.96
1.1210929587788305
% es.tEX (V/m) @ t=0.96
-0.983018346334517
% es.tEY (V/m) @ t=0.96
0
% es.tEZ (V/m) @ t=0.96
1.1210929587788598
% es.Ex (V/m) @ t=0.96
-0.9830183463345206
% es.Ey (V/m) @ t=0.96
0.21840362063755048
% es.Ez (V/m) @ t=0.96
1.1210929587788305
% es.tEx (V/m) @ t=0.96
-0.983018346334517
% es.tEy (V/m) @ t=0.96
0
% es.tEz (V/m) @ t=0.96
1.1210929587788598
% V (V) @ t=0.96
0.014731885441474487
% es.normE (V/m) @ t=0.98
1.5357574905394182
% es.EX (V/m) @ t=0.98
-0.991772040297592
% es.EY (V/m) @ t=0.98
0.22034848584422062
% es.EZ (V/m) @ t=0.98
1.1310761926424675
% es.tEX (V/m) @ t=0.98
-0.9917720402975889
% es.tEY (V/m) @ t=0.98
0
% es.tEZ (V/m) @ t=0.98
1.1310761926424755
% es.Ex (V/m) @ t=0.98
-0.991772040297592
% es.Ey (V/m) @ t=0.98
0.22034848584422062
% es.Ez (V/m) @ t=0.98
1.1310761926424675
% es.tEx (V/m) @ t=0.98
-0.9917720402975889
% es.tEy (V/m) @ t=0.98
0
% es.tEz (V/m) @ t=0.98
1.1310761926424755
% V (V) @ t=0.98
0.014863070632787516
% es.normE (V/m) @ t=1
1.5493125704739543
% es.EX (V/m) @ t=1
-1.0005257342606604
% es.EY (V/m) @ t=1
0.22229335105087655
% es.EZ (V/m) @ t=1
1.1410594265060832
% es.tEX (V/m) @ t=1
-1.0005257342606573
% es.tEY (V/m) @ t=1
0
% es.tEZ (V/m) @ t=1
1.1410594265060912
% es.Ex (V/m) @ t=1
-1.0005257342606604
% es.Ey (V/m) @ t=1
0.22229335105087655
% es.Ez (V/m) @ t=1
1.1410594265060832
% es.tEx (V/m) @ t=1
-1.0005257342606573
% es.tEy (V/m) @ t=1
0
% es.tEz (V/m) @ t=1
1.1410594265060912
% V (V) @ t=1
0.014994255824100553
% es.normE (V/m) @ t=1.02
1.5628676504085068
% es.EX (V/m) @ t=1.02
-1.0092794282237363
% es.EY (V/m) @ t=1.02
0.22423821625756268
% es.EZ (V/m) @ t=1.02
1.1510426603696988
% es.tEX (V/m) @ t=1.02
-1.0092794282237363
% es.tEY (V/m) @ t=1.02
0
% es.tEZ (V/m) @ t=1.02
1.151042660369714
% es.Ex (V/m) @ t=1.02
-1.0092794282237363
% es.Ey (V/m) @ t=1.02
0.22423821625756268
% es.Ez (V/m) @ t=1.02
1.1510426603696988
% es.tEx (V/m) @ t=1.02
-1.0092794282237363
% es.tEy (V/m) @ t=1.02
0
% es.tEz (V/m) @ t=1.02
1.151042660369714
% V (V) @ t=1.02
0.01512544101541359
% es.normE (V/m) @ t=1.04
1.5764227303430647
% es.EX (V/m) @ t=1.04
-1.0180331221868149
% es.EY (V/m) @ t=1.04
0.2261830814642557
% es.EZ (V/m) @ t=1.04
1.1610258942333234
% es.tEX (V/m) @ t=1.04
-1.0180331221868113
% es.tEY (V/m) @ t=1.04
0