% Model:              1 neuron.mph
% Version:            COMSOL 6.1.0.252
% Date:               Mar 18 2023, 13:21
% Dimension:          0
% Nodes:              14017
% Expressions:        14017
% Description:        Electric field norm, Electric field, X component, Electric field, Y component, Electric field, Z component, Tangential electric field, X component, Tangential electric field, Y component, Tangential electric field, Z component, Electric field, x component, Electric field, y component, Electric field, z component, Tangential electric field, x component, Tangential electric field, y component, Tangential electric field, z component, Electric potential
% Length unit:        mm
% x
2
% y
12.2
% z
1.6599999999999997
% es.normE (V/m) @ t=0
1.9030863158167257
% es.EX (V/m) @ t=0
-1.8388845302766956
% es.EY (V/m) @ t=0
0.14166149627953628
% es.EZ (V/m) @ t=0
-0.4686824224540289
% es.tEX (V/m) @ t=0
-1.8388845302766974
% es.tEY (V/m) @ t=0
0
% es.tEZ (V/m) @ t=0
-0.46868242245402847
% es.Ex (V/m) @ t=0
-1.8388845302766956
% es.Ey (V/m) @ t=0
0.14166149627953628
% es.Ez (V/m) @ t=0
-0.4686824224540289
% es.tEx (V/m) @ t=0
-1.8388845302766974
% es.tEy (V/m) @ t=0
0
% es.tEz (V/m) @ t=0
-0.46868242245402847
% V (V) @ t=0
0.011028772486781968
% es.normE (V/m) @ t=0.02
1.6437158727485324
% es.EX (V/m) @ t=0.02
-1.5882641083437674
% es.EY (V/m) @ t=0.02
0.12235454153706049
% es.EZ (V/m) @ t=0.02
-0.4048059880399819
% es.tEX (V/m) @ t=0.02
-1.5882641083437647
% es.tEY (V/m) @ t=0.02
0
% es.tEZ (V/m) @ t=0.02
-0.40480598803998546
% es.Ex (V/m) @ t=0.02
-1.5882641083437674
% es.Ey (V/m) @ t=0.02
0.12235454153706049
% es.Ez (V/m) @ t=0.02
-0.4048059880399819
% es.tEx (V/m) @ t=0.02
-1.5882641083437647
% es.tEy (V/m) @ t=0.02
0
% es.tEz (V/m) @ t=0.02
-0.40480598803998546
% V (V) @ t=0.02
0.00952566791710685
% es.normE (V/m) @ t=0.04
1.658837513881461
% es.EX (V/m) @ t=0.04
-1.6028756116479999
% es.EY (V/m) @ t=0.04
0.12348016159747865
% es.EZ (V/m) @ t=0.04
-0.4085300691535867
% es.tEX (V/m) @ t=0.04
-1.6028756116479883
% es.tEY (V/m) @ t=0.04
0
% es.tEZ (V/m) @ t=0.04
-0.408530069153592
% es.Ex (V/m) @ t=0.04
-1.6028756116479999
% es.Ey (V/m) @ t=0.04
0.12348016159747865
% es.Ez (V/m) @ t=0.04
-0.4085300691535867
% es.tEx (V/m) @ t=0.04
-1.6028756116479883
% es.tEy (V/m) @ t=0.04
0
% es.tEz (V/m) @ t=0.04
-0.408530069153592
% V (V) @ t=0.04
0.009613300945896701
% es.normE (V/m) @ t=0.06
1.6740781503627415
% es.EX (V/m) @ t=0.06
-1.617602095911372
% es.EY (V/m) @ t=0.06
0.12461463979158227
% es.EZ (V/m) @ t=0.06
-0.4122834557691628
% es.tEX (V/m) @ t=0.06
-1.6176020959113515
% es.tEY (V/m) @ t=0.06
0
% es.tEZ (V/m) @ t=0.06
-0.4122834557691579
% es.Ex (V/m) @ t=0.06
-1.617602095911372
% es.Ey (V/m) @ t=0.06
0.12461463979158227
% es.Ez (V/m) @ t=0.06
-0.4122834557691628
% es.tEx (V/m) @ t=0.06
-1.6176020959113515
% es.tEy (V/m) @ t=0.06
0
% es.tEz (V/m) @ t=0.06
-0.4122834557691579
% V (V) @ t=0.06
0.00970162356334616
% es.normE (V/m) @ t=0.08
1.6895914165965866
% es.EX (V/m) @ t=0.08
-1.6325920125992823
% es.EY (V/m) @ t=0.08
0.12576941178344625
% es.EZ (V/m) @ t=0.08
-0.41610398427802897
% es.tEX (V/m) @ t=0.08
-1.6325920125992752
% es.tEY (V/m) @ t=0.08
0
% es.tEZ (V/m) @ t=0.08
-0.41610398427802764
% es.Ex (V/m) @ t=0.08
-1.6325920125992823
% es.Ey (V/m) @ t=0.08
0.12576941178344625
% es.Ez (V/m) @ t=0.08
-0.41610398427802897
% es.tEx (V/m) @ t=0.08
-1.6325920125992752
% es.tEy (V/m) @ t=0.08
0
% es.tEz (V/m) @ t=0.08
-0.41610398427802764
% V (V) @ t=0.08
0.009791526130982865
% es.normE (V/m) @ t=0.1
1.7052109544479004
% es.EX (V/m) @ t=0.1
-1.6476846157679805
% es.EY (V/m) @ t=0.1
0.12693209433785135
% es.EZ (V/m) @ t=0.1
-0.4199506848298782
% es.tEX (V/m) @ t=0.1
-1.6476846157679805
% es.tEY (V/m) @ t=0.1
0
% es.tEZ (V/m) @ t=0.1
-0.41995068482986575
% es.Ex (V/m) @ t=0.1
-1.6476846157679805
% es.Ey (V/m) @ t=0.1
0.12693209433785135
% es.Ez (V/m) @ t=0.1
-0.4199506848298782
% es.tEx (V/m) @ t=0.1
-1.6476846157679805
% es.tEy (V/m) @ t=0.1
0
% es.tEz (V/m) @ t=0.1
-0.41995068482986575
% V (V) @ t=0.1
0.009882044566331526
% es.normE (V/m) @ t=0.12
1.7208304922991957
% es.EX (V/m) @ t=0.12
-1.6627772189366645
% es.EY (V/m) @ t=0.12
0.12809477689224835
% es.EZ (V/m) @ t=0.12
-0.4237973853817114
% es.tEX (V/m) @ t=0.12
-1.6627772189366574
% es.tEY (V/m) @ t=0.12
0
% es.tEZ (V/m) @ t=0.12
-0.4237973853817092
% es.Ex (V/m) @ t=0.12
-1.6627772189366645
% es.Ey (V/m) @ t=0.12
0.12809477689224835
% es.Ez (V/m) @ t=0.12
-0.4237973853817114
% es.tEx (V/m) @ t=0.12
-1.6627772189366574
% es.tEy (V/m) @ t=0.12
0
% es.tEz (V/m) @ t=0.12
-0.4237973853817092
% V (V) @ t=0.12
0.009972563001680191
% es.normE (V/m) @ t=0.14
1.7368089115385597
% es.EX (V/m) @ t=0.14
-1.6782165964142717
% es.EY (V/m) @ t=0.14
0.12928417336421638
% es.EZ (V/m) @ t=0.14
-0.42773246950503063
% es.tEX (V/m) @ t=0.14
-1.6782165964142735
% es.tEY (V/m) @ t=0.14
0
% es.tEZ (V/m) @ t=0.14
-0.4277324695050364
% es.Ex (V/m) @ t=0.14
-1.6782165964142717
% es.Ey (V/m) @ t=0.14
0.12928417336421638
% es.Ez (V/m) @ t=0.14
-0.42773246950503063
% es.tEx (V/m) @ t=0.14
-1.6782165964142735
% es.tEy (V/m) @ t=0.14
0
% es.tEz (V/m) @ t=0.14
-0.4277324695050364
% V (V) @ t=0.14
0.010065161243167618
% es.normE (V/m) @ t=0.16
1.7532283871922147
% es.EX (V/m) @ t=0.16
-1.69408215100316
% es.EY (V/m) @ t=0.16
0.13050640058495944
% es.EZ (V/m) @ t=0.16
-0.43177617486764586
% es.tEX (V/m) @ t=0.16
-1.6940821510031778
% es.tEY (V/m) @ t=0.16
0
% es.tEZ (V/m) @ t=0.16
-0.4317761748676503
% es.Ex (V/m) @ t=0.16
-1.69408215100316
% es.Ey (V/m) @ t=0.16
0.13050640058495944
% es.Ez (V/m) @ t=0.16
-0.43177617486764586
% es.tEx (V/m) @ t=0.16
-1.6940821510031778
% es.tEy (V/m) @ t=0.16
0
% es.tEz (V/m) @ t=0.16
-0.4317761748676503
% V (V) @ t=0.16
0.01016031551533415
% es.normE (V/m) @ t=0.18
1.7696478628459338
% es.EX (V/m) @ t=0.18
-1.709947705592115
% es.EY (V/m) @ t=0.18
0.1317286278057006
% es.EZ (V/m) @ t=0.18
-0.43581988023025753
% es.tEX (V/m) @ t=0.18
-1.7099477055921177
% es.tEY (V/m) @ t=0.18
0
% es.tEZ (V/m) @ t=0.18
-0.43581988023024465
% es.Ex (V/m) @ t=0.18
-1.709947705592115
% es.Ey (V/m) @ t=0.18
0.1317286278057006
% es.Ez (V/m) @ t=0.18
-0.43581988023025753
% es.tEx (V/m) @ t=0.18
-1.7099477055921177
% es.tEy (V/m) @ t=0.18
0
% es.tEz (V/m) @ t=0.18
-0.43581988023024465
% V (V) @ t=0.18
0.010255469787500682
% es.normE (V/m) @ t=0.2
1.7860673384996013
% es.EX (V/m) @ t=0.2
-1.7258132601810194
% es.EY (V/m) @ t=0.2
0.13295085502644544
% es.EZ (V/m) @ t=0.2
-0.4398635855928581
% es.tEX (V/m) @ t=0.2
-1.7258132601810274
% es.tEY (V/m) @ t=0.2
0
% es.tEZ (V/m) @ t=0.2
-0.43986358559285677
% es.Ex (V/m) @ t=0.2
-1.7258132601810194
% es.Ey (V/m) @ t=0.2
0.13295085502644544
% es.Ez (V/m) @ t=0.2
-0.4398635855928581
% es.tEx (V/m) @ t=0.2
-1.7258132601810274
% es.tEy (V/m) @ t=0.2
0
% es.tEz (V/m) @ t=0.2
-0.43986358559285677
% V (V) @ t=0.2
0.010350624059667211
% es.normE (V/m) @ t=0.22
1.8024868141532941
% es.EX (V/m) @ t=0.22
-1.7416788147699451
% es.EY (V/m) @ t=0.22
0.13417308224720637
% es.EZ (V/m) @ t=0.22
-0.4439072909554729
% es.tEX (V/m) @ t=0.22
-1.7416788147699371
% es.tEY (V/m) @ t=0.22
0
% es.tEZ (V/m) @ t=0.22
-0.44390729095547776
% es.Ex (V/m) @ t=0.22
-1.7416788147699451
% es.Ey (V/m) @ t=0.22
0.13417308224720637
% es.Ez (V/m) @ t=0.22
-0.4439072909554729
% es.tEx (V/m) @ t=0.22
-1.7416788147699371
% es.tEy (V/m) @ t=0.22
0
% es.tEz (V/m) @ t=0.22
-0.44390729095547776
% V (V) @ t=0.22
0.010445778331833744
% es.normE (V/m) @ t=0.24
1.818906289806963
% es.EX (V/m) @ t=0.24
-1.7575443693588513
% es.EY (V/m) @ t=0.24
0.1353953094679361
% es.EZ (V/m) @ t=0.24
-0.44795099631807744
% es.tEX (V/m) @ t=0.24
-1.7575443693588504
% es.tEY (V/m) @ t=0.24
0
% es.tEZ (V/m) @ t=0.24
-0.4479509963180863
% es.Ex (V/m) @ t=0.24
-1.7575443693588513
% es.Ey (V/m) @ t=0.24
0.1353953094679361
% es.Ez (V/m) @ t=0.24
-0.44795099631807744
% es.tEx (V/m) @ t=0.24
-1.7575443693588504
% es.tEy (V/m) @ t=0.24
0
% es.tEz (V/m) @ t=0.24
-0.4479509963180863
% V (V) @ t=0.24
0.010540932604000273
% es.normE (V/m) @ t=0.26
1.8353257654606323
% es.EX (V/m) @ t=0.26
-1.7734099239477539
% es.EY (V/m) @ t=0.26
0.13661753668869703
% es.EZ (V/m) @ t=0.26
-0.451994701680686
% es.tEX (V/m) @ t=0.26
-1.7734099239477743
% es.tEY (V/m) @ t=0.26
0
% es.tEZ (V/m) @ t=0.26
-0.4519947016806789
% es.Ex (V/m) @ t=0.26
-1.7734099239477539
% es.Ey (V/m) @ t=0.26
0.13661753668869703
% es.Ez (V/m) @ t=0.26
-0.451994701680686
% es.tEx (V/m) @ t=0.26
-1.7734099239477743
% es.tEy (V/m) @ t=0.26
0
% es.tEz (V/m) @ t=0.26
-0.4519947016806789
% V (V) @ t=0.26
0.010636086876166803
% es.normE (V/m) @ t=0.28
1.853369290234528
% es.EX (V/m) @ t=0.28
-1.7908447407184118
% es.EY (V/m) @ t=0.28
0.1379605487965181
% es.EZ (V/m) @ t=0.28
-0.45643839178934664
% es.tEX (V/m) @ t=0.28
-1.7908447407184056
% es.tEY (V/m) @ t=0.28
0
% es.tEZ (V/m) @ t=0.28
-0.4564383917893515
% es.Ex (V/m) @ t=0.28
-1.7908447407184118
% es.Ey (V/m) @ t=0.28
0.1379605487965181
% es.Ez (V/m) @ t=0.28
-0.45643839178934664
% es.tEx (V/m) @ t=0.28
-1.7908447407184056
% es.tEy (V/m) @ t=0.28
0
% es.tEz (V/m) @ t=0.28
-0.4564383917893515
% V (V) @ t=0.28
0.010740656800741202
% es.normE (V/m) @ t=0.3
1.8715796227263042
% es.EX (V/m) @ t=0.3
-1.8084407379854097
% es.EY (V/m) @ t=0.3
0.13931596684151537
% es.EZ (V/m) @ t=0.3
-0.46092316473338846
% es.tEX (V/m) @ t=0.3
-1.8084407379854
% es.tEY (V/m) @ t=0.3
0
% es.tEZ (V/m) @ t=0.3
-0.4609231647333836
% es.Ex (V/m) @ t=0.3
-1.8084407379854097
% es.Ey (V/m) @ t=0.3
0.13931596684151537
% es.Ez (V/m) @ t=0.3
-0.46092316473338846
% es.tEx (V/m) @ t=0.3
-1.8084407379854
% es.tEy (V/m) @ t=0.3
0
% es.tEz (V/m) @ t=0.3
-0.4609231647333836
% V (V) @ t=0.3
0.010846193816440494
% es.normE (V/m) @ t=0.32
1.8897899552181054
% es.EX (V/m) @ t=0.32
-1.8260367352524156
% es.EY (V/m) @ t=0.32
0.14067138488652964
% es.EZ (V/m) @ t=0.32
-0.4654079376774436
% es.tEX (V/m) @ t=0.32
-1.8260367352524138
% es.tEY (V/m) @ t=0.32
0
% es.tEZ (V/m) @ t=0.32
-0.46540793767743516
% es.Ex (V/m) @ t=0.32
-1.8260367352524156
% es.Ey (V/m) @ t=0.32
0.14067138488652964
% es.Ez (V/m) @ t=0.32
-0.4654079376774436
% es.tEx (V/m) @ t=0.32
-1.8260367352524138
% es.tEy (V/m) @ t=0.32
0
% es.tEz (V/m) @ t=0.32
-0.46540793767743516
% V (V) @ t=0.32
0.010951730832139786
% es.normE (V/m) @ t=0.34
1.9080002877098965
% es.EX (V/m) @ t=0.34
-1.8436327325194029
% es.EY (V/m) @ t=0.34
0.1420268029315439
% es.EZ (V/m) @ t=0.34
-0.4698927106214792
% es.tEX (V/m) @ t=0.34
-1.8436327325194082
% es.tEY (V/m) @ t=0.34
0
% es.tEZ (V/m) @ t=0.34
-0.46989271062149385
% es.Ex (V/m) @ t=0.34
-1.8436327325194029
% es.Ey (V/m) @ t=0.34
0.1420268029315439
% es.Ez (V/m) @ t=0.34
-0.4698927106214792
% es.tEx (V/m) @ t=0.34
-1.8436327325194082
% es.tEy (V/m) @ t=0.34
0
% es.tEz (V/m) @ t=0.34
-0.46989271062149385
% V (V) @ t=0.34
0.01105726784783908
% es.normE (V/m) @ t=0.36
1.9262106202016955
% es.EX (V/m) @ t=0.36
-1.8612287297863812
% es.EY (V/m) @ t=0.36
0.14338222097654474
% es.EZ (V/m) @ t=0.36
-0.47437748356553433
% es.tEX (V/m) @ t=0.36
-1.8612287297863723
% es.tEY (V/m) @ t=0.36
0
% es.tEZ (V/m) @ t=0.36
-0.47437748356554366
% es.Ex (V/m) @ t=0.36
-1.8612287297863812
% es.Ey (V/m) @ t=0.36
0.14338222097654474
% es.Ez (V/m) @ t=0.36
-0.47437748356553433
% es.tEx (V/m) @ t=0.36
-1.8612287297863723
% es.tEy (V/m) @ t=0.36
0
% es.tEz (V/m) @ t=0.36
-0.47437748356554366
% V (V) @ t=0.36
0.011162804863538366
% es.normE (V/m) @ t=0.38
1.944420952693536
% es.EX (V/m) @ t=0.38
-1.8788247270533933
% es.EY (V/m) @ t=0.38
0.1447376390215359
% es.EZ (V/m) @ t=0.38
-0.47886225650958414
% es.tEX (V/m) @ t=0.38
-1.8788247270534022
% es.tEY (V/m) @ t=0.38
0
% es.tEZ (V/m) @ t=0.38
-0.4788622565095775
% es.Ex (V/m) @ t=0.38
-1.8788247270533933
% es.Ey (V/m) @ t=0.38
0.1447376390215359
% es.Ez (V/m) @ t=0.38
-0.47886225650958414
% es.tEx (V/m) @ t=0.38
-1.8788247270534022
% es.tEy (V/m) @ t=0.38
0
% es.tEz (V/m) @ t=0.38
-0.4788622565095775
% V (V) @ t=0.38
0.011268341879237661
% es.normE (V/m) @ t=0.4
1.9626312851853913
% es.EX (V/m) @ t=0.4
-1.8964207243204072
% es.EY (V/m) @ t=0.4
0.1460930570665323
% es.EZ (V/m) @ t=0.4
-0.48334702945363395
% es.tEX (V/m) @ t=0.4
-1.896420724320425
% es.tEY (V/m) @ t=0.4
0
% es.tEZ (V/m) @ t=0.4
-0.48334702945362906
% es.Ex (V/m) @ t=0.4
-1.8964207243204072
% es.Ey (V/m) @ t=0.4
0.1460930570665323
% es.Ez (V/m) @ t=0.4
-0.48334702945363395
% es.tEx (V/m) @ t=0.4
-1.896420724320425
% es.tEy (V/m) @ t=0.4
0
% es.tEz (V/m) @ t=0.4
-0.48334702945362906
% V (V) @ t=0.4
0.01137387889493695
% es.normE (V/m) @ t=0.42
1.9808416176772152
% es.EX (V/m) @ t=0.42
-1.9140167215873758
% es.EY (V/m) @ t=0.42
0.14744847511154746
% es.EZ (V/m) @ t=0.42
-0.48783180239768553
% es.tEX (V/m) @ t=0.42
-1.9140167215873873
% es.tEY (V/m) @ t=0.42
0
% es.tEZ (V/m) @ t=0.42
-0.48783180239767354
% es.Ex (V/m) @ t=0.42
-1.9140167215873758
% es.Ey (V/m) @ t=0.42
0.14744847511154746
% es.Ez (V/m) @ t=0.42
-0.48783180239768553
% es.tEx (V/m) @ t=0.42
-1.9140167215873873
% es.tEy (V/m) @ t=0.42
0
% es.tEz (V/m) @ t=0.42
-0.48783180239767354
% V (V) @ t=0.42
0.011479415910636243
% es.normE (V/m) @ t=0.44
1.9990519501690858
% es.EX (V/m) @ t=0.44
-1.9316127188543817
% es.EY (V/m) @ t=0.44
0.14880389315655185
% es.EZ (V/m) @ t=0.44
-0.4923165753417371
% es.tEX (V/m) @ t=0.44
-1.9316127188543781
% es.tEY (V/m) @ t=0.44
0
% es.tEZ (V/m) @ t=0.44
-0.4923165753417269
% es.Ex (V/m) @ t=0.44
-1.9316127188543817
% es.Ey (V/m) @ t=0.44
0.14880389315655185
% es.Ez (V/m) @ t=0.44
-0.4923165753417371
% es.tEx (V/m) @ t=0.44
-1.9316127188543781
% es.tEy (V/m) @ t=0.44
0
% es.tEz (V/m) @ t=0.44
-0.4923165753417269
% V (V) @ t=0.44
0.011584952926335537
% es.normE (V/m) @ t=0.46
2.0172622826609405
% es.EX (V/m) @ t=0.46
-1.9492087161213671
% es.EY (V/m) @ t=0.46
0.1501593112015439
% es.EZ (V/m) @ t=0.46
-0.4968013482857656
% es.tEX (V/m) @ t=0.46
-1.9492087161213707
% es.tEY (V/m) @ t=0.46
0
% es.tEZ (V/m) @ t=0.46
-0.4968013482857785
% es.Ex (V/m) @ t=0.46
-1.9492087161213671
% es.Ey (V/m) @ t=0.46
0.1501593112015439
% es.Ez (V/m) @ t=0.46
-0.4968013482857656
% es.tEx (V/m) @ t=0.46
-1.9492087161213707
% es.tEy (V/m) @ t=0.46
0
% es.tEz (V/m) @ t=0.46
-0.4968013482857785
% V (V) @ t=0.46
0.011690489942034827
% es.normE (V/m) @ t=0.48
2.0354726151528095
% es.EX (V/m) @ t=0.48
-1.9668047133883517
% es.EY (V/m) @ t=0.48
0.1515147292465323
% es.EZ (V/m) @ t=0.48
-0.5012861212298154
% es.tEX (V/m) @ t=0.48
-1.9668047133883615
% es.tEY (V/m) @ t=0.48
0
% es.tEZ (V/m) @ t=0.48
-0.5012861212298088
% es.Ex (V/m) @ t=0.48
-1.9668047133883517
% es.Ey (V/m) @ t=0.48
0.1515147292465323
% es.Ez (V/m) @ t=0.48
-0.5012861212298154
% es.tEx (V/m) @ t=0.48
-1.9668047133883615
% es.tEy (V/m) @ t=0.48
0
% es.tEz (V/m) @ t=0.48
-0.5012861212298088
% V (V) @ t=0.48
0.011796026957734115
% es.normE (V/m) @ t=0.5
2.0536829476446967
% es.EX (V/m) @ t=0.5
-1.9844007106553425
% es.EY (V/m) @ t=0.5
0.15287014729156434
% es.EZ (V/m) @ t=0.5
-0.505770894173859
% es.tEX (V/m) @ t=0.5
-1.984400710655354
% es.tEY (V/m) @ t=0.5
0
% es.tEZ (V/m) @ t=0.5
-0.5057708941738603
% es.Ex (V/m) @ t=0.5
-1.9844007106553425
% es.Ey (V/m) @ t=0.5
0.15287014729156434
% es.Ez (V/m) @ t=0.5
-0.505770894173859
% es.tEx (V/m) @ t=0.5
-1.984400710655354
% es.tEy (V/m) @ t=0.5
0
% es.tEz (V/m) @ t=0.5
-0.5057708941738603
% V (V) @ t=0.5
0.01190156397343341
% es.normE (V/m) @ t=0.52
2.0718932801366057
% es.EX (V/m) @ t=0.52
-2.0019967079223404
% es.EY (V/m) @ t=0.52
0.15422556533658927
% es.EZ (V/m) @ t=0.52
-0.5102556671179248
% es.tEX (V/m) @ t=0.52
-2.0019967079223555
% es.tEY (V/m) @ t=0.52
0
% es.tEZ (V/m) @ t=0.52
-0.5102556671179297
% es.Ex (V/m) @ t=0.52
-2.0019967079223404
% es.Ey (V/m) @ t=0.52
0.15422556533658927
% es.Ez (V/m) @ t=0.52
-0.5102556671179248
% es.tEx (V/m) @ t=0.52
-2.0019967079223555
% es.tEy (V/m) @ t=0.52
0
% es.tEz (V/m) @ t=0.52
-0.5102556671179297
% V (V) @ t=0.52
0.012007100989132699
% es.normE (V/m) @ t=0.54
2.0917658625864495
% es.EX (V/m) @ t=0.54
-2.0211988773122425
% es.EY (V/m) @ t=0.54
0.15570478892688666
% es.EZ (V/m) @ t=0.54
-0.5151497951722748
% es.tEX (V/m) @ t=0.54
-2.021198877312253
% es.tEY (V/m) @ t=0.54
0
% es.tEZ (V/m) @ t=0.54
-0.5151497951722792
% es.Ex (V/m) @ t=0.54
-2.0211988773122425
% es.Ey (V/m) @ t=0.54
0.15570478892688666
% es.Ez (V/m) @ t=0.54
-0.5151497951722748
% es.tEx (V/m) @ t=0.54
-2.021198877312253
% es.tEy (V/m) @ t=0.54
0
% es.tEz (V/m) @ t=0.54
-0.5151497951722792
% V (V) @ t=0.54
0.012122268382512418
% es.normE (V/m) @ t=0.56
2.1119952173312613
% es.EX (V/m) @ t=0.56
-2.0407457828903883
% es.EY (V/m) @ t=0.56
0.15721058516850506
% es.EZ (V/m) @ t=0.56
-0.520131783997162
% es.tEX (V/m) @ t=0.56
-2.0407457828903883
% es.tEY (V/m) @ t=0.56
0
% es.tEZ (V/m) @ t=0.56
-0.5201317839971669
% es.Ex (V/m) @ t=0.56
-2.0407457828903883
% es.Ey (V/m) @ t=0.56
0.15721058516850506
% es.Ez (V/m) @ t=0.56
-0.520131783997162
% es.tEx (V/m) @ t=0.56
-2.0407457828903883
% es.tEy (V/m) @ t=0.56
0
% es.tEz (V/m) @ t=0.56
-0.5201317839971669
% V (V) @ t=0.56
0.012239502764632487
% es.normE (V/m) @ t=0.58
2.132224572076108
% es.EX (V/m) @ t=0.58
-2.060292688468559
% es.EY (V/m) @ t=0.58
0.15871638141014766
% es.EZ (V/m) @ t=0.58
-0.5251137728220869
% es.tEX (V/m) @ t=0.58
-2.060292688468536
% es.tEY (V/m) @ t=0.58
0
% es.tEZ (V/m) @ t=0.58
-0.5251137728220794
% es.Ex (V/m) @ t=0.58
-2.060292688468559
% es.Ey (V/m) @ t=0.58
0.15871638141014766
% es.Ez (V/m) @ t=0.58
-0.5251137728220869
% es.tEx (V/m) @ t=0.58
-2.060292688468536
% es.tEy (V/m) @ t=0.58
0
% es.tEz (V/m) @ t=0.58
-0.5251137728220794
% V (V) @ t=0.58
0.012356737146752558
% es.normE (V/m) @ t=0.6
2.152453926820915
% es.EX (V/m) @ t=0.6
-2.0798395940466996
% es.EY (V/m) @ t=0.6
0.1602221776517767
% es.EZ (V/m) @ t=0.6
-0.5300957616469715
% es.tEX (V/m) @ t=0.6
-2.079839594046703
% es.tEY (V/m) @ t=0.6
0
% es.tEZ (V/m) @ t=0.6
-0.5300957616469724
% es.Ex (V/m) @ t=0.6
-2.0798395940466996
% es.Ey (V/m) @ t=0.6
0.1602221776517767
% es.Ez (V/m) @ t=0.6
-0.5300957616469715
% es.tEx (V/m) @ t=0.6
-2.079839594046703
% es.tEy (V/m) @ t=0.6
0
% es.tEz (V/m) @ t=0.6
-0.5300957616469724
% V (V) @ t=0.6
0.012473971528872627
% es.normE (V/m) @ t=0.62
2.172683281565729
% es.EX (V/m) @ t=0.62
-2.099386499624843
% es.EY (V/m) @ t=0.62
0.16172797389340499
% es.EZ (V/m) @ t=0.62
-0.535077750471876
% es.tEX (V/m) @ t=0.62
-2.099386499624867
% es.tEY (V/m) @ t=0.62
0
% es.tEZ (V/m) @ t=0.62
-0.5350777504718742
% es.Ex (V/m) @ t=0.62
-2.099386499624843
% es.Ey (V/m) @ t=0.62
0.16172797389340499
% es.Ez (V/m) @ t=0.62
-0.535077750471876
% es.tEx (V/m) @ t=0.62
-2.099386499624867
% es.tEy (V/m) @ t=0.62
0
% es.tEz (V/m) @ t=0.62
-0.5350777504718742
% V (V) @ t=0.62
0.012591205910992694
% es.normE (V/m) @ t=0.64
2.1929126363105893
% es.EX (V/m) @ t=0.64
-2.1189334052030233
% es.EY (V/m) @ t=0.64
0.16323377013504736
% es.EZ (V/m) @ t=0.64
-0.5400597392968125
% es.tEX (V/m) @ t=0.64
-2.118933405203016
% es.tEY (V/m) @ t=0.64
0
% es.tEZ (V/m) @ t=0.64
-0.540059739296801
% es.Ex (V/m) @ t=0.64
-2.1189334052030233
% es.Ey (V/m) @ t=0.64
0.16323377013504736
% es.Ez (V/m) @ t=0.64
-0.5400597392968125
% es.tEx (V/m) @ t=0.64
-2.118933405203016
% es.tEy (V/m) @ t=0.64
0
% es.tEz (V/m) @ t=0.64
-0.540059739296801
% V (V) @ t=0.64
0.012708440293112766
% es.normE (V/m) @ t=0.66
2.2131419910553927
% es.EX (V/m) @ t=0.66
-2.138480310781154
% es.EY (V/m) @ t=0.66
0.16473956637668707
% es.EZ (V/m) @ t=0.66
-0.5450417281217153
% es.tEX (V/m) @ t=0.66
-2.1384803107811656
% es.tEY (V/m) @ t=0.66
0
% es.tEZ (V/m) @ t=0.66
-0.545041728121717
% es.Ex (V/m) @ t=0.66
-2.138480310781154
% es.Ey (V/m) @ t=0.66
0.16473956637668707
% es.Ez (V/m) @ t=0.66
-0.5450417281217153
% es.tEx (V/m) @ t=0.66
-2.1384803107811656
% es.tEy (V/m) @ t=0.66
0
% es.tEz (V/m) @ t=0.66
-0.545041728121717
% V (V) @ t=0.66
0.012825674675232832
% es.normE (V/m) @ t=0.68
2.2333713458002022
% es.EX (V/m) @ t=0.68
-2.158027216359292
% es.EY (V/m) @ t=0.68
0.16624536261831901
% es.EZ (V/m) @ t=0.68
-0.5500237169466176
% es.tEX (V/m) @ t=0.68
-2.1580272163593044
% es.tEY (V/m) @ t=0.68
0
% es.tEZ (V/m) @ t=0.68
-0.5500237169466189
% es.Ex (V/m) @ t=0.68
-2.158027216359292
% es.Ey (V/m) @ t=0.68
0.16624536261831901
% es.Ez (V/m) @ t=0.68
-0.5500237169466176
% es.tEx (V/m) @ t=0.68
-2.1580272163593044
% es.tEy (V/m) @ t=0.68
0
% es.tEz (V/m) @ t=0.68
-0.5500237169466189
% V (V) @ t=0.68
0.012942909057352904
% es.normE (V/m) @ t=0.7
2.253600700545036
% es.EX (V/m) @ t=0.7
-2.177574121937453
% es.EY (V/m) @ t=0.7
0.16775115885995784
% es.EZ (V/m) @ t=0.7
-0.5550057057715239
% es.tEX (V/m) @ t=0.7
-2.177574121937468
% es.tEY (V/m) @ t=0.7
0
% es.tEZ (V/m) @ t=0.7
-0.5550057057715154
% es.Ex (V/m) @ t=0.7
-2.177574121937453
% es.Ey (V/m) @ t=0.7
0.16775115885995784
% es.Ez (V/m) @ t=0.7
-0.5550057057715239
% es.tEx (V/m) @ t=0.7
-2.177574121937468
% es.tEy (V/m) @ t=0.7
0
% es.tEz (V/m) @ t=0.7
-0.5550057057715154
% V (V) @ t=0.7
0.013060143439472972
% es.normE (V/m) @ t=0.72
2.273830055289861
% es.EX (V/m) @ t=0.72
-2.197121027515605
% es.EY (V/m) @ t=0.72
0.16925695510158867
% es.EZ (V/m) @ t=0.72
-0.5599876945964297
% es.tEX (V/m) @ t=0.72
-2.1971210275156032
% es.tEY (V/m) @ t=0.72
0
% es.tEZ (V/m) @ t=0.72
-0.5599876945964333
% es.Ex (V/m) @ t=0.72
-2.197121027515605
% es.Ey (V/m) @ t=0.72
0.16925695510158867
% es.Ez (V/m) @ t=0.72
-0.5599876945964297
% es.tEx (V/m) @ t=0.72
-2.1971210275156032
% es.tEy (V/m) @ t=0.72
0
% es.tEz (V/m) @ t=0.72
-0.5599876945964333
% V (V) @ t=0.72
0.013177377821593042
% es.normE (V/m) @ t=0.74
2.2940594100346776
% es.EX (V/m) @ t=0.74
-2.216667933093748
% es.EY (V/m) @ t=0.74
0.17076275134323926
% es.EZ (V/m) @ t=0.74
-0.5649696834213329
% es.tEX (V/m) @ t=0.74
-2.2166679330937384
% es.tEY (V/m) @ t=0.74
0
% es.tEZ (V/m) @ t=0.74
-0.5649696834213351
% es.Ex (V/m) @ t=0.74
-2.216667933093748
% es.Ey (V/m) @ t=0.74
0.17076275134323926
% es.Ez (V/m) @ t=0.74
-0.5649696834213329
% es.tEx (V/m) @ t=0.74
-2.2166679330937384
% es.tEy (V/m) @ t=0.74
0
% es.tEz (V/m) @ t=0.74
-0.5649696834213351
% V (V) @ t=0.74
0.013294612203713113
% es.normE (V/m) @ t=0.76
2.314288764779506
% es.EX (V/m) @ t=0.76
-2.2362148386719074
% es.EY (V/m) @ t=0.76
0.17226854758481858
% es.EZ (V/m) @ t=0.76
-0.5699516722462401
% es.tEX (V/m) @ t=0.76
-2.2362148386719163
% es.tEY (V/m) @ t=0.76
0
% es.tEZ (V/m) @ t=0.76
-0.5699516722462405
% es.Ex (V/m) @ t=0.76
-2.2362148386719074
% es.Ey (V/m) @ t=0.76
0.17226854758481858
% es.Ez (V/m) @ t=0.76
-0.5699516722462401
% es.tEx (V/m) @ t=0.76
-2.2362148386719163
% es.tEy (V/m) @ t=0.76
0
% es.tEz (V/m) @ t=0.76
-0.5699516722462405
% V (V) @ t=0.76
0.013411846585833179
% es.normE (V/m) @ t=0.78
2.3345181195243367
% es.EX (V/m) @ t=0.78
-2.2557617442500595
% es.EY (V/m) @ t=0.78
0.17377434382649215
% es.EZ (V/m) @ t=0.78
-0.5749336610711571
% es.tEX (V/m) @ t=0.78
-2.255761744250041
% es.tEY (V/m) @ t=0.78
0
% es.tEZ (V/m) @ t=0.78
-0.5749336610711531
% es.Ex (V/m) @ t=0.78
-2.2557617442500595
% es.Ey (V/m) @ t=0.78
0.17377434382649215
% es.Ez (V/m) @ t=0.78
-0.5749336610711571
% es.tEx (V/m) @ t=0.78
-2.255761744250041
% es.tEy (V/m) @ t=0.78
0
% es.tEz (V/m) @ t=0.78
-0.5749336610711531
% V (V) @ t=0.78
0.01352908096795325
% es.normE (V/m) @ t=0.8
2.3564345395247037
% es.EX (V/m) @ t=0.8
-2.2769387998322
% es.EY (V/m) @ t=0.8
0.17540579385858857
% es.EZ (V/m) @ t=0.8
-0.5803311170645036
% es.tEX (V/m) @ t=0.8
-2.2769387998321875
% es.tEY (V/m) @ t=0.8
0
% es.tEZ (V/m) @ t=0.8
-0.5803311170644889
% es.Ex (V/m) @ t=0.8
-2.2769387998322
% es.Ey (V/m) @ t=0.8
0.17540579385858857
% es.Ez (V/m) @ t=0.8
-0.5803311170645036
% es.tEx (V/m) @ t=0.8
-2.2769387998321875
% es.tEy (V/m) @ t=0.8
0
% es.tEz (V/m) @ t=0.8
-0.5803311170644889
% V (V) @ t=0.8
0.013656089562684734
% es.normE (V/m) @ t=0.82
2.378944534679131
% es.EX (V/m) @ t=0.82
-2.2986894055699096
% es.EY (V/m) @ t=0.82
0.17708145377987883
% es.EZ (V/m) @ t=0.82
-0.585874750562029
% es.tEX (V/m) @ t=0.82
-2.298689405569931
% es.tEY (V/m) @ t=0.82
0
% es.tEZ (V/m) @ t=0.82
-0.5858747505620201
% es.Ex (V/m) @ t=0.82
-2.2986894055699096
% es.Ey (V/m) @ t=0.82
0.17708145377987883
% es.Ez (V/m) @ t=0.82
-0.585874750562029
% es.tEx (V/m) @ t=0.82
-2.298689405569931
% es.tEy (V/m) @ t=0.82
0
% es.tEz (V/m) @ t=0.82
-0.5858747505620201
% V (V) @ t=0.82
0.013786537105457733
% es.normE (V/m) @ t=0.84
2.401454529833568
% es.EX (V/m) @ t=0.84
-2.3204400113076122
% es.EY (V/m) @ t=0.84
0.17875711370120473
% es.EZ (V/m) @ t=0.84
-0.5914183840595877
% es.tEX (V/m) @ t=0.84
-2.3204400113076034
% es.tEY (V/m) @ t=0.84
0
% es.tEZ (V/m) @ t=0.84
-0.591418384059569
% es.Ex (V/m) @ t=0.84
-2.3204400113076122
% es.Ey (V/m) @ t=0.84
0.17875711370120473
% es.Ez (V/m) @ t=0.84
-0.5914183840595877
% es.tEx (V/m) @ t=0.84
-2.3204400113076034
% es.tEy (V/m) @ t=0.84
0
% es.tEz (V/m) @ t=0.84
-0.591418384059569
% V (V) @ t=0.84
0.013916984648230732
% es.normE (V/m) @ t=0.86
2.42396452498798
% es.EX (V/m) @ t=0.86
-2.3421906170453006
% es.EY (V/m) @ t=0.86
0.18043277362246657
% es.EZ (V/m) @ t=0.86
-0.5969620175571002
% es.tEX (V/m) @ t=0.86
-2.3421906170453077
% es.tEY (V/m) @ t=0.86
0
% es.tEZ (V/m) @ t=0.86
-0.5969620175571002
% es.Ex (V/m) @ t=0.86
-2.3421906170453006
% es.Ey (V/m) @ t=0.86
0.18043277362246657
% es.Ez (V/m) @ t=0.86
-0.5969620175571002
% es.tEx (V/m) @ t=0.86
-2.3421906170453077
% es.tEy (V/m) @ t=0.86
0
% es.tEz (V/m) @ t=0.86
-0.5969620175571002
% V (V) @ t=0.86
0.01404743219100373
% es.normE (V/m) @ t=0.88
2.446474520142445
% es.EX (V/m) @ t=0.88
-2.363941222783019
% es.EY (V/m) @ t=0.88
0.18210843354381723
% es.EZ (V/m) @ t=0.88
-0.6025056510546607
% es.tEX (V/m) @ t=0.88
-2.3639412227830086
% es.tEY (V/m) @ t=0.88
0
% es.tEZ (V/m) @ t=0.88
-0.602505651054674
% es.Ex (V/m) @ t=0.88
-2.363941222783019
% es.Ey (V/m) @ t=0.88
0.18210843354381723
% es.Ez (V/m) @ t=0.88
-0.6025056510546607
% es.tEx (V/m) @ t=0.88
-2.3639412227830086
% es.tEy (V/m) @ t=0.88
0
% es.tEz (V/m) @ t=0.88
-0.602505651054674
% V (V) @ t=0.88
0.01417787973377673
% es.normE (V/m) @ t=0.9
2.4689845152968832
% es.EX (V/m) @ t=0.9
-2.3856918285207165
% es.EY (V/m) @ t=0.9
0.18378409346510582
% es.EZ (V/m) @ t=0.9
-0.6080492845521999
% es.tEX (V/m) @ t=0.9
-2.3856918285206845
% es.tEY (V/m) @ t=0.9
0
% es.tEZ (V/m) @ t=0.9
-0.6080492845522159
% es.Ex (V/m) @ t=0.9
-2.3856918285207165
% es.Ey (V/m) @ t=0.9
0.18378409346510582
% es.Ez (V/m) @ t=0.9
-0.6080492845521999
% es.tEx (V/m) @ t=0.9
-2.3856918285206845
% es.tEy (V/m) @ t=0.9
0
% es.tEz (V/m) @ t=0.9
-0.6080492845522159
% V (V) @ t=0.9
0.01430832727654973
% es.normE (V/m) @ t=0.92
2.4914945104513477
% es.EX (V/m) @ t=0.92
-2.407442434258428
% es.EY (V/m) @ t=0.92
0.18545975338641563
% es.EZ (V/m) @ t=0.92
-0.6135929180497586
% es.tEX (V/m) @ t=0.92
-2.407442434258442
% es.tEY (V/m) @ t=0.92
0
% es.tEZ (V/m) @ t=0.92
-0.6135929180497577
% es.Ex (V/m) @ t=0.92
-2.407442434258428
% es.Ey (V/m) @ t=0.92
0.18545975338641563
% es.Ez (V/m) @ t=0.92
-0.6135929180497586
% es.tEx (V/m) @ t=0.92
-2.407442434258442
% es.tEy (V/m) @ t=0.92
0
% es.tEz (V/m) @ t=0.92
-0.6135929180497577
% V (V) @ t=0.92
0.014438774819322727
% es.normE (V/m) @ t=0.94
2.5140045056057962
% es.EX (V/m) @ t=0.94
-2.4291930399961252
% es.EY (V/m) @ t=0.94
0.18713541330773076
% es.EZ (V/m) @ t=0.94
-0.6191365515472906
% es.tEX (V/m) @ t=0.94
-2.4291930399961323
% es.tEY (V/m) @ t=0.94
0
% es.tEZ (V/m) @ t=0.94
-0.6191365515472889
% es.Ex (V/m) @ t=0.94
-2.4291930399961252
% es.Ey (V/m) @ t=0.94
0.18713541330773076
% es.Ez (V/m) @ t=0.94
-0.6191365515472906
% es.tEx (V/m) @ t=0.94
-2.4291930399961323
% es.tEy (V/m) @ t=0.94
0
% es.tEz (V/m) @ t=0.94
-0.6191365515472889
% V (V) @ t=0.94
0.014569222362095728
% es.normE (V/m) @ t=0.96
2.5365145007602554
% es.EX (V/m) @ t=0.96
-2.4509436457338225
% es.EY (V/m) @ t=0.96
0.1888110732290087
% es.EZ (V/m) @ t=0.96
-0.6246801850448587
% es.tEX (V/m) @ t=0.96
-2.4509436457338367
% es.tEY (V/m) @ t=0.96
0
% es.tEZ (V/m) @ t=0.96
-0.6246801850448627
% es.Ex (V/m) @ t=0.96
-2.4509436457338225
% es.Ey (V/m) @ t=0.96
0.1888110732290087
% es.Ez (V/m) @ t=0.96
-0.6246801850448587
% es.tEx (V/m) @ t=0.96
-2.4509436457338367
% es.tEy (V/m) @ t=0.96
0
% es.tEz (V/m) @ t=0.96
-0.6246801850448627
% V (V) @ t=0.96
0.014699669904868724
% es.normE (V/m) @ t=0.98
2.55902449591471
% es.EX (V/m) @ t=0.98
-2.472694251471518
% es.EY (V/m) @ t=0.98
0.19048673315030606
% es.EZ (V/m) @ t=0.98
-0.6302238185423907
% es.tEX (V/m) @ t=0.98
-2.4726942514715233
% es.tEY (V/m) @ t=0.98
0
% es.tEZ (V/m) @ t=0.98
-0.6302238185423938
% es.Ex (V/m) @ t=0.98
-2.472694251471518
% es.Ey (V/m) @ t=0.98
0.19048673315030606
% es.Ez (V/m) @ t=0.98
-0.6302238185423907
% es.tEx (V/m) @ t=0.98
-2.4726942514715233
% es.tEy (V/m) @ t=0.98
0
% es.tEz (V/m) @ t=0.98
-0.6302238185423938
% V (V) @ t=0.98
0.014830117447641726
% es.normE (V/m) @ t=1
2.5815344910691924
% es.EX (V/m) @ t=1
-2.494444857209233
% es.EY (V/m) @ t=1
0.1921623930716283
% es.EZ (V/m) @ t=1
-0.6357674520399352
% es.tEX (V/m) @ t=1
-2.4944448572092384
% es.tEY (V/m) @ t=1
0
% es.tEZ (V/m) @ t=1
-0.6357674520399321
% es.Ex (V/m) @ t=1
-2.494444857209233
% es.Ey (V/m) @ t=1
0.1921623930716283
% es.Ez (V/m) @ t=1
-0.6357674520399352
% es.tEx (V/m) @ t=1
-2.4944448572092384
% es.tEy (V/m) @ t=1
0
% es.tEz (V/m) @ t=1
-0.6357674520399321
% V (V) @ t=1
0.014960564990414723
% es.normE (V/m) @ t=1.02
2.604044486223657
% es.EX (V/m) @ t=1.02
-2.5161954629469303
% es.EY (V/m) @ t=1.02
0.19383805299292578
% es.EZ (V/m) @ t=1.02
-0.6413110855374637
% es.tEX (V/m) @ t=1.02
-2.5161954629469427
% es.tEY (V/m) @ t=1.02
0
% es.tEZ (V/m) @ t=1.02
-0.6413110855374633
% es.Ex (V/m) @ t=1.02
-2.5161954629469303
% es.Ey (V/m) @ t=1.02
0.19383805299292578
% es.Ez (V/m) @ t=1.02
-0.6413110855374637
% es.tEx (V/m) @ t=1.02
-2.5161954629469427
% es.tEy (V/m) @ t=1.02
0
% es.tEz (V/m) @ t=1.02
-0.6413110855374633