% Model:              1 neuron.mph
% Version:            COMSOL 6.0.0.405
% Date:               Mar 16 2023, 18:17
% Dimension:          0
% Nodes:              14017
% Expressions:        14017
% Description:        Electric field norm, Electric field, X component, Electric field, Y component, Electric field, Z component, Tangential electric field, X component, Tangential electric field, Y component, Tangential electric field, Z component, Electric field, x component, Electric field, y component, Electric field, z component, Tangential electric field, x component, Tangential electric field, y component, Tangential electric field, z component, Electric potential
% Length unit:        mm
% x
2
% y
12.2
% z
1.6599999999999997
% es.normE (V/m) @ t=0
1.884116525921673
% es.EX (V/m) @ t=0
-1.8205548699218763
% es.EY (V/m) @ t=0
0.1402493353019686
% es.EZ (V/m) @ t=0
-0.4640099858330231
% es.tEX (V/m) @ t=0
-1.8205548699218852
% es.tEY (V/m) @ t=0
0
% es.tEZ (V/m) @ t=0
-0.46400998583302666
% es.Ex (V/m) @ t=0
-1.8205548699218763
% es.Ey (V/m) @ t=0
0.1402493353019686
% es.Ez (V/m) @ t=0
-0.4640099858330231
% es.tEx (V/m) @ t=0
-1.8205548699218852
% es.tEy (V/m) @ t=0
0
% es.tEz (V/m) @ t=0
-0.46400998583302666
% V (V) @ t=0
0.010918840378853503
% es.normE (V/m) @ t=0.02
1.6273501391981897
% es.EX (V/m) @ t=0.02
-1.5724506251194095
% es.EY (V/m) @ t=0.02
0.1211362517913912
% es.EZ (V/m) @ t=0.02
-0.4007749731902486
% es.tEX (V/m) @ t=0.02
-1.572450625119414
% es.tEY (V/m) @ t=0.02
0
% es.tEZ (V/m) @ t=0.02
-0.4007749731902397
% es.Ex (V/m) @ t=0.02
-1.5724506251194095
% es.Ey (V/m) @ t=0.02
0.1211362517913912
% es.Ez (V/m) @ t=0.02
-0.4007749731902486
% es.tEx (V/m) @ t=0.02
-1.572450625119414
% es.tEy (V/m) @ t=0.02
0
% es.tEz (V/m) @ t=0.02
-0.4007749731902397
% V (V) @ t=0.02
0.009430826244815175
% es.normE (V/m) @ t=0.04
1.6423231110553642
% es.EX (V/m) @ t=0.04
-1.5869184748862484
% es.EY (V/m) @ t=0.04
0.12225080906972796
% es.EZ (V/m) @ t=0.04
-0.4044624384783968
% es.tEX (V/m) @ t=0.04
-1.586918474886252
% es.tEY (V/m) @ t=0.04
0
% es.tEZ (V/m) @ t=0.04
-0.4044624384783937
% es.Ex (V/m) @ t=0.04
-1.5869184748862484
% es.Ey (V/m) @ t=0.04
0.12225080906972796
% es.Ez (V/m) @ t=0.04
-0.4044624384783968
% es.tEx (V/m) @ t=0.04
-1.586918474886252
% es.tEy (V/m) @ t=0.04
0
% es.tEz (V/m) @ t=0.04
-0.4044624384783937
% V (V) @ t=0.04
0.009517597604627857
% es.normE (V/m) @ t=0.06
1.657416164156923
% es.EX (V/m) @ t=0.06
-1.6015023609208603
% es.EY (V/m) @ t=0.06
0.12337428549949603
% es.EZ (V/m) @ t=0.06
-0.40817945908704134
% es.tEX (V/m) @ t=0.06
-1.601502360920854
% es.tEY (V/m) @ t=0.06
0
% es.tEZ (V/m) @ t=0.06
-0.408179459087032
% es.Ex (V/m) @ t=0.06
-1.6015023609208603
% es.Ey (V/m) @ t=0.06
0.12337428549949603
% es.Ez (V/m) @ t=0.06
-0.40817945908704134
% es.tEx (V/m) @ t=0.06
-1.601502360920854
% es.tEy (V/m) @ t=0.06
0
% es.tEz (V/m) @ t=0.06
-0.408179459087032
% V (V) @ t=0.06
0.009605065275458551
% es.normE (V/m) @ t=0.08
1.6727741474834568
% es.EX (V/m) @ t=0.08
-1.6163422453234988
% es.EY (V/m) @ t=0.08
0.12451746440298561
% es.EZ (V/m) @ t=0.08
-0.4119617085789615
% es.tEX (V/m) @ t=0.08
-1.6163422453234997
% es.tEY (V/m) @ t=0.08
0
% es.tEZ (V/m) @ t=0.08
-0.41196170857894643
% es.Ex (V/m) @ t=0.08
-1.6163422453234988
% es.Ey (V/m) @ t=0.08
0.12451746440298561
% es.Ez (V/m) @ t=0.08
-0.4119617085789615
% es.tEx (V/m) @ t=0.08
-1.6163422453234997
% es.tEy (V/m) @ t=0.08
0
% es.tEz (V/m) @ t=0.08
-0.41196170857894643
% V (V) @ t=0.08
0.00969406866480887
% es.normE (V/m) @ t=0.1
1.6882444946248198
% es.EX (V/m) @ t=0.1
-1.6312907053075936
% es.EY (V/m) @ t=0.1
0.12566899963918376
% es.EZ (V/m) @ t=0.1
-0.41577162334070916
% es.tEX (V/m) @ t=0.1
-1.6312907053075865
% es.tEY (V/m) @ t=0.1
0
% es.tEZ (V/m) @ t=0.1
-0.4157716233407065
% es.Ex (V/m) @ t=0.1
-1.6312907053075936
% es.Ey (V/m) @ t=0.1
0.12566899963918376
% es.Ez (V/m) @ t=0.1
-0.41577162334070916
% es.tEx (V/m) @ t=0.1
-1.6312907053075865
% es.tEy (V/m) @ t=0.1
0
% es.tEz (V/m) @ t=0.1
-0.4157716233407065
% V (V) @ t=0.1
0.009783723392417584
% es.normE (V/m) @ t=0.12
1.7037148417661627
% es.EX (V/m) @ t=0.12
-1.6462391652916661
% es.EY (V/m) @ t=0.12
0.12682053487538636
% es.EZ (V/m) @ t=0.12
-0.4195815381024537
% es.tEX (V/m) @ t=0.12
-1.6462391652916715
% es.tEY (V/m) @ t=0.12
0
% es.tEZ (V/m) @ t=0.12
-0.4195815381024577
% es.Ex (V/m) @ t=0.12
-1.6462391652916661
% es.Ey (V/m) @ t=0.12
0.12682053487538636
% es.Ez (V/m) @ t=0.12
-0.4195815381024537
% es.tEx (V/m) @ t=0.12
-1.6462391652916715
% es.tEy (V/m) @ t=0.12
0
% es.tEz (V/m) @ t=0.12
-0.4195815381024577
% V (V) @ t=0.12
0.009873378120026302
% es.normE (V/m) @ t=0.14
1.7195150577199052
% es.EX (V/m) @ t=0.14
-1.661506361104002
% es.EY (V/m) @ t=0.14
0.1279966398740605
% es.EZ (V/m) @ t=0.14
-0.4234727048812097
% es.tEX (V/m) @ t=0.14
-1.6615063611040046
% es.tEY (V/m) @ t=0.14
0
% es.tEZ (V/m) @ t=0.14
-0.4234727048812026
% es.Ex (V/m) @ t=0.14
-1.661506361104002
% es.Ey (V/m) @ t=0.14
0.1279966398740605
% es.Ez (V/m) @ t=0.14
-0.4234727048812097
% es.tEx (V/m) @ t=0.14
-1.6615063611040046
% es.tEy (V/m) @ t=0.14
0
% es.tEz (V/m) @ t=0.14
-0.4234727048812026
% V (V) @ t=0.14
0.009964944180883053
% es.normE (V/m) @ t=0.16
1.7357821828968243
% es.EX (V/m) @ t=0.16
-1.6772247080781977
% es.EY (V/m) @ t=0.16
0.12920752187581663
% es.EZ (V/m) @ t=0.16
-0.4274788789438113
% es.tEX (V/m) @ t=0.16
-1.6772247080782012
% es.tEY (V/m) @ t=0.16
0
% es.tEZ (V/m) @ t=0.16
-0.4274788789438162
% es.Ex (V/m) @ t=0.16
-1.6772247080781977
% es.Ey (V/m) @ t=0.16
0.12920752187581663
% es.Ez (V/m) @ t=0.16
-0.4274788789438113
% es.tEx (V/m) @ t=0.16
-1.6772247080782012
% es.tEy (V/m) @ t=0.16
0
% es.tEz (V/m) @ t=0.16
-0.4274788789438162
% V (V) @ t=0.16
0.010059215617599758
% es.normE (V/m) @ t=0.18
1.7520493080737438
% es.EX (V/m) @ t=0.18
-1.6929430550523952
% es.EY (V/m) @ t=0.18
0.13041840387756132
% es.EZ (V/m) @ t=0.18
-0.43148505300641204
% es.tEX (V/m) @ t=0.18
-1.6929430550524138
% es.tEY (V/m) @ t=0.18
0
% es.tEZ (V/m) @ t=0.18
-0.4314850530064067
% es.Ex (V/m) @ t=0.18
-1.6929430550523952
% es.Ey (V/m) @ t=0.18
0.13041840387756132
% es.Ez (V/m) @ t=0.18
-0.43148505300641204
% es.tEx (V/m) @ t=0.18
-1.6929430550524138
% es.tEy (V/m) @ t=0.18
0
% es.tEz (V/m) @ t=0.18
-0.4314850530064067
% V (V) @ t=0.18
0.010153487054316462
% es.normE (V/m) @ t=0.2
1.7683164332506638
% es.EX (V/m) @ t=0.2
-1.7086614020265873
% es.EY (V/m) @ t=0.2
0.13162928587931477
% es.EZ (V/m) @ t=0.2
-0.4354912270690301
% es.tEX (V/m) @ t=0.2
-1.7086614020265838
% es.tEY (V/m) @ t=0.2
0
% es.tEZ (V/m) @ t=0.2
-0.43549122706902565
% es.Ex (V/m) @ t=0.2
-1.7086614020265873
% es.Ey (V/m) @ t=0.2
0.13162928587931477
% es.Ez (V/m) @ t=0.2
-0.4354912270690301
% es.tEx (V/m) @ t=0.2
-1.7086614020265838
% es.tEy (V/m) @ t=0.2
0
% es.tEz (V/m) @ t=0.2
-0.43549122706902565
% V (V) @ t=0.2
0.010247758491033165
% es.normE (V/m) @ t=0.22
1.7845835584275793
% es.EX (V/m) @ t=0.22
-1.7243797490007768
% es.EY (V/m) @ t=0.22
0.132840167881085
% es.EZ (V/m) @ t=0.22
-0.43949740113163527
% es.tEX (V/m) @ t=0.22
-1.7243797490007697
% es.tEY (V/m) @ t=0.22
0
% es.tEZ (V/m) @ t=0.22
-0.4394974011316357
% es.Ex (V/m) @ t=0.22
-1.7243797490007768
% es.Ey (V/m) @ t=0.22
0.132840167881085
% es.Ez (V/m) @ t=0.22
-0.43949740113163527
% es.tEx (V/m) @ t=0.22
-1.7243797490007697
% es.tEy (V/m) @ t=0.22
0
% es.tEz (V/m) @ t=0.22
-0.4394974011316357
% V (V) @ t=0.22
0.010342029927749869
% es.normE (V/m) @ t=0.24
1.8008506836044922
% es.EX (V/m) @ t=0.24
-1.740098095974969
% es.EY (V/m) @ t=0.24
0.13405104988281447
% es.EZ (V/m) @ t=0.24
-0.4435035751942338
% es.tEX (V/m) @ t=0.24
-1.7400980959749681
% es.tEY (V/m) @ t=0.24
0
% es.tEZ (V/m) @ t=0.24
-0.44350357519422623
% es.Ex (V/m) @ t=0.24
-1.740098095974969
% es.Ey (V/m) @ t=0.24
0.13405104988281447
% es.Ez (V/m) @ t=0.24
-0.4435035751942338
% es.tEx (V/m) @ t=0.24
-1.7400980959749681
% es.tEy (V/m) @ t=0.24
0
% es.tEz (V/m) @ t=0.24
-0.44350357519422623
% V (V) @ t=0.24
0.010436301364466573
% es.normE (V/m) @ t=0.26
1.8171178087813993
% es.EX (V/m) @ t=0.26
-1.755816442949146
% es.EY (V/m) @ t=0.26
0.1352619318845849
% es.EZ (V/m) @ t=0.26
-0.44750974925685316
% es.tEX (V/m) @ t=0.26
-1.7558164429491239
% es.tEY (V/m) @ t=0.26
0
% es.tEZ (V/m) @ t=0.26
-0.44750974925684517
% es.Ex (V/m) @ t=0.26
-1.755816442949146
% es.Ey (V/m) @ t=0.26
0.1352619318845849
% es.Ez (V/m) @ t=0.26
-0.44750974925685316
% es.tEx (V/m) @ t=0.26
-1.7558164429491239
% es.tEy (V/m) @ t=0.26
0
% es.tEz (V/m) @ t=0.26
-0.44750974925684517
% V (V) @ t=0.26
0.010530572801183274
% es.normE (V/m) @ t=0.28
1.8348792032873003
% es.EX (V/m) @ t=0.28
-1.7729781557260162
% es.EY (V/m) @ t=0.28
0.1365856344136338
% es.EZ (V/m) @ t=0.28
-0.45188536789623246
% es.tEX (V/m) @ t=0.28
-1.7729781557260083
% es.tEY (V/m) @ t=0.28
0
% es.tEZ (V/m) @ t=0.28
-0.451885367896244
% es.Ex (V/m) @ t=0.28
-1.7729781557260162
% es.Ey (V/m) @ t=0.28
0.1365856344136338
% es.Ez (V/m) @ t=0.28
-0.45188536789623246
% es.tEx (V/m) @ t=0.28
-1.7729781557260083
% es.tEy (V/m) @ t=0.28
0
% es.tEz (V/m) @ t=0.28
-0.451885367896244
% V (V) @ t=0.28
0.010633469765529042
% es.normE (V/m) @ t=0.3
1.8529302321566012
% es.EX (V/m) @ t=0.3
-1.7904196362277123
% es.EY (V/m) @ t=0.3
0.13793120495576305
% es.EZ (V/m) @ t=0.3
-0.45633259601156206
% es.tEX (V/m) @ t=0.3
-1.7904196362277194
% es.tEY (V/m) @ t=0.3
0
% es.tEZ (V/m) @ t=0.3
-0.4563325960115492
% es.Ex (V/m) @ t=0.3
-1.7904196362277123
% es.Ey (V/m) @ t=0.3
0.13793120495576305
% es.Ez (V/m) @ t=0.3
-0.45633259601156206
% es.tEx (V/m) @ t=0.3
-1.7904196362277194
% es.tEy (V/m) @ t=0.3
0
% es.tEz (V/m) @ t=0.3
-0.4563325960115492
% V (V) @ t=0.3
0.010738038616680079
% es.normE (V/m) @ t=0.32
1.870981261029554
% es.EX (V/m) @ t=0.32
-1.8078611167294287
% es.EY (V/m) @ t=0.32
0.13927677549788975
% es.EZ (V/m) @ t=0.32
-0.4607798241268881
% es.tEX (V/m) @ t=0.32
-1.8078611167294234
% es.tEY (V/m) @ t=0.32
0
% es.tEZ (V/m) @ t=0.32
-0.460779824126897
% es.Ex (V/m) @ t=0.32
-1.8078611167294287
% es.Ey (V/m) @ t=0.32
0.13927677549788975
% es.Ez (V/m) @ t=0.32
-0.4607798241268881
% es.tEx (V/m) @ t=0.32
-1.8078611167294234
% es.tEy (V/m) @ t=0.32
0
% es.tEz (V/m) @ t=0.32
-0.460779824126897
% V (V) @ t=0.32
0.010842607467831118
% es.normE (V/m) @ t=0.34
1.889032289906033
% es.EX (V/m) @ t=0.34
-1.8253025972311416
% es.EY (V/m) @ t=0.34
0.14062234604004042
% es.EZ (V/m) @ t=0.34
-0.4652270522422093
% es.tEX (V/m) @ t=0.34
-1.825302597231163
% es.tEY (V/m) @ t=0.34
0
% es.tEZ (V/m) @ t=0.34
-0.4652270522422164
% es.Ex (V/m) @ t=0.34
-1.8253025972311416
% es.Ey (V/m) @ t=0.34
0.14062234604004042
% es.Ez (V/m) @ t=0.34
-0.4652270522422093
% es.tEx (V/m) @ t=0.34
-1.825302597231163
% es.tEy (V/m) @ t=0.34
0
% es.tEz (V/m) @ t=0.34
-0.4652270522422164
% V (V) @ t=0.34
0.010947176318982156
% es.normE (V/m) @ t=0.36
1.9070833187859397
% es.EX (V/m) @ t=0.36
-1.8427440777328545
% es.EY (V/m) @ t=0.36
0.14196791658216268
% es.EZ (V/m) @ t=0.36
-0.46967428035753755
% es.tEX (V/m) @ t=0.36
-1.8427440777328599
% es.tEY (V/m) @ t=0.36
0
% es.tEZ (V/m) @ t=0.36
-0.4696742803575287
% es.Ex (V/m) @ t=0.36
-1.8427440777328545
% es.Ey (V/m) @ t=0.36
0.14196791658216268
% es.Ez (V/m) @ t=0.36
-0.46967428035753755
% es.tEx (V/m) @ t=0.36
-1.8427440777328599
% es.tEy (V/m) @ t=0.36
0
% es.tEz (V/m) @ t=0.36
-0.4696742803575287
% V (V) @ t=0.36
0.011051745170133192
% es.normE (V/m) @ t=0.38
1.9251343476691787
% es.EX (V/m) @ t=0.38
-1.860185558234571
% es.EY (V/m) @ t=0.38
0.1433134871242966
% es.EZ (V/m) @ t=0.38
-0.47412150847284806
% es.tEX (V/m) @ t=0.38
-1.860185558234571
% es.tEY (V/m) @ t=0.38
0
% es.tEZ (V/m) @ t=0.38
-0.47412150847285517
% es.Ex (V/m) @ t=0.38
-1.860185558234571
% es.Ey (V/m) @ t=0.38
0.1433134871242966
% es.Ez (V/m) @ t=0.38
-0.47412150847284806
% es.tEx (V/m) @ t=0.38
-1.860185558234571
% es.tEy (V/m) @ t=0.38
0
% es.tEz (V/m) @ t=0.38
-0.47412150847285517
% V (V) @ t=0.38
0.011156314021284232
% es.normE (V/m) @ t=0.4
1.94318537655565
% es.EX (V/m) @ t=0.4
-1.8776270387362777
% es.EY (V/m) @ t=0.4
0.14465905766640907
% es.EZ (V/m) @ t=0.4
-0.4785687365881772
% es.tEX (V/m) @ t=0.4
-1.8776270387362661
% es.tEY (V/m) @ t=0.4
0
% es.tEZ (V/m) @ t=0.4
-0.47856873658816923
% es.Ex (V/m) @ t=0.4
-1.8776270387362777
% es.Ey (V/m) @ t=0.4
0.14465905766640907
% es.Ez (V/m) @ t=0.4
-0.4785687365881772
% es.tEx (V/m) @ t=0.4
-1.8776270387362661
% es.tEy (V/m) @ t=0.4
0
% es.tEz (V/m) @ t=0.4
-0.47856873658816923
% V (V) @ t=0.4
0.011260882872435268
% es.normE (V/m) @ t=0.42
1.9612364054452978
% es.EX (V/m) @ t=0.42
-1.8950685192380154
% es.EY (V/m) @ t=0.42
0.14600462820852866
% es.EZ (V/m) @ t=0.42
-0.4830159647034886
% es.tEX (V/m) @ t=0.42
-1.8950685192380057
% es.tEY (V/m) @ t=0.42
0
% es.tEZ (V/m) @ t=0.42
-0.4830159647034957
% es.Ex (V/m) @ t=0.42
-1.8950685192380154
% es.Ey (V/m) @ t=0.42
0.14600462820852866
% es.Ez (V/m) @ t=0.42
-0.4830159647034886
% es.tEx (V/m) @ t=0.42
-1.8950685192380057
% es.tEy (V/m) @ t=0.42
0
% es.tEz (V/m) @ t=0.42
-0.4830159647034957
% V (V) @ t=0.42
0.011365451723586304
% es.normE (V/m) @ t=0.44
1.979287434337993
% es.EX (V/m) @ t=0.44
-1.9125099997397266
% es.EY (V/m) @ t=0.44
0.14735019875069966
% es.EZ (V/m) @ t=0.44
-0.4874631928188218
% es.tEX (V/m) @ t=0.44
-1.9125099997397452
% es.tEY (V/m) @ t=0.44
0
% es.tEZ (V/m) @ t=0.44
-0.4874631928188293
% es.Ex (V/m) @ t=0.44
-1.9125099997397266
% es.Ey (V/m) @ t=0.44
0.14735019875069966
% es.Ez (V/m) @ t=0.44
-0.4874631928188218
% es.tEx (V/m) @ t=0.44
-1.9125099997397452
% es.tEy (V/m) @ t=0.44
0
% es.tEz (V/m) @ t=0.44
-0.4874631928188293
% V (V) @ t=0.44
0.011470020574737342
% es.normE (V/m) @ t=0.46
1.9973384632336448
% es.EX (V/m) @ t=0.46
-1.9299514802414182
% es.EY (V/m) @ t=0.46
0.1486957692928248
% es.EZ (V/m) @ t=0.46
-0.4919104209341518
% es.tEX (V/m) @ t=0.46
-1.929951480241428
% es.tEY (V/m) @ t=0.46
0
% es.tEZ (V/m) @ t=0.46
-0.4919104209341487
% es.Ex (V/m) @ t=0.46
-1.9299514802414182
% es.Ey (V/m) @ t=0.46
0.1486957692928248
% es.Ez (V/m) @ t=0.46
-0.4919104209341518
% es.tEx (V/m) @ t=0.46
-1.929951480241428
% es.tEy (V/m) @ t=0.46
0
% es.tEz (V/m) @ t=0.46
-0.4919104209341487
% V (V) @ t=0.46
0.01157458942588838
% es.normE (V/m) @ t=0.48
2.0153894921322397
% es.EX (V/m) @ t=0.48
-1.9473929607431524
% es.EY (V/m) @ t=0.48
0.15004133983496737
% es.EZ (V/m) @ t=0.48
-0.4963576490494783
% es.tEX (V/m) @ t=0.48
-1.9473929607431675
% es.tEY (V/m) @ t=0.48
0
% es.tEZ (V/m) @ t=0.48
-0.49635764904946633
% es.Ex (V/m) @ t=0.48
-1.9473929607431524
% es.Ey (V/m) @ t=0.48
0.15004133983496737
% es.Ez (V/m) @ t=0.48
-0.4963576490494783
% es.tEx (V/m) @ t=0.48
-1.9473929607431675
% es.tEy (V/m) @ t=0.48
0
% es.tEz (V/m) @ t=0.48
-0.49635764904946633
% V (V) @ t=0.48
0.011679158277039418
% es.normE (V/m) @ t=0.5
2.0334405210336506
% es.EX (V/m) @ t=0.5
-1.964834441244883
% es.EY (V/m) @ t=0.5
0.15138691037711272
% es.EZ (V/m) @ t=0.5
-0.5008048771647933
% es.tEX (V/m) @ t=0.5
-1.9648344412448786
% es.tEY (V/m) @ t=0.5
0
% es.tEZ (V/m) @ t=0.5
-0.5008048771647928
% es.Ex (V/m) @ t=0.5
-1.964834441244883
% es.Ey (V/m) @ t=0.5
0.15138691037711272
% es.Ez (V/m) @ t=0.5
-0.5008048771647933
% es.tEx (V/m) @ t=0.5
-1.9648344412448786
% es.tEy (V/m) @ t=0.5
0
% es.tEz (V/m) @ t=0.5
-0.5008048771647928
% V (V) @ t=0.5
0.011783727128190456
% es.normE (V/m) @ t=0.52
2.05149154993778
% es.EX (V/m) @ t=0.52
-1.9822759217465817
% es.EY (V/m) @ t=0.52
0.15273248091921288
% es.EZ (V/m) @ t=0.52
-0.5052521052801215
% es.tEX (V/m) @ t=0.52
-1.9822759217465595
% es.tEY (V/m) @ t=0.52
0
% es.tEZ (V/m) @ t=0.52
-0.5052521052801211
% es.Ex (V/m) @ t=0.52
-1.9822759217465817
% es.Ey (V/m) @ t=0.52
0.15273248091921288
% es.Ez (V/m) @ t=0.52
-0.5052521052801215
% es.tEx (V/m) @ t=0.52
-1.9822759217465595
% es.tEy (V/m) @ t=0.52
0
% es.tEz (V/m) @ t=0.52
-0.5052521052801211
% V (V) @ t=0.52
0.011888295979341492
% es.normE (V/m) @ t=0.54
2.0709226797610523
% es.EX (V/m) @ t=0.54
-2.0010513899537408
% es.EY (V/m) @ t=0.54
0.15417934840769498
% es.EZ (V/m) @ t=0.54
-0.5100379146892586
% es.tEX (V/m) @ t=0.54
-2.0010513899537177
% es.tEY (V/m) @ t=0.54
0
% es.tEZ (V/m) @ t=0.54
-0.5100379146892671
% es.Ex (V/m) @ t=0.54
-2.0010513899537408
% es.Ey (V/m) @ t=0.54
0.15417934840769498
% es.Ez (V/m) @ t=0.54
-0.5100379146892586
% es.tEx (V/m) @ t=0.54
-2.0010513899537177
% es.tEy (V/m) @ t=0.54
0
% es.tEz (V/m) @ t=0.54
-0.5100379146892671
% V (V) @ t=0.54
0.012000893526962568
% es.normE (V/m) @ t=0.56
2.090988708636644
% es.EX (V/m) @ t=0.56
-2.020440543377047
% es.EY (V/m) @ t=0.56
0.15567281635451025
% es.EZ (V/m) @ t=0.56
-0.5149794844053859
% es.tEX (V/m) @ t=0.56
-2.020440543377042
% es.tEY (V/m) @ t=0.56
0
% es.tEZ (V/m) @ t=0.56
-0.5149794844053943
% es.Ex (V/m) @ t=0.56
-2.020440543377047
% es.Ey (V/m) @ t=0.56
0.15567281635451025
% es.Ez (V/m) @ t=0.56
-0.5149794844053859
% es.tEx (V/m) @ t=0.56
-2.020440543377042
% es.tEy (V/m) @ t=0.56
0
% es.tEz (V/m) @ t=0.56
-0.5149794844053943
% V (V) @ t=0.56
0.012117184581134598
% es.normE (V/m) @ t=0.58
2.111054737512422
% es.EX (V/m) @ t=0.58
-2.0398296968003704
% es.EY (V/m) @ t=0.58
0.1571662843012701
% es.EZ (V/m) @ t=0.58
-0.5199210541215056
% es.tEX (V/m) @ t=0.58
-2.0398296968003553
% es.tEY (V/m) @ t=0.58
0
% es.tEZ (V/m) @ t=0.58
-0.5199210541215074
% es.Ex (V/m) @ t=0.58
-2.0398296968003704
% es.Ey (V/m) @ t=0.58
0.1571662843012701
% es.Ez (V/m) @ t=0.58
-0.5199210541215056
% es.tEx (V/m) @ t=0.58
-2.0398296968003553
% es.tEy (V/m) @ t=0.58
0
% es.tEz (V/m) @ t=0.58
-0.5199210541215074
% V (V) @ t=0.58
0.01223347563530663
% es.normE (V/m) @ t=0.6
2.1311207663883875
% es.EX (V/m) @ t=0.6
-2.0592188502237114
% es.EY (V/m) @ t=0.6
0.1586597522480292
% es.EZ (V/m) @ t=0.6
-0.524862623837623
% es.tEX (V/m) @ t=0.6
-2.0592188502236937
% es.tEY (V/m) @ t=0.6
0
% es.tEZ (V/m) @ t=0.6
-0.5248626238376275
% es.Ex (V/m) @ t=0.6
-2.0592188502237114
% es.Ey (V/m) @ t=0.6
0.1586597522480292
% es.Ez (V/m) @ t=0.6
-0.524862623837623
% es.tEx (V/m) @ t=0.6
-2.0592188502236937
% es.tEy (V/m) @ t=0.6
0
% es.tEz (V/m) @ t=0.6
-0.5248626238376275
% V (V) @ t=0.6
0.012349766689478665
% es.normE (V/m) @ t=0.62
2.1511867952645067
% es.EX (V/m) @ t=0.62
-2.0786080036470382
% es.EY (V/m) @ t=0.62
0.16015322019480183
% es.EZ (V/m) @ t=0.62
-0.5298041935537352
% es.tEX (V/m) @ t=0.62
-2.078608003647048
% es.tEY (V/m) @ t=0.62
0
% es.tEZ (V/m) @ t=0.62
-0.5298041935537334
% es.Ex (V/m) @ t=0.62
-2.0786080036470382
% es.Ey (V/m) @ t=0.62
0.16015322019480183
% es.Ez (V/m) @ t=0.62
-0.5298041935537352
% es.tEx (V/m) @ t=0.62
-2.078608003647048
% es.tEy (V/m) @ t=0.62
0
% es.tEz (V/m) @ t=0.62
-0.5298041935537334
% V (V) @ t=0.62
0.012466057743650697
% es.normE (V/m) @ t=0.64
2.171252824140753
% es.EX (V/m) @ t=0.64
-2.097997157070332
% es.EY (V/m) @ t=0.64
0.16164668814156813
% es.EZ (V/m) @ t=0.64
-0.5347457632698425
% es.tEX (V/m) @ t=0.64
-2.097997157070335
% es.tEY (V/m) @ t=0.64
0
% es.tEZ (V/m) @ t=0.64
-0.5347457632698447
% es.Ex (V/m) @ t=0.64
-2.097997157070332
% es.Ey (V/m) @ t=0.64
0.16164668814156813
% es.Ez (V/m) @ t=0.64
-0.5347457632698425
% es.tEx (V/m) @ t=0.64
-2.097997157070335
% es.tEy (V/m) @ t=0.64
0
% es.tEz (V/m) @ t=0.64
-0.5347457632698447
% V (V) @ t=0.64
0.01258234879782273
% es.normE (V/m) @ t=0.66
2.1913188530172123
% es.EX (V/m) @ t=0.66
-2.1173863104936768
% es.EY (V/m) @ t=0.66
0.16314015608833699
% es.EZ (V/m) @ t=0.66
-0.539687332985975
% es.tEX (V/m) @ t=0.66
-2.117386310493675
% es.tEY (V/m) @ t=0.66
0
% es.tEZ (V/m) @ t=0.66
-0.539687332985963
% es.Ex (V/m) @ t=0.66
-2.1173863104936768
% es.Ey (V/m) @ t=0.66
0.16314015608833699
% es.Ez (V/m) @ t=0.66
-0.539687332985975
% es.tEx (V/m) @ t=0.66
-2.117386310493675
% es.tEy (V/m) @ t=0.66
0
% es.tEz (V/m) @ t=0.66
-0.539687332985963
% V (V) @ t=0.66
0.012698639851994762
% es.normE (V/m) @ t=0.68
2.211384881893782
% es.EX (V/m) @ t=0.68
-2.1367754639169805
% es.EY (V/m) @ t=0.68
0.16463362403509962
% es.EZ (V/m) @ t=0.68
-0.5446289027020943
% es.tEX (V/m) @ t=0.68
-2.136775463917001
% es.tEY (V/m) @ t=0.68
0
% es.tEZ (V/m) @ t=0.68
-0.5446289027020779
% es.Ex (V/m) @ t=0.68
-2.1367754639169805
% es.Ey (V/m) @ t=0.68
0.16463362403509962
% es.Ez (V/m) @ t=0.68
-0.5446289027020943
% es.tEx (V/m) @ t=0.68
-2.136775463917001
% es.tEy (V/m) @ t=0.68
0
% es.tEz (V/m) @ t=0.68
-0.5446289027020779
% V (V) @ t=0.68
0.012814930906166795
% es.normE (V/m) @ t=0.7
2.231450910770545
% es.EX (V/m) @ t=0.7
-2.156164617340326
% es.EY (V/m) @ t=0.7
0.16612709198188635
% es.EZ (V/m) @ t=0.7
-0.5495704724182229
% es.tEX (V/m) @ t=0.7
-2.1561646173403552
% es.tEY (V/m) @ t=0.7
0
% es.tEZ (V/m) @ t=0.7
-0.5495704724182247
% es.Ex (V/m) @ t=0.7
-2.156164617340326
% es.Ey (V/m) @ t=0.7
0.16612709198188635
% es.Ez (V/m) @ t=0.7
-0.5495704724182229
% es.tEx (V/m) @ t=0.7
-2.1561646173403552
% es.tEy (V/m) @ t=0.7
0
% es.tEz (V/m) @ t=0.7
-0.5495704724182247
% V (V) @ t=0.7
0.012931221960338829
% es.normE (V/m) @ t=0.72
2.2515169396474164
% es.EX (V/m) @ t=0.72
-2.1755537707636385
% es.EY (V/m) @ t=0.72
0.16762055992864455
% es.EZ (V/m) @ t=0.72
-0.5545120421343386
% es.tEX (V/m) @ t=0.72
-2.175553770763649
% es.tEY (V/m) @ t=0.72
0
% es.tEZ (V/m) @ t=0.72
-0.554512042134327
% es.Ex (V/m) @ t=0.72
-2.1755537707636385
% es.Ey (V/m) @ t=0.72
0.16762055992864455
% es.Ez (V/m) @ t=0.72
-0.5545120421343386
% es.tEx (V/m) @ t=0.72
-2.175553770763649
% es.tEy (V/m) @ t=0.72
0
% es.tEz (V/m) @ t=0.72
-0.554512042134327
% V (V) @ t=0.72
0.013047513014510861
% es.normE (V/m) @ t=0.74
2.2715829685244695
% es.EX (V/m) @ t=0.74
-2.1949429241869938
% es.EY (V/m) @ t=0.74
0.16911402787543928
% es.EZ (V/m) @ t=0.74
-0.5594536118504418
% es.tEX (V/m) @ t=0.74
-2.1949429241869893
% es.tEY (V/m) @ t=0.74
0
% es.tEZ (V/m) @ t=0.74
-0.5594536118504543
% es.Ex (V/m) @ t=0.74
-2.1949429241869938
% es.Ey (V/m) @ t=0.74
0.16911402787543928
% es.Ez (V/m) @ t=0.74
-0.5594536118504418
% es.tEx (V/m) @ t=0.74
-2.1949429241869893
% es.tEy (V/m) @ t=0.74
0
% es.tEz (V/m) @ t=0.74
-0.5594536118504543
% V (V) @ t=0.74
0.013163804068682894
% es.normE (V/m) @ t=0.76
2.2916489974016394
% es.EX (V/m) @ t=0.76
-2.2143320776103224
% es.EY (V/m) @ t=0.76
0.17060749582220913
% es.EZ (V/m) @ t=0.76
-0.5643951815665722
% es.tEX (V/m) @ t=0.76
-2.2143320776103153
% es.tEY (V/m) @ t=0.76
0
% es.tEZ (V/m) @ t=0.76
-0.5643951815665709
% es.Ex (V/m) @ t=0.76
-2.2143320776103224
% es.Ey (V/m) @ t=0.76
0.17060749582220913
% es.Ez (V/m) @ t=0.76
-0.5643951815665722
% es.tEx (V/m) @ t=0.76
-2.2143320776103153
% es.tEy (V/m) @ t=0.76
0
% es.tEz (V/m) @ t=0.76
-0.5643951815665709
% V (V) @ t=0.76
0.013280095122854928
% es.normE (V/m) @ t=0.78
2.3117150262789243
% es.EX (V/m) @ t=0.78
-2.2337212310336323
% es.EY (V/m) @ t=0.78
0.17210096376898243
% es.EZ (V/m) @ t=0.78
-0.5693367512826994
% es.tEX (V/m) @ t=0.78
-2.2337212310336163
% es.tEY (V/m) @ t=0.78
0
% es.tEZ (V/m) @ t=0.78
-0.5693367512826981
% es.Ex (V/m) @ t=0.78
-2.2337212310336323
% es.Ey (V/m) @ t=0.78
0.17210096376898243
% es.Ez (V/m) @ t=0.78
-0.5693367512826994
% es.tEx (V/m) @ t=0.78
-2.2337212310336163
% es.tEy (V/m) @ t=0.78
0
% es.tEz (V/m) @ t=0.78
-0.5693367512826981
% V (V) @ t=0.78
0.013396386177026962
% es.normE (V/m) @ t=0.8
2.3329941900345714
% es.EX (V/m) @ t=0.8
-2.254283560512653
% es.EY (V/m) @ t=0.8
0.17368161964233997
% es.EZ (V/m) @ t=0.8
-0.5745742563992335
% es.tEX (V/m) @ t=0.8
-2.2542835605126683
% es.tEY (V/m) @ t=0.8
0
% es.tEZ (V/m) @ t=0.8
-0.5745742563992238
% es.Ex (V/m) @ t=0.8
-2.254283560512653
% es.Ey (V/m) @ t=0.8
0.17368161964233997
% es.Ez (V/m) @ t=0.8
-0.5745742563992335
% es.tEx (V/m) @ t=0.8
-2.2542835605126683
% es.tEy (V/m) @ t=0.8
0
% es.tEz (V/m) @ t=0.8
-0.5745742563992238
% V (V) @ t=0.8
0.01351977432548233
% es.normE (V/m) @ t=0.82
2.355339745973982
% es.EX (V/m) @ t=0.82
-2.2758771568107328
% es.EY (V/m) @ t=0.82
0.17533891705235616
% es.EZ (V/m) @ t=0.82
-0.5800719001007142
% es.tEX (V/m) @ t=0.82
-2.2758771568107434
% es.tEY (V/m) @ t=0.82
0
% es.tEZ (V/m) @ t=0.82
-0.5800719001007089
% es.Ex (V/m) @ t=0.82
-2.2758771568107328
% es.Ey (V/m) @ t=0.82
0.17533891705235616
% es.Ez (V/m) @ t=0.82
-0.5800719001007142
% es.tEx (V/m) @ t=0.82
-2.2758771568107434
% es.tEy (V/m) @ t=0.82
0
% es.tEz (V/m) @ t=0.82
-0.5800719001007089
% V (V) @ t=0.82
0.013649401092438507
% es.normE (V/m) @ t=0.84
2.377685301944851
% es.EX (V/m) @ t=0.84
-2.2974707531087777
% es.EY (V/m) @ t=0.84
0.17699621446237745
% es.EZ (V/m) @ t=0.84
-0.5855695438021993
% es.tEX (V/m) @ t=0.84
-2.297470753108776
% es.tEY (V/m) @ t=0.84
0
% es.tEZ (V/m) @ t=0.84
-0.5855695438022046
% es.Ex (V/m) @ t=0.84
-2.2974707531087777
% es.Ey (V/m) @ t=0.84
0.17699621446237745
% es.Ez (V/m) @ t=0.84
-0.5855695438021993
% es.tEx (V/m) @ t=0.84
-2.297470753108776
% es.tEy (V/m) @ t=0.84
0
% es.tEz (V/m) @ t=0.84
-0.5855695438022046
% V (V) @ t=0.84
0.013779027859394681
% es.normE (V/m) @ t=0.86
2.4000308579463496
% es.EX (V/m) @ t=0.86
-2.319064349406843
% es.EY (V/m) @ t=0.86
0.17865351187240242
% es.EZ (V/m) @ t=0.86
-0.5910671875036768
% es.tEX (V/m) @ t=0.86
-2.319064349406812
% es.tEY (V/m) @ t=0.86
0
% es.tEZ (V/m) @ t=0.86
-0.5910671875036719
% es.Ex (V/m) @ t=0.86
-2.319064349406843
% es.Ey (V/m) @ t=0.86
0.17865351187240242
% es.Ez (V/m) @ t=0.86
-0.5910671875036768
% es.tEx (V/m) @ t=0.86
-2.319064349406812
% es.tEy (V/m) @ t=0.86
0
% es.tEz (V/m) @ t=0.86
-0.5910671875036719
% V (V) @ t=0.86
0.013908654626350861
% es.normE (V/m) @ t=0.88
2.4223764139776036
% es.EX (V/m) @ t=0.88
-2.3406579457048995
% es.EY (V/m) @ t=0.88
0.18031080928243093
% es.EZ (V/m) @ t=0.88
-0.5965648312051504
% es.tEX (V/m) @ t=0.88
-2.3406579457048977
% es.tEY (V/m) @ t=0.88
0
% es.tEZ (V/m) @ t=0.88
-0.596564831205157
% es.Ex (V/m) @ t=0.88
-2.3406579457048995
% es.Ey (V/m) @ t=0.88
0.18031080928243093
% es.Ez (V/m) @ t=0.88
-0.5965648312051504
% es.tEx (V/m) @ t=0.88
-2.3406579457048977
% es.tEy (V/m) @ t=0.88
0
% es.tEz (V/m) @ t=0.88
-0.596564831205157
% V (V) @ t=0.88
0.014038281393307038
% es.normE (V/m) @ t=0.9
2.4447219700377945
% es.EX (V/m) @ t=0.9
-2.3622515420029453
% es.EY (V/m) @ t=0.9
0.18196810669247188
% es.EZ (V/m) @ t=0.9
-0.6020624749066203
% es.tEX (V/m) @ t=0.9
-2.362251542002948
% es.tEY (V/m) @ t=0.9
0
% es.tEZ (V/m) @ t=0.9
-0.6020624749066315
% es.Ex (V/m) @ t=0.9
-2.3622515420029453
% es.Ey (V/m) @ t=0.9
0.18196810669247188
% es.Ez (V/m) @ t=0.9
-0.6020624749066203
% es.tEx (V/m) @ t=0.9
-2.362251542002948
% es.tEy (V/m) @ t=0.9
0
% es.tEz (V/m) @ t=0.9
-0.6020624749066315
% V (V) @ t=0.9
0.014167908160263216
% es.normE (V/m) @ t=0.92
2.467067526126173
% es.EX (V/m) @ t=0.92
-2.3838451383010124
% es.EY (V/m) @ t=0.92
0.18362540410249506
% es.EZ (V/m) @ t=0.92
-0.6075601186081174
% es.tEX (V/m) @ t=0.92
-2.3838451383010124
% es.tEY (V/m) @ t=0.92
0
% es.tEZ (V/m) @ t=0.92
-0.6075601186081201
% es.Ex (V/m) @ t=0.92
-2.3838451383010124
% es.Ey (V/m) @ t=0.92
0.18362540410249506
% es.Ez (V/m) @ t=0.92
-0.6075601186081174
% es.tEx (V/m) @ t=0.92
-2.3838451383010124
% es.tEy (V/m) @ t=0.92
0
% es.tEz (V/m) @ t=0.92
-0.6075601186081201
% V (V) @ t=0.92
0.014297534927219392
% es.normE (V/m) @ t=0.94
2.4894130822419194
% es.EX (V/m) @ t=0.94
-2.4054387345990467
% es.EY (V/m) @ t=0.94
0.18528270151254134
% es.EZ (V/m) @ t=0.94
-0.613057762309595
% es.tEX (V/m) @ t=0.94
-2.405438734599059
% es.tEY (V/m) @ t=0.94
0
% es.tEZ (V/m) @ t=0.94
-0.6130577623095945
% es.Ex (V/m) @ t=0.94
-2.4054387345990467
% es.Ey (V/m) @ t=0.94
0.18528270151254134
% es.Ez (V/m) @ t=0.94
-0.613057762309595
% es.tEx (V/m) @ t=0.94
-2.405438734599059
% es.tEy (V/m) @ t=0.94
0
% es.tEz (V/m) @ t=0.94
-0.6130577623095945
% V (V) @ t=0.94
0.014427161694175572
% es.normE (V/m) @ t=0.96
2.511758638384375
% es.EX (V/m) @ t=0.96
-2.42703233089712
% es.EY (V/m) @ t=0.96
0.18693999892256086
% es.EZ (V/m) @ t=0.96
-0.6185554060110814
% es.tEX (V/m) @ t=0.96
-2.42703233089712
% es.tEY (V/m) @ t=0.96
0
% es.tEZ (V/m) @ t=0.96
-0.6185554060110796
% es.Ex (V/m) @ t=0.96
-2.42703233089712
% es.Ey (V/m) @ t=0.96
0.18693999892256086
% es.Ez (V/m) @ t=0.96
-0.6185554060110814
% es.tEx (V/m) @ t=0.96
-2.42703233089712
% es.tEy (V/m) @ t=0.96
0
% es.tEz (V/m) @ t=0.96
-0.6185554060110796
% V (V) @ t=0.96
0.014556788461131752
% es.normE (V/m) @ t=0.98
2.5341041945527625
% es.EX (V/m) @ t=0.98
-2.448625927195156
% es.EY (V/m) @ t=0.98
0.18859729633260547
% es.EZ (V/m) @ t=0.98
-0.6240530497125656
% es.tEX (V/m) @ t=0.98
-2.4486259271951525
% es.tEY (V/m) @ t=0.98
0
% es.tEZ (V/m) @ t=0.98
-0.6240530497125647
% es.Ex (V/m) @ t=0.98
-2.448625927195156
% es.Ey (V/m) @ t=0.98
0.18859729633260547
% es.Ez (V/m) @ t=0.98
-0.6240530497125656
% es.tEx (V/m) @ t=0.98
-2.4486259271951525
% es.tEy (V/m) @ t=0.98
0
% es.tEz (V/m) @ t=0.98
-0.6240530497125647
% V (V) @ t=0.98
0.014686415228087927
% es.normE (V/m) @ t=1
2.556449750746429
% es.EX (V/m) @ t=1
-2.470219523493192
% es.EY (V/m) @ t=1
0.19025459374259823
% es.EZ (V/m) @ t=1
-0.6295506934140418
% es.tEX (V/m) @ t=1
-2.4702195234932276
% es.tEY (V/m) @ t=1
0
% es.tEZ (V/m) @ t=1
-0.6295506934140462
% es.Ex (V/m) @ t=1
-2.470219523493192
% es.Ey (V/m) @ t=1
0.19025459374259823
% es.Ez (V/m) @ t=1
-0.6295506934140418
% es.tEx (V/m) @ t=1
-2.4702195234932276
% es.tEy (V/m) @ t=1
0
% es.tEz (V/m) @ t=1
-0.6295506934140462
% V (V) @ t=1
0.014816041995044103
% es.normE (V/m) @ t=1.02
2.578795306964765
% es.EX (V/m) @ t=1.02
-2.49181311979126
% es.EY (V/m) @ t=1.02
0.1919118911526695
% es.EZ (V/m) @ t=1.02
-0.6350483371155384
% es.tEX (V/m) @ t=1.02
-2.4918131197912636
% es.tEY (V/m) @ t=1.02
0
% es.tEZ (V/m) @ t=1.02
-0.6350483371155278
% es.Ex (V/m) @ t=1.02
-2.49181311979126
% es.Ey (V/m) @ t=1.02
0.1919118911526695
% es.Ez (V/m) @ t=1.02
-0.6350483371155384
% es.tEx (V/m) @ t=1.02
-2.4918131197912636
% es.tEy (V/m) @ t=1.02
0
% es.tEz (V/m) @ t=1.02
-0.6350483371155278
% V (V) @ t=1.02