% Model:              1 neuron.mph
% Version:            COMSOL 6.1.0.252
% Date:               Mar 22 2023, 17:56
% Dimension:          0
% Nodes:              14017
% Expressions:        14017
% Description:        Electric field norm, Electric field, X component, Electric field, Y component, Electric field, Z component, Tangential electric field, X component, Tangential electric field, Y component, Tangential electric field, Z component, Electric field, x component, Electric field, y component, Electric field, z component, Tangential electric field, x component, Tangential electric field, y component, Tangential electric field, z component, Electric potential
% Length unit:        mm
% x
1.66
% y
12.2
% z
1.33
% es.normE (V/m) @ t=0
13.889704046421237
% es.EX (V/m) @ t=0
-7.717682141920781
% es.EY (V/m) @ t=0
-0.8330563445770531
% es.EZ (V/m) @ t=0
10.333923910778957
% es.tEX (V/m) @ t=0
-7.7176821419208
% es.tEY (V/m) @ t=0
0
% es.tEZ (V/m) @ t=0
10.333923910778935
% es.Ex (V/m) @ t=0
-7.717682141920781
% es.Ey (V/m) @ t=0
-0.8330563445770531
% es.Ez (V/m) @ t=0
10.333923910778957
% es.tEx (V/m) @ t=0
-7.7176821419208
% es.tEy (V/m) @ t=0
0
% es.tEz (V/m) @ t=0
10.333923910778935
% V (V) @ t=0
0.011407127263602018
% es.normE (V/m) @ t=0.02
11.996680505334092
% es.EX (V/m) @ t=0.02
-6.665841610257717
% es.EY (V/m) @ t=0.02
-0.719519329724533
% es.EZ (V/m) @ t=0.02
8.925516557760773
% es.tEX (V/m) @ t=0.02
-6.665841610257734
% es.tEY (V/m) @ t=0.02
0
% es.tEZ (V/m) @ t=0.02
8.92551655776076
% es.Ex (V/m) @ t=0.02
-6.665841610257717
% es.Ey (V/m) @ t=0.02
-0.719519329724533
% es.Ez (V/m) @ t=0.02
8.925516557760773
% es.tEx (V/m) @ t=0.02
-6.665841610257734
% es.tEy (V/m) @ t=0.02
0
% es.tEz (V/m) @ t=0.02
8.92551655776076
% V (V) @ t=0.02
0.009852453313028997
% es.normE (V/m) @ t=0.04
12.107043552246605
% es.EX (V/m) @ t=0.04
-6.727163820647982
% es.EY (V/m) @ t=0.04
-0.7261384944471403
% es.EZ (V/m) @ t=0.04
9.00762652999834
% es.tEX (V/m) @ t=0.04
-6.727163820647988
% es.tEY (V/m) @ t=0.04
0
% es.tEZ (V/m) @ t=0.04
9.007626529998332
% es.Ex (V/m) @ t=0.04
-6.727163820647982
% es.Ey (V/m) @ t=0.04
-0.7261384944471403
% es.Ez (V/m) @ t=0.04
9.00762652999834
% es.tEx (V/m) @ t=0.04
-6.727163820647988
% es.tEy (V/m) @ t=0.04
0
% es.tEz (V/m) @ t=0.04
9.007626529998332
% V (V) @ t=0.04
0.00994309054948197
% es.normE (V/m) @ t=0.06
12.21819781013609
% es.EX (V/m) @ t=0.06
-6.788925569876044
% es.EY (V/m) @ t=0.06
-0.7328051957282269
% es.EZ (V/m) @ t=0.06
9.090325185589284
% es.tEX (V/m) @ t=0.06
-6.788925569876056
% es.tEY (V/m) @ t=0.06
0
% es.tEZ (V/m) @ t=0.06
9.090325185589279
% es.Ex (V/m) @ t=0.06
-6.788925569876044
% es.Ey (V/m) @ t=0.06
-0.7328051957282269
% es.Ez (V/m) @ t=0.06
9.090325185589284
% es.tEx (V/m) @ t=0.06
-6.788925569876056
% es.tEy (V/m) @ t=0.06
0
% es.tEz (V/m) @ t=0.06
9.090325185589279
% V (V) @ t=0.06
0.010034377772462359
% es.normE (V/m) @ t=0.08
12.331511872548443
% es.EX (V/m) @ t=0.08
-6.8518874449184
% es.EY (V/m) @ t=0.08
-0.7396013875928684
% es.EZ (V/m) @ t=0.08
9.174630720354456
% es.tEX (V/m) @ t=0.08
-6.851887444918416
% es.tEY (V/m) @ t=0.08
0
% es.tEZ (V/m) @ t=0.08
9.17463072035445
% es.Ex (V/m) @ t=0.08
-6.8518874449184
% es.Ey (V/m) @ t=0.08
-0.7396013875928684
% es.Ez (V/m) @ t=0.08
9.174630720354456
% es.tEx (V/m) @ t=0.08
-6.851887444918416
% es.tEy (V/m) @ t=0.08
0
% es.tEz (V/m) @ t=0.08
9.17463072035445
% V (V) @ t=0.08
0.010127438657681736
% es.normE (V/m) @ t=0.1
12.445360912945436
% es.EX (V/m) @ t=0.1
-6.915146588015675
% es.EY (V/m) @ t=0.1
-0.7464296539394999
% es.EZ (V/m) @ t=0.1
9.259334274927937
% es.tEX (V/m) @ t=0.1
-6.915146588015684
% es.tEY (V/m) @ t=0.1
0
% es.tEZ (V/m) @ t=0.1
9.259334274927927
% es.Ex (V/m) @ t=0.1
-6.915146588015675
% es.Ey (V/m) @ t=0.1
-0.7464296539394999
% es.Ez (V/m) @ t=0.1
9.259334274927937
% es.tEx (V/m) @ t=0.1
-6.915146588015684
% es.tEy (V/m) @ t=0.1
0
% es.tEz (V/m) @ t=0.1
9.259334274927927
% V (V) @ t=0.1
0.010220938874442516
% es.normE (V/m) @ t=0.12
12.55920995334246
% es.EX (V/m) @ t=0.12
-6.978405731112945
% es.EY (V/m) @ t=0.12
-0.7532579202861953
% es.EZ (V/m) @ t=0.12
9.344037829501426
% es.tEX (V/m) @ t=0.12
-6.978405731112954
% es.tEY (V/m) @ t=0.12
0
% es.tEZ (V/m) @ t=0.12
9.344037829501413
% es.Ex (V/m) @ t=0.12
-6.978405731112945
% es.Ey (V/m) @ t=0.12
-0.7532579202861953
% es.Ez (V/m) @ t=0.12
9.344037829501426
% es.tEx (V/m) @ t=0.12
-6.978405731112954
% es.tEy (V/m) @ t=0.12
0
% es.tEz (V/m) @ t=0.12
9.344037829501413
% V (V) @ t=0.12
0.010314439091203295
% es.normE (V/m) @ t=0.14
12.676519980993735
% es.EX (V/m) @ t=0.14
-7.04358794087076
% es.EY (V/m) @ t=0.14
-0.7602937624556836
% es.EZ (V/m) @ t=0.14
9.431316354331413
% es.tEX (V/m) @ t=0.14
-7.043587940870765
% es.tEY (V/m) @ t=0.14
0
% es.tEZ (V/m) @ t=0.14
9.431316354331397
% es.Ex (V/m) @ t=0.14
-7.04358794087076
% es.Ey (V/m) @ t=0.14
-0.7602937624556836
% es.Ez (V/m) @ t=0.14
9.431316354331413
% es.tEx (V/m) @ t=0.14
-7.043587940870765
% es.tEy (V/m) @ t=0.14
0
% es.tEz (V/m) @ t=0.14
9.431316354331397
% V (V) @ t=0.14
0.010410781690813052
% es.normE (V/m) @ t=0.16
12.796050336504248
% es.EX (V/m) @ t=0.16
-7.110003855975599
% es.EY (V/m) @ t=0.16
-0.7674627707852211
% es.EZ (V/m) @ t=0.16
9.520246800355293
% es.tEX (V/m) @ t=0.16
-7.110003855975611
% es.tEY (V/m) @ t=0.16
0
% es.tEZ (V/m) @ t=0.16
9.520246800355288
% es.Ex (V/m) @ t=0.16
-7.110003855975599
% es.Ey (V/m) @ t=0.16
-0.7674627707852211
% es.Ez (V/m) @ t=0.16
9.520246800355293
% es.tEx (V/m) @ t=0.16
-7.110003855975611
% es.tEy (V/m) @ t=0.16
0
% es.tEz (V/m) @ t=0.16
9.520246800355288
% V (V) @ t=0.16
0.010508947764871733
% es.normE (V/m) @ t=0.18
12.915580692014764
% es.EX (V/m) @ t=0.18
-7.176419771080425
% es.EY (V/m) @ t=0.18
-0.7746317791147268
% es.EZ (V/m) @ t=0.18
9.609177246379193
% es.tEX (V/m) @ t=0.18
-7.176419771080445
% es.tEY (V/m) @ t=0.18
0
% es.tEZ (V/m) @ t=0.18
9.609177246379177
% es.Ex (V/m) @ t=0.18
-7.176419771080425
% es.Ey (V/m) @ t=0.18
-0.7746317791147268
% es.Ez (V/m) @ t=0.18
9.609177246379193
% es.tEx (V/m) @ t=0.18
-7.176419771080445
% es.tEy (V/m) @ t=0.18
0
% es.tEz (V/m) @ t=0.18
9.609177246379177
% V (V) @ t=0.18
0.010607113838930414
% es.normE (V/m) @ t=0.2
13.035111047525263
% es.EX (V/m) @ t=0.2
-7.242835686185295
% es.EY (V/m) @ t=0.2
-0.7818007874441899
% es.EZ (V/m) @ t=0.2
9.698107692403045
% es.tEX (V/m) @ t=0.2
-7.242835686185293
% es.tEY (V/m) @ t=0.2
0
% es.tEZ (V/m) @ t=0.2
9.698107692403031
% es.Ex (V/m) @ t=0.2
-7.242835686185295
% es.Ey (V/m) @ t=0.2
-0.7818007874441899
% es.Ez (V/m) @ t=0.2
9.698107692403045
% es.tEx (V/m) @ t=0.2
-7.242835686185293
% es.tEy (V/m) @ t=0.2
0
% es.tEz (V/m) @ t=0.2
9.698107692403031
% V (V) @ t=0.2
0.010705279912989096
% es.normE (V/m) @ t=0.22
13.15464140303578
% es.EX (V/m) @ t=0.22
-7.309251601290121
% es.EY (V/m) @ t=0.22
-0.7889697957737525
% es.EZ (V/m) @ t=0.22
9.787038138426936
% es.tEX (V/m) @ t=0.22
-7.309251601290134
% es.tEY (V/m) @ t=0.22
0
% es.tEZ (V/m) @ t=0.22
9.787038138426922
% es.Ex (V/m) @ t=0.22
-7.309251601290121
% es.Ey (V/m) @ t=0.22
-0.7889697957737525
% es.Ez (V/m) @ t=0.22
9.787038138426936
% es.tEx (V/m) @ t=0.22
-7.309251601290134
% es.tEy (V/m) @ t=0.22
0
% es.tEz (V/m) @ t=0.22
9.787038138426922
% V (V) @ t=0.22
0.010803445987047779
% es.normE (V/m) @ t=0.24
13.274171758546316
% es.EX (V/m) @ t=0.24
-7.3756675163949605
% es.EY (V/m) @ t=0.24
-0.7961388041032587
% es.EZ (V/m) @ t=0.24
9.875968584450844
% es.tEX (V/m) @ t=0.24
-7.375667516394968
% es.tEY (V/m) @ t=0.24
0
% es.tEZ (V/m) @ t=0.24
9.875968584450828
% es.Ex (V/m) @ t=0.24
-7.3756675163949605
% es.Ey (V/m) @ t=0.24
-0.7961388041032587
% es.Ez (V/m) @ t=0.24
9.875968584450844
% es.tEx (V/m) @ t=0.24
-7.375667516394968
% es.tEy (V/m) @ t=0.24
0
% es.tEz (V/m) @ t=0.24
9.875968584450828
% V (V) @ t=0.24
0.01090161206110646
% es.normE (V/m) @ t=0.26
13.396550890182024
% es.EX (V/m) @ t=0.26
-7.443666314028652
% es.EY (V/m) @ t=0.26
-0.8034786839925236
% es.EZ (V/m) @ t=0.26
9.967018519917222
% es.tEX (V/m) @ t=0.26
-7.443666314028672
% es.tEY (V/m) @ t=0.26
0
% es.tEZ (V/m) @ t=0.26
9.967018519917202
% es.Ex (V/m) @ t=0.26
-7.443666314028652
% es.Ey (V/m) @ t=0.26
-0.8034786839925236
% es.Ez (V/m) @ t=0.26
9.967018519917222
% es.tEx (V/m) @ t=0.26
-7.443666314028672
% es.tEy (V/m) @ t=0.26
0
% es.tEz (V/m) @ t=0.26
9.967018519917202
% V (V) @ t=0.26
0.011002117762967946
% es.normE (V/m) @ t=0.28
13.528764438665817
% es.EX (V/m) @ t=0.28
-7.517129467556309
% es.EY (V/m) @ t=0.28
-0.8114084389973693
% es.EZ (V/m) @ t=0.28
10.065385261537006
% es.tEX (V/m) @ t=0.28
-7.5171294675563285
% es.tEY (V/m) @ t=0.28
0
% es.tEZ (V/m) @ t=0.28
10.065385261536996
% es.Ex (V/m) @ t=0.28
-7.517129467556309
% es.Ey (V/m) @ t=0.28
-0.8114084389973693
% es.Ez (V/m) @ t=0.28
10.065385261537006
% es.tEx (V/m) @ t=0.28
-7.5171294675563285
% es.tEy (V/m) @ t=0.28
0
% es.tEz (V/m) @ t=0.28
10.065385261536996
% V (V) @ t=0.28
0.011110700222732067
% es.normE (V/m) @ t=0.3
13.660977987149595
% es.EX (V/m) @ t=0.3
-7.590592621083923
% es.EY (V/m) @ t=0.3
-0.8193381940022433
% es.EZ (V/m) @ t=0.3
10.163752003156805
% es.tEX (V/m) @ t=0.3
-7.590592621083935
% es.tEY (V/m) @ t=0.3
0
% es.tEZ (V/m) @ t=0.3
10.163752003156798
% es.Ex (V/m) @ t=0.3
-7.590592621083923
% es.Ey (V/m) @ t=0.3
-0.8193381940022433
% es.Ez (V/m) @ t=0.3
10.163752003156805
% es.tEx (V/m) @ t=0.3
-7.590592621083935
% es.tEy (V/m) @ t=0.3
0
% es.tEz (V/m) @ t=0.3
10.163752003156798
% V (V) @ t=0.3
0.011219282682496189
% es.normE (V/m) @ t=0.32
13.793191535633351
% es.EX (V/m) @ t=0.32
-7.664055774611549
% es.EY (V/m) @ t=0.32
-0.8272679490070534
% es.EZ (V/m) @ t=0.32
10.262118744776592
% es.tEX (V/m) @ t=0.32
-7.6640557746115565
% es.tEY (V/m) @ t=0.32
0
% es.tEZ (V/m) @ t=0.32
10.26211874477658
% es.Ex (V/m) @ t=0.32
-7.664055774611549
% es.Ey (V/m) @ t=0.32
-0.8272679490070534
% es.Ez (V/m) @ t=0.32
10.262118744776592
% es.tEx (V/m) @ t=0.32
-7.6640557746115565
% es.tEy (V/m) @ t=0.32
0
% es.tEz (V/m) @ t=0.32
10.26211874477658
% V (V) @ t=0.32
0.011327865142260309
% es.normE (V/m) @ t=0.34
13.925405084117148
% es.EX (V/m) @ t=0.34
-7.737518928139178
% es.EY (V/m) @ t=0.34
-0.8351977040119452
% es.EZ (V/m) @ t=0.34
10.360485486396422
% es.tEX (V/m) @ t=0.34
-7.737518928139185
% es.tEY (V/m) @ t=0.34
0
% es.tEZ (V/m) @ t=0.34
10.36048548639641
% es.Ex (V/m) @ t=0.34
-7.737518928139178
% es.Ey (V/m) @ t=0.34
-0.8351977040119452
% es.Ez (V/m) @ t=0.34
10.360485486396422
% es.tEx (V/m) @ t=0.34
-7.737518928139185
% es.tEy (V/m) @ t=0.34
0
% es.tEz (V/m) @ t=0.34
10.36048548639641
% V (V) @ t=0.34
0.011436447602024431
% es.normE (V/m) @ t=0.36
14.05761863260091
% es.EX (V/m) @ t=0.36
-7.81098208166682
% es.EY (V/m) @ t=0.36
-0.8431274590167623
% es.EZ (V/m) @ t=0.36
10.45885222801619
% es.tEX (V/m) @ t=0.36
-7.810982081666818
% es.tEY (V/m) @ t=0.36
0
% es.tEZ (V/m) @ t=0.36
10.458852228016177
% es.Ex (V/m) @ t=0.36
-7.81098208166682
% es.Ey (V/m) @ t=0.36
-0.8431274590167623
% es.Ez (V/m) @ t=0.36
10.45885222801619
% es.tEx (V/m) @ t=0.36
-7.810982081666818
% es.tEy (V/m) @ t=0.36
0
% es.tEz (V/m) @ t=0.36
10.458852228016177
% V (V) @ t=0.36
0.011545030061788551
% es.normE (V/m) @ t=0.38
14.189832181084714
% es.EX (V/m) @ t=0.38
-7.884445235194484
% es.EY (V/m) @ t=0.38
-0.8510572140216257
% es.EZ (V/m) @ t=0.38
10.557218969635981
% es.tEX (V/m) @ t=0.38
-7.884445235194496
% es.tEY (V/m) @ t=0.38
0
% es.tEZ (V/m) @ t=0.38
10.557218969635963
% es.Ex (V/m) @ t=0.38
-7.884445235194484
% es.Ey (V/m) @ t=0.38
-0.8510572140216257
% es.Ez (V/m) @ t=0.38
10.557218969635981
% es.tEx (V/m) @ t=0.38
-7.884445235194496
% es.tEy (V/m) @ t=0.38
0
% es.tEz (V/m) @ t=0.38
10.557218969635963
% V (V) @ t=0.38
0.011653612521552673
% es.normE (V/m) @ t=0.4
14.32204572956848
% es.EX (V/m) @ t=0.4
-7.957908388722098
% es.EY (V/m) @ t=0.4
-0.8589869690264886
% es.EZ (V/m) @ t=0.4
10.655585711255775
% es.tEX (V/m) @ t=0.4
-7.957908388722096
% es.tEY (V/m) @ t=0.4
0
% es.tEZ (V/m) @ t=0.4
10.655585711255766
% es.Ex (V/m) @ t=0.4
-7.957908388722098
% es.Ey (V/m) @ t=0.4
-0.8589869690264886
% es.Ez (V/m) @ t=0.4
10.655585711255775
% es.tEx (V/m) @ t=0.4
-7.957908388722096
% es.tEy (V/m) @ t=0.4
0
% es.tEz (V/m) @ t=0.4
10.655585711255766
% V (V) @ t=0.4
0.011762194981316794
% es.normE (V/m) @ t=0.42
14.454259278052284
% es.EX (V/m) @ t=0.42
-8.031371542249753
% es.EY (V/m) @ t=0.42
-0.8669167240313485
% es.EZ (V/m) @ t=0.42
10.75395245287558
% es.tEX (V/m) @ t=0.42
-8.031371542249751
% es.tEY (V/m) @ t=0.42
0
% es.tEZ (V/m) @ t=0.42
10.753952452875568
% es.Ex (V/m) @ t=0.42
-8.031371542249753
% es.Ey (V/m) @ t=0.42
-0.8669167240313485
% es.Ez (V/m) @ t=0.42
10.75395245287558
% es.tEx (V/m) @ t=0.42
-8.031371542249751
% es.tEy (V/m) @ t=0.42
0
% es.tEz (V/m) @ t=0.42
10.753952452875568
% V (V) @ t=0.42
0.011870777441080916
% es.normE (V/m) @ t=0.44
14.586472826536076
% es.EX (V/m) @ t=0.44
-8.104834695777374
% es.EY (V/m) @ t=0.44
-0.8748464790362012
% es.EZ (V/m) @ t=0.44
10.852319194495399
% es.tEX (V/m) @ t=0.44
-8.104834695777372
% es.tEY (V/m) @ t=0.44
0
% es.tEZ (V/m) @ t=0.44
10.852319194495381
% es.Ex (V/m) @ t=0.44
-8.104834695777374
% es.Ey (V/m) @ t=0.44
-0.8748464790362012
% es.Ez (V/m) @ t=0.44
10.852319194495399
% es.tEx (V/m) @ t=0.44
-8.104834695777372
% es.tEy (V/m) @ t=0.44
0
% es.tEz (V/m) @ t=0.44
10.852319194495381
% V (V) @ t=0.44
0.011979359900845038
% es.normE (V/m) @ t=0.46
14.718686375019837
% es.EX (V/m) @ t=0.46
-8.178297849305002
% es.EY (V/m) @ t=0.46
-0.8827762340410645
% es.EZ (V/m) @ t=0.46
10.950685936115176
% es.tEX (V/m) @ t=0.46
-8.178297849305022
% es.tEY (V/m) @ t=0.46
0
% es.tEZ (V/m) @ t=0.46
10.95068593611516
% es.Ex (V/m) @ t=0.46
-8.178297849305002
% es.Ey (V/m) @ t=0.46
-0.8827762340410645
% es.Ez (V/m) @ t=0.46
10.950685936115176
% es.tEx (V/m) @ t=0.46
-8.178297849305022
% es.tEy (V/m) @ t=0.46
0
% es.tEz (V/m) @ t=0.46
10.95068593611516
% V (V) @ t=0.46
0.012087942360609158
% es.normE (V/m) @ t=0.48
14.850899923503604
% es.EX (V/m) @ t=0.48
-8.25176100283263
% es.EY (V/m) @ t=0.48
-0.8907059890458924
% es.EZ (V/m) @ t=0.48
11.049052677734965
% es.tEX (V/m) @ t=0.48
-8.251761002832643
% es.tEY (V/m) @ t=0.48
0
% es.tEZ (V/m) @ t=0.48
11.049052677734938
% es.Ex (V/m) @ t=0.48
-8.25176100283263
% es.Ey (V/m) @ t=0.48
-0.8907059890458924
% es.Ez (V/m) @ t=0.48
11.049052677734965
% es.tEx (V/m) @ t=0.48
-8.251761002832643
% es.tEy (V/m) @ t=0.48
0
% es.tEz (V/m) @ t=0.48
11.049052677734938
% V (V) @ t=0.48
0.012196524820373282
% es.normE (V/m) @ t=0.5
14.98311347198738
% es.EX (V/m) @ t=0.5
-8.325224156360264
% es.EY (V/m) @ t=0.5
-0.8986357440507309
% es.EZ (V/m) @ t=0.5
11.147419419354756
% es.tEX (V/m) @ t=0.5
-8.325224156360283
% es.tEY (V/m) @ t=0.5
0
% es.tEZ (V/m) @ t=0.5
11.14741941935474
% es.Ex (V/m) @ t=0.5
-8.325224156360264
% es.Ey (V/m) @ t=0.5
-0.8986357440507309
% es.Ez (V/m) @ t=0.5
11.147419419354756
% es.tEx (V/m) @ t=0.5
-8.325224156360283
% es.tEy (V/m) @ t=0.5
0
% es.tEz (V/m) @ t=0.5
11.14741941935474
% V (V) @ t=0.5
0.0123051072801374
% es.normE (V/m) @ t=0.52
15.121819547716576
% es.EX (V/m) @ t=0.52
-8.402294841366304
% es.EY (V/m) @ t=0.52
-0.9069548799626488
% es.EZ (V/m) @ t=0.52
11.250616588457385
% es.tEX (V/m) @ t=0.52
-8.402294841366317
% es.tEY (V/m) @ t=0.52
0
% es.tEZ (V/m) @ t=0.52
11.250616588457373
% es.Ex (V/m) @ t=0.52
-8.402294841366304
% es.Ey (V/m) @ t=0.52
-0.9069548799626488
% es.Ez (V/m) @ t=0.52
11.250616588457385
% es.tEx (V/m) @ t=0.52
-8.402294841366317
% es.tEy (V/m) @ t=0.52
0
% es.tEz (V/m) @ t=0.52
11.250616588457373
% V (V) @ t=0.52
0.01241902178146135
% es.normE (V/m) @ t=0.54
15.268288113239127
% es.EX (V/m) @ t=0.54
-8.483678704464923
% es.EY (V/m) @ t=0.54
-0.9157395611396075
% es.EZ (V/m) @ t=0.54
11.359589034677139
% es.tEX (V/m) @ t=0.54
-8.483678704464928
% es.tEY (V/m) @ t=0.54
0
% es.tEZ (V/m) @ t=0.54
11.359589034677118
% es.Ex (V/m) @ t=0.54
-8.483678704464923
% es.Ey (V/m) @ t=0.54
-0.9157395611396075
% es.Ez (V/m) @ t=0.54
11.359589034677139
% es.tEx (V/m) @ t=0.54
-8.483678704464928
% es.tEy (V/m) @ t=0.54
0
% es.tEz (V/m) @ t=0.54
11.359589034677118
% V (V) @ t=0.54
0.01253931129156404
% es.normE (V/m) @ t=0.56
15.414756678761664
% es.EX (V/m) @ t=0.56
-8.565062567563512
% es.EY (V/m) @ t=0.56
-0.9245242423165414
% es.EZ (V/m) @ t=0.56
11.468561480896907
% es.tEX (V/m) @ t=0.56
-8.565062567563526
% es.tEY (V/m) @ t=0.56
0
% es.tEZ (V/m) @ t=0.56
11.468561480896886
% es.Ex (V/m) @ t=0.56
-8.565062567563512
% es.Ey (V/m) @ t=0.56
-0.9245242423165414
% es.Ez (V/m) @ t=0.56
11.468561480896907
% es.tEx (V/m) @ t=0.56
-8.565062567563526
% es.tEy (V/m) @ t=0.56
0
% es.tEz (V/m) @ t=0.56
11.468561480896886
% V (V) @ t=0.56
0.01265960080166673
% es.normE (V/m) @ t=0.58
15.561225244284188
% es.EX (V/m) @ t=0.58
-8.646446430662104
% es.EY (V/m) @ t=0.58
-0.9333089234934686
% es.EZ (V/m) @ t=0.58
11.577533927116672
% es.tEX (V/m) @ t=0.58
-8.646446430662124
% es.tEY (V/m) @ t=0.58
0
% es.tEZ (V/m) @ t=0.58
11.57753392711666
% es.Ex (V/m) @ t=0.58
-8.646446430662104
% es.Ey (V/m) @ t=0.58
-0.9333089234934686
% es.Ez (V/m) @ t=0.58
11.577533927116672
% es.tEx (V/m) @ t=0.58
-8.646446430662124
% es.tEy (V/m) @ t=0.58
0
% es.tEz (V/m) @ t=0.58
11.57753392711666
% V (V) @ t=0.58
0.012779890311769418
% es.normE (V/m) @ t=0.6
15.707693809806722
% es.EX (V/m) @ t=0.6
-8.727830293760707
% es.EY (V/m) @ t=0.6
-0.942093604670367
% es.EZ (V/m) @ t=0.6
11.686506373336446
% es.tEX (V/m) @ t=0.6
-8.727830293760734
% es.tEY (V/m) @ t=0.6
0
% es.tEZ (V/m) @ t=0.6
11.686506373336435
% es.Ex (V/m) @ t=0.6
-8.727830293760707
% es.Ey (V/m) @ t=0.6
-0.942093604670367
% es.Ez (V/m) @ t=0.6
11.686506373336446
% es.tEx (V/m) @ t=0.6
-8.727830293760734
% es.tEy (V/m) @ t=0.6
0
% es.tEz (V/m) @ t=0.6
11.686506373336435
% V (V) @ t=0.6
0.012900179821872111
% es.normE (V/m) @ t=0.62
15.854162375329256
% es.EX (V/m) @ t=0.62
-8.809214156859289
% es.EY (V/m) @ t=0.62
-0.9508782858473048
% es.EZ (V/m) @ t=0.62
11.795478819556225
% es.tEX (V/m) @ t=0.62
-8.809214156859301
% es.tEY (V/m) @ t=0.62
0
% es.tEZ (V/m) @ t=0.62
11.795478819556209
% es.Ex (V/m) @ t=0.62
-8.809214156859289
% es.Ey (V/m) @ t=0.62
-0.9508782858473048
% es.Ez (V/m) @ t=0.62
11.795478819556225
% es.tEx (V/m) @ t=0.62
-8.809214156859301
% es.tEy (V/m) @ t=0.62
0
% es.tEz (V/m) @ t=0.62
11.795478819556209
% V (V) @ t=0.62
0.013020469331974803
% es.normE (V/m) @ t=0.64
16.000630940851774
% es.EX (V/m) @ t=0.64
-8.890598019957896
% es.EY (V/m) @ t=0.64
-0.9596629670242178
% es.EZ (V/m) @ t=0.64
11.904451265775977
% es.tEX (V/m) @ t=0.64
-8.890598019957908
% es.tEY (V/m) @ t=0.64
0
% es.tEZ (V/m) @ t=0.64
11.904451265775961
% es.Ex (V/m) @ t=0.64
-8.890598019957896
% es.Ey (V/m) @ t=0.64
-0.9596629670242178
% es.Ez (V/m) @ t=0.64
11.904451265775977
% es.tEx (V/m) @ t=0.64
-8.890598019957908
% es.tEy (V/m) @ t=0.64
0
% es.tEz (V/m) @ t=0.64
11.904451265775961
% V (V) @ t=0.64
0.013140758842077495
% es.normE (V/m) @ t=0.66
16.14709950637431
% es.EX (V/m) @ t=0.66
-8.971981883056491
% es.EY (V/m) @ t=0.66
-0.968447648201173
% es.EZ (V/m) @ t=0.66
12.013423711995745
% es.tEX (V/m) @ t=0.66
-8.971981883056504
% es.tEY (V/m) @ t=0.66
0
% es.tEZ (V/m) @ t=0.66
12.013423711995731
% es.Ex (V/m) @ t=0.66
-8.971981883056491
% es.Ey (V/m) @ t=0.66
-0.968447648201173
% es.Ez (V/m) @ t=0.66
12.013423711995745
% es.tEx (V/m) @ t=0.66
-8.971981883056504
% es.tEy (V/m) @ t=0.66
0
% es.tEz (V/m) @ t=0.66
12.013423711995731
% V (V) @ t=0.66
0.013261048352180185
% es.normE (V/m) @ t=0.68
16.29356807189684
% es.EX (V/m) @ t=0.68
-9.053365746155075
% es.EY (V/m) @ t=0.68
-0.97723232937811
% es.EZ (V/m) @ t=0.68
12.122396158215496
% es.tEX (V/m) @ t=0.68
-9.05336574615508
% es.tEY (V/m) @ t=0.68
0
% es.tEZ (V/m) @ t=0.68
12.12239615821548
% es.Ex (V/m) @ t=0.68
-9.053365746155075
% es.Ey (V/m) @ t=0.68
-0.97723232937811
% es.Ez (V/m) @ t=0.68
12.122396158215496
% es.tEx (V/m) @ t=0.68
-9.05336574615508
% es.tEy (V/m) @ t=0.68
0
% es.tEz (V/m) @ t=0.68
12.12239615821548
% V (V) @ t=0.68
0.013381337862282877
% es.normE (V/m) @ t=0.7
16.440036637419368
% es.EX (V/m) @ t=0.7
-9.134749609253685
% es.EY (V/m) @ t=0.7
-0.9860170105550261
% es.EZ (V/m) @ t=0.7
12.231368604435264
% es.tEX (V/m) @ t=0.7
-9.13474960925369
% es.tEY (V/m) @ t=0.7
0
% es.tEZ (V/m) @ t=0.7
12.231368604435254
% es.Ex (V/m) @ t=0.7
-9.134749609253685
% es.Ey (V/m) @ t=0.7
-0.9860170105550261
% es.Ez (V/m) @ t=0.7
12.231368604435264
% es.tEx (V/m) @ t=0.7
-9.13474960925369
% es.tEy (V/m) @ t=0.7
0
% es.tEz (V/m) @ t=0.7
12.231368604435254
% V (V) @ t=0.7
0.013501627372385569
% es.normE (V/m) @ t=0.72
16.58650520294192
% es.EX (V/m) @ t=0.72
-9.216133472352285
% es.EY (V/m) @ t=0.72
-0.9948016917319498
% es.EZ (V/m) @ t=0.72
12.340341050655049
% es.tEX (V/m) @ t=0.72
-9.216133472352297
% es.tEY (V/m) @ t=0.72
0
% es.tEZ (V/m) @ t=0.72
12.34034105065502
% es.Ex (V/m) @ t=0.72
-9.216133472352285
% es.Ey (V/m) @ t=0.72
-0.9948016917319498
% es.Ez (V/m) @ t=0.72
12.340341050655049
% es.tEx (V/m) @ t=0.72
-9.216133472352297
% es.tEy (V/m) @ t=0.72
0
% es.tEz (V/m) @ t=0.72
12.34034105065502
% V (V) @ t=0.72
0.013621916882488259
% es.normE (V/m) @ t=0.74
16.732973768464433
% es.EX (V/m) @ t=0.74
-9.297517335450893
% es.EY (V/m) @ t=0.74
-1.0035863729088765
% es.EZ (V/m) @ t=0.74
12.449313496874792
% es.tEX (V/m) @ t=0.74
-9.29751733545092
% es.tEY (V/m) @ t=0.74
0
% es.tEZ (V/m) @ t=0.74
12.449313496874776
% es.Ex (V/m) @ t=0.74
-9.297517335450893
% es.Ey (V/m) @ t=0.74
-1.0035863729088765
% es.Ez (V/m) @ t=0.74
12.449313496874792
% es.tEx (V/m) @ t=0.74
-9.29751733545092
% es.tEy (V/m) @ t=0.74
0
% es.tEz (V/m) @ t=0.74
12.449313496874776
% V (V) @ t=0.74
0.01374220639259095
% es.normE (V/m) @ t=0.76
16.879442333986958
% es.EX (V/m) @ t=0.76
-9.378901198549492
% es.EY (V/m) @ t=0.76
-1.0123710540857784
% es.EZ (V/m) @ t=0.76
12.558285943094557
% es.tEX (V/m) @ t=0.76
-9.378901198549498
% es.tEY (V/m) @ t=0.76
0
% es.tEZ (V/m) @ t=0.76
12.558285943094548
% es.Ex (V/m) @ t=0.76
-9.378901198549492
% es.Ey (V/m) @ t=0.76
-1.0123710540857784
% es.Ez (V/m) @ t=0.76
12.558285943094557
% es.tEx (V/m) @ t=0.76
-9.378901198549498
% es.tEy (V/m) @ t=0.76
0
% es.tEz (V/m) @ t=0.76
12.558285943094548
% V (V) @ t=0.76
0.013862495902693643
% es.normE (V/m) @ t=0.78
17.036926136452237
% es.EX (V/m) @ t=0.78
-9.466405574694454
% es.EY (V/m) @ t=0.78
-1.0218163899414399
% es.EZ (V/m) @ t=0.78
12.675453712637097
% es.tEX (V/m) @ t=0.78
-9.466405574694466
% es.tEY (V/m) @ t=0.78
0
% es.tEZ (V/m) @ t=0.78
12.675453712637095
% es.Ex (V/m) @ t=0.78
-9.466405574694454
% es.Ey (V/m) @ t=0.78
-1.0218163899414399
% es.Ez (V/m) @ t=0.78
12.675453712637097
% es.tEx (V/m) @ t=0.78
-9.466405574694466
% es.tEy (V/m) @ t=0.78
0
% es.tEz (V/m) @ t=0.78
12.675453712637095
% V (V) @ t=0.78
0.013991831838316529
% es.normE (V/m) @ t=0.8
17.199444859552376
% es.EX (V/m) @ t=0.8
-9.556707557245309
% es.EY (V/m) @ t=0.8
-1.0315637024039361
% es.EZ (V/m) @ t=0.8
12.796367457206907
% es.tEX (V/m) @ t=0.8
-9.556707557245328
% es.tEY (V/m) @ t=0.8
0
% es.tEZ (V/m) @ t=0.8
12.796367457206882
% es.Ex (V/m) @ t=0.8
-9.556707557245309
% es.Ey (V/m) @ t=0.8
-1.0315637024039361
% es.Ez (V/m) @ t=0.8
12.796367457206907
% es.tEx (V/m) @ t=0.8
-9.556707557245328
% es.tEy (V/m) @ t=0.8
0
% es.tEz (V/m) @ t=0.8
12.796367457206882
% V (V) @ t=0.8
0.014125302776641566
% es.normE (V/m) @ t=0.82
17.361963582652447
% es.EX (V/m) @ t=0.82
-9.647009539796134
% es.EY (V/m) @ t=0.82
-1.0413110148663836
% es.EZ (V/m) @ t=0.82
12.917281201776648
% es.tEX (V/m) @ t=0.82
-9.647009539796146
% es.tEY (V/m) @ t=0.82
0
% es.tEZ (V/m) @ t=0.82
12.91728120177663
% es.Ex (V/m) @ t=0.82
-9.647009539796134
% es.Ey (V/m) @ t=0.82
-1.0413110148663836
% es.Ez (V/m) @ t=0.82
12.917281201776648
% es.tEx (V/m) @ t=0.82
-9.647009539796146
% es.tEy (V/m) @ t=0.82
0
% es.tEz (V/m) @ t=0.82
12.91728120177663
% V (V) @ t=0.82
0.014258773714966607
% es.normE (V/m) @ t=0.84
17.524482305752556
% es.EX (V/m) @ t=0.84
-9.737311522346966
% es.EY (V/m) @ t=0.84
-1.051058327328791
% es.EZ (V/m) @ t=0.84
13.038194946346458
% es.tEX (V/m) @ t=0.84
-9.737311522346978
% es.tEY (V/m) @ t=0.84
0
% es.tEZ (V/m) @ t=0.84
13.038194946346438
% es.Ex (V/m) @ t=0.84
-9.737311522346966
% es.Ey (V/m) @ t=0.84
-1.051058327328791
% es.Ez (V/m) @ t=0.84
13.038194946346458
% es.tEx (V/m) @ t=0.84
-9.737311522346978
% es.tEy (V/m) @ t=0.84
0
% es.tEz (V/m) @ t=0.84
13.038194946346438
% V (V) @ t=0.84
0.014392244653291641
% es.normE (V/m) @ t=0.86
17.68700102885269
% es.EX (V/m) @ t=0.86
-9.827613504897828
% es.EY (V/m) @ t=0.86
-1.0608056397912131
% es.EZ (V/m) @ t=0.86
13.159108690916261
% es.tEX (V/m) @ t=0.86
-9.827613504897855
% es.tEY (V/m) @ t=0.86
0
% es.tEZ (V/m) @ t=0.86
13.159108690916247
% es.Ex (V/m) @ t=0.86
-9.827613504897828
% es.Ey (V/m) @ t=0.86
-1.0608056397912131
% es.Ez (V/m) @ t=0.86
13.159108690916261
% es.tEx (V/m) @ t=0.86
-9.827613504897855
% es.tEy (V/m) @ t=0.86
0
% es.tEz (V/m) @ t=0.86
13.159108690916247
% V (V) @ t=0.86
0.014525715591616677
% es.normE (V/m) @ t=0.88
17.849519751952805
% es.EX (V/m) @ t=0.88
-9.917915487448651
% es.EY (V/m) @ t=0.88
-1.0705529522536743
% es.EZ (V/m) @ t=0.88
13.280022435486066
% es.tEX (V/m) @ t=0.88
-9.917915487448663
% es.tEY (V/m) @ t=0.88
0
% es.tEZ (V/m) @ t=0.88
13.280022435486046
% es.Ex (V/m) @ t=0.88
-9.917915487448651
% es.Ey (V/m) @ t=0.88
-1.0705529522536743
% es.Ez (V/m) @ t=0.88
13.280022435486066
% es.tEx (V/m) @ t=0.88
-9.917915487448663
% es.tEy (V/m) @ t=0.88
0
% es.tEz (V/m) @ t=0.88
13.280022435486046
% V (V) @ t=0.88
0.014659186529941715
% es.normE (V/m) @ t=0.9
18.012038475052908
% es.EX (V/m) @ t=0.9
-10.008217469999462
% es.EY (V/m) @ t=0.9
-1.0803002647161142
% es.EZ (V/m) @ t=0.9
13.40093618005586
% es.tEX (V/m) @ t=0.9
-10.008217469999474
% es.tEY (V/m) @ t=0.9
0
% es.tEZ (V/m) @ t=0.9
13.40093618005585
% es.Ex (V/m) @ t=0.9
-10.008217469999462
% es.Ey (V/m) @ t=0.9
-1.0803002647161142
% es.Ez (V/m) @ t=0.9
13.40093618005586
% es.tEx (V/m) @ t=0.9
-10.008217469999474
% es.tEy (V/m) @ t=0.9
0
% es.tEz (V/m) @ t=0.9
13.40093618005585
% V (V) @ t=0.9
0.014792657468266749
% es.normE (V/m) @ t=0.92
18.174557198153014
% es.EX (V/m) @ t=0.92
-10.098519452550324
% es.EY (V/m) @ t=0.92
-1.09004757717855
% es.EZ (V/m) @ t=0.92
13.521849924625638
% es.tEX (V/m) @ t=0.92
-10.098519452550335
% es.tEY (V/m) @ t=0.92
0
% es.tEZ (V/m) @ t=0.92
13.521849924625624
% es.Ex (V/m) @ t=0.92
-10.098519452550324
% es.Ey (V/m) @ t=0.92
-1.09004757717855
% es.Ez (V/m) @ t=0.92
13.521849924625638
% es.tEx (V/m) @ t=0.92
-10.098519452550335
% es.tEy (V/m) @ t=0.92
0
% es.tEz (V/m) @ t=0.92
13.521849924625624
% V (V) @ t=0.92
0.014926128406591787
% es.normE (V/m) @ t=0.94
18.337075921253113
% es.EX (V/m) @ t=0.94
-10.188821435101163
% es.EY (V/m) @ t=0.94
-1.0997948896409868
% es.EZ (V/m) @ t=0.94
13.642763669195421
% es.tEX (V/m) @ t=0.94
-10.18882143510119
% es.tEY (V/m) @ t=0.94
0
% es.tEZ (V/m) @ t=0.94
13.642763669195421
% es.Ex (V/m) @ t=0.94
-10.188821435101163
% es.Ey (V/m) @ t=0.94
-1.0997948896409868
% es.Ez (V/m) @ t=0.94
13.642763669195421
% es.tEx (V/m) @ t=0.94
-10.18882143510119
% es.tEy (V/m) @ t=0.94
0
% es.tEz (V/m) @ t=0.94
13.642763669195421
% V (V) @ t=0.94
0.015059599344916828
% es.normE (V/m) @ t=0.96
18.49959464435325
% es.EX (V/m) @ t=0.96
-10.279123417651965
% es.EY (V/m) @ t=0.96
-1.1095422021034334
% es.EZ (V/m) @ t=0.96
13.763677413765262
% es.tEX (V/m) @ t=0.96
-10.279123417651991
% es.tEY (V/m) @ t=0.96
0
% es.tEZ (V/m) @ t=0.96
13.763677413765242
% es.Ex (V/m) @ t=0.96
-10.279123417651965
% es.Ey (V/m) @ t=0.96
-1.1095422021034334
% es.Ez (V/m) @ t=0.96
13.763677413765262
% es.tEx (V/m) @ t=0.96
-10.279123417651991
% es.tEy (V/m) @ t=0.96
0
% es.tEz (V/m) @ t=0.96
13.763677413765242
% V (V) @ t=0.96
0.01519307028324186
% es.normE (V/m) @ t=0.98
18.66211336745335
% es.EX (V/m) @ t=0.98
-10.369425400202818
% es.EY (V/m) @ t=0.98
-1.1192895145658626
% es.EZ (V/m) @ t=0.98
13.884591158335027
% es.tEX (V/m) @ t=0.98
-10.36942540020283
% es.tEY (V/m) @ t=0.98
0
% es.tEZ (V/m) @ t=0.98
13.884591158335008
% es.Ex (V/m) @ t=0.98
-10.369425400202818
% es.Ey (V/m) @ t=0.98
-1.1192895145658626
% es.Ez (V/m) @ t=0.98
13.884591158335027
% es.tEx (V/m) @ t=0.98
-10.36942540020283
% es.tEy (V/m) @ t=0.98
0
% es.tEz (V/m) @ t=0.98
13.884591158335008
% V (V) @ t=0.98
0.015326541221566898
% es.normE (V/m) @ t=1
18.82463209055345
% es.EX (V/m) @ t=1
-10.459727382753652
% es.EY (V/m) @ t=1
-1.1290368270282922
% es.EZ (V/m) @ t=1
14.005504902904814
% es.tEX (V/m) @ t=1
-10.45972738275367
% es.tEY (V/m) @ t=1
0
% es.tEZ (V/m) @ t=1
14.0055049029048
% es.Ex (V/m) @ t=1
-10.459727382753652
% es.Ey (V/m) @ t=1
-1.1290368270282922
% es.Ez (V/m) @ t=1
14.005504902904814
% es.tEx (V/m) @ t=1
-10.45972738275367
% es.tEy (V/m) @ t=1
0
% es.tEz (V/m) @ t=1
14.0055049029048
% V (V) @ t=1
0.015460012159891935
% es.normE (V/m) @ t=1.02
18.987150813653592
% es.EX (V/m) @ t=1.02
-10.550029365304505
% es.EY (V/m) @ t=1.02
-1.1387841394907499
% es.EZ (V/m) @ t=1.02
14.126418647474628
% es.tEX (V/m) @ t=1.02
-10.550029365304518
% es.tEY (V/m) @ t=1.02
0
% es.tEZ (V/m) @ t=1.02
14.126418647474615
% es.Ex (V/m) @ t=1.02
-10.550029365304505
% es.Ey (V/m) @ t=1.02
-1.1387841394907499
% es.Ez (V/m) @ t=1.02
14.126418647474628
% es.tEx (V/m) @ t=1.02
-10.550029365304518
% es.tEy (V/m) @ t=1.02
0
% es.tEz (V/m) @ t=1.02
14.126418647474615
% V (V) @ t=1.02
0.015593483098216973
% es.normE (V/m) @ t=1.04
19.15693448638633
% es.EX (V/m) @ t=1.04
-10.644368057506945
% es.EY (V/m) @ t=1.04
-1.1489671700859798
% es.EZ (V/m) @ t=1.04
14.252737503746282
% es.tEX (V/m) @ t=1.04
-10.644368057506965
% es.tEY (V/m) @ t=1.04
0
% es.tEZ (V/m) @ t=1.04
14.252737503746264
% es.Ex (V/m) @ t=1.04
-10.644368057506945
% es.Ey (V/m) @ t=1.04
-1.1489671700859798
% es.Ez (V/m) @ t=1.04
14.252737503746282