% Model:              1 neuron.mph
% Version:            COMSOL 6.1.0.252
% Date:               Mar 22 2023, 18:23
% Dimension:          0
% Nodes:              14017
% Expressions:        14017
% Description:        Electric field norm, Electric field, X component, Electric field, Y component, Electric field, Z component, Tangential electric field, X component, Tangential electric field, Y component, Tangential electric field, Z component, Electric field, x component, Electric field, y component, Electric field, z component, Tangential electric field, x component, Tangential electric field, y component, Tangential electric field, z component, Electric potential
% Length unit:        mm
% x
1.33
% y
12.2
% z
1.33
% es.normE (V/m) @ t=0
14.08644451543635
% es.EX (V/m) @ t=0
10.915362957309055
% es.EY (V/m) @ t=0
-1.672557215187231
% es.EZ (V/m) @ t=0
8.720189457481439
% es.tEX (V/m) @ t=0
10.915362957309096
% es.tEY (V/m) @ t=0
0
% es.tEZ (V/m) @ t=0
8.720189457481432
% es.Ex (V/m) @ t=0
10.915362957309055
% es.Ey (V/m) @ t=0
-1.672557215187231
% es.Ez (V/m) @ t=0
8.720189457481439
% es.tEx (V/m) @ t=0
10.915362957309096
% es.tEy (V/m) @ t=0
0
% es.tEz (V/m) @ t=0
8.720189457481432
% V (V) @ t=0
0.011633048761735735
% es.normE (V/m) @ t=0.02
12.166612731434267
% es.EX (V/m) @ t=0.02
9.42771568675138
% es.EY (V/m) @ t=0.02
-1.4446055456246594
% es.EZ (V/m) @ t=0.02
7.5317208656694685
% es.tEX (V/m) @ t=0.02
9.427715686751418
% es.tEY (V/m) @ t=0.02
0
% es.tEZ (V/m) @ t=0.02
7.531720865669463
% es.Ex (V/m) @ t=0.02
9.42771568675138
% es.Ey (V/m) @ t=0.02
-1.4446055456246594
% es.Ez (V/m) @ t=0.02
7.5317208656694685
% es.tEx (V/m) @ t=0.02
9.427715686751418
% es.tEy (V/m) @ t=0.02
0
% es.tEz (V/m) @ t=0.02
7.531720865669463
% V (V) @ t=0.02
0.01004758858125948
% es.normE (V/m) @ t=0.04
12.278545093184865
% es.EX (V/m) @ t=0.04
9.514450303013728
% es.EY (V/m) @ t=0.04
-1.4578958569972365
% es.EZ (V/m) @ t=0.04
7.601012403799194
% es.tEX (V/m) @ t=0.04
9.514450303013781
% es.tEY (V/m) @ t=0.04
0
% es.tEZ (V/m) @ t=0.04
7.6010124037991895
% es.Ex (V/m) @ t=0.04
9.514450303013728
% es.Ey (V/m) @ t=0.04
-1.4578958569972365
% es.Ez (V/m) @ t=0.04
7.601012403799194
% es.tEx (V/m) @ t=0.04
9.514450303013781
% es.tEy (V/m) @ t=0.04
0
% es.tEz (V/m) @ t=0.04
7.6010124037991895
% V (V) @ t=0.04
0.010140025995741873
% es.normE (V/m) @ t=0.06
12.39128375733554
% es.EX (V/m) @ t=0.06
9.601809708992802
% es.EY (V/m) @ t=0.06
-1.4712819182490033
% es.EZ (V/m) @ t=0.06
7.67080308014474
% es.tEX (V/m) @ t=0.06
9.601809708992814
% es.tEY (V/m) @ t=0.06
0
% es.tEZ (V/m) @ t=0.06
7.670803080144741
% es.Ex (V/m) @ t=0.06
9.601809708992802
% es.Ey (V/m) @ t=0.06
-1.4712819182490033
% es.Ez (V/m) @ t=0.06
7.67080308014474
% es.tEx (V/m) @ t=0.06
9.601809708992814
% es.tEy (V/m) @ t=0.06
0
% es.tEz (V/m) @ t=0.06
7.670803080144741
% V (V) @ t=0.06
0.010233129314055647
% es.normE (V/m) @ t=0.08
12.506204359112374
% es.EX (V/m) @ t=0.08
9.690859864728516
% es.EY (V/m) @ t=0.08
-1.4849270435789563
% es.EZ (V/m) @ t=0.08
7.741944482521351
% es.tEX (V/m) @ t=0.08
9.690859864728552
% es.tEY (V/m) @ t=0.08
0
% es.tEZ (V/m) @ t=0.08
7.741944482521339
% es.Ex (V/m) @ t=0.08
9.690859864728516
% es.Ey (V/m) @ t=0.08
-1.4849270435789563
% es.Ez (V/m) @ t=0.08
7.741944482521351
% es.tEx (V/m) @ t=0.08
9.690859864728552
% es.tEy (V/m) @ t=0.08
0
% es.tEz (V/m) @ t=0.08
7.741944482521339
% V (V) @ t=0.08
0.010328034526636358
% es.normE (V/m) @ t=0.1
12.621680283080618
% es.EX (V/m) @ t=0.1
9.780340331050894
% es.EY (V/m) @ t=0.1
-1.49863810298047
% es.EZ (V/m) @ t=0.1
7.813429656475379
% es.tEX (V/m) @ t=0.1
9.780340331050953
% es.tEY (V/m) @ t=0.1
0
% es.tEZ (V/m) @ t=0.1
7.813429656475378
% es.Ex (V/m) @ t=0.1
9.780340331050894
% es.Ey (V/m) @ t=0.1
-1.49863810298047
% es.Ez (V/m) @ t=0.1
7.813429656475379
% es.tEx (V/m) @ t=0.1
9.780340331050953
% es.tEy (V/m) @ t=0.1
0
% es.tEz (V/m) @ t=0.1
7.813429656475378
% V (V) @ t=0.1
0.010423398337052777
% es.normE (V/m) @ t=0.12
12.737156207048862
% es.EX (V/m) @ t=0.12
9.869820797373269
% es.EY (V/m) @ t=0.12
-1.512349162382014
% es.EZ (V/m) @ t=0.12
7.88491483042941
% es.tEX (V/m) @ t=0.12
9.869820797373327
% es.tEY (V/m) @ t=0.12
0
% es.tEZ (V/m) @ t=0.12
7.884914830429394
% es.Ex (V/m) @ t=0.12
9.869820797373269
% es.Ey (V/m) @ t=0.12
-1.512349162382014
% es.Ez (V/m) @ t=0.12
7.88491483042941
% es.tEx (V/m) @ t=0.12
9.869820797373327
% es.tEy (V/m) @ t=0.12
0
% es.tEz (V/m) @ t=0.12
7.884914830429394
% V (V) @ t=0.12
0.010518762147469194
% es.normE (V/m) @ t=0.14
12.856097829503785
% es.EX (V/m) @ t=0.14
9.96198677848821
% es.EY (V/m) @ t=0.14
-1.52647172364329
% es.EZ (V/m) @ t=0.14
7.9585454389256585
% es.tEX (V/m) @ t=0.14
9.961986778488209
% es.tEY (V/m) @ t=0.14
0
% es.tEZ (V/m) @ t=0.14
7.95854543892566
% es.Ex (V/m) @ t=0.14
9.96198677848821
% es.Ey (V/m) @ t=0.14
-1.52647172364329
% es.Ez (V/m) @ t=0.14
7.9585454389256585
% es.tEx (V/m) @ t=0.14
9.961986778488209
% es.tEy (V/m) @ t=0.14
0
% es.tEz (V/m) @ t=0.14
7.95854543892566
% V (V) @ t=0.14
0.01061698804891858
% es.normE (V/m) @ t=0.16
12.97734517563549
% es.EX (V/m) @ t=0.16
10.055939428312277
% es.EY (V/m) @ t=0.16
-1.5408680564357287
% es.EZ (V/m) @ t=0.16
8.033603401601793
% es.tEX (V/m) @ t=0.16
10.055939428312325
% es.tEY (V/m) @ t=0.16
0
% es.tEZ (V/m) @ t=0.16
8.03360340160179
% es.Ex (V/m) @ t=0.16
10.055939428312277
% es.Ey (V/m) @ t=0.16
-1.5408680564357287
% es.Ez (V/m) @ t=0.16
8.033603401601793
% es.tEx (V/m) @ t=0.16
10.055939428312325
% es.tEy (V/m) @ t=0.16
0
% es.tEz (V/m) @ t=0.16
8.03360340160179
% V (V) @ t=0.16
0.010717118094968373
% es.normE (V/m) @ t=0.18
13.098592521767227
% es.EX (V/m) @ t=0.18
10.149892078136366
% es.EY (V/m) @ t=0.18
-1.5552643892281388
% es.EZ (V/m) @ t=0.18
8.10866136427795
% es.tEX (V/m) @ t=0.18
10.149892078136386
% es.tEY (V/m) @ t=0.18
0
% es.tEZ (V/m) @ t=0.18
8.108661364277939
% es.Ex (V/m) @ t=0.18
10.149892078136366
% es.Ey (V/m) @ t=0.18
-1.5552643892281388
% es.Ez (V/m) @ t=0.18
8.10866136427795
% es.tEx (V/m) @ t=0.18
10.149892078136386
% es.tEy (V/m) @ t=0.18
0
% es.tEz (V/m) @ t=0.18
8.108661364277939
% V (V) @ t=0.18
0.010817248141018167
% es.normE (V/m) @ t=0.2
13.219839867898958
% es.EX (V/m) @ t=0.2
10.243844727960461
% es.EY (V/m) @ t=0.2
-1.56966072202062
% es.EZ (V/m) @ t=0.2
8.183719326954076
% es.tEX (V/m) @ t=0.2
10.243844727960504
% es.tEY (V/m) @ t=0.2
0
% es.tEZ (V/m) @ t=0.2
8.183719326954062
% es.Ex (V/m) @ t=0.2
10.243844727960461
% es.Ey (V/m) @ t=0.2
-1.56966072202062
% es.Ez (V/m) @ t=0.2
8.183719326954076
% es.tEx (V/m) @ t=0.2
10.243844727960504
% es.tEy (V/m) @ t=0.2
0
% es.tEz (V/m) @ t=0.2
8.183719326954062
% V (V) @ t=0.2
0.010917378187067962
% es.normE (V/m) @ t=0.22
13.341087214030672
% es.EX (V/m) @ t=0.22
10.337797377784543
% es.EY (V/m) @ t=0.22
-1.5840570548130675
% es.EZ (V/m) @ t=0.22
8.258777289630201
% es.tEX (V/m) @ t=0.22
10.337797377784591
% es.tEY (V/m) @ t=0.22
0
% es.tEZ (V/m) @ t=0.22
8.258777289630203
% es.Ex (V/m) @ t=0.22
10.337797377784543
% es.Ey (V/m) @ t=0.22
-1.5840570548130675
% es.Ez (V/m) @ t=0.22
8.258777289630201
% es.tEx (V/m) @ t=0.22
10.337797377784591
% es.tEy (V/m) @ t=0.22
0
% es.tEz (V/m) @ t=0.22
8.258777289630203
% V (V) @ t=0.22
0.011017508233117757
% es.normE (V/m) @ t=0.24
13.462334560162418
% es.EX (V/m) @ t=0.24
10.431750027608661
% es.EY (V/m) @ t=0.24
-1.598453387605522
% es.EZ (V/m) @ t=0.24
8.33383525230633
% es.tEX (V/m) @ t=0.24
10.431750027608707
% es.tEY (V/m) @ t=0.24
0
% es.tEZ (V/m) @ t=0.24
8.333835252306326
% es.Ex (V/m) @ t=0.24
10.431750027608661
% es.Ey (V/m) @ t=0.24
-1.598453387605522
% es.Ez (V/m) @ t=0.24
8.33383525230633
% es.tEx (V/m) @ t=0.24
10.431750027608707
% es.tEy (V/m) @ t=0.24
0
% es.tEz (V/m) @ t=0.24
8.333835252306326
% V (V) @ t=0.24
0.011117638279167553
% es.normE (V/m) @ t=0.26
13.586252235080764
% es.EX (V/m) @ t=0.26
10.527771870106264
% es.EY (V/m) @ t=0.26
-1.6131668120543825
% es.EZ (V/m) @ t=0.26
8.410546273337658
% es.tEX (V/m) @ t=0.26
10.527771870106324
% es.tEY (V/m) @ t=0.26
0
% es.tEZ (V/m) @ t=0.26
8.410546273337658
% es.Ex (V/m) @ t=0.26
10.527771870106264
% es.Ey (V/m) @ t=0.26
-1.6131668120543825
% es.Ez (V/m) @ t=0.26
8.410546273337658
% es.tEx (V/m) @ t=0.26
10.527771870106324
% es.tEy (V/m) @ t=0.26
0
% es.tEz (V/m) @ t=0.26
8.410546273337658
% V (V) @ t=0.26
0.01121997364375347
% es.normE (V/m) @ t=0.28
13.720385441313105
% es.EX (V/m) @ t=0.28
10.631709555273432
% es.EY (V/m) @ t=0.28
-1.629093293023173
% es.EZ (V/m) @ t=0.28
8.493581185822395
% es.tEX (V/m) @ t=0.28
10.631709555273446
% es.tEY (V/m) @ t=0.28
0
% es.tEZ (V/m) @ t=0.28
8.493581185822393
% es.Ex (V/m) @ t=0.28
10.631709555273432
% es.Ey (V/m) @ t=0.28
-1.629093293023173
% es.Ez (V/m) @ t=0.28
8.493581185822395
% es.tEx (V/m) @ t=0.28
10.631709555273446
% es.tEy (V/m) @ t=0.28
0
% es.tEz (V/m) @ t=0.28
8.493581185822393
% V (V) @ t=0.28
0.011330745610107634
% es.normE (V/m) @ t=0.3
13.854518647545433
% es.EX (V/m) @ t=0.3
10.73564724044059
% es.EY (V/m) @ t=0.3
-1.645019773992038
% es.EZ (V/m) @ t=0.3
8.576616098307104
% es.tEX (V/m) @ t=0.3
10.735647240440624
% es.tEY (V/m) @ t=0.3
0
% es.tEZ (V/m) @ t=0.3
8.576616098307085
% es.Ex (V/m) @ t=0.3
10.73564724044059
% es.Ey (V/m) @ t=0.3
-1.645019773992038
% es.Ez (V/m) @ t=0.3
8.576616098307104
% es.tEx (V/m) @ t=0.3
10.735647240440624
% es.tEy (V/m) @ t=0.3
0
% es.tEz (V/m) @ t=0.3
8.576616098307085
% V (V) @ t=0.3
0.0114415175764618
% es.normE (V/m) @ t=0.32
13.988651853777766
% es.EX (V/m) @ t=0.32
10.839584925607742
% es.EY (V/m) @ t=0.32
-1.6609462549609457
% es.EZ (V/m) @ t=0.32
8.659651010791817
% es.tEX (V/m) @ t=0.32
10.839584925607745
% es.tEY (V/m) @ t=0.32
0
% es.tEZ (V/m) @ t=0.32
8.659651010791805
% es.Ex (V/m) @ t=0.32
10.839584925607742
% es.Ey (V/m) @ t=0.32
-1.6609462549609457
% es.Ez (V/m) @ t=0.32
8.659651010791817
% es.tEx (V/m) @ t=0.32
10.839584925607745
% es.tEy (V/m) @ t=0.32
0
% es.tEz (V/m) @ t=0.32
8.659651010791805
% V (V) @ t=0.32
0.011552289542815963
% es.normE (V/m) @ t=0.34
14.122785060010127
% es.EX (V/m) @ t=0.34
10.94352261077495
% es.EY (V/m) @ t=0.34
-1.6768727359297646
% es.EZ (V/m) @ t=0.34
8.74268592327652
% es.tEX (V/m) @ t=0.34
10.943522610774982
% es.tEY (V/m) @ t=0.34
0
% es.tEZ (V/m) @ t=0.34
8.742685923276504
% es.Ex (V/m) @ t=0.34
10.94352261077495
% es.Ey (V/m) @ t=0.34
-1.6768727359297646
% es.Ez (V/m) @ t=0.34
8.74268592327652
% es.tEx (V/m) @ t=0.34
10.943522610774982
% es.tEy (V/m) @ t=0.34
0
% es.tEz (V/m) @ t=0.34
8.742685923276504
% V (V) @ t=0.34
0.011663061509170129
% es.normE (V/m) @ t=0.36
14.256918266242462
% es.EX (V/m) @ t=0.36
11.047460295942109
% es.EY (V/m) @ t=0.36
-1.6927992168986208
% es.EZ (V/m) @ t=0.36
8.825720835761226
% es.tEX (V/m) @ t=0.36
11.04746029594216
% es.tEY (V/m) @ t=0.36
0
% es.tEZ (V/m) @ t=0.36
8.825720835761246
% es.Ex (V/m) @ t=0.36
11.047460295942109
% es.Ey (V/m) @ t=0.36
-1.6927992168986208
% es.Ez (V/m) @ t=0.36
8.825720835761226
% es.tEx (V/m) @ t=0.36
11.04746029594216
% es.tEy (V/m) @ t=0.36
0
% es.tEz (V/m) @ t=0.36
8.825720835761246
% V (V) @ t=0.36
0.011773833475524294
% es.normE (V/m) @ t=0.38
14.391051472474818
% es.EX (V/m) @ t=0.38
11.15139798110929
% es.EY (V/m) @ t=0.38
-1.7087256978675054
% es.EZ (V/m) @ t=0.38
8.908755748245936
% es.tEX (V/m) @ t=0.38
11.15139798110931
% es.tEY (V/m) @ t=0.38
0
% es.tEZ (V/m) @ t=0.38
8.908755748245932
% es.Ex (V/m) @ t=0.38
11.15139798110929
% es.Ey (V/m) @ t=0.38
-1.7087256978675054
% es.Ez (V/m) @ t=0.38
8.908755748245936
% es.tEx (V/m) @ t=0.38
11.15139798110931
% es.tEy (V/m) @ t=0.38
0
% es.tEz (V/m) @ t=0.38
8.908755748245932
% V (V) @ t=0.38
0.011884605441878457
% es.normE (V/m) @ t=0.4
14.525184678707152
% es.EX (V/m) @ t=0.4
11.25533566627644
% es.EY (V/m) @ t=0.4
-1.7246521788363207
% es.EZ (V/m) @ t=0.4
8.991790660730652
% es.tEX (V/m) @ t=0.4
11.25533566627649
% es.tEY (V/m) @ t=0.4
0
% es.tEZ (V/m) @ t=0.4
8.991790660730631
% es.Ex (V/m) @ t=0.4
11.25533566627644
% es.Ey (V/m) @ t=0.4
-1.7246521788363207
% es.Ez (V/m) @ t=0.4
8.991790660730652
% es.tEx (V/m) @ t=0.4
11.25533566627649
% es.tEy (V/m) @ t=0.4
0
% es.tEz (V/m) @ t=0.4
8.991790660730631
% V (V) @ t=0.4
0.011995377408232623
% es.normE (V/m) @ t=0.42
14.659317884939547
% es.EX (V/m) @ t=0.42
11.359273351443658
% es.EY (V/m) @ t=0.42
-1.7405786598051964
% es.EZ (V/m) @ t=0.42
9.074825573215369
% es.tEX (V/m) @ t=0.42
11.359273351443669
% es.tEY (V/m) @ t=0.42
0
% es.tEZ (V/m) @ t=0.42
9.074825573215358
% es.Ex (V/m) @ t=0.42
11.359273351443658
% es.Ey (V/m) @ t=0.42
-1.7405786598051964
% es.Ez (V/m) @ t=0.42
9.074825573215369
% es.tEx (V/m) @ t=0.42
11.359273351443669
% es.tEy (V/m) @ t=0.42
0
% es.tEz (V/m) @ t=0.42
9.074825573215358
% V (V) @ t=0.42
0.012106149374586789
% es.normE (V/m) @ t=0.44
14.793451091171882
% es.EX (V/m) @ t=0.44
11.46321103661081
% es.EY (V/m) @ t=0.44
-1.7565051407740437
% es.EZ (V/m) @ t=0.44
9.157860485700073
% es.tEX (V/m) @ t=0.44
11.463211036610875
% es.tEY (V/m) @ t=0.44
0
% es.tEZ (V/m) @ t=0.44
9.157860485700073
% es.Ex (V/m) @ t=0.44
11.46321103661081
% es.Ey (V/m) @ t=0.44
-1.7565051407740437
% es.Ez (V/m) @ t=0.44
9.157860485700073
% es.tEx (V/m) @ t=0.44
11.463211036610875
% es.tEy (V/m) @ t=0.44
0
% es.tEz (V/m) @ t=0.44
9.157860485700073
% V (V) @ t=0.44
0.012216921340940953
% es.normE (V/m) @ t=0.46
14.927584297404199
% es.EX (V/m) @ t=0.46
11.567148721777947
% es.EY (V/m) @ t=0.46
-1.772431621742946
% es.EZ (V/m) @ t=0.46
9.24089539818476
% es.tEX (V/m) @ t=0.46
11.567148721777968
% es.tEY (V/m) @ t=0.46
0
% es.tEZ (V/m) @ t=0.46
9.24089539818477
% es.Ex (V/m) @ t=0.46
11.567148721777947
% es.Ey (V/m) @ t=0.46
-1.772431621742946
% es.Ez (V/m) @ t=0.46
9.24089539818476
% es.tEx (V/m) @ t=0.46
11.567148721777968
% es.tEy (V/m) @ t=0.46
0
% es.tEz (V/m) @ t=0.46
9.24089539818477
% V (V) @ t=0.46
0.012327693307295119
% es.normE (V/m) @ t=0.48
15.061717503636597
% es.EX (V/m) @ t=0.48
11.67108640694517
% es.EY (V/m) @ t=0.48
-1.788358102711788
% es.EZ (V/m) @ t=0.48
9.323930310669464
% es.tEX (V/m) @ t=0.48
11.671086406945204
% es.tEY (V/m) @ t=0.48
0
% es.tEZ (V/m) @ t=0.48
9.323930310669457
% es.Ex (V/m) @ t=0.48
11.67108640694517
% es.Ey (V/m) @ t=0.48
-1.788358102711788
% es.Ez (V/m) @ t=0.48
9.323930310669464
% es.tEx (V/m) @ t=0.48
11.671086406945204
% es.tEy (V/m) @ t=0.48
0
% es.tEz (V/m) @ t=0.48
9.323930310669457
% V (V) @ t=0.48
0.012438465273649283
% es.normE (V/m) @ t=0.5
15.195850709868994
% es.EX (V/m) @ t=0.5
11.775024092112357
% es.EY (V/m) @ t=0.5
-1.8042845836806265
% es.EZ (V/m) @ t=0.5
9.406965223154216
% es.tEX (V/m) @ t=0.5
11.775024092112384
% es.tEY (V/m) @ t=0.5
0
% es.tEZ (V/m) @ t=0.5
9.406965223154199
% es.Ex (V/m) @ t=0.5
11.775024092112357
% es.Ey (V/m) @ t=0.5
-1.8042845836806265
% es.Ez (V/m) @ t=0.5
9.406965223154216
% es.tEx (V/m) @ t=0.5
11.775024092112384
% es.tEy (V/m) @ t=0.5
0
% es.tEz (V/m) @ t=0.5
9.406965223154199
% V (V) @ t=0.5
0.012549237240003445
% es.normE (V/m) @ t=0.52
15.336077744368461
% es.EX (V/m) @ t=0.52
11.883683793238728
% es.EY (V/m) @ t=0.52
-1.8209345664224834
% es.EZ (V/m) @ t=0.52
9.493772516649045
% es.tEX (V/m) @ t=0.52
11.883683793238752
% es.tEY (V/m) @ t=0.52
0
% es.tEZ (V/m) @ t=0.52
9.493772516649027
% es.Ex (V/m) @ t=0.52
11.883683793238728
% es.Ey (V/m) @ t=0.52
-1.8209345664224834
% es.Ez (V/m) @ t=0.52
9.493772516649045
% es.tEx (V/m) @ t=0.52
11.883683793238752
% es.tEy (V/m) @ t=0.52
0
% es.tEz (V/m) @ t=0.52
9.493772516649027
% V (V) @ t=0.52
0.012665041565149424
% es.normE (V/m) @ t=0.54
15.484695848859147
% es.EX (V/m) @ t=0.54
11.998845608418314
% es.EY (V/m) @ t=0.54
-1.8385807954892357
% es.EZ (V/m) @ t=0.54
9.585774297369607
% es.tEX (V/m) @ t=0.54
11.998845608418378
% es.tEY (V/m) @ t=0.54
0
% es.tEZ (V/m) @ t=0.54
9.585774297369602
% es.Ex (V/m) @ t=0.54
11.998845608418314
% es.Ey (V/m) @ t=0.54
-1.8385807954892357
% es.Ez (V/m) @ t=0.54
9.585774297369607
% es.tEx (V/m) @ t=0.54
11.998845608418378
% es.tEy (V/m) @ t=0.54
0
% es.tEz (V/m) @ t=0.54
9.585774297369602
% V (V) @ t=0.54
0.012787775339730491
% es.normE (V/m) @ t=0.56
15.633313953349928
% es.EX (V/m) @ t=0.56
12.114007423598029
% es.EY (V/m) @ t=0.56
-1.8562270245559347
% es.EZ (V/m) @ t=0.56
9.677776078090169
% es.tEX (V/m) @ t=0.56
12.114007423598032
% es.tEY (V/m) @ t=0.56
0
% es.tEZ (V/m) @ t=0.56
9.67777607809016
% es.Ex (V/m) @ t=0.56
12.114007423598029
% es.Ey (V/m) @ t=0.56
-1.8562270245559347
% es.Ez (V/m) @ t=0.56
9.677776078090169
% es.tEx (V/m) @ t=0.56
12.114007423598032
% es.tEy (V/m) @ t=0.56
0
% es.tEz (V/m) @ t=0.56
9.67777607809016
% V (V) @ t=0.56
0.012910509114311557
% es.normE (V/m) @ t=0.58
15.781932057840606
% es.EX (V/m) @ t=0.58
12.22916923877758
% es.EY (V/m) @ t=0.58
-1.8738732536226994
% es.EZ (V/m) @ t=0.58
9.769777858810759
% es.tEX (V/m) @ t=0.58
12.229169238777601
% es.tEY (V/m) @ t=0.58
0
% es.tEZ (V/m) @ t=0.58
9.769777858810777
% es.Ex (V/m) @ t=0.58
12.22916923877758
% es.Ey (V/m) @ t=0.58
-1.8738732536226994
% es.Ez (V/m) @ t=0.58
9.769777858810759
% es.tEx (V/m) @ t=0.58
12.229169238777601
% es.tEy (V/m) @ t=0.58
0
% es.tEz (V/m) @ t=0.58
9.769777858810777
% V (V) @ t=0.58
0.013033242888892623
% es.normE (V/m) @ t=0.6
15.930550162331313
% es.EX (V/m) @ t=0.6
12.344331053957195
% es.EY (V/m) @ t=0.6
-1.8915194826894197
% es.EZ (V/m) @ t=0.6
9.861779639531322
% es.tEX (V/m) @ t=0.6
12.344331053957257
% es.tEY (V/m) @ t=0.6
0
% es.tEZ (V/m) @ t=0.6
9.861779639531306
% es.Ex (V/m) @ t=0.6
12.344331053957195
% es.Ey (V/m) @ t=0.6
-1.8915194826894197
% es.Ez (V/m) @ t=0.6
9.861779639531322
% es.tEx (V/m) @ t=0.6
12.344331053957257
% es.tEy (V/m) @ t=0.6
0
% es.tEz (V/m) @ t=0.6
9.861779639531306
% V (V) @ t=0.6
0.013155976663473689
% es.normE (V/m) @ t=0.62
16.07916826682205
% es.EX (V/m) @ t=0.62
12.459492869136824
% es.EY (V/m) @ t=0.62
-1.9091657117561862
% es.EZ (V/m) @ t=0.62
9.953781420251914
% es.tEX (V/m) @ t=0.62
12.459492869136882
% es.tEY (V/m) @ t=0.62
0
% es.tEZ (V/m) @ t=0.62
9.953781420251925
% es.Ex (V/m) @ t=0.62
12.459492869136824
% es.Ey (V/m) @ t=0.62
-1.9091657117561862
% es.Ez (V/m) @ t=0.62
9.953781420251914
% es.tEx (V/m) @ t=0.62
12.459492869136882
% es.tEy (V/m) @ t=0.62
0
% es.tEz (V/m) @ t=0.62
9.953781420251925
% V (V) @ t=0.62
0.013278710438054755
% es.normE (V/m) @ t=0.64
16.22778637131281
% es.EX (V/m) @ t=0.64
12.574654684316483
% es.EY (V/m) @ t=0.64
-1.926811940822935
% es.EZ (V/m) @ t=0.64
10.045783200972497
% es.tEX (V/m) @ t=0.64
12.574654684316481
% es.tEY (V/m) @ t=0.64
0
% es.tEZ (V/m) @ t=0.64
10.045783200972481
% es.Ex (V/m) @ t=0.64
12.574654684316483
% es.Ey (V/m) @ t=0.64
-1.926811940822935
% es.Ez (V/m) @ t=0.64
10.045783200972497
% es.tEx (V/m) @ t=0.64
12.574654684316481
% es.tEy (V/m) @ t=0.64
0
% es.tEz (V/m) @ t=0.64
10.045783200972481
% V (V) @ t=0.64
0.013401444212635822
% es.normE (V/m) @ t=0.66
16.376404475803515
% es.EX (V/m) @ t=0.66
12.689816499496105
% es.EY (V/m) @ t=0.66
-1.9444581698896748
% es.EZ (V/m) @ t=0.66
10.137784981693052
% es.tEX (V/m) @ t=0.66
12.689816499496164
% es.tEY (V/m) @ t=0.66
0
% es.tEZ (V/m) @ t=0.66
10.137784981693056
% es.Ex (V/m) @ t=0.66
12.689816499496105
% es.Ey (V/m) @ t=0.66
-1.9444581698896748
% es.Ez (V/m) @ t=0.66
10.137784981693052
% es.tEx (V/m) @ t=0.66
12.689816499496164
% es.tEy (V/m) @ t=0.66
0
% es.tEz (V/m) @ t=0.66
10.137784981693056
% V (V) @ t=0.66
0.013524177987216888
% es.normE (V/m) @ t=0.68
16.52502258029427
% es.EX (V/m) @ t=0.68
12.804978314675763
% es.EY (V/m) @ t=0.68
-1.9621043989564146
% es.EZ (V/m) @ t=0.68
10.229786762413635
% es.tEX (V/m) @ t=0.68
12.80497831467579
% es.tEY (V/m) @ t=0.68
0
% es.tEZ (V/m) @ t=0.68
10.229786762413644
% es.Ex (V/m) @ t=0.68
12.804978314675763
% es.Ey (V/m) @ t=0.68
-1.9621043989564146
% es.Ez (V/m) @ t=0.68
10.229786762413635
% es.tEx (V/m) @ t=0.68
12.80497831467579
% es.tEy (V/m) @ t=0.68
0
% es.tEz (V/m) @ t=0.68
10.229786762413644
% V (V) @ t=0.68
0.013646911761797954
% es.normE (V/m) @ t=0.7
16.673640684785006
% es.EX (V/m) @ t=0.7
12.920140129855392
% es.EY (V/m) @ t=0.7
-1.9797506280231403
% es.EZ (V/m) @ t=0.7
10.321788543134232
% es.tEX (V/m) @ t=0.7
12.920140129855445
% es.tEY (V/m) @ t=0.7
0
% es.tEZ (V/m) @ t=0.7
10.32178854313423
% es.Ex (V/m) @ t=0.7
12.920140129855392
% es.Ey (V/m) @ t=0.7
-1.9797506280231403
% es.Ez (V/m) @ t=0.7
10.321788543134232
% es.tEx (V/m) @ t=0.7
12.920140129855445
% es.tEy (V/m) @ t=0.7
0
% es.tEz (V/m) @ t=0.7
10.32178854313423
% V (V) @ t=0.7
0.01376964553637902
% es.normE (V/m) @ t=0.72
16.822258789275686
% es.EX (V/m) @ t=0.72
13.035301945034952
% es.EY (V/m) @ t=0.72
-1.9973968570899387
% es.EZ (V/m) @ t=0.72
10.413790323854808
% es.tEX (V/m) @ t=0.72
13.035301945035016
% es.tEY (V/m) @ t=0.72
0
% es.tEZ (V/m) @ t=0.72
10.413790323854803
% es.Ex (V/m) @ t=0.72
13.035301945034952
% es.Ey (V/m) @ t=0.72
-1.9973968570899387
% es.Ez (V/m) @ t=0.72
10.413790323854808
% es.tEx (V/m) @ t=0.72
13.035301945035016
% es.tEy (V/m) @ t=0.72
0
% es.tEz (V/m) @ t=0.72
10.413790323854803
% V (V) @ t=0.72
0.013892379310960086
% es.normE (V/m) @ t=0.74
16.970876893766388
% es.EX (V/m) @ t=0.74
13.150463760214567
% es.EY (V/m) @ t=0.74
-2.0150430861566093
% es.EZ (V/m) @ t=0.74
10.505792104575372
% es.tEX (V/m) @ t=0.74
13.150463760214642
% es.tEY (V/m) @ t=0.74
0
% es.tEZ (V/m) @ t=0.74
10.505792104575363
% es.Ex (V/m) @ t=0.74
13.150463760214567
% es.Ey (V/m) @ t=0.74
-2.0150430861566093
% es.Ez (V/m) @ t=0.74
10.505792104575372
% es.tEx (V/m) @ t=0.74
13.150463760214642
% es.tEy (V/m) @ t=0.74
0
% es.tEz (V/m) @ t=0.74
10.505792104575363
% V (V) @ t=0.74
0.01401511308554115
% es.normE (V/m) @ t=0.76
17.119494998257153
% es.EX (V/m) @ t=0.76
13.265625575394232
% es.EY (V/m) @ t=0.76
-2.03268931522339
% es.EZ (V/m) @ t=0.76
10.597793885295957
% es.tEX (V/m) @ t=0.76
13.265625575394296
% es.tEY (V/m) @ t=0.76
0
% es.tEZ (V/m) @ t=0.76
10.597793885295937
% es.Ex (V/m) @ t=0.76
13.265625575394232
% es.Ey (V/m) @ t=0.76
-2.03268931522339
% es.Ez (V/m) @ t=0.76
10.597793885295957
% es.tEx (V/m) @ t=0.76
13.265625575394296
% es.tEy (V/m) @ t=0.76
0
% es.tEz (V/m) @ t=0.76
10.597793885295937
% V (V) @ t=0.76
0.014137846860122219
% es.normE (V/m) @ t=0.78
17.27845771713246
% es.EX (V/m) @ t=0.78
13.388803268105903
% es.EY (V/m) @ t=0.78
-2.0515638190546
% es.EZ (V/m) @ t=0.78
10.69619948129656
% es.tEX (V/m) @ t=0.78
13.388803268105946
% es.tEY (V/m) @ t=0.78
0
% es.tEZ (V/m) @ t=0.78
10.696199481296558
% es.Ex (V/m) @ t=0.78
13.388803268105903
% es.Ey (V/m) @ t=0.78
-2.0515638190546
% es.Ez (V/m) @ t=0.78
10.69619948129656
% es.tEx (V/m) @ t=0.78
13.388803268105946
% es.tEy (V/m) @ t=0.78
0
% es.tEz (V/m) @ t=0.78
10.696199481296558
% V (V) @ t=0.78
0.014269123568791021
% es.normE (V/m) @ t=0.8
17.44338774610941
% es.EX (V/m) @ t=0.8
13.51660493472252
% es.EY (V/m) @ t=0.8
-2.0711468554745522
% es.EZ (V/m) @ t=0.8
10.79829913008522
% es.tEX (V/m) @ t=0.8
13.516604934722576
% es.tEY (V/m) @ t=0.8
0
% es.tEZ (V/m) @ t=0.8
10.798299130085235
% es.Ex (V/m) @ t=0.8
13.51660493472252
% es.Ey (V/m) @ t=0.8
-2.0711468554745522
% es.Ez (V/m) @ t=0.8
10.79829913008522
% es.tEx (V/m) @ t=0.8
13.516604934722576
% es.tEy (V/m) @ t=0.8
0
% es.tEz (V/m) @ t=0.8
10.798299130085235
% V (V) @ t=0.8
0.014405328284921765
% es.normE (V/m) @ t=0.82
17.6083177750863
% es.EX (V/m) @ t=0.82
13.644406601339075
% es.EY (V/m) @ t=0.82
-2.090729891894501
% es.EZ (V/m) @ t=0.82
10.900398778873875
% es.tEX (V/m) @ t=0.82
13.64440660133912
% es.tEY (V/m) @ t=0.82
0
% es.tEZ (V/m) @ t=0.82
10.900398778873855
% es.Ex (V/m) @ t=0.82
13.644406601339075
% es.Ey (V/m) @ t=0.82
-2.090729891894501
% es.Ez (V/m) @ t=0.82
10.900398778873875
% es.tEx (V/m) @ t=0.82
13.64440660133912
% es.tEy (V/m) @ t=0.82
0
% es.tEz (V/m) @ t=0.82
10.900398778873855
% V (V) @ t=0.82
0.014541533001052511
% es.normE (V/m) @ t=0.84
17.773247804063175
% es.EX (V/m) @ t=0.84
13.772208267955598
% es.EY (V/m) @ t=0.84
-2.1103129283144995
% es.EZ (V/m) @ t=0.84
11.002498427662534
% es.tEX (V/m) @ t=0.84
13.772208267955664
% es.tEY (V/m) @ t=0.84
0
% es.tEZ (V/m) @ t=0.84
11.002498427662518
% es.Ex (V/m) @ t=0.84
13.772208267955598
% es.Ey (V/m) @ t=0.84
-2.1103129283144995
% es.Ez (V/m) @ t=0.84
11.002498427662534
% es.tEx (V/m) @ t=0.84
13.772208267955664
% es.tEy (V/m) @ t=0.84
0
% es.tEz (V/m) @ t=0.84
11.002498427662518
% V (V) @ t=0.84
0.014677737717183259
% es.normE (V/m) @ t=0.86
17.938177833040115
% es.EX (V/m) @ t=0.86
13.900009934572209
% es.EY (V/m) @ t=0.86
-2.1298959647344624
% es.EZ (V/m) @ t=0.86
11.104598076451182
% es.tEX (V/m) @ t=0.86
13.900009934572264
% es.tEY (V/m) @ t=0.86
0
% es.tEZ (V/m) @ t=0.86
11.104598076451182
% es.Ex (V/m) @ t=0.86
13.900009934572209
% es.Ey (V/m) @ t=0.86
-2.1298959647344624
% es.Ez (V/m) @ t=0.86
11.104598076451182
% es.tEx (V/m) @ t=0.86
13.900009934572264
% es.tEy (V/m) @ t=0.86
0
% es.tEz (V/m) @ t=0.86
11.104598076451182
% V (V) @ t=0.86
0.014813942433314006
% es.normE (V/m) @ t=0.88
18.103107862016934
% es.EX (V/m) @ t=0.88
14.027811601188692
% es.EY (V/m) @ t=0.88
-2.1494790011544502
% es.EZ (V/m) @ t=0.88
11.206697725239806
% es.tEX (V/m) @ t=0.88
14.027811601188752
% es.tEY (V/m) @ t=0.88
0
% es.tEZ (V/m) @ t=0.88
11.206697725239819
% es.Ex (V/m) @ t=0.88
14.027811601188692
% es.Ey (V/m) @ t=0.88
-2.1494790011544502
% es.Ez (V/m) @ t=0.88
11.206697725239806
% es.tEx (V/m) @ t=0.88
14.027811601188752
% es.tEy (V/m) @ t=0.88
0
% es.tEz (V/m) @ t=0.88
11.206697725239819
% V (V) @ t=0.88
0.01495014714944475
% es.normE (V/m) @ t=0.9
18.268037890993888
% es.EX (V/m) @ t=0.9
14.1556132678053
% es.EY (V/m) @ t=0.9
-2.1690620375744167
% es.EZ (V/m) @ t=0.9
11.308797374028487
% es.tEX (V/m) @ t=0.9
14.155613267805382
% es.tEY (V/m) @ t=0.9
0
% es.tEZ (V/m) @ t=0.9
11.308797374028481
% es.Ex (V/m) @ t=0.9
14.1556132678053
% es.Ey (V/m) @ t=0.9
-2.1690620375744167
% es.Ez (V/m) @ t=0.9
11.308797374028487
% es.tEx (V/m) @ t=0.9
14.155613267805382
% es.tEy (V/m) @ t=0.9
0
% es.tEz (V/m) @ t=0.9
11.308797374028481
% V (V) @ t=0.9
0.015086351865575498
% es.normE (V/m) @ t=0.92
18.432967919970764
% es.EX (V/m) @ t=0.92
14.283414934421842
% es.EY (V/m) @ t=0.92
-2.188645073994376
% es.EZ (V/m) @ t=0.92
11.410897022817135
% es.tEX (V/m) @ t=0.92
14.283414934421899
% es.tEY (V/m) @ t=0.92
0
% es.tEZ (V/m) @ t=0.92
11.410897022817128
% es.Ex (V/m) @ t=0.92
14.283414934421842
% es.Ey (V/m) @ t=0.92
-2.188645073994376
% es.Ez (V/m) @ t=0.92
11.410897022817135
% es.tEx (V/m) @ t=0.92
14.283414934421899
% es.tEy (V/m) @ t=0.92
0
% es.tEz (V/m) @ t=0.92
11.410897022817128
% V (V) @ t=0.92
0.015222556581706244
% es.normE (V/m) @ t=0.94
18.597897948947708
% es.EX (V/m) @ t=0.94
14.41121660103845
% es.EY (V/m) @ t=0.94
-2.208228110414339
% es.EZ (V/m) @ t=0.94
11.512996671605801
% es.tEX (V/m) @ t=0.94
14.411216601038527
% es.tEY (V/m) @ t=0.94
0
% es.tEZ (V/m) @ t=0.94
11.512996671605793
% es.Ex (V/m) @ t=0.94
14.41121660103845
% es.Ey (V/m) @ t=0.94
-2.208228110414339
% es.Ez (V/m) @ t=0.94
11.512996671605801
% es.tEx (V/m) @ t=0.94
14.411216601038527
% es.tEy (V/m) @ t=0.94
0
% es.tEz (V/m) @ t=0.94
11.512996671605793
% V (V) @ t=0.94
0.015358761297836991
% es.normE (V/m) @ t=0.96
18.762827977924587
% es.EX (V/m) @ t=0.96
14.539018267655004
% es.EY (V/m) @ t=0.96
-2.2278111468342985
% es.EZ (V/m) @ t=0.96
11.615096320394436
% es.tEX (V/m) @ t=0.96
14.539018267655042
% es.tEY (V/m) @ t=0.96
0
% es.tEZ (V/m) @ t=0.96
11.615096320394443
% es.Ex (V/m) @ t=0.96
14.539018267655004
% es.Ey (V/m) @ t=0.96
-2.2278111468342985
% es.Ez (V/m) @ t=0.96
11.615096320394436
% es.tEx (V/m) @ t=0.96
14.539018267655042
% es.tEy (V/m) @ t=0.96
0
% es.tEz (V/m) @ t=0.96
11.615096320394443
% V (V) @ t=0.96
0.015494966013967736
% es.normE (V/m) @ t=0.98
18.92775800690149
% es.EX (V/m) @ t=0.98
14.666819934271558
% es.EY (V/m) @ t=0.98
-2.247394183254233
% es.EZ (V/m) @ t=0.98
11.71719596918311
% es.tEX (V/m) @ t=0.98
14.666819934271615
% es.tEY (V/m) @ t=0.98
0
% es.tEZ (V/m) @ t=0.98
11.717195969183106
% es.Ex (V/m) @ t=0.98
14.666819934271558
% es.Ey (V/m) @ t=0.98
-2.247394183254233
% es.Ez (V/m) @ t=0.98
11.71719596918311
% es.tEx (V/m) @ t=0.98
14.666819934271615
% es.tEy (V/m) @ t=0.98
0
% es.tEz (V/m) @ t=0.98
11.717195969183106
% V (V) @ t=0.98
0.015631170730098478
% es.normE (V/m) @ t=1
19.09268803587839
% es.EX (V/m) @ t=1
14.794621600888124
% es.EY (V/m) @ t=1
-2.2669772196742812
% es.EZ (V/m) @ t=1
11.81929561797174
% es.tEX (V/m) @ t=1
14.794621600888188
% es.tEY (V/m) @ t=1
0
% es.tEZ (V/m) @ t=1
11.81929561797177
% es.Ex (V/m) @ t=1
14.794621600888124
% es.Ey (V/m) @ t=1
-2.2669772196742812
% es.Ez (V/m) @ t=1
11.81929561797174
% es.tEx (V/m) @ t=1
14.794621600888188
% es.tEy (V/m) @ t=1
0
% es.tEz (V/m) @ t=1
11.81929561797177
% V (V) @ t=1
0.01576737544622923
% es.normE (V/m) @ t=1.02
19.2576180648553
% es.EX (V/m) @ t=1.02
14.922423267504708
% es.EY (V/m) @ t=1.02
-2.2865602560942158
% es.EZ (V/m) @ t=1.02
11.921395266760396
% es.tEX (V/m) @ t=1.02
14.922423267504762
% es.tEY (V/m) @ t=1.02
0
% es.tEZ (V/m) @ t=1.02
11.921395266760417
% es.Ex (V/m) @ t=1.02
14.922423267504708
% es.Ey (V/m) @ t=1.02
-2.2865602560942158
% es.Ez (V/m) @ t=1.02
11.921395266760396
% es.tEx (V/m) @ t=1.02
14.922423267504762
% es.tEy (V/m) @ t=1.02
0
% es.tEz (V/m) @ t=1.02
11.921395266760417
% V (V) @ t=1.02
0.015903580162359973
% es.normE (V/m) @ t=1.04
19.429338138589316
% es.EX (V/m) @ t=1.04
15.055486436048508
% es.EY (V/m) @ t=1.04
-2.306949471809464
% es.EZ (V/m) @ t=1.04
12.027698286511772
% es.tEX (V/m) @ t=1.04
15.055486436048561
% es.tEY (V/m) @ t=1.04
0
% es.tEZ (V/m) @ t=1.04
12.027698286511749
% es.Ex (V/m) @ t=1.04
15.055486436048508
% es.Ey (V/m) @ t=1.04
-2.306949471809464
% es.Ez (V/m) @ t=1.04
12.027698286511772
% es.tEx (V/m) @ t=1.04
15.055486436048561
% es.tEy (V/m) @ t=1.04
0
% es.tEz (V/m) @ t=1.04
12.027698286511749
% V (V) @ t=1.04
0.016045392225741053
% es.normE (V/m) @ t=1.06