% Model:              1 neuron.mph
% Version:            COMSOL 6.1.0.252
% Date:               Mar 22 2023, 18:04
% Dimension:          0
% Nodes:              14017
% Expressions:        14017
% Description:        Electric field norm, Electric field, X component, Electric field, Y component, Electric field, Z component, Tangential electric field, X component, Tangential electric field, Y component, Tangential electric field, Z component, Electric field, x component, Electric field, y component, Electric field, z component, Tangential electric field, x component, Tangential electric field, y component, Tangential electric field, z component, Electric potential
% Length unit:        mm
% x
1.33
% y
12.2
% z
1
% es.normE (V/m) @ t=0
2.8519253949417576
% es.EX (V/m) @ t=0
0.8802833406893418
% es.EY (V/m) @ t=0
0.2132611735115122
% es.EZ (V/m) @ t=0
2.7042547398420345
% es.tEX (V/m) @ t=0
0.8802833406893456
% es.tEY (V/m) @ t=0
0
% es.tEZ (V/m) @ t=0
2.7042547398420425
% es.Ex (V/m) @ t=0
0.8802833406893418
% es.Ey (V/m) @ t=0
0.2132611735115122
% es.Ez (V/m) @ t=0
2.7042547398420345
% es.tEx (V/m) @ t=0
0.8802833406893456
% es.tEy (V/m) @ t=0
0
% es.tEz (V/m) @ t=0
2.7042547398420425
% V (V) @ t=0
0.013338525186317273
% es.normE (V/m) @ t=0.02
2.4632328155930105
% es.EX (V/m) @ t=0.02
0.7603083927510474
% es.EY (V/m) @ t=0.02
0.18419553350132178
% es.EZ (V/m) @ t=0.02
2.3356883838328604
% es.tEX (V/m) @ t=0.02
0.7603083927510568
% es.tEY (V/m) @ t=0.02
0
% es.tEZ (V/m) @ t=0.02
2.335688383832853
% es.Ex (V/m) @ t=0.02
0.7603083927510474
% es.Ey (V/m) @ t=0.02
0.18419553350132178
% es.Ez (V/m) @ t=0.02
2.3356883838328604
% es.tEx (V/m) @ t=0.02
0.7603083927510568
% es.tEy (V/m) @ t=0.02
0
% es.tEz (V/m) @ t=0.02
2.335688383832853
% V (V) @ t=0.02
0.0115206003968836
% es.normE (V/m) @ t=0.04
2.485888736344769
% es.EX (V/m) @ t=0.04
0.7673014343234469
% es.EY (V/m) @ t=0.04
0.18588969615501227
% es.EZ (V/m) @ t=0.04
2.357171196934954
% es.tEX (V/m) @ t=0.04
0.7673014343234499
% es.tEY (V/m) @ t=0.04
0
% es.tEZ (V/m) @ t=0.04
2.3571711969349387
% es.Ex (V/m) @ t=0.04
0.7673014343234469
% es.Ey (V/m) @ t=0.04
0.18588969615501227
% es.Ez (V/m) @ t=0.04
2.357171196934954
% es.tEx (V/m) @ t=0.04
0.7673014343234499
% es.tEy (V/m) @ t=0.04
0
% es.tEz (V/m) @ t=0.04
2.3571711969349387
% V (V) @ t=0.04
0.011626562606899525
% es.normE (V/m) @ t=0.06
2.50870668976414
% es.EX (V/m) @ t=0.06
0.774344487561187
% es.EY (V/m) @ t=0.06
0.18759597682055662
% es.EZ (V/m) @ t=0.06
2.3788076532317635
% es.tEX (V/m) @ t=0.06
0.7743444875611942
% es.tEY (V/m) @ t=0.06
0
% es.tEZ (V/m) @ t=0.06
2.3788076532317746
% es.Ex (V/m) @ t=0.06
0.774344487561187
% es.Ey (V/m) @ t=0.06
0.18759597682055662
% es.Ez (V/m) @ t=0.06
2.3788076532317635
% es.tEx (V/m) @ t=0.06
0.7743444875611942
% es.tEy (V/m) @ t=0.06
0
% es.tEz (V/m) @ t=0.06
2.3788076532317746
% V (V) @ t=0.06
0.011733282786990757
% es.normE (V/m) @ t=0.08
2.5319688045021103
% es.EX (V/m) @ t=0.08
0.7815246374453112
% es.EY (V/m) @ t=0.08
0.18933547049575383
% es.EZ (V/m) @ t=0.08
2.400865272346844
% es.tEX (V/m) @ t=0.08
0.7815246374453224
% es.tEY (V/m) @ t=0.08
0
% es.tEZ (V/m) @ t=0.08
2.4008652723468416
% es.Ex (V/m) @ t=0.08
0.7815246374453112
% es.Ey (V/m) @ t=0.08
0.18933547049575383
% es.Ez (V/m) @ t=0.08
2.400865272346844
% es.tEx (V/m) @ t=0.08
0.7815246374453224
% es.tEy (V/m) @ t=0.08
0
% es.tEz (V/m) @ t=0.08
2.4008652723468416
% V (V) @ t=0.08
0.01184208027734915
% es.normE (V/m) @ t=0.1
2.5553396019671606
% es.EX (V/m) @ t=0.1
0.7887383337838116
% es.EY (V/m) @ t=0.1
0.19108309112914879
% es.EZ (V/m) @ t=0.1
2.423025946639661
% es.tEX (V/m) @ t=0.1
0.7887383337838187
% es.tEY (V/m) @ t=0.1
0
% es.tEZ (V/m) @ t=0.1
2.4230259466396458
% es.Ex (V/m) @ t=0.1
0.7887383337838116
% es.Ey (V/m) @ t=0.1
0.19108309112914879
% es.Ez (V/m) @ t=0.1
2.423025946639661
% es.tEx (V/m) @ t=0.1
0.7887383337838187
% es.tEy (V/m) @ t=0.1
0
% es.tEz (V/m) @ t=0.1
2.4230259466396458
% V (V) @ t=0.1
0.011951386068937924
% es.normE (V/m) @ t=0.12
2.5787103994321754
% es.EX (V/m) @ t=0.12
0.7959520301223034
% es.EY (V/m) @ t=0.12
0.19283071176251176
% es.EZ (V/m) @ t=0.12
2.445186620932446
% es.tEX (V/m) @ t=0.12
0.7959520301223009
% es.tEY (V/m) @ t=0.12
0
% es.tEZ (V/m) @ t=0.12
2.4451866209324606
% es.Ex (V/m) @ t=0.12
0.7959520301223034
% es.Ey (V/m) @ t=0.12
0.19283071176251176
% es.Ez (V/m) @ t=0.12
2.445186620932446
% es.tEx (V/m) @ t=0.12
0.7959520301223009
% es.tEy (V/m) @ t=0.12
0
% es.tEz (V/m) @ t=0.12
2.4451866209324606
% V (V) @ t=0.12
0.012060691860526699
% es.normE (V/m) @ t=0.14
2.602795699235697
% es.EX (V/m) @ t=0.14
0.803386268860854
% es.EY (V/m) @ t=0.14
0.1946317598038324
% es.EZ (V/m) @ t=0.14
2.468024800592082
% es.tEX (V/m) @ t=0.14
0.8033862688608622
% es.tEY (V/m) @ t=0.14
0
% es.tEZ (V/m) @ t=0.14
2.468024800592067
% es.Ex (V/m) @ t=0.14
0.803386268860854
% es.Ey (V/m) @ t=0.14
0.1946317598038324
% es.Ez (V/m) @ t=0.14
2.468024800592082
% es.tEx (V/m) @ t=0.14
0.8033862688608622
% es.tEy (V/m) @ t=0.14
0
% es.tEz (V/m) @ t=0.14
2.468024800592067
% V (V) @ t=0.14
0.012173339236419951
% es.normE (V/m) @ t=0.16
2.6273319762736604
% es.EX (V/m) @ t=0.16
0.8109597088256477
% es.EY (V/m) @ t=0.16
0.19646652998063818
% es.EZ (V/m) @ t=0.16
2.49129060585935
% es.tEX (V/m) @ t=0.16
0.8109597088256564
% es.tEY (V/m) @ t=0.16
0
% es.tEZ (V/m) @ t=0.16
2.491290605859362
% es.Ex (V/m) @ t=0.16
0.8109597088256477
% es.Ey (V/m) @ t=0.16
0.19646652998063818
% es.Ez (V/m) @ t=0.16
2.49129060585935
% es.tEx (V/m) @ t=0.16
0.8109597088256564
% es.tEy (V/m) @ t=0.16
0
% es.tEz (V/m) @ t=0.16
2.491290605859362
% V (V) @ t=0.16
0.012288095742496865
% es.normE (V/m) @ t=0.18
2.651868253311612
% es.EX (V/m) @ t=0.18
0.818533148790437
% es.EY (V/m) @ t=0.18
0.19830130015744862
% es.EZ (V/m) @ t=0.18
2.5145564111266068
% es.tEX (V/m) @ t=0.18
0.8185331487904364
% es.tEY (V/m) @ t=0.18
0
% es.tEZ (V/m) @ t=0.18
2.514556411126602
% es.Ex (V/m) @ t=0.18
0.818533148790437
% es.Ey (V/m) @ t=0.18
0.19830130015744862
% es.Ez (V/m) @ t=0.18
2.5145564111266068
% es.tEx (V/m) @ t=0.18
0.8185331487904364
% es.tEy (V/m) @ t=0.18
0
% es.tEz (V/m) @ t=0.18
2.514556411126602
% V (V) @ t=0.18
0.012402852248573779
% es.normE (V/m) @ t=0.2
2.6764045303495614
% es.EX (V/m) @ t=0.2
0.8261065887552133
% es.EY (V/m) @ t=0.2
0.20013607033423786
% es.EZ (V/m) @ t=0.2
2.5378222163938666
% es.tEX (V/m) @ t=0.2
0.8261065887552235
% es.tEY (V/m) @ t=0.2
0
% es.tEZ (V/m) @ t=0.2
2.5378222163938684
% es.Ex (V/m) @ t=0.2
0.8261065887552133
% es.Ey (V/m) @ t=0.2
0.20013607033423786
% es.Ez (V/m) @ t=0.2
2.5378222163938666
% es.tEx (V/m) @ t=0.2
0.8261065887552235
% es.tEy (V/m) @ t=0.2
0
% es.tEz (V/m) @ t=0.2
2.5378222163938684
% V (V) @ t=0.2
0.012517608754650696
% es.normE (V/m) @ t=0.22
2.70094080738754
% es.EX (V/m) @ t=0.22
0.8336800287200195
% es.EY (V/m) @ t=0.22
0.20197084051103775
% es.EZ (V/m) @ t=0.22
2.561088021661147
% es.tEX (V/m) @ t=0.22
0.8336800287200248
% es.tEY (V/m) @ t=0.22
0
% es.tEZ (V/m) @ t=0.22
2.5610880216611385
% es.Ex (V/m) @ t=0.22
0.8336800287200195
% es.Ey (V/m) @ t=0.22
0.20197084051103775
% es.Ez (V/m) @ t=0.22
2.561088021661147
% es.tEx (V/m) @ t=0.22
0.8336800287200248
% es.tEy (V/m) @ t=0.22
0
% es.tEz (V/m) @ t=0.22
2.5610880216611385
% V (V) @ t=0.22
0.01263236526072761
% es.normE (V/m) @ t=0.24
2.7254770844254903
% es.EX (V/m) @ t=0.24
0.841253468684799
% es.EY (V/m) @ t=0.24
0.20380561068785497
% es.EZ (V/m) @ t=0.24
2.5843538269284045
% es.tEX (V/m) @ t=0.24
0.8412534686847977
% es.tEY (V/m) @ t=0.24
0
% es.tEZ (V/m) @ t=0.24
2.584353826928405
% es.Ex (V/m) @ t=0.24
0.841253468684799
% es.Ey (V/m) @ t=0.24
0.20380561068785497
% es.Ez (V/m) @ t=0.24
2.5843538269284045
% es.tEx (V/m) @ t=0.24
0.8412534686847977
% es.tEy (V/m) @ t=0.24
0
% es.tEz (V/m) @ t=0.24
2.584353826928405
% V (V) @ t=0.24
0.012747121766804523
% es.normE (V/m) @ t=0.26
2.7506180487012974
% es.EX (V/m) @ t=0.26
0.8490135296589725
% es.EY (V/m) @ t=0.26
0.20568561645349104
% es.EZ (V/m) @ t=0.26
2.6081930153441415
% es.tEX (V/m) @ t=0.26
0.8490135296589827
% es.tEY (V/m) @ t=0.26
0
% es.tEZ (V/m) @ t=0.26
2.6081930153441473
% es.Ex (V/m) @ t=0.26
0.8490135296589725
% es.Ey (V/m) @ t=0.26
0.20568561645349104
% es.Ez (V/m) @ t=0.26
2.6081930153441415
% es.tEx (V/m) @ t=0.26
0.8490135296589827
% es.tEy (V/m) @ t=0.26
0
% es.tEz (V/m) @ t=0.26
2.6081930153441473
% V (V) @ t=0.26
0.012864708224600625
% es.normE (V/m) @ t=0.28
2.7777569232769244
% es.EX (V/m) @ t=0.28
0.8573901937520672
% es.EY (V/m) @ t=0.28
0.20771508237506553
% es.EZ (V/m) @ t=0.28
2.633926684123221
% es.tEX (V/m) @ t=0.28
0.8573901937520674
% es.tEY (V/m) @ t=0.28
0
% es.tEZ (V/m) @ t=0.28
2.6339266841232067
% es.Ex (V/m) @ t=0.28
0.8573901937520672
% es.Ey (V/m) @ t=0.28
0.20771508237506553
% es.Ez (V/m) @ t=0.28
2.633926684123221
% es.tEx (V/m) @ t=0.28
0.8573901937520674
% es.tEy (V/m) @ t=0.28
0
% es.tEz (V/m) @ t=0.28
2.6339266841232067
% V (V) @ t=0.28
0.012991644953634463
% es.normE (V/m) @ t=0.3
2.8048957978525504
% es.EX (V/m) @ t=0.3
0.8657668578451598
% es.EY (V/m) @ t=0.3
0.2097445482966207
% es.EZ (V/m) @ t=0.3
2.6596603529022955
% es.tEX (V/m) @ t=0.3
0.8657668578451663
% es.tEY (V/m) @ t=0.3
0
% es.tEZ (V/m) @ t=0.3
2.6596603529023
% es.Ex (V/m) @ t=0.3
0.8657668578451598
% es.Ey (V/m) @ t=0.3
0.2097445482966207
% es.Ez (V/m) @ t=0.3
2.6596603529022955
% es.tEx (V/m) @ t=0.3
0.8657668578451663
% es.tEy (V/m) @ t=0.3
0
% es.tEz (V/m) @ t=0.3
2.6596603529023
% V (V) @ t=0.3
0.013118581682668301
% es.normE (V/m) @ t=0.32
2.832034672428203
% es.EX (V/m) @ t=0.32
0.8741435219382738
% es.EY (V/m) @ t=0.32
0.21177401421820874
% es.EZ (V/m) @ t=0.32
2.6853940216813825
% es.tEX (V/m) @ t=0.32
0.8741435219382723
% es.tEY (V/m) @ t=0.32
0
% es.tEZ (V/m) @ t=0.32
2.6853940216814074
% es.Ex (V/m) @ t=0.32
0.8741435219382738
% es.Ey (V/m) @ t=0.32
0.21177401421820874
% es.Ez (V/m) @ t=0.32
2.6853940216813825
% es.tEx (V/m) @ t=0.32
0.8741435219382723
% es.tEy (V/m) @ t=0.32
0
% es.tEz (V/m) @ t=0.32
2.6853940216814074
% V (V) @ t=0.32
0.01324551841170214
% es.normE (V/m) @ t=0.34
2.859173547003839
% es.EX (V/m) @ t=0.34
0.8825201860313547
% es.EY (V/m) @ t=0.34
0.21380348013976214
% es.EZ (V/m) @ t=0.34
2.7111276904604598
% es.tEX (V/m) @ t=0.34
0.882520186031357
% es.tEY (V/m) @ t=0.34
0
% es.tEZ (V/m) @ t=0.34
2.7111276904604544
% es.Ex (V/m) @ t=0.34
0.8825201860313547
% es.Ey (V/m) @ t=0.34
0.21380348013976214
% es.Ez (V/m) @ t=0.34
2.7111276904604598
% es.tEx (V/m) @ t=0.34
0.882520186031357
% es.tEy (V/m) @ t=0.34
0
% es.tEz (V/m) @ t=0.34
2.7111276904604544
% V (V) @ t=0.34
0.01337245514073598
% es.normE (V/m) @ t=0.36
2.886312421579479
% es.EX (V/m) @ t=0.36
0.8908968501244543
% es.EY (V/m) @ t=0.36
0.21583294606135017
% es.EZ (V/m) @ t=0.36
2.7368613592395272
% es.tEX (V/m) @ t=0.36
0.890896850124463
% es.tEY (V/m) @ t=0.36
0
% es.tEZ (V/m) @ t=0.36
2.73686135923953
% es.Ex (V/m) @ t=0.36
0.8908968501244543
% es.Ey (V/m) @ t=0.36
0.21583294606135017
% es.Ez (V/m) @ t=0.36
2.7368613592395272
% es.tEx (V/m) @ t=0.36
0.890896850124463
% es.tEy (V/m) @ t=0.36
0
% es.tEz (V/m) @ t=0.36
2.73686135923953
% V (V) @ t=0.36
0.013499391869769818
% es.normE (V/m) @ t=0.38
2.9134512961551438
% es.EX (V/m) @ t=0.38
0.8992735142175479
% es.EY (V/m) @ t=0.38
0.2178624119828878
% es.EZ (V/m) @ t=0.38
2.7625950280186213
% es.tEX (V/m) @ t=0.38
0.8992735142175547
% es.tEY (V/m) @ t=0.38
0
% es.tEZ (V/m) @ t=0.38
2.7625950280186373
% es.Ex (V/m) @ t=0.38
0.8992735142175479
% es.Ey (V/m) @ t=0.38
0.2178624119828878
% es.Ez (V/m) @ t=0.38
2.7625950280186213
% es.tEx (V/m) @ t=0.38
0.8992735142175547
% es.tEy (V/m) @ t=0.38
0
% es.tEz (V/m) @ t=0.38
2.7625950280186373
% V (V) @ t=0.38
0.013626328598803656
% es.normE (V/m) @ t=0.4
2.9405901707308146
% es.EX (V/m) @ t=0.4
0.9076501783106492
% es.EY (V/m) @ t=0.4
0.2198918779044905
% es.EZ (V/m) @ t=0.4
2.7883286967977092
% es.tEX (V/m) @ t=0.4
0.9076501783106465
% es.tEY (V/m) @ t=0.4
0
% es.tEZ (V/m) @ t=0.4
2.7883286967976986
% es.Ex (V/m) @ t=0.4
0.9076501783106492
% es.Ey (V/m) @ t=0.4
0.2198918779044905
% es.Ez (V/m) @ t=0.4
2.7883286967977092
% es.tEx (V/m) @ t=0.4
0.9076501783106465
% es.tEy (V/m) @ t=0.4
0
% es.tEz (V/m) @ t=0.4
2.7883286967976986
% V (V) @ t=0.4
0.013753265327837494
% es.normE (V/m) @ t=0.42
2.9677290453064638
% es.EX (V/m) @ t=0.42
0.9160268424037523
% es.EY (V/m) @ t=0.42
0.2219213438260328
% es.EZ (V/m) @ t=0.42
2.814062365576773
% es.tEX (V/m) @ t=0.42
0.9160268424037525
% es.tEY (V/m) @ t=0.42
0
% es.tEZ (V/m) @ t=0.42
2.814062365576792
% es.Ex (V/m) @ t=0.42
0.9160268424037523
% es.Ey (V/m) @ t=0.42
0.2219213438260328
% es.Ez (V/m) @ t=0.42
2.814062365576773
% es.tEx (V/m) @ t=0.42
0.9160268424037525
% es.tEy (V/m) @ t=0.42
0
% es.tEz (V/m) @ t=0.42
2.814062365576792
% V (V) @ t=0.42
0.013880202056871332
% es.normE (V/m) @ t=0.44
2.9948679198821564
% es.EX (V/m) @ t=0.44
0.9244035064968537
% es.EY (V/m) @ t=0.44
0.22395080974762838
% es.EZ (V/m) @ t=0.44
2.8397960343558744
% es.tEX (V/m) @ t=0.44
0.9244035064968443
% es.tEY (V/m) @ t=0.44
0
% es.tEZ (V/m) @ t=0.44
2.8397960343558992
% es.Ex (V/m) @ t=0.44
0.9244035064968537
% es.Ey (V/m) @ t=0.44
0.22395080974762838
% es.Ez (V/m) @ t=0.44
2.8397960343558744
% es.tEx (V/m) @ t=0.44
0.9244035064968443
% es.tEy (V/m) @ t=0.44
0
% es.tEz (V/m) @ t=0.44
2.8397960343558992
% V (V) @ t=0.44
0.014007138785905173
% es.normE (V/m) @ t=0.46
3.022006794457827
% es.EX (V/m) @ t=0.46
0.9327801705899412
% es.EY (V/m) @ t=0.46
0.22598027566918089
% es.EZ (V/m) @ t=0.46
2.865529703134955
% es.tEX (V/m) @ t=0.46
0.9327801705899361
% es.tEY (V/m) @ t=0.46
0
% es.tEZ (V/m) @ t=0.46
2.865529703134957
% es.Ex (V/m) @ t=0.46
0.9327801705899412
% es.Ey (V/m) @ t=0.46
0.22598027566918089
% es.Ez (V/m) @ t=0.46
2.865529703134955
% es.tEx (V/m) @ t=0.46
0.9327801705899361
% es.tEy (V/m) @ t=0.46
0
% es.tEz (V/m) @ t=0.46
2.865529703134957
% V (V) @ t=0.46
0.01413407551493901
% es.normE (V/m) @ t=0.48
3.049145669033501
% es.EX (V/m) @ t=0.48
0.9411568346830486
% es.EY (V/m) @ t=0.48
0.22800974159074383
% es.EZ (V/m) @ t=0.48
2.891263371914028
% es.tEX (V/m) @ t=0.48
0.9411568346830421
% es.tEY (V/m) @ t=0.48
0
% es.tEZ (V/m) @ t=0.48
2.8912633719140217
% es.Ex (V/m) @ t=0.48
0.9411568346830486
% es.Ey (V/m) @ t=0.48
0.22800974159074383
% es.Ez (V/m) @ t=0.48
2.891263371914028
% es.tEx (V/m) @ t=0.48
0.9411568346830421
% es.tEy (V/m) @ t=0.48
0
% es.tEz (V/m) @ t=0.48
2.8912633719140217
% V (V) @ t=0.48
0.014261012243972849
% es.normE (V/m) @ t=0.5
3.076284543609168
% es.EX (V/m) @ t=0.5
0.9495334987761286
% es.EY (V/m) @ t=0.5
0.23003920751228968
% es.EZ (V/m) @ t=0.5
2.916997040693099
% es.tEX (V/m) @ t=0.5
0.9495334987761339
% es.tEY (V/m) @ t=0.5
0
% es.tEZ (V/m) @ t=0.5
2.9169970406931114
% es.Ex (V/m) @ t=0.5
0.9495334987761286
% es.Ey (V/m) @ t=0.5
0.23003920751228968
% es.Ez (V/m) @ t=0.5
2.916997040693099
% es.tEx (V/m) @ t=0.5
0.9495334987761339
% es.tEy (V/m) @ t=0.5
0
% es.tEz (V/m) @ t=0.5
2.9169970406931114
% V (V) @ t=0.5
0.014387948973006685
% es.normE (V/m) @ t=0.52
3.104800316493211
% es.EX (V/m) @ t=0.52
0.958335154786752
% es.EY (V/m) @ t=0.52
0.2321716389919095
% es.EZ (V/m) @ t=0.52
2.9440363144185664
% es.tEX (V/m) @ t=0.52
0.9583351547867522
% es.tEY (V/m) @ t=0.52
0
% es.tEZ (V/m) @ t=0.52
2.9440363144185753
% es.Ex (V/m) @ t=0.52
0.958335154786752
% es.Ey (V/m) @ t=0.52
0.2321716389919095
% es.Ez (V/m) @ t=0.52
2.9440363144185664
% es.tEx (V/m) @ t=0.52
0.9583351547867522
% es.tEy (V/m) @ t=0.52
0
% es.tEz (V/m) @ t=0.52
2.9440363144185753
% V (V) @ t=0.52
0.014521325892631517
% es.normE (V/m) @ t=0.54
3.134863094815891
% es.EX (V/m) @ t=0.54
0.967614307794628
% es.EY (V/m) @ t=0.54
0.2344197567769608
% es.EZ (V/m) @ t=0.54
2.9725424923740107
% es.tEX (V/m) @ t=0.54
0.9676143077946335
% es.tEY (V/m) @ t=0.54
0
% es.tEZ (V/m) @ t=0.54
2.9725424923740107
% es.Ex (V/m) @ t=0.54
0.967614307794628
% es.Ey (V/m) @ t=0.54
0.2344197567769608
% es.Ez (V/m) @ t=0.54
2.9725424923740107
% es.tEx (V/m) @ t=0.54
0.9676143077946335
% es.tEy (V/m) @ t=0.54
0
% es.tEz (V/m) @ t=0.54
2.9725424923740107
% V (V) @ t=0.54
0.014661938647909304
% es.normE (V/m) @ t=0.56
3.164925873138529
% es.EX (V/m) @ t=0.56
0.9768934608024991
% es.EY (V/m) @ t=0.56
0.2366678745620372
% es.EZ (V/m) @ t=0.56
3.001048670329406
% es.tEX (V/m) @ t=0.56
0.9768934608025006
% es.tEY (V/m) @ t=0.56
0
% es.tEZ (V/m) @ t=0.56
3.001048670329414
% es.Ex (V/m) @ t=0.56
0.9768934608024991
% es.Ey (V/m) @ t=0.56
0.2366678745620372
% es.Ez (V/m) @ t=0.56
3.001048670329406
% es.tEx (V/m) @ t=0.56
0.9768934608025006
% es.tEy (V/m) @ t=0.56
0
% es.tEz (V/m) @ t=0.56
3.001048670329414
% V (V) @ t=0.56
0.014802551403187088
% es.normE (V/m) @ t=0.58
3.194988651461217
% es.EX (V/m) @ t=0.58
0.986172613810393
% es.EY (V/m) @ t=0.58
0.2389159923470845
% es.EZ (V/m) @ t=0.58
3.0295548482848442
% es.tEX (V/m) @ t=0.58
0.9861726138103961
% es.tEY (V/m) @ t=0.58
0
% es.tEZ (V/m) @ t=0.58
3.0295548482848496
% es.Ex (V/m) @ t=0.58
0.986172613810393
% es.Ey (V/m) @ t=0.58
0.2389159923470845
% es.Ez (V/m) @ t=0.58
3.0295548482848442
% es.tEx (V/m) @ t=0.58
0.9861726138103961
% es.tEy (V/m) @ t=0.58
0
% es.tEz (V/m) @ t=0.58
3.0295548482848496
% V (V) @ t=0.58
0.014943164158464875
% es.normE (V/m) @ t=0.6
3.2250514297838775
% es.EX (V/m) @ t=0.6
0.9954517668182512
% es.EY (V/m) @ t=0.6
0.2411641101321078
% es.EZ (V/m) @ t=0.6
3.058061026240261
% es.tEX (V/m) @ t=0.6
0.995451766818249
% es.tEY (V/m) @ t=0.6
0
% es.tEZ (V/m) @ t=0.6
3.0580610262402637
% es.Ex (V/m) @ t=0.6
0.9954517668182512
% es.Ey (V/m) @ t=0.6
0.2411641101321078
% es.Ez (V/m) @ t=0.6
3.058061026240261
% es.tEx (V/m) @ t=0.6
0.995451766818249
% es.tEy (V/m) @ t=0.6
0
% es.tEz (V/m) @ t=0.6
3.0580610262402637
% V (V) @ t=0.6
0.015083776913742662
% es.normE (V/m) @ t=0.62
3.2551142081065656
% es.EX (V/m) @ t=0.62
1.0047309198261356
% es.EY (V/m) @ t=0.62
0.24341222791717354
% es.EZ (V/m) @ t=0.62
3.086567204195691
% es.tEX (V/m) @ t=0.62
1.0047309198261303
% es.tEY (V/m) @ t=0.62
0
% es.tEZ (V/m) @ t=0.62
3.086567204195685
% es.Ex (V/m) @ t=0.62
1.0047309198261356
% es.Ey (V/m) @ t=0.62
0.24341222791717354
% es.Ez (V/m) @ t=0.62
3.086567204195691
% es.tEx (V/m) @ t=0.62
1.0047309198261303
% es.tEy (V/m) @ t=0.62
0
% es.tEz (V/m) @ t=0.62
3.086567204195685
% V (V) @ t=0.62
0.015224389669020448
% es.normE (V/m) @ t=0.64
3.285176986429225
% es.EX (V/m) @ t=0.64
1.0140100728340196
% es.EY (V/m) @ t=0.64
0.2456603457022173
% es.EZ (V/m) @ t=0.64
3.1150733821510874
% es.tEX (V/m) @ t=0.64
1.0140100728340258
% es.tEY (V/m) @ t=0.64
0
% es.tEZ (V/m) @ t=0.64
3.115073382151106
% es.Ex (V/m) @ t=0.64
1.0140100728340196
% es.Ey (V/m) @ t=0.64
0.2456603457022173
% es.Ez (V/m) @ t=0.64
3.1150733821510874
% es.tEx (V/m) @ t=0.64
1.0140100728340258
% es.tEy (V/m) @ t=0.64
0
% es.tEz (V/m) @ t=0.64
3.115073382151106
% V (V) @ t=0.64
0.015365002424298235
% es.normE (V/m) @ t=0.66
3.315239764751892
% es.EX (V/m) @ t=0.66
1.0232892258418829
% es.EY (V/m) @ t=0.66
0.24790846348724394
% es.EZ (V/m) @ t=0.66
3.143579560106496
% es.tEX (V/m) @ t=0.66
1.0232892258418786
% es.tEY (V/m) @ t=0.66
0
% es.tEZ (V/m) @ t=0.66
3.143579560106506
% es.Ex (V/m) @ t=0.66
1.0232892258418829
% es.Ey (V/m) @ t=0.66
0.24790846348724394
% es.Ez (V/m) @ t=0.66
3.143579560106496
% es.tEx (V/m) @ t=0.66
1.0232892258418786
% es.tEy (V/m) @ t=0.66
0
% es.tEz (V/m) @ t=0.66
3.143579560106506
% V (V) @ t=0.66
0.015505615179576021
% es.normE (V/m) @ t=0.68
3.3453025430745944
% es.EX (V/m) @ t=0.68
1.032568378849767
% es.EY (V/m) @ t=0.68
0.250156581272317
% es.EZ (V/m) @ t=0.68
3.172085738061927
% es.tEX (V/m) @ t=0.68
1.03256837884976
% es.tEY (V/m) @ t=0.68
0
% es.tEZ (V/m) @ t=0.68
3.1720857380619414
% es.Ex (V/m) @ t=0.68
1.032568378849767
% es.Ey (V/m) @ t=0.68
0.250156581272317
% es.Ez (V/m) @ t=0.68
3.172085738061927
% es.tEx (V/m) @ t=0.68
1.03256837884976
% es.tEy (V/m) @ t=0.68
0
% es.tEz (V/m) @ t=0.68
3.1720857380619414
% V (V) @ t=0.68
0.015646227934853808
% es.normE (V/m) @ t=0.7
3.375365321397272
% es.EX (V/m) @ t=0.7
1.04184753185763
% es.EY (V/m) @ t=0.7
0.25240469905734275
% es.EZ (V/m) @ t=0.7
3.2005919160173377
% es.tEX (V/m) @ t=0.7
1.0418475318576412
% es.tEY (V/m) @ t=0.7
0
% es.tEZ (V/m) @ t=0.7
3.200591916017345
% es.Ex (V/m) @ t=0.7
1.04184753185763
% es.Ey (V/m) @ t=0.7
0.25240469905734275
% es.Ez (V/m) @ t=0.7
3.2005919160173377
% es.tEx (V/m) @ t=0.7
1.0418475318576412
% es.tEy (V/m) @ t=0.7
0
% es.tEz (V/m) @ t=0.7
3.200591916017345
% V (V) @ t=0.7
0.015786840690131598
% es.normE (V/m) @ t=0.72
3.4054280997199733
% es.EX (V/m) @ t=0.72
1.051126684865513
% es.EY (V/m) @ t=0.72
0.2546528168424087
% es.EZ (V/m) @ t=0.72
3.22909809397276
% es.tEX (V/m) @ t=0.72
1.0511266848655225
% es.tEY (V/m) @ t=0.72
0
% es.tEZ (V/m) @ t=0.72
3.2290980939727625
% es.Ex (V/m) @ t=0.72
1.051126684865513
% es.Ey (V/m) @ t=0.72
0.2546528168424087
% es.Ez (V/m) @ t=0.72
3.22909809397276
% es.tEx (V/m) @ t=0.72
1.0511266848655225
% es.tEy (V/m) @ t=0.72
0
% es.tEz (V/m) @ t=0.72
3.2290980939727625
% V (V) @ t=0.72
0.01592745344540938
% es.normE (V/m) @ t=0.74
3.43549087804269
% es.EX (V/m) @ t=0.74
1.0604058378733963
% es.EY (V/m) @ t=0.74
0.2569009346274427
% es.EZ (V/m) @ t=0.74
3.257604271928197
% es.tEX (V/m) @ t=0.74
1.0604058378734038
% es.tEY (V/m) @ t=0.74
0
% es.tEZ (V/m) @ t=0.74
3.257604271928198
% es.Ex (V/m) @ t=0.74
1.0604058378733963
% es.Ey (V/m) @ t=0.74
0.2569009346274427
% es.Ez (V/m) @ t=0.74
3.257604271928197
% es.tEx (V/m) @ t=0.74
1.0604058378734038
% es.tEy (V/m) @ t=0.74
0
% es.tEz (V/m) @ t=0.74
3.257604271928198
% V (V) @ t=0.74
0.016068066200687167
% es.normE (V/m) @ t=0.76
3.4655536563654
% es.EX (V/m) @ t=0.76
1.0696849908812702
% es.EY (V/m) @ t=0.76
0.25914905241253683
% es.EZ (V/m) @ t=0.76
3.2861104498836218
% es.tEX (V/m) @ t=0.76
1.069684990881271
% es.tEY (V/m) @ t=0.76
0
% es.tEZ (V/m) @ t=0.76
3.2861104498836333
% es.Ex (V/m) @ t=0.76
1.0696849908812702
% es.Ey (V/m) @ t=0.76
0.25914905241253683
% es.Ez (V/m) @ t=0.76
3.2861104498836218
% es.tEx (V/m) @ t=0.76
1.069684990881271
% es.tEy (V/m) @ t=0.76
0
% es.tEz (V/m) @ t=0.76
3.2861104498836333
% V (V) @ t=0.76
0.016208678955964957
% es.normE (V/m) @ t=0.78
3.4979516891135543
% es.EX (V/m) @ t=0.78
1.079684967277408
% es.EY (V/m) @ t=0.78
0.2615717825059307
% es.EZ (V/m) @ t=0.78
3.3168309599275805
% es.tEX (V/m) @ t=0.78
1.0796849672774016
% es.tEY (V/m) @ t=0.78
0
% es.tEZ (V/m) @ t=0.78
3.316830959927586
% es.Ex (V/m) @ t=0.78
1.079684967277408
% es.Ey (V/m) @ t=0.78
0.2615717825059307
% es.Ez (V/m) @ t=0.78
3.3168309599275805
% es.tEx (V/m) @ t=0.78
1.0796849672774016
% es.tEy (V/m) @ t=0.78
0
% es.tEz (V/m) @ t=0.78
3.316830959927586
% V (V) @ t=0.78
0.016360212432152455
% es.normE (V/m) @ t=0.8
3.5313059594957905
% es.EX (V/m) @ t=0.8
1.0899801057097627
% es.EY (V/m) @ t=0.8
0.2640660126718226
% es.EZ (V/m) @ t=0.8
3.348458192448695
% es.tEX (V/m) @ t=0.8
1.0899801057097704
% es.tEY (V/m) @ t=0.8
0
% es.tEZ (V/m) @ t=0.8
3.3484581924486996
% es.Ex (V/m) @ t=0.8
1.0899801057097627
% es.Ey (V/m) @ t=0.8
0.2640660126718226
% es.Ez (V/m) @ t=0.8
3.348458192448695
% es.tEx (V/m) @ t=0.8
1.0899801057097704
% es.tEy (V/m) @ t=0.8
0
% es.tEz (V/m) @ t=0.8
3.3484581924486996
% V (V) @ t=0.8
0.01651621771415746
% es.normE (V/m) @ t=0.82
3.564660229878056
% es.EX (V/m) @ t=0.82
1.1002752441421515
% es.EY (V/m) @ t=0.82
0.2665602428377416
% es.EZ (V/m) @ t=0.82
3.380085424969826
% es.tEX (V/m) @ t=0.82
1.1002752441421393
% es.tEY (V/m) @ t=0.82
0
% es.tEZ (V/m) @ t=0.82
3.3800854249698276
% es.Ex (V/m) @ t=0.82
1.1002752441421515
% es.Ey (V/m) @ t=0.82
0.2665602428377416
% es.Ez (V/m) @ t=0.82
3.380085424969826
% es.tEx (V/m) @ t=0.82
1.1002752441421393
% es.tEy (V/m) @ t=0.82
0
% es.tEz (V/m) @ t=0.82
3.3800854249698276
% V (V) @ t=0.82
0.01667222299616246
% es.normE (V/m) @ t=0.84
3.598014500260256
% es.EX (V/m) @ t=0.84
1.110570382574514
% es.EY (V/m) @ t=0.84
0.2690544730035944
% es.EZ (V/m) @ t=0.84
3.4117126574908987
% es.tEX (V/m) @ t=0.84
1.1105703825745223
% es.tEY (V/m) @ t=0.84
0
% es.tEZ (V/m) @ t=0.84
3.411712657490906
% es.Ex (V/m) @ t=0.84
1.110570382574514
% es.Ey (V/m) @ t=0.84
0.2690544730035944
% es.Ez (V/m) @ t=0.84
3.4117126574908987
% es.tEx (V/m) @ t=0.84
1.1105703825745223
% es.tEy (V/m) @ t=0.84
0
% es.tEz (V/m) @ t=0.84
3.411712657490906
% V (V) @ t=0.84
0.01682822827816746
% es.normE (V/m) @ t=0.86
3.6313687706425197
% es.EX (V/m) @ t=0.86
1.1208655210068936
% es.EY (V/m) @ t=0.86
0.27154870316948543
% es.EZ (V/m) @ t=0.86
3.4433398900120293
% es.tEX (V/m) @ t=0.86
1.1208655210069054
% es.tEY (V/m) @ t=0.86
0
% es.tEZ (V/m) @ t=0.86
3.4433398900120338
% es.Ex (V/m) @ t=0.86
1.1208655210068936
% es.Ey (V/m) @ t=0.86
0.27154870316948543
% es.Ez (V/m) @ t=0.86
3.4433398900120293
% es.tEx (V/m) @ t=0.86
1.1208655210069054
% es.tEy (V/m) @ t=0.86
0
% es.tEz (V/m) @ t=0.86
3.4433398900120338
% V (V) @ t=0.86
0.01698423356017246
% es.normE (V/m) @ t=0.88
3.664723041024752
% es.EX (V/m) @ t=0.88
1.1311606594392671
% es.EY (V/m) @ t=0.88
0.2740429333353489
% es.EZ (V/m) @ t=0.88
3.474967122533129
% es.tEX (V/m) @ t=0.88
1.13116065943926
% es.tEY (V/m) @ t=0.88
0
% es.tEZ (V/m) @ t=0.88
3.4749671225331333
% es.Ex (V/m) @ t=0.88
1.1311606594392671
% es.Ey (V/m) @ t=0.88
0.2740429333353489
% es.Ez (V/m) @ t=0.88
3.474967122533129
% es.tEx (V/m) @ t=0.88
1.13116065943926
% es.tEy (V/m) @ t=0.88
0
% es.tEz (V/m) @ t=0.88
3.4749671225331333
% V (V) @ t=0.88
0.017140238842177455
% es.normE (V/m) @ t=0.9
3.6980773114069954
% es.EX (V/m) @ t=0.9
1.141455797871654
% es.EY (V/m) @ t=0.9
0.2765371635012539
% es.EZ (V/m) @ t=0.9
3.506594355054231
% es.tEX (V/m) @ t=0.9
1.1414557978716573
% es.tEY (V/m) @ t=0.9
0
% es.tEZ (V/m) @ t=0.9
3.506594355054247
% es.Ex (V/m) @ t=0.9
1.141455797871654
% es.Ey (V/m) @ t=0.9
0.2765371635012539
% es.Ez (V/m) @ t=0.9
3.506594355054231
% es.tEx (V/m) @ t=0.9
1.1414557978716573
% es.tEy (V/m) @ t=0.9
0
% es.tEz (V/m) @ t=0.9
3.506594355054247
% V (V) @ t=0.9
0.01729624412418246
% es.normE (V/m) @ t=0.92
3.7314315817892565
% es.EX (V/m) @ t=0.92
1.151750936304021
% es.EY (V/m) @ t=0.92
0.27903139366710294
% es.EZ (V/m) @ t=0.92
3.5382215875753618
% es.tEX (V/m) @ t=0.92
1.151750936304012
% es.tEY (V/m) @ t=0.92
0
% es.tEZ (V/m) @ t=0.92
3.538221587575375
% es.Ex (V/m) @ t=0.92
1.151750936304021
% es.Ey (V/m) @ t=0.92
0.27903139366710294
% es.Ez (V/m) @ t=0.92
3.5382215875753618
% es.tEx (V/m) @ t=0.92
1.151750936304012
% es.tEy (V/m) @ t=0.92
0
% es.tEz (V/m) @ t=0.92
3.538221587575375
% V (V) @ t=0.92
0.017452249406187458
% es.normE (V/m) @ t=0.94
3.7647858521715056
% es.EX (V/m) @ t=0.94
1.162046074736397
% es.EY (V/m) @ t=0.94
0.2815256238330117
% es.EZ (V/m) @ t=0.94
3.56984882009647
% es.tEX (V/m) @ t=0.94
1.1620460747364092
% es.tEY (V/m) @ t=0.94
0
% es.tEZ (V/m) @ t=0.94
3.5698488200964746
% es.Ex (V/m) @ t=0.94
1.162046074736397
% es.Ey (V/m) @ t=0.94
0.2815256238330117
% es.Ez (V/m) @ t=0.94
3.56984882009647
% es.tEx (V/m) @ t=0.94
1.1620460747364092
% es.tEy (V/m) @ t=0.94
0
% es.tEz (V/m) @ t=0.94
3.5698488200964746
% V (V) @ t=0.94
0.01760825468819246
% es.normE (V/m) @ t=0.96
3.798140122553748
% es.EX (V/m) @ t=0.96
1.1723412131687678
% es.EY (V/m) @ t=0.96
0.2840198539989094
% es.EZ (V/m) @ t=0.96
3.6014760526175733
% es.tEX (V/m) @ t=0.96
1.1723412131687638
% es.tEY (V/m) @ t=0.96
0
% es.tEZ (V/m) @ t=0.96
3.601476052617574
% es.Ex (V/m) @ t=0.96
1.1723412131687678
% es.Ey (V/m) @ t=0.96
0.2840198539989094
% es.Ez (V/m) @ t=0.96
3.6014760526175733
% es.tEx (V/m) @ t=0.96
1.1723412131687638
% es.tEy (V/m) @ t=0.96
0
% es.tEz (V/m) @ t=0.96
3.601476052617574
% V (V) @ t=0.96
0.01776425997019746
% es.normE (V/m) @ t=0.98
3.831494392935991
% es.EX (V/m) @ t=0.98
1.1826363516011213
% es.EY (V/m) @ t=0.98
0.28651408416480506
% es.EZ (V/m) @ t=0.98
3.633103285138681
% es.tEX (V/m) @ t=0.98
1.1826363516011185
% es.tEY (V/m) @ t=0.98
0
% es.tEZ (V/m) @ t=0.98
3.633103285138688
% es.Ex (V/m) @ t=0.98
1.1826363516011213
% es.Ey (V/m) @ t=0.98
0.28651408416480506
% es.Ez (V/m) @ t=0.98
3.633103285138681
% es.tEx (V/m) @ t=0.98
1.1826363516011185
% es.tEy (V/m) @ t=0.98
0
% es.tEz (V/m) @ t=0.98
3.633103285138688
% V (V) @ t=0.98
0.017920265252202465
% es.normE (V/m) @ t=1
3.86484866331823
% es.EX (V/m) @ t=1
1.1929314900335104
% es.EY (V/m) @ t=1
0.2890083143306539
% es.EZ (V/m) @ t=1
3.664730517659775
% es.tEX (V/m) @ t=1
1.1929314900335015
% es.tEY (V/m) @ t=1
0
% es.tEZ (V/m) @ t=1
3.6647305176597875
% es.Ex (V/m) @ t=1
1.1929314900335104
% es.Ey (V/m) @ t=1
0.2890083143306539
% es.Ez (V/m) @ t=1
3.664730517659775
% es.tEx (V/m) @ t=1
1.1929314900335015
% es.tEy (V/m) @ t=1
0
% es.tEz (V/m) @ t=1
3.6647305176597875
% V (V) @ t=1
0.01807627053420747
% es.normE (V/m) @ t=1.02
3.898202933700502
% es.EX (V/m) @ t=1.02
1.2032266284658837
% es.EY (V/m) @ t=1.02
0.29150254449653334
% es.EZ (V/m) @ t=1.02
3.6963577501809057
% es.tEX (V/m) @ t=1.02
1.2032266284658846
% es.tEY (V/m) @ t=1.02
0
% es.tEZ (V/m) @ t=1.02
3.696357750180912
% es.Ex (V/m) @ t=1.02
1.2032266284658837
% es.Ey (V/m) @ t=1.02
0.29150254449653334
% es.Ez (V/m) @ t=1.02
3.6963577501809057
% es.tEx (V/m) @ t=1.02
1.2032266284658846
% es.tEy (V/m) @ t=1.02
0
% es.tEz (V/m) @ t=1.02
3.696357750180912
% V (V) @ t=1.02
0.01823227581621246
% es.normE (V/m) @ t=1.04
3.933099969981912
% es.EX (V/m) @ t=1.04
1.213998039586816
% es.EY (V/m) @ t=1.04
0.29411207882942625
% es.EZ (V/m) @ t=1.04
3.7294478446508172
% es.tEX (V/m) @ t=1.04
1.2139980395868122
% es.tEY (V/m) @ t=1.04
0
% es.tEZ (V/m) @ t=1.04
3.729447844650821
% es.Ex (V/m) @ t=1.04
1.213998039586816
% es.Ey (V/m) @ t=1.04
0.29411207882942625
% es.Ez (V/m) @ t=1.04
3.7294478446508172
% es.tEx (V/m) @ t=1.04
1.2139980395868122
% es.tEy (V/m) @ t=1.04
0
% es.tEz (V/m) @ t=1.04
3.729447844650821
% V (V) @ t=1.04
0.018395490616615526