% Model:              1 neuron.mph
% Version:            COMSOL 6.1.0.252
% Date:               Mar 22 2023, 18:00
% Dimension:          0
% Nodes:              14017
% Expressions:        14017
% Description:        Electric field norm, Electric field, X component, Electric field, Y component, Electric field, Z component, Tangential electric field, X component, Tangential electric field, Y component, Tangential electric field, Z component, Electric field, x component, Electric field, y component, Electric field, z component, Tangential electric field, x component, Tangential electric field, y component, Tangential electric field, z component, Electric potential
% Length unit:        mm
% x
1.66
% y
12.200000000000001
% z
1.66
% es.normE (V/m) @ t=0
37.484004893634065
% es.EX (V/m) @ t=0
-17.702107018375912
% es.EY (V/m) @ t=0
14.202567261583837
% es.EZ (V/m) @ t=0
17.02539433796943
% es.tEX (V/m) @ t=0
-17.702107018375884
% es.tEY (V/m) @ t=0
0
% es.tEZ (V/m) @ t=0
17.02539433796943
% es.Ex (V/m) @ t=0
-17.702107018375912
% es.Ey (V/m) @ t=0
14.202567261583837
% es.Ez (V/m) @ t=0
17.02539433796943
% es.tEx (V/m) @ t=0
-17.702107018375884
% es.tEy (V/m) @ t=0
0
% es.tEz (V/m) @ t=0
17.02539433796943
% V (V) @ t=0
0.011764192782703664
% es.normE (V/m) @ t=0.02
32.37530332373413
% es.EX (V/m) @ t=0.02
-15.289483777049654
% es.EY (V/m) @ t=0.02
12.266896893624164
% es.EZ (V/m) @ t=0.02
14.705000355240387
% es.tEX (V/m) @ t=0.02
-15.289483777049632
% es.tEY (V/m) @ t=0.02
0
% es.tEZ (V/m) @ t=0.02
14.7050003552404
% es.Ex (V/m) @ t=0.02
-15.289483777049654
% es.Ey (V/m) @ t=0.02
12.266896893624164
% es.Ez (V/m) @ t=0.02
14.705000355240387
% es.tEx (V/m) @ t=0.02
-15.289483777049632
% es.tEy (V/m) @ t=0.02
0
% es.tEz (V/m) @ t=0.02
14.7050003552404
% V (V) @ t=0.02
0.01016084889442295
% es.normE (V/m) @ t=0.04
32.67312101478271
% es.EX (V/m) @ t=0.04
-15.430130447526139
% es.EY (V/m) @ t=0.04
12.379739044934787
% es.EZ (V/m) @ t=0.04
14.840270421181877
% es.tEX (V/m) @ t=0.04
-15.430130447526125
% es.tEY (V/m) @ t=0.04
0
% es.tEZ (V/m) @ t=0.04
14.840270421181913
% es.Ex (V/m) @ t=0.04
-15.430130447526139
% es.Ey (V/m) @ t=0.04
12.379739044934787
% es.Ez (V/m) @ t=0.04
14.840270421181877
% es.tEx (V/m) @ t=0.04
-15.430130447526125
% es.tEy (V/m) @ t=0.04
0
% es.tEz (V/m) @ t=0.04
14.840270421181913
% V (V) @ t=0.04
0.01025431768856575
% es.normE (V/m) @ t=0.06
32.97309034512471
% es.EX (V/m) @ t=0.06
-15.571793221806544
% es.EY (V/m) @ t=0.06
12.493396439837646
% es.EZ (V/m) @ t=0.06
14.97651779921489
% es.tEX (V/m) @ t=0.06
-15.571793221806544
% es.tEY (V/m) @ t=0.06
0
% es.tEZ (V/m) @ t=0.06
14.97651779921489
% es.Ex (V/m) @ t=0.06
-15.571793221806544
% es.Ey (V/m) @ t=0.06
12.493396439837646
% es.Ez (V/m) @ t=0.06
14.97651779921489
% es.tEx (V/m) @ t=0.06
-15.571793221806544
% es.tEy (V/m) @ t=0.06
0
% es.tEz (V/m) @ t=0.06
14.97651779921489
% V (V) @ t=0.06
0.010348461766164538
% es.normE (V/m) @ t=0.08
33.2788514834895
% es.EX (V/m) @ t=0.08
-15.716191230144602
% es.EY (V/m) @ t=0.08
12.60924833385208
% es.EZ (V/m) @ t=0.08
15.115395831056112
% es.tEX (V/m) @ t=0.08
-15.716191230144588
% es.tEY (V/m) @ t=0.08
0
% es.tEZ (V/m) @ t=0.08
15.115395831056105
% es.Ex (V/m) @ t=0.08
-15.716191230144602
% es.Ey (V/m) @ t=0.08
12.60924833385208
% es.Ez (V/m) @ t=0.08
15.115395831056112
% es.tEx (V/m) @ t=0.08
-15.716191230144588
% es.tEy (V/m) @ t=0.08
0
% es.tEz (V/m) @ t=0.08
15.115395831056105
% V (V) @ t=0.08
0.010444423577384412
% es.normE (V/m) @ t=0.1
33.586109935174164
% es.EX (V/m) @ t=0.1
-15.861296358326982
% es.EY (V/m) @ t=0.1
12.725667555501815
% es.EZ (V/m) @ t=0.1
15.254953946382777
% es.tEX (V/m) @ t=0.1
-15.86129635832696
% es.tEY (V/m) @ t=0.1
0
% es.tEZ (V/m) @ t=0.1
15.254953946382784
% es.Ex (V/m) @ t=0.1
-15.861296358326982
% es.Ey (V/m) @ t=0.1
12.725667555501815
% es.Ez (V/m) @ t=0.1
15.254953946382777
% es.tEx (V/m) @ t=0.1
-15.86129635832696
% es.tEy (V/m) @ t=0.1
0
% es.tEz (V/m) @ t=0.1
15.254953946382784
% V (V) @ t=0.1
0.010540855313842131
% es.normE (V/m) @ t=0.12
33.893368386858825
% es.EX (V/m) @ t=0.12
-16.006401486509347
% es.EY (V/m) @ t=0.12
12.842086777151628
% es.EZ (V/m) @ t=0.12
15.394512061709356
% es.tEX (V/m) @ t=0.12
-16.00640148650932
% es.tEY (V/m) @ t=0.12
0
% es.tEZ (V/m) @ t=0.12
15.39451206170935
% es.Ex (V/m) @ t=0.12
-16.006401486509347
% es.Ey (V/m) @ t=0.12
12.842086777151628
% es.Ez (V/m) @ t=0.12
15.394512061709356
% es.tEx (V/m) @ t=0.12
-16.00640148650932
% es.tEy (V/m) @ t=0.12
0
% es.tEz (V/m) @ t=0.12
15.39451206170935
% V (V) @ t=0.12
0.010637287050299853
% es.normE (V/m) @ t=0.14
34.209777637806006
% es.EX (V/m) @ t=0.14
-16.15582815925552
% es.EY (V/m) @ t=0.14
12.961973209078067
% es.EZ (V/m) @ t=0.14
15.538226497391818
% es.tEX (V/m) @ t=0.14
-16.155828159255506
% es.tEY (V/m) @ t=0.14
0
% es.tEZ (V/m) @ t=0.14
15.538226497391776
% es.Ex (V/m) @ t=0.14
-16.15582815925552
% es.Ey (V/m) @ t=0.14
12.961973209078067
% es.Ez (V/m) @ t=0.14
15.538226497391818
% es.tEx (V/m) @ t=0.14
-16.155828159255506
% es.tEy (V/m) @ t=0.14
0
% es.tEz (V/m) @ t=0.14
15.538226497391776
% V (V) @ t=0.14
0.010736590725207513
% es.normE (V/m) @ t=0.16
34.53240490821221
% es.EX (V/m) @ t=0.16
-16.30819134578813
% es.EY (V/m) @ t=0.16
13.084215629847606
% es.EZ (V/m) @ t=0.16
15.684765176083971
% es.tEX (V/m) @ t=0.16
-16.308191345788153
% es.tEY (V/m) @ t=0.16
0
% es.tEZ (V/m) @ t=0.16
15.684765176083914
% es.Ex (V/m) @ t=0.16
-16.30819134578813
% es.Ey (V/m) @ t=0.16
13.084215629847606
% es.Ez (V/m) @ t=0.16
15.684765176083971
% es.tEx (V/m) @ t=0.16
-16.308191345788153
% es.tEy (V/m) @ t=0.16
0
% es.tEz (V/m) @ t=0.16
15.684765176083914
% V (V) @ t=0.16
0.010837845898411014
% es.normE (V/m) @ t=0.18
34.85503217861838
% es.EX (V/m) @ t=0.18
-16.460554532320685
% es.EY (V/m) @ t=0.18
13.20645805061718
% es.EZ (V/m) @ t=0.18
15.831303854776081
% es.tEX (V/m) @ t=0.18
-16.460554532320693
% es.tEY (V/m) @ t=0.18
0
% es.tEZ (V/m) @ t=0.18
15.831303854776081
% es.Ex (V/m) @ t=0.18
-16.460554532320685
% es.Ey (V/m) @ t=0.18
13.20645805061718
% es.Ez (V/m) @ t=0.18
15.831303854776081
% es.tEx (V/m) @ t=0.18
-16.460554532320693
% es.tEy (V/m) @ t=0.18
0
% es.tEz (V/m) @ t=0.18
15.831303854776081
% V (V) @ t=0.18
0.010939101071614513
% es.normE (V/m) @ t=0.2
35.17765944902459
% es.EX (V/m) @ t=0.2
-16.612917718853325
% es.EY (V/m) @ t=0.2
13.32870047138669
% es.EZ (V/m) @ t=0.2
15.977842533468248
% es.tEX (V/m) @ t=0.2
-16.612917718853332
% es.tEY (V/m) @ t=0.2
0
% es.tEZ (V/m) @ t=0.2
15.977842533468277
% es.Ex (V/m) @ t=0.2
-16.612917718853325
% es.Ey (V/m) @ t=0.2
13.32870047138669
% es.Ez (V/m) @ t=0.2
15.977842533468248
% es.tEx (V/m) @ t=0.2
-16.612917718853332
% es.tEy (V/m) @ t=0.2
0
% es.tEz (V/m) @ t=0.2
15.977842533468277
% V (V) @ t=0.2
0.011040356244818014
% es.normE (V/m) @ t=0.22
35.500286719430704
% es.EX (V/m) @ t=0.22
-16.76528090538585
% es.EY (V/m) @ t=0.22
13.450942892156256
% es.EZ (V/m) @ t=0.22
16.12438121216036
% es.tEX (V/m) @ t=0.22
-16.76528090538588
% es.tEY (V/m) @ t=0.22
0
% es.tEZ (V/m) @ t=0.22
16.1243812121603
% es.Ex (V/m) @ t=0.22
-16.76528090538585
% es.Ey (V/m) @ t=0.22
13.450942892156256
% es.Ez (V/m) @ t=0.22
16.12438121216036
% es.tEx (V/m) @ t=0.22
-16.76528090538588
% es.tEy (V/m) @ t=0.22
0
% es.tEz (V/m) @ t=0.22
16.1243812121603
% V (V) @ t=0.22
0.011141611418021516
% es.normE (V/m) @ t=0.24
35.822913989836884
% es.EX (V/m) @ t=0.24
-16.917644091918405
% es.EY (V/m) @ t=0.24
13.573185312925816
% es.EZ (V/m) @ t=0.24
16.270919890852426
% es.tEX (V/m) @ t=0.24
-16.917644091918405
% es.tEY (V/m) @ t=0.24
0
% es.tEZ (V/m) @ t=0.24
16.27091989085244
% es.Ex (V/m) @ t=0.24
-16.917644091918405
% es.Ey (V/m) @ t=0.24
13.573185312925816
% es.Ez (V/m) @ t=0.24
16.270919890852426
% es.tEx (V/m) @ t=0.24
-16.917644091918405
% es.tEy (V/m) @ t=0.24
0
% es.tEz (V/m) @ t=0.24
16.27091989085244
% V (V) @ t=0.24
0.011242866591225016
% es.normE (V/m) @ t=0.26
36.15231200392875
% es.EX (V/m) @ t=0.26
-17.073203842804702
% es.EY (V/m) @ t=0.26
13.697992919099349
% es.EZ (V/m) @ t=0.26
16.420535013576874
% es.tEX (V/m) @ t=0.26
-17.07320384280473
% es.tEY (V/m) @ t=0.26
0
% es.tEZ (V/m) @ t=0.26
16.42053501357691
% es.Ex (V/m) @ t=0.26
-17.073203842804702
% es.Ey (V/m) @ t=0.26
13.697992919099349
% es.Ez (V/m) @ t=0.26
16.420535013576874
% es.tEx (V/m) @ t=0.26
-17.07320384280473
% es.tEy (V/m) @ t=0.26
0
% es.tEz (V/m) @ t=0.26
16.42053501357691
% V (V) @ t=0.26
0.0113462467659079
% es.normE (V/m) @ t=0.28
36.50929545150356
% es.EX (V/m) @ t=0.28
-17.241787069019992
% es.EY (V/m) @ t=0.28
13.833251629998472
% es.EZ (V/m) @ t=0.28
16.582684216182955
% es.tEX (V/m) @ t=0.28
-17.241787069020013
% es.tEY (V/m) @ t=0.28
0
% es.tEZ (V/m) @ t=0.28
16.582684216182884
% es.Ex (V/m) @ t=0.28
-17.241787069019992
% es.Ey (V/m) @ t=0.28
13.833251629998472
% es.Ez (V/m) @ t=0.28
16.582684216182955
% es.tEx (V/m) @ t=0.28
-17.241787069020013
% es.tEy (V/m) @ t=0.28
0
% es.tEz (V/m) @ t=0.28
16.582684216182884
% V (V) @ t=0.28
0.011458284643448762
% es.normE (V/m) @ t=0.3
36.866278899080015
% es.EX (V/m) @ t=0.3
-17.410370295235325
% es.EY (V/m) @ t=0.3
13.96851034089763
% es.EZ (V/m) @ t=0.3
16.744833418788893
% es.tEX (V/m) @ t=0.3
-17.410370295235325
% es.tEY (V/m) @ t=0.3
0
% es.tEZ (V/m) @ t=0.3
16.744833418788915
% es.Ex (V/m) @ t=0.3
-17.410370295235325
% es.Ey (V/m) @ t=0.3
13.96851034089763
% es.Ez (V/m) @ t=0.3
16.744833418788893
% es.tEx (V/m) @ t=0.3
-17.410370295235325
% es.tEy (V/m) @ t=0.3
0
% es.tEz (V/m) @ t=0.3
16.744833418788915
% V (V) @ t=0.3
0.011570322520989624
% es.normE (V/m) @ t=0.32
37.22326234665811
% es.EX (V/m) @ t=0.32
-17.578953521450615
% es.EY (V/m) @ t=0.32
14.10376905179676
% es.EZ (V/m) @ t=0.32
16.90698262139496
% es.tEX (V/m) @ t=0.32
-17.578953521450636
% es.tEY (V/m) @ t=0.32
0
% es.tEZ (V/m) @ t=0.32
16.906982621394945
% es.Ex (V/m) @ t=0.32
-17.578953521450615
% es.Ey (V/m) @ t=0.32
14.10376905179676
% es.Ez (V/m) @ t=0.32
16.90698262139496
% es.tEx (V/m) @ t=0.32
-17.578953521450636
% es.tEy (V/m) @ t=0.32
0
% es.tEz (V/m) @ t=0.32
16.906982621394945
% V (V) @ t=0.32
0.011682360398530486
% es.normE (V/m) @ t=0.34
37.58024579423778
% es.EX (V/m) @ t=0.34
-17.747536747665876
% es.EY (V/m) @ t=0.34
14.239027762695898
% es.EZ (V/m) @ t=0.34
17.06913182400092
% es.tEX (V/m) @ t=0.34
-17.747536747665862
% es.tEY (V/m) @ t=0.34
0
% es.tEZ (V/m) @ t=0.34
17.069131824000863
% es.Ex (V/m) @ t=0.34
-17.747536747665876
% es.Ey (V/m) @ t=0.34
14.239027762695898
% es.Ez (V/m) @ t=0.34
17.06913182400092
% es.tEx (V/m) @ t=0.34
-17.747536747665862
% es.tEy (V/m) @ t=0.34
0
% es.tEz (V/m) @ t=0.34
17.069131824000863
% V (V) @ t=0.34
0.011794398276071347
% es.normE (V/m) @ t=0.36
37.937229241819054
% es.EX (V/m) @ t=0.36
-17.916119973881194
% es.EY (V/m) @ t=0.36
14.37428647359502
% es.EZ (V/m) @ t=0.36
17.231281026606986
% es.tEX (V/m) @ t=0.36
-17.916119973881194
% es.tEY (V/m) @ t=0.36
0
% es.tEZ (V/m) @ t=0.36
17.23128102660695
% es.Ex (V/m) @ t=0.36
-17.916119973881194
% es.Ey (V/m) @ t=0.36
14.37428647359502
% es.Ez (V/m) @ t=0.36
17.231281026606986
% es.tEx (V/m) @ t=0.36
-17.916119973881194
% es.tEy (V/m) @ t=0.36
0
% es.tEz (V/m) @ t=0.36
17.23128102660695
% V (V) @ t=0.36
0.011906436153612207
% es.normE (V/m) @ t=0.38
38.2942126894018
% es.EX (V/m) @ t=0.38
-18.084703200096527
% es.EY (V/m) @ t=0.38
14.50954518449408
% es.EZ (V/m) @ t=0.38
17.39343022921296
% es.tEX (V/m) @ t=0.38
-18.084703200096484
% es.tEY (V/m) @ t=0.38
0
% es.tEZ (V/m) @ t=0.38
17.393430229212925
% es.Ex (V/m) @ t=0.38
-18.084703200096527
% es.Ey (V/m) @ t=0.38
14.50954518449408
% es.Ez (V/m) @ t=0.38
17.39343022921296
% es.tEx (V/m) @ t=0.38
-18.084703200096484
% es.tEy (V/m) @ t=0.38
0
% es.tEz (V/m) @ t=0.38
17.393430229212925
% V (V) @ t=0.38
0.012018474031153071
% es.normE (V/m) @ t=0.4
38.65119613698594
% es.EX (V/m) @ t=0.4
-18.25328642631176
% es.EY (V/m) @ t=0.4
14.644803895393174
% es.EZ (V/m) @ t=0.4
17.555579431818977
% es.tEX (V/m) @ t=0.4
-18.253286426311746
% es.tEY (V/m) @ t=0.4
0
% es.tEZ (V/m) @ t=0.4
17.555579431819012
% es.Ex (V/m) @ t=0.4
-18.25328642631176
% es.Ey (V/m) @ t=0.4
14.644803895393174
% es.Ez (V/m) @ t=0.4
17.555579431818977
% es.tEx (V/m) @ t=0.4
-18.253286426311746
% es.tEy (V/m) @ t=0.4
0
% es.tEz (V/m) @ t=0.4
17.555579431819012
% V (V) @ t=0.4
0.012130511908693934
% es.normE (V/m) @ t=0.42
39.008179584571515
% es.EX (V/m) @ t=0.42
-18.421869652527036
% es.EY (V/m) @ t=0.42
14.780062606292354
% es.EZ (V/m) @ t=0.42
17.717728634424958
% es.tEX (V/m) @ t=0.42
-18.42186965252707
% es.tEY (V/m) @ t=0.42
0
% es.tEZ (V/m) @ t=0.42
17.717728634424986
% es.Ex (V/m) @ t=0.42
-18.421869652527036
% es.Ey (V/m) @ t=0.42
14.780062606292354
% es.Ez (V/m) @ t=0.42
17.717728634424958
% es.tEx (V/m) @ t=0.42
-18.42186965252707
% es.tEy (V/m) @ t=0.42
0
% es.tEz (V/m) @ t=0.42
17.717728634424986
% V (V) @ t=0.42
0.012242549786234794
% es.normE (V/m) @ t=0.44
39.36516303215844
% es.EX (V/m) @ t=0.44
-18.590452878742326
% es.EY (V/m) @ t=0.44
14.915321317191442
% es.EZ (V/m) @ t=0.44
17.879877837030897
% es.tEX (V/m) @ t=0.44
-18.590452878742354
% es.tEY (V/m) @ t=0.44
0
% es.tEZ (V/m) @ t=0.44
17.879877837030904
% es.Ex (V/m) @ t=0.44
-18.590452878742326
% es.Ey (V/m) @ t=0.44
14.915321317191442
% es.Ez (V/m) @ t=0.44
17.879877837030897
% es.tEx (V/m) @ t=0.44
-18.590452878742354
% es.tEy (V/m) @ t=0.44
0
% es.tEz (V/m) @ t=0.44
17.879877837030904
% V (V) @ t=0.44
0.012354587663775658
% es.normE (V/m) @ t=0.46
39.722146479746904
% es.EX (V/m) @ t=0.46
-18.759036104957644
% es.EY (V/m) @ t=0.46
15.050580028090621
% es.EZ (V/m) @ t=0.46
18.04202703963702
% es.tEX (V/m) @ t=0.46
-18.7590361049577
% es.tEY (V/m) @ t=0.46
0
% es.tEZ (V/m) @ t=0.46
18.04202703963699
% es.Ex (V/m) @ t=0.46
-18.759036104957644
% es.Ey (V/m) @ t=0.46
15.050580028090621
% es.Ez (V/m) @ t=0.46
18.04202703963702
% es.tEx (V/m) @ t=0.46
-18.7590361049577
% es.tEy (V/m) @ t=0.46
0
% es.tEz (V/m) @ t=0.46
18.04202703963699
% V (V) @ t=0.46
0.012466625541316518
% es.normE (V/m) @ t=0.48
40.07912992733647
% es.EX (V/m) @ t=0.48
-18.927619331172934
% es.EY (V/m) @ t=0.48
15.18583873898968
% es.EZ (V/m) @ t=0.48
18.20417624224295
% es.tEX (V/m) @ t=0.48
-18.92761933117289
% es.tEY (V/m) @ t=0.48
0
% es.tEZ (V/m) @ t=0.48
18.204176242242966
% es.Ex (V/m) @ t=0.48
-18.927619331172934
% es.Ey (V/m) @ t=0.48
15.18583873898968
% es.Ez (V/m) @ t=0.48
18.20417624224295
% es.tEx (V/m) @ t=0.48
-18.92761933117289
% es.tEy (V/m) @ t=0.48
0
% es.tEz (V/m) @ t=0.48
18.204176242242966
% V (V) @ t=0.48
0.01257866341885738
% es.normE (V/m) @ t=0.5
40.43611337492735
% es.EX (V/m) @ t=0.5
-19.09620255738824
% es.EY (V/m) @ t=0.5
15.32109744988874
% es.EZ (V/m) @ t=0.5
18.36632544484894
% es.tEX (V/m) @ t=0.5
-19.096202557388203
% es.tEY (V/m) @ t=0.5
0
% es.tEZ (V/m) @ t=0.5
18.36632544484894
% es.Ex (V/m) @ t=0.5
-19.09620255738824
% es.Ey (V/m) @ t=0.5
15.32109744988874
% es.Ez (V/m) @ t=0.5
18.36632544484894
% es.tEx (V/m) @ t=0.5
-19.096202557388203
% es.tEy (V/m) @ t=0.5
0
% es.tEz (V/m) @ t=0.5
18.36632544484894
% V (V) @ t=0.5
0.012690701296398243
% es.normE (V/m) @ t=0.52
40.80854823193589
% es.EX (V/m) @ t=0.52
-19.27208232680576
% es.EY (V/m) @ t=0.52
15.462210530658211
% es.EZ (V/m) @ t=0.52
18.53549333646386
% es.tEX (V/m) @ t=0.52
-19.2720823268057
% es.tEY (V/m) @ t=0.52
0
% es.tEZ (V/m) @ t=0.52
18.5354933364639
% es.Ex (V/m) @ t=0.52
-19.27208232680576
% es.Ey (V/m) @ t=0.52
15.462210530658211
% es.Ez (V/m) @ t=0.52
18.53549333646386
% es.tEx (V/m) @ t=0.52
-19.2720823268057
% es.tEy (V/m) @ t=0.52
0
% es.tEz (V/m) @ t=0.52
18.5354933364639
% V (V) @ t=0.52
0.012807588549284384
% es.normE (V/m) @ t=0.54
41.2041217691403
% es.EX (V/m) @ t=0.54
-19.458888761560317
% es.EY (V/m) @ t=0.54
15.61209060403771
% es.EZ (V/m) @ t=0.54
18.715171803262166
% es.tEX (V/m) @ t=0.54
-19.45888876156033
% es.tEY (V/m) @ t=0.54
0
% es.tEZ (V/m) @ t=0.54
18.715171803262137
% es.Ex (V/m) @ t=0.54
-19.458888761560317
% es.Ey (V/m) @ t=0.54
15.61209060403771
% es.Ez (V/m) @ t=0.54
18.715171803262166
% es.tEx (V/m) @ t=0.54
-19.45888876156033
% es.tEy (V/m) @ t=0.54
0
% es.tEz (V/m) @ t=0.54
18.715171803262137
% V (V) @ t=0.54
0.01293173780282249
% es.normE (V/m) @ t=0.56
41.599695306346575
% es.EX (V/m) @ t=0.56
-19.645695196314946
% es.EY (V/m) @ t=0.56
15.761970677417146
% es.EZ (V/m) @ t=0.56
18.894850270060424
% es.tEX (V/m) @ t=0.56
-19.645695196314946
% es.tEY (V/m) @ t=0.56
0
% es.tEZ (V/m) @ t=0.56
18.89485027006043
% es.Ex (V/m) @ t=0.56
-19.645695196314946
% es.Ey (V/m) @ t=0.56
15.761970677417146
% es.Ez (V/m) @ t=0.56
18.894850270060424
% es.tEx (V/m) @ t=0.56
-19.645695196314946
% es.tEy (V/m) @ t=0.56
0
% es.tEz (V/m) @ t=0.56
18.89485027006043
% V (V) @ t=0.56
0.013055887056360595
% es.normE (V/m) @ t=0.58
41.9952688435547
% es.EX (V/m) @ t=0.58
-19.83250163106952
% es.EY (V/m) @ t=0.58
15.911850750796638
% es.EZ (V/m) @ t=0.58
19.074528736858802
% es.tEX (V/m) @ t=0.58
-19.83250163106952
% es.tEY (V/m) @ t=0.58
0
% es.tEZ (V/m) @ t=0.58
19.074528736858724
% es.Ex (V/m) @ t=0.58
-19.83250163106952
% es.Ey (V/m) @ t=0.58
15.911850750796638
% es.Ez (V/m) @ t=0.58
19.074528736858802
% es.tEx (V/m) @ t=0.58
-19.83250163106952
% es.tEy (V/m) @ t=0.58
0
% es.tEz (V/m) @ t=0.58
19.074528736858724
% V (V) @ t=0.58
0.013180036309898696
% es.normE (V/m) @ t=0.6
42.3908423807648
% es.EX (V/m) @ t=0.6
-20.01930806582419
% es.EY (V/m) @ t=0.6
16.061730824176138
% es.EZ (V/m) @ t=0.6
19.254207203657145
% es.tEX (V/m) @ t=0.6
-20.019308065824156
% es.tEY (V/m) @ t=0.6
0
% es.tEZ (V/m) @ t=0.6
19.25420720365713
% es.Ex (V/m) @ t=0.6
-20.01930806582419
% es.Ey (V/m) @ t=0.6
16.061730824176138
% es.Ez (V/m) @ t=0.6
19.254207203657145
% es.tEx (V/m) @ t=0.6
-20.019308065824156
% es.tEy (V/m) @ t=0.6
0
% es.tEz (V/m) @ t=0.6
19.25420720365713
% V (V) @ t=0.6
0.013304185563436802
% es.normE (V/m) @ t=0.62
42.78641591797656
% es.EX (V/m) @ t=0.62
-20.206114500578764
% es.EY (V/m) @ t=0.62
16.2116108975556
% es.EZ (V/m) @ t=0.62
19.43388567045551
% es.tEX (V/m) @ t=0.62
-20.206114500578757
% es.tEY (V/m) @ t=0.62
0
% es.tEZ (V/m) @ t=0.62
19.43388567045554
% es.Ex (V/m) @ t=0.62
-20.206114500578764
% es.Ey (V/m) @ t=0.62
16.2116108975556
% es.Ez (V/m) @ t=0.62
19.43388567045551
% es.tEx (V/m) @ t=0.62
-20.206114500578757
% es.tEy (V/m) @ t=0.62
0
% es.tEz (V/m) @ t=0.62
19.43388567045554
% V (V) @ t=0.62
0.013428334816974908
% es.normE (V/m) @ t=0.64
43.18198945518993
% es.EX (V/m) @ t=0.64
-20.392920935333336
% es.EY (V/m) @ t=0.64
16.361490970935087
% es.EZ (V/m) @ t=0.64
19.613564137253775
% es.tEX (V/m) @ t=0.64
-20.39292093533338
% es.tEY (V/m) @ t=0.64
0
% es.tEZ (V/m) @ t=0.64
19.613564137253775
% es.Ex (V/m) @ t=0.64
-20.392920935333336
% es.Ey (V/m) @ t=0.64
16.361490970935087
% es.Ez (V/m) @ t=0.64
19.613564137253775
% es.tEx (V/m) @ t=0.64
-20.39292093533338
% es.tEy (V/m) @ t=0.64
0
% es.tEz (V/m) @ t=0.64
19.613564137253775
% V (V) @ t=0.64
0.01355248407051301
% es.normE (V/m) @ t=0.66
43.577562992404864
% es.EX (V/m) @ t=0.66
-20.57972737008791
% es.EY (V/m) @ t=0.66
16.511371044314565
% es.EZ (V/m) @ t=0.66
19.793242604052033
% es.tEX (V/m) @ t=0.66
-20.579727370087966
% es.tEY (V/m) @ t=0.66
0
% es.tEZ (V/m) @ t=0.66
19.79324260405201
% es.Ex (V/m) @ t=0.66
-20.57972737008791
% es.Ey (V/m) @ t=0.66
16.511371044314565
% es.Ez (V/m) @ t=0.66
19.793242604052033
% es.tEx (V/m) @ t=0.66
-20.579727370087966
% es.tEy (V/m) @ t=0.66
0
% es.tEz (V/m) @ t=0.66
19.79324260405201
% V (V) @ t=0.66
0.013676633324051116
% es.normE (V/m) @ t=0.68
43.973136529621556
% es.EX (V/m) @ t=0.68
-20.766533804842595
% es.EY (V/m) @ t=0.68
16.661251117693965
% es.EZ (V/m) @ t=0.68
19.972921070850347
% es.tEX (V/m) @ t=0.68
-20.766533804842567
% es.tEY (V/m) @ t=0.68
0
% es.tEZ (V/m) @ t=0.68
19.97292107085036
% es.Ex (V/m) @ t=0.68
-20.766533804842595
% es.Ey (V/m) @ t=0.68
16.661251117693965
% es.Ez (V/m) @ t=0.68
19.972921070850347
% es.tEx (V/m) @ t=0.68
-20.766533804842567
% es.tEy (V/m) @ t=0.68
0
% es.tEz (V/m) @ t=0.68
19.97292107085036
% V (V) @ t=0.68
0.01380078257758922
% es.normE (V/m) @ t=0.7
44.36871006683978
% es.EX (V/m) @ t=0.7
-20.95334023959714
% es.EY (V/m) @ t=0.7
16.81113119107345
% es.EZ (V/m) @ t=0.7
20.152599537648662
% es.tEX (V/m) @ t=0.7
-20.953340239597196
% es.tEY (V/m) @ t=0.7
0
% es.tEZ (V/m) @ t=0.7
20.152599537648655
% es.Ex (V/m) @ t=0.7
-20.95334023959714
% es.Ey (V/m) @ t=0.7
16.81113119107345
% es.Ez (V/m) @ t=0.7
20.152599537648662
% es.tEx (V/m) @ t=0.7
-20.953340239597196
% es.tEy (V/m) @ t=0.7
0
% es.tEz (V/m) @ t=0.7
20.152599537648655
% V (V) @ t=0.7
0.013924931831127326
% es.normE (V/m) @ t=0.72
44.76428360405952
% es.EX (V/m) @ t=0.72
-21.14014667435177
% es.EY (V/m) @ t=0.72
16.96101126445295
% es.EZ (V/m) @ t=0.72
20.332278004446984
% es.tEX (V/m) @ t=0.72
-21.140146674351755
% es.tEY (V/m) @ t=0.72
0
% es.tEZ (V/m) @ t=0.72
20.332278004447005
% es.Ex (V/m) @ t=0.72
-21.14014667435177
% es.Ey (V/m) @ t=0.72
16.96101126445295
% es.Ez (V/m) @ t=0.72
20.332278004446984
% es.tEx (V/m) @ t=0.72
-21.140146674351755
% es.tEy (V/m) @ t=0.72
0
% es.tEz (V/m) @ t=0.72
20.332278004447005
% V (V) @ t=0.72
0.014049081084665429
% es.normE (V/m) @ t=0.74
45.15985714128074
% es.EX (V/m) @ t=0.74
-21.32695310910637
% es.EY (V/m) @ t=0.74
17.11089133783242
% es.EZ (V/m) @ t=0.74
20.51195647124527
% es.tEX (V/m) @ t=0.74
-21.326953109106334
% es.tEY (V/m) @ t=0.74
0
% es.tEZ (V/m) @ t=0.74
20.51195647124524
% es.Ex (V/m) @ t=0.74
-21.32695310910637
% es.Ey (V/m) @ t=0.74
17.11089133783242
% es.Ez (V/m) @ t=0.74
20.51195647124527
% es.tEx (V/m) @ t=0.74
-21.326953109106334
% es.tEy (V/m) @ t=0.74
0
% es.tEz (V/m) @ t=0.74
20.51195647124524
% V (V) @ t=0.74
0.014173230338203531
% es.normE (V/m) @ t=0.76
45.55543067850336
% es.EX (V/m) @ t=0.76
-21.513759543860914
% es.EY (V/m) @ t=0.76
17.260771411211906
% es.EZ (V/m) @ t=0.76
20.69163493804352
% es.tEX (V/m) @ t=0.76
-21.51375954386092
% es.tEY (V/m) @ t=0.76
0
% es.tEZ (V/m) @ t=0.76
20.691634938043478
% es.Ex (V/m) @ t=0.76
-21.513759543860914
% es.Ey (V/m) @ t=0.76
17.260771411211906
% es.Ez (V/m) @ t=0.76
20.69163493804352
% es.tEx (V/m) @ t=0.76
-21.51375954386092
% es.tEy (V/m) @ t=0.76
0
% es.tEz (V/m) @ t=0.76
20.691634938043478
% V (V) @ t=0.76
0.014297379591741637
% es.normE (V/m) @ t=0.78
45.97723164586226
% es.EX (V/m) @ t=0.78
-21.712952654637704
% es.EY (V/m) @ t=0.78
17.420589106705876
% es.EZ (V/m) @ t=0.78
20.883225340780704
% es.tEX (V/m) @ t=0.78
-21.71295265463769
% es.tEY (V/m) @ t=0.78
0
% es.tEZ (V/m) @ t=0.78
20.88322534078071
% es.Ex (V/m) @ t=0.78
-21.712952654637704
% es.Ey (V/m) @ t=0.78
17.420589106705876
% es.Ez (V/m) @ t=0.78
20.883225340780704
% es.tEx (V/m) @ t=0.78
-21.71295265463769
% es.tEy (V/m) @ t=0.78
0
% es.tEz (V/m) @ t=0.78
20.88322534078071
% V (V) @ t=0.78
0.01442976019129259
% es.normE (V/m) @ t=0.8
46.4162480931228
% es.EX (V/m) @ t=0.8
-21.92027628262487
% es.EY (V/m) @ t=0.8
17.586929779590143
% es.EZ (V/m) @ t=0.8
21.08263464505268
% es.tEX (V/m) @ t=0.8
-21.920276282624897
% es.tEY (V/m) @ t=0.8
0
% es.tEZ (V/m) @ t=0.8
21.08263464505268
% es.Ex (V/m) @ t=0.8
-21.92027628262487
% es.Ey (V/m) @ t=0.8
17.586929779590143
% es.Ez (V/m) @ t=0.8
21.08263464505268
% es.tEx (V/m) @ t=0.8
-21.920276282624897
% es.tEy (V/m) @ t=0.8
0
% es.tEz (V/m) @ t=0.8
21.08263464505268
% V (V) @ t=0.8
0.014567543781952876
% es.normE (V/m) @ t=0.82
46.85526454038403
% es.EX (V/m) @ t=0.82
-22.127599910612034
% es.EY (V/m) @ t=0.82
17.753270452474275
% es.EZ (V/m) @ t=0.82
21.282043949324525
% es.tEX (V/m) @ t=0.82
-22.127599910612005
% es.tEY (V/m) @ t=0.82
0
% es.tEZ (V/m) @ t=0.82
21.28204394932459
% es.Ex (V/m) @ t=0.82
-22.127599910612034
% es.Ey (V/m) @ t=0.82
17.753270452474275
% es.Ez (V/m) @ t=0.82
21.282043949324525
% es.tEx (V/m) @ t=0.82
-22.127599910612005
% es.tEy (V/m) @ t=0.82
0
% es.tEz (V/m) @ t=0.82
21.28204394932459
% V (V) @ t=0.82
0.014705327372613163
% es.normE (V/m) @ t=0.84
47.29428098764615
% es.EX (V/m) @ t=0.84
-22.334923538599213
% es.EY (V/m) @ t=0.84
17.919611125358536
% es.EZ (V/m) @ t=0.84
21.481453253596413
% es.tEX (V/m) @ t=0.84
-22.334923538599163
% es.tEY (V/m) @ t=0.84
0
% es.tEZ (V/m) @ t=0.84
21.481453253596385
% es.Ex (V/m) @ t=0.84
-22.334923538599213
% es.Ey (V/m) @ t=0.84
17.919611125358536
% es.Ez (V/m) @ t=0.84
21.481453253596413
% es.tEx (V/m) @ t=0.84
-22.334923538599163
% es.tEy (V/m) @ t=0.84
0
% es.tEz (V/m) @ t=0.84
21.481453253596385
% V (V) @ t=0.84
0.014843110963273448
% es.normE (V/m) @ t=0.86
47.73329743490895
% es.EX (V/m) @ t=0.86
-22.542247166586392
% es.EY (V/m) @ t=0.86
18.085951798242725
% es.EZ (V/m) @ t=0.86
21.68086255786831
% es.tEX (V/m) @ t=0.86
-22.542247166586392
% es.tEY (V/m) @ t=0.86
0
% es.tEZ (V/m) @ t=0.86
21.680862557868238
% es.Ex (V/m) @ t=0.86
-22.542247166586392
% es.Ey (V/m) @ t=0.86
18.085951798242725
% es.Ez (V/m) @ t=0.86
21.68086255786831
% es.tEx (V/m) @ t=0.86
-22.542247166586392
% es.tEy (V/m) @ t=0.86
0
% es.tEz (V/m) @ t=0.86
21.680862557868238
% V (V) @ t=0.86
0.014980894553933734
% es.normE (V/m) @ t=0.88
48.172313882172574
% es.EX (V/m) @ t=0.88
-22.749570794573586
% es.EY (V/m) @ t=0.88
18.252292471126914
% es.EZ (V/m) @ t=0.88
21.880271862140205
% es.tEX (V/m) @ t=0.88
-22.749570794573557
% es.tEY (V/m) @ t=0.88
0
% es.tEZ (V/m) @ t=0.88
21.880271862140205
% es.Ex (V/m) @ t=0.88
-22.749570794573586
% es.Ey (V/m) @ t=0.88
18.252292471126914
% es.Ez (V/m) @ t=0.88
21.880271862140205
% es.tEx (V/m) @ t=0.88
-22.749570794573557
% es.tEy (V/m) @ t=0.88
0
% es.tEz (V/m) @ t=0.88
21.880271862140205
% V (V) @ t=0.88
0.01511867814459402
% es.normE (V/m) @ t=0.9
48.611330329436825
% es.EX (V/m) @ t=0.9
-22.956894422560765
% es.EY (V/m) @ t=0.9
18.418633144011118
% es.EZ (V/m) @ t=0.9
22.079681166412065
% es.tEX (V/m) @ t=0.9
-22.956894422560765
% es.tEY (V/m) @ t=0.9
0
% es.tEZ (V/m) @ t=0.9
22.07968116641206
% es.Ex (V/m) @ t=0.9
-22.956894422560765
% es.Ey (V/m) @ t=0.9
18.418633144011118
% es.Ez (V/m) @ t=0.9
22.079681166412065
% es.tEx (V/m) @ t=0.9
-22.956894422560765
% es.tEy (V/m) @ t=0.9
0
% es.tEz (V/m) @ t=0.9
22.07968116641206
% V (V) @ t=0.9
0.015256461735254306
% es.normE (V/m) @ t=0.92
49.050346776701915
% es.EX (V/m) @ t=0.92
-23.164218050547916
% es.EY (V/m) @ t=0.92
18.58497381689535
% es.EZ (V/m) @ t=0.92
22.27909047068401
% es.tEX (V/m) @ t=0.92
-23.164218050547944
% es.tEY (V/m) @ t=0.92
0
% es.tEZ (V/m) @ t=0.92
22.27909047068397
% es.Ex (V/m) @ t=0.92
-23.164218050547916
% es.Ey (V/m) @ t=0.92
18.58497381689535
% es.Ez (V/m) @ t=0.92
22.27909047068401
% es.tEx (V/m) @ t=0.92
-23.164218050547944
% es.tEy (V/m) @ t=0.92
0
% es.tEz (V/m) @ t=0.92
22.27909047068397
% V (V) @ t=0.92
0.015394245325914595
% es.normE (V/m) @ t=0.94
49.48936322396765
% es.EX (V/m) @ t=0.94
-23.371541678535095
% es.EY (V/m) @ t=0.94
18.75131448977956
% es.EZ (V/m) @ t=0.94
22.478499774955942
% es.tEX (V/m) @ t=0.94
-23.37154167853509
% es.tEY (V/m) @ t=0.94
0
% es.tEZ (V/m) @ t=0.94
22.47849977495588
% es.Ex (V/m) @ t=0.94
-23.371541678535095
% es.Ey (V/m) @ t=0.94
18.75131448977956
% es.Ez (V/m) @ t=0.94
22.478499774955942
% es.tEx (V/m) @ t=0.94
-23.37154167853509
% es.tEy (V/m) @ t=0.94
0
% es.tEz (V/m) @ t=0.94
22.47849977495588
% V (V) @ t=0.94
0.01553202891657488
% es.normE (V/m) @ t=0.96
49.92837967123397
% es.EX (V/m) @ t=0.96
-23.57886530652229
% es.EY (V/m) @ t=0.96
18.917655162663735
% es.EZ (V/m) @ t=0.96
22.677909079227774
% es.tEX (V/m) @ t=0.96
-23.578865306522317
% es.tEY (V/m) @ t=0.96
0
% es.tEZ (V/m) @ t=0.96
22.67790907922779
% es.Ex (V/m) @ t=0.96
-23.57886530652229
% es.Ey (V/m) @ t=0.96
18.917655162663735
% es.Ez (V/m) @ t=0.96
22.677909079227774
% es.tEx (V/m) @ t=0.96
-23.578865306522317
% es.tEy (V/m) @ t=0.96
0
% es.tEz (V/m) @ t=0.96
22.67790907922779
% V (V) @ t=0.96
0.01566981250723517
% es.normE (V/m) @ t=0.98
50.36739611850102
% es.EX (V/m) @ t=0.98
-23.78618893450941
% es.EY (V/m) @ t=0.98
19.08399583554798
% es.EZ (V/m) @ t=0.98
22.877318383499706
% es.tEX (V/m) @ t=0.98
-23.786188934509397
% es.tEY (V/m) @ t=0.98
0
% es.tEZ (V/m) @ t=0.98
22.877318383499755
% es.Ex (V/m) @ t=0.98
-23.78618893450941
% es.Ey (V/m) @ t=0.98
19.08399583554798
% es.Ez (V/m) @ t=0.98
22.877318383499706
% es.tEx (V/m) @ t=0.98
-23.786188934509397
% es.tEy (V/m) @ t=0.98
0
% es.tEz (V/m) @ t=0.98
22.877318383499755
% V (V) @ t=0.98
0.015807596097895452
% es.normE (V/m) @ t=1
50.806412565768724
% es.EX (V/m) @ t=1
-23.99351256249662
% es.EY (V/m) @ t=1
19.25033650843215
% es.EZ (V/m) @ t=1
23.076727687771573
% es.tEX (V/m) @ t=1
-23.993512562496605
% es.tEY (V/m) @ t=1
0
% es.tEZ (V/m) @ t=1
23.07672768777155
% es.Ex (V/m) @ t=1
-23.99351256249662
% es.Ey (V/m) @ t=1
19.25033650843215
% es.Ez (V/m) @ t=1
23.076727687771573
% es.tEx (V/m) @ t=1
-23.993512562496605
% es.tEy (V/m) @ t=1
0
% es.tEz (V/m) @ t=1
23.07672768777155
% V (V) @ t=1
0.01594537968855574
% es.normE (V/m) @ t=1.02
51.24542901303692
% es.EX (V/m) @ t=1.02
-24.200836190483727
% es.EY (V/m) @ t=1.02
19.416677181316395
% es.EZ (V/m) @ t=1.02
23.276136992043376
% es.tEX (V/m) @ t=1.02
-24.200836190483706
% es.tEY (V/m) @ t=1.02
0
% es.tEZ (V/m) @ t=1.02
23.276136992043348
% es.Ex (V/m) @ t=1.02
-24.200836190483727
% es.Ey (V/m) @ t=1.02
19.416677181316395
% es.Ez (V/m) @ t=1.02
23.276136992043376
% es.tEx (V/m) @ t=1.02
-24.200836190483706
% es.tEy (V/m) @ t=1.02
0
% es.tEz (V/m) @ t=1.02
23.276136992043348
% V (V) @ t=1.02
0.016083163279216026
% es.normE (V/m) @ t=1.04
51.701587048166104
% es.EX (V/m) @ t=1.04
-24.416258762014948
% es.EY (V/m) @ t=1.04
19.589513612967515
% es.EZ (V/m) @ t=1.04
23.483327721980608
% es.tEX (V/m) @ t=1.04
-24.416258762015012
% es.tEY (V/m) @ t=1.04
0
% es.tEZ (V/m) @ t=1.04
23.48332772198063
% es.Ex (V/m) @ t=1.04
-24.416258762014948
% es.Ey (V/m) @ t=1.04
19.589513612967515
% es.Ez (V/m) @ t=1.04
23.483327721980608
% es.tEx (V/m) @ t=1.04