% Model:              1 neuron.mph
% Version:            COMSOL 6.1.0.252
% Date:               Mar 22 2023, 18:12
% Dimension:          0
% Nodes:              14017
% Expressions:        14017
% Description:        Electric field norm, Electric field, X component, Electric field, Y component, Electric field, Z component, Tangential electric field, X component, Tangential electric field, Y component, Tangential electric field, Z component, Electric field, x component, Electric field, y component, Electric field, z component, Tangential electric field, x component, Tangential electric field, y component, Tangential electric field, z component, Electric potential
% Length unit:        mm
% x
1
% y
12.2
% z
1
% es.normE (V/m) @ t=0
1.4493148235327873
% es.EX (V/m) @ t=0
0.9841024726238388
% es.EY (V/m) @ t=0
0.2794979632185317
% es.EZ (V/m) @ t=0
0.9998943389871435
% es.tEX (V/m) @ t=0
0.9841024726238174
% es.tEY (V/m) @ t=0
0
% es.tEZ (V/m) @ t=0
0.99989433898714
% es.Ex (V/m) @ t=0
0.9841024726238388
% es.Ey (V/m) @ t=0
0.2794979632185317
% es.Ez (V/m) @ t=0
0.9998943389871435
% es.tEx (V/m) @ t=0
0.9841024726238174
% es.tEy (V/m) @ t=0
0
% es.tEz (V/m) @ t=0
0.99989433898714
% V (V) @ t=0
0.013590635518458839
% es.normE (V/m) @ t=0.02
1.2517883356738793
% es.EX (V/m) @ t=0.02
0.8499795740231377
% es.EY (V/m) @ t=0.02
0.24140530722658937
% es.EZ (V/m) @ t=0.02
0.8636191737710366
% es.tEX (V/m) @ t=0.02
0.8499795740231235
% es.tEY (V/m) @ t=0.02
0
% es.tEZ (V/m) @ t=0.02
0.8636191737710135
% es.Ex (V/m) @ t=0.02
0.8499795740231377
% es.Ey (V/m) @ t=0.02
0.24140530722658937
% es.Ez (V/m) @ t=0.02
0.8636191737710366
% es.tEx (V/m) @ t=0.02
0.8499795740231235
% es.tEy (V/m) @ t=0.02
0
% es.tEz (V/m) @ t=0.02
0.8636191737710135
% V (V) @ t=0.02
0.011738373702577212
% es.normE (V/m) @ t=0.04
1.2633043498635064
% es.EX (V/m) @ t=0.04
0.8577990884185773
% es.EY (V/m) @ t=0.04
0.24362615108162267
% es.EZ (V/m) @ t=0.04
0.8715641678178736
% es.tEX (V/m) @ t=0.04
0.8577990884185596
% es.tEY (V/m) @ t=0.04
0
% es.tEZ (V/m) @ t=0.04
0.8715641678178656
% es.Ex (V/m) @ t=0.04
0.8577990884185773
% es.Ey (V/m) @ t=0.04
0.24362615108162267
% es.Ez (V/m) @ t=0.04
0.8715641678178736
% es.tEx (V/m) @ t=0.04
0.8577990884185596
% es.tEy (V/m) @ t=0.04
0
% es.tEz (V/m) @ t=0.04
0.8715641678178656
% V (V) @ t=0.04
0.011846362675182617
% es.normE (V/m) @ t=0.06
1.2749035949192393
% es.EX (V/m) @ t=0.06
0.8656751176368829
% es.EY (V/m) @ t=0.06
0.24586304556743066
% es.EZ (V/m) @ t=0.06
0.8795665836558912
% es.tEX (V/m) @ t=0.06
0.8656751176368829
% es.tEY (V/m) @ t=0.06
0
% es.tEZ (V/m) @ t=0.06
0.8795665836558797
% es.Ex (V/m) @ t=0.06
0.8656751176368829
% es.Ey (V/m) @ t=0.06
0.24586304556743066
% es.Ez (V/m) @ t=0.06
0.8795665836558912
% es.tEx (V/m) @ t=0.06
0.8656751176368829
% es.tEy (V/m) @ t=0.06
0
% es.tEz (V/m) @ t=0.06
0.8795665836558797
% V (V) @ t=0.06
0.011955132162497408
% es.normE (V/m) @ t=0.08
1.2867267404580816
% es.EX (V/m) @ t=0.08
0.8737031782085687
% es.EY (V/m) @ t=0.08
0.2481431176163813
% es.EZ (V/m) @ t=0.08
0.8877234708336355
% es.tEX (V/m) @ t=0.08
0.873703178208558
% es.tEY (V/m) @ t=0.08
0
% es.tEZ (V/m) @ t=0.08
0.8877234708336204
% es.Ex (V/m) @ t=0.08
0.8737031782085687
% es.Ey (V/m) @ t=0.08
0.2481431176163813
% es.Ez (V/m) @ t=0.08
0.8877234708336355
% es.tEx (V/m) @ t=0.08
0.873703178208558
% es.tEy (V/m) @ t=0.08
0
% es.tEz (V/m) @ t=0.08
0.8877234708336204
% V (V) @ t=0.08
0.012066001373555998
% es.normE (V/m) @ t=0.1
1.2986078922307231
% es.EX (V/m) @ t=0.1
0.8817706257708267
% es.EY (V/m) @ t=0.1
0.25043437574139205
% es.EZ (V/m) @ t=0.1
0.8959203771329687
% es.tEX (V/m) @ t=0.1
0.8817706257707982
% es.tEY (V/m) @ t=0.1
0
% es.tEZ (V/m) @ t=0.1
0.8959203771329527
% es.Ex (V/m) @ t=0.1
0.8817706257708267
% es.Ey (V/m) @ t=0.1
0.25043437574139205
% es.Ez (V/m) @ t=0.1
0.8959203771329687
% es.tEx (V/m) @ t=0.1
0.8817706257707982
% es.tEy (V/m) @ t=0.1
0
% es.tEz (V/m) @ t=0.1
0.8959203771329527
% V (V) @ t=0.1
0.012177414563193037
% es.normE (V/m) @ t=0.12
1.3104890440034427
% es.EX (V/m) @ t=0.12
0.8898380733331592
% es.EY (V/m) @ t=0.12
0.25272563386642766
% es.EZ (V/m) @ t=0.12
0.9041172834323117
% es.tEX (V/m) @ t=0.12
0.8898380733331379
% es.tEY (V/m) @ t=0.12
0
% es.tEZ (V/m) @ t=0.12
0.9041172834322921
% es.Ex (V/m) @ t=0.12
0.8898380733331592
% es.Ey (V/m) @ t=0.12
0.25272563386642766
% es.Ez (V/m) @ t=0.12
0.9041172834323117
% es.tEx (V/m) @ t=0.12
0.8898380733331379
% es.tEy (V/m) @ t=0.12
0
% es.tEz (V/m) @ t=0.12
0.9041172834322921
% V (V) @ t=0.12
0.012288827752830076
% es.normE (V/m) @ t=0.14
1.3227236633270927
% es.EX (V/m) @ t=0.14
0.8981455292428677
% es.EY (V/m) @ t=0.14
0.25508506054998215
% es.EZ (V/m) @ t=0.14
0.912558048702941
% es.tEX (V/m) @ t=0.14
0.8981455292428535
% es.tEY (V/m) @ t=0.14
0
% es.tEZ (V/m) @ t=0.14
0.9125580487029339
% es.Ex (V/m) @ t=0.14
0.8981455292428677
% es.Ey (V/m) @ t=0.14
0.25508506054998215
% es.Ez (V/m) @ t=0.14
0.912558048702941
% es.tEx (V/m) @ t=0.14
0.8981455292428535
% es.tEy (V/m) @ t=0.14
0
% es.tEz (V/m) @ t=0.14
0.9125580487029339
% V (V) @ t=0.14
0.012403555172815668
% es.normE (V/m) @ t=0.16
1.335199156708784
% es.EX (V/m) @ t=0.16
0.9066165412822826
% es.EY (V/m) @ t=0.16
0.25749094139106177
% es.EZ (V/m) @ t=0.16
0.9211649941500628
% es.tEX (V/m) @ t=0.16
0.9066165412822897
% es.tEY (V/m) @ t=0.16
0
% es.tEZ (V/m) @ t=0.16
0.9211649941500397
% es.Ex (V/m) @ t=0.16
0.9066165412822826
% es.Ey (V/m) @ t=0.16
0.25749094139106177
% es.Ez (V/m) @ t=0.16
0.9211649941500628
% es.tEx (V/m) @ t=0.16
0.9066165412822897
% es.tEy (V/m) @ t=0.16
0
% es.tEz (V/m) @ t=0.16
0.9211649941500397
% V (V) @ t=0.16
0.012520541108784294
% es.normE (V/m) @ t=0.18
1.347674650090461
% es.EX (V/m) @ t=0.18
0.9150875533216549
% es.EY (V/m) @ t=0.18
0.2598968222322178
% es.EZ (V/m) @ t=0.18
0.9297719395971775
% es.tEX (V/m) @ t=0.18
0.9150875533216407
% es.tEY (V/m) @ t=0.18
0
% es.tEZ (V/m) @ t=0.18
0.9297719395971669
% es.Ex (V/m) @ t=0.18
0.9150875533216549
% es.Ey (V/m) @ t=0.18
0.2598968222322178
% es.Ez (V/m) @ t=0.18
0.9297719395971775
% es.tEx (V/m) @ t=0.18
0.9150875533216407
% es.tEy (V/m) @ t=0.18
0
% es.tEz (V/m) @ t=0.18
0.9297719395971669
% V (V) @ t=0.18
0.012637527044752923
% es.normE (V/m) @ t=0.2
1.3601501434721643
% es.EX (V/m) @ t=0.2
0.923558565361045
% es.EY (V/m) @ t=0.2
0.26230270307335246
% es.EZ (V/m) @ t=0.2
0.9383788850443135
% es.tEX (V/m) @ t=0.2
0.9235585653610485
% es.tEY (V/m) @ t=0.2
0
% es.tEZ (V/m) @ t=0.2
0.938378885044294
% es.Ex (V/m) @ t=0.2
0.923558565361045
% es.Ey (V/m) @ t=0.2
0.26230270307335246
% es.Ez (V/m) @ t=0.2
0.9383788850443135
% es.tEx (V/m) @ t=0.2
0.9235585653610485
% es.tEy (V/m) @ t=0.2
0
% es.tEz (V/m) @ t=0.2
0.938378885044294
% V (V) @ t=0.2
0.012754512980721552
% es.normE (V/m) @ t=0.22
1.3726256368538081
% es.EX (V/m) @ t=0.22
0.9320295774003888
% es.EY (V/m) @ t=0.22
0.26470858391450136
% es.EZ (V/m) @ t=0.22
0.9469858304914212
% es.tEX (V/m) @ t=0.22
0.9320295774003995
% es.tEY (V/m) @ t=0.22
0
% es.tEZ (V/m) @ t=0.22
0.946985830491414
% es.Ex (V/m) @ t=0.22
0.9320295774003888
% es.Ey (V/m) @ t=0.22
0.26470858391450136
% es.Ez (V/m) @ t=0.22
0.9469858304914212
% es.tEx (V/m) @ t=0.22
0.9320295774003995
% es.tEy (V/m) @ t=0.22
0
% es.tEz (V/m) @ t=0.22
0.946985830491414
% V (V) @ t=0.22
0.012871498916690177
% es.normE (V/m) @ t=0.24
1.3851011302355296
% es.EX (V/m) @ t=0.24
0.9405005894398393
% es.EY (V/m) @ t=0.24
0.26711446475558454
% es.EZ (V/m) @ t=0.24
0.9555927759385394
% es.tEX (V/m) @ t=0.24
0.9405005894398215
% es.tEY (V/m) @ t=0.24
0
% es.tEZ (V/m) @ t=0.24
0.955592775938527
% es.Ex (V/m) @ t=0.24
0.9405005894398393
% es.Ey (V/m) @ t=0.24
0.26711446475558454
% es.Ez (V/m) @ t=0.24
0.9555927759385394
% es.tEx (V/m) @ t=0.24
0.9405005894398215
% es.tEy (V/m) @ t=0.24
0
% es.tEz (V/m) @ t=0.24
0.955592775938527
% V (V) @ t=0.24
0.012988484852658806
% es.normE (V/m) @ t=0.26
1.3978364498248834
% es.EX (V/m) @ t=0.26
0.949148029012175
% es.EY (V/m) @ t=0.26
0.269570436786319
% es.EZ (V/m) @ t=0.26
0.9643789843204935
% es.tEX (V/m) @ t=0.26
0.9491480290121643
% es.tEY (V/m) @ t=0.26
0
% es.tEZ (V/m) @ t=0.26
0.9643789843204758
% es.Ex (V/m) @ t=0.26
0.949148029012175
% es.Ey (V/m) @ t=0.26
0.269570436786319
% es.Ez (V/m) @ t=0.26
0.9643789843204935
% es.tEx (V/m) @ t=0.26
0.9491480290121643
% es.tEy (V/m) @ t=0.26
0
% es.tEz (V/m) @ t=0.26
0.9643789843204758
% V (V) @ t=0.26
0.013107909065414564
% es.normE (V/m) @ t=0.28
1.4116396773616238
% es.EX (V/m) @ t=0.28
0.9585206008422347
% es.EY (V/m) @ t=0.28
0.2722322878926047
% es.EZ (V/m) @ t=0.28
0.9739019787044878
% es.tEX (V/m) @ t=0.28
0.9585206008422062
% es.tEY (V/m) @ t=0.28
0
% es.tEZ (V/m) @ t=0.28
0.9739019787044754
% es.Ex (V/m) @ t=0.28
0.9585206008422347
% es.Ey (V/m) @ t=0.28
0.2722322878926047
% es.Ez (V/m) @ t=0.28
0.9739019787044878
% es.tEx (V/m) @ t=0.28
0.9585206008422062
% es.tEy (V/m) @ t=0.28
0
% es.tEz (V/m) @ t=0.28
0.9739019787044754
% V (V) @ t=0.28
0.013237354804413938
% es.normE (V/m) @ t=0.3
1.4254429048983701
% es.EX (V/m) @ t=0.3
0.9678931726722979
% es.EY (V/m) @ t=0.3
0.2748941389988797
% es.EZ (V/m) @ t=0.3
0.9834249730884768
% es.tEX (V/m) @ t=0.3
0.9678931726722766
% es.tEY (V/m) @ t=0.3
0
% es.tEZ (V/m) @ t=0.3
0.9834249730884537
% es.Ex (V/m) @ t=0.3
0.9678931726722979
% es.Ey (V/m) @ t=0.3
0.2748941389988797
% es.Ez (V/m) @ t=0.3
0.9834249730884768
% es.tEx (V/m) @ t=0.3
0.9678931726722766
% es.tEy (V/m) @ t=0.3
0
% es.tEz (V/m) @ t=0.3
0.9834249730884537
% V (V) @ t=0.3
0.013366800543413312
% es.normE (V/m) @ t=0.32
1.4392461324351158
% es.EX (V/m) @ t=0.32
0.9772657445023682
% es.EY (V/m) @ t=0.32
0.2775559901051192
% es.EZ (V/m) @ t=0.32
0.9929479674724568
% es.tEX (V/m) @ t=0.32
0.9772657445023469
% es.tEY (V/m) @ t=0.32
0
% es.tEZ (V/m) @ t=0.32
0.9929479674724391
% es.Ex (V/m) @ t=0.32
0.9772657445023682
% es.Ey (V/m) @ t=0.32
0.2775559901051192
% es.Ez (V/m) @ t=0.32
0.9929479674724568
% es.tEx (V/m) @ t=0.32
0.9772657445023469
% es.tEy (V/m) @ t=0.32
0
% es.tEz (V/m) @ t=0.32
0.9929479674724391
% V (V) @ t=0.32
0.013496246282412687
% es.normE (V/m) @ t=0.34
1.4530493599719034
% es.EX (V/m) @ t=0.34
0.9866383163324493
% es.EY (V/m) @ t=0.34
0.28021784121140847
% es.EZ (V/m) @ t=0.34
1.0024709618564458
% es.tEX (V/m) @ t=0.34
0.9866383163324315
% es.tEY (V/m) @ t=0.34
0
% es.tEZ (V/m) @ t=0.34
1.0024709618564316
% es.Ex (V/m) @ t=0.34
0.9866383163324493
% es.Ey (V/m) @ t=0.34
0.28021784121140847
% es.Ez (V/m) @ t=0.34
1.0024709618564458
% es.tEx (V/m) @ t=0.34
0.9866383163324315
% es.tEy (V/m) @ t=0.34
0
% es.tEz (V/m) @ t=0.34
1.0024709618564316
% V (V) @ t=0.34
0.013625692021412061
% es.normE (V/m) @ t=0.36
1.4668525875086598
% es.EX (V/m) @ t=0.36
0.9960108881624983
% es.EY (V/m) @ t=0.36
0.28287969231768706
% es.EZ (V/m) @ t=0.36
1.0119939562404312
% es.tEX (V/m) @ t=0.36
0.9960108881624876
% es.tEY (V/m) @ t=0.36
0
% es.tEZ (V/m) @ t=0.36
1.011993956240417
% es.Ex (V/m) @ t=0.36
0.9960108881624983
% es.Ey (V/m) @ t=0.36
0.28287969231768706
% es.Ez (V/m) @ t=0.36
1.0119939562404312
% es.tEx (V/m) @ t=0.36
0.9960108881624876
% es.tEy (V/m) @ t=0.36
0
% es.tEz (V/m) @ t=0.36
1.011993956240417
% V (V) @ t=0.36
0.013755137760411436
% es.normE (V/m) @ t=0.38
1.4806558150454925
% es.EX (V/m) @ t=0.38
1.0053834599926184
% es.EY (V/m) @ t=0.38
0.28554154342391413
% es.EZ (V/m) @ t=0.38
1.0215169506244397
% es.tEX (V/m) @ t=0.38
1.0053834599925722
% es.tEY (V/m) @ t=0.38
0
% es.tEZ (V/m) @ t=0.38
1.0215169506244166
% es.Ex (V/m) @ t=0.38
1.0053834599926184
% es.Ey (V/m) @ t=0.38
0.28554154342391413
% es.Ez (V/m) @ t=0.38
1.0215169506244397
% es.tEx (V/m) @ t=0.38
1.0053834599925722
% es.tEy (V/m) @ t=0.38
0
% es.tEz (V/m) @ t=0.38
1.0215169506244166
% V (V) @ t=0.38
0.01388458349941081
% es.normE (V/m) @ t=0.4
1.4944590425822597
% es.EX (V/m) @ t=0.4
1.0147560318226212
% es.EY (V/m) @ t=0.4
0.2882033945302176
% es.EZ (V/m) @ t=0.4
1.0310399450084304
% es.tEX (V/m) @ t=0.4
1.014756031822614
% es.tEY (V/m) @ t=0.4
0
% es.tEZ (V/m) @ t=0.4
1.0310399450084162
% es.Ex (V/m) @ t=0.4
1.0147560318226212
% es.Ey (V/m) @ t=0.4
0.2882033945302176
% es.Ez (V/m) @ t=0.4
1.0310399450084304
% es.tEx (V/m) @ t=0.4
1.014756031822614
% es.tEy (V/m) @ t=0.4
0
% es.tEz (V/m) @ t=0.4
1.0310399450084162
% V (V) @ t=0.4
0.014014029238410186
% es.normE (V/m) @ t=0.42
1.5082622701190769
% es.EX (V/m) @ t=0.42
1.0241286036527093
% es.EY (V/m) @ t=0.42
0.29086524563649974
% es.EZ (V/m) @ t=0.42
1.0405629393924176
% es.tEX (V/m) @ t=0.42
1.0241286036526986
% es.tEY (V/m) @ t=0.42
0
% es.tEZ (V/m) @ t=0.42
1.0405629393924087
% es.Ex (V/m) @ t=0.42
1.0241286036527093
% es.Ey (V/m) @ t=0.42
0.29086524563649974
% es.Ez (V/m) @ t=0.42
1.0405629393924176
% es.tEx (V/m) @ t=0.42
1.0241286036526986
% es.tEy (V/m) @ t=0.42
0
% es.tEz (V/m) @ t=0.42
1.0405629393924087
% V (V) @ t=0.42
0.014143474977409556
% es.normE (V/m) @ t=0.44
1.5220654976558743
% es.EX (V/m) @ t=0.44
1.0335011754827441
% es.EY (V/m) @ t=0.44
0.29352709674276767
% es.EZ (V/m) @ t=0.44
1.0500859337764084
% es.tEX (V/m) @ t=0.44
1.0335011754827406
% es.tEY (V/m) @ t=0.44
0
% es.tEZ (V/m) @ t=0.44
1.0500859337763941
% es.Ex (V/m) @ t=0.44
1.0335011754827441
% es.Ey (V/m) @ t=0.44
0.29352709674276767
% es.Ez (V/m) @ t=0.44
1.0500859337764084
% es.tEx (V/m) @ t=0.44
1.0335011754827406
% es.tEy (V/m) @ t=0.44
0
% es.tEz (V/m) @ t=0.44
1.0500859337763941
% V (V) @ t=0.44
0.014272920716408934
% es.normE (V/m) @ t=0.46
1.5358687251926852
% es.EX (V/m) @ t=0.46
1.0428737473128002
% es.EY (V/m) @ t=0.46
0.29618894784903205
% es.EZ (V/m) @ t=0.46
1.0596089281603955
% es.tEX (V/m) @ t=0.46
1.0428737473127825
% es.tEY (V/m) @ t=0.46
0
% es.tEZ (V/m) @ t=0.46
1.0596089281603795
% es.Ex (V/m) @ t=0.46
1.0428737473128002
% es.Ey (V/m) @ t=0.46
0.29618894784903205
% es.Ez (V/m) @ t=0.46
1.0596089281603955
% es.tEx (V/m) @ t=0.46
1.0428737473127825
% es.tEy (V/m) @ t=0.46
0
% es.tEz (V/m) @ t=0.46
1.0596089281603795
% V (V) @ t=0.46
0.014402366455408308
% es.normE (V/m) @ t=0.48
1.5496719527295637
% es.EX (V/m) @ t=0.48
1.0522463191429061
% es.EY (V/m) @ t=0.48
0.29885079895535327
% es.EZ (V/m) @ t=0.48
1.069131922544381
% es.tEX (V/m) @ t=0.48
1.0522463191428812
% es.tEY (V/m) @ t=0.48
0
% es.tEZ (V/m) @ t=0.48
1.069131922544365
% es.Ex (V/m) @ t=0.48
1.0522463191429061
% es.Ey (V/m) @ t=0.48
0.29885079895535327
% es.Ez (V/m) @ t=0.48
1.069131922544381
% es.tEx (V/m) @ t=0.48
1.0522463191428812
% es.tEy (V/m) @ t=0.48
0
% es.tEz (V/m) @ t=0.48
1.069131922544365
% V (V) @ t=0.48
0.01453181219440768
% es.normE (V/m) @ t=0.5
1.5634751802664177
% es.EX (V/m) @ t=0.5
1.0616188909729871
% es.EY (V/m) @ t=0.5
0.30151265006157857
% es.EZ (V/m) @ t=0.5
1.0786549169283983
% es.tEX (V/m) @ t=0.5
1.06161889097298
% es.tEY (V/m) @ t=0.5
0
% es.tEZ (V/m) @ t=0.5
1.0786549169283788
% es.Ex (V/m) @ t=0.5
1.0616188909729871
% es.Ey (V/m) @ t=0.5
0.30151265006157857
% es.Ez (V/m) @ t=0.5
1.0786549169283983
% es.tEx (V/m) @ t=0.5
1.06161889097298
% es.tEy (V/m) @ t=0.5
0
% es.tEz (V/m) @ t=0.5
1.0786549169283788
% V (V) @ t=0.5
0.014661257933407057
% es.normE (V/m) @ t=0.52
1.577871759583684
% es.EX (V/m) @ t=0.52
1.0713943571467759
% es.EY (V/m) @ t=0.52
0.3042889197808982
% es.EZ (V/m) @ t=0.52
1.0885872731199662
% es.tEX (V/m) @ t=0.52
1.0713943571467723
% es.tEY (V/m) @ t=0.52
0
% es.tEZ (V/m) @ t=0.52
1.0885872731199555
% es.Ex (V/m) @ t=0.52
1.0713943571467759
% es.Ey (V/m) @ t=0.52
0.3042889197808982
% es.Ez (V/m) @ t=0.52
1.0885872731199662
% es.tEx (V/m) @ t=0.52
1.0713943571467723
% es.tEy (V/m) @ t=0.52
0
% es.tEz (V/m) @ t=0.52
1.0885872731199555
% V (V) @ t=0.52
0.014796268644953696
% es.normE (V/m) @ t=0.54
1.5931672007341393
% es.EX (V/m) @ t=0.54
1.0817801633588644
% es.EY (V/m) @ t=0.54
0.30723852094983783
% es.EZ (V/m) @ t=0.54
1.0991397668369594
% es.tEX (V/m) @ t=0.54
1.0817801633588715
% es.tEY (V/m) @ t=0.54
0
% es.tEZ (V/m) @ t=0.54
1.0991397668369558
% es.Ex (V/m) @ t=0.54
1.0817801633588644
% es.Ey (V/m) @ t=0.54
0.30723852094983783
% es.Ez (V/m) @ t=0.54
1.0991397668369594
% es.tEx (V/m) @ t=0.54
1.0817801633588715
% es.tEy (V/m) @ t=0.54
0
% es.tEz (V/m) @ t=0.54
1.0991397668369558
% V (V) @ t=0.54
0.014939709669832124
% es.normE (V/m) @ t=0.56
1.6084626418846302
% es.EX (V/m) @ t=0.56
1.092165969570999
% es.EY (V/m) @ t=0.56
0.31018812211879876
% es.EZ (V/m) @ t=0.56
1.1096922605539241
% es.tEX (V/m) @ t=0.56
1.0921659695709707
% es.tEY (V/m) @ t=0.56
0
% es.tEZ (V/m) @ t=0.56
1.1096922605538992
% es.Ex (V/m) @ t=0.56
1.092165969570999
% es.Ey (V/m) @ t=0.56
0.31018812211879876
% es.Ez (V/m) @ t=0.56
1.1096922605539241
% es.tEx (V/m) @ t=0.56
1.0921659695709707
% es.tEy (V/m) @ t=0.56
0
% es.tEz (V/m) @ t=0.56
1.1096922605538992
% V (V) @ t=0.56
0.015083150694710556
% es.normE (V/m) @ t=0.58
1.6237580830351064
% es.EX (V/m) @ t=0.58
1.1025517757831125
% es.EY (V/m) @ t=0.58
0.31313772328779166
% es.EZ (V/m) @ t=0.58
1.1202447542708693
% es.tEX (V/m) @ t=0.58
1.1025517757830983
% es.tEY (V/m) @ t=0.58
0
% es.tEZ (V/m) @ t=0.58
1.1202447542708498
% es.Ex (V/m) @ t=0.58
1.1025517757831125
% es.Ey (V/m) @ t=0.58
0.31313772328779166
% es.Ez (V/m) @ t=0.58
1.1202447542708693
% es.tEx (V/m) @ t=0.58
1.1025517757830983
% es.tEy (V/m) @ t=0.58
0
% es.tEz (V/m) @ t=0.58
1.1202447542708498
% V (V) @ t=0.58
0.015226591719588983
% es.normE (V/m) @ t=0.6
1.6390535241855861
% es.EX (V/m) @ t=0.6
1.1129375819951974
% es.EY (V/m) @ t=0.6
0.3160873244567348
% es.EZ (V/m) @ t=0.6
1.1307972479878323
% es.tEX (V/m) @ t=0.6
1.1129375819951974
% es.tEY (V/m) @ t=0.6
0
% es.tEZ (V/m) @ t=0.6
1.1307972479878146
% es.Ex (V/m) @ t=0.6
1.1129375819951974
% es.Ey (V/m) @ t=0.6
0.3160873244567348
% es.Ez (V/m) @ t=0.6
1.1307972479878323
% es.tEx (V/m) @ t=0.6
1.1129375819951974
% es.tEy (V/m) @ t=0.6
0
% es.tEz (V/m) @ t=0.6
1.1307972479878146
% V (V) @ t=0.6
0.015370032744467414
% es.normE (V/m) @ t=0.62
1.654348965336113
% es.EX (V/m) @ t=0.62
1.1233233882072966
% es.EY (V/m) @ t=0.62
0.31903692562572417
% es.EZ (V/m) @ t=0.62
1.1413497417048184
% es.tEX (V/m) @ t=0.62
1.1233233882072966
% es.tEY (V/m) @ t=0.62
0
% es.tEZ (V/m) @ t=0.62
1.1413497417048006
% es.Ex (V/m) @ t=0.62
1.1233233882072966
% es.Ey (V/m) @ t=0.62
0.31903692562572417
% es.Ez (V/m) @ t=0.62
1.1413497417048184
% es.tEx (V/m) @ t=0.62
1.1233233882072966
% es.tEy (V/m) @ t=0.62
0
% es.tEz (V/m) @ t=0.62
1.1413497417048006
% V (V) @ t=0.62
0.01551347376934584
% es.normE (V/m) @ t=0.64
1.6696444064866016
% es.EX (V/m) @ t=0.64
1.1337091944193887
% es.EY (V/m) @ t=0.64
0.32198652679464956
% es.EZ (V/m) @ t=0.64
1.1519022354217796
% es.tEX (V/m) @ t=0.64
1.1337091944193673
% es.tEY (V/m) @ t=0.64
0
% es.tEZ (V/m) @ t=0.64
1.1519022354217654
% es.Ex (V/m) @ t=0.64
1.1337091944193887
% es.Ey (V/m) @ t=0.64
0.32198652679464956
% es.Ez (V/m) @ t=0.64
1.1519022354217796
% es.tEx (V/m) @ t=0.64
1.1337091944193673
% es.tEy (V/m) @ t=0.64
0
% es.tEz (V/m) @ t=0.64
1.1519022354217654
% V (V) @ t=0.64
0.01565691479422427
% es.normE (V/m) @ t=0.66
1.6849398476370987
% es.EX (V/m) @ t=0.66
1.144095000631438
% es.EY (V/m) @ t=0.66
0.32493612796368865
% es.EZ (V/m) @ t=0.66
1.1624547291387213
% es.tEX (V/m) @ t=0.66
1.1440950006314097
% es.tEY (V/m) @ t=0.66
0
% es.tEZ (V/m) @ t=0.66
1.1624547291387088
% es.Ex (V/m) @ t=0.66
1.144095000631438
% es.Ey (V/m) @ t=0.66
0.32493612796368865
% es.Ez (V/m) @ t=0.66
1.1624547291387213
% es.tEx (V/m) @ t=0.66
1.1440950006314097
% es.tEy (V/m) @ t=0.66
0
% es.tEz (V/m) @ t=0.66
1.1624547291387088
% V (V) @ t=0.66
0.015800355819102697
% es.normE (V/m) @ t=0.68
1.7002352887876655
% es.EX (V/m) @ t=0.68
1.1544808068435728
% es.EY (V/m) @ t=0.68
0.32788572913263536
% es.EZ (V/m) @ t=0.68
1.1730072228556967
% es.tEX (V/m) @ t=0.68
1.1544808068435657
% es.tEY (V/m) @ t=0.68
0
% es.tEZ (V/m) @ t=0.68
1.1730072228556736
% es.Ex (V/m) @ t=0.68
1.1544808068435728
% es.Ey (V/m) @ t=0.68
0.32788572913263536
% es.Ez (V/m) @ t=0.68
1.1730072228556967
% es.tEx (V/m) @ t=0.68
1.1544808068435657
% es.tEy (V/m) @ t=0.68
0
% es.tEz (V/m) @ t=0.68
1.1730072228556736
% V (V) @ t=0.68
0.015943796843981128
% es.normE (V/m) @ t=0.7
1.7155307299382145
% es.EX (V/m) @ t=0.7
1.164866613055679
% es.EY (V/m) @ t=0.7
0.3308353303016034
% es.EZ (V/m) @ t=0.7
1.183559716572658
% es.tEX (V/m) @ t=0.7
1.1648666130556649
% es.tEY (V/m) @ t=0.7
0
% es.tEZ (V/m) @ t=0.7
1.1835597165726384
% es.Ex (V/m) @ t=0.7
1.164866613055679
% es.Ey (V/m) @ t=0.7
0.3308353303016034
% es.Ez (V/m) @ t=0.7
1.183559716572658
% es.tEx (V/m) @ t=0.7
1.1648666130556649
% es.tEy (V/m) @ t=0.7
0
% es.tEz (V/m) @ t=0.7
1.1835597165726384
% V (V) @ t=0.7
0.016087237868859558
% es.normE (V/m) @ t=0.72
1.7308261710887862
% es.EX (V/m) @ t=0.72
1.1752524192677782
% es.EY (V/m) @ t=0.72
0.3337849314705785
% es.EZ (V/m) @ t=0.72
1.1941122102896404
% es.tEX (V/m) @ t=0.72
1.175252419267764
% es.tEY (V/m) @ t=0.72
0
% es.tEZ (V/m) @ t=0.72
1.1941122102896173
% es.Ex (V/m) @ t=0.72
1.1752524192677782
% es.Ey (V/m) @ t=0.72
0.3337849314705785
% es.Ez (V/m) @ t=0.72
1.1941122102896404
% es.tEx (V/m) @ t=0.72
1.175252419267764
% es.tEy (V/m) @ t=0.72
0
% es.tEz (V/m) @ t=0.72
1.1941122102896173
% V (V) @ t=0.72
0.016230678893737985
% es.normE (V/m) @ t=0.74
1.746121612239338
% es.EX (V/m) @ t=0.74
1.1856382254798916
% es.EY (V/m) @ t=0.74
0.3367345326395075
% es.EZ (V/m) @ t=0.74
1.2046647040065839
% es.tEX (V/m) @ t=0.74
1.1856382254798916
% es.tEY (V/m) @ t=0.74
0
% es.tEZ (V/m) @ t=0.74
1.2046647040065679
% es.Ex (V/m) @ t=0.74
1.1856382254798916
% es.Ey (V/m) @ t=0.74
0.3367345326395075
% es.Ez (V/m) @ t=0.74
1.2046647040065839
% es.tEx (V/m) @ t=0.74
1.1856382254798916
% es.tEy (V/m) @ t=0.74
0
% es.tEz (V/m) @ t=0.74
1.2046647040065679
% V (V) @ t=0.74
0.01637411991861641
% es.normE (V/m) @ t=0.76
1.7614170533899105
% es.EX (V/m) @ t=0.76
1.1960240316919837
% es.EY (V/m) @ t=0.76
0.33968413380850393
% es.EZ (V/m) @ t=0.76
1.2152171977235344
% es.tEX (V/m) @ t=0.76
1.1960240316919908
% es.tEY (V/m) @ t=0.76
0
% es.tEZ (V/m) @ t=0.76
1.2152171977235326
% es.Ex (V/m) @ t=0.76
1.1960240316919837
% es.Ey (V/m) @ t=0.76
0.33968413380850393
% es.Ez (V/m) @ t=0.76
1.2152171977235344
% es.tEx (V/m) @ t=0.76
1.1960240316919908
% es.tEy (V/m) @ t=0.76
0
% es.tEz (V/m) @ t=0.76
1.2152171977235326
% V (V) @ t=0.76
0.016517560943494845
% es.normE (V/m) @ t=0.78
1.7777197345052715
% es.EX (V/m) @ t=0.78
1.2070937623941589
% es.EY (V/m) @ t=0.78
0.34282800472604436
% es.EZ (V/m) @ t=0.78
1.2264645840661288
% es.tEX (V/m) @ t=0.78
1.2070937623941518
% es.tEY (V/m) @ t=0.78
0
% es.tEZ (V/m) @ t=0.78
1.2264645840661217
% es.Ex (V/m) @ t=0.78
1.2070937623941589
% es.Ey (V/m) @ t=0.78
0.34282800472604436
% es.Ez (V/m) @ t=0.78
1.2264645840661288
% es.tEx (V/m) @ t=0.78
1.2070937623941518
% es.tEy (V/m) @ t=0.78
0
% es.tEz (V/m) @ t=0.78
1.2264645840661217
% V (V) @ t=0.78
0.01667044426638154
% es.normE (V/m) @ t=0.8
1.794695106097713
% es.EX (V/m) @ t=0.8
1.2186202556431596
% es.EY (V/m) @ t=0.8
0.34610161971087194
% es.EZ (V/m) @ t=0.8
1.2381760580821375
% es.tEX (V/m) @ t=0.8
1.2186202556431454
% es.tEY (V/m) @ t=0.8
0
% es.tEZ (V/m) @ t=0.8
1.238176058082125
% es.Ex (V/m) @ t=0.8
1.2186202556431596
% es.Ey (V/m) @ t=0.8
0.34610161971087194
% es.Ez (V/m) @ t=0.8
1.2381760580821375
% es.tEx (V/m) @ t=0.8
1.2186202556431454
% es.tEy (V/m) @ t=0.8
0
% es.tEz (V/m) @ t=0.8
1.238176058082125
% V (V) @ t=0.8
0.016829633677364703
% es.normE (V/m) @ t=0.82
1.8116704776901362
% es.EX (V/m) @ t=0.82
1.230146748892082
% es.EY (V/m) @ t=0.82
0.34937523469581677
% es.EZ (V/m) @ t=0.82
1.2498875320981497
% es.tEX (V/m) @ t=0.82
1.230146748892082
% es.tEY (V/m) @ t=0.82
0
% es.tEZ (V/m) @ t=0.82
1.2498875320981355
% es.Ex (V/m) @ t=0.82
1.230146748892082
% es.Ey (V/m) @ t=0.82
0.34937523469581677
% es.Ez (V/m) @ t=0.82
1.2498875320981497
% es.tEx (V/m) @ t=0.82
1.230146748892082
% es.tEy (V/m) @ t=0.82
0
% es.tEz (V/m) @ t=0.82
1.2498875320981355
% V (V) @ t=0.82
0.016988823088347864
% es.normE (V/m) @ t=0.84
1.8286458492826196
% es.EX (V/m) @ t=0.84
1.2416732421410899
% es.EY (V/m) @ t=0.84
0.35264884968075094
% es.EZ (V/m) @ t=0.84
1.2615990061141655
% es.tEX (V/m) @ t=0.84
1.2416732421410757
% es.tEY (V/m) @ t=0.84
0
% es.tEZ (V/m) @ t=0.84
1.261599006114153
% es.Ex (V/m) @ t=0.84
1.2416732421410899
% es.Ey (V/m) @ t=0.84
0.35264884968075094
% es.Ez (V/m) @ t=0.84
1.2615990061141655
% es.tEx (V/m) @ t=0.84
1.2416732421410757
% es.tEy (V/m) @ t=0.84
0
% es.tEz (V/m) @ t=0.84
1.261599006114153
% V (V) @ t=0.84
0.017148012499331025
% es.normE (V/m) @ t=0.86
1.8456212208750613
% es.EX (V/m) @ t=0.86
1.2531997353900408
% es.EY (V/m) @ t=0.86
0.3559224646656354
% es.EZ (V/m) @ t=0.86
1.2733104801302009
% es.tEX (V/m) @ t=0.86
1.2531997353900408
% es.tEY (V/m) @ t=0.86
0
% es.tEZ (V/m) @ t=0.86
1.2733104801301778
% es.Ex (V/m) @ t=0.86
1.2531997353900408
% es.Ey (V/m) @ t=0.86
0.3559224646656354
% es.Ez (V/m) @ t=0.86
1.2733104801302009
% es.tEx (V/m) @ t=0.86
1.2531997353900408
% es.tEy (V/m) @ t=0.86
0
% es.tEz (V/m) @ t=0.86
1.2733104801301778
% V (V) @ t=0.86
0.017307201910314183
% es.normE (V/m) @ t=0.88
1.8625965924674912
% es.EX (V/m) @ t=0.88
1.2647262286389491
% es.EY (V/m) @ t=0.88
0.35919607965059086
% es.EZ (V/m) @ t=0.88
1.2850219541462273
% es.tEX (V/m) @ t=0.88
1.2647262286389491
% es.tEY (V/m) @ t=0.88
0
% es.tEZ (V/m) @ t=0.88
1.2850219541462167
% es.Ex (V/m) @ t=0.88
1.2647262286389491
% es.Ey (V/m) @ t=0.88
0.35919607965059086
% es.Ez (V/m) @ t=0.88
1.2850219541462273
% es.tEx (V/m) @ t=0.88
1.2647262286389491
% es.tEy (V/m) @ t=0.88
0
% es.tEz (V/m) @ t=0.88
1.2850219541462167
% V (V) @ t=0.88
0.01746639132129734
% es.normE (V/m) @ t=0.9
1.8795719640599855
% es.EX (V/m) @ t=0.9
1.276252721888028
% es.EY (V/m) @ t=0.9
0.36246969463546463
% es.EZ (V/m) @ t=0.9
1.2967334281622112
% es.tEX (V/m) @ t=0.9
1.2762527218879995
% es.tEY (V/m) @ t=0.9
0
% es.tEZ (V/m) @ t=0.9
1.296733428162213
% es.Ex (V/m) @ t=0.9
1.276252721888028
% es.Ey (V/m) @ t=0.9
0.36246969463546463
% es.Ez (V/m) @ t=0.9
1.2967334281622112
% es.tEx (V/m) @ t=0.9
1.2762527218879995
% es.tEy (V/m) @ t=0.9
0
% es.tEz (V/m) @ t=0.9
1.296733428162213
% V (V) @ t=0.9
0.017625580732280502
% es.normE (V/m) @ t=0.92
1.8965473356524556
% es.EX (V/m) @ t=0.92
1.2877792151369434
% es.EY (V/m) @ t=0.92
0.3657433096203988
% es.EZ (V/m) @ t=0.92
1.3084449021782874
% es.tEX (V/m) @ t=0.92
1.2877792151369363
% es.tEY (V/m) @ t=0.92
0
% es.tEZ (V/m) @ t=0.92
1.308444902178266
% es.Ex (V/m) @ t=0.92
1.2877792151369434
% es.Ey (V/m) @ t=0.92
0.3657433096203988
% es.Ez (V/m) @ t=0.92
1.3084449021782874
% es.tEx (V/m) @ t=0.92
1.2877792151369363
% es.tEy (V/m) @ t=0.92
0
% es.tEz (V/m) @ t=0.92
1.308444902178266
% V (V) @ t=0.92
0.017784770143263663
% es.normE (V/m) @ t=0.94
1.9135227072449128
% es.EX (V/m) @ t=0.94
1.2993057083859583
% es.EY (V/m) @ t=0.94
0.36901692460531876
% es.EZ (V/m) @ t=0.94
1.3201563761942587
% es.tEX (V/m) @ t=0.94
1.2993057083859583
% es.tEY (V/m) @ t=0.94
0
% es.tEZ (V/m) @ t=0.94
1.320156376194248
% es.Ex (V/m) @ t=0.94
1.2993057083859583
% es.Ey (V/m) @ t=0.94
0.36901692460531876
% es.Ez (V/m) @ t=0.94
1.3201563761942587
% es.tEx (V/m) @ t=0.94
1.2993057083859583
% es.tEy (V/m) @ t=0.94
0
% es.tEz (V/m) @ t=0.94
1.320156376194248
% V (V) @ t=0.94
0.017943959554246824
% es.normE (V/m) @ t=0.96
1.9304980788373238
% es.EX (V/m) @ t=0.96
1.3108322016348666
% es.EY (V/m) @ t=0.96
0.37229053959023517
% es.EZ (V/m) @ t=0.96
1.3318678502102639
% es.tEX (V/m) @ t=0.96
1.3108322016348382
% es.tEY (V/m) @ t=0.96
0
% es.tEZ (V/m) @ t=0.96
1.3318678502102443
% es.Ex (V/m) @ t=0.96
1.3108322016348666
% es.Ey (V/m) @ t=0.96
0.37229053959023517
% es.Ez (V/m) @ t=0.96
1.3318678502102639
% es.tEx (V/m) @ t=0.96
1.3108322016348382
% es.tEy (V/m) @ t=0.96
0
% es.tEz (V/m) @ t=0.96
1.3318678502102443
% V (V) @ t=0.96
0.01810314896522998
% es.normE (V/m) @ t=0.98
1.9474734504297913
% es.EX (V/m) @ t=0.98
1.3223586948838388
% es.EY (V/m) @ t=0.98
0.3755641545751267
% es.EZ (V/m) @ t=0.98
1.3435793242262903
% es.tEX (V/m) @ t=0.98
1.3223586948838317
% es.tEY (V/m) @ t=0.98
0
% es.tEZ (V/m) @ t=0.98
1.3435793242262548
% es.Ex (V/m) @ t=0.98
1.3223586948838388
% es.Ey (V/m) @ t=0.98
0.3755641545751267
% es.Ez (V/m) @ t=0.98
1.3435793242262903
% es.tEx (V/m) @ t=0.98
1.3223586948838317
% es.tEy (V/m) @ t=0.98
0
% es.tEz (V/m) @ t=0.98
1.3435793242262548
% V (V) @ t=0.98
0.018262338376213143
% es.normE (V/m) @ t=1
1.964448822022304
% es.EX (V/m) @ t=1
1.3338851881328821
% es.EY (V/m) @ t=1
0.3788377695600218
% es.EZ (V/m) @ t=1
1.3552907982423203
% es.tEX (V/m) @ t=1
1.3338851881328253
% es.tEY (V/m) @ t=1
0
% es.tEZ (V/m) @ t=1
1.3552907982422937
% es.Ex (V/m) @ t=1
1.3338851881328821
% es.Ey (V/m) @ t=1
0.3788377695600218
% es.Ez (V/m) @ t=1
1.3552907982423203
% es.tEx (V/m) @ t=1
1.3338851881328253
% es.tEy (V/m) @ t=1
0
% es.tEz (V/m) @ t=1
1.3552907982422937
% V (V) @ t=1
0.018421527787196305
% es.normE (V/m) @ t=1.02
1.9814241936147017
% es.EX (V/m) @ t=1.02
1.3454116813817762
% es.EY (V/m) @ t=1.02
0.3821113845449027
% es.EZ (V/m) @ t=1.02
1.3670022722583308
% es.tEX (V/m) @ t=1.02
1.3454116813817336
% es.tEY (V/m) @ t=1.02
0
% es.tEZ (V/m) @ t=1.02
1.3670022722583184
% es.Ex (V/m) @ t=1.02
1.3454116813817762
% es.Ey (V/m) @ t=1.02
0.3821113845449027
% es.Ez (V/m) @ t=1.02
1.3670022722583308
% es.tEx (V/m) @ t=1.02
1.3454116813817336
% es.tEy (V/m) @ t=1.02
0
% es.tEz (V/m) @ t=1.02
1.3670022722583184
% V (V) @ t=1.02
0.018580717198179462
% es.normE (V/m) @ t=1.04
1.999058335271711
% es.EX (V/m) @ t=1.04
1.3573854796550933
% es.EY (V/m) @ t=1.04
0.38551209526877983
% es.EZ (V/m) @ t=1.04
1.3791682149109619
% es.tEX (V/m) @ t=1.04
1.3573854796551075
% es.tEY (V/m) @ t=1.04
0
% es.tEZ (V/m) @ t=1.04
1.3791682149109334
% es.Ex (V/m) @ t=1.04
1.3573854796550933
% es.Ey (V/m) @ t=1.04
0.38551209526877983
% es.Ez (V/m) @ t=1.04
1.3791682149109619