% Model:              1 neuron.mph
% Version:            COMSOL 6.1.0.252
% Date:               Mar 22 2023, 18:16
% Dimension:          0
% Nodes:              14017
% Expressions:        14017
% Description:        Electric field norm, Electric field, X component, Electric field, Y component, Electric field, Z component, Tangential electric field, X component, Tangential electric field, Y component, Tangential electric field, Z component, Electric field, x component, Electric field, y component, Electric field, z component, Tangential electric field, x component, Tangential electric field, y component, Tangential electric field, z component, Electric potential
% Length unit:        mm
% x
1.33
% y
12.2
% z
2
% es.normE (V/m) @ t=0
2.6507343829037278
% es.EX (V/m) @ t=0
1.0564184742400395
% es.EY (V/m) @ t=0
0.2792979270858513
% es.EZ (V/m) @ t=0
-2.4128853886323736
% es.tEX (V/m) @ t=0
1.0564184742400329
% es.tEY (V/m) @ t=0
0
% es.tEZ (V/m) @ t=0
-2.4128853886323824
% es.Ex (V/m) @ t=0
1.0564184742400395
% es.Ey (V/m) @ t=0
0.2792979270858513
% es.Ez (V/m) @ t=0
-2.4128853886323736
% es.tEx (V/m) @ t=0
1.0564184742400329
% es.tEy (V/m) @ t=0
0
% es.tEz (V/m) @ t=0
-2.4128853886323824
% V (V) @ t=0
0.01325390568001303
% es.normE (V/m) @ t=0.02
2.289469190309802
% es.EX (V/m) @ t=0.02
0.9124405541143092
% es.EY (V/m) @ t=0.02
0.24123277068573223
% es.EZ (V/m) @ t=0.02
-2.0840363306386678
% es.tEX (V/m) @ t=0.02
0.9124405541143061
% es.tEY (V/m) @ t=0.02
0
% es.tEZ (V/m) @ t=0.02
-2.0840363306386713
% es.Ex (V/m) @ t=0.02
0.9124405541143092
% es.Ey (V/m) @ t=0.02
0.24123277068573223
% es.Ez (V/m) @ t=0.02
-2.0840363306386678
% es.tEx (V/m) @ t=0.02
0.9124405541143061
% es.tEy (V/m) @ t=0.02
0
% es.tEz (V/m) @ t=0.02
-2.0840363306386713
% V (V) @ t=0.02
0.011447547849273716
% es.normE (V/m) @ t=0.04
2.3105338643222595
% es.EX (V/m) @ t=0.04
0.9208356278927079
% es.EY (V/m) @ t=0.04
0.24345227623181565
% es.EZ (V/m) @ t=0.04
-2.103210882608387
% es.tEX (V/m) @ t=0.04
0.9208356278927083
% es.tEY (V/m) @ t=0.04
0
% es.tEZ (V/m) @ t=0.04
-2.1032108826083906
% es.Ex (V/m) @ t=0.04
0.9208356278927079
% es.Ey (V/m) @ t=0.04
0.24345227623181565
% es.Ez (V/m) @ t=0.04
-2.103210882608387
% es.tEx (V/m) @ t=0.04
0.9208356278927083
% es.tEy (V/m) @ t=0.04
0
% es.tEz (V/m) @ t=0.04
-2.1032108826083906
% V (V) @ t=0.04
0.011552873079885555
% es.normE (V/m) @ t=0.06
2.331749477367338
% es.EX (V/m) @ t=0.06
0.9292908560651518
% es.EY (V/m) @ t=0.06
0.24568768462402435
% es.EZ (V/m) @ t=0.06
-2.1225228302597943
% es.tEX (V/m) @ t=0.06
0.9292908560651485
% es.tEY (V/m) @ t=0.06
0
% es.tEZ (V/m) @ t=0.06
-2.1225228302597934
% es.Ex (V/m) @ t=0.06
0.9292908560651518
% es.Ey (V/m) @ t=0.06
0.24568768462402435
% es.Ez (V/m) @ t=0.06
-2.1225228302597943
% es.tEx (V/m) @ t=0.06
0.9292908560651485
% es.tEy (V/m) @ t=0.06
0
% es.tEz (V/m) @ t=0.06
-2.1225228302597934
% V (V) @ t=0.06
0.011658953060472979
% es.normE (V/m) @ t=0.08
2.3533774615454353
% es.EX (V/m) @ t=0.08
0.9379104303428631
% es.EY (V/m) @ t=0.08
0.24796654399178575
% es.EZ (V/m) @ t=0.08
-2.1422101468881305
% es.tEX (V/m) @ t=0.08
0.9379104303428636
% es.tEY (V/m) @ t=0.08
0
% es.tEZ (V/m) @ t=0.08
-2.1422101468881305
% es.Ex (V/m) @ t=0.08
0.9379104303428631
% es.Ey (V/m) @ t=0.08
0.24796654399178575
% es.Ez (V/m) @ t=0.08
-2.1422101468881305
% es.tEx (V/m) @ t=0.08
0.9379104303428636
% es.tEy (V/m) @ t=0.08
0
% es.tEz (V/m) @ t=0.08
-2.1422101468881305
% V (V) @ t=0.08
0.011767094892744757
% es.normE (V/m) @ t=0.1
2.3751074391033353
% es.EX (V/m) @ t=0.1
0.9465706529913993
% es.EY (V/m) @ t=0.1
0.2502561502608165
% es.EZ (V/m) @ t=0.1
-2.16199030500697
% es.tEX (V/m) @ t=0.1
0.9465706529913995
% es.tEY (V/m) @ t=0.1
0
% es.tEZ (V/m) @ t=0.1
-2.1619903050069773
% es.Ex (V/m) @ t=0.1
0.9465706529913993
% es.Ey (V/m) @ t=0.1
0.2502561502608165
% es.Ez (V/m) @ t=0.1
-2.16199030500697
% es.tEx (V/m) @ t=0.1
0.9465706529913995
% es.tEy (V/m) @ t=0.1
0
% es.tEz (V/m) @ t=0.1
-2.1619903050069773
% V (V) @ t=0.1
0.011875746690930954
% es.normE (V/m) @ t=0.12
2.396837416661219
% es.EX (V/m) @ t=0.12
0.955230875639907
% es.EY (V/m) @ t=0.12
0.25254575652984723
% es.EZ (V/m) @ t=0.12
-2.1817704631258064
% es.tEX (V/m) @ t=0.12
0.9552308756399075
% es.tEY (V/m) @ t=0.12
0
% es.tEZ (V/m) @ t=0.12
-2.18177046312581
% es.Ex (V/m) @ t=0.12
0.955230875639907
% es.Ey (V/m) @ t=0.12
0.25254575652984723
% es.Ez (V/m) @ t=0.12
-2.1817704631258064
% es.tEx (V/m) @ t=0.12
0.9552308756399075
% es.tEy (V/m) @ t=0.12
0
% es.tEz (V/m) @ t=0.12
-2.18177046312581
% V (V) @ t=0.12
0.011984398489117157
% es.normE (V/m) @ t=0.14
2.4192285291612876
% es.EX (V/m) @ t=0.14
0.9641545853841293
% es.EY (V/m) @ t=0.14
0.25490502349835253
% es.EZ (V/m) @ t=0.14
-2.2021524330925217
% es.tEX (V/m) @ t=0.14
0.9641545853841227
% es.tEY (V/m) @ t=0.14
0
% es.tEZ (V/m) @ t=0.14
-2.202152433092529
% es.Ex (V/m) @ t=0.14
0.9641545853841293
% es.Ey (V/m) @ t=0.14
0.25490502349835253
% es.Ez (V/m) @ t=0.14
-2.2021524330925217
% es.tEx (V/m) @ t=0.14
0.9641545853841227
% es.tEy (V/m) @ t=0.14
0
% es.tEz (V/m) @ t=0.14
-2.202152433092529
% V (V) @ t=0.14
0.012096356046145815
% es.normE (V/m) @ t=0.16
2.442042949023773
% es.EX (V/m) @ t=0.16
0.9732469990046586
% es.EY (V/m) @ t=0.16
0.2573088923855451
% es.EZ (V/m) @ t=0.16
-2.222919727400381
% es.tEX (V/m) @ t=0.16
0.973246999004659
% es.tEY (V/m) @ t=0.16
0
% es.tEZ (V/m) @ t=0.16
-2.222919727400388
% es.Ex (V/m) @ t=0.16
0.9732469990046586
% es.Ey (V/m) @ t=0.16
0.2573088923855451
% es.Ez (V/m) @ t=0.16
-2.222919727400381
% es.tEx (V/m) @ t=0.16
0.973246999004659
% es.tEy (V/m) @ t=0.16
0
% es.tEz (V/m) @ t=0.16
-2.222919727400388
% V (V) @ t=0.16
0.012210430193853716
% es.normE (V/m) @ t=0.18
2.4648573688862427
% es.EX (V/m) @ t=0.18
0.9823394126251737
% es.EY (V/m) @ t=0.18
0.25971276127273146
% es.EZ (V/m) @ t=0.18
-2.2436870217082294
% es.tEX (V/m) @ t=0.18
0.9823394126251737
% es.tEY (V/m) @ t=0.18
0
% es.tEZ (V/m) @ t=0.18
-2.2436870217082365
% es.Ex (V/m) @ t=0.18
0.9823394126251737
% es.Ey (V/m) @ t=0.18
0.25971276127273146
% es.Ez (V/m) @ t=0.18
-2.2436870217082294
% es.tEx (V/m) @ t=0.18
0.9823394126251737
% es.tEy (V/m) @ t=0.18
0
% es.tEz (V/m) @ t=0.18
-2.2436870217082365
% V (V) @ t=0.18
0.012324504341561616
% es.normE (V/m) @ t=0.2
2.487671788748709
% es.EX (V/m) @ t=0.2
0.9914318262456816
% es.EY (V/m) @ t=0.2
0.26211663015994535
% es.EZ (V/m) @ t=0.2
-2.2644543160160744
% es.tEX (V/m) @ t=0.2
0.991431826245682
% es.tEY (V/m) @ t=0.2
0
% es.tEZ (V/m) @ t=0.2
-2.264454316016085
% es.Ex (V/m) @ t=0.2
0.9914318262456816
% es.Ey (V/m) @ t=0.2
0.26211663015994535
% es.Ez (V/m) @ t=0.2
-2.2644543160160744
% es.tEx (V/m) @ t=0.2
0.991431826245682
% es.tEy (V/m) @ t=0.2
0
% es.tEz (V/m) @ t=0.2
-2.264454316016085
% V (V) @ t=0.2
0.012438578489269514
% es.normE (V/m) @ t=0.22
2.51048620861119
% es.EX (V/m) @ t=0.22
1.0005242398662109
% es.EY (V/m) @ t=0.22
0.2645204990471477
% es.EZ (V/m) @ t=0.22
-2.2852216103239265
% es.tEX (V/m) @ t=0.22
1.0005242398662038
% es.tEY (V/m) @ t=0.22
0
% es.tEZ (V/m) @ t=0.22
-2.28522161032393
% es.Ex (V/m) @ t=0.22
1.0005242398662109
% es.Ey (V/m) @ t=0.22
0.2645204990471477
% es.Ez (V/m) @ t=0.22
-2.2852216103239265
% es.tEx (V/m) @ t=0.22
1.0005242398662038
% es.tEy (V/m) @ t=0.22
0
% es.tEz (V/m) @ t=0.22
-2.28522161032393
% V (V) @ t=0.22
0.012552652636977414
% es.normE (V/m) @ t=0.24
2.53330062847367
% es.EX (V/m) @ t=0.24
1.009616653486726
% es.EY (V/m) @ t=0.24
0.26692436793434204
% es.EZ (V/m) @ t=0.24
-2.3059889046317856
% es.tEX (V/m) @ t=0.24
1.0096166534867264
% es.tEY (V/m) @ t=0.24
0
% es.tEZ (V/m) @ t=0.24
-2.305988904631789
% es.Ex (V/m) @ t=0.24
1.009616653486726
% es.Ey (V/m) @ t=0.24
0.26692436793434204
% es.Ez (V/m) @ t=0.24
-2.3059889046317856
% es.tEx (V/m) @ t=0.24
1.0096166534867264
% es.tEy (V/m) @ t=0.24
0
% es.tEz (V/m) @ t=0.24
-2.305988904631789
% V (V) @ t=0.24
0.012666726784685315
% es.normE (V/m) @ t=0.26
2.5566610422483826
% es.EX (V/m) @ t=0.26
1.0189266471886933
% es.EY (V/m) @ t=0.26
0.2693857301414573
% es.EZ (V/m) @ t=0.26
-2.3272532126023826
% es.tEX (V/m) @ t=0.26
1.0189266471886933
% es.tEY (V/m) @ t=0.26
0
% es.tEZ (V/m) @ t=0.26
-2.3272532126023755
% es.Ex (V/m) @ t=0.26
1.0189266471886933
% es.Ey (V/m) @ t=0.26
0.2693857301414573
% es.Ez (V/m) @ t=0.26
-2.3272532126023826
% es.tEx (V/m) @ t=0.26
1.0189266471886933
% es.tEy (V/m) @ t=0.26
0
% es.tEz (V/m) @ t=0.26
-2.3272532126023755
% V (V) @ t=0.26
0.012783532447009752
% es.normE (V/m) @ t=0.28
2.581896258076519
% es.EX (V/m) @ t=0.28
1.0289837546850138
% es.EY (V/m) @ t=0.28
0.27204450955743376
% es.EZ (V/m) @ t=0.28
-2.350224137102236
% es.tEX (V/m) @ t=0.28
1.0289837546850142
% es.tEY (V/m) @ t=0.28
0
% es.tEZ (V/m) @ t=0.28
-2.3502241371022485
% es.Ex (V/m) @ t=0.28
1.0289837546850138
% es.Ey (V/m) @ t=0.28
0.27204450955743376
% es.Ez (V/m) @ t=0.28
-2.350224137102236
% es.tEx (V/m) @ t=0.28
1.0289837546850142
% es.tEy (V/m) @ t=0.28
0
% es.tEz (V/m) @ t=0.28
-2.3502241371022485
% V (V) @ t=0.28
0.012909717424922335
% es.normE (V/m) @ t=0.3
2.607131473904678
% es.EX (V/m) @ t=0.3
1.0390408621813347
% es.EY (V/m) @ t=0.3
0.274703288973404
% es.EZ (V/m) @ t=0.3
-2.373195061602095
% es.tEX (V/m) @ t=0.3
1.0390408621813352
% es.tEY (V/m) @ t=0.3
0
% es.tEZ (V/m) @ t=0.3
-2.3731950616020896
% es.Ex (V/m) @ t=0.3
1.0390408621813347
% es.Ey (V/m) @ t=0.3
0.274703288973404
% es.Ez (V/m) @ t=0.3
-2.373195061602095
% es.tEx (V/m) @ t=0.3
1.0390408621813352
% es.tEy (V/m) @ t=0.3
0
% es.tEz (V/m) @ t=0.3
-2.3731950616020896
% V (V) @ t=0.3
0.013035902402834915
% es.normE (V/m) @ t=0.32
2.6323666897328555
% es.EX (V/m) @ t=0.32
1.0490979696776699
% es.EY (V/m) @ t=0.32
0.27736206838935384
% es.EZ (V/m) @ t=0.32
-2.39616598610195
% es.tEX (V/m) @ t=0.32
1.0490979696776703
% es.tEY (V/m) @ t=0.32
0
% es.tEZ (V/m) @ t=0.32
-2.3961659861019484
% es.Ex (V/m) @ t=0.32
1.0490979696776699
% es.Ey (V/m) @ t=0.32
0.27736206838935384
% es.Ez (V/m) @ t=0.32
-2.39616598610195
% es.tEx (V/m) @ t=0.32
1.0490979696776703
% es.tEy (V/m) @ t=0.32
0
% es.tEz (V/m) @ t=0.32
-2.3961659861019484
% V (V) @ t=0.32
0.013162087380747497
% es.normE (V/m) @ t=0.34
2.657601905561071
% es.EX (V/m) @ t=0.34
1.059155077174005
% es.EY (V/m) @ t=0.34
0.28002084780534364
% es.EZ (V/m) @ t=0.34
-2.4191369106018232
% es.tEX (V/m) @ t=0.34
1.0591550771740055
% es.tEY (V/m) @ t=0.34
0
% es.tEZ (V/m) @ t=0.34
-2.419136910601832
% es.Ex (V/m) @ t=0.34
1.059155077174005
% es.Ey (V/m) @ t=0.34
0.28002084780534364
% es.Ez (V/m) @ t=0.34
-2.4191369106018232
% es.tEx (V/m) @ t=0.34
1.0591550771740055
% es.tEy (V/m) @ t=0.34
0
% es.tEz (V/m) @ t=0.34
-2.419136910601832
% V (V) @ t=0.34
0.013288272358660081
% es.normE (V/m) @ t=0.36
2.6828371213892828
% es.EX (V/m) @ t=0.36
1.069212184670341
% es.EY (V/m) @ t=0.36
0.2826796272213219
% es.EZ (V/m) @ t=0.36
-2.442107835101675
% es.tEX (V/m) @ t=0.36
1.0692121846703415
% es.tEY (V/m) @ t=0.36
0
% es.tEZ (V/m) @ t=0.36
-2.442107835101684
% es.Ex (V/m) @ t=0.36
1.069212184670341
% es.Ey (V/m) @ t=0.36
0.2826796272213219
% es.Ez (V/m) @ t=0.36
-2.442107835101675
% es.tEx (V/m) @ t=0.36
1.0692121846703415
% es.tEy (V/m) @ t=0.36
0
% es.tEz (V/m) @ t=0.36
-2.442107835101684
% V (V) @ t=0.36
0.013414457336572662
% es.normE (V/m) @ t=0.38
2.708072337217519
% es.EX (V/m) @ t=0.38
1.0792692921666753
% es.EY (V/m) @ t=0.38
0.2853384066372868
% es.EZ (V/m) @ t=0.38
-2.4650787596015373
% es.tEX (V/m) @ t=0.38
1.0792692921666758
% es.tEY (V/m) @ t=0.38
0
% es.tEZ (V/m) @ t=0.38
-2.465078759601539
% es.Ex (V/m) @ t=0.38
1.0792692921666753
% es.Ey (V/m) @ t=0.38
0.2853384066372868
% es.Ez (V/m) @ t=0.38
-2.4650787596015373
% es.tEx (V/m) @ t=0.38
1.0792692921666758
% es.tEy (V/m) @ t=0.38
0
% es.tEz (V/m) @ t=0.38
-2.465078759601539
% V (V) @ t=0.38
0.013540642314485245
% es.normE (V/m) @ t=0.4
2.7333075530457602
% es.EX (V/m) @ t=0.4
1.089326399662982
% es.EY (V/m) @ t=0.4
0.2879971860532837
% es.EZ (V/m) @ t=0.4
-2.4880496841013944
% es.tEX (V/m) @ t=0.4
1.0893263996629825
% es.tEY (V/m) @ t=0.4
0
% es.tEZ (V/m) @ t=0.4
-2.4880496841014015
% es.Ex (V/m) @ t=0.4
1.089326399662982
% es.Ey (V/m) @ t=0.4
0.2879971860532837
% es.Ez (V/m) @ t=0.4
-2.4880496841013944
% es.tEx (V/m) @ t=0.4
1.0893263996629825
% es.tEy (V/m) @ t=0.4
0
% es.tEz (V/m) @ t=0.4
-2.4880496841014015
% V (V) @ t=0.4
0.013666827292397828
% es.normE (V/m) @ t=0.42
2.7585427688740327
% es.EX (V/m) @ t=0.42
1.0993835071593319
% es.EY (V/m) @ t=0.42
0.29065596546924777
% es.EZ (V/m) @ t=0.42
-2.511020608601255
% es.tEX (V/m) @ t=0.42
1.0993835071593319
% es.tEY (V/m) @ t=0.42
0
% es.tEZ (V/m) @ t=0.42
-2.5110206086012603
% es.Ex (V/m) @ t=0.42
1.0993835071593319
% es.Ey (V/m) @ t=0.42
0.29065596546924777
% es.Ez (V/m) @ t=0.42
-2.511020608601255
% es.tEx (V/m) @ t=0.42
1.0993835071593319
% es.tEy (V/m) @ t=0.42
0
% es.tEz (V/m) @ t=0.42
-2.5110206086012603
% V (V) @ t=0.42
0.01379301227031041
% es.normE (V/m) @ t=0.44
2.783777984702305
% es.EX (V/m) @ t=0.44
1.1094406146556381
% es.EY (V/m) @ t=0.44
0.2933147448852367
% es.EZ (V/m) @ t=0.44
-2.533991533101114
% es.tEX (V/m) @ t=0.44
1.1094406146556386
% es.tEY (V/m) @ t=0.44
0
% es.tEZ (V/m) @ t=0.44
-2.5339915331011262
% es.Ex (V/m) @ t=0.44
1.1094406146556381
% es.Ey (V/m) @ t=0.44
0.2933147448852367
% es.Ez (V/m) @ t=0.44
-2.533991533101114
% es.tEx (V/m) @ t=0.44
1.1094406146556386
% es.tEy (V/m) @ t=0.44
0
% es.tEz (V/m) @ t=0.44
-2.5339915331011262
% V (V) @ t=0.44
0.013919197248222992
% es.normE (V/m) @ t=0.46
2.8090132005306043
% es.EX (V/m) @ t=0.46
1.1194977221519742
% es.EY (V/m) @ t=0.46
0.29597352430120427
% es.EZ (V/m) @ t=0.46
-2.556962457600976
% es.tEX (V/m) @ t=0.46
1.1194977221519746
% es.tEY (V/m) @ t=0.46
0
% es.tEZ (V/m) @ t=0.46
-2.556962457600978
% es.Ex (V/m) @ t=0.46
1.1194977221519742
% es.Ey (V/m) @ t=0.46
0.29597352430120427
% es.Ez (V/m) @ t=0.46
-2.556962457600976
% es.tEx (V/m) @ t=0.46
1.1194977221519746
% es.tEy (V/m) @ t=0.46
0
% es.tEz (V/m) @ t=0.46
-2.556962457600978
% V (V) @ t=0.46
0.014045382226135576
% es.normE (V/m) @ t=0.48
2.8342484163589
% es.EX (V/m) @ t=0.48
1.1295548296482942
% es.EY (V/m) @ t=0.48
0.29863230371718075
% es.EZ (V/m) @ t=0.48
-2.5799333821008243
% es.tEX (V/m) @ t=0.48
1.1295548296482947
% es.tEY (V/m) @ t=0.48
0
% es.tEZ (V/m) @ t=0.48
-2.5799333821008297
% es.Ex (V/m) @ t=0.48
1.1295548296482942
% es.Ey (V/m) @ t=0.48
0.29863230371718075
% es.Ez (V/m) @ t=0.48
-2.5799333821008243
% es.tEx (V/m) @ t=0.48
1.1295548296482947
% es.tEy (V/m) @ t=0.48
0
% es.tEz (V/m) @ t=0.48
-2.5799333821008297
% V (V) @ t=0.48
0.014171567204048156
% es.normE (V/m) @ t=0.5
2.859483632187234
% es.EX (V/m) @ t=0.5
1.1396119371446436
% es.EY (V/m) @ t=0.5
0.3012910831331457
% es.EZ (V/m) @ t=0.5
-2.6029043066006867
% es.tEX (V/m) @ t=0.5
1.139611937144644
% es.tEY (V/m) @ t=0.5
0
% es.tEZ (V/m) @ t=0.5
-2.602904306600699
% es.Ex (V/m) @ t=0.5
1.1396119371446436
% es.Ey (V/m) @ t=0.5
0.3012910831331457
% es.Ez (V/m) @ t=0.5
-2.6029043066006867
% es.tEx (V/m) @ t=0.5
1.139611937144644
% es.tEy (V/m) @ t=0.5
0
% es.tEz (V/m) @ t=0.5
-2.602904306600699
% V (V) @ t=0.5
0.01429775218196074
% es.normE (V/m) @ t=0.52
2.8859629351397285
% es.EX (V/m) @ t=0.52
1.1501649421413958
% es.EY (V/m) @ t=0.52
0.3040810996229748
% es.EZ (V/m) @ t=0.52
-2.627007638323411
% es.tEX (V/m) @ t=0.52
1.1501649421413962
% es.tEY (V/m) @ t=0.52
0
% es.tEZ (V/m) @ t=0.52
-2.6270076383234127
% es.Ex (V/m) @ t=0.52
1.1501649421413958
% es.Ey (V/m) @ t=0.52
0.3040810996229748
% es.Ez (V/m) @ t=0.52
-2.627007638323411
% es.tEx (V/m) @ t=0.52
1.1501649421413962
% es.tEy (V/m) @ t=0.52
0
% es.tEz (V/m) @ t=0.52
-2.6270076383234127
% V (V) @ t=0.52
0.014430151371270787
% es.normE (V/m) @ t=0.54
2.913918532915053
% es.EX (V/m) @ t=0.54
1.161306403443469
% es.EY (V/m) @ t=0.54
0.3070268484637788
% es.EZ (V/m) @ t=0.54
-2.6524547400184613
% es.tEX (V/m) @ t=0.54
1.1613064034434695
% es.tEY (V/m) @ t=0.54
0
% es.tEZ (V/m) @ t=0.54
-2.65245474001847
% es.Ex (V/m) @ t=0.54
1.161306403443469
% es.Ey (V/m) @ t=0.54
0.3070268484637788
% es.Ez (V/m) @ t=0.54
-2.6524547400184613
% es.tEx (V/m) @ t=0.54
1.1613064034434695
% es.tEy (V/m) @ t=0.54
0
% es.tEz (V/m) @ t=0.54
-2.65245474001847
% V (V) @ t=0.54
0.014569924648726239
% es.normE (V/m) @ t=0.56
2.941874130690411
% es.EX (V/m) @ t=0.56
1.1724478647455276
% es.EY (V/m) @ t=0.56
0.30997259730457216
% es.EZ (V/m) @ t=0.56
-2.6779018417135294
% es.tEX (V/m) @ t=0.56
1.1724478647455276
% es.tEY (V/m) @ t=0.56
0
% es.tEZ (V/m) @ t=0.56
-2.6779018417135347
% es.Ex (V/m) @ t=0.56
1.1724478647455276
% es.Ey (V/m) @ t=0.56
0.30997259730457216
% es.Ez (V/m) @ t=0.56
-2.6779018417135294
% es.tEx (V/m) @ t=0.56
1.1724478647455276
% es.tEy (V/m) @ t=0.56
0
% es.tEz (V/m) @ t=0.56
-2.6779018417135347
% V (V) @ t=0.56
0.014709697926181688
% es.normE (V/m) @ t=0.58
2.969829728465786
% es.EX (V/m) @ t=0.58
1.1835893260475863
% es.EY (V/m) @ t=0.58
0.3129183461453904
% es.EZ (V/m) @ t=0.58
-2.7033489434085904
% es.tEX (V/m) @ t=0.58
1.1835893260475867
% es.tEY (V/m) @ t=0.58
0
% es.tEZ (V/m) @ t=0.58
-2.7033489434085993
% es.Ex (V/m) @ t=0.58
1.1835893260475863
% es.Ey (V/m) @ t=0.58
0.3129183461453904
% es.Ez (V/m) @ t=0.58
-2.7033489434085904
% es.tEx (V/m) @ t=0.58
1.1835893260475867
% es.tEy (V/m) @ t=0.58
0
% es.tEz (V/m) @ t=0.58
-2.7033489434085993
% V (V) @ t=0.58
0.01484947120363714
% es.normE (V/m) @ t=0.6
2.9977853262411878
% es.EX (V/m) @ t=0.6
1.1947307873496595
% es.EY (V/m) @ t=0.6
0.3158640949862006
% es.EZ (V/m) @ t=0.6
-2.728796045103648
% es.tEX (V/m) @ t=0.6
1.19473078734966
% es.tEY (V/m) @ t=0.6
0
% es.tEZ (V/m) @ t=0.6
-2.7287960451036497
% es.Ex (V/m) @ t=0.6
1.1947307873496595
% es.Ey (V/m) @ t=0.6
0.3158640949862006
% es.Ez (V/m) @ t=0.6
-2.728796045103648
% es.tEx (V/m) @ t=0.6
1.19473078734966
% es.tEy (V/m) @ t=0.6
0
% es.tEz (V/m) @ t=0.6
-2.7287960451036497
% V (V) @ t=0.6
0.014989244481092588
% es.normE (V/m) @ t=0.62
3.025740924016617
% es.EX (V/m) @ t=0.62
1.2058722486517186
% es.EY (V/m) @ t=0.62
0.3188098438270073
% es.EZ (V/m) @ t=0.62
-2.7542431467987196
% es.tEX (V/m) @ t=0.62
1.205872248651719
% es.tEY (V/m) @ t=0.62
0
% es.tEZ (V/m) @ t=0.62
-2.754243146798725
% es.Ex (V/m) @ t=0.62
1.2058722486517186
% es.Ey (V/m) @ t=0.62
0.3188098438270073
% es.Ez (V/m) @ t=0.62
-2.7542431467987196
% es.tEx (V/m) @ t=0.62
1.205872248651719
% es.tEy (V/m) @ t=0.62
0
% es.tEz (V/m) @ t=0.62
-2.754243146798725
% V (V) @ t=0.62
0.01512901775854804
% es.normE (V/m) @ t=0.64
3.0536965217920624
% es.EX (V/m) @ t=0.64
1.217013709953791
% es.EY (V/m) @ t=0.64
0.3217555926678086
% es.EZ (V/m) @ t=0.64
-2.7796902484937807
% es.tEX (V/m) @ t=0.64
1.2170137099537914
% es.tEY (V/m) @ t=0.64
0
% es.tEZ (V/m) @ t=0.64
-2.779690248493793
% es.Ex (V/m) @ t=0.64
1.217013709953791
% es.Ey (V/m) @ t=0.64
0.3217555926678086
% es.Ez (V/m) @ t=0.64
-2.7796902484937807
% es.tEx (V/m) @ t=0.64
1.2170137099537914
% es.tEy (V/m) @ t=0.64
0
% es.tEz (V/m) @ t=0.64
-2.779690248493793
% V (V) @ t=0.64
0.015268791036003492
% es.normE (V/m) @ t=0.66
3.0816521195675195
% es.EX (V/m) @ t=0.66
1.22815517125585
% es.EY (V/m) @ t=0.66
0.3247013415086082
% es.EZ (V/m) @ t=0.66
-2.805137350188838
% es.tEX (V/m) @ t=0.66
1.2281551712558505
% es.tEY (V/m) @ t=0.66
0
% es.tEZ (V/m) @ t=0.66
-2.80513735018884
% es.Ex (V/m) @ t=0.66
1.22815517125585
% es.Ey (V/m) @ t=0.66
0.3247013415086082
% es.Ez (V/m) @ t=0.66
-2.805137350188838
% es.tEx (V/m) @ t=0.66
1.2281551712558505
% es.tEy (V/m) @ t=0.66
0
% es.tEz (V/m) @ t=0.66
-2.80513735018884
% V (V) @ t=0.66
0.015408564313458944
% es.normE (V/m) @ t=0.68
3.1096077173430086
% es.EX (V/m) @ t=0.68
1.2392966325579091
% es.EY (V/m) @ t=0.68
0.32764709034944595
% es.EZ (V/m) @ t=0.68
-2.8305844518839027
% es.tEX (V/m) @ t=0.68
1.2392966325579096
% es.tEY (V/m) @ t=0.68
0
% es.tEZ (V/m) @ t=0.68
-2.830584451883915
% es.Ex (V/m) @ t=0.68
1.2392966325579091
% es.Ey (V/m) @ t=0.68
0.32764709034944595
% es.Ez (V/m) @ t=0.68
-2.8305844518839027
% es.tEx (V/m) @ t=0.68
1.2392966325579096
% es.tEy (V/m) @ t=0.68
0
% es.tEz (V/m) @ t=0.68
-2.830584451883915
% V (V) @ t=0.68
0.015548337590914393
% es.normE (V/m) @ t=0.7
3.1375633151185163
% es.EX (V/m) @ t=0.7
1.2504380938599824
% es.EY (V/m) @ t=0.7
0.3305928391902171
% es.EZ (V/m) @ t=0.7
-2.856031553578969
% es.tEX (V/m) @ t=0.7
1.2504380938599828
% es.tEY (V/m) @ t=0.7
0
% es.tEZ (V/m) @ t=0.7
-2.856031553578976
% es.Ex (V/m) @ t=0.7
1.2504380938599824
% es.Ey (V/m) @ t=0.7
0.3305928391902171
% es.Ez (V/m) @ t=0.7
-2.856031553578969
% es.tEx (V/m) @ t=0.7
1.2504380938599828
% es.tEy (V/m) @ t=0.7
0
% es.tEz (V/m) @ t=0.7
-2.856031553578976
% V (V) @ t=0.7
0.015688110868369846
% es.normE (V/m) @ t=0.72
3.1655189128940426
% es.EX (V/m) @ t=0.72
1.2615795551620406
% es.EY (V/m) @ t=0.72
0.33353858803104686
% es.EZ (V/m) @ t=0.72
-2.8814786552740355
% es.tEX (V/m) @ t=0.72
1.261579555162041
% es.tEY (V/m) @ t=0.72
0
% es.tEZ (V/m) @ t=0.72
-2.8814786552740372
% es.Ex (V/m) @ t=0.72
1.2615795551620406
% es.Ey (V/m) @ t=0.72
0.33353858803104686
% es.Ez (V/m) @ t=0.72
-2.8814786552740355
% es.tEx (V/m) @ t=0.72
1.261579555162041
% es.tEy (V/m) @ t=0.72
0
% es.tEz (V/m) @ t=0.72
-2.8814786552740372
% V (V) @ t=0.72
0.015827884145825293
% es.normE (V/m) @ t=0.74
3.1934745106695708
% es.EX (V/m) @ t=0.74
1.2727210164640996
% es.EY (V/m) @ t=0.74
0.3364843368718464
% es.EZ (V/m) @ t=0.74
-2.906925756969086
% es.tEX (V/m) @ t=0.74
1.2727210164641
% es.tEY (V/m) @ t=0.74
0
% es.tEZ (V/m) @ t=0.74
-2.906925756969091
% es.Ex (V/m) @ t=0.74
1.2727210164640996
% es.Ey (V/m) @ t=0.74
0.3364843368718464
% es.Ez (V/m) @ t=0.74
-2.906925756969086
% es.tEx (V/m) @ t=0.74
1.2727210164641
% es.tEy (V/m) @ t=0.74
0
% es.tEz (V/m) @ t=0.74
-2.906925756969091
% V (V) @ t=0.74
0.015967657423280747
% es.normE (V/m) @ t=0.76
3.2214301084451455
% es.EX (V/m) @ t=0.76
1.283862477766172
% es.EY (V/m) @ t=0.76
0.3394300857126753
% es.EZ (V/m) @ t=0.76
-2.9323728586641575
% es.tEX (V/m) @ t=0.76
1.2838624777661725
% es.tEY (V/m) @ t=0.76
0
% es.tEZ (V/m) @ t=0.76
-2.9323728586641664
% es.Ex (V/m) @ t=0.76
1.283862477766172
% es.Ey (V/m) @ t=0.76
0.3394300857126753
% es.Ez (V/m) @ t=0.76
-2.9323728586641575
% es.tEx (V/m) @ t=0.76
1.2838624777661725
% es.tEy (V/m) @ t=0.76
0
% es.tEz (V/m) @ t=0.76
-2.9323728586641664
% V (V) @ t=0.76
0.016107430700736194
% es.normE (V/m) @ t=0.78
3.251496608906511
% es.EX (V/m) @ t=0.78
1.2958451498249564
% es.EY (V/m) @ t=0.78
0.3425981323424585
% es.EZ (V/m) @ t=0.78
-2.9597414912146984
% es.tEX (V/m) @ t=0.78
1.2958451498249568
% es.tEY (V/m) @ t=0.78
0
% es.tEZ (V/m) @ t=0.78
-2.959741491214711
% es.Ex (V/m) @ t=0.78
1.2958451498249564
% es.Ey (V/m) @ t=0.78
0.3425981323424585
% es.Ez (V/m) @ t=0.78
-2.9597414912146984
% es.tEx (V/m) @ t=0.78
1.2958451498249568
% es.tEy (V/m) @ t=0.78
0
% es.tEz (V/m) @ t=0.78
-2.959741491214711
% V (V) @ t=0.78
0.01625776367689709
% es.normE (V/m) @ t=0.8
3.2825154887438046
% es.EX (V/m) @ t=0.8
1.3082073523002538
% es.EY (V/m) @ t=0.8
0.34586647342494015
% es.EZ (V/m) @ t=0.8
-2.9879770639464507
% es.tEX (V/m) @ t=0.8
1.3082073523002542
% es.tEY (V/m) @ t=0.8
0
% es.tEZ (V/m) @ t=0.8
-2.987977063946463
% es.Ex (V/m) @ t=0.8
1.3082073523002538
% es.Ey (V/m) @ t=0.8
0.34586647342494015
% es.Ez (V/m) @ t=0.8
-2.9879770639464507
% es.tEx (V/m) @ t=0.8
1.3082073523002542
% es.tEy (V/m) @ t=0.8
0
% es.tEz (V/m) @ t=0.8
-2.987977063946463
% V (V) @ t=0.8
0.016412860889387083
% es.normE (V/m) @ t=0.82
3.3135343685810676
% es.EX (V/m) @ t=0.82
1.3205695547755023
% es.EY (V/m) @ t=0.82
0.34913481450742356
% es.EZ (V/m) @ t=0.82
-3.0162126366781887
% es.tEX (V/m) @ t=0.82
1.3205695547754956
% es.tEY (V/m) @ t=0.82
0
% es.tEZ (V/m) @ t=0.82
-3.016212636678201
% es.Ex (V/m) @ t=0.82
1.3205695547755023
% es.Ey (V/m) @ t=0.82
0.34913481450742356
% es.Ez (V/m) @ t=0.82
-3.0162126366781887
% es.tEx (V/m) @ t=0.82
1.3205695547754956
% es.tEy (V/m) @ t=0.82
0
% es.tEz (V/m) @ t=0.82
-3.016212636678201
% V (V) @ t=0.82
0.016567958101877073
% es.normE (V/m) @ t=0.84
3.344553248418367
% es.EX (V/m) @ t=0.84
1.3329317572507793
% es.EY (V/m) @ t=0.84
0.35240315558988744
% es.EZ (V/m) @ t=0.84
-3.0444482094099587
% es.tEX (V/m) @ t=0.84
1.3329317572507797
% es.tEY (V/m) @ t=0.84
0
% es.tEZ (V/m) @ t=0.84
-3.044448209409957
% es.Ex (V/m) @ t=0.84
1.3329317572507793
% es.Ey (V/m) @ t=0.84
0.35240315558988744
% es.Ez (V/m) @ t=0.84
-3.0444482094099587
% es.tEx (V/m) @ t=0.84
1.3329317572507797
% es.tEy (V/m) @ t=0.84
0
% es.tEz (V/m) @ t=0.84
-3.044448209409957
% V (V) @ t=0.84
0.016723055314367068
% es.normE (V/m) @ t=0.86
3.3755721282556443
% es.EX (V/m) @ t=0.86
1.3452939597260625
% es.EY (V/m) @ t=0.86
0.3556714966723824
% es.EZ (V/m) @ t=0.86
-3.072683782141697
% es.tEX (V/m) @ t=0.86
1.345293959726063
% es.tEY (V/m) @ t=0.86
0
% es.tEZ (V/m) @ t=0.86
-3.0726837821417057
% es.Ex (V/m) @ t=0.86
1.3452939597260625
% es.Ey (V/m) @ t=0.86
0.3556714966723824
% es.Ez (V/m) @ t=0.86
-3.072683782141697
% es.tEx (V/m) @ t=0.86
1.345293959726063
% es.tEy (V/m) @ t=0.86
0
% es.tEz (V/m) @ t=0.86
-3.0726837821417057
% V (V) @ t=0.86
0.016878152526857062
% es.normE (V/m) @ t=0.88
3.406591008092933
% es.EX (V/m) @ t=0.88
1.3576561622013315
% es.EY (V/m) @ t=0.88
0.35893983775487825
% es.EZ (V/m) @ t=0.88
-3.1009193548734544
% es.tEX (V/m) @ t=0.88
1.357656162201332
% es.tEY (V/m) @ t=0.88
0
% es.tEZ (V/m) @ t=0.88
-3.1009193548734615
% es.Ex (V/m) @ t=0.88
1.3576561622013315
% es.Ey (V/m) @ t=0.88
0.35893983775487825
% es.Ez (V/m) @ t=0.88
-3.1009193548734544
% es.tEx (V/m) @ t=0.88
1.357656162201332
% es.tEy (V/m) @ t=0.88
0
% es.tEz (V/m) @ t=0.88
-3.1009193548734615
% V (V) @ t=0.88
0.017033249739347056
% es.normE (V/m) @ t=0.9
3.437609887930212
% es.EX (V/m) @ t=0.9
1.3700183646766297
% es.EY (V/m) @ t=0.9
0.3622081788373155
% es.EZ (V/m) @ t=0.9
-3.129154927605196
% es.tEX (V/m) @ t=0.9
1.3700183646766302
% es.tEY (V/m) @ t=0.9
0
% es.tEZ (V/m) @ t=0.9
-3.1291549276052066
% es.Ex (V/m) @ t=0.9
1.3700183646766297
% es.Ey (V/m) @ t=0.9
0.3622081788373155
% es.Ez (V/m) @ t=0.9
-3.129154927605196
% es.tEx (V/m) @ t=0.9
1.3700183646766302
% es.tEy (V/m) @ t=0.9
0
% es.tEz (V/m) @ t=0.9
-3.1291549276052066
% V (V) @ t=0.9
0.01718834695183705
% es.normE (V/m) @ t=0.92
3.4686287677675
% es.EX (V/m) @ t=0.92
1.3823805671518854
% es.EY (V/m) @ t=0.92
0.3654765199198362
% es.EZ (V/m) @ t=0.92
-3.1573905003369536
% es.tEX (V/m) @ t=0.92
1.3823805671518858
% es.tEY (V/m) @ t=0.92
0
% es.tEZ (V/m) @ t=0.92
-3.157390500336966
% es.Ex (V/m) @ t=0.92
1.3823805671518854
% es.Ey (V/m) @ t=0.92
0.3654765199198362
% es.Ez (V/m) @ t=0.92
-3.1573905003369536
% es.tEx (V/m) @ t=0.92
1.3823805671518858
% es.tEy (V/m) @ t=0.92
0
% es.tEz (V/m) @ t=0.92
-3.157390500336966
% V (V) @ t=0.92
0.017343444164327045
% es.normE (V/m) @ t=0.94
3.4996476476047964
% es.EX (V/m) @ t=0.94
1.3947427696271837
% es.EY (V/m) @ t=0.94
0.3687448610023125
% es.EZ (V/m) @ t=0.94
-3.1856260730687094
% es.tEX (V/m) @ t=0.94
1.3947427696271841
% es.tEY (V/m) @ t=0.94
0
% es.tEZ (V/m) @ t=0.94
-3.185626073068704
% es.Ex (V/m) @ t=0.94
1.3947427696271837
% es.Ey (V/m) @ t=0.94
0.3687448610023125
% es.Ez (V/m) @ t=0.94
-3.1856260730687094
% es.tEx (V/m) @ t=0.94
1.3947427696271841
% es.tEy (V/m) @ t=0.94
0
% es.tEz (V/m) @ t=0.94
-3.185626073068704
% V (V) @ t=0.94
0.017498541376817035
% es.normE (V/m) @ t=0.96
3.5306665274420608
% es.EX (V/m) @ t=0.96
1.4071049721024385
% es.EY (V/m) @ t=0.96
0.3720132020847906
% es.EZ (V/m) @ t=0.96
-3.2138616458004474
% es.tEX (V/m) @ t=0.96
1.407104972102439
% es.tEY (V/m) @ t=0.96
0
% es.tEZ (V/m) @ t=0.96
-3.21386164580046
% es.Ex (V/m) @ t=0.96
1.4071049721024385
% es.Ey (V/m) @ t=0.96
0.3720132020847906
% es.Ez (V/m) @ t=0.96
-3.2138616458004474
% es.tEx (V/m) @ t=0.96
1.407104972102439
% es.tEy (V/m) @ t=0.96
0
% es.tEz (V/m) @ t=0.96
-3.21386164580046
% V (V) @ t=0.96
0.01765363858930703
% es.normE (V/m) @ t=0.98
3.561685407279346
% es.EX (V/m) @ t=0.98
1.4194671745777079
% es.EY (V/m) @ t=0.98
0.37528154316727846
% es.EZ (V/m) @ t=0.98
-3.2420972185322015
% es.tEX (V/m) @ t=0.98
1.4194671745777088
% es.tEY (V/m) @ t=0.98
0
% es.tEZ (V/m) @ t=0.98
-3.2420972185322157
% es.Ex (V/m) @ t=0.98
1.4194671745777079
% es.Ey (V/m) @ t=0.98
0.37528154316727846
% es.Ez (V/m) @ t=0.98
-3.2420972185322015
% es.tEx (V/m) @ t=0.98
1.4194671745777088
% es.tEy (V/m) @ t=0.98
0
% es.tEz (V/m) @ t=0.98
-3.2420972185322157
% V (V) @ t=0.98
0.01780873580179702
% es.normE (V/m) @ t=1
3.592704287116642
% es.EX (V/m) @ t=1
1.4318293770530066
% es.EY (V/m) @ t=1
0.3785498842497441
% es.EZ (V/m) @ t=1
-3.2703327912639573
% es.tEX (V/m) @ t=1
1.431829377053007
% es.tEY (V/m) @ t=1
0
% es.tEZ (V/m) @ t=1
-3.270332791263975
% es.Ex (V/m) @ t=1
1.4318293770530066
% es.Ey (V/m) @ t=1
0.3785498842497441
% es.Ez (V/m) @ t=1
-3.2703327912639573
% es.tEx (V/m) @ t=1
1.431829377053007
% es.tEy (V/m) @ t=1
0
% es.tEz (V/m) @ t=1
-3.270332791263975
% V (V) @ t=1
0.017963833014287015
% es.normE (V/m) @ t=1.02
3.623723166953919
% es.EX (V/m) @ t=1.02
1.4441915795282756
% es.EY (V/m) @ t=1.02
0.3818182253322471
% es.EZ (V/m) @ t=1.02
-3.2985683639957006
% es.tEX (V/m) @ t=1.02
1.444191579528276
% es.tEY (V/m) @ t=1.02
0
% es.tEZ (V/m) @ t=1.02
-3.298568363995713
% es.Ex (V/m) @ t=1.02
1.4441915795282756
% es.Ey (V/m) @ t=1.02
0.3818182253322471
% es.Ez (V/m) @ t=1.02
-3.2985683639957006
% es.tEx (V/m) @ t=1.02
1.444191579528276
% es.tEy (V/m) @ t=1.02
0
% es.tEz (V/m) @ t=1.02
-3.298568363995713
% V (V) @ t=1.02
0.018118930226777012
% es.normE (V/m) @ t=1.04
3.6561346306191442
% es.EX (V/m) @ t=1.04
1.4571087786622172
% es.EY (V/m) @ t=1.04
0.38523329593823874
% es.EZ (V/m) @ t=1.04
-3.328071565319858
% es.tEX (V/m) @ t=1.04
1.457108778662211
% es.tEY (V/m) @ t=1.04
0
% es.tEZ (V/m) @ t=1.04
-3.32807156531986
% es.Ex (V/m) @ t=1.04
1.4571087786622172
% es.Ey (V/m) @ t=1.04