% Model:              1 neuron.mph
% Version:            COMSOL 6.1.0.252
% Date:               Mar 22 2023, 18:02
% Dimension:          0
% Nodes:              14017
% Expressions:        14017
% Description:        Electric field norm, Electric field, X component, Electric field, Y component, Electric field, Z component, Tangential electric field, X component, Tangential electric field, Y component, Tangential electric field, Z component, Electric field, x component, Electric field, y component, Electric field, z component, Tangential electric field, x component, Tangential electric field, y component, Tangential electric field, z component, Electric potential
% Length unit:        mm
% x
1.33
% y
12.2
% z
1
% es.normE (V/m) @ t=0
2.839509881938764
% es.EX (V/m) @ t=0
0.8764510569444108
% es.EY (V/m) @ t=0
0.21233279963675677
% es.EZ (V/m) @ t=0
2.6924821156854675
% es.tEX (V/m) @ t=0
0.8764510569444113
% es.tEY (V/m) @ t=0
0
% es.tEZ (V/m) @ t=0
2.692482115685465
% es.Ex (V/m) @ t=0
0.8764510569444108
% es.Ey (V/m) @ t=0
0.21233279963675677
% es.Ez (V/m) @ t=0
2.6924821156854675
% es.tEx (V/m) @ t=0
0.8764510569444113
% es.tEy (V/m) @ t=0
0
% es.tEz (V/m) @ t=0
2.692482115685465
% V (V) @ t=0
0.013280456819895122
% es.normE (V/m) @ t=0.02
2.452512396201393
% es.EX (V/m) @ t=0.02
0.7569993315580389
% es.EY (V/m) @ t=0.02
0.18339391125816862
% es.EZ (V/m) @ t=0.02
2.3255230795344057
% es.tEX (V/m) @ t=0.02
0.7569993315580348
% es.tEY (V/m) @ t=0.02
0
% es.tEZ (V/m) @ t=0.02
2.3255230795343937
% es.Ex (V/m) @ t=0.02
0.7569993315580389
% es.Ey (V/m) @ t=0.02
0.18339391125816862
% es.Ez (V/m) @ t=0.02
2.3255230795344057
% es.tEx (V/m) @ t=0.02
0.7569993315580348
% es.tEy (V/m) @ t=0.02
0
% es.tEz (V/m) @ t=0.02
2.3255230795343937
% V (V) @ t=0.02
0.011470460125553826
% es.normE (V/m) @ t=0.04
2.4750726995692482
% es.EX (V/m) @ t=0.04
0.7639628579653808
% es.EY (V/m) @ t=0.04
0.18508092504458495
% es.EZ (V/m) @ t=0.04
2.3469152266897533
% es.tEX (V/m) @ t=0.04
0.7639628579653817
% es.tEY (V/m) @ t=0.04
0
% es.tEZ (V/m) @ t=0.04
2.3469152266897506
% es.Ex (V/m) @ t=0.04
0.7639628579653808
% es.Ey (V/m) @ t=0.04
0.18508092504458495
% es.Ez (V/m) @ t=0.04
2.3469152266897533
% es.tEx (V/m) @ t=0.04
0.7639628579653817
% es.tEy (V/m) @ t=0.04
0
% es.tEz (V/m) @ t=0.04
2.3469152266897506
% V (V) @ t=0.04
0.011575975198201277
% es.normE (V/m) @ t=0.06
2.497795139427645
% es.EX (V/m) @ t=0.06
0.7709764290161375
% es.EY (V/m) @ t=0.06
0.18678006294289307
% es.EZ (V/m) @ t=0.06
2.3684611153162463
% es.tEX (V/m) @ t=0.06
0.7709764290161374
% es.tEY (V/m) @ t=0.06
0
% es.tEZ (V/m) @ t=0.06
2.368461115316242
% es.Ex (V/m) @ t=0.06
0.7709764290161375
% es.Ey (V/m) @ t=0.06
0.18678006294289307
% es.Ez (V/m) @ t=0.06
2.3684611153162463
% es.tEx (V/m) @ t=0.06
0.7709764290161374
% es.tEy (V/m) @ t=0.06
0
% es.tEz (V/m) @ t=0.06
2.368461115316242
% V (V) @ t=0.06
0.011682248701331647
% es.normE (V/m) @ t=0.08
2.520958134183985
% es.EX (V/m) @ t=0.08
0.7781259837279516
% es.EY (V/m) @ t=0.08
0.18851214481148926
% es.EZ (V/m) @ t=0.08
2.3904247469673168
% es.tEX (V/m) @ t=0.08
0.7781259837279535
% es.tEY (V/m) @ t=0.08
0
% es.tEZ (V/m) @ t=0.08
2.3904247469673248
% es.Ex (V/m) @ t=0.08
0.7781259837279516
% es.Ey (V/m) @ t=0.08
0.18851214481148926
% es.Ez (V/m) @ t=0.08
2.3904247469673168
% es.tEx (V/m) @ t=0.08
0.7781259837279535
% es.tEy (V/m) @ t=0.08
0
% es.tEz (V/m) @ t=0.08
2.3904247469673248
% V (V) @ t=0.08
0.011790582590851492
% es.normE (V/m) @ t=0.1
2.5442319153583988
% es.EX (V/m) @ t=0.1
0.7853097342750318
% es.EY (V/m) @ t=0.1
0.1902525111061102
% es.EZ (V/m) @ t=0.1
2.412493428530639
% es.tEX (V/m) @ t=0.1
0.7853097342750388
% es.tEY (V/m) @ t=0.1
0
% es.tEZ (V/m) @ t=0.1
2.412493428530645
% es.Ex (V/m) @ t=0.1
0.7853097342750318
% es.Ey (V/m) @ t=0.1
0.1902525111061102
% es.Ez (V/m) @ t=0.1
2.412493428530639
% es.tEx (V/m) @ t=0.1
0.7853097342750388
% es.tEy (V/m) @ t=0.1
0
% es.tEz (V/m) @ t=0.1
2.412493428530645
% V (V) @ t=0.1
0.011899434606100923
% es.normE (V/m) @ t=0.12
2.5675056965327956
% es.EX (V/m) @ t=0.12
0.7924934848221329
% es.EY (V/m) @ t=0.12
0.19199287740069915
% es.EZ (V/m) @ t=0.12
2.4345621100939403
% es.tEX (V/m) @ t=0.12
0.7924934848221383
% es.tEY (V/m) @ t=0.12
0
% es.tEZ (V/m) @ t=0.12
2.434562110093953
% es.Ex (V/m) @ t=0.12
0.7924934848221329
% es.Ey (V/m) @ t=0.12
0.19199287740069915
% es.Ez (V/m) @ t=0.12
2.4345621100939403
% es.tEx (V/m) @ t=0.12
0.7924934848221383
% es.tEy (V/m) @ t=0.12
0
% es.tEz (V/m) @ t=0.12
2.434562110093953
% V (V) @ t=0.12
0.012008286621350353
% es.normE (V/m) @ t=0.14
2.591482015105575
% es.EX (V/m) @ t=0.14
0.7998940875736358
% es.EY (V/m) @ t=0.14
0.19378577883283177
% es.EZ (V/m) @ t=0.14
2.4572969504643196
% es.tEX (V/m) @ t=0.14
0.7998940875736267
% es.tEY (V/m) @ t=0.14
0
% es.tEZ (V/m) @ t=0.14
2.4572969504643183
% es.Ex (V/m) @ t=0.14
0.7998940875736358
% es.Ey (V/m) @ t=0.14
0.19378577883283177
% es.Ez (V/m) @ t=0.14
2.4572969504643196
% es.tEx (V/m) @ t=0.14
0.7998940875736267
% es.tEy (V/m) @ t=0.14
0
% es.tEz (V/m) @ t=0.14
2.4572969504643183
% V (V) @ t=0.14
0.0121204237528292
% es.normE (V/m) @ t=0.16
2.615918244754072
% es.EX (V/m) @ t=0.16
0.8074366510674933
% es.EY (V/m) @ t=0.16
0.19561307201641864
% es.EZ (V/m) @ t=0.16
2.480467886926191
% es.tEX (V/m) @ t=0.16
0.8074366510674977
% es.tEY (V/m) @ t=0.16
0
% es.tEZ (V/m) @ t=0.16
2.4804678869262045
% es.Ex (V/m) @ t=0.16
0.8074366510674933
% es.Ey (V/m) @ t=0.16
0.19561307201641864
% es.Ez (V/m) @ t=0.16
2.480467886926191
% es.tEx (V/m) @ t=0.16
0.8074366510674977
% es.tEy (V/m) @ t=0.16
0
% es.tEz (V/m) @ t=0.16
2.4804678869262045
% V (V) @ t=0.16
0.012234711462117154
% es.normE (V/m) @ t=0.18
2.64035447440256
% es.EX (V/m) @ t=0.18
0.814979214561339
% es.EY (V/m) @ t=0.18
0.1974403651999942
% es.EZ (V/m) @ t=0.18
2.503638823388058
% es.tEX (V/m) @ t=0.18
0.8149792145613404
% es.tEY (V/m) @ t=0.18
0
% es.tEZ (V/m) @ t=0.18
2.5036388233880604
% es.Ex (V/m) @ t=0.18
0.814979214561339
% es.Ey (V/m) @ t=0.18
0.1974403651999942
% es.Ez (V/m) @ t=0.18
2.503638823388058
% es.tEx (V/m) @ t=0.18
0.8149792145613404
% es.tEy (V/m) @ t=0.18
0
% es.tEz (V/m) @ t=0.18
2.5036388233880604
% V (V) @ t=0.18
0.012348999171405108
% es.normE (V/m) @ t=0.2
2.664790704051044
% es.EX (V/m) @ t=0.2
0.8225217780551848
% es.EY (V/m) @ t=0.2
0.19926765838360194
% es.EZ (V/m) @ t=0.2
2.5268097598499186
% es.tEX (V/m) @ t=0.2
0.822521778055183
% es.tEY (V/m) @ t=0.2
0
% es.tEZ (V/m) @ t=0.2
2.5268097598499306
% es.Ex (V/m) @ t=0.2
0.8225217780551848
% es.Ey (V/m) @ t=0.2
0.19926765838360194
% es.Ez (V/m) @ t=0.2
2.5268097598499186
% es.tEx (V/m) @ t=0.2
0.822521778055183
% es.tEy (V/m) @ t=0.2
0
% es.tEz (V/m) @ t=0.2
2.5268097598499306
% V (V) @ t=0.2
0.012463286880693066
% es.normE (V/m) @ t=0.22
2.689226933699568
% es.EX (V/m) @ t=0.22
0.8300643415490365
% es.EY (V/m) @ t=0.22
0.20109495156714996
% es.EZ (V/m) @ t=0.22
2.5499806963118234
% es.tEX (V/m) @ t=0.22
0.8300643415490399
% es.tEY (V/m) @ t=0.22
0
% es.tEZ (V/m) @ t=0.22
2.5499806963118132
% es.Ex (V/m) @ t=0.22
0.8300643415490365
% es.Ey (V/m) @ t=0.22
0.20109495156714996
% es.Ez (V/m) @ t=0.22
2.5499806963118234
% es.tEx (V/m) @ t=0.22
0.8300643415490399
% es.tEy (V/m) @ t=0.22
0
% es.tEz (V/m) @ t=0.22
2.5499806963118132
% V (V) @ t=0.22
0.012577574589981022
% es.normE (V/m) @ t=0.24
2.7136631633480386
% es.EX (V/m) @ t=0.24
0.8376069050428776
% es.EY (V/m) @ t=0.24
0.20292224475074305
% es.EZ (V/m) @ t=0.24
2.5731516327736714
% es.tEX (V/m) @ t=0.24
0.8376069050428754
% es.tEY (V/m) @ t=0.24
0
% es.tEZ (V/m) @ t=0.24
2.573151632773669
% es.Ex (V/m) @ t=0.24
0.8376069050428776
% es.Ey (V/m) @ t=0.24
0.20292224475074305
% es.Ez (V/m) @ t=0.24
2.5731516327736714
% es.tEx (V/m) @ t=0.24
0.8376069050428754
% es.tEy (V/m) @ t=0.24
0
% es.tEz (V/m) @ t=0.24
2.573151632773669
% V (V) @ t=0.24
0.012691862299268978
% es.normE (V/m) @ t=0.26
2.738657060928477
% es.EX (V/m) @ t=0.26
0.8453216100529342
% es.EY (V/m) @ t=0.26
0.20479124089275857
% es.EZ (V/m) @ t=0.26
2.596851358068794
% es.tEX (V/m) @ t=0.26
0.8453216100529488
% es.tEY (V/m) @ t=0.26
0
% es.tEZ (V/m) @ t=0.26
2.5968513580688057
% es.Ex (V/m) @ t=0.26
0.8453216100529342
% es.Ey (V/m) @ t=0.26
0.20479124089275857
% es.Ez (V/m) @ t=0.26
2.596851358068794
% es.tEx (V/m) @ t=0.26
0.8453216100529488
% es.tEy (V/m) @ t=0.26
0
% es.tEz (V/m) @ t=0.26
2.5968513580688057
% V (V) @ t=0.26
0.012808756884890176
% es.normE (V/m) @ t=0.28
2.7656875810081374
% es.EX (V/m) @ t=0.28
0.8536649818104911
% es.EY (V/m) @ t=0.28
0.20681253767576835
% es.EZ (V/m) @ t=0.28
2.622482238399808
% es.tEX (V/m) @ t=0.28
0.8536649818104891
% es.tEY (V/m) @ t=0.28
0
% es.tEZ (V/m) @ t=0.28
2.6224822383998134
% es.Ex (V/m) @ t=0.28
0.8536649818104911
% es.Ey (V/m) @ t=0.28
0.20681253767576835
% es.Ez (V/m) @ t=0.28
2.622482238399808
% es.tEx (V/m) @ t=0.28
0.8536649818104891
% es.tEy (V/m) @ t=0.28
0
% es.tEz (V/m) @ t=0.28
2.6224822383998134
% V (V) @ t=0.28
0.01293517187268807
% es.normE (V/m) @ t=0.3
2.792718101087835
% es.EX (V/m) @ t=0.3
0.862008353568052
% es.EY (V/m) @ t=0.3
0.20883383445877057
% es.EZ (V/m) @ t=0.3
2.6481131187308593
% es.tEX (V/m) @ t=0.3
0.8620083535680578
% es.tEY (V/m) @ t=0.3
0
% es.tEZ (V/m) @ t=0.3
2.6481131187308797
% es.Ex (V/m) @ t=0.3
0.862008353568052
% es.Ey (V/m) @ t=0.3
0.20883383445877057
% es.Ez (V/m) @ t=0.3
2.6481131187308593
% es.tEx (V/m) @ t=0.3
0.8620083535680578
% es.tEy (V/m) @ t=0.3
0
% es.tEz (V/m) @ t=0.3
2.6481131187308797
% V (V) @ t=0.3
0.013061586860485967
% es.normE (V/m) @ t=0.32
2.819748621167524
% es.EX (V/m) @ t=0.32
0.8703517253255952
% es.EY (V/m) @ t=0.32
0.2108551312417417
% es.EZ (V/m) @ t=0.32
2.673743999061908
% es.tEX (V/m) @ t=0.32
0.8703517253255981
% es.tEY (V/m) @ t=0.32
0
% es.tEZ (V/m) @ t=0.32
2.673743999061898
% es.Ex (V/m) @ t=0.32
0.8703517253255952
% es.Ey (V/m) @ t=0.32
0.2108551312417417
% es.Ez (V/m) @ t=0.32
2.673743999061908
% es.tEx (V/m) @ t=0.32
0.8703517253255981
% es.tEy (V/m) @ t=0.32
0
% es.tEz (V/m) @ t=0.32
2.673743999061898
% V (V) @ t=0.32
0.013188001848283863
% es.normE (V/m) @ t=0.34
2.8467791412472017
% es.EX (V/m) @ t=0.34
0.8786950970831549
% es.EY (V/m) @ t=0.34
0.21287642802473328
% es.EZ (V/m) @ t=0.34
2.699374879392937
% es.tEX (V/m) @ t=0.34
0.8786950970831526
% es.tEY (V/m) @ t=0.34
0
% es.tEZ (V/m) @ t=0.34
2.6993748793929484
% es.Ex (V/m) @ t=0.34
0.8786950970831549
% es.Ey (V/m) @ t=0.34
0.21287642802473328
% es.Ez (V/m) @ t=0.34
2.699374879392937
% es.tEx (V/m) @ t=0.34
0.8786950970831526
% es.tEy (V/m) @ t=0.34
0
% es.tEz (V/m) @ t=0.34
2.6993748793929484
% V (V) @ t=0.34
0.013314416836081755
% es.normE (V/m) @ t=0.36
2.873809661326888
% es.EX (V/m) @ t=0.36
0.8870384688407025
% es.EY (V/m) @ t=0.36
0.21489772480768976
% es.EZ (V/m) @ t=0.36
2.72500575972398
% es.tEX (V/m) @ t=0.36
0.8870384688407071
% es.tEY (V/m) @ t=0.36
0
% es.tEZ (V/m) @ t=0.36
2.7250057597239845
% es.Ex (V/m) @ t=0.36
0.8870384688407025
% es.Ey (V/m) @ t=0.36
0.21489772480768976
% es.Ez (V/m) @ t=0.36
2.72500575972398
% es.tEx (V/m) @ t=0.36
0.8870384688407071
% es.tEy (V/m) @ t=0.36
0
% es.tEz (V/m) @ t=0.36
2.7250057597239845
% V (V) @ t=0.36
0.01344083182387965
% es.normE (V/m) @ t=0.38
2.9008401814065783
% es.EX (V/m) @ t=0.38
0.8953818405982472
% es.EY (V/m) @ t=0.38
0.21691902159068932
% es.EZ (V/m) @ t=0.38
2.7506366400550233
% es.tEX (V/m) @ t=0.38
0.8953818405982474
% es.tEY (V/m) @ t=0.38
0
% es.tEZ (V/m) @ t=0.38
2.7506366400550064
% es.Ex (V/m) @ t=0.38
0.8953818405982472
% es.Ey (V/m) @ t=0.38
0.21691902159068932
% es.Ez (V/m) @ t=0.38
2.7506366400550233
% es.tEx (V/m) @ t=0.38
0.8953818405982474
% es.tEy (V/m) @ t=0.38
0
% es.tEz (V/m) @ t=0.38
2.7506366400550064
% V (V) @ t=0.38
0.013567246811677546
% es.normE (V/m) @ t=0.4
2.92787070148627
% es.EX (V/m) @ t=0.4
0.9037252123558017
% es.EY (V/m) @ t=0.4
0.21894031837367733
% es.EZ (V/m) @ t=0.4
2.7762675203860647
% es.tEX (V/m) @ t=0.4
0.903725212355809
% es.tEY (V/m) @ t=0.4
0
% es.tEZ (V/m) @ t=0.4
2.7762675203860674
% es.Ex (V/m) @ t=0.4
0.9037252123558017
% es.Ey (V/m) @ t=0.4
0.21894031837367733
% es.Ez (V/m) @ t=0.4
2.7762675203860647
% es.tEx (V/m) @ t=0.4
0.903725212355809
% es.tEy (V/m) @ t=0.4
0
% es.tEz (V/m) @ t=0.4
2.7762675203860674
% V (V) @ t=0.4
0.01369366179947544
% es.normE (V/m) @ t=0.42
2.9549012215659403
% es.EX (V/m) @ t=0.42
0.9120685841133487
% es.EY (V/m) @ t=0.42
0.22096161515665913
% es.EZ (V/m) @ t=0.42
2.8018984007170857
% es.tEX (V/m) @ t=0.42
0.9120685841133565
% es.tEY (V/m) @ t=0.42
0
% es.tEZ (V/m) @ t=0.42
2.8018984007170893
% es.Ex (V/m) @ t=0.42
0.9120685841133487
% es.Ey (V/m) @ t=0.42
0.22096161515665913
% es.Ez (V/m) @ t=0.42
2.8018984007170857
% es.tEx (V/m) @ t=0.42
0.9120685841133565
% es.tEy (V/m) @ t=0.42
0
% es.tEz (V/m) @ t=0.42
2.8018984007170893
% V (V) @ t=0.42
0.013820076787273336
% es.normE (V/m) @ t=0.44
2.9819317416456466
% es.EX (V/m) @ t=0.44
0.920411955870905
% es.EY (V/m) @ t=0.44
0.22298291193967912
% es.EZ (V/m) @ t=0.44
2.827529281048137
% es.tEX (V/m) @ t=0.44
0.9204119558709039
% es.tEY (V/m) @ t=0.44
0
% es.tEZ (V/m) @ t=0.44
2.8275292810481254
% es.Ex (V/m) @ t=0.44
0.920411955870905
% es.Ey (V/m) @ t=0.44
0.22298291193967912
% es.Ez (V/m) @ t=0.44
2.827529281048137
% es.tEx (V/m) @ t=0.44
0.9204119558709039
% es.tEy (V/m) @ t=0.44
0
% es.tEz (V/m) @ t=0.44
2.8275292810481254
% V (V) @ t=0.44
0.013946491775071231
% es.normE (V/m) @ t=0.46
3.0089622617253218
% es.EX (V/m) @ t=0.46
0.9287553276284568
% es.EY (V/m) @ t=0.46
0.22500420872265647
% es.EZ (V/m) @ t=0.46
2.853160161379159
% es.tEX (V/m) @ t=0.46
0.9287553276284513
% es.tEY (V/m) @ t=0.46
0
% es.tEZ (V/m) @ t=0.46
2.853160161379158
% es.Ex (V/m) @ t=0.46
0.9287553276284568
% es.Ey (V/m) @ t=0.46
0.22500420872265647
% es.Ez (V/m) @ t=0.46
2.853160161379159
% es.tEx (V/m) @ t=0.46
0.9287553276284513
% es.tEy (V/m) @ t=0.46
0
% es.tEz (V/m) @ t=0.46
2.853160161379158
% V (V) @ t=0.46
0.014072906762869125
% es.normE (V/m) @ t=0.48
3.0359927818050196
% es.EX (V/m) @ t=0.48
0.9370986993860186
% es.EY (V/m) @ t=0.48
0.22702550550564538
% es.EZ (V/m) @ t=0.48
2.8787910417102003
% es.tEX (V/m) @ t=0.48
0.9370986993860129
% es.tEY (V/m) @ t=0.48
0
% es.tEZ (V/m) @ t=0.48
2.8787910417101976
% es.Ex (V/m) @ t=0.48
0.9370986993860186
% es.Ey (V/m) @ t=0.48
0.22702550550564538
% es.Ez (V/m) @ t=0.48
2.8787910417102003
% es.tEx (V/m) @ t=0.48
0.9370986993860129
% es.tEy (V/m) @ t=0.48
0
% es.tEz (V/m) @ t=0.48
2.8787910417101976
% V (V) @ t=0.48
0.014199321750667019
% es.normE (V/m) @ t=0.5
3.0630233018847384
% es.EX (V/m) @ t=0.5
0.945442071143574
% es.EY (V/m) @ t=0.5
0.22904680228863694
% es.EZ (V/m) @ t=0.5
2.904421922041264
% es.tEX (V/m) @ t=0.5
0.9454420711435745
% es.tEY (V/m) @ t=0.5
0
% es.tEZ (V/m) @ t=0.5
2.9044219220412586
% es.Ex (V/m) @ t=0.5
0.945442071143574
% es.Ey (V/m) @ t=0.5
0.22904680228863694
% es.Ez (V/m) @ t=0.5
2.904421922041264
% es.tEx (V/m) @ t=0.5
0.9454420711435745
% es.tEy (V/m) @ t=0.5
0
% es.tEz (V/m) @ t=0.5
2.9044219220412586
% V (V) @ t=0.5
0.014325736738464913
% es.normE (V/m) @ t=0.52
3.091326311414398
% es.EX (V/m) @ t=0.52
0.9541781688996875
% es.EY (V/m) @ t=0.52
0.23116324577738623
% es.EZ (V/m) @ t=0.52
2.931259418255732
% es.tEX (V/m) @ t=0.52
0.9541781688996878
% es.tEY (V/m) @ t=0.52
0
% es.tEZ (V/m) @ t=0.52
2.931259418255749
% es.Ex (V/m) @ t=0.52
0.9541781688996875
% es.Ey (V/m) @ t=0.52
0.23116324577738623
% es.Ez (V/m) @ t=0.52
2.931259418255732
% es.tEx (V/m) @ t=0.52
0.9541781688996878
% es.tEy (V/m) @ t=0.52
0
% es.tEz (V/m) @ t=0.52
2.931259418255749
% V (V) @ t=0.52
0.014458109048144065
% es.normE (V/m) @ t=0.54
3.1212743208036464
% es.EX (V/m) @ t=0.54
0.9634219598335376
% es.EY (V/m) @ t=0.54
0.23340268935665542
% es.EZ (V/m) @ t=0.54
2.9596567568397214
% es.tEX (V/m) @ t=0.54
0.9634219598335392
% es.tEY (V/m) @ t=0.54
0
% es.tEZ (V/m) @ t=0.54
2.959656756839724
% es.Ex (V/m) @ t=0.54
0.9634219598335376
% es.Ey (V/m) @ t=0.54
0.23340268935665542
% es.Ez (V/m) @ t=0.54
2.9596567568397214
% es.tEx (V/m) @ t=0.54
0.9634219598335392
% es.tEy (V/m) @ t=0.54
0
% es.tEz (V/m) @ t=0.54
2.959656756839724
% V (V) @ t=0.54
0.014598182634763415
% es.normE (V/m) @ t=0.56
3.1512223301928817
% es.EX (V/m) @ t=0.56
0.9726657507673686
% es.EY (V/m) @ t=0.56
0.23564213293595326
% es.EZ (V/m) @ t=0.56
2.988054095423701
% es.tEX (V/m) @ t=0.56
0.9726657507673764
% es.tEY (V/m) @ t=0.56
0
% es.tEZ (V/m) @ t=0.56
2.9880540954237027
% es.Ex (V/m) @ t=0.56
0.9726657507673686
% es.Ey (V/m) @ t=0.56
0.23564213293595326
% es.Ez (V/m) @ t=0.56
2.988054095423701
% es.tEx (V/m) @ t=0.56
0.9726657507673764
% es.tEy (V/m) @ t=0.56
0
% es.tEz (V/m) @ t=0.56
2.9880540954237027
% V (V) @ t=0.56
0.014738256221382764
% es.normE (V/m) @ t=0.58
3.1811703395821085
% es.EX (V/m) @ t=0.58
0.9819095417012156
% es.EY (V/m) @ t=0.58
0.23788157651521313
% es.EZ (V/m) @ t=0.58
3.016451434007667
% es.tEX (V/m) @ t=0.58
0.9819095417012278
% es.tEY (V/m) @ t=0.58
0
% es.tEZ (V/m) @ t=0.58
3.0164514340076636
% es.Ex (V/m) @ t=0.58
0.9819095417012156
% es.Ey (V/m) @ t=0.58
0.23788157651521313
% es.Ez (V/m) @ t=0.58
3.016451434007667
% es.tEx (V/m) @ t=0.58
0.9819095417012278
% es.tEy (V/m) @ t=0.58
0
% es.tEz (V/m) @ t=0.58
3.0164514340076636
% V (V) @ t=0.58
0.014878329808002112
% es.normE (V/m) @ t=0.6
3.2111183489713584
% es.EX (V/m) @ t=0.6
0.9911533326350683
% es.EY (V/m) @ t=0.6
0.2401210200945001
% es.EZ (V/m) @ t=0.6
3.044848772591653
% es.tEX (V/m) @ t=0.6
0.991153332635065
% es.tEY (V/m) @ t=0.6
0
% es.tEZ (V/m) @ t=0.6
3.0448487725916706
% es.Ex (V/m) @ t=0.6
0.9911533326350683
% es.Ey (V/m) @ t=0.6
0.2401210200945001
% es.Ez (V/m) @ t=0.6
3.044848772591653
% es.tEx (V/m) @ t=0.6
0.991153332635065
% es.tEy (V/m) @ t=0.6
0
% es.tEz (V/m) @ t=0.6
3.0448487725916706
% V (V) @ t=0.6
0.01501840339462146
% es.normE (V/m) @ t=0.62
3.2410663583606087
% es.EX (V/m) @ t=0.62
1.0003971235689113
% es.EY (V/m) @ t=0.62
0.24236046367379438
% es.EZ (V/m) @ t=0.62
3.0732461111756413
% es.tEX (V/m) @ t=0.62
1.0003971235689306
% es.tEY (V/m) @ t=0.62
0
% es.tEZ (V/m) @ t=0.62
3.0732461111756457
% es.Ex (V/m) @ t=0.62
1.0003971235689113
% es.Ey (V/m) @ t=0.62
0.24236046367379438
% es.Ez (V/m) @ t=0.62
3.0732461111756413
% es.tEx (V/m) @ t=0.62
1.0003971235689306
% es.tEy (V/m) @ t=0.62
0
% es.tEz (V/m) @ t=0.62
3.0732461111756457
% V (V) @ t=0.62
0.015158476981240808
% es.normE (V/m) @ t=0.64
3.2710143677498307
% es.EX (V/m) @ t=0.64
1.009640914502751
% es.EY (V/m) @ t=0.64
0.24459990725307068
% es.EZ (V/m) @ t=0.64
3.1016434497596004
% es.tEX (V/m) @ t=0.64
1.0096409145027678
% es.tEY (V/m) @ t=0.64
0
% es.tEZ (V/m) @ t=0.64
3.10164344975961
% es.Ex (V/m) @ t=0.64
1.009640914502751
% es.Ey (V/m) @ t=0.64
0.24459990725307068
% es.Ez (V/m) @ t=0.64
3.1016434497596004
% es.tEx (V/m) @ t=0.64
1.0096409145027678
% es.tEy (V/m) @ t=0.64
0
% es.tEz (V/m) @ t=0.64
3.10164344975961
% V (V) @ t=0.64
0.015298550567860156
% es.normE (V/m) @ t=0.66
3.3009623771390775
% es.EX (V/m) @ t=0.66
1.0188847054366212
% es.EY (V/m) @ t=0.66
0.2468393508323794
% es.EZ (V/m) @ t=0.66
3.130040788343573
% es.tEX (V/m) @ t=0.66
1.0188847054366335
% es.tEY (V/m) @ t=0.66
0
% es.tEZ (V/m) @ t=0.66
3.1300407883435746
% es.Ex (V/m) @ t=0.66
1.0188847054366212
% es.Ey (V/m) @ t=0.66
0.2468393508323794
% es.Ez (V/m) @ t=0.66
3.130040788343573
% es.tEx (V/m) @ t=0.66
1.0188847054366335
% es.tEy (V/m) @ t=0.66
0
% es.tEz (V/m) @ t=0.66
3.1300407883435746
% V (V) @ t=0.66
0.015438624154479505
% es.normE (V/m) @ t=0.68
3.3309103865283474
% es.EX (V/m) @ t=0.68
1.0281284963704633
% es.EY (V/m) @ t=0.68
0.2490787944116426
% es.EZ (V/m) @ t=0.68
3.1584381269275807
% es.tEX (V/m) @ t=0.68
1.0281284963704564
% es.tEY (V/m) @ t=0.68
0
% es.tEZ (V/m) @ t=0.68
3.1584381269275816
% es.Ex (V/m) @ t=0.68
1.0281284963704633
% es.Ey (V/m) @ t=0.68
0.2490787944116426
% es.Ez (V/m) @ t=0.68
3.1584381269275807
% es.tEx (V/m) @ t=0.68
1.0281284963704564
% es.tEy (V/m) @ t=0.68
0
% es.tEz (V/m) @ t=0.68
3.1584381269275816
% V (V) @ t=0.68
0.015578697741098855
% es.normE (V/m) @ t=0.7
3.3608583959175635
% es.EX (V/m) @ t=0.7
1.0373722873042877
% es.EY (V/m) @ t=0.7
0.2513182379909724
% es.EZ (V/m) @ t=0.7
3.186835465511532
% es.tEX (V/m) @ t=0.7
1.0373722873042794
% es.tEY (V/m) @ t=0.7
0
% es.tEZ (V/m) @ t=0.7
3.1868354655115247
% es.Ex (V/m) @ t=0.7
1.0373722873042877
% es.Ey (V/m) @ t=0.7
0.2513182379909724
% es.Ez (V/m) @ t=0.7
3.186835465511532
% es.tEx (V/m) @ t=0.7
1.0373722873042794
% es.tEy (V/m) @ t=0.7
0
% es.tEz (V/m) @ t=0.7
3.1868354655115247
% V (V) @ t=0.7
0.015718771327718203
% es.normE (V/m) @ t=0.72
3.3908064053068143
% es.EX (V/m) @ t=0.72
1.0466160782381368
% es.EY (V/m) @ t=0.72
0.25355768157021075
% es.EZ (V/m) @ t=0.72
3.2152328040955176
% es.tEX (V/m) @ t=0.72
1.046616078238145
% es.tEY (V/m) @ t=0.72
0
% es.tEZ (V/m) @ t=0.72
3.215232804095532
% es.Ex (V/m) @ t=0.72
1.0466160782381368
% es.Ey (V/m) @ t=0.72
0.25355768157021075
% es.Ez (V/m) @ t=0.72
3.2152328040955176
% es.tEx (V/m) @ t=0.72
1.046616078238145
% es.tEy (V/m) @ t=0.72
0
% es.tEz (V/m) @ t=0.72
3.215232804095532
% V (V) @ t=0.72
0.01585884491433755
% es.normE (V/m) @ t=0.74
3.420754414696055
% es.EX (V/m) @ t=0.74
1.055859869171988
% es.EY (V/m) @ t=0.74
0.2557971251495297
% es.EZ (V/m) @ t=0.74
3.2436301426794847
% es.tEX (V/m) @ t=0.74
1.0558598691719965
% es.tEY (V/m) @ t=0.74
0
% es.tEZ (V/m) @ t=0.74
3.2436301426794962
% es.Ex (V/m) @ t=0.74
1.055859869171988
% es.Ey (V/m) @ t=0.74
0.2557971251495297
% es.Ez (V/m) @ t=0.74
3.2436301426794847
% es.tEx (V/m) @ t=0.74
1.0558598691719965
% es.tEy (V/m) @ t=0.74
0
% es.tEz (V/m) @ t=0.74
3.2436301426794962
% V (V) @ t=0.74
0.0159989185009569
% es.normE (V/m) @ t=0.76
3.450702424085306
% es.EX (V/m) @ t=0.76
1.0651036601058335
% es.EY (V/m) @ t=0.76
0.2580365687288382
% es.EZ (V/m) @ t=0.76
3.272027481263465
% es.tEX (V/m) @ t=0.76
1.0651036601058337
% es.tEY (V/m) @ t=0.76
0
% es.tEZ (V/m) @ t=0.76
3.272027481263475
% es.Ex (V/m) @ t=0.76
1.0651036601058335
% es.Ey (V/m) @ t=0.76
0.2580365687288382
% es.Ez (V/m) @ t=0.76
3.272027481263465
% es.tEx (V/m) @ t=0.76
1.0651036601058337
% es.tEy (V/m) @ t=0.76
0
% es.tEz (V/m) @ t=0.76
3.272027481263475
% V (V) @ t=0.76
0.01613899208757625
% es.normE (V/m) @ t=0.78
3.482808927470132
% es.EX (V/m) @ t=0.78
1.0750137876662123
% es.EY (V/m) @ t=0.78
0.26043743562452293
% es.EZ (V/m) @ t=0.78
3.3024715180116937
% es.tEX (V/m) @ t=0.78
1.0750137876662222
% es.tEY (V/m) @ t=0.78
0
% es.tEZ (V/m) @ t=0.78
3.3024715180117035
% es.Ex (V/m) @ t=0.78
1.0750137876662123
% es.Ey (V/m) @ t=0.78
0.26043743562452293
% es.Ez (V/m) @ t=0.78
3.3024715180116937
% es.tEx (V/m) @ t=0.78
1.0750137876662222
% es.tEy (V/m) @ t=0.78
0
% es.tEz (V/m) @ t=0.78
3.3024715180117035
% V (V) @ t=0.78
0.016289149084836134
% es.normE (V/m) @ t=0.8
3.516040524404925
% es.EX (V/m) @ t=0.8
1.085271236572965
% es.EY (V/m) @ t=0.8
0.2629224428201089
% es.EZ (V/m) @ t=0.8
3.3339823758435188
% es.tEX (V/m) @ t=0.8
1.0852712365729644
% es.tEY (V/m) @ t=0.8
0
% es.tEZ (V/m) @ t=0.8
3.333982375843526
% es.Ex (V/m) @ t=0.8
1.085271236572965
% es.Ey (V/m) @ t=0.8
0.2629224428201089
% es.Ez (V/m) @ t=0.8
3.3339823758435188
% es.tEx (V/m) @ t=0.8
1.0852712365729644
% es.tEy (V/m) @ t=0.8
0
% es.tEz (V/m) @ t=0.8
3.333982375843526
% V (V) @ t=0.8
0.01644456195971102
% es.normE (V/m) @ t=0.82
3.5492721213397083
% es.EX (V/m) @ t=0.82
1.095528685479704
% es.EY (V/m) @ t=0.82
0.26540745001570754
% es.EZ (V/m) @ t=0.82
3.365493233675335
% es.tEX (V/m) @ t=0.82
1.0955286854797066
% es.tEY (V/m) @ t=0.82
0
% es.tEZ (V/m) @ t=0.82
3.365493233675352
% es.Ex (V/m) @ t=0.82
1.095528685479704
% es.Ey (V/m) @ t=0.82
0.26540745001570754
% es.Ez (V/m) @ t=0.82
3.365493233675335
% es.tEx (V/m) @ t=0.82
1.0955286854797066
% es.tEy (V/m) @ t=0.82
0
% es.tEz (V/m) @ t=0.82
3.365493233675352
% V (V) @ t=0.82
0.016599974834585904
% es.normE (V/m) @ t=0.84
3.5825037182745136
% es.EX (V/m) @ t=0.84
1.1057861343864421
% es.EY (V/m) @ t=0.84
0.267892457211361
% es.EZ (V/m) @ t=0.84
3.397004091507166
% es.tEX (V/m) @ t=0.84
1.1057861343864488
% es.tEY (V/m) @ t=0.84
0
% es.tEZ (V/m) @ t=0.84
3.39700409150716
% es.Ex (V/m) @ t=0.84
1.1057861343864421
% es.Ey (V/m) @ t=0.84
0.267892457211361
% es.Ez (V/m) @ t=0.84
3.397004091507166
% es.tEx (V/m) @ t=0.84
1.1057861343864488
% es.tEy (V/m) @ t=0.84
0
% es.tEz (V/m) @ t=0.84
3.39700409150716
% V (V) @ t=0.84
0.016755387709460785
% es.normE (V/m) @ t=0.86
3.615735315209317
% es.EX (V/m) @ t=0.86
1.1160435832931936
% es.EY (V/m) @ t=0.86
0.2703774644069161
% es.EZ (V/m) @ t=0.86
3.4285149493389966
% es.tEX (V/m) @ t=0.86
1.116043583293191
% es.tEY (V/m) @ t=0.86
0
% es.tEZ (V/m) @ t=0.86
3.428514949339
% es.Ex (V/m) @ t=0.86
1.1160435832931936
% es.Ey (V/m) @ t=0.86
0.2703774644069161
% es.Ez (V/m) @ t=0.86
3.4285149493389966
% es.tEx (V/m) @ t=0.86
1.116043583293191
% es.tEy (V/m) @ t=0.86
0
% es.tEz (V/m) @ t=0.86
3.428514949339
% V (V) @ t=0.86
0.01691080058433567
% es.normE (V/m) @ t=0.88
3.648966912144137
% es.EX (V/m) @ t=0.88
1.1263010321999287
% es.EY (V/m) @ t=0.88
0.2728624716025414
% es.EZ (V/m) @ t=0.88
3.460025807170842
% es.tEX (V/m) @ t=0.88
1.1263010321999474
% es.tEY (V/m) @ t=0.88
0
% es.tEZ (V/m) @ t=0.88
3.4600258071708474
% es.Ex (V/m) @ t=0.88
1.1263010321999287
% es.Ey (V/m) @ t=0.88
0.2728624716025414
% es.Ez (V/m) @ t=0.88
3.460025807170842
% es.tEx (V/m) @ t=0.88
1.1263010321999474
% es.tEy (V/m) @ t=0.88
0
% es.tEz (V/m) @ t=0.88
3.4600258071708474
% V (V) @ t=0.88
0.01706621345921056
% es.normE (V/m) @ t=0.9
3.6821985090789466
% es.EX (V/m) @ t=0.9
1.1365584811066773
% es.EY (V/m) @ t=0.9
0.2753474787981356
% es.EZ (V/m) @ t=0.9
3.4915366650026716
% es.tEX (V/m) @ t=0.9
1.1365584811066896
% es.tEY (V/m) @ t=0.9
0
% es.tEZ (V/m) @ t=0.9
3.4915366650026733
% es.Ex (V/m) @ t=0.9
1.1365584811066773
% es.Ey (V/m) @ t=0.9
0.2753474787981356
% es.Ez (V/m) @ t=0.9
3.4915366650026716
% es.tEx (V/m) @ t=0.9
1.1365584811066896
% es.tEy (V/m) @ t=0.9
0
% es.tEz (V/m) @ t=0.9
3.4915366650026733
% V (V) @ t=0.9
0.01722162633408544
% es.normE (V/m) @ t=0.92
3.7154301060137187
% es.EX (V/m) @ t=0.92
1.1468159300133882
% es.EY (V/m) @ t=0.92
0.2778324859937624
% es.EZ (V/m) @ t=0.92
3.523047522834469
% es.tEX (V/m) @ t=0.92
1.146815930013389
% es.tEY (V/m) @ t=0.92
0
% es.tEZ (V/m) @ t=0.92
3.523047522834471
% es.Ex (V/m) @ t=0.92
1.1468159300133882
% es.Ey (V/m) @ t=0.92
0.2778324859937624
% es.Ez (V/m) @ t=0.92
3.523047522834469
% es.tEx (V/m) @ t=0.92
1.146815930013389
% es.tEy (V/m) @ t=0.92
0
% es.tEz (V/m) @ t=0.92
3.523047522834471
% V (V) @ t=0.92
0.01737703920896033
% es.normE (V/m) @ t=0.94
3.7486617029485414
% es.EX (V/m) @ t=0.94
1.157073378920137
% es.EY (V/m) @ t=0.94
0.28031749318936994
% es.EZ (V/m) @ t=0.94
3.5545583806663066
% es.tEX (V/m) @ t=0.94
1.1570733789201455
% es.tEY (V/m) @ t=0.94
0
% es.tEZ (V/m) @ t=0.94
3.554558380666336
% es.Ex (V/m) @ t=0.94
1.157073378920137
% es.Ey (V/m) @ t=0.94
0.28031749318936994
% es.Ez (V/m) @ t=0.94
3.5545583806663066
% es.tEx (V/m) @ t=0.94
1.1570733789201455
% es.tEy (V/m) @ t=0.94
0
% es.tEz (V/m) @ t=0.94
3.554558380666336
% V (V) @ t=0.94
0.017532452083835214
% es.normE (V/m) @ t=0.96
3.7818932998833654
% es.EX (V/m) @ t=0.96
1.1673308278268895
% es.EY (V/m) @ t=0.96
0.28280250038493926
% es.EZ (V/m) @ t=0.96
3.586069238498144
% es.tEX (V/m) @ t=0.96
1.167330827826902
% es.tEY (V/m) @ t=0.96
0
% es.tEZ (V/m) @ t=0.96
3.586069238498162
% es.Ex (V/m) @ t=0.96
1.1673308278268895
% es.Ey (V/m) @ t=0.96
0.28280250038493926
% es.Ez (V/m) @ t=0.96
3.586069238498144
% es.tEx (V/m) @ t=0.96
1.167330827826902
% es.tEy (V/m) @ t=0.96
0
% es.tEz (V/m) @ t=0.96
3.586069238498162
% V (V) @ t=0.96
0.017687864958710095
% es.normE (V/m) @ t=0.98
3.8151248968181926
% es.EX (V/m) @ t=0.98
1.1775882767336276
% es.EY (V/m) @ t=0.98
0.28528750758057164
% es.EZ (V/m) @ t=0.98
3.6175800963299833
% es.tEX (V/m) @ t=0.98
1.1775882767336299
% es.tEY (V/m) @ t=0.98
0
% es.tEZ (V/m) @ t=0.98
3.6175800963299807
% es.Ex (V/m) @ t=0.98
1.1775882767336276
% es.Ey (V/m) @ t=0.98
0.28528750758057164
% es.Ez (V/m) @ t=0.98
3.6175800963299833
% es.tEx (V/m) @ t=0.98
1.1775882767336299
% es.tEy (V/m) @ t=0.98
0
% es.tEz (V/m) @ t=0.98
3.6175800963299807
% V (V) @ t=0.98
0.017843277833584983
% es.normE (V/m) @ t=1
3.848356493753025
% es.EX (V/m) @ t=1
1.1878457256403836
% es.EY (V/m) @ t=1
0.28777251477620225
% es.EZ (V/m) @ t=1
3.64909095416182
% es.tEX (V/m) @ t=1
1.187845725640372
% es.tEY (V/m) @ t=1
0
% es.tEZ (V/m) @ t=1
3.649090954161821
% es.Ex (V/m) @ t=1
1.1878457256403836
% es.Ey (V/m) @ t=1
0.28777251477620225
% es.Ez (V/m) @ t=1
3.64909095416182
% es.tEx (V/m) @ t=1
1.187845725640372
% es.tEy (V/m) @ t=1
0
% es.tEz (V/m) @ t=1
3.649090954161821
% V (V) @ t=1
0.017998690708459865
% es.normE (V/m) @ t=1.02
3.8815880906878384
% es.EX (V/m) @ t=1.02
1.198103174547116
% es.EY (V/m) @ t=1.02
0.29025752197179155
% es.EZ (V/m) @ t=1.02
3.680601811993645
% es.tEX (V/m) @ t=1.02
1.1981031745471142
% es.tEY (V/m) @ t=1.02
0
% es.tEZ (V/m) @ t=1.02
3.6806018119936432
% es.Ex (V/m) @ t=1.02
1.198103174547116
% es.Ey (V/m) @ t=1.02
0.29025752197179155
% es.Ez (V/m) @ t=1.02
3.680601811993645
% es.tEx (V/m) @ t=1.02
1.1981031745471142
% es.tEy (V/m) @ t=1.02
0
% es.tEz (V/m) @ t=1.02
3.6806018119936432
% V (V) @ t=1.02
0.018154103583334753
% es.normE (V/m) @ t=1.04
3.916240291222631
% es.EX (V/m) @ t=1.04
1.2087990665303558
% es.EY (V/m) @ t=1.04
0.2928487514967264
% es.EZ (V/m) @ t=1.04
3.7134597307009836
% es.tEX (V/m) @ t=1.04
1.208799066530375
% es.tEY (V/m) @ t=1.04
0
% es.tEZ (V/m) @ t=1.04
3.7134597307009756
% es.Ex (V/m) @ t=1.04
1.2087990665303558
% es.Ey (V/m) @ t=1.04
0.2928487514967264
% es.Ez (V/m) @ t=1.04
3.7134597307009836
% es.tEx (V/m) @ t=1.04
1.208799066530375
% es.tEy (V/m) @ t=1.04
0
% es.tEz (V/m) @ t=1.04
3.7134597307009756