% Model:              1 neuron.mph
% Version:            COMSOL 6.1.0.252
% Date:               Mar 22 2023, 18:21
% Dimension:          0
% Nodes:              14017
% Expressions:        14017
% Description:        Electric field norm, Electric field, X component, Electric field, Y component, Electric field, Z component, Tangential electric field, X component, Tangential electric field, Y component, Tangential electric field, Z component, Electric field, x component, Electric field, y component, Electric field, z component, Tangential electric field, x component, Tangential electric field, y component, Tangential electric field, z component, Electric potential
% Length unit:        mm
% x
1.66
% y
12.200000000000001
% z
1.66
% es.normE (V/m) @ t=0
37.67225475139428
% es.EX (V/m) @ t=0
-17.791009790012524
% es.EY (V/m) @ t=0
14.273894892980593
% es.EZ (V/m) @ t=0
17.110896896517275
% es.tEX (V/m) @ t=0
-17.79100979001248
% es.tEY (V/m) @ t=0
0
% es.tEZ (V/m) @ t=0
17.11089689651726
% es.Ex (V/m) @ t=0
-17.791009790012524
% es.Ey (V/m) @ t=0
14.273894892980593
% es.Ez (V/m) @ t=0
17.110896896517275
% es.tEx (V/m) @ t=0
-17.79100979001248
% es.tEy (V/m) @ t=0
0
% es.tEz (V/m) @ t=0
17.11089689651726
% V (V) @ t=0
0.011823274603601084
% es.normE (V/m) @ t=0.02
32.53789345247142
% es.EX (V/m) @ t=0.02
-15.36626850024006
% es.EY (V/m) @ t=0.02
12.328502087125287
% es.EZ (V/m) @ t=0.02
14.778848333772533
% es.tEX (V/m) @ t=0.02
-15.36626850024004
% es.tEY (V/m) @ t=0.02
0
% es.tEZ (V/m) @ t=0.02
14.778848333772515
% es.Ex (V/m) @ t=0.02
-15.36626850024006
% es.Ey (V/m) @ t=0.02
12.328502087125287
% es.Ez (V/m) @ t=0.02
14.778848333772533
% es.tEx (V/m) @ t=0.02
-15.36626850024004
% es.tEy (V/m) @ t=0.02
0
% es.tEz (V/m) @ t=0.02
14.778848333772515
% V (V) @ t=0.02
0.010211877460314897
% es.normE (V/m) @ t=0.04
32.83720327386201
% es.EX (V/m) @ t=0.04
-15.507620094791136
% es.EY (V/m) @ t=0.04
12.441909671773224
% es.EZ (V/m) @ t=0.04
14.91479579252993
% es.tEX (V/m) @ t=0.04
-15.5076200947911
% es.tEY (V/m) @ t=0.04
0
% es.tEZ (V/m) @ t=0.04
14.914795792529873
% es.Ex (V/m) @ t=0.04
-15.507620094791136
% es.Ey (V/m) @ t=0.04
12.441909671773224
% es.Ez (V/m) @ t=0.04
14.91479579252993
% es.tEx (V/m) @ t=0.04
-15.5076200947911
% es.tEy (V/m) @ t=0.04
0
% es.tEz (V/m) @ t=0.04
14.914795792529873
% V (V) @ t=0.04
0.010305814496137777
% es.normE (V/m) @ t=0.06
33.13866336111383
% es.EX (V/m) @ t=0.06
-15.649987534812425
% es.EY (V/m) @ t=0.06
12.556132082928151
% es.EZ (V/m) @ t=0.06
15.051719431959896
% es.tEX (V/m) @ t=0.06
-15.649987534812382
% es.tEY (V/m) @ t=0.06
0
% es.tEZ (V/m) @ t=0.06
15.051719431959867
% es.Ex (V/m) @ t=0.06
-15.649987534812425
% es.Ey (V/m) @ t=0.06
12.556132082928151
% es.Ez (V/m) @ t=0.06
15.051719431959896
% es.tEx (V/m) @ t=0.06
-15.649987534812382
% es.tEy (V/m) @ t=0.06
0
% es.tEz (V/m) @ t=0.06
15.051719431959867
% V (V) @ t=0.06
0.010400426294624107
% es.normE (V/m) @ t=0.08
33.44597024158091
% es.EX (V/m) @ t=0.08
-15.795115341399296
% es.EY (V/m) @ t=0.08
12.672569604358934
% es.EZ (V/m) @ t=0.08
15.191299791087467
% es.tEX (V/m) @ t=0.08
-15.79511534139931
% es.tEY (V/m) @ t=0.08
0
% es.tEZ (V/m) @ t=0.08
15.191299791087488
% es.Ex (V/m) @ t=0.08
-15.795115341399296
% es.Ey (V/m) @ t=0.08
12.672569604358934
% es.Ez (V/m) @ t=0.08
15.191299791087467
% es.tEx (V/m) @ t=0.08
-15.79511534139931
% es.tEy (V/m) @ t=0.08
0
% es.tEz (V/m) @ t=0.08
15.191299791087488
% V (V) @ t=0.08
0.010496873284820726
% es.normE (V/m) @ t=0.1
33.75475469585841
% es.EX (V/m) @ t=0.1
-15.940940734713536
% es.EY (V/m) @ t=0.1
12.789566917937336
% es.EZ (V/m) @ t=0.1
15.331551543798113
% es.tEX (V/m) @ t=0.1
-15.940940734713521
% es.tEY (V/m) @ t=0.1
0
% es.tEZ (V/m) @ t=0.1
15.331551543798156
% es.Ex (V/m) @ t=0.1
-15.940940734713536
% es.Ey (V/m) @ t=0.1
12.789566917937336
% es.Ez (V/m) @ t=0.1
15.331551543798113
% es.tEx (V/m) @ t=0.1
-15.940940734713521
% es.tEy (V/m) @ t=0.1
0
% es.tEz (V/m) @ t=0.1
15.331551543798156
% V (V) @ t=0.1
0.010593784055949622
% es.normE (V/m) @ t=0.12
34.06353915013594
% es.EX (V/m) @ t=0.12
-16.086766128027776
% es.EY (V/m) @ t=0.12
12.906564231515809
% es.EZ (V/m) @ t=0.12
15.471803296508845
% es.tEX (V/m) @ t=0.12
-16.086766128027733
% es.tEY (V/m) @ t=0.12
0
% es.tEZ (V/m) @ t=0.12
15.471803296508853
% es.Ex (V/m) @ t=0.12
-16.086766128027776
% es.Ey (V/m) @ t=0.12
12.906564231515809
% es.Ez (V/m) @ t=0.12
15.471803296508845
% es.tEx (V/m) @ t=0.12
-16.086766128027733
% es.tEy (V/m) @ t=0.12
0
% es.tEz (V/m) @ t=0.12
15.471803296508853
% V (V) @ t=0.12
0.010690694827078516
% es.normE (V/m) @ t=0.14
34.38162002437906
% es.EX (V/m) @ t=0.14
-16.23698217307701
% es.EY (V/m) @ t=0.14
13.027084020957787
% es.EZ (V/m) @ t=0.14
15.616277068548392
% es.tEX (V/m) @ t=0.14
-16.23698217307701
% es.tEY (V/m) @ t=0.14
0
% es.tEZ (V/m) @ t=0.14
15.616277068548413
% es.Ex (V/m) @ t=0.14
-16.23698217307701
% es.Ey (V/m) @ t=0.14
13.027084020957787
% es.Ez (V/m) @ t=0.14
15.616277068548392
% es.tEx (V/m) @ t=0.14
-16.23698217307701
% es.tEy (V/m) @ t=0.14
0
% es.tEz (V/m) @ t=0.14
15.616277068548413
% V (V) @ t=0.14
0.010790523155269379
% es.normE (V/m) @ t=0.16
34.705827227736066
% es.EX (V/m) @ t=0.16
-16.39009165212046
% es.EY (V/m) @ t=0.16
13.149925117582022
% es.EZ (V/m) @ t=0.16
15.76353314603768
% es.tEX (V/m) @ t=0.16
-16.390091652120482
% es.tEY (V/m) @ t=0.16
0
% es.tEZ (V/m) @ t=0.16
15.763533146037673
% es.Ex (V/m) @ t=0.16
-16.39009165212046
% es.Ey (V/m) @ t=0.16
13.149925117582022
% es.Ez (V/m) @ t=0.16
15.76353314603768
% es.tEx (V/m) @ t=0.16
-16.390091652120482
% es.tEy (V/m) @ t=0.16
0
% es.tEz (V/m) @ t=0.16
15.763533146037673
% V (V) @ t=0.16
0.010892274149909887
% es.normE (V/m) @ t=0.18
35.03003443109302
% es.EX (V/m) @ t=0.18
-16.543201131163812
% es.EY (V/m) @ t=0.18
13.272766214206271
% es.EZ (V/m) @ t=0.18
15.910789223526969
% es.tEX (V/m) @ t=0.18
-16.543201131163833
% es.tEY (V/m) @ t=0.18
0
% es.tEZ (V/m) @ t=0.18
15.91078922352699
% es.Ex (V/m) @ t=0.18
-16.543201131163812
% es.Ey (V/m) @ t=0.18
13.272766214206271
% es.Ez (V/m) @ t=0.18
15.910789223526969
% es.tEx (V/m) @ t=0.18
-16.543201131163833
% es.tEy (V/m) @ t=0.18
0
% es.tEz (V/m) @ t=0.18
15.91078922352699
% V (V) @ t=0.18
0.010994025144550397
% es.normE (V/m) @ t=0.2
35.354241634449984
% es.EX (V/m) @ t=0.2
-16.696310610207263
% es.EY (V/m) @ t=0.2
13.395607310830506
% es.EZ (V/m) @ t=0.2
16.058045301016193
% es.tEX (V/m) @ t=0.2
-16.696310610207277
% es.tEY (V/m) @ t=0.2
0
% es.tEZ (V/m) @ t=0.2
16.058045301016193
% es.Ex (V/m) @ t=0.2
-16.696310610207263
% es.Ey (V/m) @ t=0.2
13.395607310830506
% es.Ez (V/m) @ t=0.2
16.058045301016193
% es.tEx (V/m) @ t=0.2
-16.696310610207277
% es.tEy (V/m) @ t=0.2
0
% es.tEz (V/m) @ t=0.2
16.058045301016193
% V (V) @ t=0.2
0.011095776139190907
% es.normE (V/m) @ t=0.22
35.67844883780689
% es.EX (V/m) @ t=0.22
-16.849420089250714
% es.EY (V/m) @ t=0.22
13.518448407454699
% es.EZ (V/m) @ t=0.22
16.205301378505425
% es.tEX (V/m) @ t=0.22
-16.8494200892507
% es.tEY (V/m) @ t=0.22
0
% es.tEZ (V/m) @ t=0.22
16.205301378505396
% es.Ex (V/m) @ t=0.22
-16.849420089250714
% es.Ey (V/m) @ t=0.22
13.518448407454699
% es.Ez (V/m) @ t=0.22
16.205301378505425
% es.tEx (V/m) @ t=0.22
-16.8494200892507
% es.tEy (V/m) @ t=0.22
0
% es.tEz (V/m) @ t=0.22
16.205301378505396
% V (V) @ t=0.22
0.011197527133831415
% es.normE (V/m) @ t=0.24
36.002656041163824
% es.EX (V/m) @ t=0.24
-17.002529568294108
% es.EY (V/m) @ t=0.24
13.641289504078891
% es.EZ (V/m) @ t=0.24
16.352557455994607
% es.tEX (V/m) @ t=0.24
-17.002529568294058
% es.tEY (V/m) @ t=0.24
0
% es.tEZ (V/m) @ t=0.24
16.3525574559946
% es.Ex (V/m) @ t=0.24
-17.002529568294108
% es.Ey (V/m) @ t=0.24
13.641289504078891
% es.Ez (V/m) @ t=0.24
16.352557455994607
% es.tEx (V/m) @ t=0.24
-17.002529568294058
% es.tEy (V/m) @ t=0.24
0
% es.tEz (V/m) @ t=0.24
16.3525574559946
% V (V) @ t=0.24
0.011299278128471927
% es.normE (V/m) @ t=0.26
36.33418311758069
% es.EX (V/m) @ t=0.26
-17.15909215225571
% es.EY (V/m) @ t=0.26
13.766903071975953
% es.EZ (V/m) @ t=0.26
16.5031431818524
% es.tEX (V/m) @ t=0.26
-17.159092152255695
% es.tEY (V/m) @ t=0.26
0
% es.tEZ (V/m) @ t=0.26
16.50314318185241
% es.Ex (V/m) @ t=0.26
-17.15909215225571
% es.Ey (V/m) @ t=0.26
13.766903071975953
% es.Ez (V/m) @ t=0.26
16.5031431818524
% es.tEx (V/m) @ t=0.26
-17.159092152255695
% es.tEy (V/m) @ t=0.26
0
% es.tEz (V/m) @ t=0.26
16.50314318185241
% V (V) @ t=0.26
0.011403327347735026
% es.normE (V/m) @ t=0.28
36.69295264893897
% es.EX (V/m) @ t=0.28
-17.328506196115583
% es.EY (V/m) @ t=0.28
13.902834977782092
% es.EZ (V/m) @ t=0.28
16.666120897961854
% es.tEX (V/m) @ t=0.28
-17.328506196115583
% es.tEY (V/m) @ t=0.28
0
% es.tEZ (V/m) @ t=0.28
16.666120897961832
% es.Ex (V/m) @ t=0.28
-17.328506196115583
% es.Ey (V/m) @ t=0.28
13.902834977782092
% es.Ez (V/m) @ t=0.28
16.666120897961854
% es.tEx (V/m) @ t=0.28
-17.328506196115583
% es.tEy (V/m) @ t=0.28
0
% es.tEz (V/m) @ t=0.28
16.666120897961832
% V (V) @ t=0.28
0.011515929895748477
% es.normE (V/m) @ t=0.3
37.05172218032162
% es.EX (V/m) @ t=0.3
-17.497920239975443
% es.EY (V/m) @ t=0.3
14.03876688358828
% es.EZ (V/m) @ t=0.3
16.829098614071356
% es.tEX (V/m) @ t=0.3
-17.497920239975464
% es.tEY (V/m) @ t=0.3
0
% es.tEZ (V/m) @ t=0.3
16.829098614071313
% es.Ex (V/m) @ t=0.3
-17.497920239975443
% es.Ey (V/m) @ t=0.3
14.03876688358828
% es.Ez (V/m) @ t=0.3
16.829098614071356
% es.tEx (V/m) @ t=0.3
-17.497920239975464
% es.tEy (V/m) @ t=0.3
0
% es.tEz (V/m) @ t=0.3
16.829098614071313
% V (V) @ t=0.3
0.01162853244376193
% es.normE (V/m) @ t=0.32
37.4104917117278
% es.EX (V/m) @ t=0.32
-17.667334283835288
% es.EY (V/m) @ t=0.32
14.174698789394483
% es.EZ (V/m) @ t=0.32
16.99207633018073
% es.tEX (V/m) @ t=0.32
-17.667334283835324
% es.tEY (V/m) @ t=0.32
0
% es.tEZ (V/m) @ t=0.32
16.992076330180737
% es.Ex (V/m) @ t=0.32
-17.667334283835288
% es.Ey (V/m) @ t=0.32
14.174698789394483
% es.Ez (V/m) @ t=0.32
16.99207633018073
% es.tEx (V/m) @ t=0.32
-17.667334283835324
% es.tEy (V/m) @ t=0.32
0
% es.tEz (V/m) @ t=0.32
16.992076330180737
% V (V) @ t=0.32
0.011741134991775383
% es.normE (V/m) @ t=0.34
37.76926124315691
% es.EX (V/m) @ t=0.34
-17.836748327695204
% es.EY (V/m) @ t=0.34
14.31063069520065
% es.EZ (V/m) @ t=0.34
17.155054046290175
% es.tEX (V/m) @ t=0.34
-17.836748327695204
% es.tEY (V/m) @ t=0.34
0
% es.tEZ (V/m) @ t=0.34
17.155054046290218
% es.Ex (V/m) @ t=0.34
-17.836748327695204
% es.Ey (V/m) @ t=0.34
14.31063069520065
% es.Ez (V/m) @ t=0.34
17.155054046290175
% es.tEx (V/m) @ t=0.34
-17.836748327695204
% es.tEy (V/m) @ t=0.34
0
% es.tEz (V/m) @ t=0.34
17.155054046290218
% V (V) @ t=0.34
0.011853737539788835
% es.normE (V/m) @ t=0.36
38.12803077460844
% es.EX (V/m) @ t=0.36
-18.00616237155512
% es.EY (V/m) @ t=0.36
14.446562601006903
% es.EZ (V/m) @ t=0.36
17.318031762399663
% es.tEX (V/m) @ t=0.36
-18.006162371555085
% es.tEY (V/m) @ t=0.36
0
% es.tEZ (V/m) @ t=0.36
17.3180317623997
% es.Ex (V/m) @ t=0.36
-18.00616237155512
% es.Ey (V/m) @ t=0.36
14.446562601006903
% es.Ez (V/m) @ t=0.36
17.318031762399663
% es.tEx (V/m) @ t=0.36
-18.006162371555085
% es.tEy (V/m) @ t=0.36
0
% es.tEz (V/m) @ t=0.36
17.3180317623997
% V (V) @ t=0.36
0.011966340087802285
% es.normE (V/m) @ t=0.38
38.48680030608149
% es.EX (V/m) @ t=0.38
-18.175576415414966
% es.EY (V/m) @ t=0.38
14.582494506813084
% es.EZ (V/m) @ t=0.38
17.481009478509094
% es.tEX (V/m) @ t=0.38
-18.175576415414945
% es.tEY (V/m) @ t=0.38
0
% es.tEZ (V/m) @ t=0.38
17.481009478509066
% es.Ex (V/m) @ t=0.38
-18.175576415414966
% es.Ey (V/m) @ t=0.38
14.582494506813084
% es.Ez (V/m) @ t=0.38
17.481009478509094
% es.tEx (V/m) @ t=0.38
-18.175576415414945
% es.tEy (V/m) @ t=0.38
0
% es.tEz (V/m) @ t=0.38
17.481009478509066
% V (V) @ t=0.38
0.012078942635815737
% es.normE (V/m) @ t=0.4
38.84556983757565
% es.EX (V/m) @ t=0.4
-18.34499045927484
% es.EY (V/m) @ t=0.4
14.718426412619245
% es.EZ (V/m) @ t=0.4
17.643987194618518
% es.tEX (V/m) @ t=0.4
-18.344990459274825
% es.tEY (V/m) @ t=0.4
0
% es.tEZ (V/m) @ t=0.4
17.64398719461849
% es.Ex (V/m) @ t=0.4
-18.34499045927484
% es.Ey (V/m) @ t=0.4
14.718426412619245
% es.Ez (V/m) @ t=0.4
17.643987194618518
% es.tEx (V/m) @ t=0.4
-18.344990459274825
% es.tEy (V/m) @ t=0.4
0
% es.tEz (V/m) @ t=0.4
17.64398719461849
% V (V) @ t=0.4
0.012191545183829191
% es.normE (V/m) @ t=0.42
39.20433936909014
% es.EX (V/m) @ t=0.42
-18.514404503134728
% es.EY (V/m) @ t=0.42
14.85435831842539
% es.EZ (V/m) @ t=0.42
17.806964910727856
% es.tEX (V/m) @ t=0.42
-18.514404503134685
% es.tEY (V/m) @ t=0.42
0
% es.tEZ (V/m) @ t=0.42
17.806964910727856
% es.Ex (V/m) @ t=0.42
-18.514404503134728
% es.Ey (V/m) @ t=0.42
14.85435831842539
% es.Ez (V/m) @ t=0.42
17.806964910727856
% es.tEx (V/m) @ t=0.42
-18.514404503134685
% es.tEy (V/m) @ t=0.42
0
% es.tEz (V/m) @ t=0.42
17.806964910727856
% V (V) @ t=0.42
0.012304147731842645
% es.normE (V/m) @ t=0.44
39.56310890062475
% es.EX (V/m) @ t=0.44
-18.683818546994573
% es.EY (V/m) @ t=0.44
14.990290224231643
% es.EZ (V/m) @ t=0.44
17.969942626837344
% es.tEX (V/m) @ t=0.44
-18.683818546994573
% es.tEY (V/m) @ t=0.44
0
% es.tEZ (V/m) @ t=0.44
17.969942626837337
% es.Ex (V/m) @ t=0.44
-18.683818546994573
% es.Ey (V/m) @ t=0.44
14.990290224231643
% es.Ez (V/m) @ t=0.44
17.969942626837344
% es.tEx (V/m) @ t=0.44
-18.683818546994573
% es.tEy (V/m) @ t=0.44
0
% es.tEz (V/m) @ t=0.44
17.969942626837337
% V (V) @ t=0.44
0.012416750279856094
% es.normE (V/m) @ t=0.46
39.92187843217872
% es.EX (V/m) @ t=0.46
-18.85323259085449
% es.EY (V/m) @ t=0.46
15.126222130037767
% es.EZ (V/m) @ t=0.46
18.132920342946818
% es.tEX (V/m) @ t=0.46
-18.85323259085446
% es.tEY (V/m) @ t=0.46
0
% es.tEZ (V/m) @ t=0.46
18.132920342946818
% es.Ex (V/m) @ t=0.46
-18.85323259085449
% es.Ey (V/m) @ t=0.46
15.126222130037767
% es.Ez (V/m) @ t=0.46
18.132920342946818
% es.tEx (V/m) @ t=0.46
-18.85323259085446
% es.tEy (V/m) @ t=0.46
0
% es.tEz (V/m) @ t=0.46
18.132920342946818
% V (V) @ t=0.46
0.012529352827869546
% es.normE (V/m) @ t=0.48
40.28064796375145
% es.EX (V/m) @ t=0.48
-19.022646634714278
% es.EY (V/m) @ t=0.48
15.262154035844013
% es.EZ (V/m) @ t=0.48
18.295898059056242
% es.tEX (V/m) @ t=0.48
-19.022646634714313
% es.tEY (V/m) @ t=0.48
0
% es.tEZ (V/m) @ t=0.48
18.295898059056185
% es.Ex (V/m) @ t=0.48
-19.022646634714278
% es.Ey (V/m) @ t=0.48
15.262154035844013
% es.Ez (V/m) @ t=0.48
18.295898059056242
% es.tEx (V/m) @ t=0.48
-19.022646634714313
% es.tEy (V/m) @ t=0.48
0
% es.tEz (V/m) @ t=0.48
18.295898059056185
% V (V) @ t=0.48
0.012641955375883002
% es.normE (V/m) @ t=0.5
40.63941749534254
% es.EX (V/m) @ t=0.5
-19.192060678574165
% es.EY (V/m) @ t=0.5
15.398085941650201
% es.EZ (V/m) @ t=0.5
18.45887577516561
% es.tEX (V/m) @ t=0.5
-19.19206067857416
% es.tEY (V/m) @ t=0.5
0
% es.tEZ (V/m) @ t=0.5
18.458875775165666
% es.Ex (V/m) @ t=0.5
-19.192060678574165
% es.Ey (V/m) @ t=0.5
15.398085941650201
% es.Ez (V/m) @ t=0.5
18.45887577516561
% es.tEx (V/m) @ t=0.5
-19.19206067857416
% es.tEy (V/m) @ t=0.5
0
% es.tEz (V/m) @ t=0.5
18.458875775165666
% V (V) @ t=0.5
0.012754557923896452
% es.normE (V/m) @ t=0.52
41.01477181186401
% es.EX (V/m) @ t=0.52
-19.369314970621943
% es.EY (V/m) @ t=0.52
15.540303894530417
% es.EZ (V/m) @ t=0.52
18.629375937920642
% es.tEX (V/m) @ t=0.52
-19.369314970621915
% es.tEY (V/m) @ t=0.52
0
% es.tEZ (V/m) @ t=0.52
18.6293759379206
% es.Ex (V/m) @ t=0.52
-19.369314970621943
% es.Ey (V/m) @ t=0.52
15.540303894530417
% es.Ez (V/m) @ t=0.52
18.629375937920642
% es.tEx (V/m) @ t=0.52
-19.369314970621915
% es.tEy (V/m) @ t=0.52
0
% es.tEz (V/m) @ t=0.52
18.6293759379206
% V (V) @ t=0.52
0.012872363601326686
% es.normE (V/m) @ t=0.54
41.412127083276516
% es.EX (V/m) @ t=0.54
-19.556969936997717
% es.EY (V/m) @ t=0.54
15.690860757973105
% es.EZ (V/m) @ t=0.54
18.809855187540805
% es.tEX (V/m) @ t=0.54
-19.556969936997703
% es.tEY (V/m) @ t=0.54
0
% es.tEZ (V/m) @ t=0.54
18.80985518754079
% es.Ex (V/m) @ t=0.54
-19.556969936997717
% es.Ey (V/m) @ t=0.54
15.690860757973105
% es.Ez (V/m) @ t=0.54
18.809855187540805
% es.tEx (V/m) @ t=0.54
-19.556969936997703
% es.tEy (V/m) @ t=0.54
0
% es.tEz (V/m) @ t=0.54
18.80985518754079
% V (V) @ t=0.54
0.012997071618230462
% es.normE (V/m) @ t=0.56
41.809482354689415
% es.EX (V/m) @ t=0.56
-19.744624903373364
% es.EY (V/m) @ t=0.56
15.841417621415637
% es.EZ (V/m) @ t=0.56
18.99033443716082
% es.tEX (V/m) @ t=0.56
-19.744624903373378
% es.tEY (V/m) @ t=0.56
0
% es.tEZ (V/m) @ t=0.56
18.99033443716081
% es.Ex (V/m) @ t=0.56
-19.744624903373364
% es.Ey (V/m) @ t=0.56
15.841417621415637
% es.Ez (V/m) @ t=0.56
18.99033443716082
% es.tEx (V/m) @ t=0.56
-19.744624903373378
% es.tEy (V/m) @ t=0.56
0
% es.tEz (V/m) @ t=0.56
18.99033443716081
% V (V) @ t=0.56
0.01312177963513424
% es.normE (V/m) @ t=0.58
42.206837626103095
% es.EX (V/m) @ t=0.58
-19.932279869749053
% es.EY (V/m) @ t=0.58
15.991974484858261
% es.EZ (V/m) @ t=0.58
19.170813686780868
% es.tEX (V/m) @ t=0.58
-19.932279869749024
% es.tEY (V/m) @ t=0.58
0
% es.tEZ (V/m) @ t=0.58
19.17081368678089
% es.Ex (V/m) @ t=0.58
-19.932279869749053
% es.Ey (V/m) @ t=0.58
15.991974484858261
% es.Ez (V/m) @ t=0.58
19.170813686780868
% es.tEx (V/m) @ t=0.58
-19.932279869749024
% es.tEy (V/m) @ t=0.58
0
% es.tEz (V/m) @ t=0.58
19.17081368678089
% V (V) @ t=0.58
0.013246487652038019
% es.normE (V/m) @ t=0.6
42.60419289751747
% es.EX (V/m) @ t=0.6
-20.1199348361247
% es.EY (V/m) @ t=0.6
16.142531348300864
% es.EZ (V/m) @ t=0.6
19.351292936400974
% es.tEX (V/m) @ t=0.6
-20.1199348361247
% es.tEY (V/m) @ t=0.6
0
% es.tEZ (V/m) @ t=0.6
19.351292936401023
% es.Ex (V/m) @ t=0.6
-20.1199348361247
% es.Ey (V/m) @ t=0.6
16.142531348300864
% es.Ez (V/m) @ t=0.6
19.351292936400974
% es.tEx (V/m) @ t=0.6
-20.1199348361247
% es.tEy (V/m) @ t=0.6
0
% es.tEz (V/m) @ t=0.6
19.351292936401023
% V (V) @ t=0.6
0.013371195668941795
% es.normE (V/m) @ t=0.62
43.0015481689324
% es.EX (V/m) @ t=0.62
-20.30758980250046
% es.EY (V/m) @ t=0.62
16.293088211743566
% es.EZ (V/m) @ t=0.62
19.531772186021072
% es.tEX (V/m) @ t=0.62
-20.307589802500416
% es.tEY (V/m) @ t=0.62
0
% es.tEZ (V/m) @ t=0.62
19.5317721860211
% es.Ex (V/m) @ t=0.62
-20.30758980250046
% es.Ey (V/m) @ t=0.62
16.293088211743566
% es.Ez (V/m) @ t=0.62
19.531772186021072
% es.tEx (V/m) @ t=0.62
-20.307589802500416
% es.tEy (V/m) @ t=0.62
0
% es.tEz (V/m) @ t=0.62
19.5317721860211
% V (V) @ t=0.62
0.013495903685845571
% es.normE (V/m) @ t=0.64
43.39890344034784
% es.EX (V/m) @ t=0.64
-20.495244768876077
% es.EY (V/m) @ t=0.64
16.44364507518612
% es.EZ (V/m) @ t=0.64
19.712251435641093
% es.tEX (V/m) @ t=0.64
-20.49524476887609
% es.tEY (V/m) @ t=0.64
0
% es.tEZ (V/m) @ t=0.64
19.71225143564112
% es.Ex (V/m) @ t=0.64
-20.495244768876077
% es.Ey (V/m) @ t=0.64
16.44364507518612
% es.Ez (V/m) @ t=0.64
19.712251435641093
% es.tEx (V/m) @ t=0.64
-20.49524476887609
% es.tEy (V/m) @ t=0.64
0
% es.tEz (V/m) @ t=0.64
19.71225143564112
% V (V) @ t=0.64
0.013620611702749351
% es.normE (V/m) @ t=0.66
43.796258711764
% es.EX (V/m) @ t=0.66
-20.682899735251794
% es.EY (V/m) @ t=0.66
16.594201938628835
% es.EZ (V/m) @ t=0.66
19.892730685261213
% es.tEX (V/m) @ t=0.66
-20.68289973525178
% es.tEY (V/m) @ t=0.66
0
% es.tEZ (V/m) @ t=0.66
19.8927306852612
% es.Ex (V/m) @ t=0.66
-20.682899735251794
% es.Ey (V/m) @ t=0.66
16.594201938628835
% es.Ez (V/m) @ t=0.66
19.892730685261213
% es.tEx (V/m) @ t=0.66
-20.68289973525178
% es.tEy (V/m) @ t=0.66
0
% es.tEz (V/m) @ t=0.66
19.8927306852612
% V (V) @ t=0.66
0.013745319719653131
% es.normE (V/m) @ t=0.68
44.193613983180626
% es.EX (V/m) @ t=0.68
-20.870554701627498
% es.EY (V/m) @ t=0.68
16.74475880207143
% es.EZ (V/m) @ t=0.68
20.073209934881262
% es.tEX (V/m) @ t=0.68
-20.870554701627483
% es.tEY (V/m) @ t=0.68
0
% es.tEZ (V/m) @ t=0.68
20.073209934881334
% es.Ex (V/m) @ t=0.68
-20.870554701627498
% es.Ey (V/m) @ t=0.68
16.74475880207143
% es.Ez (V/m) @ t=0.68
20.073209934881262
% es.tEx (V/m) @ t=0.68
-20.870554701627483
% es.tEy (V/m) @ t=0.68
0
% es.tEz (V/m) @ t=0.68
20.073209934881334
% V (V) @ t=0.68
0.013870027736556904
% es.normE (V/m) @ t=0.7
44.59096925459788
% es.EX (V/m) @ t=0.7
-21.05820966800323
% es.EY (V/m) @ t=0.7
16.89531566551407
% es.EZ (V/m) @ t=0.7
20.253689184501425
% es.tEX (V/m) @ t=0.7
-21.058209668003215
% es.tEY (V/m) @ t=0.7
0
% es.tEZ (V/m) @ t=0.7
20.25368918450141
% es.Ex (V/m) @ t=0.7
-21.05820966800323
% es.Ey (V/m) @ t=0.7
16.89531566551407
% es.Ez (V/m) @ t=0.7
20.253689184501425
% es.tEx (V/m) @ t=0.7
-21.058209668003215
% es.tEy (V/m) @ t=0.7
0
% es.tEz (V/m) @ t=0.7
20.25368918450141
% V (V) @ t=0.7
0.013994735753460684
% es.normE (V/m) @ t=0.72
44.98832452601551
% es.EX (V/m) @ t=0.72
-21.24586463437886
% es.EY (V/m) @ t=0.72
17.04587252895668
% es.EZ (V/m) @ t=0.72
20.434168434121474
% es.tEX (V/m) @ t=0.72
-21.245864634378826
% es.tEY (V/m) @ t=0.72
0
% es.tEZ (V/m) @ t=0.72
20.434168434121432
% es.Ex (V/m) @ t=0.72
-21.24586463437886
% es.Ey (V/m) @ t=0.72
17.04587252895668
% es.Ez (V/m) @ t=0.72
20.434168434121474
% es.tEx (V/m) @ t=0.72
-21.245864634378826
% es.tEy (V/m) @ t=0.72
0
% es.tEz (V/m) @ t=0.72
20.434168434121432
% V (V) @ t=0.72
0.014119443770364459
% es.normE (V/m) @ t=0.74
45.385679797433724
% es.EX (V/m) @ t=0.74
-21.43351960075455
% es.EY (V/m) @ t=0.74
17.19642939239929
% es.EZ (V/m) @ t=0.74
20.614647683741538
% es.tEX (V/m) @ t=0.74
-21.433519600754543
% es.tEY (V/m) @ t=0.74
0
% es.tEZ (V/m) @ t=0.74
20.61464768374151
% es.Ex (V/m) @ t=0.74
-21.43351960075455
% es.Ey (V/m) @ t=0.74
17.19642939239929
% es.Ez (V/m) @ t=0.74
20.614647683741538
% es.tEx (V/m) @ t=0.74
-21.433519600754543
% es.tEy (V/m) @ t=0.74
0
% es.tEz (V/m) @ t=0.74
20.61464768374151
% V (V) @ t=0.74
0.01424415178726824
% es.normE (V/m) @ t=0.76
45.78303506885253
% es.EX (V/m) @ t=0.76
-21.621174567130225
% es.EY (V/m) @ t=0.76
17.34698625584202
% es.EZ (V/m) @ t=0.76
20.795126933361615
% es.tEX (V/m) @ t=0.76
-21.621174567130225
% es.tEY (V/m) @ t=0.76
0
% es.tEZ (V/m) @ t=0.76
20.795126933361587
% es.Ex (V/m) @ t=0.76
-21.621174567130225
% es.Ey (V/m) @ t=0.76
17.34698625584202
% es.Ez (V/m) @ t=0.76
20.795126933361615
% es.tEx (V/m) @ t=0.76
-21.621174567130225
% es.tEy (V/m) @ t=0.76
0
% es.tEz (V/m) @ t=0.76
20.795126933361587
% V (V) @ t=0.76
0.014368859804172015
% es.normE (V/m) @ t=0.78
46.20873565996089
% es.EX (V/m) @ t=0.78
-21.82220081463788
% es.EY (V/m) @ t=0.78
17.508279057776747
% es.EZ (V/m) @ t=0.78
20.988500429995213
% es.tEX (V/m) @ t=0.78
-21.822200814637853
% es.tEY (V/m) @ t=0.78
0
% es.tEZ (V/m) @ t=0.78
20.988500429995213
% es.Ex (V/m) @ t=0.78
-21.82220081463788
% es.Ey (V/m) @ t=0.78
17.508279057776747
% es.Ez (V/m) @ t=0.78
20.988500429995213
% es.tEx (V/m) @ t=0.78
-21.822200814637853
% es.tEy (V/m) @ t=0.78
0
% es.tEz (V/m) @ t=0.78
20.988500429995213
% V (V) @ t=0.78
0.014502467525795999
% es.normE (V/m) @ t=0.8
46.649844157969284
% es.EX (V/m) @ t=0.8
-22.030495403331614
% es.EY (V/m) @ t=0.8
17.67540768525037
% es.EZ (V/m) @ t=0.8
21.188882962315567
% es.tEX (V/m) @ t=0.8
-22.030495403331685
% es.tEY (V/m) @ t=0.8
0
% es.tEZ (V/m) @ t=0.8
21.188882962315574
% es.Ex (V/m) @ t=0.8
-22.030495403331614
% es.Ey (V/m) @ t=0.8
17.67540768525037
% es.Ez (V/m) @ t=0.8
21.188882962315567
% es.tEx (V/m) @ t=0.8
-22.030495403331685
% es.tEy (V/m) @ t=0.8
0
% es.tEz (V/m) @ t=0.8
21.188882962315574
% V (V) @ t=0.8
0.014640912935725569
% es.normE (V/m) @ t=0.82
47.090952656002806
% es.EX (V/m) @ t=0.82
-22.238789992025474
% es.EY (V/m) @ t=0.82
17.842536312723922
% es.EZ (V/m) @ t=0.82
21.389265494636042
% es.tEX (V/m) @ t=0.82
-22.238789992025474
% es.tEY (V/m) @ t=0.82
0
% es.tEZ (V/m) @ t=0.82
21.38926549463605
% es.Ex (V/m) @ t=0.82
-22.238789992025474
% es.Ey (V/m) @ t=0.82
17.842536312723922
% es.Ez (V/m) @ t=0.82
21.389265494636042
% es.tEx (V/m) @ t=0.82
-22.238789992025474
% es.tEy (V/m) @ t=0.82
0
% es.tEz (V/m) @ t=0.82
21.38926549463605
% V (V) @ t=0.82
0.014779358345655136
% es.normE (V/m) @ t=0.84
47.5320611540607
% es.EX (V/m) @ t=0.84
-22.447084580719263
% es.EY (V/m) @ t=0.84
18.009664940197524
% es.EZ (V/m) @ t=0.84
21.589648026956546
% es.tEX (V/m) @ t=0.84
-22.447084580719277
% es.tEY (V/m) @ t=0.84
0
% es.tEZ (V/m) @ t=0.84
21.589648026956525
% es.Ex (V/m) @ t=0.84
-22.447084580719263
% es.Ey (V/m) @ t=0.84
18.009664940197524
% es.Ez (V/m) @ t=0.84
21.589648026956546
% es.tEx (V/m) @ t=0.84
-22.447084580719277
% es.tEy (V/m) @ t=0.84
0
% es.tEz (V/m) @ t=0.84
21.589648026956525
% V (V) @ t=0.84
0.014917803755584703
% es.normE (V/m) @ t=0.86
47.97316965214212
% es.EX (V/m) @ t=0.86
-22.655379169413052
% es.EY (V/m) @ t=0.86
18.17679356767114
% es.EZ (V/m) @ t=0.86
21.790030559277042
% es.tEX (V/m) @ t=0.86
-22.655379169413067
% es.tEY (V/m) @ t=0.86
0
% es.tEZ (V/m) @ t=0.86
21.790030559277056
% es.Ex (V/m) @ t=0.86
-22.655379169413052
% es.Ey (V/m) @ t=0.86
18.17679356767114
% es.Ez (V/m) @ t=0.86
21.790030559277042
% es.tEx (V/m) @ t=0.86
-22.655379169413067
% es.tEy (V/m) @ t=0.86
0
% es.tEz (V/m) @ t=0.86
21.790030559277056
% V (V) @ t=0.86
0.015056249165514271
% es.normE (V/m) @ t=0.88
48.41427815024656
% es.EX (V/m) @ t=0.88
-22.863673758106856
% es.EY (V/m) @ t=0.88
18.343922195144664
% es.EZ (V/m) @ t=0.88
21.990413091597496
% es.tEX (V/m) @ t=0.88
-22.863673758106856
% es.tEY (V/m) @ t=0.88
0
% es.tEZ (V/m) @ t=0.88
21.990413091597475
% es.Ex (V/m) @ t=0.88
-22.863673758106856
% es.Ey (V/m) @ t=0.88
18.343922195144664
% es.Ez (V/m) @ t=0.88
21.990413091597496
% es.tEx (V/m) @ t=0.88
-22.863673758106856
% es.tEy (V/m) @ t=0.88
0
% es.tEz (V/m) @ t=0.88
21.990413091597475
% V (V) @ t=0.88
0.01519469457544384
% es.normE (V/m) @ t=0.9
48.85538664837337
% es.EX (V/m) @ t=0.9
-23.071968346800688
% es.EY (V/m) @ t=0.9
18.51105082261826
% es.EZ (V/m) @ t=0.9
22.190795623917957
% es.tEX (V/m) @ t=0.9
-23.07196834680066
% es.tEY (V/m) @ t=0.9
0
% es.tEZ (V/m) @ t=0.9
22.190795623918007
% es.Ex (V/m) @ t=0.9
-23.071968346800688
% es.Ey (V/m) @ t=0.9
18.51105082261826
% es.Ez (V/m) @ t=0.9
22.190795623917957
% es.tEx (V/m) @ t=0.9
-23.07196834680066
% es.tEy (V/m) @ t=0.9
0
% es.tEz (V/m) @ t=0.9
22.190795623918007
% V (V) @ t=0.9
0.015333139985373409
% es.normE (V/m) @ t=0.92
49.29649514652195
% es.EX (V/m) @ t=0.92
-23.280262935494505
% es.EY (V/m) @ t=0.92
18.678179450091896
% es.EZ (V/m) @ t=0.92
22.391178156238432
% es.tEX (V/m) @ t=0.92
-23.28026293549449
% es.tEY (V/m) @ t=0.92
0
% es.tEZ (V/m) @ t=0.92
22.391178156238425
% es.Ex (V/m) @ t=0.92
-23.280262935494505
% es.Ey (V/m) @ t=0.92
18.678179450091896
% es.Ez (V/m) @ t=0.92
22.391178156238432
% es.tEx (V/m) @ t=0.92
-23.28026293549449
% es.tEy (V/m) @ t=0.92
0
% es.tEz (V/m) @ t=0.92
22.391178156238425
% V (V) @ t=0.92
0.015471585395302977
% es.normE (V/m) @ t=0.94
49.737603644691724
% es.EX (V/m) @ t=0.94
-23.48855752418828
% es.EY (V/m) @ t=0.94
18.84530807756545
% es.EZ (V/m) @ t=0.94
22.591560688558936
% es.tEX (V/m) @ t=0.94
-23.488557524188252
% es.tEY (V/m) @ t=0.94
0
% es.tEZ (V/m) @ t=0.94
22.591560688558957
% es.Ex (V/m) @ t=0.94
-23.48855752418828
% es.Ey (V/m) @ t=0.94
18.84530807756545
% es.Ez (V/m) @ t=0.94
22.591560688558936
% es.tEx (V/m) @ t=0.94
-23.488557524188252
% es.tEy (V/m) @ t=0.94
0
% es.tEz (V/m) @ t=0.94
22.591560688558957
% V (V) @ t=0.94
0.015610030805232544
% es.normE (V/m) @ t=0.96
50.178712142882105
% es.EX (V/m) @ t=0.96
-23.696852112882112
% es.EY (V/m) @ t=0.96
19.012436705039
% es.EZ (V/m) @ t=0.96
22.791943220879325
% es.tEX (V/m) @ t=0.96
-23.69685211288207
% es.tEY (V/m) @ t=0.96
0
% es.tEZ (V/m) @ t=0.96
22.79194322087932
% es.Ex (V/m) @ t=0.96
-23.696852112882112
% es.Ey (V/m) @ t=0.96
19.012436705039
% es.Ez (V/m) @ t=0.96
22.791943220879325
% es.tEx (V/m) @ t=0.96
-23.69685211288207
% es.tEy (V/m) @ t=0.96
0
% es.tEz (V/m) @ t=0.96
22.79194322087932
% V (V) @ t=0.96
0.015748476215162115
% es.normE (V/m) @ t=0.98
50.61982064109266
% es.EX (V/m) @ t=0.98
-23.9051467015759
% es.EY (V/m) @ t=0.98
19.179565332512638
% es.EZ (V/m) @ t=0.98
22.992325753199886
% es.tEX (V/m) @ t=0.98
-23.905146701575873
% es.tEY (V/m) @ t=0.98
0
% es.tEZ (V/m) @ t=0.98
22.992325753199907
% es.Ex (V/m) @ t=0.98
-23.9051467015759
% es.Ey (V/m) @ t=0.98
19.179565332512638
% es.Ez (V/m) @ t=0.98
22.992325753199886
% es.tEx (V/m) @ t=0.98
-23.905146701575873
% es.tEy (V/m) @ t=0.98
0
% es.tEz (V/m) @ t=0.98
22.992325753199907
% V (V) @ t=0.98
0.015886921625091678
% es.normE (V/m) @ t=1
51.06092913932263
% es.EX (V/m) @ t=1
-24.11344129026969
% es.EY (V/m) @ t=1
19.346693959986162
% es.EZ (V/m) @ t=1
23.192708285520297
% es.tEX (V/m) @ t=1
-24.11344129026969
% es.tEY (V/m) @ t=1
0
% es.tEZ (V/m) @ t=1
23.19270828552027
% es.Ex (V/m) @ t=1
-24.11344129026969
% es.Ey (V/m) @ t=1
19.346693959986162
% es.Ez (V/m) @ t=1
23.192708285520297
% es.tEx (V/m) @ t=1
-24.11344129026969
% es.tEy (V/m) @ t=1
0
% es.tEz (V/m) @ t=1
23.19270828552027
% V (V) @ t=1
0.01602536703502125
% es.normE (V/m) @ t=1.02
51.50203763757169
% es.EX (V/m) @ t=1.02
-24.321735878963437
% es.EY (V/m) @ t=1.02
19.513822587459728
% es.EZ (V/m) @ t=1.02
23.39309081784075
% es.tEX (V/m) @ t=1.02
-24.321735878963388
% es.tEY (V/m) @ t=1.02
0
% es.tEZ (V/m) @ t=1.02
23.393090817840744
% es.Ex (V/m) @ t=1.02
-24.321735878963437
% es.Ey (V/m) @ t=1.02
19.513822587459728
% es.Ez (V/m) @ t=1.02
23.39309081784075
% es.tEx (V/m) @ t=1.02
-24.321735878963388
% es.tEy (V/m) @ t=1.02
0
% es.tEz (V/m) @ t=1.02
23.393090817840744
% V (V) @ t=1.02
0.01616381244495082
% es.normE (V/m) @ t=1.04
51.961617768799
% es.EX (V/m) @ t=1.04
-24.53876674445634
% es.EY (V/m) @ t=1.04
19.68795350515206
% es.EZ (V/m) @ t=1.04
23.601846320941902
% es.tEX (V/m) @ t=1.04
-24.53876674445636
% es.tEY (V/m) @ t=1.04
0
% es.tEZ (V/m) @ t=1.04
23.60184632094183
% es.Ex (V/m) @ t=1.04
-24.53876674445634
% es.Ey (V/m) @ t=1.04
19.68795350515206
% es.Ez (V/m) @ t=1.04
23.601846320941902