% Model:              1 neuron.mph
% Version:            COMSOL 6.1.0.252
% Date:               Mar 22 2023, 18:12
% Dimension:          0
% Nodes:              14017
% Expressions:        14017
% Description:        Electric field norm, Electric field, X component, Electric field, Y component, Electric field, Z component, Tangential electric field, X component, Tangential electric field, Y component, Tangential electric field, Z component, Electric field, x component, Electric field, y component, Electric field, z component, Tangential electric field, x component, Tangential electric field, y component, Tangential electric field, z component, Electric potential
% Length unit:        mm
% x
1.33
% y
12.2
% z
2
% es.normE (V/m) @ t=0
2.6494393147054467
% es.EX (V/m) @ t=0
1.0559024417402019
% es.EY (V/m) @ t=0
0.2791614228576931
% es.EZ (V/m) @ t=0
-2.411706483752683
% es.tEX (V/m) @ t=0
1.0559024417402023
% es.tEY (V/m) @ t=0
0
% es.tEZ (V/m) @ t=0
-2.4117064837526883
% es.Ex (V/m) @ t=0
1.0559024417402019
% es.Ey (V/m) @ t=0
0.2791614228576931
% es.Ez (V/m) @ t=0
-2.411706483752683
% es.tEx (V/m) @ t=0
1.0559024417402023
% es.tEy (V/m) @ t=0
0
% es.tEz (V/m) @ t=0
-2.4117064837526883
% V (V) @ t=0
0.013247431484954874
% es.normE (V/m) @ t=0.02
2.2883483816667143
% es.EX (V/m) @ t=0.02
0.9119939568538618
% es.EY (V/m) @ t=0.02
0.24111463392219257
% es.EZ (V/m) @ t=0.02
-2.0830160548923535
% es.tEX (V/m) @ t=0.02
0.9119939568538622
% es.tEY (V/m) @ t=0.02
0
% es.tEZ (V/m) @ t=0.02
-2.0830160548923633
% es.Ex (V/m) @ t=0.02
0.9119939568538618
% es.Ey (V/m) @ t=0.02
0.24111463392219257
% es.Ez (V/m) @ t=0.02
-2.0830160548923535
% es.tEx (V/m) @ t=0.02
0.9119939568538622
% es.tEy (V/m) @ t=0.02
0
% es.tEz (V/m) @ t=0.02
-2.0830160548923633
% V (V) @ t=0.02
0.011441944797637582
% es.normE (V/m) @ t=0.04
2.30940037892191
% es.EX (V/m) @ t=0.04
0.9203839777579588
% es.EY (V/m) @ t=0.04
0.2433328021961314
% es.EZ (V/m) @ t=0.04
-2.102179068009601
% es.tEX (V/m) @ t=0.04
0.9203839777579521
% es.tEY (V/m) @ t=0.04
0
% es.tEZ (V/m) @ t=0.04
-2.1021790680096046
% es.Ex (V/m) @ t=0.04
0.9203839777579588
% es.Ey (V/m) @ t=0.04
0.2433328021961314
% es.Ez (V/m) @ t=0.04
-2.102179068009601
% es.tEx (V/m) @ t=0.04
0.9203839777579521
% es.tEy (V/m) @ t=0.04
0
% es.tEz (V/m) @ t=0.04
-2.1021790680096046
% V (V) @ t=0.04
0.011547206729504577
% es.normE (V/m) @ t=0.06
2.330604522630873
% es.EX (V/m) @ t=0.06
0.9288346336500615
% es.EY (V/m) @ t=0.06
0.24556700063058212
% es.EZ (V/m) @ t=0.06
-2.121480576149068
% es.tEX (V/m) @ t=0.06
0.9288346336500619
% es.tEY (V/m) @ t=0.06
0
% es.tEZ (V/m) @ t=0.06
-2.121480576149075
% es.Ex (V/m) @ t=0.06
0.9288346336500615
% es.Ey (V/m) @ t=0.06
0.24556700063058212
% es.Ez (V/m) @ t=0.06
-2.121480576149068
% es.tEx (V/m) @ t=0.06
0.9288346336500619
% es.tEy (V/m) @ t=0.06
0
% es.tEz (V/m) @ t=0.06
-2.121480576149075
% V (V) @ t=0.06
0.011653229467691626
% es.normE (V/m) @ t=0.08
2.3522179509852186
% es.EX (V/m) @ t=0.08
0.9374484002417116
% es.EY (V/m) @ t=0.08
0.247844319969742
% es.EZ (V/m) @ t=0.08
-2.141154646474675
% es.tEX (V/m) @ t=0.08
0.9374484002417085
% es.tEY (V/m) @ t=0.08
0
% es.tEZ (V/m) @ t=0.08
-2.141154646474682
% es.Ex (V/m) @ t=0.08
0.9374484002417116
% es.Ey (V/m) @ t=0.08
0.247844319969742
% es.Ez (V/m) @ t=0.08
-2.141154646474675
% es.tEx (V/m) @ t=0.08
0.9374484002417085
% es.tEy (V/m) @ t=0.08
0
% es.tEz (V/m) @ t=0.08
-2.141154646474682
% V (V) @ t=0.08
0.011761298913248015
% es.normE (V/m) @ t=0.1
2.373937413326268
% es.EX (V/m) @ t=0.1
0.9461044241668348
% es.EY (V/m) @ t=0.1
0.2501328107063072
% es.EZ (V/m) @ t=0.1
-2.1609252370444185
% es.tEX (V/m) @ t=0.1
0.9461044241668315
% es.tEY (V/m) @ t=0.1
0
% es.tEZ (V/m) @ t=0.1
-2.1609252370444185
% es.Ex (V/m) @ t=0.1
0.9461044241668348
% es.Ey (V/m) @ t=0.1
0.2501328107063072
% es.Ez (V/m) @ t=0.1
-2.1609252370444185
% es.tEx (V/m) @ t=0.1
0.9461044241668315
% es.tEy (V/m) @ t=0.1
0
% es.tEz (V/m) @ t=0.1
-2.1609252370444185
% V (V) @ t=0.1
0.011869898602351232
% es.normE (V/m) @ t=0.12
2.395656875667324
% es.EX (V/m) @ t=0.12
0.9547604480919478
% es.EY (V/m) @ t=0.12
0.2524213014428911
% es.EZ (V/m) @ t=0.12
-2.180695827614172
% es.tEX (V/m) @ t=0.12
0.9547604480919483
% es.tEY (V/m) @ t=0.12
0
% es.tEZ (V/m) @ t=0.12
-2.1806958276141746
% es.Ex (V/m) @ t=0.12
0.9547604480919478
% es.Ey (V/m) @ t=0.12
0.2524213014428911
% es.Ez (V/m) @ t=0.12
-2.180695827614172
% es.tEx (V/m) @ t=0.12
0.9547604480919483
% es.tEy (V/m) @ t=0.12
0
% es.tEz (V/m) @ t=0.12
-2.1806958276141746
% V (V) @ t=0.12
0.011978498291454445
% es.normE (V/m) @ t=0.14
2.418022544352426
% es.EX (V/m) @ t=0.14
0.9636740209306707
% es.EY (V/m) @ t=0.14
0.25477788941889123
% es.EZ (V/m) @ t=0.14
-2.201054635143283
% es.tEX (V/m) @ t=0.14
0.9636740209306711
% es.tEY (V/m) @ t=0.14
0
% es.tEZ (V/m) @ t=0.14
-2.201054635143283
% es.Ex (V/m) @ t=0.14
0.9636740209306707
% es.Ey (V/m) @ t=0.14
0.25477788941889123
% es.Ez (V/m) @ t=0.14
-2.201054635143283
% es.tEx (V/m) @ t=0.14
0.9636740209306711
% es.tEy (V/m) @ t=0.14
0
% es.tEz (V/m) @ t=0.14
-2.201054635143283
% V (V) @ t=0.14
0.012090328498502109
% es.normE (V/m) @ t=0.16
2.440828576923809
% es.EX (V/m) @ t=0.16
0.9727631030963151
% es.EY (V/m) @ t=0.16
0.25718088295136443
% es.EZ (V/m) @ t=0.16
-2.2218142891026282
% es.tEX (V/m) @ t=0.16
0.9727631030963151
% es.tEY (V/m) @ t=0.16
0
% es.tEZ (V/m) @ t=0.16
-2.221814289102639
% es.Ex (V/m) @ t=0.16
0.9727631030963151
% es.Ey (V/m) @ t=0.16
0.25718088295136443
% es.Ez (V/m) @ t=0.16
-2.2218142891026282
% es.tEx (V/m) @ t=0.16
0.9727631030963151
% es.tEy (V/m) @ t=0.16
0
% es.tEz (V/m) @ t=0.16
-2.221814289102639
% V (V) @ t=0.16
0.012204360174863522
% es.normE (V/m) @ t=0.18
2.463634609495214
% es.EX (V/m) @ t=0.18
0.9818521852619813
% es.EY (V/m) @ t=0.18
0.25958387648382697
% es.EZ (V/m) @ t=0.18
-2.2425739430619878
% es.tEX (V/m) @ t=0.18
0.9818521852619888
% es.tEY (V/m) @ t=0.18
0
% es.tEZ (V/m) @ t=0.18
-2.242573943061995
% es.Ex (V/m) @ t=0.18
0.9818521852619813
% es.Ey (V/m) @ t=0.18
0.25958387648382697
% es.Ez (V/m) @ t=0.18
-2.2425739430619878
% es.tEx (V/m) @ t=0.18
0.9818521852619888
% es.tEy (V/m) @ t=0.18
0
% es.tEz (V/m) @ t=0.18
-2.242573943061995
% V (V) @ t=0.18
0.01231839185122494
% es.normE (V/m) @ t=0.2
2.486440642066597
% es.EX (V/m) @ t=0.2
0.9909412674276394
% es.EY (V/m) @ t=0.2
0.26198687001629484
% es.EZ (V/m) @ t=0.2
-2.263333597021326
% es.tEX (V/m) @ t=0.2
0.9909412674276394
% es.tEY (V/m) @ t=0.2
0
% es.tEZ (V/m) @ t=0.2
-2.2633335970213295
% es.Ex (V/m) @ t=0.2
0.9909412674276394
% es.Ey (V/m) @ t=0.2
0.26198687001629484
% es.Ez (V/m) @ t=0.2
-2.263333597021326
% es.tEx (V/m) @ t=0.2
0.9909412674276394
% es.tEy (V/m) @ t=0.2
0
% es.tEz (V/m) @ t=0.2
-2.2633335970213295
% V (V) @ t=0.2
0.012432423527586351
% es.normE (V/m) @ t=0.22
2.50924667463799
% es.EX (V/m) @ t=0.22
1.000030349593298
% es.EY (V/m) @ t=0.22
0.26438986354875027
% es.EZ (V/m) @ t=0.22
-2.2840932509806784
% es.tEX (V/m) @ t=0.22
1.000030349593298
% es.tEY (V/m) @ t=0.22
0
% es.tEZ (V/m) @ t=0.22
-2.284093250980682
% es.Ex (V/m) @ t=0.22
1.000030349593298
% es.Ey (V/m) @ t=0.22
0.26438986354875027
% es.Ez (V/m) @ t=0.22
-2.2840932509806784
% es.tEx (V/m) @ t=0.22
1.000030349593298
% es.tEy (V/m) @ t=0.22
0
% es.tEz (V/m) @ t=0.22
-2.284093250980682
% V (V) @ t=0.22
0.012546455203947766
% es.normE (V/m) @ t=0.24
2.5320527072093646
% es.EX (V/m) @ t=0.24
1.009119431758935
% es.EY (V/m) @ t=0.24
0.2667928570812359
% es.EZ (V/m) @ t=0.24
-2.304852904940015
% es.tEX (V/m) @ t=0.24
1.0091194317589354
% es.tEY (V/m) @ t=0.24
0
% es.tEZ (V/m) @ t=0.24
-2.3048529049400273
% es.Ex (V/m) @ t=0.24
1.009119431758935
% es.Ey (V/m) @ t=0.24
0.2667928570812359
% es.Ez (V/m) @ t=0.24
-2.304852904940015
% es.tEx (V/m) @ t=0.24
1.0091194317589354
% es.tEy (V/m) @ t=0.24
0
% es.tEz (V/m) @ t=0.24
-2.3048529049400273
% V (V) @ t=0.24
0.012660486880309178
% es.normE (V/m) @ t=0.26
2.5553334738078513
% es.EX (V/m) @ t=0.26
1.0183976535272135
% es.EY (V/m) @ t=0.26
0.2692458232725299
% es.EZ (V/m) @ t=0.26
-2.326044725710309
% es.tEX (V/m) @ t=0.26
1.018397653527214
% es.tEY (V/m) @ t=0.26
0
% es.tEZ (V/m) @ t=0.26
-2.326044725710318
% es.Ex (V/m) @ t=0.26
1.0183976535272135
% es.Ey (V/m) @ t=0.26
0.2692458232725299
% es.Ez (V/m) @ t=0.26
-2.326044725710309
% es.tEx (V/m) @ t=0.26
1.018397653527214
% es.tEy (V/m) @ t=0.26
0
% es.tEz (V/m) @ t=0.26
-2.326044725710318
% V (V) @ t=0.26
0.012776895358241672
% es.normE (V/m) @ t=0.28
2.5805654378817175
% es.EX (V/m) @ t=0.28
1.0284532552472805
% es.EY (V/m) @ t=0.28
0.2719041813680061
% es.EZ (V/m) @ t=0.28
-2.3490127890550045
% es.tEX (V/m) @ t=0.28
1.028453255247281
% es.tEY (V/m) @ t=0.28
0
% es.tEZ (V/m) @ t=0.28
-2.34901278905501
% es.Ex (V/m) @ t=0.28
1.0284532552472805
% es.Ey (V/m) @ t=0.28
0.2719041813680061
% es.Ez (V/m) @ t=0.28
-2.3490127890550045
% es.tEx (V/m) @ t=0.28
1.028453255247281
% es.tEy (V/m) @ t=0.28
0
% es.tEz (V/m) @ t=0.28
-2.34901278905501
% V (V) @ t=0.28
0.012903072694019245
% es.normE (V/m) @ t=0.3
2.6057974019556567
% es.EX (V/m) @ t=0.3
1.0385088569673475
% es.EY (V/m) @ t=0.3
0.2745625394634761
% es.EZ (V/m) @ t=0.3
-2.3719808523997
% es.tEX (V/m) @ t=0.3
1.038508856967348
% es.tEY (V/m) @ t=0.3
0
% es.tEZ (V/m) @ t=0.3
-2.3719808523997052
% es.Ex (V/m) @ t=0.3
1.0385088569673475
% es.Ey (V/m) @ t=0.3
0.2745625394634761
% es.Ez (V/m) @ t=0.3
-2.3719808523997
% es.tEx (V/m) @ t=0.3
1.038508856967348
% es.tEy (V/m) @ t=0.3
0
% es.tEz (V/m) @ t=0.3
-2.3719808523997052
% V (V) @ t=0.3
0.013029250029796824
% es.normE (V/m) @ t=0.32
2.631029366029651
% es.EX (V/m) @ t=0.32
1.0485644586873852
% es.EY (V/m) @ t=0.32
0.2772208975589594
% es.EZ (V/m) @ t=0.32
-2.394948915744388
% es.tEX (V/m) @ t=0.32
1.0485644586873857
% es.tEY (V/m) @ t=0.32
0
% es.tEZ (V/m) @ t=0.32
-2.39494891574439
% es.Ex (V/m) @ t=0.32
1.0485644586873852
% es.Ey (V/m) @ t=0.32
0.2772208975589594
% es.Ez (V/m) @ t=0.32
-2.394948915744388
% es.tEx (V/m) @ t=0.32
1.0485644586873857
% es.tEy (V/m) @ t=0.32
0
% es.tEz (V/m) @ t=0.32
-2.39494891574439
% V (V) @ t=0.32
0.013155427365574398
% es.normE (V/m) @ t=0.34
2.6562613301037388
% es.EX (V/m) @ t=0.34
1.0586200604074665
% es.EY (V/m) @ t=0.34
0.2798792556544365
% es.EZ (V/m) @ t=0.34
-2.4179169790890835
% es.tEX (V/m) @ t=0.34
1.058620060407467
% es.tEY (V/m) @ t=0.34
0
% es.tEZ (V/m) @ t=0.34
-2.417916979089089
% es.Ex (V/m) @ t=0.34
1.0586200604074665
% es.Ey (V/m) @ t=0.34
0.2798792556544365
% es.Ez (V/m) @ t=0.34
-2.4179169790890835
% es.tEx (V/m) @ t=0.34
1.058620060407467
% es.tEy (V/m) @ t=0.34
0
% es.tEz (V/m) @ t=0.34
-2.417916979089089
% V (V) @ t=0.34
0.013281604701351975
% es.normE (V/m) @ t=0.36
2.6814932941778826
% es.EX (V/m) @ t=0.36
1.0686756621275406
% es.EY (V/m) @ t=0.36
0.2825376137498923
% es.EZ (V/m) @ t=0.36
-2.440885042433772
% es.tEX (V/m) @ t=0.36
1.068675662127534
% es.tEY (V/m) @ t=0.36
0
% es.tEZ (V/m) @ t=0.36
-2.4408850424337807
% es.Ex (V/m) @ t=0.36
1.0686756621275406
% es.Ey (V/m) @ t=0.36
0.2825376137498923
% es.Ez (V/m) @ t=0.36
-2.440885042433772
% es.tEx (V/m) @ t=0.36
1.068675662127534
% es.tEy (V/m) @ t=0.36
0
% es.tEz (V/m) @ t=0.36
-2.4408850424337807
% V (V) @ t=0.36
0.013407782037129551
% es.normE (V/m) @ t=0.38
2.706725258252102
% es.EX (V/m) @ t=0.38
1.0787312638475934
% es.EY (V/m) @ t=0.38
0.2851959718453907
% es.EZ (V/m) @ t=0.38
-2.4638531057784743
% es.tEX (V/m) @ t=0.38
1.078731263847601
% es.tEY (V/m) @ t=0.38
0
% es.tEZ (V/m) @ t=0.38
-2.463853105778476
% es.Ex (V/m) @ t=0.38
1.0787312638475934
% es.Ey (V/m) @ t=0.38
0.2851959718453907
% es.Ez (V/m) @ t=0.38
-2.4638531057784743
% es.tEx (V/m) @ t=0.38
1.078731263847601
% es.tEy (V/m) @ t=0.38
0
% es.tEz (V/m) @ t=0.38
-2.463853105778476
% V (V) @ t=0.38
0.013533959372907127
% es.normE (V/m) @ t=0.4
2.7319572223263773
% es.EX (V/m) @ t=0.4
1.0887868655676827
% es.EY (V/m) @ t=0.4
0.2878543299408287
% es.EZ (V/m) @ t=0.4
-2.486821169123159
% es.tEX (V/m) @ t=0.4
1.0887868655676831
% es.tEY (V/m) @ t=0.4
0
% es.tEZ (V/m) @ t=0.4
-2.4868211691231608
% es.Ex (V/m) @ t=0.4
1.0887868655676827
% es.Ey (V/m) @ t=0.4
0.2878543299408287
% es.Ez (V/m) @ t=0.4
-2.486821169123159
% es.tEx (V/m) @ t=0.4
1.0887868655676831
% es.tEy (V/m) @ t=0.4
0
% es.tEz (V/m) @ t=0.4
-2.4868211691231608
% V (V) @ t=0.4
0.013660136708684703
% es.normE (V/m) @ t=0.42
2.757189186400705
% es.EX (V/m) @ t=0.42
1.0988424672877275
% es.EY (V/m) @ t=0.42
0.2905126880362996
% es.EZ (V/m) @ t=0.42
-2.5097892324678472
% es.tEX (V/m) @ t=0.42
1.0988424672877208
% es.tEY (V/m) @ t=0.42
0
% es.tEZ (V/m) @ t=0.42
-2.5097892324678526
% es.Ex (V/m) @ t=0.42
1.0988424672877275
% es.Ey (V/m) @ t=0.42
0.2905126880362996
% es.Ez (V/m) @ t=0.42
-2.5097892324678472
% es.tEx (V/m) @ t=0.42
1.0988424672877208
% es.tEy (V/m) @ t=0.42
0
% es.tEz (V/m) @ t=0.42
-2.5097892324678526
% V (V) @ t=0.42
0.013786314044462279
% es.normE (V/m) @ t=0.44
2.7824211504751193
% es.EX (V/m) @ t=0.44
1.1088980690078158
% es.EY (V/m) @ t=0.44
0.2931710461317625
% es.EZ (V/m) @ t=0.44
-2.532757295812546
% es.tEX (V/m) @ t=0.44
1.1088980690078163
% es.tEY (V/m) @ t=0.44
0
% es.tEZ (V/m) @ t=0.44
-2.532757295812555
% es.Ex (V/m) @ t=0.44
1.1088980690078158
% es.Ey (V/m) @ t=0.44
0.2931710461317625
% es.Ez (V/m) @ t=0.44
-2.532757295812546
% es.tEx (V/m) @ t=0.44
1.1088980690078163
% es.tEy (V/m) @ t=0.44
0
% es.tEz (V/m) @ t=0.44
-2.532757295812555
% V (V) @ t=0.44
0.013912491380239854
% es.normE (V/m) @ t=0.46
2.8076531145495744
% es.EX (V/m) @ t=0.46
1.1189536707278687
% es.EY (V/m) @ t=0.46
0.29582940422724757
% es.EZ (V/m) @ t=0.46
-2.555725359157238
% es.tEX (V/m) @ t=0.46
1.118953670727869
% es.tEY (V/m) @ t=0.46
0
% es.tEZ (V/m) @ t=0.46
-2.5557253591572398
% es.Ex (V/m) @ t=0.46
1.1189536707278687
% es.Ey (V/m) @ t=0.46
0.29582940422724757
% es.Ez (V/m) @ t=0.46
-2.555725359157238
% es.tEx (V/m) @ t=0.46
1.118953670727869
% es.tEy (V/m) @ t=0.46
0
% es.tEz (V/m) @ t=0.46
-2.5557253591572398
% V (V) @ t=0.46
0.014038668716017432
% es.normE (V/m) @ t=0.48
2.8328850786240958
% es.EX (V/m) @ t=0.48
1.1290092724479353
% es.EY (V/m) @ t=0.48
0.2984877623227318
% es.EZ (V/m) @ t=0.48
-2.5786934225019333
% es.tEX (V/m) @ t=0.48
1.1290092724479353
% es.tEY (V/m) @ t=0.48
0
% es.tEZ (V/m) @ t=0.48
-2.5786934225019387
% es.Ex (V/m) @ t=0.48
1.1290092724479353
% es.Ey (V/m) @ t=0.48
0.2984877623227318
% es.Ez (V/m) @ t=0.48
-2.5786934225019333
% es.tEx (V/m) @ t=0.48
1.1290092724479353
% es.tEy (V/m) @ t=0.48
0
% es.tEz (V/m) @ t=0.48
-2.5786934225019387
% V (V) @ t=0.48
0.014164846051795008
% es.normE (V/m) @ t=0.5
2.858117042698674
% es.EX (V/m) @ t=0.5
1.1390648741680098
% es.EY (V/m) @ t=0.5
0.3011461204182089
% es.EZ (V/m) @ t=0.5
-2.601661485846625
% es.tEX (V/m) @ t=0.5
1.1390648741680032
% es.tEY (V/m) @ t=0.5
0
% es.tEZ (V/m) @ t=0.5
-2.6016614858466305
% es.Ex (V/m) @ t=0.5
1.1390648741680098
% es.Ey (V/m) @ t=0.5
0.3011461204182089
% es.Ez (V/m) @ t=0.5
-2.601661485846625
% es.tEx (V/m) @ t=0.5
1.1390648741680032
% es.tEy (V/m) @ t=0.5
0
% es.tEz (V/m) @ t=0.5
-2.6016614858466305
% V (V) @ t=0.5
0.014291023387572583
% es.normE (V/m) @ t=0.52
2.88443356477495
% es.EX (V/m) @ t=0.52
1.1495526822861692
% es.EY (V/m) @ t=0.52
0.3039187291824872
% es.EZ (V/m) @ t=0.52
-2.625616806211495
% es.tEX (V/m) @ t=0.52
1.1495526822861626
% es.tEY (V/m) @ t=0.52
0
% es.tEZ (V/m) @ t=0.52
-2.6256168062115
% es.Ex (V/m) @ t=0.52
1.1495526822861692
% es.Ey (V/m) @ t=0.52
0.3039187291824872
% es.Ez (V/m) @ t=0.52
-2.625616806211495
% es.tEx (V/m) @ t=0.52
1.1495526822861626
% es.tEy (V/m) @ t=0.52
0
% es.tEz (V/m) @ t=0.52
-2.6256168062115
% V (V) @ t=0.52
0.014422625214954816
% es.normE (V/m) @ t=0.54
2.912393071376883
% es.EX (V/m) @ t=0.54
1.160695234938839
% es.EY (V/m) @ t=0.54
0.3068644149796649
% es.EZ (V/m) @ t=0.54
-2.651067710956772
% es.tEX (V/m) @ t=0.54
1.1606952349388466
% es.tEY (V/m) @ t=0.54
0
% es.tEZ (V/m) @ t=0.54
-2.6510677109567773
% es.Ex (V/m) @ t=0.54
1.160695234938839
% es.Ey (V/m) @ t=0.54
0.3068644149796649
% es.Ez (V/m) @ t=0.54
-2.651067710956772
% es.tEx (V/m) @ t=0.54
1.1606952349388466
% es.tEy (V/m) @ t=0.54
0
% es.tEz (V/m) @ t=0.54
-2.6510677109567773
% V (V) @ t=0.54
0.01456244454269388
% es.normE (V/m) @ t=0.56
2.9403525779788957
% es.EX (V/m) @ t=0.56
1.1718377875914663
% es.EY (V/m) @ t=0.56
0.3098101007768559
% es.EZ (V/m) @ t=0.56
-2.6765186157020597
% es.tEX (V/m) @ t=0.56
1.1718377875914596
% es.tEY (V/m) @ t=0.56
0
% es.tEZ (V/m) @ t=0.56
-2.676518615702072
% es.Ex (V/m) @ t=0.56
1.1718377875914663
% es.Ey (V/m) @ t=0.56
0.3098101007768559
% es.Ez (V/m) @ t=0.56
-2.6765186157020597
% es.tEx (V/m) @ t=0.56
1.1718377875914596
% es.tEy (V/m) @ t=0.56
0
% es.tEz (V/m) @ t=0.56
-2.676518615702072
% V (V) @ t=0.56
0.01470226387043295
% es.normE (V/m) @ t=0.58
2.968312084580991
% es.EX (V/m) @ t=0.58
1.182980340244114
% es.EY (V/m) @ t=0.58
0.3127557865740309
% es.EZ (V/m) @ t=0.58
-2.7019695204473404
% es.tEX (V/m) @ t=0.58
1.1829803402441144
% es.tEY (V/m) @ t=0.58
0
% es.tEZ (V/m) @ t=0.58
-2.701969520447335
% es.Ex (V/m) @ t=0.58
1.182980340244114
% es.Ey (V/m) @ t=0.58
0.3127557865740309
% es.Ez (V/m) @ t=0.58
-2.7019695204473404
% es.tEx (V/m) @ t=0.58
1.1829803402441144
% es.tEy (V/m) @ t=0.58
0
% es.tEz (V/m) @ t=0.58
-2.701969520447335
% V (V) @ t=0.58
0.01484208319817201
% es.normE (V/m) @ t=0.6
2.996271591183189
% es.EX (V/m) @ t=0.6
1.1941228928967909
% es.EY (V/m) @ t=0.6
0.31570147237121127
% es.EZ (V/m) @ t=0.6
-2.7274204251926317
% es.tEX (V/m) @ t=0.6
1.1941228928967842
% es.tEY (V/m) @ t=0.6
0
% es.tEZ (V/m) @ t=0.6
-2.727420425192637
% es.Ex (V/m) @ t=0.6
1.1941228928967909
% es.Ey (V/m) @ t=0.6
0.31570147237121127
% es.Ez (V/m) @ t=0.6
-2.7274204251926317
% es.tEx (V/m) @ t=0.6
1.1941228928967842
% es.tEy (V/m) @ t=0.6
0
% es.tEz (V/m) @ t=0.6
-2.727420425192637
% V (V) @ t=0.6
0.014981902525911079
% es.normE (V/m) @ t=0.62
3.0242310977854543
% es.EX (V/m) @ t=0.62
1.2052654455494394
% es.EY (V/m) @ t=0.62
0.3186471581683925
% es.EZ (V/m) @ t=0.62
-2.752871329937923
% es.tEX (V/m) @ t=0.62
1.2052654455494398
% es.tEY (V/m) @ t=0.62
0
% es.tEZ (V/m) @ t=0.62
-2.752871329937932
% es.Ex (V/m) @ t=0.62
1.2052654455494394
% es.Ey (V/m) @ t=0.62
0.3186471581683925
% es.Ez (V/m) @ t=0.62
-2.752871329937923
% es.tEx (V/m) @ t=0.62
1.2052654455494398
% es.tEy (V/m) @ t=0.62
0
% es.tEz (V/m) @ t=0.62
-2.752871329937932
% V (V) @ t=0.62
0.015121721853650145
% es.normE (V/m) @ t=0.64
3.0521906043877776
% es.EX (V/m) @ t=0.64
1.216407998202087
% es.EY (V/m) @ t=0.64
0.3215928439655631
% es.EZ (V/m) @ t=0.64
-2.7783222346831966
% es.tEX (V/m) @ t=0.64
1.2164079982020803
% es.tEY (V/m) @ t=0.64
0
% es.tEZ (V/m) @ t=0.64
-2.778322234683195
% es.Ex (V/m) @ t=0.64
1.216407998202087
% es.Ey (V/m) @ t=0.64
0.3215928439655631
% es.Ez (V/m) @ t=0.64
-2.7783222346831966
% es.tEx (V/m) @ t=0.64
1.2164079982020803
% es.tEy (V/m) @ t=0.64
0
% es.tEz (V/m) @ t=0.64
-2.778322234683195
% V (V) @ t=0.64
0.01526154118138921
% es.normE (V/m) @ t=0.66
3.0801501109901723
% es.EX (V/m) @ t=0.66
1.2275505508547204
% es.EY (V/m) @ t=0.66
0.32453852976276654
% es.EZ (V/m) @ t=0.66
-2.80377313942847
% es.tEX (V/m) @ t=0.66
1.2275505508547209
% es.tEY (V/m) @ t=0.66
0
% es.tEZ (V/m) @ t=0.66
-2.803773139428479
% es.Ex (V/m) @ t=0.66
1.2275505508547204
% es.Ey (V/m) @ t=0.66
0.32453852976276654
% es.Ez (V/m) @ t=0.66
-2.80377313942847
% es.tEx (V/m) @ t=0.66
1.2275505508547209
% es.tEy (V/m) @ t=0.66
0
% es.tEz (V/m) @ t=0.66
-2.803773139428479
% V (V) @ t=0.66
0.015401360509128274
% es.normE (V/m) @ t=0.68
3.1081096175926692
% es.EX (V/m) @ t=0.68
1.2386931035073903
% es.EY (V/m) @ t=0.68
0.3274842155599291
% es.EZ (V/m) @ t=0.68
-2.829224044173765
% es.tEX (V/m) @ t=0.68
1.2386931035073907
% es.tEY (V/m) @ t=0.68
0
% es.tEZ (V/m) @ t=0.68
-2.829224044173774
% es.Ex (V/m) @ t=0.68
1.2386931035073903
% es.Ey (V/m) @ t=0.68
0.3274842155599291
% es.Ez (V/m) @ t=0.68
-2.829224044173765
% es.tEx (V/m) @ t=0.68
1.2386931035073907
% es.tEy (V/m) @ t=0.68
0
% es.tEz (V/m) @ t=0.68
-2.829224044173774
% V (V) @ t=0.68
0.015541179836867342
% es.normE (V/m) @ t=0.7
3.136069124195214
% es.EX (V/m) @ t=0.7
1.2498356561600308
% es.EY (V/m) @ t=0.7
0.33042990135711126
% es.EZ (V/m) @ t=0.7
-2.8546749489190457
% es.tEX (V/m) @ t=0.7
1.2498356561600312
% es.tEY (V/m) @ t=0.7
0
% es.tEZ (V/m) @ t=0.7
-2.854674948919051
% es.Ex (V/m) @ t=0.7
1.2498356561600308
% es.Ey (V/m) @ t=0.7
0.33042990135711126
% es.Ez (V/m) @ t=0.7
-2.8546749489190457
% es.tEx (V/m) @ t=0.7
1.2498356561600312
% es.tEy (V/m) @ t=0.7
0
% es.tEz (V/m) @ t=0.7
-2.854674948919051
% V (V) @ t=0.7
0.015680999164606406
% es.normE (V/m) @ t=0.72
3.1640286307978363
% es.EX (V/m) @ t=0.72
1.2609782088126864
% es.EY (V/m) @ t=0.72
0.33337558715429605
% es.EZ (V/m) @ t=0.72
-2.88012585366433
% es.tEX (V/m) @ t=0.72
1.2609782088126869
% es.tEY (V/m) @ t=0.72
0
% es.tEZ (V/m) @ t=0.72
-2.880125853664339
% es.Ex (V/m) @ t=0.72
1.2609782088126864
% es.Ey (V/m) @ t=0.72
0.33337558715429605
% es.Ez (V/m) @ t=0.72
-2.88012585366433
% es.tEx (V/m) @ t=0.72
1.2609782088126869
% es.tEy (V/m) @ t=0.72
0
% es.tEz (V/m) @ t=0.72
-2.880125853664339
% V (V) @ t=0.72
0.01582081849234547
% es.normE (V/m) @ t=0.74
3.191988137400506
% es.EX (V/m) @ t=0.74
1.272120761465327
% es.EY (V/m) @ t=0.74
0.3363212729514782
% es.EZ (V/m) @ t=0.74
-2.9055767584096
% es.tEX (V/m) @ t=0.74
1.2721207614653274
% es.tEY (V/m) @ t=0.74
0
% es.tEZ (V/m) @ t=0.74
-2.9055767584096017
% es.Ex (V/m) @ t=0.74
1.272120761465327
% es.Ey (V/m) @ t=0.74
0.3363212729514782
% es.Ez (V/m) @ t=0.74
-2.9055767584096
% es.tEx (V/m) @ t=0.74
1.2721207614653274
% es.tEy (V/m) @ t=0.74
0
% es.tEz (V/m) @ t=0.74
-2.9055767584096017
% V (V) @ t=0.74
0.015960637820084538
% es.normE (V/m) @ t=0.76
3.219947644003267
% es.EX (V/m) @ t=0.76
1.28326331411799
% es.EY (V/m) @ t=0.76
0.3392669587486443
% es.EZ (V/m) @ t=0.76
-2.9310276631548913
% es.tEX (V/m) @ t=0.76
1.2832633141179839
% es.tEY (V/m) @ t=0.76
0
% es.tEZ (V/m) @ t=0.76
-2.9310276631549037
% es.Ex (V/m) @ t=0.76
1.28326331411799
% es.Ey (V/m) @ t=0.76
0.3392669587486443
% es.Ez (V/m) @ t=0.76
-2.9310276631548913
% es.tEx (V/m) @ t=0.76
1.2832633141179839
% es.tEy (V/m) @ t=0.76
0
% es.tEz (V/m) @ t=0.76
-2.9310276631549037
% V (V) @ t=0.76
0.016100457147823606
% es.normE (V/m) @ t=0.78
3.2497488367744047
% es.EX (V/m) @ t=0.78
1.295139943996991
% es.EY (V/m) @ t=0.78
0.34240677263283903
% es.EZ (V/m) @ t=0.78
-2.9581549522442554
% es.tEX (V/m) @ t=0.78
1.2951399439969915
% es.tEY (V/m) @ t=0.78
0
% es.tEZ (V/m) @ t=0.78
-2.9581549522442607
% es.Ex (V/m) @ t=0.78
1.295139943996991
% es.Ey (V/m) @ t=0.78
0.34240677263283903
% es.Ez (V/m) @ t=0.78
-2.9581549522442554
% es.tEx (V/m) @ t=0.78
1.2951399439969915
% es.tEy (V/m) @ t=0.78
0
% es.tEz (V/m) @ t=0.78
-2.9581549522442607
% V (V) @ t=0.78
0.016249480171185552
% es.normE (V/m) @ t=0.8
3.2807800092828336
% es.EX (V/m) @ t=0.8
1.3075068311899263
% es.EY (V/m) @ t=0.8
0.3456762359749721
% es.EZ (V/m) @ t=0.8
-2.9864018233832486
% es.tEX (V/m) @ t=0.8
1.3075068311899267
% es.tEY (V/m) @ t=0.8
0
% es.tEZ (V/m) @ t=0.8
-2.986401823383254
% es.Ex (V/m) @ t=0.8
1.3075068311899263
% es.Ey (V/m) @ t=0.8
0.3456762359749721
% es.Ez (V/m) @ t=0.8
-2.9864018233832486
% es.tEx (V/m) @ t=0.8
1.3075068311899267
% es.tEy (V/m) @ t=0.8
0
% es.tEz (V/m) @ t=0.8
-2.986401823383254
% V (V) @ t=0.8
0.016404649930793287
% es.normE (V/m) @ t=0.82
3.311811181791292
% es.EX (V/m) @ t=0.82
1.31987371838289
% es.EY (V/m) @ t=0.82
0.34894569931709984
% es.EZ (V/m) @ t=0.82
-3.014648694522249
% es.tEX (V/m) @ t=0.82
1.3198737183828904
% es.tEY (V/m) @ t=0.82
0
% es.tEZ (V/m) @ t=0.82
-3.014648694522254
% es.Ex (V/m) @ t=0.82
1.31987371838289
% es.Ey (V/m) @ t=0.82
0.34894569931709984
% es.Ez (V/m) @ t=0.82
-3.014648694522249
% es.tEx (V/m) @ t=0.82
1.3198737183828904
% es.tEy (V/m) @ t=0.82
0
% es.tEz (V/m) @ t=0.82
-3.014648694522254
% V (V) @ t=0.82
0.016559819690401018
% es.normE (V/m) @ t=0.84
3.3428423542997434
% es.EX (V/m) @ t=0.84
1.3322406055758518
% es.EY (V/m) @ t=0.84
0.3522151626592196
% es.EZ (V/m) @ t=0.84
-3.0428955656612313
% es.tEX (V/m) @ t=0.84
1.3322406055758522
% es.tEY (V/m) @ t=0.84
0
% es.tEZ (V/m) @ t=0.84
-3.0428955656612366
% es.Ex (V/m) @ t=0.84
1.3322406055758518
% es.Ey (V/m) @ t=0.84
0.3522151626592196
% es.Ez (V/m) @ t=0.84
-3.0428955656612313
% es.tEx (V/m) @ t=0.84
1.3322406055758522
% es.tEy (V/m) @ t=0.84
0
% es.tEz (V/m) @ t=0.84
-3.0428955656612366
% V (V) @ t=0.84
0.01671498945000875
% es.normE (V/m) @ t=0.86
3.3738735268082034
% es.EX (V/m) @ t=0.86
1.3446074927687879
% es.EY (V/m) @ t=0.86
0.35548462600134734
% es.EZ (V/m) @ t=0.86
-3.071142436800221
% es.tEX (V/m) @ t=0.86
1.3446074927687883
% es.tEY (V/m) @ t=0.86
0
% es.tEZ (V/m) @ t=0.86
-3.0711424368002262
% es.Ex (V/m) @ t=0.86
1.3446074927687879
% es.Ey (V/m) @ t=0.86
0.35548462600134734
% es.Ez (V/m) @ t=0.86
-3.071142436800221
% es.tEx (V/m) @ t=0.86
1.3446074927687883
% es.tEy (V/m) @ t=0.86
0
% es.tEz (V/m) @ t=0.86
-3.0711424368002262
% V (V) @ t=0.86
0.016870159209616487
% es.normE (V/m) @ t=0.88
3.404904699316687
% es.EX (V/m) @ t=0.88
1.3569743799617364
% es.EY (V/m) @ t=0.88
0.3587540893435195
% es.EZ (V/m) @ t=0.88
-3.099389307939214
% es.tEX (V/m) @ t=0.88
1.3569743799617369
% es.tEY (V/m) @ t=0.88
0
% es.tEZ (V/m) @ t=0.88
-3.099389307939223
% es.Ex (V/m) @ t=0.88
1.3569743799617364
% es.Ey (V/m) @ t=0.88
0.3587540893435195
% es.Ez (V/m) @ t=0.88
-3.099389307939214
% es.tEx (V/m) @ t=0.88
1.3569743799617369
% es.tEy (V/m) @ t=0.88
0
% es.tEz (V/m) @ t=0.88
-3.099389307939223
% V (V) @ t=0.88
0.017025328969224218
% es.normE (V/m) @ t=0.9
3.435935871825155
% es.EX (V/m) @ t=0.9
1.3693412671546645
% es.EY (V/m) @ t=0.9
0.3620235526856419
% es.EZ (V/m) @ t=0.9
-3.127636179078193
% es.tEX (V/m) @ t=0.9
1.3693412671546579
% es.tEY (V/m) @ t=0.9
0
% es.tEZ (V/m) @ t=0.9
-3.127636179078202
% es.Ex (V/m) @ t=0.9
1.3693412671546645
% es.Ey (V/m) @ t=0.9
0.3620235526856419
% es.Ez (V/m) @ t=0.9
-3.127636179078193
% es.tEx (V/m) @ t=0.9
1.3693412671546579
% es.tEy (V/m) @ t=0.9
0
% es.tEz (V/m) @ t=0.9
-3.127636179078202
% V (V) @ t=0.9
0.017180498728831952
% es.normE (V/m) @ t=0.92
3.4669670443336518
% es.EX (V/m) @ t=0.92
1.381708154347621
% es.EY (V/m) @ t=0.92
0.3652930160277732
% es.EZ (V/m) @ t=0.92
-3.155883050217179
% es.tEX (V/m) @ t=0.92
1.3817081543476215
% es.tEY (V/m) @ t=0.92
0
% es.tEZ (V/m) @ t=0.92
-3.155883050217188
% es.Ex (V/m) @ t=0.92
1.381708154347621
% es.Ey (V/m) @ t=0.92
0.3652930160277732
% es.Ez (V/m) @ t=0.92
-3.155883050217179
% es.tEx (V/m) @ t=0.92
1.3817081543476215
% es.tEy (V/m) @ t=0.92
0
% es.tEz (V/m) @ t=0.92
-3.155883050217188
% V (V) @ t=0.92
0.017335668488439683
% es.normE (V/m) @ t=0.94
3.4979982168421495
% es.EX (V/m) @ t=0.94
1.394075041540555
% es.EY (V/m) @ t=0.94
0.3685624793699285
% es.EZ (V/m) @ t=0.94
-3.1841299213561616
% es.tEX (V/m) @ t=0.94
1.3940750415405558
% es.tEY (V/m) @ t=0.94
0
% es.tEZ (V/m) @ t=0.94
-3.1841299213561705
% es.Ex (V/m) @ t=0.94
1.394075041540555
% es.Ey (V/m) @ t=0.94
0.3685624793699285
% es.Ez (V/m) @ t=0.94
-3.1841299213561616
% es.tEx (V/m) @ t=0.94
1.3940750415405558
% es.tEy (V/m) @ t=0.94
0
% es.tEz (V/m) @ t=0.94
-3.1841299213561705
% V (V) @ t=0.94
0.01749083824804742
% es.normE (V/m) @ t=0.96
3.5290293893506792
% es.EX (V/m) @ t=0.96
1.4064419287335048
% es.EY (V/m) @ t=0.96
0.3718319427120562
% es.EZ (V/m) @ t=0.96
-3.2123767924951654
% es.tEX (V/m) @ t=0.96
1.4064419287335053
% es.tEY (V/m) @ t=0.96
0
% es.tEZ (V/m) @ t=0.96
-3.212376792495167
% es.Ex (V/m) @ t=0.96
1.4064419287335048
% es.Ey (V/m) @ t=0.96
0.3718319427120562
% es.Ez (V/m) @ t=0.96
-3.2123767924951654
% es.tEx (V/m) @ t=0.96
1.4064419287335053
% es.tEy (V/m) @ t=0.96
0
% es.tEz (V/m) @ t=0.96
-3.212376792495167
% V (V) @ t=0.96
0.017646008007655152
% es.normE (V/m) @ t=0.98
3.5600605618592156
% es.EX (V/m) @ t=0.98
1.4188088159264605
% es.EY (V/m) @ t=0.98
0.37510140605418574
% es.EZ (V/m) @ t=0.98
-3.240623663634162
% es.tEX (V/m) @ t=0.98
1.4188088159264538
% es.tEY (V/m) @ t=0.98
0
% es.tEZ (V/m) @ t=0.98
-3.240623663634164
% es.Ex (V/m) @ t=0.98
1.4188088159264605
% es.Ey (V/m) @ t=0.98
0.37510140605418574
% es.Ez (V/m) @ t=0.98
-3.240623663634162
% es.tEx (V/m) @ t=0.98
1.4188088159264538
% es.tEy (V/m) @ t=0.98
0
% es.tEz (V/m) @ t=0.98
-3.240623663634164
% V (V) @ t=0.98
0.017801177767262887
% es.normE (V/m) @ t=1
3.591091734367753
% es.EX (V/m) @ t=1
1.4311757031194028
% es.EY (V/m) @ t=1
0.3783708693963259
% es.EZ (V/m) @ t=1
-3.2688705347731553
% es.tEX (V/m) @ t=1
1.4311757031194032
% es.tEY (V/m) @ t=1
0
% es.tEZ (V/m) @ t=1
-3.268870534773157
% es.Ex (V/m) @ t=1
1.4311757031194028
% es.Ey (V/m) @ t=1
0.3783708693963259
% es.Ez (V/m) @ t=1
-3.2688705347731553
% es.tEx (V/m) @ t=1
1.4311757031194032
% es.tEy (V/m) @ t=1
0
% es.tEz (V/m) @ t=1
-3.268870534773157
% V (V) @ t=1
0.017956347526870618
% es.normE (V/m) @ t=1.02
3.6221229068763066
% es.EX (V/m) @ t=1.02
1.4435425903123655
% es.EY (V/m) @ t=1.02
0.3816403327384448
% es.EZ (V/m) @ t=1.02
-3.29711740591215
% es.tEX (V/m) @ t=1.02
1.443542590312366
% es.tEY (V/m) @ t=1.02
0
% es.tEZ (V/m) @ t=1.02
-3.297117405912161
% es.Ex (V/m) @ t=1.02
1.4435425903123655
% es.Ey (V/m) @ t=1.02
0.3816403327384448
% es.Ez (V/m) @ t=1.02
-3.29711740591215
% es.tEx (V/m) @ t=1.02
1.443542590312366
% es.tEy (V/m) @ t=1.02
0
% es.tEz (V/m) @ t=1.02
-3.297117405912161
% V (V) @ t=1.02
0.018111517286478356
% es.normE (V/m) @ t=1.04
3.6543591693346533
% es.EX (V/m) @ t=1.04
1.456389952091961
% es.EY (V/m) @ t=1.04
0.38503693306846376
% es.EZ (V/m) @ t=1.04
-3.3264611332753518
% es.tEX (V/m) @ t=1.04
1.4563899520919614
% es.tEY (V/m) @ t=1.04
0
% es.tEZ (V/m) @ t=1.04
-3.326461133275366
% es.Ex (V/m) @ t=1.04
1.456389952091961
% es.Ey (V/m) @ t=1.04
0.38503693306846376
% es.Ez (V/m) @ t=1.04