% Model:              1 neuron.mph
% Version:            COMSOL 6.1.0.252
% Date:               Mar 22 2023, 18:06
% Dimension:          0
% Nodes:              14017
% Expressions:        14017
% Description:        Electric field norm, Electric field, X component, Electric field, Y component, Electric field, Z component, Tangential electric field, X component, Tangential electric field, Y component, Tangential electric field, Z component, Electric field, x component, Electric field, y component, Electric field, z component, Tangential electric field, x component, Tangential electric field, y component, Tangential electric field, z component, Electric potential
% Length unit:        mm
% x
1
% y
12.2
% z
1.6599999999999997
% es.normE (V/m) @ t=0
2.9279421159399996
% es.EX (V/m) @ t=0
2.6211217312084245
% es.EY (V/m) @ t=0
0.100848860210764
% es.EZ (V/m) @ t=0
-1.3009209416298133
% es.tEX (V/m) @ t=0
2.621121731208426
% es.tEY (V/m) @ t=0
0
% es.tEZ (V/m) @ t=0
-1.3009209416297978
% es.Ex (V/m) @ t=0
2.6211217312084245
% es.Ey (V/m) @ t=0
0.100848860210764
% es.Ez (V/m) @ t=0
-1.3009209416298133
% es.tEx (V/m) @ t=0
2.621121731208426
% es.tEy (V/m) @ t=0
0
% es.tEz (V/m) @ t=0
-1.3009209416297978
% V (V) @ t=0
0.013284049774229366
% es.normE (V/m) @ t=0.02
2.5288902532400903
% es.EX (V/m) @ t=0.02
2.2638866946906058
% es.EY (V/m) @ t=0.02
0.0871040787696239
% es.EZ (V/m) @ t=0.02
-1.123617256823183
% es.tEX (V/m) @ t=0.02
2.2638866946906093
% es.tEY (V/m) @ t=0.02
0
% es.tEZ (V/m) @ t=0.02
-1.1236172568231808
% es.Ex (V/m) @ t=0.02
2.2638866946906058
% es.Ey (V/m) @ t=0.02
0.0871040787696239
% es.Ez (V/m) @ t=0.02
-1.123617256823183
% es.tEx (V/m) @ t=0.02
2.2638866946906093
% es.tEy (V/m) @ t=0.02
0
% es.tEz (V/m) @ t=0.02
-1.1236172568231808
% V (V) @ t=0.02
0.011473554675437116
% es.normE (V/m) @ t=0.04
2.552151141714128
% es.EX (V/m) @ t=0.04
2.2847100641269753
% es.EY (V/m) @ t=0.04
0.08790526752178934
% es.EZ (V/m) @ t=0.04
-1.1339523575585952
% es.tEX (V/m) @ t=0.04
2.28471006412697
% es.tEY (V/m) @ t=0.04
0
% es.tEZ (V/m) @ t=0.04
-1.1339523575585986
% es.Ex (V/m) @ t=0.04
2.2847100641269753
% es.Ey (V/m) @ t=0.04
0.08790526752178934
% es.Ez (V/m) @ t=0.04
-1.1339523575585952
% es.tEx (V/m) @ t=0.04
2.28471006412697
% es.tEy (V/m) @ t=0.04
0
% es.tEz (V/m) @ t=0.04
-1.1339523575585986
% V (V) @ t=0.04
0.011579089136005957
% es.normE (V/m) @ t=0.06
2.575579966142581
% es.EX (V/m) @ t=0.06
2.3056837704202087
% es.EY (V/m) @ t=0.06
0.08871223839654568
% es.EZ (V/m) @ t=0.06
-1.1443620765291664
% es.tEX (V/m) @ t=0.06
2.3056837704202042
% es.tEY (V/m) @ t=0.06
0
% es.tEZ (V/m) @ t=0.06
-1.1443620765291698
% es.Ex (V/m) @ t=0.06
2.3056837704202087
% es.Ey (V/m) @ t=0.06
0.08871223839654568
% es.Ez (V/m) @ t=0.06
-1.1443620765291664
% es.tEx (V/m) @ t=0.06
2.3056837704202042
% es.tEy (V/m) @ t=0.06
0
% es.tEz (V/m) @ t=0.06
-1.1443620765291698
% V (V) @ t=0.06
0.011685385611383098
% es.normE (V/m) @ t=0.08
2.599461370331548
% es.EX (V/m) @ t=0.08
2.3270626312890226
% es.EY (V/m) @ t=0.08
0.08953479960444571
% es.EZ (V/m) @ t=0.08
-1.1549728804273232
% es.tEX (V/m) @ t=0.08
2.3270626312890226
% es.tEY (V/m) @ t=0.08
0
% es.tEZ (V/m) @ t=0.08
-1.1549728804273016
% es.Ex (V/m) @ t=0.08
2.3270626312890226
% es.Ey (V/m) @ t=0.08
0.08953479960444571
% es.Ez (V/m) @ t=0.08
-1.1549728804273232
% es.tEx (V/m) @ t=0.08
2.3270626312890226
% es.tEy (V/m) @ t=0.08
0
% es.tEz (V/m) @ t=0.08
-1.1549728804273016
% V (V) @ t=0.08
0.011793735360759868
% es.normE (V/m) @ t=0.1
2.623459350732424
% es.EX (V/m) @ t=0.1
2.3485458525154668
% es.EY (V/m) @ t=0.1
0.09036137659509813
% es.EZ (V/m) @ t=0.1
-1.1656354800997586
% es.tEX (V/m) @ t=0.1
2.348545852515463
% es.tEY (V/m) @ t=0.1
0
% es.tEZ (V/m) @ t=0.1
-1.1656354800997448
% es.Ex (V/m) @ t=0.1
2.3485458525154668
% es.Ey (V/m) @ t=0.1
0.09036137659509813
% es.Ez (V/m) @ t=0.1
-1.1656354800997586
% es.tEx (V/m) @ t=0.1
2.348545852515463
% es.tEy (V/m) @ t=0.1
0
% es.tEz (V/m) @ t=0.1
-1.1656354800997448
% V (V) @ t=0.1
0.011902613995707242
% es.normE (V/m) @ t=0.12
2.6474573311332987
% es.EX (V/m) @ t=0.12
2.3700290737419176
% es.EY (V/m) @ t=0.12
0.0911879535857168
% es.EZ (V/m) @ t=0.12
-1.1762980797721796
% es.tEX (V/m) @ t=0.12
2.3700290737419047
% es.tEY (V/m) @ t=0.12
0
% es.tEZ (V/m) @ t=0.12
-1.1762980797721667
% es.Ex (V/m) @ t=0.12
2.3700290737419176
% es.Ey (V/m) @ t=0.12
0.0911879535857168
% es.Ez (V/m) @ t=0.12
-1.1762980797721796
% es.tEx (V/m) @ t=0.12
2.3700290737419047
% es.tEy (V/m) @ t=0.12
0
% es.tEz (V/m) @ t=0.12
-1.1762980797721667
% V (V) @ t=0.12
0.012011492630654616
% es.normE (V/m) @ t=0.14
2.672171238945571
% es.EX (V/m) @ t=0.14
2.3921532022418726
% es.EY (V/m) @ t=0.14
0.09203919455309789
% es.EZ (V/m) @ t=0.14
-1.1872787700069338
% es.tEX (V/m) @ t=0.14
2.3921532022418663
% es.tEY (V/m) @ t=0.14
0
% es.tEZ (V/m) @ t=0.14
-1.1872787700069125
% es.Ex (V/m) @ t=0.14
2.3921532022418726
% es.Ey (V/m) @ t=0.14
0.09203919455309789
% es.Ez (V/m) @ t=0.14
-1.1872787700069338
% es.tEx (V/m) @ t=0.14
2.3921532022418663
% es.tEy (V/m) @ t=0.14
0
% es.tEz (V/m) @ t=0.14
-1.1872787700069125
% V (V) @ t=0.14
0.01212361922220603
% es.normE (V/m) @ t=0.16
2.697369229164437
% es.EX (V/m) @ t=0.16
2.4147106874347593
% es.EY (V/m) @ t=0.16
0.09290711234698479
% es.EZ (V/m) @ t=0.16
-1.1984745407686166
% es.tEX (V/m) @ t=0.16
2.4147106874347566
% es.tEY (V/m) @ t=0.16
0
% es.tEZ (V/m) @ t=0.16
-1.1984745407686148
% es.Ex (V/m) @ t=0.16
2.4147106874347593
% es.Ey (V/m) @ t=0.16
0.09290711234698479
% es.Ez (V/m) @ t=0.16
-1.1984745407686166
% es.tEx (V/m) @ t=0.16
2.4147106874347566
% es.tEy (V/m) @ t=0.16
0
% es.tEz (V/m) @ t=0.16
-1.1984745407686148
% V (V) @ t=0.16
0.012237941956305436
% es.normE (V/m) @ t=0.18
2.722567219383322
% es.EX (V/m) @ t=0.18
2.437268172627651
% es.EY (V/m) @ t=0.18
0.09377503014085486
% es.EZ (V/m) @ t=0.18
-1.2096703115303353
% es.tEX (V/m) @ t=0.18
2.4372681726276477
% es.tEY (V/m) @ t=0.18
0
% es.tEZ (V/m) @ t=0.18
-1.2096703115303313
% es.Ex (V/m) @ t=0.18
2.437268172627651
% es.Ey (V/m) @ t=0.18
0.09377503014085486
% es.Ez (V/m) @ t=0.18
-1.2096703115303353
% es.tEx (V/m) @ t=0.18
2.4372681726276477
% es.tEy (V/m) @ t=0.18
0
% es.tEz (V/m) @ t=0.18
-1.2096703115303313
% V (V) @ t=0.18
0.012352264690404844
% es.normE (V/m) @ t=0.2
2.747765209602182
% es.EX (V/m) @ t=0.2
2.4598256578205273
% es.EY (V/m) @ t=0.2
0.09464294793475686
% es.EZ (V/m) @ t=0.2
-1.2208660822920254
% es.tEX (V/m) @ t=0.2
2.4598256578205238
% es.tEY (V/m) @ t=0.2
0
% es.tEZ (V/m) @ t=0.2
-1.2208660822920123
% es.Ex (V/m) @ t=0.2
2.4598256578205273
% es.Ey (V/m) @ t=0.2
0.09464294793475686
% es.Ez (V/m) @ t=0.2
-1.2208660822920254
% es.tEx (V/m) @ t=0.2
2.4598256578205238
% es.tEy (V/m) @ t=0.2
0
% es.tEz (V/m) @ t=0.2
-1.2208660822920123
% V (V) @ t=0.2
0.012466587424504249
% es.normE (V/m) @ t=0.22
2.772963199821055
% es.EX (V/m) @ t=0.22
2.482383143013415
% es.EY (V/m) @ t=0.22
0.09551086572863049
% es.EZ (V/m) @ t=0.22
-1.2320618530537226
% es.tEX (V/m) @ t=0.22
2.482383143013415
% es.tEY (V/m) @ t=0.22
0
% es.tEZ (V/m) @ t=0.22
-1.2320618530537075
% es.Ex (V/m) @ t=0.22
2.482383143013415
% es.Ey (V/m) @ t=0.22
0.09551086572863049
% es.Ez (V/m) @ t=0.22
-1.2320618530537226
% es.tEx (V/m) @ t=0.22
2.482383143013415
% es.tEy (V/m) @ t=0.22
0
% es.tEz (V/m) @ t=0.22
-1.2320618530537075
% V (V) @ t=0.22
0.012580910158603657
% es.normE (V/m) @ t=0.24
2.7981611900399432
% es.EX (V/m) @ t=0.24
2.504940628206313
% es.EY (V/m) @ t=0.24
0.0963787835225387
% es.EZ (V/m) @ t=0.24
-1.2432576238154305
% es.tEX (V/m) @ t=0.24
2.504940628206313
% es.tEY (V/m) @ t=0.24
0
% es.tEZ (V/m) @ t=0.24
-1.2432576238154383
% es.Ex (V/m) @ t=0.24
2.504940628206313
% es.Ey (V/m) @ t=0.24
0.0963787835225387
% es.Ez (V/m) @ t=0.24
-1.2432576238154305
% es.tEx (V/m) @ t=0.24
2.504940628206313
% es.tEy (V/m) @ t=0.24
0
% es.tEz (V/m) @ t=0.24
-1.2432576238154383
% V (V) @ t=0.24
0.012695232892703065
% es.normE (V/m) @ t=0.26
2.823893963194614
% es.EX (V/m) @ t=0.26
2.5279768321542164
% es.EY (V/m) @ t=0.26
0.09726506846347349
% es.EZ (V/m) @ t=0.26
-1.2546910577798716
% es.tEX (V/m) @ t=0.26
2.527976832154211
% es.tEY (V/m) @ t=0.26
0
% es.tEZ (V/m) @ t=0.26
-1.2546910577798585
% es.Ex (V/m) @ t=0.26
2.5279768321542164
% es.Ey (V/m) @ t=0.26
0.09726506846347349
% es.Ez (V/m) @ t=0.26
-1.2546910577798716
% es.tEx (V/m) @ t=0.26
2.527976832154211
% es.tEy (V/m) @ t=0.26
0
% es.tEz (V/m) @ t=0.26
-1.2546910577798585
% V (V) @ t=0.26
0.012811984102869926
% es.normE (V/m) @ t=0.28
2.851773244213663
% es.EX (V/m) @ t=0.28
2.5529345139647805
% es.EY (V/m) @ t=0.28
0.09822507532580349
% es.EZ (V/m) @ t=0.28
-1.2670784225816205
% es.tEX (V/m) @ t=0.28
2.5529345139647823
% es.tEY (V/m) @ t=0.28
0
% es.tEZ (V/m) @ t=0.28
-1.2670784225816263
% es.Ex (V/m) @ t=0.28
2.5529345139647805
% es.Ey (V/m) @ t=0.28
0.09822507532580349
% es.Ez (V/m) @ t=0.28
-1.2670784225816205
% es.tEx (V/m) @ t=0.28
2.5529345139647823
% es.tEy (V/m) @ t=0.28
0
% es.tEz (V/m) @ t=0.28
-1.2670784225816263
% V (V) @ t=0.28
0.012938482712642169
% es.normE (V/m) @ t=0.3
2.8796525252327907
% es.EX (V/m) @ t=0.3
2.577892195775349
% es.EY (V/m) @ t=0.3
0.09918508218816896
% es.EZ (V/m) @ t=0.3
-1.2794657873833835
% es.tEX (V/m) @ t=0.3
2.5778921957753553
% es.tEY (V/m) @ t=0.3
0
% es.tEZ (V/m) @ t=0.3
-1.279465787383387
% es.Ex (V/m) @ t=0.3
2.577892195775349
% es.Ey (V/m) @ t=0.3
0.09918508218816896
% es.Ez (V/m) @ t=0.3
-1.2794657873833835
% es.tEx (V/m) @ t=0.3
2.5778921957753553
% es.tEy (V/m) @ t=0.3
0
% es.tEz (V/m) @ t=0.3
-1.279465787383387
% V (V) @ t=0.3
0.013064981322414411
% es.normE (V/m) @ t=0.32
2.907531806252007
% es.EX (V/m) @ t=0.32
2.602849877585939
% es.EY (V/m) @ t=0.32
0.10014508905051134
% es.EZ (V/m) @ t=0.32
-1.291853152185157
% es.tEX (V/m) @ t=0.32
2.6028498775859283
% es.tEY (V/m) @ t=0.32
0
% es.tEZ (V/m) @ t=0.32
-1.291853152185162
% es.Ex (V/m) @ t=0.32
2.602849877585939
% es.Ey (V/m) @ t=0.32
0.10014508905051134
% es.Ez (V/m) @ t=0.32
-1.291853152185157
% es.tEx (V/m) @ t=0.32
2.6028498775859283
% es.tEy (V/m) @ t=0.32
0
% es.tEz (V/m) @ t=0.32
-1.291853152185162
% V (V) @ t=0.32
0.013191479932186655
% es.normE (V/m) @ t=0.34
2.935411087271258
% es.EX (V/m) @ t=0.34
2.6278075593965005
% es.EY (V/m) @ t=0.34
0.101105095912844
% es.EZ (V/m) @ t=0.34
-1.3042405169869273
% es.tEX (V/m) @ t=0.34
2.6278075593965076
% es.tEY (V/m) @ t=0.34
0
% es.tEZ (V/m) @ t=0.34
-1.3042405169869369
% es.Ex (V/m) @ t=0.34
2.6278075593965005
% es.Ey (V/m) @ t=0.34
0.101105095912844
% es.Ez (V/m) @ t=0.34
-1.3042405169869273
% es.tEx (V/m) @ t=0.34
2.6278075593965076
% es.tEy (V/m) @ t=0.34
0
% es.tEz (V/m) @ t=0.34
-1.3042405169869369
% V (V) @ t=0.34
0.013317978541958896
% es.normE (V/m) @ t=0.36
2.9632903682905827
% es.EX (V/m) @ t=0.36
2.6527652412070726
% es.EY (V/m) @ t=0.36
0.10206510277520597
% es.EZ (V/m) @ t=0.36
-1.316627881788701
% es.tEX (V/m) @ t=0.36
2.6527652412070735
% es.tEY (V/m) @ t=0.36
0
% es.tEZ (V/m) @ t=0.36
-1.3166278817886834
% es.Ex (V/m) @ t=0.36
2.6527652412070726
% es.Ey (V/m) @ t=0.36
0.10206510277520597
% es.Ez (V/m) @ t=0.36
-1.316627881788701
% es.tEx (V/m) @ t=0.36
2.6527652412070735
% es.tEy (V/m) @ t=0.36
0
% es.tEz (V/m) @ t=0.36
-1.3166278817886834
% V (V) @ t=0.36
0.013444477151731138
% es.normE (V/m) @ t=0.38
2.991169649309954
% es.EX (V/m) @ t=0.38
2.6777229230176447
% es.EY (V/m) @ t=0.38
0.10302510963754835
% es.EZ (V/m) @ t=0.38
-1.3290152465904463
% es.tEX (V/m) @ t=0.38
2.6777229230176394
% es.tEY (V/m) @ t=0.38
0
% es.tEZ (V/m) @ t=0.38
-1.329015246590437
% es.Ex (V/m) @ t=0.38
2.6777229230176447
% es.Ey (V/m) @ t=0.38
0.10302510963754835
% es.Ez (V/m) @ t=0.38
-1.3290152465904463
% es.tEx (V/m) @ t=0.38
2.6777229230176394
% es.tEy (V/m) @ t=0.38
0
% es.tEz (V/m) @ t=0.38
-1.329015246590437
% V (V) @ t=0.38
0.013570975761503384
% es.normE (V/m) @ t=0.4
3.0190489303294017
% es.EX (V/m) @ t=0.4
2.7026806048282235
% es.EY (V/m) @ t=0.4
0.10398511649987391
% es.EZ (V/m) @ t=0.4
-1.34140261139222
% es.tEX (V/m) @ t=0.4
2.7026806048282186
% es.tEY (V/m) @ t=0.4
0
% es.tEZ (V/m) @ t=0.4
-1.3414026113922048
% es.Ex (V/m) @ t=0.4
2.7026806048282235
% es.Ey (V/m) @ t=0.4
0.10398511649987391
% es.Ez (V/m) @ t=0.4
-1.34140261139222
% es.tEx (V/m) @ t=0.4
2.7026806048282186
% es.tEy (V/m) @ t=0.4
0
% es.tEz (V/m) @ t=0.4
-1.3414026113922048
% V (V) @ t=0.4
0.013697474371275626
% es.normE (V/m) @ t=0.42
3.046928211348898
% es.EX (V/m) @ t=0.42
2.727638286638796
% es.EY (V/m) @ t=0.42
0.1049451233622305
% es.EZ (V/m) @ t=0.42
-1.3537899761939864
% es.tEX (V/m) @ t=0.42
2.7276382866387996
% es.tEY (V/m) @ t=0.42
0
% es.tEZ (V/m) @ t=0.42
-1.353789976193994
% es.Ex (V/m) @ t=0.42
2.727638286638796
% es.Ey (V/m) @ t=0.42
0.1049451233622305
% es.Ez (V/m) @ t=0.42
-1.3537899761939864
% es.tEx (V/m) @ t=0.42
2.7276382866387996
% es.tEy (V/m) @ t=0.42
0
% es.tEz (V/m) @ t=0.42
-1.353789976193994
% V (V) @ t=0.42
0.013823972981047868
% es.normE (V/m) @ t=0.44
3.074807492368456
% es.EX (V/m) @ t=0.44
2.752595968449379
% es.EY (V/m) @ t=0.44
0.10590513022457027
% es.EZ (V/m) @ t=0.44
-1.3661773409957496
% es.tEX (V/m) @ t=0.44
2.7525959684493726
% es.tEY (V/m) @ t=0.44
0
% es.tEZ (V/m) @ t=0.44
-1.3661773409957405
% es.Ex (V/m) @ t=0.44
2.752595968449379
% es.Ey (V/m) @ t=0.44
0.10590513022457027
% es.Ez (V/m) @ t=0.44
-1.3661773409957496
% es.tEx (V/m) @ t=0.44
2.7525959684493726
% es.tEy (V/m) @ t=0.44
0
% es.tEz (V/m) @ t=0.44
-1.3661773409957405
% V (V) @ t=0.44
0.013950471590820114
% es.normE (V/m) @ t=0.46
3.1026867733880605
% es.EX (V/m) @ t=0.46
2.7775536502599545
% es.EY (V/m) @ t=0.46
0.10686513708693846
% es.EZ (V/m) @ t=0.46
-1.3785647057975092
% es.tEX (V/m) @ t=0.46
2.7775536502599314
% es.tEY (V/m) @ t=0.46
0
% es.tEZ (V/m) @ t=0.46
-1.378564705797487
% es.Ex (V/m) @ t=0.46
2.7775536502599545
% es.Ey (V/m) @ t=0.46
0.10686513708693846
% es.Ez (V/m) @ t=0.46
-1.3785647057975092
% es.tEx (V/m) @ t=0.46
2.7775536502599314
% es.tEy (V/m) @ t=0.46
0
% es.tEz (V/m) @ t=0.46
-1.378564705797487
% V (V) @ t=0.46
0.014076970200592355
% es.normE (V/m) @ t=0.48
3.130566054407696
% es.EX (V/m) @ t=0.48
2.802511332070509
% es.EY (V/m) @ t=0.48
0.10782514394926485
% es.EZ (V/m) @ t=0.48
-1.3909520705992686
% es.tEX (V/m) @ t=0.48
2.8025113320705106
% es.tEY (V/m) @ t=0.48
0
% es.tEZ (V/m) @ t=0.48
-1.390952070599262
% es.Ex (V/m) @ t=0.48
2.802511332070509
% es.Ey (V/m) @ t=0.48
0.10782514394926485
% es.Ez (V/m) @ t=0.48
-1.3909520705992686
% es.tEx (V/m) @ t=0.48
2.8025113320705106
% es.tEy (V/m) @ t=0.48
0
% es.tEz (V/m) @ t=0.48
-1.390952070599262
% V (V) @ t=0.48
0.014203468810364597
% es.normE (V/m) @ t=0.5
3.158445335427399
% es.EX (V/m) @ t=0.5
2.827469013881081
% es.EY (V/m) @ t=0.5
0.10878515081161438
% es.EZ (V/m) @ t=0.5
-1.403339435401028
% es.tEX (V/m) @ t=0.5
2.8274690138810765
% es.tEY (V/m) @ t=0.5
0
% es.tEZ (V/m) @ t=0.5
-1.4033394354010298
% es.Ex (V/m) @ t=0.5
2.827469013881081
% es.Ey (V/m) @ t=0.5
0.10878515081161438
% es.Ez (V/m) @ t=0.5
-1.403339435401028
% es.tEx (V/m) @ t=0.5
2.8274690138810765
% es.tEy (V/m) @ t=0.5
0
% es.tEz (V/m) @ t=0.5
-1.4033394354010298
% V (V) @ t=0.5
0.01432996742013684
% es.normE (V/m) @ t=0.52
3.1875443017454925
% es.EX (V/m) @ t=0.52
2.853518619752321
% es.EY (V/m) @ t=0.52
0.10978727791853249
% es.EZ (V/m) @ t=0.52
-1.4162686119207728
% es.tEX (V/m) @ t=0.52
2.853518619752318
% es.tEY (V/m) @ t=0.52
0
% es.tEZ (V/m) @ t=0.52
-1.4162686119207564
% es.Ex (V/m) @ t=0.52
2.853518619752321
% es.Ey (V/m) @ t=0.52
0.10978727791853249
% es.Ez (V/m) @ t=0.52
-1.4162686119207728
% es.tEx (V/m) @ t=0.52
2.853518619752318
% es.tEy (V/m) @ t=0.52
0
% es.tEz (V/m) @ t=0.52
-1.4162686119207564
% V (V) @ t=0.52
0.01446199520715841
% es.normE (V/m) @ t=0.54
3.218434059940721
% es.EX (V/m) @ t=0.54
2.881171433222235
% es.EY (V/m) @ t=0.54
0.11085124769253457
% es.EZ (V/m) @ t=0.54
-1.429993298581355
% es.tEX (V/m) @ t=0.54
2.8811714332222387
% es.tEY (V/m) @ t=0.54
0
% es.tEZ (V/m) @ t=0.54
-1.42999329858133
% es.Ex (V/m) @ t=0.54
2.881171433222235
% es.Ey (V/m) @ t=0.54
0.11085124769253457
% es.Ez (V/m) @ t=0.54
-1.429993298581355
% es.tEx (V/m) @ t=0.54
2.8811714332222387
% es.tEy (V/m) @ t=0.54
0
% es.tEz (V/m) @ t=0.54
-1.42999329858133
% V (V) @ t=0.54
0.01460214115852838
% es.normE (V/m) @ t=0.56
3.249323818135944
% es.EX (V/m) @ t=0.56
2.908824246692138
% es.EY (V/m) @ t=0.56
0.11191521746649846
% es.EZ (V/m) @ t=0.56
-1.443717985241948
% es.tEX (V/m) @ t=0.56
2.908824246692136
% es.tEY (V/m) @ t=0.56
0
% es.tEZ (V/m) @ t=0.56
-1.443717985241939
% es.Ex (V/m) @ t=0.56
2.908824246692138
% es.Ey (V/m) @ t=0.56
0.11191521746649846
% es.Ez (V/m) @ t=0.56
-1.443717985241948
% es.tEx (V/m) @ t=0.56
2.908824246692136
% es.tEy (V/m) @ t=0.56
0
% es.tEz (V/m) @ t=0.56
-1.443717985241939
% V (V) @ t=0.56
0.014742287109898347
% es.normE (V/m) @ t=0.58
3.2802135763311506
% es.EX (V/m) @ t=0.58
2.936477060162038
% es.EY (V/m) @ t=0.58
0.11297918724050138
% es.EZ (V/m) @ t=0.58
-1.4574426719025015
% es.tEX (V/m) @ t=0.58
2.936477060162021
% es.tEY (V/m) @ t=0.58
0
% es.tEZ (V/m) @ t=0.58
-1.4574426719024913
% es.Ex (V/m) @ t=0.58
2.936477060162038
% es.Ey (V/m) @ t=0.58
0.11297918724050138
% es.Ez (V/m) @ t=0.58
-1.4574426719025015
% es.tEx (V/m) @ t=0.58
2.936477060162021
% es.tEy (V/m) @ t=0.58
0
% es.tEz (V/m) @ t=0.58
-1.4574426719024913
% V (V) @ t=0.58
0.014882433061268317
% es.normE (V/m) @ t=0.6
3.3111033345263534
% es.EX (V/m) @ t=0.6
2.964129873631924
% es.EY (V/m) @ t=0.6
0.1140431570144822
% es.EZ (V/m) @ t=0.6
-1.4711673585630733
% es.tEX (V/m) @ t=0.6
2.9641298736319204
% es.tEY (V/m) @ t=0.6
0
% es.tEZ (V/m) @ t=0.6
-1.471167358563065
% es.Ex (V/m) @ t=0.6
2.964129873631924
% es.Ey (V/m) @ t=0.6
0.1140431570144822
% es.Ez (V/m) @ t=0.6
-1.4711673585630733
% es.tEx (V/m) @ t=0.6
2.9641298736319204
% es.tEy (V/m) @ t=0.6
0
% es.tEz (V/m) @ t=0.6
-1.471167358563065
% V (V) @ t=0.6
0.015022579012638287
% es.normE (V/m) @ t=0.62
3.341993092721592
% es.EX (V/m) @ t=0.62
2.991782687101841
% es.EY (V/m) @ t=0.62
0.11510712678846646
% es.EZ (V/m) @ t=0.62
-1.484892045223659
% es.tEX (V/m) @ t=0.62
2.991782687101834
% es.tEY (V/m) @ t=0.62
0
% es.tEZ (V/m) @ t=0.62
-1.4848920452236527
% es.Ex (V/m) @ t=0.62
2.991782687101841
% es.Ey (V/m) @ t=0.62
0.11510712678846646
% es.Ez (V/m) @ t=0.62
-1.484892045223659
% es.tEx (V/m) @ t=0.62
2.991782687101834
% es.tEy (V/m) @ t=0.62
0
% es.tEz (V/m) @ t=0.62
-1.4848920452236527
% V (V) @ t=0.62
0.015162724964008258
% es.normE (V/m) @ t=0.64
3.372882850916812
% es.EX (V/m) @ t=0.64
3.0194355005717375
% es.EY (V/m) @ t=0.64
0.11617109656246499
% es.EZ (V/m) @ t=0.64
-1.4986167318842378
% es.tEX (V/m) @ t=0.64
3.0194355005717313
% es.tEY (V/m) @ t=0.64
0
% es.tEZ (V/m) @ t=0.64
-1.4986167318842263
% es.Ex (V/m) @ t=0.64
3.0194355005717375
% es.Ey (V/m) @ t=0.64
0.11617109656246499
% es.Ez (V/m) @ t=0.64
-1.4986167318842378
% es.tEx (V/m) @ t=0.64
3.0194355005717313
% es.tEy (V/m) @ t=0.64
0
% es.tEz (V/m) @ t=0.64
-1.4986167318842263
% V (V) @ t=0.64
0.015302870915378228
% es.normE (V/m) @ t=0.66
3.4037726091120493
% es.EX (V/m) @ t=0.66
3.0470883140416483
% es.EY (V/m) @ t=0.66
0.11723506633646352
% es.EZ (V/m) @ t=0.66
-1.5123414185448234
% es.tEX (V/m) @ t=0.66
3.0470883140416447
% es.tEY (V/m) @ t=0.66
0
% es.tEZ (V/m) @ t=0.66
-1.512341418544814
% es.Ex (V/m) @ t=0.66
3.0470883140416483
% es.Ey (V/m) @ t=0.66
0.11723506633646352
% es.Ez (V/m) @ t=0.66
-1.5123414185448234
% es.tEx (V/m) @ t=0.66
3.0470883140416447
% es.tEy (V/m) @ t=0.66
0
% es.tEz (V/m) @ t=0.66
-1.512341418544814
% V (V) @ t=0.66
0.0154430168667482
% es.normE (V/m) @ t=0.68
3.4346623673072605
% es.EX (V/m) @ t=0.68
3.0747411275115413
% es.EY (V/m) @ t=0.68
0.11829903611045678
% es.EZ (V/m) @ t=0.68
-1.5260661052053843
% es.tEX (V/m) @ t=0.68
3.074741127511537
% es.tEY (V/m) @ t=0.68
0
% es.tEZ (V/m) @ t=0.68
-1.5260661052053806
% es.Ex (V/m) @ t=0.68
3.0747411275115413
% es.Ey (V/m) @ t=0.68
0.11829903611045678
% es.Ez (V/m) @ t=0.68
-1.5260661052053843
% es.tEx (V/m) @ t=0.68
3.074741127511537
% es.tEy (V/m) @ t=0.68
0
% es.tEz (V/m) @ t=0.68
-1.5260661052053806
% V (V) @ t=0.68
0.015583162818118166
% es.normE (V/m) @ t=0.7
3.4655521255024864
% es.EX (V/m) @ t=0.7
3.1023939409814343
% es.EY (V/m) @ t=0.7
0.11936300588442955
% es.EZ (V/m) @ t=0.7
-1.5397907918659737
% es.tEX (V/m) @ t=0.7
3.1023939409814503
% es.tEY (V/m) @ t=0.7
0
% es.tEZ (V/m) @ t=0.7
-1.5397907918659612
% es.Ex (V/m) @ t=0.7
3.1023939409814343
% es.Ey (V/m) @ t=0.7
0.11936300588442955
% es.Ez (V/m) @ t=0.7
-1.5397907918659737
% es.tEx (V/m) @ t=0.7
3.1023939409814503
% es.tEy (V/m) @ t=0.7
0
% es.tEz (V/m) @ t=0.7
-1.5397907918659612
% V (V) @ t=0.7
0.015723308769488138
% es.normE (V/m) @ t=0.72
3.496441883697745
% es.EX (V/m) @ t=0.72
3.13004675445137
% es.EY (V/m) @ t=0.72
0.12042697565844585
% es.EZ (V/m) @ t=0.72
-1.5535154785265453
% es.tEX (V/m) @ t=0.72
3.1300467544513566
% es.tEY (V/m) @ t=0.72
0
% es.tEZ (V/m) @ t=0.72
-1.5535154785265277
% es.Ex (V/m) @ t=0.72
3.13004675445137
% es.Ey (V/m) @ t=0.72
0.12042697565844585
% es.Ez (V/m) @ t=0.72
-1.5535154785265453
% es.tEx (V/m) @ t=0.72
3.1300467544513566
% es.tEy (V/m) @ t=0.72
0
% es.tEz (V/m) @ t=0.72
-1.5535154785265277
% V (V) @ t=0.72
0.01586345472085811
% es.normE (V/m) @ t=0.74
3.5273316418929674
% es.EX (V/m) @ t=0.74
3.1576995679212585
% es.EY (V/m) @ t=0.74
0.12149094543240613
% es.EZ (V/m) @ t=0.74
-1.567240165187131
% es.tEX (V/m) @ t=0.74
3.157699567921254
% es.tEY (V/m) @ t=0.74
0
% es.tEZ (V/m) @ t=0.74
-1.5672401651871368
% es.Ex (V/m) @ t=0.74
3.1576995679212585
% es.Ey (V/m) @ t=0.74
0.12149094543240613
% es.Ez (V/m) @ t=0.74
-1.567240165187131
% es.tEx (V/m) @ t=0.74
3.157699567921254
% es.tEy (V/m) @ t=0.74
0
% es.tEz (V/m) @ t=0.74
-1.5672401651871368
% V (V) @ t=0.74
0.016003600672228075
% es.normE (V/m) @ t=0.76
3.5582214000881947
% es.EX (V/m) @ t=0.76
3.1853523813911515
% es.EY (V/m) @ t=0.76
0.12255491520642242
% es.EZ (V/m) @ t=0.76
-1.5809648518477097
% es.tEX (V/m) @ t=0.76
3.1853523813911533
% es.tEY (V/m) @ t=0.76
0
% es.tEZ (V/m) @ t=0.76
-1.580964851847689
% es.Ex (V/m) @ t=0.76
3.1853523813911515
% es.Ey (V/m) @ t=0.76
0.12255491520642242
% es.Ez (V/m) @ t=0.76
-1.5809648518477097
% es.tEx (V/m) @ t=0.76
3.1853523813911533
% es.tEy (V/m) @ t=0.76
0
% es.tEz (V/m) @ t=0.76
-1.580964851847689
% V (V) @ t=0.76
0.016143746623598045
% es.normE (V/m) @ t=0.78
3.591183328791978
% es.EX (V/m) @ t=0.78
3.2148602321851447
% es.EY (V/m) @ t=0.78
0.12369028111223895
% es.EZ (V/m) @ t=0.78
-1.5956102065640327
% es.tEX (V/m) @ t=0.78
3.2148602321851403
% es.tEY (V/m) @ t=0.78
0
% es.tEZ (V/m) @ t=0.78
-1.5956102065640252
% es.Ex (V/m) @ t=0.78
3.2148602321851447
% es.Ey (V/m) @ t=0.78
0.12369028111223895
% es.Ez (V/m) @ t=0.78
-1.5956102065640327
% es.tEx (V/m) @ t=0.78
3.2148602321851403
% es.tEy (V/m) @ t=0.78
0
% es.tEz (V/m) @ t=0.78
-1.5956102065640252
% V (V) @ t=0.78
0.01629329304365958
% es.normE (V/m) @ t=0.8
3.6254653949739684
% es.EX (V/m) @ t=0.8
3.2455498893434633
% es.EY (V/m) @ t=0.8
0.12487113203437317
% es.EZ (V/m) @ t=0.8
-1.6108421000812916
% es.tEX (V/m) @ t=0.8
3.245549889343451
% es.tEY (V/m) @ t=0.8
0
% es.tEZ (V/m) @ t=0.8
-1.6108421000812854
% es.Ex (V/m) @ t=0.8
3.2455498893434633
% es.Ey (V/m) @ t=0.8
0.12487113203437317
% es.Ez (V/m) @ t=0.8
-1.6108421000812916
% es.tEx (V/m) @ t=0.8
3.245549889343451
% es.tEy (V/m) @ t=0.8
0
% es.tEz (V/m) @ t=0.8
-1.6108421000812854
% V (V) @ t=0.8
0.01644882831018988
% es.normE (V/m) @ t=0.82
3.6597474611559844
% es.EX (V/m) @ t=0.82
3.2762395465018113
% es.EY (V/m) @ t=0.82
0.12605198295651543
% es.EZ (V/m) @ t=0.82
-1.6260739935985398
% es.tEX (V/m) @ t=0.82
3.2762395465017757
% es.tEY (V/m) @ t=0.82
0
% es.tEZ (V/m) @ t=0.82
-1.6260739935985384
% es.Ex (V/m) @ t=0.82
3.2762395465018113
% es.Ey (V/m) @ t=0.82
0.12605198295651543
% es.Ez (V/m) @ t=0.82
-1.6260739935985398
% es.tEx (V/m) @ t=0.82
3.2762395465017757
% es.tEy (V/m) @ t=0.82
0
% es.tEz (V/m) @ t=0.82
-1.6260739935985384
% V (V) @ t=0.82
0.01660436357672018
% es.normE (V/m) @ t=0.84
3.6940295273379817
% es.EX (V/m) @ t=0.84
3.3069292036601223
% es.EY (V/m) @ t=0.84
0.12723283387862117
% es.EZ (V/m) @ t=0.84
-1.6413058871158095
% es.tEX (V/m) @ t=0.84
3.306929203660127
% es.tEY (V/m) @ t=0.84
0
% es.tEZ (V/m) @ t=0.84
-1.6413058871157986
% es.Ex (V/m) @ t=0.84
3.3069292036601223
% es.Ey (V/m) @ t=0.84
0.12723283387862117
% es.Ez (V/m) @ t=0.84
-1.6413058871158095
% es.tEx (V/m) @ t=0.84
3.306929203660127
% es.tEy (V/m) @ t=0.84
0
% es.tEz (V/m) @ t=0.84
-1.6413058871157986
% V (V) @ t=0.84
0.01675989884325048
% es.normE (V/m) @ t=0.86
3.7283115935200373
% es.EX (V/m) @ t=0.86
3.3376188608184854
% es.EY (V/m) @ t=0.86
0.12841368480080434
% es.EZ (V/m) @ t=0.86
-1.6565377806330899
% es.tEX (V/m) @ t=0.86
3.3376188608184965
% es.tEY (V/m) @ t=0.86
0
% es.tEZ (V/m) @ t=0.86
-1.656537780633073
% es.Ex (V/m) @ t=0.86
3.3376188608184854
% es.Ey (V/m) @ t=0.86
0.12841368480080434
% es.Ez (V/m) @ t=0.86
-1.6565377806330899
% es.tEx (V/m) @ t=0.86
3.3376188608184965
% es.tEy (V/m) @ t=0.86
0
% es.tEz (V/m) @ t=0.86
-1.656537780633073
% V (V) @ t=0.86
0.016915434109780778
% es.normE (V/m) @ t=0.88
3.7625936597020617
% es.EX (V/m) @ t=0.88
3.3683085179768257
% es.EY (V/m) @ t=0.88
0.12959453572297402
% es.EZ (V/m) @ t=0.88
-1.6717696741503345
% es.tEX (V/m) @ t=0.88
3.368308517976807
% es.tEY (V/m) @ t=0.88
0
% es.tEZ (V/m) @ t=0.88
-1.6717696741503048
% es.Ex (V/m) @ t=0.88
3.3683085179768257
% es.Ey (V/m) @ t=0.88
0.12959453572297402
% es.Ez (V/m) @ t=0.88
-1.6717696741503345
% es.tEx (V/m) @ t=0.88
3.368308517976807
% es.tEy (V/m) @ t=0.88
0
% es.tEz (V/m) @ t=0.88
-1.6717696741503048
% V (V) @ t=0.88
0.017070969376311078
% es.normE (V/m) @ t=0.9
3.7968757258840857
% es.EX (V/m) @ t=0.9
3.398998175135159
% es.EY (V/m) @ t=0.9
0.13077538664512334
% es.EZ (V/m) @ t=0.9
-1.6870015676675827
% es.tEX (V/m) @ t=0.9
3.3989981751351603
% es.tEY (V/m) @ t=0.9
0
% es.tEZ (V/m) @ t=0.9
-1.6870015676675862
% es.Ex (V/m) @ t=0.9
3.398998175135159
% es.Ey (V/m) @ t=0.9
0.13077538664512334
% es.Ez (V/m) @ t=0.9
-1.6870015676675827
% es.tEx (V/m) @ t=0.9
3.3989981751351603
% es.tEy (V/m) @ t=0.9
0
% es.tEz (V/m) @ t=0.9
-1.6870015676675862
% V (V) @ t=0.9
0.017226504642841377
% es.normE (V/m) @ t=0.92
3.831157792066125
% es.EX (V/m) @ t=0.92
3.4296878322934994
% es.EY (V/m) @ t=0.92
0.13195623756724695
% es.EZ (V/m) @ t=0.92
-1.7022334611848418
% es.tEX (V/m) @ t=0.92
3.4296878322934994
% es.tEY (V/m) @ t=0.92
0
% es.tEZ (V/m) @ t=0.92
-1.7022334611848322
% es.Ex (V/m) @ t=0.92
3.4296878322934994
% es.Ey (V/m) @ t=0.92
0.13195623756724695
% es.Ez (V/m) @ t=0.92
-1.7022334611848418
% es.tEx (V/m) @ t=0.92
3.4296878322934994
% es.tEy (V/m) @ t=0.92
0
% es.tEz (V/m) @ t=0.92
-1.7022334611848322
% V (V) @ t=0.92
0.017382039909371674
% es.normE (V/m) @ t=0.94
3.8654398582481697
% es.EX (V/m) @ t=0.94
3.4603774894518393
% es.EY (V/m) @ t=0.94
0.1331370884894016
% es.EZ (V/m) @ t=0.94
-1.7174653547021044
% es.tEX (V/m) @ t=0.94
3.4603774894518367
% es.tEY (V/m) @ t=0.94
0
% es.tEZ (V/m) @ t=0.94
-1.7174653547021137
% es.Ex (V/m) @ t=0.94
3.4603774894518393
% es.Ey (V/m) @ t=0.94
0.1331370884894016
% es.Ez (V/m) @ t=0.94
-1.7174653547021044
% es.tEx (V/m) @ t=0.94
3.4603774894518367
% es.tEy (V/m) @ t=0.94
0
% es.tEz (V/m) @ t=0.94
-1.7174653547021137
% V (V) @ t=0.94
0.017537575175901977
% es.normE (V/m) @ t=0.96
3.899721924430241
% es.EX (V/m) @ t=0.96
3.4910671466101935
% es.EY (V/m) @ t=0.96
0.13431793941155445
% es.EZ (V/m) @ t=0.96
-1.7326972482193845
% es.tEX (V/m) @ t=0.96
3.49106714661019
% es.tEY (V/m) @ t=0.96
0
% es.tEZ (V/m) @ t=0.96
-1.732697248219381
% es.Ex (V/m) @ t=0.96
3.4910671466101935
% es.Ey (V/m) @ t=0.96
0.13431793941155445
% es.Ez (V/m) @ t=0.96
-1.7326972482193845
% es.tEx (V/m) @ t=0.96
3.49106714661019
% es.tEy (V/m) @ t=0.96
0
% es.tEz (V/m) @ t=0.96
-1.732697248219381
% V (V) @ t=0.96
0.017693110442432276
% es.normE (V/m) @ t=0.98
3.934003990612272
% es.EX (V/m) @ t=0.98
3.521756803768522
% es.EY (V/m) @ t=0.98
0.1354987903336674
% es.EZ (V/m) @ t=0.98
-1.747929141736622
% es.tEX (V/m) @ t=0.98
3.5217568037685165
% es.tEY (V/m) @ t=0.98
0
% es.tEZ (V/m) @ t=0.98
-1.7479291417365914
% es.Ex (V/m) @ t=0.98
3.521756803768522
% es.Ey (V/m) @ t=0.98
0.1354987903336674
% es.Ez (V/m) @ t=0.98
-1.747929141736622
% es.tEx (V/m) @ t=0.98
3.5217568037685165
% es.tEy (V/m) @ t=0.98
0
% es.tEz (V/m) @ t=0.98
-1.7479291417365914
% V (V) @ t=0.98
0.017848645708962572
% es.normE (V/m) @ t=1
3.9682860567943496
% es.EX (V/m) @ t=1
3.5524464609268764
% es.EY (V/m) @ t=1
0.13667964125585574
% es.EZ (V/m) @ t=1
-1.7631610352538953
% es.tEX (V/m) @ t=1
3.5524464609268716
% es.tEY (V/m) @ t=1
0
% es.tEZ (V/m) @ t=1
-1.7631610352538587
% es.Ex (V/m) @ t=1
3.5524464609268764
% es.Ey (V/m) @ t=1
0.13667964125585574
% es.Ez (V/m) @ t=1
-1.7631610352538953
% es.tEx (V/m) @ t=1
3.5524464609268716
% es.tEy (V/m) @ t=1
0
% es.tEz (V/m) @ t=1
-1.7631610352538587
% V (V) @ t=1
0.018004180975492872
% es.normE (V/m) @ t=1.02
4.002568122976374
% es.EX (V/m) @ t=1.02
3.5831361180851955
% es.EY (V/m) @ t=1.02
0.13786049217800428
% es.EZ (V/m) @ t=1.02
-1.7783929287711153
% es.tEX (V/m) @ t=1.02
3.5831361180851964
% es.tEY (V/m) @ t=1.02
0
% es.tEZ (V/m) @ t=1.02
-1.7783929287711118
% es.Ex (V/m) @ t=1.02
3.5831361180851955
% es.Ey (V/m) @ t=1.02
0.13786049217800428
% es.Ez (V/m) @ t=1.02
-1.7783929287711153
% es.tEx (V/m) @ t=1.02
3.5831361180851964
% es.tEy (V/m) @ t=1.02
0
% es.tEz (V/m) @ t=1.02
-1.7783929287711118
% V (V) @ t=1.02
0.01815971624202317
% es.normE (V/m) @ t=1.04
4.0382075558586665
% es.EX (V/m) @ t=1.04
3.615040907935358
% es.EY (V/m) @ t=1.04
0.13908810681944483
% es.EZ (V/m) @ t=1.04
-1.79422790605298
% es.tEX (V/m) @ t=1.04
3.6150409079353363
% es.tEY (V/m) @ t=1.04
0
% es.tEZ (V/m) @ t=1.04