% Model:              1 neuron.mph
% Version:            COMSOL 6.1.0.252
% Date:               Mar 22 2023, 18:04
% Dimension:          0
% Nodes:              14017
% Expressions:        14017
% Description:        Electric field norm, Electric field, X component, Electric field, Y component, Electric field, Z component, Tangential electric field, X component, Tangential electric field, Y component, Tangential electric field, Z component, Electric field, x component, Electric field, y component, Electric field, z component, Tangential electric field, x component, Tangential electric field, y component, Tangential electric field, z component, Electric potential
% Length unit:        mm
% x
1.66
% y
12.2
% z
1.33
% es.normE (V/m) @ t=0
13.92837815746202
% es.EX (V/m) @ t=0
-7.739171307320024
% es.EY (V/m) @ t=0
-0.8353759745968028
% es.EZ (V/m) @ t=0
10.362697080858622
% es.tEX (V/m) @ t=0
-7.73917130732003
% es.tEY (V/m) @ t=0
0
% es.tEZ (V/m) @ t=0
10.362697080858599
% es.Ex (V/m) @ t=0
-7.739171307320024
% es.Ey (V/m) @ t=0
-0.8353759745968028
% es.Ez (V/m) @ t=0
10.362697080858622
% es.tEx (V/m) @ t=0
-7.73917130732003
% es.tEy (V/m) @ t=0
0
% es.tEz (V/m) @ t=0
10.362697080858599
% V (V) @ t=0
0.011438889280617402
% es.normE (V/m) @ t=0.02
12.030061589062647
% es.EX (V/m) @ t=0.02
-6.684389718570804
% es.EY (V/m) @ t=0.02
-0.7215214890096482
% es.EZ (V/m) @ t=0.02
8.950351766353789
% es.tEX (V/m) @ t=0.02
-6.684389718570828
% es.tEY (V/m) @ t=0.02
0
% es.tEZ (V/m) @ t=0.02
8.950351766353773
% es.Ex (V/m) @ t=0.02
-6.684389718570804
% es.Ey (V/m) @ t=0.02
-0.7215214890096482
% es.Ez (V/m) @ t=0.02
8.950351766353789
% es.tEx (V/m) @ t=0.02
-6.684389718570828
% es.tEy (V/m) @ t=0.02
0
% es.tEz (V/m) @ t=0.02
8.950351766353773
% V (V) @ t=0.02
0.00987986830962943
% es.normE (V/m) @ t=0.04
12.140709728365108
% es.EX (V/m) @ t=0.04
-6.745870352440124
% es.EY (V/m) @ t=0.04
-0.7281577379520887
% es.EZ (V/m) @ t=0.04
9.032673842006568
% es.tEX (V/m) @ t=0.04
-6.745870352440134
% es.tEY (V/m) @ t=0.04
0
% es.tEZ (V/m) @ t=0.04
9.032673842006552
% es.Ex (V/m) @ t=0.04
-6.745870352440124
% es.Ey (V/m) @ t=0.04
-0.7281577379520887
% es.Ez (V/m) @ t=0.04
9.032673842006568
% es.tEx (V/m) @ t=0.04
-6.745870352440134
% es.tEy (V/m) @ t=0.04
0
% es.tEz (V/m) @ t=0.04
9.032673842006552
% V (V) @ t=0.04
0.009970739657732772
% es.normE (V/m) @ t=0.06
12.252149207240947
% es.EX (V/m) @ t=0.06
-6.807790617197757
% es.EY (V/m) @ t=0.06
-0.7348415181177195
% es.EZ (V/m) @ t=0.06
9.115584690323612
% es.tEX (V/m) @ t=0.06
-6.807790617197774
% es.tEY (V/m) @ t=0.06
0
% es.tEZ (V/m) @ t=0.06
9.115584690323605
% es.Ex (V/m) @ t=0.06
-6.807790617197757
% es.Ey (V/m) @ t=0.06
-0.7348415181177195
% es.Ez (V/m) @ t=0.06
9.115584690323612
% es.tEx (V/m) @ t=0.06
-6.807790617197774
% es.tEy (V/m) @ t=0.06
0
% es.tEz (V/m) @ t=0.06
9.115584690323605
% V (V) @ t=0.06
0.010062261054281704
% es.normE (V/m) @ t=0.08
12.365757904891396
% es.EX (V/m) @ t=0.08
-6.870916209338502
% es.EY (V/m) @ t=0.08
-0.7416553790528957
% es.EZ (V/m) @ t=0.08
9.20010942959353
% es.tEX (V/m) @ t=0.08
-6.870916209338508
% es.tEY (V/m) @ t=0.08
0
% es.tEZ (V/m) @ t=0.08
9.200109429593521
% es.Ex (V/m) @ t=0.08
-6.870916209338502
% es.Ey (V/m) @ t=0.08
-0.7416553790528957
% es.Ez (V/m) @ t=0.08
9.20010942959353
% es.tEx (V/m) @ t=0.08
-6.870916209338508
% es.tEy (V/m) @ t=0.08
0
% es.tEz (V/m) @ t=0.08
9.200109429593521
% V (V) @ t=0.08
0.010155563908143622
% es.normE (V/m) @ t=0.1
12.479897393049857
% es.EX (V/m) @ t=0.1
-6.934336735462566
% es.EY (V/m) @ t=0.1
-0.7485010697133632
% es.EZ (V/m) @ t=0.1
9.285029075089057
% es.tEX (V/m) @ t=0.1
-6.934336735462564
% es.tEY (V/m) @ t=0.1
0
% es.tEZ (V/m) @ t=0.1
9.285029075089039
% es.Ex (V/m) @ t=0.1
-6.934336735462566
% es.Ey (V/m) @ t=0.1
-0.7485010697133632
% es.Ez (V/m) @ t=0.1
9.285029075089057
% es.tEx (V/m) @ t=0.1
-6.934336735462564
% es.tEy (V/m) @ t=0.1
0
% es.tEz (V/m) @ t=0.1
9.285029075089039
% V (V) @ t=0.1
0.010249302670381086
% es.normE (V/m) @ t=0.12
12.594036881208368
% es.EX (V/m) @ t=0.12
-6.997757261586642
% es.EY (V/m) @ t=0.12
-0.7553467603738553
% es.EZ (V/m) @ t=0.12
9.369948720584613
% es.tEX (V/m) @ t=0.12
-6.997757261586656
% es.tEY (V/m) @ t=0.12
0
% es.tEZ (V/m) @ t=0.12
9.369948720584604
% es.Ex (V/m) @ t=0.12
-6.997757261586642
% es.Ey (V/m) @ t=0.12
-0.7553467603738553
% es.Ez (V/m) @ t=0.12
9.369948720584613
% es.tEx (V/m) @ t=0.12
-6.997757261586656
% es.tEy (V/m) @ t=0.12
0
% es.tEz (V/m) @ t=0.12
9.369948720584604
% V (V) @ t=0.12
0.010343041432618548
% es.normE (V/m) @ t=0.14
12.711665895836031
% es.EX (V/m) @ t=0.14
-7.063116790111579
% es.EY (V/m) @ t=0.14
-0.7624016611545459
% es.EZ (V/m) @ t=0.14
9.457464549888476
% es.tEX (V/m) @ t=0.14
-7.0631167901116
% es.tEY (V/m) @ t=0.14
0
% es.tEZ (V/m) @ t=0.14
9.457464549888464
% es.Ex (V/m) @ t=0.14
-7.063116790111579
% es.Ey (V/m) @ t=0.14
-0.7624016611545459
% es.Ez (V/m) @ t=0.14
9.457464549888476
% es.tEx (V/m) @ t=0.14
-7.0631167901116
% es.tEy (V/m) @ t=0.14
0
% es.tEz (V/m) @ t=0.14
9.457464549888464
% V (V) @ t=0.14
0.010439645849637707
% es.normE (V/m) @ t=0.16
12.831497418295992
% es.EX (V/m) @ t=0.16
-7.129700171790336
% es.EY (V/m) @ t=0.16
-0.7695886104903495
% es.EZ (V/m) @ t=0.16
9.546619029944079
% es.tEX (V/m) @ t=0.16
-7.129700171790342
% es.tEY (V/m) @ t=0.16
0
% es.tEZ (V/m) @ t=0.16
9.54661902994407
% es.Ex (V/m) @ t=0.16
-7.129700171790336
% es.Ey (V/m) @ t=0.16
-0.7695886104903495
% es.Ez (V/m) @ t=0.16
9.546619029944079
% es.tEx (V/m) @ t=0.16
-7.129700171790342
% es.tEy (V/m) @ t=0.16
0
% es.tEz (V/m) @ t=0.16
9.54661902994407
% V (V) @ t=0.16
0.010538059001210697
% es.normE (V/m) @ t=0.18
12.951328940755971
% es.EX (V/m) @ t=0.18
-7.196283553469081
% es.EY (V/m) @ t=0.18
-0.7767755598261403
% es.EZ (V/m) @ t=0.18
9.635773509999721
% es.tEX (V/m) @ t=0.18
-7.196283553469101
% es.tEY (V/m) @ t=0.18
0
% es.tEZ (V/m) @ t=0.18
9.635773509999709
% es.Ex (V/m) @ t=0.18
-7.196283553469081
% es.Ey (V/m) @ t=0.18
-0.7767755598261403
% es.Ez (V/m) @ t=0.18
9.635773509999721
% es.tEx (V/m) @ t=0.18
-7.196283553469101
% es.tEy (V/m) @ t=0.18
0
% es.tEz (V/m) @ t=0.18
9.635773509999709
% V (V) @ t=0.18
0.01063647215278369
% es.normE (V/m) @ t=0.2
13.071160463215932
% es.EX (V/m) @ t=0.2
-7.262866935147818
% es.EY (V/m) @ t=0.2
-0.7839625091619022
% es.EZ (V/m) @ t=0.2
9.72492799005532
% es.tEX (V/m) @ t=0.2
-7.262866935147837
% es.tEY (V/m) @ t=0.2
0
% es.tEZ (V/m) @ t=0.2
9.724927990055313
% es.Ex (V/m) @ t=0.2
-7.262866935147818
% es.Ey (V/m) @ t=0.2
-0.7839625091619022
% es.Ez (V/m) @ t=0.2
9.72492799005532
% es.tEx (V/m) @ t=0.2
-7.262866935147837
% es.tEy (V/m) @ t=0.2
0
% es.tEz (V/m) @ t=0.2
9.724927990055313
% V (V) @ t=0.2
0.010734885304356677
% es.normE (V/m) @ t=0.22
13.190991985675897
% es.EX (V/m) @ t=0.22
-7.329450316826568
% es.EY (V/m) @ t=0.22
-0.791149458497717
% es.EZ (V/m) @ t=0.22
9.814082470110925
% es.tEX (V/m) @ t=0.22
-7.3294503168265805
% es.tEY (V/m) @ t=0.22
0
% es.tEZ (V/m) @ t=0.22
9.814082470110904
% es.Ex (V/m) @ t=0.22
-7.329450316826568
% es.Ey (V/m) @ t=0.22
-0.791149458497717
% es.Ez (V/m) @ t=0.22
9.814082470110925
% es.tEx (V/m) @ t=0.22
-7.3294503168265805
% es.tEy (V/m) @ t=0.22
0
% es.tEz (V/m) @ t=0.22
9.814082470110904
% V (V) @ t=0.22
0.010833298455929665
% es.normE (V/m) @ t=0.24
13.310823508135861
% es.EX (V/m) @ t=0.24
-7.39603369850532
% es.EY (V/m) @ t=0.24
-0.7983364078335002
% es.EZ (V/m) @ t=0.24
9.903236950166539
% es.tEX (V/m) @ t=0.24
-7.39603369850534
% es.tEY (V/m) @ t=0.24
0
% es.tEZ (V/m) @ t=0.24
9.90323695016653
% es.Ex (V/m) @ t=0.24
-7.39603369850532
% es.Ey (V/m) @ t=0.24
-0.7983364078335002
% es.Ez (V/m) @ t=0.24
9.903236950166539
% es.tEx (V/m) @ t=0.24
-7.39603369850534
% es.tEy (V/m) @ t=0.24
0
% es.tEz (V/m) @ t=0.24
9.90323695016653
% V (V) @ t=0.24
0.010931711607502658
% es.normE (V/m) @ t=0.26
13.433608195905647
% es.EX (V/m) @ t=0.26
-7.464257075229575
% es.EY (V/m) @ t=0.26
-0.8057013738381285
% es.EZ (V/m) @ t=0.26
9.99458880602723
% es.tEX (V/m) @ t=0.26
-7.464257075229581
% es.tEY (V/m) @ t=0.26
0
% es.tEZ (V/m) @ t=0.26
9.99458880602722
% es.Ex (V/m) @ t=0.26
-7.464257075229575
% es.Ey (V/m) @ t=0.26
-0.8057013738381285
% es.Ez (V/m) @ t=0.26
9.99458880602723
% es.tEx (V/m) @ t=0.26
-7.464257075229581
% es.tEy (V/m) @ t=0.26
0
% es.tEz (V/m) @ t=0.26
9.99458880602722
% V (V) @ t=0.26
0.011032552018577524
% es.normE (V/m) @ t=0.28
13.566150257440393
% es.EX (V/m) @ t=0.28
-7.537899059769641
% es.EY (V/m) @ t=0.28
-0.8136545138837423
% es.EZ (V/m) @ t=0.28
10.093200877547801
% es.tEX (V/m) @ t=0.28
-7.537899059769675
% es.tEY (V/m) @ t=0.28
0
% es.tEZ (V/m) @ t=0.28
10.093200877547794
% es.Ex (V/m) @ t=0.28
-7.537899059769641
% es.Ey (V/m) @ t=0.28
-0.8136545138837423
% es.Ez (V/m) @ t=0.28
10.093200877547801
% es.tEx (V/m) @ t=0.28
-7.537899059769675
% es.tEy (V/m) @ t=0.28
0
% es.tEz (V/m) @ t=0.28
10.093200877547794
% V (V) @ t=0.28
0.011141412190043727
% es.normE (V/m) @ t=0.3
13.698692318977805
% es.EX (V/m) @ t=0.3
-7.611541044309742
% es.EY (V/m) @ t=0.3
-0.821607653929346
% es.EZ (V/m) @ t=0.3
10.191812949068382
% es.tEX (V/m) @ t=0.3
-7.611541044309762
% es.tEY (V/m) @ t=0.3
0
% es.tEZ (V/m) @ t=0.3
10.191812949068371
% es.Ex (V/m) @ t=0.3
-7.611541044309742
% es.Ey (V/m) @ t=0.3
-0.821607653929346
% es.Ez (V/m) @ t=0.3
10.191812949068382
% es.tEx (V/m) @ t=0.3
-7.611541044309762
% es.tEy (V/m) @ t=0.3
0
% es.tEz (V/m) @ t=0.3
10.191812949068371
% V (V) @ t=0.3
0.011250272361509932
% es.normE (V/m) @ t=0.32
13.831234380517806
% es.EX (V/m) @ t=0.32
-7.685183028849838
% es.EY (V/m) @ t=0.32
-0.8295607939749425
% es.EZ (V/m) @ t=0.32
10.29042502058897
% es.tEX (V/m) @ t=0.32
-7.685183028849858
% es.tEY (V/m) @ t=0.32
0
% es.tEZ (V/m) @ t=0.32
10.290425020588941
% es.Ex (V/m) @ t=0.32
-7.685183028849838
% es.Ey (V/m) @ t=0.32
-0.8295607939749425
% es.Ez (V/m) @ t=0.32
10.29042502058897
% es.tEx (V/m) @ t=0.32
-7.685183028849858
% es.tEy (V/m) @ t=0.32
0
% es.tEz (V/m) @ t=0.32
10.290425020588941
% V (V) @ t=0.32
0.011359132532976136
% es.normE (V/m) @ t=0.34
13.96377644206027
% es.EX (V/m) @ t=0.34
-7.758825013389904
% es.EY (V/m) @ t=0.34
-0.8375139340205493
% es.EZ (V/m) @ t=0.34
10.389037092109538
% es.tEX (V/m) @ t=0.34
-7.7588250133899095
% es.tEY (V/m) @ t=0.34
0
% es.tEZ (V/m) @ t=0.34
10.389037092109522
% es.Ex (V/m) @ t=0.34
-7.758825013389904
% es.Ey (V/m) @ t=0.34
-0.8375139340205493
% es.Ez (V/m) @ t=0.34
10.389037092109538
% es.tEx (V/m) @ t=0.34
-7.7588250133899095
% es.tEy (V/m) @ t=0.34
0
% es.tEz (V/m) @ t=0.34
10.389037092109522
% V (V) @ t=0.34
0.011467992704442341
% es.normE (V/m) @ t=0.36
14.096318503605161
% es.EX (V/m) @ t=0.36
-7.832466997930004
% es.EY (V/m) @ t=0.36
-0.8454670740661139
% es.EZ (V/m) @ t=0.36
10.48764916363011
% es.tEX (V/m) @ t=0.36
-7.832466997930025
% es.tEY (V/m) @ t=0.36
0
% es.tEZ (V/m) @ t=0.36
10.487649163630097
% es.Ex (V/m) @ t=0.36
-7.832466997930004
% es.Ey (V/m) @ t=0.36
-0.8454670740661139
% es.Ez (V/m) @ t=0.36
10.48764916363011
% es.tEx (V/m) @ t=0.36
-7.832466997930025
% es.tEy (V/m) @ t=0.36
0
% es.tEz (V/m) @ t=0.36
10.487649163630097
% V (V) @ t=0.36
0.011576852875908546
% es.normE (V/m) @ t=0.38
14.228860565152422
% es.EX (V/m) @ t=0.38
-7.906108982470062
% es.EY (V/m) @ t=0.38
-0.8534202141117215
% es.EZ (V/m) @ t=0.38
10.586261235150678
% es.tEX (V/m) @ t=0.38
-7.906108982470075
% es.tEY (V/m) @ t=0.38
0
% es.tEZ (V/m) @ t=0.38
10.586261235150678
% es.Ex (V/m) @ t=0.38
-7.906108982470062
% es.Ey (V/m) @ t=0.38
-0.8534202141117215
% es.Ez (V/m) @ t=0.38
10.586261235150678
% es.tEx (V/m) @ t=0.38
-7.906108982470075
% es.tEy (V/m) @ t=0.38
0
% es.tEz (V/m) @ t=0.38
10.586261235150678
% V (V) @ t=0.38
0.011685713047374749
% es.normE (V/m) @ t=0.4
14.361402626702002
% es.EX (V/m) @ t=0.4
-7.979750967010164
% es.EY (V/m) @ t=0.4
-0.861373354157311
% es.EZ (V/m) @ t=0.4
10.684873306671257
% es.tEX (V/m) @ t=0.4
-7.979750967010183
% es.tEY (V/m) @ t=0.4
0
% es.tEZ (V/m) @ t=0.4
10.684873306671246
% es.Ex (V/m) @ t=0.4
-7.979750967010164
% es.Ey (V/m) @ t=0.4
-0.861373354157311
% es.Ez (V/m) @ t=0.4
10.684873306671257
% es.tEx (V/m) @ t=0.4
-7.979750967010183
% es.tEy (V/m) @ t=0.4
0
% es.tEz (V/m) @ t=0.4
10.684873306671246
% V (V) @ t=0.4
0.011794573218840951
% es.normE (V/m) @ t=0.42
14.493944688253803
% es.EX (V/m) @ t=0.42
-8.053392951550244
% es.EY (V/m) @ t=0.42
-0.8693264942029182
% es.EZ (V/m) @ t=0.42
10.783485378191845
% es.tEX (V/m) @ t=0.42
-8.053392951550256
% es.tEY (V/m) @ t=0.42
0
% es.tEZ (V/m) @ t=0.42
10.78348537819183
% es.Ex (V/m) @ t=0.42
-8.053392951550244
% es.Ey (V/m) @ t=0.42
-0.8693264942029182
% es.Ez (V/m) @ t=0.42
10.783485378191845
% es.tEx (V/m) @ t=0.42
-8.053392951550256
% es.tEy (V/m) @ t=0.42
0
% es.tEz (V/m) @ t=0.42
10.78348537819183
% V (V) @ t=0.42
0.011903433390307158
% es.normE (V/m) @ t=0.44
14.626486749807762
% es.EX (V/m) @ t=0.44
-8.12703493609031
% es.EY (V/m) @ t=0.44
-0.8772796342485143
% es.EZ (V/m) @ t=0.44
10.882097449712413
% es.tEX (V/m) @ t=0.44
-8.127034936090329
% es.tEY (V/m) @ t=0.44
0
% es.tEZ (V/m) @ t=0.44
10.8820974497124
% es.Ex (V/m) @ t=0.44
-8.12703493609031
% es.Ey (V/m) @ t=0.44
-0.8772796342485143
% es.Ez (V/m) @ t=0.44
10.882097449712413
% es.tEx (V/m) @ t=0.44
-8.127034936090329
% es.tEy (V/m) @ t=0.44
0
% es.tEz (V/m) @ t=0.44
10.8820974497124
% V (V) @ t=0.44
0.01201229356177336
% es.normE (V/m) @ t=0.46
14.759028811363834
% es.EX (V/m) @ t=0.46
-8.20067692063041
% es.EY (V/m) @ t=0.46
-0.8852327742941002
% es.EZ (V/m) @ t=0.46
10.980709521232965
% es.tEX (V/m) @ t=0.46
-8.200676920630416
% es.tEY (V/m) @ t=0.46
0
% es.tEZ (V/m) @ t=0.46
10.980709521232953
% es.Ex (V/m) @ t=0.46
-8.20067692063041
% es.Ey (V/m) @ t=0.46
-0.8852327742941002
% es.Ez (V/m) @ t=0.46
10.980709521232965
% es.tEx (V/m) @ t=0.46
-8.200676920630416
% es.tEy (V/m) @ t=0.46
0
% es.tEz (V/m) @ t=0.46
10.980709521232953
% V (V) @ t=0.46
0.012121153733239565
% es.normE (V/m) @ t=0.48
14.891570872921989
% es.EX (V/m) @ t=0.48
-8.27431890517049
% es.EY (V/m) @ t=0.48
-0.8931859143396901
% es.EZ (V/m) @ t=0.48
11.079321592753562
% es.tEX (V/m) @ t=0.48
-8.27431890517051
% es.tEY (V/m) @ t=0.48
0
% es.tEZ (V/m) @ t=0.48
11.079321592753551
% es.Ex (V/m) @ t=0.48
-8.27431890517049
% es.Ey (V/m) @ t=0.48
-0.8931859143396901
% es.Ez (V/m) @ t=0.48
11.079321592753562
% es.tEx (V/m) @ t=0.48
-8.27431890517051
% es.tEy (V/m) @ t=0.48
0
% es.tEz (V/m) @ t=0.48
11.079321592753551
% V (V) @ t=0.48
0.01223001390470577
% es.normE (V/m) @ t=0.5
15.024112934482144
% es.EX (V/m) @ t=0.5
-8.347960889710585
% es.EY (V/m) @ t=0.5
-0.9011390543852795
% es.EZ (V/m) @ t=0.5
11.177933664274146
% es.tEX (V/m) @ t=0.5
-8.34796088971059
% es.tEY (V/m) @ t=0.5
0
% es.tEZ (V/m) @ t=0.5
11.17793366427414
% es.Ex (V/m) @ t=0.5
-8.347960889710585
% es.Ey (V/m) @ t=0.5
-0.9011390543852795
% es.Ez (V/m) @ t=0.5
11.177933664274146
% es.tEx (V/m) @ t=0.5
-8.34796088971059
% es.tEy (V/m) @ t=0.5
0
% es.tEz (V/m) @ t=0.5
11.17793366427414
% V (V) @ t=0.5
0.012338874076171975
% es.normE (V/m) @ t=0.52
15.163379552226665
% es.EX (V/m) @ t=0.52
-8.425339108550547
% es.EY (V/m) @ t=0.52
-0.9094957101402152
% es.EZ (V/m) @ t=0.52
11.281548847914642
% es.tEX (V/m) @ t=0.52
-8.42533910855056
% es.tEY (V/m) @ t=0.52
0
% es.tEZ (V/m) @ t=0.52
11.281548847914635
% es.Ex (V/m) @ t=0.52
-8.425339108550547
% es.Ey (V/m) @ t=0.52
-0.9094957101402152
% es.Ez (V/m) @ t=0.52
11.281548847914642
% es.tEx (V/m) @ t=0.52
-8.42533910855056
% es.tEy (V/m) @ t=0.52
0
% es.tEz (V/m) @ t=0.52
11.281548847914635
% V (V) @ t=0.52
0.012453257320289984
% es.normE (V/m) @ t=0.54
15.310201502799005
% es.EX (V/m) @ t=0.54
-8.506915149950688
% es.EY (V/m) @ t=0.54
-0.9183057334336842
% es.EZ (V/m) @ t=0.54
11.390785246725965
% es.tEX (V/m) @ t=0.54
-8.5069151499507
% es.tEY (V/m) @ t=0.54
0
% es.tEZ (V/m) @ t=0.54
11.390785246725951
% es.Ex (V/m) @ t=0.54
-8.506915149950688
% es.Ey (V/m) @ t=0.54
-0.9183057334336842
% es.Ez (V/m) @ t=0.54
11.390785246725965
% es.tEx (V/m) @ t=0.54
-8.5069151499507
% es.tEy (V/m) @ t=0.54
0
% es.tEz (V/m) @ t=0.54
11.390785246725951
% V (V) @ t=0.54
0.012573845977965742
% es.normE (V/m) @ t=0.56
15.457023453373603
% es.EX (V/m) @ t=0.56
-8.588491191350828
% es.EY (V/m) @ t=0.56
-0.9271157567271464
% es.EZ (V/m) @ t=0.56
11.50002164553725
% es.tEX (V/m) @ t=0.56
-8.58849119135084
% es.tEY (V/m) @ t=0.56
0
% es.tEZ (V/m) @ t=0.56
11.50002164553724
% es.Ex (V/m) @ t=0.56
-8.588491191350828
% es.Ey (V/m) @ t=0.56
-0.9271157567271464
% es.Ez (V/m) @ t=0.56
11.50002164553725
% es.tEx (V/m) @ t=0.56
-8.58849119135084
% es.tEy (V/m) @ t=0.56
0
% es.tEz (V/m) @ t=0.56
11.50002164553724
% V (V) @ t=0.56
0.012694434635641492
% es.normE (V/m) @ t=0.58
15.603845403950476
% es.EX (V/m) @ t=0.58
-8.670067232750997
% es.EY (V/m) @ t=0.58
-0.9359257800206437
% es.EZ (V/m) @ t=0.58
11.609258044348579
% es.tEX (V/m) @ t=0.58
-8.670067232751009
% es.tEY (V/m) @ t=0.58
0
% es.tEZ (V/m) @ t=0.58
11.609258044348554
% es.Ex (V/m) @ t=0.58
-8.670067232750997
% es.Ey (V/m) @ t=0.58
-0.9359257800206437
% es.Ez (V/m) @ t=0.58
11.609258044348579
% es.tEx (V/m) @ t=0.58
-8.670067232751009
% es.tEy (V/m) @ t=0.58
0
% es.tEz (V/m) @ t=0.58
11.609258044348554
% V (V) @ t=0.58
0.012815023293317249
% es.normE (V/m) @ t=0.6
15.750667354529483
% es.EX (V/m) @ t=0.6
-8.751643274151157
% es.EY (V/m) @ t=0.6
-0.9447358033140878
% es.EZ (V/m) @ t=0.6
11.718494443159882
% es.tEX (V/m) @ t=0.6
-8.751643274151162
% es.tEY (V/m) @ t=0.6
0
% es.tEZ (V/m) @ t=0.6
11.718494443159873
% es.Ex (V/m) @ t=0.6
-8.751643274151157
% es.Ey (V/m) @ t=0.6
-0.9447358033140878
% es.Ez (V/m) @ t=0.6
11.718494443159882
% es.tEx (V/m) @ t=0.6
-8.751643274151162
% es.tEy (V/m) @ t=0.6
0
% es.tEz (V/m) @ t=0.6
11.718494443159873
% V (V) @ t=0.6
0.012935611950993006
% es.normE (V/m) @ t=0.62
15.897489305110605
% es.EX (V/m) @ t=0.62
-8.83321931555132
% es.EY (V/m) @ t=0.62
-0.9535458266075851
% es.EZ (V/m) @ t=0.62
11.827730841971196
% es.tEX (V/m) @ t=0.62
-8.833219315551332
% es.tEY (V/m) @ t=0.62
0
% es.tEZ (V/m) @ t=0.62
11.827730841971192
% es.Ex (V/m) @ t=0.62
-8.83321931555132
% es.Ey (V/m) @ t=0.62
-0.9535458266075851
% es.Ez (V/m) @ t=0.62
11.827730841971196
% es.tEx (V/m) @ t=0.62
-8.833219315551332
% es.tEy (V/m) @ t=0.62
0
% es.tEz (V/m) @ t=0.62
11.827730841971192
% V (V) @ t=0.62
0.013056200608668762
% es.normE (V/m) @ t=0.64
16.044311255693792
% es.EX (V/m) @ t=0.64
-8.91479535695146
% es.EY (V/m) @ t=0.64
-0.9623558499010789
% es.EZ (V/m) @ t=0.64
11.936967240782508
% es.tEX (V/m) @ t=0.64
-8.91479535695148
% es.tEY (V/m) @ t=0.64
0
% es.tEZ (V/m) @ t=0.64
11.936967240782483
% es.Ex (V/m) @ t=0.64
-8.91479535695146
% es.Ey (V/m) @ t=0.64
-0.9623558499010789
% es.Ez (V/m) @ t=0.64
11.936967240782508
% es.tEx (V/m) @ t=0.64
-8.91479535695148
% es.tEy (V/m) @ t=0.64
0
% es.tEz (V/m) @ t=0.64
11.936967240782483
% V (V) @ t=0.64
0.013176789266344515
% es.normE (V/m) @ t=0.66
16.191133206278955
% es.EX (V/m) @ t=0.66
-8.996371398351627
% es.EY (V/m) @ t=0.66
-0.97116587319457
% es.EZ (V/m) @ t=0.66
12.046203639593838
% es.tEX (V/m) @ t=0.66
-8.996371398351647
% es.tEY (V/m) @ t=0.66
0
% es.tEZ (V/m) @ t=0.66
12.046203639593813
% es.Ex (V/m) @ t=0.66
-8.996371398351627
% es.Ey (V/m) @ t=0.66
-0.97116587319457
% es.Ez (V/m) @ t=0.66
12.046203639593838
% es.tEx (V/m) @ t=0.66
-8.996371398351647
% es.tEy (V/m) @ t=0.66
0
% es.tEz (V/m) @ t=0.66
12.046203639593813
% V (V) @ t=0.66
0.013297377924020271
% es.normE (V/m) @ t=0.68
16.337955156866037
% es.EX (V/m) @ t=0.68
-9.077947439751767
% es.EY (V/m) @ t=0.68
-0.9799758964880314
% es.EZ (V/m) @ t=0.68
12.155440038405157
% es.tEX (V/m) @ t=0.68
-9.07794743975178
% es.tEY (V/m) @ t=0.68
0
% es.tEZ (V/m) @ t=0.68
12.15544003840515
% es.Ex (V/m) @ t=0.68
-9.077947439751767
% es.Ey (V/m) @ t=0.68
-0.9799758964880314
% es.Ez (V/m) @ t=0.68
12.155440038405157
% es.tEx (V/m) @ t=0.68
-9.07794743975178
% es.tEy (V/m) @ t=0.68
0
% es.tEz (V/m) @ t=0.68
12.15544003840515
% V (V) @ t=0.68
0.013417966581696028
% es.normE (V/m) @ t=0.7
16.484777107455017
% es.EX (V/m) @ t=0.7
-9.159523481151929
% es.EY (V/m) @ t=0.7
-0.9887859197814644
% es.EZ (V/m) @ t=0.7
12.264676437216464
% es.tEX (V/m) @ t=0.7
-9.159523481151941
% es.tEY (V/m) @ t=0.7
0
% es.tEZ (V/m) @ t=0.7
12.264676437216462
% es.Ex (V/m) @ t=0.7
-9.159523481151929
% es.Ey (V/m) @ t=0.7
-0.9887859197814644
% es.Ez (V/m) @ t=0.7
12.264676437216464
% es.tEx (V/m) @ t=0.7
-9.159523481151941
% es.tEy (V/m) @ t=0.7
0
% es.tEz (V/m) @ t=0.7
12.264676437216462
% V (V) @ t=0.7
0.013538555239371784
% es.normE (V/m) @ t=0.72
16.63159905804584
% es.EX (V/m) @ t=0.72
-9.24109952255209
% es.EY (V/m) @ t=0.72
-0.9975959430749732
% es.EZ (V/m) @ t=0.72
12.373912836027777
% es.tEX (V/m) @ t=0.72
-9.241099522552117
% es.tEY (V/m) @ t=0.72
0
% es.tEZ (V/m) @ t=0.72
12.373912836027753
% es.Ex (V/m) @ t=0.72
-9.24109952255209
% es.Ey (V/m) @ t=0.72
-0.9975959430749732
% es.Ez (V/m) @ t=0.72
12.373912836027777
% es.tEx (V/m) @ t=0.72
-9.241099522552117
% es.tEy (V/m) @ t=0.72
0
% es.tEz (V/m) @ t=0.72
12.373912836027753
% V (V) @ t=0.72
0.013659143897047537
% es.normE (V/m) @ t=0.74
16.778421008638446
% es.EX (V/m) @ t=0.74
-9.322675563952231
% es.EY (V/m) @ t=0.74
-1.0064059663684777
% es.EZ (V/m) @ t=0.74
12.483149234839106
% es.tEX (V/m) @ t=0.74
-9.322675563952243
% es.tEY (V/m) @ t=0.74
0
% es.tEZ (V/m) @ t=0.74
12.483149234839104
% es.Ex (V/m) @ t=0.74
-9.322675563952231
% es.Ey (V/m) @ t=0.74
-1.0064059663684777
% es.Ez (V/m) @ t=0.74
12.483149234839106
% es.tEx (V/m) @ t=0.74
-9.322675563952243
% es.tEy (V/m) @ t=0.74
0
% es.tEz (V/m) @ t=0.74
12.483149234839104
% V (V) @ t=0.74
0.013779732554723293
% es.normE (V/m) @ t=0.76
16.92524295923279
% es.EX (V/m) @ t=0.76
-9.404251605352377
% es.EY (V/m) @ t=0.76
-1.0152159896619612
% es.EZ (V/m) @ t=0.76
12.592385633650425
% es.tEX (V/m) @ t=0.76
-9.404251605352389
% es.tEY (V/m) @ t=0.76
0
% es.tEZ (V/m) @ t=0.76
12.592385633650414
% es.Ex (V/m) @ t=0.76
-9.404251605352377
% es.Ey (V/m) @ t=0.76
-1.0152159896619612
% es.Ez (V/m) @ t=0.76
12.592385633650425
% es.tEx (V/m) @ t=0.76
-9.404251605352389
% es.tEy (V/m) @ t=0.76
0
% es.tEz (V/m) @ t=0.76
12.592385633650414
% V (V) @ t=0.76
0.013900321212399048
% es.normE (V/m) @ t=0.78
17.083469971568853
% es.EX (V/m) @ t=0.78
-9.492165419352402
% es.EY (V/m) @ t=0.78
-1.024709396292133
% es.EZ (V/m) @ t=0.78
12.710107221596399
% es.tEX (V/m) @ t=0.78
-9.492165419352414
% es.tEY (V/m) @ t=0.78
0
% es.tEZ (V/m) @ t=0.78
12.710107221596385
% es.Ex (V/m) @ t=0.78
-9.492165419352402
% es.Ey (V/m) @ t=0.78
-1.024709396292133
% es.Ez (V/m) @ t=0.78
12.710107221596399
% es.tEx (V/m) @ t=0.78
-9.492165419352414
% es.tEy (V/m) @ t=0.78
0
% es.tEz (V/m) @ t=0.78
12.710107221596385
% V (V) @ t=0.78
0.014030275043154043
% es.normE (V/m) @ t=0.8
17.24636711711952
% es.EX (V/m) @ t=0.8
-9.582674418104066
% es.EY (V/m) @ t=0.8
-1.034482634043961
% es.EZ (V/m) @ t=0.8
12.831303316257486
% es.tEX (V/m) @ t=0.8
-9.582674418104071
% es.tEY (V/m) @ t=0.8
0
% es.tEZ (V/m) @ t=0.8
12.831303316257475
% es.Ex (V/m) @ t=0.8
-9.582674418104066
% es.Ey (V/m) @ t=0.8
-1.034482634043961
% es.Ez (V/m) @ t=0.8
12.831303316257486
% es.tEx (V/m) @ t=0.8
-9.582674418104071
% es.tEy (V/m) @ t=0.8
0
% es.tEz (V/m) @ t=0.8
12.831303316257475
% V (V) @ t=0.8
0.01416406371556499
% es.normE (V/m) @ t=0.82
17.409264262670945
% es.EX (V/m) @ t=0.82
-9.673183416855734
% es.EY (V/m) @ t=0.82
-1.044255871795718
% es.EZ (V/m) @ t=0.82
12.952499410918588
% es.tEX (V/m) @ t=0.82
-9.673183416855746
% es.tEY (V/m) @ t=0.82
0
% es.tEZ (V/m) @ t=0.82
12.952499410918563
% es.Ex (V/m) @ t=0.82
-9.673183416855734
% es.Ey (V/m) @ t=0.82
-1.044255871795718
% es.Ez (V/m) @ t=0.82
12.952499410918588
% es.tEx (V/m) @ t=0.82
-9.673183416855746
% es.tEy (V/m) @ t=0.82
0
% es.tEz (V/m) @ t=0.82
12.952499410918563
% V (V) @ t=0.82
0.014297852387975938
% es.normE (V/m) @ t=0.84
17.57216140822313
% es.EX (V/m) @ t=0.84
-9.76369241560739
% es.EY (V/m) @ t=0.84
-1.0540291095474958
% es.EZ (V/m) @ t=0.84
13.073695505579725
% es.tEX (V/m) @ t=0.84
-9.763692415607402
% es.tEY (V/m) @ t=0.84
0
% es.tEZ (V/m) @ t=0.84
13.073695505579707
% es.Ex (V/m) @ t=0.84
-9.76369241560739
% es.Ey (V/m) @ t=0.84
-1.0540291095474958
% es.Ez (V/m) @ t=0.84
13.073695505579725
% es.tEx (V/m) @ t=0.84
-9.763692415607402
% es.tEy (V/m) @ t=0.84
0
% es.tEz (V/m) @ t=0.84
13.073695505579707
% V (V) @ t=0.84
0.014431641060386885
% es.normE (V/m) @ t=0.86
17.735058553776053
% es.EX (V/m) @ t=0.86
-9.854201414359064
% es.EY (V/m) @ t=0.86
-1.0638023472993203
% es.EZ (V/m) @ t=0.86
13.194891600240835
% es.tEX (V/m) @ t=0.86
-9.854201414359084
% es.tEY (V/m) @ t=0.86
0
% es.tEZ (V/m) @ t=0.86
13.194891600240807
% es.Ex (V/m) @ t=0.86
-9.854201414359064
% es.Ey (V/m) @ t=0.86
-1.0638023472993203
% es.Ez (V/m) @ t=0.86
13.194891600240835
% es.tEx (V/m) @ t=0.86
-9.854201414359084
% es.tEy (V/m) @ t=0.86
0
% es.tEz (V/m) @ t=0.86
13.194891600240807
% V (V) @ t=0.86
0.014565429732797838
% es.normE (V/m) @ t=0.88
17.897955699329664
% es.EX (V/m) @ t=0.88
-9.944710413110732
% es.EY (V/m) @ t=0.88
-1.0735755850510946
% es.EZ (V/m) @ t=0.88
13.316087694901949
% es.tEX (V/m) @ t=0.88
-9.944710413110744
% es.tEY (V/m) @ t=0.88
0
% es.tEZ (V/m) @ t=0.88
13.31608769490192
% es.Ex (V/m) @ t=0.88
-9.944710413110732
% es.Ey (V/m) @ t=0.88
-1.0735755850510946
% es.Ez (V/m) @ t=0.88
13.316087694901949
% es.tEx (V/m) @ t=0.88
-9.944710413110744
% es.tEy (V/m) @ t=0.88
0
% es.tEz (V/m) @ t=0.88
13.31608769490192
% V (V) @ t=0.88
0.014699218405208785
% es.normE (V/m) @ t=0.9
18.060852844883946
% es.EX (V/m) @ t=0.9
-10.035219411862382
% es.EY (V/m) @ t=0.9
-1.0833488228029013
% es.EZ (V/m) @ t=0.9
13.437283789563047
% es.tEX (V/m) @ t=0.9
-10.035219411862387
% es.tEY (V/m) @ t=0.9
0
% es.tEZ (V/m) @ t=0.9
13.437283789563025
% es.Ex (V/m) @ t=0.9
-10.035219411862382
% es.Ey (V/m) @ t=0.9
-1.0833488228029013
% es.Ez (V/m) @ t=0.9
13.437283789563047
% es.tEx (V/m) @ t=0.9
-10.035219411862387
% es.tEy (V/m) @ t=0.9
0
% es.tEz (V/m) @ t=0.9
13.437283789563025
% V (V) @ t=0.9
0.014833007077619736
% es.normE (V/m) @ t=0.92
18.223749990438897
% es.EX (V/m) @ t=0.92
-10.125728410614022
% es.EY (V/m) @ t=0.92
-1.0931220605547116
% es.EZ (V/m) @ t=0.92
13.55847988422415
% es.tEX (V/m) @ t=0.92
-10.125728410614041
% es.tEY (V/m) @ t=0.92
0
% es.tEZ (V/m) @ t=0.92
13.55847988422415
% es.Ex (V/m) @ t=0.92
-10.125728410614022
% es.Ey (V/m) @ t=0.92
-1.0931220605547116
% es.Ez (V/m) @ t=0.92
13.55847988422415
% es.tEx (V/m) @ t=0.92
-10.125728410614041
% es.tEy (V/m) @ t=0.92
0
% es.tEz (V/m) @ t=0.92
13.55847988422415
% V (V) @ t=0.92
0.014966795750030683
% es.normE (V/m) @ t=0.94
18.386647135994508
% es.EX (V/m) @ t=0.94
-10.216237409365704
% es.EY (V/m) @ t=0.94
-1.10289529830649
% es.EZ (V/m) @ t=0.94
13.679675978885264
% es.tEX (V/m) @ t=0.94
-10.216237409365709
% es.tEY (V/m) @ t=0.94
0
% es.tEZ (V/m) @ t=0.94
13.679675978885246
% es.Ex (V/m) @ t=0.94
-10.216237409365704
% es.Ey (V/m) @ t=0.94
-1.10289529830649
% es.Ez (V/m) @ t=0.94
13.679675978885264
% es.tEx (V/m) @ t=0.94
-10.216237409365709
% es.tEy (V/m) @ t=0.94
0
% es.tEz (V/m) @ t=0.94
13.679675978885246
% V (V) @ t=0.94
0.015100584422441634
% es.normE (V/m) @ t=0.96
18.549544281550734
% es.EX (V/m) @ t=0.96
-10.306746408117366
% es.EY (V/m) @ t=0.96
-1.1126685360582997
% es.EZ (V/m) @ t=0.96
13.800872073546351
% es.tEX (V/m) @ t=0.96
-10.306746408117393
% es.tEY (V/m) @ t=0.96
0
% es.tEZ (V/m) @ t=0.96
13.800872073546337
% es.Ex (V/m) @ t=0.96
-10.306746408117366
% es.Ey (V/m) @ t=0.96
-1.1126685360582997
% es.Ez (V/m) @ t=0.96
13.800872073546351
% es.tEx (V/m) @ t=0.96
-10.306746408117393
% es.tEy (V/m) @ t=0.96
0
% es.tEz (V/m) @ t=0.96
13.800872073546337
% V (V) @ t=0.96
0.015234373094852583
% es.normE (V/m) @ t=0.98
18.7124414271076
% es.EX (V/m) @ t=0.98
-10.397255406869041
% es.EY (V/m) @ t=0.98
-1.122441773810067
% es.EZ (V/m) @ t=0.98
13.922068168207462
% es.tEX (V/m) @ t=0.98
-10.397255406869073
% es.tEY (V/m) @ t=0.98
0
% es.tEZ (V/m) @ t=0.98
13.92206816820744
% es.Ex (V/m) @ t=0.98
-10.397255406869041
% es.Ey (V/m) @ t=0.98
-1.122441773810067
% es.Ez (V/m) @ t=0.98
13.922068168207462
% es.tEx (V/m) @ t=0.98
-10.397255406869073
% es.tEy (V/m) @ t=0.98
0
% es.tEz (V/m) @ t=0.98
13.92206816820744
% V (V) @ t=0.98
0.01536816176726353
% es.normE (V/m) @ t=1
18.87533857266506
% es.EX (V/m) @ t=1
-10.487764405620712
% es.EY (V/m) @ t=1
-1.1322150115618275
% es.EZ (V/m) @ t=1
14.043264262868576
% es.tEX (V/m) @ t=1
-10.487764405620725
% es.tEY (V/m) @ t=1
0
% es.tEZ (V/m) @ t=1
14.043264262868556
% es.Ex (V/m) @ t=1
-10.487764405620712
% es.Ey (V/m) @ t=1
-1.1322150115618275
% es.Ez (V/m) @ t=1
14.043264262868576
% es.tEx (V/m) @ t=1
-10.487764405620725
% es.tEy (V/m) @ t=1
0
% es.tEz (V/m) @ t=1
14.043264262868556
% V (V) @ t=1
0.015501950439674481
% es.normE (V/m) @ t=1.02
19.038235718223113
% es.EX (V/m) @ t=1.02
-10.578273404372359
% es.EY (V/m) @ t=1.02
-1.1419882493136582
% es.EZ (V/m) @ t=1.02
14.164460357529695
% es.tEX (V/m) @ t=1.02
-10.578273404372371
% es.tEY (V/m) @ t=1.02
0
% es.tEZ (V/m) @ t=1.02
14.164460357529666
% es.Ex (V/m) @ t=1.02
-10.578273404372359
% es.Ey (V/m) @ t=1.02
-1.1419882493136582
% es.Ez (V/m) @ t=1.02
14.164460357529695
% es.tEx (V/m) @ t=1.02
-10.578273404372371
% es.tEy (V/m) @ t=1.02
0
% es.tEz (V/m) @ t=1.02
14.164460357529666
% V (V) @ t=1.02
0.015635739112085427
% es.normE (V/m) @ t=1.04
19.208667626374993
% es.EX (V/m) @ t=1.04
-10.672972027690674
% es.EY (V/m) @ t=1.04
-1.152210415135114
% es.EZ (V/m) @ t=1.04
14.29126156049476
% es.tEX (V/m) @ t=1.04
-10.672972027690687
% es.tEY (V/m) @ t=1.04
0
% es.tEZ (V/m) @ t=1.04
14.291261560494739
% es.Ex (V/m) @ t=1.04
-10.672972027690674
% es.Ey (V/m) @ t=1.04
-1.152210415135114
% es.Ez (V/m) @ t=1.04
14.29126156049476
% es.tEx (V/m) @ t=1.04