% Model:              1 neuron.mph
% Version:            COMSOL 6.1.0.252
% Date:               Mar 22 2023, 18:04
% Dimension:          0
% Nodes:              14017
% Expressions:        14017
% Description:        Electric field norm, Electric field, X component, Electric field, Y component, Electric field, Z component, Tangential electric field, X component, Tangential electric field, Y component, Tangential electric field, Z component, Electric field, x component, Electric field, y component, Electric field, z component, Tangential electric field, x component, Tangential electric field, y component, Tangential electric field, z component, Electric potential
% Length unit:        mm
% x
1.66
% y
12.2
% z
2
% es.normE (V/m) @ t=0
2.6535999132730197
% es.EX (V/m) @ t=0
-0.7916245058942986
% es.EY (V/m) @ t=0
0.05913103054003144
% es.EZ (V/m) @ t=0
-2.5278188132966095
% es.tEX (V/m) @ t=0
-0.7916245058943048
% es.tEY (V/m) @ t=0
0
% es.tEZ (V/m) @ t=0
-2.527818813296637
% es.Ex (V/m) @ t=0
-0.7916245058942986
% es.Ey (V/m) @ t=0
0.05913103054003144
% es.Ez (V/m) @ t=0
-2.5278188132966095
% es.tEx (V/m) @ t=0
-0.7916245058943048
% es.tEy (V/m) @ t=0
0
% es.tEz (V/m) @ t=0
-2.527818813296637
% V (V) @ t=0
0.013338095910013193
% es.normE (V/m) @ t=0.02
2.291937371401006
% es.EX (V/m) @ t=0.02
-0.6837329854786723
% es.EY (V/m) @ t=0.02
0.05107198764963092
% es.EZ (V/m) @ t=0.02
-2.1832991388473477
% es.tEX (V/m) @ t=0.02
-0.6837329854786809
% es.tEY (V/m) @ t=0.02
0
% es.tEZ (V/m) @ t=0.02
-2.183299138847362
% es.Ex (V/m) @ t=0.02
-0.6837329854786723
% es.Ey (V/m) @ t=0.02
0.05107198764963092
% es.Ez (V/m) @ t=0.02
-2.1832991388473477
% es.tEx (V/m) @ t=0.02
-0.6837329854786809
% es.tEy (V/m) @ t=0.02
0
% es.tEz (V/m) @ t=0.02
-2.183299138847362
% V (V) @ t=0.02
0.011520229626707876
% es.normE (V/m) @ t=0.04
2.3130177844993693
% es.EX (V/m) @ t=0.04
-0.6900217163020264
% es.EY (V/m) @ t=0.04
0.05154173211407731
% es.EZ (V/m) @ t=0.04
-2.203380335984998
% es.tEX (V/m) @ t=0.04
-0.6900217163020343
% es.tEY (V/m) @ t=0.04
0
% es.tEZ (V/m) @ t=0.04
-2.2033803359850266
% es.Ex (V/m) @ t=0.04
-0.6900217163020264
% es.Ey (V/m) @ t=0.04
0.05154173211407731
% es.Ez (V/m) @ t=0.04
-2.203380335984998
% es.tEx (V/m) @ t=0.04
-0.6900217163020343
% es.tEy (V/m) @ t=0.04
0
% es.tEz (V/m) @ t=0.04
-2.2033803359850266
% V (V) @ t=0.04
0.011626188425435526
% es.normE (V/m) @ t=0.06
2.334248953440154
% es.EX (V/m) @ t=0.06
-0.6963554183928905
% es.EY (V/m) @ t=0.06
0.052014831578087214
% es.EZ (V/m) @ t=0.06
-2.2236051442064557
% es.tEX (V/m) @ t=0.06
-0.6963554183928906
% es.tEY (V/m) @ t=0.06
0
% es.tEZ (V/m) @ t=0.06
-2.2236051442064815
% es.Ex (V/m) @ t=0.06
-0.6963554183928905
% es.Ey (V/m) @ t=0.06
0.052014831578087214
% es.Ez (V/m) @ t=0.06
-2.2236051442064557
% es.tEx (V/m) @ t=0.06
-0.6963554183928906
% es.tEy (V/m) @ t=0.06
0
% es.tEz (V/m) @ t=0.06
-2.2236051442064815
% V (V) @ t=0.06
0.011732905171560665
% es.normE (V/m) @ t=0.08
2.35589339907576
% es.EX (V/m) @ t=0.08
-0.702812410316665
% es.EY (V/m) @ t=0.08
0.05249714157572176
% es.EZ (V/m) @ t=0.08
-2.2442236393967354
% es.tEX (V/m) @ t=0.08
-0.7028124103166711
% es.tEY (V/m) @ t=0.08
0
% es.tEZ (V/m) @ t=0.08
-2.2442236393967496
% es.Ex (V/m) @ t=0.08
-0.702812410316665
% es.Ey (V/m) @ t=0.08
0.05249714157572176
% es.Ez (V/m) @ t=0.08
-2.2442236393967354
% es.tEx (V/m) @ t=0.08
-0.7028124103166711
% es.tEy (V/m) @ t=0.08
0
% es.tEz (V/m) @ t=0.08
-2.2442236393967496
% V (V) @ t=0.08
0.011841699160568347
% es.normE (V/m) @ t=0.1
2.37763897021766
% es.EX (V/m) @ t=0.1
-0.7092995702778087
% es.EY (V/m) @ t=0.1
0.05298170531737638
% es.EZ (V/m) @ t=0.1
-2.264938466643825
% es.tEX (V/m) @ t=0.1
-0.7092995702778175
% es.tEY (V/m) @ t=0.1
0
% es.tEZ (V/m) @ t=0.1
-2.26493846664384
% es.Ex (V/m) @ t=0.1
-0.7092995702778087
% es.Ey (V/m) @ t=0.1
0.05298170531737638
% es.Ez (V/m) @ t=0.1
-2.264938466643825
% es.tEx (V/m) @ t=0.1
-0.7092995702778175
% es.tEy (V/m) @ t=0.1
0
% es.tEz (V/m) @ t=0.1
-2.26493846664384
% V (V) @ t=0.1
0.011951001434317937
% es.normE (V/m) @ t=0.12
2.399384541359531
% es.EX (V/m) @ t=0.12
-0.7157867302389533
% es.EY (V/m) @ t=0.12
0.053466269059046515
% es.EZ (V/m) @ t=0.12
-2.285653293890885
% es.tEX (V/m) @ t=0.12
-0.7157867302389569
% es.tEY (V/m) @ t=0.12
0
% es.tEZ (V/m) @ t=0.12
-2.2856532938909133
% es.Ex (V/m) @ t=0.12
-0.7157867302389533
% es.Ey (V/m) @ t=0.12
0.053466269059046515
% es.Ez (V/m) @ t=0.12
-2.285653293890885
% es.tEx (V/m) @ t=0.12
-0.7157867302389569
% es.tEy (V/m) @ t=0.12
0
% es.tEz (V/m) @ t=0.12
-2.2856532938909133
% V (V) @ t=0.12
0.012060303708067523
% es.normE (V/m) @ t=0.14
2.4217949378600165
% es.EX (V/m) @ t=0.14
-0.7224722242159822
% es.EY (V/m) @ t=0.14
0.053965652452660356
% es.EZ (V/m) @ t=0.14
-2.307001432406336
% es.tEX (V/m) @ t=0.14
-0.7224722242159913
% es.tEY (V/m) @ t=0.14
0
% es.tEZ (V/m) @ t=0.14
-2.307001432406371
% es.Ex (V/m) @ t=0.14
-0.7224722242159822
% es.Ey (V/m) @ t=0.14
0.053965652452660356
% es.Ez (V/m) @ t=0.14
-2.307001432406336
% es.tEx (V/m) @ t=0.14
-0.7224722242159913
% es.tEy (V/m) @ t=0.14
0
% es.tEz (V/m) @ t=0.14
-2.307001432406371
% V (V) @ t=0.14
0.012172947456622979
% es.normE (V/m) @ t=0.16
2.444624956642344
% es.EX (V/m) @ t=0.16
-0.729282902004419
% es.EY (V/m) @ t=0.16
0.054474389665445724
% es.EZ (V/m) @ t=0.16
-2.3287493022438808
% es.tEX (V/m) @ t=0.16
-0.7292829020044245
% es.tEY (V/m) @ t=0.16
0
% es.tEZ (V/m) @ t=0.16
-2.3287493022439003
% es.Ex (V/m) @ t=0.16
-0.729282902004419
% es.Ey (V/m) @ t=0.16
0.054474389665445724
% es.Ez (V/m) @ t=0.16
-2.3287493022438808
% es.tEx (V/m) @ t=0.16
-0.7292829020044245
% es.tEy (V/m) @ t=0.16
0
% es.tEz (V/m) @ t=0.16
-2.3287493022439003
% V (V) @ t=0.16
0.012287700266249124
% es.normE (V/m) @ t=0.18
2.4674549754246566
% es.EX (V/m) @ t=0.18
-0.7360935797928525
% es.EY (V/m) @ t=0.18
0.05498312687822443
% es.EZ (V/m) @ t=0.18
-2.3504971720814103
% es.tEX (V/m) @ t=0.18
-0.7360935797928612
% es.tEY (V/m) @ t=0.18
0
% es.tEZ (V/m) @ t=0.18
-2.350497172081428
% es.Ex (V/m) @ t=0.18
-0.7360935797928525
% es.Ey (V/m) @ t=0.18
0.05498312687822443
% es.Ez (V/m) @ t=0.18
-2.3504971720814103
% es.tEx (V/m) @ t=0.18
-0.7360935797928612
% es.tEy (V/m) @ t=0.18
0
% es.tEz (V/m) @ t=0.18
-2.350497172081428
% V (V) @ t=0.18
0.012402453075875269
% es.normE (V/m) @ t=0.2
2.490284994206965
% es.EX (V/m) @ t=0.2
-0.7429042575812892
% es.EY (V/m) @ t=0.2
0.05549186409100655
% es.EZ (V/m) @ t=0.2
-2.3722450419189336
% es.tEX (V/m) @ t=0.2
-0.7429042575812908
% es.tEY (V/m) @ t=0.2
0
% es.tEZ (V/m) @ t=0.2
-2.3722450419189514
% es.Ex (V/m) @ t=0.2
-0.7429042575812892
% es.Ey (V/m) @ t=0.2
0.05549186409100655
% es.Ez (V/m) @ t=0.2
-2.3722450419189336
% es.tEx (V/m) @ t=0.2
-0.7429042575812908
% es.tEy (V/m) @ t=0.2
0
% es.tEz (V/m) @ t=0.2
-2.3722450419189514
% V (V) @ t=0.2
0.012517205885501412
% es.normE (V/m) @ t=0.22
2.513115012989286
% es.EX (V/m) @ t=0.22
-0.7497149353697314
% es.EY (V/m) @ t=0.22
0.05600060130378656
% es.EZ (V/m) @ t=0.22
-2.39399291175647
% es.tEX (V/m) @ t=0.22
-0.7497149353697381
% es.tEY (V/m) @ t=0.22
0
% es.tEZ (V/m) @ t=0.22
-2.393992911756502
% es.Ex (V/m) @ t=0.22
-0.7497149353697314
% es.Ey (V/m) @ t=0.22
0.05600060130378656
% es.Ez (V/m) @ t=0.22
-2.39399291175647
% es.tEx (V/m) @ t=0.22
-0.7497149353697381
% es.tEy (V/m) @ t=0.22
0
% es.tEz (V/m) @ t=0.22
-2.393992911756502
% V (V) @ t=0.22
0.012631958695127558
% es.normE (V/m) @ t=0.24
2.535945031771583
% es.EX (V/m) @ t=0.24
-0.7565256131581524
% es.EY (V/m) @ t=0.24
0.05650933851654952
% es.EZ (V/m) @ t=0.24
-2.4157407815939864
% es.tEX (V/m) @ t=0.24
-0.7565256131581606
% es.tEY (V/m) @ t=0.24
0
% es.tEZ (V/m) @ t=0.24
-2.4157407815939944
% es.Ex (V/m) @ t=0.24
-0.7565256131581524
% es.Ey (V/m) @ t=0.24
0.05650933851654952
% es.Ez (V/m) @ t=0.24
-2.4157407815939864
% es.tEx (V/m) @ t=0.24
-0.7565256131581606
% es.tEy (V/m) @ t=0.24
0
% es.tEz (V/m) @ t=0.24
-2.4157407815939944
% V (V) @ t=0.24
0.012746711504753705
% es.normE (V/m) @ t=0.26
2.5593375732242816
% es.EX (V/m) @ t=0.26
-0.7635040733799385
% es.EY (V/m) @ t=0.26
0.057030552885803304
% es.EZ (V/m) @ t=0.26
-2.438024524450821
% es.tEX (V/m) @ t=0.26
-0.7635040733799414
% es.tEY (V/m) @ t=0.26
0
% es.tEZ (V/m) @ t=0.26
-2.4380245244508334
% es.Ex (V/m) @ t=0.26
-0.7635040733799385
% es.Ey (V/m) @ t=0.26
0.057030552885803304
% es.Ez (V/m) @ t=0.26
-2.438024524450821
% es.tEx (V/m) @ t=0.26
-0.7635040733799414
% es.tEy (V/m) @ t=0.26
0
% es.tEz (V/m) @ t=0.26
-2.4380245244508334
% V (V) @ t=0.26
0.012864294196986594
% es.normE (V/m) @ t=0.28
2.5845887115957176
% es.EX (V/m) @ t=0.28
-0.7710368933280922
% es.EY (V/m) @ t=0.28
0.05759299226839143
% es.EZ (V/m) @ t=0.28
-2.4620788127361957
% es.tEX (V/m) @ t=0.28
-0.7710368933281018
% es.tEY (V/m) @ t=0.28
0
% es.tEZ (V/m) @ t=0.28
-2.4620788127362214
% es.Ex (V/m) @ t=0.28
-0.7710368933280922
% es.Ey (V/m) @ t=0.28
0.05759299226839143
% es.Ez (V/m) @ t=0.28
-2.4620788127361957
% es.tEx (V/m) @ t=0.28
-0.7710368933281018
% es.tEy (V/m) @ t=0.28
0
% es.tEz (V/m) @ t=0.28
-2.4620788127362214
% V (V) @ t=0.28
0.012991226932107006
% es.normE (V/m) @ t=0.3
2.609839849967189
% es.EX (V/m) @ t=0.3
-0.7785697132762442
% es.EY (V/m) @ t=0.3
0.05815543165097044
% es.EZ (V/m) @ t=0.3
-2.4861331010215553
% es.tEX (V/m) @ t=0.3
-0.778569713276255
% es.tEY (V/m) @ t=0.3
0
% es.tEZ (V/m) @ t=0.3
-2.4861331010215793
% es.Ex (V/m) @ t=0.3
-0.7785697132762442
% es.Ey (V/m) @ t=0.3
0.05815543165097044
% es.Ez (V/m) @ t=0.3
-2.4861331010215553
% es.tEx (V/m) @ t=0.3
-0.778569713276255
% es.tEy (V/m) @ t=0.3
0
% es.tEz (V/m) @ t=0.3
-2.4861331010215793
% V (V) @ t=0.3
0.013118159667227422
% es.normE (V/m) @ t=0.32
2.6350909883387423
% es.EX (V/m) @ t=0.32
-0.7861025332243928
% es.EY (V/m) @ t=0.32
0.05871787103355315
% es.EZ (V/m) @ t=0.32
-2.5101873893069495
% es.tEX (V/m) @ t=0.32
-0.7861025332244012
% es.tEY (V/m) @ t=0.32
0
% es.tEZ (V/m) @ t=0.32
-2.5101873893069673
% es.Ex (V/m) @ t=0.32
-0.7861025332243928
% es.Ey (V/m) @ t=0.32
0.05871787103355315
% es.Ez (V/m) @ t=0.32
-2.5101873893069495
% es.tEx (V/m) @ t=0.32
-0.7861025332244012
% es.tEy (V/m) @ t=0.32
0
% es.tEz (V/m) @ t=0.32
-2.5101873893069673
% V (V) @ t=0.32
0.013245092402347836
% es.normE (V/m) @ t=0.34
2.6603421267103142
% es.EX (V/m) @ t=0.34
-0.7936353531725377
% es.EY (V/m) @ t=0.34
0.05928031041613192
% es.EZ (V/m) @ t=0.34
-2.534241677592316
% es.tEX (V/m) @ t=0.34
-0.7936353531725402
% es.tEY (V/m) @ t=0.34
0
% es.tEZ (V/m) @ t=0.34
-2.5342416775923393
% es.Ex (V/m) @ t=0.34
-0.7936353531725377
% es.Ey (V/m) @ t=0.34
0.05928031041613192
% es.Ez (V/m) @ t=0.34
-2.534241677592316
% es.tEx (V/m) @ t=0.34
-0.7936353531725402
% es.tEy (V/m) @ t=0.34
0
% es.tEz (V/m) @ t=0.34
-2.5342416775923393
% V (V) @ t=0.34
0.01337202513746825
% es.normE (V/m) @ t=0.36
2.685593265081949
% es.EX (V/m) @ t=0.36
-0.8011681731206917
% es.EY (V/m) @ t=0.36
0.05984274979870198
% es.EZ (V/m) @ t=0.36
-2.5582959658776963
% es.tEX (V/m) @ t=0.36
-0.8011681731207005
% es.tEY (V/m) @ t=0.36
0
% es.tEZ (V/m) @ t=0.36
-2.5582959658777256
% es.Ex (V/m) @ t=0.36
-0.8011681731206917
% es.Ey (V/m) @ t=0.36
0.05984274979870198
% es.Ez (V/m) @ t=0.36
-2.5582959658776963
% es.tEx (V/m) @ t=0.36
-0.8011681731207005
% es.tEy (V/m) @ t=0.36
0
% es.tEz (V/m) @ t=0.36
-2.5582959658777256
% V (V) @ t=0.36
0.013498957872588667
% es.normE (V/m) @ t=0.38
2.7108444034536094
% es.EX (V/m) @ t=0.38
-0.8087009930688454
% es.EY (V/m) @ t=0.38
0.060405189181268526
% es.EZ (V/m) @ t=0.38
-2.582350254163056
% es.tEX (V/m) @ t=0.38
-0.8087009930688538
% es.tEY (V/m) @ t=0.38
0
% es.tEZ (V/m) @ t=0.38
-2.5823502541630834
% es.Ex (V/m) @ t=0.38
-0.8087009930688454
% es.Ey (V/m) @ t=0.38
0.060405189181268526
% es.Ez (V/m) @ t=0.38
-2.582350254163056
% es.tEx (V/m) @ t=0.38
-0.8087009930688538
% es.tEy (V/m) @ t=0.38
0
% es.tEz (V/m) @ t=0.38
-2.5823502541630834
% V (V) @ t=0.38
0.01362589060770908
% es.normE (V/m) @ t=0.4
2.7360955418253288
% es.EX (V/m) @ t=0.4
-0.8162338130169913
% es.EY (V/m) @ t=0.4
0.06096762856385814
% es.EZ (V/m) @ t=0.4
-2.606404542448436
% es.tEX (V/m) @ t=0.4
-0.8162338130169999
% es.tEY (V/m) @ t=0.4
0
% es.tEZ (V/m) @ t=0.4
-2.6064045424484714
% es.Ex (V/m) @ t=0.4
-0.8162338130169913
% es.Ey (V/m) @ t=0.4
0.06096762856385814
% es.Ez (V/m) @ t=0.4
-2.606404542448436
% es.tEx (V/m) @ t=0.4
-0.8162338130169999
% es.tEy (V/m) @ t=0.4
0
% es.tEz (V/m) @ t=0.4
-2.6064045424484714
% V (V) @ t=0.4
0.013752823342829498
% es.normE (V/m) @ t=0.42
2.7613466801970943
% es.EX (V/m) @ t=0.42
-0.8237666329651459
% es.EY (V/m) @ t=0.42
0.06153006794644626
% es.EZ (V/m) @ t=0.42
-2.630458830733817
% es.tEX (V/m) @ t=0.42
-0.8237666329651532
% es.tEY (V/m) @ t=0.42
0
% es.tEZ (V/m) @ t=0.42
-2.6304588307338452
% es.Ex (V/m) @ t=0.42
-0.8237666329651459
% es.Ey (V/m) @ t=0.42
0.06153006794644626
% es.Ez (V/m) @ t=0.42
-2.630458830733817
% es.tEx (V/m) @ t=0.42
-0.8237666329651532
% es.tEy (V/m) @ t=0.42
0
% es.tEz (V/m) @ t=0.42
-2.6304588307338452
% V (V) @ t=0.42
0.013879756077949912
% es.normE (V/m) @ t=0.44
2.786597818568892
% es.EX (V/m) @ t=0.44
-0.8312994529132989
% es.EY (V/m) @ t=0.44
0.06209250732901299
% es.EZ (V/m) @ t=0.44
-2.6545131190191897
% es.tEX (V/m) @ t=0.44
-0.8312994529132993
% es.tEY (V/m) @ t=0.44
0
% es.tEZ (V/m) @ t=0.44
-2.6545131190192173
% es.Ex (V/m) @ t=0.44
-0.8312994529132989
% es.Ey (V/m) @ t=0.44
0.06209250732901299
% es.Ez (V/m) @ t=0.44
-2.6545131190191897
% es.tEx (V/m) @ t=0.44
-0.8312994529132993
% es.tEy (V/m) @ t=0.44
0
% es.tEz (V/m) @ t=0.44
-2.6545131190192173
% V (V) @ t=0.44
0.014006688813070326
% es.normE (V/m) @ t=0.46
2.811848956940723
% es.EX (V/m) @ t=0.46
-0.8388322728614428
% es.EY (V/m) @ t=0.46
0.06265494671159579
% es.EZ (V/m) @ t=0.46
-2.6785674073045564
% es.tEX (V/m) @ t=0.46
-0.8388322728614455
% es.tEY (V/m) @ t=0.46
0
% es.tEZ (V/m) @ t=0.46
-2.6785674073045893
% es.Ex (V/m) @ t=0.46
-0.8388322728614428
% es.Ey (V/m) @ t=0.46
0.06265494671159579
% es.Ez (V/m) @ t=0.46
-2.6785674073045564
% es.tEx (V/m) @ t=0.46
-0.8388322728614455
% es.tEy (V/m) @ t=0.46
0
% es.tEz (V/m) @ t=0.46
-2.6785674073045893
% V (V) @ t=0.46
0.014133621548190742
% es.normE (V/m) @ t=0.48
2.837100095312616
% es.EX (V/m) @ t=0.48
-0.8463650928095994
% es.EY (V/m) @ t=0.48
0.0632173860941727
% es.EZ (V/m) @ t=0.48
-2.7026216955899436
% es.tEX (V/m) @ t=0.48
-0.8463650928095987
% es.tEY (V/m) @ t=0.48
0
% es.tEZ (V/m) @ t=0.48
-2.7026216955899898
% es.Ex (V/m) @ t=0.48
-0.8463650928095994
% es.Ey (V/m) @ t=0.48
0.0632173860941727
% es.Ez (V/m) @ t=0.48
-2.7026216955899436
% es.tEx (V/m) @ t=0.48
-0.8463650928095987
% es.tEy (V/m) @ t=0.48
0
% es.tEz (V/m) @ t=0.48
-2.7026216955899898
% V (V) @ t=0.48
0.014260554283311154
% es.normE (V/m) @ t=0.5
2.862351233684544
% es.EX (V/m) @ t=0.5
-0.8538979127577453
% es.EY (V/m) @ t=0.5
0.06377982547676211
% es.EZ (V/m) @ t=0.5
-2.7266759838753316
% es.tEX (V/m) @ t=0.5
-0.853897912757752
% es.tEY (V/m) @ t=0.5
0
% es.tEZ (V/m) @ t=0.5
-2.7266759838753476
% es.Ex (V/m) @ t=0.5
-0.8538979127577453
% es.Ey (V/m) @ t=0.5
0.06377982547676211
% es.Ez (V/m) @ t=0.5
-2.7266759838753316
% es.tEx (V/m) @ t=0.5
-0.853897912757752
% es.tEy (V/m) @ t=0.5
0
% es.tEz (V/m) @ t=0.5
-2.7266759838753476
% V (V) @ t=0.5
0.01438748701843157
% es.normE (V/m) @ t=0.52
2.888883494024306
% es.EX (V/m) @ t=0.52
-0.8618129115004347
% es.EY (V/m) @ t=0.52
0.06437079943913229
% es.EZ (V/m) @ t=0.52
-2.7519506718996594
% es.tEX (V/m) @ t=0.52
-0.8618129115004436
% es.tEY (V/m) @ t=0.52
0
% es.tEZ (V/m) @ t=0.52
-2.7519506718996904
% es.Ex (V/m) @ t=0.52
-0.8618129115004347
% es.Ey (V/m) @ t=0.52
0.06437079943913229
% es.Ez (V/m) @ t=0.52
-2.7519506718996594
% es.tEx (V/m) @ t=0.52
-0.8618129115004436
% es.tEy (V/m) @ t=0.52
0
% es.tEz (V/m) @ t=0.52
-2.7519506718996904
% V (V) @ t=0.52
0.014520859741804818
% es.normE (V/m) @ t=0.54
2.9168551508974785
% es.EX (V/m) @ t=0.54
-0.8701573048252167
% es.EY (V/m) @ t=0.54
0.06499383324927811
% es.EZ (V/m) @ t=0.54
-2.778596532378846
% es.tEX (V/m) @ t=0.54
-0.87015730482522
% es.tEY (V/m) @ t=0.54
0
% es.tEZ (V/m) @ t=0.54
-2.778596532378872
% es.Ex (V/m) @ t=0.54
-0.8701573048252167
% es.Ey (V/m) @ t=0.54
0.06499383324927811
% es.Ez (V/m) @ t=0.54
-2.778596532378846
% es.tEx (V/m) @ t=0.54
-0.87015730482522
% es.tEy (V/m) @ t=0.54
0
% es.tEz (V/m) @ t=0.54
-2.778596532378872
% V (V) @ t=0.54
0.014661468073495252
% es.normE (V/m) @ t=0.56
2.944826807770664
% es.EX (V/m) @ t=0.56
-0.8785016981499809
% es.EY (V/m) @ t=0.56
0.06561686705941507
% es.EZ (V/m) @ t=0.56
-2.8052423928580055
% es.tEX (V/m) @ t=0.56
-0.8785016981499822
% es.tEY (V/m) @ t=0.56
0
% es.tEZ (V/m) @ t=0.56
-2.805242392858041
% es.Ex (V/m) @ t=0.56
-0.8785016981499809
% es.Ey (V/m) @ t=0.56
0.06561686705941507
% es.Ez (V/m) @ t=0.56
-2.8052423928580055
% es.tEx (V/m) @ t=0.56
-0.8785016981499822
% es.tEy (V/m) @ t=0.56
0
% es.tEz (V/m) @ t=0.56
-2.805242392858041
% V (V) @ t=0.56
0.014802076405185691
% es.normE (V/m) @ t=0.58
2.9727984646439083
% es.EX (V/m) @ t=0.58
-0.8868460914747485
% es.EY (V/m) @ t=0.58
0.06623990086955436
% es.EZ (V/m) @ t=0.58
-2.8318882533371807
% es.tEX (V/m) @ t=0.58
-0.8868460914747658
% es.tEY (V/m) @ t=0.58
0
% es.tEZ (V/m) @ t=0.58
-2.8318882533372083
% es.Ex (V/m) @ t=0.58
-0.8868460914747485
% es.Ey (V/m) @ t=0.58
0.06623990086955436
% es.Ez (V/m) @ t=0.58
-2.8318882533371807
% es.tEx (V/m) @ t=0.58
-0.8868460914747658
% es.tEy (V/m) @ t=0.58
0
% es.tEz (V/m) @ t=0.58
-2.8318882533372083
% V (V) @ t=0.58
0.014942684736876129
% es.normE (V/m) @ t=0.6
3.000770121517193
% es.EX (V/m) @ t=0.6
-0.8951904847995251
% es.EY (V/m) @ t=0.6
0.06686293467968954
% es.EZ (V/m) @ t=0.6
-2.8585341138163542
% es.tEX (V/m) @ t=0.6
-0.8951904847995422
% es.tEY (V/m) @ t=0.6
0
% es.tEZ (V/m) @ t=0.6
-2.8585341138163916
% es.Ex (V/m) @ t=0.6
-0.8951904847995251
% es.Ey (V/m) @ t=0.6
0.06686293467968954
% es.Ez (V/m) @ t=0.6
-2.8585341138163542
% es.tEx (V/m) @ t=0.6
-0.8951904847995422
% es.tEy (V/m) @ t=0.6
0
% es.tEz (V/m) @ t=0.6
-2.8585341138163916
% V (V) @ t=0.6
0.015083293068566565
% es.normE (V/m) @ t=0.62
3.0287417783905033
% es.EX (V/m) @ t=0.62
-0.9035348781242949
% es.EY (V/m) @ t=0.62
0.06748596848983714
% es.EZ (V/m) @ t=0.62
-2.8851799742955127
% es.tEX (V/m) @ t=0.62
-0.9035348781243044
% es.tEY (V/m) @ t=0.62
0
% es.tEZ (V/m) @ t=0.62
-2.8851799742955464
% es.Ex (V/m) @ t=0.62
-0.9035348781242949
% es.Ey (V/m) @ t=0.62
0.06748596848983714
% es.Ez (V/m) @ t=0.62
-2.8851799742955127
% es.tEx (V/m) @ t=0.62
-0.9035348781243044
% es.tEy (V/m) @ t=0.62
0
% es.tEz (V/m) @ t=0.62
-2.8851799742955464
% V (V) @ t=0.62
0.015223901400257004
% es.normE (V/m) @ t=0.64
3.0567134352638647
% es.EX (V/m) @ t=0.64
-0.9118792714490593
% es.EY (V/m) @ t=0.64
0.06810900229996736
% es.EZ (V/m) @ t=0.64
-2.911825834774686
% es.tEX (V/m) @ t=0.64
-0.9118792714490596
% es.tEY (V/m) @ t=0.64
0
% es.tEZ (V/m) @ t=0.64
-2.9118258347747137
% es.Ex (V/m) @ t=0.64
-0.9118792714490593
% es.Ey (V/m) @ t=0.64
0.06810900229996736
% es.Ez (V/m) @ t=0.64
-2.911825834774686
% es.tEx (V/m) @ t=0.64
-0.9118792714490596
% es.tEy (V/m) @ t=0.64
0
% es.tEz (V/m) @ t=0.64
-2.9118258347747137
% V (V) @ t=0.64
0.015364509731947444
% es.normE (V/m) @ t=0.66
3.084685092137266
% es.EX (V/m) @ t=0.66
-0.9202236647738322
% es.EY (V/m) @ t=0.66
0.06873203611011548
% es.EZ (V/m) @ t=0.66
-2.9384716952538597
% es.tEX (V/m) @ t=0.66
-0.9202236647738431
% es.tEY (V/m) @ t=0.66
0
% es.tEZ (V/m) @ t=0.66
-2.938471695253881
% es.Ex (V/m) @ t=0.66
-0.9202236647738322
% es.Ey (V/m) @ t=0.66
0.06873203611011548
% es.Ez (V/m) @ t=0.66
-2.9384716952538597
% es.tEx (V/m) @ t=0.66
-0.9202236647738431
% es.tEy (V/m) @ t=0.66
0
% es.tEz (V/m) @ t=0.66
-2.938471695253881
% V (V) @ t=0.66
0.015505118063637878
% es.normE (V/m) @ t=0.68
3.112656749010691
% es.EX (V/m) @ t=0.68
-0.9285680580986109
% es.EY (V/m) @ t=0.68
0.06935506992026351
% es.EZ (V/m) @ t=0.68
-2.965117555733018
% es.tEX (V/m) @ t=0.68
-0.9285680580986195
% es.tEY (V/m) @ t=0.68
0
% es.tEZ (V/m) @ t=0.68
-2.965117555733052
% es.Ex (V/m) @ t=0.68
-0.9285680580986109
% es.Ey (V/m) @ t=0.68
0.06935506992026351
% es.Ez (V/m) @ t=0.68
-2.965117555733018
% es.tEx (V/m) @ t=0.68
-0.9285680580986195
% es.tEy (V/m) @ t=0.68
0
% es.tEz (V/m) @ t=0.68
-2.965117555733052
% V (V) @ t=0.68
0.015645726395328314
% es.normE (V/m) @ t=0.7
3.1406284058841627
% es.EX (V/m) @ t=0.7
-0.9369124514233698
% es.EY (V/m) @ t=0.7
0.06997810373040048
% es.EZ (V/m) @ t=0.7
-2.9917634162121924
% es.tEX (V/m) @ t=0.7
-0.9369124514233818
% es.tEY (V/m) @ t=0.7
0
% es.tEZ (V/m) @ t=0.7
-2.991763416212205
% es.Ex (V/m) @ t=0.7
-0.9369124514233698
% es.Ey (V/m) @ t=0.7
0.06997810373040048
% es.Ez (V/m) @ t=0.7
-2.9917634162121924
% es.tEx (V/m) @ t=0.7
-0.9369124514233818
% es.tEy (V/m) @ t=0.7
0
% es.tEz (V/m) @ t=0.7
-2.991763416212205
% V (V) @ t=0.7
0.015786334727018753
% es.normE (V/m) @ t=0.72
3.1686000627576716
% es.EX (V/m) @ t=0.72
-0.9452568447481448
% es.EY (V/m) @ t=0.72
0.07060113754053031
% es.EZ (V/m) @ t=0.72
-3.018409276691365
% es.tEX (V/m) @ t=0.72
-0.9452568447481511
% es.tEY (V/m) @ t=0.72
0
% es.tEZ (V/m) @ t=0.72
-3.0184092766913864
% es.Ex (V/m) @ t=0.72
-0.9452568447481448
% es.Ey (V/m) @ t=0.72
0.07060113754053031
% es.Ez (V/m) @ t=0.72
-3.018409276691365
% es.tEx (V/m) @ t=0.72
-0.9452568447481511
% es.tEy (V/m) @ t=0.72
0
% es.tEz (V/m) @ t=0.72
-3.0184092766913864
% V (V) @ t=0.72
0.015926943058709193
% es.normE (V/m) @ t=0.74
3.196571719631205
% es.EX (V/m) @ t=0.74
-0.9536012380729229
% es.EY (V/m) @ t=0.74
0.07122417135069627
% es.EZ (V/m) @ t=0.74
-3.045055137170526
% es.tEX (V/m) @ t=0.74
-0.9536012380729346
% es.tEY (V/m) @ t=0.74
0
% es.tEZ (V/m) @ t=0.74
-3.0450551371705554
% es.Ex (V/m) @ t=0.74
-0.9536012380729229
% es.Ey (V/m) @ t=0.74
0.07122417135069627
% es.Ez (V/m) @ t=0.74
-3.045055137170526
% es.tEx (V/m) @ t=0.74
-0.9536012380729346
% es.tEy (V/m) @ t=0.74
0
% es.tEz (V/m) @ t=0.74
-3.0450551371705554
% V (V) @ t=0.74
0.016067551390399625
% es.normE (V/m) @ t=0.76
3.224543376504791
% es.EX (V/m) @ t=0.76
-0.9619456313976926
% es.EY (V/m) @ t=0.76
0.07184720516080473
% es.EZ (V/m) @ t=0.76
-3.071700997649713
% es.tEX (V/m) @ t=0.76
-0.9619456313976968
% es.tEY (V/m) @ t=0.76
0
% es.tEZ (V/m) @ t=0.76
-3.0717009976497227
% es.Ex (V/m) @ t=0.76
-0.9619456313976926
% es.Ey (V/m) @ t=0.76
0.07184720516080473
% es.Ez (V/m) @ t=0.76
-3.071700997649713
% es.tEx (V/m) @ t=0.76
-0.9619456313976968
% es.tEy (V/m) @ t=0.76
0
% es.tEz (V/m) @ t=0.76
-3.0717009976497227
% V (V) @ t=0.76
0.01620815972209006
% es.normE (V/m) @ t=0.78
3.2546879752459628
% es.EX (V/m) @ t=0.78
-0.9709382806590272
% es.EY (V/m) @ t=0.78
0.07251870147717782
% es.EZ (V/m) @ t=0.78
-3.1004167919360226
% es.tEX (V/m) @ t=0.78
-0.9709382806590341
% es.tEY (V/m) @ t=0.78
0
% es.tEZ (V/m) @ t=0.78
-3.1004167919360537
% es.Ex (V/m) @ t=0.78
-0.9709382806590272
% es.Ey (V/m) @ t=0.78
0.07251870147717782
% es.Ez (V/m) @ t=0.78
-3.1004167919360226
% es.tEx (V/m) @ t=0.78
-0.9709382806590341
% es.tEy (V/m) @ t=0.78
0
% es.tEz (V/m) @ t=0.78
-3.1004167919360537
% V (V) @ t=0.78
0.016359688407213194
% es.normE (V/m) @ t=0.8
3.2857223480382958
% es.EX (V/m) @ t=0.8
-0.9801963771095008
% es.EY (V/m) @ t=0.8
0.07321004217186679
% es.EZ (V/m) @ t=0.8
-3.1299801806364593
% es.tEX (V/m) @ t=0.8
-0.9801963771095146
% es.tEY (V/m) @ t=0.8
0
% es.tEZ (V/m) @ t=0.8
-3.129980180636501
% es.Ex (V/m) @ t=0.8
-0.9801963771095008
% es.Ey (V/m) @ t=0.8
0.07321004217186679
% es.Ez (V/m) @ t=0.8
-3.1299801806364593
% es.tEx (V/m) @ t=0.8
-0.9801963771095146
% es.tEy (V/m) @ t=0.8
0
% es.tEz (V/m) @ t=0.8
-3.129980180636501
% V (V) @ t=0.8
0.016515688747679707
% es.normE (V/m) @ t=0.82
3.3167567208306457
% es.EX (V/m) @ t=0.82
-0.989454473559967
% es.EY (V/m) @ t=0.82
0.07390138286656649
% es.EZ (V/m) @ t=0.82
-3.159543569336897
% es.tEX (V/m) @ t=0.82
-0.9894544735599737
% es.tEY (V/m) @ t=0.82
0
% es.tEZ (V/m) @ t=0.82
-3.159543569336906
% es.Ex (V/m) @ t=0.82
-0.989454473559967
% es.Ey (V/m) @ t=0.82
0.07390138286656649
% es.Ez (V/m) @ t=0.82
-3.159543569336897
% es.tEx (V/m) @ t=0.82
-0.9894544735599737
% es.tEy (V/m) @ t=0.82
0
% es.tEz (V/m) @ t=0.82
-3.159543569336906
% V (V) @ t=0.82
0.01667168908814622
% es.normE (V/m) @ t=0.84
3.34779109362299
% es.EX (V/m) @ t=0.84
-0.9987125700104242
% es.EY (V/m) @ t=0.84
0.07459272356124538
% es.EZ (V/m) @ t=0.84
-3.1891069580373204
% es.tEX (V/m) @ t=0.84
-0.9987125700104329
% es.tEY (V/m) @ t=0.84
0
% es.tEZ (V/m) @ t=0.84
-3.1891069580373532
% es.Ex (V/m) @ t=0.84
-0.9987125700104242
% es.Ey (V/m) @ t=0.84
0.07459272356124538
% es.Ez (V/m) @ t=0.84
-3.1891069580373204
% es.tEx (V/m) @ t=0.84
-0.9987125700104329
% es.tEy (V/m) @ t=0.84
0
% es.tEz (V/m) @ t=0.84
-3.1891069580373532
% V (V) @ t=0.84
0.01682768942861273
% es.normE (V/m) @ t=0.86
3.378825466415364
% es.EX (V/m) @ t=0.86
-1.0079706664608854
% es.EY (V/m) @ t=0.86
0.07528406425591613
% es.EZ (V/m) @ t=0.86
-3.218670346737757
% es.tEX (V/m) @ t=0.86
-1.007970666460892
% es.tEY (V/m) @ t=0.86
0
% es.tEZ (V/m) @ t=0.86
-3.2186703467378006
% es.Ex (V/m) @ t=0.86
-1.0079706664608854
% es.Ey (V/m) @ t=0.86
0.07528406425591613
% es.Ez (V/m) @ t=0.86
-3.218670346737757
% es.tEx (V/m) @ t=0.86
-1.007970666460892
% es.tEy (V/m) @ t=0.86
0
% es.tEz (V/m) @ t=0.86
-3.2186703467378006
% V (V) @ t=0.86
0.01698368976907924
% es.normE (V/m) @ t=0.88
3.4098598392077495
% es.EX (V/m) @ t=0.88
-1.0172287629113428
% es.EY (V/m) @ t=0.88
0.07597540495063047
% es.EZ (V/m) @ t=0.88
-3.248233735438193
% es.tEX (V/m) @ t=0.88
-1.0172287629113512
% es.tEY (V/m) @ t=0.88
0
% es.tEZ (V/m) @ t=0.88
-3.2482337354382214
% es.Ex (V/m) @ t=0.88
-1.0172287629113428
% es.Ey (V/m) @ t=0.88
0.07597540495063047
% es.Ez (V/m) @ t=0.88
-3.248233735438193
% es.tEx (V/m) @ t=0.88
-1.0172287629113512
% es.tEy (V/m) @ t=0.88
0
% es.tEz (V/m) @ t=0.88
-3.2482337354382214
% V (V) @ t=0.88
0.017139690109545754
% es.normE (V/m) @ t=0.9
3.4408942120001367
% es.EX (V/m) @ t=0.9
-1.026486859361802
% es.EY (V/m) @ t=0.9
0.07666674564531951
% es.EZ (V/m) @ t=0.9
-3.2777971241386163
% es.tEX (V/m) @ t=0.9
-1.0264868593618104
% es.tEY (V/m) @ t=0.9
0
% es.tEZ (V/m) @ t=0.9
-3.2777971241386403
% es.Ex (V/m) @ t=0.9
-1.026486859361802
% es.Ey (V/m) @ t=0.9
0.07666674564531951
% es.Ez (V/m) @ t=0.9
-3.2777971241386163
% es.tEx (V/m) @ t=0.9
-1.0264868593618104
% es.tEy (V/m) @ t=0.9
0
% es.tEz (V/m) @ t=0.9
-3.2777971241386403
% V (V) @ t=0.9
0.017295690450012266
% es.normE (V/m) @ t=0.92
3.4719285847925327
% es.EX (V/m) @ t=0.92
-1.035744955812254
% es.EY (V/m) @ t=0.92
0.07735808634000499
% es.EZ (V/m) @ t=0.92
-3.307360512839039
% es.tEX (V/m) @ t=0.92
-1.0357449558122624
% es.tEY (V/m) @ t=0.92
0
% es.tEZ (V/m) @ t=0.92
-3.307360512839086
% es.Ex (V/m) @ t=0.92
-1.035744955812254
% es.Ey (V/m) @ t=0.92
0.07735808634000499
% es.Ez (V/m) @ t=0.92
-3.307360512839039
% es.tEx (V/m) @ t=0.92
-1.0357449558122624
% es.tEy (V/m) @ t=0.92
0
% es.tEz (V/m) @ t=0.92
-3.307360512839086
% V (V) @ t=0.92
0.01745169079047878
% es.normE (V/m) @ t=0.94
3.502962957584959
% es.EX (V/m) @ t=0.94
-1.0450030522627185
% es.EY (V/m) @ t=0.94
0.07804942703470114
% es.EZ (V/m) @ t=0.94
-3.3369239015394765
% es.tEX (V/m) @ t=0.94
-1.0450030522627216
% es.tEY (V/m) @ t=0.94
0
% es.tEZ (V/m) @ t=0.94
-3.336923901539505
% es.Ex (V/m) @ t=0.94
-1.0450030522627185
% es.Ey (V/m) @ t=0.94
0.07804942703470114
% es.Ez (V/m) @ t=0.94
-3.3369239015394765
% es.tEx (V/m) @ t=0.94
-1.0450030522627216
% es.tEy (V/m) @ t=0.94
0
% es.tEz (V/m) @ t=0.94
-3.336923901539505
% V (V) @ t=0.94
0.017607691130945284
% es.normE (V/m) @ t=0.96
3.5339973303773684
% es.EX (V/m) @ t=0.96
-1.0542611487131743
% es.EY (V/m) @ t=0.96
0.07874076772936524
% es.EZ (V/m) @ t=0.96
-3.366487290239885
% es.tEX (V/m) @ t=0.96
-1.0542611487131808
% es.tEY (V/m) @ t=0.96
0
% es.tEZ (V/m) @ t=0.96
-3.3664872902399097
% es.Ex (V/m) @ t=0.96
-1.0542611487131743
% es.Ey (V/m) @ t=0.96
0.07874076772936524
% es.Ez (V/m) @ t=0.96
-3.366487290239885
% es.tEx (V/m) @ t=0.96
-1.0542611487131808
% es.tEy (V/m) @ t=0.96
0
% es.tEz (V/m) @ t=0.96
-3.3664872902399097
% V (V) @ t=0.96
0.0177636914714118
% es.normE (V/m) @ t=0.98
3.565031703169816
% es.EX (V/m) @ t=0.98
-1.063519245163628
% es.EY (V/m) @ t=0.98
0.07943210842407922
% es.EZ (V/m) @ t=0.98
-3.3960506789403224
% es.tEX (V/m) @ t=0.98
-1.06351924516364
% es.tEY (V/m) @ t=0.98
0
% es.tEZ (V/m) @ t=0.98
-3.3960506789403695
% es.Ex (V/m) @ t=0.98
-1.063519245163628
% es.Ey (V/m) @ t=0.98
0.07943210842407922
% es.Ez (V/m) @ t=0.98
-3.3960506789403224
% es.tEx (V/m) @ t=0.98
-1.06351924516364
% es.tEy (V/m) @ t=0.98
0
% es.tEz (V/m) @ t=0.98
-3.3960506789403695
% V (V) @ t=0.98
0.017919691811878313
% es.normE (V/m) @ t=1
3.5960660759622742
% es.EX (V/m) @ t=1
-1.0727773416140856
% es.EY (V/m) @ t=1
0.08012344911876107
% es.EZ (V/m) @ t=1
-3.4256140676407583
% es.tEX (V/m) @ t=1
-1.0727773416141062
% es.tEY (V/m) @ t=1
0
% es.tEZ (V/m) @ t=1
-3.4256140676408027
% es.Ex (V/m) @ t=1
-1.0727773416140856
% es.Ey (V/m) @ t=1
0.08012344911876107
% es.Ez (V/m) @ t=1
-3.4256140676407583
% es.tEx (V/m) @ t=1
-1.0727773416141062
% es.tEy (V/m) @ t=1
0
% es.tEz (V/m) @ t=1
-3.4256140676408027
% V (V) @ t=1
0.018075692152344825
% es.normE (V/m) @ t=1.02
3.6271004487547462
% es.EX (V/m) @ t=1.02
-1.0820354380645445
% es.EY (V/m) @ t=1.02
0.08081478981344661
% es.EZ (V/m) @ t=1.02
-3.455177456341196
% es.tEX (V/m) @ t=1.02
-1.0820354380645512
% es.tEY (V/m) @ t=1.02
0
% es.tEZ (V/m) @ t=1.02
-3.4551774563412216
% es.Ex (V/m) @ t=1.02
-1.0820354380645445
% es.Ey (V/m) @ t=1.02
0.08081478981344661
% es.Ez (V/m) @ t=1.02
-3.455177456341196
% es.tEx (V/m) @ t=1.02
-1.0820354380645512
% es.tEy (V/m) @ t=1.02
0
% es.tEz (V/m) @ t=1.02
-3.4551774563412216
% V (V) @ t=1.02
0.018231692492811334
% es.normE (V/m) @ t=1.04