% Model:              1 neuron.mph
% Version:            COMSOL 6.1.0.252
% Date:               Mar 22 2023, 18:06
% Dimension:          0
% Nodes:              14017
% Expressions:        14017
% Description:        Electric field norm, Electric field, X component, Electric field, Y component, Electric field, Z component, Tangential electric field, X component, Tangential electric field, Y component, Tangential electric field, Z component, Electric field, x component, Electric field, y component, Electric field, z component, Tangential electric field, x component, Tangential electric field, y component, Tangential electric field, z component, Electric potential
% Length unit:        mm
% x
2
% y
12.2
% z
1.6599999999999997
% es.normE (V/m) @ t=0
2.293527210319356
% es.EX (V/m) @ t=0
-2.21615378780049
% es.EY (V/m) @ t=0
0.17072492089381186
% es.EZ (V/m) @ t=0
-0.5648377546984831
% es.tEX (V/m) @ t=0
-2.2161537878005078
% es.tEY (V/m) @ t=0
0
% es.tEZ (V/m) @ t=0
-0.5648377546984733
% es.Ex (V/m) @ t=0
-2.21615378780049
% es.Ey (V/m) @ t=0
0.17072492089381186
% es.Ez (V/m) @ t=0
-0.5648377546984831
% es.tEx (V/m) @ t=0
-2.2161537878005078
% es.tEy (V/m) @ t=0
0
% es.tEz (V/m) @ t=0
-0.5648377546984733
% V (V) @ t=0
0.013291460113445126
% es.normE (V/m) @ t=0.02
1.9809403256534628
% es.EX (V/m) @ t=0.02
-1.91411219627917
% es.EY (V/m) @ t=0.02
0.14745666837002835
% es.EZ (V/m) @ t=0.02
-0.487855509953095
% es.tEX (V/m) @ t=0.02
-1.914112196279163
% es.tEY (V/m) @ t=0.02
0
% es.tEZ (V/m) @ t=0.02
-0.48785550995309634
% es.Ex (V/m) @ t=0.02
-1.91411219627917
% es.Ey (V/m) @ t=0.02
0.14745666837002835
% es.Ez (V/m) @ t=0.02
-0.487855509953095
% es.tEx (V/m) @ t=0.02
-1.914112196279163
% es.tEy (V/m) @ t=0.02
0
% es.tEz (V/m) @ t=0.02
-0.48785550995309634
% V (V) @ t=0.02
0.01147995505295741
% es.normE (V/m) @ t=0.04
1.9991611369692894
% es.EX (V/m) @ t=0.04
-1.9317183183104518
% es.EY (V/m) @ t=0.04
0.14881298397352227
% es.EZ (V/m) @ t=0.04
-0.4923428351169927
% es.tEX (V/m) @ t=0.04
-1.9317183183104571
% es.tEY (V/m) @ t=0.04
0
% es.tEZ (V/m) @ t=0.04
-0.4923428351169914
% es.Ex (V/m) @ t=0.04
-1.9317183183104518
% es.Ey (V/m) @ t=0.04
0.14881298397352227
% es.Ez (V/m) @ t=0.04
-0.4923428351169927
% es.tEx (V/m) @ t=0.04
-1.9317183183104571
% es.tEy (V/m) @ t=0.04
0
% es.tEz (V/m) @ t=0.04
-0.4923428351169914
% V (V) @ t=0.04
0.011585548384613757
% es.normE (V/m) @ t=0.06
2.017513494607633
% es.EX (V/m) @ t=0.06
-1.9494515497545875
% es.EY (V/m) @ t=0.06
0.1501790893223769
% es.EZ (V/m) @ t=0.06
-0.4968625540498417
% es.tEX (V/m) @ t=0.06
-1.9494515497545777
% es.tEY (V/m) @ t=0.06
0
% es.tEZ (V/m) @ t=0.06
-0.49686255404984614
% es.Ex (V/m) @ t=0.06
-1.9494515497545875
% es.Ey (V/m) @ t=0.06
0.1501790893223769
% es.Ez (V/m) @ t=0.06
-0.4968625540498417
% es.tEx (V/m) @ t=0.06
-1.9494515497545777
% es.tEy (V/m) @ t=0.06
0
% es.tEz (V/m) @ t=0.06
-0.49686255404984614
% V (V) @ t=0.06
0.011691904155511756
% es.normE (V/m) @ t=0.08
2.036220370449299
% es.EX (V/m) @ t=0.08
-1.9675273387903598
% es.EY (V/m) @ t=0.08
0.15157158610534072
% es.EZ (V/m) @ t=0.08
-0.501469584183786
% es.tEX (V/m) @ t=0.08
-1.967527338790335
% es.tEY (V/m) @ t=0.08
0
% es.tEZ (V/m) @ t=0.08
-0.5014695841837877
% es.Ex (V/m) @ t=0.08
-1.9675273387903598
% es.Ey (V/m) @ t=0.08
0.15157158610534072
% es.Ez (V/m) @ t=0.08
-0.501469584183786
% es.tEx (V/m) @ t=0.08
-1.967527338790335
% es.tEy (V/m) @ t=0.08
0
% es.tEz (V/m) @ t=0.08
-0.5014695841837877
% V (V) @ t=0.08
0.01180031434634704
% es.normE (V/m) @ t=0.1
2.055018563651573
% es.EX (V/m) @ t=0.1
-1.9856913643534275
% es.EY (V/m) @ t=0.1
0.15297088083571542
% es.EZ (V/m) @ t=0.1
-0.5060991040752727
% es.tEX (V/m) @ t=0.1
-1.9856913643534266
% es.tEY (V/m) @ t=0.1
0
% es.tEZ (V/m) @ t=0.1
-0.5060991040752683
% es.Ex (V/m) @ t=0.1
-1.9856913643534275
% es.Ey (V/m) @ t=0.1
0.15297088083571542
% es.Ez (V/m) @ t=0.1
-0.5060991040752727
% es.tEx (V/m) @ t=0.1
-1.9856913643534266
% es.tEy (V/m) @ t=0.1
0
% es.tEz (V/m) @ t=0.1
-0.5060991040752683
% V (V) @ t=0.1
0.011909253717925367
% es.normE (V/m) @ t=0.12
2.0738167568538928
% es.EX (V/m) @ t=0.12
-2.0038553899165397
% es.EY (V/m) @ t=0.12
0.15437017556607502
% es.EZ (V/m) @ t=0.12
-0.5107286239667785
% es.tEX (V/m) @ t=0.12
-2.0038553899165343
% es.tEY (V/m) @ t=0.12
0
% es.tEZ (V/m) @ t=0.12
-0.5107286239667737
% es.Ex (V/m) @ t=0.12
-2.0038553899165397
% es.Ey (V/m) @ t=0.12
0.15437017556607502
% es.Ez (V/m) @ t=0.12
-0.5107286239667785
% es.tEx (V/m) @ t=0.12
-2.0038553899165343
% es.tEy (V/m) @ t=0.12
0
% es.tEz (V/m) @ t=0.12
-0.5107286239667737
% V (V) @ t=0.12
0.012018193089503694
% es.normE (V/m) @ t=0.14
2.0931757574084227
% es.EX (V/m) @ t=0.14
-2.0225613017464035
% es.EY (V/m) @ t=0.14
0.15581122049960872
% es.EZ (V/m) @ t=0.14
-0.5154962626131794
% es.tEX (V/m) @ t=0.14
-2.0225613017464
% es.tEY (V/m) @ t=0.14
0
% es.tEZ (V/m) @ t=0.14
-0.5154962626131763
% es.Ex (V/m) @ t=0.14
-2.0225613017464035
% es.Ey (V/m) @ t=0.14
0.15581122049960872
% es.Ez (V/m) @ t=0.14
-0.5154962626131794
% es.tEx (V/m) @ t=0.14
-2.0225613017464
% es.tEy (V/m) @ t=0.14
0
% es.tEz (V/m) @ t=0.14
-0.5154962626131763
% V (V) @ t=0.14
0.012130382230938517
% es.normE (V/m) @ t=0.16
2.1129139541892576
% es.EX (V/m) @ t=0.16
-2.0416336160969086
% es.EY (V/m) @ t=0.16
0.1572804953045418
% es.EZ (V/m) @ t=0.16
-0.5203572918159476
% es.tEX (V/m) @ t=0.16
-2.0416336160968953
% es.tEY (V/m) @ t=0.16
0
% es.tEZ (V/m) @ t=0.16
-0.5203572918159445
% es.Ex (V/m) @ t=0.16
-2.0416336160969086
% es.Ey (V/m) @ t=0.16
0.1572804953045418
% es.Ez (V/m) @ t=0.16
-0.5203572918159476
% es.tEx (V/m) @ t=0.16
-2.0416336160968953
% es.tEy (V/m) @ t=0.16
0
% es.tEz (V/m) @ t=0.16
-0.5203572918159445
% V (V) @ t=0.16
0.012244768740972455
% es.normE (V/m) @ t=0.18
2.132652150970098
% es.EX (V/m) @ t=0.18
-2.0607059304474147
% es.EY (V/m) @ t=0.18
0.1587497701095102
% es.EZ (V/m) @ t=0.18
-0.5252183210187233
% es.tEX (V/m) @ t=0.18
-2.0607059304474156
% es.tEY (V/m) @ t=0.18
0
% es.tEZ (V/m) @ t=0.18
-0.5252183210187358
% es.Ex (V/m) @ t=0.18
-2.0607059304474147
% es.Ey (V/m) @ t=0.18
0.1587497701095102
% es.Ez (V/m) @ t=0.18
-0.5252183210187233
% es.tEx (V/m) @ t=0.18
-2.0607059304474156
% es.tEy (V/m) @ t=0.18
0
% es.tEz (V/m) @ t=0.18
-0.5252183210187358
% V (V) @ t=0.18
0.012359155251006396
% es.normE (V/m) @ t=0.2
2.152390347750955
% es.EX (V/m) @ t=0.2
-2.079778244797941
% es.EY (V/m) @ t=0.2
0.16021904491449557
% es.EZ (V/m) @ t=0.2
-0.5300793502214813
% es.tEX (V/m) @ t=0.2
-2.079778244797968
% es.tEY (V/m) @ t=0.2
0
% es.tEZ (V/m) @ t=0.2
-0.5300793502214827
% es.Ex (V/m) @ t=0.2
-2.079778244797941
% es.Ey (V/m) @ t=0.2
0.16021904491449557
% es.Ez (V/m) @ t=0.2
-0.5300793502214813
% es.tEx (V/m) @ t=0.2
-2.079778244797968
% es.tEy (V/m) @ t=0.2
0
% es.tEz (V/m) @ t=0.2
-0.5300793502214827
% V (V) @ t=0.2
0.012473541761040334
% es.normE (V/m) @ t=0.22
2.172128544531815
% es.EX (V/m) @ t=0.22
-2.0988505591484703
% es.EY (V/m) @ t=0.22
0.1616883197194392
% es.EZ (V/m) @ t=0.22
-0.5349403794242527
% es.tEX (V/m) @ t=0.22
-2.098850559148474
% es.tEY (V/m) @ t=0.22
0
% es.tEZ (V/m) @ t=0.22
-0.5349403794242527
% es.Ex (V/m) @ t=0.22
-2.0988505591484703
% es.Ey (V/m) @ t=0.22
0.1616883197194392
% es.Ez (V/m) @ t=0.22
-0.5349403794242527
% es.tEx (V/m) @ t=0.22
-2.098850559148474
% es.tEy (V/m) @ t=0.22
0
% es.tEz (V/m) @ t=0.22
-0.5349403794242527
% V (V) @ t=0.22
0.012587928271074276
% es.normE (V/m) @ t=0.24
2.191866741312665
% es.EX (V/m) @ t=0.24
-2.117922873498989
% es.EY (V/m) @ t=0.24
0.16315759452439627
% es.EZ (V/m) @ t=0.24
-0.5398014086270186
% es.tEX (V/m) @ t=0.24
-2.1179228734990083
% es.tEY (V/m) @ t=0.24
0
% es.tEZ (V/m) @ t=0.24
-0.5398014086270226
% es.Ex (V/m) @ t=0.24
-2.117922873498989
% es.Ey (V/m) @ t=0.24
0.16315759452439627
% es.Ez (V/m) @ t=0.24
-0.5398014086270186
% es.tEx (V/m) @ t=0.24
-2.1179228734990083
% es.tEy (V/m) @ t=0.24
0
% es.tEz (V/m) @ t=0.24
-0.5398014086270226
% V (V) @ t=0.24
0.012702314781108217
% es.normE (V/m) @ t=0.26
2.2120238003021733
% es.EX (V/m) @ t=0.26
-2.137399940436292
% es.EY (V/m) @ t=0.26
0.16465799454151508
% es.EZ (V/m) @ t=0.26
-0.5447655272212701
% es.tEX (V/m) @ t=0.26
-2.137399940436282
% es.tEY (V/m) @ t=0.26
0
% es.tEZ (V/m) @ t=0.26
-0.5447655272212746
% es.Ex (V/m) @ t=0.26
-2.137399940436292
% es.Ey (V/m) @ t=0.26
0.16465799454151508
% es.Ez (V/m) @ t=0.26
-0.5447655272212701
% es.tEx (V/m) @ t=0.26
-2.137399940436282
% es.tEy (V/m) @ t=0.26
0
% es.tEz (V/m) @ t=0.26
-0.5447655272212746
% V (V) @ t=0.26
0.012819131106587512
% es.normE (V/m) @ t=0.28
2.2338620853832722
% es.EX (V/m) @ t=0.28
-2.158501600367308
% es.EY (V/m) @ t=0.28
0.1662833247091804
% es.EZ (V/m) @ t=0.28
-0.5501434252665063
% es.tEX (V/m) @ t=0.28
-2.1585016003673054
% es.tEY (V/m) @ t=0.28
0
% es.tEZ (V/m) @ t=0.28
-0.550143425266512
% es.Ex (V/m) @ t=0.28
-2.158501600367308
% es.Ey (V/m) @ t=0.28
0.1662833247091804
% es.Ez (V/m) @ t=0.28
-0.5501434252665063
% es.tEx (V/m) @ t=0.28
-2.1585016003673054
% es.tEy (V/m) @ t=0.28
0
% es.tEz (V/m) @ t=0.28
-0.550143425266512
% V (V) @ t=0.28
0.012945700207657502
% es.normE (V/m) @ t=0.3
2.2557003704644503
% es.EX (V/m) @ t=0.3
-2.179603260298319
% es.EY (V/m) @ t=0.3
0.1679086548768437
% es.EZ (V/m) @ t=0.3
-0.5555213233117611
% es.tEX (V/m) @ t=0.3
-2.1796032602983324
% es.tEY (V/m) @ t=0.3
0
% es.tEZ (V/m) @ t=0.3
-0.5555213233117637
% es.Ex (V/m) @ t=0.3
-2.179603260298319
% es.Ey (V/m) @ t=0.3
0.1679086548768437
% es.Ez (V/m) @ t=0.3
-0.5555213233117611
% es.tEx (V/m) @ t=0.3
-2.1796032602983324
% es.tEy (V/m) @ t=0.3
0
% es.tEz (V/m) @ t=0.3
-0.5555213233117637
% V (V) @ t=0.3
0.01307226930872749
% es.normE (V/m) @ t=0.32
2.277538655545719
% es.EX (V/m) @ t=0.32
-2.2007049202293443
% es.EY (V/m) @ t=0.32
0.1695339850445169
% es.EZ (V/m) @ t=0.32
-0.5608992213570114
% es.tEX (V/m) @ t=0.32
-2.200704920229356
% es.tEY (V/m) @ t=0.32
0
% es.tEZ (V/m) @ t=0.32
-0.5608992213570083
% es.Ex (V/m) @ t=0.32
-2.2007049202293443
% es.Ey (V/m) @ t=0.32
0.1695339850445169
% es.Ez (V/m) @ t=0.32
-0.5608992213570114
% es.tEx (V/m) @ t=0.32
-2.200704920229356
% es.tEy (V/m) @ t=0.32
0
% es.tEz (V/m) @ t=0.32
-0.5608992213570083
% V (V) @ t=0.32
0.013198838409797478
% es.normE (V/m) @ t=0.34
2.299376940627073
% es.EX (V/m) @ t=0.34
-2.221806580160381
% es.EY (V/m) @ t=0.34
0.1711593152121742
% es.EZ (V/m) @ t=0.34
-0.566277119402268
% es.tEX (V/m) @ t=0.34
-2.221806580160383
% es.tEY (V/m) @ t=0.34
0
% es.tEZ (V/m) @ t=0.34
-0.5662771194022653
% es.Ex (V/m) @ t=0.34
-2.221806580160381
% es.Ey (V/m) @ t=0.34
0.1711593152121742
% es.Ez (V/m) @ t=0.34
-0.566277119402268
% es.tEx (V/m) @ t=0.34
-2.221806580160383
% es.tEy (V/m) @ t=0.34
0
% es.tEz (V/m) @ t=0.34
-0.5662771194022653
% V (V) @ t=0.34
0.013325407510867467
% es.normE (V/m) @ t=0.36
2.321215225708473
% es.EX (V/m) @ t=0.36
-2.2429082400913902
% es.EY (V/m) @ t=0.36
0.17278464537985982
% es.EZ (V/m) @ t=0.36
-0.5716550174475086
% es.tEX (V/m) @ t=0.36
-2.2429082400913956
% es.tEY (V/m) @ t=0.36
0
% es.tEZ (V/m) @ t=0.36
-0.5716550174475117
% es.Ex (V/m) @ t=0.36
-2.2429082400913902
% es.Ey (V/m) @ t=0.36
0.17278464537985982
% es.Ez (V/m) @ t=0.36
-0.5716550174475086
% es.tEx (V/m) @ t=0.36
-2.2429082400913956
% es.tEy (V/m) @ t=0.36
0
% es.tEz (V/m) @ t=0.36
-0.5716550174475117
% V (V) @ t=0.36
0.013451976611937456
% es.normE (V/m) @ t=0.38
2.3430535107899666
% es.EX (V/m) @ t=0.38
-2.264009900022417
% es.EY (V/m) @ t=0.38
0.17440997554753834
% es.EZ (V/m) @ t=0.38
-0.5770329154927798
% es.tEX (V/m) @ t=0.38
-2.2640099000224225
% es.tEY (V/m) @ t=0.38
0
% es.tEZ (V/m) @ t=0.38
-0.5770329154927687
% es.Ex (V/m) @ t=0.38
-2.264009900022417
% es.Ey (V/m) @ t=0.38
0.17440997554753834
% es.Ez (V/m) @ t=0.38
-0.5770329154927798
% es.tEx (V/m) @ t=0.38
-2.2640099000224225
% es.tEy (V/m) @ t=0.38
0
% es.tEz (V/m) @ t=0.38
-0.5770329154927687
% V (V) @ t=0.38
0.013578545713007446
% es.normE (V/m) @ t=0.4
2.364891795871472
% es.EX (V/m) @ t=0.4
-2.2851115599533953
% es.EY (V/m) @ t=0.4
0.17603530571520987
% es.EZ (V/m) @ t=0.4
-0.5824108135380097
% es.tEX (V/m) @ t=0.4
-2.2851115599533856
% es.tEY (V/m) @ t=0.4
0
% es.tEZ (V/m) @ t=0.4
-0.5824108135380222
% es.Ex (V/m) @ t=0.4
-2.2851115599533953
% es.Ey (V/m) @ t=0.4
0.17603530571520987
% es.Ez (V/m) @ t=0.4
-0.5824108135380097
% es.tEx (V/m) @ t=0.4
-2.2851115599533856
% es.tEy (V/m) @ t=0.4
0
% es.tEz (V/m) @ t=0.4
-0.5824108135380222
% V (V) @ t=0.4
0.013705114814077435
% es.normE (V/m) @ t=0.42
2.3867300809531056
% es.EX (V/m) @ t=0.42
-2.3062132198844347
% es.EY (V/m) @ t=0.42
0.1776606358828492
% es.EZ (V/m) @ t=0.42
-0.5877887115832632
% es.tEX (V/m) @ t=0.42
-2.3062132198844445
% es.tEY (V/m) @ t=0.42
0
% es.tEZ (V/m) @ t=0.42
-0.5877887115832721
% es.Ex (V/m) @ t=0.42
-2.3062132198844347
% es.Ey (V/m) @ t=0.42
0.1776606358828492
% es.Ez (V/m) @ t=0.42
-0.5877887115832632
% es.tEx (V/m) @ t=0.42
-2.3062132198844445
% es.tEy (V/m) @ t=0.42
0
% es.tEz (V/m) @ t=0.42
-0.5877887115832721
% V (V) @ t=0.42
0.013831683915147424
% es.normE (V/m) @ t=0.44
2.4085683660348045
% es.EX (V/m) @ t=0.44
-2.327314879815467
% es.EY (V/m) @ t=0.44
0.17928596605054026
% es.EZ (V/m) @ t=0.44
-0.5931666096285237
% es.tEX (V/m) @ t=0.44
-2.3273148798154537
% es.tEY (V/m) @ t=0.44
0
% es.tEZ (V/m) @ t=0.44
-0.5931666096285291
% es.Ex (V/m) @ t=0.44
-2.327314879815467
% es.Ey (V/m) @ t=0.44
0.17928596605054026
% es.Ez (V/m) @ t=0.44
-0.5931666096285237
% es.tEx (V/m) @ t=0.44
-2.3273148798154537
% es.tEy (V/m) @ t=0.44
0
% es.tEz (V/m) @ t=0.44
-0.5931666096285291
% V (V) @ t=0.44
0.013958253016217411
% es.normE (V/m) @ t=0.46
2.4304066511165336
% es.EX (V/m) @ t=0.46
-2.348416539746477
% es.EY (V/m) @ t=0.46
0.18091129621821356
% es.EZ (V/m) @ t=0.46
-0.5985445076737426
% es.tEX (V/m) @ t=0.46
-2.348416539746495
% es.tEY (V/m) @ t=0.46
0
% es.tEZ (V/m) @ t=0.46
-0.5985445076737506
% es.Ex (V/m) @ t=0.46
-2.348416539746477
% es.Ey (V/m) @ t=0.46
0.18091129621821356
% es.Ez (V/m) @ t=0.46
-0.5985445076737426
% es.tEx (V/m) @ t=0.46
-2.348416539746495
% es.tEy (V/m) @ t=0.46
0
% es.tEz (V/m) @ t=0.46
-0.5985445076737506
% V (V) @ t=0.46
0.014084822117287399
% es.normE (V/m) @ t=0.48
2.4522449361983583
% es.EX (V/m) @ t=0.48
-2.3695181996775077
% es.EY (V/m) @ t=0.48
0.18253662638590273
% es.EZ (V/m) @ t=0.48
-0.6039224057190173
% es.tEX (V/m) @ t=0.48
-2.369518199677504
% es.tEY (V/m) @ t=0.48
0
% es.tEZ (V/m) @ t=0.48
-0.6039224057190076
% es.Ex (V/m) @ t=0.48
-2.3695181996775077
% es.Ey (V/m) @ t=0.48
0.18253662638590273
% es.Ez (V/m) @ t=0.48
-0.6039224057190173
% es.tEx (V/m) @ t=0.48
-2.369518199677504
% es.tEy (V/m) @ t=0.48
0
% es.tEz (V/m) @ t=0.48
-0.6039224057190076
% V (V) @ t=0.48
0.014211391218357391
% es.normE (V/m) @ t=0.5
2.474083221280221
% es.EX (V/m) @ t=0.5
-2.3906198596085257
% es.EY (V/m) @ t=0.5
0.18416195655354217
% es.EZ (V/m) @ t=0.5
-0.6093003037642655
% es.tEX (V/m) @ t=0.5
-2.390619859608531
% es.tEY (V/m) @ t=0.5
0
% es.tEZ (V/m) @ t=0.5
-0.6093003037642575
% es.Ex (V/m) @ t=0.5
-2.3906198596085257
% es.Ey (V/m) @ t=0.5
0.18416195655354217
% es.Ez (V/m) @ t=0.5
-0.6093003037642655
% es.tEx (V/m) @ t=0.5
-2.390619859608531
% es.tEy (V/m) @ t=0.5
0
% es.tEz (V/m) @ t=0.5
-0.6093003037642575
% V (V) @ t=0.5
0.014337960319427379
% es.normE (V/m) @ t=0.52
2.4968770110747522
% es.EX (V/m) @ t=0.52
-2.412644746098781
% es.EY (V/m) @ t=0.52
0.1858585248760587
% es.EZ (V/m) @ t=0.52
-0.6149136557017778
% es.tEX (V/m) @ t=0.52
-2.412644746098792
% es.tEY (V/m) @ t=0.52
0
% es.tEZ (V/m) @ t=0.52
-0.6149136557017734
% es.Ex (V/m) @ t=0.52
-2.412644746098781
% es.Ey (V/m) @ t=0.52
0.1858585248760587
% es.Ez (V/m) @ t=0.52
-0.6149136557017778
% es.tEx (V/m) @ t=0.52
-2.412644746098792
% es.tEy (V/m) @ t=0.52
0
% es.tEz (V/m) @ t=0.52
-0.6149136557017734
% V (V) @ t=0.52
0.014470061714237066
% es.normE (V/m) @ t=0.54
2.521073711997567
% es.EX (V/m) @ t=0.54
-2.4360251516113696
% es.EY (V/m) @ t=0.54
0.1876596879732476
% es.EZ (V/m) @ t=0.54
-0.6208727106811458
% es.tEX (V/m) @ t=0.54
-2.4360251516113927
% es.tEY (V/m) @ t=0.54
0
% es.tEZ (V/m) @ t=0.54
-0.6208727106811374
% es.Ex (V/m) @ t=0.54
-2.4360251516113696
% es.Ey (V/m) @ t=0.54
0.1876596879732476
% es.Ez (V/m) @ t=0.54
-0.6208727106811458
% es.tEx (V/m) @ t=0.54
-2.4360251516113927
% es.tEy (V/m) @ t=0.54
0
% es.tEz (V/m) @ t=0.54
-0.6208727106811374
% V (V) @ t=0.54
0.014610285849153876
% es.normE (V/m) @ t=0.56
2.545270412920324
% es.EX (V/m) @ t=0.56
-2.459405557123892
% es.EY (V/m) @ t=0.56
0.1894608510705147
% es.EZ (V/m) @ t=0.56
-0.6268317656605027
% es.tEX (V/m) @ t=0.56
-2.459405557123894
% es.tEY (V/m) @ t=0.56
0
% es.tEZ (V/m) @ t=0.56
-0.6268317656605014
% es.Ex (V/m) @ t=0.56
-2.459405557123892
% es.Ey (V/m) @ t=0.56
0.1894608510705147
% es.Ez (V/m) @ t=0.56
-0.6268317656605027
% es.tEx (V/m) @ t=0.56
-2.459405557123894
% es.tEy (V/m) @ t=0.56
0
% es.tEz (V/m) @ t=0.56
-0.6268317656605014
% V (V) @ t=0.56
0.014750509984070681
% es.normE (V/m) @ t=0.58
2.569467113843127
% es.EX (V/m) @ t=0.58
-2.4827859626364717
% es.EY (V/m) @ t=0.58
0.19126201416770716
% es.EZ (V/m) @ t=0.58
-0.6327908206398365
% es.tEX (V/m) @ t=0.58
-2.482785962636477
% es.tEY (V/m) @ t=0.58
0
% es.tEZ (V/m) @ t=0.58
-0.6327908206398369
% es.Ex (V/m) @ t=0.58
-2.4827859626364717
% es.Ey (V/m) @ t=0.58
0.19126201416770716
% es.Ez (V/m) @ t=0.58
-0.6327908206398365
% es.tEx (V/m) @ t=0.58
-2.482785962636477
% es.tEy (V/m) @ t=0.58
0
% es.tEz (V/m) @ t=0.58
-0.6327908206398369
% V (V) @ t=0.58
0.014890734118987496
% es.normE (V/m) @ t=0.6
2.593663814765922
% es.EX (V/m) @ t=0.6
-2.50616636814903
% es.EY (V/m) @ t=0.6
0.19306317726492273
% es.EZ (V/m) @ t=0.6
-0.6387498756192076
% es.tEX (V/m) @ t=0.6
-2.5061663681490316
% es.tEY (V/m) @ t=0.6
0
% es.tEZ (V/m) @ t=0.6
-0.6387498756192009
% es.Ex (V/m) @ t=0.6
-2.50616636814903
% es.Ey (V/m) @ t=0.6
0.19306317726492273
% es.Ez (V/m) @ t=0.6
-0.6387498756192076
% es.tEx (V/m) @ t=0.6
-2.5061663681490316
% es.tEy (V/m) @ t=0.6
0
% es.tEz (V/m) @ t=0.6
-0.6387498756192009
% V (V) @ t=0.6
0.015030958253904304
% es.normE (V/m) @ t=0.62
2.617860515688708
% es.EX (V/m) @ t=0.62
-2.52954677366157
% es.EY (V/m) @ t=0.62
0.19486434036217382
% es.EZ (V/m) @ t=0.62
-0.6447089305985876
% es.tEX (V/m) @ t=0.62
-2.5295467736615613
% es.tEY (V/m) @ t=0.62
0
% es.tEZ (V/m) @ t=0.62
-0.6447089305985791
% es.Ex (V/m) @ t=0.62
-2.52954677366157
% es.Ey (V/m) @ t=0.62
0.19486434036217382
% es.Ez (V/m) @ t=0.62
-0.6447089305985876
% es.tEx (V/m) @ t=0.62
-2.5295467736615613
% es.tEy (V/m) @ t=0.62
0
% es.tEz (V/m) @ t=0.62
-0.6447089305985791
% V (V) @ t=0.62
0.015171182388821114
% es.normE (V/m) @ t=0.64
2.6420572166115135
% es.EX (V/m) @ t=0.64
-2.5529271791741426
% es.EY (V/m) @ t=0.64
0.19666550345938416
% es.EZ (V/m) @ t=0.64
-0.6506679855779285
% es.tEX (V/m) @ t=0.64
-2.552927179174162
% es.tEY (V/m) @ t=0.64
0
% es.tEZ (V/m) @ t=0.64
-0.6506679855779254
% es.Ex (V/m) @ t=0.64
-2.5529271791741426
% es.Ey (V/m) @ t=0.64
0.19666550345938416
% es.Ez (V/m) @ t=0.64
-0.6506679855779285
% es.tEx (V/m) @ t=0.64
-2.552927179174162
% es.tEy (V/m) @ t=0.64
0
% es.tEz (V/m) @ t=0.64
-0.6506679855779254
% V (V) @ t=0.64
0.015311406523737924
% es.normE (V/m) @ t=0.66
2.666253917534296
% es.EX (V/m) @ t=0.66
-2.5763075846866847
% es.EY (V/m) @ t=0.66
0.19846666655663336
% es.EZ (V/m) @ t=0.66
-0.6566270405572734
% es.tEX (V/m) @ t=0.66
-2.576307584686692
% es.tEY (V/m) @ t=0.66
0
% es.tEZ (V/m) @ t=0.66
-0.6566270405572752
% es.Ex (V/m) @ t=0.66
-2.5763075846866847
% es.Ey (V/m) @ t=0.66
0.19846666655663336
% es.Ez (V/m) @ t=0.66
-0.6566270405572734
% es.tEx (V/m) @ t=0.66
-2.576307584686692
% es.tEy (V/m) @ t=0.66
0
% es.tEz (V/m) @ t=0.66
-0.6566270405572752
% V (V) @ t=0.66
0.015451630658654738
% es.normE (V/m) @ t=0.68
2.690450618457108
% es.EX (V/m) @ t=0.68
-2.5996879901992553
% es.EY (V/m) @ t=0.68
0.20026782965380285
% es.EZ (V/m) @ t=0.68
-0.6625860955366445
% es.tEX (V/m) @ t=0.68
-2.5996879901992607
% es.tEY (V/m) @ t=0.68
0
% es.tEZ (V/m) @ t=0.68
-0.662586095536625
% es.Ex (V/m) @ t=0.68
-2.5996879901992553
% es.Ey (V/m) @ t=0.68
0.20026782965380285
% es.Ez (V/m) @ t=0.68
-0.6625860955366445
% es.tEx (V/m) @ t=0.68
-2.5996879901992607
% es.tEy (V/m) @ t=0.68
0
% es.tEz (V/m) @ t=0.68
-0.662586095536625
% V (V) @ t=0.68
0.015591854793571544
% es.normE (V/m) @ t=0.7
2.7146473193798983
% es.EX (V/m) @ t=0.7
-2.623068395711794
% es.EY (V/m) @ t=0.7
0.20206899275104873
% es.EZ (V/m) @ t=0.7
-0.6685451505160205
% es.tEX (V/m) @ t=0.7
-2.623068395711794
% es.tEY (V/m) @ t=0.7
0
% es.tEZ (V/m) @ t=0.7
-0.6685451505160138
% es.Ex (V/m) @ t=0.7
-2.623068395711794
% es.Ey (V/m) @ t=0.7
0.20206899275104873
% es.Ez (V/m) @ t=0.7
-0.6685451505160205
% es.tEx (V/m) @ t=0.7
-2.623068395711794
% es.tEy (V/m) @ t=0.7
0
% es.tEz (V/m) @ t=0.7
-0.6685451505160138
% V (V) @ t=0.7
0.01573207892848836
% es.normE (V/m) @ t=0.72
2.73884402030271
% es.EX (V/m) @ t=0.72
-2.646448801224361
% es.EY (V/m) @ t=0.72
0.20387015584825707
% es.EZ (V/m) @ t=0.72
-0.6745042054953778
% es.tEX (V/m) @ t=0.72
-2.6464488012243628
% es.tEY (V/m) @ t=0.72
0
% es.tEZ (V/m) @ t=0.72
-0.6745042054953672
% es.Ex (V/m) @ t=0.72
-2.646448801224361
% es.Ey (V/m) @ t=0.72
0.20387015584825707
% es.Ez (V/m) @ t=0.72
-0.6745042054953778
% es.tEx (V/m) @ t=0.72
-2.6464488012243628
% es.tEy (V/m) @ t=0.72
0
% es.tEz (V/m) @ t=0.72
-0.6745042054953672
% V (V) @ t=0.72
0.015872303063405164
% es.normE (V/m) @ t=0.74
2.7630407212255177
% es.EX (V/m) @ t=0.74
-2.669829206736921
% es.EY (V/m) @ t=0.74
0.20567131894547097
% es.EZ (V/m) @ t=0.74
-0.6804632604747347
% es.tEX (V/m) @ t=0.74
-2.669829206736921
% es.tEY (V/m) @ t=0.74
0
% es.tEZ (V/m) @ t=0.74
-0.6804632604747312
% es.Ex (V/m) @ t=0.74
-2.669829206736921
% es.Ey (V/m) @ t=0.74
0.20567131894547097
% es.Ez (V/m) @ t=0.74
-0.6804632604747347
% es.tEx (V/m) @ t=0.74
-2.669829206736921
% es.tEy (V/m) @ t=0.74
0
% es.tEz (V/m) @ t=0.74
-0.6804632604747312
% V (V) @ t=0.74
0.016012527198321976
% es.normE (V/m) @ t=0.76
2.787237422148296
% es.EX (V/m) @ t=0.76
-2.693209612249447
% es.EY (V/m) @ t=0.76
0.20747248204272373
% es.EZ (V/m) @ t=0.76
-0.6864223154540849
% es.tEX (V/m) @ t=0.76
-2.6932096122494364
% es.tEY (V/m) @ t=0.76
0
% es.tEZ (V/m) @ t=0.76
-0.6864223154540774
% es.Ex (V/m) @ t=0.76
-2.693209612249447
% es.Ey (V/m) @ t=0.76
0.20747248204272373
% es.Ez (V/m) @ t=0.76
-0.6864223154540849
% es.tEx (V/m) @ t=0.76
-2.6932096122494364
% es.tEy (V/m) @ t=0.76
0
% es.tEz (V/m) @ t=0.76
-0.6864223154540774
% V (V) @ t=0.76
0.016152751333238784
% es.normE (V/m) @ t=0.78
2.8130573242329078
% es.EX (V/m) @ t=0.78
-2.7181584501839477
% es.EY (V/m) @ t=0.78
0.2093944960170021
% es.EZ (V/m) @ t=0.78
-0.6927811525702068
% es.tEX (V/m) @ t=0.78
-2.7181584501839495
% es.tEY (V/m) @ t=0.78
0
% es.tEZ (V/m) @ t=0.78
-0.6927811525702019
% es.Ex (V/m) @ t=0.78
-2.7181584501839477
% es.Ey (V/m) @ t=0.78
0.2093944960170021
% es.Ez (V/m) @ t=0.78
-0.6927811525702068
% es.tEx (V/m) @ t=0.78
-2.7181584501839495
% es.tEy (V/m) @ t=0.78
0
% es.tEz (V/m) @ t=0.78
-0.6927811525702019
% V (V) @ t=0.78
0.01630238118722476
% es.normE (V/m) @ t=0.8
2.8399113346013394
% es.EX (V/m) @ t=0.8
-2.744106504357516
% es.EY (V/m) @ t=0.8
0.21139350161495862
% es.EZ (V/m) @ t=0.8
-0.6993946827145567
% es.tEX (V/m) @ t=0.8
-2.7441065043575286
% es.tEY (V/m) @ t=0.8
0
% es.tEZ (V/m) @ t=0.8
-0.6993946827145479
% es.Ex (V/m) @ t=0.8
-2.744106504357516
% es.Ey (V/m) @ t=0.8
0.21139350161495862
% es.Ez (V/m) @ t=0.8
-0.6993946827145567
% es.tEx (V/m) @ t=0.8
-2.7441065043575286
% es.tEy (V/m) @ t=0.8
0
% es.tEz (V/m) @ t=0.8
-0.6993946827145479
% V (V) @ t=0.8
0.016458003232587743
% es.normE (V/m) @ t=0.82
2.866765344969819
% es.EX (V/m) @ t=0.82
-2.7700545585311236
% es.EY (V/m) @ t=0.82
0.21339250721295422
% es.EZ (V/m) @ t=0.82
-0.7060082128589076
% es.tEX (V/m) @ t=0.82
-2.770054558531136
% es.tEY (V/m) @ t=0.82
0
% es.tEZ (V/m) @ t=0.82
-0.7060082128589222
% es.Ex (V/m) @ t=0.82
-2.7700545585311236
% es.Ey (V/m) @ t=0.82
0.21339250721295422
% es.Ez (V/m) @ t=0.82
-0.7060082128589076
% es.tEx (V/m) @ t=0.82
-2.770054558531136
% es.tEy (V/m) @ t=0.82
0
% es.tEz (V/m) @ t=0.82
-0.7060082128589222
% V (V) @ t=0.82
0.016613625277950732
% es.normE (V/m) @ t=0.84
2.8936193553382537
% es.EX (V/m) @ t=0.84
-2.796002612704669
% es.EY (V/m) @ t=0.84
0.21539151281096047
% es.EZ (V/m) @ t=0.84
-0.7126217430032931
% es.tEX (V/m) @ t=0.84
-2.796002612704683
% es.tEY (V/m) @ t=0.84
0
% es.tEZ (V/m) @ t=0.84
-0.712621743003286
% es.Ex (V/m) @ t=0.84
-2.796002612704669
% es.Ey (V/m) @ t=0.84
0.21539151281096047
% es.Ez (V/m) @ t=0.84
-0.7126217430032931
% es.tEx (V/m) @ t=0.84
-2.796002612704683
% es.tEy (V/m) @ t=0.84
0
% es.tEz (V/m) @ t=0.84
-0.712621743003286
% V (V) @ t=0.84
0.016769247323313724
% es.normE (V/m) @ t=0.86
2.9204733657067132
% es.EX (V/m) @ t=0.86
-2.821950666878246
% es.EY (V/m) @ t=0.86
0.21739051840890822
% es.EZ (V/m) @ t=0.86
-0.7192352731476497
% es.tEX (V/m) @ t=0.86
-2.8219506668782515
% es.tEY (V/m) @ t=0.86
0
% es.tEZ (V/m) @ t=0.86
-0.7192352731476568
% es.Ex (V/m) @ t=0.86
-2.821950666878246
% es.Ey (V/m) @ t=0.86
0.21739051840890822
% es.Ez (V/m) @ t=0.86
-0.7192352731476497
% es.tEx (V/m) @ t=0.86
-2.8219506668782515
% es.tEy (V/m) @ t=0.86
0
% es.tEz (V/m) @ t=0.86
-0.7192352731476568
% V (V) @ t=0.86
0.016924869368676713
% es.normE (V/m) @ t=0.88
2.9473273760751955
% es.EX (V/m) @ t=0.88
-2.847898721051841
% es.EY (V/m) @ t=0.88
0.21938952400687173
% es.EZ (V/m) @ t=0.88
-0.725848803291997
% es.tEX (V/m) @ t=0.88
-2.847898721051852
% es.tEY (V/m) @ t=0.88
0
% es.tEZ (V/m) @ t=0.88
-0.7258488032919956
% es.Ex (V/m) @ t=0.88
-2.847898721051841
% es.Ey (V/m) @ t=0.88
0.21938952400687173
% es.Ez (V/m) @ t=0.88
-0.725848803291997
% es.tEx (V/m) @ t=0.88
-2.847898721051852
% es.tEy (V/m) @ t=0.88
0
% es.tEz (V/m) @ t=0.88
-0.7258488032919956
% V (V) @ t=0.88
0.0170804914140397
% es.normE (V/m) @ t=0.9
2.974181386443653
% es.EX (V/m) @ t=0.9
-2.8738467752254024
% es.EY (V/m) @ t=0.9
0.22138852960485322
% es.EZ (V/m) @ t=0.9
-0.7324623334363469
% es.tEX (V/m) @ t=0.9
-2.873846775225399
% es.tEY (V/m) @ t=0.9
0
% es.tEZ (V/m) @ t=0.9
-0.7324623334363594
% es.Ex (V/m) @ t=0.9
-2.8738467752254024
% es.Ey (V/m) @ t=0.9
0.22138852960485322
% es.Ez (V/m) @ t=0.9
-0.7324623334363469
% es.tEx (V/m) @ t=0.9
-2.873846775225399
% es.tEy (V/m) @ t=0.9
0
% es.tEz (V/m) @ t=0.9
-0.7324623334363594
% V (V) @ t=0.9
0.01723611345940269
% es.normE (V/m) @ t=0.92
3.0010353968121533
% es.EX (V/m) @ t=0.92
-2.8997948293989957
% es.EY (V/m) @ t=0.92
0.22338753520283816
% es.EZ (V/m) @ t=0.92
-0.7390758635807235
% es.tEX (V/m) @ t=0.92
-2.8997948293990135
% es.tEY (V/m) @ t=0.92
0
% es.tEZ (V/m) @ t=0.92
-0.7390758635807266
% es.Ex (V/m) @ t=0.92
-2.8997948293989957
% es.Ey (V/m) @ t=0.92
0.22338753520283816
% es.Ez (V/m) @ t=0.92
-0.7390758635807235
% es.tEx (V/m) @ t=0.92
-2.8997948293990135
% es.tEy (V/m) @ t=0.92
0
% es.tEz (V/m) @ t=0.92
-0.7390758635807266
% V (V) @ t=0.92
0.017391735504765676
% es.normE (V/m) @ t=0.94
3.027889407180652
% es.EX (V/m) @ t=0.94
-2.925742883572589
% es.EY (V/m) @ t=0.94
0.22538654080080545
% es.EZ (V/m) @ t=0.94
-0.745689393725077
% es.tEX (V/m) @ t=0.94
-2.9257428835725854
% es.tEY (V/m) @ t=0.94
0
% es.tEZ (V/m) @ t=0.94
-0.7456893937250797
% es.Ex (V/m) @ t=0.94
-2.925742883572589
% es.Ey (V/m) @ t=0.94
0.22538654080080545
% es.Ez (V/m) @ t=0.94
-0.745689393725077
% es.tEx (V/m) @ t=0.94
-2.9257428835725854
% es.tEy (V/m) @ t=0.94
0
% es.tEz (V/m) @ t=0.94
-0.7456893937250797
% V (V) @ t=0.94
0.017547357550128668
% es.normE (V/m) @ t=0.96
3.0547434175491253
% es.EX (V/m) @ t=0.96
-2.9516909377461467
% es.EY (V/m) @ t=0.96
0.2273855463987815
% es.EZ (V/m) @ t=0.96
-0.752302923869443
% es.tEX (V/m) @ t=0.96
-2.951690937746143
% es.tEY (V/m) @ t=0.96
0
% es.tEZ (V/m) @ t=0.96
-0.752302923869447
% es.Ex (V/m) @ t=0.96
-2.9516909377461467
% es.Ey (V/m) @ t=0.96
0.2273855463987815
% es.Ez (V/m) @ t=0.96
-0.752302923869443
% es.tEx (V/m) @ t=0.96
-2.951690937746143
% es.tEy (V/m) @ t=0.96
0
% es.tEz (V/m) @ t=0.96
-0.752302923869447
% V (V) @ t=0.96
0.017702979595491657
% es.normE (V/m) @ t=0.98
3.08159742791763
% es.EX (V/m) @ t=0.98
-2.97763899191974
% es.EY (V/m) @ t=0.98
0.22938455199674346
% es.EZ (V/m) @ t=0.98
-0.7589164540137823
% es.tEX (V/m) @ t=0.98
-2.9776389919197435
% es.tEY (V/m) @ t=0.98
0
% es.tEZ (V/m) @ t=0.98
-0.7589164540137858
% es.Ex (V/m) @ t=0.98
-2.97763899191974
% es.Ey (V/m) @ t=0.98
0.22938455199674346
% es.Ez (V/m) @ t=0.98
-0.7589164540137823
% es.tEx (V/m) @ t=0.98
-2.9776389919197435
% es.tEy (V/m) @ t=0.98
0
% es.tEz (V/m) @ t=0.98
-0.7589164540137858
% V (V) @ t=0.98
0.017858601640854642
% es.normE (V/m) @ t=1
3.1084514382861057
% es.EX (V/m) @ t=1
-3.003587046093287
% es.EY (V/m) @ t=1
0.23138355759469986
% es.EZ (V/m) @ t=1
-0.7655299841581629
% es.tEX (V/m) @ t=1
-3.0035870460932976
% es.tEY (V/m) @ t=1
0
% es.tEZ (V/m) @ t=1
-0.7655299841581673
% es.Ex (V/m) @ t=1
-3.003587046093287
% es.Ey (V/m) @ t=1
0.23138355759469986
% es.Ez (V/m) @ t=1
-0.7655299841581629
% es.tEx (V/m) @ t=1
-3.0035870460932976
% es.tEy (V/m) @ t=1
0
% es.tEz (V/m) @ t=1
-0.7655299841581673
% V (V) @ t=1
0.018014223686217634
% es.normE (V/m) @ t=1.02
3.1353054486546132
% es.EX (V/m) @ t=1.02
-3.0295351002668607
% es.EY (V/m) @ t=1.02
0.23338256319272221
% es.EZ (V/m) @ t=1.02
-0.7721435143025266
% es.tEX (V/m) @ t=1.02
-3.0295351002668767
% es.tEY (V/m) @ t=1.02
0
% es.tEZ (V/m) @ t=1.02
-0.7721435143025168
% es.Ex (V/m) @ t=1.02
-3.0295351002668607
% es.Ey (V/m) @ t=1.02
0.23338256319272221
% es.Ez (V/m) @ t=1.02
-0.7721435143025266
% es.tEx (V/m) @ t=1.02
-3.0295351002668767
% es.tEy (V/m) @ t=1.02
0
% es.tEz (V/m) @ t=1.02
-0.7721435143025168
% V (V) @ t=1.02
0.018169845731580623
% es.normE (V/m) @ t=1.04
3.16322272661613
% es.EX (V/m) @ t=1.04