% Model:              1 neuron.mph
% Version:            COMSOL 6.1.0.252
% Date:               Mar 22 2023, 18:18
% Dimension:          0
% Nodes:              14017
% Expressions:        14017
% Description:        Electric field norm, Electric field, X component, Electric field, Y component, Electric field, Z component, Tangential electric field, X component, Tangential electric field, Y component, Tangential electric field, Z component, Electric field, x component, Electric field, y component, Electric field, z component, Tangential electric field, x component, Tangential electric field, y component, Tangential electric field, z component, Electric potential
% Length unit:        mm
% x
1.33
% y
12.2
% z
1
% es.normE (V/m) @ t=0
2.854420579596414
% es.EX (V/m) @ t=0
0.8810538304154758
% es.EY (V/m) @ t=0
0.2134475492964516
% es.EZ (V/m) @ t=0
2.7066206371561226
% es.tEX (V/m) @ t=0
0.8810538304154818
% es.tEY (V/m) @ t=0
0
% es.tEZ (V/m) @ t=0
2.7066206371561137
% es.Ex (V/m) @ t=0
0.8810538304154758
% es.Ey (V/m) @ t=0
0.2134475492964516
% es.Ez (V/m) @ t=0
2.7066206371561226
% es.tEx (V/m) @ t=0
0.8810538304154818
% es.tEy (V/m) @ t=0
0
% es.tEz (V/m) @ t=0
2.7066206371561137
% V (V) @ t=0
0.013350199707388245
% es.normE (V/m) @ t=0.02
2.4653905126855133
% es.EX (V/m) @ t=0.02
0.7609746686862026
% es.EY (V/m) @ t=0.02
0.18435670157788475
% es.EZ (V/m) @ t=0.02
2.3377342806191743
% es.tEX (V/m) @ t=0.02
0.7609746686862096
% es.tEY (V/m) @ t=0.02
0
% es.tEZ (V/m) @ t=0.02
2.3377342806192036
% es.Ex (V/m) @ t=0.02
0.7609746686862026
% es.Ey (V/m) @ t=0.02
0.18435670157788475
% es.Ez (V/m) @ t=0.02
2.3377342806191743
% es.tEx (V/m) @ t=0.02
0.7609746686862096
% es.tEy (V/m) @ t=0.02
0
% es.tEz (V/m) @ t=0.02
2.3377342806192036
% V (V) @ t=0.02
0.011530695907002043
% es.normE (V/m) @ t=0.04
2.488068552642063
% es.EX (V/m) @ t=0.04
0.7679745391521786
% es.EY (V/m) @ t=0.04
0.18605251755506091
% es.EZ (V/m) @ t=0.04
2.359238067162169
% es.tEX (V/m) @ t=0.04
0.7679745391521848
% es.tEY (V/m) @ t=0.04
0
% es.tEZ (V/m) @ t=0.04
2.3592380671621793
% es.Ex (V/m) @ t=0.04
0.7679745391521786
% es.Ey (V/m) @ t=0.04
0.18605251755506091
% es.Ez (V/m) @ t=0.04
2.359238067162169
% es.tEx (V/m) @ t=0.04
0.7679745391521848
% es.tEy (V/m) @ t=0.04
0
% es.tEz (V/m) @ t=0.04
2.3592380671621793
% V (V) @ t=0.04
0.011636761688232973
% es.normE (V/m) @ t=0.06
2.5109166094160824
% es.EX (V/m) @ t=0.06
0.7750268872432687
% es.EY (V/m) @ t=0.06
0.18776104705319374
% es.EZ (V/m) @ t=0.06
2.3809030672524294
% es.tEX (V/m) @ t=0.06
0.7750268872432642
% es.tEY (V/m) @ t=0.06
0
% es.tEZ (V/m) @ t=0.06
2.380903067252447
% es.Ex (V/m) @ t=0.06
0.7750268872432687
% es.Ey (V/m) @ t=0.06
0.18776104705319374
% es.Ez (V/m) @ t=0.06
2.3809030672524294
% es.tEx (V/m) @ t=0.06
0.7750268872432642
% es.tEy (V/m) @ t=0.06
0
% es.tEz (V/m) @ t=0.06
2.380903067252447
% V (V) @ t=0.06
0.01174362265312992
% es.normE (V/m) @ t=0.08
2.5341922794059295
% es.EX (V/m) @ t=0.08
0.7822112237915977
% es.EY (V/m) @ t=0.08
0.18950155256139822
% es.EZ (V/m) @ t=0.08
2.4029735390045546
% es.tEX (V/m) @ t=0.08
0.7822112237915988
% es.tEY (V/m) @ t=0.08
0
% es.tEZ (V/m) @ t=0.08
2.402973539004565
% es.Ex (V/m) @ t=0.08
0.7822112237915977
% es.Ey (V/m) @ t=0.08
0.18950155256139822
% es.Ez (V/m) @ t=0.08
2.4029735390045546
% es.tEx (V/m) @ t=0.08
0.7822112237915988
% es.tEy (V/m) @ t=0.08
0
% es.tEz (V/m) @ t=0.08
2.402973539004565
% V (V) @ t=0.08
0.011852483572081242
% es.normE (V/m) @ t=0.1
2.557600528017455
% es.EX (V/m) @ t=0.1
0.7894364824795753
% es.EY (V/m) @ t=0.1
0.19125197201795352
% es.EZ (V/m) @ t=0.1
2.425169724537432
% es.tEX (V/m) @ t=0.1
0.7894364824795801
% es.tEY (V/m) @ t=0.1
0
% es.tEZ (V/m) @ t=0.1
2.425169724537449
% es.Ex (V/m) @ t=0.1
0.7894364824795753
% es.Ey (V/m) @ t=0.1
0.19125197201795352
% es.Ez (V/m) @ t=0.1
2.425169724537432
% es.tEx (V/m) @ t=0.1
0.7894364824795801
% es.tEy (V/m) @ t=0.1
0
% es.tEz (V/m) @ t=0.1
2.425169724537449
% V (V) @ t=0.1
0.011961964563430126
% es.normE (V/m) @ t=0.12
2.581008776628998
% es.EX (V/m) @ t=0.12
0.7966617411675636
% es.EY (V/m) @ t=0.12
0.19300239147450116
% es.EZ (V/m) @ t=0.12
2.447365910070326
% es.tEX (V/m) @ t=0.12
0.7966617411675685
% es.tEY (V/m) @ t=0.12
0
% es.tEZ (V/m) @ t=0.12
2.4473659100703085
% es.Ex (V/m) @ t=0.12
0.7966617411675636
% es.Ey (V/m) @ t=0.12
0.19300239147450116
% es.Ez (V/m) @ t=0.12
2.447365910070326
% es.tEx (V/m) @ t=0.12
0.7966617411675685
% es.tEy (V/m) @ t=0.12
0
% es.tEz (V/m) @ t=0.12
2.4473659100703085
% V (V) @ t=0.12
0.01207144555477901
% es.normE (V/m) @ t=0.14
2.605050555964036
% es.EX (V/m) @ t=0.14
0.8040825475376921
% es.EY (V/m) @ t=0.14
0.19480018500527385
% es.EZ (V/m) @ t=0.14
2.470162822466311
% es.tEX (V/m) @ t=0.14
0.8040825475376963
% es.tEY (V/m) @ t=0.14
0
% es.tEZ (V/m) @ t=0.14
2.4701628224663192
% es.Ex (V/m) @ t=0.14
0.8040825475376921
% es.Ey (V/m) @ t=0.14
0.19480018500527385
% es.Ez (V/m) @ t=0.14
2.470162822466311
% es.tEx (V/m) @ t=0.14
0.8040825475376963
% es.tEy (V/m) @ t=0.14
0
% es.tEz (V/m) @ t=0.14
2.4701628224663192
% V (V) @ t=0.14
0.01218388957344961
% es.normE (V/m) @ t=0.16
2.6296404963704907
% es.EX (V/m) @ t=0.16
0.8116725511116638
% es.EY (V/m) @ t=0.16
0.19663896885005594
% es.EZ (V/m) @ t=0.16
2.4934795124653166
% es.tEX (V/m) @ t=0.16
0.8116725511116698
% es.tEY (V/m) @ t=0.16
0
% es.tEZ (V/m) @ t=0.16
2.4934795124653313
% es.Ex (V/m) @ t=0.16
0.8116725511116638
% es.Ey (V/m) @ t=0.16
0.19663896885005594
% es.Ez (V/m) @ t=0.16
2.4934795124653166
% es.tEx (V/m) @ t=0.16
0.8116725511116698
% es.tEy (V/m) @ t=0.16
0
% es.tEz (V/m) @ t=0.16
2.4934795124653313
% V (V) @ t=0.16
0.012298897345022956
% es.normE (V/m) @ t=0.18
2.654230436776979
% es.EX (V/m) @ t=0.18
0.8192625546856451
% es.EY (V/m) @ t=0.18
0.19847775269488432
% es.EZ (V/m) @ t=0.18
2.516796202464351
% es.tEX (V/m) @ t=0.18
0.8192625546856505
% es.tEY (V/m) @ t=0.18
0
% es.tEZ (V/m) @ t=0.18
2.5167962024643575
% es.Ex (V/m) @ t=0.18
0.8192625546856451
% es.Ey (V/m) @ t=0.18
0.19847775269488432
% es.Ez (V/m) @ t=0.18
2.516796202464351
% es.tEx (V/m) @ t=0.18
0.8192625546856505
% es.tEy (V/m) @ t=0.18
0
% es.tEz (V/m) @ t=0.18
2.5167962024643575
% V (V) @ t=0.18
0.012413905116596301
% es.normE (V/m) @ t=0.2
2.6788203771834826
% es.EX (V/m) @ t=0.2
0.8268525582596287
% es.EY (V/m) @ t=0.2
0.2003165365396843
% es.EZ (V/m) @ t=0.2
2.540112892463402
% es.tEX (V/m) @ t=0.2
0.826852558259624
% es.tEY (V/m) @ t=0.2
0
% es.tEZ (V/m) @ t=0.2
2.540112892463396
% es.Ex (V/m) @ t=0.2
0.8268525582596287
% es.Ey (V/m) @ t=0.2
0.2003165365396843
% es.Ez (V/m) @ t=0.2
2.540112892463402
% es.tEx (V/m) @ t=0.2
0.826852558259624
% es.tEy (V/m) @ t=0.2
0
% es.tEz (V/m) @ t=0.2
2.540112892463396
% V (V) @ t=0.2
0.012528912888169643
% es.normE (V/m) @ t=0.22
2.703410317589941
% es.EX (V/m) @ t=0.22
0.8344425618335878
% es.EY (V/m) @ t=0.22
0.20215532038446626
% es.EZ (V/m) @ t=0.22
2.563429582462416
% es.tEX (V/m) @ t=0.22
0.8344425618335904
% es.tEY (V/m) @ t=0.22
0
% es.tEZ (V/m) @ t=0.22
2.5634295824624367
% es.Ex (V/m) @ t=0.22
0.8344425618335878
% es.Ey (V/m) @ t=0.22
0.20215532038446626
% es.Ez (V/m) @ t=0.22
2.563429582462416
% es.tEx (V/m) @ t=0.22
0.8344425618335904
% es.tEy (V/m) @ t=0.22
0
% es.tEz (V/m) @ t=0.22
2.5634295824624367
% V (V) @ t=0.22
0.012643920659742987
% es.normE (V/m) @ t=0.24
2.7280002579964484
% es.EX (V/m) @ t=0.24
0.8420325654075658
% es.EY (V/m) @ t=0.24
0.20399410422926678
% es.EZ (V/m) @ t=0.24
2.586746272461473
% es.tEX (V/m) @ t=0.24
0.8420325654075711
% es.tEY (V/m) @ t=0.24
0
% es.tEZ (V/m) @ t=0.24
2.5867462724614754
% es.Ex (V/m) @ t=0.24
0.8420325654075658
% es.Ey (V/m) @ t=0.24
0.20399410422926678
% es.Ez (V/m) @ t=0.24
2.586746272461473
% es.tEx (V/m) @ t=0.24
0.8420325654075711
% es.tEy (V/m) @ t=0.24
0
% es.tEz (V/m) @ t=0.24
2.5867462724614754
% V (V) @ t=0.24
0.012758928431316333
% es.normE (V/m) @ t=0.26
2.7528060066018787
% es.EX (V/m) @ t=0.26
0.8496891808254838
% es.EY (V/m) @ t=0.26
0.20584902575278097
% es.EZ (V/m) @ t=0.26
2.610267596306948
% es.tEX (V/m) @ t=0.26
0.8496891808254929
% es.tEY (V/m) @ t=0.26
0
% es.tEZ (V/m) @ t=0.26
2.610267596306951
% es.Ex (V/m) @ t=0.26
0.8496891808254838
% es.Ey (V/m) @ t=0.26
0.20584902575278097
% es.Ez (V/m) @ t=0.26
2.610267596306948
% es.tEx (V/m) @ t=0.26
0.8496891808254929
% es.tEy (V/m) @ t=0.26
0
% es.tEz (V/m) @ t=0.26
2.610267596306951
% V (V) @ t=0.26
0.012874945551904365
% es.normE (V/m) @ t=0.28
2.780037472960907
% es.EX (V/m) @ t=0.28
0.8580945237395898
% es.EY (V/m) @ t=0.28
0.2078853372974383
% es.EZ (V/m) @ t=0.28
2.6360890364442096
% es.tEX (V/m) @ t=0.28
0.8580945237395952
% es.tEY (V/m) @ t=0.28
0
% es.tEZ (V/m) @ t=0.28
2.636089036444215
% es.Ex (V/m) @ t=0.28
0.8580945237395898
% es.Ey (V/m) @ t=0.28
0.2078853372974383
% es.Ez (V/m) @ t=0.28
2.6360890364442096
% es.tEx (V/m) @ t=0.28
0.8580945237395952
% es.tEy (V/m) @ t=0.28
0
% es.tEz (V/m) @ t=0.28
2.636089036444215
% V (V) @ t=0.28
0.013002307912555005
% es.normE (V/m) @ t=0.3
2.807268939319952
% es.EX (V/m) @ t=0.3
0.8664998666537007
% es.EY (V/m) @ t=0.3
0.2099216488420379
% es.EZ (V/m) @ t=0.3
2.6619104765814923
% es.tEX (V/m) @ t=0.3
0.8664998666536974
% es.tEY (V/m) @ t=0.3
0
% es.tEZ (V/m) @ t=0.3
2.661910476581504
% es.Ex (V/m) @ t=0.3
0.8664998666537007
% es.Ey (V/m) @ t=0.3
0.2099216488420379
% es.Ez (V/m) @ t=0.3
2.6619104765814923
% es.tEx (V/m) @ t=0.3
0.8664998666536974
% es.tEy (V/m) @ t=0.3
0
% es.tEz (V/m) @ t=0.3
2.661910476581504
% V (V) @ t=0.3
0.013129670273205645
% es.normE (V/m) @ t=0.32
2.8345004056789955
% es.EX (V/m) @ t=0.32
0.8749052095678103
% es.EY (V/m) @ t=0.32
0.21195796038669523
% es.EZ (V/m) @ t=0.32
2.6877319167187688
% es.tEX (V/m) @ t=0.32
0.8749052095678138
% es.tEY (V/m) @ t=0.32
0
% es.tEZ (V/m) @ t=0.32
2.6877319167187714
% es.Ex (V/m) @ t=0.32
0.8749052095678103
% es.Ey (V/m) @ t=0.32
0.21195796038669523
% es.Ez (V/m) @ t=0.32
2.6877319167187688
% es.tEx (V/m) @ t=0.32
0.8749052095678138
% es.tEy (V/m) @ t=0.32
0
% es.tEz (V/m) @ t=0.32
2.6877319167187714
% V (V) @ t=0.32
0.013257032633856287
% es.normE (V/m) @ t=0.34
2.861731872038043
% es.EX (V/m) @ t=0.34
0.8833105524819205
% es.EY (V/m) @ t=0.34
0.21399427193135945
% es.EZ (V/m) @ t=0.34
2.713553356856049
% es.tEX (V/m) @ t=0.34
0.8833105524819231
% es.tEY (V/m) @ t=0.34
0
% es.tEZ (V/m) @ t=0.34
2.713553356856064
% es.Ex (V/m) @ t=0.34
0.8833105524819205
% es.Ey (V/m) @ t=0.34
0.21399427193135945
% es.Ez (V/m) @ t=0.34
2.713553356856049
% es.tEx (V/m) @ t=0.34
0.8833105524819231
% es.tEy (V/m) @ t=0.34
0
% es.tEz (V/m) @ t=0.34
2.713553356856064
% V (V) @ t=0.34
0.013384394994506927
% es.normE (V/m) @ t=0.36
2.888963338397105
% es.EX (V/m) @ t=0.36
0.8917158953960336
% es.EY (V/m) @ t=0.36
0.21603058347596238
% es.EZ (V/m) @ t=0.36
2.7393747969933484
% es.tEX (V/m) @ t=0.36
0.8917158953960396
% es.tEY (V/m) @ t=0.36
0
% es.tEZ (V/m) @ t=0.36
2.739374796993353
% es.Ex (V/m) @ t=0.36
0.8917158953960336
% es.Ey (V/m) @ t=0.36
0.21603058347596238
% es.Ez (V/m) @ t=0.36
2.7393747969933484
% es.tEx (V/m) @ t=0.36
0.8917158953960396
% es.tEy (V/m) @ t=0.36
0
% es.tEz (V/m) @ t=0.36
2.739374796993353
% V (V) @ t=0.36
0.013511757355157568
% es.normE (V/m) @ t=0.38
2.916194804756138
% es.EX (V/m) @ t=0.38
0.9001212383101436
% es.EY (V/m) @ t=0.38
0.21806689502058774
% es.EZ (V/m) @ t=0.38
2.765196237130617
% es.tEX (V/m) @ t=0.38
0.9001212383101418
% es.tEY (V/m) @ t=0.38
0
% es.tEZ (V/m) @ t=0.38
2.765196237130617
% es.Ex (V/m) @ t=0.38
0.9001212383101436
% es.Ey (V/m) @ t=0.38
0.21806689502058774
% es.Ez (V/m) @ t=0.38
2.765196237130617
% es.tEx (V/m) @ t=0.38
0.9001212383101418
% es.tEy (V/m) @ t=0.38
0
% es.tEz (V/m) @ t=0.38
2.765196237130617
% V (V) @ t=0.38
0.01363911971580821
% es.normE (V/m) @ t=0.4
2.943426271115162
% es.EX (V/m) @ t=0.4
0.9085265812242407
% es.EY (V/m) @ t=0.4
0.22010320656521953
% es.EZ (V/m) @ t=0.4
2.7910176772678783
% es.tEX (V/m) @ t=0.4
0.9085265812242369
% es.tEY (V/m) @ t=0.4
0
% es.tEZ (V/m) @ t=0.4
2.7910176772678774
% es.Ex (V/m) @ t=0.4
0.9085265812242407
% es.Ey (V/m) @ t=0.4
0.22010320656521953
% es.Ez (V/m) @ t=0.4
2.7910176772678783
% es.tEx (V/m) @ t=0.4
0.9085265812242369
% es.tEy (V/m) @ t=0.4
0
% es.tEz (V/m) @ t=0.4
2.7910176772678774
% V (V) @ t=0.4
0.013766482076458846
% es.normE (V/m) @ t=0.42
2.9706577374742116
% es.EX (V/m) @ t=0.42
0.9169319241383507
% es.EY (V/m) @ t=0.42
0.2221395181098722
% es.EZ (V/m) @ t=0.42
2.816839117405162
% es.tEX (V/m) @ t=0.42
0.9169319241383391
% es.tEY (V/m) @ t=0.42
0
% es.tEZ (V/m) @ t=0.42
2.81683911740517
% es.Ex (V/m) @ t=0.42
0.9169319241383507
% es.Ey (V/m) @ t=0.42
0.2221395181098722
% es.Ez (V/m) @ t=0.42
2.816839117405162
% es.tEx (V/m) @ t=0.42
0.9169319241383391
% es.tEy (V/m) @ t=0.42
0
% es.tEz (V/m) @ t=0.42
2.81683911740517
% V (V) @ t=0.42
0.013893844437109486
% es.normE (V/m) @ t=0.44
2.997889203833258
% es.EX (V/m) @ t=0.44
0.9253372670524531
% es.EY (V/m) @ t=0.44
0.22417582965450822
% es.EZ (V/m) @ t=0.44
2.8426605575424455
% es.tEX (V/m) @ t=0.44
0.9253372670524556
% es.tEY (V/m) @ t=0.44
0
% es.tEZ (V/m) @ t=0.44
2.842660557542434
% es.Ex (V/m) @ t=0.44
0.9253372670524531
% es.Ey (V/m) @ t=0.44
0.22417582965450822
% es.Ez (V/m) @ t=0.44
2.8426605575424455
% es.tEx (V/m) @ t=0.44
0.9253372670524556
% es.tEy (V/m) @ t=0.44
0
% es.tEz (V/m) @ t=0.44
2.842660557542434
% V (V) @ t=0.44
0.014021206797760127
% es.normE (V/m) @ t=0.46
3.0251206701922997
% es.EX (V/m) @ t=0.46
0.933742609966566
% es.EY (V/m) @ t=0.46
0.22621214119913646
% es.EZ (V/m) @ t=0.46
2.868481997679721
% es.tEX (V/m) @ t=0.46
0.933742609966572
% es.tEY (V/m) @ t=0.46
0
% es.tEZ (V/m) @ t=0.46
2.8684819976797407
% es.Ex (V/m) @ t=0.46
0.933742609966566
% es.Ey (V/m) @ t=0.46
0.22621214119913646
% es.Ez (V/m) @ t=0.46
2.868481997679721
% es.tEx (V/m) @ t=0.46
0.933742609966572
% es.tEy (V/m) @ t=0.46
0
% es.tEz (V/m) @ t=0.46
2.8684819976797407
% V (V) @ t=0.46
0.014148569158410767
% es.normE (V/m) @ t=0.48
3.0523521365513653
% es.EX (V/m) @ t=0.48
0.9421479528806695
% es.EY (V/m) @ t=0.48
0.22824845274375716
% es.EZ (V/m) @ t=0.48
2.894303437817026
% es.tEX (V/m) @ t=0.48
0.9421479528806742
% es.tEY (V/m) @ t=0.48
0
% es.tEZ (V/m) @ t=0.48
2.894303437817019
% es.Ex (V/m) @ t=0.48
0.9421479528806695
% es.Ey (V/m) @ t=0.48
0.22824845274375716
% es.Ez (V/m) @ t=0.48
2.894303437817026
% es.tEx (V/m) @ t=0.48
0.9421479528806742
% es.tEy (V/m) @ t=0.48
0
% es.tEz (V/m) @ t=0.48
2.894303437817019
% V (V) @ t=0.48
0.014275931519061407
% es.normE (V/m) @ t=0.5
3.079583602910397
% es.EX (V/m) @ t=0.5
0.950553295794788
% es.EY (V/m) @ t=0.5
0.23028476428841826
% es.EZ (V/m) @ t=0.5
2.9201248779542874
% es.tEX (V/m) @ t=0.5
0.9505532957947906
% es.tEY (V/m) @ t=0.5
0
% es.tEZ (V/m) @ t=0.5
2.9201248779542937
% es.Ex (V/m) @ t=0.5
0.950553295794788
% es.Ey (V/m) @ t=0.5
0.23028476428841826
% es.Ez (V/m) @ t=0.5
2.9201248779542874
% es.tEx (V/m) @ t=0.5
0.9505532957947906
% es.tEy (V/m) @ t=0.5
0
% es.tEz (V/m) @ t=0.5
2.9201248779542937
% V (V) @ t=0.5
0.014403293879712047
% es.normE (V/m) @ t=0.52
3.1073289516320934
% es.EX (V/m) @ t=0.52
0.959117255403549
% es.EY (V/m) @ t=0.52
0.23235950286810314
% es.EZ (V/m) @ t=0.52
2.9464335918943974
% es.tEX (V/m) @ t=0.52
0.959117255403541
% es.tEY (V/m) @ t=0.52
0
% es.tEZ (V/m) @ t=0.52
2.9464335918943974
% es.Ex (V/m) @ t=0.52
0.959117255403549
% es.Ey (V/m) @ t=0.52
0.23235950286810314
% es.Ez (V/m) @ t=0.52
2.9464335918943974
% es.tEx (V/m) @ t=0.52
0.959117255403541
% es.tEy (V/m) @ t=0.52
0
% es.tEz (V/m) @ t=0.52
2.9464335918943974
% V (V) @ t=0.52
0.0145330596673973
% es.normE (V/m) @ t=0.54
3.137533391027979
% es.EX (V/m) @ t=0.54
0.968440246383975
% es.EY (V/m) @ t=0.54
0.23461812704177665
% es.EZ (V/m) @ t=0.54
2.9750740660804382
% es.tEX (V/m) @ t=0.54
0.9684402463839774
% es.tEY (V/m) @ t=0.54
0
% es.tEZ (V/m) @ t=0.54
2.975074066080431
% es.Ex (V/m) @ t=0.54
0.968440246383975
% es.Ey (V/m) @ t=0.54
0.23461812704177665
% es.Ez (V/m) @ t=0.54
2.9750740660804382
% es.tEx (V/m) @ t=0.54
0.9684402463839774
% es.tEy (V/m) @ t=0.54
0
% es.tEz (V/m) @ t=0.54
2.975074066080431
% V (V) @ t=0.54
0.014674326618454605
% es.normE (V/m) @ t=0.56
3.1677378304238593
% es.EX (V/m) @ t=0.56
0.977763237364419
% es.EY (V/m) @ t=0.56
0.23687675121547813
% es.EZ (V/m) @ t=0.56
3.003714540266466
% es.tEX (V/m) @ t=0.56
0.977763237364428
% es.tEY (V/m) @ t=0.56
0
% es.tEZ (V/m) @ t=0.56
3.0037145402664756
% es.Ex (V/m) @ t=0.56
0.977763237364419
% es.Ey (V/m) @ t=0.56
0.23687675121547813
% es.Ez (V/m) @ t=0.56
3.003714540266466
% es.tEx (V/m) @ t=0.56
0.977763237364428
% es.tEy (V/m) @ t=0.56
0
% es.tEz (V/m) @ t=0.56
3.0037145402664756
% V (V) @ t=0.56
0.014815593569511912
% es.normE (V/m) @ t=0.58
3.1979422698197415
% es.EX (V/m) @ t=0.58
0.9870862283448696
% es.EY (V/m) @ t=0.58
0.23913537538918628
% es.EZ (V/m) @ t=0.58
3.0323550144524924
% es.tEX (V/m) @ t=0.58
0.9870862283448787
% es.tEY (V/m) @ t=0.58
0
% es.tEZ (V/m) @ t=0.58
3.032355014452495
% es.Ex (V/m) @ t=0.58
0.9870862283448696
% es.Ey (V/m) @ t=0.58
0.23913537538918628
% es.Ez (V/m) @ t=0.58
3.0323550144524924
% es.tEx (V/m) @ t=0.58
0.9870862283448787
% es.tEy (V/m) @ t=0.58
0
% es.tEz (V/m) @ t=0.58
3.032355014452495
% V (V) @ t=0.58
0.014956860520569215
% es.normE (V/m) @ t=0.6
3.2281467092156535
% es.EX (V/m) @ t=0.6
0.996409219325318
% es.EY (V/m) @ t=0.6
0.24139399956285623
% es.EZ (V/m) @ t=0.6
3.0609954886385546
% es.tEX (V/m) @ t=0.6
0.9964092193253151
% es.tEY (V/m) @ t=0.6
0
% es.tEZ (V/m) @ t=0.6
3.0609954886385538
% es.Ex (V/m) @ t=0.6
0.996409219325318
% es.Ey (V/m) @ t=0.6
0.24139399956285623
% es.Ez (V/m) @ t=0.6
3.0609954886385546
% es.tEx (V/m) @ t=0.6
0.9964092193253151
% es.tEy (V/m) @ t=0.6
0
% es.tEz (V/m) @ t=0.6
3.0609954886385538
% V (V) @ t=0.6
0.015098127471626522
% es.normE (V/m) @ t=0.62
3.2583511486115286
% es.EX (V/m) @ t=0.62
1.005732210305744
% es.EY (V/m) @ t=0.62
0.2436526237365617
% es.EZ (V/m) @ t=0.62
3.089635962824582
% es.tEX (V/m) @ t=0.62
1.0057322103057373
% es.tEY (V/m) @ t=0.62
0
% es.tEZ (V/m) @ t=0.62
3.089635962824584
% es.Ex (V/m) @ t=0.62
1.005732210305744
% es.Ey (V/m) @ t=0.62
0.2436526237365617
% es.Ez (V/m) @ t=0.62
3.089635962824582
% es.tEx (V/m) @ t=0.62
1.0057322103057373
% es.tEy (V/m) @ t=0.62
0
% es.tEz (V/m) @ t=0.62
3.089635962824584
% V (V) @ t=0.62
0.015239394422683829
% es.normE (V/m) @ t=0.64
3.2885555880074167
% es.EX (V/m) @ t=0.64
1.0150552012861986
% es.EY (V/m) @ t=0.64
0.2459112479102601
% es.EZ (V/m) @ t=0.64
3.118276437010614
% es.tEX (V/m) @ t=0.64
1.0150552012862022
% es.tEY (V/m) @ t=0.64
0
% es.tEZ (V/m) @ t=0.64
3.1182764370106177
% es.Ex (V/m) @ t=0.64
1.0150552012861986
% es.Ey (V/m) @ t=0.64
0.2459112479102601
% es.Ez (V/m) @ t=0.64
3.118276437010614
% es.tEx (V/m) @ t=0.64
1.0150552012862022
% es.tEy (V/m) @ t=0.64
0
% es.tEz (V/m) @ t=0.64
3.1182764370106177
% V (V) @ t=0.64
0.015380661373741134
% es.normE (V/m) @ t=0.66
3.318760027403319
% es.EX (V/m) @ t=0.66
1.0243781922666477
% es.EY (V/m) @ t=0.66
0.24816987208394403
% es.EZ (V/m) @ t=0.66
3.146916911196665
% es.tEX (V/m) @ t=0.66
1.0243781922666386
% es.tEY (V/m) @ t=0.66
0
% es.tEZ (V/m) @ t=0.66
3.146916911196662
% es.Ex (V/m) @ t=0.66
1.0243781922666477
% es.Ey (V/m) @ t=0.66
0.24816987208394403
% es.Ez (V/m) @ t=0.66
3.146916911196665
% es.tEx (V/m) @ t=0.66
1.0243781922666386
% es.tEy (V/m) @ t=0.66
0
% es.tEz (V/m) @ t=0.66
3.146916911196662
% V (V) @ t=0.66
0.015521928324798439
% es.normE (V/m) @ t=0.68
3.348964466799192
% es.EX (V/m) @ t=0.68
1.0337011832470913
% es.EY (V/m) @ t=0.68
0.25042849625764596
% es.EZ (V/m) @ t=0.68
3.1755573853826844
% es.tEX (V/m) @ t=0.68
1.0337011832471035
% es.tEY (V/m) @ t=0.68
0
% es.tEZ (V/m) @ t=0.68
3.1755573853826817
% es.Ex (V/m) @ t=0.68
1.0337011832470913
% es.Ey (V/m) @ t=0.68
0.25042849625764596
% es.Ez (V/m) @ t=0.68
3.1755573853826844
% es.tEx (V/m) @ t=0.68
1.0337011832471035
% es.tEy (V/m) @ t=0.68
0
% es.tEz (V/m) @ t=0.68
3.1755573853826817
% V (V) @ t=0.68
0.015663195275855746
% es.normE (V/m) @ t=0.7
3.3791689061950825
% es.EX (V/m) @ t=0.7
1.043024174227532
% es.EY (V/m) @ t=0.7
0.25268712043134345
% es.EZ (V/m) @ t=0.7
3.2041978595687244
% es.tEX (V/m) @ t=0.7
1.04302417422754
% es.tEY (V/m) @ t=0.7
0
% es.tEZ (V/m) @ t=0.7
3.204197859568726
% es.Ex (V/m) @ t=0.7
1.043024174227532
% es.Ey (V/m) @ t=0.7
0.25268712043134345
% es.Ez (V/m) @ t=0.7
3.2041978595687244
% es.tEx (V/m) @ t=0.7
1.04302417422754
% es.tEy (V/m) @ t=0.7
0
% es.tEz (V/m) @ t=0.7
3.204197859568726
% V (V) @ t=0.7
0.01580446222691305
% es.normE (V/m) @ t=0.72
3.4093733455909687
% es.EX (V/m) @ t=0.72
1.0523471652079897
% es.EY (V/m) @ t=0.72
0.2549457446050596
% es.EZ (V/m) @ t=0.72
3.232838333754752
% es.tEX (V/m) @ t=0.72
1.0523471652079905
% es.tEY (V/m) @ t=0.72
0
% es.tEZ (V/m) @ t=0.72
3.23283833375476
% es.Ex (V/m) @ t=0.72
1.0523471652079897
% es.Ey (V/m) @ t=0.72
0.2549457446050596
% es.Ez (V/m) @ t=0.72
3.232838333754752
% es.tEx (V/m) @ t=0.72
1.0523471652079905
% es.tEy (V/m) @ t=0.72
0
% es.tEz (V/m) @ t=0.72
3.23283833375476
% V (V) @ t=0.72
0.015945729177970356
% es.normE (V/m) @ t=0.74
3.439577784986847
% es.EX (V/m) @ t=0.74
1.0616701561884097
% es.EY (V/m) @ t=0.74
0.2572043687787686
% es.EZ (V/m) @ t=0.74
3.261478807940785
% es.tEX (V/m) @ t=0.74
1.0616701561884128
% es.tEY (V/m) @ t=0.74
0
% es.tEZ (V/m) @ t=0.74
3.26147880794079
% es.Ex (V/m) @ t=0.74
1.0616701561884097
% es.Ey (V/m) @ t=0.74
0.2572043687787686
% es.Ez (V/m) @ t=0.74
3.261478807940785
% es.tEx (V/m) @ t=0.74
1.0616701561884128
% es.tEy (V/m) @ t=0.74
0
% es.tEz (V/m) @ t=0.74
3.26147880794079
% V (V) @ t=0.74
0.016086996129027663
% es.normE (V/m) @ t=0.76
3.469782224382743
% es.EX (V/m) @ t=0.76
1.0709931471688463
% es.EY (V/m) @ t=0.76
0.2594629929524428
% es.EZ (V/m) @ t=0.76
3.290119282126833
% es.tEX (V/m) @ t=0.76
1.0709931471688492
% es.tEY (V/m) @ t=0.76
0
% es.tEZ (V/m) @ t=0.76
3.2901192821268346
% es.Ex (V/m) @ t=0.76
1.0709931471688463
% es.Ey (V/m) @ t=0.76
0.2594629929524428
% es.Ez (V/m) @ t=0.76
3.290119282126833
% es.tEx (V/m) @ t=0.76
1.0709931471688492
% es.tEy (V/m) @ t=0.76
0
% es.tEz (V/m) @ t=0.76
3.2901192821268346
% V (V) @ t=0.76
0.01622826308008497
% es.normE (V/m) @ t=0.78
3.500871636083935
% es.EX (V/m) @ t=0.78
1.0805892954314706
% es.EY (V/m) @ t=0.78
0.26178779409916375
% es.EZ (V/m) @ t=0.78
3.319598905593442
% es.tEX (V/m) @ t=0.78
1.0805892954314658
% es.tEY (V/m) @ t=0.78
0
% es.tEZ (V/m) @ t=0.78
3.319598905593466
% es.Ex (V/m) @ t=0.78
1.0805892954314706
% es.Ey (V/m) @ t=0.78
0.26178779409916375
% es.Ez (V/m) @ t=0.78
3.319598905593442
% es.tEx (V/m) @ t=0.78
1.0805892954314658
% es.tEy (V/m) @ t=0.78
0
% es.tEz (V/m) @ t=0.78
3.319598905593466
% V (V) @ t=0.78
0.016373669093413503
% es.normE (V/m) @ t=0.8
3.534428187870901
% es.EX (V/m) @ t=0.8
1.0909469559769807
% es.EY (V/m) @ t=0.8
0.26429708447992817
% es.EZ (V/m) @ t=0.8
3.3514179229774443
% es.tEX (V/m) @ t=0.8
1.0909469559769889
% es.tEY (V/m) @ t=0.8
0
% es.tEZ (V/m) @ t=0.8
3.3514179229774754
% es.Ex (V/m) @ t=0.8
1.0909469559769807
% es.Ey (V/m) @ t=0.8
0.26429708447992817
% es.Ez (V/m) @ t=0.8
3.3514179229774443
% es.tEx (V/m) @ t=0.8
1.0909469559769889
% es.tEy (V/m) @ t=0.8
0
% es.tEz (V/m) @ t=0.8
3.3514179229774754
% V (V) @ t=0.8
0.016530614051390724
% es.normE (V/m) @ t=0.82
3.567984739657833
% es.EX (V/m) @ t=0.82
1.1013046165224822
% es.EY (V/m) @ t=0.82
0.266806374860715
% es.EZ (V/m) @ t=0.82
3.383236940361411
% es.tEX (V/m) @ t=0.82
1.1013046165224978
% es.tEY (V/m) @ t=0.82
0
% es.tEZ (V/m) @ t=0.82
3.3832369403614173
% es.Ex (V/m) @ t=0.82
1.1013046165224822
% es.Ey (V/m) @ t=0.82
0.266806374860715
% es.Ez (V/m) @ t=0.82
3.383236940361411
% es.tEx (V/m) @ t=0.82
1.1013046165224978
% es.tEy (V/m) @ t=0.82
0
% es.tEz (V/m) @ t=0.82
3.3832369403614173
% V (V) @ t=0.82
0.01668755900936795
% es.normE (V/m) @ t=0.84
3.6015412914448035
% es.EX (V/m) @ t=0.84
1.1116622770680125
% es.EY (V/m) @ t=0.84
0.2693156652415285
% es.EZ (V/m) @ t=0.84
3.415055957745407
% es.tEX (V/m) @ t=0.84
1.1116622770680067
% es.tEY (V/m) @ t=0.84
0
% es.tEZ (V/m) @ t=0.84
3.4150559577454267
% es.Ex (V/m) @ t=0.84
1.1116622770680125
% es.Ey (V/m) @ t=0.84
0.2693156652415285
% es.Ez (V/m) @ t=0.84
3.415055957745407
% es.tEx (V/m) @ t=0.84
1.1116622770680067
% es.tEy (V/m) @ t=0.84
0
% es.tEz (V/m) @ t=0.84
3.4150559577454267
% V (V) @ t=0.84
0.016844503967345166
% es.normE (V/m) @ t=0.86
3.6350978432317573
% es.EX (V/m) @ t=0.86
1.1220199376135216
% es.EY (V/m) @ t=0.86
0.2718249556223322
% es.EZ (V/m) @ t=0.86
3.4468749751293934
% es.tEX (V/m) @ t=0.86
1.1220199376135156
% es.tEY (V/m) @ t=0.86
0
% es.tEZ (V/m) @ t=0.86
3.446874975129397
% es.Ex (V/m) @ t=0.86
1.1220199376135216
% es.Ey (V/m) @ t=0.86
0.2718249556223322
% es.Ez (V/m) @ t=0.86
3.4468749751293934
% es.tEx (V/m) @ t=0.86
1.1220199376135156
% es.tEy (V/m) @ t=0.86
0
% es.tEz (V/m) @ t=0.86
3.446874975129397
% V (V) @ t=0.86
0.01700144892532239
% es.normE (V/m) @ t=0.88
3.6686543950186654
% es.EX (V/m) @ t=0.88
1.132377598159009
% es.EY (V/m) @ t=0.88
0.2743342460031102
% es.EZ (V/m) @ t=0.88
3.4786939925133407
% es.tEX (V/m) @ t=0.88
1.1323775981590103
% es.tEY (V/m) @ t=0.88
0
% es.tEZ (V/m) @ t=0.88
3.47869399251336
% es.Ex (V/m) @ t=0.88
1.132377598159009
% es.Ey (V/m) @ t=0.88
0.2743342460031102
% es.Ez (V/m) @ t=0.88
3.4786939925133407
% es.tEx (V/m) @ t=0.88
1.1323775981590103
% es.tEy (V/m) @ t=0.88
0
% es.tEz (V/m) @ t=0.88
3.47869399251336
% V (V) @ t=0.88
0.017158393883299615
% es.normE (V/m) @ t=0.9
3.702210946805628
% es.EX (V/m) @ t=0.9
1.142735258704537
% es.EY (V/m) @ t=0.9
0.2768435363839352
% es.EZ (V/m) @ t=0.9
3.5105130098973287
% es.tEX (V/m) @ t=0.9
1.1427352587045476
% es.tEY (V/m) @ t=0.9
0
% es.tEZ (V/m) @ t=0.9
3.5105130098973163
% es.Ex (V/m) @ t=0.9
1.142735258704537
% es.Ey (V/m) @ t=0.9
0.2768435363839352
% es.Ez (V/m) @ t=0.9
3.5105130098973287
% es.tEx (V/m) @ t=0.9
1.1427352587045476
% es.tEy (V/m) @ t=0.9
0
% es.tEz (V/m) @ t=0.9
3.5105130098973163
% V (V) @ t=0.9
0.01731533884127684
% es.normE (V/m) @ t=0.92
3.7357674985925913
% es.EX (V/m) @ t=0.92
1.1530929192500536
% es.EY (V/m) @ t=0.92
0.2793528267647041
% es.EZ (V/m) @ t=0.92
3.542332027281325
% es.tEX (V/m) @ t=0.92
1.1530929192500707
% es.tEY (V/m) @ t=0.92
0
% es.tEZ (V/m) @ t=0.92
3.542332027281333
% es.Ex (V/m) @ t=0.92
1.1530929192500536
% es.Ey (V/m) @ t=0.92
0.2793528267647041
% es.Ez (V/m) @ t=0.92
3.542332027281325
% es.tEx (V/m) @ t=0.92
1.1530929192500707
% es.tEy (V/m) @ t=0.92
0
% es.tEz (V/m) @ t=0.92
3.542332027281333
% V (V) @ t=0.92
0.01747228379925406
% es.normE (V/m) @ t=0.94
3.769324050379514
% es.EX (V/m) @ t=0.94
1.1634505797955663
% es.EY (V/m) @ t=0.94
0.2818621171455078
% es.EZ (V/m) @ t=0.94
3.5741510446652773
% es.tEX (V/m) @ t=0.94
1.1634505797955654
% es.tEY (V/m) @ t=0.94
0
% es.tEZ (V/m) @ t=0.94
3.5741510446652818
% es.Ex (V/m) @ t=0.94
1.1634505797955663
% es.Ey (V/m) @ t=0.94
0.2818621171455078
% es.Ez (V/m) @ t=0.94
3.5741510446652773
% es.tEx (V/m) @ t=0.94
1.1634505797955654
% es.tEy (V/m) @ t=0.94
0
% es.tEz (V/m) @ t=0.94
3.5741510446652818
% V (V) @ t=0.94
0.01762922875723128
% es.normE (V/m) @ t=0.96
3.802880602166491
% es.EX (V/m) @ t=0.96
1.1738082403410937
% es.EY (V/m) @ t=0.96
0.2843714075263293
% es.EZ (V/m) @ t=0.96
3.6059700620492805
% es.tEX (V/m) @ t=0.96
1.1738082403411028
% es.tEY (V/m) @ t=0.96
0
% es.tEZ (V/m) @ t=0.96
3.6059700620492805
% es.Ex (V/m) @ t=0.96
1.1738082403410937
% es.Ey (V/m) @ t=0.96
0.2843714075263293
% es.Ez (V/m) @ t=0.96
3.6059700620492805
% es.tEx (V/m) @ t=0.96
1.1738082403411028
% es.tEy (V/m) @ t=0.96
0
% es.tEz (V/m) @ t=0.96
3.6059700620492805
% V (V) @ t=0.96
0.017786173715208506
% es.normE (V/m) @ t=0.98
3.8364371539534354
% es.EX (V/m) @ t=0.98
1.1841659008866032
% es.EY (V/m) @ t=0.98
0.2868806979071432
% es.EZ (V/m) @ t=0.98
3.637789079433256
% es.tEX (V/m) @ t=0.98
1.1841659008866117
% es.tEY (V/m) @ t=0.98
0
% es.tEZ (V/m) @ t=0.98
3.6377890794332544
% es.Ex (V/m) @ t=0.98
1.1841659008866032
% es.Ey (V/m) @ t=0.98
0.2868806979071432
% es.Ez (V/m) @ t=0.98
3.637789079433256
% es.tEx (V/m) @ t=0.98
1.1841659008866117
% es.tEy (V/m) @ t=0.98
0
% es.tEz (V/m) @ t=0.98
3.6377890794332544
% V (V) @ t=0.98
0.017943118673185727
% es.normE (V/m) @ t=1
3.869993705740337
% es.EX (V/m) @ t=1
1.194523561432102
% es.EY (V/m) @ t=1
0.28938998828790785
% es.EZ (V/m) @ t=1
3.6696080968171936
% es.tEX (V/m) @ t=1
1.1945235614321206
% es.tEY (V/m) @ t=1
0
% es.tEZ (V/m) @ t=1
3.6696080968172176
% es.Ex (V/m) @ t=1
1.194523561432102
% es.Ey (V/m) @ t=1
0.28938998828790785
% es.Ez (V/m) @ t=1
3.6696080968171936
% es.tEx (V/m) @ t=1
1.1945235614321206
% es.tEy (V/m) @ t=1
0
% es.tEz (V/m) @ t=1
3.6696080968172176
% V (V) @ t=1
0.01810006363116295
% es.normE (V/m) @ t=1.02
3.9035502575273027
% es.EX (V/m) @ t=1.02
1.2048812219776188
% es.EY (V/m) @ t=1.02
0.2918992786687187
% es.EZ (V/m) @ t=1.02
3.7014271142011896
% es.tEX (V/m) @ t=1.02
1.204881221977601
% es.tEY (V/m) @ t=1.02
0
% es.tEZ (V/m) @ t=1.02
3.7014271142012127
% es.Ex (V/m) @ t=1.02
1.2048812219776188
% es.Ey (V/m) @ t=1.02
0.2918992786687187
% es.Ez (V/m) @ t=1.02
3.7014271142011896
% es.tEx (V/m) @ t=1.02
1.204881221977601
% es.tEy (V/m) @ t=1.02
0
% es.tEz (V/m) @ t=1.02
3.7014271142012127
% V (V) @ t=1.02
0.018257008589140172
% es.normE (V/m) @ t=1.04
3.937671166655139
% es.EX (V/m) @ t=1.04
1.2154130793640079
% es.EY (V/m) @ t=1.04
0.29445077010353304
% es.EZ (V/m) @ t=1.04
3.733781266709001
% es.tEX (V/m) @ t=1.04
1.215413079364012
% es.tEY (V/m) @ t=1.04
0
% es.tEZ (V/m) @ t=1.04
3.7337812667089985
% es.Ex (V/m) @ t=1.04
1.2154130793640079
% es.Ey (V/m) @ t=1.04
0.29445077010353304
% es.Ez (V/m) @ t=1.04
3.733781266709001
% es.tEx (V/m) @ t=1.04
1.215413079364012
% es.tEy (V/m) @ t=1.04
0
% es.tEz (V/m) @ t=1.04
3.7337812667089985
% V (V) @ t=1.04