% Model:              1 neuron.mph
% Version:            COMSOL 6.1.0.252
% Date:               Mar 22 2023, 18:08
% Dimension:          0
% Nodes:              14017
% Expressions:        14017
% Description:        Electric field norm, Electric field, X component, Electric field, Y component, Electric field, Z component, Tangential electric field, X component, Tangential electric field, Y component, Tangential electric field, Z component, Electric field, x component, Electric field, y component, Electric field, z component, Tangential electric field, x component, Tangential electric field, y component, Tangential electric field, z component, Electric potential
% Length unit:        mm
% x
1.33
% y
12.2
% z
2
% es.normE (V/m) @ t=0
2.656207391009734
% es.EX (V/m) @ t=0
1.0585999268226716
% es.EY (V/m) @ t=0
0.27987450011236437
% es.EZ (V/m) @ t=0
-2.417867200923199
% es.tEX (V/m) @ t=0
1.058599926822672
% es.tEY (V/m) @ t=0
0
% es.tEZ (V/m) @ t=0
-2.4178672009232045
% es.Ex (V/m) @ t=0
1.0585999268226716
% es.Ey (V/m) @ t=0
0.27987450011236437
% es.Ez (V/m) @ t=0
-2.417867200923199
% es.tEx (V/m) @ t=0
1.058599926822672
% es.tEy (V/m) @ t=0
0
% es.tEz (V/m) @ t=0
-2.4178672009232045
% V (V) @ t=0
0.01328127371156529
% es.normE (V/m) @ t=0.02
2.294194974130418
% es.EX (V/m) @ t=0.02
0.91432417598619
% es.EY (V/m) @ t=0.02
0.24173062562701997
% es.EZ (V/m) @ t=0.02
-2.0883379806939795
% es.tEX (V/m) @ t=0.02
0.9143241759861902
% es.tEY (V/m) @ t=0.02
0
% es.tEZ (V/m) @ t=0.02
-2.0883379806939786
% es.Ex (V/m) @ t=0.02
0.91432417598619
% es.Ey (V/m) @ t=0.02
0.24173062562701997
% es.Ez (V/m) @ t=0.02
-2.0883379806939795
% es.tEx (V/m) @ t=0.02
0.9143241759861902
% es.tEy (V/m) @ t=0.02
0
% es.tEz (V/m) @ t=0.02
-2.0883379806939786
% V (V) @ t=0.02
0.011471179320166065
% es.normE (V/m) @ t=0.04
2.3153016071238213
% es.EX (V/m) @ t=0.04
0.9227359757837943
% es.EY (V/m) @ t=0.04
0.24395455369443209
% es.EZ (V/m) @ t=0.04
-2.107550724898249
% es.tEX (V/m) @ t=0.04
0.922735975783791
% es.tEY (V/m) @ t=0.04
0
% es.tEZ (V/m) @ t=0.04
-2.1075507248982515
% es.Ex (V/m) @ t=0.04
0.9227359757837943
% es.Ey (V/m) @ t=0.04
0.24395455369443209
% es.Ez (V/m) @ t=0.04
-2.107550724898249
% es.tEx (V/m) @ t=0.04
0.922735975783791
% es.tEy (V/m) @ t=0.04
0
% es.tEz (V/m) @ t=0.04
-2.1075507248982515
% V (V) @ t=0.04
0.01157671428643543
% es.normE (V/m) @ t=0.06
2.336561044934178
% es.EX (V/m) @ t=0.06
0.9312086733647535
% es.EY (V/m) @ t=0.06
0.2461945812638744
% es.EZ (V/m) @ t=0.06
-2.1269025632249194
% es.tEX (V/m) @ t=0.06
0.931208673364754
% es.tEY (V/m) @ t=0.06
0
% es.tEZ (V/m) @ t=0.06
-2.126902563224929
% es.Ex (V/m) @ t=0.06
0.9312086733647535
% es.Ey (V/m) @ t=0.06
0.2461945812638744
% es.Ez (V/m) @ t=0.06
-2.1269025632249194
% es.tEx (V/m) @ t=0.06
0.931208673364754
% es.tEy (V/m) @ t=0.06
0
% es.tEz (V/m) @ t=0.06
-2.126902563224929
% V (V) @ t=0.06
0.011683013325605817
% es.normE (V/m) @ t=0.08
2.35823023890918
% es.EX (V/m) @ t=0.08
0.9398446728103726
% es.EY (V/m) @ t=0.08
0.24847778131113962
% es.EZ (V/m) @ t=0.08
-2.146627391343566
% es.tEX (V/m) @ t=0.08
0.9398446728103731
% es.tEY (V/m) @ t=0.08
0
% es.tEZ (V/m) @ t=0.08
-2.146627391343566
% es.Ex (V/m) @ t=0.08
0.9398446728103726
% es.Ey (V/m) @ t=0.08
0.24847778131113962
% es.Ez (V/m) @ t=0.08
-2.146627391343566
% es.tEx (V/m) @ t=0.08
0.9398446728103731
% es.tEy (V/m) @ t=0.08
0
% es.tEz (V/m) @ t=0.08
-2.146627391343566
% V (V) @ t=0.08
0.011791361254361718
% es.normE (V/m) @ t=0.1
2.3800066093483387
% es.EX (V/m) @ t=0.1
0.9485233857475124
% es.EY (V/m) @ t=0.1
0.2507722736193134
% es.EZ (V/m) @ t=0.1
-2.166449779256334
% es.tEX (V/m) @ t=0.1
0.9485233857475128
% es.tEY (V/m) @ t=0.1
0
% es.tEZ (V/m) @ t=0.1
-2.1664497792563377
% es.Ex (V/m) @ t=0.1
0.9485233857475124
% es.Ey (V/m) @ t=0.1
0.2507722736193134
% es.Ez (V/m) @ t=0.1
-2.166449779256334
% es.tEx (V/m) @ t=0.1
0.9485233857475128
% es.tEy (V/m) @ t=0.1
0
% es.tEz (V/m) @ t=0.1
-2.1664497792563377
% V (V) @ t=0.1
0.011900245093886323
% es.normE (V/m) @ t=0.12
2.401782979787505
% es.EX (V/m) @ t=0.12
0.9572020986846377
% es.EY (V/m) @ t=0.12
0.25306676592745436
% es.EZ (V/m) @ t=0.12
-2.18627216716912
% es.tEX (V/m) @ t=0.12
0.9572020986846379
% es.tEY (V/m) @ t=0.12
0
% es.tEZ (V/m) @ t=0.12
-2.18627216716912
% es.Ex (V/m) @ t=0.12
0.9572020986846377
% es.Ey (V/m) @ t=0.12
0.25306676592745436
% es.Ez (V/m) @ t=0.12
-2.18627216716912
% es.tEx (V/m) @ t=0.12
0.9572020986846379
% es.tEy (V/m) @ t=0.12
0
% es.tEz (V/m) @ t=0.12
-2.18627216716912
% V (V) @ t=0.12
0.012009128933410924
% es.normE (V/m) @ t=0.14
2.424204202781522
% es.EX (V/m) @ t=0.14
0.9661378211531022
% es.EY (V/m) @ t=0.14
0.2554292180145499
% es.EZ (V/m) @ t=0.14
-2.2066815393560404
% es.tEX (V/m) @ t=0.14
0.9661378211531026
% es.tEY (V/m) @ t=0.14
0
% es.tEZ (V/m) @ t=0.14
-2.206681539356044
% es.Ex (V/m) @ t=0.14
0.9661378211531022
% es.Ey (V/m) @ t=0.14
0.2554292180145499
% es.Ez (V/m) @ t=0.14
-2.2066815393560404
% es.tEx (V/m) @ t=0.14
0.9661378211531026
% es.tEy (V/m) @ t=0.14
0
% es.tEz (V/m) @ t=0.14
-2.206681539356044
% V (V) @ t=0.14
0.01212123657610291
% es.normE (V/m) @ t=0.16
2.4470706080829956
% es.EX (V/m) @ t=0.16
0.9752509734779395
% es.EY (V/m) @ t=0.16
0.2578385870145681
% es.EZ (V/m) @ t=0.16
-2.227496143733857
% es.tEX (V/m) @ t=0.16
0.97525097347794
% es.tEY (V/m) @ t=0.16
0
% es.tEZ (V/m) @ t=0.16
-2.227496143733866
% es.Ex (V/m) @ t=0.16
0.9752509734779395
% es.Ey (V/m) @ t=0.16
0.2578385870145681
% es.Ez (V/m) @ t=0.16
-2.227496143733857
% es.tEx (V/m) @ t=0.16
0.97525097347794
% es.tEy (V/m) @ t=0.16
0
% es.tEz (V/m) @ t=0.16
-2.227496143733866
% V (V) @ t=0.16
0.01223556981303652
% es.normE (V/m) @ t=0.18
2.469937013384488
% es.EX (V/m) @ t=0.18
0.9843641258028044
% es.EY (V/m) @ t=0.18
0.2602479560146058
% es.EZ (V/m) @ t=0.18
-2.248310748111681
% es.tEX (V/m) @ t=0.18
0.9843641258028049
% es.tEY (V/m) @ t=0.18
0
% es.tEZ (V/m) @ t=0.18
-2.2483107481116917
% es.Ex (V/m) @ t=0.18
0.9843641258028044
% es.Ey (V/m) @ t=0.18
0.2602479560146058
% es.Ez (V/m) @ t=0.18
-2.248310748111681
% es.tEx (V/m) @ t=0.18
0.9843641258028049
% es.tEy (V/m) @ t=0.18
0
% es.tEz (V/m) @ t=0.18
-2.2483107481116917
% V (V) @ t=0.18
0.01234990304997013
% es.normE (V/m) @ t=0.2
2.492803418685975
% es.EX (V/m) @ t=0.2
0.993477278127656
% es.EY (V/m) @ t=0.2
0.26265732501464356
% es.EZ (V/m) @ t=0.2
-2.269125352489505
% es.tEX (V/m) @ t=0.2
0.9934772781276564
% es.tEY (V/m) @ t=0.2
0
% es.tEZ (V/m) @ t=0.2
-2.2691253524895068
% es.Ex (V/m) @ t=0.2
0.993477278127656
% es.Ey (V/m) @ t=0.2
0.26265732501464356
% es.Ez (V/m) @ t=0.2
-2.269125352489505
% es.tEx (V/m) @ t=0.2
0.9934772781276564
% es.tEy (V/m) @ t=0.2
0
% es.tEz (V/m) @ t=0.2
-2.2691253524895068
% V (V) @ t=0.2
0.012464236286903735
% es.normE (V/m) @ t=0.22
2.5156698239874458
% es.EX (V/m) @ t=0.22
1.0025904304524862
% es.EY (V/m) @ t=0.22
0.2650666940146804
% es.EZ (V/m) @ t=0.22
-2.289939956867318
% es.tEX (V/m) @ t=0.22
1.0025904304524866
% es.tEY (V/m) @ t=0.22
0
% es.tEZ (V/m) @ t=0.22
-2.2899399568673147
% es.Ex (V/m) @ t=0.22
1.0025904304524862
% es.Ey (V/m) @ t=0.22
0.2650666940146804
% es.Ez (V/m) @ t=0.22
-2.289939956867318
% es.tEx (V/m) @ t=0.22
1.0025904304524866
% es.tEy (V/m) @ t=0.22
0
% es.tEz (V/m) @ t=0.22
-2.2899399568673147
% V (V) @ t=0.22
0.012578569523837343
% es.normE (V/m) @ t=0.24
2.538536229288929
% es.EX (V/m) @ t=0.24
1.0117035827773377
% es.EY (V/m) @ t=0.24
0.26747606301471993
% es.EZ (V/m) @ t=0.24
-2.310754561245135
% es.tEX (V/m) @ t=0.24
1.011703582777331
% es.tEY (V/m) @ t=0.24
0
% es.tEZ (V/m) @ t=0.24
-2.310754561245137
% es.Ex (V/m) @ t=0.24
1.0117035827773377
% es.Ey (V/m) @ t=0.24
0.26747606301471993
% es.Ez (V/m) @ t=0.24
-2.310754561245135
% es.tEx (V/m) @ t=0.24
1.011703582777331
% es.tEy (V/m) @ t=0.24
0
% es.tEz (V/m) @ t=0.24
-2.310754561245137
% V (V) @ t=0.24
0.01269290276077095
% es.normE (V/m) @ t=0.26
2.561863573236902
% es.EX (V/m) @ t=0.26
1.0210004628576619
% es.EY (V/m) @ t=0.26
0.2699340323454651
% es.EZ (V/m) @ t=0.26
-2.3319887305252447
% es.tEX (V/m) @ t=0.26
1.0210004628576623
% es.tEY (V/m) @ t=0.26
0
% es.tEZ (V/m) @ t=0.26
-2.3319887305252536
% es.Ex (V/m) @ t=0.26
1.0210004628576619
% es.Ey (V/m) @ t=0.26
0.2699340323454651
% es.Ez (V/m) @ t=0.26
-2.3319887305252447
% es.tEx (V/m) @ t=0.26
1.0210004628576623
% es.tEy (V/m) @ t=0.26
0
% es.tEz (V/m) @ t=0.26
-2.3319887305252536
% V (V) @ t=0.26
0.012809539524824377
% es.normE (V/m) @ t=0.28
2.587163271769809
% es.EX (V/m) @ t=0.28
1.0310835132528795
% es.EY (V/m) @ t=0.28
0.27259996229276773
% es.EZ (V/m) @ t=0.28
-2.3550182163079185
% es.tEX (V/m) @ t=0.28
1.03108351325288
% es.tEY (V/m) @ t=0.28
0
% es.tEZ (V/m) @ t=0.28
-2.355018216307915
% es.Ex (V/m) @ t=0.28
1.0310835132528795
% es.Ey (V/m) @ t=0.28
0.27259996229276773
% es.Ez (V/m) @ t=0.28
-2.3550182163079185
% es.tEx (V/m) @ t=0.28
1.03108351325288
% es.tEy (V/m) @ t=0.28
0
% es.tEz (V/m) @ t=0.28
-2.355018216307915
% V (V) @ t=0.28
0.012936033072011245
% es.normE (V/m) @ t=0.3
2.6124629703027464
% es.EX (V/m) @ t=0.3
1.041166563648091
% es.EY (V/m) @ t=0.3
0.27526589224008724
% es.EZ (V/m) @ t=0.3
-2.3780477020905817
% es.tEX (V/m) @ t=0.3
1.0411665636480842
% es.tEY (V/m) @ t=0.3
0
% es.tEZ (V/m) @ t=0.3
-2.378047702090587
% es.Ex (V/m) @ t=0.3
1.041166563648091
% es.Ey (V/m) @ t=0.3
0.27526589224008724
% es.Ez (V/m) @ t=0.3
-2.3780477020905817
% es.tEx (V/m) @ t=0.3
1.0411665636480842
% es.tEy (V/m) @ t=0.3
0
% es.tEz (V/m) @ t=0.3
-2.378047702090587
% V (V) @ t=0.3
0.013062526619198109
% es.normE (V/m) @ t=0.32
2.637762668835733
% es.EX (V/m) @ t=0.32
1.0512496140433174
% es.EY (V/m) @ t=0.32
0.2779318221873872
% es.EZ (V/m) @ t=0.32
-2.4010771878732537
% es.tEX (V/m) @ t=0.32
1.0512496140433178
% es.tEY (V/m) @ t=0.32
0
% es.tEZ (V/m) @ t=0.32
-2.4010771878732626
% es.Ex (V/m) @ t=0.32
1.0512496140433174
% es.Ey (V/m) @ t=0.32
0.2779318221873872
% es.Ez (V/m) @ t=0.32
-2.4010771878732537
% es.tEx (V/m) @ t=0.32
1.0512496140433178
% es.tEy (V/m) @ t=0.32
0
% es.tEz (V/m) @ t=0.32
-2.4010771878732626
% V (V) @ t=0.32
0.013189020166384974
% es.normE (V/m) @ t=0.34
2.6630623673687652
% es.EX (V/m) @ t=0.34
1.0613326644385497
% es.EY (V/m) @ t=0.34
0.28059775213468807
% es.EZ (V/m) @ t=0.34
-2.424106673655933
% es.tEX (V/m) @ t=0.34
1.0613326644385497
% es.tEY (V/m) @ t=0.34
0
% es.tEZ (V/m) @ t=0.34
-2.424106673655942
% es.Ex (V/m) @ t=0.34
1.0613326644385497
% es.Ey (V/m) @ t=0.34
0.28059775213468807
% es.Ez (V/m) @ t=0.34
-2.424106673655933
% es.tEx (V/m) @ t=0.34
1.0613326644385497
% es.tEy (V/m) @ t=0.34
0
% es.tEz (V/m) @ t=0.34
-2.424106673655942
% V (V) @ t=0.34
0.013315513713571843
% es.normE (V/m) @ t=0.36
2.688362065901803
% es.EX (V/m) @ t=0.36
1.0714157148337535
% es.EY (V/m) @ t=0.36
0.28326368208200225
% es.EZ (V/m) @ t=0.36
-2.4471361594385908
% es.tEX (V/m) @ t=0.36
1.071415714833754
% es.tEY (V/m) @ t=0.36
0
% es.tEZ (V/m) @ t=0.36
-2.4471361594385925
% es.Ex (V/m) @ t=0.36
1.0714157148337535
% es.Ey (V/m) @ t=0.36
0.28326368208200225
% es.Ez (V/m) @ t=0.36
-2.4471361594385908
% es.tEx (V/m) @ t=0.36
1.071415714833754
% es.tEy (V/m) @ t=0.36
0
% es.tEz (V/m) @ t=0.36
-2.4471361594385925
% V (V) @ t=0.36
0.013442007260758707
% es.normE (V/m) @ t=0.38
2.713661764434895
% es.EX (V/m) @ t=0.38
1.081498765228972
% es.EY (V/m) @ t=0.38
0.28592961202928713
% es.EZ (V/m) @ t=0.38
-2.4701656452212664
% es.tEX (V/m) @ t=0.38
1.0814987652289725
% es.tEY (V/m) @ t=0.38
0
% es.tEZ (V/m) @ t=0.38
-2.4701656452212752
% es.Ex (V/m) @ t=0.38
1.081498765228972
% es.Ey (V/m) @ t=0.38
0.28592961202928713
% es.Ez (V/m) @ t=0.38
-2.4701656452212664
% es.tEx (V/m) @ t=0.38
1.0814987652289725
% es.tEy (V/m) @ t=0.38
0
% es.tEz (V/m) @ t=0.38
-2.4701656452212752
% V (V) @ t=0.38
0.013568500807945574
% es.normE (V/m) @ t=0.4
2.7389614629680317
% es.EX (V/m) @ t=0.4
1.0915818156242056
% es.EY (V/m) @ t=0.4
0.2885955419766155
% es.EZ (V/m) @ t=0.4
-2.493195131003942
% es.tEX (V/m) @ t=0.4
1.091581815624206
% es.tEY (V/m) @ t=0.4
0
% es.tEZ (V/m) @ t=0.4
-2.4931951310039473
% es.Ex (V/m) @ t=0.4
1.0915818156242056
% es.Ey (V/m) @ t=0.4
0.2885955419766155
% es.Ez (V/m) @ t=0.4
-2.493195131003942
% es.tEx (V/m) @ t=0.4
1.091581815624206
% es.tEy (V/m) @ t=0.4
0
% es.tEz (V/m) @ t=0.4
-2.4931951310039473
% V (V) @ t=0.4
0.01369499435513244
% es.normE (V/m) @ t=0.42
2.764261161501184
% es.EX (V/m) @ t=0.42
1.1016648660194233
% es.EY (V/m) @ t=0.42
0.2912614719239297
% es.EZ (V/m) @ t=0.42
-2.516224616786607
% es.tEX (V/m) @ t=0.42
1.1016648660194237
% es.tEY (V/m) @ t=0.42
0
% es.tEZ (V/m) @ t=0.42
-2.5162246167866122
% es.Ex (V/m) @ t=0.42
1.1016648660194233
% es.Ey (V/m) @ t=0.42
0.2912614719239297
% es.Ez (V/m) @ t=0.42
-2.516224616786607
% es.tEx (V/m) @ t=0.42
1.1016648660194237
% es.tEy (V/m) @ t=0.42
0
% es.tEz (V/m) @ t=0.42
-2.5162246167866122
% V (V) @ t=0.42
0.013821487902319303
% es.normE (V/m) @ t=0.44
2.7895608600343715
% es.EX (V/m) @ t=0.44
1.1117479164146422
% es.EY (V/m) @ t=0.44
0.29392740187119326
% es.EZ (V/m) @ t=0.44
-2.5392541025692825
% es.tEX (V/m) @ t=0.44
1.1117479164146422
% es.tEY (V/m) @ t=0.44
0
% es.tEZ (V/m) @ t=0.44
-2.5392541025692843
% es.Ex (V/m) @ t=0.44
1.1117479164146422
% es.Ey (V/m) @ t=0.44
0.29392740187119326
% es.Ez (V/m) @ t=0.44
-2.5392541025692825
% es.tEx (V/m) @ t=0.44
1.1117479164146422
% es.tEy (V/m) @ t=0.44
0
% es.tEz (V/m) @ t=0.44
-2.5392541025692843
% V (V) @ t=0.44
0.013947981449506172
% es.normE (V/m) @ t=0.46
2.8148605585675757
% es.EX (V/m) @ t=0.46
1.121830966809846
% es.EY (V/m) @ t=0.46
0.29659333181852165
% es.EZ (V/m) @ t=0.46
-2.5622835883519404
% es.tEX (V/m) @ t=0.46
1.1218309668098465
% es.tEY (V/m) @ t=0.46
0
% es.tEZ (V/m) @ t=0.46
-2.5622835883519564
% es.Ex (V/m) @ t=0.46
1.121830966809846
% es.Ey (V/m) @ t=0.46
0.29659333181852165
% es.Ez (V/m) @ t=0.46
-2.5622835883519404
% es.tEx (V/m) @ t=0.46
1.1218309668098465
% es.tEy (V/m) @ t=0.46
0
% es.tEz (V/m) @ t=0.46
-2.5622835883519564
% V (V) @ t=0.46
0.014074474996693035
% es.normE (V/m) @ t=0.48
2.840160257100849
% es.EX (V/m) @ t=0.48
1.131914017205093
% es.EY (V/m) @ t=0.48
0.29925926176581186
% es.EZ (V/m) @ t=0.48
-2.5853130741346266
% es.tEX (V/m) @ t=0.48
1.1319140172050934
% es.tEY (V/m) @ t=0.48
0
% es.tEZ (V/m) @ t=0.48
-2.5853130741346355
% es.Ex (V/m) @ t=0.48
1.131914017205093
% es.Ey (V/m) @ t=0.48
0.29925926176581186
% es.Ez (V/m) @ t=0.48
-2.5853130741346266
% es.tEx (V/m) @ t=0.48
1.1319140172050934
% es.tEy (V/m) @ t=0.48
0
% es.tEz (V/m) @ t=0.48
-2.5853130741346355
% V (V) @ t=0.48
0.014200968543879902
% es.normE (V/m) @ t=0.5
2.865459955634127
% es.EX (V/m) @ t=0.5
1.1419970676003195
% es.EY (V/m) @ t=0.5
0.3019251917131207
% es.EZ (V/m) @ t=0.5
-2.6083425599172916
% es.tEX (V/m) @ t=0.5
1.1419970676003128
% es.tEY (V/m) @ t=0.5
0
% es.tEZ (V/m) @ t=0.5
-2.608342559917297
% es.Ex (V/m) @ t=0.5
1.1419970676003195
% es.Ey (V/m) @ t=0.5
0.3019251917131207
% es.Ez (V/m) @ t=0.5
-2.6083425599172916
% es.tEx (V/m) @ t=0.5
1.1419970676003128
% es.tEy (V/m) @ t=0.5
0
% es.tEz (V/m) @ t=0.5
-2.608342559917297
% V (V) @ t=0.5
0.014327462091066768
% es.normE (V/m) @ t=0.52
2.8918134970246143
% es.EX (V/m) @ t=0.52
1.1525000315315865
% es.EY (V/m) @ t=0.52
0.30470205641062975
% es.EZ (V/m) @ t=0.52
-2.632331372058781
% es.tEX (V/m) @ t=0.52
1.1525000315315799
% es.tEY (V/m) @ t=0.52
0
% es.tEZ (V/m) @ t=0.52
-2.6323313720587826
% es.Ex (V/m) @ t=0.52
1.1525000315315865
% es.Ey (V/m) @ t=0.52
0.30470205641062975
% es.Ez (V/m) @ t=0.52
-2.632331372058781
% es.tEx (V/m) @ t=0.52
1.1525000315315799
% es.tEy (V/m) @ t=0.52
0
% es.tEz (V/m) @ t=0.52
-2.6323313720587826
% V (V) @ t=0.52
0.014459228780274317
% es.normE (V/m) @ t=0.54
2.9198496534294858
% es.EX (V/m) @ t=0.54
1.1636734491417138
% es.EY (V/m) @ t=0.54
0.307656044741905
% es.EZ (V/m) @ t=0.54
-2.65785188973304
% es.tEX (V/m) @ t=0.54
1.1636734491417071
% es.tEY (V/m) @ t=0.54
0
% es.tEZ (V/m) @ t=0.54
-2.657851889733049
% es.Ex (V/m) @ t=0.54
1.1636734491417138
% es.Ey (V/m) @ t=0.54
0.307656044741905
% es.Ez (V/m) @ t=0.54
-2.65785188973304
% es.tEx (V/m) @ t=0.54
1.1636734491417071
% es.tEy (V/m) @ t=0.54
0
% es.tEz (V/m) @ t=0.54
-2.657851889733049
% V (V) @ t=0.54
0.01459941481575964
% es.normE (V/m) @ t=0.56
2.9478858098343776
% es.EX (V/m) @ t=0.56
1.1748468667518615
% es.EY (V/m) @ t=0.56
0.31061003307320245
% es.EZ (V/m) @ t=0.56
-2.6833724074072993
% es.tEX (V/m) @ t=0.56
1.174846866751862
% es.tEY (V/m) @ t=0.56
0
% es.tEZ (V/m) @ t=0.56
-2.6833724074073153
% es.Ex (V/m) @ t=0.56
1.1748468667518615
% es.Ey (V/m) @ t=0.56
0.31061003307320245
% es.Ez (V/m) @ t=0.56
-2.6833724074072993
% es.tEx (V/m) @ t=0.56
1.174846866751862
% es.tEy (V/m) @ t=0.56
0
% es.tEz (V/m) @ t=0.56
-2.6833724074073153
% V (V) @ t=0.56
0.01473960085124496
% es.normE (V/m) @ t=0.58
2.975921966239272
% es.EX (V/m) @ t=0.58
1.1860202843619887
% es.EY (V/m) @ t=0.58
0.31356402140450346
% es.EZ (V/m) @ t=0.58
-2.7088929250815585
% es.tEX (V/m) @ t=0.58
1.1860202843619891
% es.tEY (V/m) @ t=0.58
0
% es.tEZ (V/m) @ t=0.58
-2.708892925081564
% es.Ex (V/m) @ t=0.58
1.1860202843619887
% es.Ey (V/m) @ t=0.58
0.31356402140450346
% es.Ez (V/m) @ t=0.58
-2.7088929250815585
% es.tEx (V/m) @ t=0.58
1.1860202843619891
% es.tEy (V/m) @ t=0.58
0
% es.tEz (V/m) @ t=0.58
-2.708892925081564
% V (V) @ t=0.58
0.01487978688673028
% es.normE (V/m) @ t=0.6
3.0039581226441667
% es.EX (V/m) @ t=0.6
1.197193701972116
% es.EY (V/m) @ t=0.6
0.31651800973577515
% es.EZ (V/m) @ t=0.6
-2.734413442755814
% es.tEX (V/m) @ t=0.6
1.1971937019721164
% es.tEY (V/m) @ t=0.6
0
% es.tEZ (V/m) @ t=0.6
-2.7344134427558267
% es.Ex (V/m) @ t=0.6
1.197193701972116
% es.Ey (V/m) @ t=0.6
0.31651800973577515
% es.Ez (V/m) @ t=0.6
-2.734413442755814
% es.tEx (V/m) @ t=0.6
1.1971937019721164
% es.tEy (V/m) @ t=0.6
0
% es.tEz (V/m) @ t=0.6
-2.7344134427558267
% V (V) @ t=0.6
0.015019972922215607
% es.normE (V/m) @ t=0.62
3.0319942790491075
% es.EX (V/m) @ t=0.62
1.2083671195822858
% es.EY (V/m) @ t=0.62
0.3194719980670575
% es.EZ (V/m) @ t=0.62
-2.759933960430091
% es.tEX (V/m) @ t=0.62
1.2083671195822863
% es.tEY (V/m) @ t=0.62
0
% es.tEZ (V/m) @ t=0.62
-2.7599339604301
% es.Ex (V/m) @ t=0.62
1.2083671195822858
% es.Ey (V/m) @ t=0.62
0.3194719980670575
% es.Ez (V/m) @ t=0.62
-2.759933960430091
% es.tEx (V/m) @ t=0.62
1.2083671195822863
% es.tEy (V/m) @ t=0.62
0
% es.tEz (V/m) @ t=0.62
-2.7599339604301
% V (V) @ t=0.62
0.015160158957700927
% es.normE (V/m) @ t=0.64
3.0600304354540206
% es.EX (V/m) @ t=0.64
1.2195405371924122
% es.EY (V/m) @ t=0.64
0.32242598639834075
% es.EZ (V/m) @ t=0.64
-2.785454478104347
% es.tEX (V/m) @ t=0.64
1.2195405371924126
% es.tEY (V/m) @ t=0.64
0
% es.tEZ (V/m) @ t=0.64
-2.7854544781043558
% es.Ex (V/m) @ t=0.64
1.2195405371924122
% es.Ey (V/m) @ t=0.64
0.32242598639834075
% es.Ez (V/m) @ t=0.64
-2.785454478104347
% es.tEx (V/m) @ t=0.64
1.2195405371924126
% es.tEy (V/m) @ t=0.64
0
% es.tEz (V/m) @ t=0.64
-2.7854544781043558
% V (V) @ t=0.64
0.01530034499318625
% es.normE (V/m) @ t=0.66
3.0880665918589587
% es.EX (V/m) @ t=0.66
1.2307139548025403
% es.EY (V/m) @ t=0.66
0.3253799747296222
% es.EZ (V/m) @ t=0.66
-2.8109749957786203
% es.tEX (V/m) @ t=0.66
1.2307139548025408
% es.tEY (V/m) @ t=0.66
0
% es.tEZ (V/m) @ t=0.66
-2.8109749957786256
% es.Ex (V/m) @ t=0.66
1.2307139548025403
% es.Ey (V/m) @ t=0.66
0.3253799747296222
% es.Ez (V/m) @ t=0.66
-2.8109749957786203
% es.tEx (V/m) @ t=0.66
1.2307139548025408
% es.tEy (V/m) @ t=0.66
0
% es.tEz (V/m) @ t=0.66
-2.8109749957786256
% V (V) @ t=0.66
0.015440531028671569
% es.normE (V/m) @ t=0.68
3.116102748263895
% es.EX (V/m) @ t=0.68
1.2418873724126809
% es.EY (V/m) @ t=0.68
0.32833396306091966
% es.EZ (V/m) @ t=0.68
-2.836495513452876
% es.tEX (V/m) @ t=0.68
1.2418873724126813
% es.tEY (V/m) @ t=0.68
0
% es.tEZ (V/m) @ t=0.68
-2.8364955134528778
% es.Ex (V/m) @ t=0.68
1.2418873724126809
% es.Ey (V/m) @ t=0.68
0.32833396306091966
% es.Ez (V/m) @ t=0.68
-2.836495513452876
% es.tEx (V/m) @ t=0.68
1.2418873724126813
% es.tEy (V/m) @ t=0.68
0
% es.tEz (V/m) @ t=0.68
-2.8364955134528778
% V (V) @ t=0.68
0.015580717064156892
% es.normE (V/m) @ t=0.7
3.144138904668843
% es.EX (V/m) @ t=0.7
1.2530607900228223
% es.EY (V/m) @ t=0.7
0.33128795139220113
% es.EZ (V/m) @ t=0.7
-2.8620160311271388
% es.tEX (V/m) @ t=0.7
1.2530607900228228
% es.tEY (V/m) @ t=0.7
0
% es.tEZ (V/m) @ t=0.7
-2.8620160311271476
% es.Ex (V/m) @ t=0.7
1.2530607900228223
% es.Ey (V/m) @ t=0.7
0.33128795139220113
% es.Ez (V/m) @ t=0.7
-2.8620160311271388
% es.tEx (V/m) @ t=0.7
1.2530607900228228
% es.tEy (V/m) @ t=0.7
0
% es.tEz (V/m) @ t=0.7
-2.8620160311271476
% V (V) @ t=0.7
0.015720903099642212
% es.normE (V/m) @ t=0.72
3.1721750610738253
% es.EX (V/m) @ t=0.72
1.2642342076329922
% es.EY (V/m) @ t=0.72
0.33424193972348437
% es.EZ (V/m) @ t=0.72
-2.8875365488014175
% es.tEX (V/m) @ t=0.72
1.2642342076329927
% es.tEY (V/m) @ t=0.72
0
% es.tEZ (V/m) @ t=0.72
-2.887536548801428
% es.Ex (V/m) @ t=0.72
1.2642342076329922
% es.Ey (V/m) @ t=0.72
0.33424193972348437
% es.Ez (V/m) @ t=0.72
-2.8875365488014175
% es.tEx (V/m) @ t=0.72
1.2642342076329927
% es.tEy (V/m) @ t=0.72
0
% es.tEz (V/m) @ t=0.72
-2.887536548801428
% V (V) @ t=0.72
0.015861089135127536
% es.normE (V/m) @ t=0.74
3.2002112174787682
% es.EX (V/m) @ t=0.74
1.2754076252431044
% es.EY (V/m) @ t=0.74
0.33719592805476406
% es.EZ (V/m) @ t=0.74
-2.9130570664756714
% es.tEX (V/m) @ t=0.74
1.2754076252431048
% es.tEY (V/m) @ t=0.74
0
% es.tEZ (V/m) @ t=0.74
-2.913057066475684
% es.Ex (V/m) @ t=0.74
1.2754076252431044
% es.Ey (V/m) @ t=0.74
0.33719592805476406
% es.Ez (V/m) @ t=0.74
-2.9130570664756714
% es.tEx (V/m) @ t=0.74
1.2754076252431048
% es.tEy (V/m) @ t=0.74
0
% es.tEz (V/m) @ t=0.74
-2.913057066475684
% V (V) @ t=0.74
0.016001275170612856
% es.normE (V/m) @ t=0.76
3.2282473738837423
% es.EX (V/m) @ t=0.76
1.286581042853245
% es.EY (V/m) @ t=0.76
0.34014991638608283
% es.EZ (V/m) @ t=0.76
-2.938577584149934
% es.tEX (V/m) @ t=0.76
1.2865810428532454
% es.tEY (V/m) @ t=0.76
0
% es.tEZ (V/m) @ t=0.76
-2.938577584149943
% es.Ex (V/m) @ t=0.76
1.286581042853245
% es.Ey (V/m) @ t=0.76
0.34014991638608283
% es.Ez (V/m) @ t=0.76
-2.938577584149934
% es.tEx (V/m) @ t=0.76
1.2865810428532454
% es.tEy (V/m) @ t=0.76
0
% es.tEz (V/m) @ t=0.76
-2.938577584149943
% V (V) @ t=0.76
0.01614146120609818
% es.normE (V/m) @ t=0.78
3.2580735285749602
% es.EX (V/m) @ t=0.78
1.298467945752345
% es.EY (V/m) @ t=0.78
0.343292639390981
% es.EZ (V/m) @ t=0.78
-2.965727429632677
% es.tEX (V/m) @ t=0.78
1.2984679457523454
% es.tEY (V/m) @ t=0.78
0
% es.tEZ (V/m) @ t=0.78
-2.9657274296326896
% es.Ex (V/m) @ t=0.78
1.298467945752345
% es.Ey (V/m) @ t=0.78
0.343292639390981
% es.Ez (V/m) @ t=0.78
-2.965727429632677
% es.tEx (V/m) @ t=0.78
1.2984679457523454
% es.tEy (V/m) @ t=0.78
0
% es.tEz (V/m) @ t=0.78
-2.9657274296326896
% V (V) @ t=0.78
0.01629059265329604
% es.normE (V/m) @ t=0.8
3.2891916692317724
% es.EX (V/m) @ t=0.8
1.3108698284629212
% es.EY (V/m) @ t=0.8
0.34657158741434113
% es.EZ (V/m) @ t=0.8
-2.99405329225357
% es.tEX (V/m) @ t=0.8
1.3108698284629217
% es.tEY (V/m) @ t=0.8
0
% es.tEZ (V/m) @ t=0.8
-2.9940532922535823
% es.Ex (V/m) @ t=0.8
1.3108698284629212
% es.Ey (V/m) @ t=0.8
0.34657158741434113
% es.Ez (V/m) @ t=0.8
-2.99405329225357
% es.tEx (V/m) @ t=0.8
1.3108698284629217
% es.tEy (V/m) @ t=0.8
0
% es.tEz (V/m) @ t=0.8
-2.9940532922535823
% V (V) @ t=0.8
0.016446180724769877
% es.normE (V/m) @ t=0.82
3.320309809888591
% es.EX (V/m) @ t=0.82
1.3232717111734975
% es.EY (V/m) @ t=0.82
0.3498505354377013
% es.EZ (V/m) @ t=0.82
-3.0223791548744554
% es.tEX (V/m) @ t=0.82
1.323271711173498
% es.tEY (V/m) @ t=0.82
0
% es.tEZ (V/m) @ t=0.82
-3.0223791548744607
% es.Ex (V/m) @ t=0.82
1.3232717111734975
% es.Ey (V/m) @ t=0.82
0.3498505354377013
% es.Ez (V/m) @ t=0.82
-3.0223791548744554
% es.tEx (V/m) @ t=0.82
1.323271711173498
% es.tEy (V/m) @ t=0.82
0
% es.tEz (V/m) @ t=0.82
-3.0223791548744607
% V (V) @ t=0.82
0.016601768796243727
% es.normE (V/m) @ t=0.84
3.3514279505453954
% es.EX (V/m) @ t=0.84
1.3356735938840445
% es.EY (V/m) @ t=0.84
0.35312948346106676
% es.EZ (V/m) @ t=0.84
-3.050705017495323
% es.tEX (V/m) @ t=0.84
1.335673593884045
% es.tEY (V/m) @ t=0.84
0
% es.tEZ (V/m) @ t=0.84
-3.0507050174953285
% es.Ex (V/m) @ t=0.84
1.3356735938840445
% es.Ey (V/m) @ t=0.84
0.35312948346106676
% es.Ez (V/m) @ t=0.84
-3.050705017495323
% es.tEx (V/m) @ t=0.84
1.335673593884045
% es.tEy (V/m) @ t=0.84
0
% es.tEz (V/m) @ t=0.84
-3.0507050174953285
% V (V) @ t=0.84
0.016757356867717565
% es.normE (V/m) @ t=0.86
3.382546091202234
% es.EX (V/m) @ t=0.86
1.3480754765945853
% es.EY (V/m) @ t=0.86
0.356408431484434
% es.EZ (V/m) @ t=0.86
-3.079030880116216
% es.tEX (V/m) @ t=0.86
1.3480754765945786
% es.tEY (V/m) @ t=0.86
0
% es.tEZ (V/m) @ t=0.86
-3.0790308801162283
% es.Ex (V/m) @ t=0.86
1.3480754765945853
% es.Ey (V/m) @ t=0.86
0.356408431484434
% es.Ez (V/m) @ t=0.86
-3.079030880116216
% es.tEx (V/m) @ t=0.86
1.3480754765945786
% es.tEy (V/m) @ t=0.86
0
% es.tEz (V/m) @ t=0.86
-3.0790308801162283
% V (V) @ t=0.86
0.016912944939191408
% es.normE (V/m) @ t=0.88
3.4136642318590864
% es.EX (V/m) @ t=0.88
1.360477359305162
% es.EY (V/m) @ t=0.88
0.3596873795078084
% es.EZ (V/m) @ t=0.88
-3.1073567427370943
% es.tEX (V/m) @ t=0.88
1.3604773593051558
% es.tEY (V/m) @ t=0.88
0
% es.tEZ (V/m) @ t=0.88
-3.1073567427371067
% es.Ex (V/m) @ t=0.88
1.360477359305162
% es.Ey (V/m) @ t=0.88
0.3596873795078084
% es.Ez (V/m) @ t=0.88
-3.1073567427370943
% es.tEx (V/m) @ t=0.88
1.3604773593051558
% es.tEy (V/m) @ t=0.88
0
% es.tEz (V/m) @ t=0.88
-3.1073567427371067
% V (V) @ t=0.88
0.01706853301066525
% es.normE (V/m) @ t=0.9
3.4447823725159648
% es.EX (V/m) @ t=0.9
1.3728792420157458
% es.EY (V/m) @ t=0.9
0.36296632753118985
% es.EZ (V/m) @ t=0.9
-3.1356826053579834
% es.tEX (V/m) @ t=0.9
1.3728792420157463
% es.tEY (V/m) @ t=0.9
0
% es.tEZ (V/m) @ t=0.9
-3.1356826053579923
% es.Ex (V/m) @ t=0.9
1.3728792420157458
% es.Ey (V/m) @ t=0.9
0.36296632753118985
% es.Ez (V/m) @ t=0.9
-3.1356826053579834
% es.tEx (V/m) @ t=0.9
1.3728792420157463
% es.tEy (V/m) @ t=0.9
0
% es.tEz (V/m) @ t=0.9
-3.1356826053579923
% V (V) @ t=0.9
0.017224121082139096
% es.normE (V/m) @ t=0.92
3.4759005131728546
% es.EX (V/m) @ t=0.92
1.3852811247263221
% es.EY (V/m) @ t=0.92
0.36624527555453223
% es.EZ (V/m) @ t=0.92
-3.1640084679788796
% es.tEX (V/m) @ t=0.92
1.3852811247263226
% es.tEY (V/m) @ t=0.92
0
% es.tEZ (V/m) @ t=0.92
-3.164008467978885
% es.Ex (V/m) @ t=0.92
1.3852811247263221
% es.Ey (V/m) @ t=0.92
0.36624527555453223
% es.Ez (V/m) @ t=0.92
-3.1640084679788796
% es.tEx (V/m) @ t=0.92
1.3852811247263226
% es.tEy (V/m) @ t=0.92
0
% es.tEz (V/m) @ t=0.92
-3.164008467978885
% V (V) @ t=0.92
0.017379709153612935
% es.normE (V/m) @ t=0.94
3.5070186538297494
% es.EX (V/m) @ t=0.94
1.3976830074368913
% es.EY (V/m) @ t=0.94
0.36952422357788883
% es.EZ (V/m) @ t=0.94
-3.1923343305997687
% es.tEX (V/m) @ t=0.94
1.3976830074368847
% es.tEY (V/m) @ t=0.94
0
% es.tEZ (V/m) @ t=0.94
-3.1923343305997776
% es.Ex (V/m) @ t=0.94
1.3976830074368913
% es.Ey (V/m) @ t=0.94
0.36952422357788883
% es.Ez (V/m) @ t=0.94
-3.1923343305997687
% es.tEx (V/m) @ t=0.94
1.3976830074368847
% es.tEy (V/m) @ t=0.94
0
% es.tEz (V/m) @ t=0.94
-3.1923343305997776
% V (V) @ t=0.94
0.01753529722508678
% es.normE (V/m) @ t=0.96
3.538136794486629
% es.EX (V/m) @ t=0.96
1.4100848901474312
% es.EY (V/m) @ t=0.96
0.3728031716012685
% es.EZ (V/m) @ t=0.96
-3.22066019322064
% es.tEX (V/m) @ t=0.96
1.4100848901474317
% es.tEY (V/m) @ t=0.96
0
% es.tEZ (V/m) @ t=0.96
-3.2206601932206453
% es.Ex (V/m) @ t=0.96
1.4100848901474312
% es.Ey (V/m) @ t=0.96
0.3728031716012685
% es.Ez (V/m) @ t=0.96
-3.22066019322064
% es.tEx (V/m) @ t=0.96
1.4100848901474317
% es.tEy (V/m) @ t=0.96
0
% es.tEz (V/m) @ t=0.96
-3.2206601932206453
% V (V) @ t=0.96
0.017690885296560623
% es.normE (V/m) @ t=0.98
3.569254935143551
% es.EX (V/m) @ t=0.98
1.4224867728580013
% es.EY (V/m) @ t=0.98
0.37608211962461624
% es.EZ (V/m) @ t=0.98
-3.248986055841536
% es.tEX (V/m) @ t=0.98
1.4224867728579946
% es.tEY (V/m) @ t=0.98
0
% es.tEZ (V/m) @ t=0.98
-3.248986055841538
% es.Ex (V/m) @ t=0.98
1.4224867728580013
% es.Ey (V/m) @ t=0.98
0.37608211962461624
% es.Ez (V/m) @ t=0.98
-3.248986055841536
% es.tEx (V/m) @ t=0.98
1.4224867728579946
% es.tEy (V/m) @ t=0.98
0
% es.tEz (V/m) @ t=0.98
-3.248986055841538
% V (V) @ t=0.98
0.017846473368034466
% es.normE (V/m) @ t=1
3.600373075800479
% es.EX (V/m) @ t=1
1.434888655568578
% es.EY (V/m) @ t=1
0.37936106764797994
% es.EZ (V/m) @ t=1
-3.2773119184624218
% es.tEX (V/m) @ t=1
1.4348886555685718
% es.tEY (V/m) @ t=1
0
% es.tEZ (V/m) @ t=1
-3.2773119184624306
% es.Ex (V/m) @ t=1
1.434888655568578
% es.Ey (V/m) @ t=1
0.37936106764797994
% es.Ez (V/m) @ t=1
-3.2773119184624218
% es.tEx (V/m) @ t=1
1.4348886555685718
% es.tEy (V/m) @ t=1
0
% es.tEz (V/m) @ t=1
-3.2773119184624306
% V (V) @ t=1
0.01800206143950831
% es.normE (V/m) @ t=1.02
3.631491216457409
% es.EX (V/m) @ t=1.02
1.4472905382791335
% es.EY (V/m) @ t=1.02
0.38264001567135786
% es.EZ (V/m) @ t=1.02
-3.3056377810833073
% es.tEX (V/m) @ t=1.02
1.447290538279134
% es.tEY (V/m) @ t=1.02
0
% es.tEZ (V/m) @ t=1.02
-3.305637781083309
% es.Ex (V/m) @ t=1.02
1.4472905382791335
% es.Ey (V/m) @ t=1.02
0.38264001567135786
% es.Ez (V/m) @ t=1.02
-3.3056377810833073
% es.tEx (V/m) @ t=1.02
1.447290538279134
% es.tEy (V/m) @ t=1.02
0
% es.tEz (V/m) @ t=1.02
-3.305637781083309
% V (V) @ t=1.02
0.018157649510982154
% es.normE (V/m) @ t=1.04
3.66377886124132
% es.EX (V/m) @ t=1.04
1.460158458268198
% es.EY (V/m) @ t=1.04
0.3860421209272342
% es.EZ (V/m) @ t=1.04
-3.335028237993159
% es.tEX (V/m) @ t=1.04
1.4601584582681983
% es.tEY (V/m) @ t=1.04
0
% es.tEZ (V/m) @ t=1.04
-3.335028237993175
% es.Ex (V/m) @ t=1.04
1.460158458268198
% es.Ey (V/m) @ t=1.04