% Model:              1 neuron.mph
% Version:            COMSOL 6.1.0.252
% Date:               Mar 22 2023, 17:54
% Dimension:          0
% Nodes:              14017
% Expressions:        14017
% Description:        Electric field norm, Electric field, X component, Electric field, Y component, Electric field, Z component, Tangential electric field, X component, Tangential electric field, Y component, Tangential electric field, Z component, Electric field, x component, Electric field, y component, Electric field, z component, Tangential electric field, x component, Tangential electric field, y component, Tangential electric field, z component, Electric potential
% Length unit:        mm
% x
1
% y
12.2
% z
1.6599999999999997
% es.normE (V/m) @ t=0
2.9358697842558934
% es.EX (V/m) @ t=0
2.6282190941098165
% es.EY (V/m) @ t=0
0.1011218475724388
% es.EZ (V/m) @ t=0
-1.304442424687446
% es.tEX (V/m) @ t=0
2.628219094109813
% es.tEY (V/m) @ t=0
0
% es.tEZ (V/m) @ t=0
-1.3044424246874513
% es.Ex (V/m) @ t=0
2.6282190941098165
% es.Ey (V/m) @ t=0
0.1011218475724388
% es.Ez (V/m) @ t=0
-1.304442424687446
% es.tEx (V/m) @ t=0
2.628219094109813
% es.tEy (V/m) @ t=0
0
% es.tEz (V/m) @ t=0
-1.3044424246874513
% V (V) @ t=0
0.01332001956837062
% es.normE (V/m) @ t=0.02
2.5357402670200324
% es.EX (V/m) @ t=0.02
2.2700192713499616
% es.EY (V/m) @ t=0.02
0.08733995733288713
% es.EZ (V/m) @ t=0.02
-1.126660043998478
% es.tEX (V/m) @ t=0.02
2.270019271349958
% es.tEY (V/m) @ t=0.02
0
% es.tEZ (V/m) @ t=0.02
-1.1266600439984629
% es.Ex (V/m) @ t=0.02
2.2700192713499616
% es.Ey (V/m) @ t=0.02
0.08733995733288713
% es.Ez (V/m) @ t=0.02
-1.126660043998478
% es.tEx (V/m) @ t=0.02
2.270019271349958
% es.tEy (V/m) @ t=0.02
0
% es.tEz (V/m) @ t=0.02
-1.1266600439984629
% V (V) @ t=0.02
0.011504634875240841
% es.normE (V/m) @ t=0.04
2.5590664765226174
% es.EX (V/m) @ t=0.04
2.290901121396164
% es.EY (V/m) @ t=0.04
0.08814339644505453
% es.EZ (V/m) @ t=0.04
-1.1370241583680962
% es.tEX (V/m) @ t=0.04
2.2909011213961614
% es.tEY (V/m) @ t=0.04
0
% es.tEZ (V/m) @ t=0.04
-1.1370241583680993
% es.Ex (V/m) @ t=0.04
2.290901121396164
% es.Ey (V/m) @ t=0.04
0.08814339644505453
% es.Ez (V/m) @ t=0.04
-1.1370241583680962
% es.tEx (V/m) @ t=0.04
2.2909011213961614
% es.tEy (V/m) @ t=0.04
0
% es.tEz (V/m) @ t=0.04
-1.1370241583680993
% V (V) @ t=0.04
0.011610465634157621
% es.normE (V/m) @ t=0.06
2.582568610391956
% es.EX (V/m) @ t=0.06
2.311940461326243
% es.EY (V/m) @ t=0.06
0.08895289564786718
% es.EZ (V/m) @ t=0.06
-1.1474664366306566
% es.tEX (V/m) @ t=0.06
2.3119404613262358
% es.tEY (V/m) @ t=0.06
0
% es.tEZ (V/m) @ t=0.06
-1.1474664366306655
% es.Ex (V/m) @ t=0.06
2.311940461326243
% es.Ey (V/m) @ t=0.06
0.08895289564786718
% es.Ez (V/m) @ t=0.06
-1.1474664366306566
% es.tEx (V/m) @ t=0.06
2.3119404613262358
% es.tEy (V/m) @ t=0.06
0
% es.tEz (V/m) @ t=0.06
-1.1474664366306655
% V (V) @ t=0.06
0.011717094512749264
% es.normE (V/m) @ t=0.08
2.6065082675721882
% es.EX (V/m) @ t=0.08
2.333371473474173
% es.EY (V/m) @ t=0.08
0.08977746192905006
% es.EZ (V/m) @ t=0.08
-1.1581031178309606
% es.tEX (V/m) @ t=0.08
2.3333714734741706
% es.tEY (V/m) @ t=0.08
0
% es.tEZ (V/m) @ t=0.08
-1.1581031178309331
% es.Ex (V/m) @ t=0.08
2.333371473474173
% es.Ey (V/m) @ t=0.08
0.08977746192905006
% es.Ez (V/m) @ t=0.08
-1.1581031178309606
% es.tEx (V/m) @ t=0.08
2.3333714734741706
% es.tEy (V/m) @ t=0.08
0
% es.tEz (V/m) @ t=0.08
-1.1581031178309331
% V (V) @ t=0.08
0.011825708637487008
% es.normE (V/m) @ t=0.1
2.6305876975873166
% es.EX (V/m) @ t=0.1
2.354927610695179
% es.EY (V/m) @ t=0.1
0.09060684159546178
% es.EZ (V/m) @ t=0.1
-1.1688019037215196
% es.tEX (V/m) @ t=0.1
2.354927610695176
% es.tEY (V/m) @ t=0.1
0
% es.tEZ (V/m) @ t=0.1
-1.1688019037215156
% es.Ex (V/m) @ t=0.1
2.354927610695179
% es.Ey (V/m) @ t=0.1
0.09060684159546178
% es.Ez (V/m) @ t=0.1
-1.1688019037215196
% es.tEx (V/m) @ t=0.1
2.354927610695176
% es.tEy (V/m) @ t=0.1
0
% es.tEz (V/m) @ t=0.1
-1.1688019037215156
% V (V) @ t=0.1
0.011934956976391096
% es.normE (V/m) @ t=0.12
2.6546671276024947
% es.EX (V/m) @ t=0.12
2.376483747916217
% es.EY (V/m) @ t=0.12
0.09143622126191786
% es.EZ (V/m) @ t=0.12
-1.1795006896121252
% es.tEX (V/m) @ t=0.12
2.3764837479162093
% es.tEY (V/m) @ t=0.12
0
% es.tEZ (V/m) @ t=0.12
-1.1795006896121123
% es.Ex (V/m) @ t=0.12
2.376483747916217
% es.Ey (V/m) @ t=0.12
0.09143622126191786
% es.Ez (V/m) @ t=0.12
-1.1795006896121252
% es.tEx (V/m) @ t=0.12
2.3764837479162093
% es.tEy (V/m) @ t=0.12
0
% es.tEz (V/m) @ t=0.12
-1.1795006896121123
% V (V) @ t=0.12
0.012044205315295188
% es.normE (V/m) @ t=0.14
2.6793861893130027
% es.EX (V/m) @ t=0.14
2.3986124955682087
% es.EY (V/m) @ t=0.14
0.09228763848554539
% es.EZ (V/m) @ t=0.14
-1.1904836591405847
% es.tEX (V/m) @ t=0.14
2.3986124955682113
% es.tEY (V/m) @ t=0.14
0
% es.tEZ (V/m) @ t=0.14
-1.1904836591405754
% es.Ex (V/m) @ t=0.14
2.3986124955682087
% es.Ey (V/m) @ t=0.14
0.09228763848554539
% es.Ez (V/m) @ t=0.14
-1.1904836591405847
% es.tEx (V/m) @ t=0.14
2.3986124955682113
% es.tEy (V/m) @ t=0.14
0
% es.tEz (V/m) @ t=0.14
-1.1904836591405754
% V (V) @ t=0.14
0.012156355217579642
% es.normE (V/m) @ t=0.16
2.7046834134769266
% es.EX (V/m) @ t=0.16
2.4212588252193754
% es.EY (V/m) @ t=0.16
0.09315897543523238
% es.EZ (V/m) @ t=0.16
-1.2017235019767571
% es.tEX (V/m) @ t=0.16
2.4212588252193736
% es.tEY (V/m) @ t=0.16
0
% es.tEZ (V/m) @ t=0.16
-1.2017235019767512
% es.Ex (V/m) @ t=0.16
2.4212588252193754
% es.Ey (V/m) @ t=0.16
0.09315897543523238
% es.Ez (V/m) @ t=0.16
-1.2017235019767571
% es.tEx (V/m) @ t=0.16
2.4212588252193736
% es.tEy (V/m) @ t=0.16
0
% es.tEz (V/m) @ t=0.16
-1.2017235019767512
% V (V) @ t=0.16
0.012271127840118343
% es.normE (V/m) @ t=0.18
2.72998063764088
% es.EX (V/m) @ t=0.18
2.4439051548705693
% es.EY (V/m) @ t=0.18
0.09403031238490789
% es.EZ (V/m) @ t=0.18
-1.21296334481294
% es.tEX (V/m) @ t=0.18
2.4439051548705644
% es.tEY (V/m) @ t=0.18
0
% es.tEZ (V/m) @ t=0.18
-1.212963344812927
% es.Ex (V/m) @ t=0.18
2.4439051548705693
% es.Ey (V/m) @ t=0.18
0.09403031238490789
% es.Ez (V/m) @ t=0.18
-1.21296334481294
% es.tEx (V/m) @ t=0.18
2.4439051548705644
% es.tEy (V/m) @ t=0.18
0
% es.tEz (V/m) @ t=0.18
-1.212963344812927
% V (V) @ t=0.18
0.012385900462657043
% es.normE (V/m) @ t=0.2
2.755277861804794
% es.EX (V/m) @ t=0.2
2.4665514845217356
% es.EY (V/m) @ t=0.2
0.09490164933458067
% es.EZ (V/m) @ t=0.2
-1.224203187649091
% es.tEX (V/m) @ t=0.2
2.4665514845217347
% es.tEY (V/m) @ t=0.2
0
% es.tEZ (V/m) @ t=0.2
-1.2242031876490813
% es.Ex (V/m) @ t=0.2
2.4665514845217356
% es.Ey (V/m) @ t=0.2
0.09490164933458067
% es.Ez (V/m) @ t=0.2
-1.224203187649091
% es.tEx (V/m) @ t=0.2
2.4665514845217347
% es.tEy (V/m) @ t=0.2
0
% es.tEz (V/m) @ t=0.2
-1.2242031876490813
% V (V) @ t=0.2
0.012500673085195745
% es.normE (V/m) @ t=0.22
2.780575085968737
% es.EX (V/m) @ t=0.22
2.4891978141729147
% es.EY (V/m) @ t=0.22
0.0957729862842544
% es.EZ (V/m) @ t=0.22
-1.2354430304852775
% es.tEX (V/m) @ t=0.22
2.4891978141729094
% es.tEY (V/m) @ t=0.22
0
% es.tEZ (V/m) @ t=0.22
-1.2354430304852713
% es.Ex (V/m) @ t=0.22
2.4891978141729147
% es.Ey (V/m) @ t=0.22
0.0957729862842544
% es.Ez (V/m) @ t=0.22
-1.2354430304852775
% es.tEx (V/m) @ t=0.22
2.4891978141729094
% es.tEy (V/m) @ t=0.22
0
% es.tEz (V/m) @ t=0.22
-1.2354430304852713
% V (V) @ t=0.22
0.012615445707734449
% es.normE (V/m) @ t=0.24
2.8058723101326666
% es.EX (V/m) @ t=0.24
2.511844143824092
% es.EY (V/m) @ t=0.24
0.09664432323393968
% es.EZ (V/m) @ t=0.24
-1.246682873321439
% es.tEX (V/m) @ t=0.24
2.511844143824087
% es.tEY (V/m) @ t=0.24
0
% es.tEZ (V/m) @ t=0.24
-1.2466828733214257
% es.Ex (V/m) @ t=0.24
2.511844143824092
% es.Ey (V/m) @ t=0.24
0.09664432323393968
% es.Ez (V/m) @ t=0.24
-1.246682873321439
% es.tEx (V/m) @ t=0.24
2.511844143824087
% es.tEy (V/m) @ t=0.24
0
% es.tEz (V/m) @ t=0.24
-1.2466828733214257
% V (V) @ t=0.24
0.012730218330273149
% es.normE (V/m) @ t=0.26
2.8313326721750567
% es.EX (V/m) @ t=0.26
2.5346365198325347
% es.EY (V/m) @ t=0.26
0.09752128324996984
% es.EZ (V/m) @ t=0.26
-1.2579951924271464
% es.tEX (V/m) @ t=0.26
2.5346365198325316
% es.tEY (V/m) @ t=0.26
0
% es.tEZ (V/m) @ t=0.26
-1.2579951924271313
% es.Ex (V/m) @ t=0.26
2.5346365198325347
% es.Ey (V/m) @ t=0.26
0.09752128324996984
% es.Ez (V/m) @ t=0.26
-1.2579951924271464
% es.tEx (V/m) @ t=0.26
2.5346365198325316
% es.tEy (V/m) @ t=0.26
0
% es.tEz (V/m) @ t=0.26
-1.2579951924271313
% V (V) @ t=0.26
0.012845730830124255
% es.normE (V/m) @ t=0.28
2.8593512861711563
% es.EX (V/m) @ t=0.28
2.5597191265485506
% es.EY (V/m) @ t=0.28
0.09848642156387216
% es.EZ (V/m) @ t=0.28
-1.2704440505138233
% es.tEX (V/m) @ t=0.28
2.559719126548547
% es.tEY (V/m) @ t=0.28
0
% es.tEZ (V/m) @ t=0.28
-1.2704440505138024
% es.Ex (V/m) @ t=0.28
2.5597191265485506
% es.Ey (V/m) @ t=0.28
0.09848642156387216
% es.Ez (V/m) @ t=0.28
-1.2704440505138233
% es.tEx (V/m) @ t=0.28
2.559719126548547
% es.tEy (V/m) @ t=0.28
0
% es.tEz (V/m) @ t=0.28
-1.2704440505138024
% V (V) @ t=0.28
0.012972845740143466
% es.normE (V/m) @ t=0.3
2.8873699001672497
% es.EX (V/m) @ t=0.3
2.584801733264549
% es.EY (V/m) @ t=0.3
0.0994515598777505
% es.EZ (V/m) @ t=0.3
-1.2828929086004925
% es.tEX (V/m) @ t=0.3
2.584801733264542
% es.tEY (V/m) @ t=0.3
0
% es.tEZ (V/m) @ t=0.3
-1.2828929086004806
% es.Ex (V/m) @ t=0.3
2.584801733264549
% es.Ey (V/m) @ t=0.3
0.0994515598777505
% es.Ez (V/m) @ t=0.3
-1.2828929086004925
% es.tEx (V/m) @ t=0.3
2.584801733264542
% es.tEy (V/m) @ t=0.3
0
% es.tEz (V/m) @ t=0.3
-1.2828929086004806
% V (V) @ t=0.3
0.013099960650162674
% es.normE (V/m) @ t=0.32
2.9153885141633635
% es.EX (V/m) @ t=0.32
2.609884339980548
% es.EY (V/m) @ t=0.32
0.10041669819165283
% es.EZ (V/m) @ t=0.32
-1.29534176668718
% es.tEX (V/m) @ t=0.32
2.6098843399805505
% es.tEY (V/m) @ t=0.32
0
% es.tEZ (V/m) @ t=0.32
-1.2953417666871587
% es.Ex (V/m) @ t=0.32
2.609884339980548
% es.Ey (V/m) @ t=0.32
0.10041669819165283
% es.Ez (V/m) @ t=0.32
-1.29534176668718
% es.tEx (V/m) @ t=0.32
2.6098843399805505
% es.tEy (V/m) @ t=0.32
0
% es.tEz (V/m) @ t=0.32
-1.2953417666871587
% V (V) @ t=0.32
0.013227075560181881
% es.normE (V/m) @ t=0.34
2.943407128159521
% es.EX (V/m) @ t=0.34
2.634966946696581
% es.EY (V/m) @ t=0.34
0.10138183650558269
% es.EZ (V/m) @ t=0.34
-1.3077906247738635
% es.tEX (V/m) @ t=0.34
2.634966946696567
% es.tEY (V/m) @ t=0.34
0
% es.tEZ (V/m) @ t=0.34
-1.3077906247738653
% es.Ex (V/m) @ t=0.34
2.634966946696581
% es.Ey (V/m) @ t=0.34
0.10138183650558269
% es.Ez (V/m) @ t=0.34
-1.3077906247738635
% es.tEx (V/m) @ t=0.34
2.634966946696567
% es.tEy (V/m) @ t=0.34
0
% es.tEz (V/m) @ t=0.34
-1.3077906247738653
% V (V) @ t=0.34
0.013354190470201088
% es.normE (V/m) @ t=0.36
2.9714257421556454
% es.EX (V/m) @ t=0.36
2.660049553412577
% es.EY (V/m) @ t=0.36
0.10234697481946198
% es.EZ (V/m) @ t=0.36
-1.3202394828605262
% es.tEX (V/m) @ t=0.36
2.660049553412585
% es.tEY (V/m) @ t=0.36
0
% es.tEZ (V/m) @ t=0.36
-1.320239482860508
% es.Ex (V/m) @ t=0.36
2.660049553412577
% es.Ey (V/m) @ t=0.36
0.10234697481946198
% es.Ez (V/m) @ t=0.36
-1.3202394828605262
% es.tEx (V/m) @ t=0.36
2.660049553412585
% es.tEy (V/m) @ t=0.36
0
% es.tEz (V/m) @ t=0.36
-1.320239482860508
% V (V) @ t=0.36
0.013481305380220295
% es.normE (V/m) @ t=0.38
2.9994443561518116
% es.EX (V/m) @ t=0.38
2.68513216012859
% es.EY (V/m) @ t=0.38
0.10331211313337141
% es.EZ (V/m) @ t=0.38
-1.3326883409472203
% es.tEX (V/m) @ t=0.38
2.685132160128579
% es.tEY (V/m) @ t=0.38
0
% es.tEZ (V/m) @ t=0.38
-1.3326883409471932
% es.Ex (V/m) @ t=0.38
2.68513216012859
% es.Ey (V/m) @ t=0.38
0.10331211313337141
% es.Ez (V/m) @ t=0.38
-1.3326883409472203
% es.tEx (V/m) @ t=0.38
2.685132160128579
% es.tEy (V/m) @ t=0.38
0
% es.tEz (V/m) @ t=0.38
-1.3326883409471932
% V (V) @ t=0.38
0.013608420290239502
% es.normE (V/m) @ t=0.4
3.0274629701479787
% es.EX (V/m) @ t=0.4
2.7102147668446026
% es.EY (V/m) @ t=0.4
0.10427725144726213
% es.EZ (V/m) @ t=0.4
-1.345137199033897
% es.tEX (V/m) @ t=0.4
2.7102147668446026
% es.tEY (V/m) @ t=0.4
0
% es.tEZ (V/m) @ t=0.4
-1.3451371990338927
% es.Ex (V/m) @ t=0.4
2.7102147668446026
% es.Ey (V/m) @ t=0.4
0.10427725144726213
% es.Ez (V/m) @ t=0.4
-1.345137199033897
% es.tEx (V/m) @ t=0.4
2.7102147668446026
% es.tEy (V/m) @ t=0.4
0
% es.tEz (V/m) @ t=0.4
-1.3451371990338927
% V (V) @ t=0.4
0.013735535200258712
% es.normE (V/m) @ t=0.42
3.0554815841441445
% es.EX (V/m) @ t=0.42
2.735297373560601
% es.EY (V/m) @ t=0.42
0.1052423897611654
% es.EZ (V/m) @ t=0.42
-1.35758605712057
% es.tEX (V/m) @ t=0.42
2.735297373560604
% es.tEY (V/m) @ t=0.42
0
% es.tEZ (V/m) @ t=0.42
-1.3575860571205496
% es.Ex (V/m) @ t=0.42
2.735297373560601
% es.Ey (V/m) @ t=0.42
0.1052423897611654
% es.Ez (V/m) @ t=0.42
-1.35758605712057
% es.tEx (V/m) @ t=0.42
2.735297373560604
% es.tEy (V/m) @ t=0.42
0
% es.tEz (V/m) @ t=0.42
-1.3575860571205496
% V (V) @ t=0.42
0.01386265011027792
% es.normE (V/m) @ t=0.44
3.0835001981403263
% es.EX (V/m) @ t=0.44
2.760379980276607
% es.EY (V/m) @ t=0.44
0.1062075280750473
% es.EZ (V/m) @ t=0.44
-1.370034915207243
% es.tEX (V/m) @ t=0.44
2.760379980276607
% es.tEY (V/m) @ t=0.44
0
% es.tEZ (V/m) @ t=0.44
-1.3700349152072278
% es.Ex (V/m) @ t=0.44
2.760379980276607
% es.Ey (V/m) @ t=0.44
0.1062075280750473
% es.Ez (V/m) @ t=0.44
-1.370034915207243
% es.tEx (V/m) @ t=0.44
2.760379980276607
% es.tEy (V/m) @ t=0.44
0
% es.tEz (V/m) @ t=0.44
-1.3700349152072278
% V (V) @ t=0.44
0.013989765020297126
% es.normE (V/m) @ t=0.46
3.1115188121365525
% es.EX (V/m) @ t=0.46
2.7854625869926375
% es.EY (V/m) @ t=0.46
0.10717266638895584
% es.EZ (V/m) @ t=0.46
-1.382483773293941
% es.tEX (V/m) @ t=0.46
2.7854625869926375
% es.tEY (V/m) @ t=0.46
0
% es.tEZ (V/m) @ t=0.46
-1.3824837732939272
% es.Ex (V/m) @ t=0.46
2.7854625869926375
% es.Ey (V/m) @ t=0.46
0.10717266638895584
% es.Ez (V/m) @ t=0.46
-1.382483773293941
% es.tEx (V/m) @ t=0.46
2.7854625869926375
% es.tEy (V/m) @ t=0.46
0
% es.tEz (V/m) @ t=0.46
-1.3824837732939272
% V (V) @ t=0.46
0.014116879930316335
% es.normE (V/m) @ t=0.48
3.1395374261327613
% es.EX (V/m) @ t=0.48
2.8105451937086503
% es.EY (V/m) @ t=0.48
0.108137804702859
% es.EZ (V/m) @ t=0.48
-1.394932631380614
% es.tEX (V/m) @ t=0.48
2.8105451937086254
% es.tEY (V/m) @ t=0.48
0
% es.tEZ (V/m) @ t=0.48
-1.3949326313805983
% es.Ex (V/m) @ t=0.48
2.8105451937086503
% es.Ey (V/m) @ t=0.48
0.108137804702859
% es.Ez (V/m) @ t=0.48
-1.394932631380614
% es.tEx (V/m) @ t=0.48
2.8105451937086254
% es.tEy (V/m) @ t=0.48
0
% es.tEz (V/m) @ t=0.48
-1.3949326313805983
% V (V) @ t=0.48
0.014243994840335542
% es.normE (V/m) @ t=0.5
3.1675560401289653
% es.EX (V/m) @ t=0.5
2.835627800424645
% es.EY (V/m) @ t=0.5
0.10910294301676582
% es.EZ (V/m) @ t=0.5
-1.4073814894672907
% es.tEX (V/m) @ t=0.5
2.835627800424641
% es.tEY (V/m) @ t=0.5
0
% es.tEZ (V/m) @ t=0.5
-1.4073814894672623
% es.Ex (V/m) @ t=0.5
2.835627800424645
% es.Ey (V/m) @ t=0.5
0.10910294301676582
% es.Ez (V/m) @ t=0.5
-1.4073814894672907
% es.tEx (V/m) @ t=0.5
2.835627800424641
% es.tEy (V/m) @ t=0.5
0
% es.tEz (V/m) @ t=0.5
-1.4073814894672623
% V (V) @ t=0.5
0.01437110975035475
% es.normE (V/m) @ t=0.52
3.195971214603316
% es.EX (V/m) @ t=0.52
2.8610653995803492
% es.EY (V/m) @ t=0.52
0.11008172696768692
% es.EZ (V/m) @ t=0.52
-1.4200065700755327
% es.tEX (V/m) @ t=0.52
2.861065399580337
% es.tEY (V/m) @ t=0.52
0
% es.tEZ (V/m) @ t=0.52
-1.4200065700755289
% es.Ex (V/m) @ t=0.52
2.8610653995803492
% es.Ey (V/m) @ t=0.52
0.11008172696768692
% es.Ez (V/m) @ t=0.52
-1.4200065700755327
% es.tEx (V/m) @ t=0.52
2.861065399580337
% es.tEy (V/m) @ t=0.52
0
% es.tEz (V/m) @ t=0.52
-1.4200065700755289
% V (V) @ t=0.52
0.014500024771659776
% es.normE (V/m) @ t=0.54
3.227055298047536
% es.EX (V/m) @ t=0.54
2.888892148837477
% es.EY (V/m) @ t=0.54
0.11115234801560031
% es.EZ (V/m) @ t=0.54
-1.4338176535621368
% es.tEX (V/m) @ t=0.54
2.8888921488374777
% es.tEY (V/m) @ t=0.54
0
% es.tEZ (V/m) @ t=0.54
-1.4338176535621443
% es.Ex (V/m) @ t=0.54
2.888892148837477
% es.Ey (V/m) @ t=0.54
0.11115234801560031
% es.Ez (V/m) @ t=0.54
-1.4338176535621368
% es.tEx (V/m) @ t=0.54
2.8888921488374777
% es.tEy (V/m) @ t=0.54
0
% es.tEz (V/m) @ t=0.54
-1.4338176535621443
% V (V) @ t=0.54
0.014641054800441563
% es.normE (V/m) @ t=0.56
3.258139381491749
% es.EX (V/m) @ t=0.56
2.9167188980945906
% es.EY (V/m) @ t=0.56
0.11222296906353141
% es.EZ (V/m) @ t=0.56
-1.4476287370487513
% es.tEX (V/m) @ t=0.56
2.91671889809459
% es.tEY (V/m) @ t=0.56
0
% es.tEZ (V/m) @ t=0.56
-1.4476287370487455
% es.Ex (V/m) @ t=0.56
2.9167188980945906
% es.Ey (V/m) @ t=0.56
0.11222296906353141
% es.Ez (V/m) @ t=0.56
-1.4476287370487513
% es.tEx (V/m) @ t=0.56
2.91671889809459
% es.tEy (V/m) @ t=0.56
0
% es.tEz (V/m) @ t=0.56
-1.4476287370487455
% V (V) @ t=0.56
0.014782084829223344
% es.normE (V/m) @ t=0.58
3.2892234649359784
% es.EX (V/m) @ t=0.58
2.9445456473517257
% es.EY (V/m) @ t=0.58
0.11329359011144208
% es.EZ (V/m) @ t=0.58
-1.4614398205353516
% es.tEX (V/m) @ t=0.58
2.9445456473517098
% es.tEY (V/m) @ t=0.58
0
% es.tEZ (V/m) @ t=0.58
-1.4614398205353396
% es.Ex (V/m) @ t=0.58
2.9445456473517257
% es.Ey (V/m) @ t=0.58
0.11329359011144208
% es.Ez (V/m) @ t=0.58
-1.4614398205353516
% es.tEx (V/m) @ t=0.58
2.9445456473517098
% es.tEy (V/m) @ t=0.58
0
% es.tEz (V/m) @ t=0.58
-1.4614398205353396
% V (V) @ t=0.58
0.014923114858005125
% es.normE (V/m) @ t=0.6
3.3203075483802076
% es.EX (V/m) @ t=0.6
2.972372396608857
% es.EY (V/m) @ t=0.6
0.11436421115935186
% es.EZ (V/m) @ t=0.6
-1.4752509040219557
% es.tEX (V/m) @ t=0.6
2.9723723966088436
% es.tEY (V/m) @ t=0.6
0
% es.tEZ (V/m) @ t=0.6
-1.4752509040219337
% es.Ex (V/m) @ t=0.6
2.972372396608857
% es.Ey (V/m) @ t=0.6
0.11436421115935186
% es.Ez (V/m) @ t=0.6
-1.4752509040219557
% es.tEx (V/m) @ t=0.6
2.9723723966088436
% es.tEy (V/m) @ t=0.6
0
% es.tEz (V/m) @ t=0.6
-1.4752509040219337
% V (V) @ t=0.6
0.015064144886786908
% es.normE (V/m) @ t=0.62
3.351391631824413
% es.EX (V/m) @ t=0.62
3.00019914586596
% es.EY (V/m) @ t=0.62
0.11543483220726525
% es.EZ (V/m) @ t=0.62
-1.489061987508556
% es.tEX (V/m) @ t=0.62
3.000199145865963
% es.tEY (V/m) @ t=0.62
0
% es.tEZ (V/m) @ t=0.62
-1.4890619875085491
% es.Ex (V/m) @ t=0.62
3.00019914586596
% es.Ey (V/m) @ t=0.62
0.11543483220726525
% es.Ez (V/m) @ t=0.62
-1.489061987508556
% es.tEx (V/m) @ t=0.62
3.000199145865963
% es.tEy (V/m) @ t=0.62
0
% es.tEz (V/m) @ t=0.62
-1.4890619875085491
% V (V) @ t=0.62
0.015205174915568692
% es.normE (V/m) @ t=0.64
3.3824757152686518
% es.EX (V/m) @ t=0.64
3.0280258951230903
% es.EY (V/m) @ t=0.64
0.11650545325516876
% es.EZ (V/m) @ t=0.64
-1.5028730709951743
% es.tEX (V/m) @ t=0.64
3.028025895123095
% es.tEY (V/m) @ t=0.64
0
% es.tEZ (V/m) @ t=0.64
-1.5028730709951645
% es.Ex (V/m) @ t=0.64
3.0280258951230903
% es.Ey (V/m) @ t=0.64
0.11650545325516876
% es.Ez (V/m) @ t=0.64
-1.5028730709951743
% es.tEx (V/m) @ t=0.64
3.028025895123095
% es.tEy (V/m) @ t=0.64
0
% es.tEz (V/m) @ t=0.64
-1.5028730709951645
% V (V) @ t=0.64
0.015346204944350473
% es.normE (V/m) @ t=0.66
3.4135597987128974
% es.EX (V/m) @ t=0.66
3.0558526443802334
% es.EY (V/m) @ t=0.66
0.11757607430311318
% es.EZ (V/m) @ t=0.66
-1.5166841544817746
% es.tEX (V/m) @ t=0.66
3.0558526443802165
% es.tEY (V/m) @ t=0.66
0
% es.tEZ (V/m) @ t=0.66
-1.5166841544817657
% es.Ex (V/m) @ t=0.66
3.0558526443802334
% es.Ey (V/m) @ t=0.66
0.11757607430311318
% es.Ez (V/m) @ t=0.66
-1.5166841544817746
% es.tEx (V/m) @ t=0.66
3.0558526443802165
% es.tEy (V/m) @ t=0.66
0
% es.tEz (V/m) @ t=0.66
-1.5166841544817657
% V (V) @ t=0.66
0.015487234973132258
% es.normE (V/m) @ t=0.68
3.44464388215712
% es.EX (V/m) @ t=0.68
3.0836793936373463
% es.EY (V/m) @ t=0.68
0.11864669535098488
% es.EZ (V/m) @ t=0.68
-1.530495237968382
% es.tEX (V/m) @ t=0.68
3.0836793936373343
% es.tEY (V/m) @ t=0.68
0
% es.tEZ (V/m) @ t=0.68
-1.530495237968367
% es.Ex (V/m) @ t=0.68
3.0836793936373463
% es.Ey (V/m) @ t=0.68
0.11864669535098488
% es.Ez (V/m) @ t=0.68
-1.530495237968382
% es.tEx (V/m) @ t=0.68
3.0836793936373343
% es.tEy (V/m) @ t=0.68
0
% es.tEz (V/m) @ t=0.68
-1.530495237968367
% V (V) @ t=0.68
0.015628265001914037
% es.normE (V/m) @ t=0.7
3.475727965601358
% es.EX (V/m) @ t=0.7
3.1115061428944806
% es.EY (V/m) @ t=0.7
0.11971731639890887
% es.EZ (V/m) @ t=0.7
-1.5443063214549755
% es.tEX (V/m) @ t=0.7
3.1115061428944735
% es.tEY (V/m) @ t=0.7
0
% es.tEZ (V/m) @ t=0.7
-1.5443063214549753
% es.Ex (V/m) @ t=0.7
3.1115061428944806
% es.Ey (V/m) @ t=0.7
0.11971731639890887
% es.Ez (V/m) @ t=0.7
-1.5443063214549755
% es.tEx (V/m) @ t=0.7
3.1115061428944735
% es.tEy (V/m) @ t=0.7
0
% es.tEz (V/m) @ t=0.7
-1.5443063214549753
% V (V) @ t=0.7
0.01576929503069582
% es.normE (V/m) @ t=0.72
3.5068120490455925
% es.EX (V/m) @ t=0.72
3.139332892151594
% es.EY (V/m) @ t=0.72
0.12078793744684346
% es.EZ (V/m) @ t=0.72
-1.5581174049415971
% es.tEX (V/m) @ t=0.72
3.139332892151593
% es.tEY (V/m) @ t=0.72
0
% es.tEZ (V/m) @ t=0.72
-1.5581174049415836
% es.Ex (V/m) @ t=0.72
3.139332892151594
% es.Ey (V/m) @ t=0.72
0.12078793744684346
% es.Ez (V/m) @ t=0.72
-1.5581174049415971
% es.tEx (V/m) @ t=0.72
3.139332892151593
% es.tEy (V/m) @ t=0.72
0
% es.tEz (V/m) @ t=0.72
-1.5581174049415836
% V (V) @ t=0.72
0.015910325059477603
% es.normE (V/m) @ t=0.74
3.5378961324898177
% es.EX (V/m) @ t=0.74
3.167159641408711
% es.EY (V/m) @ t=0.74
0.12185855849473992
% es.EZ (V/m) @ t=0.74
-1.571928488428187
% es.tEX (V/m) @ t=0.74
3.1671596414087055
% es.tEY (V/m) @ t=0.74
0
% es.tEZ (V/m) @ t=0.74
-1.5719284884281706
% es.Ex (V/m) @ t=0.74
3.167159641408711
% es.Ey (V/m) @ t=0.74
0.12185855849473992
% es.Ez (V/m) @ t=0.74
-1.571928488428187
% es.tEx (V/m) @ t=0.74
3.1671596414087055
% es.tEy (V/m) @ t=0.74
0
% es.tEz (V/m) @ t=0.74
-1.5719284884281706
% V (V) @ t=0.74
0.016051355088259386
% es.normE (V/m) @ t=0.76
3.568980215934078
% es.EX (V/m) @ t=0.76
3.194986390665846
% es.EY (V/m) @ t=0.76
0.12292917954265681
% es.EZ (V/m) @ t=0.76
-1.5857395719148157
% es.tEX (V/m) @ t=0.76
3.1949863906658393
% es.tEY (V/m) @ t=0.76
0
% es.tEZ (V/m) @ t=0.76
-1.5857395719148073
% es.Ex (V/m) @ t=0.76
3.194986390665846
% es.Ey (V/m) @ t=0.76
0.12292917954265681
% es.Ez (V/m) @ t=0.76
-1.5857395719148157
% es.tEx (V/m) @ t=0.76
3.1949863906658393
% es.tEy (V/m) @ t=0.76
0
% es.tEz (V/m) @ t=0.76
-1.5857395719148073
% V (V) @ t=0.76
0.01619238511704117
% es.normE (V/m) @ t=0.78
3.6007512759398366
% es.EX (V/m) @ t=0.78
3.2234281407832897
% es.EY (V/m) @ t=0.78
0.1240234764445925
% es.EZ (V/m) @ t=0.78
-1.5998558605531172
% es.tEX (V/m) @ t=0.78
3.2234281407833034
% es.tEY (V/m) @ t=0.78
0
% es.tEZ (V/m) @ t=0.78
-1.599855860553106
% es.Ex (V/m) @ t=0.78
3.2234281407832897
% es.Ey (V/m) @ t=0.78
0.1240234764445925
% es.Ez (V/m) @ t=0.78
-1.5998558605531172
% es.tEx (V/m) @ t=0.78
3.2234281407833034
% es.tEy (V/m) @ t=0.78
0
% es.tEz (V/m) @ t=0.78
-1.599855860553106
% V (V) @ t=0.78
0.016336530996942024
% es.normE (V/m) @ t=0.8
3.6352913083639287
% es.EX (V/m) @ t=0.8
3.2543487533755853
% es.EY (V/m) @ t=0.8
0.1252132027839189
% es.EZ (V/m) @ t=0.8
-1.6152023289302646
% es.tEX (V/m) @ t=0.8
3.254348753375595
% es.tEY (V/m) @ t=0.8
0
% es.tEZ (V/m) @ t=0.8
-1.615202328930259
% es.Ex (V/m) @ t=0.8
3.2543487533755853
% es.Ey (V/m) @ t=0.8
0.1252132027839189
% es.Ez (V/m) @ t=0.8
-1.6152023289302646
% es.tEx (V/m) @ t=0.8
3.254348753375595
% es.tEy (V/m) @ t=0.8
0
% es.tEz (V/m) @ t=0.8
-1.615202328930259
% V (V) @ t=0.8
0.016493235829056208
% es.normE (V/m) @ t=0.82
3.6698313407880736
% es.EX (V/m) @ t=0.82
3.2852693659679155
% es.EY (V/m) @ t=0.82
0.1264029291232267
% es.EZ (V/m) @ t=0.82
-1.630548797307458
% es.tEX (V/m) @ t=0.82
3.2852693659679275
% es.tEY (V/m) @ t=0.82
0
% es.tEZ (V/m) @ t=0.82
-1.6305487973074548
% es.Ex (V/m) @ t=0.82
3.2852693659679155
% es.Ey (V/m) @ t=0.82
0.1264029291232267
% es.Ez (V/m) @ t=0.82
-1.630548797307458
% es.tEx (V/m) @ t=0.82
3.2852693659679275
% es.tEy (V/m) @ t=0.82
0
% es.tEz (V/m) @ t=0.82
-1.6305487973074548
% V (V) @ t=0.82
0.01664994066117039
% es.normE (V/m) @ t=0.84
3.704371373212174
% es.EX (V/m) @ t=0.84
3.316189978560212
% es.EY (V/m) @ t=0.84
0.127592655462539
% es.EZ (V/m) @ t=0.84
-1.6458952656846124
% es.tEX (V/m) @ t=0.84
3.316189978560221
% es.tEY (V/m) @ t=0.84
0
% es.tEZ (V/m) @ t=0.84
-1.645895265684608
% es.Ex (V/m) @ t=0.84
3.316189978560212
% es.Ey (V/m) @ t=0.84
0.127592655462539
% es.Ez (V/m) @ t=0.84
-1.6458952656846124
% es.tEx (V/m) @ t=0.84
3.316189978560221
% es.tEy (V/m) @ t=0.84
0
% es.tEz (V/m) @ t=0.84
-1.645895265684608
% V (V) @ t=0.84
0.016806645493284575
% es.normE (V/m) @ t=0.86
3.7389114056362946
% es.EX (V/m) @ t=0.86
3.3471105911525294
% es.EY (V/m) @ t=0.86
0.12878238180185564
% es.EZ (V/m) @ t=0.86
-1.661241734061767
% es.tEX (V/m) @ t=0.86
3.347110591152525
% es.tEY (V/m) @ t=0.86
0
% es.tEZ (V/m) @ t=0.86
-1.6612417340617611
% es.Ex (V/m) @ t=0.86
3.3471105911525294
% es.Ey (V/m) @ t=0.86
0.12878238180185564
% es.Ez (V/m) @ t=0.86
-1.661241734061767
% es.tEx (V/m) @ t=0.86
3.347110591152525
% es.tEy (V/m) @ t=0.86
0
% es.tEz (V/m) @ t=0.86
-1.6612417340617611
% V (V) @ t=0.86
0.01696335032539875
% es.normE (V/m) @ t=0.88
3.7734514380603867
% es.EX (V/m) @ t=0.88
3.378031203744817
% es.EY (V/m) @ t=0.88
0.12997210814118482
% es.EZ (V/m) @ t=0.88
-1.6765882024389107
% es.tEX (V/m) @ t=0.88
3.378031203744831
% es.tEY (V/m) @ t=0.88
0
% es.tEZ (V/m) @ t=0.88
-1.6765882024389
% es.Ex (V/m) @ t=0.88
3.378031203744817
% es.Ey (V/m) @ t=0.88
0.12997210814118482
% es.Ez (V/m) @ t=0.88
-1.6765882024389107
% es.tEx (V/m) @ t=0.88
3.378031203744831
% es.tEy (V/m) @ t=0.88
0
% es.tEz (V/m) @ t=0.88
-1.6765882024389
% V (V) @ t=0.88
0.017120055157512935
% es.normE (V/m) @ t=0.9
3.8079914704844944
% es.EX (V/m) @ t=0.9
3.4089518163371118
% es.EY (V/m) @ t=0.9
0.13116183448047214
% es.EZ (V/m) @ t=0.9
-1.6919346708160723
% es.tEX (V/m) @ t=0.9
3.4089518163371206
% es.tEY (V/m) @ t=0.9
0
% es.tEZ (V/m) @ t=0.9
-1.6919346708160816
% es.Ex (V/m) @ t=0.9
3.4089518163371118
% es.Ey (V/m) @ t=0.9
0.13116183448047214
% es.Ez (V/m) @ t=0.9
-1.6919346708160723
% es.tEx (V/m) @ t=0.9
3.4089518163371206
% es.tEy (V/m) @ t=0.9
0
% es.tEz (V/m) @ t=0.9
-1.6919346708160816
% V (V) @ t=0.9
0.01727675998962712
% es.normE (V/m) @ t=0.92
3.842531502908622
% es.EX (V/m) @ t=0.92
3.439872428929422
% es.EY (V/m) @ t=0.92
0.13235156081980132
% es.EZ (V/m) @ t=0.92
-1.707281139193241
% es.tEX (V/m) @ t=0.92
3.4398724289294407
% es.tEY (V/m) @ t=0.92
0
% es.tEZ (V/m) @ t=0.92
-1.7072811391932419
% es.Ex (V/m) @ t=0.92
3.439872428929422
% es.Ey (V/m) @ t=0.92
0.13235156081980132
% es.Ez (V/m) @ t=0.92
-1.707281139193241
% es.tEx (V/m) @ t=0.92
3.4398724289294407
% es.tEy (V/m) @ t=0.92
0
% es.tEz (V/m) @ t=0.92
-1.7072811391932419
% V (V) @ t=0.92
0.017433464821741303
% es.normE (V/m) @ t=0.94
3.877071535332731
% es.EX (V/m) @ t=0.94
3.470793041521717
% es.EY (V/m) @ t=0.94
0.13354128715909575
% es.EZ (V/m) @ t=0.94
-1.7226276075703955
% es.tEX (V/m) @ t=0.94
3.4707930415217323
% es.tEY (V/m) @ t=0.94
0
% es.tEZ (V/m) @ t=0.94
-1.722627607570388
% es.Ex (V/m) @ t=0.94
3.470793041521717
% es.Ey (V/m) @ t=0.94
0.13354128715909575
% es.Ez (V/m) @ t=0.94
-1.7226276075703955
% es.tEx (V/m) @ t=0.94
3.4707930415217323
% es.tEy (V/m) @ t=0.94
0
% es.tEz (V/m) @ t=0.94
-1.722627607570388
% V (V) @ t=0.94
0.017590169653855486
% es.normE (V/m) @ t=0.96
3.9116115677568626
% es.EX (V/m) @ t=0.96
3.501713654114027
% es.EY (V/m) @ t=0.96
0.1347310134984373
% es.EZ (V/m) @ t=0.96
-1.7379740759475641
% es.tEX (V/m) @ t=0.96
3.5017136541140363
% es.tEY (V/m) @ t=0.96
0
% es.tEZ (V/m) @ t=0.96
-1.7379740759475482
% es.Ex (V/m) @ t=0.96
3.501713654114027
% es.Ey (V/m) @ t=0.96
0.1347310134984373
% es.Ez (V/m) @ t=0.96
-1.7379740759475641
% es.tEx (V/m) @ t=0.96
3.5017136541140363
% es.tEy (V/m) @ t=0.96
0
% es.tEz (V/m) @ t=0.96
-1.7379740759475482
% V (V) @ t=0.96
0.01774687448596967
% es.normE (V/m) @ t=0.98
3.9461516001809853
% es.EX (V/m) @ t=0.98
3.5326342667063377
% es.EY (V/m) @ t=0.98
0.13592073983777436
% es.EZ (V/m) @ t=0.98
-1.753320544324708
% es.tEX (V/m) @ t=0.98
3.532634266706344
% es.tEY (V/m) @ t=0.98
0
% es.tEZ (V/m) @ t=0.98
-1.7533205443247226
% es.Ex (V/m) @ t=0.98
3.5326342667063377
% es.Ey (V/m) @ t=0.98
0.13592073983777436
% es.Ez (V/m) @ t=0.98
-1.753320544324708
% es.tEx (V/m) @ t=0.98
3.532634266706344
% es.tEy (V/m) @ t=0.98
0
% es.tEz (V/m) @ t=0.98
-1.7533205443247226
% V (V) @ t=0.98
0.01790357931808385
% es.normE (V/m) @ t=1
3.980691632605133
% es.EX (V/m) @ t=1
3.5635548792986533
% es.EY (V/m) @ t=1
0.13711046617708578
% es.EZ (V/m) @ t=1
-1.7686670127018944
% es.tEX (V/m) @ t=1
3.563554879298662
% es.tEY (V/m) @ t=1
0
% es.tEZ (V/m) @ t=1
-1.768667012701897
% es.Ex (V/m) @ t=1
3.5635548792986533
% es.Ey (V/m) @ t=1
0.13711046617708578
% es.Ez (V/m) @ t=1
-1.7686670127018944
% es.tEx (V/m) @ t=1
3.563554879298662
% es.tEy (V/m) @ t=1
0
% es.tEz (V/m) @ t=1
-1.768667012701897
% V (V) @ t=1
0.018060284150198034
% es.normE (V/m) @ t=1.02
4.015231665029253
% es.EX (V/m) @ t=1.02
3.5944754918909556
% es.EY (V/m) @ t=1.02
0.1383001925164229
% es.EZ (V/m) @ t=1.02
-1.7840134810790382
% es.tEX (V/m) @ t=1.02
3.594475491890954
% es.tEY (V/m) @ t=1.02
0
% es.tEZ (V/m) @ t=1.02
-1.7840134810790573
% es.Ex (V/m) @ t=1.02
3.5944754918909556
% es.Ey (V/m) @ t=1.02
0.1383001925164229
% es.Ez (V/m) @ t=1.02
-1.7840134810790382
% es.tEx (V/m) @ t=1.02
3.594475491890954
% es.tEy (V/m) @ t=1.02
0
% es.tEz (V/m) @ t=1.02
-1.7840134810790573
% V (V) @ t=1.02
0.018216988982312218
% es.normE (V/m) @ t=1.04
4.050208508510197
% es.EX (V/m) @ t=1.04
3.6257871347600235
% es.EY (V/m) @ t=1.04
0.13950495640836758
% es.EZ (V/m) @ t=1.04
-1.7995540450318233
% es.tEX (V/m) @ t=1.04
3.625787134760026
% es.tEY (V/m) @ t=1.04
0
% es.tEZ (V/m) @ t=1.04
-1.7995540450317833
% es.Ex (V/m) @ t=1.04