% Model:              1 neuron.mph
% Version:            COMSOL 6.1.0.252
% Date:               Mar 22 2023, 17:54
% Dimension:          0
% Nodes:              14017
% Expressions:        14017
% Description:        Electric field norm, Electric field, X component, Electric field, Y component, Electric field, Z component, Tangential electric field, X component, Tangential electric field, Y component, Tangential electric field, Z component, Electric field, x component, Electric field, y component, Electric field, z component, Tangential electric field, x component, Tangential electric field, y component, Tangential electric field, z component, Electric potential
% Length unit:        mm
% x
2
% y
12.2
% z
1.6599999999999997
% es.normE (V/m) @ t=0
2.2997372218000924
% es.EX (V/m) @ t=0
-2.222154563137371
% es.EY (V/m) @ t=0
0.17118710455708364
% es.EZ (V/m) @ t=0
-0.5663661138775802
% es.tEX (V/m) @ t=0
-2.222154563137387
% es.tEY (V/m) @ t=0
0
% es.tEZ (V/m) @ t=0
-0.5663661138775673
% es.Ex (V/m) @ t=0
-2.222154563137371
% es.Ey (V/m) @ t=0
0.17118710455708364
% es.Ez (V/m) @ t=0
-0.5663661138775802
% es.tEx (V/m) @ t=0
-2.222154563137387
% es.tEy (V/m) @ t=0
0
% es.tEz (V/m) @ t=0
-0.5663661138775673
% V (V) @ t=0
0.013327449954235819
% es.normE (V/m) @ t=0.02
1.9863061743094756
% es.EX (V/m) @ t=0.02
-1.9192972516079179
% es.EY (V/m) @ t=0.02
0.14785602469886994
% es.EZ (V/m) @ t=0.02
-0.4891761099107983
% es.tEX (V/m) @ t=0.02
-1.9192972516079063
% es.tEY (V/m) @ t=0.02
0
% es.tEZ (V/m) @ t=0.02
-0.4891761099107885
% es.Ex (V/m) @ t=0.02
-1.9192972516079179
% es.Ey (V/m) @ t=0.02
0.14785602469886994
% es.Ez (V/m) @ t=0.02
-0.4891761099107983
% es.tEx (V/m) @ t=0.02
-1.9192972516079063
% es.tEy (V/m) @ t=0.02
0
% es.tEz (V/m) @ t=0.02
-0.4891761099107885
% V (V) @ t=0.02
0.011511052574209629
% es.normE (V/m) @ t=0.04
2.004578156827331
% es.EX (V/m) @ t=0.04
-1.9369528209597968
% es.EY (V/m) @ t=0.04
0.14921614980040887
% es.EZ (V/m) @ t=0.04
-0.49367602768837404
% es.tEX (V/m) @ t=0.04
-1.9369528209597977
% es.tEY (V/m) @ t=0.04
0
% es.tEZ (V/m) @ t=0.04
-0.4936760276883678
% es.Ex (V/m) @ t=0.04
-1.9369528209597968
% es.Ey (V/m) @ t=0.04
0.14921614980040887
% es.Ez (V/m) @ t=0.04
-0.49367602768837404
% es.tEx (V/m) @ t=0.04
-1.9369528209597977
% es.tEy (V/m) @ t=0.04
0
% es.tEz (V/m) @ t=0.04
-0.4936760276883678
% V (V) @ t=0.04
0.011616942369207864
% es.normE (V/m) @ t=0.06
2.0229879469709076
% es.EX (V/m) @ t=0.06
-1.9547415491104756
% es.EY (V/m) @ t=0.06
0.15058653362495256
% es.EZ (V/m) @ t=0.06
-0.49820988308862546
% es.tEX (V/m) @ t=0.06
-1.9547415491104765
% es.tEY (V/m) @ t=0.06
0
% es.tEZ (V/m) @ t=0.06
-0.4982098830886219
% es.Ex (V/m) @ t=0.06
-1.9547415491104756
% es.Ey (V/m) @ t=0.06
0.15058653362495256
% es.Ez (V/m) @ t=0.06
-0.49820988308862546
% es.tEx (V/m) @ t=0.06
-1.9547415491104765
% es.tEy (V/m) @ t=0.06
0
% es.tEz (V/m) @ t=0.06
-0.4982098830886219
% V (V) @ t=0.06
0.011723630729033636
% es.normE (V/m) @ t=0.08
2.0417404517851505
% es.EX (V/m) @ t=0.08
-1.9728614295594067
% es.EY (V/m) @ t=0.08
0.15198242553205388
% es.EZ (V/m) @ t=0.08
-0.5028281439203885
% es.tEX (V/m) @ t=0.08
-1.9728614295593925
% es.tEY (V/m) @ t=0.08
0
% es.tEZ (V/m) @ t=0.08
-0.5028281439203948
% es.Ex (V/m) @ t=0.08
-1.9728614295594067
% es.Ey (V/m) @ t=0.08
0.15198242553205388
% es.Ez (V/m) @ t=0.08
-0.5028281439203885
% es.tEx (V/m) @ t=0.08
-1.9728614295593925
% es.tEy (V/m) @ t=0.08
0
% es.tEz (V/m) @ t=0.08
-0.5028281439203948
% V (V) @ t=0.08
0.01183230544276817
% es.normE (V/m) @ t=0.1
2.060602441511243
% es.EX (V/m) @ t=0.1
-1.9910871011614084
% es.EY (V/m) @ t=0.1
0.15338646634675945
% es.EZ (V/m) @ t=0.1
-0.5074733692272964
% es.tEX (V/m) @ t=0.1
-1.9910871011613818
% es.tEY (V/m) @ t=0.1
0
% es.tEZ (V/m) @ t=0.1
-0.5074733692273004
% es.Ex (V/m) @ t=0.1
-1.9910871011614084
% es.Ey (V/m) @ t=0.1
0.15338646634675945
% es.Ez (V/m) @ t=0.1
-0.5074733692272964
% es.tEx (V/m) @ t=0.1
-1.9910871011613818
% es.tEy (V/m) @ t=0.1
0
% es.tEz (V/m) @ t=0.1
-0.5074733692273004
% V (V) @ t=0.1
0.011941614724559062
% es.normE (V/m) @ t=0.12
2.079464431237273
% es.EX (V/m) @ t=0.12
-2.009312772763346
% es.EY (V/m) @ t=0.12
0.15479050716144915
% es.EZ (V/m) @ t=0.12
-0.5121185945342064
% es.tEX (V/m) @ t=0.12
-2.0093127727633693
% es.tEY (V/m) @ t=0.12
0
% es.tEZ (V/m) @ t=0.12
-0.5121185945342202
% es.Ex (V/m) @ t=0.12
-2.009312772763346
% es.Ey (V/m) @ t=0.12
0.15479050716144915
% es.Ez (V/m) @ t=0.12
-0.5121185945342064
% es.tEx (V/m) @ t=0.12
-2.0093127727633693
% es.tEy (V/m) @ t=0.12
0
% es.tEz (V/m) @ t=0.12
-0.5121185945342202
% V (V) @ t=0.12
0.012050924006349953
% es.normE (V/m) @ t=0.14
2.098827476076771
% es.EX (V/m) @ t=0.14
-2.0280225976765633
% es.EY (V/m) @ t=0.14
0.15623185151574326
% es.EZ (V/m) @ t=0.14
-0.5168872092928658
% es.tEX (V/m) @ t=0.14
-2.028022597676596
% es.tEY (V/m) @ t=0.14
0
% es.tEZ (V/m) @ t=0.14
-0.5168872092928574
% es.Ex (V/m) @ t=0.14
-2.0280225976765633
% es.Ey (V/m) @ t=0.14
0.15623185151574326
% es.Ez (V/m) @ t=0.14
-0.5168872092928658
% es.tEx (V/m) @ t=0.14
-2.028022597676596
% es.tEy (V/m) @ t=0.14
0
% es.tEz (V/m) @ t=0.14
-0.5168872092928574
% V (V) @ t=0.14
0.012163136469263688
% es.normE (V/m) @ t=0.16
2.1186434241351213
% es.EX (V/m) @ t=0.16
-2.0471700482864463
% es.EY (V/m) @ t=0.16
0.15770691450244734
% es.EZ (V/m) @ t=0.16
-0.5217673556542382
% es.tEX (V/m) @ t=0.16
-2.0471700482864357
% es.tEY (V/m) @ t=0.16
0
% es.tEZ (V/m) @ t=0.16
-0.5217673556542284
% es.Ex (V/m) @ t=0.16
-2.0471700482864463
% es.Ey (V/m) @ t=0.16
0.15770691450244734
% es.Ez (V/m) @ t=0.16
-0.5217673556542382
% es.tEx (V/m) @ t=0.16
-2.0471700482864357
% es.tEy (V/m) @ t=0.16
0
% es.tEz (V/m) @ t=0.16
-0.5217673556542284
% V (V) @ t=0.16
0.0122779731147075
% es.normE (V/m) @ t=0.18
2.1384593721934384
% es.EX (V/m) @ t=0.18
-2.066317498896301
% es.EY (V/m) @ t=0.18
0.15918197748911067
% es.EZ (V/m) @ t=0.18
-0.5266475020155981
% es.tEX (V/m) @ t=0.18
-2.0663174988962965
% es.tEY (V/m) @ t=0.18
0
% es.tEZ (V/m) @ t=0.18
-0.5266475020155976
% es.Ex (V/m) @ t=0.18
-2.066317498896301
% es.Ey (V/m) @ t=0.18
0.15918197748911067
% es.Ez (V/m) @ t=0.18
-0.5266475020155981
% es.tEx (V/m) @ t=0.18
-2.0663174988962965
% es.tEy (V/m) @ t=0.18
0
% es.tEz (V/m) @ t=0.18
-0.5266475020155976
% V (V) @ t=0.18
0.012392809760151315
% es.normE (V/m) @ t=0.2
2.15827532025175
% es.EX (V/m) @ t=0.2
-2.0854649495061386
% es.EY (V/m) @ t=0.2
0.16065704047581397
% es.EZ (V/m) @ t=0.2
-0.5315276483769891
% es.tEX (V/m) @ t=0.2
-2.085464949506129
% es.tEY (V/m) @ t=0.2
0
% es.tEZ (V/m) @ t=0.2
-0.53152764837699
% es.Ex (V/m) @ t=0.2
-2.0854649495061386
% es.Ey (V/m) @ t=0.2
0.16065704047581397
% es.Ez (V/m) @ t=0.2
-0.5315276483769891
% es.tEx (V/m) @ t=0.2
-2.085464949506129
% es.tEy (V/m) @ t=0.2
0
% es.tEz (V/m) @ t=0.2
-0.53152764837699
% V (V) @ t=0.2
0.012507646405595124
% es.normE (V/m) @ t=0.22
2.1780912683100464
% es.EX (V/m) @ t=0.22
-2.1046124001159674
% es.EY (V/m) @ t=0.22
0.16213210346248275
% es.EZ (V/m) @ t=0.22
-0.5364077947383619
% es.tEX (V/m) @ t=0.22
-2.1046124001159896
% es.tEY (V/m) @ t=0.22
0
% es.tEZ (V/m) @ t=0.22
-0.5364077947383574
% es.Ex (V/m) @ t=0.22
-2.1046124001159674
% es.Ey (V/m) @ t=0.22
0.16213210346248275
% es.Ez (V/m) @ t=0.22
-0.5364077947383619
% es.tEx (V/m) @ t=0.22
-2.1046124001159896
% es.tEy (V/m) @ t=0.22
0
% es.tEz (V/m) @ t=0.22
-0.5364077947383574
% V (V) @ t=0.22
0.012622483051038939
% es.normE (V/m) @ t=0.24
2.1979072163683795
% es.EX (V/m) @ t=0.24
-2.123759850725836
% es.EY (V/m) @ t=0.24
0.16360716644915918
% es.EZ (V/m) @ t=0.24
-0.5412879410997276
% es.tEX (V/m) @ t=0.24
-2.123759850725829
% es.tEY (V/m) @ t=0.24
0
% es.tEZ (V/m) @ t=0.24
-0.5412879410997302
% es.Ex (V/m) @ t=0.24
-2.123759850725836
% es.Ey (V/m) @ t=0.24
0.16360716644915918
% es.Ez (V/m) @ t=0.24
-0.5412879410997276
% es.tEx (V/m) @ t=0.24
-2.123759850725829
% es.tEy (V/m) @ t=0.24
0
% es.tEz (V/m) @ t=0.24
-0.5412879410997302
% V (V) @ t=0.24
0.012737319696482752
% es.normE (V/m) @ t=0.26
2.217850964499304
% es.EX (V/m) @ t=0.26
-2.14303079097819
% es.EY (V/m) @ t=0.26
0.16509174646551705
% es.EZ (V/m) @ t=0.26
-0.546199556554336
% es.tEX (V/m) @ t=0.26
-2.143030790978198
% es.tEY (V/m) @ t=0.26
0
% es.tEZ (V/m) @ t=0.26
-0.5461995565543329
% es.Ex (V/m) @ t=0.26
-2.14303079097819
% es.Ey (V/m) @ t=0.26
0.16509174646551705
% es.Ez (V/m) @ t=0.26
-0.546199556554336
% es.tEx (V/m) @ t=0.26
-2.143030790978198
% es.tEy (V/m) @ t=0.26
0
% es.tEz (V/m) @ t=0.26
-0.5461995565543329
% V (V) @ t=0.26
0.01285289663144151
% es.normE (V/m) @ t=0.28
2.2397988136304745
% es.EX (V/m) @ t=0.28
-2.1642382380806797
% es.EY (V/m) @ t=0.28
0.16672556809295425
% es.EZ (V/m) @ t=0.28
-0.5516046556195309
% es.tEX (V/m) @ t=0.28
-2.1642382380806993
% es.tEY (V/m) @ t=0.28
0
% es.tEZ (V/m) @ t=0.28
-0.5516046556195437
% es.Ex (V/m) @ t=0.28
-2.1642382380806797
% es.Ey (V/m) @ t=0.28
0.16672556809295425
% es.Ez (V/m) @ t=0.28
-0.5516046556195309
% es.tEx (V/m) @ t=0.28
-2.1642382380806993
% es.tEy (V/m) @ t=0.28
0
% es.tEz (V/m) @ t=0.28
-0.5516046556195437
% V (V) @ t=0.28
0.012980082440535884
% es.normE (V/m) @ t=0.3
2.2617466627617047
% es.EX (V/m) @ t=0.3
-2.1854456851832254
% es.EY (V/m) @ t=0.3
0.1683593897203809
% es.EZ (V/m) @ t=0.3
-0.5570097546847204
% es.tEX (V/m) @ t=0.3
-2.185445685183229
% es.tEY (V/m) @ t=0.3
0
% es.tEZ (V/m) @ t=0.3
-0.5570097546847208
% es.Ex (V/m) @ t=0.3
-2.1854456851832254
% es.Ey (V/m) @ t=0.3
0.1683593897203809
% es.Ez (V/m) @ t=0.3
-0.5570097546847204
% es.tEx (V/m) @ t=0.3
-2.185445685183229
% es.tEy (V/m) @ t=0.3
0
% es.tEz (V/m) @ t=0.3
-0.5570097546847208
% V (V) @ t=0.3
0.013107268249630254
% es.normE (V/m) @ t=0.32
2.283694511892885
% es.EX (V/m) @ t=0.32
-2.206653132285714
% es.EY (V/m) @ t=0.32
0.1699932113478021
% es.EZ (V/m) @ t=0.32
-0.5624148537498961
% es.tEX (V/m) @ t=0.32
-2.206653132285716
% es.tEY (V/m) @ t=0.32
0
% es.tEZ (V/m) @ t=0.32
-0.562414853749889
% es.Ex (V/m) @ t=0.32
-2.206653132285714
% es.Ey (V/m) @ t=0.32
0.1699932113478021
% es.Ez (V/m) @ t=0.32
-0.5624148537498961
% es.tEx (V/m) @ t=0.32
-2.206653132285716
% es.tEy (V/m) @ t=0.32
0
% es.tEz (V/m) @ t=0.32
-0.562414853749889
% V (V) @ t=0.32
0.013234454058724627
% es.normE (V/m) @ t=0.34
2.305642361024106
% es.EX (V/m) @ t=0.34
-2.2278605793882376
% es.EY (V/m) @ t=0.34
0.17162703297521098
% es.EZ (V/m) @ t=0.34
-0.5678199528150754
% es.tEX (V/m) @ t=0.34
-2.2278605793882313
% es.tEY (V/m) @ t=0.34
0
% es.tEZ (V/m) @ t=0.34
-0.567819952815082
% es.Ex (V/m) @ t=0.34
-2.2278605793882376
% es.Ey (V/m) @ t=0.34
0.17162703297521098
% es.Ez (V/m) @ t=0.34
-0.5678199528150754
% es.tEx (V/m) @ t=0.34
-2.2278605793882313
% es.tEy (V/m) @ t=0.34
0
% es.tEz (V/m) @ t=0.34
-0.567819952815082
% V (V) @ t=0.34
0.013361639867819
% es.normE (V/m) @ t=0.36
2.3275902101553245
% es.EX (V/m) @ t=0.36
-2.2490680264907494
% es.EY (V/m) @ t=0.36
0.17326085460264995
% es.EZ (V/m) @ t=0.36
-0.5732250518802502
% es.tEX (V/m) @ t=0.36
-2.249068026490761
% es.tEY (V/m) @ t=0.36
0
% es.tEZ (V/m) @ t=0.36
-0.5732250518802502
% es.Ex (V/m) @ t=0.36
-2.2490680264907494
% es.Ey (V/m) @ t=0.36
0.17326085460264995
% es.Ez (V/m) @ t=0.36
-0.5732250518802502
% es.tEx (V/m) @ t=0.36
-2.249068026490761
% es.tEy (V/m) @ t=0.36
0
% es.tEz (V/m) @ t=0.36
-0.5732250518802502
% V (V) @ t=0.36
0.013488825676913369
% es.normE (V/m) @ t=0.38
2.3495380592865356
% es.EX (V/m) @ t=0.38
-2.270275473593248
% es.EY (V/m) @ t=0.38
0.17489467623004817
% es.EZ (V/m) @ t=0.38
-0.5786301509454299
% es.tEX (V/m) @ t=0.38
-2.2702754735932373
% es.tEY (V/m) @ t=0.38
0
% es.tEZ (V/m) @ t=0.38
-0.5786301509454148
% es.Ex (V/m) @ t=0.38
-2.270275473593248
% es.Ey (V/m) @ t=0.38
0.17489467623004817
% es.Ez (V/m) @ t=0.38
-0.5786301509454299
% es.tEx (V/m) @ t=0.38
-2.2702754735932373
% es.tEy (V/m) @ t=0.38
0
% es.tEz (V/m) @ t=0.38
-0.5786301509454148
% V (V) @ t=0.38
0.013616011486007744
% es.normE (V/m) @ t=0.4
2.3714859084177835
% es.EX (V/m) @ t=0.4
-2.2914829206957688
% es.EY (V/m) @ t=0.4
0.17652849785750502
% es.EZ (V/m) @ t=0.4
-0.5840352500106234
% es.tEX (V/m) @ t=0.4
-2.2914829206957776
% es.tEY (V/m) @ t=0.4
0
% es.tEZ (V/m) @ t=0.4
-0.5840352500106221
% es.Ex (V/m) @ t=0.4
-2.2914829206957688
% es.Ey (V/m) @ t=0.4
0.17652849785750502
% es.Ez (V/m) @ t=0.4
-0.5840352500106234
% es.tEx (V/m) @ t=0.4
-2.2914829206957776
% es.tEy (V/m) @ t=0.4
0
% es.tEz (V/m) @ t=0.4
-0.5840352500106221
% V (V) @ t=0.4
0.013743197295102115
% es.normE (V/m) @ t=0.42
2.393433757549004
% es.EX (V/m) @ t=0.42
-2.3126903677982567
% es.EY (V/m) @ t=0.42
0.1781623194849421
% es.EZ (V/m) @ t=0.42
-0.589440349075816
% es.tEX (V/m) @ t=0.42
-2.3126903677982646
% es.tEY (V/m) @ t=0.42
0
% es.tEZ (V/m) @ t=0.42
-0.5894403490758222
% es.Ex (V/m) @ t=0.42
-2.3126903677982567
% es.Ey (V/m) @ t=0.42
0.1781623194849421
% es.Ez (V/m) @ t=0.42
-0.589440349075816
% es.tEx (V/m) @ t=0.42
-2.3126903677982646
% es.tEy (V/m) @ t=0.42
0
% es.tEz (V/m) @ t=0.42
-0.5894403490758222
% V (V) @ t=0.42
0.013870383104196485
% es.normE (V/m) @ t=0.44
2.4153816066802563
% es.EX (V/m) @ t=0.44
-2.3338978149007827
% es.EY (V/m) @ t=0.44
0.17979614111234044
% es.EZ (V/m) @ t=0.44
-0.5948454481409686
% es.tEX (V/m) @ t=0.44
-2.3338978149007943
% es.tEY (V/m) @ t=0.44
0
% es.tEZ (V/m) @ t=0.44
-0.5948454481409655
% es.Ex (V/m) @ t=0.44
-2.3338978149007827
% es.Ey (V/m) @ t=0.44
0.17979614111234044
% es.Ez (V/m) @ t=0.44
-0.5948454481409686
% es.tEx (V/m) @ t=0.44
-2.3338978149007943
% es.tEy (V/m) @ t=0.44
0
% es.tEz (V/m) @ t=0.44
-0.5948454481409655
% V (V) @ t=0.44
0.013997568913290862
% es.normE (V/m) @ t=0.46
2.437329455811516
% es.EX (V/m) @ t=0.46
-2.3551052620033
% es.EY (V/m) @ t=0.46
0.18142996273975087
% es.EZ (V/m) @ t=0.46
-0.6002505472061594
% es.tEX (V/m) @ t=0.46
-2.3551052620032955
% es.tEY (V/m) @ t=0.46
0
% es.tEZ (V/m) @ t=0.46
-0.6002505472061515
% es.Ex (V/m) @ t=0.46
-2.3551052620033
% es.Ey (V/m) @ t=0.46
0.18142996273975087
% es.Ez (V/m) @ t=0.46
-0.6002505472061594
% es.tEx (V/m) @ t=0.46
-2.3551052620032955
% es.tEy (V/m) @ t=0.46
0
% es.tEz (V/m) @ t=0.46
-0.6002505472061515
% V (V) @ t=0.46
0.014124754722385231
% es.normE (V/m) @ t=0.48
2.45927730494277
% es.EX (V/m) @ t=0.48
-2.376312709105804
% es.EY (V/m) @ t=0.48
0.18306378436718818
% es.EZ (V/m) @ t=0.48
-0.6056556462713427
% es.tEX (V/m) @ t=0.48
-2.376312709105811
% es.tEY (V/m) @ t=0.48
0
% es.tEZ (V/m) @ t=0.48
-0.6056556462713409
% es.Ex (V/m) @ t=0.48
-2.376312709105804
% es.Ey (V/m) @ t=0.48
0.18306378436718818
% es.Ez (V/m) @ t=0.48
-0.6056556462713427
% es.tEx (V/m) @ t=0.48
-2.376312709105811
% es.tEy (V/m) @ t=0.48
0
% es.tEz (V/m) @ t=0.48
-0.6056556462713409
% V (V) @ t=0.48
0.014251940531479603
% es.normE (V/m) @ t=0.5
2.4812251540740364
% es.EX (V/m) @ t=0.5
-2.3975201562083193
% es.EY (V/m) @ t=0.5
0.1846976059946024
% es.EZ (V/m) @ t=0.5
-0.6110607453365131
% es.tEX (V/m) @ t=0.5
-2.397520156208312
% es.tEY (V/m) @ t=0.5
0
% es.tEZ (V/m) @ t=0.5
-0.6110607453365269
% es.Ex (V/m) @ t=0.5
-2.3975201562083193
% es.Ey (V/m) @ t=0.5
0.1846976059946024
% es.Ez (V/m) @ t=0.5
-0.6110607453365131
% es.tEx (V/m) @ t=0.5
-2.397520156208312
% es.tEy (V/m) @ t=0.5
0
% es.tEz (V/m) @ t=0.5
-0.6110607453365269
% V (V) @ t=0.5
0.014379126340573974
% es.normE (V/m) @ t=0.52
2.5034836046940274
% es.EX (V/m) @ t=0.52
-2.4190277233592568
% es.EY (V/m) @ t=0.52
0.18635453520400447
% es.EZ (V/m) @ t=0.52
-0.6165423532774725
% es.tEX (V/m) @ t=0.52
-2.4190277233592603
% es.tEY (V/m) @ t=0.52
0
% es.tEZ (V/m) @ t=0.52
-0.6165423532774703
% es.Ex (V/m) @ t=0.52
-2.4190277233592568
% es.Ey (V/m) @ t=0.52
0.18635453520400447
% es.Ez (V/m) @ t=0.52
-0.6165423532774725
% es.tEx (V/m) @ t=0.52
-2.4190277233592603
% es.tEy (V/m) @ t=0.52
0
% es.tEz (V/m) @ t=0.52
-0.6165423532774703
% V (V) @ t=0.52
0.014508113266910129
% es.normE (V/m) @ t=0.54
2.527832447939958
% es.EX (V/m) @ t=0.54
-2.4425551415376994
% es.EY (V/m) @ t=0.54
0.18816698175848934
% es.EZ (V/m) @ t=0.54
-0.6225388769401392
% es.tEX (V/m) @ t=0.54
-2.4425551415376923
% es.tEY (V/m) @ t=0.54
0
% es.tEZ (V/m) @ t=0.54
-0.6225388769401476
% es.Ex (V/m) @ t=0.54
-2.4425551415376994
% es.Ey (V/m) @ t=0.54
0.18816698175848934
% es.Ez (V/m) @ t=0.54
-0.6225388769401392
% es.tEx (V/m) @ t=0.54
-2.4425551415376923
% es.tEy (V/m) @ t=0.54
0
% es.tEz (V/m) @ t=0.54
-0.6225388769401476
% V (V) @ t=0.54
0.014649221970951126
% es.normE (V/m) @ t=0.56
2.55218129118588
% es.EX (V/m) @ t=0.56
-2.466082559716135
% es.EY (V/m) @ t=0.56
0.1899794283129458
% es.EZ (V/m) @ t=0.56
-0.628535400602801
% es.tEX (V/m) @ t=0.56
-2.4660825597161242
% es.tEY (V/m) @ t=0.56
0
% es.tEZ (V/m) @ t=0.56
-0.6285354006027966
% es.Ex (V/m) @ t=0.56
-2.466082559716135
% es.Ey (V/m) @ t=0.56
0.1899794283129458
% es.Ez (V/m) @ t=0.56
-0.628535400602801
% es.tEx (V/m) @ t=0.56
-2.4660825597161242
% es.tEy (V/m) @ t=0.56
0
% es.tEz (V/m) @ t=0.56
-0.6285354006027966
% V (V) @ t=0.56
0.01479033067499212
% es.normE (V/m) @ t=0.58
2.5765301344318514
% es.EX (V/m) @ t=0.58
-2.489609977894615
% es.EY (V/m) @ t=0.58
0.19179187486742888
% es.EZ (V/m) @ t=0.58
-0.634531924265477
% es.tEX (V/m) @ t=0.58
-2.489609977894613
% es.tEY (V/m) @ t=0.58
0
% es.tEZ (V/m) @ t=0.58
-0.6345319242654774
% es.Ex (V/m) @ t=0.58
-2.489609977894615
% es.Ey (V/m) @ t=0.58
0.19179187486742888
% es.Ez (V/m) @ t=0.58
-0.634531924265477
% es.tEx (V/m) @ t=0.58
-2.489609977894613
% es.tEy (V/m) @ t=0.58
0
% es.tEz (V/m) @ t=0.58
-0.6345319242654774
% V (V) @ t=0.58
0.014931439379033112
% es.normE (V/m) @ t=0.6
2.600878977677779
% es.EX (V/m) @ t=0.6
-2.5131373960730485
% es.EY (V/m) @ t=0.6
0.1936043214218941
% es.EZ (V/m) @ t=0.6
-0.6405284479281517
% es.tEX (V/m) @ t=0.6
-2.5131373960730556
% es.tEY (V/m) @ t=0.6
0
% es.tEZ (V/m) @ t=0.6
-0.6405284479281654
% es.Ex (V/m) @ t=0.6
-2.5131373960730485
% es.Ey (V/m) @ t=0.6
0.1936043214218941
% es.Ez (V/m) @ t=0.6
-0.6405284479281517
% es.tEx (V/m) @ t=0.6
-2.5131373960730556
% es.tEy (V/m) @ t=0.6
0
% es.tEz (V/m) @ t=0.6
-0.6405284479281654
% V (V) @ t=0.6
0.015072548083074112
% es.normE (V/m) @ t=0.62
2.625227820923735
% es.EX (V/m) @ t=0.62
-2.5366648142515142
% es.EY (V/m) @ t=0.62
0.19541676797638252
% es.EZ (V/m) @ t=0.62
-0.6465249715908064
% es.tEX (V/m) @ t=0.62
-2.536664814251502
% es.tEY (V/m) @ t=0.62
0
% es.tEZ (V/m) @ t=0.62
-0.6465249715908072
% es.Ex (V/m) @ t=0.62
-2.5366648142515142
% es.Ey (V/m) @ t=0.62
0.19541676797638252
% es.Ez (V/m) @ t=0.62
-0.6465249715908064
% es.tEx (V/m) @ t=0.62
-2.536664814251502
% es.tEy (V/m) @ t=0.62
0
% es.tEz (V/m) @ t=0.62
-0.6465249715908072
% V (V) @ t=0.62
0.015213656787115106
% es.normE (V/m) @ t=0.64
2.649576664169655
% es.EX (V/m) @ t=0.64
-2.5601922324299284
% es.EY (V/m) @ t=0.64
0.19722921453092412
% es.EZ (V/m) @ t=0.64
-0.6525214952534917
% es.tEX (V/m) @ t=0.64
-2.5601922324299338
% es.tEY (V/m) @ t=0.64
0
% es.tEZ (V/m) @ t=0.64
-0.6525214952534952
% es.Ex (V/m) @ t=0.64
-2.5601922324299284
% es.Ey (V/m) @ t=0.64
0.19722921453092412
% es.Ez (V/m) @ t=0.64
-0.6525214952534917
% es.tEx (V/m) @ t=0.64
-2.5601922324299338
% es.tEy (V/m) @ t=0.64
0
% es.tEz (V/m) @ t=0.64
-0.6525214952534952
% V (V) @ t=0.64
0.015354765491156101
% es.normE (V/m) @ t=0.66
2.6739255074155968
% es.EX (V/m) @ t=0.66
-2.5837196506083746
% es.EY (V/m) @ t=0.66
0.199041661085386
% es.EZ (V/m) @ t=0.66
-0.6585180189161619
% es.tEX (V/m) @ t=0.66
-2.5837196506083764
% es.tEY (V/m) @ t=0.66
0
% es.tEZ (V/m) @ t=0.66
-0.6585180189161512
% es.Ex (V/m) @ t=0.66
-2.5837196506083746
% es.Ey (V/m) @ t=0.66
0.199041661085386
% es.Ez (V/m) @ t=0.66
-0.6585180189161619
% es.tEx (V/m) @ t=0.66
-2.5837196506083764
% es.tEy (V/m) @ t=0.66
0
% es.tEz (V/m) @ t=0.66
-0.6585180189161512
% V (V) @ t=0.66
0.0154958741951971
% es.normE (V/m) @ t=0.68
2.6982743506616007
% es.EX (V/m) @ t=0.68
-2.6072470687868847
% es.EY (V/m) @ t=0.68
0.2008541076398388
% es.EZ (V/m) @ t=0.68
-0.6645145425788308
% es.tEX (V/m) @ t=0.68
-2.6072470687868794
% es.tEY (V/m) @ t=0.68
0
% es.tEZ (V/m) @ t=0.68
-0.6645145425788286
% es.Ex (V/m) @ t=0.68
-2.6072470687868847
% es.Ey (V/m) @ t=0.68
0.2008541076398388
% es.Ez (V/m) @ t=0.68
-0.6645145425788308
% es.tEx (V/m) @ t=0.68
-2.6072470687868794
% es.tEy (V/m) @ t=0.68
0
% es.tEz (V/m) @ t=0.68
-0.6645145425788286
% V (V) @ t=0.68
0.01563698289923809
% es.normE (V/m) @ t=0.7
2.722623193907543
% es.EX (V/m) @ t=0.7
-2.6307744869653185
% es.EY (V/m) @ t=0.7
0.20266655419437352
% es.EZ (V/m) @ t=0.7
-0.670511066241517
% es.tEX (V/m) @ t=0.7
-2.6307744869653114
% es.tEY (V/m) @ t=0.7
0
% es.tEZ (V/m) @ t=0.7
-0.6705110662415201
% es.Ex (V/m) @ t=0.7
-2.6307744869653185
% es.Ey (V/m) @ t=0.7
0.20266655419437352
% es.Ez (V/m) @ t=0.7
-0.670511066241517
% es.tEx (V/m) @ t=0.7
-2.6307744869653114
% es.tEy (V/m) @ t=0.7
0
% es.tEz (V/m) @ t=0.7
-0.6705110662415201
% V (V) @ t=0.7
0.015778091603279087
% es.normE (V/m) @ t=0.72
2.746972037153462
% es.EX (V/m) @ t=0.72
-2.6543019051437398
% es.EY (V/m) @ t=0.72
0.20447900074882452
% es.EZ (V/m) @ t=0.72
-0.6765075899041828
% es.tEX (V/m) @ t=0.72
-2.6543019051437433
% es.tEY (V/m) @ t=0.72
0
% es.tEZ (V/m) @ t=0.72
-0.6765075899041832
% es.Ex (V/m) @ t=0.72
-2.6543019051437398
% es.Ey (V/m) @ t=0.72
0.20447900074882452
% es.Ez (V/m) @ t=0.72
-0.6765075899041828
% es.tEx (V/m) @ t=0.72
-2.6543019051437433
% es.tEy (V/m) @ t=0.72
0
% es.tEz (V/m) @ t=0.72
-0.6765075899041832
% V (V) @ t=0.72
0.015919200307320087
% es.normE (V/m) @ t=0.74
2.7713208803994194
% es.EX (V/m) @ t=0.74
-2.6778293233221984
% es.EY (V/m) @ t=0.74
0.20629144730330573
% es.EZ (V/m) @ t=0.74
-0.6825041135668379
% es.tEX (V/m) @ t=0.74
-2.6778293233221895
% es.tEY (V/m) @ t=0.74
0
% es.tEZ (V/m) @ t=0.74
-0.6825041135668464
% es.Ex (V/m) @ t=0.74
-2.6778293233221984
% es.Ey (V/m) @ t=0.74
0.20629144730330573
% es.Ez (V/m) @ t=0.74
-0.6825041135668379
% es.tEx (V/m) @ t=0.74
-2.6778293233221895
% es.tEy (V/m) @ t=0.74
0
% es.tEz (V/m) @ t=0.74
-0.6825041135668464
% V (V) @ t=0.74
0.01606030901136108
% es.normE (V/m) @ t=0.76
2.7956697236453705
% es.EX (V/m) @ t=0.76
-2.7013567415006356
% es.EY (V/m) @ t=0.76
0.20810389385780315
% es.EZ (V/m) @ t=0.76
-0.6885006372295419
% es.tEX (V/m) @ t=0.76
-2.7013567415006428
% es.tEY (V/m) @ t=0.76
0
% es.tEZ (V/m) @ t=0.76
-0.6885006372295379
% es.Ex (V/m) @ t=0.76
-2.7013567415006356
% es.Ey (V/m) @ t=0.76
0.20810389385780315
% es.Ez (V/m) @ t=0.76
-0.6885006372295419
% es.tEx (V/m) @ t=0.76
-2.7013567415006428
% es.tEy (V/m) @ t=0.76
0
% es.tEz (V/m) @ t=0.76
-0.6885006372295379
% V (V) @ t=0.76
0.016201417715402074
% es.normE (V/m) @ t=0.78
2.8205567272137104
% es.EX (V/m) @ t=0.78
-2.725404168183891
% es.EY (V/m) @ t=0.78
0.20995641322806857
% es.EZ (V/m) @ t=0.78
-0.6946296796820213
% es.tEX (V/m) @ t=0.78
-2.725404168183889
% es.tEY (V/m) @ t=0.78
0
% es.tEZ (V/m) @ t=0.78
-0.6946296796820235
% es.Ex (V/m) @ t=0.78
-2.725404168183891
% es.Ey (V/m) @ t=0.78
0.20995641322806857
% es.Ez (V/m) @ t=0.78
-0.6946296796820213
% es.tEx (V/m) @ t=0.78
-2.725404168183889
% es.tEy (V/m) @ t=0.78
0
% es.tEz (V/m) @ t=0.78
-0.6946296796820235
% V (V) @ t=0.78
0.016345644006772735
% es.normE (V/m) @ t=0.8
2.847612874785794
% es.EX (V/m) @ t=0.8
-2.75154757497409
% es.EY (V/m) @ t=0.8
0.2119704526965034
% es.EZ (V/m) @ t=0.8
-0.7012928609894766
% es.tEX (V/m) @ t=0.8
-2.7515475749741007
% es.tEY (V/m) @ t=0.8
0
% es.tEZ (V/m) @ t=0.8
-0.7012928609894686
% es.Ex (V/m) @ t=0.8
-2.75154757497409
% es.Ey (V/m) @ t=0.8
0.2119704526965034
% es.Ez (V/m) @ t=0.8
-0.7012928609894766
% es.tEx (V/m) @ t=0.8
-2.7515475749741007
% es.tEy (V/m) @ t=0.8
0
% es.tEz (V/m) @ t=0.8
-0.7012928609894686
% V (V) @ t=0.8
0.016502436248440076
% es.normE (V/m) @ t=0.82
2.874669022357887
% es.EX (V/m) @ t=0.82
-2.7776909817643
% es.EY (V/m) @ t=0.82
0.21398449216489723
% es.EZ (V/m) @ t=0.82
-0.7079560422969355
% es.tEX (V/m) @ t=0.82
-2.7776909817643016
% es.tEY (V/m) @ t=0.82
0
% es.tEZ (V/m) @ t=0.82
-0.7079560422969351
% es.Ex (V/m) @ t=0.82
-2.7776909817643
% es.Ey (V/m) @ t=0.82
0.21398449216489723
% es.Ez (V/m) @ t=0.82
-0.7079560422969355
% es.tEx (V/m) @ t=0.82
-2.7776909817643016
% es.tEy (V/m) @ t=0.82
0
% es.tEz (V/m) @ t=0.82
-0.7079560422969351
% V (V) @ t=0.82
0.016659228490107415
% es.normE (V/m) @ t=0.84
2.9017251699299638
% es.EX (V/m) @ t=0.84
-2.803834388554497
% es.EY (V/m) @ t=0.84
0.2159985316333214
% es.EZ (V/m) @ t=0.84
-0.714619223604362
% es.tEX (V/m) @ t=0.84
-2.8038343885545025
% es.tEY (V/m) @ t=0.84
0
% es.tEZ (V/m) @ t=0.84
-0.7146192236043518
% es.Ex (V/m) @ t=0.84
-2.803834388554497
% es.Ey (V/m) @ t=0.84
0.2159985316333214
% es.Ez (V/m) @ t=0.84
-0.714619223604362
% es.tEx (V/m) @ t=0.84
-2.8038343885545025
% es.tEy (V/m) @ t=0.84
0
% es.tEz (V/m) @ t=0.84
-0.7146192236043518
% V (V) @ t=0.84
0.016816020731774756
% es.normE (V/m) @ t=0.86
2.9287813175020947
% es.EX (V/m) @ t=0.86
-2.829977795344746
% es.EY (V/m) @ t=0.86
0.21801257110172245
% es.EZ (V/m) @ t=0.86
-0.7212824049118067
% es.tEX (V/m) @ t=0.86
-2.8299777953447567
% es.tEY (V/m) @ t=0.86
0
% es.tEZ (V/m) @ t=0.86
-0.7212824049118183
% es.Ex (V/m) @ t=0.86
-2.829977795344746
% es.Ey (V/m) @ t=0.86
0.21801257110172245
% es.Ez (V/m) @ t=0.86
-0.7212824049118067
% es.tEx (V/m) @ t=0.86
-2.8299777953447567
% es.tEy (V/m) @ t=0.86
0
% es.tEz (V/m) @ t=0.86
-0.7212824049118183
% V (V) @ t=0.86
0.016972812973442095
% es.normE (V/m) @ t=0.88
2.9558374650742127
% es.EX (V/m) @ t=0.88
-2.856121202134977
% es.EY (V/m) @ t=0.88
0.22002661057013928
% es.EZ (V/m) @ t=0.88
-0.7279455862192594
% es.tEX (V/m) @ t=0.88
-2.8561212021349753
% es.tEY (V/m) @ t=0.88
0
% es.tEZ (V/m) @ t=0.88
-0.727945586219267
% es.Ex (V/m) @ t=0.88
-2.856121202134977
% es.Ey (V/m) @ t=0.88
0.22002661057013928
% es.Ez (V/m) @ t=0.88
-0.7279455862192594
% es.tEx (V/m) @ t=0.88
-2.8561212021349753
% es.tEy (V/m) @ t=0.88
0
% es.tEz (V/m) @ t=0.88
-0.727945586219267
% V (V) @ t=0.88
0.017129605215109436
% es.normE (V/m) @ t=0.9
2.9828936126463264
% es.EX (V/m) @ t=0.9
-2.8822646089252046
% es.EY (V/m) @ t=0.9
0.222040650038551
% es.EZ (V/m) @ t=0.9
-0.7346087675267037
% es.tEX (V/m) @ t=0.9
-2.882264608925187
% es.tEY (V/m) @ t=0.9
0
% es.tEZ (V/m) @ t=0.9
-0.734608767526705
% es.Ex (V/m) @ t=0.9
-2.8822646089252046
% es.Ey (V/m) @ t=0.9
0.222040650038551
% es.Ez (V/m) @ t=0.9
-0.7346087675267037
% es.tEx (V/m) @ t=0.9
-2.882264608925187
% es.tEy (V/m) @ t=0.9
0
% es.tEz (V/m) @ t=0.9
-0.734608767526705
% V (V) @ t=0.9
0.017286397456776775
% es.normE (V/m) @ t=0.92
3.0099497602184417
% es.EX (V/m) @ t=0.92
-2.9084080157154286
% es.EY (V/m) @ t=0.92
0.22405468950698582
% es.EZ (V/m) @ t=0.92
-0.741271948834159
% es.tEX (V/m) @ t=0.92
-2.908408015715427
% es.tEY (V/m) @ t=0.92
0
% es.tEZ (V/m) @ t=0.92
-0.7412719488341573
% es.Ex (V/m) @ t=0.92
-2.9084080157154286
% es.Ey (V/m) @ t=0.92
0.22405468950698582
% es.Ez (V/m) @ t=0.92
-0.741271948834159
% es.tEx (V/m) @ t=0.92
-2.908408015715427
% es.tEy (V/m) @ t=0.92
0
% es.tEz (V/m) @ t=0.92
-0.7412719488341573
% V (V) @ t=0.92
0.017443189698444116
% es.normE (V/m) @ t=0.94
3.0370059077905323
% es.EX (V/m) @ t=0.94
-2.934551422505633
% es.EY (V/m) @ t=0.94
0.22606872897541885
% es.EZ (V/m) @ t=0.94
-0.7479351301415806
% es.tEX (V/m) @ t=0.94
-2.9345514225056455
% es.tEY (V/m) @ t=0.94
0
% es.tEZ (V/m) @ t=0.94
-0.7479351301415882
% es.Ex (V/m) @ t=0.94
-2.934551422505633
% es.Ey (V/m) @ t=0.94
0.22606872897541885
% es.Ez (V/m) @ t=0.94
-0.7479351301415806
% es.tEx (V/m) @ t=0.94
-2.9345514225056455
% es.tEy (V/m) @ t=0.94
0
% es.tEz (V/m) @ t=0.94
-0.7479351301415882
% V (V) @ t=0.94
0.017599981940111455
% es.normE (V/m) @ t=0.96
3.0640620553626468
% es.EX (V/m) @ t=0.96
-2.96069482929585
% es.EY (V/m) @ t=0.96
0.2280827684438126
% es.EZ (V/m) @ t=0.96
-0.7545983114490613
% es.tEX (V/m) @ t=0.96
-2.960694829295857
% es.tEY (V/m) @ t=0.96
0
% es.tEZ (V/m) @ t=0.96
-0.7545983114490689
% es.Ex (V/m) @ t=0.96
-2.96069482929585
% es.Ey (V/m) @ t=0.96
0.2280827684438126
% es.Ez (V/m) @ t=0.96
-0.7545983114490613
% es.tEx (V/m) @ t=0.96
-2.960694829295857
% es.tEy (V/m) @ t=0.96
0
% es.tEz (V/m) @ t=0.96
-0.7545983114490689
% V (V) @ t=0.96
0.017756774181778796
% es.normE (V/m) @ t=0.98
3.0911182029347484
% es.EX (V/m) @ t=0.98
-2.9868382360860632
% es.EY (V/m) @ t=0.98
0.23009680791221543
% es.EZ (V/m) @ t=0.98
-0.7612614927564971
% es.tEX (V/m) @ t=0.98
-2.9868382360860615
% es.tEY (V/m) @ t=0.98
0
% es.tEZ (V/m) @ t=0.98
-0.7612614927564891
% es.Ex (V/m) @ t=0.98
-2.9868382360860632
% es.Ey (V/m) @ t=0.98
0.23009680791221543
% es.Ez (V/m) @ t=0.98
-0.7612614927564971
% es.tEx (V/m) @ t=0.98
-2.9868382360860615
% es.tEy (V/m) @ t=0.98
0
% es.tEz (V/m) @ t=0.98
-0.7612614927564891
% V (V) @ t=0.98
0.017913566423446138
% es.normE (V/m) @ t=1
3.118174350506847
% es.EX (V/m) @ t=1
-3.0129816428762624
% es.EY (V/m) @ t=1
0.23211084738068755
% es.EZ (V/m) @ t=1
-0.7679246740639485
% es.tEX (V/m) @ t=1
-3.012981642876273
% es.tEY (V/m) @ t=1
0
% es.tEZ (V/m) @ t=1
-0.7679246740639414
% es.Ex (V/m) @ t=1
-3.0129816428762624
% es.Ey (V/m) @ t=1
0.23211084738068755
% es.Ez (V/m) @ t=1
-0.7679246740639485
% es.tEx (V/m) @ t=1
-3.012981642876273
% es.tEy (V/m) @ t=1
0
% es.tEz (V/m) @ t=1
-0.7679246740639414
% V (V) @ t=1
0.018070358665113476
% es.normE (V/m) @ t=1.02
3.145230498079023
% es.EX (V/m) @ t=1.02
-3.0391250496665503
% es.EY (V/m) @ t=1.02
0.23412488684906185
% es.EZ (V/m) @ t=1.02
-0.7745878553713936
% es.tEX (V/m) @ t=1.02
-3.0391250496665556
% es.tEY (V/m) @ t=1.02
0
% es.tEZ (V/m) @ t=1.02
-0.7745878553713936
% es.Ex (V/m) @ t=1.02
-3.0391250496665503
% es.Ey (V/m) @ t=1.02
0.23412488684906185
% es.Ez (V/m) @ t=1.02
-0.7745878553713936
% es.tEx (V/m) @ t=1.02
-3.0391250496665556
% es.tEy (V/m) @ t=1.02
0
% es.tEz (V/m) @ t=1.02
-0.7745878553713936
% V (V) @ t=1.02
0.018227150906780818
% es.normE (V/m) @ t=1.04
3.172628790449533