% Model:              1 neuron.mph
% Version:            COMSOL 6.1.0.252
% Date:               Mar 22 2023, 18:24
% Dimension:          0
% Nodes:              14017
% Expressions:        14017
% Description:        Electric field norm, Electric field, X component, Electric field, Y component, Electric field, Z component, Tangential electric field, X component, Tangential electric field, Y component, Tangential electric field, Z component, Electric field, x component, Electric field, y component, Electric field, z component, Tangential electric field, x component, Tangential electric field, y component, Tangential electric field, z component, Electric potential
% Length unit:        mm
% x
1.0000000000000002
% y
12.2
% z
2
% es.normE (V/m) @ t=0
1.2746505588509511
% es.EX (V/m) @ t=0
0.8853809800095329
% es.EY (V/m) @ t=0
0.13257599018612864
% es.EZ (V/m) @ t=0
-0.8840916686954983
% es.tEX (V/m) @ t=0
0.885380980009534
% es.tEY (V/m) @ t=0
0
% es.tEZ (V/m) @ t=0
-0.8840916686954836
% es.Ex (V/m) @ t=0
0.8853809800095329
% es.Ey (V/m) @ t=0
0.13257599018612864
% es.Ez (V/m) @ t=0
-0.8840916686954983
% es.tEx (V/m) @ t=0
0.885380980009534
% es.tEy (V/m) @ t=0
0
% es.tEz (V/m) @ t=0
-0.8840916686954836
% V (V) @ t=0
0.013649835229483931
% es.normE (V/m) @ t=0.02
1.100930820938383
% es.EX (V/m) @ t=0.02
0.7647140638026151
% es.EY (V/m) @ t=0.02
0.11450746410732726
% es.EZ (V/m) @ t=0.02
-0.7636004683000452
% es.tEX (V/m) @ t=0.02
0.7647140638026193
% es.tEY (V/m) @ t=0.02
0
% es.tEZ (V/m) @ t=0.02
-0.7636004683000346
% es.Ex (V/m) @ t=0.02
0.7647140638026151
% es.Ey (V/m) @ t=0.02
0.11450746410732726
% es.Ez (V/m) @ t=0.02
-0.7636004683000452
% es.tEx (V/m) @ t=0.02
0.7647140638026193
% es.tEy (V/m) @ t=0.02
0
% es.tEz (V/m) @ t=0.02
-0.7636004683000346
% V (V) @ t=0.02
0.011789524507260554
% es.normE (V/m) @ t=0.04
1.1110608523071352
% es.EX (V/m) @ t=0.04
0.7717504527981343
% es.EY (V/m) @ t=0.04
0.11556108367077184
% es.EZ (V/m) @ t=0.04
-0.7706266112546358
% es.tEX (V/m) @ t=0.04
0.7717504527981367
% es.tEY (V/m) @ t=0.04
0
% es.tEZ (V/m) @ t=0.04
-0.7706266112546247
% es.Ex (V/m) @ t=0.04
0.7717504527981343
% es.Ey (V/m) @ t=0.04
0.11556108367077184
% es.Ez (V/m) @ t=0.04
-0.7706266112546358
% es.tEx (V/m) @ t=0.04
0.7717504527981367
% es.tEy (V/m) @ t=0.04
0
% es.tEz (V/m) @ t=0.04
-0.7706266112546247
% V (V) @ t=0.04
0.01189800390815734
% es.normE (V/m) @ t=0.06
1.1212645532538907
% es.EX (V/m) @ t=0.06
0.7788380133238
% es.EY (V/m) @ t=0.06
0.11662236206833765
% es.EZ (V/m) @ t=0.06
-0.7777038521904966
% es.tEX (V/m) @ t=0.06
0.7788380133238051
% es.tEY (V/m) @ t=0.06
0
% es.tEZ (V/m) @ t=0.06
-0.7777038521904789
% es.Ex (V/m) @ t=0.06
0.7788380133238
% es.Ey (V/m) @ t=0.06
0.11662236206833765
% es.Ez (V/m) @ t=0.06
-0.7777038521904966
% es.tEx (V/m) @ t=0.06
0.7788380133238051
% es.tEy (V/m) @ t=0.06
0
% es.tEz (V/m) @ t=0.06
-0.7777038521904789
% V (V) @ t=0.06
0.01200727231736222
% es.normE (V/m) @ t=0.08
1.131664216626784
% es.EX (V/m) @ t=0.08
0.7860616904010171
% es.EY (V/m) @ t=0.08
0.11770403039205629
% es.EZ (V/m) @ t=0.08
-0.7849170092237512
% es.tEX (V/m) @ t=0.08
0.7860616904010231
% es.tEY (V/m) @ t=0.08
0
% es.tEZ (V/m) @ t=0.08
-0.7849170092237401
% es.Ex (V/m) @ t=0.08
0.7860616904010171
% es.Ey (V/m) @ t=0.08
0.11770403039205629
% es.Ez (V/m) @ t=0.08
-0.7849170092237512
% es.tEx (V/m) @ t=0.08
0.7860616904010231
% es.tEy (V/m) @ t=0.08
0
% es.tEz (V/m) @ t=0.08
-0.7849170092237401
% V (V) @ t=0.08
0.01211863898545258
% es.normE (V/m) @ t=0.1
1.142116340052999
% es.EX (V/m) @ t=0.1
0.7933218065124457
% es.EY (V/m) @ t=0.1
0.11879115719387107
% es.EZ (V/m) @ t=0.1
-0.7921665516287288
% es.tEX (V/m) @ t=0.1
0.7933218065124445
% es.tEY (V/m) @ t=0.1
0
% es.tEZ (V/m) @ t=0.1
-0.7921665516287142
% es.Ex (V/m) @ t=0.1
0.7933218065124457
% es.Ey (V/m) @ t=0.1
0.11879115719387107
% es.Ez (V/m) @ t=0.1
-0.7921665516287288
% es.tEx (V/m) @ t=0.1
0.7933218065124445
% es.tEy (V/m) @ t=0.1
0
% es.tEz (V/m) @ t=0.1
-0.7921665516287142
% V (V) @ t=0.1
0.012230567367209986
% es.normE (V/m) @ t=0.12
1.1525684634792297
% es.EX (V/m) @ t=0.12
0.8005819226238742
% es.EY (V/m) @ t=0.12
0.11987828399567996
% es.EZ (V/m) @ t=0.12
-0.7994160940337331
% es.tEX (V/m) @ t=0.12
0.8005819226238757
% es.tEY (V/m) @ t=0.12
0
% es.tEZ (V/m) @ t=0.12
-0.7994160940337149
% es.Ex (V/m) @ t=0.12
0.8005819226238742
% es.Ey (V/m) @ t=0.12
0.11987828399567996
% es.Ez (V/m) @ t=0.12
-0.7994160940337331
% es.tEx (V/m) @ t=0.12
0.8005819226238757
% es.tEy (V/m) @ t=0.12
0
% es.tEz (V/m) @ t=0.12
-0.7994160940337149
% V (V) @ t=0.12
0.012342495748967392
% es.normE (V/m) @ t=0.14
1.1633264975230047
% es.EX (V/m) @ t=0.14
0.8080545269721615
% es.EY (V/m) @ t=0.14
0.12099721082176568
% es.EZ (V/m) @ t=0.14
-0.8068778202298801
% es.tEX (V/m) @ t=0.14
0.8080545269721648
% es.tEY (V/m) @ t=0.14
0
% es.tEZ (V/m) @ t=0.14
-0.8068778202298654
% es.Ex (V/m) @ t=0.14
0.8080545269721615
% es.Ey (V/m) @ t=0.14
0.12099721082176568
% es.Ez (V/m) @ t=0.14
-0.8068778202298801
% es.tEx (V/m) @ t=0.14
0.8080545269721648
% es.tEy (V/m) @ t=0.14
0
% es.tEz (V/m) @ t=0.14
-0.8068778202298654
% V (V) @ t=0.14
0.012457700567665849
% es.normE (V/m) @ t=0.16
1.1743025175280075
% es.EX (V/m) @ t=0.16
0.8156785463086642
% es.EY (V/m) @ t=0.16
0.12213879772712266
% es.EZ (V/m) @ t=0.16
-0.8144907444722276
% es.tEX (V/m) @ t=0.16
0.81567854630867
% es.tEY (V/m) @ t=0.16
0
% es.tEZ (V/m) @ t=0.16
-0.8144907444722165
% es.Ex (V/m) @ t=0.16
0.8156785463086642
% es.Ey (V/m) @ t=0.16
0.12213879772712266
% es.Ez (V/m) @ t=0.16
-0.8144907444722276
% es.tEx (V/m) @ t=0.16
0.81567854630867
% es.tEy (V/m) @ t=0.16
0
% es.tEz (V/m) @ t=0.16
-0.8144907444722165
% V (V) @ t=0.16
0.01257524011165613
% es.normE (V/m) @ t=0.18
1.1852785375330035
% es.EX (V/m) @ t=0.18
0.8233025656451689
% es.EY (V/m) @ t=0.18
0.1232803846325008
% es.EZ (V/m) @ t=0.18
-0.8221036687145582
% es.tEX (V/m) @ t=0.18
0.8233025656451671
% es.tEY (V/m) @ t=0.18
0
% es.tEZ (V/m) @ t=0.18
-0.8221036687145471
% es.Ex (V/m) @ t=0.18
0.8233025656451689
% es.Ey (V/m) @ t=0.18
0.1232803846325008
% es.Ez (V/m) @ t=0.18
-0.8221036687145582
% es.tEx (V/m) @ t=0.18
0.8233025656451671
% es.tEy (V/m) @ t=0.18
0
% es.tEz (V/m) @ t=0.18
-0.8221036687145471
% V (V) @ t=0.18
0.012692779655646417
% es.normE (V/m) @ t=0.2
1.1962545575379924
% es.EX (V/m) @ t=0.2
0.8309265849816636
% es.EY (V/m) @ t=0.2
0.12442197153786422
% es.EZ (V/m) @ t=0.2
-0.8297165929568875
% es.tEX (V/m) @ t=0.2
0.8309265849816687
% es.tEY (V/m) @ t=0.2
0
% es.tEZ (V/m) @ t=0.2
-0.8297165929568768
% es.Ex (V/m) @ t=0.2
0.8309265849816636
% es.Ey (V/m) @ t=0.2
0.12442197153786422
% es.Ez (V/m) @ t=0.2
-0.8297165929568875
% es.tEx (V/m) @ t=0.2
0.8309265849816687
% es.tEy (V/m) @ t=0.2
0
% es.tEz (V/m) @ t=0.2
-0.8297165929568768
% V (V) @ t=0.2
0.0128103191996367
% es.normE (V/m) @ t=0.22
1.207230577542985
% es.EX (V/m) @ t=0.22
0.838550604318171
% es.EY (V/m) @ t=0.22
0.1255635584432454
% es.EZ (V/m) @ t=0.22
-0.8373295171992106
% es.tEX (V/m) @ t=0.22
0.8385506043181707
% es.tEY (V/m) @ t=0.22
0
% es.tEZ (V/m) @ t=0.22
-0.8373295171991924
% es.Ex (V/m) @ t=0.22
0.838550604318171
% es.Ey (V/m) @ t=0.22
0.1255635584432454
% es.Ez (V/m) @ t=0.22
-0.8373295171992106
% es.tEx (V/m) @ t=0.22
0.8385506043181707
% es.tEy (V/m) @ t=0.22
0
% es.tEz (V/m) @ t=0.22
-0.8373295171991924
% V (V) @ t=0.22
0.012927858743626983
% es.normE (V/m) @ t=0.24
1.2182065975479803
% es.EX (V/m) @ t=0.24
0.8461746236546748
% es.EY (V/m) @ t=0.24
0.12670514534862015
% es.EZ (V/m) @ t=0.24
-0.8449424414415367
% es.tEX (V/m) @ t=0.24
0.8461746236546763
% es.tEY (V/m) @ t=0.24
0
% es.tEZ (V/m) @ t=0.24
-0.8449424414415292
% es.Ex (V/m) @ t=0.24
0.8461746236546748
% es.Ey (V/m) @ t=0.24
0.12670514534862015
% es.Ez (V/m) @ t=0.24
-0.8449424414415367
% es.tEx (V/m) @ t=0.24
0.8461746236546763
% es.tEy (V/m) @ t=0.24
0
% es.tEz (V/m) @ t=0.24
-0.8449424414415292
% V (V) @ t=0.24
0.013045398287617267
% es.normE (V/m) @ t=0.26
1.2293863294841354
% es.EX (V/m) @ t=0.26
0.8539401443614525
% es.EY (V/m) @ t=0.26
0.12786787989741438
% es.EZ (V/m) @ t=0.26
-0.8526966719201048
% es.tEX (V/m) @ t=0.26
0.8539401443614523
% es.tEY (V/m) @ t=0.26
0
% es.tEZ (V/m) @ t=0.26
-0.8526966719200866
% es.Ex (V/m) @ t=0.26
0.8539401443614525
% es.Ey (V/m) @ t=0.26
0.12786787989741438
% es.Ez (V/m) @ t=0.26
-0.8526966719201048
% es.tEx (V/m) @ t=0.26
0.8539401443614523
% es.tEy (V/m) @ t=0.26
0
% es.tEz (V/m) @ t=0.26
-0.8526966719200866
% V (V) @ t=0.26
0.013165120591987095
% es.normE (V/m) @ t=0.28
1.2415325168079188
% es.EX (V/m) @ t=0.28
0.8623769795115617
% es.EY (V/m) @ t=0.28
0.12913094364054362
% es.EZ (V/m) @ t=0.28
-0.8611212910819703
% es.tEX (V/m) @ t=0.28
0.8623769795115672
% es.tEY (V/m) @ t=0.28
0
% es.tEZ (V/m) @ t=0.28
-0.8611212910819592
% es.Ex (V/m) @ t=0.28
0.8623769795115617
% es.Ey (V/m) @ t=0.28
0.12913094364054362
% es.Ez (V/m) @ t=0.28
-0.8611212910819703
% es.tEx (V/m) @ t=0.28
0.8623769795115672
% es.tEy (V/m) @ t=0.28
0
% es.tEz (V/m) @ t=0.28
-0.8611212910819592
% V (V) @ t=0.28
0.013295198404337969
% es.normE (V/m) @ t=0.3
1.2536787041318282
% es.EX (V/m) @ t=0.3
0.870813814661674
% es.EY (V/m) @ t=0.3
0.13039400738366264
% es.EZ (V/m) @ t=0.3
-0.869545910243875
% es.tEX (V/m) @ t=0.3
0.8708138146616768
% es.tEY (V/m) @ t=0.3
0
% es.tEZ (V/m) @ t=0.3
-0.8695459102438603
% es.Ex (V/m) @ t=0.3
0.870813814661674
% es.Ey (V/m) @ t=0.3
0.13039400738366264
% es.Ez (V/m) @ t=0.3
-0.869545910243875
% es.tEx (V/m) @ t=0.3
0.8708138146616768
% es.tEy (V/m) @ t=0.3
0
% es.tEz (V/m) @ t=0.3
-0.8695459102438603
% V (V) @ t=0.3
0.01342527621668884
% es.normE (V/m) @ t=0.32
1.2658248914558263
% es.EX (V/m) @ t=0.32
0.8792506498117907
% es.EY (V/m) @ t=0.32
0.13165707112679187
% es.EZ (V/m) @ t=0.32
-0.877970529405776
% es.tEX (V/m) @ t=0.32
0.8792506498117936
% es.tEY (V/m) @ t=0.32
0
% es.tEZ (V/m) @ t=0.32
-0.8779705294057614
% es.Ex (V/m) @ t=0.32
0.8792506498117907
% es.Ey (V/m) @ t=0.32
0.13165707112679187
% es.Ez (V/m) @ t=0.32
-0.877970529405776
% es.tEx (V/m) @ t=0.32
0.8792506498117936
% es.tEy (V/m) @ t=0.32
0
% es.tEz (V/m) @ t=0.32
-0.8779705294057614
% V (V) @ t=0.32
0.013555354029039715
% es.normE (V/m) @ t=0.34
1.2779710787799061
% es.EX (V/m) @ t=0.34
0.8876874849619101
% es.EY (V/m) @ t=0.34
0.13292013486992021
% es.EZ (V/m) @ t=0.34
-0.8863951485676629
% es.tEX (V/m) @ t=0.34
0.8876874849619152
% es.tEY (V/m) @ t=0.34
0
% es.tEZ (V/m) @ t=0.34
-0.8863951485676553
% es.Ex (V/m) @ t=0.34
0.8876874849619101
% es.Ey (V/m) @ t=0.34
0.13292013486992021
% es.Ez (V/m) @ t=0.34
-0.8863951485676629
% es.tEx (V/m) @ t=0.34
0.8876874849619152
% es.tEy (V/m) @ t=0.34
0
% es.tEz (V/m) @ t=0.34
-0.8863951485676553
% V (V) @ t=0.34
0.013685431841390592
% es.normE (V/m) @ t=0.36
1.290117266104065
% es.EX (V/m) @ t=0.36
0.8961243201120139
% es.EY (V/m) @ t=0.36
0.1341831986130626
% es.EZ (V/m) @ t=0.36
-0.8948197677295537
% es.tEX (V/m) @ t=0.36
0.8961243201120181
% es.tEY (V/m) @ t=0.36
0
% es.tEZ (V/m) @ t=0.36
-0.894819767729536
% es.Ex (V/m) @ t=0.36
0.8961243201120139
% es.Ey (V/m) @ t=0.36
0.1341831986130626
% es.Ez (V/m) @ t=0.36
-0.8948197677295537
% es.tEx (V/m) @ t=0.36
0.8961243201120181
% es.tEy (V/m) @ t=0.36
0
% es.tEz (V/m) @ t=0.36
-0.894819767729536
% V (V) @ t=0.36
0.013815509653741467
% es.normE (V/m) @ t=0.38
1.3022634534283248
% es.EX (V/m) @ t=0.38
0.9045611552621342
% es.EY (V/m) @ t=0.38
0.13544626235617924
% es.EZ (V/m) @ t=0.38
-0.9032443868914481
% es.tEX (V/m) @ t=0.38
0.9045611552621349
% es.tEY (V/m) @ t=0.38
0
% es.tEZ (V/m) @ t=0.38
-0.9032443868914299
% es.Ex (V/m) @ t=0.38
0.9045611552621342
% es.Ey (V/m) @ t=0.38
0.13544626235617924
% es.Ez (V/m) @ t=0.38
-0.9032443868914481
% es.tEx (V/m) @ t=0.38
0.9045611552621349
% es.tEy (V/m) @ t=0.38
0
% es.tEz (V/m) @ t=0.38
-0.9032443868914299
% V (V) @ t=0.38
0.013945587466092342
% es.normE (V/m) @ t=0.4
1.3144096407526518
% es.EX (V/m) @ t=0.4
0.9129979904122456
% es.EY (V/m) @ t=0.4
0.13670932609931274
% es.EZ (V/m) @ t=0.4
-0.9116690060533359
% es.tEX (V/m) @ t=0.4
0.9129979904122485
% es.tEY (V/m) @ t=0.4
0
% es.tEZ (V/m) @ t=0.4
-0.9116690060533177
% es.Ex (V/m) @ t=0.4
0.9129979904122456
% es.Ey (V/m) @ t=0.4
0.13670932609931274
% es.Ez (V/m) @ t=0.4
-0.9116690060533359
% es.tEx (V/m) @ t=0.4
0.9129979904122485
% es.tEy (V/m) @ t=0.4
0
% es.tEz (V/m) @ t=0.4
-0.9116690060533177
% V (V) @ t=0.4
0.014075665278443216
% es.normE (V/m) @ t=0.42
1.3265558280770704
% es.EX (V/m) @ t=0.42
0.9214348255623677
% es.EY (V/m) @ t=0.42
0.13797238984243643
% es.EZ (V/m) @ t=0.42
-0.9200936252152299
% es.tEX (V/m) @ t=0.42
0.9214348255623723
% es.tEY (V/m) @ t=0.42
0
% es.tEZ (V/m) @ t=0.42
-0.9200936252152117
% es.Ex (V/m) @ t=0.42
0.9214348255623677
% es.Ey (V/m) @ t=0.42
0.13797238984243643
% es.Ez (V/m) @ t=0.42
-0.9200936252152299
% es.tEx (V/m) @ t=0.42
0.9214348255623723
% es.tEy (V/m) @ t=0.42
0
% es.tEz (V/m) @ t=0.42
-0.9200936252152117
% V (V) @ t=0.42
0.014205743090794094
% es.normE (V/m) @ t=0.44
1.338702015401557
% es.EX (V/m) @ t=0.44
0.9298716607124773
% es.EY (V/m) @ t=0.44
0.1392354535855559
% es.EZ (V/m) @ t=0.44
-0.9285182443771274
% es.tEX (V/m) @ t=0.44
0.9298716607124828
% es.tEY (V/m) @ t=0.44
0
% es.tEZ (V/m) @ t=0.44
-0.9285182443771127
% es.Ex (V/m) @ t=0.44
0.9298716607124773
% es.Ey (V/m) @ t=0.44
0.1392354535855559
% es.Ez (V/m) @ t=0.44
-0.9285182443771274
% es.tEx (V/m) @ t=0.44
0.9298716607124828
% es.tEy (V/m) @ t=0.44
0
% es.tEz (V/m) @ t=0.44
-0.9285182443771127
% V (V) @ t=0.44
0.014335820903144964
% es.normE (V/m) @ t=0.46
1.3508482027261195
% es.EX (V/m) @ t=0.46
0.9383084958625922
% es.EY (V/m) @ t=0.46
0.1404985173286954
% es.EZ (V/m) @ t=0.46
-0.9369428635390178
% es.tEX (V/m) @ t=0.46
0.938308495862596
% es.tEY (V/m) @ t=0.46
0
% es.tEZ (V/m) @ t=0.46
-0.9369428635390067
% es.Ex (V/m) @ t=0.46
0.9383084958625922
% es.Ey (V/m) @ t=0.46
0.1404985173286954
% es.Ez (V/m) @ t=0.46
-0.9369428635390178
% es.tEx (V/m) @ t=0.46
0.938308495862596
% es.tEy (V/m) @ t=0.46
0
% es.tEz (V/m) @ t=0.46
-0.9369428635390067
% V (V) @ t=0.46
0.014465898715495843
% es.normE (V/m) @ t=0.48
1.3629943900507593
% es.EX (V/m) @ t=0.48
0.9467453310127054
% es.EY (V/m) @ t=0.48
0.1417615810718058
% es.EZ (V/m) @ t=0.48
-0.9453674827009126
% es.tEX (V/m) @ t=0.48
0.9467453310127096
% es.tEY (V/m) @ t=0.48
0
% es.tEZ (V/m) @ t=0.48
-0.9453674827008944
% es.Ex (V/m) @ t=0.48
0.9467453310127054
% es.Ey (V/m) @ t=0.48
0.1417615810718058
% es.Ez (V/m) @ t=0.48
-0.9453674827009126
% es.tEx (V/m) @ t=0.48
0.9467453310127096
% es.tEy (V/m) @ t=0.48
0
% es.tEz (V/m) @ t=0.48
-0.9453674827008944
% V (V) @ t=0.48
0.014595976527846714
% es.normE (V/m) @ t=0.5
1.3751405773754644
% es.EX (V/m) @ t=0.5
0.9551821661628226
% es.EY (V/m) @ t=0.5
0.14302464481493343
% es.EZ (V/m) @ t=0.5
-0.9537921018628057
% es.tEX (V/m) @ t=0.5
0.9551821661628268
% es.tEY (V/m) @ t=0.5
0
% es.tEZ (V/m) @ t=0.5
-0.9537921018627875
% es.Ex (V/m) @ t=0.5
0.9551821661628226
% es.Ey (V/m) @ t=0.5
0.14302464481493343
% es.Ez (V/m) @ t=0.5
-0.9537921018628057
% es.tEx (V/m) @ t=0.5
0.9551821661628268
% es.tEy (V/m) @ t=0.5
0
% es.tEz (V/m) @ t=0.5
-0.9537921018627875
% V (V) @ t=0.5
0.01472605434019759
% es.normE (V/m) @ t=0.52
1.3877522793015689
% es.EX (V/m) @ t=0.52
0.9639423214747869
% es.EY (V/m) @ t=0.52
0.14433691977540003
% es.EZ (V/m) @ t=0.52
-0.9625393483312039
% es.tEX (V/m) @ t=0.52
0.9639423214747911
% es.tEY (V/m) @ t=0.52
0
% es.tEZ (V/m) @ t=0.52
-0.9625393483311857
% es.Ex (V/m) @ t=0.52
0.9639423214747869
% es.Ey (V/m) @ t=0.52
0.14433691977540003
% es.Ez (V/m) @ t=0.52
-0.9625393483312039
% es.tEx (V/m) @ t=0.52
0.9639423214747911
% es.tEy (V/m) @ t=0.52
0
% es.tEz (V/m) @ t=0.52
-0.9625393483311857
% V (V) @ t=0.52
0.01486109294069991
% es.normE (V/m) @ t=0.54
1.4012118644917457
% es.EX (V/m) @ t=0.54
0.9732913686329334
% es.EY (V/m) @ t=0.54
0.14573882751492584
% es.EZ (V/m) @ t=0.54
-0.9718742246865877
% es.tEX (V/m) @ t=0.54
0.9732913686329381
% es.tEY (V/m) @ t=0.54
0
% es.tEZ (V/m) @ t=0.54
-0.9718742246865695
% es.Ex (V/m) @ t=0.54
0.9732913686329334
% es.Ey (V/m) @ t=0.54
0.14573882751492584
% es.Ez (V/m) @ t=0.54
-0.9718742246865877
% es.tEx (V/m) @ t=0.54
0.9732913686329381
% es.tEy (V/m) @ t=0.54
0
% es.tEz (V/m) @ t=0.54
-0.9718742246865695
% V (V) @ t=0.54
0.015005167067091787
% es.normE (V/m) @ t=0.56
1.414671449687066
% es.EX (V/m) @ t=0.56
0.9826404157910813
% es.EY (V/m) @ t=0.56
0.14714073525444205
% es.EZ (V/m) @ t=0.56
-0.9812091010419421
% es.tEX (V/m) @ t=0.56
0.9826404157910855
% es.tEY (V/m) @ t=0.56
0
% es.tEZ (V/m) @ t=0.56
-0.9812091010419239
% es.Ex (V/m) @ t=0.56
0.9826404157910813
% es.Ey (V/m) @ t=0.56
0.14714073525444205
% es.Ez (V/m) @ t=0.56
-0.9812091010419421
% es.tEx (V/m) @ t=0.56
0.9826404157910855
% es.tEy (V/m) @ t=0.56
0
% es.tEz (V/m) @ t=0.56
-0.9812091010419239
% V (V) @ t=0.56
0.01514924119348367
% es.normE (V/m) @ t=0.58
1.42813103488742
% es.EX (V/m) @ t=0.58
0.9919894629492274
% es.EY (V/m) @ t=0.58
0.14854264299396058
% es.EZ (V/m) @ t=0.58
-0.9905439773973268
% es.tEX (V/m) @ t=0.58
0.9919894629492312
% es.tEY (V/m) @ t=0.58
0
% es.tEZ (V/m) @ t=0.58
-0.9905439773973086
% es.Ex (V/m) @ t=0.58
0.9919894629492274
% es.Ey (V/m) @ t=0.58
0.14854264299396058
% es.Ez (V/m) @ t=0.58
-0.9905439773973268
% es.tEx (V/m) @ t=0.58
0.9919894629492312
% es.tEy (V/m) @ t=0.58
0
% es.tEz (V/m) @ t=0.58
-0.9905439773973086
% V (V) @ t=0.58
0.015293315319875551
% es.normE (V/m) @ t=0.6
1.4415906200926132
% es.EX (V/m) @ t=0.6
1.001338510107374
% es.EY (V/m) @ t=0.6
0.1499445507334805
% es.EZ (V/m) @ t=0.6
-0.9998788537526591
% es.tEX (V/m) @ t=0.6
1.001338510107383
% es.tEY (V/m) @ t=0.6
0
% es.tEZ (V/m) @ t=0.6
-0.9998788537526409
% es.Ex (V/m) @ t=0.6
1.001338510107374
% es.Ey (V/m) @ t=0.6
0.1499445507334805
% es.Ez (V/m) @ t=0.6
-0.9998788537526591
% es.tEx (V/m) @ t=0.6
1.001338510107383
% es.tEy (V/m) @ t=0.6
0
% es.tEz (V/m) @ t=0.6
-0.9998788537526409
% V (V) @ t=0.6
0.015437389446267432
% es.normE (V/m) @ t=0.62
1.455050205302585
% es.EX (V/m) @ t=0.62
1.0106875572655156
% es.EY (V/m) @ t=0.62
0.15134645847301526
% es.EZ (V/m) @ t=0.62
-1.0092137301080508
% es.tEX (V/m) @ t=0.62
1.010687557265514
% es.tEY (V/m) @ t=0.62
0
% es.tEZ (V/m) @ t=0.62
-1.0092137301080326
% es.Ex (V/m) @ t=0.62
1.0106875572655156
% es.Ey (V/m) @ t=0.62
0.15134645847301526
% es.Ez (V/m) @ t=0.62
-1.0092137301080508
% es.tEx (V/m) @ t=0.62
1.010687557265514
% es.tEy (V/m) @ t=0.62
0
% es.tEz (V/m) @ t=0.62
-1.0092137301080326
% V (V) @ t=0.62
0.015581463572659316
% es.normE (V/m) @ t=0.64
1.468509790517162
% es.EX (V/m) @ t=0.64
1.0200366044236666
% es.EY (V/m) @ t=0.64
0.1527483662125197
% es.EZ (V/m) @ t=0.64
-1.0185486064634302
% es.tEX (V/m) @ t=0.64
1.020036604423665
% es.tEY (V/m) @ t=0.64
0
% es.tEZ (V/m) @ t=0.64
-1.0185486064634084
% es.Ex (V/m) @ t=0.64
1.0200366044236666
% es.Ey (V/m) @ t=0.64
0.1527483662125197
% es.Ez (V/m) @ t=0.64
-1.0185486064634302
% es.tEx (V/m) @ t=0.64
1.020036604423665
% es.tEy (V/m) @ t=0.64
0
% es.tEz (V/m) @ t=0.64
-1.0185486064634084
% V (V) @ t=0.64
0.015725537699051193
% es.normE (V/m) @ t=0.66
1.4819693757361985
% es.EX (V/m) @ t=0.66
1.0293856515818145
% es.EY (V/m) @ t=0.66
0.15415027395205105
% es.EZ (V/m) @ t=0.66
-1.0278834828187784
% es.tEX (V/m) @ t=0.66
1.02938565158182
% es.tEY (V/m) @ t=0.66
0
% es.tEZ (V/m) @ t=0.66
-1.0278834828187566
% es.Ex (V/m) @ t=0.66
1.0293856515818145
% es.Ey (V/m) @ t=0.66
0.15415027395205105
% es.Ez (V/m) @ t=0.66
-1.0278834828187784
% es.tEx (V/m) @ t=0.66
1.02938565158182
% es.tEy (V/m) @ t=0.66
0
% es.tEz (V/m) @ t=0.66
-1.0278834828187566
% V (V) @ t=0.66
0.015869611825443077
% es.normE (V/m) @ t=0.68
1.4954289609596172
% es.EX (V/m) @ t=0.68
1.0387346987399726
% es.EY (V/m) @ t=0.68
0.15555218169156815
% es.EZ (V/m) @ t=0.68
-1.03721835917414
% es.tEX (V/m) @ t=0.68
1.038734698739971
% es.tEY (V/m) @ t=0.68
0
% es.tEZ (V/m) @ t=0.68
-1.0372183591741182
% es.Ex (V/m) @ t=0.68
1.0387346987399726
% es.Ey (V/m) @ t=0.68
0.15555218169156815
% es.Ez (V/m) @ t=0.68
-1.03721835917414
% es.tEx (V/m) @ t=0.68
1.038734698739971
% es.tEy (V/m) @ t=0.68
0
% es.tEz (V/m) @ t=0.68
-1.0372183591741182
% V (V) @ t=0.68
0.016013685951834958
% es.normE (V/m) @ t=0.7
1.5088885461872836
% es.EX (V/m) @ t=0.7
1.0480837458981107
% es.EY (V/m) @ t=0.7
0.15695408943109734
% es.EZ (V/m) @ t=0.7
-1.0465532355295246
% es.tEX (V/m) @ t=0.7
1.0480837458981163
% es.tEY (V/m) @ t=0.7
0
% es.tEZ (V/m) @ t=0.7
-1.0465532355295029
% es.Ex (V/m) @ t=0.7
1.0480837458981107
% es.Ey (V/m) @ t=0.7
0.15695408943109734
% es.Ez (V/m) @ t=0.7
-1.0465532355295246
% es.tEx (V/m) @ t=0.7
1.0480837458981163
% es.tEy (V/m) @ t=0.7
0
% es.tEz (V/m) @ t=0.7
-1.0465532355295029
% V (V) @ t=0.7
0.01615776007822684
% es.normE (V/m) @ t=0.72
1.5223481314190739
% es.EX (V/m) @ t=0.72
1.0574327930562617
% es.EY (V/m) @ t=0.72
0.1583559971705985
% es.EZ (V/m) @ t=0.72
-1.0558881118848942
% es.tEX (V/m) @ t=0.72
1.0574327930562708
% es.tEY (V/m) @ t=0.72
0
% es.tEZ (V/m) @ t=0.72
-1.0558881118848724
% es.Ex (V/m) @ t=0.72
1.0574327930562617
% es.Ey (V/m) @ t=0.72
0.1583559971705985
% es.Ez (V/m) @ t=0.72
-1.0558881118848942
% es.tEx (V/m) @ t=0.72
1.0574327930562708
% es.tEy (V/m) @ t=0.72
0
% es.tEz (V/m) @ t=0.72
-1.0558881118848724
% V (V) @ t=0.72
0.01630183420461872
% es.normE (V/m) @ t=0.74
1.5358077166548867
% es.EX (V/m) @ t=0.74
1.066781840214406
% es.EY (V/m) @ t=0.74
0.15975790491014313
% es.EZ (V/m) @ t=0.74
-1.0652229882402557
% es.tEX (V/m) @ t=0.74
1.0667818402144107
% es.tEY (V/m) @ t=0.74
0
% es.tEZ (V/m) @ t=0.74
-1.065222988240234
% es.Ex (V/m) @ t=0.74
1.066781840214406
% es.Ey (V/m) @ t=0.74
0.15975790491014313
% es.Ez (V/m) @ t=0.74
-1.0652229882402557
% es.tEx (V/m) @ t=0.74
1.0667818402144107
% es.tEy (V/m) @ t=0.74
0
% es.tEz (V/m) @ t=0.74
-1.065222988240234
% V (V) @ t=0.74
0.016445908331010603
% es.normE (V/m) @ t=0.76
1.549267301894632
% es.EX (V/m) @ t=0.76
1.0761308873725641
% es.EY (V/m) @ t=0.76
0.16115981264966517
% es.EZ (V/m) @ t=0.76
-1.0745578645956253
% es.tEX (V/m) @ t=0.76
1.0761308873725723
% es.tEY (V/m) @ t=0.76
0
% es.tEZ (V/m) @ t=0.76
-1.0745578645955964
% es.Ex (V/m) @ t=0.76
1.0761308873725641
% es.Ey (V/m) @ t=0.76
0.16115981264966517
% es.Ez (V/m) @ t=0.76
-1.0745578645956253
% es.tEx (V/m) @ t=0.76
1.0761308873725723
% es.tEy (V/m) @ t=0.76
0
% es.tEz (V/m) @ t=0.76
-1.0745578645955964
% V (V) @ t=0.76
0.01658998245740248
% es.normE (V/m) @ t=0.78
1.5635218688059875
% es.EX (V/m) @ t=0.78
1.0860322251535488
% es.EY (V/m) @ t=0.78
0.16264185961364147
% es.EZ (V/m) @ t=0.78
-1.0844449482176741
% es.tEX (V/m) @ t=0.78
1.0860322251535464
% es.tEY (V/m) @ t=0.78
0
% es.tEZ (V/m) @ t=0.78
-1.0844449482176453
% es.Ex (V/m) @ t=0.78
1.0860322251535488
% es.Ey (V/m) @ t=0.78
0.16264185961364147
% es.Ez (V/m) @ t=0.78
-1.0844449482176741
% es.tEx (V/m) @ t=0.78
1.0860322251535464
% es.tEy (V/m) @ t=0.78
0
% es.tEz (V/m) @ t=0.78
-1.0844449482176453
% V (V) @ t=0.78
0.01674264686282952
% es.normE (V/m) @ t=0.8
1.5784680046424788
% es.EX (V/m) @ t=0.8
1.096414010525976
% es.EY (V/m) @ t=0.8
0.16419362113694874
% es.EZ (V/m) @ t=0.8
-1.0948124069181229
% es.tEX (V/m) @ t=0.8
1.0964140105259776
% es.tEY (V/m) @ t=0.8
0
% es.tEZ (V/m) @ t=0.8
-1.0948124069181047
% es.Ex (V/m) @ t=0.8
1.096414010525976
% es.Ey (V/m) @ t=0.8
0.16419362113694874
% es.Ez (V/m) @ t=0.8
-1.0948124069181229
% es.tEx (V/m) @ t=0.8
1.0964140105259776
% es.tEy (V/m) @ t=0.8
0
% es.tEz (V/m) @ t=0.8
-1.0948124069181047
% V (V) @ t=0.8
0.016902784107196034
% es.normE (V/m) @ t=0.82
1.5934141404890845
% es.EX (V/m) @ t=0.82
1.10679579589841
% es.EY (V/m) @ t=0.82
0.16574538266024347
% es.EZ (V/m) @ t=0.82
-1.105179865618592
% es.tEX (V/m) @ t=0.82
1.1067957958984187
% es.tEY (V/m) @ t=0.82
0
% es.tEZ (V/m) @ t=0.82
-1.1051798656185703
% es.Ex (V/m) @ t=0.82
1.10679579589841
% es.Ey (V/m) @ t=0.82
0.16574538266024347
% es.Ez (V/m) @ t=0.82
-1.105179865618592
% es.tEx (V/m) @ t=0.82
1.1067957958984187
% es.tEy (V/m) @ t=0.82
0
% es.tEz (V/m) @ t=0.82
-1.1051798656185703
% V (V) @ t=0.82
0.017062921351562545
% es.normE (V/m) @ t=0.84
1.6083602763454727
% es.EX (V/m) @ t=0.84
1.1171775812708395
% es.EY (V/m) @ t=0.84
0.16729714418353075
% es.EZ (V/m) @ t=0.84
-1.1155473243190168
% es.tEX (V/m) @ t=0.84
1.117177581270841
% es.tEY (V/m) @ t=0.84
0
% es.tEZ (V/m) @ t=0.84
-1.115547324318995
% es.Ex (V/m) @ t=0.84
1.1171775812708395
% es.Ey (V/m) @ t=0.84
0.16729714418353075
% es.Ez (V/m) @ t=0.84
-1.1155473243190168
% es.tEx (V/m) @ t=0.84
1.117177581270841
% es.tEy (V/m) @ t=0.84
0
% es.tEz (V/m) @ t=0.84
-1.115547324318995
% V (V) @ t=0.84
0.01722305859592906
% es.normE (V/m) @ t=0.86
1.6233064122114376
% es.EX (V/m) @ t=0.86
1.1275593666432668
% es.EY (V/m) @ t=0.86
0.16884890570682276
% es.EZ (V/m) @ t=0.86
-1.1259147830194878
% es.tEX (V/m) @ t=0.86
1.1275593666432746
% es.tEY (V/m) @ t=0.86
0
% es.tEZ (V/m) @ t=0.86
-1.125914783019459
% es.Ex (V/m) @ t=0.86
1.1275593666432668
% es.Ey (V/m) @ t=0.86
0.16884890570682276
% es.Ez (V/m) @ t=0.86
-1.1259147830194878
% es.tEx (V/m) @ t=0.86
1.1275593666432746
% es.tEy (V/m) @ t=0.86
0
% es.tEz (V/m) @ t=0.86
-1.125914783019459
% V (V) @ t=0.86
0.017383195840295573
% es.normE (V/m) @ t=0.88
1.6382525480866919
% es.EX (V/m) @ t=0.88
1.137941152015707
% es.EY (V/m) @ t=0.88
0.17040066723012776
% es.EZ (V/m) @ t=0.88
-1.1362822417199552
% es.tEX (V/m) @ t=0.88
1.1379411520157112
% es.tEY (V/m) @ t=0.88
0
% es.tEZ (V/m) @ t=0.88
-1.1362822417199263
% es.Ex (V/m) @ t=0.88
1.137941152015707
% es.Ey (V/m) @ t=0.88
0.17040066723012776
% es.Ez (V/m) @ t=0.88
-1.1362822417199552
% es.tEx (V/m) @ t=0.88
1.1379411520157112
% es.tEy (V/m) @ t=0.88
0
% es.tEz (V/m) @ t=0.88
-1.1362822417199263
% V (V) @ t=0.88
0.017543333084662084
% es.normE (V/m) @ t=0.9
1.6531986839709472
% es.EX (V/m) @ t=0.9
1.1483229373881303
% es.EY (V/m) @ t=0.9
0.17195242875340522
% es.EZ (V/m) @ t=0.9
-1.1466497004203924
% es.tEX (V/m) @ t=0.9
1.148322937388131
% es.tEY (V/m) @ t=0.9
0
% es.tEZ (V/m) @ t=0.9
-1.1466497004203777
% es.Ex (V/m) @ t=0.9
1.1483229373881303
% es.Ey (V/m) @ t=0.9
0.17195242875340522
% es.Ez (V/m) @ t=0.9
-1.1466497004203924
% es.tEx (V/m) @ t=0.9
1.148322937388131
% es.tEy (V/m) @ t=0.9
0
% es.tEz (V/m) @ t=0.9
-1.1466497004203777
% V (V) @ t=0.9
0.0177034703290286
% es.normE (V/m) @ t=0.92
1.6681448198640152
% es.EX (V/m) @ t=0.92
1.1587047227605605
% es.EY (V/m) @ t=0.92
0.1735041902766964
% es.EZ (V/m) @ t=0.92
-1.157017159120858
% es.tEX (V/m) @ t=0.92
1.158704722760572
% es.tEY (V/m) @ t=0.92
0
% es.tEZ (V/m) @ t=0.92
-1.1570171591208434
% es.Ex (V/m) @ t=0.92
1.1587047227605605
% es.Ey (V/m) @ t=0.92
0.1735041902766964
% es.Ez (V/m) @ t=0.92
-1.157017159120858
% es.tEx (V/m) @ t=0.92
1.158704722760572
% es.tEy (V/m) @ t=0.92
0
% es.tEz (V/m) @ t=0.92
-1.1570171591208434
% V (V) @ t=0.92
0.017863607573395113
% es.normE (V/m) @ t=0.94
1.6830909557656355
% es.EX (V/m) @ t=0.94
1.1690865081329942
% es.EY (V/m) @ t=0.94
0.17505595179999822
% es.EZ (V/m) @ t=0.94
-1.1673846178213165
% es.tEX (V/m) @ t=0.94
1.1690865081329984
% es.tEY (V/m) @ t=0.94
0
% es.tEZ (V/m) @ t=0.94
-1.1673846178212806
% es.Ex (V/m) @ t=0.94
1.1690865081329942
% es.Ey (V/m) @ t=0.94
0.17505595179999822
% es.Ez (V/m) @ t=0.94
-1.1673846178213165
% es.tEx (V/m) @ t=0.94
1.1690865081329984
% es.tEy (V/m) @ t=0.94
0
% es.tEz (V/m) @ t=0.94
-1.1673846178212806
% V (V) @ t=0.94
0.018023744817761624
% es.normE (V/m) @ t=0.96
1.6980370916755705
% es.EX (V/m) @ t=0.96
1.1794682935054133
% es.EY (V/m) @ t=0.96
0.17660771332329128
% es.EZ (V/m) @ t=0.96
-1.1777520765217693
% es.tEX (V/m) @ t=0.96
1.1794682935054173
% es.tEY (V/m) @ t=0.96
0
% es.tEZ (V/m) @ t=0.96
-1.177752076521747
% es.Ex (V/m) @ t=0.96
1.1794682935054133
% es.Ey (V/m) @ t=0.96
0.17660771332329128
% es.Ez (V/m) @ t=0.96
-1.1777520765217693
% es.tEx (V/m) @ t=0.96
1.1794682935054173
% es.tEy (V/m) @ t=0.96
0
% es.tEz (V/m) @ t=0.96
-1.177752076521747
% V (V) @ t=0.96
0.01818388206212814
% es.normE (V/m) @ t=0.98
1.7129832275936283
% es.EX (V/m) @ t=0.98
1.1898500788778548
% es.EY (V/m) @ t=0.98
0.17815947484659883
% es.EZ (V/m) @ t=0.98
-1.1881195352222123
% es.tEX (V/m) @ t=0.98
1.1898500788778588
% es.tEY (V/m) @ t=0.98
0
% es.tEZ (V/m) @ t=0.98
-1.1881195352221834
% es.Ex (V/m) @ t=0.98
1.1898500788778548
% es.Ey (V/m) @ t=0.98
0.17815947484659883
% es.Ez (V/m) @ t=0.98
-1.1881195352222123
% es.tEx (V/m) @ t=0.98
1.1898500788778588
% es.tEy (V/m) @ t=0.98
0
% es.tEz (V/m) @ t=0.98
-1.1881195352221834
% V (V) @ t=0.98
0.018344019306494652
% es.normE (V/m) @ t=1
1.7279293635195894
% es.EX (V/m) @ t=1
1.2002318642502878
% es.EY (V/m) @ t=1
0.179711236369887
% es.EZ (V/m) @ t=1
-1.1984869939226725
% es.tEX (V/m) @ t=1
1.2002318642502852
% es.tEY (V/m) @ t=1
0
% es.tEZ (V/m) @ t=1
-1.1984869939226366
% es.Ex (V/m) @ t=1
1.2002318642502878
% es.Ey (V/m) @ t=1
0.179711236369887
% es.Ez (V/m) @ t=1
-1.1984869939226725
% es.tEx (V/m) @ t=1
1.2002318642502852
% es.tEy (V/m) @ t=1
0
% es.tEz (V/m) @ t=1
-1.1984869939226366
% V (V) @ t=1
0.018504156550861166
% es.normE (V/m) @ t=1.02
1.7428754994532332
% es.EX (V/m) @ t=1.02
1.2106136496227076
% es.EY (V/m) @ t=1.02
0.18126299789319816
% es.EZ (V/m) @ t=1.02
-1.2088544526231169
% es.tEX (V/m) @ t=1.02
1.2106136496227187
% es.tEY (V/m) @ t=1.02
0
% es.tEZ (V/m) @ t=1.02
-1.2088544526231022
% es.Ex (V/m) @ t=1.02
1.2106136496227076
% es.Ey (V/m) @ t=1.02
0.18126299789319816
% es.Ez (V/m) @ t=1.02
-1.2088544526231169
% es.tEx (V/m) @ t=1.02
1.2106136496227187
% es.tEy (V/m) @ t=1.02
0
% es.tEz (V/m) @ t=1.02
-1.2088544526231022
% V (V) @ t=1.02
0.018664293795227677
% es.normE (V/m) @ t=1.04
1.7583364255182203
% es.EX (V/m) @ t=1.04
1.2213529821573221
% es.EY (V/m) @ t=1.04
0.18286915465312797
% es.EZ (V/m) @ t=1.04
-1.2195786947947602
% es.tEX (V/m) @ t=1.04
1.2213529821573257