% Model:              1x1--2 - Copy1.mph
% Version:            COMSOL 6.1.0.252
% Date:               Mar 28 2023, 10:21
% Dimension:          0
% Nodes:              14017
% Expressions:        14017
% Description:        Electric field norm, Electric field, X component, Electric field, Y component, Electric field, Z component, Tangential electric field, X component, Tangential electric field, Y component, Tangential electric field, Z component, Electric field, x component, Electric field, y component, Electric field, z component, Tangential electric field, x component, Tangential electric field, y component, Tangential electric field, z component, Electric potential
% Length unit:        mm
% x
1.66
% y
12.2
% z
1.33
% es.normE (V/m) @ t=0
18.121026509260666
% es.EX (V/m) @ t=0
-10.06877707516163
% es.EY (V/m) @ t=0
-1.0868371183886243
% es.EZ (V/m) @ t=0
13.482021410276909
% es.tEX (V/m) @ t=0
-10.068777075161636
% es.tEY (V/m) @ t=0
0
% es.tEZ (V/m) @ t=0
13.482021410276896
% es.Ex (V/m) @ t=0
-10.06877707516163
% es.Ey (V/m) @ t=0
-1.0868371183886243
% es.Ez (V/m) @ t=0
13.482021410276909
% es.tEx (V/m) @ t=0
-10.068777075161636
% es.tEy (V/m) @ t=0
0
% es.tEz (V/m) @ t=0
13.482021410276896
% V (V) @ t=0
0.014882166556648688
% es.normE (V/m) @ t=0.1
18.999049884097715
% es.EX (V/m) @ t=0.1
-10.556644557268442
% es.EY (V/m) @ t=0.1
-1.1394963799886897
% es.EZ (V/m) @ t=0.1
14.135269122295842
% es.tEX (V/m) @ t=0.1
-10.556644557268454
% es.tEY (V/m) @ t=0.1
0
% es.tEZ (V/m) @ t=0.1
14.13526912229582
% es.Ex (V/m) @ t=0.1
-10.556644557268442
% es.Ey (V/m) @ t=0.1
-1.1394963799886897
% es.Ez (V/m) @ t=0.1
14.135269122295842
% es.tEx (V/m) @ t=0.1
-10.556644557268454
% es.tEy (V/m) @ t=0.1
0
% es.tEz (V/m) @ t=0.1
14.13526912229582
% V (V) @ t=0.1
0.015603252192228925
% es.normE (V/m) @ t=0.2
20.29872600539649
% es.EX (V/m) @ t=0.2
-11.278763313004387
% es.EY (V/m) @ t=0.2
-1.217472213082842
% es.EZ (V/m) @ t=0.2
15.102236172265393
% es.tEX (V/m) @ t=0.2
-11.278763313004406
% es.tEY (V/m) @ t=0.2
0
% es.tEZ (V/m) @ t=0.2
15.10223617226538
% es.Ex (V/m) @ t=0.2
-11.278763313004387
% es.Ey (V/m) @ t=0.2
-1.217472213082842
% es.Ez (V/m) @ t=0.2
15.102236172265393
% es.tEx (V/m) @ t=0.2
-11.278763313004406
% es.tEy (V/m) @ t=0.2
0
% es.tEz (V/m) @ t=0.2
15.10223617226538
% V (V) @ t=0.2
0.01667070134145616
% es.normE (V/m) @ t=0.3
21.663075525261732
% es.EX (V/m) @ t=0.3
-12.036804778083566
% es.EY (V/m) @ t=0.3
-1.2993363345575553
% es.EZ (V/m) @ t=0.3
16.11732368692749
% es.tEX (V/m) @ t=0.3
-12.036804778083585
% es.tEY (V/m) @ t=0.3
0
% es.tEZ (V/m) @ t=0.3
16.11732368692748
% es.Ex (V/m) @ t=0.3
-12.036804778083566
% es.Ey (V/m) @ t=0.3
-1.2993363345575553
% es.Ez (V/m) @ t=0.3
16.11732368692749
% es.tEx (V/m) @ t=0.3
-12.036804778083585
% es.tEy (V/m) @ t=0.3
0
% es.tEz (V/m) @ t=0.3
16.11732368692748
% V (V) @ t=0.3
0.01779129028232116
% es.normE (V/m) @ t=0.4
23.136882094048126
% es.EX (V/m) @ t=0.4
-12.855567087474538
% es.EY (V/m) @ t=0.4
-1.3878392453233421
% es.EZ (V/m) @ t=0.4
17.213874901122008
% es.tEX (V/m) @ t=0.4
-12.855567087474565
% es.tEY (V/m) @ t=0.4
0
% es.tEZ (V/m) @ t=0.4
17.213874901121983
% es.Ex (V/m) @ t=0.4
-12.855567087474538
% es.Ey (V/m) @ t=0.4
-1.3878392453233421
% es.Ez (V/m) @ t=0.4
17.213874901122008
% es.tEx (V/m) @ t=0.4
-12.855567087474565
% es.tEy (V/m) @ t=0.4
0
% es.tEz (V/m) @ t=0.4
17.213874901121983
% V (V) @ t=0.4
0.019001975299861078
% es.normE (V/m) @ t=0.5
24.673345136221254
% es.EX (V/m) @ t=0.5
-13.709076668755818
% es.EY (V/m) @ t=0.5
-1.4801508138709396
% es.EZ (V/m) @ t=0.5
18.357061520437583
% es.tEX (V/m) @ t=0.5
-13.70907666875583
% es.tEY (V/m) @ t=0.5
0
% es.tEZ (V/m) @ t=0.5
18.357061520437547
% es.Ex (V/m) @ t=0.5
-13.709076668755818
% es.Ey (V/m) @ t=0.5
-1.4801508138709396
% es.Ez (V/m) @ t=0.5
18.357061520437583
% es.tEx (V/m) @ t=0.5
-13.70907666875583
% es.tEy (V/m) @ t=0.5
0
% es.tEz (V/m) @ t=0.5
18.357061520437547
% V (V) @ t=0.5
0.02026425708239849
% es.normE (V/m) @ t=0.6
26.252046007158363
% es.EX (V/m) @ t=0.6
-14.586177082480944
% es.EY (V/m) @ t=0.6
-1.574903699354775
% es.EZ (V/m) @ t=0.6
19.53163849302773
% es.tEX (V/m) @ t=0.6
-14.58617708248094
% es.tEY (V/m) @ t=0.6
0
% es.tEZ (V/m) @ t=0.6
19.531638493027714
% es.Ex (V/m) @ t=0.6
-14.586177082480944
% es.Ey (V/m) @ t=0.6
-1.574903699354775
% es.Ez (V/m) @ t=0.6
19.53163849302773
% es.tEx (V/m) @ t=0.6
-14.58617708248094
% es.tEy (V/m) @ t=0.6
0
% es.tEz (V/m) @ t=0.6
19.531638493027714
% V (V) @ t=0.6
0.021560975035916845
% es.normE (V/m) @ t=0.7
27.92442097159462
% es.EX (V/m) @ t=0.7
-15.515596708384745
% es.EY (V/m) @ t=0.7
-1.6750708820696447
% es.EZ (V/m) @ t=0.7
20.77583227787936
% es.tEX (V/m) @ t=0.7
-15.515596708384756
% es.tEY (V/m) @ t=0.7
0
% es.tEZ (V/m) @ t=0.7
20.77583227787934
% es.Ex (V/m) @ t=0.7
-15.515596708384745
% es.Ey (V/m) @ t=0.7
-1.6750708820696447
% es.Ez (V/m) @ t=0.7
20.77583227787936
% es.tEx (V/m) @ t=0.7
-15.515596708384756
% es.tEy (V/m) @ t=0.7
0
% es.tEz (V/m) @ t=0.7
20.77583227787934
% V (V) @ t=0.7
0.022934064747000837
% es.normE (V/m) @ t=0.8
29.600541948924473
% es.EX (V/m) @ t=0.8
-16.44709510052726
% es.EY (V/m) @ t=0.8
-1.7754647519639137
% es.EZ (V/m) @ t=0.8
22.022813846905052
% es.tEX (V/m) @ t=0.8
-16.4470951005273
% es.tEY (V/m) @ t=0.8
0
% es.tEZ (V/m) @ t=0.8
22.022813846905027
% es.Ex (V/m) @ t=0.8
-16.44709510052726
% es.Ey (V/m) @ t=0.8
-1.7754647519639137
% es.Ez (V/m) @ t=0.8
22.022813846905052
% es.tEx (V/m) @ t=0.8
-16.4470951005273
% es.tEy (V/m) @ t=0.8
0
% es.tEz (V/m) @ t=0.8
22.022813846905027
% V (V) @ t=0.8
0.02431023645151926
% es.normE (V/m) @ t=0.9
31.37835716029371
% es.EX (V/m) @ t=0.9
-17.435026485239955
% es.EY (V/m) @ t=0.9
-1.8820125778302454
% es.EZ (V/m) @ t=0.9
23.34547636583863
% es.tEX (V/m) @ t=0.9
-17.43502648523998
% es.tEY (V/m) @ t=0.9
0
% es.tEZ (V/m) @ t=0.9
23.345476365838586
% es.Ex (V/m) @ t=0.9
-17.435026485239955
% es.Ey (V/m) @ t=0.9
-1.8820125778302454
% es.Ez (V/m) @ t=0.9
23.34547636583863
% es.tEx (V/m) @ t=0.9
-17.43502648523998
% es.tEy (V/m) @ t=0.9
0
% es.tEz (V/m) @ t=0.9
23.345476365838586
% V (V) @ t=0.9
0.025770076107415763
% es.normE (V/m) @ t=1
33.15617237249889
% es.EX (V/m) @ t=1
-18.422957869952736
% es.EY (V/m) @ t=1
-1.9885604036964635
% es.EZ (V/m) @ t=1
24.668138884772233
% es.tEX (V/m) @ t=1
-18.42295786995276
% es.tEY (V/m) @ t=1
0
% es.tEZ (V/m) @ t=1
24.66813888477219
% es.Ex (V/m) @ t=1
-18.422957869952736
% es.Ey (V/m) @ t=1
-1.9885604036964635
% es.Ez (V/m) @ t=1
24.668138884772233
% es.tEx (V/m) @ t=1
-18.42295786995276
% es.tEy (V/m) @ t=1
0
% es.tEz (V/m) @ t=1
24.66813888477219
% V (V) @ t=1
0.02722991576331227
% es.normE (V/m) @ t=1.1
34.94277962574637
% es.EX (V/m) @ t=1.1
-19.41564495347787
% es.EY (V/m) @ t=1.1
-2.0957333855351896
% es.EZ (V/m) @ t=1.1
25.997379376896664
% es.tEX (V/m) @ t=1.1
-19.415644953477894
% es.tEY (V/m) @ t=1.1
0
% es.tEZ (V/m) @ t=1.1
25.997379376896625
% es.Ex (V/m) @ t=1.1
-19.41564495347787
% es.Ey (V/m) @ t=1.1
-2.0957333855351896
% es.Ez (V/m) @ t=1.1
25.997379376896664
% es.tEx (V/m) @ t=1.1
-19.415644953477894
% es.tEy (V/m) @ t=1.1
0
% es.tEz (V/m) @ t=1.1
25.997379376896625
% V (V) @ t=1.1
0.028697244409434566
% es.normE (V/m) @ t=1.2
36.73886503359515
% es.EX (V/m) @ t=1.2
-20.41345886082707
% es.EY (V/m) @ t=1.2
-2.2035803092401895
% es.EZ (V/m) @ t=1.2
27.33371117379026
% es.tEX (V/m) @ t=1.2
-20.413458860827124
% es.tEY (V/m) @ t=1.2
0
% es.tEZ (V/m) @ t=1.2
27.333711173790206
% es.Ex (V/m) @ t=1.2
-20.41345886082707
% es.Ey (V/m) @ t=1.2
-2.2035803092401895
% es.Ez (V/m) @ t=1.2
27.33371117379026
% es.tEx (V/m) @ t=1.2
-20.413458860827124
% es.tEy (V/m) @ t=1.2
0
% es.tEz (V/m) @ t=1.2
27.333711173790206
% V (V) @ t=1.2
0.030172646471267654
% es.normE (V/m) @ t=1.3
38.54256967994327
% es.EX (V/m) @ t=1.3
-21.415394084843086
% es.EY (V/m) @ t=1.3
-2.3119689968018573
% es.EZ (V/m) @ t=1.3
28.675743481085124
% es.tEX (V/m) @ t=1.3
-21.41539408484311
% es.tEY (V/m) @ t=1.3
0
% es.tEZ (V/m) @ t=1.3
28.67574348108508
% es.Ex (V/m) @ t=1.3
-21.415394084843086
% es.Ey (V/m) @ t=1.3
-2.3119689968018573
% es.Ez (V/m) @ t=1.3
28.675743481085124
% es.tEx (V/m) @ t=1.3
-21.41539408484311
% es.tEy (V/m) @ t=1.3
0
% es.tEz (V/m) @ t=1.3
28.67574348108508
% V (V) @ t=1.3
0.03165453853624279
% es.normE (V/m) @ t=1.4
40.35389356938029
% es.EX (V/m) @ t=1.4
-22.421450625526006
% es.EY (V/m) @ t=1.4
-2.4208994482197426
% es.EZ (V/m) @ t=1.4
30.023476298781205
% es.tEX (V/m) @ t=1.4
-22.421450625526045
% es.tEY (V/m) @ t=1.4
0
% es.tEZ (V/m) @ t=1.4
30.023476298781166
% es.Ex (V/m) @ t=1.4
-22.421450625526006
% es.Ey (V/m) @ t=1.4
-2.4208994482197426
% es.Ez (V/m) @ t=1.4
30.023476298781205
% es.tEx (V/m) @ t=1.4
-22.421450625526045
% es.tEy (V/m) @ t=1.4
0
% es.tEz (V/m) @ t=1.4
30.023476298781166
% V (V) @ t=1.4
0.033142920604359985
% es.normE (V/m) @ t=1.5
42.162176463015896
% es.EX (V/m) @ t=1.5
-23.4258532215963
% es.EY (V/m) @ t=1.5
-2.529620501490415
% es.EZ (V/m) @ t=1.5
31.368936478637817
% es.tEX (V/m) @ t=1.5
-23.425853221596338
% es.tEY (V/m) @ t=1.5
0
% es.tEZ (V/m) @ t=1.5
31.368936478637778
% es.Ex (V/m) @ t=1.5
-23.4258532215963
% es.Ey (V/m) @ t=1.5
-2.529620501490415
% es.Ez (V/m) @ t=1.5
31.368936478637817
% es.tEx (V/m) @ t=1.5
-23.425853221596338
% es.tEy (V/m) @ t=1.5
0
% es.tEz (V/m) @ t=1.5
31.368936478637778
% V (V) @ t=1.5
0.03462873111247583
% es.normE (V/m) @ t=1.6
43.92501061911662
% es.EX (V/m) @ t=1.6
-24.40562718534049
% es.EY (V/m) @ t=1.6
-2.6351439433330874
% es.EZ (V/m) @ t=1.6
32.68040587284086
% es.tEX (V/m) @ t=1.6
-24.4056271853405
% es.tEY (V/m) @ t=1.6
0
% es.tEZ (V/m) @ t=1.6
32.68040587284081
% es.Ex (V/m) @ t=1.6
-24.40562718534049
% es.Ey (V/m) @ t=1.6
-2.6351439433330874
% es.Ez (V/m) @ t=1.6
32.68040587284086
% es.tEx (V/m) @ t=1.6
-24.4056271853405
% es.tEy (V/m) @ t=1.6
0
% es.tEz (V/m) @ t=1.6
32.68040587284081
% V (V) @ t=1.6
0.03607592206668218
% es.normE (V/m) @ t=1.7
45.67411478755849
% es.EX (V/m) @ t=1.7
-25.377956366443218
% es.EY (V/m) @ t=1.7
-2.7397047990276473
% es.EZ (V/m) @ t=1.7
33.98160797618178
% es.tEX (V/m) @ t=1.7
-25.377956366443243
% es.tEY (V/m) @ t=1.7
0
% es.tEZ (V/m) @ t=1.7
33.98160797618172
% es.Ex (V/m) @ t=1.7
-25.377956366443218
% es.Ey (V/m) @ t=1.7
-2.7397047990276473
% es.Ez (V/m) @ t=1.7
33.98160797618178
% es.tEx (V/m) @ t=1.7
-25.377956366443243
% es.tEy (V/m) @ t=1.7
0
% es.tEz (V/m) @ t=1.7
33.98160797618172
% V (V) @ t=1.7
0.03751145545734311
% es.normE (V/m) @ t=1.8
47.409488980092135
% es.EX (V/m) @ t=1.8
-26.342840764904466
% es.EY (V/m) @ t=1.8
-2.843303068574377
% es.EZ (V/m) @ t=1.8
35.272542788660765
% es.tEX (V/m) @ t=1.8
-26.34284076490449
% es.tEY (V/m) @ t=1.8
0
% es.tEZ (V/m) @ t=1.8
35.272542788660694
% es.Ex (V/m) @ t=1.8
-26.342840764904466
% es.Ey (V/m) @ t=1.8
-2.843303068574377
% es.Ez (V/m) @ t=1.8
35.272542788660765
% es.tEx (V/m) @ t=1.8
-26.34284076490449
% es.tEy (V/m) @ t=1.8
0
% es.tEz (V/m) @ t=1.8
35.272542788660694
% V (V) @ t=1.8
0.03893533128445862
% es.normE (V/m) @ t=1.9
49.12334859231245
% es.EX (V/m) @ t=1.9
-27.295895514526258
% es.EY (V/m) @ t=1.9
-2.945516743797982
% es.EZ (V/m) @ t=1.9
36.547435402392736
% es.tEX (V/m) @ t=1.9
-27.29589551452631
% es.tEY (V/m) @ t=1.9
0
% es.tEZ (V/m) @ t=1.9
36.54743540239271
% es.Ex (V/m) @ t=1.9
-27.295895514526258
% es.Ey (V/m) @ t=1.9
-2.945516743797982
% es.Ez (V/m) @ t=1.9
36.547435402392736
% es.tEx (V/m) @ t=1.9
-27.29589551452631
% es.tEy (V/m) @ t=1.9
0
% es.tEz (V/m) @ t=1.9
36.54743540239271
% V (V) @ t=1.9
0.040341279447278576
% es.normE (V/m) @ t=2
50.74516213129168
% es.EX (V/m) @ t=2
-28.19739212731629
% es.EY (V/m) @ t=2
-3.0425222766206677
% es.EZ (V/m) @ t=2
37.75396304440824
% es.tEX (V/m) @ t=2
-28.197392127316313
% es.tEY (V/m) @ t=2
0
% es.tEZ (V/m) @ t=2
37.753963044408195
% es.Ex (V/m) @ t=2
-28.19739212731629
% es.Ey (V/m) @ t=2
-3.0425222766206677
% es.Ez (V/m) @ t=2
37.75396304440824
% es.tEx (V/m) @ t=2
-28.197392127316313
% es.tEy (V/m) @ t=2
0
% es.tEz (V/m) @ t=2
37.753963044408195
% V (V) @ t=2
0.04167249054475804
% es.normE (V/m) @ t=2.1
52.32090213339898
% es.EX (V/m) @ t=2.1
-29.07322570147378
% es.EY (V/m) @ t=2.1
-3.136811862389953
% es.EZ (V/m) @ t=2.1
38.92622978995806
% es.tEX (V/m) @ t=2.1
-29.07322570147386
% es.tEY (V/m) @ t=2.1
0
% es.tEZ (V/m) @ t=2.1
38.926229789958015
% es.Ex (V/m) @ t=2.1
-29.07322570147378
% es.Ey (V/m) @ t=2.1
-3.136811862389953
% es.Ez (V/m) @ t=2.1
38.92622978995806
% es.tEx (V/m) @ t=2.1
-29.07322570147386
% es.tEy (V/m) @ t=2.1
0
% es.tEz (V/m) @ t=2.1
38.926229789958015
% V (V) @ t=2.1
0.04296599304420185
% es.normE (V/m) @ t=2.2
53.8505685964561
% es.EX (V/m) @ t=2.2
-29.92339623699877
% es.EY (V/m) @ t=2.2
-3.228385501105734
% es.EZ (V/m) @ t=2.2
40.06423563904237
% es.tEX (V/m) @ t=2.2
-29.923396236998848
% es.tEY (V/m) @ t=2.2
0
% es.tEZ (V/m) @ t=2.2
40.06423563904231
% es.Ex (V/m) @ t=2.2
-29.92339623699877
% es.Ey (V/m) @ t=2.2
-3.228385501105734
% es.Ez (V/m) @ t=2.2
40.06423563904237
% es.tEx (V/m) @ t=2.2
-29.923396236998848
% es.tEy (V/m) @ t=2.2
0
% es.tEz (V/m) @ t=2.2
40.06423563904231
% V (V) @ t=2.2
0.044221786945610006
% es.normE (V/m) @ t=2.3
55.33362617362865
% es.EX (V/m) @ t=2.3
-30.747599550024376
% es.EY (V/m) @ t=2.3
-3.3172161619656304
% es.EZ (V/m) @ t=2.3
41.16758420461628
% es.tEX (V/m) @ t=2.3
-30.747599550024397
% es.tEY (V/m) @ t=2.3
0
% es.tEZ (V/m) @ t=2.3
41.167584204616205
% es.Ex (V/m) @ t=2.3
-30.747599550024376
% es.Ey (V/m) @ t=2.3
-3.3172161619656304
% es.Ez (V/m) @ t=2.3
41.16758420461628
% es.tEx (V/m) @ t=2.3
-30.747599550024397
% es.tEy (V/m) @ t=2.3
0
% es.tEz (V/m) @ t=2.3
41.167584204616205
% V (V) @ t=2.3
0.04543944651695893
% es.normE (V/m) @ t=2.4
56.73581022865433
% es.EX (V/m) @ t=2.4
-31.526366432521975
% es.EY (V/m) @ t=2.4
-3.401573745566422
% es.EZ (V/m) @ t=2.4
42.21090483860459
% es.tEX (V/m) @ t=2.4
-31.52636643252209
% es.tEY (V/m) @ t=2.4
0
% es.tEZ (V/m) @ t=2.4
42.21090483860455
% es.Ex (V/m) @ t=2.4
-31.526366432521975
% es.Ey (V/m) @ t=2.4
-3.401573745566422
% es.Ez (V/m) @ t=2.4
42.21090483860459
% es.tEx (V/m) @ t=2.4
-31.52636643252209
% es.tEy (V/m) @ t=2.4
0
% es.tEz (V/m) @ t=2.4
42.21090483860455
% V (V) @ t=2.4
0.046591722892562436
% es.normE (V/m) @ t=2.5
58.07815351543484
% es.EX (V/m) @ t=2.5
-32.27164771411039
% es.EY (V/m) @ t=2.5
-3.4825202428814457
% es.EZ (V/m) @ t=2.5
43.209770865408345
% es.tEX (V/m) @ t=2.5
-32.27164771411041
% es.tEY (V/m) @ t=2.5
0
% es.tEZ (V/m) @ t=2.5
43.20977086540832
% es.Ex (V/m) @ t=2.5
-32.27164771411039
% es.Ey (V/m) @ t=2.5
-3.4825202428814457
% es.Ez (V/m) @ t=2.5
43.209770865408345
% es.tEx (V/m) @ t=2.5
-32.27164771411041
% es.tEy (V/m) @ t=2.5
0
% es.tEz (V/m) @ t=2.5
43.20977086540832
% V (V) @ t=2.5
0.047695342307541896
% es.normE (V/m) @ t=2.6
59.36065604948219
% es.EX (V/m) @ t=2.6
-32.98344339478922
% es.EY (V/m) @ t=2.6
-3.560055653910947
% es.EZ (V/m) @ t=2.6
44.16418228502758
% es.tEX (V/m) @ t=2.6
-32.9834433947893
% es.tEY (V/m) @ t=2.6
0
% es.tEZ (V/m) @ t=2.6
44.164182285027515
% es.Ex (V/m) @ t=2.6
-32.98344339478922
% es.Ey (V/m) @ t=2.6
-3.560055653910947
% es.Ez (V/m) @ t=2.6
44.16418228502758
% es.tEx (V/m) @ t=2.6
-32.9834433947893
% es.tEy (V/m) @ t=2.6
0
% es.tEz (V/m) @ t=2.6
44.164182285027515
% V (V) @ t=2.6
0.04875030476189731
% es.normE (V/m) @ t=2.7
60.58331785111697
% es.EX (V/m) @ t=2.7
-33.66175347455868
% es.EY (V/m) @ t=2.7
-3.634179978654686
% es.EZ (V/m) @ t=2.7
45.074139097461945
% es.tEX (V/m) @ t=2.7
-33.66175347455873
% es.tEY (V/m) @ t=2.7
0
% es.tEZ (V/m) @ t=2.7
45.07413909746185
% es.Ex (V/m) @ t=2.7
-33.66175347455868
% es.Ey (V/m) @ t=2.7
-3.634179978654686
% es.Ez (V/m) @ t=2.7
45.074139097461945
% es.tEx (V/m) @ t=2.7
-33.66175347455873
% es.tEy (V/m) @ t=2.7
0
% es.tEz (V/m) @ t=2.7
45.07413909746185
% V (V) @ t=2.7
0.04975661025562868
% es.normE (V/m) @ t=2.8
61.75810517906454
% es.EX (V/m) @ t=2.8
-34.31429159153022
% es.EY (V/m) @ t=2.8
-3.7048068460574033
% es.EZ (V/m) @ t=2.8
45.94824221869896
% es.tEX (V/m) @ t=2.8
-34.31429159153027
% es.tEY (V/m) @ t=2.8
0
% es.tEZ (V/m) @ t=2.8
45.94824221869892
% es.Ex (V/m) @ t=2.8
-34.31429159153022
% es.Ey (V/m) @ t=2.8
-3.7048068460574033
% es.Ez (V/m) @ t=2.8
45.94824221869896
% es.tEx (V/m) @ t=2.8
-34.31429159153027
% es.tEy (V/m) @ t=2.8
0
% es.tEz (V/m) @ t=2.8
45.94824221869892
% V (V) @ t=2.8
0.050721880589038475
% es.normE (V/m) @ t=2.9
62.87900966630804
% es.EX (V/m) @ t=2.9
-34.93718467333214
% es.EY (V/m) @ t=2.9
-3.7719796236379644
% es.EZ (V/m) @ t=2.9
46.78217306785597
% es.tEX (V/m) @ t=2.9
-34.93718467333225
% es.tEY (V/m) @ t=2.9
0
% es.tEZ (V/m) @ t=2.9
46.78217306785593
% es.Ex (V/m) @ t=2.9
-34.93718467333214
% es.Ey (V/m) @ t=2.9
-3.7719796236379644
% es.Ez (V/m) @ t=2.9
46.78217306785597
% es.tEx (V/m) @ t=2.9
-34.93718467333225
% es.tEy (V/m) @ t=2.9
0
% es.tEz (V/m) @ t=2.9
46.78217306785593
% V (V) @ t=2.9
0.051642288802169874
% es.normE (V/m) @ t=3
63.945237110322715
% es.EX (V/m) @ t=3
-35.529920763290704
% es.EY (V/m) @ t=3
-3.8357040438717007
% es.EZ (V/m) @ t=3
47.575360799338
% es.tEX (V/m) @ t=3
-35.529920763290725
% es.tEY (V/m) @ t=3
0
% es.tEZ (V/m) @ t=3
47.57536079933793
% es.Ex (V/m) @ t=3
-35.529920763290704
% es.Ey (V/m) @ t=3
-3.8357040438717007
% es.Ez (V/m) @ t=3
47.575360799338
% es.tEx (V/m) @ t=3
-35.529920763290725
% es.tEy (V/m) @ t=3
0
% es.tEz (V/m) @ t=3
47.57536079933793
% V (V) @ t=3
0.052517329033654345
% es.normE (V/m) @ t=3.1
64.95678751815882
% es.EX (V/m) @ t=3.1
-36.09249986140559
% es.EY (V/m) @ t=3.1
-3.895980106758641
% es.EZ (V/m) @ t=3.1
48.32780541314486
% es.tEX (V/m) @ t=3.1
-36.09249986140564
% es.tEY (V/m) @ t=3.1
0
% es.tEZ (V/m) @ t=3.1
48.3278054131448
% es.Ex (V/m) @ t=3.1
-36.09249986140559
% es.Ey (V/m) @ t=3.1
-3.895980106758641
% es.Ez (V/m) @ t=3.1
48.32780541314486
% es.tEx (V/m) @ t=3.1
-36.09249986140564
% es.tEy (V/m) @ t=3.1
0
% es.tEz (V/m) @ t=3.1
48.3278054131448
% V (V) @ t=3.1
0.05334700128349189
% es.normE (V/m) @ t=3.2
65.94734391837267
% es.EX (V/m) @ t=3.2
-36.64318079954659
% es.EY (V/m) @ t=3.2
-3.955173015807711
% es.EZ (V/m) @ t=3.2
49.06469659959333
% es.tEX (V/m) @ t=3.2
-36.643180799546585
% es.tEY (V/m) @ t=3.2
0
% es.tEZ (V/m) @ t=3.2
49.06469659959323
% es.Ex (V/m) @ t=3.2
-36.64318079954659
% es.Ey (V/m) @ t=3.2
-3.955173015807711
% es.Ez (V/m) @ t=3.2
49.06469659959333
% es.tEx (V/m) @ t=3.2
-36.643180799546585
% es.tEy (V/m) @ t=3.2
0
% es.tEz (V/m) @ t=3.2
49.06469659959323
% V (V) @ t=3.2
0.05415991466722022
% es.normE (V/m) @ t=3.3
66.90532310302595
% es.EX (V/m) @ t=3.3
-37.17568457634047
% es.EY (V/m) @ t=3.3
-4.012469404852869
% es.EZ (V/m) @ t=3.3
49.77737191514821
% es.tEX (V/m) @ t=3.3
-37.17568457634055
% es.tEY (V/m) @ t=3.3
0
% es.tEZ (V/m) @ t=3.3
49.77737191514818
% es.Ex (V/m) @ t=3.3
-37.17568457634047
% es.Ey (V/m) @ t=3.3
-4.012469404852869
% es.Ez (V/m) @ t=3.3
49.77737191514821
% es.tEx (V/m) @ t=3.3
-37.17568457634055
% es.tEy (V/m) @ t=3.3
0
% es.tEz (V/m) @ t=3.3
49.77737191514818
% V (V) @ t=3.3
0.054946230840468284
% es.normE (V/m) @ t=3.4
67.8251498897553
% es.EX (V/m) @ t=3.4
-37.68698900721621
% es.EY (V/m) @ t=3.4
-4.067477787647258
% es.EZ (V/m) @ t=3.4
50.46166198610772
% es.tEX (V/m) @ t=3.4
-37.68698900721626
% es.tEY (V/m) @ t=3.4
0
% es.tEZ (V/m) @ t=3.4
50.461661986107636
% es.Ex (V/m) @ t=3.4
-37.68698900721621
% es.Ey (V/m) @ t=3.4
-4.067477787647258
% es.Ez (V/m) @ t=3.4
50.46166198610772
% es.tEx (V/m) @ t=3.4
-37.68698900721626
% es.tEy (V/m) @ t=3.4
0
% es.tEz (V/m) @ t=3.4
50.461661986107636
% V (V) @ t=3.4
0.055701214449507666
% es.normE (V/m) @ t=3.5
68.70682427850285
% es.EX (V/m) @ t=3.5
-38.177094092173796
% es.EY (V/m) @ t=3.5
-4.120198164191219
% es.EZ (V/m) @ t=3.5
51.11756681247169
% es.tEX (V/m) @ t=3.5
-38.17709409217382
% es.tEY (V/m) @ t=3.5
0
% es.tEZ (V/m) @ t=3.5
51.117566812471594
% es.Ex (V/m) @ t=3.5
-38.177094092173796
% es.Ey (V/m) @ t=3.5
-4.120198164191219
% es.Ez (V/m) @ t=3.5
51.11756681247169
% es.tEx (V/m) @ t=3.5
-38.17709409217382
% es.tEy (V/m) @ t=3.5
0
% es.tEz (V/m) @ t=3.5
51.117566812471594
% V (V) @ t=3.5
0.056424865494338367
% es.normE (V/m) @ t=3.6
69.56887427326166
% es.EX (V/m) @ t=3.6
-38.65617393931417
% es.EY (V/m) @ t=3.6
-4.17183302534902
% es.EZ (V/m) @ t=3.6
51.75890546262265
% es.tEX (V/m) @ t=3.6
-38.65617393931422
% es.tEY (V/m) @ t=3.6
0
% es.tEZ (V/m) @ t=3.6
51.75890546262255
% es.Ex (V/m) @ t=3.6
-38.65617393931417
% es.Ey (V/m) @ t=3.6
-4.17183302534902
% es.Ez (V/m) @ t=3.6
51.75890546262265
% es.tEx (V/m) @ t=3.6
-38.65617393931422
% es.tEy (V/m) @ t=3.6
0
% es.tEz (V/m) @ t=3.6
51.75890546262255
% V (V) @ t=3.6
0.057132650678251115
% es.normE (V/m) @ t=3.7
70.41453940623494
% es.EX (V/m) @ t=3.7
-39.126007442874815
% es.EY (V/m) @ t=3.7
-4.22259262090901
% es.EZ (V/m) @ t=3.7
52.38809413470491
% es.tEX (V/m) @ t=3.7
-39.12600744287492
% es.tEY (V/m) @ t=3.7
0
% es.tEZ (V/m) @ t=3.7
52.38809413470485
% es.Ex (V/m) @ t=3.7
-39.126007442874815
% es.Ey (V/m) @ t=3.7
-4.22259262090901
% es.Ez (V/m) @ t=3.7
52.38809413470491
% es.tEx (V/m) @ t=3.7
-39.12600744287492
% es.tEy (V/m) @ t=3.7
0
% es.tEz (V/m) @ t=3.7
52.38809413470485
% V (V) @ t=3.7
0.0578272742804892
% es.normE (V/m) @ t=3.8
71.24258019815208
% es.EX (V/m) @ t=3.8
-39.58591397888404
% es.EY (V/m) @ t=3.8
-4.272396507052024
% es.EZ (V/m) @ t=3.8
53.00420836545197
% es.tEX (V/m) @ t=3.8
-39.585913978884086
% es.tEY (V/m) @ t=3.8
0
% es.tEZ (V/m) @ t=3.8
53.00420836545196
% es.Ex (V/m) @ t=3.8
-39.58591397888404
% es.Ey (V/m) @ t=3.8
-4.272396507052024
% es.Ez (V/m) @ t=3.8
53.00420836545197
% es.tEx (V/m) @ t=3.8
-39.585913978884086
% es.tEy (V/m) @ t=3.8
0
% es.tEz (V/m) @ t=3.8
53.00420836545196
% V (V) @ t=3.8
0.058507701614874764
% es.normE (V/m) @ t=3.9
72.05651895809724
% es.EX (V/m) @ t=3.9
-40.0378277181283
% es.EY (V/m) @ t=3.9
-4.321473285900108
% es.EZ (V/m) @ t=3.9
53.609875258694075
% es.tEX (V/m) @ t=3.9
-40.037827718128405
% es.tEY (V/m) @ t=3.9
0
% es.tEZ (V/m) @ t=3.9
53.609875258694
% es.Ex (V/m) @ t=3.9
-40.0378277181283
% es.Ey (V/m) @ t=3.9
-4.321473285900108
% es.Ez (V/m) @ t=3.9
53.609875258694075
% es.tEx (V/m) @ t=3.9
-40.037827718128405
% es.tEy (V/m) @ t=3.9
0
% es.tEz (V/m) @ t=3.9
53.609875258694
% V (V) @ t=3.9
0.059176873012429694
% es.normE (V/m) @ t=4
72.85281457651801
% es.EX (V/m) @ t=4
-40.47996598177688
% es.EY (V/m) @ t=4
-4.369470915346538
% es.EZ (V/m) @ t=4
54.20240779660403
% es.tEX (V/m) @ t=4
-40.47996598177698
% es.tEY (V/m) @ t=4
0
% es.tEZ (V/m) @ t=4
54.20240779660395
% es.Ex (V/m) @ t=4
-40.47996598177688
% es.Ey (V/m) @ t=4
-4.369470915346538
% es.Ez (V/m) @ t=4
54.20240779660403
% es.tEx (V/m) @ t=4
-40.47996598177698
% es.tEy (V/m) @ t=4
0
% es.tEz (V/m) @ t=4
54.20240779660395
% V (V) @ t=4
0.05983149717353726
% es.normE (V/m) @ t=4.1
73.63170447286902
% es.EX (V/m) @ t=4.1
-40.91253439754648
% es.EY (V/m) @ t=4.1
-4.416347965452969
% es.EZ (V/m) @ t=4.1
54.781961719058906
% es.tEX (V/m) @ t=4.1
-40.91253439754659
% es.tEY (V/m) @ t=4.1
0
% es.tEZ (V/m) @ t=4.1
54.78196171905882
% es.Ex (V/m) @ t=4.1
-40.91253439754648
% es.Ey (V/m) @ t=4.1
-4.416347965452969
% es.Ez (V/m) @ t=4.1
54.781961719058906
% es.tEx (V/m) @ t=4.1
-40.91253439754659
% es.tEy (V/m) @ t=4.1
0
% es.tEz (V/m) @ t=4.1
54.78196171905882
% V (V) @ t=4.1
0.06047161637224544
% es.normE (V/m) @ t=4.2
74.39793226810005
% es.EX (V/m) @ t=4.2
-41.33810980580776
% es.EY (V/m) @ t=4.2
-4.462433435834887
% es.EZ (V/m) @ t=4.2
55.352082979104615
% es.tEX (V/m) @ t=4.2
-41.33810980580781
% es.tEY (V/m) @ t=4.2
0
% es.tEZ (V/m) @ t=4.2
55.35208297910456
% es.Ex (V/m) @ t=4.2
-41.33810980580776
% es.Ey (V/m) @ t=4.2
-4.462433435834887
% es.Ez (V/m) @ t=4.2
55.352082979104615
% es.tEx (V/m) @ t=4.2
-41.33810980580781
% es.tEy (V/m) @ t=4.2
0
% es.tEz (V/m) @ t=4.2
55.35208297910456
% V (V) @ t=4.2
0.06110124843258293
% es.normE (V/m) @ t=4.3
75.1534281398054
% es.EX (V/m) @ t=4.3
-41.75778858196097
% es.EY (V/m) @ t=4.3
-4.507825048674212
% es.EZ (V/m) @ t=4.3
55.91420085255415
% es.tEX (V/m) @ t=4.3
-41.75778858196102
% es.tEY (V/m) @ t=4.3
0
% es.tEZ (V/m) @ t=4.3
55.914200852554075
% es.Ex (V/m) @ t=4.3
-41.75778858196097
% es.Ey (V/m) @ t=4.3
-4.507825048674212
% es.Ez (V/m) @ t=4.3
55.91420085255415
% es.tEx (V/m) @ t=4.3
-41.75778858196102
% es.tEy (V/m) @ t=4.3
0
% es.tEz (V/m) @ t=4.3
55.914200852554075
% V (V) @ t=4.3
0.06172192904671461
% es.normE (V/m) @ t=4.4
75.90012226563823
% es.EX (V/m) @ t=4.4
-42.17266710140608
% es.EY (V/m) @ t=4.4
-4.552620526152658
% es.EZ (V/m) @ t=4.4
56.469744615221025
% es.tEX (V/m) @ t=4.4
-42.17266710140612
% es.tEY (V/m) @ t=4.4
0
% es.tEZ (V/m) @ t=4.4
56.469744615220975
% es.Ex (V/m) @ t=4.4
-42.17266710140608
% es.Ey (V/m) @ t=4.4
-4.552620526152658
% es.Ez (V/m) @ t=4.4
56.469744615221025
% es.tEx (V/m) @ t=4.4
-42.17266710140612
% es.tEy (V/m) @ t=4.4
0
% es.tEz (V/m) @ t=4.4
56.469744615220975
% V (V) @ t=4.4
0.06233519390680532
% es.normE (V/m) @ t=4.5
76.63994482384632
% es.EX (V/m) @ t=4.5
-42.58384173954369
% es.EY (V/m) @ t=4.5
-4.596917590451401
% es.EZ (V/m) @ t=4.5
57.020143542918206
% es.tEX (V/m) @ t=4.5
-42.58384173954374
% es.tEY (V/m) @ t=4.5
0
% es.tEZ (V/m) @ t=4.5
57.02014354291816
% es.Ex (V/m) @ t=4.5
-42.58384173954369
% es.Ey (V/m) @ t=4.5
-4.596917590451401
% es.Ez (V/m) @ t=4.5
57.020143542918206
% es.tEx (V/m) @ t=4.5
-42.58384173954374
% es.tEy (V/m) @ t=4.5
0
% es.tEz (V/m) @ t=4.5
57.02014354291816
% V (V) @ t=4.5
0.0629425787050199
% es.normE (V/m) @ t=4.6
77.37482599394463
% es.EX (V/m) @ t=4.6
-42.992408871774174
% es.EY (V/m) @ t=4.6
-4.640813963752663
% es.EZ (V/m) @ t=4.6
57.56682691145933
% es.tEX (V/m) @ t=4.6
-42.992408871774224
% es.tEY (V/m) @ t=4.6
0
% es.tEZ (V/m) @ t=4.6
57.56682691145923
% es.Ex (V/m) @ t=4.6
-42.992408871774174
% es.Ey (V/m) @ t=4.6
-4.640813963752663
% es.Ez (V/m) @ t=4.6
57.56682691145933
% es.tEx (V/m) @ t=4.6
-42.992408871774224
% es.tEy (V/m) @ t=4.6
0
% es.tEz (V/m) @ t=4.6
57.56682691145923
% V (V) @ t=4.6
0.06354561913352323
% es.normE (V/m) @ t=4.7
78.10669595750905
% es.EX (V/m) @ t=4.7
-43.399464873497216
% es.EY (V/m) @ t=4.7
-4.684407368237441
% es.EZ (V/m) @ t=4.7
58.11122399665751
% es.tEX (V/m) @ t=4.7
-43.399464873497266
% es.tEY (V/m) @ t=4.7
0
% es.tEZ (V/m) @ t=4.7
58.11122399665741
% es.Ex (V/m) @ t=4.7
-43.399464873497216
% es.Ey (V/m) @ t=4.7
-4.684407368237441
% es.Ez (V/m) @ t=4.7
58.11122399665751
% es.tEx (V/m) @ t=4.7
-43.399464873497266
% es.tEy (V/m) @ t=4.7
0
% es.tEz (V/m) @ t=4.7
58.11122399665741
% V (V) @ t=4.7
0.06414585088448019
% es.normE (V/m) @ t=4.8
78.81606687041882
% es.EX (V/m) @ t=4.8
-43.79387241425533
% es.EY (V/m) @ t=4.8
-4.726762432739974
% es.EZ (V/m) @ t=4.8
58.63892352719789
% es.tEX (V/m) @ t=4.8
-43.79387241425547
% es.tEY (V/m) @ t=4.8
0
% es.tEZ (V/m) @ t=4.8
58.63892352719783
% es.Ex (V/m) @ t=4.8
-43.79387241425533
% es.Ey (V/m) @ t=4.8
-4.726762432739974
% es.Ez (V/m) @ t=4.8
58.63892352719789
% es.tEx (V/m) @ t=4.8
-43.79387241425547
% es.tEy (V/m) @ t=4.8
0
% es.tEz (V/m) @ t=4.8
58.63892352719783
% V (V) @ t=4.8
0.06472790965721884
% es.normE (V/m) @ t=4.9
79.48558902919564
% es.EX (V/m) @ t=4.9
-44.16571544640555
% es.EY (V/m) @ t=4.9
-4.7670469191232705
% es.EZ (V/m) @ t=4.9
59.137095583175025
% es.tEX (V/m) @ t=4.9
-44.1657154464056
% es.tEY (V/m) @ t=4.9
0
% es.tEZ (V/m) @ t=4.9
59.13709558317494
% es.Ex (V/m) @ t=4.9
-44.16571544640555
% es.Ey (V/m) @ t=4.9
-4.7670469191232705
% es.Ez (V/m) @ t=4.9
59.137095583175025
% es.tEx (V/m) @ t=4.9
-44.1657154464056
% es.tEy (V/m) @ t=4.9
0
% es.tEz (V/m) @ t=4.9
59.13709558317494
% V (V) @ t=4.9
0.06527811826624463
% es.normE (V/m) @ t=5
80.13622930037778
% es.EX (V/m) @ t=5
-44.52696385984065
% es.EY (V/m) @ t=5
-4.806276779549995
% es.EZ (V/m) @ t=5
59.621248773414855
% es.tEX (V/m) @ t=5
-44.5269638598407
% es.tEY (V/m) @ t=5
0
% es.tEZ (V/m) @ t=5
59.621248773414784
% es.Ex (V/m) @ t=5
-44.52696385984065
% es.Ey (V/m) @ t=5
-4.806276779549995
% es.Ez (V/m) @ t=5
59.621248773414855
% es.tEx (V/m) @ t=5
-44.5269638598407
% es.tEy (V/m) @ t=5
0
% es.tEz (V/m) @ t=5
59.621248773414784
% V (V) @ t=5
0.06581303338911808
% es.normE (V/m) @ t=5.1
80.76729924048976
% es.EX (V/m) @ t=5.1
-44.87721830445748
% es.EY (V/m) @ t=5.1
-4.844423427453631
% es.EZ (V/m) @ t=5.1
60.09087566619524
% es.tEX (V/m) @ t=5.1
-44.87721830445767
% es.tEY (V/m) @ t=5.1
0
% es.tEZ (V/m) @ t=5.1
60.090875666195124
% es.Ex (V/m) @ t=5.1
-44.87721830445748
% es.Ey (V/m) @ t=5.1
-4.844423427453631
% es.Ez (V/m) @ t=5.1
60.09087566619524
% es.tEx (V/m) @ t=5.1
-44.87721830445767
% es.tEy (V/m) @ t=5.1
0
% es.tEz (V/m) @ t=5.1
60.090875666195124
% V (V) @ t=5.1
0.06633212447981102
% es.normE (V/m) @ t=5.2
81.3781104077765
% es.EX (V/m) @ t=5.2
-45.21607943015396
% es.EY (V/m) @ t=5.2
-4.881458276268056
% es.EZ (V/m) @ t=5.2
60.545468829794466
% es.tEX (V/m) @ t=5.2
-45.21607943015407
% es.tEY (V/m) @ t=5.2
0
% es.tEZ (V/m) @ t=5.2
60.5454688297944
% es.Ex (V/m) @ t=5.2
-45.21607943015396
% es.Ey (V/m) @ t=5.2
-4.881458276268056
% es.Ez (V/m) @ t=5.2
60.545468829794466
% es.tEx (V/m) @ t=5.2
-45.21607943015407
% es.tEy (V/m) @ t=5.2
0
% es.tEz (V/m) @ t=5.2
60.5454688297944
% V (V) @ t=5.2
0.06683486099229524
% es.normE (V/m) @ t=5.3
81.96797436272814
% es.EX (V/m) @ t=5.3
-45.54314788682683
% es.EY (V/m) @ t=5.3
-4.917352739427301
% es.EZ (V/m) @ t=5.3
60.984520832489615
% es.tEX (V/m) @ t=5.3
-45.543147886826844
% es.tEY (V/m) @ t=5.3
0
% es.tEZ (V/m) @ t=5.3
60.984520832489544
% es.Ex (V/m) @ t=5.3
-45.54314788682683
% es.Ey (V/m) @ t=5.3
-4.917352739427301
% es.Ez (V/m) @ t=5.3
60.984520832489615
% es.tEx (V/m) @ t=5.3
-45.543147886826844
% es.tEy (V/m) @ t=5.3
0
% es.tEz (V/m) @ t=5.3
60.984520832489544
% V (V) @ t=5.3
0.06732071238054262
% es.normE (V/m) @ t=5.4
82.53620266867264
% es.EX (V/m) @ t=5.4
-45.85802432437327
% es.EY (V/m) @ t=5.4