% Model:              1x1--2 - Copy1.mph
% Version:            COMSOL 6.1.0.252
% Date:               Mar 28 2023, 10:21
% Dimension:          0
% Nodes:              14017
% Expressions:        14017
% Description:        Electric field norm, Electric field, X component, Electric field, Y component, Electric field, Z component, Tangential electric field, X component, Tangential electric field, Y component, Tangential electric field, Z component, Electric field, x component, Electric field, y component, Electric field, z component, Tangential electric field, x component, Tangential electric field, y component, Tangential electric field, z component, Electric potential
% Length unit:        mm
% x
1.33
% y
12.2
% z
1
% es.normE (V/m) @ t=0
3.7103952684384893
% es.EX (V/m) @ t=0
1.145263307767445
% es.EY (V/m) @ t=0
0.27745529661151136
% es.EZ (V/m) @ t=0
3.5182729680759426
% es.tEX (V/m) @ t=0
1.1452633077674506
% es.tEY (V/m) @ t=0
0
% es.tEZ (V/m) @ t=0
3.5182729680759444
% es.Ex (V/m) @ t=0
1.145263307767445
% es.Ey (V/m) @ t=0
0.27745529661151136
% es.Ez (V/m) @ t=0
3.5182729680759426
% es.tEx (V/m) @ t=0
1.1452633077674506
% es.tEy (V/m) @ t=0
0
% es.tEz (V/m) @ t=0
3.5182729680759444
% V (V) @ t=0
0.017353620820154902
% es.normE (V/m) @ t=0.1
3.8901763281533395
% es.EX (V/m) @ t=0.1
1.2007551874833053
% es.EY (V/m) @ t=0.1
0.29089893550469936
% es.EZ (V/m) @ t=0.1
3.6887450459435325
% es.tEX (V/m) @ t=0.1
1.2007551874833098
% es.tEY (V/m) @ t=0.1
0
% es.tEZ (V/m) @ t=0.1
3.688745045943545
% es.Ex (V/m) @ t=0.1
1.2007551874833053
% es.Ey (V/m) @ t=0.1
0.29089893550469936
% es.Ez (V/m) @ t=0.1
3.6887450459435325
% es.tEx (V/m) @ t=0.1
1.2007551874833098
% es.tEy (V/m) @ t=0.1
0
% es.tEz (V/m) @ t=0.1
3.688745045943545
% V (V) @ t=0.1
0.018194456730271508
% es.normE (V/m) @ t=0.2
4.1562899528719015
% es.EX (V/m) @ t=0.2
1.2828937701535754
% es.EY (V/m) @ t=0.2
0.3107983137250143
% es.EZ (V/m) @ t=0.2
3.9410797616921975
% es.tEX (V/m) @ t=0.2
1.2828937701535779
% es.tEY (V/m) @ t=0.2
0
% es.tEZ (V/m) @ t=0.2
3.941079761692226
% es.Ex (V/m) @ t=0.2
1.2828937701535754
% es.Ey (V/m) @ t=0.2
0.3107983137250143
% es.Ez (V/m) @ t=0.2
3.9410797616921975
% es.tEx (V/m) @ t=0.2
1.2828937701535779
% es.tEy (V/m) @ t=0.2
0
% es.tEz (V/m) @ t=0.2
3.941079761692226
% V (V) @ t=0.2
0.019439160418579383
% es.normE (V/m) @ t=0.3
4.4356446431717895
% es.EX (V/m) @ t=0.3
1.3691190370368973
% es.EY (V/m) @ t=0.3
0.33168781601293085
% es.EZ (V/m) @ t=0.3
4.205970041942454
% es.tEX (V/m) @ t=0.3
1.36911903703691
% es.tEY (V/m) @ t=0.3
0
% es.tEZ (V/m) @ t=0.3
4.2059700419424715
% es.Ex (V/m) @ t=0.3
1.3691190370368973
% es.Ey (V/m) @ t=0.3
0.33168781601293085
% es.Ez (V/m) @ t=0.3
4.205970041942454
% es.tEx (V/m) @ t=0.3
1.36911903703691
% es.tEy (V/m) @ t=0.3
0
% es.tEz (V/m) @ t=0.3
4.2059700419424715
% V (V) @ t=0.3
0.020745823317118176
% es.normE (V/m) @ t=0.4
4.737401749855999
% es.EX (V/m) @ t=0.4
1.4622563750352837
% es.EY (V/m) @ t=0.4
0.35425242004428936
% es.EZ (V/m) @ t=0.4
4.492103649907719
% es.tEX (V/m) @ t=0.4
1.462256375035281
% es.tEY (V/m) @ t=0.4
0
% es.tEZ (V/m) @ t=0.4
4.4921036499077545
% es.Ex (V/m) @ t=0.4
1.4622563750352837
% es.Ey (V/m) @ t=0.4
0.35425242004428936
% es.Ez (V/m) @ t=0.4
4.492103649907719
% es.tEx (V/m) @ t=0.4
1.462256375035281
% es.tEy (V/m) @ t=0.4
0
% es.tEz (V/m) @ t=0.4
4.4921036499077545
% V (V) @ t=0.4
0.022157501836631566
% es.normE (V/m) @ t=0.5
5.051981574421131
% es.EX (V/m) @ t=0.5
1.5593497400853205
% es.EY (V/m) @ t=0.5
0.3777758100711601
% es.EZ (V/m) @ t=0.5
4.790396637322195
% es.tEX (V/m) @ t=0.5
1.559349740085338
% es.tEY (V/m) @ t=0.5
0
% es.tEZ (V/m) @ t=0.5
4.7903966373222
% es.Ex (V/m) @ t=0.5
1.5593497400853205
% es.Ey (V/m) @ t=0.5
0.3777758100711601
% es.Ez (V/m) @ t=0.5
4.790396637322195
% es.tEx (V/m) @ t=0.5
1.559349740085338
% es.tEy (V/m) @ t=0.5
0
% es.tEz (V/m) @ t=0.5
4.7903966373222
% V (V) @ t=0.5
0.023629316503131565
% es.normE (V/m) @ t=0.6
5.375221792248707
% es.EX (V/m) @ t=0.6
1.6591196511850117
% es.EY (V/m) @ t=0.6
0.4019469212166058
% es.EZ (V/m) @ t=0.6
5.096900474075786
% es.tEX (V/m) @ t=0.6
1.6591196511849944
% es.tEY (V/m) @ t=0.6
0
% es.tEZ (V/m) @ t=0.6
5.096900474075792
% es.Ex (V/m) @ t=0.6
1.6591196511850117
% es.Ey (V/m) @ t=0.6
0.4019469212166058
% es.Ez (V/m) @ t=0.6
5.096900474075786
% es.tEx (V/m) @ t=0.6
1.6591196511849944
% es.tEy (V/m) @ t=0.6
0
% es.tEz (V/m) @ t=0.6
5.096900474075792
% V (V) @ t=0.6
0.025141339012231367
% es.normE (V/m) @ t=0.7
5.7176688334712935
% es.EX (V/m) @ t=0.7
1.7648255452988915
% es.EY (V/m) @ t=0.7
0.42755453354175454
% es.EZ (V/m) @ t=0.7
5.421614145932278
% es.tEX (V/m) @ t=0.7
1.7648255452989048
% es.tEY (V/m) @ t=0.7
0
% es.tEZ (V/m) @ t=0.7
5.421614145932331
% es.Ex (V/m) @ t=0.7
1.7648255452988915
% es.Ey (V/m) @ t=0.7
0.42755453354175454
% es.Ez (V/m) @ t=0.7
5.421614145932278
% es.tEx (V/m) @ t=0.7
1.7648255452989048
% es.tEy (V/m) @ t=0.7
0
% es.tEz (V/m) @ t=0.7
5.421614145932331
% V (V) @ t=0.7
0.026742533561073
% es.normE (V/m) @ t=0.8
6.06088263216575
% es.EX (V/m) @ t=0.8
1.8707680347685494
% es.EY (V/m) @ t=0.8
0.4532194794988156
% es.EZ (V/m) @ t=0.8
5.747054897422608
% es.tEX (V/m) @ t=0.8
1.8707680347685312
% es.tEY (V/m) @ t=0.8
0
% es.tEZ (V/m) @ t=0.8
5.747054897422622
% es.Ex (V/m) @ t=0.8
1.8707680347685494
% es.Ey (V/m) @ t=0.8
0.4532194794988156
% es.Ez (V/m) @ t=0.8
5.747054897422608
% es.tEx (V/m) @ t=0.8
1.8707680347685312
% es.tEy (V/m) @ t=0.8
0
% es.tEz (V/m) @ t=0.8
5.747054897422622
% V (V) @ t=0.8
0.02834732076508333
% es.normE (V/m) @ t=0.9
6.424911863378021
% es.EX (V/m) @ t=0.9
1.9831334609313553
% es.EY (V/m) @ t=0.9
0.4804408815716523
% es.EZ (V/m) @ t=0.9
6.092233933481346
% es.tEX (V/m) @ t=0.9
1.9831334609313558
% es.tEY (V/m) @ t=0.9
0
% es.tEZ (V/m) @ t=0.9
6.092233933481367
% es.Ex (V/m) @ t=0.9
1.9831334609313553
% es.Ey (V/m) @ t=0.9
0.4804408815716523
% es.Ez (V/m) @ t=0.9
6.092233933481346
% es.tEx (V/m) @ t=0.9
1.9831334609313558
% es.tEy (V/m) @ t=0.9
0
% es.tEz (V/m) @ t=0.9
6.092233933481367
% V (V) @ t=0.9
0.03004963903279239
% es.normE (V/m) @ t=1
6.788941094591873
% es.EX (V/m) @ t=1
2.0954988870941604
% es.EY (V/m) @ t=1
0.5076622836445108
% es.EZ (V/m) @ t=1
6.437412969540038
% es.tEX (V/m) @ t=1
2.095498887094152
% es.tEY (V/m) @ t=1
0
% es.tEZ (V/m) @ t=1
6.437412969540048
% es.Ex (V/m) @ t=1
2.0954988870941604
% es.Ey (V/m) @ t=1
0.5076622836445108
% es.Ez (V/m) @ t=1
6.437412969540038
% es.tEx (V/m) @ t=1
2.095498887094152
% es.tEy (V/m) @ t=1
0
% es.tEz (V/m) @ t=1
6.437412969540048
% V (V) @ t=1
0.03175195730050145
% es.normE (V/m) @ t=1.1
7.154757880557668
% es.EX (V/m) @ t=1.1
2.2084124553308913
% es.EY (V/m) @ t=1.1
0.5350172447501809
% es.EZ (V/m) @ t=1.1
6.784288183332398
% es.tEX (V/m) @ t=1.1
2.2084124553309152
% es.tEY (V/m) @ t=1.1
0
% es.tEZ (V/m) @ t=1.1
6.784288183332386
% es.Ex (V/m) @ t=1.1
2.2084124553308913
% es.Ey (V/m) @ t=1.1
0.5350172447501809
% es.Ez (V/m) @ t=1.1
6.784288183332398
% es.tEx (V/m) @ t=1.1
2.2084124553309152
% es.tEy (V/m) @ t=1.1
0
% es.tEz (V/m) @ t=1.1
6.784288183332386
% V (V) @ t=1.1
0.03346295194512043
% es.normE (V/m) @ t=1.2
7.5225017183945795
% es.EX (V/m) @ t=1.2
2.321916941528249
% es.EY (V/m) @ t=1.2
0.5625161875622711
% es.EZ (V/m) @ t=1.2
7.1329919411006575
% es.tEX (V/m) @ t=1.2
2.3219169415282295
% es.tEY (V/m) @ t=1.2
0
% es.tEZ (V/m) @ t=1.2
7.13299194110067
% es.Ex (V/m) @ t=1.2
2.321916941528249
% es.Ey (V/m) @ t=1.2
0.5625161875622711
% es.Ez (V/m) @ t=1.2
7.1329919411006575
% es.tEx (V/m) @ t=1.2
2.3219169415282295
% es.tEy (V/m) @ t=1.2
0
% es.tEz (V/m) @ t=1.2
7.13299194110067
% V (V) @ t=1.2
0.035183300053363425
% es.normE (V/m) @ t=1.3
7.891794661740157
% es.EX (V/m) @ t=1.3
2.435896450882966
% es.EY (V/m) @ t=1.3
0.5901308734205917
% es.EZ (V/m) @ t=1.3
7.483165616506591
% es.tEX (V/m) @ t=1.3
2.4358964508829786
% es.tEY (V/m) @ t=1.3
0
% es.tEZ (V/m) @ t=1.3
7.483165616506632
% es.Ex (V/m) @ t=1.3
2.435896450882966
% es.Ey (V/m) @ t=1.3
0.5901308734205917
% es.Ez (V/m) @ t=1.3
7.483165616506591
% es.tEx (V/m) @ t=1.3
2.4358964508829786
% es.tEy (V/m) @ t=1.3
0
% es.tEz (V/m) @ t=1.3
7.483165616506632
% V (V) @ t=1.3
0.036911167161058876
% es.normE (V/m) @ t=1.4
8.262636710603143
% es.EX (V/m) @ t=1.4
2.5503509833949782
% es.EY (V/m) @ t=1.4
0.6178613023253314
% es.EZ (V/m) @ t=1.4
7.83480920954997
% es.tEX (V/m) @ t=1.4
2.5503509833949636
% es.tEY (V/m) @ t=1.4
0
% es.tEZ (V/m) @ t=1.4
7.834809209549938
% es.Ex (V/m) @ t=1.4
2.5503509833949782
% es.Ey (V/m) @ t=1.4
0.6178613023253314
% es.Ez (V/m) @ t=1.4
7.83480920954997
% es.tEx (V/m) @ t=1.4
2.5503509833949636
% es.tEy (V/m) @ t=1.4
0
% es.tEz (V/m) @ t=1.4
7.834809209549938
% V (V) @ t=1.4
0.038646553268206776
% es.normE (V/m) @ t=1.5
8.632859597676354
% es.EX (V/m) @ t=1.5
2.6646154021484594
% es.EY (V/m) @ t=1.5
0.645545464553896
% es.EZ (V/m) @ t=1.5
8.185865373611023
% es.tEX (V/m) @ t=1.5
2.6646154021484847
% es.tEY (V/m) @ t=1.5
0
% es.tEZ (V/m) @ t=1.5
8.185865373611072
% es.Ex (V/m) @ t=1.5
2.6646154021484594
% es.Ey (V/m) @ t=1.5
0.645545464553896
% es.Ez (V/m) @ t=1.5
8.185865373611023
% es.tEx (V/m) @ t=1.5
2.6646154021484847
% es.tEy (V/m) @ t=1.5
0
% es.tEz (V/m) @ t=1.5
8.185865373611072
% V (V) @ t=1.5
0.040378956303290525
% es.normE (V/m) @ t=1.6
8.993837693381057
% es.EX (V/m) @ t=1.6
2.7760437120643378
% es.EY (V/m) @ t=1.6
0.6725388658404685
% es.EZ (V/m) @ t=1.6
8.528149735061588
% es.tEX (V/m) @ t=1.6
2.776043712064336
% es.tEY (V/m) @ t=1.6
0
% es.tEZ (V/m) @ t=1.6
8.52814973506159
% es.Ex (V/m) @ t=1.6
2.7760437120643378
% es.Ey (V/m) @ t=1.6
0.6725388658404685
% es.Ez (V/m) @ t=1.6
8.528149735061588
% es.tEx (V/m) @ t=1.6
2.776043712064336
% es.tEy (V/m) @ t=1.6
0
% es.tEz (V/m) @ t=1.6
8.52814973506159
% V (V) @ t=1.6
0.042066597755907174
% es.normE (V/m) @ t=1.7
9.352022511843574
% es.EX (V/m) @ t=1.7
2.886614977331426
% es.EY (V/m) @ t=1.7
0.6993235537640334
% es.EZ (V/m) @ t=1.7
8.86778377193591
% es.tEX (V/m) @ t=1.7
2.8866149773314476
% es.tEY (V/m) @ t=1.7
0
% es.tEZ (V/m) @ t=1.7
8.867783771935997
% es.Ex (V/m) @ t=1.7
2.886614977331426
% es.Ey (V/m) @ t=1.7
0.6993235537640334
% es.Ez (V/m) @ t=1.7
8.86778377193591
% es.tEx (V/m) @ t=1.7
2.8866149773314476
% es.tEy (V/m) @ t=1.7
0
% es.tEz (V/m) @ t=1.7
8.867783771935997
% V (V) @ t=1.7
0.04374072573927436
% es.normE (V/m) @ t=1.8
9.707414053087444
% es.EX (V/m) @ t=1.8
2.9963291979499056
% es.EY (V/m) @ t=1.8
0.7258995283243492
% es.EZ (V/m) @ t=1.8
9.204767484234536
% es.tEX (V/m) @ t=1.8
2.996329197949933
% es.tEY (V/m) @ t=1.8
0
% es.tEZ (V/m) @ t=1.8
9.204767484234452
% es.Ex (V/m) @ t=1.8
2.9963291979499056
% es.Ey (V/m) @ t=1.8
0.7258995283243492
% es.Ez (V/m) @ t=1.8
9.204767484234536
% es.tEx (V/m) @ t=1.8
2.996329197949933
% es.tEy (V/m) @ t=1.8
0
% es.tEz (V/m) @ t=1.8
9.204767484234452
% V (V) @ t=1.8
0.045401340253392056
% es.normE (V/m) @ t=1.9
10.058412552119446
% es.EX (V/m) @ t=1.9
3.104690928882136
% es.EY (V/m) @ t=1.9
0.7521471115050615
% es.EZ (V/m) @ t=1.9
9.537584483921727
% es.tEX (V/m) @ t=1.9
3.1046909288821496
% es.tEY (V/m) @ t=1.9
0
% es.tEZ (V/m) @ t=1.9
9.53758448392172
% es.Ex (V/m) @ t=1.9
3.104690928882136
% es.Ey (V/m) @ t=1.9
0.7521471115050615
% es.Ez (V/m) @ t=1.9
9.537584483921727
% es.tEx (V/m) @ t=1.9
3.1046909288821496
% es.tEy (V/m) @ t=1.9
0
% es.tEz (V/m) @ t=1.9
9.53758448392172
% V (V) @ t=1.9
0.04704110410546323
% es.normE (V/m) @ t=2
10.3905235540117
% es.EX (V/m) @ t=2
3.2072112572777844
% es.EY (V/m) @ t=2
0.776981976800398
% es.EZ (V/m) @ t=2
9.852495741998519
% es.tEX (V/m) @ t=2
3.207211257277777
% es.tEY (V/m) @ t=2
0
% es.tEZ (V/m) @ t=2
9.852495741998531
% es.Ex (V/m) @ t=2
3.2072112572777844
% es.Ey (V/m) @ t=2
0.776981976800398
% es.Ez (V/m) @ t=2
9.852495741998519
% es.tEx (V/m) @ t=2
3.207211257277777
% es.tEy (V/m) @ t=2
0
% es.tEz (V/m) @ t=2
9.852495741998531
% V (V) @ t=2
0.048593539651067025
% es.normE (V/m) @ t=2.1
10.7131945698964
% es.EX (V/m) @ t=2.1
3.306816064410972
% es.EY (V/m) @ t=2.1
0.8011108901297908
% es.EZ (V/m) @ t=2.1
10.158456381679175
% es.tEX (V/m) @ t=2.1
3.306816064410981
% es.tEY (V/m) @ t=2.1
0
% es.tEZ (V/m) @ t=2.1
10.158456381679287
% es.Ex (V/m) @ t=2.1
3.306816064410972
% es.Ey (V/m) @ t=2.1
0.8011108901297908
% es.Ez (V/m) @ t=2.1
10.158456381679175
% es.tEx (V/m) @ t=2.1
3.306816064410981
% es.tEy (V/m) @ t=2.1
0
% es.tEz (V/m) @ t=2.1
10.158456381679287
% V (V) @ t=2.1
0.05010197713550903
% es.normE (V/m) @ t=2.2
11.026425599769599
% es.EX (V/m) @ t=2.2
3.4035053502817822
% es.EY (V/m) @ t=2.2
0.8245338514933831
% es.EZ (V/m) @ t=2.2
10.455466402963989
% es.tEX (V/m) @ t=2.2
3.403505350281762
% es.tEY (V/m) @ t=2.2
0
% es.tEZ (V/m) @ t=2.2
10.455466402964007
% es.Ex (V/m) @ t=2.2
3.4035053502817822
% es.Ey (V/m) @ t=2.2
0.8245338514933831
% es.Ez (V/m) @ t=2.2
10.455466402963989
% es.tEx (V/m) @ t=2.2
3.403505350281762
% es.tEy (V/m) @ t=2.2
0
% es.tEz (V/m) @ t=2.2
10.455466402964007
% V (V) @ t=2.2
0.05156641655878922
% es.normE (V/m) @ t=2.3
11.33010637022884
% es.EX (V/m) @ t=2.3
3.497244889595253
% es.EY (V/m) @ t=2.3
0.8472426081921984
% es.EZ (V/m) @ t=2.3
10.743421303923963
% es.tEX (V/m) @ t=2.3
3.497244889595237
% es.tEY (V/m) @ t=2.3
0
% es.tEZ (V/m) @ t=2.3
10.743421303924094
% es.Ex (V/m) @ t=2.3
3.497244889595253
% es.Ey (V/m) @ t=2.3
0.8472426081921984
% es.Ez (V/m) @ t=2.3
10.743421303923963
% es.tEx (V/m) @ t=2.3
3.497244889595237
% es.tEy (V/m) @ t=2.3
0
% es.tEz (V/m) @ t=2.3
10.743421303924094
% V (V) @ t=2.3
0.05298635856693038
% es.normE (V/m) @ t=2.4
11.617178861500413
% es.EX (V/m) @ t=2.4
3.5858441013981626
% es.EY (V/m) @ t=2.4
0.8687089484240156
% es.EZ (V/m) @ t=2.4
11.01563246622758
% es.tEX (V/m) @ t=2.4
3.5858441013981803
% es.tEY (V/m) @ t=2.4
0
% es.tEZ (V/m) @ t=2.4
11.0156324662276
% es.Ex (V/m) @ t=2.4
3.5858441013981626
% es.Ey (V/m) @ t=2.4
0.8687089484240156
% es.Ez (V/m) @ t=2.4
11.01563246622758
% es.tEx (V/m) @ t=2.4
3.5858441013981803
% es.tEy (V/m) @ t=2.4
0
% es.tEz (V/m) @ t=2.4
11.0156324662276
% V (V) @ t=2.4
0.054329842140553225
% es.normE (V/m) @ t=2.5
11.891975514435952
% es.EX (V/m) @ t=2.5
3.6706476351337614
% es.EY (V/m) @ t=2.5
0.8892571056783032
% es.EZ (V/m) @ t=2.5
11.27620558014981
% es.tEX (V/m) @ t=2.5
3.6706476351337756
% es.tEY (V/m) @ t=2.5
0
% es.tEZ (V/m) @ t=2.5
11.27620558014982
% es.Ex (V/m) @ t=2.5
3.6706476351337614
% es.Ey (V/m) @ t=2.5
0.8892571056783032
% es.Ez (V/m) @ t=2.5
11.27620558014981
% es.tEx (V/m) @ t=2.5
3.6706476351337756
% es.tEy (V/m) @ t=2.5
0
% es.tEz (V/m) @ t=2.5
11.27620558014982
% V (V) @ t=2.5
0.0556164859871303
% es.normE (V/m) @ t=2.6
12.154496329065658
% es.EX (V/m) @ t=2.6
3.7516554908020705
% es.EY (V/m) @ t=2.6
0.9088870799546074
% es.EZ (V/m) @ t=2.6
11.525140645690506
% es.tEX (V/m) @ t=2.6
3.7516554908021362
% es.tEY (V/m) @ t=2.6
0
% es.tEZ (V/m) @ t=2.6
11.525140645690527
% es.Ex (V/m) @ t=2.6
3.7516554908020705
% es.Ey (V/m) @ t=2.6
0.9088870799546074
% es.Ez (V/m) @ t=2.6
11.525140645690506
% es.tEx (V/m) @ t=2.6
3.7516554908021362
% es.tEy (V/m) @ t=2.6
0
% es.tEz (V/m) @ t=2.6
11.525140645690527
% V (V) @ t=2.6
0.05684629010666162
% es.normE (V/m) @ t=2.7
12.404741305429582
% es.EX (V/m) @ t=2.7
3.828867668403282
% es.EY (V/m) @ t=2.7
0.9275988712532364
% es.EZ (V/m) @ t=2.7
11.762437662849862
% es.tEX (V/m) @ t=2.7
3.828867668403234
% es.tEY (V/m) @ t=2.7
0
% es.tEZ (V/m) @ t=2.7
11.76243766284989
% es.Ex (V/m) @ t=2.7
3.828867668403282
% es.Ey (V/m) @ t=2.7
0.9275988712532364
% es.Ez (V/m) @ t=2.7
11.762437662849862
% es.tEx (V/m) @ t=2.7
3.828867668403234
% es.tEy (V/m) @ t=2.7
0
% es.tEz (V/m) @ t=2.7
11.76243766284989
% V (V) @ t=2.7
0.058019254499147174
% es.normE (V/m) @ t=2.8
12.64526482465187
% es.EX (V/m) @ t=2.8
3.903102335286391
% es.EY (V/m) @ t=2.8
0.9455844898023944
% es.EZ (V/m) @ t=2.8
11.990509014506202
% es.tEX (V/m) @ t=2.8
3.9031023352864054
% es.tEY (V/m) @ t=2.8
0
% es.tEZ (V/m) @ t=2.8
11.990509014506273
% es.Ex (V/m) @ t=2.8
3.903102335286391
% es.Ey (V/m) @ t=2.8
0.9455844898023944
% es.Ez (V/m) @ t=2.8
11.990509014506202
% es.tEx (V/m) @ t=2.8
3.9031023352864054
% es.tEy (V/m) @ t=2.8
0
% es.tEz (V/m) @ t=2.8
11.990509014506273
% V (V) @ t=2.8
0.059144729357781825
% es.normE (V/m) @ t=2.9
12.874784313817678
% es.EX (V/m) @ t=2.9
3.9739486838260856
% es.EY (V/m) @ t=2.9
0.9627475259051295
% es.EZ (V/m) @ t=2.9
12.208143426116791
% es.tEX (V/m) @ t=2.9
3.9739486838261087
% es.tEY (V/m) @ t=2.9
0
% es.tEZ (V/m) @ t=2.9
12.208143426116806
% es.Ex (V/m) @ t=2.9
3.9739486838260856
% es.Ey (V/m) @ t=2.9
0.9627475259051295
% es.Ez (V/m) @ t=2.9
12.208143426116791
% es.tEx (V/m) @ t=2.9
3.9739486838261087
% es.tEy (V/m) @ t=2.9
0
% es.tEz (V/m) @ t=2.9
12.208143426116806
% V (V) @ t=2.9
0.06021801988428627
% es.normE (V/m) @ t=3
13.09313023782374
% es.EX (V/m) @ t=3
4.041352411988932
% es.EY (V/m) @ t=3
0.9790752357804173
% es.EZ (V/m) @ t=3
12.415180787044253
% es.tEX (V/m) @ t=3
4.041352411988953
% es.tEY (V/m) @ t=3
0
% es.tEZ (V/m) @ t=3
12.415180787044278
% es.Ex (V/m) @ t=3
4.041352411988932
% es.Ey (V/m) @ t=3
0.9790752357804173
% es.Ez (V/m) @ t=3
12.415180787044253
% es.tEx (V/m) @ t=3
4.041352411988953
% es.tEy (V/m) @ t=3
0
% es.tEz (V/m) @ t=3
12.415180787044278
% V (V) @ t=3
0.061238505503292774
% es.normE (V/m) @ t=3.1
13.300302596683963
% es.EX (V/m) @ t=3.1
4.105313519774882
% es.EY (V/m) @ t=3.1
0.9945676194278192
% es.EZ (V/m) @ t=3.1
12.611621097288648
% es.tEX (V/m) @ t=3.1
4.105313519774882
% es.tEY (V/m) @ t=3.1
0
% es.tEZ (V/m) @ t=3.1
12.611621097288676
% es.Ex (V/m) @ t=3.1
4.105313519774882
% es.Ey (V/m) @ t=3.1
0.9945676194278192
% es.Ez (V/m) @ t=3.1
12.611621097288648
% es.tEx (V/m) @ t=3.1
4.105313519774882
% es.tEy (V/m) @ t=3.1
0
% es.tEz (V/m) @ t=3.1
12.611621097288676
% V (V) @ t=3.1
0.06220618621480132
% es.normE (V/m) @ t=3.2
13.503153491338036
% es.EX (V/m) @ t=3.2
4.167934248728162
% es.EY (V/m) @ t=3.2
1.009736636739956
% es.EZ (V/m) @ t=3.2
12.80396583521274
% es.tEX (V/m) @ t=3.2
4.167934248728159
% es.tEY (V/m) @ t=3.2
0
% es.tEZ (V/m) @ t=3.2
12.803965835212793
% es.Ex (V/m) @ t=3.2
4.167934248728162
% es.Ey (V/m) @ t=3.2
1.009736636739956
% es.Ez (V/m) @ t=3.2
12.80396583521274
% es.tEx (V/m) @ t=3.2
4.167934248728159
% es.tEy (V/m) @ t=3.2
0
% es.tEz (V/m) @ t=3.2
12.803965835212793
% V (V) @ t=3.2
0.06315422368127713
% es.normE (V/m) @ t=3.3
13.699326563413909
% es.EX (V/m) @ t=3.3
4.2284916622644895
% es.EY (V/m) @ t=3.3
1.0244062306232244
% es.EZ (V/m) @ t=3.3
12.989979217505553
% es.tEX (V/m) @ t=3.3
4.228491662264503
% es.tEY (V/m) @ t=3.3
0
% es.tEZ (V/m) @ t=3.3
12.98997921750555
% es.Ex (V/m) @ t=3.3
4.2284916622644895
% es.Ey (V/m) @ t=3.3
1.0244062306232244
% es.Ez (V/m) @ t=3.3
12.989979217505553
% es.tEx (V/m) @ t=3.3
4.228491662264503
% es.tEy (V/m) @ t=3.3
0
% es.tEz (V/m) @ t=3.3
12.98997921750555
% V (V) @ t=3.3
0.064071213990047
% es.normE (V/m) @ t=3.4
13.88768765965057
% es.EX (V/m) @ t=3.4
4.286637799353407
% es.EY (V/m) @ t=3.4
1.0384916619606699
% es.EZ (V/m) @ t=3.4
13.16858512562181
% es.tEX (V/m) @ t=3.4
4.2866377993534
% es.tEY (V/m) @ t=3.4
0
% es.tEZ (V/m) @ t=3.4
13.168585125621831
% es.Ex (V/m) @ t=3.4
4.286637799353407
% es.Ey (V/m) @ t=3.4
1.0384916619606699
% es.Ez (V/m) @ t=3.4
13.16858512562181
% es.tEx (V/m) @ t=3.4
4.2866377993534
% es.tEy (V/m) @ t=3.4
0
% es.tEz (V/m) @ t=3.4
13.168585125621831
% V (V) @ t=3.4
0.06495166825412359
% es.normE (V/m) @ t=3.5
14.068236780047625
% es.EX (V/m) @ t=3.5
4.342372659994472
% es.EY (V/m) @ t=3.5
1.0519929307527889
% es.EZ (V/m) @ t=3.5
13.339783559561315
% es.tEX (V/m) @ t=3.5
4.34237265999451
% es.tEY (V/m) @ t=3.5
0
% es.tEZ (V/m) @ t=3.5
13.339783559561354
% es.Ex (V/m) @ t=3.5
4.342372659994472
% es.Ey (V/m) @ t=3.5
1.0519929307527889
% es.Ez (V/m) @ t=3.5
13.339783559561315
% es.tEx (V/m) @ t=3.5
4.34237265999451
% es.tEy (V/m) @ t=3.5
0
% es.tEz (V/m) @ t=3.5
13.339783559561354
% V (V) @ t=3.5
0.06579558647350686
% es.normE (V/m) @ t=3.6
14.244755827893414
% es.EX (V/m) @ t=3.6
4.39686020842923
% es.EY (V/m) @ t=3.6
1.0651927288062657
% es.EZ (V/m) @ t=3.6
13.507161701408876
% es.tEX (V/m) @ t=3.6
4.396860208429189
% es.tEY (V/m) @ t=3.6
0
% es.tEZ (V/m) @ t=3.6
13.507161701408933
% es.Ex (V/m) @ t=3.6
4.39686020842923
% es.Ey (V/m) @ t=3.6
1.0651927288062657
% es.Ez (V/m) @ t=3.6
13.507161701408876
% es.tEx (V/m) @ t=3.6
4.396860208429189
% es.tEy (V/m) @ t=3.6
0
% es.tEz (V/m) @ t=3.6
13.507161701408933
% V (V) @ t=3.6
0.0666209513774399
% es.normE (V/m) @ t=3.7
14.41790605092461
% es.EX (V/m) @ t=3.7
4.450303958249406
% es.EY (V/m) @ t=3.7
1.0781404834344546
% es.EZ (V/m) @ t=3.7
13.671346752829908
% es.tEX (V/m) @ t=3.7
4.450303958249435
% es.tEY (V/m) @ t=3.7
0
% es.tEZ (V/m) @ t=3.7
13.671346752829962
% es.Ex (V/m) @ t=3.7
4.450303958249406
% es.Ey (V/m) @ t=3.7
1.0781404834344546
% es.Ez (V/m) @ t=3.7
13.671346752829908
% es.tEx (V/m) @ t=3.7
4.450303958249435
% es.tEy (V/m) @ t=3.7
0
% es.tEz (V/m) @ t=3.7
13.671346752829962
% V (V) @ t=3.7
0.06743090716029398
% es.normE (V/m) @ t=3.8
14.58743444868141
% es.EX (V/m) @ t=3.8
4.502626042976895
% es.EY (V/m) @ t=3.8
1.0908172832182093
% es.EZ (V/m) @ t=3.8
13.832098739755082
% es.tEX (V/m) @ t=3.8
4.502626042976942
% es.tEY (V/m) @ t=3.8
0
% es.tEZ (V/m) @ t=3.8
13.832098739755097
% es.Ex (V/m) @ t=3.8
4.502626042976895
% es.Ey (V/m) @ t=3.8
1.0908172832182093
% es.Ez (V/m) @ t=3.8
13.832098739755082
% es.tEx (V/m) @ t=3.8
4.502626042976942
% es.tEy (V/m) @ t=3.8
0
% es.tEz (V/m) @ t=3.8
13.832098739755097
% V (V) @ t=3.8
0.06822425081965565
% es.normE (V/m) @ t=3.9
14.754059988059641
% es.EX (V/m) @ t=3.9
4.554047740547106
% es.EY (V/m) @ t=3.9
1.1032768698940618
% es.EZ (V/m) @ t=3.9
13.990099611179765
% es.tEX (V/m) @ t=3.9
4.554047740547162
% es.tEY (V/m) @ t=3.9
0
% es.tEZ (V/m) @ t=3.9
13.990099611179787
% es.Ex (V/m) @ t=3.9
4.554047740547106
% es.Ey (V/m) @ t=3.9
1.1032768698940618
% es.Ez (V/m) @ t=3.9
13.990099611179765
% es.tEx (V/m) @ t=3.9
4.554047740547162
% es.tEy (V/m) @ t=3.9
0
% es.tEz (V/m) @ t=3.9
13.990099611179787
% V (V) @ t=3.9
0.0690044010010925
% es.normE (V/m) @ t=4
14.917075700872044
% es.EX (V/m) @ t=4
4.604355994606271
% es.EY (V/m) @ t=4
1.1154665475068342
% es.EZ (V/m) @ t=4
14.144677316200504
% es.tEX (V/m) @ t=4
4.604355994606294
% es.tEY (V/m) @ t=4
0
% es.tEZ (V/m) @ t=4
14.144677316200514
% es.Ex (V/m) @ t=4
4.604355994606271
% es.Ey (V/m) @ t=4
1.1154665475068342
% es.Ez (V/m) @ t=4
14.144677316200504
% es.tEx (V/m) @ t=4
4.604355994606294
% es.tEy (V/m) @ t=4
0
% es.tEz (V/m) @ t=4
14.144677316200514
% V (V) @ t=4
0.06976760018276756
% es.normE (V/m) @ t=4.1
15.076537414395956
% es.EX (V/m) @ t=4.1
4.653570093340052
% es.EY (V/m) @ t=4.1
1.1273905583106245
% es.EZ (V/m) @ t=4.1
14.295884118089365
% es.tEX (V/m) @ t=4.1
4.653570093340079
% es.tEY (V/m) @ t=4.1
0
% es.tEZ (V/m) @ t=4.1
14.29588411808939
% es.Ex (V/m) @ t=4.1
4.653570093340052
% es.Ey (V/m) @ t=4.1
1.1273905583106245
% es.Ez (V/m) @ t=4.1
14.295884118089365
% es.tEx (V/m) @ t=4.1
4.653570093340079
% es.tEy (V/m) @ t=4.1
0
% es.tEz (V/m) @ t=4.1
14.29588411808939
% V (V) @ t=4.1
0.0705139296908214
% es.normE (V/m) @ t=4.2
15.233410649779746
% es.EX (V/m) @ t=4.2
4.701986414153437
% es.EY (V/m) @ t=4.2
1.1391210478708773
% es.EZ (V/m) @ t=4.2
14.444636081998482
% es.tEX (V/m) @ t=4.2
4.7019864141535095
% es.tEY (V/m) @ t=4.2
0
% es.tEZ (V/m) @ t=4.2
14.444636081998567
% es.Ex (V/m) @ t=4.2
4.701986414153437
% es.Ey (V/m) @ t=4.2
1.1391210478708773
% es.Ez (V/m) @ t=4.2
14.444636081998482
% es.tEx (V/m) @ t=4.2
4.7019864141535095
% es.tEy (V/m) @ t=4.2
0
% es.tEz (V/m) @ t=4.2
14.444636081998567
% V (V) @ t=4.2
0.07124804898091497
% es.normE (V/m) @ t=4.3
15.388092961437724
% es.EX (V/m) @ t=4.3
4.74972833399026
% es.EY (V/m) @ t=4.3
1.1506877663678203
% es.EZ (V/m) @ t=4.3
14.591309958977732
% es.tEX (V/m) @ t=4.3
4.7497283339902765
% es.tEY (V/m) @ t=4.3
0
% es.tEZ (V/m) @ t=4.3
14.591309958977845
% es.Ex (V/m) @ t=4.3
4.74972833399026
% es.Ey (V/m) @ t=4.3
1.1506877663678203
% es.Ez (V/m) @ t=4.3
14.591309958977732
% es.tEx (V/m) @ t=4.3
4.7497283339902765
% es.tEy (V/m) @ t=4.3
0
% es.tEz (V/m) @ t=4.3
14.591309958977845
% V (V) @ t=4.3
0.07197175915672913
% es.normE (V/m) @ t=4.4
15.540981903783528
% es.EX (V/m) @ t=4.4
4.796919229793807
% es.EY (V/m) @ t=4.4
1.1621204639812621
% es.EZ (V/m) @ t=4.4
14.73628250007635
% es.tEX (V/m) @ t=4.4
4.796919229793787
% es.tEY (V/m) @ t=4.4
0
% es.tEZ (V/m) @ t=4.4
14.736282500076385
% es.Ex (V/m) @ t=4.4
4.796919229793807
% es.Ey (V/m) @ t=4.4
1.1621204639812621
% es.Ez (V/m) @ t=4.4
14.73628250007635
% es.tEx (V/m) @ t=4.4
4.796919229793787
% es.tEy (V/m) @ t=4.4
0
% es.tEz (V/m) @ t=4.4
14.736282500076385
% V (V) @ t=4.4
0.07268686132194475
% es.normE (V/m) @ t=4.5
15.692475031231996
% es.EX (V/m) @ t=4.5
4.8436824785077635
% es.EY (V/m) @ t=4.5
1.1734488908916942
% es.EZ (V/m) @ t=4.5
14.879930456343413
% es.tEX (V/m) @ t=4.5
4.843682478507787
% es.tEY (V/m) @ t=4.5
0
% es.tEZ (V/m) @ t=4.5
14.87993045634343
% es.Ex (V/m) @ t=4.5
4.8436824785077635
% es.Ey (V/m) @ t=4.5
1.1734488908916942
% es.Ez (V/m) @ t=4.5
14.879930456343413
% es.tEx (V/m) @ t=4.5
4.843682478507787
% es.tEy (V/m) @ t=4.5
0
% es.tEz (V/m) @ t=4.5
14.87993045634343
% V (V) @ t=4.5
0.07339515658024268
% es.normE (V/m) @ t=4.6
15.842969898200705
% es.EX (V/m) @ t=4.6
4.890141457075803
% es.EY (V/m) @ t=4.6
1.1847027972791535
% es.EZ (V/m) @ t=4.6
15.022630578828288
% es.tEX (V/m) @ t=4.6
4.890141457075799
% es.tEY (V/m) @ t=4.6
0
% es.tEZ (V/m) @ t=4.6
15.022630578828384
% es.Ex (V/m) @ t=4.6
4.890141457075803
% es.Ey (V/m) @ t=4.6
1.1847027972791535
% es.Ez (V/m) @ t=4.6
15.022630578828288
% es.tEx (V/m) @ t=4.6
4.890141457075799
% es.tEy (V/m) @ t=4.6
0
% es.tEz (V/m) @ t=4.6
15.022630578828384
% V (V) @ t=4.6
0.0740984460353038
% es.normE (V/m) @ t=4.7
15.992864059111545
% es.EX (V/m) @ t=4.7
4.93641954244131
% es.EY (V/m) @ t=4.7
1.1959119333235817
% es.EZ (V/m) @ t=4.7
15.164759618580721
% es.tEX (V/m) @ t=4.7
4.936419542441286
% es.tEY (V/m) @ t=4.7
0
% es.tEZ (V/m) @ t=4.7
15.164759618580746
% es.Ex (V/m) @ t=4.7
4.93641954244131
% es.Ey (V/m) @ t=4.7
1.1959119333235817
% es.Ez (V/m) @ t=4.7
15.164759618580721
% es.tEx (V/m) @ t=4.7
4.936419542441286
% es.tEy (V/m) @ t=4.7
0
% es.tEz (V/m) @ t=4.7
15.164759618580746
% V (V) @ t=4.7
0.0747985307908089
% es.normE (V/m) @ t=4.8
16.138137001761958
% es.EX (V/m) @ t=4.8
4.981267121848035
% es.EY (V/m) @ t=4.8
1.2067753694007912
% es.EZ (V/m) @ t=4.8
15.30250806837768
% es.tEX (V/m) @ t=4.8
4.981267121848077
% es.tEY (V/m) @ t=4.8
0
% es.tEZ (V/m) @ t=4.8
15.302508068377676
% es.Ex (V/m) @ t=4.8
4.981267121848035
% es.Ey (V/m) @ t=4.8
1.2067753694007912
% es.Ez (V/m) @ t=4.8
15.30250806837768
% es.tEx (V/m) @ t=4.8
4.981267121848077
% es.tEy (V/m) @ t=4.8
0
% es.tEz (V/m) @ t=4.8
15.302508068377676
% V (V) @ t=4.8
0.07547736070136987
% es.normE (V/m) @ t=4.9
16.27520926662296
% es.EX (V/m) @ t=4.9
5.023571647198781
% es.EY (V/m) @ t=4.9
1.2170251874338396
% es.EZ (V/m) @ t=4.9
15.432484332407888
% es.tEX (V/m) @ t=4.9
5.023571647198821
% es.tEY (V/m) @ t=4.9
0
% es.tEZ (V/m) @ t=4.9
15.43248433240798
% es.Ex (V/m) @ t=4.9
5.023571647198781
% es.Ey (V/m) @ t=4.9
1.2170251874338396
% es.Ez (V/m) @ t=4.9
15.432484332407888
% es.tEx (V/m) @ t=4.9
5.023571647198821
% es.tEy (V/m) @ t=4.9
0
% es.tEz (V/m) @ t=4.9
15.43248433240798
% V (V) @ t=4.9
0.07611886735874578
% es.normE (V/m) @ t=5
16.40840525677594
% es.EX (V/m) @ t=5
5.064676830761203
% es.EY (V/m) @ t=5
1.226985051130745
% es.EZ (V/m) @ t=5
15.558785975391231
% es.tEX (V/m) @ t=5
5.0646768307611865
% es.tEY (V/m) @ t=5
0
% es.tEZ (V/m) @ t=5
15.558785975391203
% es.Ex (V/m) @ t=5
5.064676830761203
% es.Ey (V/m) @ t=5
1.226985051130745
% es.Ez (V/m) @ t=5
15.558785975391231
% es.tEx (V/m) @ t=5
5.0646768307611865
% es.tEy (V/m) @ t=5
0
% es.tEz (V/m) @ t=5
15.558785975391203
% V (V) @ t=5
0.07674249597601042
% es.normE (V/m) @ t=5.1
16.537582362033817
% es.EX (V/m) @ t=5.1
5.104538184096548
% es.EY (V/m) @ t=5.1
1.2366442808767335
% es.EZ (V/m) @ t=5.1
15.68127792527601
% es.tEX (V/m) @ t=5.1
5.104538184096498
% es.tEY (V/m) @ t=5.1
0
% es.tEZ (V/m) @ t=5.1
15.681277925276078
% es.Ex (V/m) @ t=5.1
5.104538184096548
% es.Ey (V/m) @ t=5.1
1.2366442808767335
% es.Ez (V/m) @ t=5.1
15.68127792527601
% es.tEx (V/m) @ t=5.1
5.104538184096498
% es.tEy (V/m) @ t=5.1
0
% es.tEz (V/m) @ t=5.1
15.681277925276078
% V (V) @ t=5.1
0.07734762059019429
% es.normE (V/m) @ t=5.2
16.662597972214332
% es.EX (V/m) @ t=5.2
5.143111218766045
% es.EY (V/m) @ t=5.2
1.2459921970574177
% es.EZ (V/m) @ t=5.2
15.799825110012058
% es.tEX (V/m) @ t=5.2
5.14311121876608
% es.tEY (V/m) @ t=5.2
0
% es.tEZ (V/m) @ t=5.2
15.799825110012037
% es.Ex (V/m) @ t=5.2
5.143111218766045
% es.Ey (V/m) @ t=5.2
1.2459921970574177
% es.Ez (V/m) @ t=5.2
15.799825110012058
% es.tEx (V/m) @ t=5.2
5.14311121876608
% es.tEy (V/m) @ t=5.2
0
% es.tEz (V/m) @ t=5.2
15.799825110012037
% V (V) @ t=5.2
0.07793361523832781
% es.normE (V/m) @ t=5.3
16.783309477138662
% es.EX (V/m) @ t=5.3
5.18035144633136
% es.EY (V/m) @ t=5.3
1.2550181200576187
% es.EZ (V/m) @ t=5.3
15.914292457548086
% es.tEX (V/m) @ t=5.3
5.180351446331429
% es.tEY (V/m) @ t=5.3
0
% es.tEZ (V/m) @ t=5.3
15.914292457548129
% es.Ex (V/m) @ t=5.3
5.18035144633136
% es.Ey (V/m) @ t=5.3
1.2550181200576187
% es.Ez (V/m) @ t=5.3
15.914292457548086
% es.tEx (V/m) @ t=5.3
5.180351446331429
% es.tEy (V/m) @ t=5.3
0
% es.tEz (V/m) @ t=5.3
15.914292457548129
% V (V) @ t=5.3
0.07849985395744147
% es.normE (V/m) @ t=5.4
16.899574266634172
% es.EX (V/m) @ t=5.4
5.216214378353827
% es.EY (V/m) @ t=5.4
1.2637113702633869
% es.EZ (V/m) @ t=5.4
16.024544895833515
% es.tEX (V/m) @ t=5.4
5.216214378353811
% es.tEY (V/m) @ t=5.4
0
% es.tEZ (V/m) @ t=5.4
16.024544895833486
% es.Ex (V/m) @ t=5.4
5.216214378353827
% es.Ey (V/m) @ t=5.4