% Model:              1x1--2 - Copy1.mph
% Version:            COMSOL 6.1.0.252
% Date:               Mar 28 2023, 10:27
% Dimension:          0
% Nodes:              14017
% Expressions:        14017
% Description:        Electric field norm, Electric field, X component, Electric field, Y component, Electric field, Z component, Tangential electric field, X component, Tangential electric field, Y component, Tangential electric field, Z component, Electric field, x component, Electric field, y component, Electric field, z component, Tangential electric field, x component, Tangential electric field, y component, Tangential electric field, z component, Electric potential
% Length unit:        mm
% x
1.33
% y
12.2
% z
2
% es.normE (V/m) @ t=0
3.2122437291198445
% es.EX (V/m) @ t=0
1.2802017737446767
% es.EY (V/m) @ t=0
0.33846237853409544
% es.EZ (V/m) @ t=0
-2.9240105829518246
% es.tEX (V/m) @ t=0
1.2802017737446771
% es.tEY (V/m) @ t=0
0
% es.tEZ (V/m) @ t=0
-2.92401058295183
% es.Ex (V/m) @ t=0
1.2802017737446767
% es.Ey (V/m) @ t=0
0.33846237853409544
% es.Ez (V/m) @ t=0
-2.9240105829518246
% es.tEx (V/m) @ t=0
1.2802017737446771
% es.tEy (V/m) @ t=0
0
% es.tEz (V/m) @ t=0
-2.92401058295183
% V (V) @ t=0
0.01606149197412423
% es.normE (V/m) @ t=0.1
3.343395229656151
% es.EX (V/m) @ t=0.1
1.3324709069783043
% es.EY (V/m) @ t=0.1
0.35228131401045815
% es.EZ (V/m) @ t=0.1
-3.0433938116426926
% es.tEX (V/m) @ t=0.1
1.3324709069783047
% es.tEY (V/m) @ t=0.1
0
% es.tEZ (V/m) @ t=0.1
-3.043393811642698
% es.Ex (V/m) @ t=0.1
1.3324709069783043
% es.Ey (V/m) @ t=0.1
0.35228131401045815
% es.Ez (V/m) @ t=0.1
-3.0433938116426926
% es.tEx (V/m) @ t=0.1
1.3324709069783047
% es.tEy (V/m) @ t=0.1
0
% es.tEz (V/m) @ t=0.1
-3.043393811642698
% V (V) @ t=0.1
0.016717260830569323
% es.normE (V/m) @ t=0.2
3.5526843295971817
% es.EX (V/m) @ t=0.2
1.4158807573155792
% es.EY (V/m) @ t=0.2
0.3743335925237483
% es.EZ (V/m) @ t=0.2
-3.233903410697417
% es.tEX (V/m) @ t=0.2
1.4158807573155796
% es.tEY (V/m) @ t=0.2
0
% es.tEZ (V/m) @ t=0.2
-3.233903410697426
% es.Ex (V/m) @ t=0.2
1.4158807573155792
% es.Ey (V/m) @ t=0.2
0.3743335925237483
% es.Ez (V/m) @ t=0.2
-3.233903410697417
% es.tEx (V/m) @ t=0.2
1.4158807573155796
% es.tEy (V/m) @ t=0.2
0
% es.tEz (V/m) @ t=0.2
-3.233903410697426
% V (V) @ t=0.2
0.01776371654253444
% es.normE (V/m) @ t=0.3
3.774487503882193
% es.EX (V/m) @ t=0.3
1.5042781428489014
% es.EY (V/m) @ t=0.3
0.3977047882841216
% es.EZ (V/m) @ t=0.3
-3.435804087200525
% es.tEX (V/m) @ t=0.3
1.5042781428489018
% es.tEY (V/m) @ t=0.3
0
% es.tEZ (V/m) @ t=0.3
-3.4358040872005375
% es.Ex (V/m) @ t=0.3
1.5042781428489014
% es.Ey (V/m) @ t=0.3
0.3977047882841216
% es.Ez (V/m) @ t=0.3
-3.435804087200525
% es.tEx (V/m) @ t=0.3
1.5042781428489018
% es.tEy (V/m) @ t=0.3
0
% es.tEz (V/m) @ t=0.3
-3.4358040872005375
% V (V) @ t=0.3
0.01887273292326187
% es.normE (V/m) @ t=0.4
4.007797874019314
% es.EX (V/m) @ t=0.4
1.5972646822368124
% es.EY (V/m) @ t=0.4
0.42229492228980625
% es.EZ (V/m) @ t=0.4
-3.648177562503042
% es.tEX (V/m) @ t=0.4
1.5972646822368128
% es.tEY (V/m) @ t=0.4
0
% es.tEZ (V/m) @ t=0.4
-3.6481775625030544
% es.Ex (V/m) @ t=0.4
1.5972646822368124
% es.Ey (V/m) @ t=0.4
0.42229492228980625
% es.Ez (V/m) @ t=0.4
-3.648177562503042
% es.tEx (V/m) @ t=0.4
1.5972646822368128
% es.tEy (V/m) @ t=0.4
0
% es.tEz (V/m) @ t=0.4
-3.6481775625030544
% V (V) @ t=0.4
0.020039103198259873
% es.normE (V/m) @ t=0.5
4.269118588881681
% es.EX (V/m) @ t=0.5
1.7014116371531403
% es.EY (V/m) @ t=0.5
0.44983123013504667
% es.EZ (V/m) @ t=0.5
-3.88604964747611
% es.tEX (V/m) @ t=0.5
1.7014116371531411
% es.tEY (V/m) @ t=0.5
0
% es.tEZ (V/m) @ t=0.5
-3.8860496474761312
% es.Ex (V/m) @ t=0.5
1.7014116371531403
% es.Ey (V/m) @ t=0.5
0.44983123013504667
% es.Ez (V/m) @ t=0.5
-3.88604964747611
% es.tEx (V/m) @ t=0.5
1.7014116371531411
% es.tEy (V/m) @ t=0.5
0
% es.tEz (V/m) @ t=0.5
-3.8860496474761312
% V (V) @ t=0.5
0.021345682132865397
% es.normE (V/m) @ t=0.6
4.530464329810227
% es.EX (V/m) @ t=0.6
1.80556856343159
% es.EY (V/m) @ t=0.6
0.4773701702628177
% es.EZ (V/m) @ t=0.6
-4.12394451438491
% es.tEX (V/m) @ t=0.6
1.8055685634315903
% es.tEY (V/m) @ t=0.6
0
% es.tEZ (V/m) @ t=0.6
-4.123944514384917
% es.Ex (V/m) @ t=0.6
1.80556856343159
% es.Ey (V/m) @ t=0.6
0.4773701702628177
% es.Ez (V/m) @ t=0.6
-4.12394451438491
% es.tEx (V/m) @ t=0.6
1.8055685634315903
% es.tEy (V/m) @ t=0.6
0
% es.tEz (V/m) @ t=0.6
-4.123944514384917
% V (V) @ t=0.6
0.022652386338013416
% es.normE (V/m) @ t=0.7
4.813550882168947
% es.EX (V/m) @ t=0.7
1.9183754638856425
% es.EY (V/m) @ t=0.7
0.5071713138822478
% es.EZ (V/m) @ t=0.7
-4.381638011147775
% es.tEX (V/m) @ t=0.7
1.918375463885643
% es.tEY (V/m) @ t=0.7
0
% es.tEZ (V/m) @ t=0.7
-4.3816380111477855
% es.Ex (V/m) @ t=0.7
1.9183754638856425
% es.Ey (V/m) @ t=0.7
0.5071713138822478
% es.Ez (V/m) @ t=0.7
-4.381638011147775
% es.tEx (V/m) @ t=0.7
1.918375463885643
% es.tEy (V/m) @ t=0.7
0
% es.tEz (V/m) @ t=0.7
-4.3816380111477855
% V (V) @ t=0.7
0.024068629030628667
% es.normE (V/m) @ t=0.8
5.101904347622995
% es.EX (V/m) @ t=0.8
2.033277900594178
% es.EY (V/m) @ t=0.8
0.5375204972224381
% es.EZ (V/m) @ t=0.8
-4.644127909125938
% es.tEX (V/m) @ t=0.8
2.033277900594179
% es.tEY (V/m) @ t=0.8
0
% es.tEZ (V/m) @ t=0.8
-4.644127909125942
% es.Ex (V/m) @ t=0.8
2.033277900594178
% es.Ey (V/m) @ t=0.8
0.5375204972224381
% es.Ez (V/m) @ t=0.8
-4.644127909125938
% es.tEx (V/m) @ t=0.8
2.033277900594179
% es.tEy (V/m) @ t=0.8
0
% es.tEz (V/m) @ t=0.8
-4.644127909125942
% V (V) @ t=0.8
0.02551140843504084
% es.normE (V/m) @ t=0.9
5.413502037621203
% es.EX (V/m) @ t=0.9
2.1575099800842112
% es.EY (V/m) @ t=0.9
0.5704590531796274
% es.EZ (V/m) @ t=0.9
-4.92773650704736
% es.tEX (V/m) @ t=0.9
2.1575099800842263
% es.tEY (V/m) @ t=0.9
0
% es.tEZ (V/m) @ t=0.9
-4.927736507047371
% es.Ex (V/m) @ t=0.9
2.1575099800842112
% es.Ey (V/m) @ t=0.9
0.5704590531796274
% es.Ez (V/m) @ t=0.9
-4.92773650704736
% es.tEx (V/m) @ t=0.9
2.1575099800842263
% es.tEy (V/m) @ t=0.9
0
% es.tEz (V/m) @ t=0.9
-4.927736507047371
% V (V) @ t=0.9
0.027066473787248344
% es.normE (V/m) @ t=1
5.729851329985486
% es.EX (V/m) @ t=1
2.283649229941882
% es.EY (V/m) @ t=1
0.6039269300166907
% es.EZ (V/m) @ t=1
-5.215662200454407
% es.tEX (V/m) @ t=1
2.283649229941883
% es.tEY (V/m) @ t=1
0
% es.tEZ (V/m) @ t=1
-5.215662200454425
% es.Ex (V/m) @ t=1
2.283649229941882
% es.Ey (V/m) @ t=1
0.6039269300166907
% es.Ez (V/m) @ t=1
-5.215662200454407
% es.tEx (V/m) @ t=1
2.283649229941883
% es.tEy (V/m) @ t=1
0
% es.tEz (V/m) @ t=1
-5.215662200454425
% V (V) @ t=1
0.028644492690556543
% es.normE (V/m) @ t=1.1
6.0710809445435245
% es.EX (V/m) @ t=1.1
2.4196209061518195
% es.EY (V/m) @ t=1.1
0.6398281566179254
% es.EZ (V/m) @ t=1.1
-5.526286927534091
% es.tEX (V/m) @ t=1.1
2.4196209061518346
% es.tEY (V/m) @ t=1.1
0
% es.tEZ (V/m) @ t=1.1
-5.526286927534109
% es.Ex (V/m) @ t=1.1
2.4196209061518195
% es.Ey (V/m) @ t=1.1
0.6398281566179254
% es.Ez (V/m) @ t=1.1
-5.526286927534091
% es.tEx (V/m) @ t=1.1
2.4196209061518346
% es.tEy (V/m) @ t=1.1
0
% es.tEz (V/m) @ t=1.1
-5.526286927534109
% V (V) @ t=1.1
0.03035206089273279
% es.normE (V/m) @ t=1.2
6.416510826000536
% es.EX (V/m) @ t=1.2
2.557252480252914
% es.EY (V/m) @ t=1.2
0.6761401782759666
% es.EZ (V/m) @ t=1.2
-5.840743677023514
% es.tEX (V/m) @ t=1.2
2.557252480252915
% es.tEY (V/m) @ t=1.2
0
% es.tEZ (V/m) @ t=1.2
-5.840743677023525
% es.Ex (V/m) @ t=1.2
2.557252480252914
% es.Ey (V/m) @ t=1.2
0.6761401782759666
% es.Ez (V/m) @ t=1.2
-5.840743677023514
% es.tEx (V/m) @ t=1.2
2.557252480252915
% es.tEy (V/m) @ t=1.2
0
% es.tEz (V/m) @ t=1.2
-5.840743677023525
% V (V) @ t=1.2
0.032081499445144435
% es.normE (V/m) @ t=1.3
6.7748981418025025
% es.EX (V/m) @ t=1.3
2.7000572861470316
% es.EY (V/m) @ t=1.3
0.7138414759301881
% es.EZ (V/m) @ t=1.3
-6.16698928974176
% es.tEX (V/m) @ t=1.3
2.7000572861470182
% es.tEY (V/m) @ t=1.3
0
% es.tEZ (V/m) @ t=1.3
-6.166989289741771
% es.Ex (V/m) @ t=1.3
2.7000572861470316
% es.Ey (V/m) @ t=1.3
0.7138414759301881
% es.Ez (V/m) @ t=1.3
-6.16698928974176
% es.tEx (V/m) @ t=1.3
2.7000572861470182
% es.tEy (V/m) @ t=1.3
0
% es.tEz (V/m) @ t=1.3
-6.166989289741771
% V (V) @ t=1.3
0.03387510858225818
% es.normE (V/m) @ t=1.4
7.144727075058979
% es.EX (V/m) @ t=1.4
2.8474301372453015
% es.EY (V/m) @ t=1.4
0.7527695261843554
% es.EZ (V/m) @ t=1.4
-6.5036446544854165
% es.tEX (V/m) @ t=1.4
2.8474301372453024
% es.tEY (V/m) @ t=1.4
0
% es.tEZ (V/m) @ t=1.4
-6.503644654485434
% es.Ex (V/m) @ t=1.4
2.8474301372453015
% es.Ey (V/m) @ t=1.4
0.7527695261843554
% es.Ez (V/m) @ t=1.4
-6.5036446544854165
% es.tEx (V/m) @ t=1.4
2.8474301372453024
% es.tEy (V/m) @ t=1.4
0
% es.tEz (V/m) @ t=1.4
-6.503644654485434
% V (V) @ t=1.4
0.035725381357002366
% es.normE (V/m) @ t=1.5
7.5248587488337755
% es.EX (V/m) @ t=1.5
2.9989163392511005
% es.EY (V/m) @ t=1.5
0.7928022204808407
% es.EZ (V/m) @ t=1.5
-6.849673604871764
% es.tEX (V/m) @ t=1.5
2.9989163392511013
% es.tEY (V/m) @ t=1.5
0
% es.tEZ (V/m) @ t=1.5
-6.849673604871775
% es.Ex (V/m) @ t=1.5
2.9989163392511005
% es.Ey (V/m) @ t=1.5
0.7928022204808407
% es.Ez (V/m) @ t=1.5
-6.849673604871764
% es.tEx (V/m) @ t=1.5
2.9989163392511013
% es.tEy (V/m) @ t=1.5
0
% es.tEz (V/m) @ t=1.5
-6.849673604871775
% V (V) @ t=1.5
0.037626677581571295
% es.normE (V/m) @ t=1.6
7.915293162815831
% es.EX (V/m) @ t=1.6
3.154515892164505
% es.EY (V/m) @ t=1.6
0.8339395588197114
% es.EZ (V/m) @ t=1.6
-7.205076140900811
% es.tEX (V/m) @ t=1.6
3.154515892164506
% es.tEY (V/m) @ t=1.6
0
% es.tEZ (V/m) @ t=1.6
-7.205076140900864
% es.Ex (V/m) @ t=1.6
3.154515892164505
% es.Ey (V/m) @ t=1.6
0.8339395588197114
% es.Ez (V/m) @ t=1.6
-7.205076140900811
% es.tEx (V/m) @ t=1.6
3.154515892164506
% es.tEy (V/m) @ t=1.6
0
% es.tEz (V/m) @ t=1.6
-7.205076140900864
% V (V) @ t=1.6
0.03957899725596499
% es.normE (V/m) @ t=1.7
8.315775705994865
% es.EX (V/m) @ t=1.7
3.314123245967939
% es.EY (V/m) @ t=1.7
0.8761371977884558
% es.EZ (V/m) @ t=1.7
-7.569623651525237
% es.tEX (V/m) @ t=1.7
3.3141232459679397
% es.tEY (V/m) @ t=1.7
0
% es.tEZ (V/m) @ t=1.7
-7.569623651525248
% es.Ex (V/m) @ t=1.7
3.314123245967939
% es.Ey (V/m) @ t=1.7
0.8761371977884558
% es.Ez (V/m) @ t=1.7
-7.569623651525237
% es.tEx (V/m) @ t=1.7
3.3141232459679397
% es.tEy (V/m) @ t=1.7
0
% es.tEz (V/m) @ t=1.7
-7.569623651525248
% V (V) @ t=1.7
0.04158144709369926
% es.normE (V/m) @ t=1.8
8.726434076121357
% es.EX (V/m) @ t=1.8
3.4777913382717065
% es.EY (V/m) @ t=1.8
0.9194173774051855
% es.EZ (V/m) @ t=1.8
-7.943430794447636
% es.tEX (V/m) @ t=1.8
3.4777913382717074
% es.tEY (V/m) @ t=1.8
0
% es.tEZ (V/m) @ t=1.8
-7.9434307944476785
% es.Ex (V/m) @ t=1.8
3.4777913382717065
% es.Ey (V/m) @ t=1.8
0.9194173774051855
% es.Ez (V/m) @ t=1.8
-7.943430794447636
% es.tEx (V/m) @ t=1.8
3.4777913382717074
% es.tEy (V/m) @ t=1.8
0
% es.tEz (V/m) @ t=1.8
-7.9434307944476785
% V (V) @ t=1.8
0.043634475114138455
% es.normE (V/m) @ t=1.9
9.147283175969509
% es.EX (V/m) @ t=1.9
3.645526347037329
% es.EY (V/m) @ t=1.9
0.9637826931397591
% es.EZ (V/m) @ t=1.9
-8.32651095053047
% es.tEX (V/m) @ t=1.9
3.6455263470373307
% es.tEY (V/m) @ t=1.9
0
% es.tEZ (V/m) @ t=1.9
-8.326510950530505
% es.Ex (V/m) @ t=1.9
3.645526347037329
% es.Ey (V/m) @ t=1.9
0.9637826931397591
% es.Ez (V/m) @ t=1.9
-8.32651095053047
% es.tEx (V/m) @ t=1.9
3.6455263470373307
% es.tEy (V/m) @ t=1.9
0
% es.tEz (V/m) @ t=1.9
-8.326510950530505
% V (V) @ t=1.9
0.045738133602347734
% es.normE (V/m) @ t=2
9.578323005713706
% es.EX (V/m) @ t=2
3.8173282722648194
% es.EY (V/m) @ t=2
1.0092331449920913
% es.EZ (V/m) @ t=2
-8.71886411977372
% es.tEX (V/m) @ t=2
3.8173282722648203
% es.tEY (V/m) @ t=2
0
% es.tEZ (V/m) @ t=2
-8.718864119773741
% es.Ex (V/m) @ t=2
3.8173282722648194
% es.Ey (V/m) @ t=2
1.0092331449920913
% es.Ez (V/m) @ t=2
-8.71886411977372
% es.tEx (V/m) @ t=2
3.8173282722648203
% es.tEy (V/m) @ t=2
0
% es.tEz (V/m) @ t=2
-8.718864119773741
% V (V) @ t=2
0.04789242255832711
% es.normE (V/m) @ t=2.1
10.006509577022378
% es.EX (V/m) @ t=2.1
3.9879893811325413
% es.EY (V/m) @ t=2.1
1.054375738561049
% es.EZ (V/m) @ t=2.1
-9.108622229567352
% es.tEX (V/m) @ t=2.1
3.9879893811325147
% es.tEY (V/m) @ t=2.1
0
% es.tEZ (V/m) @ t=2.1
-9.108622229567374
% es.Ex (V/m) @ t=2.1
3.9879893811325413
% es.Ey (V/m) @ t=2.1
1.054375738561049
% es.Ez (V/m) @ t=2.1
-9.108622229567352
% es.tEx (V/m) @ t=2.1
3.9879893811325147
% es.tEy (V/m) @ t=2.1
0
% es.tEz (V/m) @ t=2.1
-9.108622229567374
% V (V) @ t=2.1
0.05003265554482326
% es.normE (V/m) @ t=2.2
10.439309384957356
% es.EX (V/m) @ t=2.2
4.16049062626878
% es.EY (V/m) @ t=2.2
1.1000078362429875
% es.EZ (V/m) @ t=2.2
-9.502578670327559
% es.tEX (V/m) @ t=2.2
4.160490626268782
% es.tEY (V/m) @ t=2.2
0
% es.tEZ (V/m) @ t=2.2
-9.502578670327566
% es.Ex (V/m) @ t=2.2
4.16049062626878
% es.Ey (V/m) @ t=2.2
1.1000078362429875
% es.Ez (V/m) @ t=2.2
-9.502578670327559
% es.tEx (V/m) @ t=2.2
4.160490626268782
% es.tEy (V/m) @ t=2.2
0
% es.tEz (V/m) @ t=2.2
-9.502578670327566
% V (V) @ t=2.2
0.05219585965438425
% es.normE (V/m) @ t=2.3
10.876912891264418
% es.EX (V/m) @ t=2.3
4.334908048346962
% es.EY (V/m) @ t=2.3
1.1461497778353689
% es.EZ (V/m) @ t=2.3
-9.900906733631125
% es.tEX (V/m) @ t=2.3
4.334908048346964
% es.tEY (V/m) @ t=2.3
0
% es.tEZ (V/m) @ t=2.3
-9.900906733631146
% es.Ex (V/m) @ t=2.3
4.334908048346962
% es.Ey (V/m) @ t=2.3
1.1461497778353689
% es.Ez (V/m) @ t=2.3
-9.900906733631125
% es.tEx (V/m) @ t=2.3
4.334908048346964
% es.tEy (V/m) @ t=2.3
0
% es.tEz (V/m) @ t=2.3
-9.900906733631146
% V (V) @ t=2.3
0.05438297940555738
% es.normE (V/m) @ t=2.4
11.318767396837197
% es.EX (V/m) @ t=2.4
4.511021317407909
% es.EY (V/m) @ t=2.4
1.192743205438184
% es.EZ (V/m) @ t=2.4
-10.303103348819242
% es.tEX (V/m) @ t=2.4
4.511021317407881
% es.tEY (V/m) @ t=2.4
0
% es.tEZ (V/m) @ t=2.4
-10.303103348819278
% es.Ex (V/m) @ t=2.4
4.511021317407909
% es.Ey (V/m) @ t=2.4
1.192743205438184
% es.Ez (V/m) @ t=2.4
-10.303103348819242
% es.tEx (V/m) @ t=2.4
4.511021317407881
% es.tEy (V/m) @ t=2.4
0
% es.tEz (V/m) @ t=2.4
-10.303103348819278
% V (V) @ t=2.4
0.05659125469445736
% es.normE (V/m) @ t=2.5
11.744623735297978
% es.EX (V/m) @ t=2.5
4.680758233581516
% es.EY (V/m) @ t=2.5
1.2376500683005034
% es.EZ (V/m) @ t=2.5
-10.690737582017967
% es.tEX (V/m) @ t=2.5
4.680758233581518
% es.tEY (V/m) @ t=2.5
0
% es.tEZ (V/m) @ t=2.5
-10.690737582018002
% es.Ex (V/m) @ t=2.5
4.680758233581516
% es.Ey (V/m) @ t=2.5
1.2376500683005034
% es.Ez (V/m) @ t=2.5
-10.690737582017967
% es.tEx (V/m) @ t=2.5
4.680758233581518
% es.tEy (V/m) @ t=2.5
0
% es.tEz (V/m) @ t=2.5
-10.690737582018002
% V (V) @ t=2.5
0.058719563956329345
% es.normE (V/m) @ t=2.6
12.16676682854133
% es.EX (V/m) @ t=2.6
4.849016101923203
% es.EY (V/m) @ t=2.6
1.2821674956956173
% es.EZ (V/m) @ t=2.6
-11.074991255665886
% es.tEX (V/m) @ t=2.6
4.849016101923205
% es.tEY (V/m) @ t=2.6
0
% es.tEZ (V/m) @ t=2.6
-11.074991255665907
% es.Ex (V/m) @ t=2.6
4.849016101923203
% es.Ey (V/m) @ t=2.6
1.2821674956956173
% es.Ez (V/m) @ t=2.6
-11.074991255665886
% es.tEx (V/m) @ t=2.6
4.849016101923205
% es.tEy (V/m) @ t=2.6
0
% es.tEz (V/m) @ t=2.6
-11.074991255665907
% V (V) @ t=2.6
0.060829256409261845
% es.normE (V/m) @ t=2.7
12.585196676579884
% es.EX (V/m) @ t=2.7
5.015794922433061
% es.EY (V/m) @ t=2.7
1.32629548762349
% es.EZ (V/m) @ t=2.7
-11.455864369763098
% es.tEX (V/m) @ t=2.7
5.015794922433063
% es.tEY (V/m) @ t=2.7
0
% es.tEZ (V/m) @ t=2.7
-11.455864369763148
% es.Ex (V/m) @ t=2.7
5.015794922433061
% es.Ey (V/m) @ t=2.7
1.32629548762349
% es.Ez (V/m) @ t=2.7
-11.455864369763098
% es.tEx (V/m) @ t=2.7
5.015794922433063
% es.tEy (V/m) @ t=2.7
0
% es.tEz (V/m) @ t=2.7
-11.455864369763148
% V (V) @ t=2.7
0.06292033205325487
% es.normE (V/m) @ t=2.8
12.999059362037933
% es.EX (V/m) @ t=2.8
5.1807527801715185
% es.EY (V/m) @ t=2.8
1.36994063348887
% es.EZ (V/m) @ t=2.8
-11.83258059629042
% es.tEX (V/m) @ t=2.8
5.18075278017152
% es.tEY (V/m) @ t=2.8
0
% es.tEZ (V/m) @ t=2.8
-11.832580596290484
% es.Ex (V/m) @ t=2.8
5.1807527801715185
% es.Ey (V/m) @ t=2.8
1.36994063348887
% es.Ez (V/m) @ t=2.8
-11.83258059629042
% es.tEx (V/m) @ t=2.8
5.18075278017152
% es.tEy (V/m) @ t=2.8
0
% es.tEz (V/m) @ t=2.8
-11.832580596290484
% V (V) @ t=2.8
0.06498861722933462
% es.normE (V/m) @ t=2.9
13.395299603064935
% es.EX (V/m) @ t=2.9
5.33866224219142
% es.EY (V/m) @ t=2.9
1.4116748072658751
% es.EZ (V/m) @ t=2.9
-12.193270893571302
% es.tEX (V/m) @ t=2.9
5.338662242191422
% es.tEY (V/m) @ t=2.9
0
% es.tEZ (V/m) @ t=2.9
-12.193270893571324
% es.Ex (V/m) @ t=2.9
5.33866224219142
% es.Ey (V/m) @ t=2.9
1.4116748072658751
% es.Ez (V/m) @ t=2.9
-12.193270893571302
% es.tEx (V/m) @ t=2.9
5.338662242191422
% es.tEy (V/m) @ t=2.9
0
% es.tEz (V/m) @ t=2.9
-12.193270893571324
% V (V) @ t=2.9
0.06697030214178408
% es.normE (V/m) @ t=3
13.778195449360659
% es.EX (V/m) @ t=3
5.491236271603567
% es.EY (V/m) @ t=3
1.4519659876407118
% es.EZ (V/m) @ t=3
-12.54182459519609
% es.tEX (V/m) @ t=3
5.491236271603569
% es.tEY (V/m) @ t=3
0
% es.tEZ (V/m) @ t=3
-12.541824595196132
% es.Ex (V/m) @ t=3
5.491236271603567
% es.Ey (V/m) @ t=3
1.4519659876407118
% es.Ez (V/m) @ t=3
-12.54182459519609
% es.tEx (V/m) @ t=3
5.491236271603569
% es.tEy (V/m) @ t=3
0
% es.tEz (V/m) @ t=3
-12.541824595196132
% V (V) @ t=3
0.06888629644688832
% es.normE (V/m) @ t=3.1
14.145833147361646
% es.EX (V/m) @ t=3.1
5.637708586628209
% es.EY (V/m) @ t=3.1
1.4906048276995847
% es.EZ (V/m) @ t=3.1
-12.876501835637946
% es.tEX (V/m) @ t=3.1
5.637708586628182
% es.tEY (V/m) @ t=3.1
0
% es.tEZ (V/m) @ t=3.1
-12.876501835637967
% es.Ex (V/m) @ t=3.1
5.637708586628209
% es.Ey (V/m) @ t=3.1
1.4906048276995847
% es.Ez (V/m) @ t=3.1
-12.876501835637946
% es.tEx (V/m) @ t=3.1
5.637708586628182
% es.tEy (V/m) @ t=3.1
0
% es.tEz (V/m) @ t=3.1
-12.876501835637967
% V (V) @ t=3.1
0.07072724635965971
% es.normE (V/m) @ t=3.2
14.49653248277533
% es.EX (V/m) @ t=3.2
5.7774112850361234
% es.EY (V/m) @ t=3.2
1.5274180174112537
% es.EZ (V/m) @ t=3.2
-13.195772115601663
% es.tEX (V/m) @ t=3.2
5.777411285036099
% es.tEY (V/m) @ t=3.2
0
% es.tEZ (V/m) @ t=3.2
-13.19577211560167
% es.Ex (V/m) @ t=3.2
5.7774112850361234
% es.Ey (V/m) @ t=3.2
1.5274180174112537
% es.Ez (V/m) @ t=3.2
-13.195772115601663
% es.tEx (V/m) @ t=3.2
5.777411285036099
% es.tEy (V/m) @ t=3.2
0
% es.tEz (V/m) @ t=3.2
-13.19577211560167
% V (V) @ t=3.2
0.07248464662910283
% es.normE (V/m) @ t=3.3
14.830450279062006
% es.EX (V/m) @ t=3.3
5.910450329913962
% es.EY (V/m) @ t=3.3
1.5625157171697381
% es.EZ (V/m) @ t=3.3
-13.499751835621893
% es.tEX (V/m) @ t=3.3
5.910450329913964
% es.tEY (V/m) @ t=3.3
0
% es.tEZ (V/m) @ t=3.3
-13.499751835621936
% es.Ex (V/m) @ t=3.3
5.910450329913962
% es.Ey (V/m) @ t=3.3
1.5625157171697381
% es.Ez (V/m) @ t=3.3
-13.499751835621893
% es.tEx (V/m) @ t=3.3
5.910450329913964
% es.tEy (V/m) @ t=3.3
0
% es.tEz (V/m) @ t=3.3
-13.499751835621936
% V (V) @ t=3.3
0.07415666667412735
% es.normE (V/m) @ t=3.4
15.144992294638925
% es.EX (V/m) @ t=3.4
6.035772780085635
% es.EY (V/m) @ t=3.4
1.595583575406259
% es.EZ (V/m) @ t=3.4
-13.78609107658584
% es.tEX (V/m) @ t=3.4
6.035772780085608
% es.tEY (V/m) @ t=3.4
0
% es.tEZ (V/m) @ t=3.4
-13.786091076585848
% es.Ex (V/m) @ t=3.4
6.035772780085635
% es.Ey (V/m) @ t=3.4
1.595583575406259
% es.Ez (V/m) @ t=3.4
-13.78609107658584
% es.tEx (V/m) @ t=3.4
6.035772780085608
% es.tEy (V/m) @ t=3.4
0
% es.tEz (V/m) @ t=3.4
-13.786091076585848
% V (V) @ t=3.4
0.07573148024224295
% es.normE (V/m) @ t=3.5
15.438564187086673
% es.EX (V/m) @ t=3.5
6.152746908503831
% es.EY (V/m) @ t=3.5
1.6264615332246706
% es.EZ (V/m) @ t=3.5
-14.053336325334463
% es.tEX (V/m) @ t=3.5
6.152746908503833
% es.tEY (V/m) @ t=3.5
0
% es.tEZ (V/m) @ t=3.5
-14.053336325334513
% es.Ex (V/m) @ t=3.5
6.152746908503831
% es.Ey (V/m) @ t=3.5
1.6264615332246706
% es.Ez (V/m) @ t=3.5
-14.053336325334463
% es.tEx (V/m) @ t=3.5
6.152746908503833
% es.tEy (V/m) @ t=3.5
0
% es.tEz (V/m) @ t=3.5
-14.053336325334513
% V (V) @ t=3.5
0.0772008940972074
% es.normE (V/m) @ t=3.6
15.709571613926169
% es.EX (V/m) @ t=3.6
6.2607409881204745
% es.EY (V/m) @ t=3.6
1.65498953172915
% es.EZ (V/m) @ t=3.6
-14.300034068708122
% es.tEX (V/m) @ t=3.6
6.26074098812045
% es.tEY (V/m) @ t=3.6
0
% es.tEZ (V/m) @ t=3.6
-14.300034068708172
% es.Ex (V/m) @ t=3.6
6.2607409881204745
% es.Ey (V/m) @ t=3.6
1.65498953172915
% es.Ez (V/m) @ t=3.6
-14.300034068708122
% es.tEx (V/m) @ t=3.6
6.26074098812045
% es.tEy (V/m) @ t=3.6
0
% es.tEz (V/m) @ t=3.6
-14.300034068708172
% V (V) @ t=3.6
0.07855671500277842
% es.normE (V/m) @ t=3.7
15.956420232861102
% es.EX (V/m) @ t=3.7
6.359123291888395
% es.EY (V/m) @ t=3.7
1.6810075120235126
% es.EZ (V/m) @ t=3.7
-14.524730793547675
% es.tEX (V/m) @ t=3.7
6.359123291888398
% es.tEY (V/m) @ t=3.7
0
% es.tEZ (V/m) @ t=3.7
-14.52473079354769
% es.Ex (V/m) @ t=3.7
6.359123291888395
% es.Ey (V/m) @ t=3.7
1.6810075120235126
% es.Ez (V/m) @ t=3.7
-14.524730793547675
% es.tEx (V/m) @ t=3.7
6.359123291888398
% es.tEy (V/m) @ t=3.7
0
% es.tEz (V/m) @ t=3.7
-14.52473079354769
% V (V) @ t=3.7
0.07979074972271367
% es.normE (V/m) @ t=3.8
16.177515702076498
% es.EX (V/m) @ t=3.8
6.447262092759441
% es.EY (V/m) @ t=3.8
1.7043554152120919
% es.EZ (V/m) @ t=3.8
-14.725972986693769
% es.tEX (V/m) @ t=3.8
6.447262092759416
% es.tEY (V/m) @ t=3.8
0
% es.tEZ (V/m) @ t=3.8
-14.725972986693776
% es.Ex (V/m) @ t=3.8
6.447262092759441
% es.Ey (V/m) @ t=3.8
1.7043554152120919
% es.Ez (V/m) @ t=3.8
-14.725972986693769
% es.tEx (V/m) @ t=3.8
6.447262092759416
% es.tEy (V/m) @ t=3.8
0
% es.tEz (V/m) @ t=3.8
-14.725972986693776
% V (V) @ t=3.8
0.08089480502077089
% es.normE (V/m) @ t=3.9
16.371263680601963
% es.EX (V/m) @ t=3.9
6.524525663686484
% es.EY (V/m) @ t=3.9
1.7248731823988948
% es.EZ (V/m) @ t=3.9
-14.902307134987225
% es.tEX (V/m) @ t=3.9
6.524525663686486
% es.tEY (V/m) @ t=3.9
0
% es.tEZ (V/m) @ t=3.9
-14.902307134987254
% es.Ex (V/m) @ t=3.9
6.524525663686484
% es.Ey (V/m) @ t=3.9
1.7248731823988948
% es.Ez (V/m) @ t=3.9
-14.902307134987225
% es.tEx (V/m) @ t=3.9
6.524525663686486
% es.tEy (V/m) @ t=3.9
0
% es.tEz (V/m) @ t=3.9
-14.902307134987254
% V (V) @ t=3.9
0.08186068766070777
% es.normE (V/m) @ t=4
16.5411808635256
% es.EX (V/m) @ t=4
6.59230377891077
% es.EY (V/m) @ t=4
1.7429058086407494
% es.EZ (V/m) @ t=4
-15.05694152773411
% es.tEX (V/m) @ t=4
6.592303778910743
% es.tEY (V/m) @ t=4
0
% es.tEZ (V/m) @ t=4
-15.05694152773411
% es.Ex (V/m) @ t=4
6.59230377891077
% es.Ey (V/m) @ t=4
1.7429058086407494
% es.Ez (V/m) @ t=4
-15.05694152773411
% es.tEx (V/m) @ t=4
6.592303778910743
% es.tEy (V/m) @ t=4
0
% es.tEz (V/m) @ t=4
-15.05694152773411
% V (V) @ t=4
0.08270669215148466
% es.normE (V/m) @ t=4.1
16.703008323128955
% es.EX (V/m) @ t=4.1
6.6568211627851905
% es.EY (V/m) @ t=4.1
1.7600062578837452
% es.EZ (V/m) @ t=4.1
-15.204234376563775
% es.tEX (V/m) @ t=4.1
6.656821162785192
% es.tEY (V/m) @ t=4.1
0
% es.tEZ (V/m) @ t=4.1
-15.20423437656386
% es.Ex (V/m) @ t=4.1
6.6568211627851905
% es.Ey (V/m) @ t=4.1
1.7600062578837452
% es.Ez (V/m) @ t=4.1
-15.204234376563775
% es.tEx (V/m) @ t=4.1
6.656821162785192
% es.tEy (V/m) @ t=4.1
0
% es.tEz (V/m) @ t=4.1
-15.20423437656386
% V (V) @ t=4.1
0.08351446538640703
% es.normE (V/m) @ t=4.2
16.843088625941704
% es.EX (V/m) @ t=4.2
6.712674930461544
% es.EY (V/m) @ t=4.2
1.7748224402793937
% es.EZ (V/m) @ t=4.2
-15.331729358020368
% es.tEX (V/m) @ t=4.2
6.712674930461546
% es.tEY (V/m) @ t=4.2
0
% es.tEZ (V/m) @ t=4.2
-15.331729358020453
% es.Ex (V/m) @ t=4.2
6.712674930461544
% es.Ey (V/m) @ t=4.2
1.7748224402793937
% es.Ez (V/m) @ t=4.2
-15.331729358020368
% es.tEx (V/m) @ t=4.2
6.712674930461546
% es.tEy (V/m) @ t=4.2
0
% es.tEz (V/m) @ t=4.2
-15.331729358020453
% V (V) @ t=4.2
0.08421329761597114
% es.normE (V/m) @ t=4.3
16.961155687580984
% es.EX (V/m) @ t=4.3
6.759758703238472
% es.EY (V/m) @ t=4.3
1.7873255505006753
% es.EZ (V/m) @ t=4.3
-15.439184469533195
% es.tEX (V/m) @ t=4.3
6.759758703238475
% es.tEY (V/m) @ t=4.3
0
% es.tEZ (V/m) @ t=4.3
-15.439184469533217
% es.Ex (V/m) @ t=4.3
6.759758703238472
% es.Ey (V/m) @ t=4.3
1.7873255505006753
% es.Ez (V/m) @ t=4.3
-15.439184469533195
% es.tEx (V/m) @ t=4.3
6.759758703238475
% es.tEy (V/m) @ t=4.3
0
% es.tEz (V/m) @ t=4.3
-15.439184469533217
% V (V) @ t=4.3
0.08480187924690749
% es.normE (V/m) @ t=4.4
17.056943423657373
% es.EX (V/m) @ t=4.4
6.797966102415032
% es.EY (V/m) @ t=4.4
1.797486783220485
% es.EZ (V/m) @ t=4.4
-15.526357708531478
% es.tEX (V/m) @ t=4.4
6.797966102415035
% es.tEY (V/m) @ t=4.4
0
% es.tEZ (V/m) @ t=4.4
-15.526357708531506
% es.Ex (V/m) @ t=4.4
6.797966102415032
% es.Ey (V/m) @ t=4.4
1.797486783220485
% es.Ez (V/m) @ t=4.4
-15.526357708531478
% es.tEx (V/m) @ t=4.4
6.797966102415035
% es.tEy (V/m) @ t=4.4
0
% es.tEz (V/m) @ t=4.4
-15.526357708531506
% V (V) @ t=4.4
0.08527890068594648
% es.normE (V/m) @ t=4.5
17.13018574977086
% es.EX (V/m) @ t=4.5
6.827190749289619
% es.EY (V/m) @ t=4.5
1.8052773331123433
% es.EZ (V/m) @ t=4.5
-15.5930070724445
% es.tEX (V/m) @ t=4.5
6.827190749289592
% es.tEY (V/m) @ t=4.5
0
% es.tEZ (V/m) @ t=4.5
-15.593007072444522
% es.Ex (V/m) @ t=4.5
6.827190749289619
% es.Ey (V/m) @ t=4.5
1.8052773331123433
% es.Ez (V/m) @ t=4.5
-15.5930070724445
% es.tEx (V/m) @ t=4.5
6.827190749289592
% es.tEy (V/m) @ t=4.5
0
% es.tEz (V/m) @ t=4.5
-15.593007072444522
% V (V) @ t=4.5
0.08564305233981852
% es.normE (V/m) @ t=4.6
17.180616581508247
% es.EX (V/m) @ t=4.6
6.8473262651613656
% es.EY (V/m) @ t=4.6
1.8106683948490527
% es.EZ (V/m) @ t=4.6
-15.638890558701682
% es.tEX (V/m) @ t=4.6
6.847326265161339
% es.tEY (V/m) @ t=4.6
0
% es.tEZ (V/m) @ t=4.6
-15.638890558701704
% es.Ex (V/m) @ t=4.6
6.8473262651613656
% es.Ey (V/m) @ t=4.6
1.8106683948490527
% es.Ez (V/m) @ t=4.6
-15.638890558701682
% es.tEx (V/m) @ t=4.6
6.847326265161339
% es.tEy (V/m) @ t=4.6
0
% es.tEz (V/m) @ t=4.6
-15.638890558701704
% V (V) @ t=4.6
0.08589302461525407
% es.normE (V/m) @ t=4.7
17.21022396118749
% es.EX (V/m) @ t=4.7
6.859162399111975
% es.EY (V/m) @ t=4.7
1.8138641328195177
% es.EZ (V/m) @ t=4.7
-15.665819360430469
% es.tEX (V/m) @ t=4.7
6.859162399111977
% es.tEY (V/m) @ t=4.7
0
% es.tEZ (V/m) @ t=4.7
-15.665819360430547
% es.Ex (V/m) @ t=4.7
6.859162399111975
% es.Ey (V/m) @ t=4.7
1.8138641328195177
% es.Ez (V/m) @ t=4.7
-15.665819360430469
% es.tEx (V/m) @ t=4.7
6.859162399111977
% es.tEy (V/m) @ t=4.7
0
% es.tEz (V/m) @ t=4.7
-15.665819360430547
% V (V) @ t=4.7
0.08603890871459109
% es.normE (V/m) @ t=4.8
17.236430379146448
% es.EX (V/m) @ t=4.8
6.869624863097018
% es.EY (V/m) @ t=4.8
1.816663900795902
% es.EZ (V/m) @ t=4.8
-15.689663304822766
% es.tEX (V/m) @ t=4.8
6.86962486309702
% es.tEY (V/m) @ t=4.8
0
% es.tEZ (V/m) @ t=4.8
-15.689663304822815
% es.Ex (V/m) @ t=4.8
6.869624863097018
% es.Ey (V/m) @ t=4.8
1.816663900795902
% es.Ez (V/m) @ t=4.8
-15.689663304822766
% es.tEx (V/m) @ t=4.8
6.86962486309702
% es.tEy (V/m) @ t=4.8
0
% es.tEz (V/m) @ t=4.8
-15.689663304822815
% V (V) @ t=4.8
0.08616885932609426
% es.normE (V/m) @ t=4.9
17.24736114737422
% es.EX (V/m) @ t=4.9
6.873992279838456
% es.EY (V/m) @ t=4.9
1.8178391148856505
% es.EZ (V/m) @ t=4.9
-15.69960656780085
% es.tEX (V/m) @ t=4.9
6.873992279838429
% es.tEY (V/m) @ t=4.9
0
% es.tEZ (V/m) @ t=4.9
-15.69960656780087
% es.Ex (V/m) @ t=4.9
6.873992279838456
% es.Ey (V/m) @ t=4.9
1.8178391148856505
% es.Ez (V/m) @ t=4.9
-15.69960656780085
% es.tEx (V/m) @ t=4.9
6.873992279838429
% es.tEy (V/m) @ t=4.9
0
% es.tEz (V/m) @ t=4.9
-15.69960656780087
% V (V) @ t=4.9
0.0862228535161641
% es.normE (V/m) @ t=5
17.243730870247308
% es.EX (V/m) @ t=5
6.872548143443824
% es.EY (V/m) @ t=5
1.817462326465062
% es.EZ (V/m) @ t=5
-15.696300418032045
% es.tEX (V/m) @ t=5
6.872548143443797
% es.tEY (V/m) @ t=5
0
% es.tEZ (V/m) @ t=5
-15.696300418032067
% es.Ex (V/m) @ t=5
6.872548143443824
% es.Ey (V/m) @ t=5
1.817462326465062
% es.Ez (V/m) @ t=5
-15.696300418032045
% es.tEx (V/m) @ t=5
6.872548143443797
% es.tEy (V/m) @ t=5
0
% es.tEz (V/m) @ t=5
-15.696300418032067
% V (V) @ t=5
0.08620454176563151
% es.normE (V/m) @ t=5.1
17.226254152233466
% es.EX (V/m) @ t=5.1
6.865575948020826
% es.EY (V/m) @ t=5.1
1.8156060869097885
% es.EZ (V/m) @ t=5.1
-15.68039612418356
% es.tEX (V/m) @ t=5.1
6.865575948020801
% es.tEY (V/m) @ t=5.1
0
% es.tEZ (V/m) @ t=5.1
-15.680396124183517
% es.Ex (V/m) @ t=5.1
6.865575948020826
% es.Ey (V/m) @ t=5.1
1.8156060869097885
% es.Ez (V/m) @ t=5.1
-15.68039612418356
% es.tEx (V/m) @ t=5.1
6.865575948020801
% es.tEy (V/m) @ t=5.1
0
% es.tEz (V/m) @ t=5.1
-15.680396124183517
% V (V) @ t=5.1
0.08611757455532726
% es.normE (V/m) @ t=5.2
17.195645597955078
% es.EX (V/m) @ t=5.2
6.853359187677617
% es.EY (V/m) @ t=5.2
1.812342947595944
% es.EZ (V/m) @ t=5.2
-15.652544954922611
% es.tEX (V/m) @ t=5.2
6.85335918767759
% es.tEY (V/m) @ t=5.2
0
% es.tEZ (V/m) @ t=5.2
-15.652544954922632
% es.Ex (V/m) @ t=5.2
6.853359187677617
% es.Ey (V/m) @ t=5.2
1.812342947595944
% es.Ez (V/m) @ t=5.2
-15.652544954922611
% es.tEx (V/m) @ t=5.2
6.85335918767759
% es.tEy (V/m) @ t=5.2
0
% es.tEz (V/m) @ t=5.2
-15.652544954922632
% V (V) @ t=5.2
0.08596560236608221
% es.normE (V/m) @ t=5.3
17.152619812263094
% es.EX (V/m) @ t=5.3
6.836181356521513
% es.EY (V/m) @ t=5.3
1.8077454598993157
% es.EZ (V/m) @ t=5.3
-15.61339817891637
% es.tEX (V/m) @ t=5.3
6.836181356521514
% es.tEY (V/m) @ t=5.3
0
% es.tEZ (V/m) @ t=5.3
-15.613398178916384
% es.Ex (V/m) @ t=5.3
6.836181356521513
% es.Ey (V/m) @ t=5.3
1.8077454598993157
% es.Ez (V/m) @ t=5.3
-15.61339817891637
% es.tEx (V/m) @ t=5.3
6.836181356521514
% es.tEy (V/m) @ t=5.3
0
% es.tEz (V/m) @ t=5.3
-15.613398178916384
% V (V) @ t=5.3
0.08575227567872717
% es.normE (V/m) @ t=5.4
17.102007473126093
% es.EX (V/m) @ t=5.4
6.815986491878755
% es.EY (V/m) @ t=5.4
1.802362188792415
% es.EZ (V/m) @ t=5.4