% Model:              1x1--2 - Copy1.mph
% Version:            COMSOL 6.1.0.252
% Date:               Mar 28 2023, 10:18
% Dimension:          0
% Nodes:              14017
% Expressions:        14017
% Description:        Electric field norm, Electric field, X component, Electric field, Y component, Electric field, Z component, Tangential electric field, X component, Tangential electric field, Y component, Tangential electric field, Z component, Electric field, x component, Electric field, y component, Electric field, z component, Tangential electric field, x component, Tangential electric field, y component, Tangential electric field, z component, Electric potential
% Length unit:        mm
% x
1.66
% y
12.2
% z
2
% es.normE (V/m) @ t=0
3.6013789670698984
% es.EX (V/m) @ t=0
-1.0743645382371945
% es.EY (V/m) @ t=0
0.08025139885571597
% es.EZ (V/m) @ t=0
-3.4306736572805807
% es.tEX (V/m) @ t=0
-1.0743645382372122
% es.tEY (V/m) @ t=0
0
% es.tEZ (V/m) @ t=0
-3.4306736572806074
% es.Ex (V/m) @ t=0
-1.0743645382371945
% es.Ey (V/m) @ t=0
0.08025139885571597
% es.Ez (V/m) @ t=0
-3.4306736572805807
% es.tEx (V/m) @ t=0
-1.0743645382372122
% es.tEy (V/m) @ t=0
0
% es.tEz (V/m) @ t=0
-3.4306736572806074
% V (V) @ t=0
0.018102014755875466
% es.normE (V/m) @ t=0.1
3.7761468634413475
% es.EX (V/m) @ t=0.1
-1.1265014107157274
% es.EY (V/m) @ t=0.1
0.08414596646811068
% es.EZ (V/m) @ t=0.1
-3.597157531150091
% es.tEX (V/m) @ t=0.1
-1.1265014107157398
% es.tEY (V/m) @ t=0.1
0
% es.tEZ (V/m) @ t=0.1
-3.5971575311501205
% es.Ex (V/m) @ t=0.1
-1.1265014107157274
% es.Ey (V/m) @ t=0.1
0.08414596646811068
% es.Ez (V/m) @ t=0.1
-3.597157531150091
% es.tEx (V/m) @ t=0.1
-1.1265014107157398
% es.tEy (V/m) @ t=0.1
0
% es.tEz (V/m) @ t=0.1
-3.5971575311501205
% V (V) @ t=0.1
0.018980467540750223
% es.normE (V/m) @ t=0.2
4.034564735326185
% es.EX (V/m) @ t=0.2
-1.2035927987289754
% es.EY (V/m) @ t=0.2
0.08990466844124445
% es.EZ (V/m) @ t=0.2
-3.8433263556801407
% es.tEX (V/m) @ t=0.2
-1.2035927987289838
% es.tEY (V/m) @ t=0.2
0
% es.tEZ (V/m) @ t=0.2
-3.8433263556801833
% es.Ex (V/m) @ t=0.2
-1.2035927987289754
% es.Ey (V/m) @ t=0.2
0.08990466844124445
% es.Ez (V/m) @ t=0.2
-3.8433263556801407
% es.tEx (V/m) @ t=0.2
-1.2035927987289838
% es.tEy (V/m) @ t=0.2
0
% es.tEz (V/m) @ t=0.2
-3.8433263556801833
% V (V) @ t=0.2
0.020279376345073482
% es.normE (V/m) @ t=0.3
4.305880470105726
% es.EX (V/m) @ t=0.3
-1.2845318270026675
% es.EY (V/m) @ t=0.3
0.09595058596825645
% es.EZ (V/m) @ t=0.3
-4.101781715631702
% es.tEX (V/m) @ t=0.3
-1.2845318270026809
% es.tEY (V/m) @ t=0.3
0
% es.tEZ (V/m) @ t=0.3
-4.101781715631725
% es.Ex (V/m) @ t=0.3
-1.2845318270026675
% es.Ey (V/m) @ t=0.3
0.09595058596825645
% es.Ez (V/m) @ t=0.3
-4.101781715631702
% es.tEx (V/m) @ t=0.3
-1.2845318270026809
% es.tEy (V/m) @ t=0.3
0
% es.tEz (V/m) @ t=0.3
-4.101781715631725
% V (V) @ t=0.3
0.02164311983907055
% es.normE (V/m) @ t=0.4
4.5993652621114895
% es.EX (V/m) @ t=0.4
-1.3720811566608453
% es.EY (V/m) @ t=0.4
0.10247931571207536
% es.EZ (V/m) @ t=0.4
-4.38135712257103
% es.tEX (V/m) @ t=0.4
-1.3720811566608546
% es.tEY (V/m) @ t=0.4
0
% es.tEZ (V/m) @ t=0.4
-4.381357122571064
% es.Ex (V/m) @ t=0.4
-1.3720811566608453
% es.Ey (V/m) @ t=0.4
0.10247931571207536
% es.Ez (V/m) @ t=0.4
-4.38135712257103
% es.tEx (V/m) @ t=0.4
-1.3720811566608546
% es.tEy (V/m) @ t=0.4
0
% es.tEz (V/m) @ t=0.4
-4.381357122571064
% V (V) @ t=0.4
0.0231185735053082
% es.normE (V/m) @ t=0.5
4.904373772388801
% es.EX (V/m) @ t=0.5
-1.4630662612076808
% es.EY (V/m) @ t=0.5
0.10925784822765508
% es.EZ (V/m) @ t=0.5
-4.671911148933182
% es.tEX (V/m) @ t=0.5
-1.4630662612077003
% es.tEY (V/m) @ t=0.5
0
% es.tEZ (V/m) @ t=0.5
-4.671911148933235
% es.Ex (V/m) @ t=0.5
-1.4630662612076808
% es.Ey (V/m) @ t=0.5
0.10925784822765508
% es.Ez (V/m) @ t=0.5
-4.671911148933182
% es.tEx (V/m) @ t=0.5
-1.4630662612077003
% es.tEy (V/m) @ t=0.5
0
% es.tEz (V/m) @ t=0.5
-4.671911148933235
% V (V) @ t=0.5
0.024652124503240395
% es.normE (V/m) @ t=0.6
5.219030773889955
% es.EX (V/m) @ t=0.6
-1.5569310740153681
% es.EY (V/m) @ t=0.6
0.11625617318957715
% es.EZ (V/m) @ t=0.6
-4.971655554467274
% es.tEX (V/m) @ t=0.6
-1.556931074015381
% es.tEY (V/m) @ t=0.6
0
% es.tEZ (V/m) @ t=0.6
-4.9716555544673255
% es.Ex (V/m) @ t=0.6
-1.5569310740153681
% es.Ey (V/m) @ t=0.6
0.11625617318957715
% es.Ez (V/m) @ t=0.6
-4.971655554467274
% es.tEx (V/m) @ t=0.6
-1.556931074015381
% es.tEy (V/m) @ t=0.6
0
% es.tEz (V/m) @ t=0.6
-4.9716555544673255
% V (V) @ t=0.6
0.026234055945190505
% es.normE (V/m) @ t=0.7
5.550999309434921
% es.EX (V/m) @ t=0.7
-1.65596272243107
% es.EY (V/m) @ t=0.7
0.12364885457083122
% es.EZ (V/m) @ t=0.7
-5.287889539519453
% es.tEX (V/m) @ t=0.7
-1.6559627224310987
% es.tEY (V/m) @ t=0.7
0
% es.tEZ (V/m) @ t=0.7
-5.287889539519497
% es.Ex (V/m) @ t=0.7
-1.65596272243107
% es.Ey (V/m) @ t=0.7
0.12364885457083122
% es.Ez (V/m) @ t=0.7
-5.287889539519453
% es.tEx (V/m) @ t=0.7
-1.6559627224310987
% es.tEy (V/m) @ t=0.7
0
% es.tEz (V/m) @ t=0.7
-5.287889539519497
% V (V) @ t=0.7
0.027902792639005133
% es.normE (V/m) @ t=0.8
5.885103696155912
% es.EX (V/m) @ t=0.8
-1.7556309677490463
% es.EY (V/m) @ t=0.8
0.13108712593307018
% es.EZ (V/m) @ t=0.8
-5.606158459743341
% es.tEX (V/m) @ t=0.8
-1.7556309677490844
% es.tEY (V/m) @ t=0.8
0
% es.tEZ (V/m) @ t=0.8
-5.606158459743391
% es.Ex (V/m) @ t=0.8
-1.7556309677490463
% es.Ey (V/m) @ t=0.8
0.13108712593307018
% es.Ez (V/m) @ t=0.8
-5.606158459743341
% es.tEx (V/m) @ t=0.8
-1.7556309677490844
% es.tEy (V/m) @ t=0.8
0
% es.tEz (V/m) @ t=0.8
-5.606158459743391
% V (V) @ t=0.8
0.029582314221448937
% es.normE (V/m) @ t=0.9
6.23812035882086
% es.EX (V/m) @ t=0.9
-1.8609360740883503
% es.EY (V/m) @ t=0.9
0.13892908192885078
% es.EZ (V/m) @ t=0.9
-5.9424460770565375
% es.tEX (V/m) @ t=0.9
-1.8609360740883716
% es.tEY (V/m) @ t=0.9
0
% es.tEZ (V/m) @ t=0.9
-5.942446077056594
% es.Ex (V/m) @ t=0.9
-1.8609360740883503
% es.Ey (V/m) @ t=0.9
0.13892908192885078
% es.Ez (V/m) @ t=0.9
-5.9424460770565375
% es.tEx (V/m) @ t=0.9
-1.8609360740883716
% es.tEy (V/m) @ t=0.9
0
% es.tEz (V/m) @ t=0.9
-5.942446077056594
% V (V) @ t=0.9
0.03135733252735662
% es.normE (V/m) @ t=1
6.591137021602787
% es.EX (V/m) @ t=1
-1.9662411804276472
% es.EY (V/m) @ t=1
0.14677103792469814
% es.EZ (V/m) @ t=1
-6.278733694369764
% es.tEX (V/m) @ t=1
-1.9662411804276587
% es.tEY (V/m) @ t=1
0
% es.tEZ (V/m) @ t=1
-6.278733694369798
% es.Ex (V/m) @ t=1
-1.9662411804276472
% es.Ey (V/m) @ t=1
0.14677103792469814
% es.Ez (V/m) @ t=1
-6.278733694369764
% es.tEx (V/m) @ t=1
-1.9662411804276587
% es.tEy (V/m) @ t=1
0
% es.tEz (V/m) @ t=1
-6.278733694369798
% V (V) @ t=1
0.0331323508332643
% es.normE (V/m) @ t=1.1
6.94631209630993
% es.EX (V/m) @ t=1.1
-2.072196933038496
% es.EY (V/m) @ t=1.1
0.15468487623073435
% es.EZ (V/m) @ t=1.1
-6.6170735869263435
% es.tEX (V/m) @ t=1.1
-2.0721969330385406
% es.tEY (V/m) @ t=1.1
0
% es.tEZ (V/m) @ t=1.1
-6.617073586926388
% es.Ex (V/m) @ t=1.1
-2.072196933038496
% es.Ey (V/m) @ t=1.1
0.15468487623073435
% es.Ez (V/m) @ t=1.1
-6.6170735869263435
% es.tEx (V/m) @ t=1.1
-2.0721969330385406
% es.tEy (V/m) @ t=1.1
0
% es.tEz (V/m) @ t=1.1
-6.617073586926388
% V (V) @ t=1.1
0.03491762178715477
% es.normE (V/m) @ t=1.2
7.303402339060941
% es.EX (V/m) @ t=1.2
-2.1787300068234767
% es.EY (V/m) @ t=1.2
0.16266249601296562
% es.EZ (V/m) @ t=1.2
-6.957234471940433
% es.tEX (V/m) @ t=1.2
-2.1787300068234856
% es.tEY (V/m) @ t=1.2
0
% es.tEZ (V/m) @ t=1.2
-6.957234471940506
% es.Ex (V/m) @ t=1.2
-2.1787300068234767
% es.Ey (V/m) @ t=1.2
0.16266249601296562
% es.Ez (V/m) @ t=1.2
-6.957234471940433
% es.tEx (V/m) @ t=1.2
-2.1787300068234856
% es.tEy (V/m) @ t=1.2
0
% es.tEz (V/m) @ t=1.2
-6.957234471940506
% V (V) @ t=1.2
0.036711989958734384
% es.normE (V/m) @ t=1.3
7.662139623489946
% es.EX (V/m) @ t=1.3
-2.285759575861338
% es.EY (V/m) @ t=1.3
0.170694967759133
% es.EZ (V/m) @ t=1.3
-7.298961407449951
% es.tEX (V/m) @ t=1.3
-2.2857595758613627
% es.tEY (V/m) @ t=1.3
0
% es.tEZ (V/m) @ t=1.3
-7.298961407450012
% es.Ex (V/m) @ t=1.3
-2.285759575861338
% es.Ey (V/m) @ t=1.3
0.170694967759133
% es.Ez (V/m) @ t=1.3
-7.298961407449951
% es.tEx (V/m) @ t=1.3
-2.2857595758613627
% es.tEy (V/m) @ t=1.3
0
% es.tEz (V/m) @ t=1.3
-7.298961407450012
% V (V) @ t=1.3
0.038514181722449276
% es.normE (V/m) @ t=1.4
8.022523950080384
% es.EX (V/m) @ t=1.4
-2.393285640152121
% es.EY (V/m) @ t=1.4
0.17878229146910685
% es.EZ (V/m) @ t=1.4
-7.642254393454927
% es.tEX (V/m) @ t=1.4
-2.3932856401521434
% es.tEY (V/m) @ t=1.4
0
% es.tEZ (V/m) @ t=1.4
-7.642254393454994
% es.Ex (V/m) @ t=1.4
-2.393285640152121
% es.Ey (V/m) @ t=1.4
0.17878229146910685
% es.Ez (V/m) @ t=1.4
-7.642254393454927
% es.tEx (V/m) @ t=1.4
-2.3932856401521434
% es.tEy (V/m) @ t=1.4
0
% es.tEz (V/m) @ t=1.4
-7.642254393454994
% V (V) @ t=1.4
0.040324197078299436
% es.normE (V/m) @ t=1.5
8.381214476919066
% es.EX (V/m) @ t=1.5
-2.5003072767373906
% es.EY (V/m) @ t=1.5
0.18683493692582614
% es.EZ (V/m) @ t=1.5
-7.983933372320719
% es.tEX (V/m) @ t=1.5
-2.500307276737402
% es.tEY (V/m) @ t=1.5
0
% es.tEZ (V/m) @ t=1.5
-7.983933372320781
% es.Ex (V/m) @ t=1.5
-2.5003072767373906
% es.Ey (V/m) @ t=1.5
0.18683493692582614
% es.Ez (V/m) @ t=1.5
-7.983933372320719
% es.tEx (V/m) @ t=1.5
-2.500307276737402
% es.tEy (V/m) @ t=1.5
0
% es.tEz (V/m) @ t=1.5
-7.983933372320781
% V (V) @ t=1.5
0.042125620572562215
% es.normE (V/m) @ t=1.6
8.732072959395072
% es.EX (V/m) @ t=1.6
-2.60498545557882
% es.EY (V/m) @ t=1.6
0.19468840719432784
% es.EZ (V/m) @ t=1.6
-8.318155515221893
% es.tEX (V/m) @ t=1.6
-2.6049854555788414
% es.tEY (V/m) @ t=1.6
0
% es.tEZ (V/m) @ t=1.6
-8.318155515221939
% es.Ex (V/m) @ t=1.6
-2.60498545557882
% es.Ey (V/m) @ t=1.6
0.19468840719432784
% es.Ez (V/m) @ t=1.6
-8.318155515221893
% es.tEx (V/m) @ t=1.6
-2.6049854555788414
% es.tEy (V/m) @ t=1.6
0
% es.tEz (V/m) @ t=1.6
-8.318155515221939
% V (V) @ t=1.6
0.04388829152979932
% es.normE (V/m) @ t=1.7
9.080427841245736
% es.EX (V/m) @ t=1.7
-2.708916588942436
% es.EY (V/m) @ t=1.7
0.20248549761736628
% es.EZ (V/m) @ t=1.7
-8.649992823926041
% es.tEX (V/m) @ t=1.7
-2.7089165889424436
% es.tEY (V/m) @ t=1.7
0
% es.tEZ (V/m) @ t=1.7
-8.64999282392612
% es.Ex (V/m) @ t=1.7
-2.708916588942436
% es.Ey (V/m) @ t=1.7
0.20248549761736628
% es.Ez (V/m) @ t=1.7
-8.649992823926041
% es.tEx (V/m) @ t=1.7
-2.7089165889424436
% es.tEy (V/m) @ t=1.7
0
% es.tEz (V/m) @ t=1.7
-8.64999282392612
% V (V) @ t=1.7
0.04563839161709487
% es.normE (V/m) @ t=1.8
9.426279122440029
% es.EX (V/m) @ t=1.8
-2.8121006768282077
% es.EY (V/m) @ t=1.8
0.21022620819493665
% es.EZ (V/m) @ t=1.8
-8.979445298433227
% es.tEX (V/m) @ t=1.8
-2.812100676828237
% es.tEY (V/m) @ t=1.8
0
% es.tEZ (V/m) @ t=1.8
-8.979445298433259
% es.Ex (V/m) @ t=1.8
-2.8121006768282077
% es.Ey (V/m) @ t=1.8
0.21022620819493665
% es.Ez (V/m) @ t=1.8
-8.979445298433227
% es.tEx (V/m) @ t=1.8
-2.812100676828237
% es.tEy (V/m) @ t=1.8
0
% es.tEz (V/m) @ t=1.8
-8.979445298433259
% V (V) @ t=1.8
0.047375920834448866
% es.normE (V/m) @ t=1.9
9.765808060361268
% es.EX (V/m) @ t=1.9
-2.913392924875896
% es.EY (V/m) @ t=1.9
0.21780573818561644
% es.EZ (V/m) @ t=1.9
-9.302878375731662
% es.tEX (V/m) @ t=1.9
-2.913392924875936
% es.tEY (V/m) @ t=1.9
0
% es.tEZ (V/m) @ t=1.9
-9.302878375731783
% es.Ex (V/m) @ t=1.9
-2.913392924875896
% es.Ey (V/m) @ t=1.9
0.21780573818561644
% es.Ez (V/m) @ t=1.9
-9.302878375731662
% es.tEx (V/m) @ t=1.9
-2.913392924875936
% es.tEy (V/m) @ t=1.9
0
% es.tEz (V/m) @ t=1.9
-9.302878375731783
% V (V) @ t=1.9
0.0490821851766629
% es.normE (V/m) @ t=2
10.088408931114252
% es.EX (V/m) @ t=2
-3.0096139165423477
% es.EY (V/m) @ t=2
0.22493302639730728
% es.EZ (V/m) @ t=2
-9.610197850112495
% es.tEX (V/m) @ t=2
-3.0096139165423494
% es.tEY (V/m) @ t=2
0
% es.tEZ (V/m) @ t=2
-9.61019785011251
% es.Ex (V/m) @ t=2
-3.0096139165423477
% es.Ey (V/m) @ t=2
0.22493302639730728
% es.Ez (V/m) @ t=2
-9.610197850112495
% es.tEx (V/m) @ t=2
-3.0096139165423494
% es.tEy (V/m) @ t=2
0
% es.tEz (V/m) @ t=2
-9.61019785011251
% V (V) @ t=2
0.050705266123300875
% es.normE (V/m) @ t=2.1
10.401994232274216
% es.EX (V/m) @ t=2.1
-3.1031356842528286
% es.EY (V/m) @ t=2.1
0.23182522166099134
% es.EZ (V/m) @ t=2.1
-9.908934594905404
% es.tEX (V/m) @ t=2.1
-3.103135684252834
% es.tEY (V/m) @ t=2.1
0
% es.tEZ (V/m) @ t=2.1
-9.908934594905432
% es.Ex (V/m) @ t=2.1
-3.1031356842528286
% es.Ey (V/m) @ t=2.1
0.23182522166099134
% es.Ez (V/m) @ t=2.1
-9.908934594905404
% es.tEx (V/m) @ t=2.1
-3.103135684252834
% es.tEy (V/m) @ t=2.1
0
% es.tEz (V/m) @ t=2.1
-9.908934594905432
% V (V) @ t=2.1
0.0522838979554103
% es.normE (V/m) @ t=2.2
10.706563965449153
% es.EX (V/m) @ t=2.2
-3.1939582280074728
% es.EY (V/m) @ t=2.2
0.2384823239765813
% es.EZ (V/m) @ t=2.2
-10.199088610110557
% es.tEX (V/m) @ t=2.2
-3.193958228007517
% es.tEY (V/m) @ t=2.2
0
% es.tEZ (V/m) @ t=2.2
-10.199088610110671
% es.Ex (V/m) @ t=2.2
-3.1939582280074728
% es.Ey (V/m) @ t=2.2
0.2384823239765813
% es.Ez (V/m) @ t=2.2
-10.199088610110557
% es.tEx (V/m) @ t=2.2
-3.193958228007517
% es.tEy (V/m) @ t=2.2
0
% es.tEz (V/m) @ t=2.2
-10.199088610110671
% V (V) @ t=2.2
0.053818080672991146
% es.normE (V/m) @ t=2.3
11.000766886242818
% es.EX (V/m) @ t=2.3
-3.281688552900225
% es.EY (V/m) @ t=2.3
0.24490989065359636
% es.EZ (V/m) @ t=2.3
-10.47936696161862
% es.tEX (V/m) @ t=2.3
-3.281688552900249
% es.tEY (V/m) @ t=2.3
0
% es.tEZ (V/m) @ t=2.3
-10.479366961618865
% es.Ex (V/m) @ t=2.3
-3.281688552900225
% es.Ey (V/m) @ t=2.3
0.24490989065359636
% es.Ez (V/m) @ t=2.3
-10.47936696161862
% es.tEx (V/m) @ t=2.3
-3.281688552900249
% es.tEy (V/m) @ t=2.3
0
% es.tEz (V/m) @ t=2.3
-10.479366961618865
% V (V) @ t=2.3
0.055300118168276874
% es.normE (V/m) @ t=2.4
11.279017183597162
% es.EX (V/m) @ t=2.4
-3.364702088539495
% es.EY (V/m) @ t=2.4
0.25113089461154436
% es.EZ (V/m) @ t=2.4
-10.744424891925604
% es.tEX (V/m) @ t=2.4
-3.3647020885395307
% es.tEY (V/m) @ t=2.4
0
% es.tEZ (V/m) @ t=2.4
-10.744424891925739
% es.Ex (V/m) @ t=2.4
-3.364702088539495
% es.Ey (V/m) @ t=2.4
0.25113089461154436
% es.Ez (V/m) @ t=2.4
-10.744424891925604
% es.tEx (V/m) @ t=2.4
-3.3647020885395307
% es.tEy (V/m) @ t=2.4
0
% es.tEz (V/m) @ t=2.4
-10.744424891925739
% V (V) @ t=2.4
0.05669819611334575
% es.normE (V/m) @ t=2.5
11.545226936622393
% es.EX (V/m) @ t=2.5
-3.444136619666434
% es.EY (V/m) @ t=2.5
0.25712924652773483
% es.EZ (V/m) @ t=2.5
-10.998005657442043
% es.tEX (V/m) @ t=2.5
-3.4441366196664376
% es.tEY (V/m) @ t=2.5
0
% es.tEZ (V/m) @ t=2.5
-10.998005657442036
% es.Ex (V/m) @ t=2.5
-3.444136619666434
% es.Ey (V/m) @ t=2.5
0.25712924652773483
% es.Ez (V/m) @ t=2.5
-10.998005657442043
% es.tEx (V/m) @ t=2.5
-3.4441366196664376
% es.tEy (V/m) @ t=2.5
0
% es.tEz (V/m) @ t=2.5
-10.998005657442036
% V (V) @ t=2.5
0.0580345960030745
% es.normE (V/m) @ t=2.6
11.79939614677162
% es.EX (V/m) @ t=2.6
-3.519992146281006
% es.EY (V/m) @ t=2.6
0.2629049464021522
% es.EZ (V/m) @ t=2.6
-11.240109258167891
% es.tEX (V/m) @ t=2.6
-3.519992146281055
% es.tEY (V/m) @ t=2.6
0
% es.tEZ (V/m) @ t=2.6
-11.24010925816797
% es.Ex (V/m) @ t=2.6
-3.519992146281006
% es.Ey (V/m) @ t=2.6
0.2629049464021522
% es.Ez (V/m) @ t=2.6
-11.240109258167891
% es.tEx (V/m) @ t=2.6
-3.519992146281055
% es.tEy (V/m) @ t=2.6
0
% es.tEz (V/m) @ t=2.6
-11.24010925816797
% V (V) @ t=2.6
0.059309317837463106
% es.normE (V/m) @ t=2.7
12.041833200228456
% es.EX (V/m) @ t=2.7
-3.592354351214728
% es.EY (V/m) @ t=2.7
0.26844258723845665
% es.EZ (V/m) @ t=2.7
-11.471033045222889
% es.tEX (V/m) @ t=2.7
-3.5923543512147944
% es.tEY (V/m) @ t=2.7
0
% es.tEZ (V/m) @ t=2.7
-11.47103304522296
% es.Ex (V/m) @ t=2.7
-3.592354351214728
% es.Ey (V/m) @ t=2.7
0.26844258723845665
% es.Ez (V/m) @ t=2.7
-11.471033045222889
% es.tEx (V/m) @ t=2.7
-3.5923543512147944
% es.tEy (V/m) @ t=2.7
0
% es.tEz (V/m) @ t=2.7
-11.47103304522296
% V (V) @ t=2.7
0.06052447643154011
% es.normE (V/m) @ t=2.8
12.27457927082959
% es.EX (V/m) @ t=2.8
-3.6617903638456326
% es.EY (V/m) @ t=2.8
0.2736401910783932
% es.EZ (V/m) @ t=2.8
-11.692745167330305
% es.tEX (V/m) @ t=2.8
-3.6617903638456824
% es.tEY (V/m) @ t=2.8
0
% es.tEZ (V/m) @ t=2.8
-11.692745167330365
% es.Ex (V/m) @ t=2.8
-3.6617903638456326
% es.Ey (V/m) @ t=2.8
0.2736401910783932
% es.Ez (V/m) @ t=2.8
-11.692745167330305
% es.tEx (V/m) @ t=2.8
-3.6617903638456824
% es.tEy (V/m) @ t=2.8
0
% es.tEz (V/m) @ t=2.8
-11.692745167330365
% V (V) @ t=2.8
0.06169406961555774
% es.normE (V/m) @ t=2.9
12.496277151921493
% es.EX (V/m) @ t=2.9
-3.7279230919468356
% es.EY (V/m) @ t=2.9
0.2785655644876491
% es.EZ (V/m) @ t=2.9
-11.903936974976325
% es.tEX (V/m) @ t=2.9
-3.7279230919468773
% es.tEY (V/m) @ t=2.9
0
% es.tEZ (V/m) @ t=2.9
-11.903936974976425
% es.Ex (V/m) @ t=2.9
-3.7279230919468356
% es.Ey (V/m) @ t=2.9
0.2785655644876491
% es.Ez (V/m) @ t=2.9
-11.903936974976325
% es.tEx (V/m) @ t=2.9
-3.7279230919468773
% es.tEy (V/m) @ t=2.9
0
% es.tEz (V/m) @ t=2.9
-11.903936974976425
% V (V) @ t=2.9
0.06280879003711098
% es.normE (V/m) @ t=3
12.706926843690676
% es.EX (V/m) @ t=3
-3.7907525355185046
% es.EY (V/m) @ t=3
0.2832187074660562
% es.EZ (V/m) @ t=3
-12.104608468160905
% es.tEX (V/m) @ t=3
-3.79075253551855
% es.tEY (V/m) @ t=3
0
% es.tEZ (V/m) @ t=3
-12.104608468161047
% es.Ex (V/m) @ t=3
-3.7907525355185046
% es.Ey (V/m) @ t=3
0.2832187074660562
% es.Ez (V/m) @ t=3
-12.104608468160905
% es.tEx (V/m) @ t=3
-3.79075253551855
% es.tEy (V/m) @ t=3
0
% es.tEz (V/m) @ t=3
-12.104608468161047
% V (V) @ t=3
0.06386863769619988
% es.normE (V/m) @ t=3.1
12.907475505034899
% es.EX (V/m) @ t=3.1
-3.8505625671291255
% es.EY (V/m) @ t=3.1
0.2876253685482185
% es.EZ (V/m) @ t=3.1
-12.295661163099602
% es.tEX (V/m) @ t=3.1
-3.850562567129174
% es.tEY (V/m) @ t=3.1
0
% es.tEZ (V/m) @ t=3.1
-12.295661163099744
% es.Ex (V/m) @ t=3.1
-3.8505625671291255
% es.Ey (V/m) @ t=3.1
0.2876253685482185
% es.Ez (V/m) @ t=3.1
-12.295661163099602
% es.tEx (V/m) @ t=3.1
-3.850562567129174
% es.tEy (V/m) @ t=3.1
0
% es.tEz (V/m) @ t=3.1
-12.295661163099744
% V (V) @ t=3.1
0.06487825572336428
% es.normE (V/m) @ t=3.2
13.10990601834946
% es.EX (V/m) @ t=3.2
-3.9109445727883276
% es.EY (V/m) @ t=3.2
0.2921113027971426
% es.EZ (V/m) @ t=3.2
-12.48850050392603
% es.tEX (V/m) @ t=3.2
-3.9109445727883667
% es.tEY (V/m) @ t=3.2
0
% es.tEZ (V/m) @ t=3.2
-12.488500503926254
% es.Ex (V/m) @ t=3.2
-3.9109445727883276
% es.Ey (V/m) @ t=3.2
0.2921113027971426
% es.Ez (V/m) @ t=3.2
-12.48850050392603
% es.tEx (V/m) @ t=3.2
-3.9109445727883667
% es.tEy (V/m) @ t=3.2
0
% es.tEz (V/m) @ t=3.2
-12.488500503926254
% V (V) @ t=3.2
0.06589638623003408
% es.normE (V/m) @ t=3.3
13.306591274335716
% es.EX (V/m) @ t=3.3
-3.9696126339573437
% es.EY (V/m) @ t=3.3
0.2964691669933735
% es.EZ (V/m) @ t=3.3
-12.675866921182077
% es.tEX (V/m) @ t=3.3
-3.9696126339573823
% es.tEY (V/m) @ t=3.3
0
% es.tEZ (V/m) @ t=3.3
-12.675866921182234
% es.Ex (V/m) @ t=3.3
-3.9696126339573437
% es.Ey (V/m) @ t=3.3
0.2964691669933735
% es.Ez (V/m) @ t=3.3
-12.675866921182077
% es.tEx (V/m) @ t=3.3
-3.9696126339573823
% es.tEy (V/m) @ t=3.3
0
% es.tEz (V/m) @ t=3.3
-12.675866921182234
% V (V) @ t=3.3
0.06688563984030683
% es.normE (V/m) @ t=3.4
13.497531272990393
% es.EX (V/m) @ t=3.4
-4.026566750636096
% es.EY (V/m) @ t=3.4
0.30069896113694283
% es.EZ (V/m) @ t=3.4
-12.857760414867506
% es.tEX (V/m) @ t=3.4
-4.026566750636135
% es.tEY (V/m) @ t=3.4
0
% es.tEZ (V/m) @ t=3.4
-12.857760414867677
% es.Ex (V/m) @ t=3.4
-4.026566750636096
% es.Ey (V/m) @ t=3.4
0.30069896113694283
% es.Ez (V/m) @ t=3.4
-12.857760414867506
% es.tEx (V/m) @ t=3.4
-4.026566750636135
% es.tEy (V/m) @ t=3.4
0
% es.tEz (V/m) @ t=3.4
-12.857760414867677
% V (V) @ t=3.4
0.0678460165541825
% es.normE (V/m) @ t=3.5
13.682726014310983
% es.EX (V/m) @ t=3.5
-4.08180692282475
% es.EY (V/m) @ t=3.5
0.30480068522772086
% es.EZ (V/m) @ t=3.5
-13.03418098498243
% es.tEX (V/m) @ t=3.5
-4.081806922824768
% es.tEY (V/m) @ t=3.5
0
% es.tEZ (V/m) @ t=3.5
-13.034180984982534
% es.Ex (V/m) @ t=3.5
-4.08180692282475
% es.Ey (V/m) @ t=3.5
0.30480068522772086
% es.Ez (V/m) @ t=3.5
-13.03418098498243
% es.tEx (V/m) @ t=3.5
-4.081806922824768
% es.tEy (V/m) @ t=3.5
0
% es.tEz (V/m) @ t=3.5
-13.034180984982534
% V (V) @ t=3.5
0.06877751637166105
% es.normE (V/m) @ t=3.6
13.862175498295208
% es.EX (V/m) @ t=3.6
-4.135333150523218
% es.EY (V/m) @ t=3.6
0.3087743392657613
% es.EZ (V/m) @ t=3.6
-13.205128631526911
% es.tEX (V/m) @ t=3.6
-4.135333150523252
% es.tEY (V/m) @ t=3.6
0
% es.tEZ (V/m) @ t=3.6
-13.205128631526982
% es.Ex (V/m) @ t=3.6
-4.135333150523218
% es.Ey (V/m) @ t=3.6
0.3087743392657613
% es.Ez (V/m) @ t=3.6
-13.205128631526911
% es.tEx (V/m) @ t=3.6
-4.135333150523252
% es.tEy (V/m) @ t=3.6
0
% es.tEz (V/m) @ t=3.6
-13.205128631526982
% V (V) @ t=3.6
0.06968013929274254
% es.normE (V/m) @ t=3.7
14.035879724940827
% es.EX (V/m) @ t=3.7
-4.187145433731551
% es.EY (V/m) @ t=3.7
0.31261992325108484
% es.EZ (V/m) @ t=3.7
-13.370603354500712
% es.tEX (V/m) @ t=3.7
-4.187145433731587
% es.tEY (V/m) @ t=3.7
0
% es.tEZ (V/m) @ t=3.7
-13.370603354500851
% es.Ex (V/m) @ t=3.7
-4.187145433731551
% es.Ey (V/m) @ t=3.7
0.31261992325108484
% es.Ez (V/m) @ t=3.7
-13.370603354500712
% es.tEx (V/m) @ t=3.7
-4.187145433731587
% es.tEy (V/m) @ t=3.7
0
% es.tEz (V/m) @ t=3.7
-13.370603354500851
% V (V) @ t=3.7
0.07055388531742694
% es.normE (V/m) @ t=3.8
14.20383869424644
% es.EX (V/m) @ t=3.8
-4.2372437724496645
% es.EY (V/m) @ t=3.8
0.3163374371836955
% es.EZ (V/m) @ t=3.8
-13.530605153904183
% es.tEX (V/m) @ t=3.8
-4.237243772449688
% es.tEY (V/m) @ t=3.8
0
% es.tEZ (V/m) @ t=3.8
-13.530605153904297
% es.Ex (V/m) @ t=3.8
-4.2372437724496645
% es.Ey (V/m) @ t=3.8
0.3163374371836955
% es.Ez (V/m) @ t=3.8
-13.530605153904183
% es.tEx (V/m) @ t=3.8
-4.237243772449688
% es.tEy (V/m) @ t=3.8
0
% es.tEz (V/m) @ t=3.8
-13.530605153904297
% V (V) @ t=3.8
0.07139875444571428
% es.normE (V/m) @ t=3.9
14.366052406210073
% es.EX (V/m) @ t=3.9
-4.285628166677606
% es.EY (V/m) @ t=3.9
0.3199268810635062
% es.EZ (V/m) @ t=3.9
-13.685134029736815
% es.tEX (V/m) @ t=3.9
-4.28562816667764
% es.tEY (V/m) @ t=3.9
0
% es.tEZ (V/m) @ t=3.9
-13.685134029737043
% es.Ex (V/m) @ t=3.9
-4.285628166677606
% es.Ey (V/m) @ t=3.9
0.3199268810635062
% es.Ez (V/m) @ t=3.9
-13.685134029736815
% es.tEx (V/m) @ t=3.9
-4.28562816667764
% es.tEy (V/m) @ t=3.9
0
% es.tEz (V/m) @ t=3.9
-13.685134029737043
% V (V) @ t=3.9
0.07221474667760451
% es.normE (V/m) @ t=4
14.531612229045354
% es.EX (V/m) @ t=4
-4.3350256872210355
% es.EY (V/m) @ t=4
0.3236435189451685
% es.EZ (V/m) @ t=4
-13.842841946204917
% es.tEX (V/m) @ t=4
-4.335025687221105
% es.tEY (V/m) @ t=4
0
% es.tEZ (V/m) @ t=4
-13.84284194620512
% es.Ex (V/m) @ t=4
-4.3350256872210355
% es.Ey (V/m) @ t=4
0.3236435189451685
% es.Ez (V/m) @ t=4
-13.842841946204917
% es.tEx (V/m) @ t=4
-4.335025687221105
% es.tEy (V/m) @ t=4
0
% es.tEz (V/m) @ t=4
-13.84284194620512
% V (V) @ t=4
0.07304622493132211
% es.normE (V/m) @ t=4.1
14.69381502689157
% es.EX (V/m) @ t=4.1
-4.38342564371097
% es.EY (V/m) @ t=4.1
0.32729914266960036
% es.EZ (V/m) @ t=4.1
-13.997349743271158
% es.tEX (V/m) @ t=4.1
-4.383425643711007
% es.tEY (V/m) @ t=4.1
0
% es.tEZ (V/m) @ t=4.1
-13.99734974327125
% es.Ex (V/m) @ t=4.1
-4.38342564371097
% es.Ey (V/m) @ t=4.1
0.32729914266960036
% es.Ez (V/m) @ t=4.1
-13.997349743271158
% es.tEx (V/m) @ t=4.1
-4.383425643711007
% es.tEy (V/m) @ t=4.1
0
% es.tEz (V/m) @ t=4.1
-13.99734974327125
% V (V) @ t=4.1
0.07386048008459914
% es.normE (V/m) @ t=4.2
14.852350476246876
% es.EX (V/m) @ t=4.2
-4.43073495063572
% es.EY (V/m) @ t=4.2
0.3308850390836394
% es.EZ (V/m) @ t=4.2
-14.148362095815113
% es.tEX (V/m) @ t=4.2
-4.4307349506357525
% es.tEY (V/m) @ t=4.2
0
% es.tEZ (V/m) @ t=4.2
-14.148362095815159
% es.Ex (V/m) @ t=4.2
-4.43073495063572
% es.Ey (V/m) @ t=4.2
0.3308850390836394
% es.Ez (V/m) @ t=4.2
-14.148362095815113
% es.tEx (V/m) @ t=4.2
-4.4307349506357525
% es.tEy (V/m) @ t=4.2
0
% es.tEz (V/m) @ t=4.2
-14.148362095815159
% V (V) @ t=4.2
0.0746559978588437
% es.normE (V/m) @ t=4.3
15.007218577337131
% es.EX (V/m) @ t=4.3
-4.476953607995233
% es.EY (V/m) @ t=4.3
0.3344012081876466
% es.EZ (V/m) @ t=4.3
-14.295879003836369
% es.tEX (V/m) @ t=4.3
-4.476953607995313
% es.tEY (V/m) @ t=4.3
0
% es.tEZ (V/m) @ t=4.3
-14.29587900383649
% es.Ex (V/m) @ t=4.3
-4.476953607995233
% es.Ey (V/m) @ t=4.3
0.3344012081876466
% es.Ez (V/m) @ t=4.3
-14.295879003836369
% es.tEx (V/m) @ t=4.3
-4.476953607995313
% es.tEy (V/m) @ t=4.3
0
% es.tEz (V/m) @ t=4.3
-14.29587900383649
% V (V) @ t=4.3
0.0754327782540558
% es.normE (V/m) @ t=4.4
15.158419330431599
% es.EX (V/m) @ t=4.4
-4.522081615789699
% es.EY (V/m) @ t=4.4
0.33784764998128536
% es.EZ (V/m) @ t=4.4
-14.439900467335395
% es.tEX (V/m) @ t=4.4
-4.5220816157897445
% es.tEY (V/m) @ t=4.4
0
% es.tEZ (V/m) @ t=4.4
-14.439900467335491
% es.Ex (V/m) @ t=4.4
-4.522081615789699
% es.Ey (V/m) @ t=4.4
0.33784764998128536
% es.Ez (V/m) @ t=4.4
-14.439900467335395
% es.tEx (V/m) @ t=4.4
-4.5220816157897445
% es.tEy (V/m) @ t=4.4
0
% es.tEz (V/m) @ t=4.4
-14.439900467335491
% V (V) @ t=4.4
0.07619082127023545
% es.normE (V/m) @ t=4.5
15.305952735839725
% es.EX (V/m) @ t=4.5
-4.56611897401894
% es.EY (V/m) @ t=4.5
0.341224364464755
% es.EZ (V/m) @ t=4.5
-14.580426486311907
% es.tEX (V/m) @ t=4.5
-4.566118974018991
% es.tEY (V/m) @ t=4.5
0
% es.tEZ (V/m) @ t=4.5
-14.58042648631205
% es.Ex (V/m) @ t=4.5
-4.56611897401894
% es.Ey (V/m) @ t=4.5
0.341224364464755
% es.Ez (V/m) @ t=4.5
-14.580426486311907
% es.tEx (V/m) @ t=4.5
-4.566118974018991
% es.tEy (V/m) @ t=4.5
0
% es.tEz (V/m) @ t=4.5
-14.58042648631205
% V (V) @ t=4.5
0.07693012690738263
% es.normE (V/m) @ t=4.6
15.449778468480455
% es.EX (V/m) @ t=4.6
-4.60905231508643
% es.EY (V/m) @ t=4.6
0.3445257306765277
% es.EZ (V/m) @ t=4.6
-14.717419406395546
% es.tEX (V/m) @ t=4.6
-4.609052315086501
% es.tEY (V/m) @ t=4.6
0
% es.tEZ (V/m) @ t=4.6
-14.717419406395656
% es.Ex (V/m) @ t=4.6
-4.60905231508643
% es.Ey (V/m) @ t=4.6
0.3445257306765277
% es.Ez (V/m) @ t=4.6
-14.717419406395546
% es.tEx (V/m) @ t=4.6
-4.609052315086501
% es.tEy (V/m) @ t=4.6
0
% es.tEz (V/m) @ t=4.6
-14.717419406395656
% V (V) @ t=4.6
0.07765061208570832
% es.normE (V/m) @ t=4.7
15.588970370689902
% es.EX (V/m) @ t=4.7
-4.650574624357684
% es.EY (V/m) @ t=4.7
0.34762265155875116
% es.EZ (V/m) @ t=4.7
-14.850014416717887
% es.tEX (V/m) @ t=4.7
-4.650574624357688
% es.tEY (V/m) @ t=4.7
0
% es.tEZ (V/m) @ t=4.7
-14.850014416717897
% es.Ex (V/m) @ t=4.7
-4.650574624357684
% es.Ey (V/m) @ t=4.7
0.34762265155875116
% es.Ez (V/m) @ t=4.7
-14.850014416717887
% es.tEx (V/m) @ t=4.7
-4.650574624357688
% es.tEy (V/m) @ t=4.7
0
% es.tEz (V/m) @ t=4.7
-14.850014416717897
% V (V) @ t=4.7
0.07835036870521443
% es.normE (V/m) @ t=4.8
15.724243509648801
% es.EX (V/m) @ t=4.8
-4.6909229417372345
% es.EY (V/m) @ t=4.8
0.3506148003870706
% es.EZ (V/m) @ t=4.8
-14.978879220582236
% es.tEX (V/m) @ t=4.8
-4.690922941737284
% es.tEY (V/m) @ t=4.8
0
% es.tEZ (V/m) @ t=4.8
-14.978879220582286
% es.Ex (V/m) @ t=4.8
-4.6909229417372345
% es.Ey (V/m) @ t=4.8
0.3506148003870706
% es.Ez (V/m) @ t=4.8
-14.978879220582236
% es.tEx (V/m) @ t=4.8
-4.690922941737284
% es.tEy (V/m) @ t=4.8
0
% es.tEz (V/m) @ t=4.8
-14.978879220582286
% V (V) @ t=4.8
0.07903086997203046
% es.normE (V/m) @ t=4.9
15.855597885500833
% es.EX (V/m) @ t=4.9
-4.730097267225073
% es.EY (V/m) @ t=4.9
0.35350217716159393
% es.EZ (V/m) @ t=4.9
-15.104013817988548
% es.tEX (V/m) @ t=4.9
-4.730097267225119
% es.tEY (V/m) @ t=4.9
0
% es.tEZ (V/m) @ t=4.9
-15.104013817988758
% es.Ex (V/m) @ t=4.9
-4.730097267225073
% es.Ey (V/m) @ t=4.9
0.35350217716159393
% es.Ez (V/m) @ t=4.9
-15.104013817988548
% es.tEx (V/m) @ t=4.9
-4.730097267225119
% es.tEy (V/m) @ t=4.9
0
% es.tEz (V/m) @ t=4.9
-15.104013817988758
% V (V) @ t=4.9
0.07969211588615635
% es.normE (V/m) @ t=5
15.983033498488023
% es.EX (V/m) @ t=5
-4.768097600821209
% es.EY (V/m) @ t=5
0.35628478188209756
% es.EZ (V/m) @ t=5
-15.225418208937263
% es.tEX (V/m) @ t=5
-4.7680976008213065
% es.tEY (V/m) @ t=5
0
% es.tEZ (V/m) @ t=5
-15.22541820893737
% es.Ex (V/m) @ t=5
-4.768097600821209
% es.Ey (V/m) @ t=5
0.35628478188209756
% es.Ez (V/m) @ t=5
-15.225418208937263
% es.tEx (V/m) @ t=5
-4.7680976008213065
% es.tEy (V/m) @ t=5
0
% es.tEz (V/m) @ t=5
-15.22541820893737
% V (V) @ t=5
0.08033410644759213
% es.normE (V/m) @ t=5.1
16.106550348945852
% es.EX (V/m) @ t=5.1
-4.80492394252552
% es.EY (V/m) @ t=5.1
0.3589626145487318
% es.EZ (V/m) @ t=5.1
-15.343092393427817
% es.tEX (V/m) @ t=5.1
-4.804923942525505
% es.tEY (V/m) @ t=5.1
0
% es.tEZ (V/m) @ t=5.1
-15.343092393427959
% es.Ex (V/m) @ t=5.1
-4.80492394252552
% es.Ey (V/m) @ t=5.1
0.3589626145487318
% es.Ez (V/m) @ t=5.1
-15.343092393427817
% es.tEx (V/m) @ t=5.1
-4.804923942525505
% es.tEy (V/m) @ t=5.1
0
% es.tEz (V/m) @ t=5.1
-15.343092393427959
% V (V) @ t=5.1
0.08095684165633783
% es.normE (V/m) @ t=5.2
16.22614843730237
% es.EX (V/m) @ t=5.2
-4.840576292338142
% es.EY (V/m) @ t=5.2
0.36153567516144947
% es.EZ (V/m) @ t=5.2
-15.45703637146061
% es.tEX (V/m) @ t=5.2
-4.840576292338227
% es.tEY (V/m) @ t=5.2
0
% es.tEZ (V/m) @ t=5.2
-15.457036371460802
% es.Ex (V/m) @ t=5.2
-4.840576292338142
% es.Ey (V/m) @ t=5.2
0.36153567516144947
% es.Ez (V/m) @ t=5.2
-15.45703637146061
% es.tEx (V/m) @ t=5.2
-4.840576292338227
% es.tEy (V/m) @ t=5.2
0
% es.tEz (V/m) @ t=5.2
-15.457036371460802
% V (V) @ t=5.2
0.0815603215123934
% es.normE (V/m) @ t=5.3
16.340313071645845
% es.EX (V/m) @ t=5.3
-4.874607257569993
% es.EY (V/m) @ t=5.3
0.3639859830349872
% es.EZ (V/m) @ t=5.3
-15.56580470969821
% es.tEX (V/m) @ t=5.3
-4.874607257570091
% es.tEY (V/m) @ t=5.3
0
% es.tEZ (V/m) @ t=5.3
-15.565804709698348
% es.Ex (V/m) @ t=5.3
-4.874607257569993
% es.Ey (V/m) @ t=5.3
0.3639859830349872