% Model:              1 neuron.mph
% Version:            COMSOL 6.0.0.405
% Date:               Mar 16 2023, 19:47
% Dimension:          0
% Nodes:              14017
% Expressions:        14017
% Description:        Electric field norm, Electric field, X component, Electric field, Y component, Electric field, Z component, Tangential electric field, X component, Tangential electric field, Y component, Tangential electric field, Z component, Electric field, x component, Electric field, y component, Electric field, z component, Tangential electric field, x component, Tangential electric field, y component, Tangential electric field, z component, Electric potential
% Length unit:        mm
% x
2
% y
12.2
% z
1
% es.normE (V/m) @ t=0
1.1462001982846182
% es.EX (V/m) @ t=0
-0.7402025263479575
% es.EY (V/m) @ t=0
0.16445521765978688
% es.EZ (V/m) @ t=0
0.8441683339261825
% es.tEX (V/m) @ t=0
-0.740202526347955
% es.tEY (V/m) @ t=0
0
% es.tEZ (V/m) @ t=0
0.8441683339261976
% es.Ex (V/m) @ t=0
-0.7402025263479575
% es.Ey (V/m) @ t=0
0.16445521765978688
% es.Ez (V/m) @ t=0
0.8441683339261825
% es.tEx (V/m) @ t=0
-0.740202526347955
% es.tEy (V/m) @ t=0
0
% es.tEz (V/m) @ t=0
0.8441683339261976
% V (V) @ t=0
0.011092969786607168
% es.normE (V/m) @ t=0.02
0.9954834085804896
% es.EX (V/m) @ t=0.02
-0.642871406647461
% es.EY (V/m) @ t=0.02
0.14283058191084808
% es.EZ (V/m) @ t=0.02
0.7331664848302735
% es.tEX (V/m) @ t=0.02
-0.6428714066474552
% es.tEY (V/m) @ t=0.02
0
% es.tEZ (V/m) @ t=0.02
0.7331664848302735
% es.Ex (V/m) @ t=0.02
-0.642871406647461
% es.Ey (V/m) @ t=0.02
0.14283058191084808
% es.Ez (V/m) @ t=0.02
0.7331664848302735
% es.tEx (V/m) @ t=0.02
-0.6428714066474552
% es.tEy (V/m) @ t=0.02
0
% es.tEz (V/m) @ t=0.02
0.7331664848302735
% V (V) @ t=0.02
0.009634326708254795
% es.normE (V/m) @ t=0.04
1.0102443427765264
% es.EX (V/m) @ t=0.04
-0.6524038428897996
% es.EY (V/m) @ t=0.04
0.14494846172804965
% es.EZ (V/m) @ t=0.04
0.7440378080051584
% es.tEX (V/m) @ t=0.04
-0.6524038428897974
% es.tEY (V/m) @ t=0.04
0
% es.tEZ (V/m) @ t=0.04
0.7440378080051664
% es.Ex (V/m) @ t=0.04
-0.6524038428897996
% es.Ey (V/m) @ t=0.04
0.14494846172804965
% es.Ez (V/m) @ t=0.04
0.7440378080051584
% es.tEx (V/m) @ t=0.04
-0.6524038428897974
% es.tEy (V/m) @ t=0.04
0
% es.tEz (V/m) @ t=0.04
0.7440378080051664
% V (V) @ t=0.04
0.009777183196355689
% es.normE (V/m) @ t=0.06
1.0252243658201583
% es.EX (V/m) @ t=0.06
-0.6620777633744059
% es.EY (V/m) @ t=0.06
0.147097778634528
% es.EZ (V/m) @ t=0.06
0.7550704878714019
% es.tEX (V/m) @ t=0.06
-0.6620777633744037
% es.tEY (V/m) @ t=0.06
0
% es.tEZ (V/m) @ t=0.06
0.7550704878713956
% es.Ex (V/m) @ t=0.06
-0.6620777633744059
% es.Ey (V/m) @ t=0.06
0.147097778634528
% es.Ez (V/m) @ t=0.06
0.7550704878714019
% es.tEx (V/m) @ t=0.06
-0.6620777633744037
% es.tEy (V/m) @ t=0.06
0
% es.tEz (V/m) @ t=0.06
0.7550704878713956
% V (V) @ t=0.06
0.009922159314034628
% es.normE (V/m) @ t=0.08
1.0405921502850701
% es.EX (V/m) @ t=0.08
-0.6720020968594542
% es.EY (V/m) @ t=0.08
0.14930272673576428
% es.EZ (V/m) @ t=0.08
0.7663887524539605
% es.tEX (V/m) @ t=0.08
-0.6720020968594556
% es.tEY (V/m) @ t=0.08
0
% es.tEZ (V/m) @ t=0.08
0.7663887524539605
% es.Ex (V/m) @ t=0.08
-0.6720020968594542
% es.Ey (V/m) @ t=0.08
0.14930272673576428
% es.Ez (V/m) @ t=0.08
0.7663887524539605
% es.tEx (V/m) @ t=0.08
-0.6720020968594556
% es.tEy (V/m) @ t=0.08
0
% es.tEz (V/m) @ t=0.08
0.7663887524539605
% V (V) @ t=0.08
0.01007088942251532
% es.normE (V/m) @ t=0.1
1.0562189332608136
% es.EX (V/m) @ t=0.1
-0.6820936893616434
% es.EY (V/m) @ t=0.1
0.15154483272800245
% es.EZ (V/m) @ t=0.1
0.7778977683907726
% es.tEX (V/m) @ t=0.1
-0.6820936893616409
% es.tEY (V/m) @ t=0.1
0
% es.tEZ (V/m) @ t=0.1
0.7778977683907771
% es.Ex (V/m) @ t=0.1
-0.6820936893616434
% es.Ey (V/m) @ t=0.1
0.15154483272800245
% es.Ez (V/m) @ t=0.1
0.7778977683907726
% es.tEx (V/m) @ t=0.1
-0.6820936893616409
% es.tEy (V/m) @ t=0.1
0
% es.tEz (V/m) @ t=0.1
0.7778977683907771
% V (V) @ t=0.1
0.010222126943992665
% es.normE (V/m) @ t=0.12
1.0718457162365613
% es.EX (V/m) @ t=0.12
-0.6921852818638181
% es.EY (V/m) @ t=0.12
0.15378693872022386
% es.EZ (V/m) @ t=0.12
0.7894067843276025
% es.tEX (V/m) @ t=0.12
-0.6921852818638192
% es.tEY (V/m) @ t=0.12
0
% es.tEZ (V/m) @ t=0.12
0.789406784327614
% es.Ex (V/m) @ t=0.12
-0.6921852818638181
% es.Ey (V/m) @ t=0.12
0.15378693872022386
% es.Ez (V/m) @ t=0.12
0.7894067843276025
% es.tEx (V/m) @ t=0.12
-0.6921852818638192
% es.tEy (V/m) @ t=0.12
0
% es.tEz (V/m) @ t=0.12
0.789406784327614
% V (V) @ t=0.12
0.010373364465470013
% es.normE (V/m) @ t=0.14
1.087765248888461
% es.EX (V/m) @ t=0.14
-0.702465925094333
% es.EY (V/m) @ t=0.14
0.15607105958873124
% es.EZ (V/m) @ t=0.14
0.8011314052502803
% es.tEX (V/m) @ t=0.14
-0.7024659250943306
% es.tEY (V/m) @ t=0.14
0
% es.tEZ (V/m) @ t=0.14
0.8011314052502883
% es.Ex (V/m) @ t=0.14
-0.702465925094333
% es.Ey (V/m) @ t=0.14
0.15607105958873124
% es.Ez (V/m) @ t=0.14
0.8011314052502803
% es.tEx (V/m) @ t=0.14
-0.7024659250943306
% es.tEy (V/m) @ t=0.14
0
% es.tEz (V/m) @ t=0.14
0.8011314052502883
% V (V) @ t=0.14
0.010527431926996067
% es.normE (V/m) @ t=0.16
1.1047925981792446
% es.EX (V/m) @ t=0.16
-0.7134619697736031
% es.EY (V/m) @ t=0.16
0.15851417219250608
% es.EZ (V/m) @ t=0.16
0.8136719136366128
% es.tEX (V/m) @ t=0.16
-0.7134619697736007
% es.tEY (V/m) @ t=0.16
0
% es.tEZ (V/m) @ t=0.16
0.8136719136366173
% es.Ex (V/m) @ t=0.16
-0.7134619697736031
% es.Ey (V/m) @ t=0.16
0.15851417219250608
% es.Ez (V/m) @ t=0.16
0.8136719136366128
% es.tEx (V/m) @ t=0.16
-0.7134619697736007
% es.tEy (V/m) @ t=0.16
0
% es.tEz (V/m) @ t=0.16
0.8136719136366173
% V (V) @ t=0.16
0.010692208383026171
% es.normE (V/m) @ t=0.18
1.1218199474700357
% es.EX (V/m) @ t=0.18
-0.7244580144528732
% es.EY (V/m) @ t=0.18
0.160957284796295
% es.EZ (V/m) @ t=0.18
0.8262124220229365
% es.tEX (V/m) @ t=0.18
-0.7244580144528743
% es.tEY (V/m) @ t=0.18
0
% es.tEZ (V/m) @ t=0.18
0.826212422022941
% es.Ex (V/m) @ t=0.18
-0.7244580144528732
% es.Ey (V/m) @ t=0.18
0.160957284796295
% es.Ez (V/m) @ t=0.18
0.8262124220229365
% es.tEx (V/m) @ t=0.18
-0.7244580144528743
% es.tEy (V/m) @ t=0.18
0
% es.tEz (V/m) @ t=0.18
0.826212422022941
% V (V) @ t=0.18
0.010856984839056278
% es.normE (V/m) @ t=0.2
1.1388472967608405
% es.EX (V/m) @ t=0.2
-0.7354540591321506
% es.EY (V/m) @ t=0.2
0.16340039740006984
% es.EZ (V/m) @ t=0.2
0.8387529304092629
% es.tEX (V/m) @ t=0.2
-0.7354540591321479
% es.tEY (V/m) @ t=0.2
0
% es.tEZ (V/m) @ t=0.2
0.83875293040927
% es.Ex (V/m) @ t=0.2
-0.7354540591321506
% es.Ey (V/m) @ t=0.2
0.16340039740006984
% es.Ez (V/m) @ t=0.2
0.8387529304092629
% es.tEx (V/m) @ t=0.2
-0.7354540591321479
% es.tEy (V/m) @ t=0.2
0
% es.tEz (V/m) @ t=0.2
0.83875293040927
% V (V) @ t=0.2
0.011021761295086386
% es.normE (V/m) @ t=0.22
1.1558746460516454
% es.EX (V/m) @ t=0.22
-0.7464501038114206
% es.EY (V/m) @ t=0.22
0.16584351000386954
% es.EZ (V/m) @ t=0.22
0.8512934387955786
% es.tEX (V/m) @ t=0.22
-0.7464501038114144
% es.tEY (V/m) @ t=0.22
0
% es.tEZ (V/m) @ t=0.22
0.8512934387955928
% es.Ex (V/m) @ t=0.22
-0.7464501038114206
% es.Ey (V/m) @ t=0.22
0.16584351000386954
% es.Ez (V/m) @ t=0.22
0.8512934387955786
% es.tEx (V/m) @ t=0.22
-0.7464501038114144
% es.tEy (V/m) @ t=0.22
0
% es.tEz (V/m) @ t=0.22
0.8512934387955928
% V (V) @ t=0.22
0.011186537751116492
% es.normE (V/m) @ t=0.24
1.172901995342471
% es.EX (V/m) @ t=0.24
-0.7574461484906869
% es.EY (V/m) @ t=0.24
0.1682866226076336
% es.EZ (V/m) @ t=0.24
0.8638339471819227
% es.tEX (V/m) @ t=0.24
-0.7574461484906878
% es.tEY (V/m) @ t=0.24
0
% es.tEZ (V/m) @ t=0.24
0.8638339471819156
% es.Ex (V/m) @ t=0.24
-0.7574461484906869
% es.Ey (V/m) @ t=0.24
0.1682866226076336
% es.Ez (V/m) @ t=0.24
0.8638339471819227
% es.tEx (V/m) @ t=0.24
-0.7574461484906878
% es.tEy (V/m) @ t=0.24
0
% es.tEz (V/m) @ t=0.24
0.8638339471819156
% V (V) @ t=0.24
0.011351314207146596
% es.normE (V/m) @ t=0.26
1.189929344633301
% es.EX (V/m) @ t=0.26
-0.7684421931699572
% es.EY (V/m) @ t=0.26
0.17072973521143153
% es.EZ (V/m) @ t=0.26
0.8763744555682456
% es.tEX (V/m) @ t=0.26
-0.7684421931699581
% es.tEY (V/m) @ t=0.26
0
% es.tEZ (V/m) @ t=0.26
0.8763744555682456
% es.Ex (V/m) @ t=0.26
-0.7684421931699572
% es.Ey (V/m) @ t=0.26
0.17072973521143153
% es.Ez (V/m) @ t=0.26
0.8763744555682456
% es.tEx (V/m) @ t=0.26
-0.7684421931699581
% es.tEy (V/m) @ t=0.26
0
% es.tEz (V/m) @ t=0.26
0.8763744555682456
% V (V) @ t=0.26
0.011516090663176704
% es.normE (V/m) @ t=0.28
1.2076042943847969
% es.EX (V/m) @ t=0.28
-0.7798564645771333
% es.EY (V/m) @ t=0.28
0.17326571897400067
% es.EZ (V/m) @ t=0.28
0.8893919292762611
% es.tEX (V/m) @ t=0.28
-0.7798564645771306
% es.tEY (V/m) @ t=0.28
0
% es.tEZ (V/m) @ t=0.28
0.889391929276262
% es.Ex (V/m) @ t=0.28
-0.7798564645771333
% es.Ey (V/m) @ t=0.28
0.17326571897400067
% es.Ez (V/m) @ t=0.28
0.8893919292762611
% es.tEx (V/m) @ t=0.28
-0.7798564645771306
% es.tEy (V/m) @ t=0.28
0
% es.tEz (V/m) @ t=0.28
0.889391929276262
% V (V) @ t=0.28
0.011687147663216931
% es.normE (V/m) @ t=0.3
1.2261448070320373
% es.EX (V/m) @ t=0.3
-0.7918297249901225
% es.EY (V/m) @ t=0.3
0.1759258314764699
% es.EZ (V/m) @ t=0.3
0.903046900191419
% es.tEX (V/m) @ t=0.3
-0.7918297249901229
% es.tEY (V/m) @ t=0.3
0
% es.tEZ (V/m) @ t=0.3
0.9030469001914296
% es.Ex (V/m) @ t=0.3
-0.7918297249901225
% es.Ey (V/m) @ t=0.3
0.1759258314764699
% es.Ez (V/m) @ t=0.3
0.903046900191419
% es.tEx (V/m) @ t=0.3
-0.7918297249901229
% es.tEy (V/m) @ t=0.3
0
% es.tEz (V/m) @ t=0.3
0.9030469001914296
% V (V) @ t=0.3
0.011866599045581508
% es.normE (V/m) @ t=0.32
1.2446853196793044
% es.EX (V/m) @ t=0.32
-0.8038029854031232
% es.EY (V/m) @ t=0.32
0.1785859439789409
% es.EZ (V/m) @ t=0.32
0.9167018711065822
% es.tEX (V/m) @ t=0.32
-0.803802985403117
% es.tEY (V/m) @ t=0.32
0
% es.tEZ (V/m) @ t=0.32
0.9167018711065902
% es.Ex (V/m) @ t=0.32
-0.8038029854031232
% es.Ey (V/m) @ t=0.32
0.1785859439789409
% es.Ez (V/m) @ t=0.32
0.9167018711065822
% es.tEx (V/m) @ t=0.32
-0.803802985403117
% es.tEy (V/m) @ t=0.32
0
% es.tEz (V/m) @ t=0.32
0.9167018711065902
% V (V) @ t=0.32
0.012046050427946084
% es.normE (V/m) @ t=0.34
1.2632258323265826
% es.EX (V/m) @ t=0.34
-0.8157762458161204
% es.EY (V/m) @ t=0.34
0.18124605648141023
% es.EZ (V/m) @ t=0.34
0.930356842021749
% es.tEX (V/m) @ t=0.34
-0.8157762458161208
% es.tEY (V/m) @ t=0.34
0
% es.tEZ (V/m) @ t=0.34
0.930356842021757
% es.Ex (V/m) @ t=0.34
-0.8157762458161204
% es.Ey (V/m) @ t=0.34
0.18124605648141023
% es.Ez (V/m) @ t=0.34
0.930356842021749
% es.tEx (V/m) @ t=0.34
-0.8157762458161208
% es.tEy (V/m) @ t=0.34
0
% es.tEz (V/m) @ t=0.34
0.930356842021757
% V (V) @ t=0.34
0.012225501810310662
% es.normE (V/m) @ t=0.36
1.281766344973841
% es.EX (V/m) @ t=0.36
-0.8277495062291136
% es.EY (V/m) @ t=0.36
0.1839061689838669
% es.EZ (V/m) @ t=0.36
0.944011812936882
% es.tEX (V/m) @ t=0.36
-0.8277495062291105
% es.tEY (V/m) @ t=0.36
0
% es.tEZ (V/m) @ t=0.36
0.9440118129369042
% es.Ex (V/m) @ t=0.36
-0.8277495062291136
% es.Ey (V/m) @ t=0.36
0.1839061689838669
% es.Ez (V/m) @ t=0.36
0.944011812936882
% es.tEx (V/m) @ t=0.36
-0.8277495062291105
% es.tEy (V/m) @ t=0.36
0
% es.tEz (V/m) @ t=0.36
0.9440118129369042
% V (V) @ t=0.36
0.012404953192675238
% es.normE (V/m) @ t=0.38
1.300306857621144
% es.EX (V/m) @ t=0.38
-0.8397227666421077
% es.EY (V/m) @ t=0.38
0.1865662814863398
% es.EZ (V/m) @ t=0.38
0.9576667838520558
% es.tEX (V/m) @ t=0.38
-0.8397227666421117
% es.tEY (V/m) @ t=0.38
0
% es.tEZ (V/m) @ t=0.38
0.9576667838520629
% es.Ex (V/m) @ t=0.38
-0.8397227666421077
% es.Ey (V/m) @ t=0.38
0.1865662814863398
% es.Ez (V/m) @ t=0.38
0.9576667838520558
% es.tEx (V/m) @ t=0.38
-0.8397227666421117
% es.tEy (V/m) @ t=0.38
0
% es.tEz (V/m) @ t=0.38
0.9576667838520629
% V (V) @ t=0.38
0.012584404575039817
% es.normE (V/m) @ t=0.4
1.3188473702684413
% es.EX (V/m) @ t=0.4
-0.8516960270551115
% es.EY (V/m) @ t=0.4
0.18922639398881091
% es.EZ (V/m) @ t=0.4
0.9713217547672013
% es.tEX (V/m) @ t=0.4
-0.8516960270551084
% es.tEY (V/m) @ t=0.4
0
% es.tEZ (V/m) @ t=0.4
0.9713217547672093
% es.Ex (V/m) @ t=0.4
-0.8516960270551115
% es.Ey (V/m) @ t=0.4
0.18922639398881091
% es.Ez (V/m) @ t=0.4
0.9713217547672013
% es.tEx (V/m) @ t=0.4
-0.8516960270551084
% es.tEy (V/m) @ t=0.4
0
% es.tEz (V/m) @ t=0.4
0.9713217547672093
% V (V) @ t=0.4
0.012763855957404393
% es.normE (V/m) @ t=0.42
1.3384383812690996
% es.EX (V/m) @ t=0.42
-0.8643476421067677
% es.EY (V/m) @ t=0.42
0.19203737662565257
% es.EZ (V/m) @ t=0.42
0.985750371330373
% es.tEX (V/m) @ t=0.42
-0.8643476421067646
% es.tEY (V/m) @ t=0.42
0
% es.tEZ (V/m) @ t=0.42
0.9857503713303837
% es.Ex (V/m) @ t=0.42
-0.8643476421067677
% es.Ey (V/m) @ t=0.42
0.19203737662565257
% es.Ez (V/m) @ t=0.42
0.985750371330373
% es.tEx (V/m) @ t=0.42
-0.8643476421067646
% es.tEy (V/m) @ t=0.42
0
% es.tEz (V/m) @ t=0.42
0.9857503713303837
% V (V) @ t=0.42
0.012953432398291515
% es.normE (V/m) @ t=0.44
1.3586027060741357
% es.EX (V/m) @ t=0.44
-0.8773694719972558
% es.EY (V/m) @ t=0.44
0.19493069725991696
% es.EZ (V/m) @ t=0.44
1.000601208193273
% es.tEX (V/m) @ t=0.44
-0.8773694719972527
% es.tEY (V/m) @ t=0.44
0
% es.tEZ (V/m) @ t=0.44
1.0006012081932836
% es.Ex (V/m) @ t=0.44
-0.8773694719972558
% es.Ey (V/m) @ t=0.44
0.19493069725991696
% es.Ez (V/m) @ t=0.44
1.000601208193273
% es.tEx (V/m) @ t=0.44
-0.8773694719972527
% es.tEy (V/m) @ t=0.44
0
% es.tEz (V/m) @ t=0.44
1.0006012081932836
% V (V) @ t=0.44
0.013148534631581724
% es.normE (V/m) @ t=0.46
1.3787670308792521
% es.EX (V/m) @ t=0.46
-0.8903913018877403
% es.EY (V/m) @ t=0.46
0.19782401789416892
% es.EZ (V/m) @ t=0.46
1.0154520450561701
% es.tEX (V/m) @ t=0.46
-0.8903913018877407
% es.tEY (V/m) @ t=0.46
0
% es.tEZ (V/m) @ t=0.46
1.0154520450561844
% es.Ex (V/m) @ t=0.46
-0.8903913018877403
% es.Ey (V/m) @ t=0.46
0.19782401789416892
% es.Ez (V/m) @ t=0.46
1.0154520450561701
% es.tEx (V/m) @ t=0.46
-0.8903913018877407
% es.tEy (V/m) @ t=0.46
0
% es.tEz (V/m) @ t=0.46
1.0154520450561844
% V (V) @ t=0.46
0.013343636864871935
% es.normE (V/m) @ t=0.48
1.3989313556844523
% es.EX (V/m) @ t=0.48
-0.9034131317782172
% es.EY (V/m) @ t=0.48
0.20071733852844043
% es.EZ (V/m) @ t=0.48
1.030302881919071
% es.tEX (V/m) @ t=0.48
-0.9034131317782141
% es.tEY (V/m) @ t=0.48
0
% es.tEZ (V/m) @ t=0.48
1.0303028819190851
% es.Ex (V/m) @ t=0.48
-0.9034131317782172
% es.Ey (V/m) @ t=0.48
0.20071733852844043
% es.Ez (V/m) @ t=0.48
1.030302881919071
% es.tEx (V/m) @ t=0.48
-0.9034131317782141
% es.tEy (V/m) @ t=0.48
0
% es.tEz (V/m) @ t=0.48
1.0303028819190851
% V (V) @ t=0.48
0.013538739098162143
% es.normE (V/m) @ t=0.5
1.4190956804897321
% es.EX (V/m) @ t=0.5
-0.9164349616687049
% es.EY (V/m) @ t=0.5
0.20361065916267806
% es.EZ (V/m) @ t=0.5
1.0451537187819708
% es.tEX (V/m) @ t=0.5
-0.9164349616687018
% es.tEY (V/m) @ t=0.5
0
% es.tEZ (V/m) @ t=0.5
1.0451537187819788
% es.Ex (V/m) @ t=0.5
-0.9164349616687049
% es.Ey (V/m) @ t=0.5
0.20361065916267806
% es.Ez (V/m) @ t=0.5
1.0451537187819708
% es.tEx (V/m) @ t=0.5
-0.9164349616687018
% es.tEy (V/m) @ t=0.5
0
% es.tEz (V/m) @ t=0.5
1.0451537187819788
% V (V) @ t=0.5
0.013733841331452352
% es.normE (V/m) @ t=0.52
1.4392600052950981
% es.EX (V/m) @ t=0.52
-0.9294567915591889
% es.EY (V/m) @ t=0.52
0.2065039797969459
% es.EZ (V/m) @ t=0.52
1.0600045556448796
% es.tEX (V/m) @ t=0.52
-0.9294567915591858
% es.tEY (V/m) @ t=0.52
0
% es.tEZ (V/m) @ t=0.52
1.0600045556448947
% es.Ex (V/m) @ t=0.52
-0.9294567915591889
% es.Ey (V/m) @ t=0.52
0.2065039797969459
% es.Ez (V/m) @ t=0.52
1.0600045556448796
% es.tEx (V/m) @ t=0.52
-0.9294567915591858
% es.tEy (V/m) @ t=0.52
0
% es.tEz (V/m) @ t=0.52
1.0600045556448947
% V (V) @ t=0.52
0.013928943564742561
% es.normE (V/m) @ t=0.54
1.4594243301005179
% es.EX (V/m) @ t=0.54
-0.9424786214496659
% es.EY (V/m) @ t=0.54
0.2093973004312173
% es.EZ (V/m) @ t=0.54
1.0748553925077662
% es.tEX (V/m) @ t=0.54
-0.9424786214496628
% es.tEY (V/m) @ t=0.54
0
% es.tEZ (V/m) @ t=0.54
1.0748553925077742
% es.Ex (V/m) @ t=0.54
-0.9424786214496659
% es.Ey (V/m) @ t=0.54
0.2093973004312173
% es.Ez (V/m) @ t=0.54
1.0748553925077662
% es.tEx (V/m) @ t=0.54
-0.9424786214496628
% es.tEy (V/m) @ t=0.54
0
% es.tEz (V/m) @ t=0.54
1.0748553925077742
% V (V) @ t=0.54
0.014124045798032775
% es.normE (V/m) @ t=0.56
1.4802602017780577
% es.EX (V/m) @ t=0.56
-0.9559341547291704
% es.EY (V/m) @ t=0.56
0.21238688771333625
% es.EZ (V/m) @ t=0.56
1.0902008417982687
% es.tEX (V/m) @ t=0.56
-0.9559341547291673
% es.tEY (V/m) @ t=0.56
0
% es.tEZ (V/m) @ t=0.56
1.0902008417982803
% es.Ex (V/m) @ t=0.56
-0.9559341547291704
% es.Ey (V/m) @ t=0.56
0.21238688771333625
% es.Ez (V/m) @ t=0.56
1.0902008417982687
% es.tEx (V/m) @ t=0.56
-0.9559341547291673
% es.tEy (V/m) @ t=0.56
0
% es.tEz (V/m) @ t=0.56
1.0902008417982803
% V (V) @ t=0.56
0.014325671831978687
% es.normE (V/m) @ t=0.58
1.5013893241763145
% es.EX (V/m) @ t=0.58
-0.9695790773673272
% es.EY (V/m) @ t=0.58
0.21541851266259893
% es.EZ (V/m) @ t=0.58
1.105762278173069
% es.tEX (V/m) @ t=0.58
-0.9695790773673272
% es.tEY (V/m) @ t=0.58
0
% es.tEZ (V/m) @ t=0.58
1.1057622781730831
% es.Ex (V/m) @ t=0.58
-0.9695790773673272
% es.Ey (V/m) @ t=0.58
0.21541851266259893
% es.Ez (V/m) @ t=0.58
1.105762278173069
% es.tEx (V/m) @ t=0.58
-0.9695790773673272
% es.tEy (V/m) @ t=0.58
0
% es.tEz (V/m) @ t=0.58
1.1057622781730831
% V (V) @ t=0.58
0.014530146675626182
% es.normE (V/m) @ t=0.6
1.522721288077355
% es.EX (V/m) @ t=0.6
-0.9833550006114891
% es.EY (V/m) @ t=0.6
0.21847921506323686
% es.EZ (V/m) @ t=0.6
1.1214731127988111
% es.tEX (V/m) @ t=0.6
-0.9833550006114855
% es.tEY (V/m) @ t=0.6
0
% es.tEZ (V/m) @ t=0.6
1.1214731127988227
% es.Ex (V/m) @ t=0.6
-0.9833550006114891
% es.Ey (V/m) @ t=0.6
0.21847921506323686
% es.Ez (V/m) @ t=0.6
1.1214731127988111
% es.tEx (V/m) @ t=0.6
-0.9833550006114855
% es.tEy (V/m) @ t=0.6
0
% es.tEz (V/m) @ t=0.6
1.1214731127988227
% V (V) @ t=0.6
0.014736592040742801
% es.normE (V/m) @ t=0.62
1.5442560934811898
% es.EX (V/m) @ t=0.62
-0.9972619244616387
% es.EY (V/m) @ t=0.62
0.22156899491526916
% es.EZ (V/m) @ t=0.62
1.1373333456755024
% es.tEX (V/m) @ t=0.62
-0.9972619244616392
% es.tEY (V/m) @ t=0.62
0
% es.tEZ (V/m) @ t=0.62
1.137333345675514
% es.Ex (V/m) @ t=0.62
-0.9972619244616387
% es.Ey (V/m) @ t=0.62
0.22156899491526916
% es.Ez (V/m) @ t=0.62
1.1373333456755024
% es.tEx (V/m) @ t=0.62
-0.9972619244616392
% es.tEy (V/m) @ t=0.62
0
% es.tEz (V/m) @ t=0.62
1.137333345675514
% V (V) @ t=0.62
0.014945007927328545
% es.normE (V/m) @ t=0.64
1.5659937403877997
% es.EX (V/m) @ t=0.64
-1.0112998489177838
% es.EY (V/m) @ t=0.64
0.22468785221867116
% es.EZ (V/m) @ t=0.64
1.1533429768031294
% es.tEX (V/m) @ t=0.64
-1.0112998489177802
% es.tEY (V/m) @ t=0.64
0
% es.tEZ (V/m) @ t=0.64
1.153342976803141
% es.Ex (V/m) @ t=0.64
-1.0112998489177838
% es.Ey (V/m) @ t=0.64
0.22468785221867116
% es.Ez (V/m) @ t=0.64
1.1533429768031294
% es.tEx (V/m) @ t=0.64
-1.0112998489177802
% es.tEy (V/m) @ t=0.64
0
% es.tEz (V/m) @ t=0.64
1.153342976803141
% V (V) @ t=0.64
0.015155394335383408
% es.normE (V/m) @ t=0.66
1.5879342287972118
% es.EX (V/m) @ t=0.66
-1.0254687739799357
% es.EY (V/m) @ t=0.66
0.22783578697345708
% es.EZ (V/m) @ t=0.66
1.1695020061816903
% es.tEX (V/m) @ t=0.66
-1.0254687739799322
% es.tEY (V/m) @ t=0.66
0
% es.tEZ (V/m) @ t=0.66
1.1695020061817054
% es.Ex (V/m) @ t=0.66
-1.0254687739799357
% es.Ey (V/m) @ t=0.66
0.22783578697345708
% es.Ez (V/m) @ t=0.66
1.1695020061816903
% es.tEx (V/m) @ t=0.66
-1.0254687739799322
% es.tEy (V/m) @ t=0.66
0
% es.tEz (V/m) @ t=0.66
1.1695020061817054
% V (V) @ t=0.66
0.015367751264907397
% es.normE (V/m) @ t=0.68
1.610077558709439
% es.EX (V/m) @ t=0.68
-1.039768699648071
% es.EY (V/m) @ t=0.68
0.23101279917960738
% es.EZ (V/m) @ t=0.68
1.1858104338112128
% es.tEX (V/m) @ t=0.68
-1.0397686996480675
% es.tEY (V/m) @ t=0.68
0
% es.tEZ (V/m) @ t=0.68
1.1858104338112208
% es.Ex (V/m) @ t=0.68
-1.039768699648071
% es.Ey (V/m) @ t=0.68
0.23101279917960738
% es.Ez (V/m) @ t=0.68
1.1858104338112128
% es.tEx (V/m) @ t=0.68
-1.0397686996480675
% es.tEy (V/m) @ t=0.68
0
% es.tEz (V/m) @ t=0.68
1.1858104338112208
% V (V) @ t=0.68
0.015582078715900503
% es.normE (V/m) @ t=0.7
1.6324237301245064
% es.EX (V/m) @ t=0.7
-1.0541996259221955
% es.EY (V/m) @ t=0.7
0.23421888883717001
% es.EZ (V/m) @ t=0.7
1.2022682596916852
% es.tEX (V/m) @ t=0.7
-1.0541996259221955
% es.tEY (V/m) @ t=0.7
0
% es.tEZ (V/m) @ t=0.7
1.202268259691686
% es.Ex (V/m) @ t=0.7
-1.0541996259221955
% es.Ey (V/m) @ t=0.7
0.23421888883717001
% es.Ez (V/m) @ t=0.7
1.2022682596916852
% es.tEx (V/m) @ t=0.7
-1.0541996259221955
% es.tEy (V/m) @ t=0.7
0
% es.tEz (V/m) @ t=0.7
1.202268259691686
% V (V) @ t=0.7
0.015798376688362738
% es.normE (V/m) @ t=0.72
1.6549727430424164
% es.EX (V/m) @ t=0.72
-1.0687615528023318
% es.EY (V/m) @ t=0.72
0.2374540559461058
% es.EZ (V/m) @ t=0.72
1.2188754838230746
% es.tEX (V/m) @ t=0.72
-1.0687615528023242
% es.tEY (V/m) @ t=0.72
0
% es.tEZ (V/m) @ t=0.72
1.2188754838230826
% es.Ex (V/m) @ t=0.72
-1.0687615528023318
% es.Ey (V/m) @ t=0.72
0.2374540559461058
% es.Ez (V/m) @ t=0.72
1.2188754838230746
% es.tEx (V/m) @ t=0.72
-1.0687615528023242
% es.tEy (V/m) @ t=0.72
0
% es.tEz (V/m) @ t=0.72
1.2188754838230826
% V (V) @ t=0.72
0.016016645182294086
% es.normE (V/m) @ t=0.74
1.6777245974632065
% es.EX (V/m) @ t=0.74
-1.0834544802884443
% es.EY (V/m) @ t=0.74
0.24071830050639897
% es.EZ (V/m) @ t=0.74
1.235632106205422
% es.tEX (V/m) @ t=0.74
-1.0834544802884407
% es.tEY (V/m) @ t=0.74
0
% es.tEZ (V/m) @ t=0.74
1.2356321062054292
% es.Ex (V/m) @ t=0.74
-1.0834544802884443
% es.Ey (V/m) @ t=0.74
0.24071830050639897
% es.Ez (V/m) @ t=0.74
1.235632106205422
% es.tEx (V/m) @ t=0.74
-1.0834544802884407
% es.tEy (V/m) @ t=0.74
0
% es.tEz (V/m) @ t=0.74
1.2356321062054292
% V (V) @ t=0.74
0.01623688419769456
% es.normE (V/m) @ t=0.76
1.7006792933869137
% es.EX (V/m) @ t=0.76
-1.0982784083805628
% es.EY (V/m) @ t=0.76
0.24401162251810415
% es.EZ (V/m) @ t=0.76
1.2525381268387008
% es.tEX (V/m) @ t=0.76
-1.0982784083805628
% es.tEY (V/m) @ t=0.76
0
% es.tEZ (V/m) @ t=0.76
1.2525381268387008
% es.Ex (V/m) @ t=0.76
-1.0982784083805628
% es.Ey (V/m) @ t=0.76
0.24401162251810415
% es.Ez (V/m) @ t=0.76
1.2525381268387008
% es.tEx (V/m) @ t=0.76
-1.0982784083805628
% es.tEy (V/m) @ t=0.76
0
% es.tEz (V/m) @ t=0.76
1.2525381268387008
% V (V) @ t=0.76
0.016459093734564157
% es.normE (V/m) @ t=0.78
1.7238368308135619
% es.EX (V/m) @ t=0.78
-1.1132333370786727
% es.EY (V/m) @ t=0.78
0.24733402198118115
% es.EZ (V/m) @ t=0.78
1.2695935457229197
% es.tEX (V/m) @ t=0.78
-1.1132333370786727
% es.tEY (V/m) @ t=0.78
0
% es.tEZ (V/m) @ t=0.78
1.2695935457229552
% es.Ex (V/m) @ t=0.78
-1.1132333370786727
% es.Ey (V/m) @ t=0.78
0.24733402198118115
% es.Ez (V/m) @ t=0.78
1.2695935457229197
% es.tEx (V/m) @ t=0.78
-1.1132333370786727
% es.tEy (V/m) @ t=0.78
0
% es.tEz (V/m) @ t=0.78
1.2695935457229552
% V (V) @ t=0.78
0.016683273792902874
% es.normE (V/m) @ t=0.8
1.7471972097432094
% es.EX (V/m) @ t=0.8
-1.12831926638279
% es.EY (V/m) @ t=0.8
0.25068549889564007
% es.EZ (V/m) @ t=0.8
1.286798362858093
% es.tEX (V/m) @ t=0.8
-1.1283192663827788
% es.tEY (V/m) @ t=0.8
0
% es.tEZ (V/m) @ t=0.8
1.2867983628581072
% es.Ex (V/m) @ t=0.8
-1.12831926638279
% es.Ey (V/m) @ t=0.8
0.25068549889564007
% es.Ez (V/m) @ t=0.8
1.286798362858093
% es.tEx (V/m) @ t=0.8
-1.1283192663827788
% es.tEy (V/m) @ t=0.8
0
% es.tEz (V/m) @ t=0.8
1.2867983628581072
% V (V) @ t=0.8
0.016909424372710712
% es.normE (V/m) @ t=0.82
1.7708806306210954
% es.EX (V/m) @ t=0.82
-1.1436137969272386
% es.EY (V/m) @ t=0.82
0.25408337571971107
% es.EZ (V/m) @ t=0.82
1.3042410846996546
% es.tEX (V/m) @ t=0.82
-1.1436137969272417
% es.tEY (V/m) @ t=0.82
0
% es.tEZ (V/m) @ t=0.82
1.30424108469966
% es.Ex (V/m) @ t=0.82
-1.1436137969272386
% es.Ey (V/m) @ t=0.82
0.25408337571971107
% es.Ez (V/m) @ t=0.82
1.3042410846996546
% es.tEx (V/m) @ t=0.82
-1.1436137969272417
% es.tEy (V/m) @ t=0.82
0
% es.tEz (V/m) @ t=0.82
1.30424108469966
% V (V) @ t=0.82
0.017138687004494516
% es.normE (V/m) @ t=0.84
1.7950795523510097
% es.EX (V/m) @ t=0.84
-1.159241178942577
% es.EY (V/m) @ t=0.84
0.2575553883017385
% es.EZ (V/m) @ t=0.84
1.322063423330004
% es.tEX (V/m) @ t=0.84
-1.15924117894258
% es.tEY (V/m) @ t=0.84
0
% es.tEZ (V/m) @ t=0.84
1.3220634233300252
% es.Ex (V/m) @ t=0.84
-1.159241178942577
% es.Ey (V/m) @ t=0.84
0.2575553883017385
% es.Ez (V/m) @ t=0.84
1.322063423330004
% es.tEx (V/m) @ t=0.84
-1.15924117894258
% es.tEy (V/m) @ t=0.84
0
% es.tEz (V/m) @ t=0.84
1.3220634233300252
% V (V) @ t=0.84
0.017372889449454733
% es.normE (V/m) @ t=0.86
1.819538384623956
% es.EX (V/m) @ t=0.86
-1.1750364049692075
% es.EY (V/m) @ t=0.86
0.26106470273116855
% es.EZ (V/m) @ t=0.86
1.340077181507036
% es.tEX (V/m) @ t=0.86
-1.1750364049692035
% es.tEY (V/m) @ t=0.86
0
% es.tEZ (V/m) @ t=0.86
1.3400771815070591
% es.Ex (V/m) @ t=0.86
-1.1750364049692075
% es.Ey (V/m) @ t=0.86
0.26106470273116855
% es.Ez (V/m) @ t=0.86
1.340077181507036
% es.tEx (V/m) @ t=0.86
-1.1750364049692035
% es.tEy (V/m) @ t=0.86
0
% es.tEz (V/m) @ t=0.86
1.3400771815070591
% V (V) @ t=0.86
0.017609604394328633
% es.normE (V/m) @ t=0.88
1.844257127439996
% es.EX (V/m) @ t=0.88
-1.1909994750071071
% es.EY (V/m) @ t=0.88
0.2646113190080739
% es.EZ (V/m) @ t=0.88
1.358282359230829
% es.tEX (V/m) @ t=0.88
-1.1909994750071031
% es.tEY (V/m) @ t=0.88
0
% es.tEZ (V/m) @ t=0.88
1.358282359230838
% es.Ex (V/m) @ t=0.88
-1.1909994750071071
% es.Ey (V/m) @ t=0.88
0.2646113190080739
% es.Ez (V/m) @ t=0.88
1.358282359230829
% es.tEx (V/m) @ t=0.88
-1.1909994750071031
% es.tEy (V/m) @ t=0.88
0
% es.tEz (V/m) @ t=0.88
1.358282359230838
% V (V) @ t=0.88
0.017848831839116217
% es.normE (V/m) @ t=0.9
1.8692357807990259
% es.EX (V/m) @ t=0.9
-1.2071303890562697
% es.EY (V/m) @ t=0.9
0.2681952371323266
% es.EZ (V/m) @ t=0.9
1.3766789565012907
% es.tEX (V/m) @ t=0.9
-1.2071303890562728
% es.tEY (V/m) @ t=0.9
0
% es.tEZ (V/m) @ t=0.9
1.3766789565012978
% es.Ex (V/m) @ t=0.9
-1.2071303890562697
% es.Ey (V/m) @ t=0.9
0.2681952371323266
% es.Ez (V/m) @ t=0.9
1.3766789565012907
% es.tEx (V/m) @ t=0.9
-1.2071303890562728
% es.tEy (V/m) @ t=0.9
0
% es.tEz (V/m) @ t=0.9
1.3766789565012978
% V (V) @ t=0.9
0.01809057178381748
% es.normE (V/m) @ t=0.92
1.8944743447011145
% es.EX (V/m) @ t=0.92
-1.2234291471167298
% es.EY (V/m) @ t=0.92
0.27181645710402225
% es.EZ (V/m) @ t=0.92
1.395266973318451
% es.tEX (V/m) @ t=0.92
-1.2234291471167258
% es.tEY (V/m) @ t=0.92
0
% es.tEZ (V/m) @ t=0.92
1.3952669733184724
% es.Ex (V/m) @ t=0.92
-1.2234291471167298
% es.Ey (V/m) @ t=0.92
0.27181645710402225
% es.Ez (V/m) @ t=0.92
1.395266973318451
% es.tEx (V/m) @ t=0.92
-1.2234291471167258
% es.tEy (V/m) @ t=0.92
0
% es.tEz (V/m) @ t=0.92
1.3952669733184724
% V (V) @ t=0.92
0.01833482422843243
% es.normE (V/m) @ t=0.94
1.9199728191462717
% es.EX (V/m) @ t=0.94
-1.2398957491884675
% es.EY (V/m) @ t=0.94
0.2754749789231048
% es.EZ (V/m) @ t=0.94
1.41404640968236
% es.tEX (V/m) @ t=0.94
-1.2398957491884701
% es.tEY (V/m) @ t=0.94
0
% es.tEZ (V/m) @ t=0.94
1.4140464096823546
% es.Ex (V/m) @ t=0.94
-1.2398957491884675
% es.Ey (V/m) @ t=0.94
0.2754749789231048
% es.Ez (V/m) @ t=0.94
1.41404640968236
% es.tEx (V/m) @ t=0.94
-1.2398957491884701
% es.tEy (V/m) @ t=0.94
0
% es.tEz (V/m) @ t=0.94
1.4140464096823546
% V (V) @ t=0.94
0.01858158917296105
% es.normE (V/m) @ t=0.96
1.9457312041344923
% es.EX (V/m) @ t=0.96
-1.2565301952715013
% es.EY (V/m) @ t=0.96
0.2791708025895838
% es.EZ (V/m) @ t=0.96
1.4330172655929712
% es.tEX (V/m) @ t=0.96
-1.2565301952714902
% es.tEY (V/m) @ t=0.96
0
% es.tEZ (V/m) @ t=0.96
1.4330172655929871
% es.Ex (V/m) @ t=0.96
-1.2565301952715013
% es.Ey (V/m) @ t=0.96
0.2791708025895838
% es.Ez (V/m) @ t=0.96
1.4330172655929712
% es.tEx (V/m) @ t=0.96
-1.2565301952714902
% es.tEy (V/m) @ t=0.96
0
% es.tEz (V/m) @ t=0.96
1.4330172655929871
% V (V) @ t=0.96
0.01883086661740336
% es.normE (V/m) @ t=0.98
1.9717494996657348
% es.EX (V/m) @ t=0.98
-1.2733324853657928
% es.EY (V/m) @ t=0.98
0.2829039281035064
% es.EZ (V/m) @ t=0.98
1.4521795410502634
% es.tEX (V/m) @ t=0.98
-1.2733324853657884
% es.tEY (V/m) @ t=0.98
0
% es.tEZ (V/m) @ t=0.98
1.4521795410502705
% es.Ex (V/m) @ t=0.98
-1.2733324853657928
% es.Ey (V/m) @ t=0.98
0.2829039281035064
% es.Ez (V/m) @ t=0.98
1.4521795410502634
% es.tEx (V/m) @ t=0.98
-1.2733324853657884
% es.tEy (V/m) @ t=0.98
0
% es.tEz (V/m) @ t=0.98
1.4521795410502705
% V (V) @ t=0.98
0.01908265656175935
% es.normE (V/m) @ t=1
1.998027705740047
% es.EX (V/m) @ t=1
-1.29030261947136
% es.EY (V/m) @ t=1
0.2866743554648614
% es.EZ (V/m) @ t=1
1.4715332360542792
% es.tEX (V/m) @ t=1
-1.2903026194713485
% es.tEY (V/m) @ t=1
0
% es.tEZ (V/m) @ t=1
1.471533236054288
% es.Ex (V/m) @ t=1
-1.29030261947136
% es.Ey (V/m) @ t=1
0.2866743554648614
% es.Ez (V/m) @ t=1
1.4715332360542792
% es.tEx (V/m) @ t=1
-1.2903026194713485
% es.tEy (V/m) @ t=1
0
% es.tEz (V/m) @ t=1
1.471533236054288
% V (V) @ t=1
0.01933695900602902
% es.normE (V/m) @ t=1.02
2.0245658223574248
% es.EX (V/m) @ t=1.02
-1.3074405975882182
% es.EY (V/m) @ t=1.02
0.29048208467358694
% es.EZ (V/m) @ t=1.02
1.4910783506050063
% es.tEX (V/m) @ t=1.02
-1.3074405975882137
% es.tEY (V/m) @ t=1.02
0
% es.tEZ (V/m) @ t=1.02
1.4910783506050365
% es.Ex (V/m) @ t=1.02
-1.3074405975882182
% es.Ey (V/m) @ t=1.02
0.29048208467358694
% es.Ez (V/m) @ t=1.02
1.4910783506050063
% es.tEx (V/m) @ t=1.02
-1.3074405975882137
% es.tEy (V/m) @ t=1.02
0
% es.tEz (V/m) @ t=1.02
1.4910783506050365
% V (V) @ t=1.02
0.019593773950212365
% es.normE (V/m) @ t=1.04
2.0513638495178736
% es.EX (V/m) @ t=1.04
-1.3247464197163459
% es.EY (V/m) @ t=1.04
0.29432711572971115
% es.EZ (V/m) @ t=1.04
1.5108148847024605
% es.tEX (V/m) @ t=1.04
-1.3247464197163485
% es.tEY (V/m) @ t=1.04
0