% Model:              1 neuron.mph
% Version:            COMSOL 6.1.0.252
% Date:               Mar 18 2023, 13:56
% Dimension:          0
% Nodes:              14017
% Expressions:        14017
% Description:        Electric field norm, Electric field, X component, Electric field, Y component, Electric field, Z component, Tangential electric field, X component, Tangential electric field, Y component, Tangential electric field, Z component, Electric field, x component, Electric field, y component, Electric field, z component, Tangential electric field, x component, Tangential electric field, y component, Tangential electric field, z component, Electric potential
% Length unit:        mm
% x
1.3300000000000003
% y
12.200000000000001
% z
1.66
% es.normE (V/m) @ t=0
20.730543168048456
% es.EX (V/m) @ t=0
13.155599641293481
% es.EY (V/m) @ t=0
3.9339783216919644
% es.EZ (V/m) @ t=0
-14.410207585928895
% es.tEX (V/m) @ t=0
13.155599641293431
% es.tEY (V/m) @ t=0
0
% es.tEZ (V/m) @ t=0
-14.41020758592885
% es.Ex (V/m) @ t=0
13.155599641293481
% es.Ey (V/m) @ t=0
3.9339783216919644
% es.Ez (V/m) @ t=0
-14.410207585928895
% es.tEx (V/m) @ t=0
13.155599641293431
% es.tEy (V/m) @ t=0
0
% es.tEz (V/m) @ t=0
-14.41020758592885
% V (V) @ t=0
0.017757295945961423
% es.normE (V/m) @ t=0.02
19.428126317748735
% es.EX (V/m) @ t=0.02
12.32907394941693
% es.EY (V/m) @ t=0.02
3.686825350293213
% es.EZ (V/m) @ t=0.02
-13.504883162631387
% es.tEX (V/m) @ t=0.02
12.329073949416916
% es.tEY (V/m) @ t=0.02
0
% es.tEZ (V/m) @ t=0.02
-13.504883162631357
% es.Ex (V/m) @ t=0.02
12.32907394941693
% es.Ey (V/m) @ t=0.02
3.686825350293213
% es.Ez (V/m) @ t=0.02
-13.504883162631387
% es.tEx (V/m) @ t=0.02
12.329073949416916
% es.tEy (V/m) @ t=0.02
0
% es.tEz (V/m) @ t=0.02
-13.504883162631357
% V (V) @ t=0.02
0.016641716958925253
% es.normE (V/m) @ t=0.04
19.711102768852257
% es.EX (V/m) @ t=0.04
12.508650603583746
% es.EY (V/m) @ t=0.04
3.740525053891661
% es.EZ (V/m) @ t=0.04
-13.701585796559772
% es.tEX (V/m) @ t=0.04
12.508650603583717
% es.tEY (V/m) @ t=0.04
0
% es.tEZ (V/m) @ t=0.04
-13.701585796559744
% es.Ex (V/m) @ t=0.04
12.508650603583746
% es.Ey (V/m) @ t=0.04
3.740525053891661
% es.Ez (V/m) @ t=0.04
-13.701585796559772
% es.tEx (V/m) @ t=0.04
12.508650603583717
% es.tEy (V/m) @ t=0.04
0
% es.tEz (V/m) @ t=0.04
-13.701585796559744
% V (V) @ t=0.04
0.01688410846693708
% es.normE (V/m) @ t=0.06
19.99781583272953
% es.EX (V/m) @ t=0.06
12.690598499286367
% es.EY (V/m) @ t=0.06
3.7949338479476626
% es.EZ (V/m) @ t=0.06
-13.900885834594376
% es.tEX (V/m) @ t=0.06
12.690598499286343
% es.tEY (V/m) @ t=0.06
0
% es.tEZ (V/m) @ t=0.06
-13.900885834594346
% es.Ex (V/m) @ t=0.06
12.690598499286367
% es.Ey (V/m) @ t=0.06
3.7949338479476626
% es.Ez (V/m) @ t=0.06
-13.900885834594376
% es.tEx (V/m) @ t=0.06
12.690598499286343
% es.tEy (V/m) @ t=0.06
0
% es.tEz (V/m) @ t=0.06
-13.900885834594346
% V (V) @ t=0.06
0.017129700711762928
% es.normE (V/m) @ t=0.08
20.29123294031554
% es.EX (V/m) @ t=0.08
12.87680079734491
% es.EY (V/m) @ t=0.08
3.850614843754313
% es.EZ (V/m) @ t=0.08
-14.104845969885076
% es.tEX (V/m) @ t=0.08
12.876800797344872
% es.tEY (V/m) @ t=0.08
0
% es.tEZ (V/m) @ t=0.08
-14.104845969885046
% es.Ex (V/m) @ t=0.08
12.87680079734491
% es.Ey (V/m) @ t=0.08
3.850614843754313
% es.Ez (V/m) @ t=0.08
-14.104845969885076
% es.tEx (V/m) @ t=0.08
12.876800797344872
% es.tEy (V/m) @ t=0.08
0
% es.tEz (V/m) @ t=0.08
-14.104845969885046
% V (V) @ t=0.08
0.017381035421706898
% es.normE (V/m) @ t=0.1
20.58465004790152
% es.EX (V/m) @ t=0.1
13.063003095403388
% es.EY (V/m) @ t=0.1
3.906295839560978
% es.EZ (V/m) @ t=0.1
-14.308806105175819
% es.tEX (V/m) @ t=0.1
13.063003095403358
% es.tEY (V/m) @ t=0.1
0
% es.tEZ (V/m) @ t=0.1
-14.308806105175774
% es.Ex (V/m) @ t=0.1
13.063003095403388
% es.Ey (V/m) @ t=0.1
3.906295839560978
% es.Ez (V/m) @ t=0.1
-14.308806105175819
% es.tEx (V/m) @ t=0.1
13.063003095403358
% es.tEy (V/m) @ t=0.1
0
% es.tEz (V/m) @ t=0.1
-14.308806105175774
% V (V) @ t=0.1
0.017632370131650872
% es.normE (V/m) @ t=0.12
20.886686250337927
% es.EX (V/m) @ t=0.12
13.25467552433842
% es.EY (V/m) @ t=0.12
3.963612276014704
% es.EZ (V/m) @ t=0.12
-14.518757143593902
% es.tEX (V/m) @ t=0.12
13.254675524338392
% es.tEY (V/m) @ t=0.12
0
% es.tEZ (V/m) @ t=0.12
-14.51875714359386
% es.Ex (V/m) @ t=0.12
13.25467552433842
% es.Ey (V/m) @ t=0.12
3.963612276014704
% es.Ez (V/m) @ t=0.12
-14.518757143593902
% es.tEx (V/m) @ t=0.12
13.254675524338392
% es.tEy (V/m) @ t=0.12
0
% es.tEz (V/m) @ t=0.12
-14.51875714359386
% V (V) @ t=0.12
0.017891086125623824
% es.normE (V/m) @ t=0.14
21.198163519082044
% es.EX (V/m) @ t=0.14
13.452339750464784
% es.EY (V/m) @ t=0.14
4.022720119090511
% es.EZ (V/m) @ t=0.14
-14.735270415593353
% es.tEX (V/m) @ t=0.14
13.452339750464747
% es.tEY (V/m) @ t=0.14
0
% es.tEZ (V/m) @ t=0.14
-14.735270415593323
% es.Ex (V/m) @ t=0.14
13.452339750464784
% es.Ey (V/m) @ t=0.14
4.022720119090511
% es.Ez (V/m) @ t=0.14
-14.735270415593353
% es.tEx (V/m) @ t=0.14
13.452339750464747
% es.tEy (V/m) @ t=0.14
0
% es.tEz (V/m) @ t=0.14
-14.735270415593323
% V (V) @ t=0.14
0.018157887329605805
% es.normE (V/m) @ t=0.16
21.509640787826243
% es.EX (V/m) @ t=0.16
13.6500039765911
% es.EY (V/m) @ t=0.16
4.081827962166377
% es.EZ (V/m) @ t=0.16
-14.951783687592847
% es.tEX (V/m) @ t=0.16
13.650003976591083
% es.tEY (V/m) @ t=0.16
0
% es.tEZ (V/m) @ t=0.16
-14.951783687592817
% es.Ex (V/m) @ t=0.16
13.6500039765911
% es.Ey (V/m) @ t=0.16
4.081827962166377
% es.Ez (V/m) @ t=0.16
-14.951783687592847
% es.tEx (V/m) @ t=0.16
13.650003976591083
% es.tEy (V/m) @ t=0.16
0
% es.tEz (V/m) @ t=0.16
-14.951783687592817
% V (V) @ t=0.16
0.018424688533587783
% es.normE (V/m) @ t=0.18
21.821118056570562
% es.EX (V/m) @ t=0.18
13.847668202717525
% es.EY (V/m) @ t=0.18
4.140935805242185
% es.EZ (V/m) @ t=0.18
-15.168296959592318
% es.tEX (V/m) @ t=0.18
13.847668202717466
% es.tEY (V/m) @ t=0.18
0
% es.tEZ (V/m) @ t=0.18
-15.16829695959229
% es.Ex (V/m) @ t=0.18
13.847668202717525
% es.Ey (V/m) @ t=0.18
4.140935805242185
% es.Ez (V/m) @ t=0.18
-15.168296959592318
% es.tEx (V/m) @ t=0.18
13.847668202717466
% es.tEy (V/m) @ t=0.18
0
% es.tEz (V/m) @ t=0.18
-15.16829695959229
% V (V) @ t=0.18
0.018691489737569764
% es.normE (V/m) @ t=0.2
22.132595325314952
% es.EX (V/m) @ t=0.2
14.045332428843906
% es.EY (V/m) @ t=0.2
4.200043648318008
% es.EZ (V/m) @ t=0.2
-15.384810231591782
% es.tEX (V/m) @ t=0.2
14.045332428843862
% es.tEY (V/m) @ t=0.2
0
% es.tEZ (V/m) @ t=0.2
-15.384810231591768
% es.Ex (V/m) @ t=0.2
14.045332428843906
% es.Ey (V/m) @ t=0.2
4.200043648318008
% es.Ez (V/m) @ t=0.2
-15.384810231591782
% es.tEx (V/m) @ t=0.2
14.045332428843862
% es.tEy (V/m) @ t=0.2
0
% es.tEz (V/m) @ t=0.2
-15.384810231591768
% V (V) @ t=0.2
0.01895829094155174
% es.normE (V/m) @ t=0.22
22.444072594059392
% es.EX (V/m) @ t=0.22
14.242996654970218
% es.EY (V/m) @ t=0.22
4.259151491393872
% es.EZ (V/m) @ t=0.22
-15.601323503591278
% es.tEX (V/m) @ t=0.22
14.242996654970202
% es.tEY (V/m) @ t=0.22
0
% es.tEZ (V/m) @ t=0.22
-15.601323503591233
% es.Ex (V/m) @ t=0.22
14.242996654970218
% es.Ey (V/m) @ t=0.22
4.259151491393872
% es.Ez (V/m) @ t=0.22
-15.601323503591278
% es.tEx (V/m) @ t=0.22
14.242996654970202
% es.tEy (V/m) @ t=0.22
0
% es.tEz (V/m) @ t=0.22
-15.601323503591233
% V (V) @ t=0.22
0.01922509214553372
% es.normE (V/m) @ t=0.24
22.772968075734724
% es.EX (V/m) @ t=0.24
14.451713815361158
% es.EY (V/m) @ t=0.24
4.321564997149384
% es.EZ (V/m) @ t=0.24
-15.829945099665022
% es.tEX (V/m) @ t=0.24
14.451713815361106
% es.tEY (V/m) @ t=0.24
0
% es.tEZ (V/m) @ t=0.24
-15.829945099664993
% es.Ex (V/m) @ t=0.24
14.451713815361158
% es.Ey (V/m) @ t=0.24
4.321564997149384
% es.Ez (V/m) @ t=0.24
-15.829945099665022
% es.tEx (V/m) @ t=0.24
14.451713815361106
% es.tEy (V/m) @ t=0.24
0
% es.tEz (V/m) @ t=0.24
-15.829945099664993
% V (V) @ t=0.24
0.01950681573812021
% es.normE (V/m) @ t=0.26
23.102625041465338
% es.EX (V/m) @ t=0.26
14.660914184519793
% es.EY (V/m) @ t=0.26
4.384123018845386
% es.EZ (V/m) @ t=0.26
-16.059096043712366
% es.tEX (V/m) @ t=0.26
14.660914184519749
% es.tEY (V/m) @ t=0.26
0
% es.tEZ (V/m) @ t=0.26
-16.05909604371232
% es.Ex (V/m) @ t=0.26
14.660914184519793
% es.Ey (V/m) @ t=0.26
4.384123018845386
% es.Ez (V/m) @ t=0.26
-16.059096043712366
% es.tEx (V/m) @ t=0.26
14.660914184519749
% es.tEy (V/m) @ t=0.26
0
% es.tEz (V/m) @ t=0.26
-16.05909604371232
% V (V) @ t=0.26
0.019789191703084616
% es.normE (V/m) @ t=0.28
23.43228200719588
% es.EX (V/m) @ t=0.28
14.870114553678375
% es.EY (V/m) @ t=0.28
4.4466810405413835
% es.EZ (V/m) @ t=0.28
-16.288246987759692
% es.tEX (V/m) @ t=0.28
14.870114553678373
% es.tEY (V/m) @ t=0.28
0
% es.tEZ (V/m) @ t=0.28
-16.28824698775963
% es.Ex (V/m) @ t=0.28
14.870114553678375
% es.Ey (V/m) @ t=0.28
4.4466810405413835
% es.Ez (V/m) @ t=0.28
-16.288246987759692
% es.tEx (V/m) @ t=0.28
14.870114553678373
% es.tEy (V/m) @ t=0.28
0
% es.tEz (V/m) @ t=0.28
-16.28824698775963
% V (V) @ t=0.28
0.020071567668049017
% es.normE (V/m) @ t=0.3
23.761938972926483
% es.EX (V/m) @ t=0.3
15.07931492283699
% es.EY (V/m) @ t=0.3
4.5092390622374205
% es.EZ (V/m) @ t=0.3
-16.517397931807054
% es.tEX (V/m) @ t=0.3
15.079314922836975
% es.tEY (V/m) @ t=0.3
0
% es.tEZ (V/m) @ t=0.3
-16.51739793180701
% es.Ex (V/m) @ t=0.3
15.07931492283699
% es.Ey (V/m) @ t=0.3
4.5092390622374205
% es.Ez (V/m) @ t=0.3
-16.517397931807054
% es.tEx (V/m) @ t=0.3
15.079314922836975
% es.tEy (V/m) @ t=0.3
0
% es.tEz (V/m) @ t=0.3
-16.51739793180701
% V (V) @ t=0.3
0.020353943633013426
% es.normE (V/m) @ t=0.32
24.09159593865708
% es.EX (V/m) @ t=0.32
15.28851529199563
% es.EY (V/m) @ t=0.32
4.571797083933388
% es.EZ (V/m) @ t=0.32
-16.74654887585438
% es.tEX (V/m) @ t=0.32
15.288515291995616
% es.tEY (V/m) @ t=0.32
0
% es.tEZ (V/m) @ t=0.32
-16.74654887585435
% es.Ex (V/m) @ t=0.32
15.28851529199563
% es.Ey (V/m) @ t=0.32
4.571797083933388
% es.Ez (V/m) @ t=0.32
-16.74654887585438
% es.tEx (V/m) @ t=0.32
15.288515291995616
% es.tEy (V/m) @ t=0.32
0
% es.tEz (V/m) @ t=0.32
-16.74654887585435
% V (V) @ t=0.32
0.020636319597977824
% es.normE (V/m) @ t=0.34
24.437151783787925
% es.EX (V/m) @ t=0.34
15.507811669553323
% es.EY (V/m) @ t=0.34
4.63736982678245
% es.EZ (V/m) @ t=0.34
-16.986745606254043
% es.tEX (V/m) @ t=0.34
15.507811669553307
% es.tEY (V/m) @ t=0.34
0
% es.tEZ (V/m) @ t=0.34
-16.98674560625401
% es.Ex (V/m) @ t=0.34
15.507811669553323
% es.Ey (V/m) @ t=0.34
4.63736982678245
% es.Ez (V/m) @ t=0.34
-16.986745606254043
% es.tEx (V/m) @ t=0.34
15.507811669553307
% es.tEy (V/m) @ t=0.34
0
% es.tEz (V/m) @ t=0.34
-16.98674560625401
% V (V) @ t=0.34
0.020932290948931415
% es.normE (V/m) @ t=0.36
24.803026240089874
% es.EX (V/m) @ t=0.36
15.740010646328589
% es.EY (V/m) @ t=0.36
4.706795353548962
% es.EZ (V/m) @ t=0.36
-17.241058742733507
% es.tEX (V/m) @ t=0.36
15.74001064632858
% es.tEY (V/m) @ t=0.36
0
% es.tEZ (V/m) @ t=0.36
-17.241058742733465
% es.Ex (V/m) @ t=0.36
15.740010646328589
% es.Ey (V/m) @ t=0.36
4.706795353548962
% es.Ez (V/m) @ t=0.36
-17.241058742733507
% es.tEx (V/m) @ t=0.36
15.74001064632858
% es.tEy (V/m) @ t=0.36
0
% es.tEz (V/m) @ t=0.36
-17.241058742733465
% V (V) @ t=0.36
0.021245637069169467
% es.normE (V/m) @ t=0.38
25.168900696409327
% es.EX (V/m) @ t=0.38
15.972209623103906
% es.EY (V/m) @ t=0.38
4.77622088031549
% es.EZ (V/m) @ t=0.38
-17.495371879213003
% es.tEX (V/m) @ t=0.38
15.972209623103847
% es.tEY (V/m) @ t=0.38
0
% es.tEZ (V/m) @ t=0.38
-17.495371879212975
% es.Ex (V/m) @ t=0.38
15.972209623103906
% es.Ey (V/m) @ t=0.38
4.77622088031549
% es.Ez (V/m) @ t=0.38
-17.495371879213003
% es.tEx (V/m) @ t=0.38
15.972209623103847
% es.tEy (V/m) @ t=0.38
0
% es.tEz (V/m) @ t=0.38
-17.495371879212975
% V (V) @ t=0.38
0.021558983189407507
% es.normE (V/m) @ t=0.4
25.534775152745475
% es.EX (V/m) @ t=0.4
16.204408599879162
% es.EY (V/m) @ t=0.4
4.845646407082002
% es.EZ (V/m) @ t=0.4
-17.749685015692556
% es.tEX (V/m) @ t=0.4
16.204408599879116
% es.tEY (V/m) @ t=0.4
0
% es.tEZ (V/m) @ t=0.4
-17.749685015692496
% es.Ex (V/m) @ t=0.4
16.204408599879162
% es.Ey (V/m) @ t=0.4
4.845646407082002
% es.Ez (V/m) @ t=0.4
-17.749685015692556
% es.tEx (V/m) @ t=0.4
16.204408599879116
% es.tEy (V/m) @ t=0.4
0
% es.tEz (V/m) @ t=0.4
-17.749685015692496
% V (V) @ t=0.4
0.02187232930964555
% es.normE (V/m) @ t=0.42
25.900649609097606
% es.EX (V/m) @ t=0.42
16.436607576654474
% es.EY (V/m) @ t=0.42
4.915071933848465
% es.EZ (V/m) @ t=0.42
-18.003998152172063
% es.tEX (V/m) @ t=0.42
16.43660757665443
% es.tEY (V/m) @ t=0.42
0
% es.tEZ (V/m) @ t=0.42
-18.003998152172002
% es.Ex (V/m) @ t=0.42
16.436607576654474
% es.Ey (V/m) @ t=0.42
4.915071933848465
% es.Ez (V/m) @ t=0.42
-18.003998152172063
% es.tEx (V/m) @ t=0.42
16.43660757665443
% es.tEy (V/m) @ t=0.42
0
% es.tEz (V/m) @ t=0.42
-18.003998152172002
% V (V) @ t=0.42
0.022185675429883592
% es.normE (V/m) @ t=0.44
26.26652406546505
% es.EX (V/m) @ t=0.44
16.66880655342971
% es.EY (V/m) @ t=0.44
4.984497460615034
% es.EZ (V/m) @ t=0.44
-18.258311288651626
% es.tEX (V/m) @ t=0.44
16.668806553429704
% es.tEY (V/m) @ t=0.44
0
% es.tEZ (V/m) @ t=0.44
-18.258311288651583
% es.Ex (V/m) @ t=0.44
16.66880655342971
% es.Ey (V/m) @ t=0.44
4.984497460615034
% es.Ez (V/m) @ t=0.44
-18.258311288651626
% es.tEx (V/m) @ t=0.44
16.668806553429704
% es.tEy (V/m) @ t=0.44
0
% es.tEz (V/m) @ t=0.44
-18.258311288651583
% V (V) @ t=0.44
0.022499021550121633
% es.normE (V/m) @ t=0.46
26.632398521847172
% es.EX (V/m) @ t=0.46
16.90100553020502
% es.EY (V/m) @ t=0.46
5.05392298738154
% es.EZ (V/m) @ t=0.46
-18.512624425131136
% es.tEX (V/m) @ t=0.46
16.901005530204973
% es.tEY (V/m) @ t=0.46
0
% es.tEZ (V/m) @ t=0.46
-18.51262442513108
% es.Ex (V/m) @ t=0.46
16.90100553020502
% es.Ey (V/m) @ t=0.46
5.05392298738154
% es.Ez (V/m) @ t=0.46
-18.512624425131136
% es.tEx (V/m) @ t=0.46
16.901005530204973
% es.tEy (V/m) @ t=0.46
0
% es.tEz (V/m) @ t=0.46
-18.51262442513108
% V (V) @ t=0.46
0.022812367670359674
% es.normE (V/m) @ t=0.48
26.998272978243342
% es.EX (V/m) @ t=0.48
17.133204506980256
% es.EY (V/m) @ t=0.48
5.123348514148102
% es.EZ (V/m) @ t=0.48
-18.766937561610632
% es.tEX (V/m) @ t=0.48
17.133204506980228
% es.tEY (V/m) @ t=0.48
0
% es.tEZ (V/m) @ t=0.48
-18.7669375616106
% es.Ex (V/m) @ t=0.48
17.133204506980256
% es.Ey (V/m) @ t=0.48
5.123348514148102
% es.Ez (V/m) @ t=0.48
-18.766937561610632
% es.tEx (V/m) @ t=0.48
17.133204506980228
% es.tEy (V/m) @ t=0.48
0
% es.tEz (V/m) @ t=0.48
-18.7669375616106
% V (V) @ t=0.48
0.02312571379059772
% es.normE (V/m) @ t=0.5
27.364147434653113
% es.EX (V/m) @ t=0.5
17.365403483755586
% es.EY (V/m) @ t=0.5
5.19277404091458
% es.EZ (V/m) @ t=0.5
-19.021250698090167
% es.tEX (V/m) @ t=0.5
17.365403483755554
% es.tEY (V/m) @ t=0.5
0
% es.tEZ (V/m) @ t=0.5
-19.021250698090107
% es.Ex (V/m) @ t=0.5
17.365403483755586
% es.Ey (V/m) @ t=0.5
5.19277404091458
% es.Ez (V/m) @ t=0.5
-19.021250698090167
% es.tEx (V/m) @ t=0.5
17.365403483755554
% es.tEy (V/m) @ t=0.5
0
% es.tEz (V/m) @ t=0.5
-19.021250698090107
% V (V) @ t=0.5
0.023439059910835766
% es.normE (V/m) @ t=0.52
27.730021891075772
% es.EX (V/m) @ t=0.52
17.597602460530837
% es.EY (V/m) @ t=0.52
5.262199567681106
% es.EZ (V/m) @ t=0.52
-19.275563834569645
% es.tEX (V/m) @ t=0.52
17.597602460530812
% es.tEY (V/m) @ t=0.52
0
% es.tEZ (V/m) @ t=0.52
-19.275563834569617
% es.Ex (V/m) @ t=0.52
17.597602460530837
% es.Ey (V/m) @ t=0.52
5.262199567681106
% es.Ez (V/m) @ t=0.52
-19.275563834569645
% es.tEx (V/m) @ t=0.52
17.597602460530812
% es.tEy (V/m) @ t=0.52
0
% es.tEz (V/m) @ t=0.52
-19.275563834569617
% V (V) @ t=0.52
0.023752406031073807
% es.normE (V/m) @ t=0.54
28.095896347510994
% es.EX (V/m) @ t=0.54
17.829801437306088
% es.EY (V/m) @ t=0.54
5.331625094447619
% es.EZ (V/m) @ t=0.54
-19.529876971049212
% es.tEX (V/m) @ t=0.54
17.829801437306052
% es.tEY (V/m) @ t=0.54
0
% es.tEZ (V/m) @ t=0.54
-19.529876971049156
% es.Ex (V/m) @ t=0.54
17.829801437306088
% es.Ey (V/m) @ t=0.54
5.331625094447619
% es.Ez (V/m) @ t=0.54
-19.529876971049212
% es.tEx (V/m) @ t=0.54
17.829801437306052
% es.tEy (V/m) @ t=0.54
0
% es.tEz (V/m) @ t=0.54
-19.529876971049156
% V (V) @ t=0.54
0.024065752151311855
% es.normE (V/m) @ t=0.56
28.47336104607526
% es.EX (V/m) @ t=0.56
18.069351193650725
% es.EY (V/m) @ t=0.56
5.40325140779756
% es.EZ (V/m) @ t=0.56
-19.79225066569006
% es.tEX (V/m) @ t=0.56
18.06935119365071
% es.tEY (V/m) @ t=0.56
0
% es.tEZ (V/m) @ t=0.56
-19.79225066569
% es.Ex (V/m) @ t=0.56
18.069351193650725
% es.Ey (V/m) @ t=0.56
5.40325140779756
% es.Ez (V/m) @ t=0.56
-19.79225066569006
% es.tEx (V/m) @ t=0.56
18.06935119365071
% es.tEy (V/m) @ t=0.56
0
% es.tEz (V/m) @ t=0.56
-19.79225066569
% V (V) @ t=0.56
0.024389041268461406
% es.normE (V/m) @ t=0.58
28.86815879957733
% es.EX (V/m) @ t=0.58
18.319893944343363
% es.EY (V/m) @ t=0.58
5.478168968591887
% es.EZ (V/m) @ t=0.58
-20.066678819245453
% es.tEX (V/m) @ t=0.58
18.31989394434333
% es.tEY (V/m) @ t=0.58
0
% es.tEZ (V/m) @ t=0.58
-20.066678819245407
% es.Ex (V/m) @ t=0.58
18.319893944343363
% es.Ey (V/m) @ t=0.58
5.478168968591887
% es.Ez (V/m) @ t=0.58
-20.066678819245453
% es.tEx (V/m) @ t=0.58
18.31989394434333
% es.tEy (V/m) @ t=0.58
0
% es.tEz (V/m) @ t=0.58
-20.066678819245407
% V (V) @ t=0.58
0.02472720000696458
% es.normE (V/m) @ t=0.6
29.26295655307969
% es.EX (V/m) @ t=0.6
18.57043669503599
% es.EY (V/m) @ t=0.6
5.553086529386185
% es.EZ (V/m) @ t=0.6
-20.34110697280083
% es.tEX (V/m) @ t=0.6
18.570436695035937
% es.tEY (V/m) @ t=0.6
0
% es.tEZ (V/m) @ t=0.6
-20.341106972800773
% es.Ex (V/m) @ t=0.6
18.57043669503599
% es.Ey (V/m) @ t=0.6
5.553086529386185
% es.Ez (V/m) @ t=0.6
-20.34110697280083
% es.tEx (V/m) @ t=0.6
18.570436695035937
% es.tEy (V/m) @ t=0.6
0
% es.tEz (V/m) @ t=0.6
-20.341106972800773
% V (V) @ t=0.6
0.025065358745467756
% es.normE (V/m) @ t=0.62
29.657754306582312
% es.EX (V/m) @ t=0.62
18.82097944572861
% es.EY (V/m) @ t=0.62
5.628004090180477
% es.EZ (V/m) @ t=0.62
-20.61553512635622
% es.tEX (V/m) @ t=0.62
18.820979445728575
% es.tEY (V/m) @ t=0.62
0
% es.tEZ (V/m) @ t=0.62
-20.615535126356193
% es.Ex (V/m) @ t=0.62
18.82097944572861
% es.Ey (V/m) @ t=0.62
5.628004090180477
% es.Ez (V/m) @ t=0.62
-20.61553512635622
% es.tEx (V/m) @ t=0.62
18.820979445728575
% es.tEy (V/m) @ t=0.62
0
% es.tEz (V/m) @ t=0.62
-20.615535126356193
% V (V) @ t=0.62
0.025403517483970933
% es.normE (V/m) @ t=0.64
30.05255206008517
% es.EX (V/m) @ t=0.64
19.071522196421245
% es.EY (V/m) @ t=0.64
5.70292165097474
% es.EZ (V/m) @ t=0.64
-20.88996327991162
% es.tEX (V/m) @ t=0.64
19.071522196421192
% es.tEY (V/m) @ t=0.64
0
% es.tEZ (V/m) @ t=0.64
-20.88996327991156
% es.Ex (V/m) @ t=0.64
19.071522196421245
% es.Ey (V/m) @ t=0.64
5.70292165097474
% es.Ez (V/m) @ t=0.64
-20.88996327991162
% es.tEx (V/m) @ t=0.64
19.071522196421192
% es.tEy (V/m) @ t=0.64
0
% es.tEz (V/m) @ t=0.64
-20.88996327991156
% V (V) @ t=0.64
0.025741676222474107
% es.normE (V/m) @ t=0.66
30.447349813588197
% es.EX (V/m) @ t=0.66
19.322064947113837
% es.EY (V/m) @ t=0.66
5.77783921176904
% es.EZ (V/m) @ t=0.66
-21.16439143346698
% es.tEX (V/m) @ t=0.66
19.322064947113788
% es.tEY (V/m) @ t=0.66
0
% es.tEZ (V/m) @ t=0.66
-21.16439143346695
% es.Ex (V/m) @ t=0.66
19.322064947113837
% es.Ey (V/m) @ t=0.66
5.77783921176904
% es.Ez (V/m) @ t=0.66
-21.16439143346698
% es.tEx (V/m) @ t=0.66
19.322064947113788
% es.tEy (V/m) @ t=0.66
0
% es.tEz (V/m) @ t=0.66
-21.16439143346695
% V (V) @ t=0.66
0.02607983496097728
% es.normE (V/m) @ t=0.68
30.842147567091537
% es.EX (V/m) @ t=0.68
19.5726076978065
% es.EY (V/m) @ t=0.68
5.852756772563338
% es.EZ (V/m) @ t=0.68
-21.43881958702236
% es.tEX (V/m) @ t=0.68
19.572607697806447
% es.tEY (V/m) @ t=0.68
0
% es.tEZ (V/m) @ t=0.68
-21.4388195870223
% es.Ex (V/m) @ t=0.68
19.5726076978065
% es.Ey (V/m) @ t=0.68
5.852756772563338
% es.Ez (V/m) @ t=0.68
-21.43881958702236
% es.tEx (V/m) @ t=0.68
19.572607697806447
% es.tEy (V/m) @ t=0.68
0
% es.tEz (V/m) @ t=0.68
-21.4388195870223
% V (V) @ t=0.68
0.026417993699480457
% es.normE (V/m) @ t=0.7
31.23694532059507
% es.EX (V/m) @ t=0.7
19.823150448499092
% es.EY (V/m) @ t=0.7
5.927674333357579
% es.EZ (V/m) @ t=0.7
-21.71324774057778
% es.tEX (V/m) @ t=0.7
19.823150448499042
% es.tEY (V/m) @ t=0.7
0
% es.tEZ (V/m) @ t=0.7
-21.713247740577735
% es.Ex (V/m) @ t=0.7
19.823150448499092
% es.Ey (V/m) @ t=0.7
5.927674333357579
% es.Ez (V/m) @ t=0.7
-21.71324774057778
% es.tEx (V/m) @ t=0.7
19.823150448499042
% es.tEy (V/m) @ t=0.7
0
% es.tEz (V/m) @ t=0.7
-21.713247740577735
% V (V) @ t=0.7
0.02675615243798363
% es.normE (V/m) @ t=0.72
31.631743074098807
% es.EX (V/m) @ t=0.72
20.073693199191702
% es.EY (V/m) @ t=0.72
6.002591894151971
% es.EZ (V/m) @ t=0.72
-21.98767589413319
% es.tEX (V/m) @ t=0.72
20.07369319919168
% es.tEY (V/m) @ t=0.72
0
% es.tEZ (V/m) @ t=0.72
-21.98767589413313
% es.Ex (V/m) @ t=0.72
20.073693199191702
% es.Ey (V/m) @ t=0.72
6.002591894151971
% es.Ez (V/m) @ t=0.72
-21.98767589413319
% es.tEx (V/m) @ t=0.72
20.07369319919168
% es.tEy (V/m) @ t=0.72
0
% es.tEz (V/m) @ t=0.72
-21.98767589413313
% V (V) @ t=0.72
0.027094311176486807
% es.normE (V/m) @ t=0.74
32.02654082760273
% es.EX (V/m) @ t=0.74
20.324235949884287
% es.EY (V/m) @ t=0.74
6.077509454946269
% es.EZ (V/m) @ t=0.74
-22.262104047688553
% es.tEX (V/m) @ t=0.74
20.324235949884297
% es.tEY (V/m) @ t=0.74
0
% es.tEZ (V/m) @ t=0.74
-22.26210404768851
% es.Ex (V/m) @ t=0.74
20.324235949884287
% es.Ey (V/m) @ t=0.74
6.077509454946269
% es.Ez (V/m) @ t=0.74
-22.262104047688553
% es.tEx (V/m) @ t=0.74
20.324235949884297
% es.tEy (V/m) @ t=0.74
0
% es.tEz (V/m) @ t=0.74
-22.26210404768851
% V (V) @ t=0.74
0.02743246991498998
% es.normE (V/m) @ t=0.76
32.43180403182214
% es.EX (V/m) @ t=0.76
20.581417301069934
% es.EY (V/m) @ t=0.76
6.15441417731496
% es.EZ (V/m) @ t=0.76
-22.543809356289252
% es.tEX (V/m) @ t=0.76
20.581417301069898
% es.tEY (V/m) @ t=0.76
0
% es.tEZ (V/m) @ t=0.76
-22.54380935628919
% es.Ex (V/m) @ t=0.76
20.581417301069934
% es.Ey (V/m) @ t=0.76
6.15441417731496
% es.Ez (V/m) @ t=0.76
-22.543809356289252
% es.tEx (V/m) @ t=0.76
20.581417301069898
% es.tEy (V/m) @ t=0.76
0
% es.tEz (V/m) @ t=0.76
-22.54380935628919
% V (V) @ t=0.76
0.027779603175688814
% es.normE (V/m) @ t=0.78
32.849045897723116
% es.EX (V/m) @ t=0.78
20.846197135254705
% es.EY (V/m) @ t=0.78
6.233593387123553
% es.EZ (V/m) @ t=0.78
-22.8338440317426
% es.tEX (V/m) @ t=0.78
20.846197135254666
% es.tEY (V/m) @ t=0.78
0
% es.tEZ (V/m) @ t=0.78
-22.833844031742554
% es.Ex (V/m) @ t=0.78
20.846197135254705
% es.Ey (V/m) @ t=0.78
6.233593387123553
% es.Ez (V/m) @ t=0.78
-22.8338440317426
% es.tEx (V/m) @ t=0.78
20.846197135254666
% es.tEy (V/m) @ t=0.78
0
% es.tEz (V/m) @ t=0.78
-22.833844031742554
% V (V) @ t=0.78
0.028137008594563417
% es.normE (V/m) @ t=0.8
33.26628776362523
% es.EX (V/m) @ t=0.8
21.110976969439545
% es.EY (V/m) @ t=0.8
6.312772596932081
% es.EZ (V/m) @ t=0.8
-23.12387870719593
% es.tEX (V/m) @ t=0.8
21.110976969439506
% es.tEY (V/m) @ t=0.8
0
% es.tEZ (V/m) @ t=0.8
-23.123878707195903
% es.Ex (V/m) @ t=0.8
21.110976969439545
% es.Ey (V/m) @ t=0.8
6.312772596932081
% es.Ez (V/m) @ t=0.8
-23.12387870719593
% es.tEx (V/m) @ t=0.8
21.110976969439506
% es.tEy (V/m) @ t=0.8
0
% es.tEz (V/m) @ t=0.8
-23.123878707195903
% V (V) @ t=0.8
0.028494414013438024
% es.normE (V/m) @ t=0.82
33.68352962952835
% es.EX (V/m) @ t=0.82
21.3757568036243
% es.EY (V/m) @ t=0.82
6.3919518067406536
% es.EZ (V/m) @ t=0.82
-23.41391338264929
% es.tEX (V/m) @ t=0.82
21.375756803624263
% es.tEY (V/m) @ t=0.82
0
% es.tEZ (V/m) @ t=0.82
-23.413913382649234
% es.Ex (V/m) @ t=0.82
21.3757568036243
% es.Ey (V/m) @ t=0.82
6.3919518067406536
% es.Ez (V/m) @ t=0.82
-23.41391338264929
% es.tEx (V/m) @ t=0.82
21.375756803624263
% es.tEy (V/m) @ t=0.82
0
% es.tEz (V/m) @ t=0.82
-23.413913382649234
% V (V) @ t=0.82
0.028851819432312624
% es.normE (V/m) @ t=0.84
34.100771495432596
% es.EX (V/m) @ t=0.84
21.640536637809163
% es.EY (V/m) @ t=0.84
6.471131016549226
% es.EZ (V/m) @ t=0.84
-23.703948058102696
% es.tEX (V/m) @ t=0.84
21.640536637809127
% es.tEY (V/m) @ t=0.84
0
% es.tEZ (V/m) @ t=0.84
-23.70394805810264
% es.Ex (V/m) @ t=0.84
21.640536637809163
% es.Ey (V/m) @ t=0.84
6.471131016549226
% es.Ez (V/m) @ t=0.84
-23.703948058102696
% es.tEx (V/m) @ t=0.84
21.640536637809127
% es.tEy (V/m) @ t=0.84
0
% es.tEz (V/m) @ t=0.84
-23.70394805810264
% V (V) @ t=0.84
0.029209224851187224
% es.normE (V/m) @ t=0.86
34.51801336133763
% es.EX (V/m) @ t=0.86
21.90531647199385
% es.EY (V/m) @ t=0.86
6.550310226357855
% es.EZ (V/m) @ t=0.86
-23.993982733556003
% es.tEX (V/m) @ t=0.86
21.9053164719938
% es.tEY (V/m) @ t=0.86
0
% es.tEZ (V/m) @ t=0.86
-23.99398273355597
% es.Ex (V/m) @ t=0.86
21.90531647199385
% es.Ey (V/m) @ t=0.86
6.550310226357855
% es.Ez (V/m) @ t=0.86
-23.993982733556003
% es.tEx (V/m) @ t=0.86
21.9053164719938
% es.tEy (V/m) @ t=0.86
0
% es.tEz (V/m) @ t=0.86
-23.99398273355597
% V (V) @ t=0.86
0.02956663027006182
% es.normE (V/m) @ t=0.88
34.93525522724376
% es.EX (V/m) @ t=0.88
22.170096306178692
% es.EY (V/m) @ t=0.88
6.629489436166342
% es.EZ (V/m) @ t=0.88
-24.284017409009408
% es.tEX (V/m) @ t=0.88
22.17009630617863
% es.tEY (V/m) @ t=0.88
0
% es.tEZ (V/m) @ t=0.88
-24.28401740900932
% es.Ex (V/m) @ t=0.88
22.170096306178692
% es.Ey (V/m) @ t=0.88
6.629489436166342
% es.Ez (V/m) @ t=0.88
-24.284017409009408
% es.tEx (V/m) @ t=0.88
22.17009630617863
% es.tEy (V/m) @ t=0.88
0
% es.tEz (V/m) @ t=0.88
-24.28401740900932
% V (V) @ t=0.88
0.02992403568893643
% es.normE (V/m) @ t=0.9
35.35249709315074
% es.EX (V/m) @ t=0.9
22.43487614036347
% es.EY (V/m) @ t=0.9
6.7086686459749565
% es.EZ (V/m) @ t=0.9
-24.574052084462764
% es.tEX (V/m) @ t=0.9
22.434876140363436
% es.tEY (V/m) @ t=0.9
0
% es.tEZ (V/m) @ t=0.9
-24.57405208446272
% es.Ex (V/m) @ t=0.9
22.43487614036347
% es.Ey (V/m) @ t=0.9
6.7086686459749565
% es.Ez (V/m) @ t=0.9
-24.574052084462764
% es.tEx (V/m) @ t=0.9
22.434876140363436
% es.tEy (V/m) @ t=0.9
0
% es.tEz (V/m) @ t=0.9
-24.57405208446272
% V (V) @ t=0.9
0.030281441107811027
% es.normE (V/m) @ t=0.92
35.76973895905856
% es.EX (V/m) @ t=0.92
22.699655974548257
% es.EY (V/m) @ t=0.92
6.787847855783443
% es.EZ (V/m) @ t=0.92
-24.86408675991607
% es.tEX (V/m) @ t=0.92
22.699655974548218
% es.tEY (V/m) @ t=0.92
0
% es.tEZ (V/m) @ t=0.92
-24.86408675991604
% es.Ex (V/m) @ t=0.92
22.699655974548257
% es.Ey (V/m) @ t=0.92
6.787847855783443
% es.Ez (V/m) @ t=0.92
-24.86408675991607
% es.tEx (V/m) @ t=0.92
22.699655974548218
% es.tEy (V/m) @ t=0.92
0
% es.tEz (V/m) @ t=0.92
-24.86408675991604
% V (V) @ t=0.92
0.030638846526685637
% es.normE (V/m) @ t=0.94
36.18698082496731
% es.EX (V/m) @ t=0.94
22.964435808733068
% es.EY (V/m) @ t=0.94
6.867027065591985
% es.EZ (V/m) @ t=0.94
-25.154121435369447
% es.tEX (V/m) @ t=0.94
22.964435808733015
% es.tEY (V/m) @ t=0.94
0
% es.tEZ (V/m) @ t=0.94
-25.15412143536939
% es.Ex (V/m) @ t=0.94
22.964435808733068
% es.Ey (V/m) @ t=0.94
6.867027065591985
% es.Ez (V/m) @ t=0.94
-25.154121435369447
% es.tEx (V/m) @ t=0.94
22.964435808733015
% es.tEy (V/m) @ t=0.94
0
% es.tEz (V/m) @ t=0.94
-25.15412143536939
% V (V) @ t=0.94
0.030996251945560237
% es.normE (V/m) @ t=0.96
36.61105142235843
% es.EX (V/m) @ t=0.96
23.23353656164235
% es.EY (V/m) @ t=0.96
6.9475073786933805
% es.EZ (V/m) @ t=0.96
-25.448913878746957
% es.tEX (V/m) @ t=0.96
23.233536561642282
% es.tEY (V/m) @ t=0.96
0
% es.tEZ (V/m) @ t=0.96
-25.448913878746897
% es.Ex (V/m) @ t=0.96
23.23353656164235
% es.Ey (V/m) @ t=0.96
6.9475073786933805
% es.Ez (V/m) @ t=0.96
-25.448913878746957
% es.tEx (V/m) @ t=0.96
23.233536561642282
% es.tEy (V/m) @ t=0.96
0
% es.tEz (V/m) @ t=0.96
-25.448913878746897
% V (V) @ t=0.96
0.03135955231971662
% es.normE (V/m) @ t=0.98
37.04113274182848
% es.EX (V/m) @ t=0.98
23.506440633149683
% es.EY (V/m) @ t=0.98
7.029132936745198
% es.EZ (V/m) @ t=0.98
-25.74789416003227
% es.tEX (V/m) @ t=0.98
23.506440633149616
% es.tEY (V/m) @ t=0.98
0
% es.tEZ (V/m) @ t=0.98
-25.747894160032182
% es.Ex (V/m) @ t=0.98
23.506440633149683
% es.Ey (V/m) @ t=0.98
7.029132936745198
% es.Ez (V/m) @ t=0.98
-25.74789416003227
% es.tEx (V/m) @ t=0.98
23.506440633149616
% es.tEy (V/m) @ t=0.98
0
% es.tEz (V/m) @ t=0.98
-25.747894160032182
% V (V) @ t=0.98
0.03172804149618269
% es.normE (V/m) @ t=1
37.47121406133754
% es.EX (V/m) @ t=1
23.77934470465705
% es.EY (V/m) @ t=1
7.1107584947971
% es.EZ (V/m) @ t=1
-26.04687444131757
% es.tEX (V/m) @ t=1
23.779344704657014
% es.tEY (V/m) @ t=1
0
% es.tEZ (V/m) @ t=1
-26.04687444131757
% es.Ex (V/m) @ t=1
23.77934470465705
% es.Ey (V/m) @ t=1
7.1107584947971
% es.Ez (V/m) @ t=1
-26.04687444131757
% es.tEx (V/m) @ t=1
23.779344704657014
% es.tEy (V/m) @ t=1
0
% es.tEz (V/m) @ t=1
-26.04687444131757
% V (V) @ t=1
0.03209653067264877
% es.normE (V/m) @ t=1.02
37.90129538088422
% es.EX (V/m) @ t=1.02
24.05224877616436
% es.EY (V/m) @ t=1.02
7.1923840528491425
% es.EZ (V/m) @ t=1.02
-26.345854722602915
% es.tEX (V/m) @ t=1.02
24.05224877616432
% es.tEY (V/m) @ t=1.02
0
% es.tEZ (V/m) @ t=1.02
-26.34585472260286
% es.Ex (V/m) @ t=1.02
24.05224877616436
% es.Ey (V/m) @ t=1.02
7.1923840528491425
% es.Ez (V/m) @ t=1.02
-26.345854722602915
% es.tEx (V/m) @ t=1.02
24.05224877616432
% es.tEy (V/m) @ t=1.02
0
% es.tEz (V/m) @ t=1.02
-26.34585472260286
% V (V) @ t=1.02
0.032465019849114846
% es.normE (V/m) @ t=1.04
38.33137670046726
% es.EX (V/m) @ t=1.04
24.325152847671674
% es.EY (V/m) @ t=1.04
7.274009610900901
% es.EZ (V/m) @ t=1.04
-26.644835003888247
% es.tEX (V/m) @ t=1.04
24.325152847671617
% es.tEY (V/m) @ t=1.04
0
% es.tEZ (V/m) @ t=1.04
-26.64483500388819
% es.Ex (V/m) @ t=1.04
24.325152847671674
% es.Ey (V/m) @ t=1.04
7.274009610900901
% es.Ez (V/m) @ t=1.04
-26.644835003888247
% es.tEx (V/m) @ t=1.04
24.325152847671617
% es.tEy (V/m) @ t=1.04
0