% Model:              1 neuron.mph
% Version:            COMSOL 6.1.0.252
% Date:               Mar 18 2023, 13:51
% Dimension:          0
% Nodes:              14017
% Expressions:        14017
% Description:        Electric field norm, Electric field, X component, Electric field, Y component, Electric field, Z component, Tangential electric field, X component, Tangential electric field, Y component, Tangential electric field, Z component, Electric field, x component, Electric field, y component, Electric field, z component, Tangential electric field, x component, Tangential electric field, y component, Tangential electric field, z component, Electric potential
% Length unit:        mm
% x
1
% y
12.2
% z
1.6599999999999997
% es.normE (V/m) @ t=0
4.602294908542941
% es.EX (V/m) @ t=0
4.120017133863947
% es.EY (V/m) @ t=0
0.15852095152179452
% es.EZ (V/m) @ t=0
-2.0448589351739983
% es.tEX (V/m) @ t=0
4.120017133863932
% es.tEY (V/m) @ t=0
0
% es.tEZ (V/m) @ t=0
-2.044858935173991
% es.Ex (V/m) @ t=0
4.120017133863947
% es.Ey (V/m) @ t=0
0.15852095152179452
% es.Ez (V/m) @ t=0
-2.0448589351739983
% es.tEx (V/m) @ t=0
4.120017133863932
% es.tEy (V/m) @ t=0
0
% es.tEz (V/m) @ t=0
-2.044858935173991
% V (V) @ t=0
0.0208805345739249
% es.normE (V/m) @ t=0.02
4.313132941219166
% es.EX (V/m) @ t=0.02
3.8611561600469146
% es.EY (V/m) @ t=0.02
0.14855908386652616
% es.EZ (V/m) @ t=0.02
-1.916381701305113
% es.tEX (V/m) @ t=0.02
3.861156160046912
% es.tEY (V/m) @ t=0.02
0
% es.tEZ (V/m) @ t=0.02
-1.9163817013050988
% es.Ex (V/m) @ t=0.02
3.8611561600469146
% es.Ey (V/m) @ t=0.02
0.14855908386652616
% es.Ez (V/m) @ t=0.02
-1.916381701305113
% es.tEx (V/m) @ t=0.02
3.861156160046912
% es.tEy (V/m) @ t=0.02
0
% es.tEz (V/m) @ t=0.02
-1.9163817013050988
% V (V) @ t=0.02
0.01956865797867733
% es.normE (V/m) @ t=0.04
4.3759333407039795
% es.EX (V/m) @ t=0.04
3.9173756547646192
% es.EY (V/m) @ t=0.04
0.15072215018614604
% es.EZ (V/m) @ t=0.04
-1.9442847420039768
% es.tEX (V/m) @ t=0.04
3.917375654764628
% es.tEY (V/m) @ t=0.04
0
% es.tEZ (V/m) @ t=0.04
-1.9442847420039726
% es.Ex (V/m) @ t=0.04
3.9173756547646192
% es.Ey (V/m) @ t=0.04
0.15072215018614604
% es.Ez (V/m) @ t=0.04
-1.9442847420039768
% es.tEx (V/m) @ t=0.04
3.917375654764628
% es.tEy (V/m) @ t=0.04
0
% es.tEz (V/m) @ t=0.04
-1.9442847420039726
% V (V) @ t=0.04
0.01985358289068304
% es.normE (V/m) @ t=0.06
4.439654409617248
% es.EX (V/m) @ t=0.06
3.9744193524362563
% es.EY (V/m) @ t=0.06
0.15291697602286214
% es.EZ (V/m) @ t=0.06
-1.9725968218321515
% es.tEX (V/m) @ t=0.06
3.974419352436236
% es.tEY (V/m) @ t=0.06
0
% es.tEZ (V/m) @ t=0.06
-1.972596821832127
% es.Ex (V/m) @ t=0.06
3.9744193524362563
% es.Ey (V/m) @ t=0.06
0.15291697602286214
% es.Ez (V/m) @ t=0.06
-1.9725968218321515
% es.tEx (V/m) @ t=0.06
3.974419352436236
% es.tEy (V/m) @ t=0.06
0
% es.tEz (V/m) @ t=0.06
-1.972596821832127
% V (V) @ t=0.06
0.02014268378011727
% es.normE (V/m) @ t=0.08
4.504662678258272
% es.EX (V/m) @ t=0.08
4.032615390070273
% es.EY (V/m) @ t=0.08
0.1551562555449103
% es.EZ (V/m) @ t=0.08
-2.0014807579419753
% es.tEX (V/m) @ t=0.08
4.032615390070278
% es.tEY (V/m) @ t=0.08
0
% es.tEZ (V/m) @ t=0.08
-2.001480757941934
% es.Ex (V/m) @ t=0.08
4.032615390070273
% es.Ey (V/m) @ t=0.08
0.1551562555449103
% es.Ez (V/m) @ t=0.08
-2.0014807579419753
% es.tEx (V/m) @ t=0.08
4.032615390070278
% es.tEy (V/m) @ t=0.08
0
% es.tEz (V/m) @ t=0.08
-2.001480757941934
% V (V) @ t=0.08
0.020437622037342767
% es.normE (V/m) @ t=0.1
4.569670946899331
% es.EX (V/m) @ t=0.1
4.090811427704324
% es.EY (V/m) @ t=0.1
0.1573955350669637
% es.EZ (V/m) @ t=0.1
-2.030364694051785
% es.tEX (V/m) @ t=0.1
4.090811427704317
% es.tEY (V/m) @ t=0.1
0
% es.tEZ (V/m) @ t=0.1
-2.0303646940517694
% es.Ex (V/m) @ t=0.1
4.090811427704324
% es.Ey (V/m) @ t=0.1
0.1573955350669637
% es.Ez (V/m) @ t=0.1
-2.030364694051785
% es.tEx (V/m) @ t=0.1
4.090811427704317
% es.tEy (V/m) @ t=0.1
0
% es.tEz (V/m) @ t=0.1
-2.0303646940517694
% V (V) @ t=0.1
0.02073256029456826
% es.normE (V/m) @ t=0.12
4.637163379059491
% es.EX (V/m) @ t=0.12
4.151232196554778
% es.EY (V/m) @ t=0.12
0.15972442270538706
% es.EZ (V/m) @ t=0.12
-2.0603502791783543
% es.tEX (V/m) @ t=0.12
4.151232196554773
% es.tEY (V/m) @ t=0.12
0
% es.tEZ (V/m) @ t=0.12
-2.060350279178337
% es.Ex (V/m) @ t=0.12
4.151232196554778
% es.Ey (V/m) @ t=0.12
0.15972442270538706
% es.Ez (V/m) @ t=0.12
-2.0603502791783543
% es.tEx (V/m) @ t=0.12
4.151232196554773
% es.tEy (V/m) @ t=0.12
0
% es.tEz (V/m) @ t=0.12
-2.060350279178337
% V (V) @ t=0.12
0.021038679943665237
% es.normE (V/m) @ t=0.14
4.706047037211082
% es.EX (V/m) @ t=0.14
4.2128988994373
% es.EY (V/m) @ t=0.14
0.16210349429458631
% es.EZ (V/m) @ t=0.14
-2.090952829622413
% es.tEX (V/m) @ t=0.14
4.212898899437308
% es.tEY (V/m) @ t=0.14
0
% es.tEZ (V/m) @ t=0.14
-2.0909528296224096
% es.Ex (V/m) @ t=0.14
4.2128988994373
% es.Ey (V/m) @ t=0.14
0.16210349429458631
% es.Ez (V/m) @ t=0.14
-2.090952829622413
% es.tEx (V/m) @ t=0.14
4.212898899437308
% es.tEy (V/m) @ t=0.14
0
% es.tEz (V/m) @ t=0.14
-2.0909528296224096
% V (V) @ t=0.14
0.021351061597159025
% es.normE (V/m) @ t=0.16
4.774930695374592
% es.EX (V/m) @ t=0.16
4.274565602319821
% es.EY (V/m) @ t=0.16
0.16448256588376609
% es.EZ (V/m) @ t=0.16
-2.1215553800665075
% es.tEX (V/m) @ t=0.16
4.274565602319825
% es.tEY (V/m) @ t=0.16
0
% es.tEZ (V/m) @ t=0.16
-2.1215553800664964
% es.Ex (V/m) @ t=0.16
4.274565602319821
% es.Ey (V/m) @ t=0.16
0.16448256588376609
% es.Ez (V/m) @ t=0.16
-2.1215553800665075
% es.tEx (V/m) @ t=0.16
4.274565602319825
% es.tEy (V/m) @ t=0.16
0
% es.tEz (V/m) @ t=0.16
-2.1215553800664964
% V (V) @ t=0.16
0.021663443250652815
% es.normE (V/m) @ t=0.18
4.84381435354951
% es.EX (V/m) @ t=0.18
4.336232305202365
% es.EY (V/m) @ t=0.18
0.16686163747290494
% es.EZ (V/m) @ t=0.18
-2.1521579305105805
% es.tEX (V/m) @ t=0.18
4.336232305202344
% es.tEY (V/m) @ t=0.18
0
% es.tEZ (V/m) @ t=0.18
-2.1521579305105973
% es.Ex (V/m) @ t=0.18
4.336232305202365
% es.Ey (V/m) @ t=0.18
0.16686163747290494
% es.Ez (V/m) @ t=0.18
-2.1521579305105805
% es.tEx (V/m) @ t=0.18
4.336232305202344
% es.tEy (V/m) @ t=0.18
0
% es.tEz (V/m) @ t=0.18
-2.1521579305105973
% V (V) @ t=0.18
0.021975824904146603
% es.normE (V/m) @ t=0.2
4.912698011735358
% es.EX (V/m) @ t=0.2
4.397899008084907
% es.EY (V/m) @ t=0.2
0.16924070906212374
% es.EZ (V/m) @ t=0.2
-2.182760480954682
% es.tEX (V/m) @ t=0.2
4.397899008084904
% es.tEY (V/m) @ t=0.2
0
% es.tEZ (V/m) @ t=0.2
-2.18276048095467
% es.Ex (V/m) @ t=0.2
4.397899008084907
% es.Ey (V/m) @ t=0.2
0.16924070906212374
% es.Ez (V/m) @ t=0.2
-2.182760480954682
% es.tEx (V/m) @ t=0.2
4.397899008084904
% es.tEy (V/m) @ t=0.2
0
% es.tEz (V/m) @ t=0.2
-2.18276048095467
% V (V) @ t=0.2
0.02228820655764039
% es.normE (V/m) @ t=0.22
4.9827083034474295
% es.EX (V/m) @ t=0.22
4.460572783756823
% es.EY (V/m) @ t=0.22
0.1716516727496712
% es.EZ (V/m) @ t=0.22
-2.213867168023437
% es.tEX (V/m) @ t=0.22
4.460572783756817
% es.tEY (V/m) @ t=0.22
0
% es.tEZ (V/m) @ t=0.22
-2.2138671680233983
% es.Ex (V/m) @ t=0.22
4.460572783756823
% es.Ey (V/m) @ t=0.22
0.1716516727496712
% es.Ez (V/m) @ t=0.22
-2.213867168023437
% es.tEx (V/m) @ t=0.22
4.460572783756817
% es.tEy (V/m) @ t=0.22
0
% es.tEz (V/m) @ t=0.22
-2.2138671680233983
% V (V) @ t=0.22
0.022605851744455865
% es.normE (V/m) @ t=0.24
5.0555376001065895
% es.EX (V/m) @ t=0.24
4.525766405565551
% es.EY (V/m) @ t=0.24
0.17414243521820083
% es.EZ (V/m) @ t=0.24
-2.2462352800253935
% es.tEX (V/m) @ t=0.24
4.525766405565548
% es.tEY (V/m) @ t=0.24
0
% es.tEZ (V/m) @ t=0.24
-2.246235280025388
% es.Ex (V/m) @ t=0.24
4.525766405565551
% es.Ey (V/m) @ t=0.24
0.17414243521820083
% es.Ez (V/m) @ t=0.24
-2.2462352800253935
% es.tEx (V/m) @ t=0.24
4.525766405565548
% es.tEy (V/m) @ t=0.24
0
% es.tEz (V/m) @ t=0.24
-2.246235280025388
% V (V) @ t=0.24
0.022936667075720292
% es.normE (V/m) @ t=0.26
5.128366896854459
% es.EX (V/m) @ t=0.26
4.590960027374273
% es.EY (V/m) @ t=0.26
0.17663319768669306
% es.EZ (V/m) @ t=0.26
-2.2786033920273496
% es.tEX (V/m) @ t=0.26
4.5909600273742655
% es.tEY (V/m) @ t=0.26
0
% es.tEZ (V/m) @ t=0.26
-2.278603392027364
% es.Ex (V/m) @ t=0.26
4.590960027374273
% es.Ey (V/m) @ t=0.26
0.17663319768669306
% es.Ez (V/m) @ t=0.26
-2.2786033920273496
% es.tEx (V/m) @ t=0.26
4.5909600273742655
% es.tEy (V/m) @ t=0.26
0
% es.tEz (V/m) @ t=0.26
-2.278603392027364
% V (V) @ t=0.26
0.023267482406984716
% es.normE (V/m) @ t=0.28
5.201196193687323
% es.EX (V/m) @ t=0.28
4.656153649182987
% es.EY (V/m) @ t=0.28
0.17912396015513565
% es.EZ (V/m) @ t=0.28
-2.3109715040293275
% es.tEX (V/m) @ t=0.28
4.65615364918297
% es.tEY (V/m) @ t=0.28
0
% es.tEZ (V/m) @ t=0.28
-2.310971504029311
% es.Ex (V/m) @ t=0.28
4.656153649182987
% es.Ey (V/m) @ t=0.28
0.17912396015513565
% es.Ez (V/m) @ t=0.28
-2.3109715040293275
% es.tEx (V/m) @ t=0.28
4.65615364918297
% es.tEy (V/m) @ t=0.28
0
% es.tEz (V/m) @ t=0.28
-2.310971504029311
% V (V) @ t=0.28
0.02359829773824914
% es.normE (V/m) @ t=0.3
5.274025490601687
% es.EX (V/m) @ t=0.3
4.72134727099173
% es.EY (V/m) @ t=0.3
0.18161472262366885
% es.EZ (V/m) @ t=0.3
-2.3433396160313054
% es.tEX (V/m) @ t=0.3
4.721347270991718
% es.tEY (V/m) @ t=0.3
0
% es.tEZ (V/m) @ t=0.3
-2.3433396160312867
% es.Ex (V/m) @ t=0.3
4.72134727099173
% es.Ey (V/m) @ t=0.3
0.18161472262366885
% es.Ez (V/m) @ t=0.3
-2.3433396160313054
% es.tEx (V/m) @ t=0.3
4.721347270991718
% es.tEy (V/m) @ t=0.3
0
% es.tEz (V/m) @ t=0.3
-2.3433396160312867
% V (V) @ t=0.3
0.023929113069513567
% es.normE (V/m) @ t=0.32
5.34685478759417
% es.EX (V/m) @ t=0.32
4.786540892800444
% es.EY (V/m) @ t=0.32
0.18410548509219837
% es.EZ (V/m) @ t=0.32
-2.375707728033297
% es.tEX (V/m) @ t=0.32
4.786540892800435
% es.tEY (V/m) @ t=0.32
0
% es.tEZ (V/m) @ t=0.32
-2.3757077280332624
% es.Ex (V/m) @ t=0.32
4.786540892800444
% es.Ey (V/m) @ t=0.32
0.18410548509219837
% es.Ez (V/m) @ t=0.32
-2.375707728033297
% es.tEx (V/m) @ t=0.32
4.786540892800435
% es.tEy (V/m) @ t=0.32
0
% es.tEz (V/m) @ t=0.32
-2.3757077280332624
% V (V) @ t=0.32
0.024259928400777994
% es.normE (V/m) @ t=0.34
5.426945348176144
% es.EX (V/m) @ t=0.34
4.858237355103427
% es.EY (V/m) @ t=0.34
0.1868578506922266
% es.EZ (V/m) @ t=0.34
-2.41129620447596
% es.tEX (V/m) @ t=0.34
4.858237355103428
% es.tEY (V/m) @ t=0.34
0
% es.tEZ (V/m) @ t=0.34
-2.4112962044759456
% es.Ex (V/m) @ t=0.34
4.858237355103427
% es.Ey (V/m) @ t=0.34
0.1868578506922266
% es.Ez (V/m) @ t=0.34
-2.41129620447596
% es.tEx (V/m) @ t=0.34
4.858237355103428
% es.tEy (V/m) @ t=0.34
0
% es.tEz (V/m) @ t=0.34
-2.4112962044759456
% V (V) @ t=0.34
0.024623435347490952
% es.normE (V/m) @ t=0.36
5.507581885378654
% es.EX (V/m) @ t=0.36
4.930422767961857
% es.EY (V/m) @ t=0.36
0.18962988631146416
% es.EZ (V/m) @ t=0.36
-2.4471268211008708
% es.tEX (V/m) @ t=0.36
4.93042276796184
% es.tEY (V/m) @ t=0.36
0
% es.tEZ (V/m) @ t=0.36
-2.447126821100838
% es.Ex (V/m) @ t=0.36
4.930422767961857
% es.Ey (V/m) @ t=0.36
0.18962988631146416
% es.Ez (V/m) @ t=0.36
-2.4471268211008708
% es.tEx (V/m) @ t=0.36
4.93042276796184
% es.tEy (V/m) @ t=0.36
0
% es.tEz (V/m) @ t=0.36
-2.447126821100838
% V (V) @ t=0.36
0.024989400386716744
% es.normE (V/m) @ t=0.38
5.588218422585932
% es.EX (V/m) @ t=0.38
5.002608180820296
% es.EY (V/m) @ t=0.38
0.19240192193064654
% es.EZ (V/m) @ t=0.38
-2.4829574377257533
% es.tEX (V/m) @ t=0.38
5.002608180820282
% es.tEY (V/m) @ t=0.38
0
% es.tEZ (V/m) @ t=0.38
-2.48295743772573
% es.Ex (V/m) @ t=0.38
5.002608180820296
% es.Ey (V/m) @ t=0.38
0.19240192193064654
% es.Ez (V/m) @ t=0.38
-2.4829574377257533
% es.tEx (V/m) @ t=0.38
5.002608180820282
% es.tEy (V/m) @ t=0.38
0
% es.tEz (V/m) @ t=0.38
-2.48295743772573
% V (V) @ t=0.38
0.025355365425942536
% es.normE (V/m) @ t=0.4
5.6688549597977325
% es.EX (V/m) @ t=0.4
5.074793593678697
% es.EY (V/m) @ t=0.4
0.1951739575497793
% es.EZ (V/m) @ t=0.4
-2.5187880543506145
% es.tEX (V/m) @ t=0.4
5.074793593678693
% es.tEY (V/m) @ t=0.4
0
% es.tEZ (V/m) @ t=0.4
-2.518788054350594
% es.Ex (V/m) @ t=0.4
5.074793593678697
% es.Ey (V/m) @ t=0.4
0.1951739575497793
% es.Ez (V/m) @ t=0.4
-2.5187880543506145
% es.tEx (V/m) @ t=0.4
5.074793593678693
% es.tEy (V/m) @ t=0.4
0
% es.tEz (V/m) @ t=0.4
-2.518788054350594
% V (V) @ t=0.4
0.025721330465168325
% es.normE (V/m) @ t=0.42
5.749491497013983
% es.EX (V/m) @ t=0.42
5.1469790065371495
% es.EY (V/m) @ t=0.42
0.197945993168976
% es.EZ (V/m) @ t=0.42
-2.5546186709755325
% es.tEX (V/m) @ t=0.42
5.146979006537146
% es.tEY (V/m) @ t=0.42
0
% es.tEZ (V/m) @ t=0.42
-2.5546186709755148
% es.Ex (V/m) @ t=0.42
5.1469790065371495
% es.Ey (V/m) @ t=0.42
0.197945993168976
% es.Ez (V/m) @ t=0.42
-2.5546186709755325
% es.tEx (V/m) @ t=0.42
5.146979006537146
% es.tEy (V/m) @ t=0.42
0
% es.tEz (V/m) @ t=0.42
-2.5546186709755148
% V (V) @ t=0.42
0.02608729550439412
% es.normE (V/m) @ t=0.44
5.8301280342343516
% es.EX (V/m) @ t=0.44
5.219164419395536
% es.EY (V/m) @ t=0.44
0.2007180287880891
% es.EZ (V/m) @ t=0.44
-2.590449287600415
% es.tEX (V/m) @ t=0.44
5.219164419395529
% es.tEY (V/m) @ t=0.44
0
% es.tEZ (V/m) @ t=0.44
-2.5904492876003786
% es.Ex (V/m) @ t=0.44
5.219164419395536
% es.Ey (V/m) @ t=0.44
0.2007180287880891
% es.Ez (V/m) @ t=0.44
-2.590449287600415
% es.tEx (V/m) @ t=0.44
5.219164419395529
% es.tEy (V/m) @ t=0.44
0
% es.tEz (V/m) @ t=0.44
-2.5904492876003786
% V (V) @ t=0.44
0.026453260543619905
% es.normE (V/m) @ t=0.46
5.910764571458808
% es.EX (V/m) @ t=0.46
5.291349832253989
% es.EY (V/m) @ t=0.46
0.20349006440730721
% es.EZ (V/m) @ t=0.46
-2.6262799042253047
% es.tEX (V/m) @ t=0.46
5.291349832253983
% es.tEY (V/m) @ t=0.46
0
% es.tEZ (V/m) @ t=0.46
-2.626279904225285
% es.Ex (V/m) @ t=0.46
5.291349832253989
% es.Ey (V/m) @ t=0.46
0.20349006440730721
% es.Ez (V/m) @ t=0.46
-2.6262799042253047
% es.tEx (V/m) @ t=0.46
5.291349832253983
% es.tEy (V/m) @ t=0.46
0
% es.tEz (V/m) @ t=0.46
-2.626279904225285
% V (V) @ t=0.46
0.0268192255828457
% es.normE (V/m) @ t=0.48
5.991401108687101
% es.EX (V/m) @ t=0.48
5.36353524511242
% es.EY (V/m) @ t=0.48
0.20626210002650391
% es.EZ (V/m) @ t=0.48
-2.66211052085018
% es.tEX (V/m) @ t=0.48
5.363535245112397
% es.tEY (V/m) @ t=0.48
0
% es.tEZ (V/m) @ t=0.48
-2.6621105208501774
% es.Ex (V/m) @ t=0.48
5.36353524511242
% es.Ey (V/m) @ t=0.48
0.20626210002650391
% es.Ez (V/m) @ t=0.48
-2.66211052085018
% es.tEx (V/m) @ t=0.48
5.363535245112397
% es.tEy (V/m) @ t=0.48
0
% es.tEz (V/m) @ t=0.48
-2.6621105208501774
% V (V) @ t=0.48
0.02718519062207149
% es.normE (V/m) @ t=0.5
6.0720376459190835
% es.EX (V/m) @ t=0.5
5.435720657970814
% es.EY (V/m) @ t=0.5
0.20903413564565254
% es.EZ (V/m) @ t=0.5
-2.697941137475098
% es.tEX (V/m) @ t=0.5
5.435720657970819
% es.tEY (V/m) @ t=0.5
0
% es.tEZ (V/m) @ t=0.5
-2.6979411374750697
% es.Ex (V/m) @ t=0.5
5.435720657970814
% es.Ey (V/m) @ t=0.5
0.20903413564565254
% es.Ez (V/m) @ t=0.5
-2.697941137475098
% es.tEx (V/m) @ t=0.5
5.435720657970819
% es.tEy (V/m) @ t=0.5
0
% es.tEz (V/m) @ t=0.5
-2.6979411374750697
% V (V) @ t=0.5
0.02755115566129728
% es.normE (V/m) @ t=0.52
6.1526741831546445
% es.EX (V/m) @ t=0.52
5.507906070829245
% es.EY (V/m) @ t=0.52
0.21180617126486345
% es.EZ (V/m) @ t=0.52
-2.733771754099974
% es.tEX (V/m) @ t=0.52
5.507906070829247
% es.tEY (V/m) @ t=0.52
0
% es.tEZ (V/m) @ t=0.52
-2.733771754099962
% es.Ex (V/m) @ t=0.52
5.507906070829245
% es.Ey (V/m) @ t=0.52
0.21180617126486345
% es.Ez (V/m) @ t=0.52
-2.733771754099974
% es.tEx (V/m) @ t=0.52
5.507906070829247
% es.tEy (V/m) @ t=0.52
0
% es.tEz (V/m) @ t=0.52
-2.733771754099962
% V (V) @ t=0.52
0.02791712070052307
% es.normE (V/m) @ t=0.54
6.2346842483147995
% es.EX (V/m) @ t=0.54
5.581323075668784
% es.EY (V/m) @ t=0.54
0.21463480755755537
% es.EZ (V/m) @ t=0.54
-2.7702079027880178
% es.tEX (V/m) @ t=0.54
5.581323075668774
% es.tEY (V/m) @ t=0.54
0
% es.tEZ (V/m) @ t=0.54
-2.770207902788016
% es.Ex (V/m) @ t=0.54
5.581323075668784
% es.Ey (V/m) @ t=0.54
0.21463480755755537
% es.Ez (V/m) @ t=0.54
-2.7702079027880178
% es.tEx (V/m) @ t=0.54
5.581323075668774
% es.tEy (V/m) @ t=0.54
0
% es.tEz (V/m) @ t=0.54
-2.770207902788016
% V (V) @ t=0.54
0.02828911388420935
% es.normE (V/m) @ t=0.56
6.32158900218801
% es.EX (V/m) @ t=0.56
5.659128967714148
% es.EY (V/m) @ t=0.56
0.21766514536800086
% es.EZ (V/m) @ t=0.56
-2.808801918663776
% es.tEX (V/m) @ t=0.56
5.659128967714139
% es.tEY (V/m) @ t=0.56
0
% es.tEZ (V/m) @ t=0.56
-2.8088019186637467
% es.Ex (V/m) @ t=0.56
5.659128967714148
% es.Ey (V/m) @ t=0.56
0.21766514536800086
% es.Ez (V/m) @ t=0.56
-2.808801918663776
% es.tEx (V/m) @ t=0.56
5.659128967714139
% es.tEy (V/m) @ t=0.56
0
% es.tEz (V/m) @ t=0.56
-2.8088019186637467
% V (V) @ t=0.56
0.02868258889507791
% es.normE (V/m) @ t=0.58
6.408493756380816
% es.EX (V/m) @ t=0.58
5.736934859759512
% es.EY (V/m) @ t=0.58
0.22069548317849053
% es.EZ (V/m) @ t=0.58
-2.8473959345395485
% es.tEX (V/m) @ t=0.58
5.736934859759504
% es.tEY (V/m) @ t=0.58
0
% es.tEZ (V/m) @ t=0.58
-2.847395934539506
% es.Ex (V/m) @ t=0.58
5.736934859759512
% es.Ey (V/m) @ t=0.58
0.22069548317849053
% es.Ez (V/m) @ t=0.58
-2.8473959345395485
% es.tEx (V/m) @ t=0.58
5.736934859759504
% es.tEy (V/m) @ t=0.58
0
% es.tEz (V/m) @ t=0.58
-2.847395934539506
% V (V) @ t=0.58
0.029076063905946473
% es.normE (V/m) @ t=0.6
6.495398510880355
% es.EX (V/m) @ t=0.6
5.8147407518048695
% es.EY (V/m) @ t=0.6
0.22372582098891458
% es.EZ (V/m) @ t=0.6
-2.8859899504152784
% es.tEX (V/m) @ t=0.6
5.814740751804855
% es.tEY (V/m) @ t=0.6
0
% es.tEZ (V/m) @ t=0.6
-2.885989950415265
% es.Ex (V/m) @ t=0.6
5.8147407518048695
% es.Ey (V/m) @ t=0.6
0.22372582098891458
% es.Ez (V/m) @ t=0.6
-2.8859899504152784
% es.tEx (V/m) @ t=0.6
5.814740751804855
% es.tEy (V/m) @ t=0.6
0
% es.tEz (V/m) @ t=0.6
-2.885989950415265
% V (V) @ t=0.6
0.029469538916815037
% es.normE (V/m) @ t=0.62
6.582303265674462
% es.EX (V/m) @ t=0.62
5.892546643850183
% es.EY (V/m) @ t=0.62
0.22675615879939015
% es.EZ (V/m) @ t=0.62
-2.924583966290994
% es.tEX (V/m) @ t=0.62
5.892546643850178
% es.tEY (V/m) @ t=0.62
0
% es.tEZ (V/m) @ t=0.62
-2.9245839662909816
% es.Ex (V/m) @ t=0.62
5.892546643850183
% es.Ey (V/m) @ t=0.62
0.22675615879939015
% es.Ez (V/m) @ t=0.62
-2.924583966290994
% es.tEx (V/m) @ t=0.62
5.892546643850178
% es.tEy (V/m) @ t=0.62
0
% es.tEz (V/m) @ t=0.62
-2.9245839662909816
% V (V) @ t=0.62
0.029863013927683597
% es.normE (V/m) @ t=0.64
6.669208020751769
% es.EX (V/m) @ t=0.64
5.970352535895598
% es.EY (V/m) @ t=0.64
0.22978649660987105
% es.EZ (V/m) @ t=0.64
-2.9631779821667523
% es.tEX (V/m) @ t=0.64
5.970352535895557
% es.tEY (V/m) @ t=0.64
0
% es.tEZ (V/m) @ t=0.64
-2.9631779821667408
% es.Ex (V/m) @ t=0.64
5.970352535895598
% es.Ey (V/m) @ t=0.64
0.22978649660987105
% es.Ez (V/m) @ t=0.64
-2.9631779821667523
% es.tEx (V/m) @ t=0.64
5.970352535895557
% es.tEy (V/m) @ t=0.64
0
% es.tEz (V/m) @ t=0.64
-2.9631779821667408
% V (V) @ t=0.64
0.03025648893855216
% es.normE (V/m) @ t=0.66
6.756112776101158
% es.EX (V/m) @ t=0.66
6.04815842794091
% es.EY (V/m) @ t=0.66
0.23281683442027568
% es.EZ (V/m) @ t=0.66
-3.0017719980425177
% es.tEX (V/m) @ t=0.66
6.048158427940891
% es.tEY (V/m) @ t=0.66
0
% es.tEZ (V/m) @ t=0.66
-3.0017719980425
% es.Ex (V/m) @ t=0.66
6.04815842794091
% es.Ey (V/m) @ t=0.66
0.23281683442027568
% es.Ez (V/m) @ t=0.66
-3.0017719980425177
% es.tEx (V/m) @ t=0.66
6.048158427940891
% es.tEy (V/m) @ t=0.66
0
% es.tEz (V/m) @ t=0.66
-3.0017719980425
% V (V) @ t=0.66
0.03064996394942073
% es.normE (V/m) @ t=0.68
6.843017531712439
% es.EX (V/m) @ t=0.68
6.125964319986302
% es.EY (V/m) @ t=0.68
0.23584717223081153
% es.EZ (V/m) @ t=0.68
-3.0403660139183257
% es.tEX (V/m) @ t=0.68
6.1259643199862985
% es.tEY (V/m) @ t=0.68
0
% es.tEZ (V/m) @ t=0.68
-3.0403660139182875
% es.Ex (V/m) @ t=0.68
6.125964319986302
% es.Ey (V/m) @ t=0.68
0.23584717223081153
% es.Ez (V/m) @ t=0.68
-3.0403660139183257
% es.tEx (V/m) @ t=0.68
6.1259643199862985
% es.tEy (V/m) @ t=0.68
0
% es.tEz (V/m) @ t=0.68
-3.0403660139182875
% V (V) @ t=0.68
0.031043438960289296
% es.normE (V/m) @ t=0.7
6.929922287575568
% es.EX (V/m) @ t=0.7
6.203770212031632
% es.EY (V/m) @ t=0.7
0.238877510041273
% es.EZ (V/m) @ t=0.7
-3.0789600297940343
% es.tEX (V/m) @ t=0.7
6.203770212031621
% es.tEY (V/m) @ t=0.7
0
% es.tEZ (V/m) @ t=0.7
-3.07896002979399
% es.Ex (V/m) @ t=0.7
6.203770212031632
% es.Ey (V/m) @ t=0.7
0.238877510041273
% es.Ez (V/m) @ t=0.7
-3.0789600297940343
% es.tEx (V/m) @ t=0.7
6.203770212031621
% es.tEy (V/m) @ t=0.7
0
% es.tEz (V/m) @ t=0.7
-3.07896002979399
% V (V) @ t=0.7
0.03143691397115786
% es.normE (V/m) @ t=0.72
7.016827043681317
% es.EX (V/m) @ t=0.72
6.281576104076974
% es.EY (V/m) @ t=0.72
0.2419078478517075
% es.EZ (V/m) @ t=0.72
-3.1175540456697854
% es.tEX (V/m) @ t=0.72
6.281576104077001
% es.tEY (V/m) @ t=0.72
0
% es.tEZ (V/m) @ t=0.72
-3.117554045669749
% es.Ex (V/m) @ t=0.72
6.281576104076974
% es.Ey (V/m) @ t=0.72
0.2419078478517075
% es.Ez (V/m) @ t=0.72
-3.1175540456697854
% es.tEx (V/m) @ t=0.72
6.281576104077001
% es.tEy (V/m) @ t=0.72
0
% es.tEz (V/m) @ t=0.72
-3.117554045669749
% V (V) @ t=0.72
0.03183038898202641
% es.normE (V/m) @ t=0.74
7.106704368860535
% es.EX (V/m) @ t=0.74
6.362036108867315
% es.EY (V/m) @ t=0.74
0.24500818741155395
% es.EZ (V/m) @ t=0.74
-3.157485348803271
% es.tEX (V/m) @ t=0.74
6.362036108867304
% es.tEY (V/m) @ t=0.74
0
% es.tEZ (V/m) @ t=0.74
-3.157485348803263
% es.Ex (V/m) @ t=0.74
6.362036108867315
% es.Ey (V/m) @ t=0.74
0.24500818741155395
% es.Ez (V/m) @ t=0.74
-3.157485348803271
% es.tEx (V/m) @ t=0.74
6.362036108867304
% es.tEy (V/m) @ t=0.74
0
% es.tEz (V/m) @ t=0.74
-3.157485348803263
% V (V) @ t=0.74
0.03223805991410407
% es.normE (V/m) @ t=0.76
7.1987406327864445
% es.EX (V/m) @ t=0.76
6.444423761705094
% es.EY (V/m) @ t=0.76
0.24815936834418384
% es.EZ (V/m) @ t=0.76
-3.198387906521198
% es.tEX (V/m) @ t=0.76
6.444423761705082
% es.tEY (V/m) @ t=0.76
0
% es.tEZ (V/m) @ t=0.76
-3.198387906521205
% es.Ex (V/m) @ t=0.76
6.444423761705094
% es.Ey (V/m) @ t=0.76
0.24815936834418384
% es.Ez (V/m) @ t=0.76
-3.198387906521198
% es.tEx (V/m) @ t=0.76
6.444423761705082
% es.tEy (V/m) @ t=0.76
0
% es.tEz (V/m) @ t=0.76
-3.198387906521205
% V (V) @ t=0.76
0.032656041161692045
% es.normE (V/m) @ t=0.78
7.29077689680237
% es.EX (V/m) @ t=0.78
6.526811414542774
% es.EY (V/m) @ t=0.78
0.2513105492767852
% es.EZ (V/m) @ t=0.78
-3.239290464239104
% es.tEX (V/m) @ t=0.78
6.52681141454277
% es.tEY (V/m) @ t=0.78
0
% es.tEZ (V/m) @ t=0.78
-3.2392904642390903
% es.Ex (V/m) @ t=0.78
6.526811414542774
% es.Ey (V/m) @ t=0.78
0.2513105492767852
% es.Ez (V/m) @ t=0.78
-3.239290464239104
% es.tEx (V/m) @ t=0.78
6.52681141454277
% es.tEy (V/m) @ t=0.78
0
% es.tEz (V/m) @ t=0.78
-3.2392904642390903
% V (V) @ t=0.78
0.033074022409280014
% es.normE (V/m) @ t=0.8
7.382813160905156
% es.EX (V/m) @ t=0.8
6.609199067380555
% es.EY (V/m) @ t=0.8
0.2544617302094312
% es.EZ (V/m) @ t=0.8
-3.2801930219570665
% es.tEX (V/m) @ t=0.8
6.609199067380548
% es.tEY (V/m) @ t=0.8
0
% es.tEZ (V/m) @ t=0.8
-3.2801930219570323
% es.Ex (V/m) @ t=0.8
6.609199067380555
% es.Ey (V/m) @ t=0.8
0.2544617302094312
% es.Ez (V/m) @ t=0.8
-3.2801930219570665
% es.tEx (V/m) @ t=0.8
6.609199067380548
% es.tEy (V/m) @ t=0.8
0
% es.tEz (V/m) @ t=0.8
-3.2801930219570323
% V (V) @ t=0.8
0.03349200365686798
% es.normE (V/m) @ t=0.82
7.474849425091447
% es.EX (V/m) @ t=0.82
6.691586720218291
% es.EY (V/m) @ t=0.82
0.2576129111420504
% es.EZ (V/m) @ t=0.82
-3.3210955796750437
% es.tEX (V/m) @ t=0.82
6.6915867202182895
% es.tEY (V/m) @ t=0.82
0
% es.tEZ (V/m) @ t=0.82
-3.321095579675003
% es.Ex (V/m) @ t=0.82
6.691586720218291
% es.Ey (V/m) @ t=0.82
0.2576129111420504
% es.Ez (V/m) @ t=0.82
-3.3210955796750437
% es.tEx (V/m) @ t=0.82
6.6915867202182895
% es.tEy (V/m) @ t=0.82
0
% es.tEz (V/m) @ t=0.82
-3.321095579675003
% V (V) @ t=0.82
0.03390998490445595
% es.normE (V/m) @ t=0.84
7.5668856893582195
% es.EX (V/m) @ t=0.84
6.773974373056041
% es.EY (V/m) @ t=0.84
0.26076409207472273
% es.EZ (V/m) @ t=0.84
-3.3619981373929706
% es.tEX (V/m) @ t=0.84
6.7739743730560384
% es.tEY (V/m) @ t=0.84
0
% es.tEZ (V/m) @ t=0.84
-3.361998137392902
% es.Ex (V/m) @ t=0.84
6.773974373056041
% es.Ey (V/m) @ t=0.84
0.26076409207472273
% es.Ez (V/m) @ t=0.84
-3.3619981373929706
% es.tEx (V/m) @ t=0.84
6.7739743730560384
% es.tEy (V/m) @ t=0.84
0
% es.tEz (V/m) @ t=0.84
-3.361998137392902
% V (V) @ t=0.84
0.03432796615204393
% es.normE (V/m) @ t=0.86
7.658921953702583
% es.EX (V/m) @ t=0.86
6.85636202589378
% es.EY (V/m) @ t=0.86
0.26391527300735096
% es.EZ (V/m) @ t=0.86
-3.402900695110926
% es.tEX (V/m) @ t=0.86
6.856362025893816
% es.tEY (V/m) @ t=0.86
0
% es.tEZ (V/m) @ t=0.86
-3.4029006951108727
% es.Ex (V/m) @ t=0.86
6.85636202589378
% es.Ey (V/m) @ t=0.86
0.26391527300735096
% es.Ez (V/m) @ t=0.86
-3.402900695110926
% es.tEx (V/m) @ t=0.86
6.856362025893816
% es.tEy (V/m) @ t=0.86
0
% es.tEz (V/m) @ t=0.86
-3.4029006951108727
% V (V) @ t=0.86
0.034745947399631896
% es.normE (V/m) @ t=0.88
7.75095821812182
% es.EX (V/m) @ t=0.88
6.938749678731574
% es.EY (V/m) @ t=0.88
0.2670664539399631
% es.EZ (V/m) @ t=0.88
-3.4438032528288813
% es.tEX (V/m) @ t=0.88
6.938749678731561
% es.tEY (V/m) @ t=0.88
0
% es.tEZ (V/m) @ t=0.88
-3.443803252828843
% es.Ex (V/m) @ t=0.88
6.938749678731574
% es.Ey (V/m) @ t=0.88
0.2670664539399631
% es.Ez (V/m) @ t=0.88
-3.4438032528288813
% es.tEx (V/m) @ t=0.88
6.938749678731561
% es.tEy (V/m) @ t=0.88
0
% es.tEz (V/m) @ t=0.88
-3.443803252828843
% V (V) @ t=0.88
0.035163928647219865
% es.normE (V/m) @ t=0.9
7.842994482613175
% es.EX (V/m) @ t=0.9
7.021137331569298
% es.EY (V/m) @ t=0.9
0.2702176348726498
% es.EZ (V/m) @ t=0.9
-3.4847058105468083
% es.tEX (V/m) @ t=0.9
7.021137331569282
% es.tEY (V/m) @ t=0.9
0
% es.tEZ (V/m) @ t=0.9
-3.4847058105467568
% es.Ex (V/m) @ t=0.9
7.021137331569298
% es.Ey (V/m) @ t=0.9
0.2702176348726498
% es.Ez (V/m) @ t=0.9
-3.4847058105468083
% es.tEx (V/m) @ t=0.9
7.021137331569282
% es.tEy (V/m) @ t=0.9
0
% es.tEz (V/m) @ t=0.9
-3.4847058105467568
% V (V) @ t=0.9
0.03558190989480784
% es.normE (V/m) @ t=0.92
7.935030747174241
% es.EX (V/m) @ t=0.92
7.1035249844070485
% es.EY (V/m) @ t=0.92
0.27336881580526184
% es.EZ (V/m) @ t=0.92
-3.525608368264757
% es.tEX (V/m) @ t=0.92
7.103524984407052
% es.tEY (V/m) @ t=0.92
0
% es.tEZ (V/m) @ t=0.92
-3.5256083682647557
% es.Ex (V/m) @ t=0.92
7.1035249844070485
% es.Ey (V/m) @ t=0.92
0.27336881580526184
% es.Ez (V/m) @ t=0.92
-3.525608368264757
% es.tEx (V/m) @ t=0.92
7.103524984407052
% es.tEy (V/m) @ t=0.92
0
% es.tEz (V/m) @ t=0.92
-3.5256083682647557
% V (V) @ t=0.92
0.03599989114239581
% es.normE (V/m) @ t=0.94
8.030003894174019
% es.EX (V/m) @ t=0.94
7.188545025917486
% es.EY (V/m) @ t=0.94
0.276636331603223
% es.EZ (V/m) @ t=0.94
-3.567808065677474
% es.tEX (V/m) @ t=0.94
7.188545025917467
% es.tEY (V/m) @ t=0.94
0
% es.tEZ (V/m) @ t=0.94
-3.5678080656774114
% es.Ex (V/m) @ t=0.94
7.188545025917486
% es.Ey (V/m) @ t=0.94
0.276636331603223
% es.Ez (V/m) @ t=0.94
-3.567808065677474
% es.tEx (V/m) @ t=0.94
7.188545025917467
% es.tEy (V/m) @ t=0.94
0
% es.tEz (V/m) @ t=0.94
-3.5678080656774114
% V (V) @ t=0.94
0.03643086440499156
% es.normE (V/m) @ t=0.96
8.125166397479038
% es.EX (V/m) @ t=0.96
7.273734791413987
% es.EY (V/m) @ t=0.96
0.2799113481237975
% es.EZ (V/m) @ t=0.96
-3.6100913965299597
% es.tEX (V/m) @ t=0.96
7.2737347914139505
% es.tEY (V/m) @ t=0.96
0
% es.tEZ (V/m) @ t=0.96
-3.610091396529924
% es.Ex (V/m) @ t=0.96
7.273734791413987
% es.Ey (V/m) @ t=0.96
0.2799113481237975
% es.Ez (V/m) @ t=0.96
-3.6100913965299597
% es.tEx (V/m) @ t=0.96
7.2737347914139505
% es.tEy (V/m) @ t=0.96
0
% es.tEz (V/m) @ t=0.96
-3.610091396529924
% V (V) @ t=0.96
0.03686267533133967
% es.normE (V/m) @ t=0.98
8.220328900785915
% es.EX (V/m) @ t=0.98
7.3589245569104405
% es.EY (V/m) @ t=0.98
0.2831863646443543
% es.EZ (V/m) @ t=0.98
-3.652374727382459
% es.tEX (V/m) @ t=0.98
7.358924556910427
% es.tEY (V/m) @ t=0.98
0
% es.tEZ (V/m) @ t=0.98
-3.6523747273824085
% es.Ex (V/m) @ t=0.98
7.3589245569104405
% es.Ey (V/m) @ t=0.98
0.2831863646443543
% es.Ez (V/m) @ t=0.98
-3.652374727382459
% es.tEx (V/m) @ t=0.98
7.358924556910427
% es.tEy (V/m) @ t=0.98
0
% es.tEz (V/m) @ t=0.98
-3.6523747273824085
% V (V) @ t=0.98
0.03729448625768779
% es.normE (V/m) @ t=1
8.315491404094594
% es.EX (V/m) @ t=1
7.444114322406868
% es.EY (V/m) @ t=1
0.2864613811649166
% es.EZ (V/m) @ t=1
-3.6946580582349307
% es.tEX (V/m) @ t=1
7.4441143224068504
% es.tEY (V/m) @ t=1
0
% es.tEZ (V/m) @ t=1
-3.6946580582348645
% es.Ex (V/m) @ t=1
7.444114322406868
% es.Ey (V/m) @ t=1
0.2864613811649166
% es.Ez (V/m) @ t=1
-3.6946580582349307
% es.tEx (V/m) @ t=1
7.4441143224068504
% es.tEy (V/m) @ t=1
0
% es.tEz (V/m) @ t=1
-3.6946580582348645
% V (V) @ t=1
0.037726297184035903
% es.normE (V/m) @ t=1.02
8.410653907405067
% es.EX (V/m) @ t=1.02
7.529304087903339
% es.EY (V/m) @ t=1.02
0.2897363976854609
% es.EZ (V/m) @ t=1.02
-3.7369413890873666
% es.tEX (V/m) @ t=1.02
7.529304087903306
% es.tEY (V/m) @ t=1.02
0
% es.tEZ (V/m) @ t=1.02
-3.736941389087349
% es.Ex (V/m) @ t=1.02
7.529304087903339
% es.Ey (V/m) @ t=1.02
0.2897363976854609
% es.Ez (V/m) @ t=1.02
-3.7369413890873666
% es.tEx (V/m) @ t=1.02
7.529304087903306
% es.tEy (V/m) @ t=1.02
0
% es.tEz (V/m) @ t=1.02
-3.736941389087349
% V (V) @ t=1.02
0.03815810811038402
% es.normE (V/m) @ t=1.04
8.505816410717241
% es.EX (V/m) @ t=1.04
7.61449385339978
% es.EY (V/m) @ t=1.04
0.2930114142059502
% es.EZ (V/m) @ t=1.04
-3.779224719939845
% es.tEX (V/m) @ t=1.04
7.614493853399786
% es.tEY (V/m) @ t=1.04
0
% es.tEZ (V/m) @ t=1.04
-3.779224719939833
% es.Ex (V/m) @ t=1.04
7.61449385339978
% es.Ey (V/m) @ t=1.04
0.2930114142059502
% es.Ez (V/m) @ t=1.04
-3.779224719939845
% es.tEx (V/m) @ t=1.04
7.614493853399786
% es.tEy (V/m) @ t=1.04
0
% es.tEz (V/m) @ t=1.04
-3.779224719939833