% Model:              1 neuron.mph
% Version:            COMSOL 6.0.0.405
% Date:               Mar 16 2023, 19:37
% Dimension:          0
% Nodes:              14017
% Expressions:        14017
% Description:        Electric field norm, Electric field, X component, Electric field, Y component, Electric field, Z component, Tangential electric field, X component, Tangential electric field, Y component, Tangential electric field, Z component, Electric field, x component, Electric field, y component, Electric field, z component, Tangential electric field, x component, Tangential electric field, y component, Tangential electric field, z component, Electric potential
% Length unit:        mm
% x
2
% y
12.199999999999998
% z
2
% es.normE (V/m) @ t=0
1.1069598023495746
% es.EX (V/m) @ t=0
-0.7924807458002057
% es.EY (V/m) @ t=0
0.301804363052417
% es.EZ (V/m) @ t=0
-0.7071688476181297
% es.tEX (V/m) @ t=0
-0.7924807458001975
% es.tEY (V/m) @ t=0
0
% es.tEZ (V/m) @ t=0
-0.7071688476181404
% es.Ex (V/m) @ t=0
-0.7924807458002057
% es.Ey (V/m) @ t=0
0.301804363052417
% es.Ez (V/m) @ t=0
-0.7071688476181297
% es.tEx (V/m) @ t=0
-0.7924807458001975
% es.tEy (V/m) @ t=0
0
% es.tEz (V/m) @ t=0
-0.7071688476181404
% V (V) @ t=0
0.011265309247122279
% es.normE (V/m) @ t=0.02
0.9614021801971204
% es.EX (V/m) @ t=0.02
-0.6882749621484401
% es.EY (V/m) @ t=0.02
0.262119162380704
% es.EZ (V/m) @ t=0.02
-0.6141809931912858
% es.tEX (V/m) @ t=0.02
-0.6882749621484372
% es.tEY (V/m) @ t=0.02
0
% es.tEZ (V/m) @ t=0.02
-0.6141809931912885
% es.Ex (V/m) @ t=0.02
-0.6882749621484401
% es.Ey (V/m) @ t=0.02
0.262119162380704
% es.Ez (V/m) @ t=0.02
-0.6141809931912858
% es.tEx (V/m) @ t=0.02
-0.6882749621484372
% es.tEy (V/m) @ t=0.02
0
% es.tEz (V/m) @ t=0.02
-0.6141809931912885
% V (V) @ t=0.02
0.009783998245050192
% es.normE (V/m) @ t=0.04
0.975656826339169
% es.EX (V/m) @ t=0.04
-0.6984799670809447
% es.EY (V/m) @ t=0.04
0.2660055963022572
% es.EZ (V/m) @ t=0.04
-0.6232874108204118
% es.tEX (V/m) @ t=0.04
-0.6984799670809414
% es.tEY (V/m) @ t=0.04
0
% es.tEZ (V/m) @ t=0.04
-0.623287410820418
% es.Ex (V/m) @ t=0.04
-0.6984799670809447
% es.Ey (V/m) @ t=0.04
0.2660055963022572
% es.Ez (V/m) @ t=0.04
-0.6232874108204118
% es.tEx (V/m) @ t=0.04
-0.6984799670809414
% es.tEy (V/m) @ t=0.04
0
% es.tEz (V/m) @ t=0.04
-0.623287410820418
% V (V) @ t=0.04
0.009929064617790178
% es.normE (V/m) @ t=0.06
0.9901245165747492
% es.EX (V/m) @ t=0.06
-0.7088374902347774
% es.EY (V/m) @ t=0.06
0.2699501231839454
% es.EZ (V/m) @ t=0.06
-0.6325299269207219
% es.tEX (V/m) @ t=0.06
-0.7088374902347794
% es.tEY (V/m) @ t=0.06
0
% es.tEZ (V/m) @ t=0.06
-0.6325299269207285
% es.Ex (V/m) @ t=0.06
-0.7088374902347774
% es.Ey (V/m) @ t=0.06
0.2699501231839454
% es.Ez (V/m) @ t=0.06
-0.6325299269207219
% es.tEx (V/m) @ t=0.06
-0.7088374902347794
% es.tEy (V/m) @ t=0.06
0
% es.tEz (V/m) @ t=0.06
-0.6325299269207285
% V (V) @ t=0.06
0.010076298854484862
% es.normE (V/m) @ t=0.08
1.0049632395136412
% es.EX (V/m) @ t=0.08
-0.7194606438537205
% es.EY (V/m) @ t=0.08
0.2739957825563504
% es.EZ (V/m) @ t=0.08
-0.6420094809423951
% es.tEX (V/m) @ t=0.08
-0.7194606438537141
% es.tEY (V/m) @ t=0.08
0
% es.tEZ (V/m) @ t=0.08
-0.6420094809423915
% es.Ex (V/m) @ t=0.08
-0.7194606438537205
% es.Ey (V/m) @ t=0.08
0.2739957825563504
% es.Ez (V/m) @ t=0.08
-0.6420094809423951
% es.tEx (V/m) @ t=0.08
-0.7194606438537141
% es.tEy (V/m) @ t=0.08
0
% es.tEz (V/m) @ t=0.08
-0.6420094809423915
% V (V) @ t=0.08
0.010227309826768335
% es.normE (V/m) @ t=0.1
1.020056872713673
% es.EX (V/m) @ t=0.1
-0.7302662933298307
% es.EY (V/m) @ t=0.1
0.278110922892022
% es.EZ (V/m) @ t=0.1
-0.6516518869118606
% es.tEX (V/m) @ t=0.1
-0.7302662933298336
% es.tEY (V/m) @ t=0.1
0
% es.tEZ (V/m) @ t=0.1
-0.6516518869118642
% es.Ex (V/m) @ t=0.1
-0.7302662933298307
% es.Ey (V/m) @ t=0.1
0.278110922892022
% es.Ez (V/m) @ t=0.1
-0.6516518869118606
% es.tEx (V/m) @ t=0.1
-0.7302662933298336
% es.tEy (V/m) @ t=0.1
0
% es.tEz (V/m) @ t=0.1
-0.6516518869118642
% V (V) @ t=0.1
0.010380915526273113
% es.normE (V/m) @ t=0.12
1.0351505059137065
% es.EX (V/m) @ t=0.12
-0.7410719428059449
% es.EY (V/m) @ t=0.12
0.28222606322769583
% es.EZ (V/m) @ t=0.12
-0.6612942928813217
% es.tEX (V/m) @ t=0.12
-0.7410719428059451
% es.tEY (V/m) @ t=0.12
0
% es.tEZ (V/m) @ t=0.12
-0.6612942928813279
% es.Ex (V/m) @ t=0.12
-0.7410719428059449
% es.Ey (V/m) @ t=0.12
0.28222606322769583
% es.Ez (V/m) @ t=0.12
-0.6612942928813217
% es.tEx (V/m) @ t=0.12
-0.7410719428059451
% es.tEy (V/m) @ t=0.12
0
% es.tEz (V/m) @ t=0.12
-0.6612942928813279
% V (V) @ t=0.12
0.010534521225777888
% es.normE (V/m) @ t=0.14
1.050509098210102
% es.EX (V/m) @ t=0.14
-0.7520672590651025
% es.EY (V/m) @ t=0.14
0.28641353945358095
% es.EZ (V/m) @ t=0.14
-0.6711059366421939
% es.tEX (V/m) @ t=0.14
-0.7520672590651007
% es.tEY (V/m) @ t=0.14
0
% es.tEZ (V/m) @ t=0.14
-0.6711059366421903
% es.Ex (V/m) @ t=0.14
-0.7520672590651025
% es.Ey (V/m) @ t=0.14
0.28641353945358095
% es.Ez (V/m) @ t=0.14
-0.6711059366421939
% es.tEx (V/m) @ t=0.14
-0.7520672590651007
% es.tEy (V/m) @ t=0.14
0
% es.tEz (V/m) @ t=0.14
-0.6711059366421903
% V (V) @ t=0.14
0.01069082043245582
% es.normE (V/m) @ t=0.16
1.0669582357997642
% es.EX (V/m) @ t=0.16
-0.7638432249428231
% es.EY (V/m) @ t=0.16
0.29089874301045304
% es.EZ (V/m) @ t=0.16
-0.6816141463234526
% es.tEX (V/m) @ t=0.16
-0.7638432249428146
% es.tEY (V/m) @ t=0.16
0
% es.tEZ (V/m) @ t=0.16
-0.6816141463234509
% es.Ex (V/m) @ t=0.16
-0.7638432249428231
% es.Ey (V/m) @ t=0.16
0.29089874301045304
% es.Ez (V/m) @ t=0.16
-0.6816141463234526
% es.tEx (V/m) @ t=0.16
-0.7638432249428146
% es.tEy (V/m) @ t=0.16
0
% es.tEz (V/m) @ t=0.16
-0.6816141463234509
% V (V) @ t=0.16
0.010858205846815662
% es.normE (V/m) @ t=0.18
1.0834073733897704
% es.EX (V/m) @ t=0.18
-0.775619190820535
% es.EY (V/m) @ t=0.18
0.29538394656734845
% es.EZ (V/m) @ t=0.18
-0.6921223560047034
% es.tEX (V/m) @ t=0.18
-0.7756191908205423
% es.tEY (V/m) @ t=0.18
0
% es.tEZ (V/m) @ t=0.18
-0.6921223560047025
% es.Ex (V/m) @ t=0.18
-0.775619190820535
% es.Ey (V/m) @ t=0.18
0.29538394656734845
% es.Ez (V/m) @ t=0.18
-0.6921223560047034
% es.tEx (V/m) @ t=0.18
-0.7756191908205423
% es.tEy (V/m) @ t=0.18
0
% es.tEz (V/m) @ t=0.18
-0.6921223560047025
% V (V) @ t=0.18
0.011025591261175506
% es.normE (V/m) @ t=0.2
1.099856510980106
% es.EX (V/m) @ t=0.2
-0.7873951566982385
% es.EY (V/m) @ t=0.2
0.29986915012421944
% es.EZ (V/m) @ t=0.2
-0.7026305656859666
% es.tEX (V/m) @ t=0.2
-0.7873951566982416
% es.tEY (V/m) @ t=0.2
0
% es.tEZ (V/m) @ t=0.2
-0.7026305656859702
% es.Ex (V/m) @ t=0.2
-0.7873951566982385
% es.Ey (V/m) @ t=0.2
0.29986915012421944
% es.Ez (V/m) @ t=0.2
-0.7026305656859666
% es.tEx (V/m) @ t=0.2
-0.7873951566982416
% es.tEy (V/m) @ t=0.2
0
% es.tEz (V/m) @ t=0.2
-0.7026305656859702
% V (V) @ t=0.2
0.01119297667553535
% es.normE (V/m) @ t=0.22
1.116305648570766
% es.EX (V/m) @ t=0.22
-0.799171122575957
% es.EY (V/m) @ t=0.22
0.3043543536810953
% es.EZ (V/m) @ t=0.22
-0.71313877536722
% es.tEX (V/m) @ t=0.22
-0.799171122575955
% es.tEY (V/m) @ t=0.22
0
% es.tEZ (V/m) @ t=0.22
-0.7131387753672218
% es.Ex (V/m) @ t=0.22
-0.799171122575957
% es.Ey (V/m) @ t=0.22
0.3043543536810953
% es.Ez (V/m) @ t=0.22
-0.71313877536722
% es.tEx (V/m) @ t=0.22
-0.799171122575955
% es.tEy (V/m) @ t=0.22
0
% es.tEz (V/m) @ t=0.22
-0.7131387753672218
% V (V) @ t=0.22
0.011360362089895193
% es.normE (V/m) @ t=0.24
1.1327547861617313
% es.EX (V/m) @ t=0.24
-0.8109470884536594
% es.EY (V/m) @ t=0.24
0.30883955723798073
% es.EZ (V/m) @ t=0.24
-0.7236469850484886
% es.tEX (V/m) @ t=0.24
-0.8109470884536618
% es.tEY (V/m) @ t=0.24
0
% es.tEZ (V/m) @ t=0.24
-0.7236469850484948
% es.Ex (V/m) @ t=0.24
-0.8109470884536594
% es.Ey (V/m) @ t=0.24
0.30883955723798073
% es.Ez (V/m) @ t=0.24
-0.7236469850484886
% es.tEx (V/m) @ t=0.24
-0.8109470884536618
% es.tEy (V/m) @ t=0.24
0
% es.tEz (V/m) @ t=0.24
-0.7236469850484948
% V (V) @ t=0.24
0.011527747504255035
% es.normE (V/m) @ t=0.26
1.1492039237529847
% es.EX (V/m) @ t=0.26
-0.8227230543313715
% es.EY (V/m) @ t=0.26
0.31332476079485994
% es.EZ (V/m) @ t=0.26
-0.7341551947297411
% es.tEX (V/m) @ t=0.26
-0.8227230543313682
% es.tEY (V/m) @ t=0.26
0
% es.tEZ (V/m) @ t=0.26
-0.7341551947297393
% es.Ex (V/m) @ t=0.26
-0.8227230543313715
% es.Ey (V/m) @ t=0.26
0.31332476079485994
% es.Ez (V/m) @ t=0.26
-0.7341551947297411
% es.tEx (V/m) @ t=0.26
-0.8227230543313682
% es.tEy (V/m) @ t=0.26
0
% es.tEz (V/m) @ t=0.26
-0.7341551947297393
% V (V) @ t=0.26
0.011695132918614877
% es.normE (V/m) @ t=0.28
1.1662403183054049
% es.EX (V/m) @ t=0.28
-0.834919494804633
% es.EY (V/m) @ t=0.28
0.31796981147152215
% es.EZ (V/m) @ t=0.28
-0.7450386443156622
% es.tEX (V/m) @ t=0.28
-0.834919494804625
% es.tEY (V/m) @ t=0.28
0
% es.tEZ (V/m) @ t=0.28
-0.7450386443156756
% es.Ex (V/m) @ t=0.28
-0.834919494804633
% es.Ey (V/m) @ t=0.28
0.31796981147152215
% es.Ez (V/m) @ t=0.28
-0.7450386443156622
% es.tEx (V/m) @ t=0.28
-0.834919494804625
% es.tEy (V/m) @ t=0.28
0
% es.tEz (V/m) @ t=0.28
-0.7450386443156756
% V (V) @ t=0.28
0.011868502727741446
% es.normE (V/m) @ t=0.3
1.1841543352504917
% es.EX (V/m) @ t=0.3
-0.847744310835973
% es.EY (V/m) @ t=0.3
0.32285374464945127
% es.EZ (V/m) @ t=0.3
-0.7564828687665086
% es.tEX (V/m) @ t=0.3
-0.8477443108359717
% es.tEY (V/m) @ t=0.3
0
% es.tEZ (V/m) @ t=0.3
-0.756482868766513
% es.Ex (V/m) @ t=0.3
-0.847744310835973
% es.Ey (V/m) @ t=0.3
0.32285374464945127
% es.Ez (V/m) @ t=0.3
-0.7564828687665086
% es.tEx (V/m) @ t=0.3
-0.8477443108359717
% es.tEy (V/m) @ t=0.3
0
% es.tEz (V/m) @ t=0.3
-0.756482868766513
% V (V) @ t=0.3
0.01205081587718222
% es.normE (V/m) @ t=0.32
1.2020683521956694
% es.EX (V/m) @ t=0.32
-0.8605691268673308
% es.EY (V/m) @ t=0.32
0.3277376778273675
% es.EZ (V/m) @ t=0.32
-0.7679270932173532
% es.tEX (V/m) @ t=0.32
-0.8605691268673317
% es.tEY (V/m) @ t=0.32
0
% es.tEZ (V/m) @ t=0.32
-0.767927093217363
% es.Ex (V/m) @ t=0.32
-0.8605691268673308
% es.Ey (V/m) @ t=0.32
0.3277376778273675
% es.Ez (V/m) @ t=0.32
-0.7679270932173532
% es.tEx (V/m) @ t=0.32
-0.8605691268673317
% es.tEy (V/m) @ t=0.32
0
% es.tEz (V/m) @ t=0.32
-0.767927093217363
% V (V) @ t=0.32
0.012233129026623001
% es.normE (V/m) @ t=0.34
1.219982369140908
% es.EX (V/m) @ t=0.34
-0.8733939428986763
% es.EY (V/m) @ t=0.34
0.332621611005254
% es.EZ (V/m) @ t=0.34
-0.7793713176682013
% es.tEX (V/m) @ t=0.34
-0.8733939428986712
% es.tEY (V/m) @ t=0.34
0
% es.tEZ (V/m) @ t=0.34
-0.7793713176682076
% es.Ex (V/m) @ t=0.34
-0.8733939428986763
% es.Ey (V/m) @ t=0.34
0.332621611005254
% es.Ez (V/m) @ t=0.34
-0.7793713176682013
% es.tEx (V/m) @ t=0.34
-0.8733939428986712
% es.tEy (V/m) @ t=0.34
0
% es.tEz (V/m) @ t=0.34
-0.7793713176682076
% V (V) @ t=0.34
0.012415442176063779
% es.normE (V/m) @ t=0.36
1.2378963860862404
% es.EX (V/m) @ t=0.36
-0.8862187589300359
% es.EY (V/m) @ t=0.36
0.33750554418318846
% es.EZ (V/m) @ t=0.36
-0.7908155421190415
% es.tEX (V/m) @ t=0.36
-0.8862187589300317
% es.tEY (V/m) @ t=0.36
0
% es.tEZ (V/m) @ t=0.36
-0.7908155421190433
% es.Ex (V/m) @ t=0.36
-0.8862187589300359
% es.Ey (V/m) @ t=0.36
0.33750554418318846
% es.Ez (V/m) @ t=0.36
-0.7908155421190415
% es.tEx (V/m) @ t=0.36
-0.8862187589300317
% es.tEy (V/m) @ t=0.36
0
% es.tEz (V/m) @ t=0.36
-0.7908155421190433
% V (V) @ t=0.36
0.012597755325504556
% es.normE (V/m) @ t=0.38
1.2558104030316346
% es.EX (V/m) @ t=0.38
-0.8990435749613814
% es.EY (V/m) @ t=0.38
0.3423894773611078
% es.EZ (V/m) @ t=0.38
-0.8022597665698914
% es.tEX (V/m) @ t=0.38
-0.8990435749613859
% es.tEY (V/m) @ t=0.38
0
% es.tEZ (V/m) @ t=0.38
-0.8022597665698896
% es.Ex (V/m) @ t=0.38
-0.8990435749613814
% es.Ey (V/m) @ t=0.38
0.3423894773611078
% es.Ez (V/m) @ t=0.38
-0.8022597665698914
% es.tEx (V/m) @ t=0.38
-0.8990435749613859
% es.tEy (V/m) @ t=0.38
0
% es.tEz (V/m) @ t=0.38
-0.8022597665698896
% V (V) @ t=0.38
0.012780068474945333
% es.normE (V/m) @ t=0.4
1.2737244199770967
% es.EX (V/m) @ t=0.4
-0.9118683909927303
% es.EY (V/m) @ t=0.4
0.3472734105390094
% es.EZ (V/m) @ t=0.4
-0.8137039910207422
% es.tEX (V/m) @ t=0.4
-0.9118683909927321
% es.tEY (V/m) @ t=0.4
0
% es.tEZ (V/m) @ t=0.4
-0.8137039910207395
% es.Ex (V/m) @ t=0.4
-0.9118683909927303
% es.Ey (V/m) @ t=0.4
0.3472734105390094
% es.Ez (V/m) @ t=0.4
-0.8137039910207422
% es.tEx (V/m) @ t=0.4
-0.9118683909927321
% es.tEy (V/m) @ t=0.4
0
% es.tEz (V/m) @ t=0.4
-0.8137039910207395
% V (V) @ t=0.4
0.01296238162438611
% es.normE (V/m) @ t=0.42
1.2925922880101928
% es.EX (V/m) @ t=0.42
-0.9253759920112945
% es.EY (V/m) @ t=0.42
0.3524178232783237
% es.EZ (V/m) @ t=0.42
-0.8257574497526301
% es.tEX (V/m) @ t=0.42
-0.9253759920113023
% es.tEY (V/m) @ t=0.42
0
% es.tEZ (V/m) @ t=0.42
-0.8257574497526239
% es.Ex (V/m) @ t=0.42
-0.9253759920112945
% es.Ey (V/m) @ t=0.42
0.3524178232783237
% es.Ez (V/m) @ t=0.42
-0.8257574497526301
% es.tEx (V/m) @ t=0.42
-0.9253759920113023
% es.tEy (V/m) @ t=0.42
0
% es.tEz (V/m) @ t=0.42
-0.8257574497526239
% V (V) @ t=0.42
0.013154389229739032
% es.normE (V/m) @ t=0.44
1.312079504066109
% es.EX (V/m) @ t=0.44
-0.93932693427796
% es.EY (V/m) @ t=0.44
0.35773136881348977
% es.EZ (V/m) @ t=0.44
-0.8382064922943719
% es.tEX (V/m) @ t=0.44
-0.939326934277966
% es.tEY (V/m) @ t=0.44
0
% es.tEZ (V/m) @ t=0.44
-0.8382064922943755
% es.Ex (V/m) @ t=0.44
-0.93932693427796
% es.Ey (V/m) @ t=0.44
0.35773136881348977
% es.Ez (V/m) @ t=0.44
-0.8382064922943719
% es.tEx (V/m) @ t=0.44
-0.939326934277966
% es.tEy (V/m) @ t=0.44
0
% es.tEz (V/m) @ t=0.44
-0.8382064922943755
% V (V) @ t=0.44
0.013352691572475272
% es.normE (V/m) @ t=0.46
1.331566720122303
% es.EX (V/m) @ t=0.46
-0.9532778765446059
% es.EY (V/m) @ t=0.46
0.3630449143486567
% es.EZ (V/m) @ t=0.46
-0.8506555348361218
% es.tEX (V/m) @ t=0.46
-0.9532778765446088
% es.tEY (V/m) @ t=0.46
0
% es.tEZ (V/m) @ t=0.46
-0.8506555348361182
% es.Ex (V/m) @ t=0.46
-0.9532778765446059
% es.Ey (V/m) @ t=0.46
0.3630449143486567
% es.Ez (V/m) @ t=0.46
-0.8506555348361218
% es.tEx (V/m) @ t=0.46
-0.9532778765446088
% es.tEy (V/m) @ t=0.46
0
% es.tEz (V/m) @ t=0.46
-0.8506555348361182
% V (V) @ t=0.46
0.013550993915211515
% es.normE (V/m) @ t=0.48
1.3510539361787812
% es.EX (V/m) @ t=0.48
-0.9672288188112825
% es.EY (V/m) @ t=0.48
0.36835845988382543
% es.EZ (V/m) @ t=0.48
-0.8631045773778538
% es.tEX (V/m) @ t=0.48
-0.9672288188112765
% es.tEY (V/m) @ t=0.48
0
% es.tEZ (V/m) @ t=0.48
-0.8631045773778645
% es.Ex (V/m) @ t=0.48
-0.9672288188112825
% es.Ey (V/m) @ t=0.48
0.36835845988382543
% es.Ez (V/m) @ t=0.48
-0.8631045773778538
% es.tEx (V/m) @ t=0.48
-0.9672288188112765
% es.tEy (V/m) @ t=0.48
0
% es.tEz (V/m) @ t=0.48
-0.8631045773778645
% V (V) @ t=0.48
0.013749296257947758
% es.normE (V/m) @ t=0.5
1.3705411522355293
% es.EX (V/m) @ t=0.5
-0.9811797610779498
% es.EY (V/m) @ t=0.5
0.37367200541897994
% es.EZ (V/m) @ t=0.5
-0.8755536199196143
% es.tEX (V/m) @ t=0.5
-0.9811797610779465
% es.tEY (V/m) @ t=0.5
0
% es.tEZ (V/m) @ t=0.5
-0.8755536199196072
% es.Ex (V/m) @ t=0.5
-0.9811797610779498
% es.Ey (V/m) @ t=0.5
0.37367200541897994
% es.Ez (V/m) @ t=0.5
-0.8755536199196143
% es.tEx (V/m) @ t=0.5
-0.9811797610779465
% es.tEy (V/m) @ t=0.5
0
% es.tEz (V/m) @ t=0.5
-0.8755536199196072
% V (V) @ t=0.5
0.013947598600684003
% es.normE (V/m) @ t=0.52
1.3900283682925072
% es.EX (V/m) @ t=0.52
-0.9951307033446122
% es.EY (V/m) @ t=0.52
0.378985550954146
% es.EZ (V/m) @ t=0.52
-0.8880026624613473
% es.tEX (V/m) @ t=0.52
-0.9951307033446106
% es.tEY (V/m) @ t=0.52
0
% es.tEZ (V/m) @ t=0.52
-0.8880026624613517
% es.Ex (V/m) @ t=0.52
-0.9951307033446122
% es.Ey (V/m) @ t=0.52
0.378985550954146
% es.Ez (V/m) @ t=0.52
-0.8880026624613473
% es.tEx (V/m) @ t=0.52
-0.9951307033446106
% es.tEy (V/m) @ t=0.52
0
% es.tEz (V/m) @ t=0.52
-0.8880026624613517
% V (V) @ t=0.52
0.014145900943420242
% es.normE (V/m) @ t=0.54
1.4095155843497382
% es.EX (V/m) @ t=0.54
-1.0090816456112708
% es.EY (V/m) @ t=0.54
0.38429909648931737
% es.EZ (V/m) @ t=0.54
-0.900451705003098
% es.tEX (V/m) @ t=0.54
-1.00908164561127
% es.tEY (V/m) @ t=0.54
0
% es.tEZ (V/m) @ t=0.54
-0.9004517050030962
% es.Ex (V/m) @ t=0.54
-1.0090816456112708
% es.Ey (V/m) @ t=0.54
0.38429909648931737
% es.Ez (V/m) @ t=0.54
-0.900451705003098
% es.tEx (V/m) @ t=0.54
-1.00908164561127
% es.tEy (V/m) @ t=0.54
0
% es.tEz (V/m) @ t=0.54
-0.9004517050030962
% V (V) @ t=0.54
0.014344203286156487
% es.normE (V/m) @ t=0.56
1.4296076609712483
% es.EX (V/m) @ t=0.56
-1.0234656749081348
% es.EY (V/m) @ t=0.56
0.3897772393346641
% es.EZ (V/m) @ t=0.56
-0.913287247764039
% es.tEX (V/m) @ t=0.56
-1.0234656749081346
% es.tEY (V/m) @ t=0.56
0
% es.tEZ (V/m) @ t=0.56
-0.9132872477640337
% es.Ex (V/m) @ t=0.56
-1.0234656749081348
% es.Ey (V/m) @ t=0.56
0.3897772393346641
% es.Ez (V/m) @ t=0.56
-0.913287247764039
% es.tEx (V/m) @ t=0.56
-1.0234656749081346
% es.tEy (V/m) @ t=0.56
0
% es.tEz (V/m) @ t=0.56
-0.9132872477640337
% V (V) @ t=0.56
0.014548670665282797
% es.normE (V/m) @ t=0.58
1.4500175072991124
% es.EX (V/m) @ t=0.58
-1.0380772309220128
% es.EY (V/m) @ t=0.58
0.39534185506651465
% es.EZ (V/m) @ t=0.58
-0.9263258423826315
% es.tEX (V/m) @ t=0.58
-1.038077230922009
% es.tEY (V/m) @ t=0.58
0
% es.tEZ (V/m) @ t=0.58
-0.926325842382635
% es.Ex (V/m) @ t=0.58
-1.0380772309220128
% es.Ey (V/m) @ t=0.58
0.39534185506651465
% es.Ez (V/m) @ t=0.58
-0.9263258423826315
% es.tEx (V/m) @ t=0.58
-1.038077230922009
% es.tEy (V/m) @ t=0.58
0
% es.tEz (V/m) @ t=0.58
-0.926325842382635
% V (V) @ t=0.58
0.014756376909561698
% es.normE (V/m) @ t=0.6
1.4706232817573914
% es.EX (V/m) @ t=0.6
-1.0528290737014137
% es.EY (V/m) @ t=0.6
0.4009597876207689
% es.EZ (V/m) @ t=0.6
-0.9394896332362208
% es.tEX (V/m) @ t=0.6
-1.0528290737014117
% es.tEY (V/m) @ t=0.6
0
% es.tEZ (V/m) @ t=0.6
-0.9394896332362261
% es.Ex (V/m) @ t=0.6
-1.0528290737014137
% es.Ey (V/m) @ t=0.6
0.4009597876207689
% es.Ez (V/m) @ t=0.6
-0.9394896332362208
% es.tEx (V/m) @ t=0.6
-1.0528290737014117
% es.tEy (V/m) @ t=0.6
0
% es.tEz (V/m) @ t=0.6
-0.9394896332362261
% V (V) @ t=0.6
0.014966080149719427
% es.normE (V/m) @ t=0.62
1.4914249843461467
% es.EX (V/m) @ t=0.62
-1.0677212032463281
% es.EY (V/m) @ t=0.62
0.4066310369973496
% es.EZ (V/m) @ t=0.62
-0.9527786203248594
% es.tEX (V/m) @ t=0.62
-1.0677212032463226
% es.tEY (V/m) @ t=0.62
0
% es.tEZ (V/m) @ t=0.62
-0.9527786203248567
% es.Ex (V/m) @ t=0.62
-1.0677212032463281
% es.Ey (V/m) @ t=0.62
0.4066310369973496
% es.Ez (V/m) @ t=0.62
-0.9527786203248594
% es.tEx (V/m) @ t=0.62
-1.0677212032463226
% es.tEy (V/m) @ t=0.62
0
% es.tEz (V/m) @ t=0.62
-0.9527786203248567
% V (V) @ t=0.62
0.015177780385755986
% es.normE (V/m) @ t=0.64
1.5124226150655082
% es.EX (V/m) @ t=0.64
-1.082753619556772
% es.EY (V/m) @ t=0.64
0.4123556031963256
% es.EZ (V/m) @ t=0.64
-0.9661928036485641
% es.tEX (V/m) @ t=0.64
-1.0827536195567697
% es.tEY (V/m) @ t=0.64
0
% es.tEZ (V/m) @ t=0.64
-0.9661928036485623
% es.Ex (V/m) @ t=0.64
-1.082753619556772
% es.Ey (V/m) @ t=0.64
0.4123556031963256
% es.Ez (V/m) @ t=0.64
-0.9661928036485641
% es.tEx (V/m) @ t=0.64
-1.0827536195567697
% es.tEy (V/m) @ t=0.64
0
% es.tEz (V/m) @ t=0.64
-0.9661928036485623
% V (V) @ t=0.64
0.01539147761767138
% es.normE (V/m) @ t=0.66
1.5336161739155378
% es.EX (V/m) @ t=0.66
-1.0979263226327383
% es.EY (V/m) @ t=0.66
0.41813348621766755
% es.EZ (V/m) @ t=0.66
-0.9797321832072639
% es.tEX (V/m) @ t=0.66
-1.097926322632739
% es.tEY (V/m) @ t=0.66
0
% es.tEZ (V/m) @ t=0.66
-0.9797321832072647
% es.Ex (V/m) @ t=0.66
-1.0979263226327383
% es.Ey (V/m) @ t=0.66
0.41813348621766755
% es.Ez (V/m) @ t=0.66
-0.9797321832072639
% es.tEx (V/m) @ t=0.66
-1.097926322632739
% es.tEy (V/m) @ t=0.66
0
% es.tEz (V/m) @ t=0.66
-0.9797321832072647
% V (V) @ t=0.66
0.015607171845465605
% es.normE (V/m) @ t=0.68
1.555005660896422
% es.EX (V/m) @ t=0.68
-1.1132393124742237
% es.EY (V/m) @ t=0.68
0.4239646860613542
% es.EZ (V/m) @ t=0.68
-0.9933967590010297
% es.tEX (V/m) @ t=0.68
-1.1132393124742261
% es.tEY (V/m) @ t=0.68
0
% es.tEZ (V/m) @ t=0.68
-0.993396759001028
% es.Ex (V/m) @ t=0.68
-1.1132393124742237
% es.Ey (V/m) @ t=0.68
0.4239646860613542
% es.Ez (V/m) @ t=0.68
-0.9933967590010297
% es.tEx (V/m) @ t=0.68
-1.1132393124742261
% es.tEy (V/m) @ t=0.68
0
% es.tEz (V/m) @ t=0.68
-0.993396759001028
% V (V) @ t=0.68
0.01582486306913866
% es.normE (V/m) @ t=0.7
1.5765910760083173
% es.EX (V/m) @ t=0.7
-1.1286925890812347
% es.EY (V/m) @ t=0.7
0.42984920272742055
% es.EZ (V/m) @ t=0.7
-1.0071865310298165
% es.tEX (V/m) @ t=0.7
-1.1286925890812363
% es.tEY (V/m) @ t=0.7
0
% es.tEZ (V/m) @ t=0.7
-1.0071865310298307
% es.Ex (V/m) @ t=0.7
-1.1286925890812347
% es.Ey (V/m) @ t=0.7
0.42984920272742055
% es.Ez (V/m) @ t=0.7
-1.0071865310298165
% es.tEx (V/m) @ t=0.7
-1.1286925890812363
% es.tEy (V/m) @ t=0.7
0
% es.tEz (V/m) @ t=0.7
-1.0071865310298307
% V (V) @ t=0.7
0.016044551288690548
% es.normE (V/m) @ t=0.72
1.5983724192514368
% es.EX (V/m) @ t=0.72
-1.1442861524537602
% es.EY (V/m) @ t=0.72
0.4357870362158627
% es.EZ (V/m) @ t=0.72
-1.021101499293657
% es.tEX (V/m) @ t=0.72
-1.1442861524537609
% es.tEY (V/m) @ t=0.72
0
% es.tEZ (V/m) @ t=0.72
-1.0211014992936676
% es.Ex (V/m) @ t=0.72
-1.1442861524537602
% es.Ey (V/m) @ t=0.72
0.4357870362158627
% es.Ez (V/m) @ t=0.72
-1.021101499293657
% es.tEx (V/m) @ t=0.72
-1.1442861524537609
% es.tEy (V/m) @ t=0.72
0
% es.tEz (V/m) @ t=0.72
-1.0211014992936676
% V (V) @ t=0.72
0.016266236504121262
% es.normE (V/m) @ t=0.74
1.6203496906259813
% es.EX (V/m) @ t=0.74
-1.1600200025918161
% es.EY (V/m) @ t=0.74
0.44177818652668055
% es.EZ (V/m) @ t=0.74
-1.0351416637924924
% es.tEX (V/m) @ t=0.74
-1.160020002591807
% es.tEY (V/m) @ t=0.74
0
% es.tEZ (V/m) @ t=0.74
-1.0351416637924995
% es.Ex (V/m) @ t=0.74
-1.1600200025918161
% es.Ey (V/m) @ t=0.74
0.44177818652668055
% es.Ez (V/m) @ t=0.74
-1.0351416637924924
% es.tEx (V/m) @ t=0.74
-1.160020002591807
% es.tEy (V/m) @ t=0.74
0
% es.tEz (V/m) @ t=0.74
-1.0351416637924995
% V (V) @ t=0.74
0.016489918715430818
% es.normE (V/m) @ t=0.76
1.6425228901322033
% es.EX (V/m) @ t=0.76
-1.1758941394953688
% es.EY (V/m) @ t=0.76
0.44782265365983864
% es.EZ (V/m) @ t=0.76
-1.0493070245263993
% es.tEX (V/m) @ t=0.76
-1.1758941394953704
% es.tEY (V/m) @ t=0.76
0
% es.tEZ (V/m) @ t=0.76
-1.0493070245264082
% es.Ex (V/m) @ t=0.76
-1.1758941394953688
% es.Ey (V/m) @ t=0.76
0.44782265365983864
% es.Ez (V/m) @ t=0.76
-1.0493070245263993
% es.tEx (V/m) @ t=0.76
-1.1758941394953704
% es.tEy (V/m) @ t=0.76
0
% es.tEz (V/m) @ t=0.76
-1.0493070245264082
% V (V) @ t=0.76
0.0167155979226192
% es.normE (V/m) @ t=0.78
1.6648920177703972
% es.EX (V/m) @ t=0.78
-1.1919085631644661
% es.EY (V/m) @ t=0.78
0.4539204376154111
% es.EZ (V/m) @ t=0.78
-1.0635975814953351
% es.tEX (V/m) @ t=0.78
-1.1919085631644712
% es.tEY (V/m) @ t=0.78
0
% es.tEZ (V/m) @ t=0.78
-1.0635975814953316
% es.Ex (V/m) @ t=0.78
-1.1919085631644661
% es.Ey (V/m) @ t=0.78
0.4539204376154111
% es.Ez (V/m) @ t=0.78
-1.0635975814953351
% es.tEx (V/m) @ t=0.78
-1.1919085631644712
% es.tEy (V/m) @ t=0.78
0
% es.tEz (V/m) @ t=0.78
-1.0635975814953316
% V (V) @ t=0.78
0.016943274125686414
% es.normE (V/m) @ t=0.8
1.6874570735407828
% es.EX (V/m) @ t=0.8
-1.208063273599069
% es.EY (V/m) @ t=0.8
0.46007153839328474
% es.EZ (V/m) @ t=0.8
-1.0780133346993042
% es.tEX (V/m) @ t=0.8
-1.208063273599059
% es.tEY (V/m) @ t=0.8
0
% es.tEZ (V/m) @ t=0.8
-1.0780133346993104
% es.Ex (V/m) @ t=0.8
-1.208063273599069
% es.Ey (V/m) @ t=0.8
0.46007153839328474
% es.Ez (V/m) @ t=0.8
-1.0780133346993042
% es.tEx (V/m) @ t=0.8
-1.208063273599059
% es.tEy (V/m) @ t=0.8
0
% es.tEz (V/m) @ t=0.8
-1.0780133346993104
% V (V) @ t=0.8
0.017172947324632454
% es.normE (V/m) @ t=0.82
1.7103026805694084
% es.EX (V/m) @ t=0.82
-1.224418762317813
% es.EY (V/m) @ t=0.82
0.46629948058753
% es.EZ (V/m) @ t=0.82
-1.0926082120365903
% es.tEX (V/m) @ t=0.82
-1.2244187623178155
% es.tEY (V/m) @ t=0.82
0
% es.tEZ (V/m) @ t=0.82
-1.0926082120365823
% es.Ex (V/m) @ t=0.82
-1.224418762317813
% es.Ey (V/m) @ t=0.82
0.46629948058753
% es.Ez (V/m) @ t=0.82
-1.0926082120365903
% es.tEx (V/m) @ t=0.82
-1.2244187623178155
% es.tEy (V/m) @ t=0.82
0
% es.tEz (V/m) @ t=0.82
-1.0926082120365823
% V (V) @ t=0.82
0.017405465001278285
% es.normE (V/m) @ t=0.84
1.7336734400005716
% es.EX (V/m) @ t=0.84
-1.2411498786253021
% es.EY (V/m) @ t=0.84
0.472672261480958
% es.EZ (V/m) @ t=0.84
-1.1075380908223398
% es.tEX (V/m) @ t=0.84
-1.2411498786253037
% es.tEY (V/m) @ t=0.84
0
% es.tEZ (V/m) @ t=0.84
-1.1075380908223327
% es.Ex (V/m) @ t=0.84
-1.2411498786253021
% es.Ey (V/m) @ t=0.84
0.472672261480958
% es.Ez (V/m) @ t=0.84
-1.1075380908223398
% es.tEx (V/m) @ t=0.84
-1.2411498786253037
% es.tEy (V/m) @ t=0.84
0
% es.tEz (V/m) @ t=0.84
-1.1075380908223327
% V (V) @ t=0.84
0.01764327678179306
% es.normE (V/m) @ t=0.86
1.7572951812761306
% es.EX (V/m) @ t=0.86
-1.2580606359836304
% es.EY (V/m) @ t=0.86
0.4791136637155291
% es.EZ (V/m) @ t=0.86
-1.1226282499994271
% es.tEX (V/m) @ t=0.86
-1.2580606359836293
% es.tEY (V/m) @ t=0.86
0
% es.tEZ (V/m) @ t=0.86
-1.1226282499994191
% es.Ex (V/m) @ t=0.86
-1.2580606359836304
% es.Ey (V/m) @ t=0.86
0.4791136637155291
% es.Ez (V/m) @ t=0.86
-1.1226282499994271
% es.tEx (V/m) @ t=0.86
-1.2580606359836293
% es.tEy (V/m) @ t=0.86
0
% es.tEz (V/m) @ t=0.86
-1.1226282499994191
% V (V) @ t=0.86
0.01788363690889064
% es.normE (V/m) @ t=0.88
1.7811679043966846
% es.EX (V/m) @ t=0.88
-1.2751510343927637
% es.EY (V/m) @ t=0.88
0.4856236872912225
% es.EZ (V/m) @ t=0.88
-1.1378786895678976
% es.tEX (V/m) @ t=0.88
-1.2751510343927541
% es.tEY (V/m) @ t=0.88
0
% es.tEZ (V/m) @ t=0.88
-1.1378786895679038
% es.Ex (V/m) @ t=0.88
-1.2751510343927637
% es.Ey (V/m) @ t=0.88
0.4856236872912225
% es.Ez (V/m) @ t=0.88
-1.1378786895678976
% es.tEx (V/m) @ t=0.88
-1.2751510343927541
% es.tEy (V/m) @ t=0.88
0
% es.tEz (V/m) @ t=0.88
-1.1378786895679038
% V (V) @ t=0.88
0.018126545382571024
% es.normE (V/m) @ t=0.9
1.8052916093629383
% es.EX (V/m) @ t=0.9
-1.2924210738527437
% es.EY (V/m) @ t=0.9
0.4922023322081084
% es.EZ (V/m) @ t=0.9
-1.153289409527729
% es.tEX (V/m) @ t=0.9
-1.2924210738527484
% es.tEY (V/m) @ t=0.9
0
% es.tEZ (V/m) @ t=0.9
-1.1532894095277229
% es.Ex (V/m) @ t=0.9
-1.2924210738527437
% es.Ey (V/m) @ t=0.9
0.4922023322081084
% es.Ez (V/m) @ t=0.9
-1.153289409527729
% es.tEx (V/m) @ t=0.9
-1.2924210738527484
% es.tEy (V/m) @ t=0.9
0
% es.tEz (V/m) @ t=0.9
-1.1532894095277229
% V (V) @ t=0.9
0.018372002202834213
% es.normE (V/m) @ t=0.92
1.8296662961755639
% es.EX (V/m) @ t=0.92
-1.3098707543635446
% es.EY (V/m) @ t=0.92
0.49884959846615695
% es.EZ (V/m) @ t=0.92
-1.1688604098788486
% es.tEX (V/m) @ t=0.92
-1.3098707543635504
% es.tEY (V/m) @ t=0.92
0
% es.tEZ (V/m) @ t=0.92
-1.1688604098788495
% es.Ex (V/m) @ t=0.92
-1.3098707543635446
% es.Ey (V/m) @ t=0.92
0.49884959846615695
% es.Ez (V/m) @ t=0.92
-1.1688604098788486
% es.tEx (V/m) @ t=0.92
-1.3098707543635504
% es.tEy (V/m) @ t=0.92
0
% es.tEz (V/m) @ t=0.92
-1.1688604098788495
% V (V) @ t=0.92
0.018620007369680197
% es.normE (V/m) @ t=0.94
1.854291964835481
% es.EX (V/m) @ t=0.94
-1.3275000759252062
% es.EY (V/m) @ t=0.94
0.5055654860653385
% es.EZ (V/m) @ t=0.94
-1.1845916906213914
% es.tEX (V/m) @ t=0.94
-1.3275000759252125
% es.tEY (V/m) @ t=0.94
0
% es.tEZ (V/m) @ t=0.94
-1.1845916906213816
% es.Ex (V/m) @ t=0.94
-1.3275000759252062
% es.Ey (V/m) @ t=0.94
0.5055654860653385
% es.Ez (V/m) @ t=0.94
-1.1845916906213914
% es.tEx (V/m) @ t=0.94
-1.3275000759252125
% es.tEy (V/m) @ t=0.94
0
% es.tEz (V/m) @ t=0.94
-1.1845916906213816
% V (V) @ t=0.94
0.018870560883108987
% es.normE (V/m) @ t=0.96
1.879168615343454
% es.EX (V/m) @ t=0.96
-1.3453090385376707
% es.EY (V/m) @ t=0.96
0.5123499950057031
% es.EZ (V/m) @ t=0.96
-1.2004832517552373
% es.tEX (V/m) @ t=0.96
-1.3453090385376658
% es.tEY (V/m) @ t=0.96
0
% es.tEZ (V/m) @ t=0.96
-1.2004832517552462
% es.Ex (V/m) @ t=0.96
-1.3453090385376707
% es.Ey (V/m) @ t=0.96
0.5123499950057031
% es.Ez (V/m) @ t=0.96
-1.2004832517552373
% es.tEx (V/m) @ t=0.96
-1.3453090385376658
% es.tEy (V/m) @ t=0.96
0
% es.tEz (V/m) @ t=0.96
-1.2004832517552462
% V (V) @ t=0.96
0.01912366274312058
% es.normE (V/m) @ t=0.98
1.9042962477004646
% es.EX (V/m) @ t=0.98
-1.3632976422009797
% es.EY (V/m) @ t=0.98
0.5192031252871785
% es.EZ (V/m) @ t=0.98
-1.216535093280469
% es.tEX (V/m) @ t=0.98
-1.3632976422009726
% es.tEY (V/m) @ t=0.98
0
% es.tEZ (V/m) @ t=0.98
-1.216535093280461
% es.Ex (V/m) @ t=0.98
-1.3632976422009797
% es.Ey (V/m) @ t=0.98
0.5192031252871785
% es.Ez (V/m) @ t=0.98
-1.216535093280469
% es.tEx (V/m) @ t=0.98
-1.3632976422009726
% es.tEy (V/m) @ t=0.98
0
% es.tEz (V/m) @ t=0.98
-1.216535093280461
% V (V) @ t=0.98
0.019379312949714976
% es.normE (V/m) @ t=1
1.9296748619074804
% es.EX (V/m) @ t=1
-1.381465886915128
% es.EY (V/m) @ t=1
0.5261248769098663
% es.EZ (V/m) @ t=1
-1.2327472151970325
% es.tEX (V/m) @ t=1
-1.3814658869151186
% es.tEY (V/m) @ t=1
0
% es.tEZ (V/m) @ t=1
-1.2327472151970387
% es.Ex (V/m) @ t=1
-1.381465886915128
% es.Ey (V/m) @ t=1
0.5261248769098663
% es.Ez (V/m) @ t=1
-1.2327472151970325
% es.tEx (V/m) @ t=1
-1.3814658869151186
% es.tEy (V/m) @ t=1
0
% es.tEz (V/m) @ t=1
-1.2327472151970387
% V (V) @ t=1
0.019637511502892172
% es.normE (V/m) @ t=1.02
1.9553044579655163
% es.EX (V/m) @ t=1.02
-1.3998137726801203
% es.EY (V/m) @ t=1.02
0.5331152498736964
% es.EZ (V/m) @ t=1.02
-1.2491196175049515
% es.tEX (V/m) @ t=1.02
-1.3998137726801172
% es.tEY (V/m) @ t=1.02
0
% es.tEZ (V/m) @ t=1.02
-1.249119617504956
% es.Ex (V/m) @ t=1.02
-1.3998137726801203
% es.Ey (V/m) @ t=1.02
0.5331152498736964
% es.Ez (V/m) @ t=1.02
-1.2491196175049515
% es.tEx (V/m) @ t=1.02
-1.3998137726801172
% es.tEy (V/m) @ t=1.02
0
% es.tEz (V/m) @ t=1.02
-1.249119617504956
% V (V) @ t=1.02
0.01989825840265217
% es.normE (V/m) @ t=1.04
1.9811850358755871