% Model:              1 neuron.mph
% Version:            COMSOL 6.1.0.252
% Date:               Mar 18 2023, 13:56
% Dimension:          0
% Nodes:              14017
% Expressions:        14017
% Description:        Electric field norm, Electric field, X component, Electric field, Y component, Electric field, Z component, Tangential electric field, X component, Tangential electric field, Y component, Tangential electric field, Z component, Electric field, x component, Electric field, y component, Electric field, z component, Tangential electric field, x component, Tangential electric field, y component, Tangential electric field, z component, Electric potential
% Length unit:        mm
% x
1.66
% y
12.2
% z
2
% es.normE (V/m) @ t=0
4.123484970041142
% es.EX (V/m) @ t=0
-1.230127998793964
% es.EY (V/m) @ t=0
0.09188662878316961
% es.EZ (V/m) @ t=0
-3.92802910017459
% es.tEX (V/m) @ t=0
-1.2301279987939822
% es.tEY (V/m) @ t=0
0
% es.tEZ (V/m) @ t=0
-3.928029100174628
% es.Ex (V/m) @ t=0
-1.230127998793964
% es.Ey (V/m) @ t=0
0.09188662878316961
% es.Ez (V/m) @ t=0
-3.92802910017459
% es.tEx (V/m) @ t=0
-1.2301279987939822
% es.tEy (V/m) @ t=0
0
% es.tEz (V/m) @ t=0
-3.928029100174628
% V (V) @ t=0
0.020726268110732176
% es.normE (V/m) @ t=0.02
3.864419286846472
% es.EX (V/m) @ t=0.02
-1.1528418923687642
% es.EY (V/m) @ t=0.02
0.08611322146653816
% es.EZ (V/m) @ t=0.02
-3.681243628198766
% es.tEX (V/m) @ t=0.02
-1.1528418923687767
% es.tEY (V/m) @ t=0.02
0
% es.tEZ (V/m) @ t=0.02
-3.6812436281988017
% es.Ex (V/m) @ t=0.02
-1.1528418923687642
% es.Ey (V/m) @ t=0.02
0.08611322146653816
% es.Ez (V/m) @ t=0.02
-3.681243628198766
% es.tEx (V/m) @ t=0.02
-1.1528418923687767
% es.tEy (V/m) @ t=0.02
0
% es.tEz (V/m) @ t=0.02
-3.6812436281988017
% V (V) @ t=0.02
0.019424159163951755
% es.normE (V/m) @ t=0.04
3.9207057106798535
% es.EX (V/m) @ t=0.04
-1.16963338100255
% es.EY (V/m) @ t=0.04
0.08736748766659377
% es.EZ (V/m) @ t=0.04
-3.7348620432412982
% es.tEX (V/m) @ t=0.04
-1.169633381002555
% es.tEY (V/m) @ t=0.04
0
% es.tEZ (V/m) @ t=0.04
-3.734862043241323
% es.Ex (V/m) @ t=0.04
-1.16963338100255
% es.Ey (V/m) @ t=0.04
0.08736748766659377
% es.Ez (V/m) @ t=0.04
-3.7348620432412982
% es.tEx (V/m) @ t=0.04
-1.169633381002555
% es.tEy (V/m) @ t=0.04
0
% es.tEz (V/m) @ t=0.04
-3.734862043241323
% V (V) @ t=0.04
0.01970707777396859
% es.normE (V/m) @ t=0.06
3.9777353755244453
% es.EX (V/m) @ t=0.06
-1.1866465940837507
% es.EY (V/m) @ t=0.06
0.08863831544311737
% es.EZ (V/m) @ t=0.06
-3.7891884695261506
% es.tEX (V/m) @ t=0.06
-1.1866465940837614
% es.tEY (V/m) @ t=0.06
0
% es.tEZ (V/m) @ t=0.06
-3.7891884695261844
% es.Ex (V/m) @ t=0.06
-1.1866465940837507
% es.Ey (V/m) @ t=0.06
0.08863831544311737
% es.Ez (V/m) @ t=0.06
-3.7891884695261506
% es.tEx (V/m) @ t=0.06
-1.1866465940837614
% es.tEy (V/m) @ t=0.06
0
% es.tEz (V/m) @ t=0.06
-3.7891884695261844
% V (V) @ t=0.06
0.019993732266976864
% es.normE (V/m) @ t=0.08
4.036098537979607
% es.EX (V/m) @ t=0.08
-1.204057620750952
% es.EY (V/m) @ t=0.08
0.0899388601523484
% es.EZ (V/m) @ t=0.08
-3.844785184254879
% es.tEX (V/m) @ t=0.08
-1.2040576207509517
% es.tEY (V/m) @ t=0.08
0
% es.tEZ (V/m) @ t=0.08
-3.844785184254933
% es.Ex (V/m) @ t=0.08
-1.204057620750952
% es.Ey (V/m) @ t=0.08
0.0899388601523484
% es.Ez (V/m) @ t=0.08
-3.844785184254879
% es.tEx (V/m) @ t=0.08
-1.2040576207509517
% es.tEy (V/m) @ t=0.08
0
% es.tEz (V/m) @ t=0.08
-3.844785184254933
% V (V) @ t=0.08
0.02028708936198802
% es.normE (V/m) @ t=0.1
4.094461700434815
% es.EX (V/m) @ t=0.1
-1.2214686474181884
% es.EY (V/m) @ t=0.1
0.09123940486159773
% es.EZ (V/m) @ t=0.1
-3.9003818989836514
% es.tEX (V/m) @ t=0.1
-1.221468647418206
% es.tEY (V/m) @ t=0.1
0
% es.tEZ (V/m) @ t=0.1
-3.9003818989836834
% es.Ex (V/m) @ t=0.1
-1.2214686474181884
% es.Ey (V/m) @ t=0.1
0.09123940486159773
% es.Ez (V/m) @ t=0.1
-3.9003818989836514
% es.tEx (V/m) @ t=0.1
-1.221468647418206
% es.tEy (V/m) @ t=0.1
0
% es.tEz (V/m) @ t=0.1
-3.9003818989836834
% V (V) @ t=0.1
0.02058044645699917
% es.normE (V/m) @ t=0.12
4.154539409364848
% es.EX (V/m) @ t=0.12
-1.2393911973712322
% es.EY (V/m) @ t=0.12
0.09257819869985909
% es.EZ (V/m) @ t=0.12
-3.9576118761823125
% es.tEX (V/m) @ t=0.12
-1.2393911973712335
% es.tEY (V/m) @ t=0.12
0
% es.tEZ (V/m) @ t=0.12
-3.9576118761823373
% es.Ex (V/m) @ t=0.12
-1.2393911973712322
% es.Ey (V/m) @ t=0.12
0.09257819869985909
% es.Ez (V/m) @ t=0.12
-3.9576118761823125
% es.tEx (V/m) @ t=0.12
-1.2393911973712335
% es.tEy (V/m) @ t=0.12
0
% es.tEz (V/m) @ t=0.12
-3.9576118761823373
% V (V) @ t=0.12
0.020882419290063806
% es.normE (V/m) @ t=0.14
4.216495174777265
% es.EX (V/m) @ t=0.14
-1.2578740527094077
% es.EY (V/m) @ t=0.14
0.09395888934621324
% es.EZ (V/m) @ t=0.14
-4.016630874101044
% es.tEX (V/m) @ t=0.14
-1.2578740527094112
% es.tEY (V/m) @ t=0.14
0
% es.tEZ (V/m) @ t=0.14
-4.016630874101091
% es.Ex (V/m) @ t=0.14
-1.2578740527094077
% es.Ey (V/m) @ t=0.14
0.09395888934621324
% es.Ez (V/m) @ t=0.14
-4.016630874101044
% es.tEx (V/m) @ t=0.14
-1.2578740527094112
% es.tEy (V/m) @ t=0.14
0
% es.tEz (V/m) @ t=0.14
-4.016630874101091
% V (V) @ t=0.14
0.021193829512513748
% es.normE (V/m) @ t=0.16
4.278450940189764
% es.EX (V/m) @ t=0.16
-1.276356908047565
% es.EY (V/m) @ t=0.16
0.09533957999258127
% es.EZ (V/m) @ t=0.16
-4.075649872019861
% es.tEX (V/m) @ t=0.16
-1.2763569080475747
% es.tEY (V/m) @ t=0.16
0
% es.tEZ (V/m) @ t=0.16
-4.075649872019881
% es.Ex (V/m) @ t=0.16
-1.276356908047565
% es.Ey (V/m) @ t=0.16
0.09533957999258127
% es.Ez (V/m) @ t=0.16
-4.075649872019861
% es.tEx (V/m) @ t=0.16
-1.2763569080475747
% es.tEy (V/m) @ t=0.16
0
% es.tEz (V/m) @ t=0.16
-4.075649872019881
% V (V) @ t=0.16
0.021505239734963686
% es.normE (V/m) @ t=0.18
4.340406705602196
% es.EX (V/m) @ t=0.18
-1.2948397633857138
% es.EY (V/m) @ t=0.18
0.0967202706389288
% es.EZ (V/m) @ t=0.18
-4.134668869938608
% es.tEX (V/m) @ t=0.18
-1.294839763385724
% es.tEY (V/m) @ t=0.18
0
% es.tEZ (V/m) @ t=0.18
-4.134668869938645
% es.Ex (V/m) @ t=0.18
-1.2948397633857138
% es.Ey (V/m) @ t=0.18
0.0967202706389288
% es.Ez (V/m) @ t=0.18
-4.134668869938608
% es.tEx (V/m) @ t=0.18
-1.294839763385724
% es.tEy (V/m) @ t=0.18
0
% es.tEz (V/m) @ t=0.18
-4.134668869938645
% V (V) @ t=0.18
0.021816649957413628
% es.normE (V/m) @ t=0.2
4.402362471014646
% es.EX (V/m) @ t=0.2
-1.3133226187238698
% es.EY (V/m) @ t=0.2
0.09810096128532159
% es.EZ (V/m) @ t=0.2
-4.193687867857367
% es.tEX (V/m) @ t=0.2
-1.3133226187238805
% es.tEY (V/m) @ t=0.2
0
% es.tEZ (V/m) @ t=0.2
-4.193687867857408
% es.Ex (V/m) @ t=0.2
-1.3133226187238698
% es.Ey (V/m) @ t=0.2
0.09810096128532159
% es.Ez (V/m) @ t=0.2
-4.193687867857367
% es.tEx (V/m) @ t=0.2
-1.3133226187238805
% es.tEy (V/m) @ t=0.2
0
% es.tEz (V/m) @ t=0.2
-4.193687867857408
% V (V) @ t=0.2
0.022128060179863573
% es.normE (V/m) @ t=0.22
4.464318236427145
% es.EX (V/m) @ t=0.22
-1.3318054740620415
% es.EY (V/m) @ t=0.22
0.09948165193168296
% es.EZ (V/m) @ t=0.22
-4.252706865776171
% es.tEX (V/m) @ t=0.22
-1.331805474062051
% es.tEY (V/m) @ t=0.22
0
% es.tEZ (V/m) @ t=0.22
-4.252706865776188
% es.Ex (V/m) @ t=0.22
-1.3318054740620415
% es.Ey (V/m) @ t=0.22
0.09948165193168296
% es.Ez (V/m) @ t=0.22
-4.252706865776171
% es.tEx (V/m) @ t=0.22
-1.331805474062051
% es.tEy (V/m) @ t=0.22
0
% es.tEz (V/m) @ t=0.22
-4.252706865776188
% V (V) @ t=0.22
0.022439470402313512
% es.normE (V/m) @ t=0.24
4.52973844075042
% es.EX (V/m) @ t=0.24
-1.3513217971364067
% es.EY (V/m) @ t=0.24
0.1009394847802497
% es.EZ (V/m) @ t=0.24
-4.315026105242103
% es.tEX (V/m) @ t=0.24
-1.351321797136407
% es.tEY (V/m) @ t=0.24
0
% es.tEZ (V/m) @ t=0.24
-4.315026105242119
% es.Ex (V/m) @ t=0.24
-1.3513217971364067
% es.Ey (V/m) @ t=0.24
0.1009394847802497
% es.Ez (V/m) @ t=0.24
-4.315026105242103
% es.tEx (V/m) @ t=0.24
-1.351321797136407
% es.tEy (V/m) @ t=0.24
0
% es.tEz (V/m) @ t=0.24
-4.315026105242119
% V (V) @ t=0.24
0.02276829752899418
% es.normE (V/m) @ t=0.26
4.595310102344401
% es.EX (V/m) @ t=0.26
-1.3708833010342096
% es.EY (V/m) @ t=0.26
0.10240069010782224
% es.EZ (V/m) @ t=0.26
-4.377489623649087
% es.tEX (V/m) @ t=0.26
-1.3708833010342119
% es.tEY (V/m) @ t=0.26
0
% es.tEZ (V/m) @ t=0.26
-4.377489623649135
% es.Ex (V/m) @ t=0.26
-1.3708833010342096
% es.Ey (V/m) @ t=0.26
0.10240069010782224
% es.Ez (V/m) @ t=0.26
-4.377489623649087
% es.tEx (V/m) @ t=0.26
-1.3708833010342119
% es.tEy (V/m) @ t=0.26
0
% es.tEz (V/m) @ t=0.26
-4.377489623649135
% V (V) @ t=0.26
0.023097886082516762
% es.normE (V/m) @ t=0.28
4.660881763938399
% es.EX (V/m) @ t=0.28
-1.3904448049320033
% es.EY (V/m) @ t=0.28
0.10386189543535229
% es.EZ (V/m) @ t=0.28
-4.439953142056089
% es.tEX (V/m) @ t=0.28
-1.3904448049320166
% es.tEY (V/m) @ t=0.28
0
% es.tEZ (V/m) @ t=0.28
-4.439953142056124
% es.Ex (V/m) @ t=0.28
-1.3904448049320033
% es.Ey (V/m) @ t=0.28
0.10386189543535229
% es.Ez (V/m) @ t=0.28
-4.439953142056089
% es.tEx (V/m) @ t=0.28
-1.3904448049320166
% es.tEy (V/m) @ t=0.28
0
% es.tEz (V/m) @ t=0.28
-4.439953142056124
% V (V) @ t=0.28
0.02342747463603934
% es.normE (V/m) @ t=0.3
4.726453425532378
% es.EX (V/m) @ t=0.3
-1.4100063088297916
% es.EY (V/m) @ t=0.3
0.10532310076291487
% es.EZ (V/m) @ t=0.3
-4.502416660463075
% es.tEX (V/m) @ t=0.3
-1.4100063088298072
% es.tEY (V/m) @ t=0.3
0
% es.tEZ (V/m) @ t=0.3
-4.502416660463123
% es.Ex (V/m) @ t=0.3
-1.4100063088297916
% es.Ey (V/m) @ t=0.3
0.10532310076291487
% es.Ez (V/m) @ t=0.3
-4.502416660463075
% es.tEx (V/m) @ t=0.3
-1.4100063088298072
% es.tEy (V/m) @ t=0.3
0
% es.tEz (V/m) @ t=0.3
-4.502416660463123
% V (V) @ t=0.3
0.023757063189561917
% es.normE (V/m) @ t=0.32
4.792025087126364
% es.EX (V/m) @ t=0.32
-1.429567812727598
% es.EY (V/m) @ t=0.32
0.10678430609043382
% es.EZ (V/m) @ t=0.32
-4.564880178870061
% es.tEX (V/m) @ t=0.32
-1.429567812727619
% es.tEY (V/m) @ t=0.32
0
% es.tEZ (V/m) @ t=0.32
-4.564880178870112
% es.Ex (V/m) @ t=0.32
-1.429567812727598
% es.Ey (V/m) @ t=0.32
0.10678430609043382
% es.Ez (V/m) @ t=0.32
-4.564880178870061
% es.tEx (V/m) @ t=0.32
-1.429567812727619
% es.tEy (V/m) @ t=0.32
0
% es.tEz (V/m) @ t=0.32
-4.564880178870112
% V (V) @ t=0.32
0.024086651743084497
% es.normE (V/m) @ t=0.34
4.86076112804289
% es.EX (V/m) @ t=0.34
-1.4500738472441945
% es.EY (V/m) @ t=0.34
0.1083165587633528
% es.EZ (V/m) @ t=0.34
-4.630357891633233
% es.tEX (V/m) @ t=0.34
-1.4500738472442123
% es.tEY (V/m) @ t=0.34
0
% es.tEZ (V/m) @ t=0.34
-4.630357891633279
% es.Ex (V/m) @ t=0.34
-1.4500738472441945
% es.Ey (V/m) @ t=0.34
0.1083165587633528
% es.Ez (V/m) @ t=0.34
-4.630357891633233
% es.tEx (V/m) @ t=0.34
-1.4500738472442123
% es.tEy (V/m) @ t=0.34
0
% es.tEz (V/m) @ t=0.34
-4.630357891633279
% V (V) @ t=0.34
0.024432113412725904
% es.normE (V/m) @ t=0.36
4.933541214542861
% es.EX (V/m) @ t=0.36
-1.4717869825813965
% es.EY (V/m) @ t=0.36
0.10993960924324134
% es.EZ (V/m) @ t=0.36
-4.699687715072704
% es.tEX (V/m) @ t=0.36
-1.4717869825814063
% es.tEY (V/m) @ t=0.36
0
% es.tEZ (V/m) @ t=0.36
-4.699687715072747
% es.Ex (V/m) @ t=0.36
-1.4717869825813965
% es.Ey (V/m) @ t=0.36
0.10993960924324134
% es.Ez (V/m) @ t=0.36
-4.699687715072704
% es.tEx (V/m) @ t=0.36
-1.4717869825814063
% es.tEy (V/m) @ t=0.36
0
% es.tEz (V/m) @ t=0.36
-4.699687715072747
% V (V) @ t=0.36
0.02479786076830585
% es.normE (V/m) @ t=0.38
5.0063213010434655
% es.EX (V/m) @ t=0.38
-1.4935001179185683
% es.EY (V/m) @ t=0.38
0.11156265972316579
% es.EZ (V/m) @ t=0.38
-4.7690175385121325
% es.tEX (V/m) @ t=0.38
-1.493500117918579
% es.tEY (V/m) @ t=0.38
0
% es.tEZ (V/m) @ t=0.38
-4.769017538512182
% es.Ex (V/m) @ t=0.38
-1.4935001179185683
% es.Ey (V/m) @ t=0.38
0.11156265972316579
% es.Ez (V/m) @ t=0.38
-4.7690175385121325
% es.tEx (V/m) @ t=0.38
-1.493500117918579
% es.tEy (V/m) @ t=0.38
0
% es.tEz (V/m) @ t=0.38
-4.769017538512182
% V (V) @ t=0.38
0.025163608123885805
% es.normE (V/m) @ t=0.4
5.079101387544808
% es.EX (V/m) @ t=0.4
-1.5152132532557898
% es.EY (V/m) @ t=0.4
0.11318571020304277
% es.EZ (V/m) @ t=0.4
-4.838347361951632
% es.tEX (V/m) @ t=0.4
-1.5152132532557872
% es.tEY (V/m) @ t=0.4
0
% es.tEZ (V/m) @ t=0.4
-4.838347361951678
% es.Ex (V/m) @ t=0.4
-1.5152132532557898
% es.Ey (V/m) @ t=0.4
0.11318571020304277
% es.Ez (V/m) @ t=0.4
-4.838347361951632
% es.tEx (V/m) @ t=0.4
-1.5152132532557872
% es.tEy (V/m) @ t=0.4
0
% es.tEz (V/m) @ t=0.4
-4.838347361951678
% V (V) @ t=0.4
0.025529355479465755
% es.normE (V/m) @ t=0.42
5.151881474046716
% es.EX (V/m) @ t=0.42
-1.536926388592983
% es.EY (V/m) @ t=0.42
0.11480876068294282
% es.EZ (V/m) @ t=0.42
-4.907677185391075
% es.tEX (V/m) @ t=0.42
-1.5369263885929882
% es.tEY (V/m) @ t=0.42
0
% es.tEZ (V/m) @ t=0.42
-4.907677185391101
% es.Ex (V/m) @ t=0.42
-1.536926388592983
% es.Ey (V/m) @ t=0.42
0.11480876068294282
% es.Ez (V/m) @ t=0.42
-4.907677185391075
% es.tEx (V/m) @ t=0.42
-1.5369263885929882
% es.tEy (V/m) @ t=0.42
0
% es.tEz (V/m) @ t=0.42
-4.907677185391101
% V (V) @ t=0.42
0.02589510283504571
% es.normE (V/m) @ t=0.44
5.22466156054922
% es.EX (V/m) @ t=0.44
-1.5586395239301656
% es.EY (V/m) @ t=0.44
0.11643181116285223
% es.EZ (V/m) @ t=0.44
-4.977007008830517
% es.tEX (V/m) @ t=0.44
-1.558639523930168
% es.tEY (V/m) @ t=0.44
0
% es.tEZ (V/m) @ t=0.44
-4.977007008830583
% es.Ex (V/m) @ t=0.44
-1.5586395239301656
% es.Ey (V/m) @ t=0.44
0.11643181116285223
% es.Ez (V/m) @ t=0.44
-4.977007008830517
% es.tEx (V/m) @ t=0.44
-1.558639523930168
% es.tEy (V/m) @ t=0.44
0
% es.tEz (V/m) @ t=0.44
-4.977007008830583
% V (V) @ t=0.44
0.026260850190625656
% es.normE (V/m) @ t=0.46
5.297441647052315
% es.EX (V/m) @ t=0.46
-1.5803526592673571
% es.EY (V/m) @ t=0.46
0.11805486164274062
% es.EZ (V/m) @ t=0.46
-5.046336832269972
% es.tEX (V/m) @ t=0.46
-1.580352659267362
% es.tEY (V/m) @ t=0.46
0
% es.tEZ (V/m) @ t=0.46
-5.046336832270004
% es.Ex (V/m) @ t=0.46
-1.5803526592673571
% es.Ey (V/m) @ t=0.46
0.11805486164274062
% es.Ez (V/m) @ t=0.46
-5.046336832269972
% es.tEx (V/m) @ t=0.46
-1.580352659267362
% es.tEy (V/m) @ t=0.46
0
% es.tEz (V/m) @ t=0.46
-5.046336832270004
% V (V) @ t=0.46
0.026626597546205614
% es.normE (V/m) @ t=0.48
5.3702217335559705
% es.EX (V/m) @ t=0.48
-1.6020657946045647
% es.EY (V/m) @ t=0.48
0.11967791212263271
% es.EZ (V/m) @ t=0.48
-5.115666655709429
% es.tEX (V/m) @ t=0.48
-1.6020657946045702
% es.tEY (V/m) @ t=0.48
0
% es.tEZ (V/m) @ t=0.48
-5.115666655709486
% es.Ex (V/m) @ t=0.48
-1.6020657946045647
% es.Ey (V/m) @ t=0.48
0.11967791212263271
% es.Ez (V/m) @ t=0.48
-5.115666655709429
% es.tEx (V/m) @ t=0.48
-1.6020657946045702
% es.tEy (V/m) @ t=0.48
0
% es.tEz (V/m) @ t=0.48
-5.115666655709486
% V (V) @ t=0.48
0.026992344901785557
% es.normE (V/m) @ t=0.5
5.443001820060151
% es.EX (V/m) @ t=0.5
-1.6237789299417509
% es.EY (V/m) @ t=0.5
0.12130096260255716
% es.EZ (V/m) @ t=0.5
-5.184996479148886
% es.tEX (V/m) @ t=0.5
-1.6237789299417784
% es.tEY (V/m) @ t=0.5
0
% es.tEZ (V/m) @ t=0.5
-5.184996479148936
% es.Ex (V/m) @ t=0.5
-1.6237789299417509
% es.Ey (V/m) @ t=0.5
0.12130096260255716
% es.Ez (V/m) @ t=0.5
-5.184996479148886
% es.tEx (V/m) @ t=0.5
-1.6237789299417784
% es.tEy (V/m) @ t=0.5
0
% es.tEz (V/m) @ t=0.5
-5.184996479148936
% V (V) @ t=0.5
0.02735809225736551
% es.normE (V/m) @ t=0.52
5.515781906564827
% es.EX (V/m) @ t=0.52
-1.6454920652789495
% es.EY (V/m) @ t=0.52
0.1229240130824314
% es.EZ (V/m) @ t=0.52
-5.254326302588327
% es.tEX (V/m) @ t=0.52
-1.645492065278944
% es.tEY (V/m) @ t=0.52
0
% es.tEZ (V/m) @ t=0.52
-5.254326302588389
% es.Ex (V/m) @ t=0.52
-1.6454920652789495
% es.Ey (V/m) @ t=0.52
0.1229240130824314
% es.Ez (V/m) @ t=0.52
-5.254326302588327
% es.tEx (V/m) @ t=0.52
-1.645492065278944
% es.tEy (V/m) @ t=0.52
0
% es.tEz (V/m) @ t=0.52
-5.254326302588389
% V (V) @ t=0.52
0.027723839612945465
% es.normE (V/m) @ t=0.54
5.588561993070007
% es.EX (V/m) @ t=0.54
-1.6672052006161446
% es.EY (V/m) @ t=0.54
0.12454706356234882
% es.EZ (V/m) @ t=0.54
-5.3236561260277835
% es.tEX (V/m) @ t=0.54
-1.667205200616138
% es.tEY (V/m) @ t=0.54
0
% es.tEZ (V/m) @ t=0.54
-5.323656126027842
% es.Ex (V/m) @ t=0.54
-1.6672052006161446
% es.Ey (V/m) @ t=0.54
0.12454706356234882
% es.Ez (V/m) @ t=0.54
-5.3236561260277835
% es.tEx (V/m) @ t=0.54
-1.667205200616138
% es.tEy (V/m) @ t=0.54
0
% es.tEz (V/m) @ t=0.54
-5.323656126027842
% V (V) @ t=0.54
0.028089586968525416
% es.normE (V/m) @ t=0.56
5.663646162187584
% es.EX (V/m) @ t=0.56
-1.6896053375049895
% es.EY (V/m) @ t=0.56
0.12622120710217413
% es.EZ (V/m) @ t=0.56
-5.395180939993429
% es.tEX (V/m) @ t=0.56
-1.6896053375050144
% es.tEY (V/m) @ t=0.56
0
% es.tEZ (V/m) @ t=0.56
-5.3951809399934625
% es.Ex (V/m) @ t=0.56
-1.6896053375049895
% es.Ey (V/m) @ t=0.56
0.12622120710217413
% es.Ez (V/m) @ t=0.56
-5.395180939993429
% es.tEx (V/m) @ t=0.56
-1.6896053375050144
% es.tEy (V/m) @ t=0.56
0
% es.tEz (V/m) @ t=0.56
-5.3951809399934625
% V (V) @ t=0.56
0.028466936753778073
% es.normE (V/m) @ t=0.58
5.742176056604353
% es.EX (V/m) @ t=0.58
-1.713032876195724
% es.EY (V/m) @ t=0.58
0.1279717596424031
% es.EZ (V/m) @ t=0.58
-5.469988333475971
% es.tEX (V/m) @ t=0.58
-1.71303287619574
% es.tEY (V/m) @ t=0.58
0
% es.tEZ (V/m) @ t=0.58
-5.469988333476046
% es.Ex (V/m) @ t=0.58
-1.713032876195724
% es.Ey (V/m) @ t=0.58
0.1279717596424031
% es.Ez (V/m) @ t=0.58
-5.469988333475971
% es.tEx (V/m) @ t=0.58
-1.71303287619574
% es.tEy (V/m) @ t=0.58
0
% es.tEz (V/m) @ t=0.58
-5.469988333476046
% V (V) @ t=0.58
0.028861637820294384
% es.normE (V/m) @ t=0.6
5.82070595102126
% es.EX (V/m) @ t=0.6
-1.7364604148864475
% es.EY (V/m) @ t=0.6
0.1297223121826392
% es.EZ (V/m) @ t=0.6
-5.544795726958613
% es.tEX (V/m) @ t=0.6
-1.7364604148864515
% es.tEY (V/m) @ t=0.6
0
% es.tEZ (V/m) @ t=0.6
-5.544795726958661
% es.Ex (V/m) @ t=0.6
-1.7364604148864475
% es.Ey (V/m) @ t=0.6
0.1297223121826392
% es.Ez (V/m) @ t=0.6
-5.544795726958613
% es.tEx (V/m) @ t=0.6
-1.7364604148864515
% es.tEy (V/m) @ t=0.6
0
% es.tEz (V/m) @ t=0.6
-5.544795726958661
% V (V) @ t=0.6
0.029256338886810684
% es.normE (V/m) @ t=0.62
5.899235845438154
% es.EX (V/m) @ t=0.62
-1.7598879535771572
% es.EY (V/m) @ t=0.62
0.1314728647228504
% es.EZ (V/m) @ t=0.62
-5.6196031204412
% es.tEX (V/m) @ t=0.62
-1.7598879535771914
% es.tEY (V/m) @ t=0.62
0
% es.tEZ (V/m) @ t=0.62
-5.619603120441244
% es.Ex (V/m) @ t=0.62
-1.7598879535771572
% es.Ey (V/m) @ t=0.62
0.1314728647228504
% es.Ez (V/m) @ t=0.62
-5.6196031204412
% es.tEx (V/m) @ t=0.62
-1.7598879535771914
% es.tEy (V/m) @ t=0.62
0
% es.tEz (V/m) @ t=0.62
-5.619603120441244
% V (V) @ t=0.62
0.029651039953326987
% es.normE (V/m) @ t=0.64
5.977765739855094
% es.EX (V/m) @ t=0.64
-1.7833154922678847
% es.EY (V/m) @ t=0.64
0.13322341726310422
% es.EZ (V/m) @ t=0.64
-5.694410513923783
% es.tEX (V/m) @ t=0.64
-1.7833154922678887
% es.tEY (V/m) @ t=0.64
0
% es.tEZ (V/m) @ t=0.64
-5.694410513923859
% es.Ex (V/m) @ t=0.64
-1.7833154922678847
% es.Ey (V/m) @ t=0.64
0.13322341726310422
% es.Ez (V/m) @ t=0.64
-5.694410513923783
% es.tEx (V/m) @ t=0.64
-1.7833154922678887
% es.tEy (V/m) @ t=0.64
0
% es.tEz (V/m) @ t=0.64
-5.694410513923859
% V (V) @ t=0.64
0.030045741019843294
% es.normE (V/m) @ t=0.66
6.056295634272075
% es.EX (V/m) @ t=0.66
-1.806743030958612
% es.EY (V/m) @ t=0.66
0.13497396980330123
% es.EZ (V/m) @ t=0.66
-5.76921790740637
% es.tEX (V/m) @ t=0.66
-1.8067430309586285
% es.tEY (V/m) @ t=0.66
0
% es.tEZ (V/m) @ t=0.66
-5.769217907406443
% es.Ex (V/m) @ t=0.66
-1.806743030958612
% es.Ey (V/m) @ t=0.66
0.13497396980330123
% es.Ez (V/m) @ t=0.66
-5.76921790740637
% es.tEx (V/m) @ t=0.66
-1.8067430309586285
% es.tEy (V/m) @ t=0.66
0
% es.tEz (V/m) @ t=0.66
-5.769217907406443
% V (V) @ t=0.66
0.030440442086359598
% es.normE (V/m) @ t=0.68
6.134825528689094
% es.EX (V/m) @ t=0.68
-1.830170569649332
% es.EY (V/m) @ t=0.68
0.13672452234352664
% es.EZ (V/m) @ t=0.68
-5.844025300888955
% es.tEX (V/m) @ t=0.68
-1.8301705696493542
% es.tEY (V/m) @ t=0.68
0
% es.tEZ (V/m) @ t=0.68
-5.8440253008890295
% es.Ex (V/m) @ t=0.68
-1.830170569649332
% es.Ey (V/m) @ t=0.68
0.13672452234352664
% es.Ez (V/m) @ t=0.68
-5.844025300888955
% es.tEx (V/m) @ t=0.68
-1.8301705696493542
% es.tEy (V/m) @ t=0.68
0
% es.tEz (V/m) @ t=0.68
-5.8440253008890295
% V (V) @ t=0.68
0.030835143152875902
% es.normE (V/m) @ t=0.7
6.213355423106236
% es.EX (V/m) @ t=0.7
-1.8535981083400628
% es.EY (V/m) @ t=0.7
0.13847507488377883
% es.EZ (V/m) @ t=0.7
-5.918832694371625
% es.tEX (V/m) @ t=0.7
-1.8535981083400799
% es.tEY (V/m) @ t=0.7
0
% es.tEZ (V/m) @ t=0.7
-5.918832694371673
% es.Ex (V/m) @ t=0.7
-1.8535981083400628
% es.Ey (V/m) @ t=0.7
0.13847507488377883
% es.Ez (V/m) @ t=0.7
-5.918832694371625
% es.tEx (V/m) @ t=0.7
-1.8535981083400799
% es.tEy (V/m) @ t=0.7
0
% es.tEz (V/m) @ t=0.7
-5.918832694371673
% V (V) @ t=0.7
0.031229844219392216
% es.normE (V/m) @ t=0.72
6.29188531752329
% es.EX (V/m) @ t=0.72
-1.877025647030751
% es.EY (V/m) @ t=0.72
0.14022562742396963
% es.EZ (V/m) @ t=0.72
-5.993640087854182
% es.tEX (V/m) @ t=0.72
-1.877025647030763
% es.tEY (V/m) @ t=0.72
0
% es.tEZ (V/m) @ t=0.72
-5.993640087854224
% es.Ex (V/m) @ t=0.72
-1.877025647030751
% es.Ey (V/m) @ t=0.72
0.14022562742396963
% es.Ez (V/m) @ t=0.72
-5.993640087854182
% es.tEx (V/m) @ t=0.72
-1.877025647030763
% es.tEy (V/m) @ t=0.72
0
% es.tEz (V/m) @ t=0.72
-5.993640087854224
% V (V) @ t=0.72
0.031624545285908516
% es.normE (V/m) @ t=0.74
6.370415211940446
% es.EX (V/m) @ t=0.74
-1.9004531857214781
% es.EY (V/m) @ t=0.74
0.14197617996423056
% es.EZ (V/m) @ t=0.74
-6.068447481336797
% es.tEX (V/m) @ t=0.74
-1.9004531857214886
% es.tEY (V/m) @ t=0.74
0
% es.tEZ (V/m) @ t=0.74
-6.06844748133684
% es.Ex (V/m) @ t=0.74
-1.9004531857214781
% es.Ey (V/m) @ t=0.74
0.14197617996423056
% es.Ez (V/m) @ t=0.74
-6.068447481336797
% es.tEx (V/m) @ t=0.74
-1.9004531857214886
% es.tEy (V/m) @ t=0.74
0
% es.tEz (V/m) @ t=0.74
-6.06844748133684
% V (V) @ t=0.74
0.03201924635242482
% es.normE (V/m) @ t=0.76
6.451025963184529
% es.EX (V/m) @ t=0.76
-1.9245012750266954
% es.EY (V/m) @ t=0.76
0.14377280294605158
% es.EZ (V/m) @ t=0.76
-6.145237181490867
% es.tEX (V/m) @ t=0.76
-1.9245012750267279
% es.tEY (V/m) @ t=0.76
0
% es.tEZ (V/m) @ t=0.76
-6.145237181490902
% es.Ex (V/m) @ t=0.76
-1.9245012750266954
% es.Ey (V/m) @ t=0.76
0.14377280294605158
% es.Ez (V/m) @ t=0.76
-6.145237181490867
% es.tEx (V/m) @ t=0.76
-1.9245012750267279
% es.tEy (V/m) @ t=0.76
0
% es.tEz (V/m) @ t=0.76
-6.145237181490902
% V (V) @ t=0.76
0.03242442046494809
% es.normE (V/m) @ t=0.78
6.534018444620083
% es.EX (V/m) @ t=0.78
-1.9492596410384602
% es.EY (V/m) @ t=0.78
0.14562215774509626
% es.EZ (V/m) @ t=0.78
-6.224295812206176
% es.tEX (V/m) @ t=0.78
-1.9492596410384948
% es.tEY (V/m) @ t=0.78
0
% es.tEZ (V/m) @ t=0.78
-6.224295812206215
% es.Ex (V/m) @ t=0.78
-1.9492596410384602
% es.Ey (V/m) @ t=0.78
0.14562215774509626
% es.Ez (V/m) @ t=0.78
-6.224295812206176
% es.tEx (V/m) @ t=0.78
-1.9492596410384948
% es.tEy (V/m) @ t=0.78
0
% es.tEz (V/m) @ t=0.78
-6.224295812206215
% V (V) @ t=0.78
0.032841581932655295
% es.normE (V/m) @ t=0.8
6.617010926055637
% es.EX (V/m) @ t=0.8
-1.9740180070502005
% es.EY (V/m) @ t=0.8
0.14747151254418445
% es.EZ (V/m) @ t=0.8
-6.303354442921453
% es.tEX (V/m) @ t=0.8
-1.974018007050205
% es.tEY (V/m) @ t=0.8
0
% es.tEZ (V/m) @ t=0.8
-6.303354442921496
% es.Ex (V/m) @ t=0.8
-1.9740180070502005
% es.Ey (V/m) @ t=0.8
0.14747151254418445
% es.Ez (V/m) @ t=0.8
-6.303354442921453
% es.tEx (V/m) @ t=0.8
-1.974018007050205
% es.tEy (V/m) @ t=0.8
0
% es.tEz (V/m) @ t=0.8
-6.303354442921496
% V (V) @ t=0.8
0.03325874340036252
% es.normE (V/m) @ t=0.82
6.700003407491258
% es.EX (V/m) @ t=0.82
-1.9987763730619756
% es.EY (V/m) @ t=0.82
0.14932086734321495
% es.EZ (V/m) @ t=0.82
-6.382413073636762
% es.tEX (V/m) @ t=0.82
-1.998776373061986
% es.tEY (V/m) @ t=0.82
0
% es.tEZ (V/m) @ t=0.82
-6.382413073636837
% es.Ex (V/m) @ t=0.82
-1.9987763730619756
% es.Ey (V/m) @ t=0.82
0.14932086734321495
% es.Ez (V/m) @ t=0.82
-6.382413073636762
% es.tEx (V/m) @ t=0.82
-1.998776373061986
% es.tEy (V/m) @ t=0.82
0
% es.tEz (V/m) @ t=0.82
-6.382413073636837
% V (V) @ t=0.82
0.03367590486806973
% es.normE (V/m) @ t=0.84
6.782995888926909
% es.EX (V/m) @ t=0.84
-2.0235347390737224
% es.EY (V/m) @ t=0.84
0.15117022214228096
% es.EZ (V/m) @ t=0.84
-6.461471704352071
% es.tEX (V/m) @ t=0.84
-2.023534739073739
% es.tEY (V/m) @ t=0.84
0
% es.tEZ (V/m) @ t=0.84
-6.461471704352142
% es.Ex (V/m) @ t=0.84
-2.0235347390737224
% es.Ey (V/m) @ t=0.84
0.15117022214228096
% es.Ez (V/m) @ t=0.84
-6.461471704352071
% es.tEx (V/m) @ t=0.84
-2.023534739073739
% es.tEy (V/m) @ t=0.84
0
% es.tEz (V/m) @ t=0.84
-6.461471704352142
% V (V) @ t=0.84
0.03409306633577694
% es.normE (V/m) @ t=0.86
6.865988370362626
% es.EX (V/m) @ t=0.86
-2.0482931050855084
% es.EY (V/m) @ t=0.86
0.15301957694131954
% es.EZ (V/m) @ t=0.86
-6.540530335067407
% es.tEX (V/m) @ t=0.86
-2.048293105085534
% es.tEY (V/m) @ t=0.86
0
% es.tEZ (V/m) @ t=0.86
-6.540530335067459
% es.Ex (V/m) @ t=0.86
-2.0482931050855084
% es.Ey (V/m) @ t=0.86
0.15301957694131954
% es.Ez (V/m) @ t=0.86
-6.540530335067407
% es.tEx (V/m) @ t=0.86
-2.048293105085534
% es.tEy (V/m) @ t=0.86
0
% es.tEz (V/m) @ t=0.86
-6.540530335067459
% V (V) @ t=0.86
0.03451022780348416
% es.normE (V/m) @ t=0.88
6.9489808517983
% es.EX (V/m) @ t=0.88
-2.073051471097245
% es.EY (V/m) @ t=0.88
0.15486893174035699
% es.EZ (V/m) @ t=0.88
-6.619588965782686
% es.tEX (V/m) @ t=0.88
-2.073051471097287
% es.tEY (V/m) @ t=0.88
0
% es.tEZ (V/m) @ t=0.88
-6.619588965782768
% es.Ex (V/m) @ t=0.88
-2.073051471097245
% es.Ey (V/m) @ t=0.88
0.15486893174035699
% es.Ez (V/m) @ t=0.88
-6.619588965782686
% es.tEx (V/m) @ t=0.88
-2.073051471097287
% es.tEy (V/m) @ t=0.88
0
% es.tEz (V/m) @ t=0.88
-6.619588965782768
% V (V) @ t=0.88
0.03492738927119137
% es.normE (V/m) @ t=0.9
7.0319733332340135
% es.EX (V/m) @ t=0.9
-2.0978098371089886
% es.EY (V/m) @ t=0.9
0.15671828653941589
% es.EZ (V/m) @ t=0.9
-6.698647596497967
% es.tEX (V/m) @ t=0.9
-2.0978098371090255
% es.tEY (V/m) @ t=0.9
0
% es.tEZ (V/m) @ t=0.9
-6.69864759649802
% es.Ex (V/m) @ t=0.9
-2.0978098371089886
% es.Ey (V/m) @ t=0.9
0.15671828653941589
% es.Ez (V/m) @ t=0.9
-6.698647596497967
% es.tEx (V/m) @ t=0.9
-2.0978098371090255
% es.tEy (V/m) @ t=0.9
0
% es.tEz (V/m) @ t=0.9
-6.69864759649802
% V (V) @ t=0.9
0.0353445507388986
% es.normE (V/m) @ t=0.92
7.114965814669842
% es.EX (V/m) @ t=0.92
-2.1225682031207675
% es.EY (V/m) @ t=0.92
0.1585676413384474
% es.EZ (V/m) @ t=0.92
-6.777706227213331
% es.tEX (V/m) @ t=0.92
-2.1225682031208066
% es.tEY (V/m) @ t=0.92
0
% es.tEZ (V/m) @ t=0.92
-6.777706227213361
% es.Ex (V/m) @ t=0.92
-2.1225682031207675
% es.Ey (V/m) @ t=0.92
0.1585676413384474
% es.Ez (V/m) @ t=0.92
-6.777706227213331
% es.tEx (V/m) @ t=0.92
-2.1225682031208066
% es.tEy (V/m) @ t=0.92
0
% es.tEz (V/m) @ t=0.92
-6.777706227213361
% V (V) @ t=0.92
0.03576171220660581
% es.normE (V/m) @ t=0.94
7.197958296105625
% es.EX (V/m) @ t=0.94
-2.147326569132497
% es.EY (V/m) @ t=0.94
0.16041699613744131
% es.EZ (V/m) @ t=0.94
-6.856764857928638
% es.tEX (V/m) @ t=0.94
-2.1473265691325025
% es.tEY (V/m) @ t=0.94
0
% es.tEZ (V/m) @ t=0.94
-6.856764857928699
% es.Ex (V/m) @ t=0.94
-2.147326569132497
% es.Ey (V/m) @ t=0.94
0.16041699613744131
% es.Ez (V/m) @ t=0.94
-6.856764857928638
% es.tEx (V/m) @ t=0.94
-2.1473265691325025
% es.tEy (V/m) @ t=0.94
0
% es.tEz (V/m) @ t=0.94
-6.856764857928699
% V (V) @ t=0.94
0.03617887367431302
% es.normE (V/m) @ t=0.96
7.282305375389313
% es.EX (V/m) @ t=0.96
-2.172488059976451
% es.EY (V/m) @ t=0.96
0.16229521412321773
% es.EZ (V/m) @ t=0.96
-6.93711425674365
% es.tEX (V/m) @ t=0.96
-2.172488059976473
% es.tEY (V/m) @ t=0.96
0
% es.tEZ (V/m) @ t=0.96
-6.937114256743683
% es.Ex (V/m) @ t=0.96
-2.172488059976451
% es.Ey (V/m) @ t=0.96
0.16229521412321773
% es.Ez (V/m) @ t=0.96
-6.93711425674365
% es.tEx (V/m) @ t=0.96
-2.172488059976473
% es.tEy (V/m) @ t=0.96
0
% es.tEz (V/m) @ t=0.96
-6.937114256743683
% V (V) @ t=0.96
0.03660290668192322
% es.normE (V/m) @ t=0.98
7.367844786101411
% es.EX (V/m) @ t=0.98
-2.1980043855834417
% es.EY (V/m) @ t=0.98
0.16419883779279
% es.EZ (V/m) @ t=0.98
-7.0185998033626
% es.tEX (V/m) @ t=0.98
-2.1980043855834737
% es.tEY (V/m) @ t=0.98
0
% es.tEZ (V/m) @ t=0.98
-7.018599803362626
% es.Ex (V/m) @ t=0.98
-2.1980043855834417
% es.Ey (V/m) @ t=0.98
0.16419883779279
% es.Ez (V/m) @ t=0.98
-7.0185998033626
% es.tEx (V/m) @ t=0.98
-2.1980043855834737
% es.tEy (V/m) @ t=0.98
0
% es.tEz (V/m) @ t=0.98
-7.018599803362626
% V (V) @ t=0.98
0.03703298809200901
% es.normE (V/m) @ t=1
7.453384196815362
% es.EX (V/m) @ t=1
-2.223520711190389
% es.EY (V/m) @ t=1
0.1661024614623115
% es.EZ (V/m) @ t=1
-7.1000853499814625
% es.tEX (V/m) @ t=1
-2.2235207111904316
% es.tEY (V/m) @ t=1
0
% es.tEZ (V/m) @ t=1
-7.100085349981562
% es.Ex (V/m) @ t=1
-2.223520711190389
% es.Ey (V/m) @ t=1
0.1661024614623115
% es.Ez (V/m) @ t=1
-7.1000853499814625
% es.tEx (V/m) @ t=1
-2.2235207111904316
% es.tEy (V/m) @ t=1
0
% es.tEz (V/m) @ t=1
-7.100085349981562
% V (V) @ t=1
0.037463069502094805
% es.normE (V/m) @ t=1.02
7.538923607531261
% es.EX (V/m) @ t=1.02
-2.2490370367973695
% es.EY (V/m) @ t=1.02
0.1680060851319049
% es.EZ (V/m) @ t=1.02
-7.181570896600382
% es.tEX (V/m) @ t=1.02
-2.2490370367973895
% es.tEY (V/m) @ t=1.02
0
% es.tEZ (V/m) @ t=1.02
-7.181570896600423
% es.Ex (V/m) @ t=1.02
-2.2490370367973695
% es.Ey (V/m) @ t=1.02
0.1680060851319049
% es.Ez (V/m) @ t=1.02
-7.181570896600382
% es.tEx (V/m) @ t=1.02
-2.2490370367973895
% es.tEy (V/m) @ t=1.02
0
% es.tEz (V/m) @ t=1.02
-7.181570896600423
% V (V) @ t=1.02
0.037893150912180575
% es.normE (V/m) @ t=1.04
7.624463018249003
% es.EX (V/m) @ t=1.04
-2.2745533624043492
% es.EY (V/m) @ t=1.04
0.16990970880143363
% es.EZ (V/m) @ t=1.04
-7.26305644321933
% es.tEX (V/m) @ t=1.04
-2.274553362404376
% es.tEY (V/m) @ t=1.04
0
% es.tEZ (V/m) @ t=1.04