% Model:              1 neuron.mph
% Version:            COMSOL 6.1.0.252
% Date:               Mar 18 2023, 13:53
% Dimension:          0
% Nodes:              14017
% Expressions:        14017
% Description:        Electric field norm, Electric field, X component, Electric field, Y component, Electric field, Z component, Tangential electric field, X component, Tangential electric field, Y component, Tangential electric field, Z component, Electric field, x component, Electric field, y component, Electric field, z component, Tangential electric field, x component, Tangential electric field, y component, Tangential electric field, z component, Electric potential
% Length unit:        mm
% x
1.3300000000000003
% y
12.200000000000001
% z
1.66
% es.normE (V/m) @ t=0
20.96108747199969
% es.EX (V/m) @ t=0
13.301414779916856
% es.EY (V/m) @ t=0
3.977681950266323
% es.EZ (V/m) @ t=0
-14.5708865092523
% es.tEX (V/m) @ t=0
13.301414779916847
% es.tEY (V/m) @ t=0
0
% es.tEZ (V/m) @ t=0
-14.570886509252272
% es.Ex (V/m) @ t=0
13.301414779916856
% es.Ey (V/m) @ t=0
3.977681950266323
% es.Ez (V/m) @ t=0
-14.5708865092523
% es.tEx (V/m) @ t=0
13.301414779916847
% es.tEy (V/m) @ t=0
0
% es.tEz (V/m) @ t=0
-14.570886509252272
% V (V) @ t=0
0.017955937744755568
% es.normE (V/m) @ t=0.02
19.6435858930613
% es.EX (V/m) @ t=0.02
12.46580511054967
% es.EY (V/m) @ t=0.02
3.7277123260205283
% es.EZ (V/m) @ t=0.02
-13.654652916883101
% es.tEX (V/m) @ t=0.02
12.465805110549642
% es.tEY (V/m) @ t=0.02
0
% es.tEZ (V/m) @ t=0.02
-13.654652916883073
% es.Ex (V/m) @ t=0.02
12.46580511054967
% es.Ey (V/m) @ t=0.02
3.7277123260205283
% es.Ez (V/m) @ t=0.02
-13.654652916883101
% es.tEx (V/m) @ t=0.02
12.465805110549642
% es.tEy (V/m) @ t=0.02
0
% es.tEz (V/m) @ t=0.02
-13.654652916883073
% V (V) @ t=0.02
0.016826274659240192
% es.normE (V/m) @ t=0.04
19.92966256858875
% es.EX (V/m) @ t=0.04
12.647349157871128
% es.EY (V/m) @ t=0.04
3.7820003544672547
% es.EZ (V/m) @ t=0.04
-13.853510586282923
% es.tEX (V/m) @ t=0.04
12.647349157871105
% es.tEY (V/m) @ t=0.04
0
% es.tEZ (V/m) @ t=0.04
-13.853510586282892
% es.Ex (V/m) @ t=0.04
12.647349157871128
% es.Ey (V/m) @ t=0.04
3.7820003544672547
% es.Ez (V/m) @ t=0.04
-13.853510586282923
% es.tEx (V/m) @ t=0.04
12.647349157871105
% es.tEy (V/m) @ t=0.04
0
% es.tEz (V/m) @ t=0.04
-13.853510586282892
% V (V) @ t=0.04
0.01707132180766338
% es.normE (V/m) @ t=0.06
20.219569103535243
% es.EX (V/m) @ t=0.06
12.831323622408771
% es.EY (V/m) @ t=0.06
3.83701516469643
% es.EZ (V/m) @ t=0.06
-14.055030475761889
% es.tEX (V/m) @ t=0.06
12.83132362240874
% es.tEY (V/m) @ t=0.06
0
% es.tEZ (V/m) @ t=0.06
-14.055030475761875
% es.Ex (V/m) @ t=0.06
12.831323622408771
% es.Ey (V/m) @ t=0.06
3.83701516469643
% es.Ez (V/m) @ t=0.06
-14.055030475761889
% es.tEx (V/m) @ t=0.06
12.83132362240874
% es.tEy (V/m) @ t=0.06
0
% es.tEz (V/m) @ t=0.06
-14.055030475761875
% V (V) @ t=0.06
0.01731964955259131
% es.normE (V/m) @ t=0.08
20.516140185072835
% es.EX (V/m) @ t=0.08
13.019527406503457
% es.EY (V/m) @ t=0.08
3.8932946888434525
% es.EZ (V/m) @ t=0.08
-14.26118302332336
% es.tEX (V/m) @ t=0.08
13.019527406503428
% es.tEY (V/m) @ t=0.08
0
% es.tEZ (V/m) @ t=0.08
-14.261183023323316
% es.Ex (V/m) @ t=0.08
13.019527406503457
% es.Ey (V/m) @ t=0.08
3.8932946888434525
% es.Ez (V/m) @ t=0.08
-14.26118302332336
% es.tEx (V/m) @ t=0.08
13.019527406503428
% es.tEy (V/m) @ t=0.08
0
% es.tEz (V/m) @ t=0.08
-14.261183023323316
% V (V) @ t=0.08
0.01757368599734558
% es.normE (V/m) @ t=0.1
20.812711266610357
% es.EX (V/m) @ t=0.1
13.207731190598142
% es.EY (V/m) @ t=0.1
3.9495742129903837
% es.EZ (V/m) @ t=0.1
-14.467335570884739
% es.tEX (V/m) @ t=0.1
13.207731190598086
% es.tEY (V/m) @ t=0.1
0
% es.tEZ (V/m) @ t=0.1
-14.467335570884709
% es.Ex (V/m) @ t=0.1
13.207731190598142
% es.Ey (V/m) @ t=0.1
3.9495742129903837
% es.Ez (V/m) @ t=0.1
-14.467335570884739
% es.tEx (V/m) @ t=0.1
13.207731190598086
% es.tEy (V/m) @ t=0.1
0
% es.tEz (V/m) @ t=0.1
-14.467335570884709
% V (V) @ t=0.1
0.017827722442099847
% es.normE (V/m) @ t=0.12
21.118323285132384
% es.EX (V/m) @ t=0.12
13.40167237955571
% es.EY (V/m) @ t=0.12
4.0075694156761195
% es.EZ (V/m) @ t=0.12
-14.679772627561498
% es.tEX (V/m) @ t=0.12
13.401672379555679
% es.tEY (V/m) @ t=0.12
0
% es.tEZ (V/m) @ t=0.12
-14.67977262756147
% es.Ex (V/m) @ t=0.12
13.40167237955571
% es.Ey (V/m) @ t=0.12
4.0075694156761195
% es.Ez (V/m) @ t=0.12
-14.679772627561498
% es.tEx (V/m) @ t=0.12
13.401672379555679
% es.tEy (V/m) @ t=0.12
0
% es.tEz (V/m) @ t=0.12
-14.67977262756147
% V (V) @ t=0.12
0.018089503082791815
% es.normE (V/m) @ t=0.14
21.433082585131487
% es.EX (V/m) @ t=0.14
13.601418459900096
% es.EY (V/m) @ t=0.14
4.067300477658758
% es.EZ (V/m) @ t=0.14
-14.89856811521958
% es.tEX (V/m) @ t=0.14
13.601418459900058
% es.tEY (V/m) @ t=0.14
0
% es.tEZ (V/m) @ t=0.14
-14.89856811521955
% es.Ex (V/m) @ t=0.14
13.601418459900096
% es.Ey (V/m) @ t=0.14
4.067300477658758
% es.Ez (V/m) @ t=0.14
-14.89856811521958
% es.tEx (V/m) @ t=0.14
13.601418459900058
% es.tEy (V/m) @ t=0.14
0
% es.tEz (V/m) @ t=0.14
-14.89856811521955
% V (V) @ t=0.14
0.018359119010929875
% es.normE (V/m) @ t=0.16
21.747841885130526
% es.EX (V/m) @ t=0.16
13.801164540244464
% es.EY (V/m) @ t=0.16
4.127031539641475
% es.EZ (V/m) @ t=0.16
-15.117363602877614
% es.tEX (V/m) @ t=0.16
13.801164540244434
% es.tEY (V/m) @ t=0.16
0
% es.tEZ (V/m) @ t=0.16
-15.117363602877584
% es.Ex (V/m) @ t=0.16
13.801164540244464
% es.Ey (V/m) @ t=0.16
4.127031539641475
% es.Ez (V/m) @ t=0.16
-15.117363602877614
% es.tEx (V/m) @ t=0.16
13.801164540244434
% es.tEy (V/m) @ t=0.16
0
% es.tEz (V/m) @ t=0.16
-15.117363602877584
% V (V) @ t=0.16
0.01862873493906794
% es.normE (V/m) @ t=0.18
22.06260118512961
% es.EX (V/m) @ t=0.18
14.000910620588815
% es.EY (V/m) @ t=0.18
4.1867626016241495
% es.EZ (V/m) @ t=0.18
-15.33615909053568
% es.tEX (V/m) @ t=0.18
14.0009106205888
% es.tEY (V/m) @ t=0.18
0
% es.tEZ (V/m) @ t=0.18
-15.336159090535666
% es.Ex (V/m) @ t=0.18
14.000910620588815
% es.Ey (V/m) @ t=0.18
4.1867626016241495
% es.Ez (V/m) @ t=0.18
-15.33615909053568
% es.tEx (V/m) @ t=0.18
14.0009106205888
% es.tEy (V/m) @ t=0.18
0
% es.tEz (V/m) @ t=0.18
-15.336159090535666
% V (V) @ t=0.18
0.018898350867206
% es.normE (V/m) @ t=0.2
22.377360485128698
% es.EX (V/m) @ t=0.2
14.200656700933205
% es.EY (V/m) @ t=0.2
4.246493663606833
% es.EZ (V/m) @ t=0.2
-15.554954578193755
% es.tEX (V/m) @ t=0.2
14.200656700933147
% es.tEY (V/m) @ t=0.2
0
% es.tEZ (V/m) @ t=0.2
-15.554954578193726
% es.Ex (V/m) @ t=0.2
14.200656700933205
% es.Ey (V/m) @ t=0.2
4.246493663606833
% es.Ez (V/m) @ t=0.2
-15.554954578193755
% es.tEx (V/m) @ t=0.2
14.200656700933147
% es.tEy (V/m) @ t=0.2
0
% es.tEz (V/m) @ t=0.2
-15.554954578193726
% V (V) @ t=0.2
0.019167966795344063
% es.normE (V/m) @ t=0.22
22.692119785127744
% es.EX (V/m) @ t=0.22
14.400402781277542
% es.EY (V/m) @ t=0.22
4.3062247255895425
% es.EZ (V/m) @ t=0.22
-15.77375006585179
% es.tEX (V/m) @ t=0.22
14.400402781277483
% es.tEY (V/m) @ t=0.22
0
% es.tEZ (V/m) @ t=0.22
-15.77375006585176
% es.Ex (V/m) @ t=0.22
14.400402781277542
% es.Ey (V/m) @ t=0.22
4.3062247255895425
% es.Ez (V/m) @ t=0.22
-15.77375006585179
% es.tEx (V/m) @ t=0.22
14.400402781277483
% es.tEy (V/m) @ t=0.22
0
% es.tEz (V/m) @ t=0.22
-15.77375006585176
% V (V) @ t=0.22
0.019437582723482123
% es.normE (V/m) @ t=0.24
23.02514981088867
% es.EX (V/m) @ t=0.24
14.611743412994697
% es.EY (V/m) @ t=0.24
4.3694229716230275
% es.EZ (V/m) @ t=0.24
-16.005245936534163
% es.tEX (V/m) @ t=0.24
14.611743412994652
% es.tEY (V/m) @ t=0.24
0
% es.tEZ (V/m) @ t=0.24
-16.005245936534134
% es.Ex (V/m) @ t=0.24
14.611743412994697
% es.Ey (V/m) @ t=0.24
4.3694229716230275
% es.Ez (V/m) @ t=0.24
-16.005245936534163
% es.tEx (V/m) @ t=0.24
14.611743412994652
% es.tEy (V/m) @ t=0.24
0
% es.tEz (V/m) @ t=0.24
-16.005245936534134
% V (V) @ t=0.24
0.019722849050939864
% es.normE (V/m) @ t=0.26
23.35822073489646
% es.EX (V/m) @ t=0.26
14.823109998624735
% es.EY (V/m) @ t=0.26
4.432628978801437
% es.EZ (V/m) @ t=0.26
-16.23677023648677
% es.tEX (V/m) @ t=0.26
14.823109998624663
% es.tEY (V/m) @ t=0.26
0
% es.tEZ (V/m) @ t=0.26
-16.236770236486727
% es.Ex (V/m) @ t=0.26
14.823109998624735
% es.Ey (V/m) @ t=0.26
4.432628978801437
% es.Ez (V/m) @ t=0.26
-16.23677023648677
% es.tEx (V/m) @ t=0.26
14.823109998624663
% es.tEy (V/m) @ t=0.26
0
% es.tEz (V/m) @ t=0.26
-16.236770236486727
% V (V) @ t=0.26
0.020008150411154484
% es.normE (V/m) @ t=0.28
23.6912916589042
% es.EX (V/m) @ t=0.28
15.034476584254731
% es.EY (V/m) @ t=0.28
4.495834985979739
% es.EZ (V/m) @ t=0.28
-16.468294536439345
% es.tEX (V/m) @ t=0.28
15.034476584254687
% es.tEY (V/m) @ t=0.28
0
% es.tEZ (V/m) @ t=0.28
-16.468294536439313
% es.Ex (V/m) @ t=0.28
15.034476584254731
% es.Ey (V/m) @ t=0.28
4.495834985979739
% es.Ez (V/m) @ t=0.28
-16.468294536439345
% es.tEx (V/m) @ t=0.28
15.034476584254687
% es.tEy (V/m) @ t=0.28
0
% es.tEz (V/m) @ t=0.28
-16.468294536439313
% V (V) @ t=0.28
0.020293451771369105
% es.normE (V/m) @ t=0.3
24.024362582911934
% es.EX (V/m) @ t=0.3
15.245843169884754
% es.EY (V/m) @ t=0.3
4.559040993158154
% es.EZ (V/m) @ t=0.3
-16.69981883639188
% es.tEX (V/m) @ t=0.3
15.245843169884726
% es.tEY (V/m) @ t=0.3
0
% es.tEZ (V/m) @ t=0.3
-16.699818836391835
% es.Ex (V/m) @ t=0.3
15.245843169884754
% es.Ey (V/m) @ t=0.3
4.559040993158154
% es.Ez (V/m) @ t=0.3
-16.69981883639188
% es.tEx (V/m) @ t=0.3
15.245843169884726
% es.tEy (V/m) @ t=0.3
0
% es.tEz (V/m) @ t=0.3
-16.699818836391835
% V (V) @ t=0.3
0.020578753131583728
% es.normE (V/m) @ t=0.32
24.357433506919683
% es.EX (V/m) @ t=0.32
15.457209755514771
% es.EY (V/m) @ t=0.32
4.622247000336449
% es.EZ (V/m) @ t=0.32
-16.93134313634446
% es.tEX (V/m) @ t=0.32
15.457209755514764
% es.tEY (V/m) @ t=0.32
0
% es.tEZ (V/m) @ t=0.32
-16.931343136344402
% es.Ex (V/m) @ t=0.32
15.457209755514771
% es.Ey (V/m) @ t=0.32
4.622247000336449
% es.Ez (V/m) @ t=0.32
-16.93134313634446
% es.tEx (V/m) @ t=0.32
15.457209755514764
% es.tEy (V/m) @ t=0.32
0
% es.tEz (V/m) @ t=0.32
-16.931343136344402
% V (V) @ t=0.32
0.02086405449179835
% es.normE (V/m) @ t=0.34
24.70869856479243
% es.EX (V/m) @ t=0.34
15.68012228257529
% es.EY (V/m) @ t=0.34
4.688905657474104
% es.EZ (V/m) @ t=0.34
-17.175514582610123
% es.tEX (V/m) @ t=0.34
15.680122282575274
% es.tEY (V/m) @ t=0.34
0
% es.tEZ (V/m) @ t=0.34
-17.175514582610067
% es.Ex (V/m) @ t=0.34
15.68012228257529
% es.Ey (V/m) @ t=0.34
4.688905657474104
% es.Ez (V/m) @ t=0.34
-17.175514582610123
% es.tEx (V/m) @ t=0.34
15.680122282575274
% es.tEy (V/m) @ t=0.34
0
% es.tEz (V/m) @ t=0.34
-17.175514582610067
% V (V) @ t=0.34
0.021164940656875755
% es.normE (V/m) @ t=0.36
25.078270432896904
% es.EX (V/m) @ t=0.36
15.914652255142327
% es.EY (V/m) @ t=0.36
4.75903834685043
% es.EZ (V/m) @ t=0.36
-17.43241149903251
% es.tEX (V/m) @ t=0.36
15.914652255142304
% es.tEY (V/m) @ t=0.36
0
% es.tEZ (V/m) @ t=0.36
-17.43241149903247
% es.Ex (V/m) @ t=0.36
15.914652255142327
% es.Ey (V/m) @ t=0.36
4.75903834685043
% es.Ez (V/m) @ t=0.36
-17.43241149903251
% es.tEx (V/m) @ t=0.36
15.914652255142304
% es.tEy (V/m) @ t=0.36
0
% es.tEz (V/m) @ t=0.36
-17.43241149903247
% V (V) @ t=0.36
0.021481508143594445
% es.normE (V/m) @ t=0.38
25.447842301001412
% es.EX (V/m) @ t=0.38
16.149182227709435
% es.EY (V/m) @ t=0.38
4.829171036226799
% es.EZ (V/m) @ t=0.38
-17.689308415454924
% es.tEX (V/m) @ t=0.38
16.14918222770939
% es.tEY (V/m) @ t=0.38
0
% es.tEZ (V/m) @ t=0.38
-17.689308415454867
% es.Ex (V/m) @ t=0.38
16.149182227709435
% es.Ey (V/m) @ t=0.38
4.829171036226799
% es.Ez (V/m) @ t=0.38
-17.689308415454924
% es.tEx (V/m) @ t=0.38
16.14918222770939
% es.tEy (V/m) @ t=0.38
0
% es.tEz (V/m) @ t=0.38
-17.689308415454867
% V (V) @ t=0.38
0.021798075630313146
% es.normE (V/m) @ t=0.4
25.8174141691059
% es.EX (V/m) @ t=0.4
16.3837122002765
% es.EY (V/m) @ t=0.4
4.899303725602998
% es.EZ (V/m) @ t=0.4
-17.9462053318773
% es.tEX (V/m) @ t=0.4
16.383712200276463
% es.tEY (V/m) @ t=0.4
0
% es.tEZ (V/m) @ t=0.4
-17.94620533187727
% es.Ex (V/m) @ t=0.4
16.3837122002765
% es.Ey (V/m) @ t=0.4
4.899303725602998
% es.Ez (V/m) @ t=0.4
-17.9462053318773
% es.tEx (V/m) @ t=0.4
16.383712200276463
% es.tEy (V/m) @ t=0.4
0
% es.tEz (V/m) @ t=0.4
-17.94620533187727
% V (V) @ t=0.4
0.022114643117031842
% es.normE (V/m) @ t=0.42
26.186986037210417
% es.EX (V/m) @ t=0.42
16.61824217284361
% es.EY (V/m) @ t=0.42
4.969436414979282
% es.EZ (V/m) @ t=0.42
-18.20310224829973
% es.tEX (V/m) @ t=0.42
16.61824217284358
% es.tEY (V/m) @ t=0.42
0
% es.tEZ (V/m) @ t=0.42
-18.203102248299686
% es.Ex (V/m) @ t=0.42
16.61824217284361
% es.Ey (V/m) @ t=0.42
4.969436414979282
% es.Ez (V/m) @ t=0.42
-18.20310224829973
% es.tEx (V/m) @ t=0.42
16.61824217284358
% es.tEy (V/m) @ t=0.42
0
% es.tEz (V/m) @ t=0.42
-18.203102248299686
% V (V) @ t=0.42
0.022431210603750536
% es.normE (V/m) @ t=0.44
26.55655790531488
% es.EX (V/m) @ t=0.44
16.852772145410654
% es.EY (V/m) @ t=0.44
5.039569104355567
% es.EZ (V/m) @ t=0.44
-18.45999916472209
% es.tEX (V/m) @ t=0.44
16.85277214541065
% es.tEY (V/m) @ t=0.44
0
% es.tEZ (V/m) @ t=0.44
-18.459999164722042
% es.Ex (V/m) @ t=0.44
16.852772145410654
% es.Ey (V/m) @ t=0.44
5.039569104355567
% es.Ez (V/m) @ t=0.44
-18.45999916472209
% es.tEx (V/m) @ t=0.44
16.85277214541065
% es.tEy (V/m) @ t=0.44
0
% es.tEz (V/m) @ t=0.44
-18.459999164722042
% V (V) @ t=0.44
0.02274777809046923
% es.normE (V/m) @ t=0.46
26.92612977341939
% es.EX (V/m) @ t=0.46
17.087302117977785
% es.EY (V/m) @ t=0.46
5.10970179373185
% es.EZ (V/m) @ t=0.46
-18.716896081144476
% es.tEX (V/m) @ t=0.46
17.08730211797771
% es.tEY (V/m) @ t=0.46
0
% es.tEZ (V/m) @ t=0.46
-18.716896081144434
% es.Ex (V/m) @ t=0.46
17.087302117977785
% es.Ey (V/m) @ t=0.46
5.10970179373185
% es.Ez (V/m) @ t=0.46
-18.716896081144476
% es.tEx (V/m) @ t=0.46
17.08730211797771
% es.tEy (V/m) @ t=0.46
0
% es.tEz (V/m) @ t=0.46
-18.716896081144434
% V (V) @ t=0.46
0.02306434557718792
% es.normE (V/m) @ t=0.48
27.29570164152388
% es.EX (V/m) @ t=0.48
17.321832090544827
% es.EY (V/m) @ t=0.48
5.17983448310822
% es.EZ (V/m) @ t=0.48
-18.973792997566875
% es.tEX (V/m) @ t=0.48
17.321832090544795
% es.tEY (V/m) @ t=0.48
0
% es.tEZ (V/m) @ t=0.48
-18.973792997566846
% es.Ex (V/m) @ t=0.48
17.321832090544827
% es.Ey (V/m) @ t=0.48
5.17983448310822
% es.Ez (V/m) @ t=0.48
-18.973792997566875
% es.tEx (V/m) @ t=0.48
17.321832090544795
% es.tEy (V/m) @ t=0.48
0
% es.tEz (V/m) @ t=0.48
-18.973792997566846
% V (V) @ t=0.48
0.02338091306390662
% es.normE (V/m) @ t=0.5
27.665273509628406
% es.EX (V/m) @ t=0.5
17.55636206311192
% es.EY (V/m) @ t=0.5
5.249967172484461
% es.EZ (V/m) @ t=0.5
-19.23068991398931
% es.tEX (V/m) @ t=0.5
17.556362063111884
% es.tEY (V/m) @ t=0.5
0
% es.tEZ (V/m) @ t=0.5
-19.230689913989263
% es.Ex (V/m) @ t=0.5
17.55636206311192
% es.Ey (V/m) @ t=0.5
5.249967172484461
% es.Ez (V/m) @ t=0.5
-19.23068991398931
% es.tEx (V/m) @ t=0.5
17.556362063111884
% es.tEy (V/m) @ t=0.5
0
% es.tEz (V/m) @ t=0.5
-19.230689913989263
% V (V) @ t=0.5
0.023697480550625313
% es.normE (V/m) @ t=0.52
28.034845377732864
% es.EX (V/m) @ t=0.52
17.790892035679
% es.EY (V/m) @ t=0.52
5.320099861860724
% es.EZ (V/m) @ t=0.52
-19.48758683041168
% es.tEX (V/m) @ t=0.52
17.790892035678944
% es.tEY (V/m) @ t=0.52
0
% es.tEZ (V/m) @ t=0.52
-19.487586830411637
% es.Ex (V/m) @ t=0.52
17.790892035679
% es.Ey (V/m) @ t=0.52
5.320099861860724
% es.Ez (V/m) @ t=0.52
-19.48758683041168
% es.tEx (V/m) @ t=0.52
17.790892035678944
% es.tEy (V/m) @ t=0.52
0
% es.tEz (V/m) @ t=0.52
-19.487586830411637
% V (V) @ t=0.52
0.02401404803734401
% es.normE (V/m) @ t=0.54
28.40441724583738
% es.EX (V/m) @ t=0.54
18.02542200824608
% es.EY (V/m) @ t=0.54
5.390232551237016
% es.EZ (V/m) @ t=0.54
-19.744483746834078
% es.tEX (V/m) @ t=0.54
18.025422008246025
% es.tEY (V/m) @ t=0.54
0
% es.tEZ (V/m) @ t=0.54
-19.744483746834035
% es.Ex (V/m) @ t=0.54
18.02542200824608
% es.Ey (V/m) @ t=0.54
5.390232551237016
% es.Ez (V/m) @ t=0.54
-19.744483746834078
% es.tEx (V/m) @ t=0.54
18.025422008246025
% es.tEy (V/m) @ t=0.54
0
% es.tEz (V/m) @ t=0.54
-19.744483746834035
% V (V) @ t=0.54
0.024330615524062706
% es.normE (V/m) @ t=0.56
28.788575007328234
% es.EX (V/m) @ t=0.56
18.269208215214665
% es.EY (V/m) @ t=0.56
5.463133170582324
% es.EZ (V/m) @ t=0.56
-20.011519579912747
% es.tEX (V/m) @ t=0.56
18.26920821521462
% es.tEY (V/m) @ t=0.56
0
% es.tEZ (V/m) @ t=0.56
-20.011519579912733
% es.Ex (V/m) @ t=0.56
18.269208215214665
% es.Ey (V/m) @ t=0.56
5.463133170582324
% es.Ez (V/m) @ t=0.56
-20.011519579912747
% es.tEx (V/m) @ t=0.56
18.26920821521462
% es.tEy (V/m) @ t=0.56
0
% es.tEz (V/m) @ t=0.56
-20.011519579912733
% V (V) @ t=0.56
0.024659676887240422
% es.normE (V/m) @ t=0.58
29.18732820446819
% es.EX (V/m) @ t=0.58
18.52225671212208
% es.EY (V/m) @ t=0.58
5.5388035307088535
% es.EZ (V/m) @ t=0.58
-20.288700962645976
% es.tEX (V/m) @ t=0.58
18.522256712122065
% es.tEY (V/m) @ t=0.58
0
% es.tEZ (V/m) @ t=0.58
-20.288700962645933
% es.Ex (V/m) @ t=0.58
18.52225671212208
% es.Ey (V/m) @ t=0.58
5.5388035307088535
% es.Ez (V/m) @ t=0.58
-20.288700962645976
% es.tEx (V/m) @ t=0.58
18.522256712122065
% es.tEy (V/m) @ t=0.58
0
% es.tEz (V/m) @ t=0.58
-20.288700962645933
% V (V) @ t=0.58
0.025001240300517768
% es.normE (V/m) @ t=0.6
29.58608140160817
% es.EX (V/m) @ t=0.6
18.775305209029476
% es.EY (V/m) @ t=0.6
5.614473890835438
% es.EZ (V/m) @ t=0.6
-20.565882345379265
% es.tEX (V/m) @ t=0.6
18.775305209029437
% es.tEY (V/m) @ t=0.6
0
% es.tEZ (V/m) @ t=0.6
-20.565882345379222
% es.Ex (V/m) @ t=0.6
18.775305209029476
% es.Ey (V/m) @ t=0.6
5.614473890835438
% es.Ez (V/m) @ t=0.6
-20.565882345379265
% es.tEx (V/m) @ t=0.6
18.775305209029437
% es.tEy (V/m) @ t=0.6
0
% es.tEz (V/m) @ t=0.6
-20.565882345379222
% V (V) @ t=0.6
0.025342803713795114
% es.normE (V/m) @ t=0.62
29.984834598748098
% es.EX (V/m) @ t=0.62
19.028353705936787
% es.EY (V/m) @ t=0.62
5.690144250961995
% es.EZ (V/m) @ t=0.62
-20.84306372811254
% es.tEX (V/m) @ t=0.62
19.028353705936723
% es.tEY (V/m) @ t=0.62
0
% es.tEZ (V/m) @ t=0.62
-20.843063728112494
% es.Ex (V/m) @ t=0.62
19.028353705936787
% es.Ey (V/m) @ t=0.62
5.690144250961995
% es.Ez (V/m) @ t=0.62
-20.84306372811254
% es.tEx (V/m) @ t=0.62
19.028353705936723
% es.tEy (V/m) @ t=0.62
0
% es.tEz (V/m) @ t=0.62
-20.843063728112494
% V (V) @ t=0.62
0.025684367127072467
% es.normE (V/m) @ t=0.64
30.383587795888076
% es.EX (V/m) @ t=0.64
19.28140220284419
% es.EY (V/m) @ t=0.64
5.765814611088637
% es.EZ (V/m) @ t=0.64
-21.120245110845797
% es.tEX (V/m) @ t=0.64
19.281402202844152
% es.tEY (V/m) @ t=0.64
0
% es.tEZ (V/m) @ t=0.64
-21.12024511084574
% es.Ex (V/m) @ t=0.64
19.28140220284419
% es.Ey (V/m) @ t=0.64
5.765814611088637
% es.Ez (V/m) @ t=0.64
-21.120245110845797
% es.tEx (V/m) @ t=0.64
19.281402202844152
% es.tEy (V/m) @ t=0.64
0
% es.tEz (V/m) @ t=0.64
-21.12024511084574
% V (V) @ t=0.64
0.026025930540349813
% es.normE (V/m) @ t=0.66
30.782340993028
% es.EX (V/m) @ t=0.66
19.534450699751577
% es.EY (V/m) @ t=0.66
5.841484971215137
% es.EZ (V/m) @ t=0.66
-21.397426493578998
% es.tEX (V/m) @ t=0.66
19.53445069975151
% es.tEY (V/m) @ t=0.66
0
% es.tEZ (V/m) @ t=0.66
-21.397426493578983
% es.Ex (V/m) @ t=0.66
19.534450699751577
% es.Ey (V/m) @ t=0.66
5.841484971215137
% es.Ez (V/m) @ t=0.66
-21.397426493578998
% es.tEx (V/m) @ t=0.66
19.53445069975151
% es.tEy (V/m) @ t=0.66
0
% es.tEz (V/m) @ t=0.66
-21.397426493578983
% V (V) @ t=0.66
0.02636749395362716
% es.normE (V/m) @ t=0.68
31.181094190167983
% es.EX (V/m) @ t=0.68
19.787499196658963
% es.EY (V/m) @ t=0.68
5.917155331341623
% es.EZ (V/m) @ t=0.68
-21.6746078763123
% es.tEX (V/m) @ t=0.68
19.787499196658914
% es.tEY (V/m) @ t=0.68
0
% es.tEZ (V/m) @ t=0.68
-21.674607876312244
% es.Ex (V/m) @ t=0.68
19.787499196658963
% es.Ey (V/m) @ t=0.68
5.917155331341623
% es.Ez (V/m) @ t=0.68
-21.6746078763123
% es.tEx (V/m) @ t=0.68
19.787499196658914
% es.tEy (V/m) @ t=0.68
0
% es.tEz (V/m) @ t=0.68
-21.674607876312244
% V (V) @ t=0.68
0.026709057366904508
% es.normE (V/m) @ t=0.7
31.57984738730788
% es.EX (V/m) @ t=0.7
20.040547693566307
% es.EY (V/m) @ t=0.7
5.992825691468243
% es.EZ (V/m) @ t=0.7
-21.951789259045505
% es.tEX (V/m) @ t=0.7
20.04054769356624
% es.tEY (V/m) @ t=0.7
0
% es.tEZ (V/m) @ t=0.7
-21.95178925904546
% es.Ex (V/m) @ t=0.7
20.040547693566307
% es.Ey (V/m) @ t=0.7
5.992825691468243
% es.Ez (V/m) @ t=0.7
-21.951789259045505
% es.tEx (V/m) @ t=0.7
20.04054769356624
% es.tEy (V/m) @ t=0.7
0
% es.tEz (V/m) @ t=0.7
-21.95178925904546
% V (V) @ t=0.7
0.027050620780181858
% es.normE (V/m) @ t=0.72
31.978600584447808
% es.EX (V/m) @ t=0.72
20.293596190473707
% es.EY (V/m) @ t=0.72
6.068496051594701
% es.EZ (V/m) @ t=0.72
-22.228970641778734
% es.tEX (V/m) @ t=0.72
20.29359619047367
% es.tEY (V/m) @ t=0.72
0
% es.tEZ (V/m) @ t=0.72
-22.228970641778677
% es.Ex (V/m) @ t=0.72
20.293596190473707
% es.Ey (V/m) @ t=0.72
6.068496051594701
% es.Ez (V/m) @ t=0.72
-22.228970641778734
% es.tEx (V/m) @ t=0.72
20.29359619047367
% es.tEy (V/m) @ t=0.72
0
% es.tEz (V/m) @ t=0.72
-22.228970641778677
% V (V) @ t=0.72
0.027392184193459207
% es.normE (V/m) @ t=0.74
32.37735378158776
% es.EX (V/m) @ t=0.74
20.54664468738104
% es.EY (V/m) @ t=0.74
6.14416641172132
% es.EZ (V/m) @ t=0.74
-22.506152024512023
% es.tEX (V/m) @ t=0.74
20.54664468738102
% es.tEY (V/m) @ t=0.74
0
% es.tEZ (V/m) @ t=0.74
-22.506152024511962
% es.Ex (V/m) @ t=0.74
20.54664468738104
% es.Ey (V/m) @ t=0.74
6.14416641172132
% es.Ez (V/m) @ t=0.74
-22.506152024512023
% es.tEx (V/m) @ t=0.74
20.54664468738102
% es.tEy (V/m) @ t=0.74
0
% es.tEz (V/m) @ t=0.74
-22.506152024511962
% V (V) @ t=0.74
0.027733747606736553
% es.normE (V/m) @ t=0.76
32.789775169075746
% es.EX (V/m) @ t=0.76
20.808369811184114
% es.EY (V/m) @ t=0.76
6.222430839640967
% es.EZ (V/m) @ t=0.76
-22.792832014767633
% es.tEX (V/m) @ t=0.76
20.80836981118408
% es.tEY (V/m) @ t=0.76
0
% es.tEZ (V/m) @ t=0.76
-22.79283201476759
% es.Ex (V/m) @ t=0.76
20.808369811184114
% es.Ey (V/m) @ t=0.76
6.222430839640967
% es.Ez (V/m) @ t=0.76
-22.792832014767633
% es.tEx (V/m) @ t=0.76
20.80836981118408
% es.tEy (V/m) @ t=0.76
0
% es.tEz (V/m) @ t=0.76
-22.79283201476759
% V (V) @ t=0.76
0.02808701231796435
% es.normE (V/m) @ t=0.78
33.211267810229984
% es.EX (V/m) @ t=0.78
21.0758534064107
% es.EY (V/m) @ t=0.78
6.302416888812347
% es.EZ (V/m) @ t=0.78
-23.08581600548772
% es.tEX (V/m) @ t=0.78
21.075853406410644
% es.tEY (V/m) @ t=0.78
0
% es.tEZ (V/m) @ t=0.78
-23.085816005487676
% es.Ex (V/m) @ t=0.78
21.0758534064107
% es.Ey (V/m) @ t=0.78
6.302416888812347
% es.Ez (V/m) @ t=0.78
-23.08581600548772
% es.tEx (V/m) @ t=0.78
21.075853406410644
% es.tEy (V/m) @ t=0.78
0
% es.tEz (V/m) @ t=0.78
-23.085816005487676
% V (V) @ t=0.78
0.02844804290303646
% es.normE (V/m) @ t=0.8
33.63276045138541
% es.EX (V/m) @ t=0.8
21.343337001637277
% es.EY (V/m) @ t=0.8
6.382402937983769
% es.EZ (V/m) @ t=0.8
-23.37879999620784
% es.tEX (V/m) @ t=0.8
21.343337001637224
% es.tEY (V/m) @ t=0.8
0
% es.tEZ (V/m) @ t=0.8
-23.378799996207793
% es.Ex (V/m) @ t=0.8
21.343337001637277
% es.Ey (V/m) @ t=0.8
6.382402937983769
% es.Ez (V/m) @ t=0.8
-23.37879999620784
% es.tEx (V/m) @ t=0.8
21.343337001637224
% es.tEy (V/m) @ t=0.8
0
% es.tEz (V/m) @ t=0.8
-23.378799996207793
% V (V) @ t=0.8
0.028809073488108572
% es.normE (V/m) @ t=0.82
34.05425309254194
% es.EX (V/m) @ t=0.82
21.610820596863856
% es.EY (V/m) @ t=0.82
6.462388987155137
% es.EZ (V/m) @ t=0.82
-23.67178398692802
% es.tEX (V/m) @ t=0.82
21.610820596863803
% es.tEY (V/m) @ t=0.82
0
% es.tEZ (V/m) @ t=0.82
-23.671783986927963
% es.Ex (V/m) @ t=0.82
21.610820596863856
% es.Ey (V/m) @ t=0.82
6.462388987155137
% es.Ez (V/m) @ t=0.82
-23.67178398692802
% es.tEx (V/m) @ t=0.82
21.610820596863803
% es.tEy (V/m) @ t=0.82
0
% es.tEz (V/m) @ t=0.82
-23.671783986927963
% V (V) @ t=0.82
0.029170104073180686
% es.normE (V/m) @ t=0.84
34.47574573369954
% es.EX (V/m) @ t=0.84
21.878304192090454
% es.EY (V/m) @ t=0.84
6.5423750363266
% es.EZ (V/m) @ t=0.84
-23.964767977648165
% es.tEX (V/m) @ t=0.84
21.878304192090415
% es.tEY (V/m) @ t=0.84
0
% es.tEZ (V/m) @ t=0.84
-23.964767977648123
% es.Ex (V/m) @ t=0.84
21.878304192090454
% es.Ey (V/m) @ t=0.84
6.5423750363266
% es.Ez (V/m) @ t=0.84
-23.964767977648165
% es.tEx (V/m) @ t=0.84
21.878304192090415
% es.tEy (V/m) @ t=0.84
0
% es.tEz (V/m) @ t=0.84
-23.964767977648123
% V (V) @ t=0.84
0.029531134658252797
% es.normE (V/m) @ t=0.86
34.897238374858084
% es.EX (V/m) @ t=0.86
22.145787787316962
% es.EY (V/m) @ t=0.86
6.622361085498024
% es.EZ (V/m) @ t=0.86
-24.257751968368254
% es.tEX (V/m) @ t=0.86
22.145787787316955
% es.tEY (V/m) @ t=0.86
0
% es.tEZ (V/m) @ t=0.86
-24.257751968368225
% es.Ex (V/m) @ t=0.86
22.145787787316962
% es.Ey (V/m) @ t=0.86
6.622361085498024
% es.Ez (V/m) @ t=0.86
-24.257751968368254
% es.tEx (V/m) @ t=0.86
22.145787787316955
% es.tEy (V/m) @ t=0.86
0
% es.tEz (V/m) @ t=0.86
-24.257751968368225
% V (V) @ t=0.86
0.0298921652433249
% es.normE (V/m) @ t=0.88
35.31873101601765
% es.EX (V/m) @ t=0.88
22.41327138254356
% es.EY (V/m) @ t=0.88
6.702347134669418
% es.EZ (V/m) @ t=0.88
-24.550735959088357
% es.tEX (V/m) @ t=0.88
22.41327138254352
% es.tEY (V/m) @ t=0.88
0
% es.tEZ (V/m) @ t=0.88
-24.550735959088296
% es.Ex (V/m) @ t=0.88
22.41327138254356
% es.Ey (V/m) @ t=0.88
6.702347134669418
% es.Ez (V/m) @ t=0.88
-24.550735959088357
% es.tEx (V/m) @ t=0.88
22.41327138254352
% es.tEy (V/m) @ t=0.88
0
% es.tEz (V/m) @ t=0.88
-24.550735959088296
% V (V) @ t=0.88
0.03025319582839701
% es.normE (V/m) @ t=0.9
35.74022365717822
% es.EX (V/m) @ t=0.9
22.680754977770185
% es.EY (V/m) @ t=0.9
6.782333183840798
% es.EZ (V/m) @ t=0.9
-24.843719949808527
% es.tEX (V/m) @ t=0.9
22.680754977770132
% es.tEY (V/m) @ t=0.9
0
% es.tEZ (V/m) @ t=0.9
-24.84371994980847
% es.Ex (V/m) @ t=0.9
22.680754977770185
% es.Ey (V/m) @ t=0.9
6.782333183840798
% es.Ez (V/m) @ t=0.9
-24.843719949808527
% es.tEx (V/m) @ t=0.9
22.680754977770132
% es.tEy (V/m) @ t=0.9
0
% es.tEz (V/m) @ t=0.9
-24.84371994980847
% V (V) @ t=0.9
0.030614226413469125
% es.normE (V/m) @ t=0.92
36.16171629833962
% es.EX (V/m) @ t=0.92
22.94823857299678
% es.EY (V/m) @ t=0.92
6.862319233012194
% es.EZ (V/m) @ t=0.92
-25.136703940528612
% es.tEX (V/m) @ t=0.92
22.94823857299671
% es.tEY (V/m) @ t=0.92
0
% es.tEZ (V/m) @ t=0.92
-25.136703940528555
% es.Ex (V/m) @ t=0.92
22.94823857299678
% es.Ey (V/m) @ t=0.92
6.862319233012194
% es.Ez (V/m) @ t=0.92
-25.136703940528612
% es.tEx (V/m) @ t=0.92
22.94823857299671
% es.tEy (V/m) @ t=0.92
0
% es.tEz (V/m) @ t=0.92
-25.136703940528555
% V (V) @ t=0.92
0.030975256998541235
% es.normE (V/m) @ t=0.94
36.58320893950195
% es.EX (V/m) @ t=0.94
23.215722168223344
% es.EY (V/m) @ t=0.94
6.94230528218363
% es.EZ (V/m) @ t=0.94
-25.429687931248758
% es.tEX (V/m) @ t=0.94
23.21572216822331
% es.tEY (V/m) @ t=0.94
0
% es.tEZ (V/m) @ t=0.94
-25.429687931248672
% es.Ex (V/m) @ t=0.94
23.215722168223344
% es.Ey (V/m) @ t=0.94
6.94230528218363
% es.Ez (V/m) @ t=0.94
-25.429687931248758
% es.tEx (V/m) @ t=0.94
23.21572216822331
% es.tEy (V/m) @ t=0.94
0
% es.tEz (V/m) @ t=0.94
-25.429687931248672
% V (V) @ t=0.94
0.031336287583613356
% es.normE (V/m) @ t=0.96
37.013957470093445
% es.EX (V/m) @ t=0.96
23.489077471729292
% es.EY (V/m) @ t=0.96
7.024047573098677
% es.EZ (V/m) @ t=0.96
-25.72910767832664
% es.tEX (V/m) @ t=0.96
23.489077471729253
% es.tEY (V/m) @ t=0.96
0
% es.tEZ (V/m) @ t=0.96
-25.729107678326578
% es.Ex (V/m) @ t=0.96
23.489077471729292
% es.Ey (V/m) @ t=0.96
7.024047573098677
% es.Ez (V/m) @ t=0.96
-25.72910767832664
% es.tEx (V/m) @ t=0.96
23.489077471729253
% es.tEy (V/m) @ t=0.96
0
% es.tEz (V/m) @ t=0.96
-25.729107678326578
% V (V) @ t=0.96
0.031705251381398986
% es.normE (V/m) @ t=0.98
37.448629122938044
% es.EX (V/m) @ t=0.98
23.764921507365386
% es.EY (V/m) @ t=0.98
7.106534249641953
% es.EZ (V/m) @ t=0.98
-26.031255230136495
% es.tEX (V/m) @ t=0.98
23.764921507365354
% es.tEY (V/m) @ t=0.98
0
% es.tEZ (V/m) @ t=0.98
-26.031255230136466
% es.Ex (V/m) @ t=0.98
23.764921507365386
% es.Ey (V/m) @ t=0.98
7.106534249641953
% es.Ez (V/m) @ t=0.98
-26.031255230136495
% es.tEx (V/m) @ t=0.98
23.764921507365354
% es.tEy (V/m) @ t=0.98
0
% es.tEz (V/m) @ t=0.98
-26.031255230136466
% V (V) @ t=0.98
0.03207757768298019
% es.normE (V/m) @ t=1
37.883300775782786
% es.EX (V/m) @ t=1
24.040765543001555
% es.EY (V/m) @ t=1
7.189020926185201
% es.EZ (V/m) @ t=1
-26.333402781946383
% es.tEX (V/m) @ t=1
24.0407655430015
% es.tEY (V/m) @ t=1
0
% es.tEZ (V/m) @ t=1
-26.333402781946354
% es.Ex (V/m) @ t=1
24.040765543001555
% es.Ey (V/m) @ t=1
7.189020926185201
% es.Ez (V/m) @ t=1
-26.333402781946383
% es.tEx (V/m) @ t=1
24.0407655430015
% es.tEy (V/m) @ t=1
0
% es.tEz (V/m) @ t=1
-26.333402781946354
% V (V) @ t=1
0.03244990398456139
% es.normE (V/m) @ t=1.02
38.31797242862764
% es.EX (V/m) @ t=1.02
24.31660957863768
% es.EY (V/m) @ t=1.02
7.271507602728448
% es.EZ (V/m) @ t=1.02
-26.635550333756413
% es.tEX (V/m) @ t=1.02
24.316609578637628
% es.tEY (V/m) @ t=1.02
0
% es.tEZ (V/m) @ t=1.02
-26.635550333756356
% es.Ex (V/m) @ t=1.02
24.31660957863768
% es.Ey (V/m) @ t=1.02
7.271507602728448
% es.Ez (V/m) @ t=1.02
-26.635550333756413
% es.tEx (V/m) @ t=1.02
24.316609578637628
% es.tEy (V/m) @ t=1.02
0
% es.tEz (V/m) @ t=1.02
-26.635550333756356
% V (V) @ t=1.02
0.03282223028614259
% es.normE (V/m) @ t=1.04
38.75264408147239
% es.EX (V/m) @ t=1.04
24.59245361427373
% es.EY (V/m) @ t=1.04
7.35399427927171
% es.EZ (V/m) @ t=1.04
-26.93769788556623
% es.tEX (V/m) @ t=1.04
24.592453614273673
% es.tEY (V/m) @ t=1.04
0
% es.tEZ (V/m) @ t=1.04
-26.937697885566145
% es.Ex (V/m) @ t=1.04
24.59245361427373
% es.Ey (V/m) @ t=1.04
7.35399427927171
% es.Ez (V/m) @ t=1.04
-26.93769788556623
% es.tEx (V/m) @ t=1.04
24.592453614273673
% es.tEy (V/m) @ t=1.04
0