% Model:              1 neuron.mph
% Version:            COMSOL 6.1.0.252
% Date:               Mar 18 2023, 13:49
% Dimension:          0
% Nodes:              14017
% Expressions:        14017
% Description:        Electric field norm, Electric field, X component, Electric field, Y component, Electric field, Z component, Tangential electric field, X component, Tangential electric field, Y component, Tangential electric field, Z component, Electric field, x component, Electric field, y component, Electric field, z component, Tangential electric field, x component, Tangential electric field, y component, Tangential electric field, z component, Electric potential
% Length unit:        mm
% x
2
% y
12.199999999999998
% z
2
% es.normE (V/m) @ t=0
2.083702196643321
% es.EX (V/m) @ t=0
-1.4917397271401511
% es.EY (V/m) @ t=0
0.5681070625526661
% es.EZ (V/m) @ t=0
-1.3311470114457293
% es.tEX (V/m) @ t=0
-1.4917397271401462
% es.tEY (V/m) @ t=0
0
% es.tEZ (V/m) @ t=0
-1.3311470114457258
% es.Ex (V/m) @ t=0
-1.4917397271401511
% es.Ey (V/m) @ t=0
0.5681070625526661
% es.Ez (V/m) @ t=0
-1.3311470114457293
% es.tEx (V/m) @ t=0
-1.4917397271401462
% es.tEy (V/m) @ t=0
0
% es.tEz (V/m) @ t=0
-1.3311470114457258
% V (V) @ t=0
0.021205344689010665
% es.normE (V/m) @ t=0.02
1.952784407713964
% es.EX (V/m) @ t=0.02
-1.39801482178301
% es.EY (V/m) @ t=0.02
0.5324124228235414
% es.EZ (V/m) @ t=0.02
-1.247511986444315
% es.tEX (V/m) @ t=0.02
-1.3980148217830024
% es.tEY (V/m) @ t=0.02
0
% es.tEZ (V/m) @ t=0.02
-1.2475119864443283
% es.Ex (V/m) @ t=0.02
-1.39801482178301
% es.Ey (V/m) @ t=0.02
0.5324124228235414
% es.Ez (V/m) @ t=0.02
-1.247511986444315
% es.tEx (V/m) @ t=0.02
-1.3980148217830024
% es.tEy (V/m) @ t=0.02
0
% es.tEz (V/m) @ t=0.02
-1.2475119864443283
% V (V) @ t=0.02
0.019873056441365514
% es.normE (V/m) @ t=0.04
1.9812199791296632
% es.EX (V/m) @ t=0.04
-1.4183720854941604
% es.EY (V/m) @ t=0.04
0.5401651800746698
% es.EZ (V/m) @ t=0.04
-1.2656776955376916
% es.tEX (V/m) @ t=0.04
-1.4183720854941617
% es.tEY (V/m) @ t=0.04
0
% es.tEZ (V/m) @ t=0.04
-1.2656776955377111
% es.Ex (V/m) @ t=0.04
-1.4183720854941604
% es.Ey (V/m) @ t=0.04
0.5401651800746698
% es.Ez (V/m) @ t=0.04
-1.2656776955376916
% es.tEx (V/m) @ t=0.04
-1.4183720854941617
% es.tEy (V/m) @ t=0.04
0
% es.tEz (V/m) @ t=0.04
-1.2656776955377111
% V (V) @ t=0.04
0.020162438746976923
% es.normE (V/m) @ t=0.06
2.010053718485455
% es.EX (V/m) @ t=0.06
-1.4390143981972052
% es.EY (V/m) @ t=0.06
0.5480265050415807
% es.EZ (V/m) @ t=0.06
-1.2840977671307279
% es.tEX (V/m) @ t=0.06
-1.439014398197199
% es.tEY (V/m) @ t=0.06
0
% es.tEZ (V/m) @ t=0.06
-1.2840977671307208
% es.Ex (V/m) @ t=0.06
-1.4390143981972052
% es.Ey (V/m) @ t=0.06
0.5480265050415807
% es.Ez (V/m) @ t=0.06
-1.2840977671307279
% es.tEx (V/m) @ t=0.06
-1.439014398197199
% es.tEy (V/m) @ t=0.06
0
% es.tEz (V/m) @ t=0.06
-1.2840977671307208
% V (V) @ t=0.06
0.020455872735127154
% es.normE (V/m) @ t=0.08
2.039511647481326
% es.EX (V/m) @ t=0.08
-1.4601035763861239
% es.EY (V/m) @ t=0.08
0.5560580000147999
% es.EZ (V/m) @ t=0.08
-1.3029165968747378
% es.tEX (V/m) @ t=0.08
-1.4601035763861097
% es.tEY (V/m) @ t=0.08
0
% es.tEZ (V/m) @ t=0.08
-1.3029165968747378
% es.Ex (V/m) @ t=0.08
-1.4601035763861239
% es.Ey (V/m) @ t=0.08
0.5560580000147999
% es.Ez (V/m) @ t=0.08
-1.3029165968747378
% es.tEx (V/m) @ t=0.08
-1.4601035763861097
% es.tEy (V/m) @ t=0.08
0
% es.tEz (V/m) @ t=0.08
-1.3029165968747378
% V (V) @ t=0.08
0.02075565938278397
% es.normE (V/m) @ t=0.1
2.0689695764772003
% es.EX (V/m) @ t=0.1
-1.4811927545749977
% es.EY (V/m) @ t=0.1
0.5640894949880644
% es.EZ (V/m) @ t=0.1
-1.3217354266187744
% es.tEX (V/m) @ t=0.1
-1.4811927545750052
% es.tEY (V/m) @ t=0.1
0
% es.tEZ (V/m) @ t=0.1
-1.3217354266187655
% es.Ex (V/m) @ t=0.1
-1.4811927545749977
% es.Ey (V/m) @ t=0.1
0.5640894949880644
% es.Ez (V/m) @ t=0.1
-1.3217354266187744
% es.tEx (V/m) @ t=0.1
-1.4811927545750052
% es.tEy (V/m) @ t=0.1
0
% es.tEz (V/m) @ t=0.1
-1.3217354266187655
% V (V) @ t=0.1
0.021055446030440787
% es.normE (V/m) @ t=0.12
2.099435888060291
% es.EX (V/m) @ t=0.12
-1.5030037064328812
% es.EY (V/m) @ t=0.12
0.5723964300792117
% es.EZ (V/m) @ t=0.12
-1.3411983354958235
% es.tEX (V/m) @ t=0.12
-1.503003706432878
% es.tEY (V/m) @ t=0.12
0
% es.tEZ (V/m) @ t=0.12
-1.341198335495836
% es.Ex (V/m) @ t=0.12
-1.5030037064328812
% es.Ey (V/m) @ t=0.12
0.5723964300792117
% es.Ez (V/m) @ t=0.12
-1.3411983354958235
% es.tEx (V/m) @ t=0.12
-1.503003706432878
% es.tEy (V/m) @ t=0.12
0
% es.tEz (V/m) @ t=0.12
-1.341198335495836
% V (V) @ t=0.12
0.021365475203039302
% es.normE (V/m) @ t=0.14
2.130677079994297
% es.EX (V/m) @ t=0.14
-1.525369297215112
% es.EY (V/m) @ t=0.14
0.5809150240563934
% es.EZ (V/m) @ t=0.14
-1.3611561797977672
% es.tEX (V/m) @ t=0.14
-1.5253692972151134
% es.tEY (V/m) @ t=0.14
0
% es.tEZ (V/m) @ t=0.14
-1.3611561797977565
% es.Ex (V/m) @ t=0.14
-1.525369297215112
% es.Ey (V/m) @ t=0.14
0.5809150240563934
% es.Ez (V/m) @ t=0.14
-1.3611561797977672
% es.tEx (V/m) @ t=0.14
-1.5253692972151134
% es.tEy (V/m) @ t=0.14
0
% es.tEz (V/m) @ t=0.14
-1.3611561797977565
% V (V) @ t=0.14
0.02168337512967124
% es.normE (V/m) @ t=0.16
2.161918271928985
% es.EX (V/m) @ t=0.16
-1.5477348879973443
% es.EY (V/m) @ t=0.16
0.5894336180335848
% es.EZ (V/m) @ t=0.16
-1.38111402409975
% es.tEX (V/m) @ t=0.16
-1.5477348879973487
% es.tEY (V/m) @ t=0.16
0
% es.tEZ (V/m) @ t=0.16
-1.3811140240997481
% es.Ex (V/m) @ t=0.16
-1.5477348879973443
% es.Ey (V/m) @ t=0.16
0.5894336180335848
% es.Ez (V/m) @ t=0.16
-1.38111402409975
% es.tEx (V/m) @ t=0.16
-1.5477348879973487
% es.tEy (V/m) @ t=0.16
0
% es.tEz (V/m) @ t=0.16
-1.3811140240997481
% V (V) @ t=0.16
0.02200127505630318
% es.normE (V/m) @ t=0.18
2.1931594638642906
% es.EX (V/m) @ t=0.18
-1.5701004787795703
% es.EY (V/m) @ t=0.18
0.5979522120107417
% es.EZ (V/m) @ t=0.18
-1.4010718684017274
% es.tEX (V/m) @ t=0.18
-1.57010047877956
% es.tEY (V/m) @ t=0.18
0
% es.tEZ (V/m) @ t=0.18
-1.4010718684017505
% es.Ex (V/m) @ t=0.18
-1.5701004787795703
% es.Ey (V/m) @ t=0.18
0.5979522120107417
% es.Ez (V/m) @ t=0.18
-1.4010718684017274
% es.tEx (V/m) @ t=0.18
-1.57010047877956
% es.tEy (V/m) @ t=0.18
0
% es.tEz (V/m) @ t=0.18
-1.4010718684017505
% V (V) @ t=0.18
0.022319174982935116
% es.normE (V/m) @ t=0.2
2.22440065580021
% es.EX (V/m) @ t=0.2
-1.5924660695618011
% es.EY (V/m) @ t=0.2
0.6064708059879584
% es.EZ (V/m) @ t=0.2
-1.4210297127036906
% es.tEX (V/m) @ t=0.2
-1.5924660695617945
% es.tEY (V/m) @ t=0.2
0
% es.tEZ (V/m) @ t=0.2
-1.4210297127036817
% es.Ex (V/m) @ t=0.2
-1.5924660695618011
% es.Ey (V/m) @ t=0.2
0.6064708059879584
% es.Ez (V/m) @ t=0.2
-1.4210297127036906
% es.tEx (V/m) @ t=0.2
-1.5924660695617945
% es.tEy (V/m) @ t=0.2
0
% es.tEz (V/m) @ t=0.2
-1.4210297127036817
% V (V) @ t=0.2
0.022637074909567057
% es.normE (V/m) @ t=0.22
2.2558840656648655
% es.EX (V/m) @ t=0.22
-1.6150051521644708
% es.EY (V/m) @ t=0.22
0.6150551153576331
% es.EZ (V/m) @ t=0.22
-1.4411423665885792
% es.tEX (V/m) @ t=0.22
-1.6150051521644757
% es.tEY (V/m) @ t=0.22
0
% es.tEZ (V/m) @ t=0.22
-1.441142366588572
% es.Ex (V/m) @ t=0.22
-1.6150051521644708
% es.Ey (V/m) @ t=0.22
0.6150551153576331
% es.Ez (V/m) @ t=0.22
-1.4411423665885792
% es.tEx (V/m) @ t=0.22
-1.6150051521644757
% es.tEy (V/m) @ t=0.22
0
% es.tEz (V/m) @ t=0.22
-1.441142366588572
% V (V) @ t=0.22
0.022957452194312753
% es.normE (V/m) @ t=0.24
2.2889260068918578
% es.EX (V/m) @ t=0.24
-1.6386605536337342
% es.EY (V/m) @ t=0.24
0.6240622650222218
% es.EZ (V/m) @ t=0.24
-1.4622511300172647
% es.tEX (V/m) @ t=0.24
-1.638660553633736
% es.tEY (V/m) @ t=0.24
0
% es.tEZ (V/m) @ t=0.24
-1.4622511300172611
% es.Ex (V/m) @ t=0.24
-1.6386605536337342
% es.Ey (V/m) @ t=0.24
0.6240622650222218
% es.Ez (V/m) @ t=0.24
-1.4622511300172647
% es.tEx (V/m) @ t=0.24
-1.638660553633736
% es.tEy (V/m) @ t=0.24
0
% es.tEz (V/m) @ t=0.24
-1.4622511300172611
% V (V) @ t=0.24
0.023293769836328623
% es.normE (V/m) @ t=0.26
2.3219679481206748
% es.EX (V/m) @ t=0.26
-1.6623159551030047
% es.EY (V/m) @ t=0.26
0.6330694146867426
% es.EZ (V/m) @ t=0.26
-1.4833598934459395
% es.tEX (V/m) @ t=0.26
-1.6623159551030016
% es.tEY (V/m) @ t=0.26
0
% es.tEZ (V/m) @ t=0.26
-1.4833598934459467
% es.Ex (V/m) @ t=0.26
-1.6623159551030047
% es.Ey (V/m) @ t=0.26
0.6330694146867426
% es.Ez (V/m) @ t=0.26
-1.4833598934459395
% es.tEx (V/m) @ t=0.26
-1.6623159551030016
% es.tEy (V/m) @ t=0.26
0
% es.tEz (V/m) @ t=0.26
-1.4833598934459467
% V (V) @ t=0.26
0.023630087478344504
% es.normE (V/m) @ t=0.28
2.355009889351262
% es.EX (V/m) @ t=0.28
-1.6859713565722658
% es.EY (V/m) @ t=0.28
0.6420765643512913
% es.EZ (V/m) @ t=0.28
-1.5044686568746233
% es.tEX (V/m) @ t=0.28
-1.6859713565722743
% es.tEY (V/m) @ t=0.28
0
% es.tEZ (V/m) @ t=0.28
-1.504468656874618
% es.Ex (V/m) @ t=0.28
-1.6859713565722658
% es.Ey (V/m) @ t=0.28
0.6420765643512913
% es.Ez (V/m) @ t=0.28
-1.5044686568746233
% es.tEx (V/m) @ t=0.28
-1.6859713565722743
% es.tEy (V/m) @ t=0.28
0
% es.tEz (V/m) @ t=0.28
-1.504468656874618
% V (V) @ t=0.28
0.02396640512036038
% es.normE (V/m) @ t=0.3
2.3880518305835587
% es.EX (V/m) @ t=0.3
-1.709626758041551
% es.EY (V/m) @ t=0.3
0.651083714015809
% es.EZ (V/m) @ t=0.3
-1.5255774203033212
% es.tEX (V/m) @ t=0.3
-1.7096267580415416
% es.tEY (V/m) @ t=0.3
0
% es.tEZ (V/m) @ t=0.3
-1.5255774203033212
% es.Ex (V/m) @ t=0.3
-1.709626758041551
% es.Ey (V/m) @ t=0.3
0.651083714015809
% es.Ez (V/m) @ t=0.3
-1.5255774203033212
% es.tEx (V/m) @ t=0.3
-1.7096267580415416
% es.tEy (V/m) @ t=0.3
0
% es.tEz (V/m) @ t=0.3
-1.5255774203033212
% V (V) @ t=0.3
0.02430272276237625
% es.normE (V/m) @ t=0.32
2.4210937718174335
% es.EX (V/m) @ t=0.32
-1.7332821595107801
% es.EY (V/m) @ t=0.32
0.660090863680372
% es.EZ (V/m) @ t=0.32
-1.546686183731996
% es.tEX (V/m) @ t=0.32
-1.7332821595107868
% es.tEY (V/m) @ t=0.32
0
% es.tEZ (V/m) @ t=0.32
-1.5466861837320067
% es.Ex (V/m) @ t=0.32
-1.7332821595107801
% es.Ey (V/m) @ t=0.32
0.660090863680372
% es.Ez (V/m) @ t=0.32
-1.546686183731996
% es.tEx (V/m) @ t=0.32
-1.7332821595107868
% es.tEy (V/m) @ t=0.32
0
% es.tEz (V/m) @ t=0.32
-1.5466861837320067
% V (V) @ t=0.32
0.02463904040439212
% es.normE (V/m) @ t=0.34
2.456661877183558
% es.EX (V/m) @ t=0.34
-1.7587464219062272
% es.EY (V/m) @ t=0.34
0.6697854041882234
% es.EZ (V/m) @ t=0.34
-1.569409054300115
% es.tEX (V/m) @ t=0.34
-1.7587464219062179
% es.tEY (V/m) @ t=0.34
0
% es.tEZ (V/m) @ t=0.34
-1.569409054300138
% es.Ex (V/m) @ t=0.34
-1.7587464219062272
% es.Ey (V/m) @ t=0.34
0.6697854041882234
% es.Ez (V/m) @ t=0.34
-1.569409054300115
% es.tEx (V/m) @ t=0.34
-1.7587464219062179
% es.tEy (V/m) @ t=0.34
0
% es.tEz (V/m) @ t=0.34
-1.569409054300138
% V (V) @ t=0.34
0.0250011178146049
% es.normE (V/m) @ t=0.36
2.4932944222990843
% es.EX (V/m) @ t=0.36
-1.7849728768428896
% es.EY (V/m) @ t=0.36
0.6797695878444472
% es.EZ (V/m) @ t=0.36
-1.5928120547801594
% es.tEX (V/m) @ t=0.36
-1.7849728768428932
% es.tEY (V/m) @ t=0.36
0
% es.tEZ (V/m) @ t=0.36
-1.5928120547801683
% es.Ex (V/m) @ t=0.36
-1.7849728768428896
% es.Ey (V/m) @ t=0.36
0.6797695878444472
% es.Ez (V/m) @ t=0.36
-1.5928120547801594
% es.tEx (V/m) @ t=0.36
-1.7849728768428932
% es.tEy (V/m) @ t=0.36
0
% es.tEz (V/m) @ t=0.36
-1.5928120547801683
% V (V) @ t=0.36
0.025374049515990336
% es.normE (V/m) @ t=0.38
2.5299269674222966
% es.EX (V/m) @ t=0.38
-1.8111993317795538
% es.EY (V/m) @ t=0.38
0.6897537715007074
% es.EZ (V/m) @ t=0.38
-1.6162150552602341
% es.tEX (V/m) @ t=0.38
-1.8111993317795427
% es.tEY (V/m) @ t=0.38
0
% es.tEZ (V/m) @ t=0.38
-1.6162150552602412
% es.Ex (V/m) @ t=0.38
-1.8111993317795538
% es.Ey (V/m) @ t=0.38
0.6897537715007074
% es.Ez (V/m) @ t=0.38
-1.6162150552602341
% es.tEx (V/m) @ t=0.38
-1.8111993317795427
% es.tEy (V/m) @ t=0.38
0
% es.tEz (V/m) @ t=0.38
-1.6162150552602412
% V (V) @ t=0.38
0.02574698121737577
% es.normE (V/m) @ t=0.4
2.5665595125528213
% es.EX (V/m) @ t=0.4
-1.8374257867162114
% es.EY (V/m) @ t=0.4
0.699737955156956
% es.EZ (V/m) @ t=0.4
-1.6396180557402946
% es.tEX (V/m) @ t=0.4
-1.8374257867162083
% es.tEY (V/m) @ t=0.4
0
% es.tEZ (V/m) @ t=0.4
-1.6396180557403
% es.Ex (V/m) @ t=0.4
-1.8374257867162114
% es.Ey (V/m) @ t=0.4
0.699737955156956
% es.Ez (V/m) @ t=0.4
-1.6396180557402946
% es.tEx (V/m) @ t=0.4
-1.8374257867162083
% es.tEy (V/m) @ t=0.4
0
% es.tEz (V/m) @ t=0.4
-1.6396180557403
% V (V) @ t=0.4
0.0261199129187612
% es.normE (V/m) @ t=0.42
2.6031920576903556
% es.EX (V/m) @ t=0.42
-1.8636522416528618
% es.EY (V/m) @ t=0.42
0.709722138813202
% es.EZ (V/m) @ t=0.42
-1.6630210562203445
% es.tEX (V/m) @ t=0.42
-1.8636522416528578
% es.tEY (V/m) @ t=0.42
0
% es.tEZ (V/m) @ t=0.42
-1.6630210562203551
% es.Ex (V/m) @ t=0.42
-1.8636522416528618
% es.Ey (V/m) @ t=0.42
0.709722138813202
% es.Ez (V/m) @ t=0.42
-1.6630210562203445
% es.tEx (V/m) @ t=0.42
-1.8636522416528578
% es.tEy (V/m) @ t=0.42
0
% es.tEz (V/m) @ t=0.42
-1.6630210562203551
% V (V) @ t=0.42
0.026492844620146637
% es.normE (V/m) @ t=0.44
2.639824602834623
% es.EX (V/m) @ t=0.44
-1.8898786965895158
% es.EY (V/m) @ t=0.44
0.719706322469432
% es.EZ (V/m) @ t=0.44
-1.686424056700412
% es.tEX (V/m) @ t=0.44
-1.8898786965895242
% es.tEY (V/m) @ t=0.44
0
% es.tEZ (V/m) @ t=0.44
-1.6864240567004138
% es.Ex (V/m) @ t=0.44
-1.8898786965895158
% es.Ey (V/m) @ t=0.44
0.719706322469432
% es.Ez (V/m) @ t=0.44
-1.686424056700412
% es.tEx (V/m) @ t=0.44
-1.8898786965895242
% es.tEy (V/m) @ t=0.44
0
% es.tEz (V/m) @ t=0.44
-1.6864240567004138
% V (V) @ t=0.44
0.02686577632153207
% es.normE (V/m) @ t=0.46
2.6764571479853645
% es.EX (V/m) @ t=0.46
-1.9161051515261982
% es.EY (V/m) @ t=0.46
0.7296905061256789
% es.EZ (V/m) @ t=0.46
-1.709827057180469
% es.tEX (V/m) @ t=0.46
-1.9161051515261889
% es.tEY (V/m) @ t=0.46
0
% es.tEZ (V/m) @ t=0.46
-1.7098270571804868
% es.Ex (V/m) @ t=0.46
-1.9161051515261982
% es.Ey (V/m) @ t=0.46
0.7296905061256789
% es.Ez (V/m) @ t=0.46
-1.709827057180469
% es.tEx (V/m) @ t=0.46
-1.9161051515261889
% es.tEy (V/m) @ t=0.46
0
% es.tEz (V/m) @ t=0.46
-1.7098270571804868
% V (V) @ t=0.46
0.027238708022917505
% es.normE (V/m) @ t=0.48
2.713089693142285
% es.EX (V/m) @ t=0.48
-1.9423316064628375
% es.EY (V/m) @ t=0.48
0.7396746897819586
% es.EZ (V/m) @ t=0.48
-1.7332300576605508
% es.tEX (V/m) @ t=0.48
-1.942331606462825
% es.tEY (V/m) @ t=0.48
0
% es.tEZ (V/m) @ t=0.48
-1.7332300576605562
% es.Ex (V/m) @ t=0.48
-1.9423316064628375
% es.Ey (V/m) @ t=0.48
0.7396746897819586
% es.Ez (V/m) @ t=0.48
-1.7332300576605508
% es.tEx (V/m) @ t=0.48
-1.942331606462825
% es.tEy (V/m) @ t=0.48
0
% es.tEz (V/m) @ t=0.48
-1.7332300576605562
% V (V) @ t=0.48
0.027611639724302937
% es.normE (V/m) @ t=0.5
2.749722238305133
% es.EX (V/m) @ t=0.5
-1.9685580613995026
% es.EY (V/m) @ t=0.5
0.7496588734381966
% es.EZ (V/m) @ t=0.5
-1.7566330581405936
% es.tEX (V/m) @ t=0.5
-1.968558061399504
% es.tEY (V/m) @ t=0.5
0
% es.tEZ (V/m) @ t=0.5
-1.7566330581406149
% es.Ex (V/m) @ t=0.5
-1.9685580613995026
% es.Ey (V/m) @ t=0.5
0.7496588734381966
% es.Ez (V/m) @ t=0.5
-1.7566330581405936
% es.tEx (V/m) @ t=0.5
-1.968558061399504
% es.tEy (V/m) @ t=0.5
0
% es.tEz (V/m) @ t=0.5
-1.7566330581406149
% V (V) @ t=0.5
0.027984571425688373
% es.normE (V/m) @ t=0.52
2.786354783473709
% es.EX (V/m) @ t=0.52
-1.9947845163361735
% es.EY (V/m) @ t=0.52
0.7596430570944479
% es.EZ (V/m) @ t=0.52
-1.7800360586206523
% es.tEX (V/m) @ t=0.52
-1.9947845163361553
% es.tEY (V/m) @ t=0.52
0
% es.tEZ (V/m) @ t=0.52
-1.7800360586206416
% es.Ex (V/m) @ t=0.52
-1.9947845163361735
% es.Ey (V/m) @ t=0.52
0.7596430570944479
% es.Ez (V/m) @ t=0.52
-1.7800360586206523
% es.tEx (V/m) @ t=0.52
-1.9947845163361553
% es.tEy (V/m) @ t=0.52
0
% es.tEz (V/m) @ t=0.52
-1.7800360586206416
% V (V) @ t=0.52
0.028357503127073802
% es.normE (V/m) @ t=0.54
2.822987328647768
% es.EX (V/m) @ t=0.54
-2.0210109712728275
% es.EY (V/m) @ t=0.54
0.7696272407506966
% es.EZ (V/m) @ t=0.54
-1.8034390591007305
% es.tEX (V/m) @ t=0.54
-2.021010971272819
% es.tEY (V/m) @ t=0.54
0
% es.tEZ (V/m) @ t=0.54
-1.803439059100743
% es.Ex (V/m) @ t=0.54
-2.0210109712728275
% es.Ey (V/m) @ t=0.54
0.7696272407506966
% es.Ez (V/m) @ t=0.54
-1.8034390591007305
% es.tEx (V/m) @ t=0.54
-2.021010971272819
% es.tEy (V/m) @ t=0.54
0
% es.tEz (V/m) @ t=0.54
-1.803439059100743
% V (V) @ t=0.54
0.028730434828459238
% es.normE (V/m) @ t=0.56
2.8620350013516287
% es.EX (V/m) @ t=0.56
-2.0489643510333466
% es.EY (V/m) @ t=0.56
0.7802777377222521
% es.EZ (V/m) @ t=0.56
-1.8283831966273265
% es.tEX (V/m) @ t=0.56
-2.0489643510333337
% es.tEY (V/m) @ t=0.56
0
% es.tEZ (V/m) @ t=0.56
-1.8283831966273354
% es.Ex (V/m) @ t=0.56
-2.0489643510333466
% es.Ey (V/m) @ t=0.56
0.7802777377222521
% es.Ez (V/m) @ t=0.56
-1.8283831966273265
% es.tEx (V/m) @ t=0.56
-2.0489643510333337
% es.tEy (V/m) @ t=0.56
0
% es.tEz (V/m) @ t=0.56
-1.8283831966273354
% V (V) @ t=0.56
0.02912764501001908
% es.normE (V/m) @ t=0.58
2.9015371416419913
% es.EX (V/m) @ t=0.58
-2.0772426955453587
% es.EY (V/m) @ t=0.58
0.7910536184614996
% es.EZ (V/m) @ t=0.58
-1.8536173382180294
% es.tEX (V/m) @ t=0.58
-2.0772426955453493
% es.tEY (V/m) @ t=0.58
0
% es.tEZ (V/m) @ t=0.58
-1.8536173382180436
% es.Ex (V/m) @ t=0.58
-2.0772426955453587
% es.Ey (V/m) @ t=0.58
0.7910536184614996
% es.Ez (V/m) @ t=0.58
-1.8536173382180294
% es.tEx (V/m) @ t=0.58
-2.0772426955453493
% es.tEy (V/m) @ t=0.58
0
% es.tEz (V/m) @ t=0.58
-1.8536173382180436
% V (V) @ t=0.58
0.029529423804044018
% es.normE (V/m) @ t=0.6
2.9410392819566855
% es.EX (V/m) @ t=0.6
-2.1055210400573805
% es.EY (V/m) @ t=0.6
0.8018294992007293
% es.EZ (V/m) @ t=0.6
-1.8788514798087341
% es.tEX (V/m) @ t=0.6
-2.1055210400573863
% es.tEY (V/m) @ t=0.6
0
% es.tEZ (V/m) @ t=0.6
-1.8788514798087554
% es.Ex (V/m) @ t=0.6
-2.1055210400573805
% es.Ey (V/m) @ t=0.6
0.8018294992007293
% es.Ez (V/m) @ t=0.6
-1.8788514798087341
% es.tEx (V/m) @ t=0.6
-2.1055210400573863
% es.tEy (V/m) @ t=0.6
0
% es.tEz (V/m) @ t=0.6
-1.8788514798087554
% V (V) @ t=0.6
0.02993120259806896
% es.normE (V/m) @ t=0.62
2.9805414222947277
% es.EX (V/m) @ t=0.62
-2.1337993845694068
% es.EY (V/m) @ t=0.62
0.8126053799399235
% es.EZ (V/m) @ t=0.62
-1.9040856213994282
% es.tEX (V/m) @ t=0.62
-2.133799384569408
% es.tEY (V/m) @ t=0.62
0
% es.tEZ (V/m) @ t=0.62
-1.9040856213994353
% es.Ex (V/m) @ t=0.62
-2.1337993845694068
% es.Ey (V/m) @ t=0.62
0.8126053799399235
% es.Ez (V/m) @ t=0.62
-1.9040856213994282
% es.tEx (V/m) @ t=0.62
-2.133799384569408
% es.tEy (V/m) @ t=0.62
0
% es.tEz (V/m) @ t=0.62
-1.9040856213994353
% V (V) @ t=0.62
0.030332981392093897
% es.normE (V/m) @ t=0.64
3.0200435626552338
% es.EX (V/m) @ t=0.64
-2.1620777290814357
% es.EY (V/m) @ t=0.64
0.8233812606792377
% es.EZ (V/m) @ t=0.64
-1.9293197629900902
% es.tEX (V/m) @ t=0.64
-2.162077729081437
% es.tEY (V/m) @ t=0.64
0
% es.tEZ (V/m) @ t=0.64
-1.9293197629901009
% es.Ex (V/m) @ t=0.64
-2.1620777290814357
% es.Ey (V/m) @ t=0.64
0.8233812606792377
% es.Ez (V/m) @ t=0.64
-1.9293197629900902
% es.tEx (V/m) @ t=0.64
-2.162077729081437
% es.tEy (V/m) @ t=0.64
0
% es.tEz (V/m) @ t=0.64
-1.9293197629901009
% V (V) @ t=0.64
0.03073476018611885
% es.normE (V/m) @ t=0.66
3.0595457030373217
% es.EX (V/m) @ t=0.66
-2.1903560735934477
% es.EY (V/m) @ t=0.66
0.8341571414184852
% es.EZ (V/m) @ t=0.66
-1.9545539045808091
% es.tEX (V/m) @ t=0.66
-2.190356073593451
% es.tEY (V/m) @ t=0.66
0
% es.tEZ (V/m) @ t=0.66
-1.9545539045808127
% es.Ex (V/m) @ t=0.66
-2.1903560735934477
% es.Ey (V/m) @ t=0.66
0.8341571414184852
% es.Ez (V/m) @ t=0.66
-1.9545539045808091
% es.tEx (V/m) @ t=0.66
-2.190356073593451
% es.tEy (V/m) @ t=0.66
0
% es.tEz (V/m) @ t=0.66
-1.9545539045808127
% V (V) @ t=0.66
0.031136538980143787
% es.normE (V/m) @ t=0.68
3.099047843440145
% es.EX (V/m) @ t=0.68
-2.2186344181054527
% es.EY (V/m) @ t=0.68
0.8449330221577043
% es.EZ (V/m) @ t=0.68
-1.9797880461715245
% es.tEX (V/m) @ t=0.68
-2.2186344181054576
% es.tEY (V/m) @ t=0.68
0
% es.tEZ (V/m) @ t=0.68
-1.9797880461715636
% es.Ex (V/m) @ t=0.68
-2.2186344181054527
% es.Ey (V/m) @ t=0.68
0.8449330221577043
% es.Ez (V/m) @ t=0.68
-1.9797880461715245
% es.tEx (V/m) @ t=0.68
-2.2186344181054576
% es.tEy (V/m) @ t=0.68
0
% es.tEz (V/m) @ t=0.68
-1.9797880461715636
% V (V) @ t=0.68
0.03153831777416873
% es.normE (V/m) @ t=0.7
3.138549983862941
% es.EX (V/m) @ t=0.7
-2.2469127626174683
% es.EY (V/m) @ t=0.7
0.8557089028969447
% es.EZ (V/m) @ t=0.7
-2.0050221877622256
% es.tEX (V/m) @ t=0.7
-2.246912762617473
% es.tEY (V/m) @ t=0.7
0
% es.tEZ (V/m) @ t=0.7
-2.0050221877622327
% es.Ex (V/m) @ t=0.7
-2.2469127626174683
% es.Ey (V/m) @ t=0.7
0.8557089028969447
% es.Ez (V/m) @ t=0.7
-2.0050221877622256
% es.tEx (V/m) @ t=0.7
-2.246912762617473
% es.tEy (V/m) @ t=0.7
0
% es.tEz (V/m) @ t=0.7
-2.0050221877622327
% V (V) @ t=0.7
0.031940096568193674
% es.normE (V/m) @ t=0.72
3.178052124305006
% es.EX (V/m) @ t=0.72
-2.2751911071295354
% es.EY (V/m) @ t=0.72
0.8664847836362082
% es.EZ (V/m) @ t=0.72
-2.030256329352934
% es.tEX (V/m) @ t=0.72
-2.2751911071295323
% es.tEY (V/m) @ t=0.72
0
% es.tEZ (V/m) @ t=0.72
-2.0302563293529197
% es.Ex (V/m) @ t=0.72
-2.2751911071295354
% es.Ey (V/m) @ t=0.72
0.8664847836362082
% es.Ez (V/m) @ t=0.72
-2.030256329352934
% es.tEx (V/m) @ t=0.72
-2.2751911071295323
% es.tEy (V/m) @ t=0.72
0
% es.tEz (V/m) @ t=0.72
-2.0302563293529197
% V (V) @ t=0.72
0.032341875362218615
% es.normE (V/m) @ t=0.74
3.217705205425048
% es.EX (V/m) @ t=0.74
-2.3035776825483345
% es.EY (V/m) @ t=0.74
0.8773011730233362
% es.EZ (V/m) @ t=0.74
-2.055587040156688
% es.tEX (V/m) @ t=0.74
-2.303577682548328
% es.tEY (V/m) @ t=0.74
0
% es.tEZ (V/m) @ t=0.74
-2.0555870401566985
% es.Ex (V/m) @ t=0.74
-2.3035776825483345
% es.Ey (V/m) @ t=0.74
0.8773011730233362
% es.Ez (V/m) @ t=0.74
-2.055587040156688
% es.tEx (V/m) @ t=0.74
-2.303577682548328
% es.tEy (V/m) @ t=0.74
0
% es.tEz (V/m) @ t=0.74
-2.0555870401566985
% V (V) @ t=0.74
0.032745214855576535
% es.normE (V/m) @ t=0.76
3.2594979062151848
% es.EX (V/m) @ t=0.76
-2.3334984567467774
% es.EY (V/m) @ t=0.76
0.8886917821036988
% es.EZ (V/m) @ t=0.76
-2.082286642465437
% es.tEX (V/m) @ t=0.76
-2.3334984567467787
% es.tEY (V/m) @ t=0.76
0
% es.tEZ (V/m) @ t=0.76
-2.0822866424654585
% es.Ex (V/m) @ t=0.76
-2.3334984567467774
% es.Ey (V/m) @ t=0.76
0.8886917821036988
% es.Ez (V/m) @ t=0.76
-2.082286642465437
% es.tEx (V/m) @ t=0.76
-2.3334984567467787
% es.tEy (V/m) @ t=0.76
0
% es.tEz (V/m) @ t=0.76
-2.0822866424654585
% V (V) @ t=0.76
0.03317067763222353
% es.normE (V/m) @ t=0.78
3.301290607014198
% es.EX (V/m) @ t=0.78
-2.36341923094522
% es.EY (V/m) @ t=0.78
0.9000823911840419
% es.EZ (V/m) @ t=0.78
-2.1089862447742007
% es.tEX (V/m) @ t=0.78
-2.363419230945225
% es.tEY (V/m) @ t=0.78
0
% es.tEZ (V/m) @ t=0.78
-2.10898624477419
% es.Ex (V/m) @ t=0.78
-2.36341923094522
% es.Ey (V/m) @ t=0.78
0.9000823911840419
% es.Ez (V/m) @ t=0.78
-2.1089862447742007
% es.tEx (V/m) @ t=0.78
-2.363419230945225
% es.tEy (V/m) @ t=0.78
0
% es.tEz (V/m) @ t=0.78
-2.10898624477419
% V (V) @ t=0.78
0.03359614040887053
% es.normE (V/m) @ t=0.8
3.3430833078217637
% es.EX (V/m) @ t=0.8
-2.3933400051437386
% es.EY (V/m) @ t=0.8
0.9114730002644009
% es.EZ (V/m) @ t=0.8
-2.1356858470829003
% es.tEX (V/m) @ t=0.8
-2.393340005143733
% es.tEY (V/m) @ t=0.8
0
% es.tEZ (V/m) @ t=0.8
-2.1356858470829216
% es.Ex (V/m) @ t=0.8
-2.3933400051437386
% es.Ey (V/m) @ t=0.8
0.9114730002644009
% es.Ez (V/m) @ t=0.8
-2.1356858470829003
% es.tEx (V/m) @ t=0.8
-2.393340005143733
% es.tEy (V/m) @ t=0.8
0
% es.tEz (V/m) @ t=0.8
-2.1356858470829216
% V (V) @ t=0.8
0.03402160318551753
% es.normE (V/m) @ t=0.82
3.3848760086375185
% es.EX (V/m) @ t=0.82
-2.4232607793421717
% es.EY (V/m) @ t=0.82
0.9228636093447822
% es.EZ (V/m) @ t=0.82
-2.162385449391623
% es.tEX (V/m) @ t=0.82
-2.4232607793421836
% es.tEY (V/m) @ t=0.82
0
% es.tEZ (V/m) @ t=0.82
-2.162385449391639
% es.Ex (V/m) @ t=0.82
-2.4232607793421717
% es.Ey (V/m) @ t=0.82
0.9228636093447822
% es.Ez (V/m) @ t=0.82
-2.162385449391623
% es.tEx (V/m) @ t=0.82
-2.4232607793421836
% es.tEy (V/m) @ t=0.82
0
% es.tEz (V/m) @ t=0.82
-2.162385449391639
% V (V) @ t=0.82
0.034447065962164534
% es.normE (V/m) @ t=0.84
3.426668709461248
% es.EX (V/m) @ t=0.84
-2.4531815535406554
% es.EY (V/m) @ t=0.84
0.9342542184252007
% es.EZ (V/m) @ t=0.84
-2.1890850517003546
% es.tEX (V/m) @ t=0.84
-2.4531815535406567
% es.tEY (V/m) @ t=0.84
0
% es.tEZ (V/m) @ t=0.84
-2.1890850517003777
% es.Ex (V/m) @ t=0.84
-2.4531815535406554
% es.Ey (V/m) @ t=0.84
0.9342542184252007
% es.Ez (V/m) @ t=0.84
-2.1890850517003546
% es.tEx (V/m) @ t=0.84
-2.4531815535406567
% es.tEy (V/m) @ t=0.84
0
% es.tEz (V/m) @ t=0.84
-2.1890850517003777
% V (V) @ t=0.84
0.03487252873881154
% es.normE (V/m) @ t=0.86
3.46846141029257
% es.EX (V/m) @ t=0.86
-2.4831023277390973
% es.EY (V/m) @ t=0.86
0.9456448275055234
% es.EZ (V/m) @ t=0.86
-2.215784654009111
% es.tEX (V/m) @ t=0.86
-2.4831023277391013
% es.tEY (V/m) @ t=0.86
0
% es.tEZ (V/m) @ t=0.86
-2.215784654009102
% es.Ex (V/m) @ t=0.86
-2.4831023277390973
% es.Ey (V/m) @ t=0.86
0.9456448275055234
% es.Ez (V/m) @ t=0.86
-2.215784654009111
% es.tEx (V/m) @ t=0.86
-2.4831023277391013
% es.tEy (V/m) @ t=0.86
0
% es.tEz (V/m) @ t=0.86
-2.215784654009102
% V (V) @ t=0.86
0.03529799151545854
% es.normE (V/m) @ t=0.88
3.510254111131265
% es.EX (V/m) @ t=0.88
-2.5130231019375726
% es.EY (V/m) @ t=0.88
0.9570354365858469
% es.EZ (V/m) @ t=0.88
-2.2424842563178373
% es.tEX (V/m) @ t=0.88
-2.5130231019375717
% es.tEY (V/m) @ t=0.88
0
% es.tEZ (V/m) @ t=0.88
-2.2424842563178196
% es.Ex (V/m) @ t=0.88
-2.5130231019375726
% es.Ey (V/m) @ t=0.88
0.9570354365858469
% es.Ez (V/m) @ t=0.88
-2.2424842563178373
% es.tEx (V/m) @ t=0.88
-2.5130231019375717
% es.tEy (V/m) @ t=0.88
0
% es.tEz (V/m) @ t=0.88
-2.2424842563178196
% V (V) @ t=0.88
0.035723454292105536
% es.normE (V/m) @ t=0.9
3.552046811977026
% es.EX (V/m) @ t=0.9
-2.5429438761360124
% es.EY (V/m) @ t=0.9
0.9684260456662166
% es.EZ (V/m) @ t=0.9
-2.269183858626528
% es.tEX (V/m) @ t=0.9
-2.5429438761360155
% es.tEY (V/m) @ t=0.9
0
% es.tEZ (V/m) @ t=0.9
-2.2691838586265547
% es.Ex (V/m) @ t=0.9
-2.5429438761360124
% es.Ey (V/m) @ t=0.9
0.9684260456662166
% es.Ez (V/m) @ t=0.9
-2.269183858626528
% es.tEx (V/m) @ t=0.9
-2.5429438761360155
% es.tEy (V/m) @ t=0.9
0
% es.tEz (V/m) @ t=0.9
-2.2691838586265547
% V (V) @ t=0.9
0.03614891706875254
% es.normE (V/m) @ t=0.92
3.593839512829717
% es.EX (V/m) @ t=0.92
-2.5728646503345076
% es.EY (V/m) @ t=0.92
0.9798166547466316
% es.EZ (V/m) @ t=0.92
-2.295883460935256
% es.tEX (V/m) @ t=0.92
-2.5728646503345027
% es.tEY (V/m) @ t=0.92
0
% es.tEZ (V/m) @ t=0.92
-2.2958834609353076
% es.Ex (V/m) @ t=0.92
-2.5728646503345076
% es.Ey (V/m) @ t=0.92
0.9798166547466316
% es.Ez (V/m) @ t=0.92
-2.295883460935256
% es.tEx (V/m) @ t=0.92
-2.5728646503345027
% es.tEy (V/m) @ t=0.92
0
% es.tEz (V/m) @ t=0.92
-2.2958834609353076
% V (V) @ t=0.92
0.03657437984539953
% es.normE (V/m) @ t=0.94
3.6360271505537964
% es.EX (V/m) @ t=0.94
-2.603067892304593
% es.EY (V/m) @ t=0.94
0.9913159598499623
% es.EZ (V/m) @ t=0.94
-2.322835137980274
% es.tEX (V/m) @ t=0.94
-2.6030678923046047
% es.tEY (V/m) @ t=0.94
0
% es.tEZ (V/m) @ t=0.94
-2.322835137980288
% es.Ex (V/m) @ t=0.94
-2.603067892304593
% es.Ey (V/m) @ t=0.94
0.9913159598499623
% es.Ez (V/m) @ t=0.94
-2.322835137980274
% es.tEx (V/m) @ t=0.94
-2.6030678923046047
% es.tEy (V/m) @ t=0.94
0
% es.tEz (V/m) @ t=0.94
-2.322835137980288
% V (V) @ t=0.94
0.0370038228707248
% es.normE (V/m) @ t=0.96
3.6791809185694975
% es.EX (V/m) @ t=0.96
-2.633962132493095
% es.EY (V/m) @ t=0.96
1.0030811669989452
% es.EZ (V/m) @ t=0.96
-2.350403463050565
% es.tEX (V/m) @ t=0.96
-2.633962132493096
% es.tEY (V/m) @ t=0.96
0
% es.tEZ (V/m) @ t=0.96
-2.350403463050551
% es.Ex (V/m) @ t=0.96
-2.633962132493095
% es.Ey (V/m) @ t=0.96
1.0030811669989452
% es.Ez (V/m) @ t=0.96
-2.350403463050565
% es.tEx (V/m) @ t=0.96
-2.633962132493096
% es.tEy (V/m) @ t=0.96
0
% es.tEz (V/m) @ t=0.96
-2.350403463050551
% V (V) @ t=0.96
0.03744300274046585
% es.normE (V/m) @ t=0.98
3.72233468658517
% es.EX (V/m) @ t=0.98
-2.66485637268155
% es.EY (V/m) @ t=0.98
1.0148463741478206
% es.EZ (V/m) @ t=0.98
-2.3779717881209113
% es.tEX (V/m) @ t=0.98
-2.6648563726815446
% es.tEY (V/m) @ t=0.98
0
% es.tEZ (V/m) @ t=0.98
-2.377971788120906
% es.Ex (V/m) @ t=0.98
-2.66485637268155
% es.Ey (V/m) @ t=0.98
1.0148463741478206
% es.Ez (V/m) @ t=0.98
-2.3779717881209113
% es.tEx (V/m) @ t=0.98
-2.6648563726815446
% es.tEy (V/m) @ t=0.98
0
% es.tEz (V/m) @ t=0.98
-2.377971788120906
% V (V) @ t=0.98
0.0378821826102069
% es.normE (V/m) @ t=1
3.7654884546008454
% es.EX (V/m) @ t=1
-2.6957506128699986
% es.EY (V/m) @ t=1
1.0266115812967493
% es.EZ (V/m) @ t=1
-2.405540113191231
% es.tEX (V/m) @ t=1
-2.695750612869995
% es.tEY (V/m) @ t=1
0
% es.tEZ (V/m) @ t=1
-2.405540113191254
% es.Ex (V/m) @ t=1
-2.6957506128699986
% es.Ey (V/m) @ t=1
1.0266115812967493
% es.Ez (V/m) @ t=1
-2.405540113191231
% es.tEx (V/m) @ t=1
-2.695750612869995
% es.tEy (V/m) @ t=1
0
% es.tEz (V/m) @ t=1
-2.405540113191254
% V (V) @ t=1
0.03832136247994795
% es.normE (V/m) @ t=1.02
3.8086422226165695
% es.EX (V/m) @ t=1.02
-2.7266448530585103
% es.EY (V/m) @ t=1.02
1.0383767884456638
% es.EZ (V/m) @ t=1.02
-2.4331084382615575
% es.tEX (V/m) @ t=1.02
-2.7266448530585006
% es.tEY (V/m) @ t=1.02
0
% es.tEZ (V/m) @ t=1.02
-2.4331084382615806
% es.Ex (V/m) @ t=1.02
-2.7266448530585103
% es.Ey (V/m) @ t=1.02
1.0383767884456638
% es.Ez (V/m) @ t=1.02
-2.4331084382615575
% es.tEx (V/m) @ t=1.02
-2.7266448530585006
% es.tEy (V/m) @ t=1.02
0
% es.tEz (V/m) @ t=1.02
-2.4331084382615806
% V (V) @ t=1.02
0.038760542349688995
% es.normE (V/m) @ t=1.04
3.851795990632274
% es.EX (V/m) @ t=1.04
-2.7575390932469626
% es.EY (V/m) @ t=1.04
1.0501419955945508
% es.EZ (V/m) @ t=1.04
-2.4606767633319215