% Model:              1 neuron.mph
% Version:            COMSOL 6.1.0.252
% Date:               Mar 18 2023, 13:49
% Dimension:          0
% Nodes:              14017
% Expressions:        14017
% Description:        Electric field norm, Electric field, X component, Electric field, Y component, Electric field, Z component, Tangential electric field, X component, Tangential electric field, Y component, Tangential electric field, Z component, Electric field, x component, Electric field, y component, Electric field, z component, Tangential electric field, x component, Tangential electric field, y component, Tangential electric field, z component, Electric potential
% Length unit:        mm
% x
1.66
% y
12.2
% z
1
% es.normE (V/m) @ t=0
4.241682957421899
% es.EX (V/m) @ t=0
-1.5118995564703004
% es.EY (V/m) @ t=0
0.48032238804437366
% es.EZ (V/m) @ t=0
3.9216846253109665
% es.tEX (V/m) @ t=0
-1.5118995564703217
% es.tEY (V/m) @ t=0
0
% es.tEZ (V/m) @ t=0
3.92168462531097
% es.Ex (V/m) @ t=0
-1.5118995564703004
% es.Ey (V/m) @ t=0
0.48032238804437366
% es.Ez (V/m) @ t=0
3.9216846253109665
% es.tEx (V/m) @ t=0
-1.5118995564703217
% es.tEy (V/m) @ t=0
0
% es.tEz (V/m) @ t=0
3.92168462531097
% V (V) @ t=0
0.02065183766727329
% es.normE (V/m) @ t=0.02
3.9751826273152067
% es.EX (V/m) @ t=0.02
-1.416908732118683
% es.EY (V/m) @ t=0.02
0.45014390366870316
% es.EZ (V/m) @ t=0.02
3.6752893683328214
% es.tEX (V/m) @ t=0.02
-1.4169087321186973
% es.tEY (V/m) @ t=0.02
0
% es.tEZ (V/m) @ t=0.02
3.6752893683328125
% es.Ex (V/m) @ t=0.02
-1.416908732118683
% es.Ey (V/m) @ t=0.02
0.45014390366870316
% es.Ez (V/m) @ t=0.02
3.6752893683328214
% es.tEx (V/m) @ t=0.02
-1.4169087321186973
% es.tEy (V/m) @ t=0.02
0
% es.tEz (V/m) @ t=0.02
3.6752893683328125
% V (V) @ t=0.02
0.01935432520403306
% es.normE (V/m) @ t=0.04
4.0330674392621475
% es.EX (V/m) @ t=0.04
-1.4375411153931246
% es.EY (V/m) @ t=0.04
0.4566986987109489
% es.EZ (V/m) @ t=0.04
3.7288072706295754
% es.tEX (V/m) @ t=0.04
-1.437541115393153
% es.tEY (V/m) @ t=0.04
0
% es.tEZ (V/m) @ t=0.04
3.7288072706295807
% es.Ex (V/m) @ t=0.04
-1.4375411153931246
% es.Ey (V/m) @ t=0.04
0.4566986987109489
% es.Ez (V/m) @ t=0.04
3.7288072706295754
% es.tEx (V/m) @ t=0.04
-1.437541115393153
% es.tEy (V/m) @ t=0.04
0
% es.tEz (V/m) @ t=0.04
3.7288072706295807
% V (V) @ t=0.04
0.019636153983261757
% es.normE (V/m) @ t=0.06
4.0917627547057265
% es.EX (V/m) @ t=0.06
-1.4584623913412629
% es.EY (V/m) @ t=0.06
0.46334527866617314
% es.EZ (V/m) @ t=0.06
3.783074531761267
% es.tEX (V/m) @ t=0.06
-1.4584623913412842
% es.tEY (V/m) @ t=0.06
0
% es.tEZ (V/m) @ t=0.06
3.7830745317612724
% es.Ex (V/m) @ t=0.06
-1.4584623913412629
% es.Ey (V/m) @ t=0.06
0.46334527866617314
% es.Ez (V/m) @ t=0.06
3.783074531761267
% es.tEx (V/m) @ t=0.06
-1.4584623913412842
% es.tEy (V/m) @ t=0.06
0
% es.tEz (V/m) @ t=0.06
3.7830745317612724
% V (V) @ t=0.06
0.019921928686097604
% es.normE (V/m) @ t=0.08
4.151728729049334
% es.EX (V/m) @ t=0.08
-1.4798365810604972
% es.EY (V/m) @ t=0.08
0.47013574095637756
% es.EZ (V/m) @ t=0.08
3.8385165908180365
% es.tEX (V/m) @ t=0.08
-1.4798365810605114
% es.tEY (V/m) @ t=0.08
0
% es.tEZ (V/m) @ t=0.08
3.8385165908180383
% es.Ex (V/m) @ t=0.08
-1.4798365810604972
% es.Ey (V/m) @ t=0.08
0.47013574095637756
% es.Ez (V/m) @ t=0.08
3.8385165908180365
% es.tEx (V/m) @ t=0.08
-1.4798365810605114
% es.tEy (V/m) @ t=0.08
0
% es.tEz (V/m) @ t=0.08
3.8385165908180383
% V (V) @ t=0.08
0.020213890231163857
% es.normE (V/m) @ t=0.1
4.211694703392924
% es.EX (V/m) @ t=0.1
-1.5012107707797389
% es.EY (V/m) @ t=0.1
0.4769262032465895
% es.EZ (V/m) @ t=0.1
3.8939586498747847
% es.tEX (V/m) @ t=0.1
-1.501210770779753
% es.tEY (V/m) @ t=0.1
0
% es.tEZ (V/m) @ t=0.1
3.8939586498747936
% es.Ex (V/m) @ t=0.1
-1.5012107707797389
% es.Ey (V/m) @ t=0.1
0.4769262032465895
% es.Ez (V/m) @ t=0.1
3.8939586498747847
% es.tEx (V/m) @ t=0.1
-1.501210770779753
% es.tEy (V/m) @ t=0.1
0
% es.tEz (V/m) @ t=0.1
3.8939586498747936
% V (V) @ t=0.1
0.020505851776230117
% es.normE (V/m) @ t=0.12
4.273712060239623
% es.EX (V/m) @ t=0.12
-1.523316065573815
% es.EY (V/m) @ t=0.12
0.4839492121900091
% es.EZ (V/m) @ t=0.12
3.951297366096563
% es.tEX (V/m) @ t=0.12
-1.5233160655738505
% es.tEY (V/m) @ t=0.12
0
% es.tEZ (V/m) @ t=0.12
3.9512973660965827
% es.Ex (V/m) @ t=0.12
-1.523316065573815
% es.Ey (V/m) @ t=0.12
0.4839492121900091
% es.Ez (V/m) @ t=0.12
3.951297366096563
% es.tEx (V/m) @ t=0.12
-1.5233160655738505
% es.tEy (V/m) @ t=0.12
0
% es.tEz (V/m) @ t=0.12
3.9512973660965827
% V (V) @ t=0.12
0.020807788434835696
% es.normE (V/m) @ t=0.14
4.337305779087215
% es.EX (V/m) @ t=0.14
-1.5459831699070161
% es.EY (V/m) @ t=0.14
0.49115091901495855
% es.EZ (V/m) @ t=0.14
4.010093547359045
% es.tEX (V/m) @ t=0.14
-1.5459831699070303
% es.tEY (V/m) @ t=0.14
0
% es.tEZ (V/m) @ t=0.14
4.010093547359048
% es.Ex (V/m) @ t=0.14
-1.5459831699070161
% es.Ey (V/m) @ t=0.14
0.49115091901495855
% es.Ez (V/m) @ t=0.14
4.010093547359045
% es.tEx (V/m) @ t=0.14
-1.5459831699070303
% es.tEy (V/m) @ t=0.14
0
% es.tEz (V/m) @ t=0.14
4.010093547359048
% V (V) @ t=0.14
0.021117390358165584
% es.normE (V/m) @ t=0.16
4.400899497934976
% es.EX (V/m) @ t=0.16
-1.5686502742402029
% es.EY (V/m) @ t=0.16
0.4983526258399009
% es.EZ (V/m) @ t=0.16
4.068889728621544
% es.tEX (V/m) @ t=0.16
-1.5686502742402384
% es.tEY (V/m) @ t=0.16
0
% es.tEZ (V/m) @ t=0.16
4.068889728621549
% es.Ex (V/m) @ t=0.16
-1.5686502742402029
% es.Ey (V/m) @ t=0.16
0.4983526258399009
% es.Ez (V/m) @ t=0.16
4.068889728621544
% es.tEx (V/m) @ t=0.16
-1.5686502742402384
% es.tEy (V/m) @ t=0.16
0
% es.tEz (V/m) @ t=0.16
4.068889728621549
% V (V) @ t=0.16
0.02142699228149547
% es.normE (V/m) @ t=0.18
4.464493216782888
% es.EX (V/m) @ t=0.18
-1.591317378573404
% es.EY (V/m) @ t=0.18
0.505554332664865
% es.EZ (V/m) @ t=0.18
4.127685909884034
% es.tEX (V/m) @ t=0.18
-1.5913173785734183
% es.tEY (V/m) @ t=0.18
0
% es.tEZ (V/m) @ t=0.18
4.127685909884022
% es.Ex (V/m) @ t=0.18
-1.591317378573404
% es.Ey (V/m) @ t=0.18
0.505554332664865
% es.Ez (V/m) @ t=0.18
4.127685909884034
% es.tEx (V/m) @ t=0.18
-1.5913173785734183
% es.tEy (V/m) @ t=0.18
0
% es.tEz (V/m) @ t=0.18
4.127685909884022
% V (V) @ t=0.18
0.021736594204825356
% es.normE (V/m) @ t=0.2
4.5280869356309355
% es.EX (V/m) @ t=0.2
-1.613984482906577
% es.EY (V/m) @ t=0.2
0.5127560394898785
% es.EZ (V/m) @ t=0.2
4.186482091146518
% es.tEX (V/m) @ t=0.2
-1.6139844829065984
% es.tEY (V/m) @ t=0.2
0
% es.tEZ (V/m) @ t=0.2
4.1864820911465195
% es.Ex (V/m) @ t=0.2
-1.613984482906577
% es.Ey (V/m) @ t=0.2
0.5127560394898785
% es.Ez (V/m) @ t=0.2
4.186482091146518
% es.tEx (V/m) @ t=0.2
-1.6139844829065984
% es.tEy (V/m) @ t=0.2
0
% es.tEz (V/m) @ t=0.2
4.1864820911465195
% V (V) @ t=0.2
0.022046196128155247
% es.normE (V/m) @ t=0.22
4.592174565517303
% es.EX (V/m) @ t=0.22
-1.6368276913562558
% es.EY (V/m) @ t=0.22
0.520013517577063
% es.EZ (V/m) @ t=0.22
4.245734900678386
% es.tEX (V/m) @ t=0.22
-1.63682769135627
% es.tEY (V/m) @ t=0.22
0
% es.tEZ (V/m) @ t=0.22
4.245734900678389
% es.Ex (V/m) @ t=0.22
-1.6368276913562558
% es.Ey (V/m) @ t=0.22
0.520013517577063
% es.Ez (V/m) @ t=0.22
4.245734900678386
% es.tEx (V/m) @ t=0.22
-1.63682769135627
% es.tEy (V/m) @ t=0.22
0
% es.tEz (V/m) @ t=0.22
4.245734900678389
% V (V) @ t=0.22
0.022358210781888127
% es.normE (V/m) @ t=0.24
4.659440225404669
% es.EX (V/m) @ t=0.24
-1.6608040272765012
% es.EY (V/m) @ t=0.24
0.5276298512697828
% es.EZ (V/m) @ t=0.24
4.307925847297865
% es.tEX (V/m) @ t=0.24
-1.6608040272765296
% es.tEY (V/m) @ t=0.24
0
% es.tEZ (V/m) @ t=0.24
4.307925847297859
% es.Ex (V/m) @ t=0.24
-1.6608040272765012
% es.Ey (V/m) @ t=0.24
0.5276298512697828
% es.Ez (V/m) @ t=0.24
4.307925847297865
% es.tEx (V/m) @ t=0.24
-1.6608040272765296
% es.tEy (V/m) @ t=0.24
0
% es.tEz (V/m) @ t=0.24
4.307925847297859
% V (V) @ t=0.24
0.022685749951195423
% es.normE (V/m) @ t=0.26
4.726705885292481
% es.EX (V/m) @ t=0.26
-1.6847803631967537
% es.EY (V/m) @ t=0.26
0.5352461849624581
% es.EZ (V/m) @ t=0.26
4.370116793917354
% es.tEX (V/m) @ t=0.26
-1.6847803631967893
% es.tEY (V/m) @ t=0.26
0
% es.tEZ (V/m) @ t=0.26
4.37011679391734
% es.Ex (V/m) @ t=0.26
-1.6847803631967537
% es.Ey (V/m) @ t=0.26
0.5352461849624581
% es.Ez (V/m) @ t=0.26
4.370116793917354
% es.tEx (V/m) @ t=0.26
-1.6847803631967893
% es.tEy (V/m) @ t=0.26
0
% es.tEz (V/m) @ t=0.26
4.37011679391734
% V (V) @ t=0.26
0.023013289120502725
% es.normE (V/m) @ t=0.28
4.793971545180746
% es.EX (V/m) @ t=0.28
-1.7087566991170346
% es.EY (V/m) @ t=0.28
0.5428625186551796
% es.EZ (V/m) @ t=0.28
4.4323077405368565
% es.tEX (V/m) @ t=0.28
-1.708756699117063
% es.tEY (V/m) @ t=0.28
0
% es.tEZ (V/m) @ t=0.28
4.432307740536864
% es.Ex (V/m) @ t=0.28
-1.7087566991170346
% es.Ey (V/m) @ t=0.28
0.5428625186551796
% es.Ez (V/m) @ t=0.28
4.4323077405368565
% es.tEx (V/m) @ t=0.28
-1.708756699117063
% es.tEy (V/m) @ t=0.28
0
% es.tEz (V/m) @ t=0.28
4.432307740536864
% V (V) @ t=0.28
0.02334082828981002
% es.normE (V/m) @ t=0.3
4.861237205069393
% es.EX (V/m) @ t=0.3
-1.7327330350373011
% es.EY (V/m) @ t=0.3
0.5504788523478674
% es.EZ (V/m) @ t=0.3
4.494498687156339
% es.tEX (V/m) @ t=0.3
-1.7327330350373367
% es.tEY (V/m) @ t=0.3
0
% es.tEZ (V/m) @ t=0.3
4.494498687156341
% es.Ex (V/m) @ t=0.3
-1.7327330350373011
% es.Ey (V/m) @ t=0.3
0.5504788523478674
% es.Ez (V/m) @ t=0.3
4.494498687156339
% es.tEx (V/m) @ t=0.3
-1.7327330350373367
% es.tEy (V/m) @ t=0.3
0
% es.tEz (V/m) @ t=0.3
4.494498687156341
% V (V) @ t=0.3
0.023668367459117316
% es.normE (V/m) @ t=0.32
4.928502864958434
% es.EX (V/m) @ t=0.32
-1.7567093709575539
% es.EY (V/m) @ t=0.32
0.5580951860405627
% es.EZ (V/m) @ t=0.32
4.556689633775836
% es.tEX (V/m) @ t=0.32
-1.7567093709575823
% es.tEY (V/m) @ t=0.32
0
% es.tEZ (V/m) @ t=0.32
4.556689633775839
% es.Ex (V/m) @ t=0.32
-1.7567093709575539
% es.Ey (V/m) @ t=0.32
0.5580951860405627
% es.Ez (V/m) @ t=0.32
4.556689633775836
% es.tEx (V/m) @ t=0.32
-1.7567093709575823
% es.tEy (V/m) @ t=0.32
0
% es.tEz (V/m) @ t=0.32
4.556689633775839
% V (V) @ t=0.32
0.02399590662842462
% es.normE (V/m) @ t=0.34
5.000914412684958
% es.EX (V/m) @ t=0.34
-1.7825201307014318
% es.EY (V/m) @ t=0.34
0.5662935723365026
% es.EZ (V/m) @ t=0.34
4.623638165649735
% es.tEX (V/m) @ t=0.34
-1.782520130701453
% es.tEY (V/m) @ t=0.34
0
% es.tEZ (V/m) @ t=0.34
4.623638165649741
% es.Ex (V/m) @ t=0.34
-1.7825201307014318
% es.Ey (V/m) @ t=0.34
0.5662935723365026
% es.Ez (V/m) @ t=0.34
4.623638165649735
% es.tEx (V/m) @ t=0.34
-1.782520130701453
% es.tEy (V/m) @ t=0.34
0
% es.tEz (V/m) @ t=0.34
4.623638165649741
% V (V) @ t=0.34
0.024348533331906827
% es.normE (V/m) @ t=0.36
5.075494262724703
% es.EX (V/m) @ t=0.36
-1.809103854323041
% es.EY (V/m) @ t=0.36
0.5747372158251904
% es.EZ (V/m) @ t=0.36
4.692591382318769
% es.tEX (V/m) @ t=0.36
-1.8091038543230766
% es.tEY (V/m) @ t=0.36
0
% es.tEZ (V/m) @ t=0.36
4.692591382318756
% es.Ex (V/m) @ t=0.36
-1.809103854323041
% es.Ey (V/m) @ t=0.36
0.5747372158251904
% es.Ez (V/m) @ t=0.36
4.692591382318769
% es.tEx (V/m) @ t=0.36
-1.8091038543230766
% es.tEy (V/m) @ t=0.36
0
% es.tEz (V/m) @ t=0.36
4.692591382318756
% V (V) @ t=0.36
0.024711731069982864
% es.normE (V/m) @ t=0.38
5.150074112766276
% es.EX (V/m) @ t=0.38
-1.8356875779446646
% es.EY (V/m) @ t=0.38
0.5831808593138801
% es.EZ (V/m) @ t=0.38
4.761544598987783
% es.tEX (V/m) @ t=0.38
-1.8356875779447002
% es.tEY (V/m) @ t=0.38
0
% es.tEZ (V/m) @ t=0.38
4.761544598987783
% es.Ex (V/m) @ t=0.38
-1.8356875779446646
% es.Ey (V/m) @ t=0.38
0.5831808593138801
% es.Ez (V/m) @ t=0.38
4.761544598987783
% es.tEx (V/m) @ t=0.38
-1.8356875779447002
% es.tEy (V/m) @ t=0.38
0
% es.tEz (V/m) @ t=0.38
4.761544598987783
% V (V) @ t=0.38
0.025074928808058904
% es.normE (V/m) @ t=0.4
5.224653962809619
% es.EX (V/m) @ t=0.4
-1.862271301566282
% es.EY (V/m) @ t=0.4
0.591624502802591
% es.EZ (V/m) @ t=0.4
4.8304978156568055
% es.tEX (V/m) @ t=0.4
-1.8622713015662962
% es.tEY (V/m) @ t=0.4
0
% es.tEZ (V/m) @ t=0.4
4.830497815656823
% es.Ex (V/m) @ t=0.4
-1.862271301566282
% es.Ey (V/m) @ t=0.4
0.591624502802591
% es.Ez (V/m) @ t=0.4
4.8304978156568055
% es.tEx (V/m) @ t=0.4
-1.8622713015662962
% es.tEy (V/m) @ t=0.4
0
% es.tEz (V/m) @ t=0.4
4.830497815656823
% V (V) @ t=0.4
0.025438126546134945
% es.normE (V/m) @ t=0.42
5.299233812854668
% es.EX (V/m) @ t=0.42
-1.888855025187905
% es.EY (V/m) @ t=0.42
0.6000681462912838
% es.EZ (V/m) @ t=0.42
4.899451032325848
% es.tEX (V/m) @ t=0.42
-1.8888550251879335
% es.tEY (V/m) @ t=0.42
0
% es.tEZ (V/m) @ t=0.42
4.899451032325857
% es.Ex (V/m) @ t=0.42
-1.888855025187905
% es.Ey (V/m) @ t=0.42
0.6000681462912838
% es.Ez (V/m) @ t=0.42
4.899451032325848
% es.tEx (V/m) @ t=0.42
-1.8888550251879335
% es.tEy (V/m) @ t=0.42
0
% es.tEz (V/m) @ t=0.42
4.899451032325857
% V (V) @ t=0.42
0.02580132428421099
% es.normE (V/m) @ t=0.44
5.373813662901304
% es.EX (V/m) @ t=0.44
-1.915438748809529
% es.EY (V/m) @ t=0.44
0.6085117897799526
% es.EZ (V/m) @ t=0.44
4.968404248994863
% es.tEX (V/m) @ t=0.44
-1.9154387488095574
% es.tEY (V/m) @ t=0.44
0
% es.tEZ (V/m) @ t=0.44
4.968404248994865
% es.Ex (V/m) @ t=0.44
-1.915438748809529
% es.Ey (V/m) @ t=0.44
0.6085117897799526
% es.Ez (V/m) @ t=0.44
4.968404248994863
% es.tEx (V/m) @ t=0.44
-1.9154387488095574
% es.tEy (V/m) @ t=0.44
0
% es.tEz (V/m) @ t=0.44
4.968404248994865
% V (V) @ t=0.44
0.02616452202228703
% es.normE (V/m) @ t=0.46
5.4483935129495125
% es.EX (V/m) @ t=0.46
-1.9420224724311388
% es.EY (V/m) @ t=0.46
0.616955433268656
% es.EZ (V/m) @ t=0.46
5.0373574656639
% es.tEX (V/m) @ t=0.46
-1.9420224724311672
% es.tEY (V/m) @ t=0.46
0
% es.tEZ (V/m) @ t=0.46
5.037357465663895
% es.Ex (V/m) @ t=0.46
-1.9420224724311388
% es.Ey (V/m) @ t=0.46
0.616955433268656
% es.Ez (V/m) @ t=0.46
5.0373574656639
% es.tEx (V/m) @ t=0.46
-1.9420224724311672
% es.tEy (V/m) @ t=0.46
0
% es.tEz (V/m) @ t=0.46
5.037357465663895
% V (V) @ t=0.46
0.026527719760363066
% es.normE (V/m) @ t=0.48
5.522973362999199
% es.EX (V/m) @ t=0.48
-1.9686061960527907
% es.EY (V/m) @ t=0.48
0.6253990767573279
% es.EZ (V/m) @ t=0.48
5.106310682332918
% es.tEX (V/m) @ t=0.48
-1.968606196052805
% es.tEY (V/m) @ t=0.48
0
% es.tEZ (V/m) @ t=0.48
5.106310682332914
% es.Ex (V/m) @ t=0.48
-1.9686061960527907
% es.Ey (V/m) @ t=0.48
0.6253990767573279
% es.Ez (V/m) @ t=0.48
5.106310682332918
% es.tEx (V/m) @ t=0.48
-1.968606196052805
% es.tEy (V/m) @ t=0.48
0
% es.tEz (V/m) @ t=0.48
5.106310682332914
% V (V) @ t=0.48
0.026890917498439103
% es.normE (V/m) @ t=0.5
5.597553213050319
% es.EX (V/m) @ t=0.5
-1.995189919674429
% es.EY (V/m) @ t=0.5
0.6338427202460033
% es.EZ (V/m) @ t=0.5
5.175263899001946
% es.tEX (V/m) @ t=0.5
-1.9951899196744574
% es.tEY (V/m) @ t=0.5
0
% es.tEZ (V/m) @ t=0.5
5.175263899001955
% es.Ex (V/m) @ t=0.5
-1.995189919674429
% es.Ey (V/m) @ t=0.5
0.6338427202460033
% es.Ez (V/m) @ t=0.5
5.175263899001946
% es.tEx (V/m) @ t=0.5
-1.9951899196744574
% es.tEy (V/m) @ t=0.5
0
% es.tEz (V/m) @ t=0.5
5.175263899001955
% V (V) @ t=0.5
0.02725411523651515
% es.normE (V/m) @ t=0.52
5.672133063102807
% es.EX (V/m) @ t=0.52
-2.021773643296024
% es.EY (V/m) @ t=0.52
0.6422863637346978
% es.EZ (V/m) @ t=0.52
5.244217115670981
% es.tEX (V/m) @ t=0.52
-2.0217736432960525
% es.tEY (V/m) @ t=0.52
0
% es.tEZ (V/m) @ t=0.52
5.244217115670981
% es.Ex (V/m) @ t=0.52
-2.021773643296024
% es.Ey (V/m) @ t=0.52
0.6422863637346978
% es.Ez (V/m) @ t=0.52
5.244217115670981
% es.tEx (V/m) @ t=0.52
-2.0217736432960525
% es.tEy (V/m) @ t=0.52
0
% es.tEz (V/m) @ t=0.52
5.244217115670981
% V (V) @ t=0.52
0.027617312974591184
% es.normE (V/m) @ t=0.54
5.746712913156603
% es.EX (V/m) @ t=0.54
-2.048357366917634
% es.EY (V/m) @ t=0.54
0.6507300072234234
% es.EZ (V/m) @ t=0.54
5.31317033234
% es.tEX (V/m) @ t=0.54
-2.0483573669176622
% es.tEY (V/m) @ t=0.54
0
% es.tEZ (V/m) @ t=0.54
5.313170332340004
% es.Ex (V/m) @ t=0.54
-2.048357366917634
% es.Ey (V/m) @ t=0.54
0.6507300072234234
% es.Ez (V/m) @ t=0.54
5.31317033234
% es.tEx (V/m) @ t=0.54
-2.0483573669176622
% es.tEy (V/m) @ t=0.54
0
% es.tEz (V/m) @ t=0.54
5.313170332340004
% V (V) @ t=0.54
0.027980510712667227
% es.normE (V/m) @ t=0.56
5.826188731612932
% es.EX (V/m) @ t=0.56
-2.0766848638601436
% es.EY (V/m) @ t=0.56
0.6597319039366738
% es.EZ (V/m) @ t=0.56
5.386650679813863
% es.tEX (V/m) @ t=0.56
-2.076684863860179
% es.tEY (V/m) @ t=0.56
0
% es.tEZ (V/m) @ t=0.56
5.386650679813872
% es.Ex (V/m) @ t=0.56
-2.0766848638601436
% es.Ey (V/m) @ t=0.56
0.6597319039366738
% es.Ez (V/m) @ t=0.56
5.386650679813863
% es.tEx (V/m) @ t=0.56
-2.076684863860179
% es.tEy (V/m) @ t=0.56
0
% es.tEz (V/m) @ t=0.56
5.386650679813872
% V (V) @ t=0.56
0.028367352314892222
% es.normE (V/m) @ t=0.58
5.906585850836237
% es.EX (V/m) @ t=0.58
-2.1053404960266766
% es.EY (V/m) @ t=0.58
0.6688388501678877
% es.EZ (V/m) @ t=0.58
5.460982921890601
% es.tEX (V/m) @ t=0.58
-2.1053404960267335
% es.tEY (V/m) @ t=0.58
0
% es.tEZ (V/m) @ t=0.58
5.460982921890601
% es.Ex (V/m) @ t=0.58
-2.1053404960266766
% es.Ey (V/m) @ t=0.58
0.6688388501678877
% es.Ez (V/m) @ t=0.58
5.460982921890601
% es.tEx (V/m) @ t=0.58
-2.1053404960267335
% es.tEy (V/m) @ t=0.58
0
% es.tEz (V/m) @ t=0.58
5.460982921890601
% V (V) @ t=0.58
0.028758643110464496
% es.normE (V/m) @ t=0.6
5.986982970065381
% es.EX (V/m) @ t=0.6
-2.1339961281931954
% es.EY (V/m) @ t=0.6
0.6779457963991415
% es.EZ (V/m) @ t=0.6
5.535315163967333
% es.tEX (V/m) @ t=0.6
-2.133996128193231
% es.tEY (V/m) @ t=0.6
0
% es.tEZ (V/m) @ t=0.6
5.535315163967336
% es.Ex (V/m) @ t=0.6
-2.1339961281931954
% es.Ey (V/m) @ t=0.6
0.6779457963991415
% es.Ez (V/m) @ t=0.6
5.535315163967333
% es.tEx (V/m) @ t=0.6
-2.133996128193231
% es.tEy (V/m) @ t=0.6
0
% es.tEz (V/m) @ t=0.6
5.535315163967336
% V (V) @ t=0.6
0.029149933906036762
% es.normE (V/m) @ t=0.62
6.0673800893001335
% es.EX (V/m) @ t=0.62
-2.1626517603597284
% es.EY (V/m) @ t=0.62
0.6870527426303736
% es.EZ (V/m) @ t=0.62
5.609647406044058
% es.tEX (V/m) @ t=0.62
-2.162651760359757
% es.tEY (V/m) @ t=0.62
0
% es.tEZ (V/m) @ t=0.62
5.609647406044058
% es.Ex (V/m) @ t=0.62
-2.1626517603597284
% es.Ey (V/m) @ t=0.62
0.6870527426303736
% es.Ez (V/m) @ t=0.62
5.609647406044058
% es.tEx (V/m) @ t=0.62
-2.162651760359757
% es.tEy (V/m) @ t=0.62
0
% es.tEz (V/m) @ t=0.62
5.609647406044058
% V (V) @ t=0.62
0.029541224701609047
% es.normE (V/m) @ t=0.64
6.147777208540282
% es.EX (V/m) @ t=0.64
-2.1913073925262405
% es.EY (V/m) @ t=0.64
0.6961596888616182
% es.EZ (V/m) @ t=0.64
5.6839796481207845
% es.tEX (V/m) @ t=0.64
-2.191307392526283
% es.tEY (V/m) @ t=0.64
0
% es.tEZ (V/m) @ t=0.64
5.683979648120783
% es.Ex (V/m) @ t=0.64
-2.1913073925262405
% es.Ey (V/m) @ t=0.64
0.6961596888616182
% es.Ez (V/m) @ t=0.64
5.6839796481207845
% es.tEx (V/m) @ t=0.64
-2.191307392526283
% es.tEy (V/m) @ t=0.64
0
% es.tEz (V/m) @ t=0.64
5.683979648120783
% V (V) @ t=0.64
0.029932515497181313
% es.normE (V/m) @ t=0.66
6.228174327785629
% es.EX (V/m) @ t=0.66
-2.219963024692752
% es.EY (V/m) @ t=0.66
0.7052666350928929
% es.EZ (V/m) @ t=0.66
5.758311890197527
% es.tEX (V/m) @ t=0.66
-2.219963024692809
% es.tEY (V/m) @ t=0.66
0
% es.tEZ (V/m) @ t=0.66
5.758311890197529
% es.Ex (V/m) @ t=0.66
-2.219963024692752
% es.Ey (V/m) @ t=0.66
0.7052666350928929
% es.Ez (V/m) @ t=0.66
5.758311890197527
% es.tEx (V/m) @ t=0.66
-2.219963024692809
% es.tEy (V/m) @ t=0.66
0
% es.tEz (V/m) @ t=0.66
5.758311890197529
% V (V) @ t=0.66
0.030323806292753587
% es.normE (V/m) @ t=0.68
6.308571447035966
% es.EX (V/m) @ t=0.68
-2.2486186568593065
% es.EY (V/m) @ t=0.68
0.7143735813241676
% es.EZ (V/m) @ t=0.68
5.832644132274254
% es.tEX (V/m) @ t=0.68
-2.248618656859335
% es.tEY (V/m) @ t=0.68
0
% es.tEZ (V/m) @ t=0.68
5.832644132274247
% es.Ex (V/m) @ t=0.68
-2.2486186568593065
% es.Ey (V/m) @ t=0.68
0.7143735813241676
% es.Ez (V/m) @ t=0.68
5.832644132274254
% es.tEx (V/m) @ t=0.68
-2.248618656859335
% es.tEy (V/m) @ t=0.68
0
% es.tEz (V/m) @ t=0.68
5.832644132274247
% V (V) @ t=0.68
0.030715097088325864
% es.normE (V/m) @ t=0.7
6.38896856629108
% es.EX (V/m) @ t=0.7
-2.277274289025833
% es.EY (V/m) @ t=0.7
0.7234805275553651
% es.EZ (V/m) @ t=0.7
5.906976374350981
% es.tEX (V/m) @ t=0.7
-2.2772742890258613
% es.tEY (V/m) @ t=0.7
0
% es.tEZ (V/m) @ t=0.7
5.906976374350972
% es.Ex (V/m) @ t=0.7
-2.277274289025833
% es.Ey (V/m) @ t=0.7
0.7234805275553651
% es.Ez (V/m) @ t=0.7
5.906976374350981
% es.tEx (V/m) @ t=0.7
-2.2772742890258613
% es.tEy (V/m) @ t=0.7
0
% es.tEz (V/m) @ t=0.7
5.906976374350972
% V (V) @ t=0.7
0.031106387883898138
% es.normE (V/m) @ t=0.72
6.469365685550818
% es.EX (V/m) @ t=0.72
-2.3059299211923725
% es.EY (V/m) @ t=0.72
0.732587473786575
% es.EZ (V/m) @ t=0.72
5.981308616427702
% es.tEX (V/m) @ t=0.72
-2.305929921192415
% es.tEY (V/m) @ t=0.72
0
% es.tEZ (V/m) @ t=0.72
5.981308616427707
% es.Ex (V/m) @ t=0.72
-2.3059299211923725
% es.Ey (V/m) @ t=0.72
0.732587473786575
% es.Ez (V/m) @ t=0.72
5.981308616427702
% es.tEx (V/m) @ t=0.72
-2.305929921192415
% es.tEy (V/m) @ t=0.72
0
% es.tEz (V/m) @ t=0.72
5.981308616427707
% V (V) @ t=0.72
0.03149767867947041
% es.normE (V/m) @ t=0.74
6.550071740412319
% es.EX (V/m) @ t=0.74
-2.334695779853121
% es.EY (V/m) @ t=0.74
0.7417290880291327
% es.EZ (V/m) @ t=0.74
6.05592644482139
% es.tEX (V/m) @ t=0.74
-2.3346957798531496
% es.tEY (V/m) @ t=0.74
0
% es.tEZ (V/m) @ t=0.74
6.055926444821402
% es.Ex (V/m) @ t=0.74
-2.334695779853121
% es.Ey (V/m) @ t=0.74
0.7417290880291327
% es.Ez (V/m) @ t=0.74
6.05592644482139
% es.tEx (V/m) @ t=0.74
-2.3346957798531496
% es.tEy (V/m) @ t=0.74
0
% es.tEz (V/m) @ t=0.74
6.055926444821402
% V (V) @ t=0.74
0.031890489509993965
% es.normE (V/m) @ t=0.76
6.635157030657382
% es.EX (V/m) @ t=0.76
-2.3650241252185893
% es.EY (V/m) @ t=0.76
0.7513621295563313
% es.EZ (V/m) @ t=0.76
6.134592527007362
% es.tEX (V/m) @ t=0.76
-2.365024125218632
% es.tEY (V/m) @ t=0.76
0
% es.tEZ (V/m) @ t=0.76
6.134592527007364
% es.Ex (V/m) @ t=0.76
-2.3650241252185893
% es.Ey (V/m) @ t=0.76
0.7513621295563313
% es.Ez (V/m) @ t=0.76
6.134592527007362
% es.tEx (V/m) @ t=0.76
-2.365024125218632
% es.tEy (V/m) @ t=0.76
0
% es.tEz (V/m) @ t=0.76
6.134592527007364
% V (V) @ t=0.76
0.032304847196549184
% es.normE (V/m) @ t=0.78
6.720242320904589
% es.EX (V/m) @ t=0.78
-2.3953524705840574
% es.EY (V/m) @ t=0.78
0.7609951710835317
% es.EZ (V/m) @ t=0.78
6.2132586091933515
% es.tEX (V/m) @ t=0.78
-2.395352470584086
% es.tEY (V/m) @ t=0.78
0
% es.tEZ (V/m) @ t=0.78
6.213258609193378
% es.Ex (V/m) @ t=0.78
-2.3953524705840574
% es.Ey (V/m) @ t=0.78
0.7609951710835317
% es.Ez (V/m) @ t=0.78
6.2132586091933515
% es.tEx (V/m) @ t=0.78
-2.395352470584086
% es.tEy (V/m) @ t=0.78
0
% es.tEz (V/m) @ t=0.78
6.213258609193378
% V (V) @ t=0.78
0.032719204883104404
% es.normE (V/m) @ t=0.8
6.805327611153867
% es.EX (V/m) @ t=0.8
-2.4256808159495393
% es.EY (V/m) @ t=0.8
0.7706282126106796
% es.EZ (V/m) @ t=0.8
6.291924691379354
% es.tEX (V/m) @ t=0.8
-2.4256808159495677
% es.tEY (V/m) @ t=0.8
0
% es.tEZ (V/m) @ t=0.8
6.291924691379368
% es.Ex (V/m) @ t=0.8
-2.4256808159495393
% es.Ey (V/m) @ t=0.8
0.7706282126106796
% es.Ez (V/m) @ t=0.8
6.291924691379354
% es.tEx (V/m) @ t=0.8
-2.4256808159495677
% es.tEy (V/m) @ t=0.8
0
% es.tEz (V/m) @ t=0.8
6.291924691379368
% V (V) @ t=0.8
0.03313356256965962
% es.normE (V/m) @ t=0.82
6.890412901405109
% es.EX (V/m) @ t=0.82
-2.456009161315036
% es.EY (V/m) @ t=0.82
0.7802612541378613
% es.EZ (V/m) @ t=0.82
6.3705907735653415
% es.tEX (V/m) @ t=0.82
-2.45600916131505
% es.tEY (V/m) @ t=0.82
0
% es.tEZ (V/m) @ t=0.82
6.370590773565354
% es.Ex (V/m) @ t=0.82
-2.456009161315036
% es.Ey (V/m) @ t=0.82
0.7802612541378613
% es.Ez (V/m) @ t=0.82
6.3705907735653415
% es.tEx (V/m) @ t=0.82
-2.45600916131505
% es.tEy (V/m) @ t=0.82
0
% es.tEz (V/m) @ t=0.82
6.370590773565354
% V (V) @ t=0.82
0.03354792025621484
% es.normE (V/m) @ t=0.84
6.97549819165822
% es.EX (V/m) @ t=0.84
-2.4863375066804756
% es.EY (V/m) @ t=0.84
0.7898942956650807
% es.EZ (V/m) @ t=0.84
6.449256855751301
% es.tEX (V/m) @ t=0.84
-2.486337506680504
% es.tEY (V/m) @ t=0.84
0
% es.tEZ (V/m) @ t=0.84
6.4492568557512975
% es.Ex (V/m) @ t=0.84
-2.4863375066804756
% es.Ey (V/m) @ t=0.84
0.7898942956650807
% es.Ez (V/m) @ t=0.84
6.449256855751301
% es.tEx (V/m) @ t=0.84
-2.486337506680504
% es.tEy (V/m) @ t=0.84
0
% es.tEz (V/m) @ t=0.84
6.4492568557512975
% V (V) @ t=0.84
0.033962277942770056
% es.normE (V/m) @ t=0.86
7.060583481913193
% es.EX (V/m) @ t=0.86
-2.5166658520459437
% es.EY (V/m) @ t=0.86
0.7995273371922442
% es.EZ (V/m) @ t=0.86
6.527922937937285
% es.tEX (V/m) @ t=0.86
-2.516665852046015
% es.tEY (V/m) @ t=0.86
0
% es.tEZ (V/m) @ t=0.86
6.527922937937287
% es.Ex (V/m) @ t=0.86
-2.5166658520459437
% es.Ey (V/m) @ t=0.86
0.7995273371922442
% es.Ez (V/m) @ t=0.86
6.527922937937285
% es.tEx (V/m) @ t=0.86
-2.516665852046015
% es.tEy (V/m) @ t=0.86
0
% es.tEz (V/m) @ t=0.86
6.527922937937287
% V (V) @ t=0.86
0.034376635629325275
% es.normE (V/m) @ t=0.88
7.145668772169975
% es.EX (V/m) @ t=0.88
-2.5469941974114407
% es.EY (V/m) @ t=0.88
0.8091603787194828
% es.EZ (V/m) @ t=0.88
6.606589020123293
% es.tEX (V/m) @ t=0.88
-2.546994197411469
% es.tEY (V/m) @ t=0.88
0
% es.tEZ (V/m) @ t=0.88
6.606589020123295
% es.Ex (V/m) @ t=0.88
-2.5469941974114407
% es.Ey (V/m) @ t=0.88
0.8091603787194828
% es.Ez (V/m) @ t=0.88
6.606589020123293
% es.tEx (V/m) @ t=0.88
-2.546994197411469
% es.tEy (V/m) @ t=0.88
0
% es.tEz (V/m) @ t=0.88
6.606589020123295
% V (V) @ t=0.88
0.034790993315880495
% es.normE (V/m) @ t=0.9
7.230754062428421
% es.EX (V/m) @ t=0.9
-2.577322542776923
% es.EY (V/m) @ t=0.9
0.8187934202466263
% es.EZ (V/m) @ t=0.9
6.685255102309268
% es.tEX (V/m) @ t=0.9
-2.5773225427769515
% es.tEY (V/m) @ t=0.9
0
% es.tEZ (V/m) @ t=0.9
6.685255102309274
% es.Ex (V/m) @ t=0.9
-2.577322542776923
% es.Ey (V/m) @ t=0.9
0.8187934202466263
% es.Ez (V/m) @ t=0.9
6.685255102309268
% es.tEx (V/m) @ t=0.9
-2.5773225427769515
% es.tEy (V/m) @ t=0.9
0
% es.tEz (V/m) @ t=0.9
6.685255102309274
% V (V) @ t=0.9
0.03520535100243572
% es.normE (V/m) @ t=0.92
7.315839352688533
% es.EX (V/m) @ t=0.92
-2.6076508881423766
% es.EY (V/m) @ t=0.92
0.8284264617738044
% es.EZ (V/m) @ t=0.92
6.763921184495272
% es.tEX (V/m) @ t=0.92
-2.607650888142405
% es.tEY (V/m) @ t=0.92
0
% es.tEZ (V/m) @ t=0.92
6.763921184495274
% es.Ex (V/m) @ t=0.92
-2.6076508881423766
% es.Ey (V/m) @ t=0.92
0.8284264617738044
% es.Ez (V/m) @ t=0.92
6.763921184495272
% es.tEx (V/m) @ t=0.92
-2.607650888142405
% es.tEy (V/m) @ t=0.92
0
% es.tEz (V/m) @ t=0.92
6.763921184495274
% V (V) @ t=0.92
0.03561970868899094
% es.normE (V/m) @ t=0.94
7.40172594775819
% es.EX (V/m) @ t=0.94
-2.638264675681225
% es.EY (V/m) @ t=0.94
0.8381507411258085
% es.EZ (V/m) @ t=0.94
6.843328187559349
% es.tEX (V/m) @ t=0.94
-2.6382646756812536
% es.tEY (V/m) @ t=0.94
0
% es.tEZ (V/m) @ t=0.94
6.843328187559354
% es.Ex (V/m) @ t=0.94
-2.638264675681225
% es.Ey (V/m) @ t=0.94
0.8381507411258085
% es.Ez (V/m) @ t=0.94
6.843328187559349
% es.tEx (V/m) @ t=0.94
-2.6382646756812536
% es.tEy (V/m) @ t=0.94
0
% es.tEz (V/m) @ t=0.94
6.843328187559354
% V (V) @ t=0.94
0.03603794261473435
% es.normE (V/m) @ t=0.96
7.489572767144734
% es.EX (V/m) @ t=0.96
-2.669576737688731
% es.EY (V/m) @ t=0.96
0.8480982146992861
% es.EZ (V/m) @ t=0.96
6.924547698307558
% es.tEX (V/m) @ t=0.96
-2.6695767376887596
% es.tEY (V/m) @ t=0.96
0
% es.tEZ (V/m) @ t=0.96
6.924547698307567
% es.Ex (V/m) @ t=0.96
-2.669576737688731
% es.Ey (V/m) @ t=0.96
0.8480982146992861
% es.Ez (V/m) @ t=0.96
6.924547698307558
% es.tEx (V/m) @ t=0.96
-2.6695767376887596
% es.tEy (V/m) @ t=0.96
0
% es.tEz (V/m) @ t=0.96
6.924547698307567
% V (V) @ t=0.96
0.03646565894746902
% es.normE (V/m) @ t=0.98
7.577419586531283
% es.EX (V/m) @ t=0.98
-2.7008887996961954
% es.EY (V/m) @ t=0.98
0.8580456882727612
% es.EZ (V/m) @ t=0.98
7.00576720905579
% es.tEX (V/m) @ t=0.98
-2.7008887996962665
% es.tEY (V/m) @ t=0.98
0
% es.tEZ (V/m) @ t=0.98
7.005767209055804
% es.Ex (V/m) @ t=0.98
-2.7008887996961954
% es.Ey (V/m) @ t=0.98
0.8580456882727612
% es.Ez (V/m) @ t=0.98
7.00576720905579
% es.tEx (V/m) @ t=0.98
-2.7008887996962665
% es.tEy (V/m) @ t=0.98
0
% es.tEz (V/m) @ t=0.98
7.005767209055804
% V (V) @ t=0.98
0.03689337528020369
% es.normE (V/m) @ t=1
7.665266405917842
% es.EX (V/m) @ t=1
-2.7322008617036593
% es.EY (V/m) @ t=1
0.867993161846254
% es.EZ (V/m) @ t=1
7.0869867198040275
% es.tEX (V/m) @ t=1
-2.732200861703716
% es.tEY (V/m) @ t=1
0
% es.tEZ (V/m) @ t=1
7.086986719804031
% es.Ex (V/m) @ t=1
-2.7322008617036593
% es.Ey (V/m) @ t=1
0.867993161846254
% es.Ez (V/m) @ t=1
7.0869867198040275
% es.tEx (V/m) @ t=1
-2.732200861703716
% es.tEy (V/m) @ t=1
0
% es.tEz (V/m) @ t=1
7.086986719804031
% V (V) @ t=1
0.03732109161293837
% es.normE (V/m) @ t=1.02
7.753113225304411
% es.EX (V/m) @ t=1.02
-2.7635129237112372
% es.EY (V/m) @ t=1.02
0.8779406354197752
% es.EZ (V/m) @ t=1.02
7.168206230552226
% es.tEX (V/m) @ t=1.02
-2.7635129237112515
% es.tEY (V/m) @ t=1.02
0
% es.tEZ (V/m) @ t=1.02
7.168206230552244
% es.Ex (V/m) @ t=1.02
-2.7635129237112372
% es.Ey (V/m) @ t=1.02
0.8779406354197752
% es.Ez (V/m) @ t=1.02
7.168206230552226
% es.tEx (V/m) @ t=1.02
-2.7635129237112515
% es.tEy (V/m) @ t=1.02
0
% es.tEz (V/m) @ t=1.02
7.168206230552244
% V (V) @ t=1.02
0.03774880794567304
% es.normE (V/m) @ t=1.04
7.840960044690982
% es.EX (V/m) @ t=1.04
-2.7948249857187575
% es.EY (V/m) @ t=1.04
0.8878881089932564
% es.EZ (V/m) @ t=1.04
7.249425741300456
% es.tEX (V/m) @ t=1.04
-2.7948249857188143
% es.tEY (V/m) @ t=1.04
0
% es.tEZ (V/m) @ t=1.04
7.249425741300463
% es.Ex (V/m) @ t=1.04
-2.7948249857187575
% es.Ey (V/m) @ t=1.04
0.8878881089932564
% es.Ez (V/m) @ t=1.04
7.249425741300456
% es.tEx (V/m) @ t=1.04
-2.7948249857188143
% es.tEy (V/m) @ t=1.04
0
% es.tEz (V/m) @ t=1.04
7.249425741300463
% V (V) @ t=1.04