% Model:              1 neuron.mph
% Version:            COMSOL 6.0.0.405
% Date:               Mar 16 2023, 19:46
% Dimension:          0
% Nodes:              14017
% Expressions:        14017
% Description:        Electric field norm, Electric field, X component, Electric field, Y component, Electric field, Z component, Tangential electric field, X component, Tangential electric field, Y component, Tangential electric field, Z component, Electric field, x component, Electric field, y component, Electric field, z component, Tangential electric field, x component, Tangential electric field, y component, Tangential electric field, z component, Electric potential
% Length unit:        mm
% x
1.0000000000000002
% y
12.2
% z
2
% es.normE (V/m) @ t=0
1.0497106331796267
% es.EX (V/m) @ t=0
0.7291357339987465
% es.EY (V/m) @ t=0
0.10917948989304199
% es.EZ (V/m) @ t=0
-0.7280750052770077
% es.tEX (V/m) @ t=0
0.7291357339987523
% es.tEY (V/m) @ t=0
0
% es.tEZ (V/m) @ t=0
-0.7280750052769935
% es.Ex (V/m) @ t=0
0.7291357339987465
% es.Ey (V/m) @ t=0
0.10917948989304199
% es.Ez (V/m) @ t=0
-0.7280750052770077
% es.tEx (V/m) @ t=0
0.7291357339987523
% es.tEy (V/m) @ t=0
0
% es.tEz (V/m) @ t=0
-0.7280750052769935
% V (V) @ t=0
0.01124103845910829
% es.normE (V/m) @ t=0.02
0.9116819974833228
% es.EX (V/m) @ t=0.02
0.6332601580808064
% es.EY (V/m) @ t=0.02
0.09482325378046319
% es.EZ (V/m) @ t=0.02
-0.6323389075129409
% es.tEX (V/m) @ t=0.02
0.6332601580808102
% es.tEY (V/m) @ t=0.02
0
% es.tEZ (V/m) @ t=0.02
-0.6323389075129335
% es.Ex (V/m) @ t=0.02
0.6332601580808064
% es.Ey (V/m) @ t=0.02
0.09482325378046319
% es.Ez (V/m) @ t=0.02
-0.6323389075129409
% es.tEx (V/m) @ t=0.02
0.6332601580808102
% es.tEy (V/m) @ t=0.02
0
% es.tEz (V/m) @ t=0.02
-0.6323389075129335
% V (V) @ t=0.02
0.009762930756068917
% es.normE (V/m) @ t=0.04
0.9252001096271568
% es.EX (V/m) @ t=0.04
0.6426499246891411
% es.EY (V/m) @ t=0.04
0.09622926282192446
% es.EZ (V/m) @ t=0.04
-0.6417150147113972
% es.tEX (V/m) @ t=0.04
0.6426499246891426
% es.tEY (V/m) @ t=0.04
0
% es.tEZ (V/m) @ t=0.04
-0.6417150147113828
% es.Ex (V/m) @ t=0.04
0.6426499246891411
% es.Ey (V/m) @ t=0.04
0.09622926282192446
% es.Ez (V/m) @ t=0.04
-0.6417150147113972
% es.tEx (V/m) @ t=0.04
0.6426499246891426
% es.tEy (V/m) @ t=0.04
0
% es.tEz (V/m) @ t=0.04
-0.6417150147113828
% V (V) @ t=0.04
0.009907692051026056
% es.normE (V/m) @ t=0.06
0.9389250849567068
% es.EX (V/m) @ t=0.06
0.6521833822767182
% es.EY (V/m) @ t=0.06
0.09765678119377275
% es.EZ (V/m) @ t=0.06
-0.651234601705881
% es.tEX (V/m) @ t=0.06
0.6521833822767173
% es.tEY (V/m) @ t=0.06
0
% es.tEZ (V/m) @ t=0.06
-0.6512346017058737
% es.Ex (V/m) @ t=0.06
0.6521833822767182
% es.Ey (V/m) @ t=0.06
0.09765678119377275
% es.Ez (V/m) @ t=0.06
-0.651234601705881
% es.tEx (V/m) @ t=0.06
0.6521833822767173
% es.tEy (V/m) @ t=0.06
0
% es.tEz (V/m) @ t=0.06
-0.6512346017058737
% V (V) @ t=0.06
0.010054669046640112
% es.normE (V/m) @ t=0.08
0.9529906284355163
% es.EX (V/m) @ t=0.08
0.6619533985175434
% es.EY (V/m) @ t=0.08
0.09911972740244435
% es.EZ (V/m) @ t=0.08
-0.6609904050321516
% es.tEX (V/m) @ t=0.08
0.6619533985175461
% es.tEY (V/m) @ t=0.08
0
% es.tEZ (V/m) @ t=0.08
-0.6609904050321407
% es.Ex (V/m) @ t=0.08
0.6619533985175434
% es.Ey (V/m) @ t=0.08
0.09911972740244435
% es.Ez (V/m) @ t=0.08
-0.6609904050321516
% es.tEx (V/m) @ t=0.08
0.6619533985175461
% es.tEy (V/m) @ t=0.08
0
% es.tEz (V/m) @ t=0.08
-0.6609904050321407
% V (V) @ t=0.08
0.010205292680287166
% es.normE (V/m) @ t=0.1
0.9673135700855493
% es.EX (V/m) @ t=0.1
0.6719022035407785
% es.EY (V/m) @ t=0.1
0.1006094496335857
% es.EZ (V/m) @ t=0.1
-0.6709247384175145
% es.tEX (V/m) @ t=0.1
0.6719022035407778
% es.tEY (V/m) @ t=0.1
0
% es.tEZ (V/m) @ t=0.1
-0.6709247384175034
% es.Ex (V/m) @ t=0.1
0.6719022035407785
% es.Ey (V/m) @ t=0.1
0.1006094496335857
% es.Ez (V/m) @ t=0.1
-0.6709247384175145
% es.tEx (V/m) @ t=0.1
0.6719022035407778
% es.tEy (V/m) @ t=0.1
0
% es.tEz (V/m) @ t=0.1
-0.6709247384175034
% V (V) @ t=0.1
0.01035867240831036
% es.normE (V/m) @ t=0.12
0.9816365117355945
% es.EX (V/m) @ t=0.12
0.6818510085640137
% es.EY (V/m) @ t=0.12
0.10209917186472794
% es.EZ (V/m) @ t=0.12
-0.6808590718028917
% es.tEX (V/m) @ t=0.12
0.6818510085640135
% es.tEY (V/m) @ t=0.12
0
% es.tEZ (V/m) @ t=0.12
-0.680859071802888
% es.Ex (V/m) @ t=0.12
0.6818510085640137
% es.Ey (V/m) @ t=0.12
0.10209917186472794
% es.Ez (V/m) @ t=0.12
-0.6808590718028917
% es.tEx (V/m) @ t=0.12
0.6818510085640135
% es.tEy (V/m) @ t=0.12
0
% es.tEz (V/m) @ t=0.12
-0.680859071802888
% V (V) @ t=0.12
0.010512052136333555
% es.normE (V/m) @ t=0.14
0.9961527486540176
% es.EX (V/m) @ t=0.14
0.6919340769918438
% es.EY (V/m) @ t=0.14
0.10360900036657789
% es.EZ (V/m) @ t=0.14
-0.6909274739227311
% es.tEX (V/m) @ t=0.14
0.6919340769918443
% es.tEY (V/m) @ t=0.14
0
% es.tEZ (V/m) @ t=0.14
-0.6909274739227129
% es.Ex (V/m) @ t=0.14
0.6919340769918438
% es.Ey (V/m) @ t=0.14
0.10360900036657789
% es.Ez (V/m) @ t=0.14
-0.6909274739227311
% es.tEx (V/m) @ t=0.14
0.6919340769918443
% es.tEy (V/m) @ t=0.14
0
% es.tEz (V/m) @ t=0.14
-0.6909274739227129
% V (V) @ t=0.14
0.010667501670284511
% es.normE (V/m) @ t=0.16
1.011772026785233
% es.EX (V/m) @ t=0.16
0.7027833207631027
% es.EY (V/m) @ t=0.16
0.10523356548574597
% es.EZ (V/m) @ t=0.16
-0.7017609404991143
% es.tEX (V/m) @ t=0.16
0.7027833207631078
% es.tEY (V/m) @ t=0.16
0
% es.tEZ (V/m) @ t=0.16
-0.7017609404991036
% es.Ex (V/m) @ t=0.16
0.7027833207631027
% es.Ey (V/m) @ t=0.16
0.10523356548574597
% es.Ez (V/m) @ t=0.16
-0.7017609404991143
% es.tEx (V/m) @ t=0.16
0.7027833207631078
% es.tEy (V/m) @ t=0.16
0
% es.tEz (V/m) @ t=0.16
-0.7017609404991036
% V (V) @ t=0.16
0.010834762570648587
% es.normE (V/m) @ t=0.18
1.0273913049164478
% es.EX (V/m) @ t=0.18
0.7136325645343613
% es.EY (V/m) @ t=0.18
0.10685813060486948
% es.EZ (V/m) @ t=0.18
-0.7125944070754984
% es.tEX (V/m) @ t=0.18
0.7136325645343602
% es.tEY (V/m) @ t=0.18
0
% es.tEZ (V/m) @ t=0.18
-0.7125944070754873
% es.Ex (V/m) @ t=0.18
0.7136325645343613
% es.Ey (V/m) @ t=0.18
0.10685813060486948
% es.Ez (V/m) @ t=0.18
-0.7125944070754984
% es.tEx (V/m) @ t=0.18
0.7136325645343602
% es.tEy (V/m) @ t=0.18
0
% es.tEz (V/m) @ t=0.18
-0.7125944070754873
% V (V) @ t=0.18
0.011002023471012663
% es.normE (V/m) @ t=0.2
1.0430105830476522
% es.EX (V/m) @ t=0.2
0.7244818083056135
% es.EY (V/m) @ t=0.2
0.1084826957240031
% es.EZ (V/m) @ t=0.2
-0.7234278736518736
% es.tEX (V/m) @ t=0.2
0.7244818083056201
% es.tEY (V/m) @ t=0.2
0
% es.tEZ (V/m) @ t=0.2
-0.7234278736518629
% es.Ex (V/m) @ t=0.2
0.7244818083056135
% es.Ey (V/m) @ t=0.2
0.1084826957240031
% es.Ez (V/m) @ t=0.2
-0.7234278736518736
% es.tEx (V/m) @ t=0.2
0.7244818083056201
% es.tEy (V/m) @ t=0.2
0
% es.tEz (V/m) @ t=0.2
-0.7234278736518629
% V (V) @ t=0.2
0.011169284371376742
% es.normE (V/m) @ t=0.22
1.0586298611788734
% es.EX (V/m) @ t=0.22
0.7353310520768763
% es.EY (V/m) @ t=0.22
0.11010726084314876
% es.EZ (V/m) @ t=0.22
-0.7342613402282576
% es.tEX (V/m) @ t=0.22
0.7353310520768788
% es.tEY (V/m) @ t=0.22
0
% es.tEZ (V/m) @ t=0.22
-0.7342613402282394
% es.Ex (V/m) @ t=0.22
0.7353310520768763
% es.Ey (V/m) @ t=0.22
0.11010726084314876
% es.Ez (V/m) @ t=0.22
-0.7342613402282576
% es.tEx (V/m) @ t=0.22
0.7353310520768788
% es.tEy (V/m) @ t=0.22
0
% es.tEz (V/m) @ t=0.22
-0.7342613402282394
% V (V) @ t=0.22
0.011336545271740817
% es.normE (V/m) @ t=0.24
1.0742491393100897
% es.EX (V/m) @ t=0.24
0.7461802958481332
% es.EY (V/m) @ t=0.24
0.11173182596230724
% es.EZ (V/m) @ t=0.24
-0.7450948068046435
% es.tEX (V/m) @ t=0.24
0.7461802958481356
% es.tEY (V/m) @ t=0.24
0
% es.tEZ (V/m) @ t=0.24
-0.7450948068046364
% es.Ex (V/m) @ t=0.24
0.7461802958481332
% es.Ey (V/m) @ t=0.24
0.11173182596230724
% es.Ez (V/m) @ t=0.24
-0.7450948068046435
% es.tEx (V/m) @ t=0.24
0.7461802958481356
% es.tEy (V/m) @ t=0.24
0
% es.tEz (V/m) @ t=0.24
-0.7450948068046364
% V (V) @ t=0.24
0.011503806172104893
% es.normE (V/m) @ t=0.26
1.089868417441304
% es.EX (V/m) @ t=0.26
0.75702953961939
% es.EY (V/m) @ t=0.26
0.11335639108142359
% es.EZ (V/m) @ t=0.26
-0.755928273381024
% es.tEX (V/m) @ t=0.26
0.7570295396193907
% es.tEY (V/m) @ t=0.26
0
% es.tEZ (V/m) @ t=0.26
-0.7559282733810058
% es.Ex (V/m) @ t=0.26
0.75702953961939
% es.Ey (V/m) @ t=0.26
0.11335639108142359
% es.Ez (V/m) @ t=0.26
-0.755928273381024
% es.tEx (V/m) @ t=0.26
0.7570295396193907
% es.tEy (V/m) @ t=0.26
0
% es.tEz (V/m) @ t=0.26
-0.7559282733810058
% V (V) @ t=0.26
0.011671067072468972
% es.normE (V/m) @ t=0.28
1.105919255170622
% es.EX (V/m) @ t=0.28
0.7681785470797078
% es.EY (V/m) @ t=0.28
0.11502584332400967
% es.EZ (V/m) @ t=0.28
-0.767061067865948
% es.tEX (V/m) @ t=0.28
0.7681785470797102
% es.tEY (V/m) @ t=0.28
0
% es.tEZ (V/m) @ t=0.28
-0.7670610678659333
% es.Ex (V/m) @ t=0.28
0.7681785470797078
% es.Ey (V/m) @ t=0.28
0.11502584332400967
% es.Ez (V/m) @ t=0.28
-0.767061067865948
% es.tEx (V/m) @ t=0.28
0.7681785470797102
% es.tEy (V/m) @ t=0.28
0
% es.tEz (V/m) @ t=0.28
-0.7670610678659333
% V (V) @ t=0.28
0.011842949346195597
% es.normE (V/m) @ t=0.3
1.1229386164593516
% es.EX (V/m) @ t=0.3
0.7800002963730988
% es.EY (V/m) @ t=0.3
0.1167960330700955
% es.EZ (V/m) @ t=0.3
-0.7788656261876441
% es.tEX (V/m) @ t=0.3
0.780000296373101
% es.tEY (V/m) @ t=0.3
0
% es.tEZ (V/m) @ t=0.3
-0.7788656261876294
% es.Ex (V/m) @ t=0.3
0.7800002963730988
% es.Ey (V/m) @ t=0.3
0.1167960330700955
% es.Ez (V/m) @ t=0.3
-0.7788656261876441
% es.tEx (V/m) @ t=0.3
0.780000296373101
% es.tEy (V/m) @ t=0.3
0
% es.tEz (V/m) @ t=0.3
-0.7788656261876294
% V (V) @ t=0.3
0.01202520309352204
% es.normE (V/m) @ t=0.32
1.139957977748089
% es.EX (V/m) @ t=0.32
0.791822045666484
% es.EY (V/m) @ t=0.32
0.11856622281615958
% es.EZ (V/m) @ t=0.32
-0.7906701845093598
% es.tEX (V/m) @ t=0.32
0.7918220456664855
% es.tEY (V/m) @ t=0.32
0
% es.tEZ (V/m) @ t=0.32
-0.7906701845093416
% es.Ex (V/m) @ t=0.32
0.791822045666484
% es.Ey (V/m) @ t=0.32
0.11856622281615958
% es.Ez (V/m) @ t=0.32
-0.7906701845093598
% es.tEx (V/m) @ t=0.32
0.7918220456664855
% es.tEy (V/m) @ t=0.32
0
% es.tEz (V/m) @ t=0.32
-0.7906701845093416
% V (V) @ t=0.32
0.012207456840848485
% es.normE (V/m) @ t=0.34
1.156977339036828
% es.EX (V/m) @ t=0.34
0.8036437949598743
% es.EY (V/m) @ t=0.34
0.12033641256225691
% es.EZ (V/m) @ t=0.34
-0.8024747428310666
% es.tEX (V/m) @ t=0.34
0.8036437949598758
% es.tEY (V/m) @ t=0.34
0
% es.tEZ (V/m) @ t=0.34
-0.802474742831059
% es.Ex (V/m) @ t=0.34
0.8036437949598743
% es.Ey (V/m) @ t=0.34
0.12033641256225691
% es.Ez (V/m) @ t=0.34
-0.8024747428310666
% es.tEx (V/m) @ t=0.34
0.8036437949598758
% es.tEy (V/m) @ t=0.34
0
% es.tEz (V/m) @ t=0.34
-0.802474742831059
% V (V) @ t=0.34
0.012389710588174932
% es.normE (V/m) @ t=0.36
1.1739967003255596
% es.EX (V/m) @ t=0.36
0.8154655442532637
% es.EY (V/m) @ t=0.36
0.12210660230834097
% es.EZ (V/m) @ t=0.36
-0.8142793011527671
% es.tEX (V/m) @ t=0.36
0.8154655442532657
% es.tEY (V/m) @ t=0.36
0
% es.tEZ (V/m) @ t=0.36
-0.814279301152756
% es.Ex (V/m) @ t=0.36
0.8154655442532637
% es.Ey (V/m) @ t=0.36
0.12210660230834097
% es.Ez (V/m) @ t=0.36
-0.8142793011527671
% es.tEx (V/m) @ t=0.36
0.8154655442532657
% es.tEy (V/m) @ t=0.36
0
% es.tEz (V/m) @ t=0.36
-0.814279301152756
% V (V) @ t=0.36
0.012571964335501378
% es.normE (V/m) @ t=0.38
1.1910160616143064
% es.EX (V/m) @ t=0.38
0.8272872935466531
% es.EY (V/m) @ t=0.38
0.12387679205441571
% es.EZ (V/m) @ t=0.38
-0.8260838594744819
% es.tEX (V/m) @ t=0.38
0.827287293546652
% es.tEY (V/m) @ t=0.38
0
% es.tEZ (V/m) @ t=0.38
-0.8260838594744673
% es.Ex (V/m) @ t=0.38
0.8272872935466531
% es.Ey (V/m) @ t=0.38
0.12387679205441571
% es.Ez (V/m) @ t=0.38
-0.8260838594744819
% es.tEx (V/m) @ t=0.38
0.827287293546652
% es.tEy (V/m) @ t=0.38
0
% es.tEz (V/m) @ t=0.38
-0.8260838594744673
% V (V) @ t=0.38
0.012754218082827822
% es.normE (V/m) @ t=0.4
1.2080354229030326
% es.EX (V/m) @ t=0.4
0.8391090428400323
% es.EY (V/m) @ t=0.4
0.1256469818005086
% es.EZ (V/m) @ t=0.4
-0.8378884177961825
% es.tEX (V/m) @ t=0.4
0.8391090428400445
% es.tEY (V/m) @ t=0.4
0
% es.tEZ (V/m) @ t=0.4
-0.8378884177961714
% es.Ex (V/m) @ t=0.4
0.8391090428400323
% es.Ey (V/m) @ t=0.4
0.1256469818005086
% es.Ez (V/m) @ t=0.4
-0.8378884177961825
% es.tEx (V/m) @ t=0.4
0.8391090428400445
% es.tEy (V/m) @ t=0.4
0
% es.tEz (V/m) @ t=0.4
-0.8378884177961714
% V (V) @ t=0.4
0.012936471830154268
% es.normE (V/m) @ t=0.42
1.2257586954467352
% es.EX (V/m) @ t=0.42
0.8514197315955607
% es.EY (V/m) @ t=0.42
0.12749038935577267
% es.EZ (V/m) @ t=0.42
-0.8501812058402662
% es.tEX (V/m) @ t=0.42
0.8514197315955658
% es.tEY (V/m) @ t=0.42
0
% es.tEZ (V/m) @ t=0.42
-0.8501812058402551
% es.Ex (V/m) @ t=0.42
0.8514197315955607
% es.Ey (V/m) @ t=0.42
0.12749038935577267
% es.Ez (V/m) @ t=0.42
-0.8501812058402662
% es.tEx (V/m) @ t=0.42
0.8514197315955658
% es.tEy (V/m) @ t=0.42
0
% es.tEz (V/m) @ t=0.42
-0.8501812058402551
% V (V) @ t=0.42
0.013126263215534426
% es.normE (V/m) @ t=0.44
1.2442841737959425
% es.EX (V/m) @ t=0.44
0.8642876355856817
% es.EY (V/m) @ t=0.44
0.12941723889494477
% es.EZ (V/m) @ t=0.44
-0.8630304002707345
% es.tEX (V/m) @ t=0.44
0.8642876355856872
% es.tEY (V/m) @ t=0.44
0
% es.tEZ (V/m) @ t=0.44
-0.8630304002707234
% es.Ex (V/m) @ t=0.44
0.8642876355856817
% es.Ey (V/m) @ t=0.44
0.12941723889494477
% es.Ez (V/m) @ t=0.44
-0.8630304002707345
% es.tEx (V/m) @ t=0.44
0.8642876355856872
% es.tEy (V/m) @ t=0.44
0
% es.tEz (V/m) @ t=0.44
-0.8630304002707234
% V (V) @ t=0.44
0.013324644798846388
% es.normE (V/m) @ t=0.46
1.2628096521451468
% es.EX (V/m) @ t=0.46
0.8771555395757946
% es.EY (V/m) @ t=0.46
0.13134408843412043
% es.EZ (V/m) @ t=0.46
-0.8758795947012099
% es.tEX (V/m) @ t=0.46
0.8771555395758015
% es.tEY (V/m) @ t=0.46
0
% es.tEZ (V/m) @ t=0.46
-0.8758795947012059
% es.Ex (V/m) @ t=0.46
0.8771555395757946
% es.Ey (V/m) @ t=0.46
0.13134408843412043
% es.Ez (V/m) @ t=0.46
-0.8758795947012099
% es.tEx (V/m) @ t=0.46
0.8771555395758015
% es.tEy (V/m) @ t=0.46
0
% es.tEz (V/m) @ t=0.46
-0.8758795947012059
% V (V) @ t=0.46
0.013523026382158344
% es.normE (V/m) @ t=0.48
1.281335130494361
% es.EX (V/m) @ t=0.48
0.8900234435659151
% es.EY (V/m) @ t=0.48
0.1332709379732766
% es.EZ (V/m) @ t=0.48
-0.8887287891316822
% es.tEX (V/m) @ t=0.48
0.8900234435659256
% es.tEY (V/m) @ t=0.48
0
% es.tEZ (V/m) @ t=0.48
-0.8887287891316751
% es.Ex (V/m) @ t=0.48
0.8900234435659151
% es.Ey (V/m) @ t=0.48
0.1332709379732766
% es.Ez (V/m) @ t=0.48
-0.8887287891316822
% es.tEx (V/m) @ t=0.48
0.8900234435659256
% es.tEy (V/m) @ t=0.48
0
% es.tEz (V/m) @ t=0.48
-0.8887287891316751
% V (V) @ t=0.48
0.013721407965470302
% es.normE (V/m) @ t=0.5
1.2998606088435765
% es.EX (V/m) @ t=0.5
0.9028913475560425
% es.EY (V/m) @ t=0.5
0.1351977875124496
% es.EZ (V/m) @ t=0.5
-0.9015779835621545
% es.tEX (V/m) @ t=0.5
0.9028913475560469
% es.tEY (V/m) @ t=0.5
0
% es.tEZ (V/m) @ t=0.5
-0.9015779835621363
% es.Ex (V/m) @ t=0.5
0.9028913475560425
% es.Ey (V/m) @ t=0.5
0.1351977875124496
% es.Ez (V/m) @ t=0.5
-0.9015779835621545
% es.tEx (V/m) @ t=0.5
0.9028913475560469
% es.tEy (V/m) @ t=0.5
0
% es.tEz (V/m) @ t=0.5
-0.9015779835621363
% V (V) @ t=0.5
0.013919789548782261
% es.normE (V/m) @ t=0.52
1.3183860871928013
% es.EX (V/m) @ t=0.52
0.9157592515461628
% es.EY (V/m) @ t=0.52
0.1371246370516182
% es.EZ (V/m) @ t=0.52
-0.9144271779926441
% es.tEX (V/m) @ t=0.52
0.9157592515461634
% es.tEY (V/m) @ t=0.52
0
% es.tEZ (V/m) @ t=0.52
-0.9144271779926259
% es.Ex (V/m) @ t=0.52
0.9157592515461628
% es.Ey (V/m) @ t=0.52
0.1371246370516182
% es.Ez (V/m) @ t=0.52
-0.9144271779926441
% es.tEx (V/m) @ t=0.52
0.9157592515461634
% es.tEy (V/m) @ t=0.52
0
% es.tEz (V/m) @ t=0.52
-0.9144271779926259
% V (V) @ t=0.52
0.014118171132094223
% es.normE (V/m) @ t=0.54
1.3369115655420052
% es.EX (V/m) @ t=0.54
0.9286271555362802
% es.EY (V/m) @ t=0.54
0.13905148659075833
% es.EZ (V/m) @ t=0.54
-0.9272763724231052
% es.tEX (V/m) @ t=0.54
0.9286271555362813
% es.tEY (V/m) @ t=0.54
0
% es.tEZ (V/m) @ t=0.54
-0.927276372423087
% es.Ex (V/m) @ t=0.54
0.9286271555362802
% es.Ey (V/m) @ t=0.54
0.13905148659075833
% es.Ez (V/m) @ t=0.54
-0.9272763724231052
% es.tEx (V/m) @ t=0.54
0.9286271555362813
% es.tEy (V/m) @ t=0.54
0
% es.tEz (V/m) @ t=0.54
-0.927276372423087
% V (V) @ t=0.54
0.014316552715406177
% es.normE (V/m) @ t=0.56
1.3558724608530193
% es.EX (V/m) @ t=0.56
0.9417975157259166
% es.EY (V/m) @ t=0.56
0.1410235908721721
% es.EZ (V/m) @ t=0.56
-0.9404275720152167
% es.tEX (V/m) @ t=0.56
0.9417975157259155
% es.tEY (V/m) @ t=0.56
0
% es.tEZ (V/m) @ t=0.56
-0.9404275720151984
% es.Ex (V/m) @ t=0.56
0.9417975157259166
% es.Ey (V/m) @ t=0.56
0.1410235908721721
% es.Ez (V/m) @ t=0.56
-0.9404275720152167
% es.tEx (V/m) @ t=0.56
0.9417975157259155
% es.tEy (V/m) @ t=0.56
0
% es.tEz (V/m) @ t=0.56
-0.9404275720151984
% V (V) @ t=0.56
0.014519599438208193
% es.normE (V/m) @ t=0.58
1.3752443217749408
% es.EX (V/m) @ t=0.58
0.9552533473319438
% es.EY (V/m) @ t=0.58
0.14303840856254507
% es.EZ (V/m) @ t=0.58
-0.9538638173144238
% es.tEX (V/m) @ t=0.58
0.955253347331948
% es.tEY (V/m) @ t=0.58
0
% es.tEZ (V/m) @ t=0.58
-0.9538638173144056
% es.Ex (V/m) @ t=0.58
0.9552533473319438
% es.Ey (V/m) @ t=0.58
0.14303840856254507
% es.Ez (V/m) @ t=0.58
-0.9538638173144238
% es.tEx (V/m) @ t=0.58
0.955253347331948
% es.tEy (V/m) @ t=0.58
0
% es.tEz (V/m) @ t=0.58
-0.9538638173144056
% V (V) @ t=0.58
0.014727049324112743
% es.normE (V/m) @ t=0.6
1.3948023263152383
% es.EX (V/m) @ t=0.6
0.9688384809549306
% es.EY (V/m) @ t=0.6
0.1450725729532475
% es.EZ (V/m) @ t=0.6
-0.9674291718089116
% es.tEX (V/m) @ t=0.6
0.9688384809549344
% es.tEY (V/m) @ t=0.6
0
% es.tEZ (V/m) @ t=0.6
-0.9674291718088934
% es.Ex (V/m) @ t=0.6
0.9688384809549306
% es.Ey (V/m) @ t=0.6
0.1450725729532475
% es.Ez (V/m) @ t=0.6
-0.9674291718089116
% es.tEx (V/m) @ t=0.6
0.9688384809549344
% es.tEy (V/m) @ t=0.6
0
% es.tEz (V/m) @ t=0.6
-0.9674291718088934
% V (V) @ t=0.6
0.014936493587869212
% es.normE (V/m) @ t=0.62
1.414546474473952
% es.EX (V/m) @ t=0.62
0.9825529165948901
% es.EY (V/m) @ t=0.62
0.14712608404421812
% es.EZ (V/m) @ t=0.62
-0.981123635498728
% es.tEX (V/m) @ t=0.62
0.9825529165948956
% es.tEY (V/m) @ t=0.62
0
% es.tEZ (V/m) @ t=0.62
-0.9811236354987098
% es.Ex (V/m) @ t=0.62
0.9825529165948901
% es.Ey (V/m) @ t=0.62
0.14712608404421812
% es.Ez (V/m) @ t=0.62
-0.981123635498728
% es.tEx (V/m) @ t=0.62
0.9825529165948956
% es.tEy (V/m) @ t=0.62
0
% es.tEz (V/m) @ t=0.62
-0.9811236354987098
% V (V) @ t=0.62
0.015147932229477596
% es.normE (V/m) @ t=0.64
1.4344767662510596
% es.EX (V/m) @ t=0.64
0.996396654251815
% es.EY (V/m) @ t=0.64
0.14919894183551186
% es.EZ (V/m) @ t=0.64
-0.9949472083838393
% es.tEX (V/m) @ t=0.64
0.9963966542518206
% es.tEY (V/m) @ t=0.64
0
% es.tEZ (V/m) @ t=0.64
-0.9949472083838211
% es.Ex (V/m) @ t=0.64
0.996396654251815
% es.Ey (V/m) @ t=0.64
0.14919894183551186
% es.Ez (V/m) @ t=0.64
-0.9949472083838393
% es.tEx (V/m) @ t=0.64
0.9963966542518206
% es.tEy (V/m) @ t=0.64
0
% es.tEz (V/m) @ t=0.64
-0.9949472083838211
% V (V) @ t=0.64
0.015361365248937896
% es.normE (V/m) @ t=0.66
1.4545932016465795
% es.EX (V/m) @ t=0.66
1.0103696939257152
% es.EY (V/m) @ t=0.66
0.15129114632710144
% es.EZ (V/m) @ t=0.66
-1.0088998904642517
% es.tEX (V/m) @ t=0.66
1.0103696939257136
% es.tEY (V/m) @ t=0.66
0
% es.tEZ (V/m) @ t=0.66
-1.0088998904642335
% es.Ex (V/m) @ t=0.66
1.0103696939257152
% es.Ey (V/m) @ t=0.66
0.15129114632710144
% es.Ez (V/m) @ t=0.66
-1.0088998904642517
% es.tEx (V/m) @ t=0.66
1.0103696939257136
% es.tEy (V/m) @ t=0.66
0
% es.tEz (V/m) @ t=0.66
-1.0088998904642335
% V (V) @ t=0.66
0.015576792646250118
% es.normE (V/m) @ t=0.68
1.474895780660525
% es.EX (V/m) @ t=0.68
1.0244720356165702
% es.EY (V/m) @ t=0.68
0.1534026975190041
% es.EZ (V/m) @ t=0.68
-1.0229816817399908
% es.tEX (V/m) @ t=0.68
1.0244720356165757
% es.tEY (V/m) @ t=0.68
0
% es.tEZ (V/m) @ t=0.68
-1.022981681739969
% es.Ex (V/m) @ t=0.68
1.0244720356165702
% es.Ey (V/m) @ t=0.68
0.1534026975190041
% es.Ez (V/m) @ t=0.68
-1.0229816817399908
% es.tEx (V/m) @ t=0.68
1.0244720356165757
% es.tEy (V/m) @ t=0.68
0
% es.tEz (V/m) @ t=0.68
-1.022981681739969
% V (V) @ t=0.68
0.015794214421414255
% es.normE (V/m) @ t=0.7
1.4953845032928723
% es.EX (V/m) @ t=0.7
1.0387036793243933
% es.EY (V/m) @ t=0.7
0.15553359541117506
% es.EZ (V/m) @ t=0.7
-1.0371925822110204
% es.tEX (V/m) @ t=0.7
1.0387036793243873
% es.tEY (V/m) @ t=0.7
0
% es.tEZ (V/m) @ t=0.7
-1.0371925822110057
% es.Ex (V/m) @ t=0.7
1.0387036793243933
% es.Ey (V/m) @ t=0.7
0.15553359541117506
% es.Ez (V/m) @ t=0.7
-1.0371925822110204
% es.tEx (V/m) @ t=0.7
1.0387036793243873
% es.tEy (V/m) @ t=0.7
0
% es.tEz (V/m) @ t=0.7
-1.0371925822110057
% V (V) @ t=0.7
0.016013630574430313
% es.normE (V/m) @ t=0.72
1.5160593695436537
% es.EX (V/m) @ t=0.72
1.0530646250491873
% es.EY (V/m) @ t=0.72
0.15768384000366703
% es.EZ (V/m) @ t=0.72
-1.051532591877344
% es.tEX (V/m) @ t=0.72
1.0530646250491928
% es.tEY (V/m) @ t=0.72
0
% es.tEZ (V/m) @ t=0.72
-1.0515325918773293
% es.Ex (V/m) @ t=0.72
1.0530646250491873
% es.Ey (V/m) @ t=0.72
0.15768384000366703
% es.Ez (V/m) @ t=0.72
-1.051532591877344
% es.tEx (V/m) @ t=0.72
1.0530646250491928
% es.tEy (V/m) @ t=0.72
0
% es.tEz (V/m) @ t=0.72
-1.0515325918773293
% V (V) @ t=0.72
0.016235041105298283
% es.normE (V/m) @ t=0.74
1.5369203794128687
% es.EX (V/m) @ t=0.74
1.067554872790945
% es.EY (V/m) @ t=0.74
0.15985343129638963
% es.EZ (V/m) @ t=0.74
-1.0660017107389703
% es.tEX (V/m) @ t=0.74
1.0675548727909399
% es.tEY (V/m) @ t=0.74
0
% es.tEZ (V/m) @ t=0.74
-1.0660017107389415
% es.Ex (V/m) @ t=0.74
1.067554872790945
% es.Ey (V/m) @ t=0.74
0.15985343129638963
% es.Ez (V/m) @ t=0.74
-1.0660017107389703
% es.tEx (V/m) @ t=0.74
1.0675548727909399
% es.tEy (V/m) @ t=0.74
0
% es.tEz (V/m) @ t=0.74
-1.0660017107389415
% V (V) @ t=0.74
0.016458446014018177
% es.normE (V/m) @ t=0.76
1.5579675329005467
% es.EX (V/m) @ t=0.76
1.0821744225496739
% es.EY (V/m) @ t=0.76
0.1620423692894894
% es.EZ (V/m) @ t=0.76
-1.080599938795919
% es.tEX (V/m) @ t=0.76
1.0821744225496785
% es.tEY (V/m) @ t=0.76
0
% es.tEZ (V/m) @ t=0.76
-1.0805999387959044
% es.Ex (V/m) @ t=0.76
1.0821744225496739
% es.Ey (V/m) @ t=0.76
0.1620423692894894
% es.Ez (V/m) @ t=0.76
-1.080599938795919
% es.tEx (V/m) @ t=0.76
1.0821744225496785
% es.tEy (V/m) @ t=0.76
0
% es.tEz (V/m) @ t=0.76
-1.0805999387959044
% V (V) @ t=0.76
0.016683845300589986
% es.normE (V/m) @ t=0.78
1.5792008300066893
% es.EX (V/m) @ t=0.78
1.0969232743253687
% es.EY (V/m) @ t=0.78
0.16425065398287297
% es.EZ (V/m) @ t=0.78
-1.0953272760481814
% es.tEX (V/m) @ t=0.78
1.0969232743253734
% es.tEY (V/m) @ t=0.78
0
% es.tEZ (V/m) @ t=0.78
-1.0953272760481596
% es.Ex (V/m) @ t=0.78
1.0969232743253687
% es.Ey (V/m) @ t=0.78
0.16425065398287297
% es.Ez (V/m) @ t=0.78
-1.0953272760481814
% es.tEx (V/m) @ t=0.78
1.0969232743253734
% es.tEy (V/m) @ t=0.78
0
% es.tEz (V/m) @ t=0.78
-1.0953272760481596
% V (V) @ t=0.78
0.01691123896501371
% es.normE (V/m) @ t=0.8
1.600620270731293
% es.EX (V/m) @ t=0.8
1.1118014281180286
% es.EY (V/m) @ t=0.8
0.16647828537657394
% es.EZ (V/m) @ t=0.8
-1.1101837224957438
% es.tEX (V/m) @ t=0.8
1.1118014281180333
% es.tEY (V/m) @ t=0.8
0
% es.tEZ (V/m) @ t=0.8
-1.1101837224957256
% es.Ex (V/m) @ t=0.8
1.1118014281180286
% es.Ey (V/m) @ t=0.8
0.16647828537657394
% es.Ez (V/m) @ t=0.8
-1.1101837224957438
% es.tEx (V/m) @ t=0.8
1.1118014281180333
% es.tEy (V/m) @ t=0.8
0
% es.tEz (V/m) @ t=0.8
-1.1101837224957256
% V (V) @ t=0.8
0.017140627007289355
% es.normE (V/m) @ t=0.82
1.622225855074376
% es.EX (V/m) @ t=0.82
1.1268088839276555
% es.EY (V/m) @ t=0.82
0.16872526347052985
% es.EZ (V/m) @ t=0.82
-1.125169278138614
% es.tEX (V/m) @ t=0.82
1.1268088839276569
% es.tEY (V/m) @ t=0.82
0
% es.tEZ (V/m) @ t=0.82
-1.1251692781385847
% es.Ex (V/m) @ t=0.82
1.1268088839276555
% es.Ey (V/m) @ t=0.82
0.16872526347052985
% es.Ez (V/m) @ t=0.82
-1.125169278138614
% es.tEx (V/m) @ t=0.82
1.1268088839276569
% es.tEy (V/m) @ t=0.82
0
% es.tEz (V/m) @ t=0.82
-1.1251692781385847
% V (V) @ t=0.82
0.017372009427416915
% es.normE (V/m) @ t=0.84
1.6443798672098715
% es.EX (V/m) @ t=0.84
1.142197036853242
% es.EY (V/m) @ t=0.84
0.17102990568827475
% es.EZ (V/m) @ t=0.84
-1.1405351879800167
% es.tEX (V/m) @ t=0.84
1.142197036853243
% es.tEY (V/m) @ t=0.84
0
% es.tEZ (V/m) @ t=0.84
-1.140535187979995
% es.Ex (V/m) @ t=0.84
1.142197036853242
% es.Ey (V/m) @ t=0.84
0.17102990568827475
% es.Ez (V/m) @ t=0.84
-1.1405351879800167
% es.tEx (V/m) @ t=0.84
1.142197036853243
% es.tEy (V/m) @ t=0.84
0
% es.tEz (V/m) @ t=0.84
-1.140535187979995
% V (V) @ t=0.84
0.017609219149306393
% es.normE (V/m) @ t=0.86
1.66679219316944
% es.EX (V/m) @ t=0.86
1.1577645719184668
% es.EY (V/m) @ t=0.86
0.1733615277753237
% es.EZ (V/m) @ t=0.86
-1.1560802572390316
% es.tEX (V/m) @ t=0.86
1.157764571918471
% es.tEY (V/m) @ t=0.86
0
% es.tEZ (V/m) @ t=0.86
-1.1560802572389957
% es.Ex (V/m) @ t=0.86
1.1577645719184668
% es.Ey (V/m) @ t=0.86
0.1733615277753237
% es.Ez (V/m) @ t=0.86
-1.1560802572390316
% es.tEx (V/m) @ t=0.86
1.157764571918471
% es.tEy (V/m) @ t=0.86
0
% es.tEz (V/m) @ t=0.86
-1.1560802572389957
% V (V) @ t=0.86
0.017849186801322196
% es.normE (V/m) @ t=0.88
1.6894430974460124
% es.EX (V/m) @ t=0.88
1.1734977943219804
% es.EY (V/m) @ t=0.88
0.175718042381866
% es.EZ (V/m) @ t=0.88
-1.17179079929076
% es.tEX (V/m) @ t=0.88
1.1734977943219844
% es.tEY (V/m) @ t=0.88
0
% es.tEZ (V/m) @ t=0.88
-1.1717907992907453
% es.Ex (V/m) @ t=0.88
1.1734977943219804
% es.Ey (V/m) @ t=0.88
0.175718042381866
% es.Ez (V/m) @ t=0.88
-1.17179079929076
% es.tEx (V/m) @ t=0.88
1.1734977943219844
% es.tEy (V/m) @ t=0.88
0
% es.tEz (V/m) @ t=0.88
-1.1717907992907453
% V (V) @ t=0.88
0.01809170358412105
% es.normE (V/m) @ t=0.9
1.7123325800398093
% es.EX (V/m) @ t=0.9
1.1893967040637756
% es.EY (V/m) @ t=0.9
0.17809944950787177
% es.EZ (V/m) @ t=0.9
-1.187666814135215
% es.tEX (V/m) @ t=0.9
1.1893967040637765
% es.tEY (V/m) @ t=0.9
0
% es.tEZ (V/m) @ t=0.9
-1.1876668141352003
% es.Ex (V/m) @ t=0.9
1.1893967040637756
% es.Ey (V/m) @ t=0.9
0.17809944950787177
% es.Ez (V/m) @ t=0.9
-1.187666814135215
% es.tEx (V/m) @ t=0.9
1.1893967040637765
% es.tEy (V/m) @ t=0.9
0
% es.tEz (V/m) @ t=0.9
-1.1876668141352003
% V (V) @ t=0.9
0.018336769497702955
% es.normE (V/m) @ t=0.92
1.735460640951025
% es.EX (V/m) @ t=0.92
1.2054613011438287
% es.EY (V/m) @ t=0.92
0.18050574915338852
% es.EZ (V/m) @ t=0.92
-1.2037083017723815
% es.tEX (V/m) @ t=0.92
1.2054613011438322
% es.tEY (V/m) @ t=0.92
0
% es.tEZ (V/m) @ t=0.92
-1.2037083017723456
% es.Ex (V/m) @ t=0.92
1.2054613011438287
% es.Ey (V/m) @ t=0.92
0.18050574915338852
% es.Ez (V/m) @ t=0.92
-1.2037083017723815
% es.tEx (V/m) @ t=0.92
1.2054613011438322
% es.tEy (V/m) @ t=0.92
0
% es.tEz (V/m) @ t=0.92
-1.2037083017723456
% V (V) @ t=0.92
0.018584384542067914
% es.normE (V/m) @ t=0.94
1.7588272801799487
% es.EX (V/m) @ t=0.94
1.2216915855621946
% es.EY (V/m) @ t=0.94
0.18293694131839916
% es.EZ (V/m) @ t=0.94
-1.2199152622022837
% es.tEX (V/m) @ t=0.94
1.2216915855621941
% es.tEY (V/m) @ t=0.94
0
% es.tEZ (V/m) @ t=0.94
-1.219915262202269
% es.Ex (V/m) @ t=0.94
1.2216915855621946
% es.Ey (V/m) @ t=0.94
0.18293694131839916
% es.Ez (V/m) @ t=0.94
-1.2199152622022837
% es.tEx (V/m) @ t=0.94
1.2216915855621941
% es.tEy (V/m) @ t=0.94
0
% es.tEz (V/m) @ t=0.94
-1.219915262202269
% V (V) @ t=0.94
0.018834548717215915
% es.normE (V/m) @ t=0.96
1.7824324977267636
% es.EX (V/m) @ t=0.96
1.2380875573188224
% es.EY (V/m) @ t=0.96
0.1853930260029143
% es.EZ (V/m) @ t=0.96
-1.236287695424843
% es.tEX (V/m) @ t=0.96
1.2380875573188366
% es.tEY (V/m) @ t=0.96
0
% es.tEZ (V/m) @ t=0.96
-1.2362876954248279
% es.Ex (V/m) @ t=0.96
1.2380875573188224
% es.Ey (V/m) @ t=0.96
0.1853930260029143
% es.Ez (V/m) @ t=0.96
-1.236287695424843
% es.tEx (V/m) @ t=0.96
1.2380875573188366
% es.tEy (V/m) @ t=0.96
0
% es.tEz (V/m) @ t=0.96
-1.2362876954248279
% V (V) @ t=0.96
0.01908726202314697
% es.normE (V/m) @ t=0.98
1.8062762935918382
% es.EX (V/m) @ t=0.98
1.254649216413727
% es.EY (V/m) @ t=0.98
0.1878740032069065
% es.EZ (V/m) @ t=0.98
-1.2528256014402053
% es.tEX (V/m) @ t=0.98
1.2546492164137346
% es.tEY (V/m) @ t=0.98
0
% es.tEZ (V/m) @ t=0.98
-1.2528256014401764
% es.Ex (V/m) @ t=0.98
1.254649216413727
% es.Ey (V/m) @ t=0.98
0.1878740032069065
% es.Ez (V/m) @ t=0.98
-1.2528256014402053
% es.tEx (V/m) @ t=0.98
1.2546492164137346
% es.tEy (V/m) @ t=0.98
0
% es.tEz (V/m) @ t=0.98
-1.2528256014401764
% V (V) @ t=0.98
0.019342524459861076
% es.normE (V/m) @ t=1
1.8303586677753947
% es.EX (V/m) @ t=1
1.2713765628469313
% es.EY (V/m) @ t=1
0.19037987293037228
% es.EZ (V/m) @ t=1
-1.2695289802482619
% es.tEX (V/m) @ t=1
1.271376562846939
% es.tEY (V/m) @ t=1
0
% es.tEZ (V/m) @ t=1
-1.2695289802482472
% es.Ex (V/m) @ t=1
1.2713765628469313
% es.Ey (V/m) @ t=1
0.19037987293037228
% es.Ez (V/m) @ t=1
-1.2695289802482619
% es.tEx (V/m) @ t=1
1.271376562846939
% es.tEy (V/m) @ t=1
0
% es.tEz (V/m) @ t=1
-1.2695289802482472
% V (V) @ t=1
0.019600336027358237
% es.normE (V/m) @ t=1.02
1.8546796202777287
% es.EX (V/m) @ t=1.02
1.2882695966184023
% es.EY (V/m) @ t=1.02
0.19291063517337736
% es.EZ (V/m) @ t=1.02
-1.2863978318490434
% es.tEX (V/m) @ t=1.02
1.288269596618398
% es.tEY (V/m) @ t=1.02
0
% es.tEZ (V/m) @ t=1.02
-1.2863978318490217
% es.Ex (V/m) @ t=1.02
1.2882695966184023
% es.Ey (V/m) @ t=1.02
0.19291063517337736
% es.Ez (V/m) @ t=1.02
-1.2863978318490434
% es.tEx (V/m) @ t=1.02
1.288269596618398
% es.tEy (V/m) @ t=1.02
0
% es.tEz (V/m) @ t=1.02
-1.2863978318490217
% V (V) @ t=1.02
0.019860696725638442
% es.normE (V/m) @ t=1.04
1.8792391510991426
% es.EX (V/m) @ t=1.04
1.30532831772816
% es.EY (V/m) @ t=1.04
0.19546628993585502
% es.EZ (V/m) @ t=1.04
-1.3034321562425255
% es.tEX (V/m) @ t=1.04