% Model:              1 neuron.mph
% Version:            COMSOL 6.1.0.252
% Date:               Mar 18 2023, 13:49
% Dimension:          0
% Nodes:              14017
% Expressions:        14017
% Description:        Electric field norm, Electric field, X component, Electric field, Y component, Electric field, Z component, Tangential electric field, X component, Tangential electric field, Y component, Tangential electric field, Z component, Electric field, x component, Electric field, y component, Electric field, z component, Tangential electric field, x component, Tangential electric field, y component, Tangential electric field, z component, Electric potential
% Length unit:        mm
% x
1
% y
12.2
% z
1.6599999999999997
% es.normE (V/m) @ t=0
4.560114199134755
% es.EX (V/m) @ t=0
4.08225660287952
% es.EY (V/m) @ t=0
0.1570673373180269
% es.EZ (V/m) @ t=0
-2.0261174961790482
% es.tEX (V/m) @ t=0
4.08225660287953
% es.tEY (V/m) @ t=0
0
% es.tEZ (V/m) @ t=0
-2.026117496179026
% es.Ex (V/m) @ t=0
4.08225660287952
% es.Ey (V/m) @ t=0
0.1570673373180269
% es.Ez (V/m) @ t=0
-2.0261174961790482
% es.tEx (V/m) @ t=0
4.08225660287953
% es.tEy (V/m) @ t=0
0
% es.tEz (V/m) @ t=0
-2.026117496179026
% V (V) @ t=0
0.020689181854620566
% es.normE (V/m) @ t=0.02
4.273606251785354
% es.EX (V/m) @ t=0.02
3.8257716158866577
% es.EY (V/m) @ t=0.02
0.14719779302957697
% es.EZ (V/m) @ t=0.02
-1.89881923906366
% es.tEX (V/m) @ t=0.02
3.8257716158866586
% es.tEY (V/m) @ t=0.02
0
% es.tEZ (V/m) @ t=0.02
-1.8988192390636698
% es.Ex (V/m) @ t=0.02
3.8257716158866577
% es.Ey (V/m) @ t=0.02
0.14719779302957697
% es.Ez (V/m) @ t=0.02
-1.89881923906366
% es.tEx (V/m) @ t=0.02
3.8257716158866586
% es.tEy (V/m) @ t=0.02
0
% es.tEz (V/m) @ t=0.02
-1.8988192390636698
% V (V) @ t=0.02
0.01938932352783046
% es.normE (V/m) @ t=0.04
4.335836579842826
% es.EX (V/m) @ t=0.04
3.8814807807232867
% es.EY (V/m) @ t=0.04
0.14934122989632975
% es.EZ (V/m) @ t=0.04
-1.9264689824545138
% es.tEX (V/m) @ t=0.04
3.881480780723285
% es.tEY (V/m) @ t=0.04
0
% es.tEZ (V/m) @ t=0.04
-1.9264689824544945
% es.Ex (V/m) @ t=0.04
3.8814807807232867
% es.Ey (V/m) @ t=0.04
0.14934122989632975
% es.Ez (V/m) @ t=0.04
-1.9264689824545138
% es.tEx (V/m) @ t=0.04
3.881480780723285
% es.tEy (V/m) @ t=0.04
0
% es.tEz (V/m) @ t=0.04
-1.9264689824544945
% V (V) @ t=0.04
0.01967166193361531
% es.normE (V/m) @ t=0.06
4.398938268461515
% es.EX (V/m) @ t=0.06
3.9379700005161693
% es.EY (V/m) @ t=0.06
0.15151469381044042
% es.EZ (V/m) @ t=0.06
-1.9545058716278116
% es.tEX (V/m) @ t=0.06
3.9379700005161737
% es.tEY (V/m) @ t=0.06
0
% es.tEZ (V/m) @ t=0.06
-1.9545058716277737
% es.Ex (V/m) @ t=0.06
3.9379700005161693
% es.Ey (V/m) @ t=0.06
0.15151469381044042
% es.Ez (V/m) @ t=0.06
-1.9545058716278116
% es.tEx (V/m) @ t=0.06
3.9379700005161737
% es.tEy (V/m) @ t=0.06
0
% es.tEz (V/m) @ t=0.06
-1.9545058716277737
% V (V) @ t=0.06
0.01995795339349927
% es.normE (V/m) @ t=0.08
4.463405995382679
% es.EX (V/m) @ t=0.08
3.995682105169434
% es.EY (V/m) @ t=0.08
0.1537351931299864
% es.EZ (V/m) @ t=0.08
-1.9831497211890325
% es.tEX (V/m) @ t=0.08
3.9956821051694416
% es.tEY (V/m) @ t=0.08
0
% es.tEZ (V/m) @ t=0.08
-1.9831497211890365
% es.Ex (V/m) @ t=0.08
3.995682105169434
% es.Ey (V/m) @ t=0.08
0.1537351931299864
% es.Ez (V/m) @ t=0.08
-1.9831497211890325
% es.tEx (V/m) @ t=0.08
3.9956821051694416
% es.tEy (V/m) @ t=0.08
0
% es.tEz (V/m) @ t=0.08
-1.9831497211890365
% V (V) @ t=0.08
0.020250442888390587
% es.normE (V/m) @ t=0.1
4.527873722303839
% es.EX (V/m) @ t=0.1
4.053394209822693
% es.EY (V/m) @ t=0.1
0.15595569244949142
% es.EZ (V/m) @ t=0.1
-2.0117935707502537
% es.tEX (V/m) @ t=0.1
4.053394209822697
% es.tEY (V/m) @ t=0.1
0
% es.tEZ (V/m) @ t=0.1
-2.0117935707502568
% es.Ex (V/m) @ t=0.1
4.053394209822693
% es.Ey (V/m) @ t=0.1
0.15595569244949142
% es.Ez (V/m) @ t=0.1
-2.0117935707502537
% es.tEx (V/m) @ t=0.1
4.053394209822697
% es.tEy (V/m) @ t=0.1
0
% es.tEz (V/m) @ t=0.1
-2.0117935707502568
% V (V) @ t=0.1
0.020542932383281896
% es.normE (V/m) @ t=0.12
4.594547361209344
% es.EX (V/m) @ t=0.12
4.113081309622571
% es.EY (V/m) @ t=0.12
0.1582529104095448
% es.EZ (V/m) @ t=0.12
-2.0414169899116885
% es.tEX (V/m) @ t=0.12
4.113081309622579
% es.tEY (V/m) @ t=0.12
0
% es.tEZ (V/m) @ t=0.12
-2.0414169899116814
% es.Ex (V/m) @ t=0.12
4.113081309622571
% es.Ey (V/m) @ t=0.12
0.1582529104095448
% es.Ez (V/m) @ t=0.12
-2.0414169899116885
% es.tEx (V/m) @ t=0.12
4.113081309622579
% es.tEy (V/m) @ t=0.12
0
% es.tEz (V/m) @ t=0.12
-2.0414169899116814
% V (V) @ t=0.12
0.020845414786227104
% es.normE (V/m) @ t=0.14
4.6629161085724
% es.EX (V/m) @ t=0.14
4.174286072411292
% es.EY (V/m) @ t=0.14
0.16060908195302587
% es.EZ (V/m) @ t=0.14
-2.071793148405037
% es.tEX (V/m) @ t=0.14
4.174286072411283
% es.tEY (V/m) @ t=0.14
0
% es.tEZ (V/m) @ t=0.14
-2.0717931484050354
% es.Ex (V/m) @ t=0.14
4.174286072411292
% es.Ey (V/m) @ t=0.14
0.16060908195302587
% es.Ez (V/m) @ t=0.14
-2.071793148405037
% es.tEx (V/m) @ t=0.14
4.174286072411283
% es.tEy (V/m) @ t=0.14
0
% es.tEz (V/m) @ t=0.14
-2.0717931484050354
% V (V) @ t=0.14
0.021155576127892834
% es.normE (V/m) @ t=0.16
4.731284855936338
% es.EX (V/m) @ t=0.16
4.235490835200011
% es.EY (V/m) @ t=0.16
0.16296525349650165
% es.EZ (V/m) @ t=0.16
-2.1021693068984146
% es.tEX (V/m) @ t=0.16
4.2354908352
% es.tEY (V/m) @ t=0.16
0
% es.tEZ (V/m) @ t=0.16
-2.1021693068984177
% es.Ex (V/m) @ t=0.16
4.235490835200011
% es.Ey (V/m) @ t=0.16
0.16296525349650165
% es.Ez (V/m) @ t=0.16
-2.1021693068984146
% es.tEx (V/m) @ t=0.16
4.2354908352
% es.tEy (V/m) @ t=0.16
0
% es.tEz (V/m) @ t=0.16
-2.1021693068984177
% V (V) @ t=0.16
0.021465737469558568
% es.normE (V/m) @ t=0.18
4.799653603301076
% es.EX (V/m) @ t=0.18
4.296695597988703
% es.EY (V/m) @ t=0.18
0.16532142503998631
% es.EZ (V/m) @ t=0.18
-2.132545465391771
% es.tEX (V/m) @ t=0.18
4.296695597988702
% es.tEY (V/m) @ t=0.18
0
% es.tEZ (V/m) @ t=0.18
-2.1325454653917717
% es.Ex (V/m) @ t=0.18
4.296695597988703
% es.Ey (V/m) @ t=0.18
0.16532142503998631
% es.Ez (V/m) @ t=0.18
-2.132545465391771
% es.tEx (V/m) @ t=0.18
4.296695597988702
% es.tEy (V/m) @ t=0.18
0
% es.tEz (V/m) @ t=0.18
-2.1325454653917717
% V (V) @ t=0.18
0.021775898811224298
% es.normE (V/m) @ t=0.2
4.868022350666628
% es.EX (V/m) @ t=0.2
4.357900360777408
% es.EY (V/m) @ t=0.2
0.16767759658345144
% es.EZ (V/m) @ t=0.2
-2.1629216238851408
% es.tEX (V/m) @ t=0.2
4.357900360777403
% es.tEY (V/m) @ t=0.2
0
% es.tEZ (V/m) @ t=0.2
-2.1629216238851114
% es.Ex (V/m) @ t=0.2
4.357900360777408
% es.Ey (V/m) @ t=0.2
0.16767759658345144
% es.Ez (V/m) @ t=0.2
-2.1629216238851408
% es.tEx (V/m) @ t=0.2
4.357900360777403
% es.tEy (V/m) @ t=0.2
0
% es.tEz (V/m) @ t=0.2
-2.1629216238851114
% V (V) @ t=0.2
0.02208606015289003
% es.normE (V/m) @ t=0.22
4.93692175322098
% es.EX (V/m) @ t=0.22
4.419580017677106
% es.EY (V/m) @ t=0.22
0.17005157863304776
% es.EZ (V/m) @ t=0.22
-2.193533904609981
% es.tEX (V/m) @ t=0.22
4.419580017677104
% es.tEY (V/m) @ t=0.22
0
% es.tEZ (V/m) @ t=0.22
-2.193533904609936
% es.Ex (V/m) @ t=0.22
4.419580017677106
% es.Ey (V/m) @ t=0.22
0.17005157863304776
% es.Ez (V/m) @ t=0.22
-2.193533904609981
% es.tEx (V/m) @ t=0.22
4.419580017677104
% es.tEy (V/m) @ t=0.22
0
% es.tEz (V/m) @ t=0.22
-2.193533904609936
% V (V) @ t=0.22
0.022398638741772767
% es.normE (V/m) @ t=0.24
5.009235612991237
% es.EX (V/m) @ t=0.24
4.484315341721586
% es.EY (V/m) @ t=0.24
0.1725401609208259
% es.EZ (V/m) @ t=0.24
-2.225665494435663
% es.tEX (V/m) @ t=0.24
4.484315341721594
% es.tEY (V/m) @ t=0.24
0
% es.tEZ (V/m) @ t=0.24
-2.225665494435674
% es.Ex (V/m) @ t=0.24
4.484315341721586
% es.Ey (V/m) @ t=0.24
0.1725401609208259
% es.Ez (V/m) @ t=0.24
-2.225665494435663
% es.tEx (V/m) @ t=0.24
4.484315341721594
% es.tEy (V/m) @ t=0.24
0
% es.tEz (V/m) @ t=0.24
-2.225665494435674
% V (V) @ t=0.24
0.02272677090929861
% es.normE (V/m) @ t=0.26
5.081549472763985
% es.EX (V/m) @ t=0.26
4.549050665766103
% es.EY (V/m) @ t=0.26
0.17502874320866624
% es.EZ (V/m) @ t=0.26
-2.2577970842613944
% es.tEX (V/m) @ t=0.26
4.549050665766099
% es.tEY (V/m) @ t=0.26
0
% es.tEZ (V/m) @ t=0.26
-2.2577970842613837
% es.Ex (V/m) @ t=0.26
4.549050665766103
% es.Ey (V/m) @ t=0.26
0.17502874320866624
% es.Ez (V/m) @ t=0.26
-2.2577970842613944
% es.tEx (V/m) @ t=0.26
4.549050665766099
% es.tEy (V/m) @ t=0.26
0
% es.tEz (V/m) @ t=0.26
-2.2577970842613837
% V (V) @ t=0.26
0.02305490307682445
% es.normE (V/m) @ t=0.28
5.15386333253903
% es.EX (V/m) @ t=0.28
4.613785989810597
% es.EY (V/m) @ t=0.28
0.17751732549648536
% es.EZ (V/m) @ t=0.28
-2.289928674087097
% es.tEX (V/m) @ t=0.28
4.613785989810589
% es.tEY (V/m) @ t=0.28
0
% es.tEZ (V/m) @ t=0.28
-2.2899286740870934
% es.Ex (V/m) @ t=0.28
4.613785989810597
% es.Ey (V/m) @ t=0.28
0.17751732549648536
% es.Ez (V/m) @ t=0.28
-2.289928674087097
% es.tEx (V/m) @ t=0.28
4.613785989810589
% es.tEy (V/m) @ t=0.28
0
% es.tEz (V/m) @ t=0.28
-2.2899286740870934
% V (V) @ t=0.28
0.023383035244350297
% es.normE (V/m) @ t=0.3
5.226177192316358
% es.EX (V/m) @ t=0.3
4.67852131385512
% es.EY (V/m) @ t=0.3
0.18000590778433445
% es.EZ (V/m) @ t=0.3
-2.3220602639128494
% es.tEX (V/m) @ t=0.3
4.678521313855107
% es.tEY (V/m) @ t=0.3
0
% es.tEZ (V/m) @ t=0.3
-2.3220602639128316
% es.Ex (V/m) @ t=0.3
4.67852131385512
% es.Ey (V/m) @ t=0.3
0.18000590778433445
% es.Ez (V/m) @ t=0.3
-2.3220602639128494
% es.tEx (V/m) @ t=0.3
4.678521313855107
% es.tEy (V/m) @ t=0.3
0
% es.tEz (V/m) @ t=0.3
-2.3220602639128316
% V (V) @ t=0.3
0.023711167411876136
% es.normE (V/m) @ t=0.32
5.298491052095764
% es.EX (V/m) @ t=0.32
4.7432566378996075
% es.EY (V/m) @ t=0.32
0.18249449007211438
% es.EZ (V/m) @ t=0.32
-2.3541918537385307
% es.tEX (V/m) @ t=0.32
4.743256637899599
% es.tEY (V/m) @ t=0.32
0
% es.tEZ (V/m) @ t=0.32
-2.3541918537385413
% es.Ex (V/m) @ t=0.32
4.7432566378996075
% es.Ey (V/m) @ t=0.32
0.18249449007211438
% es.Ez (V/m) @ t=0.32
-2.3541918537385307
% es.tEx (V/m) @ t=0.32
4.743256637899599
% es.tEy (V/m) @ t=0.32
0
% es.tEz (V/m) @ t=0.32
-2.3541918537385413
% V (V) @ t=0.32
0.024039299579401978
% es.normE (V/m) @ t=0.34
5.376335713529009
% es.EX (V/m) @ t=0.34
4.812942546633853
% es.EY (V/m) @ t=0.34
0.18517162459013314
% es.EZ (V/m) @ t=0.34
-2.388782291716696
% es.tEX (V/m) @ t=0.34
4.812942546633849
% es.tEY (V/m) @ t=0.34
0
% es.tEZ (V/m) @ t=0.34
-2.3887822917166375
% es.Ex (V/m) @ t=0.34
4.812942546633853
% es.Ey (V/m) @ t=0.34
0.18517162459013314
% es.Ez (V/m) @ t=0.34
-2.388782291716696
% es.tEx (V/m) @ t=0.34
4.812942546633849
% es.tEy (V/m) @ t=0.34
0
% es.tEz (V/m) @ t=0.34
-2.3887822917166375
% V (V) @ t=0.34
0.024392565288788262
% es.normE (V/m) @ t=0.36
5.456510866887715
% es.EX (V/m) @ t=0.36
4.884714463568468
% es.EY (V/m) @ t=0.36
0.18792820861222947
% es.EZ (V/m) @ t=0.36
-2.4244088047708896
% es.tEX (V/m) @ t=0.36
4.884714463568459
% es.tEY (V/m) @ t=0.36
0
% es.tEZ (V/m) @ t=0.36
-2.424408804770877
% es.Ex (V/m) @ t=0.36
4.884714463568468
% es.Ey (V/m) @ t=0.36
0.18792820861222947
% es.Ez (V/m) @ t=0.36
-2.4244088047708896
% es.tEx (V/m) @ t=0.36
4.884714463568459
% es.tEy (V/m) @ t=0.36
0
% es.tEz (V/m) @ t=0.36
-2.424408804770877
% V (V) @ t=0.36
0.024756421418844016
% es.normE (V/m) @ t=0.38
5.536686020256511
% es.EX (V/m) @ t=0.38
4.956486380503039
% es.EY (V/m) @ t=0.38
0.1906847926342886
% es.EZ (V/m) @ t=0.38
-2.4600353178251186
% es.tEX (V/m) @ t=0.38
4.956486380503039
% es.tEY (V/m) @ t=0.38
0
% es.tEZ (V/m) @ t=0.38
-2.460035317825117
% es.Ex (V/m) @ t=0.38
4.956486380503039
% es.Ey (V/m) @ t=0.38
0.1906847926342886
% es.Ez (V/m) @ t=0.38
-2.4600353178251186
% es.tEx (V/m) @ t=0.38
4.956486380503039
% es.tEy (V/m) @ t=0.38
0
% es.tEz (V/m) @ t=0.38
-2.460035317825117
% V (V) @ t=0.38
0.02512027754889977
% es.normE (V/m) @ t=0.4
5.616861173635044
% es.EX (V/m) @ t=0.4
5.028258297437653
% es.EY (V/m) @ t=0.4
0.1934413766563743
% es.EZ (V/m) @ t=0.4
-2.4956618308793828
% es.tEX (V/m) @ t=0.4
5.028258297437647
% es.tEY (V/m) @ t=0.4
0
% es.tEZ (V/m) @ t=0.4
-2.4956618308793566
% es.Ex (V/m) @ t=0.4
5.028258297437653
% es.Ey (V/m) @ t=0.4
0.1934413766563743
% es.Ez (V/m) @ t=0.4
-2.4956618308793828
% es.tEx (V/m) @ t=0.4
5.028258297437647
% es.tEy (V/m) @ t=0.4
0
% es.tEz (V/m) @ t=0.4
-2.4956618308793566
% V (V) @ t=0.4
0.025484133678955523
% es.normE (V/m) @ t=0.42
5.6970363270228415
% es.EX (V/m) @ t=0.42
5.100030214372267
% es.EY (V/m) @ t=0.42
0.19619796067849715
% es.EZ (V/m) @ t=0.42
-2.531288343933626
% es.tEX (V/m) @ t=0.42
5.100030214372284
% es.tEY (V/m) @ t=0.42
0
% es.tEZ (V/m) @ t=0.42
-2.5312883439336105
% es.Ex (V/m) @ t=0.42
5.100030214372267
% es.Ey (V/m) @ t=0.42
0.19619796067849715
% es.Ez (V/m) @ t=0.42
-2.531288343933626
% es.tEx (V/m) @ t=0.42
5.100030214372284
% es.tEy (V/m) @ t=0.42
0
% es.tEz (V/m) @ t=0.42
-2.5312883439336105
% V (V) @ t=0.42
0.025847989809011283
% es.normE (V/m) @ t=0.44
5.7772114804194885
% es.EX (V/m) @ t=0.44
5.171802131306859
% es.EY (V/m) @ t=0.44
0.19895454470055085
% es.EZ (V/m) @ t=0.44
-2.5669148569878337
% es.tEX (V/m) @ t=0.44
5.171802131306849
% es.tEY (V/m) @ t=0.44
0
% es.tEZ (V/m) @ t=0.44
-2.56691485698785
% es.Ex (V/m) @ t=0.44
5.171802131306859
% es.Ey (V/m) @ t=0.44
0.19895454470055085
% es.Ez (V/m) @ t=0.44
-2.5669148569878337
% es.tEx (V/m) @ t=0.44
5.171802131306849
% es.tEy (V/m) @ t=0.44
0
% es.tEz (V/m) @ t=0.44
-2.56691485698785
% V (V) @ t=0.44
0.026211845939067037
% es.normE (V/m) @ t=0.46
5.857386633824673
% es.EX (V/m) @ t=0.46
5.243574048241452
% es.EY (V/m) @ t=0.46
0.2017111287226544
% es.EZ (V/m) @ t=0.46
-2.60254137004207
% es.tEX (V/m) @ t=0.46
5.243574048241445
% es.tEY (V/m) @ t=0.46
0
% es.tEZ (V/m) @ t=0.46
-2.602541370042033
% es.Ex (V/m) @ t=0.46
5.243574048241452
% es.Ey (V/m) @ t=0.46
0.2017111287226544
% es.Ez (V/m) @ t=0.46
-2.60254137004207
% es.tEx (V/m) @ t=0.46
5.243574048241445
% es.tEy (V/m) @ t=0.46
0
% es.tEz (V/m) @ t=0.46
-2.602541370042033
% V (V) @ t=0.46
0.026575702069122784
% es.normE (V/m) @ t=0.48
5.937561787238025
% es.EX (V/m) @ t=0.48
5.3153459651760455
% es.EY (V/m) @ t=0.48
0.20446771274467956
% es.EZ (V/m) @ t=0.48
-2.638167883096292
% es.tEX (V/m) @ t=0.48
5.315345965176039
% es.tEY (V/m) @ t=0.48
0
% es.tEZ (V/m) @ t=0.48
-2.6381678830962727
% es.Ex (V/m) @ t=0.48
5.3153459651760455
% es.Ey (V/m) @ t=0.48
0.20446771274467956
% es.Ez (V/m) @ t=0.48
-2.638167883096292
% es.tEx (V/m) @ t=0.48
5.315345965176039
% es.tEy (V/m) @ t=0.48
0
% es.tEz (V/m) @ t=0.48
-2.6381678830962727
% V (V) @ t=0.48
0.026939558199178544
% es.normE (V/m) @ t=0.5
6.017736940659228
% es.EX (V/m) @ t=0.5
5.3871178821106245
% es.EY (V/m) @ t=0.5
0.20722429676675647
% es.EZ (V/m) @ t=0.5
-2.673794396150542
% es.tEX (V/m) @ t=0.5
5.387117882110619
% es.tEY (V/m) @ t=0.5
0
% es.tEZ (V/m) @ t=0.5
-2.6737943961505266
% es.Ex (V/m) @ t=0.5
5.3871178821106245
% es.Ey (V/m) @ t=0.5
0.20722429676675647
% es.Ez (V/m) @ t=0.5
-2.673794396150542
% es.tEx (V/m) @ t=0.5
5.387117882110619
% es.tEy (V/m) @ t=0.5
0
% es.tEz (V/m) @ t=0.5
-2.6737943961505266
% V (V) @ t=0.5
0.027303414329234298
% es.normE (V/m) @ t=0.52
6.097912094088011
% es.EX (V/m) @ t=0.52
5.458889799045245
% es.EY (V/m) @ t=0.52
0.20998088078887234
% es.EZ (V/m) @ t=0.52
-2.7094209092047925
% es.tEX (V/m) @ t=0.52
5.458889799045242
% es.tEY (V/m) @ t=0.52
0
% es.tEZ (V/m) @ t=0.52
-2.709420909204738
% es.Ex (V/m) @ t=0.52
5.458889799045245
% es.Ey (V/m) @ t=0.52
0.20998088078887234
% es.Ez (V/m) @ t=0.52
-2.7094209092047925
% es.tEx (V/m) @ t=0.52
5.458889799045242
% es.tEy (V/m) @ t=0.52
0
% es.tEz (V/m) @ t=0.52
-2.709420909204738
% V (V) @ t=0.52
0.027667270459290055
% es.normE (V/m) @ t=0.54
6.178087247524028
% es.EX (V/m) @ t=0.54
5.530661715979861
% es.EY (V/m) @ t=0.54
0.21273746481094735
% es.EZ (V/m) @ t=0.54
-2.7450474222590286
% es.tEX (V/m) @ t=0.54
5.5306617159798375
% es.tEY (V/m) @ t=0.54
0
% es.tEZ (V/m) @ t=0.54
-2.745047422259006
% es.Ex (V/m) @ t=0.54
5.530661715979861
% es.Ey (V/m) @ t=0.54
0.21273746481094735
% es.Ez (V/m) @ t=0.54
-2.7450474222590286
% es.tEx (V/m) @ t=0.54
5.5306617159798375
% es.tEy (V/m) @ t=0.54
0
% es.tEz (V/m) @ t=0.54
-2.745047422259006
% V (V) @ t=0.54
0.028031126589345805
% es.normE (V/m) @ t=0.56
6.263534036185376
% es.EX (V/m) @ t=0.56
5.607156568567422
% es.EY (V/m) @ t=0.56
0.21568694803597466
% es.EZ (V/m) @ t=0.56
-2.783007818060759
% es.tEX (V/m) @ t=0.56
5.607156568567415
% es.tEY (V/m) @ t=0.56
0
% es.tEZ (V/m) @ t=0.56
-2.783007818060767
% es.Ex (V/m) @ t=0.56
5.607156568567422
% es.Ey (V/m) @ t=0.56
0.21568694803597466
% es.Ez (V/m) @ t=0.56
-2.783007818060759
% es.tEx (V/m) @ t=0.56
5.607156568567415
% es.tEy (V/m) @ t=0.56
0
% es.tEz (V/m) @ t=0.56
-2.783007818060767
% V (V) @ t=0.56
0.02841866560603684
% es.normE (V/m) @ t=0.58
6.349972816889074
% es.EX (V/m) @ t=0.58
5.684540161411491
% es.EY (V/m) @ t=0.58
0.21867273014376187
% es.EZ (V/m) @ t=0.58
-2.821407393157842
% es.tEX (V/m) @ t=0.58
5.684540161411473
% es.tEY (V/m) @ t=0.58
0
% es.tEZ (V/m) @ t=0.58
-2.821407393157827
% es.Ex (V/m) @ t=0.58
5.684540161411491
% es.Ey (V/m) @ t=0.58
0.21867273014376187
% es.Ez (V/m) @ t=0.58
-2.821407393157842
% es.tEx (V/m) @ t=0.58
5.684540161411473
% es.tEy (V/m) @ t=0.58
0
% es.tEz (V/m) @ t=0.58
-2.821407393157827
% V (V) @ t=0.58
0.028810661159146725
% es.normE (V/m) @ t=0.6
6.436411597624803
% es.EX (V/m) @ t=0.6
5.7619237542554735
% es.EY (V/m) @ t=0.6
0.22165851225147082
% es.EZ (V/m) @ t=0.6
-2.859806968254868
% es.tEX (V/m) @ t=0.6
5.761923754255484
% es.tEY (V/m) @ t=0.6
0
% es.tEZ (V/m) @ t=0.6
-2.859806968254887
% es.Ex (V/m) @ t=0.6
5.7619237542554735
% es.Ey (V/m) @ t=0.6
0.22165851225147082
% es.Ez (V/m) @ t=0.6
-2.859806968254868
% es.tEx (V/m) @ t=0.6
5.761923754255484
% es.tEy (V/m) @ t=0.6
0
% es.tEz (V/m) @ t=0.6
-2.859806968254887
% V (V) @ t=0.6
0.02920265671225661
% es.normE (V/m) @ t=0.62
6.522850378391427
% es.EX (V/m) @ t=0.62
5.839307347099499
% es.EY (V/m) @ t=0.62
0.22464429435927746
% es.EZ (V/m) @ t=0.62
-2.898206543351873
% es.tEX (V/m) @ t=0.62
5.839307347099485
% es.tEY (V/m) @ t=0.62
0
% es.tEZ (V/m) @ t=0.62
-2.898206543351847
% es.Ex (V/m) @ t=0.62
5.839307347099499
% es.Ey (V/m) @ t=0.62
0.22464429435927746
% es.Ez (V/m) @ t=0.62
-2.898206543351873
% es.tEx (V/m) @ t=0.62
5.839307347099485
% es.tEy (V/m) @ t=0.62
0
% es.tEz (V/m) @ t=0.62
-2.898206543351847
% V (V) @ t=0.62
0.029594652265366492
% es.normE (V/m) @ t=0.64
6.609289159187705
% es.EX (V/m) @ t=0.64
5.916690939943537
% es.EY (V/m) @ t=0.64
0.22763007646693856
% es.EZ (V/m) @ t=0.64
-2.9366061184488776
% es.tEX (V/m) @ t=0.64
5.916690939943528
% es.tEY (V/m) @ t=0.64
0
% es.tEZ (V/m) @ t=0.64
-2.9366061184488643
% es.Ex (V/m) @ t=0.64
5.916690939943537
% es.Ey (V/m) @ t=0.64
0.22763007646693856
% es.Ez (V/m) @ t=0.64
-2.9366061184488776
% es.tEx (V/m) @ t=0.64
5.916690939943528
% es.tEy (V/m) @ t=0.64
0
% es.tEz (V/m) @ t=0.64
-2.9366061184488643
% V (V) @ t=0.64
0.029986647818476375
% es.normE (V/m) @ t=0.66
6.695727940012462
% es.EX (V/m) @ t=0.66
5.994074532787528
% es.EY (V/m) @ t=0.66
0.23061585857472566
% es.EZ (V/m) @ t=0.66
-2.975005693545918
% es.tEX (V/m) @ t=0.66
5.9940745327875256
% es.tEY (V/m) @ t=0.66
0
% es.tEZ (V/m) @ t=0.66
-2.9750056935458957
% es.Ex (V/m) @ t=0.66
5.994074532787528
% es.Ey (V/m) @ t=0.66
0.23061585857472566
% es.Ez (V/m) @ t=0.66
-2.975005693545918
% es.tEx (V/m) @ t=0.66
5.9940745327875256
% es.tEy (V/m) @ t=0.66
0
% es.tEz (V/m) @ t=0.66
-2.9750056935458957
% V (V) @ t=0.66
0.030378643371586255
% es.normE (V/m) @ t=0.68
6.782166720864673
% es.EX (V/m) @ t=0.68
6.071458125631569
% es.EY (V/m) @ t=0.68
0.2336016406824898
% es.EZ (V/m) @ t=0.68
-3.0134052686429516
% es.tEX (V/m) @ t=0.68
6.071458125631583
% es.tEY (V/m) @ t=0.68
0
% es.tEZ (V/m) @ t=0.68
-3.013405268642927
% es.Ex (V/m) @ t=0.68
6.071458125631569
% es.Ey (V/m) @ t=0.68
0.2336016406824898
% es.Ez (V/m) @ t=0.68
-3.0134052686429516
% es.tEx (V/m) @ t=0.68
6.071458125631583
% es.tEy (V/m) @ t=0.68
0
% es.tEz (V/m) @ t=0.68
-3.013405268642927
% V (V) @ t=0.68
0.030770638924696146
% es.normE (V/m) @ t=0.7
6.868605501743278
% es.EX (V/m) @ t=0.7
6.148841718475621
% es.EY (V/m) @ t=0.7
0.236587422790268
% es.EZ (V/m) @ t=0.7
-3.051804843739999
% es.tEX (V/m) @ t=0.7
6.148841718475609
% es.tEY (V/m) @ t=0.7
0
% es.tEZ (V/m) @ t=0.7
-3.0518048437400154
% es.Ex (V/m) @ t=0.7
6.148841718475621
% es.Ey (V/m) @ t=0.7
0.236587422790268
% es.Ez (V/m) @ t=0.7
-3.051804843739999
% es.tEx (V/m) @ t=0.7
6.148841718475609
% es.tEy (V/m) @ t=0.7
0
% es.tEz (V/m) @ t=0.7
-3.0518048437400154
% V (V) @ t=0.7
0.031162634477806032
% es.normE (V/m) @ t=0.72
6.955044282647227
% es.EX (V/m) @ t=0.72
6.226225311319633
% es.EY (V/m) @ t=0.72
0.23957320489800704
% es.EZ (V/m) @ t=0.72
-3.0902044188370246
% es.tEX (V/m) @ t=0.72
6.226225311319624
% es.tEY (V/m) @ t=0.72
0
% es.tEZ (V/m) @ t=0.72
-3.09020441883699
% es.Ex (V/m) @ t=0.72
6.226225311319633
% es.Ey (V/m) @ t=0.72
0.23957320489800704
% es.Ez (V/m) @ t=0.72
-3.0902044188370246
% es.tEx (V/m) @ t=0.72
6.226225311319624
% es.tEy (V/m) @ t=0.72
0
% es.tEz (V/m) @ t=0.72
-3.09020441883699
% V (V) @ t=0.72
0.03155463003091591
% es.normE (V/m) @ t=0.74
7.041814524994399
% es.EX (V/m) @ t=0.74
6.303905326162999
% es.EY (V/m) @ t=0.74
0.24256947377142257
% es.EZ (V/m) @ t=0.74
-3.12875195405332
% es.tEX (V/m) @ t=0.74
6.303905326163001
% es.tEY (V/m) @ t=0.74
0
% es.tEZ (V/m) @ t=0.74
-3.1287519540532998
% es.Ex (V/m) @ t=0.74
6.303905326162999
% es.Ey (V/m) @ t=0.74
0.24256947377142257
% es.Ez (V/m) @ t=0.74
-3.12875195405332
% es.tEx (V/m) @ t=0.74
6.303905326163001
% es.tEy (V/m) @ t=0.74
0
% es.tEz (V/m) @ t=0.74
-3.1287519540532998
% V (V) @ t=0.74
0.031948148674090716
% es.normE (V/m) @ t=0.76
7.1332833116034235
% es.EX (V/m) @ t=0.76
6.385787193167946
% es.EY (V/m) @ t=0.76
0.2457143950358721
% es.EZ (V/m) @ t=0.76
-3.169396859061411
% es.tEX (V/m) @ t=0.76
6.385787193167928
% es.tEY (V/m) @ t=0.76
0
% es.tEZ (V/m) @ t=0.76
-3.1693968590614077
% es.Ex (V/m) @ t=0.76
6.385787193167946
% es.Ey (V/m) @ t=0.76
0.2457143950358721
% es.Ez (V/m) @ t=0.76
-3.169396859061411
% es.tEx (V/m) @ t=0.76
6.385787193167928
% es.tEy (V/m) @ t=0.76
0
% es.tEz (V/m) @ t=0.76
-3.1693968590614077
% V (V) @ t=0.76
0.032363257480258
% es.normE (V/m) @ t=0.78
7.224752098224051
% es.EX (V/m) @ t=0.78
6.467669060172804
% es.EY (V/m) @ t=0.78
0.24885931630028613
% es.EZ (V/m) @ t=0.78
-3.210041764069416
% es.tEX (V/m) @ t=0.78
6.467669060172792
% es.tEY (V/m) @ t=0.78
0
% es.tEZ (V/m) @ t=0.78
-3.210041764069402
% es.Ex (V/m) @ t=0.78
6.467669060172804
% es.Ey (V/m) @ t=0.78
0.24885931630028613
% es.Ez (V/m) @ t=0.78
-3.210041764069416
% es.tEx (V/m) @ t=0.78
6.467669060172792
% es.tEy (V/m) @ t=0.78
0
% es.tEz (V/m) @ t=0.78
-3.210041764069402
% V (V) @ t=0.78
0.03277836628642527
% es.normE (V/m) @ t=0.8
7.316220884856044
% es.EX (V/m) @ t=0.8
6.5495509271777195
% es.EY (V/m) @ t=0.8
0.2520042375648174
% es.EZ (V/m) @ t=0.8
-3.250686669077493
% es.tEX (V/m) @ t=0.8
6.549550927177709
% es.tEY (V/m) @ t=0.8
0
% es.tEZ (V/m) @ t=0.8
-3.2506866690774814
% es.Ex (V/m) @ t=0.8
6.5495509271777195
% es.Ey (V/m) @ t=0.8
0.2520042375648174
% es.Ez (V/m) @ t=0.8
-3.250686669077493
% es.tEx (V/m) @ t=0.8
6.549550927177709
% es.tEy (V/m) @ t=0.8
0
% es.tEz (V/m) @ t=0.8
-3.2506866690774814
% V (V) @ t=0.8
0.03319347509259255
% es.normE (V/m) @ t=0.82
7.407689671498797
% es.EX (V/m) @ t=0.82
6.631432794182546
% es.EY (V/m) @ t=0.82
0.2551491588292456
% es.EZ (V/m) @ t=0.82
-3.2913315740855267
% es.tEX (V/m) @ t=0.82
6.63143279418254
% es.tEY (V/m) @ t=0.82
0
% es.tEZ (V/m) @ t=0.82
-3.2913315740855325
% es.Ex (V/m) @ t=0.82
6.631432794182546
% es.Ey (V/m) @ t=0.82
0.2551491588292456
% es.Ez (V/m) @ t=0.82
-3.2913315740855267
% es.tEx (V/m) @ t=0.82
6.63143279418254
% es.tEy (V/m) @ t=0.82
0
% es.tEz (V/m) @ t=0.82
-3.2913315740855325
% V (V) @ t=0.82
0.03360858389875982
% es.normE (V/m) @ t=0.84
7.499158458152156
% es.EX (V/m) @ t=0.84
6.7133146611874865
% es.EY (V/m) @ t=0.84
0.2582940800937198
% es.EZ (V/m) @ t=0.84
-3.3319764790936386
% es.tEX (V/m) @ t=0.84
6.713314661187486
% es.tEY (V/m) @ t=0.84
0
% es.tEZ (V/m) @ t=0.84
-3.331976479093612
% es.Ex (V/m) @ t=0.84
6.7133146611874865
% es.Ey (V/m) @ t=0.84
0.2582940800937198
% es.Ez (V/m) @ t=0.84
-3.3319764790936386
% es.tEx (V/m) @ t=0.84
6.713314661187486
% es.tEy (V/m) @ t=0.84
0
% es.tEz (V/m) @ t=0.84
-3.331976479093612
% V (V) @ t=0.84
0.0340236927049271
% es.normE (V/m) @ t=0.86
7.590627244815536
% es.EX (V/m) @ t=0.86
6.795196528192387
% es.EY (V/m) @ t=0.86
0.26143900135818
% es.EZ (V/m) @ t=0.86
-3.372621384101687
% es.tEX (V/m) @ t=0.86
6.795196528192406
% es.tEY (V/m) @ t=0.86
0
% es.tEZ (V/m) @ t=0.86
-3.372621384101663
% es.Ex (V/m) @ t=0.86
6.795196528192387
% es.Ey (V/m) @ t=0.86
0.26143900135818
% es.Ez (V/m) @ t=0.86
-3.372621384101687
% es.tEx (V/m) @ t=0.86
6.795196528192406
% es.tEy (V/m) @ t=0.86
0
% es.tEz (V/m) @ t=0.86
-3.372621384101663
% V (V) @ t=0.86
0.03443880151109437
% es.normE (V/m) @ t=0.88
7.682096031488646
% es.EX (V/m) @ t=0.88
6.877078395197302
% es.EY (V/m) @ t=0.88
0.2645839226226401
% es.EZ (V/m) @ t=0.88
-3.4132662891097136
% es.tEX (V/m) @ t=0.88
6.877078395197266
% es.tEY (V/m) @ t=0.88
0
% es.tEZ (V/m) @ t=0.88
-3.4132662891096572
% es.Ex (V/m) @ t=0.88
6.877078395197302
% es.Ey (V/m) @ t=0.88
0.2645839226226401
% es.Ez (V/m) @ t=0.88
-3.4132662891097136
% es.tEx (V/m) @ t=0.88
6.877078395197266
% es.tEy (V/m) @ t=0.88
0
% es.tEz (V/m) @ t=0.88
-3.4132662891096572
% V (V) @ t=0.88
0.03485391031726165
% es.normE (V/m) @ t=0.9
7.773564818171064
% es.EX (V/m) @ t=0.9
6.95896026220213
% es.EY (V/m) @ t=0.9
0.2677288438871074
% es.EZ (V/m) @ t=0.9
-3.4539111941177474
% es.tEX (V/m) @ t=0.9
6.958960262202158
% es.tEY (V/m) @ t=0.9
0
% es.tEZ (V/m) @ t=0.9
-3.453911194117694
% es.Ex (V/m) @ t=0.9
6.95896026220213
% es.Ey (V/m) @ t=0.9
0.2677288438871074
% es.Ez (V/m) @ t=0.9
-3.4539111941177474
% es.tEx (V/m) @ t=0.9
6.958960262202158
% es.tEy (V/m) @ t=0.9
0
% es.tEz (V/m) @ t=0.9
-3.453911194117694
% V (V) @ t=0.9
0.03526901912342892
% es.normE (V/m) @ t=0.92
7.865033604862585
% es.EX (V/m) @ t=0.92
7.040842129207018
% es.EY (V/m) @ t=0.92
0.2708737651515979
% es.EZ (V/m) @ t=0.92
-3.4945560991257674
% es.tEX (V/m) @ t=0.92
7.040842129207018
% es.tEY (V/m) @ t=0.92
0
% es.tEZ (V/m) @ t=0.92
-3.494556099125731
% es.Ex (V/m) @ t=0.92
7.040842129207018
% es.Ey (V/m) @ t=0.92
0.2708737651515979
% es.Ez (V/m) @ t=0.92
-3.4945560991257674
% es.tEx (V/m) @ t=0.92
7.040842129207018
% es.tEy (V/m) @ t=0.92
0
% es.tEz (V/m) @ t=0.92
-3.494556099125731
% V (V) @ t=0.92
0.035684127929596195
% es.normE (V/m) @ t=0.94
7.957364906038585
% es.EX (V/m) @ t=0.94
7.123496610121412
% es.EY (V/m) @ t=0.94
0.27404986583542346
% es.EZ (V/m) @ t=0.94
-3.535583143038177
% es.tEX (V/m) @ t=0.94
7.123496610121435
% es.tEY (V/m) @ t=0.94
0
% es.tEZ (V/m) @ t=0.94
-3.5355831430381386
% es.Ex (V/m) @ t=0.94
7.123496610121412
% es.Ey (V/m) @ t=0.94
0.27404986583542346
% es.Ez (V/m) @ t=0.94
-3.535583143038177
% es.tEx (V/m) @ t=0.94
7.123496610121435
% es.tEy (V/m) @ t=0.94
0
% es.tEz (V/m) @ t=0.94
-3.5355831430381386
% V (V) @ t=0.94
0.036103119499492346
% es.normE (V/m) @ t=0.96
8.051806168160983
% es.EX (V/m) @ t=0.96
7.2080411290807245
% es.EY (V/m) @ t=0.96
0.27730224043597185
% es.EZ (V/m) @ t=0.96
-3.5775450097109056
% es.tEX (V/m) @ t=0.96
7.208041129080719
% es.tEY (V/m) @ t=0.96
0
% es.tEZ (V/m) @ t=0.96
-3.577545009710832
% es.Ex (V/m) @ t=0.96
7.2080411290807245
% es.Ey (V/m) @ t=0.96
0.27730224043597185
% es.Ez (V/m) @ t=0.96
-3.5775450097109056
% es.tEx (V/m) @ t=0.96
7.208041129080719
% es.tEy (V/m) @ t=0.96
0
% es.tEz (V/m) @ t=0.96
-3.577545009710832
% V (V) @ t=0.96
0.03653160943730148
% es.normE (V/m) @ t=0.98
8.146247430283342
% es.EX (V/m) @ t=0.98
7.292585648040051
% es.EY (V/m) @ t=0.98
0.28055461503638157
% es.EZ (V/m) @ t=0.98
-3.6195068763835065
% es.tEX (V/m) @ t=0.98
7.292585648040035
% es.tEY (V/m) @ t=0.98
0
% es.tEZ (V/m) @ t=0.98
-3.6195068763834968
% es.Ex (V/m) @ t=0.98
7.292585648040051
% es.Ey (V/m) @ t=0.98
0.28055461503638157
% es.Ez (V/m) @ t=0.98
-3.6195068763835065
% es.tEx (V/m) @ t=0.98
7.292585648040035
% es.tEy (V/m) @ t=0.98
0
% es.tEz (V/m) @ t=0.98
-3.6195068763834968
% V (V) @ t=0.98
0.03696009937511062
% es.normE (V/m) @ t=1
8.240688692405815
% es.EX (V/m) @ t=1
7.377130166999405
% es.EY (V/m) @ t=1
0.2838069896369265
% es.EZ (V/m) @ t=1
-3.661468743056285
% es.tEX (V/m) @ t=1
7.377130166999372
% es.tEY (V/m) @ t=1
0
% es.tEZ (V/m) @ t=1
-3.6614687430562185
% es.Ex (V/m) @ t=1
7.377130166999405
% es.Ey (V/m) @ t=1
0.2838069896369265
% es.Ez (V/m) @ t=1
-3.661468743056285
% es.tEx (V/m) @ t=1
7.377130166999372
% es.tEy (V/m) @ t=1
0
% es.tEz (V/m) @ t=1
-3.6614687430562185
% V (V) @ t=1
0.03738858931291976
% es.normE (V/m) @ t=1.02
8.335129954528192
% es.EX (V/m) @ t=1.02
7.4616746859587035
% es.EY (V/m) @ t=1.02
0.28705936423737544
% es.EZ (V/m) @ t=1.02
-3.703430609728943
% es.tEX (V/m) @ t=1.02
7.461674685958656
% es.tEY (V/m) @ t=1.02
0
% es.tEZ (V/m) @ t=1.02
-3.703430609728912
% es.Ex (V/m) @ t=1.02
7.4616746859587035
% es.Ey (V/m) @ t=1.02
0.28705936423737544
% es.Ez (V/m) @ t=1.02
-3.703430609728943
% es.tEx (V/m) @ t=1.02
7.461674685958656
% es.tEy (V/m) @ t=1.02
0
% es.tEz (V/m) @ t=1.02
-3.703430609728912
% V (V) @ t=1.02
0.037817079250728886
% es.normE (V/m) @ t=1.04
8.429571216650631
% es.EX (V/m) @ t=1.04
7.546219204918032
% es.EY (V/m) @ t=1.04
0.29031173883793426
% es.EZ (V/m) @ t=1.04
-3.7453924764016646
% es.tEX (V/m) @ t=1.04
7.546219204917996
% es.tEY (V/m) @ t=1.04
0
% es.tEZ (V/m) @ t=1.04
-3.7453924764016904
% es.Ex (V/m) @ t=1.04
7.546219204918032
% es.Ey (V/m) @ t=1.04
0.29031173883793426
% es.Ez (V/m) @ t=1.04
-3.7453924764016646
% es.tEx (V/m) @ t=1.04
7.546219204917996
% es.tEy (V/m) @ t=1.04
0
% es.tEz (V/m) @ t=1.04