% Model:              1 neuron.mph
% Version:            COMSOL 6.1.0.252
% Date:               Mar 18 2023, 13:54
% Dimension:          0
% Nodes:              14017
% Expressions:        14017
% Description:        Electric field norm, Electric field, X component, Electric field, Y component, Electric field, Z component, Tangential electric field, X component, Tangential electric field, Y component, Tangential electric field, Z component, Electric field, x component, Electric field, y component, Electric field, z component, Tangential electric field, x component, Tangential electric field, y component, Tangential electric field, z component, Electric potential
% Length unit:        mm
% x
1
% y
12.2
% z
1
% es.normE (V/m) @ t=0
2.2515548553193603
% es.EX (V/m) @ t=0
1.5288342044003826
% es.EY (V/m) @ t=0
0.4342066622349847
% es.EZ (V/m) @ t=0
1.5533665168433757
% es.tEX (V/m) @ t=0
1.52883420440034
% es.tEY (V/m) @ t=0
0
% es.tEZ (V/m) @ t=0
1.5533665168433686
% es.Ex (V/m) @ t=0
1.5288342044003826
% es.Ey (V/m) @ t=0
0.4342066622349847
% es.Ez (V/m) @ t=0
1.5533665168433757
% es.tEx (V/m) @ t=0
1.52883420440034
% es.tEy (V/m) @ t=0
0
% es.tEz (V/m) @ t=0
1.5533665168433686
% V (V) @ t=0
0.021113634067422123
% es.normE (V/m) @ t=0.02
2.1100732979898296
% es.EX (V/m) @ t=0.02
1.432764001267735
% es.EY (V/m) @ t=0.02
0.4069234846212808
% es.EZ (V/m) @ t=0.02
1.4557589876409978
% es.tEX (V/m) @ t=0.02
1.4327640012676852
% es.tEY (V/m) @ t=0.02
0
% es.tEZ (V/m) @ t=0.02
1.4557589876409907
% es.Ex (V/m) @ t=0.02
1.432764001267735
% es.Ey (V/m) @ t=0.02
0.4069234846212808
% es.Ez (V/m) @ t=0.02
1.4557589876409978
% es.tEx (V/m) @ t=0.02
1.4327640012676852
% es.tEy (V/m) @ t=0.02
0
% es.tEz (V/m) @ t=0.02
1.4557589876409907
% V (V) @ t=0.02
0.019786793911177502
% es.normE (V/m) @ t=0.04
2.140801386982617
% es.EX (V/m) @ t=0.04
1.4536287219076343
% es.EY (V/m) @ t=0.04
0.41284933749114927
% es.EZ (V/m) @ t=0.04
1.4769585828275815
% es.tEX (V/m) @ t=0.04
1.4536287219076485
% es.tEY (V/m) @ t=0.04
0
% es.tEZ (V/m) @ t=0.04
1.476958582827578
% es.Ex (V/m) @ t=0.04
1.4536287219076343
% es.Ey (V/m) @ t=0.04
0.41284933749114927
% es.Ez (V/m) @ t=0.04
1.4769585828275815
% es.tEx (V/m) @ t=0.04
1.4536287219076485
% es.tEy (V/m) @ t=0.04
0
% es.tEz (V/m) @ t=0.04
1.476958582827578
% V (V) @ t=0.04
0.020074940258122016
% es.normE (V/m) @ t=0.06
2.1719601673899285
% es.EX (V/m) @ t=0.06
1.474785887063689
% es.EY (V/m) @ t=0.06
0.41885824819239303
% es.EZ (V/m) @ t=0.06
1.4984553159441383
% es.tEX (V/m) @ t=0.06
1.474785887063689
% es.tEY (V/m) @ t=0.06
0
% es.tEZ (V/m) @ t=0.06
1.4984553159441276
% es.Ex (V/m) @ t=0.06
1.474785887063689
% es.Ey (V/m) @ t=0.06
0.41885824819239303
% es.Ez (V/m) @ t=0.06
1.4984553159441383
% es.tEx (V/m) @ t=0.06
1.474785887063689
% es.tEy (V/m) @ t=0.06
0
% es.tEz (V/m) @ t=0.06
1.4984553159441276
% V (V) @ t=0.06
0.02036712533417099
% es.normE (V/m) @ t=0.08
2.2037930908748717
% es.EX (V/m) @ t=0.08
1.496400808754963
% es.EY (V/m) @ t=0.08
0.42499716405891874
% es.EZ (V/m) @ t=0.08
1.5204171420979424
% es.tEX (V/m) @ t=0.08
1.49640080875497
% es.tEY (V/m) @ t=0.08
0
% es.tEZ (V/m) @ t=0.08
1.520417142097898
% es.Ex (V/m) @ t=0.08
1.496400808754963
% es.Ey (V/m) @ t=0.08
0.42499716405891874
% es.Ez (V/m) @ t=0.08
1.5204171420979424
% es.tEx (V/m) @ t=0.08
1.49640080875497
% es.tEy (V/m) @ t=0.08
0
% es.tEz (V/m) @ t=0.08
1.520417142097898
% V (V) @ t=0.08
0.02066563231576121
% es.normE (V/m) @ t=0.1
2.235626014359738
% es.EX (V/m) @ t=0.1
1.5180157304462298
% es.EY (V/m) @ t=0.1
0.4311360799254871
% es.EZ (V/m) @ t=0.1
1.5423789682516524
% es.tEX (V/m) @ t=0.1
1.5180157304462512
% es.tEY (V/m) @ t=0.1
0
% es.tEZ (V/m) @ t=0.1
1.54237896825164
% es.Ex (V/m) @ t=0.1
1.5180157304462298
% es.Ey (V/m) @ t=0.1
0.4311360799254871
% es.Ez (V/m) @ t=0.1
1.5423789682516524
% es.tEx (V/m) @ t=0.1
1.5180157304462512
% es.tEy (V/m) @ t=0.1
0
% es.tEz (V/m) @ t=0.1
1.54237896825164
% V (V) @ t=0.1
0.020964139297351424
% es.normE (V/m) @ t=0.12
2.268550852889142
% es.EX (V/m) @ t=0.12
1.5403720329550907
% es.EY (V/m) @ t=0.12
0.43748559150611044
% es.EZ (V/m) @ t=0.12
1.5650941466145412
% es.tEX (V/m) @ t=0.12
1.540372032955048
% es.tEY (V/m) @ t=0.12
0
% es.tEZ (V/m) @ t=0.12
1.5650941466145127
% es.Ex (V/m) @ t=0.12
1.5403720329550907
% es.Ey (V/m) @ t=0.12
0.43748559150611044
% es.Ez (V/m) @ t=0.12
1.5650941466145412
% es.tEx (V/m) @ t=0.12
1.540372032955048
% es.tEy (V/m) @ t=0.12
0
% es.tEz (V/m) @ t=0.12
1.5650941466145127
% V (V) @ t=0.12
0.02127288343988072
% es.normE (V/m) @ t=0.14
2.3023110177610615
% es.EX (V/m) @ t=0.14
1.563295499484525
% es.EY (V/m) @ t=0.14
0.443996210993884
% es.EZ (V/m) @ t=0.14
1.5883856472368123
% es.tEX (V/m) @ t=0.14
1.5632954994845534
% es.tEY (V/m) @ t=0.14
0
% es.tEZ (V/m) @ t=0.14
1.588385647236791
% es.Ex (V/m) @ t=0.14
1.563295499484525
% es.Ey (V/m) @ t=0.14
0.443996210993884
% es.Ez (V/m) @ t=0.14
1.5883856472368123
% es.tEx (V/m) @ t=0.14
1.5632954994845534
% es.tEy (V/m) @ t=0.14
0
% es.tEz (V/m) @ t=0.14
1.588385647236791
% V (V) @ t=0.14
0.021589459116786024
% es.normE (V/m) @ t=0.16
2.3360711826330673
% es.EX (V/m) @ t=0.16
1.5862189660140942
% es.EY (V/m) @ t=0.16
0.4505068304816717
% es.EZ (V/m) @ t=0.16
1.6116771478590675
% es.tEX (V/m) @ t=0.16
1.5862189660140302
% es.tEY (V/m) @ t=0.16
0
% es.tEZ (V/m) @ t=0.16
1.6116771478590408
% es.Ex (V/m) @ t=0.16
1.5862189660140942
% es.Ey (V/m) @ t=0.16
0.4505068304816717
% es.Ez (V/m) @ t=0.16
1.6116771478590675
% es.tEx (V/m) @ t=0.16
1.5862189660140302
% es.tEy (V/m) @ t=0.16
0
% es.tEz (V/m) @ t=0.16
1.6116771478590408
% V (V) @ t=0.16
0.02190603479369132
% es.normE (V/m) @ t=0.18
2.369831347505031
% es.EX (V/m) @ t=0.18
1.609142432543564
% es.EY (V/m) @ t=0.18
0.4570174499694595
% es.EZ (V/m) @ t=0.18
1.6349686484813386
% es.tEX (V/m) @ t=0.18
1.6091424325435923
% es.tEY (V/m) @ t=0.18
0
% es.tEZ (V/m) @ t=0.18
1.6349686484813049
% es.Ex (V/m) @ t=0.18
1.609142432543564
% es.Ey (V/m) @ t=0.18
0.4570174499694595
% es.Ez (V/m) @ t=0.18
1.6349686484813386
% es.tEx (V/m) @ t=0.18
1.6091424325435923
% es.tEy (V/m) @ t=0.18
0
% es.tEz (V/m) @ t=0.18
1.6349686484813049
% V (V) @ t=0.18
0.022222610470596618
% es.normE (V/m) @ t=0.2
2.4035915123770137
% es.EX (V/m) @ t=0.2
1.6320658990730834
% es.EY (V/m) @ t=0.2
0.46352806945719394
% es.EZ (V/m) @ t=0.2
1.6582601491036257
% es.tEX (V/m) @ t=0.2
1.6320658990730692
% es.tEY (V/m) @ t=0.2
0
% es.tEZ (V/m) @ t=0.2
1.6582601491035973
% es.Ex (V/m) @ t=0.2
1.6320658990730834
% es.Ey (V/m) @ t=0.2
0.46352806945719394
% es.Ez (V/m) @ t=0.2
1.6582601491036257
% es.tEx (V/m) @ t=0.2
1.6320658990730692
% es.tEy (V/m) @ t=0.2
0
% es.tEz (V/m) @ t=0.2
1.6582601491035973
% V (V) @ t=0.2
0.022539186147501916
% es.normE (V/m) @ t=0.22
2.4376171810988936
% es.EX (V/m) @ t=0.22
1.6551696566957617
% es.EY (V/m) @ t=0.22
0.4700898843967849
% es.EZ (V/m) @ t=0.22
1.6817348157910068
% es.tEX (V/m) @ t=0.22
1.6551696566957048
% es.tEY (V/m) @ t=0.22
0
% es.tEZ (V/m) @ t=0.22
1.6817348157909748
% es.Ex (V/m) @ t=0.22
1.6551696566957617
% es.Ey (V/m) @ t=0.22
0.4700898843967849
% es.Ez (V/m) @ t=0.22
1.6817348157910068
% es.tEx (V/m) @ t=0.22
1.6551696566957048
% es.tEy (V/m) @ t=0.22
0
% es.tEz (V/m) @ t=0.22
1.6817348157909748
% V (V) @ t=0.22
0.022858252076031073
% es.normE (V/m) @ t=0.24
2.473319503625504
% es.EX (V/m) @ t=0.24
1.67941195052925
% es.EY (V/m) @ t=0.24
0.47697499803459564
% es.EZ (V/m) @ t=0.24
1.7063661741052236
% es.tEX (V/m) @ t=0.24
1.6794119505292429
% es.tEY (V/m) @ t=0.24
0
% es.tEZ (V/m) @ t=0.24
1.706366174105213
% es.Ex (V/m) @ t=0.24
1.67941195052925
% es.Ey (V/m) @ t=0.24
0.47697499803459564
% es.Ez (V/m) @ t=0.24
1.7063661741052236
% es.tEx (V/m) @ t=0.24
1.6794119505292429
% es.tEy (V/m) @ t=0.24
0
% es.tEz (V/m) @ t=0.24
1.706366174105213
% V (V) @ t=0.24
0.023193043915360523
% es.normE (V/m) @ t=0.26
2.5090218261522454
% es.EX (V/m) @ t=0.26
1.7036542443630083
% es.EY (V/m) @ t=0.26
0.48386011167229626
% es.EZ (V/m) @ t=0.26
1.7309975324194191
% es.tEX (V/m) @ t=0.26
1.7036542443629514
% es.tEY (V/m) @ t=0.26
0
% es.tEZ (V/m) @ t=0.26
1.7309975324194085
% es.Ex (V/m) @ t=0.26
1.7036542443630083
% es.Ey (V/m) @ t=0.26
0.48386011167229626
% es.Ez (V/m) @ t=0.26
1.7309975324194191
% es.tEx (V/m) @ t=0.26
1.7036542443629514
% es.tEy (V/m) @ t=0.26
0
% es.tEz (V/m) @ t=0.26
1.7309975324194085
% V (V) @ t=0.26
0.02352783575468997
% es.normE (V/m) @ t=0.28
2.5447241486788643
% es.EX (V/m) @ t=0.28
1.7278965381965534
% es.EY (V/m) @ t=0.28
0.4907452253100466
% es.EZ (V/m) @ t=0.28
1.7556288907336128
% es.tEX (V/m) @ t=0.28
1.7278965381966032
% es.tEY (V/m) @ t=0.28
0
% es.tEZ (V/m) @ t=0.28
1.7556288907335755
% es.Ex (V/m) @ t=0.28
1.7278965381965534
% es.Ey (V/m) @ t=0.28
0.4907452253100466
% es.Ez (V/m) @ t=0.28
1.7556288907336128
% es.tEx (V/m) @ t=0.28
1.7278965381966032
% es.tEy (V/m) @ t=0.28
0
% es.tEz (V/m) @ t=0.28
1.7556288907335755
% V (V) @ t=0.28
0.023862627594019425
% es.normE (V/m) @ t=0.3
2.5804264712055316
% es.EX (V/m) @ t=0.3
1.752138832030191
% es.EY (V/m) @ t=0.3
0.4976303389477863
% es.EZ (V/m) @ t=0.3
1.780260249047819
% es.tEX (V/m) @ t=0.3
1.7521388320301696
% es.tEY (V/m) @ t=0.3
0
% es.tEZ (V/m) @ t=0.3
1.780260249047771
% es.Ex (V/m) @ t=0.3
1.752138832030191
% es.Ey (V/m) @ t=0.3
0.4976303389477863
% es.Ez (V/m) @ t=0.3
1.780260249047819
% es.tEx (V/m) @ t=0.3
1.7521388320301696
% es.tEy (V/m) @ t=0.3
0
% es.tEz (V/m) @ t=0.3
1.780260249047771
% V (V) @ t=0.3
0.024197419433348875
% es.normE (V/m) @ t=0.32
2.61612879373231
% es.EX (V/m) @ t=0.32
1.7763811258639066
% es.EY (V/m) @ t=0.32
0.504515452585526
% es.EZ (V/m) @ t=0.32
1.8048916073620838
% es.tEX (V/m) @ t=0.32
1.7763811258638782
% es.tEY (V/m) @ t=0.32
0
% es.tEZ (V/m) @ t=0.32
1.8048916073620518
% es.Ex (V/m) @ t=0.32
1.7763811258639066
% es.Ey (V/m) @ t=0.32
0.504515452585526
% es.Ez (V/m) @ t=0.32
1.8048916073620838
% es.tEx (V/m) @ t=0.32
1.7763811258638782
% es.tEy (V/m) @ t=0.32
0
% es.tEz (V/m) @ t=0.32
1.8048916073620518
% V (V) @ t=0.32
0.02453221127267833
% es.normE (V/m) @ t=0.34
2.654568112262142
% es.EX (V/m) @ t=0.34
1.8024814766785724
% es.EY (V/m) @ t=0.34
0.5119286169872872
% es.EZ (V/m) @ t=0.34
1.8314115176244101
% es.tEX (V/m) @ t=0.34
1.8024814766785084
% es.tEY (V/m) @ t=0.34
0
% es.tEZ (V/m) @ t=0.34
1.8314115176243746
% es.Ex (V/m) @ t=0.34
1.8024814766785724
% es.Ey (V/m) @ t=0.34
0.5119286169872872
% es.Ez (V/m) @ t=0.34
1.8314115176244101
% es.tEx (V/m) @ t=0.34
1.8024814766785084
% es.tEy (V/m) @ t=0.34
0
% es.tEz (V/m) @ t=0.34
1.8314115176243746
% V (V) @ t=0.34
0.024892649168429273
% es.normE (V/m) @ t=0.36
2.6941425798734353
% es.EX (V/m) @ t=0.36
1.8293524430412234
% es.EY (V/m) @ t=0.36
0.5195607865828009
% es.EZ (V/m) @ t=0.36
1.858714690999438
% es.tEX (V/m) @ t=0.36
1.8293524430411878
% es.tEY (V/m) @ t=0.36
0
% es.tEZ (V/m) @ t=0.36
1.8587146909994061
% es.Ex (V/m) @ t=0.36
1.8293524430412234
% es.Ey (V/m) @ t=0.36
0.5195607865828009
% es.Ez (V/m) @ t=0.36
1.858714690999438
% es.tEx (V/m) @ t=0.36
1.8293524430411878
% es.tEy (V/m) @ t=0.36
0
% es.tEz (V/m) @ t=0.36
1.8587146909994061
% V (V) @ t=0.36
0.025263723578575335
% es.normE (V/m) @ t=0.38
2.7337170474851034
% es.EX (V/m) @ t=0.38
1.8562234094040235
% es.EY (V/m) @ t=0.38
0.5271929561782471
% es.EZ (V/m) @ t=0.38
1.8860178643745513
% es.tEX (V/m) @ t=0.38
1.8562234094040093
% es.tEY (V/m) @ t=0.38
0
% es.tEZ (V/m) @ t=0.38
1.8860178643745371
% es.Ex (V/m) @ t=0.38
1.8562234094040235
% es.Ey (V/m) @ t=0.38
0.5271929561782471
% es.Ez (V/m) @ t=0.38
1.8860178643745513
% es.tEx (V/m) @ t=0.38
1.8562234094040093
% es.tEy (V/m) @ t=0.38
0
% es.tEz (V/m) @ t=0.38
1.8860178643745371
% V (V) @ t=0.38
0.025634797988721404
% es.normE (V/m) @ t=0.4
2.773291515096872
% es.EX (V/m) @ t=0.4
1.88309437576671
% es.EY (V/m) @ t=0.4
0.5348251257736969
% es.EZ (V/m) @ t=0.4
1.9133210377496042
% es.tEX (V/m) @ t=0.4
1.8830943757666603
% es.tEY (V/m) @ t=0.4
0
% es.tEZ (V/m) @ t=0.4
1.9133210377495686
% es.Ex (V/m) @ t=0.4
1.88309437576671
% es.Ey (V/m) @ t=0.4
0.5348251257736969
% es.Ez (V/m) @ t=0.4
1.9133210377496042
% es.tEx (V/m) @ t=0.4
1.8830943757666603
% es.tEy (V/m) @ t=0.4
0
% es.tEz (V/m) @ t=0.4
1.9133210377495686
% V (V) @ t=0.4
0.026005872398867466
% es.normE (V/m) @ t=0.42
2.8128659827088955
% es.EX (V/m) @ t=0.42
1.9099653421295102
% es.EY (V/m) @ t=0.42
0.542457295369065
% es.EZ (V/m) @ t=0.42
1.9406242111246677
% es.tEX (V/m) @ t=0.42
1.9099653421294818
% es.tEY (V/m) @ t=0.42
0
% es.tEZ (V/m) @ t=0.42
1.940624211124657
% es.Ex (V/m) @ t=0.42
1.9099653421295102
% es.Ey (V/m) @ t=0.42
0.542457295369065
% es.Ez (V/m) @ t=0.42
1.9406242111246677
% es.tEx (V/m) @ t=0.42
1.9099653421294818
% es.tEy (V/m) @ t=0.42
0
% es.tEz (V/m) @ t=0.42
1.940624211124657
% V (V) @ t=0.42
0.026376946809013525
% es.normE (V/m) @ t=0.44
2.8524404503211374
% es.EX (V/m) @ t=0.44
1.9368363084922606
% es.EY (V/m) @ t=0.44
0.5500894649645858
% es.EZ (V/m) @ t=0.44
1.9679273844997667
% es.tEX (V/m) @ t=0.44
1.936836308492218
% es.tEY (V/m) @ t=0.44
0
% es.tEZ (V/m) @ t=0.44
1.9679273844997454
% es.Ex (V/m) @ t=0.44
1.9368363084922606
% es.Ey (V/m) @ t=0.44
0.5500894649645858
% es.Ez (V/m) @ t=0.44
1.9679273844997667
% es.tEx (V/m) @ t=0.44
1.936836308492218
% es.tEy (V/m) @ t=0.44
0
% es.tEz (V/m) @ t=0.44
1.9679273844997454
% V (V) @ t=0.44
0.02674802121915959
% es.normE (V/m) @ t=0.46
2.892014917933528
% es.EX (V/m) @ t=0.46
1.963707274855004
% es.EY (V/m) @ t=0.46
0.5577216345600178
% es.EZ (V/m) @ t=0.46
1.9952305578748373
% es.tEX (V/m) @ t=0.46
1.9637072748549826
% es.tEY (V/m) @ t=0.46
0
% es.tEZ (V/m) @ t=0.46
1.9952305578748053
% es.Ex (V/m) @ t=0.46
1.963707274855004
% es.Ey (V/m) @ t=0.46
0.5577216345600178
% es.Ez (V/m) @ t=0.46
1.9952305578748373
% es.tEx (V/m) @ t=0.46
1.9637072748549826
% es.tEy (V/m) @ t=0.46
0
% es.tEz (V/m) @ t=0.46
1.9952305578748053
% V (V) @ t=0.46
0.027119095629305652
% es.normE (V/m) @ t=0.48
2.931589385546097
% es.EX (V/m) @ t=0.48
1.9905782412177544
% es.EY (V/m) @ t=0.48
0.5653538041554391
% es.EZ (V/m) @ t=0.48
2.022533731249915
% es.tEX (V/m) @ t=0.48
1.9905782412177189
% es.tEY (V/m) @ t=0.48
0
% es.tEZ (V/m) @ t=0.48
2.0225337312498795
% es.Ex (V/m) @ t=0.48
1.9905782412177544
% es.Ey (V/m) @ t=0.48
0.5653538041554391
% es.Ez (V/m) @ t=0.48
2.022533731249915
% es.tEx (V/m) @ t=0.48
1.9905782412177189
% es.tEy (V/m) @ t=0.48
0
% es.tEz (V/m) @ t=0.48
2.0225337312498795
% V (V) @ t=0.48
0.027490170039451714
% es.normE (V/m) @ t=0.5
2.9711638531588624
% es.EX (V/m) @ t=0.5
2.0174492075804977
% es.EY (V/m) @ t=0.5
0.5729859737509244
% es.EZ (V/m) @ t=0.5
2.049836904625007
% es.tEX (V/m) @ t=0.5
2.0174492075805404
% es.tEY (V/m) @ t=0.5
0
% es.tEZ (V/m) @ t=0.5
2.049836904624968
% es.Ex (V/m) @ t=0.5
2.0174492075804977
% es.Ey (V/m) @ t=0.5
0.5729859737509244
% es.Ez (V/m) @ t=0.5
2.049836904625007
% es.tEx (V/m) @ t=0.5
2.0174492075805404
% es.tEy (V/m) @ t=0.5
0
% es.tEz (V/m) @ t=0.5
2.049836904624968
% V (V) @ t=0.5
0.02786124444959777
% es.normE (V/m) @ t=0.52
3.0107383207717637
% es.EX (V/m) @ t=0.52
2.0443201739432624
% es.EY (V/m) @ t=0.52
0.5806181433463706
% es.EZ (V/m) @ t=0.52
2.0771400780000704
% es.tEX (V/m) @ t=0.52
2.044320173943248
% es.tEY (V/m) @ t=0.52
0
% es.tEZ (V/m) @ t=0.52
2.077140078000042
% es.Ex (V/m) @ t=0.52
2.0443201739432624
% es.Ey (V/m) @ t=0.52
0.5806181433463706
% es.Ez (V/m) @ t=0.52
2.0771400780000704
% es.tEx (V/m) @ t=0.52
2.044320173943248
% es.tEy (V/m) @ t=0.52
0
% es.tEz (V/m) @ t=0.52
2.077140078000042
% V (V) @ t=0.52
0.028232318859743838
% es.normE (V/m) @ t=0.54
3.050312788384838
% es.EX (V/m) @ t=0.54
2.0711911403059915
% es.EY (V/m) @ t=0.54
0.588250312941824
% es.EZ (V/m) @ t=0.54
2.1044432513751588
% es.tEX (V/m) @ t=0.54
2.071191140305956
% es.tEY (V/m) @ t=0.54
0
% es.tEZ (V/m) @ t=0.54
2.1044432513751303
% es.Ex (V/m) @ t=0.54
2.0711911403059915
% es.Ey (V/m) @ t=0.54
0.588250312941824
% es.Ez (V/m) @ t=0.54
2.1044432513751588
% es.tEx (V/m) @ t=0.54
2.071191140305956
% es.tEy (V/m) @ t=0.54
0
% es.tEz (V/m) @ t=0.54
2.1044432513751303
% V (V) @ t=0.54
0.0286033932698899
% es.normE (V/m) @ t=0.56
3.0925360202073744
% es.EX (V/m) @ t=0.56
2.0998619235720284
% es.EY (V/m) @ t=0.56
0.5963923880684092
% es.EZ (V/m) @ t=0.56
2.133573022006299
% es.tEX (V/m) @ t=0.56
2.099861923572007
% es.tEY (V/m) @ t=0.56
0
% es.tEZ (V/m) @ t=0.56
2.13357302200626
% es.Ex (V/m) @ t=0.56
2.0998619235720284
% es.Ey (V/m) @ t=0.56
0.5963923880684092
% es.Ez (V/m) @ t=0.56
2.133573022006299
% es.tEx (V/m) @ t=0.56
2.099861923572007
% es.tEy (V/m) @ t=0.56
0
% es.tEz (V/m) @ t=0.56
2.13357302200626
% V (V) @ t=0.56
0.028999371165029018
% es.normE (V/m) @ t=0.58
3.1352372910694015
% es.EX (V/m) @ t=0.58
2.128857531048304
% es.EY (V/m) @ t=0.58
0.6046264890344659
% es.EZ (V/m) @ t=0.58
2.1630324500653266
% es.tEX (V/m) @ t=0.58
2.128857531048311
% es.tEY (V/m) @ t=0.58
0
% es.tEZ (V/m) @ t=0.58
2.1630324500652875
% es.Ex (V/m) @ t=0.58
2.128857531048304
% es.Ey (V/m) @ t=0.58
0.6046264890344659
% es.Ez (V/m) @ t=0.58
2.1630324500653266
% es.tEx (V/m) @ t=0.58
2.128857531048311
% es.tEy (V/m) @ t=0.58
0
% es.tEz (V/m) @ t=0.58
2.1630324500652875
% V (V) @ t=0.58
0.02939984354781855
% es.normE (V/m) @ t=0.6
3.1779385619323053
% es.EX (V/m) @ t=0.6
2.157853138524729
% es.EY (V/m) @ t=0.6
0.6128605900005084
% es.EZ (V/m) @ t=0.6
2.192491878124322
% es.tEX (V/m) @ t=0.6
2.157853138524672
% es.tEY (V/m) @ t=0.6
0
% es.tEZ (V/m) @ t=0.6
2.192491878124315
% es.Ex (V/m) @ t=0.6
2.157853138524729
% es.Ey (V/m) @ t=0.6
0.6128605900005084
% es.Ez (V/m) @ t=0.6
2.192491878124322
% es.tEx (V/m) @ t=0.6
2.157853138524672
% es.tEy (V/m) @ t=0.6
0
% es.tEz (V/m) @ t=0.6
2.192491878124315
% V (V) @ t=0.6
0.029800315930608078
% es.normE (V/m) @ t=0.62
3.2206398327958587
% es.EX (V/m) @ t=0.62
2.186848746000905
% es.EY (V/m) @ t=0.62
0.6210946909666717
% es.EZ (V/m) @ t=0.62
2.221951306183364
% es.tEX (V/m) @ t=0.62
2.186848746000919
% es.tEY (V/m) @ t=0.62
0
% es.tEZ (V/m) @ t=0.62
2.2219513061833283
% es.Ex (V/m) @ t=0.62
2.186848746000905
% es.Ey (V/m) @ t=0.62
0.6210946909666717
% es.Ez (V/m) @ t=0.62
2.221951306183364
% es.tEx (V/m) @ t=0.62
2.186848746000919
% es.tEy (V/m) @ t=0.62
0
% es.tEz (V/m) @ t=0.62
2.2219513061833283
% V (V) @ t=0.62
0.030200788313397613
% es.normE (V/m) @ t=0.64
3.2633411036600872
% es.EX (V/m) @ t=0.64
2.215844353477138
% es.EY (V/m) @ t=0.64
0.6293287919327355
% es.EZ (V/m) @ t=0.64
2.2514107342423273
% es.tEX (V/m) @ t=0.64
2.2158443534770527
% es.tEY (V/m) @ t=0.64
0
% es.tEZ (V/m) @ t=0.64
2.2514107342422847
% es.Ex (V/m) @ t=0.64
2.215844353477138
% es.Ey (V/m) @ t=0.64
0.6293287919327355
% es.Ez (V/m) @ t=0.64
2.2514107342423273
% es.tEx (V/m) @ t=0.64
2.2158443534770527
% es.tEy (V/m) @ t=0.64
0
% es.tEz (V/m) @ t=0.64
2.2514107342422847
% V (V) @ t=0.64
0.030601260696187134
% es.normE (V/m) @ t=0.66
3.306042374525121
% es.EX (V/m) @ t=0.66
2.2448399609534846
% es.EY (V/m) @ t=0.66
0.6375628928989414
% es.EZ (V/m) @ t=0.66
2.2808701623012837
% es.tEX (V/m) @ t=0.66
2.2448399609534135
% es.tEY (V/m) @ t=0.66
0
% es.tEZ (V/m) @ t=0.66
2.2808701623012553
% es.Ex (V/m) @ t=0.66
2.2448399609534846
% es.Ey (V/m) @ t=0.66
0.6375628928989414
% es.Ez (V/m) @ t=0.66
2.2808701623012837
% es.tEx (V/m) @ t=0.66
2.2448399609534135
% es.tEy (V/m) @ t=0.66
0
% es.tEz (V/m) @ t=0.66
2.2808701623012553
% V (V) @ t=0.66
0.03100173307897667
% es.normE (V/m) @ t=0.68
3.348743645390787
% es.EX (V/m) @ t=0.68
2.273835568429675
% es.EY (V/m) @ t=0.68
0.6457969938649271
% es.EZ (V/m) @ t=0.68
2.3103295903603893
% es.tEX (V/m) @ t=0.68
2.2738355684296607
% es.tEY (V/m) @ t=0.68
0
% es.tEZ (V/m) @ t=0.68
2.310329590360368
% es.Ex (V/m) @ t=0.68
2.273835568429675
% es.Ey (V/m) @ t=0.68
0.6457969938649271
% es.Ez (V/m) @ t=0.68
2.3103295903603893
% es.tEx (V/m) @ t=0.68
2.2738355684296607
% es.tEy (V/m) @ t=0.68
0
% es.tEz (V/m) @ t=0.68
2.310329590360368
% V (V) @ t=0.68
0.0314022054617662
% es.normE (V/m) @ t=0.7
3.391444916257093
% es.EX (V/m) @ t=0.7
2.302831175905908
% es.EY (V/m) @ t=0.7
0.6540310948311046
% es.EZ (V/m) @ t=0.7
2.339789018419385
% es.tEX (V/m) @ t=0.7
2.302831175905908
% es.tEY (V/m) @ t=0.7
0
% es.tEZ (V/m) @ t=0.7
2.339789018419353
% es.Ex (V/m) @ t=0.7
2.302831175905908
% es.Ey (V/m) @ t=0.7
0.6540310948311046
% es.Ez (V/m) @ t=0.7
2.339789018419385
% es.tEx (V/m) @ t=0.7
2.302831175905908
% es.tEy (V/m) @ t=0.7
0
% es.tEz (V/m) @ t=0.7
2.339789018419353
% V (V) @ t=0.7
0.031802677844555725
% es.normE (V/m) @ t=0.72
3.43414618712399
% es.EX (V/m) @ t=0.72
2.3318267833821125
% es.EY (V/m) @ t=0.72
0.662265195797346
% es.EZ (V/m) @ t=0.72
2.369248446478327
% es.tEX (V/m) @ t=0.72
2.3318267833820983
% es.tEY (V/m) @ t=0.72
0
% es.tEZ (V/m) @ t=0.72
2.3692484464783092
% es.Ex (V/m) @ t=0.72
2.3318267833821125
% es.Ey (V/m) @ t=0.72
0.662265195797346
% es.Ez (V/m) @ t=0.72
2.369248446478327
% es.tEx (V/m) @ t=0.72
2.3318267833820983
% es.tEy (V/m) @ t=0.72
0
% es.tEz (V/m) @ t=0.72
2.3692484464783092
% V (V) @ t=0.72
0.032203150227345254
% es.normE (V/m) @ t=0.74
3.4770266969997783
% es.EX (V/m) @ t=0.74
2.3609439301100963
% es.EY (V/m) @ t=0.74
0.6705340049218478
% es.EZ (V/m) @ t=0.74
2.3988316280750084
% es.tEX (V/m) @ t=0.74
2.360943930110068
% es.tEY (V/m) @ t=0.74
0
% es.tEZ (V/m) @ t=0.74
2.398831628074973
% es.Ex (V/m) @ t=0.74
2.3609439301100963
% es.Ey (V/m) @ t=0.74
0.6705340049218478
% es.Ez (V/m) @ t=0.74
2.3988316280750084
% es.tEx (V/m) @ t=0.74
2.360943930110068
% es.tEy (V/m) @ t=0.74
0
% es.tEz (V/m) @ t=0.74
2.398831628074973
% V (V) @ t=0.74
0.03260529461694645
% es.normE (V/m) @ t=0.76
3.5221711878263746
% es.EX (V/m) @ t=0.76
2.3915962479656656
% es.EY (V/m) @ t=0.76
0.6792412153226977
% es.EZ (V/m) @ t=0.76
2.4299779496064886
% es.tEX (V/m) @ t=0.76
2.3915962479656514
% es.tEY (V/m) @ t=0.76
0
% es.tEZ (V/m) @ t=0.76
2.429977949606453
% es.Ex (V/m) @ t=0.76
2.3915962479656656
% es.Ey (V/m) @ t=0.76
0.6792412153226977
% es.Ez (V/m) @ t=0.76
2.4299779496064886
% es.tEx (V/m) @ t=0.76
2.3915962479656514
% es.tEy (V/m) @ t=0.76
0
% es.tEz (V/m) @ t=0.76
2.429977949606453
% V (V) @ t=0.76
0.033028558246209136
% es.normE (V/m) @ t=0.78
3.5673156786542406
% es.EX (V/m) @ t=0.78
2.422248565821249
% es.EY (V/m) @ t=0.78
0.6879484257233273
% es.EZ (V/m) @ t=0.78
2.4611242711379546
% es.tEX (V/m) @ t=0.78
2.422248565821235
% es.tEY (V/m) @ t=0.78
0
% es.tEZ (V/m) @ t=0.78
2.4611242711379333
% es.Ex (V/m) @ t=0.78
2.422248565821249
% es.Ey (V/m) @ t=0.78
0.6879484257233273
% es.Ez (V/m) @ t=0.78
2.4611242711379546
% es.tEx (V/m) @ t=0.78
2.422248565821235
% es.tEy (V/m) @ t=0.78
0
% es.tEz (V/m) @ t=0.78
2.4611242711379333
% V (V) @ t=0.78
0.03345182187547181
% es.normE (V/m) @ t=0.8
3.6124601694834384
% es.EX (V/m) @ t=0.8
2.4529008836768185
% es.EY (V/m) @ t=0.8
0.6966556361241061
% es.EZ (V/m) @ t=0.8
2.4922705926694064
% es.tEX (V/m) @ t=0.8
2.4529008836768185
% es.tEY (V/m) @ t=0.8
0
% es.tEZ (V/m) @ t=0.8
2.492270592669371
% es.Ex (V/m) @ t=0.8
2.4529008836768185
% es.Ey (V/m) @ t=0.8
0.6966556361241061
% es.Ez (V/m) @ t=0.8
2.4922705926694064
% es.tEx (V/m) @ t=0.8
2.4529008836768185
% es.tEy (V/m) @ t=0.8
0
% es.tEz (V/m) @ t=0.8
2.492270592669371
% V (V) @ t=0.8
0.033875085504734496
% es.normE (V/m) @ t=0.82
3.657604660314014
% es.EX (V/m) @ t=0.82
2.4835532015325725
% es.EY (V/m) @ t=0.82
0.7053628465246717
% es.EZ (V/m) @ t=0.82
2.523416914200979
% es.tEX (V/m) @ t=0.82
2.4835532015325725
% es.tEY (V/m) @ t=0.82
0
% es.tEZ (V/m) @ t=0.82
2.523416914200965
% es.Ex (V/m) @ t=0.82
2.4835532015325725
% es.Ey (V/m) @ t=0.82
0.7053628465246717
% es.Ez (V/m) @ t=0.82
2.523416914200979
% es.tEx (V/m) @ t=0.82
2.4835532015325725
% es.tEy (V/m) @ t=0.82
0
% es.tEz (V/m) @ t=0.82
2.523416914200965
% V (V) @ t=0.82
0.03429834913399717
% es.normE (V/m) @ t=0.84
3.7027491511456407
% es.EX (V/m) @ t=0.84
2.514205519388142
% es.EY (V/m) @ t=0.84
0.7140700569254363
% es.EZ (V/m) @ t=0.84
2.5545632357324237
% es.tEX (V/m) @ t=0.84
2.514205519388099
% es.tEY (V/m) @ t=0.84
0
% es.tEZ (V/m) @ t=0.84
2.5545632357324166
% es.Ex (V/m) @ t=0.84
2.514205519388142
% es.Ey (V/m) @ t=0.84
0.7140700569254363
% es.Ez (V/m) @ t=0.84
2.5545632357324237
% es.tEx (V/m) @ t=0.84
2.514205519388099
% es.tEy (V/m) @ t=0.84
0
% es.tEz (V/m) @ t=0.84
2.5545632357324166
% V (V) @ t=0.84
0.03472161276325986
% es.normE (V/m) @ t=0.86
3.747893641978532
% es.EX (V/m) @ t=0.86
2.5448578372438533
% es.EY (V/m) @ t=0.86
0.7227772673261086
% es.EZ (V/m) @ t=0.86
2.585709557263918
% es.tEX (V/m) @ t=0.86
2.5448578372437396
% es.tEY (V/m) @ t=0.86
0
% es.tEZ (V/m) @ t=0.86
2.5857095572638684
% es.Ex (V/m) @ t=0.86
2.5448578372438533
% es.Ey (V/m) @ t=0.86
0.7227772673261086
% es.Ez (V/m) @ t=0.86
2.585709557263918
% es.tEx (V/m) @ t=0.86
2.5448578372437396
% es.tEy (V/m) @ t=0.86
0
% es.tEz (V/m) @ t=0.86
2.5857095572638684
% V (V) @ t=0.86
0.035144876392522534
% es.normE (V/m) @ t=0.88
3.7930381328124714
% es.EX (V/m) @ t=0.88
2.5755101550994794
% es.EY (V/m) @ t=0.88
0.7314844777268519
% es.EZ (V/m) @ t=0.88
2.616855878795345
% es.tEX (V/m) @ t=0.88
2.575510155099437
% es.tEY (V/m) @ t=0.88
0
% es.tEZ (V/m) @ t=0.88
2.6168558787953202
% es.Ex (V/m) @ t=0.88
2.5755101550994794
% es.Ey (V/m) @ t=0.88
0.7314844777268519
% es.Ez (V/m) @ t=0.88
2.616855878795345
% es.tEx (V/m) @ t=0.88
2.575510155099437
% es.tEy (V/m) @ t=0.88
0
% es.tEz (V/m) @ t=0.88
2.6168558787953202
% V (V) @ t=0.88
0.03556814002178522
% es.normE (V/m) @ t=0.9
3.8381826236474685
% es.EX (V/m) @ t=0.9
2.6061624729550488
% es.EY (V/m) @ t=0.9
0.7401916881275028
% es.EZ (V/m) @ t=0.9
2.6480022003268466
% es.tEX (V/m) @ t=0.9
2.6061624729549635
% es.tEY (V/m) @ t=0.9
0
% es.tEZ (V/m) @ t=0.9
2.648002200326829
% es.Ex (V/m) @ t=0.9
2.6061624729550488
% es.Ey (V/m) @ t=0.9
0.7401916881275028
% es.Ez (V/m) @ t=0.9
2.6480022003268466
% es.tEx (V/m) @ t=0.9
2.6061624729549635
% es.tEy (V/m) @ t=0.9
0
% es.tEz (V/m) @ t=0.9
2.648002200326829
% V (V) @ t=0.9
0.0359914036510479
% es.normE (V/m) @ t=0.92
3.8833271144835
% es.EX (V/m) @ t=0.92
2.636814790810618
% es.EY (V/m) @ t=0.92
0.7488988985282319
% es.EZ (V/m) @ t=0.92
2.6791485218583375
% es.tEX (V/m) @ t=0.92
2.636814790810604
% es.tEY (V/m) @ t=0.92
0
% es.tEZ (V/m) @ t=0.92
2.679148521858309
% es.Ex (V/m) @ t=0.92
2.636814790810618
% es.Ey (V/m) @ t=0.92
0.7488988985282319
% es.Ez (V/m) @ t=0.92
2.6791485218583375
% es.tEx (V/m) @ t=0.92
2.636814790810604
% es.tEy (V/m) @ t=0.92
0
% es.tEz (V/m) @ t=0.92
2.679148521858309
% V (V) @ t=0.92
0.03641466728031058
% es.normE (V/m) @ t=0.94
3.9289193682478265
% es.EX (V/m) @ t=0.94
2.6677718820681378
% es.EY (V/m) @ t=0.94
0.7576918246445317
% es.EZ (V/m) @ t=0.94
2.710603339241036
% es.tEX (V/m) @ t=0.94
2.667771882068166
% es.tEY (V/m) @ t=0.94
0
% es.tEZ (V/m) @ t=0.94
2.710603339241004
% es.Ex (V/m) @ t=0.94
2.6677718820681378
% es.Ey (V/m) @ t=0.94
0.7576918246445317
% es.Ez (V/m) @ t=0.94
2.710603339241036
% es.tEx (V/m) @ t=0.94
2.667771882068166
% es.tEy (V/m) @ t=0.94
0
% es.tEz (V/m) @ t=0.94
2.710603339241004
% V (V) @ t=0.94
0.03684216869662951
% es.normE (V/m) @ t=0.96
3.975558355646273
% es.EX (V/m) @ t=0.96
2.69944144090816
% es.EY (V/m) @ t=0.96
0.766685128051563
% es.EZ (V/m) @ t=0.96
2.742779326161134
% es.tEX (V/m) @ t=0.96
2.6994414409081173
% es.tEY (V/m) @ t=0.96
0
% es.tEZ (V/m) @ t=0.96
2.7427793261610702
% es.Ex (V/m) @ t=0.96
2.69944144090816
% es.Ey (V/m) @ t=0.96
0.766685128051563
% es.Ez (V/m) @ t=0.96
2.742779326161134
% es.tEx (V/m) @ t=0.96
2.6994414409081173
% es.tEy (V/m) @ t=0.96
0
% es.tEz (V/m) @ t=0.96
2.7427793261610702
% V (V) @ t=0.96
0.0372795767710719
% es.normE (V/m) @ t=0.98
4.02219734304569
% es.EX (V/m) @ t=0.98
2.731110999748253
% es.EY (V/m) @ t=0.98
0.7756784314586014
% es.EZ (V/m) @ t=0.98
2.7749553130811933
% es.tEX (V/m) @ t=0.98
2.731110999748182
% es.tEY (V/m) @ t=0.98
0
% es.tEZ (V/m) @ t=0.98
2.774955313081165
% es.Ex (V/m) @ t=0.98
2.731110999748253
% es.Ey (V/m) @ t=0.98
0.7756784314586014
% es.Ez (V/m) @ t=0.98
2.7749553130811933
% es.tEx (V/m) @ t=0.98
2.731110999748182
% es.tEy (V/m) @ t=0.98
0
% es.tEz (V/m) @ t=0.98
2.774955313081165
% V (V) @ t=0.98
0.03771698484551429
% es.normE (V/m) @ t=1
4.068836330445948
% es.EX (V/m) @ t=1
2.7627805585882186
% es.EY (V/m) @ t=1
0.78467173486559
% es.EZ (V/m) @ t=1
2.8071313000012523
% es.tEX (V/m) @ t=1
2.762780558588304
% es.tEY (V/m) @ t=1
0
% es.tEZ (V/m) @ t=1
2.8071313000012026
% es.Ex (V/m) @ t=1
2.7627805585882186
% es.Ey (V/m) @ t=1
0.78467173486559
% es.Ez (V/m) @ t=1
2.8071313000012523
% es.tEx (V/m) @ t=1
2.762780558588304
% es.tEy (V/m) @ t=1
0
% es.tEz (V/m) @ t=1
2.8071313000012026
% V (V) @ t=1
0.03815439291995669
% es.normE (V/m) @ t=1.02
4.115475317847152
% es.EX (V/m) @ t=1.02
2.7944501174282266
% es.EY (V/m) @ t=1.02
0.793665038272664
% es.EZ (V/m) @ t=1.02
2.8393072869212936
% es.tEX (V/m) @ t=1.02
2.7944501174281413
% es.tEY (V/m) @ t=1.02
0
% es.tEZ (V/m) @ t=1.02
2.8393072869212688
% es.Ex (V/m) @ t=1.02
2.7944501174282266
% es.Ey (V/m) @ t=1.02
0.793665038272664
% es.Ez (V/m) @ t=1.02
2.8393072869212936
% es.tEx (V/m) @ t=1.02
2.7944501174281413
% es.tEy (V/m) @ t=1.02
0
% es.tEz (V/m) @ t=1.02
2.8393072869212688
% V (V) @ t=1.02
0.03859180099439907
% es.normE (V/m) @ t=1.04
4.162114305249098
% es.EX (V/m) @ t=1.04
2.8261196762680214
% es.EY (V/m) @ t=1.04
0.8026583416798729
% es.EZ (V/m) @ t=1.04
2.8714832738413314
% es.tEX (V/m) @ t=1.04
2.8261196762680925
% es.tEY (V/m) @ t=1.04
0
% es.tEZ (V/m) @ t=1.04
2.8714832738413065
% es.Ex (V/m) @ t=1.04
2.8261196762680214
% es.Ey (V/m) @ t=1.04
0.8026583416798729
% es.Ez (V/m) @ t=1.04
2.8714832738413314
% es.tEx (V/m) @ t=1.04
2.8261196762680925
% es.tEy (V/m) @ t=1.04
0
% es.tEz (V/m) @ t=1.04
2.8714832738413065
% V (V) @ t=1.04
0.03902920906884146
% es.normE (V/m) @ t=1.06
4.20875329265202
% es.EX (V/m) @ t=1.06
2.857789235108129