% Model:              1 neuron.mph
% Version:            COMSOL 6.0.0.405
% Date:               Mar 16 2023, 19:33
% Dimension:          0
% Nodes:              14017
% Expressions:        14017
% Description:        Electric field norm, Electric field, X component, Electric field, Y component, Electric field, Z component, Tangential electric field, X component, Tangential electric field, Y component, Tangential electric field, Z component, Electric field, x component, Electric field, y component, Electric field, z component, Tangential electric field, x component, Tangential electric field, y component, Tangential electric field, z component, Electric potential
% Length unit:        mm
% x
1
% y
12.2
% z
1.33
% es.normE (V/m) @ t=0
2.172941149445738
% es.EX (V/m) @ t=0
2.0080827595270723
% es.EY (V/m) @ t=0
0.1264412517820318
% es.EZ (V/m) @ t=0
0.8117908265161764
% es.tEX (V/m) @ t=0
2.0080827595270794
% es.tEY (V/m) @ t=0
0
% es.tEZ (V/m) @ t=0
0.8117908265161771
% es.Ex (V/m) @ t=0
2.0080827595270723
% es.Ey (V/m) @ t=0
0.1264412517820318
% es.Ez (V/m) @ t=0
0.8117908265161764
% es.tEx (V/m) @ t=0
2.0080827595270794
% es.tEy (V/m) @ t=0
0
% es.tEz (V/m) @ t=0
0.8117908265161771
% V (V) @ t=0
0.010838981835380377
% es.normE (V/m) @ t=0.02
1.8872133672529818
% es.EX (V/m) @ t=0.02
1.744032794647672
% es.EY (V/m) @ t=0.02
0.10981504196675729
% es.EZ (V/m) @ t=0.02
0.7050455562005045
% es.tEX (V/m) @ t=0.02
1.7440327946476746
% es.tEY (V/m) @ t=0.02
0
% es.tEZ (V/m) @ t=0.02
0.7050455562005054
% es.Ex (V/m) @ t=0.02
1.744032794647672
% es.Ey (V/m) @ t=0.02
0.10981504196675729
% es.Ez (V/m) @ t=0.02
0.7050455562005045
% es.tEx (V/m) @ t=0.02
1.7440327946476746
% es.tEy (V/m) @ t=0.02
0
% es.tEz (V/m) @ t=0.02
0.7050455562005054
% V (V) @ t=0.02
0.00941372542511196
% es.normE (V/m) @ t=0.04
1.9151922247749793
% es.EX (V/m) @ t=0.04
1.7698889312456982
% es.EY (V/m) @ t=0.04
0.11144310059822204
% es.EZ (V/m) @ t=0.04
0.7154981980488826
% es.tEX (V/m) @ t=0.04
1.7698889312456902
% es.tEY (V/m) @ t=0.04
0
% es.tEZ (V/m) @ t=0.04
0.7154981980488864
% es.Ex (V/m) @ t=0.04
1.7698889312456982
% es.Ey (V/m) @ t=0.04
0.11144310059822204
% es.Ez (V/m) @ t=0.04
0.7154981980488826
% es.tEx (V/m) @ t=0.04
1.7698889312456902
% es.tEy (V/m) @ t=0.04
0
% es.tEz (V/m) @ t=0.04
0.7154981980488864
% V (V) @ t=0.04
0.009553288549381938
% es.normE (V/m) @ t=0.06
1.943605037087928
% es.EX (V/m) @ t=0.06
1.7961461006412156
% es.EY (V/m) @ t=0.06
0.11309640466042248
% es.EZ (V/m) @ t=0.06
0.7261129574685505
% es.tEX (V/m) @ t=0.06
1.7961461006412236
% es.tEY (V/m) @ t=0.06
0
% es.tEZ (V/m) @ t=0.06
0.7261129574685512
% es.Ex (V/m) @ t=0.06
1.7961461006412156
% es.Ey (V/m) @ t=0.06
0.11309640466042248
% es.Ez (V/m) @ t=0.06
0.7261129574685505
% es.tEx (V/m) @ t=0.06
1.7961461006412236
% es.tEy (V/m) @ t=0.06
0
% es.tEz (V/m) @ t=0.06
0.7261129574685512
% V (V) @ t=0.06
0.009695016433746593
% es.normE (V/m) @ t=0.08
1.9727088232806915
% es.EX (V/m) @ t=0.08
1.8230418216689577
% es.EY (V/m) @ t=0.08
0.11478991187229282
% es.EZ (V/m) @ t=0.08
0.7369858557047424
% es.tEX (V/m) @ t=0.08
1.8230418216689621
% es.tEY (V/m) @ t=0.08
0
% es.tEZ (V/m) @ t=0.08
0.7369858557047433
% es.Ex (V/m) @ t=0.08
1.8230418216689577
% es.Ey (V/m) @ t=0.08
0.11478991187229282
% es.Ez (V/m) @ t=0.08
0.7369858557047424
% es.tEx (V/m) @ t=0.08
1.8230418216689621
% es.tEy (V/m) @ t=0.08
0
% es.tEz (V/m) @ t=0.08
0.7369858557047433
% V (V) @ t=0.08
0.009840191087343408
% es.normE (V/m) @ t=0.1
2.002364373296783
% es.EX (V/m) @ t=0.1
1.8504474457484452
% es.EY (V/m) @ t=0.1
0.11651552253147357
% es.EZ (V/m) @ t=0.1
0.748064885698597
% es.tEX (V/m) @ t=0.1
1.8504474457484381
% es.tEY (V/m) @ t=0.1
0
% es.tEZ (V/m) @ t=0.1
0.7480648856985934
% es.Ex (V/m) @ t=0.1
1.8504474457484452
% es.Ey (V/m) @ t=0.1
0.11651552253147357
% es.Ez (V/m) @ t=0.1
0.748064885698597
% es.tEx (V/m) @ t=0.1
1.8504474457484381
% es.tEy (V/m) @ t=0.1
0
% es.tEz (V/m) @ t=0.1
0.7480648856985934
% V (V) @ t=0.1
0.009988118091825288
% es.normE (V/m) @ t=0.12
2.0320199233128555
% es.EX (V/m) @ t=0.12
1.8778530698279123
% es.EY (V/m) @ t=0.12
0.11824113319065754
% es.EZ (V/m) @ t=0.12
0.7591439156924518
% es.tEX (V/m) @ t=0.12
1.8778530698279265
% es.tEY (V/m) @ t=0.12
0
% es.tEZ (V/m) @ t=0.12
0.7591439156924484
% es.Ex (V/m) @ t=0.12
1.8778530698279123
% es.Ey (V/m) @ t=0.12
0.11824113319065754
% es.Ez (V/m) @ t=0.12
0.7591439156924518
% es.tEx (V/m) @ t=0.12
1.8778530698279265
% es.tEy (V/m) @ t=0.12
0
% es.tEz (V/m) @ t=0.12
0.7591439156924484
% V (V) @ t=0.12
0.01013604509630717
% es.normE (V/m) @ t=0.14
2.0620045423394875
% es.EX (V/m) @ t=0.14
1.9055627959471177
% es.EY (V/m) @ t=0.14
0.11998589543065952
% es.EZ (V/m) @ t=0.14
0.770345885044992
% es.tEX (V/m) @ t=0.14
1.9055627959471142
% es.tEY (V/m) @ t=0.14
0
% es.tEZ (V/m) @ t=0.14
0.7703458850449878
% es.Ex (V/m) @ t=0.14
1.9055627959471177
% es.Ey (V/m) @ t=0.14
0.11998589543065952
% es.Ez (V/m) @ t=0.14
0.770345885044992
% es.tEx (V/m) @ t=0.14
1.9055627959471142
% es.tEy (V/m) @ t=0.14
0
% es.tEz (V/m) @ t=0.14
0.7703458850449878
% V (V) @ t=0.14
0.010285613481623521
% es.normE (V/m) @ t=0.16
2.09435562945953
% es.EX (V/m) @ t=0.16
1.9354594425938858
% es.EY (V/m) @ t=0.16
0.12186838441937142
% es.EZ (V/m) @ t=0.16
0.7824319609540067
% es.tEX (V/m) @ t=0.16
1.9354594425938938
% es.tEY (V/m) @ t=0.16
0
% es.tEZ (V/m) @ t=0.16
0.7824319609540002
% es.Ex (V/m) @ t=0.16
1.9354594425938858
% es.Ey (V/m) @ t=0.16
0.12186838441937142
% es.Ez (V/m) @ t=0.16
0.7824319609540067
% es.tEx (V/m) @ t=0.16
1.9354594425938938
% es.tEy (V/m) @ t=0.16
0
% es.tEz (V/m) @ t=0.16
0.7824319609540002
% V (V) @ t=0.16
0.010446985699112893
% es.normE (V/m) @ t=0.18
2.1267067165795828
% es.EX (V/m) @ t=0.18
1.9653560892406654
% es.EY (V/m) @ t=0.18
0.12375087340807955
% es.EZ (V/m) @ t=0.18
0.7945180368630218
% es.tEX (V/m) @ t=0.18
1.9653560892406539
% es.tEY (V/m) @ t=0.18
0
% es.tEZ (V/m) @ t=0.18
0.7945180368630158
% es.Ex (V/m) @ t=0.18
1.9653560892406654
% es.Ey (V/m) @ t=0.18
0.12375087340807955
% es.Ez (V/m) @ t=0.18
0.7945180368630218
% es.tEx (V/m) @ t=0.18
1.9653560892406539
% es.tEy (V/m) @ t=0.18
0
% es.tEz (V/m) @ t=0.18
0.7945180368630158
% V (V) @ t=0.18
0.010608357916602263
% es.normE (V/m) @ t=0.2
2.159057803699617
% es.EX (V/m) @ t=0.2
1.9952527358874246
% es.EY (V/m) @ t=0.2
0.12563336239679312
% es.EZ (V/m) @ t=0.2
0.8066041127720351
% es.tEX (V/m) @ t=0.2
1.995252735887421
% es.tEY (V/m) @ t=0.2
0
% es.tEZ (V/m) @ t=0.2
0.8066041127720331
% es.Ex (V/m) @ t=0.2
1.9952527358874246
% es.Ey (V/m) @ t=0.2
0.12563336239679312
% es.Ez (V/m) @ t=0.2
0.8066041127720351
% es.tEx (V/m) @ t=0.2
1.995252735887421
% es.tEy (V/m) @ t=0.2
0
% es.tEz (V/m) @ t=0.2
0.8066041127720331
% V (V) @ t=0.2
0.010769730134091634
% es.normE (V/m) @ t=0.22
2.1914088908196607
% es.EX (V/m) @ t=0.22
2.025149382534197
% es.EY (V/m) @ t=0.22
0.1275158513854988
% es.EZ (V/m) @ t=0.22
0.8186901886810432
% es.tEX (V/m) @ t=0.22
2.025149382534197
% es.tEY (V/m) @ t=0.22
0
% es.tEZ (V/m) @ t=0.22
0.8186901886810372
% es.Ex (V/m) @ t=0.22
2.025149382534197
% es.Ey (V/m) @ t=0.22
0.1275158513854988
% es.Ez (V/m) @ t=0.22
0.8186901886810432
% es.tEx (V/m) @ t=0.22
2.025149382534197
% es.tEy (V/m) @ t=0.22
0
% es.tEz (V/m) @ t=0.22
0.8186901886810372
% V (V) @ t=0.22
0.010931102351581005
% es.normE (V/m) @ t=0.24
2.223759977939715
% es.EX (V/m) @ t=0.24
2.0550460291809776
% es.EY (V/m) @ t=0.24
0.1293983403742256
% es.EZ (V/m) @ t=0.24
0.8307762645900556
% es.tEX (V/m) @ t=0.24
2.055046029180975
% es.tEY (V/m) @ t=0.24
0
% es.tEZ (V/m) @ t=0.24
0.8307762645900634
% es.Ex (V/m) @ t=0.24
2.0550460291809776
% es.Ey (V/m) @ t=0.24
0.1293983403742256
% es.Ez (V/m) @ t=0.24
0.8307762645900556
% es.tEx (V/m) @ t=0.24
2.055046029180975
% es.tEy (V/m) @ t=0.24
0
% es.tEz (V/m) @ t=0.24
0.8307762645900634
% V (V) @ t=0.24
0.011092474569070374
% es.normE (V/m) @ t=0.26
2.2561110650597542
% es.EX (V/m) @ t=0.26
2.0849426758277447
% es.EY (V/m) @ t=0.26
0.13128082936292407
% es.EZ (V/m) @ t=0.26
0.8428623404990667
% es.tEX (V/m) @ t=0.26
2.084942675827744
% es.tEY (V/m) @ t=0.26
0
% es.tEZ (V/m) @ t=0.26
0.8428623404990669
% es.Ex (V/m) @ t=0.26
2.0849426758277447
% es.Ey (V/m) @ t=0.26
0.13128082936292407
% es.Ez (V/m) @ t=0.26
0.8428623404990667
% es.tEx (V/m) @ t=0.26
2.084942675827744
% es.tEy (V/m) @ t=0.26
0
% es.tEz (V/m) @ t=0.26
0.8428623404990669
% V (V) @ t=0.26
0.011253846786559746
% es.normE (V/m) @ t=0.28
2.289202407444227
% es.EX (V/m) @ t=0.28
2.115523413839006
% es.EY (V/m) @ t=0.28
0.1332063989810861
% es.EZ (V/m) @ t=0.28
0.8552249729422139
% es.tEX (V/m) @ t=0.28
2.115523413839007
% es.tEY (V/m) @ t=0.28
0
% es.tEZ (V/m) @ t=0.28
0.855224972942211
% es.Ex (V/m) @ t=0.28
2.115523413839006
% es.Ey (V/m) @ t=0.28
0.1332063989810861
% es.Ez (V/m) @ t=0.28
0.8552249729422139
% es.tEx (V/m) @ t=0.28
2.115523413839007
% es.tEy (V/m) @ t=0.28
0
% es.tEz (V/m) @ t=0.28
0.855224972942211
% V (V) @ t=0.28
0.01141891139419166
% es.normE (V/m) @ t=0.3
2.324465377704785
% es.EX (V/m) @ t=0.3
2.148111016168981
% es.EY (V/m) @ t=0.3
0.13525835080866777
% es.EZ (V/m) @ t=0.3
0.8683989172499122
% es.tEX (V/m) @ t=0.3
2.148111016168974
% es.tEY (V/m) @ t=0.3
0
% es.tEZ (V/m) @ t=0.3
0.8683989172499107
% es.Ex (V/m) @ t=0.3
2.148111016168981
% es.Ey (V/m) @ t=0.3
0.13525835080866777
% es.Ez (V/m) @ t=0.3
0.8683989172499122
% es.tEx (V/m) @ t=0.3
2.148111016168974
% es.tEy (V/m) @ t=0.3
0
% es.tEz (V/m) @ t=0.3
0.8683989172499107
% V (V) @ t=0.3
0.011594808072527052
% es.normE (V/m) @ t=0.32
2.359728347965346
% es.EX (V/m) @ t=0.32
2.180698618498946
% es.EY (V/m) @ t=0.32
0.1373103026362813
% es.EZ (V/m) @ t=0.32
0.8815728615576346
% es.tEX (V/m) @ t=0.32
2.1806986184989423
% es.tEY (V/m) @ t=0.32
0
% es.tEZ (V/m) @ t=0.32
0.8815728615576295
% es.Ex (V/m) @ t=0.32
2.180698618498946
% es.Ey (V/m) @ t=0.32
0.1373103026362813
% es.Ez (V/m) @ t=0.32
0.8815728615576346
% es.tEx (V/m) @ t=0.32
2.1806986184989423
% es.tEy (V/m) @ t=0.32
0
% es.tEz (V/m) @ t=0.32
0.8815728615576295
% V (V) @ t=0.32
0.011770704750862438
% es.normE (V/m) @ t=0.34
2.3949913182259075
% es.EX (V/m) @ t=0.34
2.213286220828924
% es.EY (V/m) @ t=0.34
0.13936225446386186
% es.EZ (V/m) @ t=0.34
0.8947468058653303
% es.tEX (V/m) @ t=0.34
2.213286220828927
% es.tEY (V/m) @ t=0.34
0
% es.tEZ (V/m) @ t=0.34
0.8947468058653314
% es.Ex (V/m) @ t=0.34
2.213286220828924
% es.Ey (V/m) @ t=0.34
0.13936225446386186
% es.Ez (V/m) @ t=0.34
0.8947468058653303
% es.tEx (V/m) @ t=0.34
2.213286220828927
% es.tEy (V/m) @ t=0.34
0
% es.tEz (V/m) @ t=0.34
0.8947468058653314
% V (V) @ t=0.34
0.011946601429197828
% es.normE (V/m) @ t=0.36
2.4302542884864744
% es.EX (V/m) @ t=0.36
2.245873823158899
% es.EY (V/m) @ t=0.36
0.1414142062914524
% es.EZ (V/m) @ t=0.36
0.9079207501730433
% es.tEX (V/m) @ t=0.36
2.245873823158899
% es.tEY (V/m) @ t=0.36
0
% es.tEZ (V/m) @ t=0.36
0.9079207501730449
% es.Ex (V/m) @ t=0.36
2.245873823158899
% es.Ey (V/m) @ t=0.36
0.1414142062914524
% es.Ez (V/m) @ t=0.36
0.9079207501730433
% es.tEx (V/m) @ t=0.36
2.245873823158899
% es.tEy (V/m) @ t=0.36
0
% es.tEz (V/m) @ t=0.36
0.9079207501730449
% V (V) @ t=0.36
0.01212249810753322
% es.normE (V/m) @ t=0.38
2.465517258747027
% es.EX (V/m) @ t=0.38
2.2784614254888638
% es.EY (V/m) @ t=0.38
0.1434661581190384
% es.EZ (V/m) @ t=0.38
0.9210946944807388
% es.tEX (V/m) @ t=0.38
2.2784614254888673
% es.tEY (V/m) @ t=0.38
0
% es.tEZ (V/m) @ t=0.38
0.9210946944807459
% es.Ex (V/m) @ t=0.38
2.2784614254888638
% es.Ey (V/m) @ t=0.38
0.1434661581190384
% es.Ez (V/m) @ t=0.38
0.9210946944807388
% es.tEx (V/m) @ t=0.38
2.2784614254888673
% es.tEy (V/m) @ t=0.38
0
% es.tEz (V/m) @ t=0.38
0.9210946944807459
% V (V) @ t=0.38
0.01229839478586861
% es.normE (V/m) @ t=0.4
2.5007802290075873
% es.EX (V/m) @ t=0.4
2.311049027818826
% es.EY (V/m) @ t=0.4
0.14551810994663505
% es.EZ (V/m) @ t=0.4
0.9342686387884593
% es.tEX (V/m) @ t=0.4
2.3110490278188287
% es.tEY (V/m) @ t=0.4
0
% es.tEZ (V/m) @ t=0.4
0.9342686387884536
% es.Ex (V/m) @ t=0.4
2.311049027818826
% es.Ey (V/m) @ t=0.4
0.14551810994663505
% es.Ez (V/m) @ t=0.4
0.9342686387884593
% es.tEx (V/m) @ t=0.4
2.3110490278188287
% es.tEy (V/m) @ t=0.4
0
% es.tEz (V/m) @ t=0.4
0.9342686387884536
% V (V) @ t=0.4
0.012474291464203998
% es.normE (V/m) @ t=0.42
2.537253750347211
% es.EX (V/m) @ t=0.42
2.344755336066541
% es.EY (V/m) @ t=0.42
0.1476405104865327
% es.EZ (V/m) @ t=0.42
0.9478948390135513
% es.tEX (V/m) @ t=0.42
2.344755336066539
% es.tEY (V/m) @ t=0.42
0
% es.tEZ (V/m) @ t=0.42
0.9478948390135438
% es.Ex (V/m) @ t=0.42
2.344755336066541
% es.Ey (V/m) @ t=0.42
0.1476405104865327
% es.Ez (V/m) @ t=0.42
0.9478948390135513
% es.tEx (V/m) @ t=0.42
2.344755336066539
% es.tEy (V/m) @ t=0.42
0
% es.tEz (V/m) @ t=0.42
0.9478948390135438
% V (V) @ t=0.42
0.01265622640454674
% es.normE (V/m) @ t=0.44
2.5756499550576457
% es.EX (V/m) @ t=0.44
2.3802384526638463
% es.EY (V/m) @ t=0.44
0.14987480268467912
% es.EZ (V/m) @ t=0.44
0.9622393442707464
% es.tEX (V/m) @ t=0.44
2.38023845266385
% es.tEY (V/m) @ t=0.44
0
% es.tEZ (V/m) @ t=0.44
0.9622393442707473
% es.Ex (V/m) @ t=0.44
2.3802384526638463
% es.Ey (V/m) @ t=0.44
0.14987480268467912
% es.Ez (V/m) @ t=0.44
0.9622393442707464
% es.tEx (V/m) @ t=0.44
2.38023845266385
% es.tEy (V/m) @ t=0.44
0
% es.tEz (V/m) @ t=0.44
0.9622393442707473
% V (V) @ t=0.44
0.012847751742313512
% es.normE (V/m) @ t=0.46
2.6140461597680726
% es.EX (V/m) @ t=0.46
2.4157215692611365
% es.EY (V/m) @ t=0.46
0.15210909488283997
% es.EZ (V/m) @ t=0.46
0.9765838495279424
% es.tEX (V/m) @ t=0.46
2.4157215692611445
% es.tEY (V/m) @ t=0.46
0
% es.tEZ (V/m) @ t=0.46
0.9765838495279517
% es.Ex (V/m) @ t=0.46
2.4157215692611365
% es.Ey (V/m) @ t=0.46
0.15210909488283997
% es.Ez (V/m) @ t=0.46
0.9765838495279424
% es.tEx (V/m) @ t=0.46
2.4157215692611445
% es.tEy (V/m) @ t=0.46
0
% es.tEz (V/m) @ t=0.46
0.9765838495279517
% V (V) @ t=0.46
0.013039277080080288
% es.normE (V/m) @ t=0.48
2.6524423644785173
% es.EX (V/m) @ t=0.48
2.451204685858446
% es.EY (V/m) @ t=0.48
0.1543433870809866
% es.EZ (V/m) @ t=0.48
0.9909283547851344
% es.tEX (V/m) @ t=0.48
2.451204685858446
% es.tEY (V/m) @ t=0.48
0
% es.tEZ (V/m) @ t=0.48
0.9909283547851349
% es.Ex (V/m) @ t=0.48
2.451204685858446
% es.Ey (V/m) @ t=0.48
0.1543433870809866
% es.Ez (V/m) @ t=0.48
0.9909283547851344
% es.tEx (V/m) @ t=0.48
2.451204685858446
% es.tEy (V/m) @ t=0.48
0
% es.tEz (V/m) @ t=0.48
0.9909283547851349
% V (V) @ t=0.48
0.013230802417847064
% es.normE (V/m) @ t=0.5
2.6908385691889785
% es.EX (V/m) @ t=0.5
2.4866878024557657
% es.EY (V/m) @ t=0.5
0.15657767927914545
% es.EZ (V/m) @ t=0.5
1.0052728600423428
% es.tEX (V/m) @ t=0.5
2.486687802455764
% es.tEY (V/m) @ t=0.5
0
% es.tEZ (V/m) @ t=0.5
1.0052728600423428
% es.Ex (V/m) @ t=0.5
2.4866878024557657
% es.Ey (V/m) @ t=0.5
0.15657767927914545
% es.Ez (V/m) @ t=0.5
1.0052728600423428
% es.tEx (V/m) @ t=0.5
2.486687802455764
% es.tEy (V/m) @ t=0.5
0
% es.tEz (V/m) @ t=0.5
1.0052728600423428
% V (V) @ t=0.5
0.013422327755613837
% es.normE (V/m) @ t=0.52
2.7292347738994214
% es.EX (V/m) @ t=0.52
2.5221709190530683
% es.EY (V/m) @ t=0.52
0.15881197147730097
% es.EZ (V/m) @ t=0.52
1.0196173652995366
% es.tEX (V/m) @ t=0.52
2.522170919053064
% es.tEY (V/m) @ t=0.52
0
% es.tEZ (V/m) @ t=0.52
1.0196173652995428
% es.Ex (V/m) @ t=0.52
2.5221709190530683
% es.Ey (V/m) @ t=0.52
0.15881197147730097
% es.Ez (V/m) @ t=0.52
1.0196173652995366
% es.tEx (V/m) @ t=0.52
2.522170919053064
% es.tEy (V/m) @ t=0.52
0
% es.tEz (V/m) @ t=0.52
1.0196173652995428
% V (V) @ t=0.52
0.01361385309338061
% es.normE (V/m) @ t=0.54
2.7676309786098634
% es.EX (V/m) @ t=0.54
2.5576540356503674
% es.EY (V/m) @ t=0.54
0.16104626367545638
% es.EZ (V/m) @ t=0.54
1.0339618705567286
% es.tEX (V/m) @ t=0.54
2.5576540356503763
% es.tEY (V/m) @ t=0.54
0
% es.tEZ (V/m) @ t=0.54
1.033961870556726
% es.Ex (V/m) @ t=0.54
2.5576540356503674
% es.Ey (V/m) @ t=0.54
0.16104626367545638
% es.Ez (V/m) @ t=0.54
1.0339618705567286
% es.tEx (V/m) @ t=0.54
2.5576540356503763
% es.tEy (V/m) @ t=0.54
0
% es.tEz (V/m) @ t=0.54
1.033961870556726
% V (V) @ t=0.54
0.013805378431147382
% es.normE (V/m) @ t=0.56
2.8067657857298434
% es.EX (V/m) @ t=0.56
2.5938197161391745
% es.EY (V/m) @ t=0.56
0.16332354032766327
% es.EZ (V/m) @ t=0.56
1.04858231490313
% es.tEX (V/m) @ t=0.56
2.5938197161391727
% es.tEY (V/m) @ t=0.56
0
% es.tEZ (V/m) @ t=0.56
1.0485823149031228
% es.Ex (V/m) @ t=0.56
2.5938197161391745
% es.Ey (V/m) @ t=0.56
0.16332354032766327
% es.Ez (V/m) @ t=0.56
1.04858231490313
% es.tEx (V/m) @ t=0.56
2.5938197161391727
% es.tEy (V/m) @ t=0.56
0
% es.tEz (V/m) @ t=0.56
1.0485823149031228
% V (V) @ t=0.56
0.014000587913924866
% es.normE (V/m) @ t=0.58
2.846879346389264
% es.EX (V/m) @ t=0.58
2.630889891138281
% es.EY (V/m) @ t=0.58
0.1656577775123761
% es.EZ (V/m) @ t=0.58
1.0635684178998521
% es.tEX (V/m) @ t=0.58
2.6308898911382776
% es.tEY (V/m) @ t=0.58
0
% es.tEZ (V/m) @ t=0.58
1.0635684178998552
% es.Ex (V/m) @ t=0.58
2.630889891138281
% es.Ey (V/m) @ t=0.58
0.1656577775123761
% es.Ez (V/m) @ t=0.58
1.0635684178998521
% es.tEx (V/m) @ t=0.58
2.6308898911382776
% es.tEy (V/m) @ t=0.58
0
% es.tEz (V/m) @ t=0.58
1.0635684178998552
% V (V) @ t=0.58
0.014200679414310868
% es.normE (V/m) @ t=0.6
2.8873786192777557
% es.EX (V/m) @ t=0.6
2.6683165139862783
% es.EY (V/m) @ t=0.6
0.168014461996703
% es.EZ (V/m) @ t=0.6
1.0786986215383187
% es.tEX (V/m) @ t=0.6
2.6683165139862837
% es.tEY (V/m) @ t=0.6
0
% es.tEZ (V/m) @ t=0.6
1.0786986215383152
% es.Ex (V/m) @ t=0.6
2.6683165139862783
% es.Ey (V/m) @ t=0.6
0.168014461996703
% es.Ez (V/m) @ t=0.6
1.0786986215383187
% es.tEx (V/m) @ t=0.6
2.6683165139862837
% es.tEy (V/m) @ t=0.6
0
% es.tEz (V/m) @ t=0.6
1.0786986215383152
% V (V) @ t=0.6
0.014402694845306829
% es.normE (V/m) @ t=0.62
2.92826360439531
% es.EX (V/m) @ t=0.62
2.70609958468318
% es.EY (V/m) @ t=0.62
0.17039359378065044
% es.EZ (V/m) @ t=0.62
1.093972925818477
% es.tEX (V/m) @ t=0.62
2.7060995846831783
% es.tEY (V/m) @ t=0.62
0
% es.tEZ (V/m) @ t=0.62
1.093972925818477
% es.Ex (V/m) @ t=0.62
2.70609958468318
% es.Ey (V/m) @ t=0.62
0.17039359378065044
% es.Ez (V/m) @ t=0.62
1.093972925818477
% es.tEx (V/m) @ t=0.62
2.7060995846831783
% es.tEy (V/m) @ t=0.62
0
% es.tEz (V/m) @ t=0.62
1.093972925818477
% V (V) @ t=0.62
0.014606634206912742
% es.normE (V/m) @ t=0.64
2.96953430174195
% es.EX (V/m) @ t=0.64
2.7442391032290097
% es.EY (V/m) @ t=0.64
0.17279517286423196
% es.EZ (V/m) @ t=0.64
1.1093913307403191
% es.tEX (V/m) @ t=0.64
2.744239103229006
% es.tEY (V/m) @ t=0.64
0
% es.tEZ (V/m) @ t=0.64
1.109391330740328
% es.Ex (V/m) @ t=0.64
2.7442391032290097
% es.Ey (V/m) @ t=0.64
0.17279517286423196
% es.Ez (V/m) @ t=0.64
1.1093913307403191
% es.tEx (V/m) @ t=0.64
2.744239103229006
% es.tEy (V/m) @ t=0.64
0
% es.tEz (V/m) @ t=0.64
1.109391330740328
% V (V) @ t=0.64
0.014812497499128613
% es.normE (V/m) @ t=0.66
3.0111907113176475
% es.EX (V/m) @ t=0.66
2.7827350696237136
% es.EY (V/m) @ t=0.66
0.17521919924743234
% es.EZ (V/m) @ t=0.66
1.1249538363039164
% es.tEX (V/m) @ t=0.66
2.782735069623712
% es.tEY (V/m) @ t=0.66
0
% es.tEZ (V/m) @ t=0.66
1.1249538363039147
% es.Ex (V/m) @ t=0.66
2.7827350696237136
% es.Ey (V/m) @ t=0.66
0.17521919924743234
% es.Ez (V/m) @ t=0.66
1.1249538363039164
% es.tEx (V/m) @ t=0.66
2.782735069623712
% es.tEy (V/m) @ t=0.66
0
% es.tEz (V/m) @ t=0.66
1.1249538363039147
% V (V) @ t=0.66
0.015020284721954439
% es.normE (V/m) @ t=0.68
3.0532328331224097
% es.EX (V/m) @ t=0.68
2.82158748386734
% es.EY (V/m) @ t=0.68
0.17766567293026436
% es.EZ (V/m) @ t=0.68
1.1406604425091524
% es.tEX (V/m) @ t=0.68
2.8215874838673454
% es.tEY (V/m) @ t=0.68
0
% es.tEZ (V/m) @ t=0.68
1.1406604425091524
% es.Ex (V/m) @ t=0.68
2.82158748386734
% es.Ey (V/m) @ t=0.68
0.17766567293026436
% es.Ez (V/m) @ t=0.68
1.1406604425091524
% es.tEx (V/m) @ t=0.68
2.8215874838673454
% es.tEy (V/m) @ t=0.68
0
% es.tEz (V/m) @ t=0.68
1.1406604425091524
% V (V) @ t=0.68
0.015229995875390225
% es.normE (V/m) @ t=0.7
3.095660667156259
% es.EX (V/m) @ t=0.7
2.860796345959878
% es.EY (V/m) @ t=0.7
0.1801345939127138
% es.EZ (V/m) @ t=0.7
1.156511149356123
% es.tEX (V/m) @ t=0.7
2.8607963459598764
% es.tEY (V/m) @ t=0.7
0
% es.tEZ (V/m) @ t=0.7
1.1565111493561266
% es.Ex (V/m) @ t=0.7
2.860796345959878
% es.Ey (V/m) @ t=0.7
0.1801345939127138
% es.Ez (V/m) @ t=0.7
1.156511149356123
% es.tEx (V/m) @ t=0.7
2.8607963459598764
% es.tEy (V/m) @ t=0.7
0
% es.tEz (V/m) @ t=0.7
1.1565111493561266
% V (V) @ t=0.7
0.01544163095943596
% es.normE (V/m) @ t=0.72
3.138474213419162
% es.EX (V/m) @ t=0.72
2.900361655901296
% es.EY (V/m) @ t=0.72
0.18262596219478067
% es.EZ (V/m) @ t=0.72
1.1725059568448142
% es.tEX (V/m) @ t=0.72
2.900361655901307
% es.tEY (V/m) @ t=0.72
0
% es.tEZ (V/m) @ t=0.72
1.172505956844816
% es.Ex (V/m) @ t=0.72
2.900361655901296
% es.Ey (V/m) @ t=0.72
0.18262596219478067
% es.Ez (V/m) @ t=0.72
1.1725059568448142
% es.tEx (V/m) @ t=0.72
2.900361655901307
% es.tEy (V/m) @ t=0.72
0
% es.tEz (V/m) @ t=0.72
1.172505956844816
% V (V) @ t=0.72
0.015655189974091654
% es.normE (V/m) @ t=0.74
3.1816734719111484
% es.EX (V/m) @ t=0.74
2.940283413691631
% es.EY (V/m) @ t=0.74
0.18513977777647028
% es.EZ (V/m) @ t=0.74
1.1886448649752146
% es.tEX (V/m) @ t=0.74
2.9402834136916294
% es.tEY (V/m) @ t=0.74
0
% es.tEZ (V/m) @ t=0.74
1.1886448649752133
% es.Ex (V/m) @ t=0.74
2.940283413691631
% es.Ey (V/m) @ t=0.74
0.18513977777647028
% es.Ez (V/m) @ t=0.74
1.1886448649752146
% es.tEx (V/m) @ t=0.74
2.9402834136916294
% es.tEy (V/m) @ t=0.74
0
% es.tEz (V/m) @ t=0.74
1.1886448649752133
% V (V) @ t=0.74
0.01587067291935731
% es.normE (V/m) @ t=0.76
3.225258442632205
% es.EX (V/m) @ t=0.76
2.980561619330876
% es.EY (V/m) @ t=0.76
0.18767604065780563
% es.EZ (V/m) @ t=0.76
1.2049278737473017
% es.tEX (V/m) @ t=0.76
2.9805616193308886
% es.tEY (V/m) @ t=0.76
0
% es.tEZ (V/m) @ t=0.76
1.204927873747307
% es.Ex (V/m) @ t=0.76
2.980561619330876
% es.Ey (V/m) @ t=0.76
0.18767604065780563
% es.Ez (V/m) @ t=0.76
1.2049278737473017
% es.tEx (V/m) @ t=0.76
2.9805616193308886
% es.tEy (V/m) @ t=0.76
0
% es.tEz (V/m) @ t=0.76
1.204927873747307
% V (V) @ t=0.76
0.016088079795232916
% es.normE (V/m) @ t=0.78
3.2692291255823314
% es.EX (V/m) @ t=0.78
3.0211962728190223
% es.EY (V/m) @ t=0.78
0.1902347508387674
% es.EZ (V/m) @ t=0.78
1.2213549831610928
% es.tEX (V/m) @ t=0.78
3.0211962728190276
% es.tEY (V/m) @ t=0.78
0
% es.tEZ (V/m) @ t=0.78
1.2213549831610893
% es.Ex (V/m) @ t=0.78
3.0211962728190223
% es.Ey (V/m) @ t=0.78
0.1902347508387674
% es.Ez (V/m) @ t=0.78
1.2213549831610928
% es.tEx (V/m) @ t=0.78
3.0211962728190276
% es.tEy (V/m) @ t=0.78
0
% es.tEz (V/m) @ t=0.78
1.2213549831610893
% V (V) @ t=0.78
0.016307410601718482
% es.normE (V/m) @ t=0.8
3.313585520761537
% es.EX (V/m) @ t=0.8
3.062187374156089
% es.EY (V/m) @ t=0.8
0.1928159083193145
% es.EZ (V/m) @ t=0.8
1.2379261932165742
% es.tEX (V/m) @ t=0.8
3.0621873741560854
% es.tEY (V/m) @ t=0.8
0
% es.tEZ (V/m) @ t=0.8
1.2379261932165777
% es.Ex (V/m) @ t=0.8
3.062187374156089
% es.Ey (V/m) @ t=0.8
0.1928159083193145
% es.Ez (V/m) @ t=0.8
1.2379261932165742
% es.tEx (V/m) @ t=0.8
3.0621873741560854
% es.tEy (V/m) @ t=0.8
0
% es.tEz (V/m) @ t=0.8
1.2379261932165777
% V (V) @ t=0.8
0.016528665338814003
% es.normE (V/m) @ t=0.82
3.3583276281698025
% es.EX (V/m) @ t=0.82
3.103534923342025
% es.EY (V/m) @ t=0.82
0.19541951309951133
% es.EZ (V/m) @ t=0.82
1.2546415039138155
% es.tEX (V/m) @ t=0.82
3.103534923342039
% es.tEY (V/m) @ t=0.82
0
% es.tEZ (V/m) @ t=0.82
1.254641503913808
% es.Ex (V/m) @ t=0.82
3.103534923342025
% es.Ey (V/m) @ t=0.82
0.19541951309951133
% es.Ez (V/m) @ t=0.82
1.2546415039138155
% es.tEx (V/m) @ t=0.82
3.103534923342039
% es.tEy (V/m) @ t=0.82
0
% es.tEz (V/m) @ t=0.82
1.254641503913808
% V (V) @ t=0.82
0.01675184400651948
% es.normE (V/m) @ t=0.84
3.4040755318064884
% es.EX (V/m) @ t=0.84
3.1458119506835907
% es.EY (V/m) @ t=0.84
0.19808168751659982
% es.EZ (V/m) @ t=0.84
1.2717325938393023
% es.tEX (V/m) @ t=0.84
3.145811950683587
% es.tEY (V/m) @ t=0.84
0
% es.tEZ (V/m) @ t=0.84
1.271732593839304
% es.Ex (V/m) @ t=0.84
3.1458119506835907
% es.Ey (V/m) @ t=0.84
0.19808168751659982
% es.Ez (V/m) @ t=0.84
1.2717325938393023
% es.tEx (V/m) @ t=0.84
3.145811950683587
% es.tEy (V/m) @ t=0.84
0
% es.tEz (V/m) @ t=0.84
1.271732593839304
% V (V) @ t=0.84
0.01698003892025957
% es.normE (V/m) @ t=0.86
3.4504784949620637
% es.EX (V/m) @ t=0.86
3.188694334344931
% es.EY (V/m) @ t=0.86
0.20078199977468314
% es.EZ (V/m) @ t=0.86
1.2890684191583501
% es.tEX (V/m) @ t=0.86
3.1886943343449357
% es.tEY (V/m) @ t=0.86
0
% es.tEZ (V/m) @ t=0.86
1.2890684191583501
% es.Ex (V/m) @ t=0.86
3.188694334344931
% es.Ey (V/m) @ t=0.86
0.20078199977468314
% es.Ez (V/m) @ t=0.86
1.2890684191583501
% es.tEx (V/m) @ t=0.86
3.1886943343449357
% es.tEy (V/m) @ t=0.86
0
% es.tEz (V/m) @ t=0.86
1.2890684191583501
% V (V) @ t=0.86
0.017211500980657355
% es.normE (V/m) @ t=0.88
3.497376294486232
% es.EX (V/m) @ t=0.88
3.2320340093525184
% es.EY (V/m) @ t=0.88
0.2035111162436698
% es.EZ (V/m) @ t=0.88
1.3065891165733152
% es.tEX (V/m) @ t=0.88
3.2320340093525157
% es.tEY (V/m) @ t=0.88
0
% es.tEZ (V/m) @ t=0.88
1.30658911657331
% es.Ex (V/m) @ t=0.88
3.2320340093525184
% es.Ey (V/m) @ t=0.88
0.2035111162436698
% es.Ez (V/m) @ t=0.88
1.3065891165733152
% es.tEx (V/m) @ t=0.88
3.2320340093525157
% es.tEy (V/m) @ t=0.88
0
% es.tEz (V/m) @ t=0.88
1.30658911657331
% V (V) @ t=0.88
0.017445431166097237
% es.normE (V/m) @ t=0.9
3.544768930379046
% es.EX (V/m) @ t=0.9
3.2758309757063753
% es.EY (V/m) @ t=0.9
0.20626903692354048
% es.EZ (V/m) @ t=0.9
1.32429468608427
% es.tEX (V/m) @ t=0.9
3.275830975706361
% es.tEY (V/m) @ t=0.9
0
% es.tEZ (V/m) @ t=0.9
1.3242946860842677
% es.Ex (V/m) @ t=0.9
3.2758309757063753
% es.Ey (V/m) @ t=0.9
0.20626903692354048
% es.Ez (V/m) @ t=0.9
1.32429468608427
% es.tEx (V/m) @ t=0.9
3.275830975706361
% es.tEy (V/m) @ t=0.9
0
% es.tEz (V/m) @ t=0.9
1.3242946860842677
% V (V) @ t=0.9
0.017681829476579224
% es.normE (V/m) @ t=0.92
3.5926564026404577
% es.EX (V/m) @ t=0.92
3.3200852334064717
% es.EY (V/m) @ t=0.92
0.20905576181434782
% es.EZ (V/m) @ t=0.92
1.3421851276911525
% es.tEX (V/m) @ t=0.92
3.320085233406493
% es.tEY (V/m) @ t=0.92
0
% es.tEZ (V/m) @ t=0.92
1.342185127691156
% es.Ex (V/m) @ t=0.92
3.3200852334064717
% es.Ey (V/m) @ t=0.92
0.20905576181434782
% es.Ez (V/m) @ t=0.92
1.3421851276911525
% es.tEx (V/m) @ t=0.92
3.320085233406493
% es.tEy (V/m) @ t=0.92
0
% es.tEz (V/m) @ t=0.92
1.342185127691156
% V (V) @ t=0.92
0.017920695912103303
% es.normE (V/m) @ t=0.94
3.641038711270543
% es.EX (V/m) @ t=0.94
3.3647967824528777
% es.EY (V/m) @ t=0.94
0.21187129091605916
% es.EZ (V/m) @ t=0.94
1.360260441393987
% es.tEX (V/m) @ t=0.94
3.364796782452885
% es.tEY (V/m) @ t=0.94
0
% es.tEZ (V/m) @ t=0.94
1.3602604413939892
% es.Ex (V/m) @ t=0.94
3.3647967824528777
% es.Ey (V/m) @ t=0.94
0.21187129091605916
% es.Ez (V/m) @ t=0.94
1.360260441393987
% es.tEx (V/m) @ t=0.94
3.364796782452885
% es.tEy (V/m) @ t=0.94
0
% es.tEz (V/m) @ t=0.94
1.3602604413939892
% V (V) @ t=0.94
0.018162030472669476
% es.normE (V/m) @ t=0.96
3.6899158562692267
% es.EX (V/m) @ t=0.96
3.409965622845501
% es.EY (V/m) @ t=0.96
0.2147156242286612
% es.EZ (V/m) @ t=0.96
1.378520627192798
% es.tEX (V/m) @ t=0.96
3.4099656228454975
% es.tEY (V/m) @ t=0.96
0
% es.tEZ (V/m) @ t=0.96
1.378520627192798
% es.Ex (V/m) @ t=0.96
3.409965622845501
% es.Ey (V/m) @ t=0.96
0.2147156242286612
% es.Ez (V/m) @ t=0.96
1.378520627192798
% es.tEx (V/m) @ t=0.96
3.4099656228454975
% es.tEy (V/m) @ t=0.96
0
% es.tEz (V/m) @ t=0.96
1.378520627192798
% V (V) @ t=0.96
0.01840583315827775
% es.normE (V/m) @ t=0.98
3.7392878376365744
% es.EX (V/m) @ t=0.98
3.4555917545844235
% es.EY (V/m) @ t=0.98
0.21758876175218234
% es.EZ (V/m) @ t=0.98
1.3969656850875465
% es.tEX (V/m) @ t=0.98
3.455591754584418
% es.tEY (V/m) @ t=0.98
0
% es.tEZ (V/m) @ t=0.98
1.3969656850875536
% es.Ex (V/m) @ t=0.98
3.4555917545844235
% es.Ey (V/m) @ t=0.98
0.21758876175218234
% es.Ez (V/m) @ t=0.98
1.3969656850875465
% es.tEx (V/m) @ t=0.98
3.455591754584418
% es.tEy (V/m) @ t=0.98
0
% es.tEz (V/m) @ t=0.98
1.3969656850875536
% V (V) @ t=0.98
0.018652103968928125
% es.normE (V/m) @ t=1
3.789154655372526
% es.EX (V/m) @ t=1
3.501675177669574
% es.EY (V/m) @ t=1
0.22049070348660615
% es.EZ (V/m) @ t=1
1.415595615078236
% es.tEX (V/m) @ t=1
3.501675177669572
% es.tEY (V/m) @ t=1
0
% es.tEZ (V/m) @ t=1
1.4155956150782396
% es.Ex (V/m) @ t=1
3.501675177669574
% es.Ey (V/m) @ t=1
0.22049070348660615
% es.Ez (V/m) @ t=1
1.415595615078236
% es.tEx (V/m) @ t=1
3.501675177669572
% es.tEy (V/m) @ t=1
0
% es.tEz (V/m) @ t=1
1.4155956150782396
% V (V) @ t=1
0.018900842904620588
% es.normE (V/m) @ t=1.02
3.8395163094771285
% es.EX (V/m) @ t=1.02
3.548215892101002
% es.EY (V/m) @ t=1.02
0.22342144943194997
% es.EZ (V/m) @ t=1.02
1.4344104171648793
% es.tEX (V/m) @ t=1.02
3.5482158921009734
% es.tEY (V/m) @ t=1.02
0
% es.tEZ (V/m) @ t=1.02
1.4344104171648704
% es.Ex (V/m) @ t=1.02
3.548215892101002
% es.Ey (V/m) @ t=1.02
0.22342144943194997
% es.Ez (V/m) @ t=1.02
1.4344104171648793
% es.tEx (V/m) @ t=1.02
3.5482158921009734
% es.tEy (V/m) @ t=1.02
0
% es.tEz (V/m) @ t=1.02
1.4344104171648704
% V (V) @ t=1.02
0.01915204996535516
% es.normE (V/m) @ t=1.04
3.8903727999503976
% es.EX (V/m) @ t=1.04
3.595213897878706
% es.EY (V/m) @ t=1.04
0.22638099958818936
% es.EZ (V/m) @ t=1.04
1.453410091347501
% es.tEX (V/m) @ t=1.04
3.59521389787869
% es.tEY (V/m) @ t=1.04
0
% es.tEZ (V/m) @ t=1.04
1.453410091347492
% es.Ex (V/m) @ t=1.04
3.595213897878706
% es.Ey (V/m) @ t=1.04
0.22638099958818936
% es.Ez (V/m) @ t=1.04
1.453410091347501
% es.tEx (V/m) @ t=1.04
3.59521389787869
% es.tEy (V/m) @ t=1.04
0
% es.tEz (V/m) @ t=1.04
1.453410091347492
% V (V) @ t=1.04