% Model:              1 neuron.mph
% Version:            COMSOL 6.0.0.405
% Date:               Mar 16 2023, 19:36
% Dimension:          0
% Nodes:              14017
% Expressions:        14017
% Description:        Electric field norm, Electric field, X component, Electric field, Y component, Electric field, Z component, Tangential electric field, X component, Tangential electric field, Y component, Tangential electric field, Z component, Electric field, x component, Electric field, y component, Electric field, z component, Tangential electric field, x component, Tangential electric field, y component, Tangential electric field, z component, Electric potential
% Length unit:        mm
% x
2
% y
12.2
% z
1
% es.normE (V/m) @ t=0
1.1672311240814166
% es.EX (V/m) @ t=0
-0.7537824841679672
% es.EY (V/m) @ t=0
0.167472231224858
% es.EZ (V/m) @ t=0
0.8596589969930868
% es.tEX (V/m) @ t=0
-0.7537824841679681
% es.tEY (V/m) @ t=0
0
% es.tEZ (V/m) @ t=0
0.8596589969930948
% es.Ex (V/m) @ t=0
-0.7537824841679672
% es.Ey (V/m) @ t=0
0.167472231224858
% es.Ez (V/m) @ t=0
0.8596589969930868
% es.tEx (V/m) @ t=0
-0.7537824841679681
% es.tEy (V/m) @ t=0
0
% es.tEz (V/m) @ t=0
0.8596589969930948
% V (V) @ t=0
0.01129652615495781
% es.normE (V/m) @ t=0.02
1.0137490594836533
% es.EX (V/m) @ t=0.02
-0.6546657879248692
% es.EY (V/m) @ t=0.02
0.14545090162166208
% es.EZ (V/m) @ t=0.02
0.7466203404946654
% es.tEX (V/m) @ t=0.02
-0.6546657879248705
% es.tEY (V/m) @ t=0.02
0
% es.tEZ (V/m) @ t=0.02
0.7466203404946796
% es.Ex (V/m) @ t=0.02
-0.6546657879248692
% es.Ey (V/m) @ t=0.02
0.14545090162166208
% es.Ez (V/m) @ t=0.02
0.7466203404946654
% es.tEx (V/m) @ t=0.02
-0.6546657879248705
% es.tEy (V/m) @ t=0.02
0
% es.tEz (V/m) @ t=0.02
0.7466203404946796
% V (V) @ t=0.02
0.009811118329258371
% es.normE (V/m) @ t=0.04
1.028780676326292
% es.EX (V/m) @ t=0.04
-0.6643730083692552
% es.EY (V/m) @ t=0.04
0.1476076101962437
% es.EZ (V/m) @ t=0.04
0.7576910398225181
% es.tEX (V/m) @ t=0.04
-0.664373008369253
% es.tEY (V/m) @ t=0.04
0
% es.tEZ (V/m) @ t=0.04
0.7576910398225332
% es.Ex (V/m) @ t=0.04
-0.6643730083692552
% es.Ey (V/m) @ t=0.04
0.1476076101962437
% es.Ez (V/m) @ t=0.04
0.7576910398225181
% es.tEx (V/m) @ t=0.04
-0.664373008369253
% es.tEy (V/m) @ t=0.04
0
% es.tEz (V/m) @ t=0.04
0.7576910398225332
% V (V) @ t=0.04
0.009956595165218261
% es.normE (V/m) @ t=0.06
1.0440367855075583
% es.EX (V/m) @ t=0.06
-0.6742252028971789
% es.EY (V/m) @ t=0.06
0.14979652887703143
% es.EZ (V/m) @ t=0.06
0.7689270764113649
% es.tEX (V/m) @ t=0.06
-0.6742252028971767
% es.tEY (V/m) @ t=0.06
0
% es.tEZ (V/m) @ t=0.06
0.7689270764113729
% es.Ex (V/m) @ t=0.06
-0.6742252028971789
% es.Ey (V/m) @ t=0.06
0.14979652887703143
% es.Ez (V/m) @ t=0.06
0.7689270764113649
% es.tEx (V/m) @ t=0.06
-0.6742252028971767
% es.tEy (V/m) @ t=0.06
0
% es.tEz (V/m) @ t=0.06
0.7689270764113729
% V (V) @ t=0.06
0.010104244638089926
% es.normE (V/m) @ t=0.08
1.059684539197307
% es.EX (V/m) @ t=0.08
-0.6843303163965178
% es.EY (V/m) @ t=0.08
0.15204163968979578
% es.EZ (V/m) @ t=0.08
0.7804515569733113
% es.tEX (V/m) @ t=0.08
-0.6843303163965153
% es.tEY (V/m) @ t=0.08
0
% es.tEZ (V/m) @ t=0.08
0.7804515569733157
% es.Ex (V/m) @ t=0.08
-0.6843303163965178
% es.Ey (V/m) @ t=0.08
0.15204163968979578
% es.Ez (V/m) @ t=0.08
0.7804515569733113
% es.tEx (V/m) @ t=0.08
-0.6843303163965153
% es.tEy (V/m) @ t=0.08
0
% es.tEz (V/m) @ t=0.08
0.7804515569733157
% V (V) @ t=0.08
0.010255684478346593
% es.normE (V/m) @ t=0.1
1.0756004575626914
% es.EX (V/m) @ t=0.1
-0.6946086071840722
% es.EY (V/m) @ t=0.1
0.15432522607037835
% es.EZ (V/m) @ t=0.1
0.7921735393074307
% es.tEX (V/m) @ t=0.1
-0.6946086071840734
% es.tEY (V/m) @ t=0.1
0
% es.tEZ (V/m) @ t=0.1
0.7921735393074316
% es.Ex (V/m) @ t=0.1
-0.6946086071840722
% es.Ey (V/m) @ t=0.1
0.15432522607037835
% es.Ez (V/m) @ t=0.1
0.7921735393074307
% es.tEx (V/m) @ t=0.1
-0.6946086071840734
% es.tEy (V/m) @ t=0.1
0
% es.tEz (V/m) @ t=0.1
0.7921735393074316
% V (V) @ t=0.1
0.010409719638129629
% es.normE (V/m) @ t=0.12
1.0915163759280613
% es.EX (V/m) @ t=0.12
-0.7048868979716232
% es.EY (V/m) @ t=0.12
0.15660881245095382
% es.EZ (V/m) @ t=0.12
0.8038955216415395
% es.tEX (V/m) @ t=0.12
-0.7048868979716207
% es.tEY (V/m) @ t=0.12
0
% es.tEZ (V/m) @ t=0.12
0.8038955216415538
% es.Ex (V/m) @ t=0.12
-0.7048868979716232
% es.Ey (V/m) @ t=0.12
0.15660881245095382
% es.Ez (V/m) @ t=0.12
0.8038955216415395
% es.tEx (V/m) @ t=0.12
-0.7048868979716207
% es.tEy (V/m) @ t=0.12
0
% es.tEz (V/m) @ t=0.12
0.8038955216415538
% V (V) @ t=0.12
0.010563754797912663
% es.normE (V/m) @ t=0.14
1.1077140797074132
% es.EX (V/m) @ t=0.14
-0.7153471613490905
% es.EY (V/m) @ t=0.14
0.15893283102661004
% es.EZ (V/m) @ t=0.14
0.8158250369786115
% es.tEX (V/m) @ t=0.14
-0.715347161349088
% es.tEY (V/m) @ t=0.14
0
% es.tEZ (V/m) @ t=0.14
0.8158250369786328
% es.Ex (V/m) @ t=0.14
-0.7153471613490905
% es.Ey (V/m) @ t=0.14
0.15893283102661004
% es.Ez (V/m) @ t=0.14
0.8158250369786115
% es.tEx (V/m) @ t=0.14
-0.715347161349088
% es.tEy (V/m) @ t=0.14
0
% es.tEz (V/m) @ t=0.14
0.8158250369786328
% V (V) @ t=0.14
0.010720517017102386
% es.normE (V/m) @ t=0.16
1.1250596886936761
% es.EX (V/m) @ t=0.16
-0.7265487238610073
% es.EY (V/m) @ t=0.16
0.16142155765648636
% es.EZ (V/m) @ t=0.16
0.8285999765388201
% es.tEX (V/m) @ t=0.16
-0.7265487238610047
% es.tEY (V/m) @ t=0.16
0
% es.tEZ (V/m) @ t=0.16
0.8285999765388352
% es.Ex (V/m) @ t=0.16
-0.7265487238610073
% es.Ey (V/m) @ t=0.16
0.16142155765648636
% es.Ez (V/m) @ t=0.16
0.8285999765388201
% es.tEx (V/m) @ t=0.16
-0.7265487238610047
% es.tEy (V/m) @ t=0.16
0
% es.tEz (V/m) @ t=0.16
0.8285999765388352
% V (V) @ t=0.16
0.010888388419156993
% es.normE (V/m) @ t=0.18
1.1424052976799512
% es.EX (V/m) @ t=0.18
-0.7377502863729244
% es.EY (V/m) @ t=0.18
0.163910284286368
% es.EZ (V/m) @ t=0.18
0.8413749160990438
% es.tEX (V/m) @ t=0.18
-0.7377502863729217
% es.tEY (V/m) @ t=0.18
0
% es.tEZ (V/m) @ t=0.18
0.8413749160990447
% es.Ex (V/m) @ t=0.18
-0.7377502863729244
% es.Ey (V/m) @ t=0.18
0.163910284286368
% es.Ez (V/m) @ t=0.18
0.8413749160990438
% es.tEx (V/m) @ t=0.18
-0.7377502863729217
% es.tEy (V/m) @ t=0.18
0
% es.tEz (V/m) @ t=0.18
0.8413749160990447
% V (V) @ t=0.18
0.0110562598212116
% es.normE (V/m) @ t=0.2
1.1597509066662144
% es.EX (V/m) @ t=0.2
-0.7489518488848452
% es.EY (V/m) @ t=0.2
0.16639901091623888
% es.EZ (V/m) @ t=0.2
0.8541498556592524
% es.tEX (V/m) @ t=0.2
-0.7489518488848426
% es.tEY (V/m) @ t=0.2
0
% es.tEZ (V/m) @ t=0.2
0.8541498556592675
% es.Ex (V/m) @ t=0.2
-0.7489518488848452
% es.Ey (V/m) @ t=0.2
0.16639901091623888
% es.Ez (V/m) @ t=0.2
0.8541498556592524
% es.tEx (V/m) @ t=0.2
-0.7489518488848426
% es.tEy (V/m) @ t=0.2
0
% es.tEz (V/m) @ t=0.2
0.8541498556592675
% V (V) @ t=0.2
0.01122413122326621
% es.normE (V/m) @ t=0.22
1.1770965156524809
% es.EX (V/m) @ t=0.22
-0.7601534113967514
% es.EY (V/m) @ t=0.22
0.16888773754612407
% es.EZ (V/m) @ t=0.22
0.866924795219469
% es.tEX (V/m) @ t=0.22
-0.7601534113967452
% es.tEY (V/m) @ t=0.22
0
% es.tEZ (V/m) @ t=0.22
0.866924795219477
% es.Ex (V/m) @ t=0.22
-0.7601534113967514
% es.Ey (V/m) @ t=0.22
0.16888773754612407
% es.Ez (V/m) @ t=0.22
0.866924795219469
% es.tEx (V/m) @ t=0.22
-0.7601534113967452
% es.tEy (V/m) @ t=0.22
0
% es.tEz (V/m) @ t=0.22
0.866924795219477
% V (V) @ t=0.22
0.01139200262532082
% es.normE (V/m) @ t=0.24
1.1944421246387413
% es.EX (V/m) @ t=0.24
-0.7713549739086691
% es.EY (V/m) @ t=0.24
0.17137646417600394
% es.EZ (V/m) @ t=0.24
0.8796997347796705
% es.tEX (V/m) @ t=0.24
-0.77135497390867
% es.tEY (V/m) @ t=0.24
0
% es.tEZ (V/m) @ t=0.24
0.8796997347796847
% es.Ex (V/m) @ t=0.24
-0.7713549739086691
% es.Ey (V/m) @ t=0.24
0.17137646417600394
% es.Ez (V/m) @ t=0.24
0.8796997347796705
% es.tEx (V/m) @ t=0.24
-0.77135497390867
% es.tEy (V/m) @ t=0.24
0
% es.tEz (V/m) @ t=0.24
0.8796997347796847
% V (V) @ t=0.24
0.011559874027375423
% es.normE (V/m) @ t=0.26
1.2117877336250142
% es.EX (V/m) @ t=0.26
-0.7825565364205826
% es.EY (V/m) @ t=0.26
0.17386519080588558
% es.EZ (V/m) @ t=0.26
0.8924746743398932
% es.tEX (V/m) @ t=0.26
-0.7825565364205866
% es.tEY (V/m) @ t=0.26
0
% es.tEZ (V/m) @ t=0.26
0.8924746743399012
% es.Ex (V/m) @ t=0.26
-0.7825565364205826
% es.Ey (V/m) @ t=0.26
0.17386519080588558
% es.Ez (V/m) @ t=0.26
0.8924746743398932
% es.tEx (V/m) @ t=0.26
-0.7825565364205866
% es.tEy (V/m) @ t=0.26
0
% es.tEz (V/m) @ t=0.26
0.8924746743399012
% V (V) @ t=0.26
0.011727745429430031
% es.normE (V/m) @ t=0.28
1.2297570561576494
% es.EX (V/m) @ t=0.28
-0.7941608855589397
% es.EY (V/m) @ t=0.28
0.1764434048587541
% es.EZ (V/m) @ t=0.28
0.905708975622483
% es.tEX (V/m) @ t=0.28
-0.794160885558937
% es.tEY (V/m) @ t=0.28
0
% es.tEZ (V/m) @ t=0.28
0.905708975622491
% es.Ex (V/m) @ t=0.28
-0.7941608855589397
% es.Ey (V/m) @ t=0.28
0.1764434048587541
% es.Ez (V/m) @ t=0.28
0.905708975622483
% es.tEx (V/m) @ t=0.28
-0.794160885558937
% es.tEy (V/m) @ t=0.28
0
% es.tEz (V/m) @ t=0.28
0.905708975622491
% V (V) @ t=0.28
0.011901653231058152
% es.normE (V/m) @ t=0.3
1.248645970501605
% es.EX (V/m) @ t=0.3
-0.8063590959105662
% es.EY (V/m) @ t=0.3
0.17915355752651207
% es.EZ (V/m) @ t=0.3
0.9196205514019953
% es.tEX (V/m) @ t=0.3
-0.8063590959105635
% es.tEY (V/m) @ t=0.3
0
% es.tEZ (V/m) @ t=0.3
0.9196205514020059
% es.Ex (V/m) @ t=0.3
-0.8063590959105662
% es.Ey (V/m) @ t=0.3
0.17915355752651207
% es.Ez (V/m) @ t=0.3
0.9196205514019953
% es.tEx (V/m) @ t=0.3
-0.8063590959105635
% es.tEy (V/m) @ t=0.3
0
% es.tEz (V/m) @ t=0.3
0.9196205514020059
% V (V) @ t=0.3
0.012084460989485435
% es.normE (V/m) @ t=0.32
1.2675348848455572
% es.EX (V/m) @ t=0.32
-0.8185573062621851
% es.EY (V/m) @ t=0.32
0.18186371019427183
% es.EZ (V/m) @ t=0.32
0.9335321271815067
% es.tEX (V/m) @ t=0.32
-0.818557306262186
% es.tEY (V/m) @ t=0.32
0
% es.tEZ (V/m) @ t=0.32
0.9335321271815147
% es.Ex (V/m) @ t=0.32
-0.8185573062621851
% es.Ey (V/m) @ t=0.32
0.18186371019427183
% es.Ez (V/m) @ t=0.32
0.9335321271815067
% es.tEx (V/m) @ t=0.32
-0.818557306262186
% es.tEy (V/m) @ t=0.32
0
% es.tEz (V/m) @ t=0.32
0.9335321271815147
% V (V) @ t=0.32
0.012267268747912712
% es.normE (V/m) @ t=0.34
1.2864237991895164
% es.EX (V/m) @ t=0.34
-0.8307555166138156
% es.EY (V/m) @ t=0.34
0.18457386286202804
% es.EZ (V/m) @ t=0.34
0.9474437029610181
% es.tEX (V/m) @ t=0.34
-0.8307555166138125
% es.tEY (V/m) @ t=0.34
0
% es.tEZ (V/m) @ t=0.34
0.9474437029610154
% es.Ex (V/m) @ t=0.34
-0.8307555166138156
% es.Ey (V/m) @ t=0.34
0.18457386286202804
% es.Ez (V/m) @ t=0.34
0.9474437029610181
% es.tEx (V/m) @ t=0.34
-0.8307555166138125
% es.tEy (V/m) @ t=0.34
0
% es.tEz (V/m) @ t=0.34
0.9474437029610154
% V (V) @ t=0.34
0.012450076506339992
% es.normE (V/m) @ t=0.36
1.3053127135334597
% es.EX (V/m) @ t=0.36
-0.8429537269654381
% es.EY (V/m) @ t=0.36
0.1872840155297789
% es.EZ (V/m) @ t=0.36
0.9613552787405153
% es.tEX (V/m) @ t=0.36
-0.842953726965439
% es.tEY (V/m) @ t=0.36
0
% es.tEZ (V/m) @ t=0.36
0.9613552787405304
% es.Ex (V/m) @ t=0.36
-0.8429537269654381
% es.Ey (V/m) @ t=0.36
0.1872840155297789
% es.Ez (V/m) @ t=0.36
0.9613552787405153
% es.tEx (V/m) @ t=0.36
-0.842953726965439
% es.tEy (V/m) @ t=0.36
0
% es.tEz (V/m) @ t=0.36
0.9613552787405304
% V (V) @ t=0.36
0.012632884264767273
% es.normE (V/m) @ t=0.38
1.3242016278774305
% es.EX (V/m) @ t=0.38
-0.8551519373170722
% es.EY (V/m) @ t=0.38
0.18999416819755655
% es.EZ (V/m) @ t=0.38
0.9752668545200365
% es.tEX (V/m) @ t=0.38
-0.8551519373170691
% es.tEY (V/m) @ t=0.38
0
% es.tEZ (V/m) @ t=0.38
0.9752668545200374
% es.Ex (V/m) @ t=0.38
-0.8551519373170722
% es.Ey (V/m) @ t=0.38
0.18999416819755655
% es.Ez (V/m) @ t=0.38
0.9752668545200365
% es.tEx (V/m) @ t=0.38
-0.8551519373170691
% es.tEy (V/m) @ t=0.38
0
% es.tEz (V/m) @ t=0.38
0.9752668545200374
% V (V) @ t=0.38
0.012815692023194549
% es.normE (V/m) @ t=0.4
1.34309054222138
% es.EX (V/m) @ t=0.4
-0.867350147668688
% es.EY (V/m) @ t=0.4
0.19270432086531464
% es.EZ (V/m) @ t=0.4
0.9891784302995452
% es.tEX (V/m) @ t=0.4
-0.867350147668688
% es.tEY (V/m) @ t=0.4
0
% es.tEZ (V/m) @ t=0.4
0.9891784302995523
% es.Ex (V/m) @ t=0.4
-0.867350147668688
% es.Ey (V/m) @ t=0.4
0.19270432086531464
% es.Ez (V/m) @ t=0.4
0.9891784302995452
% es.tEx (V/m) @ t=0.4
-0.867350147668688
% es.tEy (V/m) @ t=0.4
0
% es.tEz (V/m) @ t=0.4
0.9891784302995523
% V (V) @ t=0.4
0.012998499781621826
% es.normE (V/m) @ t=0.42
1.3629937024621541
% es.EX (V/m) @ t=0.42
-0.880203344071262
% es.EY (V/m) @ t=0.42
0.19555999745998975
% es.EZ (V/m) @ t=0.42
1.003836992064696
% es.tEX (V/m) @ t=0.42
-0.8802033440712589
% es.tEY (V/m) @ t=0.42
0
% es.tEZ (V/m) @ t=0.42
1.003836992064696
% es.Ex (V/m) @ t=0.42
-0.880203344071262
% es.Ey (V/m) @ t=0.42
0.19555999745998975
% es.Ez (V/m) @ t=0.42
1.003836992064696
% es.tEx (V/m) @ t=0.42
-0.8802033440712589
% es.tEy (V/m) @ t=0.42
0
% es.tEz (V/m) @ t=0.42
1.003836992064696
% V (V) @ t=0.42
0.01319112340491798
% es.normE (V/m) @ t=0.44
1.3835420848355813
% es.EX (V/m) @ t=0.44
-0.8934732160531835
% es.EY (V/m) @ t=0.44
0.19850825047897236
% es.EZ (V/m) @ t=0.44
1.0189707560389065
% es.tEX (V/m) @ t=0.44
-0.8934732160531804
% es.tEY (V/m) @ t=0.44
0
% es.tEZ (V/m) @ t=0.44
1.0189707560389252
% es.Ex (V/m) @ t=0.44
-0.8934732160531835
% es.Ey (V/m) @ t=0.44
0.19850825047897236
% es.Ez (V/m) @ t=0.44
1.0189707560389065
% es.tEx (V/m) @ t=0.44
-0.8934732160531804
% es.tEy (V/m) @ t=0.44
0
% es.tEz (V/m) @ t=0.44
1.0189707560389252
% V (V) @ t=0.44
0.013389991483611596
% es.normE (V/m) @ t=0.46
1.4040904672090146
% es.EX (V/m) @ t=0.46
-0.9067430880351011
% es.EY (V/m) @ t=0.46
0.20145650349794775
% es.EZ (V/m) @ t=0.46
1.0341045200131331
% es.tEX (V/m) @ t=0.46
-0.9067430880350984
% es.tEY (V/m) @ t=0.46
0
% es.tEZ (V/m) @ t=0.46
1.0341045200131411
% es.Ex (V/m) @ t=0.46
-0.9067430880351011
% es.Ey (V/m) @ t=0.46
0.20145650349794775
% es.Ez (V/m) @ t=0.46
1.0341045200131331
% es.tEx (V/m) @ t=0.46
-0.9067430880350984
% es.tEy (V/m) @ t=0.46
0
% es.tEz (V/m) @ t=0.46
1.0341045200131411
% V (V) @ t=0.46
0.013588859562305204
% es.normE (V/m) @ t=0.48
1.4246388495824354
% es.EX (V/m) @ t=0.48
-0.9200129600170186
% es.EY (V/m) @ t=0.48
0.2044047565169248
% es.EZ (V/m) @ t=0.48
1.0492382839873455
% es.tEX (V/m) @ t=0.48
-0.9200129600170195
% es.tEY (V/m) @ t=0.48
0
% es.tEZ (V/m) @ t=0.48
1.049238283987357
% es.Ex (V/m) @ t=0.48
-0.9200129600170186
% es.Ey (V/m) @ t=0.48
0.2044047565169248
% es.Ez (V/m) @ t=0.48
1.0492382839873455
% es.tEx (V/m) @ t=0.48
-0.9200129600170195
% es.tEy (V/m) @ t=0.48
0
% es.tEz (V/m) @ t=0.48
1.049238283987357
% V (V) @ t=0.48
0.013787727640998816
% es.normE (V/m) @ t=0.5
1.4451872319558787
% es.EX (V/m) @ t=0.5
-0.9332828319989401
% es.EY (V/m) @ t=0.5
0.20735300953590718
% es.EZ (V/m) @ t=0.5
1.0643720479615828
% es.tEX (V/m) @ t=0.5
-0.9332828319989366
% es.tEY (V/m) @ t=0.5
0
% es.tEZ (V/m) @ t=0.5
1.0643720479615943
% es.Ex (V/m) @ t=0.5
-0.9332828319989401
% es.Ey (V/m) @ t=0.5
0.20735300953590718
% es.Ez (V/m) @ t=0.5
1.0643720479615828
% es.tEx (V/m) @ t=0.5
-0.9332828319989366
% es.tEy (V/m) @ t=0.5
0
% es.tEz (V/m) @ t=0.5
1.0643720479615943
% V (V) @ t=0.5
0.013986595719692426
% es.normE (V/m) @ t=0.52
1.4657356143293119
% es.EX (V/m) @ t=0.52
-0.9465527039808621
% es.EY (V/m) @ t=0.52
0.2103012625548898
% es.EZ (V/m) @ t=0.52
1.0795058119358005
% es.tEX (V/m) @ t=0.52
-0.9465527039808586
% es.tEY (V/m) @ t=0.52
0
% es.tEZ (V/m) @ t=0.52
1.0795058119358085
% es.Ex (V/m) @ t=0.52
-0.9465527039808621
% es.Ey (V/m) @ t=0.52
0.2103012625548898
% es.Ez (V/m) @ t=0.52
1.0795058119358005
% es.tEx (V/m) @ t=0.52
-0.9465527039808586
% es.tEy (V/m) @ t=0.52
0
% es.tEz (V/m) @ t=0.52
1.0795058119358085
% V (V) @ t=0.52
0.014185463798386037
% es.normE (V/m) @ t=0.54
1.4862839967027415
% es.EX (V/m) @ t=0.54
-0.9598225759627721
% es.EY (V/m) @ t=0.54
0.21324951557386873
% es.EZ (V/m) @ t=0.54
1.0946395759100307
% es.tEX (V/m) @ t=0.54
-0.9598225759627765
% es.tEY (V/m) @ t=0.54
0
% es.tEZ (V/m) @ t=0.54
1.0946395759100387
% es.Ex (V/m) @ t=0.54
-0.9598225759627721
% es.Ey (V/m) @ t=0.54
0.21324951557386873
% es.Ez (V/m) @ t=0.54
1.0946395759100307
% es.tEx (V/m) @ t=0.54
-0.9598225759627765
% es.tEy (V/m) @ t=0.54
0
% es.tEz (V/m) @ t=0.54
1.0946395759100387
% V (V) @ t=0.54
0.014384331877079649
% es.normE (V/m) @ t=0.56
1.5074752408686565
% es.EX (V/m) @ t=0.56
-0.9735076001461862
% es.EY (V/m) @ t=0.56
0.21629000370991525
% es.EZ (V/m) @ t=0.56
1.1102468041177307
% es.tEX (V/m) @ t=0.56
-0.9735076001461831
% es.tEY (V/m) @ t=0.56
0
% es.tEZ (V/m) @ t=0.56
1.1102468041177378
% es.Ex (V/m) @ t=0.56
-0.9735076001461862
% es.Ey (V/m) @ t=0.56
0.21629000370991525
% es.Ez (V/m) @ t=0.56
1.1102468041177307
% es.tEx (V/m) @ t=0.56
-0.9735076001461831
% es.tEy (V/m) @ t=0.56
0
% es.tEz (V/m) @ t=0.56
1.1102468041177378
% V (V) @ t=0.56
0.014589421660258551
% es.normE (V/m) @ t=0.58
1.5289969822047156
% es.EX (V/m) @ t=0.58
-0.987406055317988
% es.EY (V/m) @ t=0.58
0.21937791019551456
% es.EZ (V/m) @ t=0.58
1.1260974417038705
% es.tEX (V/m) @ t=0.58
-0.9874060553179844
% es.tEY (V/m) @ t=0.58
0
% es.tEZ (V/m) @ t=0.58
1.126097441703882
% es.Ex (V/m) @ t=0.58
-0.987406055317988
% es.Ey (V/m) @ t=0.58
0.21937791019551456
% es.Ez (V/m) @ t=0.58
1.1260974417038705
% es.tEx (V/m) @ t=0.58
-0.9874060553179844
% es.tEy (V/m) @ t=0.58
0
% es.tEz (V/m) @ t=0.58
1.126097441703882
% V (V) @ t=0.58
0.014797710040320898
% es.normE (V/m) @ t=0.6
1.5507251750271298
% es.EX (V/m) @ t=0.6
-1.0014378343084727
% es.EY (V/m) @ t=0.6
0.22249543747556322
% es.EZ (V/m) @ t=0.6
1.142100129693194
% es.tEX (V/m) @ t=0.6
-1.0014378343084727
% es.tEY (V/m) @ t=0.6
0
% es.tEZ (V/m) @ t=0.6
1.1421001296932092
% es.Ex (V/m) @ t=0.6
-1.0014378343084727
% es.Ey (V/m) @ t=0.6
0.22249543747556322
% es.Ez (V/m) @ t=0.6
1.142100129693194
% es.tEx (V/m) @ t=0.6
-1.0014378343084727
% es.tEy (V/m) @ t=0.6
0
% es.tEz (V/m) @ t=0.6
1.1421001296932092
% V (V) @ t=0.6
0.015007996486147483
% es.normE (V/m) @ t=0.62
1.5726598193358983
% es.EX (V/m) @ t=0.62
-1.0156029371176571
% es.EY (V/m) @ t=0.62
0.22564258555004002
% es.EZ (V/m) @ t=0.62
1.1582548680856926
% es.tEX (V/m) @ t=0.62
-1.0156029371176571
% es.tEY (V/m) @ t=0.62
0
% es.tEZ (V/m) @ t=0.62
1.158254868085697
% es.Ex (V/m) @ t=0.62
-1.0156029371176571
% es.Ey (V/m) @ t=0.62
0.22564258555004002
% es.Ez (V/m) @ t=0.62
1.1582548680856926
% es.tEx (V/m) @ t=0.62
-1.0156029371176571
% es.tEy (V/m) @ t=0.62
0
% es.tEz (V/m) @ t=0.62
1.158254868085697
% V (V) @ t=0.62
0.015220280997738296
% es.normE (V/m) @ t=0.64
1.5948009151310414
% es.EX (V/m) @ t=0.64
-1.029901363745524
% es.EY (V/m) @ t=0.64
0.22881935441896606
% es.EZ (V/m) @ t=0.64
1.1745616568814041
% es.tEX (V/m) @ t=0.64
-1.029901363745524
% es.tEY (V/m) @ t=0.64
0
% es.tEZ (V/m) @ t=0.64
1.1745616568814121
% es.Ex (V/m) @ t=0.64
-1.029901363745524
% es.Ey (V/m) @ t=0.64
0.22881935441896606
% es.Ez (V/m) @ t=0.64
1.1745616568814041
% es.tEx (V/m) @ t=0.64
-1.029901363745524
% es.tEy (V/m) @ t=0.64
0
% es.tEz (V/m) @ t=0.64
1.1745616568814121
% V (V) @ t=0.64
0.01543456357509334
% es.normE (V/m) @ t=0.66
1.6171484624125352
% es.EX (V/m) @ t=0.66
-1.0443331141920797
% es.EY (V/m) @ t=0.66
0.23202574408235543
% es.EZ (V/m) @ t=0.66
1.1910204960802835
% es.tEX (V/m) @ t=0.66
-1.0443331141920797
% es.tEY (V/m) @ t=0.66
0
% es.tEZ (V/m) @ t=0.66
1.1910204960802986
% es.Ex (V/m) @ t=0.66
-1.0443331141920797
% es.Ey (V/m) @ t=0.66
0.23202574408235543
% es.Ez (V/m) @ t=0.66
1.1910204960802835
% es.tEx (V/m) @ t=0.66
-1.0443331141920797
% es.tEy (V/m) @ t=0.66
0
% es.tEz (V/m) @ t=0.66
1.1910204960802986
% V (V) @ t=0.66
0.01565084421821262
% es.normE (V/m) @ t=0.68
1.639702461180386
% es.EX (V/m) @ t=0.68
-1.0588981884573303
% es.EY (V/m) @ t=0.68
0.23526175454019627
% es.EZ (V/m) @ t=0.68
1.2076313856823422
% es.tEX (V/m) @ t=0.68
-1.0588981884573268
% es.tEY (V/m) @ t=0.68
0
% es.tEZ (V/m) @ t=0.68
1.2076313856823573
% es.Ex (V/m) @ t=0.68
-1.0588981884573303
% es.Ey (V/m) @ t=0.68
0.23526175454019627
% es.Ez (V/m) @ t=0.68
1.2076313856823422
% es.tEx (V/m) @ t=0.68
-1.0588981884573268
% es.tEy (V/m) @ t=0.68
0
% es.tEz (V/m) @ t=0.68
1.2076313856823573
% V (V) @ t=0.68
0.01586912292709612
% es.normE (V/m) @ t=0.7
1.6624629114345986
% es.EX (V/m) @ t=0.7
-1.0735965865412584
% es.EY (V/m) @ t=0.7
0.23852738579246846
% es.EZ (V/m) @ t=0.7
1.2243943256876006
% es.tEX (V/m) @ t=0.7
-1.073596586541255
% es.tEY (V/m) @ t=0.7
0
% es.tEZ (V/m) @ t=0.7
1.2243943256876157
% es.Ex (V/m) @ t=0.7
-1.0735965865412584
% es.Ey (V/m) @ t=0.7
0.23852738579246846
% es.Ez (V/m) @ t=0.7
1.2243943256876006
% es.tEx (V/m) @ t=0.7
-1.073596586541255
% es.tEy (V/m) @ t=0.7
0
% es.tEz (V/m) @ t=0.7
1.2243943256876157
% V (V) @ t=0.7
0.016089399701743865
% es.normE (V/m) @ t=0.72
1.6854298131751757
% es.EX (V/m) @ t=0.72
-1.0884283084438762
% es.EY (V/m) @ t=0.72
0.24182263783919888
% es.EZ (V/m) @ t=0.72
1.24130931609605
% es.tEX (V/m) @ t=0.72
-1.0884283084438686
% es.tEY (V/m) @ t=0.72
0
% es.tEZ (V/m) @ t=0.72
1.2413093160960518
% es.Ex (V/m) @ t=0.72
-1.0884283084438762
% es.Ey (V/m) @ t=0.72
0.24182263783919888
% es.Ez (V/m) @ t=0.72
1.24130931609605
% es.tEx (V/m) @ t=0.72
-1.0884283084438686
% es.tEy (V/m) @ t=0.72
0
% es.tEz (V/m) @ t=0.72
1.2413093160960518
% V (V) @ t=0.72
0.016311674542155832
% es.normE (V/m) @ t=0.74
1.708603166402105
% es.EX (V/m) @ t=0.74
-1.1033933541651946
% es.EY (V/m) @ t=0.74
0.24514751068037144
% es.EZ (V/m) @ t=0.74
1.2583763569076662
% es.tEX (V/m) @ t=0.74
-1.103393354165187
% es.tEY (V/m) @ t=0.74
0
% es.tEZ (V/m) @ t=0.74
1.258376356907684
% es.Ex (V/m) @ t=0.74
-1.1033933541651946
% es.Ey (V/m) @ t=0.74
0.24514751068037144
% es.Ez (V/m) @ t=0.74
1.2583763569076662
% es.tEx (V/m) @ t=0.74
-1.103393354165187
% es.tEy (V/m) @ t=0.74
0
% es.tEz (V/m) @ t=0.74
1.258376356907684
% V (V) @ t=0.74
0.016535947448332037
% es.normE (V/m) @ t=0.76
1.731982971115397
% es.EX (V/m) @ t=0.76
-1.1184917237051866
% es.EY (V/m) @ t=0.76
0.24850200431599323
% es.EZ (V/m) @ t=0.76
1.2755954481224876
% es.tEX (V/m) @ t=0.76
-1.1184917237051861
% es.tEY (V/m) @ t=0.76
0
% es.tEZ (V/m) @ t=0.76
1.275595448122509
% es.Ex (V/m) @ t=0.76
-1.1184917237051866
% es.Ey (V/m) @ t=0.76
0.24850200431599323
% es.Ez (V/m) @ t=0.76
1.2755954481224876
% es.tEx (V/m) @ t=0.76
-1.1184917237051861
% es.tEy (V/m) @ t=0.76
0
% es.tEz (V/m) @ t=0.76
1.275595448122509
% V (V) @ t=0.76
0.01676221842027247
% es.normE (V/m) @ t=0.78
1.7555692273150418
% es.EX (V/m) @ t=0.78
-1.1337234170638766
% es.EY (V/m) @ t=0.78
0.25188611874606803
% es.EZ (V/m) @ t=0.78
1.2929665897404732
% es.tEX (V/m) @ t=0.78
-1.1337234170638726
% es.tEY (V/m) @ t=0.78
0
% es.tEZ (V/m) @ t=0.78
1.292966589740482
% es.Ex (V/m) @ t=0.78
-1.1337234170638766
% es.Ey (V/m) @ t=0.78
0.25188611874606803
% es.Ez (V/m) @ t=0.78
1.2929665897404732
% es.tEx (V/m) @ t=0.78
-1.1337234170638726
% es.tEy (V/m) @ t=0.78
0
% es.tEz (V/m) @ t=0.78
1.292966589740482
% V (V) @ t=0.78
0.016990487457977134
% es.normE (V/m) @ t=0.8
1.7793619350010415
% es.EX (V/m) @ t=0.8
-1.1490884342412517
% es.EY (V/m) @ t=0.8
0.25529985397059374
% es.EZ (V/m) @ t=0.8
1.3104897817616408
% es.tEX (V/m) @ t=0.8
-1.1490884342412548
% es.tEY (V/m) @ t=0.8
0
% es.tEZ (V/m) @ t=0.8
1.3104897817616532
% es.Ex (V/m) @ t=0.8
-1.1490884342412517
% es.Ey (V/m) @ t=0.8
0.25529985397059374
% es.Ez (V/m) @ t=0.8
1.3104897817616408
% es.tEx (V/m) @ t=0.8
-1.1490884342412548
% es.tEy (V/m) @ t=0.8
0
% es.tEz (V/m) @ t=0.8
1.3104897817616532
% V (V) @ t=0.8
0.017220754561446033
% es.normE (V/m) @ t=0.82
1.8034549059256209
% es.EX (V/m) @ t=0.82
-1.1646473529272061
% es.EY (V/m) @ t=0.82
0.2587566837091775
% es.EZ (V/m) @ t=0.82
1.328234113858036
% es.tEX (V/m) @ t=0.82
-1.1646473529272021
% es.tEY (V/m) @ t=0.82
0
% es.tEZ (V/m) @ t=0.82
1.3282341138580573
% es.Ex (V/m) @ t=0.82
-1.1646473529272061
% es.Ey (V/m) @ t=0.82
0.2587566837091775
% es.Ez (V/m) @ t=0.82
1.328234113858036
% es.tEx (V/m) @ t=0.82
-1.1646473529272021
% es.tEy (V/m) @ t=0.82
0
% es.tEz (V/m) @ t=0.82
1.3282341138580573
% V (V) @ t=0.82
0.017453927144561905
% es.normE (V/m) @ t=0.84
1.8281003221733203
% es.EX (V/m) @ t=0.84
-1.180563016345006
% es.EY (V/m) @ t=0.84
0.26229282763181616
% es.EZ (V/m) @ t=0.84
1.3463853109212653
% es.tEX (V/m) @ t=0.84
-1.1805630163450016
% es.tEY (V/m) @ t=0.84
0
% es.tEZ (V/m) @ t=0.84
1.3463853109213026
% es.Ex (V/m) @ t=0.84
-1.180563016345006
% es.Ey (V/m) @ t=0.84
0.26229282763181616
% es.Ez (V/m) @ t=0.84
1.3463853109212653
% es.tEx (V/m) @ t=0.84
-1.1805630163450016
% es.tEy (V/m) @ t=0.84
0
% es.tEz (V/m) @ t=0.84
1.3463853109213026
% V (V) @ t=0.84
0.017692444491519972
% es.normE (V/m) @ t=0.86
1.8530106336631906
% es.EX (V/m) @ t=0.86
-1.1966497428586282
% es.EY (V/m) @ t=0.86
0.26586698633747863
% es.EZ (V/m) @ t=0.86
1.364731600542056
% es.tEX (V/m) @ t=0.86
-1.1966497428586242
% es.tEY (V/m) @ t=0.86
0
% es.tEZ (V/m) @ t=0.86
1.3647316005420649
% es.Ex (V/m) @ t=0.86
-1.1966497428586282
% es.Ey (V/m) @ t=0.86
0.26586698633747863
% es.Ez (V/m) @ t=0.86
1.364731600542056
% es.tEx (V/m) @ t=0.86
-1.1966497428586242
% es.tEy (V/m) @ t=0.86
0
% es.tEz (V/m) @ t=0.86
1.3647316005420649
% V (V) @ t=0.86
0.017933525213748917
% es.normE (V/m) @ t=0.88
1.87818584039519
% es.EX (V/m) @ t=0.88
-1.2129075324680372
% es.EY (V/m) @ t=0.88
0.26947915982621606
% es.EZ (V/m) @ t=0.88
1.383272982720369
% es.tEX (V/m) @ t=0.88
-1.2129075324680332
% es.tEY (V/m) @ t=0.88
0
% es.tEZ (V/m) @ t=0.88
1.3832729827203707
% es.Ex (V/m) @ t=0.88
-1.2129075324680372
% es.Ey (V/m) @ t=0.88
0.26947915982621606
% es.Ez (V/m) @ t=0.88
1.383272982720369
% es.tEx (V/m) @ t=0.88
-1.2129075324680332
% es.tEy (V/m) @ t=0.88
0
% es.tEz (V/m) @ t=0.88
1.3832729827203707
% V (V) @ t=0.88
0.01817716931124873
% es.normE (V/m) @ t=0.9
1.9036259423693522
% es.EX (V/m) @ t=0.9
-1.2293363851732688
% es.EY (V/m) @ t=0.9
0.27312934809803036
% es.EZ (V/m) @ t=0.9
1.4020094574562147
% es.tEX (V/m) @ t=0.9
-1.2293363851732644
% es.tEY (V/m) @ t=0.9
0
% es.tEZ (V/m) @ t=0.9
1.4020094574562147
% es.Ex (V/m) @ t=0.9
-1.2293363851732688
% es.Ey (V/m) @ t=0.9
0.27312934809803036
% es.Ez (V/m) @ t=0.9
1.4020094574562147
% es.tEx (V/m) @ t=0.9
-1.2293363851732644
% es.tEy (V/m) @ t=0.9
0
% es.tEz (V/m) @ t=0.9
1.4020094574562147
% V (V) @ t=0.9
0.018423376784019427
% es.normE (V/m) @ t=0.92
1.9293309395856535
% es.EX (V/m) @ t=0.92
-1.2459363009743019
% es.EY (V/m) @ t=0.92
0.2768175511528843
% es.EZ (V/m) @ t=0.92
1.420941024749581
% es.tEX (V/m) @ t=0.92
-1.2459363009742974
% es.tEY (V/m) @ t=0.92
0
% es.tEZ (V/m) @ t=0.92
1.4209410247496024
% es.Ex (V/m) @ t=0.92
-1.2459363009743019
% es.Ey (V/m) @ t=0.92
0.2768175511528843
% es.Ez (V/m) @ t=0.92
1.420941024749581
% es.tEx (V/m) @ t=0.92
-1.2459363009742974
% es.tEy (V/m) @ t=0.92
0
% es.tEz (V/m) @ t=0.92
1.4209410247496024
% V (V) @ t=0.92
0.018672147632060997
% es.normE (V/m) @ t=0.94
1.9553008320441343
% es.EX (V/m) @ t=0.94
-1.2627072798711345
% es.EY (V/m) @ t=0.94
0.28054376899078837
% es.EZ (V/m) @ t=0.94
1.4400676846005247
% es.tEX (V/m) @ t=0.94
-1.2627072798711372
% es.tEY (V/m) @ t=0.94
0
% es.tEZ (V/m) @ t=0.94
1.4400676846005531
% es.Ex (V/m) @ t=0.94
-1.2627072798711345
% es.Ey (V/m) @ t=0.94
0.28054376899078837
% es.Ez (V/m) @ t=0.94
1.4400676846005247
% es.tEx (V/m) @ t=0.94
-1.2627072798711372
% es.tEy (V/m) @ t=0.94
0
% es.tEz (V/m) @ t=0.94
1.4400676846005531
% V (V) @ t=0.94
0.01892348185537344
% es.normE (V/m) @ t=0.96
1.9815356197447778
% es.EX (V/m) @ t=0.96
-1.2796493218637823
% es.EY (V/m) @ t=0.96
0.2843080016117405
% es.EZ (V/m) @ t=0.96
1.459389437009003
% es.tEX (V/m) @ t=0.96
-1.2796493218637779
% es.tEY (V/m) @ t=0.96
0
% es.tEZ (V/m) @ t=0.96
1.4593894370090261
% es.Ex (V/m) @ t=0.96
-1.2796493218637823
% es.Ey (V/m) @ t=0.96
0.2843080016117405
% es.Ez (V/m) @ t=0.96
1.459389437009003
% es.tEx (V/m) @ t=0.96
-1.2796493218637779
% es.tEy (V/m) @ t=0.96
0
% es.tEz (V/m) @ t=0.96
1.4593894370090261
% V (V) @ t=0.96
0.019177379453956766
% es.normE (V/m) @ t=0.98
2.0080353026876354
% es.EX (V/m) @ t=0.98
-1.2967624269522386
% es.EY (V/m) @ t=0.98
0.2881102490157823
% es.EZ (V/m) @ t=0.98
1.47890628197508
% es.tEX (V/m) @ t=0.98
-1.2967624269522342
% es.tEY (V/m) @ t=0.98
0
% es.tEZ (V/m) @ t=0.98
1.4789062819750871
% es.Ex (V/m) @ t=0.98
-1.2967624269522386
% es.Ey (V/m) @ t=0.98
0.2881102490157823
% es.Ez (V/m) @ t=0.98
1.47890628197508
% es.tEx (V/m) @ t=0.98
-1.2967624269522342
% es.tEy (V/m) @ t=0.98
0
% es.tEz (V/m) @ t=0.98
1.4789062819750871
% V (V) @ t=0.98
0.019433840427810958
% es.normE (V/m) @ t=1
2.0347998808726055
% es.EX (V/m) @ t=1
-1.3140465951364964
% es.EY (V/m) @ t=1
0.291950511202862
% es.EZ (V/m) @ t=1
1.4986182194986242
% es.tEX (V/m) @ t=1
-1.314046595136499
% es.tEY (V/m) @ t=1
0
% es.tEZ (V/m) @ t=1
1.4986182194986402
% es.Ex (V/m) @ t=1
-1.3140465951364964
% es.Ey (V/m) @ t=1
0.291950511202862
% es.Ez (V/m) @ t=1
1.4986182194986242
% es.tEx (V/m) @ t=1
-1.314046595136499
% es.tEy (V/m) @ t=1
0
% es.tEz (V/m) @ t=1
1.4986182194986402
% V (V) @ t=1
0.01969286477693603
% es.normE (V/m) @ t=1.02
2.0618293542997925
% es.EX (V/m) @ t=1.02
-1.3315018264165825
% es.EY (V/m) @ t=1.02
0.29582878817298264
% es.EZ (V/m) @ t=1.02
1.5185252495797634
% es.tEX (V/m) @ t=1.02
-1.331501826416571
% es.tEY (V/m) @ t=1.02
0
% es.tEZ (V/m) @ t=1.02
1.518525249579758
% es.Ex (V/m) @ t=1.02
-1.3315018264165825
% es.Ey (V/m) @ t=1.02
0.29582878817298264
% es.Ez (V/m) @ t=1.02
1.5185252495797634
% es.tEx (V/m) @ t=1.02
-1.331501826416571
% es.tEy (V/m) @ t=1.02
0
% es.tEz (V/m) @ t=1.02
1.518525249579758
% V (V) @ t=1.02
0.01995445250133198
% es.normE (V/m) @ t=1.04
2.0891237229691058
% es.EX (V/m) @ t=1.04
-1.3491281207924501
% es.EY (V/m) @ t=1.04
0.2997450799261929
% es.EZ (V/m) @ t=1.04
1.538627372218377
% es.tEX (V/m) @ t=1.04
-1.3491281207924528
% es.tEY (V/m) @ t=1.04
0