% Model:              1 neuron.mph
% Version:            COMSOL 6.0.0.405
% Date:               Mar 16 2023, 19:34
% Dimension:          0
% Nodes:              14017
% Expressions:        14017
% Description:        Electric field norm, Electric field, X component, Electric field, Y component, Electric field, Z component, Tangential electric field, X component, Tangential electric field, Y component, Tangential electric field, Z component, Electric field, x component, Electric field, y component, Electric field, z component, Tangential electric field, x component, Tangential electric field, y component, Tangential electric field, z component, Electric potential
% Length unit:        mm
% x
2
% y
12.2
% z
1.6599999999999997
% es.normE (V/m) @ t=0
1.9080380190229391
% es.EX (V/m) @ t=0
-1.843668782931843
% es.EY (V/m) @ t=0
0.14202969793904363
% es.EZ (V/m) @ t=0
-0.4699035697128977
% es.tEX (V/m) @ t=0
-1.843668782931836
% es.tEY (V/m) @ t=0
0
% es.tEZ (V/m) @ t=0
-0.46990356971290126
% es.Ex (V/m) @ t=0
-1.843668782931843
% es.Ey (V/m) @ t=0
0.14202969793904363
% es.Ez (V/m) @ t=0
-0.4699035697128977
% es.tEx (V/m) @ t=0
-1.843668782931836
% es.tEy (V/m) @ t=0
0
% es.tEz (V/m) @ t=0
-0.46990356971290126
% V (V) @ t=0
0.01105747984689534
% es.normE (V/m) @ t=0.02
1.6571446198198696
% es.EX (V/m) @ t=0.02
-1.601239477703385
% es.EY (V/m) @ t=0.02
0.12335380834293863
% es.EZ (V/m) @ t=0.02
-0.40811460546181033
% es.tEX (V/m) @ t=0.02
-1.6012394777034054
% es.tEY (V/m) @ t=0.02
0
% es.tEZ (V/m) @ t=0.02
-0.4081146054618099
% es.Ex (V/m) @ t=0.02
-1.601239477703385
% es.Ey (V/m) @ t=0.02
0.12335380834293863
% es.Ez (V/m) @ t=0.02
-0.40811460546181033
% es.tEx (V/m) @ t=0.02
-1.6012394777034054
% es.tEy (V/m) @ t=0.02
0
% es.tEz (V/m) @ t=0.02
-0.4081146054618099
% V (V) @ t=0.02
0.009603499916096948
% es.normE (V/m) @ t=0.04
1.6817149661279078
% es.EX (V/m) @ t=0.04
-1.6249809194094595
% es.EY (V/m) @ t=0.04
0.12518277203605288
% es.EZ (V/m) @ t=0.04
-0.41416569902494116
% es.tEX (V/m) @ t=0.04
-1.6249809194094738
% es.tEY (V/m) @ t=0.04
0
% es.tEZ (V/m) @ t=0.04
-0.4141656990249398
% es.Ex (V/m) @ t=0.04
-1.6249809194094595
% es.Ey (V/m) @ t=0.04
0.12518277203605288
% es.Ez (V/m) @ t=0.04
-0.41416569902494116
% es.tEx (V/m) @ t=0.04
-1.6249809194094738
% es.tEy (V/m) @ t=0.04
0
% es.tEz (V/m) @ t=0.04
-0.4141656990249398
% V (V) @ t=0.04
0.009745889905706852
% es.normE (V/m) @ t=0.06
1.7066571905820034
% es.EX (V/m) @ t=0.06
-1.6490816996675202
% es.EY (V/m) @ t=0.06
0.12703940605100306
% es.EZ (V/m) @ t=0.06
-0.420308357465077
% es.tEX (V/m) @ t=0.06
-1.6490816996675104
% es.tEY (V/m) @ t=0.06
0
% es.tEZ (V/m) @ t=0.06
-0.420308357465073
% es.Ex (V/m) @ t=0.06
-1.6490816996675202
% es.Ey (V/m) @ t=0.06
0.12703940605100306
% es.Ez (V/m) @ t=0.06
-0.420308357465077
% es.tEx (V/m) @ t=0.06
-1.6490816996675104
% es.tEy (V/m) @ t=0.06
0
% es.tEz (V/m) @ t=0.06
-0.420308357465073
% V (V) @ t=0.06
0.009890435513852372
% es.normE (V/m) @ t=0.08
1.7322280142627724
% es.EX (V/m) @ t=0.08
-1.6737898721776467
% es.EY (V/m) @ t=0.08
0.12894283269157214
% es.EZ (V/m) @ t=0.08
-0.4266058268455746
% es.tEX (V/m) @ t=0.08
-1.673789872177636
% es.tEY (V/m) @ t=0.08
0
% es.tEZ (V/m) @ t=0.08
-0.42660582684557014
% es.Ex (V/m) @ t=0.08
-1.6737898721776467
% es.Ey (V/m) @ t=0.08
0.12894283269157214
% es.Ez (V/m) @ t=0.08
-0.4266058268455746
% es.tEx (V/m) @ t=0.08
-1.673789872177636
% es.tEy (V/m) @ t=0.08
0
% es.tEz (V/m) @ t=0.08
-0.42660582684557014
% V (V) @ t=0.08
0.010038623930658302
% es.normE (V/m) @ t=0.1
1.7582532709819834
% es.EX (V/m) @ t=0.1
-1.6989371465748127
% es.EY (V/m) @ t=0.1
0.13088008711009147
% es.EZ (V/m) @ t=0.1
-0.4330152136498513
% es.tEX (V/m) @ t=0.1
-1.6989371465748029
% es.tEY (V/m) @ t=0.1
0
% es.tEZ (V/m) @ t=0.1
-0.43301521364984197
% es.Ex (V/m) @ t=0.1
-1.6989371465748127
% es.Ey (V/m) @ t=0.1
0.13088008711009147
% es.Ez (V/m) @ t=0.1
-0.4330152136498513
% es.tEx (V/m) @ t=0.1
-1.6989371465748029
% es.tEy (V/m) @ t=0.1
0
% es.tEz (V/m) @ t=0.1
-0.43301521364984197
% V (V) @ t=0.1
0.01018944584196717
% es.normE (V/m) @ t=0.12
1.7842785277012005
% es.EX (V/m) @ t=0.12
-1.7240844209719954
% es.EY (V/m) @ t=0.12
0.1328173415285886
% es.EZ (V/m) @ t=0.12
-0.4394246004540934
% es.tEX (V/m) @ t=0.12
-1.7240844209720052
% es.tEY (V/m) @ t=0.12
0
% es.tEZ (V/m) @ t=0.12
-0.4394246004540978
% es.Ex (V/m) @ t=0.12
-1.7240844209719954
% es.Ey (V/m) @ t=0.12
0.1328173415285886
% es.Ez (V/m) @ t=0.12
-0.4394246004540934
% es.tEx (V/m) @ t=0.12
-1.7240844209720052
% es.tEy (V/m) @ t=0.12
0
% es.tEz (V/m) @ t=0.12
-0.4394246004540978
% V (V) @ t=0.12
0.010340267753276036
% es.normE (V/m) @ t=0.14
1.8107047561101064
% es.EX (V/m) @ t=0.14
-1.7496191393520437
% es.EY (V/m) @ t=0.14
0.13478444445018434
% es.EZ (V/m) @ t=0.14
-0.44593273882217144
% es.tEX (V/m) @ t=0.14
-1.749619139352042
% es.tEY (V/m) @ t=0.14
0
% es.tEZ (V/m) @ t=0.14
-0.445932738822167
% es.Ex (V/m) @ t=0.14
-1.7496191393520437
% es.Ey (V/m) @ t=0.14
0.13478444445018434
% es.Ez (V/m) @ t=0.14
-0.44593273882217144
% es.tEx (V/m) @ t=0.14
-1.749619139352042
% es.tEy (V/m) @ t=0.14
0
% es.tEz (V/m) @ t=0.14
-0.445932738822167
% V (V) @ t=0.14
0.01049341332815359
% es.normE (V/m) @ t=0.16
1.839077587130295
% es.EX (V/m) @ t=0.16
-1.777034787204621
% es.EY (V/m) @ t=0.16
0.1368964532979149
% es.EZ (V/m) @ t=0.16
-0.45292028772453596
% es.tEX (V/m) @ t=0.16
-1.7770347872046095
% es.tEY (V/m) @ t=0.16
0
% es.tEZ (V/m) @ t=0.16
-0.45292028772454174
% es.Ex (V/m) @ t=0.16
-1.777034787204621
% es.Ey (V/m) @ t=0.16
0.1368964532979149
% es.Ez (V/m) @ t=0.16
-0.45292028772453596
% es.tEx (V/m) @ t=0.16
-1.7770347872046095
% es.tEy (V/m) @ t=0.16
0
% es.tEz (V/m) @ t=0.16
-0.45292028772454174
% V (V) @ t=0.16
0.010657839623558133
% es.normE (V/m) @ t=0.18
1.8674504181504723
% es.EX (V/m) @ t=0.18
-1.8044504350571922
% es.EY (V/m) @ t=0.18
0.13900846214564289
% es.EZ (V/m) @ t=0.18
-0.45990783662688095
% es.tEX (V/m) @ t=0.18
-1.8044504350571806
% es.tEY (V/m) @ t=0.18
0
% es.tEZ (V/m) @ t=0.18
-0.45990783662689516
% es.Ex (V/m) @ t=0.18
-1.8044504350571922
% es.Ey (V/m) @ t=0.18
0.13900846214564289
% es.Ez (V/m) @ t=0.18
-0.45990783662688095
% es.tEx (V/m) @ t=0.18
-1.8044504350571806
% es.tEy (V/m) @ t=0.18
0
% es.tEz (V/m) @ t=0.18
-0.45990783662689516
% V (V) @ t=0.18
0.010822265918962671
% es.normE (V/m) @ t=0.2
1.8958232491706468
% es.EX (V/m) @ t=0.2
-1.83186608290975
% es.EY (V/m) @ t=0.2
0.14112047099338054
% es.EZ (V/m) @ t=0.2
-0.46689538552926235
% es.tEX (V/m) @ t=0.2
-1.8318660829097606
% es.tEY (V/m) @ t=0.2
0
% es.tEZ (V/m) @ t=0.2
-0.46689538552925747
% es.Ex (V/m) @ t=0.2
-1.83186608290975
% es.Ey (V/m) @ t=0.2
0.14112047099338054
% es.Ez (V/m) @ t=0.2
-0.46689538552926235
% es.tEx (V/m) @ t=0.2
-1.8318660829097606
% es.tEy (V/m) @ t=0.2
0
% es.tEz (V/m) @ t=0.2
-0.46689538552925747
% V (V) @ t=0.2
0.010986692214367213
% es.normE (V/m) @ t=0.22
1.9241960801908236
% es.EX (V/m) @ t=0.22
-1.8592817307623148
% es.EY (V/m) @ t=0.22
0.14323247984112797
% es.EZ (V/m) @ t=0.22
-0.47388293443162244
% es.tEX (V/m) @ t=0.22
-1.859281730762321
% es.tEY (V/m) @ t=0.22
0
% es.tEZ (V/m) @ t=0.22
-0.4738829344316322
% es.Ex (V/m) @ t=0.22
-1.8592817307623148
% es.Ey (V/m) @ t=0.22
0.14323247984112797
% es.Ez (V/m) @ t=0.22
-0.47388293443162244
% es.tEx (V/m) @ t=0.22
-1.859281730762321
% es.tEy (V/m) @ t=0.22
0
% es.tEz (V/m) @ t=0.22
-0.4738829344316322
% V (V) @ t=0.22
0.011151118509771752
% es.normE (V/m) @ t=0.24
1.9525689112109954
% es.EX (V/m) @ t=0.24
-1.8866973786148797
% es.EY (V/m) @ t=0.24
0.14534448868883987
% es.EZ (V/m) @ t=0.24
-0.48087048333397453
% es.tEX (V/m) @ t=0.24
-1.886697378614869
% es.tEY (V/m) @ t=0.24
0
% es.tEZ (V/m) @ t=0.24
-0.480870483333975
% es.Ex (V/m) @ t=0.24
-1.8866973786148797
% es.Ey (V/m) @ t=0.24
0.14534448868883987
% es.Ez (V/m) @ t=0.24
-0.48087048333397453
% es.tEx (V/m) @ t=0.24
-1.886697378614869
% es.tEy (V/m) @ t=0.24
0
% es.tEz (V/m) @ t=0.24
-0.480870483333975
% V (V) @ t=0.24
0.011315544805176296
% es.normE (V/m) @ t=0.26
1.980941742231178
% es.EX (V/m) @ t=0.26
-1.9141130264674473
% es.EY (V/m) @ t=0.26
0.1474564975365652
% es.EZ (V/m) @ t=0.26
-0.48785803223635416
% es.tEX (V/m) @ t=0.26
-1.9141130264674366
% es.tEY (V/m) @ t=0.26
0
% es.tEZ (V/m) @ t=0.26
-0.48785803223634794
% es.Ex (V/m) @ t=0.26
-1.9141130264674473
% es.Ey (V/m) @ t=0.26
0.1474564975365652
% es.Ez (V/m) @ t=0.26
-0.48785803223635416
% es.tEx (V/m) @ t=0.26
-1.9141130264674366
% es.tEy (V/m) @ t=0.26
0
% es.tEz (V/m) @ t=0.26
-0.48785803223634794
% V (V) @ t=0.26
0.011479971100580834
% es.normE (V/m) @ t=0.28
2.0102057710727554
% es.EX (V/m) @ t=0.28
-1.9423898073883823
% es.EY (V/m) @ t=0.28
0.14963484391726378
% es.EZ (V/m) @ t=0.28
-0.4950650598293307
% es.tEX (V/m) @ t=0.28
-1.9423898073883752
% es.tEY (V/m) @ t=0.28
0
% es.tEZ (V/m) @ t=0.28
-0.49506505982931515
% es.Ex (V/m) @ t=0.28
-1.9423898073883823
% es.Ey (V/m) @ t=0.28
0.14963484391726378
% es.Ez (V/m) @ t=0.28
-0.4950650598293307
% es.tEx (V/m) @ t=0.28
-1.9423898073883752
% es.tEy (V/m) @ t=0.28
0
% es.tEz (V/m) @ t=0.28
-0.49506505982931515
% V (V) @ t=0.28
0.01164956212107136
% es.normE (V/m) @ t=0.3
2.041113336334365
% es.EX (V/m) @ t=0.3
-1.972254679669482
% es.EY (V/m) @ t=0.3
0.1519355291870631
% es.EZ (V/m) @ t=0.3
-0.5026768474124728
% es.tEX (V/m) @ t=0.3
-1.9722546796694562
% es.tEY (V/m) @ t=0.3
0
% es.tEZ (V/m) @ t=0.3
-0.5026768474124612
% es.Ex (V/m) @ t=0.3
-1.972254679669482
% es.Ey (V/m) @ t=0.3
0.1519355291870631
% es.Ez (V/m) @ t=0.3
-0.5026768474124728
% es.tEx (V/m) @ t=0.3
-1.9722546796694562
% es.tEy (V/m) @ t=0.3
0
% es.tEz (V/m) @ t=0.3
-0.5026768474124612
% V (V) @ t=0.3
0.011828677866122695
% es.normE (V/m) @ t=0.32
2.0720209015959075
% es.EX (V/m) @ t=0.32
-2.0021195519505106
% es.EY (V/m) @ t=0.32
0.15423621445685887
% es.EZ (V/m) @ t=0.32
-0.5102886349956246
% es.tEX (V/m) @ t=0.32
-2.002119551950509
% es.tEY (V/m) @ t=0.32
0
% es.tEZ (V/m) @ t=0.32
-0.5102886349956162
% es.Ex (V/m) @ t=0.32
-2.0021195519505106
% es.Ey (V/m) @ t=0.32
0.15423621445685887
% es.Ez (V/m) @ t=0.32
-0.5102886349956246
% es.tEx (V/m) @ t=0.32
-2.002119551950509
% es.tEy (V/m) @ t=0.32
0
% es.tEz (V/m) @ t=0.32
-0.5102886349956162
% V (V) @ t=0.32
0.01200779361117403
% es.normE (V/m) @ t=0.34
2.102928466857497
% es.EX (V/m) @ t=0.34
-2.031984424231587
% es.EY (V/m) @ t=0.34
0.15653689972667595
% es.EZ (V/m) @ t=0.34
-0.517900422578772
% es.tEX (V/m) @ t=0.34
-2.031984424231574
% es.tEY (V/m) @ t=0.34
0
% es.tEZ (V/m) @ t=0.34
-0.51790042257878
% es.Ex (V/m) @ t=0.34
-2.031984424231587
% es.Ey (V/m) @ t=0.34
0.15653689972667595
% es.Ez (V/m) @ t=0.34
-0.517900422578772
% es.tEx (V/m) @ t=0.34
-2.031984424231574
% es.tEy (V/m) @ t=0.34
0
% es.tEz (V/m) @ t=0.34
-0.51790042257878
% V (V) @ t=0.34
0.012186909356225368
% es.normE (V/m) @ t=0.36
2.1338360321190635
% es.EX (V/m) @ t=0.36
-2.0618492965126443
% es.EY (V/m) @ t=0.36
0.15883758499645395
% es.EZ (V/m) @ t=0.36
-0.5255122101619119
% es.tEX (V/m) @ t=0.36
-2.0618492965126265
% es.tEY (V/m) @ t=0.36
0
% es.tEZ (V/m) @ t=0.36
-0.5255122101619047
% es.Ex (V/m) @ t=0.36
-2.0618492965126443
% es.Ey (V/m) @ t=0.36
0.15883758499645395
% es.Ez (V/m) @ t=0.36
-0.5255122101619119
% es.tEx (V/m) @ t=0.36
-2.0618492965126265
% es.tEy (V/m) @ t=0.36
0
% es.tEz (V/m) @ t=0.36
-0.5255122101619047
% V (V) @ t=0.36
0.012366025101276702
% es.normE (V/m) @ t=0.38
2.1647435973806437
% es.EX (V/m) @ t=0.38
-2.0917141687937084
% es.EY (V/m) @ t=0.38
0.16113827026628613
% es.EZ (V/m) @ t=0.38
-0.5331239977450659
% es.tEX (V/m) @ t=0.38
-2.0917141687937075
% es.tEY (V/m) @ t=0.38
0
% es.tEZ (V/m) @ t=0.38
-0.5331239977450668
% es.Ex (V/m) @ t=0.38
-2.0917141687937084
% es.Ey (V/m) @ t=0.38
0.16113827026628613
% es.Ez (V/m) @ t=0.38
-0.5331239977450659
% es.tEx (V/m) @ t=0.38
-2.0917141687937075
% es.tEy (V/m) @ t=0.38
0
% es.tEz (V/m) @ t=0.38
-0.5331239977450668
% V (V) @ t=0.38
0.012545140846328039
% es.normE (V/m) @ t=0.4
2.1956511626422395
% es.EX (V/m) @ t=0.4
-2.1215790410747895
% es.EY (V/m) @ t=0.4
0.16343895553608356
% es.EZ (V/m) @ t=0.4
-0.5407357853282257
% es.tEX (V/m) @ t=0.4
-2.121579041074778
% es.tEY (V/m) @ t=0.4
0
% es.tEZ (V/m) @ t=0.4
-0.5407357853282324
% es.Ex (V/m) @ t=0.4
-2.1215790410747895
% es.Ey (V/m) @ t=0.4
0.16343895553608356
% es.Ez (V/m) @ t=0.4
-0.5407357853282257
% es.tEx (V/m) @ t=0.4
-2.121579041074778
% es.tEy (V/m) @ t=0.4
0
% es.tEz (V/m) @ t=0.4
-0.5407357853282324
% V (V) @ t=0.4
0.012724256591379372
% es.normE (V/m) @ t=0.42
2.2280101214540533
% es.EX (V/m) @ t=0.42
-2.1528463426664706
% es.EY (V/m) @ t=0.42
0.16584767952248325
% es.EZ (V/m) @ t=0.42
-0.5487050169279506
% es.tEX (V/m) @ t=0.42
-2.1528463426664857
% es.tEY (V/m) @ t=0.42
0
% es.tEZ (V/m) @ t=0.42
-0.5487050169279719
% es.Ex (V/m) @ t=0.42
-2.1528463426664706
% es.Ey (V/m) @ t=0.42
0.16584767952248325
% es.Ez (V/m) @ t=0.42
-0.5487050169279506
% es.tEx (V/m) @ t=0.42
-2.1528463426664857
% es.tEy (V/m) @ t=0.42
0
% es.tEz (V/m) @ t=0.42
-0.5487050169279719
% V (V) @ t=0.42
0.012911783441955028
% es.normE (V/m) @ t=0.44
2.2616438929877356
% es.EX (V/m) @ t=0.44
-2.185345449874476
% es.EY (V/m) @ t=0.44
0.1683512979160171
% es.EZ (V/m) @ t=0.44
-0.5569882048489236
% es.tEX (V/m) @ t=0.44
-2.1853454498744647
% es.tEY (V/m) @ t=0.44
0
% es.tEZ (V/m) @ t=0.44
-0.5569882048489312
% es.Ex (V/m) @ t=0.44
-2.185345449874476
% es.Ey (V/m) @ t=0.44
0.1683512979160171
% es.Ez (V/m) @ t=0.44
-0.5569882048489236
% es.tEx (V/m) @ t=0.44
-2.1853454498744647
% es.tEy (V/m) @ t=0.44
0
% es.tEz (V/m) @ t=0.44
-0.5569882048489312
% V (V) @ t=0.44
0.013106698078100363
% es.normE (V/m) @ t=0.46
2.295277664521353
% es.EX (V/m) @ t=0.46
-2.217844557082418
% es.EY (V/m) @ t=0.46
0.17085491630950944
% es.EZ (V/m) @ t=0.46
-0.5652713927698967
% es.tEX (V/m) @ t=0.46
-2.217844557082433
% es.tEY (V/m) @ t=0.46
0
% es.tEZ (V/m) @ t=0.46
-0.5652713927699011
% es.Ex (V/m) @ t=0.46
-2.217844557082418
% es.Ey (V/m) @ t=0.46
0.17085491630950944
% es.Ez (V/m) @ t=0.46
-0.5652713927698967
% es.tEx (V/m) @ t=0.46
-2.217844557082433
% es.tEy (V/m) @ t=0.46
0
% es.tEz (V/m) @ t=0.46
-0.5652713927699011
% V (V) @ t=0.46
0.013301612714245696
% es.normE (V/m) @ t=0.48
2.3289114360550123
% es.EX (V/m) @ t=0.48
-2.250343664290395
% es.EY (V/m) @ t=0.48
0.17335853470304963
% es.EZ (V/m) @ t=0.48
-0.5735545806908893
% es.tEX (V/m) @ t=0.48
-2.250343664290412
% es.tEY (V/m) @ t=0.48
0
% es.tEZ (V/m) @ t=0.48
-0.5735545806908746
% es.Ex (V/m) @ t=0.48
-2.250343664290395
% es.Ey (V/m) @ t=0.48
0.17335853470304963
% es.Ez (V/m) @ t=0.48
-0.5735545806908893
% es.tEx (V/m) @ t=0.48
-2.250343664290412
% es.tEy (V/m) @ t=0.48
0
% es.tEz (V/m) @ t=0.48
-0.5735545806908746
% V (V) @ t=0.48
0.013496527350391035
% es.normE (V/m) @ t=0.5
2.3625452075886813
% es.EX (V/m) @ t=0.5
-2.2828427714983937
% es.EY (V/m) @ t=0.5
0.17586215309654007
% es.EZ (V/m) @ t=0.5
-0.5818377686118481
% es.tEX (V/m) @ t=0.5
-2.2828427714983803
% es.tEY (V/m) @ t=0.5
0
% es.tEZ (V/m) @ t=0.5
-0.5818377686118339
% es.Ex (V/m) @ t=0.5
-2.2828427714983937
% es.Ey (V/m) @ t=0.5
0.17586215309654007
% es.Ez (V/m) @ t=0.5
-0.5818377686118481
% es.tEx (V/m) @ t=0.5
-2.2828427714983803
% es.tEy (V/m) @ t=0.5
0
% es.tEz (V/m) @ t=0.5
-0.5818377686118339
% V (V) @ t=0.5
0.013691441986536369
% es.normE (V/m) @ t=0.52
2.396178979122329
% es.EX (V/m) @ t=0.52
-2.3153418787063664
% es.EY (V/m) @ t=0.52
0.17836577149005362
% es.EZ (V/m) @ t=0.52
-0.5901209565328163
% es.tEX (V/m) @ t=0.52
-2.3153418787063593
% es.tEY (V/m) @ t=0.52
0
% es.tEZ (V/m) @ t=0.52
-0.5901209565328074
% es.Ex (V/m) @ t=0.52
-2.3153418787063664
% es.Ey (V/m) @ t=0.52
0.17836577149005362
% es.Ez (V/m) @ t=0.52
-0.5901209565328163
% es.tEx (V/m) @ t=0.52
-2.3153418787063593
% es.tEy (V/m) @ t=0.52
0
% es.tEz (V/m) @ t=0.52
-0.5901209565328074
% V (V) @ t=0.52
0.013886356622681707
% es.normE (V/m) @ t=0.54
2.4298127506559823
% es.EX (V/m) @ t=0.54
-2.3478409859143436
% es.EY (V/m) @ t=0.54
0.18086938988355816
% es.EZ (V/m) @ t=0.54
-0.5984041444537929
% es.tEX (V/m) @ t=0.54
-2.3478409859143525
% es.tEY (V/m) @ t=0.54
0
% es.tEZ (V/m) @ t=0.54
-0.5984041444538022
% es.Ex (V/m) @ t=0.54
-2.3478409859143436
% es.Ey (V/m) @ t=0.54
0.18086938988355816
% es.Ez (V/m) @ t=0.54
-0.5984041444537929
% es.tEx (V/m) @ t=0.54
-2.3478409859143525
% es.tEy (V/m) @ t=0.54
0
% es.tEz (V/m) @ t=0.54
-0.5984041444538022
% V (V) @ t=0.54
0.014081271258827044
% es.normE (V/m) @ t=0.56
2.464354092038851
% es.EX (V/m) @ t=0.56
-2.3812170488453166
% es.EY (V/m) @ t=0.56
0.18344055893560318
% es.EZ (V/m) @ t=0.56
-0.6069108334421429
% es.tEX (V/m) @ t=0.56
-2.3812170488453077
% es.tEY (V/m) @ t=0.56
0
% es.tEZ (V/m) @ t=0.56
-0.6069108334421287
% es.Ex (V/m) @ t=0.56
-2.3812170488453166
% es.Ey (V/m) @ t=0.56
0.18344055893560318
% es.Ez (V/m) @ t=0.56
-0.6069108334421429
% es.tEx (V/m) @ t=0.56
-2.3812170488453077
% es.tEy (V/m) @ t=0.56
0
% es.tEz (V/m) @ t=0.56
-0.6069108334421287
% V (V) @ t=0.56
0.014281445749014373
% es.normE (V/m) @ t=0.58
2.499549871655592
% es.EX (V/m) @ t=0.58
-2.415225474514033
% es.EY (V/m) @ t=0.58
0.1860604379945422
% es.EZ (V/m) @ t=0.58
-0.6155786864928912
% es.tEX (V/m) @ t=0.58
-2.415225474514049
% es.tEY (V/m) @ t=0.58
0
% es.tEZ (V/m) @ t=0.58
-0.6155786864928885
% es.Ex (V/m) @ t=0.58
-2.415225474514033
% es.Ey (V/m) @ t=0.58
0.1860604379945422
% es.Ez (V/m) @ t=0.58
-0.6155786864928912
% es.tEx (V/m) @ t=0.58
-2.415225474514049
% es.tEy (V/m) @ t=0.58
0
% es.tEz (V/m) @ t=0.58
-0.6155786864928885
% V (V) @ t=0.58
0.014485413059767888
% es.normE (V/m) @ t=0.6
2.535083544819482
% es.EX (V/m) @ t=0.6
-2.4495603959121866
% es.EY (V/m) @ t=0.6
0.18870546655756593
% es.EZ (V/m) @ t=0.6
-0.6243297502943195
% es.tEX (V/m) @ t=0.6
-2.44956039591219
% es.tEY (V/m) @ t=0.6
0
% es.tEZ (V/m) @ t=0.6
-0.6243297502943079
% es.Ex (V/m) @ t=0.6
-2.4495603959121866
% es.Ey (V/m) @ t=0.6
0.18870546655756593
% es.Ez (V/m) @ t=0.6
-0.6243297502943195
% es.tEx (V/m) @ t=0.6
-2.44956039591219
% es.tEy (V/m) @ t=0.6
0
% es.tEz (V/m) @ t=0.6
-0.6243297502943079
% V (V) @ t=0.6
0.014691338644852944
% es.normE (V/m) @ t=0.62
2.570955111530577
% es.EX (V/m) @ t=0.62
-2.4842218130398326
% es.EY (V/m) @ t=0.62
0.19137564462465828
% es.EZ (V/m) @ t=0.62
-0.6331640248464376
% es.tEX (V/m) @ t=0.62
-2.4842218130398273
% es.tEY (V/m) @ t=0.62
0
% es.tEZ (V/m) @ t=0.62
-0.6331640248464403
% es.Ex (V/m) @ t=0.62
-2.4842218130398326
% es.Ey (V/m) @ t=0.62
0.19137564462465828
% es.Ez (V/m) @ t=0.62
-0.6331640248464376
% es.tEx (V/m) @ t=0.62
-2.4842218130398273
% es.tEy (V/m) @ t=0.62
0
% es.tEz (V/m) @ t=0.62
-0.6331640248464403
% V (V) @ t=0.62
0.014899222504269546
% es.normE (V/m) @ t=0.64
2.607164571788865
% es.EX (V/m) @ t=0.64
-2.5192097258969675
% es.EY (V/m) @ t=0.64
0.19407097219579617
% es.EZ (V/m) @ t=0.64
-0.6420815101492279
% es.tEX (V/m) @ t=0.64
-2.519209725896964
% es.tEY (V/m) @ t=0.64
0
% es.tEZ (V/m) @ t=0.64
-0.6420815101492323
% es.Ex (V/m) @ t=0.64
-2.5192097258969675
% es.Ey (V/m) @ t=0.64
0.19407097219579617
% es.Ez (V/m) @ t=0.64
-0.6420815101492279
% es.tEx (V/m) @ t=0.64
-2.519209725896964
% es.tEy (V/m) @ t=0.64
0
% es.tEz (V/m) @ t=0.64
-0.6420815101492323
% V (V) @ t=0.64
0.015109064638017691
% es.normE (V/m) @ t=0.66
2.643711925594279
% es.EX (V/m) @ t=0.66
-2.554524134483506
% es.EY (V/m) @ t=0.66
0.19679144927099013
% es.EZ (V/m) @ t=0.66
-0.6510822062027395
% es.tEX (V/m) @ t=0.66
-2.554524134483515
% es.tEY (V/m) @ t=0.66
0
% es.tEZ (V/m) @ t=0.66
-0.6510822062027337
% es.Ex (V/m) @ t=0.66
-2.554524134483506
% es.Ey (V/m) @ t=0.66
0.19679144927099013
% es.Ez (V/m) @ t=0.66
-0.6510822062027395
% es.tEx (V/m) @ t=0.66
-2.554524134483515
% es.tEy (V/m) @ t=0.66
0
% es.tEz (V/m) @ t=0.66
-0.6510822062027337
% V (V) @ t=0.66
0.015320865046097379
% es.normE (V/m) @ t=0.68
2.680597172946872
% es.EX (V/m) @ t=0.68
-2.590165038799519
% es.EY (V/m) @ t=0.68
0.1995370758503009
% es.EZ (V/m) @ t=0.68
-0.6601661130068917
% es.tEX (V/m) @ t=0.68
-2.5901650387995296
% es.tEY (V/m) @ t=0.68
0
% es.tEZ (V/m) @ t=0.68
-0.6601661130068877
% es.Ex (V/m) @ t=0.68
-2.590165038799519
% es.Ey (V/m) @ t=0.68
0.1995370758503009
% es.Ez (V/m) @ t=0.68
-0.6601661130068917
% es.tEx (V/m) @ t=0.68
-2.5901650387995296
% es.tEy (V/m) @ t=0.68
0
% es.tEz (V/m) @ t=0.68
-0.6601661130068877
% V (V) @ t=0.68
0.015534623728508608
% es.normE (V/m) @ t=0.7
2.7178203138466714
% es.EX (V/m) @ t=0.7
-2.6261324388450245
% es.EY (V/m) @ t=0.7
0.20230785193364986
% es.EZ (V/m) @ t=0.7
-0.669333230561751
% es.tEX (V/m) @ t=0.7
-2.6261324388450333
% es.tEY (V/m) @ t=0.7
0
% es.tEZ (V/m) @ t=0.7
-0.669333230561751
% es.Ex (V/m) @ t=0.7
-2.6261324388450245
% es.Ey (V/m) @ t=0.7
0.20230785193364986
% es.Ez (V/m) @ t=0.7
-0.669333230561751
% es.tEx (V/m) @ t=0.7
-2.6261324388450333
% es.tEy (V/m) @ t=0.7
0
% es.tEz (V/m) @ t=0.7
-0.669333230561751
% V (V) @ t=0.7
0.01575034068525138
% es.normE (V/m) @ t=0.72
2.755381348293615
% es.EX (V/m) @ t=0.72
-2.662426334619955
% es.EY (V/m) @ t=0.72
0.20510377752109055
% es.EZ (V/m) @ t=0.72
-0.678583558867309
% es.tEX (V/m) @ t=0.72
-2.6624263346199655
% es.tEY (V/m) @ t=0.72
0
% es.tEZ (V/m) @ t=0.72
-0.6785835588672988
% es.Ex (V/m) @ t=0.72
-2.662426334619955
% es.Ey (V/m) @ t=0.72
0.20510377752109055
% es.Ez (V/m) @ t=0.72
-0.678583558867309
% es.tEx (V/m) @ t=0.72
-2.6624263346199655
% es.tEy (V/m) @ t=0.72
0
% es.tEz (V/m) @ t=0.72
-0.6785835588672988
% V (V) @ t=0.72
0.015968015916325698
% es.normE (V/m) @ t=0.74
2.79328027628778
% es.EX (V/m) @ t=0.74
-2.6990467261243953
% es.EY (V/m) @ t=0.74
0.2079248526125821
% es.EZ (V/m) @ t=0.74
-0.6879170979235592
% es.tEX (V/m) @ t=0.74
-2.6990467261244007
% es.tEY (V/m) @ t=0.74
0
% es.tEZ (V/m) @ t=0.74
-0.6879170979235631
% es.Ex (V/m) @ t=0.74
-2.6990467261243953
% es.Ey (V/m) @ t=0.74
0.2079248526125821
% es.Ez (V/m) @ t=0.74
-0.6879170979235592
% es.tEx (V/m) @ t=0.74
-2.6990467261244007
% es.tEy (V/m) @ t=0.74
0
% es.tEz (V/m) @ t=0.74
-0.6879170979235631
% V (V) @ t=0.74
0.016187649421731558
% es.normE (V/m) @ t=0.76
2.831517097829064
% es.EX (V/m) @ t=0.76
-2.735993613358243
% es.EY (V/m) @ t=0.76
0.21077107720817445
% es.EZ (V/m) @ t=0.76
-0.6973338477304716
% es.tEX (V/m) @ t=0.76
-2.735993613358257
% es.tEY (V/m) @ t=0.76
0
% es.tEZ (V/m) @ t=0.76
-0.6973338477304658
% es.Ex (V/m) @ t=0.76
-2.735993613358243
% es.Ey (V/m) @ t=0.76
0.21077107720817445
% es.Ez (V/m) @ t=0.76
-0.6973338477304716
% es.tEx (V/m) @ t=0.76
-2.735993613358257
% es.tEy (V/m) @ t=0.76
0
% es.tEz (V/m) @ t=0.76
-0.6973338477304658
% V (V) @ t=0.76
0.016409241201468954
% es.normE (V/m) @ t=0.78
2.8700918129175568
% es.EX (V/m) @ t=0.78
-2.7732669963215866
% es.EY (V/m) @ t=0.78
0.21364245130778714
% es.EZ (V/m) @ t=0.78
-0.7068338082880863
% es.tEX (V/m) @ t=0.78
-2.773266996321606
% es.tEY (V/m) @ t=0.78
0
% es.tEZ (V/m) @ t=0.78
-0.7068338082880743
% es.Ex (V/m) @ t=0.78
-2.7732669963215866
% es.Ey (V/m) @ t=0.78
0.21364245130778714
% es.Ez (V/m) @ t=0.78
-0.7068338082880863
% es.tEx (V/m) @ t=0.78
-2.773266996321606
% es.tEy (V/m) @ t=0.78
0
% es.tEz (V/m) @ t=0.78
-0.7068338082880743
% V (V) @ t=0.78
0.016632791255537897
% es.normE (V/m) @ t=0.8
2.9090044215532362
% es.EX (V/m) @ t=0.8
-2.810866875014403
% es.EY (V/m) @ t=0.8
0.21653897491151852
% es.EZ (V/m) @ t=0.8
-0.7164169795963735
% es.tEX (V/m) @ t=0.8
-2.810866875014405
% es.tEY (V/m) @ t=0.8
0
% es.tEZ (V/m) @ t=0.8
-0.7164169795963709
% es.Ex (V/m) @ t=0.8
-2.810866875014403
% es.Ey (V/m) @ t=0.8
0.21653897491151852
% es.Ez (V/m) @ t=0.8
-0.7164169795963735
% es.tEx (V/m) @ t=0.8
-2.810866875014405
% es.tEy (V/m) @ t=0.8
0
% es.tEz (V/m) @ t=0.8
-0.7164169795963709
% V (V) @ t=0.8
0.01685829958393839
% es.normE (V/m) @ t=0.82
2.9483039796319037
% es.EX (V/m) @ t=0.82
-2.848840643686966
% es.EY (V/m) @ t=0.82
0.2194643122960418
% es.EZ (V/m) @ t=0.82
-0.7260954648708764
% es.tEX (V/m) @ t=0.82
-2.848840643686966
% es.tEY (V/m) @ t=0.82
0
% es.tEZ (V/m) @ t=0.82
-0.7260954648708839
% es.Ex (V/m) @ t=0.82
-2.848840643686966
% es.Ey (V/m) @ t=0.82
0.2194643122960418
% es.Ez (V/m) @ t=0.82
-0.7260954648708764
% es.tEx (V/m) @ t=0.82
-2.848840643686966
% es.tEy (V/m) @ t=0.82
0
% es.tEz (V/m) @ t=0.82
-0.7260954648708839
% V (V) @ t=0.82
0.017086049909445542
% es.normE (V/m) @ t=0.84
2.9885999745794507
% es.EX (V/m) @ t=0.84
-2.8877771449060408
% es.EY (V/m) @ t=0.84
0.2224639897042643
% es.EZ (V/m) @ t=0.84
-0.7360196386497257
% es.tEX (V/m) @ t=0.84
-2.8877771449060035
% es.tEY (V/m) @ t=0.84
0
% es.tEZ (V/m) @ t=0.84
-0.7360196386497222
% es.Ex (V/m) @ t=0.84
-2.8877771449060408
% es.Ey (V/m) @ t=0.84
0.2224639897042643
% es.Ez (V/m) @ t=0.84
-0.7360196386497257
% es.tEx (V/m) @ t=0.84
-2.8877771449060035
% es.tEy (V/m) @ t=0.84
0
% es.tEz (V/m) @ t=0.84
-0.7360196386497222
% V (V) @ t=0.84
0.017319567302004624
% es.normE (V/m) @ t=0.86
3.0293295625842003
% es.EX (V/m) @ t=0.86
-2.9271325997834907
% es.EY (V/m) @ t=0.86
0.22549596498248903
% es.EZ (V/m) @ t=0.86
-0.7460506344450564
% es.tEX (V/m) @ t=0.86
-2.927132599783487
% es.tEY (V/m) @ t=0.86
0
% es.tEZ (V/m) @ t=0.86
-0.7460506344450515
% es.Ex (V/m) @ t=0.86
-2.9271325997834907
% es.Ey (V/m) @ t=0.86
0.22549596498248903
% es.Ez (V/m) @ t=0.86
-0.7460506344450564
% es.tEx (V/m) @ t=0.86
-2.927132599783487
% es.tEy (V/m) @ t=0.86
0
% es.tEz (V/m) @ t=0.86
-0.7460506344450515
% V (V) @ t=0.86
0.01755559646262147
% es.normE (V/m) @ t=0.88
3.0704927436462155
% es.EX (V/m) @ t=0.88
-2.9669070083193674
% es.EY (V/m) @ t=0.88
0.22856023813069148
% es.EZ (V/m) @ t=0.88
-0.7561884522568638
% es.tEX (V/m) @ t=0.88
-2.9669070083193247
% es.tEY (V/m) @ t=0.88
0
% es.tEZ (V/m) @ t=0.88
-0.7561884522568576
% es.Ex (V/m) @ t=0.88
-2.9669070083193674
% es.Ey (V/m) @ t=0.88
0.22856023813069148
% es.Ez (V/m) @ t=0.88
-0.7561884522568638
% es.tEx (V/m) @ t=0.88
-2.9669070083193247
% es.tEy (V/m) @ t=0.88
0
% es.tEz (V/m) @ t=0.88
-0.7561884522568576
% V (V) @ t=0.88
0.017794137391296063
% es.normE (V/m) @ t=0.9
3.112089517765466
% es.EX (V/m) @ t=0.9
-3.007100370513614
% es.EY (V/m) @ t=0.9
0.23165680914881293
% es.EZ (V/m) @ t=0.9
-0.7664330920851965
% es.tEX (V/m) @ t=0.9
-3.0071003705136263
% es.tEY (V/m) @ t=0.9
0
% es.tEZ (V/m) @ t=0.9
-0.7664330920851938
% es.Ex (V/m) @ t=0.9
-3.007100370513614
% es.Ey (V/m) @ t=0.9
0.23165680914881293
% es.Ez (V/m) @ t=0.9
-0.7664330920851965
% es.tEx (V/m) @ t=0.9
-3.0071003705136263
% es.tEy (V/m) @ t=0.9
0
% es.tEz (V/m) @ t=0.9
-0.7664330920851938
% V (V) @ t=0.9
0.01803519008802842
% es.normE (V/m) @ t=0.92
3.1541198849420016
% es.EX (V/m) @ t=0.92
-3.047712686366264
% es.EY (V/m) @ t=0.92
0.23478567803696537
% es.EZ (V/m) @ t=0.92
-0.7767845539300042
% es.tEX (V/m) @ t=0.92
-3.047712686366282
% es.tEY (V/m) @ t=0.92
0
% es.tEZ (V/m) @ t=0.92
-0.7767845539300033
% es.Ex (V/m) @ t=0.92
-3.047712686366264
% es.Ey (V/m) @ t=0.92
0.23478567803696537
% es.Ez (V/m) @ t=0.92
-0.7767845539300042
% es.tEx (V/m) @ t=0.92
-3.047712686366282
% es.tEy (V/m) @ t=0.92
0
% es.tEz (V/m) @ t=0.92
-0.7767845539300033
% V (V) @ t=0.92
0.018278754552818535
% es.normE (V/m) @ t=0.94
3.1965838451757564
% es.EX (V/m) @ t=0.94
-3.0887439558772467
% es.EY (V/m) @ t=0.94
0.23794684479500294
% es.EZ (V/m) @ t=0.94
-0.7872428377912666
% es.tEX (V/m) @ t=0.94
-3.088743955877238
% es.tEY (V/m) @ t=0.94
0
% es.tEZ (V/m) @ t=0.94
-0.7872428377912755
% es.Ex (V/m) @ t=0.94
-3.0887439558772467
% es.Ey (V/m) @ t=0.94
0.23794684479500294
% es.Ez (V/m) @ t=0.94
-0.7872428377912666
% es.tEx (V/m) @ t=0.94
-3.088743955877238
% es.tEy (V/m) @ t=0.94
0
% es.tEz (V/m) @ t=0.94
-0.7872428377912755
% V (V) @ t=0.94
0.018524830785666403
% es.normE (V/m) @ t=0.96
3.2394813984668893
% es.EX (V/m) @ t=0.96
-3.130194179046672
% es.EY (V/m) @ t=0.96
0.24114030942308395
% es.EZ (V/m) @ t=0.96
-0.7978079436690484
% es.tEX (V/m) @ t=0.96
-3.130194179046665
% es.tEY (V/m) @ t=0.96
0
% es.tEZ (V/m) @ t=0.96
-0.7978079436690528
% es.Ex (V/m) @ t=0.96
-3.130194179046672
% es.Ey (V/m) @ t=0.96
0.24114030942308395
% es.Ez (V/m) @ t=0.96
-0.7978079436690484
% es.tEx (V/m) @ t=0.96
-3.130194179046665
% es.tEy (V/m) @ t=0.96
0
% es.tEz (V/m) @ t=0.96
-0.7978079436690528
% V (V) @ t=0.96
0.018773418786572026
% es.normE (V/m) @ t=0.98
3.2828125448153536
% es.EX (V/m) @ t=0.98
-3.172063355874487
% es.EY (V/m) @ t=0.98
0.24436607192111182
% es.EZ (V/m) @ t=0.98
-0.8084798715633159
% es.tEX (V/m) @ t=0.98
-3.1720633558745313
% es.tEY (V/m) @ t=0.98
0
% es.tEZ (V/m) @ t=0.98
-0.8084798715633141
% es.Ex (V/m) @ t=0.98
-3.172063355874487
% es.Ey (V/m) @ t=0.98
0.24436607192111182
% es.Ez (V/m) @ t=0.98
-0.8084798715633159
% es.tEx (V/m) @ t=0.98
-3.1720633558745313
% es.tEy (V/m) @ t=0.98
0
% es.tEz (V/m) @ t=0.98
-0.8084798715633141
% V (V) @ t=0.98
0.01902451855553541
% es.normE (V/m) @ t=1
3.3265772842212002
% es.EX (V/m) @ t=1
-3.2143514863607248
% es.EY (V/m) @ t=1
0.24762413228908597
% es.EZ (V/m) @ t=1
-0.8192586214740469
% es.tEX (V/m) @ t=1
-3.214351486360691
% es.tEY (V/m) @ t=1
0
% es.tEZ (V/m) @ t=1
-0.8192586214740452
% es.Ex (V/m) @ t=1
-3.2143514863607248
% es.Ey (V/m) @ t=1
0.24762413228908597
% es.Ez (V/m) @ t=1
-0.8192586214740469
% es.tEx (V/m) @ t=1
-3.214351486360691
% es.tEy (V/m) @ t=1
0
% es.tEz (V/m) @ t=1
-0.8192586214740452
% V (V) @ t=1
0.019278130092556554
% es.normE (V/m) @ t=1.02
3.3707756166844103
% es.EX (V/m) @ t=1.02
-3.257058570505327
% es.EY (V/m) @ t=1.02
0.2509144905270251
% es.EZ (V/m) @ t=1.02
-0.8301441934012814
% es.tEX (V/m) @ t=1.02
-3.257058570505297
% es.tEY (V/m) @ t=1.02
0
% es.tEZ (V/m) @ t=1.02
-0.8301441934012708
% es.Ex (V/m) @ t=1.02
-3.257058570505327
% es.Ey (V/m) @ t=1.02
0.2509144905270251
% es.Ez (V/m) @ t=1.02
-0.8301441934012814
% es.tEx (V/m) @ t=1.02
-3.257058570505297
% es.tEy (V/m) @ t=1.02
0
% es.tEz (V/m) @ t=1.02
-0.8301441934012708
% V (V) @ t=1.02
0.019534253397635447