% Model:              1 neuron.mph
% Version:            COMSOL 6.0.0.405
% Date:               Mar 16 2023, 19:43
% Dimension:          0
% Nodes:              14017
% Expressions:        14017
% Description:        Electric field norm, Electric field, X component, Electric field, Y component, Electric field, Z component, Tangential electric field, X component, Tangential electric field, Y component, Tangential electric field, Z component, Electric field, x component, Electric field, y component, Electric field, z component, Tangential electric field, x component, Tangential electric field, y component, Tangential electric field, z component, Electric potential
% Length unit:        mm
% x
1.66
% y
12.200000000000001
% z
1.66
% es.normE (V/m) @ t=0
31.58996021041252
% es.EX (V/m) @ t=0
-14.918599840036784
% es.EY (V/m) @ t=0
11.96933337734189
% es.EZ (V/m) @ t=0
14.348292677465231
% es.tEX (V/m) @ t=0
-14.918599840036777
% es.tEY (V/m) @ t=0
0
% es.tEZ (V/m) @ t=0
14.348292677465253
% es.Ex (V/m) @ t=0
-14.918599840036784
% es.Ey (V/m) @ t=0
11.96933337734189
% es.Ez (V/m) @ t=0
14.348292677465231
% es.tEx (V/m) @ t=0
-14.918599840036777
% es.tEy (V/m) @ t=0
0
% es.tEz (V/m) @ t=0
14.348292677465253
% V (V) @ t=0
0.009914372839718282
% es.normE (V/m) @ t=0.02
27.436125091028885
% es.EX (V/m) @ t=0.02
-12.956919882258987
% es.EY (V/m) @ t=0.02
10.395459012414861
% es.EZ (V/m) @ t=0.02
12.461602594933122
% es.tEX (V/m) @ t=0.02
-12.956919882258987
% es.tEY (V/m) @ t=0.02
0
% es.tEZ (V/m) @ t=0.02
12.461602594933112
% es.Ex (V/m) @ t=0.02
-12.956919882258987
% es.Ey (V/m) @ t=0.02
10.395459012414861
% es.Ez (V/m) @ t=0.02
12.461602594933122
% es.tEx (V/m) @ t=0.02
-12.956919882258987
% es.tEy (V/m) @ t=0.02
0
% es.tEz (V/m) @ t=0.02
12.461602594933112
% V (V) @ t=0.02
0.008610709591786045
% es.normE (V/m) @ t=0.04
27.842942649089807
% es.EX (V/m) @ t=0.04
-13.149042908103418
% es.EY (V/m) @ t=0.04
10.549601101968165
% es.EZ (V/m) @ t=0.04
12.646380227036243
% es.tEX (V/m) @ t=0.04
-13.149042908103404
% es.tEY (V/m) @ t=0.04
0
% es.tEZ (V/m) @ t=0.04
12.646380227036218
% es.Ex (V/m) @ t=0.04
-13.149042908103418
% es.Ey (V/m) @ t=0.04
10.549601101968165
% es.Ez (V/m) @ t=0.04
12.646380227036243
% es.tEx (V/m) @ t=0.04
-13.149042908103404
% es.tEy (V/m) @ t=0.04
0
% es.tEz (V/m) @ t=0.04
12.646380227036218
% V (V) @ t=0.04
0.008738387527617651
% es.normE (V/m) @ t=0.06
28.25591374011838
% es.EX (V/m) @ t=0.06
-13.344071082371642
% es.EY (V/m) @ t=0.06
10.706074091747762
% es.EZ (V/m) @ t=0.06
12.833954504558733
% es.tEX (V/m) @ t=0.06
-13.344071082371627
% es.tEY (V/m) @ t=0.06
0
% es.tEZ (V/m) @ t=0.06
12.833954504558761
% es.Ex (V/m) @ t=0.06
-13.344071082371642
% es.Ey (V/m) @ t=0.06
10.706074091747762
% es.Ez (V/m) @ t=0.06
12.833954504558733
% es.tEx (V/m) @ t=0.06
-13.344071082371627
% es.tEy (V/m) @ t=0.06
0
% es.tEz (V/m) @ t=0.06
12.833954504558761
% V (V) @ t=0.06
0.00886799672636818
% es.normE (V/m) @ t=0.08
28.679348670298175
% es.EX (V/m) @ t=0.08
-13.544039987757458
% es.EY (V/m) @ t=0.08
10.866511146413327
% es.EZ (V/m) @ t=0.08
13.026283173955182
% es.tEX (V/m) @ t=0.08
-13.544039987757436
% es.tEY (V/m) @ t=0.08
0
% es.tEZ (V/m) @ t=0.08
13.026283173955193
% es.Ex (V/m) @ t=0.08
-13.544039987757458
% es.Ey (V/m) @ t=0.08
10.866511146413327
% es.Ez (V/m) @ t=0.08
13.026283173955182
% es.tEx (V/m) @ t=0.08
-13.544039987757436
% es.tEy (V/m) @ t=0.08
0
% es.tEz (V/m) @ t=0.08
13.026283173955193
% V (V) @ t=0.08
0.009000889959515833
% es.normE (V/m) @ t=0.1
29.110262235019512
% es.EX (V/m) @ t=0.1
-13.74754009444137
% es.EY (V/m) @ t=0.1
11.029781367008805
% es.EZ (V/m) @ t=0.1
13.222009865700382
% es.tEX (V/m) @ t=0.1
-13.747540094441362
% es.tEY (V/m) @ t=0.1
0
% es.tEZ (V/m) @ t=0.1
13.222009865700414
% es.Ex (V/m) @ t=0.1
-13.74754009444137
% es.Ey (V/m) @ t=0.1
11.029781367008805
% es.Ez (V/m) @ t=0.1
13.222009865700382
% es.tEx (V/m) @ t=0.1
-13.747540094441362
% es.tEy (V/m) @ t=0.1
0
% es.tEz (V/m) @ t=0.1
13.222009865700414
% V (V) @ t=0.1
0.009136130332438975
% es.normE (V/m) @ t=0.12
29.541175799741534
% es.EX (V/m) @ t=0.12
-13.951040201125274
% es.EY (V/m) @ t=0.12
11.193051587604348
% es.EZ (V/m) @ t=0.12
13.417736557445526
% es.tEX (V/m) @ t=0.12
-13.951040201125231
% es.tEY (V/m) @ t=0.12
0
% es.tEZ (V/m) @ t=0.12
13.417736557445522
% es.Ex (V/m) @ t=0.12
-13.951040201125274
% es.Ey (V/m) @ t=0.12
11.193051587604348
% es.Ez (V/m) @ t=0.12
13.417736557445526
% es.tEx (V/m) @ t=0.12
-13.951040201125231
% es.tEy (V/m) @ t=0.12
0
% es.tEz (V/m) @ t=0.12
13.417736557445522
% V (V) @ t=0.12
0.009271370705362115
% es.normE (V/m) @ t=0.14
29.978930571676862
% es.EX (V/m) @ t=0.14
-14.157771560254645
% es.EY (V/m) @ t=0.14
11.358914238002768
% es.EZ (V/m) @ t=0.14
13.616569733752506
% es.tEX (V/m) @ t=0.14
-14.157771560254616
% es.tEY (V/m) @ t=0.14
0
% es.tEZ (V/m) @ t=0.14
13.616569733752499
% es.Ex (V/m) @ t=0.14
-14.157771560254645
% es.Ey (V/m) @ t=0.14
11.358914238002768
% es.Ez (V/m) @ t=0.14
13.616569733752506
% es.tEx (V/m) @ t=0.14
-14.157771560254616
% es.tEy (V/m) @ t=0.14
0
% es.tEz (V/m) @ t=0.14
13.616569733752499
% V (V) @ t=0.14
0.009408758159993088
% es.normE (V/m) @ t=0.16
30.448635864066496
% es.EX (V/m) @ t=0.16
-14.379593852042824
% es.EY (V/m) @ t=0.16
11.536884324833217
% es.EZ (V/m) @ t=0.16
13.829911138716437
% es.tEX (V/m) @ t=0.16
-14.379593852042852
% es.tEY (V/m) @ t=0.16
0
% es.tEZ (V/m) @ t=0.16
13.829911138716426
% es.Ex (V/m) @ t=0.16
-14.379593852042824
% es.Ey (V/m) @ t=0.16
11.536884324833217
% es.Ez (V/m) @ t=0.16
13.829911138716437
% es.tEx (V/m) @ t=0.16
-14.379593852042852
% es.tEy (V/m) @ t=0.16
0
% es.tEz (V/m) @ t=0.16
13.829911138716426
% V (V) @ t=0.16
0.00955617313986794
% es.normE (V/m) @ t=0.18
30.918341156456265
% es.EX (V/m) @ t=0.18
-14.601416143831102
% es.EY (V/m) @ t=0.18
11.714854411663595
% es.EZ (V/m) @ t=0.18
14.043252543680342
% es.tEX (V/m) @ t=0.18
-14.601416143831088
% es.tEY (V/m) @ t=0.18
0
% es.tEZ (V/m) @ t=0.18
14.043252543680353
% es.Ex (V/m) @ t=0.18
-14.601416143831102
% es.Ey (V/m) @ t=0.18
11.714854411663595
% es.Ez (V/m) @ t=0.18
14.043252543680342
% es.tEx (V/m) @ t=0.18
-14.601416143831088
% es.tEy (V/m) @ t=0.18
0
% es.tEz (V/m) @ t=0.18
14.043252543680353
% V (V) @ t=0.18
0.009703588119742795
% es.normE (V/m) @ t=0.2
31.388046448845948
% es.EX (V/m) @ t=0.2
-14.823238435619345
% es.EY (V/m) @ t=0.2
11.892824498493994
% es.EZ (V/m) @ t=0.2
14.256593948644234
% es.tEX (V/m) @ t=0.2
-14.823238435619317
% es.tEY (V/m) @ t=0.2
0
% es.tEZ (V/m) @ t=0.2
14.256593948644252
% es.Ex (V/m) @ t=0.2
-14.823238435619345
% es.Ey (V/m) @ t=0.2
11.892824498493994
% es.Ez (V/m) @ t=0.2
14.256593948644234
% es.tEx (V/m) @ t=0.2
-14.823238435619317
% es.tEy (V/m) @ t=0.2
0
% es.tEz (V/m) @ t=0.2
14.256593948644252
% V (V) @ t=0.2
0.009851003099617648
% es.normE (V/m) @ t=0.22
31.857751741235845
% es.EX (V/m) @ t=0.22
-15.045060727407659
% es.EY (V/m) @ t=0.22
12.070794585324457
% es.EZ (V/m) @ t=0.22
14.469935353608214
% es.tEX (V/m) @ t=0.22
-15.045060727407645
% es.tEY (V/m) @ t=0.22
0
% es.tEZ (V/m) @ t=0.22
14.469935353608179
% es.Ex (V/m) @ t=0.22
-15.045060727407659
% es.Ey (V/m) @ t=0.22
12.070794585324457
% es.Ez (V/m) @ t=0.22
14.469935353608214
% es.tEx (V/m) @ t=0.22
-15.045060727407645
% es.tEy (V/m) @ t=0.22
0
% es.tEz (V/m) @ t=0.22
14.469935353608179
% V (V) @ t=0.22
0.0099984180794925
% es.normE (V/m) @ t=0.24
32.327457033625635
% es.EX (V/m) @ t=0.24
-15.266883019195866
% es.EY (V/m) @ t=0.24
12.248764672154834
% es.EZ (V/m) @ t=0.24
14.68327675857211
% es.tEX (V/m) @ t=0.24
-15.266883019195838
% es.tEY (V/m) @ t=0.24
0
% es.tEZ (V/m) @ t=0.24
14.683276758572106
% es.Ex (V/m) @ t=0.24
-15.266883019195866
% es.Ey (V/m) @ t=0.24
12.248764672154834
% es.Ez (V/m) @ t=0.24
14.68327675857211
% es.tEx (V/m) @ t=0.24
-15.266883019195838
% es.tEy (V/m) @ t=0.24
0
% es.tEz (V/m) @ t=0.24
14.683276758572106
% V (V) @ t=0.24
0.010145833059367353
% es.normE (V/m) @ t=0.26
32.797162326015496
% es.EX (V/m) @ t=0.26
-15.48870531098413
% es.EY (V/m) @ t=0.26
12.426734758985283
% es.EZ (V/m) @ t=0.26
14.896618163536033
% es.tEX (V/m) @ t=0.26
-15.488705310984145
% es.tEY (V/m) @ t=0.26
0
% es.tEZ (V/m) @ t=0.26
14.896618163536004
% es.Ex (V/m) @ t=0.26
-15.48870531098413
% es.Ey (V/m) @ t=0.26
12.426734758985283
% es.Ez (V/m) @ t=0.26
14.896618163536033
% es.tEx (V/m) @ t=0.26
-15.488705310984145
% es.tEy (V/m) @ t=0.26
0
% es.tEz (V/m) @ t=0.26
14.896618163536004
% V (V) @ t=0.26
0.010293248039242206
% es.normE (V/m) @ t=0.28
33.281971492521826
% es.EX (V/m) @ t=0.28
-15.71766752676966
% es.EY (V/m) @ t=0.28
12.610432716810628
% es.EZ (V/m) @ t=0.28
15.116806763004135
% es.tEX (V/m) @ t=0.28
-15.71766752676968
% es.tEY (V/m) @ t=0.28
0
% es.tEZ (V/m) @ t=0.28
15.11680676300412
% es.Ex (V/m) @ t=0.28
-15.71766752676966
% es.Ey (V/m) @ t=0.28
12.610432716810628
% es.Ez (V/m) @ t=0.28
15.116806763004135
% es.tEx (V/m) @ t=0.28
-15.71766752676968
% es.tEy (V/m) @ t=0.28
0
% es.tEz (V/m) @ t=0.28
15.11680676300412
% V (V) @ t=0.28
0.010445403280493593
% es.normE (V/m) @ t=0.3
33.793320163232
% es.EX (V/m) @ t=0.3
-15.959175533204899
% es.EY (V/m) @ t=0.3
12.804195301430234
% es.EZ (V/m) @ t=0.3
15.349026788692079
% es.tEX (V/m) @ t=0.3
-15.959175533204878
% es.tEY (V/m) @ t=0.3
0
% es.tEZ (V/m) @ t=0.3
15.349026788692072
% es.Ex (V/m) @ t=0.3
-15.959175533204899
% es.Ey (V/m) @ t=0.3
12.804195301430234
% es.Ez (V/m) @ t=0.3
15.349026788692079
% es.tEx (V/m) @ t=0.3
-15.959175533204878
% es.tEy (V/m) @ t=0.3
0
% es.tEz (V/m) @ t=0.3
15.349026788692072
% V (V) @ t=0.3
0.010605887787837779
% es.normE (V/m) @ t=0.32
34.30466883399673
% es.EX (V/m) @ t=0.32
-16.200683539640224
% es.EY (V/m) @ t=0.32
12.99795788604979
% es.EZ (V/m) @ t=0.32
15.58124681438003
% es.tEX (V/m) @ t=0.32
-16.20068353964018
% es.tEY (V/m) @ t=0.32
0
% es.tEZ (V/m) @ t=0.32
15.581246814380023
% es.Ex (V/m) @ t=0.32
-16.200683539640224
% es.Ey (V/m) @ t=0.32
12.99795788604979
% es.Ez (V/m) @ t=0.32
15.58124681438003
% es.tEx (V/m) @ t=0.32
-16.20068353964018
% es.tEy (V/m) @ t=0.32
0
% es.tEz (V/m) @ t=0.32
15.581246814380023
% V (V) @ t=0.32
0.010766372295181965
% es.normE (V/m) @ t=0.34
34.81601750481366
% es.EX (V/m) @ t=0.34
-16.442191546075563
% es.EY (V/m) @ t=0.34
13.191720470669345
% es.EZ (V/m) @ t=0.34
15.813466840068138
% es.tEX (V/m) @ t=0.34
-16.442191546075584
% es.tEY (V/m) @ t=0.34
0
% es.tEZ (V/m) @ t=0.34
15.813466840068145
% es.Ex (V/m) @ t=0.34
-16.442191546075563
% es.Ey (V/m) @ t=0.34
13.191720470669345
% es.Ez (V/m) @ t=0.34
15.813466840068138
% es.tEx (V/m) @ t=0.34
-16.442191546075584
% es.tEy (V/m) @ t=0.34
0
% es.tEz (V/m) @ t=0.34
15.813466840068145
% V (V) @ t=0.34
0.010926856802526154
% es.normE (V/m) @ t=0.36
35.327366175680254
% es.EX (V/m) @ t=0.36
-16.683699552510816
% es.EY (V/m) @ t=0.36
13.385483055288894
% es.EZ (V/m) @ t=0.36
16.04568686575601
% es.tEX (V/m) @ t=0.36
-16.68369955251083
% es.tEY (V/m) @ t=0.36
0
% es.tEZ (V/m) @ t=0.36
16.04568686575601
% es.Ex (V/m) @ t=0.36
-16.683699552510816
% es.Ey (V/m) @ t=0.36
13.385483055288894
% es.Ez (V/m) @ t=0.36
16.04568686575601
% es.tEx (V/m) @ t=0.36
-16.68369955251083
% es.tEy (V/m) @ t=0.36
0
% es.tEz (V/m) @ t=0.36
16.04568686575601
% V (V) @ t=0.36
0.011087341309870338
% es.normE (V/m) @ t=0.38
35.83871484659465
% es.EX (V/m) @ t=0.38
-16.925207558946184
% es.EY (V/m) @ t=0.38
13.579245639908486
% es.EZ (V/m) @ t=0.38
16.277906891444054
% es.tEX (V/m) @ t=0.38
-16.92520755894612
% es.tEY (V/m) @ t=0.38
0
% es.tEZ (V/m) @ t=0.38
16.277906891444104
% es.Ex (V/m) @ t=0.38
-16.925207558946184
% es.Ey (V/m) @ t=0.38
13.579245639908486
% es.Ez (V/m) @ t=0.38
16.277906891444054
% es.tEx (V/m) @ t=0.38
-16.92520755894612
% es.tEy (V/m) @ t=0.38
0
% es.tEz (V/m) @ t=0.38
16.277906891444104
% V (V) @ t=0.38
0.011247825817214526
% es.normE (V/m) @ t=0.4
36.350063517554695
% es.EX (V/m) @ t=0.4
-17.166715565381452
% es.EY (V/m) @ t=0.4
13.773008224528063
% es.EZ (V/m) @ t=0.4
16.510126917132013
% es.tEX (V/m) @ t=0.4
-17.166715565381438
% es.tEY (V/m) @ t=0.4
0
% es.tEZ (V/m) @ t=0.4
16.510126917132027
% es.Ex (V/m) @ t=0.4
-17.166715565381452
% es.Ey (V/m) @ t=0.4
13.773008224528063
% es.Ez (V/m) @ t=0.4
16.510126917132013
% es.tEx (V/m) @ t=0.4
-17.166715565381438
% es.tEy (V/m) @ t=0.4
0
% es.tEz (V/m) @ t=0.4
16.510126917132027
% V (V) @ t=0.4
0.011408310324558713
% es.normE (V/m) @ t=0.42
36.88618622076626
% es.EX (V/m) @ t=0.42
-17.41992213941603
% es.EY (V/m) @ t=0.42
13.976156768303227
% es.EZ (V/m) @ t=0.42
16.75360157174562
% es.tEX (V/m) @ t=0.42
-17.41992213941605
% es.tEY (V/m) @ t=0.42
0
% es.tEZ (V/m) @ t=0.42
16.753601571745605
% es.Ex (V/m) @ t=0.42
-17.41992213941603
% es.Ey (V/m) @ t=0.42
13.976156768303227
% es.Ez (V/m) @ t=0.42
16.75360157174562
% es.tEx (V/m) @ t=0.42
-17.41992213941605
% es.tEy (V/m) @ t=0.42
0
% es.tEz (V/m) @ t=0.42
16.753601571745605
% V (V) @ t=0.42
0.011576570060215553
% es.normE (V/m) @ t=0.44
37.44265783734252
% es.EX (V/m) @ t=0.44
-17.68273769176197
% es.EY (V/m) @ t=0.44
14.187014758315513
% es.EZ (V/m) @ t=0.44
17.006320561986527
% es.tEX (V/m) @ t=0.44
-17.682737691762
% es.tEY (V/m) @ t=0.44
0
% es.tEZ (V/m) @ t=0.44
17.006320561986513
% es.Ex (V/m) @ t=0.44
-17.68273769176197
% es.Ey (V/m) @ t=0.44
14.187014758315513
% es.Ez (V/m) @ t=0.44
17.006320561986527
% es.tEx (V/m) @ t=0.44
-17.682737691762
% es.tEy (V/m) @ t=0.44
0
% es.tEz (V/m) @ t=0.44
17.006320561986513
% V (V) @ t=0.44
0.011751216218790337
% es.normE (V/m) @ t=0.46
37.99912945394956
% es.EX (V/m) @ t=0.46
-17.945553244107955
% es.EY (V/m) @ t=0.46
14.397872748327806
% es.EZ (V/m) @ t=0.46
17.25903955222767
% es.tEX (V/m) @ t=0.46
-17.94555324410794
% es.tEY (V/m) @ t=0.46
0
% es.tEZ (V/m) @ t=0.46
17.259039552227705
% es.Ex (V/m) @ t=0.46
-17.945553244107955
% es.Ey (V/m) @ t=0.46
14.397872748327806
% es.Ez (V/m) @ t=0.46
17.25903955222767
% es.tEx (V/m) @ t=0.46
-17.94555324410794
% es.tEy (V/m) @ t=0.46
0
% es.tEz (V/m) @ t=0.46
17.259039552227705
% V (V) @ t=0.46
0.011925862377365117
% es.normE (V/m) @ t=0.48
38.55560107058562
% es.EX (V/m) @ t=0.48
-18.208368796453897
% es.EY (V/m) @ t=0.48
14.608730738340107
% es.EZ (V/m) @ t=0.48
17.511758542468648
% es.tEX (V/m) @ t=0.48
-18.208368796453918
% es.tEY (V/m) @ t=0.48
0
% es.tEZ (V/m) @ t=0.48
17.51175854246867
% es.Ex (V/m) @ t=0.48
-18.208368796453897
% es.Ey (V/m) @ t=0.48
14.608730738340107
% es.Ez (V/m) @ t=0.48
17.511758542468648
% es.tEx (V/m) @ t=0.48
-18.208368796453918
% es.tEy (V/m) @ t=0.48
0
% es.tEz (V/m) @ t=0.48
17.51175854246867
% V (V) @ t=0.48
0.0121005085359399
% es.normE (V/m) @ t=0.5
39.11207268724976
% es.EX (V/m) @ t=0.5
-18.47118434879988
% es.EY (V/m) @ t=0.5
14.819588728352322
% es.EZ (V/m) @ t=0.5
17.76447753270972
% es.tEX (V/m) @ t=0.5
-18.47118434879986
% es.tEY (V/m) @ t=0.5
0
% es.tEZ (V/m) @ t=0.5
17.76447753270969
% es.Ex (V/m) @ t=0.5
-18.47118434879988
% es.Ey (V/m) @ t=0.5
14.819588728352322
% es.Ez (V/m) @ t=0.5
17.76447753270972
% es.tEx (V/m) @ t=0.5
-18.47118434879986
% es.tEy (V/m) @ t=0.5
0
% es.tEz (V/m) @ t=0.5
17.76447753270969
% V (V) @ t=0.5
0.012275154694514682
% es.normE (V/m) @ t=0.52
39.66854430394062
% es.EX (V/m) @ t=0.52
-18.733999901145836
% es.EY (V/m) @ t=0.52
15.030446718364672
% es.EZ (V/m) @ t=0.52
18.017196522950684
% es.tEX (V/m) @ t=0.52
-18.733999901145808
% es.tEY (V/m) @ t=0.52
0
% es.tEZ (V/m) @ t=0.52
18.017196522950712
% es.Ex (V/m) @ t=0.52
-18.733999901145836
% es.Ey (V/m) @ t=0.52
15.030446718364672
% es.Ez (V/m) @ t=0.52
18.017196522950684
% es.tEx (V/m) @ t=0.52
-18.733999901145808
% es.tEy (V/m) @ t=0.52
0
% es.tEz (V/m) @ t=0.52
18.017196522950712
% V (V) @ t=0.52
0.012449800853089464
% es.normE (V/m) @ t=0.54
40.22501592065726
% es.EX (V/m) @ t=0.54
-18.99681545349185
% es.EY (V/m) @ t=0.54
15.24130470837698
% es.EZ (V/m) @ t=0.54
18.269915513191826
% es.tEX (V/m) @ t=0.54
-18.996815453491834
% es.tEY (V/m) @ t=0.54
0
% es.tEZ (V/m) @ t=0.54
18.269915513191847
% es.Ex (V/m) @ t=0.54
-18.99681545349185
% es.Ey (V/m) @ t=0.54
15.24130470837698
% es.Ez (V/m) @ t=0.54
18.269915513191826
% es.tEx (V/m) @ t=0.54
-18.996815453491834
% es.tEy (V/m) @ t=0.54
0
% es.tEz (V/m) @ t=0.54
18.269915513191847
% V (V) @ t=0.54
0.012624447011664245
% es.normE (V/m) @ t=0.56
40.79715960971019
% es.EX (V/m) @ t=0.56
-19.26702219742367
% es.EY (V/m) @ t=0.56
15.458093525251684
% es.EZ (V/m) @ t=0.56
18.529771573473724
% es.tEX (V/m) @ t=0.56
-19.26702219742365
% es.tEY (V/m) @ t=0.56
0
% es.tEZ (V/m) @ t=0.56
18.529771573473738
% es.Ex (V/m) @ t=0.56
-19.26702219742367
% es.Ey (V/m) @ t=0.56
15.458093525251684
% es.Ez (V/m) @ t=0.56
18.529771573473724
% es.tEx (V/m) @ t=0.56
-19.26702219742365
% es.tEy (V/m) @ t=0.56
0
% es.tEz (V/m) @ t=0.56
18.529771573473738
% V (V) @ t=0.56
0.012804011816965749
% es.normE (V/m) @ t=0.58
41.379842123957246
% es.EX (V/m) @ t=0.58
-19.542199214240185
% es.EY (V/m) @ t=0.58
15.678870579692102
% es.EZ (V/m) @ t=0.58
18.794427020334858
% es.tEX (V/m) @ t=0.58
-19.542199214240185
% es.tEY (V/m) @ t=0.58
0
% es.tEZ (V/m) @ t=0.58
18.79442702033481
% es.Ex (V/m) @ t=0.58
-19.542199214240185
% es.Ey (V/m) @ t=0.58
15.678870579692102
% es.Ez (V/m) @ t=0.58
18.794427020334858
% es.tEx (V/m) @ t=0.58
-19.542199214240185
% es.tEy (V/m) @ t=0.58
0
% es.tEz (V/m) @ t=0.58
18.79442702033481
% V (V) @ t=0.58
0.012986884210248295
% es.normE (V/m) @ t=0.6
41.96817085757495
% es.EX (V/m) @ t=0.6
-19.820039075397034
% es.EY (V/m) @ t=0.6
15.901784348972043
% es.EZ (V/m) @ t=0.6
19.06165375848827
% es.tEX (V/m) @ t=0.6
-19.820039075397034
% es.tEY (V/m) @ t=0.6
0
% es.tEZ (V/m) @ t=0.6
19.06165375848832
% es.Ex (V/m) @ t=0.6
-19.820039075397034
% es.Ey (V/m) @ t=0.6
15.901784348972043
% es.Ez (V/m) @ t=0.6
19.06165375848827
% es.tEx (V/m) @ t=0.6
-19.820039075397034
% es.tEy (V/m) @ t=0.6
0
% es.tEz (V/m) @ t=0.6
19.06165375848832
% V (V) @ t=0.6
0.013171528657528658
% es.normE (V/m) @ t=0.62
42.5621458105715
% es.EX (V/m) @ t=0.62
-20.10054178089436
% es.EY (V/m) @ t=0.62
16.126834833091735
% es.EZ (V/m) @ t=0.62
19.331451787934306
% es.tEX (V/m) @ t=0.62
-20.10054178089439
% es.tEY (V/m) @ t=0.62
0
% es.tEZ (V/m) @ t=0.62
19.331451787934327
% es.Ex (V/m) @ t=0.62
-20.10054178089436
% es.Ey (V/m) @ t=0.62
16.126834833091735
% es.Ez (V/m) @ t=0.62
19.331451787934306
% es.tEx (V/m) @ t=0.62
-20.10054178089439
% es.tEy (V/m) @ t=0.62
0
% es.tEz (V/m) @ t=0.62
19.331451787934327
% V (V) @ t=0.62
0.013357945158806832
% es.normE (V/m) @ t=0.64
43.161766982958746
% es.EX (V/m) @ t=0.64
-20.383707330731895
% es.EY (V/m) @ t=0.64
16.354022032050977
% es.EZ (V/m) @ t=0.64
19.603821108672506
% es.tEX (V/m) @ t=0.64
-20.38370733073188
% es.tEY (V/m) @ t=0.64
0
% es.tEZ (V/m) @ t=0.64
19.60382110867249
% es.Ex (V/m) @ t=0.64
-20.383707330731895
% es.Ey (V/m) @ t=0.64
16.354022032050977
% es.Ez (V/m) @ t=0.64
19.603821108672506
% es.tEx (V/m) @ t=0.64
-20.38370733073188
% es.tEy (V/m) @ t=0.64
0
% es.tEz (V/m) @ t=0.64
19.60382110867249
% V (V) @ t=0.64
0.013546133714082814
% es.normE (V/m) @ t=0.66
43.767034374753074
% es.EX (V/m) @ t=0.66
-20.66953572490982
% es.EY (V/m) @ t=0.66
16.583345945849885
% es.EZ (V/m) @ t=0.66
19.878761720703245
% es.tEX (V/m) @ t=0.66
-20.669535724909764
% es.tEY (V/m) @ t=0.66
0
% es.tEZ (V/m) @ t=0.66
19.87876172070321
% es.Ex (V/m) @ t=0.66
-20.66953572490982
% es.Ey (V/m) @ t=0.66
16.583345945849885
% es.Ez (V/m) @ t=0.66
19.878761720703245
% es.tEx (V/m) @ t=0.66
-20.669535724909764
% es.tEy (V/m) @ t=0.66
0
% es.tEz (V/m) @ t=0.66
19.87876172070321
% V (V) @ t=0.66
0.013736094323356613
% es.normE (V/m) @ t=0.68
44.37794798597382
% es.EX (V/m) @ t=0.68
-20.958026963428097
% es.EY (V/m) @ t=0.68
16.814806574488458
% es.EZ (V/m) @ t=0.68
20.156273624026348
% es.tEX (V/m) @ t=0.68
-20.95802696342806
% es.tEY (V/m) @ t=0.68
0
% es.tEZ (V/m) @ t=0.68
20.156273624026312
% es.Ex (V/m) @ t=0.68
-20.958026963428097
% es.Ey (V/m) @ t=0.68
16.814806574488458
% es.Ez (V/m) @ t=0.68
20.156273624026348
% es.tEx (V/m) @ t=0.68
-20.95802696342806
% es.tEy (V/m) @ t=0.68
0
% es.tEz (V/m) @ t=0.68
20.156273624026312
% V (V) @ t=0.68
0.01392782698662822
% es.normE (V/m) @ t=0.7
44.9945078166439
% es.EX (V/m) @ t=0.7
-21.249181046286637
% es.EY (V/m) @ t=0.7
17.048403917966603
% es.EZ (V/m) @ t=0.7
20.43635681864172
% es.tEX (V/m) @ t=0.7
-21.249181046286637
% es.tEY (V/m) @ t=0.7
0
% es.tEZ (V/m) @ t=0.7
20.43635681864174
% es.Ex (V/m) @ t=0.7
-21.249181046286637
% es.Ey (V/m) @ t=0.7
17.048403917966603
% es.Ez (V/m) @ t=0.7
20.43635681864172
% es.tEx (V/m) @ t=0.7
-21.249181046286637
% es.tEy (V/m) @ t=0.7
0
% es.tEz (V/m) @ t=0.7
20.43635681864174
% V (V) @ t=0.7
0.014121331703897639
% es.normE (V/m) @ t=0.72
45.616713866789354
% es.EX (V/m) @ t=0.72
-21.542997973485583
% es.EY (V/m) @ t=0.72
17.28413797628435
% es.EZ (V/m) @ t=0.72
20.71901130454964
% es.tEX (V/m) @ t=0.72
-21.54299797348559
% es.tEY (V/m) @ t=0.72
0
% es.tEZ (V/m) @ t=0.72
20.719011304549667
% es.Ex (V/m) @ t=0.72
-21.542997973485583
% es.Ey (V/m) @ t=0.72
17.28413797628435
% es.Ez (V/m) @ t=0.72
20.71901130454964
% es.tEx (V/m) @ t=0.72
-21.54299797348559
% es.tEy (V/m) @ t=0.72
0
% es.tEz (V/m) @ t=0.72
20.719011304549667
% V (V) @ t=0.72
0.01431660847516487
% es.normE (V/m) @ t=0.74
46.24456613643882
% es.EX (V/m) @ t=0.74
-21.83947774502488
% es.EY (V/m) @ t=0.74
17.52200874944183
% es.EZ (V/m) @ t=0.74
21.004237081749928
% es.tEX (V/m) @ t=0.74
-21.839477745024872
% es.tEY (V/m) @ t=0.74
0
% es.tEZ (V/m) @ t=0.74
21.004237081749977
% es.Ex (V/m) @ t=0.74
-21.83947774502488
% es.Ey (V/m) @ t=0.74
17.52200874944183
% es.Ez (V/m) @ t=0.74
21.004237081749928
% es.tEx (V/m) @ t=0.74
-21.839477745024872
% es.tEy (V/m) @ t=0.74
0
% es.tEz (V/m) @ t=0.74
21.004237081749977
% V (V) @ t=0.74
0.014513657300429913
% es.normE (V/m) @ t=0.76
46.87806462562345
% es.EX (V/m) @ t=0.76
-22.138620360904454
% es.EY (V/m) @ t=0.76
17.762016237438807
% es.EZ (V/m) @ t=0.76
21.29203415024262
% es.tEX (V/m) @ t=0.76
-22.138620360904483
% es.tEY (V/m) @ t=0.76
0
% es.tEZ (V/m) @ t=0.76
21.292034150242614
% es.Ex (V/m) @ t=0.76
-22.138620360904454
% es.Ey (V/m) @ t=0.76
17.762016237438807
% es.Ez (V/m) @ t=0.76
21.29203415024262
% es.tEx (V/m) @ t=0.76
-22.138620360904483
% es.tEy (V/m) @ t=0.76
0
% es.tEz (V/m) @ t=0.76
21.292034150242614
% V (V) @ t=0.76
0.014712478179692772
% es.normE (V/m) @ t=0.78
47.5172093343771
% es.EX (V/m) @ t=0.78
-22.440425821124435
% es.EY (V/m) @ t=0.78
18.00416044027552
% es.EZ (V/m) @ t=0.78
21.582402510027713
% es.tEX (V/m) @ t=0.78
-22.440425821124435
% es.tEY (V/m) @ t=0.78
0
% es.tEZ (V/m) @ t=0.78
21.582402510027748
% es.Ex (V/m) @ t=0.78
-22.440425821124435
% es.Ey (V/m) @ t=0.78
18.00416044027552
% es.Ez (V/m) @ t=0.78
21.582402510027713
% es.tEx (V/m) @ t=0.78
-22.440425821124435
% es.tEy (V/m) @ t=0.78
0
% es.tEz (V/m) @ t=0.78
21.582402510027748
% V (V) @ t=0.78
0.014913071112953438
% es.normE (V/m) @ t=0.8
48.16200026273542
% es.EX (V/m) @ t=0.8
-22.744894125684667
% es.EY (V/m) @ t=0.8
18.24844135795179
% es.EZ (V/m) @ t=0.8
21.87534216110516
% es.tEX (V/m) @ t=0.8
-22.744894125684667
% es.tEY (V/m) @ t=0.8
0
% es.tEZ (V/m) @ t=0.8
21.875342161105095
% es.Ex (V/m) @ t=0.8
-22.744894125684667
% es.Ey (V/m) @ t=0.8
18.24844135795179
% es.Ez (V/m) @ t=0.8
21.87534216110516
% es.tEx (V/m) @ t=0.8
-22.744894125684667
% es.tEy (V/m) @ t=0.8
0
% es.tEz (V/m) @ t=0.8
21.875342161105095
% V (V) @ t=0.8
0.015115436100211918
% es.normE (V/m) @ t=0.82
48.813575178378784
% es.EX (V/m) @ t=0.82
-23.052565162124452
% es.EY (V/m) @ t=0.82
18.49529194201807
% es.EZ (V/m) @ t=0.82
22.171365098312606
% es.tEX (V/m) @ t=0.82
-23.052565162124452
% es.tEY (V/m) @ t=0.82
0
% es.tEZ (V/m) @ t=0.82
22.171365098312606
% es.Ex (V/m) @ t=0.82
-23.052565162124452
% es.Ey (V/m) @ t=0.82
18.49529194201807
% es.Ez (V/m) @ t=0.82
22.171365098312606
% es.tEx (V/m) @ t=0.82
-23.052565162124452
% es.tEy (V/m) @ t=0.82
0
% es.tEz (V/m) @ t=0.82
22.171365098312606
% V (V) @ t=0.82
0.015319930216217624
% es.normE (V/m) @ t=0.84
49.481038131431944
% es.EX (V/m) @ t=0.84
-23.367758936623872
% es.EY (V/m) @ t=0.84
18.748176531317213
% es.EZ (V/m) @ t=0.84
22.474568139418373
% es.tEX (V/m) @ t=0.84
-23.367758936623858
% es.tEY (V/m) @ t=0.84
0
% es.tEZ (V/m) @ t=0.84
22.474568139418295
% es.Ex (V/m) @ t=0.84
-23.367758936623872
% es.Ey (V/m) @ t=0.84
18.748176531317213
% es.Ez (V/m) @ t=0.84
22.474568139418373
% es.tEx (V/m) @ t=0.84
-23.367758936623858
% es.tEy (V/m) @ t=0.84
0
% es.tEz (V/m) @ t=0.84
22.474568139418295
% V (V) @ t=0.84
0.01552941065809527
% es.normE (V/m) @ t=0.86
50.15568058736974
% es.EX (V/m) @ t=0.86
-23.68634312104787
% es.EY (V/m) @ t=0.86
19.00378129149987
% es.EZ (V/m) @ t=0.86
22.78103244851775
% es.tEX (V/m) @ t=0.86
-23.686343121047898
% es.tEY (V/m) @ t=0.86
0
% es.tEZ (V/m) @ t=0.86
22.78103244851775
% es.Ex (V/m) @ t=0.86
-23.68634312104787
% es.Ey (V/m) @ t=0.86
19.00378129149987
% es.Ez (V/m) @ t=0.86
22.78103244851775
% es.tEx (V/m) @ t=0.86
-23.686343121047898
% es.tEy (V/m) @ t=0.86
0
% es.tEz (V/m) @ t=0.86
22.78103244851775
% V (V) @ t=0.86
0.015741144356591474
% es.normE (V/m) @ t=0.88
50.837502546191175
% es.EX (V/m) @ t=0.88
-24.008317715396572
% es.EY (V/m) @ t=0.88
19.26210622256582
% es.EZ (V/m) @ t=0.88
23.090758025610583
% es.tEX (V/m) @ t=0.88
-24.008317715396572
% es.tEY (V/m) @ t=0.88
0
% es.tEZ (V/m) @ t=0.88
23.090758025610626
% es.Ex (V/m) @ t=0.88
-24.008317715396572
% es.Ey (V/m) @ t=0.88
19.26210622256582
% es.Ez (V/m) @ t=0.88
23.090758025610583
% es.tEx (V/m) @ t=0.88
-24.008317715396572
% es.tEy (V/m) @ t=0.88
0
% es.tEz (V/m) @ t=0.88
23.090758025610626
% V (V) @ t=0.88
0.015955131311706235
% es.normE (V/m) @ t=0.9
51.52650400789581
% es.EX (V/m) @ t=0.9
-24.333682719669966
% es.EY (V/m) @ t=0.9
19.523151324515133
% es.EZ (V/m) @ t=0.9
23.403744870697153
% es.tEX (V/m) @ t=0.9
-24.333682719669994
% es.tEY (V/m) @ t=0.9
0
% es.tEZ (V/m) @ t=0.9
23.403744870697153
% es.Ex (V/m) @ t=0.9
-24.333682719669966
% es.Ey (V/m) @ t=0.9
19.523151324515133
% es.Ez (V/m) @ t=0.9
23.403744870697153
% es.tEx (V/m) @ t=0.9
-24.333682719669994
% es.tEy (V/m) @ t=0.9
0
% es.tEz (V/m) @ t=0.9
23.403744870697153
% V (V) @ t=0.9
0.016171371523439542
% es.normE (V/m) @ t=0.92
52.222684972482945
% es.EX (V/m) @ t=0.92
-24.662438133868093
% es.EY (V/m) @ t=0.92
19.78691659734786
% es.EZ (V/m) @ t=0.92
23.71999298377729
% es.tEX (V/m) @ t=0.92
-24.662438133868108
% es.tEY (V/m) @ t=0.92
0
% es.tEZ (V/m) @ t=0.92
23.719992983777274
% es.Ex (V/m) @ t=0.92
-24.662438133868093
% es.Ey (V/m) @ t=0.92
19.78691659734786
% es.Ez (V/m) @ t=0.92
23.71999298377729
% es.tEx (V/m) @ t=0.92
-24.662438133868108
% es.tEy (V/m) @ t=0.92
0
% es.tEz (V/m) @ t=0.92
23.719992983777274
% V (V) @ t=0.92
0.016389864991791417
% es.normE (V/m) @ t=0.94
52.92604543995174
% es.EX (V/m) @ t=0.94
-24.99458395799074
% es.EY (V/m) @ t=0.94
20.053402041063876
% es.EZ (V/m) @ t=0.94
24.03950236485084
% es.tEX (V/m) @ t=0.94
-24.99458395799074
% es.tEY (V/m) @ t=0.94
0
% es.tEZ (V/m) @ t=0.94
24.039502364850875
% es.Ex (V/m) @ t=0.94
-24.99458395799074
% es.Ey (V/m) @ t=0.94
20.053402041063876
% es.Ez (V/m) @ t=0.94
24.03950236485084
% es.tEx (V/m) @ t=0.94
-24.99458395799074
% es.tEy (V/m) @ t=0.94
0
% es.tEz (V/m) @ t=0.94
24.039502364850875
% V (V) @ t=0.94
0.01661061171676184
% es.normE (V/m) @ t=0.96
53.636585410301905
% es.EX (V/m) @ t=0.96
-25.33012019203818
% es.EY (V/m) @ t=0.96
20.32260765566334
% es.EZ (V/m) @ t=0.96
24.36227301391824
% es.tEX (V/m) @ t=0.96
-25.33012019203818
% es.tEY (V/m) @ t=0.96
0
% es.tEZ (V/m) @ t=0.96
24.36227301391824
% es.Ex (V/m) @ t=0.96
-25.33012019203818
% es.Ey (V/m) @ t=0.96
20.32260765566334
% es.Ez (V/m) @ t=0.96
24.36227301391824
% es.tEx (V/m) @ t=0.96
-25.33012019203818
% es.tEy (V/m) @ t=0.96
0
% es.tEz (V/m) @ t=0.96
24.36227301391824
% V (V) @ t=0.96
0.01683361169835082
% es.normE (V/m) @ t=0.98
54.354304883532265
% es.EX (V/m) @ t=0.98
-25.669046836010168
% es.EY (V/m) @ t=0.98
20.594533441146048
% es.EZ (V/m) @ t=0.98
24.688304930978973
% es.tEX (V/m) @ t=0.98
-25.669046836010153
% es.tEY (V/m) @ t=0.98
0
% es.tEZ (V/m) @ t=0.98
24.688304930978973
% es.Ex (V/m) @ t=0.98
-25.669046836010168
% es.Ey (V/m) @ t=0.98
20.594533441146048
% es.Ez (V/m) @ t=0.98
24.688304930978973
% es.tEx (V/m) @ t=0.98
-25.669046836010153
% es.tEy (V/m) @ t=0.98
0
% es.tEz (V/m) @ t=0.98
24.688304930978973
% V (V) @ t=0.98
0.017058864936558355
% es.normE (V/m) @ t=1
55.07920385964282
% es.EX (V/m) @ t=1
-26.011363889907017
% es.EY (V/m) @ t=1
20.86917939751219
% es.EZ (V/m) @ t=1
25.017598116033582
% es.tEX (V/m) @ t=1
-26.011363889907017
% es.tEY (V/m) @ t=1
0
% es.tEZ (V/m) @ t=1
25.01759811603364
% es.Ex (V/m) @ t=1
-26.011363889907017
% es.Ey (V/m) @ t=1
20.86917939751219
% es.Ez (V/m) @ t=1
25.017598116033582
% es.tEx (V/m) @ t=1
-26.011363889907017
% es.tEy (V/m) @ t=1
0
% es.tEz (V/m) @ t=1
25.01759811603364
% V (V) @ t=1
0.017286371431384444
% es.normE (V/m) @ t=1.02
55.81128233863255
% es.EX (V/m) @ t=1.02
-26.3570713537283
% es.EY (V/m) @ t=1.02
21.146545524761706
% es.EZ (V/m) @ t=1.02
25.35015256908163
% es.tEX (V/m) @ t=1.02
-26.357071353728273
% es.tEY (V/m) @ t=1.02
0
% es.tEZ (V/m) @ t=1.02
25.350152569081672
% es.Ex (V/m) @ t=1.02
-26.3570713537283
% es.Ey (V/m) @ t=1.02
21.146545524761706
% es.Ez (V/m) @ t=1.02
25.35015256908163
% es.tEx (V/m) @ t=1.02
-26.357071353728273
% es.tEy (V/m) @ t=1.02
0
% es.tEz (V/m) @ t=1.02
25.350152569081672
% V (V) @ t=1.02
0.01751613118282909
% es.normE (V/m) @ t=1.04
56.5505403205009
% es.EX (V/m) @ t=1.04
-26.706169227474447
% es.EY (V/m) @ t=1.04
21.426631822894542
% es.EZ (V/m) @ t=1.04
25.68596829012325
% es.tEX (V/m) @ t=1.04
-26.706169227474447
% es.tEY (V/m) @ t=1.04
0
% es.tEZ (V/m) @ t=1.04
25.685968290123242
% es.Ex (V/m) @ t=1.04
-26.706169227474447
% es.Ey (V/m) @ t=1.04
21.426631822894542