% Model:              1 neuron.mph
% Version:            COMSOL 6.0.0.405
% Date:               Mar 16 2023, 19:38
% Dimension:          0
% Nodes:              14017
% Expressions:        14017
% Description:        Electric field norm, Electric field, X component, Electric field, Y component, Electric field, Z component, Tangential electric field, X component, Tangential electric field, Y component, Tangential electric field, Z component, Electric field, x component, Electric field, y component, Electric field, z component, Tangential electric field, x component, Tangential electric field, y component, Tangential electric field, z component, Electric potential
% Length unit:        mm
% x
1.66
% y
12.2
% z
1
% es.normE (V/m) @ t=0
2.2533836912860012
% es.EX (V/m) @ t=0
-0.8031899616813605
% es.EY (V/m) @ t=0
0.25516966337898284
% es.EZ (V/m) @ t=0
2.0833864697904607
% es.tEX (V/m) @ t=0
-0.8031899616813711
% es.tEY (V/m) @ t=0
0
% es.tEZ (V/m) @ t=0
2.08338646979046
% es.Ex (V/m) @ t=0
-0.8031899616813605
% es.Ey (V/m) @ t=0
0.25516966337898284
% es.Ez (V/m) @ t=0
2.0833864697904607
% es.tEx (V/m) @ t=0
-0.8031899616813711
% es.tEy (V/m) @ t=0
0
% es.tEz (V/m) @ t=0
2.08338646979046
% V (V) @ t=0
0.010971260107297057
% es.normE (V/m) @ t=0.02
1.9570791842467292
% es.EX (V/m) @ t=0.02
-0.6975759889716977
% es.EY (V/m) @ t=0.02
0.22161660239850178
% es.EZ (V/m) @ t=0.02
1.8094354316633305
% es.tEX (V/m) @ t=0.02
-0.6975759889717048
% es.tEY (V/m) @ t=0.02
0
% es.tEZ (V/m) @ t=0.02
1.8094354316633332
% es.Ex (V/m) @ t=0.02
-0.6975759889716977
% es.Ey (V/m) @ t=0.02
0.22161660239850178
% es.Ez (V/m) @ t=0.02
1.8094354316633305
% es.tEx (V/m) @ t=0.02
-0.6975759889717048
% es.tEy (V/m) @ t=0.02
0
% es.tEz (V/m) @ t=0.02
1.8094354316633332
% V (V) @ t=0.02
0.00952861455176386
% es.normE (V/m) @ t=0.04
1.9860966473521469
% es.EX (V/m) @ t=0.04
-0.707918897585973
% es.EY (V/m) @ t=0.04
0.22490249613852242
% es.EZ (V/m) @ t=0.04
1.8362637912546145
% es.tEX (V/m) @ t=0.04
-0.7079188975859837
% es.tEY (V/m) @ t=0.04
0
% es.tEZ (V/m) @ t=0.04
1.8362637912546145
% es.Ex (V/m) @ t=0.04
-0.707918897585973
% es.Ey (V/m) @ t=0.04
0.22490249613852242
% es.Ez (V/m) @ t=0.04
1.8362637912546145
% es.tEx (V/m) @ t=0.04
-0.7079188975859837
% es.tEy (V/m) @ t=0.04
0
% es.tEz (V/m) @ t=0.04
1.8362637912546145
% V (V) @ t=0.04
0.009669894371839514
% es.normE (V/m) @ t=0.06
2.0155477787800895
% es.EX (V/m) @ t=0.06
-0.7184163839551104
% es.EY (V/m) @ t=0.06
0.22823749885576716
% es.EZ (V/m) @ t=0.06
1.8634931021598948
% es.tEX (V/m) @ t=0.06
-0.7184163839551175
% es.tEY (V/m) @ t=0.06
0
% es.tEZ (V/m) @ t=0.06
1.863493102159893
% es.Ex (V/m) @ t=0.06
-0.7184163839551104
% es.Ey (V/m) @ t=0.06
0.22823749885576716
% es.Ez (V/m) @ t=0.06
1.8634931021598948
% es.tEx (V/m) @ t=0.06
-0.7184163839551175
% es.tEy (V/m) @ t=0.06
0
% es.tEz (V/m) @ t=0.06
1.863493102159893
% V (V) @ t=0.06
0.009813285466877132
% es.normE (V/m) @ t=0.08
2.045754253509604
% es.EX (V/m) @ t=0.08
-0.7291830955196519
% es.EY (V/m) @ t=0.08
0.23165803209021218
% es.EZ (V/m) @ t=0.08
1.891420774913052
% es.tEX (V/m) @ t=0.08
-0.729183095519659
% es.tEY (V/m) @ t=0.08
0
% es.tEZ (V/m) @ t=0.08
1.8914207749130476
% es.Ex (V/m) @ t=0.08
-0.7291830955196519
% es.Ey (V/m) @ t=0.08
0.23165803209021218
% es.Ez (V/m) @ t=0.08
1.891420774913052
% es.tEx (V/m) @ t=0.08
-0.729183095519659
% es.tEy (V/m) @ t=0.08
0
% es.tEz (V/m) @ t=0.08
1.8914207749130476
% V (V) @ t=0.08
0.009960354726499207
% es.normE (V/m) @ t=0.1
2.0764796710615263
% es.EX (V/m) @ t=0.1
-0.7401347726256634
% es.EY (V/m) @ t=0.1
0.23513732727821446
% es.EZ (V/m) @ t=0.1
1.919828242572235
% es.tEX (V/m) @ t=0.1
-0.7401347726256741
% es.tEY (V/m) @ t=0.1
0
% es.tEZ (V/m) @ t=0.1
1.9198282425722333
% es.Ex (V/m) @ t=0.1
-0.7401347726256634
% es.Ey (V/m) @ t=0.1
0.23513732727821446
% es.Ez (V/m) @ t=0.1
1.919828242572235
% es.tEx (V/m) @ t=0.1
-0.7401347726256741
% es.tEy (V/m) @ t=0.1
0
% es.tEz (V/m) @ t=0.1
1.9198282425722333
% V (V) @ t=0.1
0.010109950992195003
% es.normE (V/m) @ t=0.12
2.107205088613461
% es.EX (V/m) @ t=0.12
-0.7510864497316818
% es.EY (V/m) @ t=0.12
0.23861662246622894
% es.EZ (V/m) @ t=0.12
1.948235710231427
% es.tEX (V/m) @ t=0.12
-0.7510864497316889
% es.tEY (V/m) @ t=0.12
0
% es.tEZ (V/m) @ t=0.12
1.9482357102314296
% es.Ex (V/m) @ t=0.12
-0.7510864497316818
% es.Ey (V/m) @ t=0.12
0.23861662246622894
% es.Ez (V/m) @ t=0.12
1.948235710231427
% es.tEx (V/m) @ t=0.12
-0.7510864497316889
% es.tEy (V/m) @ t=0.12
0
% es.tEz (V/m) @ t=0.12
1.9482357102314296
% V (V) @ t=0.12
0.010259547257890803
% es.normE (V/m) @ t=0.14
2.1384696881037044
% es.EX (V/m) @ t=0.14
-0.762230337888733
% es.EY (V/m) @ t=0.14
0.24215698539345687
% es.EZ (V/m) @ t=0.14
1.9771416752109383
% es.tEX (V/m) @ t=0.14
-0.7622303378887472
% es.tEY (V/m) @ t=0.14
0
% es.tEZ (V/m) @ t=0.14
1.977141675210941
% es.Ex (V/m) @ t=0.14
-0.762230337888733
% es.Ey (V/m) @ t=0.14
0.24215698539345687
% es.Ez (V/m) @ t=0.14
1.9771416752109383
% es.tEx (V/m) @ t=0.14
-0.7622303378887472
% es.tEy (V/m) @ t=0.14
0
% es.tEz (V/m) @ t=0.14
1.977141675210941
% V (V) @ t=0.14
0.010411766688094537
% es.normE (V/m) @ t=0.16
2.1719535068357034
% es.EX (V/m) @ t=0.16
-0.7741653476182881
% es.EY (V/m) @ t=0.16
0.24594869706273892
% es.EZ (V/m) @ t=0.16
2.0080994055902384
% es.tEX (V/m) @ t=0.16
-0.7741653476182953
% es.tEY (V/m) @ t=0.16
0
% es.tEZ (V/m) @ t=0.16
2.0080994055902313
% es.Ex (V/m) @ t=0.16
-0.7741653476182881
% es.Ey (V/m) @ t=0.16
0.24594869706273892
% es.Ez (V/m) @ t=0.16
2.0080994055902384
% es.tEx (V/m) @ t=0.16
-0.7741653476182953
% es.tEy (V/m) @ t=0.16
0
% es.tEz (V/m) @ t=0.16
2.0080994055902313
% V (V) @ t=0.16
0.010574782802565044
% es.normE (V/m) @ t=0.18
2.2054373255677238
% es.EX (V/m) @ t=0.18
-0.7861003573478292
% es.EY (V/m) @ t=0.18
0.24974040873202918
% es.EZ (V/m) @ t=0.18
2.039057135969533
% es.tEX (V/m) @ t=0.18
-0.7861003573478363
% es.tEY (V/m) @ t=0.18
0
% es.tEZ (V/m) @ t=0.18
2.0390571359695393
% es.Ex (V/m) @ t=0.18
-0.7861003573478292
% es.Ey (V/m) @ t=0.18
0.24974040873202918
% es.Ez (V/m) @ t=0.18
2.039057135969533
% es.tEx (V/m) @ t=0.18
-0.7861003573478363
% es.tEy (V/m) @ t=0.18
0
% es.tEz (V/m) @ t=0.18
2.0390571359695393
% V (V) @ t=0.18
0.010737798917035545
% es.normE (V/m) @ t=0.2
2.238921144299785
% es.EX (V/m) @ t=0.2
-0.798035367077388
% es.EY (V/m) @ t=0.2
0.25353212040132367
% es.EZ (V/m) @ t=0.2
2.0700148663488376
% es.tEX (V/m) @ t=0.2
-0.7980353670774057
% es.tEY (V/m) @ t=0.2
0
% es.tEZ (V/m) @ t=0.2
2.0700148663488385
% es.Ex (V/m) @ t=0.2
-0.798035367077388
% es.Ey (V/m) @ t=0.2
0.25353212040132367
% es.Ez (V/m) @ t=0.2
2.0700148663488376
% es.tEx (V/m) @ t=0.2
-0.7980353670774057
% es.tEy (V/m) @ t=0.2
0
% es.tEz (V/m) @ t=0.2
2.0700148663488385
% V (V) @ t=0.2
0.010900815031506049
% es.normE (V/m) @ t=0.22
2.272404963031861
% es.EX (V/m) @ t=0.22
-0.8099703768069396
% es.EY (V/m) @ t=0.22
0.2573238320706326
% es.EZ (V/m) @ t=0.22
2.1009725967281287
% es.tEX (V/m) @ t=0.22
-0.8099703768069538
% es.tEY (V/m) @ t=0.22
0
% es.tEZ (V/m) @ t=0.22
2.1009725967281323
% es.Ex (V/m) @ t=0.22
-0.8099703768069396
% es.Ey (V/m) @ t=0.22
0.2573238320706326
% es.Ez (V/m) @ t=0.22
2.1009725967281287
% es.tEx (V/m) @ t=0.22
-0.8099703768069538
% es.tEy (V/m) @ t=0.22
0
% es.tEz (V/m) @ t=0.22
2.1009725967281323
% V (V) @ t=0.22
0.011063831145976552
% es.normE (V/m) @ t=0.24
2.305888781763967
% es.EX (V/m) @ t=0.24
-0.8219053865364949
% es.EY (V/m) @ t=0.24
0.2611155437399113
% es.EZ (V/m) @ t=0.24
2.131930327107429
% es.tEX (V/m) @ t=0.24
-0.8219053865365091
% es.tEY (V/m) @ t=0.24
0
% es.tEZ (V/m) @ t=0.24
2.1319303271074332
% es.Ex (V/m) @ t=0.24
-0.8219053865364949
% es.Ey (V/m) @ t=0.24
0.2611155437399113
% es.Ez (V/m) @ t=0.24
2.131930327107429
% es.tEx (V/m) @ t=0.24
-0.8219053865365091
% es.tEy (V/m) @ t=0.24
0
% es.tEz (V/m) @ t=0.24
2.1319303271074332
% V (V) @ t=0.24
0.011226847260447056
% es.normE (V/m) @ t=0.26
2.3393726004960955
% es.EX (V/m) @ t=0.26
-0.8338403962660644
% es.EY (V/m) @ t=0.26
0.2649072554091838
% es.EZ (V/m) @ t=0.26
2.1628880574867244
% es.tEX (V/m) @ t=0.26
-0.8338403962660644
% es.tEY (V/m) @ t=0.26
0
% es.tEZ (V/m) @ t=0.26
2.162888057486729
% es.Ex (V/m) @ t=0.26
-0.8338403962660644
% es.Ey (V/m) @ t=0.26
0.2649072554091838
% es.Ez (V/m) @ t=0.26
2.1628880574867244
% es.tEx (V/m) @ t=0.26
-0.8338403962660644
% es.tEy (V/m) @ t=0.26
0
% es.tEz (V/m) @ t=0.26
2.162888057486729
% V (V) @ t=0.26
0.011389863374917562
% es.normE (V/m) @ t=0.28
2.3740523669662537
% es.EX (V/m) @ t=0.28
-0.8462016139033963
% es.EY (V/m) @ t=0.28
0.26883436265866334
% es.EZ (V/m) @ t=0.28
2.1949515348690687
% es.tEX (V/m) @ t=0.28
-0.8462016139034141
% es.tEY (V/m) @ t=0.28
0
% es.tEZ (V/m) @ t=0.28
2.194951534869066
% es.Ex (V/m) @ t=0.28
-0.8462016139033963
% es.Ey (V/m) @ t=0.28
0.26883436265866334
% es.Ez (V/m) @ t=0.28
2.1949515348690687
% es.tEx (V/m) @ t=0.28
-0.8462016139034141
% es.tEy (V/m) @ t=0.28
0
% es.tEz (V/m) @ t=0.28
2.194951534869066
% V (V) @ t=0.28
0.011558707777428425
% es.normE (V/m) @ t=0.3
2.4105194098504854
% es.EX (V/m) @ t=0.3
-0.8591997752104623
% es.EY (V/m) @ t=0.3
0.2729638109631509
% es.EZ (V/m) @ t=0.3
2.2286674887565816
% es.tEX (V/m) @ t=0.3
-0.8591997752104765
% es.tEY (V/m) @ t=0.3
0
% es.tEZ (V/m) @ t=0.3
2.2286674887565834
% es.Ex (V/m) @ t=0.3
-0.8591997752104623
% es.Ey (V/m) @ t=0.3
0.2729638109631509
% es.Ez (V/m) @ t=0.3
2.2286674887565816
% es.tEx (V/m) @ t=0.3
-0.8591997752104765
% es.tEy (V/m) @ t=0.3
0
% es.tEz (V/m) @ t=0.3
2.2286674887565834
% V (V) @ t=0.3
0.011736262227559142
% es.normE (V/m) @ t=0.32
2.4469864527347314
% es.EX (V/m) @ t=0.32
-0.8721979365175463
% es.EY (V/m) @ t=0.32
0.27709325926763206
% es.EZ (V/m) @ t=0.32
2.262383442644097
% es.tEX (V/m) @ t=0.32
-0.8721979365175605
% es.tEY (V/m) @ t=0.32
0
% es.tEZ (V/m) @ t=0.32
2.2623834426440954
% es.Ex (V/m) @ t=0.32
-0.8721979365175463
% es.Ey (V/m) @ t=0.32
0.27709325926763206
% es.Ez (V/m) @ t=0.32
2.262383442644097
% es.tEx (V/m) @ t=0.32
-0.8721979365175605
% es.tEy (V/m) @ t=0.32
0
% es.tEz (V/m) @ t=0.32
2.2623834426440954
% V (V) @ t=0.32
0.011913816677689863
% es.normE (V/m) @ t=0.34
2.48345349561897
% es.EX (V/m) @ t=0.34
-0.8851960978246265
% es.EY (V/m) @ t=0.34
0.28122270757211876
% es.EZ (V/m) @ t=0.34
2.2960993965316003
% es.tEX (V/m) @ t=0.34
-0.8851960978246443
% es.tEY (V/m) @ t=0.34
0
% es.tEZ (V/m) @ t=0.34
2.2960993965316057
% es.Ex (V/m) @ t=0.34
-0.8851960978246265
% es.Ey (V/m) @ t=0.34
0.28122270757211876
% es.Ez (V/m) @ t=0.34
2.2960993965316003
% es.tEx (V/m) @ t=0.34
-0.8851960978246443
% es.tEy (V/m) @ t=0.34
0
% es.tEz (V/m) @ t=0.34
2.2960993965316057
% V (V) @ t=0.34
0.01209137112782058
% es.normE (V/m) @ t=0.36
2.5199205385032224
% es.EX (V/m) @ t=0.36
-0.8981942591316927
% es.EY (V/m) @ t=0.36
0.28535215587659746
% es.EZ (V/m) @ t=0.36
2.329815350419116
% es.tEX (V/m) @ t=0.36
-0.8981942591317069
% es.tEY (V/m) @ t=0.36
0
% es.tEZ (V/m) @ t=0.36
2.329815350419109
% es.Ex (V/m) @ t=0.36
-0.8981942591316927
% es.Ey (V/m) @ t=0.36
0.28535215587659746
% es.Ez (V/m) @ t=0.36
2.329815350419116
% es.tEx (V/m) @ t=0.36
-0.8981942591317069
% es.tEy (V/m) @ t=0.36
0
% es.tEz (V/m) @ t=0.36
2.329815350419109
% V (V) @ t=0.36
0.012268925577951296
% es.normE (V/m) @ t=0.38
2.5563875813874777
% es.EX (V/m) @ t=0.38
-0.9111924204387696
% es.EY (V/m) @ t=0.38
0.2894816041810755
% es.EZ (V/m) @ t=0.38
2.3635313043066253
% es.tEX (V/m) @ t=0.38
-0.9111924204387838
% es.tEY (V/m) @ t=0.38
0
% es.tEZ (V/m) @ t=0.38
2.363531304306621
% es.Ex (V/m) @ t=0.38
-0.9111924204387696
% es.Ey (V/m) @ t=0.38
0.2894816041810755
% es.Ez (V/m) @ t=0.38
2.3635313043066253
% es.tEx (V/m) @ t=0.38
-0.9111924204387838
% es.tEy (V/m) @ t=0.38
0
% es.tEz (V/m) @ t=0.38
2.363531304306621
% V (V) @ t=0.38
0.012446480028082017
% es.normE (V/m) @ t=0.4
2.5928546242717436
% es.EX (V/m) @ t=0.4
-0.9241905817458498
% es.EY (V/m) @ t=0.4
0.29361105248555397
% es.EZ (V/m) @ t=0.4
2.397247258194139
% es.tEX (V/m) @ t=0.4
-0.9241905817458675
% es.tEY (V/m) @ t=0.4
0
% es.tEZ (V/m) @ t=0.4
2.397247258194133
% es.Ex (V/m) @ t=0.4
-0.9241905817458498
% es.Ey (V/m) @ t=0.4
0.29361105248555397
% es.Ez (V/m) @ t=0.4
2.397247258194139
% es.tEx (V/m) @ t=0.4
-0.9241905817458675
% es.tEy (V/m) @ t=0.4
0
% es.tEz (V/m) @ t=0.4
2.397247258194133
% V (V) @ t=0.4
0.012624034478212734
% es.normE (V/m) @ t=0.42
2.631262585465045
% es.EX (V/m) @ t=0.42
-0.93788067383365
% es.EY (V/m) @ t=0.42
0.2979603377075717
% es.EZ (V/m) @ t=0.42
2.432757669890134
% es.tEX (V/m) @ t=0.42
-0.9378806738336678
% es.tEY (V/m) @ t=0.42
0
% es.tEZ (V/m) @ t=0.42
2.4327576698901456
% es.Ex (V/m) @ t=0.42
-0.93788067383365
% es.Ey (V/m) @ t=0.42
0.2979603377075717
% es.Ez (V/m) @ t=0.42
2.432757669890134
% es.tEx (V/m) @ t=0.42
-0.9378806738336678
% es.tEy (V/m) @ t=0.42
0
% es.tEz (V/m) @ t=0.42
2.4327576698901456
% V (V) @ t=0.42
0.012811030180547795
% es.normE (V/m) @ t=0.44
2.670930810374921
% es.EX (V/m) @ t=0.44
-0.9520200456532277
% es.EY (V/m) @ t=0.44
0.30245236592364955
% es.EZ (V/m) @ t=0.44
2.4694332465786024
% es.tEX (V/m) @ t=0.44
-0.9520200456532455
% es.tEY (V/m) @ t=0.44
0
% es.tEZ (V/m) @ t=0.44
2.4694332465786033
% es.Ex (V/m) @ t=0.44
-0.9520200456532277
% es.Ey (V/m) @ t=0.44
0.30245236592364955
% es.Ez (V/m) @ t=0.44
2.4694332465786024
% es.tEx (V/m) @ t=0.44
-0.9520200456532455
% es.tEy (V/m) @ t=0.44
0
% es.tEz (V/m) @ t=0.44
2.4694332465786033
% V (V) @ t=0.44
0.013004156211777494
% es.normE (V/m) @ t=0.46
2.710599035284834
% es.EX (V/m) @ t=0.46
-0.9661594174728196
% es.EY (V/m) @ t=0.46
0.3069443941397434
% es.EZ (V/m) @ t=0.46
2.5061088232670787
% es.tEX (V/m) @ t=0.46
-0.9661594174728232
% es.tEY (V/m) @ t=0.46
0
% es.tEZ (V/m) @ t=0.46
2.506108823267075
% es.Ex (V/m) @ t=0.46
-0.9661594174728196
% es.Ey (V/m) @ t=0.46
0.3069443941397434
% es.Ez (V/m) @ t=0.46
2.5061088232670787
% es.tEx (V/m) @ t=0.46
-0.9661594174728232
% es.tEy (V/m) @ t=0.46
0
% es.tEz (V/m) @ t=0.46
2.506108823267075
% V (V) @ t=0.46
0.013197282243007195
% es.normE (V/m) @ t=0.48
2.750267260194751
% es.EX (V/m) @ t=0.48
-0.9802987892923936
% es.EY (V/m) @ t=0.48
0.31143642235584856
% es.EZ (V/m) @ t=0.48
2.5427843999555417
% es.tEX (V/m) @ t=0.48
-0.9802987892924007
% es.tEY (V/m) @ t=0.48
0
% es.tEZ (V/m) @ t=0.48
2.542784399955549
% es.Ex (V/m) @ t=0.48
-0.9802987892923936
% es.Ey (V/m) @ t=0.48
0.31143642235584856
% es.Ez (V/m) @ t=0.48
2.5427843999555417
% es.tEx (V/m) @ t=0.48
-0.9802987892924007
% es.tEy (V/m) @ t=0.48
0
% es.tEz (V/m) @ t=0.48
2.542784399955549
% V (V) @ t=0.48
0.013390408274236898
% es.normE (V/m) @ t=0.5
2.789935485104693
% es.EX (V/m) @ t=0.5
-0.9944381611119679
% es.EY (V/m) @ t=0.5
0.31592845057193886
% es.EZ (V/m) @ t=0.5
2.579459976644009
% es.tEX (V/m) @ t=0.5
-0.9944381611119786
% es.tEY (V/m) @ t=0.5
0
% es.tEZ (V/m) @ t=0.5
2.57945997664401
% es.Ex (V/m) @ t=0.5
-0.9944381611119679
% es.Ey (V/m) @ t=0.5
0.31592845057193886
% es.Ez (V/m) @ t=0.5
2.579459976644009
% es.tEx (V/m) @ t=0.5
-0.9944381611119786
% es.tEy (V/m) @ t=0.5
0
% es.tEz (V/m) @ t=0.5
2.57945997664401
% V (V) @ t=0.5
0.013583534305466596
% es.normE (V/m) @ t=0.52
2.829603710014667
% es.EX (V/m) @ t=0.52
-1.0085775329315667
% es.EY (V/m) @ t=0.52
0.3204204787880236
% es.EZ (V/m) @ t=0.52
2.61613555333248
% es.tEX (V/m) @ t=0.52
-1.0085775329315703
% es.tEY (V/m) @ t=0.52
0
% es.tEZ (V/m) @ t=0.52
2.61613555333248
% es.Ex (V/m) @ t=0.52
-1.0085775329315667
% es.Ey (V/m) @ t=0.52
0.3204204787880236
% es.Ez (V/m) @ t=0.52
2.61613555333248
% es.tEx (V/m) @ t=0.52
-1.0085775329315703
% es.tEy (V/m) @ t=0.52
0
% es.tEz (V/m) @ t=0.52
2.61613555333248
% V (V) @ t=0.52
0.013776660336696297
% es.normE (V/m) @ t=0.54
2.8692719349246687
% es.EX (V/m) @ t=0.54
-1.022716904751134
% es.EY (V/m) @ t=0.54
0.32491250700413277
% es.EZ (V/m) @ t=0.54
2.652811130020968
% es.tEX (V/m) @ t=0.54
-1.022716904751134
% es.tEY (V/m) @ t=0.54
0
% es.tEZ (V/m) @ t=0.54
2.652811130020961
% es.Ex (V/m) @ t=0.54
-1.022716904751134
% es.Ey (V/m) @ t=0.54
0.32491250700413277
% es.Ez (V/m) @ t=0.54
2.652811130020968
% es.tEx (V/m) @ t=0.54
-1.022716904751134
% es.tEy (V/m) @ t=0.54
0
% es.tEz (V/m) @ t=0.54
2.652811130020961
% V (V) @ t=0.54
0.013969786367925998
% es.normE (V/m) @ t=0.56
2.910172035202941
% es.EX (V/m) @ t=0.56
-1.0372952769000208
% es.EY (V/m) @ t=0.56
0.32954399326319916
% es.EZ (V/m) @ t=0.56
2.6906256751522903
% es.tEX (V/m) @ t=0.56
-1.0372952769000279
% es.tEY (V/m) @ t=0.56
0
% es.tEZ (V/m) @ t=0.56
2.6906256751522886
% es.Ex (V/m) @ t=0.56
-1.0372952769000208
% es.Ey (V/m) @ t=0.56
0.32954399326319916
% es.Ez (V/m) @ t=0.56
2.6906256751522903
% es.tEx (V/m) @ t=0.56
-1.0372952769000279
% es.tEy (V/m) @ t=0.56
0
% es.tEz (V/m) @ t=0.56
2.6906256751522886
% V (V) @ t=0.56
0.014168916632176915
% es.normE (V/m) @ t=0.58
2.951719313851331
% es.EX (V/m) @ t=0.58
-1.0521042823783093
% es.EY (V/m) @ t=0.58
0.33424874523669823
% es.EZ (V/m) @ t=0.58
2.7290385890467554
% es.tEX (V/m) @ t=0.58
-1.0521042823783235
% es.tEY (V/m) @ t=0.58
0
% es.tEZ (V/m) @ t=0.58
2.729038589046752
% es.Ex (V/m) @ t=0.58
-1.0521042823783093
% es.Ey (V/m) @ t=0.58
0.33424874523669823
% es.Ez (V/m) @ t=0.58
2.7290385890467554
% es.tEx (V/m) @ t=0.58
-1.0521042823783235
% es.tEy (V/m) @ t=0.58
0
% es.tEz (V/m) @ t=0.58
2.729038589046752
% V (V) @ t=0.58
0.014371201281879922
% es.normE (V/m) @ t=0.6
2.993665625024109
% es.EX (V/m) @ t=0.6
-1.0670554900745546
% es.EY (V/m) @ t=0.6
0.338998670850595
% es.EZ (V/m) @ t=0.6
2.7678204407937477
% es.tEX (V/m) @ t=0.6
-1.0670554900745688
% es.tEY (V/m) @ t=0.6
0
% es.tEZ (V/m) @ t=0.6
2.7678204407937432
% es.Ex (V/m) @ t=0.6
-1.0670554900745546
% es.Ey (V/m) @ t=0.6
0.338998670850595
% es.Ez (V/m) @ t=0.6
2.7678204407937477
% es.tEx (V/m) @ t=0.6
-1.0670554900745688
% es.tEy (V/m) @ t=0.6
0
% es.tEz (V/m) @ t=0.6
2.7678204407937432
% V (V) @ t=0.6
0.014575430839583514
% es.normE (V/m) @ t=0.62
3.036010968721281
% es.EX (V/m) @ t=0.62
-1.0821488999887494
% es.EY (V/m) @ t=0.62
0.34379377010494094
% es.EZ (V/m) @ t=0.62
2.8069712303932635
% es.tEX (V/m) @ t=0.62
-1.0821488999887636
% es.tEY (V/m) @ t=0.62
0
% es.tEZ (V/m) @ t=0.62
2.8069712303932697
% es.Ex (V/m) @ t=0.62
-1.0821488999887494
% es.Ey (V/m) @ t=0.62
0.34379377010494094
% es.Ez (V/m) @ t=0.62
2.8069712303932635
% es.tEx (V/m) @ t=0.62
-1.0821488999887636
% es.tEy (V/m) @ t=0.62
0
% es.tEz (V/m) @ t=0.62
2.8069712303932697
% V (V) @ t=0.62
0.01478160530528768
% es.normE (V/m) @ t=0.64
3.0787553449428726
% es.EX (V/m) @ t=0.64
-1.0973845121208938
% es.EY (V/m) @ t=0.64
0.3486340429997197
% es.EZ (V/m) @ t=0.64
2.8464909578453224
% es.tEX (V/m) @ t=0.64
-1.097384512120908
% es.tEY (V/m) @ t=0.64
0
% es.tEZ (V/m) @ t=0.64
2.8464909578453135
% es.Ex (V/m) @ t=0.64
-1.0973845121208938
% es.Ey (V/m) @ t=0.64
0.3486340429997197
% es.Ez (V/m) @ t=0.64
2.8464909578453224
% es.tEx (V/m) @ t=0.64
-1.097384512120908
% es.tEy (V/m) @ t=0.64
0
% es.tEz (V/m) @ t=0.64
2.8464909578453135
% V (V) @ t=0.64
0.014989724678992428
% es.normE (V/m) @ t=0.66
3.1218987536888703
% es.EX (V/m) @ t=0.66
-1.112762326471002
% es.EY (V/m) @ t=0.66
0.3535194895349114
% es.EZ (V/m) @ t=0.66
2.8863796231498995
% es.tEX (V/m) @ t=0.66
-1.1127623264710305
% es.tEY (V/m) @ t=0.66
0
% es.tEZ (V/m) @ t=0.66
2.886379623149896
% es.Ex (V/m) @ t=0.66
-1.112762326471002
% es.Ey (V/m) @ t=0.66
0.3535194895349114
% es.Ez (V/m) @ t=0.66
2.8863796231498995
% es.tEx (V/m) @ t=0.66
-1.1127623264710305
% es.tEy (V/m) @ t=0.66
0
% es.tEz (V/m) @ t=0.66
2.886379623149896
% V (V) @ t=0.66
0.015199788960697758
% es.normE (V/m) @ t=0.68
3.1654411949592793
% es.EX (V/m) @ t=0.68
-1.1282823430390525
% es.EY (V/m) @ t=0.68
0.3584501097105226
% es.EZ (V/m) @ t=0.68
2.926637226306994
% es.tEX (V/m) @ t=0.68
-1.1282823430390596
% es.tEY (V/m) @ t=0.68
0
% es.tEZ (V/m) @ t=0.68
2.9266372263069993
% es.Ex (V/m) @ t=0.68
-1.1282823430390525
% es.Ey (V/m) @ t=0.68
0.3584501097105226
% es.Ez (V/m) @ t=0.68
2.926637226306994
% es.tEx (V/m) @ t=0.68
-1.1282823430390596
% es.tEy (V/m) @ t=0.68
0
% es.tEz (V/m) @ t=0.68
2.9266372263069993
% V (V) @ t=0.68
0.01541179815040367
% es.normE (V/m) @ t=0.7
3.209382668754146
% es.EX (V/m) @ t=0.7
-1.143944561825081
% es.EY (V/m) @ t=0.7
0.36342590352653037
% es.EZ (V/m) @ t=0.7
2.967263767316628
% es.tEX (V/m) @ t=0.7
-1.1439445618250952
% es.tEY (V/m) @ t=0.7
0
% es.tEZ (V/m) @ t=0.7
2.9672637673166307
% es.Ex (V/m) @ t=0.7
-1.143944561825081
% es.Ey (V/m) @ t=0.7
0.36342590352653037
% es.Ez (V/m) @ t=0.7
2.967263767316628
% es.tEx (V/m) @ t=0.7
-1.1439445618250952
% es.tEy (V/m) @ t=0.7
0
% es.tEz (V/m) @ t=0.7
2.9672637673166307
% V (V) @ t=0.7
0.01562575224811016
% es.normE (V/m) @ t=0.72
3.2537231750734525
% es.EX (V/m) @ t=0.72
-1.1597489828290235
% es.EY (V/m) @ t=0.72
0.36844687098300866
% es.EZ (V/m) @ t=0.72
3.008259246178782
% es.tEX (V/m) @ t=0.72
-1.1597489828290377
% es.tEY (V/m) @ t=0.72
0
% es.tEZ (V/m) @ t=0.72
3.008259246178783
% es.Ex (V/m) @ t=0.72
-1.1597489828290235
% es.Ey (V/m) @ t=0.72
0.36844687098300866
% es.Ez (V/m) @ t=0.72
3.008259246178782
% es.tEx (V/m) @ t=0.72
-1.1597489828290377
% es.tEy (V/m) @ t=0.72
0
% es.tEz (V/m) @ t=0.72
3.008259246178783
% V (V) @ t=0.72
0.01584165125381723
% es.normE (V/m) @ t=0.74
3.298462713917245
% es.EX (V/m) @ t=0.74
-1.175695606050944
% es.EY (V/m) @ t=0.74
0.3735130120798802
% es.EZ (V/m) @ t=0.74
3.049623662893471
% es.tEX (V/m) @ t=0.74
-1.1756956060509582
% es.tEY (V/m) @ t=0.74
0
% es.tEZ (V/m) @ t=0.74
3.0496236628934756
% es.Ex (V/m) @ t=0.74
-1.175695606050944
% es.Ey (V/m) @ t=0.74
0.3735130120798802
% es.Ez (V/m) @ t=0.74
3.049623662893471
% es.tEx (V/m) @ t=0.74
-1.1756956060509582
% es.tEy (V/m) @ t=0.74
0
% es.tEz (V/m) @ t=0.74
3.0496236628934756
% V (V) @ t=0.74
0.01605949516752488
% es.normE (V/m) @ t=0.76
3.343601285285538
% es.EX (V/m) @ t=0.76
-1.191784431490821
% es.EY (V/m) @ t=0.76
0.37862432681717717
% es.EZ (V/m) @ t=0.76
3.091357017460692
% es.tEX (V/m) @ t=0.76
-1.1917844314908281
% es.tEY (V/m) @ t=0.76
0
% es.tEZ (V/m) @ t=0.76
3.0913570174606964
% es.Ex (V/m) @ t=0.76
-1.191784431490821
% es.Ey (V/m) @ t=0.76
0.37862432681717717
% es.Ez (V/m) @ t=0.76
3.091357017460692
% es.tEx (V/m) @ t=0.76
-1.1917844314908281
% es.tEy (V/m) @ t=0.76
0
% es.tEz (V/m) @ t=0.76
3.0913570174606964
% V (V) @ t=0.76
0.016279283989233114
% es.normE (V/m) @ t=0.78
3.3891388891783296
% es.EX (V/m) @ t=0.78
-1.2080154591486474
% es.EY (V/m) @ t=0.78
0.3837808151948896
% es.EZ (V/m) @ t=0.78
3.133459309880423
% es.tEX (V/m) @ t=0.78
-1.2080154591486616
% es.tEY (V/m) @ t=0.78
0
% es.tEZ (V/m) @ t=0.78
3.1334593098804326
% es.Ex (V/m) @ t=0.78
-1.2080154591486474
% es.Ey (V/m) @ t=0.78
0.3837808151948896
% es.Ez (V/m) @ t=0.78
3.133459309880423
% es.tEx (V/m) @ t=0.78
-1.2080154591486616
% es.tEy (V/m) @ t=0.78
0
% es.tEz (V/m) @ t=0.78
3.1334593098804326
% V (V) @ t=0.78
0.016501017718941927
% es.normE (V/m) @ t=0.8
3.435075525595644
% es.EX (V/m) @ t=0.8
-1.224388689024388
% es.EY (V/m) @ t=0.8
0.3889824772130406
% es.EZ (V/m) @ t=0.8
3.1759305401526783
% es.tEX (V/m) @ t=0.8
-1.2243886890244022
% es.tEY (V/m) @ t=0.8
0
% es.tEZ (V/m) @ t=0.8
3.1759305401526685
% es.Ex (V/m) @ t=0.8
-1.224388689024388
% es.Ey (V/m) @ t=0.8
0.3889824772130406
% es.Ez (V/m) @ t=0.8
3.1759305401526783
% es.tEx (V/m) @ t=0.8
-1.2243886890244022
% es.tEy (V/m) @ t=0.8
0
% es.tEz (V/m) @ t=0.8
3.1759305401526685
% V (V) @ t=0.8
0.016724696356651324
% es.normE (V/m) @ t=0.82
3.4815826048634024
% es.EX (V/m) @ t=0.82
-1.2409653424097056
% es.EY (V/m) @ t=0.82
0.39424877744024034
% es.EZ (V/m) @ t=0.82
3.2189291484884546
% es.tEX (V/m) @ t=0.82
-1.240965342409727
% es.tEY (V/m) @ t=0.82
0
% es.tEZ (V/m) @ t=0.82
3.2189291484884563
% es.Ex (V/m) @ t=0.82
-1.2409653424097056
% es.Ey (V/m) @ t=0.82
0.39424877744024034
% es.Ez (V/m) @ t=0.82
3.2189291484884546
% es.tEx (V/m) @ t=0.82
-1.240965342409727
% es.tEy (V/m) @ t=0.82
0
% es.tEz (V/m) @ t=0.82
3.2189291484884563
% V (V) @ t=0.82
0.016951145093259255
% es.normE (V/m) @ t=0.84
3.5291555844763294
% es.EX (V/m) @ t=0.84
-1.2579223780004753
% es.EY (V/m) @ t=0.84
0.3996359777519176
% es.EZ (V/m) @ t=0.84
3.2629131025721216
% es.tEX (V/m) @ t=0.84
-1.2579223780004896
% es.tEY (V/m) @ t=0.84
0
% es.tEZ (V/m) @ t=0.84
3.262913102572117
% es.Ex (V/m) @ t=0.84
-1.2579223780004753
% es.Ey (V/m) @ t=0.84
0.3996359777519176
% es.Ez (V/m) @ t=0.84
3.2629131025721216
% es.tEx (V/m) @ t=0.84
-1.2579223780004896
% es.tEy (V/m) @ t=0.84
0
% es.tEz (V/m) @ t=0.84
3.262913102572117
% V (V) @ t=0.84
0.017182749123548932
% es.normE (V/m) @ t=0.86
3.5772391119307088
% es.EX (V/m) @ t=0.86
-1.2750614448667479
% es.EY (V/m) @ t=0.86
0.4050810148707775
% es.EZ (V/m) @ t=0.86
3.3073690717893713
% es.tEX (V/m) @ t=0.86
-1.2750614448667692
% es.tEY (V/m) @ t=0.86
0
% es.tEZ (V/m) @ t=0.86
3.3073690717893722
% es.Ex (V/m) @ t=0.86
-1.2750614448667479
% es.Ey (V/m) @ t=0.86
0.4050810148707775
% es.Ez (V/m) @ t=0.86
3.3073690717893713
% es.tEx (V/m) @ t=0.86
-1.2750614448667692
% es.tEy (V/m) @ t=0.86
0
% es.tEz (V/m) @ t=0.86
3.3073690717893722
% V (V) @ t=0.86
0.0174168349106202
% es.normE (V/m) @ t=0.88
3.6258331872266023
% es.EX (V/m) @ t=0.88
-1.2923825430085158
% es.EY (V/m) @ t=0.88
0.410583888796793
% es.EZ (V/m) @ t=0.88
3.3522970561402223
% es.tEX (V/m) @ t=0.88
-1.2923825430085372
% es.tEY (V/m) @ t=0.88
0
% es.tEZ (V/m) @ t=0.88
3.352297056140223
% es.Ex (V/m) @ t=0.88
-1.2923825430085158
% es.Ey (V/m) @ t=0.88
0.410583888796793
% es.Ez (V/m) @ t=0.88
3.3522970561402223
% es.tEx (V/m) @ t=0.88
-1.2923825430085372
% es.tEy (V/m) @ t=0.88
0
% es.tEz (V/m) @ t=0.88
3.352297056140223
% V (V) @ t=0.88
0.017653402454473045
% es.normE (V/m) @ t=0.9
3.6749378103640646
% es.EX (V/m) @ t=0.9
-1.3098856724257355
% es.EY (V/m) @ t=0.9
0.41614459952999017
% es.EZ (V/m) @ t=0.9
3.3976970556246817
% es.tEX (V/m) @ t=0.9
-1.309885672425764
% es.tEY (V/m) @ t=0.9
0
% es.tEZ (V/m) @ t=0.9
3.3976970556246826
% es.Ex (V/m) @ t=0.9
-1.3098856724257355
% es.Ey (V/m) @ t=0.9
0.41614459952999017
% es.Ez (V/m) @ t=0.9
3.3976970556246817
% es.tEx (V/m) @ t=0.9
-1.309885672425764
% es.tEy (V/m) @ t=0.9
0
% es.tEz (V/m) @ t=0.9
3.3976970556246826
% V (V) @ t=0.9
0.017892451755107477
% es.normE (V/m) @ t=0.92
3.7245529813431735
% es.EX (V/m) @ t=0.92
-1.32757083311848
% es.EY (V/m) @ t=0.92
0.42176314707035
% es.EZ (V/m) @ t=0.92
3.443569070242746
% es.tEX (V/m) @ t=0.92
-1.327570833118494
% es.tEY (V/m) @ t=0.92
0
% es.tEZ (V/m) @ t=0.92
3.443569070242747
% es.Ex (V/m) @ t=0.92
-1.32757083311848
% es.Ey (V/m) @ t=0.92
0.42176314707035
% es.Ez (V/m) @ t=0.92
3.443569070242746
% es.tEx (V/m) @ t=0.92
-1.327570833118494
% es.tEy (V/m) @ t=0.92
0
% es.tEz (V/m) @ t=0.92
3.443569070242747
% V (V) @ t=0.92
0.018133982812523493
% es.normE (V/m) @ t=0.94
3.774678700163963
% es.EX (V/m) @ t=0.94
-1.345438025086691
% es.EY (V/m) @ t=0.94
0.42743953141786184
% es.EZ (V/m) @ t=0.94
3.489913099994406
% es.tEX (V/m) @ t=0.94
-1.3454380250867124
% es.tEY (V/m) @ t=0.94
0
% es.tEZ (V/m) @ t=0.94
3.489913099994398
% es.Ex (V/m) @ t=0.94
-1.345438025086691
% es.Ey (V/m) @ t=0.94
0.42743953141786184
% es.Ez (V/m) @ t=0.94
3.489913099994406
% es.tEx (V/m) @ t=0.94
-1.3454380250867124
% es.tEy (V/m) @ t=0.94
0
% es.tEz (V/m) @ t=0.94
3.489913099994398
% V (V) @ t=0.94
0.01837799562672109
% es.normE (V/m) @ t=0.96
3.8253149668265185
% es.EX (V/m) @ t=0.96
-1.3634872483303475
% es.EY (V/m) @ t=0.96
0.4331737525725772
% es.EZ (V/m) @ t=0.96
3.5367291448796756
% es.tEX (V/m) @ t=0.96
-1.3634872483303617
% es.tEY (V/m) @ t=0.96
0
% es.tEZ (V/m) @ t=0.96
3.5367291448796827
% es.Ex (V/m) @ t=0.96
-1.3634872483303475
% es.Ey (V/m) @ t=0.96
0.4331737525725772
% es.Ez (V/m) @ t=0.96
3.5367291448796756
% es.tEx (V/m) @ t=0.96
-1.3634872483303617
% es.tEy (V/m) @ t=0.96
0
% es.tEz (V/m) @ t=0.96
3.5367291448796827
% V (V) @ t=0.96
0.018624490197700266
% es.normE (V/m) @ t=0.98
3.8764617813308755
% es.EX (V/m) @ t=0.98
-1.381718502849442
% es.EY (V/m) @ t=0.98
0.43896581053446493
% es.EZ (V/m) @ t=0.98
3.584017204898517
% es.tEX (V/m) @ t=0.98
-1.3817185028494563
% es.tEY (V/m) @ t=0.98
0
% es.tEZ (V/m) @ t=0.98
3.5840172048985153
% es.Ex (V/m) @ t=0.98
-1.381718502849442
% es.Ey (V/m) @ t=0.98
0.43896581053446493
% es.Ez (V/m) @ t=0.98
3.584017204898517
% es.tEx (V/m) @ t=0.98
-1.3817185028494563
% es.tEy (V/m) @ t=0.98
0
% es.tEz (V/m) @ t=0.98
3.5840172048985153
% V (V) @ t=0.98
0.018873466525461034
% es.normE (V/m) @ t=1
3.9281191436772307
% es.EX (V/m) @ t=1
-1.4001317886441178
% es.EY (V/m) @ t=1
0.44481570530348513
% es.EZ (V/m) @ t=1
3.6317772800510095
% es.tEX (V/m) @ t=1
-1.4001317886441391
% es.tEY (V/m) @ t=1
0
% es.tEZ (V/m) @ t=1
3.6317772800510113
% es.Ex (V/m) @ t=1
-1.4001317886441178
% es.Ey (V/m) @ t=1
0.44481570530348513
% es.Ez (V/m) @ t=1
3.6317772800510095
% es.tEx (V/m) @ t=1
-1.4001317886441391
% es.tEy (V/m) @ t=1
0
% es.tEz (V/m) @ t=1
3.6317772800510113
% V (V) @ t=1
0.019124924610003383
% es.normE (V/m) @ t=1.02
3.980287053865551
% es.EX (V/m) @ t=1.02
-1.4187271057142246
% es.EY (V/m) @ t=1.02
0.4507234368796529
% es.EZ (V/m) @ t=1.02
3.68000937033708
% es.tEX (V/m) @ t=1.02
-1.4187271057142388
% es.tEY (V/m) @ t=1.02
0
% es.tEZ (V/m) @ t=1.02
3.6800093703370784
% es.Ex (V/m) @ t=1.02
-1.4187271057142246
% es.Ey (V/m) @ t=1.02
0.4507234368796529
% es.Ez (V/m) @ t=1.02
3.68000937033708
% es.tEx (V/m) @ t=1.02
-1.4187271057142388
% es.tEy (V/m) @ t=1.02
0
% es.tEz (V/m) @ t=1.02
3.6800093703370784
% V (V) @ t=1.02
0.01937886445132731
% es.normE (V/m) @ t=1.04
4.03296551189595
% es.EX (V/m) @ t=1.04
-1.437504454059784
% es.EY (V/m) @ t=1.04
0.4566890052630237
% es.EZ (V/m) @ t=1.04
3.728713475756747
% es.tEX (V/m) @ t=1.04
-1.4375044540597983
% es.tEY (V/m) @ t=1.04
0
% es.tEZ (V/m) @ t=1.04
3.728713475756738
% es.Ex (V/m) @ t=1.04
-1.437504454059784