% Model:              1 neuron.mph
% Version:            COMSOL 6.1.0.252
% Date:               Mar 18 2023, 13:53
% Dimension:          0
% Nodes:              14017
% Expressions:        14017
% Description:        Electric field norm, Electric field, X component, Electric field, Y component, Electric field, Z component, Tangential electric field, X component, Tangential electric field, Y component, Tangential electric field, Z component, Electric field, x component, Electric field, y component, Electric field, z component, Tangential electric field, x component, Tangential electric field, y component, Tangential electric field, z component, Electric potential
% Length unit:        mm
% x
1.0000000000000002
% y
12.2
% z
2
% es.normE (V/m) @ t=0
2.007012149558128
% es.EX (V/m) @ t=0
1.3940756757704507
% es.EY (V/m) @ t=0
0.20872169981849986
% es.EZ (V/m) @ t=0
-1.3920701434619236
% es.tEX (V/m) @ t=0
1.39407567577046
% es.tEY (V/m) @ t=0
0
% es.tEZ (V/m) @ t=0
-1.3920701434618872
% es.Ex (V/m) @ t=0
1.3940756757704507
% es.Ey (V/m) @ t=0
0.20872169981849986
% es.Ez (V/m) @ t=0
-1.3920701434619236
% es.tEx (V/m) @ t=0
1.39407567577046
% es.tEy (V/m) @ t=0
0
% es.tEz (V/m) @ t=0
-1.3920701434618872
% V (V) @ t=0
0.021493819304652197
% es.normE (V/m) @ t=0.02
1.8808835011730012
% es.EX (V/m) @ t=0.02
1.3064724659568405
% es.EY (V/m) @ t=0.02
0.19562924403449322
% es.EZ (V/m) @ t=0.02
-1.304574302316437
% es.tEX (V/m) @ t=0.02
1.3064724659568503
% es.tEY (V/m) @ t=0.02
0
% es.tEZ (V/m) @ t=0.02
-1.304574302316408
% es.Ex (V/m) @ t=0.02
1.3064724659568405
% es.Ey (V/m) @ t=0.02
0.19562924403449322
% es.Ez (V/m) @ t=0.02
-1.304574302316437
% es.tEx (V/m) @ t=0.02
1.3064724659568503
% es.tEy (V/m) @ t=0.02
0
% es.tEz (V/m) @ t=0.02
-1.304574302316408
% V (V) @ t=0.02
0.020141826119200158
% es.normE (V/m) @ t=0.04
1.9082754907240758
% es.EX (V/m) @ t=0.04
1.3254990989797792
% es.EY (V/m) @ t=0.04
0.19847826378620959
% es.EZ (V/m) @ t=0.04
-1.323573291686721
% es.tEX (V/m) @ t=0.04
1.3254990989797788
% es.tEY (V/m) @ t=0.04
0
% es.tEZ (V/m) @ t=0.04
-1.3235732916866993
% es.Ex (V/m) @ t=0.04
1.3254990989797792
% es.Ey (V/m) @ t=0.04
0.19847826378620959
% es.Ez (V/m) @ t=0.04
-1.323573291686721
% es.tEx (V/m) @ t=0.04
1.3254990989797788
% es.tEy (V/m) @ t=0.04
0
% es.tEz (V/m) @ t=0.04
-1.3235732916866993
% V (V) @ t=0.04
0.020435158847700738
% es.normE (V/m) @ t=0.06
1.9360341908066587
% es.EX (V/m) @ t=0.06
1.3447804511387957
% es.EY (V/m) @ t=0.06
0.2013654241278634
% es.EZ (V/m) @ t=0.06
-1.3428266305261571
% es.tEX (V/m) @ t=0.06
1.3447804511387984
% es.tEY (V/m) @ t=0.06
0
% es.tEZ (V/m) @ t=0.06
-1.3428266305261491
% es.Ex (V/m) @ t=0.06
1.3447804511387957
% es.Ey (V/m) @ t=0.06
0.2013654241278634
% es.Ez (V/m) @ t=0.06
-1.3428266305261571
% es.tEx (V/m) @ t=0.06
1.3447804511387984
% es.tEy (V/m) @ t=0.06
0
% es.tEz (V/m) @ t=0.06
-1.3428266305261491
% V (V) @ t=0.06
0.0207324185963836
% es.normE (V/m) @ t=0.08
1.9644310249279697
% es.EX (V/m) @ t=0.08
1.3645050548855946
% es.EY (V/m) @ t=0.08
0.204318956613876
% es.EZ (V/m) @ t=0.08
-1.3625225768054525
% es.tEX (V/m) @ t=0.08
1.3645050548855906
% es.tEY (V/m) @ t=0.08
0
% es.tEZ (V/m) @ t=0.08
-1.3625225768054374
% es.Ex (V/m) @ t=0.08
1.3645050548855946
% es.Ey (V/m) @ t=0.08
0.204318956613876
% es.Ez (V/m) @ t=0.08
-1.3625225768054525
% es.tEx (V/m) @ t=0.08
1.3645050548855906
% es.tEy (V/m) @ t=0.08
0
% es.tEz (V/m) @ t=0.08
-1.3625225768054374
% V (V) @ t=0.08
0.021036511923737365
% es.normE (V/m) @ t=0.1
1.992827859049281
% es.EX (V/m) @ t=0.1
1.3842296586323948
% es.EY (V/m) @ t=0.1
0.2072724890998625
% es.EZ (V/m) @ t=0.1
-1.3822185230847555
% es.tEX (V/m) @ t=0.1
1.384229658632405
% es.tEY (V/m) @ t=0.1
0
% es.tEZ (V/m) @ t=0.1
-1.3822185230847408
% es.Ex (V/m) @ t=0.1
1.3842296586323948
% es.Ey (V/m) @ t=0.1
0.2072724890998625
% es.Ez (V/m) @ t=0.1
-1.3822185230847555
% es.tEx (V/m) @ t=0.1
1.384229658632405
% es.tEy (V/m) @ t=0.1
0
% es.tEz (V/m) @ t=0.1
-1.3822185230847408
% V (V) @ t=0.1
0.02134060525109113
% es.normE (V/m) @ t=0.12
2.0220903688093337
% es.EX (V/m) @ t=0.12
1.404555566149059
% es.EY (V/m) @ t=0.12
0.21031606137572734
% es.EZ (V/m) @ t=0.12
-1.4025148981128455
% es.tEX (V/m) @ t=0.12
1.4045555661490638
% es.tEY (V/m) @ t=0.12
0
% es.tEZ (V/m) @ t=0.12
-1.402514898112809
% es.Ex (V/m) @ t=0.12
1.404555566149059
% es.Ey (V/m) @ t=0.12
0.21031606137572734
% es.Ez (V/m) @ t=0.12
-1.4025148981128455
% es.tEx (V/m) @ t=0.12
1.4045555661490638
% es.tEy (V/m) @ t=0.12
0
% es.tEz (V/m) @ t=0.12
-1.402514898112809
% V (V) @ t=0.12
0.021653968755981027
% es.normE (V/m) @ t=0.14
2.0522287367630057
% es.EX (V/m) @ t=0.14
1.4254898503025188
% es.EY (V/m) @ t=0.14
0.21345073253910796
% es.EZ (V/m) @ t=0.14
-1.4234187644642606
% es.tEX (V/m) @ t=0.14
1.4254898503025215
% es.tEY (V/m) @ t=0.14
0
% es.tEZ (V/m) @ t=0.14
-1.4234187644642464
% es.Ex (V/m) @ t=0.14
1.4254898503025188
% es.Ey (V/m) @ t=0.14
0.21345073253910796
% es.Ez (V/m) @ t=0.14
-1.4234187644642606
% es.tEx (V/m) @ t=0.14
1.4254898503025215
% es.tEy (V/m) @ t=0.14
0
% es.tEz (V/m) @ t=0.14
-1.4234187644642464
% V (V) @ t=0.14
0.021976711479353574
% es.normE (V/m) @ t=0.16
2.0823671047166514
% es.EX (V/m) @ t=0.16
1.4464241344559823
% es.EY (V/m) @ t=0.16
0.21658540370253831
% es.EZ (V/m) @ t=0.16
-1.444322630815626
% es.tEX (V/m) @ t=0.16
1.446424134455989
% es.tEY (V/m) @ t=0.16
0
% es.tEZ (V/m) @ t=0.16
-1.444322630815611
% es.Ex (V/m) @ t=0.16
1.4464241344559823
% es.Ey (V/m) @ t=0.16
0.21658540370253831
% es.Ez (V/m) @ t=0.16
-1.444322630815626
% es.tEx (V/m) @ t=0.16
1.446424134455989
% es.tEy (V/m) @ t=0.16
0
% es.tEz (V/m) @ t=0.16
-1.444322630815611
% V (V) @ t=0.16
0.022299454202726117
% es.normE (V/m) @ t=0.18
2.112505472670321
% es.EX (V/m) @ t=0.18
1.4673584186094581
% es.EY (V/m) @ t=0.18
0.2197200748659437
% es.EZ (V/m) @ t=0.18
-1.4652264971670137
% es.tEX (V/m) @ t=0.18
1.4673584186094608
% es.tEY (V/m) @ t=0.18
0
% es.tEZ (V/m) @ t=0.18
-1.4652264971669915
% es.Ex (V/m) @ t=0.18
1.4673584186094581
% es.Ey (V/m) @ t=0.18
0.2197200748659437
% es.Ez (V/m) @ t=0.18
-1.4652264971670137
% es.tEx (V/m) @ t=0.18
1.4673584186094608
% es.tEy (V/m) @ t=0.18
0
% es.tEz (V/m) @ t=0.18
-1.4652264971669915
% V (V) @ t=0.18
0.02262219692609866
% es.normE (V/m) @ t=0.2
2.1426438406239727
% es.EX (V/m) @ t=0.2
1.4882927027629225
% es.EY (V/m) @ t=0.2
0.22285474602932998
% es.EZ (V/m) @ t=0.2
-1.4861303635183987
% es.tEX (V/m) @ t=0.2
1.4882927027629202
% es.tEY (V/m) @ t=0.2
0
% es.tEZ (V/m) @ t=0.2
-1.4861303635183702
% es.Ex (V/m) @ t=0.2
1.4882927027629225
% es.Ey (V/m) @ t=0.2
0.22285474602932998
% es.Ez (V/m) @ t=0.2
-1.4861303635183987
% es.tEx (V/m) @ t=0.2
1.4882927027629202
% es.tEy (V/m) @ t=0.2
0
% es.tEz (V/m) @ t=0.2
-1.4861303635183702
% V (V) @ t=0.2
0.0229449396494712
% es.normE (V/m) @ t=0.22
2.172782208577637
% es.EX (V/m) @ t=0.22
1.5092269869164032
% es.EY (V/m) @ t=0.22
0.22598941719272658
% es.EZ (V/m) @ t=0.22
-1.5070342298697783
% es.tEX (V/m) @ t=0.22
1.509226986916408
% es.tEY (V/m) @ t=0.22
0
% es.tEZ (V/m) @ t=0.22
-1.507034229869749
% es.Ex (V/m) @ t=0.22
1.5092269869164032
% es.Ey (V/m) @ t=0.22
0.22598941719272658
% es.Ez (V/m) @ t=0.22
-1.5070342298697783
% es.tEx (V/m) @ t=0.22
1.509226986916408
% es.tEy (V/m) @ t=0.22
0
% es.tEz (V/m) @ t=0.22
-1.507034229869749
% V (V) @ t=0.22
0.023267682372843736
% es.normE (V/m) @ t=0.24
2.204670006751466
% es.EX (V/m) @ t=0.24
1.5313764347056167
% es.EY (V/m) @ t=0.24
0.2293060439206216
% es.EZ (V/m) @ t=0.24
-1.5291514958763353
% es.tEX (V/m) @ t=0.24
1.5313764347056216
% es.tEY (V/m) @ t=0.24
0
% es.tEZ (V/m) @ t=0.24
-1.5291514958762988
% es.Ex (V/m) @ t=0.24
1.5313764347056167
% es.Ey (V/m) @ t=0.24
0.2293060439206216
% es.Ez (V/m) @ t=0.24
-1.5291514958763353
% es.tEx (V/m) @ t=0.24
1.5313764347056216
% es.tEy (V/m) @ t=0.24
0
% es.tEz (V/m) @ t=0.24
-1.5291514958762988
% V (V) @ t=0.24
0.023609159324858246
% es.normE (V/m) @ t=0.26
2.2365617209508644
% es.EX (V/m) @ t=0.26
1.5535286025872455
% es.EY (V/m) @ t=0.26
0.23262307794832238
% es.EZ (V/m) @ t=0.26
-1.551271478026714
% es.tEX (V/m) @ t=0.26
1.5535286025872486
% es.tEY (V/m) @ t=0.26
0
% es.tEZ (V/m) @ t=0.26
-1.5512714780266919
% es.Ex (V/m) @ t=0.26
1.5535286025872455
% es.Ey (V/m) @ t=0.26
0.23262307794832238
% es.Ez (V/m) @ t=0.26
-1.551271478026714
% es.tEx (V/m) @ t=0.26
1.5535286025872486
% es.tEy (V/m) @ t=0.26
0
% es.tEz (V/m) @ t=0.26
-1.5512714780266919
% V (V) @ t=0.26
0.023950678212651122
% es.normE (V/m) @ t=0.28
2.2684534351502674
% es.EX (V/m) @ t=0.28
1.575680770468879
% es.EY (V/m) @ t=0.28
0.23594011197604225
% es.EZ (V/m) @ t=0.28
-1.573391460177091
% es.tEX (V/m) @ t=0.28
1.5756807704688836
% es.tEY (V/m) @ t=0.28
0
% es.tEZ (V/m) @ t=0.28
-1.5733914601770689
% es.Ex (V/m) @ t=0.28
1.575680770468879
% es.Ey (V/m) @ t=0.28
0.23594011197604225
% es.Ez (V/m) @ t=0.28
-1.573391460177091
% es.tEx (V/m) @ t=0.28
1.5756807704688836
% es.tEy (V/m) @ t=0.28
0
% es.tEz (V/m) @ t=0.28
-1.5733914601770689
% V (V) @ t=0.28
0.024292197100444002
% es.normE (V/m) @ t=0.3
2.300345149349658
% es.EX (V/m) @ t=0.3
1.5978329383505092
% es.EY (V/m) @ t=0.3
0.2392571460037165
% es.EZ (V/m) @ t=0.3
-1.5955114423274628
% es.tEX (V/m) @ t=0.3
1.5978329383505194
% es.tEY (V/m) @ t=0.3
0
% es.tEZ (V/m) @ t=0.3
-1.5955114423274335
% es.Ex (V/m) @ t=0.3
1.5978329383505092
% es.Ey (V/m) @ t=0.3
0.2392571460037165
% es.Ez (V/m) @ t=0.3
-1.5955114423274628
% es.tEx (V/m) @ t=0.3
1.5978329383505194
% es.tEy (V/m) @ t=0.3
0
% es.tEz (V/m) @ t=0.3
-1.5955114423274335
% V (V) @ t=0.3
0.024633715988236878
% es.normE (V/m) @ t=0.32
2.3322368635490713
% es.EX (V/m) @ t=0.32
1.6199851062321429
% es.EY (V/m) @ t=0.32
0.24257418003147901
% es.EZ (V/m) @ t=0.32
-1.617631424477847
% es.tEX (V/m) @ t=0.32
1.6199851062321473
% es.tEY (V/m) @ t=0.32
0
% es.tEZ (V/m) @ t=0.32
-1.6176314244778247
% es.Ex (V/m) @ t=0.32
1.6199851062321429
% es.Ey (V/m) @ t=0.32
0.24257418003147901
% es.Ez (V/m) @ t=0.32
-1.617631424477847
% es.tEx (V/m) @ t=0.32
1.6199851062321473
% es.tEy (V/m) @ t=0.32
0
% es.tEz (V/m) @ t=0.32
-1.6176314244778247
% V (V) @ t=0.32
0.02497523487602976
% es.normE (V/m) @ t=0.34
2.365870672885547
% es.EX (V/m) @ t=0.34
1.6433473428026892
% es.EY (V/m) @ t=0.34
0.2460724063199935
% es.EZ (V/m) @ t=0.34
-1.6409597187731828
% es.tEX (V/m) @ t=0.34
1.6433473428026995
% es.tEY (V/m) @ t=0.34
0
% es.tEZ (V/m) @ t=0.34
-1.6409597187731464
% es.Ex (V/m) @ t=0.34
1.6433473428026892
% es.Ey (V/m) @ t=0.34
0.2460724063199935
% es.Ez (V/m) @ t=0.34
-1.6409597187731828
% es.tEx (V/m) @ t=0.34
1.6433473428026995
% es.tEy (V/m) @ t=0.34
0
% es.tEz (V/m) @ t=0.34
-1.6409597187731464
% V (V) @ t=0.34
0.025335409469715818
% es.normE (V/m) @ t=0.36
2.401257366163468
% es.EX (V/m) @ t=0.36
1.6679271420239146
% es.EY (V/m) @ t=0.36
0.24975294699398964
% es.EZ (V/m) @ t=0.36
-1.6655038082969424
% es.tEX (V/m) @ t=0.36
1.6679271420239177
% es.tEY (V/m) @ t=0.36
0
% es.tEZ (V/m) @ t=0.36
-1.6655038082969131
% es.Ex (V/m) @ t=0.36
1.6679271420239146
% es.Ey (V/m) @ t=0.36
0.24975294699398964
% es.Ez (V/m) @ t=0.36
-1.6655038082969424
% es.tEx (V/m) @ t=0.36
1.6679271420239177
% es.tEy (V/m) @ t=0.36
0
% es.tEz (V/m) @ t=0.36
-1.6655038082969131
% V (V) @ t=0.36
0.025714355304179797
% es.normE (V/m) @ t=0.38
2.4366440594413814
% es.EX (V/m) @ t=0.38
1.6925069412451417
% es.EY (V/m) @ t=0.38
0.2534334876679507
% es.EZ (V/m) @ t=0.38
-1.690047897820702
% es.tEX (V/m) @ t=0.38
1.6925069412451519
% es.tEY (V/m) @ t=0.38
0
% es.tEZ (V/m) @ t=0.38
-1.6900478978206657
% es.Ex (V/m) @ t=0.38
1.6925069412451417
% es.Ey (V/m) @ t=0.38
0.2534334876679507
% es.Ez (V/m) @ t=0.38
-1.690047897820702
% es.tEx (V/m) @ t=0.38
1.6925069412451519
% es.tEy (V/m) @ t=0.38
0
% es.tEz (V/m) @ t=0.38
-1.6900478978206657
% V (V) @ t=0.38
0.026093301138643776
% es.normE (V/m) @ t=0.4
2.472030752719296
% es.EX (V/m) @ t=0.4
1.7170867404663595
% es.EY (V/m) @ t=0.4
0.2571140283419785
% es.EZ (V/m) @ t=0.4
-1.7145919873444706
% es.tEX (V/m) @ t=0.4
1.71708674046637
% es.tEY (V/m) @ t=0.4
0
% es.tEZ (V/m) @ t=0.4
-1.7145919873444342
% es.Ex (V/m) @ t=0.4
1.7170867404663595
% es.Ey (V/m) @ t=0.4
0.2571140283419785
% es.Ez (V/m) @ t=0.4
-1.7145919873444706
% es.tEx (V/m) @ t=0.4
1.71708674046637
% es.tEy (V/m) @ t=0.4
0
% es.tEz (V/m) @ t=0.4
-1.7145919873444342
% V (V) @ t=0.4
0.026472246973107752
% es.normE (V/m) @ t=0.42
2.507417445997203
% es.EX (V/m) @ t=0.42
1.741666539687572
% es.EY (V/m) @ t=0.42
0.26079456901593057
% es.EZ (V/m) @ t=0.42
-1.7391360768682302
% es.tEX (V/m) @ t=0.42
1.741666539687576
% es.tEY (V/m) @ t=0.42
0
% es.tEZ (V/m) @ t=0.42
-1.739136076868201
% es.Ex (V/m) @ t=0.42
1.741666539687572
% es.Ey (V/m) @ t=0.42
0.26079456901593057
% es.Ez (V/m) @ t=0.42
-1.7391360768682302
% es.tEx (V/m) @ t=0.42
1.741666539687576
% es.tEy (V/m) @ t=0.42
0
% es.tEz (V/m) @ t=0.42
-1.739136076868201
% V (V) @ t=0.42
0.026851192807571728
% es.normE (V/m) @ t=0.44
2.542804139275131
% es.EX (V/m) @ t=0.44
1.7662463389087986
% es.EY (V/m) @ t=0.44
0.2644751096899378
% es.EZ (V/m) @ t=0.44
-1.763680166392004
% es.tEX (V/m) @ t=0.44
1.7662463389088074
% es.tEY (V/m) @ t=0.44
0
% es.tEZ (V/m) @ t=0.44
-1.7636801663919677
% es.Ex (V/m) @ t=0.44
1.7662463389087986
% es.Ey (V/m) @ t=0.44
0.2644751096899378
% es.Ez (V/m) @ t=0.44
-1.763680166392004
% es.tEx (V/m) @ t=0.44
1.7662463389088074
% es.tEy (V/m) @ t=0.44
0
% es.tEz (V/m) @ t=0.44
-1.7636801663919677
% V (V) @ t=0.44
0.027230138642035707
% es.normE (V/m) @ t=0.46
2.57819083255302
% es.EX (V/m) @ t=0.46
1.7908261381300172
% es.EY (V/m) @ t=0.46
0.268155650363898
% es.EZ (V/m) @ t=0.46
-1.7882242559157442
% es.tEX (V/m) @ t=0.46
1.7908261381300195
% es.tEY (V/m) @ t=0.46
0
% es.tEZ (V/m) @ t=0.46
-1.7882242559157078
% es.Ex (V/m) @ t=0.46
1.7908261381300172
% es.Ey (V/m) @ t=0.46
0.268155650363898
% es.Ez (V/m) @ t=0.46
-1.7882242559157442
% es.tEx (V/m) @ t=0.46
1.7908261381300195
% es.tEy (V/m) @ t=0.46
0
% es.tEz (V/m) @ t=0.46
-1.7882242559157078
% V (V) @ t=0.46
0.02760908447649969
% es.normE (V/m) @ t=0.48
2.6135775258309453
% es.EX (V/m) @ t=0.48
1.815405937351248
% es.EY (V/m) @ t=0.48
0.2718361910378946
% es.EZ (V/m) @ t=0.48
-1.812768345439511
% es.tEX (V/m) @ t=0.48
1.8154059373512537
% es.tEY (V/m) @ t=0.48
0
% es.tEZ (V/m) @ t=0.48
-1.8127683454394745
% es.Ex (V/m) @ t=0.48
1.815405937351248
% es.Ey (V/m) @ t=0.48
0.2718361910378946
% es.Ez (V/m) @ t=0.48
-1.812768345439511
% es.tEx (V/m) @ t=0.48
1.8154059373512537
% es.tEy (V/m) @ t=0.48
0
% es.tEz (V/m) @ t=0.48
-1.8127683454394745
% V (V) @ t=0.48
0.02798803031096366
% es.normE (V/m) @ t=0.5
2.6489642191088825
% es.EX (V/m) @ t=0.5
1.8399857365724759
% es.EY (V/m) @ t=0.5
0.27551673171190716
% es.EZ (V/m) @ t=0.5
-1.8373124349632919
% es.tEX (V/m) @ t=0.5
1.8399857365724852
% es.tEY (V/m) @ t=0.5
0
% es.tEZ (V/m) @ t=0.5
-1.8373124349632555
% es.Ex (V/m) @ t=0.5
1.8399857365724759
% es.Ey (V/m) @ t=0.5
0.27551673171190716
% es.Ez (V/m) @ t=0.5
-1.8373124349632919
% es.tEx (V/m) @ t=0.5
1.8399857365724852
% es.tEy (V/m) @ t=0.5
0
% es.tEz (V/m) @ t=0.5
-1.8373124349632555
% V (V) @ t=0.5
0.02836697614542765
% es.normE (V/m) @ t=0.52
2.684350912386811
% es.EX (V/m) @ t=0.52
1.8645655357936843
% es.EY (V/m) @ t=0.52
0.27919727238588865
% es.EZ (V/m) @ t=0.52
-1.8618565244870737
% es.tEX (V/m) @ t=0.52
1.86456553579369
% es.tEY (V/m) @ t=0.52
0
% es.tEZ (V/m) @ t=0.52
-1.8618565244870382
% es.Ex (V/m) @ t=0.52
1.8645655357936843
% es.Ey (V/m) @ t=0.52
0.27919727238588865
% es.Ez (V/m) @ t=0.52
-1.8618565244870737
% es.tEx (V/m) @ t=0.52
1.86456553579369
% es.tEy (V/m) @ t=0.52
0
% es.tEz (V/m) @ t=0.52
-1.8618565244870382
% V (V) @ t=0.52
0.028745921979891627
% es.normE (V/m) @ t=0.54
2.7197376056646974
% es.EX (V/m) @ t=0.54
1.8891453350149212
% es.EY (V/m) @ t=0.54
0.28287781305987814
% es.EZ (V/m) @ t=0.54
-1.8864006140107978
% es.tEX (V/m) @ t=0.54
1.8891453350149305
% es.tEY (V/m) @ t=0.54
0
% es.tEZ (V/m) @ t=0.54
-1.8864006140107623
% es.Ex (V/m) @ t=0.54
1.8891453350149212
% es.Ey (V/m) @ t=0.54
0.28287781305987814
% es.Ez (V/m) @ t=0.54
-1.8864006140107978
% es.tEx (V/m) @ t=0.54
1.8891453350149305
% es.tEy (V/m) @ t=0.54
0
% es.tEz (V/m) @ t=0.54
-1.8864006140107623
% V (V) @ t=0.54
0.029124867814355603
% es.normE (V/m) @ t=0.56
2.7565209085152693
% es.EX (V/m) @ t=0.56
1.9146952277450775
% es.EY (V/m) @ t=0.56
0.28670361516221965
% es.EZ (V/m) @ t=0.56
-1.9119133864171536
% es.tEX (V/m) @ t=0.56
1.9146952277450868
% es.tEY (V/m) @ t=0.56
0
% es.tEZ (V/m) @ t=0.56
-1.9119133864171172
% es.Ex (V/m) @ t=0.56
1.9146952277450775
% es.Ey (V/m) @ t=0.56
0.28670361516221965
% es.Ez (V/m) @ t=0.56
-1.9119133864171536
% es.tEx (V/m) @ t=0.56
1.9146952277450868
% es.tEy (V/m) @ t=0.56
0
% es.tEz (V/m) @ t=0.56
-1.9119133864171172
% V (V) @ t=0.56
0.029518769415386517
% es.normE (V/m) @ t=0.58
2.7947017346167877
% es.EX (V/m) @ t=0.58
1.9412158486307276
% es.EY (V/m) @ t=0.58
0.29067477372465456
% es.EZ (V/m) @ t=0.58
-1.9383954754296928
% es.tEX (V/m) @ t=0.58
1.9412158486307352
% es.tEY (V/m) @ t=0.58
0
% es.tEZ (V/m) @ t=0.58
-1.9383954754296635
% es.Ex (V/m) @ t=0.58
1.9412158486307276
% es.Ey (V/m) @ t=0.58
0.29067477372465456
% es.Ez (V/m) @ t=0.58
-1.9383954754296928
% es.tEx (V/m) @ t=0.58
1.9412158486307352
% es.tEy (V/m) @ t=0.58
0
% es.tEz (V/m) @ t=0.58
-1.9383954754296635
% V (V) @ t=0.58
0.02992763656722238
% es.normE (V/m) @ t=0.6
2.8328825607183568
% es.EX (V/m) @ t=0.6
1.9677364695163981
% es.EY (V/m) @ t=0.6
0.2946459322870897
% es.EZ (V/m) @ t=0.6
-1.964877564442289
% es.tEX (V/m) @ t=0.6
1.9677364695163924
% es.tEY (V/m) @ t=0.6
0
% es.tEZ (V/m) @ t=0.6
-1.9648775644422525
% es.Ex (V/m) @ t=0.6
1.9677364695163981
% es.Ey (V/m) @ t=0.6
0.2946459322870897
% es.Ez (V/m) @ t=0.6
-1.964877564442289
% es.tEx (V/m) @ t=0.6
1.9677364695163924
% es.tEy (V/m) @ t=0.6
0
% es.tEz (V/m) @ t=0.6
-1.9648775644422525
% V (V) @ t=0.6
0.030336503719058244
% es.normE (V/m) @ t=0.62
2.871063386819859
% es.EX (V/m) @ t=0.62
1.9942570904020145
% es.EY (V/m) @ t=0.62
0.29861709084948584
% es.EZ (V/m) @ t=0.62
-1.9913596534548352
% es.tEX (V/m) @ t=0.62
1.9942570904020256
% es.tEY (V/m) @ t=0.62
0
% es.tEZ (V/m) @ t=0.62
-1.991359653454813
% es.Ex (V/m) @ t=0.62
1.9942570904020145
% es.Ey (V/m) @ t=0.62
0.29861709084948584
% es.Ez (V/m) @ t=0.62
-1.9913596534548352
% es.tEx (V/m) @ t=0.62
1.9942570904020256
% es.tEy (V/m) @ t=0.62
0
% es.tEz (V/m) @ t=0.62
-1.991359653454813
% V (V) @ t=0.62
0.030745370870894108
% es.normE (V/m) @ t=0.64
2.909244212921412
% es.EX (V/m) @ t=0.64
2.020777711287678
% es.EY (V/m) @ t=0.64
0.3025882494119122
% es.EZ (V/m) @ t=0.64
-2.0178417424674224
% es.tEX (V/m) @ t=0.64
2.020777711287682
% es.tEY (V/m) @ t=0.64
0
% es.tEZ (V/m) @ t=0.64
-2.017841742467386
% es.Ex (V/m) @ t=0.64
2.020777711287678
% es.Ey (V/m) @ t=0.64
0.3025882494119122
% es.Ez (V/m) @ t=0.64
-2.0178417424674224
% es.tEx (V/m) @ t=0.64
2.020777711287682
% es.tEy (V/m) @ t=0.64
0
% es.tEz (V/m) @ t=0.64
-2.017841742467386
% V (V) @ t=0.64
0.03115423802272997
% es.normE (V/m) @ t=0.66
2.947425039022976
% es.EX (V/m) @ t=0.66
2.0472983321733254
% es.EY (V/m) @ t=0.66
0.3065594079743137
% es.EZ (V/m) @ t=0.66
-2.0443238314800327
% es.tEX (V/m) @ t=0.66
2.0472983321733222
% es.tEY (V/m) @ t=0.66
0
% es.tEZ (V/m) @ t=0.66
-2.0443238314800034
% es.Ex (V/m) @ t=0.66
2.0472983321733254
% es.Ey (V/m) @ t=0.66
0.3065594079743137
% es.Ez (V/m) @ t=0.66
-2.0443238314800327
% es.tEx (V/m) @ t=0.66
2.0472983321733222
% es.tEy (V/m) @ t=0.66
0
% es.tEz (V/m) @ t=0.66
-2.0443238314800034
% V (V) @ t=0.66
0.03156310517456584
% es.normE (V/m) @ t=0.68
2.985605865124511
% es.EX (V/m) @ t=0.68
2.073818953058978
% es.EY (V/m) @ t=0.68
0.31053056653673905
% es.EZ (V/m) @ t=0.68
-2.0708059204925915
% es.tEX (V/m) @ t=0.68
2.0738189530589874
% es.tEY (V/m) @ t=0.68
0
% es.tEZ (V/m) @ t=0.68
-2.070805920492548
% es.Ex (V/m) @ t=0.68
2.073818953058978
% es.Ey (V/m) @ t=0.68
0.31053056653673905
% es.Ez (V/m) @ t=0.68
-2.0708059204925915
% es.tEx (V/m) @ t=0.68
2.0738189530589874
% es.tEy (V/m) @ t=0.68
0
% es.tEz (V/m) @ t=0.68
-2.070805920492548
% V (V) @ t=0.68
0.0319719723264017
% es.normE (V/m) @ t=0.7
3.0237866912260953
% es.EX (V/m) @ t=0.7
2.100339573944646
% es.EY (V/m) @ t=0.7
0.31450172509914676
% es.EZ (V/m) @ t=0.7
-2.097288009505209
% es.tEX (V/m) @ t=0.7
2.100339573944649
% es.tEY (V/m) @ t=0.7
0
% es.tEZ (V/m) @ t=0.7
-2.0972880095051654
% es.Ex (V/m) @ t=0.7
2.100339573944646
% es.Ey (V/m) @ t=0.7
0.31450172509914676
% es.Ez (V/m) @ t=0.7
-2.097288009505209
% es.tEx (V/m) @ t=0.7
2.100339573944649
% es.tEy (V/m) @ t=0.7
0
% es.tEz (V/m) @ t=0.7
-2.0972880095051654
% V (V) @ t=0.7
0.03238083947823756
% es.normE (V/m) @ t=0.72
3.0619675173276084
% es.EX (V/m) @ t=0.72
2.126860194830296
% es.EY (V/m) @ t=0.72
0.3184728836615892
% es.EZ (V/m) @ t=0.72
-2.1237700985177552
% es.tEX (V/m) @ t=0.72
2.126860194830293
% es.tEY (V/m) @ t=0.72
0
% es.tEZ (V/m) @ t=0.72
-2.1237700985177117
% es.Ex (V/m) @ t=0.72
2.126860194830296
% es.Ey (V/m) @ t=0.72
0.3184728836615892
% es.Ez (V/m) @ t=0.72
-2.1237700985177552
% es.tEx (V/m) @ t=0.72
2.126860194830293
% es.tEy (V/m) @ t=0.72
0
% es.tEz (V/m) @ t=0.72
-2.1237700985177117
% V (V) @ t=0.72
0.032789706630073426
% es.normE (V/m) @ t=0.74
3.1001483434291472
% es.EX (V/m) @ t=0.74
2.153380815715943
% es.EY (V/m) @ t=0.74
0.322444042224012
% es.EZ (V/m) @ t=0.74
-2.1502521875303158
% es.tEX (V/m) @ t=0.74
2.153380815715953
% es.tEY (V/m) @ t=0.74
0
% es.tEZ (V/m) @ t=0.74
-2.1502521875302723
% es.Ex (V/m) @ t=0.74
2.153380815715943
% es.Ey (V/m) @ t=0.74
0.322444042224012
% es.Ez (V/m) @ t=0.74
-2.1502521875303158
% es.tEx (V/m) @ t=0.74
2.153380815715953
% es.tEy (V/m) @ t=0.74
0
% es.tEz (V/m) @ t=0.74
-2.1502521875302723
% V (V) @ t=0.74
0.033198573781909296
% es.normE (V/m) @ t=0.76
3.139638037603291
% es.EX (V/m) @ t=0.76
2.180810623103889
% es.EY (V/m) @ t=0.76
0.32655147715710087
% es.EZ (V/m) @ t=0.76
-2.177642027011058
% es.tEX (V/m) @ t=0.76
2.1808106231039
% es.tEY (V/m) @ t=0.76
0
% es.tEZ (V/m) @ t=0.76
-2.1776420270110144
% es.Ex (V/m) @ t=0.76
2.180810623103889
% es.Ey (V/m) @ t=0.76
0.32655147715710087
% es.Ez (V/m) @ t=0.76
-2.177642027011058
% es.tEx (V/m) @ t=0.76
2.1808106231039
% es.tEy (V/m) @ t=0.76
0
% es.tEz (V/m) @ t=0.76
-2.1776420270110144
% V (V) @ t=0.76
0.0336214494871029
% es.normE (V/m) @ t=0.78
3.179996396465117
% es.EX (V/m) @ t=0.78
2.2088438360035743
% es.EY (V/m) @ t=0.78
0.33074935548435414
% es.EZ (V/m) @ t=0.78
-2.205634318941587
% es.tEX (V/m) @ t=0.78
2.20884383600359
% es.tEY (V/m) @ t=0.78
0
% es.tEZ (V/m) @ t=0.78
-2.2056343189415433
% es.Ex (V/m) @ t=0.78
2.2088438360035743
% es.Ey (V/m) @ t=0.78
0.33074935548435414
% es.Ez (V/m) @ t=0.78
-2.205634318941587
% es.tEx (V/m) @ t=0.78
2.20884383600359
% es.tEy (V/m) @ t=0.78
0
% es.tEz (V/m) @ t=0.78
-2.2056343189415433
% V (V) @ t=0.78
0.03405362233681656
% es.normE (V/m) @ t=0.8
3.220354755327005
% es.EX (V/m) @ t=0.8
2.236877048903269
% es.EY (V/m) @ t=0.8
0.3349472338116576
% es.EZ (V/m) @ t=0.8
-2.2336266108721494
% es.tEX (V/m) @ t=0.8
2.2368770489032848
% es.tEY (V/m) @ t=0.8
0
% es.tEZ (V/m) @ t=0.8
-2.233626610872106
% es.Ex (V/m) @ t=0.8
2.236877048903269
% es.Ey (V/m) @ t=0.8
0.3349472338116576
% es.Ez (V/m) @ t=0.8
-2.2336266108721494
% es.tEx (V/m) @ t=0.8
2.2368770489032848
% es.tEy (V/m) @ t=0.8
0
% es.tEz (V/m) @ t=0.8
-2.233626610872106
% V (V) @ t=0.8
0.03448579518653023
% es.normE (V/m) @ t=0.82
3.260713114188891
% es.EX (V/m) @ t=0.82
2.264910261802941
% es.EY (V/m) @ t=0.82
0.33914511213886755
% es.EZ (V/m) @ t=0.82
-2.2616189028026943
% es.tEX (V/m) @ t=0.82
2.2649102618029513
% es.tEY (V/m) @ t=0.82
0
% es.tEZ (V/m) @ t=0.82
-2.2616189028026223
% es.Ex (V/m) @ t=0.82
2.264910261802941
% es.Ey (V/m) @ t=0.82
0.33914511213886755
% es.Ez (V/m) @ t=0.82
-2.2616189028026943
% es.tEx (V/m) @ t=0.82
2.2649102618029513
% es.tEy (V/m) @ t=0.82
0
% es.tEz (V/m) @ t=0.82
-2.2616189028026223
% V (V) @ t=0.82
0.0349179680362439
% es.normE (V/m) @ t=0.84
3.3010714730508464
% es.EX (V/m) @ t=0.84
2.292943474702619
% es.EY (V/m) @ t=0.84
0.3433429904661913
% es.EZ (V/m) @ t=0.84
-2.289611194733312
% es.tEX (V/m) @ t=0.84
2.2929434747026285
% es.tEY (V/m) @ t=0.84
0
% es.tEZ (V/m) @ t=0.84
-2.2896111947332543
% es.Ex (V/m) @ t=0.84
2.292943474702619
% es.Ey (V/m) @ t=0.84
0.3433429904661913
% es.Ez (V/m) @ t=0.84
-2.289611194733312
% es.tEx (V/m) @ t=0.84
2.2929434747026285
% es.tEy (V/m) @ t=0.84
0
% es.tEz (V/m) @ t=0.84
-2.2896111947332543
% V (V) @ t=0.84
0.03535014088595755
% es.normE (V/m) @ t=0.86
3.3414298319128077
% es.EX (V/m) @ t=0.86
2.3209766876023132
% es.EY (V/m) @ t=0.86
0.34754086879347057
% es.EZ (V/m) @ t=0.86
-2.317603486663857
% es.tEX (V/m) @ t=0.86
2.320976687602329
% es.tEY (V/m) @ t=0.86
0
% es.tEZ (V/m) @ t=0.86
-2.317603486663799
% es.Ex (V/m) @ t=0.86
2.3209766876023132
% es.Ey (V/m) @ t=0.86
0.34754086879347057
% es.Ez (V/m) @ t=0.86
-2.317603486663857
% es.tEx (V/m) @ t=0.86
2.320976687602329
% es.tEy (V/m) @ t=0.86
0
% es.tEz (V/m) @ t=0.86
-2.317603486663799
% V (V) @ t=0.86
0.035782313735671215
% es.normE (V/m) @ t=0.88
3.3817881907747713
% es.EX (V/m) @ t=0.88
2.3490099005019873
% es.EY (V/m) @ t=0.88
0.3517387471206852
% es.EZ (V/m) @ t=0.88
-2.3455957785944195
% es.tEX (V/m) @ t=0.88
2.3490099005020024
% es.tEY (V/m) @ t=0.88
0
% es.tEZ (V/m) @ t=0.88
-2.345595778594376
% es.Ex (V/m) @ t=0.88
2.3490099005019873
% es.Ey (V/m) @ t=0.88
0.3517387471206852
% es.Ez (V/m) @ t=0.88
-2.3455957785944195
% es.tEx (V/m) @ t=0.88
2.3490099005020024
% es.tEy (V/m) @ t=0.88
0
% es.tEz (V/m) @ t=0.88
-2.345595778594376
% V (V) @ t=0.88
0.03621448658538488
% es.normE (V/m) @ t=0.9
3.422146549636765
% es.EX (V/m) @ t=0.9
2.3770431134016787
% es.EY (V/m) @ t=0.9
0.35593662544799387
% es.EZ (V/m) @ t=0.9
-2.3735880705249803
% es.tEX (V/m) @ t=0.9
2.3770431134016867
% es.tEY (V/m) @ t=0.9
0
% es.tEZ (V/m) @ t=0.9
-2.3735880705249226
% es.Ex (V/m) @ t=0.9
2.3770431134016787
% es.Ey (V/m) @ t=0.9
0.35593662544799387
% es.Ez (V/m) @ t=0.9
-2.3735880705249803
% es.tEx (V/m) @ t=0.9
2.3770431134016867
% es.tEy (V/m) @ t=0.9
0
% es.tEz (V/m) @ t=0.9
-2.3735880705249226
% V (V) @ t=0.9
0.03664665943509854
% es.normE (V/m) @ t=0.92
3.4625049084987864
% es.EX (V/m) @ t=0.92
2.4050763263013684
% es.EY (V/m) @ t=0.92
0.3601345037752527
% es.EZ (V/m) @ t=0.92
-2.4015803624555403
% es.tEX (V/m) @ t=0.92
2.4050763263013764
% es.tEY (V/m) @ t=0.92
0
% es.tEZ (V/m) @ t=0.92
-2.401580362455496
% es.Ex (V/m) @ t=0.92
2.4050763263013684
% es.Ey (V/m) @ t=0.92
0.3601345037752527
% es.Ez (V/m) @ t=0.92
-2.4015803624555403
% es.tEx (V/m) @ t=0.92
2.4050763263013764
% es.tEy (V/m) @ t=0.92
0
% es.tEz (V/m) @ t=0.92
-2.401580362455496
% V (V) @ t=0.92
0.03707883228481221
% es.normE (V/m) @ t=0.94
3.5028632673608575
% es.EX (V/m) @ t=0.94
2.4331095392010615
% es.EY (V/m) @ t=0.94
0.3643323821025153
% es.EZ (V/m) @ t=0.94
-2.4295726543861305
% es.tEX (V/m) @ t=0.94
2.433109539201075
% es.tEY (V/m) @ t=0.94
0
% es.tEZ (V/m) @ t=0.94
-2.429572654386101
% es.Ex (V/m) @ t=0.94
2.4331095392010615
% es.Ey (V/m) @ t=0.94
0.3643323821025153
% es.Ez (V/m) @ t=0.94
-2.4295726543861305
% es.tEx (V/m) @ t=0.94
2.433109539201075
% es.tEy (V/m) @ t=0.94
0
% es.tEz (V/m) @ t=0.94
-2.429572654386101
% V (V) @ t=0.94
0.03751100513452588
% es.normE (V/m) @ t=0.96
3.544107794615697
% es.EX (V/m) @ t=0.96
2.46175825788311
% es.EY (V/m) @ t=0.96
0.36862235409618593
% es.EZ (V/m) @ t=0.96
-2.45817963755995
% es.tEX (V/m) @ t=0.96
2.4617582578831385
% es.tEY (V/m) @ t=0.96
0
% es.tEZ (V/m) @ t=0.96
-2.4581796375599065
% es.Ex (V/m) @ t=0.96
2.46175825788311
% es.Ey (V/m) @ t=0.96
0.36862235409618593
% es.Ez (V/m) @ t=0.96
-2.45817963755995
% es.tEx (V/m) @ t=0.96
2.4617582578831385
% es.tEy (V/m) @ t=0.96
0
% es.tEz (V/m) @ t=0.96
-2.4581796375599065
% V (V) @ t=0.96
0.03795267326652493
% es.normE (V/m) @ t=0.98
3.5857279256381602
% es.EX (V/m) @ t=0.98
2.490667859590033
% es.EY (V/m) @ t=0.98
0.3729513601247776
% es.EZ (V/m) @ t=0.98
-2.4870471585150087
% es.tEX (V/m) @ t=0.98
2.4906678595900527
% es.tEY (V/m) @ t=0.98
0
% es.tEZ (V/m) @ t=0.98
-2.487047158514951
% es.Ex (V/m) @ t=0.98
2.490667859590033
% es.Ey (V/m) @ t=0.98
0.3729513601247776
% es.Ez (V/m) @ t=0.98
-2.4870471585150087
% es.tEx (V/m) @ t=0.98
2.4906678595900527
% es.tEy (V/m) @ t=0.98
0
% es.tEz (V/m) @ t=0.98
-2.487047158514951
% V (V) @ t=0.98
0.03839836598778909
% es.normE (V/m) @ t=1
3.6273480566606082
% es.EX (V/m) @ t=1
2.519577461296932
% es.EY (V/m) @ t=1
0.37728036615345073
% es.EZ (V/m) @ t=1
-2.5159146794700673
% es.tEX (V/m) @ t=1
2.5195774612969384
% es.tEY (V/m) @ t=1
0
% es.tEZ (V/m) @ t=1
-2.515914679470024
% es.Ex (V/m) @ t=1
2.519577461296932
% es.Ey (V/m) @ t=1
0.37728036615345073
% es.Ez (V/m) @ t=1
-2.5159146794700673
% es.tEx (V/m) @ t=1
2.5195774612969384
% es.tEy (V/m) @ t=1
0
% es.tEz (V/m) @ t=1
-2.515914679470024
% V (V) @ t=1
0.03884405870905326
% es.normE (V/m) @ t=1.02
3.668968187683058
% es.EX (V/m) @ t=1.02
2.5484870630038348
% es.EY (V/m) @ t=1.02
0.3816093721820282
% es.EZ (V/m) @ t=1.02
-2.544782200425125
% es.tEX (V/m) @ t=1.02
2.54848706300384
% es.tEY (V/m) @ t=1.02
0
% es.tEZ (V/m) @ t=1.02
-2.544782200425095
% es.Ex (V/m) @ t=1.02
2.5484870630038348
% es.Ey (V/m) @ t=1.02
0.3816093721820282
% es.Ez (V/m) @ t=1.02
-2.544782200425125
% es.tEx (V/m) @ t=1.02
2.54848706300384
% es.tEy (V/m) @ t=1.02
0
% es.tEz (V/m) @ t=1.02
-2.544782200425095
% V (V) @ t=1.02
0.03928975143031743
% es.normE (V/m) @ t=1.04
3.710588318705514
% es.EX (V/m) @ t=1.04
2.5773966647107303
% es.EY (V/m) @ t=1.04
0.3859383782106587
% es.EZ (V/m) @ t=1.04
-2.573649721380198
% es.tEX (V/m) @ t=1.04
2.5773966647107436
% es.tEY (V/m) @ t=1.04
0
% es.tEZ (V/m) @ t=1.04
-2.5736497213801393
% es.Ex (V/m) @ t=1.04
2.5773966647107303
% es.Ey (V/m) @ t=1.04