% Model:              1 neuron.mph
% Version:            COMSOL 6.0.0.405
% Date:               Mar 16 2023, 19:48
% Dimension:          0
% Nodes:              14017
% Expressions:        14017
% Description:        Electric field norm, Electric field, X component, Electric field, Y component, Electric field, Z component, Tangential electric field, X component, Tangential electric field, Y component, Tangential electric field, Z component, Electric field, x component, Electric field, y component, Electric field, z component, Tangential electric field, x component, Tangential electric field, y component, Tangential electric field, z component, Electric potential
% Length unit:        mm
% x
1.33
% y
12.2
% z
2
% es.normE (V/m) @ t=0
2.1617369064076097
% es.EX (V/m) @ t=0
0.8615329237225442
% es.EY (V/m) @ t=0
0.22777397806436905
% es.EZ (V/m) @ t=0
-1.9677660417002256
% es.tEX (V/m) @ t=0
0.8615329237225446
% es.tEY (V/m) @ t=0
0
% es.tEZ (V/m) @ t=0
-1.9677660417002283
% es.Ex (V/m) @ t=0
0.8615329237225442
% es.Ey (V/m) @ t=0
0.22777397806436905
% es.Ez (V/m) @ t=0
-1.9677660417002256
% es.tEx (V/m) @ t=0
0.8615329237225446
% es.tEy (V/m) @ t=0
0
% es.tEz (V/m) @ t=0
-1.9677660417002283
% V (V) @ t=0
0.010808878291957914
% es.normE (V/m) @ t=0.02
1.8774846118545394
% es.EX (V/m) @ t=0.02
0.7482477711976656
% es.EY (V/m) @ t=0.02
0.19782340249185992
% es.EZ (V/m) @ t=0.02
-1.7090194669407275
% es.tEX (V/m) @ t=0.02
0.7482477711976658
% es.tEY (V/m) @ t=0.02
0
% es.tEZ (V/m) @ t=0.02
-1.709019466940731
% es.Ex (V/m) @ t=0.02
0.7482477711976656
% es.Ey (V/m) @ t=0.02
0.19782340249185992
% es.Ez (V/m) @ t=0.02
-1.7090194669407275
% es.tEx (V/m) @ t=0.02
0.7482477711976658
% es.tEy (V/m) @ t=0.02
0
% es.tEz (V/m) @ t=0.02
-1.709019466940731
% V (V) @ t=0.02
0.00938759112759551
% es.normE (V/m) @ t=0.04
1.9053237984428795
% es.EX (V/m) @ t=0.04
0.7593427442061049
% es.EY (V/m) @ t=0.04
0.2007567241181052
% es.EZ (V/m) @ t=0.04
-1.7343606578860413
% es.tEX (V/m) @ t=0.04
0.7593427442061054
% es.tEY (V/m) @ t=0.04
0
% es.tEZ (V/m) @ t=0.04
-1.7343606578860467
% es.Ex (V/m) @ t=0.04
0.7593427442061049
% es.Ey (V/m) @ t=0.04
0.2007567241181052
% es.Ez (V/m) @ t=0.04
-1.7343606578860413
% es.tEx (V/m) @ t=0.04
0.7593427442061054
% es.tEy (V/m) @ t=0.04
0
% es.tEz (V/m) @ t=0.04
-1.7343606578860467
% V (V) @ t=0.04
0.009526789039502853
% es.normE (V/m) @ t=0.06
1.9335762262246559
% es.EX (V/m) @ t=0.06
0.7706024397457576
% es.EY (V/m) @ t=0.06
0.2037336100195528
% es.EZ (V/m) @ t=0.06
-1.760077995102903
% es.tEX (V/m) @ t=0.06
0.7706024397457578
% es.tEY (V/m) @ t=0.06
0
% es.tEZ (V/m) @ t=0.06
-1.7600779951029057
% es.Ex (V/m) @ t=0.06
0.7706024397457576
% es.Ey (V/m) @ t=0.06
0.2037336100195528
% es.Ez (V/m) @ t=0.06
-1.760077995102903
% es.tEx (V/m) @ t=0.06
0.7706024397457578
% es.tEy (V/m) @ t=0.06
0
% es.tEz (V/m) @ t=0.06
-1.7600779951029057
% V (V) @ t=0.06
0.009668052271044308
% es.normE (V/m) @ t=0.08
1.962559907105185
% es.EX (V/m) @ t=0.08
0.7821535153292605
% es.EY (V/m) @ t=0.08
0.20678750693713344
% es.EZ (V/m) @ t=0.08
-1.786460996320491
% es.tEX (V/m) @ t=0.08
0.7821535153292607
% es.tEY (V/m) @ t=0.08
0
% es.tEZ (V/m) @ t=0.08
-1.7864609963204963
% es.Ex (V/m) @ t=0.08
0.7821535153292605
% es.Ey (V/m) @ t=0.08
0.20678750693713344
% es.Ez (V/m) @ t=0.08
-1.786460996320491
% es.tEx (V/m) @ t=0.08
0.7821535153292607
% es.tEy (V/m) @ t=0.08
0
% es.tEz (V/m) @ t=0.08
-1.7864609963204963
% V (V) @ t=0.08
0.00981297339776905
% es.normE (V/m) @ t=0.1
1.9920320158004157
% es.EX (V/m) @ t=0.1
0.7938992131554634
% es.EY (V/m) @ t=0.1
0.20989284202628955
% es.EZ (V/m) @ t=0.1
-1.8132886162532023
% es.tEX (V/m) @ t=0.1
0.7938992131554636
% es.tEY (V/m) @ t=0.1
0
% es.tEZ (V/m) @ t=0.1
-1.8132886162531996
% es.Ex (V/m) @ t=0.1
0.7938992131554634
% es.Ey (V/m) @ t=0.1
0.20989284202628955
% es.Ez (V/m) @ t=0.1
-1.8132886162532023
% es.tEx (V/m) @ t=0.1
0.7938992131554636
% es.tEy (V/m) @ t=0.1
0
% es.tEz (V/m) @ t=0.1
-1.8132886162531996
% V (V) @ t=0.1
0.009960337752090058
% es.normE (V/m) @ t=0.12
2.0215041244956486
% es.EX (V/m) @ t=0.12
0.8056449109816886
% es.EY (V/m) @ t=0.12
0.2129981771154119
% es.EZ (V/m) @ t=0.12
-1.8401162361859082
% es.tEX (V/m) @ t=0.12
0.8056449109816888
% es.tEY (V/m) @ t=0.12
0
% es.tEZ (V/m) @ t=0.12
-1.8401162361859136
% es.Ex (V/m) @ t=0.12
0.8056449109816886
% es.Ey (V/m) @ t=0.12
0.2129981771154119
% es.Ez (V/m) @ t=0.12
-1.8401162361859082
% es.tEx (V/m) @ t=0.12
0.8056449109816888
% es.tEy (V/m) @ t=0.12
0
% es.tEz (V/m) @ t=0.12
-1.8401162361859136
% V (V) @ t=0.12
0.010107702106411065
% es.normE (V/m) @ t=0.14
2.0515285397092393
% es.EX (V/m) @ t=0.14
0.817610863863488
% es.EY (V/m) @ t=0.14
0.2161618106697416
% es.EZ (V/m) @ t=0.14
-1.867446534991502
% es.tEX (V/m) @ t=0.14
0.817610863863492
% es.tEY (V/m) @ t=0.14
0
% es.tEZ (V/m) @ t=0.14
-1.8674465349915081
% es.Ex (V/m) @ t=0.14
0.817610863863488
% es.Ey (V/m) @ t=0.14
0.2161618106697416
% es.Ez (V/m) @ t=0.14
-1.867446534991502
% es.tEx (V/m) @ t=0.14
0.817610863863492
% es.tEy (V/m) @ t=0.14
0
% es.tEz (V/m) @ t=0.14
-1.8674465349915081
% V (V) @ t=0.14
0.010257823805628547
% es.normE (V/m) @ t=0.16
2.083642980636594
% es.EX (V/m) @ t=0.16
0.8304103008965749
% es.EY (V/m) @ t=0.16
0.21954605594472376
% es.EZ (V/m) @ t=0.16
-1.8966790597079752
% es.tEX (V/m) @ t=0.16
0.8304103008965718
% es.tEY (V/m) @ t=0.16
0
% es.tEZ (V/m) @ t=0.16
-1.8966790597079726
% es.Ex (V/m) @ t=0.16
0.8304103008965749
% es.Ey (V/m) @ t=0.16
0.21954605594472376
% es.Ez (V/m) @ t=0.16
-1.8966790597079752
% es.tEx (V/m) @ t=0.16
0.8304103008965718
% es.tEy (V/m) @ t=0.16
0
% es.tEz (V/m) @ t=0.16
-1.8966790597079726
% V (V) @ t=0.16
0.010418379786432896
% es.normE (V/m) @ t=0.18
2.115757421564351
% es.EX (V/m) @ t=0.18
0.8432097379296699
% es.EY (V/m) @ t=0.18
0.22293030121970414
% es.EZ (V/m) @ t=0.18
-1.925911584424436
% es.tEX (V/m) @ t=0.18
0.8432097379296666
% es.tEY (V/m) @ t=0.18
0
% es.tEZ (V/m) @ t=0.18
-1.9259115844244459
% es.Ex (V/m) @ t=0.18
0.8432097379296699
% es.Ey (V/m) @ t=0.18
0.22293030121970414
% es.Ez (V/m) @ t=0.18
-1.925911584424436
% es.tEx (V/m) @ t=0.18
0.8432097379296666
% es.tEy (V/m) @ t=0.18
0
% es.tEz (V/m) @ t=0.18
-1.9259115844244459
% V (V) @ t=0.18
0.01057893576723724
% es.normE (V/m) @ t=0.2
2.1478718624925097
% es.EX (V/m) @ t=0.2
0.8560091749627645
% es.EY (V/m) @ t=0.2
0.22631454649468274
% es.EZ (V/m) @ t=0.2
-1.9551441091409067
% es.tEX (V/m) @ t=0.2
0.8560091749627614
% es.tEY (V/m) @ t=0.2
0
% es.tEZ (V/m) @ t=0.2
-1.9551441091409103
% es.Ex (V/m) @ t=0.2
0.8560091749627645
% es.Ey (V/m) @ t=0.2
0.22631454649468274
% es.Ez (V/m) @ t=0.2
-1.9551441091409067
% es.tEx (V/m) @ t=0.2
0.8560091749627614
% es.tEy (V/m) @ t=0.2
0
% es.tEz (V/m) @ t=0.2
-1.9551441091409103
% V (V) @ t=0.2
0.010739491748041584
% es.normE (V/m) @ t=0.22
2.1799863034210505
% es.EX (V/m) @ t=0.22
0.8688086119958656
% es.EY (V/m) @ t=0.22
0.22969879176965957
% es.EZ (V/m) @ t=0.22
-1.9843766338573827
% es.tEX (V/m) @ t=0.22
0.8688086119958625
% es.tEY (V/m) @ t=0.22
0
% es.tEZ (V/m) @ t=0.22
-1.9843766338573854
% es.Ex (V/m) @ t=0.22
0.8688086119958656
% es.Ey (V/m) @ t=0.22
0.22969879176965957
% es.Ez (V/m) @ t=0.22
-1.9843766338573827
% es.tEx (V/m) @ t=0.22
0.8688086119958625
% es.tEy (V/m) @ t=0.22
0
% es.tEz (V/m) @ t=0.22
-1.9843766338573854
% V (V) @ t=0.22
0.010900047728845928
% es.normE (V/m) @ t=0.24
2.2121007443499376
% es.EX (V/m) @ t=0.24
0.8816080490289573
% es.EY (V/m) @ t=0.24
0.23308303704463107
% es.EZ (V/m) @ t=0.24
-2.0136091585738507
% es.tEX (V/m) @ t=0.24
0.8816080490289577
% es.tEY (V/m) @ t=0.24
0
% es.tEZ (V/m) @ t=0.24
-2.013609158573855
% es.Ex (V/m) @ t=0.24
0.8816080490289573
% es.Ey (V/m) @ t=0.24
0.23308303704463107
% es.Ez (V/m) @ t=0.24
-2.0136091585738507
% es.tEx (V/m) @ t=0.24
0.8816080490289577
% es.tEy (V/m) @ t=0.24
0
% es.tEz (V/m) @ t=0.24
-2.013609158573855
% V (V) @ t=0.24
0.011060603709650271
% es.normE (V/m) @ t=0.26
2.244215185279169
% es.EX (V/m) @ t=0.26
0.8944074860620446
% es.EY (V/m) @ t=0.26
0.236467282319615
% es.EZ (V/m) @ t=0.26
-2.0428416832903196
% es.tEX (V/m) @ t=0.26
0.894407486062045
% es.tEY (V/m) @ t=0.26
0
% es.tEZ (V/m) @ t=0.26
-2.0428416832903338
% es.Ex (V/m) @ t=0.26
0.8944074860620446
% es.Ey (V/m) @ t=0.26
0.236467282319615
% es.Ez (V/m) @ t=0.26
-2.0428416832903196
% es.tEx (V/m) @ t=0.26
0.894407486062045
% es.tEy (V/m) @ t=0.26
0
% es.tEz (V/m) @ t=0.26
-2.0428416832903338
% V (V) @ t=0.26
0.011221159690454615
% es.normE (V/m) @ t=0.28
2.277550292689352
% es.EX (V/m) @ t=0.28
0.9076928503468693
% es.EY (V/m) @ t=0.28
0.23997973372462056
% es.EZ (V/m) @ t=0.28
-2.073185620103149
% es.tEX (V/m) @ t=0.28
0.9076928503468662
% es.tEY (V/m) @ t=0.28
0
% es.tEZ (V/m) @ t=0.28
-2.0731856201031587
% es.Ex (V/m) @ t=0.28
0.9076928503468693
% es.Ey (V/m) @ t=0.28
0.23997973372462056
% es.Ez (V/m) @ t=0.28
-2.073185620103149
% es.tEx (V/m) @ t=0.28
0.9076928503468662
% es.tEy (V/m) @ t=0.28
0
% es.tEz (V/m) @ t=0.28
-2.0731856201031587
% V (V) @ t=0.28
0.0113878358450698
% es.normE (V/m) @ t=0.3
2.3125169054460546
% es.EX (V/m) @ t=0.3
0.9216276900793425
% es.EY (V/m) @ t=0.3
0.24366354150744574
% es.EZ (V/m) @ t=0.3
-2.1050150362059403
% es.tEX (V/m) @ t=0.3
0.921627690079343
% es.tEY (V/m) @ t=0.3
0
% es.tEZ (V/m) @ t=0.3
-2.105015036205943
% es.Ex (V/m) @ t=0.3
0.9216276900793425
% es.Ey (V/m) @ t=0.3
0.24366354150744574
% es.Ez (V/m) @ t=0.3
-2.1050150362059403
% es.tEx (V/m) @ t=0.3
0.921627690079343
% es.tEy (V/m) @ t=0.3
0
% es.tEz (V/m) @ t=0.3
-2.105015036205943
% V (V) @ t=0.3
0.011562692036124
% es.normE (V/m) @ t=0.32
2.3474835182032403
% es.EX (V/m) @ t=0.32
0.935562529811818
% es.EY (V/m) @ t=0.32
0.24734734929024782
% es.EZ (V/m) @ t=0.32
-2.13684445230873
% es.tEX (V/m) @ t=0.32
0.9355625298118184
% es.tEY (V/m) @ t=0.32
0
% es.tEZ (V/m) @ t=0.32
-2.1368444523087327
% es.Ex (V/m) @ t=0.32
0.935562529811818
% es.Ey (V/m) @ t=0.32
0.24734734929024782
% es.Ez (V/m) @ t=0.32
-2.13684445230873
% es.tEx (V/m) @ t=0.32
0.9355625298118184
% es.tEy (V/m) @ t=0.32
0
% es.tEz (V/m) @ t=0.32
-2.1368444523087327
% V (V) @ t=0.32
0.011737548227178204
% es.normE (V/m) @ t=0.34
2.3824501309608945
% es.EX (V/m) @ t=0.34
0.949497369544309
% es.EY (V/m) @ t=0.34
0.25103115707304724
% es.EZ (V/m) @ t=0.34
-2.168673868411518
% es.tEX (V/m) @ t=0.34
0.9494973695443094
% es.tEY (V/m) @ t=0.34
0
% es.tEZ (V/m) @ t=0.34
-2.1686738684115205
% es.Ex (V/m) @ t=0.34
0.949497369544309
% es.Ey (V/m) @ t=0.34
0.25103115707304724
% es.Ez (V/m) @ t=0.34
-2.168673868411518
% es.tEx (V/m) @ t=0.34
0.9494973695443094
% es.tEy (V/m) @ t=0.34
0
% es.tEz (V/m) @ t=0.34
-2.1686738684115205
% V (V) @ t=0.34
0.011912404418232405
% es.normE (V/m) @ t=0.36
2.4174167437189937
% es.EX (V/m) @ t=0.36
0.9634322092767929
% es.EY (V/m) @ t=0.36
0.25471496485585643
% es.EZ (V/m) @ t=0.36
-2.2005032845143084
% es.tEX (V/m) @ t=0.36
0.9634322092767933
% es.tEY (V/m) @ t=0.36
0
% es.tEZ (V/m) @ t=0.36
-2.200503284514312
% es.Ex (V/m) @ t=0.36
0.9634322092767929
% es.Ey (V/m) @ t=0.36
0.25471496485585643
% es.Ez (V/m) @ t=0.36
-2.2005032845143084
% es.tEx (V/m) @ t=0.36
0.9634322092767933
% es.tEy (V/m) @ t=0.36
0
% es.tEz (V/m) @ t=0.36
-2.200503284514312
% V (V) @ t=0.36
0.01208726060928661
% es.normE (V/m) @ t=0.38
2.45238335647753
% es.EX (V/m) @ t=0.38
0.9773670490092834
% es.EY (V/m) @ t=0.38
0.2583987726386665
% es.EZ (V/m) @ t=0.38
-2.2323327006171088
% es.tEX (V/m) @ t=0.38
0.9773670490092838
% es.tEY (V/m) @ t=0.38
0
% es.tEZ (V/m) @ t=0.38
-2.2323327006171034
% es.Ex (V/m) @ t=0.38
0.9773670490092834
% es.Ey (V/m) @ t=0.38
0.2583987726386665
% es.Ez (V/m) @ t=0.38
-2.2323327006171088
% es.tEx (V/m) @ t=0.38
0.9773670490092838
% es.tEy (V/m) @ t=0.38
0
% es.tEz (V/m) @ t=0.38
-2.2323327006171034
% V (V) @ t=0.38
0.012262116800340811
% es.normE (V/m) @ t=0.4
2.487349969236459
% es.EX (V/m) @ t=0.4
0.9913018887417739
% es.EY (V/m) @ t=0.4
0.2620825804214473
% es.EZ (V/m) @ t=0.4
-2.2641621167198966
% es.tEX (V/m) @ t=0.4
0.9913018887417744
% es.tEY (V/m) @ t=0.4
0
% es.tEZ (V/m) @ t=0.4
-2.2641621167199055
% es.Ex (V/m) @ t=0.4
0.9913018887417739
% es.Ey (V/m) @ t=0.4
0.2620825804214473
% es.Ez (V/m) @ t=0.4
-2.2641621167198966
% es.tEx (V/m) @ t=0.4
0.9913018887417744
% es.tEy (V/m) @ t=0.4
0
% es.tEz (V/m) @ t=0.4
-2.2641621167199055
% V (V) @ t=0.4
0.012436972991395014
% es.normE (V/m) @ t=0.42
2.524300094502914
% es.EX (V/m) @ t=0.42
1.0060290034266584
% es.EY (V/m) @ t=0.42
0.26597669704017335
% es.EZ (V/m) @ t=0.42
-2.2977961871169192
% es.tEX (V/m) @ t=0.42
1.006029003426666
% es.tEY (V/m) @ t=0.42
0
% es.tEZ (V/m) @ t=0.42
-2.29779618711693
% es.Ex (V/m) @ t=0.42
1.0060290034266584
% es.Ey (V/m) @ t=0.42
0.26597669704017335
% es.Ez (V/m) @ t=0.42
-2.2977961871169192
% es.tEx (V/m) @ t=0.42
1.006029003426666
% es.tEy (V/m) @ t=0.42
0
% es.tEz (V/m) @ t=0.42
-2.29779618711693
% V (V) @ t=0.42
0.012621693419538648
% es.normE (V/m) @ t=0.44
2.562332729895141
% es.EX (V/m) @ t=0.44
1.0211885054309042
% es.EY (V/m) @ t=0.44
0.2699855905725075
% es.EZ (V/m) @ t=0.44
-2.332415155030036
% es.tEX (V/m) @ t=0.44
1.0211885054309047
% es.tEY (V/m) @ t=0.44
0
% es.tEZ (V/m) @ t=0.44
-2.332415155030038
% es.Ex (V/m) @ t=0.44
1.0211885054309042
% es.Ey (V/m) @ t=0.44
0.2699855905725075
% es.Ez (V/m) @ t=0.44
-2.332415155030036
% es.tEx (V/m) @ t=0.44
1.0211885054309047
% es.tEy (V/m) @ t=0.44
0
% es.tEz (V/m) @ t=0.44
-2.332415155030038
% V (V) @ t=0.44
0.01281179729571369
% es.normE (V/m) @ t=0.46
2.600365365290933
% es.EX (V/m) @ t=0.46
1.0363480074351643
% es.EY (V/m) @ t=0.46
0.27399448410487004
% es.EZ (V/m) @ t=0.46
-2.3670341229431475
% es.tEX (V/m) @ t=0.46
1.0363480074351576
% es.tEY (V/m) @ t=0.46
0
% es.tEZ (V/m) @ t=0.46
-2.367034122943153
% es.Ex (V/m) @ t=0.46
1.0363480074351643
% es.Ey (V/m) @ t=0.46
0.27399448410487004
% es.Ez (V/m) @ t=0.46
-2.3670341229431475
% es.tEx (V/m) @ t=0.46
1.0363480074351576
% es.tEy (V/m) @ t=0.46
0
% es.tEz (V/m) @ t=0.46
-2.367034122943153
% V (V) @ t=0.46
0.013001901171888727
% es.normE (V/m) @ t=0.48
2.6383980006901266
% es.EX (V/m) @ t=0.48
1.051507509439396
% es.EY (V/m) @ t=0.48
0.27800337763722993
% es.EZ (V/m) @ t=0.48
-2.401653090856266
% es.tEX (V/m) @ t=0.48
1.0515075094393964
% es.tEY (V/m) @ t=0.48
0
% es.tEZ (V/m) @ t=0.48
-2.401653090856275
% es.Ex (V/m) @ t=0.48
1.051507509439396
% es.Ey (V/m) @ t=0.48
0.27800337763722993
% es.Ez (V/m) @ t=0.48
-2.401653090856266
% es.tEx (V/m) @ t=0.48
1.0515075094393964
% es.tEy (V/m) @ t=0.48
0
% es.tEz (V/m) @ t=0.48
-2.401653090856275
% V (V) @ t=0.48
0.013192005048063766
% es.normE (V/m) @ t=0.5
2.6764306360925967
% es.EX (V/m) @ t=0.5
1.066667011443664
% es.EY (V/m) @ t=0.5
0.2820122711695934
% es.EZ (V/m) @ t=0.5
-2.4362720587693847
% es.tEX (V/m) @ t=0.5
1.0666670114436645
% es.tEY (V/m) @ t=0.5
0
% es.tEZ (V/m) @ t=0.5
-2.43627205876939
% es.Ex (V/m) @ t=0.5
1.066667011443664
% es.Ey (V/m) @ t=0.5
0.2820122711695934
% es.Ez (V/m) @ t=0.5
-2.4362720587693847
% es.tEx (V/m) @ t=0.5
1.0666670114436645
% es.tEy (V/m) @ t=0.5
0
% es.tEz (V/m) @ t=0.5
-2.43627205876939
% V (V) @ t=0.5
0.013382108924238807
% es.normE (V/m) @ t=0.52
2.714463271498176
% es.EX (V/m) @ t=0.52
1.081826513447917
% es.EY (V/m) @ t=0.52
0.2860211647019364
% es.EZ (V/m) @ t=0.52
-2.4708910266824944
% es.tEX (V/m) @ t=0.52
1.0818265134479175
% es.tEY (V/m) @ t=0.52
0
% es.tEZ (V/m) @ t=0.52
-2.470891026682505
% es.Ex (V/m) @ t=0.52
1.081826513447917
% es.Ey (V/m) @ t=0.52
0.2860211647019364
% es.Ez (V/m) @ t=0.52
-2.4708910266824944
% es.tEx (V/m) @ t=0.52
1.0818265134479175
% es.tEy (V/m) @ t=0.52
0
% es.tEz (V/m) @ t=0.52
-2.470891026682505
% V (V) @ t=0.52
0.013572212800413845
% es.normE (V/m) @ t=0.54
2.752495906906762
% es.EX (V/m) @ t=0.54
1.0969860154521691
% es.EY (V/m) @ t=0.54
0.2900300582342732
% es.EZ (V/m) @ t=0.54
-2.5055099945956183
% es.tEX (V/m) @ t=0.54
1.0969860154521696
% es.tEY (V/m) @ t=0.54
0
% es.tEZ (V/m) @ t=0.54
-2.505509994595627
% es.Ex (V/m) @ t=0.54
1.0969860154521691
% es.Ey (V/m) @ t=0.54
0.2900300582342732
% es.Ez (V/m) @ t=0.54
-2.5055099945956183
% es.tEx (V/m) @ t=0.54
1.0969860154521696
% es.tEy (V/m) @ t=0.54
0
% es.tEz (V/m) @ t=0.54
-2.505509994595627
% V (V) @ t=0.54
0.013762316676588886
% es.normE (V/m) @ t=0.56
2.791793745832317
% es.EX (V/m) @ t=0.56
1.112648705981106
% es.EY (V/m) @ t=0.56
0.294171488309793
% es.EZ (V/m) @ t=0.56
-2.541281157849239
% es.tEX (V/m) @ t=0.56
1.1126487059811065
% es.tEY (V/m) @ t=0.56
0
% es.tEZ (V/m) @ t=0.56
-2.541281157849241
% es.Ex (V/m) @ t=0.56
1.112648705981106
% es.Ey (V/m) @ t=0.56
0.294171488309793
% es.Ez (V/m) @ t=0.56
-2.541281157849239
% es.tEx (V/m) @ t=0.56
1.1126487059811065
% es.tEy (V/m) @ t=0.56
0
% es.tEz (V/m) @ t=0.56
-2.541281157849241
% V (V) @ t=0.56
0.01395877817210906
% es.normE (V/m) @ t=0.58
2.831644073136804
% es.EX (V/m) @ t=0.58
1.1285311285997177
% es.EY (V/m) @ t=0.58
0.29837079437049496
% es.EZ (V/m) @ t=0.58
-2.5775554611338496
% es.tEX (V/m) @ t=0.58
1.1285311285997182
% es.tEY (V/m) @ t=0.58
0
% es.tEZ (V/m) @ t=0.58
-2.577555461133855
% es.Ex (V/m) @ t=0.58
1.1285311285997177
% es.Ey (V/m) @ t=0.58
0.29837079437049496
% es.Ez (V/m) @ t=0.58
-2.5775554611338496
% es.tEx (V/m) @ t=0.58
1.1285311285997182
% es.tEy (V/m) @ t=0.58
0
% es.tEz (V/m) @ t=0.58
-2.577555461133855
% V (V) @ t=0.58
0.014158015909367034
% es.normE (V/m) @ t=0.6
2.871876556613681
% es.EX (V/m) @ t=0.6
1.1445655398892467
% es.EY (V/m) @ t=0.6
0.3026101332460387
% es.EZ (V/m) @ t=0.6
-2.6141777863423297
% es.tEX (V/m) @ t=0.6
1.1445655398892471
% es.tEY (V/m) @ t=0.6
0
% es.tEZ (V/m) @ t=0.6
-2.614177786342335
% es.Ex (V/m) @ t=0.6
1.1445655398892467
% es.Ey (V/m) @ t=0.6
0.3026101332460387
% es.Ez (V/m) @ t=0.6
-2.6141777863423297
% es.tEx (V/m) @ t=0.6
1.1445655398892471
% es.tEy (V/m) @ t=0.6
0
% es.tEz (V/m) @ t=0.6
-2.614177786342335
% V (V) @ t=0.6
0.01435917397283871
% es.normE (V/m) @ t=0.62
2.912491196262893
% es.EX (V/m) @ t=0.62
1.1607519398496797
% es.EY (V/m) @ t=0.62
0.306889504936418
% es.EZ (V/m) @ t=0.62
-2.6511481334746616
% es.tEX (V/m) @ t=0.62
1.1607519398496802
% es.tEY (V/m) @ t=0.62
0
% es.tEZ (V/m) @ t=0.62
-2.6511481334746705
% es.Ex (V/m) @ t=0.62
1.1607519398496797
% es.Ey (V/m) @ t=0.62
0.306889504936418
% es.Ez (V/m) @ t=0.62
-2.6511481334746616
% es.tEx (V/m) @ t=0.62
1.1607519398496802
% es.tEy (V/m) @ t=0.62
0
% es.tEz (V/m) @ t=0.62
-2.6511481334746705
% V (V) @ t=0.62
0.014562252362524085
% es.normE (V/m) @ t=0.64
2.953487992084635
% es.EX (V/m) @ t=0.64
1.177090328481008
% es.EY (V/m) @ t=0.64
0.31120890944165414
% es.EZ (V/m) @ t=0.64
-2.6884665025308525
% es.tEX (V/m) @ t=0.64
1.1770903284810013
% es.tEY (V/m) @ t=0.64
0
% es.tEZ (V/m) @ t=0.64
-2.688466502530865
% es.Ex (V/m) @ t=0.64
1.177090328481008
% es.Ey (V/m) @ t=0.64
0.31120890944165414
% es.Ez (V/m) @ t=0.64
-2.6884665025308525
% es.tEx (V/m) @ t=0.64
1.1770903284810013
% es.tEy (V/m) @ t=0.64
0
% es.tEz (V/m) @ t=0.64
-2.688466502530865
% V (V) @ t=0.64
0.014767251078423166
% es.normE (V/m) @ t=0.66
2.9948669440793214
% es.EX (V/m) @ t=0.66
1.1935807057832535
% es.EY (V/m) @ t=0.66
0.31556834676174716
% es.EZ (V/m) @ t=0.66
-2.726132893510906
% es.tEX (V/m) @ t=0.66
1.193580705783254
% es.tEY (V/m) @ t=0.66
0
% es.tEZ (V/m) @ t=0.66
-2.726132893510915
% es.Ex (V/m) @ t=0.66
1.1935807057832535
% es.Ey (V/m) @ t=0.66
0.31556834676174716
% es.Ez (V/m) @ t=0.66
-2.726132893510906
% es.tEx (V/m) @ t=0.66
1.193580705783254
% es.tEy (V/m) @ t=0.66
0
% es.tEz (V/m) @ t=0.66
-2.726132893510915
% V (V) @ t=0.66
0.014974170120535944
% es.normE (V/m) @ t=0.68
3.036628052247539
% es.EX (V/m) @ t=0.68
1.2102230717563809
% es.EY (V/m) @ t=0.68
0.3199678168966793
% es.EZ (V/m) @ t=0.68
-2.764147306414822
% es.tEX (V/m) @ t=0.68
1.2102230717563813
% es.tEY (V/m) @ t=0.68
0
% es.tEZ (V/m) @ t=0.68
-2.7641473064148236
% es.Ex (V/m) @ t=0.68
1.2102230717563809
% es.Ey (V/m) @ t=0.68
0.3199678168966793
% es.Ez (V/m) @ t=0.68
-2.764147306414822
% es.tEx (V/m) @ t=0.68
1.2102230717563813
% es.tEy (V/m) @ t=0.68
0
% es.tEz (V/m) @ t=0.68
-2.7641473064148236
% V (V) @ t=0.68
0.015183009488862424
% es.normE (V/m) @ t=0.7
3.078771316590071
% es.EX (V/m) @ t=0.7
1.2270174264003972
% es.EY (V/m) @ t=0.7
0.32440731984647986
% es.EZ (V/m) @ t=0.7
-2.802509741242593
% es.tEX (V/m) @ t=0.7
1.2270174264003977
% es.tEY (V/m) @ t=0.7
0
% es.tEZ (V/m) @ t=0.7
-2.802509741242602
% es.Ex (V/m) @ t=0.7
1.2270174264003972
% es.Ey (V/m) @ t=0.7
0.32440731984647986
% es.Ez (V/m) @ t=0.7
-2.802509741242593
% es.tEx (V/m) @ t=0.7
1.2270174264003977
% es.tEy (V/m) @ t=0.7
0
% es.tEz (V/m) @ t=0.7
-2.802509741242602
% V (V) @ t=0.7
0.0153937691834026
% es.normE (V/m) @ t=0.72
3.1212967371079
% es.EX (V/m) @ t=0.72
1.2439637697153576
% es.EY (V/m) @ t=0.72
0.32888685561108044
% es.EZ (V/m) @ t=0.72
-2.841220197994234
% es.tEX (V/m) @ t=0.72
1.243963769715358
% es.tEY (V/m) @ t=0.72
0
% es.tEZ (V/m) @ t=0.72
-2.841220197994243
% es.Ex (V/m) @ t=0.72
1.2439637697153576
% es.Ey (V/m) @ t=0.72
0.32888685561108044
% es.Ez (V/m) @ t=0.72
-2.841220197994234
% es.tEx (V/m) @ t=0.72
1.243963769715358
% es.tEy (V/m) @ t=0.72
0
% es.tEz (V/m) @ t=0.72
-2.841220197994243
% V (V) @ t=0.72
0.015606449204156481
% es.normE (V/m) @ t=0.74
3.1642043138021014
% es.EX (V/m) @ t=0.74
1.2610621017011812
% es.EY (V/m) @ t=0.74
0.33340642419059385
% es.EZ (V/m) @ t=0.74
-2.8802786766697235
% es.tEX (V/m) @ t=0.74
1.2610621017011816
% es.tEY (V/m) @ t=0.74
0
% es.tEZ (V/m) @ t=0.74
-2.880278676669729
% es.Ex (V/m) @ t=0.74
1.2610621017011812
% es.Ey (V/m) @ t=0.74
0.33340642419059385
% es.Ez (V/m) @ t=0.74
-2.8802786766697235
% es.tEx (V/m) @ t=0.74
1.2610621017011816
% es.tEy (V/m) @ t=0.74
0
% es.tEz (V/m) @ t=0.74
-2.880278676669729
% V (V) @ t=0.74
0.01582104955112406
% es.normE (V/m) @ t=0.76
3.207494046673962
% es.EX (V/m) @ t=0.76
1.2783124223579487
% es.EY (V/m) @ t=0.76
0.3379660255849153
% es.EZ (V/m) @ t=0.76
-2.9196851772690717
% es.tEX (V/m) @ t=0.76
1.2783124223579492
% es.tEY (V/m) @ t=0.76
0
% es.tEZ (V/m) @ t=0.76
-2.919685177269084
% es.Ex (V/m) @ t=0.76
1.2783124223579487
% es.Ey (V/m) @ t=0.76
0.3379660255849153
% es.Ez (V/m) @ t=0.76
-2.9196851772690717
% es.tEx (V/m) @ t=0.76
1.2783124223579492
% es.tEy (V/m) @ t=0.76
0
% es.tEz (V/m) @ t=0.76
-2.919685177269084
% V (V) @ t=0.76
0.016037570224305343
% es.normE (V/m) @ t=0.78
3.2511659357248535
% es.EX (V/m) @ t=0.78
1.2957147316855773
% es.EY (V/m) @ t=0.78
0.3425656597940936
% es.EZ (V/m) @ t=0.78
-2.959439699792286
% es.tEX (V/m) @ t=0.78
1.2957147316855782
% es.tEY (V/m) @ t=0.78
0
% es.tEZ (V/m) @ t=0.78
-2.959439699792295
% es.Ex (V/m) @ t=0.78
1.2957147316855773
% es.Ey (V/m) @ t=0.78
0.3425656597940936
% es.Ez (V/m) @ t=0.78
-2.959439699792286
% es.tEx (V/m) @ t=0.78
1.2957147316855782
% es.tEy (V/m) @ t=0.78
0
% es.tEz (V/m) @ t=0.78
-2.959439699792295
% V (V) @ t=0.78
0.016256011223700326
% es.normE (V/m) @ t=0.8
3.295219980956314
% es.EX (V/m) @ t=0.8
1.313269029684124
% es.EY (V/m) @ t=0.8
0.34720532681809946
% es.EZ (V/m) @ t=0.8
-2.999542244239363
% es.tEX (V/m) @ t=0.8
1.3132690296841245
% es.tEY (V/m) @ t=0.8
0
% es.tEZ (V/m) @ t=0.8
-2.999542244239368
% es.Ex (V/m) @ t=0.8
1.313269029684124
% es.Ey (V/m) @ t=0.8
0.34720532681809946
% es.Ez (V/m) @ t=0.8
-2.999542244239363
% es.tEx (V/m) @ t=0.8
1.3132690296841245
% es.tEy (V/m) @ t=0.8
0
% es.tEz (V/m) @ t=0.8
-2.999542244239368
% V (V) @ t=0.8
0.016476372549309008
% es.normE (V/m) @ t=0.82
3.3398840658408755
% es.EX (V/m) @ t=0.82
1.331067061151352
% es.EY (V/m) @ t=0.82
0.3519097237502269
% es.EZ (V/m) @ t=0.82
-3.0401997872054967
% es.tEX (V/m) @ t=0.82
1.3310670611513524
% es.tEY (V/m) @ t=0.82
0
% es.tEZ (V/m) @ t=0.82
-3.040199787205502
% es.Ex (V/m) @ t=0.82
1.331067061151352
% es.Ey (V/m) @ t=0.82
0.3519097237502269
% es.Ez (V/m) @ t=0.82
-3.0401997872054967
% es.tEx (V/m) @ t=0.82
1.3310670611513524
% es.tEy (V/m) @ t=0.82
0
% es.tEz (V/m) @ t=0.82
-3.040199787205502
% V (V) @ t=0.82
0.016699765704282457
% es.normE (V/m) @ t=0.84
3.3855230659207027
% es.EX (V/m) @ t=0.84
1.3492557232404319
% es.EY (V/m) @ t=0.84
0.3567183943332326
% es.EZ (V/m) @ t=0.84
-3.081743729198953
% es.tEX (V/m) @ t=0.84
1.3492557232404323
% es.tEY (V/m) @ t=0.84
0
% es.tEZ (V/m) @ t=0.84
-3.0817437291989656
% es.Ex (V/m) @ t=0.84
1.3492557232404319
% es.Ey (V/m) @ t=0.84
0.3567183943332326
% es.Ez (V/m) @ t=0.84
-3.081743729198953
% es.tEx (V/m) @ t=0.84
1.3492557232404323
% es.tEy (V/m) @ t=0.84
0
% es.tEz (V/m) @ t=0.84
-3.0817437291989656
% V (V) @ t=0.84
0.01692797037153019
% es.normE (V/m) @ t=0.86
3.4316524172085408
% es.EX (V/m) @ t=0.86
1.3676399328037179
% es.EY (V/m) @ t=0.86
0.36157882347307346
% es.EZ (V/m) @ t=0.86
-3.1237339619338567
% es.tEX (V/m) @ t=0.86
1.3676399328037183
% es.tEY (V/m) @ t=0.86
0
% es.tEZ (V/m) @ t=0.86
-3.123733961933869
% es.Ex (V/m) @ t=0.86
1.3676399328037179
% es.Ey (V/m) @ t=0.86
0.36157882347307346
% es.Ez (V/m) @ t=0.86
-3.1237339619338567
% es.tEx (V/m) @ t=0.86
1.3676399328037183
% es.tEy (V/m) @ t=0.86
0
% es.tEz (V/m) @ t=0.86
-3.123733961933869
% V (V) @ t=0.86
0.01715862308698006
% es.normE (V/m) @ t=0.88
3.478272119704368
% es.EX (V/m) @ t=0.88
1.386219689841198
% es.EY (V/m) @ t=0.88
0.3664910111697255
% es.EZ (V/m) @ t=0.88
-3.1661704854102
% es.tEX (V/m) @ t=0.88
1.3862196898411918
% es.tEY (V/m) @ t=0.88
0
% es.tEZ (V/m) @ t=0.88
-3.166170485410202
% es.Ex (V/m) @ t=0.88
1.386219689841198
% es.Ey (V/m) @ t=0.88
0.3664910111697255
% es.Ez (V/m) @ t=0.88
-3.1661704854102
% es.tEx (V/m) @ t=0.88
1.3862196898411918
% es.tEy (V/m) @ t=0.88
0
% es.tEz (V/m) @ t=0.88
-3.166170485410202
% V (V) @ t=0.88
0.017391723850632083
% es.normE (V/m) @ t=0.9
3.5253821734081807
% es.EX (V/m) @ t=0.9
1.4049949943528417
% es.EY (V/m) @ t=0.9
0.3714549574232091
% es.EZ (V/m) @ t=0.9
-3.2090532996279695
% es.tEX (V/m) @ t=0.9
1.4049949943528421
% es.tEY (V/m) @ t=0.9
0
% es.tEZ (V/m) @ t=0.9
-3.209053299627975
% es.Ex (V/m) @ t=0.9
1.4049949943528417
% es.Ey (V/m) @ t=0.9
0.3714549574232091
% es.Ez (V/m) @ t=0.9
-3.2090532996279695
% es.tEx (V/m) @ t=0.9
1.4049949943528421
% es.tEy (V/m) @ t=0.9
0
% es.tEz (V/m) @ t=0.9
-3.209053299627975
% V (V) @ t=0.9
0.01762727266248625
% es.normE (V/m) @ t=0.92
3.5729825783200617
% es.EX (V/m) @ t=0.92
1.423965846338708
% es.EY (V/m) @ t=0.92
0.37647066223351366
% es.EZ (V/m) @ t=0.92
-3.2523824045871788
% es.tEX (V/m) @ t=0.92
1.4239658463387084
% es.tEY (V/m) @ t=0.92
0
% es.tEZ (V/m) @ t=0.92
-3.2523824045871805
% es.Ex (V/m) @ t=0.92
1.423965846338708
% es.Ey (V/m) @ t=0.92
0.37647066223351366
% es.Ez (V/m) @ t=0.92
-3.2523824045871788
% es.tEx (V/m) @ t=0.92
1.4239658463387084
% es.tEy (V/m) @ t=0.92
0
% es.tEz (V/m) @ t=0.92
-3.2523824045871805
% V (V) @ t=0.92
0.01786526952254256
% es.normE (V/m) @ t=0.94
3.621073334440048
% es.EX (V/m) @ t=0.94
1.4431322457987368
% es.EY (V/m) @ t=0.94
0.3815381256006223
% es.EZ (V/m) @ t=0.94
-3.296157800287814
% es.tEX (V/m) @ t=0.94
1.4431322457987372
% es.tEY (V/m) @ t=0.94
0
% es.tEZ (V/m) @ t=0.94
-3.2961578002878333
% es.Ex (V/m) @ t=0.94
1.4431322457987368
% es.Ey (V/m) @ t=0.94
0.3815381256006223
% es.Ez (V/m) @ t=0.94
-3.296157800287814
% es.tEx (V/m) @ t=0.94
1.4431322457987372
% es.tEy (V/m) @ t=0.94
0
% es.tEz (V/m) @ t=0.94
-3.2961578002878333
% V (V) @ t=0.94
0.018105714430801015
% es.normE (V/m) @ t=0.96
3.669654441768288
% es.EX (V/m) @ t=0.96
1.4624941927329957
% es.EY (V/m) @ t=0.96
0.3866573475245554
% es.EZ (V/m) @ t=0.96
-3.3403794867298995
% es.tEX (V/m) @ t=0.96
1.4624941927329962
% es.tEY (V/m) @ t=0.96
0
% es.tEZ (V/m) @ t=0.96
-3.3403794867299013
% es.Ex (V/m) @ t=0.96
1.4624941927329957
% es.Ey (V/m) @ t=0.96
0.3866573475245554
% es.Ez (V/m) @ t=0.96
-3.3403794867298995
% es.tEx (V/m) @ t=0.96
1.4624941927329962
% es.tEy (V/m) @ t=0.96
0
% es.tEz (V/m) @ t=0.96
-3.3403794867299013
% V (V) @ t=0.96
0.01834860738726161
% es.normE (V/m) @ t=0.98
3.718725900304886
% es.EX (V/m) @ t=0.98
1.4820516871414249
% es.EY (V/m) @ t=0.98
0.39182832800529965
% es.EZ (V/m) @ t=0.98
-3.3850474639134447
% es.tEX (V/m) @ t=0.98
1.4820516871414187
% es.tEY (V/m) @ t=0.98
0
% es.tEZ (V/m) @ t=0.98
-3.385047463913441
% es.Ex (V/m) @ t=0.98
1.4820516871414249
% es.Ey (V/m) @ t=0.98
0.39182832800529965
% es.Ez (V/m) @ t=0.98
-3.3850474639134447
% es.tEx (V/m) @ t=0.98
1.4820516871414187
% es.tEy (V/m) @ t=0.98
0
% es.tEz (V/m) @ t=0.98
-3.385047463913441
% V (V) @ t=0.98
0.01859394839192435
% es.normE (V/m) @ t=1
3.7682877100499166
% es.EX (V/m) @ t=1
1.5018047290239989
% es.EY (V/m) @ t=1
0.3970510670428933
% es.EZ (V/m) @ t=1
-3.4301617318383837
% es.tEX (V/m) @ t=1
1.5018047290239993
% es.tEY (V/m) @ t=1
0
% es.tEZ (V/m) @ t=1
-3.4301617318383784
% es.Ex (V/m) @ t=1
1.5018047290239989
% es.Ey (V/m) @ t=1
0.3970510670428933
% es.Ez (V/m) @ t=1
-3.4301617318383837
% es.tEx (V/m) @ t=1
1.5018047290239993
% es.tEy (V/m) @ t=1
0
% es.tEz (V/m) @ t=1
-3.4301617318383784
% V (V) @ t=1
0.018841737444789244
% es.normE (V/m) @ t=1.02
3.8183398710036167
% es.EX (V/m) @ t=1.02
1.5217533183808403
% es.EY (V/m) @ t=1.02
0.4023255646372643
% es.EZ (V/m) @ t=1.02
-3.475722290504754
% es.tEX (V/m) @ t=1.02
1.5217533183808412
% es.tEY (V/m) @ t=1.02
0
% es.tEZ (V/m) @ t=1.02
-3.4757222905047556
% es.Ex (V/m) @ t=1.02
1.5217533183808403
% es.Ey (V/m) @ t=1.02
0.4023255646372643
% es.Ez (V/m) @ t=1.02
-3.475722290504754
% es.tEx (V/m) @ t=1.02
1.5217533183808412
% es.tEy (V/m) @ t=1.02
0
% es.tEz (V/m) @ t=1.02
-3.4757222905047556
% V (V) @ t=1.02
0.01909197454585627
% es.normE (V/m) @ t=1.04
3.868882383166171
% es.EX (V/m) @ t=1.04
1.5418974552118514
% es.EY (V/m) @ t=1.04
0.40765182078849094
% es.EZ (V/m) @ t=1.04
-3.521729139912596
% es.tEX (V/m) @ t=1.04
1.5418974552118447
% es.tEY (V/m) @ t=1.04
0
% es.tEZ (V/m) @ t=1.04
-3.5217291399125976
% es.Ex (V/m) @ t=1.04
1.5418974552118514
% es.Ey (V/m) @ t=1.04