% Model:              1 neuron.mph
% Version:            COMSOL 6.0.0.405
% Date:               Mar 16 2023, 19:36
% Dimension:          0
% Nodes:              14017
% Expressions:        14017
% Description:        Electric field norm, Electric field, X component, Electric field, Y component, Electric field, Z component, Tangential electric field, X component, Tangential electric field, Y component, Tangential electric field, Z component, Electric field, x component, Electric field, y component, Electric field, z component, Tangential electric field, x component, Tangential electric field, y component, Tangential electric field, z component, Electric potential
% Length unit:        mm
% x
1.66
% y
12.200000000000001
% z
1.66
% es.normE (V/m) @ t=0
31.114638600572498
% es.EX (V/m) @ t=0
-14.694124203740188
% es.EY (V/m) @ t=0
11.78923586218859
% es.EZ (V/m) @ t=0
14.132400034582428
% es.tEX (V/m) @ t=0
-14.694124203740195
% es.tEY (V/m) @ t=0
0
% es.tEZ (V/m) @ t=0
14.132400034582417
% es.Ex (V/m) @ t=0
-14.694124203740188
% es.Ey (V/m) @ t=0
11.78923586218859
% es.Ez (V/m) @ t=0
14.132400034582428
% es.tEx (V/m) @ t=0
-14.694124203740195
% es.tEy (V/m) @ t=0
0
% es.tEz (V/m) @ t=0
14.132400034582417
% V (V) @ t=0
0.009765195339572461
% es.normE (V/m) @ t=0.02
27.02329866929623
% es.EX (V/m) @ t=0.02
-12.761957920321883
% es.EY (V/m) @ t=0.02
10.239040431617521
% es.EZ (V/m) @ t=0.02
12.274096105029326
% es.tEX (V/m) @ t=0.02
-12.761957920321883
% es.tEY (V/m) @ t=0.02
0
% es.tEZ (V/m) @ t=0.02
12.274096105029315
% es.Ex (V/m) @ t=0.02
-12.761957920321883
% es.Ey (V/m) @ t=0.02
10.239040431617521
% es.Ez (V/m) @ t=0.02
12.274096105029326
% es.tEx (V/m) @ t=0.02
-12.761957920321883
% es.tEy (V/m) @ t=0.02
0
% es.tEz (V/m) @ t=0.02
12.274096105029315
% V (V) @ t=0.02
0.008481145926641264
% es.normE (V/m) @ t=0.04
27.423993494366627
% es.EX (V/m) @ t=0.04
-12.951189070867123
% es.EY (V/m) @ t=0.04
10.390862392457485
% es.EZ (V/m) @ t=0.04
12.456093420248791
% es.tEX (V/m) @ t=0.04
-12.95118907086713
% es.tEY (V/m) @ t=0.04
0
% es.tEZ (V/m) @ t=0.04
12.456093420248806
% es.Ex (V/m) @ t=0.04
-12.951189070867123
% es.Ey (V/m) @ t=0.04
10.390862392457485
% es.Ez (V/m) @ t=0.04
12.456093420248791
% es.tEx (V/m) @ t=0.04
-12.95118907086713
% es.tEy (V/m) @ t=0.04
0
% es.tEz (V/m) @ t=0.04
12.456093420248806
% V (V) @ t=0.04
0.008606902268641636
% es.normE (V/m) @ t=0.06
27.83067251715979
% es.EX (V/m) @ t=0.06
-13.143246312874133
% es.EY (V/m) @ t=0.06
10.544951750149849
% es.EZ (V/m) @ t=0.06
12.640808769727922
% es.tEX (V/m) @ t=0.06
-13.143246312874133
% es.tEY (V/m) @ t=0.06
0
% es.tEZ (V/m) @ t=0.06
12.640808769727869
% es.Ex (V/m) @ t=0.06
-13.143246312874133
% es.Ey (V/m) @ t=0.06
10.544951750149849
% es.Ez (V/m) @ t=0.06
12.640808769727922
% es.tEx (V/m) @ t=0.06
-13.143246312874133
% es.tEy (V/m) @ t=0.06
0
% es.tEz (V/m) @ t=0.06
12.640808769727869
% V (V) @ t=0.06
0.008734536727208472
% es.normE (V/m) @ t=0.08
28.24779156602208
% es.EX (V/m) @ t=0.08
-13.34023392998629
% es.EY (V/m) @ t=0.08
10.702996795970137
% es.EZ (V/m) @ t=0.08
12.83026603457554
% es.tEX (V/m) @ t=0.08
-13.340233929986276
% es.tEY (V/m) @ t=0.08
0
% es.tEZ (V/m) @ t=0.08
12.830266034575544
% es.Ex (V/m) @ t=0.08
-13.34023392998629
% es.Ey (V/m) @ t=0.08
10.702996795970137
% es.Ez (V/m) @ t=0.08
12.83026603457554
% es.tEx (V/m) @ t=0.08
-13.340233929986276
% es.tEy (V/m) @ t=0.08
0
% es.tEz (V/m) @ t=0.08
12.830266034575544
% V (V) @ t=0.08
0.00886544774224244
% es.normE (V/m) @ t=0.1
28.672059052162613
% es.EX (V/m) @ t=0.1
-13.5405974464462
% es.EY (V/m) @ t=0.1
10.863750358827424
% es.EZ (V/m) @ t=0.1
13.022970157655703
% es.tEX (V/m) @ t=0.1
-13.540597446446185
% es.tEY (V/m) @ t=0.1
0
% es.tEZ (V/m) @ t=0.1
13.022970157655692
% es.Ex (V/m) @ t=0.1
-13.5405974464462
% es.Ey (V/m) @ t=0.1
10.863750358827424
% es.Ez (V/m) @ t=0.1
13.022970157655703
% es.tEx (V/m) @ t=0.1
-13.540597446446185
% es.tEy (V/m) @ t=0.1
0
% es.tEz (V/m) @ t=0.1
13.022970157655692
% V (V) @ t=0.1
0.008998602263014672
% es.normE (V/m) @ t=0.12
29.09632653830322
% es.EX (V/m) @ t=0.12
-13.740960962906144
% es.EY (V/m) @ t=0.12
11.024503921684708
% es.EZ (V/m) @ t=0.12
13.215674280735929
% es.tEX (V/m) @ t=0.12
-13.740960962906122
% es.tEY (V/m) @ t=0.12
0
% es.tEZ (V/m) @ t=0.12
13.215674280735925
% es.Ex (V/m) @ t=0.12
-13.740960962906144
% es.Ey (V/m) @ t=0.12
11.024503921684708
% es.Ez (V/m) @ t=0.12
13.215674280735929
% es.tEx (V/m) @ t=0.12
-13.740960962906122
% es.tEy (V/m) @ t=0.12
0
% es.tEz (V/m) @ t=0.12
13.215674280735925
% V (V) @ t=0.12
0.009131756783786906
% es.normE (V/m) @ t=0.14
29.528105239144203
% es.EX (V/m) @ t=0.14
-13.944871753761177
% es.EY (V/m) @ t=0.14
11.188103487875363
% es.EZ (V/m) @ t=0.14
13.411789946587852
% es.tEX (V/m) @ t=0.14
-13.944871753761184
% es.tEY (V/m) @ t=0.14
0
% es.tEZ (V/m) @ t=0.14
13.411789946587874
% es.Ex (V/m) @ t=0.14
-13.944871753761177
% es.Ey (V/m) @ t=0.14
11.188103487875363
% es.Ez (V/m) @ t=0.14
13.411789946587852
% es.tEx (V/m) @ t=0.14
-13.944871753761184
% es.tEy (V/m) @ t=0.14
0
% es.tEz (V/m) @ t=0.14
13.411789946587874
% V (V) @ t=0.14
0.00926726867240474
% es.normE (V/m) @ t=0.16
29.9904822677816
% es.EX (V/m) @ t=0.16
-14.163233025537814
% es.EY (V/m) @ t=0.16
11.363296777102157
% es.EZ (V/m) @ t=0.16
13.621803165390066
% es.tEX (V/m) @ t=0.16
-14.163233025537842
% es.tEY (V/m) @ t=0.16
0
% es.tEZ (V/m) @ t=0.16
13.621803165390077
% es.Ex (V/m) @ t=0.16
-14.163233025537814
% es.Ey (V/m) @ t=0.16
11.363296777102157
% es.Ez (V/m) @ t=0.16
13.621803165390066
% es.tEx (V/m) @ t=0.16
-14.163233025537842
% es.tEy (V/m) @ t=0.16
0
% es.tEz (V/m) @ t=0.16
13.621803165390077
% V (V) @ t=0.16
0.00941238373666749
% es.normE (V/m) @ t=0.18
30.452859296418993
% es.EX (V/m) @ t=0.18
-14.381594297314386
% es.EY (V/m) @ t=0.18
11.53849006632904
% es.EZ (V/m) @ t=0.18
13.831816384192223
% es.tEX (V/m) @ t=0.18
-14.381594297314365
% es.tEY (V/m) @ t=0.18
0
% es.tEZ (V/m) @ t=0.18
13.831816384192223
% es.Ex (V/m) @ t=0.18
-14.381594297314386
% es.Ey (V/m) @ t=0.18
11.53849006632904
% es.Ez (V/m) @ t=0.18
13.831816384192223
% es.tEx (V/m) @ t=0.18
-14.381594297314365
% es.tEy (V/m) @ t=0.18
0
% es.tEz (V/m) @ t=0.18
13.831816384192223
% V (V) @ t=0.18
0.009557498800930242
% es.normE (V/m) @ t=0.2
30.915236325056306
% es.EX (V/m) @ t=0.2
-14.599955569090959
% es.EY (V/m) @ t=0.2
11.71368335555583
% es.EZ (V/m) @ t=0.2
14.041829602994422
% es.tEX (V/m) @ t=0.2
-14.599955569090966
% es.tEY (V/m) @ t=0.2
0
% es.tEZ (V/m) @ t=0.2
14.041829602994426
% es.Ex (V/m) @ t=0.2
-14.599955569090959
% es.Ey (V/m) @ t=0.2
11.71368335555583
% es.Ez (V/m) @ t=0.2
14.041829602994422
% es.tEx (V/m) @ t=0.2
-14.599955569090966
% es.tEy (V/m) @ t=0.2
0
% es.tEz (V/m) @ t=0.2
14.041829602994426
% V (V) @ t=0.2
0.009702613865192992
% es.normE (V/m) @ t=0.22
31.377613353693647
% es.EX (V/m) @ t=0.22
-14.818316840867524
% es.EY (V/m) @ t=0.22
11.888876644782655
% es.EZ (V/m) @ t=0.22
14.251842821796565
% es.tEX (V/m) @ t=0.22
-14.818316840867531
% es.tEY (V/m) @ t=0.22
0
% es.tEZ (V/m) @ t=0.22
14.251842821796572
% es.Ex (V/m) @ t=0.22
-14.818316840867524
% es.Ey (V/m) @ t=0.22
11.888876644782655
% es.Ez (V/m) @ t=0.22
14.251842821796565
% es.tEx (V/m) @ t=0.22
-14.818316840867531
% es.tEy (V/m) @ t=0.22
0
% es.tEz (V/m) @ t=0.22
14.251842821796572
% V (V) @ t=0.22
0.009847728929455742
% es.normE (V/m) @ t=0.24
31.839990382331045
% es.EX (V/m) @ t=0.24
-15.036678112644168
% es.EY (V/m) @ t=0.24
12.064069934009503
% es.EZ (V/m) @ t=0.24
14.461856040598793
% es.tEX (V/m) @ t=0.24
-15.036678112644168
% es.tEY (V/m) @ t=0.24
0
% es.tEZ (V/m) @ t=0.24
14.461856040598803
% es.Ex (V/m) @ t=0.24
-15.036678112644168
% es.Ey (V/m) @ t=0.24
12.064069934009503
% es.Ez (V/m) @ t=0.24
14.461856040598793
% es.tEx (V/m) @ t=0.24
-15.036678112644168
% es.tEy (V/m) @ t=0.24
0
% es.tEz (V/m) @ t=0.24
14.461856040598803
% V (V) @ t=0.24
0.00999284399371849
% es.normE (V/m) @ t=0.26
32.30236741096847
% es.EX (V/m) @ t=0.26
-15.255039384420762
% es.EY (V/m) @ t=0.26
12.239263223236385
% es.EZ (V/m) @ t=0.26
14.671869259400992
% es.tEX (V/m) @ t=0.26
-15.25503938442074
% es.tEY (V/m) @ t=0.26
0
% es.tEZ (V/m) @ t=0.26
14.671869259401035
% es.Ex (V/m) @ t=0.26
-15.255039384420762
% es.Ey (V/m) @ t=0.26
12.239263223236385
% es.Ez (V/m) @ t=0.26
14.671869259400992
% es.tEx (V/m) @ t=0.26
-15.25503938442074
% es.tEy (V/m) @ t=0.26
0
% es.tEz (V/m) @ t=0.26
14.671869259401035
% V (V) @ t=0.26
0.010137959057981242
% es.normE (V/m) @ t=0.28
32.78137088915555
% es.EX (V/m) @ t=0.28
-15.48125258266392
% es.EY (V/m) @ t=0.28
12.420756195529066
% es.EZ (V/m) @ t=0.28
14.88943435403747
% es.tEX (V/m) @ t=0.28
-15.481252582663956
% es.tEY (V/m) @ t=0.28
0
% es.tEZ (V/m) @ t=0.28
14.889434354037462
% es.Ex (V/m) @ t=0.28
-15.48125258266392
% es.Ey (V/m) @ t=0.28
12.420756195529066
% es.Ez (V/m) @ t=0.28
14.88943435403747
% es.tEx (V/m) @ t=0.28
-15.481252582663956
% es.tEy (V/m) @ t=0.28
0
% es.tEz (V/m) @ t=0.28
14.889434354037462
% V (V) @ t=0.28
0.010288292257064421
% es.normE (V/m) @ t=0.3
33.28488809956231
% es.EX (V/m) @ t=0.3
-15.719042517253413
% es.EY (V/m) @ t=0.3
12.611537304972252
% es.EZ (V/m) @ t=0.3
15.118133795872112
% es.tEX (V/m) @ t=0.3
-15.71904251725342
% es.tEY (V/m) @ t=0.3
0
% es.tEZ (V/m) @ t=0.3
15.118133795872097
% es.Ex (V/m) @ t=0.3
-15.719042517253413
% es.Ey (V/m) @ t=0.3
12.611537304972252
% es.Ez (V/m) @ t=0.3
15.118133795872112
% es.tEx (V/m) @ t=0.3
-15.71904251725342
% es.tEy (V/m) @ t=0.3
0
% es.tEz (V/m) @ t=0.3
15.118133795872097
% V (V) @ t=0.3
0.0104463189784051
% es.normE (V/m) @ t=0.32
33.788405309968994
% es.EX (V/m) @ t=0.32
-15.956832451842871
% es.EY (V/m) @ t=0.32
12.802318414415417
% es.EZ (V/m) @ t=0.32
15.346833237706555
% es.tEX (V/m) @ t=0.32
-15.95683245184285
% es.tEY (V/m) @ t=0.32
0
% es.tEZ (V/m) @ t=0.32
15.346833237706562
% es.Ex (V/m) @ t=0.32
-15.956832451842871
% es.Ey (V/m) @ t=0.32
12.802318414415417
% es.Ez (V/m) @ t=0.32
15.346833237706555
% es.tEx (V/m) @ t=0.32
-15.95683245184285
% es.tEy (V/m) @ t=0.32
0
% es.tEz (V/m) @ t=0.32
15.346833237706562
% V (V) @ t=0.32
0.010604345699745776
% es.normE (V/m) @ t=0.34
34.291922520375714
% es.EX (V/m) @ t=0.34
-16.1946223864323
% es.EY (V/m) @ t=0.34
12.993099523858646
% es.EZ (V/m) @ t=0.34
15.575532679541112
% es.tEX (V/m) @ t=0.34
-16.19462238643233
% es.tEY (V/m) @ t=0.34
0
% es.tEZ (V/m) @ t=0.34
15.575532679541112
% es.Ex (V/m) @ t=0.34
-16.1946223864323
% es.Ey (V/m) @ t=0.34
12.993099523858646
% es.Ez (V/m) @ t=0.34
15.575532679541112
% es.tEx (V/m) @ t=0.34
-16.19462238643233
% es.tEy (V/m) @ t=0.34
0
% es.tEz (V/m) @ t=0.34
15.575532679541112
% V (V) @ t=0.34
0.010762372421086455
% es.normE (V/m) @ t=0.36
34.79543973078257
% es.EX (V/m) @ t=0.36
-16.432412321021815
% es.EY (V/m) @ t=0.36
13.18388063330191
% es.EZ (V/m) @ t=0.36
15.804232121375712
% es.tEX (V/m) @ t=0.36
-16.4324123210218
% es.tEY (V/m) @ t=0.36
0
% es.tEZ (V/m) @ t=0.36
15.804232121375719
% es.Ex (V/m) @ t=0.36
-16.432412321021815
% es.Ey (V/m) @ t=0.36
13.18388063330191
% es.Ez (V/m) @ t=0.36
15.804232121375712
% es.tEx (V/m) @ t=0.36
-16.4324123210218
% es.tEy (V/m) @ t=0.36
0
% es.tEz (V/m) @ t=0.36
15.804232121375719
% V (V) @ t=0.36
0.010920399142427132
% es.normE (V/m) @ t=0.38
35.298956941189175
% es.EX (V/m) @ t=0.38
-16.670202255611187
% es.EY (V/m) @ t=0.38
13.374661742745097
% es.EZ (V/m) @ t=0.38
16.03293156321019
% es.tEX (V/m) @ t=0.38
-16.670202255611194
% es.tEY (V/m) @ t=0.38
0
% es.tEZ (V/m) @ t=0.38
16.032931563210184
% es.Ex (V/m) @ t=0.38
-16.670202255611187
% es.Ey (V/m) @ t=0.38
13.374661742745097
% es.Ez (V/m) @ t=0.38
16.03293156321019
% es.tEx (V/m) @ t=0.38
-16.670202255611194
% es.tEy (V/m) @ t=0.38
0
% es.tEz (V/m) @ t=0.38
16.032931563210184
% V (V) @ t=0.38
0.01107842586376781
% es.normE (V/m) @ t=0.4
35.80247415159599
% es.EX (V/m) @ t=0.4
-16.907992190200687
% es.EY (V/m) @ t=0.4
13.565442852188312
% es.EZ (V/m) @ t=0.4
16.261631005044777
% es.tEX (V/m) @ t=0.4
-16.907992190200673
% es.tEY (V/m) @ t=0.4
0
% es.tEZ (V/m) @ t=0.4
16.261631005044762
% es.Ex (V/m) @ t=0.4
-16.907992190200687
% es.Ey (V/m) @ t=0.4
13.565442852188312
% es.Ez (V/m) @ t=0.4
16.261631005044777
% es.tEx (V/m) @ t=0.4
-16.907992190200673
% es.tEy (V/m) @ t=0.4
0
% es.tEz (V/m) @ t=0.4
16.261631005044762
% V (V) @ t=0.4
0.011236452585108489
% es.normE (V/m) @ t=0.42
36.333027673222155
% es.EX (V/m) @ t=0.42
-17.158550266245513
% es.EY (V/m) @ t=0.42
13.766467955969773
% es.EZ (V/m) @ t=0.42
16.502610385003244
% es.tEX (V/m) @ t=0.42
-17.158550266245506
% es.tEY (V/m) @ t=0.42
0
% es.tEZ (V/m) @ t=0.42
16.502610385003265
% es.Ex (V/m) @ t=0.42
-17.158550266245513
% es.Ey (V/m) @ t=0.42
13.766467955969773
% es.Ez (V/m) @ t=0.42
16.502610385003244
% es.tEx (V/m) @ t=0.42
-17.158550266245506
% es.tEy (V/m) @ t=0.42
0
% es.tEz (V/m) @ t=0.42
16.502610385003265
% V (V) @ t=0.42
0.011402964540828186
% es.normE (V/m) @ t=0.44
36.880780600277916
% es.EX (V/m) @ t=0.44
-17.417230916397827
% es.EY (V/m) @ t=0.44
13.974009873765112
% es.EZ (V/m) @ t=0.44
16.751401763896347
% es.tEX (V/m) @ t=0.44
-17.417230916397827
% es.tEY (V/m) @ t=0.44
0
% es.tEZ (V/m) @ t=0.44
16.751401763896354
% es.Ex (V/m) @ t=0.44
-17.417230916397827
% es.Ey (V/m) @ t=0.44
13.974009873765112
% es.Ez (V/m) @ t=0.44
16.751401763896347
% es.tEx (V/m) @ t=0.44
-17.417230916397827
% es.tEy (V/m) @ t=0.44
0
% es.tEz (V/m) @ t=0.44
16.751401763896354
% V (V) @ t=0.44
0.011574874458757486
% es.normE (V/m) @ t=0.46
37.42853352733391
% es.EX (V/m) @ t=0.46
-17.675911566550212
% es.EY (V/m) @ t=0.46
14.181551791560643
% es.EZ (V/m) @ t=0.46
17.000193142789627
% es.tEX (V/m) @ t=0.46
-17.675911566550177
% es.tEY (V/m) @ t=0.46
0
% es.tEZ (V/m) @ t=0.46
17.000193142789612
% es.Ex (V/m) @ t=0.46
-17.675911566550212
% es.Ey (V/m) @ t=0.46
14.181551791560643
% es.Ez (V/m) @ t=0.46
17.000193142789627
% es.tEx (V/m) @ t=0.46
-17.675911566550177
% es.tEy (V/m) @ t=0.46
0
% es.tEz (V/m) @ t=0.46
17.000193142789612
% V (V) @ t=0.46
0.011746784376686784
% es.normE (V/m) @ t=0.48
37.97628645438963
% es.EX (V/m) @ t=0.48
-17.93459221670247
% es.EY (V/m) @ t=0.48
14.389093709356011
% es.EZ (V/m) @ t=0.48
17.248984521682736
% es.tEX (V/m) @ t=0.48
-17.93459221670245
% es.tEY (V/m) @ t=0.48
0
% es.tEZ (V/m) @ t=0.48
17.248984521682758
% es.Ex (V/m) @ t=0.48
-17.93459221670247
% es.Ey (V/m) @ t=0.48
14.389093709356011
% es.Ez (V/m) @ t=0.48
17.248984521682736
% es.tEx (V/m) @ t=0.48
-17.93459221670245
% es.tEy (V/m) @ t=0.48
0
% es.tEz (V/m) @ t=0.48
17.248984521682758
% V (V) @ t=0.48
0.011918694294616086
% es.normE (V/m) @ t=0.5
38.52403938144553
% es.EX (V/m) @ t=0.5
-18.193272866854798
% es.EY (V/m) @ t=0.5
14.596635627151464
% es.EZ (V/m) @ t=0.5
17.497775900575938
% es.tEX (V/m) @ t=0.5
-18.193272866854812
% es.tEY (V/m) @ t=0.5
0
% es.tEZ (V/m) @ t=0.5
17.497775900575903
% es.Ex (V/m) @ t=0.5
-18.193272866854798
% es.Ey (V/m) @ t=0.5
14.596635627151464
% es.Ez (V/m) @ t=0.5
17.497775900575938
% es.tEx (V/m) @ t=0.5
-18.193272866854812
% es.tEy (V/m) @ t=0.5
0
% es.tEz (V/m) @ t=0.5
17.497775900575903
% V (V) @ t=0.5
0.012090604212545385
% es.normE (V/m) @ t=0.52
39.07179230850136
% es.EX (V/m) @ t=0.52
-18.451953517007126
% es.EY (V/m) @ t=0.52
14.804177544946882
% es.EZ (V/m) @ t=0.52
17.74656727946904
% es.tEX (V/m) @ t=0.52
-18.451953517007126
% es.tEY (V/m) @ t=0.52
0
% es.tEZ (V/m) @ t=0.52
17.746567279469048
% es.Ex (V/m) @ t=0.52
-18.451953517007126
% es.Ey (V/m) @ t=0.52
14.804177544946882
% es.Ez (V/m) @ t=0.52
17.74656727946904
% es.tEx (V/m) @ t=0.52
-18.451953517007126
% es.tEy (V/m) @ t=0.52
0
% es.tEz (V/m) @ t=0.52
17.746567279469048
% V (V) @ t=0.52
0.012262514130474687
% es.normE (V/m) @ t=0.54
39.619545235557155
% es.EX (V/m) @ t=0.54
-18.710634167159398
% es.EY (V/m) @ t=0.54
15.011719462742356
% es.EZ (V/m) @ t=0.54
17.995358658362242
% es.tEX (V/m) @ t=0.54
-18.710634167159412
% es.tEY (V/m) @ t=0.54
0
% es.tEZ (V/m) @ t=0.54
17.995358658362193
% es.Ex (V/m) @ t=0.54
-18.710634167159398
% es.Ey (V/m) @ t=0.54
15.011719462742356
% es.Ez (V/m) @ t=0.54
17.995358658362242
% es.tEx (V/m) @ t=0.54
-18.710634167159412
% es.tEy (V/m) @ t=0.54
0
% es.tEz (V/m) @ t=0.54
17.995358658362193
% V (V) @ t=0.54
0.012434424048403982
% es.normE (V/m) @ t=0.56
40.184434994963176
% es.EX (V/m) @ t=0.56
-18.977407783684527
% es.EY (V/m) @ t=0.56
15.225754450732062
% es.EZ (V/m) @ t=0.56
18.25193371726366
% es.tEX (V/m) @ t=0.56
-18.977407783684527
% es.tEY (V/m) @ t=0.56
0
% es.tEZ (V/m) @ t=0.56
18.251933717263626
% es.Ex (V/m) @ t=0.56
-18.977407783684527
% es.Ey (V/m) @ t=0.56
15.225754450732062
% es.Ez (V/m) @ t=0.56
18.25193371726366
% es.tEx (V/m) @ t=0.56
-18.977407783684527
% es.tEy (V/m) @ t=0.56
0
% es.tEz (V/m) @ t=0.56
18.251933717263626
% V (V) @ t=0.56
0.012611712283519563
% es.normE (V/m) @ t=0.58
40.758134851132475
% es.EX (V/m) @ t=0.58
-19.24834201842596
% es.EY (V/m) @ t=0.58
15.443127545527815
% es.EZ (V/m) @ t=0.58
18.51251038933644
% es.tEX (V/m) @ t=0.58
-19.248342018425987
% es.tEY (V/m) @ t=0.58
0
% es.tEZ (V/m) @ t=0.58
18.5125103893364
% es.Ex (V/m) @ t=0.58
-19.24834201842596
% es.Ey (V/m) @ t=0.58
15.443127545527815
% es.Ez (V/m) @ t=0.58
18.51251038933644
% es.tEx (V/m) @ t=0.58
-19.248342018425987
% es.tEy (V/m) @ t=0.58
0
% es.tEz (V/m) @ t=0.58
18.5125103893364
% V (V) @ t=0.58
0.012791765527585805
% es.normE (V/m) @ t=0.6
41.337338105623836
% es.EX (V/m) @ t=0.6
-19.521875264270832
% es.EY (V/m) @ t=0.6
15.662585853674699
% es.EZ (V/m) @ t=0.6
18.775586746918293
% es.tEX (V/m) @ t=0.6
-19.521875264270804
% es.tEY (V/m) @ t=0.6
0
% es.tEZ (V/m) @ t=0.6
18.775586746918236
% es.Ex (V/m) @ t=0.6
-19.521875264270832
% es.Ey (V/m) @ t=0.6
15.662585853674699
% es.Ez (V/m) @ t=0.6
18.775586746918293
% es.tEx (V/m) @ t=0.6
-19.521875264270804
% es.tEy (V/m) @ t=0.6
0
% es.tEz (V/m) @ t=0.6
18.775586746918236
% V (V) @ t=0.6
0.012973545988279662
% es.normE (V/m) @ t=0.62
41.92204475843771
% es.EX (V/m) @ t=0.62
-19.798007521219418
% es.EY (V/m) @ t=0.62
15.88412937517284
% es.EZ (V/m) @ t=0.62
19.04116279000943
% es.tEX (V/m) @ t=0.62
-19.79800752121941
% es.tEY (V/m) @ t=0.62
0
% es.tEZ (V/m) @ t=0.62
19.04116279000948
% es.Ex (V/m) @ t=0.62
-19.798007521219418
% es.Ey (V/m) @ t=0.62
15.88412937517284
% es.Ez (V/m) @ t=0.62
19.04116279000943
% es.tEx (V/m) @ t=0.62
-19.79800752121941
% es.tEy (V/m) @ t=0.62
0
% es.tEz (V/m) @ t=0.62
19.04116279000948
% V (V) @ t=0.62
0.013157053665601128
% es.normE (V/m) @ t=0.64
42.51225480957392
% es.EX (V/m) @ t=0.64
-20.07673878927163
% es.EY (V/m) @ t=0.64
16.107758110022253
% es.EZ (V/m) @ t=0.64
19.309238518609796
% es.tEX (V/m) @ t=0.64
-20.076738789271666
% es.tEY (V/m) @ t=0.64
0
% es.tEZ (V/m) @ t=0.64
19.30923851860979
% es.Ex (V/m) @ t=0.64
-20.07673878927163
% es.Ey (V/m) @ t=0.64
16.107758110022253
% es.Ez (V/m) @ t=0.64
19.309238518609796
% es.tEx (V/m) @ t=0.64
-20.076738789271666
% es.tEy (V/m) @ t=0.64
0
% es.tEz (V/m) @ t=0.64
19.30923851860979
% V (V) @ t=0.64
0.013342288559550209
% es.normE (V/m) @ t=0.66
43.10796825903228
% es.EX (V/m) @ t=0.66
-20.358069068427326
% es.EY (V/m) @ t=0.66
16.333472058222746
% es.EZ (V/m) @ t=0.66
19.579813932719148
% es.tEX (V/m) @ t=0.66
-20.358069068427326
% es.tEY (V/m) @ t=0.66
0
% es.tEZ (V/m) @ t=0.66
19.579813932719162
% es.Ex (V/m) @ t=0.66
-20.358069068427326
% es.Ey (V/m) @ t=0.66
16.333472058222746
% es.Ez (V/m) @ t=0.66
19.579813932719148
% es.tEx (V/m) @ t=0.66
-20.358069068427326
% es.tEy (V/m) @ t=0.66
0
% es.tEz (V/m) @ t=0.66
19.579813932719162
% V (V) @ t=0.66
0.013529250670126901
% es.normE (V/m) @ t=0.68
43.70918510681312
% es.EX (V/m) @ t=0.68
-20.64199835868672
% es.EY (V/m) @ t=0.68
16.561271219774554
% es.EZ (V/m) @ t=0.68
19.852889032337814
% es.tEX (V/m) @ t=0.68
-20.641998358686706
% es.tEY (V/m) @ t=0.68
0
% es.tEZ (V/m) @ t=0.68
19.852889032337828
% es.Ex (V/m) @ t=0.68
-20.64199835868672
% es.Ey (V/m) @ t=0.68
16.561271219774554
% es.Ez (V/m) @ t=0.68
19.852889032337814
% es.tEx (V/m) @ t=0.68
-20.641998358686706
% es.tEy (V/m) @ t=0.68
0
% es.tEz (V/m) @ t=0.68
19.852889032337828
% V (V) @ t=0.68
0.013717939997331204
% es.normE (V/m) @ t=0.7
44.31590535291616
% es.EX (V/m) @ t=0.7
-20.928526660049656
% es.EY (V/m) @ t=0.7
16.79115559467747
% es.EZ (V/m) @ t=0.7
20.128463817465693
% es.tEX (V/m) @ t=0.7
-20.928526660049656
% es.tEY (V/m) @ t=0.7
0
% es.tEZ (V/m) @ t=0.7
20.128463817465672
% es.Ex (V/m) @ t=0.7
-20.928526660049656
% es.Ey (V/m) @ t=0.7
16.79115559467747
% es.Ez (V/m) @ t=0.7
20.128463817465693
% es.tEx (V/m) @ t=0.7
-20.928526660049656
% es.tEy (V/m) @ t=0.7
0
% es.tEz (V/m) @ t=0.7
20.128463817465672
% V (V) @ t=0.7
0.013908356541163118
% es.normE (V/m) @ t=0.72
44.92812899734152
% es.EX (V/m) @ t=0.72
-21.217653972516175
% es.EY (V/m) @ t=0.72
17.02312518293163
% es.EZ (V/m) @ t=0.72
20.406538288102674
% es.tEX (V/m) @ t=0.72
-21.217653972516175
% es.tEY (V/m) @ t=0.72
0
% es.tEZ (V/m) @ t=0.72
20.40653828810275
% es.Ex (V/m) @ t=0.72
-21.217653972516175
% es.Ey (V/m) @ t=0.72
17.02312518293163
% es.Ez (V/m) @ t=0.72
20.406538288102674
% es.tEx (V/m) @ t=0.72
-21.217653972516175
% es.tEy (V/m) @ t=0.72
0
% es.tEz (V/m) @ t=0.72
20.40653828810275
% V (V) @ t=0.72
0.014100500301622642
% es.normE (V/m) @ t=0.74
45.54585604008906
% es.EX (V/m) @ t=0.74
-21.50938029608622
% es.EY (V/m) @ t=0.74
17.25717998453699
% es.EZ (V/m) @ t=0.74
20.68711244424886
% es.tEX (V/m) @ t=0.74
-21.509380296086213
% es.tEY (V/m) @ t=0.74
0
% es.tEZ (V/m) @ t=0.74
20.68711244424884
% es.Ex (V/m) @ t=0.74
-21.50938029608622
% es.Ey (V/m) @ t=0.74
17.25717998453699
% es.Ez (V/m) @ t=0.74
20.68711244424886
% es.tEx (V/m) @ t=0.74
-21.509380296086213
% es.tEy (V/m) @ t=0.74
0
% es.tEz (V/m) @ t=0.74
20.68711244424884
% V (V) @ t=0.74
0.01429437127870978
% es.normE (V/m) @ t=0.76
46.16908648115916
% es.EX (V/m) @ t=0.76
-21.803705630759907
% es.EY (V/m) @ t=0.76
17.493319999493558
% es.EZ (V/m) @ t=0.76
20.970186285904248
% es.tEX (V/m) @ t=0.76
-21.803705630759914
% es.tEY (V/m) @ t=0.76
0
% es.tEZ (V/m) @ t=0.76
20.970186285904276
% es.Ex (V/m) @ t=0.76
-21.803705630759907
% es.Ey (V/m) @ t=0.76
17.493319999493558
% es.Ez (V/m) @ t=0.76
20.970186285904248
% es.tEx (V/m) @ t=0.76
-21.803705630759914
% es.tEy (V/m) @ t=0.76
0
% es.tEz (V/m) @ t=0.76
20.970186285904276
% V (V) @ t=0.76
0.014489969472424528
% es.normE (V/m) @ t=0.78
46.79782032055142
% es.EX (V/m) @ t=0.78
-22.10062997653725
% es.EY (V/m) @ t=0.78
17.731545227801206
% es.EZ (V/m) @ t=0.78
21.255759813068785
% es.tEX (V/m) @ t=0.78
-22.100629976537242
% es.tEY (V/m) @ t=0.78
0
% es.tEZ (V/m) @ t=0.78
21.255759813068778
% es.Ex (V/m) @ t=0.78
-22.10062997653725
% es.Ey (V/m) @ t=0.78
17.731545227801206
% es.Ez (V/m) @ t=0.78
21.255759813068785
% es.tEx (V/m) @ t=0.78
-22.100629976537242
% es.tEy (V/m) @ t=0.78
0
% es.tEz (V/m) @ t=0.78
21.255759813068778
% V (V) @ t=0.78
0.014687294882766891
% es.normE (V/m) @ t=0.8
47.43205755826613
% es.EX (V/m) @ t=0.8
-22.40015333341819
% es.EY (V/m) @ t=0.8
17.971855669460204
% es.EZ (V/m) @ t=0.8
21.543833025742586
% es.tEX (V/m) @ t=0.8
-22.400153333418167
% es.tEY (V/m) @ t=0.8
0
% es.tEZ (V/m) @ t=0.8
21.543833025742572
% es.Ex (V/m) @ t=0.8
-22.40015333341819
% es.Ey (V/m) @ t=0.8
17.971855669460204
% es.Ez (V/m) @ t=0.8
21.543833025742586
% es.tEx (V/m) @ t=0.8
-22.400153333418167
% es.tEy (V/m) @ t=0.8
0
% es.tEz (V/m) @ t=0.8
21.543833025742572
% V (V) @ t=0.8
0.014886347509736865
% es.normE (V/m) @ t=0.82
48.074297037166126
% es.EX (V/m) @ t=0.82
-22.70345611027119
% es.EY (V/m) @ t=0.82
18.215198318506502
% es.EZ (V/m) @ t=0.82
21.83554035367598
% es.tEX (V/m) @ t=0.82
-22.703456110271183
% es.tEY (V/m) @ t=0.82
0
% es.tEZ (V/m) @ t=0.82
21.835540353675924
% es.Ex (V/m) @ t=0.82
-22.70345611027119
% es.Ey (V/m) @ t=0.82
18.215198318506502
% es.Ez (V/m) @ t=0.82
21.83554035367598
% es.tEx (V/m) @ t=0.82
-22.703456110271183
% es.tEy (V/m) @ t=0.82
0
% es.tEz (V/m) @ t=0.82
21.835540353675924
% V (V) @ t=0.82
0.015087911641286506
% es.normE (V/m) @ t=0.84
48.73125607557604
% es.EX (V/m) @ t=0.84
-23.013711448649218
% es.EY (V/m) @ t=0.84
18.46411885737819
% es.EZ (V/m) @ t=0.84
22.133931338664517
% es.tEX (V/m) @ t=0.84
-23.013711448649204
% es.tEY (V/m) @ t=0.84
0
% es.tEZ (V/m) @ t=0.84
22.133931338664524
% es.Ex (V/m) @ t=0.84
-23.013711448649218
% es.Ey (V/m) @ t=0.84
18.46411885737819
% es.Ez (V/m) @ t=0.84
22.133931338664517
% es.tEx (V/m) @ t=0.84
-23.013711448649204
% es.tEy (V/m) @ t=0.84
0
% es.tEz (V/m) @ t=0.84
22.133931338664524
% V (V) @ t=0.84
0.0152940955779855
% es.normE (V/m) @ t=0.86
49.39527526568543
% es.EX (V/m) @ t=0.86
-23.327301180703074
% es.EY (V/m) @ t=0.86
18.7157145771358
% es.EZ (V/m) @ t=0.86
22.435528747217305
% es.tEX (V/m) @ t=0.86
-23.327301180703117
% es.tEY (V/m) @ t=0.86
0
% es.tEZ (V/m) @ t=0.86
22.43552874721729
% es.Ex (V/m) @ t=0.86
-23.327301180703074
% es.Ey (V/m) @ t=0.86
18.7157145771358
% es.Ez (V/m) @ t=0.86
22.435528747217305
% es.tEx (V/m) @ t=0.86
-23.327301180703117
% es.tEy (V/m) @ t=0.86
0
% es.tEz (V/m) @ t=0.86
22.43552874721729
% V (V) @ t=0.86
0.015502495334631583
% es.normE (V/m) @ t=0.88
50.06635460749414
% es.EX (V/m) @ t=0.88
-23.64422530643273
% es.EY (V/m) @ t=0.88
18.96998547777934
% es.EZ (V/m) @ t=0.88
22.740332579334236
% es.tEX (V/m) @ t=0.88
-23.644225306432702
% es.tEY (V/m) @ t=0.88
0
% es.tEZ (V/m) @ t=0.88
22.740332579334222
% es.Ex (V/m) @ t=0.88
-23.64422530643273
% es.Ey (V/m) @ t=0.88
18.96998547777934
% es.Ez (V/m) @ t=0.88
22.740332579334236
% es.tEx (V/m) @ t=0.88
-23.644225306432702
% es.tEy (V/m) @ t=0.88
0
% es.tEz (V/m) @ t=0.88
22.740332579334222
% V (V) @ t=0.88
0.015713110911224744
% es.normE (V/m) @ t=0.9
50.74449410100228
% es.EX (V/m) @ t=0.9
-23.96448382583806
% es.EY (V/m) @ t=0.9
19.226931559308703
% es.EZ (V/m) @ t=0.9
23.048342835015326
% es.tEX (V/m) @ t=0.9
-23.96448382583806
% es.tEY (V/m) @ t=0.9
0
% es.tEZ (V/m) @ t=0.9
23.048342835015376
% es.Ex (V/m) @ t=0.9
-23.96448382583806
% es.Ey (V/m) @ t=0.9
19.226931559308703
% es.Ez (V/m) @ t=0.9
23.048342835015326
% es.tEx (V/m) @ t=0.9
-23.96448382583806
% es.tEy (V/m) @ t=0.9
0
% es.tEz (V/m) @ t=0.9
23.048342835015376
% V (V) @ t=0.9
0.015925942307764986
% es.normE (V/m) @ t=0.92
51.429693746210134
% es.EX (V/m) @ t=0.92
-24.28807673891926
% es.EY (V/m) @ t=0.92
19.48655282172404
% es.EZ (V/m) @ t=0.92
23.359559514260745
% es.tEX (V/m) @ t=0.92
-24.288076738919244
% es.tEY (V/m) @ t=0.92
0
% es.tEZ (V/m) @ t=0.92
23.359559514260695
% es.Ex (V/m) @ t=0.92
-24.28807673891926
% es.Ey (V/m) @ t=0.92
19.48655282172404
% es.Ez (V/m) @ t=0.92
23.359559514260745
% es.tEx (V/m) @ t=0.92
-24.288076738919244
% es.tEy (V/m) @ t=0.92
0
% es.tEz (V/m) @ t=0.92
23.359559514260695
% V (V) @ t=0.92
0.016140989524252306
% es.normE (V/m) @ t=0.94
52.121953543117606
% es.EX (V/m) @ t=0.94
-24.6150040456762
% es.EY (V/m) @ t=0.94
19.748849265025306
% es.EZ (V/m) @ t=0.94
23.673982617070408
% es.tEX (V/m) @ t=0.94
-24.615004045676173
% es.tEY (V/m) @ t=0.94
0
% es.tEZ (V/m) @ t=0.94
23.673982617070408
% es.Ex (V/m) @ t=0.94
-24.6150040456762
% es.Ey (V/m) @ t=0.94
19.748849265025306
% es.Ez (V/m) @ t=0.94
23.673982617070408
% es.tEx (V/m) @ t=0.94
-24.615004045676173
% es.tEy (V/m) @ t=0.94
0
% es.tEz (V/m) @ t=0.94
23.673982617070408
% V (V) @ t=0.94
0.016358252560686716
% es.normE (V/m) @ t=0.96
52.82127349172483
% es.EX (V/m) @ t=0.96
-24.945265746108902
% es.EY (V/m) @ t=0.96
20.01382088921246
% es.EZ (V/m) @ t=0.96
23.9916121434442
% es.tEX (V/m) @ t=0.96
-24.945265746108888
% es.tEY (V/m) @ t=0.96
0
% es.tEZ (V/m) @ t=0.96
23.991612143444172
% es.Ex (V/m) @ t=0.96
-24.945265746108902
% es.Ey (V/m) @ t=0.96
20.01382088921246
% es.Ez (V/m) @ t=0.96
23.9916121434442
% es.tEx (V/m) @ t=0.96
-24.945265746108888
% es.tEy (V/m) @ t=0.96
0
% es.tEz (V/m) @ t=0.96
23.991612143444172
% V (V) @ t=0.96
0.0165777314170682
% es.normE (V/m) @ t=0.98
53.52765359203194
% es.EX (V/m) @ t=0.98
-25.278861840217445
% es.EY (V/m) @ t=0.98
20.28146769428554
% es.EZ (V/m) @ t=0.98
24.312448093382265
% es.tEX (V/m) @ t=0.98
-25.27886184021743
% es.tEY (V/m) @ t=0.98
0
% es.tEZ (V/m) @ t=0.98
24.312448093382272
% es.Ex (V/m) @ t=0.98
-25.278861840217445
% es.Ey (V/m) @ t=0.98
20.28146769428554
% es.Ez (V/m) @ t=0.98
24.312448093382265
% es.tEx (V/m) @ t=0.98
-25.27886184021743
% es.tEy (V/m) @ t=0.98
0
% es.tEz (V/m) @ t=0.98
24.312448093382272
% V (V) @ t=0.98
0.01679942609339677
% es.normE (V/m) @ t=1
54.24109384403894
% es.EX (V/m) @ t=1
-25.615792328001675
% es.EY (V/m) @ t=1
20.55178968024454
% es.EZ (V/m) @ t=1
24.636490466884545
% es.tEX (V/m) @ t=1
-25.61579232800169
% es.tEY (V/m) @ t=1
0
% es.tEZ (V/m) @ t=1
24.63649046688454
% es.Ex (V/m) @ t=1
-25.615792328001675
% es.Ey (V/m) @ t=1
20.55178968024454
% es.Ez (V/m) @ t=1
24.636490466884545
% es.tEx (V/m) @ t=1
-25.61579232800169
% es.tEy (V/m) @ t=1
0
% es.tEz (V/m) @ t=1
24.63649046688454
% V (V) @ t=1
0.017023336589672422
% es.normE (V/m) @ t=1.02
54.961594247745936
% es.EX (V/m) @ t=1.02
-25.95605720946166
% es.EY (V/m) @ t=1.02
20.824786847089463
% es.EZ (V/m) @ t=1.02
24.963739263951027
% es.tEX (V/m) @ t=1.02
-25.956057209461633
% es.tEY (V/m) @ t=1.02
0
% es.tEZ (V/m) @ t=1.02
24.963739263951027
% es.Ex (V/m) @ t=1.02
-25.95605720946166
% es.Ey (V/m) @ t=1.02
20.824786847089463
% es.Ez (V/m) @ t=1.02
24.963739263951027
% es.tEx (V/m) @ t=1.02
-25.956057209461633
% es.tEy (V/m) @ t=1.02
0
% es.tEz (V/m) @ t=1.02
24.963739263951027
% V (V) @ t=1.02
0.01724946290589515
% es.normE (V/m) @ t=1.04
55.68915480315306
% es.EX (V/m) @ t=1.04
-26.29965648459749
% es.EY (V/m) @ t=1.04
21.10045919482024
% es.EZ (V/m) @ t=1.04
25.294194484581702
% es.tEX (V/m) @ t=1.04
-26.299656484597477
% es.tEY (V/m) @ t=1.04
0
% es.tEZ (V/m) @ t=1.04
25.294194484581737
% es.Ex (V/m) @ t=1.04
-26.29965648459749
% es.Ey (V/m) @ t=1.04
21.10045919482024