% Model:              1 neuron.mph
% Version:            COMSOL 6.1.0.252
% Date:               Mar 18 2023, 11:39
% Dimension:          0
% Nodes:              14017
% Expressions:        14017
% Description:        Electric field norm, Electric field, X component, Electric field, Y component, Electric field, Z component, Tangential electric field, X component, Tangential electric field, Y component, Tangential electric field, Z component, Electric field, x component, Electric field, y component, Electric field, z component, Tangential electric field, x component, Tangential electric field, y component, Tangential electric field, z component, Electric potential
% Length unit:        mm
% x
1.33
% y
12.2
% z
1
% es.normE (V/m) @ t=0
1.5522615085732157
% es.EX (V/m) @ t=0
0.4791279643847024
% es.EY (V/m) @ t=0
0.11607468303633228
% es.EZ (V/m) @ t=0
1.4718857098286358
% es.tEX (V/m) @ t=0
0.47912796438470195
% es.tEY (V/m) @ t=0
0
% es.tEZ (V/m) @ t=0
1.471885709828637
% es.Ex (V/m) @ t=0
0.4791279643847024
% es.Ey (V/m) @ t=0
0.11607468303633228
% es.Ez (V/m) @ t=0
1.4718857098286358
% es.tEx (V/m) @ t=0
0.47912796438470195
% es.tEy (V/m) @ t=0
0
% es.tEz (V/m) @ t=0
1.471885709828637
% V (V) @ t=0
0.007259972413179722
% es.normE (V/m) @ t=0.02
1.3407058149482456
% es.EX (V/m) @ t=0.02
0.41382824052766654
% es.EY (V/m) @ t=0.02
0.10025501463995828
% es.EZ (V/m) @ t=0.02
1.2712843287420363
% es.tEX (V/m) @ t=0.02
0.41382824052766765
% es.tEY (V/m) @ t=0.02
0
% es.tEZ (V/m) @ t=0.02
1.2712843287420483
% es.Ex (V/m) @ t=0.02
0.41382824052766654
% es.Ey (V/m) @ t=0.02
0.10025501463995828
% es.Ez (V/m) @ t=0.02
1.2712843287420363
% es.tEx (V/m) @ t=0.02
0.41382824052766765
% es.tEy (V/m) @ t=0.02
0
% es.tEz (V/m) @ t=0.02
1.2712843287420483
% V (V) @ t=0.02
0.006270520194905207
% es.normE (V/m) @ t=0.04
1.3530381433787064
% es.EX (V/m) @ t=0.04
0.41763479635575174
% es.EY (V/m) @ t=0.04
0.10117718952280869
% es.EZ (V/m) @ t=0.04
1.282978090915437
% es.tEX (V/m) @ t=0.04
0.41763479635574896
% es.tEY (V/m) @ t=0.04
0
% es.tEZ (V/m) @ t=0.04
1.2829780909154405
% es.Ex (V/m) @ t=0.04
0.41763479635575174
% es.Ey (V/m) @ t=0.04
0.10117718952280869
% es.Ez (V/m) @ t=0.04
1.282978090915437
% es.tEx (V/m) @ t=0.04
0.41763479635574896
% es.tEy (V/m) @ t=0.04
0
% es.tEz (V/m) @ t=0.04
1.2829780909154405
% V (V) @ t=0.04
0.006328198431473925
% es.normE (V/m) @ t=0.06
1.3654861470074793
% es.EX (V/m) @ t=0.06
0.4214770604914415
% es.EY (V/m) @ t=0.06
0.10210800768436928
% es.EZ (V/m) @ t=0.06
1.2947815380161645
% es.tEX (V/m) @ t=0.06
0.4214770604914406
% es.tEY (V/m) @ t=0.06
0
% es.tEZ (V/m) @ t=0.06
1.29478153801616
% es.Ex (V/m) @ t=0.06
0.4214770604914415
% es.Ey (V/m) @ t=0.06
0.10210800768436928
% es.Ez (V/m) @ t=0.06
1.2947815380161645
% es.tEx (V/m) @ t=0.06
0.4214770604914406
% es.tEy (V/m) @ t=0.06
0
% es.tEz (V/m) @ t=0.06
1.29478153801616
% V (V) @ t=0.06
0.006386417319672575
% es.normE (V/m) @ t=0.08
1.3781134949759197
% es.EX (V/m) @ t=0.08
0.4253746742297646
% es.EY (V/m) @ t=0.08
0.10305225243374161
% es.EZ (V/m) @ t=0.08
1.306755044342633
% es.tEX (V/m) @ t=0.08
0.4253746742297686
% es.tEY (V/m) @ t=0.08
0
% es.tEZ (V/m) @ t=0.08
1.3067550443426441
% es.Ex (V/m) @ t=0.08
0.4253746742297646
% es.Ey (V/m) @ t=0.08
0.10305225243374161
% es.Ez (V/m) @ t=0.08
1.306755044342633
% es.tEx (V/m) @ t=0.08
0.4253746742297686
% es.tEy (V/m) @ t=0.08
0
% es.tEz (V/m) @ t=0.08
1.3067550443426441
% V (V) @ t=0.08
0.006445475780357364
% es.normE (V/m) @ t=0.1
1.3908876073546135
% es.EX (V/m) @ t=0.1
0.4293175826888591
% es.EY (V/m) @ t=0.1
0.10400748467927123
% es.EZ (V/m) @ t=0.1
1.3188677167114786
% es.tEX (V/m) @ t=0.1
0.42931758268886
% es.tEY (V/m) @ t=0.1
0
% es.tEZ (V/m) @ t=0.1
1.318867716711476
% es.Ex (V/m) @ t=0.1
0.4293175826888591
% es.Ey (V/m) @ t=0.1
0.10400748467927123
% es.Ez (V/m) @ t=0.1
1.3188677167114786
% es.tEx (V/m) @ t=0.1
0.42931758268886
% es.tEy (V/m) @ t=0.1
0
% es.tEz (V/m) @ t=0.1
1.318867716711476
% V (V) @ t=0.1
0.006505221295682364
% es.normE (V/m) @ t=0.12
1.403661719733274
% es.EX (V/m) @ t=0.12
0.4332604911479412
% es.EY (V/m) @ t=0.12
0.10496271692478332
% es.EZ (V/m) @ t=0.12
1.330980389080295
% es.tEX (V/m) @ t=0.12
0.43326049114794074
% es.tEY (V/m) @ t=0.12
0
% es.tEZ (V/m) @ t=0.12
1.330980389080299
% es.Ex (V/m) @ t=0.12
0.4332604911479412
% es.Ey (V/m) @ t=0.12
0.10496271692478332
% es.Ez (V/m) @ t=0.12
1.330980389080295
% es.tEx (V/m) @ t=0.12
0.43326049114794074
% es.tEy (V/m) @ t=0.12
0
% es.tEz (V/m) @ t=0.12
1.330980389080299
% V (V) @ t=0.12
0.006564966811007367
% es.normE (V/m) @ t=0.14
1.4165116863528602
% es.EX (V/m) @ t=0.14
0.4372268181035277
% es.EY (V/m) @ t=0.14
0.10592361191303756
% es.EZ (V/m) @ t=0.14
1.3431649870633873
% es.tEX (V/m) @ t=0.14
0.4372268181035288
% es.tEY (V/m) @ t=0.14
0
% es.tEZ (V/m) @ t=0.14
1.3431649870633926
% es.Ex (V/m) @ t=0.14
0.4372268181035277
% es.Ey (V/m) @ t=0.14
0.10592361191303756
% es.Ez (V/m) @ t=0.14
1.3431649870633873
% es.tEx (V/m) @ t=0.14
0.4372268181035288
% es.tEy (V/m) @ t=0.14
0
% es.tEz (V/m) @ t=0.14
1.3431649870633926
% V (V) @ t=0.14
0.006625066572562364
% es.normE (V/m) @ t=0.16
1.429975488437496
% es.EX (V/m) @ t=0.16
0.4413826546173426
% es.EY (V/m) @ t=0.16
0.10693033152872822
% es.EZ (V/m) @ t=0.16
1.3559316288762036
% es.tEX (V/m) @ t=0.16
0.44138265461734605
% es.tEY (V/m) @ t=0.16
0
% es.tEZ (V/m) @ t=0.16
1.3559316288761938
% es.Ex (V/m) @ t=0.16
0.4413826546173426
% es.Ey (V/m) @ t=0.16
0.10693033152872822
% es.Ez (V/m) @ t=0.16
1.3559316288762036
% es.tEx (V/m) @ t=0.16
0.44138265461734605
% es.tEy (V/m) @ t=0.16
0
% es.tEz (V/m) @ t=0.16
1.3559316288761938
% V (V) @ t=0.16
0.006688033001777741
% es.normE (V/m) @ t=0.18
1.4434392905221292
% es.EX (V/m) @ t=0.18
0.44553849113115285
% es.EY (V/m) @ t=0.18
0.1079370511444031
% es.EZ (V/m) @ t=0.18
1.3686982706890118
% es.tEX (V/m) @ t=0.18
0.4455384911311526
% es.tEY (V/m) @ t=0.18
0
% es.tEZ (V/m) @ t=0.18
1.368698270689011
% es.Ex (V/m) @ t=0.18
0.44553849113115285
% es.Ey (V/m) @ t=0.18
0.1079370511444031
% es.Ez (V/m) @ t=0.18
1.3686982706890118
% es.tEx (V/m) @ t=0.18
0.4455384911311526
% es.tEy (V/m) @ t=0.18
0
% es.tEz (V/m) @ t=0.18
1.368698270689011
% V (V) @ t=0.18
0.006750999430993117
% es.normE (V/m) @ t=0.2
1.4569030926067699
% es.EX (V/m) @ t=0.2
0.44969432764495765
% es.EY (V/m) @ t=0.2
0.1089437707600851
% es.EZ (V/m) @ t=0.2
1.381464912501821
% es.tEX (V/m) @ t=0.2
0.44969432764496275
% es.tEY (V/m) @ t=0.2
0
% es.tEZ (V/m) @ t=0.2
1.3814649125018263
% es.Ex (V/m) @ t=0.2
0.44969432764495765
% es.Ey (V/m) @ t=0.2
0.1089437707600851
% es.Ez (V/m) @ t=0.2
1.381464912501821
% es.tEx (V/m) @ t=0.2
0.44969432764496275
% es.tEy (V/m) @ t=0.2
0
% es.tEz (V/m) @ t=0.2
1.3814649125018263
% V (V) @ t=0.2
0.006813965860208495
% es.normE (V/m) @ t=0.22
1.470366894691414
% es.EX (V/m) @ t=0.22
0.45385016415877666
% es.EY (V/m) @ t=0.22
0.1099504903757651
% es.EZ (V/m) @ t=0.22
1.3942315543146218
% es.tEX (V/m) @ t=0.22
0.45385016415878
% es.tEY (V/m) @ t=0.22
0
% es.tEZ (V/m) @ t=0.22
1.3942315543146364
% es.Ex (V/m) @ t=0.22
0.45385016415877666
% es.Ey (V/m) @ t=0.22
0.1099504903757651
% es.Ez (V/m) @ t=0.22
1.3942315543146218
% es.tEx (V/m) @ t=0.22
0.45385016415878
% es.tEy (V/m) @ t=0.22
0
% es.tEz (V/m) @ t=0.22
1.3942315543146364
% V (V) @ t=0.22
0.0068769322894238726
% es.normE (V/m) @ t=0.24
1.4838306967760828
% es.EX (V/m) @ t=0.24
0.4580060006725849
% es.EY (V/m) @ t=0.24
0.1109572099914381
% es.EZ (V/m) @ t=0.24
1.4069981961274451
% es.tEX (V/m) @ t=0.24
0.458006000672583
% es.tEY (V/m) @ t=0.24
0
% es.tEZ (V/m) @ t=0.24
1.4069981961274447
% es.Ex (V/m) @ t=0.24
0.4580060006725849
% es.Ey (V/m) @ t=0.24
0.1109572099914381
% es.Ez (V/m) @ t=0.24
1.4069981961274451
% es.tEx (V/m) @ t=0.24
0.458006000672583
% es.tEy (V/m) @ t=0.24
0
% es.tEz (V/m) @ t=0.24
1.4069981961274447
% V (V) @ t=0.24
0.00693989871863925
% es.normE (V/m) @ t=0.26
1.497294498860732
% es.EX (V/m) @ t=0.26
0.46216183718639214
% es.EY (V/m) @ t=0.26
0.11196392960712542
% es.EZ (V/m) @ t=0.26
1.4197648379402397
% es.tEX (V/m) @ t=0.26
0.46216183718638604
% es.tEY (V/m) @ t=0.26
0
% es.tEZ (V/m) @ t=0.26
1.4197648379402388
% es.Ex (V/m) @ t=0.26
0.46216183718639214
% es.Ey (V/m) @ t=0.26
0.11196392960712542
% es.Ez (V/m) @ t=0.26
1.4197648379402397
% es.tEx (V/m) @ t=0.26
0.46216183718638604
% es.tEy (V/m) @ t=0.26
0
% es.tEz (V/m) @ t=0.26
1.4197648379402388
% V (V) @ t=0.26
0.007002865147854626
% es.normE (V/m) @ t=0.28
1.511116381603411
% es.EX (V/m) @ t=0.28
0.4664281563524614
% es.EY (V/m) @ t=0.28
0.11299749764720035
% es.EZ (V/m) @ t=0.28
1.4328710280061694
% es.tEX (V/m) @ t=0.28
0.46642815635246393
% es.tEY (V/m) @ t=0.28
0
% es.tEZ (V/m) @ t=0.28
1.4328710280061685
% es.Ex (V/m) @ t=0.28
0.4664281563524614
% es.Ey (V/m) @ t=0.28
0.11299749764720035
% es.Ez (V/m) @ t=0.28
1.4328710280061694
% es.tEx (V/m) @ t=0.28
0.46642815635246393
% es.tEy (V/m) @ t=0.28
0
% es.tEz (V/m) @ t=0.28
1.4328710280061685
% V (V) @ t=0.28
0.007067511243777757
% es.normE (V/m) @ t=0.3
1.5261367561727666
% es.EX (V/m) @ t=0.3
0.47106425967962895
% es.EY (V/m) @ t=0.3
0.1141209270536756
% es.EZ (V/m) @ t=0.3
1.447113682153589
% es.tEX (V/m) @ t=0.3
0.47106425967962906
% es.tEY (V/m) @ t=0.3
0
% es.tEZ (V/m) @ t=0.3
1.4471136821535957
% es.Ex (V/m) @ t=0.3
0.47106425967962895
% es.Ey (V/m) @ t=0.3
0.1141209270536756
% es.Ez (V/m) @ t=0.3
1.447113682153589
% es.tEx (V/m) @ t=0.3
0.47106425967962906
% es.tEy (V/m) @ t=0.3
0
% es.tEz (V/m) @ t=0.3
1.4471136821535957
% V (V) @ t=0.3
0.007137779164771977
% es.normE (V/m) @ t=0.32
1.5411571307422003
% es.EX (V/m) @ t=0.32
0.4757003630067783
% es.EY (V/m) @ t=0.32
0.11524435646015341
% es.EZ (V/m) @ t=0.32
1.4613563363010043
% es.tEX (V/m) @ t=0.32
0.47570036300678
% es.tEY (V/m) @ t=0.32
0
% es.tEZ (V/m) @ t=0.32
1.4613563363010087
% es.Ex (V/m) @ t=0.32
0.4757003630067783
% es.Ey (V/m) @ t=0.32
0.11524435646015341
% es.Ez (V/m) @ t=0.32
1.4613563363010043
% es.tEx (V/m) @ t=0.32
0.47570036300678
% es.tEy (V/m) @ t=0.32
0
% es.tEz (V/m) @ t=0.32
1.4613563363010087
% V (V) @ t=0.32
0.007208047085766196
% es.normE (V/m) @ t=0.34
1.5561775053117088
% es.EX (V/m) @ t=0.34
0.480336466333929
% es.EY (V/m) @ t=0.34
0.1163677858666291
% es.EZ (V/m) @ t=0.34
1.4755989904484093
% es.tEX (V/m) @ t=0.34
0.4803364663339309
% es.tEY (V/m) @ t=0.34
0
% es.tEZ (V/m) @ t=0.34
1.4755989904484164
% es.Ex (V/m) @ t=0.34
0.480336466333929
% es.Ey (V/m) @ t=0.34
0.1163677858666291
% es.Ez (V/m) @ t=0.34
1.4755989904484093
% es.tEx (V/m) @ t=0.34
0.4803364663339309
% es.tEy (V/m) @ t=0.34
0
% es.tEz (V/m) @ t=0.34
1.4755989904484164
% V (V) @ t=0.34
0.007278315006760417
% es.normE (V/m) @ t=0.36
1.5711978798813244
% es.EX (V/m) @ t=0.36
0.48497256966108904
% es.EY (V/m) @ t=0.36
0.11749121527311357
% es.EZ (V/m) @ t=0.36
1.489841644595836
% es.tEX (V/m) @ t=0.36
0.4849725696610889
% es.tEY (V/m) @ t=0.36
0
% es.tEZ (V/m) @ t=0.36
1.4898416445958294
% es.Ex (V/m) @ t=0.36
0.48497256966108904
% es.Ey (V/m) @ t=0.36
0.11749121527311357
% es.Ez (V/m) @ t=0.36
1.489841644595836
% es.tEx (V/m) @ t=0.36
0.4849725696610889
% es.tEy (V/m) @ t=0.36
0
% es.tEz (V/m) @ t=0.36
1.4898416445958294
% V (V) @ t=0.36
0.007348582927754637
% es.normE (V/m) @ t=0.38
1.5862182544509968
% es.EX (V/m) @ t=0.38
0.48960867298824173
% es.EY (V/m) @ t=0.38
0.1186146446795836
% es.EZ (V/m) @ t=0.38
1.504084298743242
% es.tEX (V/m) @ t=0.38
0.48960867298823985
% es.tEY (V/m) @ t=0.38
0
% es.tEZ (V/m) @ t=0.38
1.5040842987432423
% es.Ex (V/m) @ t=0.38
0.48960867298824173
% es.Ey (V/m) @ t=0.38
0.1186146446795836
% es.Ez (V/m) @ t=0.38
1.504084298743242
% es.tEx (V/m) @ t=0.38
0.48960867298823985
% es.tEy (V/m) @ t=0.38
0
% es.tEz (V/m) @ t=0.38
1.5040842987432423
% V (V) @ t=0.38
0.007418850848748857
% es.normE (V/m) @ t=0.4
1.6012386290207528
% es.EX (V/m) @ t=0.4
0.4942447763153961
% es.EY (V/m) @ t=0.4
0.1197380740860613
% es.EZ (V/m) @ t=0.4
1.5183269528906527
% es.tEX (V/m) @ t=0.4
0.49424477631539787
% es.tEY (V/m) @ t=0.4
0
% es.tEZ (V/m) @ t=0.4
1.5183269528906624
% es.Ex (V/m) @ t=0.4
0.4942447763153961
% es.Ey (V/m) @ t=0.4
0.1197380740860613
% es.Ez (V/m) @ t=0.4
1.5183269528906527
% es.tEx (V/m) @ t=0.4
0.49424477631539787
% es.tEy (V/m) @ t=0.4
0
% es.tEz (V/m) @ t=0.4
1.5183269528906624
% V (V) @ t=0.4
0.007489118769743077
% es.normE (V/m) @ t=0.42
1.6162590035906004
% es.EX (V/m) @ t=0.42
0.49888087964255245
% es.EY (V/m) @ t=0.42
0.12086150349252422
% es.EZ (V/m) @ t=0.42
1.5325696070380803
% es.tEX (V/m) @ t=0.42
0.4988808796425488
% es.tEY (V/m) @ t=0.42
0
% es.tEZ (V/m) @ t=0.42
1.5325696070380754
% es.Ex (V/m) @ t=0.42
0.49888087964255245
% es.Ey (V/m) @ t=0.42
0.12086150349252422
% es.Ez (V/m) @ t=0.42
1.5325696070380803
% es.tEx (V/m) @ t=0.42
0.4988808796425488
% es.tEy (V/m) @ t=0.42
0
% es.tEz (V/m) @ t=0.42
1.5325696070380754
% V (V) @ t=0.42
0.007559386690737297
% es.normE (V/m) @ t=0.44
1.6312793781605026
% es.EX (V/m) @ t=0.44
0.5035169829697042
% es.EY (V/m) @ t=0.44
0.12198493289900525
% es.EZ (V/m) @ t=0.44
1.5468122611854884
% es.tEX (V/m) @ t=0.44
0.5035169829697068
% es.tEY (V/m) @ t=0.44
0
% es.tEZ (V/m) @ t=0.44
1.5468122611854955
% es.Ex (V/m) @ t=0.44
0.5035169829697042
% es.Ey (V/m) @ t=0.44
0.12198493289900525
% es.Ez (V/m) @ t=0.44
1.5468122611854884
% es.tEx (V/m) @ t=0.44
0.5035169829697068
% es.tEy (V/m) @ t=0.44
0
% es.tEz (V/m) @ t=0.44
1.5468122611854955
% V (V) @ t=0.44
0.0076296546117315175
% es.normE (V/m) @ t=0.46
1.6462997527304821
% es.EX (V/m) @ t=0.46
0.5081530862968618
% es.EY (V/m) @ t=0.46
0.12310836230548472
% es.EZ (V/m) @ t=0.46
1.5610549153329005
% es.tEX (V/m) @ t=0.46
0.5081530862968577
% es.tEY (V/m) @ t=0.46
0
% es.tEZ (V/m) @ t=0.46
1.5610549153329032
% es.Ex (V/m) @ t=0.46
0.5081530862968618
% es.Ey (V/m) @ t=0.46
0.12310836230548472
% es.Ez (V/m) @ t=0.46
1.5610549153329005
% es.tEx (V/m) @ t=0.46
0.5081530862968577
% es.tEy (V/m) @ t=0.46
0
% es.tEz (V/m) @ t=0.46
1.5610549153329032
% V (V) @ t=0.46
0.007699922532725737
% es.normE (V/m) @ t=0.48
1.6613201273005358
% es.EX (V/m) @ t=0.48
0.5127891896240233
% es.EY (V/m) @ t=0.48
0.12423179171196541
% es.EZ (V/m) @ t=0.48
1.5752975694803162
% es.tEX (V/m) @ t=0.48
0.5127891896240229
% es.tEY (V/m) @ t=0.48
0
% es.tEZ (V/m) @ t=0.48
1.5752975694803162
% es.Ex (V/m) @ t=0.48
0.5127891896240233
% es.Ey (V/m) @ t=0.48
0.12423179171196541
% es.Ez (V/m) @ t=0.48
1.5752975694803162
% es.tEx (V/m) @ t=0.48
0.5127891896240229
% es.tEy (V/m) @ t=0.48
0
% es.tEz (V/m) @ t=0.48
1.5752975694803162
% V (V) @ t=0.48
0.007770190453719957
% es.normE (V/m) @ t=0.5
1.676340501870647
% es.EX (V/m) @ t=0.5
0.5174252929511624
% es.EY (V/m) @ t=0.5
0.12535522111844122
% es.EZ (V/m) @ t=0.5
1.5895402236277287
% es.tEX (V/m) @ t=0.5
0.5174252929511667
% es.tEY (V/m) @ t=0.5
0
% es.tEZ (V/m) @ t=0.5
1.5895402236277292
% es.Ex (V/m) @ t=0.5
0.5174252929511624
% es.Ey (V/m) @ t=0.5
0.12535522111844122
% es.Ez (V/m) @ t=0.5
1.5895402236277287
% es.tEx (V/m) @ t=0.5
0.5174252929511667
% es.tEy (V/m) @ t=0.5
0
% es.tEz (V/m) @ t=0.5
1.5895402236277292
% V (V) @ t=0.5
0.007840458374714178
% es.normE (V/m) @ t=0.52
1.6913608764408266
% es.EX (V/m) @ t=0.52
0.5220613962783195
% es.EY (V/m) @ t=0.52
0.1264786505248917
% es.EZ (V/m) @ t=0.52
1.60378287777514
% es.tEX (V/m) @ t=0.52
0.5220613962783176
% es.tEY (V/m) @ t=0.52
0
% es.tEZ (V/m) @ t=0.52
1.6037828777751422
% es.Ex (V/m) @ t=0.52
0.5220613962783195
% es.Ey (V/m) @ t=0.52
0.1264786505248917
% es.Ez (V/m) @ t=0.52
1.60378287777514
% es.tEx (V/m) @ t=0.52
0.5220613962783176
% es.tEy (V/m) @ t=0.52
0
% es.tEz (V/m) @ t=0.52
1.6037828777751422
% V (V) @ t=0.52
0.007910726295708399
% es.normE (V/m) @ t=0.54
1.7063812510110754
% es.EX (V/m) @ t=0.54
0.5266974996054803
% es.EY (V/m) @ t=0.54
0.1276020799313783
% es.EZ (V/m) @ t=0.54
1.6180255319225525
% es.tEX (V/m) @ t=0.54
0.5266974996054827
% es.tEY (V/m) @ t=0.54
0
% es.tEZ (V/m) @ t=0.54
1.6180255319225552
% es.Ex (V/m) @ t=0.54
0.5266974996054803
% es.Ey (V/m) @ t=0.54
0.1276020799313783
% es.Ez (V/m) @ t=0.54
1.6180255319225525
% es.tEx (V/m) @ t=0.54
0.5266974996054827
% es.tEy (V/m) @ t=0.54
0
% es.tEz (V/m) @ t=0.54
1.6180255319225552
% V (V) @ t=0.54
0.007980994216702618
% es.normE (V/m) @ t=0.56
1.7222336854401425
% es.EX (V/m) @ t=0.56
0.5315902468950097
% es.EY (V/m) @ t=0.56
0.12878812017190222
% es.EZ (V/m) @ t=0.56
1.6330571921361043
% es.tEX (V/m) @ t=0.56
0.5315902468950142
% es.tEY (V/m) @ t=0.56
0
% es.tEZ (V/m) @ t=0.56
1.633057192136107
% es.Ex (V/m) @ t=0.56
0.5315902468950097
% es.Ey (V/m) @ t=0.56
0.12878812017190222
% es.Ez (V/m) @ t=0.56
1.6330571921361043
% es.tEx (V/m) @ t=0.56
0.5315902468950142
% es.tEy (V/m) @ t=0.56
0
% es.tEz (V/m) @ t=0.56
1.633057192136107
% V (V) @ t=0.56
0.0080551719759131
% es.normE (V/m) @ t=0.58
1.7390237725495412
% es.EX (V/m) @ t=0.58
0.5367722076304768
% es.EY (V/m) @ t=0.58
0.13004471689421027
% es.EZ (V/m) @ t=0.58
1.648977987481198
% es.tEX (V/m) @ t=0.58
0.5367722076304773
% es.tEY (V/m) @ t=0.58
0
% es.tEZ (V/m) @ t=0.58
1.648977987481203
% es.Ex (V/m) @ t=0.58
0.5367722076304768
% es.Ey (V/m) @ t=0.58
0.13004471689421027
% es.Ez (V/m) @ t=0.58
1.648977987481198
% es.tEx (V/m) @ t=0.58
0.5367722076304773
% es.tEy (V/m) @ t=0.58
0
% es.tEz (V/m) @ t=0.58
1.648977987481203
% V (V) @ t=0.58
0.008133755752600471
% es.normE (V/m) @ t=0.6
1.7558138596601944
% es.EX (V/m) @ t=0.6
0.5419541683659447
% es.EY (V/m) @ t=0.6
0.13130131361651698
% es.EZ (V/m) @ t=0.6
1.6648987828263149
% es.tEX (V/m) @ t=0.6
0.5419541683659403
% es.tEY (V/m) @ t=0.6
0
% es.tEZ (V/m) @ t=0.6
1.6648987828263113
% es.Ex (V/m) @ t=0.6
0.5419541683659447
% es.Ey (V/m) @ t=0.6
0.13130131361651698
% es.Ez (V/m) @ t=0.6
1.6648987828263149
% es.tEx (V/m) @ t=0.6
0.5419541683659403
% es.tEy (V/m) @ t=0.6
0
% es.tEz (V/m) @ t=0.6
1.6648987828263113
% V (V) @ t=0.6
0.008212339529287842
% es.normE (V/m) @ t=0.62
1.7726039467720278
% es.EX (V/m) @ t=0.62
0.5471361291014145
% es.EY (V/m) @ t=0.62
0.13255791033882547
% es.EZ (V/m) @ t=0.62
1.6808195781714121
% es.tEX (V/m) @ t=0.62
0.5471361291014176
% es.tEY (V/m) @ t=0.62
0
% es.tEZ (V/m) @ t=0.62
1.6808195781714144
% es.Ex (V/m) @ t=0.62
0.5471361291014145
% es.Ey (V/m) @ t=0.62
0.13255791033882547
% es.Ez (V/m) @ t=0.62
1.6808195781714121
% es.tEx (V/m) @ t=0.62
0.5471361291014176
% es.tEy (V/m) @ t=0.62
0
% es.tEz (V/m) @ t=0.62
1.6808195781714144
% V (V) @ t=0.62
0.00829092330597521
% es.normE (V/m) @ t=0.64
1.78939403388501
% es.EX (V/m) @ t=0.64
0.5523180898368735
% es.EY (V/m) @ t=0.64
0.1338145070611374
% es.EZ (V/m) @ t=0.64
1.6967403735164965
% es.tEX (V/m) @ t=0.64
0.5523180898368736
% es.tEY (V/m) @ t=0.64
0
% es.tEZ (V/m) @ t=0.64
1.6967403735165014
% es.Ex (V/m) @ t=0.64
0.5523180898368735
% es.Ey (V/m) @ t=0.64
0.1338145070611374
% es.Ez (V/m) @ t=0.64
1.6967403735164965
% es.tEx (V/m) @ t=0.64
0.5523180898368736
% es.tEy (V/m) @ t=0.64
0
% es.tEz (V/m) @ t=0.64
1.6967403735165014
% V (V) @ t=0.64
0.008369507082662583
% es.normE (V/m) @ t=0.66
1.8061841209991516
% es.EX (V/m) @ t=0.66
0.5575000505723446
% es.EY (V/m) @ t=0.66
0.1350711037834632
% es.EZ (V/m) @ t=0.66
1.7126611688616054
% es.tEX (V/m) @ t=0.66
0.5575000505723509
% es.tEY (V/m) @ t=0.66
0
% es.tEZ (V/m) @ t=0.66
1.7126611688616045
% es.Ex (V/m) @ t=0.66
0.5575000505723446
% es.Ey (V/m) @ t=0.66
0.1350711037834632
% es.Ez (V/m) @ t=0.66
1.7126611688616054
% es.tEx (V/m) @ t=0.66
0.5575000505723509
% es.tEy (V/m) @ t=0.66
0
% es.tEz (V/m) @ t=0.66
1.7126611688616045
% V (V) @ t=0.66
0.008448090859349954
% es.normE (V/m) @ t=0.68
1.822974208114375
% es.EX (V/m) @ t=0.68
0.5626820113078074
% es.EY (V/m) @ t=0.68
0.1363277005057606
% es.EZ (V/m) @ t=0.68
1.728581964206699
% es.tEX (V/m) @ t=0.68
0.5626820113078068
% es.tEY (V/m) @ t=0.68
0
% es.tEZ (V/m) @ t=0.68
1.728581964206704
% es.Ex (V/m) @ t=0.68
0.5626820113078074
% es.Ey (V/m) @ t=0.68
0.1363277005057606
% es.Ez (V/m) @ t=0.68
1.728581964206699
% es.tEx (V/m) @ t=0.68
0.5626820113078068
% es.tEy (V/m) @ t=0.68
0
% es.tEz (V/m) @ t=0.68
1.728581964206704
% V (V) @ t=0.68
0.008526674636037325
% es.normE (V/m) @ t=0.7
1.8397642952306859
% es.EX (V/m) @ t=0.7
0.5678639720432732
% es.EY (V/m) @ t=0.7
0.1375842972280905
% es.EZ (V/m) @ t=0.7
1.744502759551808
% es.tEX (V/m) @ t=0.7
0.567863972043277
% es.tEY (V/m) @ t=0.7
0
% es.tEZ (V/m) @ t=0.7
1.7445027595518017
% es.Ex (V/m) @ t=0.7
0.5678639720432732
% es.Ey (V/m) @ t=0.7
0.1375842972280905
% es.Ez (V/m) @ t=0.7
1.744502759551808
% es.tEx (V/m) @ t=0.7
0.567863972043277
% es.tEy (V/m) @ t=0.7
0
% es.tEz (V/m) @ t=0.7
1.7445027595518017
% V (V) @ t=0.7
0.008605258412724696
% es.normE (V/m) @ t=0.72
1.856554382348025
% es.EX (V/m) @ t=0.72
0.5730459327787406
% es.EY (V/m) @ t=0.72
0.13884089395037014
% es.EZ (V/m) @ t=0.72
1.760423554896906
% es.tEX (V/m) @ t=0.72
0.5730459327787472
% es.tEY (V/m) @ t=0.72
0
% es.tEZ (V/m) @ t=0.72
1.76042355489691
% es.Ex (V/m) @ t=0.72
0.5730459327787406
% es.Ey (V/m) @ t=0.72
0.13884089395037014
% es.Ez (V/m) @ t=0.72
1.760423554896906
% es.tEx (V/m) @ t=0.72
0.5730459327787472
% es.tEy (V/m) @ t=0.72
0
% es.tEz (V/m) @ t=0.72
1.76042355489691
% V (V) @ t=0.72
0.008683842189412065
% es.normE (V/m) @ t=0.74
1.873344469466387
% es.EX (V/m) @ t=0.74
0.5782278935142179
% es.EY (V/m) @ t=0.74
0.14009749067268695
% es.EZ (V/m) @ t=0.74
1.7763443502420087
% es.tEX (V/m) @ t=0.74
0.5782278935142173
% es.tEY (V/m) @ t=0.74
0
% es.tEZ (V/m) @ t=0.74
1.7763443502420113
% es.Ex (V/m) @ t=0.74
0.5782278935142179
% es.Ey (V/m) @ t=0.74
0.14009749067268695
% es.Ez (V/m) @ t=0.74
1.7763443502420087
% es.tEx (V/m) @ t=0.74
0.5782278935142173
% es.tEy (V/m) @ t=0.74
0
% es.tEz (V/m) @ t=0.74
1.7763443502420113
% V (V) @ t=0.74
0.008762425966099434
% es.normE (V/m) @ t=0.76
1.890134556585723
% es.EX (V/m) @ t=0.76
0.5834098542496766
% es.EY (V/m) @ t=0.76
0.1413540873950292
% es.EZ (V/m) @ t=0.76
1.7922651455871024
% es.tEX (V/m) @ t=0.76
0.5834098542496804
% es.tEY (V/m) @ t=0.76
0
% es.tEZ (V/m) @ t=0.76
1.7922651455871073
% es.Ex (V/m) @ t=0.76
0.5834098542496766
% es.Ey (V/m) @ t=0.76
0.1413540873950292
% es.Ez (V/m) @ t=0.76
1.7922651455871024
% es.tEx (V/m) @ t=0.76
0.5834098542496804
% es.tEy (V/m) @ t=0.76
0
% es.tEz (V/m) @ t=0.76
1.7922651455871073
% V (V) @ t=0.76
0.008841009742786806
% es.normE (V/m) @ t=0.78
1.9069246437060317
% es.EX (V/m) @ t=0.78
0.5885918149851408
% es.EY (V/m) @ t=0.78
0.14261068411731992
% es.EZ (V/m) @ t=0.78
1.8081859409322112
% es.tEX (V/m) @ t=0.78
0.5885918149851506
% es.tEY (V/m) @ t=0.78
0
% es.tEZ (V/m) @ t=0.78
1.8081859409322156
% es.Ex (V/m) @ t=0.78
0.5885918149851408
% es.Ey (V/m) @ t=0.78
0.14261068411731992
% es.Ez (V/m) @ t=0.78
1.8081859409322112
% es.tEx (V/m) @ t=0.78
0.5885918149851506
% es.tEy (V/m) @ t=0.78
0
% es.tEz (V/m) @ t=0.78
1.8081859409322156
% V (V) @ t=0.78
0.008919593519474177
% es.normE (V/m) @ t=0.8
1.9237147308272684
% es.EX (V/m) @ t=0.8
0.5937737757206014
% es.EY (V/m) @ t=0.8
0.1438672808396262
% es.EZ (V/m) @ t=0.8
1.824106736277313
% es.tEX (V/m) @ t=0.8
0.5937737757205994
% es.tEY (V/m) @ t=0.8
0
% es.tEZ (V/m) @ t=0.8
1.8241067362773098
% es.Ex (V/m) @ t=0.8
0.5937737757206014
% es.Ey (V/m) @ t=0.8
0.1438672808396262
% es.Ez (V/m) @ t=0.8
1.824106736277313
% es.tEx (V/m) @ t=0.8
0.5937737757205994
% es.tEy (V/m) @ t=0.8
0
% es.tEz (V/m) @ t=0.8
1.8241067362773098
% V (V) @ t=0.8
0.008998177296161546
% es.normE (V/m) @ t=0.82
1.9405048179494129
% es.EX (V/m) @ t=0.82
0.5989557364560708
% es.EY (V/m) @ t=0.82
0.14512387756194534
% es.EZ (V/m) @ t=0.82
1.8400275316224075
% es.tEX (V/m) @ t=0.82
0.5989557364560696
% es.tEY (V/m) @ t=0.82
0
% es.tEZ (V/m) @ t=0.82
1.840027531622411
% es.Ex (V/m) @ t=0.82
0.5989557364560708
% es.Ey (V/m) @ t=0.82
0.14512387756194534
% es.Ez (V/m) @ t=0.82
1.8400275316224075
% es.tEx (V/m) @ t=0.82
0.5989557364560696
% es.tEy (V/m) @ t=0.82
0
% es.tEz (V/m) @ t=0.82
1.840027531622411
% V (V) @ t=0.82
0.009076761072848917
% es.normE (V/m) @ t=0.84
1.95870723005936
% es.EX (V/m) @ t=0.84
0.6045750485748952
% es.EY (V/m) @ t=0.84
0.14648341456691205
% es.EZ (V/m) @ t=0.84
1.8572872624584336
% es.tEX (V/m) @ t=0.84
0.604575048574894
% es.tEY (V/m) @ t=0.84
0
% es.tEZ (V/m) @ t=0.84
1.8572872624584402
% es.Ex (V/m) @ t=0.84
0.6045750485748952
% es.Ey (V/m) @ t=0.84
0.14648341456691205
% es.Ez (V/m) @ t=0.84
1.8572872624584336
% es.tEx (V/m) @ t=0.84
0.604575048574894
% es.tEy (V/m) @ t=0.84
0
% es.tEz (V/m) @ t=0.84
1.8572872624584402
% V (V) @ t=0.84
0.009161801086886655
% es.normE (V/m) @ t=0.86
1.9774856978751836
% es.EX (V/m) @ t=0.86
0.6103727465177607
% es.EY (V/m) @ t=0.86
0.14788493860526197
% es.EZ (V/m) @ t=0.86
1.8750931150628105
% es.tEX (V/m) @ t=0.86
0.6103727465177613
% es.tEY (V/m) @ t=0.86
0
% es.tEZ (V/m) @ t=0.86
1.8750931150628158
% es.Ex (V/m) @ t=0.86
0.6103727465177607
% es.Ey (V/m) @ t=0.86
0.14788493860526197
% es.Ez (V/m) @ t=0.86
1.8750931150628105
% es.tEx (V/m) @ t=0.86
0.6103727465177613
% es.tEy (V/m) @ t=0.86
0
% es.tEz (V/m) @ t=0.86
1.8750931150628158
% V (V) @ t=0.86
0.009249474455393333
% es.normE (V/m) @ t=0.88
1.9962641656993876
% es.EX (V/m) @ t=0.88
0.6161704444606163
% es.EY (V/m) @ t=0.88
0.14928646264359802
% es.EZ (V/m) @ t=0.88
1.8928989676672
% es.tEX (V/m) @ t=0.88
0.6161704444606215
% es.tEY (V/m) @ t=0.88
0
% es.tEZ (V/m) @ t=0.88
1.8928989676671986
% es.Ex (V/m) @ t=0.88
0.6161704444606163
% es.Ey (V/m) @ t=0.88
0.14928646264359802
% es.Ez (V/m) @ t=0.88
1.8928989676672
% es.tEx (V/m) @ t=0.88
0.6161704444606215
% es.tEy (V/m) @ t=0.88
0
% es.tEz (V/m) @ t=0.88
1.8928989676671986
% V (V) @ t=0.88
0.009337147823900011
% es.normE (V/m) @ t=0.9
2.015042633531717
% es.EX (V/m) @ t=0.9
0.6219681424034647
% es.EY (V/m) @ t=0.9
0.1506879866819466
% es.EZ (V/m) @ t=0.9
1.9107048202715768
% es.tEX (V/m) @ t=0.9
0.6219681424034675
% es.tEY (V/m) @ t=0.9
0
% es.tEZ (V/m) @ t=0.9
1.9107048202715866
% es.Ex (V/m) @ t=0.9
0.6219681424034647
% es.Ey (V/m) @ t=0.9
0.1506879866819466
% es.Ez (V/m) @ t=0.9
1.9107048202715768
% es.tEx (V/m) @ t=0.9
0.6219681424034675
% es.tEy (V/m) @ t=0.9
0
% es.tEz (V/m) @ t=0.9
1.9107048202715866
% V (V) @ t=0.9
0.009424821192406688
% es.normE (V/m) @ t=0.92
2.033821101371984
% es.EX (V/m) @ t=0.92
0.6277658403463316
% es.EY (V/m) @ t=0.92
0.1520895107202953
% es.EZ (V/m) @ t=0.92
1.9285106728759729
% es.tEX (V/m) @ t=0.92
0.6277658403463349
% es.tEY (V/m) @ t=0.92
0
% es.tEZ (V/m) @ t=0.92
1.9285106728759782
% es.Ex (V/m) @ t=0.92
0.6277658403463316
% es.Ey (V/m) @ t=0.92
0.1520895107202953
% es.Ez (V/m) @ t=0.92
1.9285106728759729
% es.tEx (V/m) @ t=0.92
0.6277658403463349
% es.tEy (V/m) @ t=0.92
0
% es.tEz (V/m) @ t=0.92
1.9285106728759782
% V (V) @ t=0.92
0.009512494560913368
% es.normE (V/m) @ t=0.94
2.0525995692198977
% es.EX (V/m) @ t=0.94
0.633563538289171
% es.EY (V/m) @ t=0.94
0.15349103475862613
% es.EZ (V/m) @ t=0.94
1.946316525480328
% es.tEX (V/m) @ t=0.94
0.6335635382891738
% es.tEY (V/m) @ t=0.94
0
% es.tEZ (V/m) @ t=0.94
1.9463165254803378
% es.Ex (V/m) @ t=0.94
0.633563538289171
% es.Ey (V/m) @ t=0.94
0.15349103475862613
% es.Ez (V/m) @ t=0.94
1.946316525480328
% es.tEx (V/m) @ t=0.94
0.6335635382891738
% es.tEy (V/m) @ t=0.94
0
% es.tEz (V/m) @ t=0.94
1.9463165254803378
% V (V) @ t=0.94
0.009600167929420048
% es.normE (V/m) @ t=0.96
2.071378037075343
% es.EX (V/m) @ t=0.96
0.6393612362320373
% es.EY (V/m) @ t=0.96
0.15489255879699948
% es.EZ (V/m) @ t=0.96
1.9641223780847175
% es.tEX (V/m) @ t=0.96
0.6393612362320411
% es.tEY (V/m) @ t=0.96
0
% es.tEZ (V/m) @ t=0.96
1.9641223780847206
% es.Ex (V/m) @ t=0.96
0.6393612362320373
% es.Ey (V/m) @ t=0.96
0.15489255879699948
% es.Ez (V/m) @ t=0.96
1.9641223780847175
% es.tEx (V/m) @ t=0.96
0.6393612362320411
% es.tEy (V/m) @ t=0.96
0
% es.tEz (V/m) @ t=0.96
1.9641223780847206
% V (V) @ t=0.96
0.009687841297926724
% es.normE (V/m) @ t=0.98
2.090156504938056
% es.EX (V/m) @ t=0.98
0.6451589341748959
% es.EY (V/m) @ t=0.98
0.15629408283534452
% es.EZ (V/m) @ t=0.98
1.981928230689094
% es.tEX (V/m) @ t=0.98
0.6451589341749013
% es.tEY (V/m) @ t=0.98
0
% es.tEZ (V/m) @ t=0.98
1.981928230689098
% es.Ex (V/m) @ t=0.98
0.6451589341748959
% es.Ey (V/m) @ t=0.98
0.15629408283534452
% es.Ez (V/m) @ t=0.98
1.981928230689094
% es.tEx (V/m) @ t=0.98
0.6451589341749013
% es.tEy (V/m) @ t=0.98
0
% es.tEz (V/m) @ t=0.98
1.981928230689098
% V (V) @ t=0.98
0.009775514666433402
% es.normE (V/m) @ t=1
2.1089349728078615
% es.EX (V/m) @ t=1
0.6509566321177543
% es.EY (V/m) @ t=1
0.15769560687369855
% es.EZ (V/m) @ t=1
1.9997340832934718
% es.tEX (V/m) @ t=1
0.6509566321177616
% es.tEY (V/m) @ t=1
0
% es.tEZ (V/m) @ t=1
1.9997340832934878
% es.Ex (V/m) @ t=1
0.6509566321177543
% es.Ey (V/m) @ t=1
0.15769560687369855
% es.Ez (V/m) @ t=1
1.9997340832934718
% es.tEx (V/m) @ t=1
0.6509566321177616
% es.tEy (V/m) @ t=1
0
% es.tEz (V/m) @ t=1
1.9997340832934878
% V (V) @ t=1
0.00986318803494008
% es.normE (V/m) @ t=1.02
2.127713440684577
% es.EX (V/m) @ t=1.02
0.6567543300606076
% es.EY (V/m) @ t=1.02
0.15909713091204536
% es.EZ (V/m) @ t=1.02
2.0175399358978594
% es.tEX (V/m) @ t=1.02
0.6567543300606076
% es.tEY (V/m) @ t=1.02
0
% es.tEZ (V/m) @ t=1.02
2.0175399358978776
% es.Ex (V/m) @ t=1.02
0.6567543300606076
% es.Ey (V/m) @ t=1.02
0.15909713091204536
% es.Ez (V/m) @ t=1.02
2.0175399358978594
% es.tEx (V/m) @ t=1.02
0.6567543300606076
% es.tEy (V/m) @ t=1.02
0
% es.tEz (V/m) @ t=1.02
2.0175399358978776
% V (V) @ t=1.02
0.00995086140344676
% es.normE (V/m) @ t=1.04
2.146491908568005
% es.EX (V/m) @ t=1.04
0.6625520280034614
% es.EY (V/m) @ t=1.04
0.16049865495039206
% es.EZ (V/m) @ t=1.04
2.035345788502238
% es.tEX (V/m) @ t=1.04
0.6625520280034607
% es.tEY (V/m) @ t=1.04
0
% es.tEZ (V/m) @ t=1.04
2.0353457885022372
% es.Ex (V/m) @ t=1.04
0.6625520280034614
% es.Ey (V/m) @ t=1.04
0.16049865495039206
% es.Ez (V/m) @ t=1.04
2.035345788502238