% Model:              1 neuron.mph
% Version:            COMSOL 6.1.0.252
% Date:               Mar 18 2023, 11:37
% Dimension:          0
% Nodes:              14017
% Expressions:        14017
% Description:        Electric field norm, Electric field, X component, Electric field, Y component, Electric field, Z component, Tangential electric field, X component, Tangential electric field, Y component, Tangential electric field, Z component, Electric field, x component, Electric field, y component, Electric field, z component, Tangential electric field, x component, Tangential electric field, y component, Tangential electric field, z component, Electric potential
% Length unit:        mm
% x
1.33
% y
12.2
% z
1
% es.normE (V/m) @ t=0
1.5450901826534167
% es.EX (V/m) @ t=0
0.4769143734087393
% es.EY (V/m) @ t=0
0.11553842692791816
% es.EZ (V/m) @ t=0
1.4650857326048419
% es.tEX (V/m) @ t=0
0.4769143734087393
% es.tEY (V/m) @ t=0
0
% es.tEZ (V/m) @ t=0
1.465085732604848
% es.Ex (V/m) @ t=0
0.4769143734087393
% es.Ey (V/m) @ t=0
0.11553842692791816
% es.Ez (V/m) @ t=0
1.4650857326048419
% es.tEx (V/m) @ t=0
0.4769143734087393
% es.tEy (V/m) @ t=0
0
% es.tEz (V/m) @ t=0
1.465085732604848
% V (V) @ t=0
0.007226430703437311
% es.normE (V/m) @ t=0.02
1.3345091961130544
% es.EX (V/m) @ t=0.02
0.41191551425249984
% es.EY (V/m) @ t=0.02
0.09979164644771021
% es.EZ (V/m) @ t=0.02
1.2654085859707018
% es.tEX (V/m) @ t=0.02
0.4119155142524953
% es.tEY (V/m) @ t=0.02
0
% es.tEZ (V/m) @ t=0.02
1.2654085859706923
% es.Ex (V/m) @ t=0.02
0.41191551425249984
% es.Ey (V/m) @ t=0.02
0.09979164644771021
% es.Ez (V/m) @ t=0.02
1.2654085859707018
% es.tEx (V/m) @ t=0.02
0.4119155142524953
% es.tEy (V/m) @ t=0.02
0
% es.tEz (V/m) @ t=0.02
1.2654085859706923
% V (V) @ t=0.02
0.006241537438663506
% es.normE (V/m) @ t=0.04
1.3467820442301197
% es.EX (V/m) @ t=0.04
0.4157037058227657
% es.EY (V/m) @ t=0.04
0.10070938288983611
% es.EZ (V/m) @ t=0.04
1.2770459485645234
% es.tEX (V/m) @ t=0.04
0.4157037058227644
% es.tEY (V/m) @ t=0.04
0
% es.tEZ (V/m) @ t=0.04
1.2770459485645258
% es.Ex (V/m) @ t=0.04
0.4157037058227657
% es.Ey (V/m) @ t=0.04
0.10070938288983611
% es.Ez (V/m) @ t=0.04
1.2770459485645234
% es.tEx (V/m) @ t=0.04
0.4157037058227644
% es.tEy (V/m) @ t=0.04
0
% es.tEz (V/m) @ t=0.04
1.2770459485645258
% V (V) @ t=0.04
0.006298937902199862
% es.normE (V/m) @ t=0.06
1.3591700856976328
% es.EX (V/m) @ t=0.06
0.4195274533459853
% es.EY (V/m) @ t=0.06
0.1016357332295208
% es.EZ (V/m) @ t=0.06
1.2887925398659956
% es.tEX (V/m) @ t=0.06
0.4195274533459923
% es.tEY (V/m) @ t=0.06
0
% es.tEZ (V/m) @ t=0.06
1.2887925398659963
% es.Ex (V/m) @ t=0.06
0.4195274533459853
% es.Ey (V/m) @ t=0.06
0.1016357332295208
% es.Ez (V/m) @ t=0.06
1.2887925398659956
% es.tEx (V/m) @ t=0.06
0.4195274533459923
% es.tEy (V/m) @ t=0.06
0
% es.tEz (V/m) @ t=0.06
1.2887925398659963
% V (V) @ t=0.06
0.006356877141421273
% es.normE (V/m) @ t=0.08
1.371736406174042
% es.EX (V/m) @ t=0.08
0.4234062293821772
% es.EY (V/m) @ t=0.08
0.10257541488275146
% es.EZ (V/m) @ t=0.08
1.3007081788849926
% es.tEX (V/m) @ t=0.08
0.4234062293821772
% es.tEY (V/m) @ t=0.08
0
% es.tEZ (V/m) @ t=0.08
1.3007081788849941
% es.Ex (V/m) @ t=0.08
0.4234062293821772
% es.Ey (V/m) @ t=0.08
0.10257541488275146
% es.Ez (V/m) @ t=0.08
1.3007081788849926
% es.tEx (V/m) @ t=0.08
0.4234062293821772
% es.tEy (V/m) @ t=0.08
0
% es.tEz (V/m) @ t=0.08
1.3007081788849941
% V (V) @ t=0.08
0.0064156501846046364
% es.normE (V/m) @ t=0.1
1.384448851949832
% es.EX (V/m) @ t=0.1
0.4273301092025079
% es.EY (V/m) @ t=0.1
0.10352602346558126
% es.EZ (V/m) @ t=0.1
1.3127623768318504
% es.tEX (V/m) @ t=0.1
0.4273301092025079
% es.tEY (V/m) @ t=0.1
0
% es.tEZ (V/m) @ t=0.1
1.3127623768318575
% es.Ex (V/m) @ t=0.1
0.4273301092025079
% es.Ey (V/m) @ t=0.1
0.10352602346558126
% es.Ez (V/m) @ t=0.1
1.3127623768318504
% es.tEx (V/m) @ t=0.1
0.4273301092025079
% es.tEy (V/m) @ t=0.1
0
% es.tEz (V/m) @ t=0.1
1.3127623768318575
% V (V) @ t=0.1
0.006475106650106212
% es.normE (V/m) @ t=0.12
1.3971612977256131
% es.EX (V/m) @ t=0.12
0.4312539890228364
% es.EY (V/m) @ t=0.12
0.10447663204840729
% es.EZ (V/m) @ t=0.12
1.3248165747787
% es.tEX (V/m) @ t=0.12
0.43125398902283507
% es.tEY (V/m) @ t=0.12
0
% es.tEZ (V/m) @ t=0.12
1.3248165747787102
% es.Ex (V/m) @ t=0.12
0.4312539890228364
% es.Ey (V/m) @ t=0.12
0.10447663204840729
% es.Ez (V/m) @ t=0.12
1.3248165747787
% es.tEx (V/m) @ t=0.12
0.43125398902283507
% es.tEy (V/m) @ t=0.12
0
% es.tEz (V/m) @ t=0.12
1.3248165747787102
% V (V) @ t=0.12
0.006534563115607788
% es.normE (V/m) @ t=0.14
1.4099487465267446
% es.EX (V/m) @ t=0.14
0.43520101962589464
% es.EY (V/m) @ t=0.14
0.10543284919054074
% es.EZ (V/m) @ t=0.14
1.3369418921042815
% es.tEX (V/m) @ t=0.14
0.4352010196258931
% es.tEY (V/m) @ t=0.14
0
% es.tEZ (V/m) @ t=0.14
1.3369418921042904
% es.Ex (V/m) @ t=0.14
0.43520101962589464
% es.Ey (V/m) @ t=0.14
0.10543284919054074
% es.Ez (V/m) @ t=0.14
1.3369418921042815
% es.tEx (V/m) @ t=0.14
0.4352010196258931
% es.tEy (V/m) @ t=0.14
0
% es.tEz (V/m) @ t=0.14
1.3369418921042904
% V (V) @ t=0.14
0.006594370370844045
% es.normE (V/m) @ t=0.16
1.423348062453055
% es.EX (V/m) @ t=0.16
0.4393369119824192
% es.EY (V/m) @ t=0.16
0.10643482039444829
% es.EZ (V/m) @ t=0.16
1.3496473941571292
% es.tEX (V/m) @ t=0.16
0.4393369119824193
% es.tEY (V/m) @ t=0.16
0
% es.tEZ (V/m) @ t=0.16
1.3496473941571292
% es.Ex (V/m) @ t=0.16
0.4393369119824192
% es.Ey (V/m) @ t=0.16
0.10643482039444829
% es.Ez (V/m) @ t=0.16
1.3496473941571292
% es.tEx (V/m) @ t=0.16
0.4393369119824193
% es.tEy (V/m) @ t=0.16
0
% es.tEz (V/m) @ t=0.16
1.3496473941571292
% V (V) @ t=0.16
0.006657039333397771
% es.normE (V/m) @ t=0.18
1.4367473783793292
% es.EX (V/m) @ t=0.18
0.4434728043389341
% es.EY (V/m) @ t=0.18
0.10743679159835595
% es.EZ (V/m) @ t=0.18
1.3623528962099418
% es.tEX (V/m) @ t=0.18
0.4434728043389313
% es.tEY (V/m) @ t=0.18
0
% es.tEZ (V/m) @ t=0.18
1.362352896209945
% es.Ex (V/m) @ t=0.18
0.4434728043389341
% es.Ey (V/m) @ t=0.18
0.10743679159835595
% es.Ez (V/m) @ t=0.18
1.3623528962099418
% es.tEx (V/m) @ t=0.18
0.4434728043389313
% es.tEy (V/m) @ t=0.18
0
% es.tEz (V/m) @ t=0.18
1.362352896209945
% V (V) @ t=0.18
0.006719708295951496
% es.normE (V/m) @ t=0.2
1.4501466943056314
% es.EX (V/m) @ t=0.2
0.4476086966954568
% es.EY (V/m) @ t=0.2
0.1084387628022565
% es.EZ (V/m) @ t=0.2
1.375058398262782
% es.tEX (V/m) @ t=0.2
0.44760869669545755
% es.tEY (V/m) @ t=0.2
0
% es.tEZ (V/m) @ t=0.2
1.375058398262782
% es.Ex (V/m) @ t=0.2
0.4476086966954568
% es.Ey (V/m) @ t=0.2
0.1084387628022565
% es.Ez (V/m) @ t=0.2
1.375058398262782
% es.tEx (V/m) @ t=0.2
0.44760869669545755
% es.tEy (V/m) @ t=0.2
0
% es.tEz (V/m) @ t=0.2
1.375058398262782
% V (V) @ t=0.2
0.006782377258505222
% es.normE (V/m) @ t=0.22
1.4635460102319127
% es.EX (V/m) @ t=0.22
0.4517445890519779
% es.EY (V/m) @ t=0.22
0.1094407340061554
% es.EZ (V/m) @ t=0.22
1.3877639003156008
% es.tEX (V/m) @ t=0.22
0.45174458905196957
% es.tEY (V/m) @ t=0.22
0
% es.tEZ (V/m) @ t=0.22
1.3877639003156048
% es.Ex (V/m) @ t=0.22
0.4517445890519779
% es.Ey (V/m) @ t=0.22
0.1094407340061554
% es.Ez (V/m) @ t=0.22
1.3877639003156008
% es.tEx (V/m) @ t=0.22
0.45174458905196957
% es.tEy (V/m) @ t=0.22
0
% es.tEz (V/m) @ t=0.22
1.3877639003156048
% V (V) @ t=0.22
0.006845046221058946
% es.normE (V/m) @ t=0.24
1.4769453261582153
% es.EX (V/m) @ t=0.24
0.45588048140849535
% es.EY (V/m) @ t=0.24
0.11044270521006283
% es.EZ (V/m) @ t=0.24
1.4004694023684423
% es.tEX (V/m) @ t=0.24
0.45588048140849935
% es.tEY (V/m) @ t=0.24
0
% es.tEZ (V/m) @ t=0.24
1.400469402368449
% es.Ex (V/m) @ t=0.24
0.45588048140849535
% es.Ey (V/m) @ t=0.24
0.11044270521006283
% es.Ez (V/m) @ t=0.24
1.4004694023684423
% es.tEx (V/m) @ t=0.24
0.45588048140849935
% es.tEy (V/m) @ t=0.24
0
% es.tEz (V/m) @ t=0.24
1.400469402368449
% V (V) @ t=0.24
0.006907715183612671
% es.normE (V/m) @ t=0.26
1.4903446420845037
% es.EX (V/m) @ t=0.26
0.46001637376500704
% es.EY (V/m) @ t=0.26
0.1114446764139655
% es.EZ (V/m) @ t=0.26
1.4131749044212714
% es.tEX (V/m) @ t=0.26
0.4600163737650078
% es.tEY (V/m) @ t=0.26
0
% es.tEZ (V/m) @ t=0.26
1.4131749044212718
% es.Ex (V/m) @ t=0.26
0.46001637376500704
% es.Ey (V/m) @ t=0.26
0.1114446764139655
% es.Ez (V/m) @ t=0.26
1.4131749044212714
% es.tEx (V/m) @ t=0.26
0.4600163737650078
% es.tEy (V/m) @ t=0.26
0
% es.tEz (V/m) @ t=0.26
1.4131749044212718
% V (V) @ t=0.26
0.006970384146166397
% es.normE (V/m) @ t=0.28
1.5040975324562238
% es.EX (V/m) @ t=0.28
0.46426140039023156
% es.EY (V/m) @ t=0.28
0.1124730871252434
% es.EZ (V/m) @ t=0.28
1.4262156734263343
% es.tEX (V/m) @ t=0.28
0.4642614003902352
% es.tEY (V/m) @ t=0.28
0
% es.tEZ (V/m) @ t=0.28
1.426215673426336
% es.Ex (V/m) @ t=0.28
0.46426140039023156
% es.Ey (V/m) @ t=0.28
0.1124730871252434
% es.Ez (V/m) @ t=0.28
1.4262156734263343
% es.tEx (V/m) @ t=0.28
0.4642614003902352
% es.tEy (V/m) @ t=0.28
0
% es.tEz (V/m) @ t=0.28
1.426215673426336
% V (V) @ t=0.28
0.007034706936296164
% es.normE (V/m) @ t=0.3
1.5190444241008085
% es.EX (V/m) @ t=0.3
0.46887496738205037
% es.EY (V/m) @ t=0.3
0.11359078258510669
% es.EZ (V/m) @ t=0.3
1.440388620316122
% es.tEX (V/m) @ t=0.3
0.4688749673820496
% es.tEY (V/m) @ t=0.3
0
% es.tEZ (V/m) @ t=0.3
1.4403886203161278
% es.Ex (V/m) @ t=0.3
0.46887496738205037
% es.Ey (V/m) @ t=0.3
0.11359078258510669
% es.Ez (V/m) @ t=0.3
1.440388620316122
% es.tEx (V/m) @ t=0.3
0.4688749673820496
% es.tEy (V/m) @ t=0.3
0
% es.tEz (V/m) @ t=0.3
1.4403886203161278
% V (V) @ t=0.3
0.007104614610334606
% es.normE (V/m) @ t=0.32
1.5339913157453713
% es.EX (V/m) @ t=0.32
0.4734885343738586
% es.EY (V/m) @ t=0.32
0.11470847804495388
% es.EZ (V/m) @ t=0.32
1.4545615672058911
% es.tEX (V/m) @ t=0.32
0.47348853437386396
% es.tEY (V/m) @ t=0.32
0
% es.tEZ (V/m) @ t=0.32
1.4545615672058947
% es.Ex (V/m) @ t=0.32
0.4734885343738586
% es.Ey (V/m) @ t=0.32
0.11470847804495388
% es.Ez (V/m) @ t=0.32
1.4545615672058911
% es.tEx (V/m) @ t=0.32
0.47348853437386396
% es.tEy (V/m) @ t=0.32
0
% es.tEz (V/m) @ t=0.32
1.4545615672058947
% V (V) @ t=0.32
0.007174522284373047
% es.normE (V/m) @ t=0.34
1.54893820738994
% es.EX (V/m) @ t=0.34
0.47810210136568354
% es.EY (V/m) @ t=0.34
0.11582617350480473
% es.EZ (V/m) @ t=0.34
1.4687345140956611
% es.tEX (V/m) @ t=0.34
0.47810210136569253
% es.tEY (V/m) @ t=0.34
0
% es.tEZ (V/m) @ t=0.34
1.4687345140956651
% es.Ex (V/m) @ t=0.34
0.47810210136568354
% es.Ey (V/m) @ t=0.34
0.11582617350480473
% es.Ez (V/m) @ t=0.34
1.4687345140956611
% es.tEx (V/m) @ t=0.34
0.47810210136569253
% es.tEy (V/m) @ t=0.34
0
% es.tEz (V/m) @ t=0.34
1.4687345140956651
% V (V) @ t=0.34
0.007244429958411488
% es.normE (V/m) @ t=0.36
1.56388509903452
% es.EX (V/m) @ t=0.36
0.4827156683574966
% es.EY (V/m) @ t=0.36
0.1169438689646729
% es.EZ (V/m) @ t=0.36
1.4829074609854453
% es.tEX (V/m) @ t=0.36
0.4827156683574998
% es.tEY (V/m) @ t=0.36
0
% es.tEZ (V/m) @ t=0.36
1.482907460985448
% es.Ex (V/m) @ t=0.36
0.4827156683574966
% es.Ey (V/m) @ t=0.36
0.1169438689646729
% es.Ez (V/m) @ t=0.36
1.4829074609854453
% es.tEx (V/m) @ t=0.36
0.4827156683574998
% es.tEy (V/m) @ t=0.36
0
% es.tEz (V/m) @ t=0.36
1.482907460985448
% V (V) @ t=0.36
0.00731433763244993
% es.normE (V/m) @ t=0.38
1.578831990679078
% es.EX (V/m) @ t=0.38
0.48732923534931305
% es.EY (V/m) @ t=0.38
0.11806156442450788
% es.EZ (V/m) @ t=0.38
1.4970804078752078
% es.tEX (V/m) @ t=0.38
0.48732923534931416
% es.tEY (V/m) @ t=0.38
0
% es.tEZ (V/m) @ t=0.38
1.4970804078752096
% es.Ex (V/m) @ t=0.38
0.48732923534931305
% es.Ey (V/m) @ t=0.38
0.11806156442450788
% es.Ez (V/m) @ t=0.38
1.4970804078752078
% es.tEx (V/m) @ t=0.38
0.48732923534931416
% es.tEy (V/m) @ t=0.38
0
% es.tEz (V/m) @ t=0.38
1.4970804078752096
% V (V) @ t=0.38
0.007384245306488372
% es.normE (V/m) @ t=0.4
1.5937788823236576
% es.EX (V/m) @ t=0.4
0.49194280234112653
% es.EY (V/m) @ t=0.4
0.11917925988436717
% es.EZ (V/m) @ t=0.4
1.511253354764992
% es.tEX (V/m) @ t=0.4
0.4919428023411214
% es.tEY (V/m) @ t=0.4
0
% es.tEZ (V/m) @ t=0.4
1.5112533547649925
% es.Ex (V/m) @ t=0.4
0.49194280234112653
% es.Ey (V/m) @ t=0.4
0.11917925988436717
% es.Ez (V/m) @ t=0.4
1.511253354764992
% es.tEx (V/m) @ t=0.4
0.4919428023411214
% es.tEy (V/m) @ t=0.4
0
% es.tEz (V/m) @ t=0.4
1.5112533547649925
% V (V) @ t=0.4
0.007454152980526814
% es.normE (V/m) @ t=0.42
1.6087257739682128
% es.EX (V/m) @ t=0.42
0.4965563693329431
% es.EY (V/m) @ t=0.42
0.12029695534421447
% es.EZ (V/m) @ t=0.42
1.5254263016547505
% es.tEX (V/m) @ t=0.42
0.49655636933295
% es.tEY (V/m) @ t=0.42
0
% es.tEZ (V/m) @ t=0.42
1.5254263016547611
% es.Ex (V/m) @ t=0.42
0.4965563693329431
% es.Ey (V/m) @ t=0.42
0.12029695534421447
% es.Ez (V/m) @ t=0.42
1.5254263016547505
% es.tEx (V/m) @ t=0.42
0.49655636933295
% es.tEy (V/m) @ t=0.42
0
% es.tEz (V/m) @ t=0.42
1.5254263016547611
% V (V) @ t=0.42
0.007524060654565255
% es.normE (V/m) @ t=0.44
1.6236726656127956
% es.EX (V/m) @ t=0.44
0.501169936324756
% es.EY (V/m) @ t=0.44
0.1214146508040761
% es.EZ (V/m) @ t=0.44
1.5395992485445378
% es.tEX (V/m) @ t=0.44
0.5011699363247573
% es.tEY (V/m) @ t=0.44
0
% es.tEZ (V/m) @ t=0.44
1.539599248544537
% es.Ex (V/m) @ t=0.44
0.501169936324756
% es.Ey (V/m) @ t=0.44
0.1214146508040761
% es.Ez (V/m) @ t=0.44
1.5395992485445378
% es.tEx (V/m) @ t=0.44
0.5011699363247573
% es.tEy (V/m) @ t=0.44
0
% es.tEz (V/m) @ t=0.44
1.539599248544537
% V (V) @ t=0.44
0.007593968328603696
% es.normE (V/m) @ t=0.46
1.6386195572573583
% es.EX (V/m) @ t=0.46
0.5057835033165732
% es.EY (V/m) @ t=0.46
0.1225323462639265
% es.EZ (V/m) @ t=0.46
1.5537721954343038
% es.tEX (V/m) @ t=0.46
0.5057835033165645
% es.tEY (V/m) @ t=0.46
0
% es.tEZ (V/m) @ t=0.46
1.5537721954343127
% es.Ex (V/m) @ t=0.46
0.5057835033165732
% es.Ey (V/m) @ t=0.46
0.1225323462639265
% es.Ez (V/m) @ t=0.46
1.5537721954343038
% es.tEx (V/m) @ t=0.46
0.5057835033165645
% es.tEy (V/m) @ t=0.46
0
% es.tEz (V/m) @ t=0.46
1.5537721954343127
% V (V) @ t=0.46
0.00766387600264214
% es.normE (V/m) @ t=0.48
1.6535664489019348
% es.EX (V/m) @ t=0.48
0.5103970703083932
% es.EY (V/m) @ t=0.48
0.12365004172376137
% es.EZ (V/m) @ t=0.48
1.5679451423240844
% es.tEX (V/m) @ t=0.48
0.5103970703083931
% es.tEY (V/m) @ t=0.48
0
% es.tEZ (V/m) @ t=0.48
1.5679451423240955
% es.Ex (V/m) @ t=0.48
0.5103970703083932
% es.Ey (V/m) @ t=0.48
0.12365004172376137
% es.Ez (V/m) @ t=0.48
1.5679451423240844
% es.tEx (V/m) @ t=0.48
0.5103970703083931
% es.tEy (V/m) @ t=0.48
0
% es.tEz (V/m) @ t=0.48
1.5679451423240955
% V (V) @ t=0.48
0.007733783676680581
% es.normE (V/m) @ t=0.5
1.6685133405465002
% es.EX (V/m) @ t=0.5
0.51501063730021
% es.EY (V/m) @ t=0.5
0.12476773718363898
% es.EZ (V/m) @ t=0.5
1.5821180892138509
% es.tEX (V/m) @ t=0.5
0.5150106373002146
% es.tEY (V/m) @ t=0.5
0
% es.tEZ (V/m) @ t=0.5
1.58211808921385
% es.Ex (V/m) @ t=0.5
0.51501063730021
% es.Ey (V/m) @ t=0.5
0.12476773718363898
% es.Ez (V/m) @ t=0.5
1.5821180892138509
% es.tEx (V/m) @ t=0.5
0.5150106373002146
% es.tEy (V/m) @ t=0.5
0
% es.tEz (V/m) @ t=0.5
1.58211808921385
% V (V) @ t=0.5
0.007803691350719022
% es.normE (V/m) @ t=0.52
1.6834602321910617
% es.EX (V/m) @ t=0.52
0.5196242042920178
% es.EY (V/m) @ t=0.52
0.12588543264346452
% es.EZ (V/m) @ t=0.52
1.5962910361036204
% es.tEX (V/m) @ t=0.52
0.5196242042920147
% es.tEY (V/m) @ t=0.52
0
% es.tEZ (V/m) @ t=0.52
1.5962910361036187
% es.Ex (V/m) @ t=0.52
0.5196242042920178
% es.Ey (V/m) @ t=0.52
0.12588543264346452
% es.Ez (V/m) @ t=0.52
1.5962910361036204
% es.tEx (V/m) @ t=0.52
0.5196242042920147
% es.tEy (V/m) @ t=0.52
0
% es.tEz (V/m) @ t=0.52
1.5962910361036187
% V (V) @ t=0.52
0.007873599024757464
% es.normE (V/m) @ t=0.54
1.6984071238356493
% es.EX (V/m) @ t=0.54
0.52423777128384
% es.EY (V/m) @ t=0.54
0.12700312810332437
% es.EZ (V/m) @ t=0.54
1.6104639829934104
% es.tEX (V/m) @ t=0.54
0.5242377712838433
% es.tEY (V/m) @ t=0.54
0
% es.tEZ (V/m) @ t=0.54
1.6104639829934158
% es.Ex (V/m) @ t=0.54
0.52423777128384
% es.Ey (V/m) @ t=0.54
0.12700312810332437
% es.Ez (V/m) @ t=0.54
1.6104639829934104
% es.tEx (V/m) @ t=0.54
0.5242377712838433
% es.tEy (V/m) @ t=0.54
0
% es.tEz (V/m) @ t=0.54
1.6104639829934158
% V (V) @ t=0.54
0.007943506698795906
% es.normE (V/m) @ t=0.56
1.7141744959079137
% es.EX (V/m) @ t=0.56
0.5291045944746664
% es.EY (V/m) @ t=0.56
0.12818217729439463
% es.EZ (V/m) @ t=0.56
1.6254149249960985
% es.tEX (V/m) @ t=0.56
0.52910459447466
% es.tEY (V/m) @ t=0.56
0
% es.tEZ (V/m) @ t=0.56
1.6254149249960985
% es.Ex (V/m) @ t=0.56
0.5291045944746664
% es.Ey (V/m) @ t=0.56
0.12818217729439463
% es.Ez (V/m) @ t=0.56
1.6254149249960985
% es.tEx (V/m) @ t=0.56
0.52910459447466
% es.tEy (V/m) @ t=0.56
0
% es.tEz (V/m) @ t=0.56
1.6254149249960985
% V (V) @ t=0.56
0.008017251491809466
% es.normE (V/m) @ t=0.58
1.7308782336426185
% es.EX (V/m) @ t=0.58
0.5342604439488061
% es.EY (V/m) @ t=0.58
0.1294312458609702
% es.EZ (V/m) @ t=0.58
1.6412537466906034
% es.tEX (V/m) @ t=0.58
0.5342604439488099
% es.tEY (V/m) @ t=0.58
0
% es.tEZ (V/m) @ t=0.58
1.641253746690614
% es.Ex (V/m) @ t=0.58
0.5342604439488061
% es.Ey (V/m) @ t=0.58
0.1294312458609702
% es.Ez (V/m) @ t=0.58
1.6412537466906034
% es.tEx (V/m) @ t=0.58
0.5342604439488099
% es.tEy (V/m) @ t=0.58
0
% es.tEz (V/m) @ t=0.58
1.641253746690614
% V (V) @ t=0.58
0.008095375361190635
% es.normE (V/m) @ t=0.6
1.7475819713773189
% es.EX (V/m) @ t=0.6
0.5394162934229597
% es.EY (V/m) @ t=0.6
0.1306803144275377
% es.EZ (V/m) @ t=0.6
1.6570925683850994
% es.tEX (V/m) @ t=0.6
0.5394162934229669
% es.tEY (V/m) @ t=0.6
0
% es.tEZ (V/m) @ t=0.6
1.657092568385103
% es.Ex (V/m) @ t=0.6
0.5394162934229597
% es.Ey (V/m) @ t=0.6
0.1306803144275377
% es.Ez (V/m) @ t=0.6
1.6570925683850994
% es.tEx (V/m) @ t=0.6
0.5394162934229669
% es.tEy (V/m) @ t=0.6
0
% es.tEz (V/m) @ t=0.6
1.657092568385103
% V (V) @ t=0.6
0.008173499230571805
% es.normE (V/m) @ t=0.62
1.764285709112052
% es.EX (V/m) @ t=0.62
0.5445721428971118
% es.EY (V/m) @ t=0.62
0.13192938299412205
% es.EZ (V/m) @ t=0.62
1.6729313900796297
% es.tEX (V/m) @ t=0.62
0.5445721428971098
% es.tEY (V/m) @ t=0.62
0
% es.tEZ (V/m) @ t=0.62
1.6729313900796292
% es.Ex (V/m) @ t=0.62
0.5445721428971118
% es.Ey (V/m) @ t=0.62
0.13192938299412205
% es.Ez (V/m) @ t=0.62
1.6729313900796297
% es.tEx (V/m) @ t=0.62
0.5445721428971098
% es.tEy (V/m) @ t=0.62
0
% es.tEz (V/m) @ t=0.62
1.6729313900796292
% V (V) @ t=0.62
0.008251623099952978
% es.normE (V/m) @ t=0.64
1.7809894468467633
% es.EX (V/m) @ t=0.64
0.5497279923712546
% es.EY (V/m) @ t=0.64
0.13317845156067543
% es.EZ (V/m) @ t=0.64
1.688770211774142
% es.tEX (V/m) @ t=0.64
0.5497279923712597
% es.tEY (V/m) @ t=0.64
0
% es.tEZ (V/m) @ t=0.64
1.688770211774143
% es.Ex (V/m) @ t=0.64
0.5497279923712546
% es.Ey (V/m) @ t=0.64
0.13317845156067543
% es.Ez (V/m) @ t=0.64
1.688770211774142
% es.tEx (V/m) @ t=0.64
0.5497279923712597
% es.tEy (V/m) @ t=0.64
0
% es.tEz (V/m) @ t=0.64
1.688770211774143
% V (V) @ t=0.64
0.008329746969334148
% es.normE (V/m) @ t=0.66
1.797693184581474
% es.EX (V/m) @ t=0.66
0.5548838418454047
% es.EY (V/m) @ t=0.66
0.1344275201272651
% es.EZ (V/m) @ t=0.66
1.7046090334686488
% es.tEX (V/m) @ t=0.66
0.5548838418454096
% es.tEY (V/m) @ t=0.66
0
% es.tEZ (V/m) @ t=0.66
1.704609033468655
% es.Ex (V/m) @ t=0.66
0.5548838418454047
% es.Ey (V/m) @ t=0.66
0.1344275201272651
% es.Ez (V/m) @ t=0.66
1.7046090334686488
% es.tEx (V/m) @ t=0.66
0.5548838418454096
% es.tEy (V/m) @ t=0.66
0
% es.tEz (V/m) @ t=0.66
1.704609033468655
% V (V) @ t=0.66
0.00840787083871532
% es.normE (V/m) @ t=0.68
1.8143969223161724
% es.EX (V/m) @ t=0.68
0.5600396913195494
% es.EY (V/m) @ t=0.68
0.1356765886938086
% es.EZ (V/m) @ t=0.68
1.7204478551631475
% es.tEX (V/m) @ t=0.68
0.5600396913195524
% es.tEY (V/m) @ t=0.68
0
% es.tEZ (V/m) @ t=0.68
1.7204478551631475
% es.Ex (V/m) @ t=0.68
0.5600396913195494
% es.Ey (V/m) @ t=0.68
0.1356765886938086
% es.Ez (V/m) @ t=0.68
1.7204478551631475
% es.tEx (V/m) @ t=0.68
0.5600396913195524
% es.tEy (V/m) @ t=0.68
0
% es.tEz (V/m) @ t=0.68
1.7204478551631475
% V (V) @ t=0.68
0.008485994708096491
% es.normE (V/m) @ t=0.7
1.8311006600509057
% es.EX (V/m) @ t=0.7
0.5651955407937053
% es.EY (V/m) @ t=0.7
0.1369256572604045
% es.EZ (V/m) @ t=0.7
1.7362866768576755
% es.tEX (V/m) @ t=0.7
0.5651955407937095
% es.tEY (V/m) @ t=0.7
0
% es.tEZ (V/m) @ t=0.7
1.7362866768576737
% es.Ex (V/m) @ t=0.7
0.5651955407937053
% es.Ey (V/m) @ t=0.7
0.1369256572604045
% es.Ez (V/m) @ t=0.7
1.7362866768576755
% es.tEx (V/m) @ t=0.7
0.5651955407937095
% es.tEy (V/m) @ t=0.7
0
% es.tEz (V/m) @ t=0.7
1.7362866768576737
% V (V) @ t=0.7
0.008564118577477662
% es.normE (V/m) @ t=0.72
1.8478043977856133
% es.EX (V/m) @ t=0.72
0.5703513902678534
% es.EY (V/m) @ t=0.72
0.1381747258269832
% es.EZ (V/m) @ t=0.72
1.7521254985521804
% es.tEX (V/m) @ t=0.72
0.5703513902678594
% es.tEY (V/m) @ t=0.72
0
% es.tEZ (V/m) @ t=0.72
1.752125498552184
% es.Ex (V/m) @ t=0.72
0.5703513902678534
% es.Ey (V/m) @ t=0.72
0.1381747258269832
% es.Ez (V/m) @ t=0.72
1.7521254985521804
% es.tEx (V/m) @ t=0.72
0.5703513902678594
% es.tEy (V/m) @ t=0.72
0
% es.tEz (V/m) @ t=0.72
1.752125498552184
% V (V) @ t=0.72
0.008642242446858834
% es.normE (V/m) @ t=0.74
1.8645081355202942
% es.EX (V/m) @ t=0.74
0.5755072397419906
% es.EY (V/m) @ t=0.74
0.13942379439354236
% es.EZ (V/m) @ t=0.74
1.7679643202466617
% es.tEX (V/m) @ t=0.74
0.575507239741988
% es.tEY (V/m) @ t=0.74
0
% es.tEZ (V/m) @ t=0.74
1.7679643202466782
% es.Ex (V/m) @ t=0.74
0.5755072397419906
% es.Ey (V/m) @ t=0.74
0.13942379439354236
% es.Ez (V/m) @ t=0.74
1.7679643202466617
% es.tEx (V/m) @ t=0.74
0.575507239741988
% es.tEy (V/m) @ t=0.74
0
% es.tEz (V/m) @ t=0.74
1.7679643202466782
% V (V) @ t=0.74
0.008720366316240005
% es.normE (V/m) @ t=0.76
1.881211873255022
% es.EX (V/m) @ t=0.76
0.5806630892161393
% es.EY (V/m) @ t=0.76
0.14067286296011072
% es.EZ (V/m) @ t=0.76
1.7838031419411888
% es.tEX (V/m) @ t=0.76
0.580663089216138
% es.tEY (V/m) @ t=0.76
0
% es.tEZ (V/m) @ t=0.76
1.7838031419411884
% es.Ex (V/m) @ t=0.76
0.5806630892161393
% es.Ey (V/m) @ t=0.76
0.14067286296011072
% es.Ez (V/m) @ t=0.76
1.7838031419411888
% es.tEx (V/m) @ t=0.76
0.580663089216138
% es.tEy (V/m) @ t=0.76
0
% es.tEz (V/m) @ t=0.76
1.7838031419411884
% V (V) @ t=0.76
0.008798490185621176
% es.normE (V/m) @ t=0.78
1.897915610989728
% es.EX (V/m) @ t=0.78
0.5858189386902757
% es.EY (V/m) @ t=0.78
0.14192193152669463
% es.EZ (V/m) @ t=0.78
1.799641963635695
% es.tEX (V/m) @ t=0.78
0.5858189386902808
% es.tEY (V/m) @ t=0.78
0
% es.tEZ (V/m) @ t=0.78
1.799641963635711
% es.Ex (V/m) @ t=0.78
0.5858189386902757
% es.Ey (V/m) @ t=0.78
0.14192193152669463
% es.Ez (V/m) @ t=0.78
1.799641963635695
% es.tEx (V/m) @ t=0.78
0.5858189386902808
% es.tEy (V/m) @ t=0.78
0
% es.tEz (V/m) @ t=0.78
1.799641963635711
% V (V) @ t=0.78
0.008876614055002348
% es.normE (V/m) @ t=0.8
1.914619348724449
% es.EX (V/m) @ t=0.8
0.590974788164433
% es.EY (V/m) @ t=0.8
0.14317100009326078
% es.EZ (V/m) @ t=0.8
1.815480785330212
% es.tEX (V/m) @ t=0.8
0.5909747881644307
% es.tEY (V/m) @ t=0.8
0
% es.tEZ (V/m) @ t=0.8
1.8154807853302142
% es.Ex (V/m) @ t=0.8
0.590974788164433
% es.Ey (V/m) @ t=0.8
0.14317100009326078
% es.Ez (V/m) @ t=0.8
1.815480785330212
% es.tEx (V/m) @ t=0.8
0.5909747881644307
% es.tEy (V/m) @ t=0.8
0
% es.tEz (V/m) @ t=0.8
1.8154807853302142
% V (V) @ t=0.8
0.008954737924383518
% es.normE (V/m) @ t=0.82
1.9313230864591666
% es.EX (V/m) @ t=0.82
0.5961306376385831
% es.EY (V/m) @ t=0.82
0.1444200686598167
% es.EZ (V/m) @ t=0.82
1.8313196070247284
% es.tEX (V/m) @ t=0.82
0.5961306376385878
% es.tEY (V/m) @ t=0.82
0
% es.tEZ (V/m) @ t=0.82
1.8313196070247315
% es.Ex (V/m) @ t=0.82
0.5961306376385831
% es.Ey (V/m) @ t=0.82
0.1444200686598167
% es.Ez (V/m) @ t=0.82
1.8313196070247284
% es.tEx (V/m) @ t=0.82
0.5961306376385878
% es.tEy (V/m) @ t=0.82
0
% es.tEz (V/m) @ t=0.82
1.8313196070247315
% V (V) @ t=0.82
0.00903286179376469
% es.normE (V/m) @ t=0.84
1.949436857304205
% es.EX (V/m) @ t=0.84
0.6017217147785953
% es.EY (V/m) @ t=0.84
0.1457745763881726
% es.EZ (V/m) @ t=0.84
1.8484954504083615
% es.tEX (V/m) @ t=0.84
0.6017217147785985
% es.tEY (V/m) @ t=0.84
0
% es.tEZ (V/m) @ t=0.84
1.8484954504083628
% es.Ex (V/m) @ t=0.84
0.6017217147785953
% es.Ey (V/m) @ t=0.84
0.1457745763881726
% es.Ez (V/m) @ t=0.84
1.8484954504083615
% es.tEx (V/m) @ t=0.84
0.6017217147785985
% es.tEy (V/m) @ t=0.84
0
% es.tEz (V/m) @ t=0.84
1.8484954504083628
% V (V) @ t=0.84
0.009117580370387079
% es.normE (V/m) @ t=0.86
1.9681390318349294
% es.EX (V/m) @ t=0.86
0.6074944114570787
% es.EY (V/m) @ t=0.86
0.14717308364459658
% es.EZ (V/m) @ t=0.86
1.8662292299737442
% es.tEX (V/m) @ t=0.86
0.6074944114570755
% es.tEY (V/m) @ t=0.86
0
% es.tEZ (V/m) @ t=0.86
1.8662292299737526
% es.Ex (V/m) @ t=0.86
0.6074944114570787
% es.Ey (V/m) @ t=0.86
0.14717308364459658
% es.Ez (V/m) @ t=0.86
1.8662292299737442
% es.tEx (V/m) @ t=0.86
0.6074944114570755
% es.tEy (V/m) @ t=0.86
0
% es.tEz (V/m) @ t=0.86
1.8662292299737526
% V (V) @ t=0.86
0.009205050903696265
% es.normE (V/m) @ t=0.88
1.9868412063656313
% es.EX (V/m) @ t=0.88
0.6132671081355487
% es.EY (V/m) @ t=0.88
0.1485715909009938
% es.EZ (V/m) @ t=0.88
1.8839630095391091
% es.tEX (V/m) @ t=0.88
0.6132671081355525
% es.tEY (V/m) @ t=0.88
0
% es.tEZ (V/m) @ t=0.88
1.8839630095391176
% es.Ex (V/m) @ t=0.88
0.6132671081355487
% es.Ey (V/m) @ t=0.88
0.1485715909009938
% es.Ez (V/m) @ t=0.88
1.8839630095391091
% es.tEx (V/m) @ t=0.88
0.6132671081355525
% es.tEy (V/m) @ t=0.88
0
% es.tEz (V/m) @ t=0.88
1.8839630095391176
% V (V) @ t=0.88
0.009292521437005449
% es.normE (V/m) @ t=0.9
2.005543380896351
% es.EX (V/m) @ t=0.9
0.6190398048140189
% es.EY (V/m) @ t=0.9
0.14997009815740125
% es.EZ (V/m) @ t=0.9
1.9016967891044922
% es.tEX (V/m) @ t=0.9
0.6190398048140224
% es.tEY (V/m) @ t=0.9
0
% es.tEZ (V/m) @ t=0.9
1.9016967891044914
% es.Ex (V/m) @ t=0.9
0.6190398048140189
% es.Ey (V/m) @ t=0.9
0.14997009815740125
% es.Ez (V/m) @ t=0.9
1.9016967891044922
% es.tEx (V/m) @ t=0.9
0.6190398048140224
% es.tEy (V/m) @ t=0.9
0
% es.tEz (V/m) @ t=0.9
1.9016967891044914
% V (V) @ t=0.9
0.009379991970314637
% es.normE (V/m) @ t=0.92
2.024245555427062
% es.EX (V/m) @ t=0.92
0.6248125014924952
% es.EY (V/m) @ t=0.92
0.15136860541380004
% es.EZ (V/m) @ t=0.92
1.9194305686698647
% es.tEX (V/m) @ t=0.92
0.6248125014924995
% es.tEY (V/m) @ t=0.92
0
% es.tEZ (V/m) @ t=0.92
1.9194305686698723
% es.Ex (V/m) @ t=0.92
0.6248125014924952
% es.Ey (V/m) @ t=0.92
0.15136860541380004
% es.Ez (V/m) @ t=0.92
1.9194305686698647
% es.tEx (V/m) @ t=0.92
0.6248125014924995
% es.tEy (V/m) @ t=0.92
0
% es.tEz (V/m) @ t=0.92
1.9194305686698723
% V (V) @ t=0.92
0.009467462503623821
% es.normE (V/m) @ t=0.94
2.042947729957784
% es.EX (V/m) @ t=0.94
0.6305851981709693
% es.EY (V/m) @ t=0.94
0.1527671126702166
% es.EZ (V/m) @ t=0.94
1.9371643482352483
% es.tEX (V/m) @ t=0.94
0.6305851981709694
% es.tEY (V/m) @ t=0.94
0
% es.tEZ (V/m) @ t=0.94
1.9371643482352603
% es.Ex (V/m) @ t=0.94
0.6305851981709693
% es.Ey (V/m) @ t=0.94
0.1527671126702166
% es.Ez (V/m) @ t=0.94
1.9371643482352483
% es.tEx (V/m) @ t=0.94
0.6305851981709694
% es.tEy (V/m) @ t=0.94
0
% es.tEz (V/m) @ t=0.94
1.9371643482352603
% V (V) @ t=0.94
0.009554933036933009
% es.normE (V/m) @ t=0.96
2.0616499044884913
% es.EX (V/m) @ t=0.96
0.636357894849433
% es.EY (V/m) @ t=0.96
0.1541656199266105
% es.EZ (V/m) @ t=0.96
1.9548981278006212
% es.tEX (V/m) @ t=0.96
0.6363578948494322
% es.tEY (V/m) @ t=0.96
0
% es.tEZ (V/m) @ t=0.96
1.9548981278006234
% es.Ex (V/m) @ t=0.96
0.636357894849433
% es.Ey (V/m) @ t=0.96
0.1541656199266105
% es.Ez (V/m) @ t=0.96
1.9548981278006212
% es.tEx (V/m) @ t=0.96
0.6363578948494322
% es.tEy (V/m) @ t=0.96
0
% es.tEz (V/m) @ t=0.96
1.9548981278006234
% V (V) @ t=0.96
0.009642403570242193
% es.normE (V/m) @ t=0.98
2.08035207901922
% es.EX (V/m) @ t=0.98
0.6421305915279166
% es.EY (V/m) @ t=0.98
0.1555641271830447
% es.EZ (V/m) @ t=0.98
1.972631907366008
% es.tEX (V/m) @ t=0.98
0.6421305915279234
% es.tEY (V/m) @ t=0.98
0
% es.tEZ (V/m) @ t=0.98
1.972631907365999
% es.Ex (V/m) @ t=0.98
0.6421305915279166
% es.Ey (V/m) @ t=0.98
0.1555641271830447
% es.Ez (V/m) @ t=0.98
1.972631907366008
% es.tEx (V/m) @ t=0.98
0.6421305915279234
% es.tEy (V/m) @ t=0.98
0
% es.tEz (V/m) @ t=0.98
1.972631907365999
% V (V) @ t=0.98
0.009729874103551379
% es.normE (V/m) @ t=1
2.0990542535499213
% es.EX (V/m) @ t=1
0.6479032882063889
% es.EY (V/m) @ t=1
0.15696263443946634
% es.EZ (V/m) @ t=1
1.9903656869313697
% es.tEX (V/m) @ t=1
0.6479032882063862
% es.tEY (V/m) @ t=1
0
% es.tEZ (V/m) @ t=1
1.9903656869313728
% es.Ex (V/m) @ t=1
0.6479032882063889
% es.Ey (V/m) @ t=1
0.15696263443946634
% es.Ez (V/m) @ t=1
1.9903656869313697
% es.tEx (V/m) @ t=1
0.6479032882063862
% es.tEy (V/m) @ t=1
0
% es.tEz (V/m) @ t=1
1.9903656869313728
% V (V) @ t=1
0.009817344636860566
% es.normE (V/m) @ t=1.02
2.1177564280806447
% es.EX (V/m) @ t=1.02
0.6536759848848634
% es.EY (V/m) @ t=1.02
0.1583611416958638
% es.EZ (V/m) @ t=1.02
2.008099466496756
% es.tEX (V/m) @ t=1.02
0.6536759848848632
% es.tEY (V/m) @ t=1.02
0
% es.tEZ (V/m) @ t=1.02
2.008099466496768
% es.Ex (V/m) @ t=1.02
0.6536759848848634
% es.Ey (V/m) @ t=1.02
0.1583611416958638
% es.Ez (V/m) @ t=1.02
2.008099466496756
% es.tEx (V/m) @ t=1.02
0.6536759848848632
% es.tEy (V/m) @ t=1.02
0
% es.tEz (V/m) @ t=1.02
2.008099466496768
% V (V) @ t=1.02
0.00990481517016975
% es.normE (V/m) @ t=1.04
2.1364586026113503
% es.EX (V/m) @ t=1.04
0.6594486815633368
% es.EY (V/m) @ t=1.04
0.15975964895225392
% es.EZ (V/m) @ t=1.04
2.0258332460621244
% es.tEX (V/m) @ t=1.04
0.6594486815633331
% es.tEY (V/m) @ t=1.04
0
% es.tEZ (V/m) @ t=1.04
2.025833246062126
% es.Ex (V/m) @ t=1.04
0.6594486815633368
% es.Ey (V/m) @ t=1.04
0.15975964895225392
% es.Ez (V/m) @ t=1.04
2.0258332460621244