% Model:              1 neuron.mph
% Version:            COMSOL 6.1.0.252
% Date:               Mar 18 2023, 11:34
% Dimension:          0
% Nodes:              14017
% Expressions:        14017
% Description:        Electric field norm, Electric field, X component, Electric field, Y component, Electric field, Z component, Tangential electric field, X component, Tangential electric field, Y component, Tangential electric field, Z component, Electric field, x component, Electric field, y component, Electric field, z component, Tangential electric field, x component, Tangential electric field, y component, Tangential electric field, z component, Electric potential
% Length unit:        mm
% x
1
% y
12.2
% z
1
% es.normE (V/m) @ t=0
0.801790256071061
% es.EX (V/m) @ t=0
0.5444270268085631
% es.EY (V/m) @ t=0
0.1546239775480931
% es.EZ (V/m) @ t=0
0.5531601132590538
% es.tEX (V/m) @ t=0
0.5444270268085631
% es.tEY (V/m) @ t=0
0
% es.tEZ (V/m) @ t=0
0.5531601132590431
% es.Ex (V/m) @ t=0
0.5444270268085631
% es.Ey (V/m) @ t=0
0.1546239775480931
% es.Ez (V/m) @ t=0
0.5531601132590538
% es.tEx (V/m) @ t=0
0.5444270268085631
% es.tEy (V/m) @ t=0
0
% es.tEz (V/m) @ t=0
0.5531601132590431
% V (V) @ t=0
0.007518612067073122
% es.normE (V/m) @ t=0.02
0.6925134676718285
% es.EX (V/m) @ t=0.02
0.47022652633005
% es.EY (V/m) @ t=0.02
0.1335501273834936
% es.EZ (V/m) @ t=0.02
0.47776937260072305
% es.tEX (V/m) @ t=0.02
0.4702265263300589
% es.tEY (V/m) @ t=0.02
0
% es.tEZ (V/m) @ t=0.02
0.47776937260071506
% es.Ex (V/m) @ t=0.02
0.47022652633005
% es.Ey (V/m) @ t=0.02
0.1335501273834936
% es.Ez (V/m) @ t=0.02
0.47776937260072305
% es.tEx (V/m) @ t=0.02
0.4702265263300589
% es.tEy (V/m) @ t=0.02
0
% es.tEz (V/m) @ t=0.02
0.47776937260071506
% V (V) @ t=0.02
0.006493892842237363
% es.normE (V/m) @ t=0.04
0.6988817170320534
% es.EX (V/m) @ t=0.04
0.47455064980137074
% es.EY (V/m) @ t=0.04
0.13477826142530613
% es.EZ (V/m) @ t=0.04
0.48216286342432557
% es.tEX (V/m) @ t=0.04
0.4745506498013796
% es.tEY (V/m) @ t=0.04
0
% es.tEZ (V/m) @ t=0.04
0.4821628634243176
% es.Ex (V/m) @ t=0.04
0.47455064980137074
% es.Ey (V/m) @ t=0.04
0.13477826142530613
% es.Ez (V/m) @ t=0.04
0.48216286342432557
% es.tEx (V/m) @ t=0.04
0.4745506498013796
% es.tEy (V/m) @ t=0.04
0
% es.tEz (V/m) @ t=0.04
0.4821628634243176
% V (V) @ t=0.04
0.0065536089456100025
% es.normE (V/m) @ t=0.06
0.7053087726639109
% es.EX (V/m) @ t=0.06
0.4789147035293144
% es.EY (V/m) @ t=0.06
0.1360177361241881
% es.EZ (V/m) @ t=0.06
0.4865969251331306
% es.tEX (V/m) @ t=0.06
0.47891470352931265
% es.tEY (V/m) @ t=0.06
0
% es.tEZ (V/m) @ t=0.06
0.4865969251331279
% es.Ex (V/m) @ t=0.06
0.4789147035293144
% es.Ey (V/m) @ t=0.06
0.1360177361241881
% es.Ez (V/m) @ t=0.06
0.4865969251331306
% es.tEx (V/m) @ t=0.06
0.47891470352931265
% es.tEy (V/m) @ t=0.06
0
% es.tEz (V/m) @ t=0.06
0.4865969251331279
% V (V) @ t=0.06
0.006613876492331811
% es.normE (V/m) @ t=0.08
0.7118306055712162
% es.EX (V/m) @ t=0.08
0.48334311322198964
% es.EY (V/m) @ t=0.08
0.13727548579869442
% es.EZ (V/m) @ t=0.08
0.4910963747088788
% es.tEX (V/m) @ t=0.08
0.4833431132219843
% es.tEY (V/m) @ t=0.08
0
% es.tEZ (V/m) @ t=0.08
0.4910963747088708
% es.Ex (V/m) @ t=0.08
0.48334311322198964
% es.Ey (V/m) @ t=0.08
0.13727548579869442
% es.Ez (V/m) @ t=0.08
0.4910963747088788
% es.tEx (V/m) @ t=0.08
0.4833431132219843
% es.tEy (V/m) @ t=0.08
0
% es.tEz (V/m) @ t=0.08
0.4910963747088708
% V (V) @ t=0.08
0.006675032865718987
% es.normE (V/m) @ t=0.1
0.718425145328809
% es.EX (V/m) @ t=0.1
0.48782089254960326
% es.EY (V/m) @ t=0.1
0.13854725482453212
% es.EZ (V/m) @ t=0.1
0.4956459855266546
% es.tEX (V/m) @ t=0.1
0.4878208925495926
% es.tEY (V/m) @ t=0.1
0
% es.tEZ (V/m) @ t=0.1
0.4956459855266431
% es.Ex (V/m) @ t=0.1
0.48782089254960326
% es.Ey (V/m) @ t=0.1
0.13854725482453212
% es.Ez (V/m) @ t=0.1
0.4956459855266546
% es.tEx (V/m) @ t=0.1
0.4878208925495926
% es.tEy (V/m) @ t=0.1
0
% es.tEz (V/m) @ t=0.1
0.4956459855266431
% V (V) @ t=0.1
0.006736871088072522
% es.normE (V/m) @ t=0.12
0.7250196850863809
% es.EX (V/m) @ t=0.12
0.49229867187720977
% es.EY (V/m) @ t=0.12
0.13981902385034495
% es.EZ (V/m) @ t=0.12
0.5001955963444233
% es.tEX (V/m) @ t=0.12
0.4922986718772222
% es.tEY (V/m) @ t=0.12
0
% es.tEZ (V/m) @ t=0.12
0.5001955963444153
% es.Ex (V/m) @ t=0.12
0.49229867187720977
% es.Ey (V/m) @ t=0.12
0.13981902385034495
% es.Ez (V/m) @ t=0.12
0.5001955963444233
% es.tEx (V/m) @ t=0.12
0.4922986718772222
% es.tEy (V/m) @ t=0.12
0
% es.tEz (V/m) @ t=0.12
0.5001955963444153
% V (V) @ t=0.12
0.006798709310426055
% es.normE (V/m) @ t=0.14
0.7316644481880341
% es.EX (V/m) @ t=0.14
0.4968105485186989
% es.EY (V/m) @ t=0.14
0.14110049428592664
% es.EZ (V/m) @ t=0.14
0.5047798540301311
% es.tEX (V/m) @ t=0.14
0.4968105485186953
% es.tEY (V/m) @ t=0.14
0
% es.tEZ (V/m) @ t=0.14
0.5047798540301223
% es.Ex (V/m) @ t=0.14
0.4968105485186989
% es.Ey (V/m) @ t=0.14
0.14110049428592664
% es.Ez (V/m) @ t=0.14
0.5047798540301311
% es.tEx (V/m) @ t=0.14
0.4968105485186953
% es.tEy (V/m) @ t=0.14
0
% es.tEz (V/m) @ t=0.14
0.5047798540301223
% V (V) @ t=0.14
0.006861018050328994
% es.normE (V/m) @ t=0.16
0.7386131530705665
% es.EX (V/m) @ t=0.16
0.5015287753843474
% es.EY (V/m) @ t=0.16
0.14244067574148112
% es.EZ (V/m) @ t=0.16
0.5095737877327426
% es.tEX (V/m) @ t=0.16
0.5015287753843438
% es.tEY (V/m) @ t=0.16
0
% es.tEZ (V/m) @ t=0.16
0.5095737877327338
% es.Ex (V/m) @ t=0.16
0.5015287753843474
% es.Ey (V/m) @ t=0.16
0.14244067574148112
% es.Ez (V/m) @ t=0.16
0.5095737877327426
% es.tEx (V/m) @ t=0.16
0.5015287753843438
% es.tEy (V/m) @ t=0.16
0
% es.tEz (V/m) @ t=0.16
0.5095737877327338
% V (V) @ t=0.16
0.006926174269716428
% es.normE (V/m) @ t=0.18
0.7455618579531335
% es.EX (V/m) @ t=0.18
0.5062470022499745
% es.EY (V/m) @ t=0.18
0.1437808571970116
% es.EZ (V/m) @ t=0.18
0.5143677214353763
% es.tEX (V/m) @ t=0.18
0.506247002249971
% es.tEY (V/m) @ t=0.18
0
% es.tEZ (V/m) @ t=0.18
0.5143677214353666
% es.Ex (V/m) @ t=0.18
0.5062470022499745
% es.Ey (V/m) @ t=0.18
0.1437808571970116
% es.Ez (V/m) @ t=0.18
0.5143677214353763
% es.tEx (V/m) @ t=0.18
0.506247002249971
% es.tEy (V/m) @ t=0.18
0
% es.tEz (V/m) @ t=0.18
0.5143677214353666
% V (V) @ t=0.18
0.006991330489103863
% es.normE (V/m) @ t=0.2
0.7525105628357013
% es.EX (V/m) @ t=0.2
0.5109652291155697
% es.EY (V/m) @ t=0.2
0.14512103865254566
% es.EZ (V/m) @ t=0.2
0.5191616551379807
% es.tEX (V/m) @ t=0.2
0.5109652291155768
% es.tEY (V/m) @ t=0.2
0
% es.tEZ (V/m) @ t=0.2
0.5191616551379781
% es.Ex (V/m) @ t=0.2
0.5109652291155697
% es.Ey (V/m) @ t=0.2
0.14512103865254566
% es.Ez (V/m) @ t=0.2
0.5191616551379807
% es.tEx (V/m) @ t=0.2
0.5109652291155768
% es.tEy (V/m) @ t=0.2
0
% es.tEz (V/m) @ t=0.2
0.5191616551379781
% V (V) @ t=0.2
0.007056486708491296
% es.normE (V/m) @ t=0.22
0.7594592677183671
% es.EX (V/m) @ t=0.22
0.5156834559812182
% es.EY (V/m) @ t=0.22
0.1464612201080957
% es.EZ (V/m) @ t=0.22
0.5239555888406127
% es.tEX (V/m) @ t=0.22
0.515683455981204
% es.tEY (V/m) @ t=0.22
0
% es.tEZ (V/m) @ t=0.22
0.5239555888406073
% es.Ex (V/m) @ t=0.22
0.5156834559812182
% es.Ey (V/m) @ t=0.22
0.1464612201080957
% es.Ez (V/m) @ t=0.22
0.5239555888406127
% es.tEx (V/m) @ t=0.22
0.515683455981204
% es.tEy (V/m) @ t=0.22
0
% es.tEz (V/m) @ t=0.22
0.5239555888406073
% V (V) @ t=0.22
0.007121642927878731
% es.normE (V/m) @ t=0.24
0.7664079726010247
% es.EX (V/m) @ t=0.24
0.5204016828468205
% es.EY (V/m) @ t=0.24
0.14780140156365817
% es.EZ (V/m) @ t=0.24
0.5287495225432259
% es.tEX (V/m) @ t=0.24
0.520401682846817
% es.tEY (V/m) @ t=0.24
0
% es.tEZ (V/m) @ t=0.24
0.5287495225432153
% es.Ex (V/m) @ t=0.24
0.5204016828468205
% es.Ey (V/m) @ t=0.24
0.14780140156365817
% es.Ez (V/m) @ t=0.24
0.5287495225432259
% es.tEx (V/m) @ t=0.24
0.520401682846817
% es.tEy (V/m) @ t=0.24
0
% es.tEz (V/m) @ t=0.24
0.5287495225432153
% V (V) @ t=0.24
0.007186799147266165
% es.normE (V/m) @ t=0.26
0.7733566774837506
% es.EX (V/m) @ t=0.26
0.5251199097124655
% es.EY (V/m) @ t=0.26
0.1491415830191798
% es.EZ (V/m) @ t=0.26
0.5335434562458508
% es.tEX (V/m) @ t=0.26
0.5251199097124584
% es.tEY (V/m) @ t=0.26
0
% es.tEZ (V/m) @ t=0.26
0.533543456245841
% es.Ex (V/m) @ t=0.26
0.5251199097124655
% es.Ey (V/m) @ t=0.26
0.1491415830191798
% es.Ez (V/m) @ t=0.26
0.5335434562458508
% es.tEx (V/m) @ t=0.26
0.5251199097124584
% es.tEy (V/m) @ t=0.26
0
% es.tEz (V/m) @ t=0.26
0.533543456245841
% V (V) @ t=0.26
0.007251955366653601
% es.normE (V/m) @ t=0.28
0.78054016655051
% es.EX (V/m) @ t=0.28
0.5299975907631396
% es.EY (V/m) @ t=0.28
0.15052694323105875
% es.EZ (V/m) @ t=0.28
0.5384993836497971
% es.tEX (V/m) @ t=0.28
0.5299975907631307
% es.tEY (V/m) @ t=0.28
0
% es.tEZ (V/m) @ t=0.28
0.5384993836497927
% es.Ex (V/m) @ t=0.28
0.5299975907631396
% es.Ey (V/m) @ t=0.28
0.15052694323105875
% es.Ez (V/m) @ t=0.28
0.5384993836497971
% es.tEx (V/m) @ t=0.28
0.5299975907631307
% es.tEy (V/m) @ t=0.28
0
% es.tEz (V/m) @ t=0.28
0.5384993836497927
% V (V) @ t=0.28
0.0073193159829034946
% es.normE (V/m) @ t=0.3
0.7882884173683997
% es.EX (V/m) @ t=0.3
0.5352588309753568
% es.EY (V/m) @ t=0.3
0.1520209787084834
% es.EZ (V/m) @ t=0.3
0.5438449788961641
% es.tEX (V/m) @ t=0.3
0.5352588309753514
% es.tEY (V/m) @ t=0.3
0
% es.tEZ (V/m) @ t=0.3
0.5438449788961535
% es.Ex (V/m) @ t=0.3
0.5352588309753568
% es.Ey (V/m) @ t=0.3
0.1520209787084834
% es.Ez (V/m) @ t=0.3
0.5438449788961641
% es.tEx (V/m) @ t=0.3
0.5352588309753514
% es.tEy (V/m) @ t=0.3
0
% es.tEz (V/m) @ t=0.3
0.5438449788961535
% V (V) @ t=0.3
0.007391979166859417
% es.normE (V/m) @ t=0.32
0.7960366681863611
% es.EX (V/m) @ t=0.32
0.5405200711875384
% es.EY (V/m) @ t=0.32
0.15351501418591162
% es.EZ (V/m) @ t=0.32
0.5491905741425258
% es.tEX (V/m) @ t=0.32
0.5405200711875437
% es.tEY (V/m) @ t=0.32
0
% es.tEZ (V/m) @ t=0.32
0.5491905741425214
% es.Ex (V/m) @ t=0.32
0.5405200711875384
% es.Ey (V/m) @ t=0.32
0.15351501418591162
% es.Ez (V/m) @ t=0.32
0.5491905741425258
% es.tEx (V/m) @ t=0.32
0.5405200711875437
% es.tEy (V/m) @ t=0.32
0
% es.tEz (V/m) @ t=0.32
0.5491905741425214
% V (V) @ t=0.32
0.007464642350815337
% es.normE (V/m) @ t=0.34
0.8037849190044346
% es.EX (V/m) @ t=0.34
0.545781311399745
% es.EY (V/m) @ t=0.34
0.15500904966335227
% es.EZ (V/m) @ t=0.34
0.5545361693888884
% es.tEX (V/m) @ t=0.34
0.5457813113997503
% es.tEY (V/m) @ t=0.34
0
% es.tEZ (V/m) @ t=0.34
0.5545361693888751
% es.Ex (V/m) @ t=0.34
0.545781311399745
% es.Ey (V/m) @ t=0.34
0.15500904966335227
% es.Ez (V/m) @ t=0.34
0.5545361693888884
% es.tEx (V/m) @ t=0.34
0.5457813113997503
% es.tEy (V/m) @ t=0.34
0
% es.tEz (V/m) @ t=0.34
0.5545361693888751
% V (V) @ t=0.34
0.007537305534771258
% es.normE (V/m) @ t=0.36
0.8115331698225969
% es.EX (V/m) @ t=0.36
0.5510425516119568
% es.EY (V/m) @ t=0.36
0.15650308514075384
% es.EZ (V/m) @ t=0.36
0.559881764635259
% es.tEX (V/m) @ t=0.36
0.5510425516119426
% es.tEY (V/m) @ t=0.36
0
% es.tEZ (V/m) @ t=0.36
0.5598817646352501
% es.Ex (V/m) @ t=0.36
0.5510425516119568
% es.Ey (V/m) @ t=0.36
0.15650308514075384
% es.Ez (V/m) @ t=0.36
0.559881764635259
% es.tEx (V/m) @ t=0.36
0.5510425516119426
% es.tEy (V/m) @ t=0.36
0
% es.tEz (V/m) @ t=0.36
0.5598817646352501
% V (V) @ t=0.36
0.007609968718727179
% es.normE (V/m) @ t=0.38
0.8192814206408436
% es.EX (V/m) @ t=0.38
0.5563037918241491
% es.EY (V/m) @ t=0.38
0.15799712061819626
% es.EZ (V/m) @ t=0.38
0.5652273598816215
% es.tEX (V/m) @ t=0.38
0.5563037918241491
% es.tEY (V/m) @ t=0.38
0
% es.tEZ (V/m) @ t=0.38
0.5652273598816109
% es.Ex (V/m) @ t=0.38
0.5563037918241491
% es.Ey (V/m) @ t=0.38
0.15799712061819626
% es.Ez (V/m) @ t=0.38
0.5652273598816215
% es.tEx (V/m) @ t=0.38
0.5563037918241491
% es.tEy (V/m) @ t=0.38
0
% es.tEz (V/m) @ t=0.38
0.5652273598816109
% V (V) @ t=0.38
0.007682631902683101
% es.normE (V/m) @ t=0.4
0.8270296714591856
% es.EX (V/m) @ t=0.4
0.5615650320363557
% es.EY (V/m) @ t=0.4
0.15949115609561737
% es.EZ (V/m) @ t=0.4
0.5705729551279992
% es.tEX (V/m) @ t=0.4
0.5615650320363557
% es.tEY (V/m) @ t=0.4
0
% es.tEZ (V/m) @ t=0.4
0.570572955127993
% es.Ex (V/m) @ t=0.4
0.5615650320363557
% es.Ey (V/m) @ t=0.4
0.15949115609561737
% es.Ez (V/m) @ t=0.4
0.5705729551279992
% es.tEx (V/m) @ t=0.4
0.5615650320363557
% es.tEy (V/m) @ t=0.4
0
% es.tEz (V/m) @ t=0.4
0.570572955127993
% V (V) @ t=0.4
0.007755295086639023
% es.normE (V/m) @ t=0.42
0.8347779222776017
% es.EX (V/m) @ t=0.42
0.5668262722485622
% es.EY (V/m) @ t=0.42
0.16098519157302071
% es.EZ (V/m) @ t=0.42
0.5759185503743645
% es.tEX (V/m) @ t=0.42
0.566826272248548
% es.tEY (V/m) @ t=0.42
0
% es.tEZ (V/m) @ t=0.42
0.5759185503743538
% es.Ex (V/m) @ t=0.42
0.5668262722485622
% es.Ey (V/m) @ t=0.42
0.16098519157302071
% es.Ez (V/m) @ t=0.42
0.5759185503743645
% es.tEx (V/m) @ t=0.42
0.566826272248548
% es.tEy (V/m) @ t=0.42
0
% es.tEz (V/m) @ t=0.42
0.5759185503743538
% V (V) @ t=0.42
0.007827958270594945
% es.normE (V/m) @ t=0.44
0.8425261730961082
% es.EX (V/m) @ t=0.44
0.5720875124607829
% es.EY (V/m) @ t=0.44
0.16247922705043116
% es.EZ (V/m) @ t=0.44
0.581264145620735
% es.tEX (V/m) @ t=0.44
0.5720875124607829
% es.tEY (V/m) @ t=0.44
0
% es.tEZ (V/m) @ t=0.44
0.5812641456207288
% es.Ex (V/m) @ t=0.44
0.5720875124607829
% es.Ey (V/m) @ t=0.44
0.16247922705043116
% es.Ez (V/m) @ t=0.44
0.581264145620735
% es.tEx (V/m) @ t=0.44
0.5720875124607829
% es.tEy (V/m) @ t=0.44
0
% es.tEz (V/m) @ t=0.44
0.5812641456207288
% V (V) @ t=0.44
0.007900621454550866
% es.normE (V/m) @ t=0.46
0.8502744239146957
% es.EX (V/m) @ t=0.46
0.577348752672993
% es.EY (V/m) @ t=0.46
0.16397326252787714
% es.EZ (V/m) @ t=0.46
0.5866097408671047
% es.tEX (V/m) @ t=0.46
0.5773487526729895
% es.tEY (V/m) @ t=0.46
0
% es.tEZ (V/m) @ t=0.46
0.5866097408670967
% es.Ex (V/m) @ t=0.46
0.577348752672993
% es.Ey (V/m) @ t=0.46
0.16397326252787714
% es.Ez (V/m) @ t=0.46
0.5866097408671047
% es.tEx (V/m) @ t=0.46
0.5773487526729895
% es.tEy (V/m) @ t=0.46
0
% es.tEz (V/m) @ t=0.46
0.5866097408670967
% V (V) @ t=0.46
0.007973284638506786
% es.normE (V/m) @ t=0.48
0.8580226747333158
% es.EX (V/m) @ t=0.48
0.5826099928851534
% es.EY (V/m) @ t=0.48
0.16546729800533733
% es.EZ (V/m) @ t=0.48
0.5919553361134477
% es.tEX (V/m) @ t=0.48
0.5826099928851534
% es.tEY (V/m) @ t=0.48
0
% es.tEZ (V/m) @ t=0.48
0.5919553361134433
% es.Ex (V/m) @ t=0.48
0.5826099928851534
% es.Ey (V/m) @ t=0.48
0.16546729800533733
% es.Ez (V/m) @ t=0.48
0.5919553361134477
% es.tEx (V/m) @ t=0.48
0.5826099928851534
% es.tEy (V/m) @ t=0.48
0
% es.tEz (V/m) @ t=0.48
0.5919553361134433
% V (V) @ t=0.48
0.008045947822462709
% es.normE (V/m) @ t=0.5
0.8657709255520735
% es.EX (V/m) @ t=0.5
0.5878712330974025
% es.EY (V/m) @ t=0.5
0.1669613334827229
% es.EZ (V/m) @ t=0.5
0.5973009313598299
% es.tEX (V/m) @ t=0.5
0.5878712330973883
% es.tEY (V/m) @ t=0.5
0
% es.tEZ (V/m) @ t=0.5
0.5973009313598183
% es.Ex (V/m) @ t=0.5
0.5878712330974025
% es.Ey (V/m) @ t=0.5
0.1669613334827229
% es.Ez (V/m) @ t=0.5
0.5973009313598299
% es.tEx (V/m) @ t=0.5
0.5878712330973883
% es.tEy (V/m) @ t=0.5
0
% es.tEz (V/m) @ t=0.5
0.5973009313598183
% V (V) @ t=0.5
0.008118611006418629
% es.normE (V/m) @ t=0.52
0.8735191763708667
% es.EX (V/m) @ t=0.52
0.5931324733096055
% es.EY (V/m) @ t=0.52
0.1684553689601529
% es.EZ (V/m) @ t=0.52
0.6026465266061889
% es.tEX (V/m) @ t=0.52
0.5931324733095948
% es.tEY (V/m) @ t=0.52
0
% es.tEZ (V/m) @ t=0.52
0.6026465266061791
% es.Ex (V/m) @ t=0.52
0.5931324733096055
% es.Ey (V/m) @ t=0.52
0.1684553689601529
% es.Ez (V/m) @ t=0.52
0.6026465266061889
% es.tEx (V/m) @ t=0.52
0.5931324733095948
% es.tEy (V/m) @ t=0.52
0
% es.tEz (V/m) @ t=0.52
0.6026465266061791
% V (V) @ t=0.52
0.008191274190374551
% es.normE (V/m) @ t=0.54
0.8812674271897487
% es.EX (V/m) @ t=0.54
0.598393713521812
% es.EY (V/m) @ t=0.54
0.16994940443754736
% es.EZ (V/m) @ t=0.54
0.6079921218525728
% es.tEX (V/m) @ t=0.54
0.5983937135218156
% es.tEY (V/m) @ t=0.54
0
% es.tEZ (V/m) @ t=0.54
0.6079921218525612
% es.Ex (V/m) @ t=0.54
0.598393713521812
% es.Ey (V/m) @ t=0.54
0.16994940443754736
% es.Ez (V/m) @ t=0.54
0.6079921218525728
% es.tEx (V/m) @ t=0.54
0.5983937135218156
% es.tEy (V/m) @ t=0.54
0
% es.tEz (V/m) @ t=0.54
0.6079921218525612
% V (V) @ t=0.54
0.008263937374330474
% es.normE (V/m) @ t=0.56
0.889555870935919
% es.EX (V/m) @ t=0.56
0.6040216915402148
% es.EY (V/m) @ t=0.56
0.17154779568949508
% es.EZ (V/m) @ t=0.56
0.6137103751831212
% es.tEX (V/m) @ t=0.56
0.6040216915402112
% es.tEY (V/m) @ t=0.56
0
% es.tEZ (V/m) @ t=0.56
0.6137103751831141
% es.Ex (V/m) @ t=0.56
0.6040216915402148
% es.Ey (V/m) @ t=0.56
0.17154779568949508
% es.Ez (V/m) @ t=0.56
0.6137103751831212
% es.tEx (V/m) @ t=0.56
0.6040216915402112
% es.tEy (V/m) @ t=0.56
0
% es.tEz (V/m) @ t=0.56
0.6137103751831141
% V (V) @ t=0.56
0.008341661033482948
% es.normE (V/m) @ t=0.58
0.8982084747817135
% es.EX (V/m) @ t=0.58
0.6098968984083832
% es.EY (V/m) @ t=0.58
0.17321653626904698
% es.EZ (V/m) @ t=0.58
0.619679848398639
% es.tEX (V/m) @ t=0.58
0.6098968984083513
% es.tEY (V/m) @ t=0.58
0
% es.tEZ (V/m) @ t=0.58
0.6196798483986363
% es.Ex (V/m) @ t=0.58
0.6098968984083832
% es.Ey (V/m) @ t=0.58
0.17321653626904698
% es.Ez (V/m) @ t=0.58
0.619679848398639
% es.tEx (V/m) @ t=0.58
0.6098968984083513
% es.tEy (V/m) @ t=0.58
0
% es.tEz (V/m) @ t=0.58
0.6196798483986363
% V (V) @ t=0.58
0.008422796109295493
% es.normE (V/m) @ t=0.6
0.9068610786275488
% es.EX (V/m) @ t=0.6
0.6157721052765375
% es.EY (V/m) @ t=0.6
0.1748852768485918
% es.EZ (V/m) @ t=0.6
0.6256493216141852
% es.tEX (V/m) @ t=0.6
0.6157721052765339
% es.tEY (V/m) @ t=0.6
0
% es.tEZ (V/m) @ t=0.6
0.6256493216141763
% es.Ex (V/m) @ t=0.6
0.6157721052765375
% es.Ey (V/m) @ t=0.6
0.1748852768485918
% es.Ez (V/m) @ t=0.6
0.6256493216141852
% es.tEx (V/m) @ t=0.6
0.6157721052765339
% es.tEy (V/m) @ t=0.6
0
% es.tEz (V/m) @ t=0.6
0.6256493216141763
% V (V) @ t=0.6
0.00850393118510804
% es.normE (V/m) @ t=0.62
0.9155136824734078
% es.EX (V/m) @ t=0.62
0.6216473121446917
% es.EY (V/m) @ t=0.62
0.17655401742816146
% es.EZ (V/m) @ t=0.62
0.6316187948297314
% es.tEX (V/m) @ t=0.62
0.6216473121446882
% es.tEY (V/m) @ t=0.62
0
% es.tEZ (V/m) @ t=0.62
0.6316187948297163
% es.Ex (V/m) @ t=0.62
0.6216473121446917
% es.Ey (V/m) @ t=0.62
0.17655401742816146
% es.Ez (V/m) @ t=0.62
0.6316187948297314
% es.tEx (V/m) @ t=0.62
0.6216473121446882
% es.tEy (V/m) @ t=0.62
0
% es.tEz (V/m) @ t=0.62
0.6316187948297163
% V (V) @ t=0.62
0.008585066260920586
% es.normE (V/m) @ t=0.64
0.9241662863192985
% es.EX (V/m) @ t=0.64
0.6275225190128566
% es.EY (V/m) @ t=0.64
0.17822275800770804
% es.EZ (V/m) @ t=0.64
0.6375882680452856
% es.tEX (V/m) @ t=0.64
0.6275225190128282
% es.tEY (V/m) @ t=0.64
0
% es.tEZ (V/m) @ t=0.64
0.6375882680452705
% es.Ex (V/m) @ t=0.64
0.6275225190128566
% es.Ey (V/m) @ t=0.64
0.17822275800770804
% es.Ez (V/m) @ t=0.64
0.6375882680452856
% es.tEx (V/m) @ t=0.64
0.6275225190128282
% es.tEy (V/m) @ t=0.64
0
% es.tEz (V/m) @ t=0.64
0.6375882680452705
% V (V) @ t=0.64
0.008666201336733131
% es.normE (V/m) @ t=0.66
0.932818890165187
% es.EX (V/m) @ t=0.66
0.6333977258810002
% es.EY (V/m) @ t=0.66
0.17989149858726883
% es.EZ (V/m) @ t=0.66
0.6435577412608184
% es.tEX (V/m) @ t=0.66
0.6333977258809966
% es.tEY (V/m) @ t=0.66
0
% es.tEZ (V/m) @ t=0.66
0.6435577412607998
% es.Ex (V/m) @ t=0.66
0.6333977258810002
% es.Ey (V/m) @ t=0.66
0.17989149858726883
% es.Ez (V/m) @ t=0.66
0.6435577412608184
% es.tEx (V/m) @ t=0.66
0.6333977258809966
% es.tEy (V/m) @ t=0.66
0
% es.tEz (V/m) @ t=0.66
0.6435577412607998
% V (V) @ t=0.66
0.008747336412545676
% es.normE (V/m) @ t=0.68
0.9414714940111275
% es.EX (V/m) @ t=0.68
0.6392729327491793
% es.EY (V/m) @ t=0.68
0.18156023916681185
% es.EZ (V/m) @ t=0.68
0.6495272144763673
% es.tEX (V/m) @ t=0.68
0.6392729327491793
% es.tEY (V/m) @ t=0.68
0
% es.tEZ (V/m) @ t=0.68
0.6495272144763646
% es.Ex (V/m) @ t=0.68
0.6392729327491793
% es.Ey (V/m) @ t=0.68
0.18156023916681185
% es.Ez (V/m) @ t=0.68
0.6495272144763673
% es.tEx (V/m) @ t=0.68
0.6392729327491793
% es.tEy (V/m) @ t=0.68
0
% es.tEz (V/m) @ t=0.68
0.6495272144763646
% V (V) @ t=0.68
0.008828471488358223
% es.normE (V/m) @ t=0.7
0.950124097857063
% es.EX (V/m) @ t=0.7
0.6451481396173335
% es.EY (V/m) @ t=0.7
0.1832289797463762
% es.EZ (V/m) @ t=0.7
0.6554966876918931
% es.tEX (V/m) @ t=0.7
0.6451481396173051
% es.tEY (V/m) @ t=0.7
0
% es.tEZ (V/m) @ t=0.7
0.6554966876918868
% es.Ex (V/m) @ t=0.7
0.6451481396173335
% es.Ey (V/m) @ t=0.7
0.1832289797463762
% es.Ez (V/m) @ t=0.7
0.6554966876918931
% es.tEx (V/m) @ t=0.7
0.6451481396173051
% es.tEy (V/m) @ t=0.7
0
% es.tEz (V/m) @ t=0.7
0.6554966876918868
% V (V) @ t=0.7
0.008909606564170768
% es.normE (V/m) @ t=0.72
0.958776701703008
% es.EX (V/m) @ t=0.72
0.6510233464854593
% es.EY (V/m) @ t=0.72
0.18489772032592278
% es.EZ (V/m) @ t=0.72
0.6614661609074384
% es.tEX (V/m) @ t=0.72
0.6510233464854593
% es.tEY (V/m) @ t=0.72
0
% es.tEZ (V/m) @ t=0.72
0.6614661609074233
% es.Ex (V/m) @ t=0.72
0.6510233464854593
% es.Ey (V/m) @ t=0.72
0.18489772032592278
% es.Ez (V/m) @ t=0.72
0.6614661609074384
% es.tEx (V/m) @ t=0.72
0.6510233464854593
% es.tEy (V/m) @ t=0.72
0
% es.tEz (V/m) @ t=0.72
0.6614661609074233
% V (V) @ t=0.72
0.008990741639983315
% es.normE (V/m) @ t=0.74
0.9674293055490166
% es.EX (V/m) @ t=0.74
0.6568985533536384
% es.EY (V/m) @ t=0.74
0.18656646090547646
% es.EZ (V/m) @ t=0.74
0.6674356341229881
% es.tEX (V/m) @ t=0.74
0.656898553353642
% es.tEY (V/m) @ t=0.74
0
% es.tEZ (V/m) @ t=0.74
0.6674356341229668
% es.Ex (V/m) @ t=0.74
0.6568985533536384
% es.Ey (V/m) @ t=0.74
0.18656646090547646
% es.Ez (V/m) @ t=0.74
0.6674356341229881
% es.tEx (V/m) @ t=0.74
0.656898553353642
% es.tEy (V/m) @ t=0.74
0
% es.tEz (V/m) @ t=0.74
0.6674356341229668
% V (V) @ t=0.74
0.00907187671579586
% es.normE (V/m) @ t=0.76
0.9760819093950128
% es.EX (V/m) @ t=0.76
0.6627737602217678
% es.EY (V/m) @ t=0.76
0.1882352014850568
% es.EZ (V/m) @ t=0.76
0.6734051073385379
% es.tEX (V/m) @ t=0.76
0.6627737602217536
% es.tEY (V/m) @ t=0.76
0
% es.tEZ (V/m) @ t=0.76
0.6734051073385316
% es.Ex (V/m) @ t=0.76
0.6627737602217678
% es.Ey (V/m) @ t=0.76
0.1882352014850568
% es.Ez (V/m) @ t=0.76
0.6734051073385379
% es.tEx (V/m) @ t=0.76
0.6627737602217536
% es.tEy (V/m) @ t=0.76
0
% es.tEz (V/m) @ t=0.76
0.6734051073385316
% V (V) @ t=0.76
0.009153011791608406
% es.normE (V/m) @ t=0.78
0.9847345132410343
% es.EX (V/m) @ t=0.78
0.668648967089922
% es.EY (V/m) @ t=0.78
0.18990394206461936
% es.EZ (V/m) @ t=0.78
0.6793745805540663
% es.tEX (V/m) @ t=0.78
0.668648967089922
% es.tEY (V/m) @ t=0.78
0
% es.tEZ (V/m) @ t=0.78
0.679374580554061
% es.Ex (V/m) @ t=0.78
0.668648967089922
% es.Ey (V/m) @ t=0.78
0.18990394206461936
% es.Ez (V/m) @ t=0.78
0.6793745805540663
% es.tEx (V/m) @ t=0.78
0.668648967089922
% es.tEy (V/m) @ t=0.78
0
% es.tEz (V/m) @ t=0.78
0.679374580554061
% V (V) @ t=0.78
0.00923414686742095
% es.normE (V/m) @ t=0.8
0.9933871170870712
% es.EX (V/m) @ t=0.8
0.6745241739580727
% es.EY (V/m) @ t=0.8
0.1915726826441606
% es.EZ (V/m) @ t=0.8
0.685344053769608
% es.tEX (V/m) @ t=0.8
0.6745241739580763
% es.tEY (V/m) @ t=0.8
0
% es.tEZ (V/m) @ t=0.8
0.6853440537695974
% es.Ex (V/m) @ t=0.8
0.6745241739580727
% es.Ey (V/m) @ t=0.8
0.1915726826441606
% es.Ez (V/m) @ t=0.8
0.685344053769608
% es.tEx (V/m) @ t=0.8
0.6745241739580763
% es.tEy (V/m) @ t=0.8
0
% es.tEz (V/m) @ t=0.8
0.6853440537695974
% V (V) @ t=0.8
0.009315281943233496
% es.normE (V/m) @ t=0.82
1.0020397209331533
% es.EX (V/m) @ t=0.82
0.6803993808262732
% es.EY (V/m) @ t=0.82
0.19324142322369475
% es.EZ (V/m) @ t=0.82
0.6913135269851454
% es.tEX (V/m) @ t=0.82
0.6803993808262447
% es.tEY (V/m) @ t=0.82
0
% es.tEZ (V/m) @ t=0.82
0.6913135269851338
% es.Ex (V/m) @ t=0.82
0.6803993808262732
% es.Ey (V/m) @ t=0.82
0.19324142322369475
% es.Ez (V/m) @ t=0.82
0.6913135269851454
% es.tEx (V/m) @ t=0.82
0.6803993808262447
% es.tEy (V/m) @ t=0.82
0
% es.tEz (V/m) @ t=0.82
0.6913135269851338
% V (V) @ t=0.82
0.009396417019046043
% es.normE (V/m) @ t=0.84
1.0116212626090588
% es.EX (V/m) @ t=0.84
0.6869054875350145
% es.EY (V/m) @ t=0.84
0.1950888754088016
% es.EZ (V/m) @ t=0.84
0.6979239484611597
% es.tEX (V/m) @ t=0.84
0.6869054875350287
% es.tEY (V/m) @ t=0.84
0
% es.tEZ (V/m) @ t=0.84
0.6979239484611526
% es.Ex (V/m) @ t=0.84
0.6869054875350145
% es.Ey (V/m) @ t=0.84
0.1950888754088016
% es.Ez (V/m) @ t=0.84
0.6979239484611597
% es.tEx (V/m) @ t=0.84
0.6869054875350287
% es.tEy (V/m) @ t=0.84
0
% es.tEz (V/m) @ t=0.84
0.6979239484611526
% V (V) @ t=0.84
0.009486274998184854
% es.normE (V/m) @ t=0.86
1.0213048698401068
% es.EX (V/m) @ t=0.86
0.6934809133523743
% es.EY (V/m) @ t=0.86
0.19695596324509346
% es.EZ (V/m) @ t=0.86
0.7046047930998025
% es.tEX (V/m) @ t=0.86
0.6934809133523743
% es.tEY (V/m) @ t=0.86
0
% es.tEZ (V/m) @ t=0.86
0.7046047930997901
% es.Ex (V/m) @ t=0.86
0.6934809133523743
% es.Ey (V/m) @ t=0.86
0.19695596324509346
% es.Ez (V/m) @ t=0.86
0.7046047930998025
% es.tEx (V/m) @ t=0.86
0.6934809133523743
% es.tEy (V/m) @ t=0.86
0
% es.tEz (V/m) @ t=0.86
0.7046047930997901
% V (V) @ t=0.86
0.009577091392343076
% es.normE (V/m) @ t=0.88
1.0309884770713724
% es.EX (V/m) @ t=0.88
0.7000563391697483
% es.EY (V/m) @ t=0.88
0.19882305108135334
% es.EZ (V/m) @ t=0.88
0.711285637738432
% es.tEX (V/m) @ t=0.88
0.7000563391697341
% es.tEY (V/m) @ t=0.88
0
% es.tEZ (V/m) @ t=0.88
0.7112856377384205
% es.Ex (V/m) @ t=0.88
0.7000563391697483
% es.Ey (V/m) @ t=0.88
0.19882305108135334
% es.Ez (V/m) @ t=0.88
0.711285637738432
% es.tEx (V/m) @ t=0.88
0.7000563391697341
% es.tEy (V/m) @ t=0.88
0
% es.tEz (V/m) @ t=0.88
0.7112856377384205
% V (V) @ t=0.88
0.009667907786501298
% es.normE (V/m) @ t=0.9
1.0406720843028991
% es.EX (V/m) @ t=0.9
0.7066317649871543
% es.EY (V/m) @ t=0.9
0.200690138917631
% es.EZ (V/m) @ t=0.9
0.7179664823770642
% es.tEX (V/m) @ t=0.9
0.7066317649871223
% es.tEY (V/m) @ t=0.9
0
% es.tEZ (V/m) @ t=0.9
0.7179664823770509
% es.Ex (V/m) @ t=0.9
0.7066317649871543
% es.Ey (V/m) @ t=0.9
0.200690138917631
% es.Ez (V/m) @ t=0.9
0.7179664823770642
% es.tEx (V/m) @ t=0.9
0.7066317649871223
% es.tEy (V/m) @ t=0.9
0
% es.tEz (V/m) @ t=0.9
0.7179664823770509
% V (V) @ t=0.9
0.009758724180659518
% es.normE (V/m) @ t=0.92
1.0503556915345893
% es.EX (V/m) @ t=0.92
0.7132071908044857
% es.EY (V/m) @ t=0.92
0.20255722675392462
% es.EZ (V/m) @ t=0.92
0.7246473270156875
% es.tEX (V/m) @ t=0.92
0.7132071908044679
% es.tEY (V/m) @ t=0.92
0
% es.tEZ (V/m) @ t=0.92
0.7246473270156741
% es.Ex (V/m) @ t=0.92
0.7132071908044857
% es.Ey (V/m) @ t=0.92
0.20255722675392462
% es.Ez (V/m) @ t=0.92
0.7246473270156875
% es.tEx (V/m) @ t=0.92
0.7132071908044679
% es.tEy (V/m) @ t=0.92
0
% es.tEz (V/m) @ t=0.92
0.7246473270156741
% V (V) @ t=0.92
0.009849540574817739
% es.normE (V/m) @ t=0.94
1.0600392987665441
% es.EX (V/m) @ t=0.94
0.7197826166218988
% es.EY (V/m) @ t=0.94
0.2044243145901774
% es.EZ (V/m) @ t=0.94
0.7313281716543276
% es.tEX (V/m) @ t=0.94
0.7197826166218846
% es.tEY (V/m) @ t=0.94
0
% es.tEZ (V/m) @ t=0.94
0.7313281716543258
% es.Ex (V/m) @ t=0.94
0.7197826166218988
% es.Ey (V/m) @ t=0.94
0.2044243145901774
% es.Ez (V/m) @ t=0.94
0.7313281716543276
% es.tEx (V/m) @ t=0.94
0.7197826166218846
% es.tEy (V/m) @ t=0.94
0
% es.tEz (V/m) @ t=0.94
0.7313281716543258
% V (V) @ t=0.94
0.00994035696897596
% es.normE (V/m) @ t=0.96
1.0697229059986797
% es.EX (V/m) @ t=0.96
0.7263580424392622
% es.EY (V/m) @ t=0.96
0.20629140242644617
% es.EZ (V/m) @ t=0.96
0.7380090162929607
% es.tEX (V/m) @ t=0.96
0.7263580424392302
% es.tEY (V/m) @ t=0.96
0
% es.tEZ (V/m) @ t=0.96
0.7380090162929562
% es.Ex (V/m) @ t=0.96
0.7263580424392622
% es.Ey (V/m) @ t=0.96
0.20629140242644617
% es.Ez (V/m) @ t=0.96
0.7380090162929607
% es.tEx (V/m) @ t=0.96
0.7263580424392302
% es.tEy (V/m) @ t=0.96
0
% es.tEz (V/m) @ t=0.96
0.7380090162929562
% V (V) @ t=0.96
0.01003117336313418
% es.normE (V/m) @ t=0.98
1.0794065132310193
% es.EX (V/m) @ t=0.98
0.7329334682566184
% es.EY (V/m) @ t=0.98
0.20815849026273092
% es.EZ (V/m) @ t=0.98
0.7446898609315964
% es.tEX (V/m) @ t=0.98
0.7329334682566042
% es.tEY (V/m) @ t=0.98
0
% es.tEZ (V/m) @ t=0.98
0.7446898609315937
% es.Ex (V/m) @ t=0.98
0.7329334682566184
% es.Ey (V/m) @ t=0.98
0.20815849026273092
% es.Ez (V/m) @ t=0.98
0.7446898609315964
% es.tEx (V/m) @ t=0.98
0.7329334682566042
% es.tEy (V/m) @ t=0.98
0
% es.tEz (V/m) @ t=0.98
0.7446898609315937
% V (V) @ t=0.98
0.0101219897572924
% es.normE (V/m) @ t=1
1.0890901204635535
% es.EX (V/m) @ t=1
0.7395088940739889
% es.EY (V/m) @ t=1
0.2100255780989677
% es.EZ (V/m) @ t=1
0.7513707055702366
% es.tEX (V/m) @ t=1
0.7395088940739782
% es.tEY (V/m) @ t=1
0
% es.tEZ (V/m) @ t=1
0.7513707055702312
% es.Ex (V/m) @ t=1
0.7395088940739889
% es.Ey (V/m) @ t=1
0.2100255780989677
% es.Ez (V/m) @ t=1
0.7513707055702366
% es.tEx (V/m) @ t=1
0.7395088940739782
% es.tEy (V/m) @ t=1
0
% es.tEz (V/m) @ t=1
0.7513707055702312
% V (V) @ t=1
0.01021280615145062
% es.normE (V/m) @ t=1.02
1.0987737276963117
% es.EX (V/m) @ t=1.02
0.7460843198913913
% es.EY (V/m) @ t=1.02
0.21189266593527378
% es.EZ (V/m) @ t=1.02
0.7580515502088616
% es.tEX (V/m) @ t=1.02
0.7460843198913807
% es.tEY (V/m) @ t=1.02
0
% es.tEZ (V/m) @ t=1.02
0.7580515502088474
% es.Ex (V/m) @ t=1.02
0.7460843198913913
% es.Ey (V/m) @ t=1.02
0.21189266593527378
% es.Ez (V/m) @ t=1.02
0.7580515502088616
% es.tEx (V/m) @ t=1.02
0.7460843198913807
% es.tEy (V/m) @ t=1.02
0
% es.tEz (V/m) @ t=1.02
0.7580515502088474
% V (V) @ t=1.02
0.010303622545608843
% es.normE (V/m) @ t=1.04
1.1084573349292262
% es.EX (V/m) @ t=1.04
0.7526597457087583
% es.EY (V/m) @ t=1.04
0.21375975377152123
% es.EZ (V/m) @ t=1.04
0.7647323948475
% es.tEX (V/m) @ t=1.04
0.7526597457087547
% es.tEY (V/m) @ t=1.04
0
% es.tEZ (V/m) @ t=1.04
0.764732394847492
% es.Ex (V/m) @ t=1.04
0.7526597457087583
% es.Ey (V/m) @ t=1.04
0.21375975377152123
% es.Ez (V/m) @ t=1.04