% Model:              1 neuron.mph
% Version:            COMSOL 6.0.0.405
% Date:               Mar 9 2023, 13:35
% Dimension:          0
% Nodes:              14017
% Expressions:        14017
% Description:        Electric field norm, Electric field, X component, Electric field, Y component, Electric field, Z component, Tangential electric field, X component, Tangential electric field, Y component, Tangential electric field, Z component, Electric field, x component, Electric field, y component, Electric field, z component, Tangential electric field, x component, Tangential electric field, y component, Tangential electric field, z component, Electric potential
% Length unit:        mm
% x
1.33
% y
12.2
% z
1.33
% es.normE (V/m) @ t=0
7.748646952109391
% es.EX (V/m) @ t=0
6.004303853777643
% es.EY (V/m) @ t=0
-0.9200366312083537
% es.EZ (V/m) @ t=0
4.796786933618832
% es.tEX (V/m) @ t=0
6.004303853777666
% es.tEY (V/m) @ t=0
0
% es.tEZ (V/m) @ t=0
4.796786933618829
% es.Ex (V/m) @ t=0
6.004303853777643
% es.Ey (V/m) @ t=0
-0.9200366312083537
% es.Ez (V/m) @ t=0
4.796786933618832
% es.tEx (V/m) @ t=0
6.004303853777666
% es.tEy (V/m) @ t=0
0
% es.tEz (V/m) @ t=0
4.796786933618829
% V (V) @ t=0
0.0063990854918064815
% es.normE (V/m) @ t=0.02
6.692647306979569
% es.EX (V/m) @ t=0.02
5.186026456635194
% es.EY (V/m) @ t=0.02
-0.7946523144504036
% es.EZ (V/m) @ t=0.02
4.143072120777081
% es.tEX (V/m) @ t=0.02
5.186026456635218
% es.tEY (V/m) @ t=0.02
0
% es.tEZ (V/m) @ t=0.02
4.143072120777074
% es.Ex (V/m) @ t=0.02
5.186026456635194
% es.Ey (V/m) @ t=0.02
-0.7946523144504036
% es.Ez (V/m) @ t=0.02
4.143072120777081
% es.tEx (V/m) @ t=0.02
5.186026456635218
% es.tEy (V/m) @ t=0.02
0
% es.tEz (V/m) @ t=0.02
4.143072120777074
% V (V) @ t=0.02
0.005527006413244775
% es.normE (V/m) @ t=0.04
6.7541932279817605
% es.EX (V/m) @ t=0.04
5.233717484749117
% es.EY (V/m) @ t=0.04
-0.8019595952516552
% es.EZ (V/m) @ t=0.04
4.181172026239582
% es.tEX (V/m) @ t=0.04
5.23371748474912
% es.tEY (V/m) @ t=0.04
0
% es.tEZ (V/m) @ t=0.04
4.1811720262395795
% es.Ex (V/m) @ t=0.04
5.233717484749117
% es.Ey (V/m) @ t=0.04
-0.8019595952516552
% es.Ez (V/m) @ t=0.04
4.181172026239582
% es.tEx (V/m) @ t=0.04
5.23371748474912
% es.tEy (V/m) @ t=0.04
0
% es.tEz (V/m) @ t=0.04
4.1811720262395795
% V (V) @ t=0.04
0.005577832287222834
% es.normE (V/m) @ t=0.06
6.816328035802955
% es.EX (V/m) @ t=0.06
5.281864872300561
% es.EY (V/m) @ t=0.06
-0.8093365699872059
% es.EZ (V/m) @ t=0.06
4.219636485007492
% es.tEX (V/m) @ t=0.06
5.281864872300562
% es.tEY (V/m) @ t=0.06
0
% es.tEZ (V/m) @ t=0.06
4.219636485007489
% es.Ex (V/m) @ t=0.06
5.281864872300561
% es.Ey (V/m) @ t=0.06
-0.8093365699872059
% es.Ez (V/m) @ t=0.06
4.219636485007492
% es.tEx (V/m) @ t=0.06
5.281864872300562
% es.tEy (V/m) @ t=0.06
0
% es.tEz (V/m) @ t=0.06
4.219636485007489
% V (V) @ t=0.06
0.005629144032956058
% es.normE (V/m) @ t=0.08
6.879330229737198
% es.EX (V/m) @ t=0.08
5.330684276136591
% es.EY (V/m) @ t=0.08
-0.8168171363750698
% es.EZ (V/m) @ t=0.08
4.258637888110514
% es.tEX (V/m) @ t=0.08
5.3306842761366084
% es.tEY (V/m) @ t=0.08
0
% es.tEZ (V/m) @ t=0.08
4.258637888110514
% es.Ex (V/m) @ t=0.08
5.330684276136591
% es.Ey (V/m) @ t=0.08
-0.8168171363750698
% es.Ez (V/m) @ t=0.08
4.258637888110514
% es.tEx (V/m) @ t=0.08
5.3306842761366084
% es.tEy (V/m) @ t=0.08
0
% es.tEz (V/m) @ t=0.08
4.258637888110514
% V (V) @ t=0.08
0.00568117328526695
% es.normE (V/m) @ t=0.1
6.943105036273709
% es.EX (V/m) @ t=0.1
5.38010226950803
% es.EY (V/m) @ t=0.1
-0.8243899756444506
% es.EZ (V/m) @ t=0.1
4.2981175672128344
% es.tEX (V/m) @ t=0.1
5.380102269508053
% es.tEY (V/m) @ t=0.1
0
% es.tEZ (V/m) @ t=0.1
4.298117567212834
% es.Ex (V/m) @ t=0.1
5.38010226950803
% es.Ey (V/m) @ t=0.1
-0.8243899756444506
% es.Ez (V/m) @ t=0.1
4.2981175672128344
% es.tEx (V/m) @ t=0.1
5.380102269508053
% es.tEy (V/m) @ t=0.1
0
% es.tEz (V/m) @ t=0.1
4.298117567212834
% V (V) @ t=0.1
0.005733841646984469
% es.normE (V/m) @ t=0.12
7.006879842810257
% es.EX (V/m) @ t=0.12
5.429520262879449
% es.EY (V/m) @ t=0.12
-0.8319628149138003
% es.EZ (V/m) @ t=0.12
4.337597246315149
% es.tEX (V/m) @ t=0.12
5.429520262879455
% es.tEY (V/m) @ t=0.12
0
% es.tEZ (V/m) @ t=0.12
4.337597246315145
% es.Ex (V/m) @ t=0.12
5.429520262879449
% es.Ey (V/m) @ t=0.12
-0.8319628149138003
% es.Ez (V/m) @ t=0.12
4.337597246315149
% es.tEx (V/m) @ t=0.12
5.429520262879455
% es.tEy (V/m) @ t=0.12
0
% es.tEz (V/m) @ t=0.12
4.337597246315145
% V (V) @ t=0.12
0.005786510008701987
% es.normE (V/m) @ t=0.14
7.07088978314183
% es.EX (V/m) @ t=0.14
5.479120488611911
% es.EY (V/m) @ t=0.14
-0.8395634000822723
% es.EZ (V/m) @ t=0.14
4.377222487250613
% es.tEX (V/m) @ t=0.14
5.479120488611924
% es.tEY (V/m) @ t=0.14
0
% es.tEZ (V/m) @ t=0.14
4.377222487250611
% es.Ex (V/m) @ t=0.14
5.479120488611911
% es.Ey (V/m) @ t=0.14
-0.8395634000822723
% es.Ez (V/m) @ t=0.14
4.377222487250613
% es.tEx (V/m) @ t=0.14
5.479120488611924
% es.tEy (V/m) @ t=0.14
0
% es.tEz (V/m) @ t=0.14
4.377222487250611
% V (V) @ t=0.14
0.005839372210302675
% es.normE (V/m) @ t=0.16
7.138126088408811
% es.EX (V/m) @ t=0.16
5.531221197525821
% es.EY (V/m) @ t=0.16
-0.8475446978402328
% es.EZ (V/m) @ t=0.16
4.4188450403732435
% es.tEX (V/m) @ t=0.16
5.5312211975258325
% es.tEY (V/m) @ t=0.16
0
% es.tEZ (V/m) @ t=0.16
4.418845040373242
% es.Ex (V/m) @ t=0.16
5.531221197525821
% es.Ey (V/m) @ t=0.16
-0.8475446978402328
% es.Ez (V/m) @ t=0.16
4.4188450403732435
% es.tEx (V/m) @ t=0.16
5.5312211975258325
% es.tEy (V/m) @ t=0.16
0
% es.tEz (V/m) @ t=0.16
4.418845040373242
% V (V) @ t=0.16
0.005894894166542686
% es.normE (V/m) @ t=0.18
7.205362393676593
% es.EX (V/m) @ t=0.18
5.583321906439742
% es.EY (V/m) @ t=0.18
-0.8555259955981942
% es.EZ (V/m) @ t=0.18
4.460467593495879
% es.tEX (V/m) @ t=0.18
5.583321906439769
% es.tEY (V/m) @ t=0.18
0
% es.tEZ (V/m) @ t=0.18
4.460467593495878
% es.Ex (V/m) @ t=0.18
5.583321906439742
% es.Ey (V/m) @ t=0.18
-0.8555259955981942
% es.Ez (V/m) @ t=0.18
4.460467593495879
% es.tEx (V/m) @ t=0.18
5.583321906439769
% es.tEy (V/m) @ t=0.18
0
% es.tEz (V/m) @ t=0.18
4.460467593495878
% V (V) @ t=0.18
0.005950416122782697
% es.normE (V/m) @ t=0.2
7.272598698945136
% es.EX (V/m) @ t=0.2
5.635422615353651
% es.EY (V/m) @ t=0.2
-0.863507293356121
% es.EZ (V/m) @ t=0.2
4.502090146618526
% es.tEX (V/m) @ t=0.2
5.635422615353662
% es.tEY (V/m) @ t=0.2
0
% es.tEZ (V/m) @ t=0.2
4.502090146618523
% es.Ex (V/m) @ t=0.2
5.635422615353651
% es.Ey (V/m) @ t=0.2
-0.863507293356121
% es.Ez (V/m) @ t=0.2
4.502090146618526
% es.tEx (V/m) @ t=0.2
5.635422615353662
% es.tEy (V/m) @ t=0.2
0
% es.tEz (V/m) @ t=0.2
4.502090146618523
% V (V) @ t=0.2
0.006005938079022709
% es.normE (V/m) @ t=0.22
7.339835004214428
% es.EX (V/m) @ t=0.22
5.687523324267575
% es.EY (V/m) @ t=0.22
-0.8714885911140478
% es.EZ (V/m) @ t=0.22
4.5437126997411585
% es.tEX (V/m) @ t=0.22
5.687523324267599
% es.tEY (V/m) @ t=0.22
0
% es.tEZ (V/m) @ t=0.22
4.5437126997411585
% es.Ex (V/m) @ t=0.22
5.687523324267575
% es.Ey (V/m) @ t=0.22
-0.8714885911140478
% es.Ez (V/m) @ t=0.22
4.5437126997411585
% es.tEx (V/m) @ t=0.22
5.687523324267599
% es.tEy (V/m) @ t=0.22
0
% es.tEz (V/m) @ t=0.22
4.5437126997411585
% V (V) @ t=0.22
0.006061460035262721
% es.normE (V/m) @ t=0.24
7.407071309484439
% es.EX (V/m) @ t=0.24
5.739624033181482
% es.EY (V/m) @ t=0.24
-0.8794698888720216
% es.EZ (V/m) @ t=0.24
4.585335252863798
% es.tEX (V/m) @ t=0.24
5.739624033181507
% es.tEY (V/m) @ t=0.24
0
% es.tEZ (V/m) @ t=0.24
4.585335252863795
% es.Ex (V/m) @ t=0.24
5.739624033181482
% es.Ey (V/m) @ t=0.24
-0.8794698888720216
% es.Ez (V/m) @ t=0.24
4.585335252863798
% es.tEx (V/m) @ t=0.24
5.739624033181507
% es.tEy (V/m) @ t=0.24
0
% es.tEz (V/m) @ t=0.24
4.585335252863795
% V (V) @ t=0.24
0.006116981991502733
% es.normE (V/m) @ t=0.26
7.474307614755162
% es.EX (V/m) @ t=0.26
5.791724742095409
% es.EY (V/m) @ t=0.26
-0.887451186629959
% es.EZ (V/m) @ t=0.26
4.626957805986424
% es.tEX (V/m) @ t=0.26
5.791724742095429
% es.tEY (V/m) @ t=0.26
0
% es.tEZ (V/m) @ t=0.26
4.626957805986426
% es.Ex (V/m) @ t=0.26
5.791724742095409
% es.Ey (V/m) @ t=0.26
-0.887451186629959
% es.Ez (V/m) @ t=0.26
4.626957805986424
% es.tEx (V/m) @ t=0.26
5.791724742095429
% es.tEy (V/m) @ t=0.26
0
% es.tEz (V/m) @ t=0.26
4.626957805986426
% V (V) @ t=0.26
0.006172503947742743
% es.normE (V/m) @ t=0.28
7.542694177346837
% es.EX (V/m) @ t=0.28
5.8447161412125945
% es.EY (V/m) @ t=0.28
-0.895572549624152
% es.EZ (V/m) @ t=0.28
4.669292372407195
% es.tEX (V/m) @ t=0.28
5.8447161412126105
% es.tEY (V/m) @ t=0.28
0
% es.tEZ (V/m) @ t=0.28
4.669292372407199
% es.Ex (V/m) @ t=0.28
5.8447161412125945
% es.Ey (V/m) @ t=0.28
-0.895572549624152
% es.Ez (V/m) @ t=0.28
4.669292372407195
% es.tEx (V/m) @ t=0.28
5.8447161412126105
% es.tEy (V/m) @ t=0.28
0
% es.tEz (V/m) @ t=0.28
4.669292372407199
% V (V) @ t=0.28
0.00622898271553911
% es.normE (V/m) @ t=0.3
7.617809163071618
% es.EX (V/m) @ t=0.3
5.902917627165801
% es.EY (V/m) @ t=0.3
-0.9045132233515236
% es.EZ (V/m) @ t=0.3
4.7157918562118635
% es.tEX (V/m) @ t=0.3
5.902917627165802
% es.tEY (V/m) @ t=0.3
0
% es.tEZ (V/m) @ t=0.3
4.715791856211867
% es.Ex (V/m) @ t=0.3
5.902917627165801
% es.Ey (V/m) @ t=0.3
-0.9045132233515236
% es.Ez (V/m) @ t=0.3
4.7157918562118635
% es.tEx (V/m) @ t=0.3
5.902917627165802
% es.tEy (V/m) @ t=0.3
0
% es.tEz (V/m) @ t=0.3
4.715791856211867
% V (V) @ t=0.3
0.0062910583466170115
% es.normE (V/m) @ t=0.32
7.692924148884181
% es.EX (V/m) @ t=0.32
5.961119113119009
% es.EY (V/m) @ t=0.32
-0.9134538970788793
% es.EZ (V/m) @ t=0.32
4.762291340016544
% es.tEX (V/m) @ t=0.32
5.961119113119022
% es.tEY (V/m) @ t=0.32
0
% es.tEZ (V/m) @ t=0.32
4.762291340016542
% es.Ex (V/m) @ t=0.32
5.961119113119009
% es.Ey (V/m) @ t=0.32
-0.9134538970788793
% es.Ez (V/m) @ t=0.32
4.762291340016544
% es.tEx (V/m) @ t=0.32
5.961119113119022
% es.tEy (V/m) @ t=0.32
0
% es.tEz (V/m) @ t=0.32
4.762291340016542
% V (V) @ t=0.32
0.006353133977694912
% es.normE (V/m) @ t=0.34
7.768039134781938
% es.EX (V/m) @ t=0.34
6.019320599072193
% es.EY (V/m) @ t=0.34
-0.9223945708062224
% es.EZ (V/m) @ t=0.34
4.808790823821205
% es.tEX (V/m) @ t=0.34
6.0193205990722145
% es.tEY (V/m) @ t=0.34
0
% es.tEZ (V/m) @ t=0.34
4.808790823821203
% es.Ex (V/m) @ t=0.34
6.019320599072193
% es.Ey (V/m) @ t=0.34
-0.9223945708062224
% es.Ez (V/m) @ t=0.34
4.808790823821205
% es.tEx (V/m) @ t=0.34
6.0193205990722145
% es.tEy (V/m) @ t=0.34
0
% es.tEz (V/m) @ t=0.34
4.808790823821203
% V (V) @ t=0.34
0.006415209608772814
% es.normE (V/m) @ t=0.36
7.84315412076249
% es.EX (V/m) @ t=0.36
6.077522085025378
% es.EY (V/m) @ t=0.36
-0.9313352445335745
% es.EZ (V/m) @ t=0.36
4.855290307625886
% es.tEX (V/m) @ t=0.36
6.077522085025406
% es.tEY (V/m) @ t=0.36
0
% es.tEZ (V/m) @ t=0.36
4.855290307625891
% es.Ex (V/m) @ t=0.36
6.077522085025378
% es.Ey (V/m) @ t=0.36
-0.9313352445335745
% es.Ez (V/m) @ t=0.36
4.855290307625886
% es.tEx (V/m) @ t=0.36
6.077522085025406
% es.tEy (V/m) @ t=0.36
0
% es.tEz (V/m) @ t=0.36
4.855290307625891
% V (V) @ t=0.36
0.006477285239850715
% es.normE (V/m) @ t=0.38
7.91826910682348
% es.EX (V/m) @ t=0.38
6.135723570978591
% es.EY (V/m) @ t=0.38
-0.9402759182609346
% es.EZ (V/m) @ t=0.38
4.901789791430557
% es.tEX (V/m) @ t=0.38
6.135723570978598
% es.tEY (V/m) @ t=0.38
0
% es.tEZ (V/m) @ t=0.38
4.901789791430553
% es.Ex (V/m) @ t=0.38
6.135723570978591
% es.Ey (V/m) @ t=0.38
-0.9402759182609346
% es.Ez (V/m) @ t=0.38
4.901789791430557
% es.tEx (V/m) @ t=0.38
6.135723570978598
% es.tEy (V/m) @ t=0.38
0
% es.tEz (V/m) @ t=0.38
4.901789791430553
% V (V) @ t=0.38
0.0065393608709286176
% es.normE (V/m) @ t=0.4
7.993384092962595
% es.EX (V/m) @ t=0.4
6.193925056931768
% es.EY (V/m) @ t=0.4
-0.9492165919882778
% es.EZ (V/m) @ t=0.4
4.948289275235224
% es.tEX (V/m) @ t=0.4
6.193925056931804
% es.tEY (V/m) @ t=0.4
0
% es.tEZ (V/m) @ t=0.4
4.948289275235227
% es.Ex (V/m) @ t=0.4
6.193925056931768
% es.Ey (V/m) @ t=0.4
-0.9492165919882778
% es.Ez (V/m) @ t=0.4
4.948289275235224
% es.tEx (V/m) @ t=0.4
6.193925056931804
% es.tEy (V/m) @ t=0.4
0
% es.tEz (V/m) @ t=0.4
4.948289275235227
% V (V) @ t=0.4
0.0066014365020065175
% es.normE (V/m) @ t=0.42
8.068499079177702
% es.EX (V/m) @ t=0.42
6.252126542884953
% es.EY (V/m) @ t=0.42
-0.958157265715637
% es.EZ (V/m) @ t=0.42
4.994788759039916
% es.tEX (V/m) @ t=0.42
6.252126542884996
% es.tEY (V/m) @ t=0.42
0
% es.tEZ (V/m) @ t=0.42
4.994788759039917
% es.Ex (V/m) @ t=0.42
6.252126542884953
% es.Ey (V/m) @ t=0.42
-0.958157265715637
% es.Ez (V/m) @ t=0.42
4.994788759039916
% es.tEx (V/m) @ t=0.42
6.252126542884996
% es.tEy (V/m) @ t=0.42
0
% es.tEz (V/m) @ t=0.42
4.994788759039917
% V (V) @ t=0.42
0.00666351213308442
% es.normE (V/m) @ t=0.44
8.14361406546668
% es.EX (V/m) @ t=0.44
6.310328028838151
% es.EY (V/m) @ t=0.44
-0.967097939442997
% es.EZ (V/m) @ t=0.44
5.041288242844583
% es.tEX (V/m) @ t=0.44
6.310328028838159
% es.tEY (V/m) @ t=0.44
0
% es.tEZ (V/m) @ t=0.44
5.041288242844585
% es.Ex (V/m) @ t=0.44
6.310328028838151
% es.Ey (V/m) @ t=0.44
-0.967097939442997
% es.Ez (V/m) @ t=0.44
5.041288242844583
% es.tEx (V/m) @ t=0.44
6.310328028838159
% es.tEy (V/m) @ t=0.44
0
% es.tEz (V/m) @ t=0.44
5.041288242844585
% V (V) @ t=0.44
0.006725587764162321
% es.normE (V/m) @ t=0.46
8.218729051827495
% es.EX (V/m) @ t=0.46
6.3685295147913425
% es.EY (V/m) @ t=0.46
-0.9760386131703473
% es.EZ (V/m) @ t=0.46
5.087787726649254
% es.tEX (V/m) @ t=0.46
6.368529514791366
% es.tEY (V/m) @ t=0.46
0
% es.tEZ (V/m) @ t=0.46
5.087787726649253
% es.Ex (V/m) @ t=0.46
6.3685295147913425
% es.Ey (V/m) @ t=0.46
-0.9760386131703473
% es.Ez (V/m) @ t=0.46
5.087787726649254
% es.tEx (V/m) @ t=0.46
6.368529514791366
% es.tEy (V/m) @ t=0.46
0
% es.tEz (V/m) @ t=0.46
5.087787726649253
% V (V) @ t=0.46
0.006787663395240222
% es.normE (V/m) @ t=0.48
8.293844038258214
% es.EX (V/m) @ t=0.48
6.426731000744541
% es.EY (V/m) @ t=0.48
-0.9849792868977012
% es.EZ (V/m) @ t=0.48
5.134287210453932
% es.tEX (V/m) @ t=0.48
6.4267310007445575
% es.tEY (V/m) @ t=0.48
0
% es.tEZ (V/m) @ t=0.48
5.134287210453928
% es.Ex (V/m) @ t=0.48
6.426731000744541
% es.Ey (V/m) @ t=0.48
-0.9849792868977012
% es.Ez (V/m) @ t=0.48
5.134287210453932
% es.tEx (V/m) @ t=0.48
6.4267310007445575
% es.tEy (V/m) @ t=0.48
0
% es.tEz (V/m) @ t=0.48
5.134287210453928
% V (V) @ t=0.48
0.006849739026318123
% es.normE (V/m) @ t=0.5
8.368959024756915
% es.EX (V/m) @ t=0.5
6.48493248669771
% es.EY (V/m) @ t=0.5
-0.9939199606250471
% es.EZ (V/m) @ t=0.5
5.1807866942585985
% es.tEX (V/m) @ t=0.5
6.484932486697735
% es.tEY (V/m) @ t=0.5
0
% es.tEZ (V/m) @ t=0.5
5.180786694258597
% es.Ex (V/m) @ t=0.5
6.48493248669771
% es.Ey (V/m) @ t=0.5
-0.9939199606250471
% es.Ez (V/m) @ t=0.5
5.1807866942585985
% es.tEx (V/m) @ t=0.5
6.484932486697735
% es.tEy (V/m) @ t=0.5
0
% es.tEz (V/m) @ t=0.5
5.180786694258597
% V (V) @ t=0.5
0.006911814657396024
% es.normE (V/m) @ t=0.52
8.444074011321828
% es.EX (V/m) @ t=0.52
6.543133972650888
% es.EY (V/m) @ t=0.52
-1.0028606343524222
% es.EZ (V/m) @ t=0.52
5.22728617806328
% es.tEX (V/m) @ t=0.52
6.543133972650913
% es.tEY (V/m) @ t=0.52
0
% es.tEZ (V/m) @ t=0.52
5.227286178063271
% es.Ex (V/m) @ t=0.52
6.543133972650888
% es.Ey (V/m) @ t=0.52
-1.0028606343524222
% es.Ez (V/m) @ t=0.52
5.22728617806328
% es.tEx (V/m) @ t=0.52
6.543133972650913
% es.tEy (V/m) @ t=0.52
0
% es.tEz (V/m) @ t=0.52
5.227286178063271
% V (V) @ t=0.52
0.006973890288473925
% es.normE (V/m) @ t=0.54
8.519188997951225
% es.EX (V/m) @ t=0.54
6.601335458604115
% es.EY (V/m) @ t=0.54
-1.0118013080797912
% es.EZ (V/m) @ t=0.54
5.2737856618679615
% es.tEX (V/m) @ t=0.54
6.601335458604147
% es.tEY (V/m) @ t=0.54
0
% es.tEZ (V/m) @ t=0.54
5.2737856618679535
% es.Ex (V/m) @ t=0.54
6.601335458604115
% es.Ey (V/m) @ t=0.54
-1.0118013080797912
% es.Ez (V/m) @ t=0.54
5.2737856618679615
% es.tEx (V/m) @ t=0.54
6.601335458604147
% es.tEy (V/m) @ t=0.54
0
% es.tEz (V/m) @ t=0.54
5.2737856618679535
% V (V) @ t=0.54
0.007035965919551829
% es.normE (V/m) @ t=0.56
8.596984496446211
% es.EX (V/m) @ t=0.56
6.661614311808786
% es.EY (V/m) @ t=0.56
-1.0210586781885223
% es.EZ (V/m) @ t=0.56
5.321944537061709
% es.tEX (V/m) @ t=0.56
6.661614311808824
% es.tEY (V/m) @ t=0.56
0
% es.tEZ (V/m) @ t=0.56
5.321944537061706
% es.Ex (V/m) @ t=0.56
6.661614311808786
% es.Ey (V/m) @ t=0.56
-1.0210586781885223
% es.Ez (V/m) @ t=0.56
5.321944537061709
% es.tEx (V/m) @ t=0.56
6.661614311808824
% es.tEy (V/m) @ t=0.56
0
% es.tEz (V/m) @ t=0.56
5.321944537061706
% V (V) @ t=0.56
0.007100252090219359
% es.normE (V/m) @ t=0.58
8.680971474342737
% es.EX (V/m) @ t=0.58
6.7266914936186355
% es.EY (V/m) @ t=0.58
-1.0310475575212532
% es.EZ (V/m) @ t=0.58
5.373936295037064
% es.tEX (V/m) @ t=0.58
6.726691493618654
% es.tEY (V/m) @ t=0.58
0
% es.tEZ (V/m) @ t=0.58
5.373936295037065
% es.Ex (V/m) @ t=0.58
6.7266914936186355
% es.Ey (V/m) @ t=0.58
-1.0310475575212532
% es.Ez (V/m) @ t=0.58
5.373936295037064
% es.tEx (V/m) @ t=0.58
6.726691493618654
% es.tEy (V/m) @ t=0.58
0
% es.tEz (V/m) @ t=0.58
5.373936295037065
% V (V) @ t=0.58
0.007169644192607875
% es.normE (V/m) @ t=0.6
8.76495845226954
% es.EX (V/m) @ t=0.6
6.791768675428407
% es.EY (V/m) @ t=0.6
-1.0410364368539415
% es.EZ (V/m) @ t=0.6
5.425928053012411
% es.tEX (V/m) @ t=0.6
6.791768675428427
% es.tEY (V/m) @ t=0.6
0
% es.tEZ (V/m) @ t=0.6
5.425928053012401
% es.Ex (V/m) @ t=0.6
6.791768675428407
% es.Ey (V/m) @ t=0.6
-1.0410364368539415
% es.Ez (V/m) @ t=0.6
5.425928053012411
% es.tEx (V/m) @ t=0.6
6.791768675428427
% es.tEy (V/m) @ t=0.6
0
% es.tEz (V/m) @ t=0.6
5.425928053012401
% V (V) @ t=0.6
0.007239036294996389
% es.normE (V/m) @ t=0.62
8.84894543022589
% es.EX (V/m) @ t=0.62
6.856845857238249
% es.EY (V/m) @ t=0.62
-1.051025316186644
% es.EZ (V/m) @ t=0.62
5.47791981098777
% es.tEX (V/m) @ t=0.62
6.856845857238272
% es.tEY (V/m) @ t=0.62
0
% es.tEZ (V/m) @ t=0.62
5.477919810987775
% es.Ex (V/m) @ t=0.62
6.856845857238249
% es.Ey (V/m) @ t=0.62
-1.051025316186644
% es.Ez (V/m) @ t=0.62
5.47791981098777
% es.tEx (V/m) @ t=0.62
6.856845857238272
% es.tEy (V/m) @ t=0.62
0
% es.tEz (V/m) @ t=0.62
5.477919810987775
% V (V) @ t=0.62
0.007308428397384905
% es.normE (V/m) @ t=0.64
8.932932408210874
% es.EX (V/m) @ t=0.64
6.9219230390480915
% es.EY (V/m) @ t=0.64
-1.061014195519368
% es.EZ (V/m) @ t=0.64
5.529911568963104
% es.tEX (V/m) @ t=0.64
6.921923039048102
% es.tEY (V/m) @ t=0.64
0
% es.tEZ (V/m) @ t=0.64
5.529911568963099
% es.Ex (V/m) @ t=0.64
6.9219230390480915
% es.Ey (V/m) @ t=0.64
-1.061014195519368
% es.Ez (V/m) @ t=0.64
5.529911568963104
% es.tEx (V/m) @ t=0.64
6.921923039048102
% es.tEy (V/m) @ t=0.64
0
% es.tEz (V/m) @ t=0.64
5.529911568963099
% V (V) @ t=0.64
0.007377820499773421
% es.normE (V/m) @ t=0.66
9.016919386223682
% es.EX (V/m) @ t=0.66
6.987000220857878
% es.EY (V/m) @ t=0.66
-1.0710030748520651
% es.EZ (V/m) @ t=0.66
5.581903326938463
% es.tEX (V/m) @ t=0.66
6.9870002208579045
% es.tEY (V/m) @ t=0.66
0
% es.tEZ (V/m) @ t=0.66
5.58190332693845
% es.Ex (V/m) @ t=0.66
6.987000220857878
% es.Ey (V/m) @ t=0.66
-1.0710030748520651
% es.Ez (V/m) @ t=0.66
5.581903326938463
% es.tEx (V/m) @ t=0.66
6.9870002208579045
% es.tEy (V/m) @ t=0.66
0
% es.tEz (V/m) @ t=0.66
5.58190332693845
% V (V) @ t=0.66
0.0074472126021619366
% es.normE (V/m) @ t=0.68
9.100906364263594
% es.EX (V/m) @ t=0.68
7.052077402667692
% es.EY (V/m) @ t=0.68
-1.080991954184805
% es.EZ (V/m) @ t=0.68
5.633895084913821
% es.tEX (V/m) @ t=0.68
7.05207740266772
% es.tEY (V/m) @ t=0.68
0
% es.tEZ (V/m) @ t=0.68
5.633895084913809
% es.Ex (V/m) @ t=0.68
7.052077402667692
% es.Ey (V/m) @ t=0.68
-1.080991954184805
% es.Ez (V/m) @ t=0.68
5.633895084913821
% es.tEx (V/m) @ t=0.68
7.05207740266772
% es.tEy (V/m) @ t=0.68
0
% es.tEz (V/m) @ t=0.68
5.633895084913809
% V (V) @ t=0.68
0.007516604704550452
% es.normE (V/m) @ t=0.7
9.184893342329822
% es.EX (V/m) @ t=0.7
7.117154584477513
% es.EY (V/m) @ t=0.7
-1.0909808335174933
% es.EZ (V/m) @ t=0.7
5.685886842889144
% es.tEX (V/m) @ t=0.7
7.11715458447755
% es.tEY (V/m) @ t=0.7
0
% es.tEZ (V/m) @ t=0.7
5.685886842889147
% es.Ex (V/m) @ t=0.7
7.117154584477513
% es.Ey (V/m) @ t=0.7
-1.0909808335174933
% es.Ez (V/m) @ t=0.7
5.685886842889144
% es.tEx (V/m) @ t=0.7
7.11715458447755
% es.tEy (V/m) @ t=0.7
0
% es.tEz (V/m) @ t=0.7
5.685886842889147
% V (V) @ t=0.7
0.007585996806938968
% es.normE (V/m) @ t=0.72
9.268880320421705
% es.EX (V/m) @ t=0.72
7.182231766287355
% es.EY (V/m) @ t=0.72
-1.1009697128501834
% es.EZ (V/m) @ t=0.72
5.737878600864496
% es.tEX (V/m) @ t=0.72
7.18223176628738
% es.tEY (V/m) @ t=0.72
0
% es.tEZ (V/m) @ t=0.72
5.7378786008645
% es.Ex (V/m) @ t=0.72
7.182231766287355
% es.Ey (V/m) @ t=0.72
-1.1009697128501834
% es.Ez (V/m) @ t=0.72
5.737878600864496
% es.tEx (V/m) @ t=0.72
7.18223176628738
% es.tEy (V/m) @ t=0.72
0
% es.tEz (V/m) @ t=0.72
5.7378786008645
% V (V) @ t=0.72
0.007655388909327484
% es.normE (V/m) @ t=0.74
9.35286729853848
% es.EX (V/m) @ t=0.74
7.247308948097148
% es.EY (V/m) @ t=0.74
-1.1109585921829108
% es.EZ (V/m) @ t=0.74
5.789870358839844
% es.tEX (V/m) @ t=0.74
7.247308948097167
% es.tEY (V/m) @ t=0.74
0
% es.tEZ (V/m) @ t=0.74
5.789870358839851
% es.Ex (V/m) @ t=0.74
7.247308948097148
% es.Ey (V/m) @ t=0.74
-1.1109585921829108
% es.Ez (V/m) @ t=0.74
5.789870358839844
% es.tEx (V/m) @ t=0.74
7.247308948097167
% es.tEy (V/m) @ t=0.74
0
% es.tEz (V/m) @ t=0.74
5.789870358839851
% V (V) @ t=0.74
0.007724781011716
% es.normE (V/m) @ t=0.76
9.436854276679522
% es.EX (V/m) @ t=0.76
7.312386129906955
% es.EY (V/m) @ t=0.76
-1.120947471515592
% es.EZ (V/m) @ t=0.76
5.841862116815184
% es.tEX (V/m) @ t=0.76
7.31238612990697
% es.tEY (V/m) @ t=0.76
0
% es.tEZ (V/m) @ t=0.76
5.841862116815196
% es.Ex (V/m) @ t=0.76
7.312386129906955
% es.Ey (V/m) @ t=0.76
-1.120947471515592
% es.Ez (V/m) @ t=0.76
5.841862116815184
% es.tEx (V/m) @ t=0.76
7.31238612990697
% es.tEy (V/m) @ t=0.76
0
% es.tEz (V/m) @ t=0.76
5.841862116815196
% V (V) @ t=0.76
0.0077941731141045155
% es.normE (V/m) @ t=0.78
9.520841254844218
% es.EX (V/m) @ t=0.78
7.37746331171679
% es.EY (V/m) @ t=0.78
-1.1309363508482981
% es.EZ (V/m) @ t=0.78
5.893853874790533
% es.tEX (V/m) @ t=0.78
7.377463311716813
% es.tEY (V/m) @ t=0.78
0
% es.tEZ (V/m) @ t=0.78
5.8938538747905485
% es.Ex (V/m) @ t=0.78
7.37746331171679
% es.Ey (V/m) @ t=0.78
-1.1309363508482981
% es.Ez (V/m) @ t=0.78
5.893853874790533
% es.tEx (V/m) @ t=0.78
7.377463311716813
% es.tEy (V/m) @ t=0.78
0
% es.tEz (V/m) @ t=0.78
5.8938538747905485
% V (V) @ t=0.78
0.007863565216493031
% es.normE (V/m) @ t=0.8
9.604828233031906
% es.EX (V/m) @ t=0.8
7.442540493526604
% es.EY (V/m) @ t=0.8
-1.1409252301810167
% es.EZ (V/m) @ t=0.8
5.9458456327658915
% es.tEX (V/m) @ t=0.8
7.44254049352663
% es.tEY (V/m) @ t=0.8
0
% es.tEZ (V/m) @ t=0.8
5.945845632765892
% es.Ex (V/m) @ t=0.8
7.442540493526604
% es.Ey (V/m) @ t=0.8
-1.1409252301810167
% es.Ez (V/m) @ t=0.8
5.9458456327658915
% es.tEx (V/m) @ t=0.8
7.44254049352663
% es.tEy (V/m) @ t=0.8
0
% es.tEz (V/m) @ t=0.8
5.945845632765892
% V (V) @ t=0.8
0.007932957318881545
% es.normE (V/m) @ t=0.82
9.688815211241977
% es.EX (V/m) @ t=0.82
7.507617675336397
% es.EY (V/m) @ t=0.82
-1.1509141095137405
% es.EZ (V/m) @ t=0.82
5.9978373907412355
% es.tEX (V/m) @ t=0.82
7.507617675336432
% es.tEY (V/m) @ t=0.82
0
% es.tEZ (V/m) @ t=0.82
5.997837390741223
% es.Ex (V/m) @ t=0.82
7.507617675336397
% es.Ey (V/m) @ t=0.82
-1.1509141095137405
% es.Ez (V/m) @ t=0.82
5.9978373907412355
% es.tEx (V/m) @ t=0.82
7.507617675336432
% es.tEy (V/m) @ t=0.82
0
% es.tEz (V/m) @ t=0.82
5.997837390741223
% V (V) @ t=0.82
0.008002349421270063
% es.normE (V/m) @ t=0.84
9.777408221406917
% es.EX (V/m) @ t=0.84
7.576266102538046
% es.EY (V/m) @ t=0.84
-1.1614381894996644
% es.EZ (V/m) @ t=0.84
6.052680672743943
% es.tEX (V/m) @ t=0.84
7.576266102538064
% es.tEY (V/m) @ t=0.84
0
% es.tEZ (V/m) @ t=0.84
6.052680672743937
% es.Ex (V/m) @ t=0.84
7.576266102538046
% es.Ey (V/m) @ t=0.84
-1.1614381894996644
% es.Ez (V/m) @ t=0.84
6.052680672743943
% es.tEx (V/m) @ t=0.84
7.576266102538064
% es.tEy (V/m) @ t=0.84
0
% es.tEz (V/m) @ t=0.84
6.052680672743937
% V (V) @ t=0.84
0.008075522245483427
% es.normE (V/m) @ t=0.86
9.871446163885825
% es.EX (V/m) @ t=0.86
7.6491362089693355
% es.EY (V/m) @ t=0.86
-1.1725949466706016
% es.EZ (V/m) @ t=0.86
6.110894829172391
% es.tEX (V/m) @ t=0.86
7.649136208969334
% es.tEY (V/m) @ t=0.86
0
% es.tEZ (V/m) @ t=0.86
6.110894829172407
% es.Ex (V/m) @ t=0.86
7.6491362089693355
% es.Ey (V/m) @ t=0.86
-1.1725949466706016
% es.Ez (V/m) @ t=0.86
6.110894829172391
% es.tEx (V/m) @ t=0.86
7.649136208969334
% es.tEy (V/m) @ t=0.86
0
% es.tEz (V/m) @ t=0.86
6.110894829172407
% V (V) @ t=0.86
0.008153164377473252
% es.normE (V/m) @ t=0.88
9.965484106391562
% es.EX (V/m) @ t=0.88
7.722006315400675
% es.EY (V/m) @ t=0.88
-1.1837517038415015
% es.EZ (V/m) @ t=0.88
6.169108985600872
% es.tEX (V/m) @ t=0.88
7.722006315400717
% es.tEY (V/m) @ t=0.88
0
% es.tEZ (V/m) @ t=0.88
6.169108985600863
% es.Ex (V/m) @ t=0.88
7.722006315400675
% es.Ey (V/m) @ t=0.88
-1.1837517038415015
% es.Ez (V/m) @ t=0.88
6.169108985600872
% es.tEx (V/m) @ t=0.88
7.722006315400717
% es.tEy (V/m) @ t=0.88
0
% es.tEz (V/m) @ t=0.88
6.169108985600863
% V (V) @ t=0.88
0.008230806509463078
% es.normE (V/m) @ t=0.9
10.059522048923291
% es.EX (V/m) @ t=0.9
7.794876421831979
% es.EY (V/m) @ t=0.9
-1.1949084610124654
% es.EZ (V/m) @ t=0.9
6.227323142029334
% es.tEX (V/m) @ t=0.9
7.794876421832014
% es.tEY (V/m) @ t=0.9
0
% es.tEZ (V/m) @ t=0.9
6.227323142029326
% es.Ex (V/m) @ t=0.9
7.794876421831979
% es.Ey (V/m) @ t=0.9
-1.1949084610124654
% es.Ez (V/m) @ t=0.9
6.227323142029334
% es.tEx (V/m) @ t=0.9
7.794876421832014
% es.tEy (V/m) @ t=0.9
0
% es.tEz (V/m) @ t=0.9
6.227323142029326
% V (V) @ t=0.9
0.008308448641452904
% es.normE (V/m) @ t=0.92
10.1535599914803
% es.EX (V/m) @ t=0.92
7.867746528263275
% es.EY (V/m) @ t=0.92
-1.2060652181833902
% es.EZ (V/m) @ t=0.92
6.285537298457779
% es.tEX (V/m) @ t=0.92
7.8677465282633126
% es.tEY (V/m) @ t=0.92
0
% es.tEZ (V/m) @ t=0.92
6.285537298457782
% es.Ex (V/m) @ t=0.92
7.867746528263275
% es.Ey (V/m) @ t=0.92
-1.2060652181833902
% es.Ez (V/m) @ t=0.92
6.285537298457779
% es.tEx (V/m) @ t=0.92
7.8677465282633126
% es.tEy (V/m) @ t=0.92
0
% es.tEz (V/m) @ t=0.92
6.285537298457782
% V (V) @ t=0.92
0.008386090773442729
% es.normE (V/m) @ t=0.94
10.247597934061936
% es.EX (V/m) @ t=0.94
7.940616634694573
% es.EY (V/m) @ t=0.94
-1.2172219753543398
% es.EZ (V/m) @ t=0.94
6.343751454886256
% es.tEX (V/m) @ t=0.94
7.94061663469461
% es.tEY (V/m) @ t=0.94
0
% es.tEZ (V/m) @ t=0.94
6.343751454886244
% es.Ex (V/m) @ t=0.94
7.940616634694573
% es.Ey (V/m) @ t=0.94
-1.2172219753543398
% es.Ez (V/m) @ t=0.94
6.343751454886256
% es.tEx (V/m) @ t=0.94
7.94061663469461
% es.tEy (V/m) @ t=0.94
0
% es.tEz (V/m) @ t=0.94
6.343751454886244
% V (V) @ t=0.94
0.008463732905432555
% es.normE (V/m) @ t=0.96
10.341635876667548
% es.EX (V/m) @ t=0.96
8.013486741125947
% es.EY (V/m) @ t=0.96
-1.2283787325252913
% es.EZ (V/m) @ t=0.96
6.401965611314705
% es.tEX (V/m) @ t=0.96
8.013486741125979
% es.tEY (V/m) @ t=0.96
0
% es.tEZ (V/m) @ t=0.96
6.401965611314708
% es.Ex (V/m) @ t=0.96
8.013486741125947
% es.Ey (V/m) @ t=0.96
-1.2283787325252913
% es.Ez (V/m) @ t=0.96
6.401965611314705
% es.tEx (V/m) @ t=0.96
8.013486741125979
% es.tEy (V/m) @ t=0.96
0
% es.tEz (V/m) @ t=0.96
6.401965611314708
% V (V) @ t=0.96
0.008541375037422383
% es.normE (V/m) @ t=0.98
10.435673819296369
% es.EX (V/m) @ t=0.98
8.086356847557216
% es.EY (V/m) @ t=0.98
-1.2395354896962196
% es.EZ (V/m) @ t=0.98
6.460179767743168
% es.tEX (V/m) @ t=0.98
8.086356847557248
% es.tEY (V/m) @ t=0.98
0
% es.tEZ (V/m) @ t=0.98
6.460179767743185
% es.Ex (V/m) @ t=0.98
8.086356847557216
% es.Ey (V/m) @ t=0.98
-1.2395354896962196
% es.Ez (V/m) @ t=0.98
6.460179767743168
% es.tEx (V/m) @ t=0.98
8.086356847557248
% es.tEy (V/m) @ t=0.98
0
% es.tEz (V/m) @ t=0.98
6.460179767743185
% V (V) @ t=0.98
0.008619017169412206
% es.normE (V/m) @ t=1
10.529711761947873
% es.EX (V/m) @ t=1
8.159226953988497
% es.EY (V/m) @ t=1
-1.25069224686718
% es.EZ (V/m) @ t=1
6.518393924171641
% es.tEX (V/m) @ t=1
8.159226953988545
% es.tEY (V/m) @ t=1
0
% es.tEZ (V/m) @ t=1
6.518393924171633
% es.Ex (V/m) @ t=1
8.159226953988497
% es.Ey (V/m) @ t=1
-1.25069224686718
% es.Ez (V/m) @ t=1
6.518393924171641
% es.tEx (V/m) @ t=1
8.159226953988545
% es.tEy (V/m) @ t=1
0
% es.tEz (V/m) @ t=1
6.518393924171633
% V (V) @ t=1
0.008696659301402032
% es.normE (V/m) @ t=1.02
10.623749704621444
% es.EX (V/m) @ t=1.02
8.23209706041981
% es.EY (V/m) @ t=1.02
-1.261849004038126
% es.EZ (V/m) @ t=1.02
6.5766080806000895
% es.tEX (V/m) @ t=1.02
8.232097060419843
% es.tEY (V/m) @ t=1.02
0
% es.tEZ (V/m) @ t=1.02
6.576608080600103
% es.Ex (V/m) @ t=1.02
8.23209706041981
% es.Ey (V/m) @ t=1.02
-1.261849004038126
% es.Ez (V/m) @ t=1.02
6.5766080806000895
% es.tEx (V/m) @ t=1.02
8.232097060419843
% es.tEy (V/m) @ t=1.02
0
% es.tEz (V/m) @ t=1.02
6.576608080600103
% V (V) @ t=1.02
0.008774301433391857
% es.normE (V/m) @ t=1.04
10.717787647316527
% es.EX (V/m) @ t=1.04
8.304967166851156
% es.EY (V/m) @ t=1.04
-1.2730057612090366
% es.EZ (V/m) @ t=1.04
6.634822237028557
% es.tEX (V/m) @ t=1.04
8.304967166851213
% es.tEY (V/m) @ t=1.04
0
% es.tEZ (V/m) @ t=1.04
6.634822237028545
% es.Ex (V/m) @ t=1.04
8.304967166851156
% es.Ey (V/m) @ t=1.04
-1.2730057612090366
% es.Ez (V/m) @ t=1.04
6.634822237028557
% es.tEx (V/m) @ t=1.04
8.304967166851213
% es.tEy (V/m) @ t=1.04
0
% es.tEz (V/m) @ t=1.04
6.634822237028545
% V (V) @ t=1.04
0.008851943565381685
% es.normE (V/m) @ t=1.06
10.811825590032491
% es.EX (V/m) @ t=1.06
8.377837273282445
% es.EY (V/m) @ t=1.06
-1.2841625183799987
% es.EZ (V/m) @ t=1.06
6.693036393457019
% es.tEX (V/m) @ t=1.06
8.37783727328248
% es.tEY (V/m) @ t=1.06
0