% Model:              1 neuron.mph
% Version:            COMSOL 6.1.0.252
% Date:               Mar 18 2023, 11:36
% Dimension:          0
% Nodes:              14017
% Expressions:        14017
% Description:        Electric field norm, Electric field, X component, Electric field, Y component, Electric field, Z component, Tangential electric field, X component, Tangential electric field, Y component, Tangential electric field, Z component, Electric field, x component, Electric field, y component, Electric field, z component, Tangential electric field, x component, Tangential electric field, y component, Tangential electric field, z component, Electric potential
% Length unit:        mm
% x
1.33
% y
12.2
% z
1.33
% es.normE (V/m) @ t=0
7.765251415268671
% es.EX (V/m) @ t=0
6.0171719686776495
% es.EY (V/m) @ t=0
-0.9220087743287007
% es.EZ (V/m) @ t=0
4.807063774536921
% es.tEX (V/m) @ t=0
6.017171968677669
% es.tEY (V/m) @ t=0
0
% es.tEZ (V/m) @ t=0
4.807063774536911
% es.Ex (V/m) @ t=0
6.0171719686776495
% es.Ey (V/m) @ t=0
-0.9220087743287007
% es.Ez (V/m) @ t=0
4.807063774536921
% es.tEx (V/m) @ t=0
6.017171968677669
% es.tEy (V/m) @ t=0
0
% es.tEz (V/m) @ t=0
4.807063774536911
% V (V) @ t=0
0.00641279929447966
% es.normE (V/m) @ t=0.02
6.706920152593982
% es.EX (V/m) @ t=0.02
5.19708761251529
% es.EY (V/m) @ t=0.02
-0.7963475872992367
% es.EZ (V/m) @ t=0.02
4.151905866289114
% es.tEX (V/m) @ t=0.02
5.197087612515312
% es.tEY (V/m) @ t=0.02
0
% es.tEZ (V/m) @ t=0.02
4.151905866289113
% es.Ex (V/m) @ t=0.02
5.19708761251529
% es.Ey (V/m) @ t=0.02
-0.7963475872992367
% es.Ez (V/m) @ t=0.02
4.151905866289114
% es.tEx (V/m) @ t=0.02
5.197087612515312
% es.tEy (V/m) @ t=0.02
0
% es.tEz (V/m) @ t=0.02
4.151905866289113
% V (V) @ t=0.02
0.005538794627769582
% es.normE (V/m) @ t=0.04
6.768598682288694
% es.EX (V/m) @ t=0.04
5.244881341227285
% es.EY (V/m) @ t=0.04
-0.803671000448464
% es.EZ (V/m) @ t=0.04
4.190087840162568
% es.tEX (V/m) @ t=0.04
5.2448813412273
% es.tEY (V/m) @ t=0.04
0
% es.tEZ (V/m) @ t=0.04
4.190087840162563
% es.Ex (V/m) @ t=0.04
5.244881341227285
% es.Ey (V/m) @ t=0.04
-0.803671000448464
% es.Ez (V/m) @ t=0.04
4.190087840162568
% es.tEx (V/m) @ t=0.04
5.2448813412273
% es.tEy (V/m) @ t=0.04
0
% es.tEz (V/m) @ t=0.04
4.190087840162563
% V (V) @ t=0.04
0.005589730780098984
% es.normE (V/m) @ t=0.06
6.830852635216415
% es.EX (V/m) @ t=0.06
5.293120956314324
% es.EY (V/m) @ t=0.06
-0.8110627364298217
% es.EZ (V/m) @ t=0.06
4.228626028832144
% es.tEX (V/m) @ t=0.06
5.293120956314345
% es.tEY (V/m) @ t=0.06
0
% es.tEZ (V/m) @ t=0.06
4.228626028832137
% es.Ex (V/m) @ t=0.06
5.293120956314324
% es.Ey (V/m) @ t=0.06
-0.8110627364298217
% es.Ez (V/m) @ t=0.06
4.228626028832144
% es.tEx (V/m) @ t=0.06
5.293120956314345
% es.tEy (V/m) @ t=0.06
0
% es.tEz (V/m) @ t=0.06
4.228626028832137
% V (V) @ t=0.06
0.005641142135719906
% es.normE (V/m) @ t=0.08
6.894010601812299
% es.EX (V/m) @ t=0.08
5.3420610768939305
% es.EY (V/m) @ t=0.08
-0.818561808978318
% es.EZ (V/m) @ t=0.08
4.2677238465928236
% es.tEX (V/m) @ t=0.08
5.342061076893941
% es.tEY (V/m) @ t=0.08
0
% es.tEZ (V/m) @ t=0.08
4.267723846592827
% es.Ex (V/m) @ t=0.08
5.3420610768939305
% es.Ey (V/m) @ t=0.08
-0.818561808978318
% es.Ez (V/m) @ t=0.08
4.2677238465928236
% es.tEx (V/m) @ t=0.08
5.342061076893941
% es.tEy (V/m) @ t=0.08
0
% es.tEz (V/m) @ t=0.08
4.267723846592827
% V (V) @ t=0.08
0.00569330005296968
% es.normE (V/m) @ t=0.1
6.957891462164261
% es.EX (V/m) @ t=0.1
5.391561356091158
% es.EY (V/m) @ t=0.1
-0.8261467131208216
% es.EZ (V/m) @ t=0.1
4.307269171277272
% es.tEX (V/m) @ t=0.1
5.39156135609117
% es.tEY (V/m) @ t=0.1
0
% es.tEZ (V/m) @ t=0.1
4.307269171277262
% es.Ex (V/m) @ t=0.1
5.391561356091158
% es.Ey (V/m) @ t=0.1
-0.8261467131208216
% es.Ez (V/m) @ t=0.1
4.307269171277272
% es.tEx (V/m) @ t=0.1
5.39156135609117
% es.tEy (V/m) @ t=0.1
0
% es.tEz (V/m) @ t=0.1
4.307269171277262
% V (V) @ t=0.1
0.0057460549575870466
% es.normE (V/m) @ t=0.12
7.021772322516197
% es.EX (V/m) @ t=0.12
5.44106163528837
% es.EY (V/m) @ t=0.12
-0.8337316172633491
% es.EZ (V/m) @ t=0.12
4.3468144959617
% es.tEX (V/m) @ t=0.12
5.441061635288397
% es.tEY (V/m) @ t=0.12
0
% es.tEZ (V/m) @ t=0.12
4.346814495961697
% es.Ex (V/m) @ t=0.12
5.44106163528837
% es.Ey (V/m) @ t=0.12
-0.8337316172633491
% es.Ez (V/m) @ t=0.12
4.3468144959617
% es.tEx (V/m) @ t=0.12
5.441061635288397
% es.tEy (V/m) @ t=0.12
0
% es.tEz (V/m) @ t=0.12
4.346814495961697
% V (V) @ t=0.12
0.005798809862204412
% es.normE (V/m) @ t=0.14
7.086071436421323
% es.EX (V/m) @ t=0.14
5.490886012837147
% es.EY (V/m) @ t=0.14
-0.841366183432724
% es.EZ (V/m) @ t=0.14
4.386618739262856
% es.tEX (V/m) @ t=0.14
5.490886012837172
% es.tEY (V/m) @ t=0.14
0
% es.tEZ (V/m) @ t=0.14
4.386618739262853
% es.Ex (V/m) @ t=0.14
5.490886012837147
% es.Ey (V/m) @ t=0.14
-0.841366183432724
% es.Ez (V/m) @ t=0.14
4.386618739262856
% es.tEx (V/m) @ t=0.14
5.490886012837172
% es.tEy (V/m) @ t=0.14
0
% es.tEz (V/m) @ t=0.14
4.386618739262853
% V (V) @ t=0.14
0.005851910175203901
% es.normE (V/m) @ t=0.16
7.153397858294662
% es.EX (V/m) @ t=0.16
5.543056205537289
% es.EY (V/m) @ t=0.16
-0.8493602020164959
% es.EZ (V/m) @ t=0.16
4.428297028547807
% es.tEX (V/m) @ t=0.16
5.543056205537325
% es.tEY (V/m) @ t=0.16
0
% es.tEZ (V/m) @ t=0.16
4.4282970285478065
% es.Ex (V/m) @ t=0.16
5.543056205537289
% es.Ey (V/m) @ t=0.16
-0.8493602020164959
% es.Ez (V/m) @ t=0.16
4.428297028547807
% es.tEx (V/m) @ t=0.16
5.543056205537325
% es.tEy (V/m) @ t=0.16
0
% es.tEz (V/m) @ t=0.16
4.4282970285478065
% V (V) @ t=0.16
0.005907510544782852
% es.normE (V/m) @ t=0.18
7.22072428016799
% es.EX (V/m) @ t=0.18
5.5952263982374255
% es.EY (V/m) @ t=0.18
-0.8573542206002776
% es.EZ (V/m) @ t=0.18
4.46997531783275
% es.tEX (V/m) @ t=0.18
5.5952263982374495
% es.tEY (V/m) @ t=0.18
0
% es.tEZ (V/m) @ t=0.18
4.469975317832757
% es.Ex (V/m) @ t=0.18
5.5952263982374255
% es.Ey (V/m) @ t=0.18
-0.8573542206002776
% es.Ez (V/m) @ t=0.18
4.46997531783275
% es.tEx (V/m) @ t=0.18
5.5952263982374495
% es.tEy (V/m) @ t=0.18
0
% es.tEz (V/m) @ t=0.18
4.469975317832757
% V (V) @ t=0.18
0.005963110914361805
% es.normE (V/m) @ t=0.2
7.288050702041354
% es.EX (V/m) @ t=0.2
5.647396590937603
% es.EY (V/m) @ t=0.2
-0.8653482391840503
% es.EZ (V/m) @ t=0.2
4.511653607117696
% es.tEX (V/m) @ t=0.2
5.647396590937618
% es.tEY (V/m) @ t=0.2
0
% es.tEZ (V/m) @ t=0.2
4.511653607117696
% es.Ex (V/m) @ t=0.2
5.647396590937603
% es.Ey (V/m) @ t=0.2
-0.8653482391840503
% es.Ez (V/m) @ t=0.2
4.511653607117696
% es.tEx (V/m) @ t=0.2
5.647396590937618
% es.tEy (V/m) @ t=0.2
0
% es.tEz (V/m) @ t=0.2
4.511653607117696
% V (V) @ t=0.2
0.006018711283940757
% es.normE (V/m) @ t=0.22
7.3553771239146934
% es.EX (V/m) @ t=0.22
5.699566783637735
% es.EY (V/m) @ t=0.22
-0.8733422577678276
% es.EZ (V/m) @ t=0.22
4.55333189640266
% es.tEX (V/m) @ t=0.22
5.699566783637756
% es.tEY (V/m) @ t=0.22
0
% es.tEZ (V/m) @ t=0.22
4.55333189640265
% es.Ex (V/m) @ t=0.22
5.699566783637735
% es.Ey (V/m) @ t=0.22
-0.8733422577678276
% es.Ez (V/m) @ t=0.22
4.55333189640266
% es.tEx (V/m) @ t=0.22
5.699566783637756
% es.tEy (V/m) @ t=0.22
0
% es.tEz (V/m) @ t=0.22
4.55333189640265
% V (V) @ t=0.22
0.006074311653519709
% es.normE (V/m) @ t=0.24
7.4227035457880515
% es.EX (V/m) @ t=0.24
5.751736976337909
% es.EY (V/m) @ t=0.24
-0.8813362763516013
% es.EZ (V/m) @ t=0.24
4.595010185687599
% es.tEX (V/m) @ t=0.24
5.7517369763379085
% es.tEY (V/m) @ t=0.24
0
% es.tEZ (V/m) @ t=0.24
4.595010185687597
% es.Ex (V/m) @ t=0.24
5.751736976337909
% es.Ey (V/m) @ t=0.24
-0.8813362763516013
% es.Ez (V/m) @ t=0.24
4.595010185687599
% es.tEx (V/m) @ t=0.24
5.7517369763379085
% es.tEy (V/m) @ t=0.24
0
% es.tEz (V/m) @ t=0.24
4.595010185687597
% V (V) @ t=0.24
0.0061299120230986605
% es.normE (V/m) @ t=0.26
7.490029967661378
% es.EX (V/m) @ t=0.26
5.803907169038045
% es.EY (V/m) @ t=0.26
-0.8893302949353856
% es.EZ (V/m) @ t=0.26
4.636688474972541
% es.tEX (V/m) @ t=0.26
5.8039071690380615
% es.tEY (V/m) @ t=0.26
0
% es.tEZ (V/m) @ t=0.26
4.636688474972529
% es.Ex (V/m) @ t=0.26
5.803907169038045
% es.Ey (V/m) @ t=0.26
-0.8893302949353856
% es.Ez (V/m) @ t=0.26
4.636688474972541
% es.tEx (V/m) @ t=0.26
5.8039071690380615
% es.tEy (V/m) @ t=0.26
0
% es.tEz (V/m) @ t=0.26
4.636688474972529
% V (V) @ t=0.26
0.006185512392677613
% es.normE (V/m) @ t=0.28
7.559318013651735
% es.EX (V/m) @ t=0.28
5.8575973912447035
% es.EY (V/m) @ t=0.28
-0.8975572209371645
% es.EZ (V/m) @ t=0.28
4.679581108647645
% es.tEX (V/m) @ t=0.28
5.857597391244726
% es.tEY (V/m) @ t=0.28
0
% es.tEZ (V/m) @ t=0.28
4.6795811086476435
% es.Ex (V/m) @ t=0.28
5.8575973912447035
% es.Ey (V/m) @ t=0.28
-0.8975572209371645
% es.Ez (V/m) @ t=0.28
4.679581108647645
% es.tEx (V/m) @ t=0.28
5.857597391244726
% es.tEy (V/m) @ t=0.28
0
% es.tEz (V/m) @ t=0.28
4.6795811086476435
% V (V) @ t=0.28
0.006242732723433019
% es.normE (V/m) @ t=0.3
7.634402811805742
% es.EX (V/m) @ t=0.3
5.915779419121091
% es.EY (V/m) @ t=0.3
-0.9064724065129672
% es.EZ (V/m) @ t=0.3
4.726062224647174
% es.tEX (V/m) @ t=0.3
5.915779419121117
% es.tEY (V/m) @ t=0.3
0
% es.tEZ (V/m) @ t=0.3
4.726062224647174
% es.Ex (V/m) @ t=0.3
5.915779419121091
% es.Ey (V/m) @ t=0.3
-0.9064724065129672
% es.Ez (V/m) @ t=0.3
4.726062224647174
% es.tEx (V/m) @ t=0.3
5.915779419121117
% es.tEy (V/m) @ t=0.3
0
% es.tEz (V/m) @ t=0.3
4.726062224647174
% V (V) @ t=0.3
0.0063047401657319495
% es.normE (V/m) @ t=0.32
7.709487609959785
% es.EX (V/m) @ t=0.32
5.973961446997522
% es.EY (V/m) @ t=0.32
-0.9153875920887842
% es.EZ (V/m) @ t=0.32
4.772543340646706
% es.tEX (V/m) @ t=0.32
5.973961446997537
% es.tEY (V/m) @ t=0.32
0
% es.tEZ (V/m) @ t=0.32
4.772543340646704
% es.Ex (V/m) @ t=0.32
5.973961446997522
% es.Ey (V/m) @ t=0.32
-0.9153875920887842
% es.Ez (V/m) @ t=0.32
4.772543340646706
% es.tEx (V/m) @ t=0.32
5.973961446997537
% es.tEy (V/m) @ t=0.32
0
% es.tEz (V/m) @ t=0.32
4.772543340646704
% V (V) @ t=0.32
0.006366747608030879
% es.normE (V/m) @ t=0.34
7.784572408113785
% es.EX (V/m) @ t=0.34
6.032143474873909
% es.EY (V/m) @ t=0.34
-0.9243027776645709
% es.EZ (V/m) @ t=0.34
4.819024456646225
% es.tEX (V/m) @ t=0.34
6.032143474873927
% es.tEY (V/m) @ t=0.34
0
% es.tEZ (V/m) @ t=0.34
4.819024456646236
% es.Ex (V/m) @ t=0.34
6.032143474873909
% es.Ey (V/m) @ t=0.34
-0.9243027776645709
% es.Ez (V/m) @ t=0.34
4.819024456646225
% es.tEx (V/m) @ t=0.34
6.032143474873927
% es.tEy (V/m) @ t=0.34
0
% es.tEz (V/m) @ t=0.34
4.819024456646236
% V (V) @ t=0.34
0.006428755050329808
% es.normE (V/m) @ t=0.36
7.85965720626778
% es.EX (V/m) @ t=0.36
6.090325502750282
% es.EY (V/m) @ t=0.36
-0.9332179632404127
% es.EZ (V/m) @ t=0.36
4.865505572645749
% es.tEX (V/m) @ t=0.36
6.0903255027503045
% es.tEY (V/m) @ t=0.36
0
% es.tEZ (V/m) @ t=0.36
4.865505572645745
% es.Ex (V/m) @ t=0.36
6.090325502750282
% es.Ey (V/m) @ t=0.36
-0.9332179632404127
% es.Ez (V/m) @ t=0.36
4.865505572645749
% es.tEx (V/m) @ t=0.36
6.0903255027503045
% es.tEy (V/m) @ t=0.36
0
% es.tEz (V/m) @ t=0.36
4.865505572645745
% V (V) @ t=0.36
0.006490762492628738
% es.normE (V/m) @ t=0.38
7.934742004421786
% es.EX (V/m) @ t=0.38
6.148507530626674
% es.EY (V/m) @ t=0.38
-0.9421331488162075
% es.EZ (V/m) @ t=0.38
4.911986688645271
% es.tEX (V/m) @ t=0.38
6.148507530626695
% es.tEY (V/m) @ t=0.38
0
% es.tEZ (V/m) @ t=0.38
4.9119866886452765
% es.Ex (V/m) @ t=0.38
6.148507530626674
% es.Ey (V/m) @ t=0.38
-0.9421331488162075
% es.Ez (V/m) @ t=0.38
4.911986688645271
% es.tEx (V/m) @ t=0.38
6.148507530626695
% es.tEy (V/m) @ t=0.38
0
% es.tEz (V/m) @ t=0.38
4.9119866886452765
% V (V) @ t=0.38
0.006552769934927667
% es.normE (V/m) @ t=0.4
8.00982680257581
% es.EX (V/m) @ t=0.4
6.206689558503083
% es.EY (V/m) @ t=0.4
-0.9510483343920191
% es.EZ (V/m) @ t=0.4
4.958467804644799
% es.tEX (V/m) @ t=0.4
6.206689558503086
% es.tEY (V/m) @ t=0.4
0
% es.tEZ (V/m) @ t=0.4
4.9584678046448
% es.Ex (V/m) @ t=0.4
6.206689558503083
% es.Ey (V/m) @ t=0.4
-0.9510483343920191
% es.Ez (V/m) @ t=0.4
4.958467804644799
% es.tEx (V/m) @ t=0.4
6.206689558503086
% es.tEy (V/m) @ t=0.4
0
% es.tEz (V/m) @ t=0.4
4.9584678046448
% V (V) @ t=0.4
0.006614777377226597
% es.normE (V/m) @ t=0.42
8.084911600729814
% es.EX (V/m) @ t=0.42
6.2648715863794635
% es.EY (V/m) @ t=0.42
-0.9599635199678502
% es.EZ (V/m) @ t=0.42
5.004948920644324
% es.tEX (V/m) @ t=0.42
6.264871586379478
% es.tEY (V/m) @ t=0.42
0
% es.tEZ (V/m) @ t=0.42
5.004948920644331
% es.Ex (V/m) @ t=0.42
6.2648715863794635
% es.Ey (V/m) @ t=0.42
-0.9599635199678502
% es.Ez (V/m) @ t=0.42
5.004948920644324
% es.tEx (V/m) @ t=0.42
6.264871586379478
% es.tEy (V/m) @ t=0.42
0
% es.tEz (V/m) @ t=0.42
5.004948920644331
% V (V) @ t=0.42
0.006676784819525525
% es.normE (V/m) @ t=0.44
8.159996398883814
% es.EX (V/m) @ t=0.44
6.323053614255844
% es.EY (V/m) @ t=0.44
-0.9688787055436405
% es.EZ (V/m) @ t=0.44
5.051430036643853
% es.tEX (V/m) @ t=0.44
6.323053614255869
% es.tEY (V/m) @ t=0.44
0
% es.tEZ (V/m) @ t=0.44
5.051430036643854
% es.Ex (V/m) @ t=0.44
6.323053614255844
% es.Ey (V/m) @ t=0.44
-0.9688787055436405
% es.Ez (V/m) @ t=0.44
5.051430036643853
% es.tEx (V/m) @ t=0.44
6.323053614255869
% es.tEy (V/m) @ t=0.44
0
% es.tEz (V/m) @ t=0.44
5.051430036643854
% V (V) @ t=0.44
0.006738792261824455
% es.normE (V/m) @ t=0.46
8.235081197037843
% es.EX (V/m) @ t=0.46
6.381235642132268
% es.EY (V/m) @ t=0.46
-0.9777938911194655
% es.EZ (V/m) @ t=0.46
5.097911152643367
% es.tEX (V/m) @ t=0.46
6.381235642132275
% es.tEY (V/m) @ t=0.46
0
% es.tEZ (V/m) @ t=0.46
5.097911152643371
% es.Ex (V/m) @ t=0.46
6.381235642132268
% es.Ey (V/m) @ t=0.46
-0.9777938911194655
% es.Ez (V/m) @ t=0.46
5.097911152643367
% es.tEx (V/m) @ t=0.46
6.381235642132275
% es.tEy (V/m) @ t=0.46
0
% es.tEz (V/m) @ t=0.46
5.097911152643371
% V (V) @ t=0.46
0.006800799704123386
% es.normE (V/m) @ t=0.48
8.310165995191872
% es.EX (V/m) @ t=0.48
6.439417670008679
% es.EY (V/m) @ t=0.48
-0.9867090766952735
% es.EZ (V/m) @ t=0.48
5.144392268642896
% es.tEX (V/m) @ t=0.48
6.439417670008664
% es.tEY (V/m) @ t=0.48
0
% es.tEZ (V/m) @ t=0.48
5.1443922686428945
% es.Ex (V/m) @ t=0.48
6.439417670008679
% es.Ey (V/m) @ t=0.48
-0.9867090766952735
% es.Ez (V/m) @ t=0.48
5.144392268642896
% es.tEx (V/m) @ t=0.48
6.439417670008664
% es.tEy (V/m) @ t=0.48
0
% es.tEz (V/m) @ t=0.48
5.1443922686428945
% V (V) @ t=0.48
0.006862807146422314
% es.normE (V/m) @ t=0.5
8.385250793345847
% es.EX (V/m) @ t=0.5
6.497599697885032
% es.EY (V/m) @ t=0.5
-0.9956242622711065
% es.EZ (V/m) @ t=0.5
5.190873384642414
% es.tEX (V/m) @ t=0.5
6.497599697885056
% es.tEY (V/m) @ t=0.5
0
% es.tEZ (V/m) @ t=0.5
5.190873384642411
% es.Ex (V/m) @ t=0.5
6.497599697885032
% es.Ey (V/m) @ t=0.5
-0.9956242622711065
% es.Ez (V/m) @ t=0.5
5.190873384642414
% es.tEx (V/m) @ t=0.5
6.497599697885056
% es.tEy (V/m) @ t=0.5
0
% es.tEz (V/m) @ t=0.5
5.190873384642411
% V (V) @ t=0.5
0.006924814588721243
% es.normE (V/m) @ t=0.52
8.460335591499861
% es.EX (V/m) @ t=0.52
6.555781725761427
% es.EY (V/m) @ t=0.52
-1.0045394478468967
% es.EZ (V/m) @ t=0.52
5.237354500641943
% es.tEX (V/m) @ t=0.52
6.555781725761461
% es.tEY (V/m) @ t=0.52
0
% es.tEZ (V/m) @ t=0.52
5.237354500641943
% es.Ex (V/m) @ t=0.52
6.555781725761427
% es.Ey (V/m) @ t=0.52
-1.0045394478468967
% es.Ez (V/m) @ t=0.52
5.237354500641943
% es.tEx (V/m) @ t=0.52
6.555781725761461
% es.tEy (V/m) @ t=0.52
0
% es.tEz (V/m) @ t=0.52
5.237354500641943
% V (V) @ t=0.52
0.006986822031020173
% es.normE (V/m) @ t=0.54
8.535420389653884
% es.EX (V/m) @ t=0.54
6.613963753637828
% es.EY (V/m) @ t=0.54
-1.01345463342272
% es.EZ (V/m) @ t=0.54
5.2838356166414755
% es.tEX (V/m) @ t=0.54
6.613963753637867
% es.tEY (V/m) @ t=0.54
0
% es.tEZ (V/m) @ t=0.54
5.28383561664148
% es.Ex (V/m) @ t=0.54
6.613963753637828
% es.Ey (V/m) @ t=0.54
-1.01345463342272
% es.Ez (V/m) @ t=0.54
5.2838356166414755
% es.tEx (V/m) @ t=0.54
6.613963753637867
% es.tEy (V/m) @ t=0.54
0
% es.tEz (V/m) @ t=0.54
5.28383561664148
% V (V) @ t=0.54
0.007048829473319102
% es.normE (V/m) @ t=0.56
8.61504749116896
% es.EX (V/m) @ t=0.56
6.675665544963412
% es.EY (V/m) @ t=0.56
-1.0229091600358569
% es.EZ (V/m) @ t=0.56
5.333128629471979
% es.tEX (V/m) @ t=0.56
6.675665544963423
% es.tEY (V/m) @ t=0.56
0
% es.tEZ (V/m) @ t=0.56
5.333128629471978
% es.Ex (V/m) @ t=0.56
6.675665544963412
% es.Ey (V/m) @ t=0.56
-1.0229091600358569
% es.Ez (V/m) @ t=0.56
5.333128629471979
% es.tEx (V/m) @ t=0.56
6.675665544963423
% es.tEy (V/m) @ t=0.56
0
% es.tEz (V/m) @ t=0.56
5.333128629471978
% V (V) @ t=0.56
0.00711458811766567
% es.normE (V/m) @ t=0.58
8.698939634011754
% es.EX (V/m) @ t=0.58
6.740672253504201
% es.EY (V/m) @ t=0.58
-1.0328701063287564
% es.EZ (V/m) @ t=0.58
5.385061901052301
% es.tEX (V/m) @ t=0.58
6.740672253504216
% es.tEY (V/m) @ t=0.58
0
% es.tEZ (V/m) @ t=0.58
5.385061901052296
% es.Ex (V/m) @ t=0.58
6.740672253504201
% es.Ey (V/m) @ t=0.58
-1.0328701063287564
% es.Ez (V/m) @ t=0.58
5.385061901052301
% es.tEx (V/m) @ t=0.58
6.740672253504216
% es.tEy (V/m) @ t=0.58
0
% es.tEz (V/m) @ t=0.58
5.385061901052296
% V (V) @ t=0.58
0.00718386899082215
% es.normE (V/m) @ t=0.6
8.782831776854511
% es.EX (V/m) @ t=0.6
6.805678962044958
% es.EY (V/m) @ t=0.6
-1.0428310526216986
% es.EZ (V/m) @ t=0.6
5.436995172632601
% es.tEX (V/m) @ t=0.6
6.805678962044993
% es.tEY (V/m) @ t=0.6
0
% es.tEZ (V/m) @ t=0.6
5.436995172632601
% es.Ex (V/m) @ t=0.6
6.805678962044958
% es.Ey (V/m) @ t=0.6
-1.0428310526216986
% es.Ez (V/m) @ t=0.6
5.436995172632601
% es.tEx (V/m) @ t=0.6
6.805678962044993
% es.tEy (V/m) @ t=0.6
0
% es.tEz (V/m) @ t=0.6
5.436995172632601
% V (V) @ t=0.6
0.007253149863978632
% es.normE (V/m) @ t=0.62
8.866723919697272
% es.EX (V/m) @ t=0.62
6.870685670585708
% es.EY (V/m) @ t=0.62
-1.0527919989146461
% es.EZ (V/m) @ t=0.62
5.488928444212911
% es.tEX (V/m) @ t=0.62
6.870685670585743
% es.tEY (V/m) @ t=0.62
0
% es.tEZ (V/m) @ t=0.62
5.488928444212911
% es.Ex (V/m) @ t=0.62
6.870685670585708
% es.Ey (V/m) @ t=0.62
-1.0527919989146461
% es.Ez (V/m) @ t=0.62
5.488928444212911
% es.tEx (V/m) @ t=0.62
6.870685670585743
% es.tEy (V/m) @ t=0.62
0
% es.tEz (V/m) @ t=0.62
5.488928444212911
% V (V) @ t=0.62
0.007322430737135112
% es.normE (V/m) @ t=0.64
8.95061606254005
% es.EX (V/m) @ t=0.64
6.935692379126472
% es.EY (V/m) @ t=0.64
-1.062752945207567
% es.EZ (V/m) @ t=0.64
5.540861715793239
% es.tEX (V/m) @ t=0.64
6.935692379126465
% es.tEY (V/m) @ t=0.64
0
% es.tEZ (V/m) @ t=0.64
5.540861715793237
% es.Ex (V/m) @ t=0.64
6.935692379126472
% es.Ey (V/m) @ t=0.64
-1.062752945207567
% es.Ez (V/m) @ t=0.64
5.540861715793239
% es.tEx (V/m) @ t=0.64
6.935692379126465
% es.tEy (V/m) @ t=0.64
0
% es.tEz (V/m) @ t=0.64
5.540861715793237
% V (V) @ t=0.64
0.007391711610291594
% es.normE (V/m) @ t=0.66
9.034508205382828
% es.EX (V/m) @ t=0.66
7.000699087667243
% es.EY (V/m) @ t=0.66
-1.072713891500511
% es.EZ (V/m) @ t=0.66
5.592794987373555
% es.tEX (V/m) @ t=0.66
7.0006990876672575
% es.tEY (V/m) @ t=0.66
0
% es.tEZ (V/m) @ t=0.66
5.592794987373556
% es.Ex (V/m) @ t=0.66
7.000699087667243
% es.Ey (V/m) @ t=0.66
-1.072713891500511
% es.Ez (V/m) @ t=0.66
5.592794987373555
% es.tEx (V/m) @ t=0.66
7.0006990876672575
% es.tEy (V/m) @ t=0.66
0
% es.tEz (V/m) @ t=0.66
5.592794987373556
% V (V) @ t=0.66
0.007460992483448072
% es.normE (V/m) @ t=0.68
9.118400348225574
% es.EX (V/m) @ t=0.68
7.065705796207986
% es.EY (V/m) @ t=0.68
-1.082674837793439
% es.EZ (V/m) @ t=0.68
5.6447282589538545
% es.tEX (V/m) @ t=0.68
7.065705796208022
% es.tEY (V/m) @ t=0.68
0
% es.tEZ (V/m) @ t=0.68
5.644728258953853
% es.Ex (V/m) @ t=0.68
7.065705796207986
% es.Ey (V/m) @ t=0.68
-1.082674837793439
% es.Ez (V/m) @ t=0.68
5.6447282589538545
% es.tEx (V/m) @ t=0.68
7.065705796208022
% es.tEy (V/m) @ t=0.68
0
% es.tEz (V/m) @ t=0.68
5.644728258953853
% V (V) @ t=0.68
0.007530273356604553
% es.normE (V/m) @ t=0.7
9.202292491068334
% es.EX (V/m) @ t=0.7
7.130712504748736
% es.EY (V/m) @ t=0.7
-1.0926357840863723
% es.EZ (V/m) @ t=0.7
5.696661530534168
% es.tEX (V/m) @ t=0.7
7.130712504748757
% es.tEY (V/m) @ t=0.7
0
% es.tEZ (V/m) @ t=0.7
5.69666153053417
% es.Ex (V/m) @ t=0.7
7.130712504748736
% es.Ey (V/m) @ t=0.7
-1.0926357840863723
% es.Ez (V/m) @ t=0.7
5.696661530534168
% es.tEx (V/m) @ t=0.7
7.130712504748757
% es.tEy (V/m) @ t=0.7
0
% es.tEz (V/m) @ t=0.7
5.69666153053417
% V (V) @ t=0.7
0.007599554229761033
% es.normE (V/m) @ t=0.72
9.286184633911118
% es.EX (V/m) @ t=0.72
7.1957192132895145
% es.EY (V/m) @ t=0.72
-1.1025967303792878
% es.EZ (V/m) @ t=0.72
5.748594802114487
% es.tEX (V/m) @ t=0.72
7.19571921328955
% es.tEY (V/m) @ t=0.72
0
% es.tEZ (V/m) @ t=0.72
5.748594802114482
% es.Ex (V/m) @ t=0.72
7.1957192132895145
% es.Ey (V/m) @ t=0.72
-1.1025967303792878
% es.Ez (V/m) @ t=0.72
5.748594802114487
% es.tEx (V/m) @ t=0.72
7.19571921328955
% es.tEy (V/m) @ t=0.72
0
% es.tEz (V/m) @ t=0.72
5.748594802114482
% V (V) @ t=0.72
0.007668835102917513
% es.normE (V/m) @ t=0.74
9.370076776753866
% es.EX (V/m) @ t=0.74
7.260725921830257
% es.EY (V/m) @ t=0.74
-1.1125576766722443
% es.EZ (V/m) @ t=0.74
5.800528073694791
% es.tEX (V/m) @ t=0.74
7.260725921830286
% es.tEY (V/m) @ t=0.74
0
% es.tEZ (V/m) @ t=0.74
5.800528073694793
% es.Ex (V/m) @ t=0.74
7.260725921830257
% es.Ey (V/m) @ t=0.74
-1.1125576766722443
% es.Ez (V/m) @ t=0.74
5.800528073694791
% es.tEx (V/m) @ t=0.74
7.260725921830286
% es.tEy (V/m) @ t=0.74
0
% es.tEz (V/m) @ t=0.74
5.800528073694793
% V (V) @ t=0.74
0.007738115976073993
% es.normE (V/m) @ t=0.76
9.453968919596647
% es.EX (V/m) @ t=0.76
7.3257326303710215
% es.EY (V/m) @ t=0.76
-1.1225186229651882
% es.EZ (V/m) @ t=0.76
5.852461345275115
% es.tEX (V/m) @ t=0.76
7.325732630371036
% es.tEY (V/m) @ t=0.76
0
% es.tEZ (V/m) @ t=0.76
5.852461345275097
% es.Ex (V/m) @ t=0.76
7.3257326303710215
% es.Ey (V/m) @ t=0.76
-1.1225186229651882
% es.Ez (V/m) @ t=0.76
5.852461345275115
% es.tEx (V/m) @ t=0.76
7.325732630371036
% es.tEy (V/m) @ t=0.76
0
% es.tEz (V/m) @ t=0.76
5.852461345275097
% V (V) @ t=0.76
0.0078073968492304744
% es.normE (V/m) @ t=0.78
9.537861062439426
% es.EX (V/m) @ t=0.78
7.3907393389118
% es.EY (V/m) @ t=0.78
-1.132479569258086
% es.EZ (V/m) @ t=0.78
5.904394616855425
% es.tEX (V/m) @ t=0.78
7.390739338911828
% es.tEY (V/m) @ t=0.78
0
% es.tEZ (V/m) @ t=0.78
5.904394616855416
% es.Ex (V/m) @ t=0.78
7.3907393389118
% es.Ey (V/m) @ t=0.78
-1.132479569258086
% es.Ez (V/m) @ t=0.78
5.904394616855425
% es.tEx (V/m) @ t=0.78
7.390739338911828
% es.tEy (V/m) @ t=0.78
0
% es.tEz (V/m) @ t=0.78
5.904394616855416
% V (V) @ t=0.78
0.007876677722386953
% es.normE (V/m) @ t=0.8
9.621753205282173
% es.EX (V/m) @ t=0.8
7.455746047452543
% es.EY (V/m) @ t=0.8
-1.1424405155510389
% es.EZ (V/m) @ t=0.8
5.956327888435729
% es.tEX (V/m) @ t=0.8
7.455746047452578
% es.tEY (V/m) @ t=0.8
0
% es.tEZ (V/m) @ t=0.8
5.956327888435734
% es.Ex (V/m) @ t=0.8
7.455746047452543
% es.Ey (V/m) @ t=0.8
-1.1424405155510389
% es.Ez (V/m) @ t=0.8
5.956327888435729
% es.tEx (V/m) @ t=0.8
7.455746047452578
% es.tEy (V/m) @ t=0.8
0
% es.tEz (V/m) @ t=0.8
5.956327888435734
% V (V) @ t=0.8
0.007945958595543432
% es.normE (V/m) @ t=0.82
9.705645348124962
% es.EX (V/m) @ t=0.82
7.520752755993314
% es.EY (V/m) @ t=0.82
-1.1524014618439686
% es.EZ (V/m) @ t=0.82
6.008261160016062
% es.tEX (V/m) @ t=0.82
7.520752755993328
% es.tEY (V/m) @ t=0.82
0
% es.tEZ (V/m) @ t=0.82
6.008261160016052
% es.Ex (V/m) @ t=0.82
7.520752755993314
% es.Ey (V/m) @ t=0.82
-1.1524014618439686
% es.Ez (V/m) @ t=0.82
6.008261160016062
% es.tEx (V/m) @ t=0.82
7.520752755993328
% es.tEy (V/m) @ t=0.82
0
% es.tEz (V/m) @ t=0.82
6.008261160016052
% V (V) @ t=0.82
0.008015239468699916
% es.normE (V/m) @ t=0.84
9.797335958006817
% es.EX (V/m) @ t=0.84
7.591802376045225
% es.EY (V/m) @ t=0.84
-1.1632883640917626
% es.EZ (V/m) @ t=0.84
6.0650220548993286
% es.tEX (V/m) @ t=0.84
7.591802376045257
% es.tEY (V/m) @ t=0.84
0
% es.tEZ (V/m) @ t=0.84
6.065022054899338
% es.Ex (V/m) @ t=0.84
7.591802376045225
% es.Ey (V/m) @ t=0.84
-1.1632883640917626
% es.Ez (V/m) @ t=0.84
6.0650220548993286
% es.tEx (V/m) @ t=0.84
7.591802376045257
% es.tEy (V/m) @ t=0.84
0
% es.tEz (V/m) @ t=0.84
6.065022054899338
% V (V) @ t=0.84
0.008090960577810578
% es.normE (V/m) @ t=0.86
9.891243582266313
% es.EX (V/m) @ t=0.86
7.664569926253897
% es.EY (V/m) @ t=0.86
-1.174438504954832
% es.EZ (V/m) @ t=0.86
6.123155387496185
% es.tEX (V/m) @ t=0.86
7.66456992625392
% es.tEY (V/m) @ t=0.86
0
% es.tEZ (V/m) @ t=0.86
6.123155387496178
% es.Ex (V/m) @ t=0.86
7.664569926253897
% es.Ey (V/m) @ t=0.86
-1.174438504954832
% es.Ez (V/m) @ t=0.86
6.123155387496185
% es.tEx (V/m) @ t=0.86
7.66456992625392
% es.tEy (V/m) @ t=0.86
0
% es.tEz (V/m) @ t=0.86
6.123155387496178
% V (V) @ t=0.86
0.008168512571841813
% es.normE (V/m) @ t=0.88
9.985151206525828
% es.EX (V/m) @ t=0.88
7.737337476462583
% es.EY (V/m) @ t=0.88
-1.185588645817937
% es.EZ (V/m) @ t=0.88
6.1812887200930495
% es.tEX (V/m) @ t=0.88
7.737337476462611
% es.tEY (V/m) @ t=0.88
0
% es.tEZ (V/m) @ t=0.88
6.181288720093033
% es.Ex (V/m) @ t=0.88
7.737337476462583
% es.Ey (V/m) @ t=0.88
-1.185588645817937
% es.Ez (V/m) @ t=0.88
6.1812887200930495
% es.tEx (V/m) @ t=0.88
7.737337476462611
% es.tEy (V/m) @ t=0.88
0
% es.tEz (V/m) @ t=0.88
6.181288720093033
% V (V) @ t=0.88
0.008246064565873047
% es.normE (V/m) @ t=0.9
10.079058830785296
% es.EX (V/m) @ t=0.9
7.810105026671248
% es.EY (V/m) @ t=0.9
-1.19673878668101
% es.EZ (V/m) @ t=0.9
6.2394220526898705
% es.tEX (V/m) @ t=0.9
7.810105026671261
% es.tEY (V/m) @ t=0.9
0
% es.tEZ (V/m) @ t=0.9
6.239422052689886
% es.Ex (V/m) @ t=0.9
7.810105026671248
% es.Ey (V/m) @ t=0.9
-1.19673878668101
% es.Ez (V/m) @ t=0.9
6.2394220526898705
% es.tEx (V/m) @ t=0.9
7.810105026671261
% es.tEy (V/m) @ t=0.9
0
% es.tEz (V/m) @ t=0.9
6.239422052689886
% V (V) @ t=0.9
0.008323616559904285
% es.normE (V/m) @ t=0.92
10.17296645504478
% es.EX (V/m) @ t=0.92
7.8828725768799135
% es.EY (V/m) @ t=0.92
-1.2078889275440954
% es.EZ (V/m) @ t=0.92
6.297555385286717
% es.tEX (V/m) @ t=0.92
7.882872576879937
% es.tEY (V/m) @ t=0.92
0
% es.tEZ (V/m) @ t=0.92
6.297555385286719
% es.Ex (V/m) @ t=0.92
7.8828725768799135
% es.Ey (V/m) @ t=0.92
-1.2078889275440954
% es.Ez (V/m) @ t=0.92
6.297555385286717
% es.tEx (V/m) @ t=0.92
7.882872576879937
% es.tEy (V/m) @ t=0.92
0
% es.tEz (V/m) @ t=0.92
6.297555385286719
% V (V) @ t=0.92
0.00840116855393552
% es.normE (V/m) @ t=0.94
10.26687407930428
% es.EX (V/m) @ t=0.94
7.955640127088586
% es.EY (V/m) @ t=0.94
-1.2190390684071968
% es.EZ (V/m) @ t=0.94
6.355688717883574
% es.tEX (V/m) @ t=0.94
7.955640127088601
% es.tEY (V/m) @ t=0.94
0
% es.tEZ (V/m) @ t=0.94
6.355688717883558
% es.Ex (V/m) @ t=0.94
7.955640127088586
% es.Ey (V/m) @ t=0.94
-1.2190390684071968
% es.Ez (V/m) @ t=0.94
6.355688717883574
% es.tEx (V/m) @ t=0.94
7.955640127088601
% es.tEy (V/m) @ t=0.94
0
% es.tEz (V/m) @ t=0.94
6.355688717883558
% V (V) @ t=0.94
0.008478720547966754
% es.normE (V/m) @ t=0.96
10.36078170356378
% es.EX (V/m) @ t=0.96
8.028407677297286
% es.EY (V/m) @ t=0.96
-1.230189209270268
% es.EZ (V/m) @ t=0.96
6.413822050480403
% es.tEX (V/m) @ t=0.96
8.02840767729732
% es.tEY (V/m) @ t=0.96
0
% es.tEZ (V/m) @ t=0.96
6.413822050480405
% es.Ex (V/m) @ t=0.96
8.028407677297286
% es.Ey (V/m) @ t=0.96
-1.230189209270268
% es.Ez (V/m) @ t=0.96
6.413822050480403
% es.tEx (V/m) @ t=0.96
8.02840767729732
% es.tEy (V/m) @ t=0.96
0
% es.tEz (V/m) @ t=0.96
6.413822050480405
% V (V) @ t=0.96
0.008556272541997988
% es.normE (V/m) @ t=0.98
10.45468932782326
% es.EX (V/m) @ t=0.98
8.101175227505951
% es.EY (V/m) @ t=0.98
-1.241339350133364
% es.EZ (V/m) @ t=0.98
6.471955383077242
% es.tEX (V/m) @ t=0.98
8.101175227505983
% es.tEY (V/m) @ t=0.98
0
% es.tEZ (V/m) @ t=0.98
6.471955383077231
% es.Ex (V/m) @ t=0.98
8.101175227505951
% es.Ey (V/m) @ t=0.98
-1.241339350133364
% es.Ez (V/m) @ t=0.98
6.471955383077242
% es.tEx (V/m) @ t=0.98
8.101175227505983
% es.tEy (V/m) @ t=0.98
0
% es.tEz (V/m) @ t=0.98
6.471955383077231
% V (V) @ t=0.98
0.008633824536029224
% es.normE (V/m) @ t=1
10.548596952082713
% es.EX (V/m) @ t=1
8.173942777714567
% es.EY (V/m) @ t=1
-1.252489490996469
% es.EZ (V/m) @ t=1
6.530088715674095
% es.tEX (V/m) @ t=1
8.173942777714576
% es.tEY (V/m) @ t=1
0
% es.tEZ (V/m) @ t=1
6.530088715674099
% es.Ex (V/m) @ t=1
8.173942777714567
% es.Ey (V/m) @ t=1
-1.252489490996469
% es.Ez (V/m) @ t=1
6.530088715674095
% es.tEx (V/m) @ t=1
8.173942777714576
% es.tEy (V/m) @ t=1
0
% es.tEz (V/m) @ t=1
6.530088715674099
% V (V) @ t=1
0.008711376530060459
% es.normE (V/m) @ t=1.02
10.642504576342223
% es.EX (V/m) @ t=1.02
8.246710327923282
% es.EY (V/m) @ t=1.02
-1.263639631859533
% es.EZ (V/m) @ t=1.02
6.58822204827092
% es.tEX (V/m) @ t=1.02
8.246710327923324
% es.tEY (V/m) @ t=1.02
0
% es.tEZ (V/m) @ t=1.02
6.588222048270931
% es.Ex (V/m) @ t=1.02
8.246710327923282
% es.Ey (V/m) @ t=1.02
-1.263639631859533
% es.Ez (V/m) @ t=1.02
6.58822204827092
% es.tEx (V/m) @ t=1.02
8.246710327923324
% es.tEy (V/m) @ t=1.02
0
% es.tEz (V/m) @ t=1.02
6.588222048270931
% V (V) @ t=1.02
0.008788928524091693
% es.normE (V/m) @ t=1.04
10.736412200601695
% es.EX (V/m) @ t=1.04
8.319477878131925
% es.EY (V/m) @ t=1.04
-1.274789772722638
% es.EZ (V/m) @ t=1.04
6.6463553808677736
% es.tEX (V/m) @ t=1.04
8.319477878131945
% es.tEY (V/m) @ t=1.04
0
% es.tEZ (V/m) @ t=1.04
6.646355380867778
% es.Ex (V/m) @ t=1.04
8.319477878131925
% es.Ey (V/m) @ t=1.04
-1.274789772722638
% es.Ez (V/m) @ t=1.04
6.6463553808677736
% es.tEx (V/m) @ t=1.04
8.319477878131945
% es.tEy (V/m) @ t=1.04
0
% es.tEz (V/m) @ t=1.04
6.646355380867778
% V (V) @ t=1.04
0.00886648051812293
% es.normE (V/m) @ t=1.06
10.830319824861188
% es.EX (V/m) @ t=1.06
8.392245428340598
% es.EY (V/m) @ t=1.06
-1.2859399135857092
% es.EZ (V/m) @ t=1.06
6.704488713464627
% es.tEX (V/m) @ t=1.06
8.392245428340622
% es.tEY (V/m) @ t=1.06
0