% Model:              1 neuron.mph
% Version:            COMSOL 6.0.0.405
% Date:               Mar 9 2023, 13:40
% Dimension:          0
% Nodes:              14017
% Expressions:        14017
% Description:        Electric field norm, Electric field, X component, Electric field, Y component, Electric field, Z component, Tangential electric field, X component, Tangential electric field, Y component, Tangential electric field, Z component, Electric field, x component, Electric field, y component, Electric field, z component, Tangential electric field, x component, Tangential electric field, y component, Tangential electric field, z component, Electric potential
% Length unit:        mm
% x
2
% y
12.2
% z
1
% es.normE (V/m) @ t=0
0.7657284957133631
% es.EX (V/m) @ t=0
-0.4944962223716993
% es.EY (V/m) @ t=0
0.10986541904648617
% es.EZ (V/m) @ t=0
0.5639556096736134
% es.tEX (V/m) @ t=0
-0.49449622237169777
% es.tEY (V/m) @ t=0
0
% es.tEZ (V/m) @ t=0
0.5639556096736209
% es.Ex (V/m) @ t=0
-0.4944962223716993
% es.Ey (V/m) @ t=0
0.10986541904648617
% es.Ez (V/m) @ t=0
0.5639556096736134
% es.tEx (V/m) @ t=0
-0.49449622237169777
% es.tEy (V/m) @ t=0
0
% es.tEz (V/m) @ t=0
0.5639556096736209
% V (V) @ t=0
0.0074107568352374305
% es.normE (V/m) @ t=0.02
0.6613740583812253
% es.EX (V/m) @ t=0.02
-0.4271056585519861
% es.EY (V/m) @ t=0.02
0.09489282239056046
% es.EZ (V/m) @ t=0.02
0.4870990336404546
% es.tEX (V/m) @ t=0.02
-0.42710565855198457
% es.tEY (V/m) @ t=0.02
0
% es.tEZ (V/m) @ t=0.02
0.48709903364045504
% es.Ex (V/m) @ t=0.02
-0.4271056585519861
% es.Ey (V/m) @ t=0.02
0.09489282239056046
% es.Ez (V/m) @ t=0.02
0.4870990336404546
% es.tEx (V/m) @ t=0.02
-0.42710565855198457
% es.tEy (V/m) @ t=0.02
0
% es.tEz (V/m) @ t=0.02
0.48709903364045504
% V (V) @ t=0.02
0.006400809612526886
% es.normE (V/m) @ t=0.04
0.6674567452539133
% es.EX (V/m) @ t=0.04
-0.4310337677883751
% es.EY (V/m) @ t=0.04
0.09576556035551709
% es.EZ (V/m) @ t=0.04
0.49157890387600167
% es.tEX (V/m) @ t=0.04
-0.43103376778837355
% es.tEY (V/m) @ t=0.04
0
% es.tEZ (V/m) @ t=0.04
0.4915789038760092
% es.Ex (V/m) @ t=0.04
-0.4310337677883751
% es.Ey (V/m) @ t=0.04
0.09576556035551709
% es.Ez (V/m) @ t=0.04
0.49157890387600167
% es.tEx (V/m) @ t=0.04
-0.43103376778837355
% es.tEy (V/m) @ t=0.04
0
% es.tEz (V/m) @ t=0.04
0.4915789038760092
% V (V) @ t=0.04
0.006459677671757177
% es.normE (V/m) @ t=0.06
0.6735966906747112
% es.EX (V/m) @ t=0.06
-0.43499885225037205
% es.EY (V/m) @ t=0.06
0.09664652374477756
% es.EZ (V/m) @ t=0.06
0.4961009415537325
% es.tEX (V/m) @ t=0.06
-0.43499885225037227
% es.tEY (V/m) @ t=0.06
0
% es.tEZ (V/m) @ t=0.06
0.4961009415537294
% es.Ex (V/m) @ t=0.06
-0.43499885225037205
% es.Ey (V/m) @ t=0.06
0.09664652374477756
% es.Ez (V/m) @ t=0.06
0.4961009415537325
% es.tEx (V/m) @ t=0.06
-0.43499885225037227
% es.tEy (V/m) @ t=0.06
0
% es.tEz (V/m) @ t=0.06
0.4961009415537294
% V (V) @ t=0.06
0.006519098804651896
% es.normE (V/m) @ t=0.08
0.6798245860691543
% es.EX (V/m) @ t=0.08
-0.43902073532354713
% es.EY (V/m) @ t=0.08
0.09754009391805296
% es.EZ (V/m) @ t=0.08
0.5006877578806663
% es.tEX (V/m) @ t=0.08
-0.4390207353235458
% es.tEY (V/m) @ t=0.08
0
% es.tEZ (V/m) @ t=0.08
0.5006877578806721
% es.Ex (V/m) @ t=0.08
-0.43902073532354713
% es.Ey (V/m) @ t=0.08
0.09754009391805296
% es.Ez (V/m) @ t=0.08
0.5006877578806663
% es.tEx (V/m) @ t=0.08
-0.4390207353235458
% es.tEy (V/m) @ t=0.08
0
% es.tEz (V/m) @ t=0.08
0.5006877578806721
% V (V) @ t=0.08
0.006579372420483433
% es.normE (V/m) @ t=0.1
0.6861254967451706
% es.EX (V/m) @ t=0.1
-0.44308977209576517
% es.EY (V/m) @ t=0.1
0.09844413013066838
% es.EZ (V/m) @ t=0.1
0.5053283528628518
% es.tEX (V/m) @ t=0.1
-0.44308977209576184
% es.tEY (V/m) @ t=0.1
0
% es.tEZ (V/m) @ t=0.1
0.5053283528628594
% es.Ex (V/m) @ t=0.1
-0.44308977209576517
% es.Ey (V/m) @ t=0.1
0.09844413013066838
% es.Ez (V/m) @ t=0.1
0.5053283528628518
% es.tEx (V/m) @ t=0.1
-0.44308977209576184
% es.tEy (V/m) @ t=0.1
0
% es.tEz (V/m) @ t=0.1
0.5053283528628594
% V (V) @ t=0.1
0.006640353760025395
% es.normE (V/m) @ t=0.12
0.6924264074211974
% es.EX (V/m) @ t=0.12
-0.447158808867987
% es.EY (V/m) @ t=0.12
0.09934816634328203
% es.EZ (V/m) @ t=0.12
0.5099689478450502
% es.tEX (V/m) @ t=0.12
-0.4471588088679874
% es.tEY (V/m) @ t=0.12
0
% es.tEZ (V/m) @ t=0.12
0.5099689478450542
% es.Ex (V/m) @ t=0.12
-0.447158808867987
% es.Ey (V/m) @ t=0.12
0.09934816634328203
% es.Ez (V/m) @ t=0.12
0.5099689478450502
% es.tEx (V/m) @ t=0.12
-0.4471588088679874
% es.tEy (V/m) @ t=0.12
0
% es.tEz (V/m) @ t=0.12
0.5099689478450542
% V (V) @ t=0.12
0.006701335099567358
% es.normE (V/m) @ t=0.14
0.6987623492312515
% es.EX (V/m) @ t=0.14
-0.4512504648693625
% es.EY (V/m) @ t=0.14
0.10025725134062763
% es.EZ (V/m) @ t=0.14
0.5146353358551949
% es.tEX (V/m) @ t=0.14
-0.4512504648693627
% es.tEY (V/m) @ t=0.14
0
% es.tEZ (V/m) @ t=0.14
0.514635335855202
% es.Ex (V/m) @ t=0.14
-0.4512504648693625
% es.Ey (V/m) @ t=0.14
0.10025725134062763
% es.Ez (V/m) @ t=0.14
0.5146353358551949
% es.tEx (V/m) @ t=0.14
-0.4512504648693627
% es.tEy (V/m) @ t=0.14
0
% es.tEz (V/m) @ t=0.14
0.514635335855202
% V (V) @ t=0.14
0.006762653050880324
% es.normE (V/m) @ t=0.16
0.7054037960738437
% es.EX (V/m) @ t=0.16
-0.4555393822077378
% es.EY (V/m) @ t=0.16
0.10121036657525245
% es.EZ (V/m) @ t=0.16
0.5195266637669662
% es.tEX (V/m) @ t=0.16
-0.45553938220773627
% es.tEY (V/m) @ t=0.16
0
% es.tEZ (V/m) @ t=0.16
0.5195266637669738
% es.Ex (V/m) @ t=0.16
-0.4555393822077378
% es.Ey (V/m) @ t=0.16
0.10121036657525245
% es.Ez (V/m) @ t=0.16
0.5195266637669662
% es.tEx (V/m) @ t=0.16
-0.45553938220773627
% es.tEy (V/m) @ t=0.16
0
% es.tEz (V/m) @ t=0.16
0.5195266637669738
% V (V) @ t=0.16
0.006826906579155558
% es.normE (V/m) @ t=0.18
0.7120452429166041
% es.EX (V/m) @ t=0.18
-0.4598282995461096
% es.EY (V/m) @ t=0.18
0.10216348180988172
% es.EZ (V/m) @ t=0.18
0.5244179916787273
% es.tEX (V/m) @ t=0.18
-0.4598282995461098
% es.tEY (V/m) @ t=0.18
0
% es.tEZ (V/m) @ t=0.18
0.5244179916787384
% es.Ex (V/m) @ t=0.18
-0.4598282995461096
% es.Ey (V/m) @ t=0.18
0.10216348180988172
% es.Ez (V/m) @ t=0.18
0.5244179916787273
% es.tEx (V/m) @ t=0.18
-0.4598282995461098
% es.tEy (V/m) @ t=0.18
0
% es.tEz (V/m) @ t=0.18
0.5244179916787384
% V (V) @ t=0.18
0.0068911601074307955
% es.normE (V/m) @ t=0.2
0.7186866897595481
% es.EX (V/m) @ t=0.2
-0.46411721688448515
% es.EY (V/m) @ t=0.2
0.10311659704450482
% es.EZ (V/m) @ t=0.2
0.5293093195905039
% es.tEX (V/m) @ t=0.2
-0.46411721688448515
% es.tEY (V/m) @ t=0.2
0
% es.tEZ (V/m) @ t=0.2
0.5293093195905096
% es.Ex (V/m) @ t=0.2
-0.46411721688448515
% es.Ey (V/m) @ t=0.2
0.10311659704450482
% es.Ez (V/m) @ t=0.2
0.5293093195905039
% es.tEx (V/m) @ t=0.2
-0.46411721688448515
% es.tEy (V/m) @ t=0.2
0
% es.tEz (V/m) @ t=0.2
0.5293093195905096
% V (V) @ t=0.2
0.00695541363570603
% es.normE (V/m) @ t=0.22
0.7253281366026554
% es.EX (V/m) @ t=0.22
-0.4684061342228587
% es.EY (V/m) @ t=0.22
0.10406971227913586
% es.EZ (V/m) @ t=0.22
0.534200647502272
% es.tEX (V/m) @ t=0.22
-0.4684061342228589
% es.tEY (V/m) @ t=0.22
0
% es.tEZ (V/m) @ t=0.22
0.5342006475022814
% es.Ex (V/m) @ t=0.22
-0.4684061342228587
% es.Ey (V/m) @ t=0.22
0.10406971227913586
% es.Ez (V/m) @ t=0.22
0.534200647502272
% es.tEx (V/m) @ t=0.22
-0.4684061342228589
% es.tEy (V/m) @ t=0.22
0
% es.tEz (V/m) @ t=0.22
0.5342006475022814
% V (V) @ t=0.22
0.007019667163981266
% es.normE (V/m) @ t=0.24
0.7319695834459279
% es.EX (V/m) @ t=0.24
-0.4726950515612325
% es.EY (V/m) @ t=0.24
0.10502282751375808
% es.EZ (V/m) @ t=0.24
0.5390919754140482
% es.tEX (V/m) @ t=0.24
-0.4726950515612329
% es.tEY (V/m) @ t=0.24
0
% es.tEZ (V/m) @ t=0.24
0.5390919754140486
% es.Ex (V/m) @ t=0.24
-0.4726950515612325
% es.Ey (V/m) @ t=0.24
0.10502282751375808
% es.Ez (V/m) @ t=0.24
0.5390919754140482
% es.tEx (V/m) @ t=0.24
-0.4726950515612329
% es.tEy (V/m) @ t=0.24
0
% es.tEz (V/m) @ t=0.24
0.5390919754140486
% V (V) @ t=0.24
0.007083920692256501
% es.normE (V/m) @ t=0.26
0.7386110302893518
% es.EX (V/m) @ t=0.26
-0.47698396889961203
% es.EY (V/m) @ t=0.26
0.10597594274838118
% es.EZ (V/m) @ t=0.26
0.5439833033258088
% es.tEX (V/m) @ t=0.26
-0.47698396889961026
% es.tEY (V/m) @ t=0.26
0
% es.tEZ (V/m) @ t=0.26
0.5439833033258128
% es.Ex (V/m) @ t=0.26
-0.47698396889961203
% es.Ey (V/m) @ t=0.26
0.10597594274838118
% es.Ez (V/m) @ t=0.26
0.5439833033258088
% es.tEx (V/m) @ t=0.26
-0.47698396889961026
% es.tEy (V/m) @ t=0.26
0
% es.tEz (V/m) @ t=0.26
0.5439833033258128
% V (V) @ t=0.26
0.007148174220531735
% es.normE (V/m) @ t=0.28
0.7454181600448067
% es.EX (V/m) @ t=0.28
-0.4813798734028536
% es.EY (V/m) @ t=0.28
0.10695288651178997
% es.EZ (V/m) @ t=0.28
0.5489966377756188
% es.tEX (V/m) @ t=0.28
-0.4813798734028518
% es.tEY (V/m) @ t=0.28
0
% es.tEZ (V/m) @ t=0.28
0.5489966377756264
% es.Ex (V/m) @ t=0.28
-0.4813798734028536
% es.Ey (V/m) @ t=0.28
0.10695288651178997
% es.Ez (V/m) @ t=0.28
0.5489966377756188
% es.tEx (V/m) @ t=0.28
-0.4813798734028518
% es.tEy (V/m) @ t=0.28
0
% es.tEz (V/m) @ t=0.28
0.5489966377756264
% V (V) @ t=0.28
0.007214025162324125
% es.normE (V/m) @ t=0.3
0.7528272634010653
% es.EX (V/m) @ t=0.3
-0.48616449300104514
% es.EY (V/m) @ t=0.3
0.10801640616343722
% es.EZ (V/m) @ t=0.3
0.5544532570164016
% es.tEX (V/m) @ t=0.3
-0.48616449300104336
% es.tEY (V/m) @ t=0.3
0
% es.tEZ (V/m) @ t=0.3
0.5544532570164109
% es.Ex (V/m) @ t=0.3
-0.48616449300104514
% es.Ey (V/m) @ t=0.3
0.10801640616343722
% es.Ez (V/m) @ t=0.3
0.5544532570164016
% es.tEx (V/m) @ t=0.3
-0.48616449300104336
% es.tEy (V/m) @ t=0.3
0
% es.tEz (V/m) @ t=0.3
0.5544532570164109
% V (V) @ t=0.3
0.007285679966175561
% es.normE (V/m) @ t=0.32
0.7602363667581001
% es.EX (V/m) @ t=0.32
-0.4909491125992369
% es.EY (V/m) @ t=0.32
0.10907992581508358
% es.EZ (V/m) @ t=0.32
0.5599098762571804
% es.tEX (V/m) @ t=0.32
-0.4909491125992369
% es.tEY (V/m) @ t=0.32
0
% es.tEZ (V/m) @ t=0.32
0.5599098762571879
% es.Ex (V/m) @ t=0.32
-0.4909491125992369
% es.Ey (V/m) @ t=0.32
0.10907992581508358
% es.Ez (V/m) @ t=0.32
0.5599098762571804
% es.tEx (V/m) @ t=0.32
-0.4909491125992369
% es.tEy (V/m) @ t=0.32
0
% es.tEz (V/m) @ t=0.32
0.5599098762571879
% V (V) @ t=0.32
0.007357334770026995
% es.normE (V/m) @ t=0.34
0.7676454701158949
% es.EX (V/m) @ t=0.34
-0.49573373219742844
% es.EY (V/m) @ t=0.34
0.11014344546672994
% es.EZ (V/m) @ t=0.34
0.5653664954979645
% es.tEX (V/m) @ t=0.34
-0.49573373219742667
% es.tEY (V/m) @ t=0.34
0
% es.tEZ (V/m) @ t=0.34
0.5653664954979649
% es.Ex (V/m) @ t=0.34
-0.49573373219742844
% es.Ey (V/m) @ t=0.34
0.11014344546672994
% es.Ez (V/m) @ t=0.34
0.5653664954979645
% es.tEx (V/m) @ t=0.34
-0.49573373219742667
% es.tEy (V/m) @ t=0.34
0
% es.tEz (V/m) @ t=0.34
0.5653664954979649
% V (V) @ t=0.34
0.0074289895738784304
% es.normE (V/m) @ t=0.36
0.7750545734744257
% es.EX (V/m) @ t=0.36
-0.50051835179562
% es.EY (V/m) @ t=0.36
0.11120696511836997
% es.EZ (V/m) @ t=0.36
0.570823114738753
% es.tEX (V/m) @ t=0.36
-0.5005183517956182
% es.tEY (V/m) @ t=0.36
0
% es.tEZ (V/m) @ t=0.36
0.5708231147387606
% es.Ex (V/m) @ t=0.36
-0.50051835179562
% es.Ey (V/m) @ t=0.36
0.11120696511836997
% es.Ez (V/m) @ t=0.36
0.570823114738753
% es.tEx (V/m) @ t=0.36
-0.5005183517956182
% es.tEy (V/m) @ t=0.36
0
% es.tEz (V/m) @ t=0.36
0.5708231147387606
% V (V) @ t=0.36
0.007500644377729866
% es.normE (V/m) @ t=0.38
0.7824636768336686
% es.EX (V/m) @ t=0.38
-0.5053029713938151
% es.EY (V/m) @ t=0.38
0.11227048477002166
% es.EZ (V/m) @ t=0.38
0.5762797339795318
% es.tEX (V/m) @ t=0.38
-0.5053029713938133
% es.tEY (V/m) @ t=0.38
0
% es.tEZ (V/m) @ t=0.38
0.576279733979534
% es.Ex (V/m) @ t=0.38
-0.5053029713938151
% es.Ey (V/m) @ t=0.38
0.11227048477002166
% es.Ez (V/m) @ t=0.38
0.5762797339795318
% es.tEx (V/m) @ t=0.38
-0.5053029713938133
% es.tEy (V/m) @ t=0.38
0
% es.tEz (V/m) @ t=0.38
0.576279733979534
% V (V) @ t=0.38
0.007572299181581301
% es.normE (V/m) @ t=0.4
0.7898727801935955
% es.EX (V/m) @ t=0.4
-0.5100875909920068
% es.EY (V/m) @ t=0.4
0.11333400442165997
% es.EZ (V/m) @ t=0.4
0.5817363532203075
% es.tEX (V/m) @ t=0.4
-0.5100875909920051
% es.tEY (V/m) @ t=0.4
0
% es.tEZ (V/m) @ t=0.4
0.581736353220315
% es.Ex (V/m) @ t=0.4
-0.5100875909920068
% es.Ey (V/m) @ t=0.4
0.11333400442165997
% es.Ez (V/m) @ t=0.4
0.5817363532203075
% es.tEx (V/m) @ t=0.4
-0.5100875909920051
% es.tEy (V/m) @ t=0.4
0
% es.tEz (V/m) @ t=0.4
0.581736353220315
% V (V) @ t=0.4
0.007643953985432736
% es.normE (V/m) @ t=0.42
0.7972818835542086
% es.EX (V/m) @ t=0.42
-0.5148722105902002
% es.EY (V/m) @ t=0.42
0.11439752407330367
% es.EZ (V/m) @ t=0.42
0.5871929724610934
% es.tEX (V/m) @ t=0.42
-0.5148722105901984
% es.tEY (V/m) @ t=0.42
0
% es.tEZ (V/m) @ t=0.42
0.5871929724610991
% es.Ex (V/m) @ t=0.42
-0.5148722105902002
% es.Ey (V/m) @ t=0.42
0.11439752407330367
% es.Ez (V/m) @ t=0.42
0.5871929724610934
% es.tEx (V/m) @ t=0.42
-0.5148722105901984
% es.tEy (V/m) @ t=0.42
0
% es.tEz (V/m) @ t=0.42
0.5871929724610991
% V (V) @ t=0.42
0.007715608789284172
% es.normE (V/m) @ t=0.44
0.8046909869154768
% es.EX (V/m) @ t=0.44
-0.5196568301883917
% es.EY (V/m) @ t=0.44
0.11546104372495619
% es.EZ (V/m) @ t=0.44
0.5926495917018797
% es.tEX (V/m) @ t=0.44
-0.5196568301883899
% es.tEY (V/m) @ t=0.44
0
% es.tEZ (V/m) @ t=0.44
0.5926495917018837
% es.Ex (V/m) @ t=0.44
-0.5196568301883917
% es.Ey (V/m) @ t=0.44
0.11546104372495619
% es.Ez (V/m) @ t=0.44
0.5926495917018797
% es.tEx (V/m) @ t=0.44
-0.5196568301883899
% es.tEy (V/m) @ t=0.44
0
% es.tEz (V/m) @ t=0.44
0.5926495917018837
% V (V) @ t=0.44
0.007787263593135607
% es.normE (V/m) @ t=0.46
0.8121000902773707
% es.EX (V/m) @ t=0.46
-0.5244414497865815
% es.EY (V/m) @ t=0.46
0.11652456337659628
% es.EZ (V/m) @ t=0.46
0.5981062109426558
% es.tEX (V/m) @ t=0.46
-0.5244414497865797
% es.tEY (V/m) @ t=0.46
0
% es.tEZ (V/m) @ t=0.46
0.5981062109426616
% es.Ex (V/m) @ t=0.46
-0.5244414497865815
% es.Ey (V/m) @ t=0.46
0.11652456337659628
% es.Ez (V/m) @ t=0.46
0.5981062109426558
% es.tEx (V/m) @ t=0.46
-0.5244414497865797
% es.tEy (V/m) @ t=0.46
0
% es.tEz (V/m) @ t=0.46
0.5981062109426616
% V (V) @ t=0.46
0.00785891839698704
% es.normE (V/m) @ t=0.48
0.8195091936398984
% es.EX (V/m) @ t=0.48
-0.5292260693847732
% es.EY (V/m) @ t=0.48
0.11758808302824092
% es.EZ (V/m) @ t=0.48
0.6035628301834448
% es.tEX (V/m) @ t=0.48
-0.5292260693847732
% es.tEY (V/m) @ t=0.48
0
% es.tEZ (V/m) @ t=0.48
0.6035628301834488
% es.Ex (V/m) @ t=0.48
-0.5292260693847732
% es.Ey (V/m) @ t=0.48
0.11758808302824092
% es.Ez (V/m) @ t=0.48
0.6035628301834448
% es.tEx (V/m) @ t=0.48
-0.5292260693847732
% es.tEy (V/m) @ t=0.48
0
% es.tEz (V/m) @ t=0.48
0.6035628301834488
% V (V) @ t=0.48
0.00793057320083848
% es.normE (V/m) @ t=0.5
0.8269182970030177
% es.EX (V/m) @ t=0.5
-0.5340106889829683
% es.EY (V/m) @ t=0.5
0.1186516026798925
% es.EZ (V/m) @ t=0.5
0.6090194494242156
% es.tEX (V/m) @ t=0.5
-0.5340106889829683
% es.tEY (V/m) @ t=0.5
0
% es.tEZ (V/m) @ t=0.5
0.6090194494242231
% es.Ex (V/m) @ t=0.5
-0.5340106889829683
% es.Ey (V/m) @ t=0.5
0.1186516026798925
% es.Ez (V/m) @ t=0.5
0.6090194494242156
% es.tEx (V/m) @ t=0.5
-0.5340106889829683
% es.tEy (V/m) @ t=0.5
0
% es.tEz (V/m) @ t=0.5
0.6090194494242231
% V (V) @ t=0.5
0.008002228004689912
% es.normE (V/m) @ t=0.52
0.8343274003667336
% es.EX (V/m) @ t=0.52
-0.5387953085811603
% es.EY (V/m) @ t=0.52
0.11971512233152914
% es.EZ (V/m) @ t=0.52
0.6144760686650015
% es.tEX (V/m) @ t=0.52
-0.5387953085811585
% es.tEY (V/m) @ t=0.52
0
% es.tEZ (V/m) @ t=0.52
0.6144760686650104
% es.Ex (V/m) @ t=0.52
-0.5387953085811603
% es.Ey (V/m) @ t=0.52
0.11971512233152914
% es.Ez (V/m) @ t=0.52
0.6144760686650015
% es.tEx (V/m) @ t=0.52
-0.5387953085811585
% es.tEy (V/m) @ t=0.52
0
% es.tEz (V/m) @ t=0.52
0.6144760686650104
% V (V) @ t=0.52
0.008073882808541348
% es.normE (V/m) @ t=0.54
0.841736503731011
% es.EX (V/m) @ t=0.54
-0.5435799281793485
% es.EY (V/m) @ t=0.54
0.12077864198317018
% es.EZ (V/m) @ t=0.54
0.6199326879057798
% es.tEX (V/m) @ t=0.54
-0.5435799281793483
% es.tEY (V/m) @ t=0.54
0
% es.tEZ (V/m) @ t=0.54
0.6199326879057869
% es.Ex (V/m) @ t=0.54
-0.5435799281793485
% es.Ey (V/m) @ t=0.54
0.12077864198317018
% es.Ez (V/m) @ t=0.54
0.6199326879057798
% es.tEx (V/m) @ t=0.54
-0.5435799281793483
% es.tEy (V/m) @ t=0.54
0
% es.tEz (V/m) @ t=0.54
0.6199326879057869
% V (V) @ t=0.54
0.008145537612392784
% es.normE (V/m) @ t=0.56
0.8495307734981841
% es.EX (V/m) @ t=0.56
-0.5486132821358836
% es.EY (V/m) @ t=0.56
0.12189742765633116
% es.EZ (V/m) @ t=0.56
0.6256729795188809
% es.tEX (V/m) @ t=0.56
-0.5486132821358816
% es.tEY (V/m) @ t=0.56
0
% es.tEZ (V/m) @ t=0.56
0.6256729795188818
% es.Ex (V/m) @ t=0.56
-0.5486132821358836
% es.Ey (V/m) @ t=0.56
0.12189742765633116
% es.Ez (V/m) @ t=0.56
0.6256729795188809
% es.tEx (V/m) @ t=0.56
-0.5486132821358816
% es.tEy (V/m) @ t=0.56
0
% es.tEz (V/m) @ t=0.56
0.6256729795188818
% V (V) @ t=0.56
0.008220919753280747
% es.normE (V/m) @ t=0.58
0.8578117923280834
% es.EX (V/m) @ t=0.58
-0.5539609709225668
% es.EY (V/m) @ t=0.58
0.12308605504980558
% es.EZ (V/m) @ t=0.58
0.6317717584256846
% es.tEX (V/m) @ t=0.58
-0.5539609709225648
% es.tEY (V/m) @ t=0.58
0
% es.tEZ (V/m) @ t=0.58
0.6317717584257023
% es.Ex (V/m) @ t=0.58
-0.5539609709225668
% es.Ey (V/m) @ t=0.58
0.12308605504980558
% es.Ez (V/m) @ t=0.58
0.6317717584256846
% es.tEx (V/m) @ t=0.58
-0.5539609709225648
% es.tEy (V/m) @ t=0.58
0
% es.tEz (V/m) @ t=0.58
0.6317717584257023
% V (V) @ t=0.58
0.008301012268168156
% es.normE (V/m) @ t=0.6
0.8660928111585099
% es.EX (V/m) @ t=0.6
-0.5593086597092427
% es.EY (V/m) @ t=0.6
0.12427468244327472
% es.EZ (V/m) @ t=0.6
0.6378705373325015
% es.tEX (V/m) @ t=0.6
-0.5593086597092407
% es.tEY (V/m) @ t=0.6
0
% es.tEZ (V/m) @ t=0.6
0.6378705373325086
% es.Ex (V/m) @ t=0.6
-0.5593086597092427
% es.Ey (V/m) @ t=0.6
0.12427468244327472
% es.Ez (V/m) @ t=0.6
0.6378705373325015
% es.tEx (V/m) @ t=0.6
-0.5593086597092407
% es.tEy (V/m) @ t=0.6
0
% es.tEz (V/m) @ t=0.6
0.6378705373325086
% V (V) @ t=0.6
0.008381104783055567
% es.normE (V/m) @ t=0.62
0.8743738299894477
% es.EX (V/m) @ t=0.62
-0.5646563484959297
% es.EY (V/m) @ t=0.62
0.12546330983674653
% es.EZ (V/m) @ t=0.62
0.6439693162393159
% es.tEX (V/m) @ t=0.62
-0.5646563484959277
% es.tEY (V/m) @ t=0.62
0
% es.tEZ (V/m) @ t=0.62
0.6439693162393185
% es.Ex (V/m) @ t=0.62
-0.5646563484959297
% es.Ey (V/m) @ t=0.62
0.12546330983674653
% es.Ez (V/m) @ t=0.62
0.6439693162393159
% es.tEx (V/m) @ t=0.62
-0.5646563484959277
% es.tEy (V/m) @ t=0.62
0
% es.tEz (V/m) @ t=0.62
0.6439693162393185
% V (V) @ t=0.62
0.00846119729794298
% es.normE (V/m) @ t=0.64
0.8826548488208699
% es.EX (V/m) @ t=0.64
-0.5700040372826132
% es.EY (V/m) @ t=0.64
0.12665193723022727
% es.EZ (V/m) @ t=0.64
0.6500680951461169
% es.tEX (V/m) @ t=0.64
-0.5700040372826112
% es.tEY (V/m) @ t=0.64
0
% es.tEZ (V/m) @ t=0.64
0.6500680951461275
% es.Ex (V/m) @ t=0.64
-0.5700040372826132
% es.Ey (V/m) @ t=0.64
0.12665193723022727
% es.Ez (V/m) @ t=0.64
0.6500680951461169
% es.tEx (V/m) @ t=0.64
-0.5700040372826112
% es.tEy (V/m) @ t=0.64
0
% es.tEz (V/m) @ t=0.64
0.6500680951461275
% V (V) @ t=0.64
0.008541289812830389
% es.normE (V/m) @ t=0.66
0.890935867652766
% es.EX (V/m) @ t=0.66
-0.5753517260692889
% es.EY (V/m) @ t=0.66
0.12784056462369364
% es.EZ (V/m) @ t=0.66
0.6561668740529205
% es.tEX (V/m) @ t=0.66
-0.5753517260692869
% es.tEY (V/m) @ t=0.66
0
% es.tEZ (V/m) @ t=0.66
0.6561668740529241
% es.Ex (V/m) @ t=0.66
-0.5753517260692889
% es.Ey (V/m) @ t=0.66
0.12784056462369364
% es.Ez (V/m) @ t=0.66
0.6561668740529205
% es.tEx (V/m) @ t=0.66
-0.5753517260692869
% es.tEy (V/m) @ t=0.66
0
% es.tEz (V/m) @ t=0.66
0.6561668740529241
% V (V) @ t=0.66
0.008621382327717801
% es.normE (V/m) @ t=0.68
0.8992168864851406
% es.EX (V/m) @ t=0.68
-0.5806994148559761
% es.EY (V/m) @ t=0.68
0.12902919201716107
% es.EZ (V/m) @ t=0.68
0.6622656529597277
% es.tEX (V/m) @ t=0.68
-0.5806994148559741
% es.tEY (V/m) @ t=0.68
0
% es.tEZ (V/m) @ t=0.68
0.6622656529597304
% es.Ex (V/m) @ t=0.68
-0.5806994148559761
% es.Ey (V/m) @ t=0.68
0.12902919201716107
% es.Ez (V/m) @ t=0.68
0.6622656529597277
% es.tEx (V/m) @ t=0.68
-0.5806994148559741
% es.tEy (V/m) @ t=0.68
0
% es.tEz (V/m) @ t=0.68
0.6622656529597304
% V (V) @ t=0.68
0.008701474842605214
% es.normE (V/m) @ t=0.7
0.9074979053179637
% es.EX (V/m) @ t=0.7
-0.5860471036426593
% es.EY (V/m) @ t=0.7
0.13021781941063199
% es.EZ (V/m) @ t=0.7
0.6683644318665323
% es.tEX (V/m) @ t=0.7
-0.5860471036426573
% es.tEY (V/m) @ t=0.7
0
% es.tEZ (V/m) @ t=0.7
0.6683644318665394
% es.Ex (V/m) @ t=0.7
-0.5860471036426593
% es.Ey (V/m) @ t=0.7
0.13021781941063199
% es.Ez (V/m) @ t=0.7
0.6683644318665323
% es.tEx (V/m) @ t=0.7
-0.5860471036426573
% es.tEy (V/m) @ t=0.7
0
% es.tEz (V/m) @ t=0.7
0.6683644318665394
% V (V) @ t=0.7
0.008781567357492626
% es.normE (V/m) @ t=0.72
0.9157789241512395
% es.EX (V/m) @ t=0.72
-0.5913947924293386
% es.EY (V/m) @ t=0.72
0.13140644680411173
% es.EZ (V/m) @ t=0.72
0.6744632107733537
% es.tEX (V/m) @ t=0.72
-0.5913947924293366
% es.tEY (V/m) @ t=0.72
0
% es.tEZ (V/m) @ t=0.72
0.6744632107733537
% es.Ex (V/m) @ t=0.72
-0.5913947924293386
% es.Ey (V/m) @ t=0.72
0.13140644680411173
% es.Ez (V/m) @ t=0.72
0.6744632107733537
% es.tEx (V/m) @ t=0.72
-0.5913947924293366
% es.tEy (V/m) @ t=0.72
0
% es.tEz (V/m) @ t=0.72
0.6744632107733537
% V (V) @ t=0.72
0.008861659872380037
% es.normE (V/m) @ t=0.74
0.924059942984931
% es.EX (V/m) @ t=0.74
-0.5967424812160218
% es.EY (V/m) @ t=0.74
0.132595074197572
% es.EZ (V/m) @ t=0.74
0.6805619896801609
% es.tEX (V/m) @ t=0.74
-0.5967424812160196
% es.tEY (V/m) @ t=0.74
0
% es.tEZ (V/m) @ t=0.74
0.6805619896801636
% es.Ex (V/m) @ t=0.74
-0.5967424812160218
% es.Ey (V/m) @ t=0.74
0.132595074197572
% es.Ez (V/m) @ t=0.74
0.6805619896801609
% es.tEx (V/m) @ t=0.74
-0.5967424812160196
% es.tEy (V/m) @ t=0.74
0
% es.tEz (V/m) @ t=0.74
0.6805619896801636
% V (V) @ t=0.74
0.008941752387267448
% es.normE (V/m) @ t=0.76
0.9323409618190426
% es.EX (V/m) @ t=0.76
-0.6020901700027055
% es.EY (V/m) @ t=0.76
0.13378370159104558
% es.EZ (V/m) @ t=0.76
0.6866607685869655
% es.tEX (V/m) @ t=0.76
-0.6020901700027033
% es.tEY (V/m) @ t=0.76
0
% es.tEZ (V/m) @ t=0.76
0.6866607685869726
% es.Ex (V/m) @ t=0.76
-0.6020901700027055
% es.Ey (V/m) @ t=0.76
0.13378370159104558
% es.Ez (V/m) @ t=0.76
0.6866607685869655
% es.tEx (V/m) @ t=0.76
-0.6020901700027033
% es.tEy (V/m) @ t=0.76
0
% es.tEz (V/m) @ t=0.76
0.6866607685869726
% V (V) @ t=0.76
0.00902184490215486
% es.normE (V/m) @ t=0.78
0.9406219806535551
% es.EX (V/m) @ t=0.78
-0.6074378587893818
% es.EY (V/m) @ t=0.78
0.13497232898452094
% es.EZ (V/m) @ t=0.78
0.6927595474937647
% es.tEX (V/m) @ t=0.78
-0.6074378587893796
% es.tEY (V/m) @ t=0.78
0
% es.tEZ (V/m) @ t=0.78
0.6927595474937753
% es.Ex (V/m) @ t=0.78
-0.6074378587893818
% es.Ey (V/m) @ t=0.78
0.13497232898452094
% es.Ez (V/m) @ t=0.78
0.6927595474937647
% es.tEx (V/m) @ t=0.78
-0.6074378587893796
% es.tEy (V/m) @ t=0.78
0
% es.tEz (V/m) @ t=0.78
0.6927595474937753
% V (V) @ t=0.78
0.009101937417042271
% es.normE (V/m) @ t=0.8
0.9489029994884706
% es.EX (V/m) @ t=0.8
-0.6127855475760682
% es.EY (V/m) @ t=0.8
0.1361609563779963
% es.EZ (V/m) @ t=0.8
0.6988583264005657
% es.tEX (V/m) @ t=0.8
-0.612785547576066
% es.tEY (V/m) @ t=0.8
0
% es.tEZ (V/m) @ t=0.8
0.6988583264005683
% es.Ex (V/m) @ t=0.8
-0.6127855475760682
% es.Ey (V/m) @ t=0.8
0.1361609563779963
% es.Ez (V/m) @ t=0.8
0.6988583264005657
% es.tEx (V/m) @ t=0.8
-0.612785547576066
% es.tEy (V/m) @ t=0.8
0
% es.tEz (V/m) @ t=0.8
0.6988583264005683
% V (V) @ t=0.8
0.009182029931929682
% es.normE (V/m) @ t=0.82
0.9571840183237811
% es.EX (V/m) @ t=0.82
-0.6181332363627481
% es.EY (V/m) @ t=0.82
0.1373495837714681
% es.EZ (V/m) @ t=0.82
0.704957105307388
% es.tEX (V/m) @ t=0.82
-0.6181332363627423
% es.tEY (V/m) @ t=0.82
0
% es.tEZ (V/m) @ t=0.82
0.7049571053073915
% es.Ex (V/m) @ t=0.82
-0.6181332363627481
% es.Ey (V/m) @ t=0.82
0.1373495837714681
% es.Ez (V/m) @ t=0.82
0.704957105307388
% es.tEx (V/m) @ t=0.82
-0.6181332363627423
% es.tEy (V/m) @ t=0.82
0
% es.tEz (V/m) @ t=0.82
0.7049571053073915
% V (V) @ t=0.82
0.009262122446817095
% es.normE (V/m) @ t=0.84
0.9661287610734154
% es.EX (V/m) @ t=0.84
-0.6239097444530546
% es.EY (V/m) @ t=0.84
0.1386321242524141
% es.EZ (V/m) @ t=0.84
0.7115451366089491
% es.tEX (V/m) @ t=0.84
-0.6239097444530524
% es.tEY (V/m) @ t=0.84
0
% es.tEZ (V/m) @ t=0.84
0.7115451366089536
% es.Ex (V/m) @ t=0.84
-0.6239097444530546
% es.Ey (V/m) @ t=0.84
0.1386321242524141
% es.Ez (V/m) @ t=0.84
0.7115451366089491
% es.tEx (V/m) @ t=0.84
-0.6239097444530524
% es.tEy (V/m) @ t=0.84
0
% es.tEz (V/m) @ t=0.84
0.7115451366089536
% V (V) @ t=0.84
0.0093487797189459
% es.normE (V/m) @ t=0.86
0.975403876617286
% es.EX (V/m) @ t=0.86
-0.6298997000714661
% es.EY (V/m) @ t=0.86
0.13996141056829736
% es.EZ (V/m) @ t=0.86
0.7183766963930012
% es.tEX (V/m) @ t=0.86
-0.6298997000714639
% es.tEY (V/m) @ t=0.86
0
% es.tEZ (V/m) @ t=0.86
0.7183766963930154
% es.Ex (V/m) @ t=0.86
-0.6298997000714661
% es.Ey (V/m) @ t=0.86
0.13996141056829736
% es.Ez (V/m) @ t=0.86
0.7183766963930012
% es.tEx (V/m) @ t=0.86
-0.6298997000714639
% es.tEy (V/m) @ t=0.86
0
% es.tEz (V/m) @ t=0.86
0.7183766963930154
% V (V) @ t=0.86
0.009438704640627665
% es.normE (V/m) @ t=0.88
0.9846789921686927
% es.EX (V/m) @ t=0.88
-0.6358896556898803
% es.EY (V/m) @ t=0.88
0.1412906968841895
% es.EZ (V/m) @ t=0.88
0.725208256177071
% es.tEX (V/m) @ t=0.88
-0.6358896556898781
% es.tEY (V/m) @ t=0.88
0
% es.tEZ (V/m) @ t=0.88
0.725208256177079
% es.Ex (V/m) @ t=0.88
-0.6358896556898803
% es.Ey (V/m) @ t=0.88
0.1412906968841895
% es.Ez (V/m) @ t=0.88
0.725208256177071
% es.tEx (V/m) @ t=0.88
-0.6358896556898781
% es.tEy (V/m) @ t=0.88
0
% es.tEz (V/m) @ t=0.88
0.725208256177079
% V (V) @ t=0.88
0.009528629562309428
% es.normE (V/m) @ t=0.9
0.993954107727395
% es.EX (V/m) @ t=0.9
-0.641879611308295
% es.EY (V/m) @ t=0.9
0.14261998320006197
% es.EZ (V/m) @ t=0.9
0.7320398159611265
% es.tEX (V/m) @ t=0.9
-0.6418796113082927
% es.tEY (V/m) @ t=0.9
0
% es.tEZ (V/m) @ t=0.9
0.7320398159611345
% es.Ex (V/m) @ t=0.9
-0.641879611308295
% es.Ey (V/m) @ t=0.9
0.14261998320006197
% es.Ez (V/m) @ t=0.9
0.7320398159611265
% es.tEx (V/m) @ t=0.9
-0.6418796113082927
% es.tEy (V/m) @ t=0.9
0
% es.tEz (V/m) @ t=0.9
0.7320398159611345
% V (V) @ t=0.9
0.00961855448399119
% es.normE (V/m) @ t=0.92
1.0032292232932072
% es.EX (V/m) @ t=0.92
-0.647869566926706
% es.EY (V/m) @ t=0.92
0.14394926951595244
% es.EZ (V/m) @ t=0.92
0.7388713757451821
% es.tEX (V/m) @ t=0.92
-0.6478695669267038
% es.tEY (V/m) @ t=0.92
0
% es.tEZ (V/m) @ t=0.92
0.7388713757451972
% es.Ex (V/m) @ t=0.92
-0.647869566926706
% es.Ey (V/m) @ t=0.92
0.14394926951595244
% es.Ez (V/m) @ t=0.92
0.7388713757451821
% es.tEx (V/m) @ t=0.92
-0.6478695669267038
% es.tEy (V/m) @ t=0.92
0
% es.tEz (V/m) @ t=0.92
0.7388713757451972
% V (V) @ t=0.92
0.009708479405672956
% es.normE (V/m) @ t=0.94
1.0125043388659334
% es.EX (V/m) @ t=0.94
-0.6538595225451178
% es.EY (V/m) @ t=0.94
0.14527855583183835
% es.EZ (V/m) @ t=0.94
0.7457029355292439
% es.tEX (V/m) @ t=0.94
-0.6538595225451156
% es.tEY (V/m) @ t=0.94
0
% es.tEZ (V/m) @ t=0.94
0.7457029355292519
% es.Ex (V/m) @ t=0.94
-0.6538595225451178
% es.Ey (V/m) @ t=0.94
0.14527855583183835
% es.Ez (V/m) @ t=0.94
0.7457029355292439
% es.tEx (V/m) @ t=0.94
-0.6538595225451156
% es.tEy (V/m) @ t=0.94
0
% es.tEz (V/m) @ t=0.94
0.7457029355292519
% V (V) @ t=0.94
0.009798404327354722
% es.normE (V/m) @ t=0.96
1.021779454445379
% es.EX (V/m) @ t=0.96
-0.6598494781635289
% es.EY (V/m) @ t=0.96
0.14660784214771894
% es.EZ (V/m) @ t=0.96
0.7525344953133004
% es.tEX (V/m) @ t=0.96
-0.6598494781635265
% es.tEY (V/m) @ t=0.96
0
% es.tEZ (V/m) @ t=0.96
0.7525344953133146
% es.Ex (V/m) @ t=0.96
-0.6598494781635289
% es.Ey (V/m) @ t=0.96
0.14660784214771894
% es.Ez (V/m) @ t=0.96
0.7525344953133004
% es.tEx (V/m) @ t=0.96
-0.6598494781635265
% es.tEy (V/m) @ t=0.96
0
% es.tEz (V/m) @ t=0.96
0.7525344953133146
% V (V) @ t=0.96
0.009888329249036484
% es.normE (V/m) @ t=0.98
1.0310545700313707
% es.EX (V/m) @ t=0.98
-0.6658394337819431
% es.EY (V/m) @ t=0.98
0.14793712846359053
% es.EZ (V/m) @ t=0.98
0.7593660550973631
% es.tEX (V/m) @ t=0.98
-0.6658394337819409
% es.tEY (V/m) @ t=0.98
0
% es.tEZ (V/m) @ t=0.98
0.759366055097364
% es.Ex (V/m) @ t=0.98
-0.6658394337819431
% es.Ey (V/m) @ t=0.98
0.14793712846359053
% es.Ez (V/m) @ t=0.98
0.7593660550973631
% es.tEx (V/m) @ t=0.98
-0.6658394337819409
% es.tEy (V/m) @ t=0.98
0
% es.tEz (V/m) @ t=0.98
0.759366055097364
% V (V) @ t=0.98
0.009978254170718247
% es.normE (V/m) @ t=1
1.0403296856237323
% es.EX (V/m) @ t=1
-0.6718293894003537
% es.EY (V/m) @ t=1
0.149266414779479
% es.EZ (V/m) @ t=1
0.7661976148814267
% es.tEX (V/m) @ t=1
-0.6718293894003515
% es.tEY (V/m) @ t=1
0
% es.tEZ (V/m) @ t=1
0.7661976148814409
% es.Ex (V/m) @ t=1
-0.6718293894003537
% es.Ey (V/m) @ t=1
0.149266414779479
% es.Ez (V/m) @ t=1
0.7661976148814267
% es.tEx (V/m) @ t=1
-0.6718293894003515
% es.tEy (V/m) @ t=1
0
% es.tEz (V/m) @ t=1
0.7661976148814409
% V (V) @ t=1
0.010068179092400013
% es.normE (V/m) @ t=1.02
1.0496048012222947
% es.EX (V/m) @ t=1.02
-0.6778193450187655
% es.EY (V/m) @ t=1.02
0.15059570109536946
% es.EZ (V/m) @ t=1.02
0.7730291746654956
% es.tEX (V/m) @ t=1.02
-0.6778193450187631
% es.tEY (V/m) @ t=1.02
0
% es.tEZ (V/m) @ t=1.02
0.7730291746655107
% es.Ex (V/m) @ t=1.02
-0.6778193450187655
% es.Ey (V/m) @ t=1.02
0.15059570109536946
% es.Ez (V/m) @ t=1.02
0.7730291746654956
% es.tEx (V/m) @ t=1.02
-0.6778193450187631
% es.tEy (V/m) @ t=1.02
0
% es.tEz (V/m) @ t=1.02
0.7730291746655107
% V (V) @ t=1.02
0.010158104014081775
% es.normE (V/m) @ t=1.04
1.0588799168268814
% es.EX (V/m) @ t=1.04
-0.6838093006371764
% es.EY (V/m) @ t=1.04
0.15192498741124105