% Model:              1 neuron.mph
% Version:            COMSOL 6.0.0.405
% Date:               Mar 9 2023, 13:52
% Dimension:          0
% Nodes:              14017
% Expressions:        14017
% Description:        Electric field norm, Electric field, X component, Electric field, Y component, Electric field, Z component, Tangential electric field, X component, Tangential electric field, Y component, Tangential electric field, Z component, Electric field, x component, Electric field, y component, Electric field, z component, Tangential electric field, x component, Tangential electric field, y component, Tangential electric field, z component, Electric potential
% Length unit:        mm
% x
1.3300000000000003
% y
12.200000000000001
% z
1.66
% es.normE (V/m) @ t=0
7.386789991012788
% es.EX (V/m) @ t=0
4.687653513336194
% es.EY (V/m) @ t=0
1.401771803298802
% es.EZ (V/m) @ t=0
-5.134705415131533
% es.tEX (V/m) @ t=0
4.687653513336184
% es.tEY (V/m) @ t=0
0
% es.tEZ (V/m) @ t=0
-5.134705415131526
% es.Ex (V/m) @ t=0
4.687653513336194
% es.Ey (V/m) @ t=0
1.401771803298802
% es.Ez (V/m) @ t=0
-5.134705415131533
% es.tEx (V/m) @ t=0
4.687653513336184
% es.tEy (V/m) @ t=0
0
% es.tEz (V/m) @ t=0
-5.134705415131526
% V (V) @ t=0
0.006327364248477435
% es.normE (V/m) @ t=0.02
6.380096867887746
% es.EX (V/m) @ t=0.02
4.048806544112936
% es.EY (V/m) @ t=0.02
1.210734293911468
% es.EZ (V/m) @ t=0.02
-4.434932877679811
% es.tEX (V/m) @ t=0.02
4.048806544112926
% es.tEY (V/m) @ t=0.02
0
% es.tEZ (V/m) @ t=0.02
-4.434932877679804
% es.Ex (V/m) @ t=0.02
4.048806544112936
% es.Ey (V/m) @ t=0.02
1.210734293911468
% es.Ez (V/m) @ t=0.02
-4.434932877679811
% es.tEx (V/m) @ t=0.02
4.048806544112926
% es.tEy (V/m) @ t=0.02
0
% es.tEz (V/m) @ t=0.02
-4.434932877679804
% V (V) @ t=0.02
0.005465052655708364
% es.normE (V/m) @ t=0.04
6.438764807221416
% es.EX (V/m) @ t=0.04
4.08603730080198
% es.EY (V/m) @ t=0.04
1.2218676056451345
% es.EZ (V/m) @ t=0.04
-4.475714034509613
% es.tEX (V/m) @ t=0.04
4.086037300801972
% es.tEY (V/m) @ t=0.04
0
% es.tEZ (V/m) @ t=0.04
-4.475714034509598
% es.Ex (V/m) @ t=0.04
4.08603730080198
% es.Ey (V/m) @ t=0.04
1.2218676056451345
% es.Ez (V/m) @ t=0.04
-4.475714034509613
% es.tEx (V/m) @ t=0.04
4.086037300801972
% es.tEy (V/m) @ t=0.04
0
% es.tEz (V/m) @ t=0.04
-4.475714034509598
% V (V) @ t=0.04
0.005515305947310298
% es.normE (V/m) @ t=0.06
6.497970218915832
% es.EX (V/m) @ t=0.06
4.1236091967338595
% es.EY (V/m) @ t=0.06
1.2331029394272253
% es.EZ (V/m) @ t=0.06
-4.516868744330159
% es.tEX (V/m) @ t=0.06
4.123609196733848
% es.tEY (V/m) @ t=0.06
0
% es.tEZ (V/m) @ t=0.06
-4.516868744330145
% es.Ex (V/m) @ t=0.06
4.1236091967338595
% es.Ey (V/m) @ t=0.06
1.2331029394272253
% es.Ez (V/m) @ t=0.06
-4.516868744330159
% es.tEx (V/m) @ t=0.06
4.123609196733848
% es.tEy (V/m) @ t=0.06
0
% es.tEz (V/m) @ t=0.06
-4.516868744330145
% V (V) @ t=0.06
0.005566019411742233
% es.normE (V/m) @ t=0.08
6.5580587590629715
% es.EX (V/m) @ t=0.08
4.161741396497233
% es.EY (V/m) @ t=0.08
1.2445058027444917
% es.EZ (V/m) @ t=0.08
-4.558637453224167
% es.tEX (V/m) @ t=0.08
4.161741396497218
% es.tEY (V/m) @ t=0.08
0
% es.tEZ (V/m) @ t=0.08
-4.558637453224159
% es.Ex (V/m) @ t=0.08
4.161741396497233
% es.Ey (V/m) @ t=0.08
1.2445058027444917
% es.Ez (V/m) @ t=0.08
-4.558637453224167
% es.tEx (V/m) @ t=0.08
4.161741396497218
% es.tEy (V/m) @ t=0.08
0
% es.tEz (V/m) @ t=0.08
-4.558637453224159
% V (V) @ t=0.08
0.005617489809266513
% es.normE (V/m) @ t=0.1
6.618804136261851
% es.EX (V/m) @ t=0.1
4.200290328747952
% es.EY (V/m) @ t=0.1
1.2560332681008577
% es.EZ (V/m) @ t=0.1
-4.60086283106588
% es.tEX (V/m) @ t=0.1
4.200290328747953
% es.tEY (V/m) @ t=0.1
0
% es.tEZ (V/m) @ t=0.1
-4.600862831065873
% es.Ex (V/m) @ t=0.1
4.200290328747952
% es.Ey (V/m) @ t=0.1
1.2560332681008577
% es.Ez (V/m) @ t=0.1
-4.60086283106588
% es.tEx (V/m) @ t=0.1
4.200290328747953
% es.tEy (V/m) @ t=0.1
0
% es.tEz (V/m) @ t=0.1
-4.600862831065873
% V (V) @ t=0.1
0.005669523184576429
% es.normE (V/m) @ t=0.12
6.679549513460746
% es.EX (V/m) @ t=0.12
4.238839260998689
% es.EY (V/m) @ t=0.12
1.2675607334572232
% es.EZ (V/m) @ t=0.12
-4.643088208907599
% es.tEX (V/m) @ t=0.12
4.2388392609986845
% es.tEY (V/m) @ t=0.12
0
% es.tEZ (V/m) @ t=0.12
-4.643088208907589
% es.Ex (V/m) @ t=0.12
4.238839260998689
% es.Ey (V/m) @ t=0.12
1.2675607334572232
% es.Ez (V/m) @ t=0.12
-4.643088208907599
% es.tEx (V/m) @ t=0.12
4.2388392609986845
% es.tEy (V/m) @ t=0.12
0
% es.tEz (V/m) @ t=0.12
-4.643088208907589
% V (V) @ t=0.12
0.005721556559886345
% es.normE (V/m) @ t=0.14
6.740806287163156
% es.EX (V/m) @ t=0.14
4.277712717859888
% es.EY (V/m) @ t=0.14
1.279185241801659
% es.EZ (V/m) @ t=0.14
-4.685669075472045
% es.tEX (V/m) @ t=0.14
4.277712717859881
% es.tEY (V/m) @ t=0.14
0
% es.tEZ (V/m) @ t=0.14
-4.685669075472038
% es.Ex (V/m) @ t=0.14
4.277712717859888
% es.Ey (V/m) @ t=0.14
1.279185241801659
% es.Ez (V/m) @ t=0.14
-4.685669075472045
% es.tEx (V/m) @ t=0.14
4.277712717859881
% es.tEy (V/m) @ t=0.14
0
% es.tEz (V/m) @ t=0.14
-4.685669075472038
% V (V) @ t=0.14
0.005774028012907794
% es.normE (V/m) @ t=0.16
6.804809898970555
% es.EX (V/m) @ t=0.16
4.318329277303714
% es.EY (V/m) @ t=0.16
1.2913309922266707
% es.EZ (V/m) @ t=0.16
-4.730159360585038
% es.tEX (V/m) @ t=0.16
4.318329277303711
% es.tEY (V/m) @ t=0.16
0
% es.tEZ (V/m) @ t=0.16
-4.730159360585027
% es.Ex (V/m) @ t=0.16
4.318329277303714
% es.Ey (V/m) @ t=0.16
1.2913309922266707
% es.Ez (V/m) @ t=0.16
-4.730159360585038
% es.tEx (V/m) @ t=0.16
4.318329277303711
% es.tEy (V/m) @ t=0.16
0
% es.tEz (V/m) @ t=0.16
-4.730159360585027
% V (V) @ t=0.16
0.005828852490525014
% es.normE (V/m) @ t=0.18
6.868813510777969
% es.EX (V/m) @ t=0.18
4.358945836747527
% es.EY (V/m) @ t=0.18
1.3034767426516827
% es.EZ (V/m) @ t=0.18
-4.774649645698048
% es.tEX (V/m) @ t=0.18
4.358945836747513
% es.tEY (V/m) @ t=0.18
0
% es.tEZ (V/m) @ t=0.18
-4.774649645698037
% es.Ex (V/m) @ t=0.18
4.358945836747527
% es.Ey (V/m) @ t=0.18
1.3034767426516827
% es.Ez (V/m) @ t=0.18
-4.774649645698048
% es.tEx (V/m) @ t=0.18
4.358945836747513
% es.tEy (V/m) @ t=0.18
0
% es.tEz (V/m) @ t=0.18
-4.774649645698037
% V (V) @ t=0.18
0.005883676968142234
% es.normE (V/m) @ t=0.2
6.932817122585379
% es.EX (V/m) @ t=0.2
4.399562396191371
% es.EY (V/m) @ t=0.2
1.3156224930766804
% es.EZ (V/m) @ t=0.2
-4.819139930811033
% es.tEX (V/m) @ t=0.2
4.3995623961913575
% es.tEY (V/m) @ t=0.2
0
% es.tEZ (V/m) @ t=0.2
-4.819139930811019
% es.Ex (V/m) @ t=0.2
4.399562396191371
% es.Ey (V/m) @ t=0.2
1.3156224930766804
% es.Ez (V/m) @ t=0.2
-4.819139930811033
% es.tEx (V/m) @ t=0.2
4.3995623961913575
% es.tEy (V/m) @ t=0.2
0
% es.tEz (V/m) @ t=0.2
-4.819139930811019
% V (V) @ t=0.2
0.005938501445759454
% es.normE (V/m) @ t=0.22
6.996820734392802
% es.EX (V/m) @ t=0.22
4.4401789556351865
% es.EY (V/m) @ t=0.22
1.3277682435016958
% es.EZ (V/m) @ t=0.22
-4.863630215924044
% es.tEX (V/m) @ t=0.22
4.44017895563518
% es.tEY (V/m) @ t=0.22
0
% es.tEZ (V/m) @ t=0.22
-4.863630215924033
% es.Ex (V/m) @ t=0.22
4.4401789556351865
% es.Ey (V/m) @ t=0.22
1.3277682435016958
% es.Ez (V/m) @ t=0.22
-4.863630215924044
% es.tEx (V/m) @ t=0.22
4.44017895563518
% es.tEy (V/m) @ t=0.22
0
% es.tEz (V/m) @ t=0.22
-4.863630215924033
% V (V) @ t=0.22
0.005993325923376674
% es.normE (V/m) @ t=0.24
7.060824346200212
% es.EX (V/m) @ t=0.24
4.48079551507902
% es.EY (V/m) @ t=0.24
1.3399139939266738
% es.EZ (V/m) @ t=0.24
-4.9081205010370255
% es.tEX (V/m) @ t=0.24
4.4807955150790075
% es.tEY (V/m) @ t=0.24
0
% es.tEZ (V/m) @ t=0.24
-4.908120501037015
% es.Ex (V/m) @ t=0.24
4.48079551507902
% es.Ey (V/m) @ t=0.24
1.3399139939266738
% es.Ez (V/m) @ t=0.24
-4.9081205010370255
% es.tEx (V/m) @ t=0.24
4.4807955150790075
% es.tEy (V/m) @ t=0.24
0
% es.tEz (V/m) @ t=0.24
-4.908120501037015
% V (V) @ t=0.24
0.006048150400993894
% es.normE (V/m) @ t=0.26
7.124827958007641
% es.EX (V/m) @ t=0.26
4.521412074522829
% es.EY (V/m) @ t=0.26
1.3520597443517122
% es.EZ (V/m) @ t=0.26
-4.952610786150046
% es.tEX (V/m) @ t=0.26
4.521412074522823
% es.tEY (V/m) @ t=0.26
0
% es.tEZ (V/m) @ t=0.26
-4.952610786150036
% es.Ex (V/m) @ t=0.26
4.521412074522829
% es.Ey (V/m) @ t=0.26
1.3520597443517122
% es.Ez (V/m) @ t=0.26
-4.952610786150046
% es.tEx (V/m) @ t=0.26
4.521412074522823
% es.tEy (V/m) @ t=0.26
0
% es.tEz (V/m) @ t=0.26
-4.952610786150036
% V (V) @ t=0.26
0.006102974878611113
% es.normE (V/m) @ t=0.28
7.1912149314804115
% es.EX (V/m) @ t=0.28
4.563538853971236
% es.EY (V/m) @ t=0.28
1.364656735674142
% es.EZ (V/m) @ t=0.28
-4.998759874867526
% es.tEX (V/m) @ t=0.28
4.563538853971223
% es.tEY (V/m) @ t=0.28
0
% es.tEZ (V/m) @ t=0.28
-4.998759874867515
% es.Ex (V/m) @ t=0.28
4.563538853971236
% es.Ey (V/m) @ t=0.28
1.364656735674142
% es.Ez (V/m) @ t=0.28
-4.998759874867526
% es.tEx (V/m) @ t=0.28
4.563538853971223
% es.tEy (V/m) @ t=0.28
0
% es.tEz (V/m) @ t=0.28
-4.998759874867515
% V (V) @ t=0.28
0.006159849018651551
% es.normE (V/m) @ t=0.3
7.262576425758786
% es.EX (V/m) @ t=0.3
4.608817744544114
% es.EY (V/m) @ t=0.3
1.3781955510012596
% es.EZ (V/m) @ t=0.3
-5.0483711964247355
% es.tEX (V/m) @ t=0.3
4.608817744544112
% es.tEY (V/m) @ t=0.3
0
% es.tEZ (V/m) @ t=0.3
-5.048371196424724
% es.Ex (V/m) @ t=0.3
4.608817744544114
% es.Ey (V/m) @ t=0.3
1.3781955510012596
% es.Ez (V/m) @ t=0.3
-5.0483711964247355
% es.tEx (V/m) @ t=0.3
4.608817744544112
% es.tEy (V/m) @ t=0.3
0
% es.tEz (V/m) @ t=0.3
-5.048371196424724
% V (V) @ t=0.3
0.006221001186864113
% es.normE (V/m) @ t=0.32
7.333937920051588
% es.EX (V/m) @ t=0.32
4.654096635116997
% es.EY (V/m) @ t=0.32
1.3917343663283663
% es.EZ (V/m) @ t=0.32
-5.09798251798193
% es.tEX (V/m) @ t=0.32
4.654096635116996
% es.tEY (V/m) @ t=0.32
0
% es.tEZ (V/m) @ t=0.32
-5.097982517981915
% es.Ex (V/m) @ t=0.32
4.654096635116997
% es.Ey (V/m) @ t=0.32
1.3917343663283663
% es.Ez (V/m) @ t=0.32
-5.09798251798193
% es.tEx (V/m) @ t=0.32
4.654096635116996
% es.tEy (V/m) @ t=0.32
0
% es.tEz (V/m) @ t=0.32
-5.097982517981915
% V (V) @ t=0.32
0.006282153355076674
% es.normE (V/m) @ t=0.34
7.405299414358421
% es.EX (V/m) @ t=0.34
4.6993755256898915
% es.EY (V/m) @ t=0.34
1.405273181655459
% es.EZ (V/m) @ t=0.34
-5.147593839539139
% es.tEX (V/m) @ t=0.34
4.699375525689883
% es.tEY (V/m) @ t=0.34
0
% es.tEZ (V/m) @ t=0.34
-5.147593839539132
% es.Ex (V/m) @ t=0.34
4.6993755256898915
% es.Ey (V/m) @ t=0.34
1.405273181655459
% es.Ez (V/m) @ t=0.34
-5.147593839539139
% es.tEx (V/m) @ t=0.34
4.699375525689883
% es.tEy (V/m) @ t=0.34
0
% es.tEz (V/m) @ t=0.34
-5.147593839539132
% V (V) @ t=0.34
0.006343305523289235
% es.normE (V/m) @ t=0.36
7.476660908678857
% es.EX (V/m) @ t=0.36
4.744654416262773
% es.EY (V/m) @ t=0.36
1.4188119969825852
% es.EZ (V/m) @ t=0.36
-5.197205161096334
% es.tEX (V/m) @ t=0.36
4.7446544162627635
% es.tEY (V/m) @ t=0.36
0
% es.tEZ (V/m) @ t=0.36
-5.197205161096319
% es.Ex (V/m) @ t=0.36
4.744654416262773
% es.Ey (V/m) @ t=0.36
1.4188119969825852
% es.Ez (V/m) @ t=0.36
-5.197205161096334
% es.tEx (V/m) @ t=0.36
4.7446544162627635
% es.tEy (V/m) @ t=0.36
0
% es.tEz (V/m) @ t=0.36
-5.197205161096319
% V (V) @ t=0.36
0.006404457691501797
% es.normE (V/m) @ t=0.38
7.54802240301254
% es.EX (V/m) @ t=0.38
4.7899333068356675
% es.EY (V/m) @ t=0.38
1.4323508123096904
% es.EZ (V/m) @ t=0.38
-5.246816482653543
% es.tEX (V/m) @ t=0.38
4.7899333068356675
% es.tEY (V/m) @ t=0.38
0
% es.tEZ (V/m) @ t=0.38
-5.246816482653532
% es.Ex (V/m) @ t=0.38
4.7899333068356675
% es.Ey (V/m) @ t=0.38
1.4323508123096904
% es.Ez (V/m) @ t=0.38
-5.246816482653543
% es.tEx (V/m) @ t=0.38
4.7899333068356675
% es.tEy (V/m) @ t=0.38
0
% es.tEz (V/m) @ t=0.38
-5.246816482653532
% V (V) @ t=0.38
0.006465609859714359
% es.normE (V/m) @ t=0.4
7.619383897359056
% es.EX (V/m) @ t=0.4
4.8352121974085405
% es.EY (V/m) @ t=0.4
1.4458896276368005
% es.EZ (V/m) @ t=0.4
-5.296427804210742
% es.tEX (V/m) @ t=0.4
4.835212197408538
% es.tEY (V/m) @ t=0.4
0
% es.tEZ (V/m) @ t=0.4
-5.2964278042107305
% es.Ex (V/m) @ t=0.4
4.8352121974085405
% es.Ey (V/m) @ t=0.4
1.4458896276368005
% es.Ez (V/m) @ t=0.4
-5.296427804210742
% es.tEx (V/m) @ t=0.4
4.835212197408538
% es.tEy (V/m) @ t=0.4
0
% es.tEz (V/m) @ t=0.4
-5.2964278042107305
% V (V) @ t=0.4
0.00652676202792692
% es.normE (V/m) @ t=0.42
7.690745391718094
% es.EX (V/m) @ t=0.42
4.880491087981433
% es.EY (V/m) @ t=0.42
1.459428442963911
% es.EZ (V/m) @ t=0.42
-5.346039125767954
% es.tEX (V/m) @ t=0.42
4.880491087981427
% es.tEY (V/m) @ t=0.42
0
% es.tEZ (V/m) @ t=0.42
-5.346039125767943
% es.Ex (V/m) @ t=0.42
4.880491087981433
% es.Ey (V/m) @ t=0.42
1.459428442963911
% es.Ez (V/m) @ t=0.42
-5.346039125767954
% es.tEx (V/m) @ t=0.42
4.880491087981427
% es.tEy (V/m) @ t=0.42
0
% es.tEz (V/m) @ t=0.42
-5.346039125767943
% V (V) @ t=0.42
0.006587914196139482
% es.normE (V/m) @ t=0.44
7.762106886089271
% es.EX (V/m) @ t=0.44
4.925769978554311
% es.EY (V/m) @ t=0.44
1.4729672582910285
% es.EZ (V/m) @ t=0.44
-5.395650447325149
% es.tEX (V/m) @ t=0.44
4.9257699785543085
% es.tEY (V/m) @ t=0.44
0
% es.tEZ (V/m) @ t=0.44
-5.395650447325134
% es.Ex (V/m) @ t=0.44
4.925769978554311
% es.Ey (V/m) @ t=0.44
1.4729672582910285
% es.Ez (V/m) @ t=0.44
-5.395650447325149
% es.tEx (V/m) @ t=0.44
4.9257699785543085
% es.tEy (V/m) @ t=0.44
0
% es.tEz (V/m) @ t=0.44
-5.395650447325134
% V (V) @ t=0.44
0.006649066364352042
% es.normE (V/m) @ t=0.46
7.833468380472278
% es.EX (V/m) @ t=0.46
4.971048869127204
% es.EY (V/m) @ t=0.46
1.4865060736181317
% es.EZ (V/m) @ t=0.46
-5.44526176888235
% es.tEX (V/m) @ t=0.46
4.971048869127191
% es.tEY (V/m) @ t=0.46
0
% es.tEZ (V/m) @ t=0.46
-5.445261768882343
% es.Ex (V/m) @ t=0.46
4.971048869127204
% es.Ey (V/m) @ t=0.46
1.4865060736181317
% es.Ez (V/m) @ t=0.46
-5.44526176888235
% es.tEx (V/m) @ t=0.46
4.971048869127191
% es.tEy (V/m) @ t=0.46
0
% es.tEz (V/m) @ t=0.46
-5.445261768882343
% V (V) @ t=0.46
0.006710218532564605
% es.normE (V/m) @ t=0.48
7.904829874866799
% es.EX (V/m) @ t=0.48
5.016327759700089
% es.EY (V/m) @ t=0.48
1.5000448889452476
% es.EZ (V/m) @ t=0.48
-5.494873090439553
% es.tEX (V/m) @ t=0.48
5.016327759700083
% es.tEY (V/m) @ t=0.48
0
% es.tEZ (V/m) @ t=0.48
-5.494873090439539
% es.Ex (V/m) @ t=0.48
5.016327759700089
% es.Ey (V/m) @ t=0.48
1.5000448889452476
% es.Ez (V/m) @ t=0.48
-5.494873090439553
% es.tEx (V/m) @ t=0.48
5.016327759700083
% es.tEy (V/m) @ t=0.48
0
% es.tEz (V/m) @ t=0.48
-5.494873090439539
% V (V) @ t=0.48
0.006771370700777166
% es.normE (V/m) @ t=0.5
7.976191369272499
% es.EX (V/m) @ t=0.5
5.061606650272967
% es.EY (V/m) @ t=0.5
1.5135837042723543
% es.EZ (V/m) @ t=0.5
-5.544484411996762
% es.tEX (V/m) @ t=0.5
5.061606650272961
% es.tEY (V/m) @ t=0.5
0
% es.tEZ (V/m) @ t=0.5
-5.54448441199675
% es.Ex (V/m) @ t=0.5
5.061606650272967
% es.Ey (V/m) @ t=0.5
1.5135837042723543
% es.Ez (V/m) @ t=0.5
-5.544484411996762
% es.tEx (V/m) @ t=0.5
5.061606650272961
% es.tEy (V/m) @ t=0.5
0
% es.tEz (V/m) @ t=0.5
-5.54448441199675
% V (V) @ t=0.5
0.006832522868989728
% es.normE (V/m) @ t=0.52
8.047552863689106
% es.EX (V/m) @ t=0.52
5.106885540845862
% es.EY (V/m) @ t=0.52
1.5271225195994524
% es.EZ (V/m) @ t=0.52
-5.594095733553967
% es.tEX (V/m) @ t=0.52
5.1068855408458536
% es.tEY (V/m) @ t=0.52
0
% es.tEZ (V/m) @ t=0.52
-5.5940957335539565
% es.Ex (V/m) @ t=0.52
5.106885540845862
% es.Ey (V/m) @ t=0.52
1.5271225195994524
% es.Ez (V/m) @ t=0.52
-5.594095733553967
% es.tEx (V/m) @ t=0.52
5.1068855408458536
% es.tEy (V/m) @ t=0.52
0
% es.tEz (V/m) @ t=0.52
-5.5940957335539565
% V (V) @ t=0.52
0.006893675037202291
% es.normE (V/m) @ t=0.54
8.118914358116319
% es.EX (V/m) @ t=0.54
5.152164431418745
% es.EY (V/m) @ t=0.54
1.5406613349265805
% es.EZ (V/m) @ t=0.54
-5.643707055111176
% es.tEX (V/m) @ t=0.54
5.152164431418732
% es.tEY (V/m) @ t=0.54
0
% es.tEZ (V/m) @ t=0.54
-5.643707055111165
% es.Ex (V/m) @ t=0.54
5.152164431418745
% es.Ey (V/m) @ t=0.54
1.5406613349265805
% es.Ez (V/m) @ t=0.54
-5.643707055111176
% es.tEx (V/m) @ t=0.54
5.152164431418732
% es.tEy (V/m) @ t=0.54
0
% es.tEz (V/m) @ t=0.54
-5.643707055111165
% V (V) @ t=0.54
0.006954827205414851
% es.normE (V/m) @ t=0.56
8.195739699479262
% es.EX (V/m) @ t=0.56
5.2009130200522815
% es.EY (V/m) @ t=0.56
1.555238090978444
% es.EZ (V/m) @ t=0.56
-5.697114248278961
% es.tEX (V/m) @ t=0.56
5.200913020052268
% es.tEY (V/m) @ t=0.56
0
% es.tEZ (V/m) @ t=0.56
-5.697114248278947
% es.Ex (V/m) @ t=0.56
5.2009130200522815
% es.Ey (V/m) @ t=0.56
1.555238090978444
% es.Ez (V/m) @ t=0.56
-5.697114248278961
% es.tEx (V/m) @ t=0.56
5.200913020052268
% es.tEy (V/m) @ t=0.56
0
% es.tEz (V/m) @ t=0.56
-5.697114248278947
% V (V) @ t=0.56
0.007020651160300647
% es.normE (V/m) @ t=0.58
8.275406826922161
% es.EX (V/m) @ t=0.58
5.251466223598017
% es.EY (V/m) @ t=0.58
1.5703546874651269
% es.EZ (V/m) @ t=0.58
-5.752495701567798
% es.tEX (V/m) @ t=0.58
5.251466223598001
% es.tEY (V/m) @ t=0.58
0
% es.tEZ (V/m) @ t=0.58
-5.752495701567788
% es.Ex (V/m) @ t=0.58
5.251466223598017
% es.Ey (V/m) @ t=0.58
1.5703546874651269
% es.Ez (V/m) @ t=0.58
-5.752495701567798
% es.tEx (V/m) @ t=0.58
5.251466223598001
% es.tEy (V/m) @ t=0.58
0
% es.tEz (V/m) @ t=0.58
-5.752495701567788
% V (V) @ t=0.58
0.0070889049450303596
% es.normE (V/m) @ t=0.6
8.355073954366738
% es.EX (V/m) @ t=0.6
5.302019427143737
% es.EY (V/m) @ t=0.6
1.585471283951856
% es.EZ (V/m) @ t=0.6
-5.807877154856664
% es.tEX (V/m) @ t=0.6
5.302019427143729
% es.tEY (V/m) @ t=0.6
0
% es.tEZ (V/m) @ t=0.6
-5.807877154856653
% es.Ex (V/m) @ t=0.6
5.302019427143737
% es.Ey (V/m) @ t=0.6
1.585471283951856
% es.Ez (V/m) @ t=0.6
-5.807877154856664
% es.tEx (V/m) @ t=0.6
5.302019427143729
% es.tEy (V/m) @ t=0.6
0
% es.tEz (V/m) @ t=0.6
-5.807877154856653
% V (V) @ t=0.6
0.00715715872976007
% es.normE (V/m) @ t=0.62
8.434741081812918
% es.EX (V/m) @ t=0.62
5.352572630689471
% es.EY (V/m) @ t=0.62
1.6005878804385567
% es.EZ (V/m) @ t=0.62
-5.863258608145508
% es.tEX (V/m) @ t=0.62
5.352572630689465
% es.tEY (V/m) @ t=0.62
0
% es.tEZ (V/m) @ t=0.62
-5.863258608145497
% es.Ex (V/m) @ t=0.62
5.352572630689471
% es.Ey (V/m) @ t=0.62
1.6005878804385567
% es.Ez (V/m) @ t=0.62
-5.863258608145508
% es.tEx (V/m) @ t=0.62
5.352572630689465
% es.tEy (V/m) @ t=0.62
0
% es.tEz (V/m) @ t=0.62
-5.863258608145497
% V (V) @ t=0.62
0.007225412514489782
% es.normE (V/m) @ t=0.64
8.514408209260683
% es.EX (V/m) @ t=0.64
5.403125834235217
% es.EY (V/m) @ t=0.64
1.6157044769252824
% es.EZ (V/m) @ t=0.64
-5.918640061434363
% es.tEX (V/m) @ t=0.64
5.403125834235207
% es.tEY (V/m) @ t=0.64
0
% es.tEZ (V/m) @ t=0.64
-5.918640061434355
% es.Ex (V/m) @ t=0.64
5.403125834235217
% es.Ey (V/m) @ t=0.64
1.6157044769252824
% es.Ez (V/m) @ t=0.64
-5.918640061434363
% es.tEx (V/m) @ t=0.64
5.403125834235207
% es.tEy (V/m) @ t=0.64
0
% es.tEz (V/m) @ t=0.64
-5.918640061434355
% V (V) @ t=0.64
0.007293666299219494
% es.normE (V/m) @ t=0.66
8.594075336709942
% es.EX (V/m) @ t=0.66
5.453679037780941
% es.EY (V/m) @ t=0.66
1.6308210734119832
% es.EZ (V/m) @ t=0.66
-5.9740215147232
% es.tEX (V/m) @ t=0.66
5.4536790377809385
% es.tEY (V/m) @ t=0.66
0
% es.tEZ (V/m) @ t=0.66
-5.9740215147231925
% es.Ex (V/m) @ t=0.66
5.453679037780941
% es.Ey (V/m) @ t=0.66
1.6308210734119832
% es.Ez (V/m) @ t=0.66
-5.9740215147232
% es.tEx (V/m) @ t=0.66
5.4536790377809385
% es.tEy (V/m) @ t=0.66
0
% es.tEz (V/m) @ t=0.66
-5.9740215147231925
% V (V) @ t=0.66
0.007361920083949203
% es.normE (V/m) @ t=0.68
8.673742464160703
% es.EX (V/m) @ t=0.68
5.50423224132667
% es.EY (V/m) @ t=0.68
1.645937669898709
% es.EZ (V/m) @ t=0.68
-6.029402968012062
% es.tEX (V/m) @ t=0.68
5.50423224132666
% es.tEY (V/m) @ t=0.68
0
% es.tEZ (V/m) @ t=0.68
-6.02940296801205
% es.Ex (V/m) @ t=0.68
5.50423224132667
% es.Ey (V/m) @ t=0.68
1.645937669898709
% es.Ez (V/m) @ t=0.68
-6.029402968012062
% es.tEx (V/m) @ t=0.68
5.50423224132666
% es.tEy (V/m) @ t=0.68
0
% es.tEz (V/m) @ t=0.68
-6.02940296801205
% V (V) @ t=0.68
0.0074301738686789135
% es.normE (V/m) @ t=0.7
8.753409591612897
% es.EX (V/m) @ t=0.7
5.554785444872409
% es.EY (V/m) @ t=0.7
1.6610542663854053
% es.EZ (V/m) @ t=0.7
-6.08478442130091
% es.tEX (V/m) @ t=0.7
5.554785444872396
% es.tEY (V/m) @ t=0.7
0
% es.tEZ (V/m) @ t=0.7
-6.0847844213008955
% es.Ex (V/m) @ t=0.7
5.554785444872409
% es.Ey (V/m) @ t=0.7
1.6610542663854053
% es.Ez (V/m) @ t=0.7
-6.08478442130091
% es.tEx (V/m) @ t=0.7
5.554785444872396
% es.tEy (V/m) @ t=0.7
0
% es.tEz (V/m) @ t=0.7
-6.0847844213008955
% V (V) @ t=0.7
0.007498427653408627
% es.normE (V/m) @ t=0.72
8.833076719066483
% es.EX (V/m) @ t=0.72
5.605338648418153
% es.EY (V/m) @ t=0.72
1.676170862872099
% es.EZ (V/m) @ t=0.72
-6.140165874589743
% es.tEX (V/m) @ t=0.72
5.605338648418136
% es.tEY (V/m) @ t=0.72
0
% es.tEZ (V/m) @ t=0.72
-6.140165874589722
% es.Ex (V/m) @ t=0.72
5.605338648418153
% es.Ey (V/m) @ t=0.72
1.676170862872099
% es.Ez (V/m) @ t=0.72
-6.140165874589743
% es.tEx (V/m) @ t=0.72
5.605338648418136
% es.tEy (V/m) @ t=0.72
0
% es.tEz (V/m) @ t=0.72
-6.140165874589722
% V (V) @ t=0.72
0.0075666814381383386
% es.normE (V/m) @ t=0.74
8.912743846521456
% es.EX (V/m) @ t=0.74
5.655891851963877
% es.EY (V/m) @ t=0.74
1.6912874593588496
% es.EZ (V/m) @ t=0.74
-6.19554732787862
% es.tEX (V/m) @ t=0.74
5.65589185196386
% es.tEY (V/m) @ t=0.74
0
% es.tEZ (V/m) @ t=0.74
-6.195547327878598
% es.Ex (V/m) @ t=0.74
5.655891851963877
% es.Ey (V/m) @ t=0.74
1.6912874593588496
% es.Ez (V/m) @ t=0.74
-6.19554732787862
% es.tEx (V/m) @ t=0.74
5.65589185196386
% es.tEy (V/m) @ t=0.74
0
% es.tEz (V/m) @ t=0.74
-6.195547327878598
% V (V) @ t=0.74
0.007634935222868049
% es.normE (V/m) @ t=0.76
8.99241097397773
% es.EX (V/m) @ t=0.76
5.706445055509611
% es.EY (V/m) @ t=0.76
1.7064040558455185
% es.EZ (V/m) @ t=0.76
-6.25092878116746
% es.tEX (V/m) @ t=0.76
5.706445055509603
% es.tEY (V/m) @ t=0.76
0
% es.tEZ (V/m) @ t=0.76
-6.250928781167445
% es.Ex (V/m) @ t=0.76
5.706445055509611
% es.Ey (V/m) @ t=0.76
1.7064040558455185
% es.Ez (V/m) @ t=0.76
-6.25092878116746
% es.tEx (V/m) @ t=0.76
5.706445055509603
% es.tEy (V/m) @ t=0.76
0
% es.tEz (V/m) @ t=0.76
-6.250928781167445
% V (V) @ t=0.76
0.007703189007597761
% es.normE (V/m) @ t=0.78
9.072078101435313
% es.EX (V/m) @ t=0.78
5.756998259055359
% es.EY (V/m) @ t=0.78
1.7215206523322402
% es.EZ (V/m) @ t=0.78
-6.3063102344563156
% es.tEX (V/m) @ t=0.78
5.756998259055349
% es.tEY (V/m) @ t=0.78
0
% es.tEZ (V/m) @ t=0.78
-6.3063102344563005
% es.Ex (V/m) @ t=0.78
5.756998259055359
% es.Ey (V/m) @ t=0.78
1.7215206523322402
% es.Ez (V/m) @ t=0.78
-6.3063102344563156
% es.tEx (V/m) @ t=0.78
5.756998259055349
% es.tEy (V/m) @ t=0.78
0
% es.tEz (V/m) @ t=0.78
-6.3063102344563005
% V (V) @ t=0.78
0.007771442792327474
% es.normE (V/m) @ t=0.8
9.15174522889414
% es.EX (V/m) @ t=0.8
5.807551462601076
% es.EY (V/m) @ t=0.8
1.7366372488189619
% es.EZ (V/m) @ t=0.8
-6.361691687745159
% es.tEX (V/m) @ t=0.8
5.807551462601061
% es.tEY (V/m) @ t=0.8
0
% es.tEZ (V/m) @ t=0.8
-6.361691687745145
% es.Ex (V/m) @ t=0.8
5.807551462601076
% es.Ey (V/m) @ t=0.8
1.7366372488189619
% es.Ez (V/m) @ t=0.8
-6.361691687745159
% es.tEx (V/m) @ t=0.8
5.807551462601061
% es.tEy (V/m) @ t=0.8
0
% es.tEz (V/m) @ t=0.8
-6.361691687745145
% V (V) @ t=0.8
0.007839696577057182
% es.normE (V/m) @ t=0.82
9.231412356354202
% es.EX (V/m) @ t=0.82
5.858104666146809
% es.EY (V/m) @ t=0.82
1.7517538453056627
% es.EZ (V/m) @ t=0.82
-6.417073141034011
% es.tEX (V/m) @ t=0.82
5.8581046661467955
% es.tEY (V/m) @ t=0.82
0
% es.tEZ (V/m) @ t=0.82
-6.417073141034003
% es.Ex (V/m) @ t=0.82
5.858104666146809
% es.Ey (V/m) @ t=0.82
1.7517538453056627
% es.Ez (V/m) @ t=0.82
-6.417073141034011
% es.tEx (V/m) @ t=0.82
5.8581046661467955
% es.tEy (V/m) @ t=0.82
0
% es.tEz (V/m) @ t=0.82
-6.417073141034003
% V (V) @ t=0.82
0.007907950361786893
% es.normE (V/m) @ t=0.84
9.320469654247702
% es.EX (V/m) @ t=0.84
5.9146122331416375
% es.EY (V/m) @ t=0.84
1.7686502509324038
% es.EZ (V/m) @ t=0.84
-6.478986156733352
% es.tEX (V/m) @ t=0.84
5.914612233141629
% es.tEY (V/m) @ t=0.84
0
% es.tEZ (V/m) @ t=0.84
-6.478986156733344
% es.Ex (V/m) @ t=0.84
5.9146122331416375
% es.Ey (V/m) @ t=0.84
1.7686502509324038
% es.Ez (V/m) @ t=0.84
-6.478986156733352
% es.tEx (V/m) @ t=0.84
5.914612233141629
% es.tEy (V/m) @ t=0.84
0
% es.tEz (V/m) @ t=0.84
-6.478986156733344
% V (V) @ t=0.84
0.007984264225822928
% es.normE (V/m) @ t=0.86
9.409604805988591
% es.EX (V/m) @ t=0.86
5.971169167721916
% es.EY (V/m) @ t=0.86
1.785561412944201
% es.EZ (V/m) @ t=0.86
-6.540953325570707
% es.tEX (V/m) @ t=0.86
5.971169167721906
% es.tEY (V/m) @ t=0.86
0
% es.tEZ (V/m) @ t=0.86
-6.540953325570699
% es.Ex (V/m) @ t=0.86
5.971169167721916
% es.Ey (V/m) @ t=0.86
1.785561412944201
% es.Ez (V/m) @ t=0.86
-6.540953325570707
% es.tEx (V/m) @ t=0.86
5.971169167721906
% es.tEy (V/m) @ t=0.86
0
% es.tEz (V/m) @ t=0.86
-6.540953325570699
% V (V) @ t=0.86
0.008060644915919771
% es.normE (V/m) @ t=0.88
9.498739957739595
% es.EX (V/m) @ t=0.88
6.02772610230218
% es.EY (V/m) @ t=0.88
1.8024725749560093
% es.EZ (V/m) @ t=0.88
-6.6029204944080515
% es.tEX (V/m) @ t=0.88
6.02772610230217
% es.tEY (V/m) @ t=0.88
0
% es.tEZ (V/m) @ t=0.88
-6.602920494408036
% es.Ex (V/m) @ t=0.88
6.02772610230218
% es.Ey (V/m) @ t=0.88
1.8024725749560093
% es.Ez (V/m) @ t=0.88
-6.6029204944080515
% es.tEx (V/m) @ t=0.88
6.02772610230217
% es.tEy (V/m) @ t=0.88
0
% es.tEz (V/m) @ t=0.88
-6.602920494408036
% V (V) @ t=0.88
0.008137025606016614
% es.normE (V/m) @ t=0.9
9.587875109500459
% es.EX (V/m) @ t=0.9
6.0842830368824465
% es.EY (V/m) @ t=0.9
1.819383736967803
% es.EZ (V/m) @ t=0.9
-6.6648876632454055
% es.tEX (V/m) @ t=0.9
6.084283036882437
% es.tEY (V/m) @ t=0.9
0
% es.tEZ (V/m) @ t=0.9
-6.664887663245384
% es.Ex (V/m) @ t=0.9
6.0842830368824465
% es.Ey (V/m) @ t=0.9
1.819383736967803
% es.Ez (V/m) @ t=0.9
-6.6648876632454055
% es.tEx (V/m) @ t=0.9
6.084283036882437
% es.tEy (V/m) @ t=0.9
0
% es.tEz (V/m) @ t=0.9
-6.664887663245384
% V (V) @ t=0.9
0.00821340629611346
% es.normE (V/m) @ t=0.92
9.677010261270889
% es.EX (V/m) @ t=0.92
6.140839971462746
% es.EY (V/m) @ t=0.92
1.83629489897959
% es.EZ (V/m) @ t=0.92
-6.726854832082726
% es.tEX (V/m) @ t=0.92
6.1408399714627215
% es.tEY (V/m) @ t=0.92
0
% es.tEZ (V/m) @ t=0.92
-6.726854832082711
% es.Ex (V/m) @ t=0.92
6.140839971462746
% es.Ey (V/m) @ t=0.92
1.83629489897959
% es.Ez (V/m) @ t=0.92
-6.726854832082726
% es.tEx (V/m) @ t=0.92
6.1408399714627215
% es.tEy (V/m) @ t=0.92
0
% es.tEz (V/m) @ t=0.92
-6.726854832082711
% V (V) @ t=0.92
0.008289786986210303
% es.normE (V/m) @ t=0.94
9.766145413050632
% es.EX (V/m) @ t=0.94
6.197396906043025
% es.EY (V/m) @ t=0.94
1.8532060609913765
% es.EZ (V/m) @ t=0.94
-6.788822000920051
% es.tEX (V/m) @ t=0.94
6.19739690604301
% es.tEY (V/m) @ t=0.94
0
% es.tEZ (V/m) @ t=0.94
-6.788822000920037
% es.Ex (V/m) @ t=0.94
6.197396906043025
% es.Ey (V/m) @ t=0.94
1.8532060609913765
% es.Ez (V/m) @ t=0.94
-6.788822000920051
% es.tEx (V/m) @ t=0.94
6.19739690604301
% es.tEy (V/m) @ t=0.94
0
% es.tEz (V/m) @ t=0.94
-6.788822000920037
% V (V) @ t=0.94
0.008366167676307146
% es.normE (V/m) @ t=0.96
9.855280564839447
% es.EX (V/m) @ t=0.96
6.253953840623292
% es.EY (V/m) @ t=0.96
1.8701172230031742
% es.EZ (V/m) @ t=0.96
-6.8507891697574
% es.tEX (V/m) @ t=0.96
6.253953840623284
% es.tEY (V/m) @ t=0.96
0
% es.tEZ (V/m) @ t=0.96
-6.850789169757385
% es.Ex (V/m) @ t=0.96
6.253953840623292
% es.Ey (V/m) @ t=0.96
1.8701172230031742
% es.Ez (V/m) @ t=0.96
-6.8507891697574
% es.tEx (V/m) @ t=0.96
6.253953840623284
% es.tEy (V/m) @ t=0.96
0
% es.tEz (V/m) @ t=0.96
-6.850789169757385
% V (V) @ t=0.96
0.00844254836640399
% es.normE (V/m) @ t=0.98
9.944415716637081
% es.EX (V/m) @ t=0.98
6.310510775203576
% es.EY (V/m) @ t=0.98
1.8870283850149825
% es.EZ (V/m) @ t=0.98
-6.912756338594733
% es.tEX (V/m) @ t=0.98
6.310510775203564
% es.tEY (V/m) @ t=0.98
0
% es.tEZ (V/m) @ t=0.98
-6.912756338594718
% es.Ex (V/m) @ t=0.98
6.310510775203576
% es.Ey (V/m) @ t=0.98
1.8870283850149825
% es.Ez (V/m) @ t=0.98
-6.912756338594733
% es.tEx (V/m) @ t=0.98
6.310510775203564
% es.tEy (V/m) @ t=0.98
0
% es.tEz (V/m) @ t=0.98
-6.912756338594718
% V (V) @ t=0.98
0.008518929056500833
% es.normE (V/m) @ t=1
10.033550868443275
% es.EX (V/m) @ t=1
6.367067709783843
% es.EY (V/m) @ t=1
1.9039395470267904
% es.EZ (V/m) @ t=1
-6.974723507432053
% es.tEX (V/m) @ t=1
6.367067709783825
% es.tEY (V/m) @ t=1
0
% es.tEZ (V/m) @ t=1
-6.974723507432038
% es.Ex (V/m) @ t=1
6.367067709783843
% es.Ey (V/m) @ t=1
1.9039395470267904
% es.Ez (V/m) @ t=1
-6.974723507432053
% es.tEx (V/m) @ t=1
6.367067709783825
% es.tEy (V/m) @ t=1
0
% es.tEz (V/m) @ t=1
-6.974723507432038
% V (V) @ t=1
0.008595309746597678
% es.normE (V/m) @ t=1.02
10.122686020257856
% es.EX (V/m) @ t=1.02
6.423624644364117
% es.EY (V/m) @ t=1.02
1.9208507090385667
% es.EZ (V/m) @ t=1.02
-7.0366906762694
% es.tEX (V/m) @ t=1.02
6.423624644364105
% es.tEY (V/m) @ t=1.02
0
% es.tEZ (V/m) @ t=1.02
-7.036690676269393
% es.Ex (V/m) @ t=1.02
6.423624644364117
% es.Ey (V/m) @ t=1.02
1.9208507090385667
% es.Ez (V/m) @ t=1.02
-7.0366906762694
% es.tEx (V/m) @ t=1.02
6.423624644364105
% es.tEy (V/m) @ t=1.02
0
% es.tEz (V/m) @ t=1.02
-7.036690676269393
% V (V) @ t=1.02
0.00867169043669452
% es.normE (V/m) @ t=1.04
10.211821172080596
% es.EX (V/m) @ t=1.04
6.480181578944405
% es.EY (V/m) @ t=1.04
1.9377618710503786
% es.EZ (V/m) @ t=1.04
-7.098657845106769
% es.tEX (V/m) @ t=1.04
6.480181578944373
% es.tEY (V/m) @ t=1.04
0
% es.tEZ (V/m) @ t=1.04
-7.098657845106755
% es.Ex (V/m) @ t=1.04
6.480181578944405
% es.Ey (V/m) @ t=1.04
1.9377618710503786
% es.Ez (V/m) @ t=1.04
-7.098657845106769
% es.tEx (V/m) @ t=1.04
6.480181578944373
% es.tEy (V/m) @ t=1.04
0
% es.tEz (V/m) @ t=1.04
-7.098657845106755
% V (V) @ t=1.04
0.008748071126791363
% es.normE (V/m) @ t=1.06
10.300956323911219
% es.EX (V/m) @ t=1.06
6.536738513524676
% es.EY (V/m) @ t=1.06