% Model:              1 neuron.mph
% Version:            COMSOL 6.1.0.252
% Date:               Mar 18 2023, 11:33
% Dimension:          0
% Nodes:              14017
% Expressions:        14017
% Description:        Electric field norm, Electric field, X component, Electric field, Y component, Electric field, Z component, Tangential electric field, X component, Tangential electric field, Y component, Tangential electric field, Z component, Electric field, x component, Electric field, y component, Electric field, z component, Tangential electric field, x component, Tangential electric field, y component, Tangential electric field, z component, Electric potential
% Length unit:        mm
% x
1.66
% y
12.200000000000001
% z
1.66
% es.normE (V/m) @ t=0
20.63882383993365
% es.EX (V/m) @ t=0
-9.746840794890474
% es.EY (V/m) @ t=0
7.819983832852227
% es.EZ (V/m) @ t=0
9.374240411689662
% es.tEX (V/m) @ t=0
-9.746840794890474
% es.tEY (V/m) @ t=0
0
% es.tEZ (V/m) @ t=0
9.374240411689641
% es.Ex (V/m) @ t=0
-9.746840794890474
% es.Ey (V/m) @ t=0
7.819983832852227
% es.Ez (V/m) @ t=0
9.374240411689662
% es.tEx (V/m) @ t=0
-9.746840794890474
% es.tEy (V/m) @ t=0
0
% es.tEz (V/m) @ t=0
9.374240411689641
% V (V) @ t=0
0.006477406217488449
% es.normE (V/m) @ t=0.02
17.82594378447031
% es.EX (V/m) @ t=0.02
-8.418436908563649
% es.EY (V/m) @ t=0.02
6.754192653650467
% es.EZ (V/m) @ t=0.02
8.096618461112804
% es.tEX (V/m) @ t=0.02
-8.418436908563638
% es.tEY (V/m) @ t=0.02
0
% es.tEZ (V/m) @ t=0.02
8.096618461112826
% es.Ex (V/m) @ t=0.02
-8.418436908563649
% es.Ey (V/m) @ t=0.02
6.754192653650467
% es.Ez (V/m) @ t=0.02
8.096618461112804
% es.tEx (V/m) @ t=0.02
-8.418436908563638
% es.tEy (V/m) @ t=0.02
0
% es.tEz (V/m) @ t=0.02
8.096618461112826
% V (V) @ t=0.02
0.005594595892748001
% es.normE (V/m) @ t=0.04
17.989879206151542
% es.EX (V/m) @ t=0.04
-8.495856666573594
% es.EY (V/m) @ t=0.04
6.816307264568248
% es.EZ (V/m) @ t=0.04
8.171078593276604
% es.tEX (V/m) @ t=0.04
-8.495856666573584
% es.tEY (V/m) @ t=0.04
0
% es.tEZ (V/m) @ t=0.04
8.171078593276604
% es.Ex (V/m) @ t=0.04
-8.495856666573594
% es.Ey (V/m) @ t=0.04
6.816307264568248
% es.Ez (V/m) @ t=0.04
8.171078593276604
% es.tEx (V/m) @ t=0.04
-8.495856666573584
% es.tEy (V/m) @ t=0.04
0
% es.tEz (V/m) @ t=0.04
8.171078593276604
% V (V) @ t=0.04
0.005646046319920575
% es.normE (V/m) @ t=0.06
18.155303188504682
% es.EX (V/m) @ t=0.06
-8.573979385131928
% es.EY (V/m) @ t=0.06
6.878985872919614
% es.EZ (V/m) @ t=0.06
8.246214876650921
% es.tEX (V/m) @ t=0.06
-8.57397938513192
% es.tEY (V/m) @ t=0.06
0
% es.tEZ (V/m) @ t=0.06
8.246214876650953
% es.Ex (V/m) @ t=0.06
-8.573979385131928
% es.Ey (V/m) @ t=0.06
6.878985872919614
% es.Ez (V/m) @ t=0.06
8.246214876650921
% es.tEx (V/m) @ t=0.06
-8.57397938513192
% es.tEy (V/m) @ t=0.06
0
% es.tEz (V/m) @ t=0.06
8.246214876650953
% V (V) @ t=0.06
0.005697963926832143
% es.normE (V/m) @ t=0.08
18.323227164403725
% es.EX (V/m) @ t=0.08
-8.653282748243
% es.EY (V/m) @ t=0.08
6.942611722890003
% es.EZ (V/m) @ t=0.08
8.322486661190975
% es.tEX (V/m) @ t=0.08
-8.653282748242994
% es.tEY (V/m) @ t=0.08
0
% es.tEZ (V/m) @ t=0.08
8.322486661190993
% es.Ex (V/m) @ t=0.08
-8.653282748243
% es.Ey (V/m) @ t=0.08
6.942611722890003
% es.Ez (V/m) @ t=0.08
8.322486661190975
% es.tEx (V/m) @ t=0.08
-8.653282748242994
% es.tEy (V/m) @ t=0.08
0
% es.tEz (V/m) @ t=0.08
8.322486661190993
% V (V) @ t=0.08
0.005750666145760594
% es.normE (V/m) @ t=0.1
18.492939971018842
% es.EX (V/m) @ t=0.1
-8.733430902831252
% es.EY (V/m) @ t=0.1
7.006915356571632
% es.EZ (V/m) @ t=0.1
8.399570935573966
% es.tEX (V/m) @ t=0.1
-8.733430902831252
% es.tEY (V/m) @ t=0.1
0
% es.tEZ (V/m) @ t=0.1
8.399570935573962
% es.Ex (V/m) @ t=0.1
-8.733430902831252
% es.Ey (V/m) @ t=0.1
7.006915356571632
% es.Ez (V/m) @ t=0.1
8.399570935573966
% es.tEx (V/m) @ t=0.1
-8.733430902831252
% es.tEy (V/m) @ t=0.1
0
% es.tEz (V/m) @ t=0.1
8.399570935573962
% V (V) @ t=0.1
0.005803929781368794
% es.normE (V/m) @ t=0.12
18.66265277763401
% es.EX (V/m) @ t=0.12
-8.813579057419581
% es.EY (V/m) @ t=0.12
7.071218990253239
% es.EZ (V/m) @ t=0.12
8.476655209957023
% es.tEX (V/m) @ t=0.12
-8.81357905741957
% es.tEY (V/m) @ t=0.12
0
% es.tEZ (V/m) @ t=0.12
8.476655209957016
% es.Ex (V/m) @ t=0.12
-8.813579057419581
% es.Ey (V/m) @ t=0.12
7.071218990253239
% es.Ez (V/m) @ t=0.12
8.476655209957023
% es.tEx (V/m) @ t=0.12
-8.81357905741957
% es.tEy (V/m) @ t=0.12
0
% es.tEz (V/m) @ t=0.12
8.476655209957016
% V (V) @ t=0.12
0.005857193416976993
% es.normE (V/m) @ t=0.14
18.83396138645316
% es.EX (V/m) @ t=0.14
-8.89448081089104
% es.EY (V/m) @ t=0.14
7.136127250605515
% es.EZ (V/m) @ t=0.14
8.554464357836103
% es.tEX (V/m) @ t=0.14
-8.894480810891046
% es.tEY (V/m) @ t=0.14
0
% es.tEZ (V/m) @ t=0.14
8.55446435783611
% es.Ex (V/m) @ t=0.14
-8.89448081089104
% es.Ey (V/m) @ t=0.14
7.136127250605515
% es.Ez (V/m) @ t=0.14
8.554464357836103
% es.tEx (V/m) @ t=0.14
-8.894480810891046
% es.tEy (V/m) @ t=0.14
0
% es.tEz (V/m) @ t=0.14
8.55446435783611
% V (V) @ t=0.14
0.005910957890044563
% es.normE (V/m) @ t=0.16
19.01275159556929
% es.EX (V/m) @ t=0.16
-8.978915662395636
% es.EY (V/m) @ t=0.16
7.203870182489975
% es.EZ (V/m) @ t=0.16
8.63567193050098
% es.tEX (V/m) @ t=0.16
-8.978915662395629
% es.tEY (V/m) @ t=0.16
0
% es.tEZ (V/m) @ t=0.16
8.63567193050099
% es.Ex (V/m) @ t=0.16
-8.978915662395636
% es.Ey (V/m) @ t=0.16
7.203870182489975
% es.Ez (V/m) @ t=0.16
8.63567193050098
% es.tEx (V/m) @ t=0.16
-8.978915662395629
% es.tEy (V/m) @ t=0.16
0
% es.tEz (V/m) @ t=0.16
8.63567193050099
% V (V) @ t=0.16
0.005967070439631374
% es.normE (V/m) @ t=0.18
19.191541804685357
% es.EX (V/m) @ t=0.18
-9.063350513900176
% es.EY (V/m) @ t=0.18
7.271613114374404
% es.EZ (V/m) @ t=0.18
8.716879503165863
% es.tEX (V/m) @ t=0.18
-9.063350513900183
% es.tEY (V/m) @ t=0.18
0
% es.tEZ (V/m) @ t=0.18
8.716879503165899
% es.Ex (V/m) @ t=0.18
-9.063350513900176
% es.Ey (V/m) @ t=0.18
7.271613114374404
% es.Ez (V/m) @ t=0.18
8.716879503165863
% es.tEx (V/m) @ t=0.18
-9.063350513900183
% es.tEy (V/m) @ t=0.18
0
% es.tEz (V/m) @ t=0.18
8.716879503165899
% V (V) @ t=0.18
0.006023182989218187
% es.normE (V/m) @ t=0.2
19.370332013801544
% es.EX (V/m) @ t=0.2
-9.147785365404772
% es.EY (V/m) @ t=0.2
7.3393560462588745
% es.EZ (V/m) @ t=0.2
8.798087075830797
% es.tEX (V/m) @ t=0.2
-9.14778536540478
% es.tEY (V/m) @ t=0.2
0
% es.tEZ (V/m) @ t=0.2
8.79808707583075
% es.Ex (V/m) @ t=0.2
-9.147785365404772
% es.Ey (V/m) @ t=0.2
7.3393560462588745
% es.Ez (V/m) @ t=0.2
8.798087075830797
% es.tEx (V/m) @ t=0.2
-9.14778536540478
% es.tEy (V/m) @ t=0.2
0
% es.tEz (V/m) @ t=0.2
8.79808707583075
% V (V) @ t=0.2
0.006079295538804998
% es.normE (V/m) @ t=0.22
19.549122222917642
% es.EX (V/m) @ t=0.22
-9.232220216909333
% es.EY (V/m) @ t=0.22
7.407098978143349
% es.EZ (V/m) @ t=0.22
8.879294648495659
% es.tEX (V/m) @ t=0.22
-9.23222021690933
% es.tEY (V/m) @ t=0.22
0
% es.tEZ (V/m) @ t=0.22
8.879294648495659
% es.Ex (V/m) @ t=0.22
-9.232220216909333
% es.Ey (V/m) @ t=0.22
7.407098978143349
% es.Ez (V/m) @ t=0.22
8.879294648495659
% es.tEx (V/m) @ t=0.22
-9.23222021690933
% es.tEy (V/m) @ t=0.22
0
% es.tEz (V/m) @ t=0.22
8.879294648495659
% V (V) @ t=0.22
0.00613540808839181
% es.normE (V/m) @ t=0.24
19.72791243203378
% es.EX (V/m) @ t=0.24
-9.316655068413901
% es.EY (V/m) @ t=0.24
7.474841910027802
% es.EZ (V/m) @ t=0.24
8.960502221160521
% es.tEX (V/m) @ t=0.24
-9.316655068413883
% es.tEY (V/m) @ t=0.24
0
% es.tEZ (V/m) @ t=0.24
8.960502221160539
% es.Ex (V/m) @ t=0.24
-9.316655068413901
% es.Ey (V/m) @ t=0.24
7.474841910027802
% es.Ez (V/m) @ t=0.24
8.960502221160521
% es.tEx (V/m) @ t=0.24
-9.316655068413883
% es.tEy (V/m) @ t=0.24
0
% es.tEz (V/m) @ t=0.24
8.960502221160539
% V (V) @ t=0.24
0.006191520637978622
% es.normE (V/m) @ t=0.26
19.9067026411499
% es.EX (V/m) @ t=0.26
-9.401089919918455
% es.EY (V/m) @ t=0.26
7.542584841912241
% es.EZ (V/m) @ t=0.26
9.041709793825412
% es.tEX (V/m) @ t=0.26
-9.401089919918434
% es.tEY (V/m) @ t=0.26
0
% es.tEZ (V/m) @ t=0.26
9.041709793825419
% es.Ex (V/m) @ t=0.26
-9.401089919918455
% es.Ey (V/m) @ t=0.26
7.542584841912241
% es.Ez (V/m) @ t=0.26
9.041709793825412
% es.tEx (V/m) @ t=0.26
-9.401089919918434
% es.tEy (V/m) @ t=0.26
0
% es.tEz (V/m) @ t=0.26
9.041709793825419
% V (V) @ t=0.26
0.006247633187565432
% es.normE (V/m) @ t=0.28
20.09295349443738
% es.EX (V/m) @ t=0.28
-9.48904015887392
% es.EY (V/m) @ t=0.28
7.613150027083492
% es.EZ (V/m) @ t=0.28
9.12631983535508
% es.tEX (V/m) @ t=0.28
-9.489040158873951
% es.tEY (V/m) @ t=0.28
0
% es.tEZ (V/m) @ t=0.28
9.126319835355105
% es.Ex (V/m) @ t=0.28
-9.48904015887392
% es.Ey (V/m) @ t=0.28
7.613150027083492
% es.Ez (V/m) @ t=0.28
9.12631983535508
% es.tEx (V/m) @ t=0.28
-9.489040158873951
% es.tEy (V/m) @ t=0.28
0
% es.tEz (V/m) @ t=0.28
9.126319835355105
% V (V) @ t=0.28
0.006306087691700033
% es.normE (V/m) @ t=0.3
20.292377121331775
% es.EX (V/m) @ t=0.3
-9.583197288510064
% es.EY (V/m) @ t=0.3
7.688698281082484
% es.EZ (V/m) @ t=0.3
9.216937394571659
% es.tEX (V/m) @ t=0.3
-9.583197288510085
% es.tEY (V/m) @ t=0.3
0
% es.tEZ (V/m) @ t=0.3
9.216937394571659
% es.Ex (V/m) @ t=0.3
-9.583197288510064
% es.Ey (V/m) @ t=0.3
7.688698281082484
% es.Ez (V/m) @ t=0.3
9.216937394571659
% es.tEx (V/m) @ t=0.3
-9.583197288510085
% es.tEy (V/m) @ t=0.3
0
% es.tEz (V/m) @ t=0.3
9.216937394571659
% V (V) @ t=0.3
0.006368677232458661
% es.normE (V/m) @ t=0.32
20.491800748329553
% es.EX (V/m) @ t=0.32
-9.677354418146194
% es.EY (V/m) @ t=0.32
7.764246535081458
% es.EZ (V/m) @ t=0.32
9.30755495378822
% es.tEX (V/m) @ t=0.32
-9.677354418146187
% es.tEY (V/m) @ t=0.32
0
% es.tEZ (V/m) @ t=0.32
9.307554953788213
% es.Ex (V/m) @ t=0.32
-9.677354418146194
% es.Ey (V/m) @ t=0.32
7.764246535081458
% es.Ez (V/m) @ t=0.32
9.30755495378822
% es.tEx (V/m) @ t=0.32
-9.677354418146187
% es.tEy (V/m) @ t=0.32
0
% es.tEz (V/m) @ t=0.32
9.307554953788213
% V (V) @ t=0.32
0.006431266773217291
% es.normE (V/m) @ t=0.34
20.691224375427673
% es.EX (V/m) @ t=0.34
-9.771511547782318
% es.EY (V/m) @ t=0.34
7.83979478908045
% es.EZ (V/m) @ t=0.34
9.398172513004798
% es.tEX (V/m) @ t=0.34
-9.771511547782303
% es.tEY (V/m) @ t=0.34
0
% es.tEZ (V/m) @ t=0.34
9.398172513004795
% es.Ex (V/m) @ t=0.34
-9.771511547782318
% es.Ey (V/m) @ t=0.34
7.83979478908045
% es.Ez (V/m) @ t=0.34
9.398172513004798
% es.tEx (V/m) @ t=0.34
-9.771511547782303
% es.tEy (V/m) @ t=0.34
0
% es.tEz (V/m) @ t=0.34
9.398172513004795
% V (V) @ t=0.34
0.00649385631397592
% es.normE (V/m) @ t=0.36
20.89064800262331
% es.EX (V/m) @ t=0.36
-9.86566867741844
% es.EY (V/m) @ t=0.36
7.915343043079403
% es.EZ (V/m) @ t=0.36
9.488790072221377
% es.tEX (V/m) @ t=0.36
-9.865668677418434
% es.tEY (V/m) @ t=0.36
0
% es.tEZ (V/m) @ t=0.36
9.488790072221349
% es.Ex (V/m) @ t=0.36
-9.86566867741844
% es.Ey (V/m) @ t=0.36
7.915343043079403
% es.Ez (V/m) @ t=0.36
9.488790072221377
% es.tEx (V/m) @ t=0.36
-9.865668677418434
% es.tEy (V/m) @ t=0.36
0
% es.tEz (V/m) @ t=0.36
9.488790072221349
% V (V) @ t=0.36
0.006556445854734549
% es.normE (V/m) @ t=0.38
21.090071629913698
% es.EX (V/m) @ t=0.38
-9.959825807054585
% es.EY (V/m) @ t=0.38
7.9908912970784165
% es.EZ (V/m) @ t=0.38
9.579407631437956
% es.tEX (V/m) @ t=0.38
-9.959825807054571
% es.tEY (V/m) @ t=0.38
0
% es.tEZ (V/m) @ t=0.38
9.57940763143796
% es.Ex (V/m) @ t=0.38
-9.959825807054585
% es.Ey (V/m) @ t=0.38
7.9908912970784165
% es.Ez (V/m) @ t=0.38
9.579407631437956
% es.tEx (V/m) @ t=0.38
-9.959825807054571
% es.tEy (V/m) @ t=0.38
0
% es.tEz (V/m) @ t=0.38
9.57940763143796
% V (V) @ t=0.38
0.006619035395493179
% es.normE (V/m) @ t=0.4
21.28949525729611
% es.EX (V/m) @ t=0.4
-10.053982936690709
% es.EY (V/m) @ t=0.4
8.066439551077394
% es.EZ (V/m) @ t=0.4
9.670025190654506
% es.tEX (V/m) @ t=0.4
-10.053982936690701
% es.tEY (V/m) @ t=0.4
0
% es.tEZ (V/m) @ t=0.4
9.670025190654513
% es.Ex (V/m) @ t=0.4
-10.053982936690709
% es.Ey (V/m) @ t=0.4
8.066439551077394
% es.Ez (V/m) @ t=0.4
9.670025190654506
% es.tEx (V/m) @ t=0.4
-10.053982936690701
% es.tEy (V/m) @ t=0.4
0
% es.tEz (V/m) @ t=0.4
9.670025190654513
% V (V) @ t=0.4
0.006681624936251808
% es.normE (V/m) @ t=0.42
21.488918884768047
% es.EX (V/m) @ t=0.42
-10.148140066326825
% es.EY (V/m) @ t=0.42
8.14198780507638
% es.EZ (V/m) @ t=0.42
9.760642749871057
% es.tEX (V/m) @ t=0.42
-10.148140066326818
% es.tEY (V/m) @ t=0.42
0
% es.tEZ (V/m) @ t=0.42
9.760642749871096
% es.Ex (V/m) @ t=0.42
-10.148140066326825
% es.Ey (V/m) @ t=0.42
8.14198780507638
% es.Ez (V/m) @ t=0.42
9.760642749871057
% es.tEx (V/m) @ t=0.42
-10.148140066326818
% es.tEy (V/m) @ t=0.42
0
% es.tEz (V/m) @ t=0.42
9.760642749871096
% V (V) @ t=0.42
0.0067442144770104365
% es.normE (V/m) @ t=0.44
21.68834251232706
% es.EX (V/m) @ t=0.44
-10.242297195962955
% es.EY (V/m) @ t=0.44
8.217536059075314
% es.EZ (V/m) @ t=0.44
9.851260309087678
% es.tEX (V/m) @ t=0.44
-10.242297195962934
% es.tEY (V/m) @ t=0.44
0
% es.tEZ (V/m) @ t=0.44
9.851260309087706
% es.Ex (V/m) @ t=0.44
-10.242297195962955
% es.Ey (V/m) @ t=0.44
8.217536059075314
% es.Ez (V/m) @ t=0.44
9.851260309087678
% es.tEx (V/m) @ t=0.44
-10.242297195962934
% es.tEy (V/m) @ t=0.44
0
% es.tEz (V/m) @ t=0.44
9.851260309087706
% V (V) @ t=0.44
0.006806804017769065
% es.normE (V/m) @ t=0.46
21.887766139970743
% es.EX (V/m) @ t=0.46
-10.336454325599071
% es.EY (V/m) @ t=0.46
8.293084313074356
% es.EZ (V/m) @ t=0.46
9.941877868304271
% es.tEX (V/m) @ t=0.46
-10.33645432559905
% es.tEY (V/m) @ t=0.46
0
% es.tEZ (V/m) @ t=0.46
9.94187786830426
% es.Ex (V/m) @ t=0.46
-10.336454325599071
% es.Ey (V/m) @ t=0.46
8.293084313074356
% es.Ez (V/m) @ t=0.46
9.941877868304271
% es.tEx (V/m) @ t=0.46
-10.33645432559905
% es.tEy (V/m) @ t=0.46
0
% es.tEz (V/m) @ t=0.46
9.94187786830426
% V (V) @ t=0.46
0.006869393558527696
% es.normE (V/m) @ t=0.48
22.087189767696785
% es.EX (V/m) @ t=0.48
-10.430611455235237
% es.EY (V/m) @ t=0.48
8.36863256707333
% es.EZ (V/m) @ t=0.48
10.032495427520846
% es.tEX (V/m) @ t=0.48
-10.430611455235223
% es.tEY (V/m) @ t=0.48
0
% es.tEZ (V/m) @ t=0.48
10.032495427520843
% es.Ex (V/m) @ t=0.48
-10.430611455235237
% es.Ey (V/m) @ t=0.48
8.36863256707333
% es.Ez (V/m) @ t=0.48
10.032495427520846
% es.tEx (V/m) @ t=0.48
-10.430611455235223
% es.tEy (V/m) @ t=0.48
0
% es.tEz (V/m) @ t=0.48
10.032495427520843
% V (V) @ t=0.48
0.006931983099286324
% es.normE (V/m) @ t=0.5
22.286613395502933
% es.EX (V/m) @ t=0.5
-10.524768584871353
% es.EY (V/m) @ t=0.5
8.444180821072298
% es.EZ (V/m) @ t=0.5
10.123112986737397
% es.tEX (V/m) @ t=0.5
-10.524768584871353
% es.tEY (V/m) @ t=0.5
0
% es.tEZ (V/m) @ t=0.5
10.123112986737397
% es.Ex (V/m) @ t=0.5
-10.524768584871353
% es.Ey (V/m) @ t=0.5
8.444180821072298
% es.Ez (V/m) @ t=0.5
10.123112986737397
% es.tEx (V/m) @ t=0.5
-10.524768584871353
% es.tEy (V/m) @ t=0.5
0
% es.tEz (V/m) @ t=0.5
10.123112986737397
% V (V) @ t=0.5
0.006994572640044953
% es.normE (V/m) @ t=0.52
22.486037023387144
% es.EX (V/m) @ t=0.52
-10.618925714507483
% es.EY (V/m) @ t=0.52
8.519729075071265
% es.EZ (V/m) @ t=0.52
10.21373054595399
% es.tEX (V/m) @ t=0.52
-10.618925714507487
% es.tEY (V/m) @ t=0.52
0
% es.tEZ (V/m) @ t=0.52
10.213730545953979
% es.Ex (V/m) @ t=0.52
-10.618925714507483
% es.Ey (V/m) @ t=0.52
8.519729075071265
% es.Ez (V/m) @ t=0.52
10.21373054595399
% es.tEx (V/m) @ t=0.52
-10.618925714507487
% es.tEy (V/m) @ t=0.52
0
% es.tEz (V/m) @ t=0.52
10.213730545953979
% V (V) @ t=0.52
0.007057162180803583
% es.normE (V/m) @ t=0.54
22.685460651347313
% es.EX (V/m) @ t=0.54
-10.713082844143585
% es.EY (V/m) @ t=0.54
8.5952773290703
% es.EZ (V/m) @ t=0.54
10.304348105170568
% es.tEX (V/m) @ t=0.54
-10.713082844143607
% es.tEY (V/m) @ t=0.54
0
% es.tEZ (V/m) @ t=0.54
10.30434810517059
% es.Ex (V/m) @ t=0.54
-10.713082844143585
% es.Ey (V/m) @ t=0.54
8.5952773290703
% es.Ez (V/m) @ t=0.54
10.304348105170568
% es.tEx (V/m) @ t=0.54
-10.713082844143607
% es.tEy (V/m) @ t=0.54
0
% es.tEz (V/m) @ t=0.54
10.30434810517059
% V (V) @ t=0.54
0.007119751721562212
% es.normE (V/m) @ t=0.56
22.901663384645403
% es.EX (V/m) @ t=0.56
-10.815184473276922
% es.EY (V/m) @ t=0.56
8.677194844860935
% es.EZ (V/m) @ t=0.56
10.40255132985121
% es.tEX (V/m) @ t=0.56
-10.815184473276943
% es.tEY (V/m) @ t=0.56
0
% es.tEZ (V/m) @ t=0.56
10.402551329851264
% es.Ex (V/m) @ t=0.56
-10.815184473276922
% es.Ey (V/m) @ t=0.56
8.677194844860935
% es.Ez (V/m) @ t=0.56
10.40255132985121
% es.tEx (V/m) @ t=0.56
-10.815184473276943
% es.tEy (V/m) @ t=0.56
0
% es.tEz (V/m) @ t=0.56
10.402551329851264
% V (V) @ t=0.56
0.007187606122839758
% es.normE (V/m) @ t=0.58
23.123973550085672
% es.EX (V/m) @ t=0.58
-10.920177823431395
% es.EY (V/m) @ t=0.58
8.761430710375045
% es.EZ (V/m) @ t=0.58
10.50351566343367
% es.tEX (V/m) @ t=0.58
-10.920177823431416
% es.tEY (V/m) @ t=0.58
0
% es.tEZ (V/m) @ t=0.58
10.50351566343366
% es.Ex (V/m) @ t=0.58
-10.920177823431395
% es.Ey (V/m) @ t=0.58
8.761430710375045
% es.Ez (V/m) @ t=0.58
10.50351566343367
% es.tEx (V/m) @ t=0.58
-10.920177823431416
% es.tEy (V/m) @ t=0.58
0
% es.tEz (V/m) @ t=0.58
10.50351566343366
% V (V) @ t=0.58
0.007257376882453169
% es.normE (V/m) @ t=0.6
23.34628371553959
% es.EX (V/m) @ t=0.6
-11.025171173585846
% es.EY (V/m) @ t=0.6
8.845666575889116
% es.EZ (V/m) @ t=0.6
10.60447999701605
% es.tEX (V/m) @ t=0.6
-11.02517117358584
% es.tEY (V/m) @ t=0.6
0
% es.tEZ (V/m) @ t=0.6
10.604479997016057
% es.Ex (V/m) @ t=0.6
-11.025171173585846
% es.Ey (V/m) @ t=0.6
8.845666575889116
% es.Ez (V/m) @ t=0.6
10.60447999701605
% es.tEx (V/m) @ t=0.6
-11.02517117358584
% es.tEy (V/m) @ t=0.6
0
% es.tEz (V/m) @ t=0.6
10.604479997016057
% V (V) @ t=0.6
0.007327147642066581
% es.normE (V/m) @ t=0.62
23.568593881006944
% es.EX (V/m) @ t=0.62
-11.130164523740277
% es.EY (V/m) @ t=0.62
8.92990244140319
% es.EZ (V/m) @ t=0.62
10.705444330598489
% es.tEX (V/m) @ t=0.62
-11.130164523740273
% es.tEY (V/m) @ t=0.62
0
% es.tEZ (V/m) @ t=0.62
10.705444330598482
% es.Ex (V/m) @ t=0.62
-11.130164523740277
% es.Ey (V/m) @ t=0.62
8.92990244140319
% es.Ez (V/m) @ t=0.62
10.705444330598489
% es.tEx (V/m) @ t=0.62
-11.130164523740273
% es.tEy (V/m) @ t=0.62
0
% es.tEz (V/m) @ t=0.62
10.705444330598482
% V (V) @ t=0.62
0.007396918401679992
% es.normE (V/m) @ t=0.64
23.790904046487206
% es.EX (V/m) @ t=0.64
-11.235157873894764
% es.EY (V/m) @ t=0.64
9.014138306917264
% es.EZ (V/m) @ t=0.64
10.806408664180907
% es.tEX (V/m) @ t=0.64
-11.23515787389475
% es.tEY (V/m) @ t=0.64
0
% es.tEZ (V/m) @ t=0.64
10.806408664180879
% es.Ex (V/m) @ t=0.64
-11.235157873894764
% es.Ey (V/m) @ t=0.64
9.014138306917264
% es.Ez (V/m) @ t=0.64
10.806408664180907
% es.tEx (V/m) @ t=0.64
-11.23515787389475
% es.tEy (V/m) @ t=0.64
0
% es.tEz (V/m) @ t=0.64
10.806408664180879
% V (V) @ t=0.64
0.0074666891612934026
% es.normE (V/m) @ t=0.66
24.013214211980078
% es.EX (V/m) @ t=0.66
-11.340151224049208
% es.EY (V/m) @ t=0.66
9.098374172431342
% es.EZ (V/m) @ t=0.66
10.907372997763286
% es.tEX (V/m) @ t=0.66
-11.340151224049194
% es.tEY (V/m) @ t=0.66
0
% es.tEZ (V/m) @ t=0.66
10.907372997763304
% es.Ex (V/m) @ t=0.66
-11.340151224049208
% es.Ey (V/m) @ t=0.66
9.098374172431342
% es.Ez (V/m) @ t=0.66
10.907372997763286
% es.tEx (V/m) @ t=0.66
-11.340151224049194
% es.tEy (V/m) @ t=0.66
0
% es.tEz (V/m) @ t=0.66
10.907372997763304
% V (V) @ t=0.66
0.007536459920906814
% es.normE (V/m) @ t=0.68
24.23552437748525
% es.EX (V/m) @ t=0.68
-11.445144574203674
% es.EY (V/m) @ t=0.68
9.182610037945423
% es.EZ (V/m) @ t=0.68
11.008337331345722
% es.tEX (V/m) @ t=0.68
-11.445144574203656
% es.tEY (V/m) @ t=0.68
0
% es.tEZ (V/m) @ t=0.68
11.008337331345729
% es.Ex (V/m) @ t=0.68
-11.445144574203674
% es.Ey (V/m) @ t=0.68
9.182610037945423
% es.Ez (V/m) @ t=0.68
11.008337331345722
% es.tEx (V/m) @ t=0.68
-11.445144574203656
% es.tEy (V/m) @ t=0.68
0
% es.tEz (V/m) @ t=0.68
11.008337331345729
% V (V) @ t=0.68
0.007606230680520226
% es.normE (V/m) @ t=0.7
24.457834543002384
% es.EX (V/m) @ t=0.7
-11.550137924358154
% es.EY (V/m) @ t=0.7
9.266845903459519
% es.EZ (V/m) @ t=0.7
11.109301664928154
% es.tEX (V/m) @ t=0.7
-11.55013792435815
% es.tEY (V/m) @ t=0.7
0
% es.tEZ (V/m) @ t=0.7
11.109301664928182
% es.Ex (V/m) @ t=0.7
-11.550137924358154
% es.Ey (V/m) @ t=0.7
9.266845903459519
% es.Ez (V/m) @ t=0.7
11.109301664928154
% es.tEx (V/m) @ t=0.7
-11.55013792435815
% es.tEy (V/m) @ t=0.7
0
% es.tEz (V/m) @ t=0.7
11.109301664928182
% V (V) @ t=0.7
0.007676001440133638
% es.normE (V/m) @ t=0.72
24.680144708531017
% es.EX (V/m) @ t=0.72
-11.655131274512577
% es.EY (V/m) @ t=0.72
9.35108176897359
% es.EZ (V/m) @ t=0.72
11.210265998510522
% es.tEX (V/m) @ t=0.72
-11.65513127451257
% es.tEY (V/m) @ t=0.72
0
% es.tEZ (V/m) @ t=0.72
11.210265998510522
% es.Ex (V/m) @ t=0.72
-11.655131274512577
% es.Ey (V/m) @ t=0.72
9.35108176897359
% es.Ez (V/m) @ t=0.72
11.210265998510522
% es.tEx (V/m) @ t=0.72
-11.65513127451257
% es.tEy (V/m) @ t=0.72
0
% es.tEz (V/m) @ t=0.72
11.210265998510522
% V (V) @ t=0.72
0.0077457721997470485
% es.normE (V/m) @ t=0.74
24.90245487407109
% es.EX (V/m) @ t=0.74
-11.760124624667014
% es.EY (V/m) @ t=0.74
9.4353176344877
% es.EZ (V/m) @ t=0.74
11.311230332093
% es.tEX (V/m) @ t=0.74
-11.760124624667007
% es.tEY (V/m) @ t=0.74
0
% es.tEZ (V/m) @ t=0.74
11.311230332093004
% es.Ex (V/m) @ t=0.74
-11.760124624667014
% es.Ey (V/m) @ t=0.74
9.4353176344877
% es.Ez (V/m) @ t=0.74
11.311230332093
% es.tEx (V/m) @ t=0.74
-11.760124624667007
% es.tEy (V/m) @ t=0.74
0
% es.tEz (V/m) @ t=0.74
11.311230332093004
% V (V) @ t=0.74
0.007815542959360459
% es.normE (V/m) @ t=0.76
25.124765039622062
% es.EX (V/m) @ t=0.76
-11.865117974821501
% es.EY (V/m) @ t=0.76
9.51955350000177
% es.EZ (V/m) @ t=0.76
11.412194665675376
% es.tEX (V/m) @ t=0.76
-11.865117974821494
% es.tEY (V/m) @ t=0.76
0
% es.tEZ (V/m) @ t=0.76
11.412194665675372
% es.Ex (V/m) @ t=0.76
-11.865117974821501
% es.Ey (V/m) @ t=0.76
9.51955350000177
% es.Ez (V/m) @ t=0.76
11.412194665675376
% es.tEx (V/m) @ t=0.76
-11.865117974821494
% es.tEy (V/m) @ t=0.76
0
% es.tEz (V/m) @ t=0.76
11.412194665675372
% V (V) @ t=0.76
0.007885313718973871
% es.normE (V/m) @ t=0.78
25.347075205183785
% es.EX (V/m) @ t=0.78
-11.97011132497596
% es.EY (V/m) @ t=0.78
9.603789365515809
% es.EZ (V/m) @ t=0.78
11.513158999257797
% es.tEX (V/m) @ t=0.78
-11.970111324975935
% es.tEY (V/m) @ t=0.78
0
% es.tEZ (V/m) @ t=0.78
11.513158999257797
% es.Ex (V/m) @ t=0.78
-11.97011132497596
% es.Ey (V/m) @ t=0.78
9.603789365515809
% es.Ez (V/m) @ t=0.78
11.513158999257797
% es.tEx (V/m) @ t=0.78
-11.970111324975935
% es.tEy (V/m) @ t=0.78
0
% es.tEz (V/m) @ t=0.78
11.513158999257797
% V (V) @ t=0.78
0.007955084478587282
% es.normE (V/m) @ t=0.8
25.56938537075594
% es.EX (V/m) @ t=0.8
-12.075104675130412
% es.EY (V/m) @ t=0.8
9.688025231029894
% es.EZ (V/m) @ t=0.8
11.614123332840233
% es.tEX (V/m) @ t=0.8
-12.075104675130394
% es.tEY (V/m) @ t=0.8
0
% es.tEZ (V/m) @ t=0.8
11.614123332840222
% es.Ex (V/m) @ t=0.8
-12.075104675130412
% es.Ey (V/m) @ t=0.8
9.688025231029894
% es.Ez (V/m) @ t=0.8
11.614123332840233
% es.tEx (V/m) @ t=0.8
-12.075104675130394
% es.tEy (V/m) @ t=0.8
0
% es.tEz (V/m) @ t=0.8
11.614123332840222
% V (V) @ t=0.8
0.008024855238200693
% es.normE (V/m) @ t=0.82
25.794439430326953
% es.EX (V/m) @ t=0.82
-12.181394877866396
% es.EY (V/m) @ t=0.82
9.773301338493262
% es.EZ (V/m) @ t=0.82
11.716332170226153
% es.tEX (V/m) @ t=0.82
-12.181394877866381
% es.tEY (V/m) @ t=0.82
0
% es.tEZ (V/m) @ t=0.82
11.716332170226138
% es.Ex (V/m) @ t=0.82
-12.181394877866396
% es.Ey (V/m) @ t=0.82
9.773301338493262
% es.Ez (V/m) @ t=0.82
11.716332170226153
% es.tEx (V/m) @ t=0.82
-12.181394877866381
% es.tEy (V/m) @ t=0.82
0
% es.tEz (V/m) @ t=0.82
11.716332170226138
% V (V) @ t=0.82
0.008095487097251566
% es.normE (V/m) @ t=0.84
26.04295544042637
% es.EX (V/m) @ t=0.84
-12.298773953274463
% es.EY (V/m) @ t=0.84
9.867472142769468
% es.EZ (V/m) @ t=0.84
11.829182266621622
% es.tEX (V/m) @ t=0.84
-12.298773953274456
% es.tEY (V/m) @ t=0.84
0
% es.tEZ (V/m) @ t=0.84
11.829182266621586
% es.Ex (V/m) @ t=0.84
-12.298773953274463
% es.Ey (V/m) @ t=0.84
9.867472142769468
% es.Ez (V/m) @ t=0.84
11.829182266621622
% es.tEx (V/m) @ t=0.84
-12.298773953274456
% es.tEy (V/m) @ t=0.84
0
% es.tEz (V/m) @ t=0.84
11.829182266621586
% V (V) @ t=0.84
0.008173481876464756
% es.normE (V/m) @ t=0.86
26.29147145057732
% es.EX (V/m) @ t=0.86
-12.41615302868258
% es.EY (V/m) @ t=0.86
9.961642947045668
% es.EZ (V/m) @ t=0.86
11.942032363017102
% es.tEX (V/m) @ t=0.86
-12.416153028682572
% es.tEY (V/m) @ t=0.86
0
% es.tEZ (V/m) @ t=0.86
11.942032363017091
% es.Ex (V/m) @ t=0.86
-12.41615302868258
% es.Ey (V/m) @ t=0.86
9.961642947045668
% es.Ez (V/m) @ t=0.86
11.942032363017102
% es.tEx (V/m) @ t=0.86
-12.416153028682572
% es.tEy (V/m) @ t=0.86
0
% es.tEz (V/m) @ t=0.86
11.942032363017091
% V (V) @ t=0.86
0.00825147665567795
% es.normE (V/m) @ t=0.88
26.539987460778406
% es.EX (V/m) @ t=0.88
-12.533532104090696
% es.EY (V/m) @ t=0.88
10.055813751321846
% es.EZ (V/m) @ t=0.88
12.054882459412582
% es.tEX (V/m) @ t=0.88
-12.533532104090675
% es.tEY (V/m) @ t=0.88
0
% es.tEZ (V/m) @ t=0.88
12.054882459412596
% es.Ex (V/m) @ t=0.88
-12.533532104090696
% es.Ey (V/m) @ t=0.88
10.055813751321846
% es.Ez (V/m) @ t=0.88
12.054882459412582
% es.tEx (V/m) @ t=0.88
-12.533532104090675
% es.tEy (V/m) @ t=0.88
0
% es.tEz (V/m) @ t=0.88
12.054882459412596
% V (V) @ t=0.88
0.008329471434891142
% es.normE (V/m) @ t=0.9
26.788503471028175
% es.EX (V/m) @ t=0.9
-12.65091117949877
% es.EY (V/m) @ t=0.9
10.14998455559807
% es.EZ (V/m) @ t=0.9
12.167732555808094
% es.tEX (V/m) @ t=0.9
-12.650911179498749
% es.tEY (V/m) @ t=0.9
0
% es.tEZ (V/m) @ t=0.9
12.1677325558081
% es.Ex (V/m) @ t=0.9
-12.65091117949877
% es.Ey (V/m) @ t=0.9
10.14998455559807
% es.Ez (V/m) @ t=0.9
12.167732555808094
% es.tEx (V/m) @ t=0.9
-12.650911179498749
% es.tEy (V/m) @ t=0.9
0
% es.tEz (V/m) @ t=0.9
12.1677325558081
% V (V) @ t=0.9
0.008407466214104334
% es.normE (V/m) @ t=0.92
27.037019481325245
% es.EX (V/m) @ t=0.92
-12.76829025490683
% es.EY (V/m) @ t=0.92
10.244155359874252
% es.EZ (V/m) @ t=0.92
12.280582652203563
% es.tEX (V/m) @ t=0.92
-12.768290254906816
% es.tEY (V/m) @ t=0.92
0
% es.tEZ (V/m) @ t=0.92
12.280582652203577
% es.Ex (V/m) @ t=0.92
-12.76829025490683
% es.Ey (V/m) @ t=0.92
10.244155359874252
% es.Ez (V/m) @ t=0.92
12.280582652203563
% es.tEx (V/m) @ t=0.92
-12.768290254906816
% es.tEy (V/m) @ t=0.92
0
% es.tEz (V/m) @ t=0.92
12.280582652203577
% V (V) @ t=0.92
0.008485460993317527
% es.normE (V/m) @ t=0.94
27.285535491668465
% es.EX (V/m) @ t=0.94
-12.885669330314968
% es.EY (V/m) @ t=0.94
10.338326164150484
% es.EZ (V/m) @ t=0.94
12.393432748599114
% es.tEX (V/m) @ t=0.94
-12.885669330314947
% es.tEY (V/m) @ t=0.94
0
% es.tEZ (V/m) @ t=0.94
12.39343274859911
% es.Ex (V/m) @ t=0.94
-12.885669330314968
% es.Ey (V/m) @ t=0.94
10.338326164150484
% es.Ez (V/m) @ t=0.94
12.393432748599114
% es.tEx (V/m) @ t=0.94
-12.885669330314947
% es.tEy (V/m) @ t=0.94
0
% es.tEz (V/m) @ t=0.94
12.39343274859911
% V (V) @ t=0.94
0.008563455772530721
% es.normE (V/m) @ t=0.96
27.534051502056407
% es.EX (V/m) @ t=0.96
-13.003048405723021
% es.EY (V/m) @ t=0.96
10.432496968426644
% es.EZ (V/m) @ t=0.96
12.50628284499454
% es.tEX (V/m) @ t=0.96
-13.003048405723007
% es.tEY (V/m) @ t=0.96
0
% es.tEZ (V/m) @ t=0.96
12.50628284499453
% es.Ex (V/m) @ t=0.96
-13.003048405723021
% es.Ey (V/m) @ t=0.96
10.432496968426644
% es.Ez (V/m) @ t=0.96
12.50628284499454
% es.tEx (V/m) @ t=0.96
-13.003048405723007
% es.tEy (V/m) @ t=0.96
0
% es.tEz (V/m) @ t=0.96
12.50628284499453
% V (V) @ t=0.96
0.008641450551743911
% es.normE (V/m) @ t=0.98
27.78256751248805
% es.EX (V/m) @ t=0.98
-13.120427481131145
% es.EY (V/m) @ t=0.98
10.526667772702872
% es.EZ (V/m) @ t=0.98
12.619132941390049
% es.tEX (V/m) @ t=0.98
-13.120427481131145
% es.tEY (V/m) @ t=0.98
0
% es.tEZ (V/m) @ t=0.98
12.619132941390063
% es.Ex (V/m) @ t=0.98
-13.120427481131145
% es.Ey (V/m) @ t=0.98
10.526667772702872
% es.Ez (V/m) @ t=0.98
12.619132941390049
% es.tEx (V/m) @ t=0.98
-13.120427481131145
% es.tEy (V/m) @ t=0.98
0
% es.tEz (V/m) @ t=0.98
12.619132941390063
% V (V) @ t=0.98
0.008719445330957105
% es.normE (V/m) @ t=1
28.03108352296207
% es.EX (V/m) @ t=1
-13.23780655653922
% es.EY (V/m) @ t=1
10.620838576979093
% es.EZ (V/m) @ t=1
12.7319830377855
% es.tEX (V/m) @ t=1
-13.237806556539212
% es.tEY (V/m) @ t=1
0
% es.tEZ (V/m) @ t=1
12.731983037785511
% es.Ex (V/m) @ t=1
-13.23780655653922
% es.Ey (V/m) @ t=1
10.620838576979093
% es.Ez (V/m) @ t=1
12.7319830377855
% es.tEx (V/m) @ t=1
-13.237806556539212
% es.tEy (V/m) @ t=1
0
% es.tEz (V/m) @ t=1
12.731983037785511
% V (V) @ t=1
0.008797440110170297
% es.normE (V/m) @ t=1.02
28.27959953347748
% es.EX (V/m) @ t=1.02
-13.355185631947329
% es.EY (V/m) @ t=1.02
10.715009381255285
% es.EZ (V/m) @ t=1.02
12.844833134181059
% es.tEX (V/m) @ t=1.02
-13.355185631947336
% es.tEY (V/m) @ t=1.02
0
% es.tEZ (V/m) @ t=1.02
12.844833134181073
% es.Ex (V/m) @ t=1.02
-13.355185631947329
% es.Ey (V/m) @ t=1.02
10.715009381255285
% es.Ez (V/m) @ t=1.02
12.844833134181059
% es.tEx (V/m) @ t=1.02
-13.355185631947336
% es.tEy (V/m) @ t=1.02
0
% es.tEz (V/m) @ t=1.02
12.844833134181073
% V (V) @ t=1.02
0.00887543488938349
% es.normE (V/m) @ t=1.04
28.528115544033092
% es.EX (V/m) @ t=1.04
-13.47256470735541
% es.EY (V/m) @ t=1.04
10.809180185531496
% es.EZ (V/m) @ t=1.04
12.95768323057652
% es.tEX (V/m) @ t=1.04
-13.47256470735541
% es.tEY (V/m) @ t=1.04
0
% es.tEZ (V/m) @ t=1.04
12.957683230576492
% es.Ex (V/m) @ t=1.04
-13.47256470735541
% es.Ey (V/m) @ t=1.04
10.809180185531496
% es.Ez (V/m) @ t=1.04
12.95768323057652
% es.tEx (V/m) @ t=1.04
-13.47256470735541
% es.tEy (V/m) @ t=1.04
0
% es.tEz (V/m) @ t=1.04
12.957683230576492
% V (V) @ t=1.04
0.00895342966859668
% es.normE (V/m) @ t=1.06