% Model:              1 neuron.mph
% Version:            COMSOL 6.1.0.252
% Date:               Mar 18 2023, 11:39
% Dimension:          0
% Nodes:              14017
% Expressions:        14017
% Description:        Electric field norm, Electric field, X component, Electric field, Y component, Electric field, Z component, Tangential electric field, X component, Tangential electric field, Y component, Tangential electric field, Z component, Electric field, x component, Electric field, y component, Electric field, z component, Tangential electric field, x component, Tangential electric field, y component, Tangential electric field, z component, Electric potential
% Length unit:        mm
% x
1.66
% y
12.2
% z
2
% es.normE (V/m) @ t=0
1.4443191315351673
% es.EX (V/m) @ t=0
-0.4308681296413418
% es.EY (V/m) @ t=0
0.032184706327472175
% es.EZ (V/m) @ t=0
-1.3758589191392976
% es.tEX (V/m) @ t=0
-0.4308681296413468
% es.tEY (V/m) @ t=0
0
% es.tEZ (V/m) @ t=0
-1.3758589191393131
% es.Ex (V/m) @ t=0
-0.4308681296413418
% es.Ey (V/m) @ t=0
0.032184706327472175
% es.Ez (V/m) @ t=0
-1.3758589191392976
% es.tEx (V/m) @ t=0
-0.4308681296413468
% es.tEy (V/m) @ t=0
0
% es.tEz (V/m) @ t=0
-1.3758589191393131
% V (V) @ t=0
0.007259740749783511
% es.normE (V/m) @ t=0.02
1.247474769401431
% es.EX (V/m) @ t=0.02
-0.3721456783866609
% es.EY (V/m) @ t=0.02
0.02779829618931859
% es.EZ (V/m) @ t=0.02
-1.1883449090813545
% es.tEX (V/m) @ t=0.02
-0.37214567838666035
% es.tEY (V/m) @ t=0.02
0
% es.tEZ (V/m) @ t=0.02
-1.18834490908137
% es.Ex (V/m) @ t=0.02
-0.3721456783866609
% es.Ey (V/m) @ t=0.02
0.02779829618931859
% es.Ez (V/m) @ t=0.02
-1.1883449090813545
% es.tEx (V/m) @ t=0.02
-0.37214567838666035
% es.tEy (V/m) @ t=0.02
0
% es.tEz (V/m) @ t=0.02
-1.18834490908137
% V (V) @ t=0.02
0.006270320103342325
% es.normE (V/m) @ t=0.04
1.2589495634947614
% es.EX (V/m) @ t=0.04
-0.37556884055523015
% es.EY (V/m) @ t=0.04
0.028054006100993845
% es.EZ (V/m) @ t=0.04
-1.1992757981509685
% es.tEX (V/m) @ t=0.04
-0.375568840555232
% es.tEY (V/m) @ t=0.04
0
% es.tEZ (V/m) @ t=0.04
-1.199275798150972
% es.Ex (V/m) @ t=0.04
-0.37556884055523015
% es.Ey (V/m) @ t=0.04
0.028054006100993845
% es.Ez (V/m) @ t=0.04
-1.1992757981509685
% es.tEx (V/m) @ t=0.04
-0.375568840555232
% es.tEy (V/m) @ t=0.04
0
% es.tEz (V/m) @ t=0.04
-1.199275798150972
% V (V) @ t=0.04
0.0063279964909657965
% es.normE (V/m) @ t=0.06
1.2705320226196553
% es.EX (V/m) @ t=0.06
-0.37902412939429797
% es.EY (V/m) @ t=0.06
0.028312123921915185
% es.EZ (V/m) @ t=0.06
-1.2103092459623839
% es.tEX (V/m) @ t=0.06
-0.37902412939430086
% es.tEY (V/m) @ t=0.06
0
% es.tEZ (V/m) @ t=0.06
-1.2103092459623883
% es.Ex (V/m) @ t=0.06
-0.37902412939429797
% es.Ey (V/m) @ t=0.06
0.028312123921915185
% es.Ez (V/m) @ t=0.06
-1.2103092459623839
% es.tEx (V/m) @ t=0.06
-0.37902412939430086
% es.tEy (V/m) @ t=0.06
0
% es.tEz (V/m) @ t=0.06
-1.2103092459623883
% V (V) @ t=0.06
0.0063862135065258785
% es.normE (V/m) @ t=0.08
1.2822812816495457
% es.EX (V/m) @ t=0.08
-0.38252915939538873
% es.EY (V/m) @ t=0.08
0.02857394062382549
% es.EZ (V/m) @ t=0.08
-1.221501594149252
% es.tEX (V/m) @ t=0.08
-0.3825291593953928
% es.tEY (V/m) @ t=0.08
0
% es.tEZ (V/m) @ t=0.08
-1.2215015941492693
% es.Ex (V/m) @ t=0.08
-0.38252915939538873
% es.Ey (V/m) @ t=0.08
0.02857394062382549
% es.Ez (V/m) @ t=0.08
-1.221501594149252
% es.tEx (V/m) @ t=0.08
-0.3825291593953928
% es.tEy (V/m) @ t=0.08
0
% es.tEz (V/m) @ t=0.08
-1.2215015941492693
% V (V) @ t=0.08
0.006445270082337102
% es.normE (V/m) @ t=0.1
1.2941670394935603
% es.EX (V/m) @ t=0.1
-0.3860748945133623
% es.EY (V/m) @ t=0.1
0.028838784263099708
% es.EZ (V/m) @ t=0.1
-1.2328239766596631
% es.tEX (V/m) @ t=0.1
-0.3860748945133672
% es.tEY (V/m) @ t=0.1
0
% es.tEZ (V/m) @ t=0.1
-1.2328239766596747
% es.Ex (V/m) @ t=0.1
-0.3860748945133623
% es.Ey (V/m) @ t=0.1
0.028838784263099708
% es.Ez (V/m) @ t=0.1
-1.2328239766596631
% es.tEx (V/m) @ t=0.1
-0.3860748945133672
% es.tEy (V/m) @ t=0.1
0
% es.tEz (V/m) @ t=0.1
-1.2328239766596747
% V (V) @ t=0.1
0.0065050137027761685
% es.normE (V/m) @ t=0.12
1.3060527973375642
% es.EX (V/m) @ t=0.12
-0.38962062963133554
% es.EY (V/m) @ t=0.12
0.02910362790237868
% es.EZ (V/m) @ t=0.12
-1.2441463591700637
% es.tEX (V/m) @ t=0.12
-0.3896206296313416
% es.tEY (V/m) @ t=0.12
0
% es.tEZ (V/m) @ t=0.12
-1.244146359170072
% es.Ex (V/m) @ t=0.12
-0.38962062963133554
% es.Ey (V/m) @ t=0.12
0.02910362790237868
% es.Ez (V/m) @ t=0.12
-1.2441463591700637
% es.tEx (V/m) @ t=0.12
-0.3896206296313416
% es.tEy (V/m) @ t=0.12
0
% es.tEz (V/m) @ t=0.12
-1.244146359170072
% V (V) @ t=0.12
0.006564757323215234
% es.normE (V/m) @ t=0.14
1.3180091832299228
% es.EX (V/m) @ t=0.14
-0.39318744611095036
% es.EY (V/m) @ t=0.14
0.029370058096988845
% es.EZ (V/m) @ t=0.14
-1.255536017659964
% es.tEX (V/m) @ t=0.14
-0.3931874461109537
% es.tEY (V/m) @ t=0.14
0
% es.tEZ (V/m) @ t=0.14
-1.2555360176599786
% es.Ex (V/m) @ t=0.14
-0.39318744611095036
% es.Ey (V/m) @ t=0.14
0.029370058096988845
% es.Ez (V/m) @ t=0.14
-1.255536017659964
% es.tEx (V/m) @ t=0.14
-0.3931874461109537
% es.tEy (V/m) @ t=0.14
0
% es.tEz (V/m) @ t=0.14
-1.2555360176599786
% V (V) @ t=0.14
0.006624855169340733
% es.normE (V/m) @ t=0.16
1.330537112656185
% es.EX (V/m) @ t=0.16
-0.39692485934655763
% es.EY (V/m) @ t=0.16
0.029649327177328585
% es.EZ (V/m) @ t=0.16
-1.267470093728516
% es.tEX (V/m) @ t=0.16
-0.3969248593465622
% es.tEY (V/m) @ t=0.16
0
% es.tEZ (V/m) @ t=0.16
-1.2674700937285177
% es.Ex (V/m) @ t=0.16
-0.39692485934655763
% es.Ey (V/m) @ t=0.16
0.029649327177328585
% es.Ez (V/m) @ t=0.16
-1.267470093728516
% es.tEx (V/m) @ t=0.16
-0.3969248593465622
% es.tEy (V/m) @ t=0.16
0
% es.tEz (V/m) @ t=0.16
-1.2674700937285177
% V (V) @ t=0.16
0.006687819516881886
% es.normE (V/m) @ t=0.18
1.3430650420824506
% es.EX (V/m) @ t=0.18
-0.40066227258216536
% es.EY (V/m) @ t=0.18
0.029928596257675633
% es.EZ (V/m) @ t=0.18
-1.2794041697970542
% es.tEX (V/m) @ t=0.18
-0.40066227258216713
% es.tEY (V/m) @ t=0.18
0
% es.tEZ (V/m) @ t=0.18
-1.279404169797064
% es.Ex (V/m) @ t=0.18
-0.40066227258216536
% es.Ey (V/m) @ t=0.18
0.029928596257675633
% es.Ez (V/m) @ t=0.18
-1.2794041697970542
% es.tEx (V/m) @ t=0.18
-0.40066227258216713
% es.tEy (V/m) @ t=0.18
0
% es.tEz (V/m) @ t=0.18
-1.279404169797064
% V (V) @ t=0.18
0.006750783864423038
% es.normE (V/m) @ t=0.2
1.3555929715087274
% es.EX (V/m) @ t=0.2
-0.4043996858177677
% es.EY (V/m) @ t=0.2
0.030207865338013833
% es.EZ (V/m) @ t=0.2
-1.2913382458655893
% es.tEX (V/m) @ t=0.2
-0.4043996858177721
% es.tEY (V/m) @ t=0.2
0
% es.tEZ (V/m) @ t=0.2
-1.291338245865603
% es.Ex (V/m) @ t=0.2
-0.4043996858177677
% es.Ey (V/m) @ t=0.2
0.030207865338013833
% es.Ez (V/m) @ t=0.2
-1.2913382458655893
% es.tEx (V/m) @ t=0.2
-0.4043996858177721
% es.tEy (V/m) @ t=0.2
0
% es.tEz (V/m) @ t=0.2
-1.291338245865603
% V (V) @ t=0.2
0.0068137482119641915
% es.normE (V/m) @ t=0.22
1.3681209009350286
% es.EX (V/m) @ t=0.22
-0.4081370990533777
% es.EY (V/m) @ t=0.22
0.03048713441835177
% es.EZ (V/m) @ t=0.22
-1.3032723219341307
% es.tEX (V/m) @ t=0.22
-0.4081370990533806
% es.tEY (V/m) @ t=0.22
0
% es.tEZ (V/m) @ t=0.22
-1.3032723219341422
% es.Ex (V/m) @ t=0.22
-0.4081370990533777
% es.Ey (V/m) @ t=0.22
0.03048713441835177
% es.Ez (V/m) @ t=0.22
-1.3032723219341307
% es.tEx (V/m) @ t=0.22
-0.4081370990533806
% es.tEy (V/m) @ t=0.22
0
% es.tEz (V/m) @ t=0.22
-1.3032723219341422
% V (V) @ t=0.22
0.006876712559505346
% es.normE (V/m) @ t=0.24
1.3806488303613498
% es.EX (V/m) @ t=0.24
-0.41187451228898236
% es.EY (V/m) @ t=0.24
0.030766403498689823
% es.EZ (V/m) @ t=0.24
-1.3152063980026796
% es.tEX (V/m) @ t=0.24
-0.411874512288982
% es.tEY (V/m) @ t=0.24
0
% es.tEZ (V/m) @ t=0.24
-1.3152063980026885
% es.Ex (V/m) @ t=0.24
-0.41187451228898236
% es.Ey (V/m) @ t=0.24
0.030766403498689823
% es.Ez (V/m) @ t=0.24
-1.3152063980026796
% es.tEx (V/m) @ t=0.24
-0.411874512288982
% es.tEy (V/m) @ t=0.24
0
% es.tEz (V/m) @ t=0.24
-1.3152063980026885
% V (V) @ t=0.24
0.006939676907046498
% es.normE (V/m) @ t=0.26
1.393176759787679
% es.EX (V/m) @ t=0.26
-0.41561192552458426
% es.EY (V/m) @ t=0.26
0.031045672579032353
% es.EZ (V/m) @ t=0.26
-1.3271404740712214
% es.tEX (V/m) @ t=0.26
-0.4156119255245869
% es.tEY (V/m) @ t=0.26
0
% es.tEZ (V/m) @ t=0.26
-1.3271404740712276
% es.Ex (V/m) @ t=0.26
-0.41561192552458426
% es.Ey (V/m) @ t=0.26
0.031045672579032353
% es.Ez (V/m) @ t=0.26
-1.3271404740712214
% es.tEx (V/m) @ t=0.26
-0.4156119255245869
% es.tEy (V/m) @ t=0.26
0
% es.tEz (V/m) @ t=0.26
-1.3271404740712276
% V (V) @ t=0.26
0.007002641254587653
% es.normE (V/m) @ t=0.28
1.4060374308539338
% es.EX (V/m) @ t=0.28
-0.41944850594504257
% es.EY (V/m) @ t=0.28
0.03133223142039279
% es.EZ (V/m) @ t=0.28
-1.3393915567132395
% es.tEX (V/m) @ t=0.28
-0.419448505945045
% es.tEY (V/m) @ t=0.28
0
% es.tEZ (V/m) @ t=0.28
-1.339391556713248
% es.Ex (V/m) @ t=0.28
-0.41944850594504257
% es.Ey (V/m) @ t=0.28
0.03133223142039279
% es.Ez (V/m) @ t=0.28
-1.3393915567132395
% es.tEx (V/m) @ t=0.28
-0.419448505945045
% es.tEy (V/m) @ t=0.28
0
% es.tEz (V/m) @ t=0.28
-1.339391556713248
% V (V) @ t=0.28
0.007067285292081605
% es.normE (V/m) @ t=0.3
1.420011784346078
% es.EX (V/m) @ t=0.3
-0.42361699778784856
% es.EY (V/m) @ t=0.3
0.031643189007722755
% es.EZ (V/m) @ t=0.3
-1.3527036566953563
% es.tEX (V/m) @ t=0.3
-0.4236169977878532
% es.tEY (V/m) @ t=0.3
0
% es.tEZ (V/m) @ t=0.3
-1.3527036566953656
% es.Ex (V/m) @ t=0.3
-0.42361699778784856
% es.Ey (V/m) @ t=0.3
0.031643189007722755
% es.Ez (V/m) @ t=0.3
-1.3527036566953563
% es.tEx (V/m) @ t=0.3
-0.4236169977878532
% es.tEy (V/m) @ t=0.3
0
% es.tEz (V/m) @ t=0.3
-1.3527036566953656
% V (V) @ t=0.3
0.007137551232447542
% es.normE (V/m) @ t=0.32
1.4339861378384857
% es.EX (V/m) @ t=0.32
-0.427785489630658
% es.EY (V/m) @ t=0.32
0.0319541465950616
% es.EZ (V/m) @ t=0.32
-1.3660157566774735
% es.tEX (V/m) @ t=0.32
-0.42778548963066143
% es.tEY (V/m) @ t=0.32
0
% es.tEZ (V/m) @ t=0.32
-1.3660157566774913
% es.Ex (V/m) @ t=0.32
-0.427785489630658
% es.Ey (V/m) @ t=0.32
0.0319541465950616
% es.Ez (V/m) @ t=0.32
-1.3660157566774735
% es.tEx (V/m) @ t=0.32
-0.42778548963066143
% es.tEy (V/m) @ t=0.32
0
% es.tEz (V/m) @ t=0.32
-1.3660157566774913
% V (V) @ t=0.32
0.00720781717281348
% es.normE (V/m) @ t=0.34
1.4479604913311634
% es.EX (V/m) @ t=0.34
-0.4319539814734657
% es.EY (V/m) @ t=0.34
0.03226510418240556
% es.EZ (V/m) @ t=0.34
-1.379327856659605
% es.tEX (V/m) @ t=0.34
-0.4319539814734661
% es.tEY (V/m) @ t=0.34
0
% es.tEZ (V/m) @ t=0.34
-1.379327856659609
% es.Ex (V/m) @ t=0.34
-0.4319539814734657
% es.Ey (V/m) @ t=0.34
0.03226510418240556
% es.Ez (V/m) @ t=0.34
-1.379327856659605
% es.tEx (V/m) @ t=0.34
-0.4319539814734661
% es.tEy (V/m) @ t=0.34
0
% es.tEz (V/m) @ t=0.34
-1.379327856659609
% V (V) @ t=0.34
0.007278083113179418
% es.normE (V/m) @ t=0.36
1.4619348448240652
% es.EX (V/m) @ t=0.36
-0.4361224733162681
% es.EY (V/m) @ t=0.36
0.032576061769733745
% es.EZ (V/m) @ t=0.36
-1.3926399566417142
% es.tEX (V/m) @ t=0.36
-0.43612247331627074
% es.tEY (V/m) @ t=0.36
0
% es.tEZ (V/m) @ t=0.36
-1.3926399566417267
% es.Ex (V/m) @ t=0.36
-0.4361224733162681
% es.Ey (V/m) @ t=0.36
0.032576061769733745
% es.Ez (V/m) @ t=0.36
-1.3926399566417142
% es.tEx (V/m) @ t=0.36
-0.43612247331627074
% es.tEy (V/m) @ t=0.36
0
% es.tEz (V/m) @ t=0.36
-1.3926399566417267
% V (V) @ t=0.36
0.007348349053545358
% es.normE (V/m) @ t=0.38
1.4759091983172214
% es.EX (V/m) @ t=0.38
-0.4402909651590714
% es.EY (V/m) @ t=0.38
0.03288701935707062
% es.EZ (V/m) @ t=0.38
-1.4059520566238386
% es.tEX (V/m) @ t=0.38
-0.44029096515907185
% es.tEY (V/m) @ t=0.38
0
% es.tEZ (V/m) @ t=0.38
-1.4059520566238435
% es.Ex (V/m) @ t=0.38
-0.4402909651590714
% es.Ey (V/m) @ t=0.38
0.03288701935707062
% es.Ez (V/m) @ t=0.38
-1.4059520566238386
% es.tEx (V/m) @ t=0.38
-0.44029096515907185
% es.tEy (V/m) @ t=0.38
0
% es.tEz (V/m) @ t=0.38
-1.4059520566238435
% V (V) @ t=0.38
0.007418614993911296
% es.normE (V/m) @ t=0.4
1.4898835518105995
% es.EX (V/m) @ t=0.4
-0.4444594570018774
% es.EY (V/m) @ t=0.4
0.03319797694441035
% es.EZ (V/m) @ t=0.4
-1.4192641566059483
% es.tEX (V/m) @ t=0.4
-0.44445945700188005
% es.tEY (V/m) @ t=0.4
0
% es.tEZ (V/m) @ t=0.4
-1.4192641566059612
% es.Ex (V/m) @ t=0.4
-0.4444594570018774
% es.Ey (V/m) @ t=0.4
0.03319797694441035
% es.Ez (V/m) @ t=0.4
-1.4192641566059483
% es.tEx (V/m) @ t=0.4
-0.44445945700188005
% es.tEy (V/m) @ t=0.4
0
% es.tEz (V/m) @ t=0.4
-1.4192641566059612
% V (V) @ t=0.4
0.0074888809342772335
% es.normE (V/m) @ t=0.42
1.5038579053042125
% es.EX (V/m) @ t=0.42
-0.44862794884468327
% es.EY (V/m) @ t=0.42
0.033508934531747206
% es.EZ (V/m) @ t=0.42
-1.4325762565880655
% es.tEX (V/m) @ t=0.42
-0.44862794884468826
% es.tEY (V/m) @ t=0.42
0
% es.tEZ (V/m) @ t=0.42
-1.4325762565880797
% es.Ex (V/m) @ t=0.42
-0.44862794884468327
% es.Ey (V/m) @ t=0.42
0.033508934531747206
% es.Ez (V/m) @ t=0.42
-1.4325762565880655
% es.tEx (V/m) @ t=0.42
-0.44862794884468826
% es.tEy (V/m) @ t=0.42
0
% es.tEz (V/m) @ t=0.42
-1.4325762565880797
% V (V) @ t=0.42
0.007559146874643171
% es.normE (V/m) @ t=0.44
1.5178322587980446
% es.EX (V/m) @ t=0.44
-0.45279644068748925
% es.EY (V/m) @ t=0.44
0.0338198921190825
% es.EZ (V/m) @ t=0.44
-1.4458883565701819
% es.tEX (V/m) @ t=0.44
-0.4527964406874929
% es.tEY (V/m) @ t=0.44
0
% es.tEZ (V/m) @ t=0.44
-1.4458883565701974
% es.Ex (V/m) @ t=0.44
-0.45279644068748925
% es.Ey (V/m) @ t=0.44
0.0338198921190825
% es.Ez (V/m) @ t=0.44
-1.4458883565701819
% es.tEx (V/m) @ t=0.44
-0.4527964406874929
% es.tEy (V/m) @ t=0.44
0
% es.tEz (V/m) @ t=0.44
-1.4458883565701974
% V (V) @ t=0.44
0.007629412815009111
% es.normE (V/m) @ t=0.46
1.531806612292093
% es.EX (V/m) @ t=0.46
-0.45696493253029247
% es.EY (V/m) @ t=0.46
0.034130849706413155
% es.EZ (V/m) @ t=0.46
-1.4592004565522991
% es.tEX (V/m) @ t=0.46
-0.456964932530294
% es.tEY (V/m) @ t=0.46
0
% es.tEZ (V/m) @ t=0.46
-1.4592004565523142
% es.Ex (V/m) @ t=0.46
-0.45696493253029247
% es.Ey (V/m) @ t=0.46
0.034130849706413155
% es.Ez (V/m) @ t=0.46
-1.4592004565522991
% es.tEx (V/m) @ t=0.46
-0.456964932530294
% es.tEy (V/m) @ t=0.46
0
% es.tEz (V/m) @ t=0.46
-1.4592004565523142
% V (V) @ t=0.46
0.007699678755375048
% es.normE (V/m) @ t=0.48
1.545780965786352
% es.EX (V/m) @ t=0.48
-0.46113342437310195
% es.EY (V/m) @ t=0.48
0.03444180729374579
% es.EZ (V/m) @ t=0.48
-1.4725125565344164
% es.tEX (V/m) @ t=0.48
-0.4611334243731058
% es.tEY (V/m) @ t=0.48
0
% es.tEZ (V/m) @ t=0.48
-1.4725125565344328
% es.Ex (V/m) @ t=0.48
-0.46113342437310195
% es.Ey (V/m) @ t=0.48
0.03444180729374579
% es.Ez (V/m) @ t=0.48
-1.4725125565344164
% es.tEx (V/m) @ t=0.48
-0.4611334243731058
% es.tEy (V/m) @ t=0.48
0
% es.tEz (V/m) @ t=0.48
-1.4725125565344328
% V (V) @ t=0.48
0.007769944695740985
% es.normE (V/m) @ t=0.5
1.559755319280817
% es.EX (V/m) @ t=0.5
-0.46530191621589545
% es.EY (V/m) @ t=0.5
0.03475276488109419
% es.EZ (V/m) @ t=0.5
-1.4858246565165403
% es.tEX (V/m) @ t=0.5
-0.4653019162158998
% es.tEY (V/m) @ t=0.5
0
% es.tEZ (V/m) @ t=0.5
-1.4858246565165567
% es.Ex (V/m) @ t=0.5
-0.46530191621589545
% es.Ey (V/m) @ t=0.5
0.03475276488109419
% es.Ez (V/m) @ t=0.5
-1.4858246565165403
% es.tEx (V/m) @ t=0.5
-0.4653019162158998
% es.tEy (V/m) @ t=0.5
0
% es.tEz (V/m) @ t=0.5
-1.4858246565165567
% V (V) @ t=0.5
0.007840210636106924
% es.normE (V/m) @ t=0.52
1.5737296727754708
% es.EX (V/m) @ t=0.52
-0.4694704080587059
% es.EY (V/m) @ t=0.52
0.03506372246842503
% es.EZ (V/m) @ t=0.52
-1.4991367564986495
% es.tEX (V/m) @ t=0.52
-0.469470408058708
% es.tEY (V/m) @ t=0.52
0
% es.tEZ (V/m) @ t=0.52
-1.4991367564986673
% es.Ex (V/m) @ t=0.52
-0.4694704080587059
% es.Ey (V/m) @ t=0.52
0.03506372246842503
% es.Ez (V/m) @ t=0.52
-1.4991367564986495
% es.tEx (V/m) @ t=0.52
-0.469470408058708
% es.tEy (V/m) @ t=0.52
0
% es.tEz (V/m) @ t=0.52
-1.4991367564986673
% V (V) @ t=0.52
0.007910476576472864
% es.normE (V/m) @ t=0.54
1.5877040262703301
% es.EX (V/m) @ t=0.54
-0.47363889990151187
% es.EY (V/m) @ t=0.54
0.03537468005575233
% es.EZ (V/m) @ t=0.54
-1.5124488564807739
% es.tEX (V/m) @ t=0.54
-0.47363889990151264
% es.tEY (V/m) @ t=0.54
0
% es.tEZ (V/m) @ t=0.54
-1.512448856480785
% es.Ex (V/m) @ t=0.54
-0.47363889990151187
% es.Ey (V/m) @ t=0.54
0.03537468005575233
% es.Ez (V/m) @ t=0.54
-1.5124488564807739
% es.tEx (V/m) @ t=0.54
-0.47363889990151264
% es.tEy (V/m) @ t=0.54
0
% es.tEz (V/m) @ t=0.54
-1.512448856480785
% V (V) @ t=0.54
0.0079807425168388
% es.normE (V/m) @ t=0.56
1.6024508324027942
% es.EX (V/m) @ t=0.56
-0.478037375527935
% es.EY (V/m) @ t=0.56
0.035702433145352985
% es.EZ (V/m) @ t=0.56
-1.5264969590613124
% es.tEX (V/m) @ t=0.56
-0.47803737552794345
% es.tEY (V/m) @ t=0.56
0
% es.tEZ (V/m) @ t=0.56
-1.5264969590613244
% es.Ex (V/m) @ t=0.56
-0.478037375527935
% es.Ey (V/m) @ t=0.56
0.035702433145352985
% es.Ez (V/m) @ t=0.56
-1.5264969590613124
% es.tEx (V/m) @ t=0.56
-0.47803737552794345
% es.tEy (V/m) @ t=0.56
0
% es.tEz (V/m) @ t=0.56
-1.5264969590613244
% V (V) @ t=0.56
0.008054918527503787
% es.normE (V/m) @ t=0.58
1.6180681195217228
% es.EX (V/m) @ t=0.58
-0.4826950211030778
% es.EY (V/m) @ t=0.58
0.03604911317574986
% es.EZ (V/m) @ t=0.58
-1.5413744668837581
% es.tEX (V/m) @ t=0.58
-0.4826950211030834
% es.tEY (V/m) @ t=0.58
0
% es.tEZ (V/m) @ t=0.58
-1.5413744668837772
% es.Ex (V/m) @ t=0.58
-0.4826950211030778
% es.Ey (V/m) @ t=0.58
0.03604911317574986
% es.Ez (V/m) @ t=0.58
-1.5413744668837581
% es.tEx (V/m) @ t=0.58
-0.4826950211030834
% es.tEy (V/m) @ t=0.58
0
% es.tEz (V/m) @ t=0.58
-1.5413744668837772
% V (V) @ t=0.58
0.008133500817180988
% es.normE (V/m) @ t=0.6
1.6336854066429556
% es.EX (V/m) @ t=0.6
-0.4873526666782252
% es.EY (V/m) @ t=0.6
0.03639579320614318
% es.EZ (V/m) @ t=0.6
-1.556251974706211
% es.tEX (V/m) @ t=0.6
-0.4873526666782304
% es.tEY (V/m) @ t=0.6
0
% es.tEZ (V/m) @ t=0.6
-1.556251974706237
% es.Ex (V/m) @ t=0.6
-0.4873526666782252
% es.Ey (V/m) @ t=0.6
0.03639579320614318
% es.Ez (V/m) @ t=0.6
-1.556251974706211
% es.tEx (V/m) @ t=0.6
-0.4873526666782304
% es.tEy (V/m) @ t=0.6
0
% es.tEz (V/m) @ t=0.6
-1.556251974706237
% V (V) @ t=0.6
0.008212083106858186
% es.normE (V/m) @ t=0.62
1.6493026937664341
% es.EX (V/m) @ t=0.62
-0.49201031225337244
% es.EY (V/m) @ t=0.62
0.03674247323654716
% es.EZ (V/m) @ t=0.62
-1.571129482528678
% es.tEX (V/m) @ t=0.62
-0.492010312253381
% es.tEY (V/m) @ t=0.62
0
% es.tEZ (V/m) @ t=0.62
-1.5711294825286908
% es.Ex (V/m) @ t=0.62
-0.49201031225337244
% es.Ey (V/m) @ t=0.62
0.03674247323654716
% es.Ez (V/m) @ t=0.62
-1.571129482528678
% es.tEx (V/m) @ t=0.62
-0.492010312253381
% es.tEy (V/m) @ t=0.62
0
% es.tEz (V/m) @ t=0.62
-1.5711294825286908
% V (V) @ t=0.62
0.008290665396535387
% es.normE (V/m) @ t=0.64
1.6649199808920678
% es.EX (V/m) @ t=0.64
-0.4966679578285198
% es.EY (V/m) @ t=0.64
0.037089153266933385
% es.EZ (V/m) @ t=0.64
-1.5860069903511311
% es.tEX (V/m) @ t=0.64
-0.49666795782852446
% es.tEY (V/m) @ t=0.64
0
% es.tEZ (V/m) @ t=0.64
-1.5860069903511507
% es.Ex (V/m) @ t=0.64
-0.4966679578285198
% es.Ey (V/m) @ t=0.64
0.037089153266933385
% es.Ez (V/m) @ t=0.64
-1.5860069903511311
% es.tEx (V/m) @ t=0.64
-0.49666795782852446
% es.tEy (V/m) @ t=0.64
0
% es.tEz (V/m) @ t=0.64
-1.5860069903511507
% V (V) @ t=0.64
0.008369247686212588
% es.normE (V/m) @ t=0.66
1.680537268019807
% es.EX (V/m) @ t=0.66
-0.5013256034036602
% es.EY (V/m) @ t=0.66
0.03743583329733913
% es.EZ (V/m) @ t=0.66
-1.600884498173583
% es.tEX (V/m) @ t=0.66
-0.5013256034036644
% es.tEY (V/m) @ t=0.66
0
% es.tEZ (V/m) @ t=0.66
-1.6008844981735955
% es.Ex (V/m) @ t=0.66
-0.5013256034036602
% es.Ey (V/m) @ t=0.66
0.03743583329733913
% es.Ez (V/m) @ t=0.66
-1.600884498173583
% es.tEx (V/m) @ t=0.66
-0.5013256034036644
% es.tEy (V/m) @ t=0.66
0
% es.tEz (V/m) @ t=0.66
-1.6008844981735955
% V (V) @ t=0.66
0.008447829975889788
% es.normE (V/m) @ t=0.68
1.6961545551495996
% es.EX (V/m) @ t=0.68
-0.5059832489788072
% es.EY (V/m) @ t=0.68
0.03778251332774315
% es.EZ (V/m) @ t=0.68
-1.6157620059960367
% es.tEX (V/m) @ t=0.68
-0.505983248978815
% es.tEY (V/m) @ t=0.68
0
% es.tEZ (V/m) @ t=0.68
-1.61576200599605
% es.Ex (V/m) @ t=0.68
-0.5059832489788072
% es.Ey (V/m) @ t=0.68
0.03778251332774315
% es.Ez (V/m) @ t=0.68
-1.6157620059960367
% es.tEx (V/m) @ t=0.68
-0.505983248978815
% es.tEy (V/m) @ t=0.68
0
% es.tEz (V/m) @ t=0.68
-1.61576200599605
% V (V) @ t=0.68
0.008526412265566986
% es.normE (V/m) @ t=0.7
1.711771842281399
% es.EX (V/m) @ t=0.7
-0.5106408945539564
% es.EY (V/m) @ t=0.7
0.038129193358132876
% es.EZ (V/m) @ t=0.7
-1.6306395138185033
% es.tEX (V/m) @ t=0.7
-0.5106408945539584
% es.tEY (V/m) @ t=0.7
0
% es.tEZ (V/m) @ t=0.7
-1.630639513818517
% es.Ex (V/m) @ t=0.7
-0.5106408945539564
% es.Ey (V/m) @ t=0.7
0.038129193358132876
% es.Ez (V/m) @ t=0.7
-1.6306395138185033
% es.tEx (V/m) @ t=0.7
-0.5106408945539584
% es.tEy (V/m) @ t=0.7
0
% es.tEz (V/m) @ t=0.7
-1.630639513818517
% V (V) @ t=0.7
0.008604994555244185
% es.normE (V/m) @ t=0.72
1.7273891294151253
% es.EX (V/m) @ t=0.72
-0.5152985401291056
% es.EY (V/m) @ t=0.72
0.03847587338854219
% es.EZ (V/m) @ t=0.72
-1.645517021640956
% es.tEX (V/m) @ t=0.72
-0.515298540129109
% es.tEY (V/m) @ t=0.72
0
% es.tEZ (V/m) @ t=0.72
-1.6455170216409698
% es.Ex (V/m) @ t=0.72
-0.5152985401291056
% es.Ey (V/m) @ t=0.72
0.03847587338854219
% es.Ez (V/m) @ t=0.72
-1.645517021640956
% es.tEx (V/m) @ t=0.72
-0.515298540129109
% es.tEy (V/m) @ t=0.72
0
% es.tEz (V/m) @ t=0.72
-1.6455170216409698
% V (V) @ t=0.72
0.008683576844921385
% es.normE (V/m) @ t=0.74
1.74300641655075
% es.EX (V/m) @ t=0.74
-0.5199561857042438
% es.EY (V/m) @ t=0.74
0.03882255341893888
% es.EZ (V/m) @ t=0.74
-1.6603945294634235
% es.tEX (V/m) @ t=0.74
-0.519956185704249
% es.tEY (V/m) @ t=0.74
0
% es.tEZ (V/m) @ t=0.74
-1.660394529463444
% es.Ex (V/m) @ t=0.74
-0.5199561857042438
% es.Ey (V/m) @ t=0.74
0.03882255341893888
% es.Ez (V/m) @ t=0.74
-1.6603945294634235
% es.tEx (V/m) @ t=0.74
-0.519956185704249
% es.tEy (V/m) @ t=0.74
0
% es.tEz (V/m) @ t=0.74
-1.660394529463444
% V (V) @ t=0.74
0.008762159134598586
% es.normE (V/m) @ t=0.76
1.758623703688195
% es.EX (V/m) @ t=0.76
-0.5246138312793922
% es.EY (V/m) @ t=0.76
0.03916923344933572
% es.EZ (V/m) @ t=0.76
-1.6752720372858687
% es.tEX (V/m) @ t=0.76
-0.524613831279396
% es.tEY (V/m) @ t=0.76
0
% es.tEZ (V/m) @ t=0.76
-1.6752720372858825
% es.Ex (V/m) @ t=0.76
-0.5246138312793922
% es.Ey (V/m) @ t=0.76
0.03916923344933572
% es.Ez (V/m) @ t=0.76
-1.6752720372858687
% es.tEx (V/m) @ t=0.76
-0.524613831279396
% es.tEy (V/m) @ t=0.76
0
% es.tEz (V/m) @ t=0.76
-1.6752720372858825
% V (V) @ t=0.76
0.008840741424275787
% es.normE (V/m) @ t=0.78
1.7742409908274488
% es.EX (V/m) @ t=0.78
-0.5292714768545403
% es.EY (V/m) @ t=0.78
0.039515913479735924
% es.EZ (V/m) @ t=0.78
-1.6901495451083357
% es.tEX (V/m) @ t=0.78
-0.5292714768545501
% es.tEY (V/m) @ t=0.78
0
% es.tEZ (V/m) @ t=0.78
-1.6901495451083495
% es.Ex (V/m) @ t=0.78
-0.5292714768545403
% es.Ey (V/m) @ t=0.78
0.039515913479735924
% es.Ez (V/m) @ t=0.78
-1.6901495451083357
% es.tEx (V/m) @ t=0.78
-0.5292714768545501
% es.tEy (V/m) @ t=0.78
0
% es.tEz (V/m) @ t=0.78
-1.6901495451083495
% V (V) @ t=0.78
0.008919323713952987
% es.normE (V/m) @ t=0.8
1.789858277968429
% es.EX (V/m) @ t=0.8
-0.5339291224296797
% es.EY (V/m) @ t=0.8
0.03986259351014371
% es.EZ (V/m) @ t=0.8
-1.7050270529307885
% es.tEX (V/m) @ t=0.8
-0.5339291224296794
% es.tEY (V/m) @ t=0.8
0
% es.tEZ (V/m) @ t=0.8
-1.7050270529308031
% es.Ex (V/m) @ t=0.8
-0.5339291224296797
% es.Ey (V/m) @ t=0.8
0.03986259351014371
% es.Ez (V/m) @ t=0.8
-1.7050270529307885
% es.tEx (V/m) @ t=0.8
-0.5339291224296794
% es.tEy (V/m) @ t=0.8
0
% es.tEz (V/m) @ t=0.8
-1.7050270529308031
% V (V) @ t=0.8
0.008997906003630185
% es.normE (V/m) @ t=0.82
1.805475565111108
% es.EX (V/m) @ t=0.82
-0.5385867680048289
% es.EY (V/m) @ t=0.82
0.04020927354052105
% es.EZ (V/m) @ t=0.82
-1.7199045607532417
% es.tEX (V/m) @ t=0.82
-0.53858676800483
% es.tEY (V/m) @ t=0.82
0
% es.tEZ (V/m) @ t=0.82
-1.719904560753256
% es.Ex (V/m) @ t=0.82
-0.5385867680048289
% es.Ey (V/m) @ t=0.82
0.04020927354052105
% es.Ez (V/m) @ t=0.82
-1.7199045607532417
% es.tEx (V/m) @ t=0.82
-0.53858676800483
% es.tEy (V/m) @ t=0.82
0
% es.tEz (V/m) @ t=0.82
-1.719904560753256
% V (V) @ t=0.82
0.009076488293307386
% es.normE (V/m) @ t=0.84
1.8224207431685056
% es.EX (V/m) @ t=0.84
-0.5436438451368724
% es.EY (V/m) @ t=0.84
0.04058915570511154
% es.EZ (V/m) @ t=0.84
-1.736045794221711
% es.tEX (V/m) @ t=0.84
-0.5436438451368772
% es.tEY (V/m) @ t=0.84
0
% es.tEZ (V/m) @ t=0.84
-1.7360457942217247
% es.Ex (V/m) @ t=0.84
-0.5436438451368724
% es.Ey (V/m) @ t=0.84
0.04058915570511154
% es.Ez (V/m) @ t=0.84
-1.736045794221711
% es.tEx (V/m) @ t=0.84
-0.5436438451368772
% es.tEy (V/m) @ t=0.84
0
% es.tEz (V/m) @ t=0.84
-1.7360457942217247
% V (V) @ t=0.84
0.0091615240008791
% es.normE (V/m) @ t=0.86
1.8399075381746708
% es.EX (V/m) @ t=0.86
-0.5488638414458826
% es.EY (V/m) @ t=0.86
0.04098258027583131
% es.EZ (V/m) @ t=0.86
-1.7527024730489709
% es.tEX (V/m) @ t=0.86
-0.5488638414458862
% es.tEY (V/m) @ t=0.86
0
% es.tEZ (V/m) @ t=0.86
-1.752702473048978
% es.Ex (V/m) @ t=0.86
-0.5488638414458826
% es.Ey (V/m) @ t=0.86
0.04098258027583131
% es.Ez (V/m) @ t=0.86
-1.7527024730489709
% es.tEx (V/m) @ t=0.86
-0.5488638414458862
% es.tEy (V/m) @ t=0.86
0
% es.tEz (V/m) @ t=0.86
-1.752702473048978
% V (V) @ t=0.86
0.009249191912926927
% es.normE (V/m) @ t=0.88
1.8573943331989127
% es.EX (V/m) @ t=0.88
-0.5540838377548921
% es.EY (V/m) @ t=0.88
0.04137600484655796
% es.EZ (V/m) @ t=0.88
-1.7693591518762237
% es.tEX (V/m) @ t=0.88
-0.5540838377548987
% es.tEY (V/m) @ t=0.88
0
% es.tEZ (V/m) @ t=0.88
-1.7693591518762464
% es.Ex (V/m) @ t=0.88
-0.5540838377548921
% es.Ey (V/m) @ t=0.88
0.04137600484655796
% es.Ez (V/m) @ t=0.88
-1.7693591518762237
% es.tEx (V/m) @ t=0.88
-0.5540838377548987
% es.tEy (V/m) @ t=0.88
0
% es.tEz (V/m) @ t=0.88
-1.7693591518762464
% V (V) @ t=0.88
0.009336859824974753
% es.normE (V/m) @ t=0.9
1.8748811282407354
% es.EX (V/m) @ t=0.9
-0.5593038340639052
% es.EY (V/m) @ t=0.9
0.04176942941728304
% es.EZ (V/m) @ t=0.9
-1.7860158307034766
% es.tEX (V/m) @ t=0.9
-0.5593038340639076
% es.tEY (V/m) @ t=0.9
0
% es.tEZ (V/m) @ t=0.9
-1.7860158307034864
% es.Ex (V/m) @ t=0.9
-0.5593038340639052
% es.Ey (V/m) @ t=0.9
0.04176942941728304
% es.Ez (V/m) @ t=0.9
-1.7860158307034766
% es.tEx (V/m) @ t=0.9
-0.5593038340639076
% es.tEy (V/m) @ t=0.9
0
% es.tEz (V/m) @ t=0.9
-1.7860158307034864
% V (V) @ t=0.9
0.00942452773702258
% es.normE (V/m) @ t=0.92
1.892367923299647
% es.EX (V/m) @ t=0.92
-0.564523830372913
% es.EY (V/m) @ t=0.92
0.042162853988011645
% es.EZ (V/m) @ t=0.92
-1.802672509530729
% es.tEX (V/m) @ t=0.92
-0.5645238303729165
% es.tEY (V/m) @ t=0.92
0
% es.tEZ (V/m) @ t=0.92
-1.8026725095307476
% es.Ex (V/m) @ t=0.92
-0.564523830372913
% es.Ey (V/m) @ t=0.92
0.042162853988011645
% es.Ez (V/m) @ t=0.92
-1.802672509530729
% es.tEx (V/m) @ t=0.92
-0.5645238303729165
% es.tEy (V/m) @ t=0.92
0
% es.tEz (V/m) @ t=0.92
-1.8026725095307476
% V (V) @ t=0.92
0.009512195649070406
% es.normE (V/m) @ t=0.94
1.90985471837518
% es.EX (V/m) @ t=0.94
-0.5697438266819206
% es.EY (V/m) @ t=0.94
0.04255627855873852
% es.EZ (V/m) @ t=0.94
-1.8193291883579814
% es.tEX (V/m) @ t=0.94
-0.5697438266819255
% es.tEY (V/m) @ t=0.94
0
% es.tEZ (V/m) @ t=0.94
-1.819329188358009
% es.Ex (V/m) @ t=0.94
-0.5697438266819206
% es.Ey (V/m) @ t=0.94
0.04255627855873852
% es.Ez (V/m) @ t=0.94
-1.8193291883579814
% es.tEx (V/m) @ t=0.94
-0.5697438266819255
% es.tEy (V/m) @ t=0.94
0
% es.tEz (V/m) @ t=0.94
-1.819329188358009
% V (V) @ t=0.94
0.009599863561118234
% es.normE (V/m) @ t=0.96
1.9273415134668832
% es.EX (V/m) @ t=0.96
-0.5749638229909291
% es.EY (V/m) @ t=0.96
0.042949703129461836
% es.EZ (V/m) @ t=0.96
-1.8359858671852343
% es.tEX (V/m) @ t=0.96
-0.574963822990938
% es.tEY (V/m) @ t=0.96
0
% es.tEZ (V/m) @ t=0.96
-1.8359858671852622
% es.Ex (V/m) @ t=0.96
-0.5749638229909291
% es.Ey (V/m) @ t=0.96
0.042949703129461836
% es.Ez (V/m) @ t=0.96
-1.8359858671852343
% es.tEx (V/m) @ t=0.96
-0.574963822990938
% es.tEy (V/m) @ t=0.96
0
% es.tEz (V/m) @ t=0.96
-1.8359858671852622
% V (V) @ t=0.96
0.00968753147316606
% es.normE (V/m) @ t=0.98
1.944828308574339
% es.EX (V/m) @ t=0.98
-0.5801838192999351
% es.EY (V/m) @ t=0.98
0.04334312770019377
% es.EZ (V/m) @ t=0.98
-1.852642546012508
% es.tEX (V/m) @ t=0.98
-0.5801838192999504
% es.tEY (V/m) @ t=0.98
0
% es.tEZ (V/m) @ t=0.98
-1.8526425460125164
% es.Ex (V/m) @ t=0.98
-0.5801838192999351
% es.Ey (V/m) @ t=0.98
0.04334312770019377
% es.Ez (V/m) @ t=0.98
-1.852642546012508
% es.tEx (V/m) @ t=0.98
-0.5801838192999504
% es.tEy (V/m) @ t=0.98
0
% es.tEz (V/m) @ t=0.98
-1.8526425460125164
% V (V) @ t=0.98
0.009775199385213885
% es.normE (V/m) @ t=1
1.9623151036970738
% es.EX (V/m) @ t=1
-0.585403815608942
% es.EY (V/m) @ t=1
0.04373655227092797
% es.EZ (V/m) @ t=1
-1.8692992248397466
% es.tEX (V/m) @ t=1
-0.5854038156089487
% es.tEY (V/m) @ t=1
0
% es.tEZ (V/m) @ t=1
-1.8692992248397564
% es.Ex (V/m) @ t=1
-0.585403815608942
% es.Ey (V/m) @ t=1
0.04373655227092797
% es.Ez (V/m) @ t=1
-1.8692992248397466
% es.tEx (V/m) @ t=1
-0.5854038156089487
% es.tEy (V/m) @ t=1
0
% es.tEz (V/m) @ t=1
-1.8692992248397564
% V (V) @ t=1
0.009862867297261711
% es.normE (V/m) @ t=1.02
1.9798018988347221
% es.EX (V/m) @ t=1.02
-0.5906238119179507
% es.EY (V/m) @ t=1.02
0.044129976841638816
% es.EZ (V/m) @ t=1.02
-1.8859559036669915
% es.tEX (V/m) @ t=1.02
-0.5906238119179577
% es.tEY (V/m) @ t=1.02
0
% es.tEZ (V/m) @ t=1.02
-1.8859559036670168
% es.Ex (V/m) @ t=1.02
-0.5906238119179507
% es.Ey (V/m) @ t=1.02
0.044129976841638816
% es.Ez (V/m) @ t=1.02
-1.8859559036669915
% es.tEx (V/m) @ t=1.02
-0.5906238119179577
% es.tEy (V/m) @ t=1.02