% Model:              1 neuron.mph
% Version:            COMSOL 6.1.0.252
% Date:               Mar 18 2023, 11:36
% Dimension:          0
% Nodes:              14017
% Expressions:        14017
% Description:        Electric field norm, Electric field, X component, Electric field, Y component, Electric field, Z component, Tangential electric field, X component, Tangential electric field, Y component, Tangential electric field, Z component, Electric field, x component, Electric field, y component, Electric field, z component, Tangential electric field, x component, Tangential electric field, y component, Tangential electric field, z component, Electric potential
% Length unit:        mm
% x
1.0000000000000002
% y
12.2
% z
2
% es.normE (V/m) @ t=0
0.7024951281023931
% es.EX (V/m) @ t=0
0.48795811506388553
% es.EY (V/m) @ t=0
0.07306682882243393
% es.EZ (V/m) @ t=0
-0.4872469786736364
% es.tEX (V/m) @ t=0
0.48795811506388764
% es.tEY (V/m) @ t=0
0
% es.tEZ (V/m) @ t=0
-0.4872469786736273
% es.Ex (V/m) @ t=0
0.48795811506388553
% es.Ey (V/m) @ t=0
0.07306682882243393
% es.Ez (V/m) @ t=0
-0.4872469786736364
% es.tEx (V/m) @ t=0
0.48795811506388764
% es.tEy (V/m) @ t=0
0
% es.tEz (V/m) @ t=0
-0.4872469786736273
% V (V) @ t=0
0.007522778221243959
% es.normE (V/m) @ t=0.02
0.6067516014518457
% es.EX (V/m) @ t=0.02
0.4214539801220786
% es.EY (V/m) @ t=0.02
0.06310850230568532
% es.EZ (V/m) @ t=0.02
-0.42083976498077535
% es.tEX (V/m) @ t=0.02
0.42145398012207935
% es.tEY (V/m) @ t=0.02
0
% es.tEZ (V/m) @ t=0.02
-0.42083976498076625
% es.Ex (V/m) @ t=0.02
0.4214539801220786
% es.Ey (V/m) @ t=0.02
0.06310850230568532
% es.Ez (V/m) @ t=0.02
-0.42083976498077535
% es.tEx (V/m) @ t=0.02
0.42145398012207935
% es.tEy (V/m) @ t=0.02
0
% es.tEz (V/m) @ t=0.02
-0.42083976498076625
% V (V) @ t=0.02
0.006497493790864876
% es.normE (V/m) @ t=0.04
0.6123314423055752
% es.EX (V/m) @ t=0.04
0.42532977728102017
% es.EY (V/m) @ t=0.04
0.06368886406226332
% es.EZ (V/m) @ t=0.04
-0.42470991365781585
% es.tEX (V/m) @ t=0.04
0.42532977728102095
% es.tEY (V/m) @ t=0.04
0
% es.tEZ (V/m) @ t=0.04
-0.4247099136578103
% es.Ex (V/m) @ t=0.04
0.42532977728102017
% es.Ey (V/m) @ t=0.04
0.06368886406226332
% es.Ez (V/m) @ t=0.04
-0.42470991365781585
% es.tEx (V/m) @ t=0.04
0.42532977728102095
% es.tEy (V/m) @ t=0.04
0
% es.tEz (V/m) @ t=0.04
-0.4247099136578103
% V (V) @ t=0.04
0.006557246382622616
% es.normE (V/m) @ t=0.06
0.6179633396663478
% es.EX (V/m) @ t=0.06
0.42924173326467063
% es.EY (V/m) @ t=0.06
0.06427464019637905
% es.EZ (V/m) @ t=0.06
-0.4286161684653529
% es.tEX (V/m) @ t=0.06
0.42924173326467496
% es.tEY (V/m) @ t=0.06
0
% es.tEZ (V/m) @ t=0.06
-0.42861616846534734
% es.Ex (V/m) @ t=0.06
0.42924173326467063
% es.Ey (V/m) @ t=0.06
0.06427464019637905
% es.Ez (V/m) @ t=0.06
-0.4286161684653529
% es.tEx (V/m) @ t=0.06
0.42924173326467496
% es.tEy (V/m) @ t=0.06
0
% es.tEz (V/m) @ t=0.06
-0.42861616846534734
% V (V) @ t=0.06
0.006617556429648449
% es.normE (V/m) @ t=0.08
0.6236770203164695
% es.EX (V/m) @ t=0.08
0.433210496469594
% es.EY (V/m) @ t=0.08
0.0648689229893096
% es.EZ (V/m) @ t=0.08
-0.4325791476478955
% es.tEX (V/m) @ t=0.08
0.43321049646959464
% es.tEY (V/m) @ t=0.08
0
% es.tEZ (V/m) @ t=0.08
-0.43257914764789174
% es.Ex (V/m) @ t=0.08
0.433210496469594
% es.Ey (V/m) @ t=0.08
0.0648689229893096
% es.Ez (V/m) @ t=0.08
-0.4325791476478955
% es.tEx (V/m) @ t=0.08
0.43321049646959464
% es.tEy (V/m) @ t=0.08
0
% es.tEz (V/m) @ t=0.08
-0.43257914764789174
% V (V) @ t=0.08
0.006678742259954323
% es.normE (V/m) @ t=0.1
0.6294560989039348
% es.EX (V/m) @ t=0.1
0.43722468552039195
% es.EY (V/m) @ t=0.1
0.06547000812468642
% es.EZ (V/m) @ t=0.1
-0.43658748642837897
% es.tEX (V/m) @ t=0.1
0.4372246855203934
% es.tEY (V/m) @ t=0.1
0
% es.tEZ (V/m) @ t=0.1
-0.43658748642836986
% es.Ex (V/m) @ t=0.1
0.43722468552039195
% es.Ey (V/m) @ t=0.1
0.06547000812468642
% es.Ez (V/m) @ t=0.1
-0.43658748642837897
% es.tEx (V/m) @ t=0.1
0.4372246855203934
% es.tEy (V/m) @ t=0.1
0
% es.tEz (V/m) @ t=0.1
-0.43658748642836986
% V (V) @ t=0.1
0.006740628409610564
% es.normE (V/m) @ t=0.12
0.6352351774913965
% es.EX (V/m) @ t=0.12
0.4412388745711887
% es.EY (V/m) @ t=0.12
0.06607109326005375
% es.EZ (V/m) @ t=0.12
-0.44059582520885954
% es.tEX (V/m) @ t=0.12
0.44123887457118927
% es.tEY (V/m) @ t=0.12
0
% es.tEZ (V/m) @ t=0.12
-0.44059582520885066
% es.Ex (V/m) @ t=0.12
0.4412388745711887
% es.Ey (V/m) @ t=0.12
0.06607109326005375
% es.Ez (V/m) @ t=0.12
-0.44059582520885954
% es.tEx (V/m) @ t=0.12
0.44123887457118927
% es.tEy (V/m) @ t=0.12
0
% es.tEz (V/m) @ t=0.12
-0.44059582520885066
% V (V) @ t=0.12
0.006802514559266804
% es.normE (V/m) @ t=0.14
0.6410520939002515
% es.EX (V/m) @ t=0.14
0.4452793460531014
% es.EY (V/m) @ t=0.14
0.066676113813073
% es.EZ (V/m) @ t=0.14
-0.444630408135676
% es.tEX (V/m) @ t=0.14
0.44527934605310393
% es.tEY (V/m) @ t=0.14
0
% es.tEZ (V/m) @ t=0.14
-0.4446304081356689
% es.Ex (V/m) @ t=0.14
0.4452793460531014
% es.Ey (V/m) @ t=0.14
0.066676113813073
% es.Ez (V/m) @ t=0.14
-0.444630408135676
% es.tEx (V/m) @ t=0.14
0.44527934605310393
% es.tEy (V/m) @ t=0.14
0
% es.tEz (V/m) @ t=0.14
-0.4446304081356689
% V (V) @ t=0.14
0.006864805903110095
% es.normE (V/m) @ t=0.16
0.6471428794426666
% es.EX (V/m) @ t=0.16
0.44951004906454795
% es.EY (V/m) @ t=0.16
0.06730961881307818
% es.EZ (V/m) @ t=0.16
-0.44885494548784854
% es.tEX (V/m) @ t=0.16
0.4495100490645503
% es.tEY (V/m) @ t=0.16
0
% es.tEZ (V/m) @ t=0.16
-0.44885494548783944
% es.Ex (V/m) @ t=0.16
0.44951004906454795
% es.Ey (V/m) @ t=0.16
0.06730961881307818
% es.Ez (V/m) @ t=0.16
-0.44885494548784854
% es.tEx (V/m) @ t=0.16
0.4495100490645503
% es.tEy (V/m) @ t=0.16
0
% es.tEz (V/m) @ t=0.16
-0.44885494548783944
% V (V) @ t=0.16
0.006930030031580867
% es.normE (V/m) @ t=0.18
0.6532336649850696
% es.EX (V/m) @ t=0.18
0.4537407520759923
% es.EY (V/m) @ t=0.18
0.0679431238130907
% es.EZ (V/m) @ t=0.18
-0.45307948284000177
% es.tEX (V/m) @ t=0.18
0.45374075207599396
% es.tEY (V/m) @ t=0.18
0
% es.tEZ (V/m) @ t=0.18
-0.4530794828399962
% es.Ex (V/m) @ t=0.18
0.4537407520759923
% es.Ey (V/m) @ t=0.18
0.0679431238130907
% es.Ez (V/m) @ t=0.18
-0.45307948284000177
% es.tEx (V/m) @ t=0.18
0.45374075207599396
% es.tEy (V/m) @ t=0.18
0
% es.tEz (V/m) @ t=0.18
-0.4530794828399962
% V (V) @ t=0.18
0.006995254160051638
% es.normE (V/m) @ t=0.2
0.659324450527482
% es.EX (V/m) @ t=0.2
0.45797145508743753
% es.EY (V/m) @ t=0.2
0.06857662881309667
% es.EZ (V/m) @ t=0.2
-0.4573040201921692
% es.tEX (V/m) @ t=0.2
0.4579714550874383
% es.tEY (V/m) @ t=0.2
0
% es.tEZ (V/m) @ t=0.2
-0.4573040201921601
% es.Ex (V/m) @ t=0.2
0.45797145508743753
% es.Ey (V/m) @ t=0.2
0.06857662881309667
% es.Ez (V/m) @ t=0.2
-0.4573040201921692
% es.tEx (V/m) @ t=0.2
0.4579714550874383
% es.tEy (V/m) @ t=0.2
0
% es.tEz (V/m) @ t=0.2
-0.4573040201921601
% V (V) @ t=0.2
0.007060478288522412
% es.normE (V/m) @ t=0.22
0.6654152360698871
% es.EX (V/m) @ t=0.22
0.46220215809887566
% es.EY (V/m) @ t=0.22
0.0692101338130954
% es.EZ (V/m) @ t=0.22
-0.4615285575443331
% es.tEX (V/m) @ t=0.22
0.462202158098878
% es.tEY (V/m) @ t=0.22
0
% es.tEZ (V/m) @ t=0.22
-0.46152855754432753
% es.Ex (V/m) @ t=0.22
0.46220215809887566
% es.Ey (V/m) @ t=0.22
0.0692101338130954
% es.Ez (V/m) @ t=0.22
-0.4615285575443331
% es.tEx (V/m) @ t=0.22
0.462202158098878
% es.tEy (V/m) @ t=0.22
0
% es.tEz (V/m) @ t=0.22
-0.46152855754432753
% V (V) @ t=0.22
0.007125702416993186
% es.normE (V/m) @ t=0.24
0.6715060216122917
% es.EX (V/m) @ t=0.24
0.4664328611103218
% es.EY (V/m) @ t=0.24
0.0698436388131026
% es.EZ (V/m) @ t=0.24
-0.4657530948964903
% es.tEX (V/m) @ t=0.24
0.46643286111032456
% es.tEY (V/m) @ t=0.24
0
% es.tEZ (V/m) @ t=0.24
-0.46575309489648475
% es.Ex (V/m) @ t=0.24
0.4664328611103218
% es.Ey (V/m) @ t=0.24
0.0698436388131026
% es.Ez (V/m) @ t=0.24
-0.4657530948964903
% es.tEx (V/m) @ t=0.24
0.46643286111032456
% es.tEy (V/m) @ t=0.24
0
% es.tEz (V/m) @ t=0.24
-0.46575309489648475
% V (V) @ t=0.24
0.0071909265454639555
% es.normE (V/m) @ t=0.26
0.6775968071547
% es.EX (V/m) @ t=0.26
0.47066356412176347
% es.EY (V/m) @ t=0.26
0.07047714381310369
% es.EZ (V/m) @ t=0.26
-0.4699776322486542
% es.tEX (V/m) @ t=0.26
0.4706635641217638
% es.tEY (V/m) @ t=0.26
0
% es.tEZ (V/m) @ t=0.26
-0.4699776322486451
% es.Ex (V/m) @ t=0.26
0.47066356412176347
% es.Ey (V/m) @ t=0.26
0.07047714381310369
% es.Ez (V/m) @ t=0.26
-0.4699776322486542
% es.tEx (V/m) @ t=0.26
0.4706635641217638
% es.tEy (V/m) @ t=0.26
0
% es.tEz (V/m) @ t=0.26
-0.4699776322486451
% V (V) @ t=0.26
0.00725615067393473
% es.normE (V/m) @ t=0.28
0.6838650559099554
% es.EX (V/m) @ t=0.28
0.47501753420745396
% es.EY (V/m) @ t=0.28
0.07112910805168052
% es.EZ (V/m) @ t=0.28
-0.47432525685789595
% es.tEX (V/m) @ t=0.28
0.4750175342074554
% es.tEY (V/m) @ t=0.28
0
% es.tEZ (V/m) @ t=0.28
-0.4743252568578904
% es.Ex (V/m) @ t=0.28
0.47501753420745396
% es.Ey (V/m) @ t=0.28
0.07112910805168052
% es.Ez (V/m) @ t=0.28
-0.47432525685789595
% es.tEx (V/m) @ t=0.28
0.4750175342074554
% es.tEy (V/m) @ t=0.28
0
% es.tEz (V/m) @ t=0.28
-0.4743252568578904
% V (V) @ t=0.28
0.007323275163818036
% es.normE (V/m) @ t=0.3
0.6906577222914221
% es.EX (V/m) @ t=0.3
0.479735768105528
% es.EY (V/m) @ t=0.3
0.07183562077900219
% es.EZ (V/m) @ t=0.3
-0.4790366139057378
% es.tEX (V/m) @ t=0.3
0.4797357681055301
% es.tEY (V/m) @ t=0.3
0
% es.tEZ (V/m) @ t=0.3
-0.4790366139057287
% es.Ex (V/m) @ t=0.3
0.479735768105528
% es.Ey (V/m) @ t=0.3
0.07183562077900219
% es.Ez (V/m) @ t=0.3
-0.4790366139057378
% es.tEx (V/m) @ t=0.3
0.4797357681055301
% es.tEy (V/m) @ t=0.3
0
% es.tEz (V/m) @ t=0.3
-0.4790366139057287
% V (V) @ t=0.3
0.007396015369798137
% es.normE (V/m) @ t=0.32
0.6974503886729031
% es.EX (V/m) @ t=0.32
0.48445400200359956
% es.EY (V/m) @ t=0.32
0.07254213350632915
% es.EZ (V/m) @ t=0.32
-0.48374797095360056
% es.tEX (V/m) @ t=0.32
0.4844540020036028
% es.tEY (V/m) @ t=0.32
0
% es.tEZ (V/m) @ t=0.32
-0.48374797095359146
% es.Ex (V/m) @ t=0.32
0.48445400200359956
% es.Ey (V/m) @ t=0.32
0.07254213350632915
% es.Ez (V/m) @ t=0.32
-0.48374797095360056
% es.tEx (V/m) @ t=0.32
0.4844540020036028
% es.tEy (V/m) @ t=0.32
0
% es.tEz (V/m) @ t=0.32
-0.48374797095359146
% V (V) @ t=0.32
0.007468755575778242
% es.normE (V/m) @ t=0.34
0.704243055054379
% es.EX (V/m) @ t=0.34
0.4891722359016776
% es.EY (V/m) @ t=0.34
0.07324864623364938
% es.EZ (V/m) @ t=0.34
-0.4884593280014531
% es.tEX (V/m) @ t=0.34
0.4891722359016786
% es.tEY (V/m) @ t=0.34
0
% es.tEZ (V/m) @ t=0.34
-0.488459328001444
% es.Ex (V/m) @ t=0.34
0.4891722359016776
% es.Ey (V/m) @ t=0.34
0.07324864623364938
% es.Ez (V/m) @ t=0.34
-0.4884593280014531
% es.tEx (V/m) @ t=0.34
0.4891722359016786
% es.tEy (V/m) @ t=0.34
0
% es.tEz (V/m) @ t=0.34
-0.488459328001444
% V (V) @ t=0.34
0.007541495781758343
% es.normE (V/m) @ t=0.36
0.7110357214358558
% es.EX (V/m) @ t=0.36
0.4938904697997534
% es.EY (V/m) @ t=0.36
0.07395515896096569
% es.EZ (V/m) @ t=0.36
-0.49317068504930206
% es.tEX (V/m) @ t=0.36
0.4938904697997548
% es.tEY (V/m) @ t=0.36
0
% es.tEZ (V/m) @ t=0.36
-0.49317068504929296
% es.Ex (V/m) @ t=0.36
0.4938904697997534
% es.Ey (V/m) @ t=0.36
0.07395515896096569
% es.Ez (V/m) @ t=0.36
-0.49317068504930206
% es.tEx (V/m) @ t=0.36
0.4938904697997548
% es.tEy (V/m) @ t=0.36
0
% es.tEz (V/m) @ t=0.36
-0.49317068504929296
% V (V) @ t=0.36
0.007614235987738447
% es.normE (V/m) @ t=0.38
0.717828387817328
% es.EX (V/m) @ t=0.38
0.49860870369782606
% es.EY (V/m) @ t=0.38
0.07466167168828644
% es.EZ (V/m) @ t=0.38
-0.49788204209715414
% es.tEX (V/m) @ t=0.38
0.49860870369782706
% es.tEY (V/m) @ t=0.38
0
% es.tEZ (V/m) @ t=0.38
-0.49788204209714504
% es.Ex (V/m) @ t=0.38
0.49860870369782606
% es.Ey (V/m) @ t=0.38
0.07466167168828644
% es.Ez (V/m) @ t=0.38
-0.49788204209715414
% es.tEx (V/m) @ t=0.38
0.49860870369782706
% es.tEy (V/m) @ t=0.38
0
% es.tEz (V/m) @ t=0.38
-0.49788204209714504
% V (V) @ t=0.38
0.007686976193718547
% es.normE (V/m) @ t=0.4
0.7246210541987977
% es.EX (V/m) @ t=0.4
0.5033269375959043
% es.EY (V/m) @ t=0.4
0.07536818441560852
% es.EZ (V/m) @ t=0.4
-0.5025933991449938
% es.tEX (V/m) @ t=0.4
0.5033269375959053
% es.tEY (V/m) @ t=0.4
0
% es.tEZ (V/m) @ t=0.4
-0.5025933991449829
% es.Ex (V/m) @ t=0.4
0.5033269375959043
% es.Ey (V/m) @ t=0.4
0.07536818441560852
% es.Ez (V/m) @ t=0.4
-0.5025933991449938
% es.tEx (V/m) @ t=0.4
0.5033269375959053
% es.tEy (V/m) @ t=0.4
0
% es.tEz (V/m) @ t=0.4
-0.5025933991449829
% V (V) @ t=0.4
0.007759716399698652
% es.normE (V/m) @ t=0.42
0.7314137205802778
% es.EX (V/m) @ t=0.42
0.50804517149398
% es.EY (V/m) @ t=0.42
0.07607469714292664
% es.EZ (V/m) @ t=0.42
-0.5073047561928516
% es.tEX (V/m) @ t=0.42
0.5080451714939829
% es.tEY (V/m) @ t=0.42
0
% es.tEZ (V/m) @ t=0.42
-0.5073047561928461
% es.Ex (V/m) @ t=0.42
0.50804517149398
% es.Ey (V/m) @ t=0.42
0.07607469714292664
% es.Ez (V/m) @ t=0.42
-0.5073047561928516
% es.tEx (V/m) @ t=0.42
0.5080451714939829
% es.tEy (V/m) @ t=0.42
0
% es.tEz (V/m) @ t=0.42
-0.5073047561928461
% V (V) @ t=0.42
0.007832456605678752
% es.normE (V/m) @ t=0.44
0.738206386961751
% es.EX (V/m) @ t=0.44
0.5127634053920546
% es.EY (V/m) @ t=0.44
0.07678120987024242
% es.EZ (V/m) @ t=0.44
-0.5120161132407024
% es.tEX (V/m) @ t=0.44
0.5127634053920556
% es.tEY (V/m) @ t=0.44
0
% es.tEZ (V/m) @ t=0.44
-0.5120161132406915
% es.Ex (V/m) @ t=0.44
0.5127634053920546
% es.Ey (V/m) @ t=0.44
0.07678120987024242
% es.Ez (V/m) @ t=0.44
-0.5120161132407024
% es.tEx (V/m) @ t=0.44
0.5127634053920556
% es.tEy (V/m) @ t=0.44
0
% es.tEz (V/m) @ t=0.44
-0.5120161132406915
% V (V) @ t=0.44
0.007905196811658854
% es.normE (V/m) @ t=0.46
0.7449990533432256
% es.EX (V/m) @ t=0.46
0.5174816392901308
% es.EY (V/m) @ t=0.46
0.0774877225975637
% es.EZ (V/m) @ t=0.46
-0.5167274702885505
% es.tEX (V/m) @ t=0.46
0.5174816392901336
% es.tEY (V/m) @ t=0.46
0
% es.tEZ (V/m) @ t=0.46
-0.5167274702885396
% es.Ex (V/m) @ t=0.46
0.5174816392901308
% es.Ey (V/m) @ t=0.46
0.0774877225975637
% es.Ez (V/m) @ t=0.46
-0.5167274702885505
% es.tEx (V/m) @ t=0.46
0.5174816392901336
% es.tEy (V/m) @ t=0.46
0
% es.tEz (V/m) @ t=0.46
-0.5167274702885396
% V (V) @ t=0.46
0.007977937017638955
% es.normE (V/m) @ t=0.48
0.7517917197247079
% es.EX (V/m) @ t=0.48
0.5221998731882048
% es.EY (V/m) @ t=0.48
0.07819423532488468
% es.EZ (V/m) @ t=0.48
-0.5214388273364132
% es.tEX (V/m) @ t=0.48
0.522199873188204
% es.tEY (V/m) @ t=0.48
0
% es.tEZ (V/m) @ t=0.48
-0.5214388273364023
% es.Ex (V/m) @ t=0.48
0.5221998731882048
% es.Ey (V/m) @ t=0.48
0.07819423532488468
% es.Ez (V/m) @ t=0.48
-0.5214388273364132
% es.tEx (V/m) @ t=0.48
0.522199873188204
% es.tEy (V/m) @ t=0.48
0
% es.tEz (V/m) @ t=0.48
-0.5214388273364023
% V (V) @ t=0.48
0.00805067722361906
% es.normE (V/m) @ t=0.5
0.7585843861061754
% es.EX (V/m) @ t=0.5
0.5269181070862817
% es.EY (V/m) @ t=0.5
0.078900748052215
% es.EZ (V/m) @ t=0.5
-0.5261501843842515
% es.tEX (V/m) @ t=0.5
0.526918107086281
% es.tEY (V/m) @ t=0.5
0
% es.tEZ (V/m) @ t=0.5
-0.5261501843842371
% es.Ex (V/m) @ t=0.5
0.5269181070862817
% es.Ey (V/m) @ t=0.5
0.078900748052215
% es.Ez (V/m) @ t=0.5
-0.5261501843842515
% es.tEx (V/m) @ t=0.5
0.526918107086281
% es.tEy (V/m) @ t=0.5
0
% es.tEz (V/m) @ t=0.5
-0.5261501843842371
% V (V) @ t=0.5
0.008123417429599161
% es.normE (V/m) @ t=0.52
0.7653770524876523
% es.EX (V/m) @ t=0.52
0.5316363409843519
% es.EY (V/m) @ t=0.52
0.07960726077952779
% es.EZ (V/m) @ t=0.52
-0.5308615414321147
% es.tEX (V/m) @ t=0.52
0.5316363409843547
% es.tEY (V/m) @ t=0.52
0
% es.tEZ (V/m) @ t=0.52
-0.5308615414321038
% es.Ex (V/m) @ t=0.52
0.5316363409843519
% es.Ey (V/m) @ t=0.52
0.07960726077952779
% es.Ez (V/m) @ t=0.52
-0.5308615414321147
% es.tEx (V/m) @ t=0.52
0.5316363409843547
% es.tEy (V/m) @ t=0.52
0
% es.tEz (V/m) @ t=0.52
-0.5308615414321038
% V (V) @ t=0.52
0.008196157635579264
% es.normE (V/m) @ t=0.54
0.7721697188691294
% es.EX (V/m) @ t=0.54
0.5363545748824287
% es.EY (V/m) @ t=0.54
0.08031377350684826
% es.EZ (V/m) @ t=0.54
-0.5355728984799628
% es.tEX (V/m) @ t=0.54
0.5363545748824312
% es.tEY (V/m) @ t=0.54
0
% es.tEZ (V/m) @ t=0.54
-0.5355728984799519
% es.Ex (V/m) @ t=0.54
0.5363545748824287
% es.Ey (V/m) @ t=0.54
0.08031377350684826
% es.Ez (V/m) @ t=0.54
-0.5355728984799628
% es.tEx (V/m) @ t=0.54
0.5363545748824312
% es.tEy (V/m) @ t=0.54
0
% es.tEz (V/m) @ t=0.54
-0.5355728984799519
% V (V) @ t=0.54
0.008268897841559365
% es.normE (V/m) @ t=0.56
0.779373308526988
% es.EX (V/m) @ t=0.56
0.54135823922607
% es.EY (V/m) @ t=0.56
0.08106302469132926
% es.EZ (V/m) @ t=0.56
-0.5405692702469953
% es.tEX (V/m) @ t=0.56
0.5413582392260687
% es.tEY (V/m) @ t=0.56
0
% es.tEZ (V/m) @ t=0.56
-0.5405692702469844
% es.Ex (V/m) @ t=0.56
0.54135823922607
% es.Ey (V/m) @ t=0.56
0.08106302469132926
% es.Ez (V/m) @ t=0.56
-0.5405692702469953
% es.tEx (V/m) @ t=0.56
0.5413582392260687
% es.tEy (V/m) @ t=0.56
0
% es.tEz (V/m) @ t=0.56
-0.5405692702469844
% V (V) @ t=0.56
0.008346038531132766
% es.normE (V/m) @ t=0.58
0.7869627387192515
% es.EX (V/m) @ t=0.58
0.5466299113511662
% es.EY (V/m) @ t=0.58
0.0818524055790685
% es.EZ (V/m) @ t=0.58
-0.545833259445027
% es.tEX (V/m) @ t=0.58
0.5466299113511668
% es.tEY (V/m) @ t=0.58
0
% es.tEZ (V/m) @ t=0.58
-0.5458332594450162
% es.Ex (V/m) @ t=0.58
0.5466299113511662
% es.Ey (V/m) @ t=0.58
0.0818524055790685
% es.Ez (V/m) @ t=0.58
-0.545833259445027
% es.tEx (V/m) @ t=0.58
0.5466299113511668
% es.tEy (V/m) @ t=0.58
0
% es.tEz (V/m) @ t=0.58
-0.5458332594450162
% V (V) @ t=0.58
0.008427311098939605
% es.normE (V/m) @ t=0.6
0.7945521689114994
% es.EX (V/m) @ t=0.6
0.5519015834762621
% es.EY (V/m) @ t=0.6
0.08264178646681039
% es.EZ (V/m) @ t=0.6
-0.5510972486430361
% es.tEX (V/m) @ t=0.6
0.5519015834762644
% es.tEY (V/m) @ t=0.6
0
% es.tEZ (V/m) @ t=0.6
-0.5510972486430252
% es.Ex (V/m) @ t=0.6
0.5519015834762621
% es.Ey (V/m) @ t=0.6
0.08264178646681039
% es.Ez (V/m) @ t=0.6
-0.5510972486430361
% es.tEx (V/m) @ t=0.6
0.5519015834762644
% es.tEy (V/m) @ t=0.6
0
% es.tEz (V/m) @ t=0.6
-0.5510972486430252
% V (V) @ t=0.6
0.00850858366674644
% es.normE (V/m) @ t=0.62
0.8021415991037673
% es.EX (V/m) @ t=0.62
0.5571732556013561
% es.EY (V/m) @ t=0.62
0.08343116735456091
% es.EZ (V/m) @ t=0.62
-0.5563612378410723
% es.tEX (V/m) @ t=0.62
0.5571732556013584
% es.tEY (V/m) @ t=0.62
0
% es.tEZ (V/m) @ t=0.62
-0.5563612378410632
% es.Ex (V/m) @ t=0.62
0.5571732556013561
% es.Ey (V/m) @ t=0.62
0.08343116735456091
% es.Ez (V/m) @ t=0.62
-0.5563612378410723
% es.tEx (V/m) @ t=0.62
0.5571732556013584
% es.tEy (V/m) @ t=0.62
0
% es.tEz (V/m) @ t=0.62
-0.5563612378410632
% V (V) @ t=0.62
0.008589856234553278
% es.normE (V/m) @ t=0.64
0.8097310292960243
% es.EX (V/m) @ t=0.64
0.5624449277264513
% es.EY (V/m) @ t=0.64
0.08422054824229344
% es.EZ (V/m) @ t=0.64
-0.5616252270390978
% es.tEX (V/m) @ t=0.64
0.5624449277264552
% es.tEY (V/m) @ t=0.64
0
% es.tEZ (V/m) @ t=0.64
-0.5616252270390905
% es.Ex (V/m) @ t=0.64
0.5624449277264513
% es.Ey (V/m) @ t=0.64
0.08422054824229344
% es.Ez (V/m) @ t=0.64
-0.5616252270390978
% es.tEx (V/m) @ t=0.64
0.5624449277264552
% es.tEy (V/m) @ t=0.64
0
% es.tEz (V/m) @ t=0.64
-0.5616252270390905
% V (V) @ t=0.64
0.008671128802360116
% es.normE (V/m) @ t=0.66
0.8173204594882941
% es.EX (V/m) @ t=0.66
0.5677165998515489
% es.EY (V/m) @ t=0.66
0.08500992913005553
% es.EZ (V/m) @ t=0.66
-0.5668892162371322
% es.tEX (V/m) @ t=0.66
0.5677165998515528
% es.tEY (V/m) @ t=0.66
0
% es.tEZ (V/m) @ t=0.66
-0.5668892162371248
% es.Ex (V/m) @ t=0.66
0.5677165998515489
% es.Ey (V/m) @ t=0.66
0.08500992913005553
% es.Ez (V/m) @ t=0.66
-0.5668892162371322
% es.tEx (V/m) @ t=0.66
0.5677165998515528
% es.tEy (V/m) @ t=0.66
0
% es.tEz (V/m) @ t=0.66
-0.5668892162371248
% V (V) @ t=0.66
0.00875240137016695
% es.normE (V/m) @ t=0.68
0.824909889680548
% es.EX (V/m) @ t=0.68
0.5729882719766438
% es.EY (V/m) @ t=0.68
0.08579931001778829
% es.EZ (V/m) @ t=0.68
-0.5721532054351524
% es.tEX (V/m) @ t=0.68
0.5729882719766459
% es.tEY (V/m) @ t=0.68
0
% es.tEZ (V/m) @ t=0.68
-0.5721532054351379
% es.Ex (V/m) @ t=0.68
0.5729882719766438
% es.Ey (V/m) @ t=0.68
0.08579931001778829
% es.Ez (V/m) @ t=0.68
-0.5721532054351524
% es.tEx (V/m) @ t=0.68
0.5729882719766459
% es.tEy (V/m) @ t=0.68
0
% es.tEz (V/m) @ t=0.68
-0.5721532054351379
% V (V) @ t=0.68
0.008833673937973791
% es.normE (V/m) @ t=0.7
0.8324993198728176
% es.EX (V/m) @ t=0.7
0.5782599441017454
% es.EY (V/m) @ t=0.7
0.08658869090553353
% es.EZ (V/m) @ t=0.7
-0.5774171946331872
% es.tEX (V/m) @ t=0.7
0.5782599441017493
% es.tEY (V/m) @ t=0.7
0
% es.tEZ (V/m) @ t=0.7
-0.5774171946331728
% es.Ex (V/m) @ t=0.7
0.5782599441017454
% es.Ey (V/m) @ t=0.7
0.08658869090553353
% es.Ez (V/m) @ t=0.7
-0.5774171946331872
% es.tEx (V/m) @ t=0.7
0.5782599441017493
% es.tEy (V/m) @ t=0.7
0
% es.tEz (V/m) @ t=0.7
-0.5774171946331728
% V (V) @ t=0.7
0.008914946505780627
% es.normE (V/m) @ t=0.72
0.8400887500650738
% es.EX (V/m) @ t=0.72
0.5835316162268404
% es.EY (V/m) @ t=0.72
0.08737807179327742
% es.EZ (V/m) @ t=0.72
-0.5826811838312074
% es.tEX (V/m) @ t=0.72
0.5835316162268425
% es.tEY (V/m) @ t=0.72
0
% es.tEZ (V/m) @ t=0.72
-0.5826811838312
% es.Ex (V/m) @ t=0.72
0.5835316162268404
% es.Ey (V/m) @ t=0.72
0.08737807179327742
% es.Ez (V/m) @ t=0.72
-0.5826811838312074
% es.tEx (V/m) @ t=0.72
0.5835316162268425
% es.tEy (V/m) @ t=0.72
0
% es.tEz (V/m) @ t=0.72
-0.5826811838312
% V (V) @ t=0.72
0.008996219073587462
% es.normE (V/m) @ t=0.74
0.8476781802573352
% es.EX (V/m) @ t=0.74
0.5888032883519327
% es.EY (V/m) @ t=0.74
0.08816745268102638
% es.EZ (V/m) @ t=0.74
-0.5879451730292382
% es.tEX (V/m) @ t=0.74
0.5888032883519352
% es.tEY (V/m) @ t=0.74
0
% es.tEZ (V/m) @ t=0.74
-0.5879451730292273
% es.Ex (V/m) @ t=0.74
0.5888032883519327
% es.Ey (V/m) @ t=0.74
0.08816745268102638
% es.Ez (V/m) @ t=0.74
-0.5879451730292382
% es.tEx (V/m) @ t=0.74
0.5888032883519352
% es.tEy (V/m) @ t=0.74
0
% es.tEz (V/m) @ t=0.74
-0.5879451730292273
% V (V) @ t=0.74
0.0090774916413943
% es.normE (V/m) @ t=0.76
0.8552676104496018
% es.EX (V/m) @ t=0.76
0.5940749604770315
% es.EY (V/m) @ t=0.76
0.08895683356877068
% es.EZ (V/m) @ t=0.76
-0.5932091622272726
% es.tEX (V/m) @ t=0.76
0.5940749604770348
% es.tEY (V/m) @ t=0.76
0
% es.tEZ (V/m) @ t=0.76
-0.5932091622272546
% es.Ex (V/m) @ t=0.76
0.5940749604770315
% es.Ey (V/m) @ t=0.76
0.08895683356877068
% es.Ez (V/m) @ t=0.76
-0.5932091622272726
% es.tEx (V/m) @ t=0.76
0.5940749604770348
% es.tEy (V/m) @ t=0.76
0
% es.tEz (V/m) @ t=0.76
-0.5932091622272546
% V (V) @ t=0.76
0.009158764209201135
% es.normE (V/m) @ t=0.78
0.8628570406418505
% es.EX (V/m) @ t=0.78
0.5993466326021264
% es.EY (V/m) @ t=0.78
0.08974621445651568
% es.EZ (V/m) @ t=0.78
-0.5984731514252819
% es.tEX (V/m) @ t=0.78
0.5993466326021282
% es.tEY (V/m) @ t=0.78
0
% es.tEZ (V/m) @ t=0.78
-0.5984731514252744
% es.Ex (V/m) @ t=0.78
0.5993466326021264
% es.Ey (V/m) @ t=0.78
0.08974621445651568
% es.Ez (V/m) @ t=0.78
-0.5984731514252819
% es.tEx (V/m) @ t=0.78
0.5993466326021282
% es.tEy (V/m) @ t=0.78
0
% es.tEz (V/m) @ t=0.78
-0.5984731514252744
% V (V) @ t=0.78
0.009240036777007972
% es.normE (V/m) @ t=0.8
0.8704464708341142
% es.EX (V/m) @ t=0.8
0.6046183047272267
% es.EY (V/m) @ t=0.8
0.09053559534426575
% es.EZ (V/m) @ t=0.8
-0.6037371406233092
% es.tEX (V/m) @ t=0.8
0.6046183047272247
% es.tEY (V/m) @ t=0.8
0
% es.tEZ (V/m) @ t=0.8
-0.6037371406233016
% es.Ex (V/m) @ t=0.8
0.6046183047272267
% es.Ey (V/m) @ t=0.8
0.09053559534426575
% es.Ez (V/m) @ t=0.8
-0.6037371406233092
% es.tEx (V/m) @ t=0.8
0.6046183047272247
% es.tEy (V/m) @ t=0.8
0
% es.tEz (V/m) @ t=0.8
-0.6037371406233016
% V (V) @ t=0.8
0.009321309344814808
% es.normE (V/m) @ t=0.82
0.8780359010263821
% es.EX (V/m) @ t=0.82
0.6098899768523238
% es.EY (V/m) @ t=0.82
0.091324976232007
% es.EZ (V/m) @ t=0.82
-0.6090011298213442
% es.tEX (V/m) @ t=0.82
0.6098899768523207
% es.tEY (V/m) @ t=0.82
0
% es.tEZ (V/m) @ t=0.82
-0.6090011298213298
% es.Ex (V/m) @ t=0.82
0.6098899768523238
% es.Ey (V/m) @ t=0.82
0.091324976232007
% es.Ez (V/m) @ t=0.82
-0.6090011298213442
% es.tEx (V/m) @ t=0.82
0.6098899768523207
% es.tEy (V/m) @ t=0.82
0
% es.tEz (V/m) @ t=0.82
-0.6090011298213298
% V (V) @ t=0.82
0.009402581912621645
% es.normE (V/m) @ t=0.84
0.8863308303264157
% es.EX (V/m) @ t=0.84
0.6156516937371914
% es.EY (V/m) @ t=0.84
0.09218773588022897
% es.EZ (V/m) @ t=0.84
-0.6147544496761543
% es.tEX (V/m) @ t=0.84
0.6156516937371901
% es.tEY (V/m) @ t=0.84
0
% es.tEZ (V/m) @ t=0.84
-0.6147544496761435
% es.Ex (V/m) @ t=0.84
0.6156516937371914
% es.Ey (V/m) @ t=0.84
0.09218773588022897
% es.Ez (V/m) @ t=0.84
-0.6147544496761543
% es.tEx (V/m) @ t=0.84
0.6156516937371901
% es.tEy (V/m) @ t=0.84
0
% es.tEz (V/m) @ t=0.84
-0.6147544496761435
% V (V) @ t=0.84
0.009491409442221712
% es.normE (V/m) @ t=0.86
0.8948263248987716
% es.EX (V/m) @ t=0.86
0.6215527247042569
% es.EY (V/m) @ t=0.86
0.09307135626508184
% es.EZ (V/m) @ t=0.86
-0.620646880601915
% es.tEX (V/m) @ t=0.86
0.6215527247042569
% es.tEY (V/m) @ t=0.86
0
% es.tEZ (V/m) @ t=0.86
-0.6206468806019076
% es.Ex (V/m) @ t=0.86
0.6215527247042569
% es.Ey (V/m) @ t=0.86
0.09307135626508184
% es.Ez (V/m) @ t=0.86
-0.620646880601915
% es.tEx (V/m) @ t=0.86
0.6215527247042569
% es.tEy (V/m) @ t=0.86
0
% es.tEz (V/m) @ t=0.86
-0.6206468806019076
% V (V) @ t=0.86
0.009582384760461991
% es.normE (V/m) @ t=0.88
0.9033218194711098
% es.EX (V/m) @ t=0.88
0.627453755671316
% es.EY (V/m) @ t=0.88
0.09395497664991143
% es.EZ (V/m) @ t=0.88
-0.6265393115276578
% es.tEX (V/m) @ t=0.88
0.627453755671318
% es.tEY (V/m) @ t=0.88
0
% es.tEZ (V/m) @ t=0.88
-0.6265393115276505
% es.Ex (V/m) @ t=0.88
0.627453755671316
% es.Ey (V/m) @ t=0.88
0.09395497664991143
% es.Ez (V/m) @ t=0.88
-0.6265393115276578
% es.tEx (V/m) @ t=0.88
0.627453755671318
% es.tEy (V/m) @ t=0.88
0
% es.tEz (V/m) @ t=0.88
-0.6265393115276505
% V (V) @ t=0.88
0.00967336007870227
% es.normE (V/m) @ t=0.9
0.9118173140434525
% es.EX (V/m) @ t=0.9
0.633354786638376
% es.EY (V/m) @ t=0.9
0.09483859703478098
% es.EZ (V/m) @ t=0.9
-0.6324317424534052
% es.tEX (V/m) @ t=0.9
0.6333547866383773
% es.tEY (V/m) @ t=0.9
0
% es.tEZ (V/m) @ t=0.9
-0.6324317424533943
% es.Ex (V/m) @ t=0.9
0.633354786638376
% es.Ey (V/m) @ t=0.9
0.09483859703478098
% es.Ez (V/m) @ t=0.9
-0.6324317424534052
% es.tEx (V/m) @ t=0.9
0.6333547866383773
% es.tEy (V/m) @ t=0.9
0
% es.tEz (V/m) @ t=0.9
-0.6324317424533943
% V (V) @ t=0.9
0.009764335396942547
% es.normE (V/m) @ t=0.92
0.9203128086158057
% es.EX (V/m) @ t=0.92
0.6392558176054399
% es.EY (V/m) @ t=0.92
0.09572221741961767
% es.EZ (V/m) @ t=0.92
-0.6383241733791662
% es.tEX (V/m) @ t=0.92
0.639255817605445
% es.tEY (V/m) @ t=0.92
0
% es.tEZ (V/m) @ t=0.92
-0.6383241733791589
% es.Ex (V/m) @ t=0.92
0.6392558176054399
% es.Ey (V/m) @ t=0.92
0.09572221741961767
% es.Ez (V/m) @ t=0.92
-0.6383241733791662
% es.tEx (V/m) @ t=0.92
0.639255817605445
% es.tEy (V/m) @ t=0.92
0
% es.tEz (V/m) @ t=0.92
-0.6383241733791589
% V (V) @ t=0.92
0.009855310715182827
% es.normE (V/m) @ t=0.94
0.9288083031881482
% es.EX (V/m) @ t=0.94
0.6451568485725003
% es.EY (V/m) @ t=0.94
0.0966058378044864
% es.EZ (V/m) @ t=0.94
-0.64421660430491
% es.tEX (V/m) @ t=0.94
0.6451568485725052
% es.tEY (V/m) @ t=0.94
0
% es.tEZ (V/m) @ t=0.94
-0.6442166043048956
% es.Ex (V/m) @ t=0.94
0.6451568485725003
% es.Ey (V/m) @ t=0.94
0.0966058378044864
% es.Ez (V/m) @ t=0.94
-0.64421660430491
% es.tEx (V/m) @ t=0.94
0.6451568485725052
% es.tEy (V/m) @ t=0.94
0
% es.tEz (V/m) @ t=0.94
-0.6442166043048956
% V (V) @ t=0.94
0.009946286033423105
% es.normE (V/m) @ t=0.96
0.9373037977604941
% es.EX (V/m) @ t=0.96
0.6510578795395612
% es.EY (V/m) @ t=0.96
0.09748945818932925
% es.EZ (V/m) @ t=0.96
-0.6501090352306635
% es.tEX (V/m) @ t=0.96
0.6510578795395698
% es.tEY (V/m) @ t=0.96
0
% es.tEZ (V/m) @ t=0.96
-0.6501090352306598
% es.Ex (V/m) @ t=0.96
0.6510578795395612
% es.Ey (V/m) @ t=0.96
0.09748945818932925
% es.Ez (V/m) @ t=0.96
-0.6501090352306635
% es.tEx (V/m) @ t=0.96
0.6510578795395698
% es.tEy (V/m) @ t=0.96
0
% es.tEz (V/m) @ t=0.96
-0.6501090352306598
% V (V) @ t=0.96
0.010037261351663385
% es.normE (V/m) @ t=0.98
0.9457992923328504
% es.EX (V/m) @ t=0.98
0.6569589105066302
% es.EY (V/m) @ t=0.98
0.09837307857417754
% es.EZ (V/m) @ t=0.98
-0.6560014661564213
% es.tEX (V/m) @ t=0.98
0.6569589105066296
% es.tEY (V/m) @ t=0.98
0
% es.tEZ (V/m) @ t=0.98
-0.6560014661564102
% es.Ex (V/m) @ t=0.98
0.6569589105066302
% es.Ey (V/m) @ t=0.98
0.09837307857417754
% es.Ez (V/m) @ t=0.98
-0.6560014661564213
% es.tEx (V/m) @ t=0.98
0.6569589105066296
% es.tEy (V/m) @ t=0.98
0
% es.tEz (V/m) @ t=0.98
-0.6560014661564102
% V (V) @ t=0.98
0.010128236669903664
% es.normE (V/m) @ t=1
0.9542947869051874
% es.EX (V/m) @ t=1
0.6628599414736909
% es.EY (V/m) @ t=1
0.0992566989590295
% es.EZ (V/m) @ t=1
-0.6618938970821606
% es.tEX (V/m) @ t=1
0.6628599414736902
% es.tEY (V/m) @ t=1
0
% es.tEZ (V/m) @ t=1
-0.661893897082146
% es.Ex (V/m) @ t=1
0.6628599414736909
% es.Ey (V/m) @ t=1
0.0992566989590295
% es.Ez (V/m) @ t=1
-0.6618938970821606
% es.tEx (V/m) @ t=1
0.6628599414736902
% es.tEy (V/m) @ t=1
0
% es.tEz (V/m) @ t=1
-0.661893897082146
% V (V) @ t=1
0.010219211988143942
% es.normE (V/m) @ t=1.02
0.9627902814775422
% es.EX (V/m) @ t=1.02
0.6687609724407546
% es.EY (V/m) @ t=1.02
0.10014031934386358
% es.EZ (V/m) @ t=1.02
-0.6677863280079219
% es.tEX (V/m) @ t=1.02
0.6687609724407579
% es.tEY (V/m) @ t=1.02
0
% es.tEZ (V/m) @ t=1.02
-0.667786328007911
% es.Ex (V/m) @ t=1.02
0.6687609724407546
% es.Ey (V/m) @ t=1.02
0.10014031934386358
% es.Ez (V/m) @ t=1.02
-0.6677863280079219
% es.tEx (V/m) @ t=1.02
0.6687609724407579
% es.tEy (V/m) @ t=1.02
0
% es.tEz (V/m) @ t=1.02
-0.667786328007911
% V (V) @ t=1.02
0.010310187306384224
% es.normE (V/m) @ t=1.04
0.9712857760498819
% es.EX (V/m) @ t=1.04
0.6746620034078188