% Model:              1 neuron.mph
% Version:            COMSOL 6.0.0.405
% Date:               Mar 9 2023, 13:52
% Dimension:          0
% Nodes:              14017
% Expressions:        14017
% Description:        Electric field norm, Electric field, X component, Electric field, Y component, Electric field, Z component, Tangential electric field, X component, Tangential electric field, Y component, Tangential electric field, Z component, Electric field, x component, Electric field, y component, Electric field, z component, Tangential electric field, x component, Tangential electric field, y component, Tangential electric field, z component, Electric potential
% Length unit:        mm
% x
2
% y
12.2
% z
1.6599999999999997
% es.normE (V/m) @ t=0
1.273301775779189
% es.EX (V/m) @ t=0
-1.2303457193566052
% es.EY (V/m) @ t=0
0.09478142223221192
% es.EZ (V/m) @ t=0
-0.3135840839043811
% es.tEX (V/m) @ t=0
-1.2303457193566096
% es.tEY (V/m) @ t=0
0
% es.tEZ (V/m) @ t=0
-0.3135840839043773
% es.Ex (V/m) @ t=0
-1.2303457193566052
% es.Ey (V/m) @ t=0
0.09478142223221192
% es.Ez (V/m) @ t=0
-0.3135840839043811
% es.tEx (V/m) @ t=0
-1.2303457193566096
% es.tEy (V/m) @ t=0
0
% es.tEz (V/m) @ t=0
-0.3135840839043773
% V (V) @ t=0
0.007379052365857992
% es.normE (V/m) @ t=0.02
1.0997725304079249
% es.EX (V/m) @ t=0.02
-1.062670647655653
% es.EY (V/m) @ t=0.02
0.08186434121753888
% es.EZ (V/m) @ t=0.02
-0.27084794440288107
% es.tEX (V/m) @ t=0.02
-1.0626706476556507
% es.tEY (V/m) @ t=0.02
0
% es.tEZ (V/m) @ t=0.02
-0.27084794440288196
% es.Ex (V/m) @ t=0.02
-1.062670647655653
% es.Ey (V/m) @ t=0.02
0.08186434121753888
% es.Ez (V/m) @ t=0.02
-0.27084794440288107
% es.tEx (V/m) @ t=0.02
-1.0626706476556507
% es.tEy (V/m) @ t=0.02
0
% es.tEz (V/m) @ t=0.02
-0.27084794440288196
% V (V) @ t=0.02
0.0063734136752272115
% es.normE (V/m) @ t=0.04
1.109885480735378
% es.EX (V/m) @ t=0.04
-1.072442418525537
% es.EY (V/m) @ t=0.04
0.08261715026607036
% es.EZ (V/m) @ t=0.04
-0.2733385534037074
% es.tEX (V/m) @ t=0.04
-1.0724424185255348
% es.tEY (V/m) @ t=0.04
0
% es.tEZ (V/m) @ t=0.04
-0.2733385534037023
% es.Ex (V/m) @ t=0.04
-1.072442418525537
% es.Ey (V/m) @ t=0.04
0.08261715026607036
% es.Ez (V/m) @ t=0.04
-0.2733385534037074
% es.tEx (V/m) @ t=0.04
-1.0724424185255348
% es.tEy (V/m) @ t=0.04
0
% es.tEz (V/m) @ t=0.04
-0.2733385534037023
% V (V) @ t=0.04
0.006432019782529193
% es.normE (V/m) @ t=0.06
1.1200910964385384
% es.EX (V/m) @ t=0.06
-1.082303723518799
% es.EY (V/m) @ t=0.06
0.08337687132579708
% es.EZ (V/m) @ t=0.06
-0.27585199930359794
% es.tEX (V/m) @ t=0.06
-1.0823037235188
% es.tEY (V/m) @ t=0.06
0
% es.tEZ (V/m) @ t=0.06
-0.27585199930360016
% es.Ex (V/m) @ t=0.06
-1.082303723518799
% es.Ey (V/m) @ t=0.06
0.08337687132579708
% es.Ez (V/m) @ t=0.06
-0.27585199930359794
% es.tEx (V/m) @ t=0.06
-1.0823037235188
% es.tEy (V/m) @ t=0.06
0
% es.tEz (V/m) @ t=0.06
-0.27585199930360016
% V (V) @ t=0.06
0.006491162593730646
% es.normE (V/m) @ t=0.08
1.130448902155881
% es.EX (V/m) @ t=0.08
-1.092312095304703
% es.EY (V/m) @ t=0.08
0.08414789021043462
% es.EZ (V/m) @ t=0.08
-0.2784028921332258
% es.tEX (V/m) @ t=0.08
-1.0923120953046919
% es.tEY (V/m) @ t=0.08
0
% es.tEZ (V/m) @ t=0.08
-0.2784028921332302
% es.Ex (V/m) @ t=0.08
-1.092312095304703
% es.Ey (V/m) @ t=0.08
0.08414789021043462
% es.Ez (V/m) @ t=0.08
-0.2784028921332258
% es.tEx (V/m) @ t=0.08
-1.0923120953046919
% es.tEy (V/m) @ t=0.08
0
% es.tEz (V/m) @ t=0.08
-0.2784028921332302
% V (V) @ t=0.08
0.006551188053435864
% es.normE (V/m) @ t=0.1
1.1409199009652338
% es.EX (V/m) @ t=0.1
-1.1024298497270575
% es.EY (V/m) @ t=0.1
0.08492731198365006
% es.EZ (V/m) @ t=0.1
-0.28098163655207475
% es.tEX (V/m) @ t=0.1
-1.102429849727061
% es.tEY (V/m) @ t=0.1
0
% es.tEZ (V/m) @ t=0.1
-0.28098163655207387
% es.Ex (V/m) @ t=0.1
-1.1024298497270575
% es.Ey (V/m) @ t=0.1
0.08492731198365006
% es.Ez (V/m) @ t=0.1
-0.28098163655207475
% es.tEx (V/m) @ t=0.1
-1.102429849727061
% es.tEy (V/m) @ t=0.1
0
% es.tEz (V/m) @ t=0.1
-0.28098163655207387
% V (V) @ t=0.1
0.006611869993225205
% es.normE (V/m) @ t=0.12
1.1513908997746003
% es.EX (V/m) @ t=0.12
-1.1125476041494222
% es.EY (V/m) @ t=0.12
0.08570673375687532
% es.EZ (V/m) @ t=0.12
-0.2835603809709364
% es.tEX (V/m) @ t=0.12
-1.1125476041494284
% es.tEY (V/m) @ t=0.12
0
% es.tEZ (V/m) @ t=0.12
-0.28356038097093794
% es.Ex (V/m) @ t=0.12
-1.1125476041494222
% es.Ey (V/m) @ t=0.12
0.08570673375687532
% es.Ez (V/m) @ t=0.12
-0.2835603809709364
% es.tEx (V/m) @ t=0.12
-1.1125476041494284
% es.tEy (V/m) @ t=0.12
0
% es.tEz (V/m) @ t=0.12
-0.28356038097093794
% V (V) @ t=0.12
0.006672551933014547
% es.normE (V/m) @ t=0.14
1.161950048553351
% es.EX (V/m) @ t=0.14
-1.1227505353496694
% es.EY (V/m) @ t=0.14
0.0864927154343938
% es.EZ (V/m) @ t=0.14
-0.28616083270280135
% es.tEX (V/m) @ t=0.14
-1.122750535349672
% es.tEY (V/m) @ t=0.14
0
% es.tEZ (V/m) @ t=0.14
-0.2861608327027998
% es.Ex (V/m) @ t=0.14
-1.1227505353496694
% es.Ey (V/m) @ t=0.14
0.0864927154343938
% es.Ez (V/m) @ t=0.14
-0.28616083270280135
% es.tEx (V/m) @ t=0.14
-1.122750535349672
% es.tEy (V/m) @ t=0.14
0
% es.tEz (V/m) @ t=0.14
-0.2861608327027998
% V (V) @ t=0.14
0.00673374475906955
% es.normE (V/m) @ t=0.16
1.1729826727922874
% es.EX (V/m) @ t=0.16
-1.133410972257359
% es.EY (V/m) @ t=0.16
0.08731393199322263
% es.EZ (V/m) @ t=0.16
-0.2888778798241869
% es.tEX (V/m) @ t=0.16
-1.133410972257355
% es.tEY (V/m) @ t=0.16
0
% es.tEZ (V/m) @ t=0.16
-0.2888778798241809
% es.Ex (V/m) @ t=0.16
-1.133410972257359
% es.Ey (V/m) @ t=0.16
0.08731393199322263
% es.Ez (V/m) @ t=0.16
-0.2888778798241869
% es.tEx (V/m) @ t=0.16
-1.133410972257355
% es.tEy (V/m) @ t=0.16
0
% es.tEz (V/m) @ t=0.16
-0.2888778798241809
% V (V) @ t=0.16
0.0067976816826147875
% es.normE (V/m) @ t=0.18
1.184015297031228
% es.EX (V/m) @ t=0.18
-1.144071409165052
% es.EY (V/m) @ t=0.18
0.08813514855204091
% es.EZ (V/m) @ t=0.18
-0.2915949269455751
% es.tEX (V/m) @ t=0.18
-1.1440714091650506
% es.tEY (V/m) @ t=0.18
0
% es.tEZ (V/m) @ t=0.18
-0.29159492694558153
% es.Ex (V/m) @ t=0.18
-1.144071409165052
% es.Ey (V/m) @ t=0.18
0.08813514855204091
% es.Ez (V/m) @ t=0.18
-0.2915949269455751
% es.tEx (V/m) @ t=0.18
-1.1440714091650506
% es.tEy (V/m) @ t=0.18
0
% es.tEz (V/m) @ t=0.18
-0.29159492694558153
% V (V) @ t=0.18
0.006861618606160025
% es.normE (V/m) @ t=0.2
1.1950479212701732
% es.EX (V/m) @ t=0.2
-1.1547318460727456
% es.EY (V/m) @ t=0.2
0.08895636511087424
% es.EZ (V/m) @ t=0.2
-0.29431197406696774
% es.tEX (V/m) @ t=0.2
-1.1547318460727478
% es.tEY (V/m) @ t=0.2
0
% es.tEZ (V/m) @ t=0.2
-0.29431197406696086
% es.Ex (V/m) @ t=0.2
-1.1547318460727456
% es.Ey (V/m) @ t=0.2
0.08895636511087424
% es.Ez (V/m) @ t=0.2
-0.29431197406696774
% es.tEx (V/m) @ t=0.2
-1.1547318460727478
% es.tEy (V/m) @ t=0.2
0
% es.tEz (V/m) @ t=0.2
-0.29431197406696086
% V (V) @ t=0.2
0.006925555529705262
% es.normE (V/m) @ t=0.22
1.2060805455091
% es.EX (V/m) @ t=0.22
-1.165392282980421
% es.EY (V/m) @ t=0.22
0.08977758166970762
% es.EZ (V/m) @ t=0.22
-0.29702902118835306
% es.tEX (V/m) @ t=0.22
-1.1653922829804237
% es.tEY (V/m) @ t=0.22
0
% es.tEZ (V/m) @ t=0.22
-0.2970290211883544
% es.Ex (V/m) @ t=0.22
-1.165392282980421
% es.Ey (V/m) @ t=0.22
0.08977758166970762
% es.Ez (V/m) @ t=0.22
-0.29702902118835306
% es.tEx (V/m) @ t=0.22
-1.1653922829804237
% es.tEy (V/m) @ t=0.22
0
% es.tEz (V/m) @ t=0.22
-0.2970290211883544
% V (V) @ t=0.22
0.0069894924532505
% es.normE (V/m) @ t=0.24
1.217113169748039
% es.EX (V/m) @ t=0.24
-1.1760527198881112
% es.EY (V/m) @ t=0.24
0.09059879822850803
% es.EZ (V/m) @ t=0.24
-0.29974606830973705
% es.tEX (V/m) @ t=0.24
-1.1760527198881139
% es.tEY (V/m) @ t=0.24
0
% es.tEZ (V/m) @ t=0.24
-0.29974606830973727
% es.Ex (V/m) @ t=0.24
-1.1760527198881112
% es.Ey (V/m) @ t=0.24
0.09059879822850803
% es.Ez (V/m) @ t=0.24
-0.29974606830973705
% es.tEx (V/m) @ t=0.24
-1.1760527198881139
% es.tEy (V/m) @ t=0.24
0
% es.tEz (V/m) @ t=0.24
-0.29974606830973727
% V (V) @ t=0.24
0.007053429376795737
% es.normE (V/m) @ t=0.26
1.2281457939869975
% es.EX (V/m) @ t=0.26
-1.1867131567958147
% es.EY (V/m) @ t=0.26
0.09142001478735562
% es.EZ (V/m) @ t=0.26
-0.3024631154311286
% es.tEX (V/m) @ t=0.26
-1.1867131567958236
% es.tEY (V/m) @ t=0.26
0
% es.tEZ (V/m) @ t=0.26
-0.30246311543113613
% es.Ex (V/m) @ t=0.26
-1.1867131567958147
% es.Ey (V/m) @ t=0.26
0.09142001478735562
% es.Ez (V/m) @ t=0.26
-0.3024631154311286
% es.tEx (V/m) @ t=0.26
-1.1867131567958236
% es.tEy (V/m) @ t=0.26
0
% es.tEz (V/m) @ t=0.26
-0.30246311543113613
% V (V) @ t=0.26
0.007117366300340975
% es.normE (V/m) @ t=0.28
1.2395885552848513
% es.EX (V/m) @ t=0.28
-1.1977700880617537
% es.EY (V/m) @ t=0.28
0.092271221516816
% es.EZ (V/m) @ t=0.28
-0.30528057613201676
% es.tEX (V/m) @ t=0.28
-1.1977700880617501
% es.tEY (V/m) @ t=0.28
0
% es.tEZ (V/m) @ t=0.28
-0.3052805761320183
% es.Ex (V/m) @ t=0.28
-1.1977700880617537
% es.Ey (V/m) @ t=0.28
0.092271221516816
% es.Ez (V/m) @ t=0.28
-0.30528057613201676
% es.tEx (V/m) @ t=0.28
-1.1977700880617501
% es.tEy (V/m) @ t=0.28
0
% es.tEz (V/m) @ t=0.28
-0.3052805761320183
% V (V) @ t=0.28
0.0071836918777940266
% es.normE (V/m) @ t=0.3
1.2518873492053644
% es.EX (V/m) @ t=0.3
-1.2096545770832963
% es.EY (V/m) @ t=0.3
0.09318502333189982
% es.EZ (V/m) @ t=0.3
-0.3083076187216287
% es.tEX (V/m) @ t=0.3
-1.2096545770833131
% es.tEY (V/m) @ t=0.3
0
% es.tEZ (V/m) @ t=0.3
-0.3083076187216278
% es.Ex (V/m) @ t=0.3
-1.2096545770832963
% es.Ey (V/m) @ t=0.3
0.09318502333189982
% es.Ez (V/m) @ t=0.3
-0.3083076187216287
% es.tEx (V/m) @ t=0.3
-1.2096545770833131
% es.tEy (V/m) @ t=0.3
0
% es.tEz (V/m) @ t=0.3
-0.3083076187216278
% V (V) @ t=0.3
0.007255003021941049
% es.normE (V/m) @ t=0.32
1.2641861431311125
% es.EX (V/m) @ t=0.32
-1.2215390661048398
% es.EY (V/m) @ t=0.32
0.09409882514698809
% es.EZ (V/m) @ t=0.32
-0.3113346613112682
% es.tEX (V/m) @ t=0.32
-1.2215390661048264
% es.tEY (V/m) @ t=0.32
0
% es.tEZ (V/m) @ t=0.32
-0.3113346613112622
% es.Ex (V/m) @ t=0.32
-1.2215390661048398
% es.Ey (V/m) @ t=0.32
0.09409882514698809
% es.Ez (V/m) @ t=0.32
-0.3113346613112682
% es.tEx (V/m) @ t=0.32
-1.2215390661048264
% es.tEy (V/m) @ t=0.32
0
% es.tEz (V/m) @ t=0.32
-0.3113346613112622
% V (V) @ t=0.32
0.00732631416608807
% es.normE (V/m) @ t=0.34
1.2764849370619307
% es.EX (V/m) @ t=0.34
-1.2334235551263903
% es.EY (V/m) @ t=0.34
0.09501262696205764
% es.EZ (V/m) @ t=0.34
-0.3143617039008608
% es.tEX (V/m) @ t=0.34
-1.2334235551263983
% es.tEY (V/m) @ t=0.34
0
% es.tEZ (V/m) @ t=0.34
-0.31436170390086104
% es.Ex (V/m) @ t=0.34
-1.2334235551263903
% es.Ey (V/m) @ t=0.34
0.09501262696205764
% es.Ez (V/m) @ t=0.34
-0.3143617039008608
% es.tEx (V/m) @ t=0.34
-1.2334235551263983
% es.tEy (V/m) @ t=0.34
0
% es.tEz (V/m) @ t=0.34
-0.31436170390086104
% V (V) @ t=0.34
0.007397625310235094
% es.normE (V/m) @ t=0.36
1.2887837309976828
% es.EX (V/m) @ t=0.36
-1.245308044147933
% es.EY (V/m) @ t=0.36
0.0959264287771539
% es.EZ (V/m) @ t=0.36
-0.31738874649049054
% es.tEX (V/m) @ t=0.36
-1.24530804414794
% es.tEY (V/m) @ t=0.36
0
% es.tEZ (V/m) @ t=0.36
-0.31738874649049365
% es.Ex (V/m) @ t=0.36
-1.245308044147933
% es.Ey (V/m) @ t=0.36
0.0959264287771539
% es.Ez (V/m) @ t=0.36
-0.31738874649049054
% es.tEx (V/m) @ t=0.36
-1.24530804414794
% es.tEy (V/m) @ t=0.36
0
% es.tEz (V/m) @ t=0.36
-0.31738874649049365
% V (V) @ t=0.36
0.007468936454382119
% es.normE (V/m) @ t=0.38
1.30108252493822
% es.EX (V/m) @ t=0.38
-1.2571925331694729
% es.EY (V/m) @ t=0.38
0.09684023059225727
% es.EZ (V/m) @ t=0.38
-0.32041578908010515
% es.tEX (V/m) @ t=0.38
-1.2571925331694747
% es.tEY (V/m) @ t=0.38
0
% es.tEZ (V/m) @ t=0.38
-0.32041578908010315
% es.Ex (V/m) @ t=0.38
-1.2571925331694729
% es.Ey (V/m) @ t=0.38
0.09684023059225727
% es.Ez (V/m) @ t=0.38
-0.32041578908010515
% es.tEx (V/m) @ t=0.38
-1.2571925331694747
% es.tEy (V/m) @ t=0.38
0
% es.tEz (V/m) @ t=0.38
-0.32041578908010315
% V (V) @ t=0.38
0.007540247598529141
% es.normE (V/m) @ t=0.4
1.3133813188834202
% es.EX (V/m) @ t=0.4
-1.26907702219102
% es.EY (V/m) @ t=0.4
0.09775403240733477
% es.EZ (V/m) @ t=0.4
-0.3234428316697273
% es.tEX (V/m) @ t=0.4
-1.2690770221910235
% es.tEY (V/m) @ t=0.4
0
% es.tEZ (V/m) @ t=0.4
-0.3234428316697304
% es.Ex (V/m) @ t=0.4
-1.26907702219102
% es.Ey (V/m) @ t=0.4
0.09775403240733477
% es.Ez (V/m) @ t=0.4
-0.3234428316697273
% es.tEx (V/m) @ t=0.4
-1.2690770221910235
% es.tEy (V/m) @ t=0.4
0
% es.tEz (V/m) @ t=0.4
-0.3234428316697304
% V (V) @ t=0.4
0.0076115587426761645
% es.normE (V/m) @ t=0.42
1.325680112833132
% es.EX (V/m) @ t=0.42
-1.2809615112125492
% es.EY (V/m) @ t=0.42
0.09866783422243108
% es.EZ (V/m) @ t=0.42
-0.32646987425935214
% es.tEX (V/m) @ t=0.42
-1.280961511212551
% es.tEY (V/m) @ t=0.42
0
% es.tEZ (V/m) @ t=0.42
-0.32646987425935237
% es.Ex (V/m) @ t=0.42
-1.2809615112125492
% es.Ey (V/m) @ t=0.42
0.09866783422243108
% es.Ez (V/m) @ t=0.42
-0.32646987425935214
% es.tEx (V/m) @ t=0.42
-1.280961511212551
% es.tEy (V/m) @ t=0.42
0
% es.tEz (V/m) @ t=0.42
-0.32646987425935237
% V (V) @ t=0.42
0.007682869886823187
% es.normE (V/m) @ t=0.44
1.3379789067872845
% es.EX (V/m) @ t=0.44
-1.2928460002341247
% es.EY (V/m) @ t=0.44
0.09958163603750148
% es.EZ (V/m) @ t=0.44
-0.3294969168489619
% es.tEX (V/m) @ t=0.44
-1.292846000234121
% es.tEY (V/m) @ t=0.44
0
% es.tEZ (V/m) @ t=0.44
-0.3294969168489654
% es.Ex (V/m) @ t=0.44
-1.2928460002341247
% es.Ey (V/m) @ t=0.44
0.09958163603750148
% es.Ez (V/m) @ t=0.44
-0.3294969168489619
% es.tEx (V/m) @ t=0.44
-1.292846000234121
% es.tEy (V/m) @ t=0.44
0
% es.tEz (V/m) @ t=0.44
-0.3294969168489654
% V (V) @ t=0.44
0.00775418103097021
% es.normE (V/m) @ t=0.46
1.3502777007456808
% es.EX (V/m) @ t=0.46
-1.3047304892556566
% es.EY (V/m) @ t=0.46
0.10049543785258619
% es.EZ (V/m) @ t=0.46
-0.33252395943858537
% es.tEX (V/m) @ t=0.46
-1.3047304892556575
% es.tEY (V/m) @ t=0.46
0
% es.tEZ (V/m) @ t=0.46
-0.3325239594385856
% es.Ex (V/m) @ t=0.46
-1.3047304892556566
% es.Ey (V/m) @ t=0.46
0.10049543785258619
% es.Ez (V/m) @ t=0.46
-0.33252395943858537
% es.tEx (V/m) @ t=0.46
-1.3047304892556575
% es.tEy (V/m) @ t=0.46
0
% es.tEz (V/m) @ t=0.46
-0.3325239594385856
% V (V) @ t=0.46
0.007825492175117233
% es.normE (V/m) @ t=0.48
1.3625764947082393
% es.EX (V/m) @ t=0.48
-1.3166149782771912
% es.EY (V/m) @ t=0.48
0.10140923966765758
% es.EZ (V/m) @ t=0.48
-0.3355510020281878
% es.tEX (V/m) @ t=0.48
-1.3166149782771992
% es.tEY (V/m) @ t=0.48
0
% es.tEZ (V/m) @ t=0.48
-0.33555100202818444
% es.Ex (V/m) @ t=0.48
-1.3166149782771912
% es.Ey (V/m) @ t=0.48
0.10140923966765758
% es.Ez (V/m) @ t=0.48
-0.3355510020281878
% es.tEx (V/m) @ t=0.48
-1.3166149782771992
% es.tEy (V/m) @ t=0.48
0
% es.tEz (V/m) @ t=0.48
-0.33555100202818444
% V (V) @ t=0.48
0.007896803319264257
% es.normE (V/m) @ t=0.5
1.3748752886748732
% es.EX (V/m) @ t=0.5
-1.32849946729874
% es.EY (V/m) @ t=0.5
0.10232304148275378
% es.EZ (V/m) @ t=0.5
-0.3385780446178148
% es.tEX (V/m) @ t=0.5
-1.3284994672987338
% es.tEY (V/m) @ t=0.5
0
% es.tEZ (V/m) @ t=0.5
-0.3385780446178135
% es.Ex (V/m) @ t=0.5
-1.32849946729874
% es.Ey (V/m) @ t=0.5
0.10232304148275378
% es.Ez (V/m) @ t=0.5
-0.3385780446178148
% es.tEx (V/m) @ t=0.5
-1.3284994672987338
% es.tEy (V/m) @ t=0.5
0
% es.tEz (V/m) @ t=0.5
-0.3385780446178135
% V (V) @ t=0.5
0.00796811446341128
% es.normE (V/m) @ t=0.52
1.3871740826454457
% es.EX (V/m) @ t=0.52
-1.3403839563202835
% es.EY (V/m) @ t=0.52
0.10323684329785093
% es.EZ (V/m) @ t=0.52
-0.3416050872074321
% es.tEX (V/m) @ t=0.52
-1.340383956320295
% es.tEY (V/m) @ t=0.52
0
% es.tEZ (V/m) @ t=0.52
-0.34160508720743366
% es.Ex (V/m) @ t=0.52
-1.3403839563202835
% es.Ey (V/m) @ t=0.52
0.10323684329785093
% es.Ez (V/m) @ t=0.52
-0.3416050872074321
% es.tEx (V/m) @ t=0.52
-1.340383956320295
% es.tEy (V/m) @ t=0.52
0
% es.tEz (V/m) @ t=0.52
-0.34160508720743366
% V (V) @ t=0.52
0.008039425607558302
% es.normE (V/m) @ t=0.54
1.399472876619869
% es.EX (V/m) @ t=0.54
-1.352268445341835
% es.EY (V/m) @ t=0.54
0.10415064511293654
% es.EZ (V/m) @ t=0.54
-0.3446321297970574
% es.tEX (V/m) @ t=0.54
-1.3522684453418385
% es.tEY (V/m) @ t=0.54
0
% es.tEZ (V/m) @ t=0.54
-0.3446321297970574
% es.Ex (V/m) @ t=0.54
-1.352268445341835
% es.Ey (V/m) @ t=0.54
0.10415064511293654
% es.Ez (V/m) @ t=0.54
-0.3446321297970574
% es.tEx (V/m) @ t=0.54
-1.3522684453418385
% es.tEy (V/m) @ t=0.54
0
% es.tEz (V/m) @ t=0.54
-0.3446321297970574
% V (V) @ t=0.54
0.008110736751705327
% es.normE (V/m) @ t=0.56
1.4127142256765282
% es.EX (V/m) @ t=0.56
-1.36506349073003
% es.EY (V/m) @ t=0.56
0.105135167573282
% es.EZ (V/m) @ t=0.56
-0.34789191650114426
% es.tEX (V/m) @ t=0.56
-1.3650634907300319
% es.tEY (V/m) @ t=0.56
0
% es.tEZ (V/m) @ t=0.56
-0.3478919165011334
% es.Ex (V/m) @ t=0.56
-1.36506349073003
% es.Ey (V/m) @ t=0.56
0.105135167573282
% es.Ez (V/m) @ t=0.56
-0.34789191650114426
% es.tEx (V/m) @ t=0.56
-1.3650634907300319
% es.tEy (V/m) @ t=0.56
0
% es.tEz (V/m) @ t=0.56
-0.3478919165011334
% V (V) @ t=0.56
0.008187497943295825
% es.normE (V/m) @ t=0.58
1.4264458044087232
% es.EX (V/m) @ t=0.58
-1.378332123032476
% es.EY (V/m) @ t=0.58
0.1061564723498098
% es.EZ (V/m) @ t=0.58
-0.35127275509285716
% es.tEX (V/m) @ t=0.58
-1.3783321230324734
% es.tEY (V/m) @ t=0.58
0
% es.tEZ (V/m) @ t=0.58
-0.3512727550928574
% es.Ex (V/m) @ t=0.58
-1.378332123032476
% es.Ey (V/m) @ t=0.58
0.1061564723498098
% es.Ez (V/m) @ t=0.58
-0.35127275509285716
% es.tEx (V/m) @ t=0.58
-1.3783321230324734
% es.tEy (V/m) @ t=0.58
0
% es.tEz (V/m) @ t=0.58
-0.3512727550928574
% V (V) @ t=0.58
0.00826709374375337
% es.normE (V/m) @ t=0.6
1.4401773831414588
% es.EX (V/m) @ t=0.6
-1.3916007553348662
% es.EY (V/m) @ t=0.6
0.10717777712631643
% es.EZ (V/m) @ t=0.6
-0.3546535936845543
% es.tEX (V/m) @ t=0.6
-1.3916007553348688
% es.tEY (V/m) @ t=0.6
0
% es.tEZ (V/m) @ t=0.6
-0.3546535936845512
% es.Ex (V/m) @ t=0.6
-1.3916007553348662
% es.Ey (V/m) @ t=0.6
0.10717777712631643
% es.Ez (V/m) @ t=0.6
-0.3546535936845543
% es.tEx (V/m) @ t=0.6
-1.3916007553348688
% es.tEy (V/m) @ t=0.6
0
% es.tEz (V/m) @ t=0.6
-0.3546535936845512
% V (V) @ t=0.6
0.008346689544210917
% es.normE (V/m) @ t=0.62
1.453908961874821
% es.EX (V/m) @ t=0.62
-1.4048693876372944
% es.EY (V/m) @ t=0.62
0.10819908190282562
% es.EZ (V/m) @ t=0.62
-0.35803443227627496
% es.tEX (V/m) @ t=0.62
-1.404869387637289
% es.tEY (V/m) @ t=0.62
0
% es.tEZ (V/m) @ t=0.62
-0.35803443227627696
% es.Ex (V/m) @ t=0.62
-1.4048693876372944
% es.Ey (V/m) @ t=0.62
0.10819908190282562
% es.Ez (V/m) @ t=0.62
-0.35803443227627496
% es.tEx (V/m) @ t=0.62
-1.404869387637289
% es.tEy (V/m) @ t=0.62
0
% es.tEz (V/m) @ t=0.62
-0.35803443227627696
% V (V) @ t=0.62
0.008426285344668463
% es.normE (V/m) @ t=0.64
1.467640540608709
% es.EX (V/m) @ t=0.64
-1.4181380199396791
% es.EY (V/m) @ t=0.64
0.10922038667934819
% es.EZ (V/m) @ t=0.64
-0.36141527086799363
% es.tEX (V/m) @ t=0.64
-1.418138019939688
% es.tEY (V/m) @ t=0.64
0
% es.tEZ (V/m) @ t=0.64
-0.36141527086798675
% es.Ex (V/m) @ t=0.64
-1.4181380199396791
% es.Ey (V/m) @ t=0.64
0.10922038667934819
% es.Ez (V/m) @ t=0.64
-0.36141527086799363
% es.tEx (V/m) @ t=0.64
-1.418138019939688
% es.tEy (V/m) @ t=0.64
0
% es.tEz (V/m) @ t=0.64
-0.36141527086798675
% V (V) @ t=0.64
0.008505881145126008
% es.normE (V/m) @ t=0.66
1.4813721193431881
% es.EX (V/m) @ t=0.66
-1.4314066522421127
% es.EY (V/m) @ t=0.66
0.11024169145585921
% es.EZ (V/m) @ t=0.66
-0.3647961094596881
% es.tEX (V/m) @ t=0.66
-1.4314066522421154
% es.tEY (V/m) @ t=0.66
0
% es.tEZ (V/m) @ t=0.66
-0.36479610945968766
% es.Ex (V/m) @ t=0.66
-1.4314066522421127
% es.Ey (V/m) @ t=0.66
0.11024169145585921
% es.Ez (V/m) @ t=0.66
-0.3647961094596881
% es.tEx (V/m) @ t=0.66
-1.4314066522421154
% es.tEy (V/m) @ t=0.66
0
% es.tEz (V/m) @ t=0.66
-0.36479610945968766
% V (V) @ t=0.66
0.008585476945583554
% es.normE (V/m) @ t=0.68
1.495103698078192
% es.EX (V/m) @ t=0.68
-1.4446752845445285
% es.EY (V/m) @ t=0.68
0.11126299623238084
% es.EZ (V/m) @ t=0.68
-0.3681769480513981
% es.tEX (V/m) @ t=0.68
-1.4446752845445179
% es.tEY (V/m) @ t=0.68
0
% es.tEZ (V/m) @ t=0.68
-0.3681769480514028
% es.Ex (V/m) @ t=0.68
-1.4446752845445285
% es.Ey (V/m) @ t=0.68
0.11126299623238084
% es.Ez (V/m) @ t=0.68
-0.3681769480513981
% es.tEx (V/m) @ t=0.68
-1.4446752845445179
% es.tEy (V/m) @ t=0.68
0
% es.tEz (V/m) @ t=0.68
-0.3681769480514028
% V (V) @ t=0.68
0.0086650727460411
% es.normE (V/m) @ t=0.7
1.5088352768136977
% es.EX (V/m) @ t=0.7
-1.457943916846924
% es.EY (V/m) @ t=0.7
0.11228430100889364
% es.EZ (V/m) @ t=0.7
-0.37155778664311323
% es.tEX (V/m) @ t=0.7
-1.457943916846931
% es.tEY (V/m) @ t=0.7
0
% es.tEZ (V/m) @ t=0.7
-0.37155778664310546
% es.Ex (V/m) @ t=0.7
-1.457943916846924
% es.Ey (V/m) @ t=0.7
0.11228430100889364
% es.Ez (V/m) @ t=0.7
-0.37155778664311323
% es.tEx (V/m) @ t=0.7
-1.457943916846931
% es.tEy (V/m) @ t=0.7
0
% es.tEz (V/m) @ t=0.7
-0.37155778664310546
% V (V) @ t=0.7
0.008744668546498646
% es.normE (V/m) @ t=0.72
1.522566855549739
% es.EX (V/m) @ t=0.72
-1.4712125491493566
% es.EY (V/m) @ t=0.72
0.11330560578539839
% es.EZ (V/m) @ t=0.72
-0.37493862523480015
% es.tEX (V/m) @ t=0.72
-1.471212549149346
% es.tEY (V/m) @ t=0.72
0
% es.tEZ (V/m) @ t=0.72
-0.37493862523480104
% es.Ex (V/m) @ t=0.72
-1.4712125491493566
% es.Ey (V/m) @ t=0.72
0.11330560578539839
% es.Ez (V/m) @ t=0.72
-0.37493862523480015
% es.tEx (V/m) @ t=0.72
-1.471212549149346
% es.tEy (V/m) @ t=0.72
0
% es.tEz (V/m) @ t=0.72
-0.37493862523480104
% V (V) @ t=0.72
0.008824264346956193
% es.normE (V/m) @ t=0.74
1.5362984342862536
% es.EX (V/m) @ t=0.74
-1.4844811814517556
% es.EY (V/m) @ t=0.74
0.11432691056192545
% es.EZ (V/m) @ t=0.74
-0.3783194638265295
% es.tEX (V/m) @ t=0.74
-1.4844811814517662
% es.tEY (V/m) @ t=0.74
0
% es.tEZ (V/m) @ t=0.74
-0.37831946382652504
% es.Ex (V/m) @ t=0.74
-1.4844811814517556
% es.Ey (V/m) @ t=0.74
0.11432691056192545
% es.Ez (V/m) @ t=0.74
-0.3783194638265295
% es.tEx (V/m) @ t=0.74
-1.4844811814517662
% es.tEy (V/m) @ t=0.74
0
% es.tEz (V/m) @ t=0.74
-0.37831946382652504
% V (V) @ t=0.74
0.008903860147413737
% es.normE (V/m) @ t=0.76
1.5500300130232683
% es.EX (V/m) @ t=0.76
-1.4977498137541865
% es.EY (V/m) @ t=0.76
0.11534821533843104
% es.EZ (V/m) @ t=0.76
-0.38170030241821706
% es.tEX (V/m) @ t=0.76
-1.4977498137541634
% es.tEY (V/m) @ t=0.76
0
% es.tEZ (V/m) @ t=0.76
-0.3817003024182224
% es.Ex (V/m) @ t=0.76
-1.4977498137541865
% es.Ey (V/m) @ t=0.76
0.11534821533843104
% es.Ez (V/m) @ t=0.76
-0.38170030241821706
% es.tEx (V/m) @ t=0.76
-1.4977498137541634
% es.tEy (V/m) @ t=0.76
0
% es.tEz (V/m) @ t=0.76
-0.3817003024182224
% V (V) @ t=0.76
0.008983455947871284
% es.normE (V/m) @ t=0.78
1.5637615917607115
% es.EX (V/m) @ t=0.78
-1.5110184460565685
% es.EY (V/m) @ t=0.78
0.11636952011493856
% es.EZ (V/m) @ t=0.78
-0.3850811410099366
% es.tEX (V/m) @ t=0.78
-1.511018446056573
% es.tEY (V/m) @ t=0.78
0
% es.tEZ (V/m) @ t=0.78
-0.3850811410099446
% es.Ex (V/m) @ t=0.78
-1.5110184460565685
% es.Ey (V/m) @ t=0.78
0.11636952011493856
% es.Ez (V/m) @ t=0.78
-0.3850811410099366
% es.tEx (V/m) @ t=0.78
-1.511018446056573
% es.tEy (V/m) @ t=0.78
0
% es.tEz (V/m) @ t=0.78
-0.3850811410099446
% V (V) @ t=0.78
0.00906305174832883
% es.normE (V/m) @ t=0.8
1.5774931704986668
% es.EX (V/m) @ t=0.8
-1.5242870783590083
% es.EY (V/m) @ t=0.8
0.11739082489146102
% es.EZ (V/m) @ t=0.8
-0.3884619796016513
% es.tEX (V/m) @ t=0.8
-1.5242870783590075
% es.tEY (V/m) @ t=0.8
0
% es.tEZ (V/m) @ t=0.8
-0.3884619796016544
% es.Ex (V/m) @ t=0.8
-1.5242870783590083
% es.Ey (V/m) @ t=0.8
0.11739082489146102
% es.Ez (V/m) @ t=0.8
-0.3884619796016513
% es.tEx (V/m) @ t=0.8
-1.5242870783590075
% es.tEy (V/m) @ t=0.8
0
% es.tEz (V/m) @ t=0.8
-0.3884619796016544
% V (V) @ t=0.8
0.009142647548786374
% es.normE (V/m) @ t=0.82
1.5912247492370122
% es.EX (V/m) @ t=0.82
-1.5375557106613966
% es.EY (V/m) @ t=0.82
0.11841212966797304
% es.EZ (V/m) @ t=0.82
-0.3918428181933553
% es.tEX (V/m) @ t=0.82
-1.537555710661401
% es.tEY (V/m) @ t=0.82
0
% es.tEZ (V/m) @ t=0.82
-0.3918428181933482
% es.Ex (V/m) @ t=0.82
-1.5375557106613966
% es.Ey (V/m) @ t=0.82
0.11841212966797304
% es.Ez (V/m) @ t=0.82
-0.3918428181933553
% es.tEx (V/m) @ t=0.82
-1.537555710661401
% es.tEy (V/m) @ t=0.82
0
% es.tEz (V/m) @ t=0.82
-0.3918428181933482
% V (V) @ t=0.82
0.009222243349243923
% es.normE (V/m) @ t=0.84
1.6065735362029683
% es.EX (V/m) @ t=0.84
-1.5523873901366523
% es.EY (V/m) @ t=0.84
0.1195527094233555
% es.EZ (V/m) @ t=0.84
-0.3956207200999975
% es.tEX (V/m) @ t=0.84
-1.5523873901366603
% es.tEY (V/m) @ t=0.84
0
% es.tEZ (V/m) @ t=0.84
-0.3956207200999948
% es.Ex (V/m) @ t=0.84
-1.5523873901366523
% es.Ey (V/m) @ t=0.84
0.1195527094233555
% es.Ez (V/m) @ t=0.84
-0.3956207200999975
% es.tEx (V/m) @ t=0.84
-1.5523873901366603
% es.tEy (V/m) @ t=0.84
0
% es.tEz (V/m) @ t=0.84
-0.3956207200999948
% V (V) @ t=0.84
0.00931123545441259
% es.normE (V/m) @ t=0.86
1.6219357314347431
% es.EX (V/m) @ t=0.86
-1.5672320288250443
% es.EY (V/m) @ t=0.86
0.1206942780867375
% es.EZ (V/m) @ t=0.86
-0.39940191405579784
% es.tEX (V/m) @ t=0.86
-1.567232028825055
% es.tEY (V/m) @ t=0.86
0
% es.tEZ (V/m) @ t=0.86
-0.39940191405580094
% es.Ex (V/m) @ t=0.86
-1.5672320288250443
% es.Ey (V/m) @ t=0.86
0.1206942780867375
% es.Ez (V/m) @ t=0.86
-0.39940191405579784
% es.tEx (V/m) @ t=0.86
-1.567232028825055
% es.tEy (V/m) @ t=0.86
0
% es.tEz (V/m) @ t=0.86
-0.39940191405580094
% V (V) @ t=0.86
0.0094003054642775
% es.normE (V/m) @ t=0.88
1.6372979266701586
% es.EX (V/m) @ t=0.88
-1.582076667513407
% es.EY (V/m) @ t=0.88
0.12183584675012393
% es.EZ (V/m) @ t=0.88
-0.40318310801159374
% es.tEX (V/m) @ t=0.88
-1.5820766675134035
% es.tEY (V/m) @ t=0.88
0
% es.tEZ (V/m) @ t=0.88
-0.4031831080115911
% es.Ex (V/m) @ t=0.88
-1.582076667513407
% es.Ey (V/m) @ t=0.88
0.12183584675012393
% es.Ez (V/m) @ t=0.88
-0.40318310801159374
% es.tEx (V/m) @ t=0.88
-1.5820766675134035
% es.tEy (V/m) @ t=0.88
0
% es.tEz (V/m) @ t=0.88
-0.4031831080115911
% V (V) @ t=0.88
0.00948937547414241
% es.normE (V/m) @ t=0.9
1.6526601219091404
% es.EX (V/m) @ t=0.9
-1.5969213062017644
% es.EY (V/m) @ t=0.9
0.12297741541352802
% es.EZ (V/m) @ t=0.9
-0.40696430196739986
% es.tEX (V/m) @ t=0.9
-1.5969213062017698
% es.tEY (V/m) @ t=0.9
0
% es.tEZ (V/m) @ t=0.9
-0.4069643019674043
% es.Ex (V/m) @ t=0.9
-1.5969213062017644
% es.Ey (V/m) @ t=0.9
0.12297741541352802
% es.Ez (V/m) @ t=0.9
-0.40696430196739986
% es.tEx (V/m) @ t=0.9
-1.5969213062017698
% es.tEy (V/m) @ t=0.9
0
% es.tEz (V/m) @ t=0.9
-0.4069643019674043
% V (V) @ t=0.9
0.00957844548400732
% es.normE (V/m) @ t=0.92
1.6680223171516064
% es.EX (V/m) @ t=0.92
-1.6117659448901414
% es.EY (V/m) @ t=0.92
0.12411898407691357
% es.EZ (V/m) @ t=0.92
-0.41074549592319753
% es.tEX (V/m) @ t=0.92
-1.6117659448901644
% es.tEY (V/m) @ t=0.92
0
% es.tEZ (V/m) @ t=0.92
-0.4107454959231891
% es.Ex (V/m) @ t=0.92
-1.6117659448901414
% es.Ey (V/m) @ t=0.92
0.12411898407691357
% es.Ez (V/m) @ t=0.92
-0.41074549592319753
% es.tEx (V/m) @ t=0.92
-1.6117659448901644
% es.tEy (V/m) @ t=0.92
0
% es.tEz (V/m) @ t=0.92
-0.4107454959231891
% V (V) @ t=0.92
0.00966751549387223
% es.normE (V/m) @ t=0.94
1.68338451239745
% es.EX (V/m) @ t=0.94
-1.6266105835785227
% es.EY (V/m) @ t=0.94
0.12526055274030523
% es.EZ (V/m) @ t=0.94
-0.4145266898789912
% es.tEX (V/m) @ t=0.94
-1.6266105835785112
% es.tEY (V/m) @ t=0.94
0
% es.tEZ (V/m) @ t=0.94
-0.4145266898789881
% es.Ex (V/m) @ t=0.94
-1.6266105835785227
% es.Ey (V/m) @ t=0.94
0.12526055274030523
% es.Ez (V/m) @ t=0.94
-0.4145266898789912
% es.tEx (V/m) @ t=0.94
-1.6266105835785112
% es.tEy (V/m) @ t=0.94
0
% es.tEz (V/m) @ t=0.94
-0.4145266898789881
% V (V) @ t=0.94
0.00975658550373714
% es.normE (V/m) @ t=0.96
1.6987467076465388
% es.EX (V/m) @ t=0.96
-1.641455222266865
% es.EY (V/m) @ t=0.96
0.12640212140368623
% es.EZ (V/m) @ t=0.96
-0.41830788383479023
% es.tEX (V/m) @ t=0.96
-1.6414552222668704
% es.tEY (V/m) @ t=0.96
0
% es.tEZ (V/m) @ t=0.96
-0.4183078838347942
% es.Ex (V/m) @ t=0.96
-1.641455222266865
% es.Ey (V/m) @ t=0.96
0.12640212140368623
% es.Ez (V/m) @ t=0.96
-0.41830788383479023
% es.tEx (V/m) @ t=0.96
-1.6414552222668704
% es.tEy (V/m) @ t=0.96
0
% es.tEz (V/m) @ t=0.96
-0.4183078838347942
% V (V) @ t=0.96
0.00984565551360205
% es.normE (V/m) @ t=0.98
1.7141089028988592
% es.EX (V/m) @ t=0.98
-1.656299860955249
% es.EY (V/m) @ t=0.98
0.1275436900670709
% es.EZ (V/m) @ t=0.98
-0.42208907779057725
% es.tEX (V/m) @ t=0.98
-1.6562998609552295
% es.tEY (V/m) @ t=0.98
0
% es.tEZ (V/m) @ t=0.98
-0.42208907779058613
% es.Ex (V/m) @ t=0.98
-1.656299860955249
% es.Ey (V/m) @ t=0.98
0.1275436900670709
% es.Ez (V/m) @ t=0.98
-0.42208907779057725
% es.tEx (V/m) @ t=0.98
-1.6562998609552295
% es.tEy (V/m) @ t=0.98
0
% es.tEz (V/m) @ t=0.98
-0.42208907779058613
% V (V) @ t=0.98
0.009934725523466957
% es.normE (V/m) @ t=1
1.7294710981542627
% es.EX (V/m) @ t=1
-1.6711444996436002
% es.EY (V/m) @ t=1
0.1286852587304732
% es.EZ (V/m) @ t=1
-0.42587027174638115
% es.tEX (V/m) @ t=1
-1.6711444996435993
% es.tEY (V/m) @ t=1
0
% es.tEZ (V/m) @ t=1
-0.42587027174638337
% es.Ex (V/m) @ t=1
-1.6711444996436002
% es.Ey (V/m) @ t=1
0.1286852587304732
% es.Ez (V/m) @ t=1
-0.42587027174638115
% es.tEx (V/m) @ t=1
-1.6711444996435993
% es.tEy (V/m) @ t=1
0
% es.tEz (V/m) @ t=1
-0.42587027174638337
% V (V) @ t=1
0.010023795533331869
% es.normE (V/m) @ t=1.02
1.7448332934127109
% es.EX (V/m) @ t=1.02
-1.6859891383319727
% es.EY (V/m) @ t=1.02
0.12982682739386664
% es.EZ (V/m) @ t=1.02
-0.4296514657021766
% es.tEX (V/m) @ t=1.02
-1.685989138331971
% es.tEY (V/m) @ t=1.02
0
% es.tEZ (V/m) @ t=1.02
-0.42965146570217705
% es.Ex (V/m) @ t=1.02
-1.6859891383319727
% es.Ey (V/m) @ t=1.02
0.12982682739386664
% es.Ez (V/m) @ t=1.02
-0.4296514657021766
% es.tEx (V/m) @ t=1.02
-1.685989138331971
% es.tEy (V/m) @ t=1.02
0