% Model:              1 neuron.mph
% Version:            COMSOL 6.0.0.405
% Date:               Mar 9 2023, 13:35
% Dimension:          0
% Nodes:              14017
% Expressions:        14017
% Description:        Electric field norm, Electric field, X component, Electric field, Y component, Electric field, Z component, Tangential electric field, X component, Tangential electric field, Y component, Tangential electric field, Z component, Electric field, x component, Electric field, y component, Electric field, z component, Tangential electric field, x component, Tangential electric field, y component, Tangential electric field, z component, Electric potential
% Length unit:        mm
% x
1.66
% y
12.2
% z
1.33
% es.normE (V/m) @ t=0
7.643428242571401
% es.EX (V/m) @ t=0
-4.246996367016544
% es.EY (V/m) @ t=0
-0.45842651548572566
% es.EZ (V/m) @ t=0
5.6867031011055325
% es.tEX (V/m) @ t=0
-4.24699636701655
% es.tEY (V/m) @ t=0
0
% es.tEZ (V/m) @ t=0
5.686703101105528
% es.Ex (V/m) @ t=0
-4.246996367016544
% es.Ey (V/m) @ t=0
-0.45842651548572566
% es.Ez (V/m) @ t=0
5.6867031011055325
% es.tEx (V/m) @ t=0
-4.24699636701655
% es.tEy (V/m) @ t=0
0
% es.tEz (V/m) @ t=0
5.686703101105528
% V (V) @ t=0
0.006277280231543747
% es.normE (V/m) @ t=0.02
6.601767993824371
% es.EX (V/m) @ t=0.02
-3.6682080817316516
% es.EY (V/m) @ t=0.02
-0.3959512573510413
% es.EZ (V/m) @ t=0.02
4.911708883060844
% es.tEX (V/m) @ t=0.02
-3.6682080817316542
% es.tEY (V/m) @ t=0.02
0
% es.tEZ (V/m) @ t=0.02
4.911708883060837
% es.Ex (V/m) @ t=0.02
-3.6682080817316516
% es.Ey (V/m) @ t=0.02
-0.3959512573510413
% es.Ez (V/m) @ t=0.02
4.911708883060844
% es.tEx (V/m) @ t=0.02
-3.6682080817316542
% es.tEy (V/m) @ t=0.02
0
% es.tEz (V/m) @ t=0.02
4.911708883060837
% V (V) @ t=0.02
0.005421800990901257
% es.normE (V/m) @ t=0.04
6.662478184639931
% es.EX (V/m) @ t=0.04
-3.701941597711471
% es.EY (V/m) @ t=0.04
-0.39959203486280304
% es.EZ (V/m) @ t=0.04
4.95687709483106
% es.tEX (V/m) @ t=0.04
-3.701941597711481
% es.tEY (V/m) @ t=0.04
0
% es.tEZ (V/m) @ t=0.04
4.956877094831053
% es.Ex (V/m) @ t=0.04
-3.701941597711471
% es.Ey (V/m) @ t=0.04
-0.39959203486280304
% es.Ez (V/m) @ t=0.04
4.95687709483106
% es.tEx (V/m) @ t=0.04
-3.701941597711481
% es.tEy (V/m) @ t=0.04
0
% es.tEz (V/m) @ t=0.04
4.956877094831053
% V (V) @ t=0.04
0.005471659366548933
% es.normE (V/m) @ t=0.06
6.723769265693047
% es.EX (V/m) @ t=0.06
-3.7359981710608503
% es.EY (V/m) @ t=0.06
-0.40326740787760373
% es.EZ (V/m) @ t=0.06
5.0024774228998234
% es.tEX (V/m) @ t=0.06
-3.73599817106086
% es.tEY (V/m) @ t=0.06
0
% es.tEZ (V/m) @ t=0.06
5.002477422899819
% es.Ex (V/m) @ t=0.06
-3.7359981710608503
% es.Ey (V/m) @ t=0.06
-0.40326740787760373
% es.Ez (V/m) @ t=0.06
5.0024774228998234
% es.tEx (V/m) @ t=0.06
-3.73599817106086
% es.tEy (V/m) @ t=0.06
0
% es.tEz (V/m) @ t=0.06
5.002477422899819
% V (V) @ t=0.06
0.005521994342612196
% es.normE (V/m) @ t=0.08
6.7859159537083755
% es.EX (V/m) @ t=0.08
-3.7705293813137093
% es.EY (V/m) @ t=0.08
-0.4069947444499875
% es.EZ (V/m) @ t=0.08
5.0487144958547585
% es.tEX (V/m) @ t=0.08
-3.7705293813137164
% es.tEY (V/m) @ t=0.08
0
% es.tEZ (V/m) @ t=0.08
5.04871449585475
% es.Ex (V/m) @ t=0.08
-3.7705293813137093
% es.Ey (V/m) @ t=0.08
-0.4069947444499875
% es.Ez (V/m) @ t=0.08
5.0487144958547585
% es.tEx (V/m) @ t=0.08
-3.7705293813137164
% es.tEy (V/m) @ t=0.08
0
% es.tEz (V/m) @ t=0.08
5.04871449585475
% V (V) @ t=0.08
0.005573033228181414
% es.normE (V/m) @ t=0.1
6.848824762204503
% es.EX (V/m) @ t=0.1
-3.805483368052818
% es.EY (V/m) @ t=0.1
-0.41076836686768137
% es.EZ (V/m) @ t=0.1
5.095518740817689
% es.tEX (V/m) @ t=0.1
-3.8054833680528244
% es.tEY (V/m) @ t=0.1
0
% es.tEZ (V/m) @ t=0.1
5.095518740817683
% es.Ex (V/m) @ t=0.1
-3.805483368052818
% es.Ey (V/m) @ t=0.1
-0.41076836686768137
% es.Ez (V/m) @ t=0.1
5.095518740817689
% es.tEx (V/m) @ t=0.1
-3.8054833680528244
% es.tEy (V/m) @ t=0.1
0
% es.tEz (V/m) @ t=0.1
5.095518740817683
% V (V) @ t=0.1
0.005624699111747121
% es.normE (V/m) @ t=0.12
6.911733570700763
% es.EX (V/m) @ t=0.12
-3.8404373547919084
% es.EY (V/m) @ t=0.12
-0.4145419892853579
% es.EZ (V/m) @ t=0.12
5.142322985780591
% es.tEX (V/m) @ t=0.12
-3.840437354791911
% es.tEY (V/m) @ t=0.12
0
% es.tEZ (V/m) @ t=0.12
5.142322985780583
% es.Ex (V/m) @ t=0.12
-3.8404373547919084
% es.Ey (V/m) @ t=0.12
-0.4145419892853579
% es.Ez (V/m) @ t=0.12
5.142322985780591
% es.tEx (V/m) @ t=0.12
-3.840437354791911
% es.tEy (V/m) @ t=0.12
0
% es.tEz (V/m) @ t=0.12
5.142322985780583
% V (V) @ t=0.12
0.005676364995312829
% es.normE (V/m) @ t=0.14
6.974874320591255
% es.EX (V/m) @ t=0.14
-3.875520439311475
% es.EY (V/m) @ t=0.14
-0.41832933707605435
% es.EZ (V/m) @ t=0.14
5.189299744849604
% es.tEX (V/m) @ t=0.14
-3.875520439311485
% es.tEY (V/m) @ t=0.14
0
% es.tEZ (V/m) @ t=0.14
5.189299744849597
% es.Ex (V/m) @ t=0.14
-3.875520439311475
% es.Ey (V/m) @ t=0.14
-0.41832933707605435
% es.Ez (V/m) @ t=0.14
5.189299744849604
% es.tEx (V/m) @ t=0.14
-3.875520439311485
% es.tEy (V/m) @ t=0.14
0
% es.tEz (V/m) @ t=0.14
5.189299744849597
% V (V) @ t=0.14
0.00572822101170777
% es.normE (V/m) @ t=0.16
7.04119763120691
% es.EX (V/m) @ t=0.16
-3.9123749261601057
% es.EY (V/m) @ t=0.16
-0.4223050162047022
% es.EZ (V/m) @ t=0.16
5.23864363903331
% es.tEX (V/m) @ t=0.16
-3.912374926160112
% es.tEY (V/m) @ t=0.16
0
% es.tEZ (V/m) @ t=0.16
5.238643639033305
% es.Ex (V/m) @ t=0.16
-3.9123749261601057
% es.Ey (V/m) @ t=0.16
-0.4223050162047022
% es.Ez (V/m) @ t=0.16
5.23864363903331
% es.tEx (V/m) @ t=0.16
-3.912374926160112
% es.tEy (V/m) @ t=0.16
0
% es.tEz (V/m) @ t=0.16
5.238643639033305
% V (V) @ t=0.16
0.0057826859167708885
% es.normE (V/m) @ t=0.18
7.107520941824866
% es.EX (V/m) @ t=0.18
-3.9492294130087373
% es.EY (V/m) @ t=0.18
-0.4262806953333482
% es.EZ (V/m) @ t=0.18
5.287987533217001
% es.tEX (V/m) @ t=0.18
-3.949229413008747
% es.tEY (V/m) @ t=0.18
0
% es.tEZ (V/m) @ t=0.18
5.287987533216993
% es.Ex (V/m) @ t=0.18
-3.9492294130087373
% es.Ey (V/m) @ t=0.18
-0.4262806953333482
% es.Ez (V/m) @ t=0.18
5.287987533217001
% es.tEx (V/m) @ t=0.18
-3.949229413008747
% es.tEy (V/m) @ t=0.18
0
% es.tEz (V/m) @ t=0.18
5.287987533216993
% V (V) @ t=0.18
0.0058371508218340055
% es.normE (V/m) @ t=0.2
7.173844252445086
% es.EX (V/m) @ t=0.2
-3.986083899857362
% es.EY (V/m) @ t=0.2
-0.4302563744620176
% es.EZ (V/m) @ t=0.2
5.337331427400705
% es.tEX (V/m) @ t=0.2
-3.986083899857368
% es.tEY (V/m) @ t=0.2
0
% es.tEZ (V/m) @ t=0.2
5.3373314274007
% es.Ex (V/m) @ t=0.2
-3.986083899857362
% es.Ey (V/m) @ t=0.2
-0.4302563744620176
% es.Ez (V/m) @ t=0.2
5.337331427400705
% es.tEx (V/m) @ t=0.2
-3.986083899857368
% es.tEy (V/m) @ t=0.2
0
% es.tEz (V/m) @ t=0.2
5.3373314274007
% V (V) @ t=0.2
0.005891615726897124
% es.normE (V/m) @ t=0.22
7.2401675630674855
% es.EX (V/m) @ t=0.22
-4.022938386705997
% es.EY (V/m) @ t=0.22
-0.4342320535906621
% es.EZ (V/m) @ t=0.22
5.38667532158441
% es.tEX (V/m) @ t=0.22
-4.022938386706
% es.tEY (V/m) @ t=0.22
0
% es.tEZ (V/m) @ t=0.22
5.386675321584406
% es.Ex (V/m) @ t=0.22
-4.022938386705997
% es.Ey (V/m) @ t=0.22
-0.4342320535906621
% es.Ez (V/m) @ t=0.22
5.38667532158441
% es.tEx (V/m) @ t=0.22
-4.022938386706
% es.tEy (V/m) @ t=0.22
0
% es.tEz (V/m) @ t=0.22
5.386675321584406
% V (V) @ t=0.22
0.005946080631960242
% es.normE (V/m) @ t=0.24
7.306490873691999
% es.EX (V/m) @ t=0.24
-4.059792873554632
% es.EY (V/m) @ t=0.24
-0.438207732719301
% es.EZ (V/m) @ t=0.24
5.4360192157681
% es.tEX (V/m) @ t=0.24
-4.059792873554635
% es.tEY (V/m) @ t=0.24
0
% es.tEZ (V/m) @ t=0.24
5.436019215768091
% es.Ex (V/m) @ t=0.24
-4.059792873554632
% es.Ey (V/m) @ t=0.24
-0.438207732719301
% es.Ez (V/m) @ t=0.24
5.4360192157681
% es.tEx (V/m) @ t=0.24
-4.059792873554635
% es.tEy (V/m) @ t=0.24
0
% es.tEz (V/m) @ t=0.24
5.436019215768091
% V (V) @ t=0.24
0.006000545537023361
% es.normE (V/m) @ t=0.26
7.3728141843186075
% es.EX (V/m) @ t=0.26
-4.0966473604032565
% es.EY (V/m) @ t=0.26
-0.4421834118479595
% es.EZ (V/m) @ t=0.26
5.4853631099518125
% es.tEX (V/m) @ t=0.26
-4.096647360403263
% es.tEY (V/m) @ t=0.26
0
% es.tEZ (V/m) @ t=0.26
5.485363109951806
% es.Ex (V/m) @ t=0.26
-4.0966473604032565
% es.Ey (V/m) @ t=0.26
-0.4421834118479595
% es.Ez (V/m) @ t=0.26
5.4853631099518125
% es.tEx (V/m) @ t=0.26
-4.096647360403263
% es.tEy (V/m) @ t=0.26
0
% es.tEz (V/m) @ t=0.26
5.485363109951806
% V (V) @ t=0.26
0.006055010442086479
% es.normE (V/m) @ t=0.28
7.440272119272705
% es.EX (V/m) @ t=0.28
-4.134127804843151
% es.EY (V/m) @ t=0.28
-0.44623089425016493
% es.EZ (V/m) @ t=0.28
5.535552177607788
% es.tEX (V/m) @ t=0.28
-4.134127804843157
% es.tEY (V/m) @ t=0.28
0
% es.tEZ (V/m) @ t=0.28
5.535552177607778
% es.Ex (V/m) @ t=0.28
-4.134127804843151
% es.Ey (V/m) @ t=0.28
-0.44623089425016493
% es.Ez (V/m) @ t=0.28
5.535552177607788
% es.tEx (V/m) @ t=0.28
-4.134127804843157
% es.tEy (V/m) @ t=0.28
0
% es.tEz (V/m) @ t=0.28
5.535552177607778
% V (V) @ t=0.28
0.006110414296526594
% es.normE (V/m) @ t=0.3
7.514367032353373
% es.EX (V/m) @ t=0.3
-4.175269784341898
% es.EY (V/m) @ t=0.3
-0.4506983894569545
% es.EZ (V/m) @ t=0.3
5.590685082262974
% es.tEX (V/m) @ t=0.3
-4.175269784341908
% es.tEY (V/m) @ t=0.3
0
% es.tEZ (V/m) @ t=0.3
5.590685082262965
% es.Ex (V/m) @ t=0.3
-4.175269784341898
% es.Ey (V/m) @ t=0.3
-0.4506983894569545
% es.Ez (V/m) @ t=0.3
5.590685082262974
% es.tEx (V/m) @ t=0.3
-4.175269784341908
% es.tEy (V/m) @ t=0.3
0
% es.tEz (V/m) @ t=0.3
5.590685082262965
% V (V) @ t=0.3
0.0061713105295405505
% es.normE (V/m) @ t=0.32
7.588461945691647
% es.EX (V/m) @ t=0.32
-4.216411763840628
% es.EY (V/m) @ t=0.32
-0.4551658846637887
% es.EZ (V/m) @ t=0.32
5.645817986918161
% es.tEX (V/m) @ t=0.32
-4.216411763840634
% es.tEY (V/m) @ t=0.32
0
% es.tEZ (V/m) @ t=0.32
5.645817986918152
% es.Ex (V/m) @ t=0.32
-4.216411763840628
% es.Ey (V/m) @ t=0.32
-0.4551658846637887
% es.Ez (V/m) @ t=0.32
5.645817986918161
% es.tEx (V/m) @ t=0.32
-4.216411763840634
% es.tEy (V/m) @ t=0.32
0
% es.tEz (V/m) @ t=0.32
5.645817986918152
% V (V) @ t=0.32
0.006232206762554506
% es.normE (V/m) @ t=0.34
7.662556859280044
% es.EX (V/m) @ t=0.34
-4.257553743339376
% es.EY (V/m) @ t=0.34
-0.4596333798705732
% es.EZ (V/m) @ t=0.34
5.700950891573324
% es.tEX (V/m) @ t=0.34
-4.257553743339386
% es.tEY (V/m) @ t=0.34
0
% es.tEZ (V/m) @ t=0.34
5.700950891573316
% es.Ex (V/m) @ t=0.34
-4.257553743339376
% es.Ey (V/m) @ t=0.34
-0.4596333798705732
% es.Ez (V/m) @ t=0.34
5.700950891573324
% es.tEx (V/m) @ t=0.34
-4.257553743339386
% es.tEy (V/m) @ t=0.34
0
% es.tEz (V/m) @ t=0.34
5.700950891573316
% V (V) @ t=0.34
0.006293102995568464
% es.normE (V/m) @ t=0.36
7.736651773111401
% es.EX (V/m) @ t=0.36
-4.29869572283812
% es.EY (V/m) @ t=0.36
-0.46410087507738984
% es.EZ (V/m) @ t=0.36
5.756083796228506
% es.tEX (V/m) @ t=0.36
-4.298695722838123
% es.tEY (V/m) @ t=0.36
0
% es.tEZ (V/m) @ t=0.36
5.756083796228497
% es.Ex (V/m) @ t=0.36
-4.29869572283812
% es.Ey (V/m) @ t=0.36
-0.46410087507738984
% es.Ez (V/m) @ t=0.36
5.756083796228506
% es.tEx (V/m) @ t=0.36
-4.298695722838123
% es.tEy (V/m) @ t=0.36
0
% es.tEz (V/m) @ t=0.36
5.756083796228497
% V (V) @ t=0.36
0.0063539992285824186
% es.normE (V/m) @ t=0.38
7.810746687178797
% es.EX (V/m) @ t=0.38
-4.339837702336857
% es.EY (V/m) @ t=0.38
-0.46856837028420073
% es.EZ (V/m) @ t=0.38
5.811216700883696
% es.tEX (V/m) @ t=0.38
-4.33983770233686
% es.tEY (V/m) @ t=0.38
0
% es.tEZ (V/m) @ t=0.38
5.811216700883689
% es.Ex (V/m) @ t=0.38
-4.339837702336857
% es.Ey (V/m) @ t=0.38
-0.46856837028420073
% es.Ez (V/m) @ t=0.38
5.811216700883696
% es.tEx (V/m) @ t=0.38
-4.33983770233686
% es.tEy (V/m) @ t=0.38
0
% es.tEz (V/m) @ t=0.38
5.811216700883689
% V (V) @ t=0.38
0.006414895461596375
% es.normE (V/m) @ t=0.4
7.884841601475561
% es.EX (V/m) @ t=0.4
-4.380979681835601
% es.EY (V/m) @ t=0.4
-0.4730358654909961
% es.EZ (V/m) @ t=0.4
5.866349605538874
% es.tEX (V/m) @ t=0.4
-4.3809796818356075
% es.tEY (V/m) @ t=0.4
0
% es.tEZ (V/m) @ t=0.4
5.866349605538867
% es.Ex (V/m) @ t=0.4
-4.380979681835601
% es.Ey (V/m) @ t=0.4
-0.4730358654909961
% es.Ez (V/m) @ t=0.4
5.866349605538874
% es.tEx (V/m) @ t=0.4
-4.3809796818356075
% es.tEy (V/m) @ t=0.4
0
% es.tEz (V/m) @ t=0.4
5.866349605538867
% V (V) @ t=0.4
0.00647579169461033
% es.normE (V/m) @ t=0.42
7.958936515995287
% es.EX (V/m) @ t=0.42
-4.422121661334338
% es.EY (V/m) @ t=0.42
-0.47750336069780874
% es.EZ (V/m) @ t=0.42
5.921482510194048
% es.tEX (V/m) @ t=0.42
-4.422121661334344
% es.tEY (V/m) @ t=0.42
0
% es.tEZ (V/m) @ t=0.42
5.921482510194041
% es.Ex (V/m) @ t=0.42
-4.422121661334338
% es.Ey (V/m) @ t=0.42
-0.47750336069780874
% es.Ez (V/m) @ t=0.42
5.921482510194048
% es.tEx (V/m) @ t=0.42
-4.422121661334344
% es.tEy (V/m) @ t=0.42
0
% es.tEz (V/m) @ t=0.42
5.921482510194041
% V (V) @ t=0.42
0.006536687927624287
% es.normE (V/m) @ t=0.44
8.033031430731825
% es.EX (V/m) @ t=0.44
-4.463263640833076
% es.EY (V/m) @ t=0.44
-0.48197085590460187
% es.EZ (V/m) @ t=0.44
5.97661541484924
% es.tEX (V/m) @ t=0.44
-4.463263640833079
% es.tEY (V/m) @ t=0.44
0
% es.tEZ (V/m) @ t=0.44
5.976615414849236
% es.Ex (V/m) @ t=0.44
-4.463263640833076
% es.Ey (V/m) @ t=0.44
-0.48197085590460187
% es.Ez (V/m) @ t=0.44
5.97661541484924
% es.tEx (V/m) @ t=0.44
-4.463263640833079
% es.tEy (V/m) @ t=0.44
0
% es.tEz (V/m) @ t=0.44
5.976615414849236
% V (V) @ t=0.44
0.006597584160638244
% es.normE (V/m) @ t=0.46
8.107126345679205
% es.EX (V/m) @ t=0.46
-4.50440562033182
% es.EY (V/m) @ t=0.46
-0.48643835111141653
% es.EZ (V/m) @ t=0.46
6.031748319504404
% es.tEX (V/m) @ t=0.46
-4.504405620331837
% es.tEY (V/m) @ t=0.46
0
% es.tEZ (V/m) @ t=0.46
6.031748319504402
% es.Ex (V/m) @ t=0.46
-4.50440562033182
% es.Ey (V/m) @ t=0.46
-0.48643835111141653
% es.Ez (V/m) @ t=0.46
6.031748319504404
% es.tEx (V/m) @ t=0.46
-4.504405620331837
% es.tEy (V/m) @ t=0.46
0
% es.tEz (V/m) @ t=0.46
6.031748319504402
% V (V) @ t=0.46
0.006658480393652201
% es.normE (V/m) @ t=0.48
8.181221260831723
% es.EX (V/m) @ t=0.48
-4.545547599830565
% es.EY (V/m) @ t=0.48
-0.49090584631822054
% es.EZ (V/m) @ t=0.48
6.0868812241595815
% es.tEX (V/m) @ t=0.48
-4.545547599830571
% es.tEY (V/m) @ t=0.48
0
% es.tEZ (V/m) @ t=0.48
6.086881224159574
% es.Ex (V/m) @ t=0.48
-4.545547599830565
% es.Ey (V/m) @ t=0.48
-0.49090584631822054
% es.Ez (V/m) @ t=0.48
6.0868812241595815
% es.tEx (V/m) @ t=0.48
-4.545547599830571
% es.tEy (V/m) @ t=0.48
0
% es.tEz (V/m) @ t=0.48
6.086881224159574
% V (V) @ t=0.48
0.0067193766266661565
% es.normE (V/m) @ t=0.5
8.255316176183857
% es.EX (V/m) @ t=0.5
-4.586689579329312
% es.EY (V/m) @ t=0.5
-0.49537334152503165
% es.EZ (V/m) @ t=0.5
6.142014128814776
% es.tEX (V/m) @ t=0.5
-4.5866895793293185
% es.tEY (V/m) @ t=0.5
0
% es.tEZ (V/m) @ t=0.5
6.1420141288147665
% es.Ex (V/m) @ t=0.5
-4.586689579329312
% es.Ey (V/m) @ t=0.5
-0.49537334152503165
% es.Ez (V/m) @ t=0.5
6.142014128814776
% es.tEx (V/m) @ t=0.5
-4.5866895793293185
% es.tEy (V/m) @ t=0.5
0
% es.tEz (V/m) @ t=0.5
6.1420141288147665
% V (V) @ t=0.5
0.006780272859680113
% es.normE (V/m) @ t=0.52
8.32941109173024
% es.EX (V/m) @ t=0.52
-4.627831558828052
% es.EY (V/m) @ t=0.52
-0.4998408367318321
% es.EZ (V/m) @ t=0.52
6.197147033469944
% es.tEX (V/m) @ t=0.52
-4.627831558828062
% es.tEY (V/m) @ t=0.52
0
% es.tEZ (V/m) @ t=0.52
6.197147033469939
% es.Ex (V/m) @ t=0.52
-4.627831558828052
% es.Ey (V/m) @ t=0.52
-0.4998408367318321
% es.Ez (V/m) @ t=0.52
6.197147033469944
% es.tEx (V/m) @ t=0.52
-4.627831558828062
% es.tEy (V/m) @ t=0.52
0
% es.tEz (V/m) @ t=0.52
6.197147033469939
% V (V) @ t=0.52
0.006841169092694069
% es.normE (V/m) @ t=0.54
8.403506007465772
% es.EX (V/m) @ t=0.54
-4.668973538326792
% es.EY (V/m) @ t=0.54
-0.5043083319386255
% es.EZ (V/m) @ t=0.54
6.252279938125129
% es.tEX (V/m) @ t=0.54
-4.6689735383267985
% es.tEY (V/m) @ t=0.54
0
% es.tEZ (V/m) @ t=0.54
6.252279938125127
% es.Ex (V/m) @ t=0.54
-4.668973538326792
% es.Ey (V/m) @ t=0.54
-0.5043083319386255
% es.Ez (V/m) @ t=0.54
6.252279938125129
% es.tEx (V/m) @ t=0.54
-4.6689735383267985
% es.tEy (V/m) @ t=0.54
0
% es.tEz (V/m) @ t=0.54
6.252279938125127
% V (V) @ t=0.54
0.006902065325708025
% es.normE (V/m) @ t=0.56
8.480245041129425
% es.EX (V/m) @ t=0.56
-4.71158671896905
% es.EY (V/m) @ t=0.56
-0.5089327196521236
% es.EZ (V/m) @ t=0.56
6.309379607160725
% es.tEX (V/m) @ t=0.56
-4.71158671896906
% es.tEY (V/m) @ t=0.56
0
% es.tEZ (V/m) @ t=0.56
6.3093796071607136
% es.Ex (V/m) @ t=0.56
-4.71158671896905
% es.Ey (V/m) @ t=0.56
-0.5089327196521236
% es.Ez (V/m) @ t=0.56
6.309379607160725
% es.tEx (V/m) @ t=0.56
-4.71158671896906
% es.tEy (V/m) @ t=0.56
0
% es.tEz (V/m) @ t=0.56
6.3093796071607136
% V (V) @ t=0.56
0.006965129862911725
% es.normE (V/m) @ t=0.58
8.56309149082727
% es.EX (V/m) @ t=0.58
-4.757598098232986
% es.EY (V/m) @ t=0.58
-0.5139194996205876
% es.EZ (V/m) @ t=0.58
6.371022132919997
% es.tEX (V/m) @ t=0.58
-4.757598098232992
% es.tEY (V/m) @ t=0.58
0
% es.tEZ (V/m) @ t=0.58
6.371022132919987
% es.Ex (V/m) @ t=0.58
-4.757598098232986
% es.Ey (V/m) @ t=0.58
-0.5139194996205876
% es.Ez (V/m) @ t=0.58
6.371022132919997
% es.tEx (V/m) @ t=0.58
-4.757598098232992
% es.tEy (V/m) @ t=0.58
0
% es.tEz (V/m) @ t=0.58
6.371022132919987
% V (V) @ t=0.58
0.007033202775986681
% es.normE (V/m) @ t=0.6
8.645937940614182
% es.EX (V/m) @ t=0.6
-4.803609477496916
% es.EY (V/m) @ t=0.6
-0.5189062795890726
% es.EZ (V/m) @ t=0.6
6.432664658679274
% es.tEX (V/m) @ t=0.6
-4.803609477496922
% es.tEY (V/m) @ t=0.6
0
% es.tEZ (V/m) @ t=0.6
6.432664658679269
% es.Ex (V/m) @ t=0.6
-4.803609477496916
% es.Ey (V/m) @ t=0.6
-0.5189062795890726
% es.Ez (V/m) @ t=0.6
6.432664658679274
% es.tEx (V/m) @ t=0.6
-4.803609477496922
% es.tEy (V/m) @ t=0.6
0
% es.tEz (V/m) @ t=0.6
6.432664658679269
% V (V) @ t=0.6
0.007101275689061635
% es.normE (V/m) @ t=0.62
8.728784390487595
% es.EX (V/m) @ t=0.62
-4.849620856760839
% es.EY (V/m) @ t=0.62
-0.5238930595575402
% es.EZ (V/m) @ t=0.62
6.4943071844385285
% es.tEX (V/m) @ t=0.62
-4.849620856760845
% es.tEY (V/m) @ t=0.62
0
% es.tEZ (V/m) @ t=0.62
6.494307184438521
% es.Ex (V/m) @ t=0.62
-4.849620856760839
% es.Ey (V/m) @ t=0.62
-0.5238930595575402
% es.Ez (V/m) @ t=0.62
6.4943071844385285
% es.tEx (V/m) @ t=0.62
-4.849620856760845
% es.tEy (V/m) @ t=0.62
0
% es.tEz (V/m) @ t=0.62
6.494307184438521
% V (V) @ t=0.62
0.007169348602136589
% es.normE (V/m) @ t=0.64
8.81163084044514
% es.EX (V/m) @ t=0.64
-4.895632236024778
% es.EY (V/m) @ t=0.64
-0.5288798395260093
% es.EZ (V/m) @ t=0.64
6.5559497101978295
% es.tEX (V/m) @ t=0.64
-4.895632236024785
% es.tEY (V/m) @ t=0.64
0
% es.tEZ (V/m) @ t=0.64
6.555949710197818
% es.Ex (V/m) @ t=0.64
-4.895632236024778
% es.Ey (V/m) @ t=0.64
-0.5288798395260093
% es.Ez (V/m) @ t=0.64
6.5559497101978295
% es.tEx (V/m) @ t=0.64
-4.895632236024785
% es.tEy (V/m) @ t=0.64
0
% es.tEz (V/m) @ t=0.64
6.555949710197818
% V (V) @ t=0.64
0.007237421515211544
% es.normE (V/m) @ t=0.66
8.894477290484389
% es.EX (V/m) @ t=0.66
-4.941643615288701
% es.EY (V/m) @ t=0.66
-0.533866619494491
% es.EZ (V/m) @ t=0.66
6.617592235957096
% es.tEX (V/m) @ t=0.66
-4.941643615288718
% es.tEY (V/m) @ t=0.66
0
% es.tEZ (V/m) @ t=0.66
6.617592235957086
% es.Ex (V/m) @ t=0.66
-4.941643615288701
% es.Ey (V/m) @ t=0.66
-0.533866619494491
% es.Ez (V/m) @ t=0.66
6.617592235957096
% es.tEx (V/m) @ t=0.66
-4.941643615288718
% es.tEy (V/m) @ t=0.66
0
% es.tEz (V/m) @ t=0.66
6.617592235957086
% V (V) @ t=0.66
0.007305494428286498
% es.normE (V/m) @ t=0.68
8.97732374060311
% es.EX (V/m) @ t=0.68
-4.987654994552633
% es.EY (V/m) @ t=0.68
-0.5388533994629583
% es.EZ (V/m) @ t=0.68
6.679234761716358
% es.tEX (V/m) @ t=0.68
-4.987654994552639
% es.tEY (V/m) @ t=0.68
0
% es.tEZ (V/m) @ t=0.68
6.67923476171635
% es.Ex (V/m) @ t=0.68
-4.987654994552633
% es.Ey (V/m) @ t=0.68
-0.5388533994629583
% es.Ez (V/m) @ t=0.68
6.679234761716358
% es.tEx (V/m) @ t=0.68
-4.987654994552639
% es.tEy (V/m) @ t=0.68
0
% es.tEz (V/m) @ t=0.68
6.67923476171635
% V (V) @ t=0.68
0.007373567341361452
% es.normE (V/m) @ t=0.7
9.06017019079914
% es.EX (V/m) @ t=0.7
-5.033666373816559
% es.EY (V/m) @ t=0.7
-0.5438401794314152
% es.EZ (V/m) @ t=0.7
6.740877287475651
% es.tEX (V/m) @ t=0.7
-5.033666373816573
% es.tEY (V/m) @ t=0.7
0
% es.tEZ (V/m) @ t=0.7
6.74087728747564
% es.Ex (V/m) @ t=0.7
-5.033666373816559
% es.Ey (V/m) @ t=0.7
-0.5438401794314152
% es.Ez (V/m) @ t=0.7
6.740877287475651
% es.tEx (V/m) @ t=0.7
-5.033666373816573
% es.tEy (V/m) @ t=0.7
0
% es.tEz (V/m) @ t=0.7
6.74087728747564
% V (V) @ t=0.7
0.007441640254436406
% es.normE (V/m) @ t=0.72
9.14301664107035
% es.EX (V/m) @ t=0.72
-5.07967775308049
% es.EY (V/m) @ t=0.72
-0.5488269593998987
% es.EZ (V/m) @ t=0.72
6.8025198132349125
% es.tEX (V/m) @ t=0.72
-5.079677753080496
% es.tEY (V/m) @ t=0.72
0
% es.tEZ (V/m) @ t=0.72
6.802519813234906
% es.Ex (V/m) @ t=0.72
-5.07967775308049
% es.Ey (V/m) @ t=0.72
-0.5488269593998987
% es.Ez (V/m) @ t=0.72
6.8025198132349125
% es.tEx (V/m) @ t=0.72
-5.079677753080496
% es.tEy (V/m) @ t=0.72
0
% es.tEz (V/m) @ t=0.72
6.802519813234906
% V (V) @ t=0.72
0.00750971316751136
% es.normE (V/m) @ t=0.74
9.225863091414734
% es.EX (V/m) @ t=0.74
-5.125689132344411
% es.EY (V/m) @ t=0.74
-0.5538137393683855
% es.EZ (V/m) @ t=0.74
6.86416233899419
% es.tEX (V/m) @ t=0.74
-5.125689132344425
% es.tEY (V/m) @ t=0.74
0
% es.tEZ (V/m) @ t=0.74
6.864162338994184
% es.Ex (V/m) @ t=0.74
-5.125689132344411
% es.Ey (V/m) @ t=0.74
-0.5538137393683855
% es.Ez (V/m) @ t=0.74
6.86416233899419
% es.tEx (V/m) @ t=0.74
-5.125689132344425
% es.tEy (V/m) @ t=0.74
0
% es.tEz (V/m) @ t=0.74
6.864162338994184
% V (V) @ t=0.74
0.007577786080586314
% es.normE (V/m) @ t=0.76
9.308709541830336
% es.EX (V/m) @ t=0.76
-5.171700511608348
% es.EY (V/m) @ t=0.76
-0.5588005193368422
% es.EZ (V/m) @ t=0.76
6.925804864753467
% es.tEX (V/m) @ t=0.76
-5.171700511608358
% es.tEY (V/m) @ t=0.76
0
% es.tEZ (V/m) @ t=0.76
6.925804864753462
% es.Ex (V/m) @ t=0.76
-5.171700511608348
% es.Ey (V/m) @ t=0.76
-0.5588005193368422
% es.Ez (V/m) @ t=0.76
6.925804864753467
% es.tEx (V/m) @ t=0.76
-5.171700511608358
% es.tEy (V/m) @ t=0.76
0
% es.tEz (V/m) @ t=0.76
6.925804864753462
% V (V) @ t=0.76
0.00764585899366127
% es.normE (V/m) @ t=0.78
9.39155599231524
% es.EX (V/m) @ t=0.78
-5.217711890872266
% es.EY (V/m) @ t=0.78
-0.5637872993053079
% es.EZ (V/m) @ t=0.78
6.987447390512733
% es.tEX (V/m) @ t=0.78
-5.2177118908722795
% es.tEY (V/m) @ t=0.78
0
% es.tEZ (V/m) @ t=0.78
6.9874473905127275
% es.Ex (V/m) @ t=0.78
-5.217711890872266
% es.Ey (V/m) @ t=0.78
-0.5637872993053079
% es.Ez (V/m) @ t=0.78
6.987447390512733
% es.tEx (V/m) @ t=0.78
-5.2177118908722795
% es.tEy (V/m) @ t=0.78
0
% es.tEz (V/m) @ t=0.78
6.9874473905127275
% V (V) @ t=0.78
0.007713931906736222
% es.normE (V/m) @ t=0.8
9.474402442867694
% es.EX (V/m) @ t=0.8
-5.263723270136211
% es.EY (V/m) @ t=0.8
-0.5687740792738074
% es.EZ (V/m) @ t=0.8
7.049089916272015
% es.tEX (V/m) @ t=0.8
-5.263723270136216
% es.tEY (V/m) @ t=0.8
0
% es.tEZ (V/m) @ t=0.8
7.049089916272006
% es.Ex (V/m) @ t=0.8
-5.263723270136211
% es.Ey (V/m) @ t=0.8
-0.5687740792738074
% es.Ez (V/m) @ t=0.8
7.049089916272015
% es.tEx (V/m) @ t=0.8
-5.263723270136216
% es.tEy (V/m) @ t=0.8
0
% es.tEz (V/m) @ t=0.8
7.049089916272006
% V (V) @ t=0.8
0.007782004819811178
% es.normE (V/m) @ t=0.82
9.557248893485855
% es.EX (V/m) @ t=0.82
-5.309734649400136
% es.EY (V/m) @ t=0.82
-0.5737608592422534
% es.EZ (V/m) @ t=0.82
7.110732442031275
% es.tEX (V/m) @ t=0.82
-5.309734649400141
% es.tEY (V/m) @ t=0.82
0
% es.tEZ (V/m) @ t=0.82
7.110732442031264
% es.Ex (V/m) @ t=0.82
-5.309734649400136
% es.Ey (V/m) @ t=0.82
-0.5737608592422534
% es.Ez (V/m) @ t=0.82
7.110732442031275
% es.tEx (V/m) @ t=0.82
-5.309734649400141
% es.tEy (V/m) @ t=0.82
0
% es.tEz (V/m) @ t=0.82
7.110732442031264
% V (V) @ t=0.82
0.007850077732886134
% es.normE (V/m) @ t=0.84
9.644638882224015
% es.EX (V/m) @ t=0.84
-5.358285647170656
% es.EY (V/m) @ t=0.84
-0.5790075621891679
% es.EZ (V/m) @ t=0.84
7.175751953444875
% es.tEX (V/m) @ t=0.84
-5.358285647170666
% es.tEY (V/m) @ t=0.84
0
% es.tEZ (V/m) @ t=0.84
7.175751953444867
% es.Ex (V/m) @ t=0.84
-5.358285647170656
% es.Ey (V/m) @ t=0.84
-0.5790075621891679
% es.Ez (V/m) @ t=0.84
7.175751953444875
% es.tEx (V/m) @ t=0.84
-5.358285647170666
% es.tEy (V/m) @ t=0.84
0
% es.tEz (V/m) @ t=0.84
7.175751953444867
% V (V) @ t=0.84
0.007921858227551726
% es.normE (V/m) @ t=0.86
9.737399927388235
% es.EX (V/m) @ t=0.86
-5.409838806239113
% es.EY (V/m) @ t=0.86
-0.5845615280986642
% es.EZ (V/m) @ t=0.86
7.244763503666168
% es.tEX (V/m) @ t=0.86
-5.409838806239123
% es.tEY (V/m) @ t=0.86
0
% es.tEZ (V/m) @ t=0.86
7.2447635036661575
% es.Ex (V/m) @ t=0.86
-5.409838806239113
% es.Ey (V/m) @ t=0.86
-0.5845615280986642
% es.Ez (V/m) @ t=0.86
7.244763503666168
% es.tEx (V/m) @ t=0.86
-5.409838806239123
% es.tEy (V/m) @ t=0.86
0
% es.tEz (V/m) @ t=0.86
7.2447635036661575
% V (V) @ t=0.86
0.007998021568669024
% es.normE (V/m) @ t=0.88
9.830160972631042
% es.EX (V/m) @ t=0.88
-5.461391965307571
% es.EY (V/m) @ t=0.88
-0.5901154940081712
% es.EZ (V/m) @ t=0.88
7.313775053887442
% es.tEX (V/m) @ t=0.88
-5.46139196530758
% es.tEY (V/m) @ t=0.88
0
% es.tEZ (V/m) @ t=0.88
7.31377505388743
% es.Ex (V/m) @ t=0.88
-5.461391965307571
% es.Ey (V/m) @ t=0.88
-0.5901154940081712
% es.Ez (V/m) @ t=0.88
7.313775053887442
% es.tEx (V/m) @ t=0.88
-5.46139196530758
% es.tEy (V/m) @ t=0.88
0
% es.tEz (V/m) @ t=0.88
7.31377505388743
% V (V) @ t=0.88
0.00807418490978632
% es.normE (V/m) @ t=0.9
9.922922017950258
% es.EX (V/m) @ t=0.9
-5.512945124376036
% es.EY (V/m) @ t=0.9
-0.5956694599176693
% es.EZ (V/m) @ t=0.9
7.382786604108725
% es.tEX (V/m) @ t=0.9
-5.512945124376048
% es.tEY (V/m) @ t=0.9
0
% es.tEZ (V/m) @ t=0.9
7.382786604108716
% es.Ex (V/m) @ t=0.9
-5.512945124376036
% es.Ey (V/m) @ t=0.9
-0.5956694599176693
% es.Ez (V/m) @ t=0.9
7.382786604108725
% es.tEx (V/m) @ t=0.9
-5.512945124376048
% es.tEy (V/m) @ t=0.9
0
% es.tEz (V/m) @ t=0.9
7.382786604108716
% V (V) @ t=0.9
0.008150348250903617
% es.normE (V/m) @ t=0.92
10.015683063343749
% es.EX (V/m) @ t=0.92
-5.5644982834444665
% es.EY (V/m) @ t=0.92
-0.6012234258271927
% es.EZ (V/m) @ t=0.92
7.451798154330009
% es.tEX (V/m) @ t=0.92
-5.564498283444473
% es.tEY (V/m) @ t=0.92
0
% es.tEZ (V/m) @ t=0.92
7.451798154330002
% es.Ex (V/m) @ t=0.92
-5.5644982834444665
% es.Ey (V/m) @ t=0.92
-0.6012234258271927
% es.Ez (V/m) @ t=0.92
7.451798154330009
% es.tEx (V/m) @ t=0.92
-5.564498283444473
% es.tEy (V/m) @ t=0.92
0
% es.tEz (V/m) @ t=0.92
7.451798154330002
% V (V) @ t=0.92
0.008226511592020916
% es.normE (V/m) @ t=0.94
10.108444108809467
% es.EX (V/m) @ t=0.94
-5.616051442512929
% es.EY (V/m) @ t=0.94
-0.6067773917366819
% es.EZ (V/m) @ t=0.94
7.5208097045512785
% es.tEX (V/m) @ t=0.94
-5.616051442512935
% es.tEY (V/m) @ t=0.94
0
% es.tEZ (V/m) @ t=0.94
7.520809704551272
% es.Ex (V/m) @ t=0.94
-5.616051442512929
% es.Ey (V/m) @ t=0.94
-0.6067773917366819
% es.Ez (V/m) @ t=0.94
7.5208097045512785
% es.tEx (V/m) @ t=0.94
-5.616051442512935
% es.tEy (V/m) @ t=0.94
0
% es.tEz (V/m) @ t=0.94
7.520809704551272
% V (V) @ t=0.94
0.008302674933138214
% es.normE (V/m) @ t=0.96
10.201205154345475
% es.EX (V/m) @ t=0.96
-5.667604601581379
% es.EY (V/m) @ t=0.96
-0.612331357646215
% es.EZ (V/m) @ t=0.96
7.589821254772583
% es.tEX (V/m) @ t=0.96
-5.6676046015813855
% es.tEY (V/m) @ t=0.96
0
% es.tEZ (V/m) @ t=0.96
7.589821254772578
% es.Ex (V/m) @ t=0.96
-5.667604601581379
% es.Ey (V/m) @ t=0.96
-0.612331357646215
% es.Ez (V/m) @ t=0.96
7.589821254772583
% es.tEx (V/m) @ t=0.96
-5.6676046015813855
% es.tEy (V/m) @ t=0.96
0
% es.tEz (V/m) @ t=0.96
7.589821254772578
% V (V) @ t=0.96
0.008378838274255512
% es.normE (V/m) @ t=0.98
10.293966199949796
% es.EX (V/m) @ t=0.98
-5.719157760649844
% es.EY (V/m) @ t=0.98
-0.6178853235556603
% es.EZ (V/m) @ t=0.98
7.65883280499384
% es.tEX (V/m) @ t=0.98
-5.71915776064985
% es.tEY (V/m) @ t=0.98
0
% es.tEZ (V/m) @ t=0.98
7.658832804993831
% es.Ex (V/m) @ t=0.98
-5.719157760649844
% es.Ey (V/m) @ t=0.98
-0.6178853235556603
% es.Ez (V/m) @ t=0.98
7.65883280499384
% es.tEx (V/m) @ t=0.98
-5.71915776064985
% es.tEy (V/m) @ t=0.98
0
% es.tEz (V/m) @ t=0.98
7.658832804993831
% V (V) @ t=0.98
0.008455001615372805
% es.normE (V/m) @ t=1
10.386727245620698
% es.EX (V/m) @ t=1
-5.770710919718291
% es.EY (V/m) @ t=1
-0.6234392894652117
% es.EZ (V/m) @ t=1
7.7278443552151295
% es.tEX (V/m) @ t=1
-5.7707109197183
% es.tEY (V/m) @ t=1
0
% es.tEZ (V/m) @ t=1
7.727844355215114
% es.Ex (V/m) @ t=1
-5.770710919718291
% es.Ey (V/m) @ t=1
-0.6234392894652117
% es.Ez (V/m) @ t=1
7.7278443552151295
% es.tEx (V/m) @ t=1
-5.7707109197183
% es.tEy (V/m) @ t=1
0
% es.tEz (V/m) @ t=1
7.727844355215114
% V (V) @ t=1
0.008531164956490103
% es.normE (V/m) @ t=1.02
10.479488291356349
% es.EX (V/m) @ t=1.02
-5.82226407878675
% es.EY (V/m) @ t=1.02
-0.6289932553747204
% es.EZ (V/m) @ t=1.02
7.796855905436412
% es.tEX (V/m) @ t=1.02
-5.822264078786763
% es.tEY (V/m) @ t=1.02
0
% es.tEZ (V/m) @ t=1.02
7.796855905436398
% es.Ex (V/m) @ t=1.02
-5.82226407878675
% es.Ey (V/m) @ t=1.02
-0.6289932553747204
% es.Ez (V/m) @ t=1.02
7.796855905436412
% es.tEx (V/m) @ t=1.02
-5.822264078786763
% es.tEy (V/m) @ t=1.02
0
% es.tEz (V/m) @ t=1.02
7.796855905436398
% V (V) @ t=1.02
0.008607328297607401
% es.normE (V/m) @ t=1.04
10.572249337155073
% es.EX (V/m) @ t=1.04
-5.873817237855209
% es.EY (V/m) @ t=1.04
-0.6345472212842469
% es.EZ (V/m) @ t=1.04
7.865867455657698
% es.tEX (V/m) @ t=1.04
-5.873817237855219
% es.tEY (V/m) @ t=1.04
0
% es.tEZ (V/m) @ t=1.04
7.86586745565768
% es.Ex (V/m) @ t=1.04
-5.873817237855209
% es.Ey (V/m) @ t=1.04
-0.6345472212842469
% es.Ez (V/m) @ t=1.04
7.865867455657698
% es.tEx (V/m) @ t=1.04
-5.873817237855219
% es.tEy (V/m) @ t=1.04
0
% es.tEz (V/m) @ t=1.04
7.86586745565768
% V (V) @ t=1.04
0.0086834916387247