% Model:              1 neuron.mph
% Version:            COMSOL 6.1.0.252
% Date:               Mar 18 2023, 11:38
% Dimension:          0
% Nodes:              14017
% Expressions:        14017
% Description:        Electric field norm, Electric field, X component, Electric field, Y component, Electric field, Z component, Tangential electric field, X component, Tangential electric field, Y component, Tangential electric field, Z component, Electric field, x component, Electric field, y component, Electric field, z component, Tangential electric field, x component, Tangential electric field, y component, Tangential electric field, z component, Electric potential
% Length unit:        mm
% x
1
% y
12.2
% z
1.33
% es.normE (V/m) @ t=0
1.4483901676020774
% es.EX (V/m) @ t=0
1.3385031143044146
% es.EY (V/m) @ t=0
0.08428044495991366
% es.EZ (V/m) @ t=0
0.541103907116633
% es.tEX (V/m) @ t=0
1.3385031143044168
% es.tEY (V/m) @ t=0
0
% es.tEZ (V/m) @ t=0
0.5411039071166295
% es.Ex (V/m) @ t=0
1.3385031143044146
% es.Ey (V/m) @ t=0
0.08428044495991366
% es.Ez (V/m) @ t=0
0.541103907116633
% es.tEx (V/m) @ t=0
1.3385031143044168
% es.tEy (V/m) @ t=0
0
% es.tEz (V/m) @ t=0
0.5411039071166295
% V (V) @ t=0
0.0072248043112825575
% es.normE (V/m) @ t=0.02
1.250988466346266
% es.EX (V/m) @ t=0.02
1.156077965444485
% es.EY (V/m) @ t=0.02
0.07279382797419232
% es.EZ (V/m) @ t=0.02
0.46735662952684676
% es.tEX (V/m) @ t=0.02
1.1560779654444886
% es.tEY (V/m) @ t=0.02
0
% es.tEZ (V/m) @ t=0.02
0.4673566295268454
% es.Ex (V/m) @ t=0.02
1.156077965444485
% es.Ey (V/m) @ t=0.02
0.07279382797419232
% es.Ez (V/m) @ t=0.02
0.46735662952684676
% es.tEx (V/m) @ t=0.02
1.1560779654444886
% es.tEy (V/m) @ t=0.02
0
% es.tEz (V/m) @ t=0.02
0.4673566295268454
% V (V) @ t=0.02
0.006240132708182711
% es.normE (V/m) @ t=0.04
1.262493214063178
% es.EX (V/m) @ t=0.04
1.166709866307845
% es.EY (V/m) @ t=0.04
0.07346327822603438
% es.EZ (V/m) @ t=0.04
0.47165468679282485
% es.tEX (V/m) @ t=0.04
1.1667098663078432
% es.tEY (V/m) @ t=0.04
0
% es.tEZ (V/m) @ t=0.04
0.4716546867928293
% es.Ex (V/m) @ t=0.04
1.166709866307845
% es.Ey (V/m) @ t=0.04
0.07346327822603438
% es.Ez (V/m) @ t=0.04
0.47165468679282485
% es.tEx (V/m) @ t=0.04
1.1667098663078432
% es.tEy (V/m) @ t=0.04
0
% es.tEz (V/m) @ t=0.04
0.4716546867928293
% V (V) @ t=0.04
0.0062975202530724805
% es.normE (V/m) @ t=0.06
1.27410594614597
% es.EX (V/m) @ t=0.06
1.1774415589879461
% es.EY (V/m) @ t=0.06
0.0741390117619311
% es.EZ (V/m) @ t=0.06
0.4759930858080694
% es.tEX (V/m) @ t=0.06
1.1774415589879466
% es.tEY (V/m) @ t=0.06
0
% es.tEZ (V/m) @ t=0.06
0.47599308580806676
% es.Ex (V/m) @ t=0.06
1.1774415589879461
% es.Ey (V/m) @ t=0.06
0.0741390117619311
% es.Ez (V/m) @ t=0.06
0.4759930858080694
% es.tEx (V/m) @ t=0.06
1.1774415589879466
% es.tEy (V/m) @ t=0.06
0
% es.tEz (V/m) @ t=0.06
0.47599308580806676
% V (V) @ t=0.06
0.00635544645236985
% es.normE (V/m) @ t=0.08
1.2858857991840513
% es.EX (V/m) @ t=0.08
1.1883276933736835
% es.EY (V/m) @ t=0.08
0.07482447010922078
% es.EZ (V/m) @ t=0.08
0.48039391963034683
% es.tEX (V/m) @ t=0.08
1.188327693373683
% es.tEY (V/m) @ t=0.08
0
% es.tEZ (V/m) @ t=0.08
0.4803939196303464
% es.Ex (V/m) @ t=0.08
1.1883276933736835
% es.Ey (V/m) @ t=0.08
0.07482447010922078
% es.Ez (V/m) @ t=0.08
0.48039391963034683
% es.tEx (V/m) @ t=0.08
1.188327693373683
% es.tEy (V/m) @ t=0.08
0
% es.tEz (V/m) @ t=0.08
0.4803939196303464
% V (V) @ t=0.08
0.006414206267989668
% es.normE (V/m) @ t=0.1
1.297802631891101
% es.EX (V/m) @ t=0.1
1.199340414958943
% es.EY (V/m) @ t=0.1
0.07551789933871211
% es.EZ (V/m) @ t=0.1
0.4848459277604049
% es.tEX (V/m) @ t=0.1
1.1993404149589457
% es.tEY (V/m) @ t=0.1
0
% es.tEZ (V/m) @ t=0.1
0.4848459277604107
% es.Ex (V/m) @ t=0.1
1.199340414958943
% es.Ey (V/m) @ t=0.1
0.07551789933871211
% es.Ez (V/m) @ t=0.1
0.4848459277604049
% es.tEx (V/m) @ t=0.1
1.1993404149589457
% es.tEy (V/m) @ t=0.1
0
% es.tEz (V/m) @ t=0.1
0.4848459277604107
% V (V) @ t=0.1
0.006473649352130128
% es.normE (V/m) @ t=0.12
1.3097194645981411
% es.EX (V/m) @ t=0.12
1.2103531365441942
% es.EY (V/m) @ t=0.12
0.07621132856818541
% es.EZ (V/m) @ t=0.12
0.48929793589046167
% es.tEX (V/m) @ t=0.12
1.2103531365441969
% es.tEY (V/m) @ t=0.12
0
% es.tEZ (V/m) @ t=0.12
0.48929793589046433
% es.Ex (V/m) @ t=0.12
1.2103531365441942
% es.Ey (V/m) @ t=0.12
0.07621132856818541
% es.Ez (V/m) @ t=0.12
0.48929793589046167
% es.tEx (V/m) @ t=0.12
1.2103531365441969
% es.tEy (V/m) @ t=0.12
0
% es.tEz (V/m) @ t=0.12
0.48929793589046433
% V (V) @ t=0.12
0.006533092436270588
% es.normE (V/m) @ t=0.14
1.321706606185146
% es.EX (V/m) @ t=0.14
1.221430832779303
% es.EY (V/m) @ t=0.14
0.07690884902898149
% es.EZ (V/m) @ t=0.14
0.49377621072340894
% es.tEX (V/m) @ t=0.14
1.221430832779303
% es.tEY (V/m) @ t=0.14
0
% es.tEZ (V/m) @ t=0.14
0.49377621072340805
% es.Ex (V/m) @ t=0.14
1.221430832779303
% es.Ey (V/m) @ t=0.14
0.07690884902898149
% es.Ez (V/m) @ t=0.14
0.49377621072340894
% es.tEx (V/m) @ t=0.14
1.221430832779303
% es.tEy (V/m) @ t=0.14
0
% es.tEz (V/m) @ t=0.14
0.49377621072340805
% V (V) @ t=0.14
0.006592886231198399
% es.normE (V/m) @ t=0.16
1.3342673205319557
% es.EX (V/m) @ t=0.16
1.2330385856624098
% es.EY (V/m) @ t=0.16
0.07763974534258167
% es.EZ (V/m) @ t=0.16
0.4984687666723664
% es.tEX (V/m) @ t=0.16
1.233038585662408
% es.tEY (V/m) @ t=0.16
0
% es.tEZ (V/m) @ t=0.16
0.4984687666723655
% es.Ex (V/m) @ t=0.16
1.2330385856624098
% es.Ey (V/m) @ t=0.16
0.07763974534258167
% es.Ez (V/m) @ t=0.16
0.4984687666723664
% es.tEx (V/m) @ t=0.16
1.233038585662408
% es.tEy (V/m) @ t=0.16
0
% es.tEz (V/m) @ t=0.16
0.4984687666723655
% V (V) @ t=0.16
0.00665554108939932
% es.normE (V/m) @ t=0.18
1.34682803487877
% es.EX (V/m) @ t=0.18
1.2446463385455155
% es.EY (V/m) @ t=0.18
0.07837064165618268
% es.EZ (V/m) @ t=0.18
0.5031613226213376
% es.tEX (V/m) @ t=0.18
1.2446463385455147
% es.tEY (V/m) @ t=0.18
0
% es.tEZ (V/m) @ t=0.18
0.5031613226213358
% es.Ex (V/m) @ t=0.18
1.2446463385455155
% es.Ey (V/m) @ t=0.18
0.07837064165618268
% es.Ez (V/m) @ t=0.18
0.5031613226213376
% es.tEx (V/m) @ t=0.18
1.2446463385455147
% es.tEy (V/m) @ t=0.18
0
% es.tEz (V/m) @ t=0.18
0.5031613226213358
% V (V) @ t=0.18
0.006718195947600242
% es.normE (V/m) @ t=0.2
1.359388749225578
% es.EX (V/m) @ t=0.2
1.2562540914286178
% es.EY (V/m) @ t=0.2
0.07910153796978209
% es.EZ (V/m) @ t=0.2
0.5078538785703026
% es.tEX (V/m) @ t=0.2
1.2562540914286187
% es.tEY (V/m) @ t=0.2
0
% es.tEZ (V/m) @ t=0.2
0.507853878570308
% es.Ex (V/m) @ t=0.2
1.2562540914286178
% es.Ey (V/m) @ t=0.2
0.07910153796978209
% es.Ez (V/m) @ t=0.2
0.5078538785703026
% es.tEx (V/m) @ t=0.2
1.2562540914286187
% es.tEy (V/m) @ t=0.2
0
% es.tEz (V/m) @ t=0.2
0.507853878570308
% V (V) @ t=0.2
0.006780850805801163
% es.normE (V/m) @ t=0.22
1.3719494635723888
% es.EX (V/m) @ t=0.22
1.267861844311719
% es.EY (V/m) @ t=0.22
0.07983243428338499
% es.EZ (V/m) @ t=0.22
0.5125464345192743
% es.tEX (V/m) @ t=0.22
1.26786184431172
% es.tEY (V/m) @ t=0.22
0
% es.tEZ (V/m) @ t=0.22
0.5125464345192721
% es.Ex (V/m) @ t=0.22
1.267861844311719
% es.Ey (V/m) @ t=0.22
0.07983243428338499
% es.Ez (V/m) @ t=0.22
0.5125464345192743
% es.tEx (V/m) @ t=0.22
1.26786184431172
% es.tEy (V/m) @ t=0.22
0
% es.tEz (V/m) @ t=0.22
0.5125464345192721
% V (V) @ t=0.22
0.006843505664002083
% es.normE (V/m) @ t=0.24
1.3845101779191984
% es.EX (V/m) @ t=0.24
1.279469597194824
% es.EY (V/m) @ t=0.24
0.08056333059698151
% es.EZ (V/m) @ t=0.24
0.5172389904682371
% es.tEX (V/m) @ t=0.24
1.279469597194825
% es.tEY (V/m) @ t=0.24
0
% es.tEZ (V/m) @ t=0.24
0.5172389904682366
% es.Ex (V/m) @ t=0.24
1.279469597194824
% es.Ey (V/m) @ t=0.24
0.08056333059698151
% es.Ez (V/m) @ t=0.24
0.5172389904682371
% es.tEx (V/m) @ t=0.24
1.279469597194825
% es.tEy (V/m) @ t=0.24
0
% es.tEz (V/m) @ t=0.24
0.5172389904682366
% V (V) @ t=0.24
0.006906160522203004
% es.normE (V/m) @ t=0.26
1.3970708922660136
% es.EX (V/m) @ t=0.26
1.2910773500779307
% es.EY (V/m) @ t=0.26
0.08129422691058358
% es.EZ (V/m) @ t=0.26
0.5219315464172083
% es.tEX (V/m) @ t=0.26
1.2910773500779342
% es.tEY (V/m) @ t=0.26
0
% es.tEZ (V/m) @ t=0.26
0.521931546417207
% es.Ex (V/m) @ t=0.26
1.2910773500779307
% es.Ey (V/m) @ t=0.26
0.08129422691058358
% es.Ez (V/m) @ t=0.26
0.5219315464172083
% es.tEx (V/m) @ t=0.26
1.2910773500779342
% es.tEy (V/m) @ t=0.26
0
% es.tEz (V/m) @ t=0.26
0.521931546417207
% V (V) @ t=0.26
0.006968815380403926
% es.normE (V/m) @ t=0.28
1.4099630575149371
% es.EX (V/m) @ t=0.28
1.3029914078445604
% es.EY (V/m) @ t=0.28
0.08204440755911724
% es.EZ (V/m) @ t=0.28
0.5267479276511049
% es.tEX (V/m) @ t=0.28
1.3029914078445604
% es.tEY (V/m) @ t=0.28
0
% es.tEZ (V/m) @ t=0.28
0.5267479276511042
% es.Ex (V/m) @ t=0.28
1.3029914078445604
% es.Ey (V/m) @ t=0.28
0.08204440755911724
% es.Ez (V/m) @ t=0.28
0.5267479276511049
% es.tEx (V/m) @ t=0.28
1.3029914078445604
% es.tEy (V/m) @ t=0.28
0
% es.tEz (V/m) @ t=0.28
0.5267479276511042
% V (V) @ t=0.28
0.00703312369375083
% es.normE (V/m) @ t=0.3
1.4239745140591333
% es.EX (V/m) @ t=0.3
1.3159398401977374
% es.EY (V/m) @ t=0.3
0.0828597103360782
% es.EZ (V/m) @ t=0.3
0.5319824599977807
% es.tEX (V/m) @ t=0.3
1.3159398401977365
% es.tEY (V/m) @ t=0.3
0
% es.tEZ (V/m) @ t=0.3
0.5319824599977823
% es.Ex (V/m) @ t=0.3
1.3159398401977374
% es.Ey (V/m) @ t=0.3
0.0828597103360782
% es.Ez (V/m) @ t=0.3
0.5319824599977807
% es.tEx (V/m) @ t=0.3
1.3159398401977365
% es.tEy (V/m) @ t=0.3
0
% es.tEz (V/m) @ t=0.3
0.5319824599977823
% V (V) @ t=0.3
0.007103015633330778
% es.normE (V/m) @ t=0.32
1.4379859706033362
% es.EX (V/m) @ t=0.32
1.3288882725509206
% es.EY (V/m) @ t=0.32
0.08367501311305331
% es.EZ (V/m) @ t=0.32
0.5372169923444559
% es.tEX (V/m) @ t=0.32
1.3288882725509241
% es.tEY (V/m) @ t=0.32
0
% es.tEZ (V/m) @ t=0.32
0.5372169923444554
% es.Ex (V/m) @ t=0.32
1.3288882725509206
% es.Ey (V/m) @ t=0.32
0.08367501311305331
% es.Ez (V/m) @ t=0.32
0.5372169923444559
% es.tEx (V/m) @ t=0.32
1.3288882725509241
% es.tEy (V/m) @ t=0.32
0
% es.tEz (V/m) @ t=0.32
0.5372169923444554
% V (V) @ t=0.32
0.007172907572910728
% es.normE (V/m) @ t=0.34
1.4519974271475349
% es.EX (V/m) @ t=0.34
1.341836704904094
% es.EY (V/m) @ t=0.34
0.08449031589002409
% es.EZ (V/m) @ t=0.34
0.5424515246911423
% es.tEX (V/m) @ t=0.34
1.3418367049040967
% es.tEY (V/m) @ t=0.34
0
% es.tEZ (V/m) @ t=0.34
0.5424515246911441
% es.Ex (V/m) @ t=0.34
1.341836704904094
% es.Ey (V/m) @ t=0.34
0.08449031589002409
% es.Ez (V/m) @ t=0.34
0.5424515246911423
% es.tEx (V/m) @ t=0.34
1.3418367049040967
% es.tEy (V/m) @ t=0.34
0
% es.tEz (V/m) @ t=0.34
0.5424515246911441
% V (V) @ t=0.34
0.007242799512490677
% es.normE (V/m) @ t=0.36
1.4660088836917304
% es.EX (V/m) @ t=0.36
1.3547851372572692
% es.EY (V/m) @ t=0.36
0.0853056186669911
% es.EZ (V/m) @ t=0.36
0.5476860570378199
% es.tEX (V/m) @ t=0.36
1.354785137257272
% es.tEY (V/m) @ t=0.36
0
% es.tEZ (V/m) @ t=0.36
0.547686057037819
% es.Ex (V/m) @ t=0.36
1.3547851372572692
% es.Ey (V/m) @ t=0.36
0.0853056186669911
% es.Ez (V/m) @ t=0.36
0.5476860570378199
% es.tEx (V/m) @ t=0.36
1.354785137257272
% es.tEy (V/m) @ t=0.36
0
% es.tEz (V/m) @ t=0.36
0.547686057037819
% V (V) @ t=0.36
0.007312691452070626
% es.normE (V/m) @ t=0.38
1.4800203402359315
% es.EX (V/m) @ t=0.38
1.367733569610448
% es.EY (V/m) @ t=0.38
0.08612092144396533
% es.EZ (V/m) @ t=0.38
0.5529205893844988
% es.tEX (V/m) @ t=0.38
1.3677335696104471
% es.tEY (V/m) @ t=0.38
0
% es.tEZ (V/m) @ t=0.38
0.5529205893844997
% es.Ex (V/m) @ t=0.38
1.367733569610448
% es.Ey (V/m) @ t=0.38
0.08612092144396533
% es.Ez (V/m) @ t=0.38
0.5529205893844988
% es.tEx (V/m) @ t=0.38
1.3677335696104471
% es.tEy (V/m) @ t=0.38
0
% es.tEz (V/m) @ t=0.38
0.5529205893844997
% V (V) @ t=0.38
0.0073825833916505755
% es.normE (V/m) @ t=0.4
1.494031796780133
% es.EX (V/m) @ t=0.4
1.3806820019636294
% es.EY (V/m) @ t=0.4
0.08693622422094227
% es.EZ (V/m) @ t=0.4
0.5581551217311738
% es.tEX (V/m) @ t=0.4
1.3806820019636286
% es.tEY (V/m) @ t=0.4
0
% es.tEZ (V/m) @ t=0.4
0.5581551217311729
% es.Ex (V/m) @ t=0.4
1.3806820019636294
% es.Ey (V/m) @ t=0.4
0.08693622422094227
% es.Ez (V/m) @ t=0.4
0.5581551217311738
% es.tEx (V/m) @ t=0.4
1.3806820019636286
% es.tEy (V/m) @ t=0.4
0
% es.tEz (V/m) @ t=0.4
0.5581551217311729
% V (V) @ t=0.4
0.007452475331230525
% es.normE (V/m) @ t=0.42
1.508043253324331
% es.EX (V/m) @ t=0.42
1.3936304343168038
% es.EY (V/m) @ t=0.42
0.08775152699791561
% es.EZ (V/m) @ t=0.42
0.5633896540778571
% es.tEX (V/m) @ t=0.42
1.393630434316802
% es.tEY (V/m) @ t=0.42
0
% es.tEZ (V/m) @ t=0.42
0.5633896540778589
% es.Ex (V/m) @ t=0.42
1.3936304343168038
% es.Ey (V/m) @ t=0.42
0.08775152699791561
% es.Ez (V/m) @ t=0.42
0.5633896540778571
% es.tEx (V/m) @ t=0.42
1.393630434316802
% es.tEy (V/m) @ t=0.42
0
% es.tEz (V/m) @ t=0.42
0.5633896540778589
% V (V) @ t=0.42
0.007522367270810472
% es.normE (V/m) @ t=0.44
1.5220547098685318
% es.EX (V/m) @ t=0.44
1.4065788666699826
% es.EY (V/m) @ t=0.44
0.08856682977488012
% es.EZ (V/m) @ t=0.44
0.568624186424536
% es.tEX (V/m) @ t=0.44
1.4065788666699781
% es.tEY (V/m) @ t=0.44
0
% es.tEZ (V/m) @ t=0.44
0.568624186424536
% es.Ex (V/m) @ t=0.44
1.4065788666699826
% es.Ey (V/m) @ t=0.44
0.08856682977488012
% es.Ez (V/m) @ t=0.44
0.568624186424536
% es.tEx (V/m) @ t=0.44
1.4065788666699781
% es.tEy (V/m) @ t=0.44
0
% es.tEz (V/m) @ t=0.44
0.568624186424536
% V (V) @ t=0.44
0.0075922592103904235
% es.normE (V/m) @ t=0.46
1.5360661664127249
% es.EX (V/m) @ t=0.46
1.419527299023156
% es.EY (V/m) @ t=0.46
0.08938213255185534
% es.EZ (V/m) @ t=0.46
0.5738587187712052
% es.tEX (V/m) @ t=0.46
1.4195272990231578
% es.tEY (V/m) @ t=0.46
0
% es.tEZ (V/m) @ t=0.46
0.5738587187712043
% es.Ex (V/m) @ t=0.46
1.419527299023156
% es.Ey (V/m) @ t=0.46
0.08938213255185534
% es.Ez (V/m) @ t=0.46
0.5738587187712052
% es.tEx (V/m) @ t=0.46
1.4195272990231578
% es.tEy (V/m) @ t=0.46
0
% es.tEz (V/m) @ t=0.46
0.5738587187712043
% V (V) @ t=0.46
0.007662151149970371
% es.normE (V/m) @ t=0.48
1.5500776229569284
% es.EX (V/m) @ t=0.48
1.4324757313763339
% es.EY (V/m) @ t=0.48
0.09019743532882685
% es.EZ (V/m) @ t=0.48
0.579093251117893
% es.tEX (V/m) @ t=0.48
1.4324757313763286
% es.tEY (V/m) @ t=0.48
0
% es.tEZ (V/m) @ t=0.48
0.5790932511178992
% es.Ex (V/m) @ t=0.48
1.4324757313763339
% es.Ey (V/m) @ t=0.48
0.09019743532882685
% es.Ez (V/m) @ t=0.48
0.579093251117893
% es.tEx (V/m) @ t=0.48
1.4324757313763286
% es.tEy (V/m) @ t=0.48
0
% es.tEz (V/m) @ t=0.48
0.5790932511178992
% V (V) @ t=0.48
0.00773204308955032
% es.normE (V/m) @ t=0.5
1.5640890795011289
% es.EX (V/m) @ t=0.5
1.4454241637295135
% es.EY (V/m) @ t=0.5
0.0910127381057923
% es.EZ (V/m) @ t=0.5
0.5843277834645684
% es.tEX (V/m) @ t=0.5
1.4454241637295135
% es.tEY (V/m) @ t=0.5
0
% es.tEZ (V/m) @ t=0.5
0.5843277834645693
% es.Ex (V/m) @ t=0.5
1.4454241637295135
% es.Ey (V/m) @ t=0.5
0.0910127381057923
% es.Ez (V/m) @ t=0.5
0.5843277834645684
% es.tEx (V/m) @ t=0.5
1.4454241637295135
% es.tEy (V/m) @ t=0.5
0
% es.tEz (V/m) @ t=0.5
0.5843277834645693
% V (V) @ t=0.5
0.007801935029130269
% es.normE (V/m) @ t=0.52
1.5781005360453313
% es.EX (V/m) @ t=0.52
1.4583725960826923
% es.EY (V/m) @ t=0.52
0.09182804088276203
% es.EZ (V/m) @ t=0.52
0.5895623158112517
% es.tEX (V/m) @ t=0.52
1.458372596082695
% es.tEY (V/m) @ t=0.52
0
% es.tEZ (V/m) @ t=0.52
0.5895623158112526
% es.Ex (V/m) @ t=0.52
1.4583725960826923
% es.Ey (V/m) @ t=0.52
0.09182804088276203
% es.Ez (V/m) @ t=0.52
0.5895623158112517
% es.tEx (V/m) @ t=0.52
1.458372596082695
% es.tEy (V/m) @ t=0.52
0
% es.tEz (V/m) @ t=0.52
0.5895623158112526
% V (V) @ t=0.52
0.00787182696871022
% es.normE (V/m) @ t=0.54
1.5921119925895268
% es.EX (V/m) @ t=0.54
1.471321028435863
% es.EY (V/m) @ t=0.54
0.09264334365973986
% es.EZ (V/m) @ t=0.54
0.5947968481579333
% es.tEX (V/m) @ t=0.54
1.4713210284358622
% es.tEY (V/m) @ t=0.54
0
% es.tEZ (V/m) @ t=0.54
0.5947968481579351
% es.Ex (V/m) @ t=0.54
1.471321028435863
% es.Ey (V/m) @ t=0.54
0.09264334365973986
% es.Ez (V/m) @ t=0.54
0.5947968481579333
% es.tEx (V/m) @ t=0.54
1.4713210284358622
% es.tEy (V/m) @ t=0.54
0
% es.tEz (V/m) @ t=0.54
0.5947968481579351
% V (V) @ t=0.54
0.007941718908290166
% es.normE (V/m) @ t=0.56
1.606892569722288
% es.EX (V/m) @ t=0.56
1.4849802281982143
% es.EY (V/m) @ t=0.56
0.09350340565269549
% es.EZ (V/m) @ t=0.56
0.6003187189166486
% es.tEX (V/m) @ t=0.56
1.484980228198209
% es.tEY (V/m) @ t=0.56
0
% es.tEZ (V/m) @ t=0.56
0.6003187189166468
% es.Ex (V/m) @ t=0.56
1.4849802281982143
% es.Ey (V/m) @ t=0.56
0.09350340565269549
% es.Ez (V/m) @ t=0.56
0.6003187189166486
% es.tEx (V/m) @ t=0.56
1.484980228198209
% es.tEy (V/m) @ t=0.56
0
% es.tEz (V/m) @ t=0.56
0.6003187189166468
% V (V) @ t=0.56
0.008015447103680066
% es.normE (V/m) @ t=0.58
1.622550898578428
% es.EX (V/m) @ t=0.58
1.4994505846603037
% es.EY (V/m) @ t=0.58
0.09441454868489307
% es.EZ (V/m) @ t=0.58
0.6061685119675579
% es.tEX (V/m) @ t=0.58
1.499450584660302
% es.tEY (V/m) @ t=0.58
0
% es.tEZ (V/m) @ t=0.58
0.6061685119675553
% es.Ex (V/m) @ t=0.58
1.4994505846603037
% es.Ey (V/m) @ t=0.58
0.09441454868489307
% es.Ez (V/m) @ t=0.58
0.6061685119675579
% es.tEx (V/m) @ t=0.58
1.499450584660302
% es.tEy (V/m) @ t=0.58
0
% es.tEz (V/m) @ t=0.58
0.6061685119675553
% V (V) @ t=0.58
0.008093553390358357
% es.normE (V/m) @ t=0.6
1.6382092274345526
% es.EX (V/m) @ t=0.6
1.5139209411223868
% es.EY (V/m) @ t=0.6
0.09532569171711197
% es.EZ (V/m) @ t=0.6
0.6120183050184367
% es.tEX (V/m) @ t=0.6
1.5139209411223895
% es.tEY (V/m) @ t=0.6
0
% es.tEZ (V/m) @ t=0.6
0.6120183050184385
% es.Ex (V/m) @ t=0.6
1.5139209411223868
% es.Ey (V/m) @ t=0.6
0.09532569171711197
% es.Ez (V/m) @ t=0.6
0.6120183050184367
% es.tEx (V/m) @ t=0.6
1.5139209411223895
% es.tEy (V/m) @ t=0.6
0
% es.tEz (V/m) @ t=0.6
0.6120183050184385
% V (V) @ t=0.6
0.008171659677036645
% es.normE (V/m) @ t=0.62
1.6538675562906948
% es.EX (V/m) @ t=0.62
1.528391297584478
% es.EY (V/m) @ t=0.62
0.09623683474931854
% es.EZ (V/m) @ t=0.62
0.6178680980693465
% es.tEX (V/m) @ t=0.62
1.5283912975844807
% es.tEY (V/m) @ t=0.62
0
% es.tEZ (V/m) @ t=0.62
0.6178680980693438
% es.Ex (V/m) @ t=0.62
1.528391297584478
% es.Ey (V/m) @ t=0.62
0.09623683474931854
% es.Ez (V/m) @ t=0.62
0.6178680980693465
% es.tEx (V/m) @ t=0.62
1.5283912975844807
% es.tEy (V/m) @ t=0.62
0
% es.tEz (V/m) @ t=0.62
0.6178680980693438
% V (V) @ t=0.62
0.008249765963714933
% es.normE (V/m) @ t=0.64
1.6695258851468293
% es.EX (V/m) @ t=0.64
1.542861654046567
% es.EY (V/m) @ t=0.64
0.09714797778151618
% es.EZ (V/m) @ t=0.64
0.6237178911202412
% es.tEX (V/m) @ t=0.64
1.5428616540465665
% es.tEY (V/m) @ t=0.64
0
% es.tEZ (V/m) @ t=0.64
0.6237178911202377
% es.Ex (V/m) @ t=0.64
1.542861654046567
% es.Ey (V/m) @ t=0.64
0.09714797778151618
% es.Ez (V/m) @ t=0.64
0.6237178911202412
% es.tEx (V/m) @ t=0.64
1.5428616540465665
% es.tEy (V/m) @ t=0.64
0
% es.tEz (V/m) @ t=0.64
0.6237178911202377
% V (V) @ t=0.64
0.008327872250393225
% es.normE (V/m) @ t=0.66
1.68518421400297
% es.EX (V/m) @ t=0.66
1.5573320105086612
% es.EY (V/m) @ t=0.66
0.09805912081372714
% es.EZ (V/m) @ t=0.66
0.6295676841711386
% es.tEX (V/m) @ t=0.66
1.5573320105086648
% es.tEY (V/m) @ t=0.66
0
% es.tEZ (V/m) @ t=0.66
0.6295676841711395
% es.Ex (V/m) @ t=0.66
1.5573320105086612
% es.Ey (V/m) @ t=0.66
0.09805912081372714
% es.Ez (V/m) @ t=0.66
0.6295676841711386
% es.tEx (V/m) @ t=0.66
1.5573320105086648
% es.tEy (V/m) @ t=0.66
0
% es.tEz (V/m) @ t=0.66
0.6295676841711395
% V (V) @ t=0.66
0.00840597853707151
% es.normE (V/m) @ t=0.68
1.7008425428591023
% es.EX (V/m) @ t=0.68
1.571802366970743
% es.EY (V/m) @ t=0.68
0.09897026384593366
% es.EZ (V/m) @ t=0.68
0.6354174772220422
% es.tEX (V/m) @ t=0.68
1.5718023669707426
% es.tEY (V/m) @ t=0.68
0
% es.tEZ (V/m) @ t=0.68
0.6354174772220404
% es.Ex (V/m) @ t=0.68
1.571802366970743
% es.Ey (V/m) @ t=0.68
0.09897026384593366
% es.Ez (V/m) @ t=0.68
0.6354174772220422
% es.tEx (V/m) @ t=0.68
1.5718023669707426
% es.tEy (V/m) @ t=0.68
0
% es.tEz (V/m) @ t=0.68
0.6354174772220404
% V (V) @ t=0.68
0.0084840848237498
% es.normE (V/m) @ t=0.7
1.7165008717152335
% es.EX (V/m) @ t=0.7
1.5862727234328284
% es.EY (V/m) @ t=0.7
0.09988140687814995
% es.EZ (V/m) @ t=0.7
0.6412672702729354
% es.tEX (V/m) @ t=0.7
1.5862727234328284
% es.tEY (V/m) @ t=0.7
0
% es.tEZ (V/m) @ t=0.7
0.6412672702729378
% es.Ex (V/m) @ t=0.7
1.5862727234328284
% es.Ey (V/m) @ t=0.7
0.09988140687814995
% es.Ez (V/m) @ t=0.7
0.6412672702729354
% es.tEx (V/m) @ t=0.7
1.5862727234328284
% es.tEy (V/m) @ t=0.7
0
% es.tEz (V/m) @ t=0.7
0.6412672702729378
% V (V) @ t=0.7
0.008562191110428092
% es.normE (V/m) @ t=0.72
1.7321592005713786
% es.EX (V/m) @ t=0.72
1.6007430798949267
% es.EY (V/m) @ t=0.72
0.10079254991034925
% es.EZ (V/m) @ t=0.72
0.6471170633238366
% es.tEX (V/m) @ t=0.72
1.600743079894925
% es.tEY (V/m) @ t=0.72
0
% es.tEZ (V/m) @ t=0.72
0.647117063323841
% es.Ex (V/m) @ t=0.72
1.6007430798949267
% es.Ey (V/m) @ t=0.72
0.10079254991034925
% es.Ez (V/m) @ t=0.72
0.6471170633238366
% es.tEx (V/m) @ t=0.72
1.600743079894925
% es.tEy (V/m) @ t=0.72
0
% es.tEz (V/m) @ t=0.72
0.647117063323841
% V (V) @ t=0.72
0.00864029739710638
% es.normE (V/m) @ t=0.74
1.7478175294275118
% es.EX (V/m) @ t=0.74
1.615213436357009
% es.EY (V/m) @ t=0.74
0.10170369294255321
% es.EZ (V/m) @ t=0.74
0.6529668563747408
% es.tEX (V/m) @ t=0.74
1.6152134363570125
% es.tEY (V/m) @ t=0.74
0
% es.tEZ (V/m) @ t=0.74
0.6529668563747388
% es.Ex (V/m) @ t=0.74
1.615213436357009
% es.Ey (V/m) @ t=0.74
0.10170369294255321
% es.Ez (V/m) @ t=0.74
0.6529668563747408
% es.tEx (V/m) @ t=0.74
1.6152134363570125
% es.tEy (V/m) @ t=0.74
0
% es.tEz (V/m) @ t=0.74
0.6529668563747388
% V (V) @ t=0.74
0.008718403683784669
% es.normE (V/m) @ t=0.76
1.7634758582836492
% es.EX (V/m) @ t=0.76
1.629683792819102
% es.EY (V/m) @ t=0.76
0.1026148359747614
% es.EZ (V/m) @ t=0.76
0.658816649425634
% es.tEX (V/m) @ t=0.76
1.629683792819109
% es.tEY (V/m) @ t=0.76
0
% es.tEZ (V/m) @ t=0.76
0.6588166494256331
% es.Ex (V/m) @ t=0.76
1.629683792819102
% es.Ey (V/m) @ t=0.76
0.1026148359747614
% es.Ez (V/m) @ t=0.76
0.658816649425634
% es.tEx (V/m) @ t=0.76
1.629683792819109
% es.tEy (V/m) @ t=0.76
0
% es.tEz (V/m) @ t=0.76
0.6588166494256331
% V (V) @ t=0.76
0.008796509970462957
% es.normE (V/m) @ t=0.78
1.7791341871397832
% es.EX (V/m) @ t=0.78
1.644154149281186
% es.EY (V/m) @ t=0.78
0.10352597900697069
% es.EZ (V/m) @ t=0.78
0.6646664424765374
% es.tEX (V/m) @ t=0.78
1.644154149281186
% es.tEY (V/m) @ t=0.78
0
% es.tEZ (V/m) @ t=0.78
0.6646664424765363
% es.Ex (V/m) @ t=0.78
1.644154149281186
% es.Ey (V/m) @ t=0.78
0.10352597900697069
% es.Ez (V/m) @ t=0.78
0.6646664424765374
% es.tEx (V/m) @ t=0.78
1.644154149281186
% es.tEy (V/m) @ t=0.78
0
% es.tEz (V/m) @ t=0.78
0.6646664424765363
% V (V) @ t=0.78
0.00887461625714125
% es.normE (V/m) @ t=0.8
1.7947925159959186
% es.EX (V/m) @ t=0.8
1.658624505743275
% es.EY (V/m) @ t=0.8
0.10443712203917355
% es.EZ (V/m) @ t=0.8
0.6705162355274359
% es.tEX (V/m) @ t=0.8
1.658624505743279
% es.tEY (V/m) @ t=0.8
0
% es.tEZ (V/m) @ t=0.8
0.6705162355274341
% es.Ex (V/m) @ t=0.8
1.658624505743275
% es.Ey (V/m) @ t=0.8
0.10443712203917355
% es.Ez (V/m) @ t=0.8
0.6705162355274359
% es.tEx (V/m) @ t=0.8
1.658624505743279
% es.tEy (V/m) @ t=0.8
0
% es.tEz (V/m) @ t=0.8
0.6705162355274341
% V (V) @ t=0.8
0.008952722543819538
% es.normE (V/m) @ t=0.82
1.810450844852054
% es.EX (V/m) @ t=0.82
1.6730948622053643
% es.EY (V/m) @ t=0.82
0.10534826507137462
% es.EZ (V/m) @ t=0.82
0.6763660285783304
% es.tEX (V/m) @ t=0.82
1.673094862205363
% es.tEY (V/m) @ t=0.82
0
% es.tEZ (V/m) @ t=0.82
0.6763660285783302
% es.Ex (V/m) @ t=0.82
1.6730948622053643
% es.Ey (V/m) @ t=0.82
0.10534826507137462
% es.Ez (V/m) @ t=0.82
0.6763660285783304
% es.tEx (V/m) @ t=0.82
1.673094862205363
% es.tEy (V/m) @ t=0.82
0
% es.tEz (V/m) @ t=0.82
0.6763660285783302
% V (V) @ t=0.82
0.009030828830497826
% es.normE (V/m) @ t=0.84
1.8274309574631225
% es.EX (V/m) @ t=0.84
1.6887867205528955
% es.EY (V/m) @ t=0.84
0.10633632239632662
% es.EZ (V/m) @ t=0.84
0.6827096272056661
% es.tEX (V/m) @ t=0.84
1.688786720552896
% es.tEY (V/m) @ t=0.84
0
% es.tEZ (V/m) @ t=0.84
0.6827096272056616
% es.Ex (V/m) @ t=0.84
1.6887867205528955
% es.Ey (V/m) @ t=0.84
0.10633632239632662
% es.Ez (V/m) @ t=0.84
0.6827096272056661
% es.tEx (V/m) @ t=0.84
1.688786720552896
% es.tEy (V/m) @ t=0.84
0
% es.tEz (V/m) @ t=0.84
0.6827096272056616
% V (V) @ t=0.84
0.009115528340285175
% es.normE (V/m) @ t=0.86
1.8449626474998142
% es.EX (V/m) @ t=0.86
1.7049883089246096
% es.EY (V/m) @ t=0.86
0.10735647588482289
% es.EZ (V/m) @ t=0.86
0.6892592898034497
% es.tEX (V/m) @ t=0.86
1.7049883089246105
% es.tEY (V/m) @ t=0.86
0
% es.tEZ (V/m) @ t=0.86
0.6892592898034549
% es.Ex (V/m) @ t=0.86
1.7049883089246096
% es.Ey (V/m) @ t=0.86
0.10735647588482289
% es.Ez (V/m) @ t=0.86
0.6892592898034497
% es.tEx (V/m) @ t=0.86
1.7049883089246105
% es.tEy (V/m) @ t=0.86
0
% es.tEz (V/m) @ t=0.86
0.6892592898034549
% V (V) @ t=0.86
0.009202979187434271
% es.normE (V/m) @ t=0.88
1.8624943375365177
% es.EX (V/m) @ t=0.88
1.7211898972963402
% es.EY (V/m) @ t=0.88
0.10837662937331827
% es.EZ (V/m) @ t=0.88
0.6958089524012216
% es.tEX (V/m) @ t=0.88
1.721189897296341
% es.tEY (V/m) @ t=0.88
0
% es.tEZ (V/m) @ t=0.88
0.6958089524012241
% es.Ex (V/m) @ t=0.88
1.7211898972963402
% es.Ey (V/m) @ t=0.88
0.10837662937331827
% es.Ez (V/m) @ t=0.88
0.6958089524012216
% es.tEx (V/m) @ t=0.88
1.721189897296341
% es.tEy (V/m) @ t=0.88
0
% es.tEz (V/m) @ t=0.88
0.6958089524012241
% V (V) @ t=0.88
0.009290430034583366
% es.normE (V/m) @ t=0.9
1.8800260275732041
% es.EX (V/m) @ t=0.9
1.737391485668053
% es.EY (V/m) @ t=0.9
0.10939678286180765
% es.EZ (V/m) @ t=0.9
0.7023586149989944
% es.tEX (V/m) @ t=0.9
1.7373914856680468
% es.tEY (V/m) @ t=0.9
0
% es.tEZ (V/m) @ t=0.9
0.7023586149989951
% es.Ex (V/m) @ t=0.9
1.737391485668053
% es.Ey (V/m) @ t=0.9
0.10939678286180765
% es.Ez (V/m) @ t=0.9
0.7023586149989944
% es.tEx (V/m) @ t=0.9
1.7373914856680468
% es.tEy (V/m) @ t=0.9
0
% es.tEz (V/m) @ t=0.9
0.7023586149989951
% V (V) @ t=0.9
0.009377880881732465
% es.normE (V/m) @ t=0.92
1.8975577176098999
% es.EX (V/m) @ t=0.92
1.7535930740397712
% es.EY (V/m) @ t=0.92
0.11041693635031125
% es.EZ (V/m) @ t=0.92
0.708908277596777
% es.tEX (V/m) @ t=0.92
1.7535930740397774
% es.tEY (V/m) @ t=0.92
0
% es.tEZ (V/m) @ t=0.92
0.708908277596775
% es.Ex (V/m) @ t=0.92
1.7535930740397712
% es.Ey (V/m) @ t=0.92
0.11041693635031125
% es.Ez (V/m) @ t=0.92
0.708908277596777
% es.tEx (V/m) @ t=0.92
1.7535930740397774
% es.tEy (V/m) @ t=0.92
0
% es.tEz (V/m) @ t=0.92
0.708908277596775
% V (V) @ t=0.92
0.00946533172888156
% es.normE (V/m) @ t=0.94
1.915089407646601
% es.EX (V/m) @ t=0.94
1.7697946624114964
% es.EY (V/m) @ t=0.94
0.11143708983881451
% es.EZ (V/m) @ t=0.94
0.7154579401945551
% es.tEX (V/m) @ t=0.94
1.7697946624114937
% es.tEY (V/m) @ t=0.94
0
% es.tEZ (V/m) @ t=0.94
0.7154579401945602
% es.Ex (V/m) @ t=0.94
1.7697946624114964
% es.Ey (V/m) @ t=0.94
0.11143708983881451
% es.Ez (V/m) @ t=0.94
0.7154579401945551
% es.tEx (V/m) @ t=0.94
1.7697946624114937
% es.tEy (V/m) @ t=0.94
0
% es.tEz (V/m) @ t=0.94
0.7154579401945602
% V (V) @ t=0.94
0.009552782576030656
% es.normE (V/m) @ t=0.96
1.9326210976832972
% es.EX (V/m) @ t=0.96
1.7859962507832172
% es.EY (V/m) @ t=0.96
0.1124572433272959
% es.EZ (V/m) @ t=0.96
0.7220076027923368
% es.tEX (V/m) @ t=0.96
1.7859962507832208
% es.tEY (V/m) @ t=0.96
0
% es.tEZ (V/m) @ t=0.96
0.7220076027923312
% es.Ex (V/m) @ t=0.96
1.7859962507832172
% es.Ey (V/m) @ t=0.96
0.1124572433272959
% es.Ez (V/m) @ t=0.96
0.7220076027923368
% es.tEx (V/m) @ t=0.96
1.7859962507832208
% es.tEy (V/m) @ t=0.96
0
% es.tEz (V/m) @ t=0.96
0.7220076027923312
% V (V) @ t=0.96
0.009640233423179751
% es.normE (V/m) @ t=0.98
1.9501527877199871
% es.EX (V/m) @ t=0.98
1.802197839154931
% es.EY (V/m) @ t=0.98
0.11347739681580804
% es.EZ (V/m) @ t=0.98
0.7285572653901107
% es.tEX (V/m) @ t=0.98
1.802197839154946
% es.tEY (V/m) @ t=0.98
0
% es.tEZ (V/m) @ t=0.98
0.7285572653901089
% es.Ex (V/m) @ t=0.98
1.802197839154931
% es.Ey (V/m) @ t=0.98
0.11347739681580804
% es.Ez (V/m) @ t=0.98
0.7285572653901107
% es.tEx (V/m) @ t=0.98
1.802197839154946
% es.tEy (V/m) @ t=0.98
0
% es.tEz (V/m) @ t=0.98
0.7285572653901089
% V (V) @ t=0.98
0.009727684270328846
% es.normE (V/m) @ t=1
1.9676844777566995
% es.EX (V/m) @ t=1
1.8183994275266686
% es.EY (V/m) @ t=1
0.11449755030429554
% es.EZ (V/m) @ t=1
0.7351069279878923
% es.tEX (V/m) @ t=1
1.8183994275266624
% es.tEY (V/m) @ t=1
0
% es.tEZ (V/m) @ t=1
0.7351069279878906
% es.Ex (V/m) @ t=1
1.8183994275266686
% es.Ey (V/m) @ t=1
0.11449755030429554
% es.Ez (V/m) @ t=1
0.7351069279878923
% es.tEx (V/m) @ t=1
1.8183994275266624
% es.tEy (V/m) @ t=1
0
% es.tEz (V/m) @ t=1
0.7351069279878906
% V (V) @ t=1
0.00981513511747794
% es.normE (V/m) @ t=1.02
1.9852161677933822
% es.EX (V/m) @ t=1.02
1.8346010158983717
% es.EY (V/m) @ t=1.02
0.11551770379279647
% es.EZ (V/m) @ t=1.02
0.7416565905856767
% es.tEX (V/m) @ t=1.02
1.8346010158983717
% es.tEY (V/m) @ t=1.02
0
% es.tEZ (V/m) @ t=1.02
0.7416565905856811
% es.Ex (V/m) @ t=1.02
1.8346010158983717
% es.Ey (V/m) @ t=1.02
0.11551770379279647
% es.Ez (V/m) @ t=1.02
0.7416565905856767
% es.tEx (V/m) @ t=1.02
1.8346010158983717
% es.tEy (V/m) @ t=1.02
0
% es.tEz (V/m) @ t=1.02
0.7416565905856811
% V (V) @ t=1.02
0.00990258596462704
% es.normE (V/m) @ t=1.04
2.0027478578300832
% es.EX (V/m) @ t=1.04
1.8508026042700987
% es.EY (V/m) @ t=1.04
0.11653785728128563
% es.EZ (V/m) @ t=1.04
0.7482062531834539
% es.tEX (V/m) @ t=1.04
1.8508026042701058
% es.tEY (V/m) @ t=1.04
0
% es.tEZ (V/m) @ t=1.04
0.7482062531834575
% es.Ex (V/m) @ t=1.04
1.8508026042700987
% es.Ey (V/m) @ t=1.04
0.11653785728128563
% es.Ez (V/m) @ t=1.04
0.7482062531834539
% es.tEx (V/m) @ t=1.04