% Model:              1 neuron.mph
% Version:            COMSOL 6.1.0.252
% Date:               Mar 18 2023, 11:36
% Dimension:          0
% Nodes:              14017
% Expressions:        14017
% Description:        Electric field norm, Electric field, X component, Electric field, Y component, Electric field, Z component, Tangential electric field, X component, Tangential electric field, Y component, Tangential electric field, Z component, Electric field, x component, Electric field, y component, Electric field, z component, Tangential electric field, x component, Tangential electric field, y component, Tangential electric field, z component, Electric potential
% Length unit:        mm
% x
1.33
% y
12.2
% z
2
% es.normE (V/m) @ t=0
1.465710148629459
% es.EX (V/m) @ t=0
0.5841424321971023
% es.EY (V/m) @ t=0
0.15443666007507595
% es.EZ (V/m) @ t=0
-1.334192224150459
% es.tEX (V/m) @ t=0
0.5841424321970989
% es.tEY (V/m) @ t=0
0
% es.tEZ (V/m) @ t=0
-1.3341922241504633
% es.Ex (V/m) @ t=0
0.5841424321971023
% es.Ey (V/m) @ t=0
0.15443666007507595
% es.Ez (V/m) @ t=0
-1.334192224150459
% es.tEx (V/m) @ t=0
0.5841424321970989
% es.tEy (V/m) @ t=0
0
% es.tEz (V/m) @ t=0
-1.3341922241504633
% V (V) @ t=0
0.00732867007855639
% es.normE (V/m) @ t=0.02
1.2659475409367058
% es.EX (V/m) @ t=0.02
0.504529272920099
% es.EY (V/m) @ t=0.02
0.13338838532110975
% es.EZ (V/m) @ t=0.02
-1.1523542815585852
% es.tEX (V/m) @ t=0.02
0.5045292729200956
% es.tEY (V/m) @ t=0.02
0
% es.tEZ (V/m) @ t=0.02
-1.1523542815585888
% es.Ex (V/m) @ t=0.02
0.504529272920099
% es.Ey (V/m) @ t=0.02
0.13338838532110975
% es.Ez (V/m) @ t=0.02
-1.1523542815585852
% es.tEx (V/m) @ t=0.02
0.5045292729200956
% es.tEy (V/m) @ t=0.02
0
% es.tEz (V/m) @ t=0.02
-1.1523542815585888
% V (V) @ t=0.02
0.006329840775607721
% es.normE (V/m) @ t=0.04
1.2775895140171885
% es.EX (V/m) @ t=0.04
0.5091690514576714
% es.EY (V/m) @ t=0.04
0.1346150586186159
% es.EZ (V/m) @ t=0.04
-1.1629516223487437
% es.tEX (V/m) @ t=0.04
0.5091690514576714
% es.tEY (V/m) @ t=0.04
0
% es.tEZ (V/m) @ t=0.04
-1.1629516223487464
% es.Ex (V/m) @ t=0.04
0.5091690514576714
% es.Ey (V/m) @ t=0.04
0.1346150586186159
% es.Ez (V/m) @ t=0.04
-1.1629516223487437
% es.tEx (V/m) @ t=0.04
0.5091690514576714
% es.tEy (V/m) @ t=0.04
0
% es.tEz (V/m) @ t=0.04
-1.1629516223487464
% V (V) @ t=0.04
0.006388051587927363
% es.normE (V/m) @ t=0.06
1.2893400996453475
% es.EX (V/m) @ t=0.06
0.5138521163198988
% es.EY (V/m) @ t=0.06
0.1358531759923598
% es.EZ (V/m) @ t=0.06
-1.1736478299026194
% es.tEX (V/m) @ t=0.06
0.513852116319899
% es.tEY (V/m) @ t=0.06
0
% es.tEZ (V/m) @ t=0.06
-1.1736478299026238
% es.Ex (V/m) @ t=0.06
0.5138521163198988
% es.Ey (V/m) @ t=0.06
0.1358531759923598
% es.Ez (V/m) @ t=0.06
-1.1736478299026194
% es.tEx (V/m) @ t=0.06
0.513852116319899
% es.tEy (V/m) @ t=0.06
0
% es.tEz (V/m) @ t=0.06
-1.1736478299026238
% V (V) @ t=0.06
0.006446805471649325
% es.normE (V/m) @ t=0.08
1.3012613208462205
% es.EX (V/m) @ t=0.08
0.5186031861795044
% es.EY (V/m) @ t=0.08
0.1371092730001764
% es.EZ (V/m) @ t=0.08
-1.1844993618583404
% es.tEX (V/m) @ t=0.08
0.5186031861795044
% es.tEY (V/m) @ t=0.08
0
% es.tEZ (V/m) @ t=0.08
-1.1844993618583466
% es.Ex (V/m) @ t=0.08
0.5186031861795044
% es.Ey (V/m) @ t=0.08
0.1371092730001764
% es.Ez (V/m) @ t=0.08
-1.1844993618583404
% es.tEx (V/m) @ t=0.08
0.5186031861795044
% es.tEy (V/m) @ t=0.08
0
% es.tEz (V/m) @ t=0.08
-1.1844993618583466
% V (V) @ t=0.08
0.0065064125409116415
% es.normE (V/m) @ t=0.1
1.313318990636794
% es.EX (V/m) @ t=0.1
0.5234086361770782
% es.EY (V/m) @ t=0.1
0.13837974740701187
% es.EZ (V/m) @ t=0.1
-1.1954750988390712
% es.tEX (V/m) @ t=0.1
0.5234086361770784
% es.tEY (V/m) @ t=0.1
0
% es.tEZ (V/m) @ t=0.1
-1.1954750988390774
% es.Ex (V/m) @ t=0.1
0.5234086361770782
% es.Ey (V/m) @ t=0.1
0.13837974740701187
% es.Ez (V/m) @ t=0.1
-1.1954750988390712
% es.tEx (V/m) @ t=0.1
0.5234086361770784
% es.tEy (V/m) @ t=0.1
0
% es.tEz (V/m) @ t=0.1
-1.1954750988390774
% V (V) @ t=0.1
0.006566701859261123
% es.normE (V/m) @ t=0.12
1.3253766604273607
% es.EX (V/m) @ t=0.12
0.528214086174638
% es.EY (V/m) @ t=0.12
0.13965022181385
% es.EZ (V/m) @ t=0.12
-1.206450835819802
% es.tEX (V/m) @ t=0.12
0.5282140861746383
% es.tEY (V/m) @ t=0.12
0
% es.tEZ (V/m) @ t=0.12
-1.2064508358198065
% es.Ex (V/m) @ t=0.12
0.528214086174638
% es.Ey (V/m) @ t=0.12
0.13965022181385
% es.Ez (V/m) @ t=0.12
-1.206450835819802
% es.tEx (V/m) @ t=0.12
0.5282140861746383
% es.tEy (V/m) @ t=0.12
0
% es.tEz (V/m) @ t=0.12
-1.2064508358198065
% V (V) @ t=0.12
0.006626991177610606
% es.normE (V/m) @ t=0.14
1.3375132763206599
% es.EX (V/m) @ t=0.14
0.533050999228114
% es.EY (V/m) @ t=0.14
0.14092901436993266
% es.EZ (V/m) @ t=0.14
-1.2174984351064273
% es.tEX (V/m) @ t=0.14
0.5330509992281143
% es.tEY (V/m) @ t=0.14
0
% es.tEZ (V/m) @ t=0.14
-1.21749843510643
% es.Ex (V/m) @ t=0.14
0.533050999228114
% es.Ey (V/m) @ t=0.14
0.14092901436993266
% es.Ez (V/m) @ t=0.14
-1.2174984351064273
% es.tEx (V/m) @ t=0.14
0.5330509992281143
% es.tEy (V/m) @ t=0.14
0
% es.tEz (V/m) @ t=0.14
-1.21749843510643
% V (V) @ t=0.14
0.0066876752350869114
% es.normE (V/m) @ t=0.16
1.3502213019822058
% es.EX (V/m) @ t=0.16
0.5381156410340362
% es.EY (V/m) @ t=0.16
0.14226801346650575
% es.EZ (V/m) @ t=0.16
-1.2290661718303388
% es.tEX (V/m) @ t=0.16
0.5381156410340364
% es.tEY (V/m) @ t=0.16
0
% es.tEZ (V/m) @ t=0.16
-1.229066171830338
% es.Ex (V/m) @ t=0.16
0.5381156410340362
% es.Ey (V/m) @ t=0.16
0.14226801346650575
% es.Ez (V/m) @ t=0.16
-1.2290661718303388
% es.tEx (V/m) @ t=0.16
0.5381156410340364
% es.tEy (V/m) @ t=0.16
0
% es.tEz (V/m) @ t=0.16
-1.229066171830338
% V (V) @ t=0.16
0.006751216403745964
% es.normE (V/m) @ t=0.18
1.3629293276437466
% es.EX (V/m) @ t=0.18
0.5431802828399619
% es.EY (V/m) @ t=0.18
0.1436070125630824
% es.EZ (V/m) @ t=0.18
-1.2406339085542433
% es.tEX (V/m) @ t=0.18
0.5431802828399586
% es.tEY (V/m) @ t=0.18
0
% es.tEZ (V/m) @ t=0.18
-1.2406339085542513
% es.Ex (V/m) @ t=0.18
0.5431802828399619
% es.Ey (V/m) @ t=0.18
0.1436070125630824
% es.Ez (V/m) @ t=0.18
-1.2406339085542433
% es.tEx (V/m) @ t=0.18
0.5431802828399586
% es.tEy (V/m) @ t=0.18
0
% es.tEz (V/m) @ t=0.18
-1.2406339085542513
% V (V) @ t=0.18
0.006814757572405019
% es.normE (V/m) @ t=0.2
1.3756373533052904
% es.EX (V/m) @ t=0.2
0.5482449246458805
% es.EY (V/m) @ t=0.2
0.14494601165965193
% es.EZ (V/m) @ t=0.2
-1.2522016452781548
% es.tEX (V/m) @ t=0.2
0.5482449246458807
% es.tEY (V/m) @ t=0.2
0
% es.tEZ (V/m) @ t=0.2
-1.2522016452781575
% es.Ex (V/m) @ t=0.2
0.5482449246458805
% es.Ey (V/m) @ t=0.2
0.14494601165965193
% es.Ez (V/m) @ t=0.2
-1.2522016452781548
% es.tEx (V/m) @ t=0.2
0.5482449246458807
% es.tEy (V/m) @ t=0.2
0
% es.tEz (V/m) @ t=0.2
-1.2522016452781575
% V (V) @ t=0.2
0.006878298741064074
% es.normE (V/m) @ t=0.22
1.3883453789668403
% es.EX (V/m) @ t=0.22
0.5533095664518097
% es.EY (V/m) @ t=0.22
0.14628501075620948
% es.EZ (V/m) @ t=0.22
-1.26376938200207
% es.tEX (V/m) @ t=0.22
0.55330956645181
% es.tEY (V/m) @ t=0.22
0
% es.tEZ (V/m) @ t=0.22
-1.2637693820020726
% es.Ex (V/m) @ t=0.22
0.5533095664518097
% es.Ey (V/m) @ t=0.22
0.14628501075620948
% es.Ez (V/m) @ t=0.22
-1.26376938200207
% es.tEx (V/m) @ t=0.22
0.55330956645181
% es.tEy (V/m) @ t=0.22
0
% es.tEz (V/m) @ t=0.22
-1.2637693820020726
% V (V) @ t=0.22
0.006941839909723131
% es.normE (V/m) @ t=0.24
1.4010534046283905
% es.EX (V/m) @ t=0.24
0.5583742082577461
% es.EY (V/m) @ t=0.24
0.14762400985277546
% es.EZ (V/m) @ t=0.24
-1.2753371187259814
% es.tEX (V/m) @ t=0.24
0.5583742082577463
% es.tEY (V/m) @ t=0.24
0
% es.tEZ (V/m) @ t=0.24
-1.2753371187259823
% es.Ex (V/m) @ t=0.24
0.5583742082577461
% es.Ey (V/m) @ t=0.24
0.14762400985277546
% es.Ez (V/m) @ t=0.24
-1.2753371187259814
% es.tEx (V/m) @ t=0.24
0.5583742082577463
% es.tEy (V/m) @ t=0.24
0
% es.tEz (V/m) @ t=0.24
-1.2753371187259823
% V (V) @ t=0.24
0.007005381078382185
% es.normE (V/m) @ t=0.26
1.4137614302899295
% es.EX (V/m) @ t=0.26
0.563438850063668
% es.EY (V/m) @ t=0.26
0.14896300894934678
% es.EZ (V/m) @ t=0.26
-1.2869048554498859
% es.tEX (V/m) @ t=0.26
0.563438850063668
% es.tEY (V/m) @ t=0.26
0
% es.tEZ (V/m) @ t=0.26
-1.2869048554498885
% es.Ex (V/m) @ t=0.26
0.563438850063668
% es.Ey (V/m) @ t=0.26
0.14896300894934678
% es.Ez (V/m) @ t=0.26
-1.2869048554498859
% es.tEx (V/m) @ t=0.26
0.563438850063668
% es.tEy (V/m) @ t=0.26
0
% es.tEz (V/m) @ t=0.26
-1.2869048554498885
% V (V) @ t=0.26
0.007068922247041242
% es.normE (V/m) @ t=0.28
1.4268397217747388
% es.EX (V/m) @ t=0.28
0.5686510576702115
% es.EY (V/m) @ t=0.28
0.15034102281532702
% es.EZ (V/m) @ t=0.28
-1.2988096338088537
% es.tEX (V/m) @ t=0.28
0.5686510576702117
% es.tEY (V/m) @ t=0.28
0
% es.tEZ (V/m) @ t=0.28
-1.2988096338088582
% es.Ex (V/m) @ t=0.28
0.5686510576702115
% es.Ey (V/m) @ t=0.28
0.15034102281532702
% es.Ez (V/m) @ t=0.28
-1.2988096338088537
% es.tEx (V/m) @ t=0.28
0.5686510576702117
% es.tEy (V/m) @ t=0.28
0
% es.tEz (V/m) @ t=0.28
-1.2988096338088582
% V (V) @ t=0.28
0.007134314741819493
% es.normE (V/m) @ t=0.3
1.4410121776274747
% es.EX (V/m) @ t=0.3
0.5742993337195472
% es.EY (V/m) @ t=0.3
0.15183432836587762
% es.EZ (V/m) @ t=0.3
-1.3117103964699472
% es.tEX (V/m) @ t=0.3
0.5742993337195474
% es.tEY (V/m) @ t=0.3
0
% es.tEZ (V/m) @ t=0.3
-1.3117103964699535
% es.Ex (V/m) @ t=0.3
0.5742993337195472
% es.Ey (V/m) @ t=0.3
0.15183432836587762
% es.Ez (V/m) @ t=0.3
-1.3117103964699472
% es.tEx (V/m) @ t=0.3
0.5742993337195474
% es.tEy (V/m) @ t=0.3
0
% es.tEz (V/m) @ t=0.3
-1.3117103964699535
% V (V) @ t=0.3
0.0072051780495807
% es.normE (V/m) @ t=0.32
1.4551846334802243
% es.EX (V/m) @ t=0.32
0.5799476097689074
% es.EY (V/m) @ t=0.32
0.15332763391643756
% es.EZ (V/m) @ t=0.32
-1.3246111591310443
% es.tEX (V/m) @ t=0.32
0.579947609768904
% es.tEY (V/m) @ t=0.32
0
% es.tEZ (V/m) @ t=0.32
-1.3246111591310505
% es.Ex (V/m) @ t=0.32
0.5799476097689074
% es.Ey (V/m) @ t=0.32
0.15332763391643756
% es.Ez (V/m) @ t=0.32
-1.3246111591310443
% es.tEx (V/m) @ t=0.32
0.579947609768904
% es.tEy (V/m) @ t=0.32
0
% es.tEz (V/m) @ t=0.32
-1.3246111591310505
% V (V) @ t=0.32
0.007276041357341908
% es.normE (V/m) @ t=0.34
1.469357089332959
% es.EX (V/m) @ t=0.34
0.5855958858182457
% es.EY (V/m) @ t=0.34
0.15482093946700148
% es.EZ (V/m) @ t=0.34
-1.3375119217921343
% es.tEX (V/m) @ t=0.34
0.585595885818246
% es.tEY (V/m) @ t=0.34
0
% es.tEZ (V/m) @ t=0.34
-1.3375119217921405
% es.Ex (V/m) @ t=0.34
0.5855958858182457
% es.Ey (V/m) @ t=0.34
0.15482093946700148
% es.Ez (V/m) @ t=0.34
-1.3375119217921343
% es.tEx (V/m) @ t=0.34
0.585595885818246
% es.tEy (V/m) @ t=0.34
0
% es.tEz (V/m) @ t=0.34
-1.3375119217921405
% V (V) @ t=0.34
0.0073469046651031145
% es.normE (V/m) @ t=0.36
1.4835295451857022
% es.EX (V/m) @ t=0.36
0.5912441618675921
% es.EY (V/m) @ t=0.36
0.15631424501753965
% es.EZ (V/m) @ t=0.36
-1.3504126844532331
% es.tEX (V/m) @ t=0.36
0.5912441618675888
% es.tEY (V/m) @ t=0.36
0
% es.tEZ (V/m) @ t=0.36
-1.3504126844532358
% es.Ex (V/m) @ t=0.36
0.5912441618675921
% es.Ey (V/m) @ t=0.36
0.15631424501753965
% es.Ez (V/m) @ t=0.36
-1.3504126844532331
% es.tEx (V/m) @ t=0.36
0.5912441618675888
% es.tEy (V/m) @ t=0.36
0
% es.tEz (V/m) @ t=0.36
-1.3504126844532358
% V (V) @ t=0.36
0.0074177679728643225
% es.normE (V/m) @ t=0.38
1.497702001038442
% es.EX (V/m) @ t=0.38
0.5968924379169345
% es.EY (V/m) @ t=0.38
0.15780755056810625
% es.EZ (V/m) @ t=0.38
-1.3633134471143267
% es.tEX (V/m) @ t=0.38
0.5968924379169311
% es.tEY (V/m) @ t=0.38
0
% es.tEZ (V/m) @ t=0.38
-1.3633134471143276
% es.Ex (V/m) @ t=0.38
0.5968924379169345
% es.Ey (V/m) @ t=0.38
0.15780755056810625
% es.Ez (V/m) @ t=0.38
-1.3633134471143267
% es.tEx (V/m) @ t=0.38
0.5968924379169311
% es.tEy (V/m) @ t=0.38
0
% es.tEz (V/m) @ t=0.38
-1.3633134471143276
% V (V) @ t=0.38
0.0074886312806255306
% es.normE (V/m) @ t=0.4
1.5118744568911693
% es.EX (V/m) @ t=0.4
0.6025407139662631
% es.EY (V/m) @ t=0.4
0.15930085611865907
% es.EZ (V/m) @ t=0.4
-1.376214209775413
% es.tEX (V/m) @ t=0.4
0.6025407139662597
% es.tEY (V/m) @ t=0.4
0
% es.tEZ (V/m) @ t=0.4
-1.3762142097754175
% es.Ex (V/m) @ t=0.4
0.6025407139662631
% es.Ey (V/m) @ t=0.4
0.15930085611865907
% es.Ez (V/m) @ t=0.4
-1.376214209775413
% es.tEx (V/m) @ t=0.4
0.6025407139662597
% es.tEy (V/m) @ t=0.4
0
% es.tEz (V/m) @ t=0.4
-1.3762142097754175
% V (V) @ t=0.4
0.007559494588386737
% es.normE (V/m) @ t=0.42
1.5260469127439193
% es.EX (V/m) @ t=0.42
0.6081889900156126
% es.EY (V/m) @ t=0.42
0.160794161669219
% es.EZ (V/m) @ t=0.42
-1.3891149724365155
% es.tEX (V/m) @ t=0.42
0.6081889900156092
% es.tEY (V/m) @ t=0.42
0
% es.tEZ (V/m) @ t=0.42
-1.38911497243652
% es.Ex (V/m) @ t=0.42
0.6081889900156126
% es.Ey (V/m) @ t=0.42
0.160794161669219
% es.Ez (V/m) @ t=0.42
-1.3891149724365155
% es.tEx (V/m) @ t=0.42
0.6081889900156092
% es.tEy (V/m) @ t=0.42
0
% es.tEz (V/m) @ t=0.42
-1.38911497243652
% V (V) @ t=0.42
0.007630357896147945
% es.normE (V/m) @ t=0.44
1.5402193685966605
% es.EX (V/m) @ t=0.44
0.6138372660649545
% es.EY (V/m) @ t=0.44
0.16228746721978426
% es.EZ (V/m) @ t=0.44
-1.4020157350976108
% es.tEX (V/m) @ t=0.44
0.6138372660649511
% es.tEY (V/m) @ t=0.44
0
% es.tEZ (V/m) @ t=0.44
-1.4020157350976135
% es.Ex (V/m) @ t=0.44
0.6138372660649545
% es.Ey (V/m) @ t=0.44
0.16228746721978426
% es.Ez (V/m) @ t=0.44
-1.4020157350976108
% es.tEx (V/m) @ t=0.44
0.6138372660649511
% es.tEy (V/m) @ t=0.44
0
% es.tEz (V/m) @ t=0.44
-1.4020157350976135
% V (V) @ t=0.44
0.007701221203909151
% es.normE (V/m) @ t=0.46
1.5543918244493984
% es.EX (V/m) @ t=0.46
0.619485542114308
% es.EY (V/m) @ t=0.46
0.1637807727703331
% es.EZ (V/m) @ t=0.46
-1.414916497758699
% es.tEX (V/m) @ t=0.46
0.6194855421143082
% es.tEY (V/m) @ t=0.46
0
% es.tEZ (V/m) @ t=0.46
-1.4149164977587017
% es.Ex (V/m) @ t=0.46
0.619485542114308
% es.Ey (V/m) @ t=0.46
0.1637807727703331
% es.Ez (V/m) @ t=0.46
-1.414916497758699
% es.tEx (V/m) @ t=0.46
0.6194855421143082
% es.tEy (V/m) @ t=0.46
0
% es.tEz (V/m) @ t=0.46
-1.4149164977587017
% V (V) @ t=0.46
0.007772084511670359
% es.normE (V/m) @ t=0.48
1.5685642803021327
% es.EX (V/m) @ t=0.48
0.6251338181636366
% es.EY (V/m) @ t=0.48
0.16527407832089613
% es.EZ (V/m) @ t=0.48
-1.4278172604197925
% es.tEX (V/m) @ t=0.48
0.6251338181636368
% es.tEY (V/m) @ t=0.48
0
% es.tEZ (V/m) @ t=0.48
-1.427817260419797
% es.Ex (V/m) @ t=0.48
0.6251338181636366
% es.Ey (V/m) @ t=0.48
0.16527407832089613
% es.Ez (V/m) @ t=0.48
-1.4278172604197925
% es.tEx (V/m) @ t=0.48
0.6251338181636368
% es.tEy (V/m) @ t=0.48
0
% es.tEz (V/m) @ t=0.48
-1.427817260419797
% V (V) @ t=0.48
0.007842947819431567
% es.normE (V/m) @ t=0.5
1.582736736154878
% es.EX (V/m) @ t=0.5
0.6307820942129931
% es.EY (V/m) @ t=0.5
0.16676738387144407
% es.EZ (V/m) @ t=0.5
-1.4407180230808878
% es.tEX (V/m) @ t=0.5
0.6307820942129934
% es.tEY (V/m) @ t=0.5
0
% es.tEZ (V/m) @ t=0.5
-1.440718023080894
% es.Ex (V/m) @ t=0.5
0.6307820942129931
% es.Ey (V/m) @ t=0.5
0.16676738387144407
% es.Ez (V/m) @ t=0.5
-1.4407180230808878
% es.tEx (V/m) @ t=0.5
0.6307820942129934
% es.tEy (V/m) @ t=0.5
0
% es.tEz (V/m) @ t=0.5
-1.440718023080894
% V (V) @ t=0.5
0.007913811127192775
% es.normE (V/m) @ t=0.52
1.5969091920076164
% es.EX (V/m) @ t=0.52
0.636430370262328
% es.EY (V/m) @ t=0.52
0.16826068942200756
% es.EZ (V/m) @ t=0.52
-1.453618785741983
% es.tEX (V/m) @ t=0.52
0.6364303702623282
% es.tEY (V/m) @ t=0.52
0
% es.tEZ (V/m) @ t=0.52
-1.4536187857419876
% es.Ex (V/m) @ t=0.52
0.636430370262328
% es.Ey (V/m) @ t=0.52
0.16826068942200756
% es.Ez (V/m) @ t=0.52
-1.453618785741983
% es.tEx (V/m) @ t=0.52
0.6364303702623282
% es.tEy (V/m) @ t=0.52
0
% es.tEz (V/m) @ t=0.52
-1.4536187857419876
% V (V) @ t=0.52
0.00798467443495398
% es.normE (V/m) @ t=0.54
1.611081647860353
% es.EX (V/m) @ t=0.54
0.6420786463116641
% es.EY (V/m) @ t=0.54
0.1697539949725626
% es.EZ (V/m) @ t=0.54
-1.4665195484030766
% es.tEX (V/m) @ t=0.54
0.6420786463116643
% es.tEY (V/m) @ t=0.54
0
% es.tEZ (V/m) @ t=0.54
-1.4665195484030775
% es.Ex (V/m) @ t=0.54
0.6420786463116641
% es.Ey (V/m) @ t=0.54
0.1697539949725626
% es.Ez (V/m) @ t=0.54
-1.4665195484030766
% es.tEx (V/m) @ t=0.54
0.6420786463116643
% es.tEy (V/m) @ t=0.54
0
% es.tEz (V/m) @ t=0.54
-1.4665195484030775
% V (V) @ t=0.54
0.008055537742715188
% es.normE (V/m) @ t=0.56
1.6261114676106496
% es.EX (V/m) @ t=0.56
0.6480686144262402
% es.EY (V/m) @ t=0.56
0.17133763612067376
% es.EZ (V/m) @ t=0.56
-1.480200744302116
% es.tEX (V/m) @ t=0.56
0.6480686144262404
% es.tEY (V/m) @ t=0.56
0
% es.tEZ (V/m) @ t=0.56
-1.4802007443021203
% es.Ex (V/m) @ t=0.56
0.6480686144262402
% es.Ey (V/m) @ t=0.56
0.17133763612067376
% es.Ez (V/m) @ t=0.56
-1.480200744302116
% es.tEx (V/m) @ t=0.56
0.6480686144262404
% es.tEy (V/m) @ t=0.56
0
% es.tEz (V/m) @ t=0.56
-1.4802007443021203
% V (V) @ t=0.56
0.008130687990854374
% es.normE (V/m) @ t=0.58
1.6419463177971063
% es.EX (V/m) @ t=0.58
0.6543794177346907
% es.EY (V/m) @ t=0.58
0.17300609878472573
% es.EZ (V/m) @ t=0.58
-1.4946147358224007
% es.tEX (V/m) @ t=0.58
0.6543794177346909
% es.tEY (V/m) @ t=0.58
0
% es.tEZ (V/m) @ t=0.58
-1.494614735822406
% es.Ex (V/m) @ t=0.58
0.6543794177346907
% es.Ey (V/m) @ t=0.58
0.17300609878472573
% es.Ez (V/m) @ t=0.58
-1.4946147358224007
% es.tEx (V/m) @ t=0.58
0.6543794177346909
% es.tEy (V/m) @ t=0.58
0
% es.tEz (V/m) @ t=0.58
-1.494614735822406
% V (V) @ t=0.58
0.008209863504685442
% es.normE (V/m) @ t=0.6
1.6577811679835666
% es.EX (V/m) @ t=0.6
0.6606902210431522
% es.EY (V/m) @ t=0.6
0.17467456144877858
% es.EZ (V/m) @ t=0.6
-1.5090287273426837
% es.tEX (V/m) @ t=0.6
0.6606902210431489
% es.tEY (V/m) @ t=0.6
0
% es.tEZ (V/m) @ t=0.6
-1.5090287273426881
% es.Ex (V/m) @ t=0.6
0.6606902210431522
% es.Ey (V/m) @ t=0.6
0.17467456144877858
% es.Ez (V/m) @ t=0.6
-1.5090287273426837
% es.tEx (V/m) @ t=0.6
0.6606902210431489
% es.tEy (V/m) @ t=0.6
0
% es.tEz (V/m) @ t=0.6
-1.5090287273426881
% V (V) @ t=0.6
0.008289039018516511
% es.normE (V/m) @ t=0.62
1.6736160181700228
% es.EX (V/m) @ t=0.62
0.6670010243515996
% es.EY (V/m) @ t=0.62
0.17634302411282832
% es.EZ (V/m) @ t=0.62
-1.5234427188629693
% es.tEX (V/m) @ t=0.62
0.6670010243515998
% es.tEY (V/m) @ t=0.62
0
% es.tEZ (V/m) @ t=0.62
-1.5234427188629738
% es.Ex (V/m) @ t=0.62
0.6670010243515996
% es.Ey (V/m) @ t=0.62
0.17634302411282832
% es.Ez (V/m) @ t=0.62
-1.5234427188629693
% es.tEx (V/m) @ t=0.62
0.6670010243515998
% es.tEy (V/m) @ t=0.62
0
% es.tEz (V/m) @ t=0.62
-1.5234427188629738
% V (V) @ t=0.62
0.00836821453234758
% es.normE (V/m) @ t=0.64
1.6894508683564804
% es.EX (V/m) @ t=0.64
0.6733118276600571
% es.EY (V/m) @ t=0.64
0.17801148677689183
% es.EZ (V/m) @ t=0.64
-1.5378567103832497
% es.tEX (V/m) @ t=0.64
0.6733118276600574
% es.tEY (V/m) @ t=0.64
0
% es.tEZ (V/m) @ t=0.64
-1.5378567103832523
% es.Ex (V/m) @ t=0.64
0.6733118276600571
% es.Ey (V/m) @ t=0.64
0.17801148677689183
% es.Ez (V/m) @ t=0.64
-1.5378567103832497
% es.tEx (V/m) @ t=0.64
0.6733118276600574
% es.tEy (V/m) @ t=0.64
0
% es.tEz (V/m) @ t=0.64
-1.5378567103832523
% V (V) @ t=0.64
0.008447390046178647
% es.normE (V/m) @ t=0.66
1.7052857185429324
% es.EX (V/m) @ t=0.66
0.6796226309685081
% es.EY (V/m) @ t=0.66
0.1796799494409398
% es.EZ (V/m) @ t=0.66
-1.5522707019035291
% es.tEX (V/m) @ t=0.66
0.6796226309685083
% es.tEY (V/m) @ t=0.66
0
% es.tEZ (V/m) @ t=0.66
-1.5522707019035327
% es.Ex (V/m) @ t=0.66
0.6796226309685081
% es.Ey (V/m) @ t=0.66
0.1796799494409398
% es.Ez (V/m) @ t=0.66
-1.5522707019035291
% es.tEx (V/m) @ t=0.66
0.6796226309685083
% es.tEy (V/m) @ t=0.66
0
% es.tEz (V/m) @ t=0.66
-1.5522707019035327
% V (V) @ t=0.66
0.008526565560009714
% es.normE (V/m) @ t=0.68
1.7211205687293853
% es.EX (V/m) @ t=0.68
0.6859334342769448
% es.EY (V/m) @ t=0.68
0.18134841210500152
% es.EZ (V/m) @ t=0.68
-1.566684693423814
% es.tEX (V/m) @ t=0.68
0.685933434276945
% es.tEY (V/m) @ t=0.68
0
% es.tEZ (V/m) @ t=0.68
-1.5666846934238183
% es.Ex (V/m) @ t=0.68
0.6859334342769448
% es.Ey (V/m) @ t=0.68
0.18134841210500152
% es.Ez (V/m) @ t=0.68
-1.566684693423814
% es.tEx (V/m) @ t=0.68
0.685933434276945
% es.tEy (V/m) @ t=0.68
0
% es.tEz (V/m) @ t=0.68
-1.5666846934238183
% V (V) @ t=0.68
0.008605741073840784
% es.normE (V/m) @ t=0.7
1.7369554189158425
% es.EX (V/m) @ t=0.7
0.6922442375854057
% es.EY (V/m) @ t=0.7
0.18301687476903927
% es.EZ (V/m) @ t=0.7
-1.581098684944096
% es.tEX (V/m) @ t=0.7
0.6922442375854025
% es.tEY (V/m) @ t=0.7
0
% es.tEZ (V/m) @ t=0.7
-1.5810986849440987
% es.Ex (V/m) @ t=0.7
0.6922442375854057
% es.Ey (V/m) @ t=0.7
0.18301687476903927
% es.Ez (V/m) @ t=0.7
-1.581098684944096
% es.tEx (V/m) @ t=0.7
0.6922442375854025
% es.tEy (V/m) @ t=0.7
0
% es.tEz (V/m) @ t=0.7
-1.5810986849440987
% V (V) @ t=0.7
0.008684916587671851
% es.normE (V/m) @ t=0.72
1.7527902691023
% es.EX (V/m) @ t=0.72
0.6985550408938634
% es.EY (V/m) @ t=0.72
0.18468533743310322
% es.EZ (V/m) @ t=0.72
-1.5955126764643763
% es.tEX (V/m) @ t=0.72
0.6985550408938601
% es.tEY (V/m) @ t=0.72
0
% es.tEZ (V/m) @ t=0.72
-1.5955126764643808
% es.Ex (V/m) @ t=0.72
0.6985550408938634
% es.Ey (V/m) @ t=0.72
0.18468533743310322
% es.Ez (V/m) @ t=0.72
-1.5955126764643763
% es.tEx (V/m) @ t=0.72
0.6985550408938601
% es.tEy (V/m) @ t=0.72
0
% es.tEz (V/m) @ t=0.72
-1.5955126764643808
% V (V) @ t=0.72
0.008764092101502918
% es.normE (V/m) @ t=0.74
1.7686251192887572
% es.EX (V/m) @ t=0.74
0.7048658442023179
% es.EY (V/m) @ t=0.74
0.18635380009714897
% es.EZ (V/m) @ t=0.74
-1.6099266679846602
% es.tEX (V/m) @ t=0.74
0.7048658442023181
% es.tEY (V/m) @ t=0.74
0
% es.tEZ (V/m) @ t=0.74
-1.6099266679846664
% es.Ex (V/m) @ t=0.74
0.7048658442023179
% es.Ey (V/m) @ t=0.74
0.18635380009714897
% es.Ez (V/m) @ t=0.74
-1.6099266679846602
% es.tEx (V/m) @ t=0.74
0.7048658442023181
% es.tEy (V/m) @ t=0.74
0
% es.tEz (V/m) @ t=0.74
-1.6099266679846664
% V (V) @ t=0.74
0.008843267615333989
% es.normE (V/m) @ t=0.76
1.7844599694752135
% es.EX (V/m) @ t=0.76
0.7111766475107688
% es.EY (V/m) @ t=0.76
0.18802226276120582
% es.EZ (V/m) @ t=0.76
-1.6243406595049432
% es.tEX (V/m) @ t=0.76
0.711176647510769
% es.tEY (V/m) @ t=0.76
0
% es.tEZ (V/m) @ t=0.76
-1.6243406595049539
% es.Ex (V/m) @ t=0.76
0.7111766475107688
% es.Ey (V/m) @ t=0.76
0.18802226276120582
% es.Ez (V/m) @ t=0.76
-1.6243406595049432
% es.tEx (V/m) @ t=0.76
0.711176647510769
% es.tEy (V/m) @ t=0.76
0
% es.tEz (V/m) @ t=0.76
-1.6243406595049539
% V (V) @ t=0.76
0.00892244312916506
% es.normE (V/m) @ t=0.78
1.8002948196616684
% es.EX (V/m) @ t=0.78
0.7174874508192197
% es.EY (V/m) @ t=0.78
0.18969072542524978
% es.EZ (V/m) @ t=0.78
-1.6387546510252262
% es.tEX (V/m) @ t=0.78
0.7174874508192199
% es.tEY (V/m) @ t=0.78
0
% es.tEZ (V/m) @ t=0.78
-1.6387546510252324
% es.Ex (V/m) @ t=0.78
0.7174874508192197
% es.Ey (V/m) @ t=0.78
0.18969072542524978
% es.Ez (V/m) @ t=0.78
-1.6387546510252262
% es.tEx (V/m) @ t=0.78
0.7174874508192199
% es.tEy (V/m) @ t=0.78
0
% es.tEz (V/m) @ t=0.78
-1.6387546510252324
% V (V) @ t=0.78
0.009001618642996125
% es.normE (V/m) @ t=0.8
1.816129669848126
% es.EX (V/m) @ t=0.8
0.7237982541276669
% es.EY (V/m) @ t=0.8
0.19135918808930663
% es.EZ (V/m) @ t=0.8
-1.6531686425455119
% es.tEX (V/m) @ t=0.8
0.7237982541276637
% es.tEY (V/m) @ t=0.8
0
% es.tEZ (V/m) @ t=0.8
-1.653168642545511
% es.Ex (V/m) @ t=0.8
0.7237982541276669
% es.Ey (V/m) @ t=0.8
0.19135918808930663
% es.Ez (V/m) @ t=0.8
-1.6531686425455119
% es.tEx (V/m) @ t=0.8
0.7237982541276637
% es.tEy (V/m) @ t=0.8
0
% es.tEz (V/m) @ t=0.8
-1.653168642545511
% V (V) @ t=0.8
0.009080794156827195
% es.normE (V/m) @ t=0.82
1.8319645200345804
% es.EX (V/m) @ t=0.82
0.7301090574361278
% es.EY (V/m) @ t=0.82
0.1930276507533657
% es.EZ (V/m) @ t=0.82
-1.6675826340657887
% es.tEX (V/m) @ t=0.82
0.730109057436128
% es.tEY (V/m) @ t=0.82
0
% es.tEZ (V/m) @ t=0.82
-1.6675826340657949
% es.Ex (V/m) @ t=0.82
0.7301090574361278
% es.Ey (V/m) @ t=0.82
0.1930276507533657
% es.Ez (V/m) @ t=0.82
-1.6675826340657887
% es.tEx (V/m) @ t=0.82
0.730109057436128
% es.tEy (V/m) @ t=0.82
0
% es.tEz (V/m) @ t=0.82
-1.6675826340657949
% V (V) @ t=0.82
0.009159969670658262
% es.normE (V/m) @ t=0.84
1.8492713477056273
% es.EX (V/m) @ t=0.84
0.7370065007216171
% es.EY (V/m) @ t=0.84
0.19485120993903626
% es.EZ (V/m) @ t=0.84
-1.6833365229166555
% es.tEX (V/m) @ t=0.84
0.7370065007216176
% es.tEY (V/m) @ t=0.84
0
% es.tEZ (V/m) @ t=0.84
-1.6833365229166546
% es.Ex (V/m) @ t=0.84
0.7370065007216171
% es.Ey (V/m) @ t=0.84
0.19485120993903626
% es.Ez (V/m) @ t=0.84
-1.6833365229166555
% es.tEx (V/m) @ t=0.84
0.7370065007216176
% es.tEy (V/m) @ t=0.84
0
% es.tEz (V/m) @ t=0.84
-1.6833365229166546
% V (V) @ t=0.84
0.009246505208108553
% es.normE (V/m) @ t=0.86
1.8669966416252781
% es.EX (V/m) @ t=0.86
0.7440707189972235
% es.EY (V/m) @ t=0.86
0.19671886127982674
% es.EZ (V/m) @ t=0.86
-1.6994713291492909
% es.tEX (V/m) @ t=0.86
0.7440707189972202
% es.tEY (V/m) @ t=0.86
0
% es.tEZ (V/m) @ t=0.86
-1.6994713291492936
% es.Ex (V/m) @ t=0.86
0.7440707189972235
% es.Ey (V/m) @ t=0.86
0.19671886127982674
% es.Ez (V/m) @ t=0.86
-1.6994713291492909
% es.tEx (V/m) @ t=0.86
0.7440707189972202
% es.tEy (V/m) @ t=0.86
0
% es.tEz (V/m) @ t=0.86
-1.6994713291492936
% V (V) @ t=0.86
0.00933513311552096
% es.normE (V/m) @ t=0.88
1.8847219355449414
% es.EX (V/m) @ t=0.88
0.7511349372728477
% es.EY (V/m) @ t=0.88
0.19858651262062477
% es.EZ (V/m) @ t=0.88
-1.7156061353819325
% es.tEX (V/m) @ t=0.88
0.7511349372728446
% es.tEY (V/m) @ t=0.88
0
% es.tEZ (V/m) @ t=0.88
-1.7156061353819378
% es.Ex (V/m) @ t=0.88
0.7511349372728477
% es.Ey (V/m) @ t=0.88
0.19858651262062477
% es.Ez (V/m) @ t=0.88
-1.7156061353819325
% es.tEx (V/m) @ t=0.88
0.7511349372728446
% es.tEy (V/m) @ t=0.88
0
% es.tEz (V/m) @ t=0.88
-1.7156061353819378
% V (V) @ t=0.88
0.009423761022933368
% es.normE (V/m) @ t=0.9
1.9024472294645869
% es.EX (V/m) @ t=0.9
0.7581991555484502
% es.EY (V/m) @ t=0.9
0.20045416396140414
% es.EZ (V/m) @ t=0.9
-1.7317409416145653
% es.tEX (V/m) @ t=0.9
0.7581991555484469
% es.tEY (V/m) @ t=0.9
0
% es.tEZ (V/m) @ t=0.9
-1.7317409416145662
% es.Ex (V/m) @ t=0.9
0.7581991555484502
% es.Ey (V/m) @ t=0.9
0.20045416396140414
% es.Ez (V/m) @ t=0.9
-1.7317409416145653
% es.tEx (V/m) @ t=0.9
0.7581991555484469
% es.tEy (V/m) @ t=0.9
0
% es.tEz (V/m) @ t=0.9
-1.7317409416145662
% V (V) @ t=0.9
0.009512388930345776
% es.normE (V/m) @ t=0.92
1.9201725233842448
% es.EX (V/m) @ t=0.92
0.7652633738240773
% es.EY (V/m) @ t=0.92
0.2023218153022066
% es.EZ (V/m) @ t=0.92
-1.747875747847199
% es.tEX (V/m) @ t=0.92
0.7652633738240775
% es.tEY (V/m) @ t=0.92
0
% es.tEZ (V/m) @ t=0.92
-1.7478757478471962
% es.Ex (V/m) @ t=0.92
0.7652633738240773
% es.Ey (V/m) @ t=0.92
0.2023218153022066
% es.Ez (V/m) @ t=0.92
-1.747875747847199
% es.tEx (V/m) @ t=0.92
0.7652633738240775
% es.tEy (V/m) @ t=0.92
0
% es.tEz (V/m) @ t=0.92
-1.7478757478471962
% V (V) @ t=0.92
0.009601016837758184
% es.normE (V/m) @ t=0.94
1.937897817303891
% es.EX (V/m) @ t=0.94
0.7723275920996868
% es.EY (V/m) @ t=0.94
0.2041894666429931
% es.EZ (V/m) @ t=0.94
-1.764010554079829
% es.tEX (V/m) @ t=0.94
0.7723275920996873
% es.tEY (V/m) @ t=0.94
0
% es.tEZ (V/m) @ t=0.94
-1.7640105540798334
% es.Ex (V/m) @ t=0.94
0.7723275920996868
% es.Ey (V/m) @ t=0.94
0.2041894666429931
% es.Ez (V/m) @ t=0.94
-1.764010554079829
% es.tEx (V/m) @ t=0.94
0.7723275920996873
% es.tEy (V/m) @ t=0.94
0
% es.tEz (V/m) @ t=0.94
-1.7640105540798334
% V (V) @ t=0.94
0.009689644745170591
% es.normE (V/m) @ t=0.96
1.9556231112235554
% es.EX (V/m) @ t=0.96
0.7793918103753146
% es.EY (V/m) @ t=0.96
0.20605711798377335
% es.EZ (V/m) @ t=0.96
-1.7801453603124715
% es.tEX (V/m) @ t=0.96
0.7793918103753112
% es.tEY (V/m) @ t=0.96
0
% es.tEZ (V/m) @ t=0.96
-1.780145360312476
% es.Ex (V/m) @ t=0.96
0.7793918103753146
% es.Ey (V/m) @ t=0.96
0.20605711798377335
% es.Ez (V/m) @ t=0.96
-1.7801453603124715
% es.tEx (V/m) @ t=0.96
0.7793918103753112
% es.tEy (V/m) @ t=0.96
0
% es.tEz (V/m) @ t=0.96
-1.780145360312476
% V (V) @ t=0.96
0.009778272652582997
% es.normE (V/m) @ t=0.98
1.9733484051431969
% es.EX (V/m) @ t=0.98
0.7864560286509135
% es.EY (V/m) @ t=0.98
0.20792476932455806
% es.EZ (V/m) @ t=0.98
-1.7962801665451016
% es.tEX (V/m) @ t=0.98
0.7864560286509139
% es.tEY (V/m) @ t=0.98
0
% es.tEZ (V/m) @ t=0.98
-1.796280166545106
% es.Ex (V/m) @ t=0.98
0.7864560286509135
% es.Ey (V/m) @ t=0.98
0.20792476932455806
% es.Ez (V/m) @ t=0.98
-1.7962801665451016
% es.tEx (V/m) @ t=0.98
0.7864560286509139
% es.tEy (V/m) @ t=0.98
0
% es.tEz (V/m) @ t=0.98
-1.796280166545106
% V (V) @ t=0.98
0.009866900559995406
% es.normE (V/m) @ t=1
1.9910736990628615
% es.EX (V/m) @ t=1
0.7935202469265412
% es.EY (V/m) @ t=1
0.2097924206653614
% es.EZ (V/m) @ t=1
-1.8124149727777423
% es.tEX (V/m) @ t=1
0.7935202469265379
% es.tEY (V/m) @ t=1
0
% es.tEZ (V/m) @ t=1
-1.812414972777752
% es.Ex (V/m) @ t=1
0.7935202469265412
% es.Ey (V/m) @ t=1
0.2097924206653614
% es.Ez (V/m) @ t=1
-1.8124149727777423
% es.tEx (V/m) @ t=1
0.7935202469265379
% es.tEy (V/m) @ t=1
0
% es.tEz (V/m) @ t=1
-1.812414972777752
% V (V) @ t=1
0.009955528467407812
% es.normE (V/m) @ t=1.02
2.008798992982508
% es.EX (V/m) @ t=1.02
0.8005844652021543
% es.EY (V/m) @ t=1.02
0.21166007200614168
% es.EZ (V/m) @ t=1.02
-1.8285497790103715
% es.tEX (V/m) @ t=1.02
0.8005844652021548
% es.tEY (V/m) @ t=1.02
0
% es.tEZ (V/m) @ t=1.02
-1.828549779010375
% es.Ex (V/m) @ t=1.02
0.8005844652021543
% es.Ey (V/m) @ t=1.02
0.21166007200614168
% es.Ez (V/m) @ t=1.02
-1.8285497790103715
% es.tEx (V/m) @ t=1.02
0.8005844652021548
% es.tEy (V/m) @ t=1.02
0
% es.tEz (V/m) @ t=1.02
-1.828549779010375
% V (V) @ t=1.02
0.01004415637482022
% es.normE (V/m) @ t=1.04
2.026524286902161
% es.EX (V/m) @ t=1.04
0.8076486834777643
% es.EY (V/m) @ t=1.04
0.21352772334694325
% es.EZ (V/m) @ t=1.04
-1.844684585243007
% es.tEX (V/m) @ t=1.04
0.8076486834777645