% Model:              1 neuron.mph
% Version:            COMSOL 6.1.0.252
% Date:               Mar 18 2023, 11:38
% Dimension:          0
% Nodes:              14017
% Expressions:        14017
% Description:        Electric field norm, Electric field, X component, Electric field, Y component, Electric field, Z component, Tangential electric field, X component, Tangential electric field, Y component, Tangential electric field, Z component, Electric field, x component, Electric field, y component, Electric field, z component, Tangential electric field, x component, Tangential electric field, y component, Tangential electric field, z component, Electric potential
% Length unit:        mm
% x
1.66
% y
12.2
% z
1.33
% es.normE (V/m) @ t=0
7.545994106251374
% es.EX (V/m) @ t=0
-4.1928596549186565
% es.EY (V/m) @ t=0
-0.4525831545847905
% es.EZ (V/m) @ t=0
5.614210441013779
% es.tEX (V/m) @ t=0
-4.192859654918671
% es.tEY (V/m) @ t=0
0
% es.tEZ (V/m) @ t=0
5.61421044101377
% es.Ex (V/m) @ t=0
-4.1928596549186565
% es.Ey (V/m) @ t=0
-0.4525831545847905
% es.Ez (V/m) @ t=0
5.614210441013779
% es.tEx (V/m) @ t=0
-4.192859654918671
% es.tEy (V/m) @ t=0
0
% es.tEz (V/m) @ t=0
5.61421044101377
% V (V) @ t=0
0.006197262393860763
% es.normE (V/m) @ t=0.02
6.517547415998312
% es.EX (V/m) @ t=0.02
-3.621413062976261
% es.EY (V/m) @ t=0.02
-0.39090040499582424
% es.EZ (V/m) @ t=0.02
4.849047353281869
% es.tEX (V/m) @ t=0.02
-3.6214130629762638
% es.tEY (V/m) @ t=0.02
0
% es.tEZ (V/m) @ t=0.02
4.8490473532818585
% es.Ex (V/m) @ t=0.02
-3.621413062976261
% es.Ey (V/m) @ t=0.02
-0.39090040499582424
% es.Ez (V/m) @ t=0.02
4.849047353281869
% es.tEx (V/m) @ t=0.02
-3.6214130629762638
% es.tEy (V/m) @ t=0.02
0
% es.tEz (V/m) @ t=0.02
4.8490473532818585
% V (V) @ t=0.02
0.005352634907927353
% es.normE (V/m) @ t=0.04
6.5774862089433555
% es.EX (V/m) @ t=0.04
-3.654717479461601
% es.EY (V/m) @ t=0.04
-0.39449533254025626
% es.EZ (V/m) @ t=0.04
4.89364174279191
% es.tEX (V/m) @ t=0.04
-3.654717479461607
% es.tEY (V/m) @ t=0.04
0
% es.tEZ (V/m) @ t=0.04
4.893641742791905
% es.Ex (V/m) @ t=0.04
-3.654717479461601
% es.Ey (V/m) @ t=0.04
-0.39449533254025626
% es.Ez (V/m) @ t=0.04
4.89364174279191
% es.tEx (V/m) @ t=0.04
-3.654717479461607
% es.tEy (V/m) @ t=0.04
0
% es.tEz (V/m) @ t=0.04
4.893641742791905
% V (V) @ t=0.04
0.005401860556546015
% es.normE (V/m) @ t=0.06
6.637987591445915
% es.EX (V/m) @ t=0.06
-3.688334486504073
% es.EY (V/m) @ t=0.06
-0.3981240083213822
% es.EZ (V/m) @ t=0.06
4.938654699665715
% es.tEX (V/m) @ t=0.06
-3.688334486504072
% es.tEY (V/m) @ t=0.06
0
% es.tEZ (V/m) @ t=0.06
4.938654699665708
% es.Ex (V/m) @ t=0.06
-3.688334486504073
% es.Ey (V/m) @ t=0.06
-0.3981240083213822
% es.Ez (V/m) @ t=0.06
4.938654699665715
% es.tEx (V/m) @ t=0.06
-3.688334486504072
% es.tEy (V/m) @ t=0.06
0
% es.tEz (V/m) @ t=0.06
4.938654699665708
% V (V) @ t=0.06
0.005451548251927267
% es.normE (V/m) @ t=0.08
6.699359660588776
% es.EX (V/m) @ t=0.08
-3.722435288667058
% es.EY (V/m) @ t=0.08
-0.40180489940211017
% es.EZ (V/m) @ t=0.08
4.9843154450462075
% es.tEX (V/m) @ t=0.08
-3.7224352886670653
% es.tEY (V/m) @ t=0.08
0
% es.tEZ (V/m) @ t=0.08
4.984315445046196
% es.Ex (V/m) @ t=0.08
-3.722435288667058
% es.Ey (V/m) @ t=0.08
-0.40180489940211017
% es.Ez (V/m) @ t=0.08
4.9843154450462075
% es.tEx (V/m) @ t=0.08
-3.7224352886670653
% es.tEy (V/m) @ t=0.08
0
% es.tEz (V/m) @ t=0.08
4.984315445046196
% V (V) @ t=0.08
0.005501951001354659
% es.normE (V/m) @ t=0.1
6.761445382711626
% es.EX (V/m) @ t=0.1
-3.7569326305418924
% es.EY (V/m) @ t=0.1
-0.4055285884338722
% es.EZ (V/m) @ t=0.1
5.030507146314596
% es.tEX (V/m) @ t=0.1
-3.756932630541902
% es.tEY (V/m) @ t=0.1
0
% es.tEZ (V/m) @ t=0.1
5.030507146314591
% es.Ex (V/m) @ t=0.1
-3.7569326305418924
% es.Ey (V/m) @ t=0.1
-0.4055285884338722
% es.Ez (V/m) @ t=0.1
5.030507146314596
% es.tEx (V/m) @ t=0.1
-3.756932630541902
% es.tEy (V/m) @ t=0.1
0
% es.tEz (V/m) @ t=0.1
5.030507146314591
% V (V) @ t=0.1
0.005552939840457993
% es.normE (V/m) @ t=0.12
6.823531104834472
% es.EX (V/m) @ t=0.12
-3.791429972416722
% es.EY (V/m) @ t=0.12
-0.4092522774656231
% es.EZ (V/m) @ t=0.12
5.0766988475829935
% es.tEX (V/m) @ t=0.12
-3.791429972416732
% es.tEY (V/m) @ t=0.12
0
% es.tEZ (V/m) @ t=0.12
5.076698847582985
% es.Ex (V/m) @ t=0.12
-3.791429972416722
% es.Ey (V/m) @ t=0.12
-0.4092522774656231
% es.Ez (V/m) @ t=0.12
5.0766988475829935
% es.tEx (V/m) @ t=0.12
-3.791429972416732
% es.tEy (V/m) @ t=0.12
0
% es.tEz (V/m) @ t=0.12
5.076698847582985
% V (V) @ t=0.12
0.005603928679561327
% es.normE (V/m) @ t=0.14
6.8859831305217165
% es.EX (V/m) @ t=0.14
-3.82613084820351
% es.EY (V/m) @ t=0.14
-0.412997935412605
% es.EZ (V/m) @ t=0.14
5.123163078099226
% es.tEX (V/m) @ t=0.14
-3.8261308482035163
% es.tEY (V/m) @ t=0.14
0
% es.tEZ (V/m) @ t=0.14
5.123163078099219
% es.Ex (V/m) @ t=0.14
-3.82613084820351
% es.Ey (V/m) @ t=0.14
-0.412997935412605
% es.Ez (V/m) @ t=0.14
5.123163078099226
% es.tEx (V/m) @ t=0.14
-3.8261308482035163
% es.tEy (V/m) @ t=0.14
0
% es.tEz (V/m) @ t=0.14
5.123163078099219
% V (V) @ t=0.14
0.0056552183496522065
% es.normE (V/m) @ t=0.16
6.9514234237865775
% es.EX (V/m) @ t=0.16
-3.862492133140327
% es.EY (V/m) @ t=0.16
-0.41692281355692273
% es.EZ (V/m) @ t=0.16
5.171850574765269
% es.tEX (V/m) @ t=0.16
-3.862492133140333
% es.tEY (V/m) @ t=0.16
0
% es.tEZ (V/m) @ t=0.16
5.171850574765266
% es.Ex (V/m) @ t=0.16
-3.862492133140327
% es.Ey (V/m) @ t=0.16
-0.41692281355692273
% es.Ez (V/m) @ t=0.16
5.171850574765269
% es.tEx (V/m) @ t=0.16
-3.862492133140333
% es.tEy (V/m) @ t=0.16
0
% es.tEz (V/m) @ t=0.16
5.171850574765266
% V (V) @ t=0.16
0.005708962168634201
% es.normE (V/m) @ t=0.18
7.016863717051415
% es.EX (V/m) @ t=0.18
-3.8988534180771266
% es.EY (V/m) @ t=0.18
-0.42084769170122804
% es.EZ (V/m) @ t=0.18
5.220538071431297
% es.tEX (V/m) @ t=0.18
-3.898853418077133
% es.tEY (V/m) @ t=0.18
0
% es.tEZ (V/m) @ t=0.18
5.220538071431291
% es.Ex (V/m) @ t=0.18
-3.8988534180771266
% es.Ey (V/m) @ t=0.18
-0.42084769170122804
% es.Ez (V/m) @ t=0.18
5.220538071431297
% es.tEx (V/m) @ t=0.18
-3.898853418077133
% es.tEy (V/m) @ t=0.18
0
% es.tEz (V/m) @ t=0.18
5.220538071431291
% V (V) @ t=0.18
0.005762705987616195
% es.normE (V/m) @ t=0.2
7.082304010316275
% es.EX (V/m) @ t=0.2
-3.9352147030139255
% es.EY (V/m) @ t=0.2
-0.4247725698455689
% es.EZ (V/m) @ t=0.2
5.269225568097344
% es.tEX (V/m) @ t=0.2
-3.9352147030139317
% es.tEY (V/m) @ t=0.2
0
% es.tEZ (V/m) @ t=0.2
5.269225568097344
% es.Ex (V/m) @ t=0.2
-3.9352147030139255
% es.Ey (V/m) @ t=0.2
-0.4247725698455689
% es.Ez (V/m) @ t=0.2
5.269225568097344
% es.tEx (V/m) @ t=0.2
-3.9352147030139317
% es.tEy (V/m) @ t=0.2
0
% es.tEz (V/m) @ t=0.2
5.269225568097344
% V (V) @ t=0.2
0.005816449806598192
% es.normE (V/m) @ t=0.22
7.147744303581117
% es.EX (V/m) @ t=0.22
-3.9715759879507253
% es.EY (V/m) @ t=0.22
-0.42869744798986686
% es.EZ (V/m) @ t=0.22
5.317913064763384
% es.tEX (V/m) @ t=0.22
-3.9715759879507386
% es.tEY (V/m) @ t=0.22
0
% es.tEZ (V/m) @ t=0.22
5.317913064763382
% es.Ex (V/m) @ t=0.22
-3.9715759879507253
% es.Ey (V/m) @ t=0.22
-0.42869744798986686
% es.Ez (V/m) @ t=0.22
5.317913064763384
% es.tEx (V/m) @ t=0.22
-3.9715759879507386
% es.tEy (V/m) @ t=0.22
0
% es.tEz (V/m) @ t=0.22
5.317913064763382
% V (V) @ t=0.22
0.005870193625580188
% es.normE (V/m) @ t=0.24
7.213184596845971
% es.EX (V/m) @ t=0.24
-4.00793727288755
% es.EY (V/m) @ t=0.24
-0.4326223261341915
% es.EZ (V/m) @ t=0.24
5.366600561429411
% es.tEX (V/m) @ t=0.24
-4.007937272887553
% es.tEY (V/m) @ t=0.24
0
% es.tEZ (V/m) @ t=0.24
5.366600561429404
% es.Ex (V/m) @ t=0.24
-4.00793727288755
% es.Ey (V/m) @ t=0.24
-0.4326223261341915
% es.Ez (V/m) @ t=0.24
5.366600561429411
% es.tEx (V/m) @ t=0.24
-4.007937272887553
% es.tEy (V/m) @ t=0.24
0
% es.tEz (V/m) @ t=0.24
5.366600561429404
% V (V) @ t=0.24
0.005923937444562185
% es.normE (V/m) @ t=0.26
7.278624890110818
% es.EX (V/m) @ t=0.26
-4.044298557824356
% es.EY (V/m) @ t=0.26
-0.43654720427850213
% es.EZ (V/m) @ t=0.26
5.415288058095448
% es.tEX (V/m) @ t=0.26
-4.044298557824366
% es.tEY (V/m) @ t=0.26
0
% es.tEZ (V/m) @ t=0.26
5.415288058095442
% es.Ex (V/m) @ t=0.26
-4.044298557824356
% es.Ey (V/m) @ t=0.26
-0.43654720427850213
% es.Ez (V/m) @ t=0.26
5.415288058095448
% es.tEx (V/m) @ t=0.26
-4.044298557824366
% es.tEy (V/m) @ t=0.26
0
% es.tEz (V/m) @ t=0.26
5.415288058095442
% V (V) @ t=0.26
0.005977681263544179
% es.normE (V/m) @ t=0.28
7.345792012786365
% es.EX (V/m) @ t=0.28
-4.081619259231554
% es.EY (V/m) @ t=0.28
-0.4405757209491492
% es.EZ (V/m) @ t=0.28
5.46526032992823
% es.tEX (V/m) @ t=0.28
-4.081619259231557
% es.tEY (V/m) @ t=0.28
0
% es.tEZ (V/m) @ t=0.28
5.465260329928227
% es.Ex (V/m) @ t=0.28
-4.081619259231554
% es.Ey (V/m) @ t=0.28
-0.4405757209491492
% es.Ez (V/m) @ t=0.28
5.46526032992823
% es.tEx (V/m) @ t=0.28
-4.081619259231557
% es.tEy (V/m) @ t=0.28
0
% es.tEz (V/m) @ t=0.28
5.465260329928227
% V (V) @ t=0.28
0.006032843399731179
% es.normE (V/m) @ t=0.3
7.41879054251336
% es.EX (V/m) @ t=0.3
-4.122179856795334
% es.EY (V/m) @ t=0.3
-0.444954219169448
% es.EZ (V/m) @ t=0.3
5.519571216172168
% es.tEX (V/m) @ t=0.3
-4.122179856795344
% es.tEY (V/m) @ t=0.3
0
% es.tEZ (V/m) @ t=0.3
5.51957121617216
% es.Ex (V/m) @ t=0.3
-4.122179856795334
% es.Ey (V/m) @ t=0.3
-0.444954219169448
% es.Ez (V/m) @ t=0.3
5.519571216172168
% es.tEx (V/m) @ t=0.3
-4.122179856795344
% es.tEy (V/m) @ t=0.3
0
% es.tEz (V/m) @ t=0.3
5.51957121617216
% V (V) @ t=0.3
0.006092795114378701
% es.normE (V/m) @ t=0.32
7.491789072240396
% es.EX (V/m) @ t=0.32
-4.162740454359094
% es.EY (V/m) @ t=0.32
-0.4493327173897361
% es.EZ (V/m) @ t=0.32
5.57388210241612
% es.tEX (V/m) @ t=0.32
-4.162740454359094
% es.tEY (V/m) @ t=0.32
0
% es.tEZ (V/m) @ t=0.32
5.573882102416118
% es.Ex (V/m) @ t=0.32
-4.162740454359094
% es.Ey (V/m) @ t=0.32
-0.4493327173897361
% es.Ez (V/m) @ t=0.32
5.57388210241612
% es.tEx (V/m) @ t=0.32
-4.162740454359094
% es.tEy (V/m) @ t=0.32
0
% es.tEz (V/m) @ t=0.32
5.573882102416118
% V (V) @ t=0.32
0.006152746829026223
% es.normE (V/m) @ t=0.34
7.564787601967494
% es.EX (V/m) @ t=0.34
-4.203301051922863
% es.EY (V/m) @ t=0.34
-0.45371121561003824
% es.EZ (V/m) @ t=0.34
5.628192988660083
% es.tEX (V/m) @ t=0.34
-4.20330105192287
% es.tEY (V/m) @ t=0.34
0
% es.tEZ (V/m) @ t=0.34
5.628192988660075
% es.Ex (V/m) @ t=0.34
-4.203301051922863
% es.Ey (V/m) @ t=0.34
-0.45371121561003824
% es.Ez (V/m) @ t=0.34
5.628192988660083
% es.tEx (V/m) @ t=0.34
-4.20330105192287
% es.tEy (V/m) @ t=0.34
0
% es.tEz (V/m) @ t=0.34
5.628192988660075
% V (V) @ t=0.34
0.006212698543673745
% es.normE (V/m) @ t=0.36
7.637786131694606
% es.EX (V/m) @ t=0.36
-4.2438616494866475
% es.EY (V/m) @ t=0.36
-0.4580897138303297
% es.EZ (V/m) @ t=0.36
5.682503874904021
% es.tEX (V/m) @ t=0.36
-4.243861649486654
% es.tEY (V/m) @ t=0.36
0
% es.tEZ (V/m) @ t=0.36
5.682503874904011
% es.Ex (V/m) @ t=0.36
-4.2438616494866475
% es.Ey (V/m) @ t=0.36
-0.4580897138303297
% es.Ez (V/m) @ t=0.36
5.682503874904021
% es.tEx (V/m) @ t=0.36
-4.243861649486654
% es.tEy (V/m) @ t=0.36
0
% es.tEz (V/m) @ t=0.36
5.682503874904011
% V (V) @ t=0.36
0.006272650258321268
% es.normE (V/m) @ t=0.38
7.71078466142175
% es.EX (V/m) @ t=0.38
-4.284422247050418
% es.EY (V/m) @ t=0.38
-0.4624682120506287
% es.EZ (V/m) @ t=0.38
5.736814761147969
% es.tEX (V/m) @ t=0.38
-4.284422247050427
% es.tEY (V/m) @ t=0.38
0
% es.tEZ (V/m) @ t=0.38
5.736814761147961
% es.Ex (V/m) @ t=0.38
-4.284422247050418
% es.Ey (V/m) @ t=0.38
-0.4624682120506287
% es.Ez (V/m) @ t=0.38
5.736814761147969
% es.tEx (V/m) @ t=0.38
-4.284422247050427
% es.tEy (V/m) @ t=0.38
0
% es.tEz (V/m) @ t=0.38
5.736814761147961
% V (V) @ t=0.38
0.006332601972968792
% es.normE (V/m) @ t=0.4
7.783783191148942
% es.EX (V/m) @ t=0.4
-4.324982844614198
% es.EY (V/m) @ t=0.4
-0.4668467102709313
% es.EZ (V/m) @ t=0.4
5.791125647391907
% es.tEX (V/m) @ t=0.4
-4.324982844614204
% es.tEY (V/m) @ t=0.4
0
% es.tEZ (V/m) @ t=0.4
5.791125647391901
% es.Ex (V/m) @ t=0.4
-4.324982844614198
% es.Ey (V/m) @ t=0.4
-0.4668467102709313
% es.Ez (V/m) @ t=0.4
5.791125647391907
% es.tEx (V/m) @ t=0.4
-4.324982844614204
% es.tEy (V/m) @ t=0.4
0
% es.tEz (V/m) @ t=0.4
5.791125647391901
% V (V) @ t=0.4
0.006392553687616315
% es.normE (V/m) @ t=0.42
7.856781720876171
% es.EX (V/m) @ t=0.42
-4.365543442177968
% es.EY (V/m) @ t=0.42
-0.4712252084912354
% es.EZ (V/m) @ t=0.42
5.845436533635861
% es.tEX (V/m) @ t=0.42
-4.365543442177974
% es.tEY (V/m) @ t=0.42
0
% es.tEZ (V/m) @ t=0.42
5.84543653363585
% es.Ex (V/m) @ t=0.42
-4.365543442177968
% es.Ey (V/m) @ t=0.42
-0.4712252084912354
% es.Ez (V/m) @ t=0.42
5.845436533635861
% es.tEx (V/m) @ t=0.42
-4.365543442177974
% es.tEy (V/m) @ t=0.42
0
% es.tEz (V/m) @ t=0.42
5.84543653363585
% V (V) @ t=0.42
0.006452505402263835
% es.normE (V/m) @ t=0.44
7.929780250603427
% es.EX (V/m) @ t=0.44
-4.4061040397417415
% es.EY (V/m) @ t=0.44
-0.4756037067115233
% es.EZ (V/m) @ t=0.44
5.899747419879816
% es.tEX (V/m) @ t=0.44
-4.406104039741744
% es.tEY (V/m) @ t=0.44
0
% es.tEZ (V/m) @ t=0.44
5.899747419879802
% es.Ex (V/m) @ t=0.44
-4.4061040397417415
% es.Ey (V/m) @ t=0.44
-0.4756037067115233
% es.Ez (V/m) @ t=0.44
5.899747419879816
% es.tEx (V/m) @ t=0.44
-4.406104039741744
% es.tEy (V/m) @ t=0.44
0
% es.tEz (V/m) @ t=0.44
5.899747419879802
% V (V) @ t=0.44
0.006512457116911359
% es.normE (V/m) @ t=0.46
8.002778780330704
% es.EX (V/m) @ t=0.46
-4.446664637305504
% es.EY (V/m) @ t=0.46
-0.4799822049318254
% es.EZ (V/m) @ t=0.46
5.954058306123758
% es.tEX (V/m) @ t=0.46
-4.44666463730551
% es.tEY (V/m) @ t=0.46
0
% es.tEZ (V/m) @ t=0.46
5.9540583061237475
% es.Ex (V/m) @ t=0.46
-4.446664637305504
% es.Ey (V/m) @ t=0.46
-0.4799822049318254
% es.Ez (V/m) @ t=0.46
5.954058306123758
% es.tEx (V/m) @ t=0.46
-4.44666463730551
% es.tEy (V/m) @ t=0.46
0
% es.tEz (V/m) @ t=0.46
5.9540583061237475
% V (V) @ t=0.46
0.006572408831558881
% es.normE (V/m) @ t=0.48
8.075777310058022
% es.EX (V/m) @ t=0.48
-4.487225234869281
% es.EY (V/m) @ t=0.48
-0.4843607031521333
% es.EZ (V/m) @ t=0.48
6.008369192367693
% es.tEX (V/m) @ t=0.48
-4.487225234869287
% es.tEY (V/m) @ t=0.48
0
% es.tEZ (V/m) @ t=0.48
6.008369192367681
% es.Ex (V/m) @ t=0.48
-4.487225234869281
% es.Ey (V/m) @ t=0.48
-0.4843607031521333
% es.Ez (V/m) @ t=0.48
6.008369192367693
% es.tEx (V/m) @ t=0.48
-4.487225234869287
% es.tEy (V/m) @ t=0.48
0
% es.tEz (V/m) @ t=0.48
6.008369192367681
% V (V) @ t=0.48
0.0066323605462064025
% es.normE (V/m) @ t=0.5
8.148775839785376
% es.EX (V/m) @ t=0.5
-4.527785832433044
% es.EY (V/m) @ t=0.5
-0.48873920137242655
% es.EZ (V/m) @ t=0.5
6.062680078611658
% es.tEX (V/m) @ t=0.5
-4.52778583243305
% es.tEY (V/m) @ t=0.5
0
% es.tEZ (V/m) @ t=0.5
6.062680078611658
% es.Ex (V/m) @ t=0.5
-4.527785832433044
% es.Ey (V/m) @ t=0.5
-0.48873920137242655
% es.Ez (V/m) @ t=0.5
6.062680078611658
% es.tEx (V/m) @ t=0.5
-4.52778583243305
% es.tEy (V/m) @ t=0.5
0
% es.tEz (V/m) @ t=0.5
6.062680078611658
% V (V) @ t=0.5
0.006692312260853925
% es.normE (V/m) @ t=0.52
8.221774369512751
% es.EX (V/m) @ t=0.52
-4.56834642999682
% es.EY (V/m) @ t=0.52
-0.49311769959272755
% es.EZ (V/m) @ t=0.52
6.116990964855599
% es.tEX (V/m) @ t=0.52
-4.568346429996827
% es.tEY (V/m) @ t=0.52
0
% es.tEZ (V/m) @ t=0.52
6.116990964855585
% es.Ex (V/m) @ t=0.52
-4.56834642999682
% es.Ey (V/m) @ t=0.52
-0.49311769959272755
% es.Ez (V/m) @ t=0.52
6.116990964855599
% es.tEx (V/m) @ t=0.52
-4.568346429996827
% es.tEy (V/m) @ t=0.52
0
% es.tEz (V/m) @ t=0.52
6.116990964855585
% V (V) @ t=0.52
0.0067522639755014475
% es.normE (V/m) @ t=0.54
8.294772899240154
% es.EX (V/m) @ t=0.54
-4.608907027560594
% es.EY (V/m) @ t=0.54
-0.497496197813003
% es.EZ (V/m) @ t=0.54
6.171301851099548
% es.tEX (V/m) @ t=0.54
-4.608907027560604
% es.tEY (V/m) @ t=0.54
0
% es.tEZ (V/m) @ t=0.54
6.171301851099538
% es.Ex (V/m) @ t=0.54
-4.608907027560594
% es.Ey (V/m) @ t=0.54
-0.497496197813003
% es.Ez (V/m) @ t=0.54
6.171301851099548
% es.tEx (V/m) @ t=0.54
-4.608907027560604
% es.tEy (V/m) @ t=0.54
0
% es.tEz (V/m) @ t=0.54
6.171301851099538
% V (V) @ t=0.54
0.006812215690148971
% es.normE (V/m) @ t=0.56
8.371778489166488
% es.EX (V/m) @ t=0.56
-4.651694265061519
% es.EY (V/m) @ t=0.56
-0.5021148915912459
% es.EZ (V/m) @ t=0.56
6.228593953738759
% es.tEX (V/m) @ t=0.56
-4.651694265061526
% es.tEY (V/m) @ t=0.56
0
% es.tEZ (V/m) @ t=0.56
6.2285939537387565
% es.Ex (V/m) @ t=0.56
-4.651694265061519
% es.Ey (V/m) @ t=0.56
-0.5021148915912459
% es.Ez (V/m) @ t=0.56
6.228593953738759
% es.tEx (V/m) @ t=0.56
-4.651694265061526
% es.tEy (V/m) @ t=0.56
0
% es.tEz (V/m) @ t=0.56
6.2285939537387565
% V (V) @ t=0.56
0.006875458006815824
% es.normE (V/m) @ t=0.58
8.453357099302648
% es.EX (V/m) @ t=0.58
-4.697022634696
% es.EY (V/m) @ t=0.58
-0.5070077063175757
% es.EZ (V/m) @ t=0.58
6.289288341881256
% es.tEX (V/m) @ t=0.58
-4.6970226346960064
% es.tEY (V/m) @ t=0.58
0
% es.tEZ (V/m) @ t=0.58
6.289288341881242
% es.Ex (V/m) @ t=0.58
-4.697022634696
% es.Ey (V/m) @ t=0.58
-0.5070077063175757
% es.Ez (V/m) @ t=0.58
6.289288341881256
% es.tEx (V/m) @ t=0.58
-4.6970226346960064
% es.tEy (V/m) @ t=0.58
0
% es.tEz (V/m) @ t=0.58
6.289288341881242
% V (V) @ t=0.58
0.006942455692453904
% es.normE (V/m) @ t=0.6
8.534935709438816
% es.EX (V/m) @ t=0.6
-4.742351004330488
% es.EY (V/m) @ t=0.6
-0.5119005210438838
% es.EZ (V/m) @ t=0.6
6.349982730023747
% es.tEX (V/m) @ t=0.6
-4.742351004330494
% es.tEY (V/m) @ t=0.6
0
% es.tEZ (V/m) @ t=0.6
6.349982730023742
% es.Ex (V/m) @ t=0.6
-4.742351004330488
% es.Ey (V/m) @ t=0.6
-0.5119005210438838
% es.Ez (V/m) @ t=0.6
6.349982730023747
% es.tEx (V/m) @ t=0.6
-4.742351004330494
% es.tEy (V/m) @ t=0.6
0
% es.tEz (V/m) @ t=0.6
6.349982730023742
% V (V) @ t=0.6
0.007009453378091987
% es.normE (V/m) @ t=0.62
8.61651431957496
% es.EX (V/m) @ t=0.62
-4.787679373964972
% es.EY (V/m) @ t=0.62
-0.5167933357702013
% es.EZ (V/m) @ t=0.62
6.410677118166225
% es.tEX (V/m) @ t=0.62
-4.787679373964978
% es.tEY (V/m) @ t=0.62
0
% es.tEZ (V/m) @ t=0.62
6.410677118166217
% es.Ex (V/m) @ t=0.62
-4.787679373964972
% es.Ey (V/m) @ t=0.62
-0.5167933357702013
% es.Ez (V/m) @ t=0.62
6.410677118166225
% es.tEx (V/m) @ t=0.62
-4.787679373964978
% es.tEy (V/m) @ t=0.62
0
% es.tEz (V/m) @ t=0.62
6.410677118166217
% V (V) @ t=0.62
0.007076451063730069
% es.normE (V/m) @ t=0.64
8.698092929711112
% es.EX (V/m) @ t=0.64
-4.833007743599456
% es.EY (V/m) @ t=0.64
-0.5216861504965149
% es.EZ (V/m) @ t=0.64
6.471371506308712
% es.tEX (V/m) @ t=0.64
-4.833007743599466
% es.tEY (V/m) @ t=0.64
0
% es.tEZ (V/m) @ t=0.64
6.471371506308702
% es.Ex (V/m) @ t=0.64
-4.833007743599456
% es.Ey (V/m) @ t=0.64
-0.5216861504965149
% es.Ez (V/m) @ t=0.64
6.471371506308712
% es.tEx (V/m) @ t=0.64
-4.833007743599466
% es.tEy (V/m) @ t=0.64
0
% es.tEz (V/m) @ t=0.64
6.471371506308702
% V (V) @ t=0.64
0.007143448749368149
% es.normE (V/m) @ t=0.66
8.779671539847275
% es.EX (V/m) @ t=0.66
-4.878336113233933
% es.EY (V/m) @ t=0.66
-0.526578965222825
% es.EZ (V/m) @ t=0.66
6.532065894451201
% es.tEX (V/m) @ t=0.66
-4.87833611323394
% es.tEY (V/m) @ t=0.66
0
% es.tEZ (V/m) @ t=0.66
6.532065894451193
% es.Ex (V/m) @ t=0.66
-4.878336113233933
% es.Ey (V/m) @ t=0.66
-0.526578965222825
% es.Ez (V/m) @ t=0.66
6.532065894451201
% es.tEx (V/m) @ t=0.66
-4.87833611323394
% es.tEy (V/m) @ t=0.66
0
% es.tEz (V/m) @ t=0.66
6.532065894451193
% V (V) @ t=0.66
0.007210446435006231
% es.normE (V/m) @ t=0.68
8.861250149983423
% es.EX (V/m) @ t=0.68
-4.9236644828684275
% es.EY (V/m) @ t=0.68
-0.5314717799491262
% es.EZ (V/m) @ t=0.68
6.592760282593675
% es.tEX (V/m) @ t=0.68
-4.923664482868434
% es.tEY (V/m) @ t=0.68
0
% es.tEZ (V/m) @ t=0.68
6.592760282593667
% es.Ex (V/m) @ t=0.68
-4.9236644828684275
% es.Ey (V/m) @ t=0.68
-0.5314717799491262
% es.Ez (V/m) @ t=0.68
6.592760282593675
% es.tEx (V/m) @ t=0.68
-4.923664482868434
% es.tEy (V/m) @ t=0.68
0
% es.tEz (V/m) @ t=0.68
6.592760282593667
% V (V) @ t=0.68
0.0072774441206443115
% es.normE (V/m) @ t=0.7
8.942828760119578
% es.EX (V/m) @ t=0.7
-4.968992852502905
% es.EY (V/m) @ t=0.7
-0.5363645946754434
% es.EZ (V/m) @ t=0.7
6.653454670736162
% es.tEX (V/m) @ t=0.7
-4.968992852502911
% es.tEY (V/m) @ t=0.7
0
% es.tEZ (V/m) @ t=0.7
6.65345467073616
% es.Ex (V/m) @ t=0.7
-4.968992852502905
% es.Ey (V/m) @ t=0.7
-0.5363645946754434
% es.Ez (V/m) @ t=0.7
6.653454670736162
% es.tEx (V/m) @ t=0.7
-4.968992852502911
% es.tEy (V/m) @ t=0.7
0
% es.tEz (V/m) @ t=0.7
6.65345467073616
% V (V) @ t=0.7
0.007344441806282394
% es.normE (V/m) @ t=0.72
9.02440737025575
% es.EX (V/m) @ t=0.72
-5.014321222137393
% es.EY (V/m) @ t=0.72
-0.5412574094017697
% es.EZ (V/m) @ t=0.72
6.714149058878657
% es.tEX (V/m) @ t=0.72
-5.0143212221374025
% es.tEY (V/m) @ t=0.72
0
% es.tEZ (V/m) @ t=0.72
6.714149058878645
% es.Ex (V/m) @ t=0.72
-5.014321222137393
% es.Ey (V/m) @ t=0.72
-0.5412574094017697
% es.Ez (V/m) @ t=0.72
6.714149058878657
% es.tEx (V/m) @ t=0.72
-5.0143212221374025
% es.tEy (V/m) @ t=0.72
0
% es.tEz (V/m) @ t=0.72
6.714149058878645
% V (V) @ t=0.72
0.007411439491920476
% es.normE (V/m) @ t=0.74
9.105985980391905
% es.EX (V/m) @ t=0.74
-5.059649591771867
% es.EY (V/m) @ t=0.74
-0.5461502241280831
% es.EZ (V/m) @ t=0.74
6.774843447021143
% es.tEX (V/m) @ t=0.74
-5.059649591771873
% es.tEY (V/m) @ t=0.74
0
% es.tEZ (V/m) @ t=0.74
6.774843447021132
% es.Ex (V/m) @ t=0.74
-5.059649591771867
% es.Ey (V/m) @ t=0.74
-0.5461502241280831
% es.Ez (V/m) @ t=0.74
6.774843447021143
% es.tEx (V/m) @ t=0.74
-5.059649591771873
% es.tEy (V/m) @ t=0.74
0
% es.tEz (V/m) @ t=0.74
6.774843447021132
% V (V) @ t=0.74
0.007478437177558557
% es.normE (V/m) @ t=0.76
9.187564590528053
% es.EX (V/m) @ t=0.76
-5.104977961406355
% es.EY (V/m) @ t=0.76
-0.5510430388543772
% es.EZ (V/m) @ t=0.76
6.835537835163628
% es.tEX (V/m) @ t=0.76
-5.104977961406365
% es.tEY (V/m) @ t=0.76
0
% es.tEZ (V/m) @ t=0.76
6.83553783516362
% es.Ex (V/m) @ t=0.76
-5.104977961406355
% es.Ey (V/m) @ t=0.76
-0.5510430388543772
% es.Ez (V/m) @ t=0.76
6.835537835163628
% es.tEx (V/m) @ t=0.76
-5.104977961406365
% es.tEy (V/m) @ t=0.76
0
% es.tEz (V/m) @ t=0.76
6.83553783516362
% V (V) @ t=0.76
0.007545434863196639
% es.normE (V/m) @ t=0.78
9.269143200664217
% es.EX (V/m) @ t=0.78
-5.150306331040827
% es.EY (V/m) @ t=0.78
-0.5559358535806944
% es.EZ (V/m) @ t=0.78
6.8962322233061215
% es.tEX (V/m) @ t=0.78
-5.150306331040848
% es.tEY (V/m) @ t=0.78
0
% es.tEZ (V/m) @ t=0.78
6.896232223306113
% es.Ex (V/m) @ t=0.78
-5.150306331040827
% es.Ey (V/m) @ t=0.78
-0.5559358535806944
% es.Ez (V/m) @ t=0.78
6.8962322233061215
% es.tEx (V/m) @ t=0.78
-5.150306331040848
% es.tEy (V/m) @ t=0.78
0
% es.tEz (V/m) @ t=0.78
6.896232223306113
% V (V) @ t=0.78
0.007612432548834721
% es.normE (V/m) @ t=0.8
9.350721810800366
% es.EX (V/m) @ t=0.8
-5.195634700675323
% es.EY (V/m) @ t=0.8
-0.5608286683070063
% es.EZ (V/m) @ t=0.8
6.956926611448596
% es.tEX (V/m) @ t=0.8
-5.195634700675325
% es.tEY (V/m) @ t=0.8
0
% es.tEZ (V/m) @ t=0.8
6.956926611448587
% es.Ex (V/m) @ t=0.8
-5.195634700675323
% es.Ey (V/m) @ t=0.8
-0.5608286683070063
% es.Ez (V/m) @ t=0.8
6.956926611448596
% es.tEx (V/m) @ t=0.8
-5.195634700675325
% es.tEy (V/m) @ t=0.8
0
% es.tEz (V/m) @ t=0.8
6.956926611448587
% V (V) @ t=0.8
0.007679430234472803
% es.normE (V/m) @ t=0.82
9.432300420936532
% es.EX (V/m) @ t=0.82
-5.240963070309802
% es.EY (V/m) @ t=0.82
-0.5657214830333237
% es.EZ (V/m) @ t=0.82
7.017620999591088
% es.tEX (V/m) @ t=0.82
-5.2409630703098085
% es.tEY (V/m) @ t=0.82
0
% es.tEZ (V/m) @ t=0.82
7.0176209995910845
% es.Ex (V/m) @ t=0.82
-5.240963070309802
% es.Ey (V/m) @ t=0.82
-0.5657214830333237
% es.Ez (V/m) @ t=0.82
7.017620999591088
% es.tEx (V/m) @ t=0.82
-5.2409630703098085
% es.tEy (V/m) @ t=0.82
0
% es.tEz (V/m) @ t=0.82
7.0176209995910845
% V (V) @ t=0.82
0.0077464279201108835
% es.normE (V/m) @ t=0.84
9.520765417113772
% es.EX (V/m) @ t=0.84
-5.290117825377868
% es.EY (V/m) @ t=0.84
-0.5710272932373113
% es.EZ (V/m) @ t=0.84
7.083438844369906
% es.tEX (V/m) @ t=0.84
-5.290117825377881
% es.tEY (V/m) @ t=0.84
0
% es.tEZ (V/m) @ t=0.84
7.083438844369899
% es.Ex (V/m) @ t=0.84
-5.290117825377868
% es.Ey (V/m) @ t=0.84
-0.5710272932373113
% es.Ez (V/m) @ t=0.84
7.083438844369906
% es.tEx (V/m) @ t=0.84
-5.290117825377881
% es.tEy (V/m) @ t=0.84
0
% es.tEz (V/m) @ t=0.84
7.083438844369899
% V (V) @ t=0.84
0.00781908110406851
% es.normE (V/m) @ t=0.86
9.612104086893257
% es.EX (V/m) @ t=0.86
-5.3408693225900565
% es.EY (V/m) @ t=0.86
-0.5765054455369758
% es.EZ (V/m) @ t=0.86
7.151394696225349
% es.tEX (V/m) @ t=0.86
-5.340869322590066
% es.tEY (V/m) @ t=0.86
0
% es.tEZ (V/m) @ t=0.86
7.1513946962253385
% es.Ex (V/m) @ t=0.86
-5.3408693225900565
% es.Ey (V/m) @ t=0.86
-0.5765054455369758
% es.Ez (V/m) @ t=0.86
7.151394696225349
% es.tEx (V/m) @ t=0.86
-5.340869322590066
% es.tEy (V/m) @ t=0.86
0
% es.tEz (V/m) @ t=0.86
7.1513946962253385
% V (V) @ t=0.86
0.007894094314915633
% es.normE (V/m) @ t=0.88
9.703442756672755
% es.EX (V/m) @ t=0.88
-5.391620819802237
% es.EY (V/m) @ t=0.88
-0.5819835978366386
% es.EZ (V/m) @ t=0.88
7.219350548080796
% es.tEX (V/m) @ t=0.88
-5.391620819802254
% es.tEY (V/m) @ t=0.88
0
% es.tEZ (V/m) @ t=0.88
7.219350548080786
% es.Ex (V/m) @ t=0.88
-5.391620819802237
% es.Ey (V/m) @ t=0.88
-0.5819835978366386
% es.Ez (V/m) @ t=0.88
7.219350548080796
% es.tEx (V/m) @ t=0.88
-5.391620819802254
% es.tEy (V/m) @ t=0.88
0
% es.tEz (V/m) @ t=0.88
7.219350548080786
% V (V) @ t=0.88
0.007969107525762754
% es.normE (V/m) @ t=0.9
9.794781426452245
% es.EX (V/m) @ t=0.9
-5.442372317014447
% es.EY (V/m) @ t=0.9
-0.5874617501363009
% es.EZ (V/m) @ t=0.9
7.287306399936228
% es.tEX (V/m) @ t=0.9
-5.442372317014454
% es.tEY (V/m) @ t=0.9
0
% es.tEZ (V/m) @ t=0.9
7.287306399936223
% es.Ex (V/m) @ t=0.9
-5.442372317014447
% es.Ey (V/m) @ t=0.9
-0.5874617501363009
% es.Ez (V/m) @ t=0.9
7.287306399936228
% es.tEx (V/m) @ t=0.9
-5.442372317014454
% es.tEy (V/m) @ t=0.9
0
% es.tEz (V/m) @ t=0.9
7.287306399936223
% V (V) @ t=0.9
0.008044120736609877
% es.normE (V/m) @ t=0.92
9.886120096231735
% es.EX (V/m) @ t=0.92
-5.49312381422663
% es.EY (V/m) @ t=0.92
-0.592939902435953
% es.EZ (V/m) @ t=0.92
7.35526225179167
% es.tEX (V/m) @ t=0.92
-5.493123814226643
% es.tEY (V/m) @ t=0.92
0
% es.tEZ (V/m) @ t=0.92
7.355262251791665
% es.Ex (V/m) @ t=0.92
-5.49312381422663
% es.Ey (V/m) @ t=0.92
-0.592939902435953
% es.Ez (V/m) @ t=0.92
7.35526225179167
% es.tEx (V/m) @ t=0.92
-5.493123814226643
% es.tEy (V/m) @ t=0.92
0
% es.tEz (V/m) @ t=0.92
7.355262251791665
% V (V) @ t=0.92
0.008119133947456999
% es.normE (V/m) @ t=0.94
9.977458766011246
% es.EX (V/m) @ t=0.94
-5.543875311438833
% es.EY (V/m) @ t=0.94
-0.5984180547356117
% es.EZ (V/m) @ t=0.94
7.423218103647111
% es.tEX (V/m) @ t=0.94
-5.543875311438843
% es.tEY (V/m) @ t=0.94
0
% es.tEZ (V/m) @ t=0.94
7.423218103647105
% es.Ex (V/m) @ t=0.94
-5.543875311438833
% es.Ey (V/m) @ t=0.94
-0.5984180547356117
% es.Ez (V/m) @ t=0.94
7.423218103647111
% es.tEx (V/m) @ t=0.94
-5.543875311438843
% es.tEy (V/m) @ t=0.94
0
% es.tEz (V/m) @ t=0.94
7.423218103647105
% V (V) @ t=0.94
0.008194147158304124
% es.normE (V/m) @ t=0.96
10.068797435790735
% es.EX (V/m) @ t=0.96
-5.5946268086510225
% es.EY (V/m) @ t=0.96
-0.6038962070352836
% es.EZ (V/m) @ t=0.96
7.491173955502533
% es.tEX (V/m) @ t=0.96
-5.594626808651031
% es.tEY (V/m) @ t=0.96
0
% es.tEZ (V/m) @ t=0.96
7.491173955502524
% es.Ex (V/m) @ t=0.96
-5.5946268086510225
% es.Ey (V/m) @ t=0.96
-0.6038962070352836
% es.Ez (V/m) @ t=0.96
7.491173955502533
% es.tEx (V/m) @ t=0.96
-5.594626808651031
% es.tEy (V/m) @ t=0.96
0
% es.tEz (V/m) @ t=0.96
7.491173955502524
% V (V) @ t=0.96
0.008269160369151244
% es.normE (V/m) @ t=0.98
10.160136105570235
% es.EX (V/m) @ t=0.98
-5.645378305863208
% es.EY (V/m) @ t=0.98
-0.6093743593349337
% es.EZ (V/m) @ t=0.98
7.559129807357992
% es.tEX (V/m) @ t=0.98
-5.645378305863213
% es.tEY (V/m) @ t=0.98
0
% es.tEZ (V/m) @ t=0.98
7.559129807357986
% es.Ex (V/m) @ t=0.98
-5.645378305863208
% es.Ey (V/m) @ t=0.98
-0.6093743593349337
% es.Ez (V/m) @ t=0.98
7.559129807357992
% es.tEx (V/m) @ t=0.98
-5.645378305863213
% es.tEy (V/m) @ t=0.98
0
% es.tEz (V/m) @ t=0.98
7.559129807357986
% V (V) @ t=0.98
0.008344173579998365
% es.normE (V/m) @ t=1
10.251474775349728
% es.EX (V/m) @ t=1
-5.696129803075407
% es.EY (V/m) @ t=1
-0.6148525116345982
% es.EZ (V/m) @ t=1
7.62708565921341
% es.tEX (V/m) @ t=1
-5.696129803075413
% es.tEY (V/m) @ t=1
0
% es.tEZ (V/m) @ t=1
7.627085659213399
% es.Ex (V/m) @ t=1
-5.696129803075407
% es.Ey (V/m) @ t=1
-0.6148525116345982
% es.Ez (V/m) @ t=1
7.62708565921341
% es.tEx (V/m) @ t=1
-5.696129803075413
% es.tEy (V/m) @ t=1
0
% es.tEz (V/m) @ t=1
7.627085659213399
% V (V) @ t=1
0.008419186790845488
% es.normE (V/m) @ t=1.02
10.342813445129229
% es.EX (V/m) @ t=1.02
-5.746881300287604
% es.EY (V/m) @ t=1.02
-0.6203306639342567
% es.EZ (V/m) @ t=1.02
7.695041511068848
% es.tEX (V/m) @ t=1.02
-5.746881300287624
% es.tEY (V/m) @ t=1.02
0
% es.tEZ (V/m) @ t=1.02
7.695041511068833
% es.Ex (V/m) @ t=1.02
-5.746881300287604
% es.Ey (V/m) @ t=1.02
-0.6203306639342567
% es.Ez (V/m) @ t=1.02
7.695041511068848
% es.tEx (V/m) @ t=1.02
-5.746881300287624
% es.tEy (V/m) @ t=1.02
0
% es.tEz (V/m) @ t=1.02
7.695041511068833
% V (V) @ t=1.02
0.008494200001692615
% es.normE (V/m) @ t=1.04
10.434152114908752
% es.EX (V/m) @ t=1.04
-5.797632797499789
% es.EY (V/m) @ t=1.04
-0.6258088162339428
% es.EZ (V/m) @ t=1.04
7.762997362924303
% es.tEX (V/m) @ t=1.04
-5.797632797499795
% es.tEY (V/m) @ t=1.04
0
% es.tEZ (V/m) @ t=1.04
7.762997362924295
% es.Ex (V/m) @ t=1.04
-5.797632797499789
% es.Ey (V/m) @ t=1.04
-0.6258088162339428
% es.Ez (V/m) @ t=1.04
7.762997362924303
% es.tEx (V/m) @ t=1.04
-5.797632797499795
% es.tEy (V/m) @ t=1.04
0
% es.tEz (V/m) @ t=1.04
7.762997362924295
% V (V) @ t=1.04