% Model:              1 neuron.mph
% Version:            COMSOL 6.0.0.405
% Date:               Mar 9 2023, 13:36
% Dimension:          0
% Nodes:              14017
% Expressions:        14017
% Description:        Electric field norm, Electric field, X component, Electric field, Y component, Electric field, Z component, Tangential electric field, X component, Tangential electric field, Y component, Tangential electric field, Z component, Electric field, x component, Electric field, y component, Electric field, z component, Tangential electric field, x component, Tangential electric field, y component, Tangential electric field, z component, Electric potential
% Length unit:        mm
% x
2
% y
12.199999999999998
% z
2
% es.normE (V/m) @ t=0
0.7414985234527383
% es.EX (V/m) @ t=0
-0.5308448472189987
% es.EY (V/m) @ t=0
0.20216392997246313
% es.EZ (V/m) @ t=0
-0.47369751613189415
% es.tEX (V/m) @ t=0
-0.5308448472189959
% es.tEY (V/m) @ t=0
0
% es.tEZ (V/m) @ t=0
-0.47369751613189326
% es.Ex (V/m) @ t=0
-0.5308448472189987
% es.Ey (V/m) @ t=0
0.20216392997246313
% es.Ez (V/m) @ t=0
-0.47369751613189415
% es.tEx (V/m) @ t=0
-0.5308448472189959
% es.tEy (V/m) @ t=0
0
% es.tEz (V/m) @ t=0
-0.47369751613189326
% V (V) @ t=0
0.007546104461683014
% es.normE (V/m) @ t=0.02
0.640445330197002
% es.EX (V/m) @ t=0.02
-0.45850004118594556
% es.EY (V/m) @ t=0.02
0.1746125475743523
% es.EZ (V/m) @ t=0.02
-0.4091408839406334
% es.tEX (V/m) @ t=0.02
-0.4585000411859441
% es.tEY (V/m) @ t=0.02
0
% es.tEZ (V/m) @ t=0.02
-0.4091408839406334
% es.Ex (V/m) @ t=0.02
-0.45850004118594556
% es.Ey (V/m) @ t=0.02
0.1746125475743523
% es.Ez (V/m) @ t=0.02
-0.4091408839406334
% es.tEx (V/m) @ t=0.02
-0.4585000411859441
% es.tEy (V/m) @ t=0.02
0
% es.tEz (V/m) @ t=0.02
-0.4091408839406334
% V (V) @ t=0.02
0.0065177031874882226
% es.normE (V/m) @ t=0.04
0.6463348453056412
% es.EX (V/m) @ t=0.04
-0.46271639307813095
% es.EY (V/m) @ t=0.04
0.17621827850579153
% es.EZ (V/m) @ t=0.04
-0.4129033310111234
% es.tEX (V/m) @ t=0.04
-0.46271639307813395
% es.tEY (V/m) @ t=0.04
0
% es.tEZ (V/m) @ t=0.04
-0.4129033310111234
% es.Ex (V/m) @ t=0.04
-0.46271639307813095
% es.Ey (V/m) @ t=0.04
0.17621827850579153
% es.Ez (V/m) @ t=0.04
-0.4129033310111234
% es.tEx (V/m) @ t=0.04
-0.46271639307813395
% es.tEy (V/m) @ t=0.04
0
% es.tEz (V/m) @ t=0.04
-0.4129033310111234
% V (V) @ t=0.04
0.006577639810826867
% es.normE (V/m) @ t=0.06
0.6522780854465556
% es.EX (V/m) @ t=0.06
-0.46697120714574847
% es.EY (V/m) @ t=0.06
0.17783865604720117
% es.EZ (V/m) @ t=0.06
-0.4167001003029944
% es.tEX (V/m) @ t=0.06
-0.4669712071457517
% es.tEY (V/m) @ t=0.06
0
% es.tEZ (V/m) @ t=0.06
-0.41670010030299576
% es.Ex (V/m) @ t=0.06
-0.46697120714574847
% es.Ey (V/m) @ t=0.06
0.17783865604720117
% es.Ez (V/m) @ t=0.06
-0.4167001003029944
% es.tEx (V/m) @ t=0.06
-0.4669712071457517
% es.tEy (V/m) @ t=0.06
0
% es.tEz (V/m) @ t=0.06
-0.41670010030299576
% V (V) @ t=0.06
0.006638123250424623
% es.normE (V/m) @ t=0.08
0.6583104833983318
% es.EX (V/m) @ t=0.08
-0.47128985057212447
% es.EY (V/m) @ t=0.08
0.17948335404187254
% es.EZ (V/m) @ t=0.08
-0.42055381971390604
% es.tEX (V/m) @ t=0.08
-0.4712898505721248
% es.tEY (V/m) @ t=0.08
0
% es.tEZ (V/m) @ t=0.08
-0.4205538197139038
% es.Ex (V/m) @ t=0.08
-0.47128985057212447
% es.Ey (V/m) @ t=0.08
0.17948335404187254
% es.Ez (V/m) @ t=0.08
-0.42055381971390604
% es.tEx (V/m) @ t=0.08
-0.4712898505721248
% es.tEy (V/m) @ t=0.08
0
% es.tEz (V/m) @ t=0.08
-0.4205538197139038
% V (V) @ t=0.08
0.006699513327243665
% es.normE (V/m) @ t=0.1
0.6644079220972896
% es.EX (V/m) @ t=0.1
-0.4756550576045916
% es.EY (V/m) @ t=0.1
0.1811457938410741
% es.EZ (V/m) @ t=0.1
-0.4244490843159672
% es.tEX (V/m) @ t=0.1
-0.4756550576045915
% es.tEY (V/m) @ t=0.1
0
% es.tEZ (V/m) @ t=0.1
-0.4244490843159676
% es.Ex (V/m) @ t=0.1
-0.4756550576045916
% es.Ey (V/m) @ t=0.1
0.1811457938410741
% es.Ez (V/m) @ t=0.1
-0.4244490843159672
% es.tEx (V/m) @ t=0.1
-0.4756550576045915
% es.tEy (V/m) @ t=0.1
0
% es.tEz (V/m) @ t=0.1
-0.4244490843159676
% V (V) @ t=0.1
0.006761564797178129
% es.normE (V/m) @ t=0.12
0.6705053607962452
% es.EX (V/m) @ t=0.12
-0.4800202646370485
% es.EY (V/m) @ t=0.12
0.1828082336402601
% es.EZ (V/m) @ t=0.12
-0.42834434891804163
% es.tEX (V/m) @ t=0.12
-0.4800202646370497
% es.tEY (V/m) @ t=0.12
0
% es.tEZ (V/m) @ t=0.12
-0.42834434891803763
% es.Ex (V/m) @ t=0.12
-0.4800202646370485
% es.Ey (V/m) @ t=0.12
0.1828082336402601
% es.Ez (V/m) @ t=0.12
-0.42834434891804163
% es.tEx (V/m) @ t=0.12
-0.4800202646370497
% es.tEy (V/m) @ t=0.12
0
% es.tEz (V/m) @ t=0.12
-0.42834434891803763
% V (V) @ t=0.12
0.0068236162671125936
% es.normE (V/m) @ t=0.14
0.6766571643686623
% es.EX (V/m) @ t=0.14
-0.4844243916299148
% es.EY (V/m) @ t=0.14
0.18448548897092132
% es.EZ (V/m) @ t=0.14
-0.43227434781692775
% es.tEX (V/m) @ t=0.14
-0.4844243916299107
% es.tEY (V/m) @ t=0.14
0
% es.tEZ (V/m) @ t=0.14
-0.43227434781692686
% es.Ex (V/m) @ t=0.14
-0.4844243916299148
% es.Ey (V/m) @ t=0.14
0.18448548897092132
% es.Ez (V/m) @ t=0.14
-0.43227434781692775
% es.tEx (V/m) @ t=0.14
-0.4844243916299107
% es.tEy (V/m) @ t=0.14
0
% es.tEz (V/m) @ t=0.14
-0.43227434781692686
% V (V) @ t=0.14
0.006886221381272009
% es.normE (V/m) @ t=0.16
0.6830813186389622
% es.EX (V/m) @ t=0.16
-0.4890234952262612
% es.EY (V/m) @ t=0.16
0.18623696539464452
% es.EZ (V/m) @ t=0.16
-0.43637835447818407
% es.tEX (V/m) @ t=0.16
-0.4890234952262589
% es.tEY (V/m) @ t=0.16
0
% es.tEZ (V/m) @ t=0.16
-0.43637835447818407
% es.Ex (V/m) @ t=0.16
-0.4890234952262612
% es.Ey (V/m) @ t=0.16
0.18623696539464452
% es.Ez (V/m) @ t=0.16
-0.43637835447818407
% es.tEx (V/m) @ t=0.16
-0.4890234952262589
% es.tEy (V/m) @ t=0.16
0
% es.tEz (V/m) @ t=0.16
-0.43637835447818407
% V (V) @ t=0.16
0.006951600076633129
% es.normE (V/m) @ t=0.18
0.6895054729092578
% es.EX (V/m) @ t=0.18
-0.49362259882260895
% es.EY (V/m) @ t=0.18
0.1879884418183544
% es.EZ (V/m) @ t=0.18
-0.44048236113943506
% es.tEX (V/m) @ t=0.18
-0.49362259882261106
% es.tEY (V/m) @ t=0.18
0
% es.tEZ (V/m) @ t=0.18
-0.44048236113943595
% es.Ex (V/m) @ t=0.18
-0.49362259882260895
% es.Ey (V/m) @ t=0.18
0.1879884418183544
% es.Ez (V/m) @ t=0.18
-0.44048236113943506
% es.tEx (V/m) @ t=0.18
-0.49362259882261106
% es.tEy (V/m) @ t=0.18
0
% es.tEz (V/m) @ t=0.18
-0.44048236113943595
% V (V) @ t=0.18
0.007016978771994251
% es.normE (V/m) @ t=0.2
0.6959296271795665
% es.EX (V/m) @ t=0.2
-0.49822170241895736
% es.EY (V/m) @ t=0.2
0.18973991824208114
% es.EZ (V/m) @ t=0.2
-0.44458636780069893
% es.tEX (V/m) @ t=0.2
-0.4982217024189559
% es.tEY (V/m) @ t=0.2
0
% es.tEZ (V/m) @ t=0.2
-0.44458636780070115
% es.Ex (V/m) @ t=0.2
-0.49822170241895736
% es.Ey (V/m) @ t=0.2
0.18973991824208114
% es.Ez (V/m) @ t=0.2
-0.44458636780069893
% es.tEx (V/m) @ t=0.2
-0.4982217024189559
% es.tEy (V/m) @ t=0.2
0
% es.tEz (V/m) @ t=0.2
-0.44458636780070115
% V (V) @ t=0.2
0.007082357467355372
% es.normE (V/m) @ t=0.22
0.7023537814498735
% es.EX (V/m) @ t=0.22
-0.502820806015312
% es.EY (V/m) @ t=0.22
0.19149139466580123
% es.EZ (V/m) @ t=0.22
-0.44869037446195037
% es.tEX (V/m) @ t=0.22
-0.5028208060153099
% es.tEY (V/m) @ t=0.22
0
% es.tEZ (V/m) @ t=0.22
-0.44869037446195215
% es.Ex (V/m) @ t=0.22
-0.502820806015312
% es.Ey (V/m) @ t=0.22
0.19149139466580123
% es.Ez (V/m) @ t=0.22
-0.44869037446195037
% es.tEx (V/m) @ t=0.22
-0.5028208060153099
% es.tEy (V/m) @ t=0.22
0
% es.tEz (V/m) @ t=0.22
-0.44869037446195215
% V (V) @ t=0.22
0.007147736162716493
% es.normE (V/m) @ t=0.24
0.7087779357201749
% es.EX (V/m) @ t=0.24
-0.5074199096116568
% es.EY (V/m) @ t=0.24
0.1932428710895291
% es.EZ (V/m) @ t=0.24
-0.4527943811231996
% es.tEX (V/m) @ t=0.24
-0.5074199096116585
% es.tEY (V/m) @ t=0.24
0
% es.tEZ (V/m) @ t=0.24
-0.4527943811232058
% es.Ex (V/m) @ t=0.24
-0.5074199096116568
% es.Ey (V/m) @ t=0.24
0.1932428710895291
% es.Ez (V/m) @ t=0.24
-0.4527943811231996
% es.tEx (V/m) @ t=0.24
-0.5074199096116585
% es.tEy (V/m) @ t=0.24
0
% es.tEz (V/m) @ t=0.24
-0.4527943811232058
% V (V) @ t=0.24
0.007213114858077613
% es.normE (V/m) @ t=0.26
0.7152020899904861
% es.EX (V/m) @ t=0.26
-0.5120190132080035
% es.EY (V/m) @ t=0.26
0.19499434751324585
% es.EZ (V/m) @ t=0.26
-0.4568983877844648
% es.tEX (V/m) @ t=0.26
-0.5120190132080029
% es.tEY (V/m) @ t=0.26
0
% es.tEZ (V/m) @ t=0.26
-0.4568983877844648
% es.Ex (V/m) @ t=0.26
-0.5120190132080035
% es.Ey (V/m) @ t=0.26
0.19499434751324585
% es.Ez (V/m) @ t=0.26
-0.4568983877844648
% es.tEx (V/m) @ t=0.26
-0.5120190132080029
% es.tEy (V/m) @ t=0.26
0
% es.tEz (V/m) @ t=0.26
-0.4568983877844648
% V (V) @ t=0.26
0.0072784935534387345
% es.normE (V/m) @ t=0.28
0.7218783036136798
% es.EX (V/m) @ t=0.28
-0.5167985661318294
% es.EY (V/m) @ t=0.28
0.19681449884208613
% es.EZ (V/m) @ t=0.28
-0.46116344749293603
% es.tEX (V/m) @ t=0.28
-0.5167985661318275
% es.tEY (V/m) @ t=0.28
0
% es.tEZ (V/m) @ t=0.28
-0.46116344749293603
% es.Ex (V/m) @ t=0.28
-0.5167985661318294
% es.Ey (V/m) @ t=0.28
0.19681449884208613
% es.Ez (V/m) @ t=0.28
-0.46116344749293603
% es.tEx (V/m) @ t=0.28
-0.5167985661318275
% es.tEy (V/m) @ t=0.28
0
% es.tEz (V/m) @ t=0.28
-0.46116344749293603
% V (V) @ t=0.28
0.007346440114423971
% es.normE (V/m) @ t=0.3
0.7290377710090894
% es.EX (V/m) @ t=0.3
-0.5219240805015907
% es.EY (V/m) @ t=0.3
0.19876631521951293
% es.EZ (V/m) @ t=0.3
-0.4657372816694023
% es.tEX (V/m) @ t=0.3
-0.5219240805015888
% es.tEY (V/m) @ t=0.3
0
% es.tEZ (V/m) @ t=0.3
-0.465737281669405
% es.Ex (V/m) @ t=0.3
-0.5219240805015907
% es.Ey (V/m) @ t=0.3
0.19876631521951293
% es.Ez (V/m) @ t=0.3
-0.4657372816694023
% es.tEx (V/m) @ t=0.3
-0.5219240805015888
% es.tEy (V/m) @ t=0.3
0
% es.tEz (V/m) @ t=0.3
-0.465737281669405
% V (V) @ t=0.3
0.007419309844238606
% es.normE (V/m) @ t=0.32
0.7361972384045892
% es.EX (V/m) @ t=0.32
-0.5270495948713577
% es.EY (V/m) @ t=0.32
0.20071813159695284
% es.EZ (V/m) @ t=0.32
-0.47031111584587215
% es.tEX (V/m) @ t=0.32
-0.5270495948713554
% es.tEY (V/m) @ t=0.32
0
% es.tEZ (V/m) @ t=0.32
-0.4703111158458748
% es.Ex (V/m) @ t=0.32
-0.5270495948713577
% es.Ey (V/m) @ t=0.32
0.20071813159695284
% es.Ez (V/m) @ t=0.32
-0.47031111584587215
% es.tEx (V/m) @ t=0.32
-0.5270495948713554
% es.tEy (V/m) @ t=0.32
0
% es.tEz (V/m) @ t=0.32
-0.4703111158458748
% V (V) @ t=0.32
0.007492179574053245
% es.normE (V/m) @ t=0.34
0.7433567058001586
% es.EX (V/m) @ t=0.34
-0.5321751092411175
% es.EY (V/m) @ t=0.34
0.20266994797438653
% es.EZ (V/m) @ t=0.34
-0.4748849500223393
% es.tEX (V/m) @ t=0.34
-0.5321751092411167
% es.tEY (V/m) @ t=0.34
0
% es.tEZ (V/m) @ t=0.34
-0.4748849500223402
% es.Ex (V/m) @ t=0.34
-0.5321751092411175
% es.Ey (V/m) @ t=0.34
0.20266994797438653
% es.Ez (V/m) @ t=0.34
-0.4748849500223393
% es.tEx (V/m) @ t=0.34
-0.5321751092411167
% es.tEy (V/m) @ t=0.34
0
% es.tEz (V/m) @ t=0.34
-0.4748849500223402
% V (V) @ t=0.34
0.00756504930386788
% es.normE (V/m) @ t=0.36
0.7505161731958061
% es.EX (V/m) @ t=0.36
-0.5373006236108776
% es.EY (V/m) @ t=0.36
0.20462176435181556
% es.EZ (V/m) @ t=0.36
-0.4794587841988127
% es.tEX (V/m) @ t=0.36
-0.5373006236108766
% es.tEY (V/m) @ t=0.36
0
% es.tEZ (V/m) @ t=0.36
-0.4794587841988145
% es.Ex (V/m) @ t=0.36
-0.5373006236108776
% es.Ey (V/m) @ t=0.36
0.20462176435181556
% es.Ez (V/m) @ t=0.36
-0.4794587841988127
% es.tEx (V/m) @ t=0.36
-0.5373006236108766
% es.tEy (V/m) @ t=0.36
0
% es.tEz (V/m) @ t=0.36
-0.4794587841988145
% V (V) @ t=0.36
0.007637919033682515
% es.normE (V/m) @ t=0.38
0.7576756405915214
% es.EX (V/m) @ t=0.38
-0.5424261379806362
% es.EY (V/m) @ t=0.38
0.20657358072924725
% es.EZ (V/m) @ t=0.38
-0.4840326183752781
% es.tEX (V/m) @ t=0.38
-0.5424261379806357
% es.tEY (V/m) @ t=0.38
0
% es.tEZ (V/m) @ t=0.38
-0.484032618375279
% es.Ex (V/m) @ t=0.38
-0.5424261379806362
% es.Ey (V/m) @ t=0.38
0.20657358072924725
% es.Ez (V/m) @ t=0.38
-0.4840326183752781
% es.tEx (V/m) @ t=0.38
-0.5424261379806357
% es.tEy (V/m) @ t=0.38
0
% es.tEz (V/m) @ t=0.38
-0.484032618375279
% V (V) @ t=0.38
0.007710788763497154
% es.normE (V/m) @ t=0.4
0.7648351079873192
% es.EX (V/m) @ t=0.4
-0.5475516523504095
% es.EY (V/m) @ t=0.4
0.20852539710668938
% es.EZ (V/m) @ t=0.4
-0.48860645255174173
% es.tEX (V/m) @ t=0.4
-0.5475516523504085
% es.tEY (V/m) @ t=0.4
0
% es.tEZ (V/m) @ t=0.4
-0.48860645255173907
% es.Ex (V/m) @ t=0.4
-0.5475516523504095
% es.Ey (V/m) @ t=0.4
0.20852539710668938
% es.Ez (V/m) @ t=0.4
-0.48860645255174173
% es.tEx (V/m) @ t=0.4
-0.5475516523504085
% es.tEy (V/m) @ t=0.4
0
% es.tEz (V/m) @ t=0.4
-0.48860645255173907
% V (V) @ t=0.4
0.00778365849331179
% es.normE (V/m) @ t=0.42
0.771994575383189
% es.EX (V/m) @ t=0.42
-0.5526771667201734
% es.EY (V/m) @ t=0.42
0.2104772134841255
% es.EZ (V/m) @ t=0.42
-0.49318028672822045
% es.tEX (V/m) @ t=0.42
-0.5526771667201724
% es.tEY (V/m) @ t=0.42
0
% es.tEZ (V/m) @ t=0.42
-0.49318028672821423
% es.Ex (V/m) @ t=0.42
-0.5526771667201734
% es.Ey (V/m) @ t=0.42
0.2104772134841255
% es.Ez (V/m) @ t=0.42
-0.49318028672822045
% es.tEx (V/m) @ t=0.42
-0.5526771667201724
% es.tEy (V/m) @ t=0.42
0
% es.tEz (V/m) @ t=0.42
-0.49318028672821423
% V (V) @ t=0.42
0.007856528223126425
% es.normE (V/m) @ t=0.44
0.7791540427791093
% es.EX (V/m) @ t=0.44
-0.5578026810899349
% es.EY (V/m) @ t=0.44
0.2124290298615572
% es.EZ (V/m) @ t=0.44
-0.49775412090467963
% es.tEX (V/m) @ t=0.44
-0.5578026810899339
% es.tEY (V/m) @ t=0.44
0
% es.tEZ (V/m) @ t=0.44
-0.4977541209046761
% es.Ex (V/m) @ t=0.44
-0.5578026810899349
% es.Ey (V/m) @ t=0.44
0.2124290298615572
% es.Ez (V/m) @ t=0.44
-0.49775412090467963
% es.tEx (V/m) @ t=0.44
-0.5578026810899339
% es.tEy (V/m) @ t=0.44
0
% es.tEz (V/m) @ t=0.44
-0.4977541209046761
% V (V) @ t=0.44
0.007929397952941062
% es.normE (V/m) @ t=0.46
0.7863135101751083
% es.EX (V/m) @ t=0.46
-0.5629281954596984
% es.EY (V/m) @ t=0.46
0.21438084623897957
% es.EZ (V/m) @ t=0.46
-0.5023279550811601
% es.tEX (V/m) @ t=0.46
-0.562928195459697
% es.tEY (V/m) @ t=0.46
0
% es.tEZ (V/m) @ t=0.46
-0.5023279550811575
% es.Ex (V/m) @ t=0.46
-0.5629281954596984
% es.Ey (V/m) @ t=0.46
0.21438084623897957
% es.Ez (V/m) @ t=0.46
-0.5023279550811601
% es.tEx (V/m) @ t=0.46
-0.562928195459697
% es.tEy (V/m) @ t=0.46
0
% es.tEz (V/m) @ t=0.46
-0.5023279550811575
% V (V) @ t=0.46
0.008002267682755698
% es.normE (V/m) @ t=0.48
0.7934729775711589
% es.EX (V/m) @ t=0.48
-0.5680537098294637
% es.EY (V/m) @ t=0.48
0.21633266261642436
% es.EZ (V/m) @ t=0.48
-0.5069017892576104
% es.tEX (V/m) @ t=0.48
-0.5680537098294622
% es.tEY (V/m) @ t=0.48
0
% es.tEZ (V/m) @ t=0.48
-0.5069017892576131
% es.Ex (V/m) @ t=0.48
-0.5680537098294637
% es.Ey (V/m) @ t=0.48
0.21633266261642436
% es.Ez (V/m) @ t=0.48
-0.5069017892576104
% es.tEx (V/m) @ t=0.48
-0.5680537098294622
% es.tEy (V/m) @ t=0.48
0
% es.tEz (V/m) @ t=0.48
-0.5069017892576131
% V (V) @ t=0.48
0.008075137412570335
% es.normE (V/m) @ t=0.5
0.8006324449672804
% es.EX (V/m) @ t=0.5
-0.5731792241992241
% es.EY (V/m) @ t=0.5
0.21828447899384895
% es.EZ (V/m) @ t=0.5
-0.5114756234340883
% es.tEX (V/m) @ t=0.5
-0.5731792241992231
% es.tEY (V/m) @ t=0.5
0
% es.tEZ (V/m) @ t=0.5
-0.5114756234340927
% es.Ex (V/m) @ t=0.5
-0.5731792241992241
% es.Ey (V/m) @ t=0.5
0.21828447899384895
% es.Ez (V/m) @ t=0.5
-0.5114756234340883
% es.tEx (V/m) @ t=0.5
-0.5731792241992231
% es.tEy (V/m) @ t=0.5
0
% es.tEz (V/m) @ t=0.5
-0.5114756234340927
% V (V) @ t=0.5
0.00814800714238497
% es.normE (V/m) @ t=0.52
0.8077919123634627
% es.EX (V/m) @ t=0.52
-0.5783047385689868
% es.EY (V/m) @ t=0.52
0.22023629537129708
% es.EZ (V/m) @ t=0.52
-0.5160494576105537
% es.tEX (V/m) @ t=0.52
-0.5783047385689848
% es.tEY (V/m) @ t=0.52
0
% es.tEZ (V/m) @ t=0.52
-0.516049457610559
% es.Ex (V/m) @ t=0.52
-0.5783047385689868
% es.Ey (V/m) @ t=0.52
0.22023629537129708
% es.Ez (V/m) @ t=0.52
-0.5160494576105537
% es.tEx (V/m) @ t=0.52
-0.5783047385689848
% es.tEy (V/m) @ t=0.52
0
% es.tEz (V/m) @ t=0.52
-0.516049457610559
% V (V) @ t=0.52
0.008220876872199608
% es.normE (V/m) @ t=0.54
0.8149513797596992
% es.EX (V/m) @ t=0.54
-0.5834302529387531
% es.EY (V/m) @ t=0.54
0.2221881117487241
% es.EZ (V/m) @ t=0.54
-0.5206232917870182
% es.tEX (V/m) @ t=0.54
-0.5834302529387541
% es.tEY (V/m) @ t=0.54
0
% es.tEZ (V/m) @ t=0.54
-0.5206232917870146
% es.Ex (V/m) @ t=0.54
-0.5834302529387531
% es.Ey (V/m) @ t=0.54
0.2221881117487241
% es.Ez (V/m) @ t=0.54
-0.5206232917870182
% es.tEx (V/m) @ t=0.54
-0.5834302529387541
% es.tEy (V/m) @ t=0.54
0
% es.tEz (V/m) @ t=0.54
-0.5206232917870146
% V (V) @ t=0.54
0.008293746602014245
% es.normE (V/m) @ t=0.56
0.8226919426626662
% es.EX (V/m) @ t=0.56
-0.5889717576475941
% es.EY (V/m) @ t=0.56
0.22429791963083057
% es.EZ (V/m) @ t=0.56
-0.525568614257701
% es.tEX (V/m) @ t=0.56
-0.5889717576475944
% es.tEY (V/m) @ t=0.56
0
% es.tEZ (V/m) @ t=0.56
-0.5255686142577041
% es.Ex (V/m) @ t=0.56
-0.5889717576475941
% es.Ey (V/m) @ t=0.56
0.22429791963083057
% es.Ez (V/m) @ t=0.56
-0.525568614257701
% es.tEx (V/m) @ t=0.56
-0.5889717576475944
% es.tEy (V/m) @ t=0.56
0
% es.tEz (V/m) @ t=0.56
-0.5255686142577041
% V (V) @ t=0.56
0.008372555117259494
% es.normE (V/m) @ t=0.58
0.8306868224445906
% es.EX (V/m) @ t=0.58
-0.5946953208354365
% es.EY (V/m) @ t=0.58
0.2264768726116
% es.EZ (V/m) @ t=0.58
-0.5306765188546114
% es.tEX (V/m) @ t=0.58
-0.5946953208354355
% es.tEY (V/m) @ t=0.58
0
% es.tEZ (V/m) @ t=0.58
-0.5306765188546114
% es.Ex (V/m) @ t=0.58
-0.5946953208354365
% es.Ey (V/m) @ t=0.58
0.2264768726116
% es.Ez (V/m) @ t=0.58
-0.5306765188546114
% es.tEx (V/m) @ t=0.58
-0.5946953208354355
% es.tEy (V/m) @ t=0.58
0
% es.tEz (V/m) @ t=0.58
-0.5306765188546114
% V (V) @ t=0.58
0.008453962746332663
% es.normE (V/m) @ t=0.6
0.8386817022281701
% es.EX (V/m) @ t=0.6
-0.6004188840232806
% es.EY (V/m) @ t=0.6
0.22865582559236652
% es.EZ (V/m) @ t=0.6
-0.5357844234515055
% es.tEX (V/m) @ t=0.6
-0.60041888402328
% es.tEY (V/m) @ t=0.6
0
% es.tEZ (V/m) @ t=0.6
-0.535784423451509
% es.Ex (V/m) @ t=0.6
-0.6004188840232806
% es.Ey (V/m) @ t=0.6
0.22865582559236652
% es.Ez (V/m) @ t=0.6
-0.5357844234515055
% es.tEx (V/m) @ t=0.6
-0.60041888402328
% es.tEy (V/m) @ t=0.6
0
% es.tEz (V/m) @ t=0.6
-0.535784423451509
% V (V) @ t=0.6
0.00853537037540583
% es.normE (V/m) @ t=0.62
0.846676582013378
% es.EX (V/m) @ t=0.62
-0.6061424472111362
% es.EY (V/m) @ t=0.62
0.23083477857312706
% es.EZ (V/m) @ t=0.62
-0.5408923280484061
% es.tEX (V/m) @ t=0.62
-0.6061424472111374
% es.tEY (V/m) @ t=0.62
0
% es.tEZ (V/m) @ t=0.62
-0.5408923280484021
% es.Ex (V/m) @ t=0.62
-0.6061424472111362
% es.Ey (V/m) @ t=0.62
0.23083477857312706
% es.Ez (V/m) @ t=0.62
-0.5408923280484061
% es.tEx (V/m) @ t=0.62
-0.6061424472111374
% es.tEy (V/m) @ t=0.62
0
% es.tEz (V/m) @ t=0.62
-0.5408923280484021
% V (V) @ t=0.62
0.008616778004479
% es.normE (V/m) @ t=0.64
0.8546714618001506
% es.EX (V/m) @ t=0.64
-0.6118660103989798
% es.EY (V/m) @ t=0.64
0.2330137315538925
% es.EZ (V/m) @ t=0.64
-0.5460002326453068
% es.tEX (V/m) @ t=0.64
-0.6118660103989824
% es.tEY (V/m) @ t=0.64
0
% es.tEZ (V/m) @ t=0.64
-0.5460002326453113
% es.Ex (V/m) @ t=0.64
-0.6118660103989798
% es.Ey (V/m) @ t=0.64
0.2330137315538925
% es.Ez (V/m) @ t=0.64
-0.5460002326453068
% es.tEx (V/m) @ t=0.64
-0.6118660103989824
% es.tEy (V/m) @ t=0.64
0
% es.tEz (V/m) @ t=0.64
-0.5460002326453113
% V (V) @ t=0.64
0.008698185633552168
% es.normE (V/m) @ t=0.66
0.8626663415884541
% es.EX (V/m) @ t=0.66
-0.6175895735868272
% es.EY (V/m) @ t=0.66
0.23519268453466213
% es.EZ (V/m) @ t=0.66
-0.5511081372422053
% es.tEX (V/m) @ t=0.66
-0.6175895735868246
% es.tEY (V/m) @ t=0.66
0
% es.tEZ (V/m) @ t=0.66
-0.5511081372422
% es.Ex (V/m) @ t=0.66
-0.6175895735868272
% es.Ey (V/m) @ t=0.66
0.23519268453466213
% es.Ez (V/m) @ t=0.66
-0.5511081372422053
% es.tEx (V/m) @ t=0.66
-0.6175895735868246
% es.tEy (V/m) @ t=0.66
0
% es.tEz (V/m) @ t=0.66
-0.5511081372422
% V (V) @ t=0.66
0.008779593262625339
% es.normE (V/m) @ t=0.68
0.8706612213782413
% es.EX (V/m) @ t=0.68
-0.6233131367746757
% es.EY (V/m) @ t=0.68
0.23737163751542867
% es.EZ (V/m) @ t=0.68
-0.5562160418390976
% es.tEX (V/m) @ t=0.68
-0.6233131367746729
% es.tEY (V/m) @ t=0.68
0
% es.tEZ (V/m) @ t=0.68
-0.5562160418391011
% es.Ex (V/m) @ t=0.68
-0.6233131367746757
% es.Ey (V/m) @ t=0.68
0.23737163751542867
% es.Ez (V/m) @ t=0.68
-0.5562160418390976
% es.tEx (V/m) @ t=0.68
-0.6233131367746729
% es.tEy (V/m) @ t=0.68
0
% es.tEz (V/m) @ t=0.68
-0.5562160418391011
% V (V) @ t=0.68
0.008861000891698506
% es.normE (V/m) @ t=0.7
0.8786561011694773
% es.EX (V/m) @ t=0.7
-0.6290366999625189
% es.EY (V/m) @ t=0.7
0.23955059049620608
% es.EZ (V/m) @ t=0.7
-0.5613239464359969
% es.tEX (V/m) @ t=0.7
-0.6290366999625214
% es.tEY (V/m) @ t=0.7
0
% es.tEZ (V/m) @ t=0.7
-0.5613239464360014
% es.Ex (V/m) @ t=0.7
-0.6290366999625189
% es.Ey (V/m) @ t=0.7
0.23955059049620608
% es.Ez (V/m) @ t=0.7
-0.5613239464359969
% es.tEx (V/m) @ t=0.7
-0.6290366999625214
% es.tEy (V/m) @ t=0.7
0
% es.tEz (V/m) @ t=0.7
-0.5613239464360014
% V (V) @ t=0.7
0.008942408520771675
% es.normE (V/m) @ t=0.72
0.8866509809621244
% es.EX (V/m) @ t=0.72
-0.6347602631503714
% es.EY (V/m) @ t=0.72
0.24172954347695463
% es.EZ (V/m) @ t=0.72
-0.5664318510329043
% es.tEX (V/m) @ t=0.72
-0.6347602631503682
% es.tEY (V/m) @ t=0.72
0
% es.tEZ (V/m) @ t=0.72
-0.5664318510329034
% es.Ex (V/m) @ t=0.72
-0.6347602631503714
% es.Ey (V/m) @ t=0.72
0.24172954347695463
% es.Ez (V/m) @ t=0.72
-0.5664318510329043
% es.tEx (V/m) @ t=0.72
-0.6347602631503682
% es.tEy (V/m) @ t=0.72
0
% es.tEz (V/m) @ t=0.72
-0.5664318510329034
% V (V) @ t=0.72
0.009023816149844845
% es.normE (V/m) @ t=0.74
0.8946458607561312
% es.EX (V/m) @ t=0.74
-0.6404838263382173
% es.EY (V/m) @ t=0.74
0.24390849645771784
% es.EZ (V/m) @ t=0.74
-0.571539755629797
% es.tEX (V/m) @ t=0.74
-0.6404838263382162
% es.tEY (V/m) @ t=0.74
0
% es.tEZ (V/m) @ t=0.74
-0.5715397556298001
% es.Ex (V/m) @ t=0.74
-0.6404838263382173
% es.Ey (V/m) @ t=0.74
0.24390849645771784
% es.Ez (V/m) @ t=0.74
-0.571539755629797
% es.tEx (V/m) @ t=0.74
-0.6404838263382162
% es.tEy (V/m) @ t=0.74
0
% es.tEz (V/m) @ t=0.74
-0.5715397556298001
% V (V) @ t=0.74
0.009105223778918013
% es.normE (V/m) @ t=0.76
0.9026407405514694
% es.EX (V/m) @ t=0.76
-0.6462073895260628
% es.EY (V/m) @ t=0.76
0.24608744943848015
% es.EZ (V/m) @ t=0.76
-0.5766476602266879
% es.tEX (V/m) @ t=0.76
-0.6462073895260649
% es.tEY (V/m) @ t=0.76
0
% es.tEZ (V/m) @ t=0.76
-0.5766476602266923
% es.Ex (V/m) @ t=0.76
-0.6462073895260628
% es.Ey (V/m) @ t=0.76
0.24608744943848015
% es.Ez (V/m) @ t=0.76
-0.5766476602266879
% es.tEx (V/m) @ t=0.76
-0.6462073895260649
% es.tEy (V/m) @ t=0.76
0
% es.tEz (V/m) @ t=0.76
-0.5766476602266923
% V (V) @ t=0.76
0.009186631407991183
% es.normE (V/m) @ t=0.78
0.9106356203481158
% es.EX (V/m) @ t=0.78
-0.6519309527139105
% es.EY (V/m) @ t=0.78
0.24826640241926556
% es.EZ (V/m) @ t=0.78
-0.5817555648235833
% es.tEX (V/m) @ t=0.78
-0.6519309527139112
% es.tEY (V/m) @ t=0.78
0
% es.tEZ (V/m) @ t=0.78
-0.5817555648235899
% es.Ex (V/m) @ t=0.78
-0.6519309527139105
% es.Ey (V/m) @ t=0.78
0.24826640241926556
% es.Ez (V/m) @ t=0.78
-0.5817555648235833
% es.tEx (V/m) @ t=0.78
-0.6519309527139112
% es.tEy (V/m) @ t=0.78
0
% es.tEz (V/m) @ t=0.78
-0.5817555648235899
% V (V) @ t=0.78
0.009268039037064352
% es.normE (V/m) @ t=0.8
0.9186305001460263
% es.EX (V/m) @ t=0.8
-0.6576545159017586
% es.EY (V/m) @ t=0.8
0.2504453554000061
% es.EZ (V/m) @ t=0.8
-0.5868634694204986
% es.tEX (V/m) @ t=0.8
-0.6576545159017555
% es.tEY (V/m) @ t=0.8
0
% es.tEZ (V/m) @ t=0.8
-0.586863469420499
% es.Ex (V/m) @ t=0.8
-0.6576545159017586
% es.Ey (V/m) @ t=0.8
0.2504453554000061
% es.Ez (V/m) @ t=0.8
-0.5868634694204986
% es.tEx (V/m) @ t=0.8
-0.6576545159017555
% es.tEy (V/m) @ t=0.8
0
% es.tEz (V/m) @ t=0.8
-0.586863469420499
% V (V) @ t=0.8
0.009349446666137521
% es.normE (V/m) @ t=0.82
0.926670872184843
% es.EX (V/m) @ t=0.82
-0.6634106518608878
% es.EY (V/m) @ t=0.82
0.2526368096421756
% es.EZ (V/m) @ t=0.82
-0.5920003777634055
% es.tEX (V/m) @ t=0.82
-0.663410651860886
% es.tEY (V/m) @ t=0.82
0
% es.tEZ (V/m) @ t=0.82
-0.592000377763406
% es.Ex (V/m) @ t=0.82
-0.6634106518608878
% es.Ey (V/m) @ t=0.82
0.2526368096421756
% es.Ez (V/m) @ t=0.82
-0.5920003777634055
% es.tEx (V/m) @ t=0.82
-0.663410651860886
% es.tEy (V/m) @ t=0.82
0
% es.tEz (V/m) @ t=0.82
-0.592000377763406
% V (V) @ t=0.82
0.009431311658327649
% es.normE (V/m) @ t=0.84
0.9356063231660956
% es.EX (V/m) @ t=0.84
-0.6698076707878748
% es.EY (V/m) @ t=0.84
0.25507423145729824
% es.EZ (V/m) @ t=0.84
-0.5977079470012874
% es.tEX (V/m) @ t=0.84
-0.6698076707878728
% es.tEY (V/m) @ t=0.84
0
% es.tEZ (V/m) @ t=0.84
-0.5977079470012825
% es.Ex (V/m) @ t=0.84
-0.6698076707878748
% es.Ey (V/m) @ t=0.84
0.25507423145729824
% es.Ez (V/m) @ t=0.84
-0.5977079470012874
% es.tEx (V/m) @ t=0.84
-0.6698076707878728
% es.tEy (V/m) @ t=0.84
0
% es.tEz (V/m) @ t=0.84
-0.5977079470012825
% V (V) @ t=0.84
0.009522175462107079
% es.normE (V/m) @ t=0.86
0.9445417741520763
% es.EX (V/m) @ t=0.86
-0.6762046897148586
% es.EY (V/m) @ t=0.86
0.25751165327240577
% es.EZ (V/m) @ t=0.86
-0.6034155162391874
% es.tEX (V/m) @ t=0.86
-0.6762046897148619
% es.tEY (V/m) @ t=0.86
0
% es.tEZ (V/m) @ t=0.86
-0.6034155162391936
% es.Ex (V/m) @ t=0.86
-0.6762046897148586
% es.Ey (V/m) @ t=0.86
0.25751165327240577
% es.Ez (V/m) @ t=0.86
-0.6034155162391874
% es.tEx (V/m) @ t=0.86
-0.6762046897148619
% es.tEy (V/m) @ t=0.86
0
% es.tEz (V/m) @ t=0.86
-0.6034155162391936
% V (V) @ t=0.86
0.009613039265886513
% es.normE (V/m) @ t=0.88
0.9534772251426449
% es.EX (V/m) @ t=0.88
-0.682601708641843
% es.EY (V/m) @ t=0.88
0.2599490750875193
% es.EZ (V/m) @ t=0.88
-0.6091230854770817
% es.tEX (V/m) @ t=0.88
-0.6826017086418412
% es.tEY (V/m) @ t=0.88
0
% es.tEZ (V/m) @ t=0.88
-0.6091230854770835
% es.Ex (V/m) @ t=0.88
-0.682601708641843
% es.Ey (V/m) @ t=0.88
0.2599490750875193
% es.Ez (V/m) @ t=0.88
-0.6091230854770817
% es.tEx (V/m) @ t=0.88
-0.6826017086418412
% es.tEy (V/m) @ t=0.88
0
% es.tEz (V/m) @ t=0.88
-0.6091230854770835
% V (V) @ t=0.88
0.009703903069665943
% es.normE (V/m) @ t=0.9
0.9624126761376832
% es.EX (V/m) @ t=0.9
-0.688998727568827
% es.EY (V/m) @ t=0.9
0.2623864969026395
% es.EZ (V/m) @ t=0.9
-0.6148306547149818
% es.tEX (V/m) @ t=0.9
-0.6889987275688223
% es.tEY (V/m) @ t=0.9
0
% es.tEZ (V/m) @ t=0.9
-0.6148306547149733
% es.Ex (V/m) @ t=0.9
-0.688998727568827
% es.Ey (V/m) @ t=0.9
0.2623864969026395
% es.Ez (V/m) @ t=0.9
-0.6148306547149818
% es.tEx (V/m) @ t=0.9
-0.6889987275688223
% es.tEy (V/m) @ t=0.9
0
% es.tEz (V/m) @ t=0.9
-0.6148306547149733
% V (V) @ t=0.9
0.009794766873445375
% es.normE (V/m) @ t=0.92
0.971348127137043
% es.EX (V/m) @ t=0.92
-0.6953957464957932
% es.EY (V/m) @ t=0.92
0.2648239187177639
% es.EZ (V/m) @ t=0.92
-0.6205382239528747
% es.tEX (V/m) @ t=0.92
-0.6953957464957958
% es.tEY (V/m) @ t=0.92
0
% es.tEZ (V/m) @ t=0.92
-0.6205382239528765
% es.Ex (V/m) @ t=0.92
-0.6953957464957932
% es.Ey (V/m) @ t=0.92
0.2648239187177639
% es.Ez (V/m) @ t=0.92
-0.6205382239528747
% es.tEx (V/m) @ t=0.92
-0.6953957464957958
% es.tEy (V/m) @ t=0.92
0
% es.tEz (V/m) @ t=0.92
-0.6205382239528765
% V (V) @ t=0.92
0.009885630677224803
% es.normE (V/m) @ t=0.94
0.9802835781406374
% es.EX (V/m) @ t=0.94
-0.7017927654227794
% es.EY (V/m) @ t=0.94
0.26726134053287764
% es.EZ (V/m) @ t=0.94
-0.6262457931907717
% es.tEX (V/m) @ t=0.94
-0.7017927654227769
% es.tEY (V/m) @ t=0.94
0
% es.tEZ (V/m) @ t=0.94
-0.6262457931907672
% es.Ex (V/m) @ t=0.94
-0.7017927654227794
% es.Ey (V/m) @ t=0.94
0.26726134053287764
% es.Ez (V/m) @ t=0.94
-0.6262457931907717
% es.tEx (V/m) @ t=0.94
-0.7017927654227769
% es.tEy (V/m) @ t=0.94
0
% es.tEz (V/m) @ t=0.94
-0.6262457931907672
% V (V) @ t=0.94
0.009976494481004237
% es.normE (V/m) @ t=0.96
0.9892190291483436
% es.EX (V/m) @ t=0.96
-0.708189784349768
% es.EY (V/m) @ t=0.96
0.2696987623480036
% es.EZ (V/m) @ t=0.96
-0.6319533624286691
% es.tEX (V/m) @ t=0.96
-0.7081897843497651
% es.tEY (V/m) @ t=0.96
0
% es.tEZ (V/m) @ t=0.96
-0.6319533624286722
% es.Ex (V/m) @ t=0.96
-0.708189784349768
% es.Ey (V/m) @ t=0.96
0.2696987623480036
% es.Ez (V/m) @ t=0.96
-0.6319533624286691
% es.tEx (V/m) @ t=0.96
-0.7081897843497651
% es.tEy (V/m) @ t=0.96
0
% es.tEz (V/m) @ t=0.96
-0.6319533624286722
% V (V) @ t=0.96
0.010067358284783667
% es.normE (V/m) @ t=0.98
0.9981544801600263
% es.EX (V/m) @ t=0.98
-0.7145868032767493
% es.EY (V/m) @ t=0.98
0.272136184163112
% es.EZ (V/m) @ t=0.98
-0.6376609316665514
% es.tEX (V/m) @ t=0.98
-0.7145868032767493
% es.tEY (V/m) @ t=0.98
0
% es.tEZ (V/m) @ t=0.98
-0.637660931666554
% es.Ex (V/m) @ t=0.98
-0.7145868032767493
% es.Ey (V/m) @ t=0.98
0.272136184163112
% es.Ez (V/m) @ t=0.98
-0.6376609316665514
% es.tEx (V/m) @ t=0.98
-0.7145868032767493
% es.tEy (V/m) @ t=0.98
0
% es.tEz (V/m) @ t=0.98
-0.637660931666554
% V (V) @ t=0.98
0.0101582220885631
% es.normE (V/m) @ t=1
1.007089931175623
% es.EX (V/m) @ t=1
-0.7209838222037359
% es.EY (V/m) @ t=1
0.27457360597822955
% es.EZ (V/m) @ t=1
-0.6433685009044625
% es.tEX (V/m) @ t=1
-0.7209838222037295
% es.tEY (V/m) @ t=1
0
% es.tEZ (V/m) @ t=1
-0.6433685009044581
% es.Ex (V/m) @ t=1
-0.7209838222037359
% es.Ey (V/m) @ t=1
0.27457360597822955
% es.Ez (V/m) @ t=1
-0.6433685009044625
% es.tEx (V/m) @ t=1
-0.7209838222037295
% es.tEy (V/m) @ t=1
0
% es.tEz (V/m) @ t=1
-0.6433685009044581
% V (V) @ t=1
0.010249085892342531
% es.normE (V/m) @ t=1.02
1.0160253821949883
% es.EX (V/m) @ t=1.02
-0.7273808411307112
% es.EY (V/m) @ t=1.02
0.2770110277933413
% es.EZ (V/m) @ t=1.02
-0.6490760701423595
% es.tEX (V/m) @ t=1.02
-0.7273808411307137
% es.tEY (V/m) @ t=1.02
0
% es.tEZ (V/m) @ t=1.02
-0.6490760701423692
% es.Ex (V/m) @ t=1.02
-0.7273808411307112
% es.Ey (V/m) @ t=1.02
0.2770110277933413
% es.Ez (V/m) @ t=1.02
-0.6490760701423595
% es.tEx (V/m) @ t=1.02
-0.7273808411307137
% es.tEy (V/m) @ t=1.02
0