% Model:              1 neuron.mph
% Version:            COMSOL 6.0.0.405
% Date:               Mar 9 2023, 13:42
% Dimension:          0
% Nodes:              14017
% Expressions:        14017
% Description:        Electric field norm, Electric field, X component, Electric field, Y component, Electric field, Z component, Tangential electric field, X component, Tangential electric field, Y component, Tangential electric field, Z component, Electric field, x component, Electric field, y component, Electric field, z component, Tangential electric field, x component, Tangential electric field, y component, Tangential electric field, z component, Electric potential
% Length unit:        mm
% x
1.66
% y
12.2
% z
2
% es.normE (V/m) @ t=0
1.4672971103826802
% es.EX (V/m) @ t=0
-0.43772371804631777
% es.EY (V/m) @ t=0
0.03269594080213745
% es.EZ (V/m) @ t=0
-1.3977475484801132
% es.tEX (V/m) @ t=0
-0.4377237180463247
% es.tEY (V/m) @ t=0
0
% es.tEZ (V/m) @ t=0
-1.3977475484801305
% es.Ex (V/m) @ t=0
-0.43772371804631777
% es.Ey (V/m) @ t=0
0.03269594080213745
% es.Ez (V/m) @ t=0
-1.3977475484801132
% es.tEx (V/m) @ t=0
-0.4377237180463247
% es.tEy (V/m) @ t=0
0
% es.tEz (V/m) @ t=0
-1.3977475484801305
% V (V) @ t=0
0.007375250328453994
% es.normE (V/m) @ t=0.02
1.2673299135984353
% es.EX (V/m) @ t=0.02
-0.3780695526103858
% es.EY (V/m) @ t=0.02
0.028240053119951362
% es.EZ (V/m) @ t=0.02
-1.2072587527684804
% es.tEX (V/m) @ t=0.02
-0.3780695526103912
% es.tEY (V/m) @ t=0.02
0
% es.tEZ (V/m) @ t=0.02
-1.2072587527684857
% es.Ex (V/m) @ t=0.02
-0.3780695526103858
% es.Ey (V/m) @ t=0.02
0.028240053119951362
% es.Ez (V/m) @ t=0.02
-1.2072587527684804
% es.tEx (V/m) @ t=0.02
-0.3780695526103912
% es.tEy (V/m) @ t=0.02
0
% es.tEz (V/m) @ t=0.02
-1.2072587527684857
% V (V) @ t=0.02
0.006370131322305926
% es.normE (V/m) @ t=0.04
1.2789839177339668
% es.EX (V/m) @ t=0.04
-0.3815461726767549
% es.EY (V/m) @ t=0.04
0.02849974629422152
% es.EZ (V/m) @ t=0.04
-1.2183603591157568
% es.tEX (V/m) @ t=0.04
-0.3815461726767566
% es.tEY (V/m) @ t=0.04
0
% es.tEZ (V/m) @ t=0.04
-1.218360359115763
% es.Ex (V/m) @ t=0.04
-0.3815461726767549
% es.Ey (V/m) @ t=0.04
0.02849974629422152
% es.Ez (V/m) @ t=0.04
-1.2183603591157568
% es.tEx (V/m) @ t=0.04
-0.3815461726767566
% es.tEy (V/m) @ t=0.04
0
% es.tEz (V/m) @ t=0.04
-1.218360359115763
% V (V) @ t=0.04
0.006428709130992746
% es.normE (V/m) @ t=0.06
1.2907434994215925
% es.EX (V/m) @ t=0.06
-0.3850542875063584
% es.EY (V/m) @ t=0.06
0.028761775239160445
% es.EZ (V/m) @ t=0.06
-1.2295625402524832
% es.tEX (V/m) @ t=0.06
-0.3850542875063603
% es.tEY (V/m) @ t=0.06
0
% es.tEZ (V/m) @ t=0.06
-1.2295625402524886
% es.Ex (V/m) @ t=0.06
-0.3850542875063584
% es.Ey (V/m) @ t=0.06
0.028761775239160445
% es.Ez (V/m) @ t=0.06
-1.2295625402524832
% es.tEx (V/m) @ t=0.06
-0.3850542875063603
% es.tEy (V/m) @ t=0.06
0
% es.tEz (V/m) @ t=0.06
-1.2295625402524886
% V (V) @ t=0.06
0.0064878179142030335
% es.normE (V/m) @ t=0.08
1.3026813951143894
% es.EX (V/m) @ t=0.08
-0.3886155970509403
% es.EY (V/m) @ t=0.08
0.0290277794859329
% es.EZ (V/m) @ t=0.08
-1.2409345831693352
% es.tEX (V/m) @ t=0.08
-0.3886155970509435
% es.tEY (V/m) @ t=0.08
0
% es.tEZ (V/m) @ t=0.08
-1.2409345831693503
% es.Ex (V/m) @ t=0.08
-0.3886155970509403
% es.Ey (V/m) @ t=0.08
0.0290277794859329
% es.Ez (V/m) @ t=0.08
-1.2409345831693352
% es.tEx (V/m) @ t=0.08
-0.3886155970509435
% es.tEy (V/m) @ t=0.08
0
% es.tEz (V/m) @ t=0.08
-1.2409345831693503
% V (V) @ t=0.08
0.0065478229445640156
% es.normE (V/m) @ t=0.1
1.314745629652633
% es.EX (V/m) @ t=0.1
-0.3922145960572485
% es.EY (V/m) @ t=0.1
0.02929660030923001
% es.EZ (V/m) @ t=0.1
-1.2524269763703164
% es.tEX (V/m) @ t=0.1
-0.3922145960572543
% es.tEY (V/m) @ t=0.1
0
% es.tEZ (V/m) @ t=0.1
-1.2524269763703284
% es.Ex (V/m) @ t=0.1
-0.3922145960572485
% es.Ey (V/m) @ t=0.1
0.02929660030923001
% es.Ez (V/m) @ t=0.1
-1.2524269763703164
% es.tEx (V/m) @ t=0.1
-0.3922145960572543
% es.tEy (V/m) @ t=0.1
0
% es.tEz (V/m) @ t=0.1
-1.2524269763703284
% V (V) @ t=0.1
0.006608462982983533
% es.normE (V/m) @ t=0.12
1.3268098641908737
% es.EX (V/m) @ t=0.12
-0.3958135950635664
% es.EY (V/m) @ t=0.12
0.02956542113252557
% es.EZ (V/m) @ t=0.12
-1.2639193695712914
% es.tEX (V/m) @ t=0.12
-0.39581359506357217
% es.tEY (V/m) @ t=0.12
0
% es.tEZ (V/m) @ t=0.12
-1.2639193695713002
% es.Ex (V/m) @ t=0.12
-0.3958135950635664
% es.Ey (V/m) @ t=0.12
0.02956542113252557
% es.Ez (V/m) @ t=0.12
-1.2639193695712914
% es.tEx (V/m) @ t=0.12
-0.39581359506357217
% es.tEy (V/m) @ t=0.12
0
% es.tEz (V/m) @ t=0.12
-1.2639193695713002
% V (V) @ t=0.12
0.006669103021403049
% es.normE (V/m) @ t=0.14
1.3389904931181915
% es.EX (V/m) @ t=0.14
-0.3994473176413911
% es.EY (V/m) @ t=0.14
0.02983684815247372
% es.EZ (V/m) @ t=0.14
-1.2755226389054397
% es.tEX (V/m) @ t=0.14
-0.3994473176413962
% es.tEY (V/m) @ t=0.14
0
% es.tEZ (V/m) @ t=0.14
-1.2755226389054455
% es.Ex (V/m) @ t=0.14
-0.3994473176413911
% es.Ey (V/m) @ t=0.14
0.02983684815247372
% es.Ez (V/m) @ t=0.14
-1.2755226389054397
% es.tEx (V/m) @ t=0.14
-0.3994473176413962
% es.tEy (V/m) @ t=0.14
0
% es.tEz (V/m) @ t=0.14
-1.2755226389054455
% V (V) @ t=0.14
0.00673032788365019
% es.normE (V/m) @ t=0.16
1.351699288684233
% es.EX (V/m) @ t=0.16
-0.40323860650912957
% es.EY (V/m) @ t=0.16
0.03012010139648314
% es.EZ (V/m) @ t=0.16
-1.2876290345073964
% es.tEX (V/m) @ t=0.16
-0.40323860650913446
% es.tEY (V/m) @ t=0.16
0
% es.tEZ (V/m) @ t=0.16
-1.2876290345074013
% es.Ex (V/m) @ t=0.16
-0.40323860650912957
% es.Ey (V/m) @ t=0.16
0.03012010139648314
% es.Ez (V/m) @ t=0.16
-1.2876290345073964
% es.tEx (V/m) @ t=0.16
-0.40323860650913446
% es.tEy (V/m) @ t=0.16
0
% es.tEz (V/m) @ t=0.16
-1.2876290345074013
% V (V) @ t=0.16
0.006794206520170661
% es.normE (V/m) @ t=0.18
1.3644080842502797
% es.EX (V/m) @ t=0.18
-0.4070298953768672
% es.EY (V/m) @ t=0.18
0.03040335464048556
% es.EZ (V/m) @ t=0.18
-1.299735430109353
% es.tEX (V/m) @ t=0.18
-0.40702989537687273
% es.tEY (V/m) @ t=0.18
0
% es.tEZ (V/m) @ t=0.18
-1.2997354301093509
% es.Ex (V/m) @ t=0.18
-0.4070298953768672
% es.Ey (V/m) @ t=0.18
0.03040335464048556
% es.Ez (V/m) @ t=0.18
-1.299735430109353
% es.tEx (V/m) @ t=0.18
-0.40702989537687273
% es.tEy (V/m) @ t=0.18
0
% es.tEz (V/m) @ t=0.18
-1.2997354301093509
% V (V) @ t=0.18
0.00685808515669113
% es.normE (V/m) @ t=0.2
1.3771168798163254
% es.EX (V/m) @ t=0.2
-0.4108211842446101
% es.EY (V/m) @ t=0.2
0.030686607884493185
% es.EZ (V/m) @ t=0.2
-1.3118418257113023
% es.tEX (V/m) @ t=0.2
-0.4108211842446181
% es.tEY (V/m) @ t=0.2
0
% es.tEZ (V/m) @ t=0.2
-1.3118418257113156
% es.Ex (V/m) @ t=0.2
-0.4108211842446101
% es.Ey (V/m) @ t=0.2
0.030686607884493185
% es.Ez (V/m) @ t=0.2
-1.3118418257113023
% es.tEx (V/m) @ t=0.2
-0.4108211842446181
% es.tEy (V/m) @ t=0.2
0
% es.tEz (V/m) @ t=0.2
-1.3118418257113156
% V (V) @ t=0.2
0.006921963793211601
% es.normE (V/m) @ t=0.22
1.3898256753823781
% es.EX (V/m) @ t=0.22
-0.4146124731123495
% es.EY (V/m) @ t=0.22
0.030969861128493606
% es.EZ (V/m) @ t=0.22
-1.3239482213132554
% es.tEX (V/m) @ t=0.22
-0.41461247311235283
% es.tEY (V/m) @ t=0.22
0
% es.tEZ (V/m) @ t=0.22
-1.3239482213132723
% es.Ex (V/m) @ t=0.22
-0.4146124731123495
% es.Ey (V/m) @ t=0.22
0.030969861128493606
% es.Ez (V/m) @ t=0.22
-1.3239482213132554
% es.tEx (V/m) @ t=0.22
-0.41461247311235283
% es.tEy (V/m) @ t=0.22
0
% es.tEz (V/m) @ t=0.22
-1.3239482213132723
% V (V) @ t=0.22
0.006985842429732073
% es.normE (V/m) @ t=0.24
1.402534470948433
% es.EX (V/m) @ t=0.24
-0.4184037619800897
% es.EY (V/m) @ t=0.24
0.03125311437249604
% es.EZ (V/m) @ t=0.24
-1.336054616915205
% es.tEX (V/m) @ t=0.24
-0.4184037619800911
% es.tEY (V/m) @ t=0.24
0
% es.tEZ (V/m) @ t=0.24
-1.336054616915228
% es.Ex (V/m) @ t=0.24
-0.4184037619800897
% es.Ey (V/m) @ t=0.24
0.03125311437249604
% es.Ez (V/m) @ t=0.24
-1.336054616915205
% es.tEx (V/m) @ t=0.24
-0.4184037619800911
% es.tEy (V/m) @ t=0.24
0
% es.tEz (V/m) @ t=0.24
-1.336054616915228
% V (V) @ t=0.24
0.007049721066252545
% es.normE (V/m) @ t=0.26
1.4152432665144987
% es.EX (V/m) @ t=0.26
-0.4221950508478317
% es.EY (V/m) @ t=0.26
0.0315363676165038
% es.EZ (V/m) @ t=0.26
-1.3481610125171617
% es.tEX (V/m) @ t=0.26
-0.42219505084783293
% es.tEY (V/m) @ t=0.26
0
% es.tEZ (V/m) @ t=0.26
-1.3481610125171786
% es.Ex (V/m) @ t=0.26
-0.4221950508478317
% es.Ey (V/m) @ t=0.26
0.0315363676165038
% es.Ez (V/m) @ t=0.26
-1.3481610125171617
% es.tEx (V/m) @ t=0.26
-0.42219505084783293
% es.tEy (V/m) @ t=0.26
0
% es.tEz (V/m) @ t=0.26
-1.3481610125171786
% V (V) @ t=0.26
0.007113599702773017
% es.normE (V/m) @ t=0.28
1.4284914067735788
% es.EX (V/m) @ t=0.28
-0.42614720187753485
% es.EY (V/m) @ t=0.28
0.031831105288340385
% es.EZ (V/m) @ t=0.28
-1.36078123841342
% es.tEX (V/m) @ t=0.28
-0.42614720187754074
% es.tEY (V/m) @ t=0.28
0
% es.tEZ (V/m) @ t=0.28
-1.3607812384134244
% es.Ex (V/m) @ t=0.28
-0.42614720187753485
% es.Ey (V/m) @ t=0.28
0.031831105288340385
% es.Ez (V/m) @ t=0.28
-1.36078123841342
% es.tEx (V/m) @ t=0.28
-0.42614720187754074
% es.tEy (V/m) @ t=0.28
0
% es.tEz (V/m) @ t=0.28
-1.3607812384134244
% V (V) @ t=0.28
0.00718019878122108
% es.normE (V/m) @ t=0.3
1.4426534390639063
% es.EX (V/m) @ t=0.3
-0.43037192562298887
% es.EY (V/m) @ t=0.3
0.03214530273644505
% es.EZ (V/m) @ t=0.3
-1.3742721234941304
% es.tEX (V/m) @ t=0.3
-0.43037192562299253
% es.tEY (V/m) @ t=0.3
0
% es.tEZ (V/m) @ t=0.3
-1.3742721234941424
% es.Ex (V/m) @ t=0.3
-0.43037192562298887
% es.Ey (V/m) @ t=0.3
0.03214530273644505
% es.Ez (V/m) @ t=0.3
-1.3742721234941304
% es.tEx (V/m) @ t=0.3
-0.43037192562299253
% es.tEy (V/m) @ t=0.3
0
% es.tEz (V/m) @ t=0.3
-1.3742721234941424
% V (V) @ t=0.3
0.007251407509540624
% es.normE (V/m) @ t=0.32
1.4568154713565005
% es.EX (V/m) @ t=0.32
-0.43459664936844034
% es.EY (V/m) @ t=0.32
0.03245950018456503
% es.EZ (V/m) @ t=0.32
-1.38776300857484
% es.tEX (V/m) @ t=0.32
-0.43459664936844433
% es.tEY (V/m) @ t=0.32
0
% es.tEZ (V/m) @ t=0.32
-1.3877630085748542
% es.Ex (V/m) @ t=0.32
-0.43459664936844034
% es.Ey (V/m) @ t=0.32
0.03245950018456503
% es.Ez (V/m) @ t=0.32
-1.38776300857484
% es.tEx (V/m) @ t=0.32
-0.43459664936844433
% es.tEy (V/m) @ t=0.32
0
% es.tEz (V/m) @ t=0.32
-1.3877630085748542
% V (V) @ t=0.32
0.007322616237860171
% es.normE (V/m) @ t=0.34
1.4709775036513058
% es.EX (V/m) @ t=0.34
-0.43882137311389446
% es.EY (V/m) @ t=0.34
0.032773697632663475
% es.EZ (V/m) @ t=0.34
-1.4012538936555567
% es.tEX (V/m) @ t=0.34
-0.43882137311389613
% es.tEY (V/m) @ t=0.34
0
% es.tEZ (V/m) @ t=0.34
-1.4012538936555732
% es.Ex (V/m) @ t=0.34
-0.43882137311389446
% es.Ey (V/m) @ t=0.34
0.032773697632663475
% es.Ez (V/m) @ t=0.34
-1.4012538936555567
% es.tEx (V/m) @ t=0.34
-0.43882137311389613
% es.tEy (V/m) @ t=0.34
0
% es.tEz (V/m) @ t=0.34
-1.4012538936555732
% V (V) @ t=0.34
0.0073938249661797155
% es.normE (V/m) @ t=0.36
1.4851395359482573
% es.EX (V/m) @ t=0.36
-0.4430460968593458
% es.EY (V/m) @ t=0.36
0.03308789508077173
% es.EZ (V/m) @ t=0.36
-1.4147447787362815
% es.tEX (V/m) @ t=0.36
-0.4430460968593515
% es.tEY (V/m) @ t=0.36
0
% es.tEZ (V/m) @ t=0.36
-1.4147447787362912
% es.Ex (V/m) @ t=0.36
-0.4430460968593458
% es.Ey (V/m) @ t=0.36
0.03308789508077173
% es.Ez (V/m) @ t=0.36
-1.4147447787362815
% es.tEx (V/m) @ t=0.36
-0.4430460968593515
% es.tEy (V/m) @ t=0.36
0
% es.tEz (V/m) @ t=0.36
-1.4147447787362912
% V (V) @ t=0.36
0.007465033694499261
% es.normE (V/m) @ t=0.38
1.499301568247284
% es.EX (V/m) @ t=0.38
-0.4472708206048034
% es.EY (V/m) @ t=0.38
0.033402092528887935
% es.EZ (V/m) @ t=0.38
-1.4282356638169986
% es.tEX (V/m) @ t=0.38
-0.4472708206048104
% es.tEY (V/m) @ t=0.38
0
% es.tEZ (V/m) @ t=0.38
-1.4282356638170102
% es.Ex (V/m) @ t=0.38
-0.4472708206048034
% es.Ey (V/m) @ t=0.38
0.033402092528887935
% es.Ez (V/m) @ t=0.38
-1.4282356638169986
% es.tEx (V/m) @ t=0.38
-0.4472708206048104
% es.tEy (V/m) @ t=0.38
0
% es.tEz (V/m) @ t=0.38
-1.4282356638170102
% V (V) @ t=0.38
0.00753624242281881
% es.normE (V/m) @ t=0.4
1.5134636005483282
% es.EX (V/m) @ t=0.4
-0.4514955443502522
% es.EY (V/m) @ t=0.4
0.0337162899769899
% es.EZ (V/m) @ t=0.4
-1.4417265488977153
% es.tEX (V/m) @ t=0.4
-0.4514955443502586
% es.tEY (V/m) @ t=0.4
0
% es.tEZ (V/m) @ t=0.4
-1.441726548897729
% es.Ex (V/m) @ t=0.4
-0.4514955443502522
% es.Ey (V/m) @ t=0.4
0.0337162899769899
% es.Ez (V/m) @ t=0.4
-1.4417265488977153
% es.tEx (V/m) @ t=0.4
-0.4514955443502586
% es.tEy (V/m) @ t=0.4
0
% es.tEz (V/m) @ t=0.4
-1.441726548897729
% V (V) @ t=0.4
0.007607451151138355
% es.normE (V/m) @ t=0.42
1.5276256328513345
% es.EX (V/m) @ t=0.42
-0.45572026809571065
% es.EY (V/m) @ t=0.42
0.034030487425100814
% es.EZ (V/m) @ t=0.42
-1.4552174339784254
% es.tEX (V/m) @ t=0.42
-0.4557202680957104
% es.tEY (V/m) @ t=0.42
0
% es.tEZ (V/m) @ t=0.42
-1.45521743397844
% es.Ex (V/m) @ t=0.42
-0.45572026809571065
% es.Ey (V/m) @ t=0.42
0.034030487425100814
% es.Ez (V/m) @ t=0.42
-1.4552174339784254
% es.tEx (V/m) @ t=0.42
-0.4557202680957104
% es.tEy (V/m) @ t=0.42
0
% es.tEz (V/m) @ t=0.42
-1.45521743397844
% V (V) @ t=0.42
0.0076786598794579015
% es.normE (V/m) @ t=0.44
1.5417876651562565
% es.EX (V/m) @ t=0.44
-0.4599449918411638
% es.EY (V/m) @ t=0.44
0.034344684873217055
% es.EZ (V/m) @ t=0.44
-1.4687083190591426
% es.tEX (V/m) @ t=0.44
-0.4599449918411658
% es.tEY (V/m) @ t=0.44
0
% es.tEZ (V/m) @ t=0.44
-1.468708319059159
% es.Ex (V/m) @ t=0.44
-0.4599449918411638
% es.Ey (V/m) @ t=0.44
0.034344684873217055
% es.Ez (V/m) @ t=0.44
-1.4687083190591426
% es.tEx (V/m) @ t=0.44
-0.4599449918411658
% es.tEy (V/m) @ t=0.44
0
% es.tEz (V/m) @ t=0.44
-1.468708319059159
% V (V) @ t=0.44
0.007749868607777449
% es.normE (V/m) @ t=0.46
1.5559496974630282
% es.EX (V/m) @ t=0.46
-0.46416971558661346
% es.EY (V/m) @ t=0.46
0.03465888232132524
% es.EZ (V/m) @ t=0.46
-1.4821992041398522
% es.tEX (V/m) @ t=0.46
-0.4641697155866211
% es.tEY (V/m) @ t=0.46
0
% es.tEZ (V/m) @ t=0.46
-1.4821992041398628
% es.Ex (V/m) @ t=0.46
-0.46416971558661346
% es.Ey (V/m) @ t=0.46
0.03465888232132524
% es.Ez (V/m) @ t=0.46
-1.4821992041398522
% es.tEx (V/m) @ t=0.46
-0.4641697155866211
% es.tEy (V/m) @ t=0.46
0
% es.tEz (V/m) @ t=0.46
-1.4821992041398628
% V (V) @ t=0.46
0.007821077336096995
% es.normE (V/m) @ t=0.48
1.5701117297716038
% es.EX (V/m) @ t=0.48
-0.4683944393320657
% es.EY (V/m) @ t=0.48
0.03497307976943371
% es.EZ (V/m) @ t=0.48
-1.4956900892205556
% es.tEX (V/m) @ t=0.48
-0.46839443933206937
% es.tEY (V/m) @ t=0.48
0
% es.tEZ (V/m) @ t=0.48
-1.4956900892205738
% es.Ex (V/m) @ t=0.48
-0.4683944393320657
% es.Ey (V/m) @ t=0.48
0.03497307976943371
% es.Ez (V/m) @ t=0.48
-1.4956900892205556
% es.tEx (V/m) @ t=0.48
-0.46839443933206937
% es.tEy (V/m) @ t=0.48
0
% es.tEz (V/m) @ t=0.48
-1.4956900892205738
% V (V) @ t=0.48
0.00789228606441654
% es.normE (V/m) @ t=0.5
1.5842737620819678
% es.EX (V/m) @ t=0.5
-0.47261916307752416
% es.EY (V/m) @ t=0.5
0.03528727721754171
% es.EZ (V/m) @ t=0.5
-1.509180974301287
% es.tEX (V/m) @ t=0.5
-0.4726191630775247
% es.tEY (V/m) @ t=0.5
0
% es.tEZ (V/m) @ t=0.5
-1.5091809743013007
% es.Ex (V/m) @ t=0.5
-0.47261916307752416
% es.Ey (V/m) @ t=0.5
0.03528727721754171
% es.Ez (V/m) @ t=0.5
-1.509180974301287
% es.tEx (V/m) @ t=0.5
-0.4726191630775247
% es.tEy (V/m) @ t=0.5
0
% es.tEz (V/m) @ t=0.5
-1.5091809743013007
% V (V) @ t=0.5
0.007963494792736087
% es.normE (V/m) @ t=0.52
1.598435794394007
% es.EX (V/m) @ t=0.52
-0.4768438868229712
% es.EY (V/m) @ t=0.52
0.03560147466564126
% es.EZ (V/m) @ t=0.52
-1.5226718593819824
% es.tEX (V/m) @ t=0.52
-0.4768438868229765
% es.tEY (V/m) @ t=0.52
0
% es.tEZ (V/m) @ t=0.52
-1.5226718593820046
% es.Ex (V/m) @ t=0.52
-0.4768438868229712
% es.Ey (V/m) @ t=0.52
0.03560147466564126
% es.Ez (V/m) @ t=0.52
-1.5226718593819824
% es.tEx (V/m) @ t=0.52
-0.4768438868229765
% es.tEy (V/m) @ t=0.52
0
% es.tEz (V/m) @ t=0.52
-1.5226718593820046
% V (V) @ t=0.52
0.008034703521055633
% es.normE (V/m) @ t=0.54
1.6125978267077505
% es.EX (V/m) @ t=0.54
-0.4810686105684252
% es.EY (V/m) @ t=0.54
0.0359156721137635
% es.EZ (V/m) @ t=0.54
-1.5361627444627142
% es.tEX (V/m) @ t=0.54
-0.48106861056843186
% es.tEY (V/m) @ t=0.54
0
% es.tEZ (V/m) @ t=0.54
-1.5361627444627297
% es.Ex (V/m) @ t=0.54
-0.4810686105684252
% es.Ey (V/m) @ t=0.54
0.0359156721137635
% es.Ez (V/m) @ t=0.54
-1.5361627444627142
% es.tEx (V/m) @ t=0.54
-0.48106861056843186
% es.tEy (V/m) @ t=0.54
0
% es.tEz (V/m) @ t=0.54
-1.5361627444627297
% V (V) @ t=0.54
0.00810591224937518
% es.normE (V/m) @ t=0.56
1.627987915601725
% es.EX (V/m) @ t=0.56
-0.48565999495435175
% es.EY (V/m) @ t=0.56
0.03626191608288697
% es.EZ (V/m) @ t=0.56
-1.5508230344160605
% es.tEX (V/m) @ t=0.56
-0.48565999495435364
% es.tEY (V/m) @ t=0.56
0
% es.tEZ (V/m) @ t=0.56
-1.5508230344160783
% es.Ex (V/m) @ t=0.56
-0.48565999495435175
% es.Ey (V/m) @ t=0.56
0.03626191608288697
% es.Ez (V/m) @ t=0.56
-1.5508230344160605
% es.tEx (V/m) @ t=0.56
-0.48565999495435364
% es.tEy (V/m) @ t=0.56
0
% es.tEz (V/m) @ t=0.56
-1.5508230344160783
% V (V) @ t=0.56
0.008183210666530988
% es.normE (V/m) @ t=0.58
1.6437824774428664
% es.EX (V/m) @ t=0.58
-0.4903721427511255
% es.EY (V/m) @ t=0.58
0.03661871489962232
% es.EZ (V/m) @ t=0.58
-1.565868479756939
% es.tEX (V/m) @ t=0.58
-0.4903721427511307
% es.tEY (V/m) @ t=0.58
0
% es.tEZ (V/m) @ t=0.58
-1.5658684797569542
% es.Ex (V/m) @ t=0.58
-0.4903721427511255
% es.Ey (V/m) @ t=0.58
0.03661871489962232
% es.Ez (V/m) @ t=0.58
-1.565868479756939
% es.tEx (V/m) @ t=0.58
-0.4903721427511307
% es.tEy (V/m) @ t=0.58
0
% es.tEz (V/m) @ t=0.58
-1.5658684797569542
% V (V) @ t=0.58
0.008262514784636453
% es.normE (V/m) @ t=0.6
1.6595770393102227
% es.EX (V/m) @ t=0.6
-0.4950842905478967
% es.EY (V/m) @ t=0.6
0.036975513716371616
% es.EZ (V/m) @ t=0.6
-1.5809139250978177
% es.tEX (V/m) @ t=0.6
-0.49508429054789715
% es.tEY (V/m) @ t=0.6
0
% es.tEZ (V/m) @ t=0.6
-1.5809139250978301
% es.Ex (V/m) @ t=0.6
-0.4950842905478967
% es.Ey (V/m) @ t=0.6
0.036975513716371616
% es.Ez (V/m) @ t=0.6
-1.5809139250978177
% es.tEx (V/m) @ t=0.6
-0.49508429054789715
% es.tEy (V/m) @ t=0.6
0
% es.tEz (V/m) @ t=0.6
-1.5809139250978301
% V (V) @ t=0.6
0.00834181890274192
% es.normE (V/m) @ t=0.62
1.6753716012030433
% es.EX (V/m) @ t=0.62
-0.4997964383446571
% es.EY (V/m) @ t=0.62
0.037332312533094526
% es.EZ (V/m) @ t=0.62
-1.5959593704386896
% es.tEX (V/m) @ t=0.62
-0.4997964383446636
% es.tEY (V/m) @ t=0.62
0
% es.tEZ (V/m) @ t=0.62
-1.5959593704386972
% es.Ex (V/m) @ t=0.62
-0.4997964383446571
% es.Ey (V/m) @ t=0.62
0.037332312533094526
% es.Ez (V/m) @ t=0.62
-1.5959593704386896
% es.tEx (V/m) @ t=0.62
-0.4997964383446636
% es.tEy (V/m) @ t=0.62
0
% es.tEz (V/m) @ t=0.62
-1.5959593704386972
% V (V) @ t=0.62
0.008421123020847387
% es.normE (V/m) @ t=0.64
1.691166163120623
% es.EX (V/m) @ t=0.64
-0.5045085861414238
% es.EY (V/m) @ t=0.64
0.03768911134984205
% es.EZ (V/m) @ t=0.64
-1.6110048157795607
% es.tEX (V/m) @ t=0.64
-0.50450858614143
% es.tEY (V/m) @ t=0.64
0
% es.tEZ (V/m) @ t=0.64
-1.611004815779566
% es.Ex (V/m) @ t=0.64
-0.5045085861414238
% es.Ey (V/m) @ t=0.64
0.03768911134984205
% es.Ez (V/m) @ t=0.64
-1.6110048157795607
% es.tEx (V/m) @ t=0.64
-0.50450858614143
% es.tEy (V/m) @ t=0.64
0
% es.tEz (V/m) @ t=0.64
-1.611004815779566
% V (V) @ t=0.64
0.00850042713895285
% es.normE (V/m) @ t=0.66
1.706960725062284
% es.EX (V/m) @ t=0.66
-0.5092207339381922
% es.EY (V/m) @ t=0.66
0.03804591016657517
% es.EZ (V/m) @ t=0.66
-1.6260502611204397
% es.tEX (V/m) @ t=0.66
-0.5092207339381964
% es.tEY (V/m) @ t=0.66
0
% es.tEZ (V/m) @ t=0.66
-1.6260502611204473
% es.Ex (V/m) @ t=0.66
-0.5092207339381922
% es.Ey (V/m) @ t=0.66
0.03804591016657517
% es.Ez (V/m) @ t=0.66
-1.6260502611204397
% es.tEx (V/m) @ t=0.66
-0.5092207339381964
% es.tEy (V/m) @ t=0.66
0
% es.tEz (V/m) @ t=0.66
-1.6260502611204473
% V (V) @ t=0.66
0.00857973125705832
% es.normE (V/m) @ t=0.68
1.7227552870273481
% es.EX (V/m) @ t=0.68
-0.5139328817349608
% es.EY (V/m) @ t=0.68
0.03840270898331758
% es.EZ (V/m) @ t=0.68
-1.6410957064613108
% es.tEX (V/m) @ t=0.68
-0.5139328817349629
% es.tEY (V/m) @ t=0.68
0
% es.tEZ (V/m) @ t=0.68
-1.6410957064613232
% es.Ex (V/m) @ t=0.68
-0.5139328817349608
% es.Ey (V/m) @ t=0.68
0.03840270898331758
% es.Ez (V/m) @ t=0.68
-1.6410957064613108
% es.tEx (V/m) @ t=0.68
-0.5139328817349629
% es.tEy (V/m) @ t=0.68
0
% es.tEz (V/m) @ t=0.68
-1.6410957064613232
% V (V) @ t=0.68
0.008659035375163786
% es.normE (V/m) @ t=0.7
1.7385498490151852
% es.EX (V/m) @ t=0.7
-0.5186450295317317
% es.EY (V/m) @ t=0.7
0.0387595078000687
% es.EZ (V/m) @ t=0.7
-1.6561411518021827
% es.tEX (V/m) @ t=0.7
-0.5186450295317364
% es.tEY (V/m) @ t=0.7
0
% es.tEZ (V/m) @ t=0.7
-1.6561411518021982
% es.Ex (V/m) @ t=0.7
-0.5186450295317317
% es.Ey (V/m) @ t=0.7
0.0387595078000687
% es.Ez (V/m) @ t=0.7
-1.6561411518021827
% es.tEx (V/m) @ t=0.7
-0.5186450295317364
% es.tEy (V/m) @ t=0.7
0
% es.tEz (V/m) @ t=0.7
-1.6561411518021982
% V (V) @ t=0.7
0.008738339493269251
% es.normE (V/m) @ t=0.72
1.7543444110251687
% es.EX (V/m) @ t=0.72
-0.5233571773284924
% es.EY (V/m) @ t=0.72
0.039116306616791344
% es.EZ (V/m) @ t=0.72
-1.6711865971430466
% es.tEX (V/m) @ t=0.72
-0.5233571773284957
% es.tEY (V/m) @ t=0.72
0
% es.tEZ (V/m) @ t=0.72
-1.6711865971430653
% es.Ex (V/m) @ t=0.72
-0.5233571773284924
% es.Ey (V/m) @ t=0.72
0.039116306616791344
% es.Ez (V/m) @ t=0.72
-1.6711865971430466
% es.tEx (V/m) @ t=0.72
-0.5233571773284957
% es.tEy (V/m) @ t=0.72
0
% es.tEz (V/m) @ t=0.72
-1.6711865971430653
% V (V) @ t=0.72
0.008817643611374718
% es.normE (V/m) @ t=0.74
1.7701389730567343
% es.EX (V/m) @ t=0.74
-0.528069325125266
% es.EY (V/m) @ t=0.74
0.03947310543352847
% es.EZ (V/m) @ t=0.74
-1.6862320424839257
% es.tEX (V/m) @ t=0.74
-0.5280693251252693
% es.tEY (V/m) @ t=0.74
0
% es.tEZ (V/m) @ t=0.74
-1.6862320424839403
% es.Ex (V/m) @ t=0.74
-0.528069325125266
% es.Ey (V/m) @ t=0.74
0.03947310543352847
% es.Ez (V/m) @ t=0.74
-1.6862320424839257
% es.tEx (V/m) @ t=0.74
-0.5280693251252693
% es.tEy (V/m) @ t=0.74
0
% es.tEz (V/m) @ t=0.74
-1.6862320424839403
% V (V) @ t=0.74
0.008896947729480183
% es.normE (V/m) @ t=0.76
1.7859335351092875
% es.EX (V/m) @ t=0.76
-0.5327814729220284
% es.EY (V/m) @ t=0.76
0.03982990425026889
% es.EZ (V/m) @ t=0.76
-1.7012774878248038
% es.tEX (V/m) @ t=0.76
-0.5327814729220357
% es.tEY (V/m) @ t=0.76
0
% es.tEZ (V/m) @ t=0.76
-1.7012774878248091
% es.Ex (V/m) @ t=0.76
-0.5327814729220284
% es.Ey (V/m) @ t=0.76
0.03982990425026889
% es.Ez (V/m) @ t=0.76
-1.7012774878248038
% es.tEx (V/m) @ t=0.76
-0.5327814729220357
% es.tEy (V/m) @ t=0.76
0
% es.tEz (V/m) @ t=0.76
-1.7012774878248091
% V (V) @ t=0.76
0.008976251847585649
% es.normE (V/m) @ t=0.78
1.801728097182269
% es.EX (V/m) @ t=0.78
-0.5374936207187924
% es.EY (V/m) @ t=0.78
0.04018670306700778
% es.EZ (V/m) @ t=0.78
-1.7163229331656686
% es.tEX (V/m) @ t=0.78
-0.5374936207187915
% es.tEY (V/m) @ t=0.78
0
% es.tEZ (V/m) @ t=0.78
-1.7163229331656833
% es.Ex (V/m) @ t=0.78
-0.5374936207187924
% es.Ey (V/m) @ t=0.78
0.04018670306700778
% es.Ez (V/m) @ t=0.78
-1.7163229331656686
% es.tEx (V/m) @ t=0.78
-0.5374936207187915
% es.tEy (V/m) @ t=0.78
0
% es.tEz (V/m) @ t=0.78
-1.7163229331656833
% V (V) @ t=0.78
0.009055555965691115
% es.normE (V/m) @ t=0.8
1.8175226592751783
% es.EX (V/m) @ t=0.8
-0.5422057685155643
% es.EY (V/m) @ t=0.8
0.04054350188374617
% es.EZ (V/m) @ t=0.8
-1.731368378506554
% es.tEX (V/m) @ t=0.8
-0.5422057685155686
% es.tEY (V/m) @ t=0.8
0
% es.tEZ (V/m) @ t=0.8
-1.7313683785065663
% es.Ex (V/m) @ t=0.8
-0.5422057685155643
% es.Ey (V/m) @ t=0.8
0.04054350188374617
% es.Ez (V/m) @ t=0.8
-1.731368378506554
% es.tEx (V/m) @ t=0.8
-0.5422057685155686
% es.tEy (V/m) @ t=0.8
0
% es.tEz (V/m) @ t=0.8
-1.7313683785065663
% V (V) @ t=0.8
0.009134860083796582
% es.normE (V/m) @ t=0.82
1.8335692429031178
% es.EX (V/m) @ t=0.82
-0.5469929965031457
% es.EY (V/m) @ t=0.82
0.04090434882340663
% es.EZ (V/m) @ t=0.82
-1.746654047735714
% es.tEX (V/m) @ t=0.82
-0.5469929965031497
% es.tEY (V/m) @ t=0.82
0
% es.tEZ (V/m) @ t=0.82
-1.7466540477357277
% es.Ex (V/m) @ t=0.82
-0.5469929965031457
% es.Ey (V/m) @ t=0.82
0.04090434882340663
% es.Ez (V/m) @ t=0.82
-1.746654047735714
% es.tEx (V/m) @ t=0.82
-0.5469929965031497
% es.tEy (V/m) @ t=0.82
0
% es.tEz (V/m) @ t=0.82
-1.7466540477357277
% V (V) @ t=0.82
0.00921545877462945
% es.normE (V/m) @ t=0.84
1.8512537335350858
% es.EX (V/m) @ t=0.84
-0.5522681763517456
% es.EY (V/m) @ t=0.84
0.04129150482131809
% es.EZ (V/m) @ t=0.84
-1.7635009502552985
% es.tEX (V/m) @ t=0.84
-0.552268176351749
% es.tEY (V/m) @ t=0.84
0
% es.tEZ (V/m) @ t=0.84
-1.7635009502553123
% es.Ex (V/m) @ t=0.84
-0.5522681763517456
% es.Ey (V/m) @ t=0.84
0.04129150482131809
% es.Ez (V/m) @ t=0.84
-1.7635009502552985
% es.tEx (V/m) @ t=0.84
-0.552268176351749
% es.tEy (V/m) @ t=0.84
0
% es.tEz (V/m) @ t=0.84
-1.7635009502553123
% V (V) @ t=0.84
0.009304470991915717
% es.normE (V/m) @ t=0.86
1.868938224217707
% es.EX (V/m) @ t=0.86
-0.5575433562003475
% es.EY (V/m) @ t=0.86
0.04167866081922955
% es.EZ (V/m) @ t=0.86
-1.7803478527748835
% es.tEX (V/m) @ t=0.86
-0.5575433562003518
% es.tEY (V/m) @ t=0.86
0
% es.tEZ (V/m) @ t=0.86
-1.7803478527748977
% es.Ex (V/m) @ t=0.86
-0.5575433562003475
% es.Ey (V/m) @ t=0.86
0.04167866081922955
% es.Ez (V/m) @ t=0.86
-1.7803478527748835
% es.tEx (V/m) @ t=0.86
-0.5575433562003518
% es.tEy (V/m) @ t=0.86
0
% es.tEz (V/m) @ t=0.86
-1.7803478527748977
% V (V) @ t=0.86
0.009393483209201981
% es.normE (V/m) @ t=0.88
1.8866227149495614
% es.EX (V/m) @ t=0.88
-0.5628185360489457
% es.EY (V/m) @ t=0.88
0.042065816817148355
% es.EZ (V/m) @ t=0.88
-1.7971947552944756
% es.tEX (V/m) @ t=0.88
-0.5628185360489475
% es.tEY (V/m) @ t=0.88
0
% es.tEZ (V/m) @ t=0.88
-1.7971947552944894
% es.Ex (V/m) @ t=0.88
-0.5628185360489457
% es.Ey (V/m) @ t=0.88
0.042065816817148355
% es.Ez (V/m) @ t=0.88
-1.7971947552944756
% es.tEx (V/m) @ t=0.88
-0.5628185360489475
% es.tEy (V/m) @ t=0.88
0
% es.tEz (V/m) @ t=0.88
-1.7971947552944894
% V (V) @ t=0.88
0.009482495426488248
% es.normE (V/m) @ t=0.9
1.9043072057292547
% es.EX (V/m) @ t=0.9
-0.5680937158975493
% es.EY (V/m) @ t=0.9
0.04245297281506315
% es.EZ (V/m) @ t=0.9
-1.814041657814046
% es.tEX (V/m) @ t=0.9
-0.5680937158975574
% es.tEY (V/m) @ t=0.9
0
% es.tEZ (V/m) @ t=0.9
-1.8140416578140606
% es.Ex (V/m) @ t=0.9
-0.5680937158975493
% es.Ey (V/m) @ t=0.9
0.04245297281506315
% es.Ez (V/m) @ t=0.9
-1.814041657814046
% es.tEx (V/m) @ t=0.9
-0.5680937158975574
% es.tEy (V/m) @ t=0.9
0
% es.tEz (V/m) @ t=0.9
-1.8140416578140606
% V (V) @ t=0.9
0.009571507643774515
% es.normE (V/m) @ t=0.92
1.9219916965554864
% es.EX (V/m) @ t=0.92
-0.5733688957461449
% es.EY (V/m) @ t=0.92
0.042840128812978384
% es.EZ (V/m) @ t=0.92
-1.8308885603336238
% es.tEX (V/m) @ t=0.92
-0.5733688957461496
% es.tEY (V/m) @ t=0.92
0
% es.tEZ (V/m) @ t=0.92
-1.8308885603336513
% es.Ex (V/m) @ t=0.92
-0.5733688957461449
% es.Ey (V/m) @ t=0.92
0.042840128812978384
% es.Ez (V/m) @ t=0.92
-1.8308885603336238
% es.tEx (V/m) @ t=0.92
-0.5733688957461496
% es.tEy (V/m) @ t=0.92
0
% es.tEz (V/m) @ t=0.92
-1.8308885603336513
% V (V) @ t=0.92
0.00966051986106078
% es.normE (V/m) @ t=0.94
1.9396761874269888
% es.EX (V/m) @ t=0.94
-0.5786440755947395
% es.EY (V/m) @ t=0.94
0.04322728481088654
% es.EZ (V/m) @ t=0.94
-1.8477354628532088
% es.tEX (V/m) @ t=0.94
-0.5786440755947453
% es.tEY (V/m) @ t=0.94
0
% es.tEZ (V/m) @ t=0.94
-1.8477354628532288
% es.Ex (V/m) @ t=0.94
-0.5786440755947395
% es.Ey (V/m) @ t=0.94
0.04322728481088654
% es.Ez (V/m) @ t=0.94
-1.8477354628532088
% es.tEx (V/m) @ t=0.94
-0.5786440755947453
% es.tEy (V/m) @ t=0.94
0
% es.tEz (V/m) @ t=0.94
-1.8477354628532288
% V (V) @ t=0.94
0.009749532078347044
% es.normE (V/m) @ t=0.96
1.9573606783425208
% es.EX (V/m) @ t=0.96
-0.583919255443337
% es.EY (V/m) @ t=0.96
0.043614440808792676
% es.EZ (V/m) @ t=0.96
-1.8645823653727867
% es.tEX (V/m) @ t=0.96
-0.5839192554433446
% es.tEY (V/m) @ t=0.96
0
% es.tEZ (V/m) @ t=0.96
-1.8645823653728
% es.Ex (V/m) @ t=0.96
-0.583919255443337
% es.Ey (V/m) @ t=0.96
0.043614440808792676
% es.Ez (V/m) @ t=0.96
-1.8645823653727867
% es.tEx (V/m) @ t=0.96
-0.5839192554433446
% es.tEy (V/m) @ t=0.96
0
% es.tEz (V/m) @ t=0.96
-1.8645823653728
% V (V) @ t=0.96
0.00983854429563331
% es.normE (V/m) @ t=0.98
1.9750451693009197
% es.EX (V/m) @ t=0.98
-0.5891944352919378
% es.EY (V/m) @ t=0.98
0.04400159680671145
% es.EZ (V/m) @ t=0.98
-1.8814292678923783
% es.tEX (V/m) @ t=0.98
-0.5891944352919438
% es.tEY (V/m) @ t=0.98
0
% es.tEZ (V/m) @ t=0.98
-1.8814292678923916
% es.Ex (V/m) @ t=0.98
-0.5891944352919378
% es.Ey (V/m) @ t=0.98
0.04400159680671145
% es.Ez (V/m) @ t=0.98
-1.8814292678923783
% es.tEx (V/m) @ t=0.98
-0.5891944352919438
% es.tEy (V/m) @ t=0.98
0
% es.tEz (V/m) @ t=0.98
-1.8814292678923916
% V (V) @ t=0.98
0.009927556512919574
% es.normE (V/m) @ t=1
1.9927296603010123
% es.EX (V/m) @ t=1
-0.5944696151405405
% es.EY (V/m) @ t=1
0.04438875280461961
% es.EZ (V/m) @ t=1
-1.898276170411949
% es.tEX (V/m) @ t=1
-0.5944696151405466
% es.tEY (V/m) @ t=1
0
% es.tEZ (V/m) @ t=1
-1.89827617041197
% es.Ex (V/m) @ t=1
-0.5944696151405405
% es.Ey (V/m) @ t=1
0.04438875280461961
% es.Ez (V/m) @ t=1
-1.898276170411949
% es.tEx (V/m) @ t=1
-0.5944696151405466
% es.tEy (V/m) @ t=1
0
% es.tEz (V/m) @ t=1
-1.89827617041197
% V (V) @ t=1
0.01001656873020584
% es.normE (V/m) @ t=1.02
2.0104141513417346
% es.EX (V/m) @ t=1.02
-0.5997447949891352
% es.EY (V/m) @ t=1.02
0.0447759088025344
% es.EZ (V/m) @ t=1.02
-1.9151230729315412
% es.tEX (V/m) @ t=1.02
-0.5997447949891352
% es.tEY (V/m) @ t=1.02
0
% es.tEZ (V/m) @ t=1.02
-1.9151230729315607
% es.Ex (V/m) @ t=1.02
-0.5997447949891352
% es.Ey (V/m) @ t=1.02
0.0447759088025344
% es.Ez (V/m) @ t=1.02
-1.9151230729315412
% es.tEx (V/m) @ t=1.02
-0.5997447949891352
% es.tEy (V/m) @ t=1.02