% Model:              1 neuron.mph
% Version:            COMSOL 6.0.0.405
% Date:               Mar 9 2023, 13:44
% Dimension:          0
% Nodes:              14017
% Expressions:        14017
% Description:        Electric field norm, Electric field, X component, Electric field, Y component, Electric field, Z component, Tangential electric field, X component, Tangential electric field, Y component, Tangential electric field, Z component, Electric field, x component, Electric field, y component, Electric field, z component, Tangential electric field, x component, Tangential electric field, y component, Tangential electric field, z component, Electric potential
% Length unit:        mm
% x
1.3300000000000003
% y
12.200000000000001
% z
1.66
% es.normE (V/m) @ t=0
7.287622927004124
% es.EX (V/m) @ t=0
4.624722813684308
% es.EY (V/m) @ t=0
1.382953202491261
% es.EZ (V/m) @ t=0
-5.065771612795164
% es.tEX (V/m) @ t=0
4.624722813684295
% es.tEY (V/m) @ t=0
0
% es.tEZ (V/m) @ t=0
-5.065771612795159
% es.Ex (V/m) @ t=0
4.624722813684308
% es.Ey (V/m) @ t=0
1.382953202491261
% es.Ez (V/m) @ t=0
-5.065771612795164
% es.tEx (V/m) @ t=0
4.624722813684295
% es.tEy (V/m) @ t=0
0
% es.tEz (V/m) @ t=0
-5.065771612795159
% V (V) @ t=0
0.00624242057396566
% es.normE (V/m) @ t=0.02
6.294453111467237
% es.EX (V/m) @ t=0.02
3.9944576431854024
% es.EY (V/m) @ t=0.02
1.1944819525178896
% es.EZ (V/m) @ t=0.02
-4.375399503136345
% es.tEX (V/m) @ t=0.02
3.994457643185395
% es.tEY (V/m) @ t=0.02
0
% es.tEZ (V/m) @ t=0.02
-4.375399503136338
% es.Ex (V/m) @ t=0.02
3.9944576431854024
% es.Ey (V/m) @ t=0.02
1.1944819525178896
% es.Ez (V/m) @ t=0.02
-4.375399503136345
% es.tEx (V/m) @ t=0.02
3.994457643185395
% es.tEy (V/m) @ t=0.02
0
% es.tEz (V/m) @ t=0.02
-4.375399503136338
% V (V) @ t=0.02
0.005391692640871439
% es.normE (V/m) @ t=0.04
6.3523425787625865
% es.EX (V/m) @ t=0.04
4.031194435900221
% es.EY (V/m) @ t=0.04
1.2054674656109126
% es.EZ (V/m) @ t=0.04
-4.415639497608238
% es.tEX (V/m) @ t=0.04
4.031194435900206
% es.tEY (V/m) @ t=0.04
0
% es.tEZ (V/m) @ t=0.04
-4.415639497608227
% es.Ex (V/m) @ t=0.04
4.031194435900221
% es.Ey (V/m) @ t=0.04
1.2054674656109126
% es.Ez (V/m) @ t=0.04
-4.415639497608238
% es.tEx (V/m) @ t=0.04
4.031194435900206
% es.tEy (V/m) @ t=0.04
0
% es.tEz (V/m) @ t=0.04
-4.415639497608227
% V (V) @ t=0.04
0.0054412789479777466
% es.normE (V/m) @ t=0.06
6.410752575923278
% es.EX (V/m) @ t=0.06
4.068261629011282
% es.EY (V/m) @ t=0.06
1.216551748834366
% es.EZ (V/m) @ t=0.06
-4.456241265430032
% es.tEX (V/m) @ t=0.06
4.068261629011269
% es.tEY (V/m) @ t=0.06
0
% es.tEZ (V/m) @ t=0.06
-4.4562412654300205
% es.Ex (V/m) @ t=0.06
4.068261629011282
% es.Ey (V/m) @ t=0.06
1.216551748834366
% es.Ez (V/m) @ t=0.06
-4.456241265430032
% es.tEx (V/m) @ t=0.06
4.068261629011269
% es.tEy (V/m) @ t=0.06
0
% es.tEz (V/m) @ t=0.06
-4.4562412654300205
% V (V) @ t=0.06
0.005491310872654894
% es.normE (V/m) @ t=0.08
6.470057141198822
% es.EX (V/m) @ t=0.08
4.105896383338516
% es.EY (V/m) @ t=0.08
1.227805809010861
% es.EZ (V/m) @ t=0.08
-4.497464969438374
% es.tEX (V/m) @ t=0.08
4.105896383338505
% es.tEY (V/m) @ t=0.08
0
% es.tEZ (V/m) @ t=0.08
-4.49746496943836
% es.Ex (V/m) @ t=0.08
4.105896383338516
% es.Ey (V/m) @ t=0.08
1.227805809010861
% es.Ez (V/m) @ t=0.08
-4.497464969438374
% es.tEx (V/m) @ t=0.08
4.105896383338505
% es.tEy (V/m) @ t=0.08
0
% es.tEz (V/m) @ t=0.08
-4.49746496943836
% V (V) @ t=0.08
0.00554210953187269
% es.normE (V/m) @ t=0.1
6.529977898634568
% es.EX (V/m) @ t=0.1
4.143922082487084
% es.EY (V/m) @ t=0.1
1.2391768141418165
% es.EZ (V/m) @ t=0.1
-4.53911707257694
% es.tEX (V/m) @ t=0.1
4.143922082487084
% es.tEY (V/m) @ t=0.1
0
% es.tEZ (V/m) @ t=0.1
-4.539117072576926
% es.Ex (V/m) @ t=0.1
4.143922082487084
% es.Ey (V/m) @ t=0.1
1.2391768141418165
% es.Ez (V/m) @ t=0.1
-4.53911707257694
% es.tEx (V/m) @ t=0.1
4.143922082487084
% es.tEy (V/m) @ t=0.1
0
% es.tEz (V/m) @ t=0.1
-4.539117072576926
% V (V) @ t=0.1
0.005593436329535245
% es.normE (V/m) @ t=0.12
6.5898986560703126
% es.EX (V/m) @ t=0.12
4.181947781635637
% es.EY (V/m) @ t=0.12
1.2505478192727646
% es.EZ (V/m) @ t=0.12
-4.580769175715504
% es.tEX (V/m) @ t=0.12
4.18194778163563
% es.tEY (V/m) @ t=0.12
0
% es.tEZ (V/m) @ t=0.12
-4.580769175715496
% es.Ex (V/m) @ t=0.12
4.181947781635637
% es.Ey (V/m) @ t=0.12
1.2505478192727646
% es.Ez (V/m) @ t=0.12
-4.580769175715504
% es.tEx (V/m) @ t=0.12
4.18194778163563
% es.tEy (V/m) @ t=0.12
0
% es.tEz (V/m) @ t=0.12
-4.580769175715496
% V (V) @ t=0.12
0.005644763127197801
% es.normE (V/m) @ t=0.14
6.650439857533592
% es.EX (V/m) @ t=0.14
4.2203672580506595
% es.EY (V/m) @ t=0.14
1.262036558875246
% es.EZ (V/m) @ t=0.14
-4.622852527180803
% es.tEX (V/m) @ t=0.14
4.220367258050655
% es.tEY (V/m) @ t=0.14
0
% es.tEZ (V/m) @ t=0.14
-4.622852527180788
% es.Ex (V/m) @ t=0.14
4.2203672580506595
% es.Ey (V/m) @ t=0.14
1.262036558875246
% es.Ez (V/m) @ t=0.14
-4.622852527180803
% es.tEx (V/m) @ t=0.14
4.220367258050655
% es.tEy (V/m) @ t=0.14
0
% es.tEz (V/m) @ t=0.14
-4.622852527180788
% V (V) @ t=0.14
0.005696621228607652
% es.normE (V/m) @ t=0.16
6.713555206916697
% es.EX (V/m) @ t=0.16
4.260420469156212
% es.EY (V/m) @ t=0.16
1.2740137646915566
% es.EZ (V/m) @ t=0.16
-4.66672507627546
% es.tEX (V/m) @ t=0.16
4.260420469156203
% es.tEY (V/m) @ t=0.16
0
% es.tEZ (V/m) @ t=0.16
-4.666725076275449
% es.Ex (V/m) @ t=0.16
4.260420469156212
% es.Ey (V/m) @ t=0.16
1.2740137646915566
% es.Ez (V/m) @ t=0.16
-4.66672507627546
% es.tEx (V/m) @ t=0.16
4.260420469156203
% es.tEy (V/m) @ t=0.16
0
% es.tEz (V/m) @ t=0.16
-4.666725076275449
% V (V) @ t=0.16
0.005750683645596698
% es.normE (V/m) @ t=0.18
6.77667055629983
% es.EX (V/m) @ t=0.18
4.300473680261768
% es.EY (V/m) @ t=0.18
1.2859909705078494
% es.EZ (V/m) @ t=0.18
-4.710597625370131
% es.tEX (V/m) @ t=0.18
4.300473680261764
% es.tEY (V/m) @ t=0.18
0
% es.tEZ (V/m) @ t=0.18
-4.710597625370124
% es.Ex (V/m) @ t=0.18
4.300473680261768
% es.Ey (V/m) @ t=0.18
1.2859909705078494
% es.Ez (V/m) @ t=0.18
-4.710597625370131
% es.tEx (V/m) @ t=0.18
4.300473680261764
% es.tEy (V/m) @ t=0.18
0
% es.tEz (V/m) @ t=0.18
-4.710597625370124
% V (V) @ t=0.18
0.0058047460625857425
% es.normE (V/m) @ t=0.2
6.839785905682975
% es.EX (V/m) @ t=0.2
4.340526891367324
% es.EY (V/m) @ t=0.2
1.2979681763241546
% es.EZ (V/m) @ t=0.2
-4.754470174464794
% es.tEX (V/m) @ t=0.2
4.340526891367308
% es.tEY (V/m) @ t=0.2
0
% es.tEZ (V/m) @ t=0.2
-4.75447017446478
% es.Ex (V/m) @ t=0.2
4.340526891367324
% es.Ey (V/m) @ t=0.2
1.2979681763241546
% es.Ez (V/m) @ t=0.2
-4.754470174464794
% es.tEx (V/m) @ t=0.2
4.340526891367308
% es.tEy (V/m) @ t=0.2
0
% es.tEz (V/m) @ t=0.2
-4.75447017446478
% V (V) @ t=0.2
0.005858808479574789
% es.normE (V/m) @ t=0.22
6.902901255066118
% es.EX (V/m) @ t=0.22
4.380580102472887
% es.EY (V/m) @ t=0.22
1.3099453821404619
% es.EZ (V/m) @ t=0.22
-4.798342723559447
% es.tEX (V/m) @ t=0.22
4.3805801024728765
% es.tEY (V/m) @ t=0.22
0
% es.tEZ (V/m) @ t=0.22
-4.798342723559436
% es.Ex (V/m) @ t=0.22
4.380580102472887
% es.Ey (V/m) @ t=0.22
1.3099453821404619
% es.Ez (V/m) @ t=0.22
-4.798342723559447
% es.tEx (V/m) @ t=0.22
4.3805801024728765
% es.tEy (V/m) @ t=0.22
0
% es.tEz (V/m) @ t=0.22
-4.798342723559436
% V (V) @ t=0.22
0.005912870896563834
% es.normE (V/m) @ t=0.24
6.966016604449283
% es.EX (V/m) @ t=0.24
4.420633313578431
% es.EY (V/m) @ t=0.24
1.321922587956749
% es.EZ (V/m) @ t=0.24
-4.842215272654115
% es.tEX (V/m) @ t=0.24
4.4206333135784135
% es.tEY (V/m) @ t=0.24
0
% es.tEZ (V/m) @ t=0.24
-4.842215272654104
% es.Ex (V/m) @ t=0.24
4.420633313578431
% es.Ey (V/m) @ t=0.24
1.321922587956749
% es.Ez (V/m) @ t=0.24
-4.842215272654115
% es.tEx (V/m) @ t=0.24
4.4206333135784135
% es.tEy (V/m) @ t=0.24
0
% es.tEz (V/m) @ t=0.24
-4.842215272654104
% V (V) @ t=0.24
0.005966933313552878
% es.normE (V/m) @ t=0.26
7.029131953832465
% es.EX (V/m) @ t=0.26
4.460686524683991
% es.EY (V/m) @ t=0.26
1.3338997937730577
% es.EZ (V/m) @ t=0.26
-4.88608782174879
% es.tEX (V/m) @ t=0.26
4.460686524683979
% es.tEY (V/m) @ t=0.26
0
% es.tEZ (V/m) @ t=0.26
-4.886087821748778
% es.Ex (V/m) @ t=0.26
4.460686524683991
% es.Ey (V/m) @ t=0.26
1.3338997937730577
% es.Ez (V/m) @ t=0.26
-4.88608782174879
% es.tEx (V/m) @ t=0.26
4.460686524683979
% es.tEy (V/m) @ t=0.26
0
% es.tEz (V/m) @ t=0.26
-4.886087821748778
% V (V) @ t=0.26
0.006020995730541926
% es.normE (V/m) @ t=0.28
7.095123569932907
% es.EX (V/m) @ t=0.28
4.502559992358967
% es.EY (V/m) @ t=0.28
1.3464234523829937
% es.EZ (V/m) @ t=0.28
-4.9319637027496785
% es.tEX (V/m) @ t=0.28
4.50255999235895
% es.tEY (V/m) @ t=0.28
0
% es.tEZ (V/m) @ t=0.28
-4.931963702749675
% es.Ex (V/m) @ t=0.28
4.502559992358967
% es.Ey (V/m) @ t=0.28
1.3464234523829937
% es.Ez (V/m) @ t=0.28
-4.9319637027496785
% es.tEx (V/m) @ t=0.28
4.50255999235895
% es.tEy (V/m) @ t=0.28
0
% es.tEz (V/m) @ t=0.28
-4.931963702749675
% V (V) @ t=0.28
0.00607753971535879
% es.normE (V/m) @ t=0.3
7.165458667216463
% es.EX (V/m) @ t=0.3
4.547182248963831
% es.EY (V/m) @ t=0.3
1.3597723152059242
% es.EZ (V/m) @ t=0.3
-4.980864836706256
% es.tEX (V/m) @ t=0.3
4.5471822489638285
% es.tEY (V/m) @ t=0.3
0
% es.tEZ (V/m) @ t=0.3
-4.980864836706244
% es.Ex (V/m) @ t=0.3
4.547182248963831
% es.Ey (V/m) @ t=0.3
1.3597723152059242
% es.Ez (V/m) @ t=0.3
-4.980864836706256
% es.tEx (V/m) @ t=0.3
4.5471822489638285
% es.tEy (V/m) @ t=0.3
0
% es.tEz (V/m) @ t=0.3
-4.980864836706244
% V (V) @ t=0.3
0.006137831142315662
% es.normE (V/m) @ t=0.32
7.23579376453528
% es.EX (V/m) @ t=0.32
4.591804505568712
% es.EY (V/m) @ t=0.32
1.373121178028846
% es.EZ (V/m) @ t=0.32
-5.029765970662837
% es.tEX (V/m) @ t=0.32
4.5918045055687005
% es.tEY (V/m) @ t=0.32
0
% es.tEZ (V/m) @ t=0.32
-5.0297659706628215
% es.Ex (V/m) @ t=0.32
4.591804505568712
% es.Ey (V/m) @ t=0.32
1.373121178028846
% es.Ez (V/m) @ t=0.32
-5.029765970662837
% es.tEx (V/m) @ t=0.32
4.5918045055687005
% es.tEy (V/m) @ t=0.32
0
% es.tEz (V/m) @ t=0.32
-5.0297659706628215
% V (V) @ t=0.32
0.006198122569272532
% es.normE (V/m) @ t=0.34
7.3061288618883005
% es.EX (V/m) @ t=0.34
4.6364267621735795
% es.EY (V/m) @ t=0.34
1.3864700408517945
% es.EZ (V/m) @ t=0.34
-5.078667104619409
% es.tEX (V/m) @ t=0.34
4.636426762173564
% es.tEY (V/m) @ t=0.34
0
% es.tEZ (V/m) @ t=0.34
-5.078667104619395
% es.Ex (V/m) @ t=0.34
4.6364267621735795
% es.Ey (V/m) @ t=0.34
1.3864700408517945
% es.Ez (V/m) @ t=0.34
-5.078667104619409
% es.tEx (V/m) @ t=0.34
4.636426762173564
% es.tEy (V/m) @ t=0.34
0
% es.tEz (V/m) @ t=0.34
-5.078667104619395
% V (V) @ t=0.34
0.0062584139962294045
% es.normE (V/m) @ t=0.36
7.376463959274583
% es.EX (V/m) @ t=0.36
4.681049018778442
% es.EY (V/m) @ t=0.36
1.3998189036747197
% es.EZ (V/m) @ t=0.36
-5.127568238576
% es.tEX (V/m) @ t=0.36
4.681049018778429
% es.tEY (V/m) @ t=0.36
0
% es.tEZ (V/m) @ t=0.36
-5.127568238575986
% es.Ex (V/m) @ t=0.36
4.681049018778442
% es.Ey (V/m) @ t=0.36
1.3998189036747197
% es.Ez (V/m) @ t=0.36
-5.127568238576
% es.tEx (V/m) @ t=0.36
4.681049018778429
% es.tEy (V/m) @ t=0.36
0
% es.tEz (V/m) @ t=0.36
-5.127568238575986
% V (V) @ t=0.36
0.006318705423186275
% es.normE (V/m) @ t=0.38
7.446799056693154
% es.EX (V/m) @ t=0.38
4.725671275383306
% es.EY (V/m) @ t=0.38
1.4131677664976523
% es.EZ (V/m) @ t=0.38
-5.176469372532581
% es.tEX (V/m) @ t=0.38
4.7256712753833
% es.tEY (V/m) @ t=0.38
0
% es.tEZ (V/m) @ t=0.38
-5.176469372532566
% es.Ex (V/m) @ t=0.38
4.725671275383306
% es.Ey (V/m) @ t=0.38
1.4131677664976523
% es.Ez (V/m) @ t=0.38
-5.176469372532581
% es.tEx (V/m) @ t=0.38
4.7256712753833
% es.tEy (V/m) @ t=0.38
0
% es.tEz (V/m) @ t=0.38
-5.176469372532566
% V (V) @ t=0.38
0.0063789968501431465
% es.normE (V/m) @ t=0.4
7.517134154143126
% es.EX (V/m) @ t=0.4
4.770293531988193
% es.EY (V/m) @ t=0.4
1.4265166293205722
% es.EZ (V/m) @ t=0.4
-5.225370506489147
% es.tEX (V/m) @ t=0.4
4.7702935319881785
% es.tEY (V/m) @ t=0.4
0
% es.tEZ (V/m) @ t=0.4
-5.225370506489136
% es.Ex (V/m) @ t=0.4
4.770293531988193
% es.Ey (V/m) @ t=0.4
1.4265166293205722
% es.Ez (V/m) @ t=0.4
-5.225370506489147
% es.tEx (V/m) @ t=0.4
4.7702935319881785
% es.tEy (V/m) @ t=0.4
0
% es.tEz (V/m) @ t=0.4
-5.225370506489136
% V (V) @ t=0.4
0.006439288277100018
% es.normE (V/m) @ t=0.42
7.587469251623616
% es.EX (V/m) @ t=0.42
4.814915788593057
% es.EY (V/m) @ t=0.42
1.4398654921434868
% es.EZ (V/m) @ t=0.42
-5.27427164044572
% es.tEX (V/m) @ t=0.42
4.814915788593053
% es.tEY (V/m) @ t=0.42
0
% es.tEZ (V/m) @ t=0.42
-5.2742716404457095
% es.Ex (V/m) @ t=0.42
4.814915788593057
% es.Ey (V/m) @ t=0.42
1.4398654921434868
% es.Ez (V/m) @ t=0.42
-5.27427164044572
% es.tEx (V/m) @ t=0.42
4.814915788593053
% es.tEy (V/m) @ t=0.42
0
% es.tEz (V/m) @ t=0.42
-5.2742716404457095
% V (V) @ t=0.42
0.006499579704056888
% es.normE (V/m) @ t=0.44
7.657804349133809
% es.EX (V/m) @ t=0.44
4.85953804519792
% es.EY (V/m) @ t=0.44
1.453214354966453
% es.EZ (V/m) @ t=0.44
-5.323172774402318
% es.tEX (V/m) @ t=0.44
4.859538045197906
% es.tEY (V/m) @ t=0.44
0
% es.tEZ (V/m) @ t=0.44
-5.323172774402314
% es.Ex (V/m) @ t=0.44
4.85953804519792
% es.Ey (V/m) @ t=0.44
1.453214354966453
% es.Ez (V/m) @ t=0.44
-5.323172774402318
% es.tEx (V/m) @ t=0.44
4.859538045197906
% es.tEy (V/m) @ t=0.44
0
% es.tEz (V/m) @ t=0.44
-5.323172774402314
% V (V) @ t=0.44
0.00655987113101376
% es.normE (V/m) @ t=0.46
7.728139446672845
% es.EX (V/m) @ t=0.46
4.904160301802779
% es.EY (V/m) @ t=0.46
1.4665632177893713
% es.EZ (V/m) @ t=0.46
-5.3720739083588915
% es.tEX (V/m) @ t=0.46
4.9041603018027775
% es.tEY (V/m) @ t=0.46
0
% es.tEZ (V/m) @ t=0.46
-5.37207390835888
% es.Ex (V/m) @ t=0.46
4.904160301802779
% es.Ey (V/m) @ t=0.46
1.4665632177893713
% es.Ez (V/m) @ t=0.46
-5.3720739083588915
% es.tEx (V/m) @ t=0.46
4.9041603018027775
% es.tEy (V/m) @ t=0.46
0
% es.tEz (V/m) @ t=0.46
-5.37207390835888
% V (V) @ t=0.46
0.00662016255797063
% es.normE (V/m) @ t=0.48
7.798474544239998
% es.EX (V/m) @ t=0.48
4.9487825584076655
% es.EY (V/m) @ t=0.48
1.4799120806122983
% es.EZ (V/m) @ t=0.48
-5.420975042315469
% es.tEX (V/m) @ t=0.48
4.948782558407652
% es.tEY (V/m) @ t=0.48
0
% es.tEZ (V/m) @ t=0.48
-5.420975042315457
% es.Ex (V/m) @ t=0.48
4.9487825584076655
% es.Ey (V/m) @ t=0.48
1.4799120806122983
% es.Ez (V/m) @ t=0.48
-5.420975042315469
% es.tEx (V/m) @ t=0.48
4.948782558407652
% es.tEy (V/m) @ t=0.48
0
% es.tEz (V/m) @ t=0.48
-5.420975042315457
% V (V) @ t=0.48
0.006680453984927503
% es.normE (V/m) @ t=0.5
7.868809641834471
% es.EX (V/m) @ t=0.5
4.993404815012531
% es.EY (V/m) @ t=0.5
1.4932609434352342
% es.EZ (V/m) @ t=0.5
-5.469876176272052
% es.tEX (V/m) @ t=0.5
4.993404815012523
% es.tEY (V/m) @ t=0.5
0
% es.tEZ (V/m) @ t=0.5
-5.469876176272042
% es.Ex (V/m) @ t=0.5
4.993404815012531
% es.Ey (V/m) @ t=0.5
1.4932609434352342
% es.Ez (V/m) @ t=0.5
-5.469876176272052
% es.tEx (V/m) @ t=0.5
4.993404815012523
% es.tEy (V/m) @ t=0.5
0
% es.tEz (V/m) @ t=0.5
-5.469876176272042
% V (V) @ t=0.5
0.006740745411884372
% es.normE (V/m) @ t=0.52
7.939144739455556
% es.EX (V/m) @ t=0.52
5.038027071617398
% es.EY (V/m) @ t=0.52
1.5066098062581736
% es.EZ (V/m) @ t=0.52
-5.518777310228629
% es.tEX (V/m) @ t=0.52
5.038027071617381
% es.tEY (V/m) @ t=0.52
0
% es.tEZ (V/m) @ t=0.52
-5.518777310228614
% es.Ex (V/m) @ t=0.52
5.038027071617398
% es.Ey (V/m) @ t=0.52
1.5066098062581736
% es.Ez (V/m) @ t=0.52
-5.518777310228629
% es.tEx (V/m) @ t=0.52
5.038027071617381
% es.tEy (V/m) @ t=0.52
0
% es.tEz (V/m) @ t=0.52
-5.518777310228614
% V (V) @ t=0.52
0.0068010368388412455
% es.normE (V/m) @ t=0.54
8.009479837102573
% es.EX (V/m) @ t=0.54
5.082649328222269
% es.EY (V/m) @ t=0.54
1.5199586690810938
% es.EZ (V/m) @ t=0.54
-5.567678444185234
% es.tEX (V/m) @ t=0.54
5.082649328222252
% es.tEY (V/m) @ t=0.54
0
% es.tEZ (V/m) @ t=0.54
-5.567678444185223
% es.Ex (V/m) @ t=0.54
5.082649328222269
% es.Ey (V/m) @ t=0.54
1.5199586690810938
% es.Ez (V/m) @ t=0.54
-5.567678444185234
% es.tEx (V/m) @ t=0.54
5.082649328222252
% es.tEy (V/m) @ t=0.54
0
% es.tEz (V/m) @ t=0.54
-5.567678444185223
% V (V) @ t=0.54
0.006861328265798116
% es.normE (V/m) @ t=0.56
8.08633518369389
% es.EX (V/m) @ t=0.56
5.131429304748003
% es.EY (V/m) @ t=0.56
1.5345423525627508
% es.EZ (V/m) @ t=0.56
-5.621096095969819
% es.tEX (V/m) @ t=0.56
5.131429304748
% es.tEY (V/m) @ t=0.56
0
% es.tEZ (V/m) @ t=0.56
-5.621096095969805
% es.Ex (V/m) @ t=0.56
5.131429304748003
% es.Ey (V/m) @ t=0.56
1.5345423525627508
% es.Ez (V/m) @ t=0.56
-5.621096095969819
% es.tEx (V/m) @ t=0.56
5.131429304748
% es.tEy (V/m) @ t=0.56
0
% es.tEz (V/m) @ t=0.56
-5.621096095969805
% V (V) @ t=0.56
0.0069271339199262205
% es.normE (V/m) @ t=0.58
8.164752575669421
% es.EX (V/m) @ t=0.58
5.18120533941972
% es.EY (V/m) @ t=0.58
1.5494218600054093
% es.EZ (V/m) @ t=0.58
-5.67559576252688
% es.tEX (V/m) @ t=0.58
5.18120533941971
% es.tEY (V/m) @ t=0.58
0
% es.tEZ (V/m) @ t=0.58
-5.67559576252687
% es.Ex (V/m) @ t=0.58
5.18120533941972
% es.Ey (V/m) @ t=0.58
1.5494218600054093
% es.Ez (V/m) @ t=0.58
-5.67559576252688
% es.tEx (V/m) @ t=0.58
5.18120533941971
% es.tEy (V/m) @ t=0.58
0
% es.tEz (V/m) @ t=0.58
-5.67559576252687
% V (V) @ t=0.58
0.006994260608418629
% es.normE (V/m) @ t=0.6
8.243169967684175
% es.EX (V/m) @ t=0.6
5.230981374091435
% es.EY (V/m) @ t=0.6
1.5643013674481123
% es.EZ (V/m) @ t=0.6
-5.730095429083913
% es.tEX (V/m) @ t=0.6
5.230981374091422
% es.tEY (V/m) @ t=0.6
0
% es.tEZ (V/m) @ t=0.6
-5.730095429083902
% es.Ex (V/m) @ t=0.6
5.230981374091435
% es.Ey (V/m) @ t=0.6
1.5643013674481123
% es.Ez (V/m) @ t=0.6
-5.730095429083913
% es.tEx (V/m) @ t=0.6
5.230981374091422
% es.tEy (V/m) @ t=0.6
0
% es.tEz (V/m) @ t=0.6
-5.730095429083902
% V (V) @ t=0.6
0.00706138729691104
% es.normE (V/m) @ t=0.62
8.321587359737062
% es.EX (V/m) @ t=0.62
5.280757408763145
% es.EY (V/m) @ t=0.62
1.5791808748907872
% es.EZ (V/m) @ t=0.62
-5.784595095640956
% es.tEX (V/m) @ t=0.62
5.280757408763128
% es.tEY (V/m) @ t=0.62
0
% es.tEZ (V/m) @ t=0.62
-5.784595095640945
% es.Ex (V/m) @ t=0.62
5.280757408763145
% es.Ey (V/m) @ t=0.62
1.5791808748907872
% es.Ez (V/m) @ t=0.62
-5.784595095640956
% es.tEx (V/m) @ t=0.62
5.280757408763128
% es.tEy (V/m) @ t=0.62
0
% es.tEz (V/m) @ t=0.62
-5.784595095640945
% V (V) @ t=0.62
0.00712851398540345
% es.normE (V/m) @ t=0.64
8.400004751827016
% es.EX (V/m) @ t=0.64
5.330533443434856
% es.EY (V/m) @ t=0.64
1.5940603823334687
% es.EZ (V/m) @ t=0.64
-5.839094762198003
% es.tEX (V/m) @ t=0.64
5.330533443434846
% es.tEY (V/m) @ t=0.64
0
% es.tEZ (V/m) @ t=0.64
-5.839094762197991
% es.Ex (V/m) @ t=0.64
5.330533443434856
% es.Ey (V/m) @ t=0.64
1.5940603823334687
% es.Ez (V/m) @ t=0.64
-5.839094762198003
% es.tEx (V/m) @ t=0.64
5.330533443434846
% es.tEy (V/m) @ t=0.64
0
% es.tEz (V/m) @ t=0.64
-5.839094762197991
% V (V) @ t=0.64
0.007195640673895862
% es.normE (V/m) @ t=0.66
8.478422143953006
% es.EX (V/m) @ t=0.66
5.38030947810657
% es.EY (V/m) @ t=0.66
1.6089398897761504
% es.EZ (V/m) @ t=0.66
-5.893594428755053
% es.tEX (V/m) @ t=0.66
5.380309478106564
% es.tEY (V/m) @ t=0.66
0
% es.tEZ (V/m) @ t=0.66
-5.893594428755042
% es.Ex (V/m) @ t=0.66
5.38030947810657
% es.Ey (V/m) @ t=0.66
1.6089398897761504
% es.Ez (V/m) @ t=0.66
-5.893594428755053
% es.tEx (V/m) @ t=0.66
5.380309478106564
% es.tEy (V/m) @ t=0.66
0
% es.tEz (V/m) @ t=0.66
-5.893594428755042
% V (V) @ t=0.66
0.007262767362388271
% es.normE (V/m) @ t=0.68
8.55683953611403
% es.EX (V/m) @ t=0.68
5.430085512778291
% es.EY (V/m) @ t=0.68
1.623819397218818
% es.EZ (V/m) @ t=0.68
-5.9480940953120855
% es.tEX (V/m) @ t=0.68
5.430085512778282
% es.tEY (V/m) @ t=0.68
0
% es.tEZ (V/m) @ t=0.68
-5.948094095312078
% es.Ex (V/m) @ t=0.68
5.430085512778291
% es.Ey (V/m) @ t=0.68
1.623819397218818
% es.Ez (V/m) @ t=0.68
-5.9480940953120855
% es.tEx (V/m) @ t=0.68
5.430085512778282
% es.tEy (V/m) @ t=0.68
0
% es.tEz (V/m) @ t=0.68
-5.948094095312078
% V (V) @ t=0.68
0.007329894050880683
% es.normE (V/m) @ t=0.7
8.635256928309166
% es.EX (V/m) @ t=0.7
5.479861547450005
% es.EY (V/m) @ t=0.7
1.6386989046615175
% es.EZ (V/m) @ t=0.7
-6.002593761869143
% es.tEX (V/m) @ t=0.7
5.479861547449995
% es.tEY (V/m) @ t=0.7
0
% es.tEZ (V/m) @ t=0.7
-6.002593761869128
% es.Ex (V/m) @ t=0.7
5.479861547450005
% es.Ey (V/m) @ t=0.7
1.6386989046615175
% es.Ez (V/m) @ t=0.7
-6.002593761869143
% es.tEx (V/m) @ t=0.7
5.479861547449995
% es.tEy (V/m) @ t=0.7
0
% es.tEz (V/m) @ t=0.7
-6.002593761869128
% V (V) @ t=0.7
0.007397020739373094
% es.normE (V/m) @ t=0.72
8.713674320537454
% es.EX (V/m) @ t=0.72
5.529637582121703
% es.EY (V/m) @ t=0.72
1.6535784121041992
% es.EZ (V/m) @ t=0.72
-6.057093428426196
% es.tEX (V/m) @ t=0.72
5.529637582121691
% es.tEY (V/m) @ t=0.72
0
% es.tEZ (V/m) @ t=0.72
-6.057093428426175
% es.Ex (V/m) @ t=0.72
5.529637582121703
% es.Ey (V/m) @ t=0.72
1.6535784121041992
% es.Ez (V/m) @ t=0.72
-6.057093428426196
% es.tEx (V/m) @ t=0.72
5.529637582121691
% es.tEy (V/m) @ t=0.72
0
% es.tEz (V/m) @ t=0.72
-6.057093428426175
% V (V) @ t=0.72
0.007464147427865504
% es.normE (V/m) @ t=0.74
8.792091712798022
% es.EX (V/m) @ t=0.74
5.579413616793422
% es.EY (V/m) @ t=0.74
1.6684579195468805
% es.EZ (V/m) @ t=0.74
-6.111593094983229
% es.tEX (V/m) @ t=0.74
5.579413616793406
% es.tEY (V/m) @ t=0.74
0
% es.tEZ (V/m) @ t=0.74
-6.111593094983221
% es.Ex (V/m) @ t=0.74
5.579413616793422
% es.Ey (V/m) @ t=0.74
1.6684579195468805
% es.Ez (V/m) @ t=0.74
-6.111593094983229
% es.tEx (V/m) @ t=0.74
5.579413616793406
% es.tEy (V/m) @ t=0.74
0
% es.tEz (V/m) @ t=0.74
-6.111593094983221
% V (V) @ t=0.74
0.007531274116357916
% es.normE (V/m) @ t=0.76
8.870509105090017
% es.EX (V/m) @ t=0.76
5.629189651465133
% es.EY (V/m) @ t=0.76
1.6833374269895485
% es.EZ (V/m) @ t=0.76
-6.166092761540268
% es.tEX (V/m) @ t=0.76
5.629189651465123
% es.tEY (V/m) @ t=0.76
0
% es.tEZ (V/m) @ t=0.76
-6.166092761540261
% es.Ex (V/m) @ t=0.76
5.629189651465133
% es.Ey (V/m) @ t=0.76
1.6833374269895485
% es.Ez (V/m) @ t=0.76
-6.166092761540268
% es.tEx (V/m) @ t=0.76
5.629189651465123
% es.tEy (V/m) @ t=0.76
0
% es.tEz (V/m) @ t=0.76
-6.166092761540261
% V (V) @ t=0.76
0.007598400804850325
% es.normE (V/m) @ t=0.78
8.948926497412621
% es.EX (V/m) @ t=0.78
5.678965686136848
% es.EY (V/m) @ t=0.78
1.6982169344322546
% es.EZ (V/m) @ t=0.78
-6.220592428097312
% es.tEX (V/m) @ t=0.78
5.678965686136831
% es.tEY (V/m) @ t=0.78
0
% es.tEZ (V/m) @ t=0.78
-6.220592428097297
% es.Ex (V/m) @ t=0.78
5.678965686136848
% es.Ey (V/m) @ t=0.78
1.6982169344322546
% es.Ez (V/m) @ t=0.78
-6.220592428097312
% es.tEx (V/m) @ t=0.78
5.678965686136831
% es.tEy (V/m) @ t=0.78
0
% es.tEz (V/m) @ t=0.78
-6.220592428097297
% V (V) @ t=0.78
0.007665527493342738
% es.normE (V/m) @ t=0.8
9.027343889765016
% es.EX (V/m) @ t=0.8
5.728741720808557
% es.EY (V/m) @ t=0.8
1.7130964418749333
% es.EZ (V/m) @ t=0.8
-6.275092094654358
% es.tEX (V/m) @ t=0.8
5.728741720808548
% es.tEY (V/m) @ t=0.8
0
% es.tEZ (V/m) @ t=0.8
-6.275092094654344
% es.Ex (V/m) @ t=0.8
5.728741720808557
% es.Ey (V/m) @ t=0.8
1.7130964418749333
% es.Ez (V/m) @ t=0.8
-6.275092094654358
% es.tEx (V/m) @ t=0.8
5.728741720808548
% es.tEy (V/m) @ t=0.8
0
% es.tEz (V/m) @ t=0.8
-6.275092094654344
% V (V) @ t=0.8
0.007732654181835146
% es.normE (V/m) @ t=0.82
9.107770308812885
% es.EX (V/m) @ t=0.82
5.779785048067362
% es.EY (V/m) @ t=0.82
1.7283581553720162
% es.EZ (V/m) @ t=0.82
-6.330994330123281
% es.tEX (V/m) @ t=0.82
5.779785048067346
% es.tEY (V/m) @ t=0.82
0
% es.tEZ (V/m) @ t=0.82
-6.330994330123273
% es.Ex (V/m) @ t=0.82
5.779785048067362
% es.Ey (V/m) @ t=0.82
1.7283581553720162
% es.Ez (V/m) @ t=0.82
-6.330994330123281
% es.tEx (V/m) @ t=0.82
5.779785048067346
% es.tEy (V/m) @ t=0.82
0
% es.tEz (V/m) @ t=0.82
-6.330994330123273
% V (V) @ t=0.82
0.00780152885443866
% es.normE (V/m) @ t=0.84
9.195528706656194
% es.EX (V/m) @ t=0.84
5.835453382271874
% es.EY (V/m) @ t=0.84
1.7450147366955147
% es.EZ (V/m) @ t=0.84
-6.392015265902881
% es.tEX (V/m) @ t=0.84
5.835453382271857
% es.tEY (V/m) @ t=0.84
0
% es.tEZ (V/m) @ t=0.84
-6.392015265902867
% es.Ex (V/m) @ t=0.84
5.835453382271874
% es.Ey (V/m) @ t=0.84
1.7450147366955147
% es.Ez (V/m) @ t=0.84
-6.392015265902881
% es.tEx (V/m) @ t=0.84
5.835453382271857
% es.tEy (V/m) @ t=0.84
0
% es.tEz (V/m) @ t=0.84
-6.392015265902867
% V (V) @ t=0.84
0.007876782826295711
% es.normE (V/m) @ t=0.86
9.283287104595654
% es.EX (V/m) @ t=0.86
5.89112171647639
% es.EY (V/m) @ t=0.86
1.7616713180190056
% es.EZ (V/m) @ t=0.86
-6.453036201682492
% es.tEX (V/m) @ t=0.86
5.891121716476368
% es.tEY (V/m) @ t=0.86
0
% es.tEZ (V/m) @ t=0.86
-6.453036201682478
% es.Ex (V/m) @ t=0.86
5.89112171647639
% es.Ey (V/m) @ t=0.86
1.7616713180190056
% es.Ez (V/m) @ t=0.86
-6.453036201682492
% es.tEx (V/m) @ t=0.86
5.891121716476368
% es.tEy (V/m) @ t=0.86
0
% es.tEz (V/m) @ t=0.86
-6.453036201682478
% V (V) @ t=0.86
0.007952036798152763
% es.normE (V/m) @ t=0.88
9.371045502628554
% es.EX (V/m) @ t=0.88
5.9467900506808995
% es.EY (V/m) @ t=0.88
1.7783278993424867
% es.EZ (V/m) @ t=0.88
-6.514057137462089
% es.tEX (V/m) @ t=0.88
5.9467900506808835
% es.tEY (V/m) @ t=0.88
0
% es.tEZ (V/m) @ t=0.88
-6.514057137462067
% es.Ex (V/m) @ t=0.88
5.9467900506808995
% es.Ey (V/m) @ t=0.88
1.7783278993424867
% es.Ez (V/m) @ t=0.88
-6.514057137462089
% es.tEx (V/m) @ t=0.88
5.9467900506808835
% es.tEy (V/m) @ t=0.88
0
% es.tEz (V/m) @ t=0.88
-6.514057137462067
% V (V) @ t=0.88
0.008027290770009817
% es.normE (V/m) @ t=0.9
9.458803900752297
% es.EX (V/m) @ t=0.9
6.0024583848854105
% es.EY (V/m) @ t=0.9
1.7949844806659958
% es.EZ (V/m) @ t=0.9
-6.575078073241702
% es.tEX (V/m) @ t=0.9
6.002458384885401
% es.tEY (V/m) @ t=0.9
0
% es.tEZ (V/m) @ t=0.9
-6.575078073241695
% es.Ex (V/m) @ t=0.9
6.0024583848854105
% es.Ey (V/m) @ t=0.9
1.7949844806659958
% es.Ez (V/m) @ t=0.9
-6.575078073241702
% es.tEx (V/m) @ t=0.9
6.002458384885401
% es.tEy (V/m) @ t=0.9
0
% es.tEz (V/m) @ t=0.9
-6.575078073241695
% V (V) @ t=0.9
0.008102544741866868
% es.normE (V/m) @ t=0.92
9.546562298964353
% es.EX (V/m) @ t=0.92
6.058126719089924
% es.EY (V/m) @ t=0.92
1.811641061989505
% es.EZ (V/m) @ t=0.92
-6.636099009021278
% es.tEX (V/m) @ t=0.92
6.058126719089911
% es.tEY (V/m) @ t=0.92
0
% es.tEZ (V/m) @ t=0.92
-6.636099009021263
% es.Ex (V/m) @ t=0.92
6.058126719089924
% es.Ey (V/m) @ t=0.92
1.811641061989505
% es.Ez (V/m) @ t=0.92
-6.636099009021278
% es.tEx (V/m) @ t=0.92
6.058126719089911
% es.tEy (V/m) @ t=0.92
0
% es.tEz (V/m) @ t=0.92
-6.636099009021263
% V (V) @ t=0.92
0.00817779871372392
% es.normE (V/m) @ t=0.94
9.634320697262378
% es.EX (V/m) @ t=0.94
6.113795053294439
% es.EY (V/m) @ t=0.94
1.8282976433129896
% es.EZ (V/m) @ t=0.94
-6.697119944800899
% es.tEX (V/m) @ t=0.94
6.11379505329443
% es.tEY (V/m) @ t=0.94
0
% es.tEZ (V/m) @ t=0.94
-6.697119944800891
% es.Ex (V/m) @ t=0.94
6.113795053294439
% es.Ey (V/m) @ t=0.94
1.8282976433129896
% es.Ez (V/m) @ t=0.94
-6.697119944800899
% es.tEx (V/m) @ t=0.94
6.11379505329443
% es.tEy (V/m) @ t=0.94
0
% es.tEz (V/m) @ t=0.94
-6.697119944800891
% V (V) @ t=0.94
0.008253052685580973
% es.normE (V/m) @ t=0.96
9.722079095643974
% es.EX (V/m) @ t=0.96
6.169463387498935
% es.EY (V/m) @ t=0.96
1.844954224636484
% es.EZ (V/m) @ t=0.96
-6.758140880580516
% es.tEX (V/m) @ t=0.96
6.169463387498909
% es.tEY (V/m) @ t=0.96
0
% es.tEZ (V/m) @ t=0.96
-6.758140880580502
% es.Ex (V/m) @ t=0.96
6.169463387498935
% es.Ey (V/m) @ t=0.96
1.844954224636484
% es.Ez (V/m) @ t=0.96
-6.758140880580516
% es.tEx (V/m) @ t=0.96
6.169463387498909
% es.tEy (V/m) @ t=0.96
0
% es.tEz (V/m) @ t=0.96
-6.758140880580502
% V (V) @ t=0.96
0.008328306657438025
% es.normE (V/m) @ t=0.98
9.809837494106919
% es.EX (V/m) @ t=0.98
6.225131721703467
% es.EY (V/m) @ t=0.98
1.861610805959958
% es.EZ (V/m) @ t=0.98
-6.819161816360106
% es.tEX (V/m) @ t=0.98
6.225131721703455
% es.tEY (V/m) @ t=0.98
0
% es.tEZ (V/m) @ t=0.98
-6.819161816360091
% es.Ex (V/m) @ t=0.98
6.225131721703467
% es.Ey (V/m) @ t=0.98
1.861610805959958
% es.Ez (V/m) @ t=0.98
-6.819161816360106
% es.tEx (V/m) @ t=0.98
6.225131721703455
% es.tEy (V/m) @ t=0.98
0
% es.tEz (V/m) @ t=0.98
-6.819161816360091
% V (V) @ t=0.98
0.008403560629295079
% es.normE (V/m) @ t=1
9.897595892649058
% es.EX (V/m) @ t=1
6.280800055907971
% es.EY (V/m) @ t=1
1.8782673872834454
% es.EZ (V/m) @ t=1
-6.880182752139713
% es.tEX (V/m) @ t=1
6.28080005590796
% es.tEY (V/m) @ t=1
0
% es.tEZ (V/m) @ t=1
-6.880182752139705
% es.Ex (V/m) @ t=1
6.280800055907971
% es.Ey (V/m) @ t=1
1.8782673872834454
% es.Ez (V/m) @ t=1
-6.880182752139713
% es.tEx (V/m) @ t=1
6.28080005590796
% es.tEy (V/m) @ t=1
0
% es.tEz (V/m) @ t=1
-6.880182752139705
% V (V) @ t=1
0.00847881460115213
% es.normE (V/m) @ t=1.02
9.985354291268282
% es.EX (V/m) @ t=1.02
6.3364683901124925
% es.EY (V/m) @ t=1.02
1.894923968606923
% es.EZ (V/m) @ t=1.02
-6.941203687919302
% es.tEX (V/m) @ t=1.02
6.336468390112477
% es.tEY (V/m) @ t=1.02
0
% es.tEZ (V/m) @ t=1.02
-6.9412036879192875
% es.Ex (V/m) @ t=1.02
6.3364683901124925
% es.Ey (V/m) @ t=1.02
1.894923968606923
% es.Ez (V/m) @ t=1.02
-6.941203687919302
% es.tEx (V/m) @ t=1.02
6.336468390112477
% es.tEy (V/m) @ t=1.02
0
% es.tEz (V/m) @ t=1.02
-6.9412036879192875
% V (V) @ t=1.02
0.008554068573009183
% es.normE (V/m) @ t=1.04
10.07311268996262
% es.EX (V/m) @ t=1.04
6.392136724316989
% es.EY (V/m) @ t=1.04
1.9115805499304672
% es.EZ (V/m) @ t=1.04
-7.002224623698934
% es.tEX (V/m) @ t=1.04
6.392136724316982
% es.tEY (V/m) @ t=1.04
0
% es.tEZ (V/m) @ t=1.04
-7.002224623698912
% es.Ex (V/m) @ t=1.04
6.392136724316989
% es.Ey (V/m) @ t=1.04
1.9115805499304672
% es.Ez (V/m) @ t=1.04
-7.002224623698934
% es.tEx (V/m) @ t=1.04
6.392136724316982
% es.tEy (V/m) @ t=1.04
0
% es.tEz (V/m) @ t=1.04
-7.002224623698912
% V (V) @ t=1.04
0.008629322544866235
% es.normE (V/m) @ t=1.06
10.160871088730072
% es.EX (V/m) @ t=1.06
6.447805058521514
% es.EY (V/m) @ t=1.06
1.9282371312539306