% Model:              1 neuron.mph
% Version:            COMSOL 6.0.0.405
% Date:               Mar 9 2023, 13:46
% Dimension:          0
% Nodes:              14017
% Expressions:        14017
% Description:        Electric field norm, Electric field, X component, Electric field, Y component, Electric field, Z component, Tangential electric field, X component, Tangential electric field, Y component, Tangential electric field, Z component, Electric field, x component, Electric field, y component, Electric field, z component, Tangential electric field, x component, Tangential electric field, y component, Tangential electric field, z component, Electric potential
% Length unit:        mm
% x
1.66
% y
12.200000000000001
% z
1.66
% es.normE (V/m) @ t=0
20.320492995695503
% es.EX (V/m) @ t=0
-9.596506276363385
% es.EY (V/m) @ t=0
7.699369028102421
% es.EZ (V/m) @ t=0
9.229654270214265
% es.tEX (V/m) @ t=0
-9.596506276363414
% es.tEY (V/m) @ t=0
0
% es.tEZ (V/m) @ t=0
9.229654270214269
% es.Ex (V/m) @ t=0
-9.596506276363385
% es.Ey (V/m) @ t=0
7.699369028102421
% es.Ez (V/m) @ t=0
9.229654270214265
% es.tEx (V/m) @ t=0
-9.596506276363414
% es.tEy (V/m) @ t=0
0
% es.tEz (V/m) @ t=0
9.229654270214269
% V (V) @ t=0
0.00637749913378016
% es.normE (V/m) @ t=0.02
17.551184629211065
% es.EX (V/m) @ t=0.02
-8.288679536806391
% es.EY (V/m) @ t=0.02
6.650087079256814
% es.EZ (V/m) @ t=0.02
7.971822557409048
% es.tEX (V/m) @ t=0.02
-8.288679536806388
% es.tEY (V/m) @ t=0.02
0
% es.tEZ (V/m) @ t=0.02
7.971822557409041
% es.Ex (V/m) @ t=0.02
-8.288679536806391
% es.Ey (V/m) @ t=0.02
6.650087079256814
% es.Ez (V/m) @ t=0.02
7.971822557409048
% es.tEx (V/m) @ t=0.02
-8.288679536806388
% es.tEy (V/m) @ t=0.02
0
% es.tEz (V/m) @ t=0.02
7.971822557409041
% V (V) @ t=0.02
0.005508363636353111
% es.normE (V/m) @ t=0.04
17.712606736291914
% es.EX (V/m) @ t=0.04
-8.364912367850877
% es.EY (V/m) @ t=0.04
6.711249405528431
% es.EZ (V/m) @ t=0.04
8.04514112742191
% es.tEX (V/m) @ t=0.04
-8.364912367850867
% es.tEY (V/m) @ t=0.04
0
% es.tEZ (V/m) @ t=0.04
8.045141127421914
% es.Ex (V/m) @ t=0.04
-8.364912367850877
% es.Ey (V/m) @ t=0.04
6.711249405528431
% es.Ez (V/m) @ t=0.04
8.04514112742191
% es.tEx (V/m) @ t=0.04
-8.364912367850867
% es.tEy (V/m) @ t=0.04
0
% es.tEz (V/m) @ t=0.04
8.045141127421914
% V (V) @ t=0.04
0.005559025267132404
% es.normE (V/m) @ t=0.06
17.87548038022992
% es.EX (V/m) @ t=0.06
-8.441830566943715
% es.EY (V/m) @ t=0.06
6.772961640515831
% es.EZ (V/m) @ t=0.06
8.119119212955368
% es.tEX (V/m) @ t=0.06
-8.441830566943729
% es.tEY (V/m) @ t=0.06
0
% es.tEZ (V/m) @ t=0.06
8.119119212955411
% es.Ex (V/m) @ t=0.06
-8.441830566943715
% es.Ey (V/m) @ t=0.06
6.772961640515831
% es.Ez (V/m) @ t=0.06
8.119119212955368
% es.tEx (V/m) @ t=0.06
-8.441830566943729
% es.tEy (V/m) @ t=0.06
0
% es.tEz (V/m) @ t=0.06
8.119119212955411
% V (V) @ t=0.06
0.0056101424667111665
% es.normE (V/m) @ t=0.08
18.040852501547963
% es.EX (V/m) @ t=0.08
-8.519928674546527
% es.EY (V/m) @ t=0.08
6.835620531327603
% es.EZ (V/m) @ t=0.08
8.194232145028693
% es.tEX (V/m) @ t=0.08
-8.519928674546527
% es.tEY (V/m) @ t=0.08
0
% es.tEZ (V/m) @ t=0.08
8.194232145028707
% es.Ex (V/m) @ t=0.08
-8.519928674546527
% es.Ey (V/m) @ t=0.08
6.835620531327603
% es.Ez (V/m) @ t=0.08
8.194232145028693
% es.tEx (V/m) @ t=0.08
-8.519928674546527
% es.tEy (V/m) @ t=0.08
0
% es.tEz (V/m) @ t=0.08
8.194232145028707
% V (V) @ t=0.08
0.005662043803900315
% es.normE (V/m) @ t=0.1
18.20793671302038
% es.EX (V/m) @ t=0.1
-8.598835318483985
% es.EY (V/m) @ t=0.1
6.898928121274825
% es.EZ (V/m) @ t=0.1
8.270122734567824
% es.tEX (V/m) @ t=0.1
-8.598835318483953
% es.tEY (V/m) @ t=0.1
0
% es.tEZ (V/m) @ t=0.1
8.27012273456782
% es.Ex (V/m) @ t=0.1
-8.598835318483985
% es.Ey (V/m) @ t=0.1
6.898928121274825
% es.Ez (V/m) @ t=0.1
8.270122734567824
% es.tEx (V/m) @ t=0.1
-8.598835318483953
% es.tEy (V/m) @ t=0.1
0
% es.tEz (V/m) @ t=0.1
8.27012273456782
% V (V) @ t=0.1
0.005714482474064022
% es.normE (V/m) @ t=0.12
18.375020924492894
% es.EX (V/m) @ t=0.12
-8.677741962421422
% es.EY (V/m) @ t=0.12
6.9622357112220605
% es.EZ (V/m) @ t=0.12
8.346013324107005
% es.tEX (V/m) @ t=0.12
-8.677741962421429
% es.tEY (V/m) @ t=0.12
0
% es.tEZ (V/m) @ t=0.12
8.346013324106991
% es.Ex (V/m) @ t=0.12
-8.677741962421422
% es.Ey (V/m) @ t=0.12
6.9622357112220605
% es.Ez (V/m) @ t=0.12
8.346013324107005
% es.tEx (V/m) @ t=0.12
-8.677741962421429
% es.tEy (V/m) @ t=0.12
0
% es.tEz (V/m) @ t=0.12
8.346013324106991
% V (V) @ t=0.12
0.005766921144227731
% es.normE (V/m) @ t=0.14
18.543856512883245
% es.EX (V/m) @ t=0.14
-8.757475750838047
% es.EY (V/m) @ t=0.14
7.026206916716163
% es.EZ (V/m) @ t=0.14
8.422699323098747
% es.tEX (V/m) @ t=0.14
-8.75747575083804
% es.tEY (V/m) @ t=0.14
0
% es.tEZ (V/m) @ t=0.14
8.422699323098726
% es.Ex (V/m) @ t=0.14
-8.757475750838047
% es.Ey (V/m) @ t=0.14
7.026206916716163
% es.Ez (V/m) @ t=0.14
8.422699323098747
% es.tEx (V/m) @ t=0.14
-8.75747575083804
% es.tEy (V/m) @ t=0.14
0
% es.tEz (V/m) @ t=0.14
8.422699323098726
% V (V) @ t=0.14
0.00581990947310767
% es.normE (V/m) @ t=0.16
18.719843783445455
% es.EX (V/m) @ t=0.16
-8.840587152813924
% es.EY (V/m) @ t=0.16
7.092887971487681
% es.EZ (V/m) @ t=0.16
8.502633346854882
% es.tEX (V/m) @ t=0.16
-8.840587152813917
% es.tEY (V/m) @ t=0.16
0
% es.tEZ (V/m) @ t=0.16
8.502633346854878
% es.Ex (V/m) @ t=0.16
-8.840587152813924
% es.Ey (V/m) @ t=0.16
7.092887971487681
% es.Ez (V/m) @ t=0.16
8.502633346854882
% es.tEx (V/m) @ t=0.16
-8.840587152813917
% es.tEy (V/m) @ t=0.16
0
% es.tEz (V/m) @ t=0.16
8.502633346854878
% V (V) @ t=0.16
0.005875142312807287
% es.normE (V/m) @ t=0.18
18.89583105400768
% es.EX (V/m) @ t=0.18
-8.923698554789802
% es.EY (V/m) @ t=0.18
7.159569026259241
% es.EZ (V/m) @ t=0.18
8.582567370611034
% es.tEX (V/m) @ t=0.18
-8.923698554789805
% es.tEY (V/m) @ t=0.18
0
% es.tEZ (V/m) @ t=0.18
8.582567370611002
% es.Ex (V/m) @ t=0.18
-8.923698554789802
% es.Ey (V/m) @ t=0.18
7.159569026259241
% es.Ez (V/m) @ t=0.18
8.582567370611034
% es.tEx (V/m) @ t=0.18
-8.923698554789805
% es.tEy (V/m) @ t=0.18
0
% es.tEz (V/m) @ t=0.18
8.582567370611002
% V (V) @ t=0.18
0.005930375152506903
% es.normE (V/m) @ t=0.2
19.07181832456988
% es.EX (V/m) @ t=0.2
-9.00680995676565
% es.EY (V/m) @ t=0.2
7.226250081030784
% es.EZ (V/m) @ t=0.2
8.662501394367165
% es.tEX (V/m) @ t=0.2
-9.006809956765665
% es.tEY (V/m) @ t=0.2
0
% es.tEZ (V/m) @ t=0.2
8.662501394367126
% es.Ex (V/m) @ t=0.2
-9.00680995676565
% es.Ey (V/m) @ t=0.2
7.226250081030784
% es.Ez (V/m) @ t=0.2
8.662501394367165
% es.tEx (V/m) @ t=0.2
-9.006809956765665
% es.tEy (V/m) @ t=0.2
0
% es.tEz (V/m) @ t=0.2
8.662501394367126
% V (V) @ t=0.2
0.005985607992206519
% es.normE (V/m) @ t=0.22
19.247805595132114
% es.EX (V/m) @ t=0.22
-9.089921358741542
% es.EY (V/m) @ t=0.22
7.29293113580232
% es.EZ (V/m) @ t=0.22
8.742435418123318
% es.tEX (V/m) @ t=0.22
-9.08992135874152
% es.tEY (V/m) @ t=0.22
0
% es.tEZ (V/m) @ t=0.22
8.742435418123335
% es.Ex (V/m) @ t=0.22
-9.089921358741542
% es.Ey (V/m) @ t=0.22
7.29293113580232
% es.Ez (V/m) @ t=0.22
8.742435418123318
% es.tEx (V/m) @ t=0.22
-9.08992135874152
% es.tEy (V/m) @ t=0.22
0
% es.tEz (V/m) @ t=0.22
8.742435418123335
% V (V) @ t=0.22
0.006040840831906135
% es.normE (V/m) @ t=0.24
19.423792865694374
% es.EX (V/m) @ t=0.24
-9.173032760717419
% es.EY (V/m) @ t=0.24
7.35961219057387
% es.EZ (V/m) @ t=0.24
8.822369441879491
% es.tEX (V/m) @ t=0.24
-9.173032760717419
% es.tEY (V/m) @ t=0.24
0
% es.tEZ (V/m) @ t=0.24
8.822369441879488
% es.Ex (V/m) @ t=0.24
-9.173032760717419
% es.Ey (V/m) @ t=0.24
7.35961219057387
% es.Ez (V/m) @ t=0.24
8.822369441879491
% es.tEx (V/m) @ t=0.24
-9.173032760717419
% es.tEy (V/m) @ t=0.24
0
% es.tEz (V/m) @ t=0.24
8.822369441879488
% V (V) @ t=0.24
0.0060960736716057515
% es.normE (V/m) @ t=0.26
19.59978013625657
% es.EX (V/m) @ t=0.26
-9.256144162693253
% es.EY (V/m) @ t=0.26
7.42629324534542
% es.EZ (V/m) @ t=0.26
8.90230346563559
% es.tEX (V/m) @ t=0.26
-9.256144162693236
% es.tEY (V/m) @ t=0.26
0
% es.tEZ (V/m) @ t=0.26
8.902303465635583
% es.Ex (V/m) @ t=0.26
-9.256144162693253
% es.Ey (V/m) @ t=0.26
7.42629324534542
% es.Ez (V/m) @ t=0.26
8.90230346563559
% es.tEx (V/m) @ t=0.26
-9.256144162693236
% es.tEy (V/m) @ t=0.26
0
% es.tEz (V/m) @ t=0.26
8.902303465635583
% V (V) @ t=0.26
0.006151306511305367
% es.normE (V/m) @ t=0.28
19.78388123978698
% es.EX (V/m) @ t=0.28
-9.343084273708968
% es.EY (V/m) @ t=0.28
7.496046853269952
% es.EZ (V/m) @ t=0.28
8.985928072886072
% es.tEX (V/m) @ t=0.28
-9.34308427370896
% es.tEY (V/m) @ t=0.28
0
% es.tEZ (V/m) @ t=0.28
8.985928072886054
% es.Ex (V/m) @ t=0.28
-9.343084273708968
% es.Ey (V/m) @ t=0.28
7.496046853269952
% es.Ez (V/m) @ t=0.28
8.985928072886072
% es.tEx (V/m) @ t=0.28
-9.34308427370896
% es.tEy (V/m) @ t=0.28
0
% es.tEz (V/m) @ t=0.28
8.985928072886054
% V (V) @ t=0.28
0.0062090860846234185
% es.normE (V/m) @ t=0.3
19.979982935425475
% es.EX (V/m) @ t=0.3
-9.435687155407166
% es.EY (V/m) @ t=0.3
7.570344855593341
% es.EZ (V/m) @ t=0.3
9.075011159168376
% es.tEX (V/m) @ t=0.3
-9.43568715540718
% es.tEY (V/m) @ t=0.3
0
% es.tEZ (V/m) @ t=0.3
9.075011159168355
% es.Ex (V/m) @ t=0.3
-9.435687155407166
% es.Ey (V/m) @ t=0.3
7.570344855593341
% es.Ez (V/m) @ t=0.3
9.075011159168376
% es.tEx (V/m) @ t=0.3
-9.43568715540718
% es.tEy (V/m) @ t=0.3
0
% es.tEz (V/m) @ t=0.3
9.075011159168355
% V (V) @ t=0.3
0.0062706323501400246
% es.normE (V/m) @ t=0.32
20.17608463107591
% es.EX (V/m) @ t=0.32
-9.5282900371054
% es.EY (V/m) @ t=0.32
7.644642857916768
% es.EZ (V/m) @ t=0.32
9.164094245450677
% es.tEX (V/m) @ t=0.32
-9.528290037105386
% es.tEY (V/m) @ t=0.32
0
% es.tEZ (V/m) @ t=0.32
9.164094245450656
% es.Ex (V/m) @ t=0.32
-9.5282900371054
% es.Ey (V/m) @ t=0.32
7.644642857916768
% es.Ez (V/m) @ t=0.32
9.164094245450677
% es.tEx (V/m) @ t=0.32
-9.528290037105386
% es.tEy (V/m) @ t=0.32
0
% es.tEz (V/m) @ t=0.32
9.164094245450656
% V (V) @ t=0.32
0.006332178615656631
% es.normE (V/m) @ t=0.34
20.372186326737936
% es.EX (V/m) @ t=0.34
-9.620892918803655
% es.EY (V/m) @ t=0.34
7.71894086024016
% es.EZ (V/m) @ t=0.34
9.253177331733031
% es.tEX (V/m) @ t=0.34
-9.620892918803648
% es.tEY (V/m) @ t=0.34
0
% es.tEZ (V/m) @ t=0.34
9.253177331733042
% es.Ex (V/m) @ t=0.34
-9.620892918803655
% es.Ey (V/m) @ t=0.34
7.71894086024016
% es.Ez (V/m) @ t=0.34
9.253177331733031
% es.tEx (V/m) @ t=0.34
-9.620892918803648
% es.tEy (V/m) @ t=0.34
0
% es.tEz (V/m) @ t=0.34
9.253177331733042
% V (V) @ t=0.34
0.006393724881173237
% es.normE (V/m) @ t=0.36
20.56828802241114
% es.EX (V/m) @ t=0.36
-9.713495800501853
% es.EY (V/m) @ t=0.36
7.793238862563548
% es.EZ (V/m) @ t=0.36
9.342260418015364
% es.tEX (V/m) @ t=0.36
-9.713495800501853
% es.tEY (V/m) @ t=0.36
0
% es.tEZ (V/m) @ t=0.36
9.342260418015343
% es.Ex (V/m) @ t=0.36
-9.713495800501853
% es.Ey (V/m) @ t=0.36
7.793238862563548
% es.Ez (V/m) @ t=0.36
9.342260418015364
% es.tEx (V/m) @ t=0.36
-9.713495800501853
% es.tEy (V/m) @ t=0.36
0
% es.tEz (V/m) @ t=0.36
9.342260418015343
% V (V) @ t=0.36
0.006455271146689842
% es.normE (V/m) @ t=0.38
20.764389718095266
% es.EX (V/m) @ t=0.38
-9.806098682200087
% es.EY (V/m) @ t=0.38
7.867536864886997
% es.EZ (V/m) @ t=0.38
9.431343504297665
% es.tEX (V/m) @ t=0.38
-9.806098682200094
% es.tEY (V/m) @ t=0.38
0
% es.tEZ (V/m) @ t=0.38
9.431343504297672
% es.Ex (V/m) @ t=0.38
-9.806098682200087
% es.Ey (V/m) @ t=0.38
7.867536864886997
% es.Ez (V/m) @ t=0.38
9.431343504297665
% es.tEx (V/m) @ t=0.38
-9.806098682200094
% es.tEy (V/m) @ t=0.38
0
% es.tEz (V/m) @ t=0.38
9.431343504297672
% V (V) @ t=0.38
0.006516817412206449
% es.normE (V/m) @ t=0.4
20.960491413789967
% es.EX (V/m) @ t=0.4
-9.898701563898342
% es.EY (V/m) @ t=0.4
7.941834867210385
% es.EZ (V/m) @ t=0.4
9.52042659057998
% es.tEX (V/m) @ t=0.4
-9.898701563898335
% es.tEY (V/m) @ t=0.4
0
% es.tEZ (V/m) @ t=0.4
9.520426590579973
% es.Ex (V/m) @ t=0.4
-9.898701563898342
% es.Ey (V/m) @ t=0.4
7.941834867210385
% es.Ez (V/m) @ t=0.4
9.52042659057998
% es.tEx (V/m) @ t=0.4
-9.898701563898335
% es.tEy (V/m) @ t=0.4
0
% es.tEz (V/m) @ t=0.4
9.520426590579973
% V (V) @ t=0.4
0.006578363677723055
% es.normE (V/m) @ t=0.42
21.156593109495038
% es.EX (V/m) @ t=0.42
-9.991304445596569
% es.EY (V/m) @ t=0.42
8.01613286953382
% es.EZ (V/m) @ t=0.42
9.609509676862338
% es.tEX (V/m) @ t=0.42
-9.991304445596569
% es.tEY (V/m) @ t=0.42
0
% es.tEZ (V/m) @ t=0.42
9.60950967686236
% es.Ex (V/m) @ t=0.42
-9.991304445596569
% es.Ey (V/m) @ t=0.42
8.01613286953382
% es.Ez (V/m) @ t=0.42
9.609509676862338
% es.tEx (V/m) @ t=0.42
-9.991304445596569
% es.tEy (V/m) @ t=0.42
0
% es.tEz (V/m) @ t=0.42
9.60950967686236
% V (V) @ t=0.42
0.00663990994323966
% es.normE (V/m) @ t=0.44
21.352694805210035
% es.EX (V/m) @ t=0.44
-10.083907327294789
% es.EY (V/m) @ t=0.44
8.090430871857205
% es.EZ (V/m) @ t=0.44
9.698592763144653
% es.tEX (V/m) @ t=0.44
-10.083907327294781
% es.tEY (V/m) @ t=0.44
0
% es.tEZ (V/m) @ t=0.44
9.69859276314466
% es.Ex (V/m) @ t=0.44
-10.083907327294789
% es.Ey (V/m) @ t=0.44
8.090430871857205
% es.Ez (V/m) @ t=0.44
9.698592763144653
% es.tEx (V/m) @ t=0.44
-10.083907327294781
% es.tEy (V/m) @ t=0.44
0
% es.tEz (V/m) @ t=0.44
9.69859276314466
% V (V) @ t=0.44
0.0067014562087562655
% es.normE (V/m) @ t=0.46
21.54879650093479
% es.EX (V/m) @ t=0.46
-10.17651020899303
% es.EY (V/m) @ t=0.46
8.1647288741806
% es.EZ (V/m) @ t=0.46
9.787675849426968
% es.tEX (V/m) @ t=0.46
-10.17651020899303
% es.tEY (V/m) @ t=0.46
0
% es.tEZ (V/m) @ t=0.46
9.78767584942699
% es.Ex (V/m) @ t=0.46
-10.17651020899303
% es.Ey (V/m) @ t=0.46
8.1647288741806
% es.Ez (V/m) @ t=0.46
9.787675849426968
% es.tEx (V/m) @ t=0.46
-10.17651020899303
% es.tEy (V/m) @ t=0.46
0
% es.tEz (V/m) @ t=0.46
9.78767584942699
% V (V) @ t=0.46
0.006763002474272873
% es.normE (V/m) @ t=0.48
21.744898196669048
% es.EX (V/m) @ t=0.48
-10.269113090691256
% es.EY (V/m) @ t=0.48
8.239026876503996
% es.EZ (V/m) @ t=0.48
9.876758935709283
% es.tEX (V/m) @ t=0.48
-10.269113090691228
% es.tEY (V/m) @ t=0.48
0
% es.tEZ (V/m) @ t=0.48
9.87675893570929
% es.Ex (V/m) @ t=0.48
-10.269113090691256
% es.Ey (V/m) @ t=0.48
8.239026876503996
% es.Ez (V/m) @ t=0.48
9.876758935709283
% es.tEx (V/m) @ t=0.48
-10.269113090691228
% es.tEy (V/m) @ t=0.48
0
% es.tEz (V/m) @ t=0.48
9.87675893570929
% V (V) @ t=0.48
0.0068245487397894785
% es.normE (V/m) @ t=0.5
21.940999892412545
% es.EX (V/m) @ t=0.5
-10.361715972389469
% es.EY (V/m) @ t=0.5
8.313324878827448
% es.EZ (V/m) @ t=0.5
9.96584202199163
% es.tEX (V/m) @ t=0.5
-10.36171597238949
% es.tEY (V/m) @ t=0.5
0
% es.tEZ (V/m) @ t=0.5
9.965842021991648
% es.Ex (V/m) @ t=0.5
-10.361715972389469
% es.Ey (V/m) @ t=0.5
8.313324878827448
% es.Ez (V/m) @ t=0.5
9.96584202199163
% es.tEx (V/m) @ t=0.5
-10.36171597238949
% es.tEy (V/m) @ t=0.5
0
% es.tEz (V/m) @ t=0.5
9.965842021991648
% V (V) @ t=0.5
0.006886095005306085
% es.normE (V/m) @ t=0.52
22.137101588165027
% es.EX (V/m) @ t=0.52
-10.454318854087745
% es.EY (V/m) @ t=0.52
8.3876228811508
% es.EZ (V/m) @ t=0.52
10.05492510827397
% es.tEX (V/m) @ t=0.52
-10.454318854087717
% es.tEY (V/m) @ t=0.52
0
% es.tEZ (V/m) @ t=0.52
10.054925108274006
% es.Ex (V/m) @ t=0.52
-10.454318854087745
% es.Ey (V/m) @ t=0.52
8.3876228811508
% es.Ez (V/m) @ t=0.52
10.05492510827397
% es.tEx (V/m) @ t=0.52
-10.454318854087717
% es.tEy (V/m) @ t=0.52
0
% es.tEz (V/m) @ t=0.52
10.054925108274006
% V (V) @ t=0.52
0.006947641270822691
% es.normE (V/m) @ t=0.54
22.33320328392623
% es.EX (V/m) @ t=0.54
-10.546921735785972
% es.EY (V/m) @ t=0.54
8.461920883474242
% es.EZ (V/m) @ t=0.54
10.144008194556317
% es.tEX (V/m) @ t=0.54
-10.546921735785975
% es.tEY (V/m) @ t=0.54
0
% es.tEZ (V/m) @ t=0.54
10.144008194556307
% es.Ex (V/m) @ t=0.54
-10.546921735785972
% es.Ey (V/m) @ t=0.54
8.461920883474242
% es.Ez (V/m) @ t=0.54
10.144008194556317
% es.tEx (V/m) @ t=0.54
-10.546921735785975
% es.tEy (V/m) @ t=0.54
0
% es.tEz (V/m) @ t=0.54
10.144008194556307
% V (V) @ t=0.54
0.007009187536339296
% es.normE (V/m) @ t=0.56
22.54778783857728
% es.EX (V/m) @ t=0.56
-10.648258879665278
% es.EY (V/m) @ t=0.56
8.543225131673772
% es.EZ (V/m) @ t=0.56
10.241476839934712
% es.tEX (V/m) @ t=0.56
-10.648258879665299
% es.tEY (V/m) @ t=0.56
0
% es.tEZ (V/m) @ t=0.56
10.241476839934705
% es.Ex (V/m) @ t=0.56
-10.648258879665278
% es.Ey (V/m) @ t=0.56
8.543225131673772
% es.Ez (V/m) @ t=0.56
10.241476839934712
% es.tEx (V/m) @ t=0.56
-10.648258879665299
% es.tEy (V/m) @ t=0.56
0
% es.tEz (V/m) @ t=0.56
10.241476839934705
% V (V) @ t=0.56
0.007076534132070019
% es.normE (V/m) @ t=0.58
22.76652016328466
% es.EX (V/m) @ t=0.58
-10.75155609429796
% es.EY (V/m) @ t=0.58
8.626101663524558
% es.EZ (V/m) @ t=0.58
10.340827303009192
% es.tEX (V/m) @ t=0.58
-10.751556094297964
% es.tEY (V/m) @ t=0.58
0
% es.tEZ (V/m) @ t=0.58
10.340827303009178
% es.Ex (V/m) @ t=0.58
-10.75155609429796
% es.Ey (V/m) @ t=0.58
8.626101663524558
% es.Ez (V/m) @ t=0.58
10.340827303009192
% es.tEx (V/m) @ t=0.58
-10.751556094297964
% es.tEy (V/m) @ t=0.58
0
% es.tEz (V/m) @ t=0.58
10.340827303009178
% V (V) @ t=0.58
0.007145182389850347
% es.normE (V/m) @ t=0.6
22.985252487992096
% es.EX (V/m) @ t=0.6
-10.854853308930672
% es.EY (V/m) @ t=0.6
8.708978195375344
% es.EZ (V/m) @ t=0.6
10.440177766083739
% es.tEX (V/m) @ t=0.6
-10.854853308930657
% es.tEY (V/m) @ t=0.6
0
% es.tEZ (V/m) @ t=0.6
10.440177766083735
% es.Ex (V/m) @ t=0.6
-10.854853308930672
% es.Ey (V/m) @ t=0.6
8.708978195375344
% es.Ez (V/m) @ t=0.6
10.440177766083739
% es.tEx (V/m) @ t=0.6
-10.854853308930657
% es.tEy (V/m) @ t=0.6
0
% es.tEz (V/m) @ t=0.6
10.440177766083735
% V (V) @ t=0.6
0.0072138306476306775
% es.normE (V/m) @ t=0.62
23.203984812699513
% es.EX (V/m) @ t=0.62
-10.958150523563368
% es.EY (V/m) @ t=0.62
8.791854727226099
% es.EZ (V/m) @ t=0.62
10.539528229158275
% es.tEX (V/m) @ t=0.62
-10.95815052356335
% es.tEY (V/m) @ t=0.62
0
% es.tEZ (V/m) @ t=0.62
10.539528229158265
% es.Ex (V/m) @ t=0.62
-10.958150523563368
% es.Ey (V/m) @ t=0.62
8.791854727226099
% es.Ez (V/m) @ t=0.62
10.539528229158275
% es.tEx (V/m) @ t=0.62
-10.95815052356335
% es.tEy (V/m) @ t=0.62
0
% es.tEz (V/m) @ t=0.62
10.539528229158265
% V (V) @ t=0.62
0.007282478905411007
% es.normE (V/m) @ t=0.64
23.422717137406888
% es.EX (V/m) @ t=0.64
-11.061447738196023
% es.EY (V/m) @ t=0.64
8.874731259076874
% es.EZ (V/m) @ t=0.64
10.638878692232751
% es.tEX (V/m) @ t=0.64
-11.061447738196023
% es.tEY (V/m) @ t=0.64
0
% es.tEZ (V/m) @ t=0.64
10.638878692232737
% es.Ex (V/m) @ t=0.64
-11.061447738196023
% es.Ey (V/m) @ t=0.64
8.874731259076874
% es.Ez (V/m) @ t=0.64
10.638878692232751
% es.tEx (V/m) @ t=0.64
-11.061447738196023
% es.tEy (V/m) @ t=0.64
0
% es.tEz (V/m) @ t=0.64
10.638878692232737
% V (V) @ t=0.64
0.007351127163191336
% es.normE (V/m) @ t=0.66
23.64144946211433
% es.EX (V/m) @ t=0.66
-11.164744952828734
% es.EY (V/m) @ t=0.66
8.95760779092761
% es.EZ (V/m) @ t=0.66
10.73822915530728
% es.tEX (V/m) @ t=0.66
-11.164744952828727
% es.tEY (V/m) @ t=0.66
0
% es.tEZ (V/m) @ t=0.66
10.738229155307266
% es.Ex (V/m) @ t=0.66
-11.164744952828734
% es.Ey (V/m) @ t=0.66
8.95760779092761
% es.Ez (V/m) @ t=0.66
10.73822915530728
% es.tEx (V/m) @ t=0.66
-11.164744952828727
% es.tEy (V/m) @ t=0.66
0
% es.tEz (V/m) @ t=0.66
10.738229155307266
% V (V) @ t=0.66
0.007419775420971666
% es.normE (V/m) @ t=0.68
23.86018178682173
% es.EX (V/m) @ t=0.68
-11.268042167461395
% es.EY (V/m) @ t=0.68
9.04048432277838
% es.EZ (V/m) @ t=0.68
10.837579618381746
% es.tEX (V/m) @ t=0.68
-11.268042167461381
% es.tEY (V/m) @ t=0.68
0
% es.tEZ (V/m) @ t=0.68
10.837579618381739
% es.Ex (V/m) @ t=0.68
-11.268042167461395
% es.Ey (V/m) @ t=0.68
9.04048432277838
% es.Ez (V/m) @ t=0.68
10.837579618381746
% es.tEx (V/m) @ t=0.68
-11.268042167461381
% es.tEy (V/m) @ t=0.68
0
% es.tEz (V/m) @ t=0.68
10.837579618381739
% V (V) @ t=0.68
0.007488423678751996
% es.normE (V/m) @ t=0.7
24.07891411152921
% es.EX (V/m) @ t=0.7
-11.371339382094092
% es.EY (V/m) @ t=0.7
9.123360854629198
% es.EZ (V/m) @ t=0.7
10.93693008145626
% es.tEX (V/m) @ t=0.7
-11.371339382094078
% es.tEY (V/m) @ t=0.7
0
% es.tEZ (V/m) @ t=0.7
10.936930081456268
% es.Ex (V/m) @ t=0.7
-11.371339382094092
% es.Ey (V/m) @ t=0.7
9.123360854629198
% es.Ez (V/m) @ t=0.7
10.93693008145626
% es.tEx (V/m) @ t=0.7
-11.371339382094078
% es.tEy (V/m) @ t=0.7
0
% es.tEz (V/m) @ t=0.7
10.936930081456268
% V (V) @ t=0.7
0.007557071936532326
% es.normE (V/m) @ t=0.72
24.297646436236654
% es.EX (V/m) @ t=0.72
-11.474636596726782
% es.EY (V/m) @ t=0.72
9.206237386479934
% es.EZ (V/m) @ t=0.72
11.036280544530811
% es.tEX (V/m) @ t=0.72
-11.474636596726782
% es.tEY (V/m) @ t=0.72
0
% es.tEZ (V/m) @ t=0.72
11.036280544530797
% es.Ex (V/m) @ t=0.72
-11.474636596726782
% es.Ey (V/m) @ t=0.72
9.206237386479934
% es.Ez (V/m) @ t=0.72
11.036280544530811
% es.tEx (V/m) @ t=0.72
-11.474636596726782
% es.tEy (V/m) @ t=0.72
0
% es.tEz (V/m) @ t=0.72
11.036280544530797
% V (V) @ t=0.72
0.007625720194312655
% es.normE (V/m) @ t=0.74
24.5163787609441
% es.EX (V/m) @ t=0.74
-11.577933811359472
% es.EY (V/m) @ t=0.74
9.289113918330724
% es.EZ (V/m) @ t=0.74
11.135631007605301
% es.tEX (V/m) @ t=0.74
-11.577933811359465
% es.tEY (V/m) @ t=0.74
0
% es.tEZ (V/m) @ t=0.74
11.135631007605298
% es.Ex (V/m) @ t=0.74
-11.577933811359472
% es.Ey (V/m) @ t=0.74
9.289113918330724
% es.Ez (V/m) @ t=0.74
11.135631007605301
% es.tEx (V/m) @ t=0.74
-11.577933811359465
% es.tEy (V/m) @ t=0.74
0
% es.tEz (V/m) @ t=0.74
11.135631007605298
% V (V) @ t=0.74
0.007694368452092985
% es.normE (V/m) @ t=0.76
24.735111085651553
% es.EX (V/m) @ t=0.76
-11.681231025992119
% es.EY (V/m) @ t=0.76
9.371990450181464
% es.EZ (V/m) @ t=0.76
11.23498147067981
% es.tEX (V/m) @ t=0.76
-11.681231025992115
% es.tEY (V/m) @ t=0.76
0
% es.tEZ (V/m) @ t=0.76
11.234981470679799
% es.Ex (V/m) @ t=0.76
-11.681231025992119
% es.Ey (V/m) @ t=0.76
9.371990450181464
% es.Ez (V/m) @ t=0.76
11.23498147067981
% es.tEx (V/m) @ t=0.76
-11.681231025992115
% es.tEy (V/m) @ t=0.76
0
% es.tEz (V/m) @ t=0.76
11.234981470679799
% V (V) @ t=0.76
0.007763016709873314
% es.normE (V/m) @ t=0.78
24.953843410359088
% es.EX (V/m) @ t=0.78
-11.784528240624851
% es.EY (V/m) @ t=0.78
9.45486698203225
% es.EZ (V/m) @ t=0.78
11.33433193375437
% es.tEX (V/m) @ t=0.78
-11.784528240624844
% es.tEY (V/m) @ t=0.78
0
% es.tEZ (V/m) @ t=0.78
11.334331933754356
% es.Ex (V/m) @ t=0.78
-11.784528240624851
% es.Ey (V/m) @ t=0.78
9.45486698203225
% es.Ez (V/m) @ t=0.78
11.33433193375437
% es.tEx (V/m) @ t=0.78
-11.784528240624844
% es.tEy (V/m) @ t=0.78
0
% es.tEz (V/m) @ t=0.78
11.334331933754356
% V (V) @ t=0.78
0.007831664967653643
% es.normE (V/m) @ t=0.8
25.17257573506658
% es.EX (V/m) @ t=0.8
-11.887825455257527
% es.EY (V/m) @ t=0.8
9.537743513883036
% es.EZ (V/m) @ t=0.8
11.433682396828889
% es.tEX (V/m) @ t=0.8
-11.887825455257513
% es.tEY (V/m) @ t=0.8
0
% es.tEZ (V/m) @ t=0.8
11.433682396828857
% es.Ex (V/m) @ t=0.8
-11.887825455257527
% es.Ey (V/m) @ t=0.8
9.537743513883036
% es.Ez (V/m) @ t=0.8
11.433682396828889
% es.tEx (V/m) @ t=0.8
-11.887825455257513
% es.tEy (V/m) @ t=0.8
0
% es.tEz (V/m) @ t=0.8
11.433682396828857
% V (V) @ t=0.8
0.007900313225433974
% es.normE (V/m) @ t=0.82
25.39721110332337
% es.EX (V/m) @ t=0.82
-11.99391300562533
% es.EY (V/m) @ t=0.82
9.622858142599778
% es.EZ (V/m) @ t=0.82
11.53570969712474
% es.tEX (V/m) @ t=0.82
-11.993913005625323
% es.tEY (V/m) @ t=0.82
0
% es.tEZ (V/m) @ t=0.82
11.53570969712473
% es.Ex (V/m) @ t=0.82
-11.99391300562533
% es.Ey (V/m) @ t=0.82
9.622858142599778
% es.Ez (V/m) @ t=0.82
11.53570969712474
% es.tEx (V/m) @ t=0.82
-11.993913005625323
% es.tEy (V/m) @ t=0.82
0
% es.tEz (V/m) @ t=0.82
11.53570969712473
% V (V) @ t=0.82
0.007970813927225751
% es.normE (V/m) @ t=0.84
25.64160284341845
% es.EX (V/m) @ t=0.84
-12.109339282675215
% es.EY (V/m) @ t=0.84
9.715463258807446
% es.EZ (V/m) @ t=0.84
11.646695866014156
% es.tEX (V/m) @ t=0.84
-12.109339282675208
% es.tEY (V/m) @ t=0.84
0
% es.tEZ (V/m) @ t=0.84
11.646695866014142
% es.Ex (V/m) @ t=0.84
-12.109339282675215
% es.Ey (V/m) @ t=0.84
9.715463258807446
% es.Ez (V/m) @ t=0.84
11.646695866014156
% es.tEx (V/m) @ t=0.84
-12.109339282675208
% es.tEy (V/m) @ t=0.84
0
% es.tEz (V/m) @ t=0.84
11.646695866014142
% V (V) @ t=0.84
0.008047514409244273
% es.normE (V/m) @ t=0.86
25.885994583534764
% es.EX (V/m) @ t=0.86
-12.224765559725085
% es.EY (V/m) @ t=0.86
9.808068375015075
% es.EZ (V/m) @ t=0.86
11.757682034903546
% es.tEX (V/m) @ t=0.86
-12.224765559725075
% es.tEY (V/m) @ t=0.86
0
% es.tEZ (V/m) @ t=0.86
11.757682034903553
% es.Ex (V/m) @ t=0.86
-12.224765559725085
% es.Ey (V/m) @ t=0.86
9.808068375015075
% es.Ez (V/m) @ t=0.86
11.757682034903546
% es.tEx (V/m) @ t=0.86
-12.224765559725075
% es.tEy (V/m) @ t=0.86
0
% es.tEz (V/m) @ t=0.86
11.757682034903553
% V (V) @ t=0.86
0.008124214891262796
% es.normE (V/m) @ t=0.88
26.13038632367175
% es.EX (V/m) @ t=0.88
-12.340191836774906
% es.EY (V/m) @ t=0.88
9.90067349122275
% es.EZ (V/m) @ t=0.88
11.868668203792932
% es.tEX (V/m) @ t=0.88
-12.340191836774899
% es.tEY (V/m) @ t=0.88
0
% es.tEZ (V/m) @ t=0.88
11.868668203792936
% es.Ex (V/m) @ t=0.88
-12.340191836774906
% es.Ey (V/m) @ t=0.88
9.90067349122275
% es.Ez (V/m) @ t=0.88
11.868668203792932
% es.tEx (V/m) @ t=0.88
-12.340191836774899
% es.tEy (V/m) @ t=0.88
0
% es.tEz (V/m) @ t=0.88
11.868668203792936
% V (V) @ t=0.88
0.008200915373281319
% es.normE (V/m) @ t=0.9
26.3747780638289
% es.EX (V/m) @ t=0.9
-12.455618113824798
% es.EY (V/m) @ t=0.9
9.993278607430405
% es.EZ (V/m) @ t=0.9
11.979654372682365
% es.tEX (V/m) @ t=0.9
-12.455618113824777
% es.tEY (V/m) @ t=0.9
0
% es.tEZ (V/m) @ t=0.9
11.979654372682376
% es.Ex (V/m) @ t=0.9
-12.455618113824798
% es.Ey (V/m) @ t=0.9
9.993278607430405
% es.Ez (V/m) @ t=0.9
11.979654372682365
% es.tEx (V/m) @ t=0.9
-12.455618113824777
% es.tEy (V/m) @ t=0.9
0
% es.tEz (V/m) @ t=0.9
11.979654372682376
% V (V) @ t=0.9
0.008277615855299842
% es.normE (V/m) @ t=0.92
26.61916980400556
% es.EX (V/m) @ t=0.92
-12.571044390874633
% es.EY (V/m) @ t=0.92
10.085883723638045
% es.EZ (V/m) @ t=0.92
12.090640541571723
% es.tEX (V/m) @ t=0.92
-12.571044390874619
% es.tEY (V/m) @ t=0.92
0
% es.tEZ (V/m) @ t=0.92
12.09064054157173
% es.Ex (V/m) @ t=0.92
-12.571044390874633
% es.Ey (V/m) @ t=0.92
10.085883723638045
% es.Ez (V/m) @ t=0.92
12.090640541571723
% es.tEx (V/m) @ t=0.92
-12.571044390874619
% es.tEy (V/m) @ t=0.92
0
% es.tEz (V/m) @ t=0.92
12.09064054157173
% V (V) @ t=0.92
0.008354316337318365
% es.normE (V/m) @ t=0.94
26.863561544201254
% es.EX (V/m) @ t=0.94
-12.686470667924468
% es.EY (V/m) @ t=0.94
10.178488839845688
% es.EZ (V/m) @ t=0.94
12.201626710461127
% es.tEX (V/m) @ t=0.94
-12.686470667924468
% es.tEY (V/m) @ t=0.94
0
% es.tEZ (V/m) @ t=0.94
12.201626710461113
% es.Ex (V/m) @ t=0.94
-12.686470667924468
% es.Ey (V/m) @ t=0.94
10.178488839845688
% es.Ez (V/m) @ t=0.94
12.201626710461127
% es.tEx (V/m) @ t=0.94
-12.686470667924468
% es.tEy (V/m) @ t=0.94
0
% es.tEz (V/m) @ t=0.94
12.201626710461113
% V (V) @ t=0.94
0.008431016819336888
% es.normE (V/m) @ t=0.96
27.1079532844155
% es.EX (V/m) @ t=0.96
-12.80189694497436
% es.EY (V/m) @ t=0.96
10.271093956053363
% es.EZ (V/m) @ t=0.96
12.312612879350514
% es.tEX (V/m) @ t=0.96
-12.80189694497436
% es.tEY (V/m) @ t=0.96
0
% es.tEZ (V/m) @ t=0.96
12.312612879350525
% es.Ex (V/m) @ t=0.96
-12.80189694497436
% es.Ey (V/m) @ t=0.96
10.271093956053363
% es.Ez (V/m) @ t=0.96
12.312612879350514
% es.tEx (V/m) @ t=0.96
-12.80189694497436
% es.tEy (V/m) @ t=0.96
0
% es.tEz (V/m) @ t=0.96
12.312612879350525
% V (V) @ t=0.96
0.008507717301355409
% es.normE (V/m) @ t=0.98
27.352345024647732
% es.EX (V/m) @ t=0.98
-12.917323222024208
% es.EY (V/m) @ t=0.98
10.36369907226106
% es.EZ (V/m) @ t=0.98
12.423599048239904
% es.tEX (V/m) @ t=0.98
-12.917323222024216
% es.tEY (V/m) @ t=0.98
0
% es.tEZ (V/m) @ t=0.98
12.423599048239907
% es.Ex (V/m) @ t=0.98
-12.917323222024208
% es.Ey (V/m) @ t=0.98
10.36369907226106
% es.Ez (V/m) @ t=0.98
12.423599048239904
% es.tEx (V/m) @ t=0.98
-12.917323222024216
% es.tEy (V/m) @ t=0.98
0
% es.tEz (V/m) @ t=0.98
12.423599048239907
% V (V) @ t=0.98
0.008584417783373932
% es.normE (V/m) @ t=1
27.596736764897464
% es.EX (V/m) @ t=1
-13.032749499074065
% es.EY (V/m) @ t=1
10.456304188468664
% es.EZ (V/m) @ t=1
12.53458521712928
% es.tEX (V/m) @ t=1
-13.032749499074058
% es.tEY (V/m) @ t=1
0
% es.tEZ (V/m) @ t=1
12.53458521712929
% es.Ex (V/m) @ t=1
-13.032749499074065
% es.Ey (V/m) @ t=1
10.456304188468664
% es.Ez (V/m) @ t=1
12.53458521712928
% es.tEx (V/m) @ t=1
-13.032749499074058
% es.tEy (V/m) @ t=1
0
% es.tEz (V/m) @ t=1
12.53458521712929
% V (V) @ t=1
0.008661118265392455
% es.normE (V/m) @ t=1.02
27.841128505164328
% es.EX (V/m) @ t=1.02
-13.148175776123907
% es.EY (V/m) @ t=1.02
10.548909304676368
% es.EZ (V/m) @ t=1.02
12.645571386018695
% es.tEX (V/m) @ t=1.02
-13.1481757761239
% es.tEY (V/m) @ t=1.02
0
% es.tEZ (V/m) @ t=1.02
12.645571386018673
% es.Ex (V/m) @ t=1.02
-13.148175776123907
% es.Ey (V/m) @ t=1.02
10.548909304676368
% es.Ez (V/m) @ t=1.02
12.645571386018695
% es.tEx (V/m) @ t=1.02
-13.1481757761239
% es.tEy (V/m) @ t=1.02
0
% es.tEz (V/m) @ t=1.02
12.645571386018673
% V (V) @ t=1.02
0.008737818747410978
% es.normE (V/m) @ t=1.04
28.085520245447775
% es.EX (V/m) @ t=1.04
-13.263602053173784
% es.EY (V/m) @ t=1.04
10.641514420884004
% es.EZ (V/m) @ t=1.04
12.75655755490807
% es.tEX (V/m) @ t=1.04
-13.263602053173777
% es.tEY (V/m) @ t=1.04
0
% es.tEZ (V/m) @ t=1.04
12.756557554908085
% es.Ex (V/m) @ t=1.04
-13.263602053173784
% es.Ey (V/m) @ t=1.04
10.641514420884004
% es.Ez (V/m) @ t=1.04
12.75655755490807
% es.tEx (V/m) @ t=1.04
-13.263602053173777
% es.tEy (V/m) @ t=1.04
0
% es.tEz (V/m) @ t=1.04
12.756557554908085
% V (V) @ t=1.04
0.008814519229429501
% es.normE (V/m) @ t=1.06