% Model:              1 neuron.mph
% Version:            COMSOL 6.0.0.405
% Date:               Mar 9 2023, 13:52
% Dimension:          0
% Nodes:              14017
% Expressions:        14017
% Description:        Electric field norm, Electric field, X component, Electric field, Y component, Electric field, Z component, Tangential electric field, X component, Tangential electric field, Y component, Tangential electric field, Z component, Electric field, x component, Electric field, y component, Electric field, z component, Tangential electric field, x component, Tangential electric field, y component, Tangential electric field, z component, Electric potential
% Length unit:        mm
% x
1.66
% y
12.2
% z
1.33
% es.normE (V/m) @ t=0
7.712112958605843
% es.EX (V/m) @ t=0
-4.285161593512528
% es.EY (V/m) @ t=0
-0.4625463595818289
% es.EZ (V/m) @ t=0
5.7378030156568265
% es.tEX (V/m) @ t=0
-4.28516159351253
% es.tEY (V/m) @ t=0
0
% es.tEZ (V/m) @ t=0
5.737803015656821
% es.Ex (V/m) @ t=0
-4.285161593512528
% es.Ey (V/m) @ t=0
-0.4625463595818289
% es.Ez (V/m) @ t=0
5.7378030156568265
% es.tEx (V/m) @ t=0
-4.28516159351253
% es.tEy (V/m) @ t=0
0
% es.tEz (V/m) @ t=0
5.737803015656821
% V (V) @ t=0
0.006333689927998554
% es.normE (V/m) @ t=0.02
6.661083835476341
% es.EX (V/m) @ t=0.02
-3.701167386054781
% es.EY (V/m) @ t=0.02
-0.3995091733055367
% es.EZ (V/m) @ t=0.02
4.955838560255322
% es.tEX (V/m) @ t=0.02
-3.7011673860547836
% es.tEY (V/m) @ t=0.02
0
% es.tEZ (V/m) @ t=0.02
4.955838560255316
% es.Ex (V/m) @ t=0.02
-3.701167386054781
% es.Ey (V/m) @ t=0.02
-0.3995091733055367
% es.Ez (V/m) @ t=0.02
4.955838560255322
% es.tEx (V/m) @ t=0.02
-3.7011673860547836
% es.tEy (V/m) @ t=0.02
0
% es.tEz (V/m) @ t=0.02
4.955838560255316
% V (V) @ t=0.02
0.005470516261287238
% es.normE (V/m) @ t=0.04
6.722335352711223
% es.EX (V/m) @ t=0.04
-3.735201428655902
% es.EY (V/m) @ t=0.04
-0.40318269378426397
% es.EZ (V/m) @ t=0.04
5.001409525819902
% es.tEX (V/m) @ t=0.04
-3.7352014286559116
% es.tEY (V/m) @ t=0.04
0
% es.tEZ (V/m) @ t=0.04
5.001409525819897
% es.Ex (V/m) @ t=0.04
-3.735201428655902
% es.Ey (V/m) @ t=0.04
-0.40318269378426397
% es.Ez (V/m) @ t=0.04
5.001409525819902
% es.tEx (V/m) @ t=0.04
-3.7352014286559116
% es.tEy (V/m) @ t=0.04
0
% es.tEz (V/m) @ t=0.04
5.001409525819897
% V (V) @ t=0.04
0.005520819834175461
% es.normE (V/m) @ t=0.06
6.784147889515908
% es.EX (V/m) @ t=0.06
-3.7695473186124886
% es.EY (V/m) @ t=0.06
-0.40688978747807236
% es.EZ (V/m) @ t=0.06
5.047397839397312
% es.tEX (V/m) @ t=0.06
-3.7695473186124984
% es.tEY (V/m) @ t=0.06
0
% es.tEZ (V/m) @ t=0.06
5.047397839397304
% es.Ex (V/m) @ t=0.06
-3.7695473186124886
% es.Ey (V/m) @ t=0.06
-0.40688978747807236
% es.Ez (V/m) @ t=0.06
5.047397839397312
% es.tEx (V/m) @ t=0.06
-3.7695473186124984
% es.tEy (V/m) @ t=0.06
0
% es.tEz (V/m) @ t=0.06
5.047397839397304
% V (V) @ t=0.06
0.005571584062428845
% es.normE (V/m) @ t=0.08
6.846882716954692
% es.EX (V/m) @ t=0.08
-3.8044054058246664
% es.EY (V/m) @ t=0.08
-0.41065235926989674
% es.EZ (V/m) @ t=0.08
5.09407244407004
% es.tEX (V/m) @ t=0.08
-3.8044054058246726
% es.tEY (V/m) @ t=0.08
0
% es.tEZ (V/m) @ t=0.08
5.094072444070033
% es.Ex (V/m) @ t=0.08
-3.8044054058246664
% es.Ey (V/m) @ t=0.08
-0.41065235926989674
% es.Ez (V/m) @ t=0.08
5.09407244407004
% es.tEx (V/m) @ t=0.08
-3.8044054058246726
% es.tEy (V/m) @ t=0.08
0
% es.tEz (V/m) @ t=0.08
5.094072444070033
% V (V) @ t=0.08
0.005623105931733312
% es.normE (V/m) @ t=0.1
6.910303508772834
% es.EX (V/m) @ t=0.1
-3.8396444456992187
% es.EY (V/m) @ t=0.1
-0.41445619354197705
% es.EZ (V/m) @ t=0.1
5.141257485722029
% es.tEX (V/m) @ t=0.1
-3.8396444456992214
% es.tEY (V/m) @ t=0.1
0
% es.tEZ (V/m) @ t=0.1
5.141257485722019
% es.Ex (V/m) @ t=0.1
-3.8396444456992187
% es.Ey (V/m) @ t=0.1
-0.41445619354197705
% es.Ez (V/m) @ t=0.1
5.141257485722029
% es.tEx (V/m) @ t=0.1
-3.8396444456992214
% es.tEy (V/m) @ t=0.1
0
% es.tEz (V/m) @ t=0.1
5.141257485722019
% V (V) @ t=0.1
0.005675191305375953
% es.normE (V/m) @ t=0.12
6.973724300590952
% es.EX (V/m) @ t=0.12
-3.874883485573756
% es.EY (V/m) @ t=0.12
-0.4182600278140416
% es.EZ (V/m) @ t=0.12
5.188442527373996
% es.tEX (V/m) @ t=0.12
-3.8748834855737666
% es.tEY (V/m) @ t=0.12
0
% es.tEZ (V/m) @ t=0.12
5.188442527373987
% es.Ex (V/m) @ t=0.12
-3.874883485573756
% es.Ey (V/m) @ t=0.12
-0.4182600278140416
% es.Ez (V/m) @ t=0.12
5.188442527373996
% es.tEx (V/m) @ t=0.12
-3.8748834855737666
% es.tEy (V/m) @ t=0.12
0
% es.tEz (V/m) @ t=0.12
5.188442527373987
% V (V) @ t=0.12
0.005727276679018595
% es.normE (V/m) @ t=0.14
7.037679026746941
% es.EX (V/m) @ t=0.14
-3.910419185804092
% es.EY (V/m) @ t=0.14
-0.42209589492333777
% es.EZ (V/m) @ t=0.14
5.236024821726115
% es.tEX (V/m) @ t=0.14
-3.910419185804102
% es.tEY (V/m) @ t=0.14
0
% es.tEZ (V/m) @ t=0.14
5.236024821726106
% es.Ex (V/m) @ t=0.14
-3.910419185804092
% es.Ey (V/m) @ t=0.14
-0.42209589492333777
% es.Ez (V/m) @ t=0.14
5.236024821726115
% es.tEx (V/m) @ t=0.14
-3.910419185804102
% es.tEy (V/m) @ t=0.14
0
% es.tEz (V/m) @ t=0.14
5.236024821726106
% V (V) @ t=0.14
0.00577980056554857
% es.normE (V/m) @ t=0.16
7.104501647334523
% es.EX (V/m) @ t=0.16
-3.947548322759081
% es.EY (V/m) @ t=0.16
-0.42610381838667655
% es.EZ (V/m) @ t=0.16
5.285740859360699
% es.tEX (V/m) @ t=0.16
-3.9475483227590837
% es.tEY (V/m) @ t=0.16
0
% es.tEZ (V/m) @ t=0.16
5.285740859360693
% es.Ex (V/m) @ t=0.16
-3.947548322759081
% es.Ey (V/m) @ t=0.16
-0.42610381838667655
% es.Ez (V/m) @ t=0.16
5.285740859360699
% es.tEx (V/m) @ t=0.16
-3.9475483227590837
% es.tEy (V/m) @ t=0.16
0
% es.tEz (V/m) @ t=0.16
5.285740859360693
% V (V) @ t=0.16
0.0058346798141120405
% es.normE (V/m) @ t=0.18
7.171324267922088
% es.EX (V/m) @ t=0.18
-3.9846774597140593
% es.EY (V/m) @ t=0.18
-0.43011174184999446
% es.EZ (V/m) @ t=0.18
5.335456896995271
% es.tEX (V/m) @ t=0.18
-3.9846774597140726
% es.tEY (V/m) @ t=0.18
0
% es.tEZ (V/m) @ t=0.18
5.335456896995263
% es.Ex (V/m) @ t=0.18
-3.9846774597140593
% es.Ey (V/m) @ t=0.18
-0.43011174184999446
% es.Ez (V/m) @ t=0.18
5.335456896995271
% es.tEx (V/m) @ t=0.18
-3.9846774597140726
% es.tEy (V/m) @ t=0.18
0
% es.tEz (V/m) @ t=0.18
5.335456896995263
% V (V) @ t=0.18
0.005889559062675513
% es.normE (V/m) @ t=0.2
7.238146888509693
% es.EX (V/m) @ t=0.2
-4.021806596669055
% es.EY (V/m) @ t=0.2
-0.434119665313337
% es.EZ (V/m) @ t=0.2
5.385172934629855
% es.tEX (V/m) @ t=0.2
-4.021806596669054
% es.tEY (V/m) @ t=0.2
0
% es.tEZ (V/m) @ t=0.2
5.38517293462985
% es.Ex (V/m) @ t=0.2
-4.021806596669055
% es.Ey (V/m) @ t=0.2
-0.434119665313337
% es.Ez (V/m) @ t=0.2
5.385172934629855
% es.tEx (V/m) @ t=0.2
-4.021806596669054
% es.tEy (V/m) @ t=0.2
0
% es.tEz (V/m) @ t=0.2
5.38517293462985
% V (V) @ t=0.2
0.005944438311238984
% es.normE (V/m) @ t=0.22
7.3049695090972975
% es.EX (V/m) @ t=0.22
-4.0589357336240335
% es.EY (V/m) @ t=0.22
-0.43812758877666735
% es.EZ (V/m) @ t=0.22
5.434888972264431
% es.tEX (V/m) @ t=0.22
-4.058935733624043
% es.tEY (V/m) @ t=0.22
0
% es.tEZ (V/m) @ t=0.22
5.434888972264426
% es.Ex (V/m) @ t=0.22
-4.0589357336240335
% es.Ey (V/m) @ t=0.22
-0.43812758877666735
% es.Ez (V/m) @ t=0.22
5.434888972264431
% es.tEx (V/m) @ t=0.22
-4.058935733624043
% es.tEy (V/m) @ t=0.22
0
% es.tEz (V/m) @ t=0.22
5.434888972264426
% V (V) @ t=0.22
0.005999317559802455
% es.normE (V/m) @ t=0.24
7.371792129684927
% es.EX (V/m) @ t=0.24
-4.096064870579033
% es.EY (V/m) @ t=0.24
-0.4421355122399815
% es.EZ (V/m) @ t=0.24
5.4846050098990204
% es.tEX (V/m) @ t=0.24
-4.096064870579036
% es.tEY (V/m) @ t=0.24
0
% es.tEZ (V/m) @ t=0.24
5.484605009899012
% es.Ex (V/m) @ t=0.24
-4.096064870579033
% es.Ey (V/m) @ t=0.24
-0.4421355122399815
% es.Ez (V/m) @ t=0.24
5.4846050098990204
% es.tEx (V/m) @ t=0.24
-4.096064870579036
% es.tEy (V/m) @ t=0.24
0
% es.tEz (V/m) @ t=0.24
5.484605009899012
% V (V) @ t=0.24
0.006054196808365926
% es.normE (V/m) @ t=0.26
7.438614750272546
% es.EX (V/m) @ t=0.26
-4.133194007534015
% es.EY (V/m) @ t=0.26
-0.44614343570333315
% es.EZ (V/m) @ t=0.26
5.534321047533591
% es.tEX (V/m) @ t=0.26
-4.133194007534021
% es.tEY (V/m) @ t=0.26
0
% es.tEZ (V/m) @ t=0.26
5.534321047533583
% es.Ex (V/m) @ t=0.26
-4.133194007534015
% es.Ey (V/m) @ t=0.26
-0.44614343570333315
% es.Ez (V/m) @ t=0.26
5.534321047533591
% es.tEx (V/m) @ t=0.26
-4.133194007534021
% es.tEy (V/m) @ t=0.26
0
% es.tEz (V/m) @ t=0.26
5.534321047533583
% V (V) @ t=0.26
0.006109076056929397
% es.normE (V/m) @ t=0.28
7.507930392874615
% es.EX (V/m) @ t=0.28
-4.171703736502536
% es.EY (V/m) @ t=0.28
-0.4503037230501403
% es.EZ (V/m) @ t=0.28
5.585893777808111
% es.tEX (V/m) @ t=0.28
-4.1717037365025424
% es.tEY (V/m) @ t=0.28
0
% es.tEZ (V/m) @ t=0.28
5.585893777808106
% es.Ex (V/m) @ t=0.28
-4.171703736502536
% es.Ey (V/m) @ t=0.28
-0.4503037230501403
% es.Ez (V/m) @ t=0.28
5.585893777808111
% es.tEx (V/m) @ t=0.28
-4.1717037365025424
% es.tEy (V/m) @ t=0.28
0
% es.tEz (V/m) @ t=0.28
5.585893777808106
% V (V) @ t=0.28
0.006166006162498397
% es.normE (V/m) @ t=0.3
7.582449437929232
% es.EX (V/m) @ t=0.3
-4.213095018775272
% es.EY (V/m) @ t=0.3
-0.454782022269816
% es.EZ (V/m) @ t=0.3
5.641341772287463
% es.tEX (V/m) @ t=0.3
-4.213095018775275
% es.tEY (V/m) @ t=0.3
0
% es.tEZ (V/m) @ t=0.3
5.641341772287458
% es.Ex (V/m) @ t=0.3
-4.213095018775272
% es.Ey (V/m) @ t=0.3
-0.454782022269816
% es.Ez (V/m) @ t=0.3
5.641341772287463
% es.tEx (V/m) @ t=0.3
-4.213095018775275
% es.tEy (V/m) @ t=0.3
0
% es.tEz (V/m) @ t=0.3
5.641341772287458
% V (V) @ t=0.3
0.006227216789555843
% es.normE (V/m) @ t=0.32
7.656968483033086
% es.EX (V/m) @ t=0.32
-4.254486301047998
% es.EY (V/m) @ t=0.32
-0.4592603214895057
% es.EZ (V/m) @ t=0.32
5.696789766766823
% es.tEX (V/m) @ t=0.32
-4.254486301048004
% es.tEY (V/m) @ t=0.32
0
% es.tEZ (V/m) @ t=0.32
5.696789766766812
% es.Ex (V/m) @ t=0.32
-4.254486301047998
% es.Ey (V/m) @ t=0.32
-0.4592603214895057
% es.Ez (V/m) @ t=0.32
5.696789766766823
% es.tEx (V/m) @ t=0.32
-4.254486301048004
% es.tEy (V/m) @ t=0.32
0
% es.tEz (V/m) @ t=0.32
5.696789766766812
% V (V) @ t=0.32
0.00628842741661329
% es.normE (V/m) @ t=0.34
7.731487528184754
% es.EX (V/m) @ t=0.34
-4.295877583320731
% es.EY (V/m) @ t=0.34
-0.46373862070919514
% es.EZ (V/m) @ t=0.34
5.752237761246162
% es.tEX (V/m) @ t=0.34
-4.295877583320741
% es.tEY (V/m) @ t=0.34
0
% es.tEZ (V/m) @ t=0.34
5.752237761246155
% es.Ex (V/m) @ t=0.34
-4.295877583320731
% es.Ey (V/m) @ t=0.34
-0.46373862070919514
% es.Ez (V/m) @ t=0.34
5.752237761246162
% es.tEx (V/m) @ t=0.34
-4.295877583320741
% es.tEy (V/m) @ t=0.34
0
% es.tEz (V/m) @ t=0.34
5.752237761246155
% V (V) @ t=0.34
0.006349638043670737
% es.normE (V/m) @ t=0.36
7.806006573382888
% es.EX (V/m) @ t=0.36
-4.337268865593464
% es.EY (V/m) @ t=0.36
-0.4682169199288795
% es.EZ (V/m) @ t=0.36
5.807685755725528
% es.tEX (V/m) @ t=0.36
-4.3372688655934635
% es.tEY (V/m) @ t=0.36
0
% es.tEZ (V/m) @ t=0.36
5.807685755725524
% es.Ex (V/m) @ t=0.36
-4.337268865593464
% es.Ey (V/m) @ t=0.36
-0.4682169199288795
% es.Ez (V/m) @ t=0.36
5.807685755725528
% es.tEx (V/m) @ t=0.36
-4.3372688655934635
% es.tEy (V/m) @ t=0.36
0
% es.tEz (V/m) @ t=0.36
5.807685755725524
% V (V) @ t=0.36
0.006410848670728185
% es.normE (V/m) @ t=0.38
7.8805256186261445
% es.EX (V/m) @ t=0.38
-4.378660147866194
% es.EY (V/m) @ t=0.38
-0.4726952191485514
% es.EZ (V/m) @ t=0.38
5.863133750204892
% es.tEX (V/m) @ t=0.38
-4.378660147866204
% es.tEY (V/m) @ t=0.38
0
% es.tEZ (V/m) @ t=0.38
5.86313375020489
% es.Ex (V/m) @ t=0.38
-4.378660147866194
% es.Ey (V/m) @ t=0.38
-0.4726952191485514
% es.Ez (V/m) @ t=0.38
5.863133750204892
% es.tEx (V/m) @ t=0.38
-4.378660147866204
% es.tEy (V/m) @ t=0.38
0
% es.tEz (V/m) @ t=0.38
5.86313375020489
% V (V) @ t=0.38
0.0064720592977856334
% es.normE (V/m) @ t=0.4
7.9550446639132515
% es.EX (V/m) @ t=0.4
-4.420051430138926
% es.EY (V/m) @ t=0.4
-0.47717351836823063
% es.EZ (V/m) @ t=0.4
5.918581744684239
% es.tEX (V/m) @ t=0.4
-4.420051430138936
% es.tEY (V/m) @ t=0.4
0
% es.tEZ (V/m) @ t=0.4
5.918581744684237
% es.Ex (V/m) @ t=0.4
-4.420051430138926
% es.Ey (V/m) @ t=0.4
-0.47717351836823063
% es.Ez (V/m) @ t=0.4
5.918581744684239
% es.tEx (V/m) @ t=0.4
-4.420051430138936
% es.tEy (V/m) @ t=0.4
0
% es.tEz (V/m) @ t=0.4
5.918581744684237
% V (V) @ t=0.4
0.00653326992484308
% es.normE (V/m) @ t=0.42
8.029563709243
% es.EX (V/m) @ t=0.42
-4.461442712411649
% es.EY (V/m) @ t=0.42
-0.48165181758793785
% es.EZ (V/m) @ t=0.42
5.97402973916358
% es.tEX (V/m) @ t=0.42
-4.461442712411666
% es.tEY (V/m) @ t=0.42
0
% es.tEZ (V/m) @ t=0.42
5.974029739163571
% es.Ex (V/m) @ t=0.42
-4.461442712411649
% es.Ey (V/m) @ t=0.42
-0.48165181758793785
% es.Ez (V/m) @ t=0.42
5.97402973916358
% es.tEx (V/m) @ t=0.42
-4.461442712411666
% es.tEy (V/m) @ t=0.42
0
% es.tEz (V/m) @ t=0.42
5.974029739163571
% V (V) @ t=0.42
0.006594480551900527
% es.normE (V/m) @ t=0.44
8.104082754614222
% es.EX (V/m) @ t=0.44
-4.502833994684385
% es.EY (V/m) @ t=0.44
-0.48613011680761153
% es.EZ (V/m) @ t=0.44
6.0294777336429375
% es.tEX (V/m) @ t=0.44
-4.502833994684395
% es.tEY (V/m) @ t=0.44
0
% es.tEZ (V/m) @ t=0.44
6.0294777336429295
% es.Ex (V/m) @ t=0.44
-4.502833994684385
% es.Ey (V/m) @ t=0.44
-0.48613011680761153
% es.Ez (V/m) @ t=0.44
6.0294777336429375
% es.tEx (V/m) @ t=0.44
-4.502833994684395
% es.tEy (V/m) @ t=0.44
0
% es.tEz (V/m) @ t=0.44
6.0294777336429295
% V (V) @ t=0.44
0.006655691178957974
% es.normE (V/m) @ t=0.46
8.178601800025769
% es.EX (V/m) @ t=0.46
-4.544225276957115
% es.EY (V/m) @ t=0.46
-0.4906084160272872
% es.EZ (V/m) @ t=0.46
6.084925728122297
% es.tEX (V/m) @ t=0.46
-4.544225276957128
% es.tEY (V/m) @ t=0.46
0
% es.tEZ (V/m) @ t=0.46
6.084925728122297
% es.Ex (V/m) @ t=0.46
-4.544225276957115
% es.Ey (V/m) @ t=0.46
-0.4906084160272872
% es.Ez (V/m) @ t=0.46
6.084925728122297
% es.tEx (V/m) @ t=0.46
-4.544225276957128
% es.tEy (V/m) @ t=0.46
0
% es.tEz (V/m) @ t=0.46
6.084925728122297
% V (V) @ t=0.46
0.006716901806015423
% es.normE (V/m) @ t=0.48
8.253120845476566
% es.EX (V/m) @ t=0.48
-4.585616559229844
% es.EY (V/m) @ t=0.48
-0.49508671524696446
% es.EZ (V/m) @ t=0.48
6.140373722601654
% es.tEX (V/m) @ t=0.48
-4.58561655922985
% es.tEY (V/m) @ t=0.48
0
% es.tEZ (V/m) @ t=0.48
6.140373722601641
% es.Ex (V/m) @ t=0.48
-4.585616559229844
% es.Ey (V/m) @ t=0.48
-0.49508671524696446
% es.Ez (V/m) @ t=0.48
6.140373722601654
% es.tEx (V/m) @ t=0.48
-4.58561655922985
% es.tEy (V/m) @ t=0.48
0
% es.tEz (V/m) @ t=0.48
6.140373722601641
% V (V) @ t=0.48
0.0067781124330728686
% es.normE (V/m) @ t=0.5
8.32763989096554
% es.EX (V/m) @ t=0.5
-4.627007841502577
% es.EY (V/m) @ t=0.5
-0.4995650144666486
% es.EZ (V/m) @ t=0.5
6.19582171708101
% es.tEX (V/m) @ t=0.5
-4.62700784150259
% es.tEY (V/m) @ t=0.5
0
% es.tEZ (V/m) @ t=0.5
6.195821717080998
% es.Ex (V/m) @ t=0.5
-4.627007841502577
% es.Ey (V/m) @ t=0.5
-0.4995650144666486
% es.Ez (V/m) @ t=0.5
6.19582171708101
% es.tEx (V/m) @ t=0.5
-4.62700784150259
% es.tEy (V/m) @ t=0.5
0
% es.tEz (V/m) @ t=0.5
6.195821717080998
% V (V) @ t=0.5
0.006839323060130318
% es.normE (V/m) @ t=0.52
8.402158936491684
% es.EX (V/m) @ t=0.52
-4.668399123775309
% es.EY (V/m) @ t=0.52
-0.5040433136863276
% es.EZ (V/m) @ t=0.52
6.2512697115603615
% es.tEX (V/m) @ t=0.52
-4.668399123775315
% es.tEY (V/m) @ t=0.52
0
% es.tEZ (V/m) @ t=0.52
6.251269711560349
% es.Ex (V/m) @ t=0.52
-4.668399123775309
% es.Ey (V/m) @ t=0.52
-0.5040433136863276
% es.Ez (V/m) @ t=0.52
6.2512697115603615
% es.tEx (V/m) @ t=0.52
-4.668399123775315
% es.tEy (V/m) @ t=0.52
0
% es.tEz (V/m) @ t=0.52
6.251269711560349
% V (V) @ t=0.52
0.0069005336871877645
% es.normE (V/m) @ t=0.54
8.476677982054012
% es.EX (V/m) @ t=0.54
-4.709790406048036
% es.EY (V/m) @ t=0.54
-0.5085216129060299
% es.EZ (V/m) @ t=0.54
6.306717706039708
% es.tEX (V/m) @ t=0.54
-4.709790406048049
% es.tEY (V/m) @ t=0.54
0
% es.tEZ (V/m) @ t=0.54
6.306717706039705
% es.Ex (V/m) @ t=0.54
-4.709790406048036
% es.Ey (V/m) @ t=0.54
-0.5085216129060299
% es.Ez (V/m) @ t=0.54
6.306717706039708
% es.tEx (V/m) @ t=0.54
-4.709790406048049
% es.tEy (V/m) @ t=0.54
0
% es.tEz (V/m) @ t=0.54
6.306717706039705
% V (V) @ t=0.54
0.006961744314245211
% es.normE (V/m) @ t=0.56
8.556896642174637
% es.EX (V/m) @ t=0.56
-4.754353427235642
% es.EY (V/m) @ t=0.56
-0.5133388107346746
% es.EZ (V/m) @ t=0.56
6.366404249832128
% es.tEX (V/m) @ t=0.56
-4.754353427235651
% es.tEY (V/m) @ t=0.56
0
% es.tEZ (V/m) @ t=0.56
6.366404249832115
% es.Ex (V/m) @ t=0.56
-4.754353427235642
% es.Ey (V/m) @ t=0.56
-0.5133388107346746
% es.Ez (V/m) @ t=0.56
6.366404249832128
% es.tEx (V/m) @ t=0.56
-4.754353427235651
% es.tEy (V/m) @ t=0.56
0
% es.tEz (V/m) @ t=0.56
6.366404249832115
% V (V) @ t=0.56
0.007027632284295816
% es.normE (V/m) @ t=0.58
8.640079712805834
% es.EX (V/m) @ t=0.58
-4.800566092641061
% es.EY (V/m) @ t=0.58
-0.5183322721669017
% es.EZ (V/m) @ t=0.58
6.428295293602024
% es.tEX (V/m) @ t=0.58
-4.800566092641067
% es.tEY (V/m) @ t=0.58
0
% es.tEZ (V/m) @ t=0.58
6.42829529360202
% es.Ex (V/m) @ t=0.58
-4.800566092641061
% es.Ey (V/m) @ t=0.58
-0.5183322721669017
% es.Ez (V/m) @ t=0.58
6.428295293602024
% es.tEx (V/m) @ t=0.58
-4.800566092641067
% es.tEy (V/m) @ t=0.58
0
% es.tEz (V/m) @ t=0.58
6.42829529360202
% V (V) @ t=0.58
0.007095952974072284
% es.normE (V/m) @ t=0.6
8.723262783442657
% es.EX (V/m) @ t=0.6
-4.846778758046484
% es.EY (V/m) @ t=0.6
-0.5233257335991164
% es.EZ (V/m) @ t=0.6
6.490186337371897
% es.tEX (V/m) @ t=0.6
-4.84677875804649
% es.tEY (V/m) @ t=0.6
0
% es.tEZ (V/m) @ t=0.6
6.490186337371891
% es.Ex (V/m) @ t=0.6
-4.846778758046484
% es.Ey (V/m) @ t=0.6
-0.5233257335991164
% es.Ez (V/m) @ t=0.6
6.490186337371897
% es.tEx (V/m) @ t=0.6
-4.84677875804649
% es.tEy (V/m) @ t=0.6
0
% es.tEz (V/m) @ t=0.6
6.490186337371891
% V (V) @ t=0.6
0.0071642736638487525
% es.normE (V/m) @ t=0.62
8.806445854085009
% es.EX (V/m) @ t=0.62
-4.8929914234519165
% es.EY (V/m) @ t=0.62
-0.5283191950313597
% es.EZ (V/m) @ t=0.62
6.552077381141794
% es.tEX (V/m) @ t=0.62
-4.892991423451923
% es.tEY (V/m) @ t=0.62
0
% es.tEZ (V/m) @ t=0.62
6.552077381141785
% es.Ex (V/m) @ t=0.62
-4.8929914234519165
% es.Ey (V/m) @ t=0.62
-0.5283191950313597
% es.Ez (V/m) @ t=0.62
6.552077381141794
% es.tEx (V/m) @ t=0.62
-4.892991423451923
% es.tEy (V/m) @ t=0.62
0
% es.tEz (V/m) @ t=0.62
6.552077381141785
% V (V) @ t=0.62
0.00723259435362522
% es.normE (V/m) @ t=0.64
8.889628924732682
% es.EX (V/m) @ t=0.64
-4.939204088857343
% es.EY (V/m) @ t=0.64
-0.5333126564635531
% es.EZ (V/m) @ t=0.64
6.613968424911692
% es.tEX (V/m) @ t=0.64
-4.939204088857346
% es.tEY (V/m) @ t=0.64
0
% es.tEZ (V/m) @ t=0.64
6.613968424911681
% es.Ex (V/m) @ t=0.64
-4.939204088857343
% es.Ey (V/m) @ t=0.64
-0.5333126564635531
% es.Ez (V/m) @ t=0.64
6.613968424911692
% es.tEx (V/m) @ t=0.64
-4.939204088857346
% es.tEy (V/m) @ t=0.64
0
% es.tEz (V/m) @ t=0.64
6.613968424911681
% V (V) @ t=0.64
0.007300915043401687
% es.normE (V/m) @ t=0.66
8.972811995385547
% es.EX (V/m) @ t=0.66
-4.985416754262767
% es.EY (V/m) @ t=0.66
-0.5383061178957891
% es.EZ (V/m) @ t=0.66
6.675859468681581
% es.tEX (V/m) @ t=0.66
-4.985416754262773
% es.tEY (V/m) @ t=0.66
0
% es.tEZ (V/m) @ t=0.66
6.675859468681573
% es.Ex (V/m) @ t=0.66
-4.985416754262767
% es.Ey (V/m) @ t=0.66
-0.5383061178957891
% es.Ez (V/m) @ t=0.66
6.675859468681581
% es.tEx (V/m) @ t=0.66
-4.985416754262773
% es.tEy (V/m) @ t=0.66
0
% es.tEz (V/m) @ t=0.66
6.675859468681573
% V (V) @ t=0.66
0.007369235733178155
% es.normE (V/m) @ t=0.68
9.05599506604344
% es.EX (V/m) @ t=0.68
-5.031629419668192
% es.EY (V/m) @ t=0.68
-0.5432995793280058
% es.EZ (V/m) @ t=0.68
6.737750512451447
% es.tEX (V/m) @ t=0.68
-5.0316294196681985
% es.tEY (V/m) @ t=0.68
0
% es.tEZ (V/m) @ t=0.68
6.737750512451444
% es.Ex (V/m) @ t=0.68
-5.031629419668192
% es.Ey (V/m) @ t=0.68
-0.5432995793280058
% es.Ez (V/m) @ t=0.68
6.737750512451447
% es.tEx (V/m) @ t=0.68
-5.0316294196681985
% es.tEy (V/m) @ t=0.68
0
% es.tEz (V/m) @ t=0.68
6.737750512451444
% V (V) @ t=0.68
0.0074375564229546215
% es.normE (V/m) @ t=0.7
9.139178136706267
% es.EX (V/m) @ t=0.7
-5.077842085073626
% es.EY (V/m) @ t=0.7
-0.5482930407602453
% es.EZ (V/m) @ t=0.7
6.799641556221337
% es.tEX (V/m) @ t=0.7
-5.077842085073632
% es.tEY (V/m) @ t=0.7
0
% es.tEZ (V/m) @ t=0.7
6.799641556221331
% es.Ex (V/m) @ t=0.7
-5.077842085073626
% es.Ey (V/m) @ t=0.7
-0.5482930407602453
% es.Ez (V/m) @ t=0.7
6.799641556221337
% es.tEx (V/m) @ t=0.7
-5.077842085073632
% es.tEy (V/m) @ t=0.7
0
% es.tEz (V/m) @ t=0.7
6.799641556221331
% V (V) @ t=0.7
0.007505877112731089
% es.normE (V/m) @ t=0.72
9.222361207373867
% es.EX (V/m) @ t=0.72
-5.124054750479049
% es.EY (V/m) @ t=0.72
-0.5532865021924636
% es.EZ (V/m) @ t=0.72
6.861532599991229
% es.tEX (V/m) @ t=0.72
-5.124054750479062
% es.tEY (V/m) @ t=0.72
0
% es.tEZ (V/m) @ t=0.72
6.861532599991221
% es.Ex (V/m) @ t=0.72
-5.124054750479049
% es.Ey (V/m) @ t=0.72
-0.5532865021924636
% es.Ez (V/m) @ t=0.72
6.861532599991229
% es.tEx (V/m) @ t=0.72
-5.124054750479062
% es.tEy (V/m) @ t=0.72
0
% es.tEz (V/m) @ t=0.72
6.861532599991221
% V (V) @ t=0.72
0.007574197802507558
% es.normE (V/m) @ t=0.74
9.305544278046094
% es.EX (V/m) @ t=0.74
-5.170267415884475
% es.EY (V/m) @ t=0.74
-0.5582799636246676
% es.EZ (V/m) @ t=0.74
6.923423643761105
% es.tEX (V/m) @ t=0.74
-5.170267415884485
% es.tEY (V/m) @ t=0.74
0
% es.tEZ (V/m) @ t=0.74
6.923423643761096
% es.Ex (V/m) @ t=0.74
-5.170267415884475
% es.Ey (V/m) @ t=0.74
-0.5582799636246676
% es.Ez (V/m) @ t=0.74
6.923423643761105
% es.tEx (V/m) @ t=0.74
-5.170267415884485
% es.tEy (V/m) @ t=0.74
0
% es.tEz (V/m) @ t=0.74
6.923423643761096
% V (V) @ t=0.74
0.007642518492284026
% es.normE (V/m) @ t=0.76
9.388727348722881
% es.EX (V/m) @ t=0.76
-5.216480081289902
% es.EY (V/m) @ t=0.76
-0.56327342505692
% es.EZ (V/m) @ t=0.76
6.98531468753101
% es.tEX (V/m) @ t=0.76
-5.216480081289908
% es.tEY (V/m) @ t=0.76
0
% es.tEZ (V/m) @ t=0.76
6.9853146875310035
% es.Ex (V/m) @ t=0.76
-5.216480081289902
% es.Ey (V/m) @ t=0.76
-0.56327342505692
% es.Ez (V/m) @ t=0.76
6.98531468753101
% es.tEx (V/m) @ t=0.76
-5.216480081289908
% es.tEy (V/m) @ t=0.76
0
% es.tEz (V/m) @ t=0.76
6.9853146875310035
% V (V) @ t=0.76
0.007710839182060492
% es.normE (V/m) @ t=0.78
9.471910419404043
% es.EX (V/m) @ t=0.78
-5.262692746695329
% es.EY (V/m) @ t=0.78
-0.5682668864891292
% es.EZ (V/m) @ t=0.78
7.047205731300885
% es.tEX (V/m) @ t=0.78
-5.2626927466953415
% es.tEY (V/m) @ t=0.78
0
% es.tEZ (V/m) @ t=0.78
7.047205731300872
% es.Ex (V/m) @ t=0.78
-5.262692746695329
% es.Ey (V/m) @ t=0.78
-0.5682668864891292
% es.Ez (V/m) @ t=0.78
7.047205731300885
% es.tEx (V/m) @ t=0.78
-5.2626927466953415
% es.tEy (V/m) @ t=0.78
0
% es.tEz (V/m) @ t=0.78
7.047205731300872
% V (V) @ t=0.78
0.007779159871836959
% es.normE (V/m) @ t=0.8
9.555093490089517
% es.EX (V/m) @ t=0.8
-5.308905412100773
% es.EY (V/m) @ t=0.8
-0.5732603479213563
% es.EZ (V/m) @ t=0.8
7.109096775070773
% es.tEX (V/m) @ t=0.8
-5.3089054121007715
% es.tEY (V/m) @ t=0.8
0
% es.tEZ (V/m) @ t=0.8
7.109096775070764
% es.Ex (V/m) @ t=0.8
-5.308905412100773
% es.Ey (V/m) @ t=0.8
-0.5732603479213563
% es.Ez (V/m) @ t=0.8
7.109096775070773
% es.tEx (V/m) @ t=0.8
-5.3089054121007715
% es.tEy (V/m) @ t=0.8
0
% es.tEz (V/m) @ t=0.8
7.109096775070764
% V (V) @ t=0.8
0.007847480561613426
% es.normE (V/m) @ t=0.82
9.638276560779152
% es.EX (V/m) @ t=0.82
-5.355118077506193
% es.EY (V/m) @ t=0.82
-0.5782538093535674
% es.EZ (V/m) @ t=0.82
7.170987818840657
% es.tEX (V/m) @ t=0.82
-5.355118077506198
% es.tEY (V/m) @ t=0.82
0
% es.tEZ (V/m) @ t=0.82
7.170987818840644
% es.Ex (V/m) @ t=0.82
-5.355118077506193
% es.Ey (V/m) @ t=0.82
-0.5782538093535674
% es.Ez (V/m) @ t=0.82
7.170987818840657
% es.tEx (V/m) @ t=0.82
-5.355118077506198
% es.tEy (V/m) @ t=0.82
0
% es.tEz (V/m) @ t=0.82
7.170987818840644
% V (V) @ t=0.82
0.007915801251389895
% es.normE (V/m) @ t=0.84
9.731272981432216
% es.EX (V/m) @ t=0.84
-5.406773939134001
% es.EY (V/m) @ t=0.84
-0.5838416668960456
% es.EZ (V/m) @ t=0.84
7.24018385298557
% es.tEX (V/m) @ t=0.84
-5.406773939134011
% es.tEY (V/m) @ t=0.84
0
% es.tEZ (V/m) @ t=0.84
7.240183852985564
% es.Ex (V/m) @ t=0.84
-5.406773939134001
% es.Ey (V/m) @ t=0.84
-0.5838416668960456
% es.Ez (V/m) @ t=0.84
7.24018385298557
% es.tEx (V/m) @ t=0.84
-5.406773939134011
% es.tEy (V/m) @ t=0.84
0
% es.tEz (V/m) @ t=0.84
7.240183852985564
% V (V) @ t=0.84
0.007992188326380177
% es.normE (V/m) @ t=0.86
9.824350764536183
% es.EX (V/m) @ t=0.86
-5.458474930263381
% es.EY (V/m) @ t=0.86
-0.5894344525724704
% es.EZ (V/m) @ t=0.86
7.309440452754315
% es.tEX (V/m) @ t=0.86
-5.4584749302633835
% es.tEY (V/m) @ t=0.86
0
% es.tEZ (V/m) @ t=0.86
7.3094404527543
% es.Ex (V/m) @ t=0.86
-5.458474930263381
% es.Ey (V/m) @ t=0.86
-0.5894344525724704
% es.Ez (V/m) @ t=0.86
7.309440452754315
% es.tEx (V/m) @ t=0.86
-5.4584749302633835
% es.tEy (V/m) @ t=0.86
0
% es.tEz (V/m) @ t=0.86
7.3094404527543
% V (V) @ t=0.86
0.008068642279713505
% es.normE (V/m) @ t=0.88
9.917428547674712
% es.EX (V/m) @ t=0.88
-5.510175921392798
% es.EY (V/m) @ t=0.88
-0.5950272382489046
% es.EZ (V/m) @ t=0.88
7.37869705252302
% es.tEX (V/m) @ t=0.88
-5.510175921392797
% es.tEY (V/m) @ t=0.88
0
% es.tEZ (V/m) @ t=0.88
7.378697052523013
% es.Ex (V/m) @ t=0.88
-5.510175921392798
% es.Ey (V/m) @ t=0.88
-0.5950272382489046
% es.Ez (V/m) @ t=0.88
7.37869705252302
% es.tEx (V/m) @ t=0.88
-5.510175921392797
% es.tEy (V/m) @ t=0.88
0
% es.tEz (V/m) @ t=0.88
7.378697052523013
% V (V) @ t=0.88
0.008145096233046833
% es.normE (V/m) @ t=0.9
10.010506330846829
% es.EX (V/m) @ t=0.9
-5.561876912522187
% es.EY (V/m) @ t=0.9
-0.6006200239253294
% es.EZ (V/m) @ t=0.9
7.447953652291747
% es.tEX (V/m) @ t=0.9
-5.561876912522194
% es.tEY (V/m) @ t=0.9
0
% es.tEZ (V/m) @ t=0.9
7.447953652291733
% es.Ex (V/m) @ t=0.9
-5.561876912522187
% es.Ey (V/m) @ t=0.9
-0.6006200239253294
% es.Ez (V/m) @ t=0.9
7.447953652291747
% es.tEx (V/m) @ t=0.9
-5.561876912522194
% es.tEy (V/m) @ t=0.9
0
% es.tEz (V/m) @ t=0.9
7.447953652291733
% V (V) @ t=0.9
0.008221550186380164
% es.normE (V/m) @ t=0.92
10.10358411405161
% es.EX (V/m) @ t=0.92
-5.613577903651575
% es.EY (V/m) @ t=0.92
-0.60621280960176
% es.EZ (V/m) @ t=0.92
7.517210252060477
% es.tEX (V/m) @ t=0.92
-5.613577903651581
% es.tEY (V/m) @ t=0.92
0
% es.tEZ (V/m) @ t=0.92
7.517210252060467
% es.Ex (V/m) @ t=0.92
-5.613577903651575
% es.Ey (V/m) @ t=0.92
-0.60621280960176
% es.Ez (V/m) @ t=0.92
7.517210252060477
% es.tEx (V/m) @ t=0.92
-5.613577903651581
% es.tEy (V/m) @ t=0.92
0
% es.tEz (V/m) @ t=0.92
7.517210252060467
% V (V) @ t=0.92
0.008298004139713492
% es.normE (V/m) @ t=0.94
10.19666189728817
% es.EX (V/m) @ t=0.94
-5.665278894780964
% es.EY (V/m) @ t=0.94
-0.6118055952781773
% es.EZ (V/m) @ t=0.94
7.586466851829208
% es.tEX (V/m) @ t=0.94
-5.665278894780969
% es.tEY (V/m) @ t=0.94
0
% es.tEZ (V/m) @ t=0.94
7.586466851829196
% es.Ex (V/m) @ t=0.94
-5.665278894780964
% es.Ey (V/m) @ t=0.94
-0.6118055952781773
% es.Ez (V/m) @ t=0.94
7.586466851829208
% es.tEx (V/m) @ t=0.94
-5.665278894780969
% es.tEy (V/m) @ t=0.94
0
% es.tEz (V/m) @ t=0.94
7.586466851829196
% V (V) @ t=0.94
0.00837445809304682
% es.normE (V/m) @ t=0.96
10.289739680555641
% es.EX (V/m) @ t=0.96
-5.716979885910355
% es.EY (V/m) @ t=0.96
-0.6173983809546111
% es.EZ (V/m) @ t=0.96
7.655723451597931
% es.tEX (V/m) @ t=0.96
-5.716979885910354
% es.tEY (V/m) @ t=0.96
0
% es.tEZ (V/m) @ t=0.96
7.655723451597917
% es.Ex (V/m) @ t=0.96
-5.716979885910355
% es.Ey (V/m) @ t=0.96
-0.6173983809546111
% es.Ez (V/m) @ t=0.96
7.655723451597931
% es.tEx (V/m) @ t=0.96
-5.716979885910354
% es.tEy (V/m) @ t=0.96
0
% es.tEz (V/m) @ t=0.96
7.655723451597917
% V (V) @ t=0.96
0.008450912046380148
% es.normE (V/m) @ t=0.98
10.382817463853169
% es.EX (V/m) @ t=0.98
-5.768680877039747
% es.EY (V/m) @ t=0.98
-0.6229911666310435
% es.EZ (V/m) @ t=0.98
7.724980051366633
% es.tEX (V/m) @ t=0.98
-5.76868087703976
% es.tEY (V/m) @ t=0.98
0
% es.tEZ (V/m) @ t=0.98
7.724980051366618
% es.Ex (V/m) @ t=0.98
-5.768680877039747
% es.Ey (V/m) @ t=0.98
-0.6229911666310435
% es.Ez (V/m) @ t=0.98
7.724980051366633
% es.tEx (V/m) @ t=0.98
-5.76868087703976
% es.tEy (V/m) @ t=0.98
0
% es.tEz (V/m) @ t=0.98
7.724980051366618
% V (V) @ t=0.98
0.008527365999713474
% es.normE (V/m) @ t=1
10.475895247179984
% es.EX (V/m) @ t=1
-5.820381868169128
% es.EY (V/m) @ t=1
-0.6285839523074899
% es.EZ (V/m) @ t=1
7.79423665113536
% es.tEX (V/m) @ t=1
-5.820381868169138
% es.tEY (V/m) @ t=1
0
% es.tEZ (V/m) @ t=1
7.794236651135351
% es.Ex (V/m) @ t=1
-5.820381868169128
% es.Ey (V/m) @ t=1
-0.6285839523074899
% es.Ez (V/m) @ t=1
7.79423665113536
% es.tEx (V/m) @ t=1
-5.820381868169138
% es.tEy (V/m) @ t=1
0
% es.tEz (V/m) @ t=1
7.794236651135351
% V (V) @ t=1
0.008603819953046805
% es.normE (V/m) @ t=1.02
10.568973030535304
% es.EX (V/m) @ t=1.02
-5.872082859298517
% es.EY (V/m) @ t=1.02
-0.6341767379838985
% es.EZ (V/m) @ t=1.02
7.863493250904089
% es.tEX (V/m) @ t=1.02
-5.872082859298522
% es.tEY (V/m) @ t=1.02
0
% es.tEZ (V/m) @ t=1.02
7.863493250904085
% es.Ex (V/m) @ t=1.02
-5.872082859298517
% es.Ey (V/m) @ t=1.02
-0.6341767379838985
% es.Ez (V/m) @ t=1.02
7.863493250904089
% es.tEx (V/m) @ t=1.02
-5.872082859298522
% es.tEy (V/m) @ t=1.02
0
% es.tEz (V/m) @ t=1.02
7.863493250904085
% V (V) @ t=1.02
0.008680273906380131
% es.normE (V/m) @ t=1.04
10.662050813918398
% es.EX (V/m) @ t=1.04
-5.923783850427922
% es.EY (V/m) @ t=1.04
-0.6397695236603376
% es.EZ (V/m) @ t=1.04
7.93274985067281
% es.tEX (V/m) @ t=1.04
-5.923783850427925
% es.tEY (V/m) @ t=1.04
0
% es.tEZ (V/m) @ t=1.04
7.932749850672807
% es.Ex (V/m) @ t=1.04
-5.923783850427922
% es.Ey (V/m) @ t=1.04
-0.6397695236603376
% es.Ez (V/m) @ t=1.04
7.93274985067281
% es.tEx (V/m) @ t=1.04
-5.923783850427925
% es.tEy (V/m) @ t=1.04
0
% es.tEz (V/m) @ t=1.04
7.932749850672807
% V (V) @ t=1.04