% Model:              1 neuron.mph
% Version:            COMSOL 6.1.0.252
% Date:               Mar 18 2023, 11:36
% Dimension:          0
% Nodes:              14017
% Expressions:        14017
% Description:        Electric field norm, Electric field, X component, Electric field, Y component, Electric field, Z component, Tangential electric field, X component, Tangential electric field, Y component, Tangential electric field, Z component, Electric field, x component, Electric field, y component, Electric field, z component, Tangential electric field, x component, Tangential electric field, y component, Tangential electric field, z component, Electric potential
% Length unit:        mm
% x
1.66
% y
12.2
% z
2
% es.normE (V/m) @ t=0
1.4593292588799072
% es.EX (V/m) @ t=0
-0.4353460670300995
% es.EY (V/m) @ t=0
0.03251904893055573
% es.EZ (V/m) @ t=0
-1.3901575418501921
% es.tEX (V/m) @ t=0
-0.43534606703010326
% es.tEY (V/m) @ t=0
0
% es.tEZ (V/m) @ t=0
-1.3901575418502006
% es.Ex (V/m) @ t=0
-0.4353460670300995
% es.Ey (V/m) @ t=0
0.03251904893055573
% es.Ez (V/m) @ t=0
-1.3901575418501921
% es.tEx (V/m) @ t=0
-0.43534606703010326
% es.tEy (V/m) @ t=0
0
% es.tEz (V/m) @ t=0
-1.3901575418502006
% V (V) @ t=0
0.007335189407283199
% es.normE (V/m) @ t=0.02
1.2604363068824571
% es.EX (V/m) @ t=0.02
-0.3760124629863235
% es.EY (V/m) @ t=0.02
0.028087006207351974
% es.EZ (V/m) @ t=0.02
-1.2006920490168418
% es.tEX (V/m) @ t=0.02
-0.3760124629863295
% es.tEY (V/m) @ t=0.02
0
% es.tEZ (V/m) @ t=0.02
-1.200692049016853
% es.Ex (V/m) @ t=0.02
-0.3760124629863235
% es.Ey (V/m) @ t=0.02
0.028087006207351974
% es.Ez (V/m) @ t=0.02
-1.2006920490168418
% es.tEx (V/m) @ t=0.02
-0.3760124629863295
% es.tEy (V/m) @ t=0.02
0
% es.tEz (V/m) @ t=0.02
-1.200692049016853
% V (V) @ t=0.02
0.0063354715807009306
% es.normE (V/m) @ t=0.04
1.2720275972534671
% es.EX (V/m) @ t=0.04
-0.37947036849144133
% es.EY (V/m) @ t=0.04
0.028345301442535067
% es.EZ (V/m) @ t=0.04
-1.211733916111974
% es.tEX (V/m) @ t=0.04
-0.3794703684914449
% es.tEY (V/m) @ t=0.04
0
% es.tEZ (V/m) @ t=0.04
-1.2117339161119904
% es.Ex (V/m) @ t=0.04
-0.37947036849144133
% es.Ey (V/m) @ t=0.04
0.028345301442535067
% es.Ez (V/m) @ t=0.04
-1.211733916111974
% es.tEx (V/m) @ t=0.04
-0.3794703684914449
% es.tEy (V/m) @ t=0.04
0
% es.tEz (V/m) @ t=0.04
-1.2117339161119904
% V (V) @ t=0.04
0.0063937341753267435
% es.normE (V/m) @ t=0.06
1.2837270273041912
% es.EX (V/m) @ t=0.06
-0.382960534171396
% es.EY (V/m) @ t=0.06
0.028606006398355123
% es.EZ (V/m) @ t=0.06
-1.222878797095972
% es.tEX (V/m) @ t=0.06
-0.3829605341713993
% es.tEY (V/m) @ t=0.06
0
% es.tEZ (V/m) @ t=0.06
-1.2228787970959822
% es.Ex (V/m) @ t=0.06
-0.382960534171396
% es.Ey (V/m) @ t=0.06
0.028606006398355123
% es.Ez (V/m) @ t=0.06
-1.222878797095972
% es.tEx (V/m) @ t=0.06
-0.3829605341713993
% es.tEy (V/m) @ t=0.06
0
% es.tEz (V/m) @ t=0.06
-1.2228787970959822
% V (V) @ t=0.06
0.0064525403244556434
% es.normE (V/m) @ t=0.08
1.295596349930358
% es.EX (V/m) @ t=0.08
-0.3865013821498492
% es.EY (V/m) @ t=0.08
0.028870497535105302
% es.EZ (V/m) @ t=0.08
-1.2341855177577568
% es.tEX (V/m) @ t=0.08
-0.3865013821498522
% es.tEY (V/m) @ t=0.08
0
% es.tEZ (V/m) @ t=0.08
-1.2341855177577683
% es.Ex (V/m) @ t=0.08
-0.3865013821498492
% es.Ey (V/m) @ t=0.08
0.028870497535105302
% es.Ez (V/m) @ t=0.08
-1.2341855177577568
% es.tEx (V/m) @ t=0.08
-0.3865013821498522
% es.tEy (V/m) @ t=0.08
0
% es.tEz (V/m) @ t=0.08
-1.2341855177577683
% V (V) @ t=0.08
0.006512200418119855
% es.normE (V/m) @ t=0.1
1.3076015270091066
% es.EX (V/m) @ t=0.1
-0.39008275818493243
% es.EY (V/m) @ t=0.1
0.029138016288207967
% es.EZ (V/m) @ t=0.1
-1.2456216533794024
% es.tEX (V/m) @ t=0.1
-0.3900827581849384
% es.tEY (V/m) @ t=0.1
0
% es.tEZ (V/m) @ t=0.1
-1.2456216533794127
% es.Ex (V/m) @ t=0.1
-0.39008275818493243
% es.Ey (V/m) @ t=0.1
0.029138016288207967
% es.Ez (V/m) @ t=0.1
-1.2456216533794024
% es.tEx (V/m) @ t=0.1
-0.3900827581849384
% es.tEy (V/m) @ t=0.1
0
% es.tEz (V/m) @ t=0.1
-1.2456216533794127
% V (V) @ t=0.1
0.006572543367800907
% es.normE (V/m) @ t=0.12
1.3196067040878414
% es.EX (V/m) @ t=0.12
-0.393664134220006
% es.EY (V/m) @ t=0.12
0.02940553504132669
% es.EZ (V/m) @ t=0.12
-1.2570577890010366
% es.tEX (V/m) @ t=0.12
-0.39366413422001045
% es.tEY (V/m) @ t=0.12
0
% es.tEZ (V/m) @ t=0.12
-1.257057789001049
% es.Ex (V/m) @ t=0.12
-0.393664134220006
% es.Ey (V/m) @ t=0.12
0.02940553504132669
% es.Ez (V/m) @ t=0.12
-1.2570577890010366
% es.tEx (V/m) @ t=0.12
-0.39366413422001045
% es.tEy (V/m) @ t=0.12
0
% es.tEz (V/m) @ t=0.12
-1.257057789001049
% V (V) @ t=0.12
0.006632886317481959
% es.normE (V/m) @ t=0.14
1.3316904836351902
% es.EX (V/m) @ t=0.14
-0.3972689588620225
% es.EY (V/m) @ t=0.14
0.029674805213501007
% es.EZ (V/m) @ t=0.14
-1.2685688013773704
% es.tEX (V/m) @ t=0.14
-0.39726895886202485
% es.tEY (V/m) @ t=0.14
0
% es.tEZ (V/m) @ t=0.14
-1.2685688013773762
% es.Ex (V/m) @ t=0.14
-0.3972689588620225
% es.Ey (V/m) @ t=0.14
0.029674805213501007
% es.Ez (V/m) @ t=0.14
-1.2685688013773704
% es.tEx (V/m) @ t=0.14
-0.39726895886202485
% es.tEy (V/m) @ t=0.14
0
% es.tEz (V/m) @ t=0.14
-1.2685688013773762
% V (V) @ t=0.14
0.0066936243574249755
% es.normE (V/m) @ t=0.16
1.344343185736077
% es.EX (V/m) @ t=0.16
-0.4010435038903911
% es.EY (V/m) @ t=0.16
0.029956752109723733
% es.EZ (V/m) @ t=0.16
-1.2806217696901352
% es.tEX (V/m) @ t=0.16
-0.4010435038903921
% es.tEY (V/m) @ t=0.16
0
% es.tEZ (V/m) @ t=0.16
-1.2806217696901516
% es.Ex (V/m) @ t=0.16
-0.4010435038903911
% es.Ey (V/m) @ t=0.16
0.029956752109723733
% es.Ez (V/m) @ t=0.16
-1.2806217696901352
% es.tEx (V/m) @ t=0.16
-0.4010435038903921
% es.tEy (V/m) @ t=0.16
0
% es.tEz (V/m) @ t=0.16
-1.2806217696901516
% V (V) @ t=0.16
0.006757222050057466
% es.normE (V/m) @ t=0.18
1.3569958878369626
% es.EX (V/m) @ t=0.18
-0.4048180489187455
% es.EY (V/m) @ t=0.18
0.030238699005983007
% es.EZ (V/m) @ t=0.18
-1.292674738002904
% es.tEX (V/m) @ t=0.18
-0.40481804891874873
% es.tEY (V/m) @ t=0.18
0
% es.tEZ (V/m) @ t=0.18
-1.2926747380029182
% es.Ex (V/m) @ t=0.18
-0.4048180489187455
% es.Ey (V/m) @ t=0.18
0.030238699005983007
% es.Ez (V/m) @ t=0.18
-1.292674738002904
% es.tEx (V/m) @ t=0.18
-0.40481804891874873
% es.tEy (V/m) @ t=0.18
0
% es.tEz (V/m) @ t=0.18
-1.2926747380029182
% V (V) @ t=0.18
0.006820819742689956
% es.normE (V/m) @ t=0.2
1.369648589937866
% es.EX (V/m) @ t=0.2
-0.40859259394711234
% es.EY (V/m) @ t=0.2
0.03052064590221821
% es.EZ (V/m) @ t=0.2
-1.304727706315687
% es.tEX (V/m) @ t=0.2
-0.408592593947116
% es.tEY (V/m) @ t=0.2
0
% es.tEZ (V/m) @ t=0.2
-1.304727706315707
% es.Ex (V/m) @ t=0.2
-0.40859259394711234
% es.Ey (V/m) @ t=0.2
0.03052064590221821
% es.Ez (V/m) @ t=0.2
-1.304727706315687
% es.tEx (V/m) @ t=0.2
-0.408592593947116
% es.tEy (V/m) @ t=0.2
0
% es.tEz (V/m) @ t=0.2
-1.304727706315707
% V (V) @ t=0.2
0.006884417435322445
% es.normE (V/m) @ t=0.22
1.382301292038768
% es.EX (V/m) @ t=0.22
-0.4123671389754747
% es.EY (V/m) @ t=0.22
0.03080259279844462
% es.EZ (V/m) @ t=0.22
-1.31678067462847
% es.tEX (V/m) @ t=0.22
-0.41236713897548327
% es.tEY (V/m) @ t=0.22
0
% es.tEZ (V/m) @ t=0.22
-1.3167806746284825
% es.Ex (V/m) @ t=0.22
-0.4123671389754747
% es.Ey (V/m) @ t=0.22
0.03080259279844462
% es.Ez (V/m) @ t=0.22
-1.31678067462847
% es.tEx (V/m) @ t=0.22
-0.41236713897548327
% es.tEy (V/m) @ t=0.22
0
% es.tEz (V/m) @ t=0.22
-1.3167806746284825
% V (V) @ t=0.22
0.006948015127954936
% es.normE (V/m) @ t=0.24
1.3949539941396631
% es.EX (V/m) @ t=0.24
-0.416141684003837
% es.EY (V/m) @ t=0.24
0.03108453969470113
% es.EZ (V/m) @ t=0.24
-1.328833642941246
% es.tEX (V/m) @ t=0.24
-0.4161416840038399
% es.tEY (V/m) @ t=0.24
0
% es.tEZ (V/m) @ t=0.24
-1.3288336429412642
% es.Ex (V/m) @ t=0.24
-0.416141684003837
% es.Ey (V/m) @ t=0.24
0.03108453969470113
% es.Ez (V/m) @ t=0.24
-1.328833642941246
% es.tEx (V/m) @ t=0.24
-0.4161416840038399
% es.tEy (V/m) @ t=0.24
0
% es.tEz (V/m) @ t=0.24
-1.3288336429412642
% V (V) @ t=0.24
0.007011612820587426
% es.normE (V/m) @ t=0.26
1.4076066962405598
% es.EX (V/m) @ t=0.26
-0.4199162290322038
% es.EY (V/m) @ t=0.26
0.03136648659094344
% es.EZ (V/m) @ t=0.26
-1.3408866112540219
% es.tEX (V/m) @ t=0.26
-0.41991622903220716
% es.tEY (V/m) @ t=0.26
0
% es.tEZ (V/m) @ t=0.26
-1.3408866112540387
% es.Ex (V/m) @ t=0.26
-0.4199162290322038
% es.Ey (V/m) @ t=0.26
0.03136648659094344
% es.Ez (V/m) @ t=0.26
-1.3408866112540219
% es.tEx (V/m) @ t=0.26
-0.41991622903220716
% es.tEy (V/m) @ t=0.26
0
% es.tEz (V/m) @ t=0.26
-1.3408866112540387
% V (V) @ t=0.26
0.007075210513219916
% es.normE (V/m) @ t=0.28
1.420628051728737
% es.EX (V/m) @ t=0.28
-0.423800750663084
% es.EY (V/m) @ t=0.28
0.031656649573506224
% es.EZ (V/m) @ t=0.28
-1.3532907587739027
% es.tEX (V/m) @ t=0.28
-0.42380075066309075
% es.tEY (V/m) @ t=0.28
0
% es.tEZ (V/m) @ t=0.28
-1.3532907587739276
% es.Ex (V/m) @ t=0.28
-0.423800750663084
% es.Ey (V/m) @ t=0.28
0.031656649573506224
% es.Ez (V/m) @ t=0.28
-1.3532907587739027
% es.tEx (V/m) @ t=0.28
-0.42380075066309075
% es.tEy (V/m) @ t=0.28
0
% es.tEz (V/m) @ t=0.28
-1.3532907587739276
% V (V) @ t=0.28
0.007140661178937492
% es.normE (V/m) @ t=0.3
1.4347388067108833
% es.EX (V/m) @ t=0.3
-0.42801026172648704
% es.EY (V/m) @ t=0.3
0.03197109173158023
% es.EZ (V/m) @ t=0.3
-1.366732668223313
% es.tEX (V/m) @ t=0.3
-0.42801026172648804
% es.tEY (V/m) @ t=0.3
0
% es.tEZ (V/m) @ t=0.3
-1.3667326682233218
% es.Ex (V/m) @ t=0.3
-0.42801026172648704
% es.Ey (V/m) @ t=0.3
0.03197109173158023
% es.Ez (V/m) @ t=0.3
-1.366732668223313
% es.tEx (V/m) @ t=0.3
-0.42801026172648804
% es.tEy (V/m) @ t=0.3
0
% es.tEz (V/m) @ t=0.3
-1.3667326682233218
% V (V) @ t=0.3
0.0072115875245506
% es.normE (V/m) @ t=0.32
1.4488495616930188
% es.EX (V/m) @ t=0.32
-0.43221977278989904
% es.EY (V/m) @ t=0.32
0.03228553388965227
% es.EZ (V/m) @ t=0.32
-1.380174577672709
% es.tEX (V/m) @ t=0.32
-0.43221977278989954
% es.tEY (V/m) @ t=0.32
0
% es.tEZ (V/m) @ t=0.32
-1.3801745776727241
% es.Ex (V/m) @ t=0.32
-0.43221977278989904
% es.Ey (V/m) @ t=0.32
0.03228553388965227
% es.Ez (V/m) @ t=0.32
-1.380174577672709
% es.tEx (V/m) @ t=0.32
-0.43221977278989954
% es.tEy (V/m) @ t=0.32
0
% es.tEz (V/m) @ t=0.32
-1.3801745776727241
% V (V) @ t=0.32
0.007282513870163708
% es.normE (V/m) @ t=0.34
1.4629603166751592
% es.EX (V/m) @ t=0.34
-0.43642928385330204
% es.EY (V/m) @ t=0.34
0.03259997604772697
% es.EZ (V/m) @ t=0.34
-1.3936164871221126
% es.tEX (V/m) @ t=0.34
-0.4364292838533075
% es.tEY (V/m) @ t=0.34
0
% es.tEZ (V/m) @ t=0.34
-1.3936164871221255
% es.Ex (V/m) @ t=0.34
-0.43642928385330204
% es.Ey (V/m) @ t=0.34
0.03259997604772697
% es.Ez (V/m) @ t=0.34
-1.3936164871221126
% es.tEx (V/m) @ t=0.34
-0.4364292838533075
% es.tEy (V/m) @ t=0.34
0
% es.tEz (V/m) @ t=0.34
-1.3936164871221255
% V (V) @ t=0.34
0.007353440215776816
% es.normE (V/m) @ t=0.36
1.4770710716573054
% es.EX (V/m) @ t=0.36
-0.4406387949167069
% es.EY (V/m) @ t=0.36
0.032914418205785875
% es.EZ (V/m) @ t=0.36
-1.4070583965715229
% es.tEX (V/m) @ t=0.36
-0.4406387949167083
% es.tEY (V/m) @ t=0.36
0
% es.tEZ (V/m) @ t=0.36
-1.407058396571526
% es.Ex (V/m) @ t=0.36
-0.4406387949167069
% es.Ey (V/m) @ t=0.36
0.032914418205785875
% es.Ez (V/m) @ t=0.36
-1.4070583965715229
% es.tEx (V/m) @ t=0.36
-0.4406387949167083
% es.tEy (V/m) @ t=0.36
0
% es.tEz (V/m) @ t=0.36
-1.407058396571526
% V (V) @ t=0.36
0.007424366561389924
% es.normE (V/m) @ t=0.38
1.49118182663944
% es.EX (V/m) @ t=0.38
-0.4448483059801154
% es.EY (V/m) @ t=0.38
0.03322886036386764
% es.EZ (V/m) @ t=0.38
-1.4205003060209185
% es.tEX (V/m) @ t=0.38
-0.44484830598012337
% es.tEY (V/m) @ t=0.38
0
% es.tEZ (V/m) @ t=0.38
-1.4205003060209345
% es.Ex (V/m) @ t=0.38
-0.4448483059801154
% es.Ey (V/m) @ t=0.38
0.03322886036386764
% es.Ez (V/m) @ t=0.38
-1.4205003060209185
% es.tEx (V/m) @ t=0.38
-0.44484830598012337
% es.tEy (V/m) @ t=0.38
0
% es.tEz (V/m) @ t=0.38
-1.4205003060209345
% V (V) @ t=0.38
0.0074952929070030315
% es.normE (V/m) @ t=0.4
1.505292581621573
% es.EX (V/m) @ t=0.4
-0.44905781704351755
% es.EY (V/m) @ t=0.4
0.03354330252193432
% es.EZ (V/m) @ t=0.4
-1.4339422154703145
% es.tEX (V/m) @ t=0.4
-0.44905781704352066
% es.tEY (V/m) @ t=0.4
0
% es.tEZ (V/m) @ t=0.4
-1.4339422154703296
% es.Ex (V/m) @ t=0.4
-0.44905781704351755
% es.Ey (V/m) @ t=0.4
0.03354330252193432
% es.Ez (V/m) @ t=0.4
-1.4339422154703145
% es.tEx (V/m) @ t=0.4
-0.44905781704352066
% es.tEy (V/m) @ t=0.4
0
% es.tEz (V/m) @ t=0.4
-1.4339422154703296
% V (V) @ t=0.4
0.007566219252616141
% es.normE (V/m) @ t=0.42
1.51940333660372
% es.EX (V/m) @ t=0.42
-0.45326732810692516
% es.EY (V/m) @ t=0.42
0.033857744680010134
% es.EZ (V/m) @ t=0.42
-1.4473841249197248
% es.tEX (V/m) @ t=0.42
-0.4532673281069286
% es.tEY (V/m) @ t=0.42
0
% es.tEZ (V/m) @ t=0.42
-1.447384124919731
% es.Ex (V/m) @ t=0.42
-0.45326732810692516
% es.Ey (V/m) @ t=0.42
0.033857744680010134
% es.Ez (V/m) @ t=0.42
-1.4473841249197248
% es.tEx (V/m) @ t=0.42
-0.4532673281069286
% es.tEy (V/m) @ t=0.42
0
% es.tEz (V/m) @ t=0.42
-1.447384124919731
% V (V) @ t=0.42
0.007637145598229248
% es.normE (V/m) @ t=0.44
1.533514091585853
% es.EX (V/m) @ t=0.44
-0.45747683917032633
% es.EY (V/m) @ t=0.44
0.0341721868380804
% es.EZ (V/m) @ t=0.44
-1.4608260343691213
% es.tEX (V/m) @ t=0.44
-0.45747683917032944
% es.tEY (V/m) @ t=0.44
0
% es.tEZ (V/m) @ t=0.44
-1.4608260343691324
% es.Ex (V/m) @ t=0.44
-0.45747683917032633
% es.Ey (V/m) @ t=0.44
0.0341721868380804
% es.Ez (V/m) @ t=0.44
-1.4608260343691213
% es.tEx (V/m) @ t=0.44
-0.45747683917032944
% es.tEy (V/m) @ t=0.44
0
% es.tEz (V/m) @ t=0.44
-1.4608260343691324
% V (V) @ t=0.44
0.0077080719438423545
% es.normE (V/m) @ t=0.46
1.5476248465679865
% es.EX (V/m) @ t=0.46
-0.46168635023373306
% es.EY (V/m) @ t=0.46
0.03448662899614529
% es.EZ (V/m) @ t=0.46
-1.474267943818517
% es.tEX (V/m) @ t=0.46
-0.4616863502337374
% es.tEY (V/m) @ t=0.46
0
% es.tEZ (V/m) @ t=0.46
-1.4742679438185338
% es.Ex (V/m) @ t=0.46
-0.46168635023373306
% es.Ey (V/m) @ t=0.46
0.03448662899614529
% es.Ez (V/m) @ t=0.46
-1.474267943818517
% es.tEx (V/m) @ t=0.46
-0.4616863502337374
% es.tEy (V/m) @ t=0.46
0
% es.tEz (V/m) @ t=0.46
-1.4742679438185338
% V (V) @ t=0.46
0.007778998289455463
% es.normE (V/m) @ t=0.48
1.5617356015501282
% es.EX (V/m) @ t=0.48
-0.46589586129714333
% es.EY (V/m) @ t=0.48
0.03480107115422729
% es.EZ (V/m) @ t=0.48
-1.48770985326792
% es.tEX (V/m) @ t=0.48
-0.4658958612971489
% es.tEY (V/m) @ t=0.48
0
% es.tEZ (V/m) @ t=0.48
-1.4877098532679351
% es.Ex (V/m) @ t=0.48
-0.46589586129714333
% es.Ey (V/m) @ t=0.48
0.03480107115422729
% es.Ez (V/m) @ t=0.48
-1.48770985326792
% es.tEx (V/m) @ t=0.48
-0.4658958612971489
% es.tEy (V/m) @ t=0.48
0
% es.tEz (V/m) @ t=0.48
-1.4877098532679351
% V (V) @ t=0.48
0.007849924635068572
% es.normE (V/m) @ t=0.5
1.575846356532254
% es.EX (V/m) @ t=0.5
-0.47010537236054456
% es.EY (V/m) @ t=0.5
0.03511551331230019
% es.EZ (V/m) @ t=0.5
-1.501151762717309
% es.tEX (V/m) @ t=0.5
-0.4701053723605497
% es.tEY (V/m) @ t=0.5
0
% es.tEZ (V/m) @ t=0.5
-1.5011517627173294
% es.Ex (V/m) @ t=0.5
-0.47010537236054456
% es.Ey (V/m) @ t=0.5
0.03511551331230019
% es.Ez (V/m) @ t=0.5
-1.501151762717309
% es.tEx (V/m) @ t=0.5
-0.4701053723605497
% es.tEy (V/m) @ t=0.5
0
% es.tEz (V/m) @ t=0.5
-1.5011517627173294
% V (V) @ t=0.5
0.00792085098068168
% es.normE (V/m) @ t=0.52
1.589957111514395
% es.EX (V/m) @ t=0.52
-0.47431488342394845
% es.EY (V/m) @ t=0.52
0.03542995547036956
% es.EZ (V/m) @ t=0.52
-1.5145936721667126
% es.tEX (V/m) @ t=0.52
-0.47431488342395767
% es.tEY (V/m) @ t=0.52
0
% es.tEZ (V/m) @ t=0.52
-1.5145936721667246
% es.Ex (V/m) @ t=0.52
-0.47431488342394845
% es.Ey (V/m) @ t=0.52
0.03542995547036956
% es.Ez (V/m) @ t=0.52
-1.5145936721667126
% es.tEx (V/m) @ t=0.52
-0.47431488342395767
% es.tEy (V/m) @ t=0.52
0
% es.tEz (V/m) @ t=0.52
-1.5145936721667246
% V (V) @ t=0.52
0.007991777326294788
% es.normE (V/m) @ t=0.54
1.6040678664965347
% es.EX (V/m) @ t=0.54
-0.4785243944873553
% es.EY (V/m) @ t=0.54
0.03574439762844085
% es.EZ (V/m) @ t=0.54
-1.5280355816161149
% es.tEX (V/m) @ t=0.54
-0.47852439448736206
% es.tEY (V/m) @ t=0.54
0
% es.tEZ (V/m) @ t=0.54
-1.528035581616133
% es.Ex (V/m) @ t=0.54
-0.4785243944873553
% es.Ey (V/m) @ t=0.54
0.03574439762844085
% es.Ez (V/m) @ t=0.54
-1.5280355816161149
% es.tEx (V/m) @ t=0.54
-0.47852439448736206
% es.tEy (V/m) @ t=0.54
0
% es.tEz (V/m) @ t=0.54
-1.528035581616133
% V (V) @ t=0.54
0.008062703671907895
% es.normE (V/m) @ t=0.56
1.6190322536322528
% es.EX (V/m) @ t=0.56
-0.4829885602270567
% es.EY (V/m) @ t=0.56
0.03607785997609523
% es.EZ (V/m) @ t=0.56
-1.5422906615355383
% es.tEX (V/m) @ t=0.56
-0.48298856022706005
% es.tEY (V/m) @ t=0.56
0
% es.tEZ (V/m) @ t=0.56
-1.5422906615355556
% es.Ex (V/m) @ t=0.56
-0.4829885602270567
% es.Ey (V/m) @ t=0.56
0.03607785997609523
% es.Ez (V/m) @ t=0.56
-1.5422906615355383
% es.tEx (V/m) @ t=0.56
-0.48298856022706005
% es.tEy (V/m) @ t=0.56
0
% es.tEz (V/m) @ t=0.56
-1.5422906615355556
% V (V) @ t=0.56
0.00813792077128127
% es.normE (V/m) @ t=0.58
1.634798167245702
% es.EX (V/m) @ t=0.58
-0.48769183653079085
% es.EY (V/m) @ t=0.58
0.036429181521651824
% es.EZ (V/m) @ t=0.58
-1.5573092760288425
% es.tEX (V/m) @ t=0.58
-0.4876918365307965
% es.tEY (V/m) @ t=0.58
0
% es.tEZ (V/m) @ t=0.58
-1.5573092760288443
% es.Ex (V/m) @ t=0.58
-0.48769183653079085
% es.Ey (V/m) @ t=0.58
0.036429181521651824
% es.Ez (V/m) @ t=0.58
-1.5573092760288425
% es.tEx (V/m) @ t=0.58
-0.4876918365307965
% es.tEy (V/m) @ t=0.58
0
% es.tEz (V/m) @ t=0.58
-1.5573092760288443
% V (V) @ t=0.58
0.008217166716960102
% es.normE (V/m) @ t=0.6
1.6505640808591169
% es.EX (V/m) @ t=0.6
-0.4923951128345261
% es.EY (V/m) @ t=0.6
0.03678050306720658
% es.EZ (V/m) @ t=0.6
-1.5723278905221107
% es.tEX (V/m) @ t=0.6
-0.4923951128345294
% es.tEY (V/m) @ t=0.6
0
% es.tEZ (V/m) @ t=0.6
-1.5723278905221347
% es.Ex (V/m) @ t=0.6
-0.4923951128345261
% es.Ey (V/m) @ t=0.6
0.03678050306720658
% es.Ez (V/m) @ t=0.6
-1.5723278905221107
% es.tEx (V/m) @ t=0.6
-0.4923951128345294
% es.tEy (V/m) @ t=0.6
0
% es.tEz (V/m) @ t=0.6
-1.5723278905221347
% V (V) @ t=0.6
0.008296412662638935
% es.normE (V/m) @ t=0.62
1.6663299944725525
% es.EX (V/m) @ t=0.62
-0.49709838913826304
% es.EY (V/m) @ t=0.62
0.037131824612757804
% es.EZ (V/m) @ t=0.62
-1.5873465050154003
% es.tEX (V/m) @ t=0.62
-0.4970983891382694
% es.tEY (V/m) @ t=0.62
0
% es.tEZ (V/m) @ t=0.62
-1.58734650501541
% es.Ex (V/m) @ t=0.62
-0.49709838913826304
% es.Ey (V/m) @ t=0.62
0.037131824612757804
% es.Ez (V/m) @ t=0.62
-1.5873465050154003
% es.tEx (V/m) @ t=0.62
-0.4970983891382694
% es.tEy (V/m) @ t=0.62
0
% es.tEz (V/m) @ t=0.62
-1.58734650501541
% V (V) @ t=0.62
0.008375658608317767
% es.normE (V/m) @ t=0.64
1.6820959080859812
% es.EX (V/m) @ t=0.64
-0.5018016654420027
% es.EY (V/m) @ t=0.64
0.03748314615830723
% es.EZ (V/m) @ t=0.64
-1.6023651195086823
% es.tEX (V/m) @ t=0.64
-0.5018016654420059
% es.tEY (V/m) @ t=0.64
0
% es.tEZ (V/m) @ t=0.64
-1.6023651195087005
% es.Ex (V/m) @ t=0.64
-0.5018016654420027
% es.Ey (V/m) @ t=0.64
0.03748314615830723
% es.Ez (V/m) @ t=0.64
-1.6023651195086823
% es.tEx (V/m) @ t=0.64
-0.5018016654420059
% es.tEy (V/m) @ t=0.64
0
% es.tEz (V/m) @ t=0.64
-1.6023651195087005
% V (V) @ t=0.64
0.008454904553996594
% es.normE (V/m) @ t=0.66
1.6978618216994033
% es.EX (V/m) @ t=0.66
-0.506504941745737
% es.EY (V/m) @ t=0.66
0.03783446770386223
% es.EZ (V/m) @ t=0.66
-1.6173837340019577
% es.tEX (V/m) @ t=0.66
-0.5065049417457423
% es.tEY (V/m) @ t=0.66
0
% es.tEZ (V/m) @ t=0.66
-1.6173837340019617
% es.Ex (V/m) @ t=0.66
-0.506504941745737
% es.Ey (V/m) @ t=0.66
0.03783446770386223
% es.Ez (V/m) @ t=0.66
-1.6173837340019577
% es.tEx (V/m) @ t=0.66
-0.5065049417457423
% es.tEy (V/m) @ t=0.66
0
% es.tEz (V/m) @ t=0.66
-1.6173837340019617
% V (V) @ t=0.66
0.008534150499675429
% es.normE (V/m) @ t=0.68
1.7136277353128304
% es.EX (V/m) @ t=0.68
-0.5112082180494686
% es.EY (V/m) @ t=0.68
0.038185789249422536
% es.EZ (V/m) @ t=0.68
-1.6324023484952401
% es.tEX (V/m) @ t=0.68
-0.5112082180494752
% es.tEY (V/m) @ t=0.68
0
% es.tEZ (V/m) @ t=0.68
-1.6324023484952574
% es.Ex (V/m) @ t=0.68
-0.5112082180494686
% es.Ey (V/m) @ t=0.68
0.038185789249422536
% es.Ez (V/m) @ t=0.68
-1.6324023484952401
% es.tEx (V/m) @ t=0.68
-0.5112082180494752
% es.tEy (V/m) @ t=0.68
0
% es.tEz (V/m) @ t=0.68
-1.6324023484952574
% V (V) @ t=0.68
0.00861339644535426
% es.normE (V/m) @ t=0.7
1.7293936489262667
% es.EX (V/m) @ t=0.7
-0.5159114943532064
% es.EY (V/m) @ t=0.7
0.038537110794980685
% es.EZ (V/m) @ t=0.7
-1.6474209629885301
% es.tEX (V/m) @ t=0.7
-0.5159114943532153
% es.tEY (V/m) @ t=0.7
0
% es.tEZ (V/m) @ t=0.7
-1.647420962988548
% es.Ex (V/m) @ t=0.7
-0.5159114943532064
% es.Ey (V/m) @ t=0.7
0.038537110794980685
% es.Ez (V/m) @ t=0.7
-1.6474209629885301
% es.tEx (V/m) @ t=0.7
-0.5159114943532153
% es.tEy (V/m) @ t=0.7
0
% es.tEz (V/m) @ t=0.7
-1.647420962988548
% V (V) @ t=0.7
0.008692642391033092
% es.normE (V/m) @ t=0.72
1.7451595625396958
% es.EX (V/m) @ t=0.72
-0.5206147706569442
% es.EY (V/m) @ t=0.72
0.0388884323405321
% es.EZ (V/m) @ t=0.72
-1.6624395774818126
% es.tEX (V/m) @ t=0.72
-0.5206147706569446
% es.tEY (V/m) @ t=0.72
0
% es.tEZ (V/m) @ t=0.72
-1.6624395774818232
% es.Ex (V/m) @ t=0.72
-0.5206147706569442
% es.Ey (V/m) @ t=0.72
0.0388884323405321
% es.Ez (V/m) @ t=0.72
-1.6624395774818126
% es.tEx (V/m) @ t=0.72
-0.5206147706569446
% es.tEy (V/m) @ t=0.72
0
% es.tEz (V/m) @ t=0.72
-1.6624395774818232
% V (V) @ t=0.72
0.00877188833671192
% es.normE (V/m) @ t=0.74
1.760925476153138
% es.EX (V/m) @ t=0.74
-0.5253180469606847
% es.EY (V/m) @ t=0.74
0.039239753886076006
% es.EZ (V/m) @ t=0.74
-1.6774581919751088
% es.tEX (V/m) @ t=0.74
-0.5253180469606846
% es.tEY (V/m) @ t=0.74
0
% es.tEZ (V/m) @ t=0.74
-1.6774581919751137
% es.Ex (V/m) @ t=0.74
-0.5253180469606847
% es.Ey (V/m) @ t=0.74
0.039239753886076006
% es.Ez (V/m) @ t=0.74
-1.6774581919751088
% es.tEx (V/m) @ t=0.74
-0.5253180469606846
% es.tEy (V/m) @ t=0.74
0
% es.tEz (V/m) @ t=0.74
-1.6774581919751137
% V (V) @ t=0.74
0.008851134282390753
% es.normE (V/m) @ t=0.76
1.7766913897665462
% es.EX (V/m) @ t=0.76
-0.5300213232644182
% es.EY (V/m) @ t=0.76
0.039591075431632754
% es.EZ (V/m) @ t=0.76
-1.69247680646837
% es.tEX (V/m) @ t=0.76
-0.5300213232644246
% es.tEY (V/m) @ t=0.76
0
% es.tEZ (V/m) @ t=0.76
-1.692476806468389
% es.Ex (V/m) @ t=0.76
-0.5300213232644182
% es.Ey (V/m) @ t=0.76
0.039591075431632754
% es.Ez (V/m) @ t=0.76
-1.69247680646837
% es.tEx (V/m) @ t=0.76
-0.5300213232644246
% es.tEy (V/m) @ t=0.76
0
% es.tEz (V/m) @ t=0.76
-1.692476806468389
% V (V) @ t=0.76
0.008930380228069586
% es.normE (V/m) @ t=0.78
1.7924573033799804
% es.EX (V/m) @ t=0.78
-0.5347245995681498
% es.EY (V/m) @ t=0.78
0.03994239697718928
% es.EZ (V/m) @ t=0.78
-1.7074954209616595
% es.tEX (V/m) @ t=0.78
-0.534724599568154
% es.tEY (V/m) @ t=0.78
0
% es.tEZ (V/m) @ t=0.78
-1.7074954209616715
% es.Ex (V/m) @ t=0.78
-0.5347245995681498
% es.Ey (V/m) @ t=0.78
0.03994239697718928
% es.Ez (V/m) @ t=0.78
-1.7074954209616595
% es.tEx (V/m) @ t=0.78
-0.534724599568154
% es.tEy (V/m) @ t=0.78
0
% es.tEz (V/m) @ t=0.78
-1.7074954209616715
% V (V) @ t=0.78
0.009009626173748416
% es.normE (V/m) @ t=0.8
1.8082232169933956
% es.EX (V/m) @ t=0.8
-0.539427875871885
% es.EY (V/m) @ t=0.8
0.040293718522749614
% es.EZ (V/m) @ t=0.8
-1.7225140354549273
% es.tEX (V/m) @ t=0.8
-0.5394278758718833
% es.tEY (V/m) @ t=0.8
0
% es.tEZ (V/m) @ t=0.8
-1.7225140354549398
% es.Ex (V/m) @ t=0.8
-0.539427875871885
% es.Ey (V/m) @ t=0.8
0.040293718522749614
% es.Ez (V/m) @ t=0.8
-1.7225140354549273
% es.tEx (V/m) @ t=0.8
-0.5394278758718833
% es.tEy (V/m) @ t=0.8
0
% es.tEz (V/m) @ t=0.8
-1.7225140354549398
% V (V) @ t=0.8
0.009088872119427249
% es.normE (V/m) @ t=0.82
1.8239891306068319
% es.EX (V/m) @ t=0.82
-0.5441311521756236
% es.EY (V/m) @ t=0.82
0.04064504006829886
% es.EZ (V/m) @ t=0.82
-1.7375326499482173
% es.tEX (V/m) @ t=0.82
-0.5441311521756269
% es.tEY (V/m) @ t=0.82
0
% es.tEZ (V/m) @ t=0.82
-1.7375326499482302
% es.Ex (V/m) @ t=0.82
-0.5441311521756236
% es.Ey (V/m) @ t=0.82
0.04064504006829886
% es.Ez (V/m) @ t=0.82
-1.7375326499482173
% es.tEx (V/m) @ t=0.82
-0.5441311521756269
% es.tEy (V/m) @ t=0.82
0
% es.tEz (V/m) @ t=0.82
-1.7375326499482302
% V (V) @ t=0.82
0.009168118065106083
% es.normE (V/m) @ t=0.84
1.8412206138138592
% es.EX (V/m) @ t=0.84
-0.5492716360332934
% es.EY (V/m) @ t=0.84
0.04102901918142224
% es.EZ (V/m) @ t=0.84
-1.7539473666018255
% es.tEX (V/m) @ t=0.84
-0.5492716360332963
% es.tEY (V/m) @ t=0.84
0
% es.tEZ (V/m) @ t=0.84
-1.7539473666018388
% es.Ex (V/m) @ t=0.84
-0.5492716360332934
% es.Ey (V/m) @ t=0.84
0.04102901918142224
% es.Ez (V/m) @ t=0.84
-1.7539473666018255
% es.tEx (V/m) @ t=0.84
-0.5492716360332963
% es.tEy (V/m) @ t=0.84
0
% es.tEz (V/m) @ t=0.84
-1.7539473666018388
% V (V) @ t=0.84
0.00925473058157078
% es.normE (V/m) @ t=0.86
1.858868741579879
% es.EX (V/m) @ t=0.86
-0.5545364129639856
% es.EY (V/m) @ t=0.86
0.04142228246494112
% es.EZ (V/m) @ t=0.86
-1.7707589790230798
% es.tEX (V/m) @ t=0.86
-0.5545364129639943
% es.tEY (V/m) @ t=0.86
0
% es.tEZ (V/m) @ t=0.86
-1.7707589790230998
% es.Ex (V/m) @ t=0.86
-0.5545364129639856
% es.Ey (V/m) @ t=0.86
0.04142228246494112
% es.Ez (V/m) @ t=0.86
-1.7707589790230798
% es.tEx (V/m) @ t=0.86
-0.5545364129639943
% es.tEy (V/m) @ t=0.86
0
% es.tEz (V/m) @ t=0.86
-1.7707589790230998
% V (V) @ t=0.86
0.00934343732928168
% es.normE (V/m) @ t=0.88
1.876516869345894
% es.EX (V/m) @ t=0.88
-0.5598011898946644
% es.EY (V/m) @ t=0.88
0.041815545748449576
% es.EZ (V/m) @ t=0.88
-1.7875705914443336
% es.tEX (V/m) @ t=0.88
-0.5598011898946638
% es.tEY (V/m) @ t=0.88
0
% es.tEZ (V/m) @ t=0.88
-1.7875705914443447
% es.Ex (V/m) @ t=0.88
-0.5598011898946644
% es.Ey (V/m) @ t=0.88
0.041815545748449576
% es.Ez (V/m) @ t=0.88
-1.7875705914443336
% es.tEx (V/m) @ t=0.88
-0.5598011898946638
% es.tEy (V/m) @ t=0.88
0
% es.tEz (V/m) @ t=0.88
-1.7875705914443447
% V (V) @ t=0.88
0.009432144076992579
% es.normE (V/m) @ t=0.9
1.8941649971119046
% es.EX (V/m) @ t=0.9
-0.565065966825344
% es.EY (V/m) @ t=0.9
0.04220880903196496
% es.EZ (V/m) @ t=0.9
-1.8043822038655812
% es.tEX (V/m) @ t=0.9
-0.5650659668253546
% es.tEY (V/m) @ t=0.9
0
% es.tEZ (V/m) @ t=0.9
-1.8043822038655977
% es.Ex (V/m) @ t=0.9
-0.565065966825344
% es.Ey (V/m) @ t=0.9
0.04220880903196496
% es.Ez (V/m) @ t=0.9
-1.8043822038655812
% es.tEx (V/m) @ t=0.9
-0.5650659668253546
% es.tEy (V/m) @ t=0.9
0
% es.tEz (V/m) @ t=0.9
-1.8043822038655977
% V (V) @ t=0.9
0.00952085082470348
% es.normE (V/m) @ t=0.92
1.9118131248779289
% es.EX (V/m) @ t=0.92
-0.5703307437560281
% es.EY (V/m) @ t=0.92
0.04260207231548056
% es.EZ (V/m) @ t=0.92
-1.821193816286843
% es.tEX (V/m) @ t=0.92
-0.5703307437560312
% es.tEY (V/m) @ t=0.92
0
% es.tEZ (V/m) @ t=0.92
-1.821193816286864
% es.Ex (V/m) @ t=0.92
-0.5703307437560281
% es.Ey (V/m) @ t=0.92
0.04260207231548056
% es.Ez (V/m) @ t=0.92
-1.821193816286843
% es.tEx (V/m) @ t=0.92
-0.5703307437560312
% es.tEy (V/m) @ t=0.92
0
% es.tEz (V/m) @ t=0.92
-1.821193816286864
% V (V) @ t=0.92
0.00960955757241438
% es.normE (V/m) @ t=0.94
1.9294612526439463
% es.EX (V/m) @ t=0.94
-0.5755955206867103
% es.EY (V/m) @ t=0.94
0.0429953355989995
% es.EZ (V/m) @ t=0.94
-1.8380054287080978
% es.tEX (V/m) @ t=0.94
-0.5755955206867185
% es.tEY (V/m) @ t=0.94
0
% es.tEZ (V/m) @ t=0.94
-1.8380054287081178
% es.Ex (V/m) @ t=0.94
-0.5755955206867103
% es.Ey (V/m) @ t=0.94
0.0429953355989995
% es.Ez (V/m) @ t=0.94
-1.8380054287080978
% es.tEx (V/m) @ t=0.94
-0.5755955206867185
% es.tEy (V/m) @ t=0.94
0
% es.tEz (V/m) @ t=0.94
-1.8380054287081178
% V (V) @ t=0.94
0.009698264320125282
% es.normE (V/m) @ t=0.96
1.9471093804099704
% es.EX (V/m) @ t=0.96
-0.5808602976173945
% es.EY (V/m) @ t=0.96
0.043388598882516824
% es.EZ (V/m) @ t=0.96
-1.8548170411293587
% es.tEX (V/m) @ t=0.96
-0.5808602976174022
% es.tEY (V/m) @ t=0.96
0
% es.tEZ (V/m) @ t=0.96
-1.8548170411293636
% es.Ex (V/m) @ t=0.96
-0.5808602976173945
% es.Ey (V/m) @ t=0.96
0.043388598882516824
% es.Ez (V/m) @ t=0.96
-1.8548170411293587
% es.tEx (V/m) @ t=0.96
-0.5808602976174022
% es.tEy (V/m) @ t=0.96
0
% es.tEz (V/m) @ t=0.96
-1.8548170411293636
% V (V) @ t=0.96
0.00978697106783618
% es.normE (V/m) @ t=0.98
1.9647575081759956
% es.EX (V/m) @ t=0.98
-0.5861250745480822
% es.EY (V/m) @ t=0.98
0.04378186216604642
% es.EZ (V/m) @ t=0.98
-1.8716286535506206
% es.tEX (V/m) @ t=0.98
-0.5861250745480859
% es.tEY (V/m) @ t=0.98
0
% es.tEZ (V/m) @ t=0.98
-1.8716286535506317
% es.Ex (V/m) @ t=0.98
-0.5861250745480822
% es.Ey (V/m) @ t=0.98
0.04378186216604642
% es.Ez (V/m) @ t=0.98
-1.8716286535506206
% es.tEx (V/m) @ t=0.98
-0.5861250745480859
% es.tEy (V/m) @ t=0.98
0
% es.tEz (V/m) @ t=0.98
-1.8716286535506317
% V (V) @ t=0.98
0.009875677815547079
% es.normE (V/m) @ t=1
1.9824056359420106
% es.EX (V/m) @ t=1
-0.5913898514787583
% es.EY (V/m) @ t=1
0.04417512544955998
% es.EZ (V/m) @ t=1
-1.8884402659718744
% es.tEX (V/m) @ t=1
-0.5913898514787661
% es.tEY (V/m) @ t=1
0
% es.tEZ (V/m) @ t=1
-1.88844026597189
% es.Ex (V/m) @ t=1
-0.5913898514787583
% es.Ey (V/m) @ t=1
0.04417512544955998
% es.Ez (V/m) @ t=1
-1.8884402659718744
% es.tEx (V/m) @ t=1
-0.5913898514787661
% es.tEy (V/m) @ t=1
0
% es.tEz (V/m) @ t=1
-1.88844026597189
% V (V) @ t=1
0.00996438456325798
% es.normE (V/m) @ t=1.02
2.0000537637080362
% es.EX (V/m) @ t=1.02
-0.5966546284094458
% es.EY (V/m) @ t=1.02
0.04456838873308602
% es.EZ (V/m) @ t=1.02
-1.9052518783931363
% es.tEX (V/m) @ t=1.02
-0.5966546284094463
% es.tEY (V/m) @ t=1.02
0
% es.tEZ (V/m) @ t=1.02
-1.9052518783931438
% es.Ex (V/m) @ t=1.02
-0.5966546284094458
% es.Ey (V/m) @ t=1.02
0.04456838873308602
% es.Ez (V/m) @ t=1.02
-1.9052518783931363
% es.tEx (V/m) @ t=1.02
-0.5966546284094463