% Model:              1 neuron.mph
% Version:            COMSOL 6.1.0.252
% Date:               Mar 18 2023, 11:33
% Dimension:          0
% Nodes:              14017
% Expressions:        14017
% Description:        Electric field norm, Electric field, X component, Electric field, Y component, Electric field, Z component, Tangential electric field, X component, Tangential electric field, Y component, Tangential electric field, Z component, Electric field, x component, Electric field, y component, Electric field, z component, Tangential electric field, x component, Tangential electric field, y component, Tangential electric field, z component, Electric potential
% Length unit:        mm
% x
1.33
% y
12.2
% z
2
% es.normE (V/m) @ t=0
1.4602285985574714
% es.EX (V/m) @ t=0
0.5819579831395532
% es.EY (V/m) @ t=0
0.1538590231489878
% es.EZ (V/m) @ t=0
-1.329202464615105
% es.tEX (V/m) @ t=0
0.5819579831395534
% es.tEY (V/m) @ t=0
0
% es.tEZ (V/m) @ t=0
-1.3292024646151077
% es.Ex (V/m) @ t=0
0.5819579831395532
% es.Ey (V/m) @ t=0
0.1538590231489878
% es.Ez (V/m) @ t=0
-1.329202464615105
% es.tEx (V/m) @ t=0
0.5819579831395534
% es.tEy (V/m) @ t=0
0
% es.tEz (V/m) @ t=0
-1.3292024646151077
% V (V) @ t=0
0.007301263580568558
% es.normE (V/m) @ t=0.02
1.2612130078646975
% es.EX (V/m) @ t=0.02
0.5026425171943658
% es.EY (V/m) @ t=0.02
0.13288946824041226
% es.EZ (V/m) @ t=0.02
-1.1480445185311225
% es.tEX (V/m) @ t=0.02
0.5026425171943623
% es.tEY (V/m) @ t=0.02
0
% es.tEZ (V/m) @ t=0.02
-1.1480445185311243
% es.Ex (V/m) @ t=0.02
0.5026425171943658
% es.Ey (V/m) @ t=0.02
0.13288946824041226
% es.Ez (V/m) @ t=0.02
-1.1480445185311225
% es.tEx (V/m) @ t=0.02
0.5026425171943623
% es.tEy (V/m) @ t=0.02
0
% es.tEz (V/m) @ t=0.02
-1.1480445185311243
% V (V) @ t=0.02
0.006306169151546441
% es.normE (V/m) @ t=0.04
1.2728117009920918
% es.EX (V/m) @ t=0.04
0.507265048329063
% es.EY (V/m) @ t=0.04
0.1341115811558855
% es.EZ (V/m) @ t=0.04
-1.1586024622790072
% es.tEX (V/m) @ t=0.04
0.5072650483290633
% es.tEY (V/m) @ t=0.04
0
% es.tEZ (V/m) @ t=0.04
-1.158602462279008
% es.Ex (V/m) @ t=0.04
0.507265048329063
% es.Ey (V/m) @ t=0.04
0.1341115811558855
% es.Ez (V/m) @ t=0.04
-1.1586024622790072
% es.tEx (V/m) @ t=0.04
0.5072650483290633
% es.tEy (V/m) @ t=0.04
0
% es.tEz (V/m) @ t=0.04
-1.158602462279008
% V (V) @ t=0.04
0.0063641635323596615
% es.normE (V/m) @ t=0.06
1.2845156965022495
% es.EX (V/m) @ t=0.06
0.5119295464563642
% es.EY (V/m) @ t=0.06
0.13534478869259248
% es.EZ (V/m) @ t=0.06
-1.1692562597369784
% es.tEX (V/m) @ t=0.06
0.5119295464563645
% es.tEY (V/m) @ t=0.06
0
% es.tEZ (V/m) @ t=0.06
-1.1692562597369829
% es.Ex (V/m) @ t=0.06
0.5119295464563642
% es.Ey (V/m) @ t=0.06
0.13534478869259248
% es.Ez (V/m) @ t=0.06
-1.1692562597369784
% es.tEx (V/m) @ t=0.06
0.5119295464563645
% es.tEy (V/m) @ t=0.06
0
% es.tEz (V/m) @ t=0.06
-1.1692562597369829
% V (V) @ t=0.06
0.00642268450482292
% es.normE (V/m) @ t=0.08
1.2963965728566942
% es.EX (V/m) @ t=0.08
0.5166645385049051
% es.EY (V/m) @ t=0.08
0.1365966336319775
% es.EZ (V/m) @ t=0.08
-1.1800710665292842
% es.tEX (V/m) @ t=0.08
0.5166645385049016
% es.tEY (V/m) @ t=0.08
0
% es.tEZ (V/m) @ t=0.08
-1.1800710665292886
% es.Ex (V/m) @ t=0.08
0.5166645385049051
% es.Ey (V/m) @ t=0.08
0.1365966336319775
% es.Ez (V/m) @ t=0.08
-1.1800710665292842
% es.tEx (V/m) @ t=0.08
0.5166645385049016
% es.tEy (V/m) @ t=0.08
0
% es.tEz (V/m) @ t=0.08
-1.1800710665292886
% V (V) @ t=0.08
0.006482089884940164
% es.normE (V/m) @ t=0.1
1.3084040134927997
% es.EX (V/m) @ t=0.1
0.5214499713602898
% es.EY (V/m) @ t=0.1
0.13786181426912192
% es.EZ (V/m) @ t=0.1
-1.191001080996135
% es.tEX (V/m) @ t=0.1
0.5214499713602865
% es.tEY (V/m) @ t=0.1
0
% es.tEZ (V/m) @ t=0.1
-1.191001080996136
% es.Ex (V/m) @ t=0.1
0.5214499713602898
% es.Ey (V/m) @ t=0.1
0.13786181426912192
% es.Ez (V/m) @ t=0.1
-1.191001080996135
% es.tEx (V/m) @ t=0.1
0.5214499713602865
% es.tEy (V/m) @ t=0.1
0
% es.tEz (V/m) @ t=0.1
-1.191001080996136
% V (V) @ t=0.1
0.006542128088921889
% es.normE (V/m) @ t=0.12
1.3204114541289005
% es.EX (V/m) @ t=0.12
0.5262354042156752
% es.EY (V/m) @ t=0.12
0.13912699490626856
% es.EZ (V/m) @ t=0.12
-1.2019310954629807
% es.tEX (V/m) @ t=0.12
0.5262354042156718
% es.tEY (V/m) @ t=0.12
0
% es.tEZ (V/m) @ t=0.12
-1.2019310954629816
% es.Ex (V/m) @ t=0.12
0.5262354042156752
% es.Ey (V/m) @ t=0.12
0.13912699490626856
% es.Ez (V/m) @ t=0.12
-1.2019310954629807
% es.tEx (V/m) @ t=0.12
0.5262354042156718
% es.tEy (V/m) @ t=0.12
0
% es.tEz (V/m) @ t=0.12
-1.2019310954629816
% V (V) @ t=0.12
0.006602166292903614
% es.normE (V/m) @ t=0.14
1.3325317798306668
% es.EX (V/m) @ t=0.14
0.531065826025207
% es.EY (V/m) @ t=0.14
0.14040406890308832
% es.EZ (V/m) @ t=0.14
-1.21296386595957
% es.tEX (V/m) @ t=0.14
0.5310658260252072
% es.tEY (V/m) @ t=0.14
0
% es.tEZ (V/m) @ t=0.14
-1.2129638659595727
% es.Ex (V/m) @ t=0.14
0.531065826025207
% es.Ey (V/m) @ t=0.14
0.14040406890308832
% es.Ez (V/m) @ t=0.14
-1.21296386595957
% es.tEx (V/m) @ t=0.14
0.5310658260252072
% es.tEy (V/m) @ t=0.14
0
% es.tEz (V/m) @ t=0.14
-1.2129638659595727
% V (V) @ t=0.14
0.006662769024567133
% es.normE (V/m) @ t=0.16
1.3451813446440586
% es.EX (V/m) @ t=0.16
0.5361071695717203
% es.EY (V/m) @ t=0.16
0.14173690254425875
% es.EZ (V/m) @ t=0.16
-1.2244783876034235
% es.tEX (V/m) @ t=0.16
0.5361071695717206
% es.tEY (V/m) @ t=0.16
0
% es.tEZ (V/m) @ t=0.16
-1.2244783876034262
% es.Ex (V/m) @ t=0.16
0.5361071695717203
% es.Ey (V/m) @ t=0.16
0.14173690254425875
% es.Ez (V/m) @ t=0.16
-1.2244783876034235
% es.tEx (V/m) @ t=0.16
0.5361071695717206
% es.tEy (V/m) @ t=0.16
0
% es.tEz (V/m) @ t=0.16
-1.2244783876034262
% V (V) @ t=0.16
0.006726018431652531
% es.normE (V/m) @ t=0.18
1.3578309094574412
% es.EX (V/m) @ t=0.18
0.541148513118219
% es.EY (V/m) @ t=0.18
0.1430697361854243
% es.EZ (V/m) @ t=0.18
-1.2359929092472735
% es.tEX (V/m) @ t=0.18
0.5411485131182192
% es.tEY (V/m) @ t=0.18
0
% es.tEZ (V/m) @ t=0.18
-1.235992909247278
% es.Ex (V/m) @ t=0.18
0.541148513118219
% es.Ey (V/m) @ t=0.18
0.1430697361854243
% es.Ez (V/m) @ t=0.18
-1.2359929092472735
% es.tEx (V/m) @ t=0.18
0.5411485131182192
% es.tEy (V/m) @ t=0.18
0
% es.tEz (V/m) @ t=0.18
-1.235992909247278
% V (V) @ t=0.18
0.0067892678387379305
% es.normE (V/m) @ t=0.2
1.3704804742708272
% es.EX (V/m) @ t=0.2
0.5461898566647145
% es.EY (V/m) @ t=0.2
0.14440256982659827
% es.EZ (V/m) @ t=0.2
-1.2475074308911278
% es.tEX (V/m) @ t=0.2
0.5461898566647112
% es.tEY (V/m) @ t=0.2
0
% es.tEZ (V/m) @ t=0.2
-1.2475074308911278
% es.Ex (V/m) @ t=0.2
0.5461898566647145
% es.Ey (V/m) @ t=0.2
0.14440256982659827
% es.Ez (V/m) @ t=0.2
-1.2475074308911278
% es.tEx (V/m) @ t=0.2
0.5461898566647112
% es.tEy (V/m) @ t=0.2
0
% es.tEz (V/m) @ t=0.2
-1.2475074308911278
% V (V) @ t=0.2
0.0068525172458233285
% es.normE (V/m) @ t=0.22
1.3831300390842145
% es.EX (V/m) @ t=0.22
0.5512312002112243
% es.EY (V/m) @ t=0.22
0.1457354034677456
% es.EZ (V/m) @ t=0.22
-1.2590219525349804
% es.tEX (V/m) @ t=0.22
0.5512312002112245
% es.tEY (V/m) @ t=0.22
0
% es.tEZ (V/m) @ t=0.22
-1.2590219525349866
% es.Ex (V/m) @ t=0.22
0.5512312002112243
% es.Ey (V/m) @ t=0.22
0.1457354034677456
% es.Ez (V/m) @ t=0.22
-1.2590219525349804
% es.tEx (V/m) @ t=0.22
0.5512312002112245
% es.tEy (V/m) @ t=0.22
0
% es.tEz (V/m) @ t=0.22
-1.2590219525349866
% V (V) @ t=0.22
0.006915766652908727
% es.normE (V/m) @ t=0.24
1.3957796038975965
% es.EX (V/m) @ t=0.24
0.5562725437577163
% es.EY (V/m) @ t=0.24
0.14706823710891825
% es.EZ (V/m) @ t=0.24
-1.270536474178832
% es.tEX (V/m) @ t=0.24
0.5562725437577165
% es.tEY (V/m) @ t=0.24
0
% es.tEZ (V/m) @ t=0.24
-1.2705364741788348
% es.Ex (V/m) @ t=0.24
0.5562725437577163
% es.Ey (V/m) @ t=0.24
0.14706823710891825
% es.Ez (V/m) @ t=0.24
-1.270536474178832
% es.tEx (V/m) @ t=0.24
0.5562725437577165
% es.tEy (V/m) @ t=0.24
0
% es.tEz (V/m) @ t=0.24
-1.2705364741788348
% V (V) @ t=0.24
0.006979016059994125
% es.normE (V/m) @ t=0.26
1.408429168710991
% es.EX (V/m) @ t=0.26
0.5613138873042296
% es.EY (V/m) @ t=0.26
0.14840107075008024
% es.EZ (V/m) @ t=0.26
-1.282050995822689
% es.tEX (V/m) @ t=0.26
0.5613138873042298
% es.tEY (V/m) @ t=0.26
0
% es.tEZ (V/m) @ t=0.26
-1.2820509958226918
% es.Ex (V/m) @ t=0.26
0.5613138873042296
% es.Ey (V/m) @ t=0.26
0.14840107075008024
% es.Ez (V/m) @ t=0.26
-1.282050995822689
% es.tEx (V/m) @ t=0.26
0.5613138873042298
% es.tEy (V/m) @ t=0.26
0
% es.tEz (V/m) @ t=0.26
-1.2820509958226918
% V (V) @ t=0.26
0.007042265467079526
% es.normE (V/m) @ t=0.28
1.4216013132020144
% es.EX (V/m) @ t=0.28
0.5665634624973086
% es.EY (V/m) @ t=0.28
0.14978872622475015
% es.EZ (V/m) @ t=0.28
-1.2940412389547165
% es.tEX (V/m) @ t=0.28
0.5665634624973088
% es.tEY (V/m) @ t=0.28
0
% es.tEZ (V/m) @ t=0.28
-1.2940412389547173
% es.Ex (V/m) @ t=0.28
0.5665634624973086
% es.Ey (V/m) @ t=0.28
0.14978872622475015
% es.Ez (V/m) @ t=0.28
-1.2940412389547165
% es.tEx (V/m) @ t=0.28
0.5665634624973088
% es.tEy (V/m) @ t=0.28
0
% es.tEz (V/m) @ t=0.28
-1.2940412389547173
% V (V) @ t=0.28
0.007108151860375677
% es.normE (V/m) @ t=0.3
1.43569614259704
% es.EX (V/m) @ t=0.3
0.5721806987475648
% es.EY (V/m) @ t=0.3
0.15127317704055
% es.EZ (V/m) @ t=0.3
-1.3068714325367923
% es.tEX (V/m) @ t=0.3
0.572180698747565
% es.tEY (V/m) @ t=0.3
0
% es.tEZ (V/m) @ t=0.3
-1.3068714325367985
% es.Ex (V/m) @ t=0.3
0.5721806987475648
% es.Ey (V/m) @ t=0.3
0.15127317704055
% es.Ez (V/m) @ t=0.3
-1.3068714325367923
% es.tEx (V/m) @ t=0.3
0.572180698747565
% es.tEy (V/m) @ t=0.3
0
% es.tEz (V/m) @ t=0.3
-1.3068714325367985
% V (V) @ t=0.3
0.007178694208489066
% es.normE (V/m) @ t=0.32
1.4497909719927384
% es.EX (V/m) @ t=0.32
0.5777979349978037
% es.EY (V/m) @ t=0.32
0.15275762785633162
% es.EZ (V/m) @ t=0.32
-1.3197016261188663
% es.tEX (V/m) @ t=0.32
0.5777979349978075
% es.tEY (V/m) @ t=0.32
0
% es.tEZ (V/m) @ t=0.32
-1.3197016261188708
% es.Ex (V/m) @ t=0.32
0.5777979349978037
% es.Ey (V/m) @ t=0.32
0.15275762785633162
% es.Ez (V/m) @ t=0.32
-1.3197016261188663
% es.tEx (V/m) @ t=0.32
0.5777979349978075
% es.tEy (V/m) @ t=0.32
0
% es.tEz (V/m) @ t=0.32
-1.3197016261188708
% V (V) @ t=0.32
0.007249236556602452
% es.normE (V/m) @ t=0.34
1.4638858013891094
% es.EX (V/m) @ t=0.34
0.5834151712480493
% es.EY (V/m) @ t=0.34
0.15424207867212925
% es.EZ (V/m) @ t=0.34
-1.332531819700944
% es.tEX (V/m) @ t=0.34
0.5834151712480495
% es.tEY (V/m) @ t=0.34
0
% es.tEZ (V/m) @ t=0.34
-1.3325318197009448
% es.Ex (V/m) @ t=0.34
0.5834151712480493
% es.Ey (V/m) @ t=0.34
0.15424207867212925
% es.Ez (V/m) @ t=0.34
-1.332531819700944
% es.tEx (V/m) @ t=0.34
0.5834151712480495
% es.tEy (V/m) @ t=0.34
0
% es.tEz (V/m) @ t=0.34
-1.3325318197009448
% V (V) @ t=0.34
0.007319778904715841
% es.normE (V/m) @ t=0.36
1.4779806307861367
% es.EX (V/m) @ t=0.36
0.5890324074983126
% es.EY (V/m) @ t=0.36
0.15572652948792065
% es.EZ (V/m) @ t=0.36
-1.3453620132830268
% es.tEX (V/m) @ t=0.36
0.5890324074983129
% es.tEY (V/m) @ t=0.36
0
% es.tEZ (V/m) @ t=0.36
-1.345362013283033
% es.Ex (V/m) @ t=0.36
0.5890324074983126
% es.Ey (V/m) @ t=0.36
0.15572652948792065
% es.Ez (V/m) @ t=0.36
-1.3453620132830268
% es.tEx (V/m) @ t=0.36
0.5890324074983129
% es.tEy (V/m) @ t=0.36
0
% es.tEz (V/m) @ t=0.36
-1.345362013283033
% V (V) @ t=0.36
0.007390321252829227
% es.normE (V/m) @ t=0.38
1.4920754601837771
% es.EX (V/m) @ t=0.38
0.5946496437485551
% es.EY (V/m) @ t=0.38
0.15721098030372183
% es.EZ (V/m) @ t=0.38
-1.3581922068651027
% es.tEX (V/m) @ t=0.38
0.5946496437485553
% es.tEY (V/m) @ t=0.38
0
% es.tEZ (V/m) @ t=0.38
-1.3581922068651036
% es.Ex (V/m) @ t=0.38
0.5946496437485551
% es.Ey (V/m) @ t=0.38
0.15721098030372183
% es.Ez (V/m) @ t=0.38
-1.3581922068651027
% es.tEx (V/m) @ t=0.38
0.5946496437485553
% es.tEy (V/m) @ t=0.38
0
% es.tEz (V/m) @ t=0.38
-1.3581922068651036
% V (V) @ t=0.38
0.007460863600942615
% es.normE (V/m) @ t=0.4
1.5061702895820317
% es.EX (V/m) @ t=0.4
0.6002668799987976
% es.EY (V/m) @ t=0.4
0.15869543111951057
% es.EZ (V/m) @ t=0.4
-1.3710224004471856
% es.tEX (V/m) @ t=0.4
0.6002668799987978
% es.tEY (V/m) @ t=0.4
0
% es.tEZ (V/m) @ t=0.4
-1.3710224004471865
% es.Ex (V/m) @ t=0.4
0.6002668799987976
% es.Ey (V/m) @ t=0.4
0.15869543111951057
% es.Ez (V/m) @ t=0.4
-1.3710224004471856
% es.tEx (V/m) @ t=0.4
0.6002668799987978
% es.tEy (V/m) @ t=0.4
0
% es.tEz (V/m) @ t=0.4
-1.3710224004471865
% V (V) @ t=0.4
0.0075314059490560045
% es.normE (V/m) @ t=0.42
1.5202651189808787
% es.EX (V/m) @ t=0.42
0.6058841162490467
% es.EY (V/m) @ t=0.42
0.1601798819353033
% es.EZ (V/m) @ t=0.42
-1.383852594029265
% es.tEX (V/m) @ t=0.42
0.6058841162490469
% es.tEY (V/m) @ t=0.42
0
% es.tEZ (V/m) @ t=0.42
-1.3838525940292676
% es.Ex (V/m) @ t=0.42
0.6058841162490467
% es.Ey (V/m) @ t=0.42
0.1601798819353033
% es.Ez (V/m) @ t=0.42
-1.383852594029265
% es.tEx (V/m) @ t=0.42
0.6058841162490469
% es.tEy (V/m) @ t=0.42
0
% es.tEz (V/m) @ t=0.42
-1.3838525940292676
% V (V) @ t=0.42
0.007601948297169392
% es.normE (V/m) @ t=0.44
1.5343599483803043
% es.EX (V/m) @ t=0.44
0.6115013524993034
% es.EY (V/m) @ t=0.44
0.1616643327510907
% es.EZ (V/m) @ t=0.44
-1.3966827876113443
% es.tEX (V/m) @ t=0.44
0.6115013524993036
% es.tEY (V/m) @ t=0.44
0
% es.tEZ (V/m) @ t=0.44
-1.3966827876113488
% es.Ex (V/m) @ t=0.44
0.6115013524993034
% es.Ey (V/m) @ t=0.44
0.1616643327510907
% es.Ez (V/m) @ t=0.44
-1.3966827876113443
% es.tEx (V/m) @ t=0.44
0.6115013524993036
% es.tEy (V/m) @ t=0.44
0
% es.tEz (V/m) @ t=0.44
-1.3966827876113488
% V (V) @ t=0.44
0.007672490645282779
% es.normE (V/m) @ t=0.46
1.5484547777802868
% es.EX (V/m) @ t=0.46
0.6171185887495529
% es.EY (V/m) @ t=0.46
0.16314878356688967
% es.EZ (V/m) @ t=0.46
-1.409512981193422
% es.tEX (V/m) @ t=0.46
0.6171185887495532
% es.tEY (V/m) @ t=0.46
0
% es.tEZ (V/m) @ t=0.46
-1.4095129811934264
% es.Ex (V/m) @ t=0.46
0.6171185887495529
% es.Ey (V/m) @ t=0.46
0.16314878356688967
% es.Ez (V/m) @ t=0.46
-1.409512981193422
% es.tEx (V/m) @ t=0.46
0.6171185887495532
% es.tEy (V/m) @ t=0.46
0
% es.tEz (V/m) @ t=0.46
-1.4095129811934264
% V (V) @ t=0.46
0.007743032993396169
% es.normE (V/m) @ t=0.48
1.5625496071808032
% es.EX (V/m) @ t=0.48
0.6227358249997914
% es.EY (V/m) @ t=0.48
0.1646332343826793
% es.EZ (V/m) @ t=0.48
-1.4223431747754924
% es.tEX (V/m) @ t=0.48
0.6227358249997881
% es.tEY (V/m) @ t=0.48
0
% es.tEZ (V/m) @ t=0.48
-1.4223431747754987
% es.Ex (V/m) @ t=0.48
0.6227358249997914
% es.Ey (V/m) @ t=0.48
0.1646332343826793
% es.Ez (V/m) @ t=0.48
-1.4223431747754924
% es.tEx (V/m) @ t=0.48
0.6227358249997881
% es.tEy (V/m) @ t=0.48
0
% es.tEz (V/m) @ t=0.48
-1.4223431747754987
% V (V) @ t=0.48
0.007813575341509556
% es.normE (V/m) @ t=0.5
1.5766444365818764
% es.EX (V/m) @ t=0.5
0.6283530612500512
% es.EY (V/m) @ t=0.5
0.1661176851984716
% es.EZ (V/m) @ t=0.5
-1.4351733683575825
% es.tEX (V/m) @ t=0.5
0.6283530612500514
% es.tEY (V/m) @ t=0.5
0
% es.tEZ (V/m) @ t=0.5
-1.4351733683575851
% es.Ex (V/m) @ t=0.5
0.6283530612500512
% es.Ey (V/m) @ t=0.5
0.1661176851984716
% es.Ez (V/m) @ t=0.5
-1.4351733683575825
% es.tEx (V/m) @ t=0.5
0.6283530612500514
% es.tEy (V/m) @ t=0.5
0
% es.tEz (V/m) @ t=0.5
-1.4351733683575851
% V (V) @ t=0.5
0.007884117689622943
% es.normE (V/m) @ t=0.52
1.590739265983454
% es.EX (V/m) @ t=0.52
0.6339702975003079
% es.EY (V/m) @ t=0.52
0.16760213601425722
% es.EZ (V/m) @ t=0.52
-1.4480035619396618
% es.tEX (V/m) @ t=0.52
0.6339702975003081
% es.tEY (V/m) @ t=0.52
0
% es.tEZ (V/m) @ t=0.52
-1.4480035619396663
% es.Ex (V/m) @ t=0.52
0.6339702975003079
% es.Ey (V/m) @ t=0.52
0.16760213601425722
% es.Ez (V/m) @ t=0.52
-1.4480035619396618
% es.tEx (V/m) @ t=0.52
0.6339702975003081
% es.tEy (V/m) @ t=0.52
0
% es.tEz (V/m) @ t=0.52
-1.4480035619396663
% V (V) @ t=0.52
0.007954660037736334
% es.normE (V/m) @ t=0.54
1.6048340953855318
% es.EX (V/m) @ t=0.54
0.6395875337505499
% es.EY (V/m) @ t=0.54
0.16908658683005662
% es.EZ (V/m) @ t=0.54
-1.460833755521743
% es.tEX (V/m) @ t=0.54
0.6395875337505501
% es.tEY (V/m) @ t=0.54
0
% es.tEZ (V/m) @ t=0.54
-1.4608337555217474
% es.Ex (V/m) @ t=0.54
0.6395875337505499
% es.Ey (V/m) @ t=0.54
0.16908658683005662
% es.Ez (V/m) @ t=0.54
-1.460833755521743
% es.tEx (V/m) @ t=0.54
0.6395875337505501
% es.tEy (V/m) @ t=0.54
0
% es.tEz (V/m) @ t=0.54
-1.4608337555217474
% V (V) @ t=0.54
0.008025202385849722
% es.normE (V/m) @ t=0.56
1.6201296136218981
% es.EX (V/m) @ t=0.56
0.6456833856207023
% es.EY (V/m) @ t=0.56
0.17069816769573043
% es.EZ (V/m) @ t=0.56
-1.4747568159545503
% es.tEX (V/m) @ t=0.56
0.6456833856207025
% es.tEY (V/m) @ t=0.56
0
% es.tEZ (V/m) @ t=0.56
-1.4747568159545548
% es.Ex (V/m) @ t=0.56
0.6456833856207023
% es.Ey (V/m) @ t=0.56
0.17069816769573043
% es.Ez (V/m) @ t=0.56
-1.4747568159545503
% es.tEx (V/m) @ t=0.56
0.6456833856207025
% es.tEy (V/m) @ t=0.56
0
% es.tEz (V/m) @ t=0.56
-1.4747568159545548
% V (V) @ t=0.56
0.008101686523335773
% es.normE (V/m) @ t=0.58
1.6358621709873944
% es.EX (V/m) @ t=0.58
0.6519534489499403
% es.EY (V/m) @ t=0.58
0.17235602267062733
% es.EZ (V/m) @ t=0.58
-1.4890776693567735
% es.tEX (V/m) @ t=0.58
0.6519534489499406
% es.tEY (V/m) @ t=0.58
0
% es.tEZ (V/m) @ t=0.58
-1.4890776693567762
% es.Ex (V/m) @ t=0.58
0.6519534489499403
% es.Ey (V/m) @ t=0.58
0.17235602267062733
% es.Ez (V/m) @ t=0.58
-1.4890776693567735
% es.tEx (V/m) @ t=0.58
0.6519534489499406
% es.tEy (V/m) @ t=0.58
0
% es.tEz (V/m) @ t=0.58
-1.4890776693567762
% V (V) @ t=0.58
0.008180333414716886
% es.normE (V/m) @ t=0.6
1.6515947283529913
% es.EX (V/m) @ t=0.6
0.6582235122791926
% es.EY (V/m) @ t=0.6
0.1740138776455291
% es.EZ (V/m) @ t=0.6
-1.5033985227590003
% es.tEX (V/m) @ t=0.6
0.6582235122791928
% es.tEY (V/m) @ t=0.6
0
% es.tEZ (V/m) @ t=0.6
-1.5033985227590048
% es.Ex (V/m) @ t=0.6
0.6582235122791926
% es.Ey (V/m) @ t=0.6
0.1740138776455291
% es.Ez (V/m) @ t=0.6
-1.5033985227590003
% es.tEx (V/m) @ t=0.6
0.6582235122791928
% es.tEy (V/m) @ t=0.6
0
% es.tEz (V/m) @ t=0.6
-1.5033985227590048
% V (V) @ t=0.6
0.008258980306098002
% es.normE (V/m) @ t=0.62
1.66732728571867
% es.EX (V/m) @ t=0.62
0.6644935756084307
% es.EY (V/m) @ t=0.62
0.17567173262043712
% es.EZ (V/m) @ t=0.62
-1.5177193761612253
% es.tEX (V/m) @ t=0.62
0.6644935756084309
% es.tEY (V/m) @ t=0.62
0
% es.tEZ (V/m) @ t=0.62
-1.5177193761612298
% es.Ex (V/m) @ t=0.62
0.6644935756084307
% es.Ey (V/m) @ t=0.62
0.17567173262043712
% es.Ez (V/m) @ t=0.62
-1.5177193761612253
% es.tEx (V/m) @ t=0.62
0.6644935756084309
% es.tEy (V/m) @ t=0.62
0
% es.tEz (V/m) @ t=0.62
-1.5177193761612298
% V (V) @ t=0.62
0.008337627197479117
% es.normE (V/m) @ t=0.64
1.6830598430844452
% es.EX (V/m) @ t=0.64
0.6707636389376825
% es.EY (V/m) @ t=0.64
0.17732958759534379
% es.EZ (V/m) @ t=0.64
-1.5320402295634556
% es.tEX (V/m) @ t=0.64
0.6707636389376828
% es.tEY (V/m) @ t=0.64
0
% es.tEZ (V/m) @ t=0.64
-1.53204022956346
% es.Ex (V/m) @ t=0.64
0.6707636389376825
% es.Ey (V/m) @ t=0.64
0.17732958759534379
% es.Ez (V/m) @ t=0.64
-1.5320402295634556
% es.tEx (V/m) @ t=0.64
0.6707636389376828
% es.tEy (V/m) @ t=0.64
0
% es.tEz (V/m) @ t=0.64
-1.53204022956346
% V (V) @ t=0.64
0.008416274088860231
% es.normE (V/m) @ t=0.66
1.6987924004502912
% es.EX (V/m) @ t=0.66
0.6770337022669246
% es.EY (V/m) @ t=0.66
0.1789874425702358
% es.EZ (V/m) @ t=0.66
-1.5463610829656789
% es.tEX (V/m) @ t=0.66
0.6770337022669213
% es.tEY (V/m) @ t=0.66
0
% es.tEZ (V/m) @ t=0.66
-1.5463610829656815
% es.Ex (V/m) @ t=0.66
0.6770337022669246
% es.Ey (V/m) @ t=0.66
0.1789874425702358
% es.Ez (V/m) @ t=0.66
-1.5463610829656789
% es.tEx (V/m) @ t=0.66
0.6770337022669213
% es.tEy (V/m) @ t=0.66
0
% es.tEz (V/m) @ t=0.66
-1.5463610829656815
% V (V) @ t=0.66
0.008494920980241348
% es.normE (V/m) @ t=0.68
1.714524957816237
% es.EX (V/m) @ t=0.68
0.6833037655961733
% es.EY (V/m) @ t=0.68
0.1806452975451438
% es.EZ (V/m) @ t=0.68
-1.5606819363679172
% es.tEX (V/m) @ t=0.68
0.6833037655961736
% es.tEY (V/m) @ t=0.68
0
% es.tEZ (V/m) @ t=0.68
-1.5606819363679207
% es.Ex (V/m) @ t=0.68
0.6833037655961733
% es.Ey (V/m) @ t=0.68
0.1806452975451438
% es.Ez (V/m) @ t=0.68
-1.5606819363679172
% es.tEx (V/m) @ t=0.68
0.6833037655961736
% es.tEy (V/m) @ t=0.68
0
% es.tEz (V/m) @ t=0.68
-1.5606819363679207
% V (V) @ t=0.68
0.008573567871622464
% es.normE (V/m) @ t=0.7
1.7302575151822466
% es.EX (V/m) @ t=0.7
0.6895738289254252
% es.EY (V/m) @ t=0.7
0.1823031525200487
% es.EZ (V/m) @ t=0.7
-1.5750027897701377
% es.tEX (V/m) @ t=0.7
0.6895738289254254
% es.tEY (V/m) @ t=0.7
0
% es.tEZ (V/m) @ t=0.7
-1.5750027897701386
% es.Ex (V/m) @ t=0.7
0.6895738289254252
% es.Ey (V/m) @ t=0.7
0.1823031525200487
% es.Ez (V/m) @ t=0.7
-1.5750027897701377
% es.tEx (V/m) @ t=0.7
0.6895738289254254
% es.tEy (V/m) @ t=0.7
0
% es.tEz (V/m) @ t=0.7
-1.5750027897701386
% V (V) @ t=0.7
0.00865221476300358
% es.normE (V/m) @ t=0.72
1.7459900725483328
% es.EX (V/m) @ t=0.72
0.6958438922546628
% es.EY (V/m) @ t=0.72
0.18396100749495048
% es.EZ (V/m) @ t=0.72
-1.5893236431723645
% es.tEX (V/m) @ t=0.72
0.695843892254663
% es.tEY (V/m) @ t=0.72
0
% es.tEZ (V/m) @ t=0.72
-1.5893236431723654
% es.Ex (V/m) @ t=0.72
0.6958438922546628
% es.Ey (V/m) @ t=0.72
0.18396100749495048
% es.Ez (V/m) @ t=0.72
-1.5893236431723645
% es.tEx (V/m) @ t=0.72
0.695843892254663
% es.tEy (V/m) @ t=0.72
0
% es.tEz (V/m) @ t=0.72
-1.5893236431723654
% V (V) @ t=0.72
0.008730861654384692
% es.normE (V/m) @ t=0.74
1.7617226299145088
% es.EX (V/m) @ t=0.74
0.7021139555839155
% es.EY (V/m) @ t=0.74
0.18561886246985626
% es.EZ (V/m) @ t=0.74
-1.6036444965746002
% es.tEX (V/m) @ t=0.74
0.7021139555839158
% es.tEY (V/m) @ t=0.74
0
% es.tEZ (V/m) @ t=0.74
-1.6036444965745975
% es.Ex (V/m) @ t=0.74
0.7021139555839155
% es.Ey (V/m) @ t=0.74
0.18561886246985626
% es.Ez (V/m) @ t=0.74
-1.6036444965746002
% es.tEx (V/m) @ t=0.74
0.7021139555839158
% es.tEy (V/m) @ t=0.74
0
% es.tEz (V/m) @ t=0.74
-1.6036444965745975
% V (V) @ t=0.74
0.008809508545765808
% es.normE (V/m) @ t=0.76
1.7774551872807405
% es.EX (V/m) @ t=0.76
0.7083840189131532
% es.EY (V/m) @ t=0.76
0.1872767174447616
% es.EZ (V/m) @ t=0.76
-1.6179653499768243
% es.tEX (V/m) @ t=0.76
0.7083840189131534
% es.tEY (V/m) @ t=0.76
0
% es.tEZ (V/m) @ t=0.76
-1.6179653499768243
% es.Ex (V/m) @ t=0.76
0.7083840189131532
% es.Ey (V/m) @ t=0.76
0.1872767174447616
% es.Ez (V/m) @ t=0.76
-1.6179653499768243
% es.tEx (V/m) @ t=0.76
0.7083840189131534
% es.tEy (V/m) @ t=0.76
0
% es.tEz (V/m) @ t=0.76
-1.6179653499768243
% V (V) @ t=0.76
0.008888155437146923
% es.normE (V/m) @ t=0.78
1.7931877446470488
% es.EX (V/m) @ t=0.78
0.714654082242409
% es.EY (V/m) @ t=0.78
0.18893457241966605
% es.EZ (V/m) @ t=0.78
-1.6322862033790466
% es.tEX (V/m) @ t=0.78
0.7146540822424128
% es.tEY (V/m) @ t=0.78
0
% es.tEZ (V/m) @ t=0.78
-1.632286203379044
% es.Ex (V/m) @ t=0.78
0.714654082242409
% es.Ey (V/m) @ t=0.78
0.18893457241966605
% es.Ez (V/m) @ t=0.78
-1.6322862033790466
% es.tEx (V/m) @ t=0.78
0.7146540822424128
% es.tEy (V/m) @ t=0.78
0
% es.tEz (V/m) @ t=0.78
-1.632286203379044
% V (V) @ t=0.78
0.00896680232852804
% es.normE (V/m) @ t=0.8
1.8089203020134326
% es.EX (V/m) @ t=0.8
0.7209241455716582
% es.EY (V/m) @ t=0.8
0.19059242739457538
% es.EZ (V/m) @ t=0.8
-1.6466070567812787
% es.tEX (V/m) @ t=0.8
0.7209241455716584
% es.tEY (V/m) @ t=0.8
0
% es.tEZ (V/m) @ t=0.8
-1.646607056781276
% es.Ex (V/m) @ t=0.8
0.7209241455716582
% es.Ey (V/m) @ t=0.8
0.19059242739457538
% es.Ez (V/m) @ t=0.8
-1.6466070567812787
% es.tEx (V/m) @ t=0.8
0.7209241455716584
% es.tEy (V/m) @ t=0.8
0
% es.tEz (V/m) @ t=0.8
-1.646607056781276
% V (V) @ t=0.8
0.009045449219909154
% es.normE (V/m) @ t=0.82
1.8248476751061473
% es.EX (V/m) @ t=0.82
0.7272718552867101
% es.EY (V/m) @ t=0.82
0.192270840440528
% es.EZ (V/m) @ t=0.82
-1.6611052408874274
% es.tEX (V/m) @ t=0.82
0.7272718552867068
% es.tEY (V/m) @ t=0.82
0
% es.tEZ (V/m) @ t=0.82
-1.6611052408874247
% es.Ex (V/m) @ t=0.82
0.7272718552867101
% es.Ey (V/m) @ t=0.82
0.192270840440528
% es.Ez (V/m) @ t=0.82
-1.6611052408874274
% es.tEx (V/m) @ t=0.82
0.7272718552867068
% es.tEy (V/m) @ t=0.82
0
% es.tEz (V/m) @ t=0.82
-1.6611052408874247
% V (V) @ t=0.82
0.0091250671002469
% es.normE (V/m) @ t=0.84
1.8424408402975416
% es.EX (V/m) @ t=0.84
0.7342834884870617
% es.EY (V/m) @ t=0.84
0.1941250374078507
% es.EZ (V/m) @ t=0.84
-1.6771197095926231
% es.tEX (V/m) @ t=0.84
0.7342834884870619
% es.tEY (V/m) @ t=0.84
0
% es.tEZ (V/m) @ t=0.84
-1.6771197095926276
% es.Ex (V/m) @ t=0.84
0.7342834884870617
% es.Ey (V/m) @ t=0.84
0.1941250374078507
% es.Ez (V/m) @ t=0.84
-1.6771197095926231
% es.tEx (V/m) @ t=0.84
0.7342834884870619
% es.tEy (V/m) @ t=0.84
0
% es.tEz (V/m) @ t=0.84
-1.6771197095926276
% V (V) @ t=0.84
0.009212987522492295
% es.normE (V/m) @ t=0.86
1.8600340054892703
% es.EX (V/m) @ t=0.86
0.741295121687388
% es.EY (V/m) @ t=0.86
0.19597923437518983
% es.EZ (V/m) @ t=0.86
-1.6931341782978206
% es.tEX (V/m) @ t=0.86
0.7412951216873882
% es.tEY (V/m) @ t=0.86
0
% es.tEZ (V/m) @ t=0.86
-1.693134178297818
% es.Ex (V/m) @ t=0.86
0.741295121687388
% es.Ey (V/m) @ t=0.86
0.19597923437518983
% es.Ez (V/m) @ t=0.86
-1.6931341782978206
% es.tEx (V/m) @ t=0.86
0.7412951216873882
% es.tEy (V/m) @ t=0.86
0
% es.tEz (V/m) @ t=0.86
-1.693134178297818
% V (V) @ t=0.86
0.009300907944737688
% es.normE (V/m) @ t=0.88
1.877627170681334
% es.EX (V/m) @ t=0.88
0.7483067548877289
% es.EY (V/m) @ t=0.88
0.19783343134252274
% es.EZ (V/m) @ t=0.88
-1.7091486470030173
% es.tEX (V/m) @ t=0.88
0.7483067548877291
% es.tEY (V/m) @ t=0.88
0
% es.tEZ (V/m) @ t=0.88
-1.7091486470030226
% es.Ex (V/m) @ t=0.88
0.7483067548877289
% es.Ey (V/m) @ t=0.88
0.19783343134252274
% es.Ez (V/m) @ t=0.88
-1.7091486470030173
% es.tEx (V/m) @ t=0.88
0.7483067548877291
% es.tEy (V/m) @ t=0.88
0
% es.tEz (V/m) @ t=0.88
-1.7091486470030226
% V (V) @ t=0.88
0.009388828366983085
% es.normE (V/m) @ t=0.9
1.8952203358737187
% es.EX (V/m) @ t=0.9
0.7553183880880663
% es.EY (V/m) @ t=0.9
0.19968762830986542
% es.EZ (V/m) @ t=0.9
-1.725163115708214
% es.tEX (V/m) @ t=0.9
0.755318388088063
% es.tEY (V/m) @ t=0.9
0
% es.tEZ (V/m) @ t=0.9
-1.7251631157082183
% es.Ex (V/m) @ t=0.9
0.7553183880880663
% es.Ey (V/m) @ t=0.9
0.19968762830986542
% es.Ez (V/m) @ t=0.9
-1.725163115708214
% es.tEx (V/m) @ t=0.9
0.755318388088063
% es.tEy (V/m) @ t=0.9
0
% es.tEz (V/m) @ t=0.9
-1.7251631157082183
% V (V) @ t=0.9
0.009476748789228478
% es.normE (V/m) @ t=0.92
1.9128135010664042
% es.EX (V/m) @ t=0.92
0.7623300212883888
% es.EY (V/m) @ t=0.92
0.20154182527719033
% es.EZ (V/m) @ t=0.92
-1.7411775844134034
% es.tEX (V/m) @ t=0.92
0.7623300212883892
% es.tEY (V/m) @ t=0.92
0
% es.tEZ (V/m) @ t=0.92
-1.7411775844134088
% es.Ex (V/m) @ t=0.92
0.7623300212883888
% es.Ey (V/m) @ t=0.92
0.20154182527719033
% es.Ez (V/m) @ t=0.92
-1.7411775844134034
% es.tEx (V/m) @ t=0.92
0.7623300212883892
% es.tEy (V/m) @ t=0.92
0
% es.tEz (V/m) @ t=0.92
-1.7411775844134088
% V (V) @ t=0.92
0.009564669211473871
% es.normE (V/m) @ t=0.94
1.9304066662594228
% es.EX (V/m) @ t=0.94
0.7693416544887446
% es.EY (V/m) @ t=0.94
0.2033960222445259
% es.EZ (V/m) @ t=0.94
-1.757192053118609
% es.tEX (V/m) @ t=0.94
0.7693416544887448
% es.tEY (V/m) @ t=0.94
0
% es.tEZ (V/m) @ t=0.94
-1.757192053118617
% es.Ex (V/m) @ t=0.94
0.7693416544887446
% es.Ey (V/m) @ t=0.94
0.2033960222445259
% es.Ez (V/m) @ t=0.94
-1.757192053118609
% es.tEx (V/m) @ t=0.94
0.7693416544887448
% es.tEy (V/m) @ t=0.94
0
% es.tEz (V/m) @ t=0.94
-1.757192053118617
% V (V) @ t=0.94
0.009652589633719268
% es.normE (V/m) @ t=0.96
1.9479998314527127
% es.EX (V/m) @ t=0.96
0.7763532876890602
% es.EY (V/m) @ t=0.96
0.20525021921187125
% es.EZ (V/m) @ t=0.96
-1.773206521823803
% es.tEX (V/m) @ t=0.96
0.776353287689064
% es.tEY (V/m) @ t=0.96
0
% es.tEZ (V/m) @ t=0.96
-1.7732065218238038
% es.Ex (V/m) @ t=0.96
0.7763532876890602
% es.Ey (V/m) @ t=0.96
0.20525021921187125
% es.Ez (V/m) @ t=0.96
-1.773206521823803
% es.tEx (V/m) @ t=0.96
0.776353287689064
% es.tEy (V/m) @ t=0.96
0
% es.tEz (V/m) @ t=0.96
-1.7732065218238038
% V (V) @ t=0.96
0.009740510055964659
% es.normE (V/m) @ t=0.98
1.965592996646309
% es.EX (V/m) @ t=0.98
0.7833649208894189
% es.EY (V/m) @ t=0.98
0.2071044161791935
% es.EZ (V/m) @ t=0.98
-1.7892209905290022
% es.tEX (V/m) @ t=0.98
0.7833649208894191
% es.tEY (V/m) @ t=0.98
0
% es.tEZ (V/m) @ t=0.98
-1.7892209905290102
% es.Ex (V/m) @ t=0.98
0.7833649208894189
% es.Ey (V/m) @ t=0.98
0.2071044161791935
% es.Ez (V/m) @ t=0.98
-1.7892209905290022
% es.tEx (V/m) @ t=0.98
0.7833649208894191
% es.tEy (V/m) @ t=0.98
0
% es.tEz (V/m) @ t=0.98
-1.7892209905290102
% V (V) @ t=0.98
0.009828430478210054
% es.normE (V/m) @ t=1
1.9831861618401776
% es.EX (V/m) @ t=1
0.790376554089752
% es.EY (V/m) @ t=1
0.20895861314653086
% es.EZ (V/m) @ t=1
-1.8052354592341997
% es.tEX (V/m) @ t=1
0.7903765540897525
% es.tEY (V/m) @ t=1
0
% es.tEZ (V/m) @ t=1
-1.8052354592342006
% es.Ex (V/m) @ t=1
0.790376554089752
% es.Ey (V/m) @ t=1
0.20895861314653086
% es.Ez (V/m) @ t=1
-1.8052354592341997
% es.tEx (V/m) @ t=1
0.7903765540897525
% es.tEy (V/m) @ t=1
0
% es.tEz (V/m) @ t=1
-1.8052354592342006
% V (V) @ t=1
0.009916350900455449
% es.normE (V/m) @ t=1.02
2.000779327034304
% es.EX (V/m) @ t=1.02
0.7973881872900681
% es.EY (V/m) @ t=1.02
0.21081281011386377
% es.EZ (V/m) @ t=1.02
-1.8212499279393883
% es.tEX (V/m) @ t=1.02
0.797388187290065
% es.tEY (V/m) @ t=1.02
0
% es.tEZ (V/m) @ t=1.02
-1.8212499279393892
% es.Ex (V/m) @ t=1.02
0.7973881872900681
% es.Ey (V/m) @ t=1.02
0.21081281011386377
% es.Ez (V/m) @ t=1.02
-1.8212499279393883
% es.tEx (V/m) @ t=1.02
0.797388187290065
% es.tEy (V/m) @ t=1.02
0
% es.tEz (V/m) @ t=1.02
-1.8212499279393892
% V (V) @ t=1.02
0.010004271322700842
% es.normE (V/m) @ t=1.04
2.01837249222872
% es.EX (V/m) @ t=1.04
0.8043998204904126
% es.EY (V/m) @ t=1.04
0.2126670070811958
% es.EZ (V/m) @ t=1.04
-1.8372643966445903
% es.tEX (V/m) @ t=1.04
0.804399820490413