% Model:              1 neuron.mph
% Version:            COMSOL 6.0.0.405
% Date:               Mar 9 2023, 13:46
% Dimension:          0
% Nodes:              14017
% Expressions:        14017
% Description:        Electric field norm, Electric field, X component, Electric field, Y component, Electric field, Z component, Tangential electric field, X component, Tangential electric field, Y component, Tangential electric field, Z component, Electric field, x component, Electric field, y component, Electric field, z component, Tangential electric field, x component, Tangential electric field, y component, Tangential electric field, z component, Electric potential
% Length unit:        mm
% x
1
% y
12.2
% z
1.6599999999999997
% es.normE (V/m) @ t=0
1.5836435800848407
% es.EX (V/m) @ t=0
1.4176930765052567
% es.EY (V/m) @ t=0
0.05454663723571487
% es.EZ (V/m) @ t=0
-0.7036319776942475
% es.tEX (V/m) @ t=0
1.4176930765052562
% es.tEY (V/m) @ t=0
0
% es.tEZ (V/m) @ t=0
-0.7036319776942506
% es.Ex (V/m) @ t=0
1.4176930765052567
% es.Ey (V/m) @ t=0
0.05454663723571487
% es.Ez (V/m) @ t=0
-0.7036319776942475
% es.tEx (V/m) @ t=0
1.4176930765052562
% es.tEy (V/m) @ t=0
0
% es.tEz (V/m) @ t=0
-0.7036319776942506
% V (V) @ t=0
0.00718497273974258
% es.normE (V/m) @ t=0.02
1.3678222023943296
% es.EX (V/m) @ t=0.02
1.2244876895437768
% es.EY (V/m) @ t=0.02
0.04711294037985489
% es.EZ (V/m) @ t=0.02
-0.6077399288127072
% es.tEX (V/m) @ t=0.02
1.2244876895437735
% es.tEY (V/m) @ t=0.02
0
% es.tEZ (V/m) @ t=0.02
-0.6077399288126948
% es.Ex (V/m) @ t=0.02
1.2244876895437768
% es.Ey (V/m) @ t=0.02
0.04711294037985489
% es.Ez (V/m) @ t=0.02
-0.6077399288127072
% es.tEx (V/m) @ t=0.02
1.2244876895437735
% es.tEy (V/m) @ t=0.02
0
% es.tEz (V/m) @ t=0.02
-0.6077399288126948
% V (V) @ t=0.02
0.006205793499283899
% es.normE (V/m) @ t=0.04
1.3804023772788745
% es.EX (V/m) @ t=0.04
1.2357495845969453
% es.EY (V/m) @ t=0.04
0.047546250020841396
% es.EZ (V/m) @ t=0.04
-0.6133294512029508
% es.tEX (V/m) @ t=0.04
1.235749584596943
% es.tEY (V/m) @ t=0.04
0
% es.tEZ (V/m) @ t=0.04
-0.6133294512029508
% es.Ex (V/m) @ t=0.04
1.2357495845969453
% es.Ey (V/m) @ t=0.04
0.047546250020841396
% es.Ez (V/m) @ t=0.04
-0.6133294512029508
% es.tEx (V/m) @ t=0.04
1.235749584596943
% es.tEy (V/m) @ t=0.04
0
% es.tEz (V/m) @ t=0.04
-0.6133294512029508
% V (V) @ t=0.04
0.006262869552366794
% es.normE (V/m) @ t=0.06
1.3930955951937065
% es.EX (V/m) @ t=0.06
1.2471126732077364
% es.EY (V/m) @ t=0.06
0.04798344653271269
% es.EZ (V/m) @ t=0.06
-0.6189692078729236
% es.tEX (V/m) @ t=0.06
1.2471126732077402
% es.tEY (V/m) @ t=0.06
0
% es.tEZ (V/m) @ t=0.06
-0.6189692078729152
% es.Ex (V/m) @ t=0.06
1.2471126732077364
% es.Ey (V/m) @ t=0.06
0.04798344653271269
% es.Ez (V/m) @ t=0.06
-0.6189692078729236
% es.tEx (V/m) @ t=0.06
1.2471126732077402
% es.tEy (V/m) @ t=0.06
0
% es.tEz (V/m) @ t=0.06
-0.6189692078729152
% V (V) @ t=0.06
0.006320458814824339
% es.normE (V/m) @ t=0.08
1.4059835178164408
% es.EX (V/m) @ t=0.08
1.2586500629014674
% es.EY (V/m) @ t=0.08
0.04842734856802458
% es.EZ (V/m) @ t=0.08
-0.6246954751851794
% es.tEX (V/m) @ t=0.08
1.258650062901467
% es.tEY (V/m) @ t=0.08
0
% es.tEZ (V/m) @ t=0.08
-0.6246954751851739
% es.Ex (V/m) @ t=0.08
1.2586500629014674
% es.Ey (V/m) @ t=0.08
0.04842734856802458
% es.Ez (V/m) @ t=0.08
-0.6246954751851794
% es.tEx (V/m) @ t=0.08
1.258650062901467
% es.tEy (V/m) @ t=0.08
0
% es.tEz (V/m) @ t=0.08
-0.6246954751851739
% V (V) @ t=0.08
0.006378931491812585
% es.normE (V/m) @ t=0.1
1.4190048625049694
% es.EX (V/m) @ t=0.1
1.27030689300733
% es.EY (V/m) @ t=0.1
0.048875845586158956
% es.EZ (V/m) @ t=0.1
-0.6304810242104022
% es.tEX (V/m) @ t=0.1
1.2703068930073274
% es.tEY (V/m) @ t=0.1
0
% es.tEZ (V/m) @ t=0.1
-0.6304810242103898
% es.Ex (V/m) @ t=0.1
1.27030689300733
% es.Ey (V/m) @ t=0.1
0.048875845586158956
% es.Ez (V/m) @ t=0.1
-0.6304810242104022
% es.tEx (V/m) @ t=0.1
1.2703068930073274
% es.tEy (V/m) @ t=0.1
0
% es.tEz (V/m) @ t=0.1
-0.6304810242103898
% V (V) @ t=0.1
0.0064380095316239686
% es.normE (V/m) @ t=0.12
1.4320262071935002
% es.EX (V/m) @ t=0.12
1.2819637231131966
% es.EY (V/m) @ t=0.12
0.04932434260427601
% es.EZ (V/m) @ t=0.12
-0.6362665732356232
% es.tEX (V/m) @ t=0.12
1.2819637231131953
% es.tEY (V/m) @ t=0.12
0
% es.tEZ (V/m) @ t=0.12
-0.6362665732356163
% es.Ex (V/m) @ t=0.12
1.2819637231131966
% es.Ey (V/m) @ t=0.12
0.04932434260427601
% es.Ez (V/m) @ t=0.12
-0.6362665732356232
% es.tEx (V/m) @ t=0.12
1.2819637231131953
% es.tEy (V/m) @ t=0.12
0
% es.tEz (V/m) @ t=0.12
-0.6362665732356163
% V (V) @ t=0.12
0.006497087571435353
% es.normE (V/m) @ t=0.14
1.4451840690480513
% es.EX (V/m) @ t=0.14
1.2937427659245084
% es.EY (V/m) @ t=0.14
0.04977754402270054
% es.EZ (V/m) @ t=0.14
-0.6421127758641285
% es.tEX (V/m) @ t=0.14
1.293742765924505
% es.tEY (V/m) @ t=0.14
0
% es.tEZ (V/m) @ t=0.14
-0.6421127758641241
% es.Ex (V/m) @ t=0.14
1.2937427659245084
% es.Ey (V/m) @ t=0.14
0.04977754402270054
% es.Ez (V/m) @ t=0.14
-0.6421127758641285
% es.tEx (V/m) @ t=0.14
1.293742765924505
% es.tEy (V/m) @ t=0.14
0
% es.tEz (V/m) @ t=0.14
-0.6421127758641241
% V (V) @ t=0.14
0.006556784877204839
% es.normE (V/m) @ t=0.16
1.4588993936465944
% es.EX (V/m) @ t=0.16
1.3060208597497969
% es.EY (V/m) @ t=0.16
0.05024995568382795
% es.EZ (V/m) @ t=0.16
-0.6482066552142329
% es.tEX (V/m) @ t=0.16
1.3060208597498022
% es.tEY (V/m) @ t=0.16
0
% es.tEZ (V/m) @ t=0.16
-0.6482066552142243
% es.Ex (V/m) @ t=0.16
1.3060208597497969
% es.Ey (V/m) @ t=0.16
0.05024995568382795
% es.Ez (V/m) @ t=0.16
-0.6482066552142329
% es.tEx (V/m) @ t=0.16
1.3060208597498022
% es.tEy (V/m) @ t=0.16
0
% es.tEz (V/m) @ t=0.16
-0.6482066552142243
% V (V) @ t=0.16
0.006619010932364037
% es.normE (V/m) @ t=0.18
1.4726147182451457
% es.EX (V/m) @ t=0.18
1.3182989535750964
% es.EY (V/m) @ t=0.18
0.0507223673449749
% es.EZ (V/m) @ t=0.18
-0.6543005345643319
% es.tEX (V/m) @ t=0.18
1.3182989535750962
% es.tEY (V/m) @ t=0.18
0
% es.tEZ (V/m) @ t=0.18
-0.654300534564328
% es.Ex (V/m) @ t=0.18
1.3182989535750964
% es.Ey (V/m) @ t=0.18
0.0507223673449749
% es.Ez (V/m) @ t=0.18
-0.6543005345643319
% es.tEx (V/m) @ t=0.18
1.3182989535750962
% es.tEy (V/m) @ t=0.18
0
% es.tEz (V/m) @ t=0.18
-0.654300534564328
% V (V) @ t=0.18
0.006681236987523237
% es.normE (V/m) @ t=0.2
1.4863300428436932
% es.EX (V/m) @ t=0.2
1.330577047400392
% es.EY (V/m) @ t=0.2
0.05119477900609343
% es.EZ (V/m) @ t=0.2
-0.6603944139144327
% es.tEX (V/m) @ t=0.2
1.3305770474003857
% es.tEY (V/m) @ t=0.2
0
% es.tEZ (V/m) @ t=0.2
-0.6603944139144353
% es.Ex (V/m) @ t=0.2
1.330577047400392
% es.Ey (V/m) @ t=0.2
0.05119477900609343
% es.Ez (V/m) @ t=0.2
-0.6603944139144327
% es.tEx (V/m) @ t=0.2
1.3305770474003857
% es.tEy (V/m) @ t=0.2
0
% es.tEz (V/m) @ t=0.2
-0.6603944139144353
% V (V) @ t=0.2
0.0067434630426824365
% es.normE (V/m) @ t=0.22
1.5000453674422392
% es.EX (V/m) @ t=0.22
1.3428551412256824
% es.EY (V/m) @ t=0.22
0.05166719066722972
% es.EZ (V/m) @ t=0.22
-0.6664882932645388
% es.tEX (V/m) @ t=0.22
1.3428551412256864
% es.tEY (V/m) @ t=0.22
0
% es.tEZ (V/m) @ t=0.22
-0.6664882932645249
% es.Ex (V/m) @ t=0.22
1.3428551412256824
% es.Ey (V/m) @ t=0.22
0.05166719066722972
% es.Ez (V/m) @ t=0.22
-0.6664882932645388
% es.tEx (V/m) @ t=0.22
1.3428551412256864
% es.tEy (V/m) @ t=0.22
0
% es.tEz (V/m) @ t=0.22
-0.6664882932645249
% V (V) @ t=0.22
0.006805689097841635
% es.normE (V/m) @ t=0.24
1.513760692040786
% es.EX (V/m) @ t=0.24
1.3551332350509777
% es.EY (V/m) @ t=0.24
0.05213960232837134
% es.EZ (V/m) @ t=0.24
-0.6725821726146362
% es.tEX (V/m) @ t=0.24
1.3551332350509764
% es.tEY (V/m) @ t=0.24
0
% es.tEZ (V/m) @ t=0.24
-0.6725821726146322
% es.Ex (V/m) @ t=0.24
1.3551332350509777
% es.Ey (V/m) @ t=0.24
0.05213960232837134
% es.Ez (V/m) @ t=0.24
-0.6725821726146362
% es.tEx (V/m) @ t=0.24
1.3551332350509764
% es.tEy (V/m) @ t=0.24
0
% es.tEz (V/m) @ t=0.24
-0.6725821726146322
% V (V) @ t=0.24
0.006867915153000835
% es.normE (V/m) @ t=0.26
1.5274760166393413
% es.EX (V/m) @ t=0.26
1.3674113288762806
% es.EY (V/m) @ t=0.26
0.052612013989498774
% es.EZ (V/m) @ t=0.26
-0.6786760519647388
% es.tEX (V/m) @ t=0.26
1.3674113288762704
% es.tEY (V/m) @ t=0.26
0
% es.tEZ (V/m) @ t=0.26
-0.6786760519647288
% es.Ex (V/m) @ t=0.26
1.3674113288762806
% es.Ey (V/m) @ t=0.26
0.052612013989498774
% es.Ez (V/m) @ t=0.26
-0.6786760519647388
% es.tEx (V/m) @ t=0.26
1.3674113288762704
% es.tEy (V/m) @ t=0.26
0
% es.tEz (V/m) @ t=0.26
-0.6786760519647288
% V (V) @ t=0.26
0.006930141208160033
% es.normE (V/m) @ t=0.28
1.54182178161967
% es.EX (V/m) @ t=0.28
1.3802537122821459
% es.EY (V/m) @ t=0.28
0.05310598045113657
% es.EZ (V/m) @ t=0.28
-0.6850502308130507
% es.tEX (V/m) @ t=0.28
1.3802537122821446
% es.tEY (V/m) @ t=0.28
0
% es.tEZ (V/m) @ t=0.28
-0.6850502308130473
% es.Ex (V/m) @ t=0.28
1.3802537122821459
% es.Ey (V/m) @ t=0.28
0.05310598045113657
% es.Ez (V/m) @ t=0.28
-0.6850502308130507
% es.tEx (V/m) @ t=0.28
1.3802537122821446
% es.tEy (V/m) @ t=0.28
0
% es.tEz (V/m) @ t=0.28
-0.6850502308130473
% V (V) @ t=0.28
0.006995235490978919
% es.normE (V/m) @ t=0.3
1.557099986039705
% es.EX (V/m) @ t=0.3
1.3939306961917732
% es.EY (V/m) @ t=0.3
0.05363182708206263
% es.EZ (V/m) @ t=0.3
-0.6918389806732455
% es.tEX (V/m) @ t=0.3
1.393930696191772
% es.tEY (V/m) @ t=0.3
0
% es.tEZ (V/m) @ t=0.3
-0.6918389806732499
% es.Ex (V/m) @ t=0.3
1.3939306961917732
% es.Ey (V/m) @ t=0.3
0.05363182708206263
% es.Ez (V/m) @ t=0.3
-0.6918389806732455
% es.tEx (V/m) @ t=0.3
1.393930696191772
% es.tEy (V/m) @ t=0.3
0
% es.tEz (V/m) @ t=0.3
-0.6918389806732499
% V (V) @ t=0.3
0.007064571964921059
% es.normE (V/m) @ t=0.32
1.5723781904600154
% es.EX (V/m) @ t=0.32
1.4076076801014006
% es.EY (V/m) @ t=0.32
0.054157673712978416
% es.EZ (V/m) @ t=0.32
-0.6986277305334365
% es.tEX (V/m) @ t=0.32
1.4076076801014032
% es.tEY (V/m) @ t=0.32
0
% es.tEZ (V/m) @ t=0.32
-0.6986277305334383
% es.Ex (V/m) @ t=0.32
1.4076076801014006
% es.Ey (V/m) @ t=0.32
0.054157673712978416
% es.Ez (V/m) @ t=0.32
-0.6986277305334365
% es.tEx (V/m) @ t=0.32
1.4076076801014032
% es.tEy (V/m) @ t=0.32
0
% es.tEz (V/m) @ t=0.32
-0.6986277305334383
% V (V) @ t=0.32
0.0071339084388632
% es.normE (V/m) @ t=0.34
1.5876563948805995
% es.EX (V/m) @ t=0.34
1.4212846640110277
% es.EY (V/m) @ t=0.34
0.0546835203439191
% es.EZ (V/m) @ t=0.34
-0.7054164803936348
% es.tEX (V/m) @ t=0.34
1.421284664011032
% es.tEY (V/m) @ t=0.34
0
% es.tEZ (V/m) @ t=0.34
-0.7054164803936303
% es.Ex (V/m) @ t=0.34
1.4212846640110277
% es.Ey (V/m) @ t=0.34
0.0546835203439191
% es.Ez (V/m) @ t=0.34
-0.7054164803936348
% es.tEx (V/m) @ t=0.34
1.421284664011032
% es.tEy (V/m) @ t=0.34
0
% es.tEz (V/m) @ t=0.34
-0.7054164803936303
% V (V) @ t=0.34
0.007203244912805342
% es.normE (V/m) @ t=0.36
1.6029345993014488
% es.EX (V/m) @ t=0.36
1.4349616479206608
% es.EY (V/m) @ t=0.36
0.055209366974834
% es.EZ (V/m) @ t=0.36
-0.7122052302538295
% es.tEX (V/m) @ t=0.36
1.4349616479206562
% es.tEY (V/m) @ t=0.36
0
% es.tEZ (V/m) @ t=0.36
-0.7122052302538258
% es.Ex (V/m) @ t=0.36
1.4349616479206608
% es.Ey (V/m) @ t=0.36
0.055209366974834
% es.Ez (V/m) @ t=0.36
-0.7122052302538295
% es.tEx (V/m) @ t=0.36
1.4349616479206562
% es.tEy (V/m) @ t=0.36
0
% es.tEz (V/m) @ t=0.36
-0.7122052302538258
% V (V) @ t=0.36
0.007272581386747483
% es.normE (V/m) @ t=0.38
1.6182128037225532
% es.EX (V/m) @ t=0.38
1.4486386318302893
% es.EY (V/m) @ t=0.38
0.05573521360576536
% es.EZ (V/m) @ t=0.38
-0.7189939801140348
% es.tEX (V/m) @ t=0.38
1.4486386318302902
% es.tEY (V/m) @ t=0.38
0
% es.tEZ (V/m) @ t=0.38
-0.7189939801140248
% es.Ex (V/m) @ t=0.38
1.4486386318302893
% es.Ey (V/m) @ t=0.38
0.05573521360576536
% es.Ez (V/m) @ t=0.38
-0.7189939801140348
% es.tEx (V/m) @ t=0.38
1.4486386318302902
% es.tEy (V/m) @ t=0.38
0
% es.tEz (V/m) @ t=0.38
-0.7189939801140248
% V (V) @ t=0.38
0.0073419178606896245
% es.normE (V/m) @ t=0.4
1.6334910081438967
% es.EX (V/m) @ t=0.4
1.4623156157399149
% es.EY (V/m) @ t=0.4
0.056261060236697136
% es.EZ (V/m) @ t=0.4
-0.7257827299742277
% es.tEX (V/m) @ t=0.4
1.4623156157399144
% es.tEY (V/m) @ t=0.4
0
% es.tEZ (V/m) @ t=0.4
-0.7257827299742239
% es.Ex (V/m) @ t=0.4
1.4623156157399149
% es.Ey (V/m) @ t=0.4
0.056261060236697136
% es.Ez (V/m) @ t=0.4
-0.7257827299742277
% es.tEx (V/m) @ t=0.4
1.4623156157399144
% es.tEy (V/m) @ t=0.4
0
% es.tEz (V/m) @ t=0.4
-0.7257827299742239
% V (V) @ t=0.4
0.007411254334631767
% es.normE (V/m) @ t=0.42
1.64876921256549
% es.EX (V/m) @ t=0.42
1.4759925996495498
% es.EY (V/m) @ t=0.42
0.056786906867625386
% es.EZ (V/m) @ t=0.42
-0.7325714798344224
% es.tEX (V/m) @ t=0.42
1.4759925996495502
% es.tEY (V/m) @ t=0.42
0
% es.tEZ (V/m) @ t=0.42
-0.7325714798344087
% es.Ex (V/m) @ t=0.42
1.4759925996495498
% es.Ey (V/m) @ t=0.42
0.056786906867625386
% es.Ez (V/m) @ t=0.42
-0.7325714798344224
% es.tEx (V/m) @ t=0.42
1.4759925996495502
% es.tEy (V/m) @ t=0.42
0
% es.tEz (V/m) @ t=0.42
-0.7325714798344087
% V (V) @ t=0.42
0.007480590808573906
% es.normE (V/m) @ t=0.44
1.6640474169873074
% es.EX (V/m) @ t=0.44
1.4896695835591753
% es.EY (V/m) @ t=0.44
0.05731275349853543
% es.EZ (V/m) @ t=0.44
-0.7393602296946153
% es.tEX (V/m) @ t=0.44
1.489669583559178
% es.tEY (V/m) @ t=0.44
0
% es.tEZ (V/m) @ t=0.44
-0.7393602296946113
% es.Ex (V/m) @ t=0.44
1.4896695835591753
% es.Ey (V/m) @ t=0.44
0.05731275349853543
% es.Ez (V/m) @ t=0.44
-0.7393602296946153
% es.tEx (V/m) @ t=0.44
1.489669583559178
% es.tEy (V/m) @ t=0.44
0
% es.tEz (V/m) @ t=0.44
-0.7393602296946113
% V (V) @ t=0.44
0.0075499272825160476
% es.normE (V/m) @ t=0.46
1.6793256214093606
% es.EX (V/m) @ t=0.46
1.5033465674688076
% es.EY (V/m) @ t=0.46
0.05783860012947076
% es.EZ (V/m) @ t=0.46
-0.7461489795548117
% es.tEX (V/m) @ t=0.46
1.503346567468805
% es.tEY (V/m) @ t=0.46
0
% es.tEZ (V/m) @ t=0.46
-0.7461489795548069
% es.Ex (V/m) @ t=0.46
1.5033465674688076
% es.Ey (V/m) @ t=0.46
0.05783860012947076
% es.Ez (V/m) @ t=0.46
-0.7461489795548117
% es.tEx (V/m) @ t=0.46
1.503346567468805
% es.tEy (V/m) @ t=0.46
0
% es.tEz (V/m) @ t=0.46
-0.7461489795548069
% V (V) @ t=0.46
0.007619263756458189
% es.normE (V/m) @ t=0.48
1.6946038258316352
% es.EX (V/m) @ t=0.48
1.5170235513784402
% es.EY (V/m) @ t=0.48
0.05836444676040034
% es.EZ (V/m) @ t=0.48
-0.7529377294150083
% es.tEX (V/m) @ t=0.48
1.5170235513784371
% es.tEY (V/m) @ t=0.48
0
% es.tEZ (V/m) @ t=0.48
-0.7529377294150059
% es.Ex (V/m) @ t=0.48
1.5170235513784402
% es.Ey (V/m) @ t=0.48
0.05836444676040034
% es.Ez (V/m) @ t=0.48
-0.7529377294150083
% es.tEx (V/m) @ t=0.48
1.5170235513784371
% es.tEy (V/m) @ t=0.48
0
% es.tEz (V/m) @ t=0.48
-0.7529377294150059
% V (V) @ t=0.48
0.00768860023040033
% es.normE (V/m) @ t=0.5
1.7098820302541164
% es.EX (V/m) @ t=0.5
1.530700535288061
% es.EY (V/m) @ t=0.5
0.0588902933913428
% es.EZ (V/m) @ t=0.5
-0.7597264792752083
% es.tEX (V/m) @ t=0.5
1.5307005352880578
% es.tEY (V/m) @ t=0.5
0
% es.tEZ (V/m) @ t=0.5
-0.7597264792751979
% es.Ex (V/m) @ t=0.5
1.530700535288061
% es.Ey (V/m) @ t=0.5
0.0588902933913428
% es.Ez (V/m) @ t=0.5
-0.7597264792752083
% es.tEx (V/m) @ t=0.5
1.5307005352880578
% es.tEy (V/m) @ t=0.5
0
% es.tEz (V/m) @ t=0.5
-0.7597264792751979
% V (V) @ t=0.5
0.007757936704342471
% es.normE (V/m) @ t=0.52
1.7251602346768145
% es.EX (V/m) @ t=0.52
1.5443775191976954
% es.EY (V/m) @ t=0.52
0.059416140022242186
% es.EZ (V/m) @ t=0.52
-0.7665152291353994
% es.tEX (V/m) @ t=0.52
1.5443775191976892
% es.tEY (V/m) @ t=0.52
0
% es.tEZ (V/m) @ t=0.52
-0.7665152291353934
% es.Ex (V/m) @ t=0.52
1.5443775191976954
% es.Ey (V/m) @ t=0.52
0.059416140022242186
% es.Ez (V/m) @ t=0.52
-0.7665152291353994
% es.tEx (V/m) @ t=0.52
1.5443775191976892
% es.tEy (V/m) @ t=0.52
0
% es.tEz (V/m) @ t=0.52
-0.7665152291353934
% V (V) @ t=0.52
0.007827273178284612
% es.normE (V/m) @ t=0.54
1.7404384390997083
% es.EX (V/m) @ t=0.54
1.558054503107317
% es.EY (V/m) @ t=0.54
0.05994198665316863
% es.EZ (V/m) @ t=0.54
-0.7733039789955959
% es.tEX (V/m) @ t=0.54
1.558054503107316
% es.tEY (V/m) @ t=0.54
0
% es.tEZ (V/m) @ t=0.54
-0.7733039789955924
% es.Ex (V/m) @ t=0.54
1.558054503107317
% es.Ey (V/m) @ t=0.54
0.05994198665316863
% es.Ez (V/m) @ t=0.54
-0.7733039789955959
% es.tEx (V/m) @ t=0.54
1.558054503107316
% es.tEy (V/m) @ t=0.54
0
% es.tEz (V/m) @ t=0.54
-0.7733039789955924
% V (V) @ t=0.54
0.007896609652226754
% es.normE (V/m) @ t=0.56
1.7571604866516073
% es.EX (V/m) @ t=0.56
1.5730241853849483
% es.EY (V/m) @ t=0.56
0.06051785231142498
% es.EZ (V/m) @ t=0.56
-0.7807339091430986
% es.tEX (V/m) @ t=0.56
1.5730241853849556
% es.tEY (V/m) @ t=0.56
0
% es.tEZ (V/m) @ t=0.56
-0.7807339091430947
% es.Ex (V/m) @ t=0.56
1.5730241853849483
% es.Ey (V/m) @ t=0.56
0.06051785231142498
% es.Ez (V/m) @ t=0.56
-0.7807339091430986
% es.tEx (V/m) @ t=0.56
1.5730241853849556
% es.tEy (V/m) @ t=0.56
0
% es.tEz (V/m) @ t=0.56
-0.7807339091430947
% V (V) @ t=0.56
0.00797248257084286
% es.normE (V/m) @ t=0.58
1.7742065495159525
% es.EX (V/m) @ t=0.58
1.5882839643200501
% es.EY (V/m) @ t=0.58
0.061104942825354
% es.EZ (V/m) @ t=0.58
-0.7883077276583783
% es.tEX (V/m) @ t=0.58
1.5882839643200484
% es.tEY (V/m) @ t=0.58
0
% es.tEZ (V/m) @ t=0.58
-0.7883077276583776
% es.Ex (V/m) @ t=0.58
1.5882839643200501
% es.Ey (V/m) @ t=0.58
0.061104942825354
% es.Ez (V/m) @ t=0.58
-0.7883077276583783
% es.tEx (V/m) @ t=0.58
1.5882839643200484
% es.tEy (V/m) @ t=0.58
0
% es.tEz (V/m) @ t=0.58
-0.7883077276583776
% V (V) @ t=0.58
0.008049822344216776
% es.normE (V/m) @ t=0.6
1.791252612380283
% es.EX (V/m) @ t=0.6
1.603543743255136
% es.EY (V/m) @ t=0.6
0.061692033339281194
% es.EZ (V/m) @ t=0.6
-0.795881546173658
% es.tEX (V/m) @ t=0.6
1.6035437432551305
% es.tEY (V/m) @ t=0.6
0
% es.tEZ (V/m) @ t=0.6
-0.795881546173657
% es.Ex (V/m) @ t=0.6
1.603543743255136
% es.Ey (V/m) @ t=0.6
0.061692033339281194
% es.Ez (V/m) @ t=0.6
-0.795881546173658
% es.tEx (V/m) @ t=0.6
1.6035437432551305
% es.tEy (V/m) @ t=0.6
0
% es.tEz (V/m) @ t=0.6
-0.795881546173657
% V (V) @ t=0.6
0.008127162117590696
% es.normE (V/m) @ t=0.62
1.8082986752446095
% es.EX (V/m) @ t=0.62
1.618803522190222
% es.EY (V/m) @ t=0.62
0.06227912385321549
% es.EZ (V/m) @ t=0.62
-0.8034553646889271
% es.tEX (V/m) @ t=0.62
1.6188035221902197
% es.tEY (V/m) @ t=0.62
0
% es.tEZ (V/m) @ t=0.62
-0.8034553646889258
% es.Ex (V/m) @ t=0.62
1.618803522190222
% es.Ey (V/m) @ t=0.62
0.06227912385321549
% es.Ez (V/m) @ t=0.62
-0.8034553646889271
% es.tEx (V/m) @ t=0.62
1.6188035221902197
% es.tEy (V/m) @ t=0.62
0
% es.tEz (V/m) @ t=0.62
-0.8034553646889258
% V (V) @ t=0.62
0.008204501890964616
% es.normE (V/m) @ t=0.64
1.8253447381089336
% es.EX (V/m) @ t=0.64
1.6340633011253045
% es.EY (V/m) @ t=0.64
0.06286621436715514
% es.EZ (V/m) @ t=0.64
-0.8110291832041961
% es.tEX (V/m) @ t=0.64
1.6340633011253027
% es.tEY (V/m) @ t=0.64
0
% es.tEZ (V/m) @ t=0.64
-0.8110291832041945
% es.Ex (V/m) @ t=0.64
1.6340633011253045
% es.Ey (V/m) @ t=0.64
0.06286621436715514
% es.Ez (V/m) @ t=0.64
-0.8110291832041961
% es.tEx (V/m) @ t=0.64
1.6340633011253027
% es.tEy (V/m) @ t=0.64
0
% es.tEz (V/m) @ t=0.64
-0.8110291832041945
% V (V) @ t=0.64
0.008281841664338534
% es.normE (V/m) @ t=0.66
1.8423908009732655
% es.EX (V/m) @ t=0.66
1.6493230800603946
% es.EY (V/m) @ t=0.66
0.06345330488108014
% es.EZ (V/m) @ t=0.66
-0.8186030017194688
% es.tEX (V/m) @ t=0.66
1.6493230800603929
% es.tEY (V/m) @ t=0.66
0
% es.tEZ (V/m) @ t=0.66
-0.8186030017194703
% es.Ex (V/m) @ t=0.66
1.6493230800603946
% es.Ey (V/m) @ t=0.66
0.06345330488108014
% es.Ez (V/m) @ t=0.66
-0.8186030017194688
% es.tEx (V/m) @ t=0.66
1.6493230800603929
% es.tEy (V/m) @ t=0.66
0
% es.tEz (V/m) @ t=0.66
-0.8186030017194703
% V (V) @ t=0.66
0.008359181437712453
% es.normE (V/m) @ t=0.68
1.8594368638375993
% es.EX (V/m) @ t=0.68
1.664582858995484
% es.EY (V/m) @ t=0.68
0.06404039539503226
% es.EZ (V/m) @ t=0.68
-0.8261768202347449
% es.tEX (V/m) @ t=0.68
1.6645828589954892
% es.tEY (V/m) @ t=0.68
0
% es.tEZ (V/m) @ t=0.68
-0.8261768202347426
% es.Ex (V/m) @ t=0.68
1.664582858995484
% es.Ey (V/m) @ t=0.68
0.06404039539503226
% es.Ez (V/m) @ t=0.68
-0.8261768202347449
% es.tEx (V/m) @ t=0.68
1.6645828589954892
% es.tEy (V/m) @ t=0.68
0
% es.tEz (V/m) @ t=0.68
-0.8261768202347426
% V (V) @ t=0.68
0.008436521211086371
% es.normE (V/m) @ t=0.7
1.8764829267019332
% es.EX (V/m) @ t=0.7
1.679842637930574
% es.EY (V/m) @ t=0.7
0.06462748590895945
% es.EZ (V/m) @ t=0.7
-0.8337506387500211
% es.tEX (V/m) @ t=0.7
1.6798426379305722
% es.tEY (V/m) @ t=0.7
0
% es.tEZ (V/m) @ t=0.7
-0.8337506387500184
% es.Ex (V/m) @ t=0.7
1.679842637930574
% es.Ey (V/m) @ t=0.7
0.06462748590895945
% es.Ez (V/m) @ t=0.7
-0.8337506387500211
% es.tEx (V/m) @ t=0.7
1.6798426379305722
% es.tEy (V/m) @ t=0.7
0
% es.tEz (V/m) @ t=0.7
-0.8337506387500184
% V (V) @ t=0.7
0.00851386098446029
% es.normE (V/m) @ t=0.72
1.8935289895662624
% es.EX (V/m) @ t=0.72
1.6951024168656639
% es.EY (V/m) @ t=0.72
0.06521457642287959
% es.EZ (V/m) @ t=0.72
-0.8413244572652866
% es.tEX (V/m) @ t=0.72
1.6951024168656614
% es.tEY (V/m) @ t=0.72
0
% es.tEZ (V/m) @ t=0.72
-0.8413244572652694
% es.Ex (V/m) @ t=0.72
1.6951024168656639
% es.Ey (V/m) @ t=0.72
0.06521457642287959
% es.Ez (V/m) @ t=0.72
-0.8413244572652866
% es.tEx (V/m) @ t=0.72
1.6951024168656614
% es.tEy (V/m) @ t=0.72
0
% es.tEz (V/m) @ t=0.72
-0.8413244572652694
% V (V) @ t=0.72
0.008591200757834209
% es.normE (V/m) @ t=0.74
1.9105750524306093
% es.EX (V/m) @ t=0.74
1.710362195800764
% es.EY (V/m) @ t=0.74
0.0658016669368201
% es.EZ (V/m) @ t=0.74
-0.8488982757805699
% es.tEX (V/m) @ t=0.74
1.7103621958007587
% es.tEY (V/m) @ t=0.74
0
% es.tEZ (V/m) @ t=0.74
-0.848898275780563
% es.Ex (V/m) @ t=0.74
1.710362195800764
% es.Ey (V/m) @ t=0.74
0.0658016669368201
% es.Ez (V/m) @ t=0.74
-0.8488982757805699
% es.tEx (V/m) @ t=0.74
1.7103621958007587
% es.tEy (V/m) @ t=0.74
0
% es.tEz (V/m) @ t=0.74
-0.848898275780563
% V (V) @ t=0.74
0.008668540531208128
% es.normE (V/m) @ t=0.76
1.9276211152949378
% es.EX (V/m) @ t=0.76
1.72562197473585
% es.EY (V/m) @ t=0.76
0.06638875745076506
% es.EZ (V/m) @ t=0.76
-0.8564720942958389
% es.tEX (V/m) @ t=0.76
1.7256219747358488
% es.tEY (V/m) @ t=0.76
0
% es.tEZ (V/m) @ t=0.76
-0.8564720942958388
% es.Ex (V/m) @ t=0.76
1.72562197473585
% es.Ey (V/m) @ t=0.76
0.06638875745076506
% es.Ez (V/m) @ t=0.76
-0.8564720942958389
% es.tEx (V/m) @ t=0.76
1.7256219747358488
% es.tEy (V/m) @ t=0.76
0
% es.tEz (V/m) @ t=0.76
-0.8564720942958388
% V (V) @ t=0.76
0.008745880304582048
% es.normE (V/m) @ t=0.78
1.944667178159266
% es.EX (V/m) @ t=0.78
1.7408817536709325
% es.EY (V/m) @ t=0.78
0.0669758479646976
% es.EZ (V/m) @ t=0.78
-0.8640459128111151
% es.tEX (V/m) @ t=0.78
1.740881753670931
% es.tEY (V/m) @ t=0.78
0
% es.tEZ (V/m) @ t=0.78
-0.8640459128110933
% es.Ex (V/m) @ t=0.78
1.7408817536709325
% es.Ey (V/m) @ t=0.78
0.0669758479646976
% es.Ez (V/m) @ t=0.78
-0.8640459128111151
% es.tEx (V/m) @ t=0.78
1.740881753670931
% es.tEy (V/m) @ t=0.78
0
% es.tEz (V/m) @ t=0.78
-0.8640459128110933
% V (V) @ t=0.78
0.008823220077955968
% es.normE (V/m) @ t=0.8
1.9617132410235878
% es.EX (V/m) @ t=0.8
1.7561415326060152
% es.EY (V/m) @ t=0.8
0.0675629384786155
% es.EZ (V/m) @ t=0.8
-0.871619731326377
% es.tEX (V/m) @ t=0.8
1.756141532606021
% es.tEY (V/m) @ t=0.8
0
% es.tEZ (V/m) @ t=0.8
-0.8716197313263692
% es.Ex (V/m) @ t=0.8
1.7561415326060152
% es.Ey (V/m) @ t=0.8
0.0675629384786155
% es.Ez (V/m) @ t=0.8
-0.871619731326377
% es.tEx (V/m) @ t=0.8
1.756141532606021
% es.tEy (V/m) @ t=0.8
0
% es.tEz (V/m) @ t=0.8
-0.8716197313263692
% V (V) @ t=0.8
0.008900559851329886
% es.normE (V/m) @ t=0.82
1.9792209212604486
% es.EX (V/m) @ t=0.82
1.771814627829859
% es.EY (V/m) @ t=0.82
0.06816606144595028
% es.EZ (V/m) @ t=0.82
-0.8793984967683932
% es.tEX (V/m) @ t=0.82
1.7718146278298583
% es.tEY (V/m) @ t=0.82
0
% es.tEZ (V/m) @ t=0.82
-0.8793984967683883
% es.Ex (V/m) @ t=0.82
1.771814627829859
% es.Ey (V/m) @ t=0.82
0.06816606144595028
% es.Ez (V/m) @ t=0.82
-0.8793984967683932
% es.tEx (V/m) @ t=0.82
1.7718146278298583
% es.tEy (V/m) @ t=0.82
0
% es.tEz (V/m) @ t=0.82
-0.8793984967683883
% V (V) @ t=0.82
0.008979987404145098
% es.normE (V/m) @ t=0.84
1.998273547655641
% es.EX (V/m) @ t=0.84
1.7888710146071896
% es.EY (V/m) @ t=0.84
0.06882284200669789
% es.EZ (V/m) @ t=0.84
-0.8878631808649222
% es.tEX (V/m) @ t=0.84
1.7888710146071887
% es.tEY (V/m) @ t=0.84
0
% es.tEZ (V/m) @ t=0.84
-0.8878631808649189
% es.Ex (V/m) @ t=0.84
1.7888710146071896
% es.Ey (V/m) @ t=0.84
0.06882284200669789
% es.Ez (V/m) @ t=0.84
-0.8878631808649222
% es.tEx (V/m) @ t=0.84
1.7888710146071887
% es.tEy (V/m) @ t=0.84
0
% es.tEz (V/m) @ t=0.84
-0.8878631808649189
% V (V) @ t=0.84
0.009066402360421872
% es.normE (V/m) @ t=0.86
2.0173261740513273
% es.EX (V/m) @ t=0.86
1.8059274013845208
% es.EY (V/m) @ t=0.86
0.06947962256744061
% es.EZ (V/m) @ t=0.86
-0.896327864961444
% es.tEX (V/m) @ t=0.86
1.8059274013845057
% es.tEY (V/m) @ t=0.86
0
% es.tEZ (V/m) @ t=0.86
-0.8963278649614423
% es.Ex (V/m) @ t=0.86
1.8059274013845208
% es.Ey (V/m) @ t=0.86
0.06947962256744061
% es.Ez (V/m) @ t=0.86
-0.896327864961444
% es.tEx (V/m) @ t=0.86
1.8059274013845057
% es.tEy (V/m) @ t=0.86
0
% es.tEz (V/m) @ t=0.86
-0.8963278649614423
% V (V) @ t=0.86
0.009152817316698647
% es.normE (V/m) @ t=0.88
2.036378800447498
% es.EX (V/m) @ t=0.88
1.822983788161844
% es.EY (V/m) @ t=0.88
0.07013640312817934
% es.EZ (V/m) @ t=0.88
-0.9047925490579853
% es.tEX (V/m) @ t=0.88
1.8229837881618494
% es.tEY (V/m) @ t=0.88
0
% es.tEZ (V/m) @ t=0.88
-0.9047925490579871
% es.Ex (V/m) @ t=0.88
1.822983788161844
% es.Ey (V/m) @ t=0.88
0.07013640312817934
% es.Ez (V/m) @ t=0.88
-0.9047925490579853
% es.tEx (V/m) @ t=0.88
1.8229837881618494
% es.tEy (V/m) @ t=0.88
0
% es.tEz (V/m) @ t=0.88
-0.9047925490579871
% V (V) @ t=0.88
0.009239232272975424
% es.normE (V/m) @ t=0.9
2.055431426844134
% es.EX (V/m) @ t=0.9
1.8400401749391722
% es.EY (V/m) @ t=0.9
0.0707931836889154
% es.EZ (V/m) @ t=0.9
-0.9132572331545072
% es.tEX (V/m) @ t=0.9
1.8400401749391735
% es.tEY (V/m) @ t=0.9
0
% es.tEZ (V/m) @ t=0.9
-0.9132572331544893
% es.Ex (V/m) @ t=0.9
1.8400401749391722
% es.Ey (V/m) @ t=0.9
0.0707931836889154
% es.Ez (V/m) @ t=0.9
-0.9132572331545072
% es.tEx (V/m) @ t=0.9
1.8400401749391735
% es.tEy (V/m) @ t=0.9
0
% es.tEz (V/m) @ t=0.9
-0.9132572331544893
% V (V) @ t=0.9
0.009325647229252196
% es.normE (V/m) @ t=0.92
2.074484053241236
% es.EX (V/m) @ t=0.92
1.85709656171651
% es.EY (V/m) @ t=0.92
0.07144996424965239
% es.EZ (V/m) @ t=0.92
-0.9217219172510309
% es.tEX (V/m) @ t=0.92
1.857096561716511
% es.tEY (V/m) @ t=0.92
0
% es.tEZ (V/m) @ t=0.92
-0.921721917251034
% es.Ex (V/m) @ t=0.92
1.85709656171651
% es.Ey (V/m) @ t=0.92
0.07144996424965239
% es.Ez (V/m) @ t=0.92
-0.9217219172510309
% es.tEx (V/m) @ t=0.92
1.857096561716511
% es.tEy (V/m) @ t=0.92
0
% es.tEz (V/m) @ t=0.92
-0.921721917251034
% V (V) @ t=0.92
0.009412062185528973
% es.normE (V/m) @ t=0.94
2.093536679638766
% es.EX (V/m) @ t=0.94
1.87415294849383
% es.EY (V/m) @ t=0.94
0.07210674481040133
% es.EZ (V/m) @ t=0.94
-0.9301866013475528
% es.tEX (V/m) @ t=0.94
1.874152948493835
% es.tEY (V/m) @ t=0.94
0
% es.tEZ (V/m) @ t=0.94
-0.9301866013475504
% es.Ex (V/m) @ t=0.94
1.87415294849383
% es.Ey (V/m) @ t=0.94
0.07210674481040133
% es.Ez (V/m) @ t=0.94
-0.9301866013475528
% es.tEx (V/m) @ t=0.94
1.874152948493835
% es.tEy (V/m) @ t=0.94
0
% es.tEz (V/m) @ t=0.94
-0.9301866013475504
% V (V) @ t=0.94
0.009498477141805748
% es.normE (V/m) @ t=0.96
2.112589306036753
% es.EX (V/m) @ t=0.96
1.8912093352711752
% es.EY (V/m) @ t=0.96
0.0727635253711307
% es.EZ (V/m) @ t=0.96
-0.9386512854440817
% es.tEX (V/m) @ t=0.96
1.8912093352711663
% es.tEY (V/m) @ t=0.96
0
% es.tEZ (V/m) @ t=0.96
-0.9386512854440809
% es.Ex (V/m) @ t=0.96
1.8912093352711752
% es.Ey (V/m) @ t=0.96
0.0727635253711307
% es.Ez (V/m) @ t=0.96
-0.9386512854440817
% es.tEx (V/m) @ t=0.96
1.8912093352711663
% es.tEy (V/m) @ t=0.96
0
% es.tEz (V/m) @ t=0.96
-0.9386512854440809
% V (V) @ t=0.96
0.009584892098082522
% es.normE (V/m) @ t=0.98
2.1316419324351386
% es.EX (V/m) @ t=0.98
1.9082657220484989
% es.EY (V/m) @ t=0.98
0.07342030593187343
% es.EZ (V/m) @ t=0.98
-0.9471159695406035
% es.tEX (V/m) @ t=0.98
1.9082657220484966
% es.tEY (V/m) @ t=0.98
0
% es.tEZ (V/m) @ t=0.98
-0.9471159695406115
% es.Ex (V/m) @ t=0.98
1.9082657220484989
% es.Ey (V/m) @ t=0.98
0.07342030593187343
% es.Ez (V/m) @ t=0.98
-0.9471159695406035
% es.tEx (V/m) @ t=0.98
1.9082657220484966
% es.tEy (V/m) @ t=0.98
0
% es.tEz (V/m) @ t=0.98
-0.9471159695406115
% V (V) @ t=0.98
0.009671307054359299
% es.normE (V/m) @ t=1
2.1506945588339454
% es.EX (V/m) @ t=1
1.9253221088258297
% es.EY (V/m) @ t=1
0.0740770864926002
% es.EZ (V/m) @ t=1
-0.9555806536371396
% es.tEX (V/m) @ t=1
1.9253221088258199
% es.tEY (V/m) @ t=1
0
% es.tEZ (V/m) @ t=1
-0.9555806536371279
% es.Ex (V/m) @ t=1
1.9253221088258297
% es.Ey (V/m) @ t=1
0.0740770864926002
% es.Ez (V/m) @ t=1
-0.9555806536371396
% es.tEx (V/m) @ t=1
1.9253221088258199
% es.tEy (V/m) @ t=1
0
% es.tEz (V/m) @ t=1
-0.9555806536371279
% V (V) @ t=1
0.009757722010636074
% es.normE (V/m) @ t=1.02
2.1697471852331387
% es.EX (V/m) @ t=1.02
1.9423784956031538
% es.EY (V/m) @ t=1.02
0.07473386705332338
% es.EZ (V/m) @ t=1.02
-0.9640453377336615
% es.tEX (V/m) @ t=1.02
1.9423784956031431
% es.tEY (V/m) @ t=1.02
0
% es.tEZ (V/m) @ t=1.02
-0.9640453377336513
% es.Ex (V/m) @ t=1.02
1.9423784956031538
% es.Ey (V/m) @ t=1.02
0.07473386705332338
% es.Ez (V/m) @ t=1.02
-0.9640453377336615
% es.tEx (V/m) @ t=1.02
1.9423784956031431
% es.tEy (V/m) @ t=1.02
0
% es.tEz (V/m) @ t=1.02
-0.9640453377336513
% V (V) @ t=1.02
0.009844136966912848
% es.normE (V/m) @ t=1.04
2.1887998116327294
% es.EX (V/m) @ t=1.04
1.9594348823804848
% es.EY (V/m) @ t=1.04
0.07539064761407854
% es.EZ (V/m) @ t=1.04
-0.9725100218301869
% es.tEX (V/m) @ t=1.04