% Model:              1 neuron.mph
% Version:            COMSOL 6.0.0.405
% Date:               Mar 9 2023, 13:37
% Dimension:          0
% Nodes:              14017
% Expressions:        14017
% Description:        Electric field norm, Electric field, X component, Electric field, Y component, Electric field, Z component, Tangential electric field, X component, Tangential electric field, Y component, Tangential electric field, Z component, Electric field, x component, Electric field, y component, Electric field, z component, Tangential electric field, x component, Tangential electric field, y component, Tangential electric field, z component, Electric potential
% Length unit:        mm
% x
2
% y
12.2
% z
1.6599999999999997
% es.normE (V/m) @ t=0
1.2711407462920699
% es.EX (V/m) @ t=0
-1.2282582782227278
% es.EY (V/m) @ t=0
0.09462036980636507
% es.EZ (V/m) @ t=0
-0.3130492371489171
% es.tEX (V/m) @ t=0
-1.2282582782227234
% es.tEY (V/m) @ t=0
0
% es.tEZ (V/m) @ t=0
-0.31304923714891686
% es.Ex (V/m) @ t=0
-1.2282582782227278
% es.Ey (V/m) @ t=0
0.09462036980636507
% es.Ez (V/m) @ t=0
-0.3130492371489171
% es.tEx (V/m) @ t=0
-1.2282582782227234
% es.tEy (V/m) @ t=0
0
% es.tEz (V/m) @ t=0
-0.31304923714891686
% V (V) @ t=0
0.007366532630029987
% es.normE (V/m) @ t=0.02
1.0979066477012396
% es.EX (V/m) @ t=0.02
-1.0608683039455649
% es.EY (V/m) @ t=0.02
0.08172528365146647
% es.EZ (V/m) @ t=0.02
-0.2703861413768678
% es.tEX (V/m) @ t=0.02
-1.060868303945572
% es.tEY (V/m) @ t=0.02
0
% es.tEZ (V/m) @ t=0.02
-0.27038614137686867
% es.Ex (V/m) @ t=0.02
-1.0608683039455649
% es.Ey (V/m) @ t=0.02
0.08172528365146647
% es.Ez (V/m) @ t=0.02
-0.2703861413768678
% es.tEx (V/m) @ t=0.02
-1.060868303945572
% es.tEy (V/m) @ t=0.02
0
% es.tEz (V/m) @ t=0.02
-0.27038614137686867
% V (V) @ t=0.02
0.006362603834641864
% es.normE (V/m) @ t=0.04
1.108002961264007
% es.EX (V/m) @ t=0.04
-1.070624014383696
% es.EY (V/m) @ t=0.04
0.08247682544928092
% es.EZ (V/m) @ t=0.04
-0.27287260278679937
% es.tEX (V/m) @ t=0.04
-1.0706240143837018
% es.tEY (V/m) @ t=0.04
0
% es.tEZ (V/m) @ t=0.04
-0.27287260278679515
% es.Ex (V/m) @ t=0.04
-1.070624014383696
% es.Ey (V/m) @ t=0.04
0.08247682544928092
% es.Ez (V/m) @ t=0.04
-0.27287260278679937
% es.tEx (V/m) @ t=0.04
-1.0706240143837018
% es.tEy (V/m) @ t=0.04
0
% es.tEz (V/m) @ t=0.04
-0.27287260278679515
% V (V) @ t=0.04
0.006421114169237307
% es.normE (V/m) @ t=0.06
1.1181913723915424
% es.EX (V/m) @ t=0.06
-1.0804687160419224
% es.EY (V/m) @ t=0.06
0.08323522022823515
% es.EZ (V/m) @ t=0.06
-0.27538174385120917
% es.tEX (V/m) @ t=0.06
-1.0804687160419206
% es.tEY (V/m) @ t=0.06
0
% es.tEZ (V/m) @ t=0.06
-0.2753817438511996
% es.Ex (V/m) @ t=0.06
-1.0804687160419224
% es.Ey (V/m) @ t=0.06
0.08323522022823515
% es.Ez (V/m) @ t=0.06
-0.27538174385120917
% es.tEx (V/m) @ t=0.06
-1.0804687160419206
% es.tEy (V/m) @ t=0.06
0
% es.tEz (V/m) @ t=0.06
-0.2753817438511996
% V (V) @ t=0.06
0.0064801583094018875
% es.normE (V/m) @ t=0.08
1.1285326546684096
% es.EX (V/m) @ t=0.08
-1.090461125170267
% es.EY (V/m) @ t=0.08
0.08400502197013765
% es.EZ (V/m) @ t=0.08
-0.27792855021521623
% es.tEX (V/m) @ t=0.08
-1.0904611251702594
% es.tEY (V/m) @ t=0.08
0
% es.tEZ (V/m) @ t=0.08
-0.27792855021522467
% es.Ex (V/m) @ t=0.08
-1.090461125170267
% es.Ey (V/m) @ t=0.08
0.08400502197013765
% es.Ez (V/m) @ t=0.08
-0.27792855021521623
% es.tEx (V/m) @ t=0.08
-1.0904611251702594
% es.tEy (V/m) @ t=0.08
0
% es.tEz (V/m) @ t=0.08
-0.27792855021522467
% V (V) @ t=0.08
0.006540087493897725
% es.normE (V/m) @ t=0.1
1.1389854566615782
% es.EX (V/m) @ t=0.1
-1.1005612871037358
% es.EY (V/m) @ t=0.1
0.08478314510737633
% es.EZ (V/m) @ t=0.1
-0.2805028334677293
% es.tEX (V/m) @ t=0.1
-1.1005612871037354
% es.tEY (V/m) @ t=0.1
0
% es.tEZ (V/m) @ t=0.1
-0.28050283346772886
% es.Ex (V/m) @ t=0.1
-1.1005612871037358
% es.Ey (V/m) @ t=0.1
0.08478314510737633
% es.Ez (V/m) @ t=0.1
-0.2805028334677293
% es.tEx (V/m) @ t=0.1
-1.1005612871037354
% es.tEy (V/m) @ t=0.1
0
% es.tEz (V/m) @ t=0.1
-0.28050283346772886
% V (V) @ t=0.1
0.006600662319465643
% es.normE (V/m) @ t=0.12
1.1494382586547527
% es.EX (V/m) @ t=0.12
-1.1106614490372095
% es.EY (V/m) @ t=0.12
0.08556126824461496
% es.EZ (V/m) @ t=0.12
-0.28307711672023705
% es.tEX (V/m) @ t=0.12
-1.110661449037213
% es.tEY (V/m) @ t=0.12
0
% es.tEZ (V/m) @ t=0.12
-0.28307711672023217
% es.Ex (V/m) @ t=0.12
-1.1106614490372095
% es.Ey (V/m) @ t=0.12
0.08556126824461496
% es.Ez (V/m) @ t=0.12
-0.28307711672023705
% es.tEx (V/m) @ t=0.12
-1.110661449037213
% es.tEy (V/m) @ t=0.12
0
% es.tEz (V/m) @ t=0.12
-0.28307711672023217
% V (V) @ t=0.12
0.006661237145033561
% es.normE (V/m) @ t=0.14
1.1599842418559043
% es.EX (V/m) @ t=0.14
-1.1208516521884748
% es.EY (V/m) @ t=0.14
0.08634631259298292
% es.EZ (V/m) @ t=0.14
-0.285674338880493
% es.tEX (V/m) @ t=0.14
-1.1208516521884775
% es.tEY (V/m) @ t=0.14
0
% es.tEZ (V/m) @ t=0.14
-0.2856743388804972
% es.Ex (V/m) @ t=0.14
-1.1208516521884748
% es.Ey (V/m) @ t=0.14
0.08634631259298292
% es.Ez (V/m) @ t=0.14
-0.285674338880493
% es.tEx (V/m) @ t=0.14
-1.1208516521884775
% es.tEy (V/m) @ t=0.14
0
% es.tEz (V/m) @ t=0.14
-0.2856743388804972
% V (V) @ t=0.14
0.006722352449685978
% es.normE (V/m) @ t=0.16
1.1709970332259179
% es.EX (V/m) @ t=0.16
-1.131492933158023
% es.EY (V/m) @ t=0.16
0.08716603000446366
% es.EZ (V/m) @ t=0.16
-0.28838647766132497
% es.tEX (V/m) @ t=0.16
-1.13149293315802
% es.tEY (V/m) @ t=0.16
0
% es.tEZ (V/m) @ t=0.16
-0.2883864776613212
% es.Ex (V/m) @ t=0.16
-1.131492933158023
% es.Ey (V/m) @ t=0.16
0.08716603000446366
% es.Ez (V/m) @ t=0.16
-0.28838647766132497
% es.tEx (V/m) @ t=0.16
-1.13149293315802
% es.tEy (V/m) @ t=0.16
0
% es.tEz (V/m) @ t=0.16
-0.2883864776613212
% V (V) @ t=0.16
0.006786175382380248
% es.normE (V/m) @ t=0.18
1.182009824595935
% es.EX (V/m) @ t=0.18
-1.1421342141275743
% es.EY (V/m) @ t=0.18
0.08798574741590792
% es.EZ (V/m) @ t=0.18
-0.29109861644215873
% es.tEX (V/m) @ t=0.18
-1.1421342141275765
% es.tEY (V/m) @ t=0.18
0
% es.tEZ (V/m) @ t=0.18
-0.2910986164421523
% es.Ex (V/m) @ t=0.18
-1.1421342141275743
% es.Ey (V/m) @ t=0.18
0.08798574741590792
% es.Ez (V/m) @ t=0.18
-0.29109861644215873
% es.tEx (V/m) @ t=0.18
-1.1421342141275765
% es.tEy (V/m) @ t=0.18
0
% es.tEz (V/m) @ t=0.18
-0.2910986164421523
% V (V) @ t=0.18
0.00684999831507452
% es.normE (V/m) @ t=0.2
1.193022615965944
% es.EX (V/m) @ t=0.2
-1.1527754950971136
% es.EY (V/m) @ t=0.2
0.08880546482737628
% es.EZ (V/m) @ t=0.2
-0.2938107552229887
% es.tEX (V/m) @ t=0.2
-1.1527754950971119
% es.tEY (V/m) @ t=0.2
0
% es.tEZ (V/m) @ t=0.2
-0.29381075522297984
% es.Ex (V/m) @ t=0.2
-1.1527754950971136
% es.Ey (V/m) @ t=0.2
0.08880546482737628
% es.Ez (V/m) @ t=0.2
-0.2938107552229887
% es.tEx (V/m) @ t=0.2
-1.1527754950971119
% es.tEy (V/m) @ t=0.2
0
% es.tEz (V/m) @ t=0.2
-0.29381075522297984
% V (V) @ t=0.2
0.00691382124776879
% es.normE (V/m) @ t=0.22
1.2040354073359505
% es.EX (V/m) @ t=0.22
-1.163416776066645
% es.EY (V/m) @ t=0.22
0.08962518223884802
% es.EZ (V/m) @ t=0.22
-0.29652289400382825
% es.tEX (V/m) @ t=0.22
-1.163416776066656
% es.tEY (V/m) @ t=0.22
0
% es.tEZ (V/m) @ t=0.22
-0.2965228940038287
% es.Ex (V/m) @ t=0.22
-1.163416776066645
% es.Ey (V/m) @ t=0.22
0.08962518223884802
% es.Ez (V/m) @ t=0.22
-0.29652289400382825
% es.tEx (V/m) @ t=0.22
-1.163416776066656
% es.tEy (V/m) @ t=0.22
0
% es.tEz (V/m) @ t=0.22
-0.2965228940038287
% V (V) @ t=0.22
0.006977644180463062
% es.normE (V/m) @ t=0.24
1.2150481987059711
% es.EX (V/m) @ t=0.24
-1.174058057036195
% es.EY (V/m) @ t=0.24
0.09044489965030744
% es.EZ (V/m) @ t=0.24
-0.2992350327846467
% es.tEX (V/m) @ t=0.24
-1.1740580570361931
% es.tEY (V/m) @ t=0.24
0
% es.tEZ (V/m) @ t=0.24
-0.29923503278464914
% es.Ex (V/m) @ t=0.24
-1.174058057036195
% es.Ey (V/m) @ t=0.24
0.09044489965030744
% es.Ez (V/m) @ t=0.24
-0.2992350327846467
% es.tEx (V/m) @ t=0.24
-1.1740580570361931
% es.tEy (V/m) @ t=0.24
0
% es.tEz (V/m) @ t=0.24
-0.29923503278464914
% V (V) @ t=0.24
0.007041467113157332
% es.normE (V/m) @ t=0.26
1.226060990075995
% es.EX (V/m) @ t=0.26
-1.1846993380057391
% es.EY (V/m) @ t=0.26
0.09126461706177041
% es.EZ (V/m) @ t=0.26
-0.30194717156548934
% es.tEX (V/m) @ t=0.26
-1.1846993380057427
% es.tEY (V/m) @ t=0.26
0
% es.tEZ (V/m) @ t=0.26
-0.3019471715654891
% es.Ex (V/m) @ t=0.26
-1.1846993380057391
% es.Ey (V/m) @ t=0.26
0.09126461706177041
% es.Ez (V/m) @ t=0.26
-0.30194717156548934
% es.tEx (V/m) @ t=0.26
-1.1846993380057427
% es.tEy (V/m) @ t=0.26
0
% es.tEz (V/m) @ t=0.26
-0.3019471715654891
% V (V) @ t=0.26
0.007105290045851603
% es.normE (V/m) @ t=0.28
1.2375057724255796
% es.EX (V/m) @ t=0.28
-1.1957580612978074
% es.EY (V/m) @ t=0.28
0.09211638502157005
% es.EZ (V/m) @ t=0.28
-0.30476563384818944
% es.tEX (V/m) @ t=0.28
-1.1957580612978074
% es.tEY (V/m) @ t=0.28
0
% es.tEZ (V/m) @ t=0.28
-0.30476563384819144
% es.Ex (V/m) @ t=0.28
-1.1957580612978074
% es.Ey (V/m) @ t=0.28
0.09211638502157005
% es.Ez (V/m) @ t=0.28
-0.30476563384818944
% es.tEx (V/m) @ t=0.28
-1.1957580612978074
% es.tEy (V/m) @ t=0.28
0
% es.tEz (V/m) @ t=0.28
-0.30476563384819144
% V (V) @ t=0.28
0.007171619806319647
% es.normE (V/m) @ t=0.3
1.2497787774459437
% es.EX (V/m) @ t=0.3
-1.207617114253173
% es.EY (V/m) @ t=0.3
0.09302960100225216
% es.EZ (V/m) @ t=0.3
-0.3077879419027507
% es.tEX (V/m) @ t=0.3
-1.207617114253182
% es.tEY (V/m) @ t=0.3
0
% es.tEZ (V/m) @ t=0.3
-0.3077879419027525
% es.Ex (V/m) @ t=0.3
-1.207617114253173
% es.Ey (V/m) @ t=0.3
0.09302960100225216
% es.Ez (V/m) @ t=0.3
-0.3077879419027507
% es.tEx (V/m) @ t=0.3
-1.207617114253182
% es.tEy (V/m) @ t=0.3
0
% es.tEz (V/m) @ t=0.3
-0.3077879419027525
% V (V) @ t=0.3
0.007242755712498984
% es.normE (V/m) @ t=0.32
1.2620517824664548
% es.EX (V/m) @ t=0.32
-1.219476167208537
% es.EY (V/m) @ t=0.32
0.09394281698294754
% es.EZ (V/m) @ t=0.32
-0.31081024995734574
% es.tEX (V/m) @ t=0.32
-1.2194761672085423
% es.tEY (V/m) @ t=0.32
0
% es.tEZ (V/m) @ t=0.32
-0.31081024995735085
% es.Ex (V/m) @ t=0.32
-1.219476167208537
% es.Ey (V/m) @ t=0.32
0.09394281698294754
% es.Ez (V/m) @ t=0.32
-0.31081024995734574
% es.tEx (V/m) @ t=0.32
-1.2194761672085423
% es.tEy (V/m) @ t=0.32
0
% es.tEz (V/m) @ t=0.32
-0.31081024995735085
% V (V) @ t=0.32
0.00731389161867832
% es.normE (V/m) @ t=0.34
1.2743247874871124
% es.EX (V/m) @ t=0.34
-1.2313352201639205
% es.EY (V/m) @ t=0.34
0.09485603296363593
% es.EZ (V/m) @ t=0.34
-0.313832558011913
% es.tEX (V/m) @ t=0.34
-1.231335220163924
% es.tEY (V/m) @ t=0.34
0
% es.tEZ (V/m) @ t=0.34
-0.3138325580119119
% es.Ex (V/m) @ t=0.34
-1.2313352201639205
% es.Ey (V/m) @ t=0.34
0.09485603296363593
% es.Ez (V/m) @ t=0.34
-0.313832558011913
% es.tEx (V/m) @ t=0.34
-1.231335220163924
% es.tEy (V/m) @ t=0.34
0
% es.tEz (V/m) @ t=0.34
-0.3138325580119119
% V (V) @ t=0.34
0.007385027524857656
% es.normE (V/m) @ t=0.36
1.286597792507873
% es.EX (V/m) @ t=0.36
-1.2431942731192729
% es.EY (V/m) @ t=0.36
0.09576924894431621
% es.EZ (V/m) @ t=0.36
-0.31685486606649294
% es.tEX (V/m) @ t=0.36
-1.2431942731192915
% es.tEY (V/m) @ t=0.36
0
% es.tEZ (V/m) @ t=0.36
-0.3168548660664978
% es.Ex (V/m) @ t=0.36
-1.2431942731192729
% es.Ey (V/m) @ t=0.36
0.09576924894431621
% es.Ez (V/m) @ t=0.36
-0.31685486606649294
% es.tEx (V/m) @ t=0.36
-1.2431942731192915
% es.tEy (V/m) @ t=0.36
0
% es.tEz (V/m) @ t=0.36
-0.3168548660664978
% V (V) @ t=0.36
0.007456163431036992
% es.normE (V/m) @ t=0.38
1.2988707975287932
% es.EX (V/m) @ t=0.38
-1.2550533260746572
% es.EY (V/m) @ t=0.38
0.0966824649250001
% es.EZ (V/m) @ t=0.38
-0.31987717412107464
% es.tEX (V/m) @ t=0.38
-1.255053326074652
% es.tEY (V/m) @ t=0.38
0
% es.tEZ (V/m) @ t=0.38
-0.31987717412108374
% es.Ex (V/m) @ t=0.38
-1.2550533260746572
% es.Ey (V/m) @ t=0.38
0.0966824649250001
% es.Ez (V/m) @ t=0.38
-0.31987717412107464
% es.tEx (V/m) @ t=0.38
-1.255053326074652
% es.tEy (V/m) @ t=0.38
0
% es.tEz (V/m) @ t=0.38
-0.31987717412108374
% V (V) @ t=0.38
0.007527299337216327
% es.normE (V/m) @ t=0.4
1.3111438025498057
% es.EX (V/m) @ t=0.4
-1.2669123790300096
% es.EY (V/m) @ t=0.4
0.09759568090569021
% es.EZ (V/m) @ t=0.4
-0.322899482175651
% es.tEX (V/m) @ t=0.4
-1.2669123790300194
% es.tEY (V/m) @ t=0.4
0
% es.tEZ (V/m) @ t=0.4
-0.3228994821756537
% es.Ex (V/m) @ t=0.4
-1.2669123790300096
% es.Ey (V/m) @ t=0.4
0.09759568090569021
% es.Ez (V/m) @ t=0.4
-0.322899482175651
% es.tEx (V/m) @ t=0.4
-1.2669123790300194
% es.tEy (V/m) @ t=0.4
0
% es.tEz (V/m) @ t=0.4
-0.3228994821756537
% V (V) @ t=0.4
0.007598435243395664
% es.normE (V/m) @ t=0.42
1.3234168075709616
% es.EX (V/m) @ t=0.42
-1.2787714319853833
% es.EY (V/m) @ t=0.42
0.09850889688638298
% es.EZ (V/m) @ t=0.42
-0.32592179023023804
% es.tEX (V/m) @ t=0.42
-1.278771431985387
% es.tEY (V/m) @ t=0.42
0
% es.tEZ (V/m) @ t=0.42
-0.32592179023023604
% es.Ex (V/m) @ t=0.42
-1.2787714319853833
% es.Ey (V/m) @ t=0.42
0.09850889688638298
% es.Ez (V/m) @ t=0.42
-0.32592179023023804
% es.tEx (V/m) @ t=0.42
-1.278771431985387
% es.tEy (V/m) @ t=0.42
0
% es.tEz (V/m) @ t=0.42
-0.32592179023023604
% V (V) @ t=0.42
0.007669571149574999
% es.normE (V/m) @ t=0.44
1.3356898125922325
% es.EX (V/m) @ t=0.44
-1.2906304849407606
% es.EY (V/m) @ t=0.44
0.09942211286705083
% es.EZ (V/m) @ t=0.44
-0.32894409828480997
% es.tEX (V/m) @ t=0.44
-1.2906304849407615
% es.tEY (V/m) @ t=0.44
0
% es.tEZ (V/m) @ t=0.44
-0.3289440982848131
% es.Ex (V/m) @ t=0.44
-1.2906304849407606
% es.Ey (V/m) @ t=0.44
0.09942211286705083
% es.Ez (V/m) @ t=0.44
-0.32894409828480997
% es.tEx (V/m) @ t=0.44
-1.2906304849407615
% es.tEy (V/m) @ t=0.44
0
% es.tEz (V/m) @ t=0.44
-0.3289440982848131
% V (V) @ t=0.44
0.007740707055754335
% es.normE (V/m) @ t=0.46
1.3479628176136147
% es.EX (V/m) @ t=0.46
-1.3024895378961334
% es.EY (V/m) @ t=0.46
0.10033532884774993
% es.EZ (V/m) @ t=0.46
-0.3319664063393788
% es.tEX (V/m) @ t=0.46
-1.302489537896136
% es.tEY (V/m) @ t=0.46
0
% es.tEZ (V/m) @ t=0.46
-0.33196640633938124
% es.Ex (V/m) @ t=0.46
-1.3024895378961334
% es.Ey (V/m) @ t=0.46
0.10033532884774993
% es.Ez (V/m) @ t=0.46
-0.3319664063393788
% es.tEx (V/m) @ t=0.46
-1.302489537896136
% es.tEy (V/m) @ t=0.46
0
% es.tEz (V/m) @ t=0.46
-0.33196640633938124
% V (V) @ t=0.46
0.007811842961933672
% es.normE (V/m) @ t=0.48
1.360235822635111
% es.EX (V/m) @ t=0.48
-1.3143485908515045
% es.EY (V/m) @ t=0.48
0.10124854482843376
% es.EZ (V/m) @ t=0.48
-0.33498871439397293
% es.tEX (V/m) @ t=0.48
-1.3143485908514823
% es.tEY (V/m) @ t=0.48
0
% es.tEZ (V/m) @ t=0.48
-0.3349887143939725
% es.Ex (V/m) @ t=0.48
-1.3143485908515045
% es.Ey (V/m) @ t=0.48
0.10124854482843376
% es.Ez (V/m) @ t=0.48
-0.33498871439397293
% es.tEx (V/m) @ t=0.48
-1.3143485908514823
% es.tEy (V/m) @ t=0.48
0
% es.tEz (V/m) @ t=0.48
-0.3349887143939725
% V (V) @ t=0.48
0.007882978868113007
% es.normE (V/m) @ t=0.5
1.3725088276567057
% es.EX (V/m) @ t=0.5
-1.326207643806871
% es.EY (V/m) @ t=0.5
0.10216176080911854
% es.EZ (V/m) @ t=0.5
-0.33801102244854664
% es.tEX (V/m) @ t=0.5
-1.3262076438068728
% es.tEY (V/m) @ t=0.5
0
% es.tEZ (V/m) @ t=0.5
-0.33801102244854775
% es.Ex (V/m) @ t=0.5
-1.326207643806871
% es.Ey (V/m) @ t=0.5
0.10216176080911854
% es.Ez (V/m) @ t=0.5
-0.33801102244854664
% es.tEx (V/m) @ t=0.5
-1.3262076438068728
% es.tEy (V/m) @ t=0.5
0
% es.tEz (V/m) @ t=0.5
-0.33801102244854775
% V (V) @ t=0.5
0.007954114774292342
% es.normE (V/m) @ t=0.52
1.384781832678402
% es.EX (V/m) @ t=0.52
-1.338066696762234
% es.EY (V/m) @ t=0.52
0.1030749767898051
% es.EZ (V/m) @ t=0.52
-0.34103333050311924
% es.tEX (V/m) @ t=0.52
-1.3380666967622403
% es.tEY (V/m) @ t=0.52
0
% es.tEZ (V/m) @ t=0.52
-0.3410333305031159
% es.Ex (V/m) @ t=0.52
-1.338066696762234
% es.Ey (V/m) @ t=0.52
0.1030749767898051
% es.Ez (V/m) @ t=0.52
-0.34103333050311924
% es.tEx (V/m) @ t=0.52
-1.3380666967622403
% es.tEy (V/m) @ t=0.52
0
% es.tEz (V/m) @ t=0.52
-0.3410333305031159
% V (V) @ t=0.52
0.008025250680471677
% es.normE (V/m) @ t=0.54
1.3970548377002123
% es.EX (V/m) @ t=0.54
-1.3499257497176043
% es.EY (V/m) @ t=0.54
0.1039881927705067
% es.EZ (V/m) @ t=0.54
-0.34405563855770804
% es.tEX (V/m) @ t=0.54
-1.3499257497175936
% es.tEY (V/m) @ t=0.54
0
% es.tEZ (V/m) @ t=0.54
-0.3440556385577054
% es.Ex (V/m) @ t=0.54
-1.3499257497176043
% es.Ey (V/m) @ t=0.54
0.1039881927705067
% es.Ez (V/m) @ t=0.54
-0.34405563855770804
% es.tEx (V/m) @ t=0.54
-1.3499257497175936
% es.tEy (V/m) @ t=0.54
0
% es.tEz (V/m) @ t=0.54
-0.3440556385577054
% V (V) @ t=0.54
0.008096386586651015
% es.normE (V/m) @ t=0.56
1.4103229663650279
% es.EX (V/m) @ t=0.56
-1.3627465855297176
% es.EY (V/m) @ t=0.56
0.10497449764324529
% es.EZ (V/m) @ t=0.56
-0.3473224182060557
% es.tEX (V/m) @ t=0.56
-1.3627465855297292
% es.tEY (V/m) @ t=0.56
0
% es.tEZ (V/m) @ t=0.56
-0.3473224182060566
% es.Ex (V/m) @ t=0.56
-1.3627465855297176
% es.Ey (V/m) @ t=0.56
0.10497449764324529
% es.Ez (V/m) @ t=0.56
-0.3473224182060557
% es.tEx (V/m) @ t=0.56
-1.3627465855297292
% es.tEy (V/m) @ t=0.56
0
% es.tEz (V/m) @ t=0.56
-0.3473224182060566
% V (V) @ t=0.56
0.008173320592265077
% es.normE (V/m) @ t=0.58
1.424026611629356
% es.EX (V/m) @ t=0.58
-1.375988346319141
% es.EY (V/m) @ t=0.58
0.10599278992353434
% es.EZ (V/m) @ t=0.58
-0.3506961910278925
% es.tEX (V/m) @ t=0.58
-1.3759883463191311
% es.tEY (V/m) @ t=0.58
0
% es.tEZ (V/m) @ t=0.58
-0.3506961910278914
% es.Ex (V/m) @ t=0.58
-1.375988346319141
% es.Ey (V/m) @ t=0.58
0.10599278992353434
% es.Ez (V/m) @ t=0.58
-0.3506961910278925
% es.tEx (V/m) @ t=0.58
-1.3759883463191311
% es.tEy (V/m) @ t=0.58
0
% es.tEz (V/m) @ t=0.58
-0.3506961910278914
% V (V) @ t=0.58
0.008252792140377099
% es.normE (V/m) @ t=0.6
1.4377302568965713
% es.EX (V/m) @ t=0.6
-1.389230107108557
% es.EY (V/m) @ t=0.6
0.10701108220383498
% es.EZ (V/m) @ t=0.6
-0.35406996384975153
% es.tEX (V/m) @ t=0.6
-1.3892301071085615
% es.tEY (V/m) @ t=0.6
0
% es.tEZ (V/m) @ t=0.6
-0.35406996384974576
% es.Ex (V/m) @ t=0.6
-1.389230107108557
% es.Ey (V/m) @ t=0.6
0.10701108220383498
% es.Ez (V/m) @ t=0.6
-0.35406996384975153
% es.tEx (V/m) @ t=0.6
-1.3892301071085615
% es.tEy (V/m) @ t=0.6
0
% es.tEz (V/m) @ t=0.6
-0.35406996384974576
% V (V) @ t=0.6
0.008332263688489125
% es.normE (V/m) @ t=0.62
1.4514339021665834
% es.EX (V/m) @ t=0.62
-1.402471867897968
% es.EY (V/m) @ t=0.62
0.10802937448413924
% es.EZ (V/m) @ t=0.62
-0.35744373667159524
% es.tEX (V/m) @ t=0.62
-1.4024718678979564
% es.tEY (V/m) @ t=0.62
0
% es.tEZ (V/m) @ t=0.62
-0.35744373667159124
% es.Ex (V/m) @ t=0.62
-1.402471867897968
% es.Ey (V/m) @ t=0.62
0.10802937448413924
% es.Ez (V/m) @ t=0.62
-0.35744373667159524
% es.tEx (V/m) @ t=0.62
-1.4024718678979564
% es.tEy (V/m) @ t=0.62
0
% es.tEz (V/m) @ t=0.62
-0.35744373667159124
% V (V) @ t=0.62
0.008411735236601147
% es.normE (V/m) @ t=0.64
1.4651375474393187
% es.EX (V/m) @ t=0.64
-1.4157136286873806
% es.EY (V/m) @ t=0.64
0.10904766676441413
% es.EZ (V/m) @ t=0.64
-0.3608175094934285
% es.tEX (V/m) @ t=0.64
-1.4157136286873744
% es.tEY (V/m) @ t=0.64
0
% es.tEZ (V/m) @ t=0.64
-0.3608175094934314
% es.Ex (V/m) @ t=0.64
-1.4157136286873806
% es.Ey (V/m) @ t=0.64
0.10904766676441413
% es.Ez (V/m) @ t=0.64
-0.3608175094934285
% es.tEx (V/m) @ t=0.64
-1.4157136286873744
% es.tEy (V/m) @ t=0.64
0
% es.tEz (V/m) @ t=0.64
-0.3608175094934314
% V (V) @ t=0.64
0.00849120678471317
% es.normE (V/m) @ t=0.66
1.4788411927146936
% es.EX (V/m) @ t=0.66
-1.4289553894767693
% es.EY (V/m) @ t=0.66
0.11006595904474947
% es.EZ (V/m) @ t=0.66
-0.36419128231528997
% es.tEX (V/m) @ t=0.66
-1.4289553894767764
% es.tEY (V/m) @ t=0.66
0
% es.tEZ (V/m) @ t=0.66
-0.3641912823152911
% es.Ex (V/m) @ t=0.66
-1.4289553894767693
% es.Ey (V/m) @ t=0.66
0.11006595904474947
% es.Ez (V/m) @ t=0.66
-0.36419128231528997
% es.tEx (V/m) @ t=0.66
-1.4289553894767764
% es.tEy (V/m) @ t=0.66
0
% es.tEz (V/m) @ t=0.66
-0.3641912823152911
% V (V) @ t=0.66
0.008570678332825194
% es.normE (V/m) @ t=0.68
1.4925448379926793
% es.EX (V/m) @ t=0.68
-1.4421971502662005
% es.EY (V/m) @ t=0.68
0.11108425132504207
% es.EZ (V/m) @ t=0.68
-0.3675650551371321
% es.tEX (V/m) @ t=0.68
-1.4421971502661926
% es.tEY (V/m) @ t=0.68
0
% es.tEZ (V/m) @ t=0.68
-0.3675650551371312
% es.Ex (V/m) @ t=0.68
-1.4421971502662005
% es.Ey (V/m) @ t=0.68
0.11108425132504207
% es.Ez (V/m) @ t=0.68
-0.3675650551371321
% es.tEx (V/m) @ t=0.68
-1.4421971502661926
% es.tEy (V/m) @ t=0.68
0
% es.tEz (V/m) @ t=0.68
-0.3675650551371312
% V (V) @ t=0.68
0.008650149880937218
% es.normE (V/m) @ t=0.7
1.5062484832731338
% es.EX (V/m) @ t=0.7
-1.455438911055591
% es.EY (V/m) @ t=0.7
0.11210254360533206
% es.EZ (V/m) @ t=0.7
-0.3709388279589787
% es.tEX (V/m) @ t=0.7
-1.4554389110556034
% es.tEY (V/m) @ t=0.7
0
% es.tEZ (V/m) @ t=0.7
-0.37093882795897315
% es.Ex (V/m) @ t=0.7
-1.455438911055591
% es.Ey (V/m) @ t=0.7
0.11210254360533206
% es.Ez (V/m) @ t=0.7
-0.3709388279589787
% es.tEx (V/m) @ t=0.7
-1.4554389110556034
% es.tEy (V/m) @ t=0.7
0
% es.tEz (V/m) @ t=0.7
-0.37093882795897315
% V (V) @ t=0.7
0.008729621429049244
% es.normE (V/m) @ t=0.72
1.5199521285560782
% es.EX (V/m) @ t=0.72
-1.4686806718450356
% es.EY (V/m) @ t=0.72
0.11312083588561844
% es.EZ (V/m) @ t=0.72
-0.3743126007808164
% es.tEX (V/m) @ t=0.72
-1.4686806718450196
% es.tEY (V/m) @ t=0.72
0
% es.tEZ (V/m) @ t=0.72
-0.3743126007808204
% es.Ex (V/m) @ t=0.72
-1.4686806718450356
% es.Ey (V/m) @ t=0.72
0.11312083588561844
% es.Ez (V/m) @ t=0.72
-0.3743126007808164
% es.tEx (V/m) @ t=0.72
-1.4686806718450196
% es.tEy (V/m) @ t=0.72
0
% es.tEz (V/m) @ t=0.72
-0.3743126007808204
% V (V) @ t=0.72
0.008809092977161266
% es.normE (V/m) @ t=0.74
1.5336557738413643
% es.EX (V/m) @ t=0.74
-1.4819224326344402
% es.EY (V/m) @ t=0.74
0.11413912816594585
% es.EZ (V/m) @ t=0.74
-0.3776863736026681
% es.tEX (V/m) @ t=0.74
-1.4819224326344358
% es.tEY (V/m) @ t=0.74
0
% es.tEZ (V/m) @ t=0.74
-0.37768637360266943
% es.Ex (V/m) @ t=0.74
-1.4819224326344402
% es.Ey (V/m) @ t=0.74
0.11413912816594585
% es.Ez (V/m) @ t=0.74
-0.3776863736026681
% es.tEx (V/m) @ t=0.74
-1.4819224326344358
% es.tEy (V/m) @ t=0.74
0
% es.tEz (V/m) @ t=0.74
-0.37768637360266943
% V (V) @ t=0.74
0.00888856452527329
% es.normE (V/m) @ t=0.76
1.5473594191289675
% es.EX (V/m) @ t=0.76
-1.495164193423852
% es.EY (V/m) @ t=0.76
0.11515742044624999
% es.EZ (V/m) @ t=0.76
-0.3810601464245207
% es.tEX (V/m) @ t=0.76
-1.4951641934238467
% es.tEY (V/m) @ t=0.76
0
% es.tEZ (V/m) @ t=0.76
-0.3810601464245238
% es.Ex (V/m) @ t=0.76
-1.495164193423852
% es.Ey (V/m) @ t=0.76
0.11515742044624999
% es.Ez (V/m) @ t=0.76
-0.3810601464245207
% es.tEx (V/m) @ t=0.76
-1.4951641934238467
% es.tEy (V/m) @ t=0.76
0
% es.tEz (V/m) @ t=0.76
-0.3810601464245238
% V (V) @ t=0.76
0.008968036073385314
% es.normE (V/m) @ t=0.78
1.5610630644188044
% es.EX (V/m) @ t=0.78
-1.5084059542132504
% es.EY (V/m) @ t=0.78
0.1161757127265391
% es.EZ (V/m) @ t=0.78
-0.38443391924636394
% es.tEX (V/m) @ t=0.78
-1.5084059542132628
% es.tEY (V/m) @ t=0.78
0
% es.tEZ (V/m) @ t=0.78
-0.3844339192463586
% es.Ex (V/m) @ t=0.78
-1.5084059542132504
% es.Ey (V/m) @ t=0.78
0.1161757127265391
% es.Ez (V/m) @ t=0.78
-0.38443391924636394
% es.tEx (V/m) @ t=0.78
-1.5084059542132628
% es.tEy (V/m) @ t=0.78
0
% es.tEz (V/m) @ t=0.78
-0.3844339192463586
% V (V) @ t=0.78
0.00904750762149734
% es.normE (V/m) @ t=0.8
1.57476670971085
% es.EX (V/m) @ t=0.8
-1.5216477150026684
% es.EY (V/m) @ t=0.8
0.11719400500683091
% es.EZ (V/m) @ t=0.8
-0.38780769206819876
% es.tEX (V/m) @ t=0.8
-1.521647715002672
% es.tEY (V/m) @ t=0.8
0
% es.tEZ (V/m) @ t=0.8
-0.38780769206819876
% es.Ex (V/m) @ t=0.8
-1.5216477150026684
% es.Ey (V/m) @ t=0.8
0.11719400500683091
% es.Ez (V/m) @ t=0.8
-0.38780769206819876
% es.tEx (V/m) @ t=0.8
-1.521647715002672
% es.tEy (V/m) @ t=0.8
0
% es.tEz (V/m) @ t=0.8
-0.38780769206819876
% V (V) @ t=0.8
0.00912697916960936
% es.normE (V/m) @ t=0.82
1.5885485735899847
% es.EX (V/m) @ t=0.82
-1.5349650042344578
% es.EY (V/m) @ t=0.82
0.11821833966758988
% es.EZ (V/m) @ t=0.82
-0.39120086258667763
% es.tEX (V/m) @ t=0.82
-1.5349650042344667
% es.tEY (V/m) @ t=0.82
0
% es.tEZ (V/m) @ t=0.82
-0.3912008625866754
% es.Ex (V/m) @ t=0.82
-1.5349650042344578
% es.Ey (V/m) @ t=0.82
0.11821833966758988
% es.Ez (V/m) @ t=0.82
-0.39120086258667763
% es.tEx (V/m) @ t=0.82
-1.5349650042344667
% es.tEy (V/m) @ t=0.82
0
% es.tEz (V/m) @ t=0.82
-0.3912008625866754
% V (V) @ t=0.82
0.009206897054719873
% es.normE (V/m) @ t=0.84
1.603869421014467
% es.EX (V/m) @ t=0.84
-1.549768347320109
% es.EY (V/m) @ t=0.84
0.11936156070384424
% es.EZ (V/m) @ t=0.84
-0.39497569094066165
% es.tEX (V/m) @ t=0.84
-1.5497683473201036
% es.tEY (V/m) @ t=0.84
0
% es.tEZ (V/m) @ t=0.84
-0.3949756909406599
% es.Ex (V/m) @ t=0.84
-1.549768347320109
% es.Ey (V/m) @ t=0.84
0.11936156070384424
% es.Ez (V/m) @ t=0.84
-0.39497569094066165
% es.tEx (V/m) @ t=0.84
-1.5497683473201036
% es.tEy (V/m) @ t=0.84
0
% es.tEz (V/m) @ t=0.84
-0.3949756909406599
% V (V) @ t=0.84
0.00929559680790364
% es.normE (V/m) @ t=0.86
1.6191902684471553
% es.EX (V/m) @ t=0.86
-1.564571690405777
% es.EY (V/m) @ t=0.86
0.1205047817400614
% es.EZ (V/m) @ t=0.86
-0.39875051929463456
% es.tEX (V/m) @ t=0.86
-1.564571690405769
% es.tEY (V/m) @ t=0.86
0
% es.tEZ (V/m) @ t=0.86
-0.39875051929463723
% es.Ex (V/m) @ t=0.86
-1.564571690405777
% es.Ey (V/m) @ t=0.86
0.1205047817400614
% es.Ez (V/m) @ t=0.86
-0.39875051929463456
% es.tEx (V/m) @ t=0.86
-1.564571690405769
% es.tEy (V/m) @ t=0.86
0
% es.tEz (V/m) @ t=0.86
-0.39875051929463723
% V (V) @ t=0.86
0.009384296561087404
% es.normE (V/m) @ t=0.88
1.6345111158878218
% es.EX (V/m) @ t=0.88
-1.5793750334914485
% es.EY (V/m) @ t=0.88
0.12164800277631316
% es.EZ (V/m) @ t=0.88
-0.402525347648639
% es.tEX (V/m) @ t=0.88
-1.5793750334914538
% es.tEY (V/m) @ t=0.88
0
% es.tEZ (V/m) @ t=0.88
-0.4025253476486359
% es.Ex (V/m) @ t=0.88
-1.5793750334914485
% es.Ey (V/m) @ t=0.88
0.12164800277631316
% es.Ez (V/m) @ t=0.88
-0.402525347648639
% es.tEx (V/m) @ t=0.88
-1.5793750334914538
% es.tEy (V/m) @ t=0.88
0
% es.tEz (V/m) @ t=0.88
-0.4025253476486359
% V (V) @ t=0.88
0.00947299631427117
% es.normE (V/m) @ t=0.9
1.6498319633361864
% es.EX (V/m) @ t=0.9
-1.5941783765770818
% es.EY (V/m) @ t=0.9
0.1227912238125527
% es.EZ (V/m) @ t=0.9
-0.40630017600261503
% es.tEX (V/m) @ t=0.9
-1.5941783765770836
% es.tEY (V/m) @ t=0.9
0
% es.tEZ (V/m) @ t=0.9
-0.40630017600262036
% es.Ex (V/m) @ t=0.9
-1.5941783765770818
% es.Ey (V/m) @ t=0.9
0.1227912238125527
% es.Ez (V/m) @ t=0.9
-0.40630017600261503
% es.tEx (V/m) @ t=0.9
-1.5941783765770836
% es.tEy (V/m) @ t=0.9
0
% es.tEz (V/m) @ t=0.9
-0.40630017600262036
% V (V) @ t=0.9
0.009561696067454939
% es.normE (V/m) @ t=0.92
1.6651528107921258
% es.EX (V/m) @ t=0.92
-1.6089817196627623
% es.EY (V/m) @ t=0.92
0.12393444484880345
% es.EZ (V/m) @ t=0.92
-0.4100750043565893
% es.tEX (V/m) @ t=0.92
-1.608981719662772
% es.tEY (V/m) @ t=0.92
0
% es.tEZ (V/m) @ t=0.92
-0.41007500435658883
% es.Ex (V/m) @ t=0.92
-1.6089817196627623
% es.Ey (V/m) @ t=0.92
0.12393444484880345
% es.Ez (V/m) @ t=0.92
-0.4100750043565893
% es.tEx (V/m) @ t=0.92
-1.608981719662772
% es.tEy (V/m) @ t=0.92
0
% es.tEz (V/m) @ t=0.92
-0.41007500435658883
% V (V) @ t=0.92
0.009650395820638705
% es.normE (V/m) @ t=0.94
1.6804736582553532
% es.EX (V/m) @ t=0.94
-1.6237850627484072
% es.EY (V/m) @ t=0.94
0.12507766588504288
% es.EZ (V/m) @ t=0.94
-0.4138498327105644
% es.tEX (V/m) @ t=0.94
-1.623785062748416
% es.tEY (V/m) @ t=0.94
0
% es.tEZ (V/m) @ t=0.94
-0.4138498327105733
% es.Ex (V/m) @ t=0.94
-1.6237850627484072
% es.Ey (V/m) @ t=0.94
0.12507766588504288
% es.Ez (V/m) @ t=0.94
-0.4138498327105644
% es.tEx (V/m) @ t=0.94
-1.623785062748416
% es.tEy (V/m) @ t=0.94
0
% es.tEz (V/m) @ t=0.94
-0.4138498327105733
% V (V) @ t=0.94
0.009739095573822474
% es.normE (V/m) @ t=0.96
1.695794505725716
% es.EX (V/m) @ t=0.96
-1.638588405834061
% es.EY (V/m) @ t=0.96
0.12622088692126887
% es.EZ (V/m) @ t=0.96
-0.41762466106455376
% es.tEX (V/m) @ t=0.96
-1.6385884058340636
% es.tEY (V/m) @ t=0.96
0
% es.tEZ (V/m) @ t=0.96
-0.4176246610645524
% es.Ex (V/m) @ t=0.96
-1.638588405834061
% es.Ey (V/m) @ t=0.96
0.12622088692126887
% es.Ez (V/m) @ t=0.96
-0.41762466106455376
% es.tEx (V/m) @ t=0.96
-1.6385884058340636
% es.tEy (V/m) @ t=0.96
0
% es.tEz (V/m) @ t=0.96
-0.4176246610645524
% V (V) @ t=0.96
0.00982779532700624
% es.normE (V/m) @ t=0.98
1.7111153532030499
% es.EX (V/m) @ t=0.98
-1.6533917489197547
% es.EY (V/m) @ t=0.98
0.1273641079575073
% es.EZ (V/m) @ t=0.98
-0.4213994894185338
% es.tEX (V/m) @ t=0.98
-1.653391748919752
% es.tEY (V/m) @ t=0.98
0
% es.tEZ (V/m) @ t=0.98
-0.4213994894185191
% es.Ex (V/m) @ t=0.98
-1.6533917489197547
% es.Ey (V/m) @ t=0.98
0.1273641079575073
% es.Ez (V/m) @ t=0.98
-0.4213994894185338
% es.tEx (V/m) @ t=0.98
-1.653391748919752
% es.tEy (V/m) @ t=0.98
0
% es.tEz (V/m) @ t=0.98
-0.4213994894185191
% V (V) @ t=0.98
0.009916495080190007
% es.normE (V/m) @ t=1
1.7264362006870773
% es.EX (V/m) @ t=1
-1.6681950920053898
% es.EY (V/m) @ t=1
0.12850732899376627
% es.EZ (V/m) @ t=1
-0.42517431777251513
% es.tEX (V/m) @ t=1
-1.668195092005389
% es.tEY (V/m) @ t=1
0
% es.tEZ (V/m) @ t=1
-0.4251743177725178
% es.Ex (V/m) @ t=1
-1.6681950920053898
% es.Ey (V/m) @ t=1
0.12850732899376627
% es.Ez (V/m) @ t=1
-0.42517431777251513
% es.tEx (V/m) @ t=1
-1.668195092005389
% es.tEy (V/m) @ t=1
0
% es.tEz (V/m) @ t=1
-0.4251743177725178
% V (V) @ t=1
0.010005194833373775
% es.normE (V/m) @ t=1.02
1.7417570481776976
% es.EX (V/m) @ t=1.02
-1.6829984350910534
% es.EY (V/m) @ t=1.02
0.1296505500299887
% es.EZ (V/m) @ t=1.02
-0.42894914612648805
% es.tEX (V/m) @ t=1.02
-1.6829984350910472
% es.tEY (V/m) @ t=1.02
0
% es.tEZ (V/m) @ t=1.02
-0.42894914612648805
% es.Ex (V/m) @ t=1.02
-1.6829984350910534
% es.Ey (V/m) @ t=1.02
0.1296505500299887
% es.Ez (V/m) @ t=1.02
-0.42894914612648805
% es.tEx (V/m) @ t=1.02
-1.6829984350910472