% Model:              1 neuron.mph
% Version:            COMSOL 6.0.0.405
% Date:               Mar 9 2023, 13:44
% Dimension:          0
% Nodes:              14017
% Expressions:        14017
% Description:        Electric field norm, Electric field, X component, Electric field, Y component, Electric field, Z component, Tangential electric field, X component, Tangential electric field, Y component, Tangential electric field, Z component, Electric field, x component, Electric field, y component, Electric field, z component, Tangential electric field, x component, Tangential electric field, y component, Tangential electric field, z component, Electric potential
% Length unit:        mm
% x
1.33
% y
12.2
% z
2
% es.normE (V/m) @ t=0
1.4559055371066523
% es.EX (V/m) @ t=0
0.5802356677039924
% es.EY (V/m) @ t=0
0.15340316456781267
% es.EZ (V/m) @ t=0
-1.325267069229267
% es.tEX (V/m) @ t=0
0.5802356677039926
% es.tEY (V/m) @ t=0
0
% es.tEZ (V/m) @ t=0
-1.3252670692292696
% es.Ex (V/m) @ t=0
0.5802356677039924
% es.Ey (V/m) @ t=0
0.15340316456781267
% es.Ez (V/m) @ t=0
-1.325267069229267
% es.tEx (V/m) @ t=0
0.5802356677039926
% es.tEy (V/m) @ t=0
0
% es.tEz (V/m) @ t=0
-1.3252670692292696
% V (V) @ t=0
0.00727965585306033
% es.normE (V/m) @ t=0.02
1.2574922307257035
% es.EX (V/m) @ t=0.02
0.5011601535961703
% es.EY (V/m) @ t=0.02
0.13249712307580452
% es.EZ (V/m) @ t=0.02
-1.1446573975695102
% es.tEX (V/m) @ t=0.02
0.5011601535961705
% es.tEY (V/m) @ t=0.02
0
% es.tEZ (V/m) @ t=0.02
-1.1446573975695138
% es.Ex (V/m) @ t=0.02
0.5011601535961703
% es.Ey (V/m) @ t=0.02
0.13249712307580452
% es.Ez (V/m) @ t=0.02
-1.1446573975695102
% es.tEx (V/m) @ t=0.02
0.5011601535961705
% es.tEy (V/m) @ t=0.02
0
% es.tEz (V/m) @ t=0.02
-1.1446573975695138
% V (V) @ t=0.02
0.006287571710433287
% es.normE (V/m) @ t=0.04
1.2690573218782975
% es.EX (V/m) @ t=0.04
0.5057692915129774
% es.EY (V/m) @ t=0.04
0.1337157224868588
% es.EZ (V/m) @ t=0.04
-1.1551847526661554
% es.tEX (V/m) @ t=0.04
0.5057692915129777
% es.tEY (V/m) @ t=0.04
0
% es.tEZ (V/m) @ t=0.04
-1.155184752666159
% es.Ex (V/m) @ t=0.04
0.5057692915129774
% es.Ey (V/m) @ t=0.04
0.1337157224868588
% es.Ez (V/m) @ t=0.04
-1.1551847526661554
% es.tEx (V/m) @ t=0.04
0.5057692915129777
% es.tEy (V/m) @ t=0.04
0
% es.tEz (V/m) @ t=0.04
-1.155184752666159
% V (V) @ t=0.04
0.006345397343276294
% es.normE (V/m) @ t=0.06
1.2807264301648429
% es.EX (V/m) @ t=0.06
0.5104198815656209
% es.EY (V/m) @ t=0.06
0.1349452956650934
% es.EZ (V/m) @ t=0.06
-1.1658067914539103
% es.tEX (V/m) @ t=0.06
0.5104198815656176
% es.tEY (V/m) @ t=0.06
0
% es.tEZ (V/m) @ t=0.06
-1.1658067914539103
% es.Ex (V/m) @ t=0.06
0.5104198815656209
% es.Ey (V/m) @ t=0.06
0.1349452956650934
% es.Ez (V/m) @ t=0.06
-1.1658067914539103
% es.tEx (V/m) @ t=0.06
0.5104198815656176
% es.tEy (V/m) @ t=0.06
0
% es.tEz (V/m) @ t=0.06
-1.1658067914539103
% V (V) @ t=0.06
0.00640374268620437
% es.normE (V/m) @ t=0.08
1.2925742046460187
% es.EX (V/m) @ t=0.08
0.5151416821952488
% es.EY (V/m) @ t=0.08
0.13619366901756091
% es.EZ (V/m) @ t=0.08
-1.1765914646725433
% es.tEX (V/m) @ t=0.08
0.515141682195249
% es.tEY (V/m) @ t=0.08
0
% es.tEZ (V/m) @ t=0.08
-1.176591464672546
% es.Ex (V/m) @ t=0.08
0.5151416821952488
% es.Ey (V/m) @ t=0.08
0.13619366901756091
% es.Ez (V/m) @ t=0.08
-1.1765914646725433
% es.tEx (V/m) @ t=0.08
0.515141682195249
% es.tEy (V/m) @ t=0.08
0
% es.tEz (V/m) @ t=0.08
-1.176591464672546
% V (V) @ t=0.08
0.006462982074516988
% es.normE (V/m) @ t=0.1
1.3045450471267963
% es.EX (V/m) @ t=0.1
0.5199125337562625
% es.EY (V/m) @ t=0.1
0.1374549922167536
% es.EZ (V/m) @ t=0.1
-1.187488162967429
% es.tEX (V/m) @ t=0.1
0.5199125337562625
% es.tEY (V/m) @ t=0.1
0
% es.tEZ (V/m) @ t=0.1
-1.1874881629674334
% es.Ex (V/m) @ t=0.1
0.5199125337562625
% es.Ey (V/m) @ t=0.1
0.1374549922167536
% es.Ez (V/m) @ t=0.1
-1.187488162967429
% es.tEx (V/m) @ t=0.1
0.5199125337562625
% es.tEy (V/m) @ t=0.1
0
% es.tEz (V/m) @ t=0.1
-1.1874881629674334
% V (V) @ t=0.1
0.006522837294925202
% es.normE (V/m) @ t=0.12
1.3165158896076001
% es.EX (V/m) @ t=0.12
0.5246833853173045
% es.EY (V/m) @ t=0.12
0.13871631541594942
% es.EZ (V/m) @ t=0.12
-1.1983848612623307
% es.tEX (V/m) @ t=0.12
0.5246833853173047
% es.tEY (V/m) @ t=0.12
0
% es.tEZ (V/m) @ t=0.12
-1.1983848612623316
% es.Ex (V/m) @ t=0.12
0.5246833853173045
% es.Ey (V/m) @ t=0.12
0.13871631541594942
% es.Ez (V/m) @ t=0.12
-1.1983848612623307
% es.tEx (V/m) @ t=0.12
0.5246833853173047
% es.tEy (V/m) @ t=0.12
0
% es.tEz (V/m) @ t=0.12
-1.1983848612623316
% V (V) @ t=0.12
0.006582692515333417
% es.normE (V/m) @ t=0.14
1.3286106992644195
% es.EX (V/m) @ t=0.14
0.5295036409722436
% es.EY (V/m) @ t=0.14
0.13999070891905063
% es.EZ (V/m) @ t=0.14
-1.2093944031769572
% es.tEX (V/m) @ t=0.14
0.5295036409722402
% es.tEY (V/m) @ t=0.14
0
% es.tEZ (V/m) @ t=0.14
-1.2093944031769617
% es.Ex (V/m) @ t=0.14
0.5295036409722436
% es.Ey (V/m) @ t=0.14
0.13999070891905063
% es.Ez (V/m) @ t=0.14
-1.2093944031769572
% es.tEx (V/m) @ t=0.14
0.5295036409722402
% es.tEy (V/m) @ t=0.14
0
% es.tEz (V/m) @ t=0.14
-1.2093944031769617
% V (V) @ t=0.14
0.006643167350102812
% es.normE (V/m) @ t=0.16
1.3412198338791095
% es.EX (V/m) @ t=0.16
0.5345288682925284
% es.EY (V/m) @ t=0.16
0.1413193295467492
% es.EZ (V/m) @ t=0.16
-1.2208721197473702
% es.tEX (V/m) @ t=0.16
0.5345288682925249
% es.tEY (V/m) @ t=0.16
0
% es.tEZ (V/m) @ t=0.16
-1.2208721197473693
% es.Ex (V/m) @ t=0.16
0.5345288682925284
% es.Ey (V/m) @ t=0.16
0.1413193295467492
% es.Ez (V/m) @ t=0.16
-1.2208721197473702
% es.tEx (V/m) @ t=0.16
0.5345288682925249
% es.tEy (V/m) @ t=0.16
0
% es.tEz (V/m) @ t=0.16
-1.2208721197473693
% V (V) @ t=0.16
0.006706212890605778
% es.normE (V/m) @ t=0.18
1.353828968493804
% es.EX (V/m) @ t=0.18
0.5395540956128138
% es.EY (V/m) @ t=0.18
0.1426479501744633
% es.EZ (V/m) @ t=0.18
-1.2323498363177832
% es.tEX (V/m) @ t=0.18
0.5395540956128104
% es.tEY (V/m) @ t=0.18
0
% es.tEZ (V/m) @ t=0.18
-1.2323498363177894
% es.Ex (V/m) @ t=0.18
0.5395540956128138
% es.Ey (V/m) @ t=0.18
0.1426479501744633
% es.Ez (V/m) @ t=0.18
-1.2323498363177832
% es.tEx (V/m) @ t=0.18
0.5395540956128104
% es.tEy (V/m) @ t=0.18
0
% es.tEz (V/m) @ t=0.18
-1.2323498363177894
% V (V) @ t=0.18
0.006769258431108743
% es.normE (V/m) @ t=0.2
1.3664381031085067
% es.EX (V/m) @ t=0.2
0.5445793229331095
% es.EY (V/m) @ t=0.2
0.14397657080216142
% es.EZ (V/m) @ t=0.2
-1.2438275528881997
% es.tEX (V/m) @ t=0.2
0.5445793229331097
% es.tEY (V/m) @ t=0.2
0
% es.tEZ (V/m) @ t=0.2
-1.2438275528882006
% es.Ex (V/m) @ t=0.2
0.5445793229331095
% es.Ey (V/m) @ t=0.2
0.14397657080216142
% es.Ez (V/m) @ t=0.2
-1.2438275528881997
% es.tEx (V/m) @ t=0.2
0.5445793229331097
% es.tEy (V/m) @ t=0.2
0
% es.tEz (V/m) @ t=0.2
-1.2438275528882006
% V (V) @ t=0.2
0.006832303971611709
% es.normE (V/m) @ t=0.22
1.3790472377232064
% es.EX (V/m) @ t=0.22
0.5496045502534022
% es.EY (V/m) @ t=0.22
0.14530519142986087
% es.EZ (V/m) @ t=0.22
-1.2553052694586126
% es.tEX (V/m) @ t=0.22
0.5496045502534024
% es.tEY (V/m) @ t=0.22
0
% es.tEZ (V/m) @ t=0.22
-1.255305269458617
% es.Ex (V/m) @ t=0.22
0.5496045502534022
% es.Ey (V/m) @ t=0.22
0.14530519142986087
% es.Ez (V/m) @ t=0.22
-1.2553052694586126
% es.tEx (V/m) @ t=0.22
0.5496045502534024
% es.tEy (V/m) @ t=0.22
0
% es.tEz (V/m) @ t=0.22
-1.255305269458617
% V (V) @ t=0.22
0.006895349512114674
% es.normE (V/m) @ t=0.24
1.3916563723378963
% es.EX (V/m) @ t=0.24
0.5546297775736801
% es.EY (V/m) @ t=0.24
0.1466338120575661
% es.EZ (V/m) @ t=0.24
-1.2667829860290185
% es.tEX (V/m) @ t=0.24
0.5546297775736804
% es.tEY (V/m) @ t=0.24
0
% es.tEZ (V/m) @ t=0.24
-1.2667829860290194
% es.Ex (V/m) @ t=0.24
0.5546297775736801
% es.Ey (V/m) @ t=0.24
0.1466338120575661
% es.Ez (V/m) @ t=0.24
-1.2667829860290185
% es.tEx (V/m) @ t=0.24
0.5546297775736804
% es.tEy (V/m) @ t=0.24
0
% es.tEz (V/m) @ t=0.24
-1.2667829860290194
% V (V) @ t=0.24
0.006958395052617639
% es.normE (V/m) @ t=0.26
1.4042655069525944
% es.EX (V/m) @ t=0.26
0.5596550048939652
% es.EY (V/m) @ t=0.26
0.14796243268528642
% es.EZ (V/m) @ t=0.26
-1.2782607025994261
% es.tEX (V/m) @ t=0.26
0.5596550048939655
% es.tEY (V/m) @ t=0.26
0
% es.tEZ (V/m) @ t=0.26
-1.2782607025994288
% es.Ex (V/m) @ t=0.26
0.5596550048939652
% es.Ey (V/m) @ t=0.26
0.14796243268528642
% es.Ez (V/m) @ t=0.26
-1.2782607025994261
% es.tEx (V/m) @ t=0.26
0.5596550048939655
% es.tEy (V/m) @ t=0.26
0
% es.tEz (V/m) @ t=0.26
-1.2782607025994288
% V (V) @ t=0.26
0.007021440593120604
% es.normE (V/m) @ t=0.28
1.4174473930497806
% es.EX (V/m) @ t=0.28
0.5649086939323158
% es.EY (V/m) @ t=0.28
0.1493504443254592
% es.EZ (V/m) @ t=0.28
-1.2902597738760333
% es.tEX (V/m) @ t=0.28
0.564908693932316
% es.tEY (V/m) @ t=0.28
0
% es.tEZ (V/m) @ t=0.28
-1.290259773876036
% es.Ex (V/m) @ t=0.28
0.5649086939323158
% es.Ey (V/m) @ t=0.28
0.1493504443254592
% es.Ez (V/m) @ t=0.28
-1.2902597738760333
% es.tEx (V/m) @ t=0.28
0.564908693932316
% es.tEy (V/m) @ t=0.28
0
% es.tEz (V/m) @ t=0.28
-1.290259773876036
% V (V) @ t=0.28
0.007087376633950194
% es.normE (V/m) @ t=0.3
1.4314941972956694
% es.EX (V/m) @ t=0.3
0.5705073854566034
% es.EY (V/m) @ t=0.3
0.15082814296931835
% es.EZ (V/m) @ t=0.3
-1.303046148475155
% es.tEX (V/m) @ t=0.3
0.5705073854566036
% es.tEY (V/m) @ t=0.3
0
% es.tEZ (V/m) @ t=0.3
-1.3030461484751594
% es.Ex (V/m) @ t=0.3
0.5705073854566034
% es.Ey (V/m) @ t=0.3
0.15082814296931835
% es.Ez (V/m) @ t=0.3
-1.303046148475155
% es.tEx (V/m) @ t=0.3
0.5705073854566036
% es.tEy (V/m) @ t=0.3
0
% es.tEz (V/m) @ t=0.3
-1.3030461484751594
% V (V) @ t=0.3
0.0071576776502635334
% es.normE (V/m) @ t=0.32
1.4455410015473529
% es.EX (V/m) @ t=0.32
0.5761060769808763
% es.EY (V/m) @ t=0.32
0.15230584161319483
% es.EZ (V/m) @ t=0.32
-1.3158325230742713
% es.tEX (V/m) @ t=0.32
0.5761060769808766
% es.tEY (V/m) @ t=0.32
0
% es.tEZ (V/m) @ t=0.32
-1.315832523074274
% es.Ex (V/m) @ t=0.32
0.5761060769808763
% es.Ey (V/m) @ t=0.32
0.15230584161319483
% es.Ez (V/m) @ t=0.32
-1.3158325230742713
% es.tEx (V/m) @ t=0.32
0.5761060769808766
% es.tEy (V/m) @ t=0.32
0
% es.tEz (V/m) @ t=0.32
-1.315832523074274
% V (V) @ t=0.32
0.007227978666576871
% es.normE (V/m) @ t=0.34
1.4595878058046705
% es.EX (V/m) @ t=0.34
0.5817047685051635
% es.EY (V/m) @ t=0.34
0.15378354025706154
% es.EZ (V/m) @ t=0.34
-1.3286188976733806
% es.tEX (V/m) @ t=0.34
0.5817047685051637
% es.tEY (V/m) @ t=0.34
0
% es.tEZ (V/m) @ t=0.34
-1.3286188976733868
% es.Ex (V/m) @ t=0.34
0.5817047685051635
% es.Ey (V/m) @ t=0.34
0.15378354025706154
% es.Ez (V/m) @ t=0.34
-1.3286188976733806
% es.tEx (V/m) @ t=0.34
0.5817047685051637
% es.tEy (V/m) @ t=0.34
0
% es.tEz (V/m) @ t=0.34
-1.3286188976733868
% V (V) @ t=0.34
0.00729827968289021
% es.normE (V/m) @ t=0.36
1.4736346100674722
% es.EX (V/m) @ t=0.36
0.5873034600294369
% es.EY (V/m) @ t=0.36
0.15526123890093535
% es.EZ (V/m) @ t=0.36
-1.341405272272504
% es.tEX (V/m) @ t=0.36
0.5873034600294371
% es.tEY (V/m) @ t=0.36
0
% es.tEZ (V/m) @ t=0.36
-1.3414052722725085
% es.Ex (V/m) @ t=0.36
0.5873034600294369
% es.Ey (V/m) @ t=0.36
0.15526123890093535
% es.Ez (V/m) @ t=0.36
-1.341405272272504
% es.tEx (V/m) @ t=0.36
0.5873034600294371
% es.tEy (V/m) @ t=0.36
0
% es.tEz (V/m) @ t=0.36
-1.3414052722725085
% V (V) @ t=0.36
0.007368580699203548
% es.normE (V/m) @ t=0.38
1.4876814143355932
% es.EX (V/m) @ t=0.38
0.592902151553724
% es.EY (V/m) @ t=0.38
0.15673893754481494
% es.EZ (V/m) @ t=0.38
-1.3541916468716204
% es.tEX (V/m) @ t=0.38
0.5929021515537243
% es.tEY (V/m) @ t=0.38
0
% es.tEZ (V/m) @ t=0.38
-1.3541916468716266
% es.Ex (V/m) @ t=0.38
0.592902151553724
% es.Ey (V/m) @ t=0.38
0.15673893754481494
% es.Ez (V/m) @ t=0.38
-1.3541916468716204
% es.tEx (V/m) @ t=0.38
0.5929021515537243
% es.tEy (V/m) @ t=0.38
0
% es.tEz (V/m) @ t=0.38
-1.3541916468716266
% V (V) @ t=0.38
0.007438881715516887
% es.normE (V/m) @ t=0.4
1.50172821860888
% es.EX (V/m) @ t=0.4
0.5985008430780037
% es.EY (V/m) @ t=0.4
0.15821663618869142
% es.EZ (V/m) @ t=0.4
-1.366978021470735
% es.tEX (V/m) @ t=0.4
0.5985008430780039
% es.tEY (V/m) @ t=0.4
0
% es.tEZ (V/m) @ t=0.4
-1.366978021470734
% es.Ex (V/m) @ t=0.4
0.5985008430780037
% es.Ey (V/m) @ t=0.4
0.15821663618869142
% es.Ez (V/m) @ t=0.4
-1.366978021470735
% es.tEx (V/m) @ t=0.4
0.5985008430780039
% es.tEy (V/m) @ t=0.4
0
% es.tEz (V/m) @ t=0.4
-1.366978021470734
% V (V) @ t=0.4
0.007509182731830223
% es.normE (V/m) @ t=0.42
1.5157750228871987
% es.EX (V/m) @ t=0.42
0.6040995346022913
% es.EY (V/m) @ t=0.42
0.15969433483254036
% es.EZ (V/m) @ t=0.42
-1.379764396069855
% es.tEX (V/m) @ t=0.42
0.6040995346022915
% es.tEY (V/m) @ t=0.42
0
% es.tEZ (V/m) @ t=0.42
-1.3797643960698576
% es.Ex (V/m) @ t=0.42
0.6040995346022913
% es.Ey (V/m) @ t=0.42
0.15969433483254036
% es.Ez (V/m) @ t=0.42
-1.379764396069855
% es.tEx (V/m) @ t=0.42
0.6040995346022915
% es.tEy (V/m) @ t=0.42
0
% es.tEz (V/m) @ t=0.42
-1.3797643960698576
% V (V) @ t=0.42
0.0075794837481435616
% es.normE (V/m) @ t=0.44
1.5298218271704018
% es.EX (V/m) @ t=0.44
0.6096982261265713
% es.EY (V/m) @ t=0.44
0.16117203347642173
% es.EZ (V/m) @ t=0.44
-1.3925507706689695
% es.tEX (V/m) @ t=0.44
0.6096982261265715
% es.tEY (V/m) @ t=0.44
0
% es.tEZ (V/m) @ t=0.44
-1.392550770668974
% es.Ex (V/m) @ t=0.44
0.6096982261265713
% es.Ey (V/m) @ t=0.44
0.16117203347642173
% es.Ez (V/m) @ t=0.44
-1.3925507706689695
% es.tEx (V/m) @ t=0.44
0.6096982261265715
% es.tEy (V/m) @ t=0.44
0
% es.tEz (V/m) @ t=0.44
-1.392550770668974
% V (V) @ t=0.44
0.0076497847644568994
% es.normE (V/m) @ t=0.46
1.5438686314583505
% es.EX (V/m) @ t=0.46
0.6152969176508372
% es.EY (V/m) @ t=0.46
0.16264973212028666
% es.EZ (V/m) @ t=0.46
-1.4053371452680823
% es.tEX (V/m) @ t=0.46
0.6152969176508374
% es.tEY (V/m) @ t=0.46
0
% es.tEZ (V/m) @ t=0.46
-1.405337145268085
% es.Ex (V/m) @ t=0.46
0.6152969176508372
% es.Ey (V/m) @ t=0.46
0.16264973212028666
% es.Ez (V/m) @ t=0.46
-1.4053371452680823
% es.tEx (V/m) @ t=0.46
0.6152969176508374
% es.tEy (V/m) @ t=0.46
0
% es.tEz (V/m) @ t=0.46
-1.405337145268085
% V (V) @ t=0.46
0.0077200857807702365
% es.normE (V/m) @ t=0.48
1.5579154357509446
% es.EX (V/m) @ t=0.48
0.6208956091751283
% es.EY (V/m) @ t=0.48
0.16412743076416803
% es.EZ (V/m) @ t=0.48
-1.4181235198672022
% es.tEX (V/m) @ t=0.48
0.620895609175125
% es.tEY (V/m) @ t=0.48
0
% es.tEZ (V/m) @ t=0.48
-1.4181235198672049
% es.Ex (V/m) @ t=0.48
0.6208956091751283
% es.Ey (V/m) @ t=0.48
0.16412743076416803
% es.Ez (V/m) @ t=0.48
-1.4181235198672022
% es.tEx (V/m) @ t=0.48
0.620895609175125
% es.tEy (V/m) @ t=0.48
0
% es.tEz (V/m) @ t=0.48
-1.4181235198672049
% V (V) @ t=0.48
0.007790386797083576
% es.normE (V/m) @ t=0.5
1.571962240048033
% es.EX (V/m) @ t=0.5
0.6264943006994155
% es.EY (V/m) @ t=0.5
0.1656051294080383
% es.EZ (V/m) @ t=0.5
-1.4309098944663168
% es.tEX (V/m) @ t=0.5
0.6264943006994121
% es.tEY (V/m) @ t=0.5
0
% es.tEZ (V/m) @ t=0.5
-1.4309098944663212
% es.Ex (V/m) @ t=0.5
0.6264943006994155
% es.Ey (V/m) @ t=0.5
0.1656051294080383
% es.Ez (V/m) @ t=0.5
-1.4309098944663168
% es.tEx (V/m) @ t=0.5
0.6264943006994121
% es.tEy (V/m) @ t=0.5
0
% es.tEz (V/m) @ t=0.5
-1.4309098944663212
% V (V) @ t=0.5
0.007860687813396914
% es.normE (V/m) @ t=0.52
1.586009044349506
% es.EX (V/m) @ t=0.52
0.6320929922236955
% es.EY (V/m) @ t=0.52
0.16708282805188945
% es.EZ (V/m) @ t=0.52
-1.4436962690654385
% es.tEX (V/m) @ t=0.52
0.6320929922236922
% es.tEY (V/m) @ t=0.52
0
% es.tEZ (V/m) @ t=0.52
-1.4436962690654411
% es.Ex (V/m) @ t=0.52
0.6320929922236955
% es.Ey (V/m) @ t=0.52
0.16708282805188945
% es.Ez (V/m) @ t=0.52
-1.4436962690654385
% es.tEx (V/m) @ t=0.52
0.6320929922236922
% es.tEy (V/m) @ t=0.52
0
% es.tEz (V/m) @ t=0.52
-1.4436962690654411
% V (V) @ t=0.52
0.007930988829710252
% es.normE (V/m) @ t=0.54
1.6000558486552388
% es.EX (V/m) @ t=0.54
0.6376916837479716
% es.EY (V/m) @ t=0.54
0.16856052669577481
% es.EZ (V/m) @ t=0.54
-1.4564826436645495
% es.tEX (V/m) @ t=0.54
0.6376916837479718
% es.tEY (V/m) @ t=0.54
0
% es.tEZ (V/m) @ t=0.54
-1.456482643664554
% es.Ex (V/m) @ t=0.54
0.6376916837479716
% es.Ey (V/m) @ t=0.54
0.16856052669577481
% es.Ez (V/m) @ t=0.54
-1.4564826436645495
% es.tEx (V/m) @ t=0.54
0.6376916837479718
% es.tEy (V/m) @ t=0.54
0
% es.tEz (V/m) @ t=0.54
-1.456482643664554
% V (V) @ t=0.54
0.00800128984602359
% es.normE (V/m) @ t=0.56
1.6154126637554649
% es.EX (V/m) @ t=0.56
0.6438116797321867
% es.EY (V/m) @ t=0.56
0.17018006488467208
% es.EZ (V/m) @ t=0.56
-1.4704614968364558
% es.tEX (V/m) @ t=0.56
0.6438116797321869
% es.tEY (V/m) @ t=0.56
0
% es.tEZ (V/m) @ t=0.56
-1.4704614968364602
% es.Ex (V/m) @ t=0.56
0.6438116797321867
% es.Ey (V/m) @ t=0.56
0.17018006488467208
% es.Ez (V/m) @ t=0.56
-1.4704614968364558
% es.tEx (V/m) @ t=0.56
0.6438116797321869
% es.tEy (V/m) @ t=0.56
0
% es.tEz (V/m) @ t=0.56
-1.4704614968364602
% V (V) @ t=0.56
0.008078034862966859
% es.normE (V/m) @ t=0.58
1.6310833159997171
% es.EX (V/m) @ t=0.58
0.6500565637713358
% es.EY (V/m) @ t=0.58
0.1718335833408795
% es.EZ (V/m) @ t=0.58
-1.4847260301452936
% es.tEX (V/m) @ t=0.58
0.650056563771336
% es.tEY (V/m) @ t=0.58
0
% es.tEZ (V/m) @ t=0.58
-1.4847260301452962
% es.Ex (V/m) @ t=0.58
0.6500565637713358
% es.Ey (V/m) @ t=0.58
0.1718335833408795
% es.Ez (V/m) @ t=0.58
-1.4847260301452936
% es.tEx (V/m) @ t=0.58
0.650056563771336
% es.tEy (V/m) @ t=0.58
0
% es.tEz (V/m) @ t=0.58
-1.4847260301452962
% V (V) @ t=0.58
0.008156323658577819
% es.normE (V/m) @ t=0.6
1.6467539682504366
% es.EX (V/m) @ t=0.6
0.6563014478104925
% es.EY (V/m) @ t=0.6
0.17348710179708826
% es.EZ (V/m) @ t=0.6
-1.4989905634541332
% es.tEX (V/m) @ t=0.6
0.6563014478104927
% es.tEY (V/m) @ t=0.6
0
% es.tEZ (V/m) @ t=0.6
-1.4989905634541394
% es.Ex (V/m) @ t=0.6
0.6563014478104925
% es.Ey (V/m) @ t=0.6
0.17348710179708826
% es.Ez (V/m) @ t=0.6
-1.4989905634541332
% es.tEx (V/m) @ t=0.6
0.6563014478104927
% es.tEy (V/m) @ t=0.6
0
% es.tEz (V/m) @ t=0.6
-1.4989905634541394
% V (V) @ t=0.6
0.008234612454188777
% es.normE (V/m) @ t=0.62
1.662424620507439
% es.EX (V/m) @ t=0.62
0.6625463318496456
% es.EY (V/m) @ t=0.62
0.17514062025329524
% es.EZ (V/m) @ t=0.62
-1.513255096762978
% es.tEX (V/m) @ t=0.62
0.6625463318496423
% es.tEY (V/m) @ t=0.62
0
% es.tEZ (V/m) @ t=0.62
-1.5132550967629825
% es.Ex (V/m) @ t=0.62
0.6625463318496456
% es.Ey (V/m) @ t=0.62
0.17514062025329524
% es.Ez (V/m) @ t=0.62
-1.513255096762978
% es.tEx (V/m) @ t=0.62
0.6625463318496423
% es.tEy (V/m) @ t=0.62
0
% es.tEz (V/m) @ t=0.62
-1.5132550967629825
% V (V) @ t=0.62
0.008312901249799737
% es.normE (V/m) @ t=0.64
1.6780952727705354
% es.EX (V/m) @ t=0.64
0.6687912158887912
% es.EY (V/m) @ t=0.64
0.176794138709496
% es.EZ (V/m) @ t=0.64
-1.527519630071816
% es.tEX (V/m) @ t=0.64
0.6687912158887914
% es.tEY (V/m) @ t=0.64
0
% es.tEZ (V/m) @ t=0.64
-1.5275196300718221
% es.Ex (V/m) @ t=0.64
0.6687912158887912
% es.Ey (V/m) @ t=0.64
0.176794138709496
% es.Ez (V/m) @ t=0.64
-1.527519630071816
% es.tEx (V/m) @ t=0.64
0.6687912158887914
% es.tEy (V/m) @ t=0.64
0
% es.tEz (V/m) @ t=0.64
-1.5275196300718221
% V (V) @ t=0.64
0.0083911900454107
% es.normE (V/m) @ t=0.66
1.6937659250395654
% es.EX (V/m) @ t=0.66
0.6750360999279337
% es.EY (V/m) @ t=0.66
0.17844765716569588
% es.EZ (V/m) @ t=0.66
-1.5417841633806537
% es.tEX (V/m) @ t=0.66
0.6750360999279339
% es.tEY (V/m) @ t=0.66
0
% es.tEZ (V/m) @ t=0.66
-1.5417841633806617
% es.Ex (V/m) @ t=0.66
0.6750360999279337
% es.Ey (V/m) @ t=0.66
0.17844765716569588
% es.Ez (V/m) @ t=0.66
-1.5417841633806537
% es.tEx (V/m) @ t=0.66
0.6750360999279339
% es.tEy (V/m) @ t=0.66
0
% es.tEz (V/m) @ t=0.66
-1.5417841633806617
% V (V) @ t=0.66
0.008469478841021658
% es.normE (V/m) @ t=0.68
1.7094365773143672
% es.EX (V/m) @ t=0.68
0.6812809839670797
% es.EY (V/m) @ t=0.68
0.18010117562190464
% es.EZ (V/m) @ t=0.68
-1.5560486966894898
% es.tEX (V/m) @ t=0.68
0.6812809839670764
% es.tEY (V/m) @ t=0.68
0
% es.tEZ (V/m) @ t=0.68
-1.5560486966894924
% es.Ex (V/m) @ t=0.68
0.6812809839670797
% es.Ey (V/m) @ t=0.68
0.18010117562190464
% es.Ez (V/m) @ t=0.68
-1.5560486966894898
% es.tEx (V/m) @ t=0.68
0.6812809839670764
% es.tEy (V/m) @ t=0.68
0
% es.tEz (V/m) @ t=0.68
-1.5560486966894924
% V (V) @ t=0.68
0.008547767636632616
% es.normE (V/m) @ t=0.7
1.7251072295947925
% es.EX (V/m) @ t=0.7
0.6875258680062395
% es.EY (V/m) @ t=0.7
0.1817546940781054
% es.EZ (V/m) @ t=0.7
-1.5703132299983311
% es.tEX (V/m) @ t=0.7
0.6875258680062397
% es.tEY (V/m) @ t=0.7
0
% es.tEZ (V/m) @ t=0.7
-1.5703132299983338
% es.Ex (V/m) @ t=0.7
0.6875258680062395
% es.Ey (V/m) @ t=0.7
0.1817546940781054
% es.Ez (V/m) @ t=0.7
-1.5703132299983311
% es.tEx (V/m) @ t=0.7
0.6875258680062397
% es.tEy (V/m) @ t=0.7
0
% es.tEz (V/m) @ t=0.7
-1.5703132299983338
% V (V) @ t=0.7
0.008626056432243576
% es.normE (V/m) @ t=0.72
1.7407778818806785
% es.EX (V/m) @ t=0.72
0.6937707520453962
% es.EY (V/m) @ t=0.72
0.18340821253430173
% es.EZ (V/m) @ t=0.72
-1.5845777633071734
% es.tEX (V/m) @ t=0.72
0.6937707520453964
% es.tEY (V/m) @ t=0.72
0
% es.tEZ (V/m) @ t=0.72
-1.584577763307177
% es.Ex (V/m) @ t=0.72
0.6937707520453962
% es.Ey (V/m) @ t=0.72
0.18340821253430173
% es.Ez (V/m) @ t=0.72
-1.5845777633071734
% es.tEx (V/m) @ t=0.72
0.6937707520453964
% es.tEy (V/m) @ t=0.72
0
% es.tEz (V/m) @ t=0.72
-1.584577763307177
% V (V) @ t=0.72
0.008704345227854538
% es.normE (V/m) @ t=0.74
1.756448534171875
% es.EX (V/m) @ t=0.74
0.7000156360845458
% es.EY (V/m) @ t=0.74
0.18506173099050693
% es.EZ (V/m) @ t=0.74
-1.5988422966160103
% es.tEX (V/m) @ t=0.74
0.700015636084546
% es.tEY (V/m) @ t=0.74
0
% es.tEZ (V/m) @ t=0.74
-1.5988422966160112
% es.Ex (V/m) @ t=0.74
0.7000156360845458
% es.Ey (V/m) @ t=0.74
0.18506173099050693
% es.Ez (V/m) @ t=0.74
-1.5988422966160103
% es.tEx (V/m) @ t=0.74
0.700015636084546
% es.tEy (V/m) @ t=0.74
0
% es.tEz (V/m) @ t=0.74
-1.5988422966160112
% V (V) @ t=0.74
0.008782634023465498
% es.normE (V/m) @ t=0.76
1.7721191864682457
% es.EX (V/m) @ t=0.76
0.7062605201236949
% es.EY (V/m) @ t=0.76
0.18671524944670947
% es.EZ (V/m) @ t=0.76
-1.6131068299248472
% es.tEX (V/m) @ t=0.76
0.7062605201236951
% es.tEY (V/m) @ t=0.76
0
% es.tEZ (V/m) @ t=0.76
-1.613106829924849
% es.Ex (V/m) @ t=0.76
0.7062605201236949
% es.Ey (V/m) @ t=0.76
0.18671524944670947
% es.Ez (V/m) @ t=0.76
-1.6131068299248472
% es.tEx (V/m) @ t=0.76
0.7062605201236951
% es.tEy (V/m) @ t=0.76
0
% es.tEz (V/m) @ t=0.76
-1.613106829924849
% V (V) @ t=0.76
0.008860922819076458
% es.normE (V/m) @ t=0.78
1.7877898387696582
% es.EX (V/m) @ t=0.78
0.7125054041628409
% es.EY (V/m) @ t=0.78
0.18836876790291823
% es.EZ (V/m) @ t=0.78
-1.6273713632336877
% es.tEX (V/m) @ t=0.78
0.7125054041628376
% es.tEY (V/m) @ t=0.78
0
% es.tEZ (V/m) @ t=0.78
-1.627371363233694
% es.Ex (V/m) @ t=0.78
0.7125054041628409
% es.Ey (V/m) @ t=0.78
0.18836876790291823
% es.Ez (V/m) @ t=0.78
-1.6273713632336877
% es.tEx (V/m) @ t=0.78
0.7125054041628376
% es.tEy (V/m) @ t=0.78
0
% es.tEz (V/m) @ t=0.78
-1.627371363233694
% V (V) @ t=0.78
0.008939211614687418
% es.normE (V/m) @ t=0.8
1.8034604910759802
% es.EX (V/m) @ t=0.8
0.718750288201994
% es.EY (V/m) @ t=0.8
0.19002228635912166
% es.EZ (V/m) @ t=0.8
-1.6416358965425273
% es.tEX (V/m) @ t=0.8
0.7187502882019943
% es.tEY (V/m) @ t=0.8
0
% es.tEZ (V/m) @ t=0.8
-1.6416358965425264
% es.Ex (V/m) @ t=0.8
0.718750288201994
% es.Ey (V/m) @ t=0.8
0.19002228635912166
% es.Ez (V/m) @ t=0.8
-1.6416358965425273
% es.tEx (V/m) @ t=0.8
0.7187502882019943
% es.tEy (V/m) @ t=0.8
0
% es.tEz (V/m) @ t=0.8
-1.6416358965425264
% V (V) @ t=0.8
0.009017500410298376
% es.normE (V/m) @ t=0.82
1.8195296697711225
% es.EX (V/m) @ t=0.82
0.7251543015747706
% es.EY (V/m) @ t=0.82
0.19171634005971594
% es.EZ (V/m) @ t=0.82
-1.656263190598696
% es.tEX (V/m) @ t=0.82
0.7251543015747708
% es.tEY (V/m) @ t=0.82
0
% es.tEZ (V/m) @ t=0.82
-1.6562631905987022
% es.Ex (V/m) @ t=0.82
0.7251543015747706
% es.Ey (V/m) @ t=0.82
0.19171634005971594
% es.Ez (V/m) @ t=0.82
-1.656263190598696
% es.tEx (V/m) @ t=0.82
0.7251543015747708
% es.tEy (V/m) @ t=0.82
0
% es.tEz (V/m) @ t=0.82
-1.6562631905987022
% V (V) @ t=0.82
0.009097822459709498
% es.normE (V/m) @ t=0.84
1.8370532776389963
% es.EX (V/m) @ t=0.84
0.7321390602945985
% es.EY (V/m) @ t=0.84
0.19355832785913796
% es.EZ (V/m) @ t=0.84
-1.6722143864855372
% es.tEX (V/m) @ t=0.84
0.7321390602945987
% es.tEY (V/m) @ t=0.84
0
% es.tEZ (V/m) @ t=0.84
-1.6722143864855408
% es.Ex (V/m) @ t=0.84
0.7321390602945985
% es.Ey (V/m) @ t=0.84
0.19355832785913796
% es.Ez (V/m) @ t=0.84
-1.6722143864855372
% es.tEx (V/m) @ t=0.84
0.7321390602945987
% es.tEy (V/m) @ t=0.84
0
% es.tEz (V/m) @ t=0.84
-1.6722143864855408
% V (V) @ t=0.84
0.009185564905202734
% es.normE (V/m) @ t=0.86
1.8545768855227092
% es.EX (V/m) @ t=0.86
0.7391238190144336
% es.EY (V/m) @ t=0.86
0.19540031565857063
% es.EZ (V/m) @ t=0.86
-1.6881655823723811
% es.tEX (V/m) @ t=0.86
0.7391238190144338
% es.tEY (V/m) @ t=0.86
0
% es.tEZ (V/m) @ t=0.86
-1.6881655823723865
% es.Ex (V/m) @ t=0.86
0.7391238190144336
% es.Ey (V/m) @ t=0.86
0.19540031565857063
% es.Ez (V/m) @ t=0.86
-1.6881655823723811
% es.tEx (V/m) @ t=0.86
0.7391238190144338
% es.tEy (V/m) @ t=0.86
0
% es.tEz (V/m) @ t=0.86
-1.6881655823723865
% V (V) @ t=0.86
0.00927330735069597
% es.normE (V/m) @ t=0.88
1.872100493421799
% es.EX (V/m) @ t=0.88
0.7461085777342473
% es.EY (V/m) @ t=0.88
0.19724230345800553
% es.EZ (V/m) @ t=0.88
-1.7041167782592224
% es.tEX (V/m) @ t=0.88
0.7461085777342475
% es.tEY (V/m) @ t=0.88
0
% es.tEZ (V/m) @ t=0.88
-1.7041167782592233
% es.Ex (V/m) @ t=0.88
0.7461085777342473
% es.Ey (V/m) @ t=0.88
0.19724230345800553
% es.Ez (V/m) @ t=0.88
-1.7041167782592224
% es.tEx (V/m) @ t=0.88
0.7461085777342475
% es.tEy (V/m) @ t=0.88
0
% es.tEz (V/m) @ t=0.88
-1.7041167782592233
% V (V) @ t=0.88
0.009361049796189206
% es.normE (V/m) @ t=0.9
1.889624101335858
% es.EX (V/m) @ t=0.9
0.7530933364540888
% es.EY (V/m) @ t=0.9
0.19908429125744398
% es.EZ (V/m) @ t=0.9
-1.720067974146061
% es.tEX (V/m) @ t=0.9
0.7530933364540893
% es.tEY (V/m) @ t=0.9
0
% es.tEZ (V/m) @ t=0.9
-1.7200679741460672
% es.Ex (V/m) @ t=0.9
0.7530933364540888
% es.Ey (V/m) @ t=0.9
0.19908429125744398
% es.Ez (V/m) @ t=0.9
-1.720067974146061
% es.tEx (V/m) @ t=0.9
0.7530933364540893
% es.tEy (V/m) @ t=0.9
0
% es.tEz (V/m) @ t=0.9
-1.7200679741460672
% V (V) @ t=0.9
0.009448792241682444
% es.normE (V/m) @ t=0.92
1.9071477092644613
% es.EX (V/m) @ t=0.92
0.7600780951739246
% es.EY (V/m) @ t=0.92
0.20092627905686555
% es.EZ (V/m) @ t=0.92
-1.7360191700329013
% es.tEX (V/m) @ t=0.92
0.7600780951739248
% es.tEY (V/m) @ t=0.92
0
% es.tEZ (V/m) @ t=0.92
-1.7360191700329075
% es.Ex (V/m) @ t=0.92
0.7600780951739246
% es.Ey (V/m) @ t=0.92
0.20092627905686555
% es.Ez (V/m) @ t=0.92
-1.7360191700329013
% es.tEx (V/m) @ t=0.92
0.7600780951739248
% es.tEy (V/m) @ t=0.92
0
% es.tEz (V/m) @ t=0.92
-1.7360191700329075
% V (V) @ t=0.92
0.00953653468717568
% es.normE (V/m) @ t=0.94
1.924671317207218
% es.EX (V/m) @ t=0.94
0.7670628538937552
% es.EY (V/m) @ t=0.94
0.20276826685629334
% es.EZ (V/m) @ t=0.94
-1.751970365919746
% es.tEX (V/m) @ t=0.94
0.7670628538937518
% es.tEY (V/m) @ t=0.94
0
% es.tEZ (V/m) @ t=0.94
-1.7519703659197514
% es.Ex (V/m) @ t=0.94
0.7670628538937552
% es.Ey (V/m) @ t=0.94
0.20276826685629334
% es.Ez (V/m) @ t=0.94
-1.751970365919746
% es.tEx (V/m) @ t=0.94
0.7670628538937518
% es.tEy (V/m) @ t=0.94
0
% es.tEz (V/m) @ t=0.94
-1.7519703659197514
% V (V) @ t=0.94
0.009624277132668915
% es.normE (V/m) @ t=0.96
1.9421949251637356
% es.EX (V/m) @ t=0.96
0.7740476126135831
% es.EY (V/m) @ t=0.96
0.20461025465572646
% es.EZ (V/m) @ t=0.96
-1.7679215618065847
% es.tEX (V/m) @ t=0.96
0.7740476126135798
% es.tEY (V/m) @ t=0.96
0
% es.tEZ (V/m) @ t=0.96
-1.76792156180659
% es.Ex (V/m) @ t=0.96
0.7740476126135831
% es.Ey (V/m) @ t=0.96
0.20461025465572646
% es.Ez (V/m) @ t=0.96
-1.7679215618065847
% es.tEx (V/m) @ t=0.96
0.7740476126135798
% es.tEy (V/m) @ t=0.96
0
% es.tEz (V/m) @ t=0.96
-1.76792156180659
% V (V) @ t=0.96
0.00971201957816215
% es.normE (V/m) @ t=0.98
1.959718533133652
% es.EX (V/m) @ t=0.98
0.7810323713334146
% es.EY (V/m) @ t=0.98
0.20645224245514449
% es.EZ (V/m) @ t=0.98
-1.7838727576934241
% es.tEX (V/m) @ t=0.98
0.7810323713334149
% es.tEY (V/m) @ t=0.98
0
% es.tEZ (V/m) @ t=0.98
-1.7838727576934303
% es.Ex (V/m) @ t=0.98
0.7810323713334146
% es.Ey (V/m) @ t=0.98
0.20645224245514449
% es.Ez (V/m) @ t=0.98
-1.7838727576934241
% es.tEx (V/m) @ t=0.98
0.7810323713334149
% es.tEy (V/m) @ t=0.98
0
% es.tEz (V/m) @ t=0.98
-1.7838727576934303
% V (V) @ t=0.98
0.009799762023655387
% es.normE (V/m) @ t=1
1.9772421411166141
% es.EX (V/m) @ t=1
0.788017130053239
% es.EY (V/m) @ t=1
0.20829423025458116
% es.EZ (V/m) @ t=1
-1.7998239535802698
% es.tEX (V/m) @ t=1
0.7880171300532357
% es.tEY (V/m) @ t=1
0
% es.tEZ (V/m) @ t=1
-1.7998239535802725
% es.Ex (V/m) @ t=1
0.788017130053239
% es.Ey (V/m) @ t=1
0.20829423025458116
% es.Ez (V/m) @ t=1
-1.7998239535802698
% es.tEx (V/m) @ t=1
0.7880171300532357
% es.tEy (V/m) @ t=1
0
% es.tEz (V/m) @ t=1
-1.7998239535802725
% V (V) @ t=1
0.009887504469148623
% es.normE (V/m) @ t=1.02
1.9947657491122697
% es.EX (V/m) @ t=1.02
0.7950018887730599
% es.EY (V/m) @ t=1.02
0.21013621805401161
% es.EZ (V/m) @ t=1.02
-1.815775149467112
% es.tEX (V/m) @ t=1.02
0.7950018887730566
% es.tEY (V/m) @ t=1.02
0
% es.tEZ (V/m) @ t=1.02
-1.8157751494671146
% es.Ex (V/m) @ t=1.02
0.7950018887730599
% es.Ey (V/m) @ t=1.02
0.21013621805401161
% es.Ez (V/m) @ t=1.02
-1.815775149467112
% es.tEx (V/m) @ t=1.02
0.7950018887730566
% es.tEy (V/m) @ t=1.02
0
% es.tEz (V/m) @ t=1.02
-1.8157751494671146
% V (V) @ t=1.02
0.009975246914641859
% es.normE (V/m) @ t=1.04
2.0122893571202964
% es.EX (V/m) @ t=1.04
0.8019866474929025
% es.EY (V/m) @ t=1.04
0.21197820585343852
% es.EZ (V/m) @ t=1.04
-1.8317263453539505
% es.tEX (V/m) @ t=1.04
0.8019866474928992