% Model:              1 neuron.mph
% Version:            COMSOL 6.0.0.405
% Date:               Mar 9 2023, 13:40
% Dimension:          0
% Nodes:              14017
% Expressions:        14017
% Description:        Electric field norm, Electric field, X component, Electric field, Y component, Electric field, Z component, Tangential electric field, X component, Tangential electric field, Y component, Tangential electric field, Z component, Electric field, x component, Electric field, y component, Electric field, z component, Tangential electric field, x component, Tangential electric field, y component, Tangential electric field, z component, Electric potential
% Length unit:        mm
% x
1
% y
12.2
% z
1.33
% es.normE (V/m) @ t=0
1.4486300540809696
% es.EX (V/m) @ t=0
1.338723757770266
% es.EY (V/m) @ t=0
0.08429446769671378
% es.EZ (V/m) @ t=0
0.54119612767684
% es.tEX (V/m) @ t=0
1.338723757770265
% es.tEY (V/m) @ t=0
0
% es.tEZ (V/m) @ t=0
0.5411961276768436
% es.Ex (V/m) @ t=0
1.338723757770266
% es.Ey (V/m) @ t=0
0.08429446769671378
% es.Ez (V/m) @ t=0
0.54119612767684
% es.tEx (V/m) @ t=0
1.338723757770265
% es.tEy (V/m) @ t=0
0
% es.tEz (V/m) @ t=0
0.5411961276768436
% V (V) @ t=0
0.007225997232251891
% es.normE (V/m) @ t=0.02
1.2512089379027789
% es.EX (V/m) @ t=0.02
1.1562808091262253
% es.EY (V/m) @ t=0.02
0.07280671224028035
% es.EZ (V/m) @ t=0.02
0.4674412423749703
% es.tEX (V/m) @ t=0.02
1.1562808091262244
% es.tEY (V/m) @ t=0.02
0
% es.tEZ (V/m) @ t=0.02
0.4674412423749712
% es.Ex (V/m) @ t=0.02
1.1562808091262253
% es.Ey (V/m) @ t=0.02
0.07280671224028035
% es.Ez (V/m) @ t=0.02
0.4674412423749703
% es.tEx (V/m) @ t=0.02
1.1562808091262244
% es.tEy (V/m) @ t=0.02
0
% es.tEz (V/m) @ t=0.02
0.4674412423749712
% V (V) @ t=0.02
0.006241229279337485
% es.normE (V/m) @ t=0.04
1.2627163555540735
% es.EX (V/m) @ t=0.04
1.1669151675689093
% es.EY (V/m) @ t=0.04
0.07347632140515364
% es.EZ (V/m) @ t=0.04
0.4717403213466884
% es.tEX (V/m) @ t=0.04
1.166915167568912
% es.tEY (V/m) @ t=0.04
0
% es.tEZ (V/m) @ t=0.04
0.4717403213466871
% es.Ex (V/m) @ t=0.04
1.1669151675689093
% es.Ey (V/m) @ t=0.04
0.07347632140515364
% es.Ez (V/m) @ t=0.04
0.4717403213466884
% es.tEx (V/m) @ t=0.04
1.166915167568912
% es.tEy (V/m) @ t=0.04
0
% es.tEz (V/m) @ t=0.04
0.4717403213466871
% V (V) @ t=0.04
0.006298629669530534
% es.normE (V/m) @ t=0.06
1.2743320807506113
% es.EX (V/m) @ t=0.06
1.1776496129877088
% es.EY (V/m) @ t=0.06
0.07415223966910262
% es.EZ (V/m) @ t=0.06
0.4760798711405432
% es.tEX (V/m) @ t=0.06
1.1776496129877039
% es.tEY (V/m) @ t=0.06
0
% es.tEZ (V/m) @ t=0.06
0.4760798711405432
% es.Ex (V/m) @ t=0.06
1.1776496129877088
% es.Ey (V/m) @ t=0.06
0.07415223966910262
% es.Ez (V/m) @ t=0.06
0.4760798711405432
% es.tEx (V/m) @ t=0.06
1.1776496129877039
% es.tEy (V/m) @ t=0.06
0
% es.tEz (V/m) @ t=0.06
0.4760798711405432
% V (V) @ t=0.06
0.006356569314185136
% es.normE (V/m) @ t=0.08
1.286114211912443
% es.EX (V/m) @ t=0.08
1.188537843368016
% es.EY (V/m) @ t=0.08
0.0748378327755086
% es.EZ (V/m) @ t=0.08
0.4804815791223347
% es.tEX (V/m) @ t=0.08
1.1885378433680174
% es.tEY (V/m) @ t=0.08
0
% es.tEZ (V/m) @ t=0.08
0.4804815791223347
% es.Ex (V/m) @ t=0.08
1.188537843368016
% es.Ey (V/m) @ t=0.08
0.0748378327755086
% es.Ez (V/m) @ t=0.08
0.4804815791223347
% es.tEx (V/m) @ t=0.08
1.1885378433680174
% es.tEy (V/m) @ t=0.08
0
% es.tEz (V/m) @ t=0.08
0.4804815791223347
% V (V) @ t=0.08
0.006415340224926875
% es.normE (V/m) @ t=0.1
1.2980344918185098
% es.EX (V/m) @ t=0.1
1.1995537446480906
% es.EY (V/m) @ t=0.1
0.07553145784959847
% es.EZ (V/m) @ t=0.1
0.48493489027586123
% es.tEX (V/m) @ t=0.1
1.199553744648087
% es.tEY (V/m) @ t=0.1
0
% es.tEZ (V/m) @ t=0.1
0.484934890275857
% es.Ex (V/m) @ t=0.1
1.1995537446480906
% es.Ey (V/m) @ t=0.1
0.07553145784959847
% es.Ez (V/m) @ t=0.1
0.48493489027586123
% es.tEx (V/m) @ t=0.1
1.199553744648087
% es.tEy (V/m) @ t=0.1
0
% es.tEz (V/m) @ t=0.1
0.484934890275857
% V (V) @ t=0.1
0.006474801245340178
% es.normE (V/m) @ t=0.12
1.309954771724579
% es.EX (V/m) @ t=0.12
1.2105696459281625
% es.EY (V/m) @ t=0.12
0.07622508292369412
% es.EZ (V/m) @ t=0.12
0.4893882014294002
% es.tEX (V/m) @ t=0.12
1.2105696459281603
% es.tEY (V/m) @ t=0.12
0
% es.tEZ (V/m) @ t=0.12
0.48938820142940065
% es.Ex (V/m) @ t=0.12
1.2105696459281625
% es.Ey (V/m) @ t=0.12
0.07622508292369412
% es.Ez (V/m) @ t=0.12
0.4893882014294002
% es.tEx (V/m) @ t=0.12
1.2105696459281603
% es.tEy (V/m) @ t=0.12
0
% es.tEz (V/m) @ t=0.12
0.48938820142940065
% V (V) @ t=0.12
0.006534262265753479
% es.normE (V/m) @ t=0.14
1.3219412885378758
% es.EX (V/m) @ t=0.14
1.2216467511609292
% es.EY (V/m) @ t=0.14
0.07692257746468234
% es.EZ (V/m) @ t=0.14
0.49386627628457225
% es.tEX (V/m) @ t=0.14
1.2216467511609288
% es.tEY (V/m) @ t=0.14
0
% es.tEZ (V/m) @ t=0.14
0.4938662762845749
% es.Ex (V/m) @ t=0.14
1.2216467511609292
% es.Ey (V/m) @ t=0.14
0.07692257746468234
% es.Ez (V/m) @ t=0.14
0.49386627628457225
% es.tEx (V/m) @ t=0.14
1.2216467511609288
% es.tEy (V/m) @ t=0.14
0
% es.tEz (V/m) @ t=0.14
0.4938662762845749
% V (V) @ t=0.14
0.006594051437444862
% es.normE (V/m) @ t=0.16
1.3345054546067219
% es.EX (V/m) @ t=0.16
1.2332576134663986
% es.EY (V/m) @ t=0.16
0.07765381746228073
% es.EZ (V/m) @ t=0.16
0.49856031433029124
% es.tEX (V/m) @ t=0.16
1.2332576134663968
% es.tEY (V/m) @ t=0.16
0
% es.tEZ (V/m) @ t=0.16
0.49856031433028836
% es.Ex (V/m) @ t=0.16
1.2332576134663986
% es.Ey (V/m) @ t=0.16
0.07765381746228073
% es.Ez (V/m) @ t=0.16
0.49856031433029124
% es.tEx (V/m) @ t=0.16
1.2332576134663968
% es.tEy (V/m) @ t=0.16
0
% es.tEz (V/m) @ t=0.16
0.49856031433028836
% V (V) @ t=0.16
0.006656702402498966
% es.normE (V/m) @ t=0.18
1.3470696206756154
% es.EX (V/m) @ t=0.18
1.2448684757718649
% es.EY (V/m) @ t=0.18
0.07838505745986946
% es.EZ (V/m) @ t=0.18
0.5032543523760196
% es.tEX (V/m) @ t=0.18
1.2448684757718667
% es.tEY (V/m) @ t=0.18
0
% es.tEZ (V/m) @ t=0.18
0.503254352376024
% es.Ex (V/m) @ t=0.18
1.2448684757718649
% es.Ey (V/m) @ t=0.18
0.07838505745986946
% es.Ez (V/m) @ t=0.18
0.5032543523760196
% es.tEx (V/m) @ t=0.18
1.2448684757718667
% es.tEy (V/m) @ t=0.18
0
% es.tEz (V/m) @ t=0.18
0.503254352376024
% V (V) @ t=0.18
0.006719353367553071
% es.normE (V/m) @ t=0.2
1.3596337867445603
% es.EX (V/m) @ t=0.2
1.2564793380773382
% es.EY (V/m) @ t=0.2
0.07911629745745896
% es.EZ (V/m) @ t=0.2
0.5079483904217392
% es.tEX (V/m) @ t=0.2
1.2564793380773391
% es.tEY (V/m) @ t=0.2
0
% es.tEZ (V/m) @ t=0.2
0.5079483904217357
% es.Ex (V/m) @ t=0.2
1.2564793380773382
% es.Ey (V/m) @ t=0.2
0.07911629745745896
% es.Ez (V/m) @ t=0.2
0.5079483904217392
% es.tEx (V/m) @ t=0.2
1.2564793380773391
% es.tEy (V/m) @ t=0.2
0
% es.tEz (V/m) @ t=0.2
0.5079483904217357
% V (V) @ t=0.2
0.006782004332607175
% es.normE (V/m) @ t=0.22
1.3721979528135475
% es.EX (V/m) @ t=0.22
1.2680902003828063
% es.EY (V/m) @ t=0.22
0.0798475374550503
% es.EZ (V/m) @ t=0.22
0.5126424284674651
% es.tEX (V/m) @ t=0.22
1.268090200382808
% es.tEY (V/m) @ t=0.22
0
% es.tEZ (V/m) @ t=0.22
0.5126424284674629
% es.Ex (V/m) @ t=0.22
1.2680902003828063
% es.Ey (V/m) @ t=0.22
0.0798475374550503
% es.Ez (V/m) @ t=0.22
0.5126424284674651
% es.tEx (V/m) @ t=0.22
1.268090200382808
% es.tEy (V/m) @ t=0.22
0
% es.tEz (V/m) @ t=0.22
0.5126424284674629
% V (V) @ t=0.22
0.006844655297661281
% es.normE (V/m) @ t=0.24
1.3847621188825834
% es.EX (V/m) @ t=0.24
1.2797010626882788
% es.EY (V/m) @ t=0.24
0.0805787774526514
% es.EZ (V/m) @ t=0.24
0.5173364665131888
% es.tEX (V/m) @ t=0.24
1.2797010626882752
% es.tEY (V/m) @ t=0.24
0
% es.tEZ (V/m) @ t=0.24
0.5173364665131928
% es.Ex (V/m) @ t=0.24
1.2797010626882788
% es.Ey (V/m) @ t=0.24
0.0805787774526514
% es.Ez (V/m) @ t=0.24
0.5173364665131888
% es.tEx (V/m) @ t=0.24
1.2797010626882752
% es.tEy (V/m) @ t=0.24
0
% es.tEz (V/m) @ t=0.24
0.5173364665131928
% V (V) @ t=0.24
0.006907306262715385
% es.normE (V/m) @ t=0.26
1.3973262849516543
% es.EX (V/m) @ t=0.26
1.2913119249937415
% es.EY (V/m) @ t=0.26
0.08131001745023564
% es.EZ (V/m) @ t=0.26
0.5220305045589186
% es.tEX (V/m) @ t=0.26
1.2913119249937415
% es.tEY (V/m) @ t=0.26
0
% es.tEZ (V/m) @ t=0.26
0.5220305045589173
% es.Ex (V/m) @ t=0.26
1.2913119249937415
% es.Ey (V/m) @ t=0.26
0.08131001745023564
% es.Ez (V/m) @ t=0.26
0.5220305045589186
% es.tEx (V/m) @ t=0.26
1.2913119249937415
% es.tEy (V/m) @ t=0.26
0
% es.tEz (V/m) @ t=0.26
0.5220305045589173
% V (V) @ t=0.26
0.006969957227769489
% es.normE (V/m) @ t=0.28
1.4102038047481558
% es.EX (V/m) @ t=0.28
1.3032123480246751
% es.EY (V/m) @ t=0.28
0.08205952934220828
% es.EZ (V/m) @ t=0.28
0.5268416545100159
% es.tEX (V/m) @ t=0.28
1.3032123480246787
% es.tEY (V/m) @ t=0.28
0
% es.tEZ (V/m) @ t=0.28
0.5268416545100156
% es.Ex (V/m) @ t=0.28
1.3032123480246751
% es.Ey (V/m) @ t=0.28
0.08205952934220828
% es.Ez (V/m) @ t=0.28
0.5268416545100159
% es.tEx (V/m) @ t=0.28
1.3032123480246787
% es.tEy (V/m) @ t=0.28
0
% es.tEz (V/m) @ t=0.28
0.5268416545100156
% V (V) @ t=0.28
0.007034165609347276
% es.normE (V/m) @ t=0.3
1.4242198286264927
% es.EX (V/m) @ t=0.3
1.316164828328371
% es.EY (V/m) @ t=0.3
0.08287542827383448
% es.EZ (V/m) @ t=0.3
0.5320783056459399
% es.tEX (V/m) @ t=0.3
1.316164828328371
% es.tEY (V/m) @ t=0.3
0
% es.tEZ (V/m) @ t=0.3
0.5320783056459426
% es.Ex (V/m) @ t=0.3
1.316164828328371
% es.Ey (V/m) @ t=0.3
0.08287542827383448
% es.Ez (V/m) @ t=0.3
0.5320783056459399
% es.tEx (V/m) @ t=0.3
1.316164828328371
% es.tEy (V/m) @ t=0.3
0
% es.tEz (V/m) @ t=0.3
0.5320783056459426
% V (V) @ t=0.3
0.007104032532420339
% es.normE (V/m) @ t=0.32
1.4382358525050207
% es.EX (V/m) @ t=0.32
1.329117308632048
% es.EY (V/m) @ t=0.32
0.0836913272054493
% es.EZ (V/m) @ t=0.32
0.5373149567818554
% es.tEX (V/m) @ t=0.32
1.3291173086320462
% es.tEY (V/m) @ t=0.32
0
% es.tEZ (V/m) @ t=0.32
0.5373149567818594
% es.Ex (V/m) @ t=0.32
1.329117308632048
% es.Ey (V/m) @ t=0.32
0.0836913272054493
% es.Ez (V/m) @ t=0.32
0.5373149567818554
% es.tEx (V/m) @ t=0.32
1.3291173086320462
% es.tEy (V/m) @ t=0.32
0
% es.tEz (V/m) @ t=0.32
0.5373149567818594
% V (V) @ t=0.32
0.0071738994554934
% es.normE (V/m) @ t=0.34
1.4522518763837735
% es.EX (V/m) @ t=0.34
1.3420697889357402
% es.EY (V/m) @ t=0.34
0.08450722613706135
% es.EZ (V/m) @ t=0.34
0.5425516079177819
% es.tEX (V/m) @ t=0.34
1.342069788935743
% es.tEY (V/m) @ t=0.34
0
% es.tEZ (V/m) @ t=0.34
0.5425516079177801
% es.Ex (V/m) @ t=0.34
1.3420697889357402
% es.Ey (V/m) @ t=0.34
0.08450722613706135
% es.Ez (V/m) @ t=0.34
0.5425516079177819
% es.tEx (V/m) @ t=0.34
1.342069788935743
% es.tEy (V/m) @ t=0.34
0
% es.tEz (V/m) @ t=0.34
0.5425516079177801
% V (V) @ t=0.34
0.0072437663785664625
% es.normE (V/m) @ t=0.36
1.466267900262717
% es.EX (V/m) @ t=0.36
1.3550222692394263
% es.EY (V/m) @ t=0.36
0.08532312506867962
% es.EZ (V/m) @ t=0.36
0.5477882590536991
% es.tEX (V/m) @ t=0.36
1.3550222692394227
% es.tEY (V/m) @ t=0.36
0
% es.tEZ (V/m) @ t=0.36
0.5477882590537
% es.Ex (V/m) @ t=0.36
1.3550222692394263
% es.Ey (V/m) @ t=0.36
0.08532312506867962
% es.Ez (V/m) @ t=0.36
0.5477882590536991
% es.tEx (V/m) @ t=0.36
1.3550222692394227
% es.tEy (V/m) @ t=0.36
0
% es.tEz (V/m) @ t=0.36
0.5477882590537
% V (V) @ t=0.36
0.007313633301639525
% es.normE (V/m) @ t=0.38
1.480283924141863
% es.EX (V/m) @ t=0.38
1.367974749543115
% es.EY (V/m) @ t=0.38
0.08613902400030404
% es.EZ (V/m) @ t=0.38
0.5530249101896283
% es.tEX (V/m) @ t=0.38
1.3679747495431185
% es.tEY (V/m) @ t=0.38
0
% es.tEZ (V/m) @ t=0.38
0.5530249101896301
% es.Ex (V/m) @ t=0.38
1.367974749543115
% es.Ey (V/m) @ t=0.38
0.08613902400030404
% es.Ez (V/m) @ t=0.38
0.5530249101896283
% es.tEx (V/m) @ t=0.38
1.3679747495431185
% es.tEy (V/m) @ t=0.38
0
% es.tEz (V/m) @ t=0.38
0.5530249101896301
% V (V) @ t=0.38
0.00738350022471259
% es.normE (V/m) @ t=0.4
1.494299948021189
% es.EX (V/m) @ t=0.4
1.3809272298467983
% es.EY (V/m) @ t=0.4
0.08695492293191875
% es.EZ (V/m) @ t=0.4
0.558261561325549
% es.tEX (V/m) @ t=0.4
1.3809272298467965
% es.tEY (V/m) @ t=0.4
0
% es.tEZ (V/m) @ t=0.4
0.5582615613255499
% es.Ex (V/m) @ t=0.4
1.3809272298467983
% es.Ey (V/m) @ t=0.4
0.08695492293191875
% es.Ez (V/m) @ t=0.4
0.558261561325549
% es.tEx (V/m) @ t=0.4
1.3809272298467965
% es.tEy (V/m) @ t=0.4
0
% es.tEz (V/m) @ t=0.4
0.5582615613255499
% V (V) @ t=0.4
0.007453367147785651
% es.normE (V/m) @ t=0.42
1.5083159719007135
% es.EX (V/m) @ t=0.42
1.393879710150495
% es.EY (V/m) @ t=0.42
0.08777082186354329
% es.EZ (V/m) @ t=0.42
0.5634982124614738
% es.tEX (V/m) @ t=0.42
1.393879710150494
% es.tEY (V/m) @ t=0.42
0
% es.tEZ (V/m) @ t=0.42
0.5634982124614747
% es.Ex (V/m) @ t=0.42
1.393879710150495
% es.Ey (V/m) @ t=0.42
0.08777082186354329
% es.Ez (V/m) @ t=0.42
0.5634982124614738
% es.tEx (V/m) @ t=0.42
1.393879710150494
% es.tEy (V/m) @ t=0.42
0
% es.tEz (V/m) @ t=0.42
0.5634982124614747
% V (V) @ t=0.42
0.007523234070858713
% es.normE (V/m) @ t=0.44
1.5223319957803931
% es.EX (V/m) @ t=0.44
1.4068321904541703
% es.EY (V/m) @ t=0.44
0.08858672079515711
% es.EZ (V/m) @ t=0.44
0.5687348635973892
% es.tEX (V/m) @ t=0.44
1.4068321904541694
% es.tEY (V/m) @ t=0.44
0
% es.tEZ (V/m) @ t=0.44
0.568734863597391
% es.Ex (V/m) @ t=0.44
1.4068321904541703
% es.Ey (V/m) @ t=0.44
0.08858672079515711
% es.Ez (V/m) @ t=0.44
0.5687348635973892
% es.tEx (V/m) @ t=0.44
1.4068321904541694
% es.tEy (V/m) @ t=0.44
0
% es.tEz (V/m) @ t=0.44
0.568734863597391
% V (V) @ t=0.44
0.007593100993931776
% es.normE (V/m) @ t=0.46
1.5363480196602664
% es.EX (V/m) @ t=0.46
1.4197846707578607
% es.EY (V/m) @ t=0.46
0.08940261972677721
% es.EZ (V/m) @ t=0.46
0.5739715147333198
% es.tEX (V/m) @ t=0.46
1.4197846707578563
% es.tEY (V/m) @ t=0.46
0
% es.tEZ (V/m) @ t=0.46
0.5739715147333198
% es.Ex (V/m) @ t=0.46
1.4197846707578607
% es.Ey (V/m) @ t=0.46
0.08940261972677721
% es.Ez (V/m) @ t=0.46
0.5739715147333198
% es.tEx (V/m) @ t=0.46
1.4197846707578563
% es.tEy (V/m) @ t=0.46
0
% es.tEz (V/m) @ t=0.46
0.5739715147333198
% V (V) @ t=0.46
0.007662967917004836
% es.normE (V/m) @ t=0.48
1.5503640435403003
% es.EX (V/m) @ t=0.48
1.4327371510615459
% es.EY (V/m) @ t=0.48
0.09021851865840436
% es.EZ (V/m) @ t=0.48
0.5792081658692396
% es.tEX (V/m) @ t=0.48
1.432737151061545
% es.tEY (V/m) @ t=0.48
0
% es.tEZ (V/m) @ t=0.48
0.5792081658692378
% es.Ex (V/m) @ t=0.48
1.4327371510615459
% es.Ey (V/m) @ t=0.48
0.09021851865840436
% es.Ez (V/m) @ t=0.48
0.5792081658692396
% es.tEx (V/m) @ t=0.48
1.432737151061545
% es.tEy (V/m) @ t=0.48
0
% es.tEz (V/m) @ t=0.48
0.5792081658692378
% V (V) @ t=0.48
0.007732834840077899
% es.normE (V/m) @ t=0.5
1.5643800674204953
% es.EX (V/m) @ t=0.5
1.4456896313652248
% es.EY (V/m) @ t=0.5
0.09103441759001102
% es.EZ (V/m) @ t=0.5
0.5844448170051679
% es.tEX (V/m) @ t=0.5
1.4456896313652248
% es.tEY (V/m) @ t=0.5
0
% es.tEZ (V/m) @ t=0.5
0.5844448170051697
% es.Ex (V/m) @ t=0.5
1.4456896313652248
% es.Ey (V/m) @ t=0.5
0.09103441759001102
% es.Ez (V/m) @ t=0.5
0.5844448170051679
% es.tEx (V/m) @ t=0.5
1.4456896313652248
% es.tEy (V/m) @ t=0.5
0
% es.tEz (V/m) @ t=0.5
0.5844448170051697
% V (V) @ t=0.5
0.007802701763150961
% es.normE (V/m) @ t=0.52
1.578396091300864
% es.EX (V/m) @ t=0.52
1.4586421116689205
% es.EY (V/m) @ t=0.52
0.09185031652162834
% es.EZ (V/m) @ t=0.52
0.5896814681410887
% es.tEX (V/m) @ t=0.52
1.4586421116689205
% es.tEY (V/m) @ t=0.52
0
% es.tEZ (V/m) @ t=0.52
0.5896814681410896
% es.Ex (V/m) @ t=0.52
1.4586421116689205
% es.Ey (V/m) @ t=0.52
0.09185031652162834
% es.Ez (V/m) @ t=0.52
0.5896814681410887
% es.tEx (V/m) @ t=0.52
1.4586421116689205
% es.tEy (V/m) @ t=0.52
0
% es.tEz (V/m) @ t=0.52
0.5896814681410896
% V (V) @ t=0.52
0.007872568686224025
% es.normE (V/m) @ t=0.54
1.592412115181385
% es.EX (V/m) @ t=0.54
1.471594591972608
% es.EY (V/m) @ t=0.54
0.09266621545325293
% es.EZ (V/m) @ t=0.54
0.5949181192770197
% es.tEX (V/m) @ t=0.54
1.47159459197261
% es.tEY (V/m) @ t=0.54
0
% es.tEZ (V/m) @ t=0.54
0.5949181192770197
% es.Ex (V/m) @ t=0.54
1.471594591972608
% es.Ey (V/m) @ t=0.54
0.09266621545325293
% es.Ez (V/m) @ t=0.54
0.5949181192770197
% es.tEx (V/m) @ t=0.54
1.47159459197261
% es.tEy (V/m) @ t=0.54
0
% es.tEz (V/m) @ t=0.54
0.5949181192770197
% V (V) @ t=0.54
0.007942435609297086
% es.normE (V/m) @ t=0.56
1.6071568045608307
% es.EX (V/m) @ t=0.56
1.4852204535536968
% es.EY (V/m) @ t=0.56
0.09352451679073875
% es.EZ (V/m) @ t=0.56
0.6004269961735629
% es.tEX (V/m) @ t=0.56
1.485220453553696
% es.tEY (V/m) @ t=0.56
0
% es.tEZ (V/m) @ t=0.56
0.600426996173562
% es.Ex (V/m) @ t=0.56
1.4852204535536968
% es.Ey (V/m) @ t=0.56
0.09352451679073875
% es.Ez (V/m) @ t=0.56
0.6004269961735629
% es.tEx (V/m) @ t=0.56
1.485220453553696
% es.tEy (V/m) @ t=0.56
0
% es.tEz (V/m) @ t=0.56
0.600426996173562
% V (V) @ t=0.56
0.00801593693307769
% es.normE (V/m) @ t=0.58
1.6228223355455986
% es.EX (V/m) @ t=0.58
1.4996972920198317
% es.EY (V/m) @ t=0.58
0.09443640362051414
% es.EZ (V/m) @ t=0.58
0.606279894856196
% es.tEX (V/m) @ t=0.58
1.4996972920198361
% es.tEY (V/m) @ t=0.58
0
% es.tEZ (V/m) @ t=0.58
0.6062798948561987
% es.Ex (V/m) @ t=0.58
1.4996972920198317
% es.Ey (V/m) @ t=0.58
0.09443640362051414
% es.Ez (V/m) @ t=0.58
0.606279894856196
% es.tEx (V/m) @ t=0.58
1.4996972920198361
% es.tEy (V/m) @ t=0.58
0
% es.tEz (V/m) @ t=0.58
0.6062798948561987
% V (V) @ t=0.58
0.008094031183773298
% es.normE (V/m) @ t=0.6
1.6384878665305165
% es.EX (V/m) @ t=0.6
1.5141741304859666
% es.EY (V/m) @ t=0.6
0.09534829045029486
% es.EZ (V/m) @ t=0.6
0.6121327935388488
% es.tEX (V/m) @ t=0.6
1.514174130485963
% es.tEY (V/m) @ t=0.6
0
% es.tEZ (V/m) @ t=0.6
0.6121327935388496
% es.Ex (V/m) @ t=0.6
1.5141741304859666
% es.Ey (V/m) @ t=0.6
0.09534829045029486
% es.Ez (V/m) @ t=0.6
0.6121327935388488
% es.tEx (V/m) @ t=0.6
1.514174130485963
% es.tEy (V/m) @ t=0.6
0
% es.tEz (V/m) @ t=0.6
0.6121327935388496
% V (V) @ t=0.6
0.008172125434468911
% es.normE (V/m) @ t=0.62
1.6541533975155753
% es.EX (V/m) @ t=0.62
1.5286509689521024
% es.EY (V/m) @ t=0.62
0.09626017728008712
% es.EZ (V/m) @ t=0.62
0.6179856922215059
% es.tEX (V/m) @ t=0.62
1.5286509689521006
% es.tEY (V/m) @ t=0.62
0
% es.tEZ (V/m) @ t=0.62
0.6179856922215059
% es.Ex (V/m) @ t=0.62
1.5286509689521024
% es.Ey (V/m) @ t=0.62
0.09626017728008712
% es.Ez (V/m) @ t=0.62
0.6179856922215059
% es.tEx (V/m) @ t=0.62
1.5286509689521006
% es.tEy (V/m) @ t=0.62
0
% es.tEz (V/m) @ t=0.62
0.6179856922215059
% V (V) @ t=0.62
0.008250219685164522
% es.normE (V/m) @ t=0.64
1.6698189285007712
% es.EX (V/m) @ t=0.64
1.5431278074182417
% es.EY (V/m) @ t=0.64
0.09717206410985901
% es.EZ (V/m) @ t=0.64
0.6238385909041624
% es.tEX (V/m) @ t=0.64
1.5431278074182444
% es.tEY (V/m) @ t=0.64
0
% es.tEZ (V/m) @ t=0.64
0.6238385909041644
% es.Ex (V/m) @ t=0.64
1.5431278074182417
% es.Ey (V/m) @ t=0.64
0.09717206410985901
% es.Ez (V/m) @ t=0.64
0.6238385909041624
% es.tEx (V/m) @ t=0.64
1.5431278074182444
% es.tEy (V/m) @ t=0.64
0
% es.tEz (V/m) @ t=0.64
0.6238385909041644
% V (V) @ t=0.64
0.008328313935860135
% es.normE (V/m) @ t=0.66
1.6854844594860947
% es.EX (V/m) @ t=0.66
1.5576046458843802
% es.EY (V/m) @ t=0.66
0.09808395093964861
% es.EZ (V/m) @ t=0.66
0.6296914895868082
% es.tEX (V/m) @ t=0.66
1.5576046458843784
% es.tEY (V/m) @ t=0.66
0
% es.tEZ (V/m) @ t=0.66
0.6296914895868082
% es.Ex (V/m) @ t=0.66
1.5576046458843802
% es.Ey (V/m) @ t=0.66
0.09808395093964861
% es.Ez (V/m) @ t=0.66
0.6296914895868082
% es.tEx (V/m) @ t=0.66
1.5576046458843784
% es.tEy (V/m) @ t=0.66
0
% es.tEz (V/m) @ t=0.66
0.6296914895868082
% V (V) @ t=0.66
0.008406408186555747
% es.normE (V/m) @ t=0.68
1.7011499904715386
% es.EX (V/m) @ t=0.68
1.5720814843505106
% es.EY (V/m) @ t=0.68
0.09899583776942655
% es.EZ (V/m) @ t=0.68
0.63554438826946
% es.tEX (V/m) @ t=0.68
1.572081484350516
% es.tEY (V/m) @ t=0.68
0
% es.tEZ (V/m) @ t=0.68
0.6355443882694609
% es.Ex (V/m) @ t=0.68
1.5720814843505106
% es.Ey (V/m) @ t=0.68
0.09899583776942655
% es.Ez (V/m) @ t=0.68
0.63554438826946
% es.tEx (V/m) @ t=0.68
1.572081484350516
% es.tEy (V/m) @ t=0.68
0
% es.tEz (V/m) @ t=0.68
0.6355443882694609
% V (V) @ t=0.68
0.008484502437251358
% es.normE (V/m) @ t=0.7
1.716815521457122
% es.EX (V/m) @ t=0.7
1.5865583228166544
% es.EY (V/m) @ t=0.7
0.09990772459921005
% es.EZ (V/m) @ t=0.7
0.641397286952119
% es.tEX (V/m) @ t=0.7
1.5865583228166473
% es.tEY (V/m) @ t=0.7
0
% es.tEZ (V/m) @ t=0.7
0.6413972869521172
% es.Ex (V/m) @ t=0.7
1.5865583228166544
% es.Ey (V/m) @ t=0.7
0.09990772459921005
% es.Ez (V/m) @ t=0.7
0.641397286952119
% es.tEx (V/m) @ t=0.7
1.5865583228166473
% es.tEy (V/m) @ t=0.7
0
% es.tEz (V/m) @ t=0.7
0.6413972869521172
% V (V) @ t=0.7
0.008562596687946972
% es.normE (V/m) @ t=0.72
1.7324810524428043
% es.EX (V/m) @ t=0.72
1.6010351612827796
% es.EY (V/m) @ t=0.72
0.10081961142898788
% es.EZ (V/m) @ t=0.72
0.6472501856347677
% es.tEX (V/m) @ t=0.72
1.6010351612827867
% es.tEY (V/m) @ t=0.72
0
% es.tEZ (V/m) @ t=0.72
0.6472501856347641
% es.Ex (V/m) @ t=0.72
1.6010351612827796
% es.Ey (V/m) @ t=0.72
0.10081961142898788
% es.Ez (V/m) @ t=0.72
0.6472501856347677
% es.tEx (V/m) @ t=0.72
1.6010351612827867
% es.tEy (V/m) @ t=0.72
0
% es.tEz (V/m) @ t=0.72
0.6472501856347641
% V (V) @ t=0.72
0.008640690938642583
% es.normE (V/m) @ t=0.74
1.7481465834286123
% es.EX (V/m) @ t=0.74
1.6155119997489136
% es.EY (V/m) @ t=0.74
0.10173149825876693
% es.EZ (V/m) @ t=0.74
0.6531030843174177
% es.tEX (V/m) @ t=0.74
1.6155119997489065
% es.tEY (V/m) @ t=0.74
0
% es.tEZ (V/m) @ t=0.74
0.6531030843174204
% es.Ex (V/m) @ t=0.74
1.6155119997489136
% es.Ey (V/m) @ t=0.74
0.10173149825876693
% es.Ez (V/m) @ t=0.74
0.6531030843174177
% es.tEx (V/m) @ t=0.74
1.6155119997489065
% es.tEy (V/m) @ t=0.74
0
% es.tEz (V/m) @ t=0.74
0.6531030843174204
% V (V) @ t=0.74
0.008718785189338194
% es.normE (V/m) @ t=0.76
1.7638121144145402
% es.EX (V/m) @ t=0.76
1.6299888382150494
% es.EY (V/m) @ t=0.76
0.10264338508856174
% es.EZ (V/m) @ t=0.76
0.6589559830000775
% es.tEX (V/m) @ t=0.76
1.6299888382150547
% es.tEY (V/m) @ t=0.76
0
% es.tEZ (V/m) @ t=0.76
0.658955983000082
% es.Ex (V/m) @ t=0.76
1.6299888382150494
% es.Ey (V/m) @ t=0.76
0.10264338508856174
% es.Ez (V/m) @ t=0.76
0.6589559830000775
% es.tEx (V/m) @ t=0.76
1.6299888382150547
% es.tEy (V/m) @ t=0.76
0
% es.tEz (V/m) @ t=0.76
0.658955983000082
% V (V) @ t=0.76
0.008796879440033809
% es.normE (V/m) @ t=0.78
1.7794776454005767
% es.EX (V/m) @ t=0.78
1.6444656766811891
% es.EY (V/m) @ t=0.78
0.1035552719183308
% es.EZ (V/m) @ t=0.78
0.6648088816827231
% es.tEX (V/m) @ t=0.78
1.6444656766811896
% es.tEY (V/m) @ t=0.78
0
% es.tEZ (V/m) @ t=0.78
0.6648088816827258
% es.Ex (V/m) @ t=0.78
1.6444656766811891
% es.Ey (V/m) @ t=0.78
0.1035552719183308
% es.Ez (V/m) @ t=0.78
0.6648088816827231
% es.tEx (V/m) @ t=0.78
1.6444656766811896
% es.tEy (V/m) @ t=0.78
0
% es.tEz (V/m) @ t=0.78
0.6648088816827258
% V (V) @ t=0.78
0.00887497369072942
% es.normE (V/m) @ t=0.8
1.795143176386727
% es.EX (V/m) @ t=0.8
1.6589425151473307
% es.EY (V/m) @ t=0.8
0.10446715874811074
% es.EZ (V/m) @ t=0.8
0.6706617803653776
% es.tEX (V/m) @ t=0.8
1.6589425151473272
% es.tEY (V/m) @ t=0.8
0
% es.tEZ (V/m) @ t=0.8
0.6706617803653767
% es.Ex (V/m) @ t=0.8
1.6589425151473307
% es.Ey (V/m) @ t=0.8
0.10446715874811074
% es.Ez (V/m) @ t=0.8
0.6706617803653776
% es.tEx (V/m) @ t=0.8
1.6589425151473272
% es.tEy (V/m) @ t=0.8
0
% es.tEz (V/m) @ t=0.8
0.6706617803653767
% V (V) @ t=0.8
0.008953067941425032
% es.normE (V/m) @ t=0.82
1.8108087073729728
% es.EX (V/m) @ t=0.82
1.673419353613458
% es.EY (V/m) @ t=0.82
0.10537904557789757
% es.EZ (V/m) @ t=0.82
0.676514679048043
% es.tEX (V/m) @ t=0.82
1.6734193536134612
% es.tEY (V/m) @ t=0.82
0
% es.tEZ (V/m) @ t=0.82
0.6765146790480419
% es.Ex (V/m) @ t=0.82
1.673419353613458
% es.Ey (V/m) @ t=0.82
0.10537904557789757
% es.Ez (V/m) @ t=0.82
0.676514679048043
% es.tEx (V/m) @ t=0.82
1.6734193536134612
% es.tEy (V/m) @ t=0.82
0
% es.tEz (V/m) @ t=0.82
0.6765146790480419
% V (V) @ t=0.82
0.009031162192120641
% es.normE (V/m) @ t=0.84
1.8277319980642264
% es.EX (V/m) @ t=0.84
1.6890589706817467
% es.EY (V/m) @ t=0.84
0.10636323348806476
% es.EZ (V/m) @ t=0.84
0.682836408785015
% es.tEX (V/m) @ t=0.84
1.6890589706817503
% es.tEY (V/m) @ t=0.84
0
% es.tEZ (V/m) @ t=0.84
0.6828364087850187
% es.Ex (V/m) @ t=0.84
1.6890589706817467
% es.Ey (V/m) @ t=0.84
0.10636323348806476
% es.Ez (V/m) @ t=0.84
0.682836408785015
% es.tEx (V/m) @ t=0.84
1.6890589706817503
% es.tEy (V/m) @ t=0.84
0
% es.tEz (V/m) @ t=0.84
0.6828364087850187
% V (V) @ t=0.84
0.009115661516975338
% es.normE (V/m) @ t=0.86
1.8452813466275362
% es.EX (V/m) @ t=0.86
1.705277368174019
% es.EY (V/m) @ t=0.86
0.10738340971955518
% es.EZ (V/m) @ t=0.86
0.6893915021527857
% es.tEX (V/m) @ t=0.86
1.7052773681740145
% es.tEY (V/m) @ t=0.86
0
% es.tEZ (V/m) @ t=0.86
0.689391502152791
% es.Ex (V/m) @ t=0.86
1.705277368174019
% es.Ey (V/m) @ t=0.86
0.10738340971955518
% es.Ez (V/m) @ t=0.86
0.6893915021527857
% es.tEx (V/m) @ t=0.86
1.7052773681740145
% es.tEy (V/m) @ t=0.86
0
% es.tEz (V/m) @ t=0.86
0.689391502152791
% V (V) @ t=0.86
0.009203349008116004
% es.normE (V/m) @ t=0.88
1.8628306951928844
% es.EX (V/m) @ t=0.88
1.721495765666278
% es.EY (V/m) @ t=0.88
0.10840358595103228
% es.EZ (V/m) @ t=0.88
0.6959465955205635
% es.tEX (V/m) @ t=0.88
1.7214957656662833
% es.tEY (V/m) @ t=0.88
0
% es.tEZ (V/m) @ t=0.88
0.6959465955205637
% es.Ex (V/m) @ t=0.88
1.721495765666278
% es.Ey (V/m) @ t=0.88
0.10840358595103228
% es.Ez (V/m) @ t=0.88
0.6959465955205635
% es.tEx (V/m) @ t=0.88
1.7214957656662833
% es.tEy (V/m) @ t=0.88
0
% es.tEz (V/m) @ t=0.88
0.6959465955205637
% V (V) @ t=0.88
0.00929103649925667
% es.normE (V/m) @ t=0.9
1.8803800437602203
% es.EX (V/m) @ t=0.9
1.737714163158535
% es.EY (V/m) @ t=0.9
0.10942376218252425
% es.EZ (V/m) @ t=0.9
0.7025016888883329
% es.tEX (V/m) @ t=0.9
1.737714163158543
% es.tEY (V/m) @ t=0.9
0
% es.tEZ (V/m) @ t=0.9
0.7025016888883302
% es.Ex (V/m) @ t=0.9
1.737714163158535
% es.Ey (V/m) @ t=0.9
0.10942376218252425
% es.Ez (V/m) @ t=0.9
0.7025016888883329
% es.tEx (V/m) @ t=0.9
1.737714163158543
% es.tEy (V/m) @ t=0.9
0
% es.tEz (V/m) @ t=0.9
0.7025016888883302
% V (V) @ t=0.9
0.009378723990397339
% es.normE (V/m) @ t=0.92
1.8979293923295022
% es.EX (V/m) @ t=0.92
1.7539325606508038
% es.EY (V/m) @ t=0.92
0.11044393841401312
% es.EZ (V/m) @ t=0.92
0.7090567822560991
% es.tEX (V/m) @ t=0.92
1.75393256065081
% es.tEY (V/m) @ t=0.92
0
% es.tEZ (V/m) @ t=0.92
0.7090567822561007
% es.Ex (V/m) @ t=0.92
1.7539325606508038
% es.Ey (V/m) @ t=0.92
0.11044393841401312
% es.Ez (V/m) @ t=0.92
0.7090567822560991
% es.tEx (V/m) @ t=0.92
1.75393256065081
% es.tEy (V/m) @ t=0.92
0
% es.tEz (V/m) @ t=0.92
0.7090567822561007
% V (V) @ t=0.92
0.009466411481538005
% es.normE (V/m) @ t=0.94
1.9154787409006813
% es.EX (V/m) @ t=0.94
1.7701509581430823
% es.EY (V/m) @ t=0.94
0.11146411464549821
% es.EZ (V/m) @ t=0.94
0.7156118756238823
% es.tEX (V/m) @ t=0.94
1.7701509581430823
% es.tEY (V/m) @ t=0.94
0
% es.tEZ (V/m) @ t=0.94
0.7156118756238805
% es.Ex (V/m) @ t=0.94
1.7701509581430823
% es.Ey (V/m) @ t=0.94
0.11146411464549821
% es.Ez (V/m) @ t=0.94
0.7156118756238823
% es.tEx (V/m) @ t=0.94
1.7701509581430823
% es.tEy (V/m) @ t=0.94
0
% es.tEz (V/m) @ t=0.94
0.7156118756238805
% V (V) @ t=0.94
0.009554098972678669
% es.normE (V/m) @ t=0.96
1.9330280894736775
% es.EX (V/m) @ t=0.96
1.7863693556353466
% es.EY (V/m) @ t=0.96
0.11248429087699208
% es.EZ (V/m) @ t=0.96
0.7221669689916577
% es.tEX (V/m) @ t=0.96
1.7863693556353457
% es.tEY (V/m) @ t=0.96
0
% es.tEZ (V/m) @ t=0.96
0.7221669689916523
% es.Ex (V/m) @ t=0.96
1.7863693556353466
% es.Ey (V/m) @ t=0.96
0.11248429087699208
% es.Ez (V/m) @ t=0.96
0.7221669689916577
% es.tEx (V/m) @ t=0.96
1.7863693556353457
% es.tEy (V/m) @ t=0.96
0
% es.tEz (V/m) @ t=0.96
0.7221669689916523
% V (V) @ t=0.96
0.009641786463819333
% es.normE (V/m) @ t=0.98
1.9505774380484593
% es.EX (V/m) @ t=0.98
1.8025877531276207
% es.EY (V/m) @ t=0.98
0.11350446710847628
% es.EZ (V/m) @ t=0.98
0.7287220623594195
% es.tEX (V/m) @ t=0.98
1.8025877531276127
% es.tEY (V/m) @ t=0.98
0
% es.tEZ (V/m) @ t=0.98
0.7287220623594179
% es.Ex (V/m) @ t=0.98
1.8025877531276207
% es.Ey (V/m) @ t=0.98
0.11350446710847628
% es.Ez (V/m) @ t=0.98
0.7287220623594195
% es.tEx (V/m) @ t=0.98
1.8025877531276127
% es.tEy (V/m) @ t=0.98
0
% es.tEz (V/m) @ t=0.98
0.7287220623594179
% V (V) @ t=0.98
0.009729473954959999
% es.normE (V/m) @ t=1
1.9681267866249725
% es.EX (V/m) @ t=1
1.8188061506198867
% es.EY (V/m) @ t=1
0.1145246433399606
% es.EZ (V/m) @ t=1
0.7352771557271942
% es.tEX (V/m) @ t=1
1.8188061506198938
% es.tEY (V/m) @ t=1
0
% es.tEZ (V/m) @ t=1
0.7352771557271951
% es.Ex (V/m) @ t=1
1.8188061506198867
% es.Ey (V/m) @ t=1
0.1145246433399606
% es.Ez (V/m) @ t=1
0.7352771557271942
% es.tEx (V/m) @ t=1
1.8188061506198938
% es.tEy (V/m) @ t=1
0
% es.tEz (V/m) @ t=1
0.7352771557271951
% V (V) @ t=1
0.009817161446100665
% es.normE (V/m) @ t=1.02
1.98567613520318
% es.EX (V/m) @ t=1.02
1.8350245481121545
% es.EY (V/m) @ t=1.02
0.1155448195714448
% es.EZ (V/m) @ t=1.02
0.7418322490949774
% es.tEX (V/m) @ t=1.02
1.8350245481121554
% es.tEY (V/m) @ t=1.02
0
% es.tEZ (V/m) @ t=1.02
0.7418322490949745
% es.Ex (V/m) @ t=1.02
1.8350245481121545
% es.Ey (V/m) @ t=1.02
0.1155448195714448
% es.Ez (V/m) @ t=1.02
0.7418322490949774
% es.tEx (V/m) @ t=1.02
1.8350245481121554
% es.tEy (V/m) @ t=1.02
0
% es.tEz (V/m) @ t=1.02
0.7418322490949745
% V (V) @ t=1.02
0.009904848937241332
% es.normE (V/m) @ t=1.04
2.0032254837830226
% es.EX (V/m) @ t=1.04
1.8512429456044162
% es.EY (V/m) @ t=1.04
0.11656499580293878
% es.EZ (V/m) @ t=1.04
0.7483873424627498
% es.tEX (V/m) @ t=1.04
1.8512429456044224
% es.tEY (V/m) @ t=1.04
0
% es.tEZ (V/m) @ t=1.04
0.7483873424627472
% es.Ex (V/m) @ t=1.04
1.8512429456044162
% es.Ey (V/m) @ t=1.04
0.11656499580293878
% es.Ez (V/m) @ t=1.04
0.7483873424627498