% Model:              1 neuron.mph
% Version:            COMSOL 6.1.0.252
% Date:               Mar 18 2023, 11:37
% Dimension:          0
% Nodes:              14017
% Expressions:        14017
% Description:        Electric field norm, Electric field, X component, Electric field, Y component, Electric field, Z component, Tangential electric field, X component, Tangential electric field, Y component, Tangential electric field, Z component, Electric field, x component, Electric field, y component, Electric field, z component, Tangential electric field, x component, Tangential electric field, y component, Tangential electric field, z component, Electric potential
% Length unit:        mm
% x
2
% y
12.2
% z
1
% es.normE (V/m) @ t=0
0.7656009760242928
% es.EX (V/m) @ t=0
-0.4944150630221258
% es.EY (V/m) @ t=0
0.10984687744449134
% es.EZ (V/m) @ t=0
0.5638607242513949
% es.tEX (V/m) @ t=0
-0.494415063022124
% es.tEY (V/m) @ t=0
0
% es.tEZ (V/m) @ t=0
0.5638607242514095
% es.Ex (V/m) @ t=0
-0.4944150630221258
% es.Ey (V/m) @ t=0
0.10984687744449134
% es.Ez (V/m) @ t=0
0.5638607242513949
% es.tEx (V/m) @ t=0
-0.494415063022124
% es.tEy (V/m) @ t=0
0
% es.tEz (V/m) @ t=0
0.5638607242514095
% V (V) @ t=0
0.007409532867395073
% es.normE (V/m) @ t=0.02
0.6612568991152665
% es.EX (V/m) @ t=0.02
-0.42703102751053423
% es.EY (V/m) @ t=0.02
0.0948758006875402
% es.EZ (V/m) @ t=0.02
0.4870119105173085
% es.tEX (V/m) @ t=0.02
-0.4270310275105347
% es.tEY (V/m) @ t=0.02
0
% es.tEZ (V/m) @ t=0.02
0.4870119105173143
% es.Ex (V/m) @ t=0.02
-0.42703102751053423
% es.Ey (V/m) @ t=0.02
0.0948758006875402
% es.Ez (V/m) @ t=0.02
0.4870119105173085
% es.tEx (V/m) @ t=0.02
-0.4270310275105347
% es.tEy (V/m) @ t=0.02
0
% es.tEz (V/m) @ t=0.02
0.4870119105173143
% V (V) @ t=0.02
0.006399684532183064
% es.normE (V/m) @ t=0.04
0.6673381651936248
% es.EX (V/m) @ t=0.04
-0.4309582293320944
% es.EY (V/m) @ t=0.04
0.095748328374121
% es.EZ (V/m) @ t=0.04
0.4914907281020957
% es.tEX (V/m) @ t=0.04
-0.4309582293320946
% es.tEY (V/m) @ t=0.04
0
% es.tEZ (V/m) @ t=0.04
0.4914907281021028
% es.Ex (V/m) @ t=0.04
-0.4309582293320944
% es.Ey (V/m) @ t=0.04
0.095748328374121
% es.Ez (V/m) @ t=0.04
0.4914907281020957
% es.tEx (V/m) @ t=0.04
-0.4309582293320946
% es.tEy (V/m) @ t=0.04
0
% es.tEz (V/m) @ t=0.04
0.4914907281021028
% V (V) @ t=0.04
0.006458539399538388
% es.normE (V/m) @ t=0.06
0.6734765102679334
% es.EX (V/m) @ t=0.06
-0.43492229200759924
% es.EY (V/m) @ t=0.06
0.09662904545628292
% es.EZ (V/m) @ t=0.06
0.4960115841205437
% es.tEX (V/m) @ t=0.06
-0.4349222920075977
% es.tEY (V/m) @ t=0.06
0
% es.tEZ (V/m) @ t=0.06
0.4960115841205459
% es.Ex (V/m) @ t=0.06
-0.43492229200759924
% es.Ey (V/m) @ t=0.06
0.09662904545628292
% es.Ez (V/m) @ t=0.06
0.4960115841205437
% es.tEx (V/m) @ t=0.06
-0.4349222920075977
% es.tEy (V/m) @ t=0.06
0
% es.tEz (V/m) @ t=0.06
0.4960115841205459
% V (V) @ t=0.06
0.006517946693690398
% es.normE (V/m) @ t=0.08
0.6797031935719704
% es.EX (V/m) @ t=0.08
-0.438943402364949
% es.EY (V/m) @ t=0.08
0.09752243729474513
% es.EZ (V/m) @ t=0.08
0.5005975006639605
% es.tEX (V/m) @ t=0.08
-0.43894340236494545
% es.tEY (V/m) @ t=0.08
0
% es.tEZ (V/m) @ t=0.08
0.500597500663968
% es.Ex (V/m) @ t=0.08
-0.438943402364949
% es.Ey (V/m) @ t=0.08
0.09752243729474513
% es.Ez (V/m) @ t=0.08
0.5005975006639605
% es.tEx (V/m) @ t=0.08
-0.43894340236494545
% es.tEy (V/m) @ t=0.08
0
% es.tEz (V/m) @ t=0.08
0.500597500663968
% V (V) @ t=0.08
0.006578208918875062
% es.normE (V/m) @ t=0.1
0.6860022827657584
% es.EX (V/m) @ t=0.1
-0.44301127150583763
% es.EY (V/m) @ t=0.1
0.09842621791969913
% es.EZ (V/m) @ t=0.1
0.5052367436687786
% es.tEX (V/m) @ t=0.1
-0.4430112715058381
% es.tEY (V/m) @ t=0.1
0
% es.tEZ (V/m) @ t=0.1
0.5052367436687808
% es.Ex (V/m) @ t=0.1
-0.44301127150583763
% es.Ey (V/m) @ t=0.1
0.09842621791969913
% es.Ez (V/m) @ t=0.1
0.5052367436687786
% es.tEx (V/m) @ t=0.1
-0.4430112715058381
% es.tEy (V/m) @ t=0.1
0
% es.tEz (V/m) @ t=0.1
0.5052367436687808
% V (V) @ t=0.1
0.0066391718830522365
% es.normE (V/m) @ t=0.12
0.692301371959541
% es.EX (V/m) @ t=0.12
-0.4470791406467285
% es.EY (V/m) @ t=0.12
0.09932999854463798
% es.EZ (V/m) @ t=0.12
0.5098759866735931
% es.tEX (V/m) @ t=0.12
-0.4470791406467267
% es.tEY (V/m) @ t=0.12
0
% es.tEZ (V/m) @ t=0.12
0.5098759866735971
% es.Ex (V/m) @ t=0.12
-0.4470791406467285
% es.Ey (V/m) @ t=0.12
0.09932999854463798
% es.Ez (V/m) @ t=0.12
0.5098759866735931
% es.tEx (V/m) @ t=0.12
-0.4470791406467267
% es.tEy (V/m) @ t=0.12
0
% es.tEz (V/m) @ t=0.12
0.5098759866735971
% V (V) @ t=0.12
0.006700134847229408
% es.normE (V/m) @ t=0.14
0.6986376255742224
% es.EX (V/m) @ t=0.14
-0.45117101008533433
% es.EY (V/m) @ t=0.14
0.10023911146588504
% es.EZ (V/m) @ t=0.14
0.5145426010510437
% es.tEX (V/m) @ t=0.14
-0.45117101008533456
% es.tEY (V/m) @ t=0.14
0
% es.tEZ (V/m) @ t=0.14
0.5145426010510512
% es.Ex (V/m) @ t=0.14
-0.45117101008533433
% es.Ey (V/m) @ t=0.14
0.10023911146588504
% es.Ez (V/m) @ t=0.14
0.5145426010510437
% es.tEx (V/m) @ t=0.14
-0.45117101008533456
% es.tEy (V/m) @ t=0.14
0
% es.tEz (V/m) @ t=0.14
0.5145426010510512
% V (V) @ t=0.14
0.00676145748943202
% es.normE (V/m) @ t=0.16
0.7052770627906533
% es.EX (V/m) @ t=0.16
-0.4554586715349511
% es.EY (V/m) @ t=0.16
0.10119172472311605
% es.EZ (V/m) @ t=0.16
0.5194325083290656
% es.tEX (V/m) @ t=0.16
-0.4554586715349529
% es.tEY (V/m) @ t=0.16
0
% es.tEZ (V/m) @ t=0.16
0.5194325083290714
% es.Ex (V/m) @ t=0.16
-0.4554586715349511
% es.Ey (V/m) @ t=0.16
0.10119172472311605
% es.Ez (V/m) @ t=0.16
0.5194325083290656
% es.tEx (V/m) @ t=0.16
-0.4554586715349529
% es.tEy (V/m) @ t=0.16
0
% es.tEz (V/m) @ t=0.16
0.5194325083290714
% V (V) @ t=0.16
0.006825714348732715
% es.normE (V/m) @ t=0.18
0.7119165000070697
% es.EX (V/m) @ t=0.18
-0.45974633298456813
% es.EY (V/m) @ t=0.18
0.10214433798033296
% es.EZ (V/m) @ t=0.18
0.5243224156070725
% es.tEX (V/m) @ t=0.18
-0.45974633298456835
% es.tEY (V/m) @ t=0.18
0
% es.tEZ (V/m) @ t=0.18
0.5243224156070836
% es.Ex (V/m) @ t=0.18
-0.45974633298456813
% es.Ey (V/m) @ t=0.18
0.10214433798033296
% es.Ez (V/m) @ t=0.18
0.5243224156070725
% es.tEx (V/m) @ t=0.18
-0.45974633298456835
% es.tEy (V/m) @ t=0.18
0
% es.tEz (V/m) @ t=0.18
0.5243224156070836
% V (V) @ t=0.18
0.006889971208033408
% es.normE (V/m) @ t=0.2
0.7185559372235004
% es.EX (V/m) @ t=0.2
-0.4640339944341849
% es.EY (V/m) @ t=0.2
0.10309695123756396
% es.EZ (V/m) @ t=0.2
0.5292123228850922
% es.tEX (V/m) @ t=0.2
-0.46403399443418536
% es.tEY (V/m) @ t=0.2
0
% es.tEZ (V/m) @ t=0.2
0.5292123228850962
% es.Ex (V/m) @ t=0.2
-0.4640339944341849
% es.Ey (V/m) @ t=0.2
0.10309695123756396
% es.Ez (V/m) @ t=0.2
0.5292123228850922
% es.tEx (V/m) @ t=0.2
-0.46403399443418536
% es.tEy (V/m) @ t=0.2
0
% es.tEz (V/m) @ t=0.2
0.5292123228850962
% V (V) @ t=0.2
0.0069542280673341025
% es.normE (V/m) @ t=0.22
0.7251953744399233
% es.EX (V/m) @ t=0.22
-0.4683216558838006
% es.EY (V/m) @ t=0.22
0.10404956449479241
% es.EZ (V/m) @ t=0.22
0.5341022301631058
% es.tEX (V/m) @ t=0.22
-0.46832165588380237
% es.tEY (V/m) @ t=0.22
0
% es.tEZ (V/m) @ t=0.22
0.5341022301631115
% es.Ex (V/m) @ t=0.22
-0.4683216558838006
% es.Ey (V/m) @ t=0.22
0.10404956449479241
% es.Ez (V/m) @ t=0.22
0.5341022301631058
% es.tEx (V/m) @ t=0.22
-0.46832165588380237
% es.tEy (V/m) @ t=0.22
0
% es.tEz (V/m) @ t=0.22
0.5341022301631115
% V (V) @ t=0.22
0.007018484926634797
% es.normE (V/m) @ t=0.24
0.7318348116563504
% es.EX (V/m) @ t=0.24
-0.47260931733341893
% es.EY (V/m) @ t=0.24
0.1050021777520172
% es.EZ (V/m) @ t=0.24
0.5389921374411224
% es.tEX (V/m) @ t=0.24
-0.47260931733341716
% es.tEY (V/m) @ t=0.24
0
% es.tEZ (V/m) @ t=0.24
0.5389921374411282
% es.Ex (V/m) @ t=0.24
-0.47260931733341893
% es.Ey (V/m) @ t=0.24
0.1050021777520172
% es.Ez (V/m) @ t=0.24
0.5389921374411224
% es.tEx (V/m) @ t=0.24
-0.47260931733341716
% es.tEy (V/m) @ t=0.24
0
% es.tEz (V/m) @ t=0.24
0.5389921374411282
% V (V) @ t=0.24
0.007082741785935491
% es.normE (V/m) @ t=0.26
0.7384742488727789
% es.EX (V/m) @ t=0.26
-0.47689697878303394
% es.EY (V/m) @ t=0.26
0.10595479100924832
% es.EZ (V/m) @ t=0.26
0.5438820447191435
% es.tEX (V/m) @ t=0.26
-0.47689697878303394
% es.tEY (V/m) @ t=0.26
0
% es.tEZ (V/m) @ t=0.26
0.5438820447191404
% es.Ex (V/m) @ t=0.26
-0.47689697878303394
% es.Ey (V/m) @ t=0.26
0.10595479100924832
% es.Ez (V/m) @ t=0.26
0.5438820447191435
% es.tEx (V/m) @ t=0.26
-0.47689697878303394
% es.tEy (V/m) @ t=0.26
0
% es.tEz (V/m) @ t=0.26
0.5438820447191404
% V (V) @ t=0.26
0.0071469986452361856
% es.normE (V/m) @ t=0.28
0.745288884666606
% es.EX (V/m) @ t=0.28
-0.4812977810020136
% es.EY (V/m) @ t=0.28
0.10693253936795716
% es.EZ (V/m) @ t=0.28
0.5489009856715654
% es.tEX (V/m) @ t=0.28
-0.4812977810020136
% es.tEY (V/m) @ t=0.28
0
% es.tEZ (V/m) @ t=0.28
0.548900985671573
% es.Ex (V/m) @ t=0.28
-0.4812977810020136
% es.Ey (V/m) @ t=0.28
0.10693253936795716
% es.Ez (V/m) @ t=0.28
0.5489009856715654
% es.tEx (V/m) @ t=0.28
-0.4812977810020136
% es.tEy (V/m) @ t=0.28
0
% es.tEz (V/m) @ t=0.28
0.548900985671573
% V (V) @ t=0.28
0.007212951233085335
% es.normE (V/m) @ t=0.3
0.7526951563298445
% es.EX (V/m) @ t=0.3
-0.4860806533178943
% es.EY (V/m) @ t=0.3
0.10799516756891747
% es.EZ (V/m) @ t=0.3
0.5543556661789415
% es.tEX (V/m) @ t=0.3
-0.4860806533178925
% es.tEY (V/m) @ t=0.3
0
% es.tEZ (V/m) @ t=0.3
0.5543556661789473
% es.Ex (V/m) @ t=0.3
-0.4860806533178943
% es.Ey (V/m) @ t=0.3
0.10799516756891747
% es.Ez (V/m) @ t=0.3
0.5543556661789415
% es.tEx (V/m) @ t=0.3
-0.4860806533178925
% es.tEy (V/m) @ t=0.3
0
% es.tEz (V/m) @ t=0.3
0.5543556661789473
% V (V) @ t=0.3
0.007284630202100797
% es.normE (V/m) @ t=0.32
0.7601014279930839
% es.EX (V/m) @ t=0.32
-0.4908635256337721
% es.EY (V/m) @ t=0.32
0.10905779576987956
% es.EZ (V/m) @ t=0.32
0.5598103466863211
% es.tEX (V/m) @ t=0.32
-0.49086352563377034
% es.tEY (V/m) @ t=0.32
0
% es.tEZ (V/m) @ t=0.32
0.5598103466863251
% es.Ex (V/m) @ t=0.32
-0.4908635256337721
% es.Ey (V/m) @ t=0.32
0.10905779576987956
% es.Ez (V/m) @ t=0.32
0.5598103466863211
% es.tEx (V/m) @ t=0.32
-0.49086352563377034
% es.tEy (V/m) @ t=0.32
0
% es.tEz (V/m) @ t=0.32
0.5598103466863251
% V (V) @ t=0.32
0.007356309171116256
% es.normE (V/m) @ t=0.34
0.7675076996563207
% es.EX (V/m) @ t=0.34
-0.4956463979496495
% es.EY (V/m) @ t=0.34
0.11012042397084165
% es.EZ (V/m) @ t=0.34
0.5652650271936972
% es.tEX (V/m) @ t=0.34
-0.4956463979496477
% es.tEY (V/m) @ t=0.34
0
% es.tEZ (V/m) @ t=0.34
0.565265027193703
% es.Ex (V/m) @ t=0.34
-0.4956463979496495
% es.Ey (V/m) @ t=0.34
0.11012042397084165
% es.Ez (V/m) @ t=0.34
0.5652650271936972
% es.tEx (V/m) @ t=0.34
-0.4956463979496477
% es.tEy (V/m) @ t=0.34
0
% es.tEz (V/m) @ t=0.34
0.565265027193703
% V (V) @ t=0.34
0.007427988140131717
% es.normE (V/m) @ t=0.36
0.7749139713195551
% es.EX (V/m) @ t=0.36
-0.5004292702655306
% es.EY (V/m) @ t=0.36
0.11118305217179397
% es.EZ (V/m) @ t=0.36
0.5707197077010697
% es.tEX (V/m) @ t=0.36
-0.5004292702655289
% es.tEY (V/m) @ t=0.36
0
% es.tEZ (V/m) @ t=0.36
0.5707197077010773
% es.Ex (V/m) @ t=0.36
-0.5004292702655306
% es.Ey (V/m) @ t=0.36
0.11118305217179397
% es.Ez (V/m) @ t=0.36
0.5707197077010697
% es.tEx (V/m) @ t=0.36
-0.5004292702655289
% es.tEy (V/m) @ t=0.36
0
% es.tEz (V/m) @ t=0.36
0.5707197077010773
% V (V) @ t=0.36
0.0074996671091471755
% es.normE (V/m) @ t=0.38
0.7823202429827898
% es.EX (V/m) @ t=0.38
-0.5052121425814045
% es.EY (V/m) @ t=0.38
0.11224568037276761
% es.EZ (V/m) @ t=0.38
0.5761743882084422
% es.tEX (V/m) @ t=0.38
-0.5052121425814045
% es.tEY (V/m) @ t=0.38
0
% es.tEZ (V/m) @ t=0.38
0.5761743882084445
% es.Ex (V/m) @ t=0.38
-0.5052121425814045
% es.Ey (V/m) @ t=0.38
0.11224568037276761
% es.Ez (V/m) @ t=0.38
0.5761743882084422
% es.tEx (V/m) @ t=0.38
-0.5052121425814045
% es.tEy (V/m) @ t=0.38
0
% es.tEz (V/m) @ t=0.38
0.5761743882084445
% V (V) @ t=0.38
0.007571346078162636
% es.normE (V/m) @ t=0.4
0.7897265146460315
% es.EX (V/m) @ t=0.4
-0.5099950148972838
% es.EY (V/m) @ t=0.4
0.11330830857373148
% es.EZ (V/m) @ t=0.4
0.5816290687158223
% es.tEX (V/m) @ t=0.4
-0.509995014897282
% es.tEY (V/m) @ t=0.4
0
% es.tEZ (V/m) @ t=0.4
0.5816290687158299
% es.Ex (V/m) @ t=0.4
-0.5099950148972838
% es.Ey (V/m) @ t=0.4
0.11330830857373148
% es.Ez (V/m) @ t=0.4
0.5816290687158223
% es.tEx (V/m) @ t=0.4
-0.509995014897282
% es.tEy (V/m) @ t=0.4
0
% es.tEz (V/m) @ t=0.4
0.5816290687158299
% V (V) @ t=0.4
0.007643025047178096
% es.normE (V/m) @ t=0.42
0.7971327863092597
% es.EX (V/m) @ t=0.42
-0.5147778872131576
% es.EY (V/m) @ t=0.42
0.11437093677468829
% es.EZ (V/m) @ t=0.42
0.5870837492231908
% es.tEX (V/m) @ t=0.42
-0.5147778872131559
% es.tEY (V/m) @ t=0.42
0
% es.tEZ (V/m) @ t=0.42
0.5870837492231931
% es.Ex (V/m) @ t=0.42
-0.5147778872131576
% es.Ey (V/m) @ t=0.42
0.11437093677468829
% es.Ez (V/m) @ t=0.42
0.5870837492231908
% es.tEx (V/m) @ t=0.42
-0.5147778872131559
% es.tEy (V/m) @ t=0.42
0
% es.tEz (V/m) @ t=0.42
0.5870837492231931
% V (V) @ t=0.42
0.007714704016193556
% es.normE (V/m) @ t=0.44
0.8045390579725068
% es.EX (V/m) @ t=0.44
-0.5195607595290421
% es.EY (V/m) @ t=0.44
0.11543356497565127
% es.EZ (V/m) @ t=0.44
0.592538429730574
% es.tEX (V/m) @ t=0.44
-0.5195607595290421
% es.tEY (V/m) @ t=0.44
0
% es.tEZ (V/m) @ t=0.44
0.5925384297305816
% es.Ex (V/m) @ t=0.44
-0.5195607595290421
% es.Ey (V/m) @ t=0.44
0.11543356497565127
% es.Ez (V/m) @ t=0.44
0.592538429730574
% es.tEx (V/m) @ t=0.44
-0.5195607595290421
% es.tEy (V/m) @ t=0.44
0
% es.tEz (V/m) @ t=0.44
0.5925384297305816
% V (V) @ t=0.44
0.007786382985209015
% es.normE (V/m) @ t=0.46
0.8119453296357427
% es.EX (V/m) @ t=0.46
-0.524343631844918
% es.EY (V/m) @ t=0.46
0.11649619317661064
% es.EZ (V/m) @ t=0.46
0.5979931102379488
% es.tEX (V/m) @ t=0.46
-0.5243436318449162
% es.tEY (V/m) @ t=0.46
0
% es.tEZ (V/m) @ t=0.46
0.5979931102379492
% es.Ex (V/m) @ t=0.46
-0.524343631844918
% es.Ey (V/m) @ t=0.46
0.11649619317661064
% es.Ez (V/m) @ t=0.46
0.5979931102379488
% es.tEx (V/m) @ t=0.46
-0.5243436318449162
% es.tEy (V/m) @ t=0.46
0
% es.tEz (V/m) @ t=0.46
0.5979931102379492
% V (V) @ t=0.46
0.007858061954224473
% es.normE (V/m) @ t=0.48
0.8193516012989763
% es.EX (V/m) @ t=0.48
-0.5291265041607953
% es.EY (V/m) @ t=0.48
0.11755882137756829
% es.EZ (V/m) @ t=0.48
0.6034477907453195
% es.tEX (V/m) @ t=0.48
-0.5291265041607953
% es.tEY (V/m) @ t=0.48
0
% es.tEZ (V/m) @ t=0.48
0.6034477907453271
% es.Ex (V/m) @ t=0.48
-0.5291265041607953
% es.Ey (V/m) @ t=0.48
0.11755882137756829
% es.Ez (V/m) @ t=0.48
0.6034477907453195
% es.tEx (V/m) @ t=0.48
-0.5291265041607953
% es.tEy (V/m) @ t=0.48
0
% es.tEz (V/m) @ t=0.48
0.6034477907453271
% V (V) @ t=0.48
0.007929740923239934
% es.normE (V/m) @ t=0.5
0.826757872962218
% es.EX (V/m) @ t=0.5
-0.5339093764766729
% es.EY (V/m) @ t=0.5
0.11862144957853837
% es.EZ (V/m) @ t=0.5
0.6089024712526974
% es.tEX (V/m) @ t=0.5
-0.5339093764766711
% es.tEY (V/m) @ t=0.5
0
% es.tEZ (V/m) @ t=0.5
0.6089024712527014
% es.Ex (V/m) @ t=0.5
-0.5339093764766729
% es.Ey (V/m) @ t=0.5
0.11862144957853837
% es.Ez (V/m) @ t=0.5
0.6089024712526974
% es.tEx (V/m) @ t=0.5
-0.5339093764766711
% es.tEy (V/m) @ t=0.5
0
% es.tEz (V/m) @ t=0.5
0.6089024712527014
% V (V) @ t=0.5
0.008001419892255394
% es.normE (V/m) @ t=0.52
0.8341641446254525
% es.EX (V/m) @ t=0.52
-0.5386922487925538
% es.EY (V/m) @ t=0.52
0.1196840777794978
% es.EZ (V/m) @ t=0.52
0.614357151760065
% es.tEX (V/m) @ t=0.52
-0.5386922487925503
% es.tEY (V/m) @ t=0.52
0
% es.tEZ (V/m) @ t=0.52
0.614357151760065
% es.Ex (V/m) @ t=0.52
-0.5386922487925538
% es.Ey (V/m) @ t=0.52
0.1196840777794978
% es.Ez (V/m) @ t=0.52
0.614357151760065
% es.tEx (V/m) @ t=0.52
-0.5386922487925503
% es.tEy (V/m) @ t=0.52
0
% es.tEz (V/m) @ t=0.52
0.614357151760065
% V (V) @ t=0.52
0.008073098861270854
% es.normE (V/m) @ t=0.54
0.841570416288687
% es.EX (V/m) @ t=0.54
-0.5434751211084317
% es.EY (V/m) @ t=0.54
0.12074670598045906
% es.EZ (V/m) @ t=0.54
0.6198118322674366
% es.tEX (V/m) @ t=0.54
-0.5434751211084297
% es.tEY (V/m) @ t=0.54
0
% es.tEZ (V/m) @ t=0.54
0.6198118322674535
% es.Ex (V/m) @ t=0.54
-0.5434751211084317
% es.Ey (V/m) @ t=0.54
0.12074670598045906
% es.Ez (V/m) @ t=0.54
0.6198118322674366
% es.tEx (V/m) @ t=0.54
-0.5434751211084297
% es.tEy (V/m) @ t=0.54
0
% es.tEz (V/m) @ t=0.54
0.6198118322674535
% V (V) @ t=0.54
0.008144777830286314
% es.normE (V/m) @ t=0.56
0.8493832398421572
% es.EX (V/m) @ t=0.56
-0.5485205396323598
% es.EY (V/m) @ t=0.56
0.12186766938217158
% es.EZ (V/m) @ t=0.56
0.625565934107331
% es.tEX (V/m) @ t=0.56
-0.5485205396323598
% es.tEY (V/m) @ t=0.56
0
% es.tEZ (V/m) @ t=0.56
0.6255659341073398
% es.Ex (V/m) @ t=0.56
-0.5485205396323598
% es.Ey (V/m) @ t=0.56
0.12186766938217158
% es.Ez (V/m) @ t=0.56
0.625565934107331
% es.tEx (V/m) @ t=0.56
-0.5485205396323598
% es.tEy (V/m) @ t=0.56
0
% es.tEz (V/m) @ t=0.56
0.6255659341073398
% V (V) @ t=0.56
0.008220391149300774
% es.normE (V/m) @ t=0.58
0.8576600369617973
% es.EX (V/m) @ t=0.58
-0.5538655865760915
% es.EY (V/m) @ t=0.58
0.12305520728955044
% es.EZ (V/m) @ t=0.58
0.6316617477600861
% es.tEX (V/m) @ t=0.58
-0.5538655865760898
% es.tEY (V/m) @ t=0.58
0
% es.tEZ (V/m) @ t=0.58
0.6316617477600976
% es.Ex (V/m) @ t=0.58
-0.5538655865760915
% es.Ey (V/m) @ t=0.58
0.12305520728955044
% es.Ez (V/m) @ t=0.58
0.6316617477600861
% es.tEx (V/m) @ t=0.58
-0.5538655865760898
% es.tEy (V/m) @ t=0.58
0
% es.tEz (V/m) @ t=0.58
0.6316617477600976
% V (V) @ t=0.58
0.008300494508685172
% es.normE (V/m) @ t=0.6
0.8659368340814452
% es.EX (V/m) @ t=0.6
-0.5592106335198281
% es.EY (V/m) @ t=0.6
0.12424274519693546
% es.EZ (V/m) @ t=0.6
0.6377575614128483
% es.tEX (V/m) @ t=0.6
-0.5592106335198281
% es.tEY (V/m) @ t=0.6
0
% es.tEZ (V/m) @ t=0.6
0.637757561412859
% es.Ex (V/m) @ t=0.6
-0.5592106335198281
% es.Ey (V/m) @ t=0.6
0.12424274519693546
% es.Ez (V/m) @ t=0.6
0.6377575614128483
% es.tEx (V/m) @ t=0.6
-0.5592106335198281
% es.tEy (V/m) @ t=0.6
0
% es.tEz (V/m) @ t=0.6
0.637757561412859
% V (V) @ t=0.6
0.008380597868069571
% es.normE (V/m) @ t=0.62
0.8742136312010724
% es.EX (V/m) @ t=0.62
-0.5645556804635523
% es.EY (V/m) @ t=0.62
0.1254302831043062
% es.EZ (V/m) @ t=0.62
0.6438533750655955
% es.tEX (V/m) @ t=0.62
-0.5645556804635541
% es.tEY (V/m) @ t=0.62
0
% es.tEZ (V/m) @ t=0.62
0.6438533750656061
% es.Ex (V/m) @ t=0.62
-0.5645556804635523
% es.Ey (V/m) @ t=0.62
0.1254302831043062
% es.Ez (V/m) @ t=0.62
0.6438533750655955
% es.tEx (V/m) @ t=0.62
-0.5645556804635541
% es.tEy (V/m) @ t=0.62
0
% es.tEz (V/m) @ t=0.62
0.6438533750656061
% V (V) @ t=0.62
0.008460701227453968
% es.normE (V/m) @ t=0.64
0.8824904283207133
% es.EX (V/m) @ t=0.64
-0.5699007274072894
% es.EY (V/m) @ t=0.64
0.1266178210116886
% es.EZ (V/m) @ t=0.64
0.6499491887183453
% es.tEX (V/m) @ t=0.64
-0.5699007274072876
% es.tEY (V/m) @ t=0.64
0
% es.tEZ (V/m) @ t=0.64
0.6499491887183533
% es.Ex (V/m) @ t=0.64
-0.5699007274072894
% es.Ey (V/m) @ t=0.64
0.1266178210116886
% es.Ez (V/m) @ t=0.64
0.6499491887183453
% es.tEx (V/m) @ t=0.64
-0.5699007274072876
% es.tEy (V/m) @ t=0.64
0
% es.tEz (V/m) @ t=0.64
0.6499491887183533
% V (V) @ t=0.64
0.008540804586838369
% es.normE (V/m) @ t=0.66
0.8907672254403557
% es.EX (V/m) @ t=0.66
-0.5752457743510155
% es.EY (V/m) @ t=0.66
0.12780535891906558
% es.EZ (V/m) @ t=0.66
0.6560450023711111
% es.tEX (V/m) @ t=0.66
-0.5752457743510135
% es.tEY (V/m) @ t=0.66
0
% es.tEZ (V/m) @ t=0.66
0.6560450023711146
% es.Ex (V/m) @ t=0.66
-0.5752457743510155
% es.Ey (V/m) @ t=0.66
0.12780535891906558
% es.Ez (V/m) @ t=0.66
0.6560450023711111
% es.tEx (V/m) @ t=0.66
-0.5752457743510135
% es.tEy (V/m) @ t=0.66
0
% es.tEz (V/m) @ t=0.66
0.6560450023711146
% V (V) @ t=0.66
0.008620907946222766
% es.normE (V/m) @ t=0.68
0.8990440225599976
% es.EX (V/m) @ t=0.68
-0.5805908212947415
% es.EY (V/m) @ t=0.68
0.12899289682644882
% es.EZ (V/m) @ t=0.68
0.6621408160238724
% es.tEX (V/m) @ t=0.68
-0.5805908212947395
% es.tEY (V/m) @ t=0.68
0
% es.tEZ (V/m) @ t=0.68
0.6621408160238689
% es.Ex (V/m) @ t=0.68
-0.5805908212947415
% es.Ey (V/m) @ t=0.68
0.12899289682644882
% es.Ez (V/m) @ t=0.68
0.6621408160238724
% es.tEx (V/m) @ t=0.68
-0.5805908212947395
% es.tEy (V/m) @ t=0.68
0
% es.tEz (V/m) @ t=0.68
0.6621408160238689
% V (V) @ t=0.68
0.008701011305607166
% es.normE (V/m) @ t=0.7
0.9073208196796265
% es.EX (V/m) @ t=0.7
-0.5859358682384674
% es.EY (V/m) @ t=0.7
0.13018043473382757
% es.EZ (V/m) @ t=0.7
0.6682366296766196
% es.tEX (V/m) @ t=0.7
-0.5859358682384654
% es.tEY (V/m) @ t=0.7
0
% es.tEZ (V/m) @ t=0.7
0.6682366296766311
% es.Ex (V/m) @ t=0.7
-0.5859358682384674
% es.Ey (V/m) @ t=0.7
0.13018043473382757
% es.Ez (V/m) @ t=0.7
0.6682366296766196
% es.tEx (V/m) @ t=0.7
-0.5859358682384654
% es.tEy (V/m) @ t=0.7
0
% es.tEz (V/m) @ t=0.7
0.6682366296766311
% V (V) @ t=0.7
0.008781114664991565
% es.normE (V/m) @ t=0.72
0.9155976167992729
% es.EX (V/m) @ t=0.72
-0.5912809151822005
% es.EY (V/m) @ t=0.72
0.13136797264121086
% es.EZ (V/m) @ t=0.72
0.6743324433293809
% es.tEX (V/m) @ t=0.72
-0.591280915182202
% es.tEY (V/m) @ t=0.72
0
% es.tEZ (V/m) @ t=0.72
0.6743324433293845
% es.Ex (V/m) @ t=0.72
-0.5912809151822005
% es.Ey (V/m) @ t=0.72
0.13136797264121086
% es.Ez (V/m) @ t=0.72
0.6743324433293809
% es.tEx (V/m) @ t=0.72
-0.591280915182202
% es.tEy (V/m) @ t=0.72
0
% es.tEz (V/m) @ t=0.72
0.6743324433293845
% V (V) @ t=0.72
0.008861218024375962
% es.normE (V/m) @ t=0.74
0.9238744139189012
% es.EX (V/m) @ t=0.74
-0.5966259621259338
% es.EY (V/m) @ t=0.74
0.1325555105485896
% es.EZ (V/m) @ t=0.74
0.680428256982121
% es.tEX (V/m) @ t=0.74
-0.5966259621259353
% es.tEY (V/m) @ t=0.74
0
% es.tEZ (V/m) @ t=0.74
0.6804282569821316
% es.Ex (V/m) @ t=0.74
-0.5966259621259338
% es.Ey (V/m) @ t=0.74
0.1325555105485896
% es.Ez (V/m) @ t=0.74
0.680428256982121
% es.tEx (V/m) @ t=0.74
-0.5966259621259353
% es.tEy (V/m) @ t=0.74
0
% es.tEz (V/m) @ t=0.74
0.6804282569821316
% V (V) @ t=0.74
0.00894132138376036
% es.normE (V/m) @ t=0.76
0.9321512110385465
% es.EX (V/m) @ t=0.76
-0.6019710090696633
% es.EY (V/m) @ t=0.76
0.13374304845597462
% es.EZ (V/m) @ t=0.76
0.6865240706348823
% es.tEX (V/m) @ t=0.76
-0.6019710090696613
% es.tEY (V/m) @ t=0.76
0
% es.tEZ (V/m) @ t=0.76
0.6865240706348938
% es.Ex (V/m) @ t=0.76
-0.6019710090696633
% es.Ey (V/m) @ t=0.76
0.13374304845597462
% es.Ez (V/m) @ t=0.76
0.6865240706348823
% es.tEx (V/m) @ t=0.76
-0.6019710090696613
% es.tEy (V/m) @ t=0.76
0
% es.tEz (V/m) @ t=0.76
0.6865240706348938
% V (V) @ t=0.76
0.009021424743144761
% es.normE (V/m) @ t=0.78
0.9404280081581795
% es.EX (V/m) @ t=0.78
-0.6073160560133932
% es.EY (V/m) @ t=0.78
0.13493058636335342
% es.EZ (V/m) @ t=0.78
0.6926198842876294
% es.tEX (V/m) @ t=0.78
-0.6073160560133912
% es.tEY (V/m) @ t=0.78
0
% es.tEZ (V/m) @ t=0.78
0.6926198842876401
% es.Ex (V/m) @ t=0.78
-0.6073160560133932
% es.Ey (V/m) @ t=0.78
0.13493058636335342
% es.Ez (V/m) @ t=0.78
0.6926198842876294
% es.tEx (V/m) @ t=0.78
-0.6073160560133912
% es.tEy (V/m) @ t=0.78
0
% es.tEz (V/m) @ t=0.78
0.6926198842876401
% V (V) @ t=0.78
0.009101528102529158
% es.normE (V/m) @ t=0.8
0.9487048052778211
% es.EX (V/m) @ t=0.8
-0.6126611029571227
% es.EY (V/m) @ t=0.8
0.136118124270734
% es.EZ (V/m) @ t=0.8
0.6987156979403908
% es.tEX (V/m) @ t=0.8
-0.6126611029571207
% es.tEY (V/m) @ t=0.8
0
% es.tEZ (V/m) @ t=0.8
0.6987156979403943
% es.Ex (V/m) @ t=0.8
-0.6126611029571227
% es.Ey (V/m) @ t=0.8
0.136118124270734
% es.Ez (V/m) @ t=0.8
0.6987156979403908
% es.tEx (V/m) @ t=0.8
-0.6126611029571207
% es.tEy (V/m) @ t=0.8
0
% es.tEz (V/m) @ t=0.8
0.6987156979403943
% V (V) @ t=0.8
0.009181631461913557
% es.normE (V/m) @ t=0.82
0.9569816023974566
% es.EX (V/m) @ t=0.82
-0.6180061499008487
% es.EY (V/m) @ t=0.82
0.13730566217812257
% es.EZ (V/m) @ t=0.82
0.7048115115931415
% es.tEX (V/m) @ t=0.82
-0.6180061499008467
% es.tEY (V/m) @ t=0.82
0
% es.tEZ (V/m) @ t=0.82
0.7048115115931495
% es.Ex (V/m) @ t=0.82
-0.6180061499008487
% es.Ey (V/m) @ t=0.82
0.13730566217812257
% es.Ez (V/m) @ t=0.82
0.7048115115931415
% es.tEx (V/m) @ t=0.82
-0.6180061499008467
% es.tEy (V/m) @ t=0.82
0
% es.tEz (V/m) @ t=0.82
0.7048115115931495
% V (V) @ t=0.82
0.009261734821297956
% es.normE (V/m) @ t=0.84
0.9659570787805547
% es.EX (V/m) @ t=0.84
-0.6238023948093008
% es.EY (V/m) @ t=0.84
0.1385934459561281
% es.EZ (V/m) @ t=0.84
0.7114218981560532
% es.tEX (V/m) @ t=0.84
-0.623802394809295
% es.tEY (V/m) @ t=0.84
0
% es.tEZ (V/m) @ t=0.84
0.7114218981560541
% es.Ex (V/m) @ t=0.84
-0.6238023948093008
% es.Ey (V/m) @ t=0.84
0.1385934459561281
% es.Ez (V/m) @ t=0.84
0.7114218981560532
% es.tEx (V/m) @ t=0.84
-0.623802394809295
% es.tEy (V/m) @ t=0.84
0
% es.tEz (V/m) @ t=0.84
0.7114218981560541
% V (V) @ t=0.84
0.00934859998490691
% es.normE (V/m) @ t=0.86
0.9752241124687127
% es.EX (V/m) @ t=0.86
-0.6297869236264371
% es.EY (V/m) @ t=0.86
0.1399230621133536
% es.EZ (V/m) @ t=0.86
0.7182470148516389
% es.tEX (V/m) @ t=0.86
-0.6297869236264351
% es.tEY (V/m) @ t=0.86
0
% es.tEZ (V/m) @ t=0.86
0.7182470148516469
% es.Ex (V/m) @ t=0.86
-0.6297869236264371
% es.Ey (V/m) @ t=0.86
0.1399230621133536
% es.Ez (V/m) @ t=0.86
0.7182470148516389
% es.tEx (V/m) @ t=0.86
-0.6297869236264351
% es.tEy (V/m) @ t=0.86
0
% es.tEz (V/m) @ t=0.86
0.7182470148516469
% V (V) @ t=0.86
0.009438286834402738
% es.normE (V/m) @ t=0.88
0.9844911461568783
% es.EX (V/m) @ t=0.88
-0.6357714524435809
% es.EY (V/m) @ t=0.88
0.14125267827056665
% es.EZ (V/m) @ t=0.88
0.7250721315472308
% es.tEX (V/m) @ t=0.88
-0.6357714524435751
% es.tEY (V/m) @ t=0.88
0
% es.tEZ (V/m) @ t=0.88
0.7250721315472317
% es.Ex (V/m) @ t=0.88
-0.6357714524435809
% es.Ey (V/m) @ t=0.88
0.14125267827056665
% es.Ez (V/m) @ t=0.88
0.7250721315472308
% es.tEx (V/m) @ t=0.88
-0.6357714524435751
% es.tEy (V/m) @ t=0.88
0
% es.tEz (V/m) @ t=0.88
0.7250721315472317
% V (V) @ t=0.88
0.009527973683898565
% es.normE (V/m) @ t=0.9
0.9937581798450342
% es.EX (V/m) @ t=0.9
-0.6417559812607139
% es.EY (V/m) @ t=0.9
0.14258229442780623
% es.EZ (V/m) @ t=0.9
0.731897248242813
% es.tEX (V/m) @ t=0.9
-0.6417559812607152
% es.tEY (V/m) @ t=0.9
0
% es.tEZ (V/m) @ t=0.9
0.7318972482428174
% es.Ex (V/m) @ t=0.9
-0.6417559812607139
% es.Ey (V/m) @ t=0.9
0.14258229442780623
% es.Ez (V/m) @ t=0.9
0.731897248242813
% es.tEx (V/m) @ t=0.9
-0.6417559812607152
% es.tEy (V/m) @ t=0.9
0
% es.tEz (V/m) @ t=0.9
0.7318972482428174
% V (V) @ t=0.9
0.009617660533394391
% es.normE (V/m) @ t=0.92
1.0030252135331967
% es.EX (V/m) @ t=0.92
-0.6477405100778642
% es.EY (V/m) @ t=0.92
0.1439119105850174
% es.EZ (V/m) @ t=0.92
0.7387223649383952
% es.tEX (V/m) @ t=0.92
-0.6477405100778584
% es.tEY (V/m) @ t=0.92
0
% es.tEZ (V/m) @ t=0.92
0.7387223649384103
% es.Ex (V/m) @ t=0.92
-0.6477405100778642
% es.Ey (V/m) @ t=0.92
0.1439119105850174
% es.Ez (V/m) @ t=0.92
0.7387223649383952
% es.tEx (V/m) @ t=0.92
-0.6477405100778584
% es.tEy (V/m) @ t=0.92
0
% es.tEz (V/m) @ t=0.92
0.7387223649384103
% V (V) @ t=0.92
0.00970734738289022
% es.normE (V/m) @ t=0.94
1.012292247221379
% es.EX (V/m) @ t=0.94
-0.6537250388950009
% es.EY (V/m) @ t=0.94
0.1452415267422713
% es.EZ (V/m) @ t=0.94
0.7455474816340049
% es.tEX (V/m) @ t=0.94
-0.6537250388949987
% es.tEY (V/m) @ t=0.94
0
% es.tEZ (V/m) @ t=0.94
0.7455474816340093
% es.Ex (V/m) @ t=0.94
-0.6537250388950009
% es.Ey (V/m) @ t=0.94
0.1452415267422713
% es.Ez (V/m) @ t=0.94
0.7455474816340049
% es.tEx (V/m) @ t=0.94
-0.6537250388949987
% es.tEy (V/m) @ t=0.94
0
% es.tEz (V/m) @ t=0.94
0.7455474816340093
% V (V) @ t=0.94
0.009797034232386046
% es.normE (V/m) @ t=0.96
1.0215592809095315
% es.EX (V/m) @ t=0.96
-0.659709567712137
% es.EY (V/m) @ t=0.96
0.14657114289947615
% es.EZ (V/m) @ t=0.96
0.7523725983295879
% es.tEX (V/m) @ t=0.96
-0.6597095677121347
% es.tEY (V/m) @ t=0.96
0
% es.tEZ (V/m) @ t=0.96
0.7523725983295817
% es.Ex (V/m) @ t=0.96
-0.659709567712137
% es.Ey (V/m) @ t=0.96
0.14657114289947615
% es.Ez (V/m) @ t=0.96
0.7523725983295879
% es.tEx (V/m) @ t=0.96
-0.6597095677121347
% es.tEy (V/m) @ t=0.96
0
% es.tEz (V/m) @ t=0.96
0.7523725983295817
% V (V) @ t=0.96
0.009886721081881872
% es.normE (V/m) @ t=0.98
1.0308263145976841
% es.EX (V/m) @ t=0.98
-0.6656940965292768
% es.EY (V/m) @ t=0.98
0.1479007590566963
% es.EZ (V/m) @ t=0.98
0.759197715025163
% es.tEX (V/m) @ t=0.98
-0.6656940965292781
% es.tEY (V/m) @ t=0.98
0
% es.tEZ (V/m) @ t=0.98
0.7591977150251816
% es.Ex (V/m) @ t=0.98
-0.6656940965292768
% es.Ey (V/m) @ t=0.98
0.1479007590566963
% es.Ez (V/m) @ t=0.98
0.759197715025163
% es.tEx (V/m) @ t=0.98
-0.6656940965292781
% es.tEy (V/m) @ t=0.98
0
% es.tEz (V/m) @ t=0.98
0.7591977150251816
% V (V) @ t=0.98
0.009976407931377699
% es.normE (V/m) @ t=1
1.0400933482858508
% es.EX (V/m) @ t=1
-0.6716786253464209
% es.EY (V/m) @ t=1
0.1492303752139218
% es.EZ (V/m) @ t=1
0.7660228317207549
% es.tEX (V/m) @ t=1
-0.6716786253464151
% es.tEY (V/m) @ t=1
0
% es.tEZ (V/m) @ t=1
0.7660228317207523
% es.Ex (V/m) @ t=1
-0.6716786253464209
% es.Ey (V/m) @ t=1
0.1492303752139218
% es.Ez (V/m) @ t=1
0.7660228317207549
% es.tEx (V/m) @ t=1
-0.6716786253464151
% es.tEy (V/m) @ t=1
0
% es.tEz (V/m) @ t=1
0.7660228317207523
% V (V) @ t=1
0.010066094780873525
% es.normE (V/m) @ t=1.02
1.0493603819740178
% es.EX (V/m) @ t=1.02
-0.6776631541635605
% es.EY (V/m) @ t=1.02
0.15055999137114362
% es.EZ (V/m) @ t=1.02
0.7728479484163477
% es.tEX (V/m) @ t=1.02
-0.677663154163558
% es.tEY (V/m) @ t=1.02
0
% es.tEZ (V/m) @ t=1.02
0.7728479484163593
% es.Ex (V/m) @ t=1.02
-0.6776631541635605
% es.Ey (V/m) @ t=1.02
0.15055999137114362
% es.Ez (V/m) @ t=1.02
0.7728479484163477
% es.tEx (V/m) @ t=1.02
-0.677663154163558
% es.tEy (V/m) @ t=1.02
0
% es.tEz (V/m) @ t=1.02
0.7728479484163593
% V (V) @ t=1.02
0.010155781630369353
% es.normE (V/m) @ t=1.04
1.0586274156621844
% es.EX (V/m) @ t=1.04
-0.6836476829807006
% es.EY (V/m) @ t=1.04
0.151889607528353
% es.EZ (V/m) @ t=1.04