% Model:              1 neuron.mph
% Version:            COMSOL 6.0.0.405
% Date:               Mar 9 2023, 13:40
% Dimension:          0
% Nodes:              14017
% Expressions:        14017
% Description:        Electric field norm, Electric field, X component, Electric field, Y component, Electric field, Z component, Tangential electric field, X component, Tangential electric field, Y component, Tangential electric field, Z component, Electric field, x component, Electric field, y component, Electric field, z component, Tangential electric field, x component, Tangential electric field, y component, Tangential electric field, z component, Electric potential
% Length unit:        mm
% x
1
% y
12.2
% z
1
% es.normE (V/m) @ t=0
0.7900005138739222
% es.EX (V/m) @ t=0
0.5364204954787386
% es.EY (V/m) @ t=0
0.15235053199205062
% es.EZ (V/m) @ t=0
0.5450273046024829
% es.tEX (V/m) @ t=0
0.5364204954787368
% es.tEY (V/m) @ t=0
0
% es.tEZ (V/m) @ t=0
0.5450273046024741
% es.Ex (V/m) @ t=0
0.5364204954787386
% es.Ey (V/m) @ t=0
0.15235053199205062
% es.Ez (V/m) @ t=0
0.5450273046024829
% es.tEx (V/m) @ t=0
0.5364204954787368
% es.tEy (V/m) @ t=0
0
% es.tEz (V/m) @ t=0
0.5450273046024741
% V (V) @ t=0
0.0074080441482316794
% es.normE (V/m) @ t=0.02
0.6823382553536135
% es.EX (V/m) @ t=0.02
0.46331643910760434
% es.EY (V/m) @ t=0.02
0.13158801097702177
% es.EZ (V/m) @ t=0.02
0.4707503015655101
% es.tEX (V/m) @ t=0.02
0.4633164391076008
% es.tEY (V/m) @ t=0.02
0
% es.tEZ (V/m) @ t=0.02
0.4707503015655057
% es.Ex (V/m) @ t=0.02
0.46331643910760434
% es.Ey (V/m) @ t=0.02
0.13158801097702177
% es.Ez (V/m) @ t=0.02
0.4707503015655101
% es.tEx (V/m) @ t=0.02
0.4633164391076008
% es.tEy (V/m) @ t=0.02
0
% es.tEz (V/m) @ t=0.02
0.4707503015655057
% V (V) @ t=0.02
0.0063984666138476014
% es.normE (V/m) @ t=0.04
0.6886137423082528
% es.EX (V/m) @ t=0.04
0.46757757309158343
% es.EY (V/m) @ t=0.04
0.13279823536275615
% es.EZ (V/m) @ t=0.04
0.4750798072723672
% es.tEX (V/m) @ t=0.04
0.46757757309157455
% es.tEY (V/m) @ t=0.04
0
% es.tEZ (V/m) @ t=0.04
0.4750798072723619
% es.Ex (V/m) @ t=0.04
0.46757757309158343
% es.Ey (V/m) @ t=0.04
0.13279823536275615
% es.Ez (V/m) @ t=0.04
0.4750798072723672
% es.tEx (V/m) @ t=0.04
0.46757757309157455
% es.tEy (V/m) @ t=0.04
0
% es.tEz (V/m) @ t=0.04
0.4750798072723619
% V (V) @ t=0.04
0.006457313122060029
% es.normE (V/m) @ t=0.06
0.6949482833311118
% es.EX (V/m) @ t=0.06
0.47187880043111896
% es.EY (V/m) @ t=0.06
0.13401986005851274
% es.EZ (V/m) @ t=0.06
0.4794500547922853
% es.tEX (V/m) @ t=0.06
0.4718788004311065
% es.tEY (V/m) @ t=0.06
0
% es.tEZ (V/m) @ t=0.06
0.4794500547922773
% es.Ex (V/m) @ t=0.06
0.47187880043111896
% es.Ey (V/m) @ t=0.06
0.13401986005851274
% es.Ez (V/m) @ t=0.06
0.4794500547922853
% es.tEx (V/m) @ t=0.06
0.4718788004311065
% es.tEy (V/m) @ t=0.06
0
% es.tEz (V/m) @ t=0.06
0.4794500547922773
% V (V) @ t=0.06
0.0065167124957609445
% es.normE (V/m) @ t=0.08
0.7013735856535519
% es.EX (V/m) @ t=0.08
0.47624166204014884
% es.EY (V/m) @ t=0.08
0.13525897369670759
% es.EZ (V/m) @ t=0.08
0.48388291924618976
% es.tEX (V/m) @ t=0.08
0.4762416620401524
% es.tEY (V/m) @ t=0.08
0
% es.tEZ (V/m) @ t=0.08
0.4838829192461809
% es.Ex (V/m) @ t=0.08
0.47624166204014884
% es.Ey (V/m) @ t=0.08
0.13525897369670759
% es.Ez (V/m) @ t=0.08
0.48388291924618976
% es.tEx (V/m) @ t=0.08
0.4762416620401524
% es.tEy (V/m) @ t=0.08
0
% es.tEz (V/m) @ t=0.08
0.4838829192461809
% V (V) @ t=0.08
0.006576964047264536
% es.normE (V/m) @ t=0.1
0.7078742371952476
% es.EX (V/m) @ t=0.1
0.4806556918685949
% es.EY (V/m) @ t=0.1
0.13651260649843255
% es.EZ (V/m) @ t=0.1
0.4883677677186924
% es.tEX (V/m) @ t=0.1
0.48065569186859136
% es.tEY (V/m) @ t=0.1
0
% es.tEZ (V/m) @ t=0.1
0.48836776771868173
% es.Ex (V/m) @ t=0.1
0.4806556918685949
% es.Ey (V/m) @ t=0.1
0.13651260649843255
% es.Ez (V/m) @ t=0.1
0.4883677677186924
% es.tEx (V/m) @ t=0.1
0.48065569186859136
% es.tEy (V/m) @ t=0.1
0
% es.tEz (V/m) @ t=0.1
0.48836776771868173
% V (V) @ t=0.1
0.006637923069158919
% es.normE (V/m) @ t=0.12
0.7143748887369312
% es.EX (V/m) @ t=0.12
0.48506972169701434
% es.EY (V/m) @ t=0.12
0.13776623930019838
% es.EZ (V/m) @ t=0.12
0.492852616191195
% es.tEX (V/m) @ t=0.12
0.485069721697009
% es.tEY (V/m) @ t=0.12
0
% es.tEZ (V/m) @ t=0.12
0.49285261619118614
% es.Ex (V/m) @ t=0.12
0.48506972169701434
% es.Ey (V/m) @ t=0.12
0.13776623930019838
% es.Ez (V/m) @ t=0.12
0.492852616191195
% es.tEx (V/m) @ t=0.12
0.485069721697009
% es.tEy (V/m) @ t=0.12
0
% es.tEz (V/m) @ t=0.12
0.49285261619118614
% V (V) @ t=0.12
0.0066988820910533
% es.normE (V/m) @ t=0.14
0.7209116379167282
% es.EX (V/m) @ t=0.14
0.48950825071539583
% es.EY (V/m) @ t=0.14
0.13902686007156273
% es.EZ (V/m) @ t=0.14
0.49736236867950634
% es.tEX (V/m) @ t=0.14
0.4895082507153887
% es.tEY (V/m) @ t=0.14
0
% es.tEZ (V/m) @ t=0.14
0.49736236867949657
% es.Ex (V/m) @ t=0.14
0.48950825071539583
% es.Ey (V/m) @ t=0.14
0.13902686007156273
% es.Ez (V/m) @ t=0.14
0.49736236867950634
% es.tEx (V/m) @ t=0.14
0.4895082507153887
% es.tEy (V/m) @ t=0.14
0
% es.tEz (V/m) @ t=0.14
0.49736236867949657
% V (V) @ t=0.14
0.006760177588576355
% es.normE (V/m) @ t=0.16
0.7277631930657524
% es.EX (V/m) @ t=0.16
0.4941604361291905
% es.EY (V/m) @ t=0.16
0.14034842262918712
% es.EZ (V/m) @ t=0.16
0.5020893080321613
% es.tEX (V/m) @ t=0.16
0.49416043612918514
% es.tEY (V/m) @ t=0.16
0
% es.tEZ (V/m) @ t=0.16
0.5020893080321507
% es.Ex (V/m) @ t=0.16
0.4941604361291905
% es.Ey (V/m) @ t=0.16
0.14034842262918712
% es.Ez (V/m) @ t=0.16
0.5020893080321613
% es.tEx (V/m) @ t=0.16
0.49416043612918514
% es.tEy (V/m) @ t=0.16
0
% es.tEz (V/m) @ t=0.16
0.5020893080321507
% V (V) @ t=0.16
0.006824407475770204
% es.normE (V/m) @ t=0.18
0.7346147482148939
% es.EX (V/m) @ t=0.18
0.4988126215429798
% es.EY (V/m) @ t=0.18
0.1416699851867964
% es.EZ (V/m) @ t=0.18
0.5068162473848066
% es.tEX (V/m) @ t=0.18
0.49881262154296735
% es.tEY (V/m) @ t=0.18
0
% es.tEZ (V/m) @ t=0.18
0.5068162473848012
% es.Ex (V/m) @ t=0.18
0.4988126215429798
% es.Ey (V/m) @ t=0.18
0.1416699851867964
% es.Ez (V/m) @ t=0.18
0.5068162473848066
% es.tEx (V/m) @ t=0.18
0.49881262154296735
% es.tEy (V/m) @ t=0.18
0
% es.tEz (V/m) @ t=0.18
0.5068162473848012
% V (V) @ t=0.18
0.0068886373629640524
% es.normE (V/m) @ t=0.2
0.7414663033641502
% es.EX (V/m) @ t=0.2
0.5034648069567318
% es.EY (V/m) @ t=0.2
0.14299154774443146
% es.EZ (V/m) @ t=0.2
0.5115431867374589
% es.tEX (V/m) @ t=0.2
0.5034648069567211
% es.tEY (V/m) @ t=0.2
0
% es.tEZ (V/m) @ t=0.2
0.5115431867374483
% es.Ex (V/m) @ t=0.2
0.5034648069567318
% es.Ey (V/m) @ t=0.2
0.14299154774443146
% es.Ez (V/m) @ t=0.2
0.5115431867374589
% es.tEx (V/m) @ t=0.2
0.5034648069567211
% es.tEy (V/m) @ t=0.2
0
% es.tEz (V/m) @ t=0.2
0.5115431867374483
% V (V) @ t=0.2
0.006952867250157903
% es.normE (V/m) @ t=0.22
0.7483178585135379
% es.EX (V/m) @ t=0.22
0.508116992370498
% es.EY (V/m) @ t=0.22
0.14431311030206828
% es.EZ (V/m) @ t=0.22
0.516270126090113
% es.tEX (V/m) @ t=0.22
0.508116992370482
% es.tEY (V/m) @ t=0.22
0
% es.tEZ (V/m) @ t=0.22
0.5162701260901095
% es.Ex (V/m) @ t=0.22
0.508116992370498
% es.Ey (V/m) @ t=0.22
0.14431311030206828
% es.Ez (V/m) @ t=0.22
0.516270126090113
% es.tEx (V/m) @ t=0.22
0.508116992370482
% es.tEy (V/m) @ t=0.22
0
% es.tEz (V/m) @ t=0.22
0.5162701260901095
% V (V) @ t=0.22
0.007017097137351752
% es.normE (V/m) @ t=0.24
0.7551694136630305
% es.EX (V/m) @ t=0.24
0.5127691777842731
% es.EY (V/m) @ t=0.24
0.14563467285968557
% es.EZ (V/m) @ t=0.24
0.5209970654427503
% es.tEX (V/m) @ t=0.24
0.5127691777842784
% es.tEY (V/m) @ t=0.24
0
% es.tEZ (V/m) @ t=0.24
0.5209970654427458
% es.Ex (V/m) @ t=0.24
0.5127691777842731
% es.Ey (V/m) @ t=0.24
0.14563467285968557
% es.Ez (V/m) @ t=0.24
0.5209970654427503
% es.tEx (V/m) @ t=0.24
0.5127691777842784
% es.tEy (V/m) @ t=0.24
0
% es.tEz (V/m) @ t=0.24
0.5209970654427458
% V (V) @ t=0.24
0.007081327024545601
% es.normE (V/m) @ t=0.26
0.7620209688126655
% es.EX (V/m) @ t=0.26
0.5174213631980624
% es.EY (V/m) @ t=0.26
0.14695623541730995
% es.EZ (V/m) @ t=0.26
0.5257240047954088
% es.tEX (V/m) @ t=0.26
0.5174213631980535
% es.tEY (V/m) @ t=0.26
0
% es.tEZ (V/m) @ t=0.26
0.5257240047953893
% es.Ex (V/m) @ t=0.26
0.5174213631980624
% es.Ey (V/m) @ t=0.26
0.14695623541730995
% es.Ez (V/m) @ t=0.26
0.5257240047954088
% es.tEx (V/m) @ t=0.26
0.5174213631980535
% es.tEy (V/m) @ t=0.26
0
% es.tEz (V/m) @ t=0.26
0.5257240047953893
% V (V) @ t=0.26
0.00714555691173945
% es.normE (V/m) @ t=0.28
0.7690433485028292
% es.EX (V/m) @ t=0.28
0.5221895116334263
% es.EY (V/m) @ t=0.28
0.1483108079530897
% es.EZ (V/m) @ t=0.28
0.5305687972547117
% es.tEX (V/m) @ t=0.28
0.522189511633421
% es.tEY (V/m) @ t=0.28
0
% es.tEZ (V/m) @ t=0.28
0.5305687972546984
% es.Ex (V/m) @ t=0.28
0.5221895116334263
% es.Ey (V/m) @ t=0.28
0.1483108079530897
% es.Ez (V/m) @ t=0.28
0.5305687972547117
% es.tEx (V/m) @ t=0.28
0.522189511633421
% es.tEy (V/m) @ t=0.28
0
% es.tEz (V/m) @ t=0.28
0.5305687972546984
% V (V) @ t=0.28
0.007211383595278703
% es.normE (V/m) @ t=0.3
0.7766863828068187
% es.EX (V/m) @ t=0.3
0.5273789870288983
% es.EY (V/m) @ t=0.3
0.14978531521938088
% es.EZ (V/m) @ t=0.3
0.5358417838960037
% es.tEX (V/m) @ t=0.3
0.5273789870289036
% es.tEY (V/m) @ t=0.3
0
% es.tEZ (V/m) @ t=0.3
0.5358417838960001
% es.Ex (V/m) @ t=0.3
0.5273789870288983
% es.Ey (V/m) @ t=0.3
0.14978531521938088
% es.Ez (V/m) @ t=0.3
0.5358417838960037
% es.tEx (V/m) @ t=0.3
0.5273789870289036
% es.tEy (V/m) @ t=0.3
0
% es.tEz (V/m) @ t=0.3
0.5358417838960001
% V (V) @ t=0.3
0.007283011898514788
% es.normE (V/m) @ t=0.32
0.784329417111383
% es.EX (V/m) @ t=0.32
0.5325684624243738
% es.EY (V/m) @ t=0.32
0.15125982248568448
% es.EZ (V/m) @ t=0.32
0.5411147705373018
% es.tEX (V/m) @ t=0.32
0.532568462424365
% es.tEY (V/m) @ t=0.32
0
% es.tEZ (V/m) @ t=0.32
0.5411147705372947
% es.Ex (V/m) @ t=0.32
0.5325684624243738
% es.Ey (V/m) @ t=0.32
0.15125982248568448
% es.Ez (V/m) @ t=0.32
0.5411147705373018
% es.tEx (V/m) @ t=0.32
0.532568462424365
% es.tEy (V/m) @ t=0.32
0
% es.tEz (V/m) @ t=0.32
0.5411147705372947
% V (V) @ t=0.32
0.007354640201750874
% es.normE (V/m) @ t=0.34
0.7919724514164967
% es.EX (V/m) @ t=0.34
0.5377579378198583
% es.EY (V/m) @ t=0.34
0.1527343297519952
% es.EZ (V/m) @ t=0.34
0.5463877571785982
% es.tEX (V/m) @ t=0.34
0.5377579378198476
% es.tEY (V/m) @ t=0.34
0
% es.tEZ (V/m) @ t=0.34
0.5463877571785893
% es.Ex (V/m) @ t=0.34
0.5377579378198583
% es.Ey (V/m) @ t=0.34
0.1527343297519952
% es.Ez (V/m) @ t=0.34
0.5463877571785982
% es.tEx (V/m) @ t=0.34
0.5377579378198476
% es.tEy (V/m) @ t=0.34
0
% es.tEz (V/m) @ t=0.34
0.5463877571785893
% V (V) @ t=0.34
0.00742626850498696
% es.normE (V/m) @ t=0.36
0.7996154857221327
% es.EX (V/m) @ t=0.36
0.5429474132153285
% es.EY (V/m) @ t=0.36
0.15420883701830945
% es.EZ (V/m) @ t=0.36
0.5516607438198875
% es.tEX (V/m) @ t=0.36
0.5429474132153302
% es.tEY (V/m) @ t=0.36
0
% es.tEZ (V/m) @ t=0.36
0.5516607438198768
% es.Ex (V/m) @ t=0.36
0.5429474132153285
% es.Ey (V/m) @ t=0.36
0.15420883701830945
% es.Ez (V/m) @ t=0.36
0.5516607438198875
% es.tEx (V/m) @ t=0.36
0.5429474132153302
% es.tEy (V/m) @ t=0.36
0
% es.tEz (V/m) @ t=0.36
0.5516607438198768
% V (V) @ t=0.36
0.007497896808223047
% es.normE (V/m) @ t=0.38
0.8072585200283211
% es.EX (V/m) @ t=0.38
0.5481368886108555
% es.EY (V/m) @ t=0.38
0.15568334428458286
% es.EZ (V/m) @ t=0.38
0.5569337304611883
% es.tEX (V/m) @ t=0.38
0.5481368886108413
% es.tEY (V/m) @ t=0.38
0
% es.tEZ (V/m) @ t=0.38
0.5569337304611786
% es.Ex (V/m) @ t=0.38
0.5481368886108555
% es.Ey (V/m) @ t=0.38
0.15568334428458286
% es.Ez (V/m) @ t=0.38
0.5569337304611883
% es.tEx (V/m) @ t=0.38
0.5481368886108413
% es.tEy (V/m) @ t=0.38
0
% es.tEz (V/m) @ t=0.38
0.5569337304611786
% V (V) @ t=0.38
0.007569525111459134
% es.normE (V/m) @ t=0.4
0.8149015543349469
% es.EX (V/m) @ t=0.4
0.5533263640062813
% es.EY (V/m) @ t=0.4
0.15715785155092554
% es.EZ (V/m) @ t=0.4
0.5622067171024643
% es.tEX (V/m) @ t=0.4
0.5533263640062813
% es.tEY (V/m) @ t=0.4
0
% es.tEZ (V/m) @ t=0.4
0.5622067171024554
% es.Ex (V/m) @ t=0.4
0.5533263640062813
% es.Ey (V/m) @ t=0.4
0.15715785155092554
% es.Ez (V/m) @ t=0.4
0.5622067171024643
% es.tEx (V/m) @ t=0.4
0.5533263640062813
% es.tEy (V/m) @ t=0.4
0
% es.tEz (V/m) @ t=0.4
0.5622067171024554
% V (V) @ t=0.4
0.00764115341469522
% es.normE (V/m) @ t=0.42
0.8225445886421265
% es.EX (V/m) @ t=0.42
0.5585158394018102
% es.EY (V/m) @ t=0.42
0.15863235881717053
% es.EZ (V/m) @ t=0.42
0.5674797037437767
% es.tEX (V/m) @ t=0.42
0.5585158394018066
% es.tEY (V/m) @ t=0.42
0
% es.tEZ (V/m) @ t=0.42
0.5674797037437642
% es.Ex (V/m) @ t=0.42
0.5585158394018102
% es.Ey (V/m) @ t=0.42
0.15863235881717053
% es.Ez (V/m) @ t=0.42
0.5674797037437767
% es.tEx (V/m) @ t=0.42
0.5585158394018066
% es.tEy (V/m) @ t=0.42
0
% es.tEz (V/m) @ t=0.42
0.5674797037437642
% V (V) @ t=0.42
0.007712781717931306
% es.normE (V/m) @ t=0.44
0.8301876229497367
% es.EX (V/m) @ t=0.44
0.563705314797275
% es.EY (V/m) @ t=0.44
0.16010686608350255
% es.EZ (V/m) @ t=0.44
0.5727526903850517
% es.tEX (V/m) @ t=0.44
0.5637053147972608
% es.tEY (V/m) @ t=0.44
0
% es.tEZ (V/m) @ t=0.44
0.5727526903850517
% es.Ex (V/m) @ t=0.44
0.563705314797275
% es.Ey (V/m) @ t=0.44
0.16010686608350255
% es.Ez (V/m) @ t=0.44
0.5727526903850517
% es.tEx (V/m) @ t=0.44
0.5637053147972608
% es.tEy (V/m) @ t=0.44
0
% es.tEz (V/m) @ t=0.44
0.5727526903850517
% V (V) @ t=0.44
0.007784410021167393
% es.normE (V/m) @ t=0.46
0.8378306572578287
% es.EX (V/m) @ t=0.46
0.568894790192747
% es.EY (V/m) @ t=0.46
0.16158137334980793
% es.EZ (V/m) @ t=0.46
0.5780256770263623
% es.tEX (V/m) @ t=0.46
0.5688947901927293
% es.tEY (V/m) @ t=0.46
0
% es.tEZ (V/m) @ t=0.46
0.5780256770263534
% es.Ex (V/m) @ t=0.46
0.568894790192747
% es.Ey (V/m) @ t=0.46
0.16158137334980793
% es.Ez (V/m) @ t=0.46
0.5780256770263623
% es.tEx (V/m) @ t=0.46
0.5688947901927293
% es.tEy (V/m) @ t=0.46
0
% es.tEz (V/m) @ t=0.46
0.5780256770263534
% V (V) @ t=0.46
0.007856038324403479
% es.normE (V/m) @ t=0.48
0.8454736915663753
% es.EX (V/m) @ t=0.48
0.5740842655882261
% es.EY (V/m) @ t=0.48
0.1630558806161435
% es.EZ (V/m) @ t=0.48
0.5832986636676525
% es.tEX (V/m) @ t=0.48
0.5740842655882261
% es.tEY (V/m) @ t=0.48
0
% es.tEZ (V/m) @ t=0.48
0.5832986636676445
% es.Ex (V/m) @ t=0.48
0.5740842655882261
% es.Ey (V/m) @ t=0.48
0.1630558806161435
% es.Ez (V/m) @ t=0.48
0.5832986636676525
% es.tEx (V/m) @ t=0.48
0.5740842655882261
% es.tEy (V/m) @ t=0.48
0
% es.tEz (V/m) @ t=0.48
0.5832986636676445
% V (V) @ t=0.48
0.007927666627639565
% es.normE (V/m) @ t=0.5
0.8531167258753324
% es.EX (V/m) @ t=0.5
0.5792737409837088
% es.EY (V/m) @ t=0.5
0.16453038788242402
% es.EZ (V/m) @ t=0.5
0.5885716503089347
% es.tEX (V/m) @ t=0.5
0.5792737409836946
% es.tEY (V/m) @ t=0.5
0
% es.tEZ (V/m) @ t=0.5
0.5885716503089284
% es.Ex (V/m) @ t=0.5
0.5792737409837088
% es.Ey (V/m) @ t=0.5
0.16453038788242402
% es.Ez (V/m) @ t=0.5
0.5885716503089347
% es.tEx (V/m) @ t=0.5
0.5792737409836946
% es.tEy (V/m) @ t=0.5
0
% es.tEz (V/m) @ t=0.5
0.5885716503089284
% V (V) @ t=0.5
0.007999294930875651
% es.normE (V/m) @ t=0.52
0.8607597601847508
% es.EX (V/m) @ t=0.52
0.5844632163792056
% es.EY (V/m) @ t=0.52
0.16600489514872407
% es.EZ (V/m) @ t=0.52
0.5938446369502346
% es.tEX (V/m) @ t=0.52
0.5844632163792056
% es.tEY (V/m) @ t=0.52
0
% es.tEZ (V/m) @ t=0.52
0.593844636950223
% es.Ex (V/m) @ t=0.52
0.5844632163792056
% es.Ey (V/m) @ t=0.52
0.16600489514872407
% es.Ez (V/m) @ t=0.52
0.5938446369502346
% es.tEx (V/m) @ t=0.52
0.5844632163792056
% es.tEy (V/m) @ t=0.52
0
% es.tEz (V/m) @ t=0.52
0.593844636950223
% V (V) @ t=0.52
0.008070923234111738
% es.normE (V/m) @ t=0.54
0.8684027944945724
% es.EX (V/m) @ t=0.54
0.5896526917746776
% es.EY (V/m) @ t=0.54
0.16747940241504722
% es.EZ (V/m) @ t=0.54
0.5991176235915354
% es.tEX (V/m) @ t=0.54
0.5896526917746598
% es.tEY (V/m) @ t=0.54
0
% es.tEZ (V/m) @ t=0.54
0.5991176235915283
% es.Ex (V/m) @ t=0.54
0.5896526917746776
% es.Ey (V/m) @ t=0.54
0.16747940241504722
% es.Ez (V/m) @ t=0.54
0.5991176235915354
% es.tEx (V/m) @ t=0.54
0.5896526917746598
% es.tEy (V/m) @ t=0.54
0
% es.tEz (V/m) @ t=0.54
0.5991176235915283
% V (V) @ t=0.54
0.008142551537347824
% es.normE (V/m) @ t=0.56
0.8764431983620682
% es.EX (V/m) @ t=0.56
0.5951119846695896
% es.EY (V/m) @ t=0.56
0.16903054539892004
% es.EZ (V/m) @ t=0.56
0.604664758476841
% es.tEX (V/m) @ t=0.56
0.5951119846695718
% es.tEY (V/m) @ t=0.56
0
% es.tEZ (V/m) @ t=0.56
0.6046647584768294
% es.Ex (V/m) @ t=0.56
0.5951119846695896
% es.Ey (V/m) @ t=0.56
0.16903054539892004
% es.Ez (V/m) @ t=0.56
0.604664758476841
% es.tEx (V/m) @ t=0.56
0.5951119846695718
% es.tEy (V/m) @ t=0.56
0
% es.tEz (V/m) @ t=0.56
0.6046647584768294
% V (V) @ t=0.56
0.00821790581152668
% es.normE (V/m) @ t=0.58
0.8849857728715179
% es.EX (V/m) @ t=0.58
0.6009122559417079
% es.EY (V/m) @ t=0.58
0.1706785357802918
% es.EZ (V/m) @ t=0.58
0.610558344661829
% es.tEX (V/m) @ t=0.58
0.6009122559416937
% es.tEY (V/m) @ t=0.58
0
% es.tEZ (V/m) @ t=0.58
0.6105583446618219
% es.Ex (V/m) @ t=0.58
0.6009122559417079
% es.Ey (V/m) @ t=0.58
0.1706785357802918
% es.Ez (V/m) @ t=0.58
0.610558344661829
% es.tEx (V/m) @ t=0.58
0.6009122559416937
% es.tEy (V/m) @ t=0.58
0
% es.tEz (V/m) @ t=0.58
0.6105583446618219
% V (V) @ t=0.58
0.008297968733321658
% es.normE (V/m) @ t=0.6
0.8935283473813527
% es.EX (V/m) @ t=0.6
0.6067125272138085
% es.EY (V/m) @ t=0.6
0.17232652616168131
% es.EZ (V/m) @ t=0.6
0.6164519308468321
% es.tEX (V/m) @ t=0.6
0.6067125272138014
% es.tEY (V/m) @ t=0.6
0
% es.tEZ (V/m) @ t=0.6
0.6164519308468144
% es.Ex (V/m) @ t=0.6
0.6067125272138085
% es.Ey (V/m) @ t=0.6
0.17232652616168131
% es.Ez (V/m) @ t=0.6
0.6164519308468321
% es.tEx (V/m) @ t=0.6
0.6067125272138014
% es.tEy (V/m) @ t=0.6
0
% es.tEz (V/m) @ t=0.6
0.6164519308468144
% V (V) @ t=0.6
0.00837803165511664
% es.normE (V/m) @ t=0.62
0.9020709218915257
% es.EX (V/m) @ t=0.62
0.6125127984859127
% es.EY (V/m) @ t=0.62
0.17397451654303175
% es.EZ (V/m) @ t=0.62
0.6223455170318077
% es.tEX (V/m) @ t=0.62
0.6125127984859091
% es.tEY (V/m) @ t=0.62
0
% es.tEZ (V/m) @ t=0.62
0.6223455170318033
% es.Ex (V/m) @ t=0.62
0.6125127984859127
% es.Ey (V/m) @ t=0.62
0.17397451654303175
% es.Ez (V/m) @ t=0.62
0.6223455170318077
% es.tEx (V/m) @ t=0.62
0.6125127984859091
% es.tEy (V/m) @ t=0.62
0
% es.tEz (V/m) @ t=0.62
0.6223455170318033
% V (V) @ t=0.62
0.008458094576911619
% es.normE (V/m) @ t=0.64
0.9106134964020631
% es.EX (V/m) @ t=0.64
0.6183130697579955
% es.EY (V/m) @ t=0.64
0.17562250692443726
% es.EZ (V/m) @ t=0.64
0.628239103216794
% es.tEX (V/m) @ t=0.64
0.6183130697579884
% es.tEY (V/m) @ t=0.64
0
% es.tEZ (V/m) @ t=0.64
0.6282391032167816
% es.Ex (V/m) @ t=0.64
0.6183130697579955
% es.Ey (V/m) @ t=0.64
0.17562250692443726
% es.Ez (V/m) @ t=0.64
0.628239103216794
% es.tEx (V/m) @ t=0.64
0.6183130697579884
% es.tEy (V/m) @ t=0.64
0
% es.tEz (V/m) @ t=0.64
0.6282391032167816
% V (V) @ t=0.64
0.008538157498706598
% es.normE (V/m) @ t=0.66
0.9191560709129574
% es.EX (V/m) @ t=0.66
0.6241133410300961
% es.EY (V/m) @ t=0.66
0.17727049730581435
% es.EZ (V/m) @ t=0.66
0.6341326894017891
% es.tEX (V/m) @ t=0.66
0.6241133410300961
% es.tEY (V/m) @ t=0.66
0
% es.tEZ (V/m) @ t=0.66
0.6341326894017811
% es.Ex (V/m) @ t=0.66
0.6241133410300961
% es.Ey (V/m) @ t=0.66
0.17727049730581435
% es.Ez (V/m) @ t=0.66
0.6341326894017891
% es.tEx (V/m) @ t=0.66
0.6241133410300961
% es.tEy (V/m) @ t=0.66
0
% es.tEz (V/m) @ t=0.66
0.6341326894017811
% V (V) @ t=0.66
0.008618220420501577
% es.normE (V/m) @ t=0.68
0.9276986454241987
% es.EX (V/m) @ t=0.68
0.6299136123022002
% es.EY (V/m) @ t=0.68
0.1789184876872163
% es.EZ (V/m) @ t=0.68
0.6400262755867816
% es.tEX (V/m) @ t=0.68
0.6299136123021896
% es.tEY (V/m) @ t=0.68
0
% es.tEZ (V/m) @ t=0.68
0.6400262755867772
% es.Ex (V/m) @ t=0.68
0.6299136123022002
% es.Ey (V/m) @ t=0.68
0.1789184876872163
% es.Ez (V/m) @ t=0.68
0.6400262755867816
% es.tEx (V/m) @ t=0.68
0.6299136123021896
% es.tEy (V/m) @ t=0.68
0
% es.tEz (V/m) @ t=0.68
0.6400262755867772
% V (V) @ t=0.68
0.008698283342296557
% es.normE (V/m) @ t=0.7
0.9362412199357635
% es.EX (V/m) @ t=0.7
0.6357138835743257
% es.EY (V/m) @ t=0.7
0.1805664780685845
% es.EZ (V/m) @ t=0.7
0.6459198617717581
% es.tEX (V/m) @ t=0.7
0.6357138835743257
% es.tEY (V/m) @ t=0.7
0
% es.tEZ (V/m) @ t=0.7
0.6459198617717448
% es.Ex (V/m) @ t=0.7
0.6357138835743257
% es.Ey (V/m) @ t=0.7
0.1805664780685845
% es.Ez (V/m) @ t=0.7
0.6459198617717581
% es.tEx (V/m) @ t=0.7
0.6357138835743257
% es.tEy (V/m) @ t=0.7
0
% es.tEz (V/m) @ t=0.7
0.6459198617717448
% V (V) @ t=0.7
0.008778346264091536
% es.normE (V/m) @ t=0.72
0.9447837944476407
% es.EX (V/m) @ t=0.72
0.6415141548464227
% es.EY (V/m) @ t=0.72
0.18221446844994915
% es.EZ (V/m) @ t=0.72
0.6518134479567523
% es.tEX (V/m) @ t=0.72
0.641514154846405
% es.tEY (V/m) @ t=0.72
0
% es.tEZ (V/m) @ t=0.72
0.6518134479567337
% es.Ex (V/m) @ t=0.72
0.6415141548464227
% es.Ey (V/m) @ t=0.72
0.18221446844994915
% es.Ez (V/m) @ t=0.72
0.6518134479567523
% es.tEx (V/m) @ t=0.72
0.641514154846405
% es.tEy (V/m) @ t=0.72
0
% es.tEz (V/m) @ t=0.72
0.6518134479567337
% V (V) @ t=0.72
0.008858409185886517
% es.normE (V/m) @ t=0.74
0.9533263689598209
% es.EX (V/m) @ t=0.74
0.6473144261185126
% es.EY (V/m) @ t=0.74
0.18386245883133512
% es.EZ (V/m) @ t=0.74
0.6577070341417341
% es.tEX (V/m) @ t=0.74
0.6473144261185126
% es.tEY (V/m) @ t=0.74
0
% es.tEZ (V/m) @ t=0.74
0.6577070341417297
% es.Ex (V/m) @ t=0.74
0.6473144261185126
% es.Ey (V/m) @ t=0.74
0.18386245883133512
% es.Ez (V/m) @ t=0.74
0.6577070341417341
% es.tEx (V/m) @ t=0.74
0.6473144261185126
% es.tEy (V/m) @ t=0.74
0
% es.tEz (V/m) @ t=0.74
0.6577070341417297
% V (V) @ t=0.74
0.008938472107681497
% es.normE (V/m) @ t=0.76
0.961868943472304
% es.EX (V/m) @ t=0.76
0.6531146973905955
% es.EY (V/m) @ t=0.76
0.18551044921274773
% es.EZ (V/m) @ t=0.76
0.6636006203267151
% es.tEX (V/m) @ t=0.76
0.6531146973905777
% es.tEY (V/m) @ t=0.76
0
% es.tEZ (V/m) @ t=0.76
0.6636006203267044
% es.Ex (V/m) @ t=0.76
0.6531146973905955
% es.Ey (V/m) @ t=0.76
0.18551044921274773
% es.Ez (V/m) @ t=0.76
0.6636006203267151
% es.tEx (V/m) @ t=0.76
0.6531146973905777
% es.tEy (V/m) @ t=0.76
0
% es.tEz (V/m) @ t=0.76
0.6636006203267044
% V (V) @ t=0.76
0.009018535029476474
% es.normE (V/m) @ t=0.78
0.9704115179850923
% es.EX (V/m) @ t=0.78
0.6589149686626854
% es.EY (V/m) @ t=0.78
0.18715843959410883
% es.EZ (V/m) @ t=0.78
0.6694942065117191
% es.tEX (V/m) @ t=0.78
0.6589149686626854
% es.tEY (V/m) @ t=0.78
0
% es.tEZ (V/m) @ t=0.78
0.6694942065117147
% es.Ex (V/m) @ t=0.78
0.6589149686626854
% es.Ey (V/m) @ t=0.78
0.18715843959410883
% es.Ez (V/m) @ t=0.78
0.6694942065117191
% es.tEx (V/m) @ t=0.78
0.6589149686626854
% es.tEy (V/m) @ t=0.78
0
% es.tEz (V/m) @ t=0.78
0.6694942065117147
% V (V) @ t=0.78
0.009098597951271454
% es.normE (V/m) @ t=0.8
0.9789540924981848
% es.EX (V/m) @ t=0.8
0.6647152399348251
% es.EY (V/m) @ t=0.8
0.18880642997545927
% es.EZ (V/m) @ t=0.8
0.6753877926967071
% es.tEX (V/m) @ t=0.8
0.6647152399348215
% es.tEY (V/m) @ t=0.8
0
% es.tEZ (V/m) @ t=0.8
0.6753877926966965
% es.Ex (V/m) @ t=0.8
0.6647152399348251
% es.Ey (V/m) @ t=0.8
0.18880642997545927
% es.Ez (V/m) @ t=0.8
0.6753877926967071
% es.tEx (V/m) @ t=0.8
0.6647152399348215
% es.tEy (V/m) @ t=0.8
0
% es.tEz (V/m) @ t=0.8
0.6753877926966965
% V (V) @ t=0.8
0.009178660873066433
% es.normE (V/m) @ t=0.82
0.9874966670115193
% es.EX (V/m) @ t=0.82
0.6705155112068972
% es.EY (V/m) @ t=0.82
0.19045442035689497
% es.EZ (V/m) @ t=0.82
0.6812813788816703
% es.tEX (V/m) @ t=0.82
0.670515511206915
% es.tEY (V/m) @ t=0.82
0
% es.tEZ (V/m) @ t=0.82
0.6812813788816641
% es.Ex (V/m) @ t=0.82
0.6705155112068972
% es.Ey (V/m) @ t=0.82
0.19045442035689497
% es.Ez (V/m) @ t=0.82
0.6812813788816703
% es.tEx (V/m) @ t=0.82
0.670515511206915
% es.tEy (V/m) @ t=0.82
0
% es.tEz (V/m) @ t=0.82
0.6812813788816641
% V (V) @ t=0.82
0.009258723794861413
% es.normE (V/m) @ t=0.84
0.9967265633368935
% es.EX (V/m) @ t=0.84
0.6767831571319398
% es.EY (V/m) @ t=0.84
0.19223340970482994
% es.EZ (V/m) @ t=0.84
0.6876491548554675
% es.tEX (V/m) @ t=0.84
0.6767831571319078
% es.tEY (V/m) @ t=0.84
0
% es.tEZ (V/m) @ t=0.84
0.687649154855464
% es.Ex (V/m) @ t=0.84
0.6767831571319398
% es.Ey (V/m) @ t=0.84
0.19223340970482994
% es.Ez (V/m) @ t=0.84
0.6876491548554675
% es.tEx (V/m) @ t=0.84
0.6767831571319078
% es.tEy (V/m) @ t=0.84
0
% es.tEz (V/m) @ t=0.84
0.687649154855464
% V (V) @ t=0.84
0.009345349824180428
% es.normE (V/m) @ t=0.86
1.0062985784579201
% es.EX (V/m) @ t=0.86
0.6832834417546927
% es.EY (V/m) @ t=0.86
0.19407760461915124
% es.EZ (V/m) @ t=0.86
0.6942529618040787
% es.tEX (V/m) @ t=0.86
0.6832834417546962
% es.tEY (V/m) @ t=0.86
0
% es.tEZ (V/m) @ t=0.86
0.694252961804068
% es.Ex (V/m) @ t=0.86
0.6832834417546927
% es.Ey (V/m) @ t=0.86
0.19407760461915124
% es.Ez (V/m) @ t=0.86
0.6942529618040787
% es.tEx (V/m) @ t=0.86
0.6832834417546962
% es.tEy (V/m) @ t=0.86
0
% es.tEz (V/m) @ t=0.86
0.694252961804068
% V (V) @ t=0.86
0.009435242681895117
% es.normE (V/m) @ t=0.88
1.0158705935844705
% es.EX (V/m) @ t=0.88
0.689783726377506
% es.EY (V/m) @ t=0.88
0.19592179953351518
% es.EZ (V/m) @ t=0.88
0.7008567687527183
% es.tEX (V/m) @ t=0.88
0.6897837263774846
% es.tEY (V/m) @ t=0.88
0
% es.tEZ (V/m) @ t=0.88
0.7008567687527147
% es.Ex (V/m) @ t=0.88
0.689783726377506
% es.Ey (V/m) @ t=0.88
0.19592179953351518
% es.Ez (V/m) @ t=0.88
0.7008567687527183
% es.tEx (V/m) @ t=0.88
0.6897837263774846
% es.tEy (V/m) @ t=0.88
0
% es.tEz (V/m) @ t=0.88
0.7008567687527147
% V (V) @ t=0.88
0.009525135539609805
% es.normE (V/m) @ t=0.9
1.0254426087162432
% es.EX (V/m) @ t=0.9
0.6962840110002588
% es.EY (V/m) @ t=0.9
0.19776599444790754
% es.EZ (V/m) @ t=0.9
0.7074605757013135
% es.tEX (V/m) @ t=0.9
0.6962840110002304
% es.tEY (V/m) @ t=0.9
0
% es.tEZ (V/m) @ t=0.9
0.7074605757013046
% es.Ex (V/m) @ t=0.9
0.6962840110002588
% es.Ey (V/m) @ t=0.9
0.19776599444790754
% es.Ez (V/m) @ t=0.9
0.7074605757013135
% es.tEx (V/m) @ t=0.9
0.6962840110002304
% es.tEy (V/m) @ t=0.9
0
% es.tEz (V/m) @ t=0.9
0.7074605757013046
% V (V) @ t=0.9
0.009615028397324497
% es.normE (V/m) @ t=0.92
1.035014623853225
% es.EX (V/m) @ t=0.92
0.7027842956230792
% es.EY (V/m) @ t=0.92
0.1996101893622324
% es.EZ (V/m) @ t=0.92
0.714064382649954
% es.tEX (V/m) @ t=0.92
0.7027842956230756
% es.tEY (V/m) @ t=0.92
0
% es.tEZ (V/m) @ t=0.92
0.7140643826499371
% es.Ex (V/m) @ t=0.92
0.7027842956230792
% es.Ey (V/m) @ t=0.92
0.1996101893622324
% es.Ez (V/m) @ t=0.92
0.714064382649954
% es.tEx (V/m) @ t=0.92
0.7027842956230756
% es.tEy (V/m) @ t=0.92
0
% es.tEz (V/m) @ t=0.92
0.7140643826499371
% V (V) @ t=0.92
0.009704921255039188
% es.normE (V/m) @ t=0.94
1.0445866389951837
% es.EX (V/m) @ t=0.94
0.7092845802458605
% es.EY (V/m) @ t=0.94
0.20145438427663898
% es.EZ (V/m) @ t=0.94
0.7206681895985678
% es.tEX (V/m) @ t=0.94
0.7092845802458498
% es.tEY (V/m) @ t=0.94
0
% es.tEZ (V/m) @ t=0.94
0.7206681895985483
% es.Ex (V/m) @ t=0.94
0.7092845802458605
% es.Ey (V/m) @ t=0.94
0.20145438427663898
% es.Ez (V/m) @ t=0.94
0.7206681895985678
% es.tEx (V/m) @ t=0.94
0.7092845802458498
% es.tEy (V/m) @ t=0.94
0
% es.tEz (V/m) @ t=0.94
0.7206681895985483
% V (V) @ t=0.94
0.009794814112753875
% es.normE (V/m) @ t=0.96
1.0541586541419925
% es.EX (V/m) @ t=0.96
0.715784864868624
% es.EY (V/m) @ t=0.96
0.20329857919095673
% es.EZ (V/m) @ t=0.96
0.7272719965472048
% es.tEX (V/m) @ t=0.96
0.7157848648686382
% es.tEY (V/m) @ t=0.96
0
% es.tEZ (V/m) @ t=0.96
0.7272719965471879
% es.Ex (V/m) @ t=0.96
0.715784864868624
% es.Ey (V/m) @ t=0.96
0.20329857919095673
% es.Ez (V/m) @ t=0.96
0.7272719965472048
% es.tEx (V/m) @ t=0.96
0.7157848648686382
% es.tEy (V/m) @ t=0.96
0
% es.tEz (V/m) @ t=0.96
0.7272719965471879
% V (V) @ t=0.96
0.009884706970468567
% es.normE (V/m) @ t=0.98
1.0637306692935506
% es.EX (V/m) @ t=0.98
0.7222851494914053
% es.EY (V/m) @ t=0.98
0.20514277410535264
% es.EZ (V/m) @ t=0.98
0.7338758034958222
% es.tEX (V/m) @ t=0.98
0.722285149491384
% es.tEY (V/m) @ t=0.98
0
% es.tEZ (V/m) @ t=0.98
0.7338758034958062
% es.Ex (V/m) @ t=0.98
0.7222851494914053
% es.Ey (V/m) @ t=0.98
0.20514277410535264
% es.Ez (V/m) @ t=0.98
0.7338758034958222
% es.tEx (V/m) @ t=0.98
0.722285149491384
% es.tEy (V/m) @ t=0.98
0
% es.tEz (V/m) @ t=0.98
0.7338758034958062
% V (V) @ t=0.98
0.009974599828183255
% es.normE (V/m) @ t=1
1.073302684449701
% es.EX (V/m) @ t=1
0.7287854341141653
% es.EY (V/m) @ t=1
0.20698696901971303
% es.EZ (V/m) @ t=1
0.7404796104444422
% es.tEX (V/m) @ t=1
0.7287854341141724
% es.tEY (V/m) @ t=1
0
% es.tEZ (V/m) @ t=1
0.7404796104444316
% es.Ex (V/m) @ t=1
0.7287854341141653
% es.Ey (V/m) @ t=1
0.20698696901971303
% es.Ez (V/m) @ t=1
0.7404796104444422
% es.tEx (V/m) @ t=1
0.7287854341141724
% es.tEy (V/m) @ t=1
0
% es.tEz (V/m) @ t=1
0.7404796104444316
% V (V) @ t=1
0.010064492685897944
% es.normE (V/m) @ t=1.02
1.082874699610357
% es.EX (V/m) @ t=1.02
0.7352857187369537
% es.EY (V/m) @ t=1.02
0.20883116393405388
% es.EZ (V/m) @ t=1.02
0.7470834173930649
% es.tEX (V/m) @ t=1.02
0.7352857187369608
% es.tEY (V/m) @ t=1.02
0
% es.tEZ (V/m) @ t=1.02
0.747083417393057
% es.Ex (V/m) @ t=1.02
0.7352857187369537
% es.Ey (V/m) @ t=1.02
0.20883116393405388
% es.Ez (V/m) @ t=1.02
0.7470834173930649
% es.tEx (V/m) @ t=1.02
0.7352857187369608
% es.tEy (V/m) @ t=1.02
0
% es.tEz (V/m) @ t=1.02
0.747083417393057
% V (V) @ t=1.02
0.010154385543612636
% es.normE (V/m) @ t=1.04
1.0924467147754124
% es.EX (V/m) @ t=1.04
0.7417860033597705
% es.EY (V/m) @ t=1.04
0.21067535884843558
% es.EZ (V/m) @ t=1.04
0.753687224341693
% es.tEX (V/m) @ t=1.04
0.741786003359735
% es.tEY (V/m) @ t=1.04
0
% es.tEZ (V/m) @ t=1.04
0.7536872243416823
% es.Ex (V/m) @ t=1.04
0.7417860033597705
% es.Ey (V/m) @ t=1.04