% Model:              1 neuron.mph
% Version:            COMSOL 6.0.0.405
% Date:               Mar 9 2023, 13:49
% Dimension:          0
% Nodes:              14017
% Expressions:        14017
% Description:        Electric field norm, Electric field, X component, Electric field, Y component, Electric field, Z component, Tangential electric field, X component, Tangential electric field, Y component, Tangential electric field, Z component, Electric field, x component, Electric field, y component, Electric field, z component, Tangential electric field, x component, Tangential electric field, y component, Tangential electric field, z component, Electric potential
% Length unit:        mm
% x
1
% y
12.2
% z
1.33
% es.normE (V/m) @ t=0
1.4669536549554123
% es.EX (V/m) @ t=0
1.355657712323553
% es.EY (V/m) @ t=0
0.0853606047053656
% es.EZ (V/m) @ t=0
0.5480403004036059
% es.tEX (V/m) @ t=0
1.355657712323552
% es.tEY (V/m) @ t=0
0
% es.tEZ (V/m) @ t=0
0.5480403004036041
% es.Ex (V/m) @ t=0
1.355657712323553
% es.Ey (V/m) @ t=0
0.0853606047053656
% es.Ez (V/m) @ t=0
0.5480403004036059
% es.tEx (V/m) @ t=0
1.355657712323552
% es.tEy (V/m) @ t=0
0
% es.tEz (V/m) @ t=0
0.5480403004036041
% V (V) @ t=0
0.007317400986282116
% es.normE (V/m) @ t=0.02
1.267035908156116
% es.EX (V/m) @ t=0.02
1.1709074753869748
% es.EY (V/m) @ t=0.02
0.07372758475733643
% es.EZ (V/m) @ t=0.02
0.473352881482789
% es.tEX (V/m) @ t=0.02
1.1709074753869775
% es.tEY (V/m) @ t=0.02
0
% es.tEZ (V/m) @ t=0.02
0.4733528814827883
% es.Ex (V/m) @ t=0.02
1.1709074753869748
% es.Ey (V/m) @ t=0.02
0.07372758475733643
% es.Ez (V/m) @ t=0.02
0.473352881482789
% es.tEx (V/m) @ t=0.02
1.1709074753869775
% es.tEy (V/m) @ t=0.02
0
% es.tEz (V/m) @ t=0.02
0.4733528814827883
% V (V) @ t=0.02
0.006320178989657888
% es.normE (V/m) @ t=0.04
1.2786901040096703
% es.EX (V/m) @ t=0.04
1.1816774819242095
% es.EY (V/m) @ t=0.04
0.07440573024761593
% es.EZ (V/m) @ t=0.04
0.4777067810026212
% es.tEX (V/m) @ t=0.04
1.1816774819242069
% es.tEY (V/m) @ t=0.04
0
% es.tEZ (V/m) @ t=0.04
0.477706781002619
% es.Ex (V/m) @ t=0.04
1.1816774819242095
% es.Ey (V/m) @ t=0.04
0.07440573024761593
% es.Ez (V/m) @ t=0.04
0.4777067810026212
% es.tEx (V/m) @ t=0.04
1.1816774819242069
% es.tEy (V/m) @ t=0.04
0
% es.tEz (V/m) @ t=0.04
0.477706781002619
% V (V) @ t=0.04
0.0063783119024198864
% es.normE (V/m) @ t=0.06
1.2904486039910354
% es.EX (V/m) @ t=0.06
1.1925438791971308
% es.EY (V/m) @ t=0.06
0.07508994666829522
% es.EZ (V/m) @ t=0.06
0.48209964789629334
% es.tEX (V/m) @ t=0.06
1.1925438791971308
% es.tEY (V/m) @ t=0.06
0
% es.tEZ (V/m) @ t=0.06
0.48209964789629156
% es.Ex (V/m) @ t=0.06
1.1925438791971308
% es.Ey (V/m) @ t=0.06
0.07508994666829522
% es.Ez (V/m) @ t=0.06
0.48209964789629334
% es.tEx (V/m) @ t=0.06
1.1925438791971308
% es.tEy (V/m) @ t=0.06
0
% es.tEz (V/m) @ t=0.06
0.48209964789629156
% V (V) @ t=0.06
0.006436965302238277
% es.normE (V/m) @ t=0.08
1.302388437365817
% es.EX (V/m) @ t=0.08
1.2035778523336527
% es.EY (V/m) @ t=0.08
0.07578471479533638
% es.EZ (V/m) @ t=0.08
0.48656025925049873
% es.tEX (V/m) @ t=0.08
1.203577852333657
% es.tEY (V/m) @ t=0.08
0
% es.tEZ (V/m) @ t=0.08
0.4865602592504983
% es.Ex (V/m) @ t=0.08
1.2035778523336527
% es.Ey (V/m) @ t=0.08
0.07578471479533638
% es.Ez (V/m) @ t=0.08
0.48656025925049873
% es.tEx (V/m) @ t=0.08
1.203577852333657
% es.tEy (V/m) @ t=0.08
0
% es.tEz (V/m) @ t=0.08
0.4865602592504983
% V (V) @ t=0.08
0.006496523223067746
% es.normE (V/m) @ t=0.1
1.3144504833450075
% es.EX (V/m) @ t=0.1
1.2147247659625
% es.EY (V/m) @ t=0.1
0.0764865944173484
% es.EZ (V/m) @ t=0.1
0.49106652809115947
% es.tEX (V/m) @ t=0.1
1.2147247659624991
% es.tEY (V/m) @ t=0.1
0
% es.tEZ (V/m) @ t=0.1
0.49106652809115614
% es.Ex (V/m) @ t=0.1
1.2147247659625
% es.Ey (V/m) @ t=0.1
0.0764865944173484
% es.Ez (V/m) @ t=0.1
0.49106652809115947
% es.tEx (V/m) @ t=0.1
1.2147247659624991
% es.tEy (V/m) @ t=0.1
0
% es.tEz (V/m) @ t=0.1
0.49106652809115614
% V (V) @ t=0.1
0.006556690760617093
% es.normE (V/m) @ t=0.12
1.3265125293241908
% es.EX (V/m) @ t=0.12
1.2258716795913394
% es.EY (V/m) @ t=0.12
0.07718847403935691
% es.EZ (V/m) @ t=0.12
0.4955727969318213
% es.tEX (V/m) @ t=0.12
1.2258716795913411
% es.tEY (V/m) @ t=0.12
0
% es.tEZ (V/m) @ t=0.12
0.4955727969318273
% es.Ex (V/m) @ t=0.12
1.2258716795913394
% es.Ey (V/m) @ t=0.12
0.07718847403935691
% es.Ez (V/m) @ t=0.12
0.4955727969318213
% es.tEx (V/m) @ t=0.12
1.2258716795913411
% es.tEy (V/m) @ t=0.12
0
% es.tEz (V/m) @ t=0.12
0.4955727969318273
% V (V) @ t=0.12
0.006616858298166443
% es.normE (V/m) @ t=0.14
1.3387060965411672
% es.EX (V/m) @ t=0.14
1.2371401361836587
% es.EY (V/m) @ t=0.14
0.0778980102752661
% es.EZ (V/m) @ t=0.14
0.500128201552928
% es.tEX (V/m) @ t=0.14
1.2371401361836583
% es.tEY (V/m) @ t=0.14
0
% es.tEZ (V/m) @ t=0.14
0.5001282015529322
% es.Ex (V/m) @ t=0.14
1.2371401361836587
% es.Ey (V/m) @ t=0.14
0.0778980102752661
% es.Ez (V/m) @ t=0.14
0.500128201552928
% es.tEx (V/m) @ t=0.14
1.2371401361836583
% es.tEy (V/m) @ t=0.14
0
% es.tEz (V/m) @ t=0.14
0.5001282015529322
% V (V) @ t=0.14
0.006677682318334068
% es.normE (V/m) @ t=0.16
1.3514106289676988
% es.EX (V/m) @ t=0.16
1.2488807919952603
% es.EY (V/m) @ t=0.16
0.07863729275892328
% es.EZ (V/m) @ t=0.16
0.5048745006240294
% es.tEX (V/m) @ t=0.16
1.248880791995262
% es.tEY (V/m) @ t=0.16
0
% es.tEZ (V/m) @ t=0.16
0.5048745006240303
% es.Ex (V/m) @ t=0.16
1.2488807919952603
% es.Ey (V/m) @ t=0.16
0.07863729275892328
% es.Ez (V/m) @ t=0.16
0.5048745006240294
% es.tEx (V/m) @ t=0.16
1.248880791995262
% es.tEy (V/m) @ t=0.16
0
% es.tEz (V/m) @ t=0.16
0.5048745006240303
% V (V) @ t=0.16
0.006741056799432795
% es.normE (V/m) @ t=0.18
1.3641151613942133
% es.EX (V/m) @ t=0.18
1.260621447806848
% es.EY (V/m) @ t=0.18
0.07937657524256808
% es.EZ (V/m) @ t=0.18
0.5096207996951136
% es.tEX (V/m) @ t=0.18
1.2606214478068472
% es.tEY (V/m) @ t=0.18
0
% es.tEZ (V/m) @ t=0.18
0.509620799695115
% es.Ex (V/m) @ t=0.18
1.260621447806848
% es.Ey (V/m) @ t=0.18
0.07937657524256808
% es.Ez (V/m) @ t=0.18
0.5096207996951136
% es.tEx (V/m) @ t=0.18
1.2606214478068472
% es.tEy (V/m) @ t=0.18
0
% es.tEz (V/m) @ t=0.18
0.509620799695115
% V (V) @ t=0.18
0.006804431280531522
% es.normE (V/m) @ t=0.2
1.3768196938207498
% es.EX (V/m) @ t=0.2
1.2723621036184514
% es.EY (V/m) @ t=0.2
0.08011585772623331
% es.EZ (V/m) @ t=0.2
0.514367098766213
% es.tEX (V/m) @ t=0.2
1.2723621036184483
% es.tEY (V/m) @ t=0.2
0
% es.tEZ (V/m) @ t=0.2
0.5143670987662095
% es.Ex (V/m) @ t=0.2
1.2723621036184514
% es.Ey (V/m) @ t=0.2
0.08011585772623331
% es.Ez (V/m) @ t=0.2
0.514367098766213
% es.tEx (V/m) @ t=0.2
1.2723621036184483
% es.tEy (V/m) @ t=0.2
0
% es.tEz (V/m) @ t=0.2
0.5143670987662095
% V (V) @ t=0.2
0.0068678057616302505
% es.normE (V/m) @ t=0.22
1.389524226247271
% es.EX (V/m) @ t=0.22
1.2841027594300414
% es.EY (V/m) @ t=0.22
0.08085514020988166
% es.EZ (V/m) @ t=0.22
0.519113397837299
% es.tEX (V/m) @ t=0.22
1.2841027594300414
% es.tEY (V/m) @ t=0.22
0
% es.tEZ (V/m) @ t=0.22
0.5191133978372977
% es.Ex (V/m) @ t=0.22
1.2841027594300414
% es.Ey (V/m) @ t=0.22
0.08085514020988166
% es.Ez (V/m) @ t=0.22
0.519113397837299
% es.tEx (V/m) @ t=0.22
1.2841027594300414
% es.tEy (V/m) @ t=0.22
0
% es.tEz (V/m) @ t=0.22
0.5191133978372977
% V (V) @ t=0.22
0.006931180242728974
% es.normE (V/m) @ t=0.24
1.402228758673806
% es.EX (V/m) @ t=0.24
1.2958434152416398
% es.EY (V/m) @ t=0.24
0.08159442269353795
% es.EZ (V/m) @ t=0.24
0.5238596969083984
% es.tEX (V/m) @ t=0.24
1.295843415241639
% es.tEY (V/m) @ t=0.24
0
% es.tEZ (V/m) @ t=0.24
0.5238596969083957
% es.Ex (V/m) @ t=0.24
1.2958434152416398
% es.Ey (V/m) @ t=0.24
0.08159442269353795
% es.Ez (V/m) @ t=0.24
0.5238596969083984
% es.tEx (V/m) @ t=0.24
1.295843415241639
% es.tEy (V/m) @ t=0.24
0
% es.tEz (V/m) @ t=0.24
0.5238596969083957
% V (V) @ t=0.24
0.006994554723827701
% es.normE (V/m) @ t=0.26
1.4149332911003334
% es.EX (V/m) @ t=0.26
1.307584071053232
% es.EY (V/m) @ t=0.26
0.08233370517718636
% es.EZ (V/m) @ t=0.26
0.5286059959794842
% es.tEX (V/m) @ t=0.26
1.307584071053232
% es.tEY (V/m) @ t=0.26
0
% es.tEZ (V/m) @ t=0.26
0.5286059959794835
% es.Ex (V/m) @ t=0.26
1.307584071053232
% es.Ey (V/m) @ t=0.26
0.08233370517718636
% es.Ez (V/m) @ t=0.26
0.5286059959794842
% es.tEx (V/m) @ t=0.26
1.307584071053232
% es.tEy (V/m) @ t=0.26
0
% es.tEz (V/m) @ t=0.26
0.5286059959794835
% V (V) @ t=0.26
0.007057929204926428
% es.normE (V/m) @ t=0.28
1.428244306467989
% es.EX (V/m) @ t=0.28
1.3198851871626722
% es.EY (V/m) @ t=0.28
0.08310827328785442
% es.EZ (V/m) @ t=0.28
0.533578920499242
% es.tEX (V/m) @ t=0.28
1.3198851871626642
% es.tEY (V/m) @ t=0.28
0
% es.tEZ (V/m) @ t=0.28
0.5335789204992407
% es.Ex (V/m) @ t=0.28
1.3198851871626722
% es.Ey (V/m) @ t=0.28
0.08310827328785442
% es.Ez (V/m) @ t=0.28
0.533578920499242
% es.tEx (V/m) @ t=0.28
1.3198851871626642
% es.tEy (V/m) @ t=0.28
0
% es.tEz (V/m) @ t=0.28
0.5335789204992407
% V (V) @ t=0.28
0.007124343748075086
% es.normE (V/m) @ t=0.3
1.4423950746481338
% es.EX (V/m) @ t=0.3
1.3329623318781012
% es.EY (V/m) @ t=0.3
0.08393169883950252
% es.EZ (V/m) @ t=0.3
0.5388656367927609
% es.tEX (V/m) @ t=0.3
1.3329623318780994
% es.tEY (V/m) @ t=0.3
0
% es.tEZ (V/m) @ t=0.3
0.5388656367927624
% es.Ex (V/m) @ t=0.3
1.3329623318781012
% es.Ey (V/m) @ t=0.3
0.08393169883950252
% es.Ez (V/m) @ t=0.3
0.5388656367927609
% es.tEx (V/m) @ t=0.3
1.3329623318780994
% es.tEy (V/m) @ t=0.3
0
% es.tEz (V/m) @ t=0.3
0.5388656367927624
% V (V) @ t=0.3
0.007194967644007029
% es.normE (V/m) @ t=0.32
1.456545842828427
% es.EX (V/m) @ t=0.32
1.3460394765935284
% es.EY (V/m) @ t=0.32
0.08475512439115312
% es.EZ (V/m) @ t=0.32
0.5441523530862975
% es.tEX (V/m) @ t=0.32
1.346039476593524
% es.tEY (V/m) @ t=0.32
0
% es.tEZ (V/m) @ t=0.32
0.5441523530863028
% es.Ex (V/m) @ t=0.32
1.3460394765935284
% es.Ey (V/m) @ t=0.32
0.08475512439115312
% es.Ez (V/m) @ t=0.32
0.5441523530862975
% es.tEx (V/m) @ t=0.32
1.346039476593524
% es.tEy (V/m) @ t=0.32
0
% es.tEz (V/m) @ t=0.32
0.5441523530863028
% V (V) @ t=0.32
0.007265591539938975
% es.normE (V/m) @ t=0.34
1.4706966110088613
% es.EX (V/m) @ t=0.34
1.3591166213089556
% es.EY (V/m) @ t=0.34
0.0855785499427994
% es.EZ (V/m) @ t=0.34
0.5494390693798374
% es.tEX (V/m) @ t=0.34
1.3591166213089547
% es.tEY (V/m) @ t=0.34
0
% es.tEZ (V/m) @ t=0.34
0.5494390693798357
% es.Ex (V/m) @ t=0.34
1.3591166213089556
% es.Ey (V/m) @ t=0.34
0.0855785499427994
% es.Ez (V/m) @ t=0.34
0.5494390693798374
% es.tEx (V/m) @ t=0.34
1.3591166213089547
% es.tEy (V/m) @ t=0.34
0
% es.tEz (V/m) @ t=0.34
0.5494390693798357
% V (V) @ t=0.34
0.007336215435870919
% es.normE (V/m) @ t=0.36
1.4848473791894174
% es.EX (V/m) @ t=0.36
1.3721937660243748
% es.EY (V/m) @ t=0.36
0.08640197549445722
% es.EZ (V/m) @ t=0.36
0.5547257856733605
% es.tEX (V/m) @ t=0.36
1.372193766024381
% es.tEY (V/m) @ t=0.36
0
% es.tEZ (V/m) @ t=0.36
0.5547257856733596
% es.Ex (V/m) @ t=0.36
1.3721937660243748
% es.Ey (V/m) @ t=0.36
0.08640197549445722
% es.Ez (V/m) @ t=0.36
0.5547257856733605
% es.tEx (V/m) @ t=0.36
1.372193766024381
% es.tEy (V/m) @ t=0.36
0
% es.tEz (V/m) @ t=0.36
0.5547257856733596
% V (V) @ t=0.36
0.007406839331802863
% es.normE (V/m) @ t=0.38
1.498998147370124
% es.EX (V/m) @ t=0.38
1.3852709107398127
% es.EY (V/m) @ t=0.38
0.08722540104610077
% es.EZ (V/m) @ t=0.38
0.5600125019668889
% es.tEX (V/m) @ t=0.38
1.385270910739811
% es.tEY (V/m) @ t=0.38
0
% es.tEZ (V/m) @ t=0.38
0.5600125019668942
% es.Ex (V/m) @ t=0.38
1.3852709107398127
% es.Ey (V/m) @ t=0.38
0.08722540104610077
% es.Ez (V/m) @ t=0.38
0.5600125019668889
% es.tEx (V/m) @ t=0.38
1.385270910739811
% es.tEy (V/m) @ t=0.38
0
% es.tEz (V/m) @ t=0.38
0.5600125019668942
% V (V) @ t=0.38
0.007477463227734808
% es.normE (V/m) @ t=0.4
1.513148915550946
% es.EX (V/m) @ t=0.4
1.3983480554552337
% es.EY (V/m) @ t=0.4
0.08804882659775148
% es.EZ (V/m) @ t=0.4
0.5652992182604235
% es.tEX (V/m) @ t=0.4
1.3983480554552319
% es.tEY (V/m) @ t=0.4
0
% es.tEZ (V/m) @ t=0.4
0.5652992182604262
% es.Ex (V/m) @ t=0.4
1.3983480554552337
% es.Ey (V/m) @ t=0.4
0.08804882659775148
% es.Ez (V/m) @ t=0.4
0.5652992182604235
% es.tEx (V/m) @ t=0.4
1.3983480554552319
% es.tEy (V/m) @ t=0.4
0
% es.tEz (V/m) @ t=0.4
0.5652992182604262
% V (V) @ t=0.4
0.007548087123666751
% es.normE (V/m) @ t=0.42
1.5272996837318895
% es.EX (V/m) @ t=0.42
1.4114252001706546
% es.EY (V/m) @ t=0.42
0.08887225214941014
% es.EZ (V/m) @ t=0.42
0.570585934553951
% es.tEX (V/m) @ t=0.42
1.4114252001706573
% es.tEY (V/m) @ t=0.42
0
% es.tEZ (V/m) @ t=0.42
0.5705859345539483
% es.Ex (V/m) @ t=0.42
1.4114252001706546
% es.Ey (V/m) @ t=0.42
0.08887225214941014
% es.Ez (V/m) @ t=0.42
0.570585934553951
% es.tEx (V/m) @ t=0.42
1.4114252001706573
% es.tEy (V/m) @ t=0.42
0
% es.tEz (V/m) @ t=0.42
0.5705859345539483
% V (V) @ t=0.42
0.007618711019598696
% es.normE (V/m) @ t=0.44
1.541450451912962
% es.EX (V/m) @ t=0.44
1.4245023448860792
% es.EY (V/m) @ t=0.44
0.08969567770106168
% es.EZ (V/m) @ t=0.44
0.575872650847491
% es.tEX (V/m) @ t=0.44
1.4245023448860827
% es.tEY (V/m) @ t=0.44
0
% es.tEZ (V/m) @ t=0.44
0.5758726508474918
% es.Ex (V/m) @ t=0.44
1.4245023448860792
% es.Ey (V/m) @ t=0.44
0.08969567770106168
% es.Ez (V/m) @ t=0.44
0.575872650847491
% es.tEx (V/m) @ t=0.44
1.4245023448860827
% es.tEy (V/m) @ t=0.44
0
% es.tEz (V/m) @ t=0.44
0.5758726508474918
% V (V) @ t=0.44
0.007689334915530639
% es.normE (V/m) @ t=0.46
1.5556012200941502
% es.EX (V/m) @ t=0.46
1.4375794896015082
% es.EY (V/m) @ t=0.46
0.09051910325270629
% es.EZ (V/m) @ t=0.46
0.5811593671410171
% es.tEX (V/m) @ t=0.46
1.4375794896015144
% es.tEY (V/m) @ t=0.46
0
% es.tEZ (V/m) @ t=0.46
0.581159367141018
% es.Ex (V/m) @ t=0.46
1.4375794896015082
% es.Ey (V/m) @ t=0.46
0.09051910325270629
% es.Ez (V/m) @ t=0.46
0.5811593671410171
% es.tEx (V/m) @ t=0.46
1.4375794896015144
% es.tEy (V/m) @ t=0.46
0
% es.tEz (V/m) @ t=0.46
0.581159367141018
% V (V) @ t=0.46
0.007759958811462583
% es.normE (V/m) @ t=0.48
1.5697519882754534
% es.EX (V/m) @ t=0.48
1.450656634316938
% es.EY (V/m) @ t=0.48
0.09134252880435872
% es.EZ (V/m) @ t=0.48
0.5864460834345402
% es.tEX (V/m) @ t=0.48
1.4506566343169398
% es.tEY (V/m) @ t=0.48
0
% es.tEZ (V/m) @ t=0.48
0.586446083434542
% es.Ex (V/m) @ t=0.48
1.450656634316938
% es.Ey (V/m) @ t=0.48
0.09134252880435872
% es.Ez (V/m) @ t=0.48
0.5864460834345402
% es.tEx (V/m) @ t=0.48
1.4506566343169398
% es.tEy (V/m) @ t=0.48
0
% es.tEz (V/m) @ t=0.48
0.586446083434542
% V (V) @ t=0.48
0.007830582707394526
% es.normE (V/m) @ t=0.5
1.583902756456867
% es.EX (V/m) @ t=0.5
1.4637337790323608
% es.EY (V/m) @ t=0.5
0.09216595435600405
% es.EZ (V/m) @ t=0.5
0.5917327997280788
% es.tEX (V/m) @ t=0.5
1.463733779032367
% es.tEY (V/m) @ t=0.5
0
% es.tEZ (V/m) @ t=0.5
0.5917327997280752
% es.Ex (V/m) @ t=0.5
1.4637337790323608
% es.Ey (V/m) @ t=0.5
0.09216595435600405
% es.Ez (V/m) @ t=0.5
0.5917327997280788
% es.tEx (V/m) @ t=0.5
1.463733779032367
% es.tEy (V/m) @ t=0.5
0
% es.tEz (V/m) @ t=0.5
0.5917327997280752
% V (V) @ t=0.5
0.007901206603326473
% es.normE (V/m) @ t=0.52
1.5980535246383942
% es.EX (V/m) @ t=0.52
1.4768109237477942
% es.EY (V/m) @ t=0.52
0.09298937990765915
% es.EZ (V/m) @ t=0.52
0.5970195160216045
% es.tEX (V/m) @ t=0.52
1.476810923747796
% es.tEY (V/m) @ t=0.52
0
% es.tEZ (V/m) @ t=0.52
0.5970195160216045
% es.Ex (V/m) @ t=0.52
1.4768109237477942
% es.Ey (V/m) @ t=0.52
0.09298937990765915
% es.Ez (V/m) @ t=0.52
0.5970195160216045
% es.tEx (V/m) @ t=0.52
1.476810923747796
% es.tEy (V/m) @ t=0.52
0
% es.tEz (V/m) @ t=0.52
0.5970195160216045
% V (V) @ t=0.52
0.007971830499258417
% es.normE (V/m) @ t=0.54
1.6122042928200182
% es.EX (V/m) @ t=0.54
1.489888068463216
% es.EY (V/m) @ t=0.54
0.0938128054593162
% es.EZ (V/m) @ t=0.54
0.6023062323151334
% es.tEX (V/m) @ t=0.54
1.4898880684632188
% es.tEY (V/m) @ t=0.54
0
% es.tEZ (V/m) @ t=0.54
0.602306232315136
% es.Ex (V/m) @ t=0.54
1.489888068463216
% es.Ey (V/m) @ t=0.54
0.0938128054593162
% es.Ez (V/m) @ t=0.54
0.6023062323151334
% es.tEx (V/m) @ t=0.54
1.4898880684632188
% es.tEy (V/m) @ t=0.54
0
% es.tEz (V/m) @ t=0.54
0.602306232315136
% V (V) @ t=0.54
0.008042454395190357
% es.normE (V/m) @ t=0.56
1.627739957874221
% es.EX (V/m) @ t=0.56
1.5042450777040477
% es.EY (V/m) @ t=0.56
0.09471681587225428
% es.EZ (V/m) @ t=0.56
0.6081101312584241
% es.tEX (V/m) @ t=0.56
1.504245077704046
% es.tEY (V/m) @ t=0.56
0
% es.tEZ (V/m) @ t=0.56
0.608110131258425
% es.Ex (V/m) @ t=0.56
1.5042450777040477
% es.Ey (V/m) @ t=0.56
0.09471681587225428
% es.Ez (V/m) @ t=0.56
0.6081101312584241
% es.tEx (V/m) @ t=0.56
1.504245077704046
% es.tEy (V/m) @ t=0.56
0
% es.tEz (V/m) @ t=0.56
0.608110131258425
% V (V) @ t=0.56
0.008119923899317013
% es.normE (V/m) @ t=0.58
1.6435226179521933
% es.EX (V/m) @ t=0.58
1.518830349550548
% es.EY (V/m) @ t=0.58
0.09563519851761099
% es.EZ (V/m) @ t=0.58
0.6140062692292649
% es.tEX (V/m) @ t=0.58
1.5188303495505506
% es.tEY (V/m) @ t=0.58
0
% es.tEZ (V/m) @ t=0.58
0.6140062692292649
% es.Ex (V/m) @ t=0.58
1.518830349550548
% es.Ey (V/m) @ t=0.58
0.09563519851761099
% es.Ez (V/m) @ t=0.58
0.6140062692292649
% es.tEx (V/m) @ t=0.58
1.5188303495505506
% es.tEy (V/m) @ t=0.58
0
% es.tEz (V/m) @ t=0.58
0.6140062692292649
% V (V) @ t=0.58
0.008198614311073245
% es.normE (V/m) @ t=0.6
1.6593052780303044
% es.EX (V/m) @ t=0.6
1.5334156213970438
% es.EY (V/m) @ t=0.6
0.09655358116298174
% es.EZ (V/m) @ t=0.6
0.6199024072000987
% es.tEX (V/m) @ t=0.6
1.533415621397042
% es.tEY (V/m) @ t=0.6
0
% es.tEZ (V/m) @ t=0.6
0.6199024072000978
% es.Ex (V/m) @ t=0.6
1.5334156213970438
% es.Ey (V/m) @ t=0.6
0.09655358116298174
% es.Ez (V/m) @ t=0.6
0.6199024072000987
% es.tEx (V/m) @ t=0.6
1.533415621397042
% es.tEy (V/m) @ t=0.6
0
% es.tEz (V/m) @ t=0.6
0.6199024072000978
% V (V) @ t=0.6
0.008277304722829476
% es.normE (V/m) @ t=0.62
1.6750879381085724
% es.EX (V/m) @ t=0.62
1.5480008932435534
% es.EY (V/m) @ t=0.62
0.09747196380833223
% es.EZ (V/m) @ t=0.62
0.6257985451709429
% es.tEX (V/m) @ t=0.62
1.548000893243553
% es.tEY (V/m) @ t=0.62
0
% es.tEZ (V/m) @ t=0.62
0.6257985451709436
% es.Ex (V/m) @ t=0.62
1.5480008932435534
% es.Ey (V/m) @ t=0.62
0.09747196380833223
% es.Ez (V/m) @ t=0.62
0.6257985451709429
% es.tEx (V/m) @ t=0.62
1.548000893243553
% es.tEy (V/m) @ t=0.62
0
% es.tEz (V/m) @ t=0.62
0.6257985451709436
% V (V) @ t=0.62
0.008355995134585712
% es.normE (V/m) @ t=0.64
1.6908705981869647
% es.EX (V/m) @ t=0.64
1.5625861650900505
% es.EY (V/m) @ t=0.64
0.09839034645368605
% es.EZ (V/m) @ t=0.64
0.6316946831417816
% es.tEX (V/m) @ t=0.64
1.5625861650900505
% es.tEY (V/m) @ t=0.64
0
% es.tEZ (V/m) @ t=0.64
0.6316946831417796
% es.Ex (V/m) @ t=0.64
1.5625861650900505
% es.Ey (V/m) @ t=0.64
0.09839034645368605
% es.Ez (V/m) @ t=0.64
0.6316946831417816
% es.tEx (V/m) @ t=0.64
1.5625861650900505
% es.tEy (V/m) @ t=0.64
0
% es.tEz (V/m) @ t=0.64
0.6316946831417796
% V (V) @ t=0.64
0.008434685546341943
% es.normE (V/m) @ t=0.66
1.7066532582654896
% es.EX (V/m) @ t=0.66
1.5771714369365415
% es.EY (V/m) @ t=0.66
0.09930872909904898
% es.EZ (V/m) @ t=0.66
0.6375908211126302
% es.tEX (V/m) @ t=0.66
1.5771714369365455
% es.tEY (V/m) @ t=0.66
0
% es.tEZ (V/m) @ t=0.66
0.6375908211126311
% es.Ex (V/m) @ t=0.66
1.5771714369365415
% es.Ey (V/m) @ t=0.66
0.09930872909904898
% es.Ez (V/m) @ t=0.66
0.6375908211126302
% es.tEx (V/m) @ t=0.66
1.5771714369365455
% es.tEy (V/m) @ t=0.66
0
% es.tEz (V/m) @ t=0.66
0.6375908211126311
% V (V) @ t=0.66
0.008513375958098177
% es.normE (V/m) @ t=0.68
1.72243591834415
% es.EX (V/m) @ t=0.68
1.5917567087830413
% es.EY (V/m) @ t=0.68
0.10022711174440913
% es.EZ (V/m) @ t=0.68
0.6434869590834738
% es.tEX (V/m) @ t=0.68
1.5917567087830449
% es.tEY (V/m) @ t=0.68
0
% es.tEZ (V/m) @ t=0.68
0.6434869590834764
% es.Ex (V/m) @ t=0.68
1.5917567087830413
% es.Ey (V/m) @ t=0.68
0.10022711174440913
% es.Ez (V/m) @ t=0.68
0.6434869590834738
% es.tEx (V/m) @ t=0.68
1.5917567087830449
% es.tEy (V/m) @ t=0.68
0
% es.tEz (V/m) @ t=0.68
0.6434869590834764
% V (V) @ t=0.68
0.008592066369854412
% es.normE (V/m) @ t=0.7
1.7382185784229507
% es.EX (V/m) @ t=0.7
1.6063419806295522
% es.EY (V/m) @ t=0.7
0.10114549438977383
% es.EZ (V/m) @ t=0.7
0.6493830970543248
% es.tEX (V/m) @ t=0.7
1.606341980629547
% es.tEY (V/m) @ t=0.7
0
% es.tEZ (V/m) @ t=0.7
0.6493830970543293
% es.Ex (V/m) @ t=0.7
1.6063419806295522
% es.Ey (V/m) @ t=0.7
0.10114549438977383
% es.Ez (V/m) @ t=0.7
0.6493830970543248
% es.tEx (V/m) @ t=0.7
1.606341980629547
% es.tEy (V/m) @ t=0.7
0
% es.tEz (V/m) @ t=0.7
0.6493830970543293
% V (V) @ t=0.7
0.008670756781610644
% es.normE (V/m) @ t=0.72
1.7540012385018489
% es.EX (V/m) @ t=0.72
1.6209272524760432
% es.EY (V/m) @ t=0.72
0.10206387703512154
% es.EZ (V/m) @ t=0.72
0.6552792350251615
% es.tEX (V/m) @ t=0.72
1.6209272524760472
% es.tEY (V/m) @ t=0.72
0
% es.tEZ (V/m) @ t=0.72
0.6552792350251604
% es.Ex (V/m) @ t=0.72
1.6209272524760432
% es.Ey (V/m) @ t=0.72
0.10206387703512154
% es.Ez (V/m) @ t=0.72
0.6552792350251615
% es.tEx (V/m) @ t=0.72
1.6209272524760472
% es.tEy (V/m) @ t=0.72
0
% es.tEz (V/m) @ t=0.72
0.6552792350251604
% V (V) @ t=0.72
0.008749447193366879
% es.normE (V/m) @ t=0.74
1.769783898580867
% es.EX (V/m) @ t=0.74
1.6355125243225306
% es.EY (V/m) @ t=0.74
0.10298225968048258
% es.EZ (V/m) @ t=0.74
0.6611753729960042
% es.tEX (V/m) @ t=0.74
1.635512524322543
% es.tEY (V/m) @ t=0.74
0
% es.tEZ (V/m) @ t=0.74
0.6611753729960044
% es.Ex (V/m) @ t=0.74
1.6355125243225306
% es.Ey (V/m) @ t=0.74
0.10298225968048258
% es.Ez (V/m) @ t=0.74
0.6611753729960042
% es.tEx (V/m) @ t=0.74
1.635512524322543
% es.tEy (V/m) @ t=0.74
0
% es.tEz (V/m) @ t=0.74
0.6611753729960044
% V (V) @ t=0.74
0.008828137605123113
% es.normE (V/m) @ t=0.76
1.785566558660018
% es.EX (V/m) @ t=0.76
1.6500977961690357
% es.EY (V/m) @ t=0.76
0.10390064232583474
% es.EZ (V/m) @ t=0.76
0.667071510966847
% es.tEX (V/m) @ t=0.76
1.6500977961690397
% es.tEY (V/m) @ t=0.76
0
% es.tEZ (V/m) @ t=0.76
0.6670715109668479
% es.Ex (V/m) @ t=0.76
1.6500977961690357
% es.Ey (V/m) @ t=0.76
0.10390064232583474
% es.Ez (V/m) @ t=0.76
0.667071510966847
% es.tEx (V/m) @ t=0.76
1.6500977961690397
% es.tEy (V/m) @ t=0.76
0
% es.tEz (V/m) @ t=0.76
0.6670715109668479
% V (V) @ t=0.76
0.008906828016879345
% es.normE (V/m) @ t=0.78
1.8013492187392843
% es.EX (V/m) @ t=0.78
1.6646830680155444
% es.EY (V/m) @ t=0.78
0.10481902497119688
% es.EZ (V/m) @ t=0.78
0.6729676489376843
% es.tEX (V/m) @ t=0.78
1.6646830680155427
% es.tEY (V/m) @ t=0.78
0
% es.tEZ (V/m) @ t=0.78
0.6729676489376879
% es.Ex (V/m) @ t=0.78
1.6646830680155444
% es.Ey (V/m) @ t=0.78
0.10481902497119688
% es.Ez (V/m) @ t=0.78
0.6729676489376843
% es.tEx (V/m) @ t=0.78
1.6646830680155427
% es.tEy (V/m) @ t=0.78
0
% es.tEz (V/m) @ t=0.78
0.6729676489376879
% V (V) @ t=0.78
0.008985518428635578
% es.normE (V/m) @ t=0.8
1.8171318788186615
% es.EX (V/m) @ t=0.8
1.6792683398620483
% es.EY (V/m) @ t=0.8
0.10573740761655448
% es.EZ (V/m) @ t=0.8
0.6788637869085365
% es.tEX (V/m) @ t=0.8
1.6792683398620447
% es.tEY (V/m) @ t=0.8
0
% es.tEZ (V/m) @ t=0.8
0.678863786908539
% es.Ex (V/m) @ t=0.8
1.6792683398620483
% es.Ey (V/m) @ t=0.8
0.10573740761655448
% es.Ez (V/m) @ t=0.8
0.6788637869085365
% es.tEx (V/m) @ t=0.8
1.6792683398620447
% es.tEy (V/m) @ t=0.8
0
% es.tEz (V/m) @ t=0.8
0.678863786908539
% V (V) @ t=0.8
0.009064208840391812
% es.normE (V/m) @ t=0.82
1.833431859793373
% es.EX (V/m) @ t=0.82
1.6943316787003866
% es.EY (V/m) @ t=0.82
0.10668591391180637
% es.EZ (V/m) @ t=0.82
0.6849532263718789
% es.tEX (V/m) @ t=0.82
1.6943316787003937
% es.tEY (V/m) @ t=0.82
0
% es.tEZ (V/m) @ t=0.82
0.6849532263718734
% es.Ex (V/m) @ t=0.82
1.6943316787003866
% es.Ey (V/m) @ t=0.82
0.10668591391180637
% es.Ez (V/m) @ t=0.82
0.6849532263718789
% es.tEx (V/m) @ t=0.82
1.6943316787003937
% es.tEy (V/m) @ t=0.82
0
% es.tEz (V/m) @ t=0.82
0.6849532263718734
% V (V) @ t=0.82
0.00914549198714032
% es.normE (V/m) @ t=0.84
1.8510758067454272
% es.EX (V/m) @ t=0.84
1.7106370044327806
% es.EY (V/m) @ t=0.84
0.1077126794866391
% es.EZ (V/m) @ t=0.84
0.6915448505172268
% es.tEX (V/m) @ t=0.84
1.7106370044327814
% es.tEY (V/m) @ t=0.84
0
% es.tEZ (V/m) @ t=0.84
0.6915448505172295
% es.Ex (V/m) @ t=0.84
1.7106370044327806
% es.Ey (V/m) @ t=0.84
0.1077126794866391
% es.Ez (V/m) @ t=0.84
0.6915448505172268
% es.tEx (V/m) @ t=0.84
1.7106370044327814
% es.tEy (V/m) @ t=0.84
0
% es.tEz (V/m) @ t=0.84
0.6915448505172295
% V (V) @ t=0.84
0.009233510890456431
% es.normE (V/m) @ t=0.86
1.8687197536974987
% es.EX (V/m) @ t=0.86
1.7269423301651683
% es.EY (V/m) @ t=0.86
0.10873944506146671
% es.EZ (V/m) @ t=0.86
0.6981364746625767
% es.tEX (V/m) @ t=0.86
1.726942330165162
% es.tEY (V/m) @ t=0.86
0
% es.tEZ (V/m) @ t=0.86
0.6981364746625713
% es.Ex (V/m) @ t=0.86
1.7269423301651683
% es.Ey (V/m) @ t=0.86
0.10873944506146671
% es.Ez (V/m) @ t=0.86
0.6981364746625767
% es.tEx (V/m) @ t=0.86
1.726942330165162
% es.tEy (V/m) @ t=0.86
0
% es.tEz (V/m) @ t=0.86
0.6981364746625713
% V (V) @ t=0.86
0.009321529793772546
% es.normE (V/m) @ t=0.88
1.8863637006495877
% es.EX (V/m) @ t=0.88
1.7432476558975472
% es.EY (V/m) @ t=0.88
0.1097662106362951
% es.EZ (V/m) @ t=0.88
0.7047280988079374
% es.tEX (V/m) @ t=0.88
1.7432476558975463
% es.tEY (V/m) @ t=0.88
0
% es.tEZ (V/m) @ t=0.88
0.704728098807943
% es.Ex (V/m) @ t=0.88
1.7432476558975472
% es.Ey (V/m) @ t=0.88
0.1097662106362951
% es.Ez (V/m) @ t=0.88
0.7047280988079374
% es.tEx (V/m) @ t=0.88
1.7432476558975463
% es.tEy (V/m) @ t=0.88
0
% es.tEz (V/m) @ t=0.88
0.704728098807943
% V (V) @ t=0.88
0.009409548697088661
% es.normE (V/m) @ t=0.9
1.9040076476017052
% es.EX (V/m) @ t=0.9
1.7595529816299385
% es.EY (V/m) @ t=0.9
0.1107929762111226
% es.EZ (V/m) @ t=0.9
0.7113197229532864
% es.tEX (V/m) @ t=0.9
1.7595529816299376
% es.tEY (V/m) @ t=0.9
0
% es.tEZ (V/m) @ t=0.9
0.7113197229532862
% es.Ex (V/m) @ t=0.9
1.7595529816299385
% es.Ey (V/m) @ t=0.9
0.1107929762111226
% es.Ez (V/m) @ t=0.9
0.7113197229532864
% es.tEx (V/m) @ t=0.9
1.7595529816299376
% es.tEy (V/m) @ t=0.9
0
% es.tEz (V/m) @ t=0.9
0.7113197229532862
% V (V) @ t=0.9
0.009497567600404775
% es.normE (V/m) @ t=0.92
1.9216515945538273
% es.EX (V/m) @ t=0.92
1.7758583073623102
% es.EY (V/m) @ t=0.92
0.11181974178595899
% es.EZ (V/m) @ t=0.92
0.7179113470986402
% es.tEX (V/m) @ t=0.92
1.7758583073623129
% es.tEY (V/m) @ t=0.92
0
% es.tEZ (V/m) @ t=0.92
0.7179113470986391
% es.Ex (V/m) @ t=0.92
1.7758583073623102
% es.Ey (V/m) @ t=0.92
0.11181974178595899
% es.Ez (V/m) @ t=0.92
0.7179113470986402
% es.tEx (V/m) @ t=0.92
1.7758583073623129
% es.tEy (V/m) @ t=0.92
0
% es.tEz (V/m) @ t=0.92
0.7179113470986391
% V (V) @ t=0.92
0.009585586503720888
% es.normE (V/m) @ t=0.94
1.939295541505985
% es.EX (V/m) @ t=0.94
1.7921636330947015
% es.EY (V/m) @ t=0.94
0.11284650736079549
% es.EZ (V/m) @ t=0.94
0.7245029712439872
% es.tEX (V/m) @ t=0.94
1.7921636330947006
% es.tEY (V/m) @ t=0.94
0
% es.tEZ (V/m) @ t=0.94
0.7245029712439899
% es.Ex (V/m) @ t=0.94
1.7921636330947015
% es.Ey (V/m) @ t=0.94
0.11284650736079549
% es.Ez (V/m) @ t=0.94
0.7245029712439872
% es.tEx (V/m) @ t=0.94
1.7921636330947006
% es.tEy (V/m) @ t=0.94
0
% es.tEz (V/m) @ t=0.94
0.7245029712439899
% V (V) @ t=0.94
0.009673605407037
% es.normE (V/m) @ t=0.96
1.9569394884581581
% es.EX (V/m) @ t=0.96
1.8084689588270821
% es.EY (V/m) @ t=0.96
0.11387327293561944
% es.EZ (V/m) @ t=0.96
0.7310945953893533
% es.tEX (V/m) @ t=0.96
1.8084689588270901
% es.tEY (V/m) @ t=0.96
0
% es.tEZ (V/m) @ t=0.96
0.731094595389358
% es.Ex (V/m) @ t=0.96
1.8084689588270821
% es.Ey (V/m) @ t=0.96
0.11387327293561944
% es.Ez (V/m) @ t=0.96
0.7310945953893533
% es.tEx (V/m) @ t=0.96
1.8084689588270901
% es.tEy (V/m) @ t=0.96
0
% es.tEz (V/m) @ t=0.96
0.731094595389358
% V (V) @ t=0.96
0.009761624310353115
% es.normE (V/m) @ t=0.98
1.9745834354103624
% es.EX (V/m) @ t=0.98
1.8247742845594805
% es.EY (V/m) @ t=0.98
0.11490003851044883
% es.EZ (V/m) @ t=0.98
0.737686219534704
% es.tEX (V/m) @ t=0.98
1.8247742845594743
% es.tEY (V/m) @ t=0.98
0
% es.tEZ (V/m) @ t=0.98
0.7376862195347051
% es.Ex (V/m) @ t=0.98
1.8247742845594805
% es.Ey (V/m) @ t=0.98
0.11490003851044883
% es.Ez (V/m) @ t=0.98
0.737686219534704
% es.tEx (V/m) @ t=0.98
1.8247742845594743
% es.tEy (V/m) @ t=0.98
0
% es.tEz (V/m) @ t=0.98
0.7376862195347051
% V (V) @ t=0.98
0.009849643213669228
% es.normE (V/m) @ t=1
1.9922273823625676
% es.EX (V/m) @ t=1
1.8410796102918594
% es.EY (V/m) @ t=1
0.11592680408527634
% es.EZ (V/m) @ t=1
0.744277843680057
% es.tEX (V/m) @ t=1
1.8410796102918603
% es.tEY (V/m) @ t=1
0
% es.tEZ (V/m) @ t=1
0.7442778436800563
% es.Ex (V/m) @ t=1
1.8410796102918594
% es.Ey (V/m) @ t=1
0.11592680408527634
% es.Ez (V/m) @ t=1
0.744277843680057
% es.tEx (V/m) @ t=1
1.8410796102918603
% es.tEy (V/m) @ t=1
0
% es.tEz (V/m) @ t=1
0.7442778436800563
% V (V) @ t=1
0.009937662116985343
% es.normE (V/m) @ t=1.02
2.0098713293147856
% es.EX (V/m) @ t=1.02
1.8573849360242365
% es.EY (V/m) @ t=1.02
0.1169535696601075
% es.EZ (V/m) @ t=1.02
0.7508694678254006
% es.tEX (V/m) @ t=1.02
1.857384936024248
% es.tEY (V/m) @ t=1.02
0
% es.tEZ (V/m) @ t=1.02
0.7508694678253995
% es.Ex (V/m) @ t=1.02
1.8573849360242365
% es.Ey (V/m) @ t=1.02
0.1169535696601075
% es.Ez (V/m) @ t=1.02
0.7508694678254006
% es.tEx (V/m) @ t=1.02
1.857384936024248
% es.tEy (V/m) @ t=1.02
0
% es.tEz (V/m) @ t=1.02
0.7508694678253995
% V (V) @ t=1.02
0.010025681020301455
% es.normE (V/m) @ t=1.04
2.027515276267042
% es.EX (V/m) @ t=1.04
1.8736902617566278
% es.EY (V/m) @ t=1.04
0.11798033523493856
% es.EZ (V/m) @ t=1.04
0.7574610919707645
% es.tEX (V/m) @ t=1.04
1.8736902617566216
% es.tEY (V/m) @ t=1.04
0
% es.tEZ (V/m) @ t=1.04
0.7574610919707627
% es.Ex (V/m) @ t=1.04
1.8736902617566278
% es.Ey (V/m) @ t=1.04
0.11798033523493856
% es.Ez (V/m) @ t=1.04
0.7574610919707645
% es.tEx (V/m) @ t=1.04