% Model:              1 neuron.mph
% Version:            COMSOL 6.0.0.405
% Date:               Mar 9 2023, 13:44
% Dimension:          0
% Nodes:              14017
% Expressions:        14017
% Description:        Electric field norm, Electric field, X component, Electric field, Y component, Electric field, Z component, Tangential electric field, X component, Tangential electric field, Y component, Tangential electric field, Z component, Electric field, x component, Electric field, y component, Electric field, z component, Tangential electric field, x component, Tangential electric field, y component, Tangential electric field, z component, Electric potential
% Length unit:        mm
% x
2
% y
12.2
% z
1.6599999999999997
% es.normE (V/m) @ t=0
1.2562075752981015
% es.EX (V/m) @ t=0
-1.2138285794428088
% es.EY (V/m) @ t=0
0.0935088679400446
% es.EZ (V/m) @ t=0
-0.3093727559249746
% es.tEX (V/m) @ t=0
-1.2138285794428114
% es.tEY (V/m) @ t=0
0
% es.tEZ (V/m) @ t=0
-0.30937275592498636
% es.Ex (V/m) @ t=0
-1.2138285794428088
% es.Ey (V/m) @ t=0
0.0935088679400446
% es.Ez (V/m) @ t=0
-0.3093727559249746
% es.tEx (V/m) @ t=0
-1.2138285794428114
% es.tEy (V/m) @ t=0
0
% es.tEz (V/m) @ t=0
-0.30937275592498636
% V (V) @ t=0
0.007279990003005835
% es.normE (V/m) @ t=0.02
1.0850094477070416
% es.EX (V/m) @ t=0.02
-1.0484059322333183
% es.EY (V/m) @ t=0.02
0.080765323084942
% es.EZ (V/m) @ t=0.02
-0.26721091147140896
% es.tEX (V/m) @ t=0.02
-1.048405932233317
% es.tEY (V/m) @ t=0.02
0
% es.tEZ (V/m) @ t=0.02
-0.26721091147141074
% es.Ex (V/m) @ t=0.02
-1.0484059322333183
% es.Ey (V/m) @ t=0.02
0.080765323084942
% es.Ez (V/m) @ t=0.02
-0.26721091147140896
% es.tEx (V/m) @ t=0.02
-1.048405932233317
% es.tEy (V/m) @ t=0.02
0
% es.tEz (V/m) @ t=0.02
-0.26721091147141074
% V (V) @ t=0.02
0.0062878603225559986
% es.normE (V/m) @ t=0.04
1.0949882100313002
% es.EX (V/m) @ t=0.04
-1.058048042591055
% es.EY (V/m) @ t=0.04
0.08150814225281433
% es.EZ (V/m) @ t=0.04
-0.2696684710021098
% es.tEX (V/m) @ t=0.04
-1.0580480425910572
% es.tEY (V/m) @ t=0.04
0
% es.tEZ (V/m) @ t=0.04
-0.2696684710021069
% es.Ex (V/m) @ t=0.04
-1.058048042591055
% es.Ey (V/m) @ t=0.04
0.08150814225281433
% es.Ez (V/m) @ t=0.04
-0.2696684710021098
% es.tEx (V/m) @ t=0.04
-1.0580480425910572
% es.tEy (V/m) @ t=0.04
0
% es.tEz (V/m) @ t=0.04
-0.2696684710021069
% V (V) @ t=0.04
0.006345688613872985
% es.normE (V/m) @ t=0.06
1.1050567158123585
% es.EX (V/m) @ t=0.06
-1.067776863464485
% es.EY (V/m) @ t=0.06
0.08225765345940905
% es.EZ (V/m) @ t=0.06
-0.2721481494435425
% es.tEX (V/m) @ t=0.06
-1.067776863464493
% es.tEY (V/m) @ t=0.06
0
% es.tEZ (V/m) @ t=0.06
-0.2721481494435469
% es.Ex (V/m) @ t=0.06
-1.067776863464485
% es.Ey (V/m) @ t=0.06
0.08225765345940905
% es.Ez (V/m) @ t=0.06
-0.2721481494435425
% es.tEx (V/m) @ t=0.06
-1.067776863464493
% es.tEy (V/m) @ t=0.06
0
% es.tEz (V/m) @ t=0.06
-0.2721481494435469
% V (V) @ t=0.06
0.006404036641019162
% es.normE (V/m) @ t=0.08
1.1152793925538407
% es.EX (V/m) @ t=0.08
-1.07765466402669
% es.EY (V/m) @ t=0.08
0.08301861940024813
% es.EZ (V/m) @ t=0.08
-0.274665764877815
% es.tEX (V/m) @ t=0.08
-1.0776546640266957
% es.tEY (V/m) @ t=0.08
0
% es.tEZ (V/m) @ t=0.08
-0.274665764877823
% es.Ex (V/m) @ t=0.08
-1.07765466402669
% es.Ey (V/m) @ t=0.08
0.08301861940024813
% es.Ez (V/m) @ t=0.08
-0.274665764877815
% es.tEx (V/m) @ t=0.08
-1.0776546640266957
% es.tEy (V/m) @ t=0.08
0
% es.tEz (V/m) @ t=0.08
-0.274665764877823
% V (V) @ t=0.08
0.006463278751156281
% es.normE (V/m) @ t=0.1
1.1256082646040886
% es.EX (V/m) @ t=0.1
-1.087635084070587
% es.EY (V/m) @ t=0.1
0.08378747553670024
% es.EZ (V/m) @ t=0.1
-0.2772095118913076
% es.tEX (V/m) @ t=0.1
-1.0876350840705875
% es.tEY (V/m) @ t=0.1
0
% es.tEZ (V/m) @ t=0.1
-0.2772095118913054
% es.Ex (V/m) @ t=0.1
-1.087635084070587
% es.Ey (V/m) @ t=0.1
0.08378747553670024
% es.Ez (V/m) @ t=0.1
-0.2772095118913076
% es.tEx (V/m) @ t=0.1
-1.0876350840705875
% es.tEy (V/m) @ t=0.1
0
% es.tEz (V/m) @ t=0.1
-0.2772095118913054
% V (V) @ t=0.1
0.006523136719292858
% es.normE (V/m) @ t=0.12
1.1359371366543343
% es.EX (V/m) @ t=0.12
-1.0976155041144833
% es.EY (V/m) @ t=0.12
0.08455633167314303
% es.EZ (V/m) @ t=0.12
-0.27975325890479685
% es.tEX (V/m) @ t=0.12
-1.0976155041145006
% es.tEY (V/m) @ t=0.12
0
% es.tEZ (V/m) @ t=0.12
-0.2797532589047975
% es.Ex (V/m) @ t=0.12
-1.0976155041144833
% es.Ey (V/m) @ t=0.12
0.08455633167314303
% es.Ez (V/m) @ t=0.12
-0.27975325890479685
% es.tEx (V/m) @ t=0.12
-1.0976155041145006
% es.tEy (V/m) @ t=0.12
0
% es.tEz (V/m) @ t=0.12
-0.2797532589047975
% V (V) @ t=0.12
0.006582994687429434
% es.normE (V/m) @ t=0.14
1.1463729682790695
% es.EX (V/m) @ t=0.14
-1.1076992721195555
% es.EY (V/m) @ t=0.14
0.08533315671263492
% es.EZ (V/m) @ t=0.14
-0.28232335790055907
% es.tEX (V/m) @ t=0.14
-1.1076992721195573
% es.tEY (V/m) @ t=0.14
0
% es.tEZ (V/m) @ t=0.14
-0.28232335790055707
% es.Ex (V/m) @ t=0.14
-1.1076992721195555
% es.Ey (V/m) @ t=0.14
0.08533315671263492
% es.Ez (V/m) @ t=0.14
-0.28232335790055907
% es.tEx (V/m) @ t=0.14
-1.1076992721195573
% es.tEy (V/m) @ t=0.14
0
% es.tEz (V/m) @ t=0.14
-0.28232335790055707
% V (V) @ t=0.14
0.006643472299522068
% es.normE (V/m) @ t=0.16
1.1572525623609513
% es.EX (V/m) @ t=0.16
-1.1182118184309267
% es.EY (V/m) @ t=0.16
0.086143043775877
% es.EZ (V/m) @ t=0.16
-0.285002788112928
% es.tEX (V/m) @ t=0.16
-1.1182118184309342
% es.tEY (V/m) @ t=0.16
0
% es.tEZ (V/m) @ t=0.16
-0.2850027881129318
% es.Ex (V/m) @ t=0.16
-1.1182118184309267
% es.Ey (V/m) @ t=0.16
0.086143043775877
% es.Ez (V/m) @ t=0.16
-0.285002788112928
% es.tEx (V/m) @ t=0.16
-1.1182118184309342
% es.tEy (V/m) @ t=0.16
0
% es.tEz (V/m) @ t=0.16
-0.2850027881129318
% V (V) @ t=0.16
0.006706520740133856
% es.normE (V/m) @ t=0.18
1.1681321564428329
% es.EX (V/m) @ t=0.18
-1.1287243647422938
% es.EY (V/m) @ t=0.18
0.08695293083911909
% es.EZ (V/m) @ t=0.18
-0.28768221832529717
% es.tEX (V/m) @ t=0.18
-1.1287243647423022
% es.tEY (V/m) @ t=0.18
0
% es.tEZ (V/m) @ t=0.18
-0.2876822183252994
% es.Ex (V/m) @ t=0.18
-1.1287243647422938
% es.Ey (V/m) @ t=0.18
0.08695293083911909
% es.Ez (V/m) @ t=0.18
-0.28768221832529717
% es.tEx (V/m) @ t=0.18
-1.1287243647423022
% es.tEy (V/m) @ t=0.18
0
% es.tEz (V/m) @ t=0.18
-0.2876822183252994
% V (V) @ t=0.18
0.006769569180745644
% es.normE (V/m) @ t=0.2
1.1790117505247444
% es.EX (V/m) @ t=0.2
-1.1392369110536849
% es.EY (V/m) @ t=0.2
0.08776281790237189
% es.EZ (V/m) @ t=0.2
-0.2903616485376721
% es.tEX (V/m) @ t=0.2
-1.139236911053672
% es.tEY (V/m) @ t=0.2
0
% es.tEZ (V/m) @ t=0.2
-0.29036164853766877
% es.Ex (V/m) @ t=0.2
-1.1392369110536849
% es.Ey (V/m) @ t=0.2
0.08776281790237189
% es.Ez (V/m) @ t=0.2
-0.2903616485376721
% es.tEx (V/m) @ t=0.2
-1.139236911053672
% es.tEy (V/m) @ t=0.2
0
% es.tEz (V/m) @ t=0.2
-0.29036164853766877
% V (V) @ t=0.2
0.006832617621357432
% es.normE (V/m) @ t=0.22
1.1898913446066284
% es.EX (V/m) @ t=0.22
-1.1497494573650453
% es.EY (V/m) @ t=0.22
0.08857270496562464
% es.EZ (V/m) @ t=0.22
-0.2930410787500395
% es.tEX (V/m) @ t=0.22
-1.1497494573650489
% es.tEY (V/m) @ t=0.22
0
% es.tEZ (V/m) @ t=0.22
-0.29304107875003815
% es.Ex (V/m) @ t=0.22
-1.1497494573650453
% es.Ey (V/m) @ t=0.22
0.08857270496562464
% es.Ez (V/m) @ t=0.22
-0.2930410787500395
% es.tEx (V/m) @ t=0.22
-1.1497494573650489
% es.tEy (V/m) @ t=0.22
0
% es.tEz (V/m) @ t=0.22
-0.29304107875003815
% V (V) @ t=0.22
0.0068956660619692205
% es.normE (V/m) @ t=0.24
1.200770938688529
% es.EX (V/m) @ t=0.24
-1.1602620036764195
% es.EY (V/m) @ t=0.24
0.08938259202886317
% es.EZ (V/m) @ t=0.24
-0.2957205089624102
% es.tEX (V/m) @ t=0.24
-1.160262003676424
% es.tEY (V/m) @ t=0.24
0
% es.tEZ (V/m) @ t=0.24
-0.29572050896241997
% es.Ex (V/m) @ t=0.24
-1.1602620036764195
% es.Ey (V/m) @ t=0.24
0.08938259202886317
% es.Ez (V/m) @ t=0.24
-0.2957205089624102
% es.tEx (V/m) @ t=0.24
-1.160262003676424
% es.tEy (V/m) @ t=0.24
0
% es.tEz (V/m) @ t=0.24
-0.29572050896241997
% V (V) @ t=0.24
0.006958714502581009
% es.normE (V/m) @ t=0.26
1.2116505327704452
% es.EX (V/m) @ t=0.26
-1.1707745499878053
% es.EY (V/m) @ t=0.26
0.0901924790921203
% es.EZ (V/m) @ t=0.26
-0.2983999391747778
% es.tEX (V/m) @ t=0.26
-1.1707745499878008
% es.tEY (V/m) @ t=0.26
0
% es.tEZ (V/m) @ t=0.26
-0.2983999391747769
% es.Ex (V/m) @ t=0.26
-1.1707745499878053
% es.Ey (V/m) @ t=0.26
0.0901924790921203
% es.Ez (V/m) @ t=0.26
-0.2983999391747778
% es.tEx (V/m) @ t=0.26
-1.1707745499878008
% es.tEy (V/m) @ t=0.26
0
% es.tEz (V/m) @ t=0.26
-0.2983999391747769
% V (V) @ t=0.26
0.007021762943192798
% es.normE (V/m) @ t=0.28
1.2230247472353284
% es.EX (V/m) @ t=0.28
-1.18176540515925
% es.EY (V/m) @ t=0.28
0.09103836835920348
% es.EZ (V/m) @ t=0.28
-0.3011999759378019
% es.tEX (V/m) @ t=0.28
-1.1817654051592523
% es.tEY (V/m) @ t=0.28
0
% es.tEZ (V/m) @ t=0.28
-0.30119997593779857
% es.Ex (V/m) @ t=0.28
-1.18176540515925
% es.Ey (V/m) @ t=0.28
0.09103836835920348
% es.Ez (V/m) @ t=0.28
-0.3011999759378019
% es.tEx (V/m) @ t=0.28
-1.1817654051592523
% es.tEy (V/m) @ t=0.28
0
% es.tEz (V/m) @ t=0.28
-0.30119997593779857
% V (V) @ t=0.28
0.0070877018832644955
% es.normE (V/m) @ t=0.3
1.2351458932432857
% es.EX (V/m) @ t=0.3
-1.193478559660199
% es.EY (V/m) @ t=0.3
0.09193862493962973
% es.EZ (V/m) @ t=0.3
-0.3041821419439792
% es.tEX (V/m) @ t=0.3
-1.1934785596601998
% es.tEY (V/m) @ t=0.3
0
% es.tEZ (V/m) @ t=0.3
-0.30418214194398274
% es.Ex (V/m) @ t=0.3
-1.193478559660199
% es.Ey (V/m) @ t=0.3
0.09193862493962973
% es.Ez (V/m) @ t=0.3
-0.3041821419439792
% es.tEx (V/m) @ t=0.3
-1.1934785596601998
% es.tEy (V/m) @ t=0.3
0
% es.tEz (V/m) @ t=0.3
-0.30418214194398274
% V (V) @ t=0.3
0.0071580057975111034
% es.normE (V/m) @ t=0.32
1.247267039262772
% es.EX (V/m) @ t=0.32
-1.20519171416118
% es.EY (V/m) @ t=0.32
0.09283888152007558
% es.EZ (V/m) @ t=0.32
-0.3071643079501485
% es.tEX (V/m) @ t=0.32
-1.2051917141611685
% es.tEY (V/m) @ t=0.32
0
% es.tEZ (V/m) @ t=0.32
-0.3071643079501385
% es.Ex (V/m) @ t=0.32
-1.20519171416118
% es.Ey (V/m) @ t=0.32
0.09283888152007558
% es.Ez (V/m) @ t=0.32
-0.3071643079501485
% es.tEx (V/m) @ t=0.32
-1.2051917141611685
% es.tEy (V/m) @ t=0.32
0
% es.tEz (V/m) @ t=0.32
-0.3071643079501385
% V (V) @ t=0.32
0.007228309711757711
% es.normE (V/m) @ t=0.34
1.2593881852933766
% es.EX (V/m) @ t=0.34
-1.2169048686621178
% es.EY (V/m) @ t=0.34
0.09373913810050283
% es.EZ (V/m) @ t=0.34
-0.3101464739563049
% es.tEX (V/m) @ t=0.34
-1.2169048686621302
% es.tEY (V/m) @ t=0.34
0
% es.tEZ (V/m) @ t=0.34
-0.3101464739562996
% es.Ex (V/m) @ t=0.34
-1.2169048686621178
% es.Ey (V/m) @ t=0.34
0.09373913810050283
% es.Ez (V/m) @ t=0.34
-0.3101464739563049
% es.tEx (V/m) @ t=0.34
-1.2169048686621302
% es.tEy (V/m) @ t=0.34
0
% es.tEz (V/m) @ t=0.34
-0.3101464739562996
% V (V) @ t=0.34
0.007298613626004319
% es.normE (V/m) @ t=0.36
1.2715093313348462
% es.EX (V/m) @ t=0.36
-1.2286180231630697
% es.EY (V/m) @ t=0.36
0.09463939468093613
% es.EZ (V/m) @ t=0.36
-0.31312863996247997
% es.tEX (V/m) @ t=0.36
-1.2286180231630635
% es.tEY (V/m) @ t=0.36
0
% es.tEZ (V/m) @ t=0.36
-0.3131286399624802
% es.Ex (V/m) @ t=0.36
-1.2286180231630697
% es.Ey (V/m) @ t=0.36
0.09463939468093613
% es.Ez (V/m) @ t=0.36
-0.31312863996247997
% es.tEx (V/m) @ t=0.36
-1.2286180231630635
% es.tEy (V/m) @ t=0.36
0
% es.tEz (V/m) @ t=0.36
-0.3131286399624802
% V (V) @ t=0.36
0.007368917540250928
% es.normE (V/m) @ t=0.38
1.283630477386866
% es.EX (V/m) @ t=0.38
-1.2403311776640367
% es.EY (V/m) @ t=0.38
0.09553965126137576
% es.EZ (V/m) @ t=0.38
-0.3161108059686375
% es.tEX (V/m) @ t=0.38
-1.2403311776640393
% es.tEY (V/m) @ t=0.38
0
% es.tEZ (V/m) @ t=0.38
-0.31611080596864305
% es.Ex (V/m) @ t=0.38
-1.2403311776640367
% es.Ey (V/m) @ t=0.38
0.09553965126137576
% es.Ez (V/m) @ t=0.38
-0.3161108059686375
% es.tEx (V/m) @ t=0.38
-1.2403311776640393
% es.tEy (V/m) @ t=0.38
0
% es.tEz (V/m) @ t=0.38
-0.31611080596864305
% V (V) @ t=0.38
0.007439221454497538
% es.normE (V/m) @ t=0.4
1.2957516234491182
% es.EX (V/m) @ t=0.4
-1.2520443321649886
% es.EY (V/m) @ t=0.4
0.0964399078418145
% es.EZ (V/m) @ t=0.4
-0.31909297197481123
% es.tEX (V/m) @ t=0.4
-1.2520443321649868
% es.tEY (V/m) @ t=0.4
0
% es.tEZ (V/m) @ t=0.4
-0.3190929719748077
% es.Ex (V/m) @ t=0.4
-1.2520443321649886
% es.Ey (V/m) @ t=0.4
0.0964399078418145
% es.Ez (V/m) @ t=0.4
-0.31909297197481123
% es.tEx (V/m) @ t=0.4
-1.2520443321649868
% es.tEy (V/m) @ t=0.4
0
% es.tEz (V/m) @ t=0.4
-0.3190929719748077
% V (V) @ t=0.4
0.007509525368744146
% es.normE (V/m) @ t=0.42
1.307872769521319
% es.EX (V/m) @ t=0.42
-1.2637574866659325
% es.EY (V/m) @ t=0.42
0.09734016442225762
% es.EZ (V/m) @ t=0.42
-0.3220751379809761
% es.tEX (V/m) @ t=0.42
-1.263757486665929
% es.tEY (V/m) @ t=0.42
0
% es.tEZ (V/m) @ t=0.42
-0.32207513798097764
% es.Ex (V/m) @ t=0.42
-1.2637574866659325
% es.Ey (V/m) @ t=0.42
0.09734016442225762
% es.Ez (V/m) @ t=0.42
-0.3220751379809761
% es.tEx (V/m) @ t=0.42
-1.263757486665929
% es.tEy (V/m) @ t=0.42
0
% es.tEz (V/m) @ t=0.42
-0.32207513798097764
% V (V) @ t=0.42
0.0075798292829907556
% es.normE (V/m) @ t=0.44
1.319993915603225
% es.EX (V/m) @ t=0.44
-1.2754706411669012
% es.EY (V/m) @ t=0.44
0.09824042100268748
% es.EZ (V/m) @ t=0.44
-0.32505730398713295
% es.tEX (V/m) @ t=0.44
-1.2754706411668977
% es.tEY (V/m) @ t=0.44
0
% es.tEZ (V/m) @ t=0.44
-0.3250573039871316
% es.Ex (V/m) @ t=0.44
-1.2754706411669012
% es.Ey (V/m) @ t=0.44
0.09824042100268748
% es.Ez (V/m) @ t=0.44
-0.32505730398713295
% es.tEx (V/m) @ t=0.44
-1.2754706411668977
% es.tEy (V/m) @ t=0.44
0
% es.tEz (V/m) @ t=0.44
-0.3250573039871316
% V (V) @ t=0.44
0.007650133197237365
% es.normE (V/m) @ t=0.46
1.33211506169454
% es.EX (V/m) @ t=0.46
-1.287183795667855
% es.EY (V/m) @ t=0.46
0.09914067758311457
% es.EZ (V/m) @ t=0.46
-0.32803946999330513
% es.tEX (V/m) @ t=0.46
-1.2871837956678522
% es.tEY (V/m) @ t=0.46
0
% es.tEZ (V/m) @ t=0.46
-0.3280394699933016
% es.Ex (V/m) @ t=0.46
-1.287183795667855
% es.Ey (V/m) @ t=0.46
0.09914067758311457
% es.Ez (V/m) @ t=0.46
-0.32803946999330513
% es.tEx (V/m) @ t=0.46
-1.2871837956678522
% es.tEy (V/m) @ t=0.46
0
% es.tEz (V/m) @ t=0.46
-0.3280394699933016
% V (V) @ t=0.46
0.007720437111483973
% es.normE (V/m) @ t=0.48
1.3442362077950154
% es.EX (V/m) @ t=0.48
-1.2988969501688032
% es.EY (V/m) @ t=0.48
0.1000409341635684
% es.EZ (V/m) @ t=0.48
-0.33102163599947176
% es.tEX (V/m) @ t=0.48
-1.298896950168805
% es.tEY (V/m) @ t=0.48
0
% es.tEZ (V/m) @ t=0.48
-0.3310216359994733
% es.Ex (V/m) @ t=0.48
-1.2988969501688032
% es.Ey (V/m) @ t=0.48
0.1000409341635684
% es.Ez (V/m) @ t=0.48
-0.33102163599947176
% es.tEx (V/m) @ t=0.48
-1.298896950168805
% es.tEy (V/m) @ t=0.48
0
% es.tEz (V/m) @ t=0.48
-0.3310216359994733
% V (V) @ t=0.48
0.007790741025730581
% es.normE (V/m) @ t=0.5
1.3563573539044305
% es.EX (V/m) @ t=0.5
-1.3106101046697773
% es.EY (V/m) @ t=0.5
0.10094119074399294
% es.EZ (V/m) @ t=0.5
-0.33400380200563107
% es.tEX (V/m) @ t=0.5
-1.3106101046697773
% es.tEY (V/m) @ t=0.5
0
% es.tEZ (V/m) @ t=0.5
-0.3340038020056326
% es.Ex (V/m) @ t=0.5
-1.3106101046697773
% es.Ey (V/m) @ t=0.5
0.10094119074399294
% es.Ez (V/m) @ t=0.5
-0.33400380200563107
% es.tEx (V/m) @ t=0.5
-1.3106101046697773
% es.tEy (V/m) @ t=0.5
0
% es.tEz (V/m) @ t=0.5
-0.3340038020056326
% V (V) @ t=0.5
0.007861044939977191
% es.normE (V/m) @ t=0.52
1.3684785000225141
% es.EX (V/m) @ t=0.52
-1.3223232591707328
% es.EY (V/m) @ t=0.52
0.10184144732442812
% es.EZ (V/m) @ t=0.52
-0.3369859680118039
% es.tEX (V/m) @ t=0.52
-1.322323259170732
% es.tEY (V/m) @ t=0.52
0
% es.tEZ (V/m) @ t=0.52
-0.33698596801179903
% es.Ex (V/m) @ t=0.52
-1.3223232591707328
% es.Ey (V/m) @ t=0.52
0.10184144732442812
% es.Ez (V/m) @ t=0.52
-0.3369859680118039
% es.tEx (V/m) @ t=0.52
-1.322323259170732
% es.tEy (V/m) @ t=0.52
0
% es.tEz (V/m) @ t=0.52
-0.33698596801179903
% V (V) @ t=0.52
0.007931348854223799
% es.normE (V/m) @ t=0.54
1.3805996461490442
% es.EX (V/m) @ t=0.54
-1.334036413671682
% es.EY (V/m) @ t=0.54
0.10274170390487031
% es.EZ (V/m) @ t=0.54
-0.3399681340179699
% es.tEX (V/m) @ t=0.54
-1.3340364136716918
% es.tEY (V/m) @ t=0.54
0
% es.tEZ (V/m) @ t=0.54
-0.33996813401797255
% es.Ex (V/m) @ t=0.54
-1.334036413671682
% es.Ey (V/m) @ t=0.54
0.10274170390487031
% es.Ez (V/m) @ t=0.54
-0.3399681340179699
% es.tEx (V/m) @ t=0.54
-1.3340364136716918
% es.tEy (V/m) @ t=0.54
0
% es.tEz (V/m) @ t=0.54
-0.33996813401797255
% V (V) @ t=0.54
0.008001652768470409
% es.normE (V/m) @ t=0.56
1.393849406880057
% es.EX (V/m) @ t=0.56
-1.3468386175588716
% es.EY (V/m) @ t=0.56
0.10372921755096631
% es.EZ (V/m) @ t=0.56
-0.34323304744480576
% es.tEX (V/m) @ t=0.56
-1.3468386175588734
% es.tEY (V/m) @ t=0.56
0
% es.tEZ (V/m) @ t=0.56
-0.34323304744480865
% es.Ex (V/m) @ t=0.56
-1.3468386175588716
% es.Ey (V/m) @ t=0.56
0.10372921755096631
% es.Ez (V/m) @ t=0.56
-0.34323304744480576
% es.tEx (V/m) @ t=0.56
-1.3468386175588734
% es.tEy (V/m) @ t=0.56
0
% es.tEz (V/m) @ t=0.56
-0.34323304744480865
% V (V) @ t=0.56
0.00807840151036789
% es.normE (V/m) @ t=0.58
1.4073695479725297
% es.EX (V/m) @ t=0.58
-1.3599017232223494
% es.EY (V/m) @ t=0.58
0.1047376352292198
% es.EZ (V/m) @ t=0.58
-0.34656569820771455
% es.tEX (V/m) @ t=0.58
-1.359901723222345
% es.tEY (V/m) @ t=0.58
0
% es.tEZ (V/m) @ t=0.58
-0.3465656982077103
% es.Ex (V/m) @ t=0.58
-1.3599017232223494
% es.Ey (V/m) @ t=0.58
0.1047376352292198
% es.Ez (V/m) @ t=0.58
-0.34656569820771455
% es.tEx (V/m) @ t=0.58
-1.359901723222345
% es.tEy (V/m) @ t=0.58
0
% es.tEz (V/m) @ t=0.58
-0.3465656982077103
% V (V) @ t=0.58
0.008156694229061113
% es.normE (V/m) @ t=0.6
1.4208896890777836
% es.EX (V/m) @ t=0.6
-1.3729648288858014
% es.EY (V/m) @ t=0.6
0.10574605290748029
% es.EZ (V/m) @ t=0.6
-0.349898348970636
% es.tEX (V/m) @ t=0.6
-1.372964828885804
% es.tEY (V/m) @ t=0.6
0
% es.tEZ (V/m) @ t=0.6
-0.34989834897063865
% es.Ex (V/m) @ t=0.6
-1.3729648288858014
% es.Ey (V/m) @ t=0.6
0.10574605290748029
% es.Ez (V/m) @ t=0.6
-0.349898348970636
% es.tEx (V/m) @ t=0.6
-1.372964828885804
% es.tEy (V/m) @ t=0.6
0
% es.tEz (V/m) @ t=0.6
-0.34989834897063865
% V (V) @ t=0.6
0.008234986947754335
% es.normE (V/m) @ t=0.62
1.4344098301954982
% es.EX (V/m) @ t=0.62
-1.3860279345492694
% es.EY (V/m) @ t=0.62
0.10675447058575693
% es.EZ (V/m) @ t=0.62
-0.35323099973356786
% es.tEX (V/m) @ t=0.62
-1.3860279345492703
% es.tEY (V/m) @ t=0.62
0
% es.tEZ (V/m) @ t=0.62
-0.35323099973355987
% es.Ex (V/m) @ t=0.62
-1.3860279345492694
% es.Ey (V/m) @ t=0.62
0.10675447058575693
% es.Ez (V/m) @ t=0.62
-0.35323099973356786
% es.tEx (V/m) @ t=0.62
-1.3860279345492703
% es.tEy (V/m) @ t=0.62
0
% es.tEz (V/m) @ t=0.62
-0.35323099973355987
% V (V) @ t=0.62
0.00831327966644756
% es.normE (V/m) @ t=0.64
1.4479299713253089
% es.EX (V/m) @ t=0.64
-1.3990910402127508
% es.EY (V/m) @ t=0.64
0.10776288826401742
% es.EZ (V/m) @ t=0.64
-0.3565636504964653
% es.tEX (V/m) @ t=0.64
-1.3990910402127437
% es.tEY (V/m) @ t=0.64
0
% es.tEZ (V/m) @ t=0.64
-0.3565636504964633
% es.Ex (V/m) @ t=0.64
-1.3990910402127508
% es.Ey (V/m) @ t=0.64
0.10776288826401742
% es.Ez (V/m) @ t=0.64
-0.3565636504964653
% es.tEx (V/m) @ t=0.64
-1.3990910402127437
% es.tEy (V/m) @ t=0.64
0
% es.tEz (V/m) @ t=0.64
-0.3565636504964633
% V (V) @ t=0.64
0.008391572385140784
% es.normE (V/m) @ t=0.66
1.4614501124668648
% es.EX (V/m) @ t=0.66
-1.4121541458762117
% es.EY (V/m) @ t=0.66
0.10877130594227713
% es.EZ (V/m) @ t=0.66
-0.3598963012593961
% es.tEX (V/m) @ t=0.66
-1.4121541458762046
% es.tEY (V/m) @ t=0.66
0
% es.tEZ (V/m) @ t=0.66
-0.3598963012593952
% es.Ex (V/m) @ t=0.66
-1.4121541458762117
% es.Ey (V/m) @ t=0.66
0.10877130594227713
% es.Ez (V/m) @ t=0.66
-0.3598963012593961
% es.tEx (V/m) @ t=0.66
-1.4121541458762046
% es.tEy (V/m) @ t=0.66
0
% es.tEz (V/m) @ t=0.66
-0.3598963012593952
% V (V) @ t=0.66
0.008469865103834006
% es.normE (V/m) @ t=0.68
1.4749702536198392
% es.EX (V/m) @ t=0.68
-1.425217251539661
% es.EY (V/m) @ t=0.68
0.10977972362052973
% es.EZ (V/m) @ t=0.68
-0.36322895202231287
% es.tEX (V/m) @ t=0.68
-1.425217251539662
% es.tEY (V/m) @ t=0.68
0
% es.tEZ (V/m) @ t=0.68
-0.3632289520223164
% es.Ex (V/m) @ t=0.68
-1.425217251539661
% es.Ey (V/m) @ t=0.68
0.10977972362052973
% es.Ez (V/m) @ t=0.68
-0.36322895202231287
% es.tEx (V/m) @ t=0.68
-1.425217251539662
% es.tEy (V/m) @ t=0.68
0
% es.tEz (V/m) @ t=0.68
-0.3632289520223164
% V (V) @ t=0.68
0.00854815782252723
% es.normE (V/m) @ t=0.7
1.4884903947839667
% es.EX (V/m) @ t=0.7
-1.4382803572031406
% es.EY (V/m) @ t=0.7
0.11078814129880188
% es.EZ (V/m) @ t=0.7
-0.36656160278523053
% es.tEX (V/m) @ t=0.7
-1.438280357203137
% es.tEY (V/m) @ t=0.7
0
% es.tEZ (V/m) @ t=0.7
-0.36656160278523053
% es.Ex (V/m) @ t=0.7
-1.4382803572031406
% es.Ey (V/m) @ t=0.7
0.11078814129880188
% es.Ez (V/m) @ t=0.7
-0.36656160278523053
% es.tEx (V/m) @ t=0.7
-1.438280357203137
% es.tEy (V/m) @ t=0.7
0
% es.tEz (V/m) @ t=0.7
-0.36656160278523053
% V (V) @ t=0.7
0.008626450541220453
% es.normE (V/m) @ t=0.72
1.5020105359589033
% es.EX (V/m) @ t=0.72
-1.4513434628666069
% es.EY (V/m) @ t=0.72
0.11179655897707219
% es.EZ (V/m) @ t=0.72
-0.3698942535481493
% es.tEX (V/m) @ t=0.72
-1.4513434628666175
% es.tEY (V/m) @ t=0.72
0
% es.tEZ (V/m) @ t=0.72
-0.36989425354815175
% es.Ex (V/m) @ t=0.72
-1.4513434628666069
% es.Ey (V/m) @ t=0.72
0.11179655897707219
% es.Ez (V/m) @ t=0.72
-0.3698942535481493
% es.tEx (V/m) @ t=0.72
-1.4513434628666175
% es.tEy (V/m) @ t=0.72
0
% es.tEz (V/m) @ t=0.72
-0.36989425354815175
% V (V) @ t=0.72
0.008704743259913678
% es.normE (V/m) @ t=0.74
1.5155306771443557
% es.EX (V/m) @ t=0.74
-1.464406568530058
% es.EY (V/m) @ t=0.74
0.11280497665531591
% es.EZ (V/m) @ t=0.74
-0.3732269043110694
% es.tEX (V/m) @ t=0.74
-1.4644065685300482
% es.tEY (V/m) @ t=0.74
0
% es.tEZ (V/m) @ t=0.74
-0.37322690431106764
% es.Ex (V/m) @ t=0.74
-1.464406568530058
% es.Ey (V/m) @ t=0.74
0.11280497665531591
% es.Ez (V/m) @ t=0.74
-0.3732269043110694
% es.tEx (V/m) @ t=0.74
-1.4644065685300482
% es.tEy (V/m) @ t=0.74
0
% es.tEz (V/m) @ t=0.74
-0.37322690431106764
% V (V) @ t=0.74
0.008783035978606902
% es.normE (V/m) @ t=0.76
1.529050818340073
% es.EX (V/m) @ t=0.76
-1.4774696741935207
% es.EY (V/m) @ t=0.76
0.11381339433357912
% es.EZ (V/m) @ t=0.76
-0.37655955507398664
% es.tEX (V/m) @ t=0.76
-1.4774696741935234
% es.tEY (V/m) @ t=0.76
0
% es.tEZ (V/m) @ t=0.76
-0.37655955507399597
% es.Ex (V/m) @ t=0.76
-1.4774696741935207
% es.Ey (V/m) @ t=0.76
0.11381339433357912
% es.Ez (V/m) @ t=0.76
-0.37655955507398664
% es.tEx (V/m) @ t=0.76
-1.4774696741935234
% es.tEy (V/m) @ t=0.76
0
% es.tEz (V/m) @ t=0.76
-0.37655955507399597
% V (V) @ t=0.76
0.008861328697300124
% es.normE (V/m) @ t=0.78
1.542570959545791
% es.EX (V/m) @ t=0.78
-1.490532779857002
% es.EY (V/m) @ t=0.78
0.11482181201184949
% es.EZ (V/m) @ t=0.78
-0.37989220583689987
% es.tEX (V/m) @ t=0.78
-1.4905327798570092
% es.tEY (V/m) @ t=0.78
0
% es.tEZ (V/m) @ t=0.78
-0.37989220583689765
% es.Ex (V/m) @ t=0.78
-1.490532779857002
% es.Ey (V/m) @ t=0.78
0.11482181201184949
% es.Ez (V/m) @ t=0.78
-0.37989220583689987
% es.tEx (V/m) @ t=0.78
-1.4905327798570092
% es.tEy (V/m) @ t=0.78
0
% es.tEz (V/m) @ t=0.78
-0.37989220583689765
% V (V) @ t=0.78
0.00893962141599335
% es.normE (V/m) @ t=0.8
1.5560911007612017
% es.EX (V/m) @ t=0.8
-1.5035958855204496
% es.EY (V/m) @ t=0.8
0.11583022969010387
% es.EZ (V/m) @ t=0.8
-0.38322485659982686
% es.tEX (V/m) @ t=0.8
-1.503595885520463
% es.tEY (V/m) @ t=0.8
0
% es.tEZ (V/m) @ t=0.8
-0.38322485659982064
% es.Ex (V/m) @ t=0.8
-1.5035958855204496
% es.Ey (V/m) @ t=0.8
0.11583022969010387
% es.Ez (V/m) @ t=0.8
-0.38322485659982686
% es.tEx (V/m) @ t=0.8
-1.503595885520463
% es.tEy (V/m) @ t=0.8
0
% es.tEz (V/m) @ t=0.8
-0.38322485659982064
% V (V) @ t=0.8
0.009017914134686571
% es.normE (V/m) @ t=0.82
1.5699557581931134
% es.EX (V/m) @ t=0.82
-1.5169924549172853
% es.EY (V/m) @ t=0.82
0.11686305129069546
% es.EZ (V/m) @ t=0.82
-0.38664051887322826
% es.tEX (V/m) @ t=0.82
-1.5169924549172933
% es.tEY (V/m) @ t=0.82
0
% es.tEZ (V/m) @ t=0.82
-0.38664051887322337
% es.Ex (V/m) @ t=0.82
-1.5169924549172853
% es.Ey (V/m) @ t=0.82
0.11686305129069546
% es.Ez (V/m) @ t=0.82
-0.38664051887322826
% es.tEx (V/m) @ t=0.82
-1.5169924549172933
% es.tEy (V/m) @ t=0.82
0
% es.tEz (V/m) @ t=0.82
-0.38664051887322337
% V (V) @ t=0.82
0.00909823999730844
% es.normE (V/m) @ t=0.84
1.585077733702864
% es.EX (V/m) @ t=0.84
-1.5316060061687367
% es.EY (V/m) @ t=0.84
0.11798493544189964
% es.EZ (V/m) @ t=0.84
-0.3903591331377436
% es.tEX (V/m) @ t=0.84
-1.5316060061687473
% es.tEY (V/m) @ t=0.84
0
% es.tEZ (V/m) @ t=0.84
-0.39035913313774806
% es.Ex (V/m) @ t=0.84
-1.5316060061687367
% es.Ey (V/m) @ t=0.84
0.11798493544189964
% es.Ez (V/m) @ t=0.84
-0.3903591331377436
% es.tEx (V/m) @ t=0.84
-1.5316060061687473
% es.tEy (V/m) @ t=0.84
0
% es.tEz (V/m) @ t=0.84
-0.39035913313774806
% V (V) @ t=0.84
0.009185985855034362
% es.normE (V/m) @ t=0.86
1.6001997092439988
% es.EX (V/m) @ t=0.86
-1.5462195574201898
% es.EY (V/m) @ t=0.86
0.11910681959311359
% es.EZ (V/m) @ t=0.86
-0.3940777474022692
% es.tEX (V/m) @ t=0.86
-1.5462195574201978
% es.tEY (V/m) @ t=0.86
0
% es.tEZ (V/m) @ t=0.86
-0.3940777474022692
% es.Ex (V/m) @ t=0.86
-1.5462195574201898
% es.Ey (V/m) @ t=0.86
0.11910681959311359
% es.Ez (V/m) @ t=0.86
-0.3940777474022692
% es.tEx (V/m) @ t=0.86
-1.5462195574201978
% es.tEy (V/m) @ t=0.86
0
% es.tEz (V/m) @ t=0.86
-0.3940777474022692
% V (V) @ t=0.86
0.009273731712760278
% es.normE (V/m) @ t=0.88
1.6153216848156384
% es.EX (V/m) @ t=0.88
-1.56083310867165
% es.EY (V/m) @ t=0.88
0.12022870374435424
% es.EZ (V/m) @ t=0.88
-0.39779636166678634
% es.tEX (V/m) @ t=0.88
-1.5608331086716465
% es.tEY (V/m) @ t=0.88
0
% es.tEZ (V/m) @ t=0.88
-0.3977963616667779
% es.Ex (V/m) @ t=0.88
-1.56083310867165
% es.Ey (V/m) @ t=0.88
0.12022870374435424
% es.Ez (V/m) @ t=0.88
-0.39779636166678634
% es.tEx (V/m) @ t=0.88
-1.5608331086716465
% es.tEy (V/m) @ t=0.88
0
% es.tEz (V/m) @ t=0.88
-0.3977963616667779
% V (V) @ t=0.88
0.009361477570486198
% es.normE (V/m) @ t=0.9
1.6304436604169086
% es.EX (V/m) @ t=0.9
-1.5754466599230907
% es.EY (V/m) @ t=0.9
0.12135058789557895
% es.EZ (V/m) @ t=0.9
-0.4015149759313137
% es.tEX (V/m) @ t=0.9
-1.5754466599230899
% es.tEY (V/m) @ t=0.9
0
% es.tEZ (V/m) @ t=0.9
-0.40151497593131324
% es.Ex (V/m) @ t=0.9
-1.5754466599230907
% es.Ey (V/m) @ t=0.9
0.12135058789557895
% es.Ez (V/m) @ t=0.9
-0.4015149759313137
% es.tEx (V/m) @ t=0.9
-1.5754466599230899
% es.tEy (V/m) @ t=0.9
0
% es.tEz (V/m) @ t=0.9
-0.40151497593131324
% V (V) @ t=0.9
0.009449223428212118
% es.normE (V/m) @ t=0.92
1.6455656360470112
% es.EX (V/m) @ t=0.92
-1.5900602111745368
% es.EY (V/m) @ t=0.92
0.12247247204677603
% es.EZ (V/m) @ t=0.92
-0.4052335901958295
% es.tEX (V/m) @ t=0.92
-1.590060211174551
% es.tEY (V/m) @ t=0.92
0
% es.tEZ (V/m) @ t=0.92
-0.40523359019582905
% es.Ex (V/m) @ t=0.92
-1.5900602111745368
% es.Ey (V/m) @ t=0.92
0.12247247204677603
% es.Ez (V/m) @ t=0.92
-0.4052335901958295
% es.tEx (V/m) @ t=0.92
-1.590060211174551
% es.tEy (V/m) @ t=0.92
0
% es.tEz (V/m) @ t=0.92
-0.40523359019582905
% V (V) @ t=0.92
0.009536969285938036
% es.normE (V/m) @ t=0.94
1.6606876117051714
% es.EX (V/m) @ t=0.94
-1.6046737624259917
% es.EY (V/m) @ t=0.94
0.12359435619801662
% es.EZ (V/m) @ t=0.94
-0.4089522044603515
% es.tEX (V/m) @ t=0.94
-1.6046737624259872
% es.tEY (V/m) @ t=0.94
0
% es.tEZ (V/m) @ t=0.94
-0.4089522044603573
% es.Ex (V/m) @ t=0.94
-1.6046737624259917
% es.Ey (V/m) @ t=0.94
0.12359435619801662
% es.Ez (V/m) @ t=0.94
-0.4089522044603515
% es.tEx (V/m) @ t=0.94
-1.6046737624259872
% es.tEy (V/m) @ t=0.94
0
% es.tEz (V/m) @ t=0.94
-0.4089522044603573
% V (V) @ t=0.94
0.009624715143663955
% es.normE (V/m) @ t=0.96
1.6758095873906167
% es.EX (V/m) @ t=0.96
-1.6192873136774484
% es.EY (V/m) @ t=0.96
0.12471624034923157
% es.EZ (V/m) @ t=0.96
-0.41267081872487443
% es.tEX (V/m) @ t=0.96
-1.6192873136774573
% es.tEY (V/m) @ t=0.96
0
% es.tEZ (V/m) @ t=0.96
-0.4126708187248731
% es.Ex (V/m) @ t=0.96
-1.6192873136774484
% es.Ey (V/m) @ t=0.96
0.12471624034923157
% es.Ez (V/m) @ t=0.96
-0.41267081872487443
% es.tEx (V/m) @ t=0.96
-1.6192873136774573
% es.tEy (V/m) @ t=0.96
0
% es.tEz (V/m) @ t=0.96
-0.4126708187248731
% V (V) @ t=0.96
0.009712461001389873
% es.normE (V/m) @ t=0.98
1.6909315631026014
% es.EX (V/m) @ t=0.98
-1.6339008649288953
% es.EY (V/m) @ t=0.98
0.1258381245004313
% es.EZ (V/m) @ t=0.98
-0.4163894329893876
% es.tEX (V/m) @ t=0.98
-1.633900864928906
% es.tEY (V/m) @ t=0.98
0
% es.tEZ (V/m) @ t=0.98
-0.4163894329893907
% es.Ex (V/m) @ t=0.98
-1.6339008649288953
% es.Ey (V/m) @ t=0.98
0.1258381245004313
% es.Ez (V/m) @ t=0.98
-0.4163894329893876
% es.tEx (V/m) @ t=0.98
-1.633900864928906
% es.tEy (V/m) @ t=0.98
0
% es.tEz (V/m) @ t=0.98
-0.4163894329893907
% V (V) @ t=0.98
0.009800206859115793
% es.normE (V/m) @ t=1
1.706053538840446
% es.EX (V/m) @ t=1
-1.6485144161803493
% es.EY (V/m) @ t=1
0.12696000865166834
% es.EZ (V/m) @ t=1
-0.4201080472539127
% es.tEX (V/m) @ t=1
-1.6485144161803529
% es.tEY (V/m) @ t=1
0
% es.tEZ (V/m) @ t=1
-0.4201080472539136
% es.Ex (V/m) @ t=1
-1.6485144161803493
% es.Ey (V/m) @ t=1
0.12696000865166834
% es.Ez (V/m) @ t=1
-0.4201080472539127
% es.tEx (V/m) @ t=1
-1.6485144161803529
% es.tEy (V/m) @ t=1
0
% es.tEz (V/m) @ t=1
-0.4201080472539136
% V (V) @ t=1
0.009887952716841711
% es.normE (V/m) @ t=1.02
1.721175514603432
% es.EX (V/m) @ t=1.02
-1.6631279674317812
% es.EY (V/m) @ t=1.02
0.1280818928028682
% es.EZ (V/m) @ t=1.02
-0.42382666151843873
% es.tEX (V/m) @ t=1.02
-1.6631279674317963
% es.tEY (V/m) @ t=1.02
0
% es.tEZ (V/m) @ t=1.02
-0.42382666151844184
% es.Ex (V/m) @ t=1.02
-1.6631279674317812
% es.Ey (V/m) @ t=1.02
0.1280818928028682
% es.Ez (V/m) @ t=1.02
-0.42382666151843873
% es.tEx (V/m) @ t=1.02
-1.6631279674317963