% Model:              1 neuron.mph
% Version:            COMSOL 6.1.0.252
% Date:               Mar 18 2023, 11:39
% Dimension:          0
% Nodes:              14017
% Expressions:        14017
% Description:        Electric field norm, Electric field, X component, Electric field, Y component, Electric field, Z component, Tangential electric field, X component, Tangential electric field, Y component, Tangential electric field, Z component, Electric field, x component, Electric field, y component, Electric field, z component, Tangential electric field, x component, Tangential electric field, y component, Tangential electric field, z component, Electric potential
% Length unit:        mm
% x
1.66
% y
12.200000000000001
% z
1.66
% es.normE (V/m) @ t=0
20.503208920376252
% es.EX (V/m) @ t=0
-9.682795772545226
% es.EY (V/m) @ t=0
7.768600020498795
% es.EZ (V/m) @ t=0
9.312642812483464
% es.tEX (V/m) @ t=0
-9.682795772545212
% es.tEY (V/m) @ t=0
0
% es.tEZ (V/m) @ t=0
9.31264281248346
% es.Ex (V/m) @ t=0
-9.682795772545226
% es.Ey (V/m) @ t=0
7.768600020498795
% es.Ez (V/m) @ t=0
9.312642812483464
% es.tEx (V/m) @ t=0
-9.682795772545212
% es.tEy (V/m) @ t=0
0
% es.tEz (V/m) @ t=0
9.31264281248346
% V (V) @ t=0
0.006434844270294155
% es.normE (V/m) @ t=0.02
17.708853148010856
% es.EX (V/m) @ t=0.02
-8.363140117425978
% es.EY (V/m) @ t=0.02
6.709827602659367
% es.EZ (V/m) @ t=0.02
8.04343474222867
% es.tEX (V/m) @ t=0.02
-8.363140117425981
% es.tEY (V/m) @ t=0.02
0
% es.tEZ (V/m) @ t=0.02
8.04343474222867
% es.Ex (V/m) @ t=0.02
-8.363140117425978
% es.Ey (V/m) @ t=0.02
6.709827602659367
% es.Ez (V/m) @ t=0.02
8.04343474222867
% es.tEx (V/m) @ t=0.02
-8.363140117425981
% es.tEy (V/m) @ t=0.02
0
% es.tEz (V/m) @ t=0.02
8.04343474222867
% V (V) @ t=0.02
0.005557847684281393
% es.normE (V/m) @ t=0.04
17.871744543551795
% es.EX (V/m) @ t=0.04
-8.440067036775389
% es.EY (V/m) @ t=0.04
6.771546706573563
% es.EZ (V/m) @ t=0.04
8.117420343031803
% es.tEX (V/m) @ t=0.04
-8.440067036775375
% es.tEY (V/m) @ t=0.04
0
% es.tEZ (V/m) @ t=0.04
8.117420343031796
% es.Ex (V/m) @ t=0.04
-8.440067036775389
% es.Ey (V/m) @ t=0.04
6.771546706573563
% es.Ez (V/m) @ t=0.04
8.117420343031803
% es.tEx (V/m) @ t=0.04
-8.440067036775375
% es.tEy (V/m) @ t=0.04
0
% es.tEz (V/m) @ t=0.04
8.117420343031796
% V (V) @ t=0.04
0.005608970452989359
% es.normE (V/m) @ t=0.06
18.036162596567713
% es.EX (V/m) @ t=0.06
-8.517715118988626
% es.EY (V/m) @ t=0.06
6.8338443205183275
% es.EZ (V/m) @ t=0.06
8.192099065063967
% es.tEX (V/m) @ t=0.06
-8.517715118988615
% es.tEY (V/m) @ t=0.06
0
% es.tEZ (V/m) @ t=0.06
8.192099065063957
% es.Ex (V/m) @ t=0.06
-8.517715118988626
% es.Ey (V/m) @ t=0.06
6.8338443205183275
% es.Ez (V/m) @ t=0.06
8.192099065063967
% es.tEx (V/m) @ t=0.06
-8.517715118988615
% es.tEy (V/m) @ t=0.06
0
% es.tEz (V/m) @ t=0.06
8.192099065063957
% V (V) @ t=0.06
0.0056605723589225184
% es.normE (V/m) @ t=0.08
18.202952196001323
% es.EX (V/m) @ t=0.08
-8.596482779137283
% es.EY (V/m) @ t=0.08
6.89704036689341
% es.EZ (V/m) @ t=0.08
8.267855582795455
% es.tEX (V/m) @ t=0.08
-8.596482779137268
% es.tEY (V/m) @ t=0.08
0
% es.tEZ (V/m) @ t=0.08
8.267855582795448
% es.Ex (V/m) @ t=0.08
-8.596482779137283
% es.Ey (V/m) @ t=0.08
6.89704036689341
% es.Ez (V/m) @ t=0.08
8.267855582795455
% es.tEx (V/m) @ t=0.08
-8.596482779137268
% es.tEy (V/m) @ t=0.08
0
% es.tEz (V/m) @ t=0.08
8.267855582795448
% V (V) @ t=0.08
0.0057129185601271035
% es.normE (V/m) @ t=0.1
18.37168252360034
% es.EX (V/m) @ t=0.1
-8.676166633216006
% es.EY (V/m) @ t=0.1
6.960971635277655
% es.EZ (V/m) @ t=0.1
8.34449410243704
% es.tEX (V/m) @ t=0.1
-8.67616663321601
% es.tEY (V/m) @ t=0.1
0
% es.tEZ (V/m) @ t=0.1
8.34449410243704
% es.Ex (V/m) @ t=0.1
-8.676166633216006
% es.Ey (V/m) @ t=0.1
6.960971635277655
% es.Ez (V/m) @ t=0.1
8.34449410243704
% es.tEx (V/m) @ t=0.1
-8.67616663321601
% es.tEy (V/m) @ t=0.1
0
% es.tEz (V/m) @ t=0.1
8.34449410243704
% V (V) @ t=0.1
0.005765873846941761
% es.normE (V/m) @ t=0.12
18.540412851199388
% es.EX (V/m) @ t=0.12
-8.755850487294722
% es.EY (V/m) @ t=0.12
7.024902903661971
% es.EZ (V/m) @ t=0.12
8.421132622078595
% es.tEX (V/m) @ t=0.12
-8.755850487294737
% es.tEY (V/m) @ t=0.12
0
% es.tEZ (V/m) @ t=0.12
8.421132622078574
% es.Ex (V/m) @ t=0.12
-8.755850487294722
% es.Ey (V/m) @ t=0.12
7.024902903661971
% es.Ez (V/m) @ t=0.12
8.421132622078595
% es.tEx (V/m) @ t=0.12
-8.755850487294737
% es.tEy (V/m) @ t=0.12
0
% es.tEz (V/m) @ t=0.12
8.421132622078574
% V (V) @ t=0.12
0.005818829133756419
% es.normE (V/m) @ t=0.14
18.710143303234425
% es.EX (V/m) @ t=0.14
-8.836006927584059
% es.EY (V/m) @ t=0.14
7.089213208965258
% es.EZ (V/m) @ t=0.14
8.498224980034994
% es.tEX (V/m) @ t=0.14
-8.836006927584066
% es.tEY (V/m) @ t=0.14
0
% es.tEZ (V/m) @ t=0.14
8.498224980034962
% es.Ex (V/m) @ t=0.14
-8.836006927584059
% es.Ey (V/m) @ t=0.14
7.089213208965258
% es.Ez (V/m) @ t=0.14
8.498224980034994
% es.tEx (V/m) @ t=0.14
-8.836006927584066
% es.tEy (V/m) @ t=0.14
0
% es.tEz (V/m) @ t=0.14
8.498224980034962
% V (V) @ t=0.14
0.005872098308654961
% es.normE (V/m) @ t=0.16
18.88796706476581
% es.EX (V/m) @ t=0.16
-8.919987678457716
% es.EY (V/m) @ t=0.16
7.156590795684153
% es.EZ (V/m) @ t=0.16
8.578989934931126
% es.tEX (V/m) @ t=0.16
-8.919987678457694
% es.tEY (V/m) @ t=0.16
0
% es.tEZ (V/m) @ t=0.16
8.578989934931144
% es.Ex (V/m) @ t=0.16
-8.919987678457716
% es.Ey (V/m) @ t=0.16
7.156590795684153
% es.Ez (V/m) @ t=0.16
8.578989934931126
% es.tEx (V/m) @ t=0.16
-8.919987678457694
% es.tEy (V/m) @ t=0.16
0
% es.tEz (V/m) @ t=0.16
8.578989934931144
% V (V) @ t=0.16
0.005927907560886328
% es.normE (V/m) @ t=0.18
19.065790826298077
% es.EX (V/m) @ t=0.18
-9.003968429331373
% es.EY (V/m) @ t=0.18
7.223968382403076
% es.EZ (V/m) @ t=0.18
8.659754889827244
% es.tEX (V/m) @ t=0.18
-9.003968429331366
% es.tEY (V/m) @ t=0.18
0
% es.tEZ (V/m) @ t=0.18
8.659754889827212
% es.Ex (V/m) @ t=0.18
-9.003968429331373
% es.Ey (V/m) @ t=0.18
7.223968382403076
% es.Ez (V/m) @ t=0.18
8.659754889827244
% es.tEx (V/m) @ t=0.18
-9.003968429331366
% es.tEy (V/m) @ t=0.18
0
% es.tEz (V/m) @ t=0.18
8.659754889827212
% V (V) @ t=0.18
0.005983716813117696
% es.normE (V/m) @ t=0.2
19.243614587831168
% es.EX (V/m) @ t=0.2
-9.08794918020498
% es.EY (V/m) @ t=0.2
7.291345969121998
% es.EZ (V/m) @ t=0.2
8.740519844723345
% es.tEX (V/m) @ t=0.2
-9.087949180204983
% es.tEY (V/m) @ t=0.2
0
% es.tEZ (V/m) @ t=0.2
8.740519844723337
% es.Ex (V/m) @ t=0.2
-9.08794918020498
% es.Ey (V/m) @ t=0.2
7.291345969121998
% es.Ez (V/m) @ t=0.2
8.740519844723345
% es.tEx (V/m) @ t=0.2
-9.087949180204983
% es.tEy (V/m) @ t=0.2
0
% es.tEz (V/m) @ t=0.2
8.740519844723337
% V (V) @ t=0.2
0.006039526065349062
% es.normE (V/m) @ t=0.22
19.42143834936514
% es.EX (V/m) @ t=0.22
-9.171929931078644
% es.EY (V/m) @ t=0.22
7.358723555840879
% es.EZ (V/m) @ t=0.22
8.82128479961947
% es.tEX (V/m) @ t=0.22
-9.171929931078626
% es.tEY (V/m) @ t=0.22
0
% es.tEZ (V/m) @ t=0.22
8.821284799619491
% es.Ex (V/m) @ t=0.22
-9.171929931078644
% es.Ey (V/m) @ t=0.22
7.358723555840879
% es.Ez (V/m) @ t=0.22
8.82128479961947
% es.tEx (V/m) @ t=0.22
-9.171929931078626
% es.tEy (V/m) @ t=0.22
0
% es.tEz (V/m) @ t=0.22
8.821284799619491
% V (V) @ t=0.22
0.0060953353175804284
% es.normE (V/m) @ t=0.24
19.599262110899954
% es.EX (V/m) @ t=0.24
-9.255910681952294
% es.EY (V/m) @ t=0.24
7.426101142559819
% es.EZ (V/m) @ t=0.24
8.902049754515609
% es.tEX (V/m) @ t=0.24
-9.255910681952308
% es.tEY (V/m) @ t=0.24
0
% es.tEZ (V/m) @ t=0.24
8.902049754515616
% es.Ex (V/m) @ t=0.24
-9.255910681952294
% es.Ey (V/m) @ t=0.24
7.426101142559819
% es.Ez (V/m) @ t=0.24
8.902049754515609
% es.tEx (V/m) @ t=0.24
-9.255910681952308
% es.tEy (V/m) @ t=0.24
0
% es.tEz (V/m) @ t=0.24
8.902049754515616
% V (V) @ t=0.24
0.006151144569811797
% es.normE (V/m) @ t=0.26
19.777085872435496
% es.EX (V/m) @ t=0.26
-9.339891432825922
% es.EY (V/m) @ t=0.26
7.493478729278706
% es.EZ (V/m) @ t=0.26
8.982814709411716
% es.tEX (V/m) @ t=0.26
-9.339891432825919
% es.tEY (V/m) @ t=0.26
0
% es.tEZ (V/m) @ t=0.26
8.982814709411713
% es.Ex (V/m) @ t=0.26
-9.339891432825922
% es.Ey (V/m) @ t=0.26
7.493478729278706
% es.Ez (V/m) @ t=0.26
8.982814709411716
% es.tEx (V/m) @ t=0.26
-9.339891432825919
% es.tEy (V/m) @ t=0.26
0
% es.tEz (V/m) @ t=0.26
8.982814709411713
% V (V) @ t=0.26
0.006206953822043163
% es.normE (V/m) @ t=0.28
19.959656175160468
% es.EX (V/m) @ t=0.28
-9.426111312113342
% es.EY (V/m) @ t=0.28
7.562653918677789
% es.EZ (V/m) @ t=0.28
9.065739424586564
% es.tEX (V/m) @ t=0.28
-9.426111312113349
% es.tEY (V/m) @ t=0.28
0
% es.tEZ (V/m) @ t=0.28
9.065739424586553
% es.Ex (V/m) @ t=0.28
-9.426111312113342
% es.Ey (V/m) @ t=0.28
7.562653918677789
% es.Ez (V/m) @ t=0.28
9.065739424586564
% es.tEx (V/m) @ t=0.28
-9.426111312113349
% es.tEy (V/m) @ t=0.28
0
% es.tEz (V/m) @ t=0.28
9.065739424586553
% V (V) @ t=0.28
0.006264252720115009
% es.normE (V/m) @ t=0.3
20.158113096431286
% es.EX (V/m) @ t=0.3
-9.519825528340185
% es.EY (V/m) @ t=0.3
7.63784566348566
% es.EZ (V/m) @ t=0.3
9.155892832469583
% es.tEX (V/m) @ t=0.3
-9.51982552834017
% es.tEY (V/m) @ t=0.3
0
% es.tEZ (V/m) @ t=0.3
9.15589283246959
% es.Ex (V/m) @ t=0.3
-9.519825528340185
% es.Ey (V/m) @ t=0.3
7.63784566348566
% es.Ez (V/m) @ t=0.3
9.155892832469583
% es.tEx (V/m) @ t=0.3
-9.51982552834017
% es.tEy (V/m) @ t=0.3
0
% es.tEz (V/m) @ t=0.3
9.15589283246959
% V (V) @ t=0.3
0.006326537445609869
% es.normE (V/m) @ t=0.32
20.356570017715875
% es.EX (V/m) @ t=0.32
-9.613539744566992
% es.EY (V/m) @ t=0.32
7.71303740829347
% es.EZ (V/m) @ t=0.32
9.246046240352566
% es.tEX (V/m) @ t=0.32
-9.613539744567
% es.tEY (V/m) @ t=0.32
0
% es.tEZ (V/m) @ t=0.32
9.24604624035257
% es.Ex (V/m) @ t=0.32
-9.613539744566992
% es.Ey (V/m) @ t=0.32
7.71303740829347
% es.Ez (V/m) @ t=0.32
9.246046240352566
% es.tEx (V/m) @ t=0.32
-9.613539744567
% es.tEy (V/m) @ t=0.32
0
% es.tEz (V/m) @ t=0.32
9.24604624035257
% V (V) @ t=0.32
0.006388822171104728
% es.normE (V/m) @ t=0.34
20.555026939013896
% es.EX (V/m) @ t=0.34
-9.707253960793835
% es.EY (V/m) @ t=0.34
7.788229153101337
% es.EZ (V/m) @ t=0.34
9.336199648235581
% es.tEX (V/m) @ t=0.34
-9.707253960793835
% es.tEY (V/m) @ t=0.34
0
% es.tEZ (V/m) @ t=0.34
9.33619964823555
% es.Ex (V/m) @ t=0.34
-9.707253960793835
% es.Ey (V/m) @ t=0.34
7.788229153101337
% es.Ez (V/m) @ t=0.34
9.336199648235581
% es.tEx (V/m) @ t=0.34
-9.707253960793835
% es.tEy (V/m) @ t=0.34
0
% es.tEz (V/m) @ t=0.34
9.33619964823555
% V (V) @ t=0.34
0.0064511068965995896
% es.normE (V/m) @ t=0.36
20.753483860324938
% es.EX (V/m) @ t=0.36
-9.800968177020671
% es.EY (V/m) @ t=0.36
7.8634208979091085
% es.EZ (V/m) @ t=0.36
9.42635305611861
% es.tEX (V/m) @ t=0.36
-9.800968177020657
% es.tEY (V/m) @ t=0.36
0
% es.tEZ (V/m) @ t=0.36
9.426353056118614
% es.Ex (V/m) @ t=0.36
-9.800968177020671
% es.Ey (V/m) @ t=0.36
7.8634208979091085
% es.Ez (V/m) @ t=0.36
9.42635305611861
% es.tEx (V/m) @ t=0.36
-9.800968177020657
% es.tEy (V/m) @ t=0.36
0
% es.tEz (V/m) @ t=0.36
9.426353056118614
% V (V) @ t=0.36
0.006513391622094449
% es.normE (V/m) @ t=0.38
20.95194078164865
% es.EX (V/m) @ t=0.38
-9.894682393247514
% es.EY (V/m) @ t=0.38
7.9386126427169685
% es.EZ (V/m) @ t=0.38
9.516506464001612
% es.tEX (V/m) @ t=0.38
-9.894682393247507
% es.tEY (V/m) @ t=0.38
0
% es.tEZ (V/m) @ t=0.38
9.516506464001623
% es.Ex (V/m) @ t=0.38
-9.894682393247514
% es.Ey (V/m) @ t=0.38
7.9386126427169685
% es.Ez (V/m) @ t=0.38
9.516506464001612
% es.tEx (V/m) @ t=0.38
-9.894682393247507
% es.tEy (V/m) @ t=0.38
0
% es.tEz (V/m) @ t=0.38
9.516506464001623
% V (V) @ t=0.38
0.0065756763475893105
% es.normE (V/m) @ t=0.4
21.150397702984673
% es.EX (V/m) @ t=0.4
-9.988396609474378
% es.EY (V/m) @ t=0.4
8.0138043875248
% es.EZ (V/m) @ t=0.4
9.606659871884641
% es.tEX (V/m) @ t=0.4
-9.988396609474368
% es.tEY (V/m) @ t=0.4
0
% es.tEZ (V/m) @ t=0.4
9.60665987188466
% es.Ex (V/m) @ t=0.4
-9.988396609474378
% es.Ey (V/m) @ t=0.4
8.0138043875248
% es.Ez (V/m) @ t=0.4
9.606659871884641
% es.tEx (V/m) @ t=0.4
-9.988396609474368
% es.tEy (V/m) @ t=0.4
0
% es.tEz (V/m) @ t=0.4
9.60665987188466
% V (V) @ t=0.4
0.00663796107308417
% es.normE (V/m) @ t=0.42
21.348854624332596
% es.EX (V/m) @ t=0.42
-10.082110825701207
% es.EY (V/m) @ t=0.42
8.088996132332603
% es.EZ (V/m) @ t=0.42
9.696813279767653
% es.tEX (V/m) @ t=0.42
-10.082110825701207
% es.tEY (V/m) @ t=0.42
0
% es.tEZ (V/m) @ t=0.42
9.696813279767639
% es.Ex (V/m) @ t=0.42
-10.082110825701207
% es.Ey (V/m) @ t=0.42
8.088996132332603
% es.Ez (V/m) @ t=0.42
9.696813279767653
% es.tEx (V/m) @ t=0.42
-10.082110825701207
% es.tEy (V/m) @ t=0.42
0
% es.tEz (V/m) @ t=0.42
9.696813279767639
% V (V) @ t=0.42
0.006700245798579031
% es.normE (V/m) @ t=0.44
21.54731154569212
% es.EX (V/m) @ t=0.44
-10.175825041928029
% es.EY (V/m) @ t=0.44
8.164187877140435
% es.EZ (V/m) @ t=0.44
9.78696668765064
% es.tEX (V/m) @ t=0.44
-10.175825041928029
% es.tEY (V/m) @ t=0.44
0
% es.tEZ (V/m) @ t=0.44
9.786966687650647
% es.Ex (V/m) @ t=0.44
-10.175825041928029
% es.Ey (V/m) @ t=0.44
8.164187877140435
% es.Ez (V/m) @ t=0.44
9.78696668765064
% es.tEx (V/m) @ t=0.44
-10.175825041928029
% es.tEy (V/m) @ t=0.44
0
% es.tEz (V/m) @ t=0.44
9.786966687650647
% V (V) @ t=0.44
0.006762530524073891
% es.normE (V/m) @ t=0.46
21.745768467063016
% es.EX (V/m) @ t=0.46
-10.269539258154865
% es.EY (V/m) @ t=0.46
8.239379621948292
% es.EZ (V/m) @ t=0.46
9.87712009553367
% es.tEX (V/m) @ t=0.46
-10.269539258154854
% es.tEY (V/m) @ t=0.46
0
% es.tEZ (V/m) @ t=0.46
9.877120095533684
% es.Ex (V/m) @ t=0.46
-10.269539258154865
% es.Ey (V/m) @ t=0.46
8.239379621948292
% es.Ez (V/m) @ t=0.46
9.87712009553367
% es.tEx (V/m) @ t=0.46
-10.269539258154854
% es.tEy (V/m) @ t=0.46
0
% es.tEz (V/m) @ t=0.46
9.877120095533684
% V (V) @ t=0.46
0.006824815249568751
% es.normE (V/m) @ t=0.48
21.944225388444902
% es.EX (V/m) @ t=0.48
-10.363253474381743
% es.EY (V/m) @ t=0.48
8.314571366756091
% es.EZ (V/m) @ t=0.48
9.96727350341667
% es.tEX (V/m) @ t=0.48
-10.363253474381736
% es.tEY (V/m) @ t=0.48
0
% es.tEZ (V/m) @ t=0.48
9.967273503416664
% es.Ex (V/m) @ t=0.48
-10.363253474381743
% es.Ey (V/m) @ t=0.48
8.314571366756091
% es.Ez (V/m) @ t=0.48
9.96727350341667
% es.tEx (V/m) @ t=0.48
-10.363253474381736
% es.tEy (V/m) @ t=0.48
0
% es.tEz (V/m) @ t=0.48
9.967273503416664
% V (V) @ t=0.48
0.006887099975063612
% es.normE (V/m) @ t=0.5
22.142682309837447
% es.EX (V/m) @ t=0.5
-10.456967690608536
% es.EY (V/m) @ t=0.5
8.389763111563958
% es.EZ (V/m) @ t=0.5
10.057426911299672
% es.tEX (V/m) @ t=0.5
-10.45696769060853
% es.tEY (V/m) @ t=0.5
0
% es.tEZ (V/m) @ t=0.5
10.057426911299672
% es.Ex (V/m) @ t=0.5
-10.456967690608536
% es.Ey (V/m) @ t=0.5
8.389763111563958
% es.Ez (V/m) @ t=0.5
10.057426911299672
% es.tEx (V/m) @ t=0.5
-10.45696769060853
% es.tEy (V/m) @ t=0.5
0
% es.tEz (V/m) @ t=0.5
10.057426911299672
% V (V) @ t=0.5
0.006949384700558473
% es.normE (V/m) @ t=0.52
22.34113923124044
% es.EX (V/m) @ t=0.52
-10.550681906835365
% es.EY (V/m) @ t=0.52
8.46495485637179
% es.EZ (V/m) @ t=0.52
10.147580319182683
% es.tEX (V/m) @ t=0.52
-10.550681906835365
% es.tEY (V/m) @ t=0.52
0
% es.tEZ (V/m) @ t=0.52
10.147580319182651
% es.Ex (V/m) @ t=0.52
-10.550681906835365
% es.Ey (V/m) @ t=0.52
8.46495485637179
% es.Ez (V/m) @ t=0.52
10.147580319182683
% es.tEx (V/m) @ t=0.52
-10.550681906835365
% es.tEy (V/m) @ t=0.52
0
% es.tEz (V/m) @ t=0.52
10.147580319182651
% V (V) @ t=0.52
0.007011669426053333
% es.normE (V/m) @ t=0.54
22.5395961526535
% es.EX (V/m) @ t=0.54
-10.644396123062187
% es.EY (V/m) @ t=0.54
8.540146601179558
% es.EZ (V/m) @ t=0.54
10.237733727065642
% es.tEX (V/m) @ t=0.54
-10.644396123062183
% es.tEY (V/m) @ t=0.54
0
% es.tEZ (V/m) @ t=0.54
10.23773372706566
% es.Ex (V/m) @ t=0.54
-10.644396123062187
% es.Ey (V/m) @ t=0.54
8.540146601179558
% es.Ez (V/m) @ t=0.54
10.237733727065642
% es.tEx (V/m) @ t=0.54
-10.644396123062183
% es.tEy (V/m) @ t=0.54
0
% es.tEz (V/m) @ t=0.54
10.23773372706566
% V (V) @ t=0.54
0.007073954151548193
% es.normE (V/m) @ t=0.56
22.749106248285052
% es.EX (V/m) @ t=0.56
-10.743320691770677
% es.EY (V/m) @ t=0.56
8.6195230464611
% es.EZ (V/m) @ t=0.56
10.332922511954255
% es.tEX (V/m) @ t=0.56
-10.743320691770684
% es.tEY (V/m) @ t=0.56
0
% es.tEZ (V/m) @ t=0.56
10.33292251195428
% es.Ex (V/m) @ t=0.56
-10.743320691770677
% es.Ey (V/m) @ t=0.56
8.6195230464611
% es.Ez (V/m) @ t=0.56
10.332922511954255
% es.tEx (V/m) @ t=0.56
-10.743320691770684
% es.tEy (V/m) @ t=0.56
0
% es.tEz (V/m) @ t=0.56
10.33292251195428
% V (V) @ t=0.56
0.007139707771527034
% es.normE (V/m) @ t=0.58
22.97107222480423
% es.EX (V/m) @ t=0.58
-10.848116834397253
% es.EY (V/m) @ t=0.58
8.703615252959036
% es.EZ (V/m) @ t=0.58
10.433785689966616
% es.tEX (V/m) @ t=0.58
-10.848116834397242
% es.tEY (V/m) @ t=0.58
0
% es.tEZ (V/m) @ t=0.58
10.43378568996664
% es.Ex (V/m) @ t=0.58
-10.848116834397253
% es.Ey (V/m) @ t=0.58
8.703615252959036
% es.Ez (V/m) @ t=0.58
10.433785689966616
% es.tEx (V/m) @ t=0.58
-10.848116834397242
% es.tEy (V/m) @ t=0.58
0
% es.tEz (V/m) @ t=0.58
10.43378568996664
% V (V) @ t=0.58
0.007209370507146087
% es.normE (V/m) @ t=0.6
23.193038201446907
% es.EX (V/m) @ t=0.6
-10.952912977023843
% es.EY (V/m) @ t=0.6
8.787707459456907
% es.EZ (V/m) @ t=0.6
10.534648867978962
% es.tEX (V/m) @ t=0.6
-10.952912977023857
% es.tEY (V/m) @ t=0.6
0
% es.tEZ (V/m) @ t=0.6
10.534648867978973
% es.Ex (V/m) @ t=0.6
-10.952912977023843
% es.Ey (V/m) @ t=0.6
8.787707459456907
% es.Ez (V/m) @ t=0.6
10.534648867978962
% es.tEx (V/m) @ t=0.6
-10.952912977023857
% es.tEy (V/m) @ t=0.6
0
% es.tEz (V/m) @ t=0.6
10.534648867978973
% V (V) @ t=0.6
0.0072790332427651394
% es.normE (V/m) @ t=0.62
23.415004178209678
% es.EX (V/m) @ t=0.62
-11.057709119650461
% es.EY (V/m) @ t=0.62
8.8717996659548
% es.EZ (V/m) @ t=0.62
10.63551204599132
% es.tEX (V/m) @ t=0.62
-11.057709119650454
% es.tEY (V/m) @ t=0.62
0
% es.tEZ (V/m) @ t=0.62
10.635512045991305
% es.Ex (V/m) @ t=0.62
-11.057709119650461
% es.Ey (V/m) @ t=0.62
8.8717996659548
% es.Ez (V/m) @ t=0.62
10.63551204599132
% es.tEx (V/m) @ t=0.62
-11.057709119650454
% es.tEy (V/m) @ t=0.62
0
% es.tEz (V/m) @ t=0.62
10.635512045991305
% V (V) @ t=0.62
0.007348695978384193
% es.normE (V/m) @ t=0.64
23.63697015508911
% es.EX (V/m) @ t=0.64
-11.162505262277072
% es.EY (V/m) @ t=0.64
8.955891872452717
% es.EZ (V/m) @ t=0.64
10.736375224003648
% es.tEX (V/m) @ t=0.64
-11.162505262277072
% es.tEY (V/m) @ t=0.64
0
% es.tEZ (V/m) @ t=0.64
10.736375224003638
% es.Ex (V/m) @ t=0.64
-11.162505262277072
% es.Ey (V/m) @ t=0.64
8.955891872452717
% es.Ez (V/m) @ t=0.64
10.736375224003648
% es.tEx (V/m) @ t=0.64
-11.162505262277072
% es.tEy (V/m) @ t=0.64
0
% es.tEz (V/m) @ t=0.64
10.736375224003638
% V (V) @ t=0.64
0.007418358714003247
% es.normE (V/m) @ t=0.66
23.858936132081958
% es.EX (V/m) @ t=0.66
-11.267301404903662
% es.EY (V/m) @ t=0.66
9.039984078950592
% es.EZ (V/m) @ t=0.66
10.837238402015977
% es.tEX (V/m) @ t=0.66
-11.267301404903641
% es.tEY (V/m) @ t=0.66
0
% es.tEZ (V/m) @ t=0.66
10.83723840201597
% es.Ex (V/m) @ t=0.66
-11.267301404903662
% es.Ey (V/m) @ t=0.66
9.039984078950592
% es.Ez (V/m) @ t=0.66
10.837238402015977
% es.tEx (V/m) @ t=0.66
-11.267301404903641
% es.tEy (V/m) @ t=0.66
0
% es.tEz (V/m) @ t=0.66
10.83723840201597
% V (V) @ t=0.66
0.007488021449622301
% es.normE (V/m) @ t=0.68
24.08090210918507
% es.EX (V/m) @ t=0.68
-11.372097547530288
% es.EY (V/m) @ t=0.68
9.12407628544852
% es.EZ (V/m) @ t=0.68
10.938101580028363
% es.tEX (V/m) @ t=0.68
-11.372097547530288
% es.tEY (V/m) @ t=0.68
0
% es.tEZ (V/m) @ t=0.68
10.93810158002833
% es.Ex (V/m) @ t=0.68
-11.372097547530288
% es.Ey (V/m) @ t=0.68
9.12407628544852
% es.Ez (V/m) @ t=0.68
10.938101580028363
% es.tEx (V/m) @ t=0.68
-11.372097547530288
% es.tEy (V/m) @ t=0.68
0
% es.tEz (V/m) @ t=0.68
10.93810158002833
% V (V) @ t=0.68
0.007557684185241354
% es.normE (V/m) @ t=0.7
24.302868086395414
% es.EX (V/m) @ t=0.7
-11.476893690156857
% es.EY (V/m) @ t=0.7
9.208168491946413
% es.EZ (V/m) @ t=0.7
11.038964758040695
% es.tEX (V/m) @ t=0.7
-11.476893690156853
% es.tEY (V/m) @ t=0.7
0
% es.tEZ (V/m) @ t=0.7
11.038964758040692
% es.Ex (V/m) @ t=0.7
-11.476893690156857
% es.Ey (V/m) @ t=0.7
9.208168491946413
% es.Ez (V/m) @ t=0.7
11.038964758040695
% es.tEx (V/m) @ t=0.7
-11.476893690156853
% es.tEy (V/m) @ t=0.7
0
% es.tEz (V/m) @ t=0.7
11.038964758040692
% V (V) @ t=0.7
0.007627346920860407
% es.normE (V/m) @ t=0.72
24.524834063710102
% es.EX (V/m) @ t=0.72
-11.58168983278346
% es.EY (V/m) @ t=0.72
9.292260698444295
% es.EZ (V/m) @ t=0.72
11.139827936053027
% es.tEX (V/m) @ t=0.72
-11.581689832783457
% es.tEY (V/m) @ t=0.72
0
% es.tEZ (V/m) @ t=0.72
11.139827936053024
% es.Ex (V/m) @ t=0.72
-11.58168983278346
% es.Ey (V/m) @ t=0.72
9.292260698444295
% es.Ez (V/m) @ t=0.72
11.139827936053027
% es.tEx (V/m) @ t=0.72
-11.581689832783457
% es.tEy (V/m) @ t=0.72
0
% es.tEz (V/m) @ t=0.72
11.139827936053024
% V (V) @ t=0.72
0.007697009656479459
% es.normE (V/m) @ t=0.74
24.7468000411264
% es.EX (V/m) @ t=0.74
-11.686485975410108
% es.EY (V/m) @ t=0.74
9.37635290494222
% es.EZ (V/m) @ t=0.74
11.240691114065427
% es.tEX (V/m) @ t=0.74
-11.686485975410108
% es.tEY (V/m) @ t=0.74
0
% es.tEZ (V/m) @ t=0.74
11.240691114065413
% es.Ex (V/m) @ t=0.74
-11.686485975410108
% es.Ey (V/m) @ t=0.74
9.37635290494222
% es.Ez (V/m) @ t=0.74
11.240691114065427
% es.tEx (V/m) @ t=0.74
-11.686485975410108
% es.tEy (V/m) @ t=0.74
0
% es.tEz (V/m) @ t=0.74
11.240691114065413
% V (V) @ t=0.74
0.007766672392098514
% es.normE (V/m) @ t=0.76
24.968766018641396
% es.EX (V/m) @ t=0.76
-11.791282118036676
% es.EY (V/m) @ t=0.76
9.460445111440126
% es.EZ (V/m) @ t=0.76
11.341554292077731
% es.tEX (V/m) @ t=0.76
-11.791282118036662
% es.tEY (V/m) @ t=0.76
0
% es.tEZ (V/m) @ t=0.76
11.341554292077717
% es.Ex (V/m) @ t=0.76
-11.791282118036676
% es.Ey (V/m) @ t=0.76
9.460445111440126
% es.Ez (V/m) @ t=0.76
11.341554292077731
% es.tEx (V/m) @ t=0.76
-11.791282118036662
% es.tEy (V/m) @ t=0.76
0
% es.tEz (V/m) @ t=0.76
11.341554292077717
% V (V) @ t=0.76
0.007836335127717566
% es.normE (V/m) @ t=0.78
25.190731996252637
% es.EX (V/m) @ t=0.78
-11.896078260663245
% es.EY (V/m) @ t=0.78
9.544537317938026
% es.EZ (V/m) @ t=0.78
11.442417470090074
% es.tEX (V/m) @ t=0.78
-11.896078260663227
% es.tEY (V/m) @ t=0.78
0
% es.tEZ (V/m) @ t=0.78
11.442417470090078
% es.Ex (V/m) @ t=0.78
-11.896078260663245
% es.Ey (V/m) @ t=0.78
9.544537317938026
% es.Ez (V/m) @ t=0.78
11.442417470090074
% es.tEx (V/m) @ t=0.78
-11.896078260663227
% es.tEy (V/m) @ t=0.78
0
% es.tEz (V/m) @ t=0.78
11.442417470090078
% V (V) @ t=0.78
0.007905997863336619
% es.normE (V/m) @ t=0.8
25.41269797395759
% es.EX (V/m) @ t=0.8
-12.000874403289842
% es.EY (V/m) @ t=0.8
9.628629524435905
% es.EZ (V/m) @ t=0.8
11.543280648102435
% es.tEX (V/m) @ t=0.8
-12.000874403289842
% es.tEY (V/m) @ t=0.8
0
% es.tEZ (V/m) @ t=0.8
11.543280648102439
% es.Ex (V/m) @ t=0.8
-12.000874403289842
% es.Ey (V/m) @ t=0.8
9.628629524435905
% es.Ez (V/m) @ t=0.8
11.543280648102435
% es.tEx (V/m) @ t=0.8
-12.000874403289842
% es.tEy (V/m) @ t=0.8
0
% es.tEz (V/m) @ t=0.8
11.543280648102439
% V (V) @ t=0.8
0.007975660598955672
% es.normE (V/m) @ t=0.82
25.634663951753808
% es.EX (V/m) @ t=0.82
-12.105670545916439
% es.EY (V/m) @ t=0.82
9.712721730933861
% es.EZ (V/m) @ t=0.82
11.644143826114739
% es.tEX (V/m) @ t=0.82
-12.105670545916453
% es.tEY (V/m) @ t=0.82
0
% es.tEZ (V/m) @ t=0.82
11.644143826114743
% es.Ex (V/m) @ t=0.82
-12.105670545916439
% es.Ey (V/m) @ t=0.82
9.712721730933861
% es.Ez (V/m) @ t=0.82
11.644143826114739
% es.tEx (V/m) @ t=0.82
-12.105670545916453
% es.tEy (V/m) @ t=0.82
0
% es.tEz (V/m) @ t=0.82
11.644143826114743
% V (V) @ t=0.82
0.008045323334574726
% es.normE (V/m) @ t=0.84
25.874773113776506
% es.EX (V/m) @ t=0.84
-12.21911145135077
% es.EY (V/m) @ t=0.84
9.803714693979739
% es.EZ (V/m) @ t=0.84
11.753127974320154
% es.tEX (V/m) @ t=0.84
-12.219111451350763
% es.tEY (V/m) @ t=0.84
0
% es.tEZ (V/m) @ t=0.84
11.753127974320165
% es.Ex (V/m) @ t=0.84
-12.21911145135077
% es.Ey (V/m) @ t=0.84
9.803714693979739
% es.Ez (V/m) @ t=0.84
11.753127974320154
% es.tEx (V/m) @ t=0.84
-12.219111451350763
% es.tEy (V/m) @ t=0.84
0
% es.tEz (V/m) @ t=0.84
11.753127974320165
% V (V) @ t=0.84
0.008120681177089122
% es.normE (V/m) @ t=0.86
26.122282474708705
% es.EX (V/m) @ t=0.86
-12.336078361722194
% es.EY (V/m) @ t=0.86
9.897522320909342
% es.EZ (V/m) @ t=0.86
11.8654244841984
% es.tEX (V/m) @ t=0.86
-12.336078361722194
% es.tEY (V/m) @ t=0.86
0
% es.tEZ (V/m) @ t=0.86
11.865424484198371
% es.Ex (V/m) @ t=0.86
-12.336078361722194
% es.Ey (V/m) @ t=0.86
9.897522320909342
% es.Ez (V/m) @ t=0.86
11.8654244841984
% es.tEx (V/m) @ t=0.86
-12.336078361722194
% es.tEy (V/m) @ t=0.86
0
% es.tEz (V/m) @ t=0.86
11.865424484198371
% V (V) @ t=0.86
0.008198361926024099
% es.normE (V/m) @ t=0.88
26.369791836609622
% es.EX (V/m) @ t=0.88
-12.453045272093583
% es.EY (V/m) @ t=0.88
9.991329947838903
% es.EZ (V/m) @ t=0.88
11.977720994076549
% es.tEX (V/m) @ t=0.88
-12.453045272093583
% es.tEY (V/m) @ t=0.88
0
% es.tEZ (V/m) @ t=0.88
11.977720994076577
% es.Ex (V/m) @ t=0.88
-12.453045272093583
% es.Ey (V/m) @ t=0.88
9.991329947838903
% es.Ez (V/m) @ t=0.88
11.977720994076549
% es.tEx (V/m) @ t=0.88
-12.453045272093583
% es.tEy (V/m) @ t=0.88
0
% es.tEz (V/m) @ t=0.88
11.977720994076577
% V (V) @ t=0.88
0.008276042674959072
% es.normE (V/m) @ t=0.9
26.617301199452363
% es.EX (V/m) @ t=0.9
-12.570012182465021
% es.EY (V/m) @ t=0.9
10.085137574768492
% es.EZ (V/m) @ t=0.9
12.09001750395478
% es.tEX (V/m) @ t=0.9
-12.570012182465014
% es.tEY (V/m) @ t=0.9
0
% es.tEZ (V/m) @ t=0.9
12.090017503954783
% es.Ex (V/m) @ t=0.9
-12.570012182465021
% es.Ey (V/m) @ t=0.9
10.085137574768492
% es.Ez (V/m) @ t=0.9
12.09001750395478
% es.tEx (V/m) @ t=0.9
-12.570012182465014
% es.tEy (V/m) @ t=0.9
0
% es.tEz (V/m) @ t=0.9
12.090017503954783
% V (V) @ t=0.9
0.008353723423894047
% es.normE (V/m) @ t=0.92
26.86481056321083
% es.EX (V/m) @ t=0.92
-12.686979092836381
% es.EY (V/m) @ t=0.92
10.178945201698113
% es.EZ (V/m) @ t=0.92
12.202314013833
% es.tEX (V/m) @ t=0.92
-12.686979092836395
% es.tEY (V/m) @ t=0.92
0
% es.tEZ (V/m) @ t=0.92
12.202314013833018
% es.Ex (V/m) @ t=0.92
-12.686979092836381
% es.Ey (V/m) @ t=0.92
10.178945201698113
% es.Ez (V/m) @ t=0.92
12.202314013833
% es.tEx (V/m) @ t=0.92
-12.686979092836395
% es.tEy (V/m) @ t=0.92
0
% es.tEz (V/m) @ t=0.92
12.202314013833018
% V (V) @ t=0.92
0.008431404172829022
% es.normE (V/m) @ t=0.94
27.112319927859968
% es.EX (V/m) @ t=0.94
-12.803946003207827
% es.EY (V/m) @ t=0.94
10.272752828627716
% es.EZ (V/m) @ t=0.94
12.314610523711245
% es.tEX (V/m) @ t=0.94
-12.803946003207827
% es.tEY (V/m) @ t=0.94
0
% es.tEZ (V/m) @ t=0.94
12.314610523711224
% es.Ex (V/m) @ t=0.94
-12.803946003207827
% es.Ey (V/m) @ t=0.94
10.272752828627716
% es.Ez (V/m) @ t=0.94
12.314610523711245
% es.tEx (V/m) @ t=0.94
-12.803946003207827
% es.tEy (V/m) @ t=0.94
0
% es.tEz (V/m) @ t=0.94
12.314610523711224
% V (V) @ t=0.94
0.008509084921763999
% es.normE (V/m) @ t=0.96
27.35982929337558
% es.EX (V/m) @ t=0.96
-12.920912913579272
% es.EY (V/m) @ t=0.96
10.366560455557316
% es.EZ (V/m) @ t=0.96
12.426907033589451
% es.tEX (V/m) @ t=0.96
-12.920912913579265
% es.tEY (V/m) @ t=0.96
0
% es.tEZ (V/m) @ t=0.96
12.426907033589458
% es.Ex (V/m) @ t=0.96
-12.920912913579272
% es.Ey (V/m) @ t=0.96
10.366560455557316
% es.Ez (V/m) @ t=0.96
12.426907033589451
% es.tEx (V/m) @ t=0.96
-12.920912913579265
% es.tEy (V/m) @ t=0.96
0
% es.tEz (V/m) @ t=0.96
12.426907033589458
% V (V) @ t=0.96
0.008586765670698972
% es.normE (V/m) @ t=0.98
27.60733865973439
% es.EX (V/m) @ t=0.98
-13.037879823950696
% es.EY (V/m) @ t=0.98
10.460368082486905
% es.EZ (V/m) @ t=0.98
12.539203543467682
% es.tEX (V/m) @ t=0.98
-13.037879823950696
% es.tEY (V/m) @ t=0.98
0
% es.tEZ (V/m) @ t=0.98
12.539203543467693
% es.Ex (V/m) @ t=0.98
-13.037879823950696
% es.Ey (V/m) @ t=0.98
10.460368082486905
% es.Ez (V/m) @ t=0.98
12.539203543467682
% es.tEx (V/m) @ t=0.98
-13.037879823950696
% es.tEy (V/m) @ t=0.98
0
% es.tEz (V/m) @ t=0.98
12.539203543467693
% V (V) @ t=0.98
0.008664446419633948
% es.normE (V/m) @ t=1
27.854848026913807
% es.EX (V/m) @ t=1
-13.154846734322106
% es.EY (V/m) @ t=1
10.55417570941648
% es.EZ (V/m) @ t=1
12.65150005334587
% es.tEX (V/m) @ t=1
-13.15484673432207
% es.tEY (V/m) @ t=1
0
% es.tEZ (V/m) @ t=1
12.65150005334587
% es.Ex (V/m) @ t=1
-13.154846734322106
% es.Ey (V/m) @ t=1
10.55417570941648
% es.Ez (V/m) @ t=1
12.65150005334587
% es.tEx (V/m) @ t=1
-13.15484673432207
% es.tEy (V/m) @ t=1
0
% es.tEz (V/m) @ t=1
12.65150005334587
% V (V) @ t=1
0.008742127168568923
% es.normE (V/m) @ t=1.02
28.1023573948923
% es.EX (V/m) @ t=1.02
-13.271813644693495
% es.EY (V/m) @ t=1.02
10.647983336346119
% es.EZ (V/m) @ t=1.02
12.763796563224108
% es.tEX (V/m) @ t=1.02
-13.271813644693502
% es.tEY (V/m) @ t=1.02
0
% es.tEZ (V/m) @ t=1.02
12.763796563224105
% es.Ex (V/m) @ t=1.02
-13.271813644693495
% es.Ey (V/m) @ t=1.02
10.647983336346119
% es.Ez (V/m) @ t=1.02
12.763796563224108
% es.tEx (V/m) @ t=1.02
-13.271813644693502
% es.tEy (V/m) @ t=1.02
0
% es.tEz (V/m) @ t=1.02
12.763796563224105
% V (V) @ t=1.02
0.008819807917503898
% es.normE (V/m) @ t=1.04
28.34986676364889
% es.EX (V/m) @ t=1.04
-13.388780555064933
% es.EY (V/m) @ t=1.04
10.74179096327568
% es.EZ (V/m) @ t=1.04
12.87609307310231
% es.tEX (V/m) @ t=1.04
-13.388780555064898
% es.tEY (V/m) @ t=1.04
0
% es.tEZ (V/m) @ t=1.04
12.87609307310231
% es.Ex (V/m) @ t=1.04
-13.388780555064933
% es.Ey (V/m) @ t=1.04
10.74179096327568
% es.Ez (V/m) @ t=1.04
12.87609307310231
% es.tEx (V/m) @ t=1.04
-13.388780555064898
% es.tEy (V/m) @ t=1.04
0
% es.tEz (V/m) @ t=1.04
12.87609307310231
% V (V) @ t=1.04
0.008897488666438873