% Model:              1 neuron.mph
% Version:            COMSOL 6.1.0.252
% Date:               Mar 18 2023, 11:34
% Dimension:          0
% Nodes:              14017
% Expressions:        14017
% Description:        Electric field norm, Electric field, X component, Electric field, Y component, Electric field, Z component, Tangential electric field, X component, Tangential electric field, Y component, Tangential electric field, Z component, Electric field, x component, Electric field, y component, Electric field, z component, Tangential electric field, x component, Tangential electric field, y component, Tangential electric field, z component, Electric potential
% Length unit:        mm
% x
1.66
% y
12.2
% z
2
% es.normE (V/m) @ t=0
1.4593441375135883
% es.EX (V/m) @ t=0
-0.4353505595103009
% es.EY (V/m) @ t=0
0.032519332505472204
% es.EZ (V/m) @ t=0
-1.390171701656857
% es.tEX (V/m) @ t=0
-0.43535055951030444
% es.tEY (V/m) @ t=0
0
% es.tEZ (V/m) @ t=0
-1.3901717016568718
% es.Ex (V/m) @ t=0
-0.4353505595103009
% es.Ey (V/m) @ t=0
0.032519332505472204
% es.Ez (V/m) @ t=0
-1.390171701656857
% es.tEx (V/m) @ t=0
-0.43535055951030444
% es.tEy (V/m) @ t=0
0
% es.tEz (V/m) @ t=0
-1.3901717016568718
% V (V) @ t=0
0.007335265069634216
% es.normE (V/m) @ t=0.02
1.2604487053530065
% es.EX (V/m) @ t=0.02
-0.3760162131689493
% es.EY (V/m) @ t=0.02
0.028087249303003478
% es.EZ (V/m) @ t=0.02
-1.2007038461648127
% es.tEX (V/m) @ t=0.02
-0.3760162131689526
% es.tEY (V/m) @ t=0.02
0
% es.tEZ (V/m) @ t=0.02
-1.20070384616483
% es.Ex (V/m) @ t=0.02
-0.3760162131689493
% es.Ey (V/m) @ t=0.02
0.028087249303003478
% es.Ez (V/m) @ t=0.02
-1.2007038461648127
% es.tEx (V/m) @ t=0.02
-0.3760162131689526
% es.tEy (V/m) @ t=0.02
0
% es.tEz (V/m) @ t=0.02
-1.20070384616483
% V (V) @ t=0.02
0.006335534384987061
% es.normE (V/m) @ t=0.04
1.2720397449588132
% es.EX (V/m) @ t=0.04
-0.3794740712742133
% es.EY (V/m) @ t=0.04
0.02834558406639049
% es.EZ (V/m) @ t=0.04
-1.2117454638181968
% es.tEX (V/m) @ t=0.04
-0.3794740712742133
% es.tEY (V/m) @ t=0.04
0
% es.tEZ (V/m) @ t=0.04
-1.2117454638182004
% es.Ex (V/m) @ t=0.04
-0.3794740712742133
% es.Ey (V/m) @ t=0.04
0.02834558406639049
% es.Ez (V/m) @ t=0.04
-1.2117454638181968
% es.tEx (V/m) @ t=0.04
-0.3794740712742133
% es.tEy (V/m) @ t=0.04
0
% es.tEz (V/m) @ t=0.04
-1.2117454638182004
% V (V) @ t=0.04
0.006393794227394281
% es.normE (V/m) @ t=0.06
1.2837378203458534
% es.EX (V/m) @ t=0.06
-0.3829638606269984
% es.EY (V/m) @ t=0.06
0.02860630409516636
% es.EZ (V/m) @ t=0.06
-1.2228890436712603
% es.tEX (V/m) @ t=0.06
-0.3829638606270045
% es.tEY (V/m) @ t=0.06
0
% es.tEZ (V/m) @ t=0.06
-1.222889043671279
% es.Ex (V/m) @ t=0.06
-0.3829638606269984
% es.Ey (V/m) @ t=0.06
0.02860630409516636
% es.Ez (V/m) @ t=0.06
-1.2228890436712603
% es.tEx (V/m) @ t=0.06
-0.3829638606270045
% es.tEy (V/m) @ t=0.06
0
% es.tEz (V/m) @ t=0.06
-1.222889043671279
% V (V) @ t=0.06
0.006452592065482945
% es.normE (V/m) @ t=0.08
1.2956083870878465
% es.EX (V/m) @ t=0.08
-0.38650510497242774
% es.EY (V/m) @ t=0.08
0.028870863432694446
% es.EZ (V/m) @ t=0.08
-1.2341969398300954
% es.tEX (V/m) @ t=0.08
-0.3865051049724322
% es.tEY (V/m) @ t=0.08
0
% es.tEZ (V/m) @ t=0.08
-1.2341969398301043
% es.Ex (V/m) @ t=0.08
-0.38650510497242774
% es.Ey (V/m) @ t=0.08
0.028870863432694446
% es.Ez (V/m) @ t=0.08
-1.2341969398300954
% es.tEx (V/m) @ t=0.08
-0.3865051049724322
% es.tEy (V/m) @ t=0.08
0
% es.tEz (V/m) @ t=0.08
-1.2341969398301043
% V (V) @ t=0.08
0.006512257059232293
% es.normE (V/m) @ t=0.1
1.3076112777762727
% es.EX (V/m) @ t=0.1
-0.39008582218125654
% es.EY (V/m) @ t=0.1
0.029138368033679696
% es.EZ (V/m) @ t=0.1
-1.2456308885789191
% es.tEX (V/m) @ t=0.1
-0.3900858221812591
% es.tEY (V/m) @ t=0.1
0
% es.tEZ (V/m) @ t=0.1
-1.2456308885789351
% es.Ex (V/m) @ t=0.1
-0.39008582218125654
% es.Ey (V/m) @ t=0.1
0.029138368033679696
% es.Ez (V/m) @ t=0.1
-1.2456308885789191
% es.tEx (V/m) @ t=0.1
-0.3900858221812591
% es.tEy (V/m) @ t=0.1
0
% es.tEz (V/m) @ t=0.1
-1.2456308885789351
% V (V) @ t=0.1
0.006572587277388102
% es.normE (V/m) @ t=0.12
1.3196141684647011
% es.EX (V/m) @ t=0.12
-0.39366653939008245
% es.EY (V/m) @ t=0.12
0.029405872634663197
% es.EZ (V/m) @ t=0.12
-1.2570648373277438
% es.tEX (V/m) @ t=0.12
-0.393666539390086
% es.tEY (V/m) @ t=0.12
0
% es.tEZ (V/m) @ t=0.12
-1.2570648373277589
% es.Ex (V/m) @ t=0.12
-0.39366653939008245
% es.Ey (V/m) @ t=0.12
0.029405872634663197
% es.Ez (V/m) @ t=0.12
-1.2570648373277438
% es.tEx (V/m) @ t=0.12
-0.393666539390086
% es.tEy (V/m) @ t=0.12
0
% es.tEz (V/m) @ t=0.12
-1.2570648373277589
% V (V) @ t=0.12
0.006632917495543912
% es.normE (V/m) @ t=0.14
1.3317085530094095
% es.EX (V/m) @ t=0.14
-0.3972745663598115
% es.EY (V/m) @ t=0.14
0.02967544246501498
% es.EZ (V/m) @ t=0.14
-1.2685859371630253
% es.tEX (V/m) @ t=0.14
-0.39727456635981895
% es.tEY (V/m) @ t=0.14
0
% es.tEZ (V/m) @ t=0.14
-1.2685859371630404
% es.Ex (V/m) @ t=0.14
-0.3972745663598115
% es.Ey (V/m) @ t=0.14
0.02967544246501498
% es.Ez (V/m) @ t=0.14
-1.2685859371630253
% es.tEx (V/m) @ t=0.14
-0.39727456635981895
% es.tEy (V/m) @ t=0.14
0
% es.tEz (V/m) @ t=0.14
-1.2685859371630404
% V (V) @ t=0.14
0.006693706734888289
% es.normE (V/m) @ t=0.16
1.344356640341609
% es.EX (V/m) @ t=0.16
-0.40104786662058356
% es.EY (V/m) @ t=0.16
0.029957510656426663
% es.EZ (V/m) @ t=0.16
-1.2806344581986315
% es.tEX (V/m) @ t=0.16
-0.401047866620587
% es.tEY (V/m) @ t=0.16
0
% es.tEZ (V/m) @ t=0.16
-1.2806344581986364
% es.Ex (V/m) @ t=0.16
-0.40104786662058356
% es.Ey (V/m) @ t=0.16
0.029957510656426663
% es.Ez (V/m) @ t=0.16
-1.2806344581986315
% es.tEx (V/m) @ t=0.16
-0.401047866620587
% es.tEy (V/m) @ t=0.16
0
% es.tEz (V/m) @ t=0.16
-1.2806344581986364
% V (V) @ t=0.16
0.006757273880006967
% es.normE (V/m) @ t=0.18
1.35700472767386
% es.EX (V/m) @ t=0.18
-0.4048211668813584
% es.EY (V/m) @ t=0.18
0.03023957884783543
% es.EZ (V/m) @ t=0.18
-1.2926829792342338
% es.tEX (V/m) @ t=0.18
-0.40482116688136216
% es.tEY (V/m) @ t=0.18
0
% es.tEZ (V/m) @ t=0.18
-1.2926829792342467
% es.Ex (V/m) @ t=0.18
-0.4048211668813584
% es.Ey (V/m) @ t=0.18
0.03023957884783543
% es.Ez (V/m) @ t=0.18
-1.2926829792342338
% es.tEx (V/m) @ t=0.18
-0.40482116688136216
% es.tEy (V/m) @ t=0.18
0
% es.tEz (V/m) @ t=0.18
-1.2926829792342467
% V (V) @ t=0.18
0.006820841025125644
% es.normE (V/m) @ t=0.2
1.3696528150061664
% es.EX (V/m) @ t=0.2
-0.4085944671421319
% es.EY (V/m) @ t=0.2
0.03052164703923632
% es.EZ (V/m) @ t=0.2
-1.3047315002698396
% es.tEX (V/m) @ t=0.2
-0.40859446714213377
% es.tEY (V/m) @ t=0.2
0
% es.tEZ (V/m) @ t=0.2
-1.3047315002698507
% es.Ex (V/m) @ t=0.2
-0.4085944671421319
% es.Ey (V/m) @ t=0.2
0.03052164703923632
% es.Ez (V/m) @ t=0.2
-1.3047315002698396
% es.tEx (V/m) @ t=0.2
-0.40859446714213377
% es.tEy (V/m) @ t=0.2
0
% es.tEz (V/m) @ t=0.2
-1.3047315002698507
% V (V) @ t=0.2
0.006884408170244322
% es.normE (V/m) @ t=0.22
1.382300902338525
% es.EX (V/m) @ t=0.22
-0.4123677674029045
% es.EY (V/m) @ t=0.22
0.030803715230654984
% es.EZ (V/m) @ t=0.22
-1.3167800213054455
% es.tEX (V/m) @ t=0.22
-0.4123677674029089
% es.tEY (V/m) @ t=0.22
0
% es.tEZ (V/m) @ t=0.22
-1.316780021305453
% es.Ex (V/m) @ t=0.22
-0.4123677674029045
% es.Ey (V/m) @ t=0.22
0.030803715230654984
% es.Ez (V/m) @ t=0.22
-1.3167800213054455
% es.tEx (V/m) @ t=0.22
-0.4123677674029089
% es.tEy (V/m) @ t=0.22
0
% es.tEz (V/m) @ t=0.22
-1.316780021305453
% V (V) @ t=0.22
0.006947975315363001
% es.normE (V/m) @ t=0.24
1.394948989670937
% es.EX (V/m) @ t=0.24
-0.4161410676636761
% es.EY (V/m) @ t=0.24
0.03108578342206999
% es.EZ (V/m) @ t=0.24
-1.3288285423410553
% es.tEX (V/m) @ t=0.24
-0.41614106766368053
% es.tEY (V/m) @ t=0.24
0
% es.tEZ (V/m) @ t=0.24
-1.3288285423410562
% es.Ex (V/m) @ t=0.24
-0.4161410676636761
% es.Ey (V/m) @ t=0.24
0.03108578342206999
% es.Ez (V/m) @ t=0.24
-1.3288285423410553
% es.tEx (V/m) @ t=0.24
-0.41614106766368053
% es.tEy (V/m) @ t=0.24
0
% es.tEz (V/m) @ t=0.24
-1.3288285423410562
% V (V) @ t=0.24
0.007011542460481678
% es.normE (V/m) @ t=0.26
1.407597077003388
% es.EX (V/m) @ t=0.26
-0.41991436792445397
% es.EY (V/m) @ t=0.26
0.031367851613493196
% es.EZ (V/m) @ t=0.26
-1.3408770633766536
% es.tEX (V/m) @ t=0.26
-0.41991436792445924
% es.tEY (V/m) @ t=0.26
0
% es.tEZ (V/m) @ t=0.26
-1.3408770633766673
% es.Ex (V/m) @ t=0.26
-0.41991436792445397
% es.Ey (V/m) @ t=0.26
0.031367851613493196
% es.Ez (V/m) @ t=0.26
-1.3408770633766536
% es.tEx (V/m) @ t=0.26
-0.41991436792445924
% es.tEy (V/m) @ t=0.26
0
% es.tEz (V/m) @ t=0.26
-1.3408770633766673
% V (V) @ t=0.26
0.007075109605600356
% es.normE (V/m) @ t=0.28
1.4206719457356476
% es.EX (V/m) @ t=0.28
-0.42381488155636116
% es.EY (V/m) @ t=0.28
0.031659262205164386
% es.EZ (V/m) @ t=0.28
-1.3533321762473176
% es.tEX (V/m) @ t=0.28
-0.42381488155636404
% es.tEY (V/m) @ t=0.28
0
% es.tEZ (V/m) @ t=0.28
-1.3533321762473305
% es.Ex (V/m) @ t=0.28
-0.42381488155636116
% es.Ey (V/m) @ t=0.28
0.031659262205164386
% es.Ez (V/m) @ t=0.28
-1.3533321762473176
% es.tEx (V/m) @ t=0.28
-0.42381488155636404
% es.tEy (V/m) @ t=0.28
0
% es.tEz (V/m) @ t=0.28
-1.3533321762473305
% V (V) @ t=0.28
0.007140827538180271
% es.normE (V/m) @ t=0.3
1.4347734160325678
% es.EX (V/m) @ t=0.3
-0.428021400665332
% es.EY (V/m) @ t=0.3
0.031973145478956196
% es.EZ (V/m) @ t=0.3
-1.3667653256824752
% es.tEX (V/m) @ t=0.3
-0.42802140066533667
% es.tEY (V/m) @ t=0.3
0
% es.tEZ (V/m) @ t=0.3
-1.3667653256824925
% es.Ex (V/m) @ t=0.3
-0.428021400665332
% es.Ey (V/m) @ t=0.3
0.031973145478956196
% es.Ez (V/m) @ t=0.3
-1.3667653256824752
% es.tEx (V/m) @ t=0.3
-0.42802140066533667
% es.tEy (V/m) @ t=0.3
0
% es.tEz (V/m) @ t=0.3
-1.3667653256824925
% V (V) @ t=0.3
0.007211719083701073
% es.normE (V/m) @ t=0.32
1.4488748863296363
% es.EX (V/m) @ t=0.32
-0.43222791977430297
% es.EY (V/m) @ t=0.32
0.03228702875274598
% es.EZ (V/m) @ t=0.32
-1.3801984751176395
% es.tEX (V/m) @ t=0.32
-0.43222791977430575
% es.tEY (V/m) @ t=0.32
0
% es.tEZ (V/m) @ t=0.32
-1.3801984751176546
% es.Ex (V/m) @ t=0.32
-0.43222791977430297
% es.Ey (V/m) @ t=0.32
0.03228702875274598
% es.Ez (V/m) @ t=0.32
-1.3801984751176395
% es.tEx (V/m) @ t=0.32
-0.43222791977430575
% es.tEy (V/m) @ t=0.32
0
% es.tEz (V/m) @ t=0.32
-1.3801984751176546
% V (V) @ t=0.32
0.007282610629221878
% es.normE (V/m) @ t=0.34
1.4629763566268443
% es.EX (V/m) @ t=0.34
-0.436434438883281
% es.EY (V/m) @ t=0.34
0.03260091202653798
% es.EZ (V/m) @ t=0.34
-1.3936316245528038
% es.tEX (V/m) @ t=0.34
-0.43643443888328903
% es.tEY (V/m) @ t=0.34
0
% es.tEZ (V/m) @ t=0.34
-1.3936316245528095
% es.Ex (V/m) @ t=0.34
-0.436434438883281
% es.Ey (V/m) @ t=0.34
0.03260091202653798
% es.Ez (V/m) @ t=0.34
-1.3936316245528038
% es.tEx (V/m) @ t=0.34
-0.43643443888328903
% es.tEy (V/m) @ t=0.34
0
% es.tEz (V/m) @ t=0.34
-1.3936316245528095
% V (V) @ t=0.34
0.007353502174742681
% es.normE (V/m) @ t=0.36
1.477077826924172
% es.EX (V/m) @ t=0.36
-0.4406409579922518
% es.EY (V/m) @ t=0.36
0.03291479530033693
% es.EZ (V/m) @ t=0.36
-1.4070647739879547
% es.tEX (V/m) @ t=0.36
-0.44064095799225456
% es.tEY (V/m) @ t=0.36
0
% es.tEZ (V/m) @ t=0.36
-1.4070647739879707
% es.Ex (V/m) @ t=0.36
-0.4406409579922518
% es.Ey (V/m) @ t=0.36
0.03291479530033693
% es.Ez (V/m) @ t=0.36
-1.4070647739879547
% es.tEx (V/m) @ t=0.36
-0.44064095799225456
% es.tEy (V/m) @ t=0.36
0
% es.tEz (V/m) @ t=0.36
-1.4070647739879707
% V (V) @ t=0.36
0.007424393720263486
% es.normE (V/m) @ t=0.38
1.4911792972216442
% es.EX (V/m) @ t=0.38
-0.44484747710122907
% es.EY (V/m) @ t=0.38
0.033228678574129346
% es.EZ (V/m) @ t=0.38
-1.4204979234231185
% es.tEX (V/m) @ t=0.38
-0.4448474771012343
% es.tEY (V/m) @ t=0.38
0
% es.tEZ (V/m) @ t=0.38
-1.4204979234231265
% es.Ex (V/m) @ t=0.38
-0.44484747710122907
% es.Ey (V/m) @ t=0.38
0.033228678574129346
% es.Ez (V/m) @ t=0.38
-1.4204979234231185
% es.tEx (V/m) @ t=0.38
-0.4448474771012343
% es.tEy (V/m) @ t=0.38
0
% es.tEz (V/m) @ t=0.38
-1.4204979234231265
% V (V) @ t=0.38
0.0074952852657842895
% es.normE (V/m) @ t=0.4
1.505280767519248
% es.EX (V/m) @ t=0.4
-0.44905399621019904
% es.EY (V/m) @ t=0.4
0.03354256184791229
% es.EZ (V/m) @ t=0.4
-1.4339310728582908
% es.tEX (V/m) @ t=0.4
-0.44905399621020337
% es.tEY (V/m) @ t=0.4
0
% es.tEZ (V/m) @ t=0.4
-1.433931072858302
% es.Ex (V/m) @ t=0.4
-0.44905399621019904
% es.Ey (V/m) @ t=0.4
0.03354256184791229
% es.Ez (V/m) @ t=0.4
-1.4339310728582908
% es.tEx (V/m) @ t=0.4
-0.44905399621020337
% es.tEy (V/m) @ t=0.4
0
% es.tEz (V/m) @ t=0.4
-1.433931072858302
% V (V) @ t=0.4
0.007566176811305094
% es.normE (V/m) @ t=0.42
1.519382237816962
% es.EX (V/m) @ t=0.42
-0.453260515319177
% es.EY (V/m) @ t=0.42
0.0338564451217041
% es.EZ (V/m) @ t=0.42
-1.447364222293448
% es.tEX (V/m) @ t=0.42
-0.4532605153191831
% es.tEY (V/m) @ t=0.42
0
% es.tEZ (V/m) @ t=0.42
-1.447364222293456
% es.Ex (V/m) @ t=0.42
-0.453260515319177
% es.Ey (V/m) @ t=0.42
0.0338564451217041
% es.Ez (V/m) @ t=0.42
-1.447364222293448
% es.tEx (V/m) @ t=0.42
-0.4532605153191831
% es.tEy (V/m) @ t=0.42
0
% es.tEz (V/m) @ t=0.42
-1.447364222293456
% V (V) @ t=0.42
0.007637068356825896
% es.normE (V/m) @ t=0.44
1.533483708114788
% es.EX (V/m) @ t=0.44
-0.4574670344281452
% es.EY (V/m) @ t=0.44
0.03417032839550213
% es.EZ (V/m) @ t=0.44
-1.460797371728599
% es.tEX (V/m) @ t=0.44
-0.4574670344281486
% es.tEY (V/m) @ t=0.44
0
% es.tEZ (V/m) @ t=0.44
-1.4607973717286118
% es.Ex (V/m) @ t=0.44
-0.4574670344281452
% es.Ey (V/m) @ t=0.44
0.03417032839550213
% es.Ez (V/m) @ t=0.44
-1.460797371728599
% es.tEx (V/m) @ t=0.44
-0.4574670344281486
% es.tEy (V/m) @ t=0.44
0
% es.tEz (V/m) @ t=0.44
-1.4607973717286118
% V (V) @ t=0.44
0.007707959902346702
% es.normE (V/m) @ t=0.46
1.547585178412744
% es.EX (V/m) @ t=0.46
-0.4616735535371207
% es.EY (V/m) @ t=0.46
0.034484211669297424
% es.EZ (V/m) @ t=0.46
-1.4742305211637623
% es.tEX (V/m) @ t=0.46
-0.4616735535371248
% es.tEY (V/m) @ t=0.46
0
% es.tEZ (V/m) @ t=0.46
-1.4742305211637738
% es.Ex (V/m) @ t=0.46
-0.4616735535371207
% es.Ey (V/m) @ t=0.46
0.034484211669297424
% es.Ez (V/m) @ t=0.46
-1.4742305211637623
% es.tEx (V/m) @ t=0.46
-0.4616735535371248
% es.tEy (V/m) @ t=0.46
0
% es.tEz (V/m) @ t=0.46
-1.4742305211637738
% V (V) @ t=0.46
0.007778851447867505
% es.normE (V/m) @ t=0.48
1.5616866487108196
% es.EX (V/m) @ t=0.48
-0.46588007264609155
% es.EY (V/m) @ t=0.48
0.03479809494308905
% es.EZ (V/m) @ t=0.48
-1.4876636705989346
% es.tEX (V/m) @ t=0.48
-0.46588007264609743
% es.tEY (V/m) @ t=0.48
0
% es.tEZ (V/m) @ t=0.48
-1.4876636705989421
% es.Ex (V/m) @ t=0.48
-0.46588007264609155
% es.Ey (V/m) @ t=0.48
0.03479809494308905
% es.Ez (V/m) @ t=0.48
-1.4876636705989346
% es.tEx (V/m) @ t=0.48
-0.46588007264609743
% es.tEy (V/m) @ t=0.48
0
% es.tEz (V/m) @ t=0.48
-1.4876636705989421
% V (V) @ t=0.48
0.007849742993388307
% es.normE (V/m) @ t=0.5
1.5757881190089917
% es.EX (V/m) @ t=0.5
-0.4700865917550633
% es.EY (V/m) @ t=0.5
0.035111978216882646
% es.EZ (V/m) @ t=0.5
-1.5010968200340922
% es.tEX (V/m) @ t=0.5
-0.4700865917550665
% es.tEY (V/m) @ t=0.5
0
% es.tEZ (V/m) @ t=0.5
-1.5010968200341042
% es.Ex (V/m) @ t=0.5
-0.4700865917550633
% es.Ey (V/m) @ t=0.5
0.035111978216882646
% es.Ez (V/m) @ t=0.5
-1.5010968200340922
% es.tEx (V/m) @ t=0.5
-0.4700865917550665
% es.tEy (V/m) @ t=0.5
0
% es.tEz (V/m) @ t=0.5
-1.5010968200341042
% V (V) @ t=0.5
0.007920634538909113
% es.normE (V/m) @ t=0.52
1.5898895893072642
% es.EX (V/m) @ t=0.52
-0.4742931108640369
% es.EY (V/m) @ t=0.52
0.03542586149067465
% es.EZ (V/m) @ t=0.52
-1.5145299694692422
% es.tEX (V/m) @ t=0.52
-0.4742931108640427
% es.tEY (V/m) @ t=0.52
0
% es.tEZ (V/m) @ t=0.52
-1.5145299694692582
% es.Ex (V/m) @ t=0.52
-0.4742931108640369
% es.Ey (V/m) @ t=0.52
0.03542586149067465
% es.Ez (V/m) @ t=0.52
-1.5145299694692422
% es.tEx (V/m) @ t=0.52
-0.4742931108640427
% es.tEy (V/m) @ t=0.52
0
% es.tEz (V/m) @ t=0.52
-1.5145299694692582
% V (V) @ t=0.52
0.007991526084429915
% es.normE (V/m) @ t=0.54
1.6039910596056488
% es.EX (V/m) @ t=0.54
-0.478499629973015
% es.EY (V/m) @ t=0.54
0.03573974476446287
% es.EZ (V/m) @ t=0.54
-1.5279631189043994
% es.tEX (V/m) @ t=0.54
-0.47849962997301887
% es.tEY (V/m) @ t=0.54
0
% es.tEZ (V/m) @ t=0.54
-1.5279631189044212
% es.Ex (V/m) @ t=0.54
-0.478499629973015
% es.Ey (V/m) @ t=0.54
0.03573974476446287
% es.Ez (V/m) @ t=0.54
-1.5279631189043994
% es.tEx (V/m) @ t=0.54
-0.47849962997301887
% es.tEy (V/m) @ t=0.54
0
% es.tEz (V/m) @ t=0.54
-1.5279631189044212
% V (V) @ t=0.54
0.00806241762995072
% es.normE (V/m) @ t=0.56
1.6190768255705552
% es.EX (V/m) @ t=0.56
-0.48299998902191243
% es.EY (V/m) @ t=0.56
0.036075874358724475
% es.EZ (V/m) @ t=0.56
-1.5423338313152732
% es.tEX (V/m) @ t=0.56
-0.4829999890219163
% es.tEY (V/m) @ t=0.56
0
% es.tEZ (V/m) @ t=0.56
-1.5423338313152861
% es.Ex (V/m) @ t=0.56
-0.48299998902191243
% es.Ey (V/m) @ t=0.56
0.036075874358724475
% es.Ez (V/m) @ t=0.56
-1.5423338313152732
% es.tEx (V/m) @ t=0.56
-0.4829999890219163
% es.tEy (V/m) @ t=0.56
0
% es.tEz (V/m) @ t=0.56
-1.5423338313152861
% V (V) @ t=0.56
0.008138245966273782
% es.normE (V/m) @ t=0.58
1.634826134484436
% es.EX (V/m) @ t=0.58
-0.48769843430334947
% es.EY (V/m) @ t=0.58
0.036427000858441604
% es.EZ (V/m) @ t=0.58
-1.5573365827799859
% es.tEX (V/m) @ t=0.58
-0.48769843430335413
% es.tEY (V/m) @ t=0.58
0
% es.tEZ (V/m) @ t=0.58
-1.5573365827799899
% es.Ex (V/m) @ t=0.58
-0.48769843430334947
% es.Ey (V/m) @ t=0.58
0.036427000858441604
% es.Ez (V/m) @ t=0.58
-1.5573365827799859
% es.tEx (V/m) @ t=0.58
-0.48769843430335413
% es.tEy (V/m) @ t=0.58
0
% es.tEz (V/m) @ t=0.58
-1.5573365827799899
% V (V) @ t=0.58
0.008217402339932463
% es.normE (V/m) @ t=0.6
1.6505754433983473
% es.EX (V/m) @ t=0.6
-0.4923968795847777
% es.EY (V/m) @ t=0.6
0.036778127358187085
% es.EZ (V/m) @ t=0.6
-1.5723393342446905
% es.tEX (V/m) @ t=0.6
-0.4923968795847813
% es.tEY (V/m) @ t=0.6
0
% es.tEZ (V/m) @ t=0.6
-1.5723393342447016
% es.Ex (V/m) @ t=0.6
-0.4923968795847777
% es.Ey (V/m) @ t=0.6
0.036778127358187085
% es.Ez (V/m) @ t=0.6
-1.5723393342446905
% es.tEx (V/m) @ t=0.6
-0.4923968795847813
% es.tEy (V/m) @ t=0.6
0
% es.tEz (V/m) @ t=0.6
-1.5723393342447016
% V (V) @ t=0.6
0.008296558713591144
% es.normE (V/m) @ t=0.62
1.6663247523122924
% es.EX (V/m) @ t=0.62
-0.4970953248662058
% es.EY (V/m) @ t=0.62
0.03712925385792017
% es.EZ (V/m) @ t=0.62
-1.587342085709389
% es.tEX (V/m) @ t=0.62
-0.497095324866212
% es.tEY (V/m) @ t=0.62
0
% es.tEZ (V/m) @ t=0.62
-1.5873420857094054
% es.Ex (V/m) @ t=0.62
-0.4970953248662058
% es.Ey (V/m) @ t=0.62
0.03712925385792017
% es.Ez (V/m) @ t=0.62
-1.587342085709389
% es.tEx (V/m) @ t=0.62
-0.497095324866212
% es.tEy (V/m) @ t=0.62
0
% es.tEz (V/m) @ t=0.62
-1.5873420857094054
% V (V) @ t=0.62
0.008375715087249823
% es.normE (V/m) @ t=0.64
1.682074061226289
% es.EX (V/m) @ t=0.64
-0.5017937701476329
% es.EY (V/m) @ t=0.64
0.0374803803576637
% es.EZ (V/m) @ t=0.64
-1.6023448371741011
% es.tEX (V/m) @ t=0.64
-0.5017937701476392
% es.tEY (V/m) @ t=0.64
0
% es.tEZ (V/m) @ t=0.64
-1.6023448371741162
% es.Ex (V/m) @ t=0.64
-0.5017937701476329
% es.Ey (V/m) @ t=0.64
0.0374803803576637
% es.Ez (V/m) @ t=0.64
-1.6023448371741011
% es.tEx (V/m) @ t=0.64
-0.5017937701476392
% es.tEy (V/m) @ t=0.64
0
% es.tEz (V/m) @ t=0.64
-1.6023448371741162
% V (V) @ t=0.64
0.008454871460908505
% es.normE (V/m) @ t=0.66
1.6978233701403327
% es.EX (V/m) @ t=0.66
-0.5064922154290699
% es.EY (V/m) @ t=0.66
0.03783150685740012
% es.EZ (V/m) @ t=0.66
-1.6173475886388209
% es.tEX (V/m) @ t=0.66
-0.5064922154290734
% es.tEY (V/m) @ t=0.66
0
% es.tEZ (V/m) @ t=0.66
-1.6173475886388289
% es.Ex (V/m) @ t=0.66
-0.5064922154290699
% es.Ey (V/m) @ t=0.66
0.03783150685740012
% es.Ez (V/m) @ t=0.66
-1.6173475886388209
% es.tEx (V/m) @ t=0.66
-0.5064922154290734
% es.tEy (V/m) @ t=0.66
0
% es.tEz (V/m) @ t=0.66
-1.6173475886388289
% V (V) @ t=0.66
0.008534027834567184
% es.normE (V/m) @ t=0.68
1.713572679054395
% es.EX (V/m) @ t=0.68
-0.5111906607104962
% es.EY (V/m) @ t=0.68
0.038182633357124324
% es.EZ (V/m) @ t=0.68
-1.632350340103526
% es.tEX (V/m) @ t=0.68
-0.5111906607105006
% es.tEY (V/m) @ t=0.68
0
% es.tEZ (V/m) @ t=0.68
-1.6323503401035468
% es.Ex (V/m) @ t=0.68
-0.5111906607104962
% es.Ey (V/m) @ t=0.68
0.038182633357124324
% es.Ez (V/m) @ t=0.68
-1.632350340103526
% es.tEx (V/m) @ t=0.68
-0.5111906607105006
% es.tEy (V/m) @ t=0.68
0
% es.tEz (V/m) @ t=0.68
-1.6323503401035468
% V (V) @ t=0.68
0.008613184208225865
% es.normE (V/m) @ t=0.7
1.7293219879684958
% es.EX (V/m) @ t=0.7
-0.5158891059919298
% es.EY (V/m) @ t=0.7
0.03853375985686959
% es.EZ (V/m) @ t=0.7
-1.647353091568231
% es.tEX (V/m) @ t=0.7
-0.5158891059919313
% es.tEY (V/m) @ t=0.7
0
% es.tEZ (V/m) @ t=0.7
-1.6473530915682506
% es.Ex (V/m) @ t=0.7
-0.5158891059919298
% es.Ey (V/m) @ t=0.7
0.03853375985686959
% es.Ez (V/m) @ t=0.7
-1.647353091568231
% es.tEx (V/m) @ t=0.7
-0.5158891059919313
% es.tEy (V/m) @ t=0.7
0
% es.tEz (V/m) @ t=0.7
-1.6473530915682506
% V (V) @ t=0.7
0.008692340581884547
% es.normE (V/m) @ t=0.72
1.745071296882636
% es.EX (V/m) @ t=0.72
-0.5205875512733604
% es.EY (V/m) @ t=0.72
0.03888488635660452
% es.EZ (V/m) @ t=0.72
-1.6623558430329437
% es.tEX (V/m) @ t=0.72
-0.5205875512733655
% es.tEY (V/m) @ t=0.72
0
% es.tEZ (V/m) @ t=0.72
-1.6623558430329552
% es.Ex (V/m) @ t=0.72
-0.5205875512733604
% es.Ey (V/m) @ t=0.72
0.03888488635660452
% es.Ez (V/m) @ t=0.72
-1.6623558430329437
% es.tEx (V/m) @ t=0.72
-0.5205875512733655
% es.tEy (V/m) @ t=0.72
0
% es.tEz (V/m) @ t=0.72
-1.6623558430329552
% V (V) @ t=0.72
0.008771496955543226
% es.normE (V/m) @ t=0.74
1.7608206057968094
% es.EX (V/m) @ t=0.74
-0.5252859965547858
% es.EY (V/m) @ t=0.74
0.039236012856337606
% es.EZ (V/m) @ t=0.74
-1.6773585944976563
% es.tEX (V/m) @ t=0.74
-0.5252859965547856
% es.tEY (V/m) @ t=0.74
0
% es.tEZ (V/m) @ t=0.74
-1.6773585944976661
% es.Ex (V/m) @ t=0.74
-0.5252859965547858
% es.Ey (V/m) @ t=0.74
0.039236012856337606
% es.Ez (V/m) @ t=0.74
-1.6773585944976563
% es.tEx (V/m) @ t=0.74
-0.5252859965547856
% es.tEy (V/m) @ t=0.74
0
% es.tEz (V/m) @ t=0.74
-1.6773585944976661
% V (V) @ t=0.74
0.008850653329201909
% es.normE (V/m) @ t=0.76
1.7765699147110015
% es.EX (V/m) @ t=0.76
-0.5299844418362158
% es.EY (V/m) @ t=0.76
0.03958713935607243
% es.EZ (V/m) @ t=0.76
-1.6923613459623539
% es.tEX (V/m) @ t=0.76
-0.5299844418362198
% es.tEY (V/m) @ t=0.76
0
% es.tEZ (V/m) @ t=0.76
-1.6923613459623699
% es.Ex (V/m) @ t=0.76
-0.5299844418362158
% es.Ey (V/m) @ t=0.76
0.03958713935607243
% es.Ez (V/m) @ t=0.76
-1.6923613459623539
% es.tEx (V/m) @ t=0.76
-0.5299844418362198
% es.tEy (V/m) @ t=0.76
0
% es.tEz (V/m) @ t=0.76
-1.6923613459623699
% V (V) @ t=0.76
0.008929809702860588
% es.normE (V/m) @ t=0.78
1.7923192236252456
% es.EX (V/m) @ t=0.78
-0.5346828871176439
% es.EY (V/m) @ t=0.78
0.039938265855814184
% es.EZ (V/m) @ t=0.78
-1.7073640974270736
% es.tEX (V/m) @ t=0.78
-0.534682887117647
% es.tEY (V/m) @ t=0.78
0
% es.tEZ (V/m) @ t=0.78
-1.7073640974270887
% es.Ex (V/m) @ t=0.78
-0.5346828871176439
% es.Ey (V/m) @ t=0.78
0.039938265855814184
% es.Ez (V/m) @ t=0.78
-1.7073640974270736
% es.tEx (V/m) @ t=0.78
-0.534682887117647
% es.tEy (V/m) @ t=0.78
0
% es.tEz (V/m) @ t=0.78
-1.7073640974270887
% V (V) @ t=0.78
0.009008966076519269
% es.normE (V/m) @ t=0.8
1.8080685325395145
% es.EX (V/m) @ t=0.8
-0.5393813323990746
% es.EY (V/m) @ t=0.8
0.04028939235555082
% es.EZ (V/m) @ t=0.8
-1.7223668488917858
% es.tEX (V/m) @ t=0.8
-0.5393813323990777
% es.tEY (V/m) @ t=0.8
0
% es.tEZ (V/m) @ t=0.8
-1.7223668488917934
% es.Ex (V/m) @ t=0.8
-0.5393813323990746
% es.Ey (V/m) @ t=0.8
0.04028939235555082
% es.Ez (V/m) @ t=0.8
-1.7223668488917858
% es.tEx (V/m) @ t=0.8
-0.5393813323990777
% es.tEy (V/m) @ t=0.8
0
% es.tEz (V/m) @ t=0.8
-1.7223668488917934
% V (V) @ t=0.8
0.00908812245017795
% es.normE (V/m) @ t=0.82
1.8238178414537929
% es.EX (V/m) @ t=0.82
-0.5440797776805028
% es.EY (V/m) @ t=0.82
0.04064051885529102
% es.EZ (V/m) @ t=0.82
-1.7373696003564771
% es.tEX (V/m) @ t=0.82
-0.544079777680512
% es.tEY (V/m) @ t=0.82
0
% es.tEZ (V/m) @ t=0.82
-1.7373696003565042
% es.Ex (V/m) @ t=0.82
-0.5440797776805028
% es.Ey (V/m) @ t=0.82
0.04064051885529102
% es.Ez (V/m) @ t=0.82
-1.7373696003564771
% es.tEx (V/m) @ t=0.82
-0.544079777680512
% es.tEy (V/m) @ t=0.82
0
% es.tEz (V/m) @ t=0.82
-1.7373696003565042
% V (V) @ t=0.82
0.00916727882383663
% es.normE (V/m) @ t=0.84
1.8412556706426182
% es.EX (V/m) @ t=0.84
-0.5492815199219117
% es.EY (V/m) @ t=0.84
0.041028551917369926
% es.EZ (V/m) @ t=0.84
-1.7539810006359864
% es.tEX (V/m) @ t=0.84
-0.5492815199219194
% es.tEY (V/m) @ t=0.84
0
% es.tEZ (V/m) @ t=0.84
-1.753981000636002
% es.Ex (V/m) @ t=0.84
-0.5492815199219117
% es.Ey (V/m) @ t=0.84
0.041028551917369926
% es.Ez (V/m) @ t=0.84
-1.7539810006359864
% es.tEx (V/m) @ t=0.84
-0.5492815199219194
% es.tEy (V/m) @ t=0.84
0
% es.tEz (V/m) @ t=0.84
-1.753981000636002
% V (V) @ t=0.84
0.009254945998955532
% es.normE (V/m) @ t=0.86
1.858879023290031
% es.EX (V/m) @ t=0.86
-0.5545385611099578
% es.EY (V/m) @ t=0.86
0.04142064002881325
% es.EZ (V/m) @ t=0.86
-1.770769148625201
% es.tEX (V/m) @ t=0.86
-0.5545385611099611
% es.tEY (V/m) @ t=0.86
0
% es.tEZ (V/m) @ t=0.86
-1.7707691486252202
% es.Ex (V/m) @ t=0.86
-0.5545385611099578
% es.Ey (V/m) @ t=0.86
0.04142064002881325
% es.Ez (V/m) @ t=0.86
-1.770769148625201
% es.tEx (V/m) @ t=0.86
-0.5545385611099611
% es.tEy (V/m) @ t=0.86
0
% es.tEz (V/m) @ t=0.86
-1.7707691486252202
% V (V) @ t=0.86
0.009343548284741331
% es.normE (V/m) @ t=0.88
1.876502375937747
% es.EX (V/m) @ t=0.88
-0.5597956022980093
% es.EY (V/m) @ t=0.88
0.04181272814026234
% es.EZ (V/m) @ t=0.88
-1.7875572966144233
% es.tEX (V/m) @ t=0.88
-0.5597956022980171
% es.tEY (V/m) @ t=0.88
0
% es.tEZ (V/m) @ t=0.88
-1.7875572966144446
% es.Ex (V/m) @ t=0.88
-0.5597956022980093
% es.Ey (V/m) @ t=0.88
0.04181272814026234
% es.Ez (V/m) @ t=0.88
-1.7875572966144233
% es.tEx (V/m) @ t=0.88
-0.5597956022980171
% es.tEy (V/m) @ t=0.88
0
% es.tEz (V/m) @ t=0.88
-1.7875572966144446
% V (V) @ t=0.88
0.009432150570527128
% es.normE (V/m) @ t=0.9
1.8941257285857587
% es.EX (V/m) @ t=0.9
-0.5650526434860632
% es.EY (V/m) @ t=0.9
0.04220481625170745
% es.EZ (V/m) @ t=0.9
-1.8043454446036526
% es.tEX (V/m) @ t=0.9
-0.5650526434860694
% es.tEY (V/m) @ t=0.9
0
% es.tEZ (V/m) @ t=0.9
-1.8043454446036629
% es.Ex (V/m) @ t=0.9
-0.5650526434860632
% es.Ey (V/m) @ t=0.9
0.04220481625170745
% es.Ez (V/m) @ t=0.9
-1.8043454446036526
% es.tEx (V/m) @ t=0.9
-0.5650526434860694
% es.tEy (V/m) @ t=0.9
0
% es.tEz (V/m) @ t=0.9
-1.8043454446036629
% V (V) @ t=0.9
0.009520752856312927
% es.normE (V/m) @ t=0.92
1.9117490812340425
% es.EX (V/m) @ t=0.92
-0.5703096846741165
% es.EY (V/m) @ t=0.92
0.042596904363164975
% es.EZ (V/m) @ t=0.92
-1.8211335925928749
% es.tEX (V/m) @ t=0.92
-0.5703096846741254
% es.tEY (V/m) @ t=0.92
0
% es.tEZ (V/m) @ t=0.92
-1.8211335925928953
% es.Ex (V/m) @ t=0.92
-0.5703096846741165
% es.Ey (V/m) @ t=0.92
0.042596904363164975
% es.Ez (V/m) @ t=0.92
-1.8211335925928749
% es.tEx (V/m) @ t=0.92
-0.5703096846741254
% es.tEy (V/m) @ t=0.92
0
% es.tEz (V/m) @ t=0.92
-1.8211335925928953
% V (V) @ t=0.92
0.009609355142098723
% es.normE (V/m) @ t=0.94
1.929372433882583
% es.EX (V/m) @ t=0.94
-0.5755667258621662
% es.EY (V/m) @ t=0.94
0.04298899247460852
% es.EZ (V/m) @ t=0.94
-1.8379217405820825
% es.tEX (V/m) @ t=0.94
-0.5755667258621706
% es.tEY (V/m) @ t=0.94
0
% es.tEZ (V/m) @ t=0.94
-1.8379217405820993
% es.Ex (V/m) @ t=0.94
-0.5755667258621662
% es.Ey (V/m) @ t=0.94
0.04298899247460852
% es.Ez (V/m) @ t=0.94
-1.8379217405820825
% es.tEx (V/m) @ t=0.94
-0.5755667258621706
% es.tEy (V/m) @ t=0.94
0
% es.tEz (V/m) @ t=0.94
-1.8379217405820993
% V (V) @ t=0.94
0.00969795742788452
% es.normE (V/m) @ t=0.96
1.94699578653141
% es.EX (V/m) @ t=0.96
-0.580823767050223
% es.EY (V/m) @ t=0.96
0.04338108058606249
% es.EZ (V/m) @ t=0.96
-1.8547098885713114
% es.tEX (V/m) @ t=0.96
-0.5808237670502265
% es.tEY (V/m) @ t=0.96
0
% es.tEZ (V/m) @ t=0.96
-1.854709888571339
% es.Ex (V/m) @ t=0.96
-0.580823767050223
% es.Ey (V/m) @ t=0.96
0.04338108058606249
% es.Ez (V/m) @ t=0.96
-1.8547098885713114
% es.tEx (V/m) @ t=0.96
-0.5808237670502265
% es.tEy (V/m) @ t=0.96
0
% es.tEz (V/m) @ t=0.96
-1.854709888571339
% V (V) @ t=0.96
0.009786559713670316
% es.normE (V/m) @ t=0.98
1.9646191391804866
% es.EX (V/m) @ t=0.98
-0.5860808082382718
% es.EY (V/m) @ t=0.98
0.043773168697514714
% es.EZ (V/m) @ t=0.98
-1.871498036560534
% es.tEX (V/m) @ t=0.98
-0.5860808082382825
% es.tEY (V/m) @ t=0.98
0
% es.tEZ (V/m) @ t=0.98
-1.8714980365605562
% es.Ex (V/m) @ t=0.98
-0.5860808082382718
% es.Ey (V/m) @ t=0.98
0.043773168697514714
% es.Ez (V/m) @ t=0.98
-1.871498036560534
% es.tEx (V/m) @ t=0.98
-0.5860808082382825
% es.tEy (V/m) @ t=0.98
0
% es.tEz (V/m) @ t=0.98
-1.8714980365605562
% V (V) @ t=0.98
0.009875161999456115
% es.normE (V/m) @ t=1
1.9822424918298083
% es.EX (V/m) @ t=1
-0.5913378494263277
% es.EY (V/m) @ t=1
0.044165256808951156
% es.EZ (V/m) @ t=1
-1.8882861845497492
% es.tEX (V/m) @ t=1
-0.5913378494263384
% es.tEY (V/m) @ t=1
0
% es.tEZ (V/m) @ t=1
-1.8882861845497745
% es.Ex (V/m) @ t=1
-0.5913378494263277
% es.Ey (V/m) @ t=1
0.044165256808951156
% es.Ez (V/m) @ t=1
-1.8882861845497492
% es.tEx (V/m) @ t=1
-0.5913378494263384
% es.tEy (V/m) @ t=1
0
% es.tEz (V/m) @ t=1
-1.8882861845497745
% V (V) @ t=1
0.009963764285241915
% es.normE (V/m) @ t=1.02
1.9998658444793767
% es.EX (V/m) @ t=1.02
-0.5965948906143721
% es.EY (V/m) @ t=1.02
0.04455734492041956
% es.EZ (V/m) @ t=1.02
-1.905074332538971
% es.tEX (V/m) @ t=1.02
-0.5965948906143765
% es.tEY (V/m) @ t=1.02
0
% es.tEZ (V/m) @ t=1.02
-1.9050743325389847
% es.Ex (V/m) @ t=1.02
-0.5965948906143721
% es.Ey (V/m) @ t=1.02
0.04455734492041956
% es.Ez (V/m) @ t=1.02
-1.905074332538971
% es.tEx (V/m) @ t=1.02