% Model:              1 neuron.mph
% Version:            COMSOL 6.0.0.405
% Date:               Mar 9 2023, 13:41
% Dimension:          0
% Nodes:              14017
% Expressions:        14017
% Description:        Electric field norm, Electric field, X component, Electric field, Y component, Electric field, Z component, Tangential electric field, X component, Tangential electric field, Y component, Tangential electric field, Z component, Electric field, x component, Electric field, y component, Electric field, z component, Tangential electric field, x component, Tangential electric field, y component, Tangential electric field, z component, Electric potential
% Length unit:        mm
% x
1.66
% y
12.2
% z
1.33
% es.normE (V/m) @ t=0
7.5472413178672255
% es.EX (V/m) @ t=0
-4.193551396181868
% es.EY (V/m) @ t=0
-0.4526576606351469
% es.EZ (V/m) @ t=0
5.615139708120586
% es.tEX (V/m) @ t=0
-4.193551396181871
% es.tEY (V/m) @ t=0
0
% es.tEZ (V/m) @ t=0
5.615139708120582
% es.Ex (V/m) @ t=0
-4.193551396181868
% es.Ey (V/m) @ t=0
-0.4526576606351469
% es.Ez (V/m) @ t=0
5.615139708120586
% es.tEx (V/m) @ t=0
-4.193551396181871
% es.tEy (V/m) @ t=0
0
% es.tEz (V/m) @ t=0
5.615139708120582
% V (V) @ t=0
0.006198285657922648
% es.normE (V/m) @ t=0.02
6.518693826300703
% es.EX (V/m) @ t=0.02
-3.6220489681371077
% es.EY (V/m) @ t=0.02
-0.3909689043238087
% es.EZ (V/m) @ t=0.02
4.849901441018456
% es.tEX (V/m) @ t=0.02
-3.622048968137115
% es.tEY (V/m) @ t=0.02
0
% es.tEZ (V/m) @ t=0.02
4.84990144101845
% es.Ex (V/m) @ t=0.02
-3.6220489681371077
% es.Ey (V/m) @ t=0.02
-0.3909689043238087
% es.Ez (V/m) @ t=0.02
4.849901441018456
% es.tEx (V/m) @ t=0.02
-3.622048968137115
% es.tEy (V/m) @ t=0.02
0
% es.tEz (V/m) @ t=0.02
4.84990144101845
% V (V) @ t=0.02
0.00535357552413258
% es.normE (V/m) @ t=0.04
6.578646402698569
% es.EX (V/m) @ t=0.04
-3.655361225468387
% es.EY (V/m) @ t=0.04
-0.3945644772671957
% es.EZ (V/m) @ t=0.04
4.894506059206512
% es.tEX (V/m) @ t=0.04
-3.6553612254683863
% es.tEY (V/m) @ t=0.04
0
% es.tEZ (V/m) @ t=0.04
4.894506059206505
% es.Ex (V/m) @ t=0.04
-3.655361225468387
% es.Ey (V/m) @ t=0.04
-0.3945644772671957
% es.Ez (V/m) @ t=0.04
4.894506059206512
% es.tEx (V/m) @ t=0.04
-3.6553612254683863
% es.tEy (V/m) @ t=0.04
0
% es.tEz (V/m) @ t=0.04
4.894506059206505
% V (V) @ t=0.04
0.005402812127399226
% es.normE (V/m) @ t=0.06
6.639163010363335
% es.EX (V/m) @ t=0.06
-3.6889873132438105
% es.EY (V/m) @ t=0.06
-0.3981934767176294
% es.EZ (V/m) @ t=0.06
4.939530233166651
% es.tEX (V/m) @ t=0.06
-3.6889873132438167
% es.tEY (V/m) @ t=0.06
0
% es.tEZ (V/m) @ t=0.06
4.9395302331666455
% es.Ex (V/m) @ t=0.06
-3.6889873132438105
% es.Ey (V/m) @ t=0.06
-0.3981934767176294
% es.Ez (V/m) @ t=0.06
4.939530233166651
% es.tEx (V/m) @ t=0.06
-3.6889873132438167
% es.tEy (V/m) @ t=0.06
0
% es.tEz (V/m) @ t=0.06
4.9395302331666455
% V (V) @ t=0.06
0.005452511146562473
% es.normE (V/m) @ t=0.08
6.700546870738208
% es.EX (V/m) @ t=0.08
-3.7230947607354095
% es.EY (V/m) @ t=0.08
-0.4018749760731428
% es.EZ (V/m) @ t=0.08
4.985199742136887
% es.tEX (V/m) @ t=0.08
-3.7230947607354192
% es.tEY (V/m) @ t=0.08
0
% es.tEZ (V/m) @ t=0.08
4.985199742136885
% es.Ex (V/m) @ t=0.08
-3.7230947607354095
% es.Ey (V/m) @ t=0.08
-0.4018749760731428
% es.Ez (V/m) @ t=0.08
4.985199742136887
% es.tEx (V/m) @ t=0.08
-3.7230947607354192
% es.tEy (V/m) @ t=0.08
0
% es.tEz (V/m) @ t=0.08
4.985199742136885
% V (V) @ t=0.08
0.005502923378747897
% es.normE (V/m) @ t=0.1
6.762650716557166
% es.EX (V/m) @ t=0.1
-3.7576018287585944
% es.EY (V/m) @ t=0.1
-0.40560006038035046
% es.EZ (V/m) @ t=0.1
5.031405002461306
% es.tEX (V/m) @ t=0.1
-3.7576018287586006
% es.tEY (V/m) @ t=0.1
0
% es.tEZ (V/m) @ t=0.1
5.031405002461293
% es.Ex (V/m) @ t=0.1
-3.7576018287585944
% es.Ey (V/m) @ t=0.1
-0.40560006038035046
% es.Ez (V/m) @ t=0.1
5.031405002461306
% es.tEx (V/m) @ t=0.1
-3.7576018287586006
% es.tEy (V/m) @ t=0.1
0
% es.tEz (V/m) @ t=0.1
5.031405002461293
% V (V) @ t=0.1
0.005553927714006091
% es.normE (V/m) @ t=0.12
6.824754562376151
% es.EX (V/m) @ t=0.12
-3.792108896781772
% es.EY (V/m) @ t=0.12
-0.4093251446875761
% es.EZ (V/m) @ t=0.12
5.077610262785712
% es.tEX (V/m) @ t=0.12
-3.792108896781775
% es.tEY (V/m) @ t=0.12
0
% es.tEZ (V/m) @ t=0.12
5.077610262785706
% es.Ex (V/m) @ t=0.12
-3.792108896781772
% es.Ey (V/m) @ t=0.12
-0.4093251446875761
% es.Ez (V/m) @ t=0.12
5.077610262785712
% es.tEx (V/m) @ t=0.12
-3.792108896781775
% es.tEy (V/m) @ t=0.12
0
% es.tEz (V/m) @ t=0.12
5.077610262785706
% V (V) @ t=0.12
0.005604932049264289
% es.normE (V/m) @ t=0.14
6.887202953923866
% es.EX (V/m) @ t=0.14
-3.8268083790149827
% es.EY (V/m) @ t=0.14
-0.41306998911518833
% es.EZ (V/m) @ t=0.14
5.12407167890274
% es.tEX (V/m) @ t=0.14
-3.826808379014989
% es.tEY (V/m) @ t=0.14
0
% es.tEZ (V/m) @ t=0.14
5.124071678902736
% es.Ex (V/m) @ t=0.14
-3.8268083790149827
% es.Ey (V/m) @ t=0.14
-0.41306998911518833
% es.Ez (V/m) @ t=0.14
5.12407167890274
% es.tEx (V/m) @ t=0.14
-3.826808379014989
% es.tEy (V/m) @ t=0.14
0
% es.tEz (V/m) @ t=0.14
5.124071678902736
% V (V) @ t=0.14
0.005656217542139543
% es.normE (V/m) @ t=0.16
6.952656114159425
% es.EX (V/m) @ t=0.16
-3.8631858974037634
% es.EY (V/m) @ t=0.16
-0.41698716071361663
% es.EZ (V/m) @ t=0.16
5.172767018810725
% es.tEX (V/m) @ t=0.16
-3.8631858974037696
% es.tEY (V/m) @ t=0.16
0
% es.tEZ (V/m) @ t=0.16
5.172767018810715
% es.Ex (V/m) @ t=0.16
-3.8631858974037634
% es.Ey (V/m) @ t=0.16
-0.41698716071361663
% es.Ez (V/m) @ t=0.16
5.172767018810725
% es.tEx (V/m) @ t=0.16
-3.8631858974037696
% es.tEy (V/m) @ t=0.16
0
% es.tEz (V/m) @ t=0.16
5.172767018810715
% V (V) @ t=0.16
0.005709954998655135
% es.normE (V/m) @ t=0.18
7.018109274426539
% es.EX (V/m) @ t=0.18
-3.899563415792551
% es.EY (V/m) @ t=0.18
-0.42090433231206115
% es.EZ (V/m) @ t=0.18
5.221462358718709
% es.tEX (V/m) @ t=0.18
-3.899563415792561
% es.tEY (V/m) @ t=0.18
0
% es.tEZ (V/m) @ t=0.18
5.221462358718705
% es.Ex (V/m) @ t=0.18
-3.899563415792551
% es.Ey (V/m) @ t=0.18
-0.42090433231206115
% es.Ez (V/m) @ t=0.18
5.221462358718709
% es.tEx (V/m) @ t=0.18
-3.899563415792561
% es.tEy (V/m) @ t=0.18
0
% es.tEz (V/m) @ t=0.18
5.221462358718705
% V (V) @ t=0.18
0.005763692455170726
% es.normE (V/m) @ t=0.2
7.083562434724296
% es.EX (V/m) @ t=0.2
-3.935940934181338
% es.EY (V/m) @ t=0.2
-0.42482150391051965
% es.EZ (V/m) @ t=0.2
5.270157698626683
% es.tEX (V/m) @ t=0.2
-3.935940934181348
% es.tEY (V/m) @ t=0.2
0
% es.tEZ (V/m) @ t=0.2
5.270157698626676
% es.Ex (V/m) @ t=0.2
-3.935940934181338
% es.Ey (V/m) @ t=0.2
-0.42482150391051965
% es.Ez (V/m) @ t=0.2
5.270157698626683
% es.tEx (V/m) @ t=0.2
-3.935940934181348
% es.tEy (V/m) @ t=0.2
0
% es.tEz (V/m) @ t=0.2
5.270157698626676
% V (V) @ t=0.2
0.005817429911686317
% es.normE (V/m) @ t=0.22
7.149015595051875
% es.EX (V/m) @ t=0.22
-3.9723184525701294
% es.EY (V/m) @ t=0.22
-0.42873867550894795
% es.EZ (V/m) @ t=0.22
5.3188530385346615
% es.tEX (V/m) @ t=0.22
-3.9723184525701356
% es.tEY (V/m) @ t=0.22
0
% es.tEZ (V/m) @ t=0.22
5.318853038534652
% es.Ex (V/m) @ t=0.22
-3.9723184525701294
% es.Ey (V/m) @ t=0.22
-0.42873867550894795
% es.Ez (V/m) @ t=0.22
5.3188530385346615
% es.tEx (V/m) @ t=0.22
-3.9723184525701356
% es.tEy (V/m) @ t=0.22
0
% es.tEz (V/m) @ t=0.22
5.318853038534652
% V (V) @ t=0.22
0.005871167368201908
% es.normE (V/m) @ t=0.24
7.214468755408467
% es.EX (V/m) @ t=0.24
-4.00869597095892
% es.EY (V/m) @ t=0.24
-0.4326558471074049
% es.EZ (V/m) @ t=0.24
5.367548378442647
% es.tEX (V/m) @ t=0.24
-4.008695970958919
% es.tEY (V/m) @ t=0.24
0
% es.tEZ (V/m) @ t=0.24
5.367548378442642
% es.Ex (V/m) @ t=0.24
-4.00869597095892
% es.Ey (V/m) @ t=0.24
-0.4326558471074049
% es.Ez (V/m) @ t=0.24
5.367548378442647
% es.tEx (V/m) @ t=0.24
-4.008695970958919
% es.tEy (V/m) @ t=0.24
0
% es.tEz (V/m) @ t=0.24
5.367548378442642
% V (V) @ t=0.24
0.0059249048247175
% es.normE (V/m) @ t=0.26
7.279921915793263
% es.EX (V/m) @ t=0.26
-4.045073489347697
% es.EY (V/m) @ t=0.26
-0.43657301870585274
% es.EZ (V/m) @ t=0.26
5.416243718350617
% es.tEX (V/m) @ t=0.26
-4.045073489347707
% es.tEY (V/m) @ t=0.26
0
% es.tEZ (V/m) @ t=0.26
5.416243718350609
% es.Ex (V/m) @ t=0.26
-4.045073489347697
% es.Ey (V/m) @ t=0.26
-0.43657301870585274
% es.Ez (V/m) @ t=0.26
5.416243718350617
% es.tEx (V/m) @ t=0.26
-4.045073489347707
% es.tEy (V/m) @ t=0.26
0
% es.tEz (V/m) @ t=0.26
5.416243718350609
% V (V) @ t=0.26
0.005978642281233091
% es.normE (V/m) @ t=0.28
7.347006261213793
% es.EX (V/m) @ t=0.28
-4.082359795278441
% es.EY (V/m) @ t=0.28
-0.44058575357668905
% es.EZ (V/m) @ t=0.28
5.46615219184242
% es.tEX (V/m) @ t=0.28
-4.082359795278447
% es.tEY (V/m) @ t=0.28
0
% es.tEZ (V/m) @ t=0.28
5.46615219184241
% es.Ex (V/m) @ t=0.28
-4.082359795278441
% es.Ey (V/m) @ t=0.28
-0.44058575357668905
% es.Ez (V/m) @ t=0.28
5.46615219184242
% es.tEx (V/m) @ t=0.28
-4.082359795278447
% es.tEy (V/m) @ t=0.28
0
% es.tEz (V/m) @ t=0.28
5.46615219184241
% V (V) @ t=0.28
0.006033714842617333
% es.normE (V/m) @ t=0.3
7.420017170315937
% es.EX (V/m) @ t=0.3
-4.12294798733809
% es.EY (V/m) @ t=0.3
-0.44494569726037336
% es.EZ (V/m) @ t=0.3
5.520468328036495
% es.tEX (V/m) @ t=0.3
-4.1229479873380965
% es.tEY (V/m) @ t=0.3
0
% es.tEZ (V/m) @ t=0.3
5.520468328036487
% es.Ex (V/m) @ t=0.3
-4.12294798733809
% es.Ey (V/m) @ t=0.3
-0.44494569726037336
% es.Ez (V/m) @ t=0.3
5.520468328036495
% es.tEx (V/m) @ t=0.3
-4.1229479873380965
% es.tEy (V/m) @ t=0.3
0
% es.tEz (V/m) @ t=0.3
5.520468328036487
% V (V) @ t=0.3
0.006093638223409823
% es.normE (V/m) @ t=0.32
7.493028079556838
% es.EX (V/m) @ t=0.32
-4.163536179397754
% es.EY (V/m) @ t=0.32
-0.449305640944051
% es.EZ (V/m) @ t=0.32
5.574784464230548
% es.tEX (V/m) @ t=0.32
-4.163536179397767
% es.tEY (V/m) @ t=0.32
0
% es.tEZ (V/m) @ t=0.32
5.57478446423054
% es.Ex (V/m) @ t=0.32
-4.163536179397754
% es.Ey (V/m) @ t=0.32
-0.449305640944051
% es.Ez (V/m) @ t=0.32
5.574784464230548
% es.tEx (V/m) @ t=0.32
-4.163536179397767
% es.tEy (V/m) @ t=0.32
0
% es.tEz (V/m) @ t=0.32
5.57478446423054
% V (V) @ t=0.32
0.006153561604202312
% es.normE (V/m) @ t=0.34
7.566038988932535
% es.EX (V/m) @ t=0.34
-4.204124371457419
% es.EY (V/m) @ t=0.34
-0.453665584627744
% es.EZ (V/m) @ t=0.34
5.629100600424625
% es.tEX (V/m) @ t=0.34
-4.2041243714574215
% es.tEY (V/m) @ t=0.34
0
% es.tEZ (V/m) @ t=0.34
5.62910060042462
% es.Ex (V/m) @ t=0.34
-4.204124371457419
% es.Ey (V/m) @ t=0.34
-0.453665584627744
% es.Ez (V/m) @ t=0.34
5.629100600424625
% es.tEx (V/m) @ t=0.34
-4.2041243714574215
% es.tEy (V/m) @ t=0.34
0
% es.tEz (V/m) @ t=0.34
5.62910060042462
% V (V) @ t=0.34
0.006213484984994803
% es.normE (V/m) @ t=0.36
7.639049898439117
% es.EX (V/m) @ t=0.36
-4.244712563517069
% es.EY (V/m) @ t=0.36
-0.45802552831140697
% es.EZ (V/m) @ t=0.36
5.683416736618706
% es.tEX (V/m) @ t=0.36
-4.2447125635170755
% es.tEY (V/m) @ t=0.36
0
% es.tEZ (V/m) @ t=0.36
5.683416736618701
% es.Ex (V/m) @ t=0.36
-4.244712563517069
% es.Ey (V/m) @ t=0.36
-0.45802552831140697
% es.Ez (V/m) @ t=0.36
5.683416736618706
% es.tEx (V/m) @ t=0.36
-4.2447125635170755
% es.tEy (V/m) @ t=0.36
0
% es.tEz (V/m) @ t=0.36
5.683416736618701
% V (V) @ t=0.36
0.0062734083657872905
% es.normE (V/m) @ t=0.38
7.712060808072874
% es.EX (V/m) @ t=0.38
-4.285300755576723
% es.EY (V/m) @ t=0.38
-0.46238547199508795
% es.EZ (V/m) @ t=0.38
5.737732872812776
% es.tEX (V/m) @ t=0.38
-4.285300755576737
% es.tEY (V/m) @ t=0.38
0
% es.tEZ (V/m) @ t=0.38
5.737732872812769
% es.Ex (V/m) @ t=0.38
-4.285300755576723
% es.Ey (V/m) @ t=0.38
-0.46238547199508795
% es.Ez (V/m) @ t=0.38
5.737732872812776
% es.tEx (V/m) @ t=0.38
-4.285300755576737
% es.tEy (V/m) @ t=0.38
0
% es.tEz (V/m) @ t=0.38
5.737732872812769
% V (V) @ t=0.38
0.00633333174657978
% es.normE (V/m) @ t=0.4
7.785071717830241
% es.EX (V/m) @ t=0.4
-4.325888947636388
% es.EY (V/m) @ t=0.4
-0.46674541567875827
% es.EZ (V/m) @ t=0.4
5.792049009006836
% es.tEX (V/m) @ t=0.4
-4.325888947636394
% es.tEY (V/m) @ t=0.4
0
% es.tEZ (V/m) @ t=0.4
5.7920490090068295
% es.Ex (V/m) @ t=0.4
-4.325888947636388
% es.Ey (V/m) @ t=0.4
-0.46674541567875827
% es.Ez (V/m) @ t=0.4
5.792049009006836
% es.tEx (V/m) @ t=0.4
-4.325888947636394
% es.tEy (V/m) @ t=0.4
0
% es.tEz (V/m) @ t=0.4
5.7920490090068295
% V (V) @ t=0.4
0.00639325512737227
% es.normE (V/m) @ t=0.42
7.858082627707767
% es.EX (V/m) @ t=0.42
-4.366477139696041
% es.EY (V/m) @ t=0.42
-0.47110535936243925
% es.EZ (V/m) @ t=0.42
5.846365145200908
% es.tEX (V/m) @ t=0.42
-4.366477139696054
% es.tEY (V/m) @ t=0.42
0
% es.tEZ (V/m) @ t=0.42
5.846365145200897
% es.Ex (V/m) @ t=0.42
-4.366477139696041
% es.Ey (V/m) @ t=0.42
-0.47110535936243925
% es.Ez (V/m) @ t=0.42
5.846365145200908
% es.tEx (V/m) @ t=0.42
-4.366477139696054
% es.tEy (V/m) @ t=0.42
0
% es.tEz (V/m) @ t=0.42
5.846365145200897
% V (V) @ t=0.42
0.006453178508164759
% es.normE (V/m) @ t=0.44
7.931093537702139
% es.EX (V/m) @ t=0.44
-4.407065331755709
% es.EY (V/m) @ t=0.44
-0.47546530304610957
% es.EZ (V/m) @ t=0.44
5.900681281394977
% es.tEX (V/m) @ t=0.44
-4.407065331755719
% es.tEY (V/m) @ t=0.44
0
% es.tEZ (V/m) @ t=0.44
5.900681281394974
% es.Ex (V/m) @ t=0.44
-4.407065331755709
% es.Ey (V/m) @ t=0.44
-0.47546530304610957
% es.Ez (V/m) @ t=0.44
5.900681281394977
% es.tEx (V/m) @ t=0.44
-4.407065331755719
% es.tEy (V/m) @ t=0.44
0
% es.tEz (V/m) @ t=0.44
5.900681281394974
% V (V) @ t=0.44
0.006513101888957248
% es.normE (V/m) @ t=0.46
8.004104447810143
% es.EX (V/m) @ t=0.46
-4.447653523815359
% es.EY (V/m) @ t=0.46
-0.4798252467297921
% es.EZ (V/m) @ t=0.46
5.95499741758904
% es.tEX (V/m) @ t=0.46
-4.447653523815369
% es.tEY (V/m) @ t=0.46
0
% es.tEZ (V/m) @ t=0.46
5.954997417589031
% es.Ex (V/m) @ t=0.46
-4.447653523815359
% es.Ey (V/m) @ t=0.46
-0.4798252467297921
% es.Ez (V/m) @ t=0.46
5.95499741758904
% es.tEx (V/m) @ t=0.46
-4.447653523815369
% es.tEy (V/m) @ t=0.46
0
% es.tEz (V/m) @ t=0.46
5.954997417589031
% V (V) @ t=0.46
0.006573025269749738
% es.normE (V/m) @ t=0.48
8.077115358028731
% es.EX (V/m) @ t=0.48
-4.488241715875017
% es.EY (V/m) @ t=0.48
-0.4841851904134782
% es.EZ (V/m) @ t=0.48
6.0093135537831275
% es.tEX (V/m) @ t=0.48
-4.48824171587502
% es.tEY (V/m) @ t=0.48
0
% es.tEZ (V/m) @ t=0.48
6.00931355378312
% es.Ex (V/m) @ t=0.48
-4.488241715875017
% es.Ey (V/m) @ t=0.48
-0.4841851904134782
% es.Ez (V/m) @ t=0.48
6.0093135537831275
% es.tEx (V/m) @ t=0.48
-4.48824171587502
% es.tEy (V/m) @ t=0.48
0
% es.tEz (V/m) @ t=0.48
6.00931355378312
% V (V) @ t=0.48
0.0066329486505422265
% es.normE (V/m) @ t=0.5
8.1501262683549
% es.EX (V/m) @ t=0.5
-4.528829907934674
% es.EY (V/m) @ t=0.5
-0.4885451340971645
% es.EZ (V/m) @ t=0.5
6.063629689977194
% es.tEX (V/m) @ t=0.5
-4.528829907934677
% es.tEY (V/m) @ t=0.5
0
% es.tEZ (V/m) @ t=0.5
6.063629689977181
% es.Ex (V/m) @ t=0.5
-4.528829907934674
% es.Ey (V/m) @ t=0.5
-0.4885451340971645
% es.Ez (V/m) @ t=0.5
6.063629689977194
% es.tEx (V/m) @ t=0.5
-4.528829907934677
% es.tEy (V/m) @ t=0.5
0
% es.tEz (V/m) @ t=0.5
6.063629689977181
% V (V) @ t=0.5
0.006692872031334716
% es.normE (V/m) @ t=0.52
8.223137178785805
% es.EX (V/m) @ t=0.52
-4.569418099994332
% es.EY (V/m) @ t=0.52
-0.49290507778084547
% es.EZ (V/m) @ t=0.52
6.117945826171275
% es.tEX (V/m) @ t=0.52
-4.569418099994338
% es.tEY (V/m) @ t=0.52
0
% es.tEZ (V/m) @ t=0.52
6.1179458261712645
% es.Ex (V/m) @ t=0.52
-4.569418099994332
% es.Ey (V/m) @ t=0.52
-0.49290507778084547
% es.Ez (V/m) @ t=0.52
6.117945826171275
% es.tEx (V/m) @ t=0.52
-4.569418099994338
% es.tEy (V/m) @ t=0.52
0
% es.tEz (V/m) @ t=0.52
6.1179458261712645
% V (V) @ t=0.52
0.006752795412127206
% es.normE (V/m) @ t=0.54
8.29614808931865
% es.EX (V/m) @ t=0.54
-4.610006292053989
% es.EY (V/m) @ t=0.54
-0.49726502146451934
% es.EZ (V/m) @ t=0.54
6.17226196236534
% es.tEX (V/m) @ t=0.54
-4.610006292053999
% es.tEY (V/m) @ t=0.54
0
% es.tEZ (V/m) @ t=0.54
6.172261962365332
% es.Ex (V/m) @ t=0.54
-4.610006292053989
% es.Ey (V/m) @ t=0.54
-0.49726502146451934
% es.Ez (V/m) @ t=0.54
6.17226196236534
% es.tEx (V/m) @ t=0.54
-4.610006292053999
% es.tEy (V/m) @ t=0.54
0
% es.tEz (V/m) @ t=0.54
6.172261962365332
% V (V) @ t=0.54
0.006812718792919696
% es.normE (V/m) @ t=0.56
8.372955213915613
% es.EX (V/m) @ t=0.56
-4.6527039423951795
% es.EY (V/m) @ t=0.56
-0.5018525290281031
% es.EZ (V/m) @ t=0.56
6.229402453149101
% es.tEX (V/m) @ t=0.56
-4.652703942395196
% es.tEY (V/m) @ t=0.56
0
% es.tEZ (V/m) @ t=0.56
6.229402453149098
% es.Ex (V/m) @ t=0.56
-4.6527039423951795
% es.Ey (V/m) @ t=0.56
-0.5018525290281031
% es.Ez (V/m) @ t=0.56
6.229402453149101
% es.tEx (V/m) @ t=0.56
-4.652703942395196
% es.tEy (V/m) @ t=0.56
0
% es.tEz (V/m) @ t=0.56
6.229402453149098
% V (V) @ t=0.56
0.00687575963189882
% es.normE (V/m) @ t=0.58
8.454559754935918
% es.EX (V/m) @ t=0.58
-4.69806739337228
% es.EY (V/m) @ t=0.58
-0.5067276175033886
% es.EZ (V/m) @ t=0.58
6.290112185537279
% es.tEX (V/m) @ t=0.58
-4.698067393372285
% es.tEY (V/m) @ t=0.58
0
% es.tEZ (V/m) @ t=0.58
6.290112185537271
% es.Ex (V/m) @ t=0.58
-4.69806739337228
% es.Ey (V/m) @ t=0.58
-0.5067276175033886
% es.Ez (V/m) @ t=0.58
6.290112185537279
% es.tEx (V/m) @ t=0.58
-4.698067393372285
% es.tEy (V/m) @ t=0.58
0
% es.tEz (V/m) @ t=0.58
6.290112185537271
% V (V) @ t=0.58
0.006942740118364288
% es.normE (V/m) @ t=0.6
8.536164296049378
% es.EX (V/m) @ t=0.6
-4.743430844349386
% es.EY (V/m) @ t=0.6
-0.5116027059786827
% es.EZ (V/m) @ t=0.6
6.350821917925467
% es.tEX (V/m) @ t=0.6
-4.743430844349392
% es.tEY (V/m) @ t=0.6
0
% es.tEZ (V/m) @ t=0.6
6.350821917925457
% es.Ex (V/m) @ t=0.6
-4.743430844349386
% es.Ey (V/m) @ t=0.6
-0.5116027059786827
% es.Ez (V/m) @ t=0.6
6.350821917925467
% es.tEx (V/m) @ t=0.6
-4.743430844349392
% es.tEy (V/m) @ t=0.6
0
% es.tEz (V/m) @ t=0.6
6.350821917925457
% V (V) @ t=0.6
0.007009720604829758
% es.normE (V/m) @ t=0.62
8.61776883725334
% es.EX (V/m) @ t=0.62
-4.788794295326489
% es.EY (V/m) @ t=0.62
-0.5164777944539878
% es.EZ (V/m) @ t=0.62
6.411531650313667
% es.tEX (V/m) @ t=0.62
-4.788794295326495
% es.tEY (V/m) @ t=0.62
0
% es.tEZ (V/m) @ t=0.62
6.4115316503136555
% es.Ex (V/m) @ t=0.62
-4.788794295326489
% es.Ey (V/m) @ t=0.62
-0.5164777944539878
% es.Ez (V/m) @ t=0.62
6.411531650313667
% es.tEx (V/m) @ t=0.62
-4.788794295326495
% es.tEy (V/m) @ t=0.62
0
% es.tEz (V/m) @ t=0.62
6.4115316503136555
% V (V) @ t=0.62
0.007076701091295227
% es.normE (V/m) @ t=0.64
8.699373378545246
% es.EX (V/m) @ t=0.64
-4.834157746303603
% es.EY (V/m) @ t=0.64
-0.5213528829292731
% es.EZ (V/m) @ t=0.64
6.472241382701839
% es.tEX (V/m) @ t=0.64
-4.834157746303613
% es.tEY (V/m) @ t=0.64
0
% es.tEZ (V/m) @ t=0.64
6.472241382701833
% es.Ex (V/m) @ t=0.64
-4.834157746303603
% es.Ey (V/m) @ t=0.64
-0.5213528829292731
% es.Ez (V/m) @ t=0.64
6.472241382701839
% es.tEx (V/m) @ t=0.64
-4.834157746303613
% es.tEy (V/m) @ t=0.64
0
% es.tEz (V/m) @ t=0.64
6.472241382701833
% V (V) @ t=0.64
0.007143681577760697
% es.normE (V/m) @ t=0.66
8.780977919922657
% es.EX (V/m) @ t=0.66
-4.879521197280699
% es.EY (V/m) @ t=0.66
-0.5262279714045777
% es.EZ (V/m) @ t=0.66
6.532951115090034
% es.tEX (V/m) @ t=0.66
-4.8795211972807015
% es.tEY (V/m) @ t=0.66
0
% es.tEZ (V/m) @ t=0.66
6.532951115090027
% es.Ex (V/m) @ t=0.66
-4.879521197280699
% es.Ey (V/m) @ t=0.66
-0.5262279714045777
% es.Ez (V/m) @ t=0.66
6.532951115090034
% es.tEx (V/m) @ t=0.66
-4.8795211972807015
% es.tEy (V/m) @ t=0.66
0
% es.tEz (V/m) @ t=0.66
6.532951115090027
% V (V) @ t=0.66
0.007210662064226162
% es.normE (V/m) @ t=0.68
8.862582461383198
% es.EX (V/m) @ t=0.68
-4.924884648257817
% es.EY (V/m) @ t=0.68
-0.5311030598798563
% es.EZ (V/m) @ t=0.68
6.59366084747822
% es.tEX (V/m) @ t=0.68
-4.924884648257823
% es.tEY (V/m) @ t=0.68
0
% es.tEZ (V/m) @ t=0.68
6.5936608474782075
% es.Ex (V/m) @ t=0.68
-4.924884648257817
% es.Ey (V/m) @ t=0.68
-0.5311030598798563
% es.Ez (V/m) @ t=0.68
6.59366084747822
% es.tEx (V/m) @ t=0.68
-4.924884648257823
% es.tEy (V/m) @ t=0.68
0
% es.tEz (V/m) @ t=0.68
6.5936608474782075
% V (V) @ t=0.68
0.007277642550691632
% es.normE (V/m) @ t=0.7
8.944187002924613
% es.EX (V/m) @ t=0.7
-4.9702480992349125
% es.EY (V/m) @ t=0.7
-0.535978148355154
% es.EZ (V/m) @ t=0.7
6.654370579866412
% es.tEX (V/m) @ t=0.7
-4.970248099234919
% es.tEY (V/m) @ t=0.7
0
% es.tEZ (V/m) @ t=0.7
6.654370579866401
% es.Ex (V/m) @ t=0.7
-4.9702480992349125
% es.Ey (V/m) @ t=0.7
-0.535978148355154
% es.Ez (V/m) @ t=0.7
6.654370579866412
% es.tEx (V/m) @ t=0.7
-4.970248099234919
% es.tEy (V/m) @ t=0.7
0
% es.tEz (V/m) @ t=0.7
6.654370579866401
% V (V) @ t=0.7
0.0073446230371571
% es.normE (V/m) @ t=0.72
9.025791544544667
% es.EX (V/m) @ t=0.72
-5.01561155021202
% es.EY (V/m) @ t=0.72
-0.5408532368304448
% es.EZ (V/m) @ t=0.72
6.715080312254579
% es.tEX (V/m) @ t=0.72
-5.015611550212029
% es.tEY (V/m) @ t=0.72
0
% es.tEZ (V/m) @ t=0.72
6.715080312254567
% es.Ex (V/m) @ t=0.72
-5.01561155021202
% es.Ey (V/m) @ t=0.72
-0.5408532368304448
% es.Ez (V/m) @ t=0.72
6.715080312254579
% es.tEx (V/m) @ t=0.72
-5.015611550212029
% es.tEy (V/m) @ t=0.72
0
% es.tEz (V/m) @ t=0.72
6.715080312254567
% V (V) @ t=0.72
0.007411603523622569
% es.normE (V/m) @ t=0.74
9.107396086241316
% es.EX (V/m) @ t=0.74
-5.06097500118913
% es.EY (V/m) @ t=0.74
-0.5457283253057388
% es.EZ (V/m) @ t=0.74
6.775790044642785
% es.tEX (V/m) @ t=0.74
-5.0609750011891395
% es.tEY (V/m) @ t=0.74
0
% es.tEZ (V/m) @ t=0.74
6.775790044642782
% es.Ex (V/m) @ t=0.74
-5.06097500118913
% es.Ey (V/m) @ t=0.74
-0.5457283253057388
% es.Ez (V/m) @ t=0.74
6.775790044642785
% es.tEx (V/m) @ t=0.74
-5.0609750011891395
% es.tEy (V/m) @ t=0.74
0
% es.tEz (V/m) @ t=0.74
6.775790044642782
% V (V) @ t=0.74
0.007478584010088037
% es.normE (V/m) @ t=0.76
9.189000628012458
% es.EX (V/m) @ t=0.76
-5.106338452166236
% es.EY (V/m) @ t=0.76
-0.5506034137810227
% es.EZ (V/m) @ t=0.76
6.836499777030968
% es.tEX (V/m) @ t=0.76
-5.106338452166246
% es.tEY (V/m) @ t=0.76
0
% es.tEZ (V/m) @ t=0.76
6.836499777030957
% es.Ex (V/m) @ t=0.76
-5.106338452166236
% es.Ey (V/m) @ t=0.76
-0.5506034137810227
% es.Ez (V/m) @ t=0.76
6.836499777030968
% es.tEx (V/m) @ t=0.76
-5.106338452166246
% es.tEy (V/m) @ t=0.76
0
% es.tEz (V/m) @ t=0.76
6.836499777030957
% V (V) @ t=0.76
0.007545564496553506
% es.normE (V/m) @ t=0.78
9.270605169856147
% es.EX (V/m) @ t=0.78
-5.151701903143329
% es.EY (V/m) @ t=0.78
-0.5554785022563293
% es.EZ (V/m) @ t=0.78
6.897209509419153
% es.tEX (V/m) @ t=0.78
-5.151701903143335
% es.tEY (V/m) @ t=0.78
0
% es.tEZ (V/m) @ t=0.78
6.897209509419151
% es.Ex (V/m) @ t=0.78
-5.151701903143329
% es.Ey (V/m) @ t=0.78
-0.5554785022563293
% es.Ez (V/m) @ t=0.78
6.897209509419153
% es.tEx (V/m) @ t=0.78
-5.151701903143335
% es.tEy (V/m) @ t=0.78
0
% es.tEz (V/m) @ t=0.78
6.897209509419151
% V (V) @ t=0.78
0.007612544983018974
% es.normE (V/m) @ t=0.8
9.352209711770499
% es.EX (V/m) @ t=0.8
-5.197065354120443
% es.EY (V/m) @ t=0.8
-0.5603535907316128
% es.EZ (V/m) @ t=0.8
6.9579192418073506
% es.tEX (V/m) @ t=0.8
-5.197065354120452
% es.tEY (V/m) @ t=0.8
0
% es.tEZ (V/m) @ t=0.8
6.957919241807341
% es.Ex (V/m) @ t=0.8
-5.197065354120443
% es.Ey (V/m) @ t=0.8
-0.5603535907316128
% es.Ez (V/m) @ t=0.8
6.9579192418073506
% es.tEx (V/m) @ t=0.8
-5.197065354120452
% es.tEy (V/m) @ t=0.8
0
% es.tEz (V/m) @ t=0.8
6.957919241807341
% V (V) @ t=0.8
0.007679525469484442
% es.normE (V/m) @ t=0.82
9.433814253753646
% es.EX (V/m) @ t=0.82
-5.242428805097546
% es.EY (V/m) @ t=0.82
-0.5652286792069072
% es.EZ (V/m) @ t=0.82
7.018628974195524
% es.tEX (V/m) @ t=0.82
-5.242428805097563
% es.tEY (V/m) @ t=0.82
0
% es.tEZ (V/m) @ t=0.82
7.018628974195518
% es.Ex (V/m) @ t=0.82
-5.242428805097546
% es.Ey (V/m) @ t=0.82
-0.5652286792069072
% es.Ez (V/m) @ t=0.82
7.018628974195524
% es.tEx (V/m) @ t=0.82
-5.242428805097563
% es.tEy (V/m) @ t=0.82
0
% es.tEz (V/m) @ t=0.82
7.018628974195518
% V (V) @ t=0.82
0.007746505955949911
% es.normE (V/m) @ t=0.84
9.522003282164075
% es.EX (V/m) @ t=0.84
-5.2913942478862195
% es.EY (V/m) @ t=0.84
-0.5705514338272677
% es.EZ (V/m) @ t=0.84
7.084248413173283
% es.tEX (V/m) @ t=0.84
-5.2913942478862355
% es.tEY (V/m) @ t=0.84
0
% es.tEZ (V/m) @ t=0.84
7.0842484131732775
% es.Ex (V/m) @ t=0.84
-5.2913942478862195
% es.Ey (V/m) @ t=0.84
-0.5705514338272677
% es.Ez (V/m) @ t=0.84
7.084248413173283
% es.tEx (V/m) @ t=0.84
-5.2913942478862355
% es.tEy (V/m) @ t=0.84
0
% es.tEz (V/m) @ t=0.84
7.0842484131732775
% V (V) @ t=0.84
0.007818999376102647
% es.normE (V/m) @ t=0.86
9.613469781578683
% es.EX (V/m) @ t=0.86
-5.342152604944214
% es.EY (V/m) @ t=0.86
-0.5760970171105619
% es.EZ (V/m) @ t=0.86
7.152311689745125
% es.tEX (V/m) @ t=0.86
-5.342152604944224
% es.tEY (V/m) @ t=0.86
0
% es.tEZ (V/m) @ t=0.86
7.152311689745119
% es.Ex (V/m) @ t=0.86
-5.342152604944214
% es.Ey (V/m) @ t=0.86
-0.5760970171105619
% es.Ez (V/m) @ t=0.86
7.152311689745125
% es.tEx (V/m) @ t=0.86
-5.342152604944224
% es.tEy (V/m) @ t=0.86
0
% es.tEz (V/m) @ t=0.86
7.152311689745119
% V (V) @ t=0.86
0.007894236893963227
% es.normE (V/m) @ t=0.88
9.70493628233335
% es.EX (V/m) @ t=0.88
-5.392910962002225
% es.EY (V/m) @ t=0.88
-0.5816426003938628
% es.EZ (V/m) @ t=0.88
7.220374966316964
% es.tEX (V/m) @ t=0.88
-5.392910962002234
% es.tEY (V/m) @ t=0.88
0
% es.tEZ (V/m) @ t=0.88
7.220374966316952
% es.Ex (V/m) @ t=0.88
-5.392910962002225
% es.Ey (V/m) @ t=0.88
-0.5816426003938628
% es.Ez (V/m) @ t=0.88
7.220374966316964
% es.tEx (V/m) @ t=0.88
-5.392910962002234
% es.tEy (V/m) @ t=0.88
0
% es.tEz (V/m) @ t=0.88
7.220374966316952
% V (V) @ t=0.88
0.007969474411823808
% es.normE (V/m) @ t=0.9
9.796402784390535
% es.EX (V/m) @ t=0.9
-5.443669319060228
% es.EY (V/m) @ t=0.9
-0.587188183677203
% es.EZ (V/m) @ t=0.9
7.288438242888826
% es.tEX (V/m) @ t=0.9
-5.4436693190602305
% es.tEY (V/m) @ t=0.9
0
% es.tEZ (V/m) @ t=0.9
7.288438242888818
% es.Ex (V/m) @ t=0.9
-5.443669319060228
% es.Ey (V/m) @ t=0.9
-0.587188183677203
% es.Ez (V/m) @ t=0.9
7.288438242888826
% es.tEx (V/m) @ t=0.9
-5.4436693190602305
% es.tEy (V/m) @ t=0.9
0
% es.tEz (V/m) @ t=0.9
7.288438242888818
% V (V) @ t=0.9
0.008044711929684391
% es.normE (V/m) @ t=0.92
9.88786928771405
% es.EX (V/m) @ t=0.92
-5.49442767611823
% es.EY (V/m) @ t=0.92
-0.592733766960527
% es.EZ (V/m) @ t=0.92
7.356501519460668
% es.tEX (V/m) @ t=0.92
-5.49442767611824
% es.tEY (V/m) @ t=0.92
0
% es.tEZ (V/m) @ t=0.92
7.356501519460659
% es.Ex (V/m) @ t=0.92
-5.49442767611823
% es.Ey (V/m) @ t=0.92
-0.592733766960527
% es.Ez (V/m) @ t=0.92
7.356501519460668
% es.tEx (V/m) @ t=0.92
-5.49442767611824
% es.tEy (V/m) @ t=0.92
0
% es.tEz (V/m) @ t=0.92
7.356501519460659
% V (V) @ t=0.92
0.008119949447544973
% es.normE (V/m) @ t=0.94
9.979335792269087
% es.EX (V/m) @ t=0.94
-5.54518603317623
% es.EY (V/m) @ t=0.94
-0.5982793502438297
% es.EZ (V/m) @ t=0.94
7.4245647960325
% es.tEX (V/m) @ t=0.94
-5.545186033176243
% es.tEY (V/m) @ t=0.94
0
% es.tEZ (V/m) @ t=0.94
7.424564796032494
% es.Ex (V/m) @ t=0.94
-5.54518603317623
% es.Ey (V/m) @ t=0.94
-0.5982793502438297
% es.Ez (V/m) @ t=0.94
7.4245647960325
% es.tEx (V/m) @ t=0.94
-5.545186033176243
% es.tEy (V/m) @ t=0.94
0
% es.tEz (V/m) @ t=0.94
7.424564796032494
% V (V) @ t=0.94
0.008195186965405554
% es.normE (V/m) @ t=0.96
10.070802298022091
% es.EX (V/m) @ t=0.96
-5.59594439023423
% es.EY (V/m) @ t=0.96
-0.6038249335271502
% es.EZ (V/m) @ t=0.96
7.492628072604361
% es.tEX (V/m) @ t=0.96
-5.595944390234235
% es.tEY (V/m) @ t=0.96
0
% es.tEZ (V/m) @ t=0.96
7.492628072604352
% es.Ex (V/m) @ t=0.96
-5.59594439023423
% es.Ey (V/m) @ t=0.96
-0.6038249335271502
% es.Ez (V/m) @ t=0.96
7.492628072604361
% es.tEx (V/m) @ t=0.96
-5.595944390234235
% es.tEy (V/m) @ t=0.96
0
% es.tEz (V/m) @ t=0.96
7.492628072604352
% V (V) @ t=0.96
0.008270424483266134
% es.normE (V/m) @ t=0.98
10.162268804940695
% es.EX (V/m) @ t=0.98
-5.646702747292239
% es.EY (V/m) @ t=0.98
-0.6093705168104693
% es.EZ (V/m) @ t=0.98
7.5606913491761825
% es.tEX (V/m) @ t=0.98
-5.646702747292245
% es.tEY (V/m) @ t=0.98
0
% es.tEZ (V/m) @ t=0.98
7.560691349176174
% es.Ex (V/m) @ t=0.98
-5.646702747292239
% es.Ey (V/m) @ t=0.98
-0.6093705168104693
% es.Ez (V/m) @ t=0.98
7.5606913491761825
% es.tEx (V/m) @ t=0.98
-5.646702747292245
% es.tEy (V/m) @ t=0.98
0
% es.tEz (V/m) @ t=0.98
7.560691349176174
% V (V) @ t=0.98
0.008345662001126715
% es.normE (V/m) @ t=1
10.25373531299373
% es.EX (V/m) @ t=1
-5.697461104350236
% es.EY (V/m) @ t=1
-0.6149161000938059
% es.EZ (V/m) @ t=1
7.628754625748033
% es.tEX (V/m) @ t=1
-5.697461104350241
% es.tEY (V/m) @ t=1
0
% es.tEZ (V/m) @ t=1
7.628754625748021
% es.Ex (V/m) @ t=1
-5.697461104350236
% es.Ey (V/m) @ t=1
-0.6149161000938059
% es.Ez (V/m) @ t=1
7.628754625748033
% es.tEx (V/m) @ t=1
-5.697461104350241
% es.tEy (V/m) @ t=1
0
% es.tEz (V/m) @ t=1
7.628754625748021
% V (V) @ t=1
0.008420899518987298
% es.normE (V/m) @ t=1.02
10.345201822151044
% es.EX (V/m) @ t=1.02
-5.7482194614082385
% es.EY (V/m) @ t=1.02
-0.6204616833770946
% es.EZ (V/m) @ t=1.02
7.696817902319876
% es.tEX (V/m) @ t=1.02
-5.748219461408252
% es.tEY (V/m) @ t=1.02
0
% es.tEZ (V/m) @ t=1.02
7.6968179023198635
% es.Ex (V/m) @ t=1.02
-5.7482194614082385
% es.Ey (V/m) @ t=1.02
-0.6204616833770946
% es.Ez (V/m) @ t=1.02
7.696817902319876
% es.tEx (V/m) @ t=1.02
-5.748219461408252
% es.tEy (V/m) @ t=1.02
0
% es.tEz (V/m) @ t=1.02
7.6968179023198635
% V (V) @ t=1.02
0.00849613703684788
% es.normE (V/m) @ t=1.04
10.436668332383661
% es.EX (V/m) @ t=1.04
-5.798977818466235
% es.EY (V/m) @ t=1.04
-0.6260072666604239
% es.EZ (V/m) @ t=1.04
7.764881178891738
% es.tEX (V/m) @ t=1.04
-5.798977818466241
% es.tEY (V/m) @ t=1.04
0
% es.tEZ (V/m) @ t=1.04
7.764881178891722
% es.Ex (V/m) @ t=1.04
-5.798977818466235
% es.Ey (V/m) @ t=1.04
-0.6260072666604239
% es.Ez (V/m) @ t=1.04
7.764881178891738
% es.tEx (V/m) @ t=1.04
-5.798977818466241
% es.tEy (V/m) @ t=1.04
0
% es.tEz (V/m) @ t=1.04
7.764881178891722
% V (V) @ t=1.04