% Model:              1 neuron.mph
% Version:            COMSOL 6.0.0.405
% Date:               Mar 16 2023, 18:34
% Dimension:          0
% Nodes:              14017
% Expressions:        14017
% Description:        Electric field norm, Electric field, X component, Electric field, Y component, Electric field, Z component, Tangential electric field, X component, Tangential electric field, Y component, Tangential electric field, Z component, Electric field, x component, Electric field, y component, Electric field, z component, Tangential electric field, x component, Tangential electric field, y component, Tangential electric field, z component, Electric potential
% Length unit:        mm
% x
1.66
% y
12.2
% z
2
% es.normE (V/m) @ t=0
2.1645730767978573
% es.EX (V/m) @ t=0
-0.6457351614177526
% es.EY (V/m) @ t=0
0.04823322108938562
% es.EZ (V/m) @ t=0
-2.06197272303676
% es.tEX (V/m) @ t=0
-0.6457351614177576
% es.tEY (V/m) @ t=0
0
% es.tEZ (V/m) @ t=0
-2.0619727230367904
% es.Ex (V/m) @ t=0
-0.6457351614177526
% es.Ey (V/m) @ t=0
0.04823322108938562
% es.Ez (V/m) @ t=0
-2.06197272303676
% es.tEx (V/m) @ t=0
-0.6457351614177576
% es.tEy (V/m) @ t=0
0
% es.tEz (V/m) @ t=0
-2.0619727230367904
% V (V) @ t=0
0.010880055187944881
% es.normE (V/m) @ t=0.02
1.87994987487991
% es.EX (V/m) @ t=0.02
-0.5608264059600678
% es.EY (V/m) @ t=0.02
0.041890959233846684
% es.EZ (V/m) @ t=0.02
-1.7908406064045033
% es.tEX (V/m) @ t=0.02
-0.5608264059600749
% es.tEY (V/m) @ t=0.02
0
% es.tEZ (V/m) @ t=0.02
-1.7908406064045126
% es.Ex (V/m) @ t=0.02
-0.5608264059600678
% es.Ey (V/m) @ t=0.02
0.041890959233846684
% es.Ez (V/m) @ t=0.02
-1.7908406064045033
% es.tEx (V/m) @ t=0.02
-0.5608264059600749
% es.tEy (V/m) @ t=0.02
0
% es.tEz (V/m) @ t=0.02
-1.7908406064045126
% V (V) @ t=0.02
0.0094494191400858
% es.normE (V/m) @ t=0.04
1.9078261673020283
% es.EX (V/m) @ t=0.04
-0.5691424564453783
% es.EY (V/m) @ t=0.04
0.04251212484565506
% es.EZ (V/m) @ t=0.04
-1.8173955684258938
% es.tEX (V/m) @ t=0.04
-0.569142456445384
% es.tEY (V/m) @ t=0.04
0
% es.tEZ (V/m) @ t=0.04
-1.8173955684259075
% es.Ex (V/m) @ t=0.04
-0.5691424564453783
% es.Ey (V/m) @ t=0.04
0.04251212484565506
% es.Ez (V/m) @ t=0.04
-1.8173955684258938
% es.tEx (V/m) @ t=0.04
-0.569142456445384
% es.tEy (V/m) @ t=0.04
0
% es.tEz (V/m) @ t=0.04
-1.8173955684259075
% V (V) @ t=0.04
0.009589537179774676
% es.normE (V/m) @ t=0.06
1.936124693393288
% es.EX (V/m) @ t=0.06
-0.5775844626672546
% es.EY (V/m) @ t=0.06
0.043142691916588635
% es.EZ (V/m) @ t=0.06
-1.844352752222755
% es.tEX (V/m) @ t=0.06
-0.5775844626672573
% es.tEY (V/m) @ t=0.06
0
% es.tEZ (V/m) @ t=0.06
-1.8443527522227692
% es.Ex (V/m) @ t=0.06
-0.5775844626672546
% es.Ey (V/m) @ t=0.06
0.043142691916588635
% es.Ez (V/m) @ t=0.06
-1.844352752222755
% es.tEx (V/m) @ t=0.06
-0.5775844626672573
% es.tEy (V/m) @ t=0.06
0
% es.tEz (V/m) @ t=0.06
-1.8443527522227692
% V (V) @ t=0.06
0.009731777742947794
% es.normE (V/m) @ t=0.08
1.9651357756851606
% es.EX (V/m) @ t=0.08
-0.5862390241271851
% es.EY (V/m) @ t=0.08
0.0437891153244514
% es.EZ (V/m) @ t=0.08
-1.8719887227734255
% es.tEX (V/m) @ t=0.08
-0.5862390241271918
% es.tEY (V/m) @ t=0.08
0
% es.tEZ (V/m) @ t=0.08
-1.8719887227734429
% es.Ex (V/m) @ t=0.08
-0.5862390241271851
% es.Ey (V/m) @ t=0.08
0.0437891153244514
% es.Ez (V/m) @ t=0.08
-1.8719887227734255
% es.tEx (V/m) @ t=0.08
-0.5862390241271918
% es.tEy (V/m) @ t=0.08
0
% es.tEz (V/m) @ t=0.08
-1.8719887227734429
% V (V) @ t=0.08
0.009877600507104982
% es.normE (V/m) @ t=0.1
1.9946633758783086
% es.EX (V/m) @ t=0.1
-0.5950476626765706
% es.EY (V/m) @ t=0.1
0.04444703267742402
% es.EZ (V/m) @ t=0.1
-1.9001167324210666
% es.tEX (V/m) @ t=0.1
-0.5950476626765813
% es.tEY (V/m) @ t=0.1
0
% es.tEZ (V/m) @ t=0.1
-1.9001167324210817
% es.Ex (V/m) @ t=0.1
-0.5950476626765706
% es.Ey (V/m) @ t=0.1
0.04444703267742402
% es.Ez (V/m) @ t=0.1
-1.9001167324210666
% es.tEx (V/m) @ t=0.1
-0.5950476626765813
% es.tEy (V/m) @ t=0.1
0
% es.tEz (V/m) @ t=0.1
-1.9001167324210817
% V (V) @ t=0.1
0.01002601993792888
% es.normE (V/m) @ t=0.12
2.0241909760714822
% es.EX (V/m) @ t=0.12
-0.6038563012259677
% es.EY (V/m) @ t=0.12
0.045104950030401714
% es.EZ (V/m) @ t=0.12
-1.9282447420687294
% es.tEX (V/m) @ t=0.12
-0.6038563012259743
% es.tEY (V/m) @ t=0.12
0
% es.tEZ (V/m) @ t=0.12
-1.928244742068748
% es.Ex (V/m) @ t=0.12
-0.6038563012259677
% es.Ey (V/m) @ t=0.12
0.045104950030401714
% es.Ez (V/m) @ t=0.12
-1.9282447420687294
% es.tEx (V/m) @ t=0.12
-0.6038563012259743
% es.tEy (V/m) @ t=0.12
0
% es.tEz (V/m) @ t=0.12
-1.928244742068748
% V (V) @ t=0.12
0.010174439368752777
% es.normE (V/m) @ t=0.14
2.0541700456995207
% es.EX (V/m) @ t=0.14
-0.6127996467667349
% es.EY (V/m) @ t=0.14
0.045772964285346024
% es.EZ (V/m) @ t=0.14
-1.9568028120445473
% es.tEX (V/m) @ t=0.14
-0.6127996467667423
% es.tEY (V/m) @ t=0.14
0
% es.tEZ (V/m) @ t=0.14
-1.9568028120445673
% es.Ex (V/m) @ t=0.14
-0.6127996467667349
% es.Ey (V/m) @ t=0.14
0.045772964285346024
% es.Ez (V/m) @ t=0.14
-1.9568028120445473
% es.tEx (V/m) @ t=0.14
-0.6127996467667423
% es.tEy (V/m) @ t=0.14
0
% es.tEz (V/m) @ t=0.14
-1.9568028120445673
% V (V) @ t=0.14
0.010325127061294924
% es.normE (V/m) @ t=0.16
2.086361311409503
% es.EX (V/m) @ t=0.16
-0.6224030553272997
% es.EY (V/m) @ t=0.16
0.0464904532671183
% es.EZ (V/m) @ t=0.16
-1.9874681736761666
% es.tEX (V/m) @ t=0.16
-0.622403055327311
% es.tEY (V/m) @ t=0.16
0
% es.tEZ (V/m) @ t=0.16
-1.9874681736761861
% es.Ex (V/m) @ t=0.16
-0.6224030553272997
% es.Ey (V/m) @ t=0.16
0.0464904532671183
% es.Ez (V/m) @ t=0.16
-1.9874681736761666
% es.tEx (V/m) @ t=0.16
-0.622403055327311
% es.tEy (V/m) @ t=0.16
0
% es.tEz (V/m) @ t=0.16
-1.9874681736761861
% V (V) @ t=0.16
0.010486929215411446
% es.normE (V/m) @ t=0.18
2.118552577119508
% es.EX (V/m) @ t=0.18
-0.6320064638878609
% es.EY (V/m) @ t=0.18
0.04720794224888171
% es.EZ (V/m) @ t=0.18
-2.018133535307786
% es.tEX (V/m) @ t=0.18
-0.6320064638878726
% es.tEY (V/m) @ t=0.18
0
% es.tEZ (V/m) @ t=0.18
-2.018133535307798
% es.Ex (V/m) @ t=0.18
-0.6320064638878609
% es.Ey (V/m) @ t=0.18
0.04720794224888171
% es.Ez (V/m) @ t=0.18
-2.018133535307786
% es.tEx (V/m) @ t=0.18
-0.6320064638878726
% es.tEy (V/m) @ t=0.18
0
% es.tEz (V/m) @ t=0.18
-2.018133535307798
% V (V) @ t=0.18
0.010648731369527967
% es.normE (V/m) @ t=0.2
2.150743842829555
% es.EX (V/m) @ t=0.2
-0.6416098724484183
% es.EY (V/m) @ t=0.2
0.047925431230648685
% es.EZ (V/m) @ t=0.2
-2.0487988969394273
% es.tEX (V/m) @ t=0.2
-0.6416098724484236
% es.tEY (V/m) @ t=0.2
0
% es.tEZ (V/m) @ t=0.2
-2.04879889693943
% es.Ex (V/m) @ t=0.2
-0.6416098724484183
% es.Ey (V/m) @ t=0.2
0.047925431230648685
% es.Ez (V/m) @ t=0.2
-2.0487988969394273
% es.tEx (V/m) @ t=0.2
-0.6416098724484236
% es.tEy (V/m) @ t=0.2
0
% es.tEz (V/m) @ t=0.2
-2.04879889693943
% V (V) @ t=0.2
0.010810533523644488
% es.normE (V/m) @ t=0.22
2.182935108539592
% es.EX (V/m) @ t=0.22
-0.6512132810089892
% es.EY (V/m) @ t=0.22
0.04864292021241409
% es.EZ (V/m) @ t=0.22
-2.079464258571032
% es.tEX (V/m) @ t=0.22
-0.6512132810089959
% es.tEY (V/m) @ t=0.22
0
% es.tEZ (V/m) @ t=0.22
-2.0794642585710417
% es.Ex (V/m) @ t=0.22
-0.6512132810089892
% es.Ey (V/m) @ t=0.22
0.04864292021241409
% es.Ez (V/m) @ t=0.22
-2.079464258571032
% es.tEx (V/m) @ t=0.22
-0.6512132810089959
% es.tEy (V/m) @ t=0.22
0
% es.tEz (V/m) @ t=0.22
-2.0794642585710417
% V (V) @ t=0.22
0.010972335677761007
% es.normE (V/m) @ t=0.24
2.215126374249676
% es.EX (V/m) @ t=0.24
-0.6608166895695531
% es.EY (V/m) @ t=0.24
0.04936040919417416
% es.EZ (V/m) @ t=0.24
-2.110129620202666
% es.tEX (V/m) @ t=0.24
-0.6608166895695575
% es.tEY (V/m) @ t=0.24
0
% es.tEZ (V/m) @ t=0.24
-2.1101296202026756
% es.Ex (V/m) @ t=0.24
-0.6608166895695531
% es.Ey (V/m) @ t=0.24
0.04936040919417416
% es.Ez (V/m) @ t=0.24
-2.110129620202666
% es.tEx (V/m) @ t=0.24
-0.6608166895695575
% es.tEy (V/m) @ t=0.24
0
% es.tEz (V/m) @ t=0.24
-2.1101296202026756
% V (V) @ t=0.24
0.011134137831877526
% es.normE (V/m) @ t=0.26
2.2473176399597645
% es.EX (V/m) @ t=0.26
-0.6704200981301087
% es.EY (V/m) @ t=0.26
0.05007789817595357
% es.EZ (V/m) @ t=0.26
-2.1407949818342855
% es.tEX (V/m) @ t=0.26
-0.6704200981301156
% es.tEY (V/m) @ t=0.26
0
% es.tEZ (V/m) @ t=0.26
-2.1407949818342997
% es.Ex (V/m) @ t=0.26
-0.6704200981301087
% es.Ey (V/m) @ t=0.26
0.05007789817595357
% es.Ez (V/m) @ t=0.26
-2.1407949818342855
% es.tEx (V/m) @ t=0.26
-0.6704200981301156
% es.tEy (V/m) @ t=0.26
0
% es.tEz (V/m) @ t=0.26
-2.1407949818342997
% V (V) @ t=0.26
0.011295939985994048
% es.normE (V/m) @ t=0.28
2.280512788130595
% es.EX (V/m) @ t=0.28
-0.6803229571132547
% es.EY (V/m) @ t=0.28
0.05081771535295271
% es.EZ (V/m) @ t=0.28
-2.172416652785909
% es.tEX (V/m) @ t=0.28
-0.6803229571132583
% es.tEY (V/m) @ t=0.28
0
% es.tEZ (V/m) @ t=0.28
-2.1724166527859268
% es.Ex (V/m) @ t=0.28
-0.6803229571132547
% es.Ey (V/m) @ t=0.28
0.05081771535295271
% es.Ez (V/m) @ t=0.28
-2.172416652785909
% es.tEx (V/m) @ t=0.28
-0.6803229571132583
% es.tEy (V/m) @ t=0.28
0
% es.tEz (V/m) @ t=0.28
-2.1724166527859268
% V (V) @ t=0.28
0.01146278921360835
% es.normE (V/m) @ t=0.3
2.3155807174847443
% es.EX (V/m) @ t=0.3
-0.6907844523299064
% es.EY (V/m) @ t=0.3
0.05159918663342096
% es.EZ (V/m) @ t=0.3
-2.2058223554045906
% es.tEX (V/m) @ t=0.3
-0.6907844523299111
% es.tEY (V/m) @ t=0.3
0
% es.tEZ (V/m) @ t=0.3
-2.2058223554046004
% es.Ex (V/m) @ t=0.3
-0.6907844523299064
% es.Ey (V/m) @ t=0.3
0.05159918663342096
% es.Ez (V/m) @ t=0.3
-2.2058223554045906
% es.tEx (V/m) @ t=0.3
-0.6907844523299111
% es.tEy (V/m) @ t=0.3
0
% es.tEz (V/m) @ t=0.3
-2.2058223554046004
% V (V) @ t=0.3
0.011639053950156606
% es.normE (V/m) @ t=0.32
2.350648646838893
% es.EX (V/m) @ t=0.32
-0.7012459475465589
% es.EY (V/m) @ t=0.32
0.05238065791390875
% es.EZ (V/m) @ t=0.32
-2.239228058023272
% es.tEX (V/m) @ t=0.32
-0.7012459475465675
% es.tEY (V/m) @ t=0.32
0
% es.tEZ (V/m) @ t=0.32
-2.2392280580232944
% es.Ex (V/m) @ t=0.32
-0.7012459475465589
% es.Ey (V/m) @ t=0.32
0.05238065791390875
% es.Ez (V/m) @ t=0.32
-2.239228058023272
% es.tEx (V/m) @ t=0.32
-0.7012459475465675
% es.tEy (V/m) @ t=0.32
0
% es.tEz (V/m) @ t=0.32
-2.2392280580232944
% V (V) @ t=0.32
0.01181531868670486
% es.normE (V/m) @ t=0.34
2.3857165761930625
% es.EX (V/m) @ t=0.34
-0.7117074427632109
% es.EY (V/m) @ t=0.34
0.05316212919440845
% es.EZ (V/m) @ t=0.34
-2.272633760641974
% es.tEX (V/m) @ t=0.34
-0.711707442763224
% es.tEY (V/m) @ t=0.34
0
% es.tEZ (V/m) @ t=0.34
-2.272633760641974
% es.Ex (V/m) @ t=0.34
-0.7117074427632109
% es.Ey (V/m) @ t=0.34
0.05316212919440845
% es.Ez (V/m) @ t=0.34
-2.272633760641974
% es.tEx (V/m) @ t=0.34
-0.711707442763224
% es.tEy (V/m) @ t=0.34
0
% es.tEz (V/m) @ t=0.34
-2.272633760641974
% V (V) @ t=0.34
0.011991583423253115
% es.normE (V/m) @ t=0.36
2.420784505547185
% es.EX (V/m) @ t=0.36
-0.7221689379798555
% es.EY (V/m) @ t=0.36
0.05394360047488936
% es.EZ (V/m) @ t=0.36
-2.3060394632606265
% es.tEX (V/m) @ t=0.36
-0.7221689379798661
% es.tEY (V/m) @ t=0.36
0
% es.tEZ (V/m) @ t=0.36
-2.306039463260646
% es.Ex (V/m) @ t=0.36
-0.7221689379798555
% es.Ey (V/m) @ t=0.36
0.05394360047488936
% es.Ez (V/m) @ t=0.36
-2.3060394632606265
% es.tEx (V/m) @ t=0.36
-0.7221689379798661
% es.tEy (V/m) @ t=0.36
0
% es.tEz (V/m) @ t=0.36
-2.306039463260646
% V (V) @ t=0.36
0.012167848159801372
% es.normE (V/m) @ t=0.38
2.45585243490135
% es.EX (V/m) @ t=0.38
-0.7326304331965089
% es.EY (V/m) @ t=0.38
0.05472507175536294
% es.EZ (V/m) @ t=0.38
-2.3394451658793223
% es.tEX (V/m) @ t=0.38
-0.732630433196519
% es.tEY (V/m) @ t=0.38
0
% es.tEZ (V/m) @ t=0.38
-2.339445165879333
% es.Ex (V/m) @ t=0.38
-0.7326304331965089
% es.Ey (V/m) @ t=0.38
0.05472507175536294
% es.Ez (V/m) @ t=0.38
-2.3394451658793223
% es.tEx (V/m) @ t=0.38
-0.732630433196519
% es.tEy (V/m) @ t=0.38
0
% es.tEz (V/m) @ t=0.38
-2.339445165879333
% V (V) @ t=0.38
0.012344112896349624
% es.normE (V/m) @ t=0.4
2.4909203642555093
% es.EX (V/m) @ t=0.4
-0.7430919284131605
% es.EY (V/m) @ t=0.4
0.055506543035838074
% es.EZ (V/m) @ t=0.4
-2.372850868498011
% es.tEX (V/m) @ t=0.4
-0.7430919284131683
% es.tEY (V/m) @ t=0.4
0
% es.tEZ (V/m) @ t=0.4
-2.372850868498027
% es.Ex (V/m) @ t=0.4
-0.7430919284131605
% es.Ey (V/m) @ t=0.4
0.055506543035838074
% es.Ez (V/m) @ t=0.4
-2.372850868498011
% es.tEx (V/m) @ t=0.4
-0.7430919284131683
% es.tEy (V/m) @ t=0.4
0
% es.tEz (V/m) @ t=0.4
-2.372850868498027
% V (V) @ t=0.4
0.01252037763289788
% es.normE (V/m) @ t=0.42
2.527623167226727
% es.EX (V/m) @ t=0.42
-0.7540411750457566
% es.EY (V/m) @ t=0.42
0.05632449822999004
% es.EZ (V/m) @ t=0.42
-2.4078139380620724
% es.tEX (V/m) @ t=0.42
-0.7540411750457565
% es.tEY (V/m) @ t=0.42
0
% es.tEZ (V/m) @ t=0.42
-2.407813938062076
% es.Ex (V/m) @ t=0.42
-0.7540411750457566
% es.Ey (V/m) @ t=0.42
0.05632449822999004
% es.Ez (V/m) @ t=0.42
-2.4078139380620724
% es.tEx (V/m) @ t=0.42
-0.7540411750457565
% es.tEy (V/m) @ t=0.42
0
% es.tEz (V/m) @ t=0.42
-2.407813938062076
% V (V) @ t=0.42
0.012704858446016007
% es.normE (V/m) @ t=0.44
2.5657847683973483
% es.EX (V/m) @ t=0.44
-0.7654256424072858
% es.EY (V/m) @ t=0.44
0.05717500803080103
% es.EZ (V/m) @ t=0.44
-2.4441666466000616
% es.tEX (V/m) @ t=0.44
-0.765425642407294
% es.tEY (V/m) @ t=0.44
0
% es.tEZ (V/m) @ t=0.44
-2.4441666466000838
% es.Ex (V/m) @ t=0.44
-0.7654256424072858
% es.Ey (V/m) @ t=0.44
0.05717500803080103
% es.Ez (V/m) @ t=0.44
-2.4441666466000616
% es.tEx (V/m) @ t=0.44
-0.765425642407294
% es.tEy (V/m) @ t=0.44
0
% es.tEz (V/m) @ t=0.44
-2.4441666466000838
% V (V) @ t=0.44
0.012896670466623978
% es.normE (V/m) @ t=0.46
2.603946369567978
% es.EX (V/m) @ t=0.46
-0.7768101097688027
% es.EY (V/m) @ t=0.46
0.058025517831592696
% es.EZ (V/m) @ t=0.46
-2.4805193551380507
% es.tEX (V/m) @ t=0.46
-0.7768101097688103
% es.tEY (V/m) @ t=0.46
0
% es.tEZ (V/m) @ t=0.46
-2.4805193551380906
% es.Ex (V/m) @ t=0.46
-0.7768101097688027
% es.Ey (V/m) @ t=0.46
0.058025517831592696
% es.Ez (V/m) @ t=0.46
-2.4805193551380507
% es.tEx (V/m) @ t=0.46
-0.7768101097688103
% es.tEy (V/m) @ t=0.46
0
% es.tEz (V/m) @ t=0.46
-2.4805193551380906
% V (V) @ t=0.46
0.013088482487231944
% es.normE (V/m) @ t=0.48
2.6421079707386452
% es.EX (V/m) @ t=0.48
-0.7881945771303243
% es.EY (V/m) @ t=0.48
0.05887602763240567
% es.EZ (V/m) @ t=0.48
-2.516872063676068
% es.tEX (V/m) @ t=0.48
-0.7881945771303265
% es.tEY (V/m) @ t=0.48
0
% es.tEZ (V/m) @ t=0.48
-2.51687206367607
% es.Ex (V/m) @ t=0.48
-0.7881945771303243
% es.Ey (V/m) @ t=0.48
0.05887602763240567
% es.Ez (V/m) @ t=0.48
-2.516872063676068
% es.tEx (V/m) @ t=0.48
-0.7881945771303265
% es.tEy (V/m) @ t=0.48
0
% es.tEz (V/m) @ t=0.48
-2.51687206367607
% V (V) @ t=0.48
0.01328029450783991
% es.normE (V/m) @ t=0.5
2.6802695719093053
% es.EX (V/m) @ t=0.5
-0.7995790444918491
% es.EY (V/m) @ t=0.5
0.059726537433209506
% es.EZ (V/m) @ t=0.5
-2.5532247722140635
% es.tEX (V/m) @ t=0.5
-0.7995790444918569
% es.tEY (V/m) @ t=0.5
0
% es.tEZ (V/m) @ t=0.5
-2.55322477221409
% es.Ex (V/m) @ t=0.5
-0.7995790444918491
% es.Ey (V/m) @ t=0.5
0.059726537433209506
% es.Ez (V/m) @ t=0.5
-2.5532247722140635
% es.tEx (V/m) @ t=0.5
-0.7995790444918569
% es.tEy (V/m) @ t=0.5
0
% es.tEz (V/m) @ t=0.5
-2.55322477221409
% V (V) @ t=0.5
0.013472106528447877
% es.normE (V/m) @ t=0.52
2.7184311730799666
% es.EX (V/m) @ t=0.52
-0.8109635118533705
% es.EY (V/m) @ t=0.52
0.06057704723400828
% es.EZ (V/m) @ t=0.52
-2.5895774807520526
% es.tEX (V/m) @ t=0.52
-0.8109635118533802
% es.tEY (V/m) @ t=0.52
0
% es.tEZ (V/m) @ t=0.52
-2.5895774807520837
% es.Ex (V/m) @ t=0.52
-0.8109635118533705
% es.Ey (V/m) @ t=0.52
0.06057704723400828
% es.Ez (V/m) @ t=0.52
-2.5895774807520526
% es.tEx (V/m) @ t=0.52
-0.8109635118533802
% es.tEy (V/m) @ t=0.52
0
% es.tEz (V/m) @ t=0.52
-2.5895774807520837
% V (V) @ t=0.52
0.013663918549055845
% es.normE (V/m) @ t=0.54
2.75659277425065
% es.EX (V/m) @ t=0.54
-0.8223479792148849
% es.EY (V/m) @ t=0.54
0.06142755703482301
% es.EZ (V/m) @ t=0.54
-2.625930189290056
% es.tEX (V/m) @ t=0.54
-0.8223479792148964
% es.tEY (V/m) @ t=0.54
0
% es.tEZ (V/m) @ t=0.54
-2.6259301892900897
% es.Ex (V/m) @ t=0.54
-0.8223479792148849
% es.Ey (V/m) @ t=0.54
0.06142755703482301
% es.Ez (V/m) @ t=0.54
-2.625930189290056
% es.tEx (V/m) @ t=0.54
-0.8223479792148964
% es.tEy (V/m) @ t=0.54
0
% es.tEz (V/m) @ t=0.54
-2.6259301892900897
% V (V) @ t=0.54
0.013855730569663815
% es.normE (V/m) @ t=0.56
2.7957761679431132
% es.EX (V/m) @ t=0.56
-0.8340372135306433
% es.EY (V/m) @ t=0.56
0.062300754942129735
% es.EZ (V/m) @ t=0.56
-2.6632562784656937
% es.tEX (V/m) @ t=0.56
-0.8340372135306495
% es.tEY (V/m) @ t=0.56
0
% es.tEZ (V/m) @ t=0.56
-2.663256278465715
% es.Ex (V/m) @ t=0.56
-0.8340372135306433
% es.Ey (V/m) @ t=0.56
0.062300754942129735
% es.Ez (V/m) @ t=0.56
-2.6632562784656937
% es.tEx (V/m) @ t=0.56
-0.8340372135306495
% es.tEy (V/m) @ t=0.56
0
% es.tEz (V/m) @ t=0.56
-2.663256278465715
% V (V) @ t=0.56
0.01405268076780575
% es.normE (V/m) @ t=0.58
2.8357085417662407
% es.EX (V/m) @ t=0.58
-0.8459498438767452
% es.EY (V/m) @ t=0.58
0.06319058336945067
% es.EZ (V/m) @ t=0.58
-2.701295861566594
% es.tEX (V/m) @ t=0.58
-0.8459498438767525
% es.tEY (V/m) @ t=0.58
0
% es.tEZ (V/m) @ t=0.58
-2.701295861566633
% es.Ex (V/m) @ t=0.58
-0.8459498438767452
% es.Ey (V/m) @ t=0.58
0.06319058336945067
% es.Ez (V/m) @ t=0.58
-2.701295861566594
% es.tEx (V/m) @ t=0.58
-0.8459498438767525
% es.tEy (V/m) @ t=0.58
0
% es.tEz (V/m) @ t=0.58
-2.701295861566633
% V (V) @ t=0.58
0.014253397281318811
% es.normE (V/m) @ t=0.6
2.8760243492073405
% es.EX (V/m) @ t=0.6
-0.8579768398043084
% es.EY (V/m) @ t=0.6
0.0640889256413988
% es.EZ (V/m) @ t=0.6
-2.739700711442895
% es.tEX (V/m) @ t=0.6
-0.8579768398043157
% es.tEY (V/m) @ t=0.6
0
% es.tEZ (V/m) @ t=0.6
-2.739700711442918
% es.Ex (V/m) @ t=0.6
-0.8579768398043084
% es.Ey (V/m) @ t=0.6
0.0640889256413988
% es.Ez (V/m) @ t=0.6
-2.739700711442895
% es.tEx (V/m) @ t=0.6
-0.8579768398043157
% es.tEy (V/m) @ t=0.6
0
% es.tEz (V/m) @ t=0.6
-2.739700711442918
% V (V) @ t=0.6
0.014456041925993085
% es.normE (V/m) @ t=0.62
2.916723590266355
% es.EX (V/m) @ t=0.62
-0.8701182013133326
% es.EY (V/m) @ t=0.62
0.06499578175797519
% es.EZ (V/m) @ t=0.62
-2.778470828094533
% es.tEX (V/m) @ t=0.62
-0.8701182013133391
% es.tEY (V/m) @ t=0.62
0
% es.tEZ (V/m) @ t=0.62
-2.7784708280945694
% es.Ex (V/m) @ t=0.62
-0.8701182013133326
% es.Ey (V/m) @ t=0.62
0.06499578175797519
% es.Ez (V/m) @ t=0.62
-2.778470828094533
% es.tEx (V/m) @ t=0.62
-0.8701182013133391
% es.tEy (V/m) @ t=0.62
0
% es.tEz (V/m) @ t=0.62
-2.7784708280945694
% V (V) @ t=0.62
0.014660614701828568
% es.normE (V/m) @ t=0.64
2.957806264943363
% es.EX (V/m) @ t=0.64
-0.882373928403829
% es.EY (V/m) @ t=0.64
0.0659111517191494
% es.EZ (V/m) @ t=0.64
-2.817606211521584
% es.tEX (V/m) @ t=0.64
-0.8823739284038368
% es.tEY (V/m) @ t=0.64
0
% es.tEZ (V/m) @ t=0.64
-2.8176062115216034
% es.Ex (V/m) @ t=0.64
-0.882373928403829
% es.Ey (V/m) @ t=0.64
0.0659111517191494
% es.Ez (V/m) @ t=0.64
-2.817606211521584
% es.tEx (V/m) @ t=0.64
-0.8823739284038368
% es.tEy (V/m) @ t=0.64
0
% es.tEz (V/m) @ t=0.64
-2.8176062115216034
% V (V) @ t=0.64
0.014867115608825254
% es.normE (V/m) @ t=0.66
2.999272373238344
% es.EX (V/m) @ t=0.66
-0.8947440210757898
% es.EY (V/m) @ t=0.66
0.06683503552496341
% es.EZ (V/m) @ t=0.66
-2.8571068617240227
% es.tEX (V/m) @ t=0.66
-0.8947440210758018
% es.tEY (V/m) @ t=0.66
0
% es.tEZ (V/m) @ t=0.66
-2.857106861724043
% es.Ex (V/m) @ t=0.66
-0.8947440210757898
% es.Ey (V/m) @ t=0.66
0.06683503552496341
% es.Ez (V/m) @ t=0.66
-2.8571068617240227
% es.tEx (V/m) @ t=0.66
-0.8947440210758018
% es.tEy (V/m) @ t=0.66
0
% es.tEz (V/m) @ t=0.66
-2.857106861724043
% V (V) @ t=0.66
0.015075544646983149
% es.normE (V/m) @ t=0.68
3.0411219151512214
% es.EX (V/m) @ t=0.68
-0.9072284793292124
% es.EY (V/m) @ t=0.68
0.06776743317538328
% es.EZ (V/m) @ t=0.68
-2.8969727787017616
% es.tEX (V/m) @ t=0.68
-0.9072284793292198
% es.tEY (V/m) @ t=0.68
0
% es.tEZ (V/m) @ t=0.68
-2.896972778701766
% es.Ex (V/m) @ t=0.68
-0.9072284793292124
% es.Ey (V/m) @ t=0.68
0.06776743317538328
% es.Ez (V/m) @ t=0.68
-2.8969727787017616
% es.tEx (V/m) @ t=0.68
-0.9072284793292198
% es.tEy (V/m) @ t=0.68
0
% es.tEz (V/m) @ t=0.68
-2.896972778701766
% V (V) @ t=0.68
0.01528590181630225
% es.normE (V/m) @ t=0.7
3.0833548906821164
% es.EX (V/m) @ t=0.7
-0.9198273031641173
% es.EY (V/m) @ t=0.7
0.06870834467041087
% es.EZ (V/m) @ t=0.7
-2.937203962454915
% es.tEX (V/m) @ t=0.7
-0.9198273031641264
% es.tEY (V/m) @ t=0.7
0
% es.tEZ (V/m) @ t=0.7
-2.9372039624549426
% es.Ex (V/m) @ t=0.7
-0.9198273031641173
% es.Ey (V/m) @ t=0.7
0.06870834467041087
% es.Ez (V/m) @ t=0.7
-2.937203962454915
% es.tEx (V/m) @ t=0.7
-0.9198273031641264
% es.tEy (V/m) @ t=0.7
0
% es.tEz (V/m) @ t=0.7
-2.9372039624549426
% V (V) @ t=0.7
0.015498187116782561
% es.normE (V/m) @ t=0.72
3.125971299831004
% es.EX (V/m) @ t=0.72
-0.9325404925804746
% es.EY (V/m) @ t=0.72
0.06965777001009331
% es.EZ (V/m) @ t=0.72
-2.9778004129834548
% es.tEX (V/m) @ t=0.72
-0.9325404925804861
% es.tEY (V/m) @ t=0.72
0
% es.tEZ (V/m) @ t=0.72
-2.9778004129834805
% es.Ex (V/m) @ t=0.72
-0.9325404925804746
% es.Ey (V/m) @ t=0.72
0.06965777001009331
% es.Ez (V/m) @ t=0.72
-2.9778004129834548
% es.tEx (V/m) @ t=0.72
-0.9325404925804861
% es.tEy (V/m) @ t=0.72
0
% es.tEz (V/m) @ t=0.72
-2.9778004129834805
% V (V) @ t=0.72
0.01571240054842408
% es.normE (V/m) @ t=0.74
3.1689711425978677
% es.EX (V/m) @ t=0.74
-0.9453680475782897
% es.EY (V/m) @ t=0.74
0.0706157091943514
% es.EZ (V/m) @ t=0.74
-3.018762130287352
% es.tEX (V/m) @ t=0.74
-0.9453680475782917
% es.tEY (V/m) @ t=0.74
0
% es.tEZ (V/m) @ t=0.74
-3.0187621302873726
% es.Ex (V/m) @ t=0.74
-0.9453680475782897
% es.Ey (V/m) @ t=0.74
0.0706157091943514
% es.Ez (V/m) @ t=0.74
-3.018762130287352
% es.tEx (V/m) @ t=0.74
-0.9453680475782917
% es.tEy (V/m) @ t=0.74
0
% es.tEz (V/m) @ t=0.74
-3.0187621302873726
% V (V) @ t=0.74
0.015928542111226802
% es.normE (V/m) @ t=0.76
3.212354418982741
% es.EX (V/m) @ t=0.76
-0.9583099681575944
% es.EY (V/m) @ t=0.76
0.07158216222326162
% es.EZ (V/m) @ t=0.76
-3.0600891143666207
% es.tEX (V/m) @ t=0.76
-0.9583099681576002
% es.tEY (V/m) @ t=0.76
0
% es.tEZ (V/m) @ t=0.76
-3.0600891143666615
% es.Ex (V/m) @ t=0.76
-0.9583099681575944
% es.Ey (V/m) @ t=0.76
0.07158216222326162
% es.Ez (V/m) @ t=0.76
-3.0600891143666207
% es.tEx (V/m) @ t=0.76
-0.9583099681576002
% es.tEy (V/m) @ t=0.76
0
% es.tEz (V/m) @ t=0.76
-3.0600891143666615
% V (V) @ t=0.76
0.016146611805190735
% es.normE (V/m) @ t=0.78
3.2561211289856544
% es.EX (V/m) @ t=0.78
-0.9713662543183565
% es.EY (V/m) @ t=0.78
0.07255712909676902
% es.EZ (V/m) @ t=0.78
-3.1017813652212913
% es.tEX (V/m) @ t=0.78
-0.9713662543183688
% es.tEY (V/m) @ t=0.78
0
% es.tEZ (V/m) @ t=0.78
-3.1017813652213295
% es.Ex (V/m) @ t=0.78
-0.9713662543183565
% es.Ey (V/m) @ t=0.78
0.07255712909676902
% es.Ez (V/m) @ t=0.78
-3.1017813652212913
% es.tEx (V/m) @ t=0.78
-0.9713662543183688
% es.tEy (V/m) @ t=0.78
0
% es.tEz (V/m) @ t=0.78
-3.1017813652213295
% V (V) @ t=0.78
0.016366609630315873
% es.normE (V/m) @ t=0.8
3.3002712726065977
% es.EX (V/m) @ t=0.8
-0.9845369060605931
% es.EY (V/m) @ t=0.8
0.07354060981490619
% es.EZ (V/m) @ t=0.8
-3.143838882851332
% es.tEX (V/m) @ t=0.8
-0.9845369060606046
% es.tEY (V/m) @ t=0.8
0
% es.tEZ (V/m) @ t=0.8
-3.1438388828513375
% es.Ex (V/m) @ t=0.8
-0.9845369060605931
% es.Ey (V/m) @ t=0.8
0.07354060981490619
% es.Ez (V/m) @ t=0.8
-3.143838882851332
% es.tEx (V/m) @ t=0.8
-0.9845369060606046
% es.tEy (V/m) @ t=0.8
0
% es.tEz (V/m) @ t=0.8
-3.1438388828513375
% V (V) @ t=0.8
0.016588535586602216
% es.normE (V/m) @ t=0.82
3.3448545926533204
% es.EX (V/m) @ t=0.82
-0.997836782930098
% es.EY (V/m) @ t=0.82
0.07453374303130794
% es.EZ (V/m) @ t=0.82
-3.1863090444276345
% es.tEX (V/m) @ t=0.82
-0.9978367829301078
% es.tEY (V/m) @ t=0.82
0
% es.tEZ (V/m) @ t=0.82
-3.1863090444276505
% es.Ex (V/m) @ t=0.82
-0.997836782930098
% es.Ey (V/m) @ t=0.82
0.07453374303130794
% es.Ez (V/m) @ t=0.82
-3.1863090444276345
% es.tEx (V/m) @ t=0.82
-0.9978367829301078
% es.tEy (V/m) @ t=0.82
0
% es.tEz (V/m) @ t=0.82
-3.1863090444276505
% V (V) @ t=0.82
0.016812638869611724
% es.normE (V/m) @ t=0.84
3.390572945606052
% es.EX (V/m) @ t=0.84
-1.0114755487757474
% es.EY (V/m) @ t=0.84
0.07555259481602315
% es.EZ (V/m) @ t=0.84
-3.229860327985823
% es.tEX (V/m) @ t=0.84
-1.0114755487757563
% es.tEY (V/m) @ t=0.84
0
% es.tEZ (V/m) @ t=0.84
-3.2298603279858487
% es.Ex (V/m) @ t=0.84
-1.0114755487757474
% es.Ey (V/m) @ t=0.84
0.07555259481602315
% es.Ez (V/m) @ t=0.84
-3.229860327985823
% es.tEx (V/m) @ t=0.84
-1.0114755487757563
% es.tEy (V/m) @ t=0.84
0
% es.tEz (V/m) @ t=0.84
-3.2298603279858487
% V (V) @ t=0.84
0.017042435555894703
% es.normE (V/m) @ t=0.86
3.4367832060119596
% es.EX (V/m) @ t=0.86
-1.0252610843231202
% es.EY (V/m) @ t=0.86
0.07658244350032291
% es.EZ (V/m) @ t=0.86
-3.2738801934248123
% es.tEX (V/m) @ t=0.86
-1.0252610843231338
% es.tEY (V/m) @ t=0.86
0
% es.tEZ (V/m) @ t=0.86
-3.2738801934248425
% es.Ex (V/m) @ t=0.86
-1.0252610843231202
% es.Ey (V/m) @ t=0.86
0.07658244350032291
% es.Ez (V/m) @ t=0.86
-3.2738801934248123
% es.tEx (V/m) @ t=0.86
-1.0252610843231338
% es.tEy (V/m) @ t=0.86
0
% es.tEz (V/m) @ t=0.86
-3.2738801934248425
% V (V) @ t=0.86
0.01727470379256916
% es.normE (V/m) @ t=0.88
3.483485373871127
% es.EX (V/m) @ t=0.88
-1.0391933895722174
% es.EY (V/m) @ t=0.88
0.07762328908427932
% es.EZ (V/m) @ t=0.88
-3.3183686407446915
% es.tEX (V/m) @ t=0.88
-1.039193389572226
% es.tEY (V/m) @ t=0.88
0
% es.tEZ (V/m) @ t=0.88
-3.3183686407447066
% es.Ex (V/m) @ t=0.88
-1.0391933895722174
% es.Ey (V/m) @ t=0.88
0.07762328908427932
% es.Ez (V/m) @ t=0.88
-3.3183686407446915
% es.tEx (V/m) @ t=0.88
-1.039193389572226
% es.tEy (V/m) @ t=0.88
0
% es.tEz (V/m) @ t=0.88
-3.3183686407447066
% V (V) @ t=0.88
0.017509443579635083
% es.normE (V/m) @ t=0.9
3.5306794491834532
% es.EX (V/m) @ t=0.9
-1.0532724645230234
% es.EY (V/m) @ t=0.9
0.07867513156779338
% es.EZ (V/m) @ t=0.9
-3.363325669945345
% es.tEX (V/m) @ t=0.9
-1.0532724645230331
% es.tEY (V/m) @ t=0.9
0
% es.tEZ (V/m) @ t=0.9
-3.3633256699453806
% es.Ex (V/m) @ t=0.9
-1.0532724645230234
% es.Ey (V/m) @ t=0.9
0.07867513156779338
% es.Ez (V/m) @ t=0.9
-3.363325669945345
% es.tEx (V/m) @ t=0.9
-1.0532724645230331
% es.tEy (V/m) @ t=0.9
0
% es.tEz (V/m) @ t=0.9
-3.3633256699453806
% V (V) @ t=0.9
0.017746654917092486
% es.normE (V/m) @ t=0.92
3.578365431948963
% es.EX (V/m) @ t=0.92
-1.0674983091755448
% es.EY (V/m) @ t=0.92
0.07973797095091834
% es.EZ (V/m) @ t=0.92
-3.408751281026788
% es.tEX (V/m) @ t=0.92
-1.067498309175555
% es.tEY (V/m) @ t=0.92
0
% es.tEZ (V/m) @ t=0.92
-3.4087512810268237
% es.Ex (V/m) @ t=0.92
-1.0674983091755448
% es.Ey (V/m) @ t=0.92
0.07973797095091834
% es.Ez (V/m) @ t=0.92
-3.408751281026788
% es.tEx (V/m) @ t=0.92
-1.067498309175555
% es.tEy (V/m) @ t=0.92
0
% es.tEz (V/m) @ t=0.92
-3.4087512810268237
% V (V) @ t=0.92
0.017986337804941358
% es.normE (V/m) @ t=0.94
3.626543322167759
% es.EX (V/m) @ t=0.94
-1.081870923529812
% es.EY (V/m) @ t=0.94
0.08081180723368092
% es.EZ (V/m) @ t=0.94
-3.454645473989106
% es.tEX (V/m) @ t=0.94
-1.08187092352982
% es.tEY (V/m) @ t=0.94
0
% es.tEZ (V/m) @ t=0.94
-3.454645473989121
% es.Ex (V/m) @ t=0.94
-1.081870923529812
% es.Ey (V/m) @ t=0.94
0.08081180723368092
% es.Ez (V/m) @ t=0.94
-3.454645473989106
% es.tEx (V/m) @ t=0.94
-1.08187092352982
% es.tEy (V/m) @ t=0.94
0
% es.tEz (V/m) @ t=0.94
-3.454645473989121
% V (V) @ t=0.94
0.018228492243181706
% es.normE (V/m) @ t=0.96
3.6752131198397375
% es.EX (V/m) @ t=0.96
-1.096390307585769
% es.EY (V/m) @ t=0.96
0.08189664041604136
% es.EZ (V/m) @ t=0.96
-3.501008248832197
% es.tEX (V/m) @ t=0.96
-1.0963903075857786
% es.tEY (V/m) @ t=0.96
0
% es.tEZ (V/m) @ t=0.96
-3.5010082488322247
% es.Ex (V/m) @ t=0.96
-1.096390307585769
% es.Ey (V/m) @ t=0.96
0.08189664041604136
% es.Ez (V/m) @ t=0.96
-3.501008248832197
% es.tEx (V/m) @ t=0.96
-1.0963903075857786
% es.tEy (V/m) @ t=0.96
0
% es.tEz (V/m) @ t=0.96
-3.5010082488322247
% V (V) @ t=0.96
0.01847311823181352
% es.normE (V/m) @ t=0.98
3.7243748249649387
% es.EX (V/m) @ t=0.98
-1.1110564613434484
% es.EY (V/m) @ t=0.98
0.08299247049801595
% es.EZ (V/m) @ t=0.98
-3.547839605556079
% es.tEX (V/m) @ t=0.98
-1.1110564613434448
% es.tEY (V/m) @ t=0.98
0
% es.tEZ (V/m) @ t=0.98
-3.5478396055561134
% es.Ex (V/m) @ t=0.98
-1.1110564613434484
% es.Ey (V/m) @ t=0.98
0.08299247049801595
% es.Ez (V/m) @ t=0.98
-3.547839605556079
% es.tEx (V/m) @ t=0.98
-1.1110564613434448
% es.tEy (V/m) @ t=0.98
0
% es.tEz (V/m) @ t=0.98
-3.5478396055561134
% V (V) @ t=0.98
0.018720215770836806
% es.normE (V/m) @ t=1
3.7740284375434467
% es.EX (V/m) @ t=1
-1.125869384802854
% es.EY (V/m) @ t=1
0.0840992974796001
% es.EZ (V/m) @ t=1
-3.595139544160821
% es.tEX (V/m) @ t=1
-1.1258693848028614
% es.tEY (V/m) @ t=1
0
% es.tEZ (V/m) @ t=1
-3.5951395441608565
% es.Ex (V/m) @ t=1
-1.125869384802854
% es.Ey (V/m) @ t=1
0.0840992974796001
% es.Ez (V/m) @ t=1
-3.595139544160821
% es.tEx (V/m) @ t=1
-1.1258693848028614
% es.tEy (V/m) @ t=1
0
% es.tEz (V/m) @ t=1
-3.5951395441608565
% V (V) @ t=1
0.018969784860251568
% es.normE (V/m) @ t=1.02
3.8241739575752316
% es.EX (V/m) @ t=1.02
-1.1408290779639776
% es.EY (V/m) @ t=1.02
0.0852171213607956
% es.EZ (V/m) @ t=1.02
-3.642908064646379
% es.tEX (V/m) @ t=1.02
-1.1408290779639856
% es.tEY (V/m) @ t=1.02
0
% es.tEZ (V/m) @ t=1.02
-3.6429080646464254
% es.Ex (V/m) @ t=1.02
-1.1408290779639776
% es.Ey (V/m) @ t=1.02
0.0852171213607956
% es.Ez (V/m) @ t=1.02
-3.642908064646379
% es.tEx (V/m) @ t=1.02
-1.1408290779639856
% es.tEy (V/m) @ t=1.02
0
% es.tEz (V/m) @ t=1.02
-3.6429080646464254
% V (V) @ t=1.02
0.019221825500057802
% es.normE (V/m) @ t=1.04
3.874811385060325