% Model:              1 neuron.mph
% Version:            COMSOL 6.0.0.405
% Date:               Mar 16 2023, 18:34
% Dimension:          0
% Nodes:              14017
% Expressions:        14017
% Description:        Electric field norm, Electric field, X component, Electric field, Y component, Electric field, Z component, Tangential electric field, X component, Tangential electric field, Y component, Tangential electric field, Z component, Electric field, x component, Electric field, y component, Electric field, z component, Tangential electric field, x component, Tangential electric field, y component, Tangential electric field, z component, Electric potential
% Length unit:        mm
% x
1
% y
12.2
% z
1.33
% es.normE (V/m) @ t=0
2.180756039519287
% es.EX (V/m) @ t=0
2.0153038243156542
% es.EY (V/m) @ t=0
0.12689624194618043
% es.EZ (V/m) @ t=0
0.814712700545839
% es.tEX (V/m) @ t=0
2.0153038243156622
% es.tEY (V/m) @ t=0
0
% es.tEZ (V/m) @ t=0
0.8147127005458397
% es.Ex (V/m) @ t=0
2.0153038243156542
% es.Ey (V/m) @ t=0
0.12689624194618043
% es.Ez (V/m) @ t=0
0.814712700545839
% es.tEx (V/m) @ t=0
2.0153038243156622
% es.tEy (V/m) @ t=0
0
% es.tEz (V/m) @ t=0
0.8147127005458397
% V (V) @ t=0
0.010877957367846426
% es.normE (V/m) @ t=0.02
1.894004910651001
% es.EX (V/m) @ t=0.02
1.7503082735305
% es.EY (V/m) @ t=0.02
0.11021045154304421
% es.EZ (V/m) @ t=0.02
0.707584814813562
% es.tEX (V/m) @ t=0.02
1.7503082735305018
% es.tEY (V/m) @ t=0.02
0
% es.tEZ (V/m) @ t=0.02
0.7075848148135635
% es.Ex (V/m) @ t=0.02
1.7503082735305
% es.Ey (V/m) @ t=0.02
0.11021045154304421
% es.Ez (V/m) @ t=0.02
0.707584814813562
% es.tEx (V/m) @ t=0.02
1.7503082735305018
% es.tEy (V/m) @ t=0.02
0
% es.tEz (V/m) @ t=0.02
0.7075848148135635
% V (V) @ t=0.02
0.009447597165851161
% es.normE (V/m) @ t=0.04
1.922089617394768
% es.EX (V/m) @ t=0.04
1.7762622165730386
% es.EY (V/m) @ t=0.04
0.11184467422990585
% es.EZ (V/m) @ t=0.04
0.7180770313800051
% es.tEX (V/m) @ t=0.04
1.7762622165730306
% es.tEY (V/m) @ t=0.04
0
% es.tEZ (V/m) @ t=0.04
0.7180770313800084
% es.Ex (V/m) @ t=0.04
1.7762622165730386
% es.Ey (V/m) @ t=0.04
0.11184467422990585
% es.Ez (V/m) @ t=0.04
0.7180770313800051
% es.tEx (V/m) @ t=0.04
1.7762622165730306
% es.tEy (V/m) @ t=0.04
0
% es.tEz (V/m) @ t=0.04
0.7180770313800084
% V (V) @ t=0.04
0.009587688188818248
% es.normE (V/m) @ t=0.06
1.950599725052858
% es.EX (V/m) @ t=0.06
1.802609287523846
% es.EY (V/m) @ t=0.06
0.11350364680561886
% es.EZ (V/m) @ t=0.06
0.7287281700082608
% es.tEX (V/m) @ t=0.06
1.8026092875238469
% es.tEY (V/m) @ t=0.06
0
% es.tEZ (V/m) @ t=0.06
0.7287281700082602
% es.Ex (V/m) @ t=0.06
1.802609287523846
% es.Ey (V/m) @ t=0.06
0.11350364680561886
% es.Ez (V/m) @ t=0.06
0.7287281700082608
% es.tEx (V/m) @ t=0.06
1.8026092875238469
% es.tEy (V/m) @ t=0.06
0
% es.tEz (V/m) @ t=0.06
0.7287281700082602
% V (V) @ t=0.06
0.009729901325664831
% es.normE (V/m) @ t=0.08
1.9798277471967571
% es.EX (V/m) @ t=0.08
1.829619810579132
% es.EY (V/m) @ t=0.08
0.11520438262939847
% es.EZ (V/m) @ t=0.08
0.739647503485579
% es.tEX (V/m) @ t=0.08
1.8296198105791355
% es.tEY (V/m) @ t=0.08
0
% es.tEZ (V/m) @ t=0.08
0.7396475034855823
% es.Ex (V/m) @ t=0.08
1.829619810579132
% es.Ey (V/m) @ t=0.08
0.11520438262939847
% es.Ez (V/m) @ t=0.08
0.739647503485579
% es.tEx (V/m) @ t=0.08
1.8296198105791355
% es.tEy (V/m) @ t=0.08
0
% es.tEz (V/m) @ t=0.08
0.7396475034855823
% V (V) @ t=0.08
0.009875695971824886
% es.normE (V/m) @ t=0.1
2.0095761713569606
% es.EX (V/m) @ t=0.1
1.857111256947296
% es.EY (V/m) @ t=0.1
0.11693539180594359
% es.EZ (V/m) @ t=0.1
0.7507612461063411
% es.tEX (V/m) @ t=0.1
1.8571112569473005
% es.tEY (V/m) @ t=0.1
0
% es.tEZ (V/m) @ t=0.1
0.7507612461063427
% es.Ex (V/m) @ t=0.1
1.857111256947296
% es.Ey (V/m) @ t=0.1
0.11693539180594359
% es.Ez (V/m) @ t=0.1
0.7507612461063411
% es.tEx (V/m) @ t=0.1
1.8571112569473005
% es.tEy (V/m) @ t=0.1
0
% es.tEz (V/m) @ t=0.1
0.7507612461063427
% V (V) @ t=0.1
0.01002408678327331
% es.normE (V/m) @ t=0.12
2.0393245955171633
% es.EX (V/m) @ t=0.12
1.884602703315462
% es.EY (V/m) @ t=0.12
0.11866640098249714
% es.EZ (V/m) @ t=0.12
0.7618749887270926
% es.tEX (V/m) @ t=0.12
1.8846027033154655
% es.tEY (V/m) @ t=0.12
0
% es.tEZ (V/m) @ t=0.12
0.7618749887270866
% es.Ex (V/m) @ t=0.12
1.884602703315462
% es.Ey (V/m) @ t=0.12
0.11866640098249714
% es.Ez (V/m) @ t=0.12
0.7618749887270926
% es.tEx (V/m) @ t=0.12
1.8846027033154655
% es.tEy (V/m) @ t=0.12
0
% es.tEz (V/m) @ t=0.12
0.7618749887270866
% V (V) @ t=0.12
0.010172477594721736
% es.normE (V/m) @ t=0.14
2.069527811441146
% es.EX (V/m) @ t=0.14
1.9125144278284933
% es.EY (V/m) @ t=0.14
0.12042389378433904
% es.EZ (V/m) @ t=0.14
0.7731586586707424
% es.tEX (V/m) @ t=0.14
1.9125144278284942
% es.tEY (V/m) @ t=0.14
0
% es.tEZ (V/m) @ t=0.14
0.7731586586707415
% es.Ex (V/m) @ t=0.14
1.9125144278284933
% es.Ey (V/m) @ t=0.14
0.12042389378433904
% es.Ez (V/m) @ t=0.14
0.7731586586707424
% es.tEx (V/m) @ t=0.14
1.9125144278284942
% es.tEy (V/m) @ t=0.14
0
% es.tEz (V/m) @ t=0.14
0.7731586586707415
% V (V) @ t=0.14
0.010323136232210772
% es.normE (V/m) @ t=0.16
2.1019595028281635
% es.EX (V/m) @ t=0.16
1.9424855113890418
% es.EY (V/m) @ t=0.16
0.12231115610672738
% es.EZ (V/m) @ t=0.16
0.7852749709350035
% es.tEX (V/m) @ t=0.16
1.942485511389041
% es.tEY (V/m) @ t=0.16
0
% es.tEZ (V/m) @ t=0.16
0.7852749709350046
% es.Ex (V/m) @ t=0.16
1.9424855113890418
% es.Ey (V/m) @ t=0.16
0.12231115610672738
% es.Ez (V/m) @ t=0.16
0.7852749709350035
% es.tEx (V/m) @ t=0.16
1.942485511389041
% es.tEy (V/m) @ t=0.16
0
% es.tEz (V/m) @ t=0.16
0.7852749709350046
% V (V) @ t=0.16
0.010484907196457758
% es.normE (V/m) @ t=0.18
2.13439119421517
% es.EX (V/m) @ t=0.18
1.972456594949576
% es.EY (V/m) @ t=0.18
0.12419841842909363
% es.EZ (V/m) @ t=0.18
0.7973912831992449
% es.tEX (V/m) @ t=0.18
1.972456594949577
% es.tEY (V/m) @ t=0.18
0
% es.tEZ (V/m) @ t=0.18
0.7973912831992491
% es.Ex (V/m) @ t=0.18
1.972456594949576
% es.Ey (V/m) @ t=0.18
0.12419841842909363
% es.Ez (V/m) @ t=0.18
0.7973912831992449
% es.tEx (V/m) @ t=0.18
1.972456594949577
% es.tEy (V/m) @ t=0.18
0
% es.tEz (V/m) @ t=0.18
0.7973912831992491
% V (V) @ t=0.18
0.010646678160704748
% es.normE (V/m) @ t=0.2
2.166822885602213
% es.EX (V/m) @ t=0.2
2.002427678510136
% es.EY (V/m) @ t=0.2
0.12608568075148363
% es.EZ (V/m) @ t=0.2
0.8095075954634894
% es.tEX (V/m) @ t=0.2
2.002427678510129
% es.tEY (V/m) @ t=0.2
0
% es.tEZ (V/m) @ t=0.2
0.809507595463494
% es.Ex (V/m) @ t=0.2
2.002427678510136
% es.Ey (V/m) @ t=0.2
0.12608568075148363
% es.Ez (V/m) @ t=0.2
0.8095075954634894
% es.tEx (V/m) @ t=0.2
2.002427678510129
% es.tEy (V/m) @ t=0.2
0
% es.tEz (V/m) @ t=0.2
0.809507595463494
% V (V) @ t=0.2
0.010808449124951734
% es.normE (V/m) @ t=0.22
2.199254576989249
% es.EX (V/m) @ t=0.22
2.0323987620706747
% es.EY (V/m) @ t=0.22
0.12797294307386575
% es.EZ (V/m) @ t=0.22
0.8216239077277432
% es.tEX (V/m) @ t=0.22
2.0323987620706863
% es.tEY (V/m) @ t=0.22
0
% es.tEZ (V/m) @ t=0.22
0.8216239077277421
% es.Ex (V/m) @ t=0.22
2.0323987620706747
% es.Ey (V/m) @ t=0.22
0.12797294307386575
% es.Ez (V/m) @ t=0.22
0.8216239077277432
% es.tEx (V/m) @ t=0.22
2.0323987620706863
% es.tEy (V/m) @ t=0.22
0
% es.tEz (V/m) @ t=0.22
0.8216239077277421
% V (V) @ t=0.22
0.010970220089198724
% es.normE (V/m) @ t=0.24
2.2316862683762952
% es.EX (V/m) @ t=0.24
2.062369845631217
% es.EY (V/m) @ t=0.24
0.12986020539624787
% es.EZ (V/m) @ t=0.24
0.8337402199919921
% es.tEX (V/m) @ t=0.24
2.0623698456312187
% es.tEY (V/m) @ t=0.24
0
% es.tEZ (V/m) @ t=0.24
0.8337402199919945
% es.Ex (V/m) @ t=0.24
2.062369845631217
% es.Ey (V/m) @ t=0.24
0.12986020539624787
% es.Ez (V/m) @ t=0.24
0.8337402199919921
% es.tEx (V/m) @ t=0.24
2.0623698456312187
% es.tEy (V/m) @ t=0.24
0
% es.tEz (V/m) @ t=0.24
0.8337402199919945
% V (V) @ t=0.24
0.011131991053445714
% es.normE (V/m) @ t=0.26
2.2641179597633547
% es.EX (V/m) @ t=0.26
2.0923409291917645
% es.EY (V/m) @ t=0.26
0.13174746771863188
% es.EZ (V/m) @ t=0.26
0.8458565322562401
% es.tEX (V/m) @ t=0.26
2.092340929191769
% es.tEY (V/m) @ t=0.26
0
% es.tEZ (V/m) @ t=0.26
0.8458565322562395
% es.Ex (V/m) @ t=0.26
2.0923409291917645
% es.Ey (V/m) @ t=0.26
0.13174746771863188
% es.Ez (V/m) @ t=0.26
0.8458565322562401
% es.tEx (V/m) @ t=0.26
2.092340929191769
% es.tEy (V/m) @ t=0.26
0
% es.tEz (V/m) @ t=0.26
0.8458565322562395
% V (V) @ t=0.26
0.011293762017692702
% es.normE (V/m) @ t=0.28
2.297561098361707
% es.EX (V/m) @ t=0.28
2.1232467322677593
% es.EY (V/m) @ t=0.28
0.13369356310231173
% es.EZ (V/m) @ t=0.28
0.8583506896684852
% es.tEX (V/m) @ t=0.28
2.1232467322677557
% es.tEY (V/m) @ t=0.28
0
% es.tEZ (V/m) @ t=0.28
0.8583506896684878
% es.Ex (V/m) @ t=0.28
2.1232467322677593
% es.Ey (V/m) @ t=0.28
0.13369356310231173
% es.Ez (V/m) @ t=0.28
0.8583506896684852
% es.tEx (V/m) @ t=0.28
2.1232467322677557
% es.tEy (V/m) @ t=0.28
0
% es.tEz (V/m) @ t=0.28
0.8583506896684878
% V (V) @ t=0.28
0.011460579080427632
% es.normE (V/m) @ t=0.3
2.3328911304752706
% es.EX (V/m) @ t=0.3
2.1558962904034216
% es.EY (V/m) @ t=0.3
0.13574941381539718
% es.EZ (V/m) @ t=0.3
0.871549731677266
% es.tEX (V/m) @ t=0.3
2.1558962904034296
% es.tEY (V/m) @ t=0.3
0
% es.tEZ (V/m) @ t=0.3
0.871549731677272
% es.Ex (V/m) @ t=0.3
2.1558962904034216
% es.Ey (V/m) @ t=0.3
0.13574941381539718
% es.Ez (V/m) @ t=0.3
0.871549731677266
% es.tEx (V/m) @ t=0.3
2.1558962904034296
% es.tEy (V/m) @ t=0.3
0
% es.tEz (V/m) @ t=0.3
0.871549731677272
% V (V) @ t=0.3
0.011636809833178299
% es.normE (V/m) @ t=0.32
2.368221162588882
% es.EX (V/m) @ t=0.32
2.1885458485391265
% es.EY (V/m) @ t=0.32
0.13780526452848163
% es.EZ (V/m) @ t=0.32
0.8847487736860653
% es.tEX (V/m) @ t=0.32
2.1885458485391123
% es.tEY (V/m) @ t=0.32
0
% es.tEZ (V/m) @ t=0.32
0.8847487736860651
% es.Ex (V/m) @ t=0.32
2.1885458485391265
% es.Ey (V/m) @ t=0.32
0.13780526452848163
% es.Ez (V/m) @ t=0.32
0.8847487736860653
% es.tEx (V/m) @ t=0.32
2.1885458485391123
% es.tEy (V/m) @ t=0.32
0
% es.tEz (V/m) @ t=0.32
0.8847487736860651
% V (V) @ t=0.32
0.01181304058592897
% es.normE (V/m) @ t=0.34
2.4035511947024553
% es.EX (V/m) @ t=0.34
2.221195406674796
% es.EY (V/m) @ t=0.34
0.13986111524156952
% es.EZ (V/m) @ t=0.34
0.8979478156948548
% es.tEX (V/m) @ t=0.34
2.221195406674793
% es.tEY (V/m) @ t=0.34
0
% es.tEZ (V/m) @ t=0.34
0.8979478156948528
% es.Ex (V/m) @ t=0.34
2.221195406674796
% es.Ey (V/m) @ t=0.34
0.13986111524156952
% es.Ez (V/m) @ t=0.34
0.8979478156948548
% es.tEx (V/m) @ t=0.34
2.221195406674793
% es.tEy (V/m) @ t=0.34
0
% es.tEz (V/m) @ t=0.34
0.8979478156948528
% V (V) @ t=0.34
0.011989271338679641
% es.normE (V/m) @ t=0.36
2.4388812268160507
% es.EX (V/m) @ t=0.36
2.2538449648104812
% es.EY (V/m) @ t=0.36
0.14191696595465664
% es.EZ (V/m) @ t=0.36
0.9111468577036586
% es.tEX (V/m) @ t=0.36
2.253844964810476
% es.tEY (V/m) @ t=0.36
0
% es.tEZ (V/m) @ t=0.36
0.9111468577036623
% es.Ex (V/m) @ t=0.36
2.2538449648104812
% es.Ey (V/m) @ t=0.36
0.14191696595465664
% es.Ez (V/m) @ t=0.36
0.9111468577036586
% es.tEx (V/m) @ t=0.36
2.253844964810476
% es.tEy (V/m) @ t=0.36
0
% es.tEz (V/m) @ t=0.36
0.9111468577036623
% V (V) @ t=0.36
0.01216550209143031
% es.normE (V/m) @ t=0.38
2.474211258929632
% es.EX (V/m) @ t=0.38
2.2864945229461497
% es.EY (V/m) @ t=0.38
0.14397281666774053
% es.EZ (V/m) @ t=0.38
0.9243458997124661
% es.tEX (V/m) @ t=0.38
2.286494522946148
% es.tEY (V/m) @ t=0.38
0
% es.tEZ (V/m) @ t=0.38
0.9243458997124563
% es.Ex (V/m) @ t=0.38
2.2864945229461497
% es.Ey (V/m) @ t=0.38
0.14397281666774053
% es.Ez (V/m) @ t=0.38
0.9243458997124661
% es.tEx (V/m) @ t=0.38
2.286494522946148
% es.tEy (V/m) @ t=0.38
0
% es.tEz (V/m) @ t=0.38
0.9243458997124563
% V (V) @ t=0.38
0.01234173284418098
% es.normE (V/m) @ t=0.4
2.50954129104322
% es.EX (V/m) @ t=0.4
2.3191440810818307
% es.EY (V/m) @ t=0.4
0.1460286673808321
% es.EZ (V/m) @ t=0.4
0.9375449417212609
% es.tEX (V/m) @ t=0.4
2.319144081081836
% es.tEY (V/m) @ t=0.4
0
% es.tEZ (V/m) @ t=0.4
0.9375449417212547
% es.Ex (V/m) @ t=0.4
2.3191440810818307
% es.Ey (V/m) @ t=0.4
0.1460286673808321
% es.Ez (V/m) @ t=0.4
0.9375449417212609
% es.tEx (V/m) @ t=0.4
2.319144081081836
% es.tEy (V/m) @ t=0.4
0
% es.tEz (V/m) @ t=0.4
0.9375449417212547
% V (V) @ t=0.4
0.01251796359693165
% es.normE (V/m) @ t=0.42
2.5465183419145774
% es.EX (V/m) @ t=0.42
2.353315686928717
% es.EY (V/m) @ t=0.42
0.14818038557155377
% es.EZ (V/m) @ t=0.42
0.9513593269478795
% es.tEX (V/m) @ t=0.42
2.3533156869287204
% es.tEY (V/m) @ t=0.42
0
% es.tEZ (V/m) @ t=0.42
0.9513593269478857
% es.Ex (V/m) @ t=0.42
2.353315686928717
% es.Ey (V/m) @ t=0.42
0.14818038557155377
% es.Ez (V/m) @ t=0.42
0.9513593269478795
% es.tEx (V/m) @ t=0.42
2.3533156869287204
% es.tEy (V/m) @ t=0.42
0
% es.tEz (V/m) @ t=0.42
0.9513593269478857
% V (V) @ t=0.42
0.012702408844520318
% es.normE (V/m) @ t=0.44
2.5849650280979324
% es.EX (V/m) @ t=0.44
2.38884541638674
% es.EY (V/m) @ t=0.44
0.15041764634022392
% es.EZ (V/m) @ t=0.44
0.9657227831050403
% es.tEX (V/m) @ t=0.44
2.38884541638674
% es.tEY (V/m) @ t=0.44
0
% es.tEZ (V/m) @ t=0.44
0.9657227831050417
% es.Ex (V/m) @ t=0.44
2.38884541638674
% es.Ey (V/m) @ t=0.44
0.15041764634022392
% es.Ez (V/m) @ t=0.44
0.9657227831050403
% es.tEx (V/m) @ t=0.44
2.38884541638674
% es.tEy (V/m) @ t=0.44
0
% es.tEz (V/m) @ t=0.44
0.9657227831050417
% V (V) @ t=0.44
0.012894183888219017
% es.normE (V/m) @ t=0.46
2.6234117142812714
% es.EX (V/m) @ t=0.46
2.4243751458447482
% es.EY (V/m) @ t=0.46
0.15265490710886664
% es.EZ (V/m) @ t=0.46
0.9800862392621834
% es.tEX (V/m) @ t=0.46
2.424375145844751
% es.tEY (V/m) @ t=0.46
0
% es.tEZ (V/m) @ t=0.46
0.9800862392621745
% es.Ex (V/m) @ t=0.46
2.4243751458447482
% es.Ey (V/m) @ t=0.46
0.15265490710886664
% es.Ez (V/m) @ t=0.46
0.9800862392621834
% es.tEx (V/m) @ t=0.46
2.424375145844751
% es.tEy (V/m) @ t=0.46
0
% es.tEz (V/m) @ t=0.46
0.9800862392621745
% V (V) @ t=0.46
0.013085958931917713
% es.normE (V/m) @ t=0.48
2.6618584004646344
% es.EX (V/m) @ t=0.48
2.459904875302776
% es.EY (V/m) @ t=0.48
0.15489216787752969
% es.EZ (V/m) @ t=0.48
0.9944496954193265
% es.tEX (V/m) @ t=0.48
2.4599048753027724
% es.tEY (V/m) @ t=0.48
0
% es.tEZ (V/m) @ t=0.48
0.9944496954193225
% es.Ex (V/m) @ t=0.48
2.459904875302776
% es.Ey (V/m) @ t=0.48
0.15489216787752969
% es.Ez (V/m) @ t=0.48
0.9944496954193265
% es.tEx (V/m) @ t=0.48
2.4599048753027724
% es.tEy (V/m) @ t=0.48
0
% es.tEz (V/m) @ t=0.48
0.9944496954193225
% V (V) @ t=0.48
0.013277733975616409
% es.normE (V/m) @ t=0.5
2.700305086647986
% es.EX (V/m) @ t=0.5
2.4954346047607796
% es.EY (V/m) @ t=0.5
0.15712942864616797
% es.EZ (V/m) @ t=0.5
1.00881315157649
% es.tEX (V/m) @ t=0.5
2.4954346047607885
% es.tEY (V/m) @ t=0.5
0
% es.tEZ (V/m) @ t=0.5
1.0088131515764909
% es.Ex (V/m) @ t=0.5
2.4954346047607796
% es.Ey (V/m) @ t=0.5
0.15712942864616797
% es.Ez (V/m) @ t=0.5
1.00881315157649
% es.tEx (V/m) @ t=0.5
2.4954346047607885
% es.tEy (V/m) @ t=0.5
0
% es.tEz (V/m) @ t=0.5
1.0088131515764909
% V (V) @ t=0.5
0.013469509019315108
% es.normE (V/m) @ t=0.52
2.7387517728313506
% es.EX (V/m) @ t=0.52
2.530964334218801
% es.EY (V/m) @ t=0.52
0.159366689414838
% es.EZ (V/m) @ t=0.52
1.0231766077336273
% es.tEX (V/m) @ t=0.52
2.5309643342187993
% es.tEY (V/m) @ t=0.52
0
% es.tEZ (V/m) @ t=0.52
1.0231766077336273
% es.Ex (V/m) @ t=0.52
2.530964334218801
% es.Ey (V/m) @ t=0.52
0.159366689414838
% es.Ez (V/m) @ t=0.52
1.0231766077336273
% es.tEx (V/m) @ t=0.52
2.5309643342187993
% es.tEy (V/m) @ t=0.52
0
% es.tEz (V/m) @ t=0.52
1.0231766077336273
% V (V) @ t=0.52
0.013661284063013805
% es.normE (V/m) @ t=0.54
2.77719845901472
% es.EX (V/m) @ t=0.54
2.566494063676812
% es.EY (V/m) @ t=0.54
0.16160395018350282
% es.EZ (V/m) @ t=0.54
1.0375400638907903
% es.tEX (V/m) @ t=0.54
2.5664940636768137
% es.tEY (V/m) @ t=0.54
0
% es.tEZ (V/m) @ t=0.54
1.037540063890794
% es.Ex (V/m) @ t=0.54
2.566494063676812
% es.Ey (V/m) @ t=0.54
0.16160395018350282
% es.Ez (V/m) @ t=0.54
1.0375400638907903
% es.tEx (V/m) @ t=0.54
2.5664940636768137
% es.tEy (V/m) @ t=0.54
0
% es.tEz (V/m) @ t=0.54
1.037540063890794
% V (V) @ t=0.54
0.013853059106712503
% es.normE (V/m) @ t=0.56
2.8166746929049022
% es.EX (V/m) @ t=0.56
2.6029752494502834
% es.EY (V/m) @ t=0.56
0.1639010763268116
% es.EZ (V/m) @ t=0.56
1.0522881050629342
% es.tEX (V/m) @ t=0.56
2.6029752494502976
% es.tEY (V/m) @ t=0.56
0
% es.tEZ (V/m) @ t=0.56
1.0522881050629431
% es.Ex (V/m) @ t=0.56
2.6029752494502834
% es.Ey (V/m) @ t=0.56
0.1639010763268116
% es.Ez (V/m) @ t=0.56
1.0522881050629342
% es.tEx (V/m) @ t=0.56
2.6029752494502976
% es.tEy (V/m) @ t=0.56
0
% es.tEz (V/m) @ t=0.56
1.0522881050629431
% V (V) @ t=0.56
0.014049971333564644
% es.normE (V/m) @ t=0.58
2.85690559152358
% es.EX (V/m) @ t=0.58
2.640153858487592
% es.EY (V/m) @ t=0.58
0.166242084153718
% es.EZ (V/m) @ t=0.58
1.0673180493892875
% es.tEX (V/m) @ t=0.58
2.64015385848759
% es.tEY (V/m) @ t=0.58
0
% es.tEZ (V/m) @ t=0.58
1.0673180493892884
% es.Ex (V/m) @ t=0.58
2.640153858487592
% es.Ey (V/m) @ t=0.58
0.166242084153718
% es.Ez (V/m) @ t=0.58
1.0673180493892875
% es.tEx (V/m) @ t=0.58
2.64015385848759
% es.tEy (V/m) @ t=0.58
0
% es.tEz (V/m) @ t=0.58
1.0673180493892884
% V (V) @ t=0.58
0.014250649146900938
% es.normE (V/m) @ t=0.6
2.897522833938738
% es.EX (V/m) @ t=0.6
2.6776895070702
% es.EY (V/m) @ t=0.6
0.16860555681249045
% es.EZ (V/m) @ t=0.6
1.0824923114910678
% es.tEX (V/m) @ t=0.6
2.6776895070701983
% es.tEY (V/m) @ t=0.6
0
% es.tEZ (V/m) @ t=0.6
1.0824923114910732
% es.Ex (V/m) @ t=0.6
2.6776895070702
% es.Ey (V/m) @ t=0.6
0.16860555681249045
% es.Ez (V/m) @ t=0.6
1.0824923114910678
% es.tEx (V/m) @ t=0.6
2.6776895070701983
% es.tEy (V/m) @ t=0.6
0
% es.tEz (V/m) @ t=0.6
1.0824923114910732
% V (V) @ t=0.6
0.014453254718251343
% es.normE (V/m) @ t=0.62
2.9385264201503767
% es.EX (V/m) @ t=0.62
2.715582195198092
% es.EY (V/m) @ t=0.62
0.17099149430313454
% es.EZ (V/m) @ t=0.62
1.0978108913683133
% es.tEX (V/m) @ t=0.62
2.7155821951980883
% es.tEY (V/m) @ t=0.62
0
% es.tEZ (V/m) @ t=0.62
1.097810891368308
% es.Ex (V/m) @ t=0.62
2.715582195198092
% es.Ey (V/m) @ t=0.62
0.17099149430313454
% es.Ez (V/m) @ t=0.62
1.0978108913683133
% es.tEx (V/m) @ t=0.62
2.7155821951980883
% es.tEy (V/m) @ t=0.62
0
% es.tEz (V/m) @ t=0.62
1.097810891368308
% V (V) @ t=0.62
0.01465778804761585
% es.normE (V/m) @ t=0.64
2.9799163501584944
% es.EX (V/m) @ t=0.64
2.753831922871278
% es.EY (V/m) @ t=0.64
0.17339989662562005
% es.EZ (V/m) @ t=0.64
1.113273789020993
% es.tEX (V/m) @ t=0.64
2.7538319228712833
% es.tEY (V/m) @ t=0.64
0
% es.tEZ (V/m) @ t=0.64
1.1132737890209965
% es.Ex (V/m) @ t=0.64
2.753831922871278
% es.Ey (V/m) @ t=0.64
0.17339989662562005
% es.Ez (V/m) @ t=0.64
1.113273789020993
% es.tEx (V/m) @ t=0.64
2.7538319228712833
% es.tEy (V/m) @ t=0.64
0
% es.tEz (V/m) @ t=0.64
1.1132737890209965
% V (V) @ t=0.64
0.014864249134994453
% es.normE (V/m) @ t=0.66
3.0216926239631023
% es.EX (V/m) @ t=0.66
2.792438690089753
% es.EY (V/m) @ t=0.66
0.17583076377996654
% es.EZ (V/m) @ t=0.66
1.128881004449135
% es.tEX (V/m) @ t=0.66
2.7924386900897566
% es.tEY (V/m) @ t=0.66
0
% es.tEZ (V/m) @ t=0.66
1.1288810044491369
% es.Ex (V/m) @ t=0.66
2.792438690089753
% es.Ey (V/m) @ t=0.66
0.17583076377996654
% es.Ez (V/m) @ t=0.66
1.128881004449135
% es.tEx (V/m) @ t=0.66
2.7924386900897566
% es.tEy (V/m) @ t=0.66
0
% es.tEz (V/m) @ t=0.66
1.1288810044491369
% V (V) @ t=0.66
0.015072637980387157
% es.normE (V/m) @ t=0.68
3.063855241564201
% es.EX (V/m) @ t=0.68
2.8314024968535207
% es.EY (V/m) @ t=0.68
0.17828409576617554
% es.EZ (V/m) @ t=0.68
1.1446325376527273
% es.tEX (V/m) @ t=0.68
2.831402496853519
% es.tEY (V/m) @ t=0.68
0
% es.tEZ (V/m) @ t=0.68
1.1446325376527273
% es.Ex (V/m) @ t=0.68
2.8314024968535207
% es.Ey (V/m) @ t=0.68
0.17828409576617554
% es.Ez (V/m) @ t=0.68
1.1446325376527273
% es.tEx (V/m) @ t=0.68
2.831402496853519
% es.tEy (V/m) @ t=0.68
0
% es.tEz (V/m) @ t=0.68
1.1446325376527273
% V (V) @ t=0.68
0.015282954583793964
% es.normE (V/m) @ t=0.7
3.1064042029618193
% es.EX (V/m) @ t=0.7
2.870723343162606
% es.EY (V/m) @ t=0.7
0.18075989258424552
% es.EZ (V/m) @ t=0.7
1.1605283886317768
% es.tEX (V/m) @ t=0.7
2.870723343162604
% es.tEY (V/m) @ t=0.7
0
% es.tEZ (V/m) @ t=0.7
1.160528388631775
% es.Ex (V/m) @ t=0.7
2.870723343162606
% es.Ey (V/m) @ t=0.7
0.18075989258424552
% es.Ez (V/m) @ t=0.7
1.1605283886317768
% es.tEx (V/m) @ t=0.7
2.870723343162604
% es.tEy (V/m) @ t=0.7
0
% es.tEz (V/m) @ t=0.7
1.160528388631775
% V (V) @ t=0.7
0.01549519894521487
% es.normE (V/m) @ t=0.72
3.1493395081559132
% es.EX (V/m) @ t=0.72
2.910401229016964
% es.EY (V/m) @ t=0.72
0.18325815423417102
% es.EZ (V/m) @ t=0.72
1.1765685573862665
% es.tEX (V/m) @ t=0.72
2.910401229016969
% es.tEY (V/m) @ t=0.72
0
% es.tEZ (V/m) @ t=0.72
1.1765685573862665
% es.Ex (V/m) @ t=0.72
2.910401229016964
% es.Ey (V/m) @ t=0.72
0.18325815423417102
% es.Ez (V/m) @ t=0.72
1.1765685573862665
% es.tEx (V/m) @ t=0.72
2.910401229016969
% es.tEy (V/m) @ t=0.72
0
% es.tEz (V/m) @ t=0.72
1.1765685573862665
% V (V) @ t=0.72
0.01570937106464988
% es.normE (V/m) @ t=0.74
3.192661157146517
% es.EX (V/m) @ t=0.74
2.9504361544166215
% es.EY (V/m) @ t=0.74
0.1857788807159807
% es.EZ (V/m) @ t=0.74
1.1927530439162028
% es.tEX (V/m) @ t=0.74
2.950436154416625
% es.tEY (V/m) @ t=0.74
0
% es.tEZ (V/m) @ t=0.74
1.1927530439161993
% es.Ex (V/m) @ t=0.74
2.9504361544166215
% es.Ey (V/m) @ t=0.74
0.1857788807159807
% es.Ez (V/m) @ t=0.74
1.1927530439162028
% es.tEx (V/m) @ t=0.74
2.950436154416625
% es.tEy (V/m) @ t=0.74
0
% es.tEz (V/m) @ t=0.74
1.1927530439161993
% V (V) @ t=0.74
0.015925470942098993
% es.normE (V/m) @ t=0.76
3.236369149933627
% es.EX (V/m) @ t=0.76
2.9908281193615682
% es.EY (V/m) @ t=0.76
0.18832207202963014
% es.EZ (V/m) @ t=0.76
1.2090818482215986
% es.tEX (V/m) @ t=0.76
2.9908281193615647
% es.tEY (V/m) @ t=0.76
0
% es.tEZ (V/m) @ t=0.76
1.209081848221608
% es.Ex (V/m) @ t=0.76
2.9908281193615682
% es.Ey (V/m) @ t=0.76
0.18832207202963014
% es.Ez (V/m) @ t=0.76
1.2090818482215986
% es.tEx (V/m) @ t=0.76
2.9908281193615647
% es.tEy (V/m) @ t=0.76
0
% es.tEz (V/m) @ t=0.76
1.209081848221608
% V (V) @ t=0.76
0.016143498577562202
% es.normE (V/m) @ t=0.78
3.2804634865172466
% es.EX (V/m) @ t=0.78
3.031577123851805
% es.EY (V/m) @ t=0.78
0.190887728175133
% es.EZ (V/m) @ t=0.78
1.2255549703024418
% es.tEX (V/m) @ t=0.78
3.031577123851804
% es.tEY (V/m) @ t=0.78
0
% es.tEZ (V/m) @ t=0.78
1.2255549703024453
% es.Ex (V/m) @ t=0.78
3.031577123851805
% es.Ey (V/m) @ t=0.78
0.190887728175133
% es.Ez (V/m) @ t=0.78
1.2255549703024418
% es.tEx (V/m) @ t=0.78
3.031577123851804
% es.tEy (V/m) @ t=0.78
0
% es.tEz (V/m) @ t=0.78
1.2255549703024453
% V (V) @ t=0.78
0.01636345397103952
% es.normE (V/m) @ t=0.8
3.324944166897418
% es.EX (V/m) @ t=0.8
3.0726831678873534
% es.EY (V/m) @ t=0.8
0.19347584915250926
% es.EZ (V/m) @ t=0.8
1.242172410158778
% es.tEX (V/m) @ t=0.8
3.07268316788735
% es.tEY (V/m) @ t=0.8
0
% es.tEZ (V/m) @ t=0.8
1.242172410158778
% es.Ex (V/m) @ t=0.8
3.0726831678873534
% es.Ey (V/m) @ t=0.8
0.19347584915250926
% es.Ez (V/m) @ t=0.8
1.242172410158778
% es.tEx (V/m) @ t=0.8
3.07268316788735
% es.tEy (V/m) @ t=0.8
0
% es.tEz (V/m) @ t=0.8
1.242172410158778
% V (V) @ t=0.8
0.01658533712253094
% es.normE (V/m) @ t=0.82
3.3698612622483184
% es.EX (V/m) @ t=0.82
3.1141925164466304
% es.EY (V/m) @ t=0.82
0.1960893647433224
% es.EZ (V/m) @ t=0.82
1.2589528910755399
% es.tEX (V/m) @ t=0.82
3.1141925164466446
% es.tEY (V/m) @ t=0.82
0
% es.tEZ (V/m) @ t=0.82
1.258952891075535
% es.Ex (V/m) @ t=0.82
3.1141925164466304
% es.Ey (V/m) @ t=0.82
0.1960893647433224
% es.Ez (V/m) @ t=0.82
1.2589528910755399
% es.tEx (V/m) @ t=0.82
3.1141925164466446
% es.tEy (V/m) @ t=0.82
0
% es.tEz (V/m) @ t=0.82
1.258952891075535
% V (V) @ t=0.82
0.016809397180924286
% es.normE (V/m) @ t=0.84
3.4159212622050443
% es.EX (V/m) @ t=0.84
3.1567579548545908
% es.EY (V/m) @ t=0.84
0.19876961330941567
% es.EZ (V/m) @ t=0.84
1.2761605931325475
% es.tEX (V/m) @ t=0.84
3.1567579548545837
% es.tEY (V/m) @ t=0.84
0
% es.tEZ (V/m) @ t=0.84
1.276160593132544
% es.Ex (V/m) @ t=0.84
3.1567579548545908
% es.Ey (V/m) @ t=0.84
0.19876961330941567
% es.Ez (V/m) @ t=0.84
1.2761605931325475
% es.tEx (V/m) @ t=0.84
3.1567579548545837
% es.tEy (V/m) @ t=0.84
0
% es.tEz (V/m) @ t=0.84
1.276160593132544
% V (V) @ t=0.84
0.017039149564211854
% es.normE (V/m) @ t=0.86
3.462476795860155
% es.EX (V/m) @ t=0.86
3.1997813225619502
% es.EY (V/m) @ t=0.86
0.20147871566408893
% es.EZ (V/m) @ t=0.86
1.2935534427176263
% es.tEX (V/m) @ t=0.86
3.199781322561943
% es.tEY (V/m) @ t=0.86
0
% es.tEZ (V/m) @ t=0.86
1.2935534427176316
% es.Ex (V/m) @ t=0.86
3.1997813225619502
% es.Ey (V/m) @ t=0.86
0.20147871566408893
% es.Ez (V/m) @ t=0.86
1.2935534427176263
% es.tEx (V/m) @ t=0.86
3.199781322561943
% es.tEy (V/m) @ t=0.86
0
% es.tEz (V/m) @ t=0.86
1.2935534427176316
% V (V) @ t=0.86
0.017271373022961826
% es.normE (V/m) @ t=0.88
3.5095278632137212
% es.EX (V/m) @ t=0.88
3.24326261956881
% es.EY (V/m) @ t=0.88
0.20421667180726932
% es.EZ (V/m) @ t=0.88
1.3111314398307137
% es.tEX (V/m) @ t=0.88
3.2432626195688314
% es.tEY (V/m) @ t=0.88
0
% es.tEZ (V/m) @ t=0.88
1.3111314398307083
% es.Ex (V/m) @ t=0.88
3.24326261956881
% es.Ey (V/m) @ t=0.88
0.20421667180726932
% es.Ez (V/m) @ t=0.88
1.3111314398307137
% es.tEx (V/m) @ t=0.88
3.2432626195688314
% es.tEy (V/m) @ t=0.88
0
% es.tEz (V/m) @ t=0.88
1.3111314398307083
% V (V) @ t=0.88
0.01750606755717424
% es.normE (V/m) @ t=0.9
3.5570744642657104
% es.EX (V/m) @ t=0.9
3.2872018458751118
% es.EY (V/m) @ t=0.9
0.20698348173899217
% es.EZ (V/m) @ t=0.9
1.3288945844718594
% es.tEX (V/m) @ t=0.9
3.2872018458751153
% es.tEY (V/m) @ t=0.9
0
% es.tEZ (V/m) @ t=0.9
1.3288945844718594
% es.Ex (V/m) @ t=0.9
3.2872018458751118
% es.Ey (V/m) @ t=0.9
0.20698348173899217
% es.Ez (V/m) @ t=0.9
1.3288945844718594
% es.tEx (V/m) @ t=0.9
3.2872018458751153
% es.tEy (V/m) @ t=0.9
0
% es.tEz (V/m) @ t=0.9
1.3288945844718594
% V (V) @ t=0.9
0.01774323316684906
% es.normE (V/m) @ t=0.92
3.6051165990161387
% es.EX (V/m) @ t=0.92
3.3315990014808916
% es.EY (V/m) @ t=0.92
0.20977914545929366
% es.EZ (V/m) @ t=0.92
1.3468428766409861
% es.tEX (V/m) @ t=0.92
3.3315990014808996
% es.tEY (V/m) @ t=0.92
0
% es.tEZ (V/m) @ t=0.92
1.3468428766409808
% es.Ex (V/m) @ t=0.92
3.3315990014808916
% es.Ey (V/m) @ t=0.92
0.20977914545929366
% es.Ez (V/m) @ t=0.92
1.3468428766409861
% es.tEx (V/m) @ t=0.92
3.3315990014808996
% es.tEy (V/m) @ t=0.92
0
% es.tEz (V/m) @ t=0.92
1.3468428766409808
% V (V) @ t=0.92
0.0179828698519863
% es.normE (V/m) @ t=0.94
3.653654267464989
% es.EX (V/m) @ t=0.94
3.3764540863860955
% es.EY (V/m) @ t=0.94
0.21260366296813027
% es.EZ (V/m) @ t=0.94
1.3649763163381863
% es.tEX (V/m) @ t=0.94
3.3764540863861026
% es.tEY (V/m) @ t=0.94
0
% es.tEZ (V/m) @ t=0.94
1.3649763163381792
% es.Ex (V/m) @ t=0.94
3.3764540863860955
% es.Ey (V/m) @ t=0.94
0.21260366296813027
% es.Ez (V/m) @ t=0.94
1.3649763163381863
% es.tEx (V/m) @ t=0.94
3.3764540863861026
% es.tEy (V/m) @ t=0.94
0
% es.tEz (V/m) @ t=0.94
1.3649763163381792
% V (V) @ t=0.94
0.01822497761258597
% es.normE (V/m) @ t=0.96
3.7026874696122953
% es.EX (V/m) @ t=0.96
3.421767100590774
% es.EY (V/m) @ t=0.96
0.215457034265506
% es.EZ (V/m) @ t=0.96
1.383294903563408
% es.tEX (V/m) @ t=0.96
3.421767100590774
% es.tEY (V/m) @ t=0.96
0
% es.tEZ (V/m) @ t=0.96
1.3832949035634057
% es.Ex (V/m) @ t=0.96
3.421767100590774
% es.Ey (V/m) @ t=0.96
0.215457034265506
% es.Ez (V/m) @ t=0.96
1.383294903563408
% es.tEx (V/m) @ t=0.96
3.421767100590774
% es.tEy (V/m) @ t=0.96
0
% es.tEz (V/m) @ t=0.96
1.3832949035634057
% V (V) @ t=0.96
0.01846955644864805
% es.normE (V/m) @ t=0.98
3.7522162054580526
% es.EX (V/m) @ t=0.98
3.467538044094903
% es.EY (V/m) @ t=0.98
0.2183392593514233
% es.EZ (V/m) @ t=0.98
1.4017986383166767
% es.tEX (V/m) @ t=0.98
3.4675380440949084
% es.tEY (V/m) @ t=0.98
0
% es.tEZ (V/m) @ t=0.98
1.4017986383166692
% es.Ex (V/m) @ t=0.98
3.467538044094903
% es.Ey (V/m) @ t=0.98
0.2183392593514233
% es.Ez (V/m) @ t=0.98
1.4017986383166767
% es.tEx (V/m) @ t=0.98
3.4675380440949084
% es.tEy (V/m) @ t=0.98
0
% es.tEz (V/m) @ t=0.98
1.4017986383166692
% V (V) @ t=0.98
0.01871660636017255
% es.normE (V/m) @ t=1
3.8022404750022565
% es.EX (V/m) @ t=1
3.5137669168984935
% es.EY (V/m) @ t=1
0.22125033822591123
% es.EZ (V/m) @ t=1
1.4204875205979377
% es.tEX (V/m) @ t=1
3.5137669168985113
% es.tEY (V/m) @ t=1
0
% es.tEZ (V/m) @ t=1
1.4204875205979413
% es.Ex (V/m) @ t=1
3.5137669168984935
% es.Ey (V/m) @ t=1
0.22125033822591123
% es.Ez (V/m) @ t=1
1.4204875205979377
% es.tEx (V/m) @ t=1
3.5137669168985113
% es.tEy (V/m) @ t=1
0
% es.tEz (V/m) @ t=1
1.4204875205979413
% V (V) @ t=1
0.018966127347159478
% es.normE (V/m) @ t=1.02
3.8527602782449275
% es.EX (V/m) @ t=1.02
3.560453719001531
% es.EY (V/m) @ t=1.02
0.22419027088892074
% es.EZ (V/m) @ t=1.02
1.4393615504072739
% es.tEX (V/m) @ t=1.02
3.5604537190015506
% es.tEY (V/m) @ t=1.02
0
% es.tEZ (V/m) @ t=1.02
1.439361550407277
% es.Ex (V/m) @ t=1.02
3.560453719001531
% es.Ey (V/m) @ t=1.02
0.22419027088892074
% es.Ez (V/m) @ t=1.02
1.4393615504072739
% es.tEx (V/m) @ t=1.02
3.5604537190015506
% es.tEy (V/m) @ t=1.02
0
% es.tEz (V/m) @ t=1.02
1.439361550407277
% V (V) @ t=1.02
0.01921811940960883
% es.normE (V/m) @ t=1.04
3.90377561518606
% es.EX (V/m) @ t=1.04
3.6075984504040353
% es.EY (V/m) @ t=1.04
0.22715905734045294
% es.EZ (V/m) @ t=1.04
1.4584207277445889
% es.tEX (V/m) @ t=1.04
3.607598450404044
% es.tEY (V/m) @ t=1.04
0
% es.tEZ (V/m) @ t=1.04
1.4584207277446009
% es.Ex (V/m) @ t=1.04
3.6075984504040353
% es.Ey (V/m) @ t=1.04
0.22715905734045294
% es.Ez (V/m) @ t=1.04
1.4584207277445889
% es.tEx (V/m) @ t=1.04
3.607598450404044
% es.tEy (V/m) @ t=1.04
0
% es.tEz (V/m) @ t=1.04
1.4584207277446009
% V (V) @ t=1.04