% Model:              1 neuron.mph
% Version:            COMSOL 6.0.0.405
% Date:               Mar 16 2023, 18:31
% Dimension:          0
% Nodes:              14017
% Expressions:        14017
% Description:        Electric field norm, Electric field, X component, Electric field, Y component, Electric field, Z component, Tangential electric field, X component, Tangential electric field, Y component, Tangential electric field, Z component, Electric field, x component, Electric field, y component, Electric field, z component, Tangential electric field, x component, Tangential electric field, y component, Tangential electric field, z component, Electric potential
% Length unit:        mm
% x
1.33
% y
12.2
% z
1
% es.normE (V/m) @ t=0
2.34758901027986
% es.EX (V/m) @ t=0
0.724616243483146
% es.EY (V/m) @ t=0
0.17554837414385582
% es.EZ (V/m) @ t=0
2.2260315892138873
% es.tEX (V/m) @ t=0
0.7246162434831476
% es.tEY (V/m) @ t=0
0
% es.tEZ (V/m) @ t=0
2.2260315892138856
% es.Ex (V/m) @ t=0
0.724616243483146
% es.Ey (V/m) @ t=0
0.17554837414385582
% es.Ez (V/m) @ t=0
2.2260315892138873
% es.tEx (V/m) @ t=0
0.7246162434831476
% es.tEy (V/m) @ t=0
0
% es.tEz (V/m) @ t=0
2.2260315892138856
% V (V) @ t=0
0.010979722005142176
% es.normE (V/m) @ t=0.02
2.038897670578419
% es.EX (V/m) @ t=0.02
0.6293343359665147
% es.EY (V/m) @ t=0.02
0.152465005364796
% es.EZ (V/m) @ t=0.02
1.9333241900567733
% es.tEX (V/m) @ t=0.02
0.6293343359665187
% es.tEY (V/m) @ t=0.02
0
% es.tEZ (V/m) @ t=0.02
1.9333241900567728
% es.Ex (V/m) @ t=0.02
0.6293343359665147
% es.Ey (V/m) @ t=0.02
0.152465005364796
% es.Ez (V/m) @ t=0.02
1.9333241900567733
% es.tEx (V/m) @ t=0.02
0.6293343359665187
% es.tEy (V/m) @ t=0.02
0
% es.tEz (V/m) @ t=0.02
1.9333241900567728
% V (V) @ t=0.02
0.009535966271596901
% es.normE (V/m) @ t=0.04
2.0691250316811107
% es.EX (V/m) @ t=0.04
0.6386644345495582
% es.EY (V/m) @ t=0.04
0.1547253514313912
% es.EZ (V/m) @ t=0.04
1.9619863879125221
% es.tEX (V/m) @ t=0.04
0.6386644345495611
% es.tEY (V/m) @ t=0.04
0
% es.tEZ (V/m) @ t=0.04
1.9619863879125354
% es.Ex (V/m) @ t=0.04
0.6386644345495582
% es.Ey (V/m) @ t=0.04
0.1547253514313912
% es.Ez (V/m) @ t=0.04
1.9619863879125221
% es.tEx (V/m) @ t=0.04
0.6386644345495611
% es.tEy (V/m) @ t=0.04
0
% es.tEz (V/m) @ t=0.04
1.9619863879125354
% V (V) @ t=0.04
0.009677340269114865
% es.normE (V/m) @ t=0.06
2.0998339262527654
% es.EX (V/m) @ t=0.06
0.6481431651535434
% es.EY (V/m) @ t=0.06
0.15702170607230725
% es.EZ (V/m) @ t=0.06
1.9911051855666195
% es.tEX (V/m) @ t=0.06
0.6481431651535416
% es.tEY (V/m) @ t=0.06
0
% es.tEZ (V/m) @ t=0.06
1.9911051855666244
% es.Ex (V/m) @ t=0.06
0.6481431651535434
% es.Ey (V/m) @ t=0.06
0.15702170607230725
% es.Ez (V/m) @ t=0.06
1.9911051855666195
% es.tEx (V/m) @ t=0.06
0.6481431651535416
% es.tEy (V/m) @ t=0.06
0
% es.tEz (V/m) @ t=0.06
1.9911051855666244
% V (V) @ t=0.06
0.009820966393006263
% es.normE (V/m) @ t=0.08
2.1312589534395943
% es.EX (V/m) @ t=0.08
0.6578429401296418
% es.EY (V/m) @ t=0.08
0.15937161169659242
% es.EZ (V/m) @ t=0.08
2.020903034719228
% es.tEX (V/m) @ t=0.08
0.6578429401296404
% es.tEY (V/m) @ t=0.08
0
% es.tEZ (V/m) @ t=0.08
2.020903034719227
% es.Ex (V/m) @ t=0.08
0.6578429401296418
% es.Ey (V/m) @ t=0.08
0.15937161169659242
% es.Ez (V/m) @ t=0.08
2.020903034719228
% es.tEx (V/m) @ t=0.08
0.6578429401296404
% es.tEy (V/m) @ t=0.08
0
% es.tEz (V/m) @ t=0.08
2.020903034719227
% V (V) @ t=0.08
0.009967941887377808
% es.normE (V/m) @ t=0.1
2.163322152416309
% es.EX (V/m) @ t=0.1
0.6677396957760589
% es.EY (V/m) @ t=0.1
0.1617692385476207
% es.EZ (V/m) @ t=0.1
2.0513060113315484
% es.tEX (V/m) @ t=0.1
0.6677396957760635
% es.tEY (V/m) @ t=0.1
0
% es.tEZ (V/m) @ t=0.1
2.051306011331544
% es.Ex (V/m) @ t=0.1
0.6677396957760589
% es.Ey (V/m) @ t=0.1
0.1617692385476207
% es.Ez (V/m) @ t=0.1
2.0513060113315484
% es.tEx (V/m) @ t=0.1
0.6677396957760635
% es.tEy (V/m) @ t=0.1
0
% es.tEz (V/m) @ t=0.1
2.051306011331544
% V (V) @ t=0.1
0.010117902127464114
% es.normE (V/m) @ t=0.12
2.195385351393051
% es.EX (V/m) @ t=0.12
0.6776364514225128
% es.EY (V/m) @ t=0.12
0.16416686539867542
% es.EZ (V/m) @ t=0.12
2.0817089879438835
% es.tEX (V/m) @ t=0.12
0.6776364514225222
% es.tEY (V/m) @ t=0.12
0
% es.tEZ (V/m) @ t=0.12
2.0817089879438964
% es.Ex (V/m) @ t=0.12
0.6776364514225128
% es.Ey (V/m) @ t=0.12
0.16416686539867542
% es.Ez (V/m) @ t=0.12
2.0817089879438835
% es.tEx (V/m) @ t=0.12
0.6776364514225222
% es.tEy (V/m) @ t=0.12
0
% es.tEz (V/m) @ t=0.12
2.0817089879438964
% V (V) @ t=0.12
0.010267862367550416
% es.normE (V/m) @ t=0.14
2.2276475404081184
% es.EX (V/m) @ t=0.14
0.6875946281326877
% es.EY (V/m) @ t=0.14
0.16657937235495845
% es.EZ (V/m) @ t=0.14
2.112300650953086
% es.tEX (V/m) @ t=0.14
0.6875946281326932
% es.tEY (V/m) @ t=0.14
0
% es.tEZ (V/m) @ t=0.14
2.1123006509530953
% es.Ex (V/m) @ t=0.14
0.6875946281326877
% es.Ey (V/m) @ t=0.14
0.16657937235495845
% es.Ez (V/m) @ t=0.14
2.112300650953086
% es.tEx (V/m) @ t=0.14
0.6875946281326932
% es.tEy (V/m) @ t=0.14
0
% es.tEz (V/m) @ t=0.14
2.1123006509530953
% V (V) @ t=0.14
0.010418753288313803
% es.normE (V/m) @ t=0.16
2.2626498099121637
% es.EX (V/m) @ t=0.16
0.6983985690820758
% es.EY (V/m) @ t=0.16
0.16919677743763673
% es.EZ (V/m) @ t=0.16
2.1454905139471774
% es.tEX (V/m) @ t=0.16
0.6983985690820873
% es.tEY (V/m) @ t=0.16
0
% es.tEZ (V/m) @ t=0.16
2.145490513947202
% es.Ex (V/m) @ t=0.16
0.6983985690820758
% es.Ey (V/m) @ t=0.16
0.16919677743763673
% es.Ez (V/m) @ t=0.16
2.1454905139471774
% es.tEx (V/m) @ t=0.16
0.6983985690820873
% es.tEy (V/m) @ t=0.16
0
% es.tEz (V/m) @ t=0.16
2.145490513947202
% V (V) @ t=0.16
0.010582459624288755
% es.normE (V/m) @ t=0.18
2.2976520794161903
% es.EX (V/m) @ t=0.18
0.709202510031457
% es.EY (V/m) @ t=0.18
0.1718141825202798
% es.EZ (V/m) @ t=0.18
2.1786803769412537
% es.tEX (V/m) @ t=0.18
0.709202510031453
% es.tEY (V/m) @ t=0.18
0
% es.tEZ (V/m) @ t=0.18
2.1786803769412497
% es.Ex (V/m) @ t=0.18
0.709202510031457
% es.Ey (V/m) @ t=0.18
0.1718141825202798
% es.Ez (V/m) @ t=0.18
2.1786803769412537
% es.tEx (V/m) @ t=0.18
0.709202510031453
% es.tEy (V/m) @ t=0.18
0
% es.tEz (V/m) @ t=0.18
2.1786803769412497
% V (V) @ t=0.18
0.010746165960263706
% es.normE (V/m) @ t=0.2
2.3326543489202174
% es.EX (V/m) @ t=0.2
0.7200064509808415
% es.EY (V/m) @ t=0.2
0.17443158760296462
% es.EZ (V/m) @ t=0.2
2.211870239935326
% es.tEX (V/m) @ t=0.2
0.7200064509808399
% es.tEY (V/m) @ t=0.2
0
% es.tEZ (V/m) @ t=0.2
2.211870239935342
% es.Ex (V/m) @ t=0.2
0.7200064509808415
% es.Ey (V/m) @ t=0.2
0.17443158760296462
% es.Ez (V/m) @ t=0.2
2.211870239935326
% es.tEx (V/m) @ t=0.2
0.7200064509808399
% es.tEy (V/m) @ t=0.2
0
% es.tEz (V/m) @ t=0.2
2.211870239935342
% V (V) @ t=0.2
0.01090987229623866
% es.normE (V/m) @ t=0.22
2.3676566184242542
% es.EX (V/m) @ t=0.22
0.7308103919302218
% es.EY (V/m) @ t=0.22
0.17704899268562202
% es.EZ (V/m) @ t=0.22
2.2450601029294126
% es.tEX (V/m) @ t=0.22
0.7308103919302198
% es.tEY (V/m) @ t=0.22
0
% es.tEZ (V/m) @ t=0.22
2.24506010292942
% es.Ex (V/m) @ t=0.22
0.7308103919302218
% es.Ey (V/m) @ t=0.22
0.17704899268562202
% es.Ez (V/m) @ t=0.22
2.2450601029294126
% es.tEx (V/m) @ t=0.22
0.7308103919302198
% es.tEy (V/m) @ t=0.22
0
% es.tEz (V/m) @ t=0.22
2.24506010292942
% V (V) @ t=0.22
0.01107357863221361
% es.normE (V/m) @ t=0.24
2.4026588879282818
% es.EX (V/m) @ t=0.24
0.741614332879585
% es.EY (V/m) @ t=0.24
0.1796663977682963
% es.EZ (V/m) @ t=0.24
2.2782499659234934
% es.tEX (V/m) @ t=0.24
0.7416143328795926
% es.tEY (V/m) @ t=0.24
0
% es.tEZ (V/m) @ t=0.24
2.2782499659235
% es.Ex (V/m) @ t=0.24
0.741614332879585
% es.Ey (V/m) @ t=0.24
0.1796663977682963
% es.Ez (V/m) @ t=0.24
2.2782499659234934
% es.tEx (V/m) @ t=0.24
0.7416143328795926
% es.tEy (V/m) @ t=0.24
0
% es.tEz (V/m) @ t=0.24
2.2782499659235
% V (V) @ t=0.24
0.011237284968188562
% es.normE (V/m) @ t=0.26
2.4376611574323075
% es.EX (V/m) @ t=0.26
0.752418273828966
% es.EY (V/m) @ t=0.26
0.18228380285094115
% es.EZ (V/m) @ t=0.26
2.311439828917569
% es.tEX (V/m) @ t=0.26
0.7524182738289795
% es.tEY (V/m) @ t=0.26
0
% es.tEZ (V/m) @ t=0.26
2.3114398289175693
% es.Ex (V/m) @ t=0.26
0.752418273828966
% es.Ey (V/m) @ t=0.26
0.18228380285094115
% es.Ez (V/m) @ t=0.26
2.311439828917569
% es.tEx (V/m) @ t=0.26
0.7524182738289795
% es.tEy (V/m) @ t=0.26
0
% es.tEz (V/m) @ t=0.26
2.3114398289175693
% V (V) @ t=0.26
0.011400991304163515
% es.normE (V/m) @ t=0.28
2.473125842588058
% es.EX (V/m) @ t=0.28
0.7633649458487444
% es.EY (V/m) @ t=0.28
0.18493578653090614
% es.EZ (V/m) @ t=0.28
2.3450681638256787
% es.tEX (V/m) @ t=0.28
0.7633649458487426
% es.tEY (V/m) @ t=0.28
0
% es.tEZ (V/m) @ t=0.28
2.3450681638256903
% es.Ex (V/m) @ t=0.28
0.7633649458487444
% es.Ey (V/m) @ t=0.28
0.18493578653090614
% es.Ez (V/m) @ t=0.28
2.3450681638256787
% es.tEx (V/m) @ t=0.28
0.7633649458487426
% es.tEy (V/m) @ t=0.28
0
% es.tEz (V/m) @ t=0.28
2.3450681638256903
% V (V) @ t=0.28
0.01156686036708659
% es.normE (V/m) @ t=0.3
2.5113051335077716
% es.EX (V/m) @ t=0.3
0.7751495189752787
% es.EY (V/m) @ t=0.3
0.18779076346857904
% es.EZ (V/m) @ t=0.3
2.3812705430611145
% es.tEX (V/m) @ t=0.3
0.775149518975276
% es.tEY (V/m) @ t=0.3
0
% es.tEZ (V/m) @ t=0.3
2.3812705430611363
% es.Ex (V/m) @ t=0.3
0.7751495189752787
% es.Ey (V/m) @ t=0.3
0.18779076346857904
% es.Ez (V/m) @ t=0.3
2.3812705430611145
% es.tEx (V/m) @ t=0.3
0.775149518975276
% es.tEy (V/m) @ t=0.3
0
% es.tEz (V/m) @ t=0.3
2.3812705430611363
% V (V) @ t=0.3
0.011745425693679458
% es.normE (V/m) @ t=0.32
2.549484424427532
% es.EX (V/m) @ t=0.32
0.7869340921018304
% es.EY (V/m) @ t=0.32
0.19064574040622317
% es.EZ (V/m) @ t=0.32
2.417472922296596
% es.tEX (V/m) @ t=0.32
0.7869340921018235
% es.tEY (V/m) @ t=0.32
0
% es.tEZ (V/m) @ t=0.32
2.4174729222966
% es.Ex (V/m) @ t=0.32
0.7869340921018304
% es.Ey (V/m) @ t=0.32
0.19064574040622317
% es.Ez (V/m) @ t=0.32
2.417472922296596
% es.tEx (V/m) @ t=0.32
0.7869340921018235
% es.tEy (V/m) @ t=0.32
0
% es.tEz (V/m) @ t=0.32
2.4174729222966
% V (V) @ t=0.32
0.011923991020272326
% es.normE (V/m) @ t=0.34
2.5876637153472406
% es.EX (V/m) @ t=0.34
0.7987186652283667
% es.EY (V/m) @ t=0.34
0.1935007173438813
% es.EZ (V/m) @ t=0.34
2.453675301532028
% es.tEX (V/m) @ t=0.34
0.7987186652283711
% es.tEY (V/m) @ t=0.34
0
% es.tEZ (V/m) @ t=0.34
2.453675301532046
% es.Ex (V/m) @ t=0.34
0.7987186652283667
% es.Ey (V/m) @ t=0.34
0.1935007173438813
% es.Ez (V/m) @ t=0.34
2.453675301532028
% es.tEx (V/m) @ t=0.34
0.7987186652283711
% es.tEy (V/m) @ t=0.34
0
% es.tEz (V/m) @ t=0.34
2.453675301532046
% V (V) @ t=0.34
0.012102556346865193
% es.normE (V/m) @ t=0.36
2.6258430062669884
% es.EX (V/m) @ t=0.36
0.8105032383549149
% es.EY (V/m) @ t=0.36
0.1963556942815361
% es.EZ (V/m) @ t=0.36
2.489877680767497
% es.tEX (V/m) @ t=0.36
0.8105032383549187
% es.tEY (V/m) @ t=0.36
0
% es.tEZ (V/m) @ t=0.36
2.4898776807674974
% es.Ex (V/m) @ t=0.36
0.8105032383549149
% es.Ey (V/m) @ t=0.36
0.1963556942815361
% es.Ez (V/m) @ t=0.36
2.489877680767497
% es.tEx (V/m) @ t=0.36
0.8105032383549187
% es.tEy (V/m) @ t=0.36
0
% es.tEz (V/m) @ t=0.36
2.4898776807674974
% V (V) @ t=0.36
0.012281121673458063
% es.normE (V/m) @ t=0.38
2.664022297186728
% es.EX (V/m) @ t=0.38
0.8222878114814631
% es.EY (V/m) @ t=0.38
0.19921067121917346
% es.EZ (V/m) @ t=0.38
2.5260800600029585
% es.tEX (V/m) @ t=0.38
0.8222878114814662
% es.tEY (V/m) @ t=0.38
0
% es.tEZ (V/m) @ t=0.38
2.526080060002947
% es.Ex (V/m) @ t=0.38
0.8222878114814631
% es.Ey (V/m) @ t=0.38
0.19921067121917346
% es.Ez (V/m) @ t=0.38
2.5260800600029585
% es.tEx (V/m) @ t=0.38
0.8222878114814662
% es.tEy (V/m) @ t=0.38
0
% es.tEz (V/m) @ t=0.38
2.526080060002947
% V (V) @ t=0.38
0.01245968700005093
% es.normE (V/m) @ t=0.4
2.7022015881064507
% es.EX (V/m) @ t=0.4
0.8340723846079949
% es.EY (V/m) @ t=0.4
0.20206564815683237
% es.EZ (V/m) @ t=0.4
2.562282439238406
% es.tEX (V/m) @ t=0.4
0.8340723846080067
% es.tEY (V/m) @ t=0.4
0
% es.tEZ (V/m) @ t=0.4
2.562282439238409
% es.Ex (V/m) @ t=0.4
0.8340723846079949
% es.Ey (V/m) @ t=0.4
0.20206564815683237
% es.Ez (V/m) @ t=0.4
2.562282439238406
% es.tEx (V/m) @ t=0.4
0.8340723846080067
% es.tEy (V/m) @ t=0.4
0
% es.tEz (V/m) @ t=0.4
2.562282439238409
% V (V) @ t=0.4
0.012638252326643798
% es.normE (V/m) @ t=0.42
2.7411449249060764
% es.EX (V/m) @ t=0.42
0.8460927912010627
% es.EY (V/m) @ t=0.42
0.20497775904249793
% es.EZ (V/m) @ t=0.42
2.5992093022978637
% es.tEX (V/m) @ t=0.42
0.8460927912010661
% es.tEY (V/m) @ t=0.42
0
% es.tEZ (V/m) @ t=0.42
2.5992093022978757
% es.Ex (V/m) @ t=0.42
0.8460927912010627
% es.Ey (V/m) @ t=0.42
0.20497775904249793
% es.Ez (V/m) @ t=0.42
2.5992093022978637
% es.tEx (V/m) @ t=0.42
0.8460927912010661
% es.tEy (V/m) @ t=0.42
0
% es.tEz (V/m) @ t=0.42
2.5992093022978757
% V (V) @ t=0.42
0.012820391111051753
% es.normE (V/m) @ t=0.44
2.782744372026924
% es.EX (V/m) @ t=0.44
0.8589330434617919
% es.EY (V/m) @ t=0.44
0.20808848898088717
% es.EZ (V/m) @ t=0.44
2.638654743119657
% es.tEX (V/m) @ t=0.44
0.8589330434617892
% es.tEY (V/m) @ t=0.44
0
% es.tEZ (V/m) @ t=0.44
2.6386547431196625
% es.Ex (V/m) @ t=0.44
0.8589330434617919
% es.Ey (V/m) @ t=0.44
0.20808848898088717
% es.Ez (V/m) @ t=0.44
2.638654743119657
% es.tEx (V/m) @ t=0.44
0.8589330434617892
% es.tEy (V/m) @ t=0.44
0
% es.tEz (V/m) @ t=0.44
2.6386547431196625
% V (V) @ t=0.44
0.013014952576393816
% es.normE (V/m) @ t=0.46
2.8243438191477326
% es.EX (V/m) @ t=0.46
0.8717732957224953
% es.EY (V/m) @ t=0.46
0.21119921891930882
% es.EZ (V/m) @ t=0.46
2.6781001839414147
% es.tEX (V/m) @ t=0.46
0.8717732957224982
% es.tEY (V/m) @ t=0.46
0
% es.tEZ (V/m) @ t=0.46
2.6781001839414245
% es.Ex (V/m) @ t=0.46
0.8717732957224953
% es.Ey (V/m) @ t=0.46
0.21119921891930882
% es.Ez (V/m) @ t=0.46
2.6781001839414147
% es.tEx (V/m) @ t=0.46
0.8717732957224982
% es.tEy (V/m) @ t=0.46
0
% es.tEz (V/m) @ t=0.46
2.6781001839414245
% V (V) @ t=0.46
0.013209514041735879
% es.normE (V/m) @ t=0.48
2.8659432662685345
% es.EX (V/m) @ t=0.48
0.8846135479832029
% es.EY (V/m) @ t=0.48
0.2143099488577047
% es.EZ (V/m) @ t=0.48
2.717545624763166
% es.tEX (V/m) @ t=0.48
0.8846135479832071
% es.tEY (V/m) @ t=0.48
0
% es.tEZ (V/m) @ t=0.48
2.7175456247631793
% es.Ex (V/m) @ t=0.48
0.8846135479832029
% es.Ey (V/m) @ t=0.48
0.2143099488577047
% es.Ez (V/m) @ t=0.48
2.717545624763166
% es.tEx (V/m) @ t=0.48
0.8846135479832071
% es.tEy (V/m) @ t=0.48
0
% es.tEz (V/m) @ t=0.48
2.7175456247631793
% V (V) @ t=0.48
0.01340407550707794
% es.normE (V/m) @ t=0.5
2.9075427133893657
% es.EX (V/m) @ t=0.5
0.8974538002439165
% es.EY (V/m) @ t=0.5
0.21742067879610483
% es.EZ (V/m) @ t=0.5
2.7569910655849457
% es.tEX (V/m) @ t=0.5
0.8974538002439232
% es.tEY (V/m) @ t=0.5
0
% es.tEZ (V/m) @ t=0.5
2.7569910655849377
% es.Ex (V/m) @ t=0.5
0.8974538002439165
% es.Ey (V/m) @ t=0.5
0.21742067879610483
% es.Ez (V/m) @ t=0.5
2.7569910655849457
% es.tEx (V/m) @ t=0.5
0.8974538002439232
% es.tEy (V/m) @ t=0.5
0
% es.tEz (V/m) @ t=0.5
2.7569910655849377
% V (V) @ t=0.5
0.013598636972420006
% es.normE (V/m) @ t=0.52
2.949142160510187
% es.EX (V/m) @ t=0.52
0.9102940525046346
% es.EY (V/m) @ t=0.52
0.22053140873453358
% es.EZ (V/m) @ t=0.52
2.796436506406712
% es.tEX (V/m) @ t=0.52
0.9102940525046392
% es.tEY (V/m) @ t=0.52
0
% es.tEZ (V/m) @ t=0.52
2.796436506406728
% es.Ex (V/m) @ t=0.52
0.9102940525046346
% es.Ey (V/m) @ t=0.52
0.22053140873453358
% es.Ez (V/m) @ t=0.52
2.796436506406712
% es.tEx (V/m) @ t=0.52
0.9102940525046392
% es.tEy (V/m) @ t=0.52
0
% es.tEz (V/m) @ t=0.52
2.796436506406728
% V (V) @ t=0.52
0.013793198437762067
% es.normE (V/m) @ t=0.54
2.9907416076310067
% es.EX (V/m) @ t=0.54
0.9231343047653575
% es.EY (V/m) @ t=0.54
0.2236421386729437
% es.EZ (V/m) @ t=0.54
2.8358819472284766
% es.tEX (V/m) @ t=0.54
0.9231343047653553
% es.tEY (V/m) @ t=0.54
0
% es.tEZ (V/m) @ t=0.54
2.8358819472284864
% es.Ex (V/m) @ t=0.54
0.9231343047653575
% es.Ey (V/m) @ t=0.54
0.2236421386729437
% es.Ez (V/m) @ t=0.54
2.8358819472284766
% es.tEx (V/m) @ t=0.54
0.9231343047653553
% es.tEy (V/m) @ t=0.54
0
% es.tEz (V/m) @ t=0.54
2.8358819472284864
% V (V) @ t=0.54
0.013987759903104132
% es.normE (V/m) @ t=0.56
3.032795674978583
% es.EX (V/m) @ t=0.56
0.9361148819296969
% es.EY (V/m) @ t=0.56
0.22678686426697525
% es.EZ (V/m) @ t=0.56
2.8757584681849107
% es.tEX (V/m) @ t=0.56
0.9361148819296972
% es.tEY (V/m) @ t=0.56
0
% es.tEZ (V/m) @ t=0.56
2.8757584681849266
% es.Ex (V/m) @ t=0.56
0.9361148819296969
% es.Ey (V/m) @ t=0.56
0.22678686426697525
% es.Ez (V/m) @ t=0.56
2.8757584681849107
% es.tEx (V/m) @ t=0.56
0.9361148819296972
% es.tEy (V/m) @ t=0.56
0
% es.tEz (V/m) @ t=0.56
2.8757584681849266
% V (V) @ t=0.56
0.01418444763697066
% es.normE (V/m) @ t=0.58
3.0761761493119195
% es.EX (V/m) @ t=0.58
0.9495048731973132
% es.EY (V/m) @ t=0.58
0.23003077611002065
% es.EZ (V/m) @ t=0.58
2.9168927151913344
% es.tEX (V/m) @ t=0.58
0.9495048731973128
% es.tEY (V/m) @ t=0.58
0
% es.tEZ (V/m) @ t=0.58
2.916892715191338
% es.Ex (V/m) @ t=0.58
0.9495048731973132
% es.Ey (V/m) @ t=0.58
0.23003077611002065
% es.Ez (V/m) @ t=0.58
2.9168927151913344
% es.tEx (V/m) @ t=0.58
0.9495048731973128
% es.tEy (V/m) @ t=0.58
0
% es.tEz (V/m) @ t=0.58
2.916892715191338
% V (V) @ t=0.58
0.014387339004679959
% es.normE (V/m) @ t=0.6
3.119974477831147
% es.EX (V/m) @ t=0.6
0.9630238410148226
% es.EY (V/m) @ t=0.6
0.233305934312531
% es.EZ (V/m) @ t=0.6
2.958423180025572
% es.tEX (V/m) @ t=0.6
0.9630238410148309
% es.tEY (V/m) @ t=0.6
0
% es.tEZ (V/m) @ t=0.6
2.958423180025566
% es.Ex (V/m) @ t=0.6
0.9630238410148226
% es.Ey (V/m) @ t=0.6
0.233305934312531
% es.Ez (V/m) @ t=0.6
2.958423180025572
% es.tEx (V/m) @ t=0.6
0.9630238410148309
% es.tEy (V/m) @ t=0.6
0
% es.tEz (V/m) @ t=0.6
2.958423180025566
% V (V) @ t=0.6
0.014592184685354193
% es.normE (V/m) @ t=0.62
3.164190660536285
% es.EX (V/m) @ t=0.62
0.9766717853822833
% es.EY (V/m) @ t=0.62
0.23661233887438282
% es.EZ (V/m) @ t=0.62
3.0003498626876333
% es.tEX (V/m) @ t=0.62
0.9766717853822797
% es.tEY (V/m) @ t=0.62
0
% es.tEZ (V/m) @ t=0.62
3.000349862687635
% es.Ex (V/m) @ t=0.62
0.9766717853822833
% es.Ey (V/m) @ t=0.62
0.23661233887438282
% es.Ez (V/m) @ t=0.62
3.0003498626876333
% es.tEx (V/m) @ t=0.62
0.9766717853822797
% es.tEy (V/m) @ t=0.62
0
% es.tEz (V/m) @ t=0.62
3.000349862687635
% V (V) @ t=0.62
0.014798984678993352
% es.normE (V/m) @ t=0.64
3.208824697427321
% es.EX (V/m) @ t=0.64
0.9904487062996583
% es.EY (V/m) @ t=0.64
0.23994998979559723
% es.EZ (V/m) @ t=0.64
3.0426727631775172
% es.tEX (V/m) @ t=0.64
0.9904487062996594
% es.tEY (V/m) @ t=0.64
0
% es.tEZ (V/m) @ t=0.64
3.0426727631775137
% es.Ex (V/m) @ t=0.64
0.9904487062996583
% es.Ey (V/m) @ t=0.64
0.23994998979559723
% es.Ez (V/m) @ t=0.64
3.0426727631775172
% es.tEx (V/m) @ t=0.64
0.9904487062996594
% es.tEy (V/m) @ t=0.64
0
% es.tEz (V/m) @ t=0.64
3.0426727631775137
% V (V) @ t=0.64
0.015007738985597438
% es.normE (V/m) @ t=0.66
3.2538765885042364
% es.EX (V/m) @ t=0.66
1.0043546037669595
% es.EY (V/m) @ t=0.66
0.24331888707628524
% es.EZ (V/m) @ t=0.66
3.08539188149519
% es.tEX (V/m) @ t=0.66
1.0043546037669557
% es.tEY (V/m) @ t=0.66
0
% es.tEZ (V/m) @ t=0.66
3.0853918814952053
% es.Ex (V/m) @ t=0.66
1.0043546037669595
% es.Ey (V/m) @ t=0.66
0.24331888707628524
% es.Ez (V/m) @ t=0.66
3.08539188149519
% es.tEx (V/m) @ t=0.66
1.0043546037669557
% es.tEy (V/m) @ t=0.66
0
% es.tEz (V/m) @ t=0.66
3.0853918814952053
% V (V) @ t=0.66
0.015218447605166444
% es.normE (V/m) @ t=0.68
3.29934633376708
% es.EX (V/m) @ t=0.68
1.0183894777841735
% es.EY (V/m) @ t=0.68
0.24671903071629142
% es.EZ (V/m) @ t=0.68
3.1285072176407214
% es.tEX (V/m) @ t=0.68
1.0183894777841687
% es.tEY (V/m) @ t=0.68
0
% es.tEZ (V/m) @ t=0.68
3.1285072176407347
% es.Ex (V/m) @ t=0.68
1.0183894777841735
% es.Ey (V/m) @ t=0.68
0.24671903071629142
% es.Ez (V/m) @ t=0.68
3.1285072176407214
% es.tEx (V/m) @ t=0.68
1.0183894777841687
% es.tEy (V/m) @ t=0.68
0
% es.tEz (V/m) @ t=0.68
3.1285072176407347
% V (V) @ t=0.68
0.015431110537700386
% es.normE (V/m) @ t=0.7
3.345233933215801
% es.EX (V/m) @ t=0.7
1.0325533283512855
% es.EY (V/m) @ t=0.7
0.2501504207156928
% es.EZ (V/m) @ t=0.7
3.172018771614055
% es.tEX (V/m) @ t=0.7
1.032553328351284
% es.tEY (V/m) @ t=0.7
0
% es.tEZ (V/m) @ t=0.7
3.172018771614063
% es.Ex (V/m) @ t=0.7
1.0325533283512855
% es.Ey (V/m) @ t=0.7
0.2501504207156928
% es.Ez (V/m) @ t=0.7
3.172018771614055
% es.tEx (V/m) @ t=0.7
1.032553328351284
% es.tEy (V/m) @ t=0.7
0
% es.tEz (V/m) @ t=0.7
3.172018771614063
% V (V) @ t=0.7
0.015645727783199243
% es.normE (V/m) @ t=0.72
3.3915393868504333
% es.EX (V/m) @ t=0.72
1.0468461554683244
% es.EY (V/m) @ t=0.72
0.25361305707446324
% es.EZ (V/m) @ t=0.72
3.215926543415219
% es.tEX (V/m) @ t=0.72
1.0468461554683302
% es.tEY (V/m) @ t=0.72
0
% es.tEZ (V/m) @ t=0.72
3.215926543415229
% es.Ex (V/m) @ t=0.72
1.0468461554683244
% es.Ey (V/m) @ t=0.72
0.25361305707446324
% es.Ez (V/m) @ t=0.72
3.215926543415219
% es.tEx (V/m) @ t=0.72
1.0468461554683302
% es.tEy (V/m) @ t=0.72
0
% es.tEz (V/m) @ t=0.72
3.215926543415229
% V (V) @ t=0.72
0.01586229934166303
% es.normE (V/m) @ t=0.74
3.4382626946709594
% es.EX (V/m) @ t=0.74
1.0612679591353018
% es.EY (V/m) @ t=0.74
0.2571069397926442
% es.EZ (V/m) @ t=0.74
3.260230533044189
% es.tEX (V/m) @ t=0.74
1.061267959135293
% es.tEY (V/m) @ t=0.74
0
% es.tEZ (V/m) @ t=0.74
3.2602305330441936
% es.Ex (V/m) @ t=0.74
1.0612679591353018
% es.Ey (V/m) @ t=0.74
0.2571069397926442
% es.Ez (V/m) @ t=0.74
3.260230533044189
% es.tEx (V/m) @ t=0.74
1.061267959135293
% es.tEy (V/m) @ t=0.74
0
% es.tEz (V/m) @ t=0.74
3.2602305330441936
% V (V) @ t=0.74
0.016080825213091746
% es.normE (V/m) @ t=0.76
3.4854038566773804
% es.EX (V/m) @ t=0.76
1.0758187393521879
% es.EY (V/m) @ t=0.76
0.26063206887019974
% es.EZ (V/m) @ t=0.76
3.3049307405009793
% es.tEX (V/m) @ t=0.76
1.0758187393521723
% es.tEY (V/m) @ t=0.76
0
% es.tEZ (V/m) @ t=0.76
3.3049307405009856
% es.Ex (V/m) @ t=0.76
1.0758187393521879
% es.Ey (V/m) @ t=0.76
0.26063206887019974
% es.Ez (V/m) @ t=0.76
3.3049307405009793
% es.tEx (V/m) @ t=0.76
1.0758187393521723
% es.tEy (V/m) @ t=0.76
0
% es.tEz (V/m) @ t=0.76
3.3049307405009856
% V (V) @ t=0.76
0.016301305397485387
% es.normE (V/m) @ t=0.78
3.5329628728697293
% es.EX (V/m) @ t=0.78
1.0904984961189916
% es.EY (V/m) @ t=0.78
0.26418844430711186
% es.EZ (V/m) @ t=0.78
3.3500271657856215
% es.tEX (V/m) @ t=0.78
1.0904984961189967
% es.tEY (V/m) @ t=0.78
0
% es.tEZ (V/m) @ t=0.78
3.3500271657856153
% es.Ex (V/m) @ t=0.78
1.0904984961189916
% es.Ey (V/m) @ t=0.78
0.26418844430711186
% es.Ez (V/m) @ t=0.78
3.3500271657856215
% es.tEx (V/m) @ t=0.78
1.0904984961189967
% es.tEy (V/m) @ t=0.78
0
% es.tEz (V/m) @ t=0.78
3.3500271657856153
% V (V) @ t=0.78
0.016523739894843955
% es.normE (V/m) @ t=0.8
3.58093974324792
% es.EX (V/m) @ t=0.8
1.1053072294357102
% es.EY (V/m) @ t=0.8
0.2677760661034494
% es.EZ (V/m) @ t=0.8
3.3955198088980216
% es.tEX (V/m) @ t=0.8
1.1053072294357236
% es.tEY (V/m) @ t=0.8
0
% es.tEZ (V/m) @ t=0.8
3.3955198088980296
% es.Ex (V/m) @ t=0.8
1.1053072294357102
% es.Ey (V/m) @ t=0.8
0.2677760661034494
% es.Ez (V/m) @ t=0.8
3.3955198088980216
% es.tEx (V/m) @ t=0.8
1.1053072294357236
% es.tEy (V/m) @ t=0.8
0
% es.tEz (V/m) @ t=0.8
3.3955198088980296
% V (V) @ t=0.8
0.016748128705167446
% es.normE (V/m) @ t=0.82
3.6293344678120816
% es.EX (V/m) @ t=0.82
1.1202449393023564
% es.EY (V/m) @ t=0.82
0.2713949342591575
% es.EZ (V/m) @ t=0.82
3.4414086698383146
% es.tEX (V/m) @ t=0.82
1.120244939302367
% es.tEY (V/m) @ t=0.82
0
% es.tEZ (V/m) @ t=0.82
3.4414086698383137
% es.Ex (V/m) @ t=0.82
1.1202449393023564
% es.Ey (V/m) @ t=0.82
0.2713949342591575
% es.Ez (V/m) @ t=0.82
3.4414086698383146
% es.tEx (V/m) @ t=0.82
1.120244939302367
% es.tEy (V/m) @ t=0.82
0
% es.tEz (V/m) @ t=0.82
3.4414086698383137
% V (V) @ t=0.82
0.016974471828455864
% es.normE (V/m) @ t=0.84
3.6785330961889056
% es.EX (V/m) @ t=0.84
1.1354307853360497
% es.EY (V/m) @ t=0.84
0.27507391705421735
% es.EZ (V/m) @ t=0.84
3.4880598086928396
% es.tEX (V/m) @ t=0.84
1.135430785336041
% es.tEY (V/m) @ t=0.84
0
% es.tEZ (V/m) @ t=0.84
3.488059808692846
% es.Ex (V/m) @ t=0.84
1.1354307853360497
% es.Ey (V/m) @ t=0.84
0.27507391705421735
% es.Ez (V/m) @ t=0.84
3.4880598086928396
% es.tEx (V/m) @ t=0.84
1.135430785336041
% es.tEy (V/m) @ t=0.84
0
% es.tEz (V/m) @ t=0.84
3.488059808692846
% V (V) @ t=0.84
0.017204574814071366
% es.normE (V/m) @ t=0.86
3.728694477545162
% es.EX (V/m) @ t=0.86
1.1509137985539013
% es.EY (V/m) @ t=0.86
0.2788248930189403
% es.EZ (V/m) @ t=0.86
3.535623849463531
% es.tEX (V/m) @ t=0.86
1.1509137985539013
% es.tEY (V/m) @ t=0.86
0
% es.tEZ (V/m) @ t=0.86
3.5356238494635512
% es.Ex (V/m) @ t=0.86
1.1509137985539013
% es.Ey (V/m) @ t=0.86
0.2788248930189403
% es.Ez (V/m) @ t=0.86
3.535623849463531
% es.tEx (V/m) @ t=0.86
1.1509137985539013
% es.tEy (V/m) @ t=0.86
0
% es.tEz (V/m) @ t=0.86
3.5356238494635512
% V (V) @ t=0.86
0.017439180597615574
% es.normE (V/m) @ t=0.88
3.779391867470186
% es.EX (V/m) @ t=0.88
1.1665622583245994
% es.EY (V/m) @ t=0.88
0.28261595077138946
% es.EZ (V/m) @ t=0.88
3.5836961444444277
% es.tEX (V/m) @ t=0.88
1.1665622583246034
% es.tEY (V/m) @ t=0.88
0
% es.tEZ (V/m) @ t=0.88
3.583696144444424
% es.Ex (V/m) @ t=0.88
1.1665622583245994
% es.Ey (V/m) @ t=0.88
0.28261595077138946
% es.Ez (V/m) @ t=0.88
3.5836961444444277
% es.tEx (V/m) @ t=0.88
1.1665622583246034
% es.tEy (V/m) @ t=0.88
0
% es.tEz (V/m) @ t=0.88
3.583696144444424
% V (V) @ t=0.88
0.017676293300721634
% es.normE (V/m) @ t=0.9
3.8306252659639033
% es.EX (V/m) @ t=0.9
1.1823761646481596
% es.EY (V/m) @ t=0.9
0.2864470903115022
% es.EZ (V/m) @ t=0.9
3.6322766936354522
% es.tEX (V/m) @ t=0.9
1.1823761646481756
% es.tEY (V/m) @ t=0.9
0
% es.tEZ (V/m) @ t=0.9
3.6322766936354576
% es.Ex (V/m) @ t=0.9
1.1823761646481596
% es.Ey (V/m) @ t=0.9
0.2864470903115022
% es.Ez (V/m) @ t=0.9
3.6322766936354522
% es.tEx (V/m) @ t=0.9
1.1823761646481756
% es.tEy (V/m) @ t=0.9
0
% es.tEz (V/m) @ t=0.9
3.6322766936354576
% V (V) @ t=0.9
0.01791591292338956
% es.normE (V/m) @ t=0.92
3.882394673026342
% es.EX (V/m) @ t=0.92
1.1983555175245644
% es.EY (V/m) @ t=0.92
0.2903183116393655
% es.EZ (V/m) @ t=0.92
3.6813654970366327
% es.tEX (V/m) @ t=0.92
1.1983555175245613
% es.tEY (V/m) @ t=0.92
0
% es.tEZ (V/m) @ t=0.92
3.68136549703663
% es.Ex (V/m) @ t=0.92
1.1983555175245644
% es.Ey (V/m) @ t=0.92
0.2903183116393655
% es.Ez (V/m) @ t=0.92
3.6813654970366327
% es.tEx (V/m) @ t=0.92
1.1983555175245613
% es.tEy (V/m) @ t=0.92
0
% es.tEz (V/m) @ t=0.92
3.68136549703663
% V (V) @ t=0.92
0.01815803946561934
% es.normE (V/m) @ t=0.94
3.93470008865747
% es.EX (V/m) @ t=0.94
1.214500316953788
% es.EY (V/m) @ t=0.94
0.29422961475486953
% es.EZ (V/m) @ t=0.94
3.7309625546479523
% es.tEX (V/m) @ t=0.94
1.2145003169537887
% es.tEY (V/m) @ t=0.94
0
% es.tEZ (V/m) @ t=0.94
3.730962554647956
% es.Ex (V/m) @ t=0.94
1.214500316953788
% es.Ey (V/m) @ t=0.94
0.29422961475486953
% es.Ez (V/m) @ t=0.94
3.7309625546479523
% es.tEx (V/m) @ t=0.94
1.2145003169537887
% es.tEy (V/m) @ t=0.94
0
% es.tEz (V/m) @ t=0.94
3.730962554647956
% V (V) @ t=0.94
0.018402672927410983
% es.normE (V/m) @ t=0.96
3.987541512857291
% es.EX (V/m) @ t=0.96
1.2308105629358332
% es.EY (V/m) @ t=0.96
0.2981809996580709
% es.EZ (V/m) @ t=0.96
3.7810678664694093
% es.tEX (V/m) @ t=0.96
1.2308105629358295
% es.tEY (V/m) @ t=0.96
0
% es.tEZ (V/m) @ t=0.96
3.7810678664694173
% es.Ex (V/m) @ t=0.96
1.2308105629358332
% es.Ey (V/m) @ t=0.96
0.2981809996580709
% es.Ez (V/m) @ t=0.96
3.7810678664694093
% es.tEx (V/m) @ t=0.96
1.2308105629358295
% es.tEy (V/m) @ t=0.96
0
% es.tEz (V/m) @ t=0.96
3.7810678664694173
% V (V) @ t=0.96
0.018649813308764484
% es.normE (V/m) @ t=0.98
4.040918945625828
% es.EX (V/m) @ t=0.98
1.2472862554706947
% es.EY (V/m) @ t=0.98
0.30217246634895467
% es.EZ (V/m) @ t=0.98
3.831681432501031
% es.tEX (V/m) @ t=0.98
1.2472862554706978
% es.tEY (V/m) @ t=0.98
0
% es.tEZ (V/m) @ t=0.98
3.8316814325010355
% es.Ex (V/m) @ t=0.98
1.2472862554706947
% es.Ey (V/m) @ t=0.98
0.30217246634895467
% es.Ez (V/m) @ t=0.98
3.831681432501031
% es.tEx (V/m) @ t=0.98
1.2472862554706978
% es.tEy (V/m) @ t=0.98
0
% es.tEz (V/m) @ t=0.98
3.8316814325010355
% V (V) @ t=0.98
0.01889946060967985
% es.normE (V/m) @ t=1
4.094832386963079
% es.EX (V/m) @ t=1
1.263927394558404
% es.EY (V/m) @ t=1
0.30620401482756265
% es.EZ (V/m) @ t=1
3.882803252742802
% es.tEX (V/m) @ t=1
1.263927394558408
% es.tEY (V/m) @ t=1
0
% es.tEZ (V/m) @ t=1
3.8828032527428107
% es.Ex (V/m) @ t=1
1.263927394558404
% es.Ey (V/m) @ t=1
0.30620401482756265
% es.Ez (V/m) @ t=1
3.882803252742802
% es.tEx (V/m) @ t=1
1.263927394558408
% es.tEy (V/m) @ t=1
0
% es.tEz (V/m) @ t=1
3.8828032527428107
% V (V) @ t=1
0.019151614830157076
% es.normE (V/m) @ t=1.02
4.14928183686901
% es.EX (V/m) @ t=1.02
1.2807339801989357
% es.EY (V/m) @ t=1.02
0.31027564509380845
% es.EZ (V/m) @ t=1.02
3.9344333271947
% es.tEX (V/m) @ t=1.02
1.2807339801989315
% es.tEY (V/m) @ t=1.02
0
% es.tEZ (V/m) @ t=1.02
3.934433327194718
% es.Ex (V/m) @ t=1.02
1.2807339801989357
% es.Ey (V/m) @ t=1.02
0.31027564509380845
% es.Ez (V/m) @ t=1.02
3.9344333271947
% es.tEx (V/m) @ t=1.02
1.2807339801989315
% es.tEy (V/m) @ t=1.02
0
% es.tEz (V/m) @ t=1.02
3.934433327194718
% V (V) @ t=1.02
0.019406275970196153
% es.normE (V/m) @ t=1.04
4.20426729534366
% es.EX (V/m) @ t=1.04
1.297706012392322
% es.EY (V/m) @ t=1.04
0.3143873571477924
% es.EZ (V/m) @ t=1.04
3.9865716558567508
% es.tEX (V/m) @ t=1.04
1.2977060123923394
% es.tEY (V/m) @ t=1.04
0
% es.tEZ (V/m) @ t=1.04
3.9865716558567605
% es.Ex (V/m) @ t=1.04
1.297706012392322
% es.Ey (V/m) @ t=1.04
0.3143873571477924
% es.Ez (V/m) @ t=1.04
3.9865716558567508
% es.tEx (V/m) @ t=1.04
1.2977060123923394
% es.tEy (V/m) @ t=1.04
0
% es.tEz (V/m) @ t=1.04
3.9865716558567605