% Model:              1 neuron.mph
% Version:            COMSOL 6.0.0.405
% Date:               Mar 16 2023, 18:44
% Dimension:          0
% Nodes:              14017
% Expressions:        14017
% Description:        Electric field norm, Electric field, X component, Electric field, Y component, Electric field, Z component, Tangential electric field, X component, Tangential electric field, Y component, Tangential electric field, Z component, Electric field, x component, Electric field, y component, Electric field, z component, Tangential electric field, x component, Tangential electric field, y component, Tangential electric field, z component, Electric potential
% Length unit:        mm
% x
1.0000000000000002
% y
12.2
% z
2
% es.normE (V/m) @ t=0
1.0513992158073355
% es.EX (V/m) @ t=0
0.7303103821801311
% es.EY (V/m) @ t=0
0.10935581965920554
% es.EZ (V/m) @ t=0
-0.7292442510586397
% es.tEX (V/m) @ t=0
0.7303103821801353
% es.tEY (V/m) @ t=0
0
% es.tEZ (V/m) @ t=0
-0.729244251058625
% es.Ex (V/m) @ t=0
0.7303103821801311
% es.Ey (V/m) @ t=0
0.10935581965920554
% es.Ez (V/m) @ t=0
-0.7292442510586397
% es.tEx (V/m) @ t=0
0.7303103821801353
% es.tEy (V/m) @ t=0
0
% es.tEz (V/m) @ t=0
-0.729244251058625
% V (V) @ t=0
0.011259092848587417
% es.normE (V/m) @ t=0.02
0.9131488923760958
% es.EX (V/m) @ t=0.02
0.6342805852694438
% es.EY (V/m) @ t=0.02
0.09497643636109637
% es.EZ (V/m) @ t=0.02
-0.6333546530113308
% es.tEX (V/m) @ t=0.02
0.6342805852694458
% es.tEY (V/m) @ t=0.02
0
% es.tEZ (V/m) @ t=0.02
-0.6333546530113199
% es.Ex (V/m) @ t=0.02
0.6342805852694438
% es.Ey (V/m) @ t=0.02
0.09497643636109637
% es.Ez (V/m) @ t=0.02
-0.6333546530113308
% es.tEx (V/m) @ t=0.02
0.6342805852694458
% es.tEy (V/m) @ t=0.02
0
% es.tEz (V/m) @ t=0.02
-0.6333546530113199
% V (V) @ t=0.02
0.009778614651457112
% es.normE (V/m) @ t=0.04
0.9266895939736506
% es.EX (V/m) @ t=0.04
0.6436860615138906
% es.EY (V/m) @ t=0.04
0.09638480573320507
% es.EZ (V/m) @ t=0.04
-0.6427464066353179
% es.tEX (V/m) @ t=0.04
0.6436860615138902
% es.tEY (V/m) @ t=0.04
0
% es.tEZ (V/m) @ t=0.04
-0.6427464066353141
% es.Ex (V/m) @ t=0.04
0.6436860615138906
% es.Ey (V/m) @ t=0.04
0.09638480573320507
% es.Ez (V/m) @ t=0.04
-0.6427464066353179
% es.tEx (V/m) @ t=0.04
0.6436860615138902
% es.tEy (V/m) @ t=0.04
0
% es.tEz (V/m) @ t=0.04
-0.6427464066353141
% V (V) @ t=0.04
0.00992361736399841
% es.normE (V/m) @ t=0.06
0.9404318303901698
% es.EX (V/m) @ t=0.06
0.6532315413764538
% es.EY (V/m) @ t=0.06
0.09781412206659112
% es.EZ (V/m) @ t=0.06
-0.6522779315810912
% es.tEX (V/m) @ t=0.06
0.6532315413764573
% es.tEY (V/m) @ t=0.06
0
% es.tEZ (V/m) @ t=0.06
-0.65227793158108
% es.Ex (V/m) @ t=0.06
0.6532315413764538
% es.Ey (V/m) @ t=0.06
0.09781412206659112
% es.Ez (V/m) @ t=0.06
-0.6522779315810912
% es.tEx (V/m) @ t=0.06
0.6532315413764573
% es.tEy (V/m) @ t=0.06
0
% es.tEz (V/m) @ t=0.06
-0.65227793158108
% V (V) @ t=0.06
0.010070779228130896
% es.normE (V/m) @ t=0.08
0.9545286402771023
% es.EX (V/m) @ t=0.08
0.6630233115301676
% es.EY (V/m) @ t=0.08
0.09928031716603242
% es.EZ (V/m) @ t=0.08
-0.6620553859457998
% es.tEX (V/m) @ t=0.08
0.6630233115301691
% es.tEY (V/m) @ t=0.08
0
% es.tEZ (V/m) @ t=0.08
-0.6620553859457887
% es.Ex (V/m) @ t=0.08
0.6630233115301676
% es.Ey (V/m) @ t=0.08
0.09928031716603242
% es.Ez (V/m) @ t=0.08
-0.6620553859457998
% es.tEx (V/m) @ t=0.08
0.6630233115301691
% es.tEy (V/m) @ t=0.08
0
% es.tEz (V/m) @ t=0.08
-0.6620553859457887
% V (V) @ t=0.08
0.010221738141102846
% es.normE (V/m) @ t=0.1
0.9688645541542465
% es.EX (V/m) @ t=0.1
0.6729811657151872
% es.EY (V/m) @ t=0.1
0.10077138118791484
% es.EZ (V/m) @ t=0.1
-0.6719986809903458
% es.tEX (V/m) @ t=0.1
0.6729811657151905
% es.tEY (V/m) @ t=0.1
0
% es.tEZ (V/m) @ t=0.1
-0.6719986809903311
% es.Ex (V/m) @ t=0.1
0.6729811657151872
% es.Ey (V/m) @ t=0.1
0.10077138118791484
% es.Ez (V/m) @ t=0.1
-0.6719986809903458
% es.tEx (V/m) @ t=0.1
0.6729811657151905
% es.tEy (V/m) @ t=0.1
0
% es.tEz (V/m) @ t=0.1
-0.6719986809903311
% V (V) @ t=0.1
0.010375257565800317
% es.normE (V/m) @ t=0.12
0.9832004680313964
% es.EX (V/m) @ t=0.12
0.6829390199002157
% es.EY (V/m) @ t=0.12
0.10226244520979277
% es.EZ (V/m) @ t=0.12
-0.6819419760348846
% es.tEX (V/m) @ t=0.12
0.682939019900219
% es.tEY (V/m) @ t=0.12
0
% es.tEZ (V/m) @ t=0.12
-0.6819419760348735
% es.Ex (V/m) @ t=0.12
0.6829390199002157
% es.Ey (V/m) @ t=0.12
0.10226244520979277
% es.Ez (V/m) @ t=0.12
-0.6819419760348846
% es.tEx (V/m) @ t=0.12
0.682939019900219
% es.tEy (V/m) @ t=0.12
0
% es.tEz (V/m) @ t=0.12
-0.6819419760348735
% V (V) @ t=0.12
0.010528776990497788
% es.normE (V/m) @ t=0.14
0.997799316465118
% es.EX (V/m) @ t=0.14
0.6930795038799384
% es.EY (V/m) @ t=0.14
0.10378086236166378
% es.EZ (V/m) @ t=0.14
-0.6920676462609001
% es.tEX (V/m) @ t=0.14
0.6930795038799449
% es.tEY (V/m) @ t=0.14
0
% es.tEZ (V/m) @ t=0.14
-0.6920676462608855
% es.Ex (V/m) @ t=0.14
0.6930795038799384
% es.Ey (V/m) @ t=0.14
0.10378086236166378
% es.Ez (V/m) @ t=0.14
-0.6920676462609001
% es.tEx (V/m) @ t=0.14
0.6930795038799449
% es.tEy (V/m) @ t=0.14
0
% es.tEz (V/m) @ t=0.14
-0.6920676462608855
% V (V) @ t=0.14
0.01068511170080584
% es.normE (V/m) @ t=0.16
1.0134213603531506
% es.EX (V/m) @ t=0.16
0.7039306817227866
% es.EY (V/m) @ t=0.16
0.10540572272379561
% es.EZ (V/m) @ t=0.16
-0.7029030195365551
% es.tEX (V/m) @ t=0.16
0.7039306817227908
% es.tEY (V/m) @ t=0.16
0
% es.tEZ (V/m) @ t=0.16
-0.7029030195365475
% es.Ex (V/m) @ t=0.16
0.7039306817227866
% es.Ey (V/m) @ t=0.16
0.10540572272379561
% es.Ez (V/m) @ t=0.16
-0.7029030195365551
% es.tEx (V/m) @ t=0.16
0.7039306817227908
% es.tEy (V/m) @ t=0.16
0
% es.tEz (V/m) @ t=0.16
-0.7029030195365475
% V (V) @ t=0.16
0.010852401941177812
% es.normE (V/m) @ t=0.18
1.0290434042411798
% es.EX (V/m) @ t=0.18
0.7147818595656366
% es.EY (V/m) @ t=0.18
0.10703058308593527
% es.EZ (V/m) @ t=0.18
-0.7137383928122034
% es.tEX (V/m) @ t=0.18
0.7147818595656408
% es.tEY (V/m) @ t=0.18
0
% es.tEZ (V/m) @ t=0.18
-0.7137383928121892
% es.Ex (V/m) @ t=0.18
0.7147818595656366
% es.Ey (V/m) @ t=0.18
0.10703058308593527
% es.Ez (V/m) @ t=0.18
-0.7137383928122034
% es.tEx (V/m) @ t=0.18
0.7147818595656408
% es.tEy (V/m) @ t=0.18
0
% es.tEz (V/m) @ t=0.18
-0.7137383928121892
% V (V) @ t=0.18
0.011019692181549787
% es.normE (V/m) @ t=0.2
1.0446654481292064
% es.EX (V/m) @ t=0.2
0.7256330374084896
% es.EY (V/m) @ t=0.2
0.10865544344808375
% es.EZ (V/m) @ t=0.2
-0.7245737660878402
% es.tEX (V/m) @ t=0.2
0.725633037408492
% es.tEY (V/m) @ t=0.2
0
% es.tEZ (V/m) @ t=0.2
-0.724573766087822
% es.Ex (V/m) @ t=0.2
0.7256330374084896
% es.Ey (V/m) @ t=0.2
0.10865544344808375
% es.Ez (V/m) @ t=0.2
-0.7245737660878402
% es.tEx (V/m) @ t=0.2
0.725633037408492
% es.tEy (V/m) @ t=0.2
0
% es.tEz (V/m) @ t=0.2
-0.724573766087822
% V (V) @ t=0.2
0.011186982421921758
% es.normE (V/m) @ t=0.22
1.060287492017235
% es.EX (V/m) @ t=0.22
0.7364842152513267
% es.EY (V/m) @ t=0.22
0.1102803038102218
% es.EZ (V/m) @ t=0.22
-0.7354091393634952
% es.tEX (V/m) @ t=0.22
0.7364842152513345
% es.tEY (V/m) @ t=0.22
0
% es.tEZ (V/m) @ t=0.22
-0.7354091393634912
% es.Ex (V/m) @ t=0.22
0.7364842152513267
% es.Ey (V/m) @ t=0.22
0.1102803038102218
% es.Ez (V/m) @ t=0.22
-0.7354091393634952
% es.tEx (V/m) @ t=0.22
0.7364842152513345
% es.tEy (V/m) @ t=0.22
0
% es.tEz (V/m) @ t=0.22
-0.7354091393634912
% V (V) @ t=0.22
0.011354272662293732
% es.normE (V/m) @ t=0.24
1.0759095359052713
% es.EX (V/m) @ t=0.24
0.7473353930941788
% es.EY (V/m) @ t=0.24
0.11190516417235635
% es.EZ (V/m) @ t=0.24
-0.7462445126391466
% es.tEX (V/m) @ t=0.24
0.7473353930941813
% es.tEY (V/m) @ t=0.24
0
% es.tEZ (V/m) @ t=0.24
-0.7462445126391319
% es.Ex (V/m) @ t=0.24
0.7473353930941788
% es.Ey (V/m) @ t=0.24
0.11190516417235635
% es.Ez (V/m) @ t=0.24
-0.7462445126391466
% es.tEx (V/m) @ t=0.24
0.7473353930941813
% es.tEy (V/m) @ t=0.24
0
% es.tEz (V/m) @ t=0.24
-0.7462445126391319
% V (V) @ t=0.24
0.011521562902665703
% es.normE (V/m) @ t=0.26
1.0915315797933038
% es.EX (V/m) @ t=0.26
0.7581865709370244
% es.EY (V/m) @ t=0.26
0.1135300245344969
% es.EZ (V/m) @ t=0.26
-0.7570798859147989
% es.tEX (V/m) @ t=0.26
0.7581865709370303
% es.tEY (V/m) @ t=0.26
0
% es.tEZ (V/m) @ t=0.26
-0.7570798859147878
% es.Ex (V/m) @ t=0.26
0.7581865709370244
% es.Ey (V/m) @ t=0.26
0.1135300245344969
% es.Ez (V/m) @ t=0.26
-0.7570798859147989
% es.tEx (V/m) @ t=0.26
0.7581865709370303
% es.tEy (V/m) @ t=0.26
0
% es.tEz (V/m) @ t=0.26
-0.7570798859147878
% V (V) @ t=0.26
0.01168885314303768
% es.normE (V/m) @ t=0.28
1.1077349398753369
% es.EX (V/m) @ t=0.28
0.7694414948208228
% es.EY (V/m) @ t=0.28
0.1152153849660259
% es.EZ (V/m) @ t=0.28
-0.7683184876238434
% es.tEX (V/m) @ t=0.28
0.7694414948208306
% es.tEY (V/m) @ t=0.28
0
% es.tEZ (V/m) @ t=0.28
-0.7683184876238291
% es.Ex (V/m) @ t=0.28
0.7694414948208228
% es.Ey (V/m) @ t=0.28
0.1152153849660259
% es.Ez (V/m) @ t=0.28
-0.7683184876238434
% es.tEx (V/m) @ t=0.28
0.7694414948208306
% es.tEy (V/m) @ t=0.28
0
% es.tEz (V/m) @ t=0.28
-0.7683184876238291
% V (V) @ t=0.28
0.011862365994050997
% es.normE (V/m) @ t=0.3
1.1247449795320195
% es.EX (V/m) @ t=0.3
0.7812566881206906
% es.EY (V/m) @ t=0.3
0.11698470000049577
% es.EZ (V/m) @ t=0.3
-0.7801166404764754
% es.tEX (V/m) @ t=0.3
0.7812566881206875
% es.tEY (V/m) @ t=0.3
0
% es.tEZ (V/m) @ t=0.3
-0.7801166404764608
% es.Ex (V/m) @ t=0.3
0.7812566881206906
% es.Ey (V/m) @ t=0.3
0.11698470000049577
% es.Ez (V/m) @ t=0.3
-0.7801166404764754
% es.tEx (V/m) @ t=0.3
0.7812566881206875
% es.tEy (V/m) @ t=0.3
0
% es.tEz (V/m) @ t=0.3
-0.7801166404764608
% V (V) @ t=0.3
0.012044513823681761
% es.normE (V/m) @ t=0.32
1.1417550191887331
% es.EX (V/m) @ t=0.32
0.7930718814205577
% es.EY (V/m) @ t=0.32
0.1187540150349718
% es.EZ (V/m) @ t=0.32
-0.7919147933291151
% es.tEX (V/m) @ t=0.32
0.7930718814205591
% es.tEY (V/m) @ t=0.32
0
% es.tEZ (V/m) @ t=0.32
-0.7919147933291004
% es.Ex (V/m) @ t=0.32
0.7930718814205577
% es.Ey (V/m) @ t=0.32
0.1187540150349718
% es.Ez (V/m) @ t=0.32
-0.7919147933291151
% es.tEx (V/m) @ t=0.32
0.7930718814205591
% es.tEy (V/m) @ t=0.32
0
% es.tEz (V/m) @ t=0.32
-0.7919147933291004
% V (V) @ t=0.32
0.01222666165331252
% es.normE (V/m) @ t=0.34
1.1587650588454554
% es.EX (V/m) @ t=0.34
0.8048870747204162
% es.EY (V/m) @ t=0.34
0.12052333006945265
% es.EZ (V/m) @ t=0.34
-0.803712946181725
% es.tEX (V/m) @ t=0.34
0.8048870747204213
% es.tEY (V/m) @ t=0.34
0
% es.tEZ (V/m) @ t=0.34
-0.8037129461817178
% es.Ex (V/m) @ t=0.34
0.8048870747204162
% es.Ey (V/m) @ t=0.34
0.12052333006945265
% es.Ez (V/m) @ t=0.34
-0.803712946181725
% es.tEx (V/m) @ t=0.34
0.8048870747204213
% es.tEy (V/m) @ t=0.34
0
% es.tEz (V/m) @ t=0.34
-0.8037129461817178
% V (V) @ t=0.34
0.012408809482943282
% es.normE (V/m) @ t=0.36
1.1757750985022306
% es.EX (V/m) @ t=0.36
0.8167022680202887
% es.EY (V/m) @ t=0.36
0.1222926451039083
% es.EZ (V/m) @ t=0.36
-0.8155110990343677
% es.tEX (V/m) @ t=0.36
0.8167022680202902
% es.tEY (V/m) @ t=0.36
0
% es.tEZ (V/m) @ t=0.36
-0.8155110990343566
% es.Ex (V/m) @ t=0.36
0.8167022680202887
% es.Ey (V/m) @ t=0.36
0.1222926451039083
% es.Ez (V/m) @ t=0.36
-0.8155110990343677
% es.tEx (V/m) @ t=0.36
0.8167022680202902
% es.tEy (V/m) @ t=0.36
0
% es.tEz (V/m) @ t=0.36
-0.8155110990343566
% V (V) @ t=0.36
0.012590957312574045
% es.normE (V/m) @ t=0.38
1.1927851381590067
% es.EX (V/m) @ t=0.38
0.8285174613201505
% es.EY (V/m) @ t=0.38
0.12406196013837723
% es.EZ (V/m) @ t=0.38
-0.827309251886986
% es.tEX (V/m) @ t=0.38
0.828517461320152
% es.tEY (V/m) @ t=0.38
0
% es.tEZ (V/m) @ t=0.38
-0.8273092518869749
% es.Ex (V/m) @ t=0.38
0.8285174613201505
% es.Ey (V/m) @ t=0.38
0.12406196013837723
% es.Ez (V/m) @ t=0.38
-0.827309251886986
% es.tEx (V/m) @ t=0.38
0.828517461320152
% es.tEy (V/m) @ t=0.38
0
% es.tEz (V/m) @ t=0.38
-0.8273092518869749
% V (V) @ t=0.38
0.012773105142204807
% es.normE (V/m) @ t=0.4
1.2097951778158278
% es.EX (V/m) @ t=0.4
0.8403326546200192
% es.EY (V/m) @ t=0.4
0.12583127517284703
% es.EZ (V/m) @ t=0.4
-0.8391074047396248
% es.tEX (V/m) @ t=0.4
0.8403326546200223
% es.tEY (V/m) @ t=0.4
0
% es.tEZ (V/m) @ t=0.4
-0.8391074047396065
% es.Ex (V/m) @ t=0.4
0.8403326546200192
% es.Ey (V/m) @ t=0.4
0.12583127517284703
% es.Ez (V/m) @ t=0.4
-0.8391074047396248
% es.tEx (V/m) @ t=0.4
0.8403326546200223
% es.tEy (V/m) @ t=0.4
0
% es.tEz (V/m) @ t=0.4
-0.8391074047396065
% V (V) @ t=0.4
0.012955252971835567
% es.normE (V/m) @ t=0.42
1.2277504364259848
% es.EX (V/m) @ t=0.42
0.8528044050010652
% es.EY (V/m) @ t=0.42
0.12769889912384136
% es.EZ (V/m) @ t=0.42
-0.8515611565963495
% es.tEX (V/m) @ t=0.42
0.8528044050010668
% es.tEY (V/m) @ t=0.42
0
% es.tEZ (V/m) @ t=0.42
-0.8515611565963317
% es.Ex (V/m) @ t=0.42
0.8528044050010652
% es.Ey (V/m) @ t=0.42
0.12769889912384136
% es.Ez (V/m) @ t=0.42
-0.8515611565963495
% es.tEx (V/m) @ t=0.42
0.8528044050010668
% es.tEy (V/m) @ t=0.42
0
% es.tEz (V/m) @ t=0.42
-0.8515611565963317
% V (V) @ t=0.42
0.01314752292324792
% es.normE (V/m) @ t=0.44
1.246253252159853
% es.EX (V/m) @ t=0.44
0.8656564931923472
% es.EY (V/m) @ t=0.44
0.12962347257566964
% es.EZ (V/m) @ t=0.44
-0.864394691257599
% es.tEX (V/m) @ t=0.44
0.8656564931923452
% es.tEY (V/m) @ t=0.44
0
% es.tEZ (V/m) @ t=0.44
-0.8643946912575879
% es.Ex (V/m) @ t=0.44
0.8656564931923472
% es.Ey (V/m) @ t=0.44
0.12962347257566964
% es.Ez (V/m) @ t=0.44
-0.864394691257599
% es.tEx (V/m) @ t=0.44
0.8656564931923452
% es.tEy (V/m) @ t=0.44
0
% es.tEz (V/m) @ t=0.44
-0.8643946912575879
% V (V) @ t=0.44
0.013345656531825529
% es.normE (V/m) @ t=0.46
1.2647560678937713
% es.EX (V/m) @ t=0.46
0.8785085813836433
% es.EY (V/m) @ t=0.46
0.1315480460274897
% es.EZ (V/m) @ t=0.46
-0.8772282259188775
% es.tEX (V/m) @ t=0.46
0.8785085813836444
% es.tEY (V/m) @ t=0.46
0
% es.tEZ (V/m) @ t=0.46
-0.8772282259188664
% es.Ex (V/m) @ t=0.46
0.8785085813836433
% es.Ey (V/m) @ t=0.46
0.1315480460274897
% es.Ez (V/m) @ t=0.46
-0.8772282259188775
% es.tEx (V/m) @ t=0.46
0.8785085813836444
% es.tEy (V/m) @ t=0.46
0
% es.tEz (V/m) @ t=0.46
-0.8772282259188664
% V (V) @ t=0.46
0.013543790140403137
% es.normE (V/m) @ t=0.48
1.283258883627688
% es.EX (V/m) @ t=0.48
0.8913606695749265
% es.EY (V/m) @ t=0.48
0.13347261947930977
% es.EZ (V/m) @ t=0.48
-0.8900617605801417
% es.tEX (V/m) @ t=0.48
0.8913606695749312
% es.tEY (V/m) @ t=0.48
0
% es.tEZ (V/m) @ t=0.48
-0.8900617605801235
% es.Ex (V/m) @ t=0.48
0.8913606695749265
% es.Ey (V/m) @ t=0.48
0.13347261947930977
% es.Ez (V/m) @ t=0.48
-0.8900617605801417
% es.tEx (V/m) @ t=0.48
0.8913606695749312
% es.tEy (V/m) @ t=0.48
0
% es.tEz (V/m) @ t=0.48
-0.8900617605801235
% V (V) @ t=0.48
0.013741923748980738
% es.normE (V/m) @ t=0.5
1.3017616993616286
% es.EX (V/m) @ t=0.5
0.9042127577662129
% es.EY (V/m) @ t=0.5
0.1353971929311238
% es.EZ (V/m) @ t=0.5
-0.9028952952414051
% es.tEX (V/m) @ t=0.5
0.904212757766218
% es.tEY (V/m) @ t=0.5
0
% es.tEZ (V/m) @ t=0.5
-0.9028952952413869
% es.Ex (V/m) @ t=0.5
0.9042127577662129
% es.Ey (V/m) @ t=0.5
0.1353971929311238
% es.Ez (V/m) @ t=0.5
-0.9028952952414051
% es.tEx (V/m) @ t=0.5
0.904212757766218
% es.tEy (V/m) @ t=0.5
0
% es.tEz (V/m) @ t=0.5
-0.9028952952413869
% V (V) @ t=0.5
0.013940057357558346
% es.normE (V/m) @ t=0.52
1.3202645150955774
% es.EX (V/m) @ t=0.52
0.9170648459575033
% es.EY (V/m) @ t=0.52
0.1373217663829563
% es.EZ (V/m) @ t=0.52
-0.9157288299026551
% es.tEX (V/m) @ t=0.52
0.9170648459575155
% es.tEY (V/m) @ t=0.52
0
% es.tEZ (V/m) @ t=0.52
-0.9157288299026369
% es.Ex (V/m) @ t=0.52
0.9170648459575033
% es.Ey (V/m) @ t=0.52
0.1373217663829563
% es.Ez (V/m) @ t=0.52
-0.9157288299026551
% es.tEx (V/m) @ t=0.52
0.9170648459575155
% es.tEy (V/m) @ t=0.52
0
% es.tEz (V/m) @ t=0.52
-0.9157288299026369
% V (V) @ t=0.52
0.014138190966135951
% es.normE (V/m) @ t=0.54
1.3387673308295585
% es.EX (V/m) @ t=0.54
0.929916934148797
% es.EY (V/m) @ t=0.54
0.13924633983477763
% es.EZ (V/m) @ t=0.54
-0.928562364563922
% es.tEX (V/m) @ t=0.54
0.9299169341488014
% es.tEY (V/m) @ t=0.54
0
% es.tEZ (V/m) @ t=0.54
-0.9285623645639145
% es.Ex (V/m) @ t=0.54
0.929916934148797
% es.Ey (V/m) @ t=0.54
0.13924633983477763
% es.Ez (V/m) @ t=0.54
-0.928562364563922
% es.tEx (V/m) @ t=0.54
0.9299169341488014
% es.tEy (V/m) @ t=0.54
0
% es.tEz (V/m) @ t=0.54
-0.9285623645639145
% V (V) @ t=0.54
0.014336324574713554
% es.normE (V/m) @ t=0.56
1.3578718213657062
% es.EX (V/m) @ t=0.56
0.9431870295954503
% es.EY (V/m) @ t=0.56
0.14123342610397904
% es.EZ (V/m) @ t=0.56
-0.9418131554245224
% es.tEX (V/m) @ t=0.56
0.9431870295954545
% es.tEY (V/m) @ t=0.56
0
% es.tEZ (V/m) @ t=0.56
-0.9418131554245042
% es.Ex (V/m) @ t=0.56
0.9431870295954503
% es.Ey (V/m) @ t=0.56
0.14123342610397904
% es.Ez (V/m) @ t=0.56
-0.9418131554245224
% es.tEx (V/m) @ t=0.56
0.9431870295954545
% es.tEy (V/m) @ t=0.56
0
% es.tEz (V/m) @ t=0.56
-0.9418131554245042
% V (V) @ t=0.56
0.014540906083603831
% es.normE (V/m) @ t=0.58
1.3772563383965295
% es.EX (V/m) @ t=0.58
0.9566516705109149
% es.EY (V/m) @ t=0.58
0.14324960657001184
% es.EZ (V/m) @ t=0.58
-0.9552581422036988
% es.tEX (V/m) @ t=0.58
0.9566516705109178
% es.tEY (V/m) @ t=0.58
0
% es.tEZ (V/m) @ t=0.58
-0.9552581422036805
% es.Ex (V/m) @ t=0.58
0.9566516705109149
% es.Ey (V/m) @ t=0.58
0.14324960657001184
% es.Ez (V/m) @ t=0.58
-0.9552581422036988
% es.tEx (V/m) @ t=0.58
0.9566516705109178
% es.tEy (V/m) @ t=0.58
0
% es.tEz (V/m) @ t=0.58
-0.9552581422036805
% V (V) @ t=0.58
0.014748488520762975
% es.normE (V/m) @ t=0.6
1.3968268532667172
% es.EX (V/m) @ t=0.6
0.9702455314735812
% es.EY (V/m) @ t=0.6
0.14528511184229143
% es.EZ (V/m) @ t=0.6
-0.9688321168534877
% es.tEX (V/m) @ t=0.6
0.9702455314735858
% es.tEY (V/m) @ t=0.6
0
% es.tEZ (V/m) @ t=0.6
-0.968832116853477
% es.Ex (V/m) @ t=0.6
0.9702455314735812
% es.Ey (V/m) @ t=0.6
0.14528511184229143
% es.Ez (V/m) @ t=0.6
-0.9688321168534877
% es.tEx (V/m) @ t=0.6
0.9702455314735858
% es.tEy (V/m) @ t=0.6
0
% es.tEz (V/m) @ t=0.6
-0.968832116853477
% V (V) @ t=0.6
0.014958064219933781
% es.normE (V/m) @ t=0.62
1.4165833659762703
% es.EX (V/m) @ t=0.62
0.983968612483437
% es.EY (V/m) @ t=0.62
0.14733994192079264
% es.EZ (V/m) @ t=0.62
-0.9825350793739003
% es.tEX (V/m) @ t=0.62
0.9839686124834408
% es.tEY (V/m) @ t=0.62
0
% es.tEZ (V/m) @ t=0.62
-0.9825350793738856
% es.Ex (V/m) @ t=0.62
0.983968612483437
% es.Ey (V/m) @ t=0.62
0.14733994192079264
% es.Ez (V/m) @ t=0.62
-0.9825350793739003
% es.tEx (V/m) @ t=0.62
0.9839686124834408
% es.tEy (V/m) @ t=0.62
0
% es.tEz (V/m) @ t=0.62
-0.9825350793738856
% V (V) @ t=0.62
0.015169633181116247
% es.normE (V/m) @ t=0.64
1.436525876525188
% es.EX (V/m) @ t=0.64
0.9978209135404892
% es.EY (V/m) @ t=0.64
0.1494140968055095
% es.EZ (V/m) @ t=0.64
-0.9963670297649192
% es.tEX (V/m) @ t=0.64
0.9978209135404947
% es.tEY (V/m) @ t=0.64
0
% es.tEZ (V/m) @ t=0.64
-0.9963670297649081
% es.Ex (V/m) @ t=0.64
0.9978209135404892
% es.Ey (V/m) @ t=0.64
0.1494140968055095
% es.Ez (V/m) @ t=0.64
-0.9963670297649192
% es.tEx (V/m) @ t=0.64
0.9978209135404947
% es.tEy (V/m) @ t=0.64
0
% es.tEz (V/m) @ t=0.64
-0.9963670297649081
% V (V) @ t=0.64
0.015383195404310379
% es.normE (V/m) @ t=0.66
1.4566543849135036
% es.EX (V/m) @ t=0.66
1.011802434644746
% es.EY (V/m) @ t=0.66
0.15150757649647384
% es.EZ (V/m) @ t=0.66
-1.0103279680265609
% es.tEX (V/m) @ t=0.66
1.0118024346447516
% es.tEY (V/m) @ t=0.66
0
% es.tEZ (V/m) @ t=0.66
-1.0103279680265427
% es.Ex (V/m) @ t=0.66
1.011802434644746
% es.Ey (V/m) @ t=0.66
0.15150757649647384
% es.Ez (V/m) @ t=0.66
-1.0103279680265609
% es.tEx (V/m) @ t=0.66
1.0118024346447516
% es.tEy (V/m) @ t=0.66
0
% es.tEz (V/m) @ t=0.66
-1.0103279680265427
% V (V) @ t=0.66
0.015598750889516167
% es.normE (V/m) @ t=0.68
1.476968891141213
% es.EX (V/m) @ t=0.68
1.0259131757961863
% es.EY (V/m) @ t=0.68
0.1536203809936707
% es.EZ (V/m) @ t=0.68
-1.02441789415882
% es.tEX (V/m) @ t=0.68
1.0259131757961883
% es.tEY (V/m) @ t=0.68
0
% es.tEZ (V/m) @ t=0.68
-1.0244178941587982
% es.Ex (V/m) @ t=0.68
1.0259131757961863
% es.Ey (V/m) @ t=0.68
0.1536203809936707
% es.Ez (V/m) @ t=0.68
-1.02441789415882
% es.tEx (V/m) @ t=0.68
1.0259131757961883
% es.tEy (V/m) @ t=0.68
0
% es.tEz (V/m) @ t=0.68
-1.0244178941587982
% V (V) @ t=0.68
0.015816299636733623
% es.normE (V/m) @ t=0.7
1.4974693952083595
% es.EX (V/m) @ t=0.7
1.0401531369948327
% es.EY (V/m) @ t=0.7
0.15575251029709097
% es.EZ (V/m) @ t=0.7
-1.0386368081617232
% es.tEX (V/m) @ t=0.7
1.0401531369948418
% es.tEY (V/m) @ t=0.7
0
% es.tEZ (V/m) @ t=0.7
-1.0386368081616943
% es.Ex (V/m) @ t=0.7
1.0401531369948327
% es.Ey (V/m) @ t=0.7
0.15575251029709097
% es.Ez (V/m) @ t=0.7
-1.0386368081617232
% es.tEx (V/m) @ t=0.7
1.0401531369948418
% es.tEy (V/m) @ t=0.7
0
% es.tEz (V/m) @ t=0.7
-1.0386368081616943
% V (V) @ t=0.7
0.016035841645962733
% es.normE (V/m) @ t=0.72
1.5181558971149154
% es.EX (V/m) @ t=0.72
1.054522318240659
% es.EY (V/m) @ t=0.72
0.1579039644067215
% es.EZ (V/m) @ t=0.72
-1.0529847100352128
% es.tEX (V/m) @ t=0.72
1.0545223182406565
% es.tEY (V/m) @ t=0.72
0
% es.tEZ (V/m) @ t=0.72
-1.052984710035191
% es.Ex (V/m) @ t=0.72
1.054522318240659
% es.Ey (V/m) @ t=0.72
0.1579039644067215
% es.Ez (V/m) @ t=0.72
-1.0529847100352128
% es.tEx (V/m) @ t=0.72
1.0545223182406565
% es.tEy (V/m) @ t=0.72
0
% es.tEz (V/m) @ t=0.72
-1.052984710035191
% V (V) @ t=0.72
0.016257376917203508
% es.normE (V/m) @ t=0.74
1.5390283968609353
% es.EX (V/m) @ t=0.74
1.0690207195336952
% es.EY (V/m) @ t=0.74
0.1600747433226009
% es.EZ (V/m) @ t=0.74
-1.0674615997793357
% es.tEX (V/m) @ t=0.74
1.0690207195336998
% es.tEY (V/m) @ t=0.74
0
% es.tEZ (V/m) @ t=0.74
-1.067461599779321
% es.Ex (V/m) @ t=0.74
1.0690207195336952
% es.Ey (V/m) @ t=0.74
0.1600747433226009
% es.Ez (V/m) @ t=0.74
-1.0674615997793357
% es.tEx (V/m) @ t=0.74
1.0690207195336998
% es.tEy (V/m) @ t=0.74
0
% es.tEz (V/m) @ t=0.74
-1.067461599779321
% V (V) @ t=0.74
0.01648090545045594
% es.normE (V/m) @ t=0.76
1.56008689444644
% es.EX (V/m) @ t=0.76
1.0836483408739215
% es.EY (V/m) @ t=0.76
0.1622648470447231
% es.EZ (V/m) @ t=0.76
-1.082067477394086
% es.tEX (V/m) @ t=0.76
1.0836483408739226
% es.tEY (V/m) @ t=0.76
0
% es.tEZ (V/m) @ t=0.76
-1.0820674773940713
% es.Ex (V/m) @ t=0.76
1.0836483408739215
% es.Ey (V/m) @ t=0.76
0.1622648470447231
% es.Ez (V/m) @ t=0.76
-1.082067477394086
% es.tEx (V/m) @ t=0.76
1.0836483408739226
% es.tEy (V/m) @ t=0.76
0
% es.tEz (V/m) @ t=0.76
-1.0820674773940713
% V (V) @ t=0.76
0.016706427245720037
% es.normE (V/m) @ t=0.78
1.581331389871453
% es.EX (V/m) @ t=0.78
1.0984051822613596
% es.EY (V/m) @ t=0.78
0.1644742755730499
% es.EZ (V/m) @ t=0.78
-1.096802342879449
% es.tEX (V/m) @ t=0.78
1.0984051822613576
% es.tEY (V/m) @ t=0.78
0
% es.tEZ (V/m) @ t=0.78
-1.0968023428794202
% es.Ex (V/m) @ t=0.78
1.0984051822613596
% es.Ey (V/m) @ t=0.78
0.1644742755730499
% es.Ez (V/m) @ t=0.78
-1.096802342879449
% es.tEx (V/m) @ t=0.78
1.0984051822613576
% es.tEy (V/m) @ t=0.78
0
% es.tEz (V/m) @ t=0.78
-1.0968023428794202
% V (V) @ t=0.78
0.0169339423029958
% es.normE (V/m) @ t=0.8
1.602761883135959
% es.EX (V/m) @ t=0.8
1.11329124369597
% es.EY (V/m) @ t=0.8
0.16670302890760696
% es.EZ (V/m) @ t=0.8
-1.111666196235411
% es.tEX (V/m) @ t=0.8
1.1132912436959788
% es.tEY (V/m) @ t=0.8
0
% es.tEZ (V/m) @ t=0.8
-1.1116661962353893
% es.Ex (V/m) @ t=0.8
1.11329124369597
% es.Ey (V/m) @ t=0.8
0.16670302890760696
% es.Ez (V/m) @ t=0.8
-1.111666196235411
% es.tEx (V/m) @ t=0.8
1.1132912436959788
% es.tEy (V/m) @ t=0.8
0
% es.tEz (V/m) @ t=0.8
-1.1116661962353893
% V (V) @ t=0.8
0.01716345062228322
% es.normE (V/m) @ t=0.82
1.6244794088934054
% es.EX (V/m) @ t=0.82
1.1283767844237806
% es.EY (V/m) @ t=0.82
0.16896153565385025
% es.EZ (V/m) @ t=0.82
-1.1267290565998498
% es.tEX (V/m) @ t=0.82
1.1283767844237813
% es.tEY (V/m) @ t=0.82
0
% es.tEZ (V/m) @ t=0.82
-1.1267290565998351
% es.Ex (V/m) @ t=0.82
1.1283767844237806
% es.Ey (V/m) @ t=0.82
0.16896153565385025
% es.Ez (V/m) @ t=0.82
-1.1267290565998498
% es.tEx (V/m) @ t=0.82
1.1283767844237813
% es.tEy (V/m) @ t=0.82
0
% es.tEz (V/m) @ t=0.82
-1.1267290565998351
% V (V) @ t=0.82
0.01739603919823914
% es.normE (V/m) @ t=0.84
1.6466812274139615
% es.EX (V/m) @ t=0.84
1.143798978744553
% es.EY (V/m) @ t=0.84
0.17127015664294115
% es.EZ (V/m) @ t=0.84
-1.1421276294847997
% es.tEX (V/m) @ t=0.84
1.1437989787445608
% es.tEY (V/m) @ t=0.84
0
% es.tEZ (V/m) @ t=0.84
-1.1421276294847704
% es.Ex (V/m) @ t=0.84
1.143798978744553
% es.Ey (V/m) @ t=0.84
0.17127015664294115
% es.Ez (V/m) @ t=0.84
-1.1421276294847997
% es.tEx (V/m) @ t=0.84
1.1437989787445608
% es.tEy (V/m) @ t=0.84
0
% es.tEz (V/m) @ t=0.84
-1.1421276294847704
% V (V) @ t=0.84
0.01763383028151981
% es.normE (V/m) @ t=0.86
1.669121851510446
% es.EX (V/m) @ t=0.86
1.1593871154802866
% es.EY (V/m) @ t=0.86
0.17360355315264897
% es.EZ (V/m) @ t=0.86
-1.1576917871108763
% es.tEX (V/m) @ t=0.86
1.1593871154802944
% es.tEY (V/m) @ t=0.86
0
% es.tEZ (V/m) @ t=0.86
-1.1576917871108616
% es.Ex (V/m) @ t=0.86
1.1593871154802866
% es.Ey (V/m) @ t=0.86
0.17360355315264897
% es.Ez (V/m) @ t=0.86
-1.1576917871108763
% es.tEx (V/m) @ t=0.86
1.1593871154802944
% es.tEy (V/m) @ t=0.86
0
% es.tEz (V/m) @ t=0.86
-1.1576917871108616
% V (V) @ t=0.86
0.017874182765808863
% es.normE (V/m) @ t=0.88
1.691801281183057
% es.EX (V/m) @ t=0.88
1.1751411946309576
% es.EY (V/m) @ t=0.88
0.1759617251829656
% es.EZ (V/m) @ t=0.88
-1.1734215294781039
% es.tEX (V/m) @ t=0.88
1.1751411946309656
% es.tEY (V/m) @ t=0.88
0
% es.tEZ (V/m) @ t=0.88
-1.173421529478082
% es.Ex (V/m) @ t=0.88
1.1751411946309576
% es.Ey (V/m) @ t=0.88
0.1759617251829656
% es.Ez (V/m) @ t=0.88
-1.1734215294781039
% es.tEx (V/m) @ t=0.88
1.1751411946309656
% es.tEy (V/m) @ t=0.88
0
% es.tEz (V/m) @ t=0.88
-1.173421529478082
% V (V) @ t=0.88
0.018117096651106317
% es.normE (V/m) @ t=0.9
1.7147195164320046
% es.EX (V/m) @ t=0.9
1.1910612161966134
% es.EY (V/m) @ t=0.9
0.17834467273392096
% es.EZ (V/m) @ t=0.9
-1.1893168565864736
% es.tEX (V/m) @ t=0.9
1.1910612161966174
% es.tEY (V/m) @ t=0.9
0
% es.tEZ (V/m) @ t=0.9
-1.1893168565864443
% es.Ex (V/m) @ t=0.9
1.1910612161966134
% es.Ey (V/m) @ t=0.9
0.17834467273392096
% es.Ez (V/m) @ t=0.9
-1.1893168565864736
% es.tEx (V/m) @ t=0.9
1.1910612161966174
% es.tEy (V/m) @ t=0.9
0
% es.tEz (V/m) @ t=0.9
-1.1893168565864443
% V (V) @ t=0.9
0.018362571937412156
% es.normE (V/m) @ t=0.92
1.7378765572574308
% es.EX (V/m) @ t=0.92
1.2071471801771567
% es.EY (V/m) @ t=0.92
0.18075239580549213
% es.EZ (V/m) @ t=0.92
-1.205377768436008
% es.tEX (V/m) @ t=0.92
1.2071471801771638
% es.tEY (V/m) @ t=0.92
0
% es.tEZ (V/m) @ t=0.92
-1.2053777684359934
% es.Ex (V/m) @ t=0.92
1.2071471801771567
% es.Ey (V/m) @ t=0.92
0.18075239580549213
% es.Ez (V/m) @ t=0.92
-1.205377768436008
% es.tEx (V/m) @ t=0.92
1.2071471801771638
% es.tEy (V/m) @ t=0.92
0
% es.tEz (V/m) @ t=0.92
-1.2053777684359934
% V (V) @ t=0.92
0.01861060862472639
% es.normE (V/m) @ t=0.94
1.7612724036595946
% es.EX (V/m) @ t=0.94
1.2233990865726763
% es.EY (V/m) @ t=0.94
0.18318489439772556
% es.EZ (V/m) @ t=0.94
-1.221604265026654
% es.tEX (V/m) @ t=0.94
1.2233990865726874
% es.tEY (V/m) @ t=0.94
0
% es.tEZ (V/m) @ t=0.94
-1.2216042650266248
% es.Ex (V/m) @ t=0.94
1.2233990865726763
% es.Ey (V/m) @ t=0.94
0.18318489439772556
% es.Ez (V/m) @ t=0.94
-1.221604265026654
% es.tEx (V/m) @ t=0.94
1.2233990865726874
% es.tEy (V/m) @ t=0.94
0
% es.tEz (V/m) @ t=0.94
-1.2216042650266248
% V (V) @ t=0.94
0.018861206713049014
% es.normE (V/m) @ t=0.96
1.7849070556386963
% es.EX (V/m) @ t=0.96
1.2398169353831507
% es.EY (V/m) @ t=0.96
0.18564216851053983
% es.EZ (V/m) @ t=0.96
-1.237996346358432
% es.tEX (V/m) @ t=0.96
1.2398169353831534
% es.tEY (V/m) @ t=0.96
0
% es.tEZ (V/m) @ t=0.96
-1.2379963463584032
% es.Ex (V/m) @ t=0.96
1.2398169353831507
% es.Ey (V/m) @ t=0.96
0.18564216851053983
% es.Ez (V/m) @ t=0.96
-1.237996346358432
% es.tEx (V/m) @ t=0.96
1.2398169353831534
% es.tEy (V/m) @ t=0.96
0
% es.tEz (V/m) @ t=0.96
-1.2379963463584032
% V (V) @ t=0.96
0.019114366202380027
% es.normE (V/m) @ t=0.98
1.8087805131949697
% es.EX (V/m) @ t=0.98
1.256400726608549
% es.EY (V/m) @ t=0.98
0.18812421814400615
% es.EZ (V/m) @ t=0.98
-1.2545540124313797
% es.tEX (V/m) @ t=0.98
1.256400726608553
% es.tEY (V/m) @ t=0.98
0
% es.tEZ (V/m) @ t=0.98
-1.254554012431365
% es.Ex (V/m) @ t=0.98
1.256400726608549
% es.Ey (V/m) @ t=0.98
0.18812421814400615
% es.Ez (V/m) @ t=0.98
-1.2545540124313797
% es.tEx (V/m) @ t=0.98
1.256400726608553
% es.tEy (V/m) @ t=0.98
0
% es.tEz (V/m) @ t=0.98
-1.254554012431365
% V (V) @ t=0.98
0.019370087092719434
% es.normE (V/m) @ t=1
1.832892776328652
% es.EX (V/m) @ t=1
1.2731504602489072
% es.EY (V/m) @ t=1
0.1906310432980931
% es.EZ (V/m) @ t=1
-1.2712772632454556
% es.tEX (V/m) @ t=1
1.2731504602489032
% es.tEY (V/m) @ t=1
0
% es.tEZ (V/m) @ t=1
-1.271277263245441
% es.Ex (V/m) @ t=1
1.2731504602489072
% es.Ey (V/m) @ t=1
0.1906310432980931
% es.Ez (V/m) @ t=1
-1.2712772632454556
% es.tEx (V/m) @ t=1
1.2731504602489032
% es.tEy (V/m) @ t=1
0
% es.tEz (V/m) @ t=1
-1.271277263245441
% V (V) @ t=1
0.01962836938406724
% es.normE (V/m) @ t=1.02
1.8572438450399698
% es.EX (V/m) @ t=1.02
1.290066136304211
% es.EY (V/m) @ t=1.02
0.19316264397282912
% es.EZ (V/m) @ t=1.02
-1.2881660988006804
% es.tEX (V/m) @ t=1.02
1.2900661363042136
% es.tEY (V/m) @ t=1.02
0
% es.tEZ (V/m) @ t=1.02
-1.288166098800673
% es.Ex (V/m) @ t=1.02
1.290066136304211
% es.Ey (V/m) @ t=1.02
0.19316264397282912
% es.Ez (V/m) @ t=1.02
-1.2881660988006804
% es.tEx (V/m) @ t=1.02
1.2900661363042136
% es.tEy (V/m) @ t=1.02
0
% es.tEz (V/m) @ t=1.02
-1.288166098800673
% V (V) @ t=1.02
0.019889213076423426
% es.normE (V/m) @ t=1.04
1.8818337193291534
% es.EX (V/m) @ t=1.04
1.3071477547744563
% es.EY (V/m) @ t=1.04
0.19571902016816356
% es.EZ (V/m) @ t=1.04
-1.3052205190970492
% es.tEX (V/m) @ t=1.04
1.3071477547744639