% Model:              1 neuron.mph
% Version:            COMSOL 6.0.0.405
% Date:               Mar 16 2023, 18:39
% Dimension:          0
% Nodes:              14017
% Expressions:        14017
% Description:        Electric field norm, Electric field, X component, Electric field, Y component, Electric field, Z component, Tangential electric field, X component, Tangential electric field, Y component, Tangential electric field, Z component, Electric field, x component, Electric field, y component, Electric field, z component, Tangential electric field, x component, Tangential electric field, y component, Tangential electric field, z component, Electric potential
% Length unit:        mm
% x
1.66
% y
12.200000000000001
% z
1.66
% es.normE (V/m) @ t=0
30.866943661141327
% es.EX (V/m) @ t=0
-14.577147150646908
% es.EY (V/m) @ t=0
11.695384948229893
% es.EZ (V/m) @ t=0
14.01989734929758
% es.tEX (V/m) @ t=0
-14.577147150646887
% es.tEY (V/m) @ t=0
0
% es.tEZ (V/m) @ t=0
14.019897349297622
% es.Ex (V/m) @ t=0
-14.577147150646908
% es.Ey (V/m) @ t=0
11.695384948229893
% es.Ez (V/m) @ t=0
14.01989734929758
% es.tEx (V/m) @ t=0
-14.577147150646887
% es.tEy (V/m) @ t=0
0
% es.tEz (V/m) @ t=0
14.019897349297622
% V (V) @ t=0
0.009687457098259125
% es.normE (V/m) @ t=0.02
26.808175554247544
% es.EX (V/m) @ t=0.02
-12.660363425992806
% es.EY (V/m) @ t=0.02
10.157530963410132
% es.EZ (V/m) @ t=0.02
12.17638730547063
% es.tEX (V/m) @ t=0.02
-12.660363425992799
% es.tEY (V/m) @ t=0.02
0
% es.tEZ (V/m) @ t=0.02
12.176387305470627
% es.Ex (V/m) @ t=0.02
-12.660363425992806
% es.Ey (V/m) @ t=0.02
10.157530963410132
% es.Ez (V/m) @ t=0.02
12.17638730547063
% es.tEx (V/m) @ t=0.02
-12.660363425992799
% es.tEy (V/m) @ t=0.02
0
% es.tEz (V/m) @ t=0.02
12.176387305470627
% V (V) @ t=0.02
0.008413630240337738
% es.normE (V/m) @ t=0.04
27.205670425947854
% es.EX (V/m) @ t=0.04
-12.84808414222482
% es.EY (V/m) @ t=0.04
10.308140988703787
% es.EZ (V/m) @ t=0.04
12.35692980141458
% es.tEX (V/m) @ t=0.04
-12.848084142224828
% es.tEY (V/m) @ t=0.04
0
% es.tEZ (V/m) @ t=0.04
12.356929801414537
% es.Ex (V/m) @ t=0.04
-12.84808414222482
% es.Ey (V/m) @ t=0.04
10.308140988703787
% es.Ez (V/m) @ t=0.04
12.35692980141458
% es.tEx (V/m) @ t=0.04
-12.848084142224828
% es.tEy (V/m) @ t=0.04
0
% es.tEz (V/m) @ t=0.04
12.356929801414537
% V (V) @ t=0.04
0.008538382298394272
% es.normE (V/m) @ t=0.06
27.609109988424024
% es.EX (V/m) @ t=0.06
-13.038612400659154
% es.EY (V/m) @ t=0.06
10.461003515324126
% es.EZ (V/m) @ t=0.06
12.540172191391449
% es.tEX (V/m) @ t=0.06
-13.038612400659161
% es.tEY (V/m) @ t=0.06
0
% es.tEZ (V/m) @ t=0.06
12.540172191391434
% es.Ex (V/m) @ t=0.06
-13.038612400659154
% es.Ey (V/m) @ t=0.06
10.461003515324126
% es.Ez (V/m) @ t=0.06
12.540172191391449
% es.tEx (V/m) @ t=0.06
-13.038612400659161
% es.tEy (V/m) @ t=0.06
0
% es.tEz (V/m) @ t=0.06
12.540172191391434
% V (V) @ t=0.06
0.00866500007342827
% es.normE (V/m) @ t=0.08
28.022868286139747
% es.EX (V/m) @ t=0.08
-13.234014928502539
% es.EY (V/m) @ t=0.08
10.617776555107312
% es.EZ (V/m) @ t=0.08
12.728099295700126
% es.tEX (V/m) @ t=0.08
-13.234014928502546
% es.tEY (V/m) @ t=0.08
0
% es.tEZ (V/m) @ t=0.08
12.728099295700133
% es.Ex (V/m) @ t=0.08
-13.234014928502539
% es.Ey (V/m) @ t=0.08
10.617776555107312
% es.Ez (V/m) @ t=0.08
12.728099295700126
% es.tEx (V/m) @ t=0.08
-13.234014928502546
% es.tEy (V/m) @ t=0.08
0
% es.tEz (V/m) @ t=0.08
12.728099295700133
% V (V) @ t=0.08
0.008794856349812032
% es.normE (V/m) @ t=0.1
28.443738179739363
% es.EX (V/m) @ t=0.1
-13.432776766712749
% es.EY (V/m) @ t=0.1
10.777244691592163
% es.EZ (V/m) @ t=0.1
12.919255070420622
% es.tEX (V/m) @ t=0.1
-13.432776766712728
% es.tEY (V/m) @ t=0.1
0
% es.tEZ (V/m) @ t=0.1
12.919255070420633
% es.Ex (V/m) @ t=0.1
-13.432776766712749
% es.Ey (V/m) @ t=0.1
10.777244691592163
% es.Ez (V/m) @ t=0.1
12.919255070420622
% es.tEx (V/m) @ t=0.1
-13.432776766712728
% es.tEy (V/m) @ t=0.1
0
% es.tEz (V/m) @ t=0.1
12.919255070420633
% V (V) @ t=0.1
0.008926944577334318
% es.normE (V/m) @ t=0.12
28.864608073340122
% es.EX (V/m) @ t=0.12
-13.631538604922845
% es.EY (V/m) @ t=0.12
10.93671282807695
% es.EZ (V/m) @ t=0.12
13.110410845141036
% es.tEX (V/m) @ t=0.12
-13.63153860492281
% es.tEY (V/m) @ t=0.12
0
% es.tEZ (V/m) @ t=0.12
13.110410845141047
% es.Ex (V/m) @ t=0.12
-13.631538604922845
% es.Ey (V/m) @ t=0.12
10.93671282807695
% es.Ez (V/m) @ t=0.12
13.110410845141036
% es.tEx (V/m) @ t=0.12
-13.63153860492281
% es.tEy (V/m) @ t=0.12
0
% es.tEz (V/m) @ t=0.12
13.110410845141047
% V (V) @ t=0.12
0.009059032804856607
% es.normE (V/m) @ t=0.14
29.292826033462454
% es.EX (V/m) @ t=0.14
-13.833769771915307
% es.EY (V/m) @ t=0.14
11.098964557345663
% es.EZ (V/m) @ t=0.14
13.304905671203613
% es.tEX (V/m) @ t=0.14
-13.833769771915286
% es.tEY (V/m) @ t=0.14
0
% es.tEZ (V/m) @ t=0.14
13.304905671203585
% es.Ex (V/m) @ t=0.14
-13.833769771915307
% es.Ey (V/m) @ t=0.14
11.098964557345663
% es.Ez (V/m) @ t=0.14
13.304905671203613
% es.tEx (V/m) @ t=0.14
-13.833769771915286
% es.tEy (V/m) @ t=0.14
0
% es.tEz (V/m) @ t=0.14
13.304905671203585
% V (V) @ t=0.14
0.00919342718323644
% es.normE (V/m) @ t=0.16
29.751581770749876
% es.EX (V/m) @ t=0.16
-14.050419097612632
% es.EY (V/m) @ t=0.16
11.272784599981726
% es.EZ (V/m) @ t=0.16
13.51327723688792
% es.tEX (V/m) @ t=0.16
-14.050419097612632
% es.tEY (V/m) @ t=0.16
0
% es.tEZ (V/m) @ t=0.16
13.513277236887916
% es.Ex (V/m) @ t=0.16
-14.050419097612632
% es.Ey (V/m) @ t=0.16
11.272784599981726
% es.Ez (V/m) @ t=0.16
13.51327723688792
% es.tEx (V/m) @ t=0.16
-14.050419097612632
% es.tEy (V/m) @ t=0.16
0
% es.tEz (V/m) @ t=0.16
13.513277236887916
% V (V) @ t=0.16
0.009337405677492253
% es.normE (V/m) @ t=0.18
30.210337508037792
% es.EX (V/m) @ t=0.18
-14.26706842330995
% es.EY (V/m) @ t=0.18
11.446604642617736
% es.EZ (V/m) @ t=0.18
13.721648802572208
% es.tEX (V/m) @ t=0.18
-14.267068423309965
% es.tEY (V/m) @ t=0.18
0
% es.tEZ (V/m) @ t=0.18
13.721648802572219
% es.Ex (V/m) @ t=0.18
-14.26706842330995
% es.Ey (V/m) @ t=0.18
11.446604642617736
% es.Ez (V/m) @ t=0.18
13.721648802572208
% es.tEx (V/m) @ t=0.18
-14.267068423309965
% es.tEy (V/m) @ t=0.18
0
% es.tEz (V/m) @ t=0.18
13.721648802572219
% V (V) @ t=0.18
0.009481384171748066
% es.normE (V/m) @ t=0.2
30.669093245326053
% es.EX (V/m) @ t=0.2
-14.483717749007262
% es.EY (V/m) @ t=0.2
11.620424685253752
% es.EZ (V/m) @ t=0.2
13.930020368256521
% es.tEX (V/m) @ t=0.2
-14.483717749007269
% es.tEY (V/m) @ t=0.2
0
% es.tEZ (V/m) @ t=0.2
13.930020368256521
% es.Ex (V/m) @ t=0.2
-14.483717749007262
% es.Ey (V/m) @ t=0.2
11.620424685253752
% es.Ez (V/m) @ t=0.2
13.930020368256521
% es.tEx (V/m) @ t=0.2
-14.483717749007269
% es.tEy (V/m) @ t=0.2
0
% es.tEz (V/m) @ t=0.2
13.930020368256521
% V (V) @ t=0.2
0.009625362666003877
% es.normE (V/m) @ t=0.22
31.127848982614868
% es.EX (V/m) @ t=0.22
-14.700367074704616
% es.EY (V/m) @ t=0.22
11.794244727889762
% es.EZ (V/m) @ t=0.22
14.138391933940852
% es.tEX (V/m) @ t=0.22
-14.70036707470463
% es.tEY (V/m) @ t=0.22
0
% es.tEZ (V/m) @ t=0.22
14.138391933940852
% es.Ex (V/m) @ t=0.22
-14.700367074704616
% es.Ey (V/m) @ t=0.22
11.794244727889762
% es.Ez (V/m) @ t=0.22
14.138391933940852
% es.tEx (V/m) @ t=0.22
-14.70036707470463
% es.tEy (V/m) @ t=0.22
0
% es.tEz (V/m) @ t=0.22
14.138391933940852
% V (V) @ t=0.22
0.00976934116025969
% es.normE (V/m) @ t=0.24
31.58660471990393
% es.EX (V/m) @ t=0.24
-14.917016400401906
% es.EY (V/m) @ t=0.24
11.96806477052585
% es.EZ (V/m) @ t=0.24
14.34676349962513
% es.tEX (V/m) @ t=0.24
-14.917016400401934
% es.tEY (V/m) @ t=0.24
0
% es.tEZ (V/m) @ t=0.24
14.346763499625126
% es.Ex (V/m) @ t=0.24
-14.917016400401906
% es.Ey (V/m) @ t=0.24
11.96806477052585
% es.Ez (V/m) @ t=0.24
14.34676349962513
% es.tEx (V/m) @ t=0.24
-14.917016400401934
% es.tEy (V/m) @ t=0.24
0
% es.tEz (V/m) @ t=0.24
14.346763499625126
% V (V) @ t=0.24
0.009913319654515501
% es.normE (V/m) @ t=0.26
32.04536045719343
% es.EX (V/m) @ t=0.26
-15.133665726099302
% es.EY (V/m) @ t=0.26
12.141884813161838
% es.EZ (V/m) @ t=0.26
14.555135065309447
% es.tEX (V/m) @ t=0.26
-15.133665726099288
% es.tEY (V/m) @ t=0.26
0
% es.tEZ (V/m) @ t=0.26
14.555135065309457
% es.Ex (V/m) @ t=0.26
-15.133665726099302
% es.Ey (V/m) @ t=0.26
12.141884813161838
% es.Ez (V/m) @ t=0.26
14.555135065309447
% es.tEx (V/m) @ t=0.26
-15.133665726099288
% es.tEy (V/m) @ t=0.26
0
% es.tEz (V/m) @ t=0.26
14.555135065309457
% V (V) @ t=0.26
0.010057298148771314
% es.normE (V/m) @ t=0.28
32.520334244937594
% es.EX (V/m) @ t=0.28
-15.357976265352356
% es.EY (V/m) @ t=0.28
12.321851229559627
% es.EZ (V/m) @ t=0.28
14.770869137937055
% es.tEX (V/m) @ t=0.28
-15.35797626535237
% es.tEY (V/m) @ t=0.28
0
% es.tEZ (V/m) @ t=0.28
14.77086913793707
% es.Ex (V/m) @ t=0.28
-15.357976265352356
% es.Ey (V/m) @ t=0.28
12.321851229559627
% es.Ez (V/m) @ t=0.28
14.770869137937055
% es.tEx (V/m) @ t=0.28
-15.35797626535237
% es.tEy (V/m) @ t=0.28
0
% es.tEz (V/m) @ t=0.28
14.77086913793707
% V (V) @ t=0.28
0.010206366628481704
% es.normE (V/m) @ t=0.3
33.01985310253657
% es.EX (V/m) @ t=0.3
-15.593881602785117
% es.EY (V/m) @ t=0.3
12.511119822797426
% es.EZ (V/m) @ t=0.3
14.997745933774738
% es.tEX (V/m) @ t=0.3
-15.593881602785153
% es.tEY (V/m) @ t=0.3
0
% es.tEZ (V/m) @ t=0.3
14.997745933774723
% es.Ex (V/m) @ t=0.3
-15.593881602785117
% es.Ey (V/m) @ t=0.3
12.511119822797426
% es.Ez (V/m) @ t=0.3
14.997745933774738
% es.tEx (V/m) @ t=0.3
-15.593881602785153
% es.tEy (V/m) @ t=0.3
0
% es.tEz (V/m) @ t=0.3
14.997745933774723
% V (V) @ t=0.3
0.010363138503177
% es.normE (V/m) @ t=0.32
33.51937196013749
% es.EX (V/m) @ t=0.32
-15.829786940218
% es.EY (V/m) @ t=0.32
12.700388416035217
% es.EZ (V/m) @ t=0.32
15.224622729612506
% es.tEX (V/m) @ t=0.32
-15.829786940218
% es.tEY (V/m) @ t=0.32
0
% es.tEZ (V/m) @ t=0.32
15.22462272961252
% es.Ex (V/m) @ t=0.32
-15.829786940218
% es.Ey (V/m) @ t=0.32
12.700388416035217
% es.Ez (V/m) @ t=0.32
15.224622729612506
% es.tEx (V/m) @ t=0.32
-15.829786940218
% es.tEy (V/m) @ t=0.32
0
% es.tEz (V/m) @ t=0.32
15.22462272961252
% V (V) @ t=0.32
0.010519910377872291
% es.normE (V/m) @ t=0.34
34.0188908177402
% es.EX (V/m) @ t=0.34
-16.065692277650825
% es.EY (V/m) @ t=0.34
12.889657009272966
% es.EZ (V/m) @ t=0.34
15.451499525450181
% es.tEX (V/m) @ t=0.34
-16.06569227765081
% es.tEY (V/m) @ t=0.34
0
% es.tEZ (V/m) @ t=0.34
15.451499525450146
% es.Ex (V/m) @ t=0.34
-16.065692277650825
% es.Ey (V/m) @ t=0.34
12.889657009272966
% es.Ez (V/m) @ t=0.34
15.451499525450181
% es.tEx (V/m) @ t=0.34
-16.06569227765081
% es.tEy (V/m) @ t=0.34
0
% es.tEz (V/m) @ t=0.34
15.451499525450146
% V (V) @ t=0.34
0.010676682252567586
% es.normE (V/m) @ t=0.36
34.518409675344586
% es.EX (V/m) @ t=0.36
-16.301597615083622
% es.EY (V/m) @ t=0.36
13.07892560251075
% es.EZ (V/m) @ t=0.36
15.678376321287857
% es.tEX (V/m) @ t=0.36
-16.3015976150836
% es.tEY (V/m) @ t=0.36
0
% es.tEZ (V/m) @ t=0.36
15.678376321287828
% es.Ex (V/m) @ t=0.36
-16.301597615083622
% es.Ey (V/m) @ t=0.36
13.07892560251075
% es.Ez (V/m) @ t=0.36
15.678376321287857
% es.tEx (V/m) @ t=0.36
-16.3015976150836
% es.tEy (V/m) @ t=0.36
0
% es.tEz (V/m) @ t=0.36
15.678376321287828
% V (V) @ t=0.36
0.010833454127262882
% es.normE (V/m) @ t=0.38
35.01792853295076
% es.EX (V/m) @ t=0.38
-16.537502952516405
% es.EY (V/m) @ t=0.38
13.268194195748563
% es.EZ (V/m) @ t=0.38
15.905253117125582
% es.tEX (V/m) @ t=0.38
-16.537502952516427
% es.tEY (V/m) @ t=0.38
0
% es.tEZ (V/m) @ t=0.38
15.90525311712554
% es.Ex (V/m) @ t=0.38
-16.537502952516405
% es.Ey (V/m) @ t=0.38
13.268194195748563
% es.Ez (V/m) @ t=0.38
15.905253117125582
% es.tEx (V/m) @ t=0.38
-16.537502952516427
% es.tEy (V/m) @ t=0.38
0
% es.tEz (V/m) @ t=0.38
15.90525311712554
% V (V) @ t=0.38
0.010990226001958175
% es.normE (V/m) @ t=0.4
35.51744739055841
% es.EX (V/m) @ t=0.4
-16.773408289949217
% es.EY (V/m) @ t=0.4
13.457462788986298
% es.EZ (V/m) @ t=0.4
16.132129912963215
% es.tEX (V/m) @ t=0.4
-16.773408289949217
% es.tEY (V/m) @ t=0.4
0
% es.tEZ (V/m) @ t=0.4
16.132129912963194
% es.Ex (V/m) @ t=0.4
-16.773408289949217
% es.Ey (V/m) @ t=0.4
13.457462788986298
% es.Ez (V/m) @ t=0.4
16.132129912963215
% es.tEx (V/m) @ t=0.4
-16.773408289949217
% es.tEy (V/m) @ t=0.4
0
% es.tEz (V/m) @ t=0.4
16.132129912963194
% V (V) @ t=0.4
0.011146997876653473
% es.normE (V/m) @ t=0.42
36.0434282310823
% es.EX (V/m) @ t=0.42
-17.02180767141037
% es.EY (V/m) @ t=0.42
13.65675586121722
% es.EZ (V/m) @ t=0.42
16.371030931291273
% es.tEX (V/m) @ t=0.42
-17.021807671410386
% es.tEY (V/m) @ t=0.42
0
% es.tEZ (V/m) @ t=0.42
16.371030931291273
% es.Ex (V/m) @ t=0.42
-17.02180767141037
% es.Ey (V/m) @ t=0.42
13.65675586121722
% es.Ez (V/m) @ t=0.42
16.371030931291273
% es.tEx (V/m) @ t=0.42
-17.021807671410386
% es.tEy (V/m) @ t=0.42
0
% es.tEz (V/m) @ t=0.42
16.371030931291273
% V (V) @ t=0.42
0.011312074703964996
% es.normE (V/m) @ t=0.44
36.586920751175796
% es.EX (V/m) @ t=0.44
-17.278475204818108
% es.EY (V/m) @ t=0.44
13.862682807581571
% es.EZ (V/m) @ t=0.44
16.617889188953868
% es.tEX (V/m) @ t=0.44
-17.278475204818143
% es.tEY (V/m) @ t=0.44
0
% es.tEZ (V/m) @ t=0.44
16.617889188953882
% es.Ex (V/m) @ t=0.44
-17.278475204818108
% es.Ey (V/m) @ t=0.44
13.862682807581571
% es.Ez (V/m) @ t=0.44
16.617889188953868
% es.tEx (V/m) @ t=0.44
-17.278475204818143
% es.tEy (V/m) @ t=0.44
0
% es.tEz (V/m) @ t=0.44
16.617889188953882
% V (V) @ t=0.44
0.01148264747878442
% es.normE (V/m) @ t=0.46
37.13041327126976
% es.EX (V/m) @ t=0.46
-17.535142738225986
% es.EY (V/m) @ t=0.46
14.068609753945935
% es.EZ (V/m) @ t=0.46
16.864747446616676
% es.tEX (V/m) @ t=0.46
-17.53514273822602
% es.tEY (V/m) @ t=0.46
0
% es.tEZ (V/m) @ t=0.46
16.86474744661666
% es.Ex (V/m) @ t=0.46
-17.535142738225986
% es.Ey (V/m) @ t=0.46
14.068609753945935
% es.Ez (V/m) @ t=0.46
16.864747446616676
% es.tEx (V/m) @ t=0.46
-17.53514273822602
% es.tEy (V/m) @ t=0.46
0
% es.tEz (V/m) @ t=0.46
16.86474744661666
% V (V) @ t=0.46
0.011653220253603843
% es.normE (V/m) @ t=0.48
37.67390579136376
% es.EX (V/m) @ t=0.48
-17.79181027163382
% es.EY (V/m) @ t=0.48
14.274536700310286
% es.EZ (V/m) @ t=0.48
17.111605704279278
% es.tEX (V/m) @ t=0.48
-17.791810271633828
% es.tEY (V/m) @ t=0.48
0
% es.tEZ (V/m) @ t=0.48
17.11160570427927
% es.Ex (V/m) @ t=0.48
-17.79181027163382
% es.Ey (V/m) @ t=0.48
14.274536700310286
% es.Ez (V/m) @ t=0.48
17.111605704279278
% es.tEx (V/m) @ t=0.48
-17.791810271633828
% es.tEy (V/m) @ t=0.48
0
% es.tEz (V/m) @ t=0.48
17.11160570427927
% V (V) @ t=0.48
0.01182379302842327
% es.normE (V/m) @ t=0.5
38.2173983114581
% es.EX (V/m) @ t=0.5
-18.048477805041628
% es.EY (V/m) @ t=0.5
14.480463646674714
% es.EZ (V/m) @ t=0.5
17.358463961941986
% es.tEX (V/m) @ t=0.5
-18.048477805041657
% es.tEY (V/m) @ t=0.5
0
% es.tEZ (V/m) @ t=0.5
17.358463961941936
% es.Ex (V/m) @ t=0.5
-18.048477805041628
% es.Ey (V/m) @ t=0.5
14.480463646674714
% es.Ez (V/m) @ t=0.5
17.358463961941986
% es.tEx (V/m) @ t=0.5
-18.048477805041657
% es.tEy (V/m) @ t=0.5
0
% es.tEz (V/m) @ t=0.5
17.358463961941936
% V (V) @ t=0.5
0.011994365803242693
% es.normE (V/m) @ t=0.52
38.7608908315525
% es.EX (V/m) @ t=0.52
-18.305145338449506
% es.EY (V/m) @ t=0.52
14.686390593039022
% es.EZ (V/m) @ t=0.52
17.605322219604695
% es.tEX (V/m) @ t=0.52
-18.305145338449464
% es.tEY (V/m) @ t=0.52
0
% es.tEZ (V/m) @ t=0.52
17.605322219604773
% es.Ex (V/m) @ t=0.52
-18.305145338449506
% es.Ey (V/m) @ t=0.52
14.686390593039022
% es.Ez (V/m) @ t=0.52
17.605322219604695
% es.tEx (V/m) @ t=0.52
-18.305145338449464
% es.tEy (V/m) @ t=0.52
0
% es.tEz (V/m) @ t=0.52
17.605322219604773
% V (V) @ t=0.52
0.012164938578062116
% es.normE (V/m) @ t=0.54
39.30438335164709
% es.EX (V/m) @ t=0.54
-18.5618128718573
% es.EY (V/m) @ t=0.54
14.892317539403386
% es.EZ (V/m) @ t=0.54
17.85218047726739
% es.tEX (V/m) @ t=0.54
-18.561812871857285
% es.tEY (V/m) @ t=0.54
0
% es.tEZ (V/m) @ t=0.54
17.85218047726738
% es.Ex (V/m) @ t=0.54
-18.5618128718573
% es.Ey (V/m) @ t=0.54
14.892317539403386
% es.Ez (V/m) @ t=0.54
17.85218047726739
% es.tEx (V/m) @ t=0.54
-18.561812871857285
% es.tEy (V/m) @ t=0.54
0
% es.tEz (V/m) @ t=0.54
17.85218047726738
% V (V) @ t=0.54
0.012335511352881542
% es.normE (V/m) @ t=0.56
39.864596998224435
% es.EX (V/m) @ t=0.56
-18.826377063330227
% es.EY (V/m) @ t=0.56
15.104580054273931
% es.EZ (V/m) @ t=0.56
18.106633577179565
% es.tEX (V/m) @ t=0.56
-18.826377063330213
% es.tEY (V/m) @ t=0.56
0
% es.tEZ (V/m) @ t=0.56
18.106633577179593
% es.Ex (V/m) @ t=0.56
-18.826377063330227
% es.Ey (V/m) @ t=0.56
15.104580054273931
% es.Ez (V/m) @ t=0.56
18.106633577179565
% es.tEx (V/m) @ t=0.56
-18.826377063330213
% es.tEy (V/m) @ t=0.56
0
% es.tEz (V/m) @ t=0.56
18.106633577179593
% V (V) @ t=0.56
0.012511331980463045
% es.normE (V/m) @ t=0.58
40.43377345896174
% es.EX (V/m) @ t=0.58
-19.09517400065286
% es.EY (V/m) @ t=0.58
15.320238543881878
% es.EZ (V/m) @ t=0.58
18.36515764442325
% es.tEX (V/m) @ t=0.58
-19.095174000652833
% es.tEY (V/m) @ t=0.58
0
% es.tEZ (V/m) @ t=0.58
18.36515764442322
% es.Ex (V/m) @ t=0.58
-19.09517400065286
% es.Ey (V/m) @ t=0.58
15.320238543881878
% es.Ez (V/m) @ t=0.58
18.36515764442325
% es.tEx (V/m) @ t=0.58
-19.095174000652833
% es.tEy (V/m) @ t=0.58
0
% es.tEz (V/m) @ t=0.58
18.36515764442322
% V (V) @ t=0.58
0.012689965548254844
% es.normE (V/m) @ t=0.6
41.00841026271383
% es.EX (V/m) @ t=0.6
-19.366549619606104
% es.EY (V/m) @ t=0.6
15.53796593580173
% es.EZ (V/m) @ t=0.6
18.626161834275123
% es.tEX (V/m) @ t=0.6
-19.36654961960607
% es.tEY (V/m) @ t=0.6
0
% es.tEZ (V/m) @ t=0.6
18.62616183427508
% es.Ex (V/m) @ t=0.6
-19.366549619606104
% es.Ey (V/m) @ t=0.6
15.53796593580173
% es.Ez (V/m) @ t=0.6
18.626161834275123
% es.tEx (V/m) @ t=0.6
-19.36654961960607
% es.tEy (V/m) @ t=0.6
0
% es.tEz (V/m) @ t=0.6
18.62616183427508
% V (V) @ t=0.6
0.01287031282093376
% es.normE (V/m) @ t=0.62
41.58850740948091
% es.EX (V/m) @ t=0.62
-19.640503920190113
% es.EY (V/m) @ t=0.62
15.757762230033364
% es.EZ (V/m) @ t=0.62
18.889646146735345
% es.tEX (V/m) @ t=0.62
-19.640503920190092
% es.tEY (V/m) @ t=0.62
0
% es.tEZ (V/m) @ t=0.62
18.8896461467354
% es.Ex (V/m) @ t=0.62
-19.640503920190113
% es.Ey (V/m) @ t=0.62
15.757762230033364
% es.Ez (V/m) @ t=0.62
18.889646146735345
% es.tEx (V/m) @ t=0.62
-19.640503920190092
% es.tEy (V/m) @ t=0.62
0
% es.tEz (V/m) @ t=0.62
18.8896461467354
% V (V) @ t=0.62
0.0130523737984998
% es.normE (V/m) @ t=0.64
42.17406489926267
% es.EX (V/m) @ t=0.64
-19.917036902404732
% es.EY (V/m) @ t=0.64
15.97962742657684
% es.EZ (V/m) @ t=0.64
19.15561058180377
% es.tEX (V/m) @ t=0.64
-19.917036902404703
% es.tEY (V/m) @ t=0.64
0
% es.tEZ (V/m) @ t=0.64
19.155610581803785
% es.Ex (V/m) @ t=0.64
-19.917036902404732
% es.Ey (V/m) @ t=0.64
15.97962742657684
% es.Ez (V/m) @ t=0.64
19.15561058180377
% es.tEx (V/m) @ t=0.64
-19.917036902404703
% es.tEy (V/m) @ t=0.64
0
% es.tEz (V/m) @ t=0.64
19.155610581803785
% V (V) @ t=0.64
0.013236148480952956
% es.normE (V/m) @ t=0.66
42.765082732059255
% es.EX (V/m) @ t=0.66
-20.196148566250102
% es.EY (V/m) @ t=0.66
16.203561525432235
% es.EZ (V/m) @ t=0.66
19.424055139480366
% es.tEX (V/m) @ t=0.66
-20.19614856625006
% es.tEY (V/m) @ t=0.66
0
% es.tEZ (V/m) @ t=0.66
19.424055139480288
% es.Ex (V/m) @ t=0.66
-20.196148566250102
% es.Ey (V/m) @ t=0.66
16.203561525432235
% es.Ez (V/m) @ t=0.66
19.424055139480366
% es.tEx (V/m) @ t=0.66
-20.19614856625006
% es.tEy (V/m) @ t=0.66
0
% es.tEz (V/m) @ t=0.66
19.424055139480288
% V (V) @ t=0.66
0.013421636868293233
% es.normE (V/m) @ t=0.68
43.36156090787077
% es.EX (V/m) @ t=0.68
-20.47783891172614
% es.EY (V/m) @ t=0.68
16.4295645265994
% es.EZ (V/m) @ t=0.68
19.69497981976538
% es.tEX (V/m) @ t=0.68
-20.477838911726145
% es.tEY (V/m) @ t=0.68
0
% es.tEZ (V/m) @ t=0.68
19.694979819765422
% es.Ex (V/m) @ t=0.68
-20.47783891172614
% es.Ey (V/m) @ t=0.68
16.4295645265994
% es.Ez (V/m) @ t=0.68
19.69497981976538
% es.tEx (V/m) @ t=0.68
-20.477838911726145
% es.tEy (V/m) @ t=0.68
0
% es.tEz (V/m) @ t=0.68
19.694979819765422
% V (V) @ t=0.68
0.01360883896052063
% es.normE (V/m) @ t=0.7
43.96349942669693
% es.EX (V/m) @ t=0.7
-20.76210793883287
% es.EY (V/m) @ t=0.7
16.657636430078384
% es.EZ (V/m) @ t=0.7
19.968384622658434
% es.tEX (V/m) @ t=0.7
-20.762107938832855
% es.tEY (V/m) @ t=0.7
0
% es.tEZ (V/m) @ t=0.7
19.96838462265839
% es.Ex (V/m) @ t=0.7
-20.76210793883287
% es.Ey (V/m) @ t=0.7
16.657636430078384
% es.Ez (V/m) @ t=0.7
19.968384622658434
% es.tEx (V/m) @ t=0.7
-20.762107938832855
% es.tEy (V/m) @ t=0.7
0
% es.tEz (V/m) @ t=0.7
19.96838462265839
% V (V) @ t=0.7
0.013797754757635143
% es.normE (V/m) @ t=0.72
44.57089828853799
% es.EX (V/m) @ t=0.72
-21.048955647570267
% es.EY (V/m) @ t=0.72
16.887777235869272
% es.EZ (V/m) @ t=0.72
20.244269548159885
% es.tEX (V/m) @ t=0.72
-21.048955647570224
% es.tEY (V/m) @ t=0.72
0
% es.tEZ (V/m) @ t=0.72
20.244269548159878
% es.Ex (V/m) @ t=0.72
-21.048955647570267
% es.Ey (V/m) @ t=0.72
16.887777235869272
% es.Ez (V/m) @ t=0.72
20.244269548159885
% es.tEx (V/m) @ t=0.72
-21.048955647570224
% es.tEy (V/m) @ t=0.72
0
% es.tEz (V/m) @ t=0.72
20.244269548159878
% V (V) @ t=0.72
0.013988384259636775
% es.normE (V/m) @ t=0.74
45.18375749339386
% es.EX (V/m) @ t=0.74
-21.338382037938274
% es.EY (V/m) @ t=0.74
17.11998694397193
% es.EZ (V/m) @ t=0.74
20.522634596269512
% es.tEX (V/m) @ t=0.74
-21.33838203793826
% es.tEY (V/m) @ t=0.74
0
% es.tEZ (V/m) @ t=0.74
20.52263459626954
% es.Ex (V/m) @ t=0.74
-21.338382037938274
% es.Ey (V/m) @ t=0.74
17.11998694397193
% es.Ez (V/m) @ t=0.74
20.522634596269512
% es.tEx (V/m) @ t=0.74
-21.33838203793826
% es.tEy (V/m) @ t=0.74
0
% es.tEz (V/m) @ t=0.74
20.52263459626954
% V (V) @ t=0.74
0.01418072746652553
% es.normE (V/m) @ t=0.76
45.80207704126455
% es.EX (V/m) @ t=0.76
-21.630387109937075
% es.EY (V/m) @ t=0.76
17.354265554386522
% es.EZ (V/m) @ t=0.76
20.803479766987415
% es.tEX (V/m) @ t=0.76
-21.630387109937075
% es.tEY (V/m) @ t=0.76
0
% es.tEZ (V/m) @ t=0.76
20.803479766987323
% es.Ex (V/m) @ t=0.76
-21.630387109937075
% es.Ey (V/m) @ t=0.76
17.354265554386522
% es.Ez (V/m) @ t=0.76
20.803479766987415
% es.tEx (V/m) @ t=0.76
-21.630387109937075
% es.tEy (V/m) @ t=0.76
0
% es.tEz (V/m) @ t=0.76
20.803479766987323
% V (V) @ t=0.76
0.014374784378301402
% es.normE (V/m) @ t=0.78
46.42585693214993
% es.EX (V/m) @ t=0.78
-21.924970863566458
% es.EY (V/m) @ t=0.78
17.590613067112912
% es.EZ (V/m) @ t=0.78
21.086805060313445
% es.tEX (V/m) @ t=0.78
-21.924970863566514
% es.tEY (V/m) @ t=0.78
0
% es.tEZ (V/m) @ t=0.78
21.086805060313452
% es.Ex (V/m) @ t=0.78
-21.924970863566458
% es.Ey (V/m) @ t=0.78
17.590613067112912
% es.Ez (V/m) @ t=0.78
21.086805060313445
% es.tEx (V/m) @ t=0.78
-21.924970863566514
% es.tEy (V/m) @ t=0.78
0
% es.tEz (V/m) @ t=0.78
21.086805060313452
% V (V) @ t=0.78
0.014570554994964399
% es.normE (V/m) @ t=0.8
47.05509716605029
% es.EX (V/m) @ t=0.8
-22.222133298826606
% es.EY (V/m) @ t=0.8
17.8290294821511
% es.EZ (V/m) @ t=0.8
21.3726104762479
% es.tEX (V/m) @ t=0.8
-22.222133298826627
% es.tEY (V/m) @ t=0.8
0
% es.tEZ (V/m) @ t=0.8
21.37261047624787
% es.Ex (V/m) @ t=0.8
-22.222133298826606
% es.Ey (V/m) @ t=0.8
17.8290294821511
% es.Ez (V/m) @ t=0.8
21.3726104762479
% es.tEx (V/m) @ t=0.8
-22.222133298826627
% es.tEy (V/m) @ t=0.8
0
% es.tEz (V/m) @ t=0.8
21.37261047624787
% V (V) @ t=0.8
0.014768039316514506
% es.normE (V/m) @ t=0.82
47.69206331638297
% es.EX (V/m) @ t=0.82
-22.522945375520337
% es.EY (V/m) @ t=0.82
18.070373898756564
% es.EZ (V/m) @ t=0.82
21.661923206949062
% es.tEX (V/m) @ t=0.82
-22.522945375520337
% es.tEY (V/m) @ t=0.82
0
% es.tEZ (V/m) @ t=0.82
21.66192320694904
% es.Ex (V/m) @ t=0.82
-22.522945375520337
% es.Ey (V/m) @ t=0.82
18.070373898756564
% es.Ez (V/m) @ t=0.82
21.661923206949062
% es.tEx (V/m) @ t=0.82
-22.522945375520337
% es.tEy (V/m) @ t=0.82
0
% es.tEz (V/m) @ t=0.82
21.66192320694904
% V (V) @ t=0.82
0.014967948393545573
% es.normE (V/m) @ t=0.84
48.34376893658078
% es.EX (V/m) @ t=0.84
-22.83072247232475
% es.EY (V/m) @ t=0.84
18.31730583724501
% es.EZ (V/m) @ t=0.84
21.95792313925388
% es.tEX (V/m) @ t=0.84
-22.830722472324737
% es.tEY (V/m) @ t=0.84
0
% es.tEZ (V/m) @ t=0.84
21.957923139253865
% es.Ex (V/m) @ t=0.84
-22.83072247232475
% es.Ey (V/m) @ t=0.84
18.31730583724501
% es.Ez (V/m) @ t=0.84
21.95792313925388
% es.tEx (V/m) @ t=0.84
-22.830722472324737
% es.tEy (V/m) @ t=0.84
0
% es.tEz (V/m) @ t=0.84
21.957923139253865
% V (V) @ t=0.84
0.015172483430968244
% es.normE (V/m) @ t=0.86
49.002472228460114
% es.EX (V/m) @ t=0.86
-23.14180496179503
% es.EY (V/m) @ t=0.86
18.56688962887832
% es.EZ (V/m) @ t=0.86
22.25710020620688
% es.tEX (V/m) @ t=0.86
-23.14180496179501
% es.tEY (V/m) @ t=0.86
0
% es.tEZ (V/m) @ t=0.86
22.25710020620687
% es.Ex (V/m) @ t=0.86
-23.14180496179503
% es.Ey (V/m) @ t=0.86
18.56688962887832
% es.Ez (V/m) @ t=0.86
22.25710020620688
% es.tEx (V/m) @ t=0.86
-23.14180496179501
% es.tEy (V/m) @ t=0.86
0
% es.tEz (V/m) @ t=0.86
22.25710020620687
% V (V) @ t=0.86
0.015379214664135086
% es.normE (V/m) @ t=0.88
49.66817319202204
% es.EX (V/m) @ t=0.88
-23.456192843931362
% es.EY (V/m) @ t=0.88
18.819125273656645
% es.EZ (V/m) @ t=0.88
22.559454407808133
% es.tEX (V/m) @ t=0.88
-23.456192843931362
% es.tEY (V/m) @ t=0.88
0
% es.tEZ (V/m) @ t=0.88
22.55945440780812
% es.Ex (V/m) @ t=0.88
-23.456192843931362
% es.Ey (V/m) @ t=0.88
18.819125273656645
% es.Ez (V/m) @ t=0.88
22.559454407808133
% es.tEx (V/m) @ t=0.88
-23.456192843931362
% es.tEy (V/m) @ t=0.88
0
% es.tEz (V/m) @ t=0.88
22.55945440780812
% V (V) @ t=0.88
0.015588142093046098
% es.normE (V/m) @ t=0.9
50.34087182726708
% es.EX (V/m) @ t=0.9
-23.7738861187334
% es.EY (V/m) @ t=0.9
19.074012771579817
% es.EZ (V/m) @ t=0.9
22.86498574405759
% es.tEX (V/m) @ t=0.9
-23.773886118733415
% es.tEY (V/m) @ t=0.9
0
% es.tEZ (V/m) @ t=0.9
22.864985744057606
% es.Ex (V/m) @ t=0.9
-23.7738861187334
% es.Ey (V/m) @ t=0.9
19.074012771579817
% es.Ez (V/m) @ t=0.9
22.86498574405759
% es.tEx (V/m) @ t=0.9
-23.773886118733415
% es.tEy (V/m) @ t=0.9
0
% es.tEz (V/m) @ t=0.9
22.864985744057606
% V (V) @ t=0.9
0.015799265717701273
% es.normE (V/m) @ t=0.92
51.02056813419661
% es.EX (V/m) @ t=0.92
-24.094884786201547
% es.EY (V/m) @ t=0.92
19.3315521226479
% es.EZ (V/m) @ t=0.92
23.173694214955297
% es.tEX (V/m) @ t=0.92
-24.094884786201547
% es.tEY (V/m) @ t=0.92
0
% es.tEZ (V/m) @ t=0.92
23.173694214955276
% es.Ex (V/m) @ t=0.92
-24.094884786201547
% es.Ey (V/m) @ t=0.92
19.3315521226479
% es.Ez (V/m) @ t=0.92
23.173694214955297
% es.tEx (V/m) @ t=0.92
-24.094884786201547
% es.tEy (V/m) @ t=0.92
0
% es.tEz (V/m) @ t=0.92
23.173694214955276
% V (V) @ t=0.92
0.016012585538100622
% es.normE (V/m) @ t=0.94
51.707262112811506
% es.EX (V/m) @ t=0.94
-24.419188846335558
% es.EY (V/m) @ t=0.94
19.591743326860914
% es.EZ (V/m) @ t=0.94
23.485579820501215
% es.tEX (V/m) @ t=0.94
-24.4191888463356
% es.tEY (V/m) @ t=0.94
0
% es.tEZ (V/m) @ t=0.94
23.485579820501243
% es.Ex (V/m) @ t=0.94
-24.419188846335558
% es.Ey (V/m) @ t=0.94
19.591743326860914
% es.Ez (V/m) @ t=0.94
23.485579820501215
% es.tEx (V/m) @ t=0.94
-24.4191888463356
% es.tEy (V/m) @ t=0.94
0
% es.tEz (V/m) @ t=0.94
23.485579820501243
% V (V) @ t=0.94
0.01622810155424414
% es.normE (V/m) @ t=0.96
52.40095376311287
% es.EX (V/m) @ t=0.96
-24.746798299135477
% es.EY (V/m) @ t=0.96
19.854586384218848
% es.EZ (V/m) @ t=0.96
23.80064256069535
% es.tEX (V/m) @ t=0.96
-24.746798299135456
% es.tEY (V/m) @ t=0.96
0
% es.tEZ (V/m) @ t=0.96
23.80064256069528
% es.Ex (V/m) @ t=0.96
-24.746798299135477
% es.Ey (V/m) @ t=0.96
19.854586384218848
% es.Ez (V/m) @ t=0.96
23.80064256069535
% es.tEx (V/m) @ t=0.96
-24.746798299135456
% es.tEy (V/m) @ t=0.96
0
% es.tEz (V/m) @ t=0.96
23.80064256069528
% V (V) @ t=0.96
0.016445813766131818
% es.normE (V/m) @ t=0.98
53.10164308510208
% es.EX (V/m) @ t=0.98
-25.07771314460139
% es.EY (V/m) @ t=0.98
20.120081294721757
% es.EZ (V/m) @ t=0.98
24.118882435537834
% es.tEX (V/m) @ t=0.98
-25.07771314460139
% es.tEY (V/m) @ t=0.98
0
% es.tEZ (V/m) @ t=0.98
24.11888243553784
% es.Ex (V/m) @ t=0.98
-25.07771314460139
% es.Ey (V/m) @ t=0.98
20.120081294721757
% es.Ez (V/m) @ t=0.98
24.118882435537834
% es.tEx (V/m) @ t=0.98
-25.07771314460139
% es.tEy (V/m) @ t=0.98
0
% es.tEz (V/m) @ t=0.98
24.11888243553784
% V (V) @ t=0.98
0.01666572217376367
% es.normE (V/m) @ t=1
53.80933007878026
% es.EX (V/m) @ t=1
-25.41193338273314
% es.EY (V/m) @ t=1
20.388228058369563
% es.EZ (V/m) @ t=1
24.440299445028465
% es.tEX (V/m) @ t=1
-25.411933382733125
% es.tEY (V/m) @ t=1
0
% es.tEZ (V/m) @ t=1
24.440299445028472
% es.Ex (V/m) @ t=1
-25.41193338273314
% es.Ey (V/m) @ t=1
20.388228058369563
% es.Ez (V/m) @ t=1
24.440299445028465
% es.tEx (V/m) @ t=1
-25.411933382733125
% es.tEy (V/m) @ t=1
0
% es.tEz (V/m) @ t=1
24.440299445028472
% V (V) @ t=1
0.01688782677713969
% es.normE (V/m) @ t=1.02
54.524014744148545
% es.EX (V/m) @ t=1.02
-25.749459013530796
% es.EY (V/m) @ t=1.02
20.659026675162245
% es.EZ (V/m) @ t=1.02
24.76489358916725
% es.tEX (V/m) @ t=1.02
-25.74945901353081
% es.tEY (V/m) @ t=1.02
0
% es.tEZ (V/m) @ t=1.02
24.764893589167286
% es.Ex (V/m) @ t=1.02
-25.749459013530796
% es.Ey (V/m) @ t=1.02
20.659026675162245
% es.Ez (V/m) @ t=1.02
24.76489358916725
% es.tEx (V/m) @ t=1.02
-25.74945901353081
% es.tEy (V/m) @ t=1.02
0
% es.tEz (V/m) @ t=1.02
24.764893589167286
% V (V) @ t=1.02
0.017112127576259878
% es.normE (V/m) @ t=1.04
55.24569708120858
% es.EX (V/m) @ t=1.04
-26.090290036994404
% es.EY (V/m) @ t=1.04
20.93247714509996
% es.EZ (V/m) @ t=1.04
25.09266486795437
% es.tEX (V/m) @ t=1.04
-26.090290036994332
% es.tEY (V/m) @ t=1.04
0
% es.tEZ (V/m) @ t=1.04
25.092664867954397
% es.Ex (V/m) @ t=1.04
-26.090290036994404
% es.Ey (V/m) @ t=1.04
20.93247714509996
% es.Ez (V/m) @ t=1.04
25.09266486795437