% Model:              1 neuron.mph
% Version:            COMSOL 6.0.0.405
% Date:               Mar 16 2023, 18:47
% Dimension:          0
% Nodes:              14017
% Expressions:        14017
% Description:        Electric field norm, Electric field, X component, Electric field, Y component, Electric field, Z component, Tangential electric field, X component, Tangential electric field, Y component, Tangential electric field, Z component, Electric field, x component, Electric field, y component, Electric field, z component, Tangential electric field, x component, Tangential electric field, y component, Tangential electric field, z component, Electric potential
% Length unit:        mm
% x
1
% y
12.2
% z
1.6599999999999997
% es.normE (V/m) @ t=0
2.4382979687616055
% es.EX (V/m) @ t=0
2.182787222670255
% es.EY (V/m) @ t=0
0.08398427085736171
% es.EZ (V/m) @ t=0
-1.0833667369889999
% es.tEX (V/m) @ t=0
2.182787222670264
% es.tEY (V/m) @ t=0
0
% es.tEZ (V/m) @ t=0
-1.0833667369889923
% es.Ex (V/m) @ t=0
2.182787222670255
% es.Ey (V/m) @ t=0
0.08398427085736171
% es.Ez (V/m) @ t=0
-1.0833667369889999
% es.tEx (V/m) @ t=0
2.182787222670264
% es.tEy (V/m) @ t=0
0
% es.tEz (V/m) @ t=0
-1.0833667369889923
% V (V) @ t=0
0.011062526364639022
% es.normE (V/m) @ t=0.02
2.11767808439581
% es.EX (V/m) @ t=0.02
1.8957652962721903
% es.EY (V/m) @ t=0.02
0.07294092080579825
% es.EZ (V/m) @ t=0.02
-0.9409112455287673
% es.tEX (V/m) @ t=0.02
1.895765296272188
% es.tEY (V/m) @ t=0.02
0
% es.tEZ (V/m) @ t=0.02
-0.9409112455287598
% es.Ex (V/m) @ t=0.02
1.8957652962721903
% es.Ey (V/m) @ t=0.02
0.07294092080579825
% es.Ez (V/m) @ t=0.02
-0.9409112455287673
% es.tEx (V/m) @ t=0.02
1.895765296272188
% es.tEy (V/m) @ t=0.02
0
% es.tEz (V/m) @ t=0.02
-0.9409112455287598
% V (V) @ t=0.02
0.009607877752607024
% es.normE (V/m) @ t=0.04
2.1490750663497984
% es.EX (V/m) @ t=0.04
1.9238721817706832
% es.EY (V/m) @ t=0.04
0.07402244404372849
% es.EZ (V/m) @ t=0.04
-0.9548612905853198
% es.tEX (V/m) @ t=0.04
1.9238721817706752
% es.tEY (V/m) @ t=0.04
0
% es.tEZ (V/m) @ t=0.04
-0.9548612905853204
% es.Ex (V/m) @ t=0.04
1.9238721817706832
% es.Ey (V/m) @ t=0.04
0.07402244404372849
% es.Ez (V/m) @ t=0.04
-0.9548612905853198
% es.tEx (V/m) @ t=0.04
1.9238721817706752
% es.tEy (V/m) @ t=0.04
0
% es.tEz (V/m) @ t=0.04
-0.9548612905853204
% V (V) @ t=0.04
0.009750323905822946
% es.normE (V/m) @ t=0.06
2.1809505733261183
% es.EX (V/m) @ t=0.06
1.9524074505737141
% es.EY (V/m) @ t=0.06
0.0751204733261325
% es.EZ (V/m) @ t=0.06
-0.9690239420565365
% es.tEX (V/m) @ t=0.06
1.9524074505737188
% es.tEY (V/m) @ t=0.06
0
% es.tEZ (V/m) @ t=0.06
-0.9690239420565305
% es.Ex (V/m) @ t=0.06
1.9524074505737141
% es.Ey (V/m) @ t=0.06
0.0751204733261325
% es.Ez (V/m) @ t=0.06
-0.9690239420565365
% es.tEx (V/m) @ t=0.06
1.9524074505737188
% es.tEy (V/m) @ t=0.06
0
% es.tEz (V/m) @ t=0.06
-0.9690239420565305
% V (V) @ t=0.06
0.009894940719370991
% es.normE (V/m) @ t=0.08
2.2136212813943263
% es.EX (V/m) @ t=0.08
1.98165458836314
% es.EY (V/m) @ t=0.08
0.07624587426559751
% es.EZ (V/m) @ t=0.08
-0.9835399178961444
% es.tEX (V/m) @ t=0.08
1.9816545883631331
% es.tEY (V/m) @ t=0.08
0
% es.tEZ (V/m) @ t=0.08
-0.983539917896131
% es.Ex (V/m) @ t=0.08
1.98165458836314
% es.Ey (V/m) @ t=0.08
0.07624587426559751
% es.Ez (V/m) @ t=0.08
-0.9835399178961444
% es.tEx (V/m) @ t=0.08
1.9816545883631331
% es.tEy (V/m) @ t=0.08
0
% es.tEz (V/m) @ t=0.08
-0.983539917896131
% V (V) @ t=0.08
0.01004316565530848
% es.normE (V/m) @ t=0.1
2.2468837351144257
% es.EX (V/m) @ t=0.1
2.0114314605577457
% es.EY (V/m) @ t=0.1
0.07739164371218041
% es.EZ (V/m) @ t=0.1
-0.9983188186246199
% es.tEX (V/m) @ t=0.1
2.0114314605577404
% es.tEY (V/m) @ t=0.1
0
% es.tEZ (V/m) @ t=0.1
-0.998318818624611
% es.Ex (V/m) @ t=0.1
2.0114314605577457
% es.Ey (V/m) @ t=0.1
0.07739164371218041
% es.Ez (V/m) @ t=0.1
-0.9983188186246199
% es.tEx (V/m) @ t=0.1
2.0114314605577404
% es.tEy (V/m) @ t=0.1
0
% es.tEz (V/m) @ t=0.1
-0.998318818624611
% V (V) @ t=0.1
0.010194075560818014
% es.normE (V/m) @ t=0.12
2.280146188834525
% es.EX (V/m) @ t=0.12
2.041208332752355
% es.EY (V/m) @ t=0.12
0.07853741315873666
% es.EZ (V/m) @ t=0.12
-1.0130977193530812
% es.tEX (V/m) @ t=0.12
2.0412083327523565
% es.tEY (V/m) @ t=0.12
0
% es.tEZ (V/m) @ t=0.12
-1.0130977193530626
% es.Ex (V/m) @ t=0.12
2.041208332752355
% es.Ey (V/m) @ t=0.12
0.07853741315873666
% es.Ez (V/m) @ t=0.12
-1.0130977193530812
% es.tEx (V/m) @ t=0.12
2.0412083327523565
% es.tEy (V/m) @ t=0.12
0
% es.tEz (V/m) @ t=0.12
-1.0130977193530626
% V (V) @ t=0.12
0.010344985466327542
% es.normE (V/m) @ t=0.14
2.3138798784932457
% es.EX (V/m) @ t=0.14
2.071407059100256
% es.EY (V/m) @ t=0.14
0.07969940863043315
% es.EZ (V/m) @ t=0.14
-1.0280859979617716
% es.tEX (V/m) @ t=0.14
2.0714070591002605
% es.tEY (V/m) @ t=0.14
0
% es.tEZ (V/m) @ t=0.14
-1.0280859979617674
% es.Ex (V/m) @ t=0.14
2.071407059100256
% es.Ey (V/m) @ t=0.14
0.07969940863043315
% es.Ez (V/m) @ t=0.14
-1.0280859979617716
% es.tEx (V/m) @ t=0.14
2.0714070591002605
% es.tEy (V/m) @ t=0.14
0
% es.tEz (V/m) @ t=0.14
-1.0280859979617674
% V (V) @ t=0.14
0.010498033449971338
% es.normE (V/m) @ t=0.16
2.3501495287065186
% es.EX (V/m) @ t=0.16
2.1038759974690526
% es.EY (V/m) @ t=0.16
0.08094872460611657
% es.EZ (V/m) @ t=0.16
-1.0442010455660735
% es.tEX (V/m) @ t=0.16
2.1038759974690544
% es.tEY (V/m) @ t=0.16
0
% es.tEZ (V/m) @ t=0.16
-1.0442010455660693
% es.Ex (V/m) @ t=0.16
2.1038759974690526
% es.Ey (V/m) @ t=0.16
0.08094872460611657
% es.Ez (V/m) @ t=0.16
-1.0442010455660735
% es.tEx (V/m) @ t=0.16
2.1038759974690544
% es.tEy (V/m) @ t=0.16
0
% es.tEz (V/m) @ t=0.16
-1.0442010455660693
% V (V) @ t=0.16
0.010662587520835768
% es.normE (V/m) @ t=0.18
2.386419178919804
% es.EX (V/m) @ t=0.18
2.136344935837856
% es.EY (V/m) @ t=0.18
0.08219804058180796
% es.EZ (V/m) @ t=0.18
-1.0603160931703863
% es.tEX (V/m) @ t=0.18
2.1363449358378555
% es.tEY (V/m) @ t=0.18
0
% es.tEZ (V/m) @ t=0.18
-1.0603160931703854
% es.Ex (V/m) @ t=0.18
2.136344935837856
% es.Ey (V/m) @ t=0.18
0.08219804058180796
% es.Ez (V/m) @ t=0.18
-1.0603160931703863
% es.tEx (V/m) @ t=0.18
2.1363449358378555
% es.tEy (V/m) @ t=0.18
0
% es.tEz (V/m) @ t=0.18
-1.0603160931703854
% V (V) @ t=0.18
0.0108271415917002
% es.normE (V/m) @ t=0.2
2.4226888291330946
% es.EX (V/m) @ t=0.2
2.1688138742066623
% es.EY (V/m) @ t=0.2
0.08344735655750735
% es.EZ (V/m) @ t=0.2
-1.0764311407747025
% es.tEX (V/m) @ t=0.2
2.168813874206662
% es.tEY (V/m) @ t=0.2
0
% es.tEZ (V/m) @ t=0.2
-1.0764311407746945
% es.Ex (V/m) @ t=0.2
2.1688138742066623
% es.Ey (V/m) @ t=0.2
0.08344735655750735
% es.Ez (V/m) @ t=0.2
-1.0764311407747025
% es.tEx (V/m) @ t=0.2
2.168813874206662
% es.tEy (V/m) @ t=0.2
0
% es.tEz (V/m) @ t=0.2
-1.0764311407746945
% V (V) @ t=0.2
0.010991695662564631
% es.normE (V/m) @ t=0.22
2.458958479346377
% es.EX (V/m) @ t=0.22
2.2012828125754624
% es.EY (V/m) @ t=0.22
0.08469667253318097
% es.EZ (V/m) @ t=0.22
-1.0925461883790115
% es.tEX (V/m) @ t=0.22
2.201282812575463
% es.tEY (V/m) @ t=0.22
0
% es.tEZ (V/m) @ t=0.22
-1.0925461883790106
% es.Ex (V/m) @ t=0.22
2.2012828125754624
% es.Ey (V/m) @ t=0.22
0.08469667253318097
% es.Ez (V/m) @ t=0.22
-1.0925461883790115
% es.tEx (V/m) @ t=0.22
2.201282812575463
% es.tEy (V/m) @ t=0.22
0
% es.tEz (V/m) @ t=0.22
-1.0925461883790106
% V (V) @ t=0.22
0.01115624973342906
% es.normE (V/m) @ t=0.24
2.4952281295596572
% es.EX (V/m) @ t=0.24
2.2337517509442626
% es.EY (V/m) @ t=0.24
0.08594598850890256
% es.EZ (V/m) @ t=0.24
-1.10866123598331
% es.tEX (V/m) @ t=0.24
2.2337517509442577
% es.tEY (V/m) @ t=0.24
0
% es.tEZ (V/m) @ t=0.24
-1.1086612359832984
% es.Ex (V/m) @ t=0.24
2.2337517509442626
% es.Ey (V/m) @ t=0.24
0.08594598850890256
% es.Ez (V/m) @ t=0.24
-1.10866123598331
% es.tEx (V/m) @ t=0.24
2.2337517509442577
% es.tEy (V/m) @ t=0.24
0
% es.tEz (V/m) @ t=0.24
-1.1086612359832984
% V (V) @ t=0.24
0.01132080380429349
% es.normE (V/m) @ t=0.26
2.53149777977296
% es.EX (V/m) @ t=0.26
2.26622068931308
% es.EY (V/m) @ t=0.26
0.0871953044845904
% es.EZ (V/m) @ t=0.26
-1.1247762835876225
% es.tEX (V/m) @ t=0.26
2.26622068931308
% es.tEY (V/m) @ t=0.26
0
% es.tEZ (V/m) @ t=0.26
-1.1247762835876145
% es.Ex (V/m) @ t=0.26
2.26622068931308
% es.Ey (V/m) @ t=0.26
0.0871953044845904
% es.Ez (V/m) @ t=0.26
-1.1247762835876225
% es.tEx (V/m) @ t=0.26
2.26622068931308
% es.tEy (V/m) @ t=0.26
0
% es.tEz (V/m) @ t=0.26
-1.1247762835876145
% V (V) @ t=0.26
0.011485357875157925
% es.normE (V/m) @ t=0.28
2.5688174158117585
% es.EX (V/m) @ t=0.28
2.299629597027476
% es.EY (V/m) @ t=0.28
0.08848087407497995
% es.EZ (V/m) @ t=0.28
-1.1413578218320255
% es.tEX (V/m) @ t=0.28
2.299629597027475
% es.tEY (V/m) @ t=0.28
0
% es.tEZ (V/m) @ t=0.28
-1.1413578218320097
% es.Ex (V/m) @ t=0.28
2.299629597027476
% es.Ey (V/m) @ t=0.28
0.08848087407497995
% es.Ez (V/m) @ t=0.28
-1.1413578218320255
% es.tEx (V/m) @ t=0.28
2.299629597027475
% es.tEy (V/m) @ t=0.28
0
% es.tEz (V/m) @ t=0.28
-1.1413578218320097
% V (V) @ t=0.28
0.0116546742283664
% es.normE (V/m) @ t=0.3
2.6083336230110508
% es.EX (V/m) @ t=0.3
2.335004921341109
% es.EY (V/m) @ t=0.3
0.08984228625538737
% es.EZ (V/m) @ t=0.3
-1.1589152588569078
% es.tEX (V/m) @ t=0.3
2.335004921341108
% es.tEY (V/m) @ t=0.3
0
% es.tEZ (V/m) @ t=0.3
-1.1589152588569007
% es.Ex (V/m) @ t=0.3
2.335004921341109
% es.Ey (V/m) @ t=0.3
0.08984228625538737
% es.Ez (V/m) @ t=0.3
-1.1589152588569078
% es.tEx (V/m) @ t=0.3
2.335004921341108
% es.tEy (V/m) @ t=0.3
0
% es.tEz (V/m) @ t=0.3
-1.1589152588569007
% V (V) @ t=0.3
0.01183395327992826
% es.normE (V/m) @ t=0.32
2.6478498302104283
% es.EX (V/m) @ t=0.32
2.3703802456547596
% es.EY (V/m) @ t=0.32
0.09120369843581794
% es.EZ (V/m) @ t=0.32
-1.1764726958818117
% es.tEX (V/m) @ t=0.32
2.370380245654756
% es.tEY (V/m) @ t=0.32
0
% es.tEZ (V/m) @ t=0.32
-1.176472695881806
% es.Ex (V/m) @ t=0.32
2.3703802456547596
% es.Ey (V/m) @ t=0.32
0.09120369843581794
% es.Ez (V/m) @ t=0.32
-1.1764726958818117
% es.tEx (V/m) @ t=0.32
2.370380245654756
% es.tEy (V/m) @ t=0.32
0
% es.tEz (V/m) @ t=0.32
-1.176472695881806
% V (V) @ t=0.32
0.012013232331490119
% es.normE (V/m) @ t=0.34
2.687366037409851
% es.EX (V/m) @ t=0.34
2.4057555699683997
% es.EY (V/m) @ t=0.34
0.0925651106162591
% es.EZ (V/m) @ t=0.34
-1.1940301329067156
% es.tEX (V/m) @ t=0.34
2.405755569968397
% es.tEY (V/m) @ t=0.34
0
% es.tEZ (V/m) @ t=0.34
-1.194030132906697
% es.Ex (V/m) @ t=0.34
2.4057555699683997
% es.Ey (V/m) @ t=0.34
0.0925651106162591
% es.Ez (V/m) @ t=0.34
-1.1940301329067156
% es.tEx (V/m) @ t=0.34
2.405755569968397
% es.tEy (V/m) @ t=0.34
0
% es.tEz (V/m) @ t=0.34
-1.194030132906697
% V (V) @ t=0.34
0.012192511383051977
% es.normE (V/m) @ t=0.36
2.7268822446093193
% es.EX (V/m) @ t=0.36
2.4411308942820367
% es.EY (V/m) @ t=0.36
0.09392652279666747
% es.EZ (V/m) @ t=0.36
-1.211587569931612
% es.tEX (V/m) @ t=0.36
2.441130894282031
% es.tEY (V/m) @ t=0.36
0
% es.tEZ (V/m) @ t=0.36
-1.211587569931595
% es.Ex (V/m) @ t=0.36
2.4411308942820367
% es.Ey (V/m) @ t=0.36
0.09392652279666747
% es.Ez (V/m) @ t=0.36
-1.211587569931612
% es.tEx (V/m) @ t=0.36
2.441130894282031
% es.tEy (V/m) @ t=0.36
0
% es.tEz (V/m) @ t=0.36
-1.211587569931595
% V (V) @ t=0.36
0.012371790434613833
% es.normE (V/m) @ t=0.38
2.766398451808843
% es.EX (V/m) @ t=0.38
2.4765062185956808
% es.EY (V/m) @ t=0.38
0.09528793497708465
% es.EZ (V/m) @ t=0.38
-1.229145006956505
% es.tEX (V/m) @ t=0.38
2.476506218595679
% es.tEY (V/m) @ t=0.38
0
% es.tEZ (V/m) @ t=0.38
-1.2291450069565144
% es.Ex (V/m) @ t=0.38
2.4765062185956808
% es.Ey (V/m) @ t=0.38
0.09528793497708465
% es.Ez (V/m) @ t=0.38
-1.229145006956505
% es.tEx (V/m) @ t=0.38
2.476506218595679
% es.tEy (V/m) @ t=0.38
0
% es.tEz (V/m) @ t=0.38
-1.2291450069565144
% V (V) @ t=0.38
0.01255106948617569
% es.normE (V/m) @ t=0.4
2.805914659008427
% es.EX (V/m) @ t=0.4
2.5118815429093315
% es.EY (V/m) @ t=0.4
0.096649347157509
% es.EZ (V/m) @ t=0.4
-1.246702443981409
% es.tEX (V/m) @ t=0.4
2.511881542909326
% es.tEY (V/m) @ t=0.4
0
% es.tEZ (V/m) @ t=0.4
-1.2467024439814054
% es.Ex (V/m) @ t=0.4
2.5118815429093315
% es.Ey (V/m) @ t=0.4
0.096649347157509
% es.Ez (V/m) @ t=0.4
-1.246702443981409
% es.tEx (V/m) @ t=0.4
2.511881542909326
% es.tEy (V/m) @ t=0.4
0
% es.tEz (V/m) @ t=0.4
-1.2467024439814054
% V (V) @ t=0.4
0.012730348537737548
% es.normE (V/m) @ t=0.42
2.847142924861767
% es.EX (V/m) @ t=0.42
2.5487895167447245
% es.EY (V/m) @ t=0.42
0.09806971919997792
% es.EZ (V/m) @ t=0.42
-1.2650205740950051
% es.tEX (V/m) @ t=0.42
2.5487895167447148
% es.tEY (V/m) @ t=0.42
0
% es.tEZ (V/m) @ t=0.42
-1.26502057409499
% es.Ex (V/m) @ t=0.42
2.5487895167447245
% es.Ey (V/m) @ t=0.42
0.09806971919997792
% es.Ez (V/m) @ t=0.42
-1.2650205740950051
% es.tEx (V/m) @ t=0.42
2.5487895167447148
% es.tEy (V/m) @ t=0.42
0
% es.tEz (V/m) @ t=0.42
-1.26502057409499
% V (V) @ t=0.42
0.012917395347165838
% es.normE (V/m) @ t=0.44
2.8901522195034284
% es.EX (V/m) @ t=0.44
2.5872918827550886
% es.EY (V/m) @ t=0.44
0.09955142629741776
% es.EZ (V/m) @ t=0.44
-1.2841300417524886
% es.tEX (V/m) @ t=0.44
2.5872918827550873
% es.tEY (V/m) @ t=0.44
0
% es.tEZ (V/m) @ t=0.44
-1.2841300417524977
% es.Ex (V/m) @ t=0.44
2.5872918827550886
% es.Ey (V/m) @ t=0.44
0.09955142629741776
% es.Ez (V/m) @ t=0.44
-1.2841300417524886
% es.tEx (V/m) @ t=0.44
2.5872918827550873
% es.tEy (V/m) @ t=0.44
0
% es.tEz (V/m) @ t=0.44
-1.2841300417524977
% V (V) @ t=0.44
0.01311252283791337
% es.normE (V/m) @ t=0.46
2.933161514145139
% es.EX (V/m) @ t=0.46
2.6257942487654704
% es.EY (V/m) @ t=0.46
0.10103313339488779
% es.EZ (V/m) @ t=0.46
-1.303239509409965
% es.tEX (V/m) @ t=0.46
2.6257942487654757
% es.tEY (V/m) @ t=0.46
0
% es.tEZ (V/m) @ t=0.46
-1.3032395094099627
% es.Ex (V/m) @ t=0.46
2.6257942487654704
% es.Ey (V/m) @ t=0.46
0.10103313339488779
% es.Ez (V/m) @ t=0.46
-1.303239509409965
% es.tEx (V/m) @ t=0.46
2.6257942487654757
% es.tEy (V/m) @ t=0.46
0
% es.tEz (V/m) @ t=0.46
-1.3032395094099627
% V (V) @ t=0.46
0.013307650328660901
% es.normE (V/m) @ t=0.48
2.976170808786863
% es.EX (V/m) @ t=0.48
2.664296614775835
% es.EY (V/m) @ t=0.48
0.10251484049232668
% es.EZ (V/m) @ t=0.48
-1.3223489770674308
% es.tEX (V/m) @ t=0.48
2.6642966147758296
% es.tEY (V/m) @ t=0.48
0
% es.tEZ (V/m) @ t=0.48
-1.3223489770674206
% es.Ex (V/m) @ t=0.48
2.664296614775835
% es.Ey (V/m) @ t=0.48
0.10251484049232668
% es.Ez (V/m) @ t=0.48
-1.3223489770674308
% es.tEx (V/m) @ t=0.48
2.6642966147758296
% es.tEy (V/m) @ t=0.48
0
% es.tEz (V/m) @ t=0.48
-1.3223489770674206
% V (V) @ t=0.48
0.013502777819408434
% es.normE (V/m) @ t=0.5
3.019180103428649
% es.EX (V/m) @ t=0.5
2.702798980786217
% es.EY (V/m) @ t=0.5
0.10399654758978871
% es.EZ (V/m) @ t=0.5
-1.3414584447249285
% es.tEX (V/m) @ t=0.5
2.702798980786217
% es.tEY (V/m) @ t=0.5
0
% es.tEZ (V/m) @ t=0.5
-1.3414584447249212
% es.Ex (V/m) @ t=0.5
2.702798980786217
% es.Ey (V/m) @ t=0.5
0.10399654758978871
% es.Ez (V/m) @ t=0.5
-1.3414584447249285
% es.tEx (V/m) @ t=0.5
2.702798980786217
% es.tEy (V/m) @ t=0.5
0
% es.tEz (V/m) @ t=0.5
-1.3414584447249212
% V (V) @ t=0.5
0.013697905310155967
% es.normE (V/m) @ t=0.52
3.062189398070449
% es.EX (V/m) @ t=0.52
2.7413013467965994
% es.EY (V/m) @ t=0.52
0.10547825468723032
% es.EZ (V/m) @ t=0.52
-1.360567912382387
% es.tEX (V/m) @ t=0.52
2.7413013467965905
% es.tEY (V/m) @ t=0.52
0
% es.tEZ (V/m) @ t=0.52
-1.3605679123823862
% es.Ex (V/m) @ t=0.52
2.7413013467965994
% es.Ey (V/m) @ t=0.52
0.10547825468723032
% es.Ez (V/m) @ t=0.52
-1.360567912382387
% es.tEx (V/m) @ t=0.52
2.7413013467965905
% es.tEy (V/m) @ t=0.52
0
% es.tEz (V/m) @ t=0.52
-1.3605679123823862
% V (V) @ t=0.52
0.013893032800903501
% es.normE (V/m) @ t=0.54
3.1051986927122766
% es.EX (V/m) @ t=0.54
2.7798037128069635
% es.EY (V/m) @ t=0.54
0.10695996178465855
% es.EZ (V/m) @ t=0.54
-1.3796773800398778
% es.tEX (V/m) @ t=0.54
2.779803712806965
% es.tEY (V/m) @ t=0.54
0
% es.tEZ (V/m) @ t=0.54
-1.3796773800398654
% es.Ex (V/m) @ t=0.54
2.7798037128069635
% es.Ey (V/m) @ t=0.54
0.10695996178465855
% es.Ez (V/m) @ t=0.54
-1.3796773800398778
% es.tEx (V/m) @ t=0.54
2.779803712806965
% es.tEy (V/m) @ t=0.54
0
% es.tEz (V/m) @ t=0.54
-1.3796773800398654
% V (V) @ t=0.54
0.014088160291651032
% es.normE (V/m) @ t=0.56
3.1492690520982904
% es.EX (V/m) @ t=0.56
2.8192560485294536
% es.EY (V/m) @ t=0.56
0.10847889589292964
% es.EZ (V/m) @ t=0.56
-1.399258048801253
% es.tEX (V/m) @ t=0.56
2.819256048529443
% es.tEY (V/m) @ t=0.56
0
% es.tEZ (V/m) @ t=0.56
-1.3992580488012365
% es.Ex (V/m) @ t=0.56
2.8192560485294536
% es.Ey (V/m) @ t=0.56
0.10847889589292964
% es.Ez (V/m) @ t=0.56
-1.399258048801253
% es.tEx (V/m) @ t=0.56
2.819256048529443
% es.tEy (V/m) @ t=0.56
0
% es.tEz (V/m) @ t=0.56
-1.3992580488012365
% V (V) @ t=0.56
0.0142880903137577
% es.normE (V/m) @ t=0.58
3.194251088215678
% es.EX (V/m) @ t=0.58
2.8595246070941367
% es.EY (V/m) @ t=0.58
0.11002981579622095
% es.EZ (V/m) @ t=0.58
-1.4192435779485315
% es.tEX (V/m) @ t=0.58
2.8595246070941105
% es.tEY (V/m) @ t=0.58
0
% es.tEZ (V/m) @ t=0.58
-1.4192435779485209
% es.Ex (V/m) @ t=0.58
2.8595246070941367
% es.Ey (V/m) @ t=0.58
0.11002981579622095
% es.Ez (V/m) @ t=0.58
-1.4192435779485315
% es.tEx (V/m) @ t=0.58
2.8595246070941105
% es.tEy (V/m) @ t=0.58
0
% es.tEz (V/m) @ t=0.58
-1.4192435779485209
% V (V) @ t=0.58
0.014492146715627784
% es.normE (V/m) @ t=0.6
3.2396644676040323
% es.EX (V/m) @ t=0.6
2.9001793466564436
% es.EY (V/m) @ t=0.6
0.11159586919696646
% es.EZ (V/m) @ t=0.6
-1.4394206594264554
% es.tEX (V/m) @ t=0.6
2.9001793466564383
% es.tEY (V/m) @ t=0.6
0
% es.tEZ (V/m) @ t=0.6
-1.439420659426446
% es.Ex (V/m) @ t=0.6
2.9001793466564436
% es.Ey (V/m) @ t=0.6
0.11159586919696646
% es.Ez (V/m) @ t=0.6
-1.4394206594264554
% es.tEx (V/m) @ t=0.6
2.9001793466564383
% es.tEy (V/m) @ t=0.6
0
% es.tEz (V/m) @ t=0.6
-1.439420659426446
% V (V) @ t=0.6
0.014698155439059024
% es.normE (V/m) @ t=0.62
3.285509190264004
% es.EX (V/m) @ t=0.62
2.9412202672163685
% es.EY (V/m) @ t=0.62
0.11317705609507633
% es.EZ (V/m) @ t=0.62
-1.4597892932350214
% es.tEX (V/m) @ t=0.62
2.941220267216373
% es.tEY (V/m) @ t=0.62
0
% es.tEZ (V/m) @ t=0.62
-1.459789293235005
% es.Ex (V/m) @ t=0.62
2.9412202672163685
% es.Ey (V/m) @ t=0.62
0.11317705609507633
% es.Ez (V/m) @ t=0.62
-1.4597892932350214
% es.tEx (V/m) @ t=0.62
2.941220267216373
% es.tEy (V/m) @ t=0.62
0
% es.tEz (V/m) @ t=0.62
-1.459789293235005
% V (V) @ t=0.62
0.014906116484051423
% es.normE (V/m) @ t=0.64
3.3317852561963184
% es.EX (V/m) @ t=0.64
2.9826473687739217
% es.EY (V/m) @ t=0.64
0.11477337649062441
% es.EZ (V/m) @ t=0.64
-1.4803494793741863
% es.tEX (V/m) @ t=0.64
2.9826473687739217
% es.tEY (V/m) @ t=0.64
0
% es.tEZ (V/m) @ t=0.64
-1.4803494793741692
% es.Ex (V/m) @ t=0.64
2.9826473687739217
% es.Ey (V/m) @ t=0.64
0.11477337649062441
% es.Ez (V/m) @ t=0.64
-1.4803494793741863
% es.tEx (V/m) @ t=0.64
2.9826473687739217
% es.tEy (V/m) @ t=0.64
0
% es.tEz (V/m) @ t=0.64
-1.4803494793741692
% V (V) @ t=0.64
0.015116029850604971
% es.normE (V/m) @ t=0.66
3.37849266540176
% es.EX (V/m) @ t=0.66
3.0244606513290835
% es.EY (V/m) @ t=0.66
0.11638483038352088
% es.EZ (V/m) @ t=0.66
-1.5011012178439505
% es.tEX (V/m) @ t=0.66
3.024460651329072
% es.tEY (V/m) @ t=0.66
0
% es.tEZ (V/m) @ t=0.66
-1.5011012178439458
% es.Ex (V/m) @ t=0.66
3.0244606513290835
% es.Ey (V/m) @ t=0.66
0.11638483038352088
% es.Ez (V/m) @ t=0.66
-1.5011012178439505
% es.tEx (V/m) @ t=0.66
3.024460651329072
% es.tEy (V/m) @ t=0.66
0
% es.tEz (V/m) @ t=0.66
-1.5011012178439458
% V (V) @ t=0.66
0.015327895538719678
% es.normE (V/m) @ t=0.68
3.425631417881232
% es.EX (V/m) @ t=0.68
3.0666601148818633
% es.EY (V/m) @ t=0.68
0.11801141777385904
% es.EZ (V/m) @ t=0.68
-1.522044508644378
% es.tEX (V/m) @ t=0.68
3.0666601148818593
% es.tEY (V/m) @ t=0.68
0
% es.tEZ (V/m) @ t=0.68
-1.5220445086443846
% es.Ex (V/m) @ t=0.68
3.0666601148818633
% es.Ey (V/m) @ t=0.68
0.11801141777385904
% es.Ez (V/m) @ t=0.68
-1.522044508644378
% es.tEx (V/m) @ t=0.68
3.0666601148818593
% es.tEy (V/m) @ t=0.68
0
% es.tEz (V/m) @ t=0.68
-1.5220445086443846
% V (V) @ t=0.68
0.015541713548395536
% es.normE (V/m) @ t=0.7
3.4732015136356424
% es.EX (V/m) @ t=0.7
3.1092457594322642
% es.EY (V/m) @ t=0.7
0.11965313866157223
% es.EZ (V/m) @ t=0.7
-1.5431793517754326
% es.tEX (V/m) @ t=0.7
3.1092457594322624
% es.tEY (V/m) @ t=0.7
0
% es.tEZ (V/m) @ t=0.7
-1.5431793517754357
% es.Ex (V/m) @ t=0.7
3.1092457594322642
% es.Ey (V/m) @ t=0.7
0.11965313866157223
% es.Ez (V/m) @ t=0.7
-1.5431793517754326
% es.tEx (V/m) @ t=0.7
3.1092457594322624
% es.tEy (V/m) @ t=0.7
0
% es.tEz (V/m) @ t=0.7
-1.5431793517754357
% V (V) @ t=0.7
0.01575748387963255
% es.normE (V/m) @ t=0.72
3.521202952665952
% es.EX (V/m) @ t=0.72
3.152217584980276
% es.EY (V/m) @ t=0.72
0.12130999304662687
% es.EZ (V/m) @ t=0.72
-1.5645057472371082
% es.tEX (V/m) @ t=0.72
3.152217584980276
% es.tEY (V/m) @ t=0.72
0
% es.tEZ (V/m) @ t=0.72
-1.5645057472370993
% es.Ex (V/m) @ t=0.72
3.152217584980276
% es.Ey (V/m) @ t=0.72
0.12130999304662687
% es.Ez (V/m) @ t=0.72
-1.5645057472371082
% es.tEx (V/m) @ t=0.72
3.152217584980276
% es.tEy (V/m) @ t=0.72
0
% es.tEz (V/m) @ t=0.72
-1.5645057472370993
% V (V) @ t=0.72
0.015975206532430716
% es.normE (V/m) @ t=0.74
3.56963573497318
% es.EX (V/m) @ t=0.74
3.195575591525907
% es.EY (V/m) @ t=0.74
0.12298198092910628
% es.EZ (V/m) @ t=0.74
-1.5860236950293722
% es.tEX (V/m) @ t=0.74
3.195575591525902
% es.tEY (V/m) @ t=0.74
0
% es.tEZ (V/m) @ t=0.74
-1.586023695029354
% es.Ex (V/m) @ t=0.74
3.195575591525907
% es.Ey (V/m) @ t=0.74
0.12298198092910628
% es.Ez (V/m) @ t=0.74
-1.5860236950293722
% es.tEx (V/m) @ t=0.74
3.195575591525902
% es.tEy (V/m) @ t=0.74
0
% es.tEz (V/m) @ t=0.74
-1.586023695029354
% V (V) @ t=0.74
0.01619488150679004
% es.normE (V/m) @ t=0.76
3.6184998605584306
% es.EX (V/m) @ t=0.76
3.2393197790691595
% es.EY (V/m) @ t=0.76
0.12466910230900785
% es.EZ (V/m) @ t=0.76
-1.60773319515231
% es.tEX (V/m) @ t=0.76
3.2393197790691577
% es.tEY (V/m) @ t=0.76
0
% es.tEZ (V/m) @ t=0.76
-1.6077331951522922
% es.Ex (V/m) @ t=0.76
3.2393197790691595
% es.Ey (V/m) @ t=0.76
0.12466910230900785
% es.Ez (V/m) @ t=0.76
-1.60773319515231
% es.tEx (V/m) @ t=0.76
3.2393197790691577
% es.tEy (V/m) @ t=0.76
0
% es.tEz (V/m) @ t=0.76
-1.6077331951522922
% V (V) @ t=0.76
0.016416508802710516
% es.normE (V/m) @ t=0.78
3.667795329422769
% es.EX (V/m) @ t=0.78
3.2834501476100293
% es.EY (V/m) @ t=0.78
0.12637135718631382
% es.EZ (V/m) @ t=0.78
-1.6296342476058399
% es.tEX (V/m) @ t=0.78
3.283450147610022
% es.tEY (V/m) @ t=0.78
0
% es.tEZ (V/m) @ t=0.78
-1.6296342476058356
% es.Ex (V/m) @ t=0.78
3.2834501476100293
% es.Ey (V/m) @ t=0.78
0.12637135718631382
% es.Ez (V/m) @ t=0.78
-1.6296342476058399
% es.tEx (V/m) @ t=0.78
3.283450147610022
% es.tEy (V/m) @ t=0.78
0
% es.tEz (V/m) @ t=0.78
-1.6296342476058356
% V (V) @ t=0.78
0.01664008842019215
% es.normE (V/m) @ t=0.8
3.7175221415673407
% es.EX (V/m) @ t=0.8
3.3279666971485016
% es.EY (V/m) @ t=0.8
0.12808874556096028
% es.EZ (V/m) @ t=0.8
-1.651726852390008
% es.tEX (V/m) @ t=0.8
3.327966697148508
% es.tEY (V/m) @ t=0.8
0
% es.tEZ (V/m) @ t=0.8
-1.6517268523899986
% es.Ex (V/m) @ t=0.8
3.3279666971485016
% es.Ey (V/m) @ t=0.8
0.12808874556096028
% es.Ez (V/m) @ t=0.8
-1.651726852390008
% es.tEx (V/m) @ t=0.8
3.327966697148508
% es.tEy (V/m) @ t=0.8
0
% es.tEz (V/m) @ t=0.8
-1.6517268523899986
% V (V) @ t=0.8
0.016865620359234935
% es.normE (V/m) @ t=0.82
3.767680296993347
% es.EX (V/m) @ t=0.82
3.3728694276846136
% es.EY (V/m) @ t=0.82
0.1298212674330732
% es.EZ (V/m) @ t=0.82
-1.6740110095047966
% es.tEX (V/m) @ t=0.82
3.372869427684604
% es.tEY (V/m) @ t=0.82
0
% es.tEZ (V/m) @ t=0.82
-1.6740110095047953
% es.Ex (V/m) @ t=0.82
3.3728694276846136
% es.Ey (V/m) @ t=0.82
0.1298212674330732
% es.Ez (V/m) @ t=0.82
-1.6740110095047966
% es.tEx (V/m) @ t=0.82
3.372869427684604
% es.tEy (V/m) @ t=0.82
0
% es.tEz (V/m) @ t=0.82
-1.6740110095047953
% V (V) @ t=0.82
0.017093104619838876
% es.normE (V/m) @ t=0.84
3.8191672887426
% es.EX (V/m) @ t=0.84
3.4189612844013864
% es.EY (V/m) @ t=0.84
0.13159624633941808
% es.EZ (V/m) @ t=0.84
-1.6968867710167634
% es.tEX (V/m) @ t=0.84
3.418961284401398
% es.tEY (V/m) @ t=0.84
0
% es.tEZ (V/m) @ t=0.84
-1.696886771016736
% es.Ex (V/m) @ t=0.84
3.4189612844013864
% es.Ey (V/m) @ t=0.84
0.13159624633941808
% es.Ez (V/m) @ t=0.84
-1.6968867710167634
% es.tEx (V/m) @ t=0.84
3.418961284401398
% es.tEy (V/m) @ t=0.84
0
% es.tEz (V/m) @ t=0.84
-1.696886771016736
% V (V) @ t=0.84
0.01732667384890958
% es.normE (V/m) @ t=0.86
3.87121751624053
% es.EX (V/m) @ t=0.86
3.4655573201632253
% es.EY (V/m) @ t=0.86
0.13339037411568733
% es.EZ (V/m) @ t=0.86
-1.7200128751276083
% es.tEX (V/m) @ t=0.86
3.4655573201632226
% es.tEY (V/m) @ t=0.86
0
% es.tEZ (V/m) @ t=0.86
-1.720012875127594
% es.Ex (V/m) @ t=0.86
3.4655573201632253
% es.Ey (V/m) @ t=0.86
0.13339037411568733
% es.Ez (V/m) @ t=0.86
-1.7200128751276083
% es.tEx (V/m) @ t=0.86
3.4655573201632226
% es.tEy (V/m) @ t=0.86
0
% es.tEz (V/m) @ t=0.86
-1.720012875127594
% V (V) @ t=0.86
0.017562802719039552
% es.normE (V/m) @ t=0.88
3.923822758428015
% es.EX (V/m) @ t=0.88
3.5126501799719687
% es.EY (V/m) @ t=0.88
0.13520340047757612
% es.EZ (V/m) @ t=0.88
-1.7433856573503652
% es.tEX (V/m) @ t=0.88
3.512650179971965
% es.tEY (V/m) @ t=0.88
0
% es.tEZ (V/m) @ t=0.88
-1.743385657350359
% es.Ex (V/m) @ t=0.88
3.5126501799719687
% es.Ey (V/m) @ t=0.88
0.13520340047757612
% es.Ez (V/m) @ t=0.88
-1.7433856573503652
% es.tEx (V/m) @ t=0.88
3.512650179971965
% es.tEy (V/m) @ t=0.88
0
% es.tEz (V/m) @ t=0.88
-1.743385657350359
% V (V) @ t=0.88
0.01780145337507887
% es.normE (V/m) @ t=0.9
3.976983015304942
% es.EX (V/m) @ t=0.9
3.56023986382763
% es.EY (V/m) @ t=0.9
0.1370353254250693
% es.EZ (V/m) @ t=0.9
-1.7670051176850274
% es.tEX (V/m) @ t=0.9
3.5602398638276256
% es.tEY (V/m) @ t=0.9
0
% es.tEZ (V/m) @ t=0.9
-1.7670051176849881
% es.Ex (V/m) @ t=0.9
3.56023986382763
% es.Ey (V/m) @ t=0.9
0.1370353254250693
% es.Ez (V/m) @ t=0.9
-1.7670051176850274
% es.tEx (V/m) @ t=0.9
3.5602398638276256
% es.tEy (V/m) @ t=0.9
0
% es.tEz (V/m) @ t=0.9
-1.7670051176849881
% V (V) @ t=0.9
0.01804262581702753
% es.normE (V/m) @ t=0.92
4.030698286871239
% es.EX (V/m) @ t=0.92
3.6083263717302185
% es.EY (V/m) @ t=0.92
0.13888614895817697
% es.EZ (V/m) @ t=0.92
-1.790871256131524
% es.tEX (V/m) @ t=0.92
3.608326371730204
% es.tEY (V/m) @ t=0.92
0
% es.tEZ (V/m) @ t=0.92
-1.7908712561315099
% es.Ex (V/m) @ t=0.92
3.6083263717302185
% es.Ey (V/m) @ t=0.92
0.13888614895817697
% es.Ez (V/m) @ t=0.92
-1.790871256131524
% es.tEx (V/m) @ t=0.92
3.608326371730204
% es.tEy (V/m) @ t=0.92
0
% es.tEz (V/m) @ t=0.92
-1.7908712561315099
% V (V) @ t=0.92
0.018286320044885535
% es.normE (V/m) @ t=0.94
4.084968573126892
% es.EX (V/m) @ t=0.94
3.656909703679677
% es.EY (V/m) @ t=0.94
0.1407558710768259
% es.EZ (V/m) @ t=0.94
-1.814984072689919
% es.tEX (V/m) @ t=0.94
3.6569097036796876
% es.tEY (V/m) @ t=0.94
0
% es.tEZ (V/m) @ t=0.94
-1.8149840726898958
% es.Ex (V/m) @ t=0.94
3.656909703679677
% es.Ey (V/m) @ t=0.94
0.1407558710768259
% es.Ez (V/m) @ t=0.94
-1.814984072689919
% es.tEx (V/m) @ t=0.94
3.6569097036796876
% es.tEy (V/m) @ t=0.94
0
% es.tEz (V/m) @ t=0.94
-1.8149840726898958
% V (V) @ t=0.94
0.018532536058652876
% es.normE (V/m) @ t=0.96
4.139793874072032
% es.EX (V/m) @ t=0.96
3.705989859676083
% es.EY (V/m) @ t=0.96
0.14264449178113098
% es.EZ (V/m) @ t=0.96
-1.8393435673601726
% es.tEX (V/m) @ t=0.96
3.705989859676091
% es.tEY (V/m) @ t=0.96
0
% es.tEZ (V/m) @ t=0.96
-1.8393435673601886
% es.Ex (V/m) @ t=0.96
3.705989859676083
% es.Ey (V/m) @ t=0.96
0.14264449178113098
% es.Ez (V/m) @ t=0.96
-1.8393435673601726
% es.tEx (V/m) @ t=0.96
3.705989859676091
% es.tEy (V/m) @ t=0.96
0
% es.tEz (V/m) @ t=0.96
-1.8393435673601886
% V (V) @ t=0.96
0.018781273858329558
% es.normE (V/m) @ t=0.98
4.195174189706826
% es.EX (V/m) @ t=0.98
3.7555668397194433
% es.EY (V/m) @ t=0.98
0.14455201107110444
% es.EZ (V/m) @ t=0.98
-1.8639497401423637
% es.tEX (V/m) @ t=0.98
3.755566839719455
% es.tEY (V/m) @ t=0.98
0
% es.tEZ (V/m) @ t=0.98
-1.8639497401423597
% es.Ex (V/m) @ t=0.98
3.7555668397194433
% es.Ey (V/m) @ t=0.98
0.14455201107110444
% es.Ez (V/m) @ t=0.98
-1.8639497401423637
% es.tEx (V/m) @ t=0.98
3.755566839719455
% es.tEy (V/m) @ t=0.98
0
% es.tEz (V/m) @ t=0.98
-1.8639497401423597
% V (V) @ t=0.98
0.01903253344391559
% es.normE (V/m) @ t=1
4.251109520031262
% es.EX (V/m) @ t=1
3.8056406438096224
% es.EY (V/m) @ t=1
0.14647842894653768
% es.EZ (V/m) @ t=1
-1.8888025910363426
% es.tEX (V/m) @ t=1
3.8056406438096086
% es.tEY (V/m) @ t=1
0
% es.tEZ (V/m) @ t=1
-1.8888025910363382
% es.Ex (V/m) @ t=1
3.8056406438096224
% es.Ey (V/m) @ t=1
0.14647842894653768
% es.Ez (V/m) @ t=1
-1.8888025910363426
% es.tEx (V/m) @ t=1
3.8056406438096086
% es.tEy (V/m) @ t=1
0
% es.tEz (V/m) @ t=1
-1.8888025910363382
% V (V) @ t=1
0.019286314815410953
% es.normE (V/m) @ t=1.02
4.30759986504585
% es.EX (V/m) @ t=1.02
3.8562112719468145
% es.EY (V/m) @ t=1.02
0.14842374540768644
% es.EZ (V/m) @ t=1.02
-1.91390212004233
% es.tEX (V/m) @ t=1.02
3.8562112719468082
% es.tEY (V/m) @ t=1.02
0
% es.tEZ (V/m) @ t=1.02
-1.9139021200423088
% es.Ex (V/m) @ t=1.02
3.8562112719468145
% es.Ey (V/m) @ t=1.02
0.14842374540768644
% es.Ez (V/m) @ t=1.02
-1.91390212004233
% es.tEx (V/m) @ t=1.02
3.8562112719468082
% es.tEy (V/m) @ t=1.02
0
% es.tEz (V/m) @ t=1.02
-1.9139021200423088
% V (V) @ t=1.02
0.019542617972815667
% es.normE (V/m) @ t=1.04
4.364645224750619
% es.EX (V/m) @ t=1.04
3.907278724130868
% es.EY (V/m) @ t=1.04
0.15038796045442632
% es.EZ (V/m) @ t=1.04
-1.939248327160091
% es.tEX (V/m) @ t=1.04
3.907278724130858
% es.tEY (V/m) @ t=1.04
0
% es.tEZ (V/m) @ t=1.04
-1.9392483271600724
% es.Ex (V/m) @ t=1.04