% Model:              1 neuron.mph
% Version:            COMSOL 6.0.0.405
% Date:               Mar 16 2023, 18:46
% Dimension:          0
% Nodes:              14017
% Expressions:        14017
% Description:        Electric field norm, Electric field, X component, Electric field, Y component, Electric field, Z component, Tangential electric field, X component, Tangential electric field, Y component, Tangential electric field, Z component, Electric field, x component, Electric field, y component, Electric field, z component, Tangential electric field, x component, Tangential electric field, y component, Tangential electric field, z component, Electric potential
% Length unit:        mm
% x
1.66
% y
12.200000000000001
% z
1.66
% es.normE (V/m) @ t=0
30.94220973087569
% es.EX (V/m) @ t=0
-14.612692488671684
% es.EY (V/m) @ t=0
11.723903427903366
% es.EZ (V/m) @ t=0
14.054082070145387
% es.tEX (V/m) @ t=0
-14.612692488671705
% es.tEY (V/m) @ t=0
0
% es.tEZ (V/m) @ t=0
14.05408207014537
% es.Ex (V/m) @ t=0
-14.612692488671684
% es.Ey (V/m) @ t=0
11.723903427903366
% es.Ez (V/m) @ t=0
14.054082070145387
% es.tEx (V/m) @ t=0
-14.612692488671705
% es.tEy (V/m) @ t=0
0
% es.tEz (V/m) @ t=0
14.05408207014537
% V (V) @ t=0
0.009711079486220039
% es.normE (V/m) @ t=0.02
26.87355124141012
% es.EX (V/m) @ t=0.02
-12.691237894797453
% es.EY (V/m) @ t=0.02
10.182301930398268
% es.EZ (V/m) @ t=0.02
12.206080007395304
% es.tEX (V/m) @ t=0.02
-12.691237894797467
% es.tEY (V/m) @ t=0.02
0
% es.tEZ (V/m) @ t=0.02
12.206080007395286
% es.Ex (V/m) @ t=0.02
-12.691237894797453
% es.Ey (V/m) @ t=0.02
10.182301930398268
% es.Ez (V/m) @ t=0.02
12.206080007395304
% es.tEx (V/m) @ t=0.02
-12.691237894797467
% es.tEy (V/m) @ t=0.02
0
% es.tEz (V/m) @ t=0.02
12.206080007395286
% V (V) @ t=0.02
0.008434148516655911
% es.normE (V/m) @ t=0.04
27.272023246004153
% es.EX (V/m) @ t=0.04
-12.879419529923368
% es.EY (V/m) @ t=0.04
10.333281806377482
% es.EZ (V/m) @ t=0.04
12.387067313218559
% es.tEX (V/m) @ t=0.04
-12.879419529923375
% es.tEY (V/m) @ t=0.04
0
% es.tEZ (V/m) @ t=0.04
12.387067313218552
% es.Ex (V/m) @ t=0.04
-12.879419529923368
% es.Ey (V/m) @ t=0.04
10.333281806377482
% es.Ez (V/m) @ t=0.04
12.387067313218559
% es.tEx (V/m) @ t=0.04
-12.879419529923375
% es.tEy (V/m) @ t=0.04
0
% es.tEz (V/m) @ t=0.04
12.387067313218552
% V (V) @ t=0.04
0.008559207248079898
% es.normE (V/m) @ t=0.06
27.67652655746967
% es.EX (V/m) @ t=0.06
-13.070449111713572
% es.EY (V/m) @ t=0.06
10.486546715957555
% es.EZ (V/m) @ t=0.06
12.570794693640106
% es.tEX (V/m) @ t=0.06
-13.070449111713586
% es.tEY (V/m) @ t=0.06
0
% es.tEZ (V/m) @ t=0.06
12.570794693640096
% es.Ex (V/m) @ t=0.06
-13.070449111713572
% es.Ey (V/m) @ t=0.06
10.486546715957555
% es.Ez (V/m) @ t=0.06
12.570794693640106
% es.tEx (V/m) @ t=0.06
-13.070449111713586
% es.tEy (V/m) @ t=0.06
0
% es.tEz (V/m) @ t=0.06
12.570794693640096
% V (V) @ t=0.06
0.008686158868284295
% es.normE (V/m) @ t=0.08
28.09123473064721
% es.EX (V/m) @ t=0.08
-13.266298021734649
% es.EY (V/m) @ t=0.08
10.643678217402549
% es.EZ (V/m) @ t=0.08
12.759157156750774
% es.tEX (V/m) @ t=0.08
-13.266298021734649
% es.tEY (V/m) @ t=0.08
0
% es.tEZ (V/m) @ t=0.08
12.759157156750746
% es.Ex (V/m) @ t=0.08
-13.266298021734649
% es.Ey (V/m) @ t=0.08
10.643678217402549
% es.Ez (V/m) @ t=0.08
12.759157156750774
% es.tEx (V/m) @ t=0.08
-13.266298021734649
% es.tEy (V/m) @ t=0.08
0
% es.tEz (V/m) @ t=0.08
12.759157156750746
% V (V) @ t=0.08
0.00881631324072142
% es.normE (V/m) @ t=0.1
28.51329848310406
% es.EX (V/m) @ t=0.1
-13.46562066338241
% es.EY (V/m) @ t=0.1
10.80359672604138
% es.EZ (V/m) @ t=0.1
12.95086054883705
% es.tEX (V/m) @ t=0.1
-13.465620663382396
% es.tEY (V/m) @ t=0.1
0
% es.tEZ (V/m) @ t=0.1
12.950860548837085
% es.Ex (V/m) @ t=0.1
-13.46562066338241
% es.Ey (V/m) @ t=0.1
10.80359672604138
% es.Ez (V/m) @ t=0.1
12.95086054883705
% es.tEx (V/m) @ t=0.1
-13.465620663382396
% es.tEy (V/m) @ t=0.1
0
% es.tEz (V/m) @ t=0.1
12.950860548837085
% V (V) @ t=0.1
0.008948776130277605
% es.normE (V/m) @ t=0.12
28.935362235560866
% es.EX (V/m) @ t=0.12
-13.664943305030114
% es.EY (V/m) @ t=0.12
10.963515234680166
% es.EZ (V/m) @ t=0.12
13.142563940923289
% es.tEX (V/m) @ t=0.12
-13.664943305030121
% es.tEY (V/m) @ t=0.12
0
% es.tEZ (V/m) @ t=0.12
13.142563940923282
% es.Ex (V/m) @ t=0.12
-13.664943305030114
% es.Ey (V/m) @ t=0.12
10.963515234680166
% es.Ez (V/m) @ t=0.12
13.142563940923289
% es.tEx (V/m) @ t=0.12
-13.664943305030121
% es.tEy (V/m) @ t=0.12
0
% es.tEz (V/m) @ t=0.12
13.142563940923282
% V (V) @ t=0.12
0.009081239019833789
% es.normE (V/m) @ t=0.14
29.363978865738574
% es.EX (V/m) @ t=0.14
-13.867360868005981
% es.EY (V/m) @ t=0.14
11.125916757117345
% es.EZ (V/m) @ t=0.14
13.337243225815953
% es.tEX (V/m) @ t=0.14
-13.867360868005967
% es.tEY (V/m) @ t=0.14
0
% es.tEZ (V/m) @ t=0.14
13.337243225815968
% es.Ex (V/m) @ t=0.14
-13.867360868005981
% es.Ey (V/m) @ t=0.14
11.125916757117345
% es.Ez (V/m) @ t=0.14
13.337243225815953
% es.tEx (V/m) @ t=0.14
-13.867360868005967
% es.tEy (V/m) @ t=0.14
0
% es.tEz (V/m) @ t=0.14
13.337243225815968
% V (V) @ t=0.14
0.009215758510142145
% es.normE (V/m) @ t=0.16
29.82408705911159
% es.EX (V/m) @ t=0.16
-14.084651882729162
% es.EY (V/m) @ t=0.16
11.300251050052296
% es.EZ (V/m) @ t=0.16
13.546223939846783
% es.tEX (V/m) @ t=0.16
-14.084651882729176
% es.tEY (V/m) @ t=0.16
0
% es.tEZ (V/m) @ t=0.16
13.546223939846783
% es.Ex (V/m) @ t=0.16
-14.084651882729162
% es.Ey (V/m) @ t=0.16
11.300251050052296
% es.Ez (V/m) @ t=0.16
13.546223939846783
% es.tEx (V/m) @ t=0.16
-14.084651882729176
% es.tEy (V/m) @ t=0.16
0
% es.tEz (V/m) @ t=0.16
13.546223939846783
% V (V) @ t=0.16
0.009360161531825992
% es.normE (V/m) @ t=0.18
30.284195252484935
% es.EX (V/m) @ t=0.18
-14.301942897452413
% es.EY (V/m) @ t=0.18
11.474585342987297
% es.EZ (V/m) @ t=0.18
13.755204653877623
% es.tEX (V/m) @ t=0.18
-14.30194289745242
% es.tEY (V/m) @ t=0.18
0
% es.tEZ (V/m) @ t=0.18
13.755204653877598
% es.Ex (V/m) @ t=0.18
-14.301942897452413
% es.Ey (V/m) @ t=0.18
11.474585342987297
% es.Ez (V/m) @ t=0.18
13.755204653877623
% es.tEx (V/m) @ t=0.18
-14.30194289745242
% es.tEy (V/m) @ t=0.18
0
% es.tEz (V/m) @ t=0.18
13.755204653877598
% V (V) @ t=0.18
0.00950456455350984
% es.normE (V/m) @ t=0.2
30.744303445858577
% es.EX (V/m) @ t=0.2
-14.519233912175665
% es.EY (V/m) @ t=0.2
11.648919635922304
% es.EZ (V/m) @ t=0.2
13.964185367908431
% es.tEX (V/m) @ t=0.2
-14.519233912175629
% es.tEY (V/m) @ t=0.2
0
% es.tEZ (V/m) @ t=0.2
13.96418536790847
% es.Ex (V/m) @ t=0.2
-14.519233912175665
% es.Ey (V/m) @ t=0.2
11.648919635922304
% es.Ez (V/m) @ t=0.2
13.964185367908431
% es.tEx (V/m) @ t=0.2
-14.519233912175629
% es.tEy (V/m) @ t=0.2
0
% es.tEz (V/m) @ t=0.2
13.96418536790847
% V (V) @ t=0.2
0.00964896757519369
% es.normE (V/m) @ t=0.22
31.20441163923239
% es.EX (V/m) @ t=0.22
-14.73652492689881
% es.EY (V/m) @ t=0.22
11.82325392885734
% es.EZ (V/m) @ t=0.22
14.173166081939279
% es.tEX (V/m) @ t=0.22
-14.73652492689881
% es.tEY (V/m) @ t=0.22
0
% es.tEZ (V/m) @ t=0.22
14.173166081939286
% es.Ex (V/m) @ t=0.22
-14.73652492689881
% es.Ey (V/m) @ t=0.22
11.82325392885734
% es.Ez (V/m) @ t=0.22
14.173166081939279
% es.tEx (V/m) @ t=0.22
-14.73652492689881
% es.tEy (V/m) @ t=0.22
0
% es.tEz (V/m) @ t=0.22
14.173166081939286
% V (V) @ t=0.22
0.009793370596877536
% es.normE (V/m) @ t=0.24
31.664519832606565
% es.EX (V/m) @ t=0.24
-14.953815941622118
% es.EY (V/m) @ t=0.24
11.997588221792341
% es.EZ (V/m) @ t=0.24
14.382146795970144
% es.tEX (V/m) @ t=0.24
-14.95381594162211
% es.tEY (V/m) @ t=0.24
0
% es.tEZ (V/m) @ t=0.24
14.382146795970158
% es.Ex (V/m) @ t=0.24
-14.953815941622118
% es.Ey (V/m) @ t=0.24
11.997588221792341
% es.Ez (V/m) @ t=0.24
14.382146795970144
% es.tEx (V/m) @ t=0.24
-14.95381594162211
% es.tEy (V/m) @ t=0.24
0
% es.tEz (V/m) @ t=0.24
14.382146795970158
% V (V) @ t=0.24
0.009937773618561385
% es.normE (V/m) @ t=0.26
32.1246280259809
% es.EX (V/m) @ t=0.26
-15.171106956345348
% es.EY (V/m) @ t=0.26
12.171922514727399
% es.EZ (V/m) @ t=0.26
14.591127510000977
% es.tEX (V/m) @ t=0.26
-15.171106956345298
% es.tEY (V/m) @ t=0.26
0
% es.tEZ (V/m) @ t=0.26
14.591127510001002
% es.Ex (V/m) @ t=0.26
-15.171106956345348
% es.Ey (V/m) @ t=0.26
12.171922514727399
% es.Ez (V/m) @ t=0.26
14.591127510000977
% es.tEx (V/m) @ t=0.26
-15.171106956345298
% es.tEy (V/m) @ t=0.26
0
% es.tEz (V/m) @ t=0.26
14.591127510001002
% V (V) @ t=0.26
0.010082176640245232
% es.normE (V/m) @ t=0.28
32.5993092289109
% es.EX (V/m) @ t=0.28
-15.39527974642533
% es.EY (V/m) @ t=0.28
12.351778235651196
% es.EZ (V/m) @ t=0.28
14.806728066390242
% es.tEX (V/m) @ t=0.28
-15.39527974642531
% es.tEY (V/m) @ t=0.28
0
% es.tEZ (V/m) @ t=0.28
14.806728066390235
% es.Ex (V/m) @ t=0.28
-15.39527974642533
% es.Ey (V/m) @ t=0.28
12.351778235651196
% es.Ez (V/m) @ t=0.28
14.806728066390242
% es.tEx (V/m) @ t=0.28
-15.39527974642531
% es.tEy (V/m) @ t=0.28
0
% es.tEz (V/m) @ t=0.28
14.806728066390235
% V (V) @ t=0.28
0.010231153325140427
% es.normE (V/m) @ t=0.3
33.100529254365604
% es.EX (V/m) @ t=0.3
-15.631984897384655
% es.EY (V/m) @ t=0.3
12.541688996813669
% es.EZ (V/m) @ t=0.3
15.034383979006584
% es.tEX (V/m) @ t=0.3
-15.631984897384633
% es.tEY (V/m) @ t=0.3
0
% es.tEZ (V/m) @ t=0.3
15.034383979006577
% es.Ex (V/m) @ t=0.3
-15.631984897384655
% es.Ey (V/m) @ t=0.3
12.541688996813669
% es.Ez (V/m) @ t=0.3
15.034383979006584
% es.tEx (V/m) @ t=0.3
-15.631984897384633
% es.tEy (V/m) @ t=0.3
0
% es.tEz (V/m) @ t=0.3
15.034383979006577
% V (V) @ t=0.3
0.010388459081377562
% es.normE (V/m) @ t=0.32
33.601749279820346
% es.EX (V/m) @ t=0.32
-15.868690048343979
% es.EY (V/m) @ t=0.32
12.73159975797617
% es.EZ (V/m) @ t=0.32
15.262039891622933
% es.tEX (V/m) @ t=0.32
-15.868690048343971
% es.tEY (V/m) @ t=0.32
0
% es.tEZ (V/m) @ t=0.32
15.262039891622948
% es.Ex (V/m) @ t=0.32
-15.868690048343979
% es.Ey (V/m) @ t=0.32
12.73159975797617
% es.Ez (V/m) @ t=0.32
15.262039891622933
% es.tEx (V/m) @ t=0.32
-15.868690048343971
% es.tEy (V/m) @ t=0.32
0
% es.tEz (V/m) @ t=0.32
15.262039891622948
% V (V) @ t=0.32
0.010545764837614699
% es.normE (V/m) @ t=0.34
34.102969305274975
% es.EX (V/m) @ t=0.34
-16.105395199303288
% es.EY (V/m) @ t=0.34
12.9215105191386
% es.EZ (V/m) @ t=0.34
15.489695804239169
% es.tEX (V/m) @ t=0.34
-16.10539519930331
% es.tEY (V/m) @ t=0.34
0
% es.tEZ (V/m) @ t=0.34
15.489695804239176
% es.Ex (V/m) @ t=0.34
-16.105395199303288
% es.Ey (V/m) @ t=0.34
12.9215105191386
% es.Ez (V/m) @ t=0.34
15.489695804239169
% es.tEx (V/m) @ t=0.34
-16.10539519930331
% es.tEy (V/m) @ t=0.34
0
% es.tEz (V/m) @ t=0.34
15.489695804239176
% V (V) @ t=0.34
0.010703070593851836
% es.normE (V/m) @ t=0.36
34.60418933072974
% es.EX (V/m) @ t=0.36
-16.342100350262655
% es.EY (V/m) @ t=0.36
13.111421280301109
% es.EZ (V/m) @ t=0.36
15.717351716855497
% es.tEX (V/m) @ t=0.36
-16.342100350262626
% es.tEY (V/m) @ t=0.36
0
% es.tEZ (V/m) @ t=0.36
15.71735171685549
% es.Ex (V/m) @ t=0.36
-16.342100350262655
% es.Ey (V/m) @ t=0.36
13.111421280301109
% es.Ez (V/m) @ t=0.36
15.717351716855497
% es.tEx (V/m) @ t=0.36
-16.342100350262626
% es.tEy (V/m) @ t=0.36
0
% es.tEz (V/m) @ t=0.36
15.71735171685549
% V (V) @ t=0.36
0.01086037635008897
% es.normE (V/m) @ t=0.38
35.10540935618447
% es.EX (V/m) @ t=0.38
-16.578805501221964
% es.EY (V/m) @ t=0.38
13.301332041463581
% es.EZ (V/m) @ t=0.38
15.945007629471874
% es.tEX (V/m) @ t=0.38
-16.578805501221957
% es.tEY (V/m) @ t=0.38
0
% es.tEZ (V/m) @ t=0.38
15.945007629471888
% es.Ex (V/m) @ t=0.38
-16.578805501221964
% es.Ey (V/m) @ t=0.38
13.301332041463581
% es.Ez (V/m) @ t=0.38
15.945007629471874
% es.tEx (V/m) @ t=0.38
-16.578805501221957
% es.tEy (V/m) @ t=0.38
0
% es.tEz (V/m) @ t=0.38
15.945007629471888
% V (V) @ t=0.38
0.011017682106326107
% es.normE (V/m) @ t=0.4
35.606629381639216
% es.EX (V/m) @ t=0.4
-16.81551065218129
% es.EY (V/m) @ t=0.4
13.491242802626118
% es.EZ (V/m) @ t=0.4
16.172663542088202
% es.tEX (V/m) @ t=0.4
-16.815510652181253
% es.tEY (V/m) @ t=0.4
0
% es.tEZ (V/m) @ t=0.4
16.17266354208823
% es.Ex (V/m) @ t=0.4
-16.81551065218129
% es.Ey (V/m) @ t=0.4
13.491242802626118
% es.Ez (V/m) @ t=0.4
16.172663542088202
% es.tEx (V/m) @ t=0.4
-16.815510652181253
% es.tEy (V/m) @ t=0.4
0
% es.tEz (V/m) @ t=0.4
16.17266354208823
% V (V) @ t=0.4
0.011174987862563244
% es.normE (V/m) @ t=0.42
36.13156830047526
% es.EX (V/m) @ t=0.42
-17.063417559071013
% es.EY (V/m) @ t=0.42
13.69014075494816
% es.EZ (V/m) @ t=0.42
16.41109213558417
% es.tEX (V/m) @ t=0.42
-17.06341755907102
% es.tEY (V/m) @ t=0.42
0
% es.tEZ (V/m) @ t=0.42
16.41109213558417
% es.Ex (V/m) @ t=0.42
-17.063417559071013
% es.Ey (V/m) @ t=0.42
13.69014075494816
% es.Ez (V/m) @ t=0.42
16.41109213558417
% es.tEx (V/m) @ t=0.42
-17.06341755907102
% es.tEy (V/m) @ t=0.42
0
% es.tEz (V/m) @ t=0.42
16.41109213558417
% V (V) @ t=0.42
0.011339737701318145
% es.normE (V/m) @ t=0.44
36.67698210578411
% es.EX (V/m) @ t=0.44
-17.32099417007747
% es.EY (V/m) @ t=0.44
13.896796730199156
% es.EZ (V/m) @ t=0.44
16.658820042267884
% es.tEX (V/m) @ t=0.44
-17.320994170077455
% es.tEY (V/m) @ t=0.44
0
% es.tEZ (V/m) @ t=0.44
16.658820042267905
% es.Ex (V/m) @ t=0.44
-17.32099417007747
% es.Ey (V/m) @ t=0.44
13.896796730199156
% es.Ez (V/m) @ t=0.44
16.658820042267884
% es.tEx (V/m) @ t=0.44
-17.320994170077455
% es.tEy (V/m) @ t=0.44
0
% es.tEz (V/m) @ t=0.44
16.658820042267905
% V (V) @ t=0.44
0.01151091350362858
% es.normE (V/m) @ t=0.46
37.22239591109313
% es.EX (V/m) @ t=0.46
-17.57857078108387
% es.EY (V/m) @ t=0.46
14.103452705450245
% es.EZ (V/m) @ t=0.46
16.90654794895162
% es.tEX (V/m) @ t=0.46
-17.57857078108387
% es.tEY (V/m) @ t=0.46
0
% es.tEZ (V/m) @ t=0.46
16.90654794895164
% es.Ex (V/m) @ t=0.46
-17.57857078108387
% es.Ey (V/m) @ t=0.46
14.103452705450245
% es.Ez (V/m) @ t=0.46
16.90654794895162
% es.tEx (V/m) @ t=0.46
-17.57857078108387
% es.tEy (V/m) @ t=0.46
0
% es.tEz (V/m) @ t=0.46
16.90654794895164
% V (V) @ t=0.46
0.011682089305939015
% es.normE (V/m) @ t=0.48
37.7678097164021
% es.EX (V/m) @ t=0.48
-17.836147392090325
% es.EY (V/m) @ t=0.48
14.31010868070129
% es.EZ (V/m) @ t=0.48
17.15427585563529
% es.tEX (V/m) @ t=0.48
-17.836147392090297
% es.tEY (V/m) @ t=0.48
0
% es.tEZ (V/m) @ t=0.48
17.154275855635262
% es.Ex (V/m) @ t=0.48
-17.836147392090325
% es.Ey (V/m) @ t=0.48
14.31010868070129
% es.Ez (V/m) @ t=0.48
17.15427585563529
% es.tEx (V/m) @ t=0.48
-17.836147392090297
% es.tEy (V/m) @ t=0.48
0
% es.tEz (V/m) @ t=0.48
17.154275855635262
% V (V) @ t=0.48
0.011853265108249446
% es.normE (V/m) @ t=0.5
38.31322352171103
% es.EX (V/m) @ t=0.5
-18.09372400309674
% es.EY (V/m) @ t=0.5
14.516764655952244
% es.EZ (V/m) @ t=0.5
17.402003762318962
% es.tEX (V/m) @ t=0.5
-18.09372400309673
% es.tEY (V/m) @ t=0.5
0
% es.tEZ (V/m) @ t=0.5
17.402003762318998
% es.Ex (V/m) @ t=0.5
-18.09372400309674
% es.Ey (V/m) @ t=0.5
14.516764655952244
% es.Ez (V/m) @ t=0.5
17.402003762318962
% es.tEx (V/m) @ t=0.5
-18.09372400309673
% es.tEy (V/m) @ t=0.5
0
% es.tEz (V/m) @ t=0.5
17.402003762318998
% V (V) @ t=0.5
0.012024440910559884
% es.normE (V/m) @ t=0.52
38.858637327020126
% es.EX (V/m) @ t=0.52
-18.351300614103124
% es.EY (V/m) @ t=0.52
14.723420631203318
% es.EZ (V/m) @ t=0.52
17.64973166900269
% es.tEX (V/m) @ t=0.52
-18.351300614103152
% es.tEY (V/m) @ t=0.52
0
% es.tEZ (V/m) @ t=0.52
17.649731669002676
% es.Ex (V/m) @ t=0.52
-18.351300614103124
% es.Ey (V/m) @ t=0.52
14.723420631203318
% es.Ez (V/m) @ t=0.52
17.64973166900269
% es.tEx (V/m) @ t=0.52
-18.351300614103152
% es.tEy (V/m) @ t=0.52
0
% es.tEz (V/m) @ t=0.52
17.649731669002676
% V (V) @ t=0.52
0.012195616712870318
% es.normE (V/m) @ t=0.54
39.404051132329215
% es.EX (V/m) @ t=0.54
-18.608877225109595
% es.EY (V/m) @ t=0.54
14.930076606454392
% es.EZ (V/m) @ t=0.54
17.89745957568634
% es.tEX (V/m) @ t=0.54
-18.608877225109566
% es.tEY (V/m) @ t=0.54
0
% es.tEZ (V/m) @ t=0.54
17.897459575686355
% es.Ex (V/m) @ t=0.54
-18.608877225109595
% es.Ey (V/m) @ t=0.54
14.930076606454392
% es.Ez (V/m) @ t=0.54
17.89745957568634
% es.tEx (V/m) @ t=0.54
-18.608877225109566
% es.tEy (V/m) @ t=0.54
0
% es.tEz (V/m) @ t=0.54
17.897459575686355
% V (V) @ t=0.54
0.012366792515180752
% es.normE (V/m) @ t=0.56
39.96431959120987
% es.EX (V/m) @ t=0.56
-18.873468237533146
% es.EY (V/m) @ t=0.56
15.142360515761418
% es.EZ (V/m) @ t=0.56
18.15193587646654
% es.tEX (V/m) @ t=0.56
-18.87346823753313
% es.tEY (V/m) @ t=0.56
0
% es.tEZ (V/m) @ t=0.56
18.151935876466553
% es.Ex (V/m) @ t=0.56
-18.873468237533146
% es.Ey (V/m) @ t=0.56
15.142360515761418
% es.Ez (V/m) @ t=0.56
18.15193587646654
% es.tEx (V/m) @ t=0.56
-18.87346823753313
% es.tEy (V/m) @ t=0.56
0
% es.tEz (V/m) @ t=0.56
18.151935876466553
% V (V) @ t=0.56
0.012542630362101672
% es.normE (V/m) @ t=0.58
40.535108024102755
% es.EX (V/m) @ t=0.58
-19.14302680576418
% es.EY (V/m) @ t=0.58
15.358630093244948
% es.EZ (V/m) @ t=0.58
18.411191348311064
% es.tEX (V/m) @ t=0.58
-19.143026805764222
% es.tEY (V/m) @ t=0.58
0
% es.tEZ (V/m) @ t=0.58
18.411191348311092
% es.Ex (V/m) @ t=0.58
-19.14302680576418
% es.Ey (V/m) @ t=0.58
15.358630093244948
% es.Ez (V/m) @ t=0.58
18.411191348311064
% es.tEx (V/m) @ t=0.58
-19.143026805764222
% es.tEy (V/m) @ t=0.58
0
% es.tEz (V/m) @ t=0.58
18.411191348311092
% V (V) @ t=0.58
0.01272176984025276
% es.normE (V/m) @ t=0.6
41.11137952342696
% es.EX (V/m) @ t=0.6
-19.415174490514232
% es.EY (V/m) @ t=0.6
15.57697702218946
% es.EZ (V/m) @ t=0.6
18.67293774954384
% es.tEX (V/m) @ t=0.6
-19.415174490514318
% es.tEY (V/m) @ t=0.6
0
% es.tEZ (V/m) @ t=0.6
18.67293774954385
% es.Ex (V/m) @ t=0.6
-19.415174490514232
% es.Ey (V/m) @ t=0.6
15.57697702218946
% es.Ez (V/m) @ t=0.6
18.67293774954384
% es.tEx (V/m) @ t=0.6
-19.415174490514318
% es.tEy (V/m) @ t=0.6
0
% es.tEz (V/m) @ t=0.6
18.67293774954385
% V (V) @ t=0.6
0.012902630146168773
% es.normE (V/m) @ t=0.62
41.69313408918253
% es.EX (V/m) @ t=0.62
-19.689911291783176
% es.EY (V/m) @ t=0.62
15.797401302594999
% es.EZ (V/m) @ t=0.62
18.93717508016502
% es.tEX (V/m) @ t=0.62
-19.689911291783176
% es.tEY (V/m) @ t=0.62
0
% es.tEZ (V/m) @ t=0.62
18.93717508016499
% es.Ex (V/m) @ t=0.62
-19.689911291783176
% es.Ey (V/m) @ t=0.62
15.797401302594999
% es.Ez (V/m) @ t=0.62
18.93717508016502
% es.tEx (V/m) @ t=0.62
-19.689911291783176
% es.tEy (V/m) @ t=0.62
0
% es.tEz (V/m) @ t=0.62
18.93717508016499
% V (V) @ t=0.62
0.013085211279849702
% es.normE (V/m) @ t=0.64
42.28037172136959
% es.EX (V/m) @ t=0.64
-19.967237209571053
% es.EY (V/m) @ t=0.64
16.019902934461506
% es.EZ (V/m) @ t=0.64
19.203903340174428
% es.tEX (V/m) @ t=0.64
-19.96723720957108
% es.tEY (V/m) @ t=0.64
0
% es.tEZ (V/m) @ t=0.64
19.203903340174463
% es.Ex (V/m) @ t=0.64
-19.967237209571053
% es.Ey (V/m) @ t=0.64
16.019902934461506
% es.Ez (V/m) @ t=0.64
19.203903340174428
% es.tEx (V/m) @ t=0.64
-19.96723720957108
% es.tEy (V/m) @ t=0.64
0
% es.tEz (V/m) @ t=0.64
19.203903340174463
% V (V) @ t=0.64
0.013269513241295553
% es.normE (V/m) @ t=0.66
42.873092419988225
% es.EX (V/m) @ t=0.66
-20.247152243877878
% es.EY (V/m) @ t=0.66
16.244481917788974
% es.EZ (V/m) @ t=0.66
19.47312252957223
% es.tEX (V/m) @ t=0.66
-20.247152243877835
% es.tEY (V/m) @ t=0.66
0
% es.tEZ (V/m) @ t=0.66
19.47312252957221
% es.Ex (V/m) @ t=0.66
-20.247152243877878
% es.Ey (V/m) @ t=0.66
16.244481917788974
% es.Ez (V/m) @ t=0.66
19.47312252957223
% es.tEx (V/m) @ t=0.66
-20.247152243877835
% es.tEy (V/m) @ t=0.66
0
% es.tEz (V/m) @ t=0.66
19.47312252957221
% V (V) @ t=0.66
0.013455536030506322
% es.normE (V/m) @ t=0.68
43.47129618503872
% es.EX (V/m) @ t=0.68
-20.52965639470351
% es.EY (V/m) @ t=0.68
16.471138252577532
% es.EZ (V/m) @ t=0.68
19.74483264835836
% es.tEX (V/m) @ t=0.68
-20.52965639470348
% es.tEY (V/m) @ t=0.68
0
% es.tEZ (V/m) @ t=0.68
19.744832648358283
% es.Ex (V/m) @ t=0.68
-20.52965639470351
% es.Ey (V/m) @ t=0.68
16.471138252577532
% es.Ez (V/m) @ t=0.68
19.74483264835836
% es.tEx (V/m) @ t=0.68
-20.52965639470348
% es.tEy (V/m) @ t=0.68
0
% es.tEz (V/m) @ t=0.68
19.744832648358283
% V (V) @ t=0.68
0.013643279647482014
% es.normE (V/m) @ t=0.7
44.07498301652106
% es.EX (V/m) @ t=0.7
-20.814749662048115
% es.EY (V/m) @ t=0.7
16.699871938826988
% es.EZ (V/m) @ t=0.7
20.019033696532702
% es.tEX (V/m) @ t=0.7
-20.81474966204815
% es.tEY (V/m) @ t=0.7
0
% es.tEZ (V/m) @ t=0.7
20.019033696532688
% es.Ex (V/m) @ t=0.7
-20.814749662048115
% es.Ey (V/m) @ t=0.7
16.699871938826988
% es.Ez (V/m) @ t=0.7
20.019033696532702
% es.tEx (V/m) @ t=0.7
-20.81474966204815
% es.tEy (V/m) @ t=0.7
0
% es.tEz (V/m) @ t=0.7
20.019033696532688
% V (V) @ t=0.7
0.013832744092222621
% es.normE (V/m) @ t=0.72
44.684152914435735
% es.EX (V/m) @ t=0.72
-21.102432045911613
% es.EY (V/m) @ t=0.72
16.930682976537568
% es.EZ (V/m) @ t=0.72
20.295725674095536
% es.tEX (V/m) @ t=0.72
-21.1024320459116
% es.tEY (V/m) @ t=0.72
0
% es.tEZ (V/m) @ t=0.72
20.295725674095536
% es.Ex (V/m) @ t=0.72
-21.102432045911613
% es.Ey (V/m) @ t=0.72
16.930682976537568
% es.Ez (V/m) @ t=0.72
20.295725674095536
% es.tEx (V/m) @ t=0.72
-21.1024320459116
% es.tEy (V/m) @ t=0.72
0
% es.tEz (V/m) @ t=0.72
20.295725674095536
% V (V) @ t=0.72
0.014023929364728151
% es.normE (V/m) @ t=0.74
45.29880587878277
% es.EX (V/m) @ t=0.74
-21.392703546294143
% es.EY (V/m) @ t=0.74
17.163571365709082
% es.EZ (V/m) @ t=0.74
20.574908581046735
% es.tEX (V/m) @ t=0.74
-21.39270354629413
% es.tEY (V/m) @ t=0.74
0
% es.tEZ (V/m) @ t=0.74
20.57490858104677
% es.Ex (V/m) @ t=0.74
-21.392703546294143
% es.Ey (V/m) @ t=0.74
17.163571365709082
% es.Ez (V/m) @ t=0.74
20.574908581046735
% es.tEx (V/m) @ t=0.74
-21.39270354629413
% es.tEy (V/m) @ t=0.74
0
% es.tEz (V/m) @ t=0.74
20.57490858104677
% V (V) @ t=0.74
0.0142168354649986
% es.normE (V/m) @ t=0.76
45.918941909562214
% es.EX (V/m) @ t=0.76
-21.685564163195593
% es.EY (V/m) @ t=0.76
17.398537106341507
% es.EZ (V/m) @ t=0.76
20.85658241738612
% es.tEX (V/m) @ t=0.76
-21.685564163195572
% es.tEY (V/m) @ t=0.76
0
% es.tEZ (V/m) @ t=0.76
20.856582417386107
% es.Ex (V/m) @ t=0.76
-21.685564163195593
% es.Ey (V/m) @ t=0.76
17.398537106341507
% es.Ez (V/m) @ t=0.76
20.85658241738612
% es.tEx (V/m) @ t=0.76
-21.685564163195572
% es.tEy (V/m) @ t=0.76
0
% es.tEz (V/m) @ t=0.76
20.856582417386107
% V (V) @ t=0.76
0.014411462393033966
% es.normE (V/m) @ t=0.78
46.54456100677457
% es.EX (V/m) @ t=0.78
-21.981013896615835
% es.EY (V/m) @ t=0.78
17.635580198435093
% es.EZ (V/m) @ t=0.78
21.140747183113923
% es.tEX (V/m) @ t=0.78
-21.981013896615814
% es.tEY (V/m) @ t=0.78
0
% es.tEZ (V/m) @ t=0.78
21.140747183113888
% es.Ex (V/m) @ t=0.78
-21.981013896615835
% es.Ey (V/m) @ t=0.78
17.635580198435093
% es.Ez (V/m) @ t=0.78
21.140747183113923
% es.tEx (V/m) @ t=0.78
-21.981013896615814
% es.tEy (V/m) @ t=0.78
0
% es.tEz (V/m) @ t=0.78
21.140747183113888
% V (V) @ t=0.78
0.014607810148834256
% es.normE (V/m) @ t=0.8
47.17566317041984
% es.EX (V/m) @ t=0.8
-22.279052746554996
% es.EY (V/m) @ t=0.8
17.874700641989584
% es.EZ (V/m) @ t=0.8
21.42740287823007
% es.tEX (V/m) @ t=0.8
-22.27905274655501
% es.tEY (V/m) @ t=0.8
0
% es.tEZ (V/m) @ t=0.8
21.427402878230055
% es.Ex (V/m) @ t=0.8
-22.279052746554996
% es.Ey (V/m) @ t=0.8
17.874700641989584
% es.Ez (V/m) @ t=0.8
21.42740287823007
% es.tEx (V/m) @ t=0.8
-22.27905274655501
% es.tEy (V/m) @ t=0.8
0
% es.tEz (V/m) @ t=0.8
21.427402878230055
% V (V) @ t=0.8
0.014805878732399465
% es.normE (V/m) @ t=0.82
47.81312720914898
% es.EX (V/m) @ t=0.82
-22.580096476554445
% es.EY (V/m) @ t=0.82
18.116231816967854
% es.EZ (V/m) @ t=0.82
21.71694744722941
% es.tEX (V/m) @ t=0.82
-22.580096476554417
% es.tEY (V/m) @ t=0.82
0
% es.tEZ (V/m) @ t=0.82
21.716947447229416
% es.Ex (V/m) @ t=0.82
-22.580096476554445
% es.Ey (V/m) @ t=0.82
18.116231816967854
% es.Ez (V/m) @ t=0.82
21.71694744722941
% es.tEx (V/m) @ t=0.82
-22.580096476554417
% es.tEy (V/m) @ t=0.82
0
% es.tEz (V/m) @ t=0.82
21.716947447229416
% V (V) @ t=0.82
0.015005943976021932
% es.normE (V/m) @ t=0.84
48.466566124344006
% es.EX (V/m) @ t=0.84
-22.888692988474844
% es.EY (V/m) @ t=0.84
18.3638204581162
% es.EZ (V/m) @ t=0.84
22.01373387523266
% es.tEX (V/m) @ t=0.84
-22.888692988474837
% es.tEY (V/m) @ t=0.84
0
% es.tEZ (V/m) @ t=0.84
22.013733875232617
% es.Ex (V/m) @ t=0.84
-22.888692988474844
% es.Ey (V/m) @ t=0.84
18.3638204581162
% es.Ez (V/m) @ t=0.84
22.01373387523266
% es.tEx (V/m) @ t=0.84
-22.888692988474837
% es.tEy (V/m) @ t=0.84
0
% es.tEz (V/m) @ t=0.84
22.013733875232617
% V (V) @ t=0.84
0.015211023119239993
% es.normE (V/m) @ t=0.86
49.12702443493788
% es.EX (V/m) @ t=0.86
-23.20060545269365
% es.EY (V/m) @ t=0.86
18.614069263937743
% es.EZ (V/m) @ t=0.86
22.31370691723439
% es.tEX (V/m) @ t=0.86
-23.200605452693665
% es.tEY (V/m) @ t=0.86
0
% es.tEZ (V/m) @ t=0.86
22.31370691723447
% es.Ex (V/m) @ t=0.86
-23.20060545269365
% es.Ey (V/m) @ t=0.86
18.614069263937743
% es.Ez (V/m) @ t=0.86
22.31370691723439
% es.tEx (V/m) @ t=0.86
-23.200605452693665
% es.tEy (V/m) @ t=0.86
0
% es.tEz (V/m) @ t=0.86
22.31370691723447
% V (V) @ t=0.86
0.01541830529888073
% es.normE (V/m) @ t=0.88
49.7945021409321
% es.EX (V/m) @ t=0.88
-23.515833869210965
% es.EY (V/m) @ t=0.88
18.866978234432523
% es.EZ (V/m) @ t=0.88
22.616866573234816
% es.tEX (V/m) @ t=0.88
-23.51583386921095
% es.tEY (V/m) @ t=0.88
0
% es.tEZ (V/m) @ t=0.88
22.6168665732348
% es.Ex (V/m) @ t=0.88
-23.515833869210965
% es.Ey (V/m) @ t=0.88
18.866978234432523
% es.Ez (V/m) @ t=0.88
22.616866573234816
% es.tEx (V/m) @ t=0.88
-23.51583386921095
% es.tEy (V/m) @ t=0.88
0
% es.tEz (V/m) @ t=0.88
22.6168665732348
% V (V) @ t=0.88
0.015627790514944145
% es.normE (V/m) @ t=0.9
50.468999242328074
% es.EX (V/m) @ t=0.9
-23.834378238026687
% es.EY (V/m) @ t=0.9
19.122547369600483
% es.EZ (V/m) @ t=0.9
22.923212843233742
% es.tEX (V/m) @ t=0.9
-23.834378238026652
% es.tEY (V/m) @ t=0.9
0
% es.tEZ (V/m) @ t=0.9
22.923212843233728
% es.Ex (V/m) @ t=0.9
-23.834378238026687
% es.Ey (V/m) @ t=0.9
19.122547369600483
% es.Ez (V/m) @ t=0.9
22.923212843233742
% es.tEx (V/m) @ t=0.9
-23.834378238026652
% es.tEy (V/m) @ t=0.9
0
% es.tEz (V/m) @ t=0.9
22.923212843233728
% V (V) @ t=0.9
0.01583947876743023
% es.normE (V/m) @ t=0.92
51.150515739127464
% es.EX (V/m) @ t=0.92
-24.15623855914083
% es.EY (V/m) @ t=0.92
19.38077666944168
% es.EZ (V/m) @ t=0.92
23.23274572723121
% es.tEX (V/m) @ t=0.92
-24.156238559140817
% es.tEY (V/m) @ t=0.92
0
% es.tEZ (V/m) @ t=0.92
23.232745727231134
% es.Ex (V/m) @ t=0.92
-24.15623855914083
% es.Ey (V/m) @ t=0.92
19.38077666944168
% es.Ez (V/m) @ t=0.92
23.23274572723121
% es.tEx (V/m) @ t=0.92
-24.156238559140817
% es.tEy (V/m) @ t=0.92
0
% es.tEz (V/m) @ t=0.92
23.232745727231134
% V (V) @ t=0.92
0.016053370056338993
% es.normE (V/m) @ t=0.94
51.83905163133227
% es.EX (V/m) @ t=0.94
-24.481414832553355
% es.EY (V/m) @ t=0.94
19.641666133956093
% es.EZ (V/m) @ t=0.94
23.545465225227296
% es.tEX (V/m) @ t=0.94
-24.481414832553313
% es.tEY (V/m) @ t=0.94
0
% es.tEZ (V/m) @ t=0.94
23.545465225227304
% es.Ex (V/m) @ t=0.94
-24.481414832553355
% es.Ey (V/m) @ t=0.94
19.641666133956093
% es.Ez (V/m) @ t=0.94
23.545465225227296
% es.tEx (V/m) @ t=0.94
-24.481414832553313
% es.tEy (V/m) @ t=0.94
0
% es.tEz (V/m) @ t=0.94
23.545465225227304
% V (V) @ t=0.94
0.01626946438167043
% es.normE (V/m) @ t=0.96
52.534606918944235
% es.EX (V/m) @ t=0.96
-24.809907058264443
% es.EY (V/m) @ t=0.96
19.905215763143673
% es.EZ (V/m) @ t=0.96
23.861371337221854
% es.tEX (V/m) @ t=0.96
-24.80990705826443
% es.tEY (V/m) @ t=0.96
0
% es.tEZ (V/m) @ t=0.96
23.86137133722184
% es.Ex (V/m) @ t=0.96
-24.809907058264443
% es.Ey (V/m) @ t=0.96
19.905215763143673
% es.Ez (V/m) @ t=0.96
23.861371337221854
% es.tEx (V/m) @ t=0.96
-24.80990705826443
% es.tEy (V/m) @ t=0.96
0
% es.tEz (V/m) @ t=0.96
23.86137133722184
% V (V) @ t=0.96
0.016487761743424544
% es.normE (V/m) @ t=0.98
53.23718160196535
% es.EX (V/m) @ t=0.98
-25.141715236273797
% es.EY (V/m) @ t=0.98
20.171425557004397
% es.EZ (V/m) @ t=0.98
24.18046406321504
% es.tEX (V/m) @ t=0.98
-25.141715236273797
% es.tEY (V/m) @ t=0.98
0
% es.tEZ (V/m) @ t=0.98
24.180464063215027
% es.Ex (V/m) @ t=0.98
-25.141715236273797
% es.Ey (V/m) @ t=0.98
20.171425557004397
% es.Ez (V/m) @ t=0.98
24.18046406321504
% es.tEx (V/m) @ t=0.98
-25.141715236273797
% es.tEy (V/m) @ t=0.98
0
% es.tEz (V/m) @ t=0.98
24.180464063215027
% V (V) @ t=0.98
0.01670826214160133
% es.normE (V/m) @ t=1
53.946775680398126
% es.EX (V/m) @ t=1
-25.47683936658177
% es.EY (V/m) @ t=1
20.44029551553838
% es.EZ (V/m) @ t=1
24.50274340320678
% es.tEX (V/m) @ t=1
-25.476839366581743
% es.tEY (V/m) @ t=1
0
% es.tEZ (V/m) @ t=1
24.502743403206807
% es.Ex (V/m) @ t=1
-25.47683936658177
% es.Ey (V/m) @ t=1
20.44029551553838
% es.Ez (V/m) @ t=1
24.50274340320678
% es.tEx (V/m) @ t=1
-25.476839366581743
% es.tEy (V/m) @ t=1
0
% es.tEz (V/m) @ t=1
24.502743403206807
% V (V) @ t=1
0.016930965576200795
% es.normE (V/m) @ t=1.02
54.66338915424461
% es.EX (V/m) @ t=1.02
-25.81527944918807
% es.EY (V/m) @ t=1.02
20.71182563874556
% es.EZ (V/m) @ t=1.02
24.82820935719711
% es.tEX (V/m) @ t=1.02
-25.815279449188083
% es.tEY (V/m) @ t=1.02
0
% es.tEZ (V/m) @ t=1.02
24.828209357197068
% es.Ex (V/m) @ t=1.02
-25.81527944918807
% es.Ey (V/m) @ t=1.02
20.71182563874556
% es.Ez (V/m) @ t=1.02
24.82820935719711
% es.tEx (V/m) @ t=1.02
-25.815279449188083
% es.tEy (V/m) @ t=1.02
0
% es.tEz (V/m) @ t=1.02
24.828209357197068
% V (V) @ t=1.02
0.01715587204722293
% es.normE (V/m) @ t=1.04
55.387022023507
% es.EX (V/m) @ t=1.04
-26.157035484092802
% es.EY (V/m) @ t=1.04
20.986015926625825
% es.EZ (V/m) @ t=1.04
25.156861925185964
% es.tEX (V/m) @ t=1.04
-26.157035484092816
% es.tEY (V/m) @ t=1.04
0
% es.tEZ (V/m) @ t=1.04
25.156861925185922
% es.Ex (V/m) @ t=1.04
-26.157035484092802
% es.Ey (V/m) @ t=1.04
20.986015926625825
% es.Ez (V/m) @ t=1.04