% Model:              1 neuron.mph
% Version:            COMSOL 6.0.0.405
% Date:               Mar 16 2023, 18:32
% Dimension:          0
% Nodes:              14017
% Expressions:        14017
% Description:        Electric field norm, Electric field, X component, Electric field, Y component, Electric field, Z component, Tangential electric field, X component, Tangential electric field, Y component, Tangential electric field, Z component, Electric field, x component, Electric field, y component, Electric field, z component, Tangential electric field, x component, Tangential electric field, y component, Tangential electric field, z component, Electric potential
% Length unit:        mm
% x
1.66
% y
12.2
% z
1.33
% es.normE (V/m) @ t=0
11.548666885888547
% es.EX (V/m) @ t=0
-6.416904310894698
% es.EY (V/m) @ t=0
-0.6926493365437083
% es.EZ (V/m) @ t=0
8.592196612998439
% es.tEX (V/m) @ t=0
-6.416904310894708
% es.tEY (V/m) @ t=0
0
% es.tEZ (V/m) @ t=0
8.592196612998428
% es.Ex (V/m) @ t=0
-6.416904310894698
% es.Ey (V/m) @ t=0
-0.6926493365437083
% es.Ez (V/m) @ t=0
8.592196612998439
% es.tEx (V/m) @ t=0
-6.416904310894708
% es.tEy (V/m) @ t=0
0
% es.tEz (V/m) @ t=0
8.592196612998428
% V (V) @ t=0
0.009484516296842101
% es.normE (V/m) @ t=0.02
10.030099287960947
% es.EX (V/m) @ t=0.02
-5.5731272194138395
% es.EY (V/m) @ t=0.02
-0.6015706858844072
% es.EZ (V/m) @ t=0.02
7.46238380566557
% es.tEX (V/m) @ t=0.02
-5.573127219413846
% es.tEY (V/m) @ t=0.02
0
% es.tEZ (V/m) @ t=0.02
7.462383805665565
% es.Ex (V/m) @ t=0.02
-5.5731272194138395
% es.Ey (V/m) @ t=0.02
-0.6015706858844072
% es.Ez (V/m) @ t=0.02
7.46238380566557
% es.tEx (V/m) @ t=0.02
-5.573127219413846
% es.tEy (V/m) @ t=0.02
0
% es.tEz (V/m) @ t=0.02
7.462383805665565
% V (V) @ t=0.02
0.008237369461057622
% es.normE (V/m) @ t=0.04
10.17881254273654
% es.EX (V/m) @ t=0.04
-5.6557582056612095
% es.EY (V/m) @ t=0.04
-0.6104900739495152
% es.EZ (V/m) @ t=0.04
7.573026330914429
% es.tEX (V/m) @ t=0.04
-5.655758205661218
% es.tEY (V/m) @ t=0.04
0
% es.tEZ (V/m) @ t=0.04
7.5730263309144155
% es.Ex (V/m) @ t=0.04
-5.6557582056612095
% es.Ey (V/m) @ t=0.04
-0.6104900739495152
% es.Ez (V/m) @ t=0.04
7.573026330914429
% es.tEx (V/m) @ t=0.04
-5.655758205661218
% es.tEy (V/m) @ t=0.04
0
% es.tEz (V/m) @ t=0.04
7.5730263309144155
% V (V) @ t=0.04
0.008359502608944521
% es.normE (V/m) @ t=0.06
10.329781993416006
% es.EX (V/m) @ t=0.06
-5.739642733619173
% es.EY (V/m) @ t=0.06
-0.6195448598674309
% es.EZ (V/m) @ t=0.06
7.6853474808191065
% es.tEX (V/m) @ t=0.06
-5.739642733619183
% es.tEY (V/m) @ t=0.06
0
% es.tEZ (V/m) @ t=0.06
7.685347480819103
% es.Ex (V/m) @ t=0.06
-5.739642733619173
% es.Ey (V/m) @ t=0.06
-0.6195448598674309
% es.Ez (V/m) @ t=0.06
7.6853474808191065
% es.tEx (V/m) @ t=0.06
-5.739642733619183
% es.tEy (V/m) @ t=0.06
0
% es.tEz (V/m) @ t=0.06
7.685347480819103
% V (V) @ t=0.06
0.008483488850505486
% es.normE (V/m) @ t=0.08
10.484543398807315
% es.EX (V/m) @ t=0.08
-5.825634348088026
% es.EY (V/m) @ t=0.08
-0.6288269643258886
% es.EZ (V/m) @ t=0.08
7.800489820664095
% es.tEX (V/m) @ t=0.08
-5.825634348088025
% es.tEY (V/m) @ t=0.08
0
% es.tEZ (V/m) @ t=0.08
7.800489820664086
% es.Ex (V/m) @ t=0.08
-5.825634348088026
% es.Ey (V/m) @ t=0.08
-0.6288269643258886
% es.Ez (V/m) @ t=0.08
7.800489820664095
% es.tEx (V/m) @ t=0.08
-5.825634348088025
% es.tEy (V/m) @ t=0.08
0
% es.tEz (V/m) @ t=0.08
7.800489820664086
% V (V) @ t=0.08
0.008610589075065138
% es.normE (V/m) @ t=0.1
10.642072494654368
% es.EX (V/m) @ t=0.1
-5.913163893167513
% es.EY (V/m) @ t=0.1
-0.6382749851528455
% es.EZ (V/m) @ t=0.1
7.917691304424306
% es.tEX (V/m) @ t=0.1
-5.913163893167523
% es.tEY (V/m) @ t=0.1
0
% es.tEZ (V/m) @ t=0.1
7.9176913044242925
% es.Ex (V/m) @ t=0.1
-5.913163893167513
% es.Ey (V/m) @ t=0.1
-0.6382749851528455
% es.Ez (V/m) @ t=0.1
7.917691304424306
% es.tEx (V/m) @ t=0.1
-5.913163893167523
% es.tEy (V/m) @ t=0.1
0
% es.tEz (V/m) @ t=0.1
7.9176913044242925
% V (V) @ t=0.1
0.008739962148769794
% es.normE (V/m) @ t=0.12
10.799601590501425
% es.EX (V/m) @ t=0.12
-6.000693438247001
% es.EY (V/m) @ t=0.12
-0.6477230059798049
% es.EZ (V/m) @ t=0.12
8.034892788184514
% es.tEX (V/m) @ t=0.12
-6.000693438247011
% es.tEY (V/m) @ t=0.12
0
% es.tEZ (V/m) @ t=0.12
8.03489278818451
% es.Ex (V/m) @ t=0.12
-6.000693438247001
% es.Ey (V/m) @ t=0.12
-0.6477230059798049
% es.Ez (V/m) @ t=0.12
8.034892788184514
% es.tEx (V/m) @ t=0.12
-6.000693438247011
% es.tEy (V/m) @ t=0.12
0
% es.tEz (V/m) @ t=0.12
8.03489278818451
% V (V) @ t=0.12
0.008869335222474453
% es.normE (V/m) @ t=0.14
10.959493147397207
% es.EX (V/m) @ t=0.14
-6.089535674439273
% es.EY (V/m) @ t=0.14
-0.6573127083112018
% es.EZ (V/m) @ t=0.14
8.153851938155807
% es.tEX (V/m) @ t=0.14
-6.089535674439279
% es.tEY (V/m) @ t=0.14
0
% es.tEZ (V/m) @ t=0.14
8.153851938155801
% es.Ex (V/m) @ t=0.14
-6.089535674439273
% es.Ey (V/m) @ t=0.14
-0.6573127083112018
% es.Ez (V/m) @ t=0.14
8.153851938155807
% es.tEx (V/m) @ t=0.14
-6.089535674439279
% es.tEy (V/m) @ t=0.14
0
% es.tEz (V/m) @ t=0.14
8.153851938155801
% V (V) @ t=0.14
0.009000648480994803
% es.normE (V/m) @ t=0.16
11.131241757088047
% es.EX (V/m) @ t=0.16
-6.184966229975903
% es.EY (V/m) @ t=0.16
-0.6676135017648119
% es.EZ (V/m) @ t=0.16
8.281632711269731
% es.tEX (V/m) @ t=0.16
-6.18496622997592
% es.tEY (V/m) @ t=0.16
0
% es.tEZ (V/m) @ t=0.16
8.281632711269722
% es.Ex (V/m) @ t=0.16
-6.184966229975903
% es.Ey (V/m) @ t=0.16
-0.6676135017648119
% es.Ez (V/m) @ t=0.16
8.281632711269731
% es.tEx (V/m) @ t=0.16
-6.18496622997592
% es.tEy (V/m) @ t=0.16
0
% es.tEz (V/m) @ t=0.16
8.281632711269722
% V (V) @ t=0.16
0.009141699412779392
% es.normE (V/m) @ t=0.18
11.302990366778882
% es.EX (V/m) @ t=0.18
-6.2803967855125435
% es.EY (V/m) @ t=0.18
-0.6779142952183723
% es.EZ (V/m) @ t=0.18
8.40941348438365
% es.tEX (V/m) @ t=0.18
-6.28039678551256
% es.tEY (V/m) @ t=0.18
0
% es.tEZ (V/m) @ t=0.18
8.409413484383634
% es.Ex (V/m) @ t=0.18
-6.2803967855125435
% es.Ey (V/m) @ t=0.18
-0.6779142952183723
% es.Ez (V/m) @ t=0.18
8.40941348438365
% es.tEx (V/m) @ t=0.18
-6.28039678551256
% es.tEy (V/m) @ t=0.18
0
% es.tEz (V/m) @ t=0.18
8.409413484383634
% V (V) @ t=0.18
0.009282750344563979
% es.normE (V/m) @ t=0.2
11.474738976469721
% es.EX (V/m) @ t=0.2
-6.3758273410491695
% es.EY (V/m) @ t=0.2
-0.6882150886719542
% es.EZ (V/m) @ t=0.2
8.537194257497582
% es.tEX (V/m) @ t=0.2
-6.375827341049189
% es.tEY (V/m) @ t=0.2
0
% es.tEZ (V/m) @ t=0.2
8.537194257497571
% es.Ex (V/m) @ t=0.2
-6.3758273410491695
% es.Ey (V/m) @ t=0.2
-0.6882150886719542
% es.Ez (V/m) @ t=0.2
8.537194257497582
% es.tEx (V/m) @ t=0.2
-6.375827341049189
% es.tEy (V/m) @ t=0.2
0
% es.tEz (V/m) @ t=0.2
8.537194257497571
% V (V) @ t=0.2
0.009423801276348566
% es.normE (V/m) @ t=0.22
11.646487586160578
% es.EX (V/m) @ t=0.22
-6.471257896585825
% es.EY (V/m) @ t=0.22
-0.6985158821255513
% es.EZ (V/m) @ t=0.22
8.664975030611513
% es.tEX (V/m) @ t=0.22
-6.471257896585837
% es.tEY (V/m) @ t=0.22
0
% es.tEZ (V/m) @ t=0.22
8.664975030611505
% es.Ex (V/m) @ t=0.22
-6.471257896585825
% es.Ey (V/m) @ t=0.22
-0.6985158821255513
% es.Ez (V/m) @ t=0.22
8.664975030611513
% es.tEx (V/m) @ t=0.22
-6.471257896585837
% es.tEy (V/m) @ t=0.22
0
% es.tEz (V/m) @ t=0.22
8.664975030611505
% V (V) @ t=0.22
0.009564852208133157
% es.normE (V/m) @ t=0.24
11.818236195851448
% es.EX (V/m) @ t=0.24
-6.56668845212245
% es.EY (V/m) @ t=0.24
-0.7088166755791583
% es.EZ (V/m) @ t=0.24
8.792755803725463
% es.tEX (V/m) @ t=0.24
-6.5666884521224524
% es.tEY (V/m) @ t=0.24
0
% es.tEZ (V/m) @ t=0.24
8.792755803725445
% es.Ex (V/m) @ t=0.24
-6.56668845212245
% es.Ey (V/m) @ t=0.24
-0.7088166755791583
% es.Ez (V/m) @ t=0.24
8.792755803725463
% es.tEx (V/m) @ t=0.24
-6.5666884521224524
% es.tEy (V/m) @ t=0.24
0
% es.tEz (V/m) @ t=0.24
8.792755803725445
% V (V) @ t=0.24
0.009705903139917744
% es.normE (V/m) @ t=0.26
11.989984805542296
% es.EX (V/m) @ t=0.26
-6.662119007659101
% es.EY (V/m) @ t=0.26
-0.7191174690327404
% es.EZ (V/m) @ t=0.26
8.920536576839375
% es.tEX (V/m) @ t=0.26
-6.66211900765911
% es.tEY (V/m) @ t=0.26
0
% es.tEZ (V/m) @ t=0.26
8.920536576839364
% es.Ex (V/m) @ t=0.26
-6.662119007659101
% es.Ey (V/m) @ t=0.26
-0.7191174690327404
% es.Ez (V/m) @ t=0.26
8.920536576839375
% es.tEx (V/m) @ t=0.26
-6.66211900765911
% es.tEy (V/m) @ t=0.26
0
% es.tEz (V/m) @ t=0.26
8.920536576839364
% V (V) @ t=0.26
0.009846954071702337
% es.normE (V/m) @ t=0.28
12.166988392284027
% es.EX (V/m) @ t=0.28
-6.760469877172924
% es.EY (V/m) @ t=0.28
-0.7297330505883632
% es.EZ (V/m) @ t=0.28
9.052226974564
% es.tEX (V/m) @ t=0.28
-6.760469877172941
% es.tEY (V/m) @ t=0.28
0
% es.tEZ (V/m) @ t=0.28
9.052226974563983
% es.Ex (V/m) @ t=0.28
-6.760469877172924
% es.Ey (V/m) @ t=0.28
-0.7297330505883632
% es.Ez (V/m) @ t=0.28
9.052226974564
% es.tEx (V/m) @ t=0.28
-6.760469877172941
% es.tEy (V/m) @ t=0.28
0
% es.tEz (V/m) @ t=0.28
9.052226974563983
% V (V) @ t=0.28
0.009992319967136577
% es.normE (V/m) @ t=0.3
12.354089850947346
% es.EX (V/m) @ t=0.3
-6.8644323709101265
% es.EY (V/m) @ t=0.3
-0.740953523451124
% es.EZ (V/m) @ t=0.3
9.191430038508951
% es.tEX (V/m) @ t=0.3
-6.864432370910132
% es.tEY (V/m) @ t=0.3
0
% es.tEZ (V/m) @ t=0.3
9.19143003850894
% es.Ex (V/m) @ t=0.3
-6.8644323709101265
% es.Ey (V/m) @ t=0.3
-0.740953523451124
% es.Ez (V/m) @ t=0.3
9.191430038508951
% es.tEx (V/m) @ t=0.3
-6.864432370910132
% es.tEy (V/m) @ t=0.3
0
% es.tEz (V/m) @ t=0.3
9.19143003850894
% V (V) @ t=0.3
0.010145977421193626
% es.normE (V/m) @ t=0.32
12.541191309611053
% es.EX (V/m) @ t=0.32
-6.968394864647307
% es.EY (V/m) @ t=0.32
-0.7521739963138772
% es.EZ (V/m) @ t=0.32
9.330633102453913
% es.tEX (V/m) @ t=0.32
-6.968394864647323
% es.tEY (V/m) @ t=0.32
0
% es.tEZ (V/m) @ t=0.32
9.330633102453898
% es.Ex (V/m) @ t=0.32
-6.968394864647307
% es.Ey (V/m) @ t=0.32
-0.7521739963138772
% es.Ez (V/m) @ t=0.32
9.330633102453913
% es.tEx (V/m) @ t=0.32
-6.968394864647323
% es.tEy (V/m) @ t=0.32
0
% es.tEz (V/m) @ t=0.32
9.330633102453898
% V (V) @ t=0.32
0.010299634875250673
% es.normE (V/m) @ t=0.34
12.72829276827514
% es.EX (V/m) @ t=0.34
-7.072357358384478
% es.EY (V/m) @ t=0.34
-0.7633944691765957
% es.EZ (V/m) @ t=0.34
9.469836166398878
% es.tEX (V/m) @ t=0.34
-7.072357358384483
% es.tEY (V/m) @ t=0.34
0
% es.tEZ (V/m) @ t=0.34
9.469836166398863
% es.Ex (V/m) @ t=0.34
-7.072357358384478
% es.Ey (V/m) @ t=0.34
-0.7633944691765957
% es.Ez (V/m) @ t=0.34
9.469836166398878
% es.tEx (V/m) @ t=0.34
-7.072357358384483
% es.tEy (V/m) @ t=0.34
0
% es.tEz (V/m) @ t=0.34
9.469836166398863
% V (V) @ t=0.34
0.010453292329307721
% es.normE (V/m) @ t=0.36
12.91539422693958
% es.EX (V/m) @ t=0.36
-7.176319852121647
% es.EY (V/m) @ t=0.36
-0.7746149420393347
% es.EZ (V/m) @ t=0.36
9.609039230343818
% es.tEX (V/m) @ t=0.36
-7.17631985212166
% es.tEY (V/m) @ t=0.36
0
% es.tEZ (V/m) @ t=0.36
9.609039230343805
% es.Ex (V/m) @ t=0.36
-7.176319852121647
% es.Ey (V/m) @ t=0.36
-0.7746149420393347
% es.Ez (V/m) @ t=0.36
9.609039230343818
% es.tEx (V/m) @ t=0.36
-7.17631985212166
% es.tEy (V/m) @ t=0.36
0
% es.tEz (V/m) @ t=0.36
9.609039230343805
% V (V) @ t=0.36
0.01060694978336477
% es.normE (V/m) @ t=0.38
13.102495685604381
% es.EX (V/m) @ t=0.38
-7.28028234585881
% es.EY (V/m) @ t=0.38
-0.7858354149020581
% es.EZ (V/m) @ t=0.38
9.748242294288785
% es.tEX (V/m) @ t=0.38
-7.280282345858822
% es.tEY (V/m) @ t=0.38
0
% es.tEZ (V/m) @ t=0.38
9.748242294288772
% es.Ex (V/m) @ t=0.38
-7.28028234585881
% es.Ey (V/m) @ t=0.38
-0.7858354149020581
% es.Ez (V/m) @ t=0.38
9.748242294288785
% es.tEx (V/m) @ t=0.38
-7.280282345858822
% es.tEy (V/m) @ t=0.38
0
% es.tEz (V/m) @ t=0.38
9.748242294288772
% V (V) @ t=0.38
0.010760607237421817
% es.normE (V/m) @ t=0.4
13.289597144269528
% es.EX (V/m) @ t=0.4
-7.384244839595999
% es.EY (V/m) @ t=0.4
-0.797055887764778
% es.EZ (V/m) @ t=0.4
9.88744535823375
% es.tEX (V/m) @ t=0.4
-7.384244839596004
% es.tEY (V/m) @ t=0.4
0
% es.tEZ (V/m) @ t=0.4
9.887445358233728
% es.Ex (V/m) @ t=0.4
-7.384244839595999
% es.Ey (V/m) @ t=0.4
-0.797055887764778
% es.Ez (V/m) @ t=0.4
9.88744535823375
% es.tEx (V/m) @ t=0.4
-7.384244839596004
% es.tEy (V/m) @ t=0.4
0
% es.tEz (V/m) @ t=0.4
9.887445358233728
% V (V) @ t=0.4
0.010914264691478864
% es.normE (V/m) @ t=0.42
13.485260049981054
% es.EX (V/m) @ t=0.42
-7.492964628846686
% es.EY (V/m) @ t=0.42
-0.8087896608938752
% es.EZ (V/m) @ t=0.42
10.033018094223248
% es.tEX (V/m) @ t=0.42
-7.492964628846705
% es.tEY (V/m) @ t=0.42
0
% es.tEZ (V/m) @ t=0.42
10.033018094223227
% es.Ex (V/m) @ t=0.42
-7.492964628846686
% es.Ey (V/m) @ t=0.42
-0.8087896608938752
% es.Ez (V/m) @ t=0.42
10.033018094223248
% es.tEx (V/m) @ t=0.42
-7.492964628846705
% es.tEy (V/m) @ t=0.42
0
% es.tEz (V/m) @ t=0.42
10.033018094223227
% V (V) @ t=0.42
0.01107495299421678
% es.normE (V/m) @ t=0.44
13.68887606184878
% es.EX (V/m) @ t=0.44
-7.606103679938201
% es.EY (V/m) @ t=0.44
-0.8210002613029932
% es.EZ (V/m) @ t=0.44
10.184507899800979
% es.tEX (V/m) @ t=0.44
-7.606103679938199
% es.tEY (V/m) @ t=0.44
0
% es.tEZ (V/m) @ t=0.44
10.18450789980097
% es.Ex (V/m) @ t=0.44
-7.606103679938201
% es.Ey (V/m) @ t=0.44
-0.8210002613029932
% es.Ez (V/m) @ t=0.44
10.184507899800979
% es.tEx (V/m) @ t=0.44
-7.606103679938199
% es.tEy (V/m) @ t=0.44
0
% es.tEz (V/m) @ t=0.44
10.18450789980097
% V (V) @ t=0.44
0.011242172562711863
% es.normE (V/m) @ t=0.46
13.892492073717015
% es.EX (V/m) @ t=0.46
-7.7192427310297305
% es.EY (V/m) @ t=0.46
-0.8332108617121139
% es.EZ (V/m) @ t=0.46
10.335997705378704
% es.tEX (V/m) @ t=0.46
-7.719242731029752
% es.tEY (V/m) @ t=0.46
0
% es.tEZ (V/m) @ t=0.46
10.33599770537869
% es.Ex (V/m) @ t=0.46
-7.7192427310297305
% es.Ey (V/m) @ t=0.46
-0.8332108617121139
% es.Ez (V/m) @ t=0.46
10.335997705378704
% es.tEx (V/m) @ t=0.46
-7.719242731029752
% es.tEy (V/m) @ t=0.46
0
% es.tEz (V/m) @ t=0.46
10.33599770537869
% V (V) @ t=0.46
0.011409392131206947
% es.normE (V/m) @ t=0.48
14.09610808558574
% es.EX (V/m) @ t=0.48
-7.832381782121255
% es.EY (V/m) @ t=0.48
-0.8454214621212386
% es.EZ (V/m) @ t=0.48
10.487487510956436
% es.tEX (V/m) @ t=0.48
-7.83238178212126
% es.tEY (V/m) @ t=0.48
0
% es.tEZ (V/m) @ t=0.48
10.487487510956427
% es.Ex (V/m) @ t=0.48
-7.832381782121255
% es.Ey (V/m) @ t=0.48
-0.8454214621212386
% es.Ez (V/m) @ t=0.48
10.487487510956436
% es.tEx (V/m) @ t=0.48
-7.83238178212126
% es.tEy (V/m) @ t=0.48
0
% es.tEz (V/m) @ t=0.48
10.487487510956427
% V (V) @ t=0.48
0.01157661169970203
% es.normE (V/m) @ t=0.5
14.299724097454927
% es.EX (V/m) @ t=0.5
-7.945520833212772
% es.EY (V/m) @ t=0.5
-0.8576320625303775
% es.EZ (V/m) @ t=0.5
10.638977316534156
% es.tEX (V/m) @ t=0.5
-7.945520833212784
% es.tEY (V/m) @ t=0.5
0
% es.tEZ (V/m) @ t=0.5
10.638977316534149
% es.Ex (V/m) @ t=0.5
-7.945520833212772
% es.Ey (V/m) @ t=0.5
-0.8576320625303775
% es.Ez (V/m) @ t=0.5
10.638977316534156
% es.tEx (V/m) @ t=0.5
-7.945520833212784
% es.tEy (V/m) @ t=0.5
0
% es.tEz (V/m) @ t=0.5
10.638977316534149
% V (V) @ t=0.5
0.011743831268197112
% es.normE (V/m) @ t=0.52
14.503340109324576
% es.EX (V/m) @ t=0.52
-8.058659884304308
% es.EY (V/m) @ t=0.52
-0.8698426629394671
% es.EZ (V/m) @ t=0.52
10.790467122111897
% es.tEX (V/m) @ t=0.52
-8.058659884304321
% es.tEY (V/m) @ t=0.52
0
% es.tEZ (V/m) @ t=0.52
10.790467122111885
% es.Ex (V/m) @ t=0.52
-8.058659884304308
% es.Ey (V/m) @ t=0.52
-0.8698426629394671
% es.Ez (V/m) @ t=0.52
10.790467122111897
% es.tEx (V/m) @ t=0.52
-8.058659884304321
% es.tEy (V/m) @ t=0.52
0
% es.tEz (V/m) @ t=0.52
10.790467122111885
% V (V) @ t=0.52
0.011911050836692196
% es.normE (V/m) @ t=0.54
14.706956121194638
% es.EX (V/m) @ t=0.54
-8.171798935395847
% es.EY (V/m) @ t=0.54
-0.8820532633485842
% es.EZ (V/m) @ t=0.54
10.94195692768961
% es.tEX (V/m) @ t=0.54
-8.17179893539586
% es.tEY (V/m) @ t=0.54
0
% es.tEZ (V/m) @ t=0.54
10.941956927689588
% es.Ex (V/m) @ t=0.54
-8.171798935395847
% es.Ey (V/m) @ t=0.54
-0.8820532633485842
% es.Ez (V/m) @ t=0.54
10.94195692768961
% es.tEx (V/m) @ t=0.54
-8.17179893539586
% es.tEy (V/m) @ t=0.54
0
% es.tEz (V/m) @ t=0.54
10.941956927689588
% V (V) @ t=0.54
0.01207827040518728
% es.normE (V/m) @ t=0.56
14.915912638249562
% es.EX (V/m) @ t=0.56
-8.287905978559124
% es.EY (V/m) @ t=0.56
-0.8945836430991347
% es.EZ (V/m) @ t=0.56
11.097419965568054
% es.tEX (V/m) @ t=0.56
-8.28790597855913
% es.tEY (V/m) @ t=0.56
0
% es.tEZ (V/m) @ t=0.56
11.097419965568037
% es.Ex (V/m) @ t=0.56
-8.287905978559124
% es.Ey (V/m) @ t=0.56
-0.8945836430991347
% es.Ez (V/m) @ t=0.56
11.097419965568054
% es.tEx (V/m) @ t=0.56
-8.28790597855913
% es.tEy (V/m) @ t=0.56
0
% es.tEz (V/m) @ t=0.56
11.097419965568037
% V (V) @ t=0.56
0.012249874906155728
% es.normE (V/m) @ t=0.58
15.12895076113509
% es.EX (V/m) @ t=0.58
-8.406281378989
% es.EY (V/m) @ t=0.58
-0.9073584216807302
% es.EZ (V/m) @ t=0.58
11.25591963903825
% es.tEX (V/m) @ t=0.58
-8.406281378989013
% es.tEY (V/m) @ t=0.58
0
% es.tEZ (V/m) @ t=0.58
11.25591963903824
% es.Ex (V/m) @ t=0.58
-8.406281378989
% es.Ey (V/m) @ t=0.58
-0.9073584216807302
% es.Ez (V/m) @ t=0.58
11.25591963903825
% es.tEx (V/m) @ t=0.58
-8.406281378989013
% es.tEy (V/m) @ t=0.58
0
% es.tEz (V/m) @ t=0.58
11.25591963903824
% V (V) @ t=0.58
0.012424830694189308
% es.normE (V/m) @ t=0.6
15.344034284404117
% es.EX (V/m) @ t=0.6
-8.525793513100098
% es.EY (V/m) @ t=0.6
-0.9202556749654809
% es.EZ (V/m) @ t=0.6
11.415941050730932
% es.tEX (V/m) @ t=0.6
-8.525793513100103
% es.tEY (V/m) @ t=0.6
0
% es.tEZ (V/m) @ t=0.6
11.415941050730924
% es.Ex (V/m) @ t=0.6
-8.525793513100098
% es.Ey (V/m) @ t=0.6
-0.9202556749654809
% es.Ez (V/m) @ t=0.6
11.415941050730932
% es.tEx (V/m) @ t=0.6
-8.525793513100103
% es.tEy (V/m) @ t=0.6
0
% es.tEz (V/m) @ t=0.6
11.415941050730924
% V (V) @ t=0.6
0.012601465900601294
% es.normE (V/m) @ t=0.62
15.561163208056783
% es.EX (V/m) @ t=0.62
-8.646442380892372
% es.EY (V/m) @ t=0.62
-0.9332754029533277
% es.EZ (V/m) @ t=0.62
11.577484200645985
% es.tEX (V/m) @ t=0.62
-8.646442380892378
% es.tEY (V/m) @ t=0.62
0
% es.tEZ (V/m) @ t=0.62
11.57748420064597
% es.Ex (V/m) @ t=0.62
-8.646442380892372
% es.Ey (V/m) @ t=0.62
-0.9332754029533277
% es.Ez (V/m) @ t=0.62
11.577484200645985
% es.tEx (V/m) @ t=0.62
-8.646442380892378
% es.tEy (V/m) @ t=0.62
0
% es.tEz (V/m) @ t=0.62
11.57748420064597
% V (V) @ t=0.62
0.012779780525391688
% es.normE (V/m) @ t=0.64
15.780337532093522
% es.EX (V/m) @ t=0.64
-8.768227982365863
% es.EY (V/m) @ t=0.64
-0.9464176056443696
% es.EZ (V/m) @ t=0.64
11.740549088783514
% es.tEX (V/m) @ t=0.64
-8.768227982365868
% es.tEY (V/m) @ t=0.64
0
% es.tEZ (V/m) @ t=0.64
11.740549088783492
% es.Ex (V/m) @ t=0.64
-8.768227982365863
% es.Ey (V/m) @ t=0.64
-0.9464176056443696
% es.Ez (V/m) @ t=0.64
11.740549088783514
% es.tEx (V/m) @ t=0.64
-8.768227982365868
% es.tEy (V/m) @ t=0.64
0
% es.tEz (V/m) @ t=0.64
11.740549088783492
% V (V) @ t=0.64
0.012959774568560487
% es.normE (V/m) @ t=0.66
16.001557256514527
% es.EX (V/m) @ t=0.66
-8.891150317520554
% es.EY (V/m) @ t=0.66
-0.9596822830385574
% es.EZ (V/m) @ t=0.66
11.905135715143478
% es.tEX (V/m) @ t=0.66
-8.891150317520573
% es.tEY (V/m) @ t=0.66
0
% es.tEZ (V/m) @ t=0.66
11.905135715143473
% es.Ex (V/m) @ t=0.66
-8.891150317520554
% es.Ey (V/m) @ t=0.66
-0.9596822830385574
% es.Ez (V/m) @ t=0.66
11.905135715143478
% es.tEx (V/m) @ t=0.66
-8.891150317520573
% es.tEy (V/m) @ t=0.66
0
% es.tEz (V/m) @ t=0.66
11.905135715143473
% V (V) @ t=0.66
0.013141448030107694
% es.normE (V/m) @ t=0.68
16.224822381320127
% es.EX (V/m) @ t=0.68
-9.015209386356451
% es.EY (V/m) @ t=0.68
-0.9730694351359395
% es.EZ (V/m) @ t=0.68
12.071244079725876
% es.tEX (V/m) @ t=0.68
-9.015209386356457
% es.tEY (V/m) @ t=0.68
0
% es.tEZ (V/m) @ t=0.68
12.071244079725854
% es.Ex (V/m) @ t=0.68
-9.015209386356451
% es.Ey (V/m) @ t=0.68
-0.9730694351359395
% es.Ez (V/m) @ t=0.68
12.071244079725876
% es.tEx (V/m) @ t=0.68
-9.015209386356457
% es.tEy (V/m) @ t=0.68
0
% es.tEz (V/m) @ t=0.68
12.071244079725854
% V (V) @ t=0.68
0.01332480091003331
% es.normE (V/m) @ t=0.7
16.450132906510547
% es.EX (V/m) @ t=0.7
-9.14040518887356
% es.EY (V/m) @ t=0.7
-0.9865790619363826
% es.EZ (V/m) @ t=0.7
12.238874182530669
% es.tEX (V/m) @ t=0.7
-9.140405188873565
% es.tEY (V/m) @ t=0.7
0
% es.tEZ (V/m) @ t=0.7
12.238874182530655
% es.Ex (V/m) @ t=0.7
-9.14040518887356
% es.Ey (V/m) @ t=0.7
-0.9865790619363826
% es.Ez (V/m) @ t=0.7
12.238874182530669
% es.tEx (V/m) @ t=0.7
-9.140405188873565
% es.tEy (V/m) @ t=0.7
0
% es.tEz (V/m) @ t=0.7
12.238874182530655
% V (V) @ t=0.7
0.013509833208337329
% es.normE (V/m) @ t=0.72
16.677488832086194
% es.EX (V/m) @ t=0.72
-9.266737725071854
% es.EY (V/m) @ t=0.72
-1.0002111634400843
% es.EZ (V/m) @ t=0.72
12.408026023557904
% es.tEX (V/m) @ t=0.72
-9.26673772507186
% es.tEY (V/m) @ t=0.72
0
% es.tEZ (V/m) @ t=0.72
12.408026023557886
% es.Ex (V/m) @ t=0.72
-9.266737725071854
% es.Ey (V/m) @ t=0.72
-1.0002111634400843
% es.Ez (V/m) @ t=0.72
12.408026023557904
% es.tEx (V/m) @ t=0.72
-9.26673772507186
% es.tEy (V/m) @ t=0.72
0
% es.tEz (V/m) @ t=0.72
12.408026023557886
% V (V) @ t=0.72
0.013696544925019753
% es.normE (V/m) @ t=0.74
16.90689015804734
% es.EX (V/m) @ t=0.74
-9.394206994951357
% es.EY (V/m) @ t=0.74
-1.0139657396468817
% es.EZ (V/m) @ t=0.74
12.5786996028076
% es.tEX (V/m) @ t=0.74
-9.394206994951384
% es.tEY (V/m) @ t=0.74
0
% es.tEZ (V/m) @ t=0.74
12.578699602807582
% es.Ex (V/m) @ t=0.74
-9.394206994951357
% es.Ey (V/m) @ t=0.74
-1.0139657396468817
% es.Ez (V/m) @ t=0.74
12.5786996028076
% es.tEx (V/m) @ t=0.74
-9.394206994951384
% es.tEy (V/m) @ t=0.74
0
% es.tEz (V/m) @ t=0.74
12.578699602807582
% V (V) @ t=0.74
0.013884936060080589
% es.normE (V/m) @ t=0.76
17.1383368843943
% es.EX (V/m) @ t=0.76
-9.52281299851207
% es.EY (V/m) @ t=0.76
-1.0278427905568392
% es.EZ (V/m) @ t=0.76
12.750894920279714
% es.tEX (V/m) @ t=0.76
-9.522812998512089
% es.tEY (V/m) @ t=0.76
0
% es.tEZ (V/m) @ t=0.76
12.750894920279695
% es.Ex (V/m) @ t=0.76
-9.52281299851207
% es.Ey (V/m) @ t=0.76
-1.0278427905568392
% es.Ez (V/m) @ t=0.76
12.750894920279714
% es.tEx (V/m) @ t=0.76
-9.522812998512089
% es.tEy (V/m) @ t=0.76
0
% es.tEz (V/m) @ t=0.76
12.750894920279695
% V (V) @ t=0.76
0.014075006613519828
% es.normE (V/m) @ t=0.78
17.37182901112738
% es.EX (V/m) @ t=0.78
-9.65255573575397
% es.EY (V/m) @ t=0.78
-1.0418423161699737
% es.EZ (V/m) @ t=0.78
12.92461197597423
% es.tEX (V/m) @ t=0.78
-9.652555735753982
% es.tEY (V/m) @ t=0.78
0
% es.tEZ (V/m) @ t=0.78
12.924611975974205
% es.Ex (V/m) @ t=0.78
-9.65255573575397
% es.Ey (V/m) @ t=0.78
-1.0418423161699737
% es.Ez (V/m) @ t=0.78
12.92461197597423
% es.tEx (V/m) @ t=0.78
-9.652555735753982
% es.tEy (V/m) @ t=0.78
0
% es.tEz (V/m) @ t=0.78
12.924611975974205
% V (V) @ t=0.78
0.014266756585337473
% es.normE (V/m) @ t=0.8
17.607366538246943
% es.EX (V/m) @ t=0.8
-9.783435206677096
% es.EY (V/m) @ t=0.8
-1.0559643164862358
% es.EZ (V/m) @ t=0.8
13.099850769891205
% es.tEX (V/m) @ t=0.8
-9.783435206677108
% es.tEY (V/m) @ t=0.8
0
% es.tEZ (V/m) @ t=0.8
13.099850769891189
% es.Ex (V/m) @ t=0.8
-9.783435206677096
% es.Ey (V/m) @ t=0.8
-1.0559643164862358
% es.Ez (V/m) @ t=0.8
13.099850769891205
% es.tEx (V/m) @ t=0.8
-9.783435206677108
% es.tEy (V/m) @ t=0.8
0
% es.tEz (V/m) @ t=0.8
13.099850769891189
% V (V) @ t=0.8
0.014460185975533526
% es.normE (V/m) @ t=0.82
17.845135901441886
% es.EX (V/m) @ t=0.82
-9.915554435175267
% es.EY (V/m) @ t=0.82
-1.0702204760910377
% es.EZ (V/m) @ t=0.82
13.276750104683188
% es.tEX (V/m) @ t=0.82
-9.915554435175277
% es.tEY (V/m) @ t=0.82
0
% es.tEZ (V/m) @ t=0.82
13.276750104683181
% es.Ex (V/m) @ t=0.82
-9.915554435175267
% es.Ey (V/m) @ t=0.82
-1.0702204760910377
% es.Ez (V/m) @ t=0.82
13.276750104683188
% es.tEx (V/m) @ t=0.82
-9.915554435175277
% es.tEy (V/m) @ t=0.82
0
% es.tEz (V/m) @ t=0.82
13.276750104683181
% V (V) @ t=0.82
0.014655448890434415
% es.normE (V/m) @ t=0.84
18.089049435483552
% es.EX (V/m) @ t=0.84
-10.051075367626709
% es.EY (V/m) @ t=0.84
-1.0848559948702077
% es.EZ (V/m) @ t=0.84
13.458222740496177
% es.tEX (V/m) @ t=0.84
-10.051075367626721
% es.tEY (V/m) @ t=0.84
0
% es.tEZ (V/m) @ t=0.84
13.458222740496172
% es.Ex (V/m) @ t=0.84
-10.051075367626709
% es.Ey (V/m) @ t=0.84
-1.0848559948702077
% es.Ez (V/m) @ t=0.84
13.458222740496177
% es.tEx (V/m) @ t=0.84
-10.051075367626721
% es.tEy (V/m) @ t=0.84
0
% es.tEz (V/m) @ t=0.84
13.458222740496172
% V (V) @ t=0.84
0.014855779236291205
% es.normE (V/m) @ t=0.86
18.335589754236626
% es.EX (V/m) @ t=0.86
-10.188054305272477
% es.EY (V/m) @ t=0.86
-1.0996504257679955
% es.EZ (V/m) @ t=0.86
13.641649959151962
% es.tEX (V/m) @ t=0.86
-10.188054305272503
% es.tEY (V/m) @ t=0.86
0
% es.tEZ (V/m) @ t=0.86
13.641649959151946
% es.Ex (V/m) @ t=0.86
-10.188054305272477
% es.Ey (V/m) @ t=0.86
-1.0996504257679955
% es.Ez (V/m) @ t=0.86
13.641649959151962
% es.tEx (V/m) @ t=0.86
-10.188054305272503
% es.tEy (V/m) @ t=0.86
0
% es.tEz (V/m) @ t=0.86
13.641649959151946
% V (V) @ t=0.86
0.015058269568391052
% es.normE (V/m) @ t=0.88
18.584756857707234
% es.EX (V/m) @ t=0.88
-10.326491248112525
% es.EY (V/m) @ t=0.88
-1.1146037687843453
% es.EZ (V/m) @ t=0.88
13.827031760650568
% es.tEX (V/m) @ t=0.88
-10.326491248112552
% es.tEY (V/m) @ t=0.88
0
% es.tEZ (V/m) @ t=0.88
13.827031760650561
% es.Ex (V/m) @ t=0.88
-10.326491248112525
% es.Ey (V/m) @ t=0.88
-1.1146037687843453
% es.Ez (V/m) @ t=0.88
13.827031760650568
% es.tEx (V/m) @ t=0.88
-10.326491248112552
% es.tEy (V/m) @ t=0.88
0
% es.tEz (V/m) @ t=0.88
13.827031760650561
% V (V) @ t=0.88
0.015262919886733959
% es.normE (V/m) @ t=0.9
18.836550745902358
% es.EX (V/m) @ t=0.9
-10.466386196146912
% es.EY (V/m) @ t=0.9
-1.129716023919292
% es.EZ (V/m) @ t=0.9
14.014368144991964
% es.tEX (V/m) @ t=0.9
-10.466386196146924
% es.tEY (V/m) @ t=0.9
0
% es.tEZ (V/m) @ t=0.9
14.014368144991947
% es.Ex (V/m) @ t=0.9
-10.466386196146912
% es.Ey (V/m) @ t=0.9
-1.129716023919292
% es.Ez (V/m) @ t=0.9
14.014368144991964
% es.tEx (V/m) @ t=0.9
-10.466386196146924
% es.tEy (V/m) @ t=0.9
0
% es.tEz (V/m) @ t=0.9
14.014368144991947
% V (V) @ t=0.9
0.015469730191319923
% es.normE (V/m) @ t=0.92
19.090971418829497
% es.EX (V/m) @ t=0.92
-10.607739149375558
% es.EY (V/m) @ t=0.92
-1.144987191172786
% es.EZ (V/m) @ t=0.92
14.203659112176192
% es.tEX (V/m) @ t=0.92
-10.60773914937557
% es.tEY (V/m) @ t=0.92
0
% es.tEZ (V/m) @ t=0.92
14.203659112176167
% es.Ex (V/m) @ t=0.92
-10.607739149375558
% es.Ey (V/m) @ t=0.92
-1.144987191172786
% es.Ez (V/m) @ t=0.92
14.203659112176192
% es.tEx (V/m) @ t=0.92
-10.60773914937557
% es.tEy (V/m) @ t=0.92
0
% es.tEz (V/m) @ t=0.92
14.203659112176167
% V (V) @ t=0.92
0.015678700482148946
% es.normE (V/m) @ t=0.94
19.348018876496766
% es.EX (V/m) @ t=0.94
-10.750550107798524
% es.EY (V/m) @ t=0.94
-1.1604172705448552
% es.EZ (V/m) @ t=0.94
14.394904662203153
% es.tEX (V/m) @ t=0.94
-10.750550107798544
% es.tEY (V/m) @ t=0.94
0
% es.tEZ (V/m) @ t=0.94
14.394904662203125
% es.Ex (V/m) @ t=0.94
-10.750550107798524
% es.Ey (V/m) @ t=0.94
-1.1604172705448552
% es.Ez (V/m) @ t=0.94
14.394904662203153
% es.tEx (V/m) @ t=0.94
-10.750550107798544
% es.tEy (V/m) @ t=0.94
0
% es.tEz (V/m) @ t=0.94
14.394904662203125
% V (V) @ t=0.94
0.015889830759221027
% es.normE (V/m) @ t=0.96
19.607693118913026
% es.EX (V/m) @ t=0.96
-10.89481907141576
% es.EY (V/m) @ t=0.96
-1.1760062620355791
% es.EZ (V/m) @ t=0.96
14.58810479507304
% es.tEX (V/m) @ t=0.96
-10.894819071415773
% es.tEY (V/m) @ t=0.96
0
% es.tEZ (V/m) @ t=0.96
14.588104795073027
% es.Ex (V/m) @ t=0.96
-10.89481907141576
% es.Ey (V/m) @ t=0.96
-1.1760062620355791
% es.Ez (V/m) @ t=0.96
14.58810479507304
% es.tEx (V/m) @ t=0.96
-10.894819071415773
% es.tEy (V/m) @ t=0.96
0
% es.tEz (V/m) @ t=0.96
14.588104795073027
% V (V) @ t=0.96
0.016103121022536162
% es.normE (V/m) @ t=0.98
19.8699941460874
% es.EX (V/m) @ t=0.98
-11.04054604022734
% es.EY (V/m) @ t=0.98
-1.1917541656449604
% es.EZ (V/m) @ t=0.98
14.783259510785708
% es.tEX (V/m) @ t=0.98
-11.040546040227344
% es.tEY (V/m) @ t=0.98
0
% es.tEZ (V/m) @ t=0.98
14.783259510785689
% es.Ex (V/m) @ t=0.98
-11.04054604022734
% es.Ey (V/m) @ t=0.98
-1.1917541656449604
% es.Ez (V/m) @ t=0.98
14.783259510785708
% es.tEx (V/m) @ t=0.98
-11.040546040227344
% es.tEy (V/m) @ t=0.98
0
% es.tEz (V/m) @ t=0.98
14.783259510785689
% V (V) @ t=0.98
0.016318571272094365
% es.normE (V/m) @ t=1
20.1349219580295
% es.EX (V/m) @ t=1
-11.187731014233202
% es.EY (V/m) @ t=1
-1.2076609813728347
% es.EZ (V/m) @ t=1
14.98036880934118
% es.tEX (V/m) @ t=1
-11.187731014233215
% es.tEY (V/m) @ t=1
0
% es.tEZ (V/m) @ t=1
14.980368809341156
% es.Ex (V/m) @ t=1
-11.187731014233202
% es.Ey (V/m) @ t=1
-1.2076609813728347
% es.Ez (V/m) @ t=1
14.98036880934118
% es.tEx (V/m) @ t=1
-11.187731014233215
% es.tEy (V/m) @ t=1
0
% es.tEz (V/m) @ t=1
14.980368809341156
% V (V) @ t=1
0.016536181507895625
% es.normE (V/m) @ t=1.02
20.40247655474942
% es.EX (V/m) @ t=1.02
-11.336373993433362
% es.EY (V/m) @ t=1.02
-1.2237267092193145
% es.EZ (V/m) @ t=1.02
15.179432690739421
% es.tEX (V/m) @ t=1.02
-11.33637399343341
% es.tEY (V/m) @ t=1.02
0
% es.tEZ (V/m) @ t=1.02
15.179432690739398
% es.Ex (V/m) @ t=1.02
-11.336373993433362
% es.Ey (V/m) @ t=1.02
-1.2237267092193145
% es.Ez (V/m) @ t=1.02
15.179432690739421
% es.tEx (V/m) @ t=1.02
-11.33637399343341
% es.tEy (V/m) @ t=1.02
0
% es.tEz (V/m) @ t=1.02
15.179432690739398
% V (V) @ t=1.02
0.016755951729939936
% es.normE (V/m) @ t=1.04
20.672657936257625
% es.EX (V/m) @ t=1.04
-11.486474977827767
% es.EY (V/m) @ t=1.04
-1.2399513491844152
% es.EZ (V/m) @ t=1.04
15.380451154980477
% es.tEX (V/m) @ t=1.04
-11.486474977827799
% es.tEY (V/m) @ t=1.04
0
% es.tEZ (V/m) @ t=1.04
15.380451154980458
% es.Ex (V/m) @ t=1.04
-11.486474977827767
% es.Ey (V/m) @ t=1.04
-1.2399513491844152
% es.Ez (V/m) @ t=1.04
15.380451154980477
% es.tEx (V/m) @ t=1.04