% Model:              1 neuron.mph
% Version:            COMSOL 6.0.0.405
% Date:               Mar 16 2023, 18:39
% Dimension:          0
% Nodes:              14017
% Expressions:        14017
% Description:        Electric field norm, Electric field, X component, Electric field, Y component, Electric field, Z component, Tangential electric field, X component, Tangential electric field, Y component, Tangential electric field, Z component, Electric field, x component, Electric field, y component, Electric field, z component, Tangential electric field, x component, Tangential electric field, y component, Tangential electric field, z component, Electric potential
% Length unit:        mm
% x
1.33
% y
12.2
% z
1
% es.normE (V/m) @ t=0
2.336884368468203
% es.EX (V/m) @ t=0
0.7213127037296593
% es.EY (V/m) @ t=0
0.17474752148042239
% es.EZ (V/m) @ t=0
2.2158810636392605
% es.tEX (V/m) @ t=0
0.7213127037296658
% es.tEY (V/m) @ t=0
0
% es.tEZ (V/m) @ t=0
2.2158810636392836
% es.Ex (V/m) @ t=0
0.7213127037296593
% es.Ey (V/m) @ t=0
0.17474752148042239
% es.Ez (V/m) @ t=0
2.2158810636392605
% es.tEx (V/m) @ t=0
0.7213127037296658
% es.tEy (V/m) @ t=0
0
% es.tEz (V/m) @ t=0
2.2158810636392836
% V (V) @ t=0
0.010929664307173894
% es.normE (V/m) @ t=0.02
2.029601958641523
% es.EX (V/m) @ t=0.02
0.6264656047852258
% es.EY (V/m) @ t=0.02
0.151769553278558
% es.EZ (V/m) @ t=0.02
1.9245096624221172
% es.tEX (V/m) @ t=0.02
0.6264656047852242
% es.tEY (V/m) @ t=0.02
0
% es.tEZ (V/m) @ t=0.02
1.9245096624221034
% es.Ex (V/m) @ t=0.02
0.6264656047852258
% es.Ey (V/m) @ t=0.02
0.151769553278558
% es.Ez (V/m) @ t=0.02
1.9245096624221172
% es.tEx (V/m) @ t=0.02
0.6264656047852242
% es.tEy (V/m) @ t=0.02
0
% es.tEz (V/m) @ t=0.02
1.9245096624221034
% V (V) @ t=0.02
0.009492496727763965
% es.normE (V/m) @ t=0.04
2.0596960985775787
% es.EX (V/m) @ t=0.04
0.6357545966958803
% es.EY (V/m) @ t=0.04
0.1540198999068384
% es.EZ (V/m) @ t=0.04
1.9530455355601348
% es.tEX (V/m) @ t=0.04
0.6357545966958753
% es.tEY (V/m) @ t=0.04
0
% es.tEZ (V/m) @ t=0.04
1.953045535560129
% es.Ex (V/m) @ t=0.04
0.6357545966958803
% es.Ey (V/m) @ t=0.04
0.1540198999068384
% es.Ez (V/m) @ t=0.04
1.9530455355601348
% es.tEx (V/m) @ t=0.04
0.6357545966958753
% es.tEy (V/m) @ t=0.04
0
% es.tEz (V/m) @ t=0.04
1.953045535560129
% V (V) @ t=0.04
0.00963324589213245
% es.normE (V/m) @ t=0.06
2.0902403743189932
% es.EX (V/m) @ t=0.06
0.6451825303279634
% es.EY (V/m) @ t=0.06
0.1563039019917083
% es.EZ (V/m) @ t=0.06
1.9820082366570162
% es.tEX (V/m) @ t=0.06
0.6451825303279577
% es.tEY (V/m) @ t=0.06
0
% es.tEZ (V/m) @ t=0.06
1.9820082366570269
% es.Ex (V/m) @ t=0.06
0.6451825303279634
% es.Ey (V/m) @ t=0.06
0.1563039019917083
% es.Ez (V/m) @ t=0.06
1.9820082366570162
% es.tEx (V/m) @ t=0.06
0.6451825303279577
% es.tEy (V/m) @ t=0.06
0
% es.tEz (V/m) @ t=0.06
1.9820082366570269
% V (V) @ t=0.06
0.009776100064658136
% es.normE (V/m) @ t=0.08
2.1215665844352016
% es.EX (V/m) @ t=0.08
0.6548518288841252
% es.EY (V/m) @ t=0.08
0.1586463246893497
% es.EZ (V/m) @ t=0.08
2.011712384451209
% es.tEX (V/m) @ t=0.08
0.6548518288841194
% es.tEY (V/m) @ t=0.08
0
% es.tEZ (V/m) @ t=0.08
2.011712384451206
% es.Ex (V/m) @ t=0.08
0.6548518288841252
% es.Ey (V/m) @ t=0.08
0.1586463246893497
% es.Ez (V/m) @ t=0.08
2.011712384451209
% es.tEx (V/m) @ t=0.08
0.6548518288841194
% es.tEy (V/m) @ t=0.08
0
% es.tEz (V/m) @ t=0.08
2.011712384451206
% V (V) @ t=0.08
0.009922608541015253
% es.normE (V/m) @ t=0.1
2.153431697929682
% es.EX (V/m) @ t=0.1
0.6646874743578456
% es.EY (V/m) @ t=0.1
0.1610290104404547
% es.EZ (V/m) @ t=0.1
2.0419275318162953
% es.tEX (V/m) @ t=0.1
0.6646874743578479
% es.tEY (V/m) @ t=0.1
0
% es.tEZ (V/m) @ t=0.1
2.041927531816297
% es.Ex (V/m) @ t=0.1
0.6646874743578456
% es.Ey (V/m) @ t=0.1
0.1610290104404547
% es.Ez (V/m) @ t=0.1
2.0419275318162953
% es.tEx (V/m) @ t=0.1
0.6646874743578479
% es.tEy (V/m) @ t=0.1
0
% es.tEz (V/m) @ t=0.1
2.041927531816297
% V (V) @ t=0.1
0.010071635536500884
% es.normE (V/m) @ t=0.12
2.185296811424186
% es.EX (V/m) @ t=0.12
0.6745231198315865
% es.EY (V/m) @ t=0.12
0.16341169619158624
% es.EZ (V/m) @ t=0.12
2.0721426791813866
% es.tEX (V/m) @ t=0.12
0.6745231198315764
% es.tEY (V/m) @ t=0.12
0
% es.tEZ (V/m) @ t=0.12
2.072142679181397
% es.Ex (V/m) @ t=0.12
0.6745231198315865
% es.Ey (V/m) @ t=0.12
0.16341169619158624
% es.Ez (V/m) @ t=0.12
2.0721426791813866
% es.tEx (V/m) @ t=0.12
0.6745231198315764
% es.tEy (V/m) @ t=0.12
0
% es.tEz (V/m) @ t=0.12
2.072142679181397
% V (V) @ t=0.12
0.010220662531986512
% es.normE (V/m) @ t=0.14
2.2177177091738427
% es.EX (V/m) @ t=0.14
0.6845303090317046
% es.EY (V/m) @ t=0.14
0.16583597918637794
% es.EZ (V/m) @ t=0.14
2.1028848319186304
% es.tEX (V/m) @ t=0.14
0.6845303090317074
% es.tEY (V/m) @ t=0.14
0
% es.tEZ (V/m) @ t=0.14
2.10288483191864
% es.Ex (V/m) @ t=0.14
0.6845303090317046
% es.Ey (V/m) @ t=0.14
0.16583597918637794
% es.Ez (V/m) @ t=0.14
2.1028848319186304
% es.tEx (V/m) @ t=0.14
0.6845303090317074
% es.tEy (V/m) @ t=0.14
0
% es.tEz (V/m) @ t=0.14
2.10288483191864
% V (V) @ t=0.14
0.010372291003299729
% es.normE (V/m) @ t=0.16
2.25244838673944
% es.EX (V/m) @ t=0.16
0.6952504155790062
% es.EY (V/m) @ t=0.16
0.16843313586894504
% es.EZ (V/m) @ t=0.16
2.1358171625175397
% es.tEX (V/m) @ t=0.16
0.6952504155790109
% es.tEY (V/m) @ t=0.16
0
% es.tEZ (V/m) @ t=0.16
2.135817162517551
% es.Ex (V/m) @ t=0.16
0.6952504155790062
% es.Ey (V/m) @ t=0.16
0.16843313586894504
% es.Ez (V/m) @ t=0.16
2.1358171625175397
% es.tEx (V/m) @ t=0.16
0.6952504155790109
% es.tEy (V/m) @ t=0.16
0
% es.tEz (V/m) @ t=0.16
2.135817162517551
% V (V) @ t=0.16
0.010534730929422398
% es.normE (V/m) @ t=0.18
2.2871790643050702
% es.EX (V/m) @ t=0.18
0.7059705221263091
% es.EY (V/m) @ t=0.18
0.17103029255153002
% es.EZ (V/m) @ t=0.18
2.168749493116479
% es.tEX (V/m) @ t=0.18
0.7059705221263144
% es.tEY (V/m) @ t=0.18
0
% es.tEZ (V/m) @ t=0.18
2.1687494931164952
% es.Ex (V/m) @ t=0.18
0.7059705221263091
% es.Ey (V/m) @ t=0.18
0.17103029255153002
% es.Ez (V/m) @ t=0.18
2.168749493116479
% es.tEx (V/m) @ t=0.18
0.7059705221263144
% es.tEy (V/m) @ t=0.18
0
% es.tEz (V/m) @ t=0.18
2.1687494931164952
% V (V) @ t=0.18
0.010697170855545066
% es.normE (V/m) @ t=0.2
2.321909741870706
% es.EX (V/m) @ t=0.2
0.7166906286736144
% es.EY (V/m) @ t=0.2
0.17362744923408646
% es.EZ (V/m) @ t=0.2
2.20168182371542
% es.tEX (V/m) @ t=0.2
0.7166906286736179
% es.tEY (V/m) @ t=0.2
0
% es.tEZ (V/m) @ t=0.2
2.201681823715427
% es.Ex (V/m) @ t=0.2
0.7166906286736144
% es.Ey (V/m) @ t=0.2
0.17362744923408646
% es.Ez (V/m) @ t=0.2
2.20168182371542
% es.tEx (V/m) @ t=0.2
0.7166906286736179
% es.tEy (V/m) @ t=0.2
0
% es.tEz (V/m) @ t=0.2
2.201681823715427
% V (V) @ t=0.2
0.010859610781667736
% es.normE (V/m) @ t=0.22
2.356640419436327
% es.EX (V/m) @ t=0.22
0.7274107352209167
% es.EY (V/m) @ t=0.22
0.1762246059166639
% es.EZ (V/m) @ t=0.22
2.2346141543143414
% es.tEX (V/m) @ t=0.22
0.7274107352209143
% es.tEY (V/m) @ t=0.22
0
% es.tEZ (V/m) @ t=0.22
2.234614154314354
% es.Ex (V/m) @ t=0.22
0.7274107352209167
% es.Ey (V/m) @ t=0.22
0.1762246059166639
% es.Ez (V/m) @ t=0.22
2.2346141543143414
% es.tEx (V/m) @ t=0.22
0.7274107352209143
% es.tEy (V/m) @ t=0.22
0
% es.tEz (V/m) @ t=0.22
2.234614154314354
% V (V) @ t=0.22
0.011022050707790406
% es.normE (V/m) @ t=0.24
2.39137109700195
% es.EX (V/m) @ t=0.24
0.7381308417682182
% es.EY (V/m) @ t=0.24
0.1788217625992492
% es.EZ (V/m) @ t=0.24
2.2675464849132614
% es.tEX (V/m) @ t=0.24
0.7381308417682177
% es.tEY (V/m) @ t=0.24
0
% es.tEZ (V/m) @ t=0.24
2.267546484913286
% es.Ex (V/m) @ t=0.24
0.7381308417682182
% es.Ey (V/m) @ t=0.24
0.1788217625992492
% es.Ez (V/m) @ t=0.24
2.2675464849132614
% es.tEx (V/m) @ t=0.24
0.7381308417682177
% es.tEy (V/m) @ t=0.24
0
% es.tEz (V/m) @ t=0.24
2.267546484913286
% V (V) @ t=0.24
0.011184490633913077
% es.normE (V/m) @ t=0.26
2.4261017745676074
% es.EX (V/m) @ t=0.26
0.7488509483155203
% es.EY (V/m) @ t=0.26
0.18141891928182718
% es.EZ (V/m) @ t=0.26
2.3004788155122142
% es.tEX (V/m) @ t=0.26
0.7488509483155283
% es.tEY (V/m) @ t=0.26
0
% es.tEZ (V/m) @ t=0.26
2.300478815512218
% es.Ex (V/m) @ t=0.26
0.7488509483155203
% es.Ey (V/m) @ t=0.26
0.18141891928182718
% es.Ez (V/m) @ t=0.26
2.3004788155122142
% es.tEx (V/m) @ t=0.26
0.7488509483155283
% es.tEy (V/m) @ t=0.26
0
% es.tEz (V/m) @ t=0.26
2.300478815512218
% V (V) @ t=0.26
0.011346930560035747
% es.normE (V/m) @ t=0.28
2.462061600857795
% es.EX (V/m) @ t=0.28
0.7599504665702848
% es.EY (V/m) @ t=0.28
0.18410789777976433
% es.EZ (V/m) @ t=0.28
2.334576651081863
% es.tEX (V/m) @ t=0.28
0.7599504665702881
% es.tEY (V/m) @ t=0.28
0
% es.tEZ (V/m) @ t=0.28
2.3345766510818766
% es.Ex (V/m) @ t=0.28
0.7599504665702848
% es.Ey (V/m) @ t=0.28
0.18410789777976433
% es.Ez (V/m) @ t=0.28
2.334576651081863
% es.tEx (V/m) @ t=0.28
0.7599504665702881
% es.tEy (V/m) @ t=0.28
0
% es.tEz (V/m) @ t=0.28
2.3345766510818766
% V (V) @ t=0.28
0.011515114119956312
% es.normE (V/m) @ t=0.3
2.499881671780307
% es.EX (V/m) @ t=0.3
0.7716242022310773
% es.EY (V/m) @ t=0.3
0.18693584321944268
% es.EZ (V/m) @ t=0.3
2.370438410188518
% es.tEX (V/m) @ t=0.3
0.7716242022310809
% es.tEY (V/m) @ t=0.3
0
% es.tEZ (V/m) @ t=0.3
2.3704384101885196
% es.Ex (V/m) @ t=0.3
0.7716242022310773
% es.Ey (V/m) @ t=0.3
0.18693584321944268
% es.Ez (V/m) @ t=0.3
2.370438410188518
% es.tEx (V/m) @ t=0.3
0.7716242022310809
% es.tEy (V/m) @ t=0.3
0
% es.tEz (V/m) @ t=0.3
2.3704384101885196
% V (V) @ t=0.3
0.011691990333360602
% es.normE (V/m) @ t=0.32
2.537701742702838
% es.EX (V/m) @ t=0.32
0.783297937891869
% es.EY (V/m) @ t=0.32
0.18976378865911203
% es.EZ (V/m) @ t=0.32
2.4063001692951747
% es.tEX (V/m) @ t=0.32
0.7832979378918736
% es.tEY (V/m) @ t=0.32
0
% es.tEZ (V/m) @ t=0.32
2.406300169295191
% es.Ex (V/m) @ t=0.32
0.783297937891869
% es.Ey (V/m) @ t=0.32
0.18976378865911203
% es.Ez (V/m) @ t=0.32
2.4063001692951747
% es.tEx (V/m) @ t=0.32
0.7832979378918736
% es.tEy (V/m) @ t=0.32
0
% es.tEz (V/m) @ t=0.32
2.406300169295191
% V (V) @ t=0.32
0.011868866546764893
% es.normE (V/m) @ t=0.34
2.5755218136253917
% es.EX (V/m) @ t=0.34
0.794971673552666
% es.EY (V/m) @ t=0.34
0.1925917340987776
% es.EZ (V/m) @ t=0.34
2.4421619284018377
% es.tEX (V/m) @ t=0.34
0.7949716735526664
% es.tEY (V/m) @ t=0.34
0
% es.tEZ (V/m) @ t=0.34
2.4421619284018465
% es.Ex (V/m) @ t=0.34
0.794971673552666
% es.Ey (V/m) @ t=0.34
0.1925917340987776
% es.Ez (V/m) @ t=0.34
2.4421619284018377
% es.tEx (V/m) @ t=0.34
0.7949716735526664
% es.tEy (V/m) @ t=0.34
0
% es.tEz (V/m) @ t=0.34
2.4421619284018465
% V (V) @ t=0.34
0.012045742760169184
% es.normE (V/m) @ t=0.36
2.613341884547949
% es.EX (V/m) @ t=0.36
0.8066454092134543
% es.EY (V/m) @ t=0.36
0.19541967953845807
% es.EZ (V/m) @ t=0.36
2.4780236875084896
% es.tEX (V/m) @ t=0.36
0.8066454092134592
% es.tEY (V/m) @ t=0.36
0
% es.tEZ (V/m) @ t=0.36
2.478023687508488
% es.Ex (V/m) @ t=0.36
0.8066454092134543
% es.Ey (V/m) @ t=0.36
0.19541967953845807
% es.Ez (V/m) @ t=0.36
2.4780236875084896
% es.tEx (V/m) @ t=0.36
0.8066454092134592
% es.tEy (V/m) @ t=0.36
0
% es.tEz (V/m) @ t=0.36
2.478023687508488
% V (V) @ t=0.36
0.012222618973573475
% es.normE (V/m) @ t=0.38
2.6511619554704975
% es.EX (V/m) @ t=0.38
0.8183191448742364
% es.EY (V/m) @ t=0.38
0.19824762497812753
% es.EZ (V/m) @ t=0.38
2.51388544661512
% es.tEX (V/m) @ t=0.38
0.8183191448742377
% es.tEY (V/m) @ t=0.38
0
% es.tEZ (V/m) @ t=0.38
2.5138854466151326
% es.Ex (V/m) @ t=0.38
0.8183191448742364
% es.Ey (V/m) @ t=0.38
0.19824762497812753
% es.Ez (V/m) @ t=0.38
2.51388544661512
% es.tEx (V/m) @ t=0.38
0.8183191448742377
% es.tEy (V/m) @ t=0.38
0
% es.tEz (V/m) @ t=0.38
2.5138854466151326
% V (V) @ t=0.38
0.012399495186977768
% es.normE (V/m) @ t=0.4
2.6889820263930897
% es.EX (V/m) @ t=0.4
0.8299928805350252
% es.EY (V/m) @ t=0.4
0.2010755704178112
% es.EZ (V/m) @ t=0.4
2.5497472057217787
% es.tEX (V/m) @ t=0.4
0.8299928805350234
% es.tEY (V/m) @ t=0.4
0
% es.tEZ (V/m) @ t=0.4
2.5497472057218022
% es.Ex (V/m) @ t=0.4
0.8299928805350252
% es.Ey (V/m) @ t=0.4
0.2010755704178112
% es.Ez (V/m) @ t=0.4
2.5497472057217787
% es.tEx (V/m) @ t=0.4
0.8299928805350234
% es.tEy (V/m) @ t=0.4
0
% es.tEz (V/m) @ t=0.4
2.5497472057218022
% V (V) @ t=0.4
0.01257637140038206
% es.normE (V/m) @ t=0.42
2.728803745819777
% es.EX (V/m) @ t=0.42
0.8422844302183039
% es.EY (V/m) @ t=0.42
0.20405331788008796
% es.EZ (V/m) @ t=0.42
2.5875069667466084
% es.tEX (V/m) @ t=0.42
0.8422844302183066
% es.tEY (V/m) @ t=0.42
0
% es.tEZ (V/m) @ t=0.42
2.5875069667466004
% es.Ex (V/m) @ t=0.42
0.8422844302183039
% es.Ey (V/m) @ t=0.42
0.20405331788008796
% es.Ez (V/m) @ t=0.42
2.5875069667466084
% es.tEx (V/m) @ t=0.42
0.8422844302183066
% es.tEy (V/m) @ t=0.42
0
% es.tEz (V/m) @ t=0.42
2.5875069667466004
% V (V) @ t=0.42
0.012762616204648927
% es.normE (V/m) @ t=0.44
2.7699500911191866
% es.EX (V/m) @ t=0.44
0.8549848291261437
% es.EY (V/m) @ t=0.44
0.20713019944833566
% es.EZ (V/m) @ t=0.44
2.6265227637048927
% es.tEX (V/m) @ t=0.44
0.8549848291261455
% es.tEY (V/m) @ t=0.44
0
% es.tEZ (V/m) @ t=0.44
2.626522763704898
% es.Ex (V/m) @ t=0.44
0.8549848291261437
% es.Ey (V/m) @ t=0.44
0.20713019944833566
% es.Ez (V/m) @ t=0.44
2.6265227637048927
% es.tEx (V/m) @ t=0.44
0.8549848291261455
% es.tEy (V/m) @ t=0.44
0
% es.tEz (V/m) @ t=0.44
2.626522763704898
% V (V) @ t=0.44
0.012955060837618378
% es.normE (V/m) @ t=0.46
2.811096436418624
% es.EX (V/m) @ t=0.46
0.8676852280339775
% es.EY (V/m) @ t=0.46
0.2102070810165828
% es.EZ (V/m) @ t=0.46
2.6655385606632063
% es.tEX (V/m) @ t=0.46
0.8676852280339844
% es.tEY (V/m) @ t=0.46
0
% es.tEZ (V/m) @ t=0.46
2.6655385606632223
% es.Ex (V/m) @ t=0.46
0.8676852280339775
% es.Ey (V/m) @ t=0.46
0.2102070810165828
% es.Ez (V/m) @ t=0.46
2.6655385606632063
% es.tEx (V/m) @ t=0.46
0.8676852280339844
% es.tEy (V/m) @ t=0.46
0
% es.tEz (V/m) @ t=0.46
2.6655385606632223
% V (V) @ t=0.46
0.013147505470587833
% es.normE (V/m) @ t=0.48
2.852242781718058
% es.EX (V/m) @ t=0.48
0.8803856269418162
% es.EY (V/m) @ t=0.48
0.21328396258484106
% es.EZ (V/m) @ t=0.48
2.704554357621512
% es.tEX (V/m) @ t=0.48
0.8803856269418233
% es.tEY (V/m) @ t=0.48
0
% es.tEZ (V/m) @ t=0.48
2.704554357621518
% es.Ex (V/m) @ t=0.48
0.8803856269418162
% es.Ey (V/m) @ t=0.48
0.21328396258484106
% es.Ez (V/m) @ t=0.48
2.704554357621512
% es.tEx (V/m) @ t=0.48
0.8803856269418233
% es.tEy (V/m) @ t=0.48
0
% es.tEz (V/m) @ t=0.48
2.704554357621518
% V (V) @ t=0.48
0.013339950103557284
% es.normE (V/m) @ t=0.5
2.8933891270175067
% es.EX (V/m) @ t=0.5
0.8930860258496565
% es.EY (V/m) @ t=0.5
0.21636084415309598
% es.EZ (V/m) @ t=0.5
2.7435701545798308
% es.tEX (V/m) @ t=0.5
0.8930860258496693
% es.tEY (V/m) @ t=0.5
0
% es.tEZ (V/m) @ t=0.5
2.7435701545798175
% es.Ex (V/m) @ t=0.5
0.8930860258496565
% es.Ey (V/m) @ t=0.5
0.21636084415309598
% es.Ez (V/m) @ t=0.5
2.7435701545798308
% es.tEx (V/m) @ t=0.5
0.8930860258496693
% es.tEy (V/m) @ t=0.5
0
% es.tEz (V/m) @ t=0.5
2.7435701545798175
% V (V) @ t=0.5
0.013532394736526737
% es.normE (V/m) @ t=0.52
2.9345354723169215
% es.EX (V/m) @ t=0.52
0.9057864247574838
% es.EY (V/m) @ t=0.52
0.21943772572135778
% es.EZ (V/m) @ t=0.52
2.782585951538116
% es.tEX (V/m) @ t=0.52
0.905786424757494
% es.tEY (V/m) @ t=0.52
0
% es.tEZ (V/m) @ t=0.52
2.7825859515381417
% es.Ex (V/m) @ t=0.52
0.9057864247574838
% es.Ey (V/m) @ t=0.52
0.21943772572135778
% es.Ez (V/m) @ t=0.52
2.782585951538116
% es.tEx (V/m) @ t=0.52
0.905786424757494
% es.tEy (V/m) @ t=0.52
0
% es.tEz (V/m) @ t=0.52
2.7825859515381417
% V (V) @ t=0.52
0.013724839369496188
% es.normE (V/m) @ t=0.54
2.975681817616381
% es.EX (V/m) @ t=0.54
0.918486823665339
% es.EY (V/m) @ t=0.54
0.2225146072896267
% es.EZ (V/m) @ t=0.54
2.8216017484964375
% es.tEX (V/m) @ t=0.54
0.918486823665333
% es.tEY (V/m) @ t=0.54
0
% es.tEZ (V/m) @ t=0.54
2.8216017484964517
% es.Ex (V/m) @ t=0.54
0.918486823665339
% es.Ey (V/m) @ t=0.54
0.2225146072896267
% es.Ez (V/m) @ t=0.54
2.8216017484964375
% es.tEx (V/m) @ t=0.54
0.918486823665333
% es.tEy (V/m) @ t=0.54
0
% es.tEz (V/m) @ t=0.54
2.8216017484964517
% V (V) @ t=0.54
0.01391728400246564
% es.normE (V/m) @ t=0.56
3.0180940767245783
% es.EX (V/m) @ t=0.56
0.9315779648432578
% es.EY (V/m) @ t=0.56
0.22568615169580197
% es.EZ (V/m) @ t=0.56
2.8618179105575674
% es.tEX (V/m) @ t=0.56
0.9315779648432567
% es.tEY (V/m) @ t=0.56
0
% es.tEZ (V/m) @ t=0.56
2.8618179105575905
% es.Ex (V/m) @ t=0.56
0.9315779648432578
% es.Ey (V/m) @ t=0.56
0.22568615169580197
% es.Ez (V/m) @ t=0.56
2.8618179105575674
% es.tEx (V/m) @ t=0.56
0.9315779648432567
% es.tEy (V/m) @ t=0.56
0
% es.tEz (V/m) @ t=0.56
2.8618179105575905
% V (V) @ t=0.56
0.014115649403050852
% es.normE (V/m) @ t=0.58
3.061184887617113
% es.EX (V/m) @ t=0.58
0.9448785506633011
% es.EY (V/m) @ t=0.58
0.2289084370269956
% es.EZ (V/m) @ t=0.58
2.9026774891583687
% es.tEX (V/m) @ t=0.58
0.9448785506632902
% es.tEY (V/m) @ t=0.58
0
% es.tEZ (V/m) @ t=0.58
2.902677489158389
% es.Ex (V/m) @ t=0.58
0.9448785506633011
% es.Ey (V/m) @ t=0.58
0.2289084370269956
% es.Ez (V/m) @ t=0.58
2.9026774891583687
% es.tEx (V/m) @ t=0.58
0.9448785506632902
% es.tEy (V/m) @ t=0.58
0
% es.tEz (V/m) @ t=0.58
2.902677489158389
% V (V) @ t=0.58
0.014317188437893213
% es.normE (V/m) @ t=0.6
3.104689087142849
% es.EX (V/m) @ t=0.6
0.9583067347541243
% es.EY (V/m) @ t=0.6
0.2321616348428217
% es.EZ (V/m) @ t=0.6
2.9439290512305316
% es.tEX (V/m) @ t=0.6
0.9583067347541174
% es.tEY (V/m) @ t=0.6
0
% es.tEZ (V/m) @ t=0.6
2.943929051230562
% es.Ex (V/m) @ t=0.6
0.9583067347541243
% es.Ey (V/m) @ t=0.6
0.2321616348428217
% es.Ez (V/m) @ t=0.6
2.9439290512305316
% es.tEx (V/m) @ t=0.6
0.9583067347541174
% es.tEy (V/m) @ t=0.6
0
% es.tEz (V/m) @ t=0.6
2.943929051230562
% V (V) @ t=0.6
0.014520660920349033
% es.normE (V/m) @ t=0.62
3.148606675301851
% es.EX (V/m) @ t=0.62
0.9718625171157538
% es.EY (V/m) @ t=0.62
0.23544574514331473
% es.EZ (V/m) @ t=0.62
2.985572596774114
% es.tEX (V/m) @ t=0.62
0.9718625171157527
% es.tEY (V/m) @ t=0.62
0
% es.tEZ (V/m) @ t=0.62
2.9855725967741122
% es.Ex (V/m) @ t=0.62
0.9718625171157538
% es.Ey (V/m) @ t=0.62
0.23544574514331473
% es.Ez (V/m) @ t=0.62
2.985572596774114
% es.tEx (V/m) @ t=0.62
0.9718625171157527
% es.tEy (V/m) @ t=0.62
0
% es.tEz (V/m) @ t=0.62
2.9855725967741122
% V (V) @ t=0.62
0.014726066850418313
% es.normE (V/m) @ t=0.64
3.1929376520940975
% es.EX (V/m) @ t=0.64
0.9855458977482114
% es.EY (V/m) @ t=0.64
0.23876076792845002
% es.EZ (V/m) @ t=0.64
3.0276081257890874
% es.tEX (V/m) @ t=0.64
0.9855458977482243
% es.tEY (V/m) @ t=0.64
0
% es.tEZ (V/m) @ t=0.64
3.027608125789083
% es.Ex (V/m) @ t=0.64
0.9855458977482114
% es.Ey (V/m) @ t=0.64
0.23876076792845002
% es.Ez (V/m) @ t=0.64
3.0276081257890874
% es.tEx (V/m) @ t=0.64
0.9855458977482243
% es.tEy (V/m) @ t=0.64
0
% es.tEz (V/m) @ t=0.64
3.027608125789083
% V (V) @ t=0.64
0.01493340622810105
% es.normE (V/m) @ t=0.66
3.23768201751955
% es.EX (V/m) @ t=0.66
0.999356876651466
% es.EY (V/m) @ t=0.66
0.2421067031982671
% es.EZ (V/m) @ t=0.66
3.070035638275419
% es.tEX (V/m) @ t=0.66
0.9993568766514755
% es.tEY (V/m) @ t=0.66
0
% es.tEZ (V/m) @ t=0.66
3.0700356382754457
% es.Ex (V/m) @ t=0.66
0.999356876651466
% es.Ey (V/m) @ t=0.66
0.2421067031982671
% es.Ez (V/m) @ t=0.66
3.070035638275419
% es.tEx (V/m) @ t=0.66
0.9993568766514755
% es.tEy (V/m) @ t=0.66
0
% es.tEz (V/m) @ t=0.66
3.0700356382754457
% V (V) @ t=0.66
0.01514267905339725
% es.normE (V/m) @ t=0.68
3.282839771578246
% es.EX (V/m) @ t=0.68
1.0132954538254895
% es.EY (V/m) @ t=0.68
0.24548355095269803
% es.EZ (V/m) @ t=0.68
3.112855134233162
% es.tEX (V/m) @ t=0.68
1.0132954538254921
% es.tEY (V/m) @ t=0.68
0
% es.tEZ (V/m) @ t=0.68
3.1128551342331754
% es.Ex (V/m) @ t=0.68
1.0132954538254895
% es.Ey (V/m) @ t=0.68
0.24548355095269803
% es.Ez (V/m) @ t=0.68
3.112855134233162
% es.tEx (V/m) @ t=0.68
1.0132954538254921
% es.tEy (V/m) @ t=0.68
0
% es.tEz (V/m) @ t=0.68
3.1128551342331754
% V (V) @ t=0.68
0.015353885326306908
% es.normE (V/m) @ t=0.7
3.328410914270231
% es.EX (V/m) @ t=0.7
1.0273616292703773
% es.EY (V/m) @ t=0.7
0.24889131119185137
% es.EZ (V/m) @ t=0.7
3.1560666136623254
% es.tEX (V/m) @ t=0.7
1.0273616292703736
% es.tEY (V/m) @ t=0.7
0
% es.tEZ (V/m) @ t=0.7
3.1560666136623325
% es.Ex (V/m) @ t=0.7
1.0273616292703773
% es.Ey (V/m) @ t=0.7
0.24889131119185137
% es.Ez (V/m) @ t=0.7
3.1560666136623254
% es.tEx (V/m) @ t=0.7
1.0273616292703736
% es.tEy (V/m) @ t=0.7
0
% es.tEz (V/m) @ t=0.7
3.1560666136623325
% V (V) @ t=0.7
0.015567025046830022
% es.normE (V/m) @ t=0.72
3.374395445595411
% es.EX (V/m) @ t=0.72
1.0415554029860306
% es.EY (V/m) @ t=0.72
0.25232998391560657
% es.EZ (V/m) @ t=0.72
3.1996700765628523
% es.tEX (V/m) @ t=0.72
1.0415554029860346
% es.tEY (V/m) @ t=0.72
0
% es.tEZ (V/m) @ t=0.72
3.1996700765628567
% es.Ex (V/m) @ t=0.72
1.0415554029860306
% es.Ey (V/m) @ t=0.72
0.25232998391560657
% es.Ez (V/m) @ t=0.72
3.1996700765628523
% es.tEx (V/m) @ t=0.72
1.0415554029860346
% es.tEy (V/m) @ t=0.72
0
% es.tEz (V/m) @ t=0.72
3.1996700765628567
% V (V) @ t=0.72
0.015782098214966598
% es.normE (V/m) @ t=0.74
3.4207933655538536
% es.EX (V/m) @ t=0.74
1.055876774972505
% es.EY (V/m) @ t=0.74
0.25579956912408863
% es.EZ (V/m) @ t=0.74
3.2436655229347844
% es.tEX (V/m) @ t=0.74
1.0558767749725035
% es.tEY (V/m) @ t=0.74
0
% es.tEZ (V/m) @ t=0.74
3.243665522934794
% es.Ex (V/m) @ t=0.74
1.055876774972505
% es.Ey (V/m) @ t=0.74
0.25579956912408863
% es.Ez (V/m) @ t=0.74
3.2436655229347844
% es.tEx (V/m) @ t=0.74
1.0558767749725035
% es.tEy (V/m) @ t=0.74
0
% es.tEz (V/m) @ t=0.74
3.243665522934794
% V (V) @ t=0.74
0.01599910483071663
% es.normE (V/m) @ t=0.76
3.4676046741455213
% es.EX (V/m) @ t=0.76
1.0703257452297936
% es.EY (V/m) @ t=0.76
0.2593000668171985
% es.EZ (V/m) @ t=0.76
3.288052952778094
% es.tEX (V/m) @ t=0.76
1.0703257452297947
% es.tEY (V/m) @ t=0.76
0
% es.tEZ (V/m) @ t=0.76
3.2880529527781057
% es.Ex (V/m) @ t=0.76
1.0703257452297936
% es.Ey (V/m) @ t=0.76
0.2593000668171985
% es.Ez (V/m) @ t=0.76
3.288052952778094
% es.tEx (V/m) @ t=0.76
1.0703257452297947
% es.tEy (V/m) @ t=0.76
0
% es.tEz (V/m) @ t=0.76
3.2880529527781057
% V (V) @ t=0.76
0.01621804489408013
% es.normE (V/m) @ t=0.78
3.5148293713704524
% es.EX (V/m) @ t=0.78
1.0849023137578835
% es.EY (V/m) @ t=0.78
0.26283147699497644
% es.EZ (V/m) @ t=0.78
3.3328323660928216
% es.tEX (V/m) @ t=0.78
1.084902313757894
% es.tEY (V/m) @ t=0.78
0
% es.tEZ (V/m) @ t=0.78
3.33283236609282
% es.Ex (V/m) @ t=0.78
1.0849023137578835
% es.Ey (V/m) @ t=0.78
0.26283147699497644
% es.Ez (V/m) @ t=0.78
3.3328323660928216
% es.tEx (V/m) @ t=0.78
1.084902313757894
% es.tEy (V/m) @ t=0.78
0
% es.tEz (V/m) @ t=0.78
3.33283236609282
% V (V) @ t=0.78
0.016438918405057082
% es.normE (V/m) @ t=0.8
3.562467457228581
% es.EX (V/m) @ t=0.8
1.099606480556734
% es.EY (V/m) @ t=0.8
0.2663937996573713
% es.EZ (V/m) @ t=0.8
3.3780037628789152
% es.tEX (V/m) @ t=0.8
1.0996064805567443
% es.tEY (V/m) @ t=0.8
0
% es.tEZ (V/m) @ t=0.8
3.378003762878919
% es.Ex (V/m) @ t=0.8
1.099606480556734
% es.Ey (V/m) @ t=0.8
0.2663937996573713
% es.Ez (V/m) @ t=0.8
3.3780037628789152
% es.tEx (V/m) @ t=0.8
1.0996064805567443
% es.tEy (V/m) @ t=0.8
0
% es.tEz (V/m) @ t=0.8
3.378003762878919
% V (V) @ t=0.8
0.016661725363647493
% es.normE (V/m) @ t=0.82
3.61069108943275
% es.EX (V/m) @ t=0.82
1.1144913929473044
% es.EY (V/m) @ t=0.82
0.26999986446838875
% es.EZ (V/m) @ t=0.82
3.4237303871677334
% es.tEX (V/m) @ t=0.82
1.1144913929473006
% es.tEY (V/m) @ t=0.82
0
% es.tEZ (V/m) @ t=0.82
3.423730387167751
% es.Ex (V/m) @ t=0.82
1.1144913929473044
% es.Ey (V/m) @ t=0.82
0.26999986446838875
% es.Ez (V/m) @ t=0.82
3.4237303871677334
% es.tEx (V/m) @ t=0.82
1.1144913929473006
% es.tEy (V/m) @ t=0.82
0
% es.tEz (V/m) @ t=0.82
3.423730387167751
% V (V) @ t=0.82
0.016887268465986663
% es.normE (V/m) @ t=0.84
3.6600332179672863
% es.EX (V/m) @ t=0.84
1.1297215795084237
% es.EY (V/m) @ t=0.84
0.27368938831935186
% es.EZ (V/m) @ t=0.84
3.470517594789894
% es.tEX (V/m) @ t=0.84
1.129721579508427
% es.tEY (V/m) @ t=0.84
0
% es.tEZ (V/m) @ t=0.84
3.4705175947899
% es.Ex (V/m) @ t=0.84
1.1297215795084237
% es.Ey (V/m) @ t=0.84
0.27368938831935186
% es.Ez (V/m) @ t=0.84
3.470517594789894
% es.tEx (V/m) @ t=0.84
1.129721579508427
% es.tEy (V/m) @ t=0.84
0
% es.tEz (V/m) @ t=0.84
3.4705175947899
% V (V) @ t=0.84
0.017118032624808065
% es.normE (V/m) @ t=0.86
3.709905554561244
% es.EX (V/m) @ t=0.86
1.145115428013745
% es.EY (V/m) @ t=0.86
0.27741853035828834
% es.EZ (V/m) @ t=0.86
3.517807556837341
% es.tEX (V/m) @ t=0.86
1.145115428013753
% es.tEY (V/m) @ t=0.86
0
% es.tEZ (V/m) @ t=0.86
3.5178075568373472
% es.Ex (V/m) @ t=0.86
1.145115428013745
% es.Ey (V/m) @ t=0.86
0.27741853035828834
% es.Ez (V/m) @ t=0.86
3.517807556837341
% es.tEx (V/m) @ t=0.86
1.145115428013753
% es.tEy (V/m) @ t=0.86
0
% es.tEz (V/m) @ t=0.86
3.5178075568373472
% V (V) @ t=0.86
0.017351274909145772
% es.normE (V/m) @ t=0.88
3.760308099214674
% es.EX (V/m) @ t=0.88
1.1606729384633008
% es.EY (V/m) @ t=0.88
0.2811872905852866
% es.EZ (V/m) @ t=0.88
3.5656002733101033
% es.tEX (V/m) @ t=0.88
1.160672938463307
% es.tEY (V/m) @ t=0.88
0
% es.tEZ (V/m) @ t=0.88
3.5656002733101104
% es.Ex (V/m) @ t=0.88
1.1606729384633008
% es.Ey (V/m) @ t=0.88
0.2811872905852866
% es.Ez (V/m) @ t=0.88
3.5656002733101033
% es.tEx (V/m) @ t=0.88
1.160672938463307
% es.tEy (V/m) @ t=0.88
0
% es.tEz (V/m) @ t=0.88
3.5656002733101104
% V (V) @ t=0.88
0.017586995318999786
% es.normE (V/m) @ t=0.9
3.8112408519276317
% es.EX (V/m) @ t=0.9
1.1763941108570501
% es.EY (V/m) @ t=0.9
0.2849956690003155
% es.EZ (V/m) @ t=0.9
3.6138957442082456
% es.tEX (V/m) @ t=0.9
1.1763941108570464
% es.tEY (V/m) @ t=0.9
0
% es.tEZ (V/m) @ t=0.9
3.6138957442082678
% es.Ex (V/m) @ t=0.9
1.1763941108570501
% es.Ey (V/m) @ t=0.9
0.2849956690003155
% es.Ez (V/m) @ t=0.9
3.6138957442082456
% es.tEx (V/m) @ t=0.9
1.1763941108570464
% es.tEy (V/m) @ t=0.9
0
% es.tEz (V/m) @ t=0.9
3.6138957442082678
% V (V) @ t=0.9
0.017825193854370106
% es.normE (V/m) @ t=0.92
3.862703812700095
% es.EX (V/m) @ t=0.92
1.192278945195033
% es.EY (V/m) @ t=0.92
0.28884366560327157
% es.EZ (V/m) @ t=0.92
3.6626939695317304
% es.tEX (V/m) @ t=0.92
1.1922789451950422
% es.tEY (V/m) @ t=0.92
0
% es.tEZ (V/m) @ t=0.92
3.662693969531727
% es.Ex (V/m) @ t=0.92
1.192278945195033
% es.Ey (V/m) @ t=0.92
0.28884366560327157
% es.Ez (V/m) @ t=0.92
3.6626939695317304
% es.tEx (V/m) @ t=0.92
1.1922789451950422
% es.tEy (V/m) @ t=0.92
0
% es.tEz (V/m) @ t=0.92
3.662693969531727
% V (V) @ t=0.92
0.01806587051525673
% es.normE (V/m) @ t=0.94
3.9146969815320523
% es.EX (V/m) @ t=0.94
1.2083274414772414
% es.EY (V/m) @ t=0.94
0.29273128039428187
% es.EZ (V/m) @ t=0.94
3.7119949492805286
% es.tEX (V/m) @ t=0.94
1.2083274414772518
% es.tEY (V/m) @ t=0.94
0
% es.tEZ (V/m) @ t=0.94
3.7119949492805517
% es.Ex (V/m) @ t=0.94
1.2083274414772414
% es.Ey (V/m) @ t=0.94
0.29273128039428187
% es.Ez (V/m) @ t=0.94
3.7119949492805286
% es.tEx (V/m) @ t=0.94
1.2083274414772518
% es.tEy (V/m) @ t=0.94
0
% es.tEz (V/m) @ t=0.94
3.7119949492805517
% V (V) @ t=0.94
0.01830902530165966
% es.normE (V/m) @ t=0.96
3.9672203584235852
% es.EX (V/m) @ t=0.96
1.22453959970367
% es.EY (V/m) @ t=0.96
0.2966585133732982
% es.EZ (V/m) @ t=0.96
3.761798683454721
% es.tEX (V/m) @ t=0.96
1.2245395997036894
% es.tEY (V/m) @ t=0.96
0
% es.tEZ (V/m) @ t=0.96
3.761798683454721
% es.Ex (V/m) @ t=0.96
1.22453959970367
% es.Ey (V/m) @ t=0.96
0.2966585133732982
% es.Ez (V/m) @ t=0.96
3.761798683454721
% es.tEx (V/m) @ t=0.96
1.2245395997036894
% es.tEy (V/m) @ t=0.96
0
% es.tEz (V/m) @ t=0.96
3.761798683454721
% V (V) @ t=0.96
0.018554658213578896
% es.normE (V/m) @ t=0.98
4.020273943374589
% es.EX (V/m) @ t=0.98
1.2409154198743066
% es.EY (V/m) @ t=0.98
0.3006253645403192
% es.EZ (V/m) @ t=0.98
3.8121051720541894
% es.tEX (V/m) @ t=0.98
1.2409154198743124
% es.tEY (V/m) @ t=0.98
0
% es.tEZ (V/m) @ t=0.98
3.812105172054217
% es.Ex (V/m) @ t=0.98
1.2409154198743066
% es.Ey (V/m) @ t=0.98
0.3006253645403192
% es.Ez (V/m) @ t=0.98
3.8121051720541894
% es.tEx (V/m) @ t=0.98
1.2409154198743124
% es.tEy (V/m) @ t=0.98
0
% es.tEz (V/m) @ t=0.98
3.812105172054217
% V (V) @ t=0.98
0.018802769251014435
% es.normE (V/m) @ t=1
4.073857736385209
% es.EX (V/m) @ t=1
1.2574549019891808
% es.EY (V/m) @ t=1
0.30463183389534554
% es.EZ (V/m) @ t=1
3.862914415079069
% es.tEX (V/m) @ t=1
1.2574549019891776
% es.tEY (V/m) @ t=1
0
% es.tEZ (V/m) @ t=1
3.862914415079068
% es.Ex (V/m) @ t=1
1.2574549019891808
% es.Ey (V/m) @ t=1
0.30463183389534554
% es.Ez (V/m) @ t=1
3.862914415079069
% es.tEx (V/m) @ t=1
1.2574549019891776
% es.tEy (V/m) @ t=1
0
% es.tEz (V/m) @ t=1
3.862914415079068
% V (V) @ t=1
0.019053358413966284
% es.normE (V/m) @ t=1.02
4.127971737455408
% es.EX (V/m) @ t=1.02
1.2741580460483128
% es.EY (V/m) @ t=1.02
0.30867792143839035
% es.EZ (V/m) @ t=1.02
3.914226412529297
% es.tEX (V/m) @ t=1.02
1.2741580460482993
% es.tEY (V/m) @ t=1.02
0
% es.tEZ (V/m) @ t=1.02
3.9142264125292954
% es.Ex (V/m) @ t=1.02
1.2741580460483128
% es.Ey (V/m) @ t=1.02
0.30867792143839035
% es.Ez (V/m) @ t=1.02
3.914226412529297
% es.tEx (V/m) @ t=1.02
1.2741580460482993
% es.tEy (V/m) @ t=1.02
0
% es.tEz (V/m) @ t=1.02
3.9142264125292954
% V (V) @ t=1.02
0.01930642570243444
% es.normE (V/m) @ t=1.04
4.182615946585102
% es.EX (V/m) @ t=1.04
1.2910248520516112
% es.EY (V/m) @ t=1.04
0.31276362716942097
% es.EZ (V/m) @ t=1.04
3.966041164404807
% es.tEX (V/m) @ t=1.04
1.2910248520516063
% es.tEY (V/m) @ t=1.04
0
% es.tEZ (V/m) @ t=1.04
3.966041164404846
% es.Ex (V/m) @ t=1.04
1.2910248520516112
% es.Ey (V/m) @ t=1.04
0.31276362716942097
% es.Ez (V/m) @ t=1.04
3.966041164404807
% es.tEx (V/m) @ t=1.04
1.2910248520516063
% es.tEy (V/m) @ t=1.04
0
% es.tEz (V/m) @ t=1.04
3.966041164404846
% V (V) @ t=1.04