% Model:              1 neuron.mph
% Version:            COMSOL 6.0.0.405
% Date:               Mar 16 2023, 18:32
% Dimension:          0
% Nodes:              14017
% Expressions:        14017
% Description:        Electric field norm, Electric field, X component, Electric field, Y component, Electric field, Z component, Tangential electric field, X component, Tangential electric field, Y component, Tangential electric field, Z component, Electric field, x component, Electric field, y component, Electric field, z component, Tangential electric field, x component, Tangential electric field, y component, Tangential electric field, z component, Electric potential
% Length unit:        mm
% x
2
% y
12.199999999999998
% z
2
% es.normE (V/m) @ t=0
1.112259425050585
% es.EX (V/m) @ t=0
-0.7962756039075269
% es.EY (V/m) @ t=0
0.30324906848109157
% es.EZ (V/m) @ t=0
-0.7105537101913457
% es.tEX (V/m) @ t=0
-0.7962756039075187
% es.tEY (V/m) @ t=0
0
% es.tEZ (V/m) @ t=0
-0.7105537101913466
% es.Ex (V/m) @ t=0
-0.7962756039075269
% es.Ey (V/m) @ t=0
0.30324906848109157
% es.Ez (V/m) @ t=0
-0.7105537101913457
% es.tEx (V/m) @ t=0
-0.7962756039075187
% es.tEy (V/m) @ t=0
0
% es.tEz (V/m) @ t=0
-0.7105537101913466
% V (V) @ t=0
0.011319275149518374
% es.normE (V/m) @ t=0.02
0.9660052217885535
% es.EX (V/m) @ t=0.02
-0.6915710260872603
% es.EY (V/m) @ t=0.02
0.26337397996752565
% es.EZ (V/m) @ t=0.02
-0.6171209468892758
% es.tEX (V/m) @ t=0.02
-0.6915710260872587
% es.tEY (V/m) @ t=0.02
0
% es.tEZ (V/m) @ t=0.02
-0.6171209468892904
% es.Ex (V/m) @ t=0.02
-0.6915710260872603
% es.Ey (V/m) @ t=0.02
0.26337397996752565
% es.Ez (V/m) @ t=0.02
-0.6171209468892758
% es.tEx (V/m) @ t=0.02
-0.6915710260872587
% es.tEy (V/m) @ t=0.02
0
% es.tEz (V/m) @ t=0.02
-0.6171209468892904
% V (V) @ t=0.02
0.009830870581291963
% es.normE (V/m) @ t=0.04
0.9803278880014796
% es.EX (V/m) @ t=0.04
-0.7018247394807096
% es.EY (V/m) @ t=0.04
0.2672789429125182
% es.EZ (V/m) @ t=0.04
-0.6262708138695277
% es.tEX (V/m) @ t=0.04
-0.7018247394807084
% es.tEY (V/m) @ t=0.04
0
% es.tEZ (V/m) @ t=0.04
-0.6262708138695272
% es.Ex (V/m) @ t=0.04
-0.7018247394807096
% es.Ey (V/m) @ t=0.04
0.2672789429125182
% es.Ez (V/m) @ t=0.04
-0.6262708138695277
% es.tEx (V/m) @ t=0.04
-0.7018247394807084
% es.tEy (V/m) @ t=0.04
0
% es.tEz (V/m) @ t=0.04
-0.6262708138695272
% V (V) @ t=0.04
0.009976630083699443
% es.normE (V/m) @ t=0.06
0.9948678476270236
% es.EX (V/m) @ t=0.06
-0.7122340150230613
% es.EY (V/m) @ t=0.06
0.2712431463478242
% es.EZ (V/m) @ t=0.06
-0.6355594977336345
% es.tEX (V/m) @ t=0.06
-0.7122340150230628
% es.tEY (V/m) @ t=0.06
0
% es.tEZ (V/m) @ t=0.06
-0.6355594977336398
% es.Ex (V/m) @ t=0.06
-0.7122340150230613
% es.Ey (V/m) @ t=0.06
0.2712431463478242
% es.Ez (V/m) @ t=0.06
-0.6355594977336345
% es.tEx (V/m) @ t=0.06
-0.7122340150230628
% es.tEy (V/m) @ t=0.06
0
% es.tEz (V/m) @ t=0.06
-0.6355594977336398
% V (V) @ t=0.06
0.01012460111952134
% es.normE (V/m) @ t=0.08
1.0097730154722906
% es.EX (V/m) @ t=0.08
-0.7229047463085148
% es.EY (V/m) @ t=0.08
0.2753069251587348
% es.EZ (V/m) @ t=0.08
-0.6450814880588727
% es.tEX (V/m) @ t=0.08
-0.7229047463085108
% es.tEY (V/m) @ t=0.08
0
% es.tEZ (V/m) @ t=0.08
-0.6450814880588869
% es.Ex (V/m) @ t=0.08
-0.7229047463085148
% es.Ey (V/m) @ t=0.08
0.2753069251587348
% es.Ez (V/m) @ t=0.08
-0.6450814880588727
% es.tEx (V/m) @ t=0.08
-0.7229047463085108
% es.tEy (V/m) @ t=0.08
0
% es.tEz (V/m) @ t=0.08
-0.6450814880588869
% V (V) @ t=0.08
0.01027628858171556
% es.normE (V/m) @ t=0.1
1.024944743279575
% es.EX (V/m) @ t=0.1
-0.7337663101907914
% es.EY (V/m) @ t=0.1
0.2794433825319562
% es.EZ (V/m) @ t=0.1
-0.6547737652452854
% es.tEX (V/m) @ t=0.1
-0.7337663101907901
% es.tEY (V/m) @ t=0.1
0
% es.tEZ (V/m) @ t=0.1
-0.6547737652452934
% es.Ex (V/m) @ t=0.1
-0.7337663101907914
% es.Ey (V/m) @ t=0.1
0.2794433825319562
% es.Ez (V/m) @ t=0.1
-0.6547737652452854
% es.tEx (V/m) @ t=0.1
-0.7337663101907901
% es.tEy (V/m) @ t=0.1
0
% es.tEz (V/m) @ t=0.1
-0.6547737652452934
% V (V) @ t=0.1
0.01043068860737155
% es.normE (V/m) @ t=0.12
1.0401164710868742
% es.EX (V/m) @ t=0.12
-0.7446278740730794
% es.EY (V/m) @ t=0.12
0.283579839905169
% es.EZ (V/m) @ t=0.12
-0.6644660424317115
% es.tEX (V/m) @ t=0.12
-0.7446278740730818
% es.tEY (V/m) @ t=0.12
0
% es.tEZ (V/m) @ t=0.12
-0.6644660424317248
% es.Ex (V/m) @ t=0.12
-0.7446278740730794
% es.Ey (V/m) @ t=0.12
0.283579839905169
% es.Ez (V/m) @ t=0.12
-0.6644660424317115
% es.tEx (V/m) @ t=0.12
-0.7446278740730818
% es.tEy (V/m) @ t=0.12
0
% es.tEz (V/m) @ t=0.12
-0.6644660424317248
% V (V) @ t=0.12
0.01058508863302754
% es.normE (V/m) @ t=0.14
1.0555157293301636
% es.EX (V/m) @ t=0.14
-0.7556523288392238
% es.EY (V/m) @ t=0.14
0.28777833212191584
% es.EZ (V/m) @ t=0.14
-0.6743036745258983
% es.tEX (V/m) @ t=0.14
-0.7556523288392261
% es.tEY (V/m) @ t=0.14
0
% es.tEZ (V/m) @ t=0.14
-0.6743036745258966
% es.Ex (V/m) @ t=0.14
-0.7556523288392238
% es.Ey (V/m) @ t=0.14
0.28777833212191584
% es.Ez (V/m) @ t=0.14
-0.6743036745258983
% es.tEx (V/m) @ t=0.14
-0.7556523288392261
% es.tEy (V/m) @ t=0.14
0
% es.tEz (V/m) @ t=0.14
-0.6743036745258966
% V (V) @ t=0.14
0.010741804173113956
% es.normE (V/m) @ t=0.16
1.0720569494244485
% es.EX (V/m) @ t=0.16
-0.7674943233531288
% es.EY (V/m) @ t=0.16
0.29228817356291836
% es.EZ (V/m) @ t=0.16
-0.6848708343370777
% es.tEX (V/m) @ t=0.16
-0.7674943233531231
% es.tEY (V/m) @ t=0.16
0
% es.tEZ (V/m) @ t=0.16
-0.6848708343370724
% es.Ex (V/m) @ t=0.16
-0.7674943233531288
% es.Ey (V/m) @ t=0.16
0.29228817356291836
% es.Ez (V/m) @ t=0.16
-0.6848708343370777
% es.tEx (V/m) @ t=0.16
-0.7674943233531231
% es.tEy (V/m) @ t=0.16
0
% es.tEz (V/m) @ t=0.16
-0.6848708343370724
% V (V) @ t=0.16
0.010910141143684595
% es.normE (V/m) @ t=0.18
1.0885981695187188
% es.EX (V/m) @ t=0.18
-0.7793363178670076
% es.EY (V/m) @ t=0.18
0.2967980150039089
% es.EZ (V/m) @ t=0.18
-0.6954379941482696
% es.tEX (V/m) @ t=0.18
-0.7793363178670063
% es.tEY (V/m) @ t=0.18
0
% es.tEZ (V/m) @ t=0.18
-0.6954379941482642
% es.Ex (V/m) @ t=0.18
-0.7793363178670076
% es.Ey (V/m) @ t=0.18
0.2967980150039089
% es.Ez (V/m) @ t=0.18
-0.6954379941482696
% es.tEx (V/m) @ t=0.18
-0.7793363178670063
% es.tEy (V/m) @ t=0.18
0
% es.tEz (V/m) @ t=0.18
-0.6954379941482642
% V (V) @ t=0.18
0.011078478114255236
% es.normE (V/m) @ t=0.2
1.1051393896130053
% es.EX (V/m) @ t=0.2
-0.7911783123809129
% es.EY (V/m) @ t=0.2
0.30130785644490565
% es.EZ (V/m) @ t=0.2
-0.7060051539594516
% es.tEX (V/m) @ t=0.2
-0.7911783123809073
% es.tEY (V/m) @ t=0.2
0
% es.tEZ (V/m) @ t=0.2
-0.7060051539594472
% es.Ex (V/m) @ t=0.2
-0.7911783123809129
% es.Ey (V/m) @ t=0.2
0.30130785644490565
% es.Ez (V/m) @ t=0.2
-0.7060051539594516
% es.tEx (V/m) @ t=0.2
-0.7911783123809073
% es.tEy (V/m) @ t=0.2
0
% es.tEz (V/m) @ t=0.2
-0.7060051539594472
% V (V) @ t=0.2
0.01124681508482588
% es.normE (V/m) @ t=0.22
1.121680609707275
% es.EX (V/m) @ t=0.22
-0.803020306894785
% es.EY (V/m) @ t=0.22
0.30581769788589686
% es.EZ (V/m) @ t=0.22
-0.7165723137706488
% es.tEX (V/m) @ t=0.22
-0.8030203068947763
% es.tEY (V/m) @ t=0.22
0
% es.tEZ (V/m) @ t=0.22
-0.7165723137706532
% es.Ex (V/m) @ t=0.22
-0.803020306894785
% es.Ey (V/m) @ t=0.22
0.30581769788589686
% es.Ez (V/m) @ t=0.22
-0.7165723137706488
% es.tEx (V/m) @ t=0.22
-0.8030203068947763
% es.tEy (V/m) @ t=0.22
0
% es.tEz (V/m) @ t=0.22
-0.7165723137706532
% V (V) @ t=0.22
0.011415152055396515
% es.normE (V/m) @ t=0.24
1.1382218298015494
% es.EX (V/m) @ t=0.24
-0.8148623014086802
% es.EY (V/m) @ t=0.24
0.31032753932690005
% es.EZ (V/m) @ t=0.24
-0.7271394735818211
% es.tEX (V/m) @ t=0.24
-0.8148623014086844
% es.tEY (V/m) @ t=0.24
0
% es.tEZ (V/m) @ t=0.24
-0.7271394735818149
% es.Ex (V/m) @ t=0.24
-0.8148623014086802
% es.Ey (V/m) @ t=0.24
0.31032753932690005
% es.Ez (V/m) @ t=0.24
-0.7271394735818211
% es.tEx (V/m) @ t=0.24
-0.8148623014086844
% es.tEy (V/m) @ t=0.24
0
% es.tEz (V/m) @ t=0.24
-0.7271394735818149
% V (V) @ t=0.24
0.011583489025967156
% es.normE (V/m) @ t=0.26
1.1547630498958301
% es.EX (V/m) @ t=0.26
-0.8267042959225652
% es.EY (V/m) @ t=0.26
0.3148373807678846
% es.EZ (V/m) @ t=0.26
-0.7377066333930236
% es.tEX (V/m) @ t=0.26
-0.8267042959225668
% es.tEY (V/m) @ t=0.26
0
% es.tEZ (V/m) @ t=0.26
-0.737706633393028
% es.Ex (V/m) @ t=0.26
-0.8267042959225652
% es.Ey (V/m) @ t=0.26
0.3148373807678846
% es.Ez (V/m) @ t=0.26
-0.7377066333930236
% es.tEx (V/m) @ t=0.26
-0.8267042959225668
% es.tEy (V/m) @ t=0.26
0
% es.tEz (V/m) @ t=0.26
-0.737706633393028
% V (V) @ t=0.26
0.011751825996537795
% es.normE (V/m) @ t=0.28
1.1718103895908938
% es.EX (V/m) @ t=0.28
-0.8389086262419794
% es.EY (V/m) @ t=0.28
0.31948522642991173
% es.EZ (V/m) @ t=0.28
-0.7485971130418498
% es.tEX (V/m) @ t=0.28
-0.8389086262419796
% es.tEY (V/m) @ t=0.28
0
% es.tEZ (V/m) @ t=0.28
-0.748597113041841
% es.Ex (V/m) @ t=0.28
-0.8389086262419794
% es.Ey (V/m) @ t=0.28
0.31948522642991173
% es.Ez (V/m) @ t=0.28
-0.7485971130418498
% es.tEx (V/m) @ t=0.28
-0.8389086262419796
% es.tEy (V/m) @ t=0.28
0
% es.tEz (V/m) @ t=0.28
-0.748597113041841
% V (V) @ t=0.28
0.011925312828275077
% es.normE (V/m) @ t=0.3
1.189830279852035
% es.EX (V/m) @ t=0.3
-0.8518092147031904
% es.EY (V/m) @ t=0.3
0.3243982585874954
% es.EZ (V/m) @ t=0.3
-0.7601088784315175
% es.tEX (V/m) @ t=0.3
-0.8518092147031808
% es.tEY (V/m) @ t=0.3
0
% es.tEZ (V/m) @ t=0.3
-0.7601088784315149
% es.Ex (V/m) @ t=0.3
-0.8518092147031904
% es.Ey (V/m) @ t=0.3
0.3243982585874954
% es.Ez (V/m) @ t=0.3
-0.7601088784315175
% es.tEx (V/m) @ t=0.3
-0.8518092147031808
% es.tEy (V/m) @ t=0.3
0
% es.tEz (V/m) @ t=0.3
-0.7601088784315149
% V (V) @ t=0.3
0.012108695543090292
% es.normE (V/m) @ t=0.32
1.2078501701131854
% es.EX (V/m) @ t=0.32
-0.8647098031644151
% es.EY (V/m) @ t=0.32
0.3293112907450988
% es.EZ (V/m) @ t=0.32
-0.771620643821171
% es.tEX (V/m) @ t=0.32
-0.86470980316441
% es.tEY (V/m) @ t=0.32
0
% es.tEZ (V/m) @ t=0.32
-0.7716206438211746
% es.Ex (V/m) @ t=0.32
-0.8647098031644151
% es.Ey (V/m) @ t=0.32
0.3293112907450988
% es.Ez (V/m) @ t=0.32
-0.771620643821171
% es.tEx (V/m) @ t=0.32
-0.86470980316441
% es.tEy (V/m) @ t=0.32
0
% es.tEz (V/m) @ t=0.32
-0.7716206438211746
% V (V) @ t=0.32
0.01229207825790551
% es.normE (V/m) @ t=0.34
1.2258700603743469
% es.EX (V/m) @ t=0.34
-0.8776103916256226
% es.EY (V/m) @ t=0.34
0.33422432290271376
% es.EZ (V/m) @ t=0.34
-0.7831324092108503
% es.tEX (V/m) @ t=0.34
-0.877610391625625
% es.tEY (V/m) @ t=0.34
0
% es.tEZ (V/m) @ t=0.34
-0.7831324092108485
% es.Ex (V/m) @ t=0.34
-0.8776103916256226
% es.Ey (V/m) @ t=0.34
0.33422432290271376
% es.Ez (V/m) @ t=0.34
-0.7831324092108503
% es.tEx (V/m) @ t=0.34
-0.877610391625625
% es.tEy (V/m) @ t=0.34
0
% es.tEz (V/m) @ t=0.34
-0.7831324092108485
% V (V) @ t=0.34
0.012475460972720728
% es.normE (V/m) @ t=0.36
1.243889950635502
% es.EX (V/m) @ t=0.36
-0.890510980086846
% es.EY (V/m) @ t=0.36
0.33913735506030784
% es.EZ (V/m) @ t=0.36
-0.7946441746005037
% es.tEX (V/m) @ t=0.36
-0.89051098008684
% es.tEY (V/m) @ t=0.36
0
% es.tEZ (V/m) @ t=0.36
-0.7946441746005082
% es.Ex (V/m) @ t=0.36
-0.890510980086846
% es.Ey (V/m) @ t=0.36
0.33913735506030784
% es.Ez (V/m) @ t=0.36
-0.7946441746005037
% es.tEx (V/m) @ t=0.36
-0.89051098008684
% es.tEy (V/m) @ t=0.36
0
% es.tEz (V/m) @ t=0.36
-0.7946441746005082
% V (V) @ t=0.36
0.012658843687535948
% es.normE (V/m) @ t=0.38
1.2619098408966645
% es.EX (V/m) @ t=0.38
-0.9034115685480602
% es.EY (V/m) @ t=0.38
0.3440503872178957
% es.EZ (V/m) @ t=0.38
-0.8061559399901732
% es.tEX (V/m) @ t=0.38
-0.9034115685480577
% es.tEY (V/m) @ t=0.38
0
% es.tEZ (V/m) @ t=0.38
-0.8061559399901732
% es.Ex (V/m) @ t=0.38
-0.9034115685480602
% es.Ey (V/m) @ t=0.38
0.3440503872178957
% es.Ez (V/m) @ t=0.38
-0.8061559399901732
% es.tEx (V/m) @ t=0.38
-0.9034115685480577
% es.tEy (V/m) @ t=0.38
0
% es.tEz (V/m) @ t=0.38
-0.8061559399901732
% V (V) @ t=0.38
0.012842226402351161
% es.normE (V/m) @ t=0.4
1.2799297311578384
% es.EX (V/m) @ t=0.4
-0.9163121570092783
% es.EY (V/m) @ t=0.4
0.34896341937550535
% es.EZ (V/m) @ t=0.4
-0.8176677053798462
% es.tEX (V/m) @ t=0.4
-0.9163121570092727
% es.tEY (V/m) @ t=0.4
0
% es.tEZ (V/m) @ t=0.4
-0.8176677053798471
% es.Ex (V/m) @ t=0.4
-0.9163121570092783
% es.Ey (V/m) @ t=0.4
0.34896341937550535
% es.Ez (V/m) @ t=0.4
-0.8176677053798462
% es.tEx (V/m) @ t=0.4
-0.9163121570092727
% es.tEy (V/m) @ t=0.4
0
% es.tEz (V/m) @ t=0.4
-0.8176677053798471
% V (V) @ t=0.4
0.01302560911716638
% es.normE (V/m) @ t=0.42
1.2987741844531109
% es.EX (V/m) @ t=0.42
-0.929803057120316
% es.EY (V/m) @ t=0.42
0.3541012693524954
% es.EZ (V/m) @ t=0.42
-0.8297062289864146
% es.tEX (V/m) @ t=0.42
-0.9298030571203211
% es.tEY (V/m) @ t=0.42
0
% es.tEZ (V/m) @ t=0.42
-0.8297062289864243
% es.Ex (V/m) @ t=0.42
-0.929803057120316
% es.Ey (V/m) @ t=0.42
0.3541012693524954
% es.Ez (V/m) @ t=0.42
-0.8297062289864146
% es.tEx (V/m) @ t=0.42
-0.9298030571203211
% es.tEy (V/m) @ t=0.42
0
% es.tEz (V/m) @ t=0.42
-0.8297062289864243
% V (V) @ t=0.42
0.013217382868390064
% es.normE (V/m) @ t=0.44
1.3183846107558905
% es.EX (V/m) @ t=0.44
-0.9438423237856159
% es.EY (V/m) @ t=0.44
0.3594479625278133
% es.EZ (V/m) @ t=0.44
-0.8422340815574509
% es.tEX (V/m) @ t=0.44
-0.9438423237856095
% es.tEY (V/m) @ t=0.44
0
% es.tEZ (V/m) @ t=0.44
-0.84223408155745
% es.Ex (V/m) @ t=0.44
-0.9438423237856159
% es.Ey (V/m) @ t=0.44
0.3594479625278133
% es.Ez (V/m) @ t=0.44
-0.8422340815574509
% es.tEx (V/m) @ t=0.44
-0.9438423237856095
% es.tEy (V/m) @ t=0.44
0
% es.tEz (V/m) @ t=0.44
-0.84223408155745
% V (V) @ t=0.44
0.013416951423804446
% es.normE (V/m) @ t=0.46
1.337995037058665
% es.EX (V/m) @ t=0.46
-0.9578815904509088
% es.EY (V/m) @ t=0.46
0.3647946557031103
% es.EZ (V/m) @ t=0.46
-0.8547619341284891
% es.tEX (V/m) @ t=0.46
-0.9578815904509059
% es.tEY (V/m) @ t=0.46
0
% es.tEZ (V/m) @ t=0.46
-0.8547619341284882
% es.Ex (V/m) @ t=0.46
-0.9578815904509088
% es.Ey (V/m) @ t=0.46
0.3647946557031103
% es.Ez (V/m) @ t=0.46
-0.8547619341284891
% es.tEx (V/m) @ t=0.46
-0.9578815904509059
% es.tEy (V/m) @ t=0.46
0
% es.tEz (V/m) @ t=0.46
-0.8547619341284882
% V (V) @ t=0.46
0.013616519979218828
% es.normE (V/m) @ t=0.48
1.3576054633614474
% es.EX (V/m) @ t=0.48
-0.971920857116207
% es.EY (V/m) @ t=0.48
0.3701413488784251
% es.EZ (V/m) @ t=0.48
-0.8672897866995211
% es.tEX (V/m) @ t=0.48
-0.9719208571162032
% es.tEY (V/m) @ t=0.48
0
% es.tEZ (V/m) @ t=0.48
-0.8672897866995282
% es.Ex (V/m) @ t=0.48
-0.971920857116207
% es.Ey (V/m) @ t=0.48
0.3701413488784251
% es.Ez (V/m) @ t=0.48
-0.8672897866995211
% es.tEx (V/m) @ t=0.48
-0.9719208571162032
% es.tEy (V/m) @ t=0.48
0
% es.tEz (V/m) @ t=0.48
-0.8672897866995282
% V (V) @ t=0.48
0.01381608853463321
% es.normE (V/m) @ t=0.5
1.3772158896642424
% es.EX (V/m) @ t=0.5
-0.9859601237815074
% es.EY (V/m) @ t=0.5
0.37548804205374475
% es.EZ (V/m) @ t=0.5
-0.8798176392705583
% es.tEX (V/m) @ t=0.5
-0.9859601237815072
% es.tEY (V/m) @ t=0.5
0
% es.tEZ (V/m) @ t=0.5
-0.8798176392705539
% es.Ex (V/m) @ t=0.5
-0.9859601237815074
% es.Ey (V/m) @ t=0.5
0.37548804205374475
% es.Ez (V/m) @ t=0.5
-0.8798176392705583
% es.tEx (V/m) @ t=0.5
-0.9859601237815072
% es.tEy (V/m) @ t=0.5
0
% es.tEz (V/m) @ t=0.5
-0.8798176392705539
% V (V) @ t=0.5
0.014015657090047592
% es.normE (V/m) @ t=0.52
1.396826315967048
% es.EX (V/m) @ t=0.52
-0.999999390446811
% es.EY (V/m) @ t=0.52
0.3808347352290684
% es.EZ (V/m) @ t=0.52
-0.892345491841601
% es.tEX (V/m) @ t=0.52
-0.9999993904468107
% es.tEY (V/m) @ t=0.52
0
% es.tEZ (V/m) @ t=0.52
-0.8923454918415992
% es.Ex (V/m) @ t=0.52
-0.999999390446811
% es.Ey (V/m) @ t=0.52
0.3808347352290684
% es.Ez (V/m) @ t=0.52
-0.892345491841601
% es.tEx (V/m) @ t=0.52
-0.9999993904468107
% es.tEy (V/m) @ t=0.52
0
% es.tEz (V/m) @ t=0.52
-0.8923454918415992
% V (V) @ t=0.52
0.014215225645461972
% es.normE (V/m) @ t=0.54
1.4164367422698512
% es.EX (V/m) @ t=0.54
-1.0140386571121123
% es.EY (V/m) @ t=0.54
0.38618142840439384
% es.EZ (V/m) @ t=0.54
-0.9048733444126338
% es.tEX (V/m) @ t=0.54
-1.0140386571121103
% es.tEY (V/m) @ t=0.54
0
% es.tEZ (V/m) @ t=0.54
-0.9048733444126444
% es.Ex (V/m) @ t=0.54
-1.0140386571121123
% es.Ey (V/m) @ t=0.54
0.38618142840439384
% es.Ez (V/m) @ t=0.54
-0.9048733444126338
% es.tEx (V/m) @ t=0.54
-1.0140386571121103
% es.tEy (V/m) @ t=0.54
0
% es.tEz (V/m) @ t=0.54
-0.9048733444126444
% V (V) @ t=0.54
0.014414794200876354
% es.normE (V/m) @ t=0.56
1.4365615287039213
% es.EX (V/m) @ t=0.56
-1.028446159350829
% es.EY (V/m) @ t=0.56
0.391668377724387
% es.EZ (V/m) @ t=0.56
-0.9177297780178986
% es.tEX (V/m) @ t=0.56
-1.0284461593508376
% es.tEY (V/m) @ t=0.56
0
% es.tEZ (V/m) @ t=0.56
-0.9177297780178968
% es.Ex (V/m) @ t=0.56
-1.028446159350829
% es.Ey (V/m) @ t=0.56
0.391668377724387
% es.Ez (V/m) @ t=0.56
-0.9177297780178986
% es.tEx (V/m) @ t=0.56
-1.0284461593508376
% es.tEy (V/m) @ t=0.56
0
% es.tEz (V/m) @ t=0.56
-0.9177297780178968
% V (V) @ t=0.56
0.014619596184562895
% es.normE (V/m) @ t=0.58
1.45707942688264
% es.EX (V/m) @ t=0.58
-1.043135094227705
% es.EY (V/m) @ t=0.58
0.39726252107905324
% es.EZ (V/m) @ t=0.58
-0.9308373373534824
% es.tEX (V/m) @ t=0.58
-1.0431350942277038
% es.tEY (V/m) @ t=0.58
0
% es.tEZ (V/m) @ t=0.58
-0.9308373373534842
% es.Ex (V/m) @ t=0.58
-1.043135094227705
% es.Ey (V/m) @ t=0.58
0.39726252107905324
% es.Ez (V/m) @ t=0.58
-0.9308373373534824
% es.tEx (V/m) @ t=0.58
-1.0431350942277038
% es.tEy (V/m) @ t=0.58
0
% es.tEz (V/m) @ t=0.58
-0.9308373373534842
% V (V) @ t=0.58
0.014828397938047792
% es.normE (V/m) @ t=0.6
1.4777943237295945
% es.EX (V/m) @ t=0.6
-1.0579650624256878
% es.EY (V/m) @ t=0.6
0.4029103821929718
% es.EZ (V/m) @ t=0.6
-0.9440707424189627
% es.tEX (V/m) @ t=0.6
-1.0579650624256822
% es.tEY (V/m) @ t=0.6
0
% es.tEZ (V/m) @ t=0.6
-0.94407074241896
% es.Ex (V/m) @ t=0.6
-1.0579650624256878
% es.Ey (V/m) @ t=0.6
0.4029103821929718
% es.Ez (V/m) @ t=0.6
-0.9440707424189627
% es.tEx (V/m) @ t=0.6
-1.0579650624256822
% es.tEy (V/m) @ t=0.6
0
% es.tEz (V/m) @ t=0.6
-0.94407074241896
% V (V) @ t=0.6
0.015039204081720162
% es.normE (V/m) @ t=0.62
1.4987062192448195
% es.EX (V/m) @ t=0.62
-1.072936063944802
% es.EY (V/m) @ t=0.62
0.40861196106622977
% es.EZ (V/m) @ t=0.62
-0.9574299932143226
% es.tEX (V/m) @ t=0.62
-1.072936063944801
% es.tEY (V/m) @ t=0.62
0
% es.tEZ (V/m) @ t=0.62
-0.9574299932143226
% es.Ex (V/m) @ t=0.62
-1.072936063944802
% es.Ey (V/m) @ t=0.62
0.40861196106622977
% es.Ez (V/m) @ t=0.62
-0.9574299932143226
% es.tEx (V/m) @ t=0.62
-1.072936063944801
% es.tEy (V/m) @ t=0.62
0
% es.tEz (V/m) @ t=0.62
-0.9574299932143226
% V (V) @ t=0.62
0.015252014615580005
% es.normE (V/m) @ t=0.64
1.5198151134283007
% es.EX (V/m) @ t=0.64
-1.088048098785032
% es.EY (V/m) @ t=0.64
0.41436725769871874
% es.EZ (V/m) @ t=0.64
-0.9709150897396022
% es.tEX (V/m) @ t=0.64
-1.08804809878503
% es.tEY (V/m) @ t=0.64
0
% es.tEZ (V/m) @ t=0.64
-0.9709150897396164
% es.Ex (V/m) @ t=0.64
-1.088048098785032
% es.Ey (V/m) @ t=0.64
0.41436725769871874
% es.Ez (V/m) @ t=0.64
-0.9709150897396022
% es.tEx (V/m) @ t=0.64
-1.08804809878503
% es.tEy (V/m) @ t=0.64
0
% es.tEz (V/m) @ t=0.64
-0.9709150897396164
% V (V) @ t=0.64
0.01546682953962732
% es.normE (V/m) @ t=0.66
1.5411210062800298
% es.EX (V/m) @ t=0.66
-1.1033011669463726
% es.EY (V/m) @ t=0.66
0.42017627209052133
% es.EZ (V/m) @ t=0.66
-0.984526031994756
% es.tEX (V/m) @ t=0.66
-1.103301166946368
% es.tEY (V/m) @ t=0.66
0
% es.tEZ (V/m) @ t=0.66
-0.9845260319947702
% es.Ex (V/m) @ t=0.66
-1.1033011669463726
% es.Ey (V/m) @ t=0.66
0.42017627209052133
% es.Ez (V/m) @ t=0.66
-0.984526031994756
% es.tEx (V/m) @ t=0.66
-1.103301166946368
% es.tEy (V/m) @ t=0.66
0
% es.tEz (V/m) @ t=0.66
-0.9845260319947702
% V (V) @ t=0.66
0.015683648853862107
% es.normE (V/m) @ t=0.68
1.5626238978000333
% es.EX (V/m) @ t=0.68
-1.1186952684288227
% es.EY (V/m) @ t=0.68
0.42603900424158114
% es.EZ (V/m) @ t=0.68
-0.9982628199798409
% es.tEX (V/m) @ t=0.68
-1.1186952684288243
% es.tEY (V/m) @ t=0.68
0
% es.tEZ (V/m) @ t=0.68
-0.9982628199798356
% es.Ex (V/m) @ t=0.68
-1.1186952684288227
% es.Ey (V/m) @ t=0.68
0.42603900424158114
% es.Ez (V/m) @ t=0.68
-0.9982628199798409
% es.tEx (V/m) @ t=0.68
-1.1186952684288243
% es.tEy (V/m) @ t=0.68
0
% es.tEz (V/m) @ t=0.68
-0.9982628199798356
% V (V) @ t=0.68
0.015902472558284364
% es.normE (V/m) @ t=0.7
1.5843237879882923
% es.EX (V/m) @ t=0.7
-1.1342304032323807
% es.EY (V/m) @ t=0.7
0.43195545415194436
% es.EZ (V/m) @ t=0.7
-1.0121254536948054
% es.tEX (V/m) @ t=0.7
-1.1342304032323773
% es.tEY (V/m) @ t=0.7
0
% es.tEZ (V/m) @ t=0.7
-1.0121254536948108
% es.Ex (V/m) @ t=0.7
-1.1342304032323807
% es.Ey (V/m) @ t=0.7
0.43195545415194436
% es.Ez (V/m) @ t=0.7
-1.0121254536948054
% es.tEx (V/m) @ t=0.7
-1.1342304032323773
% es.tEy (V/m) @ t=0.7
0
% es.tEz (V/m) @ t=0.7
-1.0121254536948108
% V (V) @ t=0.7
0.016123300652894093
% es.normE (V/m) @ t=0.72
1.6062206768448282
% es.EX (V/m) @ t=0.72
-1.1499065713570673
% es.EY (V/m) @ t=0.72
0.437925621821595
% es.EZ (V/m) @ t=0.72
-1.0261139331396647
% es.tEX (V/m) @ t=0.72
-1.1499065713570662
% es.tEY (V/m) @ t=0.72
0
% es.tEZ (V/m) @ t=0.72
-1.0261139331396532
% es.Ex (V/m) @ t=0.72
-1.1499065713570673
% es.Ey (V/m) @ t=0.72
0.437925621821595
% es.Ez (V/m) @ t=0.72
-1.0261139331396647
% es.tEx (V/m) @ t=0.72
-1.1499065713570662
% es.tEy (V/m) @ t=0.72
0
% es.tEz (V/m) @ t=0.72
-1.0261139331396532
% V (V) @ t=0.72
0.01634613313769129
% es.normE (V/m) @ t=0.74
1.6283145643696249
% es.EX (V/m) @ t=0.74
-1.1657237728028689
% es.EY (V/m) @ t=0.74
0.4439495072505055
% es.EZ (V/m) @ t=0.74
-1.0402282583144142
% es.tEX (V/m) @ t=0.74
-1.1657237728028664
% es.tEY (V/m) @ t=0.74
0
% es.tEZ (V/m) @ t=0.74
-1.040228258314425
% es.Ex (V/m) @ t=0.74
-1.1657237728028689
% es.Ey (V/m) @ t=0.74
0.4439495072505055
% es.Ez (V/m) @ t=0.74
-1.0402282583144142
% es.tEx (V/m) @ t=0.74
-1.1657237728028664
% es.tEy (V/m) @ t=0.74
0
% es.tEz (V/m) @ t=0.74
-1.040228258314425
% V (V) @ t=0.74
0.01657097001267597
% es.normE (V/m) @ t=0.76
1.650605450562714
% es.EX (V/m) @ t=0.76
-1.1816820075697902
% es.EY (V/m) @ t=0.76
0.45002711043874966
% es.EZ (V/m) @ t=0.76
-1.0544684292190603
% es.tEX (V/m) @ t=0.76
-1.181682007569782
% es.tEY (V/m) @ t=0.76
0
% es.tEZ (V/m) @ t=0.76
-1.0544684292190567
% es.Ex (V/m) @ t=0.76
-1.1816820075697902
% es.Ey (V/m) @ t=0.76
0.45002711043874966
% es.Ez (V/m) @ t=0.76
-1.0544684292190603
% es.tEx (V/m) @ t=0.76
-1.181682007569782
% es.tEy (V/m) @ t=0.76
0
% es.tEz (V/m) @ t=0.76
-1.0544684292190567
% V (V) @ t=0.76
0.01679781127784812
% es.normE (V/m) @ t=0.78
1.6730933354240665
% es.EX (V/m) @ t=0.78
-1.1977812756578283
% es.EY (V/m) @ t=0.78
0.45615843138623147
% es.EZ (V/m) @ t=0.78
-1.0688344458535992
% es.tEX (V/m) @ t=0.78
-1.197781275657829
% es.tEY (V/m) @ t=0.78
0
% es.tEZ (V/m) @ t=0.78
-1.0688344458535894
% es.Ex (V/m) @ t=0.78
-1.1977812756578283
% es.Ey (V/m) @ t=0.78
0.45615843138623147
% es.Ez (V/m) @ t=0.78
-1.0688344458535992
% es.tEx (V/m) @ t=0.78
-1.197781275657829
% es.tEy (V/m) @ t=0.78
0
% es.tEz (V/m) @ t=0.78
-1.0688344458535894
% V (V) @ t=0.78
0.017026656933207734
% es.normE (V/m) @ t=0.8
1.6957782189537047
% es.EX (V/m) @ t=0.8
-1.2140215770669762
% es.EY (V/m) @ t=0.8
0.4623434700930007
% es.EZ (V/m) @ t=0.8
-1.083326308218047
% es.tEX (V/m) @ t=0.8
-1.2140215770669776
% es.tEY (V/m) @ t=0.8
0
% es.tEZ (V/m) @ t=0.8
-1.083326308218055
% es.Ex (V/m) @ t=0.8
-1.2140215770669762
% es.Ey (V/m) @ t=0.8
0.4623434700930007
% es.Ez (V/m) @ t=0.8
-1.083326308218047
% es.tEx (V/m) @ t=0.8
-1.2140215770669776
% es.tEy (V/m) @ t=0.8
0
% es.tEz (V/m) @ t=0.8
-1.083326308218055
% V (V) @ t=0.8
0.017257506978754823
% es.normE (V/m) @ t=0.82
1.7186780446626875
% es.EX (V/m) @ t=0.82
-1.2304157568462977
% es.EY (V/m) @ t=0.82
0.46858709981948143
% es.EZ (V/m) @ t=0.82
-1.097955490553506
% es.tEX (V/m) @ t=0.82
-1.2304157568462872
% es.tEY (V/m) @ t=0.82
0
% es.tEZ (V/m) @ t=0.82
-1.0979554905535327
% es.Ex (V/m) @ t=0.82
-1.2304157568462977
% es.Ey (V/m) @ t=0.82
0.46858709981948143
% es.Ez (V/m) @ t=0.82
-1.097955490553506
% es.tEx (V/m) @ t=0.82
-1.2304157568462872
% es.tEy (V/m) @ t=0.82
0
% es.tEz (V/m) @ t=0.82
-1.0979554905535327
% V (V) @ t=0.82
0.017490545102290114
% es.normE (V/m) @ t=0.84
1.7421693553834494
% es.EX (V/m) @ t=0.84
-1.2472333670997833
% es.EY (V/m) @ t=0.84
0.4749915854607183
% es.EZ (V/m) @ t=0.84
-1.1129627786925465
% es.tEX (V/m) @ t=0.84
-1.2472333670997768
% es.tEY (V/m) @ t=0.84
0
% es.tEZ (V/m) @ t=0.84
-1.1129627786925536
% es.Ex (V/m) @ t=0.84
-1.2472333670997833
% es.Ey (V/m) @ t=0.84
0.4749915854607183
% es.Ez (V/m) @ t=0.84
-1.1129627786925465
% es.tEx (V/m) @ t=0.84
-1.2472333670997768
% es.tEy (V/m) @ t=0.84
0
% es.tEz (V/m) @ t=0.84
-1.1129627786925536
% V (V) @ t=0.84
0.017729625974421653
% es.normE (V/m) @ t=0.86
1.7659136201315153
% es.EX (V/m) @ t=0.86
-1.2642320669001506
% es.EY (V/m) @ t=0.86
0.48146498572179475
% es.EZ (V/m) @ t=0.86
-1.1281316940358126
% es.tEX (V/m) @ t=0.86
-1.2642320669001412
% es.tEY (V/m) @ t=0.86
0
% es.tEZ (V/m) @ t=0.86
-1.1281316940358064
% es.Ex (V/m) @ t=0.86
-1.2642320669001506
% es.Ey (V/m) @ t=0.86
0.48146498572179475
% es.Ez (V/m) @ t=0.86
-1.1281316940358126
% es.tEx (V/m) @ t=0.86
-1.2642320669001412
% es.tEy (V/m) @ t=0.86
0
% es.tEz (V/m) @ t=0.86
-1.1281316940358064
% V (V) @ t=0.86
0.017971284051992338
% es.normE (V/m) @ t=0.88
1.7899108389068854
% es.EX (V/m) @ t=0.88
-1.2814118562474148
% es.EY (V/m) @ t=0.88
0.48800730060272235
% es.EZ (V/m) @ t=0.88
-1.1434622365831926
% es.tEX (V/m) @ t=0.88
-1.2814118562474102
% es.tEY (V/m) @ t=0.88
0
% es.tEZ (V/m) @ t=0.88
-1.1434622365831828
% es.Ex (V/m) @ t=0.88
-1.2814118562474148
% es.Ey (V/m) @ t=0.88
0.48800730060272235
% es.Ez (V/m) @ t=0.88
-1.1434622365831926
% es.tEx (V/m) @ t=0.88
-1.2814118562474102
% es.tEy (V/m) @ t=0.88
0
% es.tEz (V/m) @ t=0.88
-1.1434622365831828
% V (V) @ t=0.88
0.018215519335002154
% es.normE (V/m) @ t=0.9
1.8141610117097087
% es.EX (V/m) @ t=0.9
-1.298772735141615
% es.EY (V/m) @ t=0.9
0.49461853010345314
% es.EZ (V/m) @ t=0.9
-1.1589544063347823
% es.tEX (V/m) @ t=0.9
-1.298772735141613
% es.tEY (V/m) @ t=0.9
0
% es.tEZ (V/m) @ t=0.9
-1.1589544063347894
% es.Ex (V/m) @ t=0.9
-1.298772735141615
% es.Ey (V/m) @ t=0.9
0.49461853010345314
% es.Ez (V/m) @ t=0.9
-1.1589544063347823
% es.tEx (V/m) @ t=0.9
-1.298772735141613
% es.tEy (V/m) @ t=0.9
0
% es.tEz (V/m) @ t=0.9
-1.1589544063347894
% V (V) @ t=0.9
0.0184623318234511
% es.normE (V/m) @ t=0.92
1.8386641385399933
% es.EX (V/m) @ t=0.92
-1.3163147035827092
% es.EY (V/m) @ t=0.92
0.5012986742239498
% es.EZ (V/m) @ t=0.92
-1.1746082032905383
% es.tEX (V/m) @ t=0.92
-1.3163147035827167
% es.tEY (V/m) @ t=0.92
0
% es.tEZ (V/m) @ t=0.92
-1.174608203290557
% es.Ex (V/m) @ t=0.92
-1.3163147035827092
% es.Ey (V/m) @ t=0.92
0.5012986742239498
% es.Ez (V/m) @ t=0.92
-1.1746082032905383
% es.tEx (V/m) @ t=0.92
-1.3163147035827167
% es.tEy (V/m) @ t=0.92
0
% es.tEz (V/m) @ t=0.92
-1.174608203290557
% V (V) @ t=0.92
0.018711721517339186
% es.normE (V/m) @ t=0.94
1.8634202193979013
% es.EX (V/m) @ t=0.94
-1.334037761570734
% es.EY (V/m) @ t=0.94
0.5080477329643087
% es.EZ (V/m) @ t=0.94
-1.1904236274505076
% es.tEX (V/m) @ t=0.94
-1.334037761570742
% es.tEY (V/m) @ t=0.94
0
% es.tEZ (V/m) @ t=0.94
-1.1904236274505138
% es.Ex (V/m) @ t=0.94
-1.334037761570734
% es.Ey (V/m) @ t=0.94
0.5080477329643087
% es.Ez (V/m) @ t=0.94
-1.1904236274505076
% es.tEx (V/m) @ t=0.94
-1.334037761570742
% es.tEy (V/m) @ t=0.94
0
% es.tEz (V/m) @ t=0.94
-1.1904236274505138
% V (V) @ t=0.94
0.018963688416666402
% es.normE (V/m) @ t=0.96
1.888429254283464
% es.EX (V/m) @ t=0.96
-1.3519419091056477
% es.EY (V/m) @ t=0.96
0.5148657063244322
% es.EZ (V/m) @ t=0.96
-1.2064006788146777
% es.tEX (V/m) @ t=0.96
-1.3519419091056486
% es.tEY (V/m) @ t=0.96
0
% es.tEZ (V/m) @ t=0.96
-1.206400678814676
% es.Ex (V/m) @ t=0.96
-1.3519419091056477
% es.Ey (V/m) @ t=0.96
0.5148657063244322
% es.Ez (V/m) @ t=0.96
-1.2064006788146777
% es.tEx (V/m) @ t=0.96
-1.3519419091056486
% es.tEy (V/m) @ t=0.96
0
% es.tEz (V/m) @ t=0.96
-1.206400678814676
% V (V) @ t=0.96
0.019218232521432746
% es.normE (V/m) @ t=0.98
1.9136912431968303
% es.EX (V/m) @ t=0.98
-1.37002714618751
% es.EY (V/m) @ t=0.98
0.5217525943044286
% es.EZ (V/m) @ t=0.98
-1.2225393573830283
% es.tEX (V/m) @ t=0.98
-1.370027146187506
% es.tEY (V/m) @ t=0.98
0
% es.tEZ (V/m) @ t=0.98
-1.2225393573830328
% es.Ex (V/m) @ t=0.98
-1.37002714618751
% es.Ey (V/m) @ t=0.98
0.5217525943044286
% es.Ez (V/m) @ t=0.98
-1.2225393573830283
% es.tEx (V/m) @ t=0.98
-1.370027146187506
% es.tEy (V/m) @ t=0.98
0
% es.tEz (V/m) @ t=0.98
-1.2225393573830328
% V (V) @ t=0.98
0.01947535383163823
% es.normE (V/m) @ t=1
1.9392061861380074
% es.EX (V/m) @ t=1
-1.3882934728162275
% es.EY (V/m) @ t=1
0.528708396904209
% es.EZ (V/m) @ t=1
-1.2388396631555576
% es.tEX (V/m) @ t=1
-1.3882934728162324
% es.tEY (V/m) @ t=1
0
% es.tEZ (V/m) @ t=1
-1.2388396631555647
% es.Ex (V/m) @ t=1
-1.3882934728162275
% es.Ey (V/m) @ t=1
0.528708396904209
% es.Ez (V/m) @ t=1
-1.2388396631555576
% es.tEx (V/m) @ t=1
-1.3882934728162324
% es.tEy (V/m) @ t=1
0
% es.tEz (V/m) @ t=1
-1.2388396631555647
% V (V) @ t=1
0.019735052347282848
% es.normE (V/m) @ t=1.02
1.9649740831071578
% es.EX (V/m) @ t=1.02
-1.4067408889919037
% es.EY (V/m) @ t=1.02
0.5357331141238006
% es.EZ (V/m) @ t=1.02
-1.2553015961322354
% es.tEX (V/m) @ t=1.02
-1.4067408889919033
% es.tEY (V/m) @ t=1.02
0
% es.tEZ (V/m) @ t=1.02
-1.2553015961322487
% es.Ex (V/m) @ t=1.02
-1.4067408889919037
% es.Ey (V/m) @ t=1.02
0.5357331141238006
% es.Ez (V/m) @ t=1.02
-1.2553015961322354
% es.tEx (V/m) @ t=1.02
-1.4067408889919033
% es.tEy (V/m) @ t=1.02
0
% es.tEz (V/m) @ t=1.02
-1.2553015961322487
% V (V) @ t=1.02
0.019997328068366602
% es.normE (V/m) @ t=1.04
1.9909949341044273