% Model:              1 neuron.mph
% Version:            COMSOL 6.0.0.405
% Date:               Mar 16 2023, 18:44
% Dimension:          0
% Nodes:              14017
% Expressions:        14017
% Description:        Electric field norm, Electric field, X component, Electric field, Y component, Electric field, Z component, Tangential electric field, X component, Tangential electric field, Y component, Tangential electric field, Z component, Electric field, x component, Electric field, y component, Electric field, z component, Tangential electric field, x component, Tangential electric field, y component, Tangential electric field, z component, Electric potential
% Length unit:        mm
% x
2
% y
12.2
% z
1.6599999999999997
% es.normE (V/m) @ t=0
1.8927834770455876
% es.EX (V/m) @ t=0
-1.8289288243641648
% es.EY (V/m) @ t=0
0.1408940413600661
% es.EZ (V/m) @ t=0
-0.466146940935523
% es.tEX (V/m) @ t=0
-1.8289288243641533
% es.tEY (V/m) @ t=0
0
% es.tEZ (V/m) @ t=0
-0.46614694093552345
% es.Ex (V/m) @ t=0
-1.8289288243641648
% es.Ey (V/m) @ t=0
0.1408940413600661
% es.Ez (V/m) @ t=0
-0.466146940935523
% es.tEx (V/m) @ t=0
-1.8289288243641533
% es.tEy (V/m) @ t=0
0
% es.tEz (V/m) @ t=0
-0.46614694093552345
% V (V) @ t=0
0.010969080727994435
% es.normE (V/m) @ t=0.02
1.6438980738734075
% es.EX (V/m) @ t=0.02
-1.5884397786804803
% es.EY (V/m) @ t=0.02
0.12236764529660549
% es.EZ (V/m) @ t=0.02
-0.40485247275637093
% es.tEX (V/m) @ t=0.02
-1.588439778680483
% es.tEY (V/m) @ t=0.02
0
% es.tEZ (V/m) @ t=0.02
-0.40485247275637803
% es.Ex (V/m) @ t=0.02
-1.5884397786804803
% es.Ey (V/m) @ t=0.02
0.12236764529660549
% es.Ez (V/m) @ t=0.02
-0.40485247275637093
% es.tEx (V/m) @ t=0.02
-1.588439778680483
% es.tEy (V/m) @ t=0.02
0
% es.tEz (V/m) @ t=0.02
-0.40485247275637803
% V (V) @ t=0.02
0.009526736734251065
% es.normE (V/m) @ t=0.04
1.6682747546089083
% es.EX (V/m) @ t=0.04
-1.611994089849805
% es.EY (V/m) @ t=0.04
0.12418218958236937
% es.EZ (V/m) @ t=0.04
-0.410855866316266
% es.tEX (V/m) @ t=0.04
-1.6119940898497838
% es.tEY (V/m) @ t=0.04
0
% es.tEZ (V/m) @ t=0.04
-0.41085586631625937
% es.Ex (V/m) @ t=0.04
-1.611994089849805
% es.Ey (V/m) @ t=0.04
0.12418218958236937
% es.Ez (V/m) @ t=0.04
-0.410855866316266
% es.tEx (V/m) @ t=0.04
-1.6119940898497838
% es.tEy (V/m) @ t=0.04
0
% es.tEz (V/m) @ t=0.04
-0.41085586631625937
% V (V) @ t=0.04
0.009668004456186804
% es.normE (V/m) @ t=0.06
1.6930142261664618
% es.EX (V/m) @ t=0.06
-1.6358989588230104
% es.EY (V/m) @ t=0.06
0.12602371802349277
% es.EZ (V/m) @ t=0.06
-0.41694858886623054
% es.tEX (V/m) @ t=0.06
-1.6358989588230024
% es.tEY (V/m) @ t=0.06
0
% es.tEZ (V/m) @ t=0.06
-0.41694858886622477
% es.Ex (V/m) @ t=0.06
-1.6358989588230104
% es.Ey (V/m) @ t=0.06
0.12602371802349277
% es.Ez (V/m) @ t=0.06
-0.41694858886623054
% es.tEx (V/m) @ t=0.06
-1.6358989588230024
% es.tEy (V/m) @ t=0.06
0
% es.tEz (V/m) @ t=0.06
-0.41694858886622477
% V (V) @ t=0.06
0.009811375734776771
% es.normE (V/m) @ t=0.08
1.718392018120797
% es.EX (V/m) @ t=0.08
-1.6604206141321063
% es.EY (V/m) @ t=0.08
0.12791276082140868
% es.EZ (V/m) @ t=0.08
-0.42319851365676664
% es.tEX (V/m) @ t=0.08
-1.6604206141320983
% es.tEY (V/m) @ t=0.08
0
% es.tEZ (V/m) @ t=0.08
-0.4231985136567573
% es.Ex (V/m) @ t=0.08
-1.6604206141321063
% es.Ey (V/m) @ t=0.08
0.12791276082140868
% es.Ez (V/m) @ t=0.08
-0.42319851365676664
% es.tEx (V/m) @ t=0.08
-1.6604206141320983
% es.tEy (V/m) @ t=0.08
0
% es.tEz (V/m) @ t=0.08
-0.4231985136567573
% V (V) @ t=0.08
0.00995844625839321
% es.normE (V/m) @ t=0.1
1.7442002567007808
% es.EX (V/m) @ t=0.1
-1.6853581947325873
% es.EY (V/m) @ t=0.1
0.12983384457346514
% es.EZ (V/m) @ t=0.1
-0.4295544466123933
% es.tEX (V/m) @ t=0.1
-1.6853581947325882
% es.tEY (V/m) @ t=0.1
0
% es.tEZ (V/m) @ t=0.1
-0.42955444661238396
% es.Ex (V/m) @ t=0.1
-1.6853581947325873
% es.Ey (V/m) @ t=0.1
0.12983384457346514
% es.Ez (V/m) @ t=0.1
-0.4295544466123933
% es.tEx (V/m) @ t=0.1
-1.6853581947325882
% es.tEy (V/m) @ t=0.1
0
% es.tEz (V/m) @ t=0.1
-0.42955444661238396
% V (V) @ t=0.1
0.010108011340459204
% es.normE (V/m) @ t=0.12
1.7700084952808006
% es.EX (V/m) @ t=0.12
-1.7102957753331145
% es.EY (V/m) @ t=0.12
0.13175492832549862
% es.EZ (V/m) @ t=0.12
-0.43591037956799106
% es.tEX (V/m) @ t=0.12
-1.7102957753331278
% es.tEY (V/m) @ t=0.12
0
% es.tEZ (V/m) @ t=0.12
-0.4359103795679893
% es.Ex (V/m) @ t=0.12
-1.7102957753331145
% es.Ey (V/m) @ t=0.12
0.13175492832549862
% es.Ez (V/m) @ t=0.12
-0.43591037956799106
% es.tEx (V/m) @ t=0.12
-1.7102957753331278
% es.tEy (V/m) @ t=0.12
0
% es.tEz (V/m) @ t=0.12
-0.4359103795679893
% V (V) @ t=0.12
0.010257576422525203
% es.normE (V/m) @ t=0.14
1.7962900923757208
% es.EX (V/m) @ t=0.14
-1.735690742894226
% es.EY (V/m) @ t=0.14
0.13371125570196896
% es.EZ (V/m) @ t=0.14
-0.44238289646403306
% es.tEX (V/m) @ t=0.14
-1.7356907428942083
% es.tEY (V/m) @ t=0.14
0
% es.tEZ (V/m) @ t=0.14
-0.4423828964640375
% es.Ex (V/m) @ t=0.14
-1.735690742894226
% es.Ey (V/m) @ t=0.14
0.13371125570196896
% es.Ez (V/m) @ t=0.14
-0.44238289646403306
% es.tEx (V/m) @ t=0.14
-1.7356907428942083
% es.tEy (V/m) @ t=0.14
0
% es.tEz (V/m) @ t=0.14
-0.4423828964640375
% V (V) @ t=0.14
0.010409884265849286
% es.normE (V/m) @ t=0.16
1.8244137382566197
% es.EX (V/m) @ t=0.16
-1.7628656068107604
% es.EY (V/m) @ t=0.16
0.13580473171640095
% es.EZ (V/m) @ t=0.16
-0.44930909339151226
% es.tEX (V/m) @ t=0.16
-1.7628656068107773
% es.tEY (V/m) @ t=0.16
0
% es.tEZ (V/m) @ t=0.16
-0.4493090933915074
% es.Ex (V/m) @ t=0.16
-1.7628656068107604
% es.Ey (V/m) @ t=0.16
0.13580473171640095
% es.Ez (V/m) @ t=0.16
-0.44930909339151226
% es.tEx (V/m) @ t=0.16
-1.7628656068107773
% es.tEy (V/m) @ t=0.16
0
% es.tEz (V/m) @ t=0.16
-0.4493090933915074
% V (V) @ t=0.16
0.010572865414683894
% es.normE (V/m) @ t=0.18
1.852537384137554
% es.EX (V/m) @ t=0.18
-1.7900404707273356
% es.EY (V/m) @ t=0.18
0.13789820773084183
% es.EZ (V/m) @ t=0.18
-0.4562352903189706
% es.tEX (V/m) @ t=0.18
-1.7900404707273605
% es.tEY (V/m) @ t=0.18
0
% es.tEZ (V/m) @ t=0.18
-0.45623529031895593
% es.Ex (V/m) @ t=0.18
-1.7900404707273356
% es.Ey (V/m) @ t=0.18
0.13789820773084183
% es.Ez (V/m) @ t=0.18
-0.4562352903189706
% es.tEx (V/m) @ t=0.18
-1.7900404707273605
% es.tEy (V/m) @ t=0.18
0
% es.tEz (V/m) @ t=0.18
-0.45623529031895593
% V (V) @ t=0.18
0.010735846563518503
% es.normE (V/m) @ t=0.2
1.880661030018485
% es.EX (V/m) @ t=0.2
-1.8172153346439055
% es.EY (V/m) @ t=0.2
0.1399916837452544
% es.EZ (V/m) @ t=0.2
-0.46316148724644135
% es.tEX (V/m) @ t=0.2
-1.8172153346438975
% es.tEY (V/m) @ t=0.2
0
% es.tEZ (V/m) @ t=0.2
-0.4631614872464418
% es.Ex (V/m) @ t=0.2
-1.8172153346439055
% es.Ey (V/m) @ t=0.2
0.1399916837452544
% es.Ez (V/m) @ t=0.2
-0.46316148724644135
% es.tEx (V/m) @ t=0.2
-1.8172153346438975
% es.tEy (V/m) @ t=0.2
0
% es.tEz (V/m) @ t=0.2
-0.4631614872464418
% V (V) @ t=0.2
0.01089882771235311
% es.normE (V/m) @ t=0.22
1.9087846758994127
% es.EX (V/m) @ t=0.22
-1.8443901985604727
% es.EY (V/m) @ t=0.22
0.14208515975966596
% es.EZ (V/m) @ t=0.22
-0.470087684173909
% es.tEX (V/m) @ t=0.22
-1.8443901985604647
% es.tEY (V/m) @ t=0.22
0
% es.tEZ (V/m) @ t=0.22
-0.47008768417390634
% es.Ex (V/m) @ t=0.22
-1.8443901985604727
% es.Ey (V/m) @ t=0.22
0.14208515975966596
% es.Ez (V/m) @ t=0.22
-0.470087684173909
% es.tEx (V/m) @ t=0.22
-1.8443901985604647
% es.tEy (V/m) @ t=0.22
0
% es.tEz (V/m) @ t=0.22
-0.47008768417390634
% V (V) @ t=0.22
0.01106180886118772
% es.normE (V/m) @ t=0.24
1.9369083217803449
% es.EX (V/m) @ t=0.24
-1.8715650624770408
% es.EY (V/m) @ t=0.24
0.14417863577409973
% es.EZ (V/m) @ t=0.24
-0.4770138811013811
% es.tEX (V/m) @ t=0.24
-1.8715650624770372
% es.tEY (V/m) @ t=0.24
0
% es.tEZ (V/m) @ t=0.24
-0.4770138811013851
% es.Ex (V/m) @ t=0.24
-1.8715650624770408
% es.Ey (V/m) @ t=0.24
0.14417863577409973
% es.Ez (V/m) @ t=0.24
-0.4770138811013811
% es.tEx (V/m) @ t=0.24
-1.8715650624770372
% es.tEy (V/m) @ t=0.24
0
% es.tEz (V/m) @ t=0.24
-0.4770138811013851
% V (V) @ t=0.24
0.011224790010022329
% es.normE (V/m) @ t=0.26
1.965031967661267
% es.EX (V/m) @ t=0.26
-1.8987399263936044
% es.EY (V/m) @ t=0.26
0.14627211178849897
% es.EZ (V/m) @ t=0.26
-0.483940078028839
% es.tEX (V/m) @ t=0.26
-1.8987399263936133
% es.tEY (V/m) @ t=0.26
0
% es.tEZ (V/m) @ t=0.26
-0.48394007802883365
% es.Ex (V/m) @ t=0.26
-1.8987399263936044
% es.Ey (V/m) @ t=0.26
0.14627211178849897
% es.Ez (V/m) @ t=0.26
-0.483940078028839
% es.tEx (V/m) @ t=0.26
-1.8987399263936133
% es.tEy (V/m) @ t=0.26
0
% es.tEz (V/m) @ t=0.26
-0.48394007802883365
% V (V) @ t=0.26
0.011387771158856936
% es.normE (V/m) @ t=0.28
1.9942021874142224
% es.EX (V/m) @ t=0.28
-1.9269260416025773
% es.EY (V/m) @ t=0.28
0.1484435462124497
% es.EZ (V/m) @ t=0.28
-0.4911240662745966
% es.tEX (V/m) @ t=0.28
-1.9269260416025524
% es.tEY (V/m) @ t=0.28
0
% es.tEZ (V/m) @ t=0.28
-0.4911240662745868
% es.Ex (V/m) @ t=0.28
-1.9269260416025773
% es.Ey (V/m) @ t=0.28
0.1484435462124497
% es.Ez (V/m) @ t=0.28
-0.4911240662745966
% es.tEx (V/m) @ t=0.28
-1.9269260416025524
% es.tEy (V/m) @ t=0.28
0
% es.tEz (V/m) @ t=0.28
-0.4911240662745868
% V (V) @ t=0.28
0.01155681458338102
% es.normE (V/m) @ t=0.3
2.024824714490771
% es.EX (V/m) @ t=0.3
-1.9565154477757103
% es.EY (V/m) @ t=0.3
0.15072316179028056
% es.EZ (V/m) @ t=0.3
-0.4986657858086234
% es.tEX (V/m) @ t=0.3
-1.9565154477757485
% es.tEY (V/m) @ t=0.3
0
% es.tEZ (V/m) @ t=0.3
-0.4986657858086154
% es.Ex (V/m) @ t=0.3
-1.9565154477757103
% es.Ey (V/m) @ t=0.3
0.15072316179028056
% es.Ez (V/m) @ t=0.3
-0.4986657858086234
% es.tEx (V/m) @ t=0.3
-1.9565154477757485
% es.tEy (V/m) @ t=0.3
0
% es.tEz (V/m) @ t=0.3
-0.4986657858086154
% V (V) @ t=0.3
0.011734270493269975
% es.normE (V/m) @ t=0.32
2.055447241567377
% es.EX (V/m) @ t=0.32
-1.9861048539488868
% es.EY (V/m) @ t=0.32
0.1530027773680811
% es.EZ (V/m) @ t=0.32
-0.5062075053426343
% es.tEX (V/m) @ t=0.32
-1.9861048539488717
% es.tEY (V/m) @ t=0.32
0
% es.tEZ (V/m) @ t=0.32
-0.5062075053426387
% es.Ex (V/m) @ t=0.32
-1.9861048539488868
% es.Ey (V/m) @ t=0.32
0.1530027773680811
% es.Ez (V/m) @ t=0.32
-0.5062075053426343
% es.tEx (V/m) @ t=0.32
-1.9861048539488717
% es.tEy (V/m) @ t=0.32
0
% es.tEz (V/m) @ t=0.32
-0.5062075053426387
% V (V) @ t=0.32
0.01191172640315893
% es.normE (V/m) @ t=0.34
2.0860697686439957
% es.EX (V/m) @ t=0.34
-2.015694260122048
% es.EY (V/m) @ t=0.34
0.15528239294593937
% es.EZ (V/m) @ t=0.34
-0.513749224876662
% es.tEX (V/m) @ t=0.34
-2.0156942601220535
% es.tEY (V/m) @ t=0.34
0
% es.tEZ (V/m) @ t=0.34
-0.513749224876646
% es.Ex (V/m) @ t=0.34
-2.015694260122048
% es.Ey (V/m) @ t=0.34
0.15528239294593937
% es.Ez (V/m) @ t=0.34
-0.513749224876662
% es.tEx (V/m) @ t=0.34
-2.0156942601220535
% es.tEy (V/m) @ t=0.34
0
% es.tEz (V/m) @ t=0.34
-0.513749224876646
% V (V) @ t=0.34
0.01208918231304789
% es.normE (V/m) @ t=0.36
2.1166922957205965
% es.EX (V/m) @ t=0.36
-2.045283666295173
% es.EY (V/m) @ t=0.36
0.15756200852375957
% es.EZ (V/m) @ t=0.36
-0.5212909444106941
% es.tEX (V/m) @ t=0.36
-2.0452836662951643
% es.tEY (V/m) @ t=0.36
0
% es.tEZ (V/m) @ t=0.36
-0.5212909444106888
% es.Ex (V/m) @ t=0.36
-2.045283666295173
% es.Ey (V/m) @ t=0.36
0.15756200852375957
% es.Ez (V/m) @ t=0.36
-0.5212909444106941
% es.tEx (V/m) @ t=0.36
-2.0452836662951643
% es.tEy (V/m) @ t=0.36
0
% es.tEz (V/m) @ t=0.36
-0.5212909444106888
% V (V) @ t=0.36
0.012266638222936846
% es.normE (V/m) @ t=0.38
2.1473148227972687
% es.EX (V/m) @ t=0.38
-2.074873072468364
% es.EY (V/m) @ t=0.38
0.1598416241015458
% es.EZ (V/m) @ t=0.38
-0.5288326639446956
% es.tEX (V/m) @ t=0.38
-2.074873072468371
% es.tEY (V/m) @ t=0.38
0
% es.tEZ (V/m) @ t=0.38
-0.5288326639446979
% es.Ex (V/m) @ t=0.38
-2.074873072468364
% es.Ey (V/m) @ t=0.38
0.1598416241015458
% es.Ez (V/m) @ t=0.38
-0.5288326639446956
% es.tEx (V/m) @ t=0.38
-2.074873072468371
% es.tEy (V/m) @ t=0.38
0
% es.tEz (V/m) @ t=0.38
-0.5288326639446979
% V (V) @ t=0.38
0.012444094132825803
% es.normE (V/m) @ t=0.4
2.177937349873906
% es.EX (V/m) @ t=0.4
-2.104462478641489
% es.EY (V/m) @ t=0.4
0.16212123967938108
% es.EZ (V/m) @ t=0.4
-0.5363743834787278
% es.tEX (V/m) @ t=0.4
-2.1044624786414943
% es.tEY (V/m) @ t=0.4
0
% es.tEZ (V/m) @ t=0.4
-0.5363743834787353
% es.Ex (V/m) @ t=0.4
-2.104462478641489
% es.Ey (V/m) @ t=0.4
0.16212123967938108
% es.Ez (V/m) @ t=0.4
-0.5363743834787278
% es.tEx (V/m) @ t=0.4
-2.1044624786414943
% es.tEy (V/m) @ t=0.4
0
% es.tEz (V/m) @ t=0.4
-0.5363743834787353
% V (V) @ t=0.4
0.012621550042714761
% es.normE (V/m) @ t=0.42
2.2102615107512715
% es.EX (V/m) @ t=0.42
-2.1356961131721226
% es.EY (V/m) @ t=0.42
0.16452751711057767
% es.EZ (V/m) @ t=0.42
-0.5443351730359853
% es.tEX (V/m) @ t=0.42
-2.13569611317212
% es.tEY (V/m) @ t=0.42
0
% es.tEZ (V/m) @ t=0.42
-0.5443351730359876
% es.Ex (V/m) @ t=0.42
-2.1356961131721226
% es.Ey (V/m) @ t=0.42
0.16452751711057767
% es.Ez (V/m) @ t=0.42
-0.5443351730359853
% es.tEx (V/m) @ t=0.42
-2.13569611317212
% es.tEy (V/m) @ t=0.42
0
% es.tEz (V/m) @ t=0.42
-0.5443351730359876
% V (V) @ t=0.42
0.012808867350640985
% es.normE (V/m) @ t=0.44
2.243571413298561
% es.EX (V/m) @ t=0.44
-2.1678822348983875
% es.EY (V/m) @ t=0.44
0.16700716865247356
% es.EZ (V/m) @ t=0.44
-0.5525387262150954
% es.tEX (V/m) @ t=0.44
-2.167882234898393
% es.tEY (V/m) @ t=0.44
0
% es.tEZ (V/m) @ t=0.44
-0.5525387262150954
% es.Ex (V/m) @ t=0.44
-2.1678822348983875
% es.Ey (V/m) @ t=0.44
0.16700716865247356
% es.Ez (V/m) @ t=0.44
-0.5525387262150954
% es.tEx (V/m) @ t=0.44
-2.167882234898393
% es.tEy (V/m) @ t=0.44
0
% es.tEz (V/m) @ t=0.44
-0.5525387262150954
% V (V) @ t=0.44
0.013001897280733626
% es.normE (V/m) @ t=0.46
2.2768813158458716
% es.EX (V/m) @ t=0.46
-2.2000683566246533
% es.EY (V/m) @ t=0.46
0.16948682019438777
% es.EZ (V/m) @ t=0.46
-0.5607422793942254
% es.tEX (V/m) @ t=0.46
-2.2000683566246515
% es.tEY (V/m) @ t=0.46
0
% es.tEZ (V/m) @ t=0.46
-0.5607422793942227
% es.Ex (V/m) @ t=0.46
-2.2000683566246533
% es.Ey (V/m) @ t=0.46
0.16948682019438777
% es.Ez (V/m) @ t=0.46
-0.5607422793942254
% es.tEx (V/m) @ t=0.46
-2.2000683566246515
% es.tEy (V/m) @ t=0.46
0
% es.tEz (V/m) @ t=0.46
-0.5607422793942227
% V (V) @ t=0.46
0.013194927210826261
% es.normE (V/m) @ t=0.48
2.310191218393184
% es.EX (V/m) @ t=0.48
-2.232254478350911
% es.EY (V/m) @ t=0.48
0.1719664717363235
% es.EZ (V/m) @ t=0.48
-0.5689458325733363
% es.tEX (V/m) @ t=0.48
-2.2322544783508924
% es.tEY (V/m) @ t=0.48
0
% es.tEZ (V/m) @ t=0.48
-0.5689458325733554
% es.Ex (V/m) @ t=0.48
-2.232254478350911
% es.Ey (V/m) @ t=0.48
0.1719664717363235
% es.Ez (V/m) @ t=0.48
-0.5689458325733363
% es.tEx (V/m) @ t=0.48
-2.2322544783508924
% es.tEy (V/m) @ t=0.48
0
% es.tEz (V/m) @ t=0.48
-0.5689458325733554
% V (V) @ t=0.48
0.013387957140918902
% es.normE (V/m) @ t=0.5
2.3435011209405188
% es.EX (V/m) @ t=0.5
-2.264440600077176
% es.EY (V/m) @ t=0.5
0.1744461232782094
% es.EZ (V/m) @ t=0.5
-0.5771493857524725
% es.tEX (V/m) @ t=0.5
-2.2644406000771653
% es.tEY (V/m) @ t=0.5
0
% es.tEZ (V/m) @ t=0.5
-0.5771493857524703
% es.Ex (V/m) @ t=0.5
-2.264440600077176
% es.Ey (V/m) @ t=0.5
0.1744461232782094
% es.Ez (V/m) @ t=0.5
-0.5771493857524725
% es.tEx (V/m) @ t=0.5
-2.2644406000771653
% es.tEy (V/m) @ t=0.5
0
% es.tEz (V/m) @ t=0.5
-0.5771493857524703
% V (V) @ t=0.5
0.013580987071011541
% es.normE (V/m) @ t=0.52
2.3768110234878788
% es.EX (V/m) @ t=0.52
-2.296626721803457
% es.EY (V/m) @ t=0.52
0.1769257748201185
% es.EZ (V/m) @ t=0.52
-0.5853529389315906
% es.tEX (V/m) @ t=0.52
-2.2966267218034666
% es.tEY (V/m) @ t=0.52
0
% es.tEZ (V/m) @ t=0.52
-0.5853529389315817
% es.Ex (V/m) @ t=0.52
-2.296626721803457
% es.Ey (V/m) @ t=0.52
0.1769257748201185
% es.Ez (V/m) @ t=0.52
-0.5853529389315906
% es.tEx (V/m) @ t=0.52
-2.2966267218034666
% es.tEy (V/m) @ t=0.52
0
% es.tEz (V/m) @ t=0.52
-0.5853529389315817
% V (V) @ t=0.52
0.013774017001104177
% es.normE (V/m) @ t=0.54
2.410120926035216
% es.EX (V/m) @ t=0.54
-2.3288128435297075
% es.EY (V/m) @ t=0.54
0.17940542636202028
% es.EZ (V/m) @ t=0.54
-0.5935564921106913
% es.tEX (V/m) @ t=0.54
-2.3288128435297217
% es.tEY (V/m) @ t=0.54
0
% es.tEZ (V/m) @ t=0.54
-0.593556492110686
% es.Ex (V/m) @ t=0.54
-2.3288128435297075
% es.Ey (V/m) @ t=0.54
0.17940542636202028
% es.Ez (V/m) @ t=0.54
-0.5935564921106913
% es.tEx (V/m) @ t=0.54
-2.3288128435297217
% es.tEy (V/m) @ t=0.54
0
% es.tEz (V/m) @ t=0.54
-0.593556492110686
% V (V) @ t=0.54
0.013967046931196813
% es.normE (V/m) @ t=0.56
2.444513878167928
% es.EX (V/m) @ t=0.56
-2.3620455063786574
% es.EY (V/m) @ t=0.56
0.18196559845570948
% es.EZ (V/m) @ t=0.56
-0.6020266882731256
% es.tEX (V/m) @ t=0.56
-2.36204550637866
% es.tEY (V/m) @ t=0.56
0
% es.tEZ (V/m) @ t=0.56
-0.6020266882731242
% es.Ex (V/m) @ t=0.56
-2.3620455063786574
% es.Ey (V/m) @ t=0.56
0.18196559845570948
% es.Ez (V/m) @ t=0.56
-0.6020266882731256
% es.tEx (V/m) @ t=0.56
-2.36204550637866
% es.tEy (V/m) @ t=0.56
0
% es.tEz (V/m) @ t=0.56
-0.6020266882731242
% V (V) @ t=0.56
0.01416635877501154
% es.normE (V/m) @ t=0.58
2.4794108942531254
% es.EX (V/m) @ t=0.58
-2.395765241714292
% es.EY (V/m) @ t=0.58
0.1845632457565234
% es.EZ (V/m) @ t=0.58
-0.6106209832006675
% es.tEX (V/m) @ t=0.58
-2.395765241714283
% es.tEY (V/m) @ t=0.58
0
% es.tEZ (V/m) @ t=0.58
-0.6106209832006684
% es.Ex (V/m) @ t=0.58
-2.395765241714292
% es.Ey (V/m) @ t=0.58
0.1845632457565234
% es.Ez (V/m) @ t=0.58
-0.6106209832006675
% es.tEx (V/m) @ t=0.58
-2.395765241714283
% es.tEy (V/m) @ t=0.58
0
% es.tEz (V/m) @ t=0.58
-0.6106209832006684
% V (V) @ t=0.58
0.014368594294993238
% es.normE (V/m) @ t=0.6
2.514642717250771
% es.EX (V/m) @ t=0.6
-2.4298084979734114
% es.EY (V/m) @ t=0.6
0.18718578465761326
% es.EZ (V/m) @ t=0.6
-0.6192977064077403
% es.tEX (V/m) @ t=0.6
-2.4298084979734007
% es.tEY (V/m) @ t=0.6
0
% es.tEZ (V/m) @ t=0.6
-0.6192977064077425
% es.Ex (V/m) @ t=0.6
-2.4298084979734114
% es.Ey (V/m) @ t=0.6
0.18718578465761326
% es.Ez (V/m) @ t=0.6
-0.6192977064077403
% es.tEx (V/m) @ t=0.6
-2.4298084979734007
% es.tEy (V/m) @ t=0.6
0
% es.tEz (V/m) @ t=0.6
-0.6192977064077425
% V (V) @ t=0.6
0.014572771764970379
% es.normE (V/m) @ t=0.62
2.550209347160794
% es.EX (V/m) @ t=0.62
-2.4641752751559434
% es.EY (V/m) @ t=0.62
0.1898332151589387
% es.EZ (V/m) @ t=0.62
-0.6280568578943373
% es.tEX (V/m) @ t=0.62
-2.4641752751559487
% es.tEY (V/m) @ t=0.62
0
% es.tEZ (V/m) @ t=0.62
-0.6280568578943324
% es.Ex (V/m) @ t=0.62
-2.4641752751559434
% es.Ey (V/m) @ t=0.62
0.1898332151589387
% es.Ez (V/m) @ t=0.62
-0.6280568578943373
% es.tEx (V/m) @ t=0.62
-2.4641752751559487
% es.tEy (V/m) @ t=0.62
0
% es.tEz (V/m) @ t=0.62
-0.6280568578943324
% V (V) @ t=0.62
0.014778891184942957
% es.normE (V/m) @ t=0.64
2.586110783983261
% es.EX (V/m) @ t=0.64
-2.4988655732619574
% es.EY (V/m) @ t=0.64
0.19250553726047104
% es.EZ (V/m) @ t=0.64
-0.6368984376604381
% es.tEX (V/m) @ t=0.64
-2.4988655732619485
% es.tEY (V/m) @ t=0.64
0
% es.tEZ (V/m) @ t=0.64
-0.6368984376604381
% es.Ex (V/m) @ t=0.64
-2.4988655732619574
% es.Ey (V/m) @ t=0.64
0.19250553726047104
% es.Ez (V/m) @ t=0.64
-0.6368984376604381
% es.tEx (V/m) @ t=0.64
-2.4988655732619485
% es.tEy (V/m) @ t=0.64
0
% es.tEz (V/m) @ t=0.64
-0.6368984376604381
% V (V) @ t=0.64
0.014986952554910973
% es.normE (V/m) @ t=0.66
2.6223470277181606
% es.EX (V/m) @ t=0.66
-2.5338793922914125
% es.EY (V/m) @ t=0.66
0.1952027509622758
% es.EZ (V/m) @ t=0.66
-0.6458224457061088
% es.tEX (V/m) @ t=0.66
-2.5338793922914142
% es.tEY (V/m) @ t=0.66
0
% es.tEZ (V/m) @ t=0.66
-0.6458224457061057
% es.Ex (V/m) @ t=0.66
-2.5338793922914125
% es.Ey (V/m) @ t=0.66
0.1952027509622758
% es.Ez (V/m) @ t=0.66
-0.6458224457061088
% es.tEx (V/m) @ t=0.66
-2.5338793922914142
% es.tEy (V/m) @ t=0.66
0
% es.tEz (V/m) @ t=0.66
-0.6458224457061057
% V (V) @ t=0.66
0.015196955874874424
% es.normE (V/m) @ t=0.68
2.6589180783654176
% es.EX (V/m) @ t=0.68
-2.5692167322442447
% es.EY (V/m) @ t=0.68
0.19792485626431067
% es.EZ (V/m) @ t=0.68
-0.6548288820312673
% es.tEX (V/m) @ t=0.68
-2.5692167322442536
% es.tEY (V/m) @ t=0.68
0
% es.tEZ (V/m) @ t=0.68
-0.6548288820312678
% es.Ex (V/m) @ t=0.68
-2.5692167322442447
% es.Ey (V/m) @ t=0.68
0.19792485626431067
% es.Ez (V/m) @ t=0.68
-0.6548288820312673
% es.tEx (V/m) @ t=0.68
-2.5692167322442536
% es.tEy (V/m) @ t=0.68
0
% es.tEz (V/m) @ t=0.68
-0.6548288820312678
% V (V) @ t=0.68
0.015408901144833315
% es.normE (V/m) @ t=0.7
2.6958239359251825
% es.EX (V/m) @ t=0.7
-2.6048775931205803
% es.EY (V/m) @ t=0.7
0.20067185316660952
% es.EZ (V/m) @ t=0.7
-0.6639177466359718
% es.tEX (V/m) @ t=0.7
-2.6048775931205874
% es.tEY (V/m) @ t=0.7
0
% es.tEZ (V/m) @ t=0.7
-0.6639177466359776
% es.Ex (V/m) @ t=0.7
-2.6048775931205803
% es.Ey (V/m) @ t=0.7
0.20067185316660952
% es.Ez (V/m) @ t=0.7
-0.6639177466359718
% es.tEx (V/m) @ t=0.7
-2.6048775931205874
% es.tEy (V/m) @ t=0.7
0
% es.tEz (V/m) @ t=0.7
-0.6639177466359776
% V (V) @ t=0.7
0.015622788364787643
% es.normE (V/m) @ t=0.72
2.733064600397411
% es.EX (V/m) @ t=0.72
-2.6408619749203783
% es.EY (V/m) @ t=0.72
0.2034437416691165
% es.EZ (V/m) @ t=0.72
-0.6730890395201725
% es.tEX (V/m) @ t=0.72
-2.6408619749203766
% es.tEY (V/m) @ t=0.72
0
% es.tEZ (V/m) @ t=0.72
-0.6730890395201712
% es.Ex (V/m) @ t=0.72
-2.6408619749203783
% es.Ey (V/m) @ t=0.72
0.2034437416691165
% es.Ez (V/m) @ t=0.72
-0.6730890395201725
% es.tEx (V/m) @ t=0.72
-2.6408619749203766
% es.tEy (V/m) @ t=0.72
0
% es.tEz (V/m) @ t=0.72
-0.6730890395201712
% V (V) @ t=0.72
0.015838617534737403
% es.normE (V/m) @ t=0.74
2.7706400717820574
% es.EX (V/m) @ t=0.74
-2.6771698776435606
% es.EY (V/m) @ t=0.74
0.20624052177187513
% es.EZ (V/m) @ t=0.74
-0.6823427606839219
% es.tEX (V/m) @ t=0.74
-2.677169877643564
% es.tEY (V/m) @ t=0.74
0
% es.tEZ (V/m) @ t=0.74
-0.6823427606839267
% es.Ex (V/m) @ t=0.74
-2.6771698776435606
% es.Ey (V/m) @ t=0.74
0.20624052177187513
% es.Ez (V/m) @ t=0.74
-0.6823427606839219
% es.tEx (V/m) @ t=0.74
-2.677169877643564
% es.tEy (V/m) @ t=0.74
0
% es.tEz (V/m) @ t=0.74
-0.6823427606839267
% V (V) @ t=0.74
0.016056388654682608
% es.normE (V/m) @ t=0.76
2.8085503500792313
% es.EX (V/m) @ t=0.76
-2.713801301290234
% es.EY (V/m) @ t=0.76
0.20906219347488508
% es.EZ (V/m) @ t=0.76
-0.6916789101271803
% es.tEX (V/m) @ t=0.76
-2.7138013012902427
% es.tEY (V/m) @ t=0.76
0
% es.tEZ (V/m) @ t=0.76
-0.6916789101271767
% es.Ex (V/m) @ t=0.76
-2.713801301290234
% es.Ey (V/m) @ t=0.76
0.20906219347488508
% es.Ez (V/m) @ t=0.76
-0.6916789101271803
% es.tEx (V/m) @ t=0.76
-2.7138013012902427
% es.tEy (V/m) @ t=0.76
0
% es.tEz (V/m) @ t=0.76
-0.6916789101271767
% V (V) @ t=0.76
0.016276101724623248
% es.normE (V/m) @ t=0.78
2.846795435288905
% es.EX (V/m) @ t=0.78
-2.750756245860339
% es.EY (V/m) @ t=0.78
0.21190875677813215
% es.EZ (V/m) @ t=0.78
-0.7010974878500087
% es.tEX (V/m) @ t=0.78
-2.750756245860316
% es.tEY (V/m) @ t=0.78
0
% es.tEZ (V/m) @ t=0.78
-0.7010974878500029
% es.Ex (V/m) @ t=0.78
-2.750756245860339
% es.Ey (V/m) @ t=0.78
0.21190875677813215
% es.Ez (V/m) @ t=0.78
-0.7010974878500087
% es.tEx (V/m) @ t=0.78
-2.750756245860316
% es.tEy (V/m) @ t=0.78
0
% es.tEz (V/m) @ t=0.78
-0.7010974878500029
% V (V) @ t=0.78
0.016497756744559323
% es.normE (V/m) @ t=0.8
2.885375327411099
% es.EX (V/m) @ t=0.8
-2.788034711353909
% es.EY (V/m) @ t=0.8
0.21478021168160555
% es.EZ (V/m) @ t=0.8
-0.7105984938522982
% es.tEX (V/m) @ t=0.8
-2.7880347113539194
% es.tEY (V/m) @ t=0.8
0
% es.tEZ (V/m) @ t=0.8
-0.7105984938522916
% es.Ex (V/m) @ t=0.8
-2.788034711353909
% es.Ey (V/m) @ t=0.8
0.21478021168160555
% es.Ez (V/m) @ t=0.8
-0.7105984938522982
% es.tEx (V/m) @ t=0.8
-2.7880347113539194
% es.tEy (V/m) @ t=0.8
0
% es.tEz (V/m) @ t=0.8
-0.7105984938522916
% V (V) @ t=0.8
0.01672135371449084
% es.normE (V/m) @ t=0.82
2.9244718056822094
% es.EX (V/m) @ t=0.82
-2.8258123759868514
% es.EY (V/m) @ t=0.82
0.2176899764626118
% es.EZ (V/m) @ t=0.82
-0.720226605046657
% es.tEX (V/m) @ t=0.82
-2.8258123759868816
% es.tEY (V/m) @ t=0.82
0
% es.tEZ (V/m) @ t=0.82
-0.7202266050466513
% es.Ex (V/m) @ t=0.82
-2.8258123759868514
% es.Ey (V/m) @ t=0.82
0.2176899764626118
% es.Ez (V/m) @ t=0.82
-0.720226605046657
% es.tEx (V/m) @ t=0.82
-2.8258123759868816
% es.tEy (V/m) @ t=0.82
0
% es.tEz (V/m) @ t=0.82
-0.7202266050466513
% V (V) @ t=0.82
0.016947951737434755
% es.normE (V/m) @ t=0.84
2.964439776266333
% es.EX (V/m) @ t=0.84
-2.8644322342778885
% es.EY (V/m) @ t=0.84
0.22066424899400072
% es.EZ (V/m) @ t=0.84
-0.7300690487310675
% es.tEX (V/m) @ t=0.84
-2.86443223427791
% es.tEY (V/m) @ t=0.84
0
% es.tEZ (V/m) @ t=0.84
-0.7300690487310781
% es.Ex (V/m) @ t=0.84
-2.8644322342778885
% es.Ey (V/m) @ t=0.84
0.22066424899400072
% es.Ez (V/m) @ t=0.84
-0.7300690487310675
% es.tEx (V/m) @ t=0.84
-2.86443223427791
% es.tEy (V/m) @ t=0.84
0
% es.tEz (V/m) @ t=0.84
-0.7300690487310781
% V (V) @ t=0.84
0.017179618608350905
% es.normE (V/m) @ t=0.86
3.0048375642332266
% es.EX (V/m) @ t=0.86
-2.903467435144597
% es.EY (V/m) @ t=0.86
0.22367042645047874
% es.EZ (V/m) @ t=0.86
-0.7400172719562992
% es.tEX (V/m) @ t=0.86
-2.903467435144595
% es.tEY (V/m) @ t=0.86
0
% es.tEZ (V/m) @ t=0.86
-0.7400172719562796
% es.Ex (V/m) @ t=0.86
-2.903467435144597
% es.Ey (V/m) @ t=0.86
0.22367042645047874
% es.Ez (V/m) @ t=0.86
-0.7400172719562992
% es.tEx (V/m) @ t=0.86
-2.903467435144595
% es.tEy (V/m) @ t=0.86
0
% es.tEz (V/m) @ t=0.86
-0.7400172719562796
% V (V) @ t=0.86
0.01741378099014865
% es.normE (V/m) @ t=0.88
3.0456651695830423
% es.EX (V/m) @ t=0.88
-2.9429179785869977
% es.EY (V/m) @ t=0.88
0.2267085088319991
% es.EZ (V/m) @ t=0.88
-0.7500712747223632
% es.tEX (V/m) @ t=0.88
-2.9429179785869977
% es.tEY (V/m) @ t=0.88
0
% es.tEZ (V/m) @ t=0.88
-0.7500712747223623
% es.Ex (V/m) @ t=0.88
-2.9429179785869977
% es.Ey (V/m) @ t=0.88
0.2267085088319991
% es.Ez (V/m) @ t=0.88
-0.7500712747223632
% es.tEx (V/m) @ t=0.88
-2.9429179785869977
% es.tEy (V/m) @ t=0.88
0
% es.tEz (V/m) @ t=0.88
-0.7500712747223623
% V (V) @ t=0.88
0.017650438882828
% es.normE (V/m) @ t=0.9
3.08692259231593
% es.EX (V/m) @ t=0.9
-2.982783864605109
% es.EY (V/m) @ t=0.9
0.22977849613858037
% es.EZ (V/m) @ t=0.9
-0.7602310570292312
% es.tEX (V/m) @ t=0.9
-2.9827838646050786
% es.tEY (V/m) @ t=0.9
0
% es.tEZ (V/m) @ t=0.9
-0.7602310570292339
% es.Ex (V/m) @ t=0.9
-2.982783864605109
% es.Ey (V/m) @ t=0.9
0.22977849613858037
% es.Ez (V/m) @ t=0.9
-0.7602310570292312
% es.tEx (V/m) @ t=0.9
-2.9827838646050786
% es.tEy (V/m) @ t=0.9
0
% es.tEz (V/m) @ t=0.9
-0.7602310570292339
% V (V) @ t=0.9
0.017889592286388947
% es.normE (V/m) @ t=0.92
3.1286098324319966
% es.EX (V/m) @ t=0.92
-3.0230650931988947
% es.EY (V/m) @ t=0.92
0.23288038837022884
% es.EZ (V/m) @ t=0.92
-0.7704966188768827
% es.tEX (V/m) @ t=0.92
-3.0230650931989054
% es.tEY (V/m) @ t=0.92
0
% es.tEZ (V/m) @ t=0.92
-0.7704966188768765
% es.Ex (V/m) @ t=0.92
-3.0230650931988947
% es.Ey (V/m) @ t=0.92
0.23288038837022884
% es.Ez (V/m) @ t=0.92
-0.7704966188768827
% es.tEx (V/m) @ t=0.92
-3.0230650931989054
% es.tEy (V/m) @ t=0.92
0
% es.tEz (V/m) @ t=0.92
-0.7704966188768765
% V (V) @ t=0.92
0.018131241200831486
% es.normE (V/m) @ t=0.94
3.1707268899313226
% es.EX (V/m) @ t=0.94
-3.0637616643682755
% es.EY (V/m) @ t=0.94
0.23601418552690945
% es.EZ (V/m) @ t=0.94
-0.7808679602653577
% es.tEX (V/m) @ t=0.94
-3.063761664368272
% es.tEY (V/m) @ t=0.94
0
% es.tEZ (V/m) @ t=0.94
-0.7808679602653577
% es.Ex (V/m) @ t=0.94
-3.0637616643682755
% es.Ey (V/m) @ t=0.94
0.23601418552690945
% es.Ez (V/m) @ t=0.94
-0.7808679602653577
% es.tEx (V/m) @ t=0.94
-3.063761664368272
% es.tEy (V/m) @ t=0.94
0
% es.tEz (V/m) @ t=0.94
-0.7808679602653577
% V (V) @ t=0.94
0.018375385626155625
% es.normE (V/m) @ t=0.96
3.2132737648142213
% es.EX (V/m) @ t=0.96
-3.104873578113409
% es.EY (V/m) @ t=0.96
0.23917988760864672
% es.EZ (V/m) @ t=0.96
-0.7913450811946641
% es.tEX (V/m) @ t=0.96
-3.1048735781133985
% es.tEY (V/m) @ t=0.96
0
% es.tEZ (V/m) @ t=0.96
-0.7913450811946738
% es.Ex (V/m) @ t=0.96
-3.104873578113409
% es.Ey (V/m) @ t=0.96
0.23917988760864672
% es.Ez (V/m) @ t=0.96
-0.7913450811946641
% es.tEx (V/m) @ t=0.96
-3.1048735781133985
% es.tEy (V/m) @ t=0.96
0
% es.tEz (V/m) @ t=0.96
-0.7913450811946738
% V (V) @ t=0.96
0.01862202556236136
% es.normE (V/m) @ t=0.98
3.2562504570808466
% es.EX (V/m) @ t=0.98
-3.1464008344342975
% es.EY (V/m) @ t=0.98
0.2423774946154269
% es.EZ (V/m) @ t=0.98
-0.8019279816647717
% es.tEX (V/m) @ t=0.98
-3.1464008344343206
% es.tEY (V/m) @ t=0.98
0
% es.tEZ (V/m) @ t=0.98
-0.8019279816647682
% es.Ex (V/m) @ t=0.98
-3.1464008344342975
% es.Ey (V/m) @ t=0.98
0.2423774946154269
% es.Ez (V/m) @ t=0.98
-0.8019279816647717
% es.tEx (V/m) @ t=0.98
-3.1464008344343206
% es.tEy (V/m) @ t=0.98
0
% es.tEz (V/m) @ t=0.98
-0.8019279816647682
% V (V) @ t=0.98
0.018871161009448696
% es.normE (V/m) @ t=1
3.2996569667312077
% es.EX (V/m) @ t=1
-3.1883434333307594
% es.EY (V/m) @ t=1
0.24560700654731926
% es.EZ (V/m) @ t=1
-0.8126166616757393
% es.tEX (V/m) @ t=1
-3.188343433330761
% es.tEY (V/m) @ t=1
0
% es.tEZ (V/m) @ t=1
-0.8126166616757224
% es.Ex (V/m) @ t=1
-3.1883434333307594
% es.Ey (V/m) @ t=1
0.24560700654731926
% es.Ez (V/m) @ t=1
-0.8126166616757393
% es.tEx (V/m) @ t=1
-3.188343433330761
% es.tEy (V/m) @ t=1
0
% es.tEz (V/m) @ t=1
-0.8126166616757224
% V (V) @ t=1
0.019122791967417625
% es.normE (V/m) @ t=1.02
3.3434932937655644
% es.EX (V/m) @ t=1.02
-3.2307013748029245
% es.EY (V/m) @ t=1.02
0.24886842340420423
% es.EZ (V/m) @ t=1.02
-0.8234111212274611
% es.tEX (V/m) @ t=1.02
-3.2307013748029725
% es.tEY (V/m) @ t=1.02
0
% es.tEZ (V/m) @ t=1.02
-0.8234111212274655
% es.Ex (V/m) @ t=1.02
-3.2307013748029245
% es.Ey (V/m) @ t=1.02
0.24886842340420423
% es.Ez (V/m) @ t=1.02
-0.8234111212274611
% es.tEx (V/m) @ t=1.02
-3.2307013748029725
% es.tEy (V/m) @ t=1.02
0
% es.tEz (V/m) @ t=1.02
-0.8234111212274655
% V (V) @ t=1.02
0.01937691843626815