% Model:              1 neuron.mph
% Version:            COMSOL 6.0.0.405
% Date:               Mar 16 2023, 18:39
% Dimension:          0
% Nodes:              14017
% Expressions:        14017
% Description:        Electric field norm, Electric field, X component, Electric field, Y component, Electric field, Z component, Tangential electric field, X component, Tangential electric field, Y component, Tangential electric field, Z component, Electric field, x component, Electric field, y component, Electric field, z component, Tangential electric field, x component, Tangential electric field, y component, Tangential electric field, z component, Electric potential
% Length unit:        mm
% x
1.3300000000000003
% y
12.200000000000001
% z
1.66
% es.normE (V/m) @ t=0
10.931548774199438
% es.EX (V/m) @ t=0
6.9371568083758826
% es.EY (V/m) @ t=0
2.074451510032114
% es.EZ (V/m) @ t=0
-7.598736929572484
% es.tEX (V/m) @ t=0
6.93715680837586
% es.tEY (V/m) @ t=0
0
% es.tEZ (V/m) @ t=0
-7.598736929572461
% es.Ex (V/m) @ t=0
6.9371568083758826
% es.Ey (V/m) @ t=0
2.074451510032114
% es.Ez (V/m) @ t=0
-7.598736929572484
% es.tEx (V/m) @ t=0
6.93715680837586
% es.tEy (V/m) @ t=0
0
% es.tEz (V/m) @ t=0
-7.598736929572461
% V (V) @ t=0
0.009363728839552467
% es.normE (V/m) @ t=0.02
9.494133773676708
% es.EX (V/m) @ t=0.02
6.024973890511199
% es.EY (V/m) @ t=0.02
1.8016769988953918
% es.EZ (V/m) @ t=0.02
-6.599561092352914
% es.tEX (V/m) @ t=0.02
6.024973890511189
% es.tEY (V/m) @ t=0.02
0
% es.tEZ (V/m) @ t=0.02
-6.599561092352899
% es.Ex (V/m) @ t=0.02
6.024973890511199
% es.Ey (V/m) @ t=0.02
1.8016769988953918
% es.Ez (V/m) @ t=0.02
-6.599561092352914
% es.tEx (V/m) @ t=0.02
6.024973890511189
% es.tEy (V/m) @ t=0.02
0
% es.tEz (V/m) @ t=0.02
-6.599561092352899
% V (V) @ t=0.02
0.0081324697716954
% es.normE (V/m) @ t=0.04
9.634909068151504
% es.EX (V/m) @ t=0.04
6.114310389784052
% es.EY (V/m) @ t=0.04
1.828391489380166
% es.EZ (V/m) @ t=0.04
-6.697416363327298
% es.tEX (V/m) @ t=0.04
6.114310389784036
% es.tEY (V/m) @ t=0.04
0
% es.tEZ (V/m) @ t=0.04
-6.6974163633272825
% es.Ex (V/m) @ t=0.04
6.114310389784052
% es.Ey (V/m) @ t=0.04
1.828391489380166
% es.Ez (V/m) @ t=0.04
-6.697416363327298
% es.tEx (V/m) @ t=0.04
6.114310389784036
% es.tEy (V/m) @ t=0.04
0
% es.tEz (V/m) @ t=0.04
-6.6974163633272825
% V (V) @ t=0.04
0.008253052900820198
% es.normE (V/m) @ t=0.06
9.777790019667517
% es.EX (V/m) @ t=0.06
6.204983222307945
% es.EY (V/m) @ t=0.06
1.8555055533817795
% es.EZ (V/m) @ t=0.06
-6.796735251845142
% es.tEX (V/m) @ t=0.06
6.204983222307927
% es.tEY (V/m) @ t=0.06
0
% es.tEZ (V/m) @ t=0.06
-6.79673525184512
% es.Ex (V/m) @ t=0.06
6.204983222307945
% es.Ey (V/m) @ t=0.06
1.8555055533817795
% es.Ez (V/m) @ t=0.06
-6.796735251845142
% es.tEx (V/m) @ t=0.06
6.204983222307927
% es.tEy (V/m) @ t=0.06
0
% es.tEz (V/m) @ t=0.06
-6.79673525184512
% V (V) @ t=0.06
0.008375439390988799
% es.normE (V/m) @ t=0.08
9.924328759360542
% es.EX (V/m) @ t=0.08
6.297978128919297
% es.EY (V/m) @ t=0.08
1.8833136417452874
% es.EZ (V/m) @ t=0.08
-6.898596072962896
% es.tEX (V/m) @ t=0.08
6.297978128919279
% es.tEY (V/m) @ t=0.08
0
% es.tEZ (V/m) @ t=0.08
-6.898596072962888
% es.Ex (V/m) @ t=0.08
6.297978128919297
% es.Ey (V/m) @ t=0.08
1.8833136417452874
% es.Ez (V/m) @ t=0.08
-6.898596072962896
% es.tEx (V/m) @ t=0.08
6.297978128919279
% es.tEy (V/m) @ t=0.08
0
% es.tEz (V/m) @ t=0.08
-6.898596072962888
% V (V) @ t=0.08
0.00850095607294981
% es.normE (V/m) @ t=0.1
10.073388419567772
% es.EX (V/m) @ t=0.1
6.392573391789185
% es.EY (V/m) @ t=0.1
1.9116000465575116
% es.EZ (V/m) @ t=0.1
-7.002208775197152
% es.tEX (V/m) @ t=0.1
6.392573391789177
% es.tEY (V/m) @ t=0.1
0
% es.tEZ (V/m) @ t=0.1
-7.002208775197138
% es.Ex (V/m) @ t=0.1
6.392573391789185
% es.Ey (V/m) @ t=0.1
1.9116000465575116
% es.Ez (V/m) @ t=0.1
-7.002208775197152
% es.tEx (V/m) @ t=0.1
6.392573391789177
% es.tEy (V/m) @ t=0.1
0
% es.tEz (V/m) @ t=0.1
-7.002208775197138
% V (V) @ t=0.1
0.008628630059904814
% es.normE (V/m) @ t=0.12
10.22244807977567
% es.EX (V/m) @ t=0.12
6.487168654659061
% es.EY (V/m) @ t=0.12
1.9398864513697287
% es.EZ (V/m) @ t=0.12
-7.105821477431418
% es.tEX (V/m) @ t=0.12
6.487168654659046
% es.tEY (V/m) @ t=0.12
0
% es.tEZ (V/m) @ t=0.12
-7.105821477431396
% es.Ex (V/m) @ t=0.12
6.487168654659061
% es.Ey (V/m) @ t=0.12
1.9398864513697287
% es.Ez (V/m) @ t=0.12
-7.105821477431418
% es.tEx (V/m) @ t=0.12
6.487168654659046
% es.tEy (V/m) @ t=0.12
0
% es.tEz (V/m) @ t=0.12
-7.105821477431396
% V (V) @ t=0.12
0.008756304046859814
% es.normE (V/m) @ t=0.14
10.374107585803893
% es.EX (V/m) @ t=0.14
6.583413165110223
% es.EY (V/m) @ t=0.14
1.9686662992056925
% es.EZ (V/m) @ t=0.14
-7.21124187077273
% es.tEX (V/m) @ t=0.14
6.583413165110212
% es.tEY (V/m) @ t=0.14
0
% es.tEZ (V/m) @ t=0.14
-7.2112418707727155
% es.Ex (V/m) @ t=0.14
6.583413165110223
% es.Ey (V/m) @ t=0.14
1.9686662992056925
% es.Ez (V/m) @ t=0.14
-7.21124187077273
% es.tEx (V/m) @ t=0.14
6.583413165110212
% es.tEy (V/m) @ t=0.14
0
% es.tEz (V/m) @ t=0.14
-7.2112418707727155
% V (V) @ t=0.14
0.00888620718328757
% es.normE (V/m) @ t=0.16
10.536571772503951
% es.EX (V/m) @ t=0.16
6.686511771803841
% es.EY (V/m) @ t=0.16
1.9994968433793883
% es.EZ (V/m) @ t=0.16
-7.324174834673561
% es.tEX (V/m) @ t=0.16
6.686511771803829
% es.tEY (V/m) @ t=0.16
0
% es.tEZ (V/m) @ t=0.16
-7.324174834673553
% es.Ex (V/m) @ t=0.16
6.686511771803841
% es.Ey (V/m) @ t=0.16
1.9994968433793883
% es.Ez (V/m) @ t=0.16
-7.324174834673561
% es.tEx (V/m) @ t=0.16
6.686511771803829
% es.tEy (V/m) @ t=0.16
0
% es.tEz (V/m) @ t=0.16
-7.324174834673553
% V (V) @ t=0.16
0.009025374426086277
% es.normE (V/m) @ t=0.18
10.69903595920422
% es.EX (V/m) @ t=0.18
6.789610378497427
% es.EY (V/m) @ t=0.18
2.0303273875531263
% es.EZ (V/m) @ t=0.18
-7.437107798574374
% es.tEX (V/m) @ t=0.18
6.789610378497413
% es.tEY (V/m) @ t=0.18
0
% es.tEZ (V/m) @ t=0.18
-7.437107798574367
% es.Ex (V/m) @ t=0.18
6.789610378497427
% es.Ey (V/m) @ t=0.18
2.0303273875531263
% es.Ez (V/m) @ t=0.18
-7.437107798574374
% es.tEx (V/m) @ t=0.18
6.789610378497413
% es.tEy (V/m) @ t=0.18
0
% es.tEz (V/m) @ t=0.18
-7.437107798574367
% V (V) @ t=0.18
0.009164541668884984
% es.normE (V/m) @ t=0.2
10.861500145904754
% es.EX (V/m) @ t=0.2
6.8927089851910655
% es.EY (V/m) @ t=0.2
2.0611579317268287
% es.EZ (V/m) @ t=0.2
-7.5500407624752
% es.tEX (V/m) @ t=0.2
6.892708985191044
% es.tEY (V/m) @ t=0.2
0
% es.tEZ (V/m) @ t=0.2
-7.550040762475186
% es.Ex (V/m) @ t=0.2
6.8927089851910655
% es.Ey (V/m) @ t=0.2
2.0611579317268287
% es.Ez (V/m) @ t=0.2
-7.5500407624752
% es.tEx (V/m) @ t=0.2
6.892708985191044
% es.tEy (V/m) @ t=0.2
0
% es.tEz (V/m) @ t=0.2
-7.550040762475186
% V (V) @ t=0.2
0.009303708911683691
% es.normE (V/m) @ t=0.22
11.023964332605463
% es.EX (V/m) @ t=0.22
6.995807591884663
% es.EY (V/m) @ t=0.22
2.091988475900524
% es.EZ (V/m) @ t=0.22
-7.662973726376
% es.tEX (V/m) @ t=0.22
6.995807591884656
% es.tEY (V/m) @ t=0.22
0
% es.tEZ (V/m) @ t=0.22
-7.662973726375986
% es.Ex (V/m) @ t=0.22
6.995807591884663
% es.Ey (V/m) @ t=0.22
2.091988475900524
% es.Ez (V/m) @ t=0.22
-7.662973726376
% es.tEx (V/m) @ t=0.22
6.995807591884656
% es.tEy (V/m) @ t=0.22
0
% es.tEz (V/m) @ t=0.22
-7.662973726375986
% V (V) @ t=0.22
0.009442876154482397
% es.normE (V/m) @ t=0.24
11.186428519306428
% es.EX (V/m) @ t=0.24
7.098906198578261
% es.EY (V/m) @ t=0.24
2.122819020074294
% es.EZ (V/m) @ t=0.24
-7.7759066902768605
% es.tEX (V/m) @ t=0.24
7.09890619857826
% es.tEY (V/m) @ t=0.24
0
% es.tEZ (V/m) @ t=0.24
-7.7759066902768454
% es.Ex (V/m) @ t=0.24
7.098906198578261
% es.Ey (V/m) @ t=0.24
2.122819020074294
% es.Ez (V/m) @ t=0.24
-7.7759066902768605
% es.tEx (V/m) @ t=0.24
7.09890619857826
% es.tEy (V/m) @ t=0.24
0
% es.tEz (V/m) @ t=0.24
-7.7759066902768454
% V (V) @ t=0.24
0.009582043397281104
% es.normE (V/m) @ t=0.26
11.348892706007547
% es.EX (V/m) @ t=0.26
7.202004805271885
% es.EY (V/m) @ t=0.26
2.1536495642479787
% es.EZ (V/m) @ t=0.26
-7.888839654177659
% es.tEX (V/m) @ t=0.26
7.202004805271871
% es.tEY (V/m) @ t=0.26
0
% es.tEZ (V/m) @ t=0.26
-7.888839654177637
% es.Ex (V/m) @ t=0.26
7.202004805271885
% es.Ey (V/m) @ t=0.26
2.1536495642479787
% es.Ez (V/m) @ t=0.26
-7.888839654177659
% es.tEx (V/m) @ t=0.26
7.202004805271871
% es.tEy (V/m) @ t=0.26
0
% es.tEz (V/m) @ t=0.26
-7.888839654177637
% V (V) @ t=0.26
0.009721210640079811
% es.normE (V/m) @ t=0.28
11.517106686498764
% es.EX (V/m) @ t=0.28
7.308753754991125
% es.EY (V/m) @ t=0.28
2.185571039690899
% es.EZ (V/m) @ t=0.28
-8.005768204047985
% es.tEX (V/m) @ t=0.28
7.308753754991117
% es.tEY (V/m) @ t=0.28
0
% es.tEZ (V/m) @ t=0.28
-8.005768204047962
% es.Ex (V/m) @ t=0.28
7.308753754991125
% es.Ey (V/m) @ t=0.28
2.185571039690899
% es.Ez (V/m) @ t=0.28
-8.005768204047985
% es.tEx (V/m) @ t=0.28
7.308753754991117
% es.tEy (V/m) @ t=0.28
0
% es.tEz (V/m) @ t=0.28
-8.005768204047962
% V (V) @ t=0.28
0.00986529761615966
% es.normE (V/m) @ t=0.3
11.6940226432618
% es.EX (V/m) @ t=0.3
7.421027285165048
% es.EY (V/m) @ t=0.3
2.219143575739643
% es.EZ (V/m) @ t=0.3
-8.128743839355838
% es.tEX (V/m) @ t=0.3
7.42102728516504
% es.tEY (V/m) @ t=0.3
0
% es.tEZ (V/m) @ t=0.3
-8.128743839355822
% es.Ex (V/m) @ t=0.3
7.421027285165048
% es.Ey (V/m) @ t=0.3
2.219143575739643
% es.Ez (V/m) @ t=0.3
-8.128743839355838
% es.tEx (V/m) @ t=0.3
7.42102728516504
% es.tEy (V/m) @ t=0.3
0
% es.tEz (V/m) @ t=0.3
-8.128743839355822
% V (V) @ t=0.3
0.010016830320527581
% es.normE (V/m) @ t=0.32
11.870938600025845
% es.EX (V/m) @ t=0.32
7.533300815338965
% es.EY (V/m) @ t=0.32
2.252716111788418
% es.EZ (V/m) @ t=0.32
-8.25171947466367
% es.tEX (V/m) @ t=0.32
7.533300815338943
% es.tEY (V/m) @ t=0.32
0
% es.tEZ (V/m) @ t=0.32
-8.251719474663656
% es.Ex (V/m) @ t=0.32
7.533300815338965
% es.Ey (V/m) @ t=0.32
2.252716111788418
% es.Ez (V/m) @ t=0.32
-8.25171947466367
% es.tEx (V/m) @ t=0.32
7.533300815338943
% es.tEy (V/m) @ t=0.32
0
% es.tEz (V/m) @ t=0.32
-8.251719474663656
% V (V) @ t=0.32
0.010168363024895502
% es.normE (V/m) @ t=0.34
12.047854556790828
% es.EX (V/m) @ t=0.34
7.645574345512872
% es.EY (V/m) @ t=0.34
2.2862886478371367
% es.EZ (V/m) @ t=0.34
-8.374695109971483
% es.tEX (V/m) @ t=0.34
7.645574345512864
% es.tEY (V/m) @ t=0.34
0
% es.tEZ (V/m) @ t=0.34
-8.374695109971462
% es.Ex (V/m) @ t=0.34
7.645574345512872
% es.Ey (V/m) @ t=0.34
2.2862886478371367
% es.Ez (V/m) @ t=0.34
-8.374695109971483
% es.tEx (V/m) @ t=0.34
7.645574345512864
% es.tEy (V/m) @ t=0.34
0
% es.tEz (V/m) @ t=0.34
-8.374695109971462
% V (V) @ t=0.34
0.010319895729263421
% es.normE (V/m) @ t=0.36
12.224770513556779
% es.EX (V/m) @ t=0.36
7.757847875686768
% es.EY (V/m) @ t=0.36
2.319861183885916
% es.EZ (V/m) @ t=0.36
-8.497670745279338
% es.tEX (V/m) @ t=0.36
7.757847875686732
% es.tEY (V/m) @ t=0.36
0
% es.tEZ (V/m) @ t=0.36
-8.497670745279315
% es.Ex (V/m) @ t=0.36
7.757847875686768
% es.Ey (V/m) @ t=0.36
2.319861183885916
% es.Ez (V/m) @ t=0.36
-8.497670745279338
% es.tEx (V/m) @ t=0.36
7.757847875686732
% es.tEy (V/m) @ t=0.36
0
% es.tEz (V/m) @ t=0.36
-8.497670745279315
% V (V) @ t=0.36
0.010471428433631342
% es.normE (V/m) @ t=0.38
12.401686470323614
% es.EX (V/m) @ t=0.38
7.870121405860694
% es.EY (V/m) @ t=0.38
2.3534337199346522
% es.EZ (V/m) @ t=0.38
-8.620646380587152
% es.tEX (V/m) @ t=0.38
7.870121405860676
% es.tEY (V/m) @ t=0.38
0
% es.tEZ (V/m) @ t=0.38
-8.620646380587136
% es.Ex (V/m) @ t=0.38
7.870121405860694
% es.Ey (V/m) @ t=0.38
2.3534337199346522
% es.Ez (V/m) @ t=0.38
-8.620646380587152
% es.tEx (V/m) @ t=0.38
7.870121405860676
% es.tEy (V/m) @ t=0.38
0
% es.tEz (V/m) @ t=0.38
-8.620646380587136
% V (V) @ t=0.38
0.010622961137999265
% es.normE (V/m) @ t=0.4
12.578602427091296
% es.EX (V/m) @ t=0.4
7.982394936034591
% es.EY (V/m) @ t=0.4
2.387006255983385
% es.EZ (V/m) @ t=0.4
-8.743622015894987
% es.tEX (V/m) @ t=0.4
7.98239493603457
% es.tEY (V/m) @ t=0.4
0
% es.tEZ (V/m) @ t=0.4
-8.743622015894973
% es.Ex (V/m) @ t=0.4
7.982394936034591
% es.Ey (V/m) @ t=0.4
2.387006255983385
% es.Ez (V/m) @ t=0.4
-8.743622015894987
% es.tEx (V/m) @ t=0.4
7.98239493603457
% es.tEy (V/m) @ t=0.4
0
% es.tEz (V/m) @ t=0.4
-8.743622015894973
% V (V) @ t=0.4
0.010774493842367184
% es.normE (V/m) @ t=0.42
12.76488168591111
% es.EX (V/m) @ t=0.42
8.100608375671179
% es.EY (V/m) @ t=0.42
2.4223558960124
% es.EZ (V/m) @ t=0.42
-8.873107885408709
% es.tEX (V/m) @ t=0.42
8.100608375671177
% es.tEY (V/m) @ t=0.42
0
% es.tEZ (V/m) @ t=0.42
-8.8731078854087
% es.Ex (V/m) @ t=0.42
8.100608375671179
% es.Ey (V/m) @ t=0.42
2.4223558960124
% es.Ez (V/m) @ t=0.42
-8.873107885408709
% es.tEx (V/m) @ t=0.42
8.100608375671177
% es.tEy (V/m) @ t=0.42
0
% es.tEz (V/m) @ t=0.42
-8.8731078854087
% V (V) @ t=0.42
0.010934054182857847
% es.normE (V/m) @ t=0.44
12.957357273470496
% es.EX (V/m) @ t=0.44
8.222752654183916
% es.EY (V/m) @ t=0.44
2.4588815656520575
% es.EZ (V/m) @ t=0.44
-9.00690201616279
% es.tEX (V/m) @ t=0.44
8.222752654183893
% es.tEY (V/m) @ t=0.44
0
% es.tEZ (V/m) @ t=0.44
-9.006902016162769
% es.Ex (V/m) @ t=0.44
8.222752654183916
% es.Ey (V/m) @ t=0.44
2.4588815656520575
% es.Ez (V/m) @ t=0.44
-9.00690201616279
% es.tEx (V/m) @ t=0.44
8.222752654183893
% es.tEy (V/m) @ t=0.44
0
% es.tEz (V/m) @ t=0.44
-9.006902016162769
% V (V) @ t=0.44
0.011098926951821233
% es.normE (V/m) @ t=0.46
13.149832861030033
% es.EX (V/m) @ t=0.46
8.344896932696678
% es.EY (V/m) @ t=0.46
2.4954072352917396
% es.EZ (V/m) @ t=0.46
-9.1406961469169
% es.tEX (V/m) @ t=0.46
8.344896932696646
% es.tEY (V/m) @ t=0.46
0
% es.tEZ (V/m) @ t=0.46
-9.140696146916879
% es.Ex (V/m) @ t=0.46
8.344896932696678
% es.Ey (V/m) @ t=0.46
2.4954072352917396
% es.Ez (V/m) @ t=0.46
-9.1406961469169
% es.tEx (V/m) @ t=0.46
8.344896932696646
% es.tEy (V/m) @ t=0.46
0
% es.tEz (V/m) @ t=0.46
-9.140696146916879
% V (V) @ t=0.46
0.011263799720784621
% es.normE (V/m) @ t=0.48
13.342308448589632
% es.EX (V/m) @ t=0.48
8.46704121120942
% es.EY (V/m) @ t=0.48
2.531932904931369
% es.EZ (V/m) @ t=0.48
-9.274490277670989
% es.tEX (V/m) @ t=0.48
8.467041211209391
% es.tEY (V/m) @ t=0.48
0
% es.tEZ (V/m) @ t=0.48
-9.274490277670967
% es.Ex (V/m) @ t=0.48
8.46704121120942
% es.Ey (V/m) @ t=0.48
2.531932904931369
% es.Ez (V/m) @ t=0.48
-9.274490277670989
% es.tEx (V/m) @ t=0.48
8.467041211209391
% es.tEy (V/m) @ t=0.48
0
% es.tEz (V/m) @ t=0.48
-9.274490277670967
% V (V) @ t=0.48
0.011428672489748009
% es.normE (V/m) @ t=0.5
13.534784036149333
% es.EX (V/m) @ t=0.5
8.58918548972219
% es.EY (V/m) @ t=0.5
2.568458574571001
% es.EZ (V/m) @ t=0.5
-9.408284408425043
% es.tEX (V/m) @ t=0.5
8.589185489722158
% es.tEY (V/m) @ t=0.5
0
% es.tEZ (V/m) @ t=0.5
-9.408284408425015
% es.Ex (V/m) @ t=0.5
8.58918548972219
% es.Ey (V/m) @ t=0.5
2.568458574571001
% es.Ez (V/m) @ t=0.5
-9.408284408425043
% es.tEx (V/m) @ t=0.5
8.589185489722158
% es.tEy (V/m) @ t=0.5
0
% es.tEz (V/m) @ t=0.5
-9.408284408425015
% V (V) @ t=0.5
0.011593545258711396
% es.normE (V/m) @ t=0.52
13.727259623709141
% es.EX (V/m) @ t=0.52
8.711329768234918
% es.EY (V/m) @ t=0.52
2.6049842442106477
% es.EZ (V/m) @ t=0.52
-9.542078539179139
% es.tEX (V/m) @ t=0.52
8.711329768234911
% es.tEY (V/m) @ t=0.52
0
% es.tEZ (V/m) @ t=0.52
-9.542078539179116
% es.Ex (V/m) @ t=0.52
8.711329768234918
% es.Ey (V/m) @ t=0.52
2.6049842442106477
% es.Ez (V/m) @ t=0.52
-9.542078539179139
% es.tEx (V/m) @ t=0.52
8.711329768234911
% es.tEy (V/m) @ t=0.52
0
% es.tEz (V/m) @ t=0.52
-9.542078539179116
% V (V) @ t=0.52
0.011758418027674782
% es.normE (V/m) @ t=0.54
13.91973521126906
% es.EX (V/m) @ t=0.54
8.833474046747664
% es.EY (V/m) @ t=0.54
2.6415099138503337
% es.EZ (V/m) @ t=0.54
-9.675872669933227
% es.tEX (V/m) @ t=0.54
8.833474046747648
% es.tEY (V/m) @ t=0.54
0
% es.tEZ (V/m) @ t=0.54
-9.675872669933213
% es.Ex (V/m) @ t=0.54
8.833474046747664
% es.Ey (V/m) @ t=0.54
2.6415099138503337
% es.Ez (V/m) @ t=0.54
-9.675872669933227
% es.tEx (V/m) @ t=0.54
8.833474046747648
% es.tEy (V/m) @ t=0.54
0
% es.tEz (V/m) @ t=0.54
-9.675872669933213
% V (V) @ t=0.54
0.011923290796638172
% es.normE (V/m) @ t=0.56
14.118132537710357
% es.EX (V/m) @ t=0.56
8.959376244417541
% es.EY (V/m) @ t=0.56
2.679159340006229
% es.EZ (V/m) @ t=0.56
-9.813783130091396
% es.tEX (V/m) @ t=0.56
8.959376244417514
% es.tEY (V/m) @ t=0.56
0
% es.tEZ (V/m) @ t=0.56
-9.813783130091373
% es.Ex (V/m) @ t=0.56
8.959376244417541
% es.Ey (V/m) @ t=0.56
2.679159340006229
% es.Ez (V/m) @ t=0.56
-9.813783130091396
% es.tEx (V/m) @ t=0.56
8.959376244417514
% es.tEy (V/m) @ t=0.56
0
% es.tEz (V/m) @ t=0.56
-9.813783130091373
% V (V) @ t=0.56
0.012093236050900482
% es.normE (V/m) @ t=0.58
14.319704019024119
% es.EX (V/m) @ t=0.58
9.087292752012527
% es.EY (V/m) @ t=0.58
2.7174111191690766
% es.EZ (V/m) @ t=0.58
-9.953900014290905
% es.tEX (V/m) @ t=0.58
9.087292752012512
% es.tEY (V/m) @ t=0.58
0
% es.tEZ (V/m) @ t=0.58
-9.953900014290884
% es.Ex (V/m) @ t=0.58
9.087292752012527
% es.Ey (V/m) @ t=0.58
2.7174111191690766
% es.Ez (V/m) @ t=0.58
-9.953900014290905
% es.tEx (V/m) @ t=0.58
9.087292752012512
% es.tEy (V/m) @ t=0.58
0
% es.tEz (V/m) @ t=0.58
-9.953900014290884
% V (V) @ t=0.58
0.012265900245367556
% es.normE (V/m) @ t=0.6
14.52320926512162
% es.EX (V/m) @ t=0.6
9.216436421404334
% es.EY (V/m) @ t=0.6
2.756029864998319
% es.EZ (V/m) @ t=0.6
-10.095361100421487
% es.tEX (V/m) @ t=0.6
9.2164364214043
% es.tEY (V/m) @ t=0.6
0
% es.tEZ (V/m) @ t=0.6
-10.095361100421457
% es.Ex (V/m) @ t=0.6
9.216436421404334
% es.Ey (V/m) @ t=0.6
2.756029864998319
% es.Ez (V/m) @ t=0.6
-10.095361100421487
% es.tEx (V/m) @ t=0.6
9.2164364214043
% es.tEy (V/m) @ t=0.6
0
% es.tEz (V/m) @ t=0.6
-10.095361100421457
% V (V) @ t=0.6
0.01244022087785618
% es.normE (V/m) @ t=0.62
14.728648276002907
% es.EX (V/m) @ t=0.62
9.346807252592992
% es.EY (V/m) @ t=0.62
2.795015577493975
% es.EZ (V/m) @ t=0.62
-10.238166388483153
% es.tEX (V/m) @ t=0.62
9.346807252592972
% es.tEY (V/m) @ t=0.62
0
% es.tEZ (V/m) @ t=0.62
-10.238166388483124
% es.Ex (V/m) @ t=0.62
9.346807252592992
% es.Ey (V/m) @ t=0.62
2.795015577493975
% es.Ez (V/m) @ t=0.62
-10.238166388483153
% es.tEx (V/m) @ t=0.62
9.346807252592972
% es.tEy (V/m) @ t=0.62
0
% es.tEz (V/m) @ t=0.62
-10.238166388483124
% V (V) @ t=0.62
0.012616197948366359
% es.normE (V/m) @ t=0.64
14.936021051667902
% es.EX (V/m) @ t=0.64
9.478405245578417
% es.EY (V/m) @ t=0.64
2.8343682566560044
% es.EZ (V/m) @ t=0.64
-10.3823158784759
% es.tEX (V/m) @ t=0.64
9.478405245578408
% es.tEY (V/m) @ t=0.64
0
% es.tEZ (V/m) @ t=0.64
-10.38231587847587
% es.Ex (V/m) @ t=0.64
9.478405245578417
% es.Ey (V/m) @ t=0.64
2.8343682566560044
% es.Ez (V/m) @ t=0.64
-10.3823158784759
% es.tEx (V/m) @ t=0.64
9.478405245578408
% es.tEy (V/m) @ t=0.64
0
% es.tEz (V/m) @ t=0.64
-10.38231587847587
% V (V) @ t=0.64
0.012793831456898084
% es.normE (V/m) @ t=0.66
15.145327592116638
% es.EX (V/m) @ t=0.66
9.611230400360704
% es.EY (V/m) @ t=0.66
2.874087902484419
% es.EZ (V/m) @ t=0.66
-10.527809570399683
% es.tEX (V/m) @ t=0.66
9.611230400360693
% es.tEY (V/m) @ t=0.66
0
% es.tEZ (V/m) @ t=0.66
-10.527809570399652
% es.Ex (V/m) @ t=0.66
9.611230400360704
% es.Ey (V/m) @ t=0.66
2.874087902484419
% es.Ez (V/m) @ t=0.66
-10.527809570399683
% es.tEx (V/m) @ t=0.66
9.611230400360693
% es.tEy (V/m) @ t=0.66
0
% es.tEz (V/m) @ t=0.66
-10.527809570399652
% V (V) @ t=0.66
0.012973121403451362
% es.normE (V/m) @ t=0.68
15.356567897349146
% es.EX (V/m) @ t=0.68
9.745282716939787
% es.EY (V/m) @ t=0.68
2.914174514979275
% es.EZ (V/m) @ t=0.68
-10.674647464254578
% es.tEX (V/m) @ t=0.68
9.74528271693977
% es.tEY (V/m) @ t=0.68
0
% es.tEZ (V/m) @ t=0.68
-10.67464746425455
% es.Ex (V/m) @ t=0.68
9.745282716939787
% es.Ey (V/m) @ t=0.68
2.914174514979275
% es.Ez (V/m) @ t=0.68
-10.674647464254578
% es.tEx (V/m) @ t=0.68
9.74528271693977
% es.tEy (V/m) @ t=0.68
0
% es.tEz (V/m) @ t=0.68
-10.67464746425455
% V (V) @ t=0.68
0.01315406778802619
% es.normE (V/m) @ t=0.7
15.56974196736541
% es.EX (V/m) @ t=0.7
9.880562195315706
% es.EY (V/m) @ t=0.7
2.9546280941404865
% es.EZ (V/m) @ t=0.7
-10.822829560040567
% es.tEX (V/m) @ t=0.7
9.880562195315669
% es.tEY (V/m) @ t=0.7
0
% es.tEZ (V/m) @ t=0.7
-10.822829560040553
% es.Ex (V/m) @ t=0.7
9.880562195315706
% es.Ey (V/m) @ t=0.7
2.9546280941404865
% es.Ez (V/m) @ t=0.7
-10.822829560040567
% es.tEx (V/m) @ t=0.7
9.880562195315669
% es.tEy (V/m) @ t=0.7
0
% es.tEz (V/m) @ t=0.7
-10.822829560040553
% V (V) @ t=0.7
0.01333667061062257
% es.normE (V/m) @ t=0.72
15.78484980216541
% es.EX (V/m) @ t=0.72
10.017068835488447
% es.EY (V/m) @ t=0.72
2.9954486399681257
% es.EZ (V/m) @ t=0.72
-10.97235585775763
% es.tEX (V/m) @ t=0.72
10.017068835488427
% es.tEY (V/m) @ t=0.72
0
% es.tEZ (V/m) @ t=0.72
-10.9723558577576
% es.Ex (V/m) @ t=0.72
10.017068835488447
% es.Ey (V/m) @ t=0.72
2.9954486399681257
% es.Ez (V/m) @ t=0.72
-10.97235585775763
% es.tEx (V/m) @ t=0.72
10.017068835488427
% es.tEy (V/m) @ t=0.72
0
% es.tEz (V/m) @ t=0.72
-10.9723558577576
% V (V) @ t=0.72
0.0135209298712405
% es.normE (V/m) @ t=0.74
16.00189140174912
% es.EX (V/m) @ t=0.74
10.154802637458017
% es.EY (V/m) @ t=0.74
3.036636152462139
% es.EZ (V/m) @ t=0.74
-11.123226357405727
% es.tEX (V/m) @ t=0.74
10.15480263745799
% es.tEY (V/m) @ t=0.74
0
% es.tEZ (V/m) @ t=0.74
-11.123226357405706
% es.Ex (V/m) @ t=0.74
10.154802637458017
% es.Ey (V/m) @ t=0.74
3.036636152462139
% es.Ez (V/m) @ t=0.74
-11.123226357405727
% es.tEx (V/m) @ t=0.74
10.15480263745799
% es.tEy (V/m) @ t=0.74
0
% es.tEz (V/m) @ t=0.74
-11.123226357405706
% V (V) @ t=0.74
0.013706845569879986
% es.normE (V/m) @ t=0.76
16.22086676611659
% es.EX (V/m) @ t=0.76
10.293763601224404
% es.EY (V/m) @ t=0.76
3.0781906316225687
% es.EZ (V/m) @ t=0.76
-11.275441058984912
% es.tEX (V/m) @ t=0.76
10.29376360122438
% es.tEY (V/m) @ t=0.76
0
% es.tEZ (V/m) @ t=0.76
-11.275441058984896
% es.Ex (V/m) @ t=0.76
10.293763601224404
% es.Ey (V/m) @ t=0.76
3.0781906316225687
% es.Ez (V/m) @ t=0.76
-11.275441058984912
% es.tEx (V/m) @ t=0.76
10.29376360122438
% es.tEy (V/m) @ t=0.76
0
% es.tEz (V/m) @ t=0.76
-11.275441058984896
% V (V) @ t=0.76
0.013894417706541016
% es.normE (V/m) @ t=0.78
16.441775895267824
% es.EX (V/m) @ t=0.78
10.433951726787623
% es.EY (V/m) @ t=0.78
3.1201120774493516
% es.EZ (V/m) @ t=0.78
-11.428999962495208
% es.tEX (V/m) @ t=0.78
10.433951726787605
% es.tEY (V/m) @ t=0.78
0
% es.tEZ (V/m) @ t=0.78
-11.428999962495194
% es.Ex (V/m) @ t=0.78
10.433951726787623
% es.Ey (V/m) @ t=0.78
3.1201120774493516
% es.Ez (V/m) @ t=0.78
-11.428999962495208
% es.tEx (V/m) @ t=0.78
10.433951726787605
% es.tEy (V/m) @ t=0.78
0
% es.tEz (V/m) @ t=0.78
-11.428999962495194
% V (V) @ t=0.78
0.014083646281223603
% es.normE (V/m) @ t=0.8
16.664618789202773
% es.EX (V/m) @ t=0.8
10.575367014147654
% es.EY (V/m) @ t=0.8
3.162400489942593
% es.EZ (V/m) @ t=0.8
-11.583903067936566
% es.tEX (V/m) @ t=0.8
10.575367014147634
% es.tEY (V/m) @ t=0.8
0
% es.tEZ (V/m) @ t=0.8
-11.583903067936536
% es.Ex (V/m) @ t=0.8
10.575367014147654
% es.Ey (V/m) @ t=0.8
3.162400489942593
% es.Ez (V/m) @ t=0.8
-11.583903067936566
% es.tEx (V/m) @ t=0.8
10.575367014147634
% es.tEy (V/m) @ t=0.8
0
% es.tEz (V/m) @ t=0.8
-11.583903067936536
% V (V) @ t=0.8
0.01427453129392774
% es.normE (V/m) @ t=0.82
16.890200787585233
% es.EX (V/m) @ t=0.82
10.718521270691854
% es.EY (V/m) @ t=0.82
3.205208601977814
% es.EZ (V/m) @ t=0.82
-11.740709597023752
% es.tEX (V/m) @ t=0.82
10.718521270691827
% es.tEY (V/m) @ t=0.82
0
% es.tEZ (V/m) @ t=0.82
-11.74070959702373
% es.Ex (V/m) @ t=0.82
10.718521270691854
% es.Ey (V/m) @ t=0.82
3.205208601977814
% es.Ez (V/m) @ t=0.82
-11.740709597023752
% es.tEx (V/m) @ t=0.82
10.718521270691827
% es.tEy (V/m) @ t=0.82
0
% es.tEz (V/m) @ t=0.82
-11.74070959702373
% V (V) @ t=0.82
0.014467759957021766
% es.normE (V/m) @ t=0.84
17.12101498674091
% es.EX (V/m) @ t=0.84
10.864998902570775
% es.EY (V/m) @ t=0.84
3.249009229918319
% es.EZ (V/m) @ t=0.84
-11.901150736813374
% es.tEX (V/m) @ t=0.84
10.864998902570742
% es.tEY (V/m) @ t=0.84
0
% es.tEZ (V/m) @ t=0.84
-11.901150736813353
% es.Ex (V/m) @ t=0.84
10.864998902570775
% es.Ey (V/m) @ t=0.84
3.249009229918319
% es.Ez (V/m) @ t=0.84
-11.901150736813374
% es.tEx (V/m) @ t=0.84
10.864998902570742
% es.tEy (V/m) @ t=0.84
0
% es.tEz (V/m) @ t=0.84
-11.901150736813353
% V (V) @ t=0.84
0.014665459679234343
% es.normE (V/m) @ t=0.86
17.354309422378364
% es.EX (V/m) @ t=0.86
11.013050988530829
% es.EY (V/m) @ t=0.86
3.2932804630239776
% es.EZ (V/m) @ t=0.86
-12.063315544308823
% es.tEX (V/m) @ t=0.86
11.01305098853081
% es.tEY (V/m) @ t=0.86
0
% es.tEZ (V/m) @ t=0.86
-12.0633155443088
% es.Ex (V/m) @ t=0.86
11.013050988530829
% es.Ey (V/m) @ t=0.86
3.2932804630239776
% es.Ez (V/m) @ t=0.86
-12.063315544308823
% es.tEx (V/m) @ t=0.86
11.01305098853081
% es.tEy (V/m) @ t=0.86
0
% es.tEz (V/m) @ t=0.86
-12.0633155443088
% V (V) @ t=0.86
0.014865282154646959
% es.normE (V/m) @ t=0.88
17.590084094497882
% es.EX (V/m) @ t=0.88
11.162677528571919
% es.EY (V/m) @ t=0.88
3.338022301294709
% es.EZ (V/m) @ t=0.88
-12.22720401950997
% es.tEX (V/m) @ t=0.88
11.162677528571916
% es.tEY (V/m) @ t=0.88
0
% es.tEZ (V/m) @ t=0.88
-12.22720401950994
% es.Ex (V/m) @ t=0.88
11.162677528571919
% es.Ey (V/m) @ t=0.88
3.338022301294709
% es.Ez (V/m) @ t=0.88
-12.22720401950997
% es.tEx (V/m) @ t=0.88
11.162677528571916
% es.tEy (V/m) @ t=0.88
0
% es.tEz (V/m) @ t=0.88
-12.22720401950994
% V (V) @ t=0.88
0.015067227383259604
% es.normE (V/m) @ t=0.9
17.828339003100055
% es.EX (V/m) @ t=0.9
11.313878522694075
% es.EY (V/m) @ t=0.9
3.3832347447305438
% es.EZ (V/m) @ t=0.9
-12.39281616241692
% es.tEX (V/m) @ t=0.9
11.31387852269405
% es.tEY (V/m) @ t=0.9
0
% es.tEZ (V/m) @ t=0.9
-12.39281616241689
% es.Ex (V/m) @ t=0.9
11.313878522694075
% es.Ey (V/m) @ t=0.9
3.3832347447305438
% es.Ez (V/m) @ t=0.9
-12.39281616241692
% es.tEx (V/m) @ t=0.9
11.31387852269405
% es.tEy (V/m) @ t=0.9
0
% es.tEz (V/m) @ t=0.9
-12.39281616241689
% V (V) @ t=0.9
0.015271295365072287
% es.normE (V/m) @ t=0.92
18.069074148185386
% es.EX (V/m) @ t=0.92
11.46665397089733
% es.EY (V/m) @ t=0.92
3.4289177933315234
% es.EZ (V/m) @ t=0.92
-12.56015197302959
% es.tEX (V/m) @ t=0.92
11.466653970897312
% es.tEY (V/m) @ t=0.92
0
% es.tEZ (V/m) @ t=0.92
-12.56015197302956
% es.Ex (V/m) @ t=0.92
11.46665397089733
% es.Ey (V/m) @ t=0.92
3.4289177933315234
% es.Ez (V/m) @ t=0.92
-12.56015197302959
% es.tEx (V/m) @ t=0.92
11.466653970897312
% es.tEy (V/m) @ t=0.92
0
% es.tEz (V/m) @ t=0.92
-12.56015197302956
% V (V) @ t=0.92
0.015477486100085
% es.normE (V/m) @ t=0.94
18.312289529754544
% es.EX (V/m) @ t=0.94
11.621003873181692
% es.EY (V/m) @ t=0.94
3.475071447097598
% es.EZ (V/m) @ t=0.94
-12.729211451348128
% es.tEX (V/m) @ t=0.94
11.621003873181667
% es.tEY (V/m) @ t=0.94
0
% es.tEZ (V/m) @ t=0.94
-12.729211451348098
% es.Ex (V/m) @ t=0.94
11.621003873181692
% es.Ey (V/m) @ t=0.94
3.475071447097598
% es.Ez (V/m) @ t=0.94
-12.729211451348128
% es.tEx (V/m) @ t=0.94
11.621003873181667
% es.tEy (V/m) @ t=0.94
0
% es.tEz (V/m) @ t=0.94
-12.729211451348098
% V (V) @ t=0.94
0.015685799588297748
% es.normE (V/m) @ t=0.96
18.55798514780789
% es.EX (V/m) @ t=0.96
11.77692822954708
% es.EY (V/m) @ t=0.96
3.521695706028817
% es.EZ (V/m) @ t=0.96
-12.899994597372292
% es.tEX (V/m) @ t=0.96
11.776928229547064
% es.tEY (V/m) @ t=0.96
0
% es.tEZ (V/m) @ t=0.96
-12.899994597372277
% es.Ex (V/m) @ t=0.96
11.77692822954708
% es.Ey (V/m) @ t=0.96
3.521695706028817
% es.Ez (V/m) @ t=0.96
-12.899994597372292
% es.tEx (V/m) @ t=0.96
11.776928229547064
% es.tEy (V/m) @ t=0.96
0
% es.tEz (V/m) @ t=0.96
-12.899994597372277
% V (V) @ t=0.96
0.015896235829710528
% es.normE (V/m) @ t=0.98
18.806161002346336
% es.EX (V/m) @ t=0.98
11.934427039993565
% es.EY (V/m) @ t=0.98
3.568790570125161
% es.EZ (V/m) @ t=0.98
-13.072501411102305
% es.tEX (V/m) @ t=0.98
11.934427039993533
% es.tEY (V/m) @ t=0.98
0
% es.tEZ (V/m) @ t=0.98
-13.072501411102277
% es.Ex (V/m) @ t=0.98
11.934427039993565
% es.Ey (V/m) @ t=0.98
3.568790570125161
% es.Ez (V/m) @ t=0.98
-13.072501411102305
% es.tEx (V/m) @ t=0.98
11.934427039993533
% es.tEy (V/m) @ t=0.98
0
% es.tEz (V/m) @ t=0.98
-13.072501411102277
% V (V) @ t=0.98
0.016108794824323338
% es.normE (V/m) @ t=1
19.05681709337042
% es.EX (V/m) @ t=1
12.093500304521122
% es.EY (V/m) @ t=1
3.616356039386643
% es.EZ (V/m) @ t=1
-13.246731892538094
% es.tEX (V/m) @ t=1
12.093500304521074
% es.tEY (V/m) @ t=1
0
% es.tEZ (V/m) @ t=1
-13.246731892538063
% es.Ex (V/m) @ t=1
12.093500304521122
% es.Ey (V/m) @ t=1
3.616356039386643
% es.Ez (V/m) @ t=1
-13.246731892538094
% es.tEx (V/m) @ t=1
12.093500304521074
% es.tEy (V/m) @ t=1
0
% es.tEz (V/m) @ t=1
-13.246731892538063
% V (V) @ t=1
0.01632347657213619
% es.normE (V/m) @ t=1.02
19.30995342088078
% es.EX (V/m) @ t=1.02
12.254148023129728
% es.EY (V/m) @ t=1.02
3.6643921138132622
% es.EZ (V/m) @ t=1.02
-13.4226860416796
% es.tEX (V/m) @ t=1.02
12.254148023129705
% es.tEY (V/m) @ t=1.02
0
% es.tEZ (V/m) @ t=1.02
-13.422686041679585
% es.Ex (V/m) @ t=1.02
12.254148023129728
% es.Ey (V/m) @ t=1.02
3.6643921138132622
% es.Ez (V/m) @ t=1.02
-13.4226860416796
% es.tEx (V/m) @ t=1.02
12.254148023129705
% es.tEy (V/m) @ t=1.02
0
% es.tEz (V/m) @ t=1.02
-13.422686041679585
% V (V) @ t=1.02
0.01654028107314907
% es.normE (V/m) @ t=1.04
19.565569984878262
% es.EX (V/m) @ t=1.04
12.416370195819445
% es.EY (V/m) @ t=1.04
3.7128987934049427
% es.EZ (V/m) @ t=1.04
-13.600363858526919
% es.tEX (V/m) @ t=1.04
12.416370195819407
% es.tEY (V/m) @ t=1.04
0
% es.tEZ (V/m) @ t=1.04
-13.600363858526888
% es.Ex (V/m) @ t=1.04
12.416370195819445
% es.Ey (V/m) @ t=1.04
3.7128987934049427
% es.Ez (V/m) @ t=1.04
-13.600363858526919
% es.tEx (V/m) @ t=1.04
12.416370195819407
% es.tEy (V/m) @ t=1.04
0
% es.tEz (V/m) @ t=1.04
-13.600363858526888
% V (V) @ t=1.04
0.016759208327361982
% es.normE (V/m) @ t=1.06
19.823666785363503