% Model:              1 neuron.mph
% Version:            COMSOL 6.0.0.405
% Date:               Mar 16 2023, 18:44
% Dimension:          0
% Nodes:              14017
% Expressions:        14017
% Description:        Electric field norm, Electric field, X component, Electric field, Y component, Electric field, Z component, Tangential electric field, X component, Tangential electric field, Y component, Tangential electric field, Z component, Electric field, x component, Electric field, y component, Electric field, z component, Tangential electric field, x component, Tangential electric field, y component, Tangential electric field, z component, Electric potential
% Length unit:        mm
% x
1.66
% y
12.2
% z
1.33
% es.normE (V/m) @ t=0
11.464181483491007
% es.EX (V/m) @ t=0
-6.369962129254122
% es.EY (V/m) @ t=0
-0.6875825901862429
% es.EZ (V/m) @ t=0
8.52933801765188
% es.tEX (V/m) @ t=0
-6.3699621292541355
% es.tEY (V/m) @ t=0
0
% es.tEZ (V/m) @ t=0
8.529338017651874
% es.Ex (V/m) @ t=0
-6.369962129254122
% es.Ey (V/m) @ t=0
-0.6875825901862429
% es.Ez (V/m) @ t=0
8.52933801765188
% es.tEx (V/m) @ t=0
-6.3699621292541355
% es.tEy (V/m) @ t=0
0
% es.tEz (V/m) @ t=0
8.529338017651874
% V (V) @ t=0
0.009415132826279218
% es.normE (V/m) @ t=0.02
9.956736081452352
% es.EX (V/m) @ t=0.02
-5.5323647435175
% es.EY (V/m) @ t=0.02
-0.5971709824778837
% es.EZ (V/m) @ t=0.02
7.407800325433535
% es.tEX (V/m) @ t=0.02
-5.5323647435175065
% es.tEY (V/m) @ t=0.02
0
% es.tEZ (V/m) @ t=0.02
7.40780032543353
% es.Ex (V/m) @ t=0.02
-5.5323647435175
% es.Ey (V/m) @ t=0.02
-0.5971709824778837
% es.Ez (V/m) @ t=0.02
7.407800325433535
% es.tEx (V/m) @ t=0.02
-5.5323647435175065
% es.tEy (V/m) @ t=0.02
0
% es.tEz (V/m) @ t=0.02
7.40780032543353
% V (V) @ t=0.02
0.008177120163868994
% es.normE (V/m) @ t=0.04
10.104380262472706
% es.EX (V/m) @ t=0.04
-5.6144019171495865
% es.EY (V/m) @ t=0.04
-0.6060260626741234
% es.EZ (V/m) @ t=0.04
7.517647411235168
% es.tEX (V/m) @ t=0.04
-5.614401917149603
% es.tEY (V/m) @ t=0.04
0
% es.tEZ (V/m) @ t=0.04
7.517647411235157
% es.Ex (V/m) @ t=0.04
-5.6144019171495865
% es.Ey (V/m) @ t=0.04
-0.6060260626741234
% es.Ez (V/m) @ t=0.04
7.517647411235168
% es.tEx (V/m) @ t=0.04
-5.614401917149603
% es.tEy (V/m) @ t=0.04
0
% es.tEz (V/m) @ t=0.04
7.517647411235157
% V (V) @ t=0.04
0.008298374989486223
% es.normE (V/m) @ t=0.06
10.254222227474173
% es.EX (V/m) @ t=0.06
-5.69765987940078
% es.EY (V/m) @ t=0.06
-0.6150133821674548
% es.EZ (V/m) @ t=0.06
7.629129711801342
% es.tEX (V/m) @ t=0.06
-5.697659879400786
% es.tEY (V/m) @ t=0.06
0
% es.tEZ (V/m) @ t=0.06
7.629129711801334
% es.Ex (V/m) @ t=0.06
-5.69765987940078
% es.Ey (V/m) @ t=0.06
-0.6150133821674548
% es.Ez (V/m) @ t=0.06
7.629129711801342
% es.tEx (V/m) @ t=0.06
-5.697659879400786
% es.tEy (V/m) @ t=0.06
0
% es.tEz (V/m) @ t=0.06
7.629129711801334
% V (V) @ t=0.06
0.008421435501704317
% es.normE (V/m) @ t=0.08
10.407930378983792
% es.EX (V/m) @ t=0.08
-5.783066036315883
% es.EY (V/m) @ t=0.08
-0.6242325992020064
% es.EZ (V/m) @ t=0.08
7.743488452725083
% es.tEX (V/m) @ t=0.08
-5.783066036315896
% es.tEY (V/m) @ t=0.08
0
% es.tEZ (V/m) @ t=0.08
7.743488452725077
% es.Ex (V/m) @ t=0.08
-5.783066036315883
% es.Ey (V/m) @ t=0.08
-0.6242325992020064
% es.Ez (V/m) @ t=0.08
7.743488452725083
% es.tEx (V/m) @ t=0.08
-5.783066036315896
% es.tEy (V/m) @ t=0.08
0
% es.tEz (V/m) @ t=0.08
7.743488452725077
% V (V) @ t=0.08
0.00854767120612564
% es.normE (V/m) @ t=0.1
10.564245664693122
% es.EX (V/m) @ t=0.1
-5.869920812371317
% es.EY (V/m) @ t=0.1
-0.6336081946237653
% es.EZ (V/m) @ t=0.1
7.859786899871953
% es.tEX (V/m) @ t=0.1
-5.869920812371333
% es.tEY (V/m) @ t=0.1
0
% es.tEZ (V/m) @ t=0.1
7.859786899871948
% es.Ex (V/m) @ t=0.1
-5.869920812371317
% es.Ey (V/m) @ t=0.1
-0.6336081946237653
% es.Ez (V/m) @ t=0.1
7.859786899871953
% es.tEx (V/m) @ t=0.1
-5.869920812371333
% es.tEy (V/m) @ t=0.1
0
% es.tEz (V/m) @ t=0.1
7.859786899871948
% V (V) @ t=0.1
0.008676048077861608
% es.normE (V/m) @ t=0.12
10.720560950402518
% es.EX (V/m) @ t=0.12
-5.9567755884267735
% es.EY (V/m) @ t=0.12
-0.6429837900455027
% es.EZ (V/m) @ t=0.12
7.976085347018836
% es.tEX (V/m) @ t=0.12
-5.956775588426787
% es.tEY (V/m) @ t=0.12
0
% es.tEZ (V/m) @ t=0.12
7.976085347018832
% es.Ex (V/m) @ t=0.12
-5.9567755884267735
% es.Ey (V/m) @ t=0.12
-0.6429837900455027
% es.Ez (V/m) @ t=0.12
7.976085347018836
% es.tEx (V/m) @ t=0.12
-5.956775588426787
% es.tEy (V/m) @ t=0.12
0
% es.tEz (V/m) @ t=0.12
7.976085347018832
% V (V) @ t=0.12
0.008804424949597576
% es.normE (V/m) @ t=0.14
10.879743087017516
% es.EX (V/m) @ t=0.14
-6.045223459847389
% es.EY (V/m) @ t=0.14
-0.652531155883886
% es.EZ (V/m) @ t=0.14
8.094516702602803
% es.tEX (V/m) @ t=0.14
-6.045223459847398
% es.tEY (V/m) @ t=0.14
0
% es.tEZ (V/m) @ t=0.14
8.094516702602785
% es.Ex (V/m) @ t=0.14
-6.045223459847389
% es.Ey (V/m) @ t=0.14
-0.652531155883886
% es.Ez (V/m) @ t=0.14
8.094516702602803
% es.tEx (V/m) @ t=0.14
-6.045223459847398
% es.tEy (V/m) @ t=0.14
0
% es.tEz (V/m) @ t=0.14
8.094516702602785
% V (V) @ t=0.14
0.008935155972031508
% es.normE (V/m) @ t=0.16
11.050081417223414
% es.EX (V/m) @ t=0.16
-6.139870774799381
% es.EY (V/m) @ t=0.16
-0.6627469569094697
% es.EZ (V/m) @ t=0.16
8.221248154780282
% es.tEX (V/m) @ t=0.16
-6.139870774799391
% es.tEY (V/m) @ t=0.16
0
% es.tEZ (V/m) @ t=0.16
8.221248154780266
% es.Ex (V/m) @ t=0.16
-6.139870774799381
% es.Ey (V/m) @ t=0.16
-0.6627469569094697
% es.Ez (V/m) @ t=0.16
8.221248154780282
% es.tEx (V/m) @ t=0.16
-6.139870774799391
% es.tEy (V/m) @ t=0.16
0
% es.tEz (V/m) @ t=0.16
8.221248154780266
% V (V) @ t=0.16
0.009075048043223542
% es.normE (V/m) @ t=0.18
11.22041974742938
% es.EX (V/m) @ t=0.18
-6.234518089751364
% es.EY (V/m) @ t=0.18
-0.6729627579350372
% es.EZ (V/m) @ t=0.18
8.347979606957772
% es.tEX (V/m) @ t=0.18
-6.234518089751381
% es.tEY (V/m) @ t=0.18
0
% es.tEZ (V/m) @ t=0.18
8.347979606957763
% es.Ex (V/m) @ t=0.18
-6.234518089751364
% es.Ey (V/m) @ t=0.18
-0.6729627579350372
% es.Ez (V/m) @ t=0.18
8.347979606957772
% es.tEx (V/m) @ t=0.18
-6.234518089751381
% es.tEy (V/m) @ t=0.18
0
% es.tEz (V/m) @ t=0.18
8.347979606957763
% V (V) @ t=0.18
0.009214940114415576
% es.normE (V/m) @ t=0.2
11.39075807763541
% es.EX (V/m) @ t=0.2
-6.329165404703378
% es.EY (V/m) @ t=0.2
-0.683178558960587
% es.EZ (V/m) @ t=0.2
8.474711059135254
% es.tEX (V/m) @ t=0.2
-6.329165404703395
% es.tEY (V/m) @ t=0.2
0
% es.tEZ (V/m) @ t=0.2
8.474711059135245
% es.Ex (V/m) @ t=0.2
-6.329165404703378
% es.Ey (V/m) @ t=0.2
-0.683178558960587
% es.Ez (V/m) @ t=0.2
8.474711059135254
% es.tEx (V/m) @ t=0.2
-6.329165404703395
% es.tEy (V/m) @ t=0.2
0
% es.tEz (V/m) @ t=0.2
8.474711059135245
% V (V) @ t=0.2
0.009354832185607611
% es.normE (V/m) @ t=0.22
11.561096407841507
% es.EX (V/m) @ t=0.22
-6.423812719655375
% es.EY (V/m) @ t=0.22
-0.693394359986147
% es.EZ (V/m) @ t=0.22
8.60144251131276
% es.tEX (V/m) @ t=0.22
-6.4238127196553885
% es.tEY (V/m) @ t=0.22
0
% es.tEZ (V/m) @ t=0.22
8.60144251131274
% es.Ex (V/m) @ t=0.22
-6.423812719655375
% es.Ey (V/m) @ t=0.22
-0.693394359986147
% es.Ez (V/m) @ t=0.22
8.60144251131276
% es.tEx (V/m) @ t=0.22
-6.4238127196553885
% es.tEy (V/m) @ t=0.22
0
% es.tEz (V/m) @ t=0.22
8.60144251131274
% V (V) @ t=0.22
0.009494724256799647
% es.normE (V/m) @ t=0.24
11.731434738047636
% es.EX (V/m) @ t=0.24
-6.518460034607375
% es.EY (V/m) @ t=0.24
-0.7036101610117234
% es.EZ (V/m) @ t=0.24
8.72817396349023
% es.tEX (V/m) @ t=0.24
-6.518460034607392
% es.tEY (V/m) @ t=0.24
0
% es.tEZ (V/m) @ t=0.24
8.728173963490221
% es.Ex (V/m) @ t=0.24
-6.518460034607375
% es.Ey (V/m) @ t=0.24
-0.7036101610117234
% es.Ez (V/m) @ t=0.24
8.72817396349023
% es.tEx (V/m) @ t=0.24
-6.518460034607392
% es.tEy (V/m) @ t=0.24
0
% es.tEz (V/m) @ t=0.24
8.728173963490221
% V (V) @ t=0.24
0.009634616327991681
% es.normE (V/m) @ t=0.26
11.901773068253831
% es.EX (V/m) @ t=0.26
-6.613107349559359
% es.EY (V/m) @ t=0.26
-0.7138259620372625
% es.EZ (V/m) @ t=0.26
8.854905415667746
% es.tEX (V/m) @ t=0.26
-6.613107349559378
% es.tEY (V/m) @ t=0.26
0
% es.tEZ (V/m) @ t=0.26
8.854905415667734
% es.Ex (V/m) @ t=0.26
-6.613107349559359
% es.Ey (V/m) @ t=0.26
-0.7138259620372625
% es.Ez (V/m) @ t=0.26
8.854905415667746
% es.tEx (V/m) @ t=0.26
-6.613107349559378
% es.tEy (V/m) @ t=0.26
0
% es.tEz (V/m) @ t=0.26
8.854905415667734
% V (V) @ t=0.26
0.009774508399183717
% es.normE (V/m) @ t=0.28
12.07844914565137
% es.EX (V/m) @ t=0.28
-6.711277170445759
% es.EY (V/m) @ t=0.28
-0.7244207920140078
% es.EZ (V/m) @ t=0.28
8.98635197567749
% es.tEX (V/m) @ t=0.28
-6.711277170445764
% es.tEY (V/m) @ t=0.28
0
% es.tEZ (V/m) @ t=0.28
8.986351975677476
% es.Ex (V/m) @ t=0.28
-6.711277170445759
% es.Ey (V/m) @ t=0.28
-0.7244207920140078
% es.Ez (V/m) @ t=0.28
8.98635197567749
% es.tEx (V/m) @ t=0.28
-6.711277170445764
% es.tEy (V/m) @ t=0.28
0
% es.tEz (V/m) @ t=0.28
8.986351975677476
% V (V) @ t=0.28
0.009919603585810522
% es.normE (V/m) @ t=0.3
12.26391997410163
% es.EX (V/m) @ t=0.3
-6.814335094602038
% es.EY (V/m) @ t=0.3
-0.7355415920502077
% es.EZ (V/m) @ t=0.3
9.124341586129844
% es.tEX (V/m) @ t=0.3
-6.814335094602055
% es.tEY (V/m) @ t=0.3
0
% es.tEZ (V/m) @ t=0.3
9.124341586129827
% es.Ex (V/m) @ t=0.3
-6.814335094602038
% es.Ey (V/m) @ t=0.3
-0.7355415920502077
% es.Ez (V/m) @ t=0.3
9.124341586129844
% es.tEx (V/m) @ t=0.3
-6.814335094602055
% es.tEy (V/m) @ t=0.3
0
% es.tEz (V/m) @ t=0.3
9.124341586129827
% V (V) @ t=0.3
0.010071919020193913
% es.normE (V/m) @ t=0.32
12.449390802553701
% es.EX (V/m) @ t=0.32
-6.917393018758299
% es.EY (V/m) @ t=0.32
-0.7466623920863684
% es.EZ (V/m) @ t=0.32
9.262331196582164
% es.tEX (V/m) @ t=0.32
-6.917393018758316
% es.tEY (V/m) @ t=0.32
0
% es.tEZ (V/m) @ t=0.32
9.26233119658216
% es.Ex (V/m) @ t=0.32
-6.917393018758299
% es.Ey (V/m) @ t=0.32
-0.7466623920863684
% es.Ez (V/m) @ t=0.32
9.262331196582164
% es.tEx (V/m) @ t=0.32
-6.917393018758316
% es.tEy (V/m) @ t=0.32
0
% es.tEz (V/m) @ t=0.32
9.26233119658216
% V (V) @ t=0.32
0.010224234454577305
% es.normE (V/m) @ t=0.34
12.63486163100755
% es.EX (V/m) @ t=0.34
-7.020450942914589
% es.EY (V/m) @ t=0.34
-0.7577831921225258
% es.EZ (V/m) @ t=0.34
9.400320807034477
% es.tEX (V/m) @ t=0.34
-7.020450942914588
% es.tEY (V/m) @ t=0.34
0
% es.tEZ (V/m) @ t=0.34
9.400320807034465
% es.Ex (V/m) @ t=0.34
-7.020450942914589
% es.Ey (V/m) @ t=0.34
-0.7577831921225258
% es.Ez (V/m) @ t=0.34
9.400320807034477
% es.tEx (V/m) @ t=0.34
-7.020450942914588
% es.tEy (V/m) @ t=0.34
0
% es.tEz (V/m) @ t=0.34
9.400320807034465
% V (V) @ t=0.34
0.010376549888960699
% es.normE (V/m) @ t=0.36
12.820332459463096
% es.EX (V/m) @ t=0.36
-7.1235088670708375
% es.EY (V/m) @ t=0.36
-0.7689039921587022
% es.EZ (V/m) @ t=0.36
9.538310417486796
% es.tEX (V/m) @ t=0.36
-7.123508867070843
% es.tEY (V/m) @ t=0.36
0
% es.tEZ (V/m) @ t=0.36
9.538310417486784
% es.Ex (V/m) @ t=0.36
-7.1235088670708375
% es.Ey (V/m) @ t=0.36
-0.7689039921587022
% es.Ez (V/m) @ t=0.36
9.538310417486796
% es.tEx (V/m) @ t=0.36
-7.123508867070843
% es.tEy (V/m) @ t=0.36
0
% es.tEz (V/m) @ t=0.36
9.538310417486784
% V (V) @ t=0.36
0.010528865323344088
% es.normE (V/m) @ t=0.38
13.005803287920275
% es.EX (V/m) @ t=0.38
-7.226566791227118
% es.EY (V/m) @ t=0.38
-0.7800247921948646
% es.EZ (V/m) @ t=0.38
9.676300027939114
% es.tEX (V/m) @ t=0.38
-7.22656679122713
% es.tEY (V/m) @ t=0.38
0
% es.tEZ (V/m) @ t=0.38
9.676300027939103
% es.Ex (V/m) @ t=0.38
-7.226566791227118
% es.Ey (V/m) @ t=0.38
-0.7800247921948646
% es.Ez (V/m) @ t=0.38
9.676300027939114
% es.tEx (V/m) @ t=0.38
-7.22656679122713
% es.tEy (V/m) @ t=0.38
0
% es.tEz (V/m) @ t=0.38
9.676300027939103
% V (V) @ t=0.38
0.010681180757727483
% es.normE (V/m) @ t=0.4
13.19127411637903
% es.EX (V/m) @ t=0.4
-7.329624715383408
% es.EY (V/m) @ t=0.4
-0.7911455922310355
% es.EZ (V/m) @ t=0.4
9.814289638391442
% es.tEX (V/m) @ t=0.4
-7.329624715383407
% es.tEY (V/m) @ t=0.4
0
% es.tEZ (V/m) @ t=0.4
9.814289638391426
% es.Ex (V/m) @ t=0.4
-7.329624715383408
% es.Ey (V/m) @ t=0.4
-0.7911455922310355
% es.Ez (V/m) @ t=0.4
9.814289638391442
% es.tEx (V/m) @ t=0.4
-7.329624715383407
% es.tEy (V/m) @ t=0.4
0
% es.tEz (V/m) @ t=0.4
9.814289638391426
% V (V) @ t=0.4
0.010833496192110876
% es.normE (V/m) @ t=0.42
13.387051398841649
% es.EX (V/m) @ t=0.42
-7.438409292203895
% es.EY (V/m) @ t=0.42
-0.8028845624264891
% es.EZ (V/m) @ t=0.42
9.959947248423049
% es.tEX (V/m) @ t=0.42
-7.4384092922039216
% es.tEY (V/m) @ t=0.42
0
% es.tEZ (V/m) @ t=0.42
9.959947248423031
% es.Ex (V/m) @ t=0.42
-7.438409292203895
% es.Ey (V/m) @ t=0.42
-0.8028845624264891
% es.Ez (V/m) @ t=0.42
9.959947248423049
% es.tEx (V/m) @ t=0.42
-7.4384092922039216
% es.tEy (V/m) @ t=0.42
0
% es.tEz (V/m) @ t=0.42
9.959947248423031
% V (V) @ t=0.42
0.010994276006694392
% es.normE (V/m) @ t=0.44
13.588799120524175
% es.EX (V/m) @ t=0.44
-7.5505112691359475
% es.EY (V/m) @ t=0.44
-0.8149816332220898
% es.EZ (V/m) @ t=0.44
10.11004686395967
% es.tEX (V/m) @ t=0.44
-7.55051126913596
% es.tEY (V/m) @ t=0.44
0
% es.tEZ (V/m) @ t=0.44
10.11004686395966
% es.Ex (V/m) @ t=0.44
-7.5505112691359475
% es.Ey (V/m) @ t=0.44
-0.8149816332220898
% es.Ez (V/m) @ t=0.44
10.11004686395967
% es.tEx (V/m) @ t=0.44
-7.55051126913596
% es.tEy (V/m) @ t=0.44
0
% es.tEz (V/m) @ t=0.44
10.11004686395966
% V (V) @ t=0.44
0.01115995916315432
% es.normE (V/m) @ t=0.46
13.790546842207995
% es.EX (V/m) @ t=0.46
-7.662613246068027
% es.EY (V/m) @ t=0.46
-0.8270787040176186
% es.EZ (V/m) @ t=0.46
10.26014647949628
% es.tEX (V/m) @ t=0.46
-7.662613246068046
% es.tEY (V/m) @ t=0.46
0
% es.tEZ (V/m) @ t=0.46
10.260146479496264
% es.Ex (V/m) @ t=0.46
-7.662613246068027
% es.Ey (V/m) @ t=0.46
-0.8270787040176186
% es.Ez (V/m) @ t=0.46
10.26014647949628
% es.tEx (V/m) @ t=0.46
-7.662613246068046
% es.tEy (V/m) @ t=0.46
0
% es.tEz (V/m) @ t=0.46
10.260146479496264
% V (V) @ t=0.46
0.011325642319614249
% es.normE (V/m) @ t=0.48
13.992294563893054
% es.EX (V/m) @ t=0.48
-7.7747152230000935
% es.EY (V/m) @ t=0.48
-0.8391757748131834
% es.EZ (V/m) @ t=0.48
10.41024609503289
% es.tEX (V/m) @ t=0.48
-7.774715223000113
% es.tEY (V/m) @ t=0.48
0
% es.tEZ (V/m) @ t=0.48
10.410246095032882
% es.Ex (V/m) @ t=0.48
-7.7747152230000935
% es.Ey (V/m) @ t=0.48
-0.8391757748131834
% es.Ez (V/m) @ t=0.48
10.41024609503289
% es.tEx (V/m) @ t=0.48
-7.774715223000113
% es.tEy (V/m) @ t=0.48
0
% es.tEz (V/m) @ t=0.48
10.410246095032882
% V (V) @ t=0.48
0.011491325476074177
% es.normE (V/m) @ t=0.5
14.194042285579311
% es.EX (V/m) @ t=0.5
-7.886817199932159
% es.EY (V/m) @ t=0.5
-0.8512728456087628
% es.EZ (V/m) @ t=0.5
10.560345710569504
% es.tEX (V/m) @ t=0.5
-7.886817199932171
% es.tEY (V/m) @ t=0.5
0
% es.tEZ (V/m) @ t=0.5
10.56034571056949
% es.Ex (V/m) @ t=0.5
-7.886817199932159
% es.Ey (V/m) @ t=0.5
-0.8512728456087628
% es.Ez (V/m) @ t=0.5
10.560345710569504
% es.tEx (V/m) @ t=0.5
-7.886817199932171
% es.tEy (V/m) @ t=0.5
0
% es.tEz (V/m) @ t=0.5
10.56034571056949
% V (V) @ t=0.5
0.011657008632534108
% es.normE (V/m) @ t=0.52
14.395790007266697
% es.EX (V/m) @ t=0.52
-7.9989191768642165
% es.EY (V/m) @ t=0.52
-0.8633699164043138
% es.EZ (V/m) @ t=0.52
10.71044532610613
% es.tEX (V/m) @ t=0.52
-7.998919176864243
% es.tEY (V/m) @ t=0.52
0
% es.tEZ (V/m) @ t=0.52
10.710445326106107
% es.Ex (V/m) @ t=0.52
-7.9989191768642165
% es.Ey (V/m) @ t=0.52
-0.8633699164043138
% es.Ez (V/m) @ t=0.52
10.71044532610613
% es.tEx (V/m) @ t=0.52
-7.998919176864243
% es.tEy (V/m) @ t=0.52
0
% es.tEz (V/m) @ t=0.52
10.710445326106107
% V (V) @ t=0.52
0.011822691788994038
% es.normE (V/m) @ t=0.54
14.597537728955164
% es.EX (V/m) @ t=0.54
-8.111021153796289
% es.EY (V/m) @ t=0.54
-0.8754669871998391
% es.EZ (V/m) @ t=0.54
10.860544941642717
% es.tEX (V/m) @ t=0.54
-8.111021153796294
% es.tEY (V/m) @ t=0.54
0
% es.tEZ (V/m) @ t=0.54
10.860544941642699
% es.Ex (V/m) @ t=0.54
-8.111021153796289
% es.Ey (V/m) @ t=0.54
-0.8754669871998391
% es.Ez (V/m) @ t=0.54
10.860544941642717
% es.tEx (V/m) @ t=0.54
-8.111021153796294
% es.tEy (V/m) @ t=0.54
0
% es.tEz (V/m) @ t=0.54
10.860544941642699
% V (V) @ t=0.54
0.011988374945453965
% es.normE (V/m) @ t=0.56
14.805847397105818
% es.EX (V/m) @ t=0.56
-8.226767321640901
% es.EY (V/m) @ t=0.56
-0.8879596979339088
% es.EZ (V/m) @ t=0.56
11.015526949544558
% es.tEX (V/m) @ t=0.56
-8.226767321640907
% es.tEY (V/m) @ t=0.56
0
% es.tEZ (V/m) @ t=0.56
11.015526949544537
% es.Ex (V/m) @ t=0.56
-8.226767321640901
% es.Ey (V/m) @ t=0.56
-0.8879596979339088
% es.Ez (V/m) @ t=0.56
11.015526949544558
% es.tEx (V/m) @ t=0.56
-8.226767321640907
% es.tEy (V/m) @ t=0.56
0
% es.tEz (V/m) @ t=0.56
11.015526949544537
% V (V) @ t=0.56
0.01215945072900281
% es.normE (V/m) @ t=0.58
15.017211071937794
% es.EX (V/m) @ t=0.58
-8.344209538586254
% es.EY (V/m) @ t=0.58
-0.9006365441256983
% es.EZ (V/m) @ t=0.58
11.172781279994524
% es.tEX (V/m) @ t=0.58
-8.34420953858626
% es.tEY (V/m) @ t=0.58
0
% es.tEZ (V/m) @ t=0.58
11.172781279994506
% es.Ex (V/m) @ t=0.58
-8.344209538586254
% es.Ey (V/m) @ t=0.58
-0.9006365441256983
% es.Ez (V/m) @ t=0.58
11.172781279994524
% es.tEx (V/m) @ t=0.58
-8.34420953858626
% es.tEy (V/m) @ t=0.58
0
% es.tEz (V/m) @ t=0.58
11.172781279994506
% V (V) @ t=0.58
0.012333036304311746
% es.normE (V/m) @ t=0.6
15.230603264267113
% es.EX (V/m) @ t=0.6
-8.462778297034541
% es.EY (V/m) @ t=0.6
-0.9134356958776433
% es.EZ (V/m) @ t=0.6
11.331544921500083
% es.tEX (V/m) @ t=0.6
-8.462778297034555
% es.tEY (V/m) @ t=0.6
0
% es.tEZ (V/m) @ t=0.6
11.33154492150007
% es.Ex (V/m) @ t=0.6
-8.462778297034541
% es.Ey (V/m) @ t=0.6
-0.9134356958776433
% es.Ez (V/m) @ t=0.6
11.331544921500083
% es.tEx (V/m) @ t=0.6
-8.462778297034555
% es.tEy (V/m) @ t=0.6
0
% es.tEz (V/m) @ t=0.6
11.33154492150007
% V (V) @ t=0.6
0.012508288921323898
% es.normE (V/m) @ t=0.62
15.446023974094272
% es.EX (V/m) @ t=0.62
-8.582473596985814
% es.EY (V/m) @ t=0.62
-0.9263571531898105
% es.EZ (V/m) @ t=0.62
11.491817874061342
% es.tEX (V/m) @ t=0.62
-8.582473596985833
% es.tEY (V/m) @ t=0.62
0
% es.tEZ (V/m) @ t=0.62
11.491817874061326
% es.Ex (V/m) @ t=0.62
-8.582473596985814
% es.Ey (V/m) @ t=0.62
-0.9263571531898105
% es.Ez (V/m) @ t=0.62
11.491817874061342
% es.tEx (V/m) @ t=0.62
-8.582473596985833
% es.tEy (V/m) @ t=0.62
0
% es.tEz (V/m) @ t=0.62
11.491817874061326
% V (V) @ t=0.62
0.012685208580039265
% es.normE (V/m) @ t=0.64
15.663473201419741
% es.EX (V/m) @ t=0.64
-8.703295438440065
% es.EY (V/m) @ t=0.64
-0.9394009160621004
% es.EZ (V/m) @ t=0.64
11.65360013767822
% es.tEX (V/m) @ t=0.64
-8.703295438440085
% es.tEY (V/m) @ t=0.64
0
% es.tEZ (V/m) @ t=0.64
11.653600137678193
% es.Ex (V/m) @ t=0.64
-8.703295438440065
% es.Ey (V/m) @ t=0.64
-0.9394009160621004
% es.Ez (V/m) @ t=0.64
11.65360013767822
% es.tEx (V/m) @ t=0.64
-8.703295438440085
% es.tEy (V/m) @ t=0.64
0
% es.tEz (V/m) @ t=0.64
11.653600137678193
% V (V) @ t=0.64
0.01286379528045785
% es.normE (V/m) @ t=0.66
15.88295094624431
% es.EX (V/m) @ t=0.66
-8.825243821397299
% es.EY (V/m) @ t=0.66
-0.9525669844946063
% es.EZ (V/m) @ t=0.66
11.816891712350733
% es.tEX (V/m) @ t=0.66
-8.825243821397304
% es.tEY (V/m) @ t=0.66
0
% es.tEZ (V/m) @ t=0.66
11.816891712350717
% es.Ex (V/m) @ t=0.66
-8.825243821397299
% es.Ey (V/m) @ t=0.66
-0.9525669844946063
% es.Ez (V/m) @ t=0.66
11.816891712350733
% es.tEx (V/m) @ t=0.66
-8.825243821397304
% es.tEy (V/m) @ t=0.66
0
% es.tEz (V/m) @ t=0.66
11.816891712350717
% V (V) @ t=0.66
0.013044049022579648
% es.normE (V/m) @ t=0.68
16.104457208568874
% es.EX (V/m) @ t=0.68
-8.948318745857508
% es.EY (V/m) @ t=0.68
-0.9658553584872496
% es.EZ (V/m) @ t=0.68
11.981692598078919
% es.tEX (V/m) @ t=0.68
-8.948318745857534
% es.tEY (V/m) @ t=0.68
0
% es.tEZ (V/m) @ t=0.68
11.981692598078896
% es.Ex (V/m) @ t=0.68
-8.948318745857508
% es.Ey (V/m) @ t=0.68
-0.9658553584872496
% es.Ez (V/m) @ t=0.68
11.981692598078919
% es.tEx (V/m) @ t=0.68
-8.948318745857534
% es.tEy (V/m) @ t=0.68
0
% es.tEz (V/m) @ t=0.68
11.981692598078896
% V (V) @ t=0.68
0.013225969806404666
% es.normE (V/m) @ t=0.7
16.327991988394444
% es.EX (V/m) @ t=0.7
-9.072520211820684
% es.EY (V/m) @ t=0.7
-0.9792660380400542
% es.EZ (V/m) @ t=0.7
12.148002794862764
% es.tEX (V/m) @ t=0.7
-9.072520211820704
% es.tEY (V/m) @ t=0.7
0
% es.tEZ (V/m) @ t=0.7
12.148002794862748
% es.Ex (V/m) @ t=0.7
-9.072520211820684
% es.Ey (V/m) @ t=0.7
-0.9792660380400542
% es.Ez (V/m) @ t=0.7
12.148002794862764
% es.tEx (V/m) @ t=0.7
-9.072520211820704
% es.tEy (V/m) @ t=0.7
0
% es.tEz (V/m) @ t=0.7
12.148002794862748
% V (V) @ t=0.7
0.013409557631932896
% es.normE (V/m) @ t=0.72
16.55355528572216
% es.EX (V/m) @ t=0.72
-9.197848219286824
% es.EY (V/m) @ t=0.72
-0.9927990231530566
% es.EZ (V/m) @ t=0.72
12.315822302702216
% es.tEX (V/m) @ t=0.72
-9.197848219286843
% es.tEY (V/m) @ t=0.72
0
% es.tEZ (V/m) @ t=0.72
12.31582230270221
% es.Ex (V/m) @ t=0.72
-9.197848219286824
% es.Ey (V/m) @ t=0.72
-0.9927990231530566
% es.Ez (V/m) @ t=0.72
12.315822302702216
% es.tEx (V/m) @ t=0.72
-9.197848219286843
% es.tEy (V/m) @ t=0.72
0
% es.tEz (V/m) @ t=0.72
12.31582230270221
% V (V) @ t=0.72
0.013594812499164343
% es.normE (V/m) @ t=0.74
16.781147100553355
% es.EX (V/m) @ t=0.74
-9.32430276825595
% es.EY (V/m) @ t=0.74
-1.0064543138261999
% es.EZ (V/m) @ t=0.74
12.485151121597317
% es.tEX (V/m) @ t=0.74
-9.324302768255963
% es.tEY (V/m) @ t=0.74
0
% es.tEZ (V/m) @ t=0.74
12.485151121597298
% es.Ex (V/m) @ t=0.74
-9.32430276825595
% es.Ey (V/m) @ t=0.74
-1.0064543138261999
% es.Ez (V/m) @ t=0.74
12.485151121597317
% es.tEx (V/m) @ t=0.74
-9.324302768255963
% es.tEy (V/m) @ t=0.74
0
% es.tEz (V/m) @ t=0.74
12.485151121597298
% V (V) @ t=0.74
0.013781734408099003
% es.normE (V/m) @ t=0.76
17.01076743288941
% es.EX (V/m) @ t=0.76
-9.451883858728063
% es.EY (V/m) @ t=0.76
-1.0202319100595019
% es.EZ (V/m) @ t=0.76
12.655989251548068
% es.tEX (V/m) @ t=0.76
-9.451883858728083
% es.tEY (V/m) @ t=0.76
0
% es.tEZ (V/m) @ t=0.76
12.655989251548048
% es.Ex (V/m) @ t=0.76
-9.451883858728063
% es.Ey (V/m) @ t=0.76
-1.0202319100595019
% es.Ez (V/m) @ t=0.76
12.655989251548068
% es.tEx (V/m) @ t=0.76
-9.451883858728083
% es.tEy (V/m) @ t=0.76
0
% es.tEz (V/m) @ t=0.76
12.655989251548048
% V (V) @ t=0.76
0.013970323358736884
% es.normE (V/m) @ t=0.78
17.24241628273184
% es.EX (V/m) @ t=0.78
-9.580591490703112
% es.EY (V/m) @ t=0.78
-1.0341318118530376
% es.EZ (V/m) @ t=0.78
12.828336692554462
% es.tEX (V/m) @ t=0.78
-9.580591490703139
% es.tEY (V/m) @ t=0.78
0
% es.tEZ (V/m) @ t=0.78
12.828336692554437
% es.Ex (V/m) @ t=0.78
-9.580591490703112
% es.Ey (V/m) @ t=0.78
-1.0341318118530376
% es.Ez (V/m) @ t=0.78
12.828336692554462
% es.tEx (V/m) @ t=0.78
-9.580591490703139
% es.tEy (V/m) @ t=0.78
0
% es.tEz (V/m) @ t=0.78
12.828336692554437
% V (V) @ t=0.78
0.01416057935107798
% es.normE (V/m) @ t=0.8
17.47609365008227
% es.EX (V/m) @ t=0.8
-9.710425664181148
% es.EY (V/m) @ t=0.8
-1.0481540192066956
% es.EZ (V/m) @ t=0.8
13.00219344461652
% es.tEX (V/m) @ t=0.8
-9.710425664181175
% es.tEY (V/m) @ t=0.8
0
% es.tEZ (V/m) @ t=0.8
13.002193444616504
% es.Ex (V/m) @ t=0.8
-9.710425664181148
% es.Ey (V/m) @ t=0.8
-1.0481540192066956
% es.Ez (V/m) @ t=0.8
13.00219344461652
% es.tEx (V/m) @ t=0.8
-9.710425664181175
% es.tEy (V/m) @ t=0.8
0
% es.tEz (V/m) @ t=0.8
13.002193444616504
% V (V) @ t=0.8
0.01435250238512229
% es.normE (V/m) @ t=0.82
17.71290276440122
% es.EX (V/m) @ t=0.82
-9.84199738112731
% es.EY (V/m) @ t=0.82
-1.0623668574527212
% es.EZ (V/m) @ t=0.82
13.178380658389072
% es.tEX (V/m) @ t=0.82
-9.841997381127323
% es.tEY (V/m) @ t=0.82
0
% es.tEZ (V/m) @ t=0.82
13.178380658389072
% es.Ex (V/m) @ t=0.82
-9.84199738112731
% es.Ey (V/m) @ t=0.82
-1.0623668574527212
% es.Ez (V/m) @ t=0.82
13.178380658389072
% es.tEx (V/m) @ t=0.82
-9.841997381127323
% es.tEy (V/m) @ t=0.82
0
% es.tEz (V/m) @ t=0.82
13.178380658389072
% V (V) @ t=0.82
0.01454700220396973
% es.normE (V/m) @ t=0.84
17.954997573227033
% es.EX (V/m) @ t=0.84
-9.976499563064364
% es.EY (V/m) @ t=0.84
-1.076903725113484
% es.EZ (V/m) @ t=0.84
13.358501550139284
% es.tEX (V/m) @ t=0.84
-9.976499563064376
% es.tEY (V/m) @ t=0.84
0
% es.tEZ (V/m) @ t=0.84
13.358501550139271
% es.Ex (V/m) @ t=0.84
-9.976499563064364
% es.Ey (V/m) @ t=0.84
-1.076903725113484
% es.Ez (V/m) @ t=0.84
13.358501550139284
% es.tEx (V/m) @ t=0.84
-9.976499563064376
% es.tEy (V/m) @ t=0.84
0
% es.tEz (V/m) @ t=0.84
13.358501550139271
% V (V) @ t=0.84
0.014745854991963658
% es.normE (V/m) @ t=0.86
18.19969752403583
% es.EX (V/m) @ t=0.86
-10.112447638620162
% es.EY (V/m) @ t=0.86
-1.0915986099042572
% es.EZ (V/m) @ t=0.86
13.54056094337985
% es.tEX (V/m) @ t=0.86
-10.112447638620175
% es.tEY (V/m) @ t=0.86
0
% es.tEZ (V/m) @ t=0.86
13.540560943379841
% es.Ex (V/m) @ t=0.86
-10.112447638620162
% es.Ey (V/m) @ t=0.86
-1.0915986099042572
% es.Ez (V/m) @ t=0.86
13.54056094337985
% es.tEx (V/m) @ t=0.86
-10.112447638620175
% es.tEy (V/m) @ t=0.86
0
% es.tEz (V/m) @ t=0.86
13.540560943379841
% V (V) @ t=0.86
0.014946850316667905
% es.normE (V/m) @ t=0.88
18.4470026168391
% es.EX (V/m) @ t=0.88
-10.249841607794698
% es.EY (V/m) @ t=0.88
-1.1064515118250835
% es.EZ (V/m) @ t=0.88
13.724558838110644
% es.tEX (V/m) @ t=0.88
-10.24984160779471
% es.tEY (V/m) @ t=0.88
0
% es.tEZ (V/m) @ t=0.88
13.724558838110621
% es.Ex (V/m) @ t=0.88
-10.249841607794698
% es.Ey (V/m) @ t=0.88
-1.1064515118250835
% es.Ez (V/m) @ t=0.88
13.724558838110644
% es.tEx (V/m) @ t=0.88
-10.24984160779471
% es.tEy (V/m) @ t=0.88
0
% es.tEz (V/m) @ t=0.88
13.724558838110621
% V (V) @ t=0.88
0.015149988178082458
% es.normE (V/m) @ t=0.9
18.696912851648975
% es.EX (V/m) @ t=0.9
-10.388681470587915
% es.EY (V/m) @ t=0.9
-1.1214624308759835
% es.EZ (V/m) @ t=0.9
13.910495234331712
% es.tEX (V/m) @ t=0.9
-10.388681470587949
% es.tEY (V/m) @ t=0.9
0
% es.tEZ (V/m) @ t=0.9
13.910495234331698
% es.Ex (V/m) @ t=0.9
-10.388681470587915
% es.Ey (V/m) @ t=0.9
-1.1214624308759835
% es.Ez (V/m) @ t=0.9
13.910495234331712
% es.tEx (V/m) @ t=0.9
-10.388681470587949
% es.tEy (V/m) @ t=0.9
0
% es.tEz (V/m) @ t=0.9
13.910495234331698
% V (V) @ t=0.9
0.01535526857620732
% es.normE (V/m) @ t=0.92
18.949428228478297
% es.EX (V/m) @ t=0.92
-10.528967226999846
% es.EY (V/m) @ t=0.92
-1.1366313670570087
% es.EZ (V/m) @ t=0.92
14.098370132043097
% es.tEX (V/m) @ t=0.92
-10.528967226999866
% es.tEY (V/m) @ t=0.92
0
% es.tEZ (V/m) @ t=0.92
14.098370132043074
% es.Ex (V/m) @ t=0.92
-10.528967226999846
% es.Ey (V/m) @ t=0.92
-1.1366313670570087
% es.Ez (V/m) @ t=0.92
14.098370132043097
% es.tEx (V/m) @ t=0.92
-10.528967226999866
% es.tEy (V/m) @ t=0.92
0
% es.tEz (V/m) @ t=0.92
14.098370132043074
% V (V) @ t=0.92
0.015562691511042497
% es.normE (V/m) @ t=0.94
19.204548747340226
% es.EX (V/m) @ t=0.94
-10.670698877030475
% es.EY (V/m) @ t=0.94
-1.1519583203680765
% es.EZ (V/m) @ t=0.94
14.288183531244755
% es.tEX (V/m) @ t=0.94
-10.670698877030487
% es.tEY (V/m) @ t=0.94
0
% es.tEZ (V/m) @ t=0.94
14.288183531244746
% es.Ex (V/m) @ t=0.94
-10.670698877030475
% es.Ey (V/m) @ t=0.94
-1.1519583203680765
% es.Ez (V/m) @ t=0.94
14.288183531244755
% es.tEx (V/m) @ t=0.94
-10.670698877030487
% es.tEy (V/m) @ t=0.94
0
% es.tEz (V/m) @ t=0.94
14.288183531244746
% V (V) @ t=0.94
0.01577225698258798
% es.normE (V/m) @ t=0.96
19.46227440824849
% es.EX (V/m) @ t=0.96
-10.813876420679811
% es.EY (V/m) @ t=0.96
-1.167443290809186
% es.EZ (V/m) @ t=0.96
14.4799354319367
% es.tEX (V/m) @ t=0.96
-10.81387642067981
% es.tEY (V/m) @ t=0.96
0
% es.tEZ (V/m) @ t=0.96
14.479935431936683
% es.Ex (V/m) @ t=0.96
-10.813876420679811
% es.Ey (V/m) @ t=0.96
-1.167443290809186
% es.Ez (V/m) @ t=0.96
14.4799354319367
% es.tEx (V/m) @ t=0.96
-10.81387642067981
% es.tEy (V/m) @ t=0.96
0
% es.tEz (V/m) @ t=0.96
14.479935431936683
% V (V) @ t=0.96
0.015983964990843775
% es.normE (V/m) @ t=0.98
19.722605211217164
% es.EX (V/m) @ t=0.98
-10.958499857947885
% es.EY (V/m) @ t=0.98
-1.183086278380423
% es.EZ (V/m) @ t=0.98
14.673625834118937
% es.tEX (V/m) @ t=0.98
-10.958499857947897
% es.tEY (V/m) @ t=0.98
0
% es.tEZ (V/m) @ t=0.98
14.673625834118914
% es.Ex (V/m) @ t=0.98
-10.958499857947885
% es.Ey (V/m) @ t=0.98
-1.183086278380423
% es.Ez (V/m) @ t=0.98
14.673625834118937
% es.tEx (V/m) @ t=0.98
-10.958499857947897
% es.tEy (V/m) @ t=0.98
0
% es.tEz (V/m) @ t=0.98
14.673625834118914
% V (V) @ t=0.98
0.01619781553580988
% es.normE (V/m) @ t=1
19.985541156260663
% es.EX (V/m) @ t=1
-11.104569188834624
% es.EY (V/m) @ t=1
-1.1988872830817288
% es.EZ (V/m) @ t=1
14.869254737791458
% es.tEX (V/m) @ t=1
-11.104569188834637
% es.tEY (V/m) @ t=1
0
% es.tEZ (V/m) @ t=1
14.869254737791444
% es.Ex (V/m) @ t=1
-11.104569188834624
% es.Ey (V/m) @ t=1
-1.1988872830817288
% es.Ez (V/m) @ t=1
14.869254737791458
% es.tEx (V/m) @ t=1
-11.104569188834637
% es.tEy (V/m) @ t=1
0
% es.tEz (V/m) @ t=1
14.869254737791444
% V (V) @ t=1
0.016413808617486297
% es.normE (V/m) @ t=1.02
20.251082243393768
% es.EX (V/m) @ t=1.02
-11.252084413340068
% es.EY (V/m) @ t=1.02
-1.214846304913098
% es.EZ (V/m) @ t=1.02
15.066822142954253
% es.tEX (V/m) @ t=1.02
-11.252084413340087
% es.tEY (V/m) @ t=1.02
0
% es.tEZ (V/m) @ t=1.02
15.06682214295423
% es.Ex (V/m) @ t=1.02
-11.252084413340068
% es.Ey (V/m) @ t=1.02
-1.214846304913098
% es.Ez (V/m) @ t=1.02
15.066822142954253
% es.tEx (V/m) @ t=1.02
-11.252084413340087
% es.tEy (V/m) @ t=1.02
0
% es.tEz (V/m) @ t=1.02
15.06682214295423
% V (V) @ t=1.02
0.016631944235873025
% es.normE (V/m) @ t=1.04
20.51922847263157
% es.EX (V/m) @ t=1.04
-11.40104553146426
% es.EY (V/m) @ t=1.04
-1.2309633438745475
% es.EZ (V/m) @ t=1.04
15.266328049607337
% es.tEX (V/m) @ t=1.04
-11.401045531464279
% es.tEY (V/m) @ t=1.04
0
% es.tEZ (V/m) @ t=1.04
15.266328049607303
% es.Ex (V/m) @ t=1.04
-11.40104553146426
% es.Ey (V/m) @ t=1.04
-1.2309633438745475
% es.Ez (V/m) @ t=1.04
15.266328049607337
% es.tEx (V/m) @ t=1.04