% Model:              1 neuron.mph
% Version:            COMSOL 6.0.0.405
% Date:               Mar 16 2023, 18:42
% Dimension:          0
% Nodes:              14017
% Expressions:        14017
% Description:        Electric field norm, Electric field, X component, Electric field, Y component, Electric field, Z component, Tangential electric field, X component, Tangential electric field, Y component, Tangential electric field, Z component, Electric field, x component, Electric field, y component, Electric field, z component, Tangential electric field, x component, Tangential electric field, y component, Tangential electric field, z component, Electric potential
% Length unit:        mm
% x
1.66
% y
12.2
% z
1.33
% es.normE (V/m) @ t=0
11.520810774433915
% es.EX (V/m) @ t=0
-6.401427463593985
% es.EY (V/m) @ t=0
-0.6909789654746699
% es.EZ (V/m) @ t=0
8.571470365440746
% es.tEX (V/m) @ t=0
-6.401427463593991
% es.tEY (V/m) @ t=0
0
% es.tEZ (V/m) @ t=0
8.571470365440735
% es.Ex (V/m) @ t=0
-6.401427463593985
% es.Ey (V/m) @ t=0
-0.6909789654746699
% es.Ez (V/m) @ t=0
8.571470365440746
% es.tEx (V/m) @ t=0
-6.401427463593991
% es.tEy (V/m) @ t=0
0
% es.tEz (V/m) @ t=0
8.571470365440735
% V (V) @ t=0
0.009461640284511418
% es.normE (V/m) @ t=0.02
10.005916034418707
% es.EX (V/m) @ t=0.02
-5.559690807252161
% es.EY (V/m) @ t=0.02
-0.6001207395178132
% es.EZ (V/m) @ t=0.02
7.444390367005591
% es.tEX (V/m) @ t=0.02
-5.559690807252167
% es.tEY (V/m) @ t=0.02
0
% es.tEZ (V/m) @ t=0.02
7.444390367005583
% es.Ex (V/m) @ t=0.02
-5.559690807252161
% es.Ey (V/m) @ t=0.02
-0.6001207395178132
% es.Ez (V/m) @ t=0.02
7.444390367005591
% es.tEx (V/m) @ t=0.02
-5.559690807252167
% es.tEy (V/m) @ t=0.02
0
% es.tEz (V/m) @ t=0.02
7.444390367005583
% V (V) @ t=0.02
0.008217510034828257
% es.normE (V/m) @ t=0.04
10.154282672279813
% es.EX (V/m) @ t=0.04
-5.642129313212891
% es.EY (V/m) @ t=0.04
-0.6090192575772735
% es.EZ (V/m) @ t=0.04
7.554774975238654
% es.tEX (V/m) @ t=0.04
-5.642129313212904
% es.tEY (V/m) @ t=0.04
0
% es.tEZ (V/m) @ t=0.04
7.554774975238648
% es.Ex (V/m) @ t=0.04
-5.642129313212891
% es.Ey (V/m) @ t=0.04
-0.6090192575772735
% es.Ez (V/m) @ t=0.04
7.554774975238654
% es.tEx (V/m) @ t=0.04
-5.642129313212904
% es.tEy (V/m) @ t=0.04
0
% es.tEz (V/m) @ t=0.04
7.554774975238648
% V (V) @ t=0.04
0.008339358360543612
% es.normE (V/m) @ t=0.06
10.304887791246854
% es.EX (V/m) @ t=0.06
-5.725811613655438
% es.EY (V/m) @ t=0.06
-0.6180520300030414
% es.EZ (V/m) @ t=0.06
7.666825009437104
% es.tEX (V/m) @ t=0.06
-5.72581161365545
% es.tEY (V/m) @ t=0.06
0
% es.tEZ (V/m) @ t=0.06
7.666825009437094
% es.Ex (V/m) @ t=0.06
-5.725811613655438
% es.Ey (V/m) @ t=0.06
-0.6180520300030414
% es.Ez (V/m) @ t=0.06
7.666825009437104
% es.tEx (V/m) @ t=0.06
-5.72581161365545
% es.tEy (V/m) @ t=0.06
0
% es.tEz (V/m) @ t=0.06
7.666825009437094
% V (V) @ t=0.06
0.008463045066286893
% es.normE (V/m) @ t=0.08
10.45930427680366
% es.EX (V/m) @ t=0.08
-5.81161165952485
% es.EY (V/m) @ t=0.08
-0.6273133958696118
% es.EZ (V/m) @ t=0.08
7.781710698086115
% es.tEX (V/m) @ t=0.08
-5.81161165952486
% es.tEY (V/m) @ t=0.08
0
% es.tEZ (V/m) @ t=0.08
7.781710698086106
% es.Ex (V/m) @ t=0.08
-5.81161165952485
% es.Ey (V/m) @ t=0.08
-0.6273133958696118
% es.Ez (V/m) @ t=0.08
7.781710698086115
% es.tEx (V/m) @ t=0.08
-5.81161165952486
% es.tEy (V/m) @ t=0.08
0
% es.tEz (V/m) @ t=0.08
7.781710698086106
% V (V) @ t=0.08
0.008589861919978856
% es.normE (V/m) @ t=0.1
10.616441189932765
% es.EX (V/m) @ t=0.1
-5.898923282125251
% es.EY (V/m) @ t=0.1
-0.636737924183183
% es.EZ (V/m) @ t=0.1
7.898620383212801
% es.tEX (V/m) @ t=0.1
-5.898923282125256
% es.tEY (V/m) @ t=0.1
0
% es.tEZ (V/m) @ t=0.1
7.898620383212787
% es.Ex (V/m) @ t=0.1
-5.898923282125251
% es.Ey (V/m) @ t=0.1
-0.636737924183183
% es.Ez (V/m) @ t=0.1
7.898620383212801
% es.tEx (V/m) @ t=0.1
-5.898923282125256
% es.tEy (V/m) @ t=0.1
0
% es.tEz (V/m) @ t=0.1
7.898620383212787
% V (V) @ t=0.1
0.008718912969879561
% es.normE (V/m) @ t=0.12
10.773578103061869
% es.EX (V/m) @ t=0.12
-5.9862349047256505
% es.EY (V/m) @ t=0.12
-0.6461624524967537
% es.EZ (V/m) @ t=0.12
8.01553006833948
% es.tEX (V/m) @ t=0.12
-5.986234904725657
% es.tEY (V/m) @ t=0.12
0
% es.tEZ (V/m) @ t=0.12
8.015530068339473
% es.Ex (V/m) @ t=0.12
-5.9862349047256505
% es.Ey (V/m) @ t=0.12
-0.6461624524967537
% es.Ez (V/m) @ t=0.12
8.01553006833948
% es.tEx (V/m) @ t=0.12
-5.986234904725657
% es.tEy (V/m) @ t=0.12
0
% es.tEz (V/m) @ t=0.12
8.015530068339473
% V (V) @ t=0.12
0.008847964019780262
% es.normE (V/m) @ t=0.14
10.93322170311659
% es.EX (V/m) @ t=0.14
-6.07493935484268
% es.EY (V/m) @ t=0.14
-0.6557373178927985
% es.EZ (V/m) @ t=0.14
8.13430472156646
% es.tEX (V/m) @ t=0.14
-6.074939354842697
% es.tEY (V/m) @ t=0.14
0
% es.tEZ (V/m) @ t=0.14
8.134304721566448
% es.Ex (V/m) @ t=0.14
-6.07493935484268
% es.Ey (V/m) @ t=0.14
-0.6557373178927985
% es.Ez (V/m) @ t=0.14
8.13430472156646
% es.tEx (V/m) @ t=0.14
-6.074939354842697
% es.tEy (V/m) @ t=0.14
0
% es.tEz (V/m) @ t=0.14
8.134304721566448
% V (V) @ t=0.14
0.008979073706735393
% es.normE (V/m) @ t=0.16
11.104520703702548
% es.EX (V/m) @ t=0.16
-6.1701200674765
% es.EY (V/m) @ t=0.16
-0.6660112091196626
% es.EZ (V/m) @ t=0.16
8.261750960369055
% es.tEX (V/m) @ t=0.16
-6.170120067476505
% es.tEY (V/m) @ t=0.16
0
% es.tEZ (V/m) @ t=0.16
8.261750960369046
% es.Ex (V/m) @ t=0.16
-6.1701200674765
% es.Ey (V/m) @ t=0.16
-0.6660112091196626
% es.Ez (V/m) @ t=0.16
8.261750960369055
% es.tEx (V/m) @ t=0.16
-6.170120067476505
% es.tEy (V/m) @ t=0.16
0
% es.tEz (V/m) @ t=0.16
8.261750960369046
% V (V) @ t=0.16
0.009119755486309132
% es.normE (V/m) @ t=0.18
11.27581970428853
% es.EX (V/m) @ t=0.18
-6.265300780110318
% es.EY (V/m) @ t=0.18
-0.6762851003465173
% es.EZ (V/m) @ t=0.18
8.389197199171685
% es.tEX (V/m) @ t=0.18
-6.265300780110328
% es.tEY (V/m) @ t=0.18
0
% es.tEZ (V/m) @ t=0.18
8.389197199171674
% es.Ex (V/m) @ t=0.18
-6.265300780110318
% es.Ey (V/m) @ t=0.18
-0.6762851003465173
% es.Ez (V/m) @ t=0.18
8.389197199171685
% es.tEx (V/m) @ t=0.18
-6.265300780110328
% es.tEy (V/m) @ t=0.18
0
% es.tEz (V/m) @ t=0.18
8.389197199171674
% V (V) @ t=0.18
0.009260437265882866
% es.normE (V/m) @ t=0.2
11.447118704874487
% es.EX (V/m) @ t=0.2
-6.36048149274411
% es.EY (V/m) @ t=0.2
-0.6865589915733865
% es.EZ (V/m) @ t=0.2
8.516643437974306
% es.tEX (V/m) @ t=0.2
-6.360481492744122
% es.tEY (V/m) @ t=0.2
0
% es.tEZ (V/m) @ t=0.2
8.516643437974297
% es.Ex (V/m) @ t=0.2
-6.36048149274411
% es.Ey (V/m) @ t=0.2
-0.6865589915733865
% es.Ez (V/m) @ t=0.2
8.516643437974306
% es.tEx (V/m) @ t=0.2
-6.360481492744122
% es.tEy (V/m) @ t=0.2
0
% es.tEz (V/m) @ t=0.2
8.516643437974297
% V (V) @ t=0.2
0.009401119045456603
% es.normE (V/m) @ t=0.22
11.618417705460454
% es.EX (V/m) @ t=0.22
-6.455662205377924
% es.EY (V/m) @ t=0.22
-0.6968328828002366
% es.EZ (V/m) @ t=0.22
8.64408967677691
% es.tEX (V/m) @ t=0.22
-6.455662205377933
% es.tEY (V/m) @ t=0.22
0
% es.tEZ (V/m) @ t=0.22
8.644089676776904
% es.Ex (V/m) @ t=0.22
-6.455662205377924
% es.Ey (V/m) @ t=0.22
-0.6968328828002366
% es.Ez (V/m) @ t=0.22
8.64408967677691
% es.tEx (V/m) @ t=0.22
-6.455662205377933
% es.tEy (V/m) @ t=0.22
0
% es.tEz (V/m) @ t=0.22
8.644089676776904
% V (V) @ t=0.22
0.009541800825030342
% es.normE (V/m) @ t=0.24
11.78971670604642
% es.EX (V/m) @ t=0.24
-6.550842918011721
% es.EY (V/m) @ t=0.24
-0.707106774027102
% es.EZ (V/m) @ t=0.24
8.771535915579529
% es.tEX (V/m) @ t=0.24
-6.550842918011723
% es.tEY (V/m) @ t=0.24
0
% es.tEZ (V/m) @ t=0.24
8.771535915579523
% es.Ex (V/m) @ t=0.24
-6.550842918011721
% es.Ey (V/m) @ t=0.24
-0.707106774027102
% es.Ez (V/m) @ t=0.24
8.771535915579529
% es.tEx (V/m) @ t=0.24
-6.550842918011723
% es.tEy (V/m) @ t=0.24
0
% es.tEz (V/m) @ t=0.24
8.771535915579523
% V (V) @ t=0.24
0.009682482604604076
% es.normE (V/m) @ t=0.26
11.961015706632391
% es.EX (V/m) @ t=0.26
-6.646023630645536
% es.EY (V/m) @ t=0.26
-0.7173806652539818
% es.EZ (V/m) @ t=0.26
8.898982154382136
% es.tEX (V/m) @ t=0.26
-6.646023630645546
% es.tEY (V/m) @ t=0.26
0
% es.tEZ (V/m) @ t=0.26
8.898982154382129
% es.Ex (V/m) @ t=0.26
-6.646023630645536
% es.Ey (V/m) @ t=0.26
-0.7173806652539818
% es.Ez (V/m) @ t=0.26
8.898982154382136
% es.tEx (V/m) @ t=0.26
-6.646023630645546
% es.tEy (V/m) @ t=0.26
0
% es.tEz (V/m) @ t=0.26
8.898982154382129
% V (V) @ t=0.26
0.009823164384177813
% es.normE (V/m) @ t=0.28
12.137879480408294
% es.EX (V/m) @ t=0.28
-6.744296356089899
% es.EY (V/m) @ t=0.28
-0.7279883121883164
% es.EZ (V/m) @ t=0.28
9.030568578482605
% es.tEX (V/m) @ t=0.28
-6.7442963560899045
% es.tEY (V/m) @ t=0.28
0
% es.tEZ (V/m) @ t=0.28
9.030568578482596
% es.Ex (V/m) @ t=0.28
-6.744296356089899
% es.Ey (V/m) @ t=0.28
-0.7279883121883164
% es.Ez (V/m) @ t=0.28
9.030568578482605
% es.tEx (V/m) @ t=0.28
-6.7442963560899045
% es.tEy (V/m) @ t=0.28
0
% es.tEz (V/m) @ t=0.28
9.030568578482596
% V (V) @ t=0.28
0.009968416317221078
% es.normE (V/m) @ t=0.3
12.324467174196393
% es.EX (V/m) @ t=0.3
-6.847972084355862
% es.EY (V/m) @ t=0.3
-0.7391791659655667
% es.EZ (V/m) @ t=0.3
9.169389588665512
% es.tEX (V/m) @ t=0.3
-6.847972084355872
% es.tEY (V/m) @ t=0.3
0
% es.tEZ (V/m) @ t=0.3
9.169389588665508
% es.Ex (V/m) @ t=0.3
-6.847972084355862
% es.Ey (V/m) @ t=0.3
-0.7391791659655667
% es.Ez (V/m) @ t=0.3
9.169389588665512
% es.tEx (V/m) @ t=0.3
-6.847972084355872
% es.tEy (V/m) @ t=0.3
0
% es.tEz (V/m) @ t=0.3
9.169389588665508
% V (V) @ t=0.3
0.010121654165460566
% es.normE (V/m) @ t=0.32
12.51105486798452
% es.EX (V/m) @ t=0.32
-6.951647812621834
% es.EY (V/m) @ t=0.32
-0.7503700197427694
% es.EZ (V/m) @ t=0.32
9.30821059884845
% es.tEX (V/m) @ t=0.32
-6.951647812621854
% es.tEY (V/m) @ t=0.32
0
% es.tEZ (V/m) @ t=0.32
9.30821059884844
% es.Ex (V/m) @ t=0.32
-6.951647812621834
% es.Ey (V/m) @ t=0.32
-0.7503700197427694
% es.Ez (V/m) @ t=0.32
9.30821059884845
% es.tEx (V/m) @ t=0.32
-6.951647812621854
% es.tEy (V/m) @ t=0.32
0
% es.tEz (V/m) @ t=0.32
9.30821059884844
% V (V) @ t=0.32
0.010274892013700054
% es.normE (V/m) @ t=0.34
12.697642561772597
% es.EX (V/m) @ t=0.34
-7.055323540887786
% es.EY (V/m) @ t=0.34
-0.7615608735199932
% es.EZ (V/m) @ t=0.34
9.447031609031331
% es.tEX (V/m) @ t=0.34
-7.055323540887807
% es.tEY (V/m) @ t=0.34
0
% es.tEZ (V/m) @ t=0.34
9.44703160903132
% es.Ex (V/m) @ t=0.34
-7.055323540887786
% es.Ey (V/m) @ t=0.34
-0.7615608735199932
% es.Ez (V/m) @ t=0.34
9.447031609031331
% es.tEx (V/m) @ t=0.34
-7.055323540887807
% es.tEy (V/m) @ t=0.34
0
% es.tEz (V/m) @ t=0.34
9.44703160903132
% V (V) @ t=0.34
0.010428129861939538
% es.normE (V/m) @ t=0.36
12.884230255560706
% es.EX (V/m) @ t=0.36
-7.158999269153767
% es.EY (V/m) @ t=0.36
-0.7727517272971989
% es.EZ (V/m) @ t=0.36
9.585852619214236
% es.tEX (V/m) @ t=0.36
-7.15899926915378
% es.tEY (V/m) @ t=0.36
0
% es.tEZ (V/m) @ t=0.36
9.585852619214231
% es.Ex (V/m) @ t=0.36
-7.158999269153767
% es.Ey (V/m) @ t=0.36
-0.7727517272971989
% es.Ez (V/m) @ t=0.36
9.585852619214236
% es.tEx (V/m) @ t=0.36
-7.15899926915378
% es.tEy (V/m) @ t=0.36
0
% es.tEz (V/m) @ t=0.36
9.585852619214231
% V (V) @ t=0.36
0.010581367710179024
% es.normE (V/m) @ t=0.38
13.070817949348802
% es.EX (V/m) @ t=0.38
-7.262674997419735
% es.EY (V/m) @ t=0.38
-0.7839425810744372
% es.EZ (V/m) @ t=0.38
9.724673629397145
% es.tEX (V/m) @ t=0.38
-7.262674997419747
% es.tEY (V/m) @ t=0.38
0
% es.tEZ (V/m) @ t=0.38
9.72467362939714
% es.Ex (V/m) @ t=0.38
-7.262674997419735
% es.Ey (V/m) @ t=0.38
-0.7839425810744372
% es.Ez (V/m) @ t=0.38
9.724673629397145
% es.tEx (V/m) @ t=0.38
-7.262674997419747
% es.tEy (V/m) @ t=0.38
0
% es.tEz (V/m) @ t=0.38
9.72467362939714
% V (V) @ t=0.38
0.010734605558418514
% es.normE (V/m) @ t=0.4
13.25740564313693
% es.EX (V/m) @ t=0.4
-7.36635072568569
% es.EY (V/m) @ t=0.4
-0.7951334348516466
% es.EZ (V/m) @ t=0.4
9.86349463958008
% es.tEX (V/m) @ t=0.4
-7.366350725685702
% es.tEY (V/m) @ t=0.4
0
% es.tEZ (V/m) @ t=0.4
9.863494639580065
% es.Ex (V/m) @ t=0.4
-7.36635072568569
% es.Ey (V/m) @ t=0.4
-0.7951334348516466
% es.Ez (V/m) @ t=0.4
9.86349463958008
% es.tEx (V/m) @ t=0.4
-7.366350725685702
% es.tEy (V/m) @ t=0.4
0
% es.tEz (V/m) @ t=0.4
9.863494639580065
% V (V) @ t=0.4
0.010887843406658002
% es.normE (V/m) @ t=0.42
13.453052554115287
% es.EX (V/m) @ t=0.42
-7.475060142679235
% es.EY (V/m) @ t=0.42
-0.8068676177671534
% es.EZ (V/m) @ t=0.42
10.009055689623521
% es.tEX (V/m) @ t=0.42
-7.475060142679261
% es.tEY (V/m) @ t=0.42
0
% es.tEZ (V/m) @ t=0.42
10.009055689623512
% es.Ex (V/m) @ t=0.42
-7.475060142679235
% es.Ey (V/m) @ t=0.42
-0.8068676177671534
% es.Ez (V/m) @ t=0.42
10.009055689623521
% es.tEx (V/m) @ t=0.42
-7.475060142679261
% es.tEy (V/m) @ t=0.42
0
% es.tEz (V/m) @ t=0.42
10.009055689623512
% V (V) @ t=0.42
0.011048521238641985
% es.normE (V/m) @ t=0.44
13.656082867617368
% es.EX (V/m) @ t=0.44
-7.58787209406116
% es.EY (V/m) @ t=0.44
-0.819044622357711
% es.EZ (V/m) @ t=0.44
10.160109976695201
% es.tEX (V/m) @ t=0.44
-7.587872094061201
% es.tEY (V/m) @ t=0.44
0
% es.tEZ (V/m) @ t=0.44
10.160109976695185
% es.Ex (V/m) @ t=0.44
-7.58787209406116
% es.Ey (V/m) @ t=0.44
-0.819044622357711
% es.Ez (V/m) @ t=0.44
10.160109976695201
% es.tEx (V/m) @ t=0.44
-7.587872094061201
% es.tEy (V/m) @ t=0.44
0
% es.tEz (V/m) @ t=0.44
10.160109976695185
% V (V) @ t=0.44
0.011215262772776126
% es.normE (V/m) @ t=0.46
13.859113181119424
% es.EX (V/m) @ t=0.46
-7.700684045443092
% es.EY (V/m) @ t=0.46
-0.8312216269482615
% es.EZ (V/m) @ t=0.46
10.311164263766846
% es.tEX (V/m) @ t=0.46
-7.700684045443097
% es.tEY (V/m) @ t=0.46
0
% es.tEZ (V/m) @ t=0.46
10.311164263766827
% es.Ex (V/m) @ t=0.46
-7.700684045443092
% es.Ey (V/m) @ t=0.46
-0.8312216269482615
% es.Ez (V/m) @ t=0.46
10.311164263766846
% es.tEx (V/m) @ t=0.46
-7.700684045443097
% es.tEy (V/m) @ t=0.46
0
% es.tEz (V/m) @ t=0.46
10.311164263766827
% V (V) @ t=0.46
0.01138200430691027
% es.normE (V/m) @ t=0.48
14.062143494621482
% es.EX (V/m) @ t=0.48
-7.813495996825026
% es.EY (V/m) @ t=0.48
-0.8433986315388546
% es.EZ (V/m) @ t=0.48
10.462218550838505
% es.tEX (V/m) @ t=0.48
-7.813495996825024
% es.tEY (V/m) @ t=0.48
0
% es.tEZ (V/m) @ t=0.48
10.462218550838488
% es.Ex (V/m) @ t=0.48
-7.813495996825026
% es.Ey (V/m) @ t=0.48
-0.8433986315388546
% es.Ez (V/m) @ t=0.48
10.462218550838505
% es.tEx (V/m) @ t=0.48
-7.813495996825024
% es.tEy (V/m) @ t=0.48
0
% es.tEz (V/m) @ t=0.48
10.462218550838488
% V (V) @ t=0.48
0.011548745841044412
% es.normE (V/m) @ t=0.5
14.265173808123542
% es.EX (V/m) @ t=0.5
-7.926307948206928
% es.EY (V/m) @ t=0.5
-0.8555756361293945
% es.EZ (V/m) @ t=0.5
10.613272837910175
% es.tEX (V/m) @ t=0.5
-7.926307948206954
% es.tEY (V/m) @ t=0.5
0
% es.tEZ (V/m) @ t=0.5
10.613272837910163
% es.Ex (V/m) @ t=0.5
-7.926307948206928
% es.Ey (V/m) @ t=0.5
-0.8555756361293945
% es.Ez (V/m) @ t=0.5
10.613272837910175
% es.tEx (V/m) @ t=0.5
-7.926307948206954
% es.tEy (V/m) @ t=0.5
0
% es.tEz (V/m) @ t=0.5
10.613272837910163
% V (V) @ t=0.5
0.011715487375178557
% es.normE (V/m) @ t=0.52
14.468204121625615
% es.EX (V/m) @ t=0.52
-8.039119899588867
% es.EY (V/m) @ t=0.52
-0.8677526407199445
% es.EZ (V/m) @ t=0.52
10.764327124981824
% es.tEX (V/m) @ t=0.52
-8.039119899588881
% es.tEY (V/m) @ t=0.52
0
% es.tEZ (V/m) @ t=0.52
10.764327124981813
% es.Ex (V/m) @ t=0.52
-8.039119899588867
% es.Ey (V/m) @ t=0.52
-0.8677526407199445
% es.Ez (V/m) @ t=0.52
10.764327124981824
% es.tEx (V/m) @ t=0.52
-8.039119899588881
% es.tEy (V/m) @ t=0.52
0
% es.tEz (V/m) @ t=0.52
10.764327124981813
% V (V) @ t=0.52
0.0118822289093127
% es.normE (V/m) @ t=0.54
14.671234435127673
% es.EX (V/m) @ t=0.54
-8.15193185097078
% es.EY (V/m) @ t=0.54
-0.879929645310531
% es.EZ (V/m) @ t=0.54
10.915381412053474
% es.tEX (V/m) @ t=0.54
-8.151931850970792
% es.tEY (V/m) @ t=0.54
0
% es.tEZ (V/m) @ t=0.54
10.915381412053463
% es.Ex (V/m) @ t=0.54
-8.15193185097078
% es.Ey (V/m) @ t=0.54
-0.879929645310531
% es.Ez (V/m) @ t=0.54
10.915381412053474
% es.tEx (V/m) @ t=0.54
-8.151931850970792
% es.tEy (V/m) @ t=0.54
0
% es.tEz (V/m) @ t=0.54
10.915381412053463
% V (V) @ t=0.54
0.012048970443446843
% es.normE (V/m) @ t=0.56
14.879947835342863
% es.EX (V/m) @ t=0.56
-8.267901520586792
% es.EY (V/m) @ t=0.56
-0.8924475208055087
% es.EZ (V/m) @ t=0.56
11.070663920895226
% es.tEX (V/m) @ t=0.56
-8.267901520586797
% es.tEY (V/m) @ t=0.56
0
% es.tEZ (V/m) @ t=0.56
11.070663920895205
% es.Ex (V/m) @ t=0.56
-8.267901520586792
% es.Ey (V/m) @ t=0.56
-0.8924475208055087
% es.Ez (V/m) @ t=0.56
11.070663920895226
% es.tEx (V/m) @ t=0.56
-8.267901520586797
% es.tEy (V/m) @ t=0.56
0
% es.tEz (V/m) @ t=0.56
11.070663920895205
% V (V) @ t=0.56
0.012220379353512388
% es.normE (V/m) @ t=0.58
15.092451981927333
% es.EX (V/m) @ t=0.58
-8.385977459125883
% es.EY (V/m) @ t=0.58
-0.9051927648431328
% es.EZ (V/m) @ t=0.58
11.228766748541274
% es.tEX (V/m) @ t=0.58
-8.385977459125895
% es.tEY (V/m) @ t=0.58
0
% es.tEZ (V/m) @ t=0.58
11.228766748541261
% es.Ex (V/m) @ t=0.58
-8.385977459125883
% es.Ey (V/m) @ t=0.58
-0.9051927648431328
% es.Ez (V/m) @ t=0.58
11.228766748541274
% es.tEx (V/m) @ t=0.58
-8.385977459125895
% es.tEy (V/m) @ t=0.58
0
% es.tEz (V/m) @ t=0.58
11.228766748541261
% V (V) @ t=0.58
0.012394901508062741
% es.normE (V/m) @ t=0.6
15.306995946858233
% es.EX (V/m) @ t=0.6
-8.505186790821165
% es.EY (V/m) @ t=0.6
-0.9180603569566399
% es.EZ (V/m) @ t=0.6
11.388387202923404
% es.tEX (V/m) @ t=0.6
-8.505186790821185
% es.tEY (V/m) @ t=0.6
0
% es.tEZ (V/m) @ t=0.6
11.388387202923393
% es.Ex (V/m) @ t=0.6
-8.505186790821165
% es.Ey (V/m) @ t=0.6
-0.9180603569566399
% es.Ez (V/m) @ t=0.6
11.388387202923404
% es.tEx (V/m) @ t=0.6
-8.505186790821185
% es.tEy (V/m) @ t=0.6
0
% es.tEz (V/m) @ t=0.6
11.388387202923393
% V (V) @ t=0.6
0.012571098914027528
% es.normE (V/m) @ t=0.62
15.523579730135534
% es.EX (V/m) @ t=0.62
-8.625529515672644
% es.EY (V/m) @ t=0.62
-0.9310502971460557
% es.EZ (V/m) @ t=0.62
11.549525284041616
% es.tEX (V/m) @ t=0.62
-8.625529515672657
% es.tEY (V/m) @ t=0.62
0
% es.tEZ (V/m) @ t=0.62
11.5495252840416
% es.Ex (V/m) @ t=0.62
-8.625529515672644
% es.Ey (V/m) @ t=0.62
-0.9310502971460557
% es.Ez (V/m) @ t=0.62
11.549525284041616
% es.tEx (V/m) @ t=0.62
-8.625529515672657
% es.tEy (V/m) @ t=0.62
0
% es.tEz (V/m) @ t=0.62
11.5495252840416
% V (V) @ t=0.62
0.012748971571406746
% es.normE (V/m) @ t=0.64
15.742203331759274
% es.EX (V/m) @ t=0.64
-8.747005633680306
% es.EY (V/m) @ t=0.64
-0.9441625854114228
% es.EZ (V/m) @ t=0.64
11.712180991895945
% es.tEX (V/m) @ t=0.64
-8.74700563368029
% es.tEY (V/m) @ t=0.64
0
% es.tEZ (V/m) @ t=0.64
11.712180991895927
% es.Ex (V/m) @ t=0.64
-8.747005633680306
% es.Ey (V/m) @ t=0.64
-0.9441625854114228
% es.Ez (V/m) @ t=0.64
11.712180991895945
% es.tEx (V/m) @ t=0.64
-8.74700563368029
% es.tEy (V/m) @ t=0.64
0
% es.tEz (V/m) @ t=0.64
11.712180991895927
% V (V) @ t=0.64
0.012928519480200405
% es.normE (V/m) @ t=0.66
15.962866751729363
% es.EX (V/m) @ t=0.66
-8.869615144844165
% es.EY (V/m) @ t=0.66
-0.9573972217526618
% es.EZ (V/m) @ t=0.66
11.876354326486297
% es.tEX (V/m) @ t=0.66
-8.869615144844177
% es.tEY (V/m) @ t=0.66
0
% es.tEZ (V/m) @ t=0.66
11.87635432648629
% es.Ex (V/m) @ t=0.66
-8.869615144844165
% es.Ey (V/m) @ t=0.66
-0.9573972217526618
% es.Ez (V/m) @ t=0.66
11.876354326486297
% es.tEx (V/m) @ t=0.66
-8.869615144844177
% es.tEy (V/m) @ t=0.66
0
% es.tEz (V/m) @ t=0.66
11.87635432648629
% V (V) @ t=0.66
0.013109742640408494
% es.normE (V/m) @ t=0.68
16.185569990045924
% es.EX (V/m) @ t=0.68
-8.993358049164202
% es.EY (V/m) @ t=0.68
-0.9707542061698771
% es.EZ (V/m) @ t=0.68
12.042045287812781
% es.tEX (V/m) @ t=0.68
-8.993358049164215
% es.tEY (V/m) @ t=0.68
0
% es.tEZ (V/m) @ t=0.68
12.042045287812755
% es.Ex (V/m) @ t=0.68
-8.993358049164202
% es.Ey (V/m) @ t=0.68
-0.9707542061698771
% es.Ez (V/m) @ t=0.68
12.042045287812781
% es.tEx (V/m) @ t=0.68
-8.993358049164215
% es.tEy (V/m) @ t=0.68
0
% es.tEz (V/m) @ t=0.68
12.042045287812755
% V (V) @ t=0.68
0.013292641052031021
% es.normE (V/m) @ t=0.7
16.41031304670887
% es.EX (V/m) @ t=0.7
-9.118234346640419
% es.EY (V/m) @ t=0.7
-0.9842335386629903
% es.EZ (V/m) @ t=0.7
12.20925387587535
% es.tEX (V/m) @ t=0.7
-9.118234346640445
% es.tEY (V/m) @ t=0.7
0
% es.tEZ (V/m) @ t=0.7
12.209253875875344
% es.Ex (V/m) @ t=0.7
-9.118234346640419
% es.Ey (V/m) @ t=0.7
-0.9842335386629903
% es.Ez (V/m) @ t=0.7
12.20925387587535
% es.tEx (V/m) @ t=0.7
-9.118234346640445
% es.tEy (V/m) @ t=0.7
0
% es.tEz (V/m) @ t=0.7
12.209253875875344
% V (V) @ t=0.7
0.013477214715067982
% es.normE (V/m) @ t=0.72
16.637095921718227
% es.EX (V/m) @ t=0.72
-9.244244037272844
% es.EY (V/m) @ t=0.72
-0.9978352192319866
% es.EZ (V/m) @ t=0.72
12.377980090673987
% es.tEX (V/m) @ t=0.72
-9.244244037272857
% es.tEY (V/m) @ t=0.72
0
% es.tEZ (V/m) @ t=0.72
12.377980090673962
% es.Ex (V/m) @ t=0.72
-9.244244037272844
% es.Ey (V/m) @ t=0.72
-0.9978352192319866
% es.Ez (V/m) @ t=0.72
12.377980090673987
% es.tEx (V/m) @ t=0.72
-9.244244037272857
% es.tEy (V/m) @ t=0.72
0
% es.tEz (V/m) @ t=0.72
12.377980090673962
% V (V) @ t=0.72
0.013663463629519378
% es.normE (V/m) @ t=0.74
16.865918615073966
% es.EX (V/m) @ t=0.74
-9.371387121061442
% es.EY (V/m) @ t=0.74
-1.0115592478769266
% es.EZ (V/m) @ t=0.74
12.548223932208659
% es.tEX (V/m) @ t=0.74
-9.371387121061455
% es.tEY (V/m) @ t=0.74
0
% es.tEZ (V/m) @ t=0.74
12.54822393220864
% es.Ex (V/m) @ t=0.74
-9.371387121061442
% es.Ey (V/m) @ t=0.74
-1.0115592478769266
% es.Ez (V/m) @ t=0.74
12.548223932208659
% es.tEx (V/m) @ t=0.74
-9.371387121061455
% es.tEy (V/m) @ t=0.74
0
% es.tEz (V/m) @ t=0.74
12.54822393220864
% V (V) @ t=0.74
0.013851387795385207
% es.normE (V/m) @ t=0.76
17.096781126776143
% es.EX (V/m) @ t=0.76
-9.499663598006254
% es.EY (V/m) @ t=0.76
-1.0254056245977825
% es.EZ (V/m) @ t=0.76
12.719985400479457
% es.tEX (V/m) @ t=0.76
-9.499663598006267
% es.tEY (V/m) @ t=0.76
0
% es.tEZ (V/m) @ t=0.76
12.719985400479436
% es.Ex (V/m) @ t=0.76
-9.499663598006254
% es.Ey (V/m) @ t=0.76
-1.0254056245977825
% es.Ez (V/m) @ t=0.76
12.719985400479457
% es.tEx (V/m) @ t=0.76
-9.499663598006267
% es.tEy (V/m) @ t=0.76
0
% es.tEz (V/m) @ t=0.76
12.719985400479436
% V (V) @ t=0.76
0.014040987212665473
% es.normE (V/m) @ t=0.78
17.329683456824746
% es.EX (V/m) @ t=0.78
-9.629073468107226
% es.EY (V/m) @ t=0.78
-1.0393743493945893
% es.EZ (V/m) @ t=0.78
12.893264495486363
% es.tEX (V/m) @ t=0.78
-9.629073468107245
% es.tEY (V/m) @ t=0.78
0
% es.tEZ (V/m) @ t=0.78
12.893264495486354
% es.Ex (V/m) @ t=0.78
-9.629073468107226
% es.Ey (V/m) @ t=0.78
-1.0393743493945893
% es.Ez (V/m) @ t=0.78
12.893264495486363
% es.tEx (V/m) @ t=0.78
-9.629073468107245
% es.tEy (V/m) @ t=0.78
0
% es.tEz (V/m) @ t=0.78
12.893264495486354
% V (V) @ t=0.78
0.014232261881360175
% es.normE (V/m) @ t=0.8
17.564625605219735
% es.EX (V/m) @ t=0.8
-9.759616731364403
% es.EY (V/m) @ t=0.8
-1.0534654222672688
% es.EZ (V/m) @ t=0.8
13.068061217229317
% es.tEX (V/m) @ t=0.8
-9.759616731364416
% es.tEY (V/m) @ t=0.8
0
% es.tEZ (V/m) @ t=0.8
13.068061217229301
% es.Ex (V/m) @ t=0.8
-9.759616731364403
% es.Ey (V/m) @ t=0.8
-1.0534654222672688
% es.Ez (V/m) @ t=0.8
13.068061217229317
% es.tEx (V/m) @ t=0.8
-9.759616731364416
% es.tEy (V/m) @ t=0.8
0
% es.tEz (V/m) @ t=0.8
13.068061217229301
% V (V) @ t=0.8
0.014425211801469311
% es.normE (V/m) @ t=0.82
17.802051176100683
% es.EX (V/m) @ t=0.82
-9.891540084292092
% es.EY (V/m) @ t=0.82
-1.0677053353500363
% es.EZ (V/m) @ t=0.82
13.244705534265671
% es.tEX (V/m) @ t=0.82
-9.891540084292105
% es.tEY (V/m) @ t=0.82
0
% es.tEZ (V/m) @ t=0.82
13.244705534265645
% es.Ex (V/m) @ t=0.82
-9.891540084292092
% es.Ey (V/m) @ t=0.82
-1.0677053353500363
% es.Ez (V/m) @ t=0.82
13.244705534265671
% es.tEx (V/m) @ t=0.82
-9.891540084292105
% es.tEy (V/m) @ t=0.82
0
% es.tEz (V/m) @ t=0.82
13.244705534265645
% V (V) @ t=0.82
0.014620200945489529
% es.normE (V/m) @ t=0.84
18.045358146817406
% es.EX (V/m) @ t=0.84
-10.026733205306794
% es.EY (V/m) @ t=0.84
-1.0822970165773382
% es.EZ (V/m) @ t=0.84
13.425724983162256
% es.tEX (V/m) @ t=0.84
-10.026733205306828
% es.tEY (V/m) @ t=0.84
0
% es.tEZ (V/m) @ t=0.84
13.42572498316225
% es.Ex (V/m) @ t=0.84
-10.026733205306794
% es.Ey (V/m) @ t=0.84
-1.0822970165773382
% es.Ez (V/m) @ t=0.84
13.425724983162256
% es.tEx (V/m) @ t=0.84
-10.026733205306828
% es.tEy (V/m) @ t=0.84
0
% es.tEz (V/m) @ t=0.84
13.42572498316225
% V (V) @ t=0.84
0.014820017317835832
% es.normE (V/m) @ t=0.86
18.29128207154394
% es.EX (V/m) @ t=0.86
-10.163380675356283
% es.EY (V/m) @ t=0.86
-1.0970455125457677
% es.EZ (V/m) @ t=0.86
13.60869135285486
% es.tEX (V/m) @ t=0.86
-10.163380675356308
% es.tEY (V/m) @ t=0.86
0
% es.tEZ (V/m) @ t=0.86
13.60869135285484
% es.Ex (V/m) @ t=0.86
-10.163380675356283
% es.Ey (V/m) @ t=0.86
-1.0970455125457677
% es.Ez (V/m) @ t=0.86
13.60869135285486
% es.tEx (V/m) @ t=0.86
-10.163380675356308
% es.tEy (V/m) @ t=0.86
0
% es.tEz (V/m) @ t=0.86
13.60869135285484
% V (V) @ t=0.86
0.015021982475293426
% es.normE (V/m) @ t=0.88
18.539822950280396
% es.EX (V/m) @ t=0.88
-10.301482494440512
% es.EY (V/m) @ t=0.88
-1.1119508232554742
% es.EZ (V/m) @ t=0.88
13.793604643343444
% es.tEX (V/m) @ t=0.88
-10.301482494440524
% es.tEY (V/m) @ t=0.88
0
% es.tEZ (V/m) @ t=0.88
13.793604643343425
% es.Ex (V/m) @ t=0.88
-10.301482494440512
% es.Ey (V/m) @ t=0.88
-1.1119508232554742
% es.Ez (V/m) @ t=0.88
13.793604643343444
% es.tEx (V/m) @ t=0.88
-10.301482494440524
% es.tEy (V/m) @ t=0.88
0
% es.tEz (V/m) @ t=0.88
13.793604643343425
% V (V) @ t=0.88
0.015226096417862291
% es.normE (V/m) @ t=0.9
18.790980783026956
% es.EX (V/m) @ t=0.9
-10.441038662559464
% es.EY (V/m) @ t=0.9
-1.1270129487063518
% es.EZ (V/m) @ t=0.9
13.98046485462805
% es.tEX (V/m) @ t=0.9
-10.441038662559476
% es.tEY (V/m) @ t=0.9
0
% es.tEZ (V/m) @ t=0.9
13.980464854628028
% es.Ex (V/m) @ t=0.9
-10.441038662559464
% es.Ey (V/m) @ t=0.9
-1.1270129487063518
% es.Ez (V/m) @ t=0.9
13.98046485462805
% es.tEx (V/m) @ t=0.9
-10.441038662559476
% es.tEy (V/m) @ t=0.9
0
% es.tEz (V/m) @ t=0.9
13.980464854628028
% V (V) @ t=0.9
0.015432359145542435
% es.normE (V/m) @ t=0.92
19.044755569783753
% es.EX (V/m) @ t=0.92
-10.582049179713131
% es.EY (V/m) @ t=0.92
-1.1422318888984533
% es.EZ (V/m) @ t=0.92
14.169271986708633
% es.tEX (V/m) @ t=0.92
-10.582049179713144
% es.tEY (V/m) @ t=0.92
0
% es.tEZ (V/m) @ t=0.92
14.169271986708619
% es.Ex (V/m) @ t=0.92
-10.582049179713131
% es.Ey (V/m) @ t=0.92
-1.1422318888984533
% es.Ez (V/m) @ t=0.92
14.169271986708633
% es.tEx (V/m) @ t=0.92
-10.582049179713144
% es.tEy (V/m) @ t=0.92
0
% es.tEz (V/m) @ t=0.92
14.169271986708619
% V (V) @ t=0.92
0.015640770658333858
% es.normE (V/m) @ t=0.94
19.301147310551087
% es.EX (V/m) @ t=0.94
-10.724514045901543
% es.EY (V/m) @ t=0.94
-1.15760764383174
% es.EZ (V/m) @ t=0.94
14.36002603958525
% es.tEX (V/m) @ t=0.94
-10.724514045901556
% es.tEY (V/m) @ t=0.94
0
% es.tEZ (V/m) @ t=0.94
14.360026039585243
% es.Ex (V/m) @ t=0.94
-10.724514045901543
% es.Ey (V/m) @ t=0.94
-1.15760764383174
% es.Ez (V/m) @ t=0.94
14.36002603958525
% es.tEx (V/m) @ t=0.94
-10.724514045901556
% es.tEy (V/m) @ t=0.94
0
% es.tEz (V/m) @ t=0.94
14.360026039585243
% V (V) @ t=0.94
0.015851330956236555
% es.normE (V/m) @ t=0.96
19.560156005329087
% es.EX (V/m) @ t=0.96
-10.86843326112471
% es.EY (V/m) @ t=0.96
-1.1731402135063038
% es.EZ (V/m) @ t=0.96
14.55272701325787
% es.tEX (V/m) @ t=0.96
-10.86843326112473
% es.tEY (V/m) @ t=0.96
0
% es.tEZ (V/m) @ t=0.96
14.552727013257856
% es.Ex (V/m) @ t=0.96
-10.86843326112471
% es.Ey (V/m) @ t=0.96
-1.1731402135063038
% es.Ez (V/m) @ t=0.96
14.55272701325787
% es.tEx (V/m) @ t=0.96
-10.86843326112473
% es.tEy (V/m) @ t=0.96
0
% es.tEz (V/m) @ t=0.96
14.552727013257856
% V (V) @ t=0.96
0.01606404003925053
% es.normE (V/m) @ t=0.98
19.82178165411797
% es.EX (V/m) @ t=0.98
-11.013806825382634
% es.EY (V/m) @ t=0.98
-1.1888295979220498
% es.EZ (V/m) @ t=0.98
14.74737490772647
% es.tEX (V/m) @ t=0.98
-11.013806825382646
% es.tEY (V/m) @ t=0.98
0
% es.tEZ (V/m) @ t=0.98
14.747374907726439
% es.Ex (V/m) @ t=0.98
-11.013806825382634
% es.Ey (V/m) @ t=0.98
-1.1888295979220498
% es.Ez (V/m) @ t=0.98
14.74737490772647
% es.tEx (V/m) @ t=0.98
-11.013806825382646
% es.tEy (V/m) @ t=0.98
0
% es.tEz (V/m) @ t=0.98
14.747374907726439
% V (V) @ t=0.98
0.01627889790737579
% es.normE (V/m) @ t=1
20.08602425691791
% es.EX (V/m) @ t=1
-11.16063473867525
% es.EY (V/m) @ t=1
-1.20467579707893
% es.EZ (V/m) @ t=1
14.94396972299111
% es.tEX (V/m) @ t=1
-11.16063473867527
% es.tEY (V/m) @ t=1
0
% es.tEZ (V/m) @ t=1
14.9439697229911
% es.Ex (V/m) @ t=1
-11.16063473867525
% es.Ey (V/m) @ t=1
-1.20467579707893
% es.Ez (V/m) @ t=1
14.94396972299111
% es.tEx (V/m) @ t=1
-11.16063473867527
% es.tEy (V/m) @ t=1
0
% es.tEz (V/m) @ t=1
14.9439697229911
% V (V) @ t=1
0.016495904560612323
% es.normE (V/m) @ t=1.02
20.352883813729214
% es.EX (V/m) @ t=1.02
-11.308917001002603
% es.EY (V/m) @ t=1.02
-1.2206788109770916
% es.EZ (V/m) @ t=1.02
15.14251145905176
% es.tEX (V/m) @ t=1.02
-11.308917001002621
% es.tEY (V/m) @ t=1.02
0
% es.tEZ (V/m) @ t=1.02
15.14251145905174
% es.Ex (V/m) @ t=1.02
-11.308917001002603
% es.Ey (V/m) @ t=1.02
-1.2206788109770916
% es.Ez (V/m) @ t=1.02
15.14251145905176
% es.tEx (V/m) @ t=1.02
-11.308917001002621
% es.tEy (V/m) @ t=1.02
0
% es.tEz (V/m) @ t=1.02
15.14251145905174
% V (V) @ t=1.02
0.016715059998960134
% es.normE (V/m) @ t=1.04
20.622360324552034
% es.EX (V/m) @ t=1.04
-11.458653612364754
% es.EY (V/m) @ t=1.04
-1.2368386396164235
% es.EZ (V/m) @ t=1.04
15.343000115908367
% es.tEX (V/m) @ t=1.04
-11.458653612364765
% es.tEY (V/m) @ t=1.04
0
% es.tEZ (V/m) @ t=1.04
15.343000115908346
% es.Ex (V/m) @ t=1.04
-11.458653612364754
% es.Ey (V/m) @ t=1.04
-1.2368386396164235
% es.Ez (V/m) @ t=1.04
15.343000115908367
% es.tEx (V/m) @ t=1.04
-11.458653612364765