% Model:              1 neuron.mph
% Version:            COMSOL 6.0.0.405
% Date:               Mar 16 2023, 18:32
% Dimension:          0
% Nodes:              14017
% Expressions:        14017
% Description:        Electric field norm, Electric field, X component, Electric field, Y component, Electric field, Z component, Tangential electric field, X component, Tangential electric field, Y component, Tangential electric field, Z component, Electric field, x component, Electric field, y component, Electric field, z component, Tangential electric field, x component, Tangential electric field, y component, Tangential electric field, z component, Electric potential
% Length unit:        mm
% x
1.33
% y
12.2
% z
1.33
% es.normE (V/m) @ t=0
11.707644775738867
% es.EX (V/m) @ t=0
9.072068786177299
% es.EY (V/m) @ t=0
-1.3901088354145568
% es.EZ (V/m) @ t=0
7.247597654150711
% es.tEX (V/m) @ t=0
9.072068786177345
% es.tEY (V/m) @ t=0
0
% es.tEZ (V/m) @ t=0
7.247597654150726
% es.Ex (V/m) @ t=0
9.072068786177299
% es.Ey (V/m) @ t=0
-1.3901088354145568
% es.Ez (V/m) @ t=0
7.247597654150711
% es.tEx (V/m) @ t=0
9.072068786177345
% es.tEy (V/m) @ t=0
0
% es.tEz (V/m) @ t=0
7.247597654150726
% V (V) @ t=0
0.009668555230933318
% es.normE (V/m) @ t=0.02
10.16817273582647
% es.EX (V/m) @ t=0.02
7.879156278343499
% es.EY (V/m) @ t=0.02
-1.2073191182562226
% es.EZ (V/m) @ t=0.02
6.294590134943446
% es.tEX (V/m) @ t=0.02
7.8791562783435545
% es.tEY (V/m) @ t=0.02
0
% es.tEZ (V/m) @ t=0.02
6.2945901349434275
% es.Ex (V/m) @ t=0.02
7.879156278343499
% es.Ey (V/m) @ t=0.02
-1.2073191182562226
% es.Ez (V/m) @ t=0.02
6.294590134943446
% es.tEx (V/m) @ t=0.02
7.8791562783435545
% es.tEy (V/m) @ t=0.02
0
% es.tEz (V/m) @ t=0.02
6.2945901349434275
% V (V) @ t=0.02
0.008397208588801604
% es.normE (V/m) @ t=0.04
10.31893315407633
% es.EX (V/m) @ t=0.04
7.995978130008714
% es.EY (V/m) @ t=0.04
-1.225219799469368
% es.EZ (V/m) @ t=0.04
6.387918100021247
% es.tEX (V/m) @ t=0.04
7.995978130008734
% es.tEY (V/m) @ t=0.04
0
% es.tEZ (V/m) @ t=0.04
6.387918100021248
% es.Ex (V/m) @ t=0.04
7.995978130008714
% es.Ey (V/m) @ t=0.04
-1.225219799469368
% es.Ez (V/m) @ t=0.04
6.387918100021247
% es.tEx (V/m) @ t=0.04
7.995978130008734
% es.tEy (V/m) @ t=0.04
0
% es.tEz (V/m) @ t=0.04
6.387918100021248
% V (V) @ t=0.04
0.008521711621089684
% es.normE (V/m) @ t=0.06
10.471980820367616
% es.EX (V/m) @ t=0.06
8.114572320756976
% es.EY (V/m) @ t=0.06
-1.2433921788500122
% es.EZ (V/m) @ t=0.06
6.482661967194563
% es.tEX (V/m) @ t=0.06
8.114572320757002
% es.tEY (V/m) @ t=0.06
0
% es.tEZ (V/m) @ t=0.06
6.482661967194557
% es.Ex (V/m) @ t=0.06
8.114572320756976
% es.Ey (V/m) @ t=0.06
-1.2433921788500122
% es.Ez (V/m) @ t=0.06
6.482661967194563
% es.tEx (V/m) @ t=0.06
8.114572320757002
% es.tEy (V/m) @ t=0.06
0
% es.tEz (V/m) @ t=0.06
6.482661967194557
% V (V) @ t=0.06
0.008648103699180435
% es.normE (V/m) @ t=0.08
10.62887265231407
% es.EX (V/m) @ t=0.08
8.236145312462803
% es.EY (V/m) @ t=0.08
-1.2620208257491043
% es.EZ (V/m) @ t=0.08
6.579785580446057
% es.tEX (V/m) @ t=0.08
8.23614531246284
% es.tEY (V/m) @ t=0.08
0
% es.tEZ (V/m) @ t=0.08
6.579785580446054
% es.Ex (V/m) @ t=0.08
8.236145312462803
% es.Ey (V/m) @ t=0.08
-1.2620208257491043
% es.Ez (V/m) @ t=0.08
6.579785580446057
% es.tEx (V/m) @ t=0.08
8.23614531246284
% es.tEy (V/m) @ t=0.08
0
% es.tEz (V/m) @ t=0.08
6.579785580446054
% V (V) @ t=0.08
0.008777670191797869
% es.normE (V/m) @ t=0.1
10.788570282695058
% es.EX (V/m) @ t=0.1
8.359892485984268
% es.EY (V/m) @ t=0.1
-1.2809824954166675
% es.EZ (V/m) @ t=0.1
6.678646134407047
% es.tEX (V/m) @ t=0.1
8.359892485984307
% es.tEY (V/m) @ t=0.1
0
% es.tEZ (V/m) @ t=0.1
6.678646134407032
% es.Ex (V/m) @ t=0.1
8.359892485984268
% es.Ey (V/m) @ t=0.1
-1.2809824954166675
% es.Ez (V/m) @ t=0.1
6.678646134407047
% es.tEx (V/m) @ t=0.1
8.359892485984307
% es.tEy (V/m) @ t=0.1
0
% es.tEz (V/m) @ t=0.1
6.678646134407032
% V (V) @ t=0.1
0.008909553641619602
% es.normE (V/m) @ t=0.12
10.948267913076025
% es.EX (V/m) @ t=0.12
8.483639659505714
% es.EY (V/m) @ t=0.12
-1.2999441650842343
% es.EZ (V/m) @ t=0.12
6.77750668836802
% es.tEX (V/m) @ t=0.12
8.48363965950573
% es.tEY (V/m) @ t=0.12
0
% es.tEZ (V/m) @ t=0.12
6.777506688368039
% es.Ex (V/m) @ t=0.12
8.483639659505714
% es.Ey (V/m) @ t=0.12
-1.2999441650842343
% es.Ez (V/m) @ t=0.12
6.77750668836802
% es.tEx (V/m) @ t=0.12
8.48363965950573
% es.tEy (V/m) @ t=0.12
0
% es.tEz (V/m) @ t=0.12
6.777506688368039
% V (V) @ t=0.12
0.009041437091441331
% es.normE (V/m) @ t=0.14
11.110360526696768
% es.EX (V/m) @ t=0.14
8.609242669468696
% es.EY (V/m) @ t=0.14
-1.319190186890859
% es.EZ (V/m) @ t=0.14
6.877849854678047
% es.tEX (V/m) @ t=0.14
8.609242669468708
% es.tEY (V/m) @ t=0.14
0
% es.tEZ (V/m) @ t=0.14
6.877849854678052
% es.Ex (V/m) @ t=0.14
8.609242669468696
% es.Ey (V/m) @ t=0.14
-1.319190186890859
% es.Ez (V/m) @ t=0.14
6.877849854678047
% es.tEx (V/m) @ t=0.14
8.609242669468708
% es.tEy (V/m) @ t=0.14
0
% es.tEz (V/m) @ t=0.14
6.877849854678052
% V (V) @ t=0.14
0.009175298374484657
% es.normE (V/m) @ t=0.16
11.28447342007324
% es.EX (V/m) @ t=0.16
8.744160013176467
% es.EY (V/m) @ t=0.16
-1.3398633553280757
% es.EZ (V/m) @ t=0.16
6.985634165004652
% es.tEX (V/m) @ t=0.16
8.74416001317648
% es.tEY (V/m) @ t=0.16
0
% es.tEZ (V/m) @ t=0.16
6.98563416500464
% es.Ex (V/m) @ t=0.16
8.744160013176467
% es.Ey (V/m) @ t=0.16
-1.3398633553280757
% es.Ez (V/m) @ t=0.16
6.985634165004652
% es.tEx (V/m) @ t=0.16
8.74416001317648
% es.tEy (V/m) @ t=0.16
0
% es.tEz (V/m) @ t=0.16
6.98563416500464
% V (V) @ t=0.16
0.009319086285923008
% es.normE (V/m) @ t=0.18
11.45858631344963
% es.EX (V/m) @ t=0.18
8.879077356884151
% es.EY (V/m) @ t=0.18
-1.3605365237652993
% es.EZ (V/m) @ t=0.18
7.09341847533122
% es.tEX (V/m) @ t=0.18
8.87907735688418
% es.tEY (V/m) @ t=0.18
0
% es.tEZ (V/m) @ t=0.18
7.093418475331241
% es.Ex (V/m) @ t=0.18
8.879077356884151
% es.Ey (V/m) @ t=0.18
-1.3605365237652993
% es.Ez (V/m) @ t=0.18
7.09341847533122
% es.tEx (V/m) @ t=0.18
8.87907735688418
% es.tEy (V/m) @ t=0.18
0
% es.tEz (V/m) @ t=0.18
7.093418475331241
% V (V) @ t=0.18
0.00946287419736136
% es.normE (V/m) @ t=0.2
11.632699206826034
% es.EX (V/m) @ t=0.2
9.013994700591816
% es.EY (V/m) @ t=0.2
-1.381209692202523
% es.EZ (V/m) @ t=0.2
7.2012027856578325
% es.tEX (V/m) @ t=0.2
9.013994700591835
% es.tEY (V/m) @ t=0.2
0
% es.tEZ (V/m) @ t=0.2
7.201202785657829
% es.Ex (V/m) @ t=0.2
9.013994700591816
% es.Ey (V/m) @ t=0.2
-1.381209692202523
% es.Ez (V/m) @ t=0.2
7.2012027856578325
% es.tEx (V/m) @ t=0.2
9.013994700591835
% es.tEy (V/m) @ t=0.2
0
% es.tEz (V/m) @ t=0.2
7.201202785657829
% V (V) @ t=0.2
0.009606662108799709
% es.normE (V/m) @ t=0.22
11.80681210020246
% es.EX (V/m) @ t=0.22
9.148912044299529
% es.EY (V/m) @ t=0.22
-1.4018828606397093
% es.EZ (V/m) @ t=0.22
7.308987095984422
% es.tEX (V/m) @ t=0.22
9.148912044299564
% es.tEY (V/m) @ t=0.22
0
% es.tEZ (V/m) @ t=0.22
7.308987095984422
% es.Ex (V/m) @ t=0.22
9.148912044299529
% es.Ey (V/m) @ t=0.22
-1.4018828606397093
% es.Ez (V/m) @ t=0.22
7.308987095984422
% es.tEx (V/m) @ t=0.22
9.148912044299564
% es.tEy (V/m) @ t=0.22
0
% es.tEz (V/m) @ t=0.22
7.308987095984422
% V (V) @ t=0.22
0.00975045002023806
% es.normE (V/m) @ t=0.24
11.980924993578892
% es.EX (V/m) @ t=0.24
9.283829388007234
% es.EY (V/m) @ t=0.24
-1.4225560290769579
% es.EZ (V/m) @ t=0.24
7.416771406311014
% es.tEX (V/m) @ t=0.24
9.283829388007234
% es.tEY (V/m) @ t=0.24
0
% es.tEZ (V/m) @ t=0.24
7.416771406311011
% es.Ex (V/m) @ t=0.24
9.283829388007234
% es.Ey (V/m) @ t=0.24
-1.4225560290769579
% es.Ez (V/m) @ t=0.24
7.416771406311014
% es.tEx (V/m) @ t=0.24
9.283829388007234
% es.tEy (V/m) @ t=0.24
0
% es.tEz (V/m) @ t=0.24
7.416771406311011
% V (V) @ t=0.24
0.00989423793167641
% es.normE (V/m) @ t=0.26
12.15503788695531
% es.EX (V/m) @ t=0.26
9.418746731714918
% es.EY (V/m) @ t=0.26
-1.4432291975141265
% es.EZ (V/m) @ t=0.26
7.524555716637618
% es.tEX (V/m) @ t=0.26
9.418746731714965
% es.tEY (V/m) @ t=0.26
0
% es.tEZ (V/m) @ t=0.26
7.524555716637612
% es.Ex (V/m) @ t=0.26
9.418746731714918
% es.Ey (V/m) @ t=0.26
-1.4432291975141265
% es.Ez (V/m) @ t=0.26
7.524555716637618
% es.tEx (V/m) @ t=0.26
9.418746731714965
% es.tEy (V/m) @ t=0.26
0
% es.tEz (V/m) @ t=0.26
7.524555716637612
% V (V) @ t=0.26
0.010038025843114761
% es.normE (V/m) @ t=0.28
12.334478136279998
% es.EX (V/m) @ t=0.28
9.55779222213739
% es.EY (V/m) @ t=0.28
-1.46453431091639
% es.EZ (V/m) @ t=0.28
7.635637994466734
% es.tEX (V/m) @ t=0.28
9.557792222137444
% es.tEY (V/m) @ t=0.28
0
% es.tEZ (V/m) @ t=0.28
7.635637994466745
% es.Ex (V/m) @ t=0.28
9.55779222213739
% es.Ey (V/m) @ t=0.28
-1.46453431091639
% es.Ez (V/m) @ t=0.28
7.635637994466734
% es.tEx (V/m) @ t=0.28
9.557792222137444
% es.tEy (V/m) @ t=0.28
0
% es.tEz (V/m) @ t=0.28
7.635637994466745
% V (V) @ t=0.28
0.010186212472375465
% es.normE (V/m) @ t=0.3
12.524155339548534
% es.EX (V/m) @ t=0.3
9.704770287030442
% es.EY (V/m) @ t=0.3
-1.4870537587021548
% es.EZ (V/m) @ t=0.3
7.7530575889232765
% es.tEX (V/m) @ t=0.3
9.7047702870305
% es.tEY (V/m) @ t=0.3
0
% es.tEZ (V/m) @ t=0.3
7.753057588923283
% es.Ex (V/m) @ t=0.3
9.704770287030442
% es.Ey (V/m) @ t=0.3
-1.4870537587021548
% es.Ez (V/m) @ t=0.3
7.7530575889232765
% es.tEx (V/m) @ t=0.3
9.7047702870305
% es.tEy (V/m) @ t=0.3
0
% es.tEz (V/m) @ t=0.3
7.753057588923283
% V (V) @ t=0.3
0.010342851600811262
% es.normE (V/m) @ t=0.32
12.713832542817629
% es.EX (V/m) @ t=0.32
9.851748351923579
% es.EY (V/m) @ t=0.32
-1.5095732064879606
% es.EZ (V/m) @ t=0.32
7.870477183379814
% es.tEX (V/m) @ t=0.32
9.851748351923643
% es.tEY (V/m) @ t=0.32
0
% es.tEZ (V/m) @ t=0.32
7.870477183379806
% es.Ex (V/m) @ t=0.32
9.851748351923579
% es.Ey (V/m) @ t=0.32
-1.5095732064879606
% es.Ez (V/m) @ t=0.32
7.870477183379814
% es.tEx (V/m) @ t=0.32
9.851748351923643
% es.tEy (V/m) @ t=0.32
0
% es.tEz (V/m) @ t=0.32
7.870477183379806
% V (V) @ t=0.32
0.010499490729247057
% es.normE (V/m) @ t=0.34
12.903509746087174
% es.EX (V/m) @ t=0.34
9.998726416816703
% es.EY (V/m) @ t=0.34
-1.5320926542737503
% es.EZ (V/m) @ t=0.34
7.987896777836339
% es.tEX (V/m) @ t=0.34
9.998726416816728
% es.tEY (V/m) @ t=0.34
0
% es.tEZ (V/m) @ t=0.34
7.987896777836349
% es.Ex (V/m) @ t=0.34
9.998726416816703
% es.Ey (V/m) @ t=0.34
-1.5320926542737503
% es.Ez (V/m) @ t=0.34
7.987896777836339
% es.tEx (V/m) @ t=0.34
9.998726416816728
% es.tEy (V/m) @ t=0.34
0
% es.tEz (V/m) @ t=0.34
7.987896777836349
% V (V) @ t=0.34
0.010656129857682852
% es.normE (V/m) @ t=0.36
13.093186949357115
% es.EX (V/m) @ t=0.36
10.145704481709771
% es.EY (V/m) @ t=0.36
-1.554612102059549
% es.EZ (V/m) @ t=0.36
8.105316372292855
% es.tEX (V/m) @ t=0.36
10.145704481709785
% es.tEY (V/m) @ t=0.36
0
% es.tEZ (V/m) @ t=0.36
8.105316372292844
% es.Ex (V/m) @ t=0.36
10.145704481709771
% es.Ey (V/m) @ t=0.36
-1.554612102059549
% es.Ez (V/m) @ t=0.36
8.105316372292855
% es.tEx (V/m) @ t=0.36
10.145704481709785
% es.tEy (V/m) @ t=0.36
0
% es.tEz (V/m) @ t=0.36
8.105316372292844
% V (V) @ t=0.36
0.010812768986118649
% es.normE (V/m) @ t=0.38
13.282864152627575
% es.EX (V/m) @ t=0.38
10.292682546602915
% es.EY (V/m) @ t=0.38
-1.5771315498453653
% es.EZ (V/m) @ t=0.38
8.222735966749408
% es.tEX (V/m) @ t=0.38
10.292682546602897
% es.tEY (V/m) @ t=0.38
0
% es.tEZ (V/m) @ t=0.38
8.222735966749402
% es.Ex (V/m) @ t=0.38
10.292682546602915
% es.Ey (V/m) @ t=0.38
-1.5771315498453653
% es.Ez (V/m) @ t=0.38
8.222735966749408
% es.tEx (V/m) @ t=0.38
10.292682546602897
% es.tEy (V/m) @ t=0.38
0
% es.tEz (V/m) @ t=0.38
8.222735966749402
% V (V) @ t=0.38
0.010969408114554444
% es.normE (V/m) @ t=0.4
13.472541355898354
% es.EX (V/m) @ t=0.4
10.439660611495974
% es.EY (V/m) @ t=0.4
-1.5996509976311515
% es.EZ (V/m) @ t=0.4
8.340155561205933
% es.tEX (V/m) @ t=0.4
10.439660611496011
% es.tEY (V/m) @ t=0.4
0
% es.tEZ (V/m) @ t=0.4
8.34015556120594
% es.Ex (V/m) @ t=0.4
10.439660611495974
% es.Ey (V/m) @ t=0.4
-1.5996509976311515
% es.Ez (V/m) @ t=0.4
8.340155561205933
% es.tEx (V/m) @ t=0.4
10.439660611496011
% es.tEy (V/m) @ t=0.4
0
% es.tEz (V/m) @ t=0.4
8.34015556120594
% V (V) @ t=0.4
0.01112604724299024
% es.normE (V/m) @ t=0.42
13.670897880447384
% es.EX (V/m) @ t=0.42
10.59336417546181
% es.EY (V/m) @ t=0.42
-1.62320069857069
% es.EZ (V/m) @ t=0.42
8.462948111426117
% es.tEX (V/m) @ t=0.42
10.593364175461877
% es.tEY (V/m) @ t=0.42
0
% es.tEZ (V/m) @ t=0.42
8.462948111426094
% es.Ex (V/m) @ t=0.42
10.59336417546181
% es.Ey (V/m) @ t=0.42
-1.62320069857069
% es.Ez (V/m) @ t=0.42
8.462948111426117
% es.tEx (V/m) @ t=0.42
10.593364175461877
% es.tEy (V/m) @ t=0.42
0
% es.tEz (V/m) @ t=0.42
8.462948111426094
% V (V) @ t=0.42
0.011289853660311582
% es.normE (V/m) @ t=0.44
13.877317009730778
% es.EX (V/m) @ t=0.44
10.753315352452368
% es.EY (V/m) @ t=0.44
-1.6477074471511273
% es.EZ (V/m) @ t=0.44
8.59073183747535
% es.tEX (V/m) @ t=0.44
10.753315352452406
% es.tEY (V/m) @ t=0.44
0
% es.tEZ (V/m) @ t=0.44
8.590731837475351
% es.Ex (V/m) @ t=0.44
10.753315352452368
% es.Ey (V/m) @ t=0.44
-1.6477074471511273
% es.Ez (V/m) @ t=0.44
8.59073183747535
% es.tEx (V/m) @ t=0.44
10.753315352452406
% es.tEy (V/m) @ t=0.44
0
% es.tEz (V/m) @ t=0.44
8.590731837475351
% V (V) @ t=0.44
0.011460318088720159
% es.normE (V/m) @ t=0.46
14.083736139014858
% es.EX (V/m) @ t=0.46
10.913266529442998
% es.EY (V/m) @ t=0.46
-1.6722141957314864
% es.EZ (V/m) @ t=0.46
8.718515563524601
% es.tEX (V/m) @ t=0.46
10.913266529443046
% es.tEY (V/m) @ t=0.46
0
% es.tEZ (V/m) @ t=0.46
8.718515563524612
% es.Ex (V/m) @ t=0.46
10.913266529442998
% es.Ey (V/m) @ t=0.46
-1.6722141957314864
% es.Ez (V/m) @ t=0.46
8.718515563524601
% es.tEx (V/m) @ t=0.46
10.913266529443046
% es.tEy (V/m) @ t=0.46
0
% es.tEz (V/m) @ t=0.46
8.718515563524612
% V (V) @ t=0.46
0.011630782517128735
% es.normE (V/m) @ t=0.48
14.290155268299511
% es.EX (V/m) @ t=0.48
11.073217706433585
% es.EY (V/m) @ t=0.48
-1.6967209443119167
% es.EZ (V/m) @ t=0.48
8.84629928957386
% es.tEX (V/m) @ t=0.48
11.073217706433631
% es.tEY (V/m) @ t=0.48
0
% es.tEZ (V/m) @ t=0.48
8.84629928957385
% es.Ex (V/m) @ t=0.48
11.073217706433585
% es.Ey (V/m) @ t=0.48
-1.6967209443119167
% es.Ez (V/m) @ t=0.48
8.84629928957386
% es.tEx (V/m) @ t=0.48
11.073217706433631
% es.tEy (V/m) @ t=0.48
0
% es.tEz (V/m) @ t=0.48
8.84629928957385
% V (V) @ t=0.48
0.011801246945537311
% es.normE (V/m) @ t=0.5
14.496574397584707
% es.EX (V/m) @ t=0.5
11.233168883424163
% es.EY (V/m) @ t=0.5
-1.7212276928923451
% es.EZ (V/m) @ t=0.5
8.974083015623087
% es.tEX (V/m) @ t=0.5
11.233168883424188
% es.tEY (V/m) @ t=0.5
0
% es.tEZ (V/m) @ t=0.5
8.97408301562308
% es.Ex (V/m) @ t=0.5
11.233168883424163
% es.Ey (V/m) @ t=0.5
-1.7212276928923451
% es.Ez (V/m) @ t=0.5
8.974083015623087
% es.tEx (V/m) @ t=0.5
11.233168883424188
% es.tEy (V/m) @ t=0.5
0
% es.tEz (V/m) @ t=0.5
8.97408301562308
% V (V) @ t=0.5
0.01197171137394589
% es.normE (V/m) @ t=0.52
14.702993526870472
% es.EX (V/m) @ t=0.52
11.393120060414757
% es.EY (V/m) @ t=0.52
-1.7457344414728109
% es.EZ (V/m) @ t=0.52
9.101866741672328
% es.tEX (V/m) @ t=0.52
11.393120060414772
% es.tEY (V/m) @ t=0.52
0
% es.tEZ (V/m) @ t=0.52
9.101866741672332
% es.Ex (V/m) @ t=0.52
11.393120060414757
% es.Ey (V/m) @ t=0.52
-1.7457344414728109
% es.Ez (V/m) @ t=0.52
9.101866741672328
% es.tEx (V/m) @ t=0.52
11.393120060414772
% es.tEy (V/m) @ t=0.52
0
% es.tEz (V/m) @ t=0.52
9.101866741672332
% V (V) @ t=0.52
0.012142175802354466
% es.normE (V/m) @ t=0.54
14.909412656156732
% es.EX (V/m) @ t=0.54
11.553071237405309
% es.EY (V/m) @ t=0.54
-1.7702411900532091
% es.EZ (V/m) @ t=0.54
9.229650467721585
% es.tEX (V/m) @ t=0.54
11.553071237405355
% es.tEY (V/m) @ t=0.54
0
% es.tEZ (V/m) @ t=0.54
9.22965046772157
% es.Ex (V/m) @ t=0.54
11.553071237405309
% es.Ey (V/m) @ t=0.54
-1.7702411900532091
% es.Ez (V/m) @ t=0.54
9.229650467721585
% es.tEx (V/m) @ t=0.54
11.553071237405355
% es.tEy (V/m) @ t=0.54
0
% es.tEz (V/m) @ t=0.54
9.22965046772157
% V (V) @ t=0.54
0.012312640230763044
% es.normE (V/m) @ t=0.56
15.121245861754943
% es.EX (V/m) @ t=0.56
11.717217781688355
% es.EY (V/m) @ t=0.56
-1.7953899657130208
% es.EZ (V/m) @ t=0.56
9.360785873069151
% es.tEX (V/m) @ t=0.56
11.717217781688362
% es.tEY (V/m) @ t=0.56
0
% es.tEZ (V/m) @ t=0.56
9.360785873069151
% es.Ex (V/m) @ t=0.56
11.717217781688355
% es.Ey (V/m) @ t=0.56
-1.7953899657130208
% es.Ez (V/m) @ t=0.56
9.360785873069151
% es.tEx (V/m) @ t=0.56
11.717217781688362
% es.tEy (V/m) @ t=0.56
0
% es.tEz (V/m) @ t=0.56
9.360785873069151
% V (V) @ t=0.56
0.012487574712672428
% es.normE (V/m) @ t=0.58
15.337216901636227
% es.EX (V/m) @ t=0.58
11.884570733419134
% es.EY (V/m) @ t=0.58
-1.8210294255647366
% es.EZ (V/m) @ t=0.58
9.494482877608338
% es.tEX (V/m) @ t=0.58
11.884570733419173
% es.tEY (V/m) @ t=0.58
0
% es.tEZ (V/m) @ t=0.58
9.494482877608338
% es.Ex (V/m) @ t=0.58
11.884570733419134
% es.Ey (V/m) @ t=0.58
-1.8210294255647366
% es.Ez (V/m) @ t=0.58
9.494482877608338
% es.tEx (V/m) @ t=0.58
11.884570733419173
% es.tEy (V/m) @ t=0.58
0
% es.tEz (V/m) @ t=0.58
9.494482877608338
% V (V) @ t=0.58
0.012665925537380407
% es.normE (V/m) @ t=0.6
15.555261519462285
% es.EX (V/m) @ t=0.6
12.053530500529059
% es.EY (V/m) @ t=0.6
-1.8469147802124812
% es.EZ (V/m) @ t=0.6
9.629463567095067
% es.tEX (V/m) @ t=0.6
12.053530500529053
% es.tEY (V/m) @ t=0.6
0
% es.tEZ (V/m) @ t=0.6
9.629463567095074
% es.Ex (V/m) @ t=0.6
12.053530500529059
% es.Ey (V/m) @ t=0.6
-1.8469147802124812
% es.Ez (V/m) @ t=0.6
9.629463567095067
% es.tEx (V/m) @ t=0.6
12.053530500529053
% es.tEy (V/m) @ t=0.6
0
% es.tEz (V/m) @ t=0.6
9.629463567095074
% V (V) @ t=0.6
0.012845988381611455
% es.normE (V/m) @ t=0.62
15.775379715233594
% es.EX (V/m) @ t=0.62
12.224097083018261
% es.EY (V/m) @ t=0.62
-1.8730460296564768
% es.EZ (V/m) @ t=0.62
9.765727941529393
% es.tEX (V/m) @ t=0.62
12.224097083018286
% es.tEY (V/m) @ t=0.62
0
% es.tEZ (V/m) @ t=0.62
9.765727941529391
% es.Ex (V/m) @ t=0.62
12.224097083018261
% es.Ey (V/m) @ t=0.62
-1.8730460296564768
% es.Ez (V/m) @ t=0.62
9.765727941529393
% es.tEx (V/m) @ t=0.62
12.224097083018286
% es.tEy (V/m) @ t=0.62
0
% es.tEz (V/m) @ t=0.62
9.765727941529391
% V (V) @ t=0.62
0.013027763245365566
% es.normE (V/m) @ t=0.64
15.997571488950424
% es.EX (V/m) @ t=0.64
12.396270480886708
% es.EY (V/m) @ t=0.64
-1.899423173896528
% es.EZ (V/m) @ t=0.64
9.903276000911262
% es.tEX (V/m) @ t=0.64
12.39627048088676
% es.tEY (V/m) @ t=0.64
0
% es.tEZ (V/m) @ t=0.64
9.903276000911248
% es.Ex (V/m) @ t=0.64
12.396270480886708
% es.Ey (V/m) @ t=0.64
-1.899423173896528
% es.Ez (V/m) @ t=0.64
9.903276000911262
% es.tEx (V/m) @ t=0.64
12.39627048088676
% es.tEy (V/m) @ t=0.64
0
% es.tEz (V/m) @ t=0.64
9.903276000911248
% V (V) @ t=0.64
0.013211250128642743
% es.normE (V/m) @ t=0.66
16.221836840613044
% es.EX (V/m) @ t=0.66
12.57005069413429
% es.EY (V/m) @ t=0.66
-1.9260462129327234
% es.EZ (V/m) @ t=0.66
10.042107745240687
% es.tEX (V/m) @ t=0.66
12.570050694134329
% es.tEY (V/m) @ t=0.66
0
% es.tEZ (V/m) @ t=0.66
10.04210774524067
% es.Ex (V/m) @ t=0.66
12.57005069413429
% es.Ey (V/m) @ t=0.66
-1.9260462129327234
% es.Ez (V/m) @ t=0.66
10.042107745240687
% es.tEx (V/m) @ t=0.66
12.570050694134329
% es.tEy (V/m) @ t=0.66
0
% es.tEz (V/m) @ t=0.66
10.04210774524067
% V (V) @ t=0.66
0.013396449031442985
% es.normE (V/m) @ t=0.68
16.44817577022194
% es.EX (V/m) @ t=0.68
12.74543772276116
% es.EY (V/m) @ t=0.68
-1.9529151467650792
% es.EZ (V/m) @ t=0.68
10.182223174517674
% es.tEX (V/m) @ t=0.68
12.745437722761167
% es.tEY (V/m) @ t=0.68
0
% es.tEZ (V/m) @ t=0.68
10.182223174517672
% es.Ex (V/m) @ t=0.68
12.74543772276116
% es.Ey (V/m) @ t=0.68
-1.9529151467650792
% es.Ez (V/m) @ t=0.68
10.182223174517674
% es.tEx (V/m) @ t=0.68
12.745437722761167
% es.tEy (V/m) @ t=0.68
0
% es.tEz (V/m) @ t=0.68
10.182223174517672
% V (V) @ t=0.68
0.013583359953766286
% es.normE (V/m) @ t=0.7
16.676588277777405
% es.EX (V/m) @ t=0.7
12.922431566767195
% es.EY (V/m) @ t=0.7
-1.9800299753935704
% es.EZ (V/m) @ t=0.7
10.32362228874225
% es.tEX (V/m) @ t=0.7
12.922431566767216
% es.tEY (V/m) @ t=0.7
0
% es.tEZ (V/m) @ t=0.7
10.323622288742255
% es.Ex (V/m) @ t=0.7
12.922431566767195
% es.Ey (V/m) @ t=0.7
-1.9800299753935704
% es.Ez (V/m) @ t=0.7
10.32362228874225
% es.tEx (V/m) @ t=0.7
12.922431566767216
% es.tEy (V/m) @ t=0.7
0
% es.tEz (V/m) @ t=0.7
10.323622288742255
% V (V) @ t=0.7
0.013771982895612654
% es.normE (V/m) @ t=0.72
16.907074363279857
% es.EX (V/m) @ t=0.72
13.101032226152494
% es.EY (V/m) @ t=0.72
-2.0073906988182486
% es.EZ (V/m) @ t=0.72
10.466305087914364
% es.tEX (V/m) @ t=0.72
13.10103222615256
% es.tEY (V/m) @ t=0.72
0
% es.tEZ (V/m) @ t=0.72
10.46630508791435
% es.Ex (V/m) @ t=0.72
13.101032226152494
% es.Ey (V/m) @ t=0.72
-2.0073906988182486
% es.Ez (V/m) @ t=0.72
10.466305087914364
% es.tEx (V/m) @ t=0.72
13.10103222615256
% es.tEy (V/m) @ t=0.72
0
% es.tEz (V/m) @ t=0.72
10.46630508791435
% V (V) @ t=0.72
0.013962317856982088
% es.normE (V/m) @ t=0.74
17.13963402672964
% es.EX (V/m) @ t=0.74
13.281239700916977
% es.EY (V/m) @ t=0.74
-2.034997317038993
% es.EZ (V/m) @ t=0.74
10.610271572034062
% es.tEX (V/m) @ t=0.74
13.281239700917002
% es.tEY (V/m) @ t=0.74
0
% es.tEZ (V/m) @ t=0.74
10.610271572034067
% es.Ex (V/m) @ t=0.74
13.281239700916977
% es.Ey (V/m) @ t=0.74
-2.034997317038993
% es.Ez (V/m) @ t=0.74
10.610271572034062
% es.tEx (V/m) @ t=0.74
13.281239700917002
% es.tEy (V/m) @ t=0.74
0
% es.tEz (V/m) @ t=0.74
10.610271572034067
% V (V) @ t=0.74
0.014154364837874583
% es.normE (V/m) @ t=0.76
17.37426726812715
% es.EX (V/m) @ t=0.76
13.463053991060637
% es.EY (V/m) @ t=0.76
-2.0628498300559457
% es.EZ (V/m) @ t=0.76
10.75552174110135
% es.tEX (V/m) @ t=0.76
13.463053991060711
% es.tEY (V/m) @ t=0.76
0
% es.tEZ (V/m) @ t=0.76
10.755521741101349
% es.Ex (V/m) @ t=0.76
13.463053991060637
% es.Ey (V/m) @ t=0.76
-2.0628498300559457
% es.Ez (V/m) @ t=0.76
10.75552174110135
% es.tEx (V/m) @ t=0.76
13.463053991060711
% es.tEy (V/m) @ t=0.76
0
% es.tEz (V/m) @ t=0.76
10.755521741101349
% V (V) @ t=0.76
0.014348123838290141
% es.normE (V/m) @ t=0.78
17.610974087472805
% es.EX (V/m) @ t=0.78
13.646475096583588
% es.EY (V/m) @ t=0.78
-2.090948237869025
% es.EZ (V/m) @ t=0.78
10.902055595116135
% es.tEX (V/m) @ t=0.78
13.646475096583604
% es.tEY (V/m) @ t=0.78
0
% es.tEZ (V/m) @ t=0.78
10.90205559511614
% es.Ex (V/m) @ t=0.78
13.646475096583588
% es.Ey (V/m) @ t=0.78
-2.090948237869025
% es.Ez (V/m) @ t=0.78
10.902055595116135
% es.tEx (V/m) @ t=0.78
13.646475096583604
% es.tEy (V/m) @ t=0.78
0
% es.tEz (V/m) @ t=0.78
10.90205559511614
% V (V) @ t=0.78
0.014543594858228774
% es.normE (V/m) @ t=0.8
17.849754484766997
% es.EX (V/m) @ t=0.8
13.831503017485725
% es.EY (V/m) @ t=0.8
-2.119292540478188
% es.EZ (V/m) @ t=0.8
11.049873134078542
% es.tEX (V/m) @ t=0.8
13.831503017485733
% es.tEY (V/m) @ t=0.8
0
% es.tEZ (V/m) @ t=0.8
11.049873134078515
% es.Ex (V/m) @ t=0.8
13.831503017485725
% es.Ey (V/m) @ t=0.8
-2.119292540478188
% es.Ez (V/m) @ t=0.8
11.049873134078542
% es.tEx (V/m) @ t=0.8
13.831503017485733
% es.tEy (V/m) @ t=0.8
0
% es.tEz (V/m) @ t=0.8
11.049873134078515
% V (V) @ t=0.8
0.01474077789769046
% es.normE (V/m) @ t=0.82
18.090797410928186
% es.EX (V/m) @ t=0.82
14.018284087299598
% es.EY (V/m) @ t=0.82
-2.1479059511128753
% es.EZ (V/m) @ t=0.82
11.199091227965976
% es.tEX (V/m) @ t=0.82
14.018284087299676
% es.tEY (V/m) @ t=0.82
0
% es.tEZ (V/m) @ t=0.82
11.19909122796597
% es.Ex (V/m) @ t=0.82
14.018284087299598
% es.Ey (V/m) @ t=0.82
-2.1479059511128753
% es.Ez (V/m) @ t=0.82
11.199091227965976
% es.tEx (V/m) @ t=0.82
14.018284087299676
% es.tEy (V/m) @ t=0.82
0
% es.tEz (V/m) @ t=0.82
11.19909122796597
% V (V) @ t=0.82
0.014939830019585088
% es.normE (V/m) @ t=0.84
18.33806798257539
% es.EX (V/m) @ t=0.84
14.209889100954456
% es.EY (V/m) @ t=0.84
-2.1772755971286912
% es.EZ (V/m) @ t=0.84
11.352162381873486
% es.tEX (V/m) @ t=0.84
14.209889100954515
% es.tEY (V/m) @ t=0.84
0
% es.tEZ (V/m) @ t=0.84
11.352162381873484
% es.Ex (V/m) @ t=0.84
14.209889100954456
% es.Ey (V/m) @ t=0.84
-2.1772755971286912
% es.Ez (V/m) @ t=0.84
11.352162381873486
% es.tEx (V/m) @ t=0.84
14.209889100954515
% es.tEy (V/m) @ t=0.84
0
% es.tEz (V/m) @ t=0.84
11.352162381873484
% V (V) @ t=0.84
0.01514404717377944
% es.normE (V/m) @ t=0.86
18.588001360034372
% es.EX (V/m) @ t=0.86
14.403557259036774
% es.EY (V/m) @ t=0.86
-2.2069635264811467
% es.EZ (V/m) @ t=0.86
11.506881670111213
% es.tEX (V/m) @ t=0.86
14.403557259036774
% es.tEY (V/m) @ t=0.86
0
% es.tEZ (V/m) @ t=0.86
11.506881670111184
% es.Ex (V/m) @ t=0.86
14.403557259036774
% es.Ey (V/m) @ t=0.86
-2.2069635264811467
% es.Ez (V/m) @ t=0.86
11.506881670111213
% es.tEx (V/m) @ t=0.86
14.403557259036774
% es.tEy (V/m) @ t=0.86
0
% es.tEz (V/m) @ t=0.86
11.506881670111184
% V (V) @ t=0.86
0.015350466135223055
% es.normE (V/m) @ t=0.88
18.8405975433126
% es.EX (V/m) @ t=0.88
14.599288561546562
% es.EY (V/m) @ t=0.88
-2.2369697391700747
% es.EZ (V/m) @ t=0.88
11.66324909267901
% es.tEX (V/m) @ t=0.88
14.599288561546595
% es.tEY (V/m) @ t=0.88
0
% es.tEZ (V/m) @ t=0.88
11.66324909267899
% es.Ex (V/m) @ t=0.88
14.599288561546562
% es.Ey (V/m) @ t=0.88
-2.2369697391700747
% es.Ez (V/m) @ t=0.88
11.66324909267901
% es.tEx (V/m) @ t=0.88
14.599288561546595
% es.tEy (V/m) @ t=0.88
0
% es.tEz (V/m) @ t=0.88
11.66324909267899
% V (V) @ t=0.88
0.015559086903915945
% es.normE (V/m) @ t=0.9
19.095856532418722
% es.EX (V/m) @ t=0.9
14.797083008484009
% es.EY (V/m) @ t=0.9
-2.267294235195539
% es.EZ (V/m) @ t=0.9
11.821264649576989
% es.tEX (V/m) @ t=0.9
14.797083008484037
% es.tEY (V/m) @ t=0.9
0
% es.tEZ (V/m) @ t=0.9
11.821264649576955
% es.Ex (V/m) @ t=0.9
14.797083008484009
% es.Ey (V/m) @ t=0.9
-2.267294235195539
% es.Ez (V/m) @ t=0.9
11.821264649576989
% es.tEx (V/m) @ t=0.9
14.797083008484037
% es.tEy (V/m) @ t=0.9
0
% es.tEz (V/m) @ t=0.9
11.821264649576955
% V (V) @ t=0.9
0.01576990947985811
% es.normE (V/m) @ t=0.92
19.353778327361738
% es.EX (V/m) @ t=0.92
14.99694059984887
% es.EY (V/m) @ t=0.92
-2.297937014557423
% es.EZ (V/m) @ t=0.92
11.980928340805118
% es.tEX (V/m) @ t=0.92
14.996940599848926
% es.tEY (V/m) @ t=0.92
0
% es.tEZ (V/m) @ t=0.92
11.980928340805123
% es.Ex (V/m) @ t=0.92
14.99694059984887
% es.Ey (V/m) @ t=0.92
-2.297937014557423
% es.Ez (V/m) @ t=0.92
11.980928340805118
% es.tEx (V/m) @ t=0.92
14.996940599848926
% es.tEy (V/m) @ t=0.92
0
% es.tEz (V/m) @ t=0.92
11.980928340805123
% V (V) @ t=0.92
0.01598293386304954
% es.normE (V/m) @ t=0.94
19.614362928151728
% es.EX (V/m) @ t=0.94
15.198861335641274
% es.EY (V/m) @ t=0.94
-2.328898077255932
% es.EZ (V/m) @ t=0.94
12.14224016636341
% es.tEX (V/m) @ t=0.94
15.198861335641322
% es.tEY (V/m) @ t=0.94
0
% es.tEZ (V/m) @ t=0.94
12.142240166363408
% es.Ex (V/m) @ t=0.94
15.198861335641274
% es.Ey (V/m) @ t=0.94
-2.328898077255932
% es.Ez (V/m) @ t=0.94
12.14224016636341
% es.tEx (V/m) @ t=0.94
15.198861335641322
% es.tEy (V/m) @ t=0.94
0
% es.tEz (V/m) @ t=0.94
12.142240166363408
% V (V) @ t=0.94
0.01619816005349024
% es.normE (V/m) @ t=0.96
19.877610334799307
% es.EX (V/m) @ t=0.96
15.402845215861205
% es.EY (V/m) @ t=0.96
-2.360177423290896
% es.EZ (V/m) @ t=0.96
12.30520012625191
% es.tEX (V/m) @ t=0.96
15.402845215861252
% es.tEY (V/m) @ t=0.96
0
% es.tEZ (V/m) @ t=0.96
12.305200126251883
% es.Ex (V/m) @ t=0.96
15.402845215861205
% es.Ey (V/m) @ t=0.96
-2.360177423290896
% es.Ez (V/m) @ t=0.96
12.30520012625191
% es.tEx (V/m) @ t=0.96
15.402845215861252
% es.tEy (V/m) @ t=0.96
0
% es.tEz (V/m) @ t=0.96
12.305200126251883
% V (V) @ t=0.96
0.016415588051180215
% es.normE (V/m) @ t=0.98
20.143520547315596
% es.EX (V/m) @ t=0.98
15.608892240508611
% es.EY (V/m) @ t=0.98
-2.3917750526623713
% es.EZ (V/m) @ t=0.98
12.469808220470481
% es.tEX (V/m) @ t=0.98
15.608892240508657
% es.tEY (V/m) @ t=0.98
0
% es.tEZ (V/m) @ t=0.98
12.46980822047049
% es.Ex (V/m) @ t=0.98
15.608892240508611
% es.Ey (V/m) @ t=0.98
-2.3917750526623713
% es.Ez (V/m) @ t=0.98
12.469808220470481
% es.tEx (V/m) @ t=0.98
15.608892240508657
% es.tEy (V/m) @ t=0.98
0
% es.tEz (V/m) @ t=0.98
12.46980822047049
% V (V) @ t=0.98
0.016635217856119457
% es.normE (V/m) @ t=1
20.412093565712496
% es.EX (V/m) @ t=1
15.817002409583518
% es.EY (V/m) @ t=1
-2.4236909653703407
% es.EZ (V/m) @ t=1
12.636064449019273
% es.tEX (V/m) @ t=1
15.817002409583598
% es.tEY (V/m) @ t=1
0
% es.tEZ (V/m) @ t=1
12.636064449019257
% es.Ex (V/m) @ t=1
15.817002409583518
% es.Ey (V/m) @ t=1
-2.4236909653703407
% es.Ez (V/m) @ t=1
12.636064449019273
% es.tEx (V/m) @ t=1
15.817002409583598
% es.tEy (V/m) @ t=1
0
% es.tEz (V/m) @ t=1
12.636064449019257
% V (V) @ t=1
0.01685704946830797
% es.normE (V/m) @ t=1.02
20.683329390002392
% es.EX (V/m) @ t=1.02
16.02717572308604
% es.EY (V/m) @ t=1.02
-2.4559251614148607
% es.EZ (V/m) @ t=1.02
12.803968811898244
% es.tEX (V/m) @ t=1.02
16.027175723086103
% es.tEY (V/m) @ t=1.02
0
% es.tEZ (V/m) @ t=1.02
12.803968811898255
% es.Ex (V/m) @ t=1.02
16.02717572308604
% es.Ey (V/m) @ t=1.02
-2.4559251614148607
% es.Ez (V/m) @ t=1.02
12.803968811898244
% es.tEx (V/m) @ t=1.02
16.027175723086103
% es.tEy (V/m) @ t=1.02
0
% es.tEz (V/m) @ t=1.02
12.803968811898255
% V (V) @ t=1.02
0.01708108288774576
% es.normE (V/m) @ t=1.04
20.95722802019791
% es.EX (V/m) @ t=1.04
16.239412181016043
% es.EY (V/m) @ t=1.04
-2.4884776407958995
% es.EZ (V/m) @ t=1.04
12.973521309107356
% es.tEX (V/m) @ t=1.04
16.239412181016085
% es.tEY (V/m) @ t=1.04
0
% es.tEZ (V/m) @ t=1.04
12.973521309107326
% es.Ex (V/m) @ t=1.04
16.239412181016043
% es.Ey (V/m) @ t=1.04
-2.4884776407958995
% es.Ez (V/m) @ t=1.04
12.973521309107356
% es.tEx (V/m) @ t=1.04
16.239412181016085
% es.tEy (V/m) @ t=1.04
0
% es.tEz (V/m) @ t=1.04
12.973521309107326
% V (V) @ t=1.04
0.01730731811443282
% es.normE (V/m) @ t=1.06
21.233789456312238
% es.EX (V/m) @ t=1.06