% Model:              1 neuron.mph
% Version:            COMSOL 6.0.0.405
% Date:               Mar 16 2023, 18:37
% Dimension:          0
% Nodes:              14017
% Expressions:        14017
% Description:        Electric field norm, Electric field, X component, Electric field, Y component, Electric field, Z component, Tangential electric field, X component, Tangential electric field, Y component, Tangential electric field, Z component, Electric field, x component, Electric field, y component, Electric field, z component, Tangential electric field, x component, Tangential electric field, y component, Tangential electric field, z component, Electric potential
% Length unit:        mm
% x
2
% y
12.199999999999998
% z
2
% es.normE (V/m) @ t=0
1.1126379407555875
% es.EX (V/m) @ t=0
-0.7965459475724506
% es.EY (V/m) @ t=0
0.30335231913324767
% es.EZ (V/m) @ t=0
-0.7107961889215586
% es.tEX (V/m) @ t=0
-0.7965459475724503
% es.tEY (V/m) @ t=0
0
% es.tEZ (V/m) @ t=0
-0.7107961889215648
% es.Ex (V/m) @ t=0
-0.7965459475724506
% es.Ey (V/m) @ t=0
0.30335231913324767
% es.Ez (V/m) @ t=0
-0.7107961889215586
% es.tEx (V/m) @ t=0
-0.7965459475724503
% es.tEy (V/m) @ t=0
0
% es.tEz (V/m) @ t=0
-0.7107961889215648
% V (V) @ t=0
0.011323118770826548
% es.normE (V/m) @ t=0.02
0.9663338116839875
% es.EX (V/m) @ t=0.02
-0.6918057082403333
% es.EY (V/m) @ t=0.02
0.2634636128694736
% es.EZ (V/m) @ t=0.02
-0.6173314465152364
% es.tEX (V/m) @ t=0.02
-0.6918057082403322
% es.tEY (V/m) @ t=0.02
0
% es.tEZ (V/m) @ t=0.02
-0.617331446515232
% es.Ex (V/m) @ t=0.02
-0.6918057082403333
% es.Ey (V/m) @ t=0.02
0.2634636128694736
% es.Ez (V/m) @ t=0.02
-0.6173314465152364
% es.tEx (V/m) @ t=0.02
-0.6918057082403322
% es.tEy (V/m) @ t=0.02
0
% es.tEz (V/m) @ t=0.02
-0.617331446515232
% V (V) @ t=0.02
0.009834207445430825
% es.normE (V/m) @ t=0.04
0.9806613631294836
% es.EX (V/m) @ t=0.04
-0.7020629068984483
% es.EY (V/m) @ t=0.04
0.2673699234859932
% es.EZ (V/m) @ t=0.04
-0.6264844394204725
% es.tEX (V/m) @ t=0.04
-0.7020629068984463
% es.tEY (V/m) @ t=0.04
0
% es.tEZ (V/m) @ t=0.04
-0.6264844394204694
% es.Ex (V/m) @ t=0.04
-0.7020629068984483
% es.Ey (V/m) @ t=0.04
0.2673699234859932
% es.Ez (V/m) @ t=0.04
-0.6264844394204725
% es.tEx (V/m) @ t=0.04
-0.7020629068984463
% es.tEy (V/m) @ t=0.04
0
% es.tEz (V/m) @ t=0.04
-0.6264844394204694
% V (V) @ t=0.04
0.00998001611821711
% es.normE (V/m) @ t=0.06
0.9952047964141544
% es.EX (V/m) @ t=0.06
-0.7124746723889599
% es.EY (V/m) @ t=0.06
0.27133504857508917
% es.EZ (V/m) @ t=0.06
-0.6357753516882028
% es.tEX (V/m) @ t=0.06
-0.7124746723889555
% es.tEY (V/m) @ t=0.06
0
% es.tEZ (V/m) @ t=0.06
-0.6357753516882063
% es.Ex (V/m) @ t=0.06
-0.7124746723889599
% es.Ey (V/m) @ t=0.06
0.27133504857508917
% es.Ez (V/m) @ t=0.06
-0.6357753516882028
% es.tEx (V/m) @ t=0.06
-0.7124746723889555
% es.tEy (V/m) @ t=0.06
0
% es.tEz (V/m) @ t=0.06
-0.6357753516882063
% V (V) @ t=0.06
0.010128022781914553
% es.normE (V/m) @ t=0.08
1.0101172108083516
% es.EX (V/m) @ t=0.08
-0.7231505915353917
% es.EY (V/m) @ t=0.08
0.27540078134374
% es.EZ (V/m) @ t=0.08
-0.6453019823810395
% es.tEX (V/m) @ t=0.08
-0.7231505915353917
% es.tEY (V/m) @ t=0.08
0
% es.tEZ (V/m) @ t=0.08
-0.6453019823810422
% es.Ex (V/m) @ t=0.08
-0.7231505915353917
% es.Ey (V/m) @ t=0.08
0.27540078134374
% es.Ez (V/m) @ t=0.08
-0.6453019823810395
% es.tEx (V/m) @ t=0.08
-0.7231505915353917
% es.tEy (V/m) @ t=0.08
0
% es.tEz (V/m) @ t=0.08
-0.6453019823810422
% V (V) @ t=0.08
0.010279784324962293
% es.normE (V/m) @ t=0.1
1.0252911957968456
% es.EX (V/m) @ t=0.1
-0.7340137691266944
% es.EY (V/m) @ t=0.1
0.27953783486529105
% es.EZ (V/m) @ t=0.1
-0.6549957137924682
% es.tEX (V/m) @ t=0.1
-0.734013769126685
% es.tEY (V/m) @ t=0.1
0
% es.tEZ (V/m) @ t=0.1
-0.6549957137924771
% es.Ex (V/m) @ t=0.1
-0.7340137691266944
% es.Ey (V/m) @ t=0.1
0.27953783486529105
% es.Ez (V/m) @ t=0.1
-0.6549957137924682
% es.tEx (V/m) @ t=0.1
-0.734013769126685
% es.tEy (V/m) @ t=0.1
0
% es.tEz (V/m) @ t=0.1
-0.6549957137924771
% V (V) @ t=0.1
0.010434207700818869
% es.normE (V/m) @ t=0.12
1.0404651807853376
% es.EX (V/m) @ t=0.12
-0.7448769467179965
% es.EY (V/m) @ t=0.12
0.2836748883868254
% es.EZ (V/m) @ t=0.12
-0.6646894452039014
% es.tEX (V/m) @ t=0.12
-0.7448769467179952
% es.tEY (V/m) @ t=0.12
0
% es.tEZ (V/m) @ t=0.12
-0.6646894452039014
% es.Ex (V/m) @ t=0.12
-0.7448769467179965
% es.Ey (V/m) @ t=0.12
0.2836748883868254
% es.Ez (V/m) @ t=0.12
-0.6646894452039014
% es.tEx (V/m) @ t=0.12
-0.7448769467179952
% es.tEy (V/m) @ t=0.12
0
% es.tEz (V/m) @ t=0.12
-0.6646894452039014
% V (V) @ t=0.12
0.010588631076675445
% es.normE (V/m) @ t=0.14
1.0558854438155343
% es.EX (V/m) @ t=0.14
-0.7559164033912025
% es.EY (V/m) @ t=0.14
0.28787918228467735
% es.EZ (V/m) @ t=0.14
-0.6745404966697794
% es.tEX (V/m) @ t=0.14
-0.755916403391208
% es.tEY (V/m) @ t=0.14
0
% es.tEZ (V/m) @ t=0.14
-0.6745404966697741
% es.Ex (V/m) @ t=0.14
-0.7559164033912025
% es.Ey (V/m) @ t=0.14
0.28787918228467735
% es.Ez (V/m) @ t=0.14
-0.6745404966697794
% es.tEx (V/m) @ t=0.14
-0.755916403391208
% es.tEy (V/m) @ t=0.14
0
% es.tEz (V/m) @ t=0.14
-0.6745404966697741
% V (V) @ t=0.14
0.01074555863452231
% es.normE (V/m) @ t=0.16
1.072425220698998
% es.EX (V/m) @ t=0.16
-0.7677571774406038
% es.EY (V/m) @ t=0.16
0.29238913287943635
% es.EZ (V/m) @ t=0.16
-0.6851066828634345
% es.tEX (V/m) @ t=0.16
-0.7677571774406009
% es.tEY (V/m) @ t=0.16
0
% es.tEZ (V/m) @ t=0.16
-0.6851066828634362
% es.Ex (V/m) @ t=0.16
-0.7677571774406038
% es.Ey (V/m) @ t=0.16
0.29238913287943635
% es.Ez (V/m) @ t=0.16
-0.6851066828634345
% es.tEx (V/m) @ t=0.16
-0.7677571774406009
% es.tEy (V/m) @ t=0.16
0
% es.tEz (V/m) @ t=0.16
-0.6851066828634362
% V (V) @ t=0.16
0.010913869531335614
% es.normE (V/m) @ t=0.18
1.0889649975828832
% es.EX (V/m) @ t=0.18
-0.7795979514900098
% es.EY (V/m) @ t=0.18
0.2968990834741918
% es.EZ (V/m) @ t=0.18
-0.6956728690570957
% es.tEX (V/m) @ t=0.18
-0.7795979514900067
% es.tEY (V/m) @ t=0.18
0
% es.tEZ (V/m) @ t=0.18
-0.6956728690570948
% es.Ex (V/m) @ t=0.18
-0.7795979514900098
% es.Ey (V/m) @ t=0.18
0.2968990834741918
% es.Ez (V/m) @ t=0.18
-0.6956728690570957
% es.tEx (V/m) @ t=0.18
-0.7795979514900067
% es.tEy (V/m) @ t=0.18
0
% es.tEz (V/m) @ t=0.18
-0.6956728690570948
% V (V) @ t=0.18
0.011082180428148916
% es.normE (V/m) @ t=0.2
1.1055047744671542
% es.EX (V/m) @ t=0.2
-0.791438725539404
% es.EY (V/m) @ t=0.2
0.30140903406894015
% es.EZ (V/m) @ t=0.2
-0.7062390552507551
% es.tEX (V/m) @ t=0.2
-0.7914387255394026
% es.tEY (V/m) @ t=0.2
0
% es.tEZ (V/m) @ t=0.2
-0.7062390552507551
% es.Ex (V/m) @ t=0.2
-0.791438725539404
% es.Ey (V/m) @ t=0.2
0.30140903406894015
% es.Ez (V/m) @ t=0.2
-0.7062390552507551
% es.tEx (V/m) @ t=0.2
-0.7914387255394026
% es.tEy (V/m) @ t=0.2
0
% es.tEz (V/m) @ t=0.2
-0.7062390552507551
% V (V) @ t=0.2
0.011250491324962218
% es.normE (V/m) @ t=0.22
1.122044551351802
% es.EX (V/m) @ t=0.22
-0.8032794995887926
% es.EY (V/m) @ t=0.22
0.3059189846636936
% es.EZ (V/m) @ t=0.22
-0.716805241444411
% es.tEX (V/m) @ t=0.22
-0.8032794995887946
% es.tEY (V/m) @ t=0.22
0
% es.tEZ (V/m) @ t=0.22
-0.7168052414444226
% es.Ex (V/m) @ t=0.22
-0.8032794995887926
% es.Ey (V/m) @ t=0.22
0.3059189846636936
% es.Ez (V/m) @ t=0.22
-0.716805241444411
% es.tEx (V/m) @ t=0.22
-0.8032794995887946
% es.tEy (V/m) @ t=0.22
0
% es.tEz (V/m) @ t=0.22
-0.7168052414444226
% V (V) @ t=0.22
0.011418802221775522
% es.normE (V/m) @ t=0.24
1.1385843282368222
% es.EX (V/m) @ t=0.24
-0.8151202736381948
% es.EY (V/m) @ t=0.24
0.3104289352584526
% es.EZ (V/m) @ t=0.24
-0.7273714276380652
% es.tEX (V/m) @ t=0.24
-0.8151202736381986
% es.tEY (V/m) @ t=0.24
0
% es.tEZ (V/m) @ t=0.24
-0.7273714276380563
% es.Ex (V/m) @ t=0.24
-0.8151202736381948
% es.Ey (V/m) @ t=0.24
0.3104289352584526
% es.Ez (V/m) @ t=0.24
-0.7273714276380652
% es.tEx (V/m) @ t=0.24
-0.8151202736381986
% es.tEy (V/m) @ t=0.24
0
% es.tEz (V/m) @ t=0.24
-0.7273714276380563
% V (V) @ t=0.24
0.011587113118588822
% es.normE (V/m) @ t=0.26
1.1551241051221846
% es.EX (V/m) @ t=0.26
-0.8269610476875939
% es.EY (V/m) @ t=0.26
0.3149388858532076
% es.EZ (V/m) @ t=0.26
-0.7379376138317184
% es.tEX (V/m) @ t=0.26
-0.8269610476876013
% es.tEY (V/m) @ t=0.26
0
% es.tEZ (V/m) @ t=0.26
-0.7379376138317237
% es.Ex (V/m) @ t=0.26
-0.8269610476875939
% es.Ey (V/m) @ t=0.26
0.3149388858532076
% es.Ez (V/m) @ t=0.26
-0.7379376138317184
% es.tEx (V/m) @ t=0.26
-0.8269610476876013
% es.tEy (V/m) @ t=0.26
0
% es.tEz (V/m) @ t=0.26
-0.7379376138317237
% V (V) @ t=0.26
0.011755424015402126
% es.normE (V/m) @ t=0.28
1.1722111492159475
% es.EX (V/m) @ t=0.28
-0.8391937013510298
% es.EY (V/m) @ t=0.28
0.31959779757413975
% es.EZ (V/m) @ t=0.28
-0.7488534466366392
% es.tEX (V/m) @ t=0.28
-0.8391937013510304
% es.tEY (V/m) @ t=0.28
0
% es.tEZ (V/m) @ t=0.28
-0.7488534466366357
% es.Ex (V/m) @ t=0.28
-0.8391937013510298
% es.Ey (V/m) @ t=0.28
0.31959779757413975
% es.Ez (V/m) @ t=0.28
-0.7488534466366392
% es.tEx (V/m) @ t=0.28
-0.8391937013510304
% es.tEy (V/m) @ t=0.28
0
% es.tEz (V/m) @ t=0.28
-0.7488534466366357
% V (V) @ t=0.28
0.011929309961708158
% es.normE (V/m) @ t=0.3
1.1902275806797424
% es.EX (V/m) @ t=0.3
-0.8520918580053778
% es.EY (V/m) @ t=0.3
0.3245096800326257
% es.EZ (V/m) @ t=0.3
-0.760363060942912
% es.tEX (V/m) @ t=0.3
-0.8520918580053811
% es.tEY (V/m) @ t=0.3
0
% es.tEZ (V/m) @ t=0.3
-0.7603630609429057
% es.Ex (V/m) @ t=0.3
-0.8520918580053778
% es.Ey (V/m) @ t=0.3
0.3245096800326257
% es.Ez (V/m) @ t=0.3
-0.760363060942912
% es.tEx (V/m) @ t=0.3
-0.8520918580053811
% es.tEy (V/m) @ t=0.3
0
% es.tEz (V/m) @ t=0.3
-0.7603630609429057
% V (V) @ t=0.3
0.01211266364243863
% es.normE (V/m) @ t=0.32
1.2082440121436044
% es.EX (V/m) @ t=0.32
-0.8649900146597285
% es.EY (V/m) @ t=0.32
0.32942156249111765
% es.EZ (V/m) @ t=0.32
-0.7718726752491802
% es.tEX (V/m) @ t=0.32
-0.8649900146597269
% es.tEY (V/m) @ t=0.32
0
% es.tEZ (V/m) @ t=0.32
-0.7718726752491882
% es.Ex (V/m) @ t=0.32
-0.8649900146597285
% es.Ey (V/m) @ t=0.32
0.32942156249111765
% es.Ez (V/m) @ t=0.32
-0.7718726752491802
% es.tEx (V/m) @ t=0.32
-0.8649900146597269
% es.tEy (V/m) @ t=0.32
0
% es.tEz (V/m) @ t=0.32
-0.7718726752491882
% V (V) @ t=0.32
0.012296017323169105
% es.normE (V/m) @ t=0.34
1.2262604436075377
% es.EX (V/m) @ t=0.34
-0.8778881713140831
% es.EY (V/m) @ t=0.34
0.3343334449496105
% es.EZ (V/m) @ t=0.34
-0.7833822895554547
% es.tEX (V/m) @ t=0.34
-0.8778881713140883
% es.tEY (V/m) @ t=0.34
0
% es.tEZ (V/m) @ t=0.34
-0.7833822895554565
% es.Ex (V/m) @ t=0.34
-0.8778881713140831
% es.Ey (V/m) @ t=0.34
0.3343334449496105
% es.Ez (V/m) @ t=0.34
-0.7833822895554547
% es.tEx (V/m) @ t=0.34
-0.8778881713140883
% es.tEy (V/m) @ t=0.34
0
% es.tEz (V/m) @ t=0.34
-0.7833822895554565
% V (V) @ t=0.34
0.012479371003899582
% es.normE (V/m) @ t=0.36
1.2442768750715176
% es.EX (V/m) @ t=0.36
-0.8907863279684303
% es.EY (V/m) @ t=0.36
0.33924532740810687
% es.EZ (V/m) @ t=0.36
-0.794891903861715
% es.tEX (V/m) @ t=0.36
-0.8907863279684274
% es.tEY (V/m) @ t=0.36
0
% es.tEZ (V/m) @ t=0.36
-0.7948919038617248
% es.Ex (V/m) @ t=0.36
-0.8907863279684303
% es.Ey (V/m) @ t=0.36
0.33924532740810687
% es.Ez (V/m) @ t=0.36
-0.794891903861715
% es.tEx (V/m) @ t=0.36
-0.8907863279684274
% es.tEy (V/m) @ t=0.36
0
% es.tEz (V/m) @ t=0.36
-0.7948919038617248
% V (V) @ t=0.36
0.012662724684630056
% es.normE (V/m) @ t=0.38
1.2622933065355653
% es.EX (V/m) @ t=0.38
-0.903684484622785
% es.EY (V/m) @ t=0.38
0.3441572098665979
% es.EZ (V/m) @ t=0.38
-0.806401518167986
% es.tEX (V/m) @ t=0.38
-0.9036844846227812
% es.tEY (V/m) @ t=0.38
0
% es.tEZ (V/m) @ t=0.38
-0.806401518167986
% es.Ex (V/m) @ t=0.38
-0.903684484622785
% es.Ey (V/m) @ t=0.38
0.3441572098665979
% es.Ez (V/m) @ t=0.38
-0.806401518167986
% es.tEx (V/m) @ t=0.38
-0.9036844846227812
% es.tEy (V/m) @ t=0.38
0
% es.tEz (V/m) @ t=0.38
-0.806401518167986
% V (V) @ t=0.38
0.012846078365360532
% es.normE (V/m) @ t=0.4
1.280309737999668
% es.EX (V/m) @ t=0.4
-0.9165826412771361
% es.EY (V/m) @ t=0.4
0.34906909232509564
% es.EZ (V/m) @ t=0.4
-0.8179111324742578
% es.tEX (V/m) @ t=0.4
-0.9165826412771385
% es.tEY (V/m) @ t=0.4
0
% es.tEZ (V/m) @ t=0.4
-0.8179111324742632
% es.Ex (V/m) @ t=0.4
-0.9165826412771361
% es.Ey (V/m) @ t=0.4
0.34906909232509564
% es.Ez (V/m) @ t=0.4
-0.8179111324742578
% es.tEx (V/m) @ t=0.4
-0.9165826412771385
% es.tEy (V/m) @ t=0.4
0
% es.tEz (V/m) @ t=0.4
-0.8179111324742632
% V (V) @ t=0.4
0.01302943204609101
% es.normE (V/m) @ t=0.42
1.2992156282598737
% es.EX (V/m) @ t=0.42
-0.9301174456584627
% es.EY (V/m) @ t=0.42
0.3542238279643781
% es.EZ (V/m) @ t=0.42
-0.8299889234310367
% es.tEX (V/m) @ t=0.42
-0.9301174456584609
% es.tEY (V/m) @ t=0.42
0
% es.tEZ (V/m) @ t=0.42
-0.8299889234310367
% es.Ex (V/m) @ t=0.42
-0.9301174456584627
% es.Ey (V/m) @ t=0.42
0.3542238279643781
% es.Ez (V/m) @ t=0.42
-0.8299889234310367
% es.tEx (V/m) @ t=0.42
-0.9301174456584609
% es.tEy (V/m) @ t=0.42
0
% es.tEz (V/m) @ t=0.42
-0.8299889234310367
% V (V) @ t=0.42
0.013221829673588297
% es.normE (V/m) @ t=0.44
1.3188178109359703
% es.EX (V/m) @ t=0.44
-0.9441506351091282
% es.EY (V/m) @ t=0.44
0.3595686756456167
% es.EZ (V/m) @ t=0.44
-0.8425114984455728
% es.tEX (V/m) @ t=0.44
-0.9441506351091258
% es.tEY (V/m) @ t=0.44
0
% es.tEZ (V/m) @ t=0.44
-0.8425114984455764
% es.Ex (V/m) @ t=0.44
-0.9441506351091282
% es.Ey (V/m) @ t=0.44
0.3595686756456167
% es.Ez (V/m) @ t=0.44
-0.8425114984455728
% es.tEx (V/m) @ t=0.44
-0.9441506351091258
% es.tEy (V/m) @ t=0.44
0
% es.tEz (V/m) @ t=0.44
-0.8425114984455764
% V (V) @ t=0.44
0.01342130714735789
% es.normE (V/m) @ t=0.46
1.3384199936123053
% es.EX (V/m) @ t=0.46
-0.9581838245597993
% es.EY (V/m) @ t=0.46
0.36491352332681304
% es.EZ (V/m) @ t=0.46
-0.8550340734601214
% es.tEX (V/m) @ t=0.46
-0.9581838245597978
% es.tEY (V/m) @ t=0.46
0
% es.tEZ (V/m) @ t=0.46
-0.8550340734601374
% es.Ex (V/m) @ t=0.46
-0.9581838245597993
% es.Ey (V/m) @ t=0.46
0.36491352332681304
% es.Ez (V/m) @ t=0.46
-0.8550340734601214
% es.tEx (V/m) @ t=0.46
-0.9581838245597978
% es.tEy (V/m) @ t=0.46
0
% es.tEz (V/m) @ t=0.46
-0.8550340734601374
% V (V) @ t=0.46
0.013620784621127487
% es.normE (V/m) @ t=0.48
1.3580221762888698
% es.EX (V/m) @ t=0.48
-0.9722170140104669
% es.EY (V/m) @ t=0.48
0.3702583710080285
% es.EZ (V/m) @ t=0.48
-0.8675566484746708
% es.tEX (V/m) @ t=0.48
-0.972217014010472
% es.tEY (V/m) @ t=0.48
0
% es.tEZ (V/m) @ t=0.48
-0.86755664847467
% es.Ex (V/m) @ t=0.48
-0.9722170140104669
% es.Ey (V/m) @ t=0.48
0.3702583710080285
% es.Ez (V/m) @ t=0.48
-0.8675566484746708
% es.tEx (V/m) @ t=0.48
-0.972217014010472
% es.tEy (V/m) @ t=0.48
0
% es.tEz (V/m) @ t=0.48
-0.86755664847467
% V (V) @ t=0.48
0.013820262094897081
% es.normE (V/m) @ t=0.5
1.3776243589656305
% es.EX (V/m) @ t=0.5
-0.9862502034611256
% es.EY (V/m) @ t=0.5
0.37560321868922175
% es.EZ (V/m) @ t=0.5
-0.8800792234892061
% es.tEX (V/m) @ t=0.5
-0.9862502034611227
% es.tEY (V/m) @ t=0.5
0
% es.tEZ (V/m) @ t=0.5
-0.8800792234892043
% es.Ex (V/m) @ t=0.5
-0.9862502034611256
% es.Ey (V/m) @ t=0.5
0.37560321868922175
% es.Ez (V/m) @ t=0.5
-0.8800792234892061
% es.tEx (V/m) @ t=0.5
-0.9862502034611227
% es.tEy (V/m) @ t=0.5
0
% es.tEz (V/m) @ t=0.5
-0.8800792234892043
% V (V) @ t=0.5
0.014019739568666676
% es.normE (V/m) @ t=0.52
1.3972265416426253
% es.EX (V/m) @ t=0.52
-1.0002833929117927
% es.EY (V/m) @ t=0.52
0.38094806637044476
% es.EZ (V/m) @ t=0.52
-0.8926017985037591
% es.tEX (V/m) @ t=0.52
-1.0002833929117907
% es.tEY (V/m) @ t=0.52
0
% es.tEZ (V/m) @ t=0.52
-0.8926017985037564
% es.Ex (V/m) @ t=0.52
-1.0002833929117927
% es.Ey (V/m) @ t=0.52
0.38094806637044476
% es.Ez (V/m) @ t=0.52
-0.8926017985037591
% es.tEx (V/m) @ t=0.52
-1.0002833929117907
% es.tEy (V/m) @ t=0.52
0
% es.tEz (V/m) @ t=0.52
-0.8926017985037564
% V (V) @ t=0.52
0.014219217042436269
% es.normE (V/m) @ t=0.54
1.4168287243198128
% es.EX (V/m) @ t=0.54
-1.014316582362471
% es.EY (V/m) @ t=0.54
0.3862929140516589
% es.EZ (V/m) @ t=0.54
-0.9051243735182961
% es.tEX (V/m) @ t=0.54
-1.014316582362469
% es.tEY (V/m) @ t=0.54
0
% es.tEZ (V/m) @ t=0.54
-0.9051243735182961
% es.Ex (V/m) @ t=0.54
-1.014316582362471
% es.Ey (V/m) @ t=0.54
0.3862929140516589
% es.Ez (V/m) @ t=0.54
-0.9051243735182961
% es.tEx (V/m) @ t=0.54
-1.014316582362469
% es.tEy (V/m) @ t=0.54
0
% es.tEz (V/m) @ t=0.54
-0.9051243735182961
% V (V) @ t=0.54
0.014418694516205867
% es.normE (V/m) @ t=0.56
1.4369906089172402
% es.EX (V/m) @ t=0.56
-1.0287505517841715
% es.EY (V/m) @ t=0.56
0.3917901180736436
% es.EZ (V/m) @ t=0.56
-0.918004538285146
% es.tEX (V/m) @ t=0.56
-1.0287505517841677
% es.tEY (V/m) @ t=0.56
0
% es.tEZ (V/m) @ t=0.56
-0.9180045382851496
% es.Ex (V/m) @ t=0.56
-1.0287505517841715
% es.Ey (V/m) @ t=0.56
0.3917901180736436
% es.Ez (V/m) @ t=0.56
-0.918004538285146
% es.tEx (V/m) @ t=0.56
-1.0287505517841677
% es.tEy (V/m) @ t=0.56
0
% es.tEz (V/m) @ t=0.56
-0.9180045382851496
% V (V) @ t=0.56
0.014623873473826182
% es.normE (V/m) @ t=0.58
1.4575104367833671
% es.EX (V/m) @ t=0.58
-1.043440829944
% es.EY (V/m) @ t=0.58
0.39738475775679794
% es.EZ (V/m) @ t=0.58
-0.9311133905732927
% es.tEX (V/m) @ t=0.58
-1.043440829943998
% es.tEY (V/m) @ t=0.58
0
% es.tEZ (V/m) @ t=0.58
-0.9311133905732962
% es.Ex (V/m) @ t=0.58
-1.043440829944
% es.Ey (V/m) @ t=0.58
0.39738475775679794
% es.Ez (V/m) @ t=0.58
-0.9311133905732927
% es.tEx (V/m) @ t=0.58
-1.043440829943998
% es.tEy (V/m) @ t=0.58
0
% es.tEz (V/m) @ t=0.58
-0.9311133905732962
% V (V) @ t=0.58
0.01483269867186954
% es.normE (V/m) @ t=0.6
1.4782273511108646
% es.EX (V/m) @ t=0.6
-1.0582722337699024
% es.EY (V/m) @ t=0.6
0.4030330463037135
% es.EZ (V/m) @ t=0.6
-0.9443481600619652
% es.tEX (V/m) @ t=0.6
-1.058272233769903
% es.tEY (V/m) @ t=0.6
0
% es.tEZ (V/m) @ t=0.6
-0.944348160061967
% es.Ex (V/m) @ t=0.6
-1.0582722337699024
% es.Ey (V/m) @ t=0.6
0.4030330463037135
% es.Ez (V/m) @ t=0.6
-0.9443481600619652
% es.tEx (V/m) @ t=0.6
-1.058272233769903
% es.tEy (V/m) @ t=0.6
0
% es.tEz (V/m) @ t=0.6
-0.944348160061967
% V (V) @ t=0.6
0.015043531519406756
% es.normE (V/m) @ t=0.62
1.4991413518997438
% es.EX (V/m) @ t=0.62
-1.0732447632618716
% es.EY (V/m) @ t=0.62
0.40873498371441697
% es.EZ (V/m) @ t=0.62
-0.9577088467511352
% es.tEX (V/m) @ t=0.62
-1.0732447632618696
% es.tEY (V/m) @ t=0.62
0
% es.tEZ (V/m) @ t=0.62
-0.9577088467511423
% es.Ex (V/m) @ t=0.62
-1.0732447632618716
% es.Ey (V/m) @ t=0.62
0.40873498371441697
% es.Ez (V/m) @ t=0.62
-0.9577088467511352
% es.tEx (V/m) @ t=0.62
-1.0732447632618696
% es.tEy (V/m) @ t=0.62
0
% es.tEz (V/m) @ t=0.62
-0.9577088467511423
% V (V) @ t=0.62
0.015256372016437827
% es.normE (V/m) @ t=0.64
1.5202524391500507
% es.EX (V/m) @ t=0.64
-1.0883584184198891
% es.EY (V/m) @ t=0.64
0.41449056998888834
% es.EZ (V/m) @ t=0.64
-0.9711954506408063
% es.tEX (V/m) @ t=0.64
-1.0883584184198871
% es.tEY (V/m) @ t=0.64
0
% es.tEZ (V/m) @ t=0.64
-0.9711954506408134
% es.Ex (V/m) @ t=0.64
-1.0883584184198891
% es.Ey (V/m) @ t=0.64
0.41449056998888834
% es.Ez (V/m) @ t=0.64
-0.9711954506408063
% es.tEx (V/m) @ t=0.64
-1.0883584184198871
% es.tEy (V/m) @ t=0.64
0
% es.tEz (V/m) @ t=0.64
-0.9711954506408134
% V (V) @ t=0.64
0.01547122016296276
% es.normE (V/m) @ t=0.66
1.5415606128618957
% es.EX (V/m) @ t=0.66
-1.1036131992439848
% es.EY (V/m) @ t=0.66
0.4202998051271436
% es.EZ (V/m) @ t=0.66
-0.984807971730997
% es.tEX (V/m) @ t=0.66
-1.1036131992439873
% es.tEY (V/m) @ t=0.66
0
% es.tEZ (V/m) @ t=0.66
-0.9848079717310103
% es.Ex (V/m) @ t=0.66
-1.1036131992439848
% es.Ey (V/m) @ t=0.66
0.4202998051271436
% es.Ez (V/m) @ t=0.66
-0.984807971730997
% es.tEx (V/m) @ t=0.66
-1.1036131992439873
% es.tEy (V/m) @ t=0.66
0
% es.tEz (V/m) @ t=0.66
-0.9848079717310103
% V (V) @ t=0.66
0.015688075958981553
% es.normE (V/m) @ t=0.68
1.5630658730353781
% es.EX (V/m) @ t=0.68
-1.1190091057341618
% es.EY (V/m) @ t=0.68
0.42616268912919875
% es.EZ (V/m) @ t=0.68
-0.9985464100216976
% es.tEX (V/m) @ t=0.68
-1.1190091057341607
% es.tEY (V/m) @ t=0.68
0
% es.tEZ (V/m) @ t=0.68
-0.9985464100216905
% es.Ex (V/m) @ t=0.68
-1.1190091057341618
% es.Ey (V/m) @ t=0.68
0.42616268912919875
% es.Ez (V/m) @ t=0.68
-0.9985464100216976
% es.tEx (V/m) @ t=0.68
-1.1190091057341607
% es.tEy (V/m) @ t=0.68
0
% es.tEz (V/m) @ t=0.68
-0.9985464100216905
% V (V) @ t=0.68
0.0159069394044942
% es.normE (V/m) @ t=0.7
1.584768219670579
% es.EX (V/m) @ t=0.7
-1.134546137890397
% es.EY (V/m) @ t=0.7
0.43207922199502713
% es.EZ (V/m) @ t=0.7
-1.012410765512879
% es.tEX (V/m) @ t=0.7
-1.134546137890398
% es.tEY (V/m) @ t=0.7
0
% es.tEZ (V/m) @ t=0.7
-1.012410765512886
% es.Ex (V/m) @ t=0.7
-1.134546137890397
% es.Ey (V/m) @ t=0.7
0.43207922199502713
% es.Ez (V/m) @ t=0.7
-1.012410765512879
% es.tEx (V/m) @ t=0.7
-1.134546137890398
% es.tEy (V/m) @ t=0.7
0
% es.tEz (V/m) @ t=0.7
-1.012410765512886
% V (V) @ t=0.7
0.016127810499500708
% es.normE (V/m) @ t=0.72
1.6066676527676826
% es.EX (V/m) @ t=0.72
-1.1502242957127151
% es.EY (V/m) @ t=0.72
0.43804940372464074
% es.EZ (V/m) @ t=0.72
-1.0264010382045878
% es.tEX (V/m) @ t=0.72
-1.150224295712702
% es.tEY (V/m) @ t=0.72
0
% es.tEZ (V/m) @ t=0.72
-1.0264010382045825
% es.Ex (V/m) @ t=0.72
-1.1502242957127151
% es.Ey (V/m) @ t=0.72
0.43804940372464074
% es.Ez (V/m) @ t=0.72
-1.0264010382045878
% es.tEx (V/m) @ t=0.72
-1.150224295712702
% es.tEy (V/m) @ t=0.72
0
% es.tEz (V/m) @ t=0.72
-1.0264010382045825
% V (V) @ t=0.72
0.01635068924400107
% es.normE (V/m) @ t=0.74
1.6287641723267818
% es.EX (V/m) @ t=0.74
-1.1660435792010755
% es.EY (V/m) @ t=0.74
0.4440732343180187
% es.EZ (V/m) @ t=0.74
-1.0405172280967774
% es.tEX (V/m) @ t=0.74
-1.166043579201077
% es.tEY (V/m) @ t=0.74
0
% es.tEZ (V/m) @ t=0.74
-1.0405172280967872
% es.Ex (V/m) @ t=0.74
-1.1660435792010755
% es.Ey (V/m) @ t=0.74
0.4440732343180187
% es.Ez (V/m) @ t=0.74
-1.0405172280967774
% es.tEx (V/m) @ t=0.74
-1.166043579201077
% es.tEy (V/m) @ t=0.74
0
% es.tEz (V/m) @ t=0.74
-1.0405172280967872
% V (V) @ t=0.74
0.01657557563799529
% es.normE (V/m) @ t=0.76
1.651057778348119
% es.EX (V/m) @ t=0.76
-1.182003988355526
% es.EY (V/m) @ t=0.76
0.45015071377517346
% es.EZ (V/m) @ t=0.76
-1.0547593351895035
% es.tEX (V/m) @ t=0.76
-1.18200398835552
% es.tEY (V/m) @ t=0.76
0
% es.tEZ (V/m) @ t=0.76
-1.0547593351895017
% es.Ex (V/m) @ t=0.76
-1.182003988355526
% es.Ey (V/m) @ t=0.76
0.45015071377517346
% es.Ez (V/m) @ t=0.76
-1.0547593351895035
% es.tEx (V/m) @ t=0.76
-1.18200398835552
% es.tEy (V/m) @ t=0.76
0
% es.tEz (V/m) @ t=0.76
-1.0547593351895017
% V (V) @ t=0.76
0.016802469681483374
% es.normE (V/m) @ t=0.78
1.6735484708318298
% es.EX (V/m) @ t=0.78
-1.1981055231760347
% es.EY (V/m) @ t=0.78
0.45628184209613387
% es.EZ (V/m) @ t=0.78
-1.0691273594827182
% es.tEX (V/m) @ t=0.78
-1.1981055231760287
% es.tEY (V/m) @ t=0.78
0
% es.tEZ (V/m) @ t=0.78
-1.0691273594827138
% es.Ex (V/m) @ t=0.78
-1.1981055231760347
% es.Ey (V/m) @ t=0.78
0.45628184209613387
% es.Ez (V/m) @ t=0.78
-1.0691273594827182
% es.tEx (V/m) @ t=0.78
-1.1981055231760287
% es.tEy (V/m) @ t=0.78
0
% es.tEz (V/m) @ t=0.78
-1.0691273594827138
% V (V) @ t=0.78
0.017031371374465316
% es.normE (V/m) @ t=0.8
1.6962362497781296
% es.EX (V/m) @ t=0.8
-1.214348183662622
% es.EY (V/m) @ t=0.8
0.4624666192808937
% es.EZ (V/m) @ t=0.8
-1.083621300976425
% es.tEX (V/m) @ t=0.8
-1.21434818366262
% es.tEY (V/m) @ t=0.8
0
% es.tEZ (V/m) @ t=0.8
-1.0836213009764357
% es.Ex (V/m) @ t=0.8
-1.214348183662622
% es.Ey (V/m) @ t=0.8
0.4624666192808937
% es.Ez (V/m) @ t=0.8
-1.083621300976425
% es.tEx (V/m) @ t=0.8
-1.21434818366262
% es.tEy (V/m) @ t=0.8
0
% es.tEz (V/m) @ t=0.8
-1.0836213009764357
% V (V) @ t=0.8
0.017262280716941112
% es.normE (V/m) @ t=0.82
1.719171189471266
% es.EX (V/m) @ t=0.82
-1.2307677221574338
% es.EY (V/m) @ t=0.82
0.46871897149804376
% es.EZ (V/m) @ t=0.82
-1.098273114553109
% es.tEX (V/m) @ t=0.82
-1.2307677221574398
% es.tEY (V/m) @ t=0.82
0
% es.tEZ (V/m) @ t=0.82
-1.098273114553118
% es.Ex (V/m) @ t=0.82
-1.2307677221574338
% es.Ey (V/m) @ t=0.82
0.46871897149804376
% es.Ez (V/m) @ t=0.82
-1.098273114553109
% es.tEx (V/m) @ t=0.82
-1.2307677221574398
% es.tEy (V/m) @ t=0.82
0
% es.tEz (V/m) @ t=0.82
-1.098273114553118
% V (V) @ t=0.82
0.017495701093101623
% es.normE (V/m) @ t=0.84
1.7426643718205626
% es.EX (V/m) @ t=0.84
-1.2475862468157184
% es.EY (V/m) @ t=0.84
0.4751254137964036
% es.EZ (V/m) @ t=0.84
-1.1132813169965727
% es.tEX (V/m) @ t=0.84
-1.247586246815716
% es.tEY (V/m) @ t=0.84
0
% es.tEZ (V/m) @ t=0.84
-1.113281316996563
% es.Ex (V/m) @ t=0.84
-1.2475862468157184
% es.Ey (V/m) @ t=0.84
0.4751254137964036
% es.Ez (V/m) @ t=0.84
-1.1132813169965727
% es.tEx (V/m) @ t=0.84
-1.247586246815716
% es.tEy (V/m) @ t=0.84
0
% es.tEz (V/m) @ t=0.84
-1.113281316996563
% V (V) @ t=0.84
0.01773475973118175
% es.normE (V/m) @ t=0.86
1.7664099024435393
% es.EX (V/m) @ t=0.86
-1.2645853533033613
% es.EY (V/m) @ t=0.86
0.48160087383093586
% es.EZ (V/m) @ t=0.86
-1.1284507019401975
% es.tEX (V/m) @ t=0.86
-1.2645853533033633
% es.tEY (V/m) @ t=0.86
0
% es.tEZ (V/m) @ t=0.86
-1.1284507019401921
% es.Ex (V/m) @ t=0.86
-1.2645853533033613
% es.Ey (V/m) @ t=0.86
0.48160087383093586
% es.Ez (V/m) @ t=0.86
-1.1284507019401975
% es.tEx (V/m) @ t=0.86
-1.2645853533033633
% es.tEy (V/m) @ t=0.86
0
% es.tEz (V/m) @ t=0.86
-1.1284507019401921
% V (V) @ t=0.86
0.01797638155183772
% es.normE (V/m) @ t=0.88
1.7904077813410644
% es.EX (V/m) @ t=0.88
-1.2817650416204216
% es.EY (V/m) @ t=0.88
0.48814535160163386
% es.EZ (V/m) @ t=0.88
-1.143781269383954
% es.tEX (V/m) @ t=0.88
-1.2817650416204223
% es.tEY (V/m) @ t=0.88
0
% es.tEZ (V/m) @ t=0.88
-1.1437812693839629
% es.Ex (V/m) @ t=0.88
-1.2817650416204216
% es.Ey (V/m) @ t=0.88
0.48814535160163386
% es.Ez (V/m) @ t=0.88
-1.143781269383954
% es.tEx (V/m) @ t=0.88
-1.2817650416204223
% es.tEy (V/m) @ t=0.88
0
% es.tEz (V/m) @ t=0.88
-1.1437812693839629
% V (V) @ t=0.88
0.018220566555069526
% es.normE (V/m) @ t=0.9
1.8146580085140447
% es.EX (V/m) @ t=0.9
-1.2991253117668238
% es.EY (V/m) @ t=0.9
0.49475884710850027
% es.EZ (V/m) @ t=0.9
-1.1592730193278635
% es.tEX (V/m) @ t=0.9
-1.299125311766817
% es.tEY (V/m) @ t=0.9
0
% es.tEZ (V/m) @ t=0.9
-1.1592730193278697
% es.Ex (V/m) @ t=0.9
-1.2991253117668238
% es.Ey (V/m) @ t=0.9
0.49475884710850027
% es.Ez (V/m) @ t=0.9
-1.1592730193278635
% es.tEx (V/m) @ t=0.9
-1.299125311766817
% es.tEy (V/m) @ t=0.9
0
% es.tEz (V/m) @ t=0.9
-1.1592730193278697
% V (V) @ t=0.9
0.018467314740877167
% es.normE (V/m) @ t=0.92
1.8391605839635683
% es.EX (V/m) @ t=0.92
-1.3166661637426706
% es.EY (V/m) @ t=0.92
0.50144136035156
% es.EZ (V/m) @ t=0.92
-1.1749259517719022
% es.tEX (V/m) @ t=0.92
-1.316666163742668
% es.tEY (V/m) @ t=0.92
0
% es.tEZ (V/m) @ t=0.92
-1.1749259517719217
% es.Ex (V/m) @ t=0.92
-1.3166661637426706
% es.Ey (V/m) @ t=0.92
0.50144136035156
% es.Ez (V/m) @ t=0.92
-1.1749259517719022
% es.tEx (V/m) @ t=0.92
-1.316666163742668
% es.tEy (V/m) @ t=0.92
0
% es.tEz (V/m) @ t=0.92
-1.1749259517719217
% V (V) @ t=0.92
0.018716626109260642
% es.normE (V/m) @ t=0.94
1.8639155076907037
% es.EX (V/m) @ t=0.94
-1.3343875975478787
% es.EY (V/m) @ t=0.94
0.5081928913307485
% es.EZ (V/m) @ t=0.94
-1.1907400667161205
% es.tEX (V/m) @ t=0.94
-1.3343875975478703
% es.tEY (V/m) @ t=0.94
0
% es.tEZ (V/m) @ t=0.94
-1.19074006671614
% es.Ex (V/m) @ t=0.94
-1.3343875975478787
% es.Ey (V/m) @ t=0.94
0.5081928913307485
% es.Ez (V/m) @ t=0.94
-1.1907400667161205
% es.tEx (V/m) @ t=0.94
-1.3343875975478703
% es.tEy (V/m) @ t=0.94
0
% es.tEz (V/m) @ t=0.94
-1.19074006671614
% V (V) @ t=0.94
0.01896850066021996
% es.normE (V/m) @ t=0.96
1.8889227796966321
% es.EX (V/m) @ t=0.96
-1.35228961318247
% es.EY (V/m) @ t=0.96
0.5150134400461681
% es.EZ (V/m) @ t=0.96
-1.2067153641604618
% es.tEX (V/m) @ t=0.96
-1.3522896131824682
% es.tEY (V/m) @ t=0.96
0
% es.tEZ (V/m) @ t=0.96
-1.206715364160475
% es.Ex (V/m) @ t=0.96
-1.35228961318247
% es.Ey (V/m) @ t=0.96
0.5150134400461681
% es.Ez (V/m) @ t=0.96
-1.2067153641604618
% es.tEx (V/m) @ t=0.96
-1.3522896131824682
% es.tEy (V/m) @ t=0.96
0
% es.tEz (V/m) @ t=0.96
-1.206715364160475
% V (V) @ t=0.96
0.019222938393755117
% es.normE (V/m) @ t=0.98
1.9141823999825869
% es.EX (V/m) @ t=0.98
-1.3703722106464205
% es.EY (V/m) @ t=0.98
0.5219030064976602
% es.EZ (V/m) @ t=0.98
-1.2228518441049996
% es.tEX (V/m) @ t=0.98
-1.370372210646421
% es.tEY (V/m) @ t=0.98
0
% es.tEZ (V/m) @ t=0.98
-1.222851844104996
% es.Ex (V/m) @ t=0.98
-1.3703722106464205
% es.Ey (V/m) @ t=0.98
0.5219030064976602
% es.Ez (V/m) @ t=0.98
-1.2228518441049996
% es.tEx (V/m) @ t=0.98
-1.370372210646421
% es.tEy (V/m) @ t=0.98
0
% es.tEz (V/m) @ t=0.98
-1.222851844104996
% V (V) @ t=0.98
0.0194799393098661
% es.normE (V/m) @ t=1
1.9396943685498869
% es.EX (V/m) @ t=1
-1.388635389939783
% es.EY (V/m) @ t=1
0.5288615906854011
% es.EZ (V/m) @ t=1
-1.2391495065496176
% es.tEX (V/m) @ t=1
-1.3886353899397799
% es.tEY (V/m) @ t=1
0
% es.tEZ (V/m) @ t=1
-1.2391495065496319
% es.Ex (V/m) @ t=1
-1.388635389939783
% es.Ey (V/m) @ t=1
0.5288615906854011
% es.Ez (V/m) @ t=1
-1.2391495065496176
% es.tEx (V/m) @ t=1
-1.3886353899397799
% es.tEy (V/m) @ t=1
0
% es.tEz (V/m) @ t=1
-1.2391495065496319
% V (V) @ t=1
0.019739503408552933
% es.normE (V/m) @ t=1.02
1.9654586853999412
% es.EX (V/m) @ t=1.02
-1.4070791510625358
% es.EY (V/m) @ t=1.02
0.5358891926093192
% es.EZ (V/m) @ t=1.02
-1.255608351494458
% es.tEX (V/m) @ t=1.02
-1.4070791510625336
% es.tEY (V/m) @ t=1.02
0
% es.tEZ (V/m) @ t=1.02
-1.2556083514944554
% es.Ex (V/m) @ t=1.02
-1.4070791510625358
% es.Ey (V/m) @ t=1.02
0.5358891926093192
% es.Ez (V/m) @ t=1.02
-1.255608351494458
% es.tEx (V/m) @ t=1.02
-1.4070791510625336
% es.tEy (V/m) @ t=1.02
0
% es.tEz (V/m) @ t=1.02
-1.2556083514944554
% V (V) @ t=1.02
0.020001630689815593
% es.normE (V/m) @ t=1.04
1.9914753505340723
% es.EX (V/m) @ t=1.04