% Model:              1 neuron.mph
% Version:            COMSOL 6.0.0.405
% Date:               Mar 16 2023, 18:44
% Dimension:          0
% Nodes:              14017
% Expressions:        14017
% Description:        Electric field norm, Electric field, X component, Electric field, Y component, Electric field, Z component, Tangential electric field, X component, Tangential electric field, Y component, Tangential electric field, Z component, Electric field, x component, Electric field, y component, Electric field, z component, Tangential electric field, x component, Tangential electric field, y component, Tangential electric field, z component, Electric potential
% Length unit:        mm
% x
2
% y
12.2
% z
1
% es.normE (V/m) @ t=0
1.1631321462577935
% es.EX (V/m) @ t=0
-0.7511347730105433
% es.EY (V/m) @ t=0
0.16688392210630476
% es.EZ (V/m) @ t=0
0.8566407561024203
% es.tEX (V/m) @ t=0
-0.7511347730105442
% es.tEY (V/m) @ t=0
0
% es.tEZ (V/m) @ t=0
0.8566407561024318
% es.Ex (V/m) @ t=0
-0.7511347730105433
% es.Ey (V/m) @ t=0
0.16688392210630476
% es.Ez (V/m) @ t=0
0.8566407561024203
% es.tEx (V/m) @ t=0
-0.7511347730105442
% es.tEy (V/m) @ t=0
0
% es.tEz (V/m) @ t=0
0.8566407561024318
% V (V) @ t=0
0.011256863527407786
% es.normE (V/m) @ t=0.02
1.0101898566595997
% es.EX (V/m) @ t=0.02
-0.652366743976031
% es.EY (V/m) @ t=0.02
0.14494005925673847
% es.EZ (V/m) @ t=0.02
0.7439995568496007
% es.tEX (V/m) @ t=0.02
-0.6523667439760288
% es.tEY (V/m) @ t=0.02
0
% es.tEZ (V/m) @ t=0.02
0.7439995568495936
% es.Ex (V/m) @ t=0.02
-0.652366743976031
% es.Ey (V/m) @ t=0.02
0.14494005925673847
% es.Ez (V/m) @ t=0.02
0.7439995568496007
% es.tEx (V/m) @ t=0.02
-0.6523667439760288
% es.tEy (V/m) @ t=0.02
0
% es.tEz (V/m) @ t=0.02
0.7439995568495936
% V (V) @ t=0.02
0.0097766784676571
% es.normE (V/m) @ t=0.04
1.0251695329400268
% es.EX (V/m) @ t=0.04
-0.6620404146436583
% es.EY (V/m) @ t=0.04
0.14708931224112665
% es.EZ (V/m) @ t=0.04
0.755032009489641
% es.tEX (V/m) @ t=0.04
-0.6620404146436594
% es.tEY (V/m) @ t=0.04
0
% es.tEZ (V/m) @ t=0.04
0.755032009489649
% es.Ex (V/m) @ t=0.04
-0.6620404146436583
% es.Ey (V/m) @ t=0.04
0.14708931224112665
% es.Ez (V/m) @ t=0.04
0.755032009489641
% es.tEx (V/m) @ t=0.04
-0.6620404146436594
% es.tEy (V/m) @ t=0.04
0
% es.tEz (V/m) @ t=0.04
0.755032009489649
% V (V) @ t=0.04
0.00992165246938267
% es.normE (V/m) @ t=0.06
1.0403721798841414
% es.EX (V/m) @ t=0.06
-0.6718580719200129
% es.EY (V/m) @ t=0.06
0.14927056175470288
% es.EZ (V/m) @ t=0.06
0.7662286817922173
% es.tEX (V/m) @ t=0.06
-0.6718580719200105
% es.tEY (V/m) @ t=0.06
0
% es.tEZ (V/m) @ t=0.06
0.7662286817922253
% es.Ex (V/m) @ t=0.06
-0.6718580719200129
% es.Ey (V/m) @ t=0.06
0.14927056175470288
% es.Ez (V/m) @ t=0.06
0.7662286817922173
% es.tEx (V/m) @ t=0.06
-0.6718580719200105
% es.tEy (V/m) @ t=0.06
0
% es.tEz (V/m) @ t=0.06
0.7662286817922253
% V (V) @ t=0.06
0.010068785195159875
% es.normE (V/m) @ t=0.08
1.0559670819234657
% es.EX (V/m) @ t=0.08
-0.6819290418999229
% es.EY (V/m) @ t=0.08
0.1515080916938194
% es.EZ (V/m) @ t=0.08
0.7777142480194641
% es.tEX (V/m) @ t=0.08
-0.6819290418999204
% es.tEY (V/m) @ t=0.08
0
% es.tEZ (V/m) @ t=0.08
0.7777142480194712
% es.Ex (V/m) @ t=0.08
-0.6819290418999229
% es.Ey (V/m) @ t=0.08
0.1515080916938194
% es.Ez (V/m) @ t=0.08
0.7777142480194641
% es.tEx (V/m) @ t=0.08
-0.6819290418999204
% es.tEy (V/m) @ t=0.08
0
% es.tEz (V/m) @ t=0.08
0.7777142480194712
% V (V) @ t=0.08
0.010219714217968474
% es.normE (V/m) @ t=0.1
1.0718264982772325
% es.EX (V/m) @ t=0.1
-0.6921708314228971
% es.EY (V/m) @ t=0.1
0.15378357392045305
% es.EZ (V/m) @ t=0.1
0.7893946277223494
% es.tEX (V/m) @ t=0.1
-0.6921708314228912
% es.tEY (V/m) @ t=0.1
0
% es.tEZ (V/m) @ t=0.1
0.7893946277223423
% es.Ex (V/m) @ t=0.1
-0.6921708314228971
% es.Ey (V/m) @ t=0.1
0.15378357392045305
% es.Ez (V/m) @ t=0.1
0.7893946277223494
% es.tEx (V/m) @ t=0.1
-0.6921708314228912
% es.tEy (V/m) @ t=0.1
0
% es.tEz (V/m) @ t=0.1
0.7893946277223423
% V (V) @ t=0.1
0.010373203245526404
% es.normE (V/m) @ t=0.12
1.0876859146309834
% es.EX (V/m) @ t=0.12
-0.7024126209458565
% es.EY (V/m) @ t=0.12
0.15605905614712023
% es.EZ (V/m) @ t=0.12
0.8010750074252151
% es.tEX (V/m) @ t=0.12
-0.7024126209458541
% es.tEY (V/m) @ t=0.12
0
% es.tEZ (V/m) @ t=0.12
0.8010750074252151
% es.Ex (V/m) @ t=0.12
-0.7024126209458565
% es.Ey (V/m) @ t=0.12
0.15605905614712023
% es.Ez (V/m) @ t=0.12
0.8010750074252151
% es.tEx (V/m) @ t=0.12
-0.7024126209458541
% es.tEy (V/m) @ t=0.12
0
% es.tEz (V/m) @ t=0.12
0.8010750074252151
% V (V) @ t=0.12
0.01052669227308433
% es.normE (V/m) @ t=0.14
1.1038361998500066
% es.EX (V/m) @ t=0.14
-0.7128422517256174
% es.EY (V/m) @ t=0.14
0.1583762689563385
% es.EZ (V/m) @ t=0.14
0.8129696093789356
% es.tEX (V/m) @ t=0.14
-0.712842251725615
% es.tEY (V/m) @ t=0.14
0
% es.tEZ (V/m) @ t=0.14
0.8129696093789329
% es.Ex (V/m) @ t=0.14
-0.7128422517256174
% es.Ey (V/m) @ t=0.14
0.1583762689563385
% es.Ez (V/m) @ t=0.14
0.8129696093789356
% es.tEx (V/m) @ t=0.14
-0.712842251725615
% es.tEy (V/m) @ t=0.14
0
% es.tEz (V/m) @ t=0.14
0.8129696093789329
% V (V) @ t=0.14
0.01068299602879095
% es.normE (V/m) @ t=0.16
1.1211183853585902
% es.EX (V/m) @ t=0.16
-0.7240028564883461
% es.EY (V/m) @ t=0.16
0.16085587404645807
% es.EZ (V/m) @ t=0.16
0.8256978455118942
% es.tEX (V/m) @ t=0.16
-0.7240028564883436
% es.tEY (V/m) @ t=0.16
0
% es.tEZ (V/m) @ t=0.16
0.8256978455118915
% es.Ex (V/m) @ t=0.16
-0.7240028564883461
% es.Ey (V/m) @ t=0.16
0.16085587404645807
% es.Ez (V/m) @ t=0.16
0.8256978455118942
% es.tEx (V/m) @ t=0.16
-0.7240028564883436
% es.tEy (V/m) @ t=0.16
0
% es.tEz (V/m) @ t=0.16
0.8256978455118915
% V (V) @ t=0.16
0.010850253145229034
% es.normE (V/m) @ t=0.18
1.138400570867166
% es.EX (V/m) @ t=0.18
-0.7351634612510678
% es.EY (V/m) @ t=0.18
0.1633354791365812
% es.EZ (V/m) @ t=0.18
0.8384260816448474
% es.tEX (V/m) @ t=0.18
-0.7351634612510687
% es.tEY (V/m) @ t=0.18
0
% es.tEZ (V/m) @ t=0.18
0.8384260816448661
% es.Ex (V/m) @ t=0.18
-0.7351634612510678
% es.Ey (V/m) @ t=0.18
0.1633354791365812
% es.Ez (V/m) @ t=0.18
0.8384260816448474
% es.tEx (V/m) @ t=0.18
-0.7351634612510687
% es.tEy (V/m) @ t=0.18
0
% es.tEz (V/m) @ t=0.18
0.8384260816448661
% V (V) @ t=0.18
0.011017510261667116
% es.normE (V/m) @ t=0.2
1.1556827563757475
% es.EX (V/m) @ t=0.2
-0.7463240660137933
% es.EY (V/m) @ t=0.2
0.16581508422669544
% es.EZ (V/m) @ t=0.2
0.851154317777806
% es.tEX (V/m) @ t=0.2
-0.7463240660137909
% es.tEY (V/m) @ t=0.2
0
% es.tEZ (V/m) @ t=0.2
0.8511543177778105
% es.Ex (V/m) @ t=0.2
-0.7463240660137933
% es.Ey (V/m) @ t=0.2
0.16581508422669544
% es.Ez (V/m) @ t=0.2
0.851154317777806
% es.tEx (V/m) @ t=0.2
-0.7463240660137909
% es.tEy (V/m) @ t=0.2
0
% es.tEz (V/m) @ t=0.2
0.8511543177778105
% V (V) @ t=0.2
0.011184767378105195
% es.normE (V/m) @ t=0.22
1.1729649418843433
% es.EX (V/m) @ t=0.22
-0.7574846707765219
% es.EY (V/m) @ t=0.22
0.168294689316822
% es.EZ (V/m) @ t=0.22
0.8638825539107771
% es.tEX (V/m) @ t=0.22
-0.7574846707765228
% es.tEY (V/m) @ t=0.22
0
% es.tEZ (V/m) @ t=0.22
0.8638825539107771
% es.Ex (V/m) @ t=0.22
-0.7574846707765219
% es.Ey (V/m) @ t=0.22
0.168294689316822
% es.Ez (V/m) @ t=0.22
0.8638825539107771
% es.tEx (V/m) @ t=0.22
-0.7574846707765228
% es.tEy (V/m) @ t=0.22
0
% es.tEz (V/m) @ t=0.22
0.8638825539107771
% V (V) @ t=0.22
0.011352024494543278
% es.normE (V/m) @ t=0.24
1.1902471273929343
% es.EX (V/m) @ t=0.24
-0.7686452755392503
% es.EY (V/m) @ t=0.24
0.17077429440693626
% es.EZ (V/m) @ t=0.24
0.8766107900437463
% es.tEX (V/m) @ t=0.24
-0.7686452755392477
% es.tEY (V/m) @ t=0.24
0
% es.tEZ (V/m) @ t=0.24
0.8766107900437436
% es.Ex (V/m) @ t=0.24
-0.7686452755392503
% es.Ey (V/m) @ t=0.24
0.17077429440693626
% es.Ez (V/m) @ t=0.24
0.8766107900437463
% es.tEx (V/m) @ t=0.24
-0.7686452755392477
% es.tEy (V/m) @ t=0.24
0
% es.tEz (V/m) @ t=0.24
0.8766107900437436
% V (V) @ t=0.24
0.011519281610981359
% es.normE (V/m) @ t=0.26
1.2075293129015074
% es.EX (V/m) @ t=0.26
-0.7798058803019756
% es.EY (V/m) @ t=0.26
0.17325389949705394
% es.EZ (V/m) @ t=0.26
0.8893390261766925
% es.tEX (V/m) @ t=0.26
-0.779805880301973
% es.tEY (V/m) @ t=0.26
0
% es.tEZ (V/m) @ t=0.26
0.8893390261767102
% es.Ex (V/m) @ t=0.26
-0.7798058803019756
% es.Ey (V/m) @ t=0.26
0.17325389949705394
% es.Ez (V/m) @ t=0.26
0.8893390261766925
% es.tEx (V/m) @ t=0.26
-0.779805880301973
% es.tEy (V/m) @ t=0.26
0
% es.tEz (V/m) @ t=0.26
0.8893390261767102
% V (V) @ t=0.26
0.011686538727419444
% es.normE (V/m) @ t=0.28
1.2254545436076567
% es.EX (V/m) @ t=0.28
-0.7913817671516381
% es.EY (V/m) @ t=0.28
0.1758257541708671
% es.EZ (V/m) @ t=0.28
0.9025408542087483
% es.tEX (V/m) @ t=0.28
-0.791381767151639
% es.tEY (V/m) @ t=0.28
0
% es.tEZ (V/m) @ t=0.28
0.9025408542087625
% es.Ex (V/m) @ t=0.28
-0.7913817671516381
% es.Ey (V/m) @ t=0.28
0.1758257541708671
% es.Ez (V/m) @ t=0.28
0.9025408542087483
% es.tEx (V/m) @ t=0.28
-0.791381767151639
% es.tEy (V/m) @ t=0.28
0
% es.tEz (V/m) @ t=0.28
0.9025408542087625
% V (V) @ t=0.28
0.011860017222469892
% es.normE (V/m) @ t=0.3
1.244272113855999
% es.EX (V/m) @ t=0.3
-0.8035339317322436
% es.EY (V/m) @ t=0.3
0.17852562154360374
% es.EZ (V/m) @ t=0.3
0.9163998752033207
% es.tEX (V/m) @ t=0.3
-0.8035339317322445
% es.tEY (V/m) @ t=0.3
0
% es.tEZ (V/m) @ t=0.3
0.9163998752033216
% es.Ex (V/m) @ t=0.3
-0.8035339317322436
% es.Ey (V/m) @ t=0.3
0.17852562154360374
% es.Ez (V/m) @ t=0.3
0.9163998752033207
% es.tEx (V/m) @ t=0.3
-0.8035339317322445
% es.tEy (V/m) @ t=0.3
0
% es.tEz (V/m) @ t=0.3
0.9163998752033216
% V (V) @ t=0.3
0.012042128986478527
% es.normE (V/m) @ t=0.32
1.2630896841043469
% es.EX (V/m) @ t=0.32
-0.815686096312846
% es.EY (V/m) @ t=0.32
0.18122548891634038
% es.EZ (V/m) @ t=0.32
0.9302588961978966
% es.tEX (V/m) @ t=0.32
-0.8156860963128469
% es.tEY (V/m) @ t=0.32
0
% es.tEZ (V/m) @ t=0.32
0.930258896197901
% es.Ex (V/m) @ t=0.32
-0.815686096312846
% es.Ey (V/m) @ t=0.32
0.18122548891634038
% es.Ez (V/m) @ t=0.32
0.9302588961978966
% es.tEx (V/m) @ t=0.32
-0.8156860963128469
% es.tEy (V/m) @ t=0.32
0
% es.tEz (V/m) @ t=0.32
0.930258896197901
% V (V) @ t=0.32
0.012224240750487156
% es.normE (V/m) @ t=0.34
1.2819072543527015
% es.EX (V/m) @ t=0.34
-0.8278382608934565
% es.EY (V/m) @ t=0.34
0.18392535628908946
% es.EZ (V/m) @ t=0.34
0.9441179171924725
% es.tEX (V/m) @ t=0.34
-0.8278382608934534
% es.tEY (V/m) @ t=0.34
0
% es.tEZ (V/m) @ t=0.34
0.9441179171924796
% es.Ex (V/m) @ t=0.34
-0.8278382608934565
% es.Ey (V/m) @ t=0.34
0.18392535628908946
% es.Ez (V/m) @ t=0.34
0.9441179171924725
% es.tEx (V/m) @ t=0.34
-0.8278382608934534
% es.tEy (V/m) @ t=0.34
0
% es.tEz (V/m) @ t=0.34
0.9441179171924796
% V (V) @ t=0.34
0.012406352514495789
% es.normE (V/m) @ t=0.36
1.3007248246010594
% es.EX (V/m) @ t=0.36
-0.839990425474062
% es.EY (V/m) @ t=0.36
0.18662522366182788
% es.EZ (V/m) @ t=0.36
0.957976938187052
% es.tEX (V/m) @ t=0.36
-0.8399904254740593
% es.tEY (V/m) @ t=0.36
0
% es.tEZ (V/m) @ t=0.36
0.95797693818706
% es.Ex (V/m) @ t=0.36
-0.839990425474062
% es.Ey (V/m) @ t=0.36
0.18662522366182788
% es.Ez (V/m) @ t=0.36
0.957976938187052
% es.tEx (V/m) @ t=0.36
-0.8399904254740593
% es.tEy (V/m) @ t=0.36
0
% es.tEz (V/m) @ t=0.36
0.95797693818706
% V (V) @ t=0.36
0.012588464278504422
% es.normE (V/m) @ t=0.38
1.3195423948494098
% es.EX (V/m) @ t=0.38
-0.8521425900546715
% es.EY (V/m) @ t=0.38
0.18932509103457684
% es.EZ (V/m) @ t=0.38
0.9718359591816137
% es.tEX (V/m) @ t=0.38
-0.8521425900546689
% es.tEY (V/m) @ t=0.38
0
% es.tEZ (V/m) @ t=0.38
0.9718359591816252
% es.Ex (V/m) @ t=0.38
-0.8521425900546715
% es.Ey (V/m) @ t=0.38
0.18932509103457684
% es.Ez (V/m) @ t=0.38
0.9718359591816137
% es.tEx (V/m) @ t=0.38
-0.8521425900546689
% es.tEy (V/m) @ t=0.38
0
% es.tEz (V/m) @ t=0.38
0.9718359591816252
% V (V) @ t=0.38
0.012770576042513056
% es.normE (V/m) @ t=0.4
1.3383599650977738
% es.EX (V/m) @ t=0.4
-0.8642947546352779
% es.EY (V/m) @ t=0.4
0.1920249584073207
% es.EZ (V/m) @ t=0.4
0.9856949801761967
% es.tEX (V/m) @ t=0.4
-0.8642947546352748
% es.tEY (V/m) @ t=0.4
0
% es.tEZ (V/m) @ t=0.4
0.9856949801762047
% es.Ex (V/m) @ t=0.4
-0.8642947546352779
% es.Ey (V/m) @ t=0.4
0.1920249584073207
% es.Ez (V/m) @ t=0.4
0.9856949801761967
% es.tEx (V/m) @ t=0.4
-0.8642947546352748
% es.tEy (V/m) @ t=0.4
0
% es.tEz (V/m) @ t=0.4
0.9856949801762047
% V (V) @ t=0.4
0.012952687806521687
% es.normE (V/m) @ t=0.42
1.3582232033650072
% es.EX (V/m) @ t=0.42
-0.8771221976194425
% es.EY (V/m) @ t=0.42
0.19487485429670803
% es.EZ (V/m) @ t=0.42
1.0003241305641701
% es.tEX (V/m) @ t=0.42
-0.8771221976194399
% es.tEY (V/m) @ t=0.42
0
% es.tEZ (V/m) @ t=0.42
1.0003241305641923
% es.Ex (V/m) @ t=0.42
-0.8771221976194425
% es.Ey (V/m) @ t=0.42
0.19487485429670803
% es.Ez (V/m) @ t=0.42
1.0003241305641701
% es.tEx (V/m) @ t=0.42
-0.8771221976194399
% es.tEy (V/m) @ t=0.42
0
% es.tEz (V/m) @ t=0.42
1.0003241305641923
% V (V) @ t=0.42
0.013144919687964522
% es.normE (V/m) @ t=0.44
1.3786921880264997
% es.EX (V/m) @ t=0.44
-0.8903408235131707
% es.EY (V/m) @ t=0.44
0.19781166040173848
% es.EZ (V/m) @ t=0.44
1.0153994102156876
% es.tEX (V/m) @ t=0.44
-0.890340823513168
% es.tEY (V/m) @ t=0.44
0
% es.tEZ (V/m) @ t=0.44
1.0153994102157027
% es.Ex (V/m) @ t=0.44
-0.8903408235131707
% es.Ey (V/m) @ t=0.44
0.19781166040173848
% es.Ez (V/m) @ t=0.44
1.0153994102156876
% es.tEx (V/m) @ t=0.44
-0.890340823513168
% es.tEy (V/m) @ t=0.44
0
% es.tEz (V/m) @ t=0.44
1.0153994102157027
% V (V) @ t=0.44
0.013343014065471588
% es.normE (V/m) @ t=0.46
1.3991611726880016
% es.EX (V/m) @ t=0.46
-0.9035594494069059
% es.EY (V/m) @ t=0.46
0.2007484665067759
% es.EZ (V/m) @ t=0.46
1.0304746898672068
% es.tEX (V/m) @ t=0.46
-0.9035594494069028
% es.tEY (V/m) @ t=0.46
0
% es.tEZ (V/m) @ t=0.46
1.0304746898672077
% es.Ex (V/m) @ t=0.46
-0.9035594494069059
% es.Ey (V/m) @ t=0.46
0.2007484665067759
% es.Ez (V/m) @ t=0.46
1.0304746898672068
% es.tEx (V/m) @ t=0.46
-0.9035594494069028
% es.tEy (V/m) @ t=0.46
0
% es.tEz (V/m) @ t=0.46
1.0304746898672077
% V (V) @ t=0.46
0.013541108442978655
% es.normE (V/m) @ t=0.48
1.4196301573494927
% es.EX (V/m) @ t=0.48
-0.9167780753006416
% es.EY (V/m) @ t=0.48
0.20368527261179203
% es.EZ (V/m) @ t=0.48
1.0455499695187154
% es.tEX (V/m) @ t=0.48
-0.916778075300638
% es.tEY (V/m) @ t=0.48
0
% es.tEZ (V/m) @ t=0.48
1.045549969518727
% es.Ex (V/m) @ t=0.48
-0.9167780753006416
% es.Ey (V/m) @ t=0.48
0.20368527261179203
% es.Ez (V/m) @ t=0.48
1.0455499695187154
% es.tEx (V/m) @ t=0.48
-0.916778075300638
% es.tEy (V/m) @ t=0.48
0
% es.tEz (V/m) @ t=0.48
1.045549969518727
% V (V) @ t=0.48
0.013739202820485717
% es.normE (V/m) @ t=0.5
1.440099142010989
% es.EX (V/m) @ t=0.5
-0.9299967011943768
% es.EY (V/m) @ t=0.5
0.20662207871683325
% es.EZ (V/m) @ t=0.5
1.060625249170223
% es.tEX (V/m) @ t=0.5
-0.9299967011943773
% es.tEY (V/m) @ t=0.5
0
% es.tEZ (V/m) @ t=0.5
1.0606252491702444
% es.Ex (V/m) @ t=0.5
-0.9299967011943768
% es.Ey (V/m) @ t=0.5
0.20662207871683325
% es.Ez (V/m) @ t=0.5
1.060625249170223
% es.tEx (V/m) @ t=0.5
-0.9299967011943773
% es.tEy (V/m) @ t=0.5
0
% es.tEz (V/m) @ t=0.5
1.0606252491702444
% V (V) @ t=0.5
0.013937297197992785
% es.normE (V/m) @ t=0.52
1.4605681266724937
% es.EX (V/m) @ t=0.52
-0.9432153270881116
% es.EY (V/m) @ t=0.52
0.20955888482184937
% es.EZ (V/m) @ t=0.52
1.0757005288217485
% es.tEX (V/m) @ t=0.52
-0.9432153270881085
% es.tEY (V/m) @ t=0.52
0
% es.tEZ (V/m) @ t=0.52
1.0757005288217565
% es.Ex (V/m) @ t=0.52
-0.9432153270881116
% es.Ey (V/m) @ t=0.52
0.20955888482184937
% es.Ez (V/m) @ t=0.52
1.0757005288217485
% es.tEx (V/m) @ t=0.52
-0.9432153270881085
% es.tEy (V/m) @ t=0.52
0
% es.tEz (V/m) @ t=0.52
1.0757005288217565
% V (V) @ t=0.52
0.014135391575499852
% es.normE (V/m) @ t=0.54
1.4810371113339995
% es.EX (V/m) @ t=0.54
-0.9564339529818362
% es.EY (V/m) @ t=0.54
0.2124956909268798
% es.EZ (V/m) @ t=0.54
1.090775808473274
% es.tEX (V/m) @ t=0.54
-0.9564339529818406
% es.tEY (V/m) @ t=0.54
0
% es.tEZ (V/m) @ t=0.54
1.0907758084732748
% es.Ex (V/m) @ t=0.54
-0.9564339529818362
% es.Ey (V/m) @ t=0.54
0.2124956909268798
% es.Ez (V/m) @ t=0.54
1.090775808473274
% es.tEx (V/m) @ t=0.54
-0.9564339529818406
% es.tEy (V/m) @ t=0.54
0
% es.tEz (V/m) @ t=0.54
1.0907758084732748
% V (V) @ t=0.54
0.014333485953006915
% es.normE (V/m) @ t=0.56
1.502171804649203
% es.EX (V/m) @ t=0.56
-0.9700824596649769
% es.EY (V/m) @ t=0.56
0.21552804109097412
% es.EZ (V/m) @ t=0.56
1.1063413931050192
% es.tEX (V/m) @ t=0.56
-0.9700824596649773
% es.tEY (V/m) @ t=0.56
0
% es.tEZ (V/m) @ t=0.56
1.1063413931050485
% es.Ex (V/m) @ t=0.56
-0.9700824596649769
% es.Ey (V/m) @ t=0.56
0.21552804109097412
% es.Ez (V/m) @ t=0.56
1.1063413931050192
% es.tEx (V/m) @ t=0.56
-0.9700824596649773
% es.tEy (V/m) @ t=0.56
0
% es.tEz (V/m) @ t=0.56
1.1063413931050485
% V (V) @ t=0.56
0.014538026954293917
% es.normE (V/m) @ t=0.58
1.5236163265630225
% es.EX (V/m) @ t=0.58
-0.9839310378986181
% es.EY (V/m) @ t=0.58
0.2186048585783592
% es.EZ (V/m) @ t=0.58
1.1221351714129257
% es.tEX (V/m) @ t=0.58
-0.9839310378986181
% es.tEY (V/m) @ t=0.58
0
% es.tEZ (V/m) @ t=0.58
1.1221351714129364
% es.Ex (V/m) @ t=0.58
-0.9839310378986181
% es.Ey (V/m) @ t=0.58
0.2186048585783592
% es.Ez (V/m) @ t=0.58
1.1221351714129257
% es.tEx (V/m) @ t=0.58
-0.9839310378986181
% es.tEy (V/m) @ t=0.58
0
% es.tEz (V/m) @ t=0.58
1.1221351714129364
% V (V) @ t=0.58
0.014745568289736524
% es.normE (V/m) @ t=0.6
1.5452666413250324
% es.EX (V/m) @ t=0.6
-0.9979125066866219
% es.EY (V/m) @ t=0.6
0.2217112119354413
% es.EZ (V/m) @ t=0.6
1.1380805194169747
% es.tEX (V/m) @ t=0.6
-0.9979125066866184
% es.tEY (V/m) @ t=0.6
0
% es.tEZ (V/m) @ t=0.6
1.1380805194169863
% es.Ex (V/m) @ t=0.6
-0.9979125066866219
% es.Ey (V/m) @ t=0.6
0.2217112119354413
% es.Ez (V/m) @ t=0.6
1.1380805194169747
% es.tEx (V/m) @ t=0.6
-0.9979125066866184
% es.tEy (V/m) @ t=0.6
0
% es.tEz (V/m) @ t=0.6
1.1380805194169863
% V (V) @ t=0.6
0.01495510249257176
% es.normE (V/m) @ t=0.62
1.5671227489352648
% es.EX (V/m) @ t=0.62
-1.01202686602899
% es.EY (V/m) @ t=0.62
0.2248471011621882
% es.EZ (V/m) @ t=0.62
1.1541774371172133
% es.tEX (V/m) @ t=0.62
-1.01202686602899
% es.tEY (V/m) @ t=0.62
0
% es.tEZ (V/m) @ t=0.62
1.1541774371172213
% es.Ex (V/m) @ t=0.62
-1.01202686602899
% es.Ey (V/m) @ t=0.62
0.2248471011621882
% es.Ez (V/m) @ t=0.62
1.1541774371172133
% es.tEx (V/m) @ t=0.62
-1.01202686602899
% es.tEy (V/m) @ t=0.62
0
% es.tEz (V/m) @ t=0.62
1.1541774371172213
% V (V) @ t=0.62
0.01516662956279962
% es.normE (V/m) @ t=0.64
1.5891846493936848
% es.EX (V/m) @ t=0.64
-1.026274115925728
% es.EY (V/m) @ t=0.64
0.22801252625863921
% es.EZ (V/m) @ t=0.64
1.170425924513581
% es.tEX (V/m) @ t=0.64
-1.0262741159257245
% es.tEY (V/m) @ t=0.64
0
% es.tEZ (V/m) @ t=0.64
1.170425924513589
% es.Ex (V/m) @ t=0.64
-1.026274115925728
% es.Ey (V/m) @ t=0.64
0.22801252625863921
% es.Ez (V/m) @ t=0.64
1.170425924513581
% es.tEx (V/m) @ t=0.64
-1.0262741159257245
% es.tEy (V/m) @ t=0.64
0
% es.tEz (V/m) @ t=0.64
1.170425924513589
% V (V) @ t=0.64
0.015380149500420109
% es.normE (V/m) @ t=0.66
1.6114523427003151
% es.EX (V/m) @ t=0.66
-1.0406542563768242
% es.EY (V/m) @ t=0.66
0.2312074872247567
% es.EZ (V/m) @ t=0.66
1.1868259816061277
% es.tEX (V/m) @ t=0.66
-1.0406542563768206
% es.tEY (V/m) @ t=0.66
0
% es.tEZ (V/m) @ t=0.66
1.1868259816061428
% es.Ex (V/m) @ t=0.66
-1.0406542563768242
% es.Ey (V/m) @ t=0.66
0.2312074872247567
% es.Ez (V/m) @ t=0.66
1.1868259816061277
% es.tEx (V/m) @ t=0.66
-1.0406542563768206
% es.tEy (V/m) @ t=0.66
0
% es.tEz (V/m) @ t=0.66
1.1868259816061428
% V (V) @ t=0.66
0.015595662305433225
% es.normE (V/m) @ t=0.68
1.6339258288551561
% es.EX (V/m) @ t=0.68
-1.0551672873822824
% es.EY (V/m) @ t=0.68
0.2344319840605713
% es.EZ (V/m) @ t=0.68
1.2033776083948347
% es.tEX (V/m) @ t=0.68
-1.0551672873822824
% es.tEY (V/m) @ t=0.68
0
% es.tEZ (V/m) @ t=0.68
1.2033776083948498
% es.Ex (V/m) @ t=0.68
-1.0551672873822824
% es.Ey (V/m) @ t=0.68
0.2344319840605713
% es.Ez (V/m) @ t=0.68
1.2033776083948347
% es.tEx (V/m) @ t=0.68
-1.0551672873822824
% es.tEy (V/m) @ t=0.68
0
% es.tEz (V/m) @ t=0.68
1.2033776083948498
% V (V) @ t=0.68
0.015813167977838972
% es.normE (V/m) @ t=0.7
1.6566051078582071
% es.EX (V/m) @ t=0.7
-1.0698132089421097
% es.EY (V/m) @ t=0.7
0.23768601676606327
% es.EZ (V/m) @ t=0.7
1.2200808048797036
% es.tEX (V/m) @ t=0.7
-1.0698132089421026
% es.tEY (V/m) @ t=0.7
0
% es.tEZ (V/m) @ t=0.7
1.2200808048797045
% es.Ex (V/m) @ t=0.7
-1.0698132089421097
% es.Ey (V/m) @ t=0.7
0.23768601676606327
% es.Ez (V/m) @ t=0.7
1.2200808048797036
% es.tEx (V/m) @ t=0.7
-1.0698132089421026
% es.tEy (V/m) @ t=0.7
0
% es.tEz (V/m) @ t=0.7
1.2200808048797045
% V (V) @ t=0.7
0.016032666517637344
% es.normE (V/m) @ t=0.72
1.679490179709473
% es.EX (V/m) @ t=0.72
-1.0845920210562956
% es.EY (V/m) @ t=0.72
0.240969585341252
% es.EZ (V/m) @ t=0.72
1.2369355710607444
% es.tEX (V/m) @ t=0.72
-1.0845920210562952
% es.tEY (V/m) @ t=0.72
0
% es.tEZ (V/m) @ t=0.72
1.2369355710607373
% es.Ex (V/m) @ t=0.72
-1.0845920210562956
% es.Ey (V/m) @ t=0.72
0.240969585341252
% es.Ez (V/m) @ t=0.72
1.2369355710607444
% es.tEx (V/m) @ t=0.72
-1.0845920210562952
% es.tEy (V/m) @ t=0.72
0
% es.tEz (V/m) @ t=0.72
1.2369355710607373
% V (V) @ t=0.72
0.016254157924828344
% es.normE (V/m) @ t=0.74
1.7025810444089515
% es.EX (V/m) @ t=0.74
-1.0995037237248506
% es.EY (V/m) @ t=0.74
0.2442826897861058
% es.EZ (V/m) @ t=0.74
1.253941906937948
% es.tEX (V/m) @ t=0.74
-1.0995037237248506
% es.tEY (V/m) @ t=0.74
0
% es.tEZ (V/m) @ t=0.74
1.2539419069379534
% es.Ex (V/m) @ t=0.74
-1.0995037237248506
% es.Ey (V/m) @ t=0.74
0.2442826897861058
% es.Ez (V/m) @ t=0.74
1.253941906937948
% es.tEx (V/m) @ t=0.74
-1.0995037237248506
% es.tEy (V/m) @ t=0.74
0
% es.tEz (V/m) @ t=0.74
1.2539419069379534
% V (V) @ t=0.74
0.016477642199411967
% es.normE (V/m) @ t=0.76
1.7258777019566378
% es.EX (V/m) @ t=0.76
-1.114548316947781
% es.EY (V/m) @ t=0.76
0.2476253301006599
% es.EZ (V/m) @ t=0.76
1.2710998125112773
% es.tEX (V/m) @ t=0.76
-1.114548316947781
% es.tEY (V/m) @ t=0.76
0
% es.tEZ (V/m) @ t=0.76
1.271099812511297
% es.Ex (V/m) @ t=0.76
-1.114548316947781
% es.Ey (V/m) @ t=0.76
0.2476253301006599
% es.Ez (V/m) @ t=0.76
1.2710998125112773
% es.tEx (V/m) @ t=0.76
-1.114548316947781
% es.tEy (V/m) @ t=0.76
0
% es.tEz (V/m) @ t=0.76
1.271099812511297
% V (V) @ t=0.76
0.016703119341388226
% es.normE (V/m) @ t=0.78
1.7493801523525576
% es.EX (V/m) @ t=0.78
-1.1297258007250628
% es.EY (V/m) @ t=0.78
0.25099750628489303
% es.EZ (V/m) @ t=0.78
1.2884092877808104
% es.tEX (V/m) @ t=0.78
-1.1297258007250592
% es.tEY (V/m) @ t=0.78
0
% es.tEZ (V/m) @ t=0.78
1.2884092877808104
% es.Ex (V/m) @ t=0.78
-1.1297258007250628
% es.Ey (V/m) @ t=0.78
0.25099750628489303
% es.Ez (V/m) @ t=0.78
1.2884092877808104
% es.tEx (V/m) @ t=0.78
-1.1297258007250592
% es.tEy (V/m) @ t=0.78
0
% es.tEz (V/m) @ t=0.78
1.2884092877808104
% V (V) @ t=0.78
0.01693058935075711
% es.normE (V/m) @ t=0.8
1.7730883955966816
% es.EX (V/m) @ t=0.8
-1.1450361750567049
% es.EY (V/m) @ t=0.8
0.25439921833881984
% es.EZ (V/m) @ t=0.8
1.305870332746487
% es.tEX (V/m) @ t=0.8
-1.1450361750567009
% es.tEY (V/m) @ t=0.8
0
% es.tEZ (V/m) @ t=0.8
1.3058703327464904
% es.Ex (V/m) @ t=0.8
-1.1450361750567049
% es.Ey (V/m) @ t=0.8
0.25439921833881984
% es.Ez (V/m) @ t=0.8
1.305870332746487
% es.tEx (V/m) @ t=0.8
-1.1450361750567009
% es.tEy (V/m) @ t=0.8
0
% es.tEz (V/m) @ t=0.8
1.3058703327464904
% V (V) @ t=0.8
0.017160052227518617
% es.normE (V/m) @ t=0.82
1.7971142956821526
% es.EX (V/m) @ t=0.82
-1.16055165726141
% es.EY (V/m) @ t=0.82
0.2578465372760971
% es.EZ (V/m) @ t=0.82
1.323565350059651
% es.tEX (V/m) @ t=0.82
-1.160551657261406
% es.tEY (V/m) @ t=0.82
0
% es.tEZ (V/m) @ t=0.82
1.323565350059674
% es.Ex (V/m) @ t=0.82
-1.16055165726141
% es.Ey (V/m) @ t=0.82
0.2578465372760971
% es.Ez (V/m) @ t=0.82
1.323565350059651
% es.tEx (V/m) @ t=0.82
-1.160551657261406
% es.tEy (V/m) @ t=0.82
0
% es.tEz (V/m) @ t=0.82
1.323565350059674
% V (V) @ t=0.82
0.017392594750621305
% es.normE (V/m) @ t=0.84
1.821676256104608
% es.EX (V/m) @ t=0.84
-1.1764132445841349
% es.EY (V/m) @ t=0.84
0.2613708401776106
% es.EZ (V/m) @ t=0.84
1.3416552228302603
% es.tEX (V/m) @ t=0.84
-1.176413244584138
% es.tEY (V/m) @ t=0.84
0
% es.tEZ (V/m) @ t=0.84
1.3416552228302692
% es.Ex (V/m) @ t=0.84
-1.1764132445841349
% es.Ey (V/m) @ t=0.84
0.2613708401776106
% es.Ez (V/m) @ t=0.84
1.3416552228302603
% es.tEx (V/m) @ t=0.84
-1.176413244584138
% es.tEy (V/m) @ t=0.84
0
% es.tEz (V/m) @ t=0.84
1.3416552228302692
% V (V) @ t=0.84
0.017630338749572077
% es.normE (V/m) @ t=0.86
1.846502477277058
% es.EX (V/m) @ t=0.86
-1.192445468253931
% es.EY (V/m) @ t=0.86
0.26493307877814476
% es.EZ (V/m) @ t=0.86
1.3599397346527855
% es.tEX (V/m) @ t=0.86
-1.192445468253927
% es.tEY (V/m) @ t=0.86
0
% es.tEZ (V/m) @ t=0.86
1.3599397346527908
% es.Ex (V/m) @ t=0.86
-1.192445468253931
% es.Ey (V/m) @ t=0.86
0.26493307877814476
% es.Ez (V/m) @ t=0.86
1.3599397346527855
% es.tEx (V/m) @ t=0.86
-1.192445468253927
% es.tEy (V/m) @ t=0.86
0
% es.tEz (V/m) @ t=0.86
1.3599397346527908
% V (V) @ t=0.86
0.017870643642168053
% es.normE (V/m) @ t=0.88
1.8715929591996003
% es.EX (V/m) @ t=0.88
-1.2086483282707938
% es.EY (V/m) @ t=0.88
0.2685332530776776
% es.EZ (V/m) @ t=0.88
1.3784188855273491
% es.tEX (V/m) @ t=0.88
-1.2086483282707827
% es.tEY (V/m) @ t=0.88
0
% es.tEZ (V/m) @ t=0.88
1.3784188855273722
% es.Ex (V/m) @ t=0.88
-1.2086483282707938
% es.Ey (V/m) @ t=0.88
0.2685332530776776
% es.Ez (V/m) @ t=0.88
1.3784188855273491
% es.tEx (V/m) @ t=0.88
-1.2086483282707827
% es.tEy (V/m) @ t=0.88
0
% es.tEz (V/m) @ t=0.88
1.3784188855273722
% V (V) @ t=0.88
0.018113509428409242
% es.normE (V/m) @ t=0.9
1.896947701872156
% es.EX (V/m) @ t=0.9
-1.2250218246347062
% es.EY (V/m) @ t=0.9
0.27217136307617773
% es.EZ (V/m) @ t=0.9
1.3970926754538446
% es.tEX (V/m) @ t=0.9
-1.2250218246347089
% es.tEY (V/m) @ t=0.9
0
% es.tEZ (V/m) @ t=0.9
1.3970926754538677
% es.Ex (V/m) @ t=0.9
-1.2250218246347062
% es.Ey (V/m) @ t=0.9
0.27217136307617773
% es.Ez (V/m) @ t=0.9
1.3970926754538446
% es.tEx (V/m) @ t=0.9
-1.2250218246347089
% es.tEy (V/m) @ t=0.9
0
% es.tEz (V/m) @ t=0.9
1.3970926754538677
% V (V) @ t=0.9
0.018358936108295625
% es.normE (V/m) @ t=0.92
1.9225667052948423
% es.EX (V/m) @ t=0.92
-1.2415659573456872
% es.EY (V/m) @ t=0.92
0.27584740877370684
% es.EZ (V/m) @ t=0.92
1.4159611044323785
% es.tEX (V/m) @ t=0.92
-1.241565957345676
% es.tEY (V/m) @ t=0.92
0
% es.tEZ (V/m) @ t=0.92
1.4159611044323857
% es.Ex (V/m) @ t=0.92
-1.2415659573456872
% es.Ey (V/m) @ t=0.92
0.27584740877370684
% es.Ez (V/m) @ t=0.92
1.4159611044323785
% es.tEx (V/m) @ t=0.92
-1.241565957345676
% es.tEy (V/m) @ t=0.92
0
% es.tEz (V/m) @ t=0.92
1.4159611044323857
% V (V) @ t=0.92
0.018606923681827217
% es.normE (V/m) @ t=0.94
1.9484499694676098
% es.EX (V/m) @ t=0.94
-1.2582807264037332
% es.EY (V/m) @ t=0.94
0.27956139017020165
% es.EZ (V/m) @ t=0.94
1.4350241724628852
% es.tEX (V/m) @ t=0.94
-1.258280726403736
% es.tEY (V/m) @ t=0.94
0
% es.tEZ (V/m) @ t=0.94
1.4350241724629011
% es.Ex (V/m) @ t=0.94
-1.2582807264037332
% es.Ey (V/m) @ t=0.94
0.27956139017020165
% es.Ez (V/m) @ t=0.94
1.4350241724628852
% es.tEx (V/m) @ t=0.94
-1.258280726403736
% es.tEy (V/m) @ t=0.94
0
% es.tEz (V/m) @ t=0.94
1.4350241724629011
% V (V) @ t=0.94
0.018857472149004007
% es.normE (V/m) @ t=0.96
1.9745974943904328
% es.EX (V/m) @ t=0.96
-1.275166131808826
% es.EY (V/m) @ t=0.96
0.2833133072657179
% es.EZ (V/m) @ t=0.96
1.454281879545313
% es.tEX (V/m) @ t=0.96
-1.2751661318088288
% es.tEY (V/m) @ t=0.96
0
% es.tEZ (V/m) @ t=0.96
1.4542818795453503
% es.Ex (V/m) @ t=0.96
-1.275166131808826
% es.Ey (V/m) @ t=0.96
0.2833133072657179
% es.Ez (V/m) @ t=0.96
1.454281879545313
% es.tEx (V/m) @ t=0.96
-1.2751661318088288
% es.tEy (V/m) @ t=0.96
0
% es.tEz (V/m) @ t=0.96
1.4542818795453503
% V (V) @ t=0.96
0.019110581509825995
% es.normE (V/m) @ t=0.98
2.001009280063449
% es.EX (V/m) @ t=0.98
-1.292222173560988
% es.EY (V/m) @ t=0.98
0.2871031600602052
% es.EZ (V/m) @ t=0.98
1.4737342256798023
% es.tEX (V/m) @ t=0.98
-1.2922221735609836
% es.tEY (V/m) @ t=0.98
0
% es.tEZ (V/m) @ t=0.98
1.473734225679804
% es.Ex (V/m) @ t=0.98
-1.292222173560988
% es.Ey (V/m) @ t=0.98
0.2871031600602052
% es.Ez (V/m) @ t=0.98
1.4737342256798023
% es.tEx (V/m) @ t=0.98
-1.2922221735609836
% es.tEy (V/m) @ t=0.98
0
% es.tEz (V/m) @ t=0.98
1.473734225679804
% V (V) @ t=0.98
0.0193662517642932
% es.normE (V/m) @ t=1
2.027685326486586
% es.EX (V/m) @ t=1
-1.309448851660198
% es.EY (V/m) @ t=1
0.2909309485537215
% es.EZ (V/m) @ t=1
1.4933812108662519
% es.tEX (V/m) @ t=1
-1.3094488516602008
% es.tEY (V/m) @ t=1
0
% es.tEZ (V/m) @ t=1
1.4933812108662519
% es.Ex (V/m) @ t=1
-1.309448851660198
% es.Ey (V/m) @ t=1
0.2909309485537215
% es.Ez (V/m) @ t=1
1.4933812108662519
% es.tEx (V/m) @ t=1
-1.3094488516602008
% es.tEy (V/m) @ t=1
0
% es.tEz (V/m) @ t=1
1.4933812108662519
% V (V) @ t=1
0.0196244829124056
% es.normE (V/m) @ t=1.02
2.0546256336599016
% es.EX (V/m) @ t=1.02
-1.3268461661064928
% es.EY (V/m) @ t=1.02
0.2947966727462279
% es.EZ (V/m) @ t=1.02
1.513222835104692
% es.tEX (V/m) @ t=1.02
-1.3268461661064879
% es.tEY (V/m) @ t=1.02
0
% es.tEZ (V/m) @ t=1.02
1.513222835104708
% es.Ex (V/m) @ t=1.02
-1.3268461661064928
% es.Ey (V/m) @ t=1.02
0.2947966727462279
% es.Ez (V/m) @ t=1.02
1.513222835104692
% es.tEx (V/m) @ t=1.02
-1.3268461661064879
% es.tEy (V/m) @ t=1.02
0
% es.tEz (V/m) @ t=1.02
1.513222835104708
% V (V) @ t=1.02
0.019885274954163205
% es.normE (V/m) @ t=1.04
2.08183020158339
% es.EX (V/m) @ t=1.04
-1.3444141168998267
% es.EY (V/m) @ t=1.04
0.29870033263769047
% es.EZ (V/m) @ t=1.04
1.5332590983951295
% es.tEX (V/m) @ t=1.04
-1.3444141168998223
% es.tEY (V/m) @ t=1.04
0
% es.tEZ (V/m) @ t=1.04