% Model:              1 neuron.mph
% Version:            COMSOL 6.0.0.405
% Date:               Mar 16 2023, 18:45
% Dimension:          0
% Nodes:              14017
% Expressions:        14017
% Description:        Electric field norm, Electric field, X component, Electric field, Y component, Electric field, Z component, Tangential electric field, X component, Tangential electric field, Y component, Tangential electric field, Z component, Electric field, x component, Electric field, y component, Electric field, z component, Tangential electric field, x component, Tangential electric field, y component, Tangential electric field, z component, Electric potential
% Length unit:        mm
% x
1
% y
12.2
% z
1
% es.normE (V/m) @ t=0
1.1975553894188282
% es.EX (V/m) @ t=0
0.8131568173952246
% es.EY (V/m) @ t=0
0.2309466765215884
% es.EZ (V/m) @ t=0
0.8262013283014724
% es.tEX (V/m) @ t=0
0.8131568173951962
% es.tEY (V/m) @ t=0
0
% es.tEZ (V/m) @ t=0
0.8262013283014511
% es.Ex (V/m) @ t=0
0.8131568173952246
% es.Ey (V/m) @ t=0
0.2309466765215884
% es.Ez (V/m) @ t=0
0.8262013283014724
% es.tEx (V/m) @ t=0
0.8131568173951962
% es.tEy (V/m) @ t=0
0
% es.tEz (V/m) @ t=0
0.8262013283014511
% V (V) @ t=0
0.011229811250934488
% es.normE (V/m) @ t=0.02
1.0400862648475755
% es.EX (V/m) @ t=0.02
0.7062330823295895
% es.EY (V/m) @ t=0.02
0.20057900745726265
% es.EZ (V/m) @ t=0.02
0.717562345374275
% es.tEX (V/m) @ t=0.02
0.7062330823295895
% es.tEY (V/m) @ t=0.02
0
% es.tEZ (V/m) @ t=0.02
0.7175623453742617
% es.Ex (V/m) @ t=0.02
0.7062330823295895
% es.Ey (V/m) @ t=0.02
0.20057900745726265
% es.Ez (V/m) @ t=0.02
0.717562345374275
% es.tEx (V/m) @ t=0.02
0.7062330823295895
% es.tEy (V/m) @ t=0.02
0
% es.tEz (V/m) @ t=0.02
0.7175623453742617
% V (V) @ t=0.02
0.00975317900773923
% es.normE (V/m) @ t=0.04
1.0555083761070996
% es.EX (V/m) @ t=0.04
0.7167049070104277
% es.EY (V/m) @ t=0.04
0.20355314425209237
% es.EZ (V/m) @ t=0.04
0.728202161811593
% es.tEX (V/m) @ t=0.04
0.7167049070104383
% es.tEY (V/m) @ t=0.04
0
% es.tEZ (V/m) @ t=0.04
0.7282021618115877
% es.Ex (V/m) @ t=0.04
0.7167049070104277
% es.Ey (V/m) @ t=0.04
0.20355314425209237
% es.Ez (V/m) @ t=0.04
0.728202161811593
% es.tEx (V/m) @ t=0.04
0.7167049070104383
% es.tEy (V/m) @ t=0.04
0
% es.tEz (V/m) @ t=0.04
0.7282021618115877
% V (V) @ t=0.04
0.009897795990828816
% es.normE (V/m) @ t=0.06
1.0711638076768815
% es.EX (V/m) @ t=0.06
0.7273351661938889
% es.EY (V/m) @ t=0.06
0.2065722645646435
% es.EZ (V/m) @ t=0.06
0.7390029467364947
% es.tEX (V/m) @ t=0.06
0.7273351661938534
% es.tEY (V/m) @ t=0.06
0
% es.tEZ (V/m) @ t=0.06
0.739002946736484
% es.Ex (V/m) @ t=0.06
0.7273351661938889
% es.Ey (V/m) @ t=0.06
0.2065722645646435
% es.Ez (V/m) @ t=0.06
0.7390029467364947
% es.tEx (V/m) @ t=0.06
0.7273351661938534
% es.tEy (V/m) @ t=0.06
0
% es.tEz (V/m) @ t=0.06
0.739002946736484
% V (V) @ t=0.06
0.010044601701237332
% es.normE (V/m) @ t=0.08
1.0872141995070173
% es.EX (V/m) @ t=0.08
0.7382336089263042
% es.EY (V/m) @ t=0.08
0.2096675524623084
% es.EZ (V/m) @ t=0.08
0.7500762172423574
% es.tEX (V/m) @ t=0.08
0.7382336089262793
% es.tEY (V/m) @ t=0.08
0
% es.tEZ (V/m) @ t=0.08
0.7500762172423521
% es.Ex (V/m) @ t=0.08
0.7382336089263042
% es.Ey (V/m) @ t=0.08
0.2096675524623084
% es.Ez (V/m) @ t=0.08
0.7500762172423574
% es.tEx (V/m) @ t=0.08
0.7382336089262793
% es.tEy (V/m) @ t=0.08
0
% es.tEz (V/m) @ t=0.08
0.7500762172423521
% V (V) @ t=0.08
0.010195111050205706
% es.normE (V/m) @ t=0.1
1.1035492754014116
% es.EX (V/m) @ t=0.1
0.7493253561259472
% es.EY (V/m) @ t=0.1
0.21281774132049236
% es.EZ (V/m) @ t=0.1
0.7613458930841865
% es.tEX (V/m) @ t=0.1
0.7493253561259365
% es.tEY (V/m) @ t=0.1
0
% es.tEZ (V/m) @ t=0.1
0.761345893084183
% es.Ex (V/m) @ t=0.1
0.7493253561259472
% es.Ey (V/m) @ t=0.1
0.21281774132049236
% es.Ez (V/m) @ t=0.1
0.7613458930841865
% es.tEx (V/m) @ t=0.1
0.7493253561259365
% es.tEy (V/m) @ t=0.1
0
% es.tEz (V/m) @ t=0.1
0.761345893084183
% V (V) @ t=0.1
0.010348289950983566
% es.normE (V/m) @ t=0.12
1.1198843512957994
% es.EX (V/m) @ t=0.12
0.7604171033255831
% es.EY (V/m) @ t=0.12
0.21596793017864613
% es.EZ (V/m) @ t=0.12
0.7726155689260468
% es.tEX (V/m) @ t=0.12
0.7604171033255653
% es.tEY (V/m) @ t=0.12
0
% es.tEZ (V/m) @ t=0.12
0.7726155689260281
% es.Ex (V/m) @ t=0.12
0.7604171033255831
% es.Ey (V/m) @ t=0.12
0.21596793017864613
% es.Ez (V/m) @ t=0.12
0.7726155689260468
% es.tEx (V/m) @ t=0.12
0.7604171033255653
% es.tEy (V/m) @ t=0.12
0
% es.tEz (V/m) @ t=0.12
0.7726155689260281
% V (V) @ t=0.12
0.010501468851761429
% es.normE (V/m) @ t=0.14
1.1364731223505666
% es.EX (V/m) @ t=0.14
0.7716811086042981
% es.EY (V/m) @ t=0.14
0.21916705218176347
% es.EZ (V/m) @ t=0.14
0.7840602708872293
% es.tEX (V/m) @ t=0.14
0.7716811086042838
% es.tEY (V/m) @ t=0.14
0
% es.tEZ (V/m) @ t=0.14
0.784060270887224
% es.Ex (V/m) @ t=0.14
0.7716811086042981
% es.Ey (V/m) @ t=0.14
0.21916705218176347
% es.Ez (V/m) @ t=0.14
0.7840602708872293
% es.tEx (V/m) @ t=0.14
0.7716811086042838
% es.tEy (V/m) @ t=0.14
0
% es.tEz (V/m) @ t=0.14
0.784060270887224
% V (V) @ t=0.14
0.010657026127261647
% es.normE (V/m) @ t=0.16
1.1542810916745325
% es.EX (V/m) @ t=0.16
0.7837729450153113
% es.EY (V/m) @ t=0.16
0.22260133517675484
% es.EZ (V/m) @ t=0.16
0.7963461065203035
% es.tEX (V/m) @ t=0.16
0.7837729450153148
% es.tEY (V/m) @ t=0.16
0
% es.tEZ (V/m) @ t=0.16
0.7963461065202821
% es.Ex (V/m) @ t=0.16
0.7837729450153113
% es.Ey (V/m) @ t=0.16
0.22260133517675484
% es.Ez (V/m) @ t=0.16
0.7963461065203035
% es.tEx (V/m) @ t=0.16
0.7837729450153148
% es.tEy (V/m) @ t=0.16
0
% es.tEz (V/m) @ t=0.16
0.7963461065202821
% V (V) @ t=0.16
0.010824013302885311
% es.normE (V/m) @ t=0.18
1.1720890609984904
% es.EX (V/m) @ t=0.18
0.7958647814263067
% es.EY (V/m) @ t=0.18
0.2260356181718084
% es.EZ (V/m) @ t=0.18
0.8086319421533581
% es.tEX (V/m) @ t=0.18
0.7958647814262889
% es.tEY (V/m) @ t=0.18
0
% es.tEZ (V/m) @ t=0.18
0.8086319421533403
% es.Ex (V/m) @ t=0.18
0.7958647814263067
% es.Ey (V/m) @ t=0.18
0.2260356181718084
% es.Ez (V/m) @ t=0.18
0.8086319421533581
% es.tEx (V/m) @ t=0.18
0.7958647814262889
% es.tEy (V/m) @ t=0.18
0
% es.tEz (V/m) @ t=0.18
0.8086319421533403
% V (V) @ t=0.18
0.010991000478508973
% es.normE (V/m) @ t=0.2
1.189897030322439
% es.EX (V/m) @ t=0.2
0.8079566178373092
% es.EY (V/m) @ t=0.2
0.2294699011667376
% es.EZ (V/m) @ t=0.2
0.8209177777864252
% es.tEX (V/m) @ t=0.2
0.8079566178372914
% es.tEY (V/m) @ t=0.2
0
% es.tEZ (V/m) @ t=0.2
0.8209177777864127
% es.Ex (V/m) @ t=0.2
0.8079566178373092
% es.Ey (V/m) @ t=0.2
0.2294699011667376
% es.Ez (V/m) @ t=0.2
0.8209177777864252
% es.tEx (V/m) @ t=0.2
0.8079566178372914
% es.tEy (V/m) @ t=0.2
0
% es.tEz (V/m) @ t=0.2
0.8209177777864127
% V (V) @ t=0.2
0.011157987654132638
% es.normE (V/m) @ t=0.22
1.2077049996464273
% es.EX (V/m) @ t=0.22
0.8200484542483366
% es.EY (V/m) @ t=0.22
0.23290418416173964
% es.EZ (V/m) @ t=0.22
0.8332036134194976
% es.tEX (V/m) @ t=0.22
0.8200484542483224
% es.tEY (V/m) @ t=0.22
0
% es.tEZ (V/m) @ t=0.22
0.8332036134194851
% es.Ex (V/m) @ t=0.22
0.8200484542483366
% es.Ey (V/m) @ t=0.22
0.23290418416173964
% es.Ez (V/m) @ t=0.22
0.8332036134194976
% es.tEx (V/m) @ t=0.22
0.8200484542483224
% es.tEy (V/m) @ t=0.22
0
% es.tEz (V/m) @ t=0.22
0.8332036134194851
% V (V) @ t=0.22
0.011324974829756302
% es.normE (V/m) @ t=0.24
1.2255129689703463
% es.EX (V/m) @ t=0.24
0.8321402906592859
% es.EY (V/m) @ t=0.24
0.2363384671567843
% es.EZ (V/m) @ t=0.24
0.8454894490525335
% es.tEX (V/m) @ t=0.24
0.8321402906593107
% es.tEY (V/m) @ t=0.24
0
% es.tEZ (V/m) @ t=0.24
0.845489449052522
% es.Ex (V/m) @ t=0.24
0.8321402906592859
% es.Ey (V/m) @ t=0.24
0.2363384671567843
% es.Ez (V/m) @ t=0.24
0.8454894490525335
% es.tEx (V/m) @ t=0.24
0.8321402906593107
% es.tEy (V/m) @ t=0.24
0
% es.tEz (V/m) @ t=0.24
0.845489449052522
% V (V) @ t=0.24
0.011491962005379963
% es.normE (V/m) @ t=0.26
1.2433209382943442
% es.EX (V/m) @ t=0.26
0.8442321270703026
% es.EY (V/m) @ t=0.26
0.23977275015177746
% es.EZ (V/m) @ t=0.26
0.8577752846856281
% es.tEX (V/m) @ t=0.26
0.8442321270703275
% es.tEY (V/m) @ t=0.26
0
% es.tEZ (V/m) @ t=0.26
0.8577752846856228
% es.Ex (V/m) @ t=0.26
0.8442321270703026
% es.Ey (V/m) @ t=0.26
0.23977275015177746
% es.Ez (V/m) @ t=0.26
0.8577752846856281
% es.tEx (V/m) @ t=0.26
0.8442321270703275
% es.tEy (V/m) @ t=0.26
0
% es.tEz (V/m) @ t=0.26
0.8577752846856228
% V (V) @ t=0.26
0.011658949181003629
% es.normE (V/m) @ t=0.28
1.2616927998550298
% es.EX (V/m) @ t=0.28
0.8567068612796085
% es.EY (V/m) @ t=0.28
0.24331576544482125
% es.EZ (V/m) @ t=0.28
0.8704501530471269
% es.tEX (V/m) @ t=0.28
0.8567068612796191
% es.tEY (V/m) @ t=0.28
0
% es.tEZ (V/m) @ t=0.28
0.8704501530471163
% es.Ex (V/m) @ t=0.28
0.8567068612796085
% es.Ey (V/m) @ t=0.28
0.24331576544482125
% es.Ez (V/m) @ t=0.28
0.8704501530471269
% es.tEx (V/m) @ t=0.28
0.8567068612796191
% es.tEy (V/m) @ t=0.28
0
% es.tEz (V/m) @ t=0.28
0.8704501530471163
% V (V) @ t=0.28
0.011831225081462914
% es.normE (V/m) @ t=0.3
1.281091562272183
% es.EX (V/m) @ t=0.3
0.8698788884315114
% es.EY (V/m) @ t=0.3
0.2470567924901932
% es.EZ (V/m) @ t=0.3
0.8838334866365871
% es.tEX (V/m) @ t=0.3
0.8698788884314865
% es.tEY (V/m) @ t=0.3
0
% es.tEZ (V/m) @ t=0.3
0.8838334866365756
% es.Ex (V/m) @ t=0.3
0.8698788884315114
% es.Ey (V/m) @ t=0.3
0.2470567924901932
% es.Ez (V/m) @ t=0.3
0.8838334866365871
% es.tEx (V/m) @ t=0.3
0.8698788884314865
% es.tEy (V/m) @ t=0.3
0
% es.tEz (V/m) @ t=0.3
0.8838334866365756
% V (V) @ t=0.3
0.012013132247808709
% es.normE (V/m) @ t=0.32
1.300490324689306
% es.EX (V/m) @ t=0.32
0.8830509155833504
% es.EY (V/m) @ t=0.32
0.2507978195356362
% es.EZ (V/m) @ t=0.32
0.8972168202260429
% es.tEX (V/m) @ t=0.32
0.8830509155833255
% es.tEY (V/m) @ t=0.32
0
% es.tEZ (V/m) @ t=0.32
0.8972168202260349
% es.Ex (V/m) @ t=0.32
0.8830509155833504
% es.Ey (V/m) @ t=0.32
0.2507978195356362
% es.Ez (V/m) @ t=0.32
0.8972168202260429
% es.tEx (V/m) @ t=0.32
0.8830509155833255
% es.tEy (V/m) @ t=0.32
0
% es.tEz (V/m) @ t=0.32
0.8972168202260349
% V (V) @ t=0.32
0.012195039414154504
% es.normE (V/m) @ t=0.34
1.3198890871064435
% es.EX (V/m) @ t=0.34
0.8962229427352
% es.EY (V/m) @ t=0.34
0.2545388465810525
% es.EZ (V/m) @ t=0.34
0.9106001538155102
% es.tEX (V/m) @ t=0.34
0.8962229427351787
% es.tEY (V/m) @ t=0.34
0
% es.tEZ (V/m) @ t=0.34
0.9106001538154942
% es.Ex (V/m) @ t=0.34
0.8962229427352
% es.Ey (V/m) @ t=0.34
0.2545388465810525
% es.Ez (V/m) @ t=0.34
0.9106001538155102
% es.tEx (V/m) @ t=0.34
0.8962229427351787
% es.tEy (V/m) @ t=0.34
0
% es.tEz (V/m) @ t=0.34
0.9106001538154942
% V (V) @ t=0.34
0.012376946580500297
% es.normE (V/m) @ t=0.36
1.339287849523576
% es.EX (V/m) @ t=0.36
0.9093949698870674
% es.EY (V/m) @ t=0.36
0.2582798736264724
% es.EZ (V/m) @ t=0.36
0.9239834874049659
% es.tEX (V/m) @ t=0.36
0.9093949698870603
% es.tEY (V/m) @ t=0.36
0
% es.tEZ (V/m) @ t=0.36
0.9239834874049535
% es.Ex (V/m) @ t=0.36
0.9093949698870674
% es.Ey (V/m) @ t=0.36
0.2582798736264724
% es.Ez (V/m) @ t=0.36
0.9239834874049659
% es.tEx (V/m) @ t=0.36
0.9093949698870603
% es.tEy (V/m) @ t=0.36
0
% es.tEz (V/m) @ t=0.36
0.9239834874049535
% V (V) @ t=0.36
0.012558853746846094
% es.normE (V/m) @ t=0.38
1.3586866119406915
% es.EX (V/m) @ t=0.38
0.9225669970389028
% es.EY (V/m) @ t=0.38
0.2620209006719083
% es.EZ (V/m) @ t=0.38
0.9373668209944075
% es.tEX (V/m) @ t=0.38
0.922566997038885
% es.tEY (V/m) @ t=0.38
0
% es.tEZ (V/m) @ t=0.38
0.9373668209943986
% es.Ex (V/m) @ t=0.38
0.9225669970389028
% es.Ey (V/m) @ t=0.38
0.2620209006719083
% es.Ez (V/m) @ t=0.38
0.9373668209944075
% es.tEx (V/m) @ t=0.38
0.922566997038885
% es.tEy (V/m) @ t=0.38
0
% es.tEz (V/m) @ t=0.38
0.9373668209943986
% V (V) @ t=0.38
0.012740760913191887
% es.normE (V/m) @ t=0.4
1.3780853743578043
% es.EX (V/m) @ t=0.4
0.9357390241907453
% es.EY (V/m) @ t=0.4
0.26576192771733353
% es.EZ (V/m) @ t=0.4
0.9507501545838544
% es.tEX (V/m) @ t=0.4
0.9357390241907808
% es.tEY (V/m) @ t=0.4
0
% es.tEZ (V/m) @ t=0.4
0.9507501545838366
% es.Ex (V/m) @ t=0.4
0.9357390241907453
% es.Ey (V/m) @ t=0.4
0.26576192771733353
% es.Ez (V/m) @ t=0.4
0.9507501545838544
% es.tEx (V/m) @ t=0.4
0.9357390241907808
% es.tEy (V/m) @ t=0.4
0
% es.tEz (V/m) @ t=0.4
0.9507501545838366
% V (V) @ t=0.4
0.01292266807953768
% es.normE (V/m) @ t=0.42
1.3984022231831177
% es.EX (V/m) @ t=0.42
0.9495344394170573
% es.EY (V/m) @ t=0.42
0.2696800163941795
% es.EZ (V/m) @ t=0.42
0.9647668822621114
% es.tEX (V/m) @ t=0.42
0.949534439417036
% es.tEY (V/m) @ t=0.42
0
% es.tEZ (V/m) @ t=0.42
0.9647668822620972
% es.Ex (V/m) @ t=0.42
0.9495344394170573
% es.Ey (V/m) @ t=0.42
0.2696800163941795
% es.Ez (V/m) @ t=0.42
0.9647668822621114
% es.tEx (V/m) @ t=0.42
0.949534439417036
% es.tEy (V/m) @ t=0.42
0
% es.tEz (V/m) @ t=0.42
0.9647668822620972
% V (V) @ t=0.42
0.013113183686790741
% es.normE (V/m) @ t=0.44
1.4195115927502489
% es.EX (V/m) @ t=0.44
0.9638679826177814
% es.EY (V/m) @ t=0.44
0.27375095017827
% es.EZ (V/m) @ t=0.44
0.9793303754176357
% es.tEX (V/m) @ t=0.44
0.9638679826177707
% es.tEY (V/m) @ t=0.44
0
% es.tEZ (V/m) @ t=0.44
0.979330375417625
% es.Ex (V/m) @ t=0.44
0.9638679826177814
% es.Ey (V/m) @ t=0.44
0.27375095017827
% es.Ez (V/m) @ t=0.44
0.9793303754176357
% es.tEx (V/m) @ t=0.44
0.9638679826177707
% es.tEy (V/m) @ t=0.44
0
% es.tEz (V/m) @ t=0.44
0.979330375417625
% V (V) @ t=0.44
0.01331113036797508
% es.normE (V/m) @ t=0.46
1.4406209623173847
% es.EX (V/m) @ t=0.46
0.9782015258185481
% es.EY (V/m) @ t=0.46
0.27782188396235163
% es.EZ (V/m) @ t=0.46
0.9938938685731387
% es.tEX (V/m) @ t=0.46
0.9782015258185481
% es.tEY (V/m) @ t=0.46
0
% es.tEZ (V/m) @ t=0.46
0.9938938685731245
% es.Ex (V/m) @ t=0.46
0.9782015258185481
% es.Ey (V/m) @ t=0.46
0.27782188396235163
% es.Ez (V/m) @ t=0.46
0.9938938685731387
% es.tEx (V/m) @ t=0.46
0.9782015258185481
% es.tEy (V/m) @ t=0.46
0
% es.tEz (V/m) @ t=0.46
0.9938938685731245
% V (V) @ t=0.46
0.013509077049159417
% es.normE (V/m) @ t=0.48
1.461730331884563
% es.EX (V/m) @ t=0.48
0.9925350690193149
% es.EY (V/m) @ t=0.48
0.28189281774645103
% es.EZ (V/m) @ t=0.48
1.0084573617286878
% es.tEX (V/m) @ t=0.48
0.9925350690193113
% es.tEY (V/m) @ t=0.48
0
% es.tEZ (V/m) @ t=0.48
1.0084573617286665
% es.Ex (V/m) @ t=0.48
0.9925350690193149
% es.Ey (V/m) @ t=0.48
0.28189281774645103
% es.Ez (V/m) @ t=0.48
1.0084573617286878
% es.tEx (V/m) @ t=0.48
0.9925350690193113
% es.tEy (V/m) @ t=0.48
0
% es.tEz (V/m) @ t=0.48
1.0084573617286665
% V (V) @ t=0.48
0.013707023730343758
% es.normE (V/m) @ t=0.5
1.4828397014516936
% es.EX (V/m) @ t=0.5
1.0068686122200532
% es.EY (V/m) @ t=0.5
0.28596375153054865
% es.EZ (V/m) @ t=0.5
1.023020854884198
% es.tEX (V/m) @ t=0.5
1.0068686122200319
% es.tEY (V/m) @ t=0.5
0
% es.tEZ (V/m) @ t=0.5
1.0230208548841802
% es.Ex (V/m) @ t=0.5
1.0068686122200532
% es.Ey (V/m) @ t=0.5
0.28596375153054865
% es.Ez (V/m) @ t=0.5
1.023020854884198
% es.tEx (V/m) @ t=0.5
1.0068686122200319
% es.tEy (V/m) @ t=0.5
0
% es.tEz (V/m) @ t=0.5
1.0230208548841802
% V (V) @ t=0.5
0.013904970411528097
% es.normE (V/m) @ t=0.52
1.5039490710188288
% es.EX (V/m) @ t=0.52
1.0212021554207915
% es.EY (V/m) @ t=0.52
0.29003468531466225
% es.EZ (V/m) @ t=0.52
1.0375843480397098
% es.tEX (V/m) @ t=0.52
1.0212021554207809
% es.tEY (V/m) @ t=0.52
0
% es.tEZ (V/m) @ t=0.52
1.037584348039701
% es.Ex (V/m) @ t=0.52
1.0212021554207915
% es.Ey (V/m) @ t=0.52
0.29003468531466225
% es.Ez (V/m) @ t=0.52
1.0375843480397098
% es.tEx (V/m) @ t=0.52
1.0212021554207809
% es.tEy (V/m) @ t=0.52
0
% es.tEz (V/m) @ t=0.52
1.037584348039701
% V (V) @ t=0.52
0.014102917092712434
% es.normE (V/m) @ t=0.54
1.5250584405860343
% es.EX (V/m) @ t=0.54
1.0355356986216044
% es.EY (V/m) @ t=0.54
0.2941056190987048
% es.EZ (V/m) @ t=0.54
1.0521478411952714
% es.tEX (V/m) @ t=0.54
1.0355356986215725
% es.tEY (V/m) @ t=0.54
0
% es.tEZ (V/m) @ t=0.54
1.05214784119525
% es.Ex (V/m) @ t=0.54
1.0355356986216044
% es.Ey (V/m) @ t=0.54
0.2941056190987048
% es.Ez (V/m) @ t=0.54
1.0521478411952714
% es.tEx (V/m) @ t=0.54
1.0355356986215725
% es.tEy (V/m) @ t=0.54
0
% es.tEz (V/m) @ t=0.54
1.05214784119525
% V (V) @ t=0.54
0.014300863773896774
% es.normE (V/m) @ t=0.56
1.5467424927989497
% es.EX (V/m) @ t=0.56
1.0502594727655783
% es.EY (V/m) @ t=0.56
0.29828735435604514
% es.EZ (V/m) @ t=0.56
1.0671078111358092
% es.tEX (V/m) @ t=0.56
1.0502594727655747
% es.tEY (V/m) @ t=0.56
0
% es.tEZ (V/m) @ t=0.56
1.0671078111357915
% es.Ex (V/m) @ t=0.56
1.0502594727655783
% es.Ey (V/m) @ t=0.56
0.29828735435604514
% es.Ez (V/m) @ t=0.56
1.0671078111358092
% es.tEx (V/m) @ t=0.56
1.0502594727655747
% es.tEy (V/m) @ t=0.56
0
% es.tEz (V/m) @ t=0.56
1.0671078111357915
% V (V) @ t=0.56
0.01450420119054581
% es.normE (V/m) @ t=0.58
1.568833531716069
% es.EX (V/m) @ t=0.58
1.065259606056049
% es.EY (V/m) @ t=0.58
0.3025475585330426
% es.EZ (V/m) @ t=0.58
1.0823485634893935
% es.tEX (V/m) @ t=0.58
1.0652596060560313
% es.tEY (V/m) @ t=0.58
0
% es.tEZ (V/m) @ t=0.58
1.0823485634893757
% es.Ex (V/m) @ t=0.58
1.065259606056049
% es.Ey (V/m) @ t=0.58
0.3025475585330426
% es.Ez (V/m) @ t=0.58
1.0823485634893935
% es.tEx (V/m) @ t=0.58
1.0652596060560313
% es.tEy (V/m) @ t=0.58
0
% es.tEz (V/m) @ t=0.58
1.0823485634893757
% V (V) @ t=0.58
0.014711356292792233
% es.normE (V/m) @ t=0.6
1.5911366942689773
% es.EX (V/m) @ t=0.6
1.080403779204115
% es.EY (V/m) @ t=0.6
0.3068486611285479
% es.EZ (V/m) @ t=0.6
1.0977356611307219
% es.tEX (V/m) @ t=0.6
1.0804037792041186
% es.tEY (V/m) @ t=0.6
0
% es.tEZ (V/m) @ t=0.6
1.0977356611306988
% es.Ex (V/m) @ t=0.6
1.080403779204115
% es.Ey (V/m) @ t=0.6
0.3068486611285479
% es.Ez (V/m) @ t=0.6
1.0977356611307219
% es.tEx (V/m) @ t=0.6
1.0804037792041186
% es.tEy (V/m) @ t=0.6
0
% es.tEz (V/m) @ t=0.6
1.0977356611306988
% V (V) @ t=0.6
0.014920501193085665
% es.normE (V/m) @ t=0.62
1.613651980457622
% es.EX (V/m) @ t=0.62
1.0956919922097939
% es.EY (V/m) @ t=0.62
0.31119066214251134
% es.EZ (V/m) @ t=0.62
1.1132691040597287
% es.tEX (V/m) @ t=0.62
1.0956919922097654
% es.tEY (V/m) @ t=0.62
0
% es.tEZ (V/m) @ t=0.62
1.113269104059711
% es.Ex (V/m) @ t=0.62
1.0956919922097939
% es.Ey (V/m) @ t=0.62
0.31119066214251134
% es.Ez (V/m) @ t=0.62
1.1132691040597287
% es.tEx (V/m) @ t=0.62
1.0956919922097654
% es.tEy (V/m) @ t=0.62
0
% es.tEz (V/m) @ t=0.62
1.113269104059711
% V (V) @ t=0.62
0.015131635891426094
% es.normE (V/m) @ t=0.64
1.6363793902820754
% es.EX (V/m) @ t=0.64
1.111124245073107
% es.EY (V/m) @ t=0.64
0.3155735615750679
% es.EZ (V/m) @ t=0.64
1.1289488922764193
% es.tEX (V/m) @ t=0.64
1.1111242450730856
% es.tEY (V/m) @ t=0.64
0
% es.tEZ (V/m) @ t=0.64
1.1289488922764122
% es.Ex (V/m) @ t=0.64
1.111124245073107
% es.Ey (V/m) @ t=0.64
0.3155735615750679
% es.Ez (V/m) @ t=0.64
1.1289488922764193
% es.tEx (V/m) @ t=0.64
1.1111242450730856
% es.tEy (V/m) @ t=0.64
0
% es.tEz (V/m) @ t=0.64
1.1289488922764122
% V (V) @ t=0.64
0.01534476038781353
% es.normE (V/m) @ t=0.66
1.6593189237422763
% es.EX (V/m) @ t=0.66
1.1267005377939654
% es.EY (V/m) @ t=0.66
0.3199973594260541
% es.EZ (V/m) @ t=0.66
1.1447750257808682
% es.tEX (V/m) @ t=0.66
1.126700537793937
% es.tEY (V/m) @ t=0.66
0
% es.tEZ (V/m) @ t=0.66
1.1447750257808522
% es.Ex (V/m) @ t=0.66
1.1267005377939654
% es.Ey (V/m) @ t=0.66
0.3199973594260541
% es.Ez (V/m) @ t=0.66
1.1447750257808682
% es.tEx (V/m) @ t=0.66
1.126700537793937
% es.tEy (V/m) @ t=0.66
0
% es.tEz (V/m) @ t=0.66
1.1447750257808522
% V (V) @ t=0.66
0.015559874682247973
% es.normE (V/m) @ t=0.68
1.6824705808382334
% es.EX (V/m) @ t=0.68
1.1424208703724972
% es.EY (V/m) @ t=0.68
0.3244620556955091
% es.EZ (V/m) @ t=0.68
1.1607475045729654
% es.tEX (V/m) @ t=0.68
1.1424208703724616
% es.tEY (V/m) @ t=0.68
0
% es.tEZ (V/m) @ t=0.68
1.1607475045729458
% es.Ex (V/m) @ t=0.68
1.1424208703724972
% es.Ey (V/m) @ t=0.68
0.3244620556955091
% es.Ez (V/m) @ t=0.68
1.1607475045729654
% es.tEx (V/m) @ t=0.68
1.1424208703724616
% es.tEy (V/m) @ t=0.68
0
% es.tEz (V/m) @ t=0.68
1.1607475045729458
% V (V) @ t=0.68
0.015776978774729417
% es.normE (V/m) @ t=0.7
1.7058343615699874
% es.EX (V/m) @ t=0.7
1.1582852428086383
% es.EY (V/m) @ t=0.7
0.32896765038344356
% es.EZ (V/m) @ t=0.7
1.1768663286527818
% es.tEX (V/m) @ t=0.7
1.1582852428086028
% es.tEY (V/m) @ t=0.7
0
% es.tEZ (V/m) @ t=0.7
1.176866328652764
% es.Ex (V/m) @ t=0.7
1.1582852428086383
% es.Ey (V/m) @ t=0.7
0.32896765038344356
% es.Ez (V/m) @ t=0.7
1.1768663286527818
% es.tEx (V/m) @ t=0.7
1.1582852428086028
% es.tEy (V/m) @ t=0.7
0
% es.tEz (V/m) @ t=0.7
1.176866328652764
% V (V) @ t=0.7
0.015996072665257863
% es.normE (V/m) @ t=0.72
1.7294102659375692
% es.EX (V/m) @ t=0.72
1.1742936551024101
% es.EY (V/m) @ t=0.72
0.33351414348987163
% es.EZ (V/m) @ t=0.72
1.193131498020355
% es.tEX (V/m) @ t=0.72
1.1742936551023888
% es.tEY (V/m) @ t=0.72
0
% es.tEZ (V/m) @ t=0.72
1.1931314980203354
% es.Ex (V/m) @ t=0.72
1.1742936551024101
% es.Ey (V/m) @ t=0.72
0.33351414348987163
% es.Ez (V/m) @ t=0.72
1.193131498020355
% es.tEx (V/m) @ t=0.72
1.1742936551023888
% es.tEy (V/m) @ t=0.72
0
% es.tEz (V/m) @ t=0.72
1.1931314980203354
% V (V) @ t=0.72
0.016217156353833313
% es.normE (V/m) @ t=0.74
1.7531982939408999
% es.EX (V/m) @ t=0.74
1.1904461072537984
% es.EY (V/m) @ t=0.74
0.338101535014804
% es.EZ (V/m) @ t=0.74
1.209543012675578
% es.tEX (V/m) @ t=0.74
1.1904461072537629
% es.tEY (V/m) @ t=0.74
0
% es.tEZ (V/m) @ t=0.74
1.2095430126755602
% es.Ex (V/m) @ t=0.74
1.1904461072537984
% es.Ey (V/m) @ t=0.74
0.338101535014804
% es.Ez (V/m) @ t=0.74
1.209543012675578
% es.tEx (V/m) @ t=0.74
1.1904461072537629
% es.tEy (V/m) @ t=0.74
0
% es.tEz (V/m) @ t=0.74
1.2095430126755602
% V (V) @ t=0.74
0.016440229840455768
% es.normE (V/m) @ t=0.76
1.777198445579988
% es.EX (V/m) @ t=0.76
1.2067425992626966
% es.EY (V/m) @ t=0.76
0.34272982495827975
% es.EZ (V/m) @ t=0.76
1.2261008726185434
% es.tEX (V/m) @ t=0.76
1.2067425992626966
% es.tEY (V/m) @ t=0.76
0
% es.tEZ (V/m) @ t=0.76
1.2261008726185239
% es.Ex (V/m) @ t=0.76
1.2067425992626966
% es.Ey (V/m) @ t=0.76
0.34272982495827975
% es.Ez (V/m) @ t=0.76
1.2261008726185434
% es.tEx (V/m) @ t=0.76
1.2067425992626966
% es.tEy (V/m) @ t=0.76
0
% es.tEz (V/m) @ t=0.76
1.2261008726185239
% V (V) @ t=0.76
0.016665293125125227
% es.normE (V/m) @ t=0.78
1.8014107208548715
% es.EX (V/m) @ t=0.78
1.2231831311292964
% es.EY (V/m) @ t=0.78
0.3473990133201852
% es.EZ (V/m) @ t=0.78
1.242805077849173
% es.tEX (V/m) @ t=0.78
1.2231831311292751
% es.tEY (V/m) @ t=0.78
0
% es.tEZ (V/m) @ t=0.78
1.2428050778491553
% es.Ex (V/m) @ t=0.78
1.2231831311292964
% es.Ey (V/m) @ t=0.78
0.3473990133201852
% es.Ez (V/m) @ t=0.78
1.242805077849173
% es.tEx (V/m) @ t=0.78
1.2231831311292751
% es.tEy (V/m) @ t=0.78
0
% es.tEz (V/m) @ t=0.78
1.2428050778491553
% V (V) @ t=0.78
0.016892346207841687
% es.normE (V/m) @ t=0.8
1.8258351197655636
% es.EX (V/m) @ t=0.8
1.2397677028534844
% es.EY (V/m) @ t=0.8
0.3521091001006127
% es.EZ (V/m) @ t=0.8
1.259655628367522
% es.tEX (V/m) @ t=0.8
1.2397677028534702
% es.tEY (V/m) @ t=0.8
0
% es.tEZ (V/m) @ t=0.8
1.2596556283675113
% es.Ex (V/m) @ t=0.8
1.2397677028534844
% es.Ey (V/m) @ t=0.8
0.3521091001006127
% es.Ez (V/m) @ t=0.8
1.259655628367522
% es.tEx (V/m) @ t=0.8
1.2397677028534702
% es.tEy (V/m) @ t=0.8
0
% es.tEz (V/m) @ t=0.8
1.2596556283675113
% V (V) @ t=0.8
0.017121389088605155
% es.normE (V/m) @ t=0.82
1.8505058676188546
% es.EX (V/m) @ t=0.82
1.2565195416877586
% es.EY (V/m) @ t=0.82
0.35686670834581236
% es.EZ (V/m) @ t=0.82
1.2766761370453956
% es.tEX (V/m) @ t=0.82
1.2565195416877657
% es.tEY (V/m) @ t=0.82
0
% es.tEZ (V/m) @ t=0.82
1.276676137045385
% es.Ex (V/m) @ t=0.82
1.2565195416877586
% es.Ey (V/m) @ t=0.82
0.35686670834581236
% es.Ez (V/m) @ t=0.82
1.2766761370453956
% es.tEx (V/m) @ t=0.82
1.2565195416877657
% es.tEy (V/m) @ t=0.82
0
% es.tEz (V/m) @ t=0.82
1.276676137045385
% V (V) @ t=0.82
0.017352741110523612
% es.normE (V/m) @ t=0.84
1.8757973438897713
% es.EX (V/m) @ t=0.84
1.2736927229754258
% es.EY (V/m) @ t=0.84
0.3617442854014854
% es.EZ (V/m) @ t=0.84
1.2941248973903239
% es.tEX (V/m) @ t=0.84
1.2736927229753974
% es.tEY (V/m) @ t=0.84
0
% es.tEZ (V/m) @ t=0.84
1.2941248973903043
% es.Ex (V/m) @ t=0.84
1.2736927229754258
% es.Ey (V/m) @ t=0.84
0.3617442854014854
% es.Ez (V/m) @ t=0.84
1.2941248973903239
% es.tEx (V/m) @ t=0.84
1.2736927229753974
% es.tEy (V/m) @ t=0.84
0
% es.tEz (V/m) @ t=0.84
1.2941248973903043
% V (V) @ t=0.84
0.01758989546376532
% es.normE (V/m) @ t=0.86
1.9013607763096738
% es.EX (V/m) @ t=0.86
1.2910505498892704
% es.EY (V/m) @ t=0.86
0.3666743392526932
% es.EZ (V/m) @ t=0.86
1.3117612829294352
% es.tEX (V/m) @ t=0.86
1.2910505498892348
% es.tEY (V/m) @ t=0.86
0
% es.tEZ (V/m) @ t=0.86
1.3117612829294245
% es.Ex (V/m) @ t=0.86
1.2910505498892704
% es.Ey (V/m) @ t=0.86
0.3666743392526932
% es.Ez (V/m) @ t=0.86
1.3117612829294352
% es.tEx (V/m) @ t=0.86
1.2910505498892348
% es.tEy (V/m) @ t=0.86
0
% es.tEz (V/m) @ t=0.86
1.3117612829294245
% V (V) @ t=0.86
0.01782959788910584
% es.normE (V/m) @ t=0.88
1.92719616487835
% es.EX (V/m) @ t=0.88
1.3085930224291573
% es.EY (V/m) @ t=0.88
0.37165686989956725
% es.EZ (V/m) @ t=0.88
1.3295852936625003
% es.tEX (V/m) @ t=0.88
1.308593022429136
% es.tEY (V/m) @ t=0.88
0
% es.tEZ (V/m) @ t=0.88
1.3295852936624897
% es.Ex (V/m) @ t=0.88
1.3085930224291573
% es.Ey (V/m) @ t=0.88
0.37165686989956725
% es.Ez (V/m) @ t=0.88
1.3295852936625003
% es.tEx (V/m) @ t=0.88
1.308593022429136
% es.tEy (V/m) @ t=0.88
0
% es.tEz (V/m) @ t=0.88
1.3295852936624897
% V (V) @ t=0.88
0.018071848386545162
% es.normE (V/m) @ t=0.9
1.9533035095961149
% es.EX (V/m) @ t=0.9
1.3263201405953353
% es.EY (V/m) @ t=0.9
0.37669187734194054
% es.EZ (V/m) @ t=0.9
1.3475969295897219
% es.tEX (V/m) @ t=0.9
1.3263201405952998
% es.tEY (V/m) @ t=0.9
0
% es.tEZ (V/m) @ t=0.9
1.3475969295896704
% es.Ex (V/m) @ t=0.9
1.3263201405953353
% es.Ey (V/m) @ t=0.9
0.37669187734194054
% es.Ez (V/m) @ t=0.9
1.3475969295897219
% es.tEx (V/m) @ t=0.9
1.3263201405952998
% es.tEy (V/m) @ t=0.9
0
% es.tEz (V/m) @ t=0.9
1.3475969295896704
% V (V) @ t=0.9
0.018316646956083295
% es.normE (V/m) @ t=0.92
1.9796828104627746
% es.EX (V/m) @ t=0.92
1.344231904387577
% es.EY (V/m) @ t=0.92
0.3817793615799978
% es.EZ (V/m) @ t=0.92
1.3657961907109755
% es.tEX (V/m) @ t=0.92
1.3442319043875557
% es.tEY (V/m) @ t=0.92
0
% es.tEZ (V/m) @ t=0.92
1.3657961907109666
% es.Ex (V/m) @ t=0.92
1.344231904387577
% es.Ey (V/m) @ t=0.92
0.3817793615799978
% es.Ez (V/m) @ t=0.92
1.3657961907109755
% es.tEx (V/m) @ t=0.92
1.3442319043875557
% es.tEy (V/m) @ t=0.92
0
% es.tEz (V/m) @ t=0.92
1.3657961907109666
% V (V) @ t=0.92
0.018563993597720235
% es.normE (V/m) @ t=0.94
2.0063340674785124
% es.EX (V/m) @ t=0.94
1.3623283138060174
% es.EY (V/m) @ t=0.94
0.38691932261371065
% es.EZ (V/m) @ t=0.94
1.3841830770263304
% es.tEX (V/m) @ t=0.94
1.3623283138060458
% es.tEY (V/m) @ t=0.94
0
% es.tEZ (V/m) @ t=0.94
1.3841830770263073
% es.Ex (V/m) @ t=0.94
1.3623283138060174
% es.Ey (V/m) @ t=0.94
0.38691932261371065
% es.Ez (V/m) @ t=0.94
1.3841830770263304
% es.tEx (V/m) @ t=0.94
1.3623283138060458
% es.tEy (V/m) @ t=0.94
0
% es.tEz (V/m) @ t=0.94
1.3841830770263073
% V (V) @ t=0.94
0.018813888311455983
% es.normE (V/m) @ t=0.96
2.0332572806431894
% es.EX (V/m) @ t=0.96
1.3806093688506067
% es.EY (V/m) @ t=0.96
0.3921117604429085
% es.EZ (V/m) @ t=0.96
1.4027575885357262
% es.tEX (V/m) @ t=0.96
1.3806093688505712
% es.tEY (V/m) @ t=0.96
0
% es.tEZ (V/m) @ t=0.96
1.4027575885357066
% es.Ex (V/m) @ t=0.96
1.3806093688506067
% es.Ey (V/m) @ t=0.96
0.3921117604429085
% es.Ez (V/m) @ t=0.96
1.4027575885357262
% es.tEx (V/m) @ t=0.96
1.3806093688505712
% es.tEy (V/m) @ t=0.96
0
% es.tEz (V/m) @ t=0.96
1.4027575885357066
% V (V) @ t=0.96
0.019066331097290536
% es.normE (V/m) @ t=0.98
2.060452449956901
% es.EX (V/m) @ t=0.98
1.3990750695212597
% es.EY (V/m) @ t=0.98
0.39735667506776196
% es.EZ (V/m) @ t=0.98
1.4215197252392482
% es.tEX (V/m) @ t=0.98
1.3990750695212455
% es.tEY (V/m) @ t=0.98
0
% es.tEZ (V/m) @ t=0.98
1.4215197252392358
% es.Ex (V/m) @ t=0.98
1.3990750695212597
% es.Ey (V/m) @ t=0.98
0.39735667506776196
% es.Ez (V/m) @ t=0.98
1.4215197252392482
% es.tEx (V/m) @ t=0.98
1.3990750695212455
% es.tEy (V/m) @ t=0.98
0
% es.tEz (V/m) @ t=0.98
1.4215197252392358
% V (V) @ t=0.98
0.019321321955223895
% es.normE (V/m) @ t=1
2.0879195754197273
% es.EX (V/m) @ t=1
1.417725415818083
% es.EY (V/m) @ t=1
0.40265406648830293
% es.EZ (V/m) @ t=1
1.4404694871368253
% es.tEX (V/m) @ t=1
1.4177254158180972
% es.tEY (V/m) @ t=1
0
% es.tEZ (V/m) @ t=1
1.440469487136781
% es.Ex (V/m) @ t=1
1.417725415818083
% es.Ey (V/m) @ t=1
0.40265406648830293
% es.Ez (V/m) @ t=1
1.4404694871368253
% es.tEx (V/m) @ t=1
1.4177254158180972
% es.tEy (V/m) @ t=1
0
% es.tEz (V/m) @ t=1
1.440469487136781
% V (V) @ t=1
0.019578860885256066
% es.normE (V/m) @ t=1.02
2.1156586570316183
% es.EX (V/m) @ t=1.02
1.4365604077411191
% es.EY (V/m) @ t=1.02
0.4080039347043183
% es.EZ (V/m) @ t=1.02
1.459606874228438
% es.tEX (V/m) @ t=1.02
1.4365604077411263
% es.tEY (V/m) @ t=1.02
0
% es.tEZ (V/m) @ t=1.02
1.4596068742284132
% es.Ex (V/m) @ t=1.02
1.4365604077411191
% es.Ey (V/m) @ t=1.02
0.4080039347043183
% es.Ez (V/m) @ t=1.02
1.459606874228438
% es.tEx (V/m) @ t=1.02
1.4365604077411263
% es.tEy (V/m) @ t=1.02
0
% es.tEz (V/m) @ t=1.02
1.4596068742284132
% V (V) @ t=1.02
0.01983894788738704
% es.normE (V/m) @ t=1.04
2.143669694792759
% es.EX (V/m) @ t=1.04
1.4555800452903611
% es.EY (V/m) @ t=1.04
0.4134062797159963
% es.EZ (V/m) @ t=1.04
1.4789318865141947
% es.tEX (V/m) @ t=1.04
1.4555800452903895
% es.tEY (V/m) @ t=1.04
0
% es.tEZ (V/m) @ t=1.04
1.478931886514161
% es.Ex (V/m) @ t=1.04
1.4555800452903611
% es.Ey (V/m) @ t=1.04
0.4134062797159963
% es.Ez (V/m) @ t=1.04
1.4789318865141947
% es.tEx (V/m) @ t=1.04
1.4555800452903895