% Model:              1 neuron.mph
% Version:            COMSOL 6.0.0.405
% Date:               Mar 16 2023, 18:36
% Dimension:          0
% Nodes:              14017
% Expressions:        14017
% Description:        Electric field norm, Electric field, X component, Electric field, Y component, Electric field, Z component, Tangential electric field, X component, Tangential electric field, Y component, Tangential electric field, Z component, Electric field, x component, Electric field, y component, Electric field, z component, Tangential electric field, x component, Tangential electric field, y component, Tangential electric field, z component, Electric potential
% Length unit:        mm
% x
1.66
% y
12.2
% z
1
% es.normE (V/m) @ t=0
2.219541184055691
% es.EX (V/m) @ t=0
-0.7911249446828622
% es.EY (V/m) @ t=0
0.25133766396566015
% es.EZ (V/m) @ t=0
2.052097953670952
% es.tEX (V/m) @ t=0
-0.7911249446828658
% es.tEY (V/m) @ t=0
0
% es.tEZ (V/m) @ t=0
2.0520979536709536
% es.Ex (V/m) @ t=0
-0.7911249446828622
% es.Ey (V/m) @ t=0
0.25133766396566015
% es.Ez (V/m) @ t=0
2.052097953670952
% es.tEx (V/m) @ t=0
-0.7911249446828658
% es.tEy (V/m) @ t=0
0
% es.tEz (V/m) @ t=0
2.0520979536709536
% V (V) @ t=0
0.010806482443070725
% es.normE (V/m) @ t=0.02
1.9276883350457101
% es.EX (V/m) @ t=0.02
-0.6870980085723731
% es.EY (V/m) @ t=0.02
0.21828866664166546
% es.EZ (V/m) @ t=0.02
1.7822626207370398
% es.tEX (V/m) @ t=0.02
-0.6870980085723802
% es.tEY (V/m) @ t=0.02
0
% es.tEZ (V/m) @ t=0.02
1.7822626207370416
% es.Ex (V/m) @ t=0.02
-0.6870980085723731
% es.Ey (V/m) @ t=0.02
0.21828866664166546
% es.Ez (V/m) @ t=0.02
1.7822626207370398
% es.tEx (V/m) @ t=0.02
-0.6870980085723802
% es.tEy (V/m) @ t=0.02
0
% es.tEz (V/m) @ t=0.02
1.7822626207370416
% V (V) @ t=0.02
0.009385511827060287
% es.normE (V/m) @ t=0.04
1.9562690601725585
% es.EX (V/m) @ t=0.04
-0.6972852164391127
% es.EY (V/m) @ t=0.04
0.2215251461540857
% es.EZ (V/m) @ t=0.04
1.8086872005067756
% es.tEX (V/m) @ t=0.04
-0.6972852164391269
% es.tEY (V/m) @ t=0.04
0
% es.tEZ (V/m) @ t=0.04
1.8086872005067747
% es.Ex (V/m) @ t=0.04
-0.6972852164391127
% es.Ey (V/m) @ t=0.04
0.2215251461540857
% es.Ez (V/m) @ t=0.04
1.8086872005067756
% es.tEx (V/m) @ t=0.04
-0.6972852164391269
% es.tEy (V/m) @ t=0.04
0
% es.tEz (V/m) @ t=0.04
1.8086872005067747
% V (V) @ t=0.04
0.009524663699679612
% es.normE (V/m) @ t=0.06
1.9852973237772507
% es.EX (V/m) @ t=0.06
-0.707631945962108
% es.EY (V/m) @ t=0.06
0.22481238707567686
% es.EZ (V/m) @ t=0.06
1.8355255519646931
% es.tEX (V/m) @ t=0.06
-0.7076319459621222
% es.tEY (V/m) @ t=0.06
0
% es.tEZ (V/m) @ t=0.06
1.8355255519646985
% es.Ex (V/m) @ t=0.06
-0.707631945962108
% es.Ey (V/m) @ t=0.06
0.22481238707567686
% es.Ez (V/m) @ t=0.06
1.8355255519646931
% es.tEx (V/m) @ t=0.06
-0.7076319459621222
% es.tEy (V/m) @ t=0.06
0
% es.tEz (V/m) @ t=0.06
1.8355255519646985
% V (V) @ t=0.06
0.00966599092682761
% es.normE (V/m) @ t=0.08
2.0150213297350223
% es.EX (V/m) @ t=0.08
-0.7182266597677806
% es.EY (V/m) @ t=0.08
0.22817830454374355
% es.EZ (V/m) @ t=0.08
1.8630071642239923
% es.tEX (V/m) @ t=0.08
-0.7182266597677948
% es.tEY (V/m) @ t=0.08
0
% es.tEZ (V/m) @ t=0.08
1.8630071642239994
% es.Ex (V/m) @ t=0.08
-0.7182266597677806
% es.Ey (V/m) @ t=0.08
0.22817830454374355
% es.Ez (V/m) @ t=0.08
1.8630071642239923
% es.tEx (V/m) @ t=0.08
-0.7182266597677948
% es.tEy (V/m) @ t=0.08
0
% es.tEz (V/m) @ t=0.08
1.8630071642239994
% V (V) @ t=0.08
0.009810710308209254
% es.normE (V/m) @ t=0.1
2.0453232090365288
% es.EX (V/m) @ t=0.1
-0.7290273456635541
% es.EY (V/m) @ t=0.1
0.23160956959169154
% es.EZ (V/m) @ t=0.1
1.8910230594237252
% es.tEX (V/m) @ t=0.1
-0.7290273456635612
% es.tEY (V/m) @ t=0.1
0
% es.tEZ (V/m) @ t=0.1
1.8910230594237287
% es.Ex (V/m) @ t=0.1
-0.7290273456635541
% es.Ey (V/m) @ t=0.1
0.23160956959169154
% es.Ez (V/m) @ t=0.1
1.8910230594237252
% es.tEx (V/m) @ t=0.1
-0.7290273456635612
% es.tEy (V/m) @ t=0.1
0
% es.tEz (V/m) @ t=0.1
1.8910230594237287
% V (V) @ t=0.1
0.009958247162899428
% es.normE (V/m) @ t=0.12
2.075625088338013
% es.EX (V/m) @ t=0.12
-0.7398280315592884
% es.EY (V/m) @ t=0.12
0.23504083463963554
% es.EZ (V/m) @ t=0.12
1.9190389546234412
% es.tEX (V/m) @ t=0.12
-0.7398280315592991
% es.tEY (V/m) @ t=0.12
0
% es.tEZ (V/m) @ t=0.12
1.9190389546234439
% es.Ex (V/m) @ t=0.12
-0.7398280315592884
% es.Ey (V/m) @ t=0.12
0.23504083463963554
% es.Ez (V/m) @ t=0.12
1.9190389546234412
% es.tEx (V/m) @ t=0.12
-0.7398280315592991
% es.tEy (V/m) @ t=0.12
0
% es.tEz (V/m) @ t=0.12
1.9190389546234439
% V (V) @ t=0.12
0.010105784017589606
% es.normE (V/m) @ t=0.14
2.106210469279382
% es.EX (V/m) @ t=0.14
-0.7507297690391779
% es.EY (V/m) @ t=0.14
0.23850424542181137
% es.EZ (V/m) @ t=0.14
1.9473169618041943
% es.tEX (V/m) @ t=0.14
-0.750729769039185
% es.tEY (V/m) @ t=0.14
0
% es.tEZ (V/m) @ t=0.14
1.947316961804189
% es.Ex (V/m) @ t=0.14
-0.7507297690391779
% es.Ey (V/m) @ t=0.14
0.23850424542181137
% es.Ez (V/m) @ t=0.14
1.9473169618041943
% es.tEx (V/m) @ t=0.14
-0.750729769039185
% es.tEy (V/m) @ t=0.14
0
% es.tEz (V/m) @ t=0.14
1.947316961804189
% V (V) @ t=0.14
0.010254699330931184
% es.normE (V/m) @ t=0.16
2.1392745655045013
% es.EX (V/m) @ t=0.16
-0.7625150220647167
% es.EY (V/m) @ t=0.16
0.24224871321226704
% es.EZ (V/m) @ t=0.16
1.9778866699208564
% es.tEX (V/m) @ t=0.16
-0.7625150220647309
% es.tEY (V/m) @ t=0.16
0
% es.tEZ (V/m) @ t=0.16
1.9778866699208653
% es.Ex (V/m) @ t=0.16
-0.7625150220647167
% es.Ey (V/m) @ t=0.16
0.24224871321226704
% es.Ez (V/m) @ t=0.16
1.9778866699208564
% es.tEx (V/m) @ t=0.16
-0.7625150220647309
% es.tEy (V/m) @ t=0.16
0
% es.tEz (V/m) @ t=0.16
1.9778866699208653
% V (V) @ t=0.16
0.010415666802168082
% es.normE (V/m) @ t=0.18
2.17233866172974
% es.EX (V/m) @ t=0.18
-0.7743002750902447
% es.EY (V/m) @ t=0.18
0.2459931810027225
% es.EZ (V/m) @ t=0.18
2.008456378037531
% es.tEX (V/m) @ t=0.18
-0.7743002750902553
% es.tEY (V/m) @ t=0.18
0
% es.tEZ (V/m) @ t=0.18
2.008456378037522
% es.Ex (V/m) @ t=0.18
-0.7743002750902447
% es.Ey (V/m) @ t=0.18
0.2459931810027225
% es.Ez (V/m) @ t=0.18
2.008456378037531
% es.tEx (V/m) @ t=0.18
-0.7743002750902553
% es.tEy (V/m) @ t=0.18
0
% es.tEz (V/m) @ t=0.18
2.008456378037522
% V (V) @ t=0.18
0.01057663427340498
% es.normE (V/m) @ t=0.2
2.205402757955068
% es.EX (V/m) @ t=0.2
-0.7860855281157727
% es.EY (V/m) @ t=0.2
0.24973764879319593
% es.EZ (V/m) @ t=0.2
2.0390260861541867
% es.tEX (V/m) @ t=0.2
-0.7860855281157869
% es.tEY (V/m) @ t=0.2
0
% es.tEZ (V/m) @ t=0.2
2.0390260861541876
% es.Ex (V/m) @ t=0.2
-0.7860855281157727
% es.Ey (V/m) @ t=0.2
0.24973764879319593
% es.Ez (V/m) @ t=0.2
2.0390260861541867
% es.tEx (V/m) @ t=0.2
-0.7860855281157869
% es.tEy (V/m) @ t=0.2
0
% es.tEz (V/m) @ t=0.2
2.0390260861541876
% V (V) @ t=0.2
0.01073760174464188
% es.normE (V/m) @ t=0.22
2.2384668541805093
% es.EX (V/m) @ t=0.22
-0.7978707811413185
% es.EY (V/m) @ t=0.22
0.25348211658365605
% es.EZ (V/m) @ t=0.22
2.0695957942708523
% es.tEX (V/m) @ t=0.22
-0.7978707811413256
% es.tEY (V/m) @ t=0.22
0
% es.tEZ (V/m) @ t=0.22
2.069595794270855
% es.Ex (V/m) @ t=0.22
-0.7978707811413185
% es.Ey (V/m) @ t=0.22
0.25348211658365605
% es.Ez (V/m) @ t=0.22
2.0695957942708523
% es.tEx (V/m) @ t=0.22
-0.7978707811413256
% es.tEy (V/m) @ t=0.22
0
% es.tEz (V/m) @ t=0.22
2.069595794270855
% V (V) @ t=0.22
0.010898569215878779
% es.normE (V/m) @ t=0.24
2.271530950406044
% es.EX (V/m) @ t=0.24
-0.8096560341668396
% es.EY (V/m) @ t=0.24
0.2572265843741377
% es.EZ (V/m) @ t=0.24
2.1001655023875196
% es.tEX (V/m) @ t=0.24
-0.8096560341668574
% es.tEY (V/m) @ t=0.24
0
% es.tEZ (V/m) @ t=0.24
2.1001655023875188
% es.Ex (V/m) @ t=0.24
-0.8096560341668396
% es.Ey (V/m) @ t=0.24
0.2572265843741377
% es.Ez (V/m) @ t=0.24
2.1001655023875196
% es.tEx (V/m) @ t=0.24
-0.8096560341668574
% es.tEy (V/m) @ t=0.24
0
% es.tEz (V/m) @ t=0.24
2.1001655023875188
% V (V) @ t=0.24
0.011059536687115675
% es.normE (V/m) @ t=0.26
2.30459504663167
% es.EX (V/m) @ t=0.26
-0.8214412871923712
% es.EY (V/m) @ t=0.26
0.26097105216459315
% es.EZ (V/m) @ t=0.26
2.1307352105041852
% es.tEX (V/m) @ t=0.26
-0.8214412871923819
% es.tEY (V/m) @ t=0.26
0
% es.tEZ (V/m) @ t=0.26
2.130735210504186
% es.Ex (V/m) @ t=0.26
-0.8214412871923712
% es.Ey (V/m) @ t=0.26
0.26097105216459315
% es.Ez (V/m) @ t=0.26
2.1307352105041852
% es.tEx (V/m) @ t=0.26
-0.8214412871923819
% es.tEy (V/m) @ t=0.26
0
% es.tEz (V/m) @ t=0.26
2.130735210504186
% V (V) @ t=0.26
0.011220504158352575
% es.normE (V/m) @ t=0.28
2.3383021152788004
% es.EX (V/m) @ t=0.28
-0.8334557144979784
% es.EY (V/m) @ t=0.28
0.2647881872316431
% es.EZ (V/m) @ t=0.28
2.1618993921286265
% es.tEX (V/m) @ t=0.28
-0.8334557144979855
% es.tEY (V/m) @ t=0.28
0
% es.tEZ (V/m) @ t=0.28
2.1618993921286283
% es.Ex (V/m) @ t=0.28
-0.8334557144979784
% es.Ey (V/m) @ t=0.28
0.2647881872316431
% es.Ez (V/m) @ t=0.28
2.1618993921286265
% es.tEx (V/m) @ t=0.28
-0.8334557144979855
% es.tEy (V/m) @ t=0.28
0
% es.tEz (V/m) @ t=0.28
2.1618993921286283
% V (V) @ t=0.28
0.011384608326841544
% es.normE (V/m) @ t=0.3
2.374351783571525
% es.EX (V/m) @ t=0.3
-0.846305113210376
% es.EY (V/m) @ t=0.3
0.2688700775676487
% es.EZ (V/m) @ t=0.3
2.1952294729148125
% es.tEX (V/m) @ t=0.3
-0.8463051132103903
% es.tEY (V/m) @ t=0.3
0
% es.tEZ (V/m) @ t=0.3
2.195229472914818
% es.Ex (V/m) @ t=0.3
-0.846305113210376
% es.Ey (V/m) @ t=0.3
0.2688700775676487
% es.Ez (V/m) @ t=0.3
2.1952294729148125
% es.tEx (V/m) @ t=0.3
-0.8463051132103903
% es.tEy (V/m) @ t=0.3
0
% es.tEz (V/m) @ t=0.3
2.195229472914818
% V (V) @ t=0.3
0.011560140708463638
% es.normE (V/m) @ t=0.32
2.410401451864363
% es.EX (V/m) @ t=0.32
-0.8591545119227879
% es.EY (V/m) @ t=0.32
0.2729519679036476
% es.EZ (V/m) @ t=0.32
2.228559553700996
% es.tEX (V/m) @ t=0.32
-0.8591545119228021
% es.tEY (V/m) @ t=0.32
0
% es.tEZ (V/m) @ t=0.32
2.228559553700997
% es.Ex (V/m) @ t=0.32
-0.8591545119227879
% es.Ey (V/m) @ t=0.32
0.2729519679036476
% es.Ez (V/m) @ t=0.32
2.228559553700996
% es.tEx (V/m) @ t=0.32
-0.8591545119228021
% es.tEy (V/m) @ t=0.32
0
% es.tEz (V/m) @ t=0.32
2.228559553700997
% V (V) @ t=0.32
0.01173567309008573
% es.normE (V/m) @ t=0.34
2.4464511201573016
% es.EX (V/m) @ t=0.34
-0.8720039106351716
% es.EY (V/m) @ t=0.34
0.2770338582396632
% es.EZ (V/m) @ t=0.34
2.2618896344871855
% es.tEX (V/m) @ t=0.34
-0.8720039106351787
% es.tEY (V/m) @ t=0.34
0
% es.tEZ (V/m) @ t=0.34
2.26188963448719
% es.Ex (V/m) @ t=0.34
-0.8720039106351716
% es.Ey (V/m) @ t=0.34
0.2770338582396632
% es.Ez (V/m) @ t=0.34
2.2618896344871855
% es.tEx (V/m) @ t=0.34
-0.8720039106351787
% es.tEy (V/m) @ t=0.34
0
% es.tEz (V/m) @ t=0.34
2.26188963448719
% V (V) @ t=0.34
0.011911205471707823
% es.normE (V/m) @ t=0.36
2.4825007884503374
% es.EX (V/m) @ t=0.36
-0.8848533093475832
% es.EY (V/m) @ t=0.36
0.28111574857566546
% es.EZ (V/m) @ t=0.36
2.295219715273361
% es.tEX (V/m) @ t=0.36
-0.8848533093475974
% es.tEY (V/m) @ t=0.36
0
% es.tEZ (V/m) @ t=0.36
2.2952197152733653
% es.Ex (V/m) @ t=0.36
-0.8848533093475832
% es.Ey (V/m) @ t=0.36
0.28111574857566546
% es.Ez (V/m) @ t=0.36
2.295219715273361
% es.tEx (V/m) @ t=0.36
-0.8848533093475974
% es.tEy (V/m) @ t=0.36
0
% es.tEz (V/m) @ t=0.36
2.2952197152733653
% V (V) @ t=0.36
0.012086737853329917
% es.normE (V/m) @ t=0.38
2.5185504567434753
% es.EX (V/m) @ t=0.38
-0.8977027080599775
% es.EY (V/m) @ t=0.38
0.2851976389116697
% es.EZ (V/m) @ t=0.38
2.328549796059547
% es.tEX (V/m) @ t=0.38
-0.8977027080599953
% es.tEY (V/m) @ t=0.38
0
% es.tEZ (V/m) @ t=0.38
2.3285497960595514
% es.Ex (V/m) @ t=0.38
-0.8977027080599775
% es.Ey (V/m) @ t=0.38
0.2851976389116697
% es.Ez (V/m) @ t=0.38
2.328549796059547
% es.tEx (V/m) @ t=0.38
-0.8977027080599953
% es.tEy (V/m) @ t=0.38
0
% es.tEz (V/m) @ t=0.38
2.3285497960595514
% V (V) @ t=0.38
0.012262270234952011
% es.normE (V/m) @ t=0.4
2.554600125036706
% es.EX (V/m) @ t=0.4
-0.9105521067723858
% es.EY (V/m) @ t=0.4
0.289279529247672
% es.EZ (V/m) @ t=0.4
2.3618798768457268
% es.tEX (V/m) @ t=0.4
-0.910552106772393
% es.tEY (V/m) @ t=0.4
0
% es.tEZ (V/m) @ t=0.4
2.3618798768457285
% es.Ex (V/m) @ t=0.4
-0.9105521067723858
% es.Ey (V/m) @ t=0.4
0.289279529247672
% es.Ez (V/m) @ t=0.4
2.3618798768457268
% es.tEx (V/m) @ t=0.4
-0.910552106772393
% es.tEy (V/m) @ t=0.4
0
% es.tEz (V/m) @ t=0.4
2.3618798768457285
% V (V) @ t=0.4
0.012437802616574102
% es.normE (V/m) @ t=0.42
2.591703728204331
% es.EX (V/m) @ t=0.42
-0.9237771684138232
% es.EY (V/m) @ t=0.42
0.29348084079554604
% es.EZ (V/m) @ t=0.42
2.3961843793385365
% es.tEX (V/m) @ t=0.42
-0.9237771684138409
% es.tEY (V/m) @ t=0.42
0
% es.tEZ (V/m) @ t=0.42
2.3961843793385373
% es.Ex (V/m) @ t=0.42
-0.9237771684138232
% es.Ey (V/m) @ t=0.42
0.29348084079554604
% es.Ez (V/m) @ t=0.42
2.3961843793385365
% es.tEx (V/m) @ t=0.42
-0.9237771684138409
% es.tEy (V/m) @ t=0.42
0
% es.tEz (V/m) @ t=0.42
2.3961843793385373
% V (V) @ t=0.42
0.01261846310717814
% es.normE (V/m) @ t=0.44
2.630965787923797
% es.EX (V/m) @ t=0.44
-0.9377715869958119
% es.EY (V/m) @ t=0.44
0.29792672675065845
% es.EZ (V/m) @ t=0.44
2.432484495571984
% es.tEX (V/m) @ t=0.44
-0.9377715869958261
% es.tEY (V/m) @ t=0.44
0
% es.tEZ (V/m) @ t=0.44
2.432484495571984
% es.Ex (V/m) @ t=0.44
-0.9377715869958119
% es.Ey (V/m) @ t=0.44
0.29792672675065845
% es.Ez (V/m) @ t=0.44
2.432484495571984
% es.tEx (V/m) @ t=0.44
-0.9377715869958261
% es.tEy (V/m) @ t=0.44
0
% es.tEz (V/m) @ t=0.44
2.432484495571984
% V (V) @ t=0.44
0.012809625954901482
% es.normE (V/m) @ t=0.46
2.6702278476432726
% es.EX (V/m) @ t=0.46
-0.9517660055778143
% es.EY (V/m) @ t=0.46
0.30237261270578464
% es.EZ (V/m) @ t=0.46
2.468784611805427
% es.tEX (V/m) @ t=0.46
-0.9517660055778321
% es.tEY (V/m) @ t=0.46
0
% es.tEZ (V/m) @ t=0.46
2.4687846118054377
% es.Ex (V/m) @ t=0.46
-0.9517660055778143
% es.Ey (V/m) @ t=0.46
0.30237261270578464
% es.Ez (V/m) @ t=0.46
2.468784611805427
% es.tEx (V/m) @ t=0.46
-0.9517660055778321
% es.tEy (V/m) @ t=0.46
0
% es.tEz (V/m) @ t=0.46
2.4687846118054377
% V (V) @ t=0.46
0.013000788802624823
% es.normE (V/m) @ t=0.48
2.7094899073627627
% es.EX (V/m) @ t=0.48
-0.9657604241598241
% es.EY (V/m) @ t=0.48
0.30681849866090394
% es.EZ (V/m) @ t=0.48
2.5050847280388773
% es.tEX (V/m) @ t=0.48
-0.9657604241598312
% es.tEY (V/m) @ t=0.48
0
% es.tEZ (V/m) @ t=0.48
2.5050847280388844
% es.Ex (V/m) @ t=0.48
-0.9657604241598241
% es.Ey (V/m) @ t=0.48
0.30681849866090394
% es.Ez (V/m) @ t=0.48
2.5050847280388773
% es.tEx (V/m) @ t=0.48
-0.9657604241598312
% es.tEy (V/m) @ t=0.48
0
% es.tEz (V/m) @ t=0.48
2.5050847280388844
% V (V) @ t=0.48
0.013191951650348165
% es.normE (V/m) @ t=0.5
2.748751967082244
% es.EX (V/m) @ t=0.5
-0.9797548427418266
% es.EY (V/m) @ t=0.5
0.3112643846160179
% es.EZ (V/m) @ t=0.5
2.5413848442723133
% es.tEX (V/m) @ t=0.5
-0.9797548427418301
% es.tEY (V/m) @ t=0.5
0
% es.tEZ (V/m) @ t=0.5
2.541384844272317
% es.Ex (V/m) @ t=0.5
-0.9797548427418266
% es.Ey (V/m) @ t=0.5
0.3112643846160179
% es.Ez (V/m) @ t=0.5
2.5413848442723133
% es.tEx (V/m) @ t=0.5
-0.9797548427418301
% es.tEy (V/m) @ t=0.5
0
% es.tEz (V/m) @ t=0.5
2.541384844272317
% V (V) @ t=0.5
0.013383114498071506
% es.normE (V/m) @ t=0.52
2.788014026801752
% es.EX (V/m) @ t=0.52
-0.9937492613238328
% es.EY (V/m) @ t=0.52
0.31571027057114165
% es.EZ (V/m) @ t=0.52
2.5776849605057697
% es.tEX (V/m) @ t=0.52
-0.9937492613238506
% es.tEY (V/m) @ t=0.52
0
% es.tEZ (V/m) @ t=0.52
2.5776849605057706
% es.Ex (V/m) @ t=0.52
-0.9937492613238328
% es.Ey (V/m) @ t=0.52
0.31571027057114165
% es.Ez (V/m) @ t=0.52
2.5776849605057697
% es.tEx (V/m) @ t=0.52
-0.9937492613238506
% es.tEy (V/m) @ t=0.52
0
% es.tEz (V/m) @ t=0.52
2.5776849605057706
% V (V) @ t=0.52
0.013574277345794847
% es.normE (V/m) @ t=0.54
2.8272760865212487
% es.EX (V/m) @ t=0.54
-1.007743679905832
% es.EY (V/m) @ t=0.54
0.3201561565262656
% es.EZ (V/m) @ t=0.54
2.61398507673921
% es.tEX (V/m) @ t=0.54
-1.0077436799058497
% es.tEY (V/m) @ t=0.54
0
% es.tEZ (V/m) @ t=0.54
2.6139850767392065
% es.Ex (V/m) @ t=0.54
-1.007743679905832
% es.Ey (V/m) @ t=0.54
0.3201561565262656
% es.Ez (V/m) @ t=0.54
2.61398507673921
% es.tEx (V/m) @ t=0.54
-1.0077436799058497
% es.tEy (V/m) @ t=0.54
0
% es.tEz (V/m) @ t=0.54
2.6139850767392065
% V (V) @ t=0.54
0.013765440193518188
% es.normE (V/m) @ t=0.56
2.8671753779661002
% es.EX (V/m) @ t=0.56
-1.0219652224313582
% es.EY (V/m) @ t=0.56
0.32467392793860705
% es.EZ (V/m) @ t=0.56
2.650874365596243
% es.tEX (V/m) @ t=0.56
-1.021965222431369
% es.tEY (V/m) @ t=0.56
0
% es.tEZ (V/m) @ t=0.56
2.6508743655962395
% es.Ex (V/m) @ t=0.56
-1.0219652224313582
% es.Ey (V/m) @ t=0.56
0.32467392793860705
% es.Ez (V/m) @ t=0.56
2.650874365596243
% es.tEx (V/m) @ t=0.56
-1.021965222431369
% es.tEy (V/m) @ t=0.56
0
% es.tEz (V/m) @ t=0.56
2.6508743655962395
% V (V) @ t=0.56
0.013959717537744458
% es.normE (V/m) @ t=0.58
2.908167260845495
% es.EX (V/m) @ t=0.58
-1.0365761895026468
% es.EY (V/m) @ t=0.58
0.3293149534697237
% es.EZ (V/m) @ t=0.58
2.6887738442103206
% es.tEX (V/m) @ t=0.58
-1.0365761895026646
% es.tEY (V/m) @ t=0.58
0
% es.tEZ (V/m) @ t=0.58
2.6887738442103153
% es.Ex (V/m) @ t=0.58
-1.0365761895026468
% es.Ey (V/m) @ t=0.58
0.3293149534697237
% es.Ez (V/m) @ t=0.58
2.6887738442103206
% es.tEx (V/m) @ t=0.58
-1.0365761895026646
% es.tEy (V/m) @ t=0.58
0
% es.tEz (V/m) @ t=0.58
2.6887738442103153
% V (V) @ t=0.58
0.014159334967948304
% es.normE (V/m) @ t=0.6
2.949553680005832
% es.EX (V/m) @ t=0.6
-1.0513277783168322
% es.EY (V/m) @ t=0.6
0.33400048623385703
% es.EZ (V/m) @ t=0.6
2.727038103744855
% es.tEX (V/m) @ t=0.6
-1.051327778316857
% es.tEY (V/m) @ t=0.6
0
% es.tEZ (V/m) @ t=0.6
2.72703810374486
% es.Ex (V/m) @ t=0.6
-1.0513277783168322
% es.Ey (V/m) @ t=0.6
0.33400048623385703
% es.Ez (V/m) @ t=0.6
2.727038103744855
% es.tEx (V/m) @ t=0.6
-1.051327778316857
% es.tEy (V/m) @ t=0.6
0
% es.tEz (V/m) @ t=0.6
2.72703810374486
% V (V) @ t=0.6
0.014360880710594999
% es.normE (V/m) @ t=0.62
2.9913346354473838
% es.EX (V/m) @ t=0.62
-1.0662199888738357
% es.EY (V/m) @ t=0.62
0.33873052623101674
% es.EZ (V/m) @ t=0.62
2.765667144199816
% es.tEX (V/m) @ t=0.62
-1.0662199888738464
% es.tEY (V/m) @ t=0.62
0
% es.tEZ (V/m) @ t=0.62
2.7656671441998135
% es.Ex (V/m) @ t=0.62
-1.0662199888738357
% es.Ey (V/m) @ t=0.62
0.33873052623101674
% es.Ez (V/m) @ t=0.62
2.765667144199816
% es.tEx (V/m) @ t=0.62
-1.0662199888738464
% es.tEy (V/m) @ t=0.62
0
% es.tEz (V/m) @ t=0.62
2.7656671441998135
% V (V) @ t=0.62
0.01456435476568454
% es.normE (V/m) @ t=0.64
3.03351012717056
% es.EX (V/m) @ t=0.64
-1.081252821173729
% es.EY (V/m) @ t=0.64
0.3435050734612026
% es.EZ (V/m) @ t=0.64
2.8046609655752137
% es.tEX (V/m) @ t=0.64
-1.0812528211737324
% es.tEY (V/m) @ t=0.64
0
% es.tEZ (V/m) @ t=0.64
2.804660965575213
% es.Ex (V/m) @ t=0.64
-1.081252821173729
% es.Ey (V/m) @ t=0.64
0.3435050734612026
% es.Ez (V/m) @ t=0.64
2.8046609655752137
% es.tEx (V/m) @ t=0.64
-1.0812528211737324
% es.tEy (V/m) @ t=0.64
0
% es.tEz (V/m) @ t=0.64
2.804660965575213
% V (V) @ t=0.64
0.014769757133216923
% es.normE (V/m) @ t=0.66
3.076080155175764
% es.EX (V/m) @ t=0.66
-1.0964262752164717
% es.EY (V/m) @ t=0.66
0.3483241279243843
% es.EZ (V/m) @ t=0.66
2.8440195678710607
% es.tEX (V/m) @ t=0.66
-1.096426275216486
% es.tEY (V/m) @ t=0.66
0
% es.tEZ (V/m) @ t=0.66
2.8440195678710634
% es.Ex (V/m) @ t=0.66
-1.0964262752164717
% es.Ey (V/m) @ t=0.66
0.3483241279243843
% es.Ez (V/m) @ t=0.66
2.8440195678710607
% es.tEx (V/m) @ t=0.66
-1.096426275216486
% es.tEy (V/m) @ t=0.66
0
% es.tEz (V/m) @ t=0.66
2.8440195678710634
% V (V) @ t=0.66
0.01497708781319215
% es.normE (V/m) @ t=0.68
3.1190447194634414
% es.EX (V/m) @ t=0.68
-1.1117403510020438
% es.EY (V/m) @ t=0.68
0.35318768962059144
% es.EZ (V/m) @ t=0.68
2.883742951087359
% es.tEX (V/m) @ t=0.68
-1.1117403510020651
% es.tEY (V/m) @ t=0.68
0
% es.tEZ (V/m) @ t=0.68
2.8837429510873545
% es.Ex (V/m) @ t=0.68
-1.1117403510020438
% es.Ey (V/m) @ t=0.68
0.35318768962059144
% es.Ez (V/m) @ t=0.68
2.883742951087359
% es.tEx (V/m) @ t=0.68
-1.1117403510020651
% es.tEy (V/m) @ t=0.68
0
% es.tEz (V/m) @ t=0.68
2.8837429510873545
% V (V) @ t=0.68
0.015186346805610231
% es.normE (V/m) @ t=0.7
3.1624038200340823
% es.EX (V/m) @ t=0.7
-1.1271950485305264
% es.EY (V/m) @ t=0.7
0.3580957585498026
% es.EZ (V/m) @ t=0.7
2.9238311152240932
% es.tEX (V/m) @ t=0.7
-1.1271950485305406
% es.tEY (V/m) @ t=0.7
0
% es.tEZ (V/m) @ t=0.7
2.9238311152241003
% es.Ex (V/m) @ t=0.7
-1.1271950485305264
% es.Ey (V/m) @ t=0.7
0.3580957585498026
% es.Ez (V/m) @ t=0.7
2.9238311152240932
% es.tEx (V/m) @ t=0.7
-1.1271950485305406
% es.tEy (V/m) @ t=0.7
0
% es.tEz (V/m) @ t=0.7
2.9238311152241003
% V (V) @ t=0.7
0.015397534110471149
% es.normE (V/m) @ t=0.72
3.20615745688817
% es.EX (V/m) @ t=0.72
-1.142790367801806
% es.EY (V/m) @ t=0.72
0.3630483347120437
% es.EZ (V/m) @ t=0.72
2.9642840602812752
% es.tEX (V/m) @ t=0.72
-1.1427903678018274
% es.tEY (V/m) @ t=0.72
0
% es.tEZ (V/m) @ t=0.72
2.964284060281276
% es.Ex (V/m) @ t=0.72
-1.142790367801806
% es.Ey (V/m) @ t=0.72
0.3630483347120437
% es.Ez (V/m) @ t=0.72
2.9642840602812752
% es.tEx (V/m) @ t=0.72
-1.1427903678018274
% es.tEy (V/m) @ t=0.72
0
% es.tEz (V/m) @ t=0.72
2.964284060281276
% V (V) @ t=0.72
0.015610649727774916
% es.normE (V/m) @ t=0.74
3.250305630026258
% es.EX (V/m) @ t=0.74
-1.1585263088159752
% es.EY (V/m) @ t=0.74
0.3680454181073072
% es.EZ (V/m) @ t=0.74
3.0051017862588916
% es.tEX (V/m) @ t=0.74
-1.1585263088159965
% es.tEY (V/m) @ t=0.74
0
% es.tEZ (V/m) @ t=0.74
3.005101786258898
% es.Ex (V/m) @ t=0.74
-1.1585263088159752
% es.Ey (V/m) @ t=0.74
0.3680454181073072
% es.Ez (V/m) @ t=0.74
3.0051017862588916
% es.tEx (V/m) @ t=0.74
-1.1585263088159965
% es.tEy (V/m) @ t=0.74
0
% es.tEz (V/m) @ t=0.74
3.005101786258898
% V (V) @ t=0.74
0.01582569365752153
% es.normE (V/m) @ t=0.76
3.2948483394489054
% es.EX (V/m) @ t=0.76
-1.1744028715730053
% es.EY (V/m) @ t=0.76
0.37308700873556533
% es.EZ (V/m) @ t=0.76
3.0462842931569556
% es.tEX (V/m) @ t=0.76
-1.1744028715730195
% es.tEY (V/m) @ t=0.76
0
% es.tEZ (V/m) @ t=0.76
3.0462842931569494
% es.Ex (V/m) @ t=0.76
-1.1744028715730053
% es.Ey (V/m) @ t=0.76
0.37308700873556533
% es.Ez (V/m) @ t=0.76
3.0462842931569556
% es.tEx (V/m) @ t=0.76
-1.1744028715730195
% es.tEy (V/m) @ t=0.76
0
% es.tEz (V/m) @ t=0.76
3.0462842931569494
% V (V) @ t=0.76
0.01604266589971098
% es.normE (V/m) @ t=0.78
3.339785585156679
% es.EX (V/m) @ t=0.78
-1.1904200560728815
% es.EY (V/m) @ t=0.78
0.378173106596851
% es.EZ (V/m) @ t=0.78
3.087831580975455
% es.tEX (V/m) @ t=0.78
-1.1904200560728957
% es.tEY (V/m) @ t=0.78
0
% es.tEZ (V/m) @ t=0.78
3.0878315809754557
% es.Ex (V/m) @ t=0.78
-1.1904200560728815
% es.Ey (V/m) @ t=0.78
0.378173106596851
% es.Ez (V/m) @ t=0.78
3.087831580975455
% es.tEx (V/m) @ t=0.78
-1.1904200560728957
% es.tEy (V/m) @ t=0.78
0
% es.tEz (V/m) @ t=0.78
3.0878315809754557
% V (V) @ t=0.78
0.016261566454343283
% es.normE (V/m) @ t=0.8
3.3851173671502064
% es.EX (V/m) @ t=0.8
-1.2065778623156405
% es.EY (V/m) @ t=0.8
0.38330371169111954
% es.EZ (V/m) @ t=0.8
3.1297436497144053
% es.tEX (V/m) @ t=0.8
-1.2065778623156689
% es.tEY (V/m) @ t=0.8
0
% es.tEZ (V/m) @ t=0.8
3.129743649714408
% es.Ex (V/m) @ t=0.8
-1.2065778623156405
% es.Ey (V/m) @ t=0.8
0.38330371169111954
% es.Ez (V/m) @ t=0.8
3.1297436497144053
% es.tEx (V/m) @ t=0.8
-1.2065778623156689
% es.tEy (V/m) @ t=0.8
0
% es.tEz (V/m) @ t=0.8
3.129743649714408
% V (V) @ t=0.8
0.01648239532141843
% es.normE (V/m) @ t=0.82
3.4308436854300792
% es.EX (V/m) @ t=0.82
-1.2228762903012387
% es.EY (V/m) @ t=0.82
0.38847882401845246
% es.EZ (V/m) @ t=0.82
3.172020499373784
% es.tEX (V/m) @ t=0.82
-1.222876290301267
% es.tEY (V/m) @ t=0.82
0
% es.tEZ (V/m) @ t=0.82
3.172020499373792
% es.Ex (V/m) @ t=0.82
-1.2228762903012387
% es.Ey (V/m) @ t=0.82
0.38847882401845246
% es.Ez (V/m) @ t=0.82
3.172020499373784
% es.tEx (V/m) @ t=0.82
-1.222876290301267
% es.tEy (V/m) @ t=0.82
0
% es.tEz (V/m) @ t=0.82
3.172020499373792
% V (V) @ t=0.82
0.01670515250093642
% es.normE (V/m) @ t=0.84
3.477499390450385
% es.EX (V/m) @ t=0.84
-1.2395060593595715
% es.EY (V/m) @ t=0.84
0.39376155010660296
% es.EZ (V/m) @ t=0.84
3.2151565015501733
% es.tEX (V/m) @ t=0.84
-1.2395060593595857
% es.tEY (V/m) @ t=0.84
0
% es.tEZ (V/m) @ t=0.84
3.215156501550176
% es.Ex (V/m) @ t=0.84
-1.2395060593595715
% es.Ey (V/m) @ t=0.84
0.39376155010660296
% es.Ez (V/m) @ t=0.84
3.2151565015501733
% es.tEx (V/m) @ t=0.84
-1.2395060593595857
% es.tEy (V/m) @ t=0.84
0
% es.tEz (V/m) @ t=0.84
3.215156501550176
% V (V) @ t=0.84
0.016932331169324487
% es.normE (V/m) @ t=0.86
3.5249101777841014
% es.EX (V/m) @ t=0.86
-1.2564050152513735
% es.EY (V/m) @ t=0.86
0.39913132393201844
% es.EZ (V/m) @ t=0.86
3.258990543625682
% es.tEX (V/m) @ t=0.86
-1.256405015251402
% es.tEY (V/m) @ t=0.86
0
% es.tEZ (V/m) @ t=0.86
3.258990543625673
% es.Ex (V/m) @ t=0.86
-1.2564050152513735
% es.Ey (V/m) @ t=0.86
0.39913132393201844
% es.Ez (V/m) @ t=0.86
3.258990543625682
% es.tEx (V/m) @ t=0.86
-1.256405015251402
% es.tEy (V/m) @ t=0.86
0
% es.tEz (V/m) @ t=0.86
3.258990543625673
% V (V) @ t=0.86
0.017163118815945202
% es.normE (V/m) @ t=0.88
3.5728266819862267
% es.EX (V/m) @ t=0.88
-1.2734842381480849
% es.EY (V/m) @ t=0.88
0.40455872308832097
% es.EZ (V/m) @ t=0.88
3.303292132772813
% es.tEX (V/m) @ t=0.88
-1.273484238148099
% es.tEY (V/m) @ t=0.88
0
% es.tEZ (V/m) @ t=0.88
3.3032921327728086
% es.Ex (V/m) @ t=0.88
-1.2734842381480849
% es.Ey (V/m) @ t=0.88
0.40455872308832097
% es.Ez (V/m) @ t=0.88
3.303292132772813
% es.tEx (V/m) @ t=0.88
-1.273484238148099
% es.tEy (V/m) @ t=0.88
0
% es.tEz (V/m) @ t=0.88
3.3032921327728086
% V (V) @ t=0.88
0.017396353037278402
% es.normE (V/m) @ t=0.9
3.62124890305781
% es.EX (V/m) @ t=0.9
-1.2907437280496337
% es.EY (V/m) @ t=0.9
0.4100437475755365
% es.EZ (V/m) @ t=0.9
3.348061268991585
% es.tEX (V/m) @ t=0.9
-1.2907437280496479
% es.tEY (V/m) @ t=0.9
0
% es.tEZ (V/m) @ t=0.9
3.3480612689915823
% es.Ex (V/m) @ t=0.9
-1.2907437280496337
% es.Ey (V/m) @ t=0.9
0.4100437475755365
% es.Ez (V/m) @ t=0.9
3.348061268991585
% es.tEx (V/m) @ t=0.9
-1.2907437280496479
% es.tEy (V/m) @ t=0.9
0
% es.tEz (V/m) @ t=0.9
3.3480612689915823
% V (V) @ t=0.9
0.017632033833324103
% es.normE (V/m) @ t=0.92
3.670176841000107
% es.EX (V/m) @ t=0.92
-1.3081834849561484
% es.EY (V/m) @ t=0.92
0.4155863973935854
% es.EZ (V/m) @ t=0.92
3.393297952281988
% es.tEX (V/m) @ t=0.92
-1.3081834849561627
% es.tEY (V/m) @ t=0.92
0
% es.tEZ (V/m) @ t=0.92
3.393297952281987
% es.Ex (V/m) @ t=0.92
-1.3081834849561484
% es.Ey (V/m) @ t=0.92
0.4155863973935854
% es.Ez (V/m) @ t=0.92
3.393297952281988
% es.tEx (V/m) @ t=0.92
-1.3081834849561627
% es.tEy (V/m) @ t=0.92
0
% es.tEz (V/m) @ t=0.92
3.393297952281987
% V (V) @ t=0.92
0.01787016120408229
% es.normE (V/m) @ t=0.94
3.7196104958144907
% es.EX (V/m) @ t=0.94
-1.3258035088675433
% es.EY (V/m) @ t=0.94
0.4211866725424813
% es.EZ (V/m) @ t=0.94
3.4390021826440416
% es.tEX (V/m) @ t=0.94
-1.3258035088675575
% es.tEY (V/m) @ t=0.94
0
% es.tEZ (V/m) @ t=0.94
3.439002182644046
% es.Ex (V/m) @ t=0.94
-1.3258035088675433
% es.Ey (V/m) @ t=0.94
0.4211866725424813
% es.Ez (V/m) @ t=0.94
3.4390021826440416
% es.tEx (V/m) @ t=0.94
-1.3258035088675575
% es.tEy (V/m) @ t=0.94
0
% es.tEz (V/m) @ t=0.94
3.439002182644046
% V (V) @ t=0.94
0.01811073514955297
% es.normE (V/m) @ t=0.96
3.7695498675024885
% es.EX (V/m) @ t=0.96
-1.3436037997838328
% es.EY (V/m) @ t=0.96
0.4268445730222936
% es.EZ (V/m) @ t=0.96
3.485173960077736
% es.tEX (V/m) @ t=0.96
-1.3436037997838612
% es.tEY (V/m) @ t=0.96
0
% es.tEZ (V/m) @ t=0.96
3.4851739600777414
% es.Ex (V/m) @ t=0.96
-1.3436037997838328
% es.Ey (V/m) @ t=0.96
0.4268445730222936
% es.Ez (V/m) @ t=0.96
3.485173960077736
% es.tEx (V/m) @ t=0.96
-1.3436037997838612
% es.tEy (V/m) @ t=0.96
0
% es.tEz (V/m) @ t=0.96
3.4851739600777414
% V (V) @ t=0.96
0.018353755669736137
% es.normE (V/m) @ t=0.98
3.8199949560657522
% es.EX (V/m) @ t=0.98
-1.3615843577050173
% es.EY (V/m) @ t=0.98
0.43256009883293833
% es.EZ (V/m) @ t=0.98
3.5318132845830537
% es.tEX (V/m) @ t=0.98
-1.3615843577050457
% es.tEY (V/m) @ t=0.98
0
% es.tEZ (V/m) @ t=0.98
3.5318132845830625
% es.Ex (V/m) @ t=0.98
-1.3615843577050173
% es.Ey (V/m) @ t=0.98
0.43256009883293833
% es.Ez (V/m) @ t=0.98
3.5318132845830537
% es.tEx (V/m) @ t=0.98
-1.3615843577050457
% es.tEy (V/m) @ t=0.98
0
% es.tEz (V/m) @ t=0.98
3.5318132845830625
% V (V) @ t=0.98
0.018599222764631794
% es.normE (V/m) @ t=1
3.870945761506113
% es.EX (V/m) @ t=1
-1.379745182631125
% es.EY (V/m) @ t=1
0.43833324997449896
% es.EZ (V/m) @ t=1
3.578920156160029
% es.tEX (V/m) @ t=1
-1.379745182631139
% es.tEY (V/m) @ t=1
0
% es.tEZ (V/m) @ t=1
3.5789201561600237
% es.Ex (V/m) @ t=1
-1.379745182631125
% es.Ey (V/m) @ t=1
0.43833324997449896
% es.Ez (V/m) @ t=1
3.578920156160029
% es.tEx (V/m) @ t=1
-1.379745182631139
% es.tEy (V/m) @ t=1
0
% es.tEz (V/m) @ t=1
3.5789201561600237
% V (V) @ t=1
0.018847136434239947
% es.normE (V/m) @ t=1.02
3.9224022838254315
% es.EX (V/m) @ t=1.02
-1.398086274562112
% es.EY (V/m) @ t=1.02
0.4441640264468818
% es.EZ (V/m) @ t=1.02
3.6264945748086355
% es.tEX (V/m) @ t=1.02
-1.3980862745621263
% es.tEY (V/m) @ t=1.02
0
% es.tEZ (V/m) @ t=1.02
3.6264945748086426
% es.Ex (V/m) @ t=1.02
-1.398086274562112
% es.Ey (V/m) @ t=1.02
0.4441640264468818
% es.Ez (V/m) @ t=1.02
3.6264945748086355
% es.tEx (V/m) @ t=1.02
-1.3980862745621263
% es.tEy (V/m) @ t=1.02
0
% es.tEz (V/m) @ t=1.02
3.6264945748086426
% V (V) @ t=1.02
0.019097496678560588
% es.normE (V/m) @ t=1.04
3.974364523025733
% es.EX (V/m) @ t=1.04
-1.4166076334980162
% es.EY (V/m) @ t=1.04
0.450052428250161
% es.EZ (V/m) @ t=1.04
3.6745365405288712
% es.tEX (V/m) @ t=1.04
-1.4166076334980233
% es.tEY (V/m) @ t=1.04
0
% es.tEZ (V/m) @ t=1.04
3.674536540528866
% es.Ex (V/m) @ t=1.04