% Model:              1x1--2 - Copy1.mph
% Version:            COMSOL 6.1.0.252
% Date:               Apr 3 2023, 15:10
% Dimension:          0
% Nodes:              14017
% Expressions:        14017
% Description:        Electric field norm, Electric field, X component, Electric field, Y component, Electric field, Z component, Tangential electric field, X component, Tangential electric field, Y component, Tangential electric field, Z component, Electric field, x component, Electric field, y component, Electric field, z component, Tangential electric field, x component, Tangential electric field, y component, Tangential electric field, z component, Electric potential
% Length unit:        mm
% x
1.66
% y
12.2
% z
2
% es.normE (V/m) @ t=0
0.22944537799230497
% es.EX (V/m) @ t=0
0.11582889990476142
% es.EY (V/m) @ t=0
0.09108608578483723
% es.EZ (V/m) @ t=0
-0.15233895659554586
% es.tEX (V/m) @ t=0
0.1158288999047612
% es.tEY (V/m) @ t=0
0
% es.tEZ (V/m) @ t=0
-0.15233895659554486
% es.Ex (V/m) @ t=0
0.11582889990476142
% es.Ey (V/m) @ t=0
0.09108608578483723
% es.Ez (V/m) @ t=0
-0.15233895659554586
% es.tEx (V/m) @ t=0
0.1158288999047612
% es.tEy (V/m) @ t=0
0
% es.tEz (V/m) @ t=0
-0.15233895659554486
% V (V) @ t=0
0.006649519038485919
% es.normE (V/m) @ t=0.1
0.23301720092755734
% es.EX (V/m) @ t=0.1
0.1176320346586901
% es.EY (V/m) @ t=0.1
0.09250403295730614
% es.EZ (V/m) @ t=0.1
-0.15471045409807327
% es.tEX (V/m) @ t=0.1
0.11763203465869099
% es.tEY (V/m) @ t=0.1
0
% es.tEZ (V/m) @ t=0.1
-0.15471045409807438
% es.Ex (V/m) @ t=0.1
0.1176320346586901
% es.Ey (V/m) @ t=0.1
0.09250403295730614
% es.Ez (V/m) @ t=0.1
-0.15471045409807327
% es.tEx (V/m) @ t=0.1
0.11763203465869099
% es.tEy (V/m) @ t=0.1
0
% es.tEz (V/m) @ t=0.1
-0.15471045409807438
% V (V) @ t=0.1
0.006753034566769615
% es.normE (V/m) @ t=0.2
0.24410896296971535
% es.EX (V/m) @ t=0.2
0.12323137894724434
% es.EY (V/m) @ t=0.2
0.09690732143201286
% es.EZ (V/m) @ t=0.2
-0.162074739372446
% es.tEX (V/m) @ t=0.2
0.12323137894724456
% es.tEY (V/m) @ t=0.2
0
% es.tEZ (V/m) @ t=0.2
-0.16207473937244865
% es.Ex (V/m) @ t=0.2
0.12323137894724434
% es.Ey (V/m) @ t=0.2
0.09690732143201286
% es.Ez (V/m) @ t=0.2
-0.162074739372446
% es.tEx (V/m) @ t=0.2
0.12323137894724456
% es.tEy (V/m) @ t=0.2
0
% es.tEz (V/m) @ t=0.2
-0.16207473937244865
% V (V) @ t=0.2
0.007074477767420993
% es.normE (V/m) @ t=0.3
0.25555714928213724
% es.EX (V/m) @ t=0.3
0.12901064378596416
% es.EY (V/m) @ t=0.3
0.10145213579297518
% es.EZ (V/m) @ t=0.3
-0.16967564873610086
% es.tEX (V/m) @ t=0.3
0.12901064378596505
% es.tEY (V/m) @ t=0.3
0
% es.tEZ (V/m) @ t=0.3
-0.1696756487361033
% es.Ex (V/m) @ t=0.3
0.12901064378596416
% es.Ey (V/m) @ t=0.3
0.10145213579297518
% es.Ez (V/m) @ t=0.3
-0.16967564873610086
% es.tEx (V/m) @ t=0.3
0.12901064378596505
% es.tEy (V/m) @ t=0.3
0
% es.tEz (V/m) @ t=0.3
-0.1696756487361033
% V (V) @ t=0.3
0.007406246297462402
% es.normE (V/m) @ t=0.4
0.26765063812775997
% es.EX (V/m) @ t=0.4
0.13511576219637567
% es.EY (V/m) @ t=0.4
0.10625284404524615
% es.EZ (V/m) @ t=0.4
-0.17770519779293736
% es.tEX (V/m) @ t=0.4
0.13511576219637833
% es.tEY (V/m) @ t=0.4
0
% es.tEZ (V/m) @ t=0.4
-0.17770519779293759
% es.Ex (V/m) @ t=0.4
0.13511576219637567
% es.Ey (V/m) @ t=0.4
0.10625284404524615
% es.Ez (V/m) @ t=0.4
-0.17770519779293736
% es.tEx (V/m) @ t=0.4
0.13511576219637833
% es.tEy (V/m) @ t=0.4
0
% es.tEz (V/m) @ t=0.4
-0.17770519779293759
% V (V) @ t=0.4
0.007756754283711908
% es.normE (V/m) @ t=0.5
0.2804096649332675
% es.EX (V/m) @ t=0.5
0.14155630219288984
% es.EY (V/m) @ t=0.5
0.11131948296940486
% es.EZ (V/m) @ t=0.5
-0.1861754296330893
% es.tEX (V/m) @ t=0.5
0.14155630219288895
% es.tEY (V/m) @ t=0.5
0
% es.tEZ (V/m) @ t=0.5
-0.18617542963308864
% es.Ex (V/m) @ t=0.5
0.14155630219288984
% es.Ey (V/m) @ t=0.5
0.11131948296940486
% es.Ez (V/m) @ t=0.5
-0.1861754296330893
% es.tEx (V/m) @ t=0.5
0.14155630219288895
% es.tEy (V/m) @ t=0.5
0
% es.tEz (V/m) @ t=0.5
-0.18617542963308864
% V (V) @ t=0.5
0.008126317643790484
% es.normE (V/m) @ t=0.6
0.29417387137832907
% es.EX (V/m) @ t=0.6
0.1485033441156185
% es.EY (V/m) @ t=0.6
0.1167880554949372
% es.EZ (V/m) @ t=0.6
-0.1953110338154811
% es.tEX (V/m) @ t=0.6
0.14850334411562072
% es.tEY (V/m) @ t=0.6
0
% es.tEZ (V/m) @ t=0.6
-0.19531103381548398
% es.Ex (V/m) @ t=0.6
0.1485033441156185
% es.Ey (V/m) @ t=0.6
0.1167880554949372
% es.Ez (V/m) @ t=0.6
-0.1953110338154811
% es.tEx (V/m) @ t=0.6
0.14850334411562072
% es.tEy (V/m) @ t=0.6
0
% es.tEz (V/m) @ t=0.6
-0.19531103381548398
% V (V) @ t=0.6
0.008524621484069085
% es.normE (V/m) @ t=0.7
0.3079380779104022
% es.EX (V/m) @ t=0.7
0.1554503860383507
% es.EY (V/m) @ t=0.7
0.12225662802047221
% es.EZ (V/m) @ t=0.7
-0.20444663799786467
% es.tEX (V/m) @ t=0.7
0.15545038603835293
% es.tEY (V/m) @ t=0.7
0
% es.tEZ (V/m) @ t=0.7
-0.20444663799786245
% es.Ex (V/m) @ t=0.7
0.1554503860383507
% es.Ey (V/m) @ t=0.7
0.12225662802047221
% es.Ez (V/m) @ t=0.7
-0.20444663799786467
% es.tEx (V/m) @ t=0.7
0.15545038603835293
% es.tEy (V/m) @ t=0.7
0
% es.tEz (V/m) @ t=0.7
-0.20444663799786245
% V (V) @ t=0.7
0.008922925324347682
% es.normE (V/m) @ t=0.8
0.32219098052400236
% es.EX (V/m) @ t=0.8
0.1626454499738914
% es.EY (V/m) @ t=0.8
0.12791512330963517
% es.EZ (V/m) @ t=0.8
-0.21390954575341437
% es.tEX (V/m) @ t=0.8
0.16264544997389407
% es.tEY (V/m) @ t=0.8
0
% es.tEZ (V/m) @ t=0.8
-0.21390954575341325
% es.Ex (V/m) @ t=0.8
0.1626454499738914
% es.Ey (V/m) @ t=0.8
0.12791512330963517
% es.Ez (V/m) @ t=0.8
-0.21390954575341437
% es.tEx (V/m) @ t=0.8
0.16264544997389407
% es.tEy (V/m) @ t=0.8
0
% es.tEz (V/m) @ t=0.8
-0.21390954575341325
% V (V) @ t=0.8
0.009335943066854525
% es.normE (V/m) @ t=0.9
0.3376093562344572
% es.EX (V/m) @ t=0.9
0.1704320123112648
% es.EY (V/m) @ t=0.9
0.1340265582789586
% es.EZ (V/m) @ t=0.9
-0.22415302753236177
% es.tEX (V/m) @ t=0.9
0.17043201231126437
% es.tEY (V/m) @ t=0.9
0
% es.tEZ (V/m) @ t=0.9
-0.22415302753236066
% es.Ex (V/m) @ t=0.9
0.1704320123112648
% es.Ey (V/m) @ t=0.9
0.1340265582789586
% es.Ez (V/m) @ t=0.9
-0.22415302753236177
% es.tEx (V/m) @ t=0.9
0.17043201231126437
% es.tEy (V/m) @ t=0.9
0
% es.tEz (V/m) @ t=0.9
-0.22415302753236066
% V (V) @ t=0.9
0.009784051443269742
% es.normE (V/m) @ t=1
0.35302773234194185
% es.EX (V/m) @ t=1
0.1782185746486329
% es.EY (V/m) @ t=1
0.14013799324827492
% es.EZ (V/m) @ t=1
-0.23439650931131228
% es.tEX (V/m) @ t=1
0.17821857464863466
% es.tEY (V/m) @ t=1
0
% es.tEZ (V/m) @ t=1
-0.23439650931131517
% es.Ex (V/m) @ t=1
0.1782185746486329
% es.Ey (V/m) @ t=1
0.14013799324827492
% es.Ez (V/m) @ t=1
-0.23439650931131228
% es.tEx (V/m) @ t=1
0.17821857464863466
% es.tEy (V/m) @ t=1
0
% es.tEz (V/m) @ t=1
-0.23439650931131517
% V (V) @ t=1
0.010232159819684958
% es.normE (V/m) @ t=1.1
0.3694303686025247
% es.EX (V/m) @ t=1.1
0.18649869821987775
% es.EY (V/m) @ t=1.1
0.1466504268047819
% es.EZ (V/m) @ t=1.1
-0.2452863534635814
% es.tEX (V/m) @ t=1.1
0.18649869821987997
% es.tEY (V/m) @ t=1.1
0
% es.tEZ (V/m) @ t=1.1
-0.24528635346357497
% es.Ex (V/m) @ t=1.1
0.18649869821987775
% es.Ey (V/m) @ t=1.1
0.1466504268047819
% es.Ez (V/m) @ t=1.1
-0.2452863534635814
% es.tEx (V/m) @ t=1.1
0.18649869821987997
% es.tEy (V/m) @ t=1.1
0
% es.tEz (V/m) @ t=1.1
-0.24528635346357497
% V (V) @ t=1.1
0.01070740670622377
% es.normE (V/m) @ t=1.2
0.3867329991855304
% es.EX (V/m) @ t=1.2
0.19523012753429558
% es.EY (V/m) @ t=1.2
0.15352952806730435
% es.EZ (V/m) @ t=1.2
-0.256767222662418
% es.tEX (V/m) @ t=1.2
0.19523012753429825
% es.tEY (V/m) @ t=1.2
0
% es.tEZ (V/m) @ t=1.2
-0.25676722266241825
% es.Ex (V/m) @ t=1.2
0.19523012753429558
% es.Ey (V/m) @ t=1.2
0.15352952806730435
% es.Ez (V/m) @ t=1.2
-0.256767222662418
% es.tEx (V/m) @ t=1.2
0.19523012753429825
% es.tEy (V/m) @ t=1.2
0
% es.tEz (V/m) @ t=1.2
-0.25676722266241825
% V (V) @ t=1.2
0.01120746868081891
% es.normE (V/m) @ t=1.3
0.4040356301644288
% es.EX (V/m) @ t=1.3
0.20396155684871253
% es.EY (V/m) @ t=1.3
0.16040862932982236
% es.EZ (V/m) @ t=1.3
-0.26824809186125886
% es.tEX (V/m) @ t=1.3
0.2039615568487143
% es.tEY (V/m) @ t=1.3
0
% es.tEZ (V/m) @ t=1.3
-0.26824809186126153
% es.Ex (V/m) @ t=1.3
0.20396155684871253
% es.Ey (V/m) @ t=1.3
0.16040862932982236
% es.Ez (V/m) @ t=1.3
-0.26824809186125886
% es.tEx (V/m) @ t=1.3
0.2039615568487143
% es.tEy (V/m) @ t=1.3
0
% es.tEz (V/m) @ t=1.3
-0.26824809186126153
% V (V) @ t=1.3
0.011707530655414052
% es.normE (V/m) @ t=1.4
0.4229481192044582
% es.EX (V/m) @ t=1.4
0.2135097029830213
% es.EY (V/m) @ t=1.4
0.16791428793943464
% es.EZ (V/m) @ t=1.4
-0.28080653795362354
% es.tEX (V/m) @ t=1.4
0.2135097029830244
% es.tEY (V/m) @ t=1.4
0
% es.tEZ (V/m) @ t=1.4
-0.28080653795362487
% es.Ex (V/m) @ t=1.4
0.2135097029830213
% es.Ey (V/m) @ t=1.4
0.16791428793943464
% es.Ez (V/m) @ t=1.4
-0.28080653795362354
% es.tEx (V/m) @ t=1.4
0.2135097029830244
% es.tEy (V/m) @ t=1.4
0
% es.tEz (V/m) @ t=1.4
-0.28080653795362487
% V (V) @ t=1.4
0.01225593238796876
% es.normE (V/m) @ t=1.5
0.4423992669694494
% es.EX (V/m) @ t=1.5
0.22333112263808363
% es.EY (V/m) @ t=1.5
0.1756295926932694
% es.EZ (V/m) @ t=1.5
-0.2937255413706372
% es.tEX (V/m) @ t=1.5
0.22333112263808808
% es.tEY (V/m) @ t=1.5
0
% es.tEZ (V/m) @ t=1.5
-0.2937255413706392
% es.Ex (V/m) @ t=1.5
0.22333112263808363
% es.Ey (V/m) @ t=1.5
0.1756295926932694
% es.Ez (V/m) @ t=1.5
-0.2937255413706372
% es.tEx (V/m) @ t=1.5
0.22333112263808808
% es.tEy (V/m) @ t=1.5
0
% es.tEz (V/m) @ t=1.5
-0.2937255413706392
% V (V) @ t=1.5
0.012820508607846802
% es.normE (V/m) @ t=1.6
0.4618504148851743
% es.EX (V/m) @ t=1.6
0.23315254229314508
% es.EY (V/m) @ t=1.6
0.18334489744709437
% es.EZ (V/m) @ t=1.6
-0.3066445447876567
% es.tEX (V/m) @ t=1.6
0.23315254229314553
% es.tEY (V/m) @ t=1.6
0
% es.tEZ (V/m) @ t=1.6
-0.3066445447876527
% es.Ex (V/m) @ t=1.6
0.23315254229314508
% es.Ey (V/m) @ t=1.6
0.18334489744709437
% es.Ez (V/m) @ t=1.6
-0.3066445447876567
% es.tEx (V/m) @ t=1.6
0.23315254229314553
% es.tEy (V/m) @ t=1.6
0
% es.tEz (V/m) @ t=1.6
-0.3066445447876527
% V (V) @ t=1.6
0.013385084827724842
% es.normE (V/m) @ t=1.7
0.4826181281580795
% es.EX (V/m) @ t=1.7
0.24363766270748233
% es.EY (V/m) @ t=1.7
0.1915857886794221
% es.EZ (V/m) @ t=1.7
-0.3204356257561687
% es.tEX (V/m) @ t=1.7
0.24363766270748322
% es.tEY (V/m) @ t=1.7
0
% es.tEZ (V/m) @ t=1.7
-0.3204356257561729
% es.Ex (V/m) @ t=1.7
0.24363766270748233
% es.Ey (V/m) @ t=1.7
0.1915857886794221
% es.Ez (V/m) @ t=1.7
-0.3204356257561687
% es.tEx (V/m) @ t=1.7
0.24363766270748322
% es.tEy (V/m) @ t=1.7
0
% es.tEz (V/m) @ t=1.7
-0.3204356257561729
% V (V) @ t=1.7
0.013987426689542668
% es.normE (V/m) @ t=1.8
0.5041287747527647
% es.EX (V/m) @ t=1.8
0.25449730720998787
% es.EY (V/m) @ t=1.8
0.20012326657957225
% es.EZ (V/m) @ t=1.8
-0.33471881713020757
% es.tEX (V/m) @ t=1.8
0.2544973072099914
% es.tEY (V/m) @ t=1.8
0
% es.tEZ (V/m) @ t=1.8
-0.33471881713021556
% es.Ex (V/m) @ t=1.8
0.25449730720998787
% es.Ey (V/m) @ t=1.8
0.20012326657957225
% es.Ez (V/m) @ t=1.8
-0.33471881713020757
% es.tEx (V/m) @ t=1.8
0.2544973072099914
% es.tEy (V/m) @ t=1.8
0
% es.tEz (V/m) @ t=1.8
-0.33471881713021556
% V (V) @ t=1.8
0.014611079575062372
% es.normE (V/m) @ t=1.9
0.5263588335034689
% es.EX (V/m) @ t=1.9
0.2657196184326853
% es.EY (V/m) @ t=1.9
0.20894794126482186
% es.EZ (V/m) @ t=1.9
-0.34947853877926205
% es.tEX (V/m) @ t=1.9
0.2657196184326871
% es.tEY (V/m) @ t=1.9
0
% es.tEZ (V/m) @ t=1.9
-0.34947853877925805
% es.Ex (V/m) @ t=1.9
0.2657196184326853
% es.Ey (V/m) @ t=1.9
0.20894794126482186
% es.Ez (V/m) @ t=1.9
-0.34947853877926205
% es.tEx (V/m) @ t=1.9
0.2657196184326871
% es.tEy (V/m) @ t=1.9
0
% es.tEz (V/m) @ t=1.9
-0.34947853877925805
% V (V) @ t=1.9
0.015255368780952044
% es.normE (V/m) @ t=2
0.5493083044102971
% es.EX (V/m) @ t=2
0.27730459637557026
% es.EY (V/m) @ t=2
0.21805981273517627
% es.EZ (V/m) @ t=2
-0.3647147907033559
% es.tEX (V/m) @ t=2
0.2773045963755729
% es.tEY (V/m) @ t=2
0
% es.tEZ (V/m) @ t=2
-0.36471479070335366
% es.Ex (V/m) @ t=2
0.27730459637557026
% es.Ey (V/m) @ t=2
0.21805981273517627
% es.Ez (V/m) @ t=2
-0.3647147907033559
% es.tEx (V/m) @ t=2
0.2773045963755729
% es.tEy (V/m) @ t=2
0
% es.tEz (V/m) @ t=2
-0.36471479070335366
% V (V) @ t=2
0.01592029430721168
% es.normE (V/m) @ t=2.1
0.5729771874936028
% es.EX (V/m) @ t=2.1
0.28925224103864
% es.EY (V/m) @ t=2.1
0.22745888099063016
% es.EZ (V/m) @ t=2.1
-0.3804275729024371
% es.tEX (V/m) @ t=2.1
0.28925224103864355
% es.tEY (V/m) @ t=2.1
0
% es.tEZ (V/m) @ t=2.1
-0.38042757290245355
% es.Ex (V/m) @ t=2.1
0.28925224103864
% es.Ey (V/m) @ t=2.1
0.22745888099063016
% es.Ez (V/m) @ t=2.1
-0.3804275729024371
% es.tEx (V/m) @ t=2.1
0.28925224103864355
% es.tEy (V/m) @ t=2.1
0
% es.tEz (V/m) @ t=2.1
-0.38042757290245355
% V (V) @ t=2.1
0.016605856153841286
% es.normE (V/m) @ t=2.2
0.5977162328753541
% es.EX (V/m) @ t=2.2
0.3017403486412409
% es.EY (V/m) @ t=2.2
0.2372820808666365
% es.EZ (V/m) @ t=2.2
-0.3968513771034652
% es.tEX (V/m) @ t=2.2
0.30174034864124266
% es.tEY (V/m) @ t=2.2
0
% es.tEZ (V/m) @ t=2.2
-0.39685137710347185
% es.Ex (V/m) @ t=2.2
0.3017403486412409
% es.Ey (V/m) @ t=2.2
0.2372820808666365
% es.Ez (V/m) @ t=2.2
-0.3968513771034652
% es.tEx (V/m) @ t=2.2
0.30174034864124266
% es.tEy (V/m) @ t=2.2
0
% es.tEz (V/m) @ t=2.2
-0.39685137710347185
% V (V) @ t=2.2
0.017322525450872175
% es.normE (V/m) @ t=2.3
0.6238346630758673
% es.EX (V/m) @ t=2.3
0.31492566496709173
% es.EY (V/m) @ t=2.3
0.24765013460452856
% es.EZ (V/m) @ t=2.3
-0.4141929320526203
% es.tEX (V/m) @ t=2.3
0.3149256649670926
% es.tEY (V/m) @ t=2.3
0
% es.tEZ (V/m) @ t=2.3
-0.41419293205262164
% es.Ex (V/m) @ t=2.3
0.31492566496709173
% es.Ey (V/m) @ t=2.3
0.24765013460452856
% es.Ez (V/m) @ t=2.3
-0.4141929320526203
% es.tEx (V/m) @ t=2.3
0.3149256649670926
% es.tEy (V/m) @ t=2.3
0
% es.tEz (V/m) @ t=2.3
-0.41419293205262164
% V (V) @ t=2.3
0.018079533584042774
% es.normE (V/m) @ t=2.4
0.650945441893954
% es.EX (V/m) @ t=2.4
0.32861200026793735
% es.EY (V/m) @ t=2.4
0.2584119410673509
% es.EZ (V/m) @ t=2.4
-0.4321934871812325
% es.tEX (V/m) @ t=2.4
0.32861200026793913
% es.tEY (V/m) @ t=2.4
0
% es.tEZ (V/m) @ t=2.4
-0.43219348718121964
% es.Ex (V/m) @ t=2.4
0.32861200026793735
% es.Ey (V/m) @ t=2.4
0.2584119410673509
% es.Ez (V/m) @ t=2.4
-0.4321934871812325
% es.tEx (V/m) @ t=2.4
0.32861200026793913
% es.tEy (V/m) @ t=2.4
0
% es.tEz (V/m) @ t=2.4
-0.43219348718121964
% V (V) @ t=2.4
0.018865326154880683
% es.normE (V/m) @ t=2.5
0.6790485693303061
% es.EX (V/m) @ t=2.5
0.342799354543768
% es.EY (V/m) @ t=2.5
0.26956750025507503
% es.EZ (V/m) @ t=2.5
-0.45085304248926095
% es.tEX (V/m) @ t=2.5
0.34279935454376886
% es.tEY (V/m) @ t=2.5
0
% es.tEZ (V/m) @ t=2.5
-0.4508530424892587
% es.Ex (V/m) @ t=2.5
0.342799354543768
% es.Ey (V/m) @ t=2.5
0.26956750025507503
% es.Ez (V/m) @ t=2.5
-0.45085304248926095
% es.tEx (V/m) @ t=2.5
0.34279935454376886
% es.tEy (V/m) @ t=2.5
0
% es.tEz (V/m) @ t=2.5
-0.4508530424892587
% V (V) @ t=2.5
0.019679903163385904
% es.normE (V/m) @ t=2.6
0.7081440453857475
% es.EX (V/m) @ t=2.6
0.35748772779458804
% es.EY (V/m) @ t=2.6
0.28111681216769213
% es.EZ (V/m) @ t=2.6
-0.4701715979767118
% es.tEX (V/m) @ t=2.6
0.35748772779458715
% es.tEY (V/m) @ t=2.6
0
% es.tEZ (V/m) @ t=2.6
-0.4701715979767247
% es.Ex (V/m) @ t=2.6
0.35748772779458804
% es.Ey (V/m) @ t=2.6
0.28111681216769213
% es.Ez (V/m) @ t=2.6
-0.4701715979767118
% es.tEx (V/m) @ t=2.6
0.35748772779458715
% es.tEy (V/m) @ t=2.6
0
% es.tEz (V/m) @ t=2.6
-0.4701715979767247
% V (V) @ t=2.6
0.02052326460955843
% es.normE (V/m) @ t=2.7
0.7382318700611772
% es.EX (V/m) @ t=2.7
0.37267712002038955
% es.EY (V/m) @ t=2.7
0.29305987680521817
% es.EZ (V/m) @ t=2.7
-0.490149153643618
% es.tEX (V/m) @ t=2.7
0.3726771200203922
% es.tEY (V/m) @ t=2.7
0
% es.tEZ (V/m) @ t=2.7
-0.4901491536436282
% es.Ex (V/m) @ t=2.7
0.37267712002038955
% es.Ey (V/m) @ t=2.7
0.29305987680521817
% es.Ez (V/m) @ t=2.7
-0.490149153643618
% es.tEx (V/m) @ t=2.7
0.3726771200203922
% es.tEy (V/m) @ t=2.7
0
% es.tEz (V/m) @ t=2.7
-0.4901491536436282
% V (V) @ t=2.7
0.021395410493398267
% es.normE (V/m) @ t=2.8
0.7699166096589187
% es.EX (V/m) @ t=2.8
0.38867267273468364
% es.EY (V/m) @ t=2.8
0.3056368900019759
% es.EZ (V/m) @ t=2.8
-0.5111869699245748
% es.tEX (V/m) @ t=2.8
0.3886726727346863
% es.tEY (V/m) @ t=2.8
0
% es.tEZ (V/m) @ t=2.8
-0.5111869699245855
% es.Ex (V/m) @ t=2.8
0.38867267273468364
% es.Ey (V/m) @ t=2.8
0.3056368900019759
% es.Ez (V/m) @ t=2.8
-0.5111869699245748
% es.tEx (V/m) @ t=2.8
0.3886726727346863
% es.tEy (V/m) @ t=2.8
0
% es.tEz (V/m) @ t=2.8
-0.5111869699245855
% V (V) @ t=2.8
0.022313837725736214
% es.normE (V/m) @ t=2.9
0.8028734773844693
% es.EX (V/m) @ t=2.9
0.40531045696266865
% es.EY (V/m) @ t=2.9
0.3187188130820111
% es.EZ (V/m) @ t=2.9
-0.5330694805699543
% es.tEX (V/m) @ t=2.9
0.405310456962666
% es.tEY (V/m) @ t=2.9
0
% es.tEZ (V/m) @ t=2.9
-0.533069480569953
% es.Ex (V/m) @ t=2.9
0.40531045696266865
% es.Ey (V/m) @ t=2.9
0.3187188130820111
% es.Ez (V/m) @ t=2.9
-0.5330694805699543
% es.tEx (V/m) @ t=2.9
0.405310456962666
% es.tEy (V/m) @ t=2.9
0
% es.tEz (V/m) @ t=2.9
-0.533069480569953
% V (V) @ t=2.9
0.02326914656734464
% es.normE (V/m) @ t=3
0.8370354303542905
% es.EX (V/m) @ t=3
0.42255663428656653
% es.EY (V/m) @ t=3
0.3322790097254078
% es.EZ (V/m) @ t=3
-0.5557521881330918
% es.tEX (V/m) @ t=3
0.4225566342865701
% es.tEY (V/m) @ t=3
0
% es.tEZ (V/m) @ t=3
-0.5557521881330878
% es.Ex (V/m) @ t=3
0.42255663428656653
% es.Ey (V/m) @ t=3
0.3322790097254078
% es.Ez (V/m) @ t=3
-0.5557521881330918
% es.tEx (V/m) @ t=3
0.4225566342865701
% es.tEy (V/m) @ t=3
0
% es.tEz (V/m) @ t=3
-0.5557521881330878
% V (V) @ t=3
0.024259396712652787
% es.normE (V/m) @ t=3.1
0.8724024685687626
% es.EX (V/m) @ t=3.1
0.44041120470637907
% es.EY (V/m) @ t=3.1
0.34631747993213224
% es.EZ (V/m) @ t=3.1
-0.5792350926139931
% es.tEX (V/m) @ t=3.1
0.4404112047063853
% es.tEY (V/m) @ t=3.1
0
% es.tEZ (V/m) @ t=3.1
-0.5792350926139882
% es.Ex (V/m) @ t=3.1
0.44041120470637907
% es.Ey (V/m) @ t=3.1
0.34631747993213224
% es.Ez (V/m) @ t=3.1
-0.5792350926139931
% es.tEx (V/m) @ t=3.1
0.4404112047063853
% es.tEy (V/m) @ t=3.1
0
% es.tEz (V/m) @ t=3.1
-0.5792350926139882
% V (V) @ t=3.1
0.02528458816166066
% es.normE (V/m) @ t=3.2
0.9089745920282921
% es.EX (V/m) @ t=3.2
0.4588741682221311
% es.EY (V/m) @ t=3.2
0.3608342237022022
% es.EZ (V/m) @ t=3.2
-0.6035181940126608
% es.tEX (V/m) @ t=3.2
0.458874168222132
% es.tEY (V/m) @ t=3.2
0
% es.tEZ (V/m) @ t=3.2
-0.6035181940126648
% es.Ex (V/m) @ t=3.2
0.4588741682221311
% es.Ey (V/m) @ t=3.2
0.3608342237022022
% es.Ez (V/m) @ t=3.2
-0.6035181940126608
% es.tEx (V/m) @ t=3.2
0.458874168222132
% es.tEy (V/m) @ t=3.2
0
% es.tEz (V/m) @ t=3.2
-0.6035181940126648
% V (V) @ t=3.2
0.026344720914368243
% es.normE (V/m) @ t=3.3
0.9468393416760728
% es.EX (V/m) @ t=3.3
0.4779894019641997
% es.EY (V/m) @ t=3.3
0.37586497140742026
% es.EZ (V/m) @ t=3.3
-0.6286589347878007
% es.tEX (V/m) @ t=3.3
0.47798940196420325
% es.tEY (V/m) @ t=3.3
0
% es.tEZ (V/m) @ t=3.3
-0.6286589347878007
% es.Ex (V/m) @ t=3.3
0.4779894019641997
% es.Ey (V/m) @ t=3.3
0.37586497140742026
% es.Ez (V/m) @ t=3.3
-0.6286589347878007
% es.tEx (V/m) @ t=3.3
0.47798940196420325
% es.tEy (V/m) @ t=3.3
0
% es.tEz (V/m) @ t=3.3
-0.6286589347878007
% V (V) @ t=3.3
0.027442200112915528
% es.normE (V/m) @ t=3.4
0.9861397244969544
% es.EX (V/m) @ t=3.4
0.49782858366176796
% es.EY (V/m) @ t=3.4
0.3914680922230698
% es.EZ (V/m) @ t=3.4
-0.6547511530041268
% es.tEX (V/m) @ t=3.4
0.49782858366177596
% es.tEY (V/m) @ t=3.4
0
% es.tEZ (V/m) @ t=3.4
-0.6547511530041259
% es.Ex (V/m) @ t=3.4
0.49782858366176796
% es.Ey (V/m) @ t=3.4
0.3914680922230698
% es.Ez (V/m) @ t=3.4
-0.6547511530041268
% es.tEx (V/m) @ t=3.4
0.49782858366177596
% es.tEy (V/m) @ t=3.4
0
% es.tEz (V/m) @ t=3.4
-0.6547511530041259
% V (V) @ t=3.4
0.028580954800184775
% es.normE (V/m) @ t=3.5
1.026733285003971
% es.EX (V/m) @ t=3.5
0.5183203120013165
% es.EY (V/m) @ t=3.5
0.4075854420668765
% es.EZ (V/m) @ t=3.5
-0.6817013724709868
% es.tEX (V/m) @ t=3.5
0.51832031200132
% es.tEY (V/m) @ t=3.5
0
% es.tEZ (V/m) @ t=3.5
-0.6817013724709895
% es.Ex (V/m) @ t=3.5
0.5183203120013165
% es.Ey (V/m) @ t=3.5
0.4075854420668765
% es.Ez (V/m) @ t=3.5
-0.6817013724709868
% es.tEx (V/m) @ t=3.5
0.51832031200132
% es.tEy (V/m) @ t=3.5
0
% es.tEz (V/m) @ t=3.5
-0.6817013724709895
% V (V) @ t=3.5
0.029757071085126298
% es.normE (V/m) @ t=3.6
1.0686200232067182
% es.EX (V/m) @ t=3.6
0.5394645869828558
% es.EY (V/m) @ t=3.6
0.42421702093879965
% es.EZ (V/m) @ t=3.6
-0.7095095931883906
% es.tEX (V/m) @ t=3.6
0.5394645869828611
% es.tEY (V/m) @ t=3.6
0
% es.tEZ (V/m) @ t=3.6
-0.7095095931883897
% es.Ex (V/m) @ t=3.6
0.5394645869828558
% es.Ey (V/m) @ t=3.6
0.42421702093879965
% es.Ez (V/m) @ t=3.6
-0.7095095931883906
% es.tEx (V/m) @ t=3.6
0.5394645869828611
% es.tEy (V/m) @ t=3.6
0
% es.tEz (V/m) @ t=3.6
-0.7095095931883897
% V (V) @ t=3.6
0.030970548967740118
% es.normE (V/m) @ t=3.7
1.1117999391163689
% es.EX (V/m) @ t=3.7
0.5612614086063665
% es.EY (V/m) @ t=3.7
0.44136282883888
% es.EZ (V/m) @ t=3.7
-0.7381758151563611
% es.tEX (V/m) @ t=3.7
0.5612614086063719
% es.tEY (V/m) @ t=3.7
0
% es.tEZ (V/m) @ t=3.7
-0.7381758151563638
% es.Ex (V/m) @ t=3.7
0.5612614086063665
% es.Ey (V/m) @ t=3.7
0.44136282883888
% es.Ez (V/m) @ t=3.7
-0.7381758151563611
% es.tEx (V/m) @ t=3.7
0.5612614086063719
% es.tEy (V/m) @ t=3.7
0
% es.tEz (V/m) @ t=3.7
-0.7381758151563638
% V (V) @ t=3.7
0.032221388448026224
% es.normE (V/m) @ t=3.8
1.1562730327451671
% es.EX (V/m) @ t=3.8
0.583710776871877
% es.EY (V/m) @ t=3.8
0.4590228657670927
% es.EZ (V/m) @ t=3.8
-0.7677000383748345
% es.tEX (V/m) @ t=3.8
0.5837107768718877
% es.tEY (V/m) @ t=3.8
0
% es.tEZ (V/m) @ t=3.8
-0.7677000383748513
% es.Ex (V/m) @ t=3.8
0.583710776871877
% es.Ey (V/m) @ t=3.8
0.4590228657670927
% es.Ez (V/m) @ t=3.8
-0.7677000383748345
% es.tEx (V/m) @ t=3.8
0.5837107768718877
% es.tEy (V/m) @ t=3.8
0
% es.tEz (V/m) @ t=3.8
-0.7677000383748513
% V (V) @ t=3.8
0.033509589525984616
% es.normE (V/m) @ t=3.9
1.201747706368321
% es.EX (V/m) @ t=3.9
0.606666234869838
% es.EY (V/m) @ t=3.9
0.4770790536329379
% es.EZ (V/m) @ t=3.9
-0.7978902698405639
% es.tEX (V/m) @ t=3.9
0.606666234869838
% es.tEY (V/m) @ t=3.9
0
% es.tEZ (V/m) @ t=3.9
-0.7978902698405612
% es.Ex (V/m) @ t=3.9
0.606666234869838
% es.Ey (V/m) @ t=3.9
0.4770790536329379
% es.Ez (V/m) @ t=3.9
-0.7978902698405639
% es.tEx (V/m) @ t=3.9
0.606666234869838
% es.tEy (V/m) @ t=3.9
0
% es.tEz (V/m) @ t=3.9
-0.7978902698405612
% V (V) @ t=3.9
0.03482701410027414
% es.normE (V/m) @ t=4
1.2482703836813545
% es.EX (V/m) @ t=4
0.6301510992213188
% es.EY (V/m) @ t=4
0.4955501910174327
% es.EZ (V/m) @ t=4
-0.8287770757323427
% es.tEX (V/m) @ t=4
0.6301510992213277
% es.tEY (V/m) @ t=4
0
% es.tEZ (V/m) @ t=4
-0.8287770757323614
% es.Ex (V/m) @ t=4
0.6301510992213188
% es.Ey (V/m) @ t=4
0.4955501910174327
% es.Ez (V/m) @ t=4
-0.8287770757323427
% es.tEx (V/m) @ t=4
0.6301510992213277
% es.tEy (V/m) @ t=4
0
% es.tEz (V/m) @ t=4
-0.8287770757323614
% V (V) @ t=4
0.03617495779447147
% es.normE (V/m) @ t=4.1
1.2958709222174254
% es.EX (V/m) @ t=4.1
0.6541803660759484
% es.EY (V/m) @ t=4.1
0.514448368280334
% es.EZ (V/m) @ t=4.1
-0.8603801147732328
% es.tEX (V/m) @ t=4.1
0.6541803660759573
% es.tEY (V/m) @ t=4.1
0
% es.tEZ (V/m) @ t=4.1
-0.8603801147732355
% es.Ex (V/m) @ t=4.1
0.6541803660759484
% es.Ey (V/m) @ t=4.1
0.514448368280334
% es.Ez (V/m) @ t=4.1
-0.8603801147732328
% es.tEx (V/m) @ t=4.1
0.6541803660759573
% es.tEy (V/m) @ t=4.1
0
% es.tEz (V/m) @ t=4.1
-0.8603801147732355
% V (V) @ t=4.1
0.03755425389248164
% es.normE (V/m) @ t=4.2
1.3445199784309911
% es.EX (V/m) @ t=4.2
0.6787392974446114
% es.EY (V/m) @ t=4.2
0.5337617031988842
% es.EZ (V/m) @ t=4.2
-0.8926800666674604
% es.tEX (V/m) @ t=4.2
0.678739297444622
% es.tEY (V/m) @ t=4.2
0
% es.tEZ (V/m) @ t=4.2
-0.8926800666674595
% es.Ex (V/m) @ t=4.2
0.6787392974446114
% es.Ey (V/m) @ t=4.2
0.5337617031988842
% es.Ez (V/m) @ t=4.2
-0.8926800666674604
% es.tEx (V/m) @ t=4.2
0.678739297444622
% es.tEy (V/m) @ t=4.2
0
% es.tEz (V/m) @ t=4.2
-0.8926800666674595
% V (V) @ t=4.2
0.03896408345548253
% es.normE (V/m) @ t=4.3
1.394188208780586
% es.EX (V/m) @ t=4.3
0.703813155338203
% es.EY (V/m) @ t=4.3
0.5534783135504853
% es.EZ (V/m) @ t=4.3
-0.9256576111194965
% es.tEX (V/m) @ t=4.3
0.7038131553382119
% es.tEY (V/m) @ t=4.3
0
% es.tEZ (V/m) @ t=4.3
-0.9256576111194903
% es.Ex (V/m) @ t=4.3
0.703813155338203
% es.Ey (V/m) @ t=4.3
0.5534783135504853
% es.Ez (V/m) @ t=4.3
-0.9256576111194965
% es.tEx (V/m) @ t=4.3
0.7038131553382119
% es.tEy (V/m) @ t=4.3
0
% es.tEz (V/m) @ t=4.3
-0.9256576111194903
% V (V) @ t=4.3
0.04040362754465197
% es.normE (V/m) @ t=4.4
1.4446433534936827
% es.EX (V/m) @ t=4.4
0.729284600417099
% es.EY (V/m) @ t=4.4
0.573506274352976
% es.EZ (V/m) @ t=4.4
-0.9591583469760385
% es.tEX (V/m) @ t=4.4
0.7292846004171238
% es.tEY (V/m) @ t=4.4
0
% es.tEZ (V/m) @ t=4.4
-0.959158346976043
% es.Ex (V/m) @ t=4.4
0.729284600417099
% es.Ey (V/m) @ t=4.4
0.573506274352976
% es.Ez (V/m) @ t=4.4
-0.9591583469760385
% es.tEx (V/m) @ t=4.4
0.7292846004171238
% es.tEy (V/m) @ t=4.4
0
% es.tEz (V/m) @ t=4.4
-0.959158346976043
% V (V) @ t=4.4
0.04186611758129699
% es.normE (V/m) @ t=4.5
1.4951510962900452
% es.EX (V/m) @ t=4.5
0.7547824364973899
% es.EY (V/m) @ t=4.5
0.5935556183740225
% es.EZ (V/m) @ t=4.5
-0.9926936552585426
% es.tEX (V/m) @ t=4.5
0.7547824364973987
% es.tEY (V/m) @ t=4.5
0
% es.tEZ (V/m) @ t=4.5
-0.9926936552585595
% es.Ex (V/m) @ t=4.5
0.7547824364973899
% es.Ey (V/m) @ t=4.5
0.5935556183740225
% es.Ez (V/m) @ t=4.5
-0.9926936552585426
% es.tEx (V/m) @ t=4.5
0.7547824364973987
% es.tEy (V/m) @ t=4.5
0
% es.tEz (V/m) @ t=4.5
-0.9926936552585595
% V (V) @ t=4.5
0.04333006435394833
% es.normE (V/m) @ t=4.6
1.5460770306133524
% es.EX (V/m) @ t=4.6
0.780491619160351
% es.EY (V/m) @ t=4.6
0.6137702510520029
% es.EZ (V/m) @ t=4.6
-1.0265071242842945
% es.tEX (V/m) @ t=4.6
0.7804916191603457
% es.tEY (V/m) @ t=4.6
0
% es.tEZ (V/m) @ t=4.6
-1.0265071242842758
% es.Ex (V/m) @ t=4.6
0.780491619160351
% es.Ey (V/m) @ t=4.6
0.6137702510520029
% es.Ez (V/m) @ t=4.6
-1.0265071242842945
% es.tEx (V/m) @ t=4.6
0.7804916191603457
% es.tEy (V/m) @ t=4.6
0
% es.tEz (V/m) @ t=4.6
-1.0265071242842758
% V (V) @ t=4.6
0.044806228740452606
% es.normE (V/m) @ t=4.7
1.5973162859158165
% es.EX (V/m) @ t=4.7
0.8063592213909807
% es.EY (V/m) @ t=4.7
0.6341084976226696
% es.EZ (V/m) @ t=4.7
-1.0605291556049217
% es.tEX (V/m) @ t=4.7
0.8063592213909896
% es.tEY (V/m) @ t=4.7
0
% es.tEZ (V/m) @ t=4.7
-1.0605291556049394
% es.Ex (V/m) @ t=4.7
0.8063592213909807
% es.Ey (V/m) @ t=4.7
0.6341084976226696
% es.Ez (V/m) @ t=4.7
-1.0605291556049217
% es.tEx (V/m) @ t=4.7
0.8063592213909896
% es.tEy (V/m) @ t=4.7
0
% es.tEz (V/m) @ t=4.7
-1.0605291556049394
% V (V) @ t=4.7
0.046291577299449466
% es.normE (V/m) @ t=4.8
1.6487639916510297
% es.EX (V/m) @ t=4.8
0.8323323161742913
% es.EY (V/m) @ t=4.8
0.6545286833214732
% es.EZ (V/m) @ t=4.8
-1.0946901507720312
% es.tEX (V/m) @ t=4.8
0.8323323161743019
% es.tEY (V/m) @ t=4.8
0
% es.tEZ (V/m) @ t=4.8
-1.094690150772049
% es.Ex (V/m) @ t=4.8
0.8323323161742913
% es.Ey (V/m) @ t=4.8
0.6545286833214732
% es.Ez (V/m) @ t=4.8
-1.0946901507720312
% es.tEx (V/m) @ t=4.8
0.8323323161743019
% es.tEy (V/m) @ t=4.8
0
% es.tEz (V/m) @ t=4.8
-1.094690150772049
% V (V) @ t=4.8
0.047783076589578616
% es.normE (V/m) @ t=4.9
1.7003152772743015
% es.EX (V/m) @ t=4.9
0.8583579764952631
% es.EY (V/m) @ t=4.9
0.6749891333841624
% es.EZ (V/m) @ t=4.9
-1.1289205113373706
% es.tEX (V/m) @ t=4.9
0.8583579764952685
% es.tEY (V/m) @ t=4.9
0
% es.tEZ (V/m) @ t=4.9
-1.1289205113374052
% es.Ex (V/m) @ t=4.9
0.8583579764952631
% es.Ey (V/m) @ t=4.9
0.6749891333841624
% es.Ez (V/m) @ t=4.9
-1.1289205113373706
% es.tEx (V/m) @ t=4.9
0.8583579764952685
% es.tEy (V/m) @ t=4.9
0
% es.tEz (V/m) @ t=4.9
-1.1289205113374052
% V (V) @ t=4.9
0.04927769316947973
% es.normE (V/m) @ t=5
1.751187985529115
% es.EX (V/m) @ t=5
0.8840407322605053
% es.EY (V/m) @ t=5
0.6951812645292641
% es.EZ (V/m) @ t=5
-1.162699594383339
% es.tEX (V/m) @ t=5
0.8840407322605159
% es.tEY (V/m) @ t=5
0
% es.tEZ (V/m) @ t=5
-1.162699594383323
% es.Ex (V/m) @ t=5
0.8840407322605053
% es.Ey (V/m) @ t=5
0.6951812645292641
% es.Ez (V/m) @ t=5
-1.162699594383339
% es.tEx (V/m) @ t=5
0.8840407322605159
% es.tEy (V/m) @ t=5
0
% es.tEz (V/m) @ t=5
-1.162699594383323
% V (V) @ t=5
0.050752500110011735
% es.normE (V/m) @ t=5.1
1.801237938093418
% es.EX (V/m) @ t=5.1
0.9093077762459991
% es.EY (V/m) @ t=5.1
0.7150479113947057
% es.EZ (V/m) @ t=5.1
-1.1959316241461035
% es.tEX (V/m) @ t=5.1
0.9093077762460045
% es.tEY (V/m) @ t=5.1
0
% es.tEZ (V/m) @ t=5.1
-1.195931624146116
% es.Ex (V/m) @ t=5.1
0.9093077762459991
% es.Ey (V/m) @ t=5.1
0.7150479113947057
% es.Ez (V/m) @ t=5.1
-1.1959316241461035
% es.tEx (V/m) @ t=5.1
0.9093077762460045
% es.tEy (V/m) @ t=5.1
0
% es.tEz (V/m) @ t=5.1
-1.195931624146116
% V (V) @ t=5.1
0.05220330940935162
% es.normE (V/m) @ t=5.2
1.8505051716650371
% es.EX (V/m) @ t=5.2
0.9341794694198633
% es.EY (V/m) @ t=5.2
0.7346045049877432
% es.EZ (V/m) @ t=5.2
-1.2286435043150732
% es.tEX (V/m) @ t=5.2
0.934179469419858
% es.tEY (V/m) @ t=5.2
0
% es.tEZ (V/m) @ t=5.2
-1.2286435043150732
% es.Ex (V/m) @ t=5.2
0.9341794694198633
% es.Ey (V/m) @ t=5.2
0.7346045049877432
% es.Ez (V/m) @ t=5.2
-1.2286435043150732
% es.tEx (V/m) @ t=5.2
0.934179469419858
% es.tEy (V/m) @ t=5.2
0
% es.tEz (V/m) @ t=5.2
-1.2286435043150732
% V (V) @ t=5.2
0.05363134388962524
% es.normE (V/m) @ t=5.3
1.8988059132133897
% es.EX (V/m) @ t=5.3
0.9585629792195505
% es.EY (V/m) @ t=5.3
0.7537782762637768
% es.EZ (V/m) @ t=5.3
-1.2607130907108388
% es.tEX (V/m) @ t=5.3
0.9585629792195487