% Model:              1x1--2 - Copy1.mph
% Version:            COMSOL 6.1.0.252
% Date:               Apr 3 2023, 15:05
% Dimension:          0
% Nodes:              14017
% Expressions:        14017
% Description:        Electric field norm, Electric field, X component, Electric field, Y component, Electric field, Z component, Tangential electric field, X component, Tangential electric field, Y component, Tangential electric field, Z component, Electric field, x component, Electric field, y component, Electric field, z component, Tangential electric field, x component, Tangential electric field, y component, Tangential electric field, z component, Electric potential
% Length unit:        mm
% x
1.66
% y
12.2
% z
2
% es.normE (V/m) @ t=0
0.22803237623111178
% es.EX (V/m) @ t=0
0.11511578956095381
% es.EY (V/m) @ t=0
0.09052507404581966
% es.EZ (V/m) @ t=0
-0.15140072212546907
% es.tEX (V/m) @ t=0
0.11511578956095492
% es.tEY (V/m) @ t=0
0
% es.tEZ (V/m) @ t=0
-0.15140072212546274
% es.Ex (V/m) @ t=0
0.11511578956095381
% es.Ey (V/m) @ t=0
0.09052507404581966
% es.Ez (V/m) @ t=0
-0.15140072212546907
% es.tEx (V/m) @ t=0
0.11511578956095492
% es.tEy (V/m) @ t=0
0
% es.tEz (V/m) @ t=0
-0.15140072212546274
% V (V) @ t=0
0.006608565826590609
% es.normE (V/m) @ t=0.1
0.23157909689770867
% es.EX (V/m) @ t=0.1
0.11690627173530599
% es.EY (V/m) @ t=0.1
0.09193303472730552
% es.EZ (V/m) @ t=0.1
-0.15375555971324206
% es.tEX (V/m) @ t=0.1
0.11690627173530554
% es.tEY (V/m) @ t=0.1
0
% es.tEZ (V/m) @ t=0.1
-0.15375555971324006
% es.Ex (V/m) @ t=0.1
0.11690627173530599
% es.Ey (V/m) @ t=0.1
0.09193303472730552
% es.Ez (V/m) @ t=0.1
-0.15375555971324206
% es.tEx (V/m) @ t=0.1
0.11690627173530554
% es.tEy (V/m) @ t=0.1
0
% es.tEz (V/m) @ t=0.1
-0.15375555971324006
% V (V) @ t=0.1
0.0067113555113440205
% es.normE (V/m) @ t=0.2
0.24259923987505008
% es.EX (V/m) @ t=0.2
0.12246951037260567
% es.EY (V/m) @ t=0.2
0.09630780895193158
% es.EZ (V/m) @ t=0.2
-0.16107233642187058
% es.tEX (V/m) @ t=0.2
0.12246951037260678
% es.tEY (V/m) @ t=0.2
0
% es.tEZ (V/m) @ t=0.2
-0.16107233642187113
% es.Ex (V/m) @ t=0.2
0.12246951037260567
% es.Ey (V/m) @ t=0.2
0.09630780895193158
% es.Ez (V/m) @ t=0.2
-0.16107233642187058
% es.tEx (V/m) @ t=0.2
0.12246951037260678
% es.tEy (V/m) @ t=0.2
0
% es.tEz (V/m) @ t=0.2
-0.16107233642187113
% V (V) @ t=0.2
0.007030732222761642
% es.normE (V/m) @ t=0.3
0.25397159213042314
% es.EX (V/m) @ t=0.3
0.12821051980431308
% es.EY (V/m) @ t=0.3
0.1008224527831394
% es.EZ (V/m) @ t=0.3
-0.16862293709988396
% es.tEX (V/m) @ t=0.3
0.12821051980431464
% es.tEY (V/m) @ t=0.3
0
% es.tEZ (V/m) @ t=0.3
-0.1686229370998853
% es.Ex (V/m) @ t=0.3
0.12821051980431308
% es.Ey (V/m) @ t=0.3
0.1008224527831394
% es.Ez (V/m) @ t=0.3
-0.16862293709988396
% es.tEx (V/m) @ t=0.3
0.12821051980431464
% es.tEy (V/m) @ t=0.3
0
% es.tEz (V/m) @ t=0.3
-0.1686229370998853
% V (V) @ t=0.3
0.00736031151795803
% es.normE (V/m) @ t=0.4
0.26598687161482304
% es.EX (V/m) @ t=0.4
0.13427609642382032
% es.EY (V/m) @ t=0.4
0.10559232312020272
% es.EZ (V/m) @ t=0.4
-0.17660040781993458
% es.tEX (V/m) @ t=0.4
0.13427609642382077
% es.tEY (V/m) @ t=0.4
0
% es.tEZ (V/m) @ t=0.4
-0.17660040781993303
% es.Ex (V/m) @ t=0.4
0.13427609642382032
% es.Ey (V/m) @ t=0.4
0.10559232312020272
% es.Ez (V/m) @ t=0.4
-0.17660040781993458
% es.tEx (V/m) @ t=0.4
0.13427609642382077
% es.tEy (V/m) @ t=0.4
0
% es.tEz (V/m) @ t=0.4
-0.17660040781993303
% V (V) @ t=0.4
0.007708523856122518
% es.normE (V/m) @ t=0.5
0.2786693046042108
% es.EX (V/m) @ t=0.5
0.14067855803749296
% es.EY (V/m) @ t=0.5
0.1106269056694722
% es.EZ (V/m) @ t=0.5
-0.18502089680496003
% es.tEX (V/m) @ t=0.5
0.1406785580374934
% es.tEY (V/m) @ t=0.5
0
% es.tEZ (V/m) @ t=0.5
-0.18502089680495892
% es.Ex (V/m) @ t=0.5
0.14067855803749296
% es.Ey (V/m) @ t=0.5
0.1106269056694722
% es.Ez (V/m) @ t=0.5
-0.18502089680496003
% es.tEx (V/m) @ t=0.5
0.1406785580374934
% es.tEy (V/m) @ t=0.5
0
% es.tEz (V/m) @ t=0.5
-0.18502089680495892
% V (V) @ t=0.5
0.008076084227474316
% es.normE (V/m) @ t=0.6
0.292338713377982
% es.EX (V/m) @ t=0.6
0.14757941332890612
% es.EY (V/m) @ t=0.6
0.11605308162053962
% es.EZ (V/m) @ t=0.6
-0.1940967880160962
% es.tEX (V/m) @ t=0.6
0.14757941332890834
% es.tEY (V/m) @ t=0.6
0
% es.tEZ (V/m) @ t=0.6
-0.19409678801609687
% es.Ex (V/m) @ t=0.6
0.14757941332890612
% es.Ey (V/m) @ t=0.6
0.11605308162053962
% es.Ez (V/m) @ t=0.6
-0.1940967880160962
% es.tEx (V/m) @ t=0.6
0.14757941332890834
% es.tEy (V/m) @ t=0.6
0
% es.tEz (V/m) @ t=0.6
-0.19409678801609687
% V (V) @ t=0.6
0.008472269463503324
% es.normE (V/m) @ t=0.7
0.3060081221523606
% es.EX (V/m) @ t=0.7
0.15448026862031972
% es.EY (V/m) @ t=0.7
0.12147925757161371
% es.EZ (V/m) @ t=0.7
-0.20317267922722348
% es.tEX (V/m) @ t=0.7
0.15448026862032016
% es.tEY (V/m) @ t=0.7
0
% es.tEZ (V/m) @ t=0.7
-0.2031726792272286
% es.Ex (V/m) @ t=0.7
0.15448026862031972
% es.Ey (V/m) @ t=0.7
0.12147925757161371
% es.Ez (V/m) @ t=0.7
-0.20317267922722348
% es.tEx (V/m) @ t=0.7
0.15448026862032016
% es.tEy (V/m) @ t=0.7
0
% es.tEz (V/m) @ t=0.7
-0.2031726792272286
% V (V) @ t=0.7
0.008868454699532327
% es.normE (V/m) @ t=0.8
0.3201788710759599
% es.EX (V/m) @ t=0.8
0.16163404480592902
% es.EY (V/m) @ t=0.8
0.12710470723943867
% es.EZ (V/m) @ t=0.8
-0.21258131201081798
% es.tEX (V/m) @ t=0.8
0.16163404480593035
% es.tEY (V/m) @ t=0.8
0
% es.tEZ (V/m) @ t=0.8
-0.21258131201081643
% es.Ex (V/m) @ t=0.8
0.16163404480592902
% es.Ey (V/m) @ t=0.8
0.12710470723943867
% es.Ez (V/m) @ t=0.8
-0.21258131201081798
% es.tEx (V/m) @ t=0.8
0.16163404480593035
% es.tEy (V/m) @ t=0.8
0
% es.tEz (V/m) @ t=0.8
-0.21258131201081643
% V (V) @ t=0.8
0.009279144719569773
% es.normE (V/m) @ t=0.9
0.33548761500537394
% es.EX (V/m) @ t=0.9
0.1693619276433913
% es.EY (V/m) @ t=0.9
0.13318248950985723
% es.EZ (V/m) @ t=0.9
-0.22274523688170356
% es.tEX (V/m) @ t=0.9
0.16936192764339353
% es.tEY (V/m) @ t=0.9
0
% es.tEZ (V/m) @ t=0.9
-0.22274523688170067
% es.Ex (V/m) @ t=0.9
0.1693619276433913
% es.Ey (V/m) @ t=0.9
0.13318248950985723
% es.Ez (V/m) @ t=0.9
-0.22274523688170356
% es.tEx (V/m) @ t=0.9
0.16936192764339353
% es.tEy (V/m) @ t=0.9
0
% es.tEz (V/m) @ t=0.9
-0.22274523688170067
% V (V) @ t=0.9
0.009722759235661217
% es.normE (V/m) @ t=1
0.35079635893597727
% es.EX (V/m) @ t=1
0.1770898104808527
% es.EY (V/m) @ t=1
0.13926027178027667
% es.EZ (V/m) @ t=1
-0.2329091617525929
% es.tEX (V/m) @ t=1
0.17708981048085493
% es.tEY (V/m) @ t=1
0
% es.tEZ (V/m) @ t=1
-0.2329091617525938
% es.Ex (V/m) @ t=1
0.1770898104808527
% es.Ey (V/m) @ t=1
0.13926027178027667
% es.Ez (V/m) @ t=1
-0.2329091617525929
% es.tEx (V/m) @ t=1
0.17708981048085493
% es.tEy (V/m) @ t=1
0
% es.tEz (V/m) @ t=1
-0.2329091617525938
% V (V) @ t=1
0.010166373751752663
% es.normE (V/m) @ t=1.1
0.367107156328692
% es.EX (V/m) @ t=1.1
0.18532312015992414
% es.EY (V/m) @ t=1.1
0.14573650035019803
% es.EZ (V/m) @ t=1.1
-0.24373808255709584
% es.tEX (V/m) @ t=1.1
0.18532312015992636
% es.tEY (V/m) @ t=1.1
0
% es.tEZ (V/m) @ t=1.1
-0.24373808255708695
% es.Ex (V/m) @ t=1.1
0.18532312015992414
% es.Ey (V/m) @ t=1.1
0.14573650035019803
% es.Ez (V/m) @ t=1.1
-0.24373808255709584
% es.tEx (V/m) @ t=1.1
0.18532312015992636
% es.tEy (V/m) @ t=1.1
0
% es.tEz (V/m) @ t=1.1
-0.24373808255708695
% V (V) @ t=1.1
0.010638965211921756
% es.normE (V/m) @ t=1.2
0.38428371278850865
% es.EX (V/m) @ t=1.2
0.19399311099746708
% es.EY (V/m) @ t=1.2
0.15255698050576783
% es.EZ (V/m) @ t=1.2
-0.25514154980582715
% es.tEX (V/m) @ t=1.2
0.19399311099746797
% es.tEY (V/m) @ t=1.2
0
% es.tEZ (V/m) @ t=1.2
-0.25514154980583115
% es.Ex (V/m) @ t=1.2
0.19399311099746708
% es.Ey (V/m) @ t=1.2
0.15255698050576783
% es.Ez (V/m) @ t=1.2
-0.25514154980582715
% es.tEx (V/m) @ t=1.2
0.19399311099746797
% es.tEy (V/m) @ t=1.2
0
% es.tEz (V/m) @ t=1.2
-0.25514154980583115
% V (V) @ t=1.2
0.011136592314179893
% es.normE (V/m) @ t=1.3
0.401460269258748
% es.EX (V/m) @ t=1.3
0.20266310183500558
% es.EY (V/m) @ t=1.3
0.15937746066132696
% es.EZ (V/m) @ t=1.3
-0.26654501705457
% es.tEX (V/m) @ t=1.3
0.20266310183500647
% es.tEY (V/m) @ t=1.3
0
% es.tEZ (V/m) @ t=1.3
-0.2665450170545727
% es.Ex (V/m) @ t=1.3
0.20266310183500558
% es.Ey (V/m) @ t=1.3
0.15937746066132696
% es.Ez (V/m) @ t=1.3
-0.26654501705457
% es.tEx (V/m) @ t=1.3
0.20266310183500647
% es.tEy (V/m) @ t=1.3
0
% es.tEz (V/m) @ t=1.3
-0.2665450170545727
% V (V) @ t=1.3
0.01163421941643803
% es.normE (V/m) @ t=1.4
0.4202694025091184
% es.EX (V/m) @ t=1.4
0.21215631285308056
% es.EY (V/m) @ t=1.4
0.16684745732993278
% es.EZ (V/m) @ t=1.4
-0.27903174551278687
% es.tEX (V/m) @ t=1.4
0.21215631285308456
% es.tEY (V/m) @ t=1.4
0
% es.tEZ (V/m) @ t=1.4
-0.2790317455127802
% es.Ex (V/m) @ t=1.4
0.21215631285308056
% es.Ey (V/m) @ t=1.4
0.16684745732993278
% es.Ez (V/m) @ t=1.4
-0.27903174551278687
% es.tEx (V/m) @ t=1.4
0.21215631285308456
% es.tEy (V/m) @ t=1.4
0
% es.tEz (V/m) @ t=1.4
-0.2790317455127802
% V (V) @ t=1.4
0.012179021880331767
% es.normE (V/m) @ t=1.5
0.43957406292341183
% es.EX (V/m) @ t=1.5
0.22189939140519588
% es.EY (V/m) @ t=1.5
0.1745145982052474
% es.EZ (V/m) @ t=1.5
-0.2918472703410879
% es.tEX (V/m) @ t=1.5
0.22189939140519543
% es.tEY (V/m) @ t=1.5
0
% es.tEZ (V/m) @ t=1.5
-0.29184727034108615
% es.Ex (V/m) @ t=1.5
0.22189939140519588
% es.Ey (V/m) @ t=1.5
0.1745145982052474
% es.Ez (V/m) @ t=1.5
-0.2918472703410879
% es.tEx (V/m) @ t=1.5
0.22189939140519543
% es.tEy (V/m) @ t=1.5
0
% es.tEz (V/m) @ t=1.5
-0.29184727034108615
% V (V) @ t=1.5
0.012738143224590324
% es.normE (V/m) @ t=1.6
0.4588787233724476
% es.EX (V/m) @ t=1.6
0.23164246995730142
% es.EY (V/m) @ t=1.6
0.18218173908054514
% es.EZ (V/m) @ t=1.6
-0.30466279516939565
% es.tEX (V/m) @ t=1.6
0.23164246995730364
% es.tEY (V/m) @ t=1.6
0
% es.tEZ (V/m) @ t=1.6
-0.3046627951693992
% es.Ex (V/m) @ t=1.6
0.23164246995730142
% es.Ey (V/m) @ t=1.6
0.18218173908054514
% es.Ez (V/m) @ t=1.6
-0.30466279516939565
% es.tEx (V/m) @ t=1.6
0.23164246995730364
% es.tEy (V/m) @ t=1.6
0
% es.tEz (V/m) @ t=1.6
-0.3046627951693992
% V (V) @ t=1.6
0.013297264568848879
% es.normE (V/m) @ t=1.7
0.479526084550815
% es.EX (V/m) @ t=1.7
0.242065226720924
% es.EY (V/m) @ t=1.7
0.19037913111084048
% es.EZ (V/m) @ t=1.7
-0.3183711342926232
% es.tEX (V/m) @ t=1.7
0.24206522672092756
% es.tEY (V/m) @ t=1.7
0
% es.tEZ (V/m) @ t=1.7
-0.31837113429262054
% es.Ex (V/m) @ t=1.7
0.242065226720924
% es.Ey (V/m) @ t=1.7
0.19037913111084048
% es.Ez (V/m) @ t=1.7
-0.3183711342926232
% es.tEx (V/m) @ t=1.7
0.24206522672092756
% es.tEy (V/m) @ t=1.7
0
% es.tEz (V/m) @ t=1.7
-0.31837113429262054
% V (V) @ t=1.7
0.013895570452183443
% es.normE (V/m) @ t=1.8
0.5008900103083721
% es.EX (V/m) @ t=1.8
0.2528507101329662
% es.EY (V/m) @ t=1.8
0.19885950444168454
% es.EZ (V/m) @ t=1.8
-0.33255594526879984
% es.tEX (V/m) @ t=1.8
0.2528507101329671
% es.tEY (V/m) @ t=1.8
0
% es.tEZ (V/m) @ t=1.8
-0.33255594526879495
% es.Ex (V/m) @ t=1.8
0.2528507101329662
% es.Ey (V/m) @ t=1.8
0.19885950444168454
% es.Ez (V/m) @ t=1.8
-0.33255594526879984
% es.tEx (V/m) @ t=1.8
0.2528507101329671
% es.tEy (V/m) @ t=1.8
0
% es.tEz (V/m) @ t=1.8
-0.33255594526879495
% V (V) @ t=1.8
0.014514788108600912
% es.normE (V/m) @ t=1.9
0.5229683426334519
% es.EX (V/m) @ t=1.9
0.2639978277927604
% es.EY (V/m) @ t=1.9
0.20762200683642096
% es.EZ (V/m) @ t=1.9
-0.34721579313812656
% es.tEX (V/m) @ t=1.9
0.26399782779276215
% es.tEY (V/m) @ t=1.9
0
% es.tEZ (V/m) @ t=1.9
-0.3472157931381217
% es.Ex (V/m) @ t=1.9
0.2639978277927604
% es.Ey (V/m) @ t=1.9
0.20762200683642096
% es.Ez (V/m) @ t=1.9
-0.34721579313812656
% es.tEx (V/m) @ t=1.9
0.26399782779276215
% es.tEy (V/m) @ t=1.9
0
% es.tEz (V/m) @ t=1.9
-0.3472157931381217
% V (V) @ t=1.9
0.015154854559451843
% es.normE (V/m) @ t=2
0.5457610815633114
% es.EX (V/m) @ t=2
0.2755065797003242
% es.EY (V/m) @ t=2
0.21666663829505683
% es.EZ (V/m) @ t=2
-0.3623506779006065
% es.tEX (V/m) @ t=2
0.27550657970032777
% es.tEY (V/m) @ t=2
0
% es.tEZ (V/m) @ t=2
-0.3623506779006078
% es.Ex (V/m) @ t=2
0.2755065797003242
% es.Ey (V/m) @ t=2
0.21666663829505683
% es.Ez (V/m) @ t=2
-0.3623506779006065
% es.tEx (V/m) @ t=2
0.27550657970032777
% es.tEy (V/m) @ t=2
0
% es.tEz (V/m) @ t=2
-0.3623506779006078
% V (V) @ t=2
0.015815769804736226
% es.normE (V/m) @ t=2.1
0.5692682271486109
% es.EX (V/m) @ t=2.1
0.287376965855656
% es.EY (V/m) @ t=2.1
0.22599339881755753
% es.EZ (V/m) @ t=2.1
-0.3779605995562356
% es.tEX (V/m) @ t=2.1
0.28737696585565775
% es.tEY (V/m) @ t=2.1
0
% es.tEZ (V/m) @ t=2.1
-0.3779605995562427
% es.Ex (V/m) @ t=2.1
0.287376965855656
% es.Ey (V/m) @ t=2.1
0.22599339881755753
% es.Ez (V/m) @ t=2.1
-0.3779605995562356
% es.tEx (V/m) @ t=2.1
0.28737696585565775
% es.tEy (V/m) @ t=2.1
0
% es.tEz (V/m) @ t=2.1
-0.3779605995562427
% V (V) @ t=2.1
0.016497533844454067
% es.normE (V/m) @ t=2.2
0.5938617138253116
% es.EX (V/m) @ t=2.2
0.29979503052346157
% es.EY (V/m) @ t=2.2
0.23575251399416963
% es.EZ (V/m) @ t=2.2
-0.39429126421370286
% es.tEX (V/m) @ t=2.2
0.29979503052346423
% es.tEY (V/m) @ t=2.2
0
% es.tEZ (V/m) @ t=2.2
-0.3942912642137024
% es.Ex (V/m) @ t=2.2
0.29979503052346157
% es.Ey (V/m) @ t=2.2
0.23575251399416963
% es.Ez (V/m) @ t=2.2
-0.39429126421370286
% es.tEx (V/m) @ t=2.2
0.29979503052346423
% es.tEy (V/m) @ t=2.2
0
% es.tEz (V/m) @ t=2.2
-0.3942912642137024
% V (V) @ t=2.2
0.017210673685944842
% es.normE (V/m) @ t=2.3
0.6198047949719713
% es.EX (V/m) @ t=2.3
0.31289245497232
% es.EY (V/m) @ t=2.3
0.2460503128016196
% es.EZ (V/m) @ t=2.3
-0.4115165815183377
% es.tEX (V/m) @ t=2.3
0.31289245497232
% es.tEY (V/m) @ t=2.3
0
% es.tEZ (V/m) @ t=2.3
-0.4115165815183328
% es.Ex (V/m) @ t=2.3
0.31289245497232
% es.Ey (V/m) @ t=2.3
0.2460503128016196
% es.Ez (V/m) @ t=2.3
-0.4115165815183377
% es.tEx (V/m) @ t=2.3
0.31289245497232
% es.tEy (V/m) @ t=2.3
0
% es.tEz (V/m) @ t=2.3
-0.4115165815183328
% V (V) @ t=2.3
0.017962640296228887
% es.normE (V/m) @ t=2.4
0.6467323985864213
% es.EX (V/m) @ t=2.4
0.32648662756301405
% es.EY (V/m) @ t=2.4
0.2567393413996726
% es.EZ (V/m) @ t=2.4
-0.4293953787828326
% es.tEX (V/m) @ t=2.4
0.3264866275630194
% es.tEY (V/m) @ t=2.4
0
% es.tEZ (V/m) @ t=2.4
-0.42939537878283396
% es.Ex (V/m) @ t=2.4
0.32648662756301405
% es.Ey (V/m) @ t=2.4
0.2567393413996726
% es.Ez (V/m) @ t=2.4
-0.4293953787828326
% es.tEx (V/m) @ t=2.4
0.3264866275630194
% es.tEy (V/m) @ t=2.4
0
% es.tEz (V/m) @ t=2.4
-0.42939537878283396
% V (V) @ t=2.4
0.018743100897409267
% es.normE (V/m) @ t=2.5
0.6746445246663664
% es.EX (V/m) @ t=2.5
0.34057754829553666
% es.EY (V/m) @ t=2.5
0.2678195997883446
% es.EZ (V/m) @ t=2.5
-0.4479276560072152
% es.tEX (V/m) @ t=2.5
0.3405775482955393
% es.tEY (V/m) @ t=2.5
0
% es.tEZ (V/m) @ t=2.5
-0.4479276560072183
% es.Ex (V/m) @ t=2.5
0.34057754829553666
% es.Ey (V/m) @ t=2.5
0.2678195997883446
% es.Ez (V/m) @ t=2.5
-0.4479276560072152
% es.tEx (V/m) @ t=2.5
0.3405775482955393
% es.tEy (V/m) @ t=2.5
0
% es.tEz (V/m) @ t=2.5
-0.4479276560072183
% V (V) @ t=2.5
0.01955205548948598
% es.normE (V/m) @ t=2.6
0.7035411732109338
% es.EX (V/m) @ t=2.6
0.355165217169894
% es.EY (V/m) @ t=2.6
0.2792910879676338
% es.EZ (V/m) @ t=2.6
-0.46711341319146804
% es.tEX (V/m) @ t=2.6
0.355165217169902
% es.tEY (V/m) @ t=2.6
0
% es.tEZ (V/m) @ t=2.6
-0.46711341319146804
% es.Ex (V/m) @ t=2.6
0.355165217169894
% es.Ey (V/m) @ t=2.6
0.2792910879676338
% es.Ez (V/m) @ t=2.6
-0.46711341319146804
% es.tEx (V/m) @ t=2.6
0.355165217169902
% es.tEy (V/m) @ t=2.6
0
% es.tEz (V/m) @ t=2.6
-0.46711341319146804
% V (V) @ t=2.6
0.020389504072459028
% es.normE (V/m) @ t=2.7
0.7334223442204592
% es.EX (V/m) @ t=2.7
0.37024963418608614
% es.EY (V/m) @ t=2.7
0.29115380593751716
% es.EZ (V/m) @ t=2.7
-0.4869526503355872
% es.tEX (V/m) @ t=2.7
0.3702496341860897
% es.tEY (V/m) @ t=2.7
0
% es.tEZ (V/m) @ t=2.7
-0.48695265033560275
% es.Ex (V/m) @ t=2.7
0.37024963418608614
% es.Ey (V/m) @ t=2.7
0.29115380593751716
% es.Ez (V/m) @ t=2.7
-0.4869526503355872
% es.tEx (V/m) @ t=2.7
0.3702496341860897
% es.tEy (V/m) @ t=2.7
0
% es.tEz (V/m) @ t=2.7
-0.48695265033560275
% V (V) @ t=2.7
0.02125544664632841
% es.normE (V/m) @ t=2.8
0.7649168792767891
% es.EX (V/m) @ t=2.8
0.3861486246128294
% es.EY (V/m) @ t=2.8
0.30365683602187055
% es.EZ (V/m) @ t=2.8
-0.5078631505283493
% es.tEX (V/m) @ t=2.8
0.38614862461283206
% es.tEY (V/m) @ t=2.8
0
% es.tEZ (V/m) @ t=2.8
-0.5078631505283351
% es.Ex (V/m) @ t=2.8
0.3861486246128294
% es.Ey (V/m) @ t=2.8
0.30365683602187055
% es.Ez (V/m) @ t=2.8
-0.5078631505283493
% es.tEx (V/m) @ t=2.8
0.38614862461283206
% es.tEy (V/m) @ t=2.8
0
% es.tEz (V/m) @ t=2.8
-0.5078631505283351
% V (V) @ t=2.8
0.022168162491600016
% es.normE (V/m) @ t=2.9
0.7976533862456501
% es.EX (V/m) @ t=2.9
0.4026744817074075
% es.EY (V/m) @ t=2.9
0.3166530708749917
% es.EZ (V/m) @ t=2.9
-0.5295981722093219
% es.tEX (V/m) @ t=2.9
0.40267448170741016
% es.tEY (V/m) @ t=2.9
0
% es.tEZ (V/m) @ t=2.9
-0.5295981722093082
% es.Ex (V/m) @ t=2.9
0.4026744817074075
% es.Ey (V/m) @ t=2.9
0.3166530708749917
% es.Ez (V/m) @ t=2.9
-0.5295981722093219
% es.tEx (V/m) @ t=2.9
0.40267448170741016
% es.tEy (V/m) @ t=2.9
0
% es.tEz (V/m) @ t=2.9
-0.5295981722093082
% V (V) @ t=2.9
0.023116855914725724
% es.normE (V/m) @ t=3
0.8315859503634945
% es.EX (V/m) @ t=3
0.4198039995103837
% es.EY (V/m) @ t=3
0.33012432379217316
% es.EZ (V/m) @ t=3
-0.5521272110153297
% es.tEX (V/m) @ t=3
0.41980399951038194
% es.tEY (V/m) @ t=3
0
% es.tEZ (V/m) @ t=3
-0.552127211015339
% es.Ex (V/m) @ t=3
0.4198039995103837
% es.Ey (V/m) @ t=3
0.33012432379217316
% es.Ez (V/m) @ t=3
-0.5521272110153297
% es.tEx (V/m) @ t=3
0.41980399951038194
% es.tEy (V/m) @ t=3
0
% es.tEz (V/m) @ t=3
-0.552127211015339
% V (V) @ t=3
0.024100192257061344
% es.normE (V/m) @ t=3.1
0.8667145716310027
% es.EX (V/m) @ t=3.1
0.43753717802172787
% es.EY (V/m) @ t=3.1
0.3440705947733971
% es.EZ (V/m) @ t=3.1
-0.5754502669463402
% es.tEX (V/m) @ t=3.1
0.43753717802173586
% es.tEY (V/m) @ t=3.1
0
% es.tEZ (V/m) @ t=3.1
-0.575450266946337
% es.Ex (V/m) @ t=3.1
0.43753717802172787
% es.Ey (V/m) @ t=3.1
0.3440705947733971
% es.Ez (V/m) @ t=3.1
-0.5754502669463402
% es.tEx (V/m) @ t=3.1
0.43753717802173586
% es.tEy (V/m) @ t=3.1
0
% es.tEz (V/m) @ t=3.1
-0.575450266946337
% V (V) @ t=3.1
0.025118171518606885
% es.normE (V/m) @ t=3.2
0.9030392500490891
% es.EX (V/m) @ t=3.2
0.4558740172414719
% es.EY (V/m) @ t=3.2
0.35849188381871677
% es.EZ (V/m) @ t=3.2
-0.599567340002424
% es.tEX (V/m) @ t=3.2
0.4558740172414719
% es.tEY (V/m) @ t=3.2
0
% es.tEZ (V/m) @ t=3.2
-0.5995673400024284
% es.Ex (V/m) @ t=3.2
0.4558740172414719
% es.Ey (V/m) @ t=3.2
0.35849188381871677
% es.Ez (V/m) @ t=3.2
-0.599567340002424
% es.tEx (V/m) @ t=3.2
0.4558740172414719
% es.tEy (V/m) @ t=3.2
0
% es.tEz (V/m) @ t=3.2
-0.5995673400024284
% V (V) @ t=3.2
0.026170793699362357
% es.normE (V/m) @ t=3.3
0.9406611547432784
% es.EX (V/m) @ t=3.3
0.47486593316228465
% es.EY (V/m) @ t=3.3
0.37342783793132384
% es.EZ (V/m) @ t=3.3
-0.6245458488455995
% es.tEX (V/m) @ t=3.3
0.47486593316228287
% es.tEY (V/m) @ t=3.3
0
% es.tEZ (V/m) @ t=3.3
-0.6245458488456048
% es.Ex (V/m) @ t=3.3
0.47486593316228465
% es.Ey (V/m) @ t=3.3
0.37342783793132384
% es.Ez (V/m) @ t=3.3
-0.6245458488455995
% es.tEx (V/m) @ t=3.3
0.47486593316228287
% es.tEy (V/m) @ t=3.3
0
% es.tEz (V/m) @ t=3.3
-0.6245458488456048
% V (V) @ t=3.3
0.027261041066885087
% es.normE (V/m) @ t=3.4
0.979704761674572
% es.EX (V/m) @ t=3.4
0.4945761867362517
% es.EY (V/m) @ t=3.4
0.38892723779293803
% es.EZ (V/m) @ t=3.4
-0.6504687437123478
% es.tEX (V/m) @ t=3.4
0.49457618673625525
% es.tEY (V/m) @ t=3.4
0
% es.tEZ (V/m) @ t=3.4
-0.650468743712354
% es.Ex (V/m) @ t=3.4
0.4945761867362517
% es.Ey (V/m) @ t=3.4
0.38892723779293803
% es.Ez (V/m) @ t=3.4
-0.6504687437123478
% es.tEx (V/m) @ t=3.4
0.49457618673625525
% es.tEy (V/m) @ t=3.4
0
% es.tEz (V/m) @ t=3.4
-0.650468743712354
% V (V) @ t=3.4
0.028392582928626155
% es.normE (V/m) @ t=3.5
1.0200339357940065
% es.EX (V/m) @ t=3.5
0.5149355916509748
% es.EY (V/m) @ t=3.5
0.4049367336613887
% es.EZ (V/m) @ t=3.5
-0.6772453048018194
% es.tEX (V/m) @ t=3.5
0.5149355916509837
% es.tEY (V/m) @ t=3.5
0
% es.tEZ (V/m) @ t=3.5
-0.6772453048018097
% es.Ex (V/m) @ t=3.5
0.5149355916509748
% es.Ey (V/m) @ t=3.5
0.4049367336613887
% es.Ez (V/m) @ t=3.5
-0.6772453048018194
% es.tEx (V/m) @ t=3.5
0.5149355916509837
% es.tEy (V/m) @ t=3.5
0
% es.tEz (V/m) @ t=3.5
-0.6772453048018097
% V (V) @ t=3.5
0.029561406290104102
% es.normE (V/m) @ t=3.6
1.0616486771022107
% es.EX (V/m) @ t=3.6
0.5359441479064557
% es.EY (V/m) @ t=3.6
0.4214563255366901
% es.EZ (V/m) @ t=3.6
-0.7048755321140527
% es.tEX (V/m) @ t=3.6
0.535944147906461
% es.tEY (V/m) @ t=3.6
0
% es.tEZ (V/m) @ t=3.6
-0.7048755321140572
% es.Ex (V/m) @ t=3.6
0.5359441479064557
% es.Ey (V/m) @ t=3.6
0.4214563255366901
% es.Ez (V/m) @ t=3.6
-0.7048755321140527
% es.tEx (V/m) @ t=3.6
0.535944147906461
% es.tEy (V/m) @ t=3.6
0
% es.tEz (V/m) @ t=3.6
-0.7048755321140572
% V (V) @ t=3.6
0.030767511151318948
% es.normE (V/m) @ t=3.7
1.1045489855999713
% es.EX (V/m) @ t=3.7
0.5576018555026945
% es.EY (V/m) @ t=3.7
0.43848601341884397
% es.EZ (V/m) @ t=3.7
-0.7333594256490032
% es.tEX (V/m) @ t=3.7
0.5576018555027016
% es.tEY (V/m) @ t=3.7
0
% es.tEZ (V/m) @ t=3.7
-0.733359425649013
% es.Ex (V/m) @ t=3.7
0.5576018555026945
% es.Ey (V/m) @ t=3.7
0.43848601341884397
% es.Ez (V/m) @ t=3.7
-0.7333594256490032
% es.tEx (V/m) @ t=3.7
0.5576018555027016
% es.tEy (V/m) @ t=3.7
0
% es.tEz (V/m) @ t=3.7
-0.733359425649013
% V (V) @ t=3.7
0.03201089751227069
% es.normE (V/m) @ t=3.8
1.1487348612882482
% es.EX (V/m) @ t=3.8
0.5799087144396893
% es.EY (V/m) @ t=3.8
0.45602579730780235
% es.EZ (V/m) @ t=3.8
-0.762696985406687
% es.tEX (V/m) @ t=3.8
0.579908714439691
% es.tEY (V/m) @ t=3.8
0
% es.tEZ (V/m) @ t=3.8
-0.7626969854066914
% es.Ex (V/m) @ t=3.8
0.5799087144396893
% es.Ey (V/m) @ t=3.8
0.45602579730780235
% es.Ez (V/m) @ t=3.8
-0.762696985406687
% es.tEx (V/m) @ t=3.8
0.579908714439691
% es.tEy (V/m) @ t=3.8
0
% es.tEz (V/m) @ t=3.8
-0.7626969854066914
% V (V) @ t=3.8
0.03329156537295931
% es.normE (V/m) @ t=3.9
1.1939003632993863
% es.EX (V/m) @ t=3.9
0.6027090666508244
% es.EY (V/m) @ t=3.9
0.47395604187337526
% es.EZ (V/m) @ t=3.9
-0.7926842094951416
% es.tEX (V/m) @ t=3.9
0.6027090666508279
% es.tEY (V/m) @ t=3.9
0
% es.tEZ (V/m) @ t=3.9
-0.7926842094951603
% es.Ex (V/m) @ t=3.9
0.6027090666508244
% es.Ey (V/m) @ t=3.9
0.47395604187337526
% es.Ez (V/m) @ t=3.9
-0.7926842094951416
% es.tEx (V/m) @ t=3.9
0.6027090666508279
% es.tEy (V/m) @ t=3.9
0
% es.tEz (V/m) @ t=3.9
-0.7926842094951603
% V (V) @ t=3.9
0.034600470457474344
% es.normE (V/m) @ t=4
1.2401248220175516
% es.EX (V/m) @ t=4
0.6260432742301383
% es.EY (V/m) @ t=4
0.492307768523915
% es.EZ (V/m) @ t=4
-0.8233739955490238
% es.tEX (V/m) @ t=4
0.6260432742301436
% es.tEY (V/m) @ t=4
0
% es.tEZ (V/m) @ t=4
-0.8233739955490229
% es.Ex (V/m) @ t=4
0.6260432742301383
% es.Ey (V/m) @ t=4
0.492307768523915
% es.Ez (V/m) @ t=4
-0.8233739955490238
% es.tEx (V/m) @ t=4
0.6260432742301436
% es.tEy (V/m) @ t=4
0
% es.tEz (V/m) @ t=4
-0.8233739955490229
% V (V) @ t=4
0.03593995794408118
% es.normE (V/m) @ t=4.1
1.2874235902579758
% es.EX (V/m) @ t=4.1
0.6499191484539608
% es.EY (V/m) @ t=4.1
0.5110869808327969
% es.EZ (V/m) @ t=4.1
-0.8547765808480259
% es.tEX (V/m) @ t=4.1
0.6499191484539661
% es.tEY (V/m) @ t=4.1
0
% es.tEZ (V/m) @ t=4.1
-0.8547765808480179
% es.Ex (V/m) @ t=4.1
0.6499191484539608
% es.Ey (V/m) @ t=4.1
0.5110869808327969
% es.Ez (V/m) @ t=4.1
-0.8547765808480259
% es.tEx (V/m) @ t=4.1
0.6499191484539661
% es.tEy (V/m) @ t=4.1
0
% es.tEz (V/m) @ t=4.1
-0.8547765808480179
% V (V) @ t=4.1
0.03731048169514504
% es.normE (V/m) @ t=4.2
1.3357680493554414
% es.EX (V/m) @ t=4.2
0.6743221285749303
% es.EY (V/m) @ t=4.2
0.5302824877331886
% es.EZ (V/m) @ t=4.2
-0.8868728824105174
% es.tEX (V/m) @ t=4.2
0.6743221285749321
% es.tEY (V/m) @ t=4.2
0
% es.tEZ (V/m) @ t=4.2
-0.8868728824105077
% es.Ex (V/m) @ t=4.2
0.6743221285749303
% es.Ey (V/m) @ t=4.2
0.5302824877331886
% es.Ez (V/m) @ t=4.2
-0.8868728824105174
% es.tEx (V/m) @ t=4.2
0.6743221285749321
% es.tEy (V/m) @ t=4.2
0
% es.tEz (V/m) @ t=4.2
-0.8868728824105077
% V (V) @ t=4.2
0.03871119568052215
% es.normE (V/m) @ t=4.3
1.385129580650907
% es.EX (V/m) @ t=4.3
0.6992376538456888
% es.EY (V/m) @ t=4.3
0.5498830981583183
% es.EZ (V/m) @ t=4.3
-0.919643817255003
% es.tEX (V/m) @ t=4.3
0.699237653845703
% es.tEY (V/m) @ t=4.3
0
% es.tEZ (V/m) @ t=4.3
-0.9196438172549897
% es.Ex (V/m) @ t=4.3
0.6992376538456888
% es.Ey (V/m) @ t=4.3
0.5498830981583183
% es.Ez (V/m) @ t=4.3
-0.919643817255003
% es.tEx (V/m) @ t=4.3
0.699237653845703
% es.tEy (V/m) @ t=4.3
0
% es.tEz (V/m) @ t=4.3
-0.9196438172549897
% V (V) @ t=4.3
0.04014125387006879
% es.normE (V/m) @ t=4.4
1.435228004120683
% es.EX (V/m) @ t=4.4
0.7245246706365442
% es.EY (V/m) @ t=4.4
0.5697770042463368
% es.EZ (V/m) @ t=4.4
-0.952903640935082
% es.tEX (V/m) @ t=4.4
0.7245246706365478
% es.tEY (V/m) @ t=4.4
0
% es.tEZ (V/m) @ t=4.4
-0.9529036409350944
% es.Ex (V/m) @ t=4.4
0.7245246706365442
% es.Ey (V/m) @ t=4.4
0.5697770042463368
% es.Ez (V/m) @ t=4.4
-0.952903640935082
% es.tEx (V/m) @ t=4.4
0.7245246706365478
% es.tEy (V/m) @ t=4.4
0
% es.tEz (V/m) @ t=4.4
-0.9529036409350944
% V (V) @ t=4.4
0.041592593274293085
% es.normE (V/m) @ t=4.5
1.4854162610631236
% es.EX (V/m) @ t=4.5
0.7498576473162437
% es.EY (V/m) @ t=4.5
0.5897056579792412
% es.EZ (V/m) @ t=4.5
-0.9862235488937703
% es.tEX (V/m) @ t=4.5
0.7498576473162544
% es.tEY (V/m) @ t=4.5
0
% es.tEZ (V/m) @ t=4.5
-0.986223548893765
% es.Ex (V/m) @ t=4.5
0.7498576473162437
% es.Ey (V/m) @ t=4.5
0.5897056579792412
% es.Ez (V/m) @ t=4.5
-0.9862235488937703
% es.tEx (V/m) @ t=4.5
0.7498576473162544
% es.tEy (V/m) @ t=4.5
0
% es.tEz (V/m) @ t=4.5
-0.986223548893765
% V (V) @ t=4.5
0.04304662564558881
% es.normE (V/m) @ t=4.6
1.5360256509744095
% es.EX (V/m) @ t=4.6
0.7754030011893676
% es.EY (V/m) @ t=4.6
0.6098018244658405
% es.EZ (V/m) @ t=4.6
-1.019822906880262
% es.tEX (V/m) @ t=4.6
0.7754030011893782
% es.tEY (V/m) @ t=4.6
0
% es.tEZ (V/m) @ t=4.6
-1.0198229068802682
% es.Ex (V/m) @ t=4.6
0.7754030011893676
% es.Ey (V/m) @ t=4.6
0.6098018244658405
% es.Ez (V/m) @ t=4.6
-1.019822906880262
% es.tEx (V/m) @ t=4.6
0.7754030011893782
% es.tEy (V/m) @ t=4.6
0
% es.tEz (V/m) @ t=4.6
-1.0198229068802682
% V (V) @ t=4.6
0.044512830524853206
% es.normE (V/m) @ t=4.7
1.586953015869069
% es.EX (V/m) @ t=4.7
0.8011086908221721
% es.EY (V/m) @ t=4.7
0.6300244992104744
% es.EZ (V/m) @ t=4.7
-1.0536332490071638
% es.tEX (V/m) @ t=4.7
0.8011086908221721
% es.tEY (V/m) @ t=4.7
0
% es.tEZ (V/m) @ t=4.7
-1.0536332490071842
% es.Ex (V/m) @ t=4.7
0.8011086908221721
% es.Ey (V/m) @ t=4.7
0.6300244992104744
% es.Ez (V/m) @ t=4.7
-1.0536332490071638
% es.tEx (V/m) @ t=4.7
0.8011086908221721
% es.tEy (V/m) @ t=4.7
0
% es.tEz (V/m) @ t=4.7
-1.0536332490071842
% V (V) @ t=4.7
0.04598822344865592
% es.normE (V/m) @ t=4.8
1.6380951977606233
% es.EX (V/m) @ t=4.8
0.8269226747808425
% es.EY (V/m) @ t=4.8
0.650332677717536
% es.EZ (V/m) @ t=4.8
-1.087586109387093
% es.tEX (V/m) @ t=4.8
0.8269226747808496
% es.tEY (V/m) @ t=4.8
0
% es.tEZ (V/m) @ t=4.8
-1.0875861093871038
% es.Ex (V/m) @ t=4.8
0.8269226747808425
% es.Ey (V/m) @ t=4.8
0.650332677717536
% es.Ez (V/m) @ t=4.8
-1.087586109387093
% es.tEx (V/m) @ t=4.8
0.8269226747808496
% es.tEy (V/m) @ t=4.8
0
% es.tEz (V/m) @ t=4.8
-1.0875861093871038
% V (V) @ t=4.8
0.04746981995356666
% es.normE (V/m) @ t=4.9
1.6893490386617533
% es.EX (V/m) @ t=4.9
0.8527929116316457
% es.EY (V/m) @ t=4.9
0.6706853554914076
% es.EZ (V/m) @ t=4.9
-1.1216130221326663
% es.tEX (V/m) @ t=4.9
0.8527929116316564
% es.tEY (V/m) @ t=4.9
0
% es.tEZ (V/m) @ t=4.9
-1.1216130221326566
% es.Ex (V/m) @ t=4.9
0.8527929116316457
% es.Ey (V/m) @ t=4.9
0.6706853554914076
% es.Ez (V/m) @ t=4.9
-1.1216130221326663
% es.tEx (V/m) @ t=4.9
0.8527929116316564
% es.tEy (V/m) @ t=4.9
0
% es.tEz (V/m) @ t=4.9
-1.1216130221326566
% V (V) @ t=4.9
0.04895463557615509
% es.normE (V/m) @ t=5
1.7398627413367949
% es.EX (V/m) @ t=5
0.8782922588671589
% es.EY (V/m) @ t=5
0.6907400892420981
% es.EZ (V/m) @ t=5
-1.1551505063846257
% es.tEX (V/m) @ t=5
0.8782922588671571
% es.tEY (V/m) @ t=5
0
% es.tEZ (V/m) @ t=5
-1.1551505063846719
% es.Ex (V/m) @ t=5
0.8782922588671589
% es.Ey (V/m) @ t=5
0.6907400892420981
% es.Ez (V/m) @ t=5
-1.1551505063846257
% es.tEx (V/m) @ t=5
0.8782922588671571
% es.tEy (V/m) @ t=5
0
% es.tEz (V/m) @ t=5
-1.1551505063846719
% V (V) @ t=5
0.05041840466885148
% es.normE (V/m) @ t=5.1
1.789610158343306
% es.EX (V/m) @ t=5.1
0.9034072607160546
% es.EY (V/m) @ t=5.1
0.7104868826911144
% es.EZ (V/m) @ t=5.1
-1.1881810171458183
% es.tEX (V/m) @ t=5.1
0.9034072607160617
% es.tEY (V/m) @ t=5.1
0
% es.tEZ (V/m) @ t=5.1
-1.1881810171458262
% es.Ex (V/m) @ t=5.1
0.9034072607160546
% es.Ey (V/m) @ t=5.1
0.7104868826911144
% es.Ez (V/m) @ t=5.1
-1.1881810171458183
% es.tEx (V/m) @ t=5.1
0.9034072607160617
% es.tEy (V/m) @ t=5.1
0
% es.tEz (V/m) @ t=5.1
-1.1881810171458262
% V (V) @ t=5.1
0.05186033190775707
% es.normE (V/m) @ t=5.2
1.838585937759233
% es.EX (V/m) @ t=5.2
0.9281348808566108
% es.EY (V/m) @ t=5.2
0.7299241128400453
% es.EZ (V/m) @ t=5.2
-1.2207007598023587
% es.tEX (V/m) @ t=5.2
0.9281348808566214
% es.tEY (V/m) @ t=5.2
0
% es.tEZ (V/m) @ t=5.2
-1.2207007598023623
% es.Ex (V/m) @ t=5.2
0.9281348808566108
% es.Ey (V/m) @ t=5.2
0.7299241128400453
% es.Ez (V/m) @ t=5.2
-1.2207007598023587
% es.tEx (V/m) @ t=5.2
0.9281348808566214
% es.tEy (V/m) @ t=5.2
0
% es.tEz (V/m) @ t=5.2
-1.2207007598023623
% V (V) @ t=5.2
0.05328021311157144
% es.normE (V/m) @ t=5.3
1.8866083639743003
% es.EX (V/m) @ t=5.3
0.9523837170120686
% es.EY (V/m) @ t=5.3
0.748979144025391
% es.EZ (V/m) @ t=5.3
-1.2525893245831359
% es.tEX (V/m) @ t=5.3