% Model:              1x1--2 - Copy1.mph
% Version:            COMSOL 6.1.0.252
% Date:               Apr 3 2023, 15:10
% Dimension:          0
% Nodes:              14017
% Expressions:        14017
% Description:        Electric field norm, Electric field, X component, Electric field, Y component, Electric field, Z component, Tangential electric field, X component, Tangential electric field, Y component, Tangential electric field, Z component, Electric field, x component, Electric field, y component, Electric field, z component, Tangential electric field, x component, Tangential electric field, y component, Tangential electric field, z component, Electric potential
% Length unit:        mm
% x
1.33
% y
12.2
% z
1.3300000000000003
% es.normE (V/m) @ t=0
0.3210076357845002
% es.EX (V/m) @ t=0
0.23419428055161357
% es.EY (V/m) @ t=0
0.10235654312844156
% es.EZ (V/m) @ t=0
-0.17334379845803283
% es.tEX (V/m) @ t=0
0.23419428055161529
% es.tEY (V/m) @ t=0
0
% es.tEZ (V/m) @ t=0
-0.17334379845802927
% es.Ex (V/m) @ t=0
0.23419428055161357
% es.Ey (V/m) @ t=0
0.10235654312844156
% es.Ez (V/m) @ t=0
-0.17334379845803283
% es.tEx (V/m) @ t=0
0.23419428055161529
% es.tEy (V/m) @ t=0
0
% es.tEz (V/m) @ t=0
-0.17334379845802927
% V (V) @ t=0
0.00658433360447327
% es.normE (V/m) @ t=0.1
0.3260048309719581
% es.EX (V/m) @ t=0.1
0.23784003757261024
% es.EY (V/m) @ t=0.1
0.1039499404379195
% es.EZ (V/m) @ t=0.1
-0.17604228252001664
% es.tEX (V/m) @ t=0.1
0.23784003757261019
% es.tEY (V/m) @ t=0.1
0
% es.tEZ (V/m) @ t=0.1
-0.17604228252001486
% es.Ex (V/m) @ t=0.1
0.23784003757261024
% es.Ey (V/m) @ t=0.1
0.1039499404379195
% es.Ez (V/m) @ t=0.1
-0.17604228252001664
% es.tEx (V/m) @ t=0.1
0.23784003757261019
% es.tEy (V/m) @ t=0.1
0
% es.tEz (V/m) @ t=0.1
-0.17604228252001486
% V (V) @ t=0.1
0.006686834374880029
% es.normE (V/m) @ t=0.2
0.341522842038953
% es.EX (V/m) @ t=0.2
0.2491613358007867
% es.EY (V/m) @ t=0.2
0.10889805788780793
% es.EZ (V/m) @ t=0.2
-0.1844219764720464
% es.tEX (V/m) @ t=0.2
0.24916133580078847
% es.tEY (V/m) @ t=0.2
0
% es.tEZ (V/m) @ t=0.2
-0.18442197647204284
% es.Ex (V/m) @ t=0.2
0.2491613358007867
% es.Ey (V/m) @ t=0.2
0.10889805788780793
% es.Ez (V/m) @ t=0.2
-0.1844219764720464
% es.tEx (V/m) @ t=0.2
0.24916133580078847
% es.tEy (V/m) @ t=0.2
0
% es.tEz (V/m) @ t=0.2
-0.18442197647204284
% V (V) @ t=0.2
0.007005126419064791
% es.normE (V/m) @ t=0.3
0.35753949695228093
% es.EX (V/m) @ t=0.3
0.26084640934564207
% es.EY (V/m) @ t=0.3
0.11400520653012325
% es.EZ (V/m) @ t=0.3
-0.19307092413061355
% es.tEX (V/m) @ t=0.3
0.2608464093456438
% es.tEY (V/m) @ t=0.3
0
% es.tEZ (V/m) @ t=0.3
-0.19307092413061
% es.Ex (V/m) @ t=0.3
0.26084640934564207
% es.Ey (V/m) @ t=0.3
0.11400520653012325
% es.Ez (V/m) @ t=0.3
-0.19307092413061355
% es.tEx (V/m) @ t=0.3
0.2608464093456438
% es.tEy (V/m) @ t=0.3
0
% es.tEz (V/m) @ t=0.3
-0.19307092413061
% V (V) @ t=0.3
0.007333642543242447
% es.normE (V/m) @ t=0.4
0.37445910453305
% es.EX (V/m) @ t=0.4
0.27319037993184886
% es.EY (V/m) @ t=0.4
0.11939996944845571
% es.EZ (V/m) @ t=0.4
-0.20220758288891205
% es.tEX (V/m) @ t=0.4
0.2731903799318506
% es.tEY (V/m) @ t=0.4
0
% es.tEZ (V/m) @ t=0.4
-0.2022075828889085
% es.Ex (V/m) @ t=0.4
0.27319037993184886
% es.Ey (V/m) @ t=0.4
0.11939996944845571
% es.Ez (V/m) @ t=0.4
-0.20220758288891205
% es.tEx (V/m) @ t=0.4
0.2731903799318506
% es.tEy (V/m) @ t=0.4
0
% es.tEz (V/m) @ t=0.4
-0.2022075828889085
% V (V) @ t=0.4
0.007680714698176571
% es.normE (V/m) @ t=0.5
0.39230900882482383
% es.EX (V/m) @ t=0.5
0.2862122083270277
% es.EY (V/m) @ t=0.5
0.1250932163021118
% es.EZ (V/m) @ t=0.5
-0.2118458737970983
% es.tEX (V/m) @ t=0.5
0.2862122083270294
% es.tEY (V/m) @ t=0.5
0
% es.tEZ (V/m) @ t=0.5
-0.21184587379709474
% es.Ex (V/m) @ t=0.5
0.2862122083270277
% es.Ey (V/m) @ t=0.5
0.1250932163021118
% es.Ez (V/m) @ t=0.5
-0.2118458737970983
% es.tEx (V/m) @ t=0.5
0.2862122083270294
% es.tEy (V/m) @ t=0.5
0
% es.tEz (V/m) @ t=0.5
-0.21184587379709474
% V (V) @ t=0.5
0.008046653733601522
% es.normE (V/m) @ t=0.6
0.411563824289429
% es.EX (V/m) @ t=0.6
0.3002575769263167
% es.EY (V/m) @ t=0.6
0.13123753937509575
% es.EZ (V/m) @ t=0.6
-0.22224159419419554
% es.tEX (V/m) @ t=0.6
0.30025757692631844
% es.tEY (V/m) @ t=0.6
0
% es.tEZ (V/m) @ t=0.6
-0.22224159419419198
% es.Ex (V/m) @ t=0.6
0.3002575769263167
% es.Ey (V/m) @ t=0.6
0.13123753937509575
% es.Ez (V/m) @ t=0.6
-0.22224159419419554
% es.tEx (V/m) @ t=0.6
0.30025757692631844
% es.tEy (V/m) @ t=0.6
0
% es.tEz (V/m) @ t=0.6
-0.22224159419419198
% V (V) @ t=0.6
0.008441048661820985
% es.normE (V/m) @ t=0.7
0.4308186398407705
% es.EX (V/m) @ t=0.7
0.31430294552559507
% es.EY (V/m) @ t=0.7
0.13738186244808948
% es.EZ (V/m) @ t=0.7
-0.23263731459129988
% es.tEX (V/m) @ t=0.7
0.3143029455255968
% es.tEY (V/m) @ t=0.7
0
% es.tEZ (V/m) @ t=0.7
-0.23263731459129278
% es.Ex (V/m) @ t=0.7
0.31430294552559507
% es.Ey (V/m) @ t=0.7
0.13738186244808948
% es.Ez (V/m) @ t=0.7
-0.23263731459129988
% es.tEx (V/m) @ t=0.7
0.3143029455255968
% es.tEy (V/m) @ t=0.7
0
% es.tEz (V/m) @ t=0.7
-0.23263731459129278
% V (V) @ t=0.7
0.008835443590040444
% es.normE (V/m) @ t=0.8
0.45075913833403575
% es.EX (V/m) @ t=0.8
0.3288505735416836
% es.EY (V/m) @ t=0.8
0.14374044103106243
% es.EZ (V/m) @ t=0.8
-0.2434050252880684
% es.tEX (V/m) @ t=0.8
0.32885057354168534
% es.tEY (V/m) @ t=0.8
0
% es.tEZ (V/m) @ t=0.8
-0.24340502528806485
% es.Ex (V/m) @ t=0.8
0.3288505735416836
% es.Ey (V/m) @ t=0.8
0.14374044103106243
% es.Ez (V/m) @ t=0.8
-0.2434050252880684
% es.tEx (V/m) @ t=0.8
0.32885057354168534
% es.tEy (V/m) @ t=0.8
0
% es.tEz (V/m) @ t=0.8
-0.24340502528806485
% V (V) @ t=0.8
0.00924441219381552
% es.normE (V/m) @ t=0.9
0.4723348965035904
% es.EX (V/m) @ t=0.9
0.3445960212148941
% es.EY (V/m) @ t=0.9
0.150609989548933
% es.EZ (V/m) @ t=0.9
-0.25505988170739124
% es.tEX (V/m) @ t=0.9
0.3445960212148958
% es.tEY (V/m) @ t=0.9
0
% es.tEZ (V/m) @ t=0.9
-0.2550598817073877
% es.Ex (V/m) @ t=0.9
0.3445960212148941
% es.Ey (V/m) @ t=0.9
0.150609989548933
% es.Ez (V/m) @ t=0.9
-0.25505988170739124
% es.tEx (V/m) @ t=0.9
0.3445960212148958
% es.tEy (V/m) @ t=0.9
0
% es.tEz (V/m) @ t=0.9
-0.2550598817073877
% V (V) @ t=0.9
0.00968813701016348
% es.normE (V/m) @ t=1
0.49391065506891996
% es.EX (V/m) @ t=1
0.3603414688880975
% es.EY (V/m) @ t=1
0.1574795380668098
% es.EZ (V/m) @ t=1
-0.2667147381267143
% es.tEX (V/m) @ t=1
0.3603414688880992
% es.tEY (V/m) @ t=1
0
% es.tEZ (V/m) @ t=1
-0.2667147381267072
% es.Ex (V/m) @ t=1
0.3603414688880975
% es.Ey (V/m) @ t=1
0.1574795380668098
% es.Ez (V/m) @ t=1
-0.2667147381267143
% es.tEx (V/m) @ t=1
0.3603414688880992
% es.tEy (V/m) @ t=1
0
% es.tEz (V/m) @ t=1
-0.2667147381267072
% V (V) @ t=1
0.010131861826511442
% es.normE (V/m) @ t=1.1
0.5168585003941915
% es.EX (V/m) @ t=1.1
0.3770828744623045
% es.EY (V/m) @ t=1.1
0.1647976077364397
% es.EZ (V/m) @ t=1.1
-0.27910619133317227
% es.tEX (V/m) @ t=1.1
0.37708287446230615
% es.tEY (V/m) @ t=1.1
0
% es.tEZ (V/m) @ t=1.1
-0.27910619133316517
% es.Ex (V/m) @ t=1.1
0.3770828744623045
% es.Ey (V/m) @ t=1.1
0.1647976077364397
% es.Ez (V/m) @ t=1.1
-0.27910619133317227
% es.tEx (V/m) @ t=1.1
0.37708287446230615
% es.tEy (V/m) @ t=1.1
0
% es.tEz (V/m) @ t=1.1
-0.27910619133316517
% V (V) @ t=1.1
0.010602449014160287
% es.normE (V/m) @ t=1.2
0.5410609634661966
% es.EX (V/m) @ t=1.2
0.3947349705239763
% es.EY (V/m) @ t=1.2
0.17252579910489652
% es.EZ (V/m) @ t=1.2
-0.2921711787186063
% es.tEX (V/m) @ t=1.2
0.394734970523978
% es.tEY (V/m) @ t=1.2
0
% es.tEZ (V/m) @ t=1.2
-0.2921711787185992
% es.Ex (V/m) @ t=1.2
0.3947349705239763
% es.Ey (V/m) @ t=1.2
0.17252579910489652
% es.Ez (V/m) @ t=1.2
-0.2921711787186063
% es.tEx (V/m) @ t=1.2
0.394734970523978
% es.tEy (V/m) @ t=1.2
0
% es.tEz (V/m) @ t=1.2
-0.2921711787185992
% V (V) @ t=1.2
0.011097598792246014
% es.normE (V/m) @ t=1.3
0.5652634269328546
% es.EX (V/m) @ t=1.3
0.4123870665856465
% es.EY (V/m) @ t=1.3
0.18025399047335744
% es.EZ (V/m) @ t=1.3
-0.30523616610405124
% es.tEX (V/m) @ t=1.3
0.4123870665856482
% es.tEY (V/m) @ t=1.3
0
% es.tEZ (V/m) @ t=1.3
-0.3052361661040477
% es.Ex (V/m) @ t=1.3
0.4123870665856465
% es.Ey (V/m) @ t=1.3
0.18025399047335744
% es.Ez (V/m) @ t=1.3
-0.30523616610405124
% es.tEx (V/m) @ t=1.3
0.4123870665856482
% es.tEy (V/m) @ t=1.3
0
% es.tEz (V/m) @ t=1.3
-0.3052361661040477
% V (V) @ t=1.3
0.011592748570331737
% es.normE (V/m) @ t=1.4
0.5917241797688111
% es.EX (V/m) @ t=1.4
0.4316928738041668
% es.EY (V/m) @ t=1.4
0.18868881029711992
% es.EZ (V/m) @ t=1.4
-0.31952594874002305
% es.tEX (V/m) @ t=1.4
0.43169287380417026
% es.tEY (V/m) @ t=1.4
0
% es.tEZ (V/m) @ t=1.4
-0.3195259487400195
% es.Ex (V/m) @ t=1.4
0.4316928738041668
% es.Ey (V/m) @ t=1.4
0.18868881029711992
% es.Ez (V/m) @ t=1.4
-0.31952594874002305
% es.tEx (V/m) @ t=1.4
0.43169287380417026
% es.tEy (V/m) @ t=1.4
0
% es.tEz (V/m) @ t=1.4
-0.3195259487400195
% V (V) @ t=1.4
0.012135776466518311
% es.normE (V/m) @ t=1.5
0.6189405565030532
% es.EX (V/m) @ t=1.5
0.4515520129231998
% es.EY (V/m) @ t=1.5
0.19736006806504247
% es.EZ (V/m) @ t=1.5
-0.3342255479760299
% es.tEX (V/m) @ t=1.5
0.45155201292320324
% es.tEY (V/m) @ t=1.5
0
% es.tEZ (V/m) @ t=1.5
-0.3342255479760228
% es.Ex (V/m) @ t=1.5
0.4515520129231998
% es.Ey (V/m) @ t=1.5
0.19736006806504247
% es.Ez (V/m) @ t=1.5
-0.3342255479760299
% es.tEx (V/m) @ t=1.5
0.45155201292320324
% es.tEy (V/m) @ t=1.5
0
% es.tEz (V/m) @ t=1.5
-0.3342255479760228
% V (V) @ t=1.5
0.012694824385290326
% es.normE (V/m) @ t=1.6
0.6461569333876291
% es.EX (V/m) @ t=1.6
0.4714111520422434
% es.EY (V/m) @ t=1.6
0.2060313258329598
% es.EZ (V/m) @ t=1.6
-0.3489251472120509
% es.tEX (V/m) @ t=1.6
0.4714111520422468
% es.tEY (V/m) @ t=1.6
0
% es.tEZ (V/m) @ t=1.6
-0.3489251472120438
% es.Ex (V/m) @ t=1.6
0.4714111520422434
% es.Ey (V/m) @ t=1.6
0.2060313258329598
% es.Ez (V/m) @ t=1.6
-0.3489251472120509
% es.tEx (V/m) @ t=1.6
0.4714111520422468
% es.tEy (V/m) @ t=1.6
0
% es.tEz (V/m) @ t=1.6
-0.3489251472120438
% V (V) @ t=1.6
0.013253872304062341
% es.normE (V/m) @ t=1.7
0.6752138844313111
% es.EX (V/m) @ t=1.7
0.492611676525361
% es.EY (V/m) @ t=1.7
0.2152926156037418
% es.EZ (V/m) @ t=1.7
-0.3646173874324419
% es.tEX (V/m) @ t=1.7
0.4926116765253644
% es.tEY (V/m) @ t=1.7
0
% es.tEZ (V/m) @ t=1.7
-0.36461738743243477
% es.Ex (V/m) @ t=1.7
0.492611676525361
% es.Ey (V/m) @ t=1.7
0.2152926156037418
% es.Ez (V/m) @ t=1.7
-0.3646173874324419
% es.tEx (V/m) @ t=1.7
0.4926116765253644
% es.tEy (V/m) @ t=1.7
0
% es.tEz (V/m) @ t=1.7
-0.36461738743243477
% V (V) @ t=1.7
0.013850312841223636
% es.normE (V/m) @ t=1.8
0.7053094651871548
% es.EX (V/m) @ t=1.8
0.514569140221437
% es.EY (V/m) @ t=1.8
0.224886858433215
% es.EZ (V/m) @ t=1.8
-0.3808697715947824
% es.tEX (V/m) @ t=1.8
0.5145691402214404
% es.tEY (V/m) @ t=1.8
0
% es.tEZ (V/m) @ t=1.8
-0.3808697715947753
% es.Ex (V/m) @ t=1.8
0.514569140221437
% es.Ey (V/m) @ t=1.8
0.224886858433215
% es.Ez (V/m) @ t=1.8
-0.3808697715947824
% es.tEx (V/m) @ t=1.8
0.5145691402214404
% es.tEy (V/m) @ t=1.8
0
% es.tEz (V/m) @ t=1.8
-0.3808697715947753
% V (V) @ t=1.8
0.014467853906161997
% es.normE (V/m) @ t=1.9
0.7364107927928156
% es.EX (V/m) @ t=1.9
0.5372595785656518
% es.EY (V/m) @ t=1.9
0.23480351308501313
% es.EZ (V/m) @ t=1.9
-0.3976645656385258
% es.tEX (V/m) @ t=1.9
0.5372595785656552
% es.tEY (V/m) @ t=1.9
0
% es.tEZ (V/m) @ t=1.9
-0.3976645656385187
% es.Ex (V/m) @ t=1.9
0.5372595785656518
% es.Ey (V/m) @ t=1.9
0.23480351308501313
% es.Ez (V/m) @ t=1.9
-0.3976645656385258
% es.tEx (V/m) @ t=1.9
0.5372595785656552
% es.tEy (V/m) @ t=1.9
0
% es.tEz (V/m) @ t=1.9
-0.3976645656385187
% V (V) @ t=1.9
0.01510582745981016
% es.normE (V/m) @ t=2
0.7685178672484209
% es.EX (V/m) @ t=2
0.5606829915580266
% es.EY (V/m) @ t=2
0.24504257955915376
% es.EZ (V/m) @ t=2
-0.41500176956369716
% es.tEX (V/m) @ t=2
0.56068299155803
% es.tEY (V/m) @ t=2
0
% es.tEZ (V/m) @ t=2
-0.41500176956369006
% es.Ex (V/m) @ t=2
0.5606829915580266
% es.Ey (V/m) @ t=2
0.24504257955915376
% es.Ez (V/m) @ t=2
-0.41500176956369716
% es.tEx (V/m) @ t=2
0.56068299155803
% es.tEy (V/m) @ t=2
0
% es.tEz (V/m) @ t=2
-0.41500176956369006
% V (V) @ t=2
0.015764233502168122
% es.normE (V/m) @ t=2.1
0.8016306885742743
% es.EX (V/m) @ t=2.1
0.5848393791985331
% es.EY (V/m) @ t=2.1
0.2556040578556189
% es.EZ (V/m) @ t=2.1
-0.4328813833702714
% es.tEX (V/m) @ t=2.1
0.5848393791985366
% es.tEY (V/m) @ t=2.1
0
% es.tEZ (V/m) @ t=2.1
-0.43288138337026427
% es.Ex (V/m) @ t=2.1
0.5848393791985331
% es.Ey (V/m) @ t=2.1
0.2556040578556189
% es.Ez (V/m) @ t=2.1
-0.4328813833702714
% es.tEx (V/m) @ t=2.1
0.5848393791985366
% es.tEy (V/m) @ t=2.1
0
% es.tEz (V/m) @ t=2.1
-0.43288138337026427
% V (V) @ t=2.1
0.016443072033235886
% es.normE (V/m) @ t=2.2
0.8362410591587466
% es.EX (V/m) @ t=2.2
0.6100886594737372
% es.EY (V/m) @ t=2.2
0.26664228785569377
% es.EZ (V/m) @ t=2.2
-0.45156997955885814
% es.tEX (V/m) @ t=2.2
0.6100886594737407
% es.tEY (V/m) @ t=2.2
0
% es.tEZ (V/m) @ t=2.2
-0.4515699795588439
% es.Ex (V/m) @ t=2.2
0.6100886594737372
% es.Ey (V/m) @ t=2.2
0.26664228785569377
% es.Ez (V/m) @ t=2.2
-0.45156997955885814
% es.tEx (V/m) @ t=2.2
0.6100886594737407
% es.tEy (V/m) @ t=2.2
0
% es.tEz (V/m) @ t=2.2
-0.4515699795588439
% V (V) @ t=2.2
0.017152713736669677
% es.normE (V/m) @ t=2.3
0.8727825537055752
% es.EX (V/m) @ t=2.3
0.6367481373696019
% es.EY (V/m) @ t=2.3
0.27829333615151053
% es.EZ (V/m) @ t=2.3
-0.47130256940075865
% es.tEX (V/m) @ t=2.3
0.6367481373696053
% es.tEY (V/m) @ t=2.3
0
% es.tEZ (V/m) @ t=2.3
-0.47130256940075155
% es.Ex (V/m) @ t=2.3
0.6367481373696019
% es.Ey (V/m) @ t=2.3
0.27829333615151053
% es.Ez (V/m) @ t=2.3
-0.47130256940075865
% es.tEx (V/m) @ t=2.3
0.6367481373696053
% es.tEy (V/m) @ t=2.3
0
% es.tEz (V/m) @ t=2.3
-0.47130256940075155
% V (V) @ t=2.3
0.017902301444323893
% es.normE (V/m) @ t=2.4
0.9107124914854422
% es.EX (V/m) @ t=2.4
0.6644206603514055
% es.EY (V/m) @ t=2.4
0.2903868959582676
% es.EZ (V/m) @ t=2.4
-0.4917850027054267
% es.tEX (V/m) @ t=2.4
0.6644206603514089
% es.tEY (V/m) @ t=2.4
0
% es.tEZ (V/m) @ t=2.4
-0.4917850027054196
% es.Ex (V/m) @ t=2.4
0.6644206603514055
% es.Ey (V/m) @ t=2.4
0.2903868959582676
% es.Ez (V/m) @ t=2.4
-0.4917850027054267
% es.tEx (V/m) @ t=2.4
0.6644206603514089
% es.tEy (V/m) @ t=2.4
0
% es.tEz (V/m) @ t=2.4
-0.4917850027054196
% V (V) @ t=2.4
0.01868039159556688
% es.normE (V/m) @ t=2.5
0.9500308724990176
% es.EX (V/m) @ t=2.5
0.6931062284191087
% es.EY (V/m) @ t=2.5
0.3029229672759779
% es.EZ (V/m) @ t=2.5
-0.5130172794728391
% es.tEX (V/m) @ t=2.5
0.6931062284191121
% es.tEY (V/m) @ t=2.5
0
% es.tEZ (V/m) @ t=2.5
-0.5130172794728249
% es.Ex (V/m) @ t=2.5
0.6931062284191087
% es.Ey (V/m) @ t=2.5
0.3029229672759779
% es.Ez (V/m) @ t=2.5
-0.5130172794728391
% es.tEx (V/m) @ t=2.5
0.6931062284191121
% es.tEy (V/m) @ t=2.5
0
% es.tEz (V/m) @ t=2.5
-0.5130172794728249
% V (V) @ t=2.5
0.019486984190398644
% es.normE (V/m) @ t=2.6
0.9907376967471496
% es.EX (V/m) @ t=2.6
0.7228048415727294
% es.EY (V/m) @ t=2.6
0.31590155010464827
% es.EZ (V/m) @ t=2.6
-0.5349993997030196
% es.tEX (V/m) @ t=2.6
0.7228048415727363
% es.tEY (V/m) @ t=2.6
0
% es.tEZ (V/m) @ t=2.6
-0.5349993997030125
% es.Ex (V/m) @ t=2.6
0.7228048415727294
% es.Ey (V/m) @ t=2.6
0.31590155010464827
% es.Ez (V/m) @ t=2.6
-0.5349993997030196
% es.tEx (V/m) @ t=2.6
0.7228048415727363
% es.tEy (V/m) @ t=2.6
0
% es.tEz (V/m) @ t=2.6
-0.5349993997030125
% V (V) @ t=2.6
0.02032207922881918
% es.normE (V/m) @ t=2.7
1.0328329642307132
% es.EX (V/m) @ t=2.7
0.7535164998122461
% es.EY (V/m) @ t=2.7
0.32932264444428805
% es.EZ (V/m) @ t=2.7
-0.5577313633959591
% es.tEX (V/m) @ t=2.7
0.753516499812253
% es.tEY (V/m) @ t=2.7
0
% es.tEZ (V/m) @ t=2.7
-0.5577313633959449
% es.Ex (V/m) @ t=2.7
0.7535164998122461
% es.Ey (V/m) @ t=2.7
0.32932264444428805
% es.Ez (V/m) @ t=2.7
-0.5577313633959591
% es.tEx (V/m) @ t=2.7
0.753516499812253
% es.tEy (V/m) @ t=2.7
0
% es.tEz (V/m) @ t=2.7
-0.5577313633959449
% V (V) @ t=2.7
0.021185676710828483
% es.normE (V/m) @ t=2.8
1.0771624177756898
% es.EX (V/m) @ t=2.8
0.7858581355439435
% es.EY (V/m) @ t=2.8
0.3434561308677806
% es.EZ (V/m) @ t=2.8
-0.5816697790013512
% es.tEX (V/m) @ t=2.8
0.7858581355439469
% es.tEY (V/m) @ t=2.8
0
% es.tEZ (V/m) @ t=2.8
-0.581669779001337
% es.Ex (V/m) @ t=2.8
0.7858581355439435
% es.Ey (V/m) @ t=2.8
0.3434561308677806
% es.Ez (V/m) @ t=2.8
-0.5816697790013512
% es.tEx (V/m) @ t=2.8
0.7858581355439469
% es.tEy (V/m) @ t=2.8
0
% es.tEz (V/m) @ t=2.8
-0.581669779001337
% V (V) @ t=2.8
0.022095101860984144
% es.normE (V/m) @ t=2.9
1.1232717050630598
% es.EX (V/m) @ t=2.9
0.8194983186201769
% es.EY (V/m) @ t=2.9
0.35815702338116595
% es.EZ (V/m) @ t=2.9
-0.6065693460545685
% es.tEX (V/m) @ t=2.9
0.8194983186201839
% es.tEY (V/m) @ t=2.9
0
% es.tEZ (V/m) @ t=2.9
-0.6065693460545614
% es.Ex (V/m) @ t=2.9
0.8194983186201769
% es.Ey (V/m) @ t=2.9
0.35815702338116595
% es.Ez (V/m) @ t=2.9
-0.6065693460545685
% es.tEx (V/m) @ t=2.9
0.8194983186201839
% es.tEy (V/m) @ t=2.9
0
% es.tEz (V/m) @ t=2.9
-0.6065693460545614
% V (V) @ t=2.9
0.023041047173837002
% es.normE (V/m) @ t=3
1.1710670381365205
% es.EX (V/m) @ t=3
0.8543686348279427
% es.EY (V/m) @ t=3
0.37339539379976117
% es.EZ (V/m) @ t=3
-0.6323794293362193
% es.tEX (V/m) @ t=3
0.8543686348279496
% es.tEY (V/m) @ t=3
0
% es.tEZ (V/m) @ t=3
-0.6323794293362051
% es.Ex (V/m) @ t=3
0.8543686348279427
% es.Ey (V/m) @ t=3
0.37339539379976117
% es.Ez (V/m) @ t=3
-0.6323794293362193
% es.tEx (V/m) @ t=3
0.8543686348279496
% es.tEy (V/m) @ t=3
0
% es.tEz (V/m) @ t=3
-0.6323794293362051
% V (V) @ t=3
0.024021591382824677
% es.normE (V/m) @ t=3.1
1.220548416996463
% es.EX (V/m) @ t=3.1
0.890469084167213
% es.EY (V/m) @ t=3.1
0.38917124212357934
% es.EZ (V/m) @ t=3.1
-0.6591000288463129
% es.tEX (V/m) @ t=3.1
0.8904690841672199
% es.tEY (V/m) @ t=3.1
0
% es.tEZ (V/m) @ t=3.1
-0.6591000288462987
% es.Ex (V/m) @ t=3.1
0.890469084167213
% es.Ey (V/m) @ t=3.1
0.38917124212357934
% es.Ez (V/m) @ t=3.1
-0.6591000288463129
% es.tEx (V/m) @ t=3.1
0.8904690841672199
% es.tEy (V/m) @ t=3.1
0
% es.tEz (V/m) @ t=3.1
-0.6591000288462987
% V (V) @ t=3.1
0.02503673448794718
% es.normE (V/m) @ t=3.2
1.2717158416432675
% es.EX (V/m) @ t=3.2
0.9277996666380302
% es.EY (V/m) @ t=3.2
0.4054845683525823
% es.EZ (V/m) @ t=3.2
-0.6867311445848201
% es.tEX (V/m) @ t=3.2
0.927799666638037
% es.tEY (V/m) @ t=3.2
0
% es.tEZ (V/m) @ t=3.2
-0.6867311445848059
% es.Ex (V/m) @ t=3.2
0.9277996666380302
% es.Ey (V/m) @ t=3.2
0.4054845683525823
% es.Ez (V/m) @ t=3.2
-0.6867311445848201
% es.tEx (V/m) @ t=3.2
0.927799666638037
% es.tEy (V/m) @ t=3.2
0
% es.tEz (V/m) @ t=3.2
-0.6867311445848059
% V (V) @ t=3.2
0.0260864764892045
% es.normE (V/m) @ t=3.3
1.324691316350935
% es.EX (V/m) @ t=3.3
0.9664489099074236
% es.EY (V/m) @ t=3.3
0.42237532459441396
% es.EZ (V/m) @ t=3.3
-0.7153382455131245
% es.tEX (V/m) @ t=3.3
0.9664489099074234
% es.tEY (V/m) @ t=3.3
0
% es.tEZ (V/m) @ t=3.3
-0.7153382455131103
% es.Ex (V/m) @ t=3.3
0.9664489099074236
% es.Ey (V/m) @ t=3.3
0.42237532459441396
% es.Ez (V/m) @ t=3.3
-0.7153382455131245
% es.tEx (V/m) @ t=3.3
0.9664489099074234
% es.tEy (V/m) @ t=3.3
0
% es.tEz (V/m) @ t=3.3
-0.7153382455131103
% V (V) @ t=3.3
0.027173197991242133
% es.normE (V/m) @ t=3.4
1.3796741474397347
% es.EX (V/m) @ t=3.4
1.00656143287098
% es.EY (V/m) @ t=3.4
0.4399087766565777
% es.EZ (V/m) @ t=3.4
-0.7450282817995206
% es.tEX (V/m) @ t=3.4
1.0065614328709869
% es.tEY (V/m) @ t=3.4
0
% es.tEZ (V/m) @ t=3.4
-0.7450282817995064
% es.Ex (V/m) @ t=3.4
1.00656143287098
% es.Ey (V/m) @ t=3.4
0.4399087766565777
% es.Ez (V/m) @ t=3.4
-0.7450282817995206
% es.tEx (V/m) @ t=3.4
1.0065614328709869
% es.tEy (V/m) @ t=3.4
0
% es.tEz (V/m) @ t=3.4
-0.7450282817995064
% V (V) @ t=3.4
0.028300787952463935
% es.normE (V/m) @ t=3.5
1.4364657971981374
% es.EX (V/m) @ t=3.5
1.047993174336731
% es.EY (V/m) @ t=3.5
0.45801991042045165
% es.EZ (V/m) @ t=3.5
-0.7756947157148479
% es.tEX (V/m) @ t=3.5
1.0479931743367379
% es.tEY (V/m) @ t=3.5
0
% es.tEZ (V/m) @ t=3.5
-0.7756947157148337
% es.Ex (V/m) @ t=3.5
1.047993174336731
% es.Ey (V/m) @ t=3.5
0.45801991042045165
% es.Ez (V/m) @ t=3.5
-0.7756947157148479
% es.tEx (V/m) @ t=3.5
1.0479931743367379
% es.tEy (V/m) @ t=3.5
0
% es.tEz (V/m) @ t=3.5
-0.7756947157148337
% V (V) @ t=3.5
0.02946537241171815
% es.normE (V/m) @ t=3.6
1.4950662656356708
% es.EX (V/m) @ t=3.6
1.0907441343046196
% es.EY (V/m) @ t=3.6
0.47670872588607227
% es.EZ (V/m) @ t=3.6
-0.8073375472590758
% es.tEX (V/m) @ t=3.6
1.0907441343046265
% es.tEY (V/m) @ t=3.6
0
% es.tEZ (V/m) @ t=3.6
-0.8073375472590616
% es.Ex (V/m) @ t=3.6
1.0907441343046196
% es.Ey (V/m) @ t=3.6
0.47670872588607227
% es.Ez (V/m) @ t=3.6
-0.8073375472590758
% es.tEx (V/m) @ t=3.6
1.0907441343046265
% es.tEy (V/m) @ t=3.6
0
% es.tEz (V/m) @ t=3.6
-0.8073375472590616
% V (V) @ t=3.6
0.030666951369004793
% es.normE (V/m) @ t=3.7
1.5554755527634656
% es.EX (V/m) @ t=3.7
1.1348143127746455
% es.EY (V/m) @ t=3.7
0.4959752230534642
% es.EZ (V/m) @ t=3.7
-0.8399567764322269
% es.tEX (V/m) @ t=3.7
1.1348143127746524
% es.tEY (V/m) @ t=3.7
0
% es.tEZ (V/m) @ t=3.7
-0.8399567764322127
% es.Ex (V/m) @ t=3.7
1.1348143127746455
% es.Ey (V/m) @ t=3.7
0.4959752230534642
% es.Ez (V/m) @ t=3.7
-0.8399567764322269
% es.tEx (V/m) @ t=3.7
1.1348143127746524
% es.tEy (V/m) @ t=3.7
0
% es.tEz (V/m) @ t=3.7
-0.8399567764322127
% V (V) @ t=3.7
0.03190552482432385
% es.normE (V/m) @ t=3.8
1.617693658593805
% es.EX (V/m) @ t=3.8
1.180203709746859
% es.EY (V/m) @ t=3.8
0.5158194019225668
% es.EZ (V/m) @ t=3.8
-0.87355240323433
% es.tEX (V/m) @ t=3.8
1.1802037097468658
% es.tEY (V/m) @ t=3.8
0
% es.tEZ (V/m) @ t=3.8
-0.8735524032343158
% es.Ex (V/m) @ t=3.8
1.180203709746859
% es.Ey (V/m) @ t=3.8
0.5158194019225668
% es.Ez (V/m) @ t=3.8
-0.87355240323433
% es.tEx (V/m) @ t=3.8
1.1802037097468658
% es.tEy (V/m) @ t=3.8
0
% es.tEz (V/m) @ t=3.8
-0.8735524032343158
% V (V) @ t=3.8
0.033181092777675315
% es.normE (V/m) @ t=3.9
1.6813137367496067
% es.EX (V/m) @ t=3.9
1.2266166486674015
% es.EY (V/m) @ t=3.9
0.5361090467060516
% es.EZ (V/m) @ t=3.9
-0.9079057104885813
% es.tEX (V/m) @ t=3.9
1.2266166486674084
% es.tEY (V/m) @ t=3.9
0
% es.tEZ (V/m) @ t=3.9
-0.9079057104885528
% es.Ex (V/m) @ t=3.9
1.2266166486674015
% es.Ey (V/m) @ t=3.9
0.5361090467060516
% es.Ez (V/m) @ t=3.9
-0.9079057104885813
% es.tEx (V/m) @ t=3.9
1.2266166486674084
% es.tEy (V/m) @ t=3.9
0
% es.tEz (V/m) @ t=3.9
-0.9079057104885528
% V (V) @ t=3.9
0.034485599181555485
% es.normE (V/m) @ t=4
1.7464005590479779
% es.EX (V/m) @ t=4
1.274100202618609
% es.EY (V/m) @ t=4
0.5568652067721271
% es.EZ (V/m) @ t=4
-0.9430515189866373
% es.tEX (V/m) @ t=4
1.274100202618616
% es.tEY (V/m) @ t=4
0
% es.tEZ (V/m) @ t=4
-0.9430515189866231
% es.Ex (V/m) @ t=4
1.274100202618609
% es.Ey (V/m) @ t=4
0.5568652067721271
% es.Ez (V/m) @ t=4
-0.9430515189866373
% es.tEx (V/m) @ t=4
1.274100202618616
% es.tEy (V/m) @ t=4
0
% es.tEz (V/m) @ t=4
-0.9430515189866231
% V (V) @ t=4
0.03582032659618851
% es.normE (V/m) @ t=4.1
1.8129957836671868
% es.EX (V/m) @ t=4.1
1.322684646784193
% es.EY (V/m) @ t=4.1
0.5781014200803924
% es.EZ (V/m) @ t=4.1
-0.9790122238173922
% es.tEX (V/m) @ t=4.1
1.3226846467842068
% es.tEY (V/m) @ t=4.1
0
% es.tEZ (V/m) @ t=4.1
-0.979012223817378
% es.Ex (V/m) @ t=4.1
1.322684646784193
% es.Ey (V/m) @ t=4.1
0.5781014200803924
% es.Ez (V/m) @ t=4.1
-0.9790122238173922
% es.tEx (V/m) @ t=4.1
1.3226846467842068
% es.tEy (V/m) @ t=4.1
0
% es.tEz (V/m) @ t=4.1
-0.979012223817378
% V (V) @ t=4.1
0.037186099903748014
% es.normE (V/m) @ t=4.2
1.8810584695661159
% es.EX (V/m) @ t=4.2
1.3723402271713874
% es.EY (V/m) @ t=4.2
0.5998043817287879
% es.EZ (V/m) @ t=4.2
-1.0157658154260503
% es.tEX (V/m) @ t=4.2
1.3723402271714014
% es.tEY (V/m) @ t=4.2
0
% es.tEZ (V/m) @ t=4.2
-1.0157658154260218
% es.Ex (V/m) @ t=4.2
1.3723402271713874
% es.Ey (V/m) @ t=4.2
0.5998043817287879
% es.Ez (V/m) @ t=4.2
-1.0157658154260503
% es.tEx (V/m) @ t=4.2
1.3723402271714014
% es.tEy (V/m) @ t=4.2
0
% es.tEz (V/m) @ t=4.2
-1.0157658154260218
% V (V) @ t=4.2
0.03858210842250647
% es.normE (V/m) @ t=4.3
1.9505476757074478
% es.EX (V/m) @ t=4.3
1.4230371897873548
% es.EY (V/m) @ t=4.3
0.6219607868153618
% es.EZ (V/m) @ t=4.3
-1.0532902842578595
% es.tEX (V/m) @ t=4.3
1.4230371897873617
% es.tEY (V/m) @ t=4.3
0
% es.tEZ (V/m) @ t=4.3
-1.0532902842578453
% es.Ex (V/m) @ t=4.3
1.4230371897873548
% es.Ey (V/m) @ t=4.3
0.6219607868153618
% es.Ez (V/m) @ t=4.3
-1.0532902842578595
% es.tEx (V/m) @ t=4.3
1.4230371897873617
% es.tEy (V/m) @ t=4.3
0
% es.tEz (V/m) @ t=4.3
-1.0532902842578453
% V (V) @ t=4.3
0.040007541470736374
% es.normE (V/m) @ t=4.4
2.021138323117888
% es.EX (V/m) @ t=4.4
1.4745382330593575
% es.EY (V/m) @ t=4.4
0.6444672794390205
% es.EZ (V/m) @ t=4.4
-1.0914099701771809
% es.tEX (V/m) @ t=4.4
1.4745382330593715
% es.tEY (V/m) @ t=4.4
0
% es.tEZ (V/m) @ t=4.4
-1.0914099701771667
% es.Ex (V/m) @ t=4.4
1.4745382330593575
% es.Ey (V/m) @ t=4.4
0.6444672794390205
% es.Ez (V/m) @ t=4.4
-1.0914099701771809
% es.tEx (V/m) @ t=4.4
1.4745382330593715
% es.tEy (V/m) @ t=4.4
0
% es.tEz (V/m) @ t=4.4
-1.0914099701771667
% V (V) @ t=4.4
0.04145569654960546
% es.normE (V/m) @ t=4.5
2.0918023171116378
% es.EX (V/m) @ t=4.5
1.5260925400127312
% es.EY (V/m) @ t=4.5
0.6669976990055648
% es.EZ (V/m) @ t=4.5
-1.1295690499077926
% es.tEX (V/m) @ t=4.5
1.5260925400127452
% es.tEY (V/m) @ t=4.5
0
% es.tEZ (V/m) @ t=4.5
-1.1295690499077642
% es.Ex (V/m) @ t=4.5
1.5260925400127312
% es.Ey (V/m) @ t=4.5
0.6669976990055648
% es.Ez (V/m) @ t=4.5
-1.1295690499077926
% es.tEx (V/m) @ t=4.5
1.5260925400127452
% es.tEy (V/m) @ t=4.5
0
% es.tEz (V/m) @ t=4.5
-1.1295690499077642
% V (V) @ t=4.5
0.042905293592921445
% es.normE (V/m) @ t=4.6
2.163051735886447
% es.EX (V/m) @ t=4.6
1.5780743076465187
% es.EY (V/m) @ t=4.6
0.6897140073654149
% es.EZ (V/m) @ t=4.6
-1.1680445648622388
% es.tEX (V/m) @ t=4.6
1.5780743076465324
% es.tEY (V/m) @ t=4.6
0
% es.tEZ (V/m) @ t=4.6
-1.1680445648622104
% es.Ex (V/m) @ t=4.6
1.5780743076465187
% es.Ey (V/m) @ t=4.6
0.6897140073654149
% es.Ez (V/m) @ t=4.6
-1.1680445648622388
% es.tEx (V/m) @ t=4.6
1.5780743076465324
% es.tEy (V/m) @ t=4.6
0
% es.tEz (V/m) @ t=4.6
-1.1680445648622104
% V (V) @ t=4.6
0.04436698919485935
% es.normE (V/m) @ t=4.7
2.2347398800443417
% es.EX (V/m) @ t=4.7
1.6303765311338212
% es.EY (V/m) @ t=4.7
0.7125693819298302
% es.EZ (V/m) @ t=4.7
-1.2067573155366729
% es.tEX (V/m) @ t=4.7
1.6303765311338279
% es.tEY (V/m) @ t=4.7
0
% es.tEZ (V/m) @ t=4.7
-1.2067573155366444
% es.Ex (V/m) @ t=4.7
1.6303765311338212
% es.Ey (V/m) @ t=4.7
0.7125693819298302
% es.Ez (V/m) @ t=4.7
-1.2067573155366729
% es.tEx (V/m) @ t=4.7
1.6303765311338279
% es.tEy (V/m) @ t=4.7
0
% es.tEz (V/m) @ t=4.7
-1.2067573155366444
% V (V) @ t=4.7
0.045837779693239655
% es.normE (V/m) @ t=4.8
2.3067200501884852
% es.EX (V/m) @ t=4.8
1.6828922056476454
% es.EY (V/m) @ t=4.8
0.7355170001098092
% es.EZ (V/m) @ t=4.8
-1.2456281024271272
% es.tEX (V/m) @ t=4.8
1.682892205647652
% es.tEY (V/m) @ t=4.8
0
% es.tEZ (V/m) @ t=4.8
-1.2456281024270988
% es.Ex (V/m) @ t=4.8
1.6828922056476454
% es.Ey (V/m) @ t=4.8
0.7355170001098092
% es.Ez (V/m) @ t=4.8
-1.2456281024271272
% es.tEx (V/m) @ t=4.8
1.682892205647652
% es.tEy (V/m) @ t=4.8
0
% es.tEz (V/m) @ t=4.8
-1.2456281024270988
% V (V) @ t=4.8
0.047314661425882885
% es.normE (V/m) @ t=4.9
2.3788455469239
% es.EX (V/m) @ t=4.9
1.7355143263611437
% es.EY (V/m) @ t=4.9
0.7585100393166133
% es.EZ (V/m) @ t=4.9
-1.28457772602974
% es.tEX (V/m) @ t=4.9
1.7355143263611574
% es.tEY (V/m) @ t=4.9
0
% es.tEZ (V/m) @ t=4.9
-1.2845777260297258
% es.Ex (V/m) @ t=4.9
1.7355143263611437
% es.Ey (V/m) @ t=4.9
0.7585100393166133
% es.Ez (V/m) @ t=4.9
-1.28457772602974
% es.tEx (V/m) @ t=4.9
1.7355143263611574
% es.tEy (V/m) @ t=4.9
0
% es.tEz (V/m) @ t=4.9
-1.2845777260297258
% V (V) @ t=4.9
0.048794630730609585
% es.normE (V/m) @ t=5
2.4500211602327933
% es.EX (V/m) @ t=5
1.7874429246545445
% es.EY (V/m) @ t=5
0.7812013417550174
% es.EZ (V/m) @ t=5
-1.3230139648712882
% es.tEX (V/m) @ t=5
1.787442924654544
% es.tEY (V/m) @ t=5
0
% es.tEZ (V/m) @ t=5
-1.3230139648712598
% es.Ex (V/m) @ t=5
1.7874429246545445
% es.Ey (V/m) @ t=5
0.7812013417550174
% es.Ez (V/m) @ t=5
-1.3230139648712882
% es.tEx (V/m) @ t=5
1.787442924654544
% es.tEy (V/m) @ t=5
0
% es.tEz (V/m) @ t=5
-1.3230139648712598
% V (V) @ t=5
0.05025498354164183
% es.normE (V/m) @ t=5.1
2.5200451418914716
% es.EX (V/m) @ t=5.1
1.8385307780875202
% es.EY (V/m) @ t=5.1
0.8035266542498998
% es.EZ (V/m) @ t=5.1
-1.3608278451373481
% es.tEX (V/m) @ t=5.1
1.838530778087534
% es.tEY (V/m) @ t=5.1
0
% es.tEZ (V/m) @ t=5.1
-1.3608278451373197
% es.Ex (V/m) @ t=5.1
1.8385307780875202
% es.Ey (V/m) @ t=5.1
0.8035266542498998
% es.Ez (V/m) @ t=5.1
-1.3608278451373481
% es.tEx (V/m) @ t=5.1
1.838530778087534
% es.tEy (V/m) @ t=5.1
0
% es.tEz (V/m) @ t=5.1
-1.3608278451373197
% V (V) @ t=5.1
0.05169157284238466
% es.normE (V/m) @ t=5.2
2.588973728809698
% es.EX (V/m) @ t=5.2
1.8888191432403616
% es.EY (V/m) @ t=5.2
0.8255034117114834
% es.EZ (V/m) @ t=5.2
-1.3980499297096252
% es.tEX (V/m) @ t=5.2
1.8888191432403754
% es.tEY (V/m) @ t=5.2
0
% es.tEZ (V/m) @ t=5.2
-1.3980499297095967
% es.Ex (V/m) @ t=5.2
1.8888191432403616
% es.Ey (V/m) @ t=5.2
0.8255034117114834
% es.Ez (V/m) @ t=5.2
-1.3980499297096252
% es.tEx (V/m) @ t=5.2
1.8888191432403754
% es.tEy (V/m) @ t=5.2
0
% es.tEz (V/m) @ t=5.2
-1.3980499297095967
% V (V) @ t=5.2
0.05310560992328141
% es.normE (V/m) @ t=5.3
2.656549722091654
% es.EX (V/m) @ t=5.3
1.9381202864629197
% es.EY (V/m) @ t=5.3
0.8470498031315512
% es.EZ (V/m) @ t=5.3
-1.4345412531047161
% es.tEX (V/m) @ t=5.3
1.9381202864629192
% es.tEY (V/m) @ t=5.3
0
% es.tEZ (V/m) @ t=5.3
-1.4345412531046877