% Model:              1x1--2 - Copy1.mph
% Version:            COMSOL 6.1.0.252
% Date:               Apr 3 2023, 15:07
% Dimension:          0
% Nodes:              14017
% Expressions:        14017
% Description:        Electric field norm, Electric field, X component, Electric field, Y component, Electric field, Z component, Tangential electric field, X component, Tangential electric field, Y component, Tangential electric field, Z component, Electric field, x component, Electric field, y component, Electric field, z component, Tangential electric field, x component, Tangential electric field, y component, Tangential electric field, z component, Electric potential
% Length unit:        mm
% x
1.6599999999999997
% y
12.2
% z
1.6599999999999997
% es.normE (V/m) @ t=0
0.3218138968360229
% es.EX (V/m) @ t=0
0.17146141951406835
% es.EY (V/m) @ t=0
0.11064344488420202
% es.EZ (V/m) @ t=0
-0.2345343457889803
% es.tEX (V/m) @ t=0
0.1714614195140679
% es.tEY (V/m) @ t=0
0
% es.tEZ (V/m) @ t=0
-0.23453434578898202
% es.Ex (V/m) @ t=0
0.17146141951406835
% es.Ey (V/m) @ t=0
0.11064344488420202
% es.Ez (V/m) @ t=0
-0.2345343457889803
% es.tEx (V/m) @ t=0
0.1714614195140679
% es.tEy (V/m) @ t=0
0
% es.tEz (V/m) @ t=0
-0.23453434578898202
% V (V) @ t=0
0.006535239002427835
% es.normE (V/m) @ t=0.1
0.32682228269801816
% es.EX (V/m) @ t=0.1
0.17412987336812813
% es.EY (V/m) @ t=0.1
0.11236538140066595
% es.EZ (V/m) @ t=0.1
-0.23818440423325737
% es.tEX (V/m) @ t=0.1
0.17412987336812735
% es.tEY (V/m) @ t=0.1
0
% es.tEZ (V/m) @ t=0.1
-0.23818440423325904
% es.Ex (V/m) @ t=0.1
0.17412987336812813
% es.Ey (V/m) @ t=0.1
0.11236538140066595
% es.Ez (V/m) @ t=0.1
-0.23818440423325737
% es.tEx (V/m) @ t=0.1
0.17412987336812735
% es.tEy (V/m) @ t=0.1
0
% es.tEz (V/m) @ t=0.1
-0.23818440423325904
% V (V) @ t=0.1
0.006636947615040258
% es.normE (V/m) @ t=0.2
0.3423769900163256
% es.EX (V/m) @ t=0.2
0.1824171589839691
% es.EY (V/m) @ t=0.2
0.11771399397057136
% es.EZ (V/m) @ t=0.2
-0.2495201223934278
% es.tEX (V/m) @ t=0.2
0.18241715898396849
% es.tEY (V/m) @ t=0.2
0
% es.tEZ (V/m) @ t=0.2
-0.24952012239342858
% es.Ex (V/m) @ t=0.2
0.1824171589839691
% es.Ey (V/m) @ t=0.2
0.11771399397057136
% es.Ez (V/m) @ t=0.2
-0.2495201223934278
% es.tEx (V/m) @ t=0.2
0.18241715898396849
% es.tEy (V/m) @ t=0.2
0
% es.tEz (V/m) @ t=0.2
-0.24952012239342858
% V (V) @ t=0.2
0.006952736622762206
% es.normE (V/m) @ t=0.3
0.3584333855147281
% es.EX (V/m) @ t=0.3
0.19097148741078218
% es.EY (V/m) @ t=0.3
0.12323595431128345
% es.EZ (V/m) @ t=0.3
-0.2612210131800272
% es.tEX (V/m) @ t=0.3
0.19097148741078107
% es.tEY (V/m) @ t=0.3
0
% es.tEZ (V/m) @ t=0.3
-0.2612210131800271
% es.Ex (V/m) @ t=0.3
0.19097148741078218
% es.Ey (V/m) @ t=0.3
0.12323595431128345
% es.Ez (V/m) @ t=0.3
-0.2612210131800272
% es.tEx (V/m) @ t=0.3
0.19097148741078107
% es.tEy (V/m) @ t=0.3
0
% es.tEz (V/m) @ t=0.3
-0.2612210131800271
% V (V) @ t=0.3
0.007278607784447166
% es.normE (V/m) @ t=0.4
0.3753950902188078
% es.EX (V/m) @ t=0.4
0.2000090041967132
% es.EY (V/m) @ t=0.4
0.12906632503919857
% es.EZ (V/m) @ t=0.4
-0.27358317658259723
% es.tEX (V/m) @ t=0.4
0.20000900419671108
% es.tEY (V/m) @ t=0.4
0
% es.tEZ (V/m) @ t=0.4
-0.2735831765825989
% es.Ex (V/m) @ t=0.4
0.2000090041967132
% es.Ey (V/m) @ t=0.4
0.12906632503919857
% es.Ez (V/m) @ t=0.4
-0.27358317658259723
% es.tEx (V/m) @ t=0.4
0.20000900419671108
% es.tEy (V/m) @ t=0.4
0
% es.tEz (V/m) @ t=0.4
-0.2735831765825989
% V (V) @ t=0.4
0.007623213226865249
% es.normE (V/m) @ t=0.5
0.39328056266870015
% es.EX (V/m) @ t=0.5
0.20953839899734883
% es.EY (V/m) @ t=0.5
0.13521531981968382
% es.EZ (V/m) @ t=0.5
-0.28661803531327734
% es.tEX (V/m) @ t=0.5
0.20953839899734683
% es.tEY (V/m) @ t=0.5
0
% es.tEZ (V/m) @ t=0.5
-0.28661803531328167
% es.Ex (V/m) @ t=0.5
0.20953839899734883
% es.Ey (V/m) @ t=0.5
0.13521531981968382
% es.Ez (V/m) @ t=0.5
-0.28661803531327734
% es.tEx (V/m) @ t=0.5
0.20953839899734683
% es.tEy (V/m) @ t=0.5
0
% es.tEz (V/m) @ t=0.5
-0.28661803531328167
% V (V) @ t=0.5
0.007986452453193942
% es.normE (V/m) @ t=0.6
0.4125906560924839
% es.EX (V/m) @ t=0.6
0.2198261760500877
% es.EY (V/m) @ t=0.6
0.1418563159622027
% es.EZ (V/m) @ t=0.6
-0.3006899873346246
% es.tEX (V/m) @ t=0.6
0.21982617605008703
% es.tEY (V/m) @ t=0.6
0
% es.tEZ (V/m) @ t=0.6
-0.3006899873346254
% es.Ex (V/m) @ t=0.6
0.2198261760500877
% es.Ey (V/m) @ t=0.6
0.1418563159622027
% es.Ez (V/m) @ t=0.6
-0.3006899873346246
% es.tEx (V/m) @ t=0.6
0.21982617605008703
% es.tEy (V/m) @ t=0.6
0
% es.tEz (V/m) @ t=0.6
-0.3006899873346254
% V (V) @ t=0.6
0.008378351723507234
% es.normE (V/m) @ t=0.7
0.43190074953004215
% es.EX (V/m) @ t=0.7
0.23011395310282562
% es.EY (V/m) @ t=0.7
0.1484973121047242
% es.EZ (V/m) @ t=0.7
-0.31476193935597274
% es.tEX (V/m) @ t=0.7
0.23011395310282357
% es.tEY (V/m) @ t=0.7
0
% es.tEZ (V/m) @ t=0.7
-0.31476193935597263
% es.Ex (V/m) @ t=0.7
0.23011395310282562
% es.Ey (V/m) @ t=0.7
0.1484973121047242
% es.Ez (V/m) @ t=0.7
-0.31476193935597274
% es.tEx (V/m) @ t=0.7
0.23011395310282357
% es.tEy (V/m) @ t=0.7
0
% es.tEz (V/m) @ t=0.7
-0.31476193935597263
% V (V) @ t=0.7
0.008770250993820524
% es.normE (V/m) @ t=0.8
0.4518738855766807
% es.EX (V/m) @ t=0.8
0.24075534070371551
% es.EY (V/m) @ t=0.8
0.15536510982289886
% es.EZ (V/m) @ t=0.8
-0.329317718336103
% es.tEX (V/m) @ t=0.8
0.24075534070371352
% es.tEY (V/m) @ t=0.8
0
% es.tEZ (V/m) @ t=0.8
-0.32931771833610735
% es.Ex (V/m) @ t=0.8
0.24075534070371551
% es.Ey (V/m) @ t=0.8
0.15536510982289886
% es.Ez (V/m) @ t=0.8
-0.329317718336103
% es.tEx (V/m) @ t=0.8
0.24075534070371352
% es.tEy (V/m) @ t=0.8
0
% es.tEz (V/m) @ t=0.8
-0.32931771833610735
% V (V) @ t=0.8
0.009175757736720669
% es.normE (V/m) @ t=0.9
0.47351252667517574
% es.EX (V/m) @ t=0.9
0.2522849670856949
% es.EY (V/m) @ t=0.9
0.16280261327007012
% es.EZ (V/m) @ t=0.9
-0.34508882833614274
% es.tEX (V/m) @ t=0.9
0.2522849670856937
% es.tEY (V/m) @ t=0.9
0
% es.tEZ (V/m) @ t=0.9
-0.34508882833614085
% es.Ex (V/m) @ t=0.9
0.2522849670856949
% es.Ey (V/m) @ t=0.9
0.16280261327007012
% es.Ez (V/m) @ t=0.9
-0.34508882833614274
% es.tEx (V/m) @ t=0.9
0.2522849670856937
% es.tEy (V/m) @ t=0.9
0
% es.tEz (V/m) @ t=0.9
-0.34508882833614085
% V (V) @ t=0.9
0.009615445261070015
% es.normE (V/m) @ t=1
0.4951511677922288
% es.EX (V/m) @ t=1
0.26381459346767994
% es.EY (V/m) @ t=1
0.1702401167172556
% es.EZ (V/m) @ t=1
-0.3608599383361869
% es.tEX (V/m) @ t=1
0.26381459346767944
% es.tEY (V/m) @ t=1
0
% es.tEZ (V/m) @ t=1
-0.360859938336185
% es.Ex (V/m) @ t=1
0.26381459346767994
% es.Ey (V/m) @ t=1
0.1702401167172556
% es.Ez (V/m) @ t=1
-0.3608599383361869
% es.tEx (V/m) @ t=1
0.26381459346767944
% es.tEy (V/m) @ t=1
0
% es.tEz (V/m) @ t=1
-0.360859938336185
% V (V) @ t=1
0.010055132785419363
% es.normE (V/m) @ t=1.1
0.5181313946795579
% es.EX (V/m) @ t=1.1
0.27605799909690987
% es.EY (V/m) @ t=1.1
0.1781422966201253
% es.EZ (V/m) @ t=1.1
-0.3776069843285791
% es.tEX (V/m) @ t=1.1
0.2760579990969081
% es.tEY (V/m) @ t=1.1
0
% es.tEZ (V/m) @ t=1.1
-0.37760698432858253
% es.Ex (V/m) @ t=1.1
0.27605799909690987
% es.Ey (V/m) @ t=1.1
0.1781422966201253
% es.Ez (V/m) @ t=1.1
-0.3776069843285791
% es.tEx (V/m) @ t=1.1
0.2760579990969081
% es.tEy (V/m) @ t=1.1
0
% es.tEz (V/m) @ t=1.1
-0.37760698432858253
% V (V) @ t=1.1
0.010521644035909149
% es.normE (V/m) @ t=1.2
0.5424118582317888
% es.EX (V/m) @ t=1.2
0.28899318451545275
% es.EY (V/m) @ t=1.2
0.18649483114154813
% es.EZ (V/m) @ t=1.2
-0.3952998868974764
% es.tEX (V/m) @ t=1.2
0.2889931845154503
% es.tEY (V/m) @ t=1.2
0
% es.tEZ (V/m) @ t=1.2
-0.39529988689748685
% es.Ex (V/m) @ t=1.2
0.28899318451545275
% es.Ey (V/m) @ t=1.2
0.18649483114154813
% es.Ez (V/m) @ t=1.2
-0.3952998868974764
% es.tEx (V/m) @ t=1.2
0.2889931845154503
% es.tEy (V/m) @ t=1.2
0
% es.tEz (V/m) @ t=1.2
-0.39529988689748685
% V (V) @ t=1.2
0.011014152275929976
% es.normE (V/m) @ t=1.3
0.5666923218419893
% es.EX (V/m) @ t=1.3
0.30192836993399386
% es.EY (V/m) @ t=1.3
0.19484736566296393
% es.EZ (V/m) @ t=1.3
-0.4129927894663915
% es.tEX (V/m) @ t=1.3
0.3019283699339925
% es.tEY (V/m) @ t=1.3
0
% es.tEZ (V/m) @ t=1.3
-0.4129927894663932
% es.Ex (V/m) @ t=1.3
0.30192836993399386
% es.Ey (V/m) @ t=1.3
0.19484736566296393
% es.Ez (V/m) @ t=1.3
-0.4129927894663915
% es.tEx (V/m) @ t=1.3
0.3019283699339925
% es.tEy (V/m) @ t=1.3
0
% es.tEz (V/m) @ t=1.3
-0.4129927894663932
% V (V) @ t=1.3
0.011506660515950801
% es.normE (V/m) @ t=1.4
0.5931896663841819
% es.EX (V/m) @ t=1.4
0.3160473630102897
% es.EY (V/m) @ t=1.4
0.20395310197063965
% es.EZ (V/m) @ t=1.4
-0.4323060474336141
% es.tEX (V/m) @ t=1.4
0.31604736301028846
% es.tEY (V/m) @ t=1.4
0
% es.tEZ (V/m) @ t=1.4
-0.4323060474336211
% es.Ex (V/m) @ t=1.4
0.3160473630102897
% es.Ey (V/m) @ t=1.4
0.20395310197063965
% es.Ez (V/m) @ t=1.4
-0.4323060474336141
% es.tEx (V/m) @ t=1.4
0.31604736301028846
% es.tEy (V/m) @ t=1.4
0
% es.tEz (V/m) @ t=1.4
-0.4323060474336211
% V (V) @ t=1.4
0.012045292189974539
% es.normE (V/m) @ t=1.5
0.6205031864446062
% es.EX (V/m) @ t=1.5
0.33060219124705337
% es.EY (V/m) @ t=1.5
0.21333613993219652
% es.EZ (V/m) @ t=1.5
-0.45221586164915095
% es.tEX (V/m) @ t=1.5
0.3306021912470509
% es.tEY (V/m) @ t=1.5
0
% es.tEZ (V/m) @ t=1.5
-0.45221586164914895
% es.Ex (V/m) @ t=1.5
0.33060219124705337
% es.Ey (V/m) @ t=1.5
0.21333613993219652
% es.Ez (V/m) @ t=1.5
-0.45221586164915095
% es.tEx (V/m) @ t=1.5
0.3306021912470509
% es.tEy (V/m) @ t=1.5
0
% es.tEz (V/m) @ t=1.5
-0.45221586164914895
% V (V) @ t=1.5
0.012600904844082373
% es.normE (V/m) @ t=1.6
0.6478167066659406
% es.EX (V/m) @ t=1.6
0.34515701948380806
% es.EY (V/m) @ t=1.6
0.22271917789374632
% es.EZ (V/m) @ t=1.6
-0.4721256758646858
% es.tEX (V/m) @ t=1.6
0.3451570194838043
% es.tEY (V/m) @ t=1.6
0
% es.tEZ (V/m) @ t=1.6
-0.47212567586468746
% es.Ex (V/m) @ t=1.6
0.34515701948380806
% es.Ey (V/m) @ t=1.6
0.22271917789374632
% es.Ez (V/m) @ t=1.6
-0.4721256758646858
% es.tEx (V/m) @ t=1.6
0.3451570194838043
% es.tEy (V/m) @ t=1.6
0
% es.tEz (V/m) @ t=1.6
-0.47212567586468746
% V (V) @ t=1.6
0.01315651749819021
% es.normE (V/m) @ t=1.7
0.6769238302434115
% es.EX (V/m) @ t=1.7
0.3606663128189386
% es.EY (V/m) @ t=1.7
0.23272280080388177
% es.EZ (V/m) @ t=1.7
-0.4933405891690359
% es.tEX (V/m) @ t=1.7
0.3606663128189347
% es.tEY (V/m) @ t=1.7
0
% es.tEZ (V/m) @ t=1.7
-0.493340589169041
% es.Ex (V/m) @ t=1.7
0.3606663128189386
% es.Ey (V/m) @ t=1.7
0.23272280080388177
% es.Ez (V/m) @ t=1.7
-0.4933405891690359
% es.tEx (V/m) @ t=1.7
0.3606663128189347
% es.tEy (V/m) @ t=1.7
0
% es.tEz (V/m) @ t=1.7
-0.493340589169041
% V (V) @ t=1.7
0.01374807167490687
% es.normE (V/m) @ t=1.8
0.7071021337040042
% es.EX (V/m) @ t=1.8
0.37674563400570504
% es.EY (V/m) @ t=1.8
0.2430970508910622
% es.EZ (V/m) @ t=1.8
-0.5153349367670788
% es.tEX (V/m) @ t=1.8
0.3767456340057036
% es.tEY (V/m) @ t=1.8
0
% es.tEZ (V/m) @ t=1.8
-0.5153349367670785
% es.Ex (V/m) @ t=1.8
0.37674563400570504
% es.Ey (V/m) @ t=1.8
0.2430970508910622
% es.Ez (V/m) @ t=1.8
-0.5153349367670788
% es.tEx (V/m) @ t=1.8
0.3767456340057036
% es.tEy (V/m) @ t=1.8
0
% es.tEz (V/m) @ t=1.8
-0.5153349367670785
% V (V) @ t=1.8
0.014361090930810068
% es.normE (V/m) @ t=1.9
0.738288295219816
% es.EX (V/m) @ t=1.9
0.3933612863726339
% es.EY (V/m) @ t=1.9
0.25382001887104344
% es.EZ (V/m) @ t=1.9
-0.5380626431183131
% es.tEX (V/m) @ t=1.9
0.39336128637263235
% es.tEY (V/m) @ t=1.9
0
% es.tEZ (V/m) @ t=1.9
-0.5380626431183164
% es.Ex (V/m) @ t=1.9
0.3933612863726339
% es.Ey (V/m) @ t=1.9
0.25382001887104344
% es.Ez (V/m) @ t=1.9
-0.5380626431183131
% es.tEx (V/m) @ t=1.9
0.39336128637263235
% es.tEy (V/m) @ t=1.9
0
% es.tEz (V/m) @ t=1.9
-0.5380626431183164
% V (V) @ t=1.9
0.014994306377511694
% es.normE (V/m) @ t=2
0.7704823148105914
% es.EX (V/m) @ t=2
0.41051326991971315
% es.EY (V/m) @ t=2
0.2648917047438183
% es.EZ (V/m) @ t=2
-0.5615237082227436
% es.tEX (V/m) @ t=2
0.4105132699197107
% es.tEY (V/m) @ t=2
0
% es.tEZ (V/m) @ t=2
-0.5615237082227487
% es.Ex (V/m) @ t=2
0.41051326991971315
% es.Ey (V/m) @ t=2
0.2648917047438183
% es.Ez (V/m) @ t=2
-0.5615237082227436
% es.tEx (V/m) @ t=2
0.4105132699197107
% es.tEy (V/m) @ t=2
0
% es.tEz (V/m) @ t=2
-0.5615237082227487
% V (V) @ t=2
0.015647718015011736
% es.normE (V/m) @ t=2.1
0.8036841925241032
% es.EX (V/m) @ t=2.1
0.42820158464693514
% es.EY (V/m) @ t=2.1
0.27631210850939025
% es.EZ (V/m) @ t=2.1
-0.5857181320803944
% es.tEX (V/m) @ t=2.1
0.42820158464693114
% es.tEY (V/m) @ t=2.1
0
% es.tEZ (V/m) @ t=2.1
-0.5857181320803959
% es.Ex (V/m) @ t=2.1
0.42820158464693514
% es.Ey (V/m) @ t=2.1
0.27631210850939025
% es.Ez (V/m) @ t=2.1
-0.5857181320803944
% es.tEx (V/m) @ t=2.1
0.42820158464693114
% es.tEy (V/m) @ t=2.1
0
% es.tEz (V/m) @ t=2.1
-0.5857181320803959
% V (V) @ t=2.1
0.01632132584331021
% es.normE (V/m) @ t=2.2
0.8383538149667125
% es.EX (V/m) @ t=2.2
0.44667217122297953
% es.EY (V/m) @ t=2.2
0.2882362546167271
% es.EZ (V/m) @ t=2.2
-0.6109826966043865
% es.tEX (V/m) @ t=2.2
0.44667217122297975
% es.tEY (V/m) @ t=2.2
0
% es.tEZ (V/m) @ t=2.2
-0.6109826966043914
% es.Ex (V/m) @ t=2.2
0.44667217122297953
% es.Ey (V/m) @ t=2.2
0.2882362546167271
% es.Ez (V/m) @ t=2.2
-0.6109826966043865
% es.tEx (V/m) @ t=2.2
0.44667217122297975
% es.tEy (V/m) @ t=2.2
0
% es.tEz (V/m) @ t=2.2
-0.6109826966043914
% V (V) @ t=2.2
0.01702484881140664
% es.normE (V/m) @ t=2.3
0.8749909661731645
% es.EX (V/m) @ t=2.3
0.4661923069376781
% es.EY (V/m) @ t=2.3
0.300832616685097
% es.EZ (V/m) @ t=2.3
-0.6376834012752794
% es.tEX (V/m) @ t=2.3
0.46619230693767566
% es.tEY (V/m) @ t=2.3
0
% es.tEZ (V/m) @ t=2.3
-0.6376834012752846
% es.Ex (V/m) @ t=2.3
0.4661923069376781
% es.Ey (V/m) @ t=2.3
0.300832616685097
% es.Ez (V/m) @ t=2.3
-0.6376834012752794
% es.tEx (V/m) @ t=2.3
0.46619230693767566
% es.tEy (V/m) @ t=2.3
0
% es.tEz (V/m) @ t=2.3
-0.6376834012752846
% V (V) @ t=2.3
0.01776884903723999
% es.normE (V/m) @ t=2.4
0.9130220323077278
% es.EX (V/m) @ t=2.4
0.4864552314243892
% es.EY (V/m) @ t=2.4
0.3139078336202775
% es.EZ (V/m) @ t=2.4
-0.6654001799702964
% es.tEX (V/m) @ t=2.4
0.4864552314243875
% es.tEY (V/m) @ t=2.4
0
% es.tEZ (V/m) @ t=2.4
-0.6654001799703013
% es.Ex (V/m) @ t=2.4
0.4864552314243892
% es.Ey (V/m) @ t=2.4
0.3139078336202775
% es.Ez (V/m) @ t=2.4
-0.6654001799702964
% es.tEx (V/m) @ t=2.4
0.4864552314243875
% es.tEy (V/m) @ t=2.4
0
% es.tEz (V/m) @ t=2.4
-0.6654001799703013
% V (V) @ t=2.4
0.018541204132209544
% es.normE (V/m) @ t=2.5
0.952447013371055
% es.EX (V/m) @ t=2.5
0.507460944683107
% es.EY (V/m) @ t=2.5
0.327461905422304
% es.EZ (V/m) @ t=2.5
-0.6941330326893971
% es.tEX (V/m) @ t=2.5
0.5074609446831078
% es.tEY (V/m) @ t=2.5
0
% es.tEZ (V/m) @ t=2.5
-0.6941330326894004
% es.Ex (V/m) @ t=2.5
0.507460944683107
% es.Ey (V/m) @ t=2.5
0.327461905422304
% es.Ez (V/m) @ t=2.5
-0.6941330326893971
% es.tEx (V/m) @ t=2.5
0.5074609446831078
% es.tEy (V/m) @ t=2.5
0
% es.tEz (V/m) @ t=2.5
-0.6941330326894004
% V (V) @ t=2.5
0.019341914096315298
% es.normE (V/m) @ t=2.6
0.9932659093644862
% es.EX (V/m) @ t=2.6
0.52920944671384
% es.EY (V/m) @ t=2.6
0.34149483209115516
% es.EZ (V/m) @ t=2.6
-0.7238819594325714
% es.tEX (V/m) @ t=2.6
0.5292094467138342
% es.tEY (V/m) @ t=2.6
0
% es.tEZ (V/m) @ t=2.6
-0.7238819594325747
% es.Ex (V/m) @ t=2.6
0.52920944671384
% es.Ey (V/m) @ t=2.6
0.34149483209115516
% es.Ez (V/m) @ t=2.6
-0.7238819594325714
% es.tEx (V/m) @ t=2.6
0.5292094467138342
% es.tEy (V/m) @ t=2.6
0
% es.tEz (V/m) @ t=2.6
-0.7238819594325747
% V (V) @ t=2.6
0.020170978929557257
% es.normE (V/m) @ t=2.7
1.0354787202899136
% es.EX (V/m) @ t=2.7
0.5517007375165941
% es.EY (V/m) @ t=2.7
0.35600661362683095
% es.EZ (V/m) @ t=2.7
-0.7546469601998598
% es.tEX (V/m) @ t=2.7
0.5517007375165903
% es.tEY (V/m) @ t=2.7
0
% es.tEZ (V/m) @ t=2.7
-0.7546469601998593
% es.Ex (V/m) @ t=2.7
0.5517007375165941
% es.Ey (V/m) @ t=2.7
0.35600661362683095
% es.Ez (V/m) @ t=2.7
-0.7546469601998598
% es.tEx (V/m) @ t=2.7
0.5517007375165903
% es.tEy (V/m) @ t=2.7
0
% es.tEz (V/m) @ t=2.7
-0.7546469601998593
% V (V) @ t=2.7
0.021028398631935417
% es.normE (V/m) @ t=2.8
1.079891698700015
% es.EX (V/m) @ t=2.8
0.5753640114327725
% es.EY (V/m) @ t=2.8
0.37127571427941464
% es.EZ (V/m) @ t=2.8
-0.7870149588359638
% es.tEX (V/m) @ t=2.8
0.5753640114327689
% es.tEY (V/m) @ t=2.8
0
% es.tEZ (V/m) @ t=2.8
-0.7870149588359636
% es.Ex (V/m) @ t=2.8
0.5753640114327725
% es.Ey (V/m) @ t=2.8
0.37127571427941464
% es.Ez (V/m) @ t=2.8
-0.7870149588359638
% es.tEx (V/m) @ t=2.8
0.5753640114327689
% es.tEy (V/m) @ t=2.8
0
% es.tEz (V/m) @ t=2.8
-0.7870149588359636
% V (V) @ t=2.8
0.02193039060271035
% es.normE (V/m) @ t=2.9
1.1261198321151933
% es.EX (V/m) @ t=2.9
0.5999943138531578
% es.EY (V/m) @ t=2.9
0.38716915808424424
% es.EZ (V/m) @ t=2.9
-0.8207056796344343
% es.tEX (V/m) @ t=2.9
0.5999943138531547
% es.tEY (V/m) @ t=2.9
0
% es.tEZ (V/m) @ t=2.9
-0.8207056796344445
% es.Ex (V/m) @ t=2.9
0.5999943138531578
% es.Ey (V/m) @ t=2.9
0.38716915808424424
% es.Ez (V/m) @ t=2.9
-0.8207056796344343
% es.tEx (V/m) @ t=2.9
0.5999943138531547
% es.tEy (V/m) @ t=2.9
0
% es.tEz (V/m) @ t=2.9
-0.8207056796344445
% V (V) @ t=2.9
0.0228692104929765
% es.normE (V/m) @ t=3
1.1740395822008232
% es.EX (V/m) @ t=3
0.6255258813218711
% es.EY (V/m) @ t=3
0.40364427725746105
% es.EZ (V/m) @ t=3
-0.8556291909800866
% es.tEX (V/m) @ t=3
0.6255258813218627
% es.tEY (V/m) @ t=3
0
% es.tEZ (V/m) @ t=3
-0.8556291909801077
% es.Ex (V/m) @ t=3
0.6255258813218711
% es.Ey (V/m) @ t=3
0.40364427725746105
% es.Ez (V/m) @ t=3
-0.8556291909800866
% es.tEx (V/m) @ t=3
0.6255258813218627
% es.tEy (V/m) @ t=3
0
% es.tEz (V/m) @ t=3
-0.8556291909801077
% V (V) @ t=3
0.0238423733859554
% es.normE (V/m) @ t=3.1
1.2236509489569265
% es.EX (V/m) @ t=3.1
0.6519587138389566
% es.EY (V/m) @ t=3.1
0.42070107179903204
% es.EZ (V/m) @ t=3.1
-0.8917854928729632
% es.tEX (V/m) @ t=3.1
0.6519587138389529
% es.tEY (V/m) @ t=3.1
0
% es.tEZ (V/m) @ t=3.1
-0.8917854928729629
% es.Ex (V/m) @ t=3.1
0.6519587138389566
% es.Ey (V/m) @ t=3.1
0.42070107179903204
% es.Ez (V/m) @ t=3.1
-0.8917854928729632
% es.tEx (V/m) @ t=3.1
0.6519587138389529
% es.tEy (V/m) @ t=3.1
0
% es.tEz (V/m) @ t=3.1
-0.8917854928729629
% V (V) @ t=3.1
0.024849879281647055
% es.normE (V/m) @ t=3.2
1.2749539323834616
% es.EX (V/m) @ t=3.2
0.6792928114043815
% es.EY (V/m) @ t=3.2
0.43833954170897776
% es.EZ (V/m) @ t=3.2
-0.9291745853130398
% es.tEX (V/m) @ t=3.2
0.6792928114043733
% es.tEY (V/m) @ t=3.2
0
% es.tEZ (V/m) @ t=3.2
-0.9291745853130431
% es.Ex (V/m) @ t=3.2
0.6792928114043815
% es.Ey (V/m) @ t=3.2
0.43833954170897776
% es.Ez (V/m) @ t=3.2
-0.9291745853130398
% es.tEx (V/m) @ t=3.2
0.6792928114043733
% es.tEy (V/m) @ t=3.2
0
% es.tEz (V/m) @ t=3.2
-0.9291745853130431
% V (V) @ t=3.2
0.025891728180051456
% es.normE (V/m) @ t=3.3
1.3280523379188338
% es.EX (V/m) @ t=3.3
0.7075834741758631
% es.EY (V/m) @ t=3.3
0.45659540034407087
% es.EZ (V/m) @ t=3.3
-0.967872108043673
% es.tEX (V/m) @ t=3.3
0.7075834741758547
% es.tEY (V/m) @ t=3.3
0
% es.tEZ (V/m) @ t=3.3
-0.9678721080436761
% es.Ex (V/m) @ t=3.3
0.7075834741758631
% es.Ey (V/m) @ t=3.3
0.45659540034407087
% es.Ez (V/m) @ t=3.3
-0.967872108043673
% es.tEx (V/m) @ t=3.3
0.7075834741758547
% es.tEy (V/m) @ t=3.3
0
% es.tEz (V/m) @ t=3.3
-0.9678721080436761
% V (V) @ t=3.3
0.026970025178671385
% es.normE (V/m) @ t=3.4
1.383171944121624
% es.EX (V/m) @ t=3.4
0.7369509809180506
% es.EY (V/m) @ t=3.4
0.47554632485047327
% es.EZ (V/m) @ t=3.4
-1.0080425787673537
% es.tEX (V/m) @ t=3.4
0.7369509809180457
% es.tEY (V/m) @ t=3.4
0
% es.tEZ (V/m) @ t=3.4
-1.008042578767364
% es.Ex (V/m) @ t=3.4
0.7369509809180506
% es.Ey (V/m) @ t=3.4
0.47554632485047327
% es.Ez (V/m) @ t=3.4
-1.0080425787673537
% es.tEx (V/m) @ t=3.4
0.7369509809180457
% es.tEy (V/m) @ t=3.4
0
% es.tEz (V/m) @ t=3.4
-1.008042578767364
% V (V) @ t=3.4
0.028089348899659996
% es.normE (V/m) @ t=3.5
1.440104585305451
% es.EX (V/m) @ t=3.5
0.7672844357522903
% es.EY (V/m) @ t=3.5
0.49512069763717903
% es.EZ (V/m) @ t=3.5
-1.0495343137249837
% es.tEX (V/m) @ t=3.5
0.7672844357522872
% es.tEY (V/m) @ t=3.5
0
% es.tEZ (V/m) @ t=3.5
-1.0495343137249868
% es.Ex (V/m) @ t=3.5
0.7672844357522903
% es.Ey (V/m) @ t=3.5
0.49512069763717903
% es.Ez (V/m) @ t=3.5
-1.0495343137249837
% es.tEx (V/m) @ t=3.5
0.7672844357522872
% es.tEy (V/m) @ t=3.5
0
% es.tEz (V/m) @ t=3.5
-1.0495343137249868
% V (V) @ t=3.5
0.02924547789687931
% es.normE (V/m) @ t=3.6
1.4988502614704935
% es.EX (V/m) @ t=3.6
0.7985838386786548
% es.EY (V/m) @ t=3.6
0.5153185187042131
% es.EZ (V/m) @ t=3.6
-1.0923473129165422
% es.tEX (V/m) @ t=3.6
0.7985838386786512
% es.tEY (V/m) @ t=3.6
0
% es.tEZ (V/m) @ t=3.6
-1.0923473129165595
% es.Ex (V/m) @ t=3.6
0.7985838386786548
% es.Ey (V/m) @ t=3.6
0.5153185187042131
% es.Ez (V/m) @ t=3.6
-1.0923473129165422
% es.tEx (V/m) @ t=3.6
0.7985838386786512
% es.tEy (V/m) @ t=3.6
0
% es.tEz (V/m) @ t=3.6
-1.0923473129165595
% V (V) @ t=3.6
0.030438412170329342
% es.normE (V/m) @ t=3.7
1.5594089726168994
% es.EX (V/m) @ t=3.7
0.8308491896970769
% es.EY (V/m) @ t=3.7
0.5361397880515536
% es.EZ (V/m) @ t=3.7
-1.136481576342073
% es.tEX (V/m) @ t=3.7
0.8308491896970747
% es.tEY (V/m) @ t=3.7
0
% es.tEZ (V/m) @ t=3.7
-1.1364815763420761
% es.Ex (V/m) @ t=3.7
0.8308491896970769
% es.Ey (V/m) @ t=3.7
0.5361397880515536
% es.Ez (V/m) @ t=3.7
-1.136481576342073
% es.tEx (V/m) @ t=3.7
0.8308491896970747
% es.tEy (V/m) @ t=3.7
0
% es.tEz (V/m) @ t=3.7
-1.1364815763420761
% V (V) @ t=3.7
0.031668151720010085
% es.normE (V/m) @ t=3.8
1.6217807187448199
% es.EX (V/m) @ t=3.8
0.8640804888076066
% es.EY (V/m) @ t=3.8
0.5575845056792055
% es.EZ (V/m) @ t=3.8
-1.18193710400149
% es.tEX (V/m) @ t=3.8
0.8640804888076037
% es.tEY (V/m) @ t=3.8
0
% es.tEZ (V/m) @ t=3.8
-1.1819371040014968
% es.Ex (V/m) @ t=3.8
0.8640804888076066
% es.Ey (V/m) @ t=3.8
0.5575845056792055
% es.Ez (V/m) @ t=3.8
-1.18193710400149
% es.tEx (V/m) @ t=3.8
0.8640804888076037
% es.tEy (V/m) @ t=3.8
0
% es.tEz (V/m) @ t=3.8
-1.1819371040014968
% V (V) @ t=3.8
0.032934696545921543
% es.normE (V/m) @ t=3.9
1.6855811833042287
% es.EX (V/m) @ t=3.9
0.8980730894082305
% es.EY (V/m) @ t=3.9
0.5795201470680785
% es.EZ (V/m) @ t=3.9
-1.2284340159877005
% es.tEX (V/m) @ t=3.9
0.8980730894082267
% es.tEY (V/m) @ t=3.9
0
% es.tEZ (V/m) @ t=3.9
-1.2284340159877036
% es.Ex (V/m) @ t=3.9
0.8980730894082305
% es.Ey (V/m) @ t=3.9
0.5795201470680785
% es.Ez (V/m) @ t=3.9
-1.2284340159877005
% es.tEx (V/m) @ t=3.9
0.8980730894082267
% es.tEy (V/m) @ t=3.9
0
% es.tEz (V/m) @ t=3.9
-1.2284340159877036
% V (V) @ t=3.9
0.03423029033758028
% es.normE (V/m) @ t=4
1.7508264298042295
% es.EX (V/m) @ t=4
0.9328355452358039
% es.EY (V/m) @ t=4
0.6019522514250123
% es.EZ (V/m) @ t=4
-1.2759840106091191
% es.tEX (V/m) @ t=4
0.9328355452357968
% es.tEY (V/m) @ t=4
0
% es.tEZ (V/m) @ t=4
-1.2759840106091183
% es.Ex (V/m) @ t=4
0.9328355452358039
% es.Ey (V/m) @ t=4
0.6019522514250123
% es.Ez (V/m) @ t=4
-1.2759840106091191
% es.tEx (V/m) @ t=4
0.9328355452357968
% es.tEy (V/m) @ t=4
0
% es.tEz (V/m) @ t=4
-1.2759840106091183
% V (V) @ t=4
0.03555525729015087
% es.normE (V/m) @ t=4.1
1.8175793022980393
% es.EX (V/m) @ t=4.1
0.9684013204280288
% es.EY (V/m) @ t=4.1
0.6249024893700471
% es.EZ (V/m) @ t=4.1
-1.3246328542731733
% es.tEX (V/m) @ t=4.1
0.9684013204280255
% es.tEY (V/m) @ t=4.1
0
% es.tEZ (V/m) @ t=4.1
-1.324632854273176
% es.Ex (V/m) @ t=4.1
0.9684013204280288
% es.Ey (V/m) @ t=4.1
0.6249024893700471
% es.Ez (V/m) @ t=4.1
-1.3246328542731733
% es.tEx (V/m) @ t=4.1
0.9684013204280255
% es.tEy (V/m) @ t=4.1
0
% es.tEz (V/m) @ t=4.1
-1.324632854273176
% V (V) @ t=4.1
0.03691086572785511
% es.normE (V/m) @ t=4.2
1.8857979207491253
% es.EX (V/m) @ t=4.2
1.0047481140791281
% es.EY (V/m) @ t=4.2
0.6483564193401957
% es.EZ (V/m) @ t=4.2
-1.3743500476928348
% es.tEX (V/m) @ t=4.2
1.0047481140791286
% es.tEY (V/m) @ t=4.2
0
% es.tEZ (V/m) @ t=4.2
-1.3743500476928663
% es.Ex (V/m) @ t=4.2
1.0047481140791281
% es.Ey (V/m) @ t=4.2
0.6483564193401957
% es.Ez (V/m) @ t=4.2
-1.3743500476928348
% es.tEx (V/m) @ t=4.2
1.0047481140791286
% es.tEy (V/m) @ t=4.2
0
% es.tEz (V/m) @ t=4.2
-1.3743500476928663
% V (V) @ t=4.2
0.038296270424103794
% es.normE (V/m) @ t=4.3
1.955440405121163
% es.EX (V/m) @ t=4.3
1.04185362528332
% es.EY (V/m) @ t=4.3
0.6722995997722235
% es.EZ (V/m) @ t=4.3
-1.4251050915812047
% es.tEX (V/m) @ t=4.3
1.0418536252833173
% es.tEY (V/m) @ t=4.3
0
% es.tEZ (V/m) @ t=4.3
-1.425105091581215
% es.Ex (V/m) @ t=4.3
1.04185362528332
% es.Ey (V/m) @ t=4.3
0.6722995997722235
% es.Ez (V/m) @ t=4.3
-1.4251050915812047
% es.tEx (V/m) @ t=4.3
1.0418536252833173
% es.tEy (V/m) @ t=4.3
0
% es.tEz (V/m) @ t=4.3
-1.425105091581215
% V (V) @ t=4.3
0.03971062615230771
% es.normE (V/m) @ t=4.4
2.0262518483641676
% es.EX (V/m) @ t=4.4
1.0795818852404047
% es.EY (V/m) @ t=4.4
0.696644914581857
% es.EZ (V/m) @ t=4.4
-1.4767119375618658
% es.tEX (V/m) @ t=4.4
1.0795818852403993
% es.tEY (V/m) @ t=4.4
0
% es.tEZ (V/m) @ t=4.4
-1.4767119375618796
% es.Ex (V/m) @ t=4.4
1.0795818852404047
% es.Ey (V/m) @ t=4.4
0.696644914581857
% es.Ez (V/m) @ t=4.4
-1.4767119375618658
% es.tEx (V/m) @ t=4.4
1.0795818852403993
% es.tEy (V/m) @ t=4.4
0
% es.tEz (V/m) @ t=4.4
-1.4767119375618796
% V (V) @ t=4.4
0.04114869194191077
% es.normE (V/m) @ t=4.5
2.097083622924817
% es.EX (V/m) @ t=4.5
1.1173200498175104
% es.EY (V/m) @ t=4.5
0.7210003534429126
% es.EZ (V/m) @ t=4.5
-1.5283319561208661
% es.tEX (V/m) @ t=4.5
1.117320049817505
% es.tEY (V/m) @ t=4.5
0
% es.tEZ (V/m) @ t=4.5
-1.5283319561209012
% es.Ex (V/m) @ t=4.5
1.1173200498175104
% es.Ey (V/m) @ t=4.5
0.7210003534429126
% es.Ez (V/m) @ t=4.5
-1.5283319561208661
% es.tEx (V/m) @ t=4.5
1.117320049817505
% es.tEy (V/m) @ t=4.5
0
% es.tEz (V/m) @ t=4.5
-1.5283319561209012
% V (V) @ t=4.5
0.04258678518693874
% es.normE (V/m) @ t=4.6
2.1684943888672046
% es.EX (V/m) @ t=4.6
1.155366256941314
% es.EY (V/m) @ t=4.6
0.7455563500462292
% es.EZ (V/m) @ t=4.6
-1.5803731532229381
% es.tEX (V/m) @ t=4.6
1.1553662569413046
% es.tEY (V/m) @ t=4.6
0
% es.tEZ (V/m) @ t=4.6
-1.5803731532229373
% es.Ex (V/m) @ t=4.6
1.155366256941314
% es.Ey (V/m) @ t=4.6
0.7455563500462292
% es.Ez (V/m) @ t=4.6
-1.5803731532229381
% es.tEx (V/m) @ t=4.6
1.1553662569413046
% es.tEy (V/m) @ t=4.6
0
% es.tEz (V/m) @ t=4.6
-1.5803731532229373
% V (V) @ t=4.6
0.04403645261256924
% es.normE (V/m) @ t=4.7
2.2403355331863954
% es.EX (V/m) @ t=4.7
1.1936412546492128
% es.EY (V/m) @ t=4.7
0.7702620506931342
% es.EZ (V/m) @ t=4.7
-1.6327270947774863
% es.tEX (V/m) @ t=4.7
1.1936412546491981
% es.tEY (V/m) @ t=4.7
0
% es.tEZ (V/m) @ t=4.7
-1.6327270947774926
% es.Ex (V/m) @ t=4.7
1.1936412546492128
% es.Ey (V/m) @ t=4.7
0.7702620506931342
% es.Ez (V/m) @ t=4.7
-1.6327270947774863
% es.tEx (V/m) @ t=4.7
1.1936412546491981
% es.tEy (V/m) @ t=4.7
0
% es.tEz (V/m) @ t=4.7
-1.6327270947774926
% V (V) @ t=4.7
0.04549464659138991
% es.normE (V/m) @ t=4.8
2.3124584428858173
% es.EX (V/m) @ t=4.8
1.2320657909787451
% es.EY (V/m) @ t=4.8
0.7950666016848876
% es.EZ (V/m) @ t=4.8
-1.6852853466938549
% es.tEX (V/m) @ t=4.8
1.2320657909787318
% es.tEY (V/m) @ t=4.8
0
% es.tEZ (V/m) @ t=4.8
-1.6852853466938829
% es.Ex (V/m) @ t=4.8
1.2320657909787451
% es.Ey (V/m) @ t=4.8
0.7950666016848876
% es.Ez (V/m) @ t=4.8
-1.6852853466938549
% es.tEx (V/m) @ t=4.8
1.2320657909787318
% es.tEy (V/m) @ t=4.8
0
% es.tEz (V/m) @ t=4.8
-1.6852853466938829
% V (V) @ t=4.8
0.04695831949598847
% es.normE (V/m) @ t=4.9
2.3847145049793053
% es.EX (V/m) @ t=4.9
1.270560613967246
% es.EY (V/m) @ t=4.9
0.8199191493228262
% es.EZ (V/m) @ t=4.9
-1.7379394748816797
% es.tEX (V/m) @ t=4.9
1.2705606139672323
% es.tEY (V/m) @ t=4.9
0
% es.tEZ (V/m) @ t=4.9
-1.7379394748816859
% es.Ex (V/m) @ t=4.9
1.270560613967246
% es.Ey (V/m) @ t=4.9
0.8199191493228262
% es.Ez (V/m) @ t=4.9
-1.7379394748816797
% es.tEx (V/m) @ t=4.9
1.2705606139672323
% es.tEy (V/m) @ t=4.9
0
% es.tEz (V/m) @ t=4.9
-1.7379394748816859
% V (V) @ t=4.9
0.04842442369895257
% es.normE (V/m) @ t=5
2.4561194230459353
% es.EX (V/m) @ t=5
1.3086027951541563
% es.EY (V/m) @ t=5
0.8444762093763344
% es.EZ (V/m) @ t=5
-1.7899747967460318
% es.tEX (V/m) @ t=5
1.308602795154152
% es.tEY (V/m) @ t=5
0
% es.tEZ (V/m) @ t=5
-1.7899747967460309
% es.Ex (V/m) @ t=5
1.3086027951541563
% es.Ey (V/m) @ t=5
0.8444762093763344
% es.Ez (V/m) @ t=5
-1.7899747967460318
% es.tEx (V/m) @ t=5
1.308602795154152
% es.tEy (V/m) @ t=5
0
% es.tEz (V/m) @ t=5
-1.7899747967460309
% V (V) @ t=5
0.04987359430033602
% es.normE (V/m) @ t=5.1
2.526308436406321
% es.EX (V/m) @ t=5.1
1.3459983266584796
% es.EY (V/m) @ t=5.1
0.8686112399242313
% es.EZ (V/m) @ t=5.1
-1.8411260733982129
% es.tEX (V/m) @ t=5.1
1.3459983266584734
% es.tEY (V/m) @ t=5.1
0
% es.tEZ (V/m) @ t=5.1
-1.8411260733982333
% es.Ex (V/m) @ t=5.1
1.3459983266584796
% es.Ey (V/m) @ t=5.1
0.8686112399242313
% es.Ez (V/m) @ t=5.1
-1.8411260733982129
% es.tEx (V/m) @ t=5.1
1.3459983266584734
% es.tEy (V/m) @ t=5.1
0
% es.tEz (V/m) @ t=5.1
-1.8411260733982333
% V (V) @ t=5.1
0.0512985632472556
% es.normE (V/m) @ t=5.2
2.595398323630038
% es.EX (V/m) @ t=5.2
1.3828088567808203
% es.EY (V/m) @ t=5.2
0.8923663192106658
% es.EZ (V/m) @ t=5.2
-1.8914773997048284
% es.tEX (V/m) @ t=5.2
1.3828088567808043
% es.tEY (V/m) @ t=5.2
0
% es.tEZ (V/m) @ t=5.2
-1.891477399704856
% es.Ex (V/m) @ t=5.2
1.3828088567808203
% es.Ey (V/m) @ t=5.2
0.8923663192106658
% es.Ez (V/m) @ t=5.2
-1.8914773997048284
% es.tEx (V/m) @ t=5.2
1.3828088567808043
% es.tEy (V/m) @ t=5.2
0
% es.tEz (V/m) @ t=5.2
-1.891477399704856
% V (V) @ t=5.2
0.0527014648590545
% es.normE (V/m) @ t=5.3
2.6631310128409655
% es.EX (V/m) @ t=5.3
1.4188970202560354
% es.EY (V/m) @ t=5.3
0.9156522644239918
% es.EZ (V/m) @ t=5.3
-1.940840934388718
% es.tEX (V/m) @ t=5.3
1.4188970202560274
% es.tEY (V/m) @ t=5.3
0