% Model:              1x1--2 - Copy1.mph
% Version:            COMSOL 6.1.0.252
% Date:               Apr 3 2023, 15:07
% Dimension:          0
% Nodes:              14017
% Expressions:        14017
% Description:        Electric field norm, Electric field, X component, Electric field, Y component, Electric field, Z component, Tangential electric field, X component, Tangential electric field, Y component, Tangential electric field, Z component, Electric field, x component, Electric field, y component, Electric field, z component, Tangential electric field, x component, Tangential electric field, y component, Tangential electric field, z component, Electric potential
% Length unit:        mm
% x
1.66
% y
12.2
% z
2
% es.normE (V/m) @ t=0
0.2278137150740363
% es.EX (V/m) @ t=0
0.11500530416650268
% es.EY (V/m) @ t=0
0.09043830534705144
% es.EZ (V/m) @ t=0
-0.1512555828694454
% es.tEX (V/m) @ t=0
0.11500530416650334
% es.tEY (V/m) @ t=0
0
% es.tEZ (V/m) @ t=0
-0.15125558286944552
% es.Ex (V/m) @ t=0
0.11500530416650268
% es.Ey (V/m) @ t=0
0.09043830534705144
% es.Ez (V/m) @ t=0
-0.1512555828694454
% es.tEx (V/m) @ t=0
0.11500530416650334
% es.tEy (V/m) @ t=0
0
% es.tEz (V/m) @ t=0
-0.15125558286944552
% V (V) @ t=0
0.006602230456454273
% es.normE (V/m) @ t=0.1
0.23135917612420392
% es.EX (V/m) @ t=0.1
0.11679513178583001
% es.EY (V/m) @ t=0.1
0.09184579023513306
% es.EZ (V/m) @ t=0.1
-0.1536095740562513
% es.tEX (V/m) @ t=0.1
0.11679513178583134
% es.tEY (V/m) @ t=0.1
0
% es.tEZ (V/m) @ t=0.1
-0.1536095740562491
% es.Ex (V/m) @ t=0.1
0.11679513178583001
% es.Ey (V/m) @ t=0.1
0.09184579023513306
% es.Ez (V/m) @ t=0.1
-0.1536095740562513
% es.tEx (V/m) @ t=0.1
0.11679513178583134
% es.tEy (V/m) @ t=0.1
0
% es.tEz (V/m) @ t=0.1
-0.1536095740562491
% V (V) @ t=0.1
0.00670498165721082
% es.normE (V/m) @ t=0.2
0.24237056398786835
% es.EX (V/m) @ t=0.2
0.12235368379654599
% es.EY (V/m) @ t=0.2
0.09621771561941728
% es.EZ (V/m) @ t=0.2
-0.16092015780252789
% es.tEX (V/m) @ t=0.2
0.12235368379654687
% es.tEY (V/m) @ t=0.2
0
% es.tEZ (V/m) @ t=0.2
-0.16092015780252655
% es.Ex (V/m) @ t=0.2
0.12235368379654599
% es.Ey (V/m) @ t=0.2
0.09621771561941728
% es.Ez (V/m) @ t=0.2
-0.16092015780252789
% es.tEx (V/m) @ t=0.2
0.12235368379654687
% es.tEy (V/m) @ t=0.2
0
% es.tEz (V/m) @ t=0.2
-0.16092015780252655
% V (V) @ t=0.2
0.007024008551492444
% es.normE (V/m) @ t=0.3
0.2537372556887353
% es.EX (V/m) @ t=0.3
0.12809131897586123
% es.EY (V/m) @ t=0.3
0.10073139158340938
% es.EZ (V/m) @ t=0.3
-0.16846620896296138
% es.tEX (V/m) @ t=0.3
0.12809131897586234
% es.tEY (V/m) @ t=0.3
0
% es.tEZ (V/m) @ t=0.3
-0.16846620896296116
% es.Ex (V/m) @ t=0.3
0.12809131897586123
% es.Ey (V/m) @ t=0.3
0.10073139158340938
% es.Ez (V/m) @ t=0.3
-0.16846620896296138
% es.tEx (V/m) @ t=0.3
0.12809131897586234
% es.tEy (V/m) @ t=0.3
0
% es.tEz (V/m) @ t=0.3
-0.16846620896296116
% V (V) @ t=0.3
0.007353221902932049
% es.normE (V/m) @ t=0.4
0.265744304386168
% es.EX (V/m) @ t=0.4
0.1341531516166934
% es.EY (V/m) @ t=0.4
0.10549696357734195
% es.EZ (V/m) @ t=0.4
-0.1764388567946955
% es.tEX (V/m) @ t=0.4
0.13415315161669383
% es.tEY (V/m) @ t=0.4
0
% es.tEZ (V/m) @ t=0.4
-0.17643885679469395
% es.Ex (V/m) @ t=0.4
0.1341531516166934
% es.Ey (V/m) @ t=0.4
0.10549696357734195
% es.Ez (V/m) @ t=0.4
-0.1764388567946955
% es.tEx (V/m) @ t=0.4
0.13415315161669383
% es.tEy (V/m) @ t=0.4
0
% es.tEz (V/m) @ t=0.4
-0.17643885679469395
% V (V) @ t=0.4
0.0077013584291146615
% es.normE (V/m) @ t=0.5
0.27840547827380463
% es.EX (V/m) @ t=0.5
0.1405448664918829
% es.EY (V/m) @ t=0.5
0.11052304371850408
% es.EZ (V/m) @ t=0.5
-0.18484529188791554
% es.tEX (V/m) @ t=0.5
0.14054486649188247
% es.tEY (V/m) @ t=0.5
0
% es.tEZ (V/m) @ t=0.5
-0.18484529188791354
% es.Ex (V/m) @ t=0.5
0.1405448664918829
% es.Ey (V/m) @ t=0.5
0.11052304371850408
% es.Ez (V/m) @ t=0.5
-0.18484529188791554
% es.tEx (V/m) @ t=0.5
0.14054486649188247
% es.tEy (V/m) @ t=0.5
0
% es.tEz (V/m) @ t=0.5
-0.18484529188791354
% V (V) @ t=0.5
0.008068320881354523
% es.normE (V/m) @ t=0.6
0.292075547531539
% es.EX (V/m) @ t=0.6
0.14744517376708943
% es.EY (V/m) @ t=0.6
0.11595142830767724
% es.EZ (V/m) @ t=0.6
-0.19392046765153803
% es.tEX (V/m) @ t=0.6
0.14744517376708988
% es.tEY (V/m) @ t=0.6
0
% es.tEZ (V/m) @ t=0.6
-0.19392046765154003
% es.Ex (V/m) @ t=0.6
0.14744517376708943
% es.Ey (V/m) @ t=0.6
0.11595142830767724
% es.Ez (V/m) @ t=0.6
-0.19392046765153803
% es.tEx (V/m) @ t=0.6
0.14744517376708988
% es.tEy (V/m) @ t=0.6
0
% es.tEz (V/m) @ t=0.6
-0.19392046765154003
% V (V) @ t=0.6
0.008464239600455269
% es.normE (V/m) @ t=0.7
0.305745616800135
% es.EX (V/m) @ t=0.7
0.15434548104229995
% es.EY (V/m) @ t=0.7
0.12137981289684063
% es.EZ (V/m) @ t=0.7
-0.20299564341516074
% es.tEX (V/m) @ t=0.7
0.15434548104229995
% es.tEY (V/m) @ t=0.7
0
% es.tEZ (V/m) @ t=0.7
-0.2029956434151572
% es.Ex (V/m) @ t=0.7
0.15434548104229995
% es.Ey (V/m) @ t=0.7
0.12137981289684063
% es.Ez (V/m) @ t=0.7
-0.20299564341516074
% es.tEx (V/m) @ t=0.7
0.15434548104229995
% es.tEy (V/m) @ t=0.7
0
% es.tEz (V/m) @ t=0.7
-0.2029956434151572
% V (V) @ t=0.7
0.008860158319556017
% es.normE (V/m) @ t=0.8
0.3198848469858176
% es.EX (V/m) @ t=0.8
0.16148301061920645
% es.EY (V/m) @ t=0.8
0.12699350273029442
% es.EZ (V/m) @ t=0.8
-0.21238290106750424
% es.tEX (V/m) @ t=0.8
0.16148301061920556
% es.tEY (V/m) @ t=0.8
0
% es.tEZ (V/m) @ t=0.8
-0.2123829010675058
% es.Ex (V/m) @ t=0.8
0.16148301061920645
% es.Ey (V/m) @ t=0.8
0.12699350273029442
% es.Ez (V/m) @ t=0.8
-0.21238290106750424
% es.tEx (V/m) @ t=0.8
0.16148301061920556
% es.tEy (V/m) @ t=0.8
0
% es.tEz (V/m) @ t=0.8
-0.2123829010675058
% V (V) @ t=0.8
0.009269822714031798
% es.normE (V/m) @ t=0.9
0.33520256836670925
% es.EX (V/m) @ t=0.9
0.1692164218778398
% es.EY (V/m) @ t=0.9
0.13307266313632127
% es.EZ (V/m) @ t=0.9
-0.2225540811393094
% es.tEX (V/m) @ t=0.9
0.16921642187784114
% es.tEY (V/m) @ t=0.9
0
% es.tEZ (V/m) @ t=0.9
-0.22255408113931185
% es.Ex (V/m) @ t=0.9
0.1692164218778398
% es.Ey (V/m) @ t=0.9
0.13307266313632127
% es.Ez (V/m) @ t=0.9
-0.2225540811393094
% es.tEx (V/m) @ t=0.9
0.16921642187784114
% es.tEy (V/m) @ t=0.9
0
% es.tEz (V/m) @ t=0.9
-0.22255408113931185
% V (V) @ t=0.9
0.009714015043277735
% es.normE (V/m) @ t=1
0.35052028976222427
% es.EX (V/m) @ t=1
0.17694983313647317
% es.EY (V/m) @ t=1
0.13915182354235167
% es.EZ (V/m) @ t=1
-0.23272526121110548
% es.tEX (V/m) @ t=1
0.17694983313647406
% es.tEY (V/m) @ t=1
0
% es.tEZ (V/m) @ t=1
-0.2327252612111046
% es.Ex (V/m) @ t=1
0.17694983313647317
% es.Ey (V/m) @ t=1
0.13915182354235167
% es.Ez (V/m) @ t=1
-0.23272526121110548
% es.tEx (V/m) @ t=1
0.17694983313647406
% es.tEy (V/m) @ t=1
0
% es.tEz (V/m) @ t=1
-0.2327252612111046
% V (V) @ t=1
0.010158207372523676
% es.normE (V/m) @ t=1.1
0.3667883472825223
% es.EX (V/m) @ t=1.1
0.1851618742707064
% es.EY (V/m) @ t=1.1
0.14561103713309986
% es.EZ (V/m) @ t=1.1
-0.24352568455515944
% es.tEX (V/m) @ t=1.1
0.18516187427070818
% es.tEY (V/m) @ t=1.1
0
% es.tEZ (V/m) @ t=1.1
-0.243525684555153
% es.Ex (V/m) @ t=1.1
0.1851618742707064
% es.Ey (V/m) @ t=1.1
0.14561103713309986
% es.Ez (V/m) @ t=1.1
-0.24352568455515944
% es.tEx (V/m) @ t=1.1
0.18516187427070818
% es.tEy (V/m) @ t=1.1
0
% es.tEz (V/m) @ t=1.1
-0.243525684555153
% V (V) @ t=1.1
0.010629502177427082
% es.normE (V/m) @ t=1.2
0.3839774505568712
% es.EX (V/m) @ t=1.2
0.19383779338371632
% es.EY (V/m) @ t=1.2
0.15243859025330408
% es.EZ (V/m) @ t=1.2
-0.2549359572048304
% es.tEX (V/m) @ t=1.2
0.19383779338371543
% es.tEY (V/m) @ t=1.2
0
% es.tEZ (V/m) @ t=1.2
-0.2549359572048253
% es.Ex (V/m) @ t=1.2
0.19383779338371632
% es.Ey (V/m) @ t=1.2
0.15243859025330408
% es.Ez (V/m) @ t=1.2
-0.2549359572048304
% es.tEx (V/m) @ t=1.2
0.19383779338371543
% es.tEy (V/m) @ t=1.2
0
% es.tEz (V/m) @ t=1.2
-0.2549359572048253
% V (V) @ t=1.2
0.011127064130013232
% es.normE (V/m) @ t=1.3
0.40116655387696454
% es.EX (V/m) @ t=1.3
0.20251371249672268
% es.EY (V/m) @ t=1.3
0.15926614337351097
% es.EZ (V/m) @ t=1.3
-0.26634622985449274
% es.tEX (V/m) @ t=1.3
0.2025137124967249
% es.tEY (V/m) @ t=1.3
0
% es.tEZ (V/m) @ t=1.3
-0.2663462298544941
% es.Ex (V/m) @ t=1.3
0.20251371249672268
% es.Ey (V/m) @ t=1.3
0.15926614337351097
% es.Ez (V/m) @ t=1.3
-0.26634622985449274
% es.tEx (V/m) @ t=1.3
0.2025137124967249
% es.tEy (V/m) @ t=1.3
0
% es.tEz (V/m) @ t=1.3
-0.2663462298544941
% V (V) @ t=1.3
0.011624626082599385
% es.normE (V/m) @ t=1.4
0.41992336881856507
% es.EX (V/m) @ t=1.4
0.21198398849766775
% es.EY (V/m) @ t=1.4
0.16670873884992243
% es.EZ (V/m) @ t=1.4
-0.2788019096274146
% es.tEX (V/m) @ t=1.4
0.21198398849766775
% es.tEY (V/m) @ t=1.4
0
% es.tEZ (V/m) @ t=1.4
-0.27880190962740947
% es.Ex (V/m) @ t=1.4
0.21198398849766775
% es.Ey (V/m) @ t=1.4
0.16670873884992243
% es.Ez (V/m) @ t=1.4
-0.2788019096274146
% es.tEx (V/m) @ t=1.4
0.21198398849766775
% es.tEy (V/m) @ t=1.4
0
% es.tEz (V/m) @ t=1.4
-0.27880190962740947
% V (V) @ t=1.4
0.012168774334915058
% es.normE (V/m) @ t=1.5
0.43925735858856607
% es.EX (V/m) @ t=1.5
0.22174671797233092
% es.EY (V/m) @ t=1.5
0.17437777067539972
% es.EZ (V/m) @ t=1.5
-0.29164247049005243
% es.tEX (V/m) @ t=1.5
0.2217467179723296
% es.tEY (V/m) @ t=1.5
0
% es.tEZ (V/m) @ t=1.5
-0.29164247049005265
% es.Ex (V/m) @ t=1.5
0.22174671797233092
% es.Ey (V/m) @ t=1.5
0.17437777067539972
% es.Ez (V/m) @ t=1.5
-0.29164247049005243
% es.tEx (V/m) @ t=1.5
0.2217467179723296
% es.tEy (V/m) @ t=1.5
0
% es.tEz (V/m) @ t=1.5
-0.29164247049005265
% V (V) @ t=1.5
0.012730073977733207
% es.normE (V/m) @ t=1.6
0.45859134848554334
% es.EX (V/m) @ t=1.6
0.23150944744698787
% es.EY (V/m) @ t=1.6
0.18204680250087435
% es.EZ (V/m) @ t=1.6
-0.30448303135268984
% es.tEX (V/m) @ t=1.6
0.23150944744698876
% es.tEY (V/m) @ t=1.6
0
% es.tEZ (V/m) @ t=1.6
-0.3044830313526896
% es.Ex (V/m) @ t=1.6
0.23150944744698787
% es.Ey (V/m) @ t=1.6
0.18204680250087435
% es.Ez (V/m) @ t=1.6
-0.30448303135268984
% es.tEx (V/m) @ t=1.6
0.23150944744698876
% es.tEy (V/m) @ t=1.6
0
% es.tEz (V/m) @ t=1.6
-0.3044830313526896
% V (V) @ t=1.6
0.013291373620551357
% es.normE (V/m) @ t=1.7
0.47919575080349397
% es.EX (V/m) @ t=1.7
0.24191222471912077
% es.EY (V/m) @ t=1.7
0.1902233588865503
% es.EZ (V/m) @ t=1.7
-0.3181650964126139
% es.tEX (V/m) @ t=1.7
0.24191222471911855
% es.tEY (V/m) @ t=1.7
0
% es.tEZ (V/m) @ t=1.7
-0.31816509641261437
% es.Ex (V/m) @ t=1.7
0.24191222471912077
% es.Ey (V/m) @ t=1.7
0.1902233588865503
% es.Ez (V/m) @ t=1.7
-0.3181650964126139
% es.tEx (V/m) @ t=1.7
0.24191222471911855
% es.tEy (V/m) @ t=1.7
0
% es.tEz (V/m) @ t=1.7
-0.31816509641261437
% V (V) @ t=1.7
0.013888987554529181
% es.normE (V/m) @ t=1.8
0.5005588717174725
% es.EX (V/m) @ t=1.8
0.25269725281588773
% es.EY (V/m) @ t=1.8
0.19870302026287945
% es.EZ (V/m) @ t=1.8
-0.3323497265537947
% es.tEX (V/m) @ t=1.8
0.25269725281588995
% es.tEY (V/m) @ t=1.8
0
% es.tEZ (V/m) @ t=1.8
-0.3323497265537929
% es.Ex (V/m) @ t=1.8
0.25269725281588773
% es.Ey (V/m) @ t=1.8
0.19870302026287945
% es.Ez (V/m) @ t=1.8
-0.3323497265537947
% es.tEx (V/m) @ t=1.8
0.25269725281588995
% es.tEy (V/m) @ t=1.8
0
% es.tEz (V/m) @ t=1.8
-0.3323497265537929
% V (V) @ t=1.8
0.014508289193388889
% es.normE (V/m) @ t=1.9
0.5226358602641211
% es.EX (V/m) @ t=1.9
0.26384193533183176
% es.EY (V/m) @ t=1.9
0.2074678688574707
% es.EZ (V/m) @ t=1.9
-0.34700721310428984
% es.tEX (V/m) @ t=1.9
0.2638419353318353
% es.tEY (V/m) @ t=1.9
0
% es.tEZ (V/m) @ t=1.9
-0.3470072131042947
% es.Ex (V/m) @ t=1.9
0.26384193533183176
% es.Ey (V/m) @ t=1.9
0.2074678688574707
% es.Ez (V/m) @ t=1.9
-0.34700721310428984
% es.tEx (V/m) @ t=1.9
0.2638419353318353
% es.tEy (V/m) @ t=1.9
0
% es.tEz (V/m) @ t=1.9
-0.3470072131042947
% V (V) @ t=1.9
0.015147996488429401
% es.normE (V/m) @ t=2
0.545426716459015
% es.EX (V/m) @ t=2
0.27534627226693686
% es.EY (V/m) @ t=2
0.21651790467032317
% es.EZ (V/m) @ t=2
-0.3621375560641078
% es.tEX (V/m) @ t=2
0.27534627226693686
% es.tEY (V/m) @ t=2
0
% es.tEZ (V/m) @ t=2
-0.36213755606411
% es.Ex (V/m) @ t=2
0.27534627226693686
% es.Ey (V/m) @ t=2
0.21651790467032317
% es.Ez (V/m) @ t=2
-0.3621375560641078
% es.tEx (V/m) @ t=2
0.27534627226693686
% es.tEy (V/m) @ t=2
0
% es.tEz (V/m) @ t=2
-0.36213755606411
% V (V) @ t=2
0.015808109439650712
% es.normE (V/m) @ t=2.1
0.5689314403398278
% es.EX (V/m) @ t=2.1
0.2872102636212208
% es.EY (V/m) @ t=2.1
0.22585312770143418
% es.EZ (V/m) @ t=2.1
-0.37774075543323393
% es.tEX (V/m) @ t=2.1
0.2872102636212235
% es.tEY (V/m) @ t=2.1
0
% es.tEZ (V/m) @ t=2.1
-0.37774075543323704
% es.Ex (V/m) @ t=2.1
0.2872102636212208
% es.Ey (V/m) @ t=2.1
0.22585312770143418
% es.Ez (V/m) @ t=2.1
-0.37774075543323393
% es.tEx (V/m) @ t=2.1
0.2872102636212235
% es.tEy (V/m) @ t=2.1
0
% es.tEz (V/m) @ t=2.1
-0.37774075543323704
% V (V) @ t=2.1
0.016488628047052836
% es.normE (V/m) @ t=2.2
0.5934750276493637
% es.EX (V/m) @ t=2.2
0.2995989856334571
% es.EY (V/m) @ t=2.2
0.23560004182784589
% es.EZ (V/m) @ t=2.2
-0.39403414881403487
% es.tEX (V/m) @ t=2.2
0.29959898563346066
% es.tEY (V/m) @ t=2.2
0
% es.tEZ (V/m) @ t=2.2
-0.3940341488140344
% es.Ex (V/m) @ t=2.2
0.2995989856334571
% es.Ey (V/m) @ t=2.2
0.23560004182784589
% es.Ez (V/m) @ t=2.2
-0.39403414881403487
% es.tEx (V/m) @ t=2.2
0.29959898563346066
% es.tEy (V/m) @ t=2.2
0
% es.tEz (V/m) @ t=2.2
-0.3940341488140344
% V (V) @ t=2.2
0.01719936746828339
% es.normE (V/m) @ t=2.3
0.619410669103277
% es.EX (V/m) @ t=2.3
0.31269183575736115
% es.EY (V/m) @ t=2.3
0.24589612579025655
% es.EZ (V/m) @ t=2.3
-0.4112539289665569
% es.tEX (V/m) @ t=2.3
0.31269183575736204
% es.tEY (V/m) @ t=2.3
0
% es.tEZ (V/m) @ t=2.3
-0.4112539289665538
% es.Ex (V/m) @ t=2.3
0.31269183575736115
% es.Ey (V/m) @ t=2.3
0.24589612579025655
% es.Ez (V/m) @ t=2.3
-0.4112539289665569
% es.tEx (V/m) @ t=2.3
0.31269183575736204
% es.tEy (V/m) @ t=2.3
0
% es.tEz (V/m) @ t=2.3
-0.4112539289665538
% V (V) @ t=2.3
0.01795099437652574
% es.normE (V/m) @ t=2.4
0.6463329994441852
% es.EX (V/m) @ t=2.4
0.3262829153596867
% es.EY (V/m) @ t=2.4
0.2565835920380284
% es.EZ (V/m) @ t=2.4
-0.42912901196248887
% es.tEX (V/m) @ t=2.4
0.3262829153596911
% es.tEY (V/m) @ t=2.4
0
% es.tEZ (V/m) @ t=2.4
-0.42912901196248576
% es.Ex (V/m) @ t=2.4
0.3262829153596867
% es.Ey (V/m) @ t=2.4
0.2565835920380284
% es.Ez (V/m) @ t=2.4
-0.42912901196248887
% es.tEx (V/m) @ t=2.4
0.3262829153596911
% es.tEy (V/m) @ t=2.4
0
% es.tEz (V/m) @ t=2.4
-0.42912901196248576
% V (V) @ t=2.4
0.018731266382691555
% es.normE (V/m) @ t=2.5
0.6742420186726407
% es.EX (V/m) @ t=2.5
0.34037222444044346
% es.EY (V/m) @ t=2.5
0.2676624405711845
% es.EZ (V/m) @ t=2.5
-0.44765939780186015
% es.tEX (V/m) @ t=2.5
0.3403722244404426
% es.tEY (V/m) @ t=2.5
0
% es.tEZ (V/m) @ t=2.5
-0.44765939780186415
% es.Ex (V/m) @ t=2.5
0.34037222444044346
% es.Ey (V/m) @ t=2.5
0.2676624405711845
% es.Ez (V/m) @ t=2.5
-0.44765939780186015
% es.tEx (V/m) @ t=2.5
0.3403722244404426
% es.tEy (V/m) @ t=2.5
0
% es.tEz (V/m) @ t=2.5
-0.44765939780186415
% V (V) @ t=2.5
0.019540183486780844
% es.normE (V/m) @ t=2.6
0.7031377267897
% es.EX (V/m) @ t=2.6
0.3549597629996253
% es.EY (V/m) @ t=2.6
0.27913267138972664
% es.EZ (V/m) @ t=2.6
-0.46684508648466805
% es.tEX (V/m) @ t=2.6
0.35495976299962706
% es.tEY (V/m) @ t=2.6
0
% es.tEZ (V/m) @ t=2.6
-0.4668450864846694
% es.Ex (V/m) @ t=2.6
0.3549597629996253
% es.Ey (V/m) @ t=2.6
0.27913267138972664
% es.Ez (V/m) @ t=2.6
-0.46684508648466805
% es.tEx (V/m) @ t=2.6
0.35495976299962706
% es.tEy (V/m) @ t=2.6
0
% es.tEz (V/m) @ t=2.6
-0.4668450864846694
% V (V) @ t=2.6
0.020377745688793598
% es.normE (V/m) @ t=2.7
0.7330201237968412
% es.EX (V/m) @ t=2.7
0.37004553103724014
% es.EY (V/m) @ t=2.7
0.29099428449363707
% es.EZ (V/m) @ t=2.7
-0.4866860780109086
% es.tEX (V/m) @ t=2.7
0.37004553103723925
% es.tEY (V/m) @ t=2.7
0
% es.tEZ (V/m) @ t=2.7
-0.4866860780109228
% es.Ex (V/m) @ t=2.7
0.37004553103724014
% es.Ey (V/m) @ t=2.7
0.29099428449363707
% es.Ez (V/m) @ t=2.7
-0.4866860780109086
% es.tEx (V/m) @ t=2.7
0.37004553103723925
% es.tEy (V/m) @ t=2.7
0
% es.tEz (V/m) @ t=2.7
-0.4866860780109228
% V (V) @ t=2.7
0.021243952988729824
% es.normE (V/m) @ t=2.8
0.7644601894874123
% es.EX (V/m) @ t=2.8
0.38591735750811473
% es.EY (V/m) @ t=2.8
0.30347497864757145
% es.EZ (V/m) @ t=2.8
-0.5075608330364778
% es.tEX (V/m) @ t=2.8
0.3859173575081236
% es.tEY (V/m) @ t=2.8
0
% es.tEZ (V/m) @ t=2.8
-0.5075608330364876
% es.Ex (V/m) @ t=2.8
0.38591735750811473
% es.Ey (V/m) @ t=2.8
0.30347497864757145
% es.Ez (V/m) @ t=2.8
-0.5075608330364778
% es.tEx (V/m) @ t=2.8
0.3859173575081236
% es.tEy (V/m) @ t=2.8
0
% es.tEz (V/m) @ t=2.8
-0.5075608330364876
% V (V) @ t=2.8
0.022155190427693434
% es.normE (V/m) @ t=2.9
0.7971852619698016
% es.EX (V/m) @ t=2.9
0.4024377944888613
% es.EY (V/m) @ t=2.9
0.31646602009894487
% es.EZ (V/m) @ t=2.9
-0.529288623978657
% es.tEX (V/m) @ t=2.9
0.40243779448886574
% es.tEY (V/m) @ t=2.9
0
% es.tEZ (V/m) @ t=2.9
-0.5292886239786565
% es.Ex (V/m) @ t=2.9
0.4024377944888613
% es.Ey (V/m) @ t=2.9
0.31646602009894487
% es.Ez (V/m) @ t=2.9
-0.529288623978657
% es.tEx (V/m) @ t=2.9
0.40243779448886574
% es.tEy (V/m) @ t=2.9
0
% es.tEz (V/m) @ t=2.9
-0.5292886239786565
% V (V) @ t=2.9
0.02310363360220877
% es.normE (V/m) @ t=3
0.8311078526617562
% es.EX (V/m) @ t=3
0.41956273928532895
% es.EY (V/m) @ t=3
0.3299325196234566
% es.EZ (V/m) @ t=3
-0.5518114610686498
% es.tEX (V/m) @ t=3
0.41956273928532717
% es.tEY (V/m) @ t=3
0
% es.tEZ (V/m) @ t=3
-0.5518114610686471
% es.Ex (V/m) @ t=3
0.41956273928532895
% es.Ey (V/m) @ t=3
0.3299325196234566
% es.Ez (V/m) @ t=3
-0.5518114610686498
% es.tEx (V/m) @ t=3
0.41956273928532717
% es.tEy (V/m) @ t=3
0
% es.tEz (V/m) @ t=3
-0.5518114610686471
% V (V) @ t=3
0.024086771908516193
% es.normE (V/m) @ t=3.1
0.8662279615632126
% es.EX (V/m) @ t=3.1
0.4372921918975372
% es.EY (V/m) @ t=3.1
0.3438744772210498
% es.EZ (V/m) @ t=3.1
-0.575129344306414
% es.tEX (V/m) @ t=3.1
0.4372921918975434
% es.tEY (V/m) @ t=3.1
0
% es.tEZ (V/m) @ t=3.1
-0.5751293443064114
% es.Ex (V/m) @ t=3.1
0.4372921918975372
% es.Ey (V/m) @ t=3.1
0.3438744772210498
% es.Ez (V/m) @ t=3.1
-0.575129344306414
% es.tEx (V/m) @ t=3.1
0.4372921918975434
% es.tEy (V/m) @ t=3.1
0
% es.tEz (V/m) @ t=3.1
-0.5751293443064114
% V (V) @ t=3.1
0.025104605346615714
% es.normE (V/m) @ t=3.2
0.9025455886742307
% es.EX (V/m) @ t=3.2
0.455626152325463
% es.EY (V/m) @ t=3.2
0.3582918928917813
% es.EZ (V/m) @ t=3.2
-0.599242273692008
% es.tEX (V/m) @ t=3.2
0.4556261523254612
% es.tEY (V/m) @ t=3.2
0
% es.tEZ (V/m) @ t=3.2
-0.599242273692008
% es.Ex (V/m) @ t=3.2
0.455626152325463
% es.Ey (V/m) @ t=3.2
0.3582918928917813
% es.Ez (V/m) @ t=3.2
-0.599242273692008
% es.tEx (V/m) @ t=3.2
0.4556261523254612
% es.tEy (V/m) @ t=3.2
0
% es.tEz (V/m) @ t=3.2
-0.599242273692008
% V (V) @ t=3.2
0.026157133916507338
% es.normE (V/m) @ t=3.3
0.9401342226775954
% es.EX (V/m) @ t=3.3
0.474601711474536
% es.EY (V/m) @ t=3.3
0.3732139598028841
% es.EZ (V/m) @ t=3.3
-0.6241990295983761
% es.tEX (V/m) @ t=3.3
0.47460171147453956
% es.tEY (V/m) @ t=3.3
0
% es.tEZ (V/m) @ t=3.3
-0.6241990295983761
% es.Ex (V/m) @ t=3.3
0.474601711474536
% es.Ey (V/m) @ t=3.3
0.3732139598028841
% es.Ez (V/m) @ t=3.3
-0.6241990295983761
% es.tEx (V/m) @ t=3.3
0.47460171147453956
% es.tEy (V/m) @ t=3.3
0
% es.tEz (V/m) @ t=3.3
-0.6241990295983761
% V (V) @ t=3.3
0.027246484321031467
% es.normE (V/m) @ t=3.4
0.9791537026833517
% es.EX (V/m) @ t=3.4
0.49429954268220655
% es.EY (V/m) @ t=3.4
0.388704173579681
% es.EZ (V/m) @ t=3.4
-0.650105710149842
% es.tEX (V/m) @ t=3.4
0.4942995426822048
% es.tEY (V/m) @ t=3.4
0
% es.tEZ (V/m) @ t=3.4
-0.6501057101498429
% es.Ex (V/m) @ t=3.4
0.49429954268220655
% es.Ey (V/m) @ t=3.4
0.388704173579681
% es.Ez (V/m) @ t=3.4
-0.650105710149842
% es.tEx (V/m) @ t=3.4
0.4942995426822048
% es.tEy (V/m) @ t=3.4
0
% es.tEz (V/m) @ t=3.4
-0.6501057101498429
% V (V) @ t=3.4
0.028377282174310747
% es.normE (V/m) @ t=3.5
1.019456658550396
% es.EX (V/m) @ t=3.5
0.514645265897574
% es.EY (V/m) @ t=3.5
0.4047039918587352
% es.EZ (V/m) @ t=3.5
-0.6768644938835253
% es.tEX (V/m) @ t=3.5
0.5146452658975811
% es.tEY (V/m) @ t=3.5
0
% es.tEZ (V/m) @ t=3.5
-0.6768644938835173
% es.Ex (V/m) @ t=3.5
0.514645265897574
% es.Ey (V/m) @ t=3.5
0.4047039918587352
% es.Ez (V/m) @ t=3.5
-0.6768644938835253
% es.tEx (V/m) @ t=3.5
0.5146452658975811
% es.tEy (V/m) @ t=3.5
0
% es.tEz (V/m) @ t=3.5
-0.6768644938835173
% V (V) @ t=3.5
0.029545262704057662
% es.normE (V/m) @ t=3.6
1.0610430902787826
% es.EX (V/m) @ t=3.6
0.5356388811206347
% es.EY (V/m) @ t=3.6
0.42121341463999507
% es.EZ (V/m) @ t=3.6
-0.7044753807993702
% es.tEX (V/m) @ t=3.6
0.5356388811206383
% es.tEY (V/m) @ t=3.6
0
% es.tEZ (V/m) @ t=3.6
-0.7044753807993729
% es.Ex (V/m) @ t=3.6
0.5356388811206347
% es.Ey (V/m) @ t=3.6
0.42121341463999507
% es.Ez (V/m) @ t=3.6
-0.7044753807993702
% es.tEx (V/m) @ t=3.6
0.5356388811206383
% es.tEy (V/m) @ t=3.6
0
% es.tEz (V/m) @ t=3.6
-0.7044753807993729
% V (V) @ t=3.6
0.030750425910272227
% es.normE (V/m) @ t=3.7
1.1039129978687336
% es.EX (V/m) @ t=3.7
0.557280388351387
% es.EY (V/m) @ t=3.7
0.4382324419235246
% es.EZ (V/m) @ t=3.7
-0.7329383708974708
% es.tEX (V/m) @ t=3.7
0.5572803883513888
% es.tEY (V/m) @ t=3.7
0
% es.tEZ (V/m) @ t=3.7
-0.732938370897477
% es.Ex (V/m) @ t=3.7
0.557280388351387
% es.Ey (V/m) @ t=3.7
0.4382324419235246
% es.Ez (V/m) @ t=3.7
-0.7329383708974708
% es.tEx (V/m) @ t=3.7
0.5572803883513888
% es.tEy (V/m) @ t=3.7
0
% es.tEz (V/m) @ t=3.7
-0.732938370897477
% V (V) @ t=3.7
0.03199277179295445
% es.normE (V/m) @ t=3.8
1.148066381320298
% es.EX (V/m) @ t=3.8
0.5795697875898362
% es.EY (V/m) @ t=3.8
0.45576107370923147
% es.EZ (V/m) @ t=3.8
-0.7622534641777508
% es.tEX (V/m) @ t=3.8
0.5795697875898522
% es.tEY (V/m) @ t=3.8
0
% es.tEZ (V/m) @ t=3.8
-0.7622534641777463
% es.Ex (V/m) @ t=3.8
0.5795697875898362
% es.Ey (V/m) @ t=3.8
0.45576107370923147
% es.Ez (V/m) @ t=3.8
-0.7622534641777508
% es.tEx (V/m) @ t=3.8
0.5795697875898522
% es.tEy (V/m) @ t=3.8
0
% es.tEz (V/m) @ t=3.8
-0.7622534641777463
% V (V) @ t=3.8
0.0332723003521043
% es.normE (V/m) @ t=3.9
1.1932311099850224
% es.EX (V/m) @ t=3.9
0.6023698296014697
% es.EY (V/m) @ t=3.9
0.47369095977437325
% es.EZ (V/m) @ t=3.9
-0.7922401787555016
% es.tEX (V/m) @ t=3.9
0.6023698296014715
% es.tEY (V/m) @ t=3.9
0
% es.tEZ (V/m) @ t=3.9
-0.7922401787555096
% es.Ex (V/m) @ t=3.9
0.6023698296014697
% es.Ey (V/m) @ t=3.9
0.47369095977437325
% es.Ez (V/m) @ t=3.9
-0.7922401787555016
% es.tEx (V/m) @ t=3.9
0.6023698296014715
% es.tEy (V/m) @ t=3.9
0
% es.tEz (V/m) @ t=3.9
-0.7922401787555096
% V (V) @ t=3.9
0.034581175334952814
% es.normE (V/m) @ t=4
1.2394185582706998
% es.EX (V/m) @ t=4
0.6256862510749475
% es.EY (V/m) @ t=4
0.4920266288982198
% es.EZ (V/m) @ t=4
-0.8229060583404317
% es.tEX (V/m) @ t=4
0.6256862510749492
% es.tEY (V/m) @ t=4
0
% es.tEZ (V/m) @ t=4
-0.8229060583404468
% es.Ex (V/m) @ t=4
0.6256862510749475
% es.Ey (V/m) @ t=4
0.4920266288982198
% es.Ez (V/m) @ t=4
-0.8229060583404317
% es.tEx (V/m) @ t=4
0.6256862510749492
% es.tEy (V/m) @ t=4
0
% es.tEz (V/m) @ t=4
-0.8229060583404468
% V (V) @ t=4
0.03591972427806023
% es.normE (V/m) @ t=4.1
1.286673225413551
% es.EX (V/m) @ t=4.1
0.649541495223275
% es.EY (V/m) @ t=4.1
0.5107857986814928
% es.EZ (V/m) @ t=4.1
-0.8542806156172409
% es.tEX (V/m) @ t=4.1
0.649541495223291
% es.tEY (V/m) @ t=4.1
0
% es.tEZ (V/m) @ t=4.1
-0.854280615617256
% es.Ex (V/m) @ t=4.1
0.649541495223275
% es.Ey (V/m) @ t=4.1
0.5107857986814928
% es.Ez (V/m) @ t=4.1
-0.8542806156172409
% es.tEx (V/m) @ t=4.1
0.649541495223291
% es.tEy (V/m) @ t=4.1
0
% es.tEz (V/m) @ t=4.1
-0.854280615617256
% V (V) @ t=4.1
0.037289228577938024
% es.normE (V/m) @ t=4.2
1.3349654565847453
% es.EX (V/m) @ t=4.2
0.6739206056180844
% es.EY (V/m) @ t=4.2
0.5299566619009504
% es.EZ (V/m) @ t=4.2
-0.886344182976166
% es.tEX (V/m) @ t=4.2
0.6739206056180826
% es.tEY (V/m) @ t=4.2
0
% es.tEZ (V/m) @ t=4.2
-0.886344182976174
% es.Ex (V/m) @ t=4.2
0.6739206056180844
% es.Ey (V/m) @ t=4.2
0.5299566619009504
% es.Ez (V/m) @ t=4.2
-0.886344182976166
% es.tEx (V/m) @ t=4.2
0.6739206056180826
% es.tEy (V/m) @ t=4.2
0
% es.tEz (V/m) @ t=4.2
-0.886344182976174
% V (V) @ t=4.2
0.038688834296465115
% es.normE (V/m) @ t=4.3
1.3842655969556459
% es.EX (V/m) @ t=4.3
0.6988086258309476
% es.EY (V/m) @ t=4.3
0.5495274113333544
% es.EZ (V/m) @ t=4.3
-0.9190770928074423
% es.tEX (V/m) @ t=4.3
0.6988086258309654
% es.tEY (V/m) @ t=4.3
0
% es.tEZ (V/m) @ t=4.3
-0.9190770928074343
% es.Ex (V/m) @ t=4.3
0.6988086258309476
% es.Ey (V/m) @ t=4.3
0.5495274113333544
% es.Ez (V/m) @ t=4.3
-0.9190770928074423
% es.tEx (V/m) @ t=4.3
0.6988086258309654
% es.tEy (V/m) @ t=4.3
0
% es.tEz (V/m) @ t=4.3
-0.9190770928074343
% V (V) @ t=4.3
0.04011768749552057
% es.normE (V/m) @ t=4.4
1.434393291497169
% es.EX (V/m) @ t=4.4
0.7241143372730825
% es.EY (V/m) @ t=4.4
0.5694268752597296
% es.EZ (V/m) @ t=4.4
-0.9523593351651582
% es.tEX (V/m) @ t=4.4
0.7241143372730878
% es.tEY (V/m) @ t=4.4
0
% es.tEZ (V/m) @ t=4.4
-0.9523593351651449
% es.Ex (V/m) @ t=4.4
0.7241143372730825
% es.Ey (V/m) @ t=4.4
0.5694268752597296
% es.Ez (V/m) @ t=4.4
-0.9523593351651582
% es.tEx (V/m) @ t=4.4
0.7241143372730878
% es.tEy (V/m) @ t=4.4
0
% es.tEz (V/m) @ t=4.4
-0.9523593351651449
% V (V) @ t=4.4
0.04157049406045018
% es.normE (V/m) @ t=4.5
1.4845359467773038
% es.EX (V/m) @ t=4.5
0.7494265757515457
% es.EY (V/m) @ t=4.5
0.5893348277860717
% es.EZ (V/m) @ t=4.5
-0.9856499300030741
% es.tEX (V/m) @ t=4.5
0.749426575751551
% es.tEY (V/m) @ t=4.5
0
% es.tEZ (V/m) @ t=4.5
-0.9856499300030741
% es.Ex (V/m) @ t=4.5
0.7494265757515457
% es.Ey (V/m) @ t=4.5
0.5893348277860717
% es.Ez (V/m) @ t=4.5
-0.9856499300030741
% es.tEx (V/m) @ t=4.5
0.749426575751551
% es.tEy (V/m) @ t=4.5
0
% es.tEz (V/m) @ t=4.5
-0.9856499300030741
% V (V) @ t=4.5
0.04302333183151005
% es.normE (V/m) @ t=4.6
1.535088743823077
% es.EX (V/m) @ t=4.6
0.7749453739321339
% es.EY (V/m) @ t=4.6
0.6094068149229841
% es.EZ (V/m) @ t=4.6
-1.0192120827354092
% es.tEX (V/m) @ t=4.6
0.7749453739321339
% es.tEY (V/m) @ t=4.6
0
% es.tEZ (V/m) @ t=4.6
-1.0192120827354074
% es.Ex (V/m) @ t=4.6
0.7749453739321339
% es.Ey (V/m) @ t=4.6
0.6094068149229841
% es.Ez (V/m) @ t=4.6
-1.0192120827354092
% es.tEx (V/m) @ t=4.6
0.7749453739321339
% es.tEy (V/m) @ t=4.6
0
% es.tEz (V/m) @ t=4.6
-1.0192120827354074
% V (V) @ t=4.6
0.04448786408128354
% es.normE (V/m) @ t=4.7
1.5859465224547353
% es.EX (V/m) @ t=4.7
0.8006175657349921
% es.EY (V/m) @ t=4.7
0.6296012860374134
% es.EZ (V/m) @ t=4.7
-1.052975851203927
% es.tEX (V/m) @ t=4.7
0.8006175657349939
% es.tEY (V/m) @ t=4.7
0
% es.tEZ (V/m) @ t=4.7
-1.0529758512039251
% es.Ex (V/m) @ t=4.7
0.8006175657349921
% es.Ey (V/m) @ t=4.7
0.6296012860374134
% es.Ez (V/m) @ t=4.7
-1.052975851203927
% es.tEx (V/m) @ t=4.7
0.8006175657349939
% es.tEy (V/m) @ t=4.7
0
% es.tEz (V/m) @ t=4.7
-1.0529758512039251
% V (V) @ t=4.7
0.04596101220876543
% es.normE (V/m) @ t=4.8
1.6370041224988805
% es.EX (V/m) @ t=4.8
0.8263899850802652
% es.EY (V/m) @ t=4.8
0.649876690496292
% es.EZ (V/m) @ t=4.8
-1.0868712932501676
% es.tEX (V/m) @ t=4.8
0.8263899850802598
% es.tEY (V/m) @ t=4.8
0
% es.tEZ (V/m) @ t=4.8
-1.0868712932502085
% es.Ex (V/m) @ t=4.8
0.8263899850802652
% es.Ey (V/m) @ t=4.8
0.649876690496292
% es.Ez (V/m) @ t=4.8
-1.0868712932501676
% es.tEx (V/m) @ t=4.8
0.8263899850802598
% es.tEy (V/m) @ t=4.8
0
% es.tEz (V/m) @ t=4.8
-1.0868712932502085
% V (V) @ t=4.8
0.04743969761295053
% es.normE (V/m) @ t=4.9
1.6881563837904414
% es.EX (V/m) @ t=4.9
0.8522094658880945
% es.EY (V/m) @ t=4.9
0.6701914776665667
% es.EZ (V/m) @ t=4.9
-1.120828466715853
% es.tEX (V/m) @ t=4.9
0.8522094658881034
% es.tEY (V/m) @ t=4.9
0
% es.tEZ (V/m) @ t=4.9
-1.1208284667158388
% es.Ex (V/m) @ t=4.9
0.8522094658880945
% es.Ey (V/m) @ t=4.9
0.6701914776665667
% es.Ez (V/m) @ t=4.9
-1.120828466715853
% es.tEx (V/m) @ t=4.9
0.8522094658881034
% es.tEy (V/m) @ t=4.9
0
% es.tEz (V/m) @ t=4.9
-1.1208284667158388
% V (V) @ t=4.9
0.04892084169283368
% es.normE (V/m) @ t=5
1.738705598401205
% es.EX (V/m) @ t=5
0.8777254496110309
% es.EY (V/m) @ t=5
0.6902645433491266
% es.EZ (V/m) @ t=5
-1.1543866903960138
% es.tEX (V/m) @ t=5
0.8777254496110398
% es.tEY (V/m) @ t=5
0
% es.tEZ (V/m) @ t=5
-1.1543866903960236
% es.Ex (V/m) @ t=5
0.8777254496110309
% es.Ey (V/m) @ t=5
0.6902645433491266
% es.Ez (V/m) @ t=5
-1.1543866903960138
% es.tEx (V/m) @ t=5
0.8777254496110398
% es.tEy (V/m) @ t=5
0
% es.tEz (V/m) @ t=5
-1.1543866903960236
% V (V) @ t=5
0.05038487542855785
% es.normE (V/m) @ t=5.1
1.7883933449768434
% es.EX (V/m) @ t=5.1
0.9028078502831036
% es.EY (V/m) @ t=5.1
0.7099923769249727
% es.EZ (V/m) @ t=5.1
-1.1873749583653872
% es.tEX (V/m) @ t=5.1
0.902807850283109
% es.tEY (V/m) @ t=5.1
0
% es.tEZ (V/m) @ t=5.1
-1.1873749583653854
% es.Ex (V/m) @ t=5.1
0.9028078502831036
% es.Ey (V/m) @ t=5.1
0.7099923769249727
% es.Ez (V/m) @ t=5.1
-1.1873749583653872
% es.tEx (V/m) @ t=5.1
0.902807850283109
% es.tEy (V/m) @ t=5.1
0
% es.tEz (V/m) @ t=5.1
-1.1873749583653854
% V (V) @ t=5.1
0.05182445500974517
% es.normE (V/m) @ t=5.2
1.8373026412714957
% es.EX (V/m) @ t=5.2
0.9274979460355581
% es.EY (V/m) @ t=5.2
0.7294095038224881
% es.EZ (V/m) @ t=5.2
-1.2198474171534368
% es.tEX (V/m) @ t=5.2
0.9274979460355635
% es.tEY (V/m) @ t=5.2
0
% es.tEZ (V/m) @ t=5.2
-1.21984741715346
% es.Ex (V/m) @ t=5.2
0.9274979460355581
% es.Ey (V/m) @ t=5.2
0.7294095038224881
% es.Ez (V/m) @ t=5.2
-1.2198474171534368
% es.tEx (V/m) @ t=5.2
0.9274979460355635
% es.tEy (V/m) @ t=5.2
0
% es.tEz (V/m) @ t=5.2
-1.21984741715346
% V (V) @ t=5.2
0.05324173876897045
% es.normE (V/m) @ t=5.3
1.8852507144503465
% es.EX (V/m) @ t=5.3
0.9517036179514236
% es.EY (V/m) @ t=5.3
0.748442996383023
% es.EZ (V/m) @ t=5.3
-1.2516829451129805
% es.tEX (V/m) @ t=5.3