% Model:              1x1--2 - Copy1.mph
% Version:            COMSOL 6.1.0.252
% Date:               Apr 3 2023, 15:05
% Dimension:          0
% Nodes:              14017
% Expressions:        14017
% Description:        Electric field norm, Electric field, X component, Electric field, Y component, Electric field, Z component, Tangential electric field, X component, Tangential electric field, Y component, Tangential electric field, Z component, Electric field, x component, Electric field, y component, Electric field, z component, Tangential electric field, x component, Tangential electric field, y component, Tangential electric field, z component, Electric potential
% Length unit:        mm
% x
1.33
% y
12.2
% z
1.66
% es.normE (V/m) @ t=0
0.27014727779813597
% es.EX (V/m) @ t=0
0.16584931975964423
% es.EY (V/m) @ t=0
0.11282067043428312
% es.EZ (V/m) @ t=0
-0.15424122134964025
% es.tEX (V/m) @ t=0
0.16584931975964423
% es.tEY (V/m) @ t=0
0
% es.tEZ (V/m) @ t=0
-0.15424122134964158
% es.Ex (V/m) @ t=0
0.16584931975964423
% es.Ey (V/m) @ t=0
0.11282067043428312
% es.Ez (V/m) @ t=0
-0.15424122134964025
% es.tEx (V/m) @ t=0
0.16584931975964423
% es.tEy (V/m) @ t=0
0
% es.tEz (V/m) @ t=0
-0.15424122134964158
% V (V) @ t=0
0.006597193532683168
% es.normE (V/m) @ t=0.1
0.274349037552817
% es.EX (V/m) @ t=0.1
0.16842889798440552
% es.EY (V/m) @ t=0.1
0.11457541097384605
% es.EZ (V/m) @ t=0.1
-0.15664022612831063
% es.tEX (V/m) @ t=0.1
0.16842889798440908
% es.tEY (V/m) @ t=0.1
0
% es.tEZ (V/m) @ t=0.1
-0.15664022612831197
% es.Ex (V/m) @ t=0.1
0.16842889798440552
% es.Ey (V/m) @ t=0.1
0.11457541097384605
% es.Ez (V/m) @ t=0.1
-0.15664022612831063
% es.tEx (V/m) @ t=0.1
0.16842889798440908
% es.tEy (V/m) @ t=0.1
0
% es.tEz (V/m) @ t=0.1
-0.15664022612831197
% V (V) @ t=0.1
0.006699806341678526
% es.normE (V/m) @ t=0.2
0.2874044735061622
% es.EX (V/m) @ t=0.2
0.1764439518212928
% es.EY (V/m) @ t=0.2
0.12002767144920667
% es.EZ (V/m) @ t=0.2
-0.16409425815931877
% es.tEX (V/m) @ t=0.2
0.1764439518212928
% es.tEY (V/m) @ t=0.2
0
% es.tEZ (V/m) @ t=0.2
-0.164094258159321
% es.Ex (V/m) @ t=0.2
0.1764439518212928
% es.Ey (V/m) @ t=0.2
0.12002767144920667
% es.Ez (V/m) @ t=0.2
-0.16409425815931877
% es.tEx (V/m) @ t=0.2
0.1764439518212928
% es.tEy (V/m) @ t=0.2
0
% es.tEz (V/m) @ t=0.2
-0.164094258159321
% V (V) @ t=0.2
0.00701863346894051
% es.normE (V/m) @ t=0.3
0.30087716522923436
% es.EX (V/m) @ t=0.3
0.18471512410729662
% es.EY (V/m) @ t=0.3
0.12565423258683772
% es.EZ (V/m) @ t=0.3
-0.1717865230086537
% es.tEX (V/m) @ t=0.3
0.18471512410729485
% es.tEY (V/m) @ t=0.3
0
% es.tEZ (V/m) @ t=0.3
-0.17178652300865505
% es.Ex (V/m) @ t=0.3
0.18471512410729662
% es.Ey (V/m) @ t=0.3
0.12565423258683772
% es.Ez (V/m) @ t=0.3
-0.1717865230086537
% es.tEx (V/m) @ t=0.3
0.18471512410729485
% es.tEy (V/m) @ t=0.3
0
% es.tEz (V/m) @ t=0.3
-0.17178652300865505
% V (V) @ t=0.3
0.007347645607775384
% es.normE (V/m) @ t=0.4
0.315111525534331
% es.EX (V/m) @ t=0.4
0.19345390588732325
% es.EY (V/m) @ t=0.4
0.131598882270358
% es.EZ (V/m) @ t=0.4
-0.1799136643584327
% es.tEX (V/m) @ t=0.4
0.19345390588732503
% es.tEY (V/m) @ t=0.4
0
% es.tEZ (V/m) @ t=0.4
-0.17991366435843137
% es.Ex (V/m) @ t=0.4
0.19345390588732325
% es.Ey (V/m) @ t=0.4
0.131598882270358
% es.Ez (V/m) @ t=0.4
-0.1799136643584327
% es.tEx (V/m) @ t=0.4
0.19345390588732503
% es.tEy (V/m) @ t=0.4
0
% es.tEz (V/m) @ t=0.4
-0.17991366435843137
% V (V) @ t=0.4
0.0076952587266155585
% es.normE (V/m) @ t=0.5
0.33013626162783816
% es.EX (V/m) @ t=0.5
0.2026780409709339
% es.EY (V/m) @ t=0.5
0.13787349069302945
% es.EZ (V/m) @ t=0.5
-0.18849207355977882
% es.tEX (V/m) @ t=0.5
0.20267804097093922
% es.tEY (V/m) @ t=0.5
0
% es.tEZ (V/m) @ t=0.5
-0.18849207355977882
% es.Ex (V/m) @ t=0.5
0.2026780409709339
% es.Ey (V/m) @ t=0.5
0.13787349069302945
% es.Ez (V/m) @ t=0.5
-0.18849207355977882
% es.tEx (V/m) @ t=0.5
0.20267804097093922
% es.tEy (V/m) @ t=0.5
0
% es.tEz (V/m) @ t=0.5
-0.18849207355977882
% V (V) @ t=0.5
0.008062186626657565
% es.normE (V/m) @ t=0.6
0.3463302673759861
% es.EX (V/m) @ t=0.6
0.21262021604800196
% es.EY (V/m) @ t=0.6
0.14463621923311365
% es.EZ (V/m) @ t=0.6
-0.19773808152506156
% es.tEX (V/m) @ t=0.6
0.2126202160480002
% es.tEY (V/m) @ t=0.6
0
% es.tEZ (V/m) @ t=0.6
-0.1977380815250651
% es.Ex (V/m) @ t=0.6
0.21262021604800196
% es.Ey (V/m) @ t=0.6
0.14463621923311365
% es.Ez (V/m) @ t=0.6
-0.19773808152506156
% es.tEx (V/m) @ t=0.6
0.2126202160480002
% es.tEy (V/m) @ t=0.6
0
% es.tEz (V/m) @ t=0.6
-0.1977380815250651
% V (V) @ t=0.6
0.008457690201481549
% es.normE (V/m) @ t=0.7
0.3625242731246336
% es.EX (V/m) @ t=0.7
0.22256239112507004
% es.EY (V/m) @ t=0.7
0.15139894777319451
% es.EZ (V/m) @ t=0.7
-0.20698408949034963
% es.tEX (V/m) @ t=0.7
0.22256239112507004
% es.tEY (V/m) @ t=0.7
0
% es.tEZ (V/m) @ t=0.7
-0.20698408949034963
% es.Ex (V/m) @ t=0.7
0.22256239112507004
% es.Ey (V/m) @ t=0.7
0.15139894777319451
% es.Ez (V/m) @ t=0.7
-0.20698408949034963
% es.tEx (V/m) @ t=0.7
0.22256239112507004
% es.tEy (V/m) @ t=0.7
0
% es.tEz (V/m) @ t=0.7
-0.20698408949034963
% V (V) @ t=0.7
0.00885319377630553
% es.normE (V/m) @ t=0.8
0.37931219809827565
% es.EX (V/m) @ t=0.8
0.23286895879184044
% es.EY (V/m) @ t=0.8
0.1584099380081212
% es.EZ (V/m) @ t=0.8
-0.21656919530505814
% es.tEX (V/m) @ t=0.8
0.23286895879184044
% es.tEY (V/m) @ t=0.8
0
% es.tEZ (V/m) @ t=0.8
-0.21656919530505725
% es.Ex (V/m) @ t=0.8
0.23286895879184044
% es.Ey (V/m) @ t=0.8
0.1584099380081212
% es.Ez (V/m) @ t=0.8
-0.21656919530505814
% es.tEx (V/m) @ t=0.8
0.23286895879184044
% es.tEy (V/m) @ t=0.8
0
% es.tEz (V/m) @ t=0.8
-0.21656919530505725
% V (V) @ t=0.8
0.009263177096214489
% es.normE (V/m) @ t=0.9
0.3974482638761091
% es.EX (V/m) @ t=0.9
0.24400266337939414
% es.EY (V/m) @ t=0.9
0.16598445895040626
% es.EZ (V/m) @ t=0.9
-0.22692402135820355
% es.tEX (V/m) @ t=0.9
0.2440026633793959
% es.tEY (V/m) @ t=0.9
0
% es.tEZ (V/m) @ t=0.9
-0.22692402135820622
% es.Ex (V/m) @ t=0.9
0.24400266337939414
% es.Ey (V/m) @ t=0.9
0.16598445895040626
% es.Ez (V/m) @ t=0.9
-0.22692402135820355
% es.tEx (V/m) @ t=0.9
0.2440026633793959
% es.tEy (V/m) @ t=0.9
0
% es.tEz (V/m) @ t=0.9
-0.22692402135820622
% V (V) @ t=0.9
0.009706028076175172
% es.normE (V/m) @ t=1
0.4155843296548997
% es.EX (V/m) @ t=1
0.2551363679669336
% es.EY (V/m) @ t=1
0.1735589798926871
% es.EZ (V/m) @ t=1
-0.23727884741135785
% es.tEX (V/m) @ t=1
0.2551363679669354
% es.tEY (V/m) @ t=1
0
% es.tEZ (V/m) @ t=1
-0.23727884741135696
% es.Ex (V/m) @ t=1
0.2551363679669336
% es.Ey (V/m) @ t=1
0.1735589798926871
% es.Ez (V/m) @ t=1
-0.23727884741135785
% es.tEx (V/m) @ t=1
0.2551363679669354
% es.tEy (V/m) @ t=1
0
% es.tEz (V/m) @ t=1
-0.23727884741135696
% V (V) @ t=1
0.010148879056135852
% es.normE (V/m) @ t=1.1
0.43490748385205674
% es.EX (V/m) @ t=1.1
0.26699826289989304
% es.EY (V/m) @ t=1.1
0.18162984409256544
% es.EZ (V/m) @ t=1.1
-0.24831143991477234
% es.tEX (V/m) @ t=1.1
0.26699826289989304
% es.tEY (V/m) @ t=1.1
0
% es.tEZ (V/m) @ t=1.1
-0.24831143991477056
% es.Ex (V/m) @ t=1.1
0.26699826289989304
% es.Ey (V/m) @ t=1.1
0.18162984409256544
% es.Ez (V/m) @ t=1.1
-0.24831143991477234
% es.tEx (V/m) @ t=1.1
0.26699826289989304
% es.tEy (V/m) @ t=1.1
0
% es.tEz (V/m) @ t=1.1
-0.24831143991477056
% V (V) @ t=1.1
0.01062065691208748
% es.normE (V/m) @ t=1.2
0.45525626452264134
% es.EX (V/m) @ t=1.2
0.27948930329454313
% es.EY (V/m) @ t=1.2
0.19012954137149074
% es.EZ (V/m) @ t=1.2
-0.2599296123959647
% es.tEX (V/m) @ t=1.2
0.2794893032945396
% es.tEY (V/m) @ t=1.2
0
% es.tEZ (V/m) @ t=1.2
-0.25992961239596823
% es.Ex (V/m) @ t=1.2
0.27948930329454313
% es.Ey (V/m) @ t=1.2
0.19012954137149074
% es.Ez (V/m) @ t=1.2
-0.2599296123959647
% es.tEx (V/m) @ t=1.2
0.2794893032945396
% es.tEy (V/m) @ t=1.2
0
% es.tEz (V/m) @ t=1.2
-0.25992961239596823
% V (V) @ t=1.2
0.011117427152057335
% es.normE (V/m) @ t=1.3
0.47560504520167285
% es.EX (V/m) @ t=1.3
0.2919803436891879
% es.EY (V/m) @ t=1.3
0.19862923865042847
% es.EZ (V/m) @ t=1.3
-0.27154778487715525
% es.tEX (V/m) @ t=1.3
0.29198034368919146
% es.tEY (V/m) @ t=1.3
0
% es.tEZ (V/m) @ t=1.3
-0.27154778487715525
% es.Ex (V/m) @ t=1.3
0.2919803436891879
% es.Ey (V/m) @ t=1.3
0.19862923865042847
% es.Ez (V/m) @ t=1.3
-0.27154778487715525
% es.tEx (V/m) @ t=1.3
0.29198034368919146
% es.tEy (V/m) @ t=1.3
0
% es.tEz (V/m) @ t=1.3
-0.27154778487715525
% V (V) @ t=1.3
0.01161419739202719
% es.normE (V/m) @ t=1.4
0.497887849519312
% es.EX (V/m) @ t=1.4
0.3056574402274048
% es.EY (V/m) @ t=1.4
0.20793790666205325
% es.EZ (V/m) @ t=1.4
-0.28427018292767947
% es.tEX (V/m) @ t=1.4
0.3056574402273995
% es.tEY (V/m) @ t=1.4
0
% es.tEZ (V/m) @ t=1.4
-0.2842701829276777
% es.Ex (V/m) @ t=1.4
0.3056574402274048
% es.Ey (V/m) @ t=1.4
0.20793790666205325
% es.Ez (V/m) @ t=1.4
-0.28427018292767947
% es.tEx (V/m) @ t=1.4
0.3056574402273995
% es.tEy (V/m) @ t=1.4
0
% es.tEz (V/m) @ t=1.4
-0.2842701829276777
% V (V) @ t=1.4
0.01215806136942202
% es.normE (V/m) @ t=1.5
0.5207576775163694
% es.EX (V/m) @ t=1.5
0.3196945339216981
% es.EY (V/m) @ t=1.5
0.2174921171504849
% es.EZ (V/m) @ t=1.5
-0.2973277405461383
% es.tEX (V/m) @ t=1.5
0.319694533921691
% es.tEY (V/m) @ t=1.5
0
% es.tEZ (V/m) @ t=1.5
-0.29732774054613564
% es.Ex (V/m) @ t=1.5
0.3196945339216981
% es.Ey (V/m) @ t=1.5
0.2174921171504849
% es.Ez (V/m) @ t=1.5
-0.2973277405461383
% es.tEx (V/m) @ t=1.5
0.319694533921691
% es.tEy (V/m) @ t=1.5
0
% es.tEz (V/m) @ t=1.5
-0.29732774054613564
% V (V) @ t=1.5
0.012716219452229945
% es.normE (V/m) @ t=1.6
0.5436275055415842
% es.EX (V/m) @ t=1.6
0.33373162761599495
% es.EY (V/m) @ t=1.6
0.22704632763890853
% es.EZ (V/m) @ t=1.6
-0.3103852981645847
% es.tEX (V/m) @ t=1.6
0.33373162761600206
% es.tEY (V/m) @ t=1.6
0
% es.tEZ (V/m) @ t=1.6
-0.31038529816459004
% es.Ex (V/m) @ t=1.6
0.33373162761599495
% es.Ey (V/m) @ t=1.6
0.22704632763890853
% es.Ez (V/m) @ t=1.6
-0.3103852981645847
% es.tEx (V/m) @ t=1.6
0.33373162761600206
% es.tEy (V/m) @ t=1.6
0
% es.tEz (V/m) @ t=1.6
-0.31038529816459004
% V (V) @ t=1.6
0.01327437753503787
% es.normE (V/m) @ t=1.7
0.5680881550368915
% es.EX (V/m) @ t=1.7
0.3487478893228477
% es.EY (V/m) @ t=1.7
0.23726240332480963
% es.EZ (V/m) @ t=1.7
-0.3243511582585983
% es.tEX (V/m) @ t=1.7
0.3487478893228477
% es.tEY (V/m) @ t=1.7
0
% es.tEZ (V/m) @ t=1.7
-0.32435115825860095
% es.Ex (V/m) @ t=1.7
0.3487478893228477
% es.Ey (V/m) @ t=1.7
0.23726240332480963
% es.Ez (V/m) @ t=1.7
-0.3243511582585983
% es.tEx (V/m) @ t=1.7
0.3487478893228477
% es.tEy (V/m) @ t=1.7
0
% es.tEz (V/m) @ t=1.7
-0.32435115825860095
% V (V) @ t=1.7
0.01387165359903284
% es.normE (V/m) @ t=1.8
0.5933977847220204
% es.EX (V/m) @ t=1.8
0.36428670762401083
% es.EY (V/m) @ t=1.8
0.24783169931512594
% es.EZ (V/m) @ t=1.8
-0.33880175584620265
% es.tEX (V/m) @ t=1.8
0.3642867076240073
% es.tEY (V/m) @ t=1.8
0
% es.tEZ (V/m) @ t=1.8
-0.3388017558462124
% es.Ex (V/m) @ t=1.8
0.36428670762401083
% es.Ey (V/m) @ t=1.8
0.24783169931512594
% es.Ez (V/m) @ t=1.8
-0.33880175584620265
% es.tEx (V/m) @ t=1.8
0.3642867076240073
% es.tEy (V/m) @ t=1.8
0
% es.tEz (V/m) @ t=1.8
-0.3388017558462124
% V (V) @ t=1.8
0.01448980591589015
% es.normE (V/m) @ t=1.9
0.6195538377938645
% es.EX (V/m) @ t=1.9
0.3803465087691702
% es.EY (V/m) @ t=1.9
0.2587531518388646
% es.EZ (V/m) @ t=1.9
-0.353735631074513
% es.tEX (V/m) @ t=1.9
0.3803465087691702
% es.tEY (V/m) @ t=1.9
0
% es.tEZ (V/m) @ t=1.9
-0.353735631074521
% es.Ex (V/m) @ t=1.9
0.3803465087691702
% es.Ey (V/m) @ t=1.9
0.2587531518388646
% es.Ez (V/m) @ t=1.9
-0.353735631074513
% es.tEx (V/m) @ t=1.9
0.3803465087691702
% es.tEy (V/m) @ t=1.9
0
% es.tEz (V/m) @ t=1.9
-0.353735631074521
% V (V) @ t=1.9
0.01512877161393432
% es.normE (V/m) @ t=2
0.6465563142826414
% es.EX (V/m) @ t=2
0.39692729275840044
% es.EY (V/m) @ t=2
0.2700267608960263
% es.EZ (V/m) @ t=2
-0.3691527839434894
% es.tEX (V/m) @ t=2
0.39692729275840044
% es.tEY (V/m) @ t=2
0
% es.tEZ (V/m) @ t=2
-0.36915278394349826
% es.Ex (V/m) @ t=2
0.39692729275840044
% es.Ey (V/m) @ t=2
0.2700267608960263
% es.Ez (V/m) @ t=2
-0.3691527839434894
% es.tEx (V/m) @ t=2
0.39692729275840044
% es.tEy (V/m) @ t=2
0
% es.tEz (V/m) @ t=2
-0.36915278394349826
% V (V) @ t=2
0.01578855069316536
% es.normE (V/m) @ t=2.1
0.6744052142294017
% es.EX (V/m) @ t=2.1
0.41402905959162695
% es.EY (V/m) @ t=2.1
0.2816525264866101
% es.EZ (V/m) @ t=2.1
-0.38505321445317975
% es.tEX (V/m) @ t=2.1
0.41402905959163405
% es.tEY (V/m) @ t=2.1
0
% es.tEZ (V/m) @ t=2.1
-0.3850532144531833
% es.Ex (V/m) @ t=2.1
0.41402905959162695
% es.Ey (V/m) @ t=2.1
0.2816525264866101
% es.Ez (V/m) @ t=2.1
-0.38505321445317975
% es.tEx (V/m) @ t=2.1
0.41402905959163405
% es.tEy (V/m) @ t=2.1
0
% es.tEz (V/m) @ t=2.1
-0.3850532144531833
% V (V) @ t=2.1
0.01646914315358326
% es.normE (V/m) @ t=2.2
0.7035410345868413
% es.EX (V/m) @ t=2.2
0.4319198984785082
% es.EY (V/m) @ t=2.2
0.2938167310895765
% es.EZ (V/m) @ t=2.2
-0.40168840784159165
% es.tEX (V/m) @ t=2.2
0.4319198984785153
% es.tEY (V/m) @ t=2.2
0
% es.tEZ (V/m) @ t=2.2
-0.401688407841597
% es.Ex (V/m) @ t=2.2
0.4319198984785082
% es.Ey (V/m) @ t=2.2
0.2938167310895765
% es.Ez (V/m) @ t=2.2
-0.40168840784159165
% es.tEx (V/m) @ t=2.2
0.4319198984785153
% es.tEy (V/m) @ t=2.2
0
% es.tEz (V/m) @ t=2.2
-0.401688407841597
% V (V) @ t=2.2
0.01718105707893031
% es.normE (V/m) @ t=2.3
0.7342755569825467
% es.EX (V/m) @ t=2.3
0.45078956171941087
% es.EY (V/m) @ t=2.3
0.30665122458041605
% es.EZ (V/m) @ t=2.3
-0.41923636419505783
% es.tEX (V/m) @ t=2.3
0.4507895617194144
% es.tEY (V/m) @ t=2.3
0
% es.tEZ (V/m) @ t=2.3
-0.41923636419505783
% es.Ex (V/m) @ t=2.3
0.45078956171941087
% es.Ey (V/m) @ t=2.3
0.30665122458041605
% es.Ez (V/m) @ t=2.3
-0.41923636419505783
% es.tEx (V/m) @ t=2.3
0.4507895617194144
% es.tEy (V/m) @ t=2.3
0
% es.tEz (V/m) @ t=2.3
-0.41923636419505783
% V (V) @ t=2.3
0.017931730042192433
% es.normE (V/m) @ t=2.4
0.7661764119113146
% es.EX (V/m) @ t=2.4
0.470374906507498
% es.EY (V/m) @ t=2.4
0.31997316150090116
% es.EZ (V/m) @ t=2.4
-0.43745023832522456
% es.tEX (V/m) @ t=2.4
0.4703749065074945
% es.tEY (V/m) @ t=2.4
0
% es.tEZ (V/m) @ t=2.4
-0.4374502383252228
% es.Ex (V/m) @ t=2.4
0.470374906507498
% es.Ey (V/m) @ t=2.4
0.31997316150090116
% es.Ez (V/m) @ t=2.4
-0.43745023832522456
% es.tEx (V/m) @ t=2.4
0.4703749065074945
% es.tEy (V/m) @ t=2.4
0
% es.tEz (V/m) @ t=2.4
-0.4374502383252228
% V (V) @ t=2.4
0.018710847839918446
% es.normE (V/m) @ t=2.5
0.7992435993712488
% es.EX (V/m) @ t=2.5
0.4906759328427732
% es.EY (V/m) @ t=2.5
0.3337825418509901
% es.EZ (V/m) @ t=2.5
-0.4563300302320936
% es.tEX (V/m) @ t=2.5
0.4906759328427839
% es.tEY (V/m) @ t=2.5
0
% es.tEZ (V/m) @ t=2.5
-0.4563300302321025
% es.Ex (V/m) @ t=2.5
0.4906759328427732
% es.Ey (V/m) @ t=2.5
0.3337825418509901
% es.Ez (V/m) @ t=2.5
-0.4563300302320936
% es.tEx (V/m) @ t=2.5
0.4906759328427839
% es.tEy (V/m) @ t=2.5
0
% es.tEz (V/m) @ t=2.5
-0.4563300302321025
% V (V) @ t=2.5
0.019518410472108345
% es.normE (V/m) @ t=2.6
0.8334771193616641
% es.EX (V/m) @ t=2.6
0.5116926407252045
% es.EY (V/m) @ t=2.6
0.34807936563070907
% es.EZ (V/m) @ t=2.6
-0.475875739915697
% es.tEX (V/m) @ t=2.6
0.5116926407252009
% es.tEY (V/m) @ t=2.6
0
% es.tEZ (V/m) @ t=2.6
-0.4758757399157041
% es.Ex (V/m) @ t=2.6
0.5116926407252045
% es.Ey (V/m) @ t=2.6
0.34807936563070907
% es.Ez (V/m) @ t=2.6
-0.475875739915697
% es.tEx (V/m) @ t=2.6
0.5116926407252009
% es.tEy (V/m) @ t=2.6
0
% es.tEz (V/m) @ t=2.6
-0.4758757399157041
% V (V) @ t=2.6
0.02035441793876213
% es.normE (V/m) @ t=2.7
0.8688769718828266
% es.EX (V/m) @ t=2.7
0.5334250301547883
% es.EY (V/m) @ t=2.7
0.3628636328400563
% es.EZ (V/m) @ t=2.7
-0.4960873673760151
% es.tEX (V/m) @ t=2.7
0.5334250301547847
% es.tEY (V/m) @ t=2.7
0
% es.tEZ (V/m) @ t=2.7
-0.496087367376024
% es.Ex (V/m) @ t=2.7
0.5334250301547883
% es.Ey (V/m) @ t=2.7
0.3628636328400563
% es.Ez (V/m) @ t=2.7
-0.4960873673760151
% es.tEx (V/m) @ t=2.7
0.5334250301547847
% es.tEy (V/m) @ t=2.7
0
% es.tEz (V/m) @ t=2.7
-0.496087367376024
% V (V) @ t=2.7
0.021218870239879808
% es.normE (V/m) @ t=2.8
0.9061881665106042
% es.EX (V/m) @ t=2.8
0.5563309866238342
% es.EY (V/m) @ t=2.8
0.37844597734725305
% es.EZ (V/m) @ t=2.8
-0.517390279826067
% es.tEX (V/m) @ t=2.8
0.5563309866238342
% es.tEY (V/m) @ t=2.8
0
% es.tEZ (V/m) @ t=2.8
-0.5173902798260777
% es.Ex (V/m) @ t=2.8
0.5563309866238342
% es.Ey (V/m) @ t=2.8
0.37844597734725305
% es.Ez (V/m) @ t=2.8
-0.517390279826067
% es.tEx (V/m) @ t=2.8
0.5563309866238342
% es.tEy (V/m) @ t=2.8
0
% es.tEz (V/m) @ t=2.8
-0.5173902798260777
% V (V) @ t=2.8
0.02213001537633436
% es.normE (V/m) @ t=2.9
0.944970702608052
% es.EX (V/m) @ t=2.9
0.5801400842010231
% es.EY (V/m) @ t=2.9
0.3946429396312605
% es.EZ (V/m) @ t=2.9
-0.5395332565421338
% es.tEX (V/m) @ t=2.9
0.5801400842010338
% es.tEY (V/m) @ t=2.9
0
% es.tEZ (V/m) @ t=2.9
-0.5395332565421427
% es.Ex (V/m) @ t=2.9
0.5801400842010231
% es.Ey (V/m) @ t=2.9
0.3946429396312605
% es.Ez (V/m) @ t=2.9
-0.5395332565421338
% es.tEx (V/m) @ t=2.9
0.5801400842010338
% es.tEy (V/m) @ t=2.9
0
% es.tEz (V/m) @ t=2.9
-0.5395332565421427
% V (V) @ t=2.9
0.02307707612824413
% es.normE (V/m) @ t=3
0.9851701834246823
% es.EX (V/m) @ t=3
0.6048188904528331
% es.EY (V/m) @ t=3
0.41143183881153655
% es.EZ (V/m) @ t=3
-0.5624852394075202
% es.tEX (V/m) @ t=3
0.6048188904528402
% es.tEY (V/m) @ t=3
0
% es.tEZ (V/m) @ t=3
-0.5624852394075255
% es.Ex (V/m) @ t=3
0.6048188904528331
% es.Ey (V/m) @ t=3
0.41143183881153655
% es.Ez (V/m) @ t=3
-0.5624852394075202
% es.tEx (V/m) @ t=3
0.6048188904528402
% es.tEy (V/m) @ t=3
0
% es.tEz (V/m) @ t=3
-0.5624852394075255
% V (V) @ t=3
0.024058720120842137
% es.normE (V/m) @ t=3.1
1.0267866089610043
% es.EX (V/m) @ t=3.1
0.6303674053792321
% es.EY (V/m) @ t=3.1
0.4288126748880141
% es.EZ (V/m) @ t=3.1
-0.5862462284222172
% es.tEX (V/m) @ t=3.1
0.6303674053792392
% es.tEY (V/m) @ t=3.1
0
% es.tEZ (V/m) @ t=3.1
-0.5862462284222154
% es.Ex (V/m) @ t=3.1
0.6303674053792321
% es.Ey (V/m) @ t=3.1
0.4288126748880141
% es.Ez (V/m) @ t=3.1
-0.5862462284222172
% es.tEx (V/m) @ t=3.1
0.6303674053792392
% es.tEy (V/m) @ t=3.1
0
% es.tEz (V/m) @ t=3.1
-0.5862462284222154
% V (V) @ t=3.1
0.025074947354128407
% es.normE (V/m) @ t=3.2
1.0698199792177558
% es.EX (V/m) @ t=3.2
0.656785628980245
% es.EY (V/m) @ t=3.2
0.4467854478607798
% es.EZ (V/m) @ t=3.2
-0.6108162235862142
% es.tEX (V/m) @ t=3.2
0.656785628980245
% es.tEY (V/m) @ t=3.2
0
% es.tEZ (V/m) @ t=3.2
-0.6108162235862196
% es.Ex (V/m) @ t=3.2
0.656785628980245
% es.Ey (V/m) @ t=3.2
0.4467854478607798
% es.Ez (V/m) @ t=3.2
-0.6108162235862142
% es.tEx (V/m) @ t=3.2
0.656785628980245
% es.tEy (V/m) @ t=3.2
0
% es.tEz (V/m) @ t=3.2
-0.6108162235862196
% V (V) @ t=3.2
0.02612575782810293
% es.normE (V/m) @ t=3.3
1.1143901738515996
% es.EX (V/m) @ t=3.3
0.6841476265980582
% es.EY (V/m) @ t=3.3
0.4653997580219702
% es.EZ (V/m) @ t=3.3
-0.636263674630575
% es.tEX (V/m) @ t=3.3
0.6841476265980511
% es.tEY (V/m) @ t=3.3
0
% es.tEZ (V/m) @ t=3.3
-0.6362636746305732
% es.Ex (V/m) @ t=3.3
0.6841476265980582
% es.Ey (V/m) @ t=3.3
0.4653997580219702
% es.Ez (V/m) @ t=3.3
-0.636263674630575
% es.tEx (V/m) @ t=3.3
0.6841476265980511
% es.tEy (V/m) @ t=3.3
0
% es.tEz (V/m) @ t=3.3
-0.6362636746305732
% V (V) @ t=3.3
0.027214128839737405
% es.normE (V/m) @ t=3.4
1.1606446897936342
% es.EX (V/m) @ t=3.4
0.7125445263781529
% es.EY (V/m) @ t=3.4
0.48471663233115336
% es.EZ (V/m) @ t=3.4
-0.6626728003932758
% es.tEX (V/m) @ t=3.4
0.71254452637816
% es.tEY (V/m) @ t=3.4
0
% es.tEZ (V/m) @ t=3.4
-0.6626728003932776
% es.Ex (V/m) @ t=3.4
0.7125445263781529
% es.Ey (V/m) @ t=3.4
0.48471663233115336
% es.Ez (V/m) @ t=3.4
-0.6626728003932758
% es.tEx (V/m) @ t=3.4
0.71254452637816
% es.tEy (V/m) @ t=3.4
0
% es.tEz (V/m) @ t=3.4
-0.6626728003932776
% V (V) @ t=3.4
0.028343723580798553
% es.normE (V/m) @ t=3.5
1.2084222147574017
% es.EX (V/m) @ t=3.5
0.7418766646238026
% es.EY (V/m) @ t=3.5
0.5046693277161798
% es.EZ (V/m) @ t=3.5
-0.6899514936479303
% es.tEX (V/m) @ t=3.5
0.7418766646238097
% es.tEY (V/m) @ t=3.5
0
% es.tEZ (V/m) @ t=3.5
-0.6899514936479392
% es.Ex (V/m) @ t=3.5
0.7418766646238026
% es.Ey (V/m) @ t=3.5
0.5046693277161798
% es.Ez (V/m) @ t=3.5
-0.6899514936479303
% es.tEx (V/m) @ t=3.5
0.7418766646238097
% es.tEy (V/m) @ t=3.5
0
% es.tEz (V/m) @ t=3.5
-0.6899514936479392
% V (V) @ t=3.5
0.029510535745317087
% es.normE (V/m) @ t=3.6
1.2577227487434173
% es.EX (V/m) @ t=3.6
0.7721440413350464
% es.EY (V/m) @ t=3.6
0.5252578441770215
% es.EZ (V/m) @ t=3.6
-0.7180997543945384
% es.tEX (V/m) @ t=3.6
0.7721440413350606
% es.tEY (V/m) @ t=3.6
0
% es.tEZ (V/m) @ t=3.6
-0.7180997543945438
% es.Ex (V/m) @ t=3.6
0.7721440413350464
% es.Ey (V/m) @ t=3.6
0.5252578441770215
% es.Ez (V/m) @ t=3.6
-0.7180997543945384
% es.tEx (V/m) @ t=3.6
0.7721440413350606
% es.tEy (V/m) @ t=3.6
0
% es.tEz (V/m) @ t=3.6
-0.7180997543945438
% V (V) @ t=3.6
0.030714565333293024
% es.normE (V/m) @ t=3.7
1.308546291752355
% es.EX (V/m) @ t=3.7
0.8033466565118665
% es.EY (V/m) @ t=3.7
0.5464821817137233
% es.EZ (V/m) @ t=3.7
-0.7471175826331127
% es.tEX (V/m) @ t=3.7
0.8033466565118736
% es.tEY (V/m) @ t=3.7
0
% es.tEZ (V/m) @ t=3.7
-0.7471175826331233
% es.Ex (V/m) @ t=3.7
0.8033466565118665
% es.Ey (V/m) @ t=3.7
0.5464821817137233
% es.Ez (V/m) @ t=3.7
-0.7471175826331127
% es.tEx (V/m) @ t=3.7
0.8033466565118736
% es.tEy (V/m) @ t=3.7
0
% es.tEz (V/m) @ t=3.7
-0.7471175826331233
% V (V) @ t=3.7
0.03195581234472635
% es.normE (V/m) @ t=3.8
1.3608928437849386
% es.EX (V/m) @ t=3.8
0.8354845101541883
% es.EY (V/m) @ t=3.8
0.5683423403262609
% es.EZ (V/m) @ t=3.8
-0.7770049783636814
% es.tEX (V/m) @ t=3.8
0.8354845101541883
% es.tEY (V/m) @ t=3.8
0
% es.tEZ (V/m) @ t=3.8
-0.7770049783636992
% es.Ex (V/m) @ t=3.8
0.8354845101541883
% es.Ey (V/m) @ t=3.8
0.5683423403262609
% es.Ez (V/m) @ t=3.8
-0.7770049783636814
% es.tEx (V/m) @ t=3.8
0.8354845101541883
% es.tEy (V/m) @ t=3.8
0
% es.tEz (V/m) @ t=3.8
-0.7770049783636992
% V (V) @ t=3.8
0.033234276779617065
% es.normE (V/m) @ t=3.9
1.4143998689862127
% es.EX (V/m) @ t=3.9
0.8683333798503696
% es.EY (V/m) @ t=3.9
0.5906885538546858
% es.EZ (V/m) @ t=3.9
-0.8075549380077902
% es.tEX (V/m) @ t=3.9
0.8683333798503696
% es.tEY (V/m) @ t=3.9
0
% es.tEZ (V/m) @ t=3.9
-0.8075549380077973
% es.Ex (V/m) @ t=3.9
0.8683333798503696
% es.Ey (V/m) @ t=3.9
0.5906885538546858
% es.Ez (V/m) @ t=3.9
-0.8075549380077902
% es.tEx (V/m) @ t=3.9
0.8683333798503696
% es.tEy (V/m) @ t=3.9
0
% es.tEz (V/m) @ t=3.9
-0.8075549380077973
% V (V) @ t=3.9
0.03454092935520642
% es.normE (V/m) @ t=4
1.4691613728048252
% es.EX (V/m) @ t=4
0.9019514064102765
% es.EY (V/m) @ t=4
0.6135596566232309
% es.EZ (V/m) @ t=4
-0.8388211375365948
% es.tEX (V/m) @ t=4
0.9019514064102978
% es.tEY (V/m) @ t=4
0
% es.tEZ (V/m) @ t=4
-0.8388211375365984
% es.Ex (V/m) @ t=4
0.9019514064102765
% es.Ey (V/m) @ t=4
0.6135596566232309
% es.Ez (V/m) @ t=4
-0.8388211375365948
% es.tEx (V/m) @ t=4
0.9019514064102978
% es.tEy (V/m) @ t=4
0
% es.tEz (V/m) @ t=4
-0.8388211375365984
% V (V) @ t=4
0.035878111362039694
% es.normE (V/m) @ t=4.1
1.5251955481203103
% es.EX (V/m) @ t=4.1
0.9363498418253045
% es.EY (V/m) @ t=4.1
0.6369631642389324
% es.EZ (V/m) @ t=4.1
-0.8708139648611812
% es.tEX (V/m) @ t=4.1
0.9363498418253258
% es.tEY (V/m) @ t=4.1
0
% es.tEZ (V/m) @ t=4.1
-0.8708139648611919
% es.Ex (V/m) @ t=4.1
0.9363498418253045
% es.Ey (V/m) @ t=4.1
0.6369631642389324
% es.Ez (V/m) @ t=4.1
-0.8708139648611812
% es.tEx (V/m) @ t=4.1
0.9363498418253258
% es.tEy (V/m) @ t=4.1
0
% es.tEz (V/m) @ t=4.1
-0.8708139648611919
% V (V) @ t=4.1
0.037246275910091574
% es.normE (V/m) @ t=4.2
1.582468482191627
% es.EX (V/m) @ t=4.2
0.9715077116225359
% es.EY (V/m) @ t=4.2
0.6608850671020132
% es.EZ (V/m) @ t=4.2
-0.9035140562127957
% es.tEX (V/m) @ t=4.2
0.9715077116225572
% es.tEY (V/m) @ t=4.2
0
% es.tEZ (V/m) @ t=4.2
-0.9035140562127992
% es.Ex (V/m) @ t=4.2
0.9715077116225359
% es.Ey (V/m) @ t=4.2
0.6608850671020132
% es.Ez (V/m) @ t=4.2
-0.9035140562127957
% es.tEx (V/m) @ t=4.2
0.9715077116225572
% es.tEy (V/m) @ t=4.2
0
% es.tEz (V/m) @ t=4.2
-0.9035140562127992
% V (V) @ t=4.2
0.03864457837172509
% es.normE (V/m) @ t=4.3
1.6409462622827256
% es.EX (V/m) @ t=4.3
1.0074040413292096
% es.EY (V/m) @ t=4.3
0.6853113556126491
% es.EZ (V/m) @ t=4.3
-0.936902047822695
% es.tEX (V/m) @ t=4.3
1.0074040413292025
% es.tEY (V/m) @ t=4.3
0
% es.tEZ (V/m) @ t=4.3
-0.9369020478227057
% es.Ex (V/m) @ t=4.3
1.0074040413292096
% es.Ey (V/m) @ t=4.3
0.6853113556126491
% es.Ez (V/m) @ t=4.3
-0.936902047822695
% es.tEx (V/m) @ t=4.3
1.0074040413292025
% es.tEy (V/m) @ t=4.3
0
% es.tEz (V/m) @ t=4.3
-0.9369020478227057
% V (V) @ t=4.3
0.04007217411930331
% es.normE (V/m) @ t=4.4
1.7002969915943384
% es.EX (V/m) @ t=4.4
1.0438356007786425
% es.EY (V/m) @ t=4.4
0.7101028972751848
% es.EZ (V/m) @ t=4.4
-0.9707884464807641
% es.tEX (V/m) @ t=4.4
1.0438356007786496
% es.tEY (V/m) @ t=4.4
0
% es.tEZ (V/m) @ t=4.4
-0.9707884464807819
% es.Ex (V/m) @ t=4.4
1.0438356007786425
% es.Ey (V/m) @ t=4.4
0.7101028972751848
% es.Ez (V/m) @ t=4.4
-0.9707884464807641
% es.tEx (V/m) @ t=4.4
1.0438356007786496
% es.tEy (V/m) @ t=4.4
0
% es.tEz (V/m) @ t=4.4
-0.9707884464807819
% V (V) @ t=4.4
0.04152101422086548
% es.normE (V/m) @ t=4.5
1.759754191504527
% es.EX (V/m) @ t=4.5
1.0803333569737177
% es.EY (V/m) @ t=4.5
0.7349380795893126
% es.EZ (V/m) @ t=4.5
-1.0047356411482689
% es.tEX (V/m) @ t=4.5
1.080333356973746
% es.tEY (V/m) @ t=4.5
0
% es.tEZ (V/m) @ t=4.5
-1.0047356411482724
% es.Ex (V/m) @ t=4.5
1.0803333569737177
% es.Ey (V/m) @ t=4.5
0.7349380795893126
% es.Ez (V/m) @ t=4.5
-1.0047356411482689
% es.tEx (V/m) @ t=4.5
1.080333356973746
% es.tEy (V/m) @ t=4.5
0
% es.tEz (V/m) @ t=4.5
-1.0047356411482724
% V (V) @ t=4.5
0.042972542942502176
% es.normE (V/m) @ t=4.6
1.8197102861077201
% es.EX (V/m) @ t=4.6
1.1171370954132058
% es.EY (V/m) @ t=4.6
0.7599819109166521
% es.EZ (V/m) @ t=4.6
-1.0389676785494721
% es.tEX (V/m) @ t=4.6
1.1171370954132342
% es.tEY (V/m) @ t=4.6
0
% es.tEZ (V/m) @ t=4.6
-1.0389676785494828
% es.Ex (V/m) @ t=4.6
1.1171370954132058
% es.Ey (V/m) @ t=4.6
0.7599819109166521
% es.Ez (V/m) @ t=4.6
-1.0389676785494721
% es.tEx (V/m) @ t=4.6
1.1171370954132342
% es.tEy (V/m) @ t=4.6
0
% es.tEz (V/m) @ t=4.6
-1.0389676785494828
% V (V) @ t=4.6
0.04443622312160536
% es.normE (V/m) @ t=4.7
1.8800430679881632
% es.EX (V/m) @ t=4.7
1.1541718380442632
% es.EY (V/m) @ t=4.7
0.7851833069072089
% es.EZ (V/m) @ t=4.7
-1.0734147844251396
% es.tEX (V/m) @ t=4.7
1.154171838044249
% es.tEY (V/m) @ t=4.7
0
% es.tEZ (V/m) @ t=4.7
-1.0734147844251538
% es.Ex (V/m) @ t=4.7
1.1541718380442632
% es.Ey (V/m) @ t=4.7
0.7851833069072089
% es.Ez (V/m) @ t=4.7
-1.0734147844251396
% es.tEx (V/m) @ t=4.7
1.154171838044249
% es.tEy (V/m) @ t=4.7
0
% es.tEz (V/m) @ t=4.7
-1.0734147844251538
% V (V) @ t=4.7
0.04590907544701981
% es.normE (V/m) @ t=4.8
1.9406303297291227
% es.EX (V/m) @ t=4.8
1.1913626068138825
% es.EY (V/m) @ t=4.8
0.810491183210889
% es.EZ (V/m) @ t=4.8
-1.1080071845160582
% es.tEX (V/m) @ t=4.8
1.1913626068138683
% es.tEY (V/m) @ t=4.8
0
% es.tEZ (V/m) @ t=4.8
-1.1080071845160546
% es.Ex (V/m) @ t=4.8
1.1913626068138825
% es.Ey (V/m) @ t=4.8
0.810491183210889
% es.Ez (V/m) @ t=4.8
-1.1080071845160582
% es.tEx (V/m) @ t=4.8
1.1913626068138683
% es.tEy (V/m) @ t=4.8
0
% es.tEz (V/m) @ t=4.8
-1.1080071845160546
% V (V) @ t=4.8
0.04738812060759025
% es.normE (V/m) @ t=4.9
2.001349863913225
% es.EX (V/m) @ t=4.9
1.228634423669142
% es.EY (V/m) @ t=4.9
0.835854455477655
% es.EZ (V/m) @ t=4.9
-1.142675104563022
% es.tEX (V/m) @ t=4.9
1.2286344236691562
% es.tEY (V/m) @ t=4.9
0
% es.tEZ (V/m) @ t=4.9
-1.1426751045630326
% es.Ex (V/m) @ t=4.9
1.228634423669142
% es.Ey (V/m) @ t=4.9
0.835854455477655
% es.Ez (V/m) @ t=4.9
-1.142675104563022
% es.tEx (V/m) @ t=4.9
1.2286344236691562
% es.tEy (V/m) @ t=4.9
0
% es.tEz (V/m) @ t=4.9
-1.1426751045630326
% V (V) @ t=4.9
0.04887037929216147
% es.normE (V/m) @ t=5
2.0611927722009407
% es.EX (V/m) @ t=5
1.265371809800783
% es.EY (V/m) @ t=5
0.8608479114772223
% es.EZ (V/m) @ t=5
-1.1768425417996404
% es.tEX (V/m) @ t=5
1.2653718098007687
% es.tEY (V/m) @ t=5
0
% es.tEZ (V/m) @ t=5
-1.176842541799644
% es.Ex (V/m) @ t=5
1.265371809800783
% es.Ey (V/m) @ t=5
0.8608479114772223
% es.Ez (V/m) @ t=5
-1.1768425417996404
% es.tEx (V/m) @ t=5
1.2653718098007687
% es.tEy (V/m) @ t=5
0
% es.tEz (V/m) @ t=5
-1.176842541799644
% V (V) @ t=5
0.050331628958416155
% es.normE (V/m) @ t=5.1
2.120128058734732
% es.EX (V/m) @ t=5.1
1.3015553870492198
% es.EY (V/m) @ t=5.1
0.8854589524122609
% es.EZ (V/m) @ t=5.1
-1.2104917963639998
% es.tEX (V/m) @ t=5.1
1.3015553870492127
% es.tEY (V/m) @ t=5.1
0
% es.tEZ (V/m) @ t=5.1
-1.2104917963639963
% es.Ex (V/m) @ t=5.1
1.3015553870492198
% es.Ey (V/m) @ t=5.1
0.8854589524122609
% es.Ez (V/m) @ t=5.1
-1.2104917963639998
% es.tEx (V/m) @ t=5.1
1.3015553870492127
% es.tEy (V/m) @ t=5.1
0
% es.tEz (V/m) @ t=5.1
-1.2104917963639963
% V (V) @ t=5.1
0.0517710755306075
% es.normE (V/m) @ t=5.2
2.1781493579302906
% es.EX (V/m) @ t=5.2
1.337180791129427
% es.EY (V/m) @ t=5.2
0.9096853719016602
% es.EZ (V/m) @ t=5.2
-1.2436192302636435
% es.tEX (V/m) @ t=5.2
1.3371807911294127
% es.tEY (V/m) @ t=5.2
0
% es.tEZ (V/m) @ t=5.2
-1.2436192302636613
% es.Ex (V/m) @ t=5.2
1.337180791129427
% es.Ey (V/m) @ t=5.2
0.9096853719016602
% es.Ez (V/m) @ t=5.2
-1.2436192302636435
% es.tEx (V/m) @ t=5.2
1.3371807911294127
% es.tEy (V/m) @ t=5.2
0
% es.tEz (V/m) @ t=5.2
-1.2436192302636613
% V (V) @ t=5.2
0.05318851502134021
% es.normE (V/m) @ t=5.3
2.235041418426049
% es.EX (V/m) @ t=5.3
1.3721163271008479
% es.EY (V/m) @ t=5.3
0.9334368268735531
% es.EZ (V/m) @ t=5.3
-1.2761019486749738
% es.tEX (V/m) @ t=5.3
1.3721163271008479
% es.tEY (V/m) @ t=5.3
0
% es.tEZ (V/m) @ t=5.3