% Model:              1x1--2 - Copy1.mph
% Version:            COMSOL 6.1.0.252
% Date:               Apr 3 2023, 15:05
% Dimension:          0
% Nodes:              14017
% Expressions:        14017
% Description:        Electric field norm, Electric field, X component, Electric field, Y component, Electric field, Z component, Tangential electric field, X component, Tangential electric field, Y component, Tangential electric field, Z component, Electric field, x component, Electric field, y component, Electric field, z component, Tangential electric field, x component, Tangential electric field, y component, Tangential electric field, z component, Electric potential
% Length unit:        mm
% x
1.66
% y
12.2
% z
1.33
% es.normE (V/m) @ t=0
0.3786245286576177
% es.EX (V/m) @ t=0
0.2521442556870577
% es.EY (V/m) @ t=0
0.11311752668116026
% es.EZ (V/m) @ t=0
-0.2486277644718462
% es.tEX (V/m) @ t=0
0.2521442556870568
% es.tEY (V/m) @ t=0
0
% es.tEZ (V/m) @ t=0
-0.24862776447184842
% es.Ex (V/m) @ t=0
0.2521442556870577
% es.Ey (V/m) @ t=0
0.11311752668116026
% es.Ez (V/m) @ t=0
-0.2486277644718462
% es.tEx (V/m) @ t=0
0.2521442556870568
% es.tEy (V/m) @ t=0
0
% es.tEz (V/m) @ t=0
-0.24862776447184842
% V (V) @ t=0
0.0064617512100739165
% es.normE (V/m) @ t=0.1
0.3845135160093238
% es.EX (V/m) @ t=0.1
0.2560660441822873
% es.EY (V/m) @ t=0.1
0.11487688615733382
% es.EZ (V/m) @ t=0.1
-0.2524948197092143
% es.tEX (V/m) @ t=0.1
0.2560660441822886
% es.tEY (V/m) @ t=0.1
0
% es.tEZ (V/m) @ t=0.1
-0.2524948197092174
% es.Ex (V/m) @ t=0.1
0.2560660441822873
% es.Ey (V/m) @ t=0.1
0.11487688615733382
% es.Ez (V/m) @ t=0.1
-0.2524948197092143
% es.tEx (V/m) @ t=0.1
0.2560660441822886
% es.tEy (V/m) @ t=0.1
0
% es.tEz (V/m) @ t=0.1
-0.2524948197092174
% V (V) @ t=0.1
0.006562257393657829
% es.normE (V/m) @ t=0.2
0.4028113671864918
% es.EX (V/m) @ t=0.2
0.26825150239222806
% es.EY (V/m) @ t=0.2
0.12034349528189903
% es.EZ (V/m) @ t=0.2
-0.2645102814761864
% es.tEX (V/m) @ t=0.2
0.2682515023922285
% es.tEY (V/m) @ t=0.2
0
% es.tEZ (V/m) @ t=0.2
-0.2645102814761877
% es.Ex (V/m) @ t=0.2
0.26825150239222806
% es.Ey (V/m) @ t=0.2
0.12034349528189903
% es.Ez (V/m) @ t=0.2
-0.2645102814761864
% es.tEx (V/m) @ t=0.2
0.2682515023922285
% es.tEy (V/m) @ t=0.2
0
% es.tEz (V/m) @ t=0.2
-0.2645102814761877
% V (V) @ t=0.2
0.006874538969955422
% es.normE (V/m) @ t=0.3
0.4216939938644675
% es.EX (V/m) @ t=0.3
0.2808263416898509
% es.EY (V/m) @ t=0.3
0.1259848606141437
% es.EZ (V/m) @ t=0.3
-0.27690975911698734
% es.tEX (V/m) @ t=0.3
0.2808263416898491
% es.tEY (V/m) @ t=0.3
0
% es.tEZ (V/m) @ t=0.3
-0.27690975911699134
% es.Ex (V/m) @ t=0.3
0.2808263416898509
% es.Ey (V/m) @ t=0.3
0.1259848606141437
% es.Ez (V/m) @ t=0.3
-0.27690975911698734
% es.tEx (V/m) @ t=0.3
0.2808263416898491
% es.tEy (V/m) @ t=0.3
0
% es.tEz (V/m) @ t=0.3
-0.27690975911699134
% V (V) @ t=0.3
0.007196796379368122
% es.normE (V/m) @ t=0.4
0.4416441389878264
% es.EX (V/m) @ t=0.4
0.2941120977950211
% es.EY (V/m) @ t=0.4
0.131945151767636
% es.EZ (V/m) @ t=0.4
-0.2900102322067313
% es.tEX (V/m) @ t=0.4
0.29411209779501757
% es.tEY (V/m) @ t=0.4
0
% es.tEZ (V/m) @ t=0.4
-0.29001023220672995
% es.Ex (V/m) @ t=0.4
0.2941120977950211
% es.Ey (V/m) @ t=0.4
0.131945151767636
% es.Ez (V/m) @ t=0.4
-0.2900102322067313
% es.tEx (V/m) @ t=0.4
0.29411209779501757
% es.tEy (V/m) @ t=0.4
0
% es.tEz (V/m) @ t=0.4
-0.29001023220672995
% V (V) @ t=0.4
0.007537272893074719
% es.normE (V/m) @ t=0.5
0.46270211533158734
% es.EX (V/m) @ t=0.5
0.3081357504016067
% es.EY (V/m) @ t=0.5
0.13823627856410625
% es.EZ (V/m) @ t=0.5
-0.30383812644867225
% es.tEX (V/m) @ t=0.5
0.3081357504016049
% es.tEY (V/m) @ t=0.5
0
% es.tEZ (V/m) @ t=0.5
-0.3038381264486745
% es.Ex (V/m) @ t=0.5
0.3081357504016067
% es.Ey (V/m) @ t=0.5
0.13823627856410625
% es.Ez (V/m) @ t=0.5
-0.30383812644867225
% es.tEx (V/m) @ t=0.5
0.3081357504016049
% es.tEy (V/m) @ t=0.5
0
% es.tEz (V/m) @ t=0.5
-0.3038381264486745
% V (V) @ t=0.5
0.007896667868079703
% es.normE (V/m) @ t=0.6
0.4853990103163419
% es.EX (V/m) @ t=0.6
0.32325106018588823
% es.EY (V/m) @ t=0.6
0.1450168238258014
% es.EZ (V/m) @ t=0.6
-0.31874215693210006
% es.tEX (V/m) @ t=0.6
0.32325106018588823
% es.tEY (V/m) @ t=0.6
0
% es.tEZ (V/m) @ t=0.6
-0.3187421569321005
% es.Ex (V/m) @ t=0.6
0.32325106018588823
% es.Ey (V/m) @ t=0.6
0.1450168238258014
% es.Ez (V/m) @ t=0.6
-0.31874215693210006
% es.tEx (V/m) @ t=0.6
0.32325106018588823
% es.tEy (V/m) @ t=0.6
0
% es.tEz (V/m) @ t=0.6
-0.3187421569321005
% V (V) @ t=0.6
0.008284052201557524
% es.normE (V/m) @ t=0.7
0.5080959053016684
% es.EX (V/m) @ t=0.7
0.3383663699701689
% es.EY (V/m) @ t=0.7
0.1517973690874973
% es.EZ (V/m) @ t=0.7
-0.33364618741552476
% es.tEX (V/m) @ t=0.7
0.3383663699701689
% es.tEY (V/m) @ t=0.7
0
% es.tEZ (V/m) @ t=0.7
-0.3336461874155292
% es.Ex (V/m) @ t=0.7
0.3383663699701689
% es.Ey (V/m) @ t=0.7
0.1517973690874973
% es.Ez (V/m) @ t=0.7
-0.33364618741552476
% es.tEx (V/m) @ t=0.7
0.3383663699701689
% es.tEy (V/m) @ t=0.7
0
% es.tEz (V/m) @ t=0.7
-0.3336461874155292
% V (V) @ t=0.7
0.008671436535035347
% es.normE (V/m) @ t=0.8
0.531625058453586
% es.EX (V/m) @ t=0.8
0.35403566711887
% es.EY (V/m) @ t=0.8
0.1588268133457923
% es.EZ (V/m) @ t=0.8
-0.34909681642880885
% es.tEX (V/m) @ t=0.8
0.35403566711887
% es.tEY (V/m) @ t=0.8
0
% es.tEZ (V/m) @ t=0.8
-0.3490968164288075
% es.Ex (V/m) @ t=0.8
0.35403566711887
% es.Ey (V/m) @ t=0.8
0.1588268133457923
% es.Ez (V/m) @ t=0.8
-0.34909681642880885
% es.tEx (V/m) @ t=0.8
0.35403566711887
% es.tEy (V/m) @ t=0.8
0
% es.tEz (V/m) @ t=0.8
-0.3490968164288075
% V (V) @ t=0.8
0.009073002941003133
% es.normE (V/m) @ t=0.9
0.5570433594000032
% es.EX (V/m) @ t=0.9
0.3709624635025115
% es.EY (V/m) @ t=0.9
0.16642123492654282
% es.EZ (V/m) @ t=0.9
-0.3657881727172181
% es.tEX (V/m) @ t=0.9
0.37096246350250617
% es.tEY (V/m) @ t=0.9
0
% es.tEZ (V/m) @ t=0.9
-0.36578817271721853
% es.Ex (V/m) @ t=0.9
0.3709624635025115
% es.Ey (V/m) @ t=0.9
0.16642123492654282
% es.Ez (V/m) @ t=0.9
-0.3657881727172181
% es.tEx (V/m) @ t=0.9
0.37096246350250617
% es.tEy (V/m) @ t=0.9
0
% es.tEz (V/m) @ t=0.9
-0.36578817271721853
% V (V) @ t=0.9
0.009506761318217212
% es.normE (V/m) @ t=1
0.5824616603475288
% es.EX (V/m) @ t=1
0.3878892598861423
% es.EY (V/m) @ t=1
0.174015656507293
% es.EZ (V/m) @ t=1
-0.3824795290056251
% es.tEX (V/m) @ t=1
0.3878892598861423
% es.tEY (V/m) @ t=1
0
% es.tEZ (V/m) @ t=1
-0.3824795290056269
% es.Ex (V/m) @ t=1
0.3878892598861423
% es.Ey (V/m) @ t=1
0.174015656507293
% es.Ez (V/m) @ t=1
-0.3824795290056251
% es.tEx (V/m) @ t=1
0.3878892598861423
% es.tEy (V/m) @ t=1
0
% es.tEz (V/m) @ t=1
-0.3824795290056269
% V (V) @ t=1
0.009940519695431293
% es.normE (V/m) @ t=1.1
0.609543338692641
% es.EX (V/m) @ t=1.1
0.4059231228397344
% es.EY (V/m) @ t=1.1
0.18210768605953853
% es.EZ (V/m) @ t=1.1
-0.40026338615869594
% es.tEX (V/m) @ t=1.1
0.4059231228397344
% es.tEY (V/m) @ t=1.1
0
% es.tEZ (V/m) @ t=1.1
-0.4002633861586986
% es.Ex (V/m) @ t=1.1
0.4059231228397344
% es.Ey (V/m) @ t=1.1
0.18210768605953853
% es.Ez (V/m) @ t=1.1
-0.40026338615869594
% es.tEx (V/m) @ t=1.1
0.4059231228397344
% es.tEy (V/m) @ t=1.1
0
% es.tEz (V/m) @ t=1.1
-0.4002633861586986
% V (V) @ t=1.1
0.01040261003713832
% es.normE (V/m) @ t=1.2
0.6380621499976361
% es.EX (V/m) @ t=1.2
0.4249134745914205
% es.EY (V/m) @ t=1.2
0.19062964138454497
% es.EZ (V/m) @ t=1.2
-0.41899114756047595
% es.tEX (V/m) @ t=1.2
0.4249134745914187
% es.tEY (V/m) @ t=1.2
0
% es.tEZ (V/m) @ t=1.2
-0.41899114756047773
% es.Ex (V/m) @ t=1.2
0.4249134745914205
% es.Ey (V/m) @ t=1.2
0.19062964138454497
% es.Ez (V/m) @ t=1.2
-0.41899114756047595
% es.tEx (V/m) @ t=1.2
0.4249134745914187
% es.tEy (V/m) @ t=1.2
0
% es.tEz (V/m) @ t=1.2
-0.41899114756047773
% V (V) @ t=1.2
0.01088917876831334
% es.normE (V/m) @ t=1.3
0.6665809613124479
% es.EX (V/m) @ t=1.3
0.4439038263431119
% es.EY (V/m) @ t=1.3
0.19915159670956184
% es.EZ (V/m) @ t=1.3
-0.4377189089622542
% es.tEX (V/m) @ t=1.3
0.4439038263431083
% es.tEY (V/m) @ t=1.3
0
% es.tEZ (V/m) @ t=1.3
-0.4377189089622515
% es.Ex (V/m) @ t=1.3
0.4439038263431119
% es.Ey (V/m) @ t=1.3
0.19915159670956184
% es.Ez (V/m) @ t=1.3
-0.4377189089622542
% es.tEx (V/m) @ t=1.3
0.4439038263431083
% es.tEy (V/m) @ t=1.3
0
% es.tEz (V/m) @ t=1.3
-0.4377189089622515
% V (V) @ t=1.3
0.011375747499488357
% es.normE (V/m) @ t=1.4
0.6978095628892166
% es.EX (V/m) @ t=1.4
0.4646973281223694
% es.EY (V/m) @ t=1.4
0.20848456147520578
% es.EZ (V/m) @ t=1.4
-0.4582265761305404
% es.tEX (V/m) @ t=1.4
0.4646973281223694
% es.tEY (V/m) @ t=1.4
0
% es.tEZ (V/m) @ t=1.4
-0.4582265761305422
% es.Ex (V/m) @ t=1.4
0.4646973281223694
% es.Ey (V/m) @ t=1.4
0.20848456147520578
% es.Ez (V/m) @ t=1.4
-0.4582265761305404
% es.tEx (V/m) @ t=1.4
0.4646973281223694
% es.tEy (V/m) @ t=1.4
0
% es.tEz (V/m) @ t=1.4
-0.4582265761305422
% V (V) @ t=1.4
0.011908440867399702
% es.normE (V/m) @ t=1.5
0.7298606523642034
% es.EX (V/m) @ t=1.5
0.486038130200523
% es.EY (V/m) @ t=1.5
0.2180636875155837
% es.EZ (V/m) @ t=1.5
-0.4792744883938864
% es.tEX (V/m) @ t=1.5
0.4860381302005212
% es.tEY (V/m) @ t=1.5
0
% es.tEZ (V/m) @ t=1.5
-0.47927448839389086
% es.Ex (V/m) @ t=1.5
0.486038130200523
% es.Ey (V/m) @ t=1.5
0.2180636875155837
% es.Ez (V/m) @ t=1.5
-0.4792744883938864
% es.tEx (V/m) @ t=1.5
0.4860381302005212
% es.tEy (V/m) @ t=1.5
0
% es.tEz (V/m) @ t=1.5
-0.47927448839389086
% V (V) @ t=1.5
0.012455134194874673
% es.normE (V/m) @ t=1.6
0.7619117418719011
% es.EX (V/m) @ t=1.6
0.5073789322786801
% es.EY (V/m) @ t=1.6
0.22764281355595117
% es.EZ (V/m) @ t=1.6
-0.500322400657228
% es.tEX (V/m) @ t=1.6
0.5073789322786784
% es.tEY (V/m) @ t=1.6
0
% es.tEZ (V/m) @ t=1.6
-0.500322400657236
% es.Ex (V/m) @ t=1.6
0.5073789322786801
% es.Ey (V/m) @ t=1.6
0.22764281355595117
% es.Ez (V/m) @ t=1.6
-0.500322400657228
% es.tEx (V/m) @ t=1.6
0.5073789322786784
% es.tEy (V/m) @ t=1.6
0
% es.tEz (V/m) @ t=1.6
-0.500322400657236
% V (V) @ t=1.6
0.013001827522349648
% es.normE (V/m) @ t=1.7
0.7961940953310108
% es.EX (V/m) @ t=1.7
0.5302084561112688
% es.EY (V/m) @ t=1.7
0.23788572337559222
% es.EZ (V/m) @ t=1.7
-0.5228345234066483
% es.tEX (V/m) @ t=1.7
0.5302084561112679
% es.tEY (V/m) @ t=1.7
0
% es.tEZ (V/m) @ t=1.7
-0.5228345234066545
% es.Ex (V/m) @ t=1.7
0.5302084561112688
% es.Ey (V/m) @ t=1.7
0.23788572337559222
% es.Ez (V/m) @ t=1.7
-0.5228345234066483
% es.tEx (V/m) @ t=1.7
0.5302084561112679
% es.tEy (V/m) @ t=1.7
0
% es.tEz (V/m) @ t=1.7
-0.5228345234066545
% V (V) @ t=1.7
0.013586840164561442
% es.normE (V/m) @ t=1.8
0.8316672165351959
% es.EX (V/m) @ t=1.8
0.5538324721657029
% es.EY (V/m) @ t=1.8
0.24848287739706065
% es.EZ (V/m) @ t=1.8
-0.54612805734918
% es.tEX (V/m) @ t=1.8
0.5538324721656966
% es.tEY (V/m) @ t=1.8
0
% es.tEZ (V/m) @ t=1.8
-0.5461280573491845
% es.Ex (V/m) @ t=1.8
0.5538324721657029
% es.Ey (V/m) @ t=1.8
0.24848287739706065
% es.Ez (V/m) @ t=1.8
-0.54612805734918
% es.tEx (V/m) @ t=1.8
0.5538324721656966
% es.tEy (V/m) @ t=1.8
0
% es.tEz (V/m) @ t=1.8
-0.5461280573491845
% V (V) @ t=1.8
0.014192302832047605
% es.normE (V/m) @ t=1.9
0.8683275193442136
% es.EX (V/m) @ t=1.9
0.5782485877205392
% es.EY (V/m) @ t=1.9
0.25943320876571363
% es.EZ (V/m) @ t=1.9
-0.5702006491586831
% es.tEX (V/m) @ t=1.9
0.5782485877205392
% es.tEY (V/m) @ t=1.9
0
% es.tEZ (V/m) @ t=1.9
-0.5702006491586769
% es.Ex (V/m) @ t=1.9
0.5782485877205392
% es.Ey (V/m) @ t=1.9
0.25943320876571363
% es.Ez (V/m) @ t=1.9
-0.5702006491586831
% es.tEx (V/m) @ t=1.9
0.5782485877205392
% es.tEy (V/m) @ t=1.9
0
% es.tEz (V/m) @ t=1.9
-0.5702006491586769
% V (V) @ t=1.9
0.01481815393677504
% es.normE (V/m) @ t=2
0.9061750037931933
% es.EX (V/m) @ t=2
0.6034568027758258
% es.EY (V/m) @ t=2
0.2707367174815978
% es.EZ (V/m) @ t=2
-0.5950522988351876
% es.tEX (V/m) @ t=2
0.6034568027758223
% es.tEY (V/m) @ t=2
0
% es.tEZ (V/m) @ t=2
-0.595052298835185
% es.Ex (V/m) @ t=2
0.6034568027758258
% es.Ey (V/m) @ t=2
0.2707367174815978
% es.Ez (V/m) @ t=2
-0.5950522988351876
% es.tEx (V/m) @ t=2
0.6034568027758223
% es.tEy (V/m) @ t=2
0
% es.tEz (V/m) @ t=2
-0.595052298835185
% V (V) @ t=2
0.01546439347874373
% es.normE (V/m) @ t=2.1
0.9452096699297914
% es.EX (V/m) @ t=2.1
0.6294571173315333
% es.EY (V/m) @ t=2.1
0.2823934035446811
% es.EZ (V/m) @ t=2.1
-0.6206830063786706
% es.tEX (V/m) @ t=2.1
0.6294571173315298
% es.tEY (V/m) @ t=2.1
0
% es.tEZ (V/m) @ t=2.1
-0.620683006378675
% es.Ex (V/m) @ t=2.1
0.6294571173315333
% es.Ey (V/m) @ t=2.1
0.2823934035446811
% es.Ez (V/m) @ t=2.1
-0.6206830063786706
% es.tEx (V/m) @ t=2.1
0.6294571173315298
% es.tEy (V/m) @ t=2.1
0
% es.tEz (V/m) @ t=2.1
-0.620683006378675
% V (V) @ t=2.1
0.016131021457953684
% es.normE (V/m) @ t=2.2
0.9860473669865288
% es.EX (V/m) @ t=2.2
0.6566570467361021
% es.EY (V/m) @ t=2.2
0.2945898753794931
% es.EZ (V/m) @ t=2.2
-0.6474980766330676
% es.tEX (V/m) @ t=2.2
0.6566570467360986
% es.tEY (V/m) @ t=2.2
0
% es.tEZ (V/m) @ t=2.2
-0.647498076633072
% es.Ex (V/m) @ t=2.2
0.6566570467361021
% es.Ey (V/m) @ t=2.2
0.2945898753794931
% es.Ez (V/m) @ t=2.2
-0.6474980766330676
% es.tEx (V/m) @ t=2.2
0.6566570467360986
% es.tEy (V/m) @ t=2.2
0
% es.tEz (V/m) @ t=2.2
-0.647498076633072
% V (V) @ t=2.2
0.016828326113031585
% es.normE (V/m) @ t=2.3
1.0291239901101754
% es.EX (V/m) @ t=2.3
0.6853450284649885
% es.EY (V/m) @ t=2.3
0.307458213564306
% es.EZ (V/m) @ t=2.3
-0.6757843824889926
% es.tEX (V/m) @ t=2.3
0.6853450284649849
% es.tEY (V/m) @ t=2.3
0
% es.tEZ (V/m) @ t=2.3
-0.6757843824889935
% es.Ex (V/m) @ t=2.3
0.6853450284649885
% es.Ey (V/m) @ t=2.3
0.307458213564306
% es.Ez (V/m) @ t=2.3
-0.6757843824889926
% es.tEx (V/m) @ t=2.3
0.6853450284649849
% es.tEy (V/m) @ t=2.3
0
% es.tEz (V/m) @ t=2.3
-0.6757843824889935
% V (V) @ t=2.3
0.01756358941160914
% es.normE (V/m) @ t=2.4
1.073835052871217
% es.EX (V/m) @ t=2.4
0.7151210660663168
% es.EY (V/m) @ t=2.4
0.3208152527091621
% es.EZ (V/m) @ t=2.4
-0.7051440972139948
% es.tEX (V/m) @ t=2.4
0.7151210660663132
% es.tEY (V/m) @ t=2.4
0
% es.tEZ (V/m) @ t=2.4
-0.7051440972140064
% es.Ex (V/m) @ t=2.4
0.7151210660663168
% es.Ey (V/m) @ t=2.4
0.3208152527091621
% es.Ez (V/m) @ t=2.4
-0.7051440972139948
% es.tEx (V/m) @ t=2.4
0.7151210660663132
% es.tEy (V/m) @ t=2.4
0
% es.tEz (V/m) @ t=2.4
-0.7051440972140064
% V (V) @ t=2.4
0.018326712939079788
% es.normE (V/m) @ t=2.5
1.1201805552674797
% es.EX (V/m) @ t=2.5
0.745985159540103
% es.EY (V/m) @ t=2.5
0.33466099281409245
% es.EZ (V/m) @ t=2.5
-0.7355772208080475
% es.tEX (V/m) @ t=2.5
0.7459851595400959
% es.tEY (V/m) @ t=2.5
0
% es.tEZ (V/m) @ t=2.5
-0.7355772208080484
% es.Ex (V/m) @ t=2.5
0.745985159540103
% es.Ey (V/m) @ t=2.5
0.33466099281409245
% es.Ez (V/m) @ t=2.5
-0.7355772208080475
% es.tEx (V/m) @ t=2.5
0.7459851595400959
% es.tEy (V/m) @ t=2.5
0
% es.tEz (V/m) @ t=2.5
-0.7355772208080484
% V (V) @ t=2.5
0.019117696695443546
% es.normE (V/m) @ t=2.6
1.1681604972981052
% es.EX (V/m) @ t=2.6
0.7779373088863046
% es.EY (V/m) @ t=2.6
0.3489954338790695
% es.EZ (V/m) @ t=2.6
-0.7670837532711321
% es.tEX (V/m) @ t=2.6
0.7779373088863046
% es.tEY (V/m) @ t=2.6
0
% es.tEZ (V/m) @ t=2.6
-0.7670837532711268
% es.Ex (V/m) @ t=2.6
0.7779373088863046
% es.Ey (V/m) @ t=2.6
0.3489954338790695
% es.Ez (V/m) @ t=2.6
-0.7670837532711321
% es.tEx (V/m) @ t=2.6
0.7779373088863046
% es.tEy (V/m) @ t=2.6
0
% es.tEz (V/m) @ t=2.6
-0.7670837532711268
% V (V) @ t=2.6
0.01993654068070041
% es.normE (V/m) @ t=2.7
1.217774878963458
% es.EX (V/m) @ t=2.7
0.8109775141049589
% es.EY (V/m) @ t=2.7
0.3638185759041077
% es.EZ (V/m) @ t=2.7
-0.7996636946032805
% es.tEX (V/m) @ t=2.7
0.8109775141049482
% es.tEY (V/m) @ t=2.7
0
% es.tEZ (V/m) @ t=2.7
-0.7996636946032822
% es.Ex (V/m) @ t=2.7
0.8109775141049589
% es.Ey (V/m) @ t=2.7
0.3638185759041077
% es.Ez (V/m) @ t=2.7
-0.7996636946032805
% es.tEx (V/m) @ t=2.7
0.8109775141049482
% es.tEy (V/m) @ t=2.7
0
% es.tEz (V/m) @ t=2.7
-0.7996636946032822
% V (V) @ t=2.7
0.020783244894850367
% es.normE (V/m) @ t=2.8
1.2700681984974038
% es.EX (V/m) @ t=2.8
0.8458019222023019
% es.EY (V/m) @ t=2.8
0.37944190692267865
% es.EZ (V/m) @ t=2.8
-0.834002728394081
% es.tEX (V/m) @ t=2.8
0.8458019222022948
% es.tEY (V/m) @ t=2.8
0
% es.tEZ (V/m) @ t=2.8
-0.8340027283940792
% es.Ex (V/m) @ t=2.8
0.8458019222023019
% es.Ey (V/m) @ t=2.8
0.37944190692267865
% es.Ez (V/m) @ t=2.8
-0.834002728394081
% es.tEx (V/m) @ t=2.8
0.8458019222022948
% es.tEy (V/m) @ t=2.8
0
% es.tEz (V/m) @ t=2.8
-0.8340027283940792
% V (V) @ t=2.8
0.021675683600021724
% es.normE (V/m) @ t=2.9
1.3244235780729867
% es.EX (V/m) @ t=2.9
0.881999390642342
% es.EY (V/m) @ t=2.9
0.39568146294604833
% es.EZ (V/m) @ t=2.9
-0.8696958917730591
% es.tEX (V/m) @ t=2.9
0.8819993906423385
% es.tEY (V/m) @ t=2.9
0
% es.tEZ (V/m) @ t=2.9
-0.8696958917730591
% es.Ex (V/m) @ t=2.9
0.881999390642342
% es.Ey (V/m) @ t=2.9
0.39568146294604833
% es.Ez (V/m) @ t=2.9
-0.8696958917730591
% es.tEx (V/m) @ t=2.9
0.8819993906423385
% es.tEy (V/m) @ t=2.9
0
% es.tEz (V/m) @ t=2.9
-0.8696958917730591
% V (V) @ t=2.9
0.022603300305422968
% es.normE (V/m) @ t=3
1.3807647538248444
% es.EX (V/m) @ t=3
0.9195190903664532
% es.EY (V/m) @ t=3
0.4125145007269668
% es.EZ (V/m) @ t=3
-0.9066931196662189
% es.tEX (V/m) @ t=3
0.9195190903664532
% es.tEY (V/m) @ t=3
0
% es.tEZ (V/m) @ t=3
-0.9066931196662225
% es.Ex (V/m) @ t=3
0.9195190903664532
% es.Ey (V/m) @ t=3
0.4125145007269668
% es.Ez (V/m) @ t=3
-0.9066931196662189
% es.tEx (V/m) @ t=3
0.9195190903664532
% es.tEy (V/m) @ t=3
0
% es.tEz (V/m) @ t=3
-0.9066931196662225
% V (V) @ t=3
0.023564789924759785
% es.normE (V/m) @ t=3.1
1.4390917257536775
% es.EX (V/m) @ t=3.1
0.9583610213746638
% es.EY (V/m) @ t=3.1
0.4299410202653844
% es.EZ (V/m) @ t=3.1
-0.9449944120735942
% es.tEX (V/m) @ t=3.1
0.9583610213746567
% es.tEY (V/m) @ t=3.1
0
% es.tEZ (V/m) @ t=3.1
-0.9449944120736014
% es.Ex (V/m) @ t=3.1
0.9583610213746638
% es.Ey (V/m) @ t=3.1
0.4299410202653844
% es.Ez (V/m) @ t=3.1
-0.9449944120735942
% es.tEx (V/m) @ t=3.1
0.9583610213746567
% es.tEy (V/m) @ t=3.1
0
% es.tEz (V/m) @ t=3.1
-0.9449944120736014
% V (V) @ t=3.1
0.02456015245803221
% es.normE (V/m) @ t=3.2
1.4994044938602977
% es.EX (V/m) @ t=3.2
0.998525183666974
% es.EY (V/m) @ t=3.2
0.447961021561321
% es.EZ (V/m) @ t=3.2
-0.9845997689952117
% es.tEX (V/m) @ t=3.2
0.9985251836669669
% es.tEY (V/m) @ t=3.2
0
% es.tEZ (V/m) @ t=3.2
-0.9845997689952171
% es.Ex (V/m) @ t=3.2
0.998525183666974
% es.Ey (V/m) @ t=3.2
0.447961021561321
% es.Ez (V/m) @ t=3.2
-0.9845997689952117
% es.tEx (V/m) @ t=3.2
0.9985251836669669
% es.tEy (V/m) @ t=3.2
0
% es.tEz (V/m) @ t=3.2
-0.9845997689952171
% V (V) @ t=3.2
0.025589387905240204
% es.normE (V/m) @ t=3.3
1.5618713814013574
% es.EX (V/m) @ t=3.3
1.0401241938472392
% es.EY (V/m) @ t=3.3
0.4666242677693089
% es.EZ (V/m) @ t=3.3
-1.0256195420618592
% es.tEX (V/m) @ t=3.3
1.0401241938472339
% es.tEY (V/m) @ t=3.3
0
% es.tEZ (V/m) @ t=3.3
-1.0256195420618681
% es.Ex (V/m) @ t=3.3
1.0401241938472392
% es.Ey (V/m) @ t=3.3
0.4666242677693089
% es.Ez (V/m) @ t=3.3
-1.0256195420618592
% es.tEx (V/m) @ t=3.3
1.0401241938472339
% es.tEy (V/m) @ t=3.3
0
% es.tEz (V/m) @ t=3.3
-1.0256195420618681
% V (V) @ t=3.3
0.026655413258609678
% es.normE (V/m) @ t=3.4
1.6266994891020836
% es.EX (V/m) @ t=3.4
1.083296612569569
% es.EY (V/m) @ t=3.4
0.48599198623072404
% es.EZ (V/m) @ t=3.4
-1.0681895051614436
% es.tEX (V/m) @ t=3.4
1.083296612569562
% es.tEY (V/m) @ t=3.4
0
% es.tEZ (V/m) @ t=3.4
-1.0681895051614596
% es.Ex (V/m) @ t=3.4
1.083296612569569
% es.Ey (V/m) @ t=3.4
0.48599198623072404
% es.Ez (V/m) @ t=3.4
-1.0681895051614436
% es.tEx (V/m) @ t=3.4
1.083296612569562
% es.tEy (V/m) @ t=3.4
0
% es.tEz (V/m) @ t=3.4
-1.0681895051614596
% V (V) @ t=3.4
0.027761817512455655
% es.normE (V/m) @ t=3.5
1.6936623180704475
% es.EX (V/m) @ t=3.5
1.127890900845296
% es.EY (V/m) @ t=3.5
0.5059972147227794
% es.EZ (V/m) @ t=3.5
-1.1121611670949303
% es.tEX (V/m) @ t=3.5
1.1278909008453013
% es.tEY (V/m) @ t=3.5
0
% es.tEZ (V/m) @ t=3.5
-1.1121611670949392
% es.Ex (V/m) @ t=3.5
1.127890900845296
% es.Ey (V/m) @ t=3.5
0.5059972147227794
% es.Ez (V/m) @ t=3.5
-1.1121611670949303
% es.tEx (V/m) @ t=3.5
1.1278909008453013
% es.tEy (V/m) @ t=3.5
0
% es.tEz (V/m) @ t=3.5
-1.1121611670949392
% V (V) @ t=3.5
0.028904675507992115
% es.normE (V/m) @ t=3.6
1.7627598683070467
% es.EX (V/m) @ t=3.6
1.1739070586743807
% es.EY (V/m) @ t=3.6
0.5266399532454686
% es.EZ (V/m) @ t=3.6
-1.1575345278623903
% es.tEX (V/m) @ t=3.6
1.1739070586743807
% es.tEY (V/m) @ t=3.6
0
% es.tEZ (V/m) @ t=3.6
-1.157534527862385
% es.Ex (V/m) @ t=3.6
1.1739070586743807
% es.Ey (V/m) @ t=3.6
0.5266399532454686
% es.Ez (V/m) @ t=3.6
-1.1575345278623903
% es.tEx (V/m) @ t=3.6
1.1739070586743807
% es.tEy (V/m) @ t=3.6
0
% es.tEz (V/m) @ t=3.6
-1.157534527862385
% V (V) @ t=3.6
0.030083987245219074
% es.normE (V/m) @ t=3.7
1.833992139812601
% es.EX (V/m) @ t=3.7
1.2213450860568607
% es.EY (V/m) @ t=3.7
0.5479202017987852
% es.EZ (V/m) @ t=3.7
-1.2043095874637277
% es.tEX (V/m) @ t=3.7
1.2213450860568535
% es.tEY (V/m) @ t=3.7
0
% es.tEZ (V/m) @ t=3.7
-1.2043095874637224
% es.Ex (V/m) @ t=3.7
1.2213450860568607
% es.Ey (V/m) @ t=3.7
0.5479202017987852
% es.Ez (V/m) @ t=3.7
-1.2043095874637277
% es.tEx (V/m) @ t=3.7
1.2213450860568535
% es.tEy (V/m) @ t=3.7
0
% es.tEz (V/m) @ t=3.7
-1.2043095874637224
% V (V) @ t=3.7
0.03129975272413653
% es.normE (V/m) @ t=3.8
1.9073591325880188
% es.EX (V/m) @ t=3.8
1.2702049829926594
% es.EY (V/m) @ t=3.8
0.5698379603827504
% es.EZ (V/m) @ t=3.8
-1.2524863458990172
% es.tEX (V/m) @ t=3.8
1.2702049829926594
% es.tEY (V/m) @ t=3.8
0
% es.tEZ (V/m) @ t=3.8
-1.252486345899019
% es.Ex (V/m) @ t=3.8
1.2702049829926594
% es.Ey (V/m) @ t=3.8
0.5698379603827504
% es.Ez (V/m) @ t=3.8
-1.2524863458990172
% es.tEx (V/m) @ t=3.8
1.2702049829926594
% es.tEy (V/m) @ t=3.8
0
% es.tEz (V/m) @ t=3.8
-1.252486345899019
% V (V) @ t=3.8
0.0325519719447445
% es.normE (V/m) @ t=3.9
1.98235165525168
% es.EX (V/m) @ t=3.9
1.320145812315431
% es.EY (V/m) @ t=3.9
0.5922429531929376
% es.EZ (V/m) @ t=3.9
-1.3017310731182317
% es.tEX (V/m) @ t=3.9
1.320145812315424
% es.tEY (V/m) @ t=3.9
0
% es.tEZ (V/m) @ t=3.9
-1.3017310731182263
% es.Ex (V/m) @ t=3.9
1.320145812315431
% es.Ey (V/m) @ t=3.9
0.5922429531929376
% es.Ez (V/m) @ t=3.9
-1.3017310731182317
% es.tEx (V/m) @ t=3.9
1.320145812315424
% es.tEy (V/m) @ t=3.9
0
% es.tEz (V/m) @ t=3.9
-1.3017310731182263
% V (V) @ t=3.9
0.033831798096663285
% es.normE (V/m) @ t=4
2.0591017409902874
% es.EX (V/m) @ t=4
1.3712559789390042
% es.EY (V/m) @ t=4
0.6151741467042724
% es.EZ (V/m) @ t=4
-1.352130305231908
% es.tEX (V/m) @ t=4
1.371255978938997
% es.tEY (V/m) @ t=4
0
% es.tEZ (V/m) @ t=4
-1.352130305231917
% es.Ex (V/m) @ t=4
1.3712559789390042
% es.Ey (V/m) @ t=4
0.6151741467042724
% es.Ez (V/m) @ t=4
-1.352130305231908
% es.tEx (V/m) @ t=4
1.371255978938997
% es.tEy (V/m) @ t=4
0
% es.tEz (V/m) @ t=4
-1.352130305231917
% V (V) @ t=4
0.035141525155400255
% es.normE (V/m) @ t=4.1
2.137634942192415
% es.EX (V/m) @ t=4.1
1.4235525918669296
% es.EY (V/m) @ t=4.1
0.6386390820989267
% es.EZ (V/m) @ t=4.1
-1.403700789574069
% es.tEX (V/m) @ t=4.1
1.4235525918669154
% es.tEY (V/m) @ t=4.1
0
% es.tEZ (V/m) @ t=4.1
-1.4037007895740707
% es.Ex (V/m) @ t=4.1
1.4235525918669296
% es.Ey (V/m) @ t=4.1
0.6386390820989267
% es.Ez (V/m) @ t=4.1
-1.403700789574069
% es.tEx (V/m) @ t=4.1
1.4235525918669154
% es.tEy (V/m) @ t=4.1
0
% es.tEz (V/m) @ t=4.1
-1.4037007895740707
% V (V) @ t=4.1
0.03648159707405054
% es.normE (V/m) @ t=4.2
2.2179036274970247
% es.EX (V/m) @ t=4.2
1.4770037587594302
% es.EY (V/m) @ t=4.2
0.6626237021033505
% es.EZ (V/m) @ t=4.2
-1.4564113079813765
% es.tEX (V/m) @ t=4.2
1.4770037587594231
% es.tEY (V/m) @ t=4.2
0
% es.tEZ (V/m) @ t=4.2
-1.456411307981373
% es.Ex (V/m) @ t=4.2
1.4770037587594302
% es.Ey (V/m) @ t=4.2
0.6626237021033505
% es.Ez (V/m) @ t=4.2
-1.4564113079813765
% es.tEx (V/m) @ t=4.2
1.4770037587594231
% es.tEy (V/m) @ t=4.2
0
% es.tEz (V/m) @ t=4.2
-1.456411307981373
% V (V) @ t=4.2
0.03785118629402003
% es.normE (V/m) @ t=4.3
2.299860165548971
% es.EX (V/m) @ t=4.3
1.5315775872768214
% es.EY (V/m) @ t=4.3
0.6871139494439626
% es.EZ (V/m) @ t=4.3
-1.5102306422906864
% es.tEX (V/m) @ t=4.3
1.5315775872768214
% es.tEY (V/m) @ t=4.3
0
% es.tEZ (V/m) @ t=4.3
-1.5102306422906793
% es.Ex (V/m) @ t=4.3
1.5315775872768214
% es.Ey (V/m) @ t=4.3
0.6871139494439626
% es.Ez (V/m) @ t=4.3
-1.5102306422906864
% es.tEx (V/m) @ t=4.3
1.5315775872768214
% es.tEy (V/m) @ t=4.3
0
% es.tEz (V/m) @ t=4.3
-1.5102306422906793
% V (V) @ t=4.3
0.0392494652567146
% es.normE (V/m) @ t=4.4
2.3830397319668073
% es.EX (V/m) @ t=4.4
1.5869651173482104
% es.EY (V/m) @ t=4.4
0.7119703624679863
% es.EZ (V/m) @ t=4.4
-1.5648533574008567
% es.tEX (V/m) @ t=4.4
1.5869651173481962
% es.tEY (V/m) @ t=4.4
0
% es.tEZ (V/m) @ t=4.4
-1.5648533574008852
% es.Ex (V/m) @ t=4.4
1.5869651173482104
% es.Ey (V/m) @ t=4.4
0.7119703624679863
% es.Ez (V/m) @ t=4.4
-1.5648533574008567
% es.tEx (V/m) @ t=4.4
1.5869651173481962
% es.tEy (V/m) @ t=4.4
0
% es.tEz (V/m) @ t=4.4
-1.5648533574008852
% V (V) @ t=4.4
0.04066855120473409
% es.normE (V/m) @ t=4.5
2.4663690654543027
% es.EX (V/m) @ t=4.5
1.6424533116111633
% es.EY (V/m) @ t=4.5
0.7368705890007297
% es.EZ (V/m) @ t=4.5
-1.6195740985340485
% es.tEX (V/m) @ t=4.5
1.6424533116111562
% es.tEY (V/m) @ t=4.5
0
% es.tEZ (V/m) @ t=4.5
-1.619574098534052
% es.Ex (V/m) @ t=4.5
1.6424533116111633
% es.Ey (V/m) @ t=4.5
0.7368705890007297
% es.Ez (V/m) @ t=4.5
-1.6195740985340485
% es.tEx (V/m) @ t=4.5
1.6424533116111562
% es.tEy (V/m) @ t=4.5
0
% es.tEz (V/m) @ t=4.5
-1.619574098534052
% V (V) @ t=4.5
0.0420902720351381
% es.normE (V/m) @ t=4.6
2.550397428164428
% es.EX (V/m) @ t=4.6
1.6984066887909037
% es.EY (V/m) @ t=4.6
0.7619799924589143
% es.EZ (V/m) @ t=4.6
-1.6747539798562876
% es.tEX (V/m) @ t=4.6
1.6984066887909037
% es.tEY (V/m) @ t=4.6
0
% es.tEZ (V/m) @ t=4.6
-1.674753979856277
% es.Ex (V/m) @ t=4.6
1.6984066887909037
% es.Ey (V/m) @ t=4.6
0.7619799924589143
% es.Ez (V/m) @ t=4.6
-1.6747539798562876
% es.tEx (V/m) @ t=4.6
1.6984066887909037
% es.tEy (V/m) @ t=4.6
0
% es.tEz (V/m) @ t=4.6
-1.674753979856277
% V (V) @ t=4.6
0.04352389432357474
% es.normE (V/m) @ t=4.7
2.6349535716482038
% es.EX (V/m) @ t=4.7
1.7547112595273973
% es.EY (V/m) @ t=4.7
0.7872473574133423
% es.EZ (V/m) @ t=4.7
-1.7302805308931255
% es.tEX (V/m) @ t=4.7
1.7547112595273973
% es.tEY (V/m) @ t=4.7
0
% es.tEZ (V/m) @ t=4.7
-1.7302805308931397
% es.Ex (V/m) @ t=4.7
1.7547112595273973
% es.Ey (V/m) @ t=4.7
0.7872473574133423
% es.Ez (V/m) @ t=4.7
-1.7302805308931255
% es.tEx (V/m) @ t=4.7
1.7547112595273973
% es.tEy (V/m) @ t=4.7
0
% es.tEz (V/m) @ t=4.7
-1.7302805308931397
% V (V) @ t=4.7
0.04496650000889296
% es.normE (V/m) @ t=4.8
2.7198662474554647
% es.EX (V/m) @ t=4.8
1.811253034460492
% es.EY (V/m) @ t=4.8
0.8126214684347328
% es.EZ (V/m) @ t=4.8
-1.7860412811698545
% es.tEX (V/m) @ t=4.8
1.8112530344604778
% es.tEY (V/m) @ t=4.8
0
% es.tEZ (V/m) @ t=4.8
-1.7860412811698794
% es.Ex (V/m) @ t=4.8
1.811253034460492
% es.Ey (V/m) @ t=4.8
0.8126214684347328
% es.Ez (V/m) @ t=4.8
-1.7860412811698545
% es.tEx (V/m) @ t=4.8
1.8112530344604778
% es.tEy (V/m) @ t=4.8
0
% es.tEz (V/m) @ t=4.8
-1.7860412811698794
% V (V) @ t=4.8
0.0464151710299418
% es.normE (V/m) @ t=4.9
2.8049642071353276
% es.EX (V/m) @ t=4.9
1.8679180242300149
% es.EY (V/m) @ t=4.9
0.838051110093895
% es.EZ (V/m) @ t=4.9
-1.8419237602119978
% es.tEX (V/m) @ t=4.9
1.8679180242299935
% es.tEY (V/m) @ t=4.9
0
% es.tEZ (V/m) @ t=4.9
-1.841923760212012
% es.Ex (V/m) @ t=4.9
1.8679180242300149
% es.Ey (V/m) @ t=4.9
0.838051110093895
% es.Ez (V/m) @ t=4.9
-1.8419237602119978
% es.tEx (V/m) @ t=4.9
1.8679180242299935
% es.tEy (V/m) @ t=4.9
0
% es.tEz (V/m) @ t=4.9
-1.841923760212012
% V (V) @ t=4.9
0.04786698932557023
% es.normE (V/m) @ t=5
2.8888359806630985
% es.EX (V/m) @ t=5
1.9237706135923105
% es.EY (V/m) @ t=5
0.8631102252994394
% es.EZ (V/m) @ t=5
-1.8969996095698356
% es.tEX (V/m) @ t=5
1.9237706135923034
% es.tEY (V/m) @ t=5
0
% es.tEZ (V/m) @ t=5
-1.8969996095698463
% es.Ex (V/m) @ t=5
1.9237706135923105
% es.Ey (V/m) @ t=5
0.8631102252994394
% es.Ez (V/m) @ t=5
-1.8969996095698356
% es.tEx (V/m) @ t=5
1.9237706135923034
% es.tEy (V/m) @ t=5
0
% es.tEz (V/m) @ t=5
-1.8969996095698463
% V (V) @ t=5
0.049298236503580325
% es.normE (V/m) @ t=5.1
2.9714378979165597
% es.EX (V/m) @ t=5.1
1.9787813316844307
% es.EY (V/m) @ t=5.1
0.8877861575997326
% es.EZ (V/m) @ t=5.1
-1.9512402870225323
% es.tEX (V/m) @ t=5.1
1.9787813316844236
% es.tEY (V/m) @ t=5.1
0
% es.tEZ (V/m) @ t=5.1
-1.951240287022543
% es.Ex (V/m) @ t=5.1
1.9787813316844307
% es.Ey (V/m) @ t=5.1
0.8877861575997326
% es.Ez (V/m) @ t=5.1
-1.9512402870225323
% es.tEx (V/m) @ t=5.1
1.9787813316844236
% es.tEy (V/m) @ t=5.1
0
% es.tEz (V/m) @ t=5.1
-1.951240287022543
% V (V) @ t=5.1
0.05070813417825767
% es.normE (V/m) @ t=5.2
3.0527607393236225
% es.EX (V/m) @ t=5.2
2.0329435305304315
% es.EY (V/m) @ t=5.2
0.9120766627866237
% es.EZ (V/m) @ t=5.2
-2.004639913850017
% es.tEX (V/m) @ t=5.2
2.0329435305304244
% es.tEY (V/m) @ t=5.2
0
% es.tEZ (V/m) @ t=5.2
-2.004639913850049
% es.Ex (V/m) @ t=5.2
2.0329435305304315
% es.Ey (V/m) @ t=5.2
0.9120766627866237
% es.Ez (V/m) @ t=5.2
-2.004639913850017
% es.tEx (V/m) @ t=5.2
2.0329435305304244
% es.tEy (V/m) @ t=5.2
0
% es.tEz (V/m) @ t=5.2
-2.004639913850049
% V (V) @ t=5.2
0.05209648174948759
% es.normE (V/m) @ t=5.3
3.1325031151241944
% es.EX (V/m) @ t=5.3
2.0860570043082873
% es.EY (V/m) @ t=5.3
0.9358911918090875
% es.EZ (V/m) @ t=5.3
-2.057000405217547
% es.tEX (V/m) @ t=5.3
2.086057004308273
% es.tEY (V/m) @ t=5.3
0
% es.tEZ (V/m) @ t=5.3
-2.0570004052175648
% es.Ex (V/m) @ t=5.3
2.0860570043082873
% es.Ey (V/m) @ t=5.3
0.9358911918090875
% es.Ez (V/m) @ t=5.3