% Model:              1x1--2 - Copy1.mph
% Version:            COMSOL 6.1.0.252
% Date:               Mar 28 2023, 11:42
% Dimension:          0
% Nodes:              14017
% Expressions:        14017
% Description:        Electric field norm, Electric field, X component, Electric field, Y component, Electric field, Z component, Tangential electric field, X component, Tangential electric field, Y component, Tangential electric field, Z component, Electric field, x component, Electric field, y component, Electric field, z component, Tangential electric field, x component, Tangential electric field, y component, Tangential electric field, z component, Electric potential
% Length unit:        mm
% x
1.66
% y
12.2
% z
2
% es.normE (V/m) @ t=0
0.47914741906446756
% es.EX (V/m) @ t=0
0.24188486652904473
% es.EY (V/m) @ t=0
0.19021339776990143
% es.EZ (V/m) @ t=0
-0.31812674004518193
% es.tEX (V/m) @ t=0
0.24188486652904784
% es.tEY (V/m) @ t=0
0
% es.tEZ (V/m) @ t=0
-0.3181267400451775
% es.Ex (V/m) @ t=0
0.24188486652904473
% es.Ey (V/m) @ t=0
0.19021339776990143
% es.Ez (V/m) @ t=0
-0.31812674004518193
% es.tEx (V/m) @ t=0
0.24188486652904784
% es.tEy (V/m) @ t=0
0
% es.tEz (V/m) @ t=0
-0.3181267400451775
% V (V) @ t=0
0.013886093276687897
% es.normE (V/m) @ t=0.1
0.4925015756297616
% es.EX (V/m) @ t=0.1
0.2486258520078195
% es.EY (V/m) @ t=0.1
0.19551491848619396
% es.EZ (V/m) @ t=0.1
-0.32699346770799753
% es.tEX (V/m) @ t=0.1
0.24862585200782084
% es.tEY (V/m) @ t=0.1
0
% es.tEZ (V/m) @ t=0.1
-0.326993467707994
% es.Ex (V/m) @ t=0.1
0.2486258520078195
% es.Ey (V/m) @ t=0.1
0.19551491848619396
% es.Ez (V/m) @ t=0.1
-0.32699346770799753
% es.tEx (V/m) @ t=0.1
0.24862585200782084
% es.tEy (V/m) @ t=0.1
0
% es.tEz (V/m) @ t=0.1
-0.326993467707994
% V (V) @ t=0.1
0.014272982628813992
% es.normE (V/m) @ t=0.2
0.5225153057983292
% es.EX (V/m) @ t=0.2
0.2637773433146595
% es.EY (V/m) @ t=0.2
0.20742989990483096
% es.EZ (V/m) @ t=0.2
-0.346920973668047
% es.tEX (V/m) @ t=0.2
0.26377734331465863
% es.tEY (V/m) @ t=0.2
0
% es.tEZ (V/m) @ t=0.2
-0.3469209736680483
% es.Ex (V/m) @ t=0.2
0.2637773433146595
% es.Ey (V/m) @ t=0.2
0.20742989990483096
% es.Ez (V/m) @ t=0.2
-0.346920973668047
% es.tEx (V/m) @ t=0.2
0.26377734331465863
% es.tEy (V/m) @ t=0.2
0
% es.tEz (V/m) @ t=0.2
-0.3469209736680483
% V (V) @ t=0.2
0.015142780683268901
% es.normE (V/m) @ t=0.3
0.5538684026396951
% es.EX (V/m) @ t=0.3
0.2796056971822072
% es.EY (V/m) @ t=0.3
0.21987637441417718
% es.EZ (V/m) @ t=0.3
-0.3677372777761492
% es.tEX (V/m) @ t=0.3
0.27960569718221073
% es.tEY (V/m) @ t=0.3
0
% es.tEZ (V/m) @ t=0.3
-0.36773727777614695
% es.Ex (V/m) @ t=0.3
0.2796056971822072
% es.Ey (V/m) @ t=0.3
0.21987637441417718
% es.Ez (V/m) @ t=0.3
-0.3677372777761492
% es.tEx (V/m) @ t=0.3
0.27960569718221073
% es.tEy (V/m) @ t=0.3
0
% es.tEz (V/m) @ t=0.3
-0.36773727777614695
% V (V) @ t=0.3
0.01605159118245441
% es.normE (V/m) @ t=0.4
0.5871056151542823
% es.EX (V/m) @ t=0.4
0.29638389915334784
% es.EY (V/m) @ t=0.4
0.23307119414187305
% es.EZ (V/m) @ t=0.4
-0.3898053672073716
% es.tEX (V/m) @ t=0.4
0.29638389915334784
% es.tEY (V/m) @ t=0.4
0
% es.tEZ (V/m) @ t=0.4
-0.3898053672073676
% es.Ex (V/m) @ t=0.4
0.29638389915334784
% es.Ey (V/m) @ t=0.4
0.23307119414187305
% es.Ez (V/m) @ t=0.4
-0.3898053672073716
% es.tEx (V/m) @ t=0.4
0.29638389915334784
% es.tEy (V/m) @ t=0.4
0
% es.tEz (V/m) @ t=0.4
-0.3898053672073676
% V (V) @ t=0.4
0.017014654124349635
% es.normE (V/m) @ t=0.5
0.622348472880753
% es.EX (V/m) @ t=0.5
0.3141754741232381
% es.EY (V/m) @ t=0.5
0.24706196156923355
% es.EZ (V/m) @ t=0.5
-0.4132045239699167
% es.tEX (V/m) @ t=0.5
0.314175474123239
% es.tEY (V/m) @ t=0.5
0
% es.tEZ (V/m) @ t=0.5
-0.41320452396991136
% es.Ex (V/m) @ t=0.5
0.3141754741232381
% es.Ey (V/m) @ t=0.5
0.24706196156923355
% es.Ez (V/m) @ t=0.5
-0.4132045239699167
% es.tEx (V/m) @ t=0.5
0.314175474123239
% es.tEy (V/m) @ t=0.5
0
% es.tEz (V/m) @ t=0.5
-0.41320452396991136
% V (V) @ t=0.5
0.018036082230498168
% es.normE (V/m) @ t=0.6
0.6586457418059806
% es.EX (V/m) @ t=0.6
0.3324996044208799
% es.EY (V/m) @ t=0.6
0.2614712341596306
% es.EZ (V/m) @ t=0.6
-0.4373035790786006
% es.tEX (V/m) @ t=0.6
0.33249960442088344
% es.tEY (V/m) @ t=0.6
0
% es.tEZ (V/m) @ t=0.6
-0.4373035790785966
% es.Ex (V/m) @ t=0.6
0.3324996044208799
% es.Ey (V/m) @ t=0.6
0.2614712341596306
% es.Ez (V/m) @ t=0.6
-0.4373035790786006
% es.tEx (V/m) @ t=0.6
0.33249960442088344
% es.tEy (V/m) @ t=0.6
0
% es.tEz (V/m) @ t=0.6
-0.4373035790785966
% V (V) @ t=0.6
0.019088140691847152
% es.normE (V/m) @ t=0.7
0.6968340233049761
% es.EX (V/m) @ t=0.7
0.351778499706783
% es.EY (V/m) @ t=0.7
0.27663116565123325
% es.EZ (V/m) @ t=0.7
-0.4626580700119809
% es.tEX (V/m) @ t=0.7
0.35177849970678654
% es.tEY (V/m) @ t=0.7
0
% es.tEZ (V/m) @ t=0.7
-0.46265807001197246
% es.Ex (V/m) @ t=0.7
0.351778499706783
% es.Ey (V/m) @ t=0.7
0.27663116565123325
% es.Ez (V/m) @ t=0.7
-0.4626580700119809
% es.tEx (V/m) @ t=0.7
0.35177849970678654
% es.tEy (V/m) @ t=0.7
0
% es.tEz (V/m) @ t=0.7
-0.46265807001197246
% V (V) @ t=0.7
0.020195041355974254
% es.normE (V/m) @ t=0.8
0.7365463008474396
% es.EX (V/m) @ t=0.8
0.3718268547436381
% es.EY (V/m) @ t=0.8
0.2923960646671091
% es.EZ (V/m) @ t=0.8
-0.48902433593599737
% es.tEX (V/m) @ t=0.8
0.3718268547436443
% es.tEY (V/m) @ t=0.8
0
% es.tEZ (V/m) @ t=0.8
-0.48902433593598715
% es.Ex (V/m) @ t=0.8
0.3718268547436381
% es.Ey (V/m) @ t=0.8
0.2923960646671091
% es.Ez (V/m) @ t=0.8
-0.48902433593599737
% es.tEx (V/m) @ t=0.8
0.3718268547436443
% es.tEy (V/m) @ t=0.8
0
% es.tEz (V/m) @ t=0.8
-0.48902433593598715
% V (V) @ t=0.8
0.021346140192647547
% es.normE (V/m) @ t=0.9
0.778226912757773
% es.EX (V/m) @ t=0.9
0.39286847412613923
% es.EY (V/m) @ t=0.9
0.3089424760438213
% es.EZ (V/m) @ t=0.9
-0.5166977207999417
% es.tEX (V/m) @ t=0.9
0.3928684741261428
% es.tEY (V/m) @ t=0.9
0
% es.tEZ (V/m) @ t=0.9
-0.5166977207999306
% es.Ex (V/m) @ t=0.9
0.39286847412613923
% es.Ey (V/m) @ t=0.9
0.3089424760438213
% es.Ez (V/m) @ t=0.9
-0.5166977207999417
% es.tEx (V/m) @ t=0.9
0.3928684741261428
% es.tEy (V/m) @ t=0.9
0
% es.tEz (V/m) @ t=0.9
-0.5166977207999306
% V (V) @ t=0.9
0.022554176936896684
% es.normE (V/m) @ t=1
0.8220885033717924
% es.EX (V/m) @ t=1
0.41501046268162156
% es.EY (V/m) @ t=1
0.32635488778864996
% es.EZ (V/m) @ t=1
-0.5458195655923839
% es.tEX (V/m) @ t=1
0.4150104626816198
% es.tEY (V/m) @ t=1
0
% es.tEZ (V/m) @ t=1
-0.5458195655923888
% es.Ex (V/m) @ t=1
0.41501046268162156
% es.Ey (V/m) @ t=1
0.32635488778864996
% es.Ez (V/m) @ t=1
-0.5458195655923839
% es.tEx (V/m) @ t=1
0.4150104626816198
% es.tEy (V/m) @ t=1
0
% es.tEz (V/m) @ t=1
-0.5458195655923888
% V (V) @ t=1
0.02382524836757723
% es.normE (V/m) @ t=1.1
0.8679157067461127
% es.EX (V/m) @ t=1.1
0.4381443447615858
% es.EY (V/m) @ t=1.1
0.3445477305429634
% es.EZ (V/m) @ t=1.1
-0.5762467203192805
% es.tEX (V/m) @ t=1.1
0.4381443447615876
% es.tEY (V/m) @ t=1.1
0
% es.tEZ (V/m) @ t=1.1
-0.576246720319272
% es.Ex (V/m) @ t=1.1
0.4381443447615858
% es.Ey (V/m) @ t=1.1
0.3445477305429634
% es.Ez (V/m) @ t=1.1
-0.5762467203192805
% es.tEx (V/m) @ t=1.1
0.4381443447615876
% es.tEy (V/m) @ t=1.1
0
% es.tEz (V/m) @ t=1.1
-0.576246720319272
% V (V) @ t=1.1
0.025153179673930538
% es.normE (V/m) @ t=1.2
0.9160462867638892
% es.EX (V/m) @ t=1.2
0.4624412608386148
% es.EY (V/m) @ t=1.2
0.36365490476253015
% es.EZ (V/m) @ t=1.2
-0.608203033778902
% es.tEX (V/m) @ t=1.2
0.4624412608386175
% es.tEY (V/m) @ t=1.2
0
% es.tEZ (V/m) @ t=1.2
-0.6082030337789099
% es.Ex (V/m) @ t=1.2
0.4624412608386148
% es.Ey (V/m) @ t=1.2
0.36365490476253015
% es.Ez (V/m) @ t=1.2
-0.608203033778902
% es.tEx (V/m) @ t=1.2
0.4624412608386175
% es.tEy (V/m) @ t=1.2
0
% es.tEz (V/m) @ t=1.2
-0.6082030337789099
% V (V) @ t=1.2
0.026547930671728608
% es.normE (V/m) @ t=1.3
0.9664448989980243
% es.EX (V/m) @ t=1.3
0.4878833023613378
% es.EY (V/m) @ t=1.3
0.38366239878096664
% es.EZ (V/m) @ t=1.3
-0.6416650818936693
% es.tEX (V/m) @ t=1.3
0.48788330236134225
% es.tEY (V/m) @ t=1.3
0
% es.tEZ (V/m) @ t=1.3
-0.641665081893672
% es.Ex (V/m) @ t=1.3
0.4878833023613378
% es.Ey (V/m) @ t=1.3
0.38366239878096664
% es.Ez (V/m) @ t=1.3
-0.6416650818936693
% es.tEx (V/m) @ t=1.3
0.48788330236134225
% es.tEy (V/m) @ t=1.3
0
% es.tEz (V/m) @ t=1.3
-0.641665081893672
% V (V) @ t=1.3
0.028008459141853886
% es.normE (V/m) @ t=1.4
1.0190469646322753
% es.EX (V/m) @ t=1.4
0.5144377481014253
% es.EY (V/m) @ t=1.4
0.404544611480647
% es.EZ (V/m) @ t=1.4
-0.6765900658590485
% es.tEX (V/m) @ t=1.4
0.5144377481014297
% es.tEY (V/m) @ t=1.4
0
% es.tEZ (V/m) @ t=1.4
-0.67659006585904
% es.Ex (V/m) @ t=1.4
0.5144377481014253
% es.Ey (V/m) @ t=1.4
0.404544611480647
% es.Ez (V/m) @ t=1.4
-0.6765900658590485
% es.tEx (V/m) @ t=1.4
0.5144377481014297
% es.tEy (V/m) @ t=1.4
0
% es.tEz (V/m) @ t=1.4
-0.67659006585904
% V (V) @ t=1.4
0.02953286081583535
% es.normE (V/m) @ t=1.5
1.0740460789229962
% es.EX (V/m) @ t=1.5
0.5422023358784163
% es.EY (V/m) @ t=1.5
0.4263783951747868
% es.EZ (V/m) @ t=1.5
-0.7131065181177485
% es.tEX (V/m) @ t=1.5
0.542202335878418
% es.tEY (V/m) @ t=1.5
0
% es.tEZ (V/m) @ t=1.5
-0.7131065181177441
% es.Ex (V/m) @ t=1.5
0.5422023358784163
% es.Ey (V/m) @ t=1.5
0.4263783951747868
% es.Ez (V/m) @ t=1.5
-0.7131065181177485
% es.tEx (V/m) @ t=1.5
0.542202335878418
% es.tEy (V/m) @ t=1.5
0
% es.tEz (V/m) @ t=1.5
-0.7131065181177441
% V (V) @ t=1.5
0.031126747036012554
% es.normE (V/m) @ t=1.6
1.1313536737511964
% es.EX (V/m) @ t=1.6
0.5711323515036444
% es.EY (V/m) @ t=1.6
0.44912859060921484
% es.EZ (V/m) @ t=1.6
-0.751155636213114
% es.tEX (V/m) @ t=1.6
0.5711323515036497
% es.tEY (V/m) @ t=1.6
0
% es.tEZ (V/m) @ t=1.6
-0.751155636213106
% es.Ex (V/m) @ t=1.6
0.5711323515036444
% es.Ey (V/m) @ t=1.6
0.44912859060921484
% es.Ez (V/m) @ t=1.6
-0.751155636213114
% es.tEx (V/m) @ t=1.6
0.5711323515036497
% es.tEy (V/m) @ t=1.6
0
% es.tEz (V/m) @ t=1.6
-0.751155636213106
% V (V) @ t=1.6
0.032787550662857136
% es.normE (V/m) @ t=1.7
1.1909680709283808
% es.EX (V/m) @ t=1.7
0.601226947732771
% es.EY (V/m) @ t=1.7
0.4727945315865014
% es.EZ (V/m) @ t=1.7
-0.7907363059563908
% es.tEX (V/m) @ t=1.7
0.6012269477327727
% es.tEY (V/m) @ t=1.7
0
% es.tEZ (V/m) @ t=1.7
-0.7907363059563828
% es.Ex (V/m) @ t=1.7
0.601226947732771
% es.Ey (V/m) @ t=1.7
0.4727945315865014
% es.Ez (V/m) @ t=1.7
-0.7907363059563908
% es.tEx (V/m) @ t=1.7
0.6012269477327727
% es.tEy (V/m) @ t=1.7
0
% es.tEz (V/m) @ t=1.7
-0.7907363059563828
% V (V) @ t=1.7
0.03451522305421433
% es.normE (V/m) @ t=1.8
1.2528892704544712
% es.EX (V/m) @ t=1.8
0.632486124565764
% es.EY (V/m) @ t=1.8
0.4973762181066448
% es.EZ (V/m) @ t=1.8
-0.8318485273475353
% es.tEX (V/m) @ t=1.8
0.6324861245657658
% es.tEY (V/m) @ t=1.8
0
% es.tEZ (V/m) @ t=1.8
-0.831848527347546
% es.Ex (V/m) @ t=1.8
0.632486124565764
% es.Ey (V/m) @ t=1.8
0.4973762181066448
% es.Ez (V/m) @ t=1.8
-0.8318485273475353
% es.tEx (V/m) @ t=1.8
0.6324861245657658
% es.tEy (V/m) @ t=1.8
0
% es.tEz (V/m) @ t=1.8
-0.831848527347546
% V (V) @ t=1.8
0.03630976421008411
% es.normE (V/m) @ t=1.9
1.317117272329575
% es.EX (V/m) @ t=1.9
0.6649098820026609
% es.EY (V/m) @ t=1.9
0.5228736501697
% es.EZ (V/m) @ t=1.9
-0.8744923003866054
% es.tEX (V/m) @ t=1.9
0.6649098820026698
% es.tEY (V/m) @ t=1.9
0
% es.tEZ (V/m) @ t=1.9
-0.8744923003866205
% es.Ex (V/m) @ t=1.9
0.6649098820026609
% es.Ey (V/m) @ t=1.9
0.5228736501697
% es.Ez (V/m) @ t=1.9
-0.8744923003866054
% es.tEx (V/m) @ t=1.9
0.6649098820026698
% es.tEy (V/m) @ t=1.9
0
% es.tEz (V/m) @ t=1.9
-0.8744923003866205
% V (V) @ t=1.9
0.03817117413046652
% es.normE (V/m) @ t=2
1.3831183491138992
% es.EX (V/m) @ t=2
0.6982293903602859
% es.EY (V/m) @ t=2
0.5490747680092163
% es.EZ (V/m) @ t=2
-0.9183128661371205
% es.tEX (V/m) @ t=2
0.6982293903602894
% es.tEY (V/m) @ t=2
0
% es.tEZ (V/m) @ t=2
-0.9183128661371178
% es.Ex (V/m) @ t=2
0.6982293903602859
% es.Ey (V/m) @ t=2
0.5490747680092163
% es.Ez (V/m) @ t=2
-0.9183128661371205
% es.tEx (V/m) @ t=2
0.6982293903602894
% es.tEy (V/m) @ t=2
0
% es.tEz (V/m) @ t=2
-0.9183128661371178
% V (V) @ t=2
0.04008414867874324
% es.normE (V/m) @ t=2.1
1.450248728345112
% es.EX (V/m) @ t=2.1
0.7321203920961956
% es.EY (V/m) @ t=2.1
0.5757237889383795
% es.EZ (V/m) @ t=2.1
-0.9628823207325379
% es.tEX (V/m) @ t=2.1
0.7321203920962098
% es.tEY (V/m) @ t=2.1
0
% es.tEZ (V/m) @ t=2.1
-0.962882320732561
% es.Ex (V/m) @ t=2.1
0.7321203920961956
% es.Ey (V/m) @ t=2.1
0.5757237889383795
% es.Ez (V/m) @ t=2.1
-0.9628823207325379
% es.tEx (V/m) @ t=2.1
0.7321203920962098
% es.tEy (V/m) @ t=2.1
0
% es.tEz (V/m) @ t=2.1
-0.962882320732561
% V (V) @ t=2.1
0.04203022827979991
% es.normE (V/m) @ t=2.2
1.5192216810125942
% es.EX (V/m) @ t=2.2
0.7669421500077611
% es.EY (V/m) @ t=2.2
0.6031041086891804
% es.EZ (V/m) @ t=2.2
-1.00867476244352
% es.tEX (V/m) @ t=2.2
0.7669421500077629
% es.tEY (V/m) @ t=2.2
0
% es.tEZ (V/m) @ t=2.2
-1.008674762443519
% es.Ex (V/m) @ t=2.2
0.7669421500077611
% es.Ey (V/m) @ t=2.2
0.6031041086891804
% es.Ez (V/m) @ t=2.2
-1.00867476244352
% es.tEx (V/m) @ t=2.2
0.7669421500077629
% es.tEy (V/m) @ t=2.2
0
% es.tEz (V/m) @ t=2.2
-1.008674762443519
% V (V) @ t=2.2
0.04402986531399932
% es.normE (V/m) @ t=2.3
1.5900372071198392
% es.EX (V/m) @ t=2.3
0.8026946640949362
% es.EY (V/m) @ t=2.3
0.6312157272616901
% es.EZ (V/m) @ t=2.3
-1.0556901912700134
% es.tEX (V/m) @ t=2.3
0.8026946640949344
% es.tEY (V/m) @ t=2.3
0
% es.tEZ (V/m) @ t=2.3
-1.055690191269985
% es.Ex (V/m) @ t=2.3
0.8026946640949362
% es.Ey (V/m) @ t=2.3
0.6312157272616901
% es.Ez (V/m) @ t=2.3
-1.0556901912700134
% es.tEx (V/m) @ t=2.3
0.8026946640949344
% es.tEy (V/m) @ t=2.3
0
% es.tEz (V/m) @ t=2.3
-1.055690191269985
% V (V) @ t=2.3
0.04608305978134145
% es.normE (V/m) @ t=2.4
1.6626953066708259
% es.EX (V/m) @ t=2.4
0.839377934357767
% es.EY (V/m) @ t=2.4
0.6600586446558623
% es.EZ (V/m) @ t=2.4
-1.103928607212029
% es.tEX (V/m) @ t=2.4
0.839377934357783
% es.tEY (V/m) @ t=2.4
0
% es.tEZ (V/m) @ t=2.4
-1.1039286072120298
% es.Ex (V/m) @ t=2.4
0.839377934357767
% es.Ey (V/m) @ t=2.4
0.6600586446558623
% es.Ez (V/m) @ t=2.4
-1.103928607212029
% es.tEx (V/m) @ t=2.4
0.839377934357783
% es.tEy (V/m) @ t=2.4
0
% es.tEz (V/m) @ t=2.4
-1.1039286072120298
% V (V) @ t=2.4
0.04818981168182633
% es.normE (V/m) @ t=2.5
1.737195979669595
% es.EX (V/m) @ t=2.5
0.8769919607962571
% es.EY (V/m) @ t=2.5
0.6896328608717148
% es.EZ (V/m) @ t=2.5
-1.153390010269593
% es.tEX (V/m) @ t=2.5
0.8769919607962695
% es.tEY (V/m) @ t=2.5
0
% es.tEZ (V/m) @ t=2.5
-1.1533900102696073
% es.Ex (V/m) @ t=2.5
0.8769919607962571
% es.Ey (V/m) @ t=2.5
0.6896328608717148
% es.Ez (V/m) @ t=2.5
-1.153390010269593
% es.tEx (V/m) @ t=2.5
0.8769919607962695
% es.tEy (V/m) @ t=2.5
0
% es.tEz (V/m) @ t=2.5
-1.1533900102696073
% V (V) @ t=2.5
0.05035012101545393
% es.normE (V/m) @ t=2.6
1.8110387021917576
% es.EX (V/m) @ t=2.6
0.9142669278926974
% es.EY (V/m) @ t=2.6
0.7189479241586056
% es.EZ (V/m) @ t=2.6
-1.202419050027709
% es.tEX (V/m) @ t=2.6
0.9142669278927045
% es.tEY (V/m) @ t=2.6
0
% es.tEZ (V/m) @ t=2.6
-1.2024190500277214
% es.Ex (V/m) @ t=2.6
0.9142669278926974
% es.Ey (V/m) @ t=2.6
0.7189479241586056
% es.Ez (V/m) @ t=2.6
-1.202419050027709
% es.tEx (V/m) @ t=2.6
0.9142669278927045
% es.tEy (V/m) @ t=2.6
0
% es.tEz (V/m) @ t=2.6
-1.2024190500277214
% V (V) @ t=2.6
0.05248947610137272
% es.normE (V/m) @ t=2.7
1.8851229649607337
% es.EX (V/m) @ t=2.7
0.9516596148176824
% es.EY (V/m) @ t=2.7
0.7483601207037154
% es.EZ (V/m) @ t=2.7
-1.2516111906141418
% es.tEX (V/m) @ t=2.7
0.9516596148176912
% es.tEY (V/m) @ t=2.7
0
% es.tEZ (V/m) @ t=2.7
-1.251611190614149
% es.Ex (V/m) @ t=2.7
0.9516596148176824
% es.Ey (V/m) @ t=2.7
0.7483601207037154
% es.Ez (V/m) @ t=2.7
-1.2516111906141418
% es.tEx (V/m) @ t=2.7
0.9516596148176912
% es.tEy (V/m) @ t=2.7
0
% es.tEz (V/m) @ t=2.7
-1.251611190614149
% V (V) @ t=2.7
0.054634680347878765
% es.normE (V/m) @ t=2.8
1.9600449584407706
% es.EX (V/m) @ t=2.8
0.9894727788633944
% es.EY (V/m) @ t=2.8
0.7781056001570192
% es.EZ (V/m) @ t=2.8
-1.3013611109426524
% es.tEX (V/m) @ t=2.8
0.9894727788633979
% es.tEY (V/m) @ t=2.8
0
% es.tEZ (V/m) @ t=2.8
-1.3013611109426613
% es.Ex (V/m) @ t=2.8
0.9894727788633944
% es.Ey (V/m) @ t=2.8
0.7781056001570192
% es.Ez (V/m) @ t=2.8
-1.3013611109426524
% es.tEx (V/m) @ t=2.8
0.9894727788633979
% es.tEy (V/m) @ t=2.8
0
% es.tEz (V/m) @ t=2.8
-1.3013611109426613
% V (V) @ t=2.8
0.056803499292100865
% es.normE (V/m) @ t=2.9
2.0358046826779708
% es.EX (V/m) @ t=2.9
1.0277064200298014
% es.EY (V/m) @ t=2.9
0.8081843625184852
% es.EZ (V/m) @ t=2.9
-1.351668811013191
% es.tEX (V/m) @ t=2.9
1.0277064200298067
% es.tEY (V/m) @ t=2.9
0
% es.tEZ (V/m) @ t=2.9
-1.3516688110131696
% es.Ex (V/m) @ t=2.9
1.0277064200298014
% es.Ey (V/m) @ t=2.9
0.8081843625184852
% es.Ez (V/m) @ t=2.9
-1.351668811013191
% es.tEx (V/m) @ t=2.9
1.0277064200298067
% es.tEy (V/m) @ t=2.9
0
% es.tEz (V/m) @ t=2.9
-1.3516688110131696
% V (V) @ t=2.9
0.05899593293403907
% es.normE (V/m) @ t=3
2.112402137724631
% es.EX (V/m) @ t=3
1.0663605383169141
% es.EY (V/m) @ t=3
0.838596407788085
% es.EZ (V/m) @ t=3
-1.4025342908257468
% es.tEX (V/m) @ t=3
1.0663605383169248
% es.tEY (V/m) @ t=3
0
% es.tEZ (V/m) @ t=3
-1.4025342908257308
% es.Ex (V/m) @ t=3
1.0663605383169141
% es.Ey (V/m) @ t=3
0.838596407788085
% es.Ez (V/m) @ t=3
-1.4025342908257468
% es.tEx (V/m) @ t=3
1.0663605383169248
% es.tEy (V/m) @ t=3
0
% es.tEz (V/m) @ t=3
-1.4025342908257308
% V (V) @ t=3
0.0612119812736933
% es.normE (V/m) @ t=3.1
2.1893702184886292
% es.EX (V/m) @ t=3.1
1.1052021511464858
% es.EY (V/m) @ t=3.1
0.8691554694675183
% es.EZ (V/m) @ t=3.1
-1.4536455915564996
% es.tEX (V/m) @ t=3.1
1.105202151146493
% es.tEY (V/m) @ t=3.1
0
% es.tEZ (V/m) @ t=3.1
-1.4536455915565014
% es.Ex (V/m) @ t=3.1
1.1052021511464858
% es.Ey (V/m) @ t=3.1
0.8691554694675183
% es.Ez (V/m) @ t=3.1
-1.4536455915564996
% es.tEx (V/m) @ t=3.1
1.105202151146493
% es.tEy (V/m) @ t=3.1
0
% es.tEz (V/m) @ t=3.1
-1.4536455915565014
% V (V) @ t=3.1
0.06343887317049447
% es.normE (V/m) @ t=3.2
2.2644352048222576
% es.EX (V/m) @ t=3.2
1.143097173034814
% es.EY (V/m) @ t=3.2
0.8989548611706333
% es.EZ (V/m) @ t=3.2
-1.503484196343079
% es.tEX (V/m) @ t=3.2
1.1430971730348212
% es.tEY (V/m) @ t=3.2
0
% es.tEZ (V/m) @ t=3.2
-1.5034841963430736
% es.Ex (V/m) @ t=3.2
1.143097173034814
% es.Ey (V/m) @ t=3.2
0.8989548611706333
% es.Ez (V/m) @ t=3.2
-1.503484196343079
% es.tEx (V/m) @ t=3.2
1.1430971730348212
% es.tEy (V/m) @ t=3.2
0
% es.tEz (V/m) @ t=3.2
-1.5034841963430736
% V (V) @ t=3.2
0.06561444275246328
% es.normE (V/m) @ t=3.3
2.3394154158187446
% es.EX (V/m) @ t=3.3
1.1809525447063969
% es.EY (V/m) @ t=3.3
0.9287196700445435
% es.EZ (V/m) @ t=3.3
-1.5532644799420954
% es.tEX (V/m) @ t=3.3
1.1809525447064075
% es.tEY (V/m) @ t=3.3
0
% es.tEZ (V/m) @ t=3.3
-1.5532644799420865
% es.Ex (V/m) @ t=3.3
1.1809525447063969
% es.Ey (V/m) @ t=3.3
0.9287196700445435
% es.Ez (V/m) @ t=3.3
-1.5532644799420954
% es.tEx (V/m) @ t=3.3
1.1809525447064075
% es.tEy (V/m) @ t=3.3
0
% es.tEz (V/m) @ t=3.3
-1.5532644799420865
% V (V) @ t=3.3
0.06778840475608194
% es.normE (V/m) @ t=3.4
2.414310851507539
% es.EX (V/m) @ t=3.4
1.2187682661612236
% es.EY (V/m) @ t=3.4
0.9584498960892489
% es.EZ (V/m) @ t=3.4
-1.6029864423535667
% es.tEX (V/m) @ t=3.4
1.2187682661612271
% es.tEY (V/m) @ t=3.4
0
% es.tEZ (V/m) @ t=3.4
-1.602986442353611
% es.Ex (V/m) @ t=3.4
1.2187682661612236
% es.Ey (V/m) @ t=3.4
0.9584498960892489
% es.Ez (V/m) @ t=3.4
-1.6029864423535667
% es.tEx (V/m) @ t=3.4
1.2187682661612271
% es.tEy (V/m) @ t=3.4
0
% es.tEz (V/m) @ t=3.4
-1.602986442353611
% V (V) @ t=3.4
0.0699607591813505
% es.normE (V/m) @ t=3.5
2.489121511933007
% es.EX (V/m) @ t=3.5
1.2565443373992906
% es.EY (V/m) @ t=3.5
0.988145539304675
% es.EZ (V/m) @ t=3.5
-1.6526500835775604
% es.tEX (V/m) @ t=3.5
1.2565443373993013
% es.tEY (V/m) @ t=3.5
0
% es.tEZ (V/m) @ t=3.5
-1.6526500835775622
% es.Ex (V/m) @ t=3.5
1.2565443373992906
% es.Ey (V/m) @ t=3.5
0.988145539304675
% es.Ez (V/m) @ t=3.5
-1.6526500835775604
% es.tEx (V/m) @ t=3.5
1.2565443373993013
% es.tEy (V/m) @ t=3.5
0
% es.tEz (V/m) @ t=3.5
-1.6526500835775622
% V (V) @ t=3.5
0.07213150602826894
% es.normE (V/m) @ t=3.6
2.5636588551560315
% es.EX (V/m) @ t=3.6
1.2941846527366394
% es.EY (V/m) @ t=3.6
1.0177320250446016
% es.EZ (V/m) @ t=3.6
-1.702130821691851
% es.tEX (V/m) @ t=3.6
1.2941846527366536
% es.tEY (V/m) @ t=3.6
0
% es.tEZ (V/m) @ t=3.6
-1.7021308216918527
% es.Ex (V/m) @ t=3.6
1.2941846527366394
% es.Ey (V/m) @ t=3.6
1.0177320250446016
% es.Ez (V/m) @ t=3.6
-1.702130821691851
% es.tEx (V/m) @ t=3.6
1.2941846527366536
% es.tEy (V/m) @ t=3.6
0
% es.tEz (V/m) @ t=3.6
-1.7021308216918527
% V (V) @ t=3.6
0.07429492933750895
% es.normE (V/m) @ t=3.7
2.6365497645042124
% es.EX (V/m) @ t=3.7
1.330989292156886
% es.EY (V/m) @ t=3.7
1.0466662398800395
% es.EZ (V/m) @ t=3.7
-1.7505213494766227
% es.tEX (V/m) @ t=3.7
1.3309892921568824
% es.tEY (V/m) @ t=3.7
0
% es.tEZ (V/m) @ t=3.7
-1.7505213494766352
% es.Ex (V/m) @ t=3.7
1.330989292156886
% es.Ey (V/m) @ t=3.7
1.0466662398800395
% es.Ez (V/m) @ t=3.7
-1.7505213494766227
% es.tEx (V/m) @ t=3.7
1.3309892921568824
% es.tEy (V/m) @ t=3.7
0
% es.tEz (V/m) @ t=3.7
-1.7505213494766352
% V (V) @ t=3.7
0.07640940082881532
% es.normE (V/m) @ t=3.8
2.7088008513050528
% es.EX (V/m) @ t=3.8
1.367471356586833
% es.EY (V/m) @ t=3.8
1.075346332166795
% es.EZ (V/m) @ t=3.8
-1.7984868003250334
% es.tEX (V/m) @ t=3.8
1.3674713565868508
% es.tEY (V/m) @ t=3.8
0
% es.tEZ (V/m) @ t=3.8
-1.7984868003250227
% es.Ex (V/m) @ t=3.8
1.367471356586833
% es.Ey (V/m) @ t=3.8
1.075346332166795
% es.Ez (V/m) @ t=3.8
-1.7984868003250334
% es.tEx (V/m) @ t=3.8
1.3674713565868508
% es.tEy (V/m) @ t=3.8
0
% es.tEz (V/m) @ t=3.8
-1.7984868003250227
% V (V) @ t=3.8
0.07850543757368345
% es.normE (V/m) @ t=3.9
2.780412115561446
% es.EX (V/m) @ t=3.9
1.4036308460265445
% es.EY (V/m) @ t=3.9
1.1037723019050318
% es.EZ (V/m) @ t=3.9
-1.8460271742370367
% es.tEX (V/m) @ t=3.9
1.403630846026541
% es.tEY (V/m) @ t=3.9
0
% es.tEZ (V/m) @ t=3.9
-1.8460271742370864
% es.Ex (V/m) @ t=3.9
1.4036308460265445
% es.Ey (V/m) @ t=3.9
1.1037723019050318
% es.Ez (V/m) @ t=3.9
-1.8460271742370367
% es.tEx (V/m) @ t=3.9
1.403630846026541
% es.tEy (V/m) @ t=3.9
0
% es.tEz (V/m) @ t=3.9
-1.8460271742370864
% V (V) @ t=3.9
0.08058303957211327
% es.normE (V/m) @ t=4
2.851383557276322
% es.EX (V/m) @ t=4
1.4394677604759067
% es.EY (V/m) @ t=4
1.1319441490946716
% es.EZ (V/m) @ t=4
-1.8931424712127463
% es.tEX (V/m) @ t=4
1.439467760475921
% es.tEY (V/m) @ t=4
0
% es.tEZ (V/m) @ t=4
-1.8931424712126983
% es.Ex (V/m) @ t=4
1.4394677604759067
% es.Ey (V/m) @ t=4
1.1319441490946716
% es.Ez (V/m) @ t=4
-1.8931424712127463
% es.tEx (V/m) @ t=4
1.439467760475921
% es.tEy (V/m) @ t=4
0
% es.tEz (V/m) @ t=4
-1.8931424712126983
% V (V) @ t=4
0.08264220682410481
% es.normE (V/m) @ t=4.1
2.9216635087760974
% es.EX (V/m) @ t=4.1
1.4749553730974512
% es.EY (V/m) @ t=4.1
1.1598415529736243
% es.EZ (V/m) @ t=4.1
-1.9397988031514242
% es.tEX (V/m) @ t=4.1
1.4749553730974512
% es.tEY (V/m) @ t=4.1
0
% es.tEZ (V/m) @ t=4.1
-1.9397988031514615
% es.Ex (V/m) @ t=4.1
1.4749553730974512
% es.Ey (V/m) @ t=4.1
1.1598415529736243
% es.Ez (V/m) @ t=4.1
-1.9397988031514242
% es.tEx (V/m) @ t=4.1
1.4749553730974512
% es.tEy (V/m) @ t=4.1
0
% es.tEz (V/m) @ t=4.1
-1.9397988031514615
% V (V) @ t=4.1
0.08468126732726099
% es.normE (V/m) @ t=4.2
2.9906383058510277
% es.EX (V/m) @ t=4.2
1.5097762455181893
% es.EY (V/m) @ t=4.2
1.1872231610199577
% es.EZ (V/m) @ t=4.2
-1.9855936763615247
% es.tEX (V/m) @ t=4.2
1.509776245518193
% es.tEY (V/m) @ t=4.2
0
% es.tEZ (V/m) @ t=4.2
-1.9855936763615105
% es.Ex (V/m) @ t=4.2
1.5097762455181893
% es.Ey (V/m) @ t=4.2
1.1872231610199577
% es.Ez (V/m) @ t=4.2
-1.9855936763615247
% es.tEx (V/m) @ t=4.2
1.509776245518193
% es.tEy (V/m) @ t=4.2
0
% es.tEz (V/m) @ t=4.2
-1.9855936763615105
% V (V) @ t=4.2
0.0866803624762057
% es.normE (V/m) @ t=4.3
3.058742682160938
% es.EX (V/m) @ t=4.3
1.5441552583046132
% es.EY (V/m) @ t=4.3
1.2142599528520606
% es.EZ (V/m) @ t=4.3
-2.0308122265326993
% es.tEX (V/m) @ t=4.3
1.544155258304631
% es.tEY (V/m) @ t=4.3
0
% es.tEZ (V/m) @ t=4.3
-2.0308122265326674
% es.Ex (V/m) @ t=4.3
1.5441552583046132
% es.Ey (V/m) @ t=4.3
1.2142599528520606
% es.Ez (V/m) @ t=4.3
-2.0308122265326993
% es.tEx (V/m) @ t=4.3
1.544155258304631
% es.tEy (V/m) @ t=4.3
0
% es.tEz (V/m) @ t=4.3
-2.0308122265326674
% V (V) @ t=4.3
0.08865356055885626
% es.normE (V/m) @ t=4.4
3.125976637714393
% es.EX (V/m) @ t=4.4
1.5780924114567227
% es.EY (V/m) @ t=4.4
1.2409519284699044
% es.EZ (V/m) @ t=4.4
-2.075454453664829
% es.tEX (V/m) @ t=4.4
1.5780924114567512
% es.tEY (V/m) @ t=4.4
0
% es.tEZ (V/m) @ t=4.4
-2.0754544536648822
% es.Ex (V/m) @ t=4.4
1.5780924114567227
% es.Ey (V/m) @ t=4.4
1.2409519284699044
% es.Ez (V/m) @ t=4.4
-2.075454453664829
% es.tEx (V/m) @ t=4.4
1.5780924114567512
% es.tEy (V/m) @ t=4.4
0
% es.tEz (V/m) @ t=4.4
-2.0754544536648822
% V (V) @ t=4.4
0.09060086157521272
% es.normE (V/m) @ t=4.5
3.1923401725282003
% es.EX (V/m) @ t=4.5
1.6115877049745109
% es.EY (V/m) @ t=4.5
1.2672990878734822
% es.EZ (V/m) @ t=4.5
-2.1195203577580344
% es.tEX (V/m) @ t=4.5
1.6115877049745464
% es.tEY (V/m) @ t=4.5
0
% es.tEZ (V/m) @ t=4.5
-2.119520357758063
% es.Ex (V/m) @ t=4.5
1.6115877049745109
% es.Ey (V/m) @ t=4.5
1.2672990878734822
% es.Ez (V/m) @ t=4.5
-2.1195203577580344
% es.tEx (V/m) @ t=4.5
1.6115877049745464
% es.tEy (V/m) @ t=4.5
0
% es.tEz (V/m) @ t=4.5
-2.119520357758063
% V (V) @ t=4.5
0.09252226552527502
% es.normE (V/m) @ t=4.6
3.257789802032987
% es.EX (V/m) @ t=4.6
1.6446195448837742
% es.EY (V/m) @ t=4.6
1.2932840624753865
% es.EZ (V/m) @ t=4.6
-2.1629808357853406
% es.tEX (V/m) @ t=4.6
1.6446195448837848
% es.tEY (V/m) @ t=4.6
0
% es.tEZ (V/m) @ t=4.6
-2.162980835785369
% es.Ex (V/m) @ t=4.6
1.6446195448837742
% es.Ey (V/m) @ t=4.6
1.2932840624753865
% es.Ez (V/m) @ t=4.6
-2.1629808357853406
% es.tEx (V/m) @ t=4.6
1.6446195448837848
% es.tEy (V/m) @ t=4.6
0
% es.tEz (V/m) @ t=4.6
-2.162980835785369
% V (V) @ t=4.6
0.09441660970840712
% es.normE (V/m) @ t=4.7
3.3212047038644017
% es.EX (V/m) @ t=4.7
1.6766313430353392
% es.EY (V/m) @ t=4.7
1.318459174148792
% es.EZ (V/m) @ t=4.7
-2.2050857525598975
% es.tEX (V/m) @ t=4.7
1.6766313430353463
% es.tEY (V/m) @ t=4.7
0
% es.tEZ (V/m) @ t=4.7
-2.205085752559974
% es.Ex (V/m) @ t=4.7
1.6766313430353392
% es.Ey (V/m) @ t=4.7
1.318459174148792
% es.Ez (V/m) @ t=4.7
-2.2050857525598975
% es.tEx (V/m) @ t=4.7
1.6766313430353463
% es.tEy (V/m) @ t=4.7
0
% es.tEz (V/m) @ t=4.7
-2.205085752559974
% V (V) @ t=4.7
0.09625392532918944
% es.normE (V/m) @ t=4.8
3.383355171900366
% es.EX (V/m) @ t=4.8
1.7080056189697288
% es.EY (V/m) @ t=4.8
1.3431320931730966
% es.EZ (V/m) @ t=4.8
-2.2463506443314714
% es.tEX (V/m) @ t=4.8
1.708005618969743
% es.tEY (V/m) @ t=4.8
0
% es.tEZ (V/m) @ t=4.8
-2.24635064433145
% es.Ex (V/m) @ t=4.8
1.7080056189697288
% es.Ey (V/m) @ t=4.8
1.3431320931730966
% es.Ez (V/m) @ t=4.8
-2.2463506443314714
% es.tEx (V/m) @ t=4.8
1.708005618969743
% es.tEy (V/m) @ t=4.8
0
% es.tEz (V/m) @ t=4.8
-2.24635064433145
% V (V) @ t=4.8
0.09805480867568825
% es.normE (V/m) @ t=4.9
3.4442412061398047
% es.EX (V/m) @ t=4.9
1.73874237268695
% es.EY (V/m) @ t=4.9
1.367302819548442
% es.EZ (V/m) @ t=4.9
-2.286775511099858
% es.tEX (V/m) @ t=4.9
1.7387423726869429
% es.tEY (V/m) @ t=4.9
0
% es.tEZ (V/m) @ t=4.9
-2.286775511099819
% es.Ex (V/m) @ t=4.9
1.73874237268695
% es.Ey (V/m) @ t=4.9
1.367302819548442
% es.Ez (V/m) @ t=4.9
-2.286775511099858
% es.tEx (V/m) @ t=4.9
1.7387423726869429
% es.tEy (V/m) @ t=4.9
0
% es.tEz (V/m) @ t=4.9
-2.286775511099819
% V (V) @ t=4.9
0.09981925974790352
% es.normE (V/m) @ t=5
3.5038628065825788
% es.EX (V/m) @ t=5
1.7688416041870738
% es.EY (V/m) @ t=5
1.390971353274601
% es.EZ (V/m) @ t=5
-2.326360352865157
% es.tEX (V/m) @ t=5
1.7688416041870916
% es.tEY (V/m) @ t=5
0
% es.tEZ (V/m) @ t=5
-2.3263603528651586
% es.Ex (V/m) @ t=5
1.7688416041870738
% es.Ey (V/m) @ t=5
1.390971353274601
% es.Ez (V/m) @ t=5
-2.326360352865157
% es.tEx (V/m) @ t=5
1.7688416041870916
% es.tEy (V/m) @ t=5
0
% es.tEz (V/m) @ t=5
-2.3263603528651586
% V (V) @ t=5
0.10154727854583524
% es.normE (V/m) @ t=5.1
3.5622199732294173
% es.EX (V/m) @ t=5.1
1.7983033134699795
% es.EY (V/m) @ t=5.1
1.4141376943517372
% es.EZ (V/m) @ t=5.1
-2.3651051696274514
% es.tEX (V/m) @ t=5.1
1.7983033134700115
% es.tEY (V/m) @ t=5.1
0
% es.tEZ (V/m) @ t=5.1
-2.3651051696274124
% es.Ex (V/m) @ t=5.1
1.7983033134699795
% es.Ey (V/m) @ t=5.1
1.4141376943517372
% es.Ez (V/m) @ t=5.1
-2.3651051696274514
% es.tEx (V/m) @ t=5.1
1.7983033134700115
% es.tEy (V/m) @ t=5.1
0
% es.tEz (V/m) @ t=5.1
-2.3651051696274124
% V (V) @ t=5.1
0.10323886506948346
% es.normE (V/m) @ t=5.2
3.6180505372484633
% es.EX (V/m) @ t=5.2
1.8264877717846417
% es.EY (V/m) @ t=5.2
1.4363015378594284
% es.EZ (V/m) @ t=5.2
-2.4021736054266274
% es.tEX (V/m) @ t=5.2
1.8264877717846701
% es.tEY (V/m) @ t=5.2
0
% es.tEZ (V/m) @ t=5.2
-2.4021736054266114
% es.Ex (V/m) @ t=5.2
1.8264877717846417
% es.Ey (V/m) @ t=5.2
1.4363015378594284
% es.Ez (V/m) @ t=5.2
-2.4021736054266274
% es.tEx (V/m) @ t=5.2
1.8264877717846701
% es.tEy (V/m) @ t=5.2
0
% es.tEz (V/m) @ t=5.2
-2.4021736054266114
% V (V) @ t=5.2
0.1048567513214037
% es.normE (V/m) @ t=5.3
3.6719327216293896
% es.EX (V/m) @ t=5.3
1.8536880507564817
% es.EY (V/m) @ t=5.3
1.4576920827760276
% es.EZ (V/m) @ t=5.3
-2.437948810465276
% es.tEX (V/m) @ t=5.3
1.853688050756464
% es.tEY (V/m) @ t=5.3
0
% es.tEZ (V/m) @ t=5.3
-2.437948810465336
% es.Ex (V/m) @ t=5.3
1.8536880507564817
% es.Ey (V/m) @ t=5.3
1.4576920827760276
% es.Ez (V/m) @ t=5.3
-2.437948810465276
% es.tEx (V/m) @ t=5.3
1.853688050756464