% Model:              1x1--2 - Copy1.mph
% Version:            COMSOL 6.1.0.252
% Date:               Mar 28 2023, 11:42
% Dimension:          0
% Nodes:              14017
% Expressions:        14017
% Description:        Electric field norm, Electric field, X component, Electric field, Y component, Electric field, Z component, Tangential electric field, X component, Tangential electric field, Y component, Tangential electric field, Z component, Electric field, x component, Electric field, y component, Electric field, z component, Tangential electric field, x component, Tangential electric field, y component, Tangential electric field, z component, Electric potential
% Length unit:        mm
% x
1.33
% y
12.2
% z
1
% es.normE (V/m) @ t=0
0.7738541527270391
% es.EX (V/m) @ t=0
0.6280396716549224
% es.EY (V/m) @ t=0
0.1827664892000083
% es.EZ (V/m) @ t=0
-0.38312804267614625
% es.tEX (V/m) @ t=0
0.6280396716549212
% es.tEY (V/m) @ t=0
0
% es.tEZ (V/m) @ t=0
-0.38312804267614453
% es.Ex (V/m) @ t=0
0.6280396716549224
% es.Ey (V/m) @ t=0
0.1827664892000083
% es.Ez (V/m) @ t=0
-0.38312804267614625
% es.tEx (V/m) @ t=0
0.6280396716549212
% es.tEy (V/m) @ t=0
0
% es.tEz (V/m) @ t=0
-0.38312804267614453
% V (V) @ t=0
0.013622791076358753
% es.normE (V/m) @ t=0.1
0.795421702802759
% es.EX (V/m) @ t=0.1
0.6455429135173215
% es.EY (V/m) @ t=0.1
0.18786004604063586
% es.EZ (V/m) @ t=0.1
-0.39380697684918176
% es.tEX (V/m) @ t=0.1
0.6455429135173194
% es.tEY (V/m) @ t=0.1
0
% es.tEZ (V/m) @ t=0.1
-0.39380697684918076
% es.Ex (V/m) @ t=0.1
0.6455429135173215
% es.Ey (V/m) @ t=0.1
0.18786004604063586
% es.Ez (V/m) @ t=0.1
-0.39380697684918176
% es.tEx (V/m) @ t=0.1
0.6455429135173194
% es.tEy (V/m) @ t=0.1
0
% es.tEz (V/m) @ t=0.1
-0.39380697684918076
% V (V) @ t=0.1
0.014002341053693482
% es.normE (V/m) @ t=0.2
0.8438957248854572
% es.EX (V/m) @ t=0.2
0.6848830494086442
% es.EY (V/m) @ t=0.2
0.19930844447878765
% es.EZ (V/m) @ t=0.2
-0.4178062674037959
% es.tEX (V/m) @ t=0.2
0.6848830494086346
% es.tEY (V/m) @ t=0.2
0
% es.tEZ (V/m) @ t=0.2
-0.4178062674037939
% es.Ex (V/m) @ t=0.2
0.6848830494086442
% es.Ey (V/m) @ t=0.2
0.19930844447878765
% es.Ez (V/m) @ t=0.2
-0.4178062674037959
% es.tEx (V/m) @ t=0.2
0.6848830494086346
% es.tEy (V/m) @ t=0.2
0
% es.tEz (V/m) @ t=0.2
-0.4178062674037939
% V (V) @ t=0.2
0.014855645657886255
% es.normE (V/m) @ t=0.3
0.8945332739917757
% es.EX (V/m) @ t=0.3
0.7259796577193288
% es.EY (V/m) @ t=0.3
0.21126812111572155
% es.EZ (V/m) @ t=0.3
-0.44287514431610475
% es.tEX (V/m) @ t=0.3
0.7259796577193249
% es.tEY (V/m) @ t=0.3
0
% es.tEZ (V/m) @ t=0.3
-0.4428751443161012
% es.Ex (V/m) @ t=0.3
0.7259796577193288
% es.Ey (V/m) @ t=0.3
0.21126812111572155
% es.Ez (V/m) @ t=0.3
-0.44287514431610475
% es.tEx (V/m) @ t=0.3
0.7259796577193249
% es.tEy (V/m) @ t=0.3
0
% es.tEz (V/m) @ t=0.3
-0.4428751443161012
% V (V) @ t=0.3
0.01574722813849444
% es.normE (V/m) @ t=0.4
0.948213129879069
% es.EX (V/m) @ t=0.4
0.7695442241413804
% es.EY (V/m) @ t=0.4
0.22394577708382313
% es.EZ (V/m) @ t=0.4
-0.4694530313537272
% es.tEX (V/m) @ t=0.4
0.7695442241413737
% es.tEY (V/m) @ t=0.4
0
% es.tEZ (V/m) @ t=0.4
-0.46945303135371574
% es.Ex (V/m) @ t=0.4
0.7695442241413804
% es.Ey (V/m) @ t=0.4
0.22394577708382313
% es.Ez (V/m) @ t=0.4
-0.4694530313537272
% es.tEx (V/m) @ t=0.4
0.7695442241413737
% es.tEy (V/m) @ t=0.4
0
% es.tEz (V/m) @ t=0.4
-0.46945303135371574
% V (V) @ t=0.4
0.016692025106632653
% es.normE (V/m) @ t=0.5
1.0051326747160338
% es.EX (V/m) @ t=0.5
0.8157387819842
% es.EY (V/m) @ t=0.5
0.23738894241885297
% es.EZ (V/m) @ t=0.5
-0.49763296024260123
% es.tEX (V/m) @ t=0.5
0.8157387819842015
% es.tEY (V/m) @ t=0.5
0
% es.tEZ (V/m) @ t=0.5
-0.49763296024259773
% es.Ex (V/m) @ t=0.5
0.8157387819842
% es.Ey (V/m) @ t=0.5
0.23738894241885297
% es.Ez (V/m) @ t=0.5
-0.49763296024260123
% es.tEx (V/m) @ t=0.5
0.8157387819842015
% es.tEy (V/m) @ t=0.5
0
% es.tEz (V/m) @ t=0.5
-0.49763296024259773
% V (V) @ t=0.5
0.017694086853271312
% es.normE (V/m) @ t=0.6
1.0637552943150657
% es.EX (V/m) @ t=0.6
0.8633157353182653
% es.EY (V/m) @ t=0.6
0.25123444639037157
% es.EZ (V/m) @ t=0.6
-0.5266554924404111
% es.tEX (V/m) @ t=0.6
0.8633157353182597
% es.tEY (V/m) @ t=0.6
0
% es.tEZ (V/m) @ t=0.6
-0.5266554924404048
% es.Ex (V/m) @ t=0.6
0.8633157353182653
% es.Ey (V/m) @ t=0.6
0.25123444639037157
% es.Ez (V/m) @ t=0.6
-0.5266554924404111
% es.tEx (V/m) @ t=0.6
0.8633157353182597
% es.tEy (V/m) @ t=0.6
0
% es.tEz (V/m) @ t=0.6
-0.5266554924404048
% V (V) @ t=0.6
0.01872620006436855
% es.normE (V/m) @ t=0.7
1.1254320885931226
% es.EX (V/m) @ t=0.7
0.9133714950737444
% es.EY (V/m) @ t=0.7
0.26580133533143013
% es.EZ (V/m) @ t=0.7
-0.5571898143315782
% es.tEX (V/m) @ t=0.7
0.9133714950737399
% es.tEY (V/m) @ t=0.7
0
% es.tEZ (V/m) @ t=0.7
-0.5571898143315863
% es.Ex (V/m) @ t=0.7
0.9133714950737444
% es.Ey (V/m) @ t=0.7
0.26580133533143013
% es.Ez (V/m) @ t=0.7
-0.5571898143315782
% es.tEx (V/m) @ t=0.7
0.9133714950737399
% es.tEy (V/m) @ t=0.7
0
% es.tEz (V/m) @ t=0.7
-0.5571898143315863
% V (V) @ t=0.7
0.019812116606279247
% es.normE (V/m) @ t=0.8
1.1895702891001951
% es.EX (V/m) @ t=0.8
0.9654249629513173
% es.EY (V/m) @ t=0.8
0.2809495994861336
% es.EZ (V/m) @ t=0.8
-0.5889425107288296
% es.tEX (V/m) @ t=0.8
0.9654249629513174
% es.tEY (V/m) @ t=0.8
0
% es.tEZ (V/m) @ t=0.8
-0.5889425107288275
% es.Ex (V/m) @ t=0.8
0.9654249629513173
% es.Ey (V/m) @ t=0.8
0.2809495994861336
% es.Ez (V/m) @ t=0.8
-0.5889425107288296
% es.tEx (V/m) @ t=0.8
0.9654249629513174
% es.tEy (V/m) @ t=0.8
0
% es.tEz (V/m) @ t=0.8
-0.5889425107288275
% V (V) @ t=0.8
0.020941394077882616
% es.normE (V/m) @ t=0.9
1.2568872723924922
% es.EX (V/m) @ t=0.9
1.0200579128585292
% es.EY (V/m) @ t=0.9
0.296848453812195
% es.EZ (V/m) @ t=0.9
-0.6222698419611585
% es.tEX (V/m) @ t=0.9
1.0200579128585225
% es.tEY (V/m) @ t=0.9
0
% es.tEZ (V/m) @ t=0.9
-0.6222698419611348
% es.Ex (V/m) @ t=0.9
1.0200579128585292
% es.Ey (V/m) @ t=0.9
0.296848453812195
% es.Ez (V/m) @ t=0.9
-0.6222698419611585
% es.tEx (V/m) @ t=0.9
1.0200579128585225
% es.tEy (V/m) @ t=0.9
0
% es.tEz (V/m) @ t=0.9
-0.6222698419611348
% V (V) @ t=0.9
0.02212652702521123
% es.normE (V/m) @ t=1
1.3277263490796314
% es.EX (V/m) @ t=1
1.0775487608574283
% es.EY (V/m) @ t=1
0.3135788785007336
% es.EZ (V/m) @ t=1
-0.6573423014051104
% es.tEX (V/m) @ t=1
1.0775487608574252
% es.tEY (V/m) @ t=1
0
% es.tEZ (V/m) @ t=1
-0.6573423014050945
% es.Ex (V/m) @ t=1
1.0775487608574283
% es.Ey (V/m) @ t=1
0.3135788785007336
% es.Ez (V/m) @ t=1
-0.6573423014051104
% es.tEx (V/m) @ t=1
1.0775487608574252
% es.tEy (V/m) @ t=1
0
% es.tEz (V/m) @ t=1
-0.6573423014050945
% V (V) @ t=1
0.023373494888487664
% es.normE (V/m) @ t=1.1
1.401739814563563
% es.EX (V/m) @ t=1.1
1.1376155274739073
% es.EY (V/m) @ t=1.1
0.3310588569053788
% es.EZ (V/m) @ t=1.1
-0.6939872135609324
% es.tEX (V/m) @ t=1.1
1.1376155274739084
% es.tEY (V/m) @ t=1.1
0
% es.tEZ (V/m) @ t=1.1
-0.6939872135609377
% es.Ex (V/m) @ t=1.1
1.1376155274739073
% es.Ey (V/m) @ t=1.1
0.3310588569053788
% es.Ez (V/m) @ t=1.1
-0.6939872135609324
% es.tEx (V/m) @ t=1.1
1.1376155274739084
% es.tEy (V/m) @ t=1.1
0
% es.tEz (V/m) @ t=1.1
-0.6939872135609377
% V (V) @ t=1.1
0.024676241697388628
% es.normE (V/m) @ t=1.2
1.4794734987822094
% es.EX (V/m) @ t=1.2
1.200701727676243
% es.EY (V/m) @ t=1.2
0.3494175658951907
% es.EZ (V/m) @ t=1.2
-0.7324734553198504
% es.tEX (V/m) @ t=1.2
1.2007017276762397
% es.tEY (V/m) @ t=1.2
0
% es.tEZ (V/m) @ t=1.2
-0.7324734553198482
% es.Ex (V/m) @ t=1.2
1.200701727676243
% es.Ey (V/m) @ t=1.2
0.3494175658951907
% es.Ez (V/m) @ t=1.2
-0.7324734553198504
% es.tEx (V/m) @ t=1.2
1.2007017276762397
% es.tEy (V/m) @ t=1.2
0
% es.tEz (V/m) @ t=1.2
-0.7324734553198482
% V (V) @ t=1.2
0.026044542919494176
% es.normE (V/m) @ t=1.3
1.5608702847742544
% es.EX (V/m) @ t=1.3
1.266760950989639
% es.EY (V/m) @ t=1.3
0.36864148809138503
% es.EZ (V/m) @ t=1.3
-0.7727728907561484
% es.tEX (V/m) @ t=1.3
1.266760950989628
% es.tEY (V/m) @ t=1.3
0
% es.tEZ (V/m) @ t=1.3
-0.7727728907561513
% es.Ex (V/m) @ t=1.3
1.266760950989639
% es.Ey (V/m) @ t=1.3
0.36864148809138503
% es.Ez (V/m) @ t=1.3
-0.7727728907561484
% es.tEx (V/m) @ t=1.3
1.266760950989628
% es.tEy (V/m) @ t=1.3
0
% es.tEz (V/m) @ t=1.3
-0.7727728907561513
% V (V) @ t=1.3
0.02747737562632569
% es.normE (V/m) @ t=1.4
1.6458258125029177
% es.EX (V/m) @ t=1.4
1.3357083995031882
% es.EY (V/m) @ t=1.4
0.388705925503108
% es.EZ (V/m) @ t=1.4
-0.8148341119123229
% es.tEX (V/m) @ t=1.4
1.3357083995031829
% es.tEY (V/m) @ t=1.4
0
% es.tEZ (V/m) @ t=1.4
-0.8148341119123259
% es.Ex (V/m) @ t=1.4
1.3357083995031882
% es.Ey (V/m) @ t=1.4
0.388705925503108
% es.Ez (V/m) @ t=1.4
-0.8148341119123229
% es.tEx (V/m) @ t=1.4
1.3357083995031829
% es.tEy (V/m) @ t=1.4
0
% es.tEz (V/m) @ t=1.4
-0.8148341119123259
% V (V) @ t=1.4
0.028972870795892374
% es.normE (V/m) @ t=1.5
1.7346527558323315
% es.EX (V/m) @ t=1.5
1.4077978353676734
% es.EY (V/m) @ t=1.5
0.4096847261295586
% es.EZ (V/m) @ t=1.5
-0.8588119111406756
% es.tEX (V/m) @ t=1.5
1.4077978353676706
% es.tEY (V/m) @ t=1.5
0
% es.tEZ (V/m) @ t=1.5
-0.8588119111406627
% es.Ex (V/m) @ t=1.5
1.4077978353676734
% es.Ey (V/m) @ t=1.5
0.4096847261295586
% es.Ez (V/m) @ t=1.5
-0.8588119111406756
% es.tEx (V/m) @ t=1.5
1.4077978353676706
% es.tEy (V/m) @ t=1.5
0
% es.tEz (V/m) @ t=1.5
-0.8588119111406627
% V (V) @ t=1.5
0.030536533394777132
% es.normE (V/m) @ t=1.6
1.8272080692328005
% es.EX (V/m) @ t=1.6
1.4829131646418223
% es.EY (V/m) @ t=1.6
0.43154410516376346
% es.EZ (V/m) @ t=1.6
-0.9046354723080905
% es.tEX (V/m) @ t=1.6
1.4829131646418148
% es.tEY (V/m) @ t=1.6
0
% es.tEZ (V/m) @ t=1.6
-0.9046354723080867
% es.Ex (V/m) @ t=1.6
1.4829131646418223
% es.Ey (V/m) @ t=1.6
0.43154410516376346
% es.Ez (V/m) @ t=1.6
-0.9046354723080905
% es.tEx (V/m) @ t=1.6
1.4829131646418148
% es.tEy (V/m) @ t=1.6
0
% es.tEz (V/m) @ t=1.6
-0.9046354723080867
% V (V) @ t=1.6
0.032165844949420146
% es.normE (V/m) @ t=1.7
1.9234890422778188
% es.EX (V/m) @ t=1.7
1.5610521875778582
% es.EY (V/m) @ t=1.7
0.45428342245127956
% es.EZ (V/m) @ t=1.7
-0.9523034535905729
% es.tEX (V/m) @ t=1.7
1.5610521875778502
% es.tEY (V/m) @ t=1.7
0
% es.tEZ (V/m) @ t=1.7
-0.9523034535905737
% es.Ex (V/m) @ t=1.7
1.5610521875778582
% es.Ey (V/m) @ t=1.7
0.45428342245127956
% es.Ez (V/m) @ t=1.7
-0.9523034535905729
% es.tEx (V/m) @ t=1.7
1.5610521875778502
% es.tEy (V/m) @ t=1.7
0
% es.tEz (V/m) @ t=1.7
-0.9523034535905737
% V (V) @ t=1.7
0.03386075773978932
% es.normE (V/m) @ t=1.8
2.023495674967385
% es.EX (V/m) @ t=1.8
1.6422149041757856
% es.EY (V/m) @ t=1.8
0.4779026779921015
% es.EZ (V/m) @ t=1.8
-1.0018158549881298
% es.tEX (V/m) @ t=1.8
1.6422149041757805
% es.tEY (V/m) @ t=1.8
0
% es.tEZ (V/m) @ t=1.8
-1.0018158549881235
% es.Ex (V/m) @ t=1.8
1.6422149041757856
% es.Ey (V/m) @ t=1.8
0.4779026779921015
% es.Ez (V/m) @ t=1.8
-1.0018158549881298
% es.tEx (V/m) @ t=1.8
1.6422149041757805
% es.tEy (V/m) @ t=1.8
0
% es.tEz (V/m) @ t=1.8
-1.0018158549881235
% V (V) @ t=1.8
0.03562127176588464
% es.normE (V/m) @ t=1.9
2.127227967301451
% es.EX (V/m) @ t=1.9
1.7264013144355592
% es.EY (V/m) @ t=1.9
0.5024018717862186
% es.EZ (V/m) @ t=1.9
-1.053172676500761
% es.tEX (V/m) @ t=1.9
1.726401314435556
% es.tEY (V/m) @ t=1.9
0
% es.tEZ (V/m) @ t=1.9
-1.0531726765007505
% es.Ex (V/m) @ t=1.9
1.7264013144355592
% es.Ey (V/m) @ t=1.9
0.5024018717862186
% es.Ez (V/m) @ t=1.9
-1.053172676500761
% es.tEx (V/m) @ t=1.9
1.726401314435556
% es.tEy (V/m) @ t=1.9
0
% es.tEz (V/m) @ t=1.9
-1.0531726765007505
% V (V) @ t=1.9
0.03744738702770612
% es.normE (V/m) @ t=2
2.2338242274235354
% es.EX (V/m) @ t=2
1.812912606670306
% es.EY (V/m) @ t=2
0.5275777458087363
% es.EZ (V/m) @ t=2
-1.1059459952143769
% es.tEX (V/m) @ t=2
1.8129126066703023
% es.tEY (V/m) @ t=2
0
% es.tEZ (V/m) @ t=2
-1.1059459952143698
% es.Ex (V/m) @ t=2
1.812912606670306
% es.Ey (V/m) @ t=2
0.5275777458087363
% es.Ez (V/m) @ t=2
-1.1059459952143769
% es.tEx (V/m) @ t=2
1.8129126066703023
% es.tEy (V/m) @ t=2
0
% es.tEz (V/m) @ t=2
-1.1059459952143698
% V (V) @ t=2
0.0393240938969136
% es.normE (V/m) @ t=2.1
2.3422450980796703
% es.EX (V/m) @ t=2.1
1.9009058867562585
% es.EY (V/m) @ t=2.1
0.5531851338753935
% es.EZ (V/m) @ t=2.1
-1.1596196581845026
% es.tEX (V/m) @ t=2.1
1.9009058867562416
% es.tEY (V/m) @ t=2.1
0
% es.tEZ (V/m) @ t=2.1
-1.1596196581844964
% es.Ex (V/m) @ t=2.1
1.9009058867562585
% es.Ey (V/m) @ t=2.1
0.5531851338753935
% es.Ez (V/m) @ t=2.1
-1.1596196581845026
% es.tEx (V/m) @ t=2.1
1.9009058867562416
% es.tEy (V/m) @ t=2.1
0
% es.tEz (V/m) @ t=2.1
-1.1596196581844964
% V (V) @ t=2.1
0.04123328802899593
% es.normE (V/m) @ t=2.2
2.453642140460653
% es.EX (V/m) @ t=2.2
1.9913150435351572
% es.EY (V/m) @ t=2.2
0.5794956691099931
% es.EZ (V/m) @ t=2.2
-1.2147655396974666
% es.tEX (V/m) @ t=2.2
1.9913150435351383
% es.tEY (V/m) @ t=2.2
0
% es.tEZ (V/m) @ t=2.2
-1.2147655396974528
% es.Ex (V/m) @ t=2.2
1.9913150435351572
% es.Ey (V/m) @ t=2.2
0.5794956691099931
% es.Ez (V/m) @ t=2.2
-1.2147655396974666
% es.tEx (V/m) @ t=2.2
1.9913150435351383
% es.tEy (V/m) @ t=2.2
0
% es.tEz (V/m) @ t=2.2
-1.2147655396974528
% V (V) @ t=2.2
0.043195028224757945
% es.normE (V/m) @ t=2.3
2.568015354577439
% es.EX (V/m) @ t=2.3
2.084140077007194
% es.EY (V/m) @ t=2.3
0.6065093515125598
% es.EZ (V/m) @ t=2.3
-1.2713836397532972
% es.tEX (V/m) @ t=2.3
2.0841400770071843
% es.tEY (V/m) @ t=2.3
0
% es.tEZ (V/m) @ t=2.3
-1.2713836397532816
% es.Ex (V/m) @ t=2.3
2.084140077007194
% es.Ey (V/m) @ t=2.3
0.6065093515125598
% es.Ez (V/m) @ t=2.3
-1.2713836397532972
% es.tEx (V/m) @ t=2.3
2.0841400770071843
% es.tEy (V/m) @ t=2.3
0
% es.tEz (V/m) @ t=2.3
-1.2713836397532816
% V (V) @ t=2.3
0.04520931448419963
% es.normE (V/m) @ t=2.4
2.685364740441545
% es.EX (V/m) @ t=2.4
2.179380987172266
% es.EY (V/m) @ t=2.4
0.6342261810830669
% es.EZ (V/m) @ t=2.4
-1.329473958351966
% es.tEX (V/m) @ t=2.4
2.1793809871722516
% es.tEY (V/m) @ t=2.4
0
% es.tEZ (V/m) @ t=2.4
-1.3294739583519544
% es.Ex (V/m) @ t=2.4
2.179380987172266
% es.Ey (V/m) @ t=2.4
0.6342261810830669
% es.Ez (V/m) @ t=2.4
-1.329473958351966
% es.tEx (V/m) @ t=2.4
2.1793809871722516
% es.tEy (V/m) @ t=2.4
0
% es.tEz (V/m) @ t=2.4
-1.3294739583519544
% V (V) @ t=2.4
0.04727614680732103
% es.normE (V/m) @ t=2.5
2.80569029806507
% es.EX (V/m) @ t=2.5
2.277037774030366
% es.EY (V/m) @ t=2.5
0.6626461578215578
% es.EZ (V/m) @ t=2.5
-1.3890364954934802
% es.tEX (V/m) @ t=2.5
2.2770377740303402
% es.tEY (V/m) @ t=2.5
0
% es.tEZ (V/m) @ t=2.5
-1.3890364954934853
% es.Ex (V/m) @ t=2.5
2.277037774030366
% es.Ey (V/m) @ t=2.5
0.6626461578215578
% es.Ez (V/m) @ t=2.5
-1.3890364954934802
% es.tEx (V/m) @ t=2.5
2.2770377740303402
% es.tEy (V/m) @ t=2.5
0
% es.tEz (V/m) @ t=2.5
-1.3890364954934853
% V (V) @ t=2.5
0.04939552519412209
% es.normE (V/m) @ t=2.6
2.924949723741455
% es.EX (V/m) @ t=2.6
2.37382344257679
% es.EY (V/m) @ t=2.6
0.6908114309038541
% es.EZ (V/m) @ t=2.6
-1.4480861541344148
% es.tEX (V/m) @ t=2.6
2.3738234425767786
% es.tEY (V/m) @ t=2.6
0
% es.tEZ (V/m) @ t=2.6
-1.4480861541344012
% es.Ex (V/m) @ t=2.6
2.37382344257679
% es.Ey (V/m) @ t=2.6
0.6908114309038541
% es.Ez (V/m) @ t=2.6
-1.4480861541344148
% es.tEx (V/m) @ t=2.6
2.3738234425767786
% es.tEy (V/m) @ t=2.6
0
% es.tEz (V/m) @ t=2.6
-1.4480861541344012
% V (V) @ t=2.6
0.05149429701923766
% es.normE (V/m) @ t=2.7
3.0445971186460854
% es.EX (V/m) @ t=2.7
2.470920393586417
% es.EY (V/m) @ t=2.7
0.7190665592827915
% es.EZ (V/m) @ t=2.7
-1.507337015153825
% es.tEX (V/m) @ t=2.7
2.470920393586418
% es.tEY (V/m) @ t=2.7
0
% es.tEZ (V/m) @ t=2.7
-1.5073370151538086
% es.Ex (V/m) @ t=2.7
2.470920393586417
% es.Ey (V/m) @ t=2.7
0.7190665592827915
% es.Ez (V/m) @ t=2.7
-1.507337015153825
% es.tEx (V/m) @ t=2.7
2.470920393586418
% es.tEy (V/m) @ t=2.7
0
% es.tEz (V/m) @ t=2.7
-1.5073370151538086
% V (V) @ t=2.7
0.05359877681031201
% es.normE (V/m) @ t=2.8
3.1655962740219534
% es.EX (V/m) @ t=2.8
2.5691123327968706
% es.EY (V/m) @ t=2.8
0.74763991969318
% es.EZ (V/m) @ t=2.8
-1.5672623777019765
% es.tEX (V/m) @ t=2.8
2.569112332796877
% es.tEY (V/m) @ t=2.8
0
% es.tEZ (V/m) @ t=2.8
-1.5672623777019652
% es.Ex (V/m) @ t=2.8
2.5691123327968706
% es.Ey (V/m) @ t=2.8
0.74763991969318
% es.Ez (V/m) @ t=2.8
-1.5672623777019765
% es.tEx (V/m) @ t=2.8
2.569112332796877
% es.tEy (V/m) @ t=2.8
0
% es.tEz (V/m) @ t=2.8
-1.5672623777019652
% V (V) @ t=2.8
0.05572640607003501
% es.normE (V/m) @ t=2.9
3.287947190007188
% es.EX (V/m) @ t=2.9
2.668399260208097
% es.EY (V/m) @ t=2.9
0.7765315121350473
% es.EZ (V/m) @ t=2.9
-1.6278622417788053
% es.tEX (V/m) @ t=2.9
2.6683992602080977
% es.tEY (V/m) @ t=2.9
0
% es.tEZ (V/m) @ t=2.9
-1.6278622417787858
% es.Ex (V/m) @ t=2.9
2.668399260208097
% es.Ey (V/m) @ t=2.9
0.7765315121350473
% es.Ez (V/m) @ t=2.9
-1.6278622417788053
% es.tEx (V/m) @ t=2.9
2.6683992602080977
% es.tEy (V/m) @ t=2.9
0
% es.tEz (V/m) @ t=2.9
-1.6278622417787858
% V (V) @ t=2.9
0.05787718479840664
% es.normE (V/m) @ t=3
3.411649866758574
% es.EX (V/m) @ t=3
2.7687811758200755
% es.EY (V/m) @ t=3
0.8057413366084564
% es.EZ (V/m) @ t=3
-1.6891366073843046
% es.tEX (V/m) @ t=3
2.768781175820102
% es.tEY (V/m) @ t=3
0
% es.tEZ (V/m) @ t=3
-1.6891366073842988
% es.Ex (V/m) @ t=3
2.7687811758200755
% es.Ey (V/m) @ t=3
0.8057413366084564
% es.Ez (V/m) @ t=3
-1.6891366073843046
% es.tEx (V/m) @ t=3
2.768781175820102
% es.tEy (V/m) @ t=3
0
% es.tEz (V/m) @ t=3
-1.6891366073842988
% V (V) @ t=3
0.0600511129954269
% es.normE (V/m) @ t=3.1
3.5359513360556427
% es.EX (V/m) @ t=3.1
2.8696493837502666
% es.EY (V/m) @ t=3.1
0.8350927432104245
% es.EZ (V/m) @ t=3.1
-1.7507065992908495
% es.tEX (V/m) @ t=3.1
2.869649383750243
% es.tEY (V/m) @ t=3.1
0
% es.tEZ (V/m) @ t=3.1
-1.7507065992908366
% es.Ex (V/m) @ t=3.1
2.8696493837502666
% es.Ey (V/m) @ t=3.1
0.8350927432104245
% es.Ez (V/m) @ t=3.1
-1.7507065992908495
% es.tEx (V/m) @ t=3.1
2.869649383750243
% es.tEy (V/m) @ t=3.1
0
% es.tEz (V/m) @ t=3.1
-1.7507065992908366
% V (V) @ t=3.1
0.06223568185425417
% es.normE (V/m) @ t=3.2
3.6571863858114977
% es.EX (V/m) @ t=3.2
2.968040945010301
% es.EY (V/m) @ t=3.2
0.8637258560995691
% es.EZ (V/m) @ t=3.2
-1.8107279727517638
% es.tEX (V/m) @ t=3.2
2.968040945010287
% es.tEY (V/m) @ t=3.2
0
% es.tEZ (V/m) @ t=3.2
-1.8107279727517351
% es.Ex (V/m) @ t=3.2
2.968040945010301
% es.Ey (V/m) @ t=3.2
0.8637258560995691
% es.Ez (V/m) @ t=3.2
-1.8107279727517638
% es.tEx (V/m) @ t=3.2
2.968040945010287
% es.tEy (V/m) @ t=3.2
0
% es.tEz (V/m) @ t=3.2
-1.8107279727517351
% V (V) @ t=3.2
0.06437000246050223
% es.normE (V/m) @ t=3.3
3.778286126443307
% es.EX (V/m) @ t=3.3
3.0663253547318776
% es.EY (V/m) @ t=3.3
0.8923283275118734
% es.EZ (V/m) @ t=3.3
-1.8706755907211423
% es.tEX (V/m) @ t=3.3
3.066325354731859
% es.tEY (V/m) @ t=3.3
0
% es.tEZ (V/m) @ t=3.3
-1.8706755907211345
% es.Ex (V/m) @ t=3.3
3.0663253547318776
% es.Ey (V/m) @ t=3.3
0.8923283275118734
% es.Ez (V/m) @ t=3.3
-1.8706755907211423
% es.tEx (V/m) @ t=3.3
3.066325354731859
% es.tEy (V/m) @ t=3.3
0
% es.tEz (V/m) @ t=3.3
-1.8706755907211345
% V (V) @ t=3.3
0.06650276835352027
% es.normE (V/m) @ t=3.4
3.8992505580373287
% es.EX (V/m) @ t=3.4
3.164502612915077
% es.EY (V/m) @ t=3.4
0.9209001574472455
% es.EZ (V/m) @ t=3.4
-1.9305494531989567
% es.tEX (V/m) @ t=3.4
3.1645026129150864
% es.tEY (V/m) @ t=3.4
0
% es.tEZ (V/m) @ t=3.4
-1.9305494531989495
% es.Ex (V/m) @ t=3.4
3.164502612915077
% es.Ey (V/m) @ t=3.4
0.9209001574472455
% es.Ez (V/m) @ t=3.4
-1.9305494531989567
% es.tEx (V/m) @ t=3.4
3.1645026129150864
% es.tEy (V/m) @ t=3.4
0
% es.tEz (V/m) @ t=3.4
-1.9305494531989495
% V (V) @ t=3.4
0.06863397953330831
% es.normE (V/m) @ t=3.5
4.020079680723917
% es.EX (V/m) @ t=3.5
3.262572719559898
% es.EY (V/m) @ t=3.5
0.9494413459057636
% es.EZ (V/m) @ t=3.5
-1.9903495601851569
% es.tEX (V/m) @ t=3.5
3.262572719559884
% es.tEY (V/m) @ t=3.5
0
% es.tEZ (V/m) @ t=3.5
-1.9903495601851375
% es.Ex (V/m) @ t=3.5
3.262572719559898
% es.Ey (V/m) @ t=3.5
0.9494413459057636
% es.Ez (V/m) @ t=3.5
-1.9903495601851569
% es.tEx (V/m) @ t=3.5
3.262572719559884
% es.tEy (V/m) @ t=3.5
0
% es.tEz (V/m) @ t=3.5
-1.9903495601851375
% V (V) @ t=3.5
0.07076363599986633
% es.normE (V/m) @ t=3.6
4.140468517825762
% es.EX (V/m) @ t=3.6
3.3602873780957565
% es.EY (V/m) @ t=3.6
0.9778794752724135
% es.EZ (V/m) @ t=3.6
-2.0499269194948972
% es.tEX (V/m) @ t=3.6
3.3602873780957054
% es.tEY (V/m) @ t=3.6
0
% es.tEZ (V/m) @ t=3.6
-2.0499269194948795
% es.Ex (V/m) @ t=3.6
3.3602873780957565
% es.Ey (V/m) @ t=3.6
0.9778794752724135
% es.Ez (V/m) @ t=3.6
-2.0499269194948972
% es.tEx (V/m) @ t=3.6
3.3602873780957054
% es.tEy (V/m) @ t=3.6
0
% es.tEz (V/m) @ t=3.6
-2.0499269194948795
% V (V) @ t=3.6
0.0728861235471343
% es.normE (V/m) @ t=3.7
4.258195979081739
% es.EX (V/m) @ t=3.7
3.4558382902767733
% es.EY (V/m) @ t=3.7
1.0056871413798452
% es.EZ (V/m) @ t=3.7
-2.108196448455106
% es.tEX (V/m) @ t=3.7
3.4558382902767733
% es.tEY (V/m) @ t=3.7
0
% es.tEZ (V/m) @ t=3.7
-2.1081964484550895
% es.Ex (V/m) @ t=3.7
3.4558382902767733
% es.Ey (V/m) @ t=3.7
1.0056871413798452
% es.Ez (V/m) @ t=3.7
-2.108196448455106
% es.tEx (V/m) @ t=3.7
3.4558382902767733
% es.tEy (V/m) @ t=3.7
0
% es.tEz (V/m) @ t=3.7
-2.1081964484550895
% V (V) @ t=3.7
0.0749605549451905
% es.normE (V/m) @ t=3.8
4.374890312554612
% es.EX (V/m) @ t=3.8
3.550551092581719
% es.EY (V/m) @ t=3.8
1.0332509763583884
% es.EZ (V/m) @ t=3.8
-2.1659536049928696
% es.tEX (V/m) @ t=3.8
3.5505510925817276
% es.tEY (V/m) @ t=3.8
0
% es.tEZ (V/m) @ t=3.8
-2.1659536049928647
% es.Ex (V/m) @ t=3.8
3.550551092581719
% es.Ey (V/m) @ t=3.8
1.0332509763583884
% es.Ez (V/m) @ t=3.8
-2.1659536049928696
% es.tEx (V/m) @ t=3.8
3.5505510925817276
% es.tEy (V/m) @ t=3.8
0
% es.tEz (V/m) @ t=3.8
-2.1659536049928647
% V (V) @ t=3.8
0.07701690401258128
% es.normE (V/m) @ t=3.9
4.490551518252039
% es.EX (V/m) @ t=3.9
3.6444257850105872
% es.EY (V/m) @ t=3.9
1.0605709802081926
% es.EZ (V/m) @ t=3.9
-2.2231983891078184
% es.tEX (V/m) @ t=3.9
3.64442578501054
% es.tEY (V/m) @ t=3.9
0
% es.tEZ (V/m) @ t=3.9
-2.2231983891078073
% es.Ex (V/m) @ t=3.9
3.6444257850105872
% es.Ey (V/m) @ t=3.9
1.0605709802081926
% es.Ez (V/m) @ t=3.9
-2.2231983891078184
% es.tEx (V/m) @ t=3.9
3.64442578501054
% es.tEy (V/m) @ t=3.9
0
% es.tEz (V/m) @ t=3.9
-2.2231983891078073
% V (V) @ t=3.9
0.07905517074930664
% es.normE (V/m) @ t=4
4.605179596182383
% es.EX (V/m) @ t=4
3.737462367563456
% es.EY (V/m) @ t=4
1.0876471529292258
% es.EZ (V/m) @ t=4
-2.2799308008002654
% es.tEX (V/m) @ t=4
3.737462367563438
% es.tEY (V/m) @ t=4
0
% es.tEZ (V/m) @ t=4
-2.2799308008002583
% es.Ex (V/m) @ t=4
3.737462367563456
% es.Ey (V/m) @ t=4
1.0876471529292258
% es.Ez (V/m) @ t=4
-2.2799308008002654
% es.tEx (V/m) @ t=4
3.737462367563438
% es.tEy (V/m) @ t=4
0
% es.tEz (V/m) @ t=4
-2.2799308008002583
% V (V) @ t=4
0.08107535515536658
% es.normE (V/m) @ t=4.1
4.718690772068395
% es.EX (V/m) @ t=4.1
3.8295923058816093
% es.EY (V/m) @ t=4.1
1.1144594392765441
% es.EZ (V/m) @ t=4.1
-2.3361107514448696
% es.tEX (V/m) @ t=4.1
3.82959230588159
% es.tEY (V/m) @ t=4.1
0
% es.tEZ (V/m) @ t=4.1
-2.3361107514448634
% es.Ex (V/m) @ t=4.1
3.8295923058816093
% es.Ey (V/m) @ t=4.1
1.1144594392765441
% es.Ez (V/m) @ t=4.1
-2.3361107514448696
% es.tEx (V/m) @ t=4.1
3.82959230588159
% es.tEy (V/m) @ t=4.1
0
% es.tEz (V/m) @ t=4.1
-2.3361107514448634
% V (V) @ t=4.1
0.08307581233339958
% es.normE (V/m) @ t=4.2
4.830090046999529
% es.EX (V/m) @ t=4.2
3.9200016078420554
% es.EY (V/m) @ t=4.2
1.1407696403121108
% es.EZ (V/m) @ t=4.2
-2.3912621028549634
% es.tEX (V/m) @ t=4.2
3.920001607842039
% es.tEY (V/m) @ t=4.2
0
% es.tEZ (V/m) @ t=4.2
-2.391262102854853
% es.Ex (V/m) @ t=4.2
3.9200016078420554
% es.Ey (V/m) @ t=4.2
1.1407696403121108
% es.Ez (V/m) @ t=4.2
-2.3912621028549634
% es.tEx (V/m) @ t=4.2
3.920001607842039
% es.tEy (V/m) @ t=4.2
0
% es.tEz (V/m) @ t=4.2
-2.391262102854853
% V (V) @ t=4.2
0.08503700560831152
% es.normE (V/m) @ t=4.3
4.940082300759882
% es.EX (V/m) @ t=4.3
4.009266923986601
% es.EY (V/m) @ t=4.3
1.1667465015835918
% es.EZ (V/m) @ t=4.3
-2.445722162156068
% es.tEX (V/m) @ t=4.3
4.009266923986573
% es.tEY (V/m) @ t=4.3
0
% es.tEZ (V/m) @ t=4.3
-2.445722162156045
% es.Ex (V/m) @ t=4.3
4.009266923986601
% es.Ey (V/m) @ t=4.3
1.1667465015835918
% es.Ez (V/m) @ t=4.3
-2.445722162156068
% es.tEx (V/m) @ t=4.3
4.009266923986573
% es.tEy (V/m) @ t=4.3
0
% es.tEz (V/m) @ t=4.3
-2.445722162156045
% V (V) @ t=4.3
0.08697277520528267
% es.normE (V/m) @ t=4.4
5.048667533377239
% es.EX (V/m) @ t=4.4
4.097388254315192
% es.EY (V/m) @ t=4.4
1.192390023091065
% es.EZ (V/m) @ t=4.4
-2.4994909293482968
% es.tEX (V/m) @ t=4.4
4.097388254315192
% es.tEY (V/m) @ t=4.4
0
% es.tEZ (V/m) @ t=4.4
-2.499490929348269
% es.Ex (V/m) @ t=4.4
4.097388254315192
% es.Ey (V/m) @ t=4.4
1.192390023091065
% es.Ez (V/m) @ t=4.4
-2.4994909293482968
% es.tEx (V/m) @ t=4.4
4.097388254315192
% es.tEy (V/m) @ t=4.4
0
% es.tEz (V/m) @ t=4.4
-2.499490929348269
% V (V) @ t=4.4
0.08888312112431306
% es.normE (V/m) @ t=4.5
5.155845744903134
% es.EX (V/m) @ t=4.5
4.184365598827876
% es.EY (V/m) @ t=4.5
1.2177002048345913
% es.EZ (V/m) @ t=4.5
-2.552568404431593
% es.tEX (V/m) @ t=4.5
4.184365598827853
% es.tEY (V/m) @ t=4.5
0
% es.tEZ (V/m) @ t=4.5
-2.5525684044315824
% es.Ex (V/m) @ t=4.5
4.184365598827876
% es.Ey (V/m) @ t=4.5
1.2177002048345913
% es.Ez (V/m) @ t=4.5
-2.552568404431593
% es.tEx (V/m) @ t=4.5
4.184365598827853
% es.tEy (V/m) @ t=4.5
0
% es.tEz (V/m) @ t=4.5
-2.5525684044315824
% V (V) @ t=4.5
0.0907680433654026
% es.normE (V/m) @ t=4.6
5.261546886478728
% es.EX (V/m) @ t=4.6
4.2701424114959154
% es.EY (V/m) @ t=4.6
1.2426606533574753
% es.EZ (V/m) @ t=4.6
-2.604919133409684
% es.tEX (V/m) @ t=4.6
4.270142411495911
% es.tEY (V/m) @ t=4.6
0
% es.tEZ (V/m) @ t=4.6
-2.6049191334096804
% es.Ex (V/m) @ t=4.6
4.2701424114959154
% es.Ey (V/m) @ t=4.6
1.2426606533574753
% es.Ez (V/m) @ t=4.6
-2.604919133409684
% es.tEx (V/m) @ t=4.6
4.270142411495911
% es.tEy (V/m) @ t=4.6
0
% es.tEz (V/m) @ t=4.6
-2.6049191334096804
% V (V) @ t=4.6
0.0926264038413498
% es.normE (V/m) @ t=4.7
5.363965435640944
% es.EX (V/m) @ t=4.7
4.353261209355951
% es.EY (V/m) @ t=4.7
1.2668488246913827
% es.EZ (V/m) @ t=4.7
-2.65562928384148
% es.tEX (V/m) @ t=4.7
4.353261209355921
% es.tEY (V/m) @ t=4.7
0
% es.tEZ (V/m) @ t=4.7
-2.6556292838414493
% es.Ex (V/m) @ t=4.7
4.353261209355951
% es.Ey (V/m) @ t=4.7
1.2668488246913827
% es.Ez (V/m) @ t=4.7
-2.65562928384148
% es.tEx (V/m) @ t=4.7
4.353261209355921
% es.tEy (V/m) @ t=4.7
0
% es.tEz (V/m) @ t=4.7
-2.6556292838414493
% V (V) @ t=4.7
0.09442886817195961
% es.normE (V/m) @ t=4.8
5.464342251697746
% es.EX (V/m) @ t=4.8
4.43472365892616
% es.EY (V/m) @ t=4.8
1.2905551154695867
% es.EZ (V/m) @ t=4.8
-2.7053268941897533
% es.tEX (V/m) @ t=4.8
4.434723658926146
% es.tEY (V/m) @ t=4.8
0
% es.tEZ (V/m) @ t=4.8
-2.7053268941897386
% es.Ex (V/m) @ t=4.8
4.43472365892616
% es.Ey (V/m) @ t=4.8
1.2905551154695867
% es.Ez (V/m) @ t=4.8
-2.7053268941897533
% es.tEx (V/m) @ t=4.8
4.434723658926146
% es.tEy (V/m) @ t=4.8
0
% es.tEz (V/m) @ t=4.8
-2.7053268941897386
% V (V) @ t=4.8
0.09619559663849404
% es.normE (V/m) @ t=4.9
5.562677334645395
% es.EX (V/m) @ t=4.9
4.514529760206667
% es.EY (V/m) @ t=4.9
1.3137795256921658
% es.EZ (V/m) @ t=4.9
-2.754011964454177
% es.tEX (V/m) @ t=4.9
4.5145297602066705
% es.tEY (V/m) @ t=4.9
0
% es.tEZ (V/m) @ t=4.9
-2.7540119644542074
% es.Ex (V/m) @ t=4.9
4.514529760206667
% es.Ey (V/m) @ t=4.9
1.3137795256921658
% es.Ez (V/m) @ t=4.9
-2.754011964454177
% es.tEx (V/m) @ t=4.9
4.5145297602066705
% es.tEy (V/m) @ t=4.9
0
% es.tEz (V/m) @ t=4.9
-2.7540119644542074
% V (V) @ t=4.9
0.09792658924095303
% es.normE (V/m) @ t=5
5.658970684483053
% es.EX (V/m) @ t=5
4.592679513197462
% es.EY (V/m) @ t=5
1.3365220553590276
% es.EZ (V/m) @ t=5
-2.801684494635192
% es.tEX (V/m) @ t=5
4.592679513197453
% es.tEY (V/m) @ t=5
0
% es.tEZ (V/m) @ t=5
-2.801684494635168
% es.Ex (V/m) @ t=5
4.592679513197462
% es.Ey (V/m) @ t=5
1.3365220553590276
% es.Ez (V/m) @ t=5
-2.801684494635192
% es.tEx (V/m) @ t=5
4.592679513197453
% es.tEy (V/m) @ t=5
0
% es.tEz (V/m) @ t=5
-2.801684494635168
% V (V) @ t=5
0.09962184597933664
% es.normE (V/m) @ t=5.1
5.753222301211897
% es.EX (V/m) @ t=5.1
4.669172917898482
% es.EY (V/m) @ t=5.1
1.358782704470399
% es.EZ (V/m) @ t=5.1
-2.8483444847323005
% es.tEX (V/m) @ t=5.1
4.66917291789845
% es.tEY (V/m) @ t=5.1
0
% es.tEZ (V/m) @ t=5.1
-2.8483444847322517
% es.Ex (V/m) @ t=5.1
4.669172917898482
% es.Ey (V/m) @ t=5.1
1.358782704470399
% es.Ez (V/m) @ t=5.1
-2.8483444847323005
% es.tEx (V/m) @ t=5.1
4.66917291789845
% es.tEy (V/m) @ t=5.1
0
% es.tEz (V/m) @ t=5.1
-2.8483444847322517
% V (V) @ t=5.1
0.10128136685364483
% es.normE (V/m) @ t=5.2
5.843392392328806
% es.EX (V/m) @ t=5.2
4.742352371437004
% es.EY (V/m) @ t=5.2
1.380078653354974
% es.EZ (V/m) @ t=5.2
-2.892987544419067
% es.tEX (V/m) @ t=5.2
4.742352371436979
% es.tEY (V/m) @ t=5.2
0
% es.tEZ (V/m) @ t=5.2
-2.8929875444190714
% es.Ex (V/m) @ t=5.2
4.742352371437004
% es.Ey (V/m) @ t=5.2
1.380078653354974
% es.Ez (V/m) @ t=5.2
-2.892987544419067
% es.tEx (V/m) @ t=5.2
4.742352371436979
% es.tEy (V/m) @ t=5.2
0
% es.tEz (V/m) @ t=5.2
-2.8929875444190714
% V (V) @ t=5.2
0.1028685723583531
% es.normE (V/m) @ t=5.3
5.93041542467439
% es.EX (V/m) @ t=5.3
4.812977252483218
% es.EY (V/m) @ t=5.3
1.4006310906739943
% es.EZ (V/m) @ t=5.3
-2.9360738035629796
% es.tEX (V/m) @ t=5.3
4.812977252483236
% es.tEY (V/m) @ t=5.3
0
% es.tEZ (V/m) @ t=5.3
-2.936073803562948
% es.Ex (V/m) @ t=5.3
4.812977252483218
% es.Ey (V/m) @ t=5.3
1.4006310906739943
% es.Ez (V/m) @ t=5.3
-2.9360738035629796
% es.tEx (V/m) @ t=5.3
4.812977252483236
% es.tEy (V/m) @ t=5.3
0
% es.tEz (V/m) @ t=5.3
-2.936073803562948
% V (V) @ t=5.3