% Model:              1x1--2 - Copy1.mph
% Version:            COMSOL 6.1.0.252
% Date:               Mar 28 2023, 11:54
% Dimension:          0
% Nodes:              14017
% Expressions:        14017
% Description:        Electric field norm, Electric field, X component, Electric field, Y component, Electric field, Z component, Tangential electric field, X component, Tangential electric field, Y component, Tangential electric field, Z component, Electric field, x component, Electric field, y component, Electric field, z component, Tangential electric field, x component, Tangential electric field, y component, Tangential electric field, z component, Electric potential
% Length unit:        mm
% x
2
% y
12.199999999999998
% z
1.6599999999999997
% es.normE (V/m) @ t=0
0.7229780559704302
% es.EX (V/m) @ t=0
0.36609179559600236
% es.EY (V/m) @ t=0
0.17866736308400716
% es.EZ (V/m) @ t=0
-0.5728869972648285
% es.tEX (V/m) @ t=0
0.3660917955959846
% es.tEY (V/m) @ t=0
0
% es.tEZ (V/m) @ t=0
-0.5728869972648241
% es.Ex (V/m) @ t=0
0.36609179559600236
% es.Ey (V/m) @ t=0
0.17866736308400716
% es.Ez (V/m) @ t=0
-0.5728869972648285
% es.tEx (V/m) @ t=0
0.3660917955959846
% es.tEy (V/m) @ t=0
0
% es.tEz (V/m) @ t=0
-0.5728869972648241
% V (V) @ t=0
0.012150200917174829
% es.normE (V/m) @ t=0.1
0.8112356280839979
% es.EX (V/m) @ t=0.1
0.41078281808254996
% es.EY (V/m) @ t=0.1
0.20047796691348024
% es.EZ (V/m) @ t=0.1
-0.64282208299473
% es.tEX (V/m) @ t=0.1
0.4107828180825628
% es.tEY (V/m) @ t=0.1
0
% es.tEZ (V/m) @ t=0.1
-0.6428220829947309
% es.Ex (V/m) @ t=0.1
0.41078281808254996
% es.Ey (V/m) @ t=0.1
0.20047796691348024
% es.Ez (V/m) @ t=0.1
-0.64282208299473
% es.tEx (V/m) @ t=0.1
0.4107828180825628
% es.tEy (V/m) @ t=0.1
0
% es.tEz (V/m) @ t=0.1
-0.6428220829947309
% V (V) @ t=0.1
0.013633484983732368
% es.normE (V/m) @ t=0.2
0.8615180276572829
% es.EX (V/m) @ t=0.2
0.4362417815568441
% es.EY (V/m) @ t=0.2
0.21291113318080035
% es.EZ (V/m) @ t=0.2
-0.6826636859291915
% es.tEX (V/m) @ t=0.2
0.43624178155684845
% es.tEY (V/m) @ t=0.2
0
% es.tEZ (V/m) @ t=0.2
-0.682663685929187
% es.Ex (V/m) @ t=0.2
0.4362417815568441
% es.Ey (V/m) @ t=0.2
0.21291113318080035
% es.Ez (V/m) @ t=0.2
-0.6826636859291915
% es.tEx (V/m) @ t=0.2
0.43624178155684845
% es.tEy (V/m) @ t=0.2
0
% es.tEz (V/m) @ t=0.2
-0.682663685929187
% V (V) @ t=0.2
0.014477433630333391
% es.normE (V/m) @ t=0.3
0.9147840282168029
% es.EX (V/m) @ t=0.3
0.463216325098749
% es.EY (V/m) @ t=0.3
0.2260674442291863
% es.EZ (V/m) @ t=0.3
-0.7248737328467163
% es.tEX (V/m) @ t=0.3
0.4632163250987382
% es.tEY (V/m) @ t=0.3
0
% es.tEZ (V/m) @ t=0.3
-0.7248737328467101
% es.Ex (V/m) @ t=0.3
0.463216325098749
% es.Ey (V/m) @ t=0.3
0.2260674442291863
% es.Ez (V/m) @ t=0.3
-0.7248737328467163
% es.tEx (V/m) @ t=0.3
0.4632163250987382
% es.tEy (V/m) @ t=0.3
0
% es.tEz (V/m) @ t=0.3
-0.7248737328467101
% V (V) @ t=0.3
0.015373715829508102
% es.normE (V/m) @ t=0.4
0.9710464525676774
% es.EX (V/m) @ t=0.4
0.49170554517785414
% es.EY (V/m) @ t=0.4
0.23997200031624139
% es.EZ (V/m) @ t=0.4
-0.7694558240808389
% es.tEX (V/m) @ t=0.4
0.4917055451778545
% es.tEY (V/m) @ t=0.4
0
% es.tEZ (V/m) @ t=0.4
-0.7694558240808353
% es.Ex (V/m) @ t=0.4
0.49170554517785414
% es.Ey (V/m) @ t=0.4
0.23997200031624139
% es.Ez (V/m) @ t=0.4
-0.7694558240808389
% es.tEx (V/m) @ t=0.4
0.4917055451778545
% es.tEy (V/m) @ t=0.4
0
% es.tEz (V/m) @ t=0.4
-0.7694558240808353
% V (V) @ t=0.4
0.01631915810151364
% es.normE (V/m) @ t=0.5
1.0342351124748244
% es.EX (V/m) @ t=0.5
0.5236996834370709
% es.EY (V/m) @ t=0.5
0.25559502728296024
% es.EZ (V/m) @ t=0.5
-0.8195242174762551
% es.tEX (V/m) @ t=0.5
0.5236996834370835
% es.tEY (V/m) @ t=0.5
0
% es.tEZ (V/m) @ t=0.5
-0.8195242174762409
% es.Ex (V/m) @ t=0.5
0.5236996834370709
% es.Ey (V/m) @ t=0.5
0.25559502728296024
% es.Ez (V/m) @ t=0.5
-0.8195242174762551
% es.tEx (V/m) @ t=0.5
0.5236996834370835
% es.tEy (V/m) @ t=0.5
0
% es.tEz (V/m) @ t=0.5
-0.8195242174762409
% V (V) @ t=0.5
0.017379948771872773
% es.normE (V/m) @ t=0.6
1.0980660516789762
% es.EX (V/m) @ t=0.6
0.5560188375124295
% es.EY (V/m) @ t=0.6
0.27137741038485547
% es.EZ (V/m) @ t=0.6
-0.8701013631114014
% es.tEX (V/m) @ t=0.6
0.5560188375124149
% es.tEY (V/m) @ t=0.6
0
% es.tEZ (V/m) @ t=0.6
-0.8701013631114014
% es.Ex (V/m) @ t=0.6
0.5560188375124295
% es.Ey (V/m) @ t=0.6
0.27137741038485547
% es.Ez (V/m) @ t=0.6
-0.8701013631114014
% es.tEx (V/m) @ t=0.6
0.5560188375124149
% es.tEy (V/m) @ t=0.6
0
% es.tEz (V/m) @ t=0.6
-0.8701013631114014
% V (V) @ t=0.6
0.01845143585564337
% es.normE (V/m) @ t=0.7
1.1657375082034038
% es.EX (V/m) @ t=0.7
0.5902868681217681
% es.EY (V/m) @ t=0.7
0.2880965354650094
% es.EZ (V/m) @ t=0.7
-0.9237254249828544
% es.tEX (V/m) @ t=0.7
0.5902868681217406
% es.tEY (V/m) @ t=0.7
0
% es.tEZ (V/m) @ t=0.7
-0.9237254249828695
% es.Ex (V/m) @ t=0.7
0.5902868681217681
% es.Ey (V/m) @ t=0.7
0.2880965354650094
% es.Ez (V/m) @ t=0.7
-0.9237254249828544
% es.tEx (V/m) @ t=0.7
0.5902868681217406
% es.tEy (V/m) @ t=0.7
0
% es.tEz (V/m) @ t=0.7
-0.9237254249828695
% V (V) @ t=0.7
0.01958937453096078
% es.normE (V/m) @ t=0.8
1.2367218318155506
% es.EX (V/m) @ t=0.8
0.6262360182287603
% es.EY (V/m) @ t=0.8
0.30562370311550596
% es.EZ (V/m) @ t=0.8
-0.979977785878491
% es.tEX (V/m) @ t=0.8
0.6262360182287381
% es.tEY (V/m) @ t=0.8
0
% es.tEZ (V/m) @ t=0.8
-0.9799777858784822
% es.Ex (V/m) @ t=0.8
0.6262360182287603
% es.Ey (V/m) @ t=0.8
0.30562370311550596
% es.Ez (V/m) @ t=0.8
-0.979977785878491
% es.tEx (V/m) @ t=0.8
0.6262360182287381
% es.tEy (V/m) @ t=0.8
0
% es.tEz (V/m) @ t=0.8
-0.9799777858784822
% V (V) @ t=0.8
0.020784634983337616
% es.normE (V/m) @ t=0.9
1.3118055100870032
% es.EX (V/m) @ t=0.9
0.6642552608616414
% es.EY (V/m) @ t=0.9
0.3241807870638194
% es.EZ (V/m) @ t=0.9
-1.0394734277588231
% es.tEX (V/m) @ t=0.9
0.6642552608616406
% es.tEY (V/m) @ t=0.9
0
% es.tEZ (V/m) @ t=0.9
-1.0394734277588409
% es.Ex (V/m) @ t=0.9
0.6642552608616414
% es.Ey (V/m) @ t=0.9
0.3241807870638194
% es.Ez (V/m) @ t=0.9
-1.0394734277588231
% es.tEx (V/m) @ t=0.9
0.6642552608616406
% es.tEy (V/m) @ t=0.9
0
% es.tEz (V/m) @ t=0.9
-1.0394734277588409
% V (V) @ t=0.9
0.022046184098599972
% es.normE (V/m) @ t=1
1.390618590288779
% es.EX (V/m) @ t=1
0.7041577772177905
% es.EY (V/m) @ t=1
0.34367484087049477
% es.EZ (V/m) @ t=1
-1.101919655557003
% es.tEX (V/m) @ t=1
0.7041577772177803
% es.tEY (V/m) @ t=1
0
% es.tEZ (V/m) @ t=1
-1.1019196555569906
% es.Ex (V/m) @ t=1
0.7041577772177905
% es.Ey (V/m) @ t=1
0.34367484087049477
% es.Ez (V/m) @ t=1
-1.101919655557003
% es.tEx (V/m) @ t=1
0.7041577772177803
% es.tEy (V/m) @ t=1
0
% es.tEz (V/m) @ t=1
-1.1019196555569906
% V (V) @ t=1
0.02336803955060572
% es.normE (V/m) @ t=1.1
1.4738625414853312
% es.EX (V/m) @ t=1.1
0.7463087961644783
% es.EY (V/m) @ t=1.1
0.3642494805794151
% es.EZ (V/m) @ t=1.1
-1.1678812077589473
% es.tEX (V/m) @ t=1.1
0.7463087961644561
% es.tEY (V/m) @ t=1.1
0
% es.tEZ (V/m) @ t=1.1
-1.167881207758958
% es.Ex (V/m) @ t=1.1
0.7463087961644783
% es.Ey (V/m) @ t=1.1
0.3642494805794151
% es.Ez (V/m) @ t=1.1
-1.1678812077589473
% es.tEx (V/m) @ t=1.1
0.7463087961644561
% es.tEy (V/m) @ t=1.1
0
% es.tEz (V/m) @ t=1.1
-1.167881207758958
% V (V) @ t=1.1
0.024766584360944845
% es.normE (V/m) @ t=1.2
1.5613572297068812
% es.EX (V/m) @ t=1.2
0.7906169064503856
% es.EY (V/m) @ t=1.2
0.38586077574993227
% es.EZ (V/m) @ t=1.2
-1.2372151713860848
% es.tEX (V/m) @ t=1.2
0.7906169064503601
% es.tEY (V/m) @ t=1.2
0
% es.tEZ (V/m) @ t=1.2
-1.2372151713860902
% es.Ex (V/m) @ t=1.2
0.7906169064503856
% es.Ey (V/m) @ t=1.2
0.38586077574993227
% es.Ez (V/m) @ t=1.2
-1.2372151713860848
% es.tEx (V/m) @ t=1.2
0.7906169064503601
% es.tEy (V/m) @ t=1.2
0
% es.tEz (V/m) @ t=1.2
-1.2372151713860902
% V (V) @ t=1.2
0.02623870077905638
% es.normE (V/m) @ t=1.3
1.651154989341635
% es.EX (V/m) @ t=1.3
0.8360904222835825
% es.EY (V/m) @ t=1.3
0.4080435738618716
% es.EZ (V/m) @ t=1.3
-1.3083733820300285
% es.tEX (V/m) @ t=1.3
0.836090422283533
% es.tEY (V/m) @ t=1.3
0
% es.tEZ (V/m) @ t=1.3
-1.3083733820300267
% es.Ex (V/m) @ t=1.3
0.8360904222835825
% es.Ey (V/m) @ t=1.3
0.4080435738618716
% es.Ez (V/m) @ t=1.3
-1.3083733820300285
% es.tEx (V/m) @ t=1.3
0.836090422283533
% es.tEy (V/m) @ t=1.3
0
% es.tEz (V/m) @ t=1.3
-1.3083733820300267
% V (V) @ t=1.3
0.027749158736215022
% es.normE (V/m) @ t=1.4
1.7460453853419389
% es.EX (V/m) @ t=1.4
0.8841409259216063
% es.EY (V/m) @ t=1.4
0.4314901003933026
% es.EZ (V/m) @ t=1.4
-1.3835654350788698
% es.tEX (V/m) @ t=1.4
0.8841409259216064
% es.tEY (V/m) @ t=1.4
0
% es.tEZ (V/m) @ t=1.4
-1.3835654350788733
% es.Ex (V/m) @ t=1.4
0.8841409259216063
% es.Ey (V/m) @ t=1.4
0.4314901003933026
% es.Ez (V/m) @ t=1.4
-1.3835654350788698
% es.tEx (V/m) @ t=1.4
0.8841409259216064
% es.tEy (V/m) @ t=1.4
0
% es.tEz (V/m) @ t=1.4
-1.3835654350788733
% V (V) @ t=1.4
0.02934439892113682
% es.normE (V/m) @ t=1.5
1.8446267187460266
% es.EX (V/m) @ t=1.5
0.9340591263846167
% es.EY (V/m) @ t=1.5
0.45585252631406814
% es.EZ (V/m) @ t=1.5
-1.4616810544083965
% es.tEX (V/m) @ t=1.5
0.934059126384625
% es.tEY (V/m) @ t=1.5
0
% es.tEZ (V/m) @ t=1.5
-1.4616810544084036
% es.Ex (V/m) @ t=1.5
0.9340591263846167
% es.Ey (V/m) @ t=1.5
0.45585252631406814
% es.Ez (V/m) @ t=1.5
-1.4616810544083965
% es.tEx (V/m) @ t=1.5
0.934059126384625
% es.tEy (V/m) @ t=1.5
0
% es.tEz (V/m) @ t=1.5
-1.4616810544084036
% V (V) @ t=1.5
0.03100108584527533
% es.normE (V/m) @ t=1.6
1.9468989895585147
% es.EX (V/m) @ t=1.6
0.9858450236726277
% es.EY (V/m) @ t=1.6
0.48113085162419
% es.EZ (V/m) @ t=1.6
-1.5427202400187063
% es.tEX (V/m) @ t=1.6
0.9858450236726313
% es.tEY (V/m) @ t=1.6
0
% es.tEZ (V/m) @ t=1.6
-1.542720240018701
% es.Ex (V/m) @ t=1.6
0.9858450236726277
% es.Ey (V/m) @ t=1.6
0.48113085162419
% es.Ez (V/m) @ t=1.6
-1.5427202400187063
% es.tEx (V/m) @ t=1.6
0.9858450236726313
% es.tEy (V/m) @ t=1.6
0
% es.tEz (V/m) @ t=1.6
-1.542720240018701
% V (V) @ t=1.6
0.03271921950863054
% es.normE (V/m) @ t=1.7
2.0539499968367507
% es.EX (V/m) @ t=1.7
1.0400506582090312
% es.EY (V/m) @ t=1.7
0.507590297546458
% es.EZ (V/m) @ t=1.7
-1.6275460402907047
% es.tEX (V/m) @ t=1.7
1.0400506582090117
% es.tEY (V/m) @ t=1.7
0
% es.tEZ (V/m) @ t=1.7
-1.6275460402907171
% es.Ex (V/m) @ t=1.7
1.0400506582090312
% es.Ey (V/m) @ t=1.7
0.507590297546458
% es.Ez (V/m) @ t=1.7
-1.6275460402907047
% es.tEx (V/m) @ t=1.7
1.0400506582090117
% es.tEy (V/m) @ t=1.7
0
% es.tEz (V/m) @ t=1.7
-1.6275460402907171
% V (V) @ t=1.7
0.03451763787431992
% es.normE (V/m) @ t=1.8
2.1666714581257924
% es.EX (V/m) @ t=1.8
1.0971285622377538
% es.EY (V/m) @ t=1.8
0.5354482777881979
% es.EZ (V/m) @ t=1.8
-1.716865934611766
% es.tEX (V/m) @ t=1.8
1.0971285622377636
% es.tEY (V/m) @ t=1.8
0
% es.tEZ (V/m) @ t=1.8
-1.7168659346117767
% es.Ex (V/m) @ t=1.8
1.0971285622377538
% es.Ey (V/m) @ t=1.8
0.5354482777881979
% es.Ez (V/m) @ t=1.8
-1.716865934611766
% es.tEx (V/m) @ t=1.8
1.0971285622377636
% es.tEy (V/m) @ t=1.8
0
% es.tEz (V/m) @ t=1.8
-1.7168659346117767
% V (V) @ t=1.8
0.036411783263880386
% es.normE (V/m) @ t=1.9
2.284111823187116
% es.EX (V/m) @ t=1.9
1.156595839396009
% es.EY (V/m) @ t=1.9
0.5644727905640005
% es.EZ (V/m) @ t=1.9
-1.809924972970002
% es.tEX (V/m) @ t=1.9
1.156595839395976
% es.tEY (V/m) @ t=1.9
0
% es.tEZ (V/m) @ t=1.9
-1.80992497296997
% es.Ex (V/m) @ t=1.9
1.156595839396009
% es.Ey (V/m) @ t=1.9
0.5644727905640005
% es.Ez (V/m) @ t=1.9
-1.809924972970002
% es.tEx (V/m) @ t=1.9
1.156595839395976
% es.tEy (V/m) @ t=1.9
0
% es.tEz (V/m) @ t=1.9
-1.80992497296997
% V (V) @ t=1.9
0.03838517720311598
% es.normE (V/m) @ t=2
2.4062710920215142
% es.EX (V/m) @ t=2
1.2184524896837265
% es.EY (V/m) @ t=2
0.5946638358740043
% es.EZ (V/m) @ t=2
-1.9067231553653379
% es.tEX (V/m) @ t=2
1.2184524896837061
% es.tEY (V/m) @ t=2
0
% es.tEZ (V/m) @ t=2
-1.9067231553653023
% es.Ex (V/m) @ t=2
1.2184524896837265
% es.Ey (V/m) @ t=2
0.5946638358740043
% es.Ez (V/m) @ t=2
-1.9067231553653379
% es.tEx (V/m) @ t=2
1.2184524896837061
% es.tEy (V/m) @ t=2
0
% es.tEz (V/m) @ t=2
-1.9067231553653023
% V (V) @ t=2
0.04043781969202669
% es.normE (V/m) @ t=2.1
2.5333940170212115
% es.EX (V/m) @ t=2.1
1.2828229903599664
% es.EY (V/m) @ t=2.1
0.6260802890738146
% es.EZ (V/m) @ t=2.1
-2.00745490468001
% es.tEX (V/m) @ t=2.1
1.282822990359925
% es.tEY (V/m) @ t=2.1
0
% es.tEZ (V/m) @ t=2.1
-2.0074549046800136
% es.Ex (V/m) @ t=2.1
1.2828229903599664
% es.Ey (V/m) @ t=2.1
0.6260802890738146
% es.Ez (V/m) @ t=2.1
-2.00745490468001
% es.tEx (V/m) @ t=2.1
1.282822990359925
% es.tEy (V/m) @ t=2.1
0
% es.tEz (V/m) @ t=2.1
-2.0074549046800136
% V (V) @ t=2.1
0.04257407282441098
% es.normE (V/m) @ t=2.2
2.6657202248366785
% es.EX (V/m) @ t=2.2
1.3498292118112776
% es.EY (V/m) @ t=2.2
0.6587797925186919
% es.EZ (V/m) @ t=2.2
-2.112310572082965
% es.tEX (V/m) @ t=2.2
1.3498292118112474
% es.tEY (V/m) @ t=2.2
0
% es.tEZ (V/m) @ t=2.2
-2.112310572082972
% es.Ex (V/m) @ t=2.2
1.3498292118112776
% es.Ey (V/m) @ t=2.2
0.6587797925186919
% es.Ez (V/m) @ t=2.2
-2.112310572082965
% es.tEx (V/m) @ t=2.2
1.3498292118112474
% es.tEy (V/m) @ t=2.2
0
% es.tEz (V/m) @ t=2.2
-2.112310572082972
% V (V) @ t=2.2
0.04479820734065389
% es.normE (V/m) @ t=2.3
2.803011884428237
% es.EX (V/m) @ t=2.3
1.4193501968681073
% es.EY (V/m) @ t=2.3
0.6927051357874967
% es.EZ (V/m) @ t=2.3
-2.2211012327724013
% es.tEX (V/m) @ t=2.3
1.4193501968681232
% es.tEY (V/m) @ t=2.3
0
% es.tEZ (V/m) @ t=2.3
-2.221101232772426
% es.Ex (V/m) @ t=2.3
1.4193501968681073
% es.Ey (V/m) @ t=2.3
0.6927051357874967
% es.Ez (V/m) @ t=2.3
-2.2211012327724013
% es.tEx (V/m) @ t=2.3
1.4193501968681232
% es.tEy (V/m) @ t=2.3
0
% es.tEz (V/m) @ t=2.3
-2.221101232772426
% V (V) @ t=2.3
0.0471059845025058
% es.normE (V/m) @ t=2.4
2.9452689958021345
% es.EX (V/m) @ t=2.4
1.4913859455303557
% es.EY (V/m) @ t=2.4
0.727856318880385
% es.EZ (V/m) @ t=2.4
-2.3338268867482306
% es.tEX (V/m) @ t=2.4
1.4913859455303395
% es.tEY (V/m) @ t=2.4
0
% es.tEZ (V/m) @ t=2.4
-2.3338268867482306
% es.Ex (V/m) @ t=2.4
1.4913859455303557
% es.Ey (V/m) @ t=2.4
0.727856318880385
% es.Ez (V/m) @ t=2.4
-2.3338268867482306
% es.tEx (V/m) @ t=2.4
1.4913859455303395
% es.tEy (V/m) @ t=2.4
0
% es.tEz (V/m) @ t=2.4
-2.3338268867482306
% V (V) @ t=2.4
0.04949740430996667
% es.normE (V/m) @ t=2.5
3.091884615060355
% es.EX (V/m) @ t=2.5
1.5656283603621937
% es.EY (V/m) @ t=2.5
0.7640856069239901
% es.EZ (V/m) @ t=2.5
-2.450005917289605
% es.tEX (V/m) @ t=2.5
1.5656283603621972
% es.tEY (V/m) @ t=2.5
0
% es.tEZ (V/m) @ t=2.5
-2.4500059172895945
% es.Ex (V/m) @ t=2.5
1.5656283603621937
% es.Ey (V/m) @ t=2.5
0.7640856069239901
% es.Ez (V/m) @ t=2.5
-2.450005917289605
% es.tEx (V/m) @ t=2.5
1.5656283603621972
% es.tEy (V/m) @ t=2.5
0
% es.tEz (V/m) @ t=2.5
-2.4500059172895945
% V (V) @ t=2.5
0.051961917688566166
% es.normE (V/m) @ t=2.6
3.242155609515777
% es.EX (V/m) @ t=2.6
1.6417205164908104
% es.EY (V/m) @ t=2.6
0.8012218519481666
% es.EZ (V/m) @ t=2.6
-2.5690803808150484
% es.tEX (V/m) @ t=2.6
1.6417205164908495
% es.tEY (V/m) @ t=2.6
0
% es.tEZ (V/m) @ t=2.6
-2.569080380815077
% es.Ex (V/m) @ t=2.6
1.6417205164908104
% es.Ey (V/m) @ t=2.6
0.8012218519481666
% es.Ez (V/m) @ t=2.6
-2.5690803808150484
% es.tEx (V/m) @ t=2.6
1.6417205164908495
% es.tEy (V/m) @ t=2.6
0
% es.tEz (V/m) @ t=2.6
-2.569080380815077
% V (V) @ t=2.6
0.054487303741196355
% es.normE (V/m) @ t=2.7
3.396737973253953
% es.EX (V/m) @ t=2.7
1.7199954102523898
% es.EY (V/m) @ t=2.7
0.8394247280226104
% es.EZ (V/m) @ t=2.7
-2.6915708159100866
% es.tEX (V/m) @ t=2.7
1.7199954102524089
% es.tEY (V/m) @ t=2.7
0
% es.tEZ (V/m) @ t=2.7
-2.6915708159100618
% es.Ex (V/m) @ t=2.7
1.7199954102523898
% es.Ey (V/m) @ t=2.7
0.8394247280226104
% es.Ez (V/m) @ t=2.7
-2.6915708159100866
% es.tEx (V/m) @ t=2.7
1.7199954102524089
% es.tEy (V/m) @ t=2.7
0
% es.tEz (V/m) @ t=2.7
-2.6915708159100618
% V (V) @ t=2.7
0.05708496406598722
% es.normE (V/m) @ t=2.8
3.5556317062772678
% es.EX (V/m) @ t=2.8
1.8004530416469966
% es.EY (V/m) @ t=2.8
0.8786942351474276
% es.EZ (V/m) @ t=2.8
-2.817477222574855
% es.tEX (V/m) @ t=2.8
1.8004530416469464
% es.tEY (V/m) @ t=2.8
0
% es.tEZ (V/m) @ t=2.8
-2.8174772225748264
% es.Ex (V/m) @ t=2.8
1.8004530416469966
% es.Ey (V/m) @ t=2.8
0.8786942351474276
% es.Ez (V/m) @ t=2.8
-2.817477222574855
% es.tEx (V/m) @ t=2.8
1.8004530416469464
% es.tEy (V/m) @ t=2.8
0
% es.tEz (V/m) @ t=2.8
-2.8174772225748264
% V (V) @ t=2.8
0.059754898662938774
% es.normE (V/m) @ t=2.9
3.7179246721426065
% es.EX (V/m) @ t=2.9
1.8826321365348608
% es.EY (V/m) @ t=2.9
0.9188031764589235
% es.EZ (V/m) @ t=2.9
-2.9460773585803643
% es.tEX (V/m) @ t=2.9
1.8826321365348804
% es.tEY (V/m) @ t=2.9
0
% es.tEZ (V/m) @ t=2.9
-2.946077358580382
% es.Ex (V/m) @ t=2.9
1.8826321365348608
% es.Ey (V/m) @ t=2.9
0.9188031764589235
% es.Ez (V/m) @ t=2.9
-2.9460773585803643
% es.tEx (V/m) @ t=2.9
1.8826321365348804
% es.tEy (V/m) @ t=2.9
0
% es.tEz (V/m) @ t=2.9
-2.946077358580382
% V (V) @ t=2.9
0.062482053923576364
% es.normE (V/m) @ t=3
3.88190325295153
% es.EX (V/m) @ t=3
1.9656661056849722
% es.EY (V/m) @ t=3
0.9593247204081086
% es.EZ (V/m) @ t=3
-3.076014357620732
% es.tEX (V/m) @ t=3
1.9656661056849316
% es.tEY (V/m) @ t=3
0
% es.tEZ (V/m) @ t=3
-3.076014357620757
% es.Ex (V/m) @ t=3
1.9656661056849722
% es.Ey (V/m) @ t=3
0.9593247204081086
% es.Ez (V/m) @ t=3
-3.076014357620732
% es.tEx (V/m) @ t=3
1.9656661056849316
% es.tEy (V/m) @ t=3
0
% es.tEz (V/m) @ t=3
-3.076014357620757
% V (V) @ t=3
0.06523814884561616
% es.normE (V/m) @ t=3.1
4.0481608626561005
% es.EX (V/m) @ t=3.1
2.049855042914041
% es.EY (V/m) @ t=3.1
1.0004066757884165
% es.EZ (V/m) @ t=3.1
-3.2077580930499288
% es.tEX (V/m) @ t=3.1
2.049855042913947
% es.tEY (V/m) @ t=3.1
0
% es.tEZ (V/m) @ t=3.1
-3.207758093049918
% es.Ex (V/m) @ t=3.1
2.049855042914041
% es.Ey (V/m) @ t=3.1
1.0004066757884165
% es.Ez (V/m) @ t=3.1
-3.2077580930499288
% es.tEx (V/m) @ t=3.1
2.049855042913947
% es.tEy (V/m) @ t=3.1
0
% es.tEz (V/m) @ t=3.1
-3.207758093049918
% V (V) @ t=3.1
0.06803297694322936
% es.normE (V/m) @ t=3.2
4.216322364673409
% es.EX (V/m) @ t=3.2
2.135009238871124
% es.EY (V/m) @ t=3.2
1.0419556027865597
% es.EZ (V/m) @ t=3.2
-3.3410115265288276
% es.tEX (V/m) @ t=3.2
2.135009238871092
% es.tEY (V/m) @ t=3.2
0
% es.tEZ (V/m) @ t=3.2
-3.3410115265287956
% es.Ex (V/m) @ t=3.2
2.135009238871124
% es.Ey (V/m) @ t=3.2
1.0419556027865597
% es.Ez (V/m) @ t=3.2
-3.3410115265288276
% es.tEx (V/m) @ t=3.2
2.135009238871092
% es.tEy (V/m) @ t=3.2
0
% es.tEz (V/m) @ t=3.2
-3.3410115265287956
% V (V) @ t=3.2
0.07086034708180665
% es.normE (V/m) @ t=3.3
4.385192109218011
% es.EX (V/m) @ t=3.3
2.2205219605309363
% es.EY (V/m) @ t=3.3
1.0836798662755087
% es.EZ (V/m) @ t=3.3
-3.4748260774566333
% es.tEX (V/m) @ t=3.3
2.2205219605308884
% es.tEY (V/m) @ t=3.3
0
% es.tEZ (V/m) @ t=3.3
-3.474826077456683
% es.Ex (V/m) @ t=3.3
2.2205219605309363
% es.Ey (V/m) @ t=3.3
1.0836798662755087
% es.Ez (V/m) @ t=3.3
-3.4748260774566333
% es.tEx (V/m) @ t=3.3
2.2205219605308884
% es.tEy (V/m) @ t=3.3
0
% es.tEz (V/m) @ t=3.3
-3.474826077456683
% V (V) @ t=3.3
0.07369957181589332
% es.normE (V/m) @ t=3.4
4.552638161782351
% es.EX (V/m) @ t=3.4
2.305310610649955
% es.EY (V/m) @ t=3.4
1.1250616711677623
% es.EZ (V/m) @ t=3.4
-3.607509692697686
% es.tEX (V/m) @ t=3.4
2.305310610649954
% es.tEY (V/m) @ t=3.4
0
% es.tEZ (V/m) @ t=3.4
-3.607509692697654
% es.Ex (V/m) @ t=3.4
2.305310610649955
% es.Ey (V/m) @ t=3.4
1.1250616711677623
% es.Ez (V/m) @ t=3.4
-3.607509692697686
% es.tEx (V/m) @ t=3.4
2.305310610649954
% es.tEy (V/m) @ t=3.4
0
% es.tEz (V/m) @ t=3.4
-3.607509692697654
% V (V) @ t=3.4
0.07651342201178711
% es.normE (V/m) @ t=3.5
4.718893219890225
% es.EX (V/m) @ t=3.5
2.3894944099617605
% es.EY (V/m) @ t=3.5
1.1661544002371447
% es.EZ (V/m) @ t=3.5
-3.7392479947730486
% es.tEX (V/m) @ t=3.5
2.3894944099617135
% es.tEY (V/m) @ t=3.5
0
% es.tEZ (V/m) @ t=3.5
-3.7392479947730664
% es.Ex (V/m) @ t=3.5
2.3894944099617605
% es.Ey (V/m) @ t=3.5
1.1661544002371447
% es.Ez (V/m) @ t=3.5
-3.7392479947730486
% es.tEx (V/m) @ t=3.5
2.3894944099617135
% es.tEy (V/m) @ t=3.5
0
% es.tEz (V/m) @ t=3.5
-3.7392479947730664
% V (V) @ t=3.5
0.0793064453653073
% es.normE (V/m) @ t=3.6
4.8832168265332845
% es.EX (V/m) @ t=3.6
2.4726979759578422
% es.EY (V/m) @ t=3.6
1.2067763703595498
% es.EZ (V/m) @ t=3.6
-3.869453856515811
% es.tEX (V/m) @ t=3.6
2.4726979759578427
% es.tEY (V/m) @ t=3.6
0
% es.tEZ (V/m) @ t=3.6
-3.8694538565157615
% es.Ex (V/m) @ t=3.6
2.4726979759578422
% es.Ey (V/m) @ t=3.6
1.2067763703595498
% es.Ez (V/m) @ t=3.6
-3.869453856515811
% es.tEx (V/m) @ t=3.6
2.4726979759578427
% es.tEy (V/m) @ t=3.6
0
% es.tEz (V/m) @ t=3.6
-3.8694538565157615
% V (V) @ t=3.6
0.08206599649003615
% es.normE (V/m) @ t=3.7
5.044491608307212
% es.EX (V/m) @ t=3.7
2.5543570055437104
% es.EY (V/m) @ t=3.7
1.2466470075241365
% es.EZ (V/m) @ t=3.7
-3.9972432011490113
% es.tEX (V/m) @ t=3.7
2.5543570055436504
% es.tEY (V/m) @ t=3.7
0
% es.tEZ (V/m) @ t=3.7
-3.9972432011490255
% es.Ex (V/m) @ t=3.7
2.5543570055437104
% es.Ey (V/m) @ t=3.7
1.2466470075241365
% es.Ez (V/m) @ t=3.7
-3.9972432011490113
% es.tEx (V/m) @ t=3.7
2.5543570055436504
% es.tEy (V/m) @ t=3.7
0
% es.tEz (V/m) @ t=3.7
-3.9972432011490255
% V (V) @ t=3.7
0.08477398314089928
% es.normE (V/m) @ t=3.8
5.201055761439083
% es.EX (V/m) @ t=3.8
2.6336343126300985
% es.EY (V/m) @ t=3.8
1.2853428965294678
% es.EZ (V/m) @ t=3.8
-4.121303028290981
% es.tEX (V/m) @ t=3.8
2.6336343126300363
% es.tEY (V/m) @ t=3.8
0
% es.tEZ (V/m) @ t=3.8
-4.12130302829101
% es.Ex (V/m) @ t=3.8
2.6336343126300985
% es.Ey (V/m) @ t=3.8
1.2853428965294678
% es.Ez (V/m) @ t=3.8
-4.121303028290981
% es.tEx (V/m) @ t=3.8
2.6336343126300363
% es.tEy (V/m) @ t=3.8
0
% es.tEz (V/m) @ t=3.8
-4.12130302829101
% V (V) @ t=3.8
0.08740444545432247
% es.normE (V/m) @ t=3.9
5.352487262738985
% es.EX (V/m) @ t=3.9
2.7103141222763822
% es.EY (V/m) @ t=3.9
1.322765901175906
% es.EZ (V/m) @ t=3.9
-4.241297085525922
% es.tEX (V/m) @ t=3.9
2.7103141222763014
% es.tEY (V/m) @ t=3.9
0
% es.tEZ (V/m) @ t=3.9
-4.241297085525908
% es.Ex (V/m) @ t=3.9
2.7103141222763822
% es.Ey (V/m) @ t=3.9
1.322765901175906
% es.Ez (V/m) @ t=3.9
-4.241297085525922
% es.tEx (V/m) @ t=3.9
2.7103141222763014
% es.tEy (V/m) @ t=3.9
0
% es.tEz (V/m) @ t=3.9
-4.241297085525908
% V (V) @ t=3.9
0.08994933976505956
% es.normE (V/m) @ t=4
5.497863007526101
% es.EX (V/m) @ t=4
2.7839295040966885
% es.EY (V/m) @ t=4
1.3586864174059305
% es.EZ (V/m) @ t=4
-4.356494348681508
% es.tEX (V/m) @ t=4
2.7839295040966476
% es.tEY (V/m) @ t=4
0
% es.tEZ (V/m) @ t=4
-4.356494348681515
% es.Ex (V/m) @ t=4
2.7839295040966885
% es.Ey (V/m) @ t=4
1.3586864174059305
% es.Ez (V/m) @ t=4
-4.356494348681508
% es.tEx (V/m) @ t=4
2.7839295040966476
% es.tEy (V/m) @ t=4
0
% es.tEz (V/m) @ t=4
-4.356494348681515
% V (V) @ t=4
0.09239338122658669
% es.normE (V/m) @ t=4.1
5.63648483790648
% es.EX (V/m) @ t=4.1
2.8541261832063034
% es.EY (V/m) @ t=4.1
1.3929341382396128
% es.EZ (V/m) @ t=4.1
-4.466340932286236
% es.tEX (V/m) @ t=4.1
2.8541261832063185
% es.tEY (V/m) @ t=4.1
0
% es.tEZ (V/m) @ t=4.1
-4.4663409322863
% es.Ex (V/m) @ t=4.1
2.8541261832063034
% es.Ey (V/m) @ t=4.1
1.3929341382396128
% es.Ez (V/m) @ t=4.1
-4.466340932286236
% es.tEx (V/m) @ t=4.1
2.8541261832063185
% es.tEy (V/m) @ t=4.1
0
% es.tEz (V/m) @ t=4.1
-4.4663409322863
% V (V) @ t=4.1
0.09472449273848409
% es.normE (V/m) @ t=4.2
5.768059305428024
% es.EX (V/m) @ t=4.2
2.9207525671193144
% es.EY (V/m) @ t=4.2
1.4254454401132806
% es.EZ (V/m) @ t=4.2
-4.57060164721549
% es.tEX (V/m) @ t=4.2
2.9207525671191092
% es.tEY (V/m) @ t=4.2
0
% es.tEZ (V/m) @ t=4.2
-4.570601647215483
% es.Ex (V/m) @ t=4.2
2.9207525671193144
% es.Ey (V/m) @ t=4.2
1.4254454401132806
% es.Ez (V/m) @ t=4.2
-4.57060164721549
% es.tEx (V/m) @ t=4.2
2.9207525671191092
% es.tEy (V/m) @ t=4.2
0
% es.tEz (V/m) @ t=4.2
-4.570601647215483
% V (V) @ t=4.2
0.09693636836698136
% es.normE (V/m) @ t=4.3
5.891445956619928
% es.EX (V/m) @ t=4.3
2.9832328750855908
% es.EY (V/m) @ t=4.3
1.455933424755131
% es.EZ (V/m) @ t=4.3
-4.668374313767224
% es.tEX (V/m) @ t=4.3
2.983232875085662
% es.tEY (V/m) @ t=4.3
0
% es.tEZ (V/m) @ t=4.3
-4.668374313767181
% es.Ex (V/m) @ t=4.3
2.9832328750855908
% es.Ey (V/m) @ t=4.3
1.455933424755131
% es.Ez (V/m) @ t=4.3
-4.668374313767224
% es.tEx (V/m) @ t=4.3
2.983232875085662
% es.tEy (V/m) @ t=4.3
0
% es.tEz (V/m) @ t=4.3
-4.668374313767181
% V (V) @ t=4.3
0.09901062386672287
% es.normE (V/m) @ t=4.4
6.00584106569931
% es.EX (V/m) @ t=4.4
3.0411599628208954
% es.EY (V/m) @ t=4.4
1.484199956975703
% es.EZ (V/m) @ t=4.4
-4.759021915005697
% es.tEX (V/m) @ t=4.4
3.0411599628208705
% es.tEY (V/m) @ t=4.4
0
% es.tEZ (V/m) @ t=4.4
-4.759021915005668
% es.Ex (V/m) @ t=4.4
3.0411599628208954
% es.Ey (V/m) @ t=4.4
1.484199956975703
% es.Ez (V/m) @ t=4.4
-4.759021915005697
% es.tEx (V/m) @ t=4.4
3.0411599628208705
% es.tEy (V/m) @ t=4.4
0
% es.tEz (V/m) @ t=4.4
-4.759021915005668
% V (V) @ t=4.4
0.10093367673710957
% es.normE (V/m) @ t=4.5
6.11110765403535
% es.EX (V/m) @ t=4.5
3.0944641215954567
% es.EY (V/m) @ t=4.5
1.5102122154048416
% es.EZ (V/m) @ t=4.5
-4.84243560123614
% es.tEX (V/m) @ t=4.5
3.0944641215955073
% es.tEY (V/m) @ t=4.5
0
% es.tEZ (V/m) @ t=4.5
-4.842435601236147
% es.Ex (V/m) @ t=4.5
3.0944641215954567
% es.Ey (V/m) @ t=4.5
1.5102122154048416
% es.Ez (V/m) @ t=4.5
-4.84243560123614
% es.tEx (V/m) @ t=4.5
3.0944641215955073
% es.tEy (V/m) @ t=4.5
0
% es.tEz (V/m) @ t=4.5
-4.842435601236147
% V (V) @ t=4.5
0.1027030658831894
% es.normE (V/m) @ t=4.6
6.208588606455356
% es.EX (V/m) @ t=4.6
3.143824590079854
% es.EY (V/m) @ t=4.6
1.5343042971949101
% es.EZ (V/m) @ t=4.6
-4.919678804333195
% es.tEX (V/m) @ t=4.6
3.1438245900797597
% es.tEY (V/m) @ t=4.6
0
% es.tEZ (V/m) @ t=4.6
-4.919678804333195
% es.Ex (V/m) @ t=4.6
3.143824590079854
% es.Ey (V/m) @ t=4.6
1.5343042971949101
% es.Ez (V/m) @ t=4.6
-4.919678804333195
% es.tEx (V/m) @ t=4.6
3.1438245900797597
% es.tEy (V/m) @ t=4.6
0
% es.tEz (V/m) @ t=4.6
-4.919678804333195
% V (V) @ t=4.6
0.10434101447255187
% es.normE (V/m) @ t=4.7
6.296740254677763
% es.EX (V/m) @ t=4.7
3.1884597448362912
% es.EY (V/m) @ t=4.7
1.5560946052230076
% es.EZ (V/m) @ t=4.7
-4.989528358040651
% es.tEX (V/m) @ t=4.7
3.1884597448361944
% es.tEY (V/m) @ t=4.7
0
% es.tEZ (V/m) @ t=4.7
-4.989528358040616
% es.Ex (V/m) @ t=4.7
3.1884597448362912
% es.Ey (V/m) @ t=4.7
1.5560946052230076
% es.Ez (V/m) @ t=4.7
-4.989528358040651
% es.tEx (V/m) @ t=4.7
3.1884597448361944
% es.tEy (V/m) @ t=4.7
0
% es.tEz (V/m) @ t=4.7
-4.989528358040616
% V (V) @ t=4.7
0.10582159769359242
% es.normE (V/m) @ t=4.8
6.375149230909123
% es.EX (V/m) @ t=4.8
3.228159998716813
% es.EY (V/m) @ t=4.8
1.5754817899654183
% es.EZ (V/m) @ t=4.8
-5.051656469528119
% es.tEX (V/m) @ t=4.8
3.228159998716592
% es.tEY (V/m) @ t=4.8
0
% es.tEZ (V/m) @ t=4.8
-5.05165646952814
% es.Ex (V/m) @ t=4.8
3.228159998716813
% es.Ey (V/m) @ t=4.8
1.5754817899654183
% es.Ez (V/m) @ t=4.8
-5.051656469528119
% es.tEx (V/m) @ t=4.8
3.228159998716592
% es.tEy (V/m) @ t=4.8
0
% es.tEz (V/m) @ t=4.8
-5.05165646952814
% V (V) @ t=4.8
0.1071377442536122
% es.normE (V/m) @ t=4.9
6.443880777749824
% es.EX (V/m) @ t=4.9
3.262959014258355
% es.EY (V/m) @ t=4.9
1.592480118880708
% es.EZ (V/m) @ t=4.9
-5.106115392032272
% es.tEX (V/m) @ t=4.9
3.2629590142583424
% es.tEY (V/m) @ t=4.9
0
% es.tEZ (V/m) @ t=4.9
-5.106115392032322
% es.Ex (V/m) @ t=4.9
3.262959014258355
% es.Ey (V/m) @ t=4.9
1.592480118880708
% es.Ez (V/m) @ t=4.9
-5.106115392032272
% es.tEx (V/m) @ t=4.9
3.2629590142583424
% es.tEy (V/m) @ t=4.9
0
% es.tEz (V/m) @ t=4.9
-5.106115392032322
% V (V) @ t=4.9
0.10829083728405318
% es.normE (V/m) @ t=5
6.504565640907634
% es.EX (V/m) @ t=5
3.293686107763377
% es.EY (V/m) @ t=5
1.6074820349937764
% es.EZ (V/m) @ t=5
-5.154200484544468
% es.tEX (V/m) @ t=5
3.2936861077633637
% es.tEY (V/m) @ t=5
0
% es.tEZ (V/m) @ t=5
-5.154200484544454
% es.Ex (V/m) @ t=5
3.293686107763377
% es.Ey (V/m) @ t=5
1.6074820349937764
% es.Ez (V/m) @ t=5
-5.154200484544468
% es.tEx (V/m) @ t=5
3.2936861077633637
% es.tEy (V/m) @ t=5
0
% es.tEz (V/m) @ t=5
-5.154200484544454
% V (V) @ t=5
0.1093099137831384
% es.normE (V/m) @ t=5.1
6.556627195602165
% es.EX (V/m) @ t=5.1
3.3200487181166833
% es.EY (V/m) @ t=5.1
1.6203467511154748
% es.EZ (V/m) @ t=5.1
-5.195454318179237
% es.tEX (V/m) @ t=5.1
3.320048718116567
% es.tEY (V/m) @ t=5.1
0
% es.tEZ (V/m) @ t=5.1
-5.195454318179273
% es.Ex (V/m) @ t=5.1
3.3200487181166833
% es.Ey (V/m) @ t=5.1
1.6203467511154748
% es.Ez (V/m) @ t=5.1
-5.195454318179237
% es.tEx (V/m) @ t=5.1
3.320048718116567
% es.tEy (V/m) @ t=5.1
0
% es.tEz (V/m) @ t=5.1
-5.195454318179273
% V (V) @ t=5.1
0.11018501860199215
% es.normE (V/m) @ t=5.2
6.600440468509992
% es.EX (V/m) @ t=5.2
3.342237953010379
% es.EY (V/m) @ t=5.2
1.6311633686497875
% es.EZ (V/m) @ t=5.2
-5.230175133795093
% es.tEX (V/m) @ t=5.2
3.3422379530101978
% es.tEY (V/m) @ t=5.2
0
% es.tEZ (V/m) @ t=5.2
-5.230175133795136
% es.Ex (V/m) @ t=5.2
3.342237953010379
% es.Ey (V/m) @ t=5.2
1.6311633686497875
% es.Ez (V/m) @ t=5.2
-5.230175133795093
% es.tEx (V/m) @ t=5.2
3.3422379530101978
% es.tEy (V/m) @ t=5.2
0
% es.tEz (V/m) @ t=5.2
-5.230175133795136
% V (V) @ t=5.2
0.1109230070604931
% es.normE (V/m) @ t=5.3
6.636355164943856
% es.EX (V/m) @ t=5.3
3.3604308629676822
% es.EY (V/m) @ t=5.3
1.6400183939404283
% es.EZ (V/m) @ t=5.3
-5.2586400119976915
% es.tEX (V/m) @ t=5.3
3.360430862967661
% es.tEY (V/m) @ t=5.3
0
% es.tEZ (V/m) @ t=5.3
-5.25864001199762
% es.Ex (V/m) @ t=5.3
3.3604308629676822
% es.Ey (V/m) @ t=5.3
1.6400183939404283
% es.Ez (V/m) @ t=5.3
-5.2586400119976915
% es.tEx (V/m) @ t=5.3
3.360430862967661
% es.tEy (V/m) @ t=5.3
0
% es.tEz (V/m) @ t=5.3
-5.25864001199762
% V (V) @ t=5.3
0.11152974313188123