% Model:              1x1--2 - Copy1.mph
% Version:            COMSOL 6.1.0.252
% Date:               Mar 28 2023, 11:42
% Dimension:          0
% Nodes:              14017
% Expressions:        14017
% Description:        Electric field norm, Electric field, X component, Electric field, Y component, Electric field, Z component, Tangential electric field, X component, Tangential electric field, Y component, Tangential electric field, Z component, Electric field, x component, Electric field, y component, Electric field, z component, Tangential electric field, x component, Tangential electric field, y component, Tangential electric field, z component, Electric potential
% Length unit:        mm
% x
1.33
% y
12.2
% z
1.66
% es.normE (V/m) @ t=0
0.5676404666496877
% es.EX (V/m) @ t=0
0.3484874937023026
% es.EY (V/m) @ t=0
0.23706170765619494
% es.EZ (V/m) @ t=0
-0.3240950841989818
% es.tEX (V/m) @ t=0
0.3484874937023097
% es.tEY (V/m) @ t=0
0
% es.tEZ (V/m) @ t=0
-0.3240950841989836
% es.Ex (V/m) @ t=0
0.3484874937023026
% es.Ey (V/m) @ t=0
0.23706170765619494
% es.Ez (V/m) @ t=0
-0.3240950841989818
% es.tEx (V/m) @ t=0
0.3484874937023097
% es.tEy (V/m) @ t=0
0
% es.tEz (V/m) @ t=0
-0.3240950841989836
% V (V) @ t=0
0.013862197889595638
% es.normE (V/m) @ t=0.1
0.5834609265948281
% es.EX (V/m) @ t=0.1
0.35819941586772686
% es.EY (V/m) @ t=0.1
0.24366873666900823
% es.EZ (V/m) @ t=0.1
-0.3331286443798822
% es.tEX (V/m) @ t=0.1
0.35819941586772686
% es.tEY (V/m) @ t=0.1
0
% es.tEZ (V/m) @ t=0.1
-0.3331286443798813
% es.Ex (V/m) @ t=0.1
0.35819941586772686
% es.Ey (V/m) @ t=0.1
0.24366873666900823
% es.Ez (V/m) @ t=0.1
-0.3331286443798822
% es.tEx (V/m) @ t=0.1
0.35819941586772686
% es.tEy (V/m) @ t=0.1
0
% es.tEz (V/m) @ t=0.1
-0.3331286443798813
% V (V) @ t=0.1
0.014248420926308104
% es.normE (V/m) @ t=0.2
0.619017819570937
% es.EX (V/m) @ t=0.2
0.3800284443061184
% es.EY (V/m) @ t=0.2
0.25851823471521884
% es.EZ (V/m) @ t=0.2
-0.35343010970607036
% es.tEX (V/m) @ t=0.2
0.3800284443061219
% es.tEY (V/m) @ t=0.2
0
% es.tEZ (V/m) @ t=0.2
-0.3534301097060695
% es.Ex (V/m) @ t=0.2
0.3800284443061184
% es.Ey (V/m) @ t=0.2
0.25851823471521884
% es.Ez (V/m) @ t=0.2
-0.35343010970607036
% es.tEx (V/m) @ t=0.2
0.3800284443061219
% es.tEy (V/m) @ t=0.2
0
% es.tEz (V/m) @ t=0.2
-0.3534301097060695
% V (V) @ t=0.2
0.015116722084877411
% es.normE (V/m) @ t=0.3
0.6561615015365155
% es.EX (V/m) @ t=0.3
0.4028325442382332
% es.EY (V/m) @ t=0.3
0.27403044023475953
% es.EZ (V/m) @ t=0.3
-0.37463629596873105
% es.tEX (V/m) @ t=0.3
0.4028325442382332
% es.tEY (V/m) @ t=0.3
0
% es.tEZ (V/m) @ t=0.3
-0.3746362959687346
% es.Ex (V/m) @ t=0.3
0.4028325442382332
% es.Ey (V/m) @ t=0.3
0.27403044023475953
% es.Ez (V/m) @ t=0.3
-0.37463629596873105
% es.tEx (V/m) @ t=0.3
0.4028325442382332
% es.tEy (V/m) @ t=0.3
0
% es.tEz (V/m) @ t=0.3
-0.3746362959687346
% V (V) @ t=0.3
0.016023969374974977
% es.normE (V/m) @ t=0.4
0.695537166611635
% es.EX (V/m) @ t=0.4
0.4270052802759956
% es.EY (V/m) @ t=0.4
0.29047474112299954
% es.EZ (V/m) @ t=0.4
-0.39711909619418506
% es.tEX (V/m) @ t=0.4
0.4270052802760027
% es.tEY (V/m) @ t=0.4
0
% es.tEZ (V/m) @ t=0.4
-0.39711909619419217
% es.Ex (V/m) @ t=0.4
0.4270052802759956
% es.Ey (V/m) @ t=0.4
0.29047474112299954
% es.Ez (V/m) @ t=0.4
-0.39711909619418506
% es.tEx (V/m) @ t=0.4
0.4270052802760027
% es.tEy (V/m) @ t=0.4
0
% es.tEz (V/m) @ t=0.4
-0.39711909619419217
% V (V) @ t=0.4
0.01698537427705608
% es.normE (V/m) @ t=0.5
0.7372889651247687
% es.EX (V/m) @ t=0.5
0.45263788321715026
% es.EY (V/m) @ t=0.5
0.3079114055325669
% es.EZ (V/m) @ t=0.5
-0.4209570179912827
% es.tEX (V/m) @ t=0.5
0.4526378832171609
% es.tEY (V/m) @ t=0.5
0
% es.tEZ (V/m) @ t=0.5
-0.4209570179912916
% es.Ex (V/m) @ t=0.5
0.45263788321715026
% es.Ey (V/m) @ t=0.5
0.3079114055325669
% es.Ez (V/m) @ t=0.5
-0.4209570179912827
% es.tEx (V/m) @ t=0.5
0.4526378832171609
% es.tEy (V/m) @ t=0.5
0
% es.tEz (V/m) @ t=0.5
-0.4209570179912916
% V (V) @ t=0.5
0.018005044908084352
% es.normE (V/m) @ t=0.6
0.7802899326201223
% es.EX (V/m) @ t=0.6
0.4790377125768259
% es.EY (V/m) @ t=0.6
0.32586976425264513
% es.EZ (V/m) @ t=0.6
-0.44550769112437116
% es.tEX (V/m) @ t=0.6
0.47903771257682237
% es.tEY (V/m) @ t=0.6
0
% es.tEZ (V/m) @ t=0.6
-0.4455076911243694
% es.Ex (V/m) @ t=0.6
0.4790377125768259
% es.Ey (V/m) @ t=0.6
0.32586976425264513
% es.Ez (V/m) @ t=0.6
-0.44550769112437116
% es.tEx (V/m) @ t=0.6
0.47903771257682237
% es.tEy (V/m) @ t=0.6
0
% es.tEz (V/m) @ t=0.6
-0.4455076911243694
% V (V) @ t=0.6
0.01905529348716627
% es.normE (V/m) @ t=0.7
0.8255311699835028
% es.EX (V/m) @ t=0.7
0.5068130700097484
% es.EY (V/m) @ t=0.7
0.3447637234567793
% es.EZ (V/m) @ t=0.7
-0.4713372042642945
% es.tEX (V/m) @ t=0.7
0.5068130700097591
% es.tEY (V/m) @ t=0.7
0
% es.tEZ (V/m) @ t=0.7
-0.47133720426430514
% es.Ex (V/m) @ t=0.7
0.5068130700097484
% es.Ey (V/m) @ t=0.7
0.3447637234567793
% es.Ez (V/m) @ t=0.7
-0.4713372042642945
% es.tEx (V/m) @ t=0.7
0.5068130700097591
% es.tEy (V/m) @ t=0.7
0
% es.tEz (V/m) @ t=0.7
-0.47133720426430514
% V (V) @ t=0.7
0.02016029005564842
% es.normE (V/m) @ t=0.8
0.8725778752025608
% es.EX (V/m) @ t=0.8
0.5356969866187491
% es.EY (V/m) @ t=0.8
0.3644116974439475
% es.EZ (V/m) @ t=0.8
-0.4981973541842102
% es.tEX (V/m) @ t=0.8
0.5356969866187455
% es.tEY (V/m) @ t=0.8
0
% es.tEZ (V/m) @ t=0.8
-0.49819735418421374
% es.Ex (V/m) @ t=0.8
0.5356969866187491
% es.Ey (V/m) @ t=0.8
0.3644116974439475
% es.Ez (V/m) @ t=0.8
-0.4981973541842102
% es.tEx (V/m) @ t=0.8
0.5356969866187455
% es.tEy (V/m) @ t=0.8
0
% es.tEz (V/m) @ t=0.8
-0.49819735418421374
% V (V) @ t=0.8
0.021309408868670224
% es.normE (V/m) @ t=0.9
0.9219564092329233
% es.EX (V/m) @ t=0.9
0.5660119694381507
% es.EY (V/m) @ t=0.9
0.3850334928787911
% es.EZ (V/m) @ t=0.9
-0.5263895526660711
% es.tEX (V/m) @ t=0.9
0.5660119694381507
% es.tEY (V/m) @ t=0.9
0
% es.tEZ (V/m) @ t=0.9
-0.5263895526660818
% es.Ex (V/m) @ t=0.9
0.5660119694381507
% es.Ey (V/m) @ t=0.9
0.3850334928787911
% es.Ez (V/m) @ t=0.9
-0.5263895526660711
% es.tEx (V/m) @ t=0.9
0.5660119694381507
% es.tEy (V/m) @ t=0.9
0
% es.tEz (V/m) @ t=0.9
-0.5263895526660818
% V (V) @ t=0.9
0.022515367161810268
% es.normE (V/m) @ t=1
0.9739186694899749
% es.EX (V/m) @ t=1
0.5979123587319535
% es.EY (V/m) @ t=1
0.4067343013231901
% es.EZ (V/m) @ t=1
-0.5560580445450061
% es.tEX (V/m) @ t=1
0.5979123587319393
% es.tEY (V/m) @ t=1
0
% es.tEZ (V/m) @ t=1
-0.556058044545015
% es.Ex (V/m) @ t=1
0.5979123587319535
% es.Ey (V/m) @ t=1
0.4067343013231901
% es.Ez (V/m) @ t=1
-0.5560580445450061
% es.tEx (V/m) @ t=1
0.5979123587319393
% es.tEy (V/m) @ t=1
0
% es.tEz (V/m) @ t=1
-0.556058044545015
% V (V) @ t=1
0.023784250946496315
% es.normE (V/m) @ t=1.1
1.0282095345559634
% es.EX (V/m) @ t=1.1
0.6312418388545709
% es.EY (V/m) @ t=1.1
0.42940758488175756
% es.EZ (V/m) @ t=1.1
-0.5870567388144732
% es.tEX (V/m) @ t=1.1
0.6312418388545886
% es.tEY (V/m) @ t=1.1
0
% es.tEZ (V/m) @ t=1.1
-0.5870567388144785
% es.Ex (V/m) @ t=1.1
0.6312418388545709
% es.Ey (V/m) @ t=1.1
0.42940758488175756
% es.Ez (V/m) @ t=1.1
-0.5870567388144732
% es.tEx (V/m) @ t=1.1
0.6312418388545886
% es.tEy (V/m) @ t=1.1
0
% es.tEz (V/m) @ t=1.1
-0.5870567388144785
% V (V) @ t=1.1
0.025109896317208478
% es.normE (V/m) @ t=1.2
1.0852292001128752
% es.EX (V/m) @ t=1.2
0.6662468906455494
% es.EY (V/m) @ t=1.2
0.4532204953452075
% es.EZ (V/m) @ t=1.2
-0.6196130286128376
% es.tEX (V/m) @ t=1.2
0.6662468906455423
% es.tEY (V/m) @ t=1.2
0
% es.tEZ (V/m) @ t=1.2
-0.6196130286128465
% es.Ex (V/m) @ t=1.2
0.6662468906455494
% es.Ey (V/m) @ t=1.2
0.4532204953452075
% es.Ez (V/m) @ t=1.2
-0.6196130286128376
% es.tEx (V/m) @ t=1.2
0.6662468906455423
% es.tEy (V/m) @ t=1.2
0
% es.tEz (V/m) @ t=1.2
-0.6196130286128465
% V (V) @ t=1.2
0.02650224666682016
% es.normE (V/m) @ t=1.3
1.1449357887188572
% es.EX (V/m) @ t=1.3
0.702901721755957
% es.EY (V/m) @ t=1.3
0.47815554154747053
% es.EZ (V/m) @ t=1.3
-0.6537031189742901
% es.tEX (V/m) @ t=1.3
0.7029017217559641
% es.tEY (V/m) @ t=1.3
0
% es.tEZ (V/m) @ t=1.3
-0.6537031189742883
% es.Ex (V/m) @ t=1.3
0.702901721755957
% es.Ey (V/m) @ t=1.3
0.47815554154747053
% es.Ez (V/m) @ t=1.3
-0.6537031189742901
% es.tEx (V/m) @ t=1.3
0.7029017217559641
% es.tEy (V/m) @ t=1.3
0
% es.tEz (V/m) @ t=1.3
-0.6537031189742883
% V (V) @ t=1.3
0.027960261494745498
% es.normE (V/m) @ t=1.4
1.2072527849005383
% es.EX (V/m) @ t=1.4
0.7411592062447205
% es.EY (V/m) @ t=1.4
0.5041807648768719
% es.EZ (V/m) @ t=1.4
-0.689283533433608
% es.tEX (V/m) @ t=1.4
0.7411592062447134
% es.tEY (V/m) @ t=1.4
0
% es.tEZ (V/m) @ t=1.4
-0.6892835334336134
% es.Ex (V/m) @ t=1.4
0.7411592062447205
% es.Ey (V/m) @ t=1.4
0.5041807648768719
% es.Ez (V/m) @ t=1.4
-0.689283533433608
% es.tEx (V/m) @ t=1.4
0.7411592062447134
% es.tEy (V/m) @ t=1.4
0
% es.tEz (V/m) @ t=1.4
-0.6892835334336134
% V (V) @ t=1.4
0.02948203967249202
% es.normE (V/m) @ t=1.5
1.2724095404774747
% es.EX (V/m) @ t=1.5
0.7811601552678447
% es.EY (V/m) @ t=1.5
0.5313919487824634
% es.EZ (V/m) @ t=1.5
-0.7264852124542802
% es.tEX (V/m) @ t=1.5
0.7811601552678518
% es.tEY (V/m) @ t=1.5
0
% es.tEZ (V/m) @ t=1.5
-0.726485212454282
% es.Ex (V/m) @ t=1.5
0.7811601552678447
% es.Ey (V/m) @ t=1.5
0.5313919487824634
% es.Ez (V/m) @ t=1.5
-0.7264852124542802
% es.tEx (V/m) @ t=1.5
0.7811601552678518
% es.tEy (V/m) @ t=1.5
0
% es.tEz (V/m) @ t=1.5
-0.726485212454282
% V (V) @ t=1.5
0.031073182891634084
% es.normE (V/m) @ t=1.6
1.3403011290189482
% es.EX (V/m) @ t=1.6
0.8228401489658985
% es.EY (V/m) @ t=1.6
0.5597452731828216
% es.EZ (V/m) @ t=1.6
-0.7652482519314958
% es.tEX (V/m) @ t=1.6
0.8228401489658985
% es.tEY (V/m) @ t=1.6
0
% es.tEZ (V/m) @ t=1.6
-0.7652482519314958
% es.Ex (V/m) @ t=1.6
0.8228401489658985
% es.Ey (V/m) @ t=1.6
0.5597452731828216
% es.Ez (V/m) @ t=1.6
-0.7652482519314958
% es.tEx (V/m) @ t=1.6
0.8228401489658985
% es.tEy (V/m) @ t=1.6
0
% es.tEz (V/m) @ t=1.6
-0.7652482519314958
% V (V) @ t=1.6
0.03273112842778313
% es.normE (V/m) @ t=1.7
1.4109255623791017
% es.EX (V/m) @ t=1.7
0.8661979667115247
% es.EY (V/m) @ t=1.7
0.5892399077751165
% es.EZ (V/m) @ t=1.7
-0.8055715168023987
% es.tEX (V/m) @ t=1.7
0.8661979667115247
% es.tEY (V/m) @ t=1.7
0
% es.tEZ (V/m) @ t=1.7
-0.8055715168024093
% es.Ex (V/m) @ t=1.7
0.8661979667115247
% es.Ey (V/m) @ t=1.7
0.5892399077751165
% es.Ez (V/m) @ t=1.7
-0.8055715168023987
% es.tEx (V/m) @ t=1.7
0.8661979667115247
% es.tEy (V/m) @ t=1.7
0
% es.tEz (V/m) @ t=1.7
-0.8055715168024093
% V (V) @ t=1.7
0.03445582772244244
% es.normE (V/m) @ t=1.8
1.4842828405578876
% es.EX (V/m) @ t=1.8
0.9112336085047303
% es.EY (V/m) @ t=1.8
0.6198758525593604
% es.EZ (V/m) @ t=1.8
-0.8474550070669657
% es.tEX (V/m) @ t=1.8
0.9112336085047232
% es.tEY (V/m) @ t=1.8
0
% es.tEZ (V/m) @ t=1.8
-0.8474550070669764
% es.Ex (V/m) @ t=1.8
0.9112336085047303
% es.Ey (V/m) @ t=1.8
0.6198758525593604
% es.Ez (V/m) @ t=1.8
-0.8474550070669657
% es.tEx (V/m) @ t=1.8
0.9112336085047232
% es.tEy (V/m) @ t=1.8
0
% es.tEz (V/m) @ t=1.8
-0.8474550070669764
% V (V) @ t=1.8
0.036247280775612005
% es.normE (V/m) @ t=1.9
1.5603729635553043
% es.EX (V/m) @ t=1.9
0.9579470743454479
% es.EY (V/m) @ t=1.9
0.651653107535541
% es.EZ (V/m) @ t=1.9
-0.8908987227252325
% es.tEX (V/m) @ t=1.9
0.9579470743454479
% es.tEY (V/m) @ t=1.9
0
% es.tEZ (V/m) @ t=1.9
-0.8908987227252325
% es.Ex (V/m) @ t=1.9
0.9579470743454479
% es.Ey (V/m) @ t=1.9
0.651653107535541
% es.Ez (V/m) @ t=1.9
-0.8908987227252325
% es.tEx (V/m) @ t=1.9
0.9579470743454479
% es.tEy (V/m) @ t=1.9
0
% es.tEz (V/m) @ t=1.9
-0.8908987227252325
% V (V) @ t=1.9
0.038105487587291834
% es.normE (V/m) @ t=2
1.6385636816244769
% es.EX (V/m) @ t=2
1.005950974777626
% es.EY (V/m) @ t=2
0.6843076476915648
% es.EZ (V/m) @ t=2
-0.9355406216339404
% es.tEX (V/m) @ t=2
1.0059509747776048
% es.tEY (V/m) @ t=2
0
% es.tEZ (V/m) @ t=2
-0.9355406216339404
% es.Ex (V/m) @ t=2
1.005950974777626
% es.Ey (V/m) @ t=2
0.6843076476915648
% es.Ez (V/m) @ t=2
-0.9355406216339404
% es.tEx (V/m) @ t=2
1.0059509747776048
% es.tEy (V/m) @ t=2
0
% es.tEz (V/m) @ t=2
-0.9355406216339404
% V (V) @ t=2
0.040015171045497455
% es.normE (V/m) @ t=2.1
1.718092386468508
% es.EX (V/m) @ t=2.1
1.0547780475868649
% es.EY (V/m) @ t=2.1
0.7175210107931056
% es.EZ (V/m) @ t=2.1
-0.9809440150530904
% es.tEX (V/m) @ t=2.1
1.054778047586879
% es.tEY (V/m) @ t=2.1
0
% es.tEZ (V/m) @ t=2.1
-0.9809440150531046
% es.Ex (V/m) @ t=2.1
1.0547780475868649
% es.Ey (V/m) @ t=2.1
0.7175210107931056
% es.Ez (V/m) @ t=2.1
-0.9809440150530904
% es.tEx (V/m) @ t=2.1
1.054778047586879
% es.tEy (V/m) @ t=2.1
0
% es.tEz (V/m) @ t=2.1
-0.9809440150531046
% V (V) @ t=2.1
0.04195790417174313
% es.normE (V/m) @ t=2.2
1.7998040138587856
% es.EX (V/m) @ t=2.2
1.1049459983258103
% es.EY (V/m) @ t=2.2
0.751646038696288
% es.EZ (V/m) @ t=2.2
-1.0275927344986187
% es.tEX (V/m) @ t=2.2
1.1049459983258245
% es.tEY (V/m) @ t=2.2
0
% es.tEZ (V/m) @ t=2.2
-1.0275927344986258
% es.Ex (V/m) @ t=2.2
1.1049459983258103
% es.Ey (V/m) @ t=2.2
0.751646038696288
% es.Ez (V/m) @ t=2.2
-1.0275927344986187
% es.tEx (V/m) @ t=2.2
1.1049459983258245
% es.tEy (V/m) @ t=2.2
0
% es.tEz (V/m) @ t=2.2
-1.0275927344986258
% V (V) @ t=2.2
0.043954103230790756
% es.normE (V/m) @ t=2.3
1.883698563805487
% es.EX (V/m) @ t=2.3
1.1564548269945334
% es.EY (V/m) @ t=2.3
0.7866827314012594
% es.EZ (V/m) @ t=2.3
-1.0754867799705075
% es.tEX (V/m) @ t=2.3
1.1564548269945334
% es.tEY (V/m) @ t=2.3
0
% es.tEZ (V/m) @ t=2.3
-1.0754867799705252
% es.Ex (V/m) @ t=2.3
1.1564548269945334
% es.Ey (V/m) @ t=2.3
0.7866827314012594
% es.Ez (V/m) @ t=2.3
-1.0754867799705075
% es.tEx (V/m) @ t=2.3
1.1564548269945334
% es.tEy (V/m) @ t=2.3
0
% es.tEz (V/m) @ t=2.3
-1.0754867799705252
% V (V) @ t=2.3
0.04600376822264032
% es.normE (V/m) @ t=2.4
1.9697760363194048
% es.EX (V/m) @ t=2.4
1.2093045335929133
% es.EY (V/m) @ t=2.4
0.8226310889079045
% es.EZ (V/m) @ t=2.4
-1.1246261514688065
% es.tEX (V/m) @ t=2.4
1.2093045335929062
% es.tEY (V/m) @ t=2.4
0
% es.tEZ (V/m) @ t=2.4
-1.1246261514688243
% es.Ex (V/m) @ t=2.4
1.2093045335929133
% es.Ey (V/m) @ t=2.4
0.8226310889079045
% es.Ez (V/m) @ t=2.4
-1.1246261514688065
% es.tEx (V/m) @ t=2.4
1.2093045335929062
% es.tEy (V/m) @ t=2.4
0
% es.tEz (V/m) @ t=2.4
-1.1246261514688243
% V (V) @ t=2.4
0.04810689914729185
% es.normE (V/m) @ t=2.5
2.0580364314119794
% es.EX (V/m) @ t=2.5
1.263495118121135
% es.EY (V/m) @ t=2.5
0.8594911112162835
% es.EZ (V/m) @ t=2.5
-1.1750108489934554
% es.tEX (V/m) @ t=2.5
1.2634951181211278
% es.tEY (V/m) @ t=2.5
0
% es.tEZ (V/m) @ t=2.5
-1.1750108489934732
% es.Ex (V/m) @ t=2.5
1.263495118121135
% es.Ey (V/m) @ t=2.5
0.8594911112162835
% es.Ez (V/m) @ t=2.5
-1.1750108489934554
% es.tEx (V/m) @ t=2.5
1.2634951181211278
% es.tEy (V/m) @ t=2.5
0
% es.tEz (V/m) @ t=2.5
-1.1750108489934732
% V (V) @ t=2.5
0.05026349600474532
% es.normE (V/m) @ t=2.6
2.1455168133110645
% es.EX (V/m) @ t=2.6
1.3171981335363796
% es.EY (V/m) @ t=2.6
0.8960251623442446
% es.EZ (V/m) @ t=2.6
-1.2249622907469835
% es.tEX (V/m) @ t=2.6
1.3171981335363796
% es.tEY (V/m) @ t=2.6
0
% es.tEZ (V/m) @ t=2.6
-1.2249622907470012
% es.Ex (V/m) @ t=2.6
1.3171981335363796
% es.Ey (V/m) @ t=2.6
0.8960251623442446
% es.Ez (V/m) @ t=2.6
-1.2249622907469835
% es.tEx (V/m) @ t=2.6
1.3171981335363796
% es.tEy (V/m) @ t=2.6
0
% es.tEz (V/m) @ t=2.6
-1.2249622907470012
% V (V) @ t=2.6
0.052399166793866206
% es.normE (V/m) @ t=2.7
2.2332830119908986
% es.EX (V/m) @ t=2.7
1.371071310439845
% es.EY (V/m) @ t=2.7
0.9326784458112147
% es.EZ (V/m) @ t=2.7
-1.2750842976707695
% es.tEX (V/m) @ t=2.7
1.3710713104398593
% es.tEY (V/m) @ t=2.7
0
% es.tEZ (V/m) @ t=2.7
-1.275084297670773
% es.Ex (V/m) @ t=2.7
1.371071310439845
% es.Ey (V/m) @ t=2.7
0.9326784458112147
% es.Ez (V/m) @ t=2.7
-1.2750842976707695
% es.tEx (V/m) @ t=2.7
1.3710713104398593
% es.tEy (V/m) @ t=2.7
0
% es.tEz (V/m) @ t=2.7
-1.275084297670773
% V (V) @ t=2.7
0.054540671871655996
% es.normE (V/m) @ t=2.8
2.322041469088628
% es.EX (V/m) @ t=2.8
1.4255505985168568
% es.EY (V/m) @ t=2.8
0.9697460464648424
% es.EZ (V/m) @ t=2.8
-1.3257770876488415
% es.tEX (V/m) @ t=2.8
1.425550598516871
% es.tEY (V/m) @ t=2.8
0
% es.tEZ (V/m) @ t=2.8
-1.325777087648845
% es.Ex (V/m) @ t=2.8
1.4255505985168568
% es.Ey (V/m) @ t=2.8
0.9697460464648424
% es.Ez (V/m) @ t=2.8
-1.3257770876488415
% es.tEx (V/m) @ t=2.8
1.425550598516871
% es.tEy (V/m) @ t=2.8
0
% es.tEz (V/m) @ t=2.8
-1.325777087648845
% V (V) @ t=2.8
0.05670574824046307
% es.normE (V/m) @ t=2.9
2.411792184733482
% es.EX (V/m) @ t=2.9
1.480635997767365
% es.EY (V/m) @ t=2.9
1.0072279643051019
% es.EZ (V/m) @ t=2.9
-1.3770406606812493
% es.tEX (V/m) @ t=2.9
1.4806359977673935
% es.tEY (V/m) @ t=2.9
0
% es.tEZ (V/m) @ t=2.9
-1.377040660681267
% es.Ex (V/m) @ t=2.9
1.480635997767365
% es.Ey (V/m) @ t=2.9
1.0072279643051019
% es.Ez (V/m) @ t=2.9
-1.3770406606812493
% es.tEx (V/m) @ t=2.9
1.4806359977673935
% es.tEy (V/m) @ t=2.9
0
% es.tEz (V/m) @ t=2.9
-1.377040660681267
% V (V) @ t=2.9
0.0588943959002874
% es.normE (V/m) @ t=3
2.502535159072143
% es.EX (V/m) @ t=3
1.5363275081914551
% es.EY (V/m) @ t=3
1.0451241993319993
% es.EZ (V/m) @ t=3
-1.4288750167679432
% es.tEX (V/m) @ t=3
1.5363275081914551
% es.tEY (V/m) @ t=3
0
% es.tEZ (V/m) @ t=3
-1.4288750167679467
% es.Ex (V/m) @ t=3
1.5363275081914551
% es.Ey (V/m) @ t=3
1.0451241993319993
% es.Ez (V/m) @ t=3
-1.4288750167679432
% es.tEx (V/m) @ t=3
1.5363275081914551
% es.tEy (V/m) @ t=3
0
% es.tEz (V/m) @ t=3
-1.4288750167679467
% V (V) @ t=3
0.06110661485112899
% es.normE (V/m) @ t=3.1
2.5937172473337564
% es.EX (V/m) @ t=3.1
1.59228909012419
% es.EY (V/m) @ t=3.1
1.0832038314285413
% es.EZ (V/m) @ t=3.1
-1.4809594111715683
% es.tEX (V/m) @ t=3.1
1.5922890901242042
% es.tEY (V/m) @ t=3.1
0
% es.tEZ (V/m) @ t=3.1
-1.4809594111715825
% es.Ex (V/m) @ t=3.1
1.59228909012419
% es.Ey (V/m) @ t=3.1
1.0832038314285413
% es.Ez (V/m) @ t=3.1
-1.4809594111715683
% es.tEx (V/m) @ t=3.1
1.5922890901242042
% es.tEy (V/m) @ t=3.1
0
% es.tEz (V/m) @ t=3.1
-1.4809594111715825
% V (V) @ t=3.1
0.06332965913816425
% es.normE (V/m) @ t=3.2
2.6826459148331656
% es.EX (V/m) @ t=3.2
1.6468850087874145
% es.EY (V/m) @ t=3.2
1.120342814519967
% es.EZ (V/m) @ t=3.2
-1.531732559982224
% es.tEX (V/m) @ t=3.2
1.6468850087874003
% es.tEY (V/m) @ t=3.2
0
% es.tEZ (V/m) @ t=3.2
-1.5317325599822453
% es.Ex (V/m) @ t=3.2
1.6468850087874145
% es.Ey (V/m) @ t=3.2
1.120342814519967
% es.Ez (V/m) @ t=3.2
-1.531732559982224
% es.tEx (V/m) @ t=3.2
1.6468850087874003
% es.tEy (V/m) @ t=3.2
0
% es.tEz (V/m) @ t=3.2
-1.5317325599822453
% V (V) @ t=3.2
0.06550148548565543
% es.normE (V/m) @ t=3.3
2.7714744111135268
% es.EX (V/m) @ t=3.3
1.7014233794035079
% es.EY (V/m) @ t=3.3
1.157440060704248
% es.EZ (V/m) @ t=3.3
-1.5824430392381927
% es.tEX (V/m) @ t=3.3
1.7014233794035079
% es.tEY (V/m) @ t=3.3
0
% es.tEZ (V/m) @ t=3.3
-1.5824430392381998
% es.Ex (V/m) @ t=3.3
1.7014233794035079
% es.Ey (V/m) @ t=3.3
1.157440060704248
% es.Ez (V/m) @ t=3.3
-1.5824430392381927
% es.tEx (V/m) @ t=3.3
1.7014233794035079
% es.tEy (V/m) @ t=3.3
0
% es.tEz (V/m) @ t=3.3
-1.5824430392381998
% V (V) @ t=3.3
0.06767171058851228
% es.normE (V/m) @ t=3.4
2.8602027362561553
% es.EX (V/m) @ t=3.4
1.7559042019725979
% es.EY (V/m) @ t=3.4
1.1944955699814628
% es.EZ (V/m) @ t=3.4
-1.6330908489394957
% es.tEX (V/m) @ t=3.4
1.7559042019726405
% es.tEY (V/m) @ t=3.4
0
% es.tEZ (V/m) @ t=3.4
-1.6330908489395028
% es.Ex (V/m) @ t=3.4
1.7559042019725979
% es.Ey (V/m) @ t=3.4
1.1944955699814628
% es.Ez (V/m) @ t=3.4
-1.6330908489394957
% es.tEx (V/m) @ t=3.4
1.7559042019726405
% es.tEy (V/m) @ t=3.4
0
% es.tEz (V/m) @ t=3.4
-1.6330908489395028
% V (V) @ t=3.4
0.06984033444673486
% es.normE (V/m) @ t=3.5
2.948830890383574
% es.EX (V/m) @ t=3.5
1.8103274764945638
% es.EY (V/m) @ t=3.5
1.2315093423514067
% es.EZ (V/m) @ t=3.5
-1.6836759890861899
% es.tEX (V/m) @ t=3.5
1.8103274764946065
% es.tEY (V/m) @ t=3.5
0
% es.tEZ (V/m) @ t=3.5
-1.6836759890862254
% es.Ex (V/m) @ t=3.5
1.8103274764945638
% es.Ey (V/m) @ t=3.5
1.2315093423514067
% es.Ez (V/m) @ t=3.5
-1.6836759890861899
% es.tEx (V/m) @ t=3.5
1.8103274764946065
% es.tEy (V/m) @ t=3.5
0
% es.tEz (V/m) @ t=3.5
-1.6836759890862254
% V (V) @ t=3.5
0.07200735706032312
% es.normE (V/m) @ t=3.6
3.0371354360020764
% es.EX (V/m) @ t=3.6
1.8645548653774284
% es.EY (V/m) @ t=3.6
1.2683880353217258
% es.EZ (V/m) @ t=3.6
-1.7340725047657557
% es.tEX (V/m) @ t=3.6
1.8645548653774568
% es.tEY (V/m) @ t=3.6
0
% es.tEZ (V/m) @ t=3.6
-1.7340725047657628
% es.Ex (V/m) @ t=3.6
1.8645548653774284
% es.Ey (V/m) @ t=3.6
1.2683880353217258
% es.Ez (V/m) @ t=3.6
-1.7340725047657557
% es.tEx (V/m) @ t=3.6
1.8645548653774568
% es.tEy (V/m) @ t=3.6
0
% es.tEz (V/m) @ t=3.6
-1.7340725047657628
% V (V) @ t=3.6
0.07416707125259579
% es.normE (V/m) @ t=3.7
3.1234891177974355
% es.EX (V/m) @ t=3.7
1.9175788813878114
% es.EY (V/m) @ t=3.7
1.3044518526913276
% es.EZ (V/m) @ t=3.7
-1.783363089522176
% es.tEX (V/m) @ t=3.7
1.917578881387783
% es.tEY (V/m) @ t=3.7
0
% es.tEZ (V/m) @ t=3.7
-1.7833630895221972
% es.Ex (V/m) @ t=3.7
1.9175788813878114
% es.Ey (V/m) @ t=3.7
1.3044518526913276
% es.Ez (V/m) @ t=3.7
-1.783363089522176
% es.tEx (V/m) @ t=3.7
1.917578881387783
% es.tEy (V/m) @ t=3.7
0
% es.tEz (V/m) @ t=3.7
-1.7833630895221972
% V (V) @ t=3.7
0.07627791270570003
% es.normE (V/m) @ t=3.8
3.2090848522934676
% es.EX (V/m) @ t=3.8
1.9701380983926953
% es.EY (V/m) @ t=3.8
1.3401991429181077
% es.EZ (V/m) @ t=3.8
-1.8322202070396543
% es.tEX (V/m) @ t=3.8
1.970138098392681
% es.tEY (V/m) @ t=3.8
0
% es.tEZ (V/m) @ t=3.8
-1.83222020703964
% es.Ex (V/m) @ t=3.8
1.9701380983926953
% es.Ey (V/m) @ t=3.8
1.3401991429181077
% es.Ez (V/m) @ t=3.8
-1.8322202070396543
% es.tEx (V/m) @ t=3.8
1.970138098392681
% es.tEy (V/m) @ t=3.8
0
% es.tEz (V/m) @ t=3.8
-1.83222020703964
% V (V) @ t=3.8
0.07837035160124779
% es.normE (V/m) @ t=3.9
3.293922639497781
% es.EX (V/m) @ t=3.9
2.0222325163923216
% es.EY (V/m) @ t=3.9
1.3756299060021089
% es.EZ (V/m) @ t=3.9
-1.8806438573180273
% es.tEX (V/m) @ t=3.9
2.022232516392293
% es.tEY (V/m) @ t=3.9
0
% es.tEZ (V/m) @ t=3.9
-1.8806438573180486
% es.Ex (V/m) @ t=3.9
2.0222325163923216
% es.Ey (V/m) @ t=3.9
1.3756299060021089
% es.Ez (V/m) @ t=3.9
-1.8806438573180273
% es.tEx (V/m) @ t=3.9
2.022232516392293
% es.tEy (V/m) @ t=3.9
0
% es.tEz (V/m) @ t=3.9
-1.8806438573180486
% V (V) @ t=3.9
0.08044438793923904
% es.normE (V/m) @ t=4
3.378002479418026
% es.EX (V/m) @ t=4
2.073862135386605
% es.EY (V/m) @ t=4
1.4107441419432014
% es.EZ (V/m) @ t=4
-1.9286340403573234
% es.tEX (V/m) @ t=4
2.0738621353866193
% es.tEY (V/m) @ t=4
0
% es.tEZ (V/m) @ t=4
-1.9286340403573377
% es.Ex (V/m) @ t=4
2.073862135386605
% es.Ey (V/m) @ t=4
1.4107441419432014
% es.Ez (V/m) @ t=4
-1.9286340403573234
% es.tEx (V/m) @ t=4
2.0738621353866193
% es.tEy (V/m) @ t=4
0
% es.tEz (V/m) @ t=4
-1.9286340403573377
% V (V) @ t=4
0.08250002171967383
% es.normE (V/m) @ t=4.1
3.4612631094969695
% es.EX (V/m) @ t=4.1
2.124988535761929
% es.EY (V/m) @ t=4.1
1.4455162462777995
% es.EZ (V/m) @ t=4.1
-1.9761569009448365
% es.tEX (V/m) @ t=4.1
2.1249885357619576
% es.tEY (V/m) @ t=4.1
0
% es.tEZ (V/m) @ t=4.1
-1.976156900944872
% es.Ex (V/m) @ t=4.1
2.124988535761929
% es.Ey (V/m) @ t=4.1
1.4455162462777995
% es.Ez (V/m) @ t=4.1
-1.9761569009448365
% es.tEx (V/m) @ t=4.1
2.1249885357619576
% es.tEy (V/m) @ t=4.1
0
% es.tEz (V/m) @ t=4.1
-1.976156900944872
% V (V) @ t=4.1
0.08453558308579993
% es.normE (V/m) @ t=4.2
3.5429769056612646
% es.EX (V/m) @ t=4.2
2.1751554024167774
% es.EY (V/m) @ t=4.2
1.4796421112227502
% es.EZ (V/m) @ t=4.2
-2.0228103360015197
% es.tEX (V/m) @ t=4.2
2.175155402416806
% es.tEY (V/m) @ t=4.2
0
% es.tEZ (V/m) @ t=4.2
-2.0228103360015552
% es.Ex (V/m) @ t=4.2
2.1751554024167774
% es.Ey (V/m) @ t=4.2
1.4796421112227502
% es.Ez (V/m) @ t=4.2
-2.0228103360015197
% es.tEx (V/m) @ t=4.2
2.175155402416806
% es.tEy (V/m) @ t=4.2
0
% es.tEz (V/m) @ t=4.2
-2.0228103360015552
% V (V) @ t=4.2
0.08653123891636388
% es.normE (V/m) @ t=4.3
3.6236593332804787
% es.EX (V/m) @ t=4.3
2.2246859993522747
% es.EY (V/m) @ t=4.3
1.5133371736513404
% es.EZ (V/m) @ t=4.3
-2.0688792044980744
% es.tEX (V/m) @ t=4.3
2.2246859993522747
% es.tEY (V/m) @ t=4.3
0
% es.tEZ (V/m) @ t=4.3
-2.0688792044980886
% es.Ex (V/m) @ t=4.3
2.2246859993522747
% es.Ey (V/m) @ t=4.3
1.5133371736513404
% es.Ez (V/m) @ t=4.3
-2.0688792044980744
% es.tEx (V/m) @ t=4.3
2.2246859993522747
% es.tEy (V/m) @ t=4.3
0
% es.tEz (V/m) @ t=4.3
-2.0688792044980886
% V (V) @ t=4.3
0.08850103944575068
% es.normE (V/m) @ t=4.4
3.703310392380004
% es.EX (V/m) @ t=4.4
2.27358032656835
% es.EY (V/m) @ t=4.4
1.5466014335636533
% es.EZ (V/m) @ t=4.4
-2.1143635064345503
% es.tEX (V/m) @ t=4.4
2.273580326568336
% es.tEY (V/m) @ t=4.4
0
% es.tEZ (V/m) @ t=4.4
-2.1143635064345716
% es.Ex (V/m) @ t=4.4
2.27358032656835
% es.Ey (V/m) @ t=4.4
1.5466014335636533
% es.Ez (V/m) @ t=4.4
-2.1143635064345503
% es.tEx (V/m) @ t=4.4
2.273580326568336
% es.tEy (V/m) @ t=4.4
0
% es.tEz (V/m) @ t=4.4
-2.1143635064345716
% V (V) @ t=4.4
0.09044498467396031
% es.normE (V/m) @ t=4.5
3.7819300830076097
% es.EX (V/m) @ t=4.5
2.321838384065032
% es.EY (V/m) @ t=4.5
1.579434890959579
% es.EZ (V/m) @ t=4.5
-2.1592632418108977
% es.tEX (V/m) @ t=4.5
2.3218383840650745
% es.tEY (V/m) @ t=4.5
0
% es.tEZ (V/m) @ t=4.5
-2.159263241810919
% es.Ex (V/m) @ t=4.5
2.321838384065032
% es.Ey (V/m) @ t=4.5
1.579434890959579
% es.Ez (V/m) @ t=4.5
-2.1592632418108977
% es.tEx (V/m) @ t=4.5
2.3218383840650745
% es.tEy (V/m) @ t=4.5
0
% es.tEz (V/m) @ t=4.5
-2.159263241810919
% V (V) @ t=4.5
0.09236307460099277
% es.normE (V/m) @ t=4.6
3.8594669181902628
% es.EX (V/m) @ t=4.6
2.3694290133100964
% es.EY (V/m) @ t=4.6
1.6118160545043505
% es.EZ (V/m) @ t=4.6
-2.203548388322197
% es.tEX (V/m) @ t=4.6
2.369429013310082
% es.tEY (V/m) @ t=4.6
0
% es.tEZ (V/m) @ t=4.6
-2.203548388322176
% es.Ex (V/m) @ t=4.6
2.3694290133100964
% es.Ey (V/m) @ t=4.6
1.6118160545043505
% es.Ez (V/m) @ t=4.6
-2.203548388322197
% es.tEx (V/m) @ t=4.6
2.369429013310082
% es.tEy (V/m) @ t=4.6
0
% es.tEz (V/m) @ t=4.6
-2.203548388322176
% V (V) @ t=4.6
0.09425414893472027
% es.normE (V/m) @ t=4.7
3.93459381118466
% es.EX (V/m) @ t=4.7
2.4155490981381433
% es.EY (V/m) @ t=4.7
1.6431909815958061
% es.EZ (V/m) @ t=4.7
-2.246445116240942
% es.tEX (V/m) @ t=4.7
2.4155490981381433
% es.tEY (V/m) @ t=4.7
0
% es.tEZ (V/m) @ t=4.7
-2.246445116240949
% es.Ex (V/m) @ t=4.7
2.4155490981381433
% es.Ey (V/m) @ t=4.7
1.6431909815958061
% es.Ez (V/m) @ t=4.7
-2.246445116240942
% es.tEx (V/m) @ t=4.7
2.4155490981381433
% es.tEy (V/m) @ t=4.7
0
% es.tEz (V/m) @ t=4.7
-2.246445116240949
% V (V) @ t=4.7
0.09608830095941175
% es.normE (V/m) @ t=4.8
4.008222812629148
% es.EX (V/m) @ t=4.8
2.460750586389125
% es.EY (V/m) @ t=4.8
1.6739403736017202
% es.EZ (V/m) @ t=4.8
-2.288485246074309
% es.tEX (V/m) @ t=4.8
2.4607505863891674
% es.tEY (V/m) @ t=4.8
0
% es.tEZ (V/m) @ t=4.8
-2.2884852460743303
% es.Ex (V/m) @ t=4.8
2.460750586389125
% es.Ey (V/m) @ t=4.8
1.6739403736017202
% es.Ez (V/m) @ t=4.8
-2.288485246074309
% es.tEx (V/m) @ t=4.8
2.4607505863891674
% es.tEy (V/m) @ t=4.8
0
% es.tEz (V/m) @ t=4.8
-2.2884852460743303
% V (V) @ t=4.8
0.09788608429838407
% es.normE (V/m) @ t=4.9
4.080353922520272
% es.EX (V/m) @ t=4.9
2.5050334780628987
% es.EY (V/m) @ t=4.9
1.7040642305219773
% es.EZ (V/m) @ t=4.9
-2.3296687778224054
% es.tEX (V/m) @ t=4.9
2.505033478062927
% es.tEY (V/m) @ t=4.9
0
% es.tEZ (V/m) @ t=4.9
-2.3296687778224197
% es.Ex (V/m) @ t=4.9
2.5050334780628987
% es.Ey (V/m) @ t=4.9
1.7040642305219773
% es.Ez (V/m) @ t=4.9
-2.3296687778224054
% es.tEx (V/m) @ t=4.9
2.505033478062927
% es.tEy (V/m) @ t=4.9
0
% es.tEz (V/m) @ t=4.9
-2.3296687778224197
% V (V) @ t=4.9
0.09964749895163715
% es.normE (V/m) @ t=5
4.150987140857323
% es.EX (V/m) @ t=5
2.5483977731593797
% es.EY (V/m) @ t=5
1.733562552356716
% es.EZ (V/m) @ t=5
-2.369995711485217
% es.tEX (V/m) @ t=5
2.5483977731594365
% es.tEY (V/m) @ t=5
0
% es.tEZ (V/m) @ t=5
-2.369995711485231
% es.Ex (V/m) @ t=5
2.5483977731593797
% es.Ey (V/m) @ t=5
1.733562552356716
% es.Ez (V/m) @ t=5
-2.369995711485217
% es.tEx (V/m) @ t=5
2.5483977731594365
% es.tEy (V/m) @ t=5
0
% es.tEz (V/m) @ t=5
-2.369995711485231
% V (V) @ t=5
0.101372544919171
% es.normE (V/m) @ t=5.1
4.220122467641982
% es.EX (V/m) @ t=5.1
2.5908434716788094
% es.EY (V/m) @ t=5.1
1.7624353391060037
% es.EZ (V/m) @ t=5.1
-2.4094660470626437
% es.tEX (V/m) @ t=5.1
2.5908434716788378
% es.tEY (V/m) @ t=5.1
0
% es.tEZ (V/m) @ t=5.1
-2.409466047062679
% es.Ex (V/m) @ t=5.1
2.5908434716788094
% es.Ey (V/m) @ t=5.1
1.7624353391060037
% es.Ez (V/m) @ t=5.1
-2.4094660470626437
% es.tEx (V/m) @ t=5.1
2.5908434716788378
% es.tEy (V/m) @ t=5.1
0
% es.tEz (V/m) @ t=5.1
-2.409466047062679
% V (V) @ t=5.1
0.1030612222009857
% es.normE (V/m) @ t=5.2
4.286264412512045
% es.EX (V/m) @ t=5.2
2.6314492502173437
% es.EY (V/m) @ t=5.2
1.7900579561196412
% es.EZ (V/m) @ t=5.2
-2.447230379078576
% es.tEX (V/m) @ t=5.2
2.6314492502173152
% es.tEY (V/m) @ t=5.2
0
% es.tEZ (V/m) @ t=5.2
-2.4472303790786327
% es.Ex (V/m) @ t=5.2
2.6314492502173437
% es.Ey (V/m) @ t=5.2
1.7900579561196412
% es.Ez (V/m) @ t=5.2
-2.447230379078576
% es.tEx (V/m) @ t=5.2
2.6314492502173152
% es.tEy (V/m) @ t=5.2
0
% es.tEz (V/m) @ t=5.2
-2.4472303790786327
% V (V) @ t=5.2
0.10467632403428097
% es.normE (V/m) @ t=5.3
4.350098087385282
% es.EX (V/m) @ t=5.3
2.6706371841418104
% es.EY (V/m) @ t=5.3
1.816716560135136
% es.EZ (V/m) @ t=5.3
-2.483677835961579
% es.tEX (V/m) @ t=5.3
2.6706371841418104
% es.tEY (V/m) @ t=5.3
0
% es.tEZ (V/m) @ t=5.3
-2.4836778359615863
% es.Ex (V/m) @ t=5.3
2.6706371841418104
% es.Ey (V/m) @ t=5.3
1.816716560135136
% es.Ez (V/m) @ t=5.3
-2.483677835961579
% es.tEx (V/m) @ t=5.3
2.6706371841418104