% Model:              1x1--2 - Copy1.mph
% Version:            COMSOL 6.1.0.252
% Date:               Mar 28 2023, 11:54
% Dimension:          0
% Nodes:              14017
% Expressions:        14017
% Description:        Electric field norm, Electric field, X component, Electric field, Y component, Electric field, Z component, Tangential electric field, X component, Tangential electric field, Y component, Tangential electric field, Z component, Electric field, x component, Electric field, y component, Electric field, z component, Tangential electric field, x component, Tangential electric field, y component, Tangential electric field, z component, Electric potential
% Length unit:        mm
% x
1.66
% y
12.2
% z
1
% es.normE (V/m) @ t=0
1.0981641242350189
% es.EX (V/m) @ t=0
0.9254868938350613
% es.EY (V/m) @ t=0
0.11379293309676974
% es.EZ (V/m) @ t=0
-0.5686637663035148
% es.tEX (V/m) @ t=0
0.9254868938350675
% es.tEY (V/m) @ t=0
0
% es.tEZ (V/m) @ t=0
-0.5686637663035139
% es.Ex (V/m) @ t=0
0.9254868938350613
% es.Ey (V/m) @ t=0
0.11379293309676974
% es.Ez (V/m) @ t=0
-0.5686637663035148
% es.tEx (V/m) @ t=0
0.9254868938350675
% es.tEy (V/m) @ t=0
0
% es.tEz (V/m) @ t=0
-0.5686637663035139
% V (V) @ t=0
0.011924483019024806
% es.normE (V/m) @ t=0.1
1.2322231711363214
% es.EX (V/m) @ t=0.1
1.0384665354506595
% es.EY (V/m) @ t=0.1
0.12768409442348094
% es.EZ (V/m) @ t=0.1
-0.6380833650273328
% es.tEX (V/m) @ t=0.1
1.038466535450663
% es.tEY (V/m) @ t=0.1
0
% es.tEZ (V/m) @ t=0.1
-0.6380833650273345
% es.Ex (V/m) @ t=0.1
1.0384665354506595
% es.Ey (V/m) @ t=0.1
0.12768409442348094
% es.Ez (V/m) @ t=0.1
-0.6380833650273328
% es.tEx (V/m) @ t=0.1
1.038466535450663
% es.tEy (V/m) @ t=0.1
0
% es.tEz (V/m) @ t=0.1
-0.6380833650273345
% V (V) @ t=0.1
0.013380212753792592
% es.normE (V/m) @ t=0.2
1.3085951669182285
% es.EX (V/m) @ t=0.2
1.1028278275292305
% es.EY (V/m) @ t=0.2
0.13560590128130023
% es.EZ (V/m) @ t=0.2
-0.6776311113774902
% es.tEX (V/m) @ t=0.2
1.1028278275292323
% es.tEY (V/m) @ t=0.2
0
% es.tEZ (V/m) @ t=0.2
-0.677631111377476
% es.Ex (V/m) @ t=0.2
1.1028278275292305
% es.Ey (V/m) @ t=0.2
0.13560590128130023
% es.Ez (V/m) @ t=0.2
-0.6776311113774902
% es.tEx (V/m) @ t=0.2
1.1028278275292323
% es.tEy (V/m) @ t=0.2
0
% es.tEz (V/m) @ t=0.2
-0.677631111377476
% V (V) @ t=0.2
0.014208464078696656
% es.normE (V/m) @ t=0.3
1.3895076609264196
% es.EX (V/m) @ t=0.3
1.1710193976538896
% es.EY (V/m) @ t=0.3
0.14398194877596637
% es.EZ (V/m) @ t=0.3
-0.7195301535793757
% es.tEX (V/m) @ t=0.3
1.1710193976539038
% es.tEY (V/m) @ t=0.3
0
% es.tEZ (V/m) @ t=0.3
-0.7195301535793703
% es.Ex (V/m) @ t=0.3
1.1710193976538896
% es.Ey (V/m) @ t=0.3
0.14398194877596637
% es.Ez (V/m) @ t=0.3
-0.7195301535793757
% es.tEx (V/m) @ t=0.3
1.1710193976539038
% es.tEy (V/m) @ t=0.3
0
% es.tEz (V/m) @ t=0.3
-0.7195301535793703
% V (V) @ t=0.3
0.01508811520306575
% es.normE (V/m) @ t=0.4
1.4749668810089185
% es.EX (V/m) @ t=0.4
1.2430407201330187
% es.EY (V/m) @ t=0.4
0.15283801036444977
% es.EZ (V/m) @ t=0.4
-0.7637835837647273
% es.tEX (V/m) @ t=0.4
1.243040720133024
% es.tEY (V/m) @ t=0.4
0
% es.tEZ (V/m) @ t=0.4
-0.7637835837647238
% es.Ex (V/m) @ t=0.4
1.2430407201330187
% es.Ey (V/m) @ t=0.4
0.15283801036444977
% es.Ez (V/m) @ t=0.4
-0.7637835837647273
% es.tEx (V/m) @ t=0.4
1.243040720133024
% es.tEy (V/m) @ t=0.4
0
% es.tEz (V/m) @ t=0.4
-0.7637835837647238
% V (V) @ t=0.4
0.016015992133462484
% es.normE (V/m) @ t=0.5
1.5709425645370043
% es.EX (V/m) @ t=0.5
1.3239230880446122
% es.EY (V/m) @ t=0.5
0.1627916039195103
% es.EZ (V/m) @ t=0.5
-0.8134827227597192
% es.tEX (V/m) @ t=0.5
1.3239230880446193
% es.tEY (V/m) @ t=0.5
0
% es.tEZ (V/m) @ t=0.5
-0.8134827227597157
% es.Ex (V/m) @ t=0.5
1.3239230880446122
% es.Ey (V/m) @ t=0.5
0.1627916039195103
% es.Ez (V/m) @ t=0.5
-0.8134827227597192
% es.tEx (V/m) @ t=0.5
1.3239230880446193
% es.tEy (V/m) @ t=0.5
0
% es.tEz (V/m) @ t=0.5
-0.8134827227597157
% V (V) @ t=0.5
0.01705705613756375
% es.normE (V/m) @ t=0.6
1.6678934540654053
% es.EX (V/m) @ t=0.6
1.4056271527162476
% es.EY (V/m) @ t=0.6
0.17284697310226527
% es.EZ (V/m) @ t=0.6
-0.8636868497179311
% es.tEX (V/m) @ t=0.6
1.4056271527162494
% es.tEY (V/m) @ t=0.6
0
% es.tEZ (V/m) @ t=0.6
-0.8636868497179151
% es.Ex (V/m) @ t=0.6
1.4056271527162476
% es.Ey (V/m) @ t=0.6
0.17284697310226527
% es.Ez (V/m) @ t=0.6
-0.8636868497179311
% es.tEx (V/m) @ t=0.6
1.4056271527162494
% es.tEy (V/m) @ t=0.6
0
% es.tEz (V/m) @ t=0.6
-0.8636868497179151
% V (V) @ t=0.6
0.01810861613251065
% es.normE (V/m) @ t=0.7
1.770685342329358
% es.EX (V/m) @ t=0.7
1.4922570200115057
% es.EY (V/m) @ t=0.7
0.1834934392206744
% es.EZ (V/m) @ t=0.7
-0.9169157034000008
% es.tEX (V/m) @ t=0.7
1.492257020011511
% es.tEY (V/m) @ t=0.7
0
% es.tEZ (V/m) @ t=0.7
-0.9169157033999902
% es.Ex (V/m) @ t=0.7
1.4922570200115057
% es.Ey (V/m) @ t=0.7
0.1834934392206744
% es.Ez (V/m) @ t=0.7
-0.9169157034000008
% es.tEx (V/m) @ t=0.7
1.492257020011511
% es.tEy (V/m) @ t=0.7
0
% es.tEz (V/m) @ t=0.7
-0.9169157033999902
% V (V) @ t=0.7
0.019225426722614722
% es.normE (V/m) @ t=0.8
1.8785157320469155
% es.EX (V/m) @ t=0.8
1.5831359316600881
% es.EY (V/m) @ t=0.8
0.19464979119689652
% es.EZ (V/m) @ t=0.8
-0.9727537152210637
% es.tEX (V/m) @ t=0.8
1.5831359316600953
% es.tEY (V/m) @ t=0.8
0
% es.tEZ (V/m) @ t=0.8
-0.9727537152210672
% es.Ex (V/m) @ t=0.8
1.5831359316600881
% es.Ey (V/m) @ t=0.8
0.19464979119689652
% es.Ez (V/m) @ t=0.8
-0.9727537152210637
% es.tEx (V/m) @ t=0.8
1.5831359316600953
% es.tEy (V/m) @ t=0.8
0
% es.tEz (V/m) @ t=0.8
-0.9727537152210672
% V (V) @ t=0.8
0.020398523098830626
% es.normE (V/m) @ t=0.9
1.9925626401594148
% es.EX (V/m) @ t=0.9
1.67924943021967
% es.EY (V/m) @ t=0.9
0.20646961784417606
% es.EZ (V/m) @ t=0.9
-1.0318107287450236
% es.tEX (V/m) @ t=0.9
1.6792494302196843
% es.tEY (V/m) @ t=0.9
0
% es.tEZ (V/m) @ t=0.9
-1.0318107287450076
% es.Ex (V/m) @ t=0.9
1.67924943021967
% es.Ey (V/m) @ t=0.9
0.20646961784417606
% es.Ez (V/m) @ t=0.9
-1.0318107287450236
% es.tEx (V/m) @ t=0.9
1.6792494302196843
% es.tEy (V/m) @ t=0.9
0
% es.tEz (V/m) @ t=0.9
-1.0318107287450076
% V (V) @ t=0.9
0.021636630979351777
% es.normE (V/m) @ t=1
2.1122650471205247
% es.EX (V/m) @ t=1
1.780125112042949
% es.EY (V/m) @ t=1
0.2188930428321676
% es.EZ (V/m) @ t=1
-1.0937962400274799
% es.tEX (V/m) @ t=1
1.7801251120429669
% es.tEY (V/m) @ t=1
0
% es.tEZ (V/m) @ t=1
-1.0937962400274728
% es.Ex (V/m) @ t=1
1.780125112042949
% es.Ey (V/m) @ t=1
0.2188930428321676
% es.Ez (V/m) @ t=1
-1.0937962400274799
% es.tEx (V/m) @ t=1
1.7801251120429669
% es.tEy (V/m) @ t=1
0
% es.tEz (V/m) @ t=1
-1.0937962400274728
% V (V) @ t=1
0.02293388329724977
% es.normE (V/m) @ t=1.1
2.2387064054150327
% es.EX (V/m) @ t=1.1
1.8866838926718366
% es.EY (V/m) @ t=1.1
0.23199826454559158
% es.EZ (V/m) @ t=1.1
-1.1592714783562137
% es.tEX (V/m) @ t=1.1
1.8866838926718685
% es.tEY (V/m) @ t=1.1
0
% es.tEZ (V/m) @ t=1.1
-1.1592714783562066
% es.Ex (V/m) @ t=1.1
1.8866838926718366
% es.Ey (V/m) @ t=1.1
0.23199826454559158
% es.Ez (V/m) @ t=1.1
-1.1592714783562137
% es.tEx (V/m) @ t=1.1
1.8866838926718685
% es.tEy (V/m) @ t=1.1
0
% es.tEz (V/m) @ t=1.1
-1.1592714783562066
% V (V) @ t=1.1
0.02430643933942125
% es.normE (V/m) @ t=1.2
2.371612747728491
% es.EX (V/m) @ t=1.2
1.9986947298225743
% es.EY (V/m) @ t=1.2
0.2457575650301962
% es.EZ (V/m) @ t=1.2
-1.2280945713946156
% es.tEX (V/m) @ t=1.2
1.9986947298226028
% es.tEY (V/m) @ t=1.2
0
% es.tEZ (V/m) @ t=1.2
-1.2280945713946174
% es.Ex (V/m) @ t=1.2
1.9986947298225743
% es.Ey (V/m) @ t=1.2
0.2457575650301962
% es.Ez (V/m) @ t=1.2
-1.2280945713946156
% es.tEx (V/m) @ t=1.2
1.9986947298226028
% es.tEy (V/m) @ t=1.2
0
% es.tEz (V/m) @ t=1.2
-1.2280945713946174
% V (V) @ t=1.2
0.02575123768725876
% es.normE (V/m) @ t=1.3
2.5080159104258373
% es.EX (V/m) @ t=1.3
2.1136519227125596
% es.EY (V/m) @ t=1.3
0.25988190473810135
% es.EZ (V/m) @ t=1.3
-1.2987284118371143
% es.tEX (V/m) @ t=1.3
2.1136519227125703
% es.tEY (V/m) @ t=1.3
0
% es.tEZ (V/m) @ t=1.3
-1.2987284118370894
% es.Ex (V/m) @ t=1.3
2.1136519227125596
% es.Ey (V/m) @ t=1.3
0.25988190473810135
% es.Ez (V/m) @ t=1.3
-1.2987284118371143
% es.tEx (V/m) @ t=1.3
2.1136519227125703
% es.tEy (V/m) @ t=1.3
0
% es.tEz (V/m) @ t=1.3
-1.2987284118370894
% V (V) @ t=1.3
0.02723365891699972
% es.normE (V/m) @ t=1.4
2.652151371312475
% es.EX (V/m) @ t=1.4
2.2351242062735857
% es.EY (V/m) @ t=1.4
0.2748134326637235
% es.EZ (V/m) @ t=1.4
-1.3733662438419074
% es.tEX (V/m) @ t=1.4
2.2351242062736034
% es.tEY (V/m) @ t=1.4
0
% es.tEZ (V/m) @ t=1.4
-1.3733662438418932
% es.Ex (V/m) @ t=1.4
2.2351242062735857
% es.Ey (V/m) @ t=1.4
0.2748134326637235
% es.Ez (V/m) @ t=1.4
-1.3733662438419074
% es.tEx (V/m) @ t=1.4
2.2351242062736034
% es.tEy (V/m) @ t=1.4
0
% es.tEz (V/m) @ t=1.4
-1.3733662438418932
% V (V) @ t=1.4
0.028799273253275224
% es.normE (V/m) @ t=1.5
2.8018908900280928
% es.EX (V/m) @ t=1.5
2.3613183647841076
% es.EY (V/m) @ t=1.5
0.2903299780537907
% es.EZ (V/m) @ t=1.5
-1.4509060074407003
% es.tEX (V/m) @ t=1.5
2.3613183647841254
% es.tEY (V/m) @ t=1.5
0
% es.tEZ (V/m) @ t=1.5
-1.4509060074407003
% es.Ex (V/m) @ t=1.5
2.3613183647841076
% es.Ey (V/m) @ t=1.5
0.2903299780537907
% es.Ez (V/m) @ t=1.5
-1.4509060074407003
% es.tEx (V/m) @ t=1.5
2.3613183647841254
% es.tEy (V/m) @ t=1.5
0
% es.tEz (V/m) @ t=1.5
-1.4509060074407003
% V (V) @ t=1.5
0.030425182597793924
% es.normE (V/m) @ t=1.6
2.9572344665773262
% es.EX (V/m) @ t=1.6
2.4922343982441326
% es.EY (V/m) @ t=1.6
0.30643154090834557
% es.EZ (V/m) @ t=1.6
-1.5313477026334503
% es.tEX (V/m) @ t=1.6
2.4922343982441504
% es.tEY (V/m) @ t=1.6
0
% es.tEZ (V/m) @ t=1.6
-1.5313477026334184
% es.Ex (V/m) @ t=1.6
2.4922343982441326
% es.Ey (V/m) @ t=1.6
0.30643154090834557
% es.Ez (V/m) @ t=1.6
-1.5313477026334503
% es.tEx (V/m) @ t=1.6
2.4922343982441504
% es.tEy (V/m) @ t=1.6
0
% es.tEz (V/m) @ t=1.6
-1.5313477026334184
% V (V) @ t=1.6
0.032111386950555834
% es.normE (V/m) @ t=1.7
3.119836584930243
% es.EX (V/m) @ t=1.7
2.6292675853717142
% es.EY (V/m) @ t=1.7
0.32328543228293327
% es.EZ (V/m) @ t=1.7
-1.6155480947537981
% es.tEX (V/m) @ t=1.7
2.6292675853717498
% es.tEY (V/m) @ t=1.7
0
% es.tEZ (V/m) @ t=1.7
-1.615548094753791
% es.Ex (V/m) @ t=1.7
2.6292675853717142
% es.Ey (V/m) @ t=1.7
0.32328543228293327
% es.Ez (V/m) @ t=1.7
-1.6155480947537981
% es.tEx (V/m) @ t=1.7
2.6292675853717498
% es.tEy (V/m) @ t=1.7
0
% es.tEz (V/m) @ t=1.7
-1.615548094753791
% V (V) @ t=1.7
0.033876384084515744
% es.normE (V/m) @ t=1.8
3.291053499617968
% es.EX (V/m) @ t=1.8
2.773561698583329
% es.EY (V/m) @ t=1.8
0.34102880453863094
% es.EZ (V/m) @ t=1.8
-1.704209512693609
% es.tEX (V/m) @ t=1.8
2.773561698583336
% es.tEY (V/m) @ t=1.8
0
% es.tEZ (V/m) @ t=1.8
-1.704209512693616
% es.Ex (V/m) @ t=1.8
2.773561698583329
% es.Ey (V/m) @ t=1.8
0.34102880453863094
% es.Ez (V/m) @ t=1.8
-1.704209512693609
% es.tEx (V/m) @ t=1.8
2.773561698583336
% es.tEy (V/m) @ t=1.8
0
% es.tEz (V/m) @ t=1.8
-1.704209512693616
% V (V) @ t=1.8
0.035735337452107746
% es.normE (V/m) @ t=1.9
3.4694379537994484
% es.EX (V/m) @ t=1.9
2.923896220341799
% es.EY (V/m) @ t=1.9
0.35951530263179166
% es.EZ (V/m) @ t=1.9
-1.7965825025255384
% es.tEX (V/m) @ t=1.9
2.9238962203418666
% es.tEY (V/m) @ t=1.9
0
% es.tEZ (V/m) @ t=1.9
-1.7965825025255384
% es.Ex (V/m) @ t=1.9
2.923896220341799
% es.Ey (V/m) @ t=1.9
0.35951530263179166
% es.Ez (V/m) @ t=1.9
-1.7965825025255384
% es.tEx (V/m) @ t=1.9
2.9238962203418666
% es.tEy (V/m) @ t=1.9
0
% es.tEz (V/m) @ t=1.9
-1.7965825025255384
% V (V) @ t=1.9
0.03767206615986585
% es.normE (V/m) @ t=2
3.6549899474755003
% es.EX (V/m) @ t=2
3.0802711506469507
% es.EY (V/m) @ t=2
0.37874492656242964
% es.EZ (V/m) @ t=2
-1.892667064249725
% es.tEX (V/m) @ t=2
3.080271150647029
% es.tEY (V/m) @ t=2
0
% es.tEZ (V/m) @ t=2
-1.8926670642497072
% es.Ex (V/m) @ t=2
3.0802711506469507
% es.Ey (V/m) @ t=2
0.37874492656242964
% es.Ez (V/m) @ t=2
-1.892667064249725
% es.tEx (V/m) @ t=2
3.080271150647029
% es.tEy (V/m) @ t=2
0
% es.tEz (V/m) @ t=2
-1.8926670642497072
% V (V) @ t=2
0.03968657020779006
% es.normE (V/m) @ t=2.1
3.8480822187471597
% es.EX (V/m) @ t=2.1
3.2430010413189514
% es.EY (V/m) @ t=2.1
0.39875445561152745
% es.EZ (V/m) @ t=2.1
-1.9926562232268665
% es.tEX (V/m) @ t=2.1
3.2430010413189763
% es.tEY (V/m) @ t=2.1
0
% es.tEZ (V/m) @ t=2.1
-1.9926562232268665
% es.Ex (V/m) @ t=2.1
3.2430010413189514
% es.Ey (V/m) @ t=2.1
0.39875445561152745
% es.Ez (V/m) @ t=2.1
-1.9926562232268665
% es.tEx (V/m) @ t=2.1
3.2430010413189763
% es.tEy (V/m) @ t=2.1
0
% es.tEz (V/m) @ t=2.1
-1.9926562232268665
% V (V) @ t=2.1
0.04178313502035211
% es.normE (V/m) @ t=2.2
4.049079699625313
% es.EX (V/m) @ t=2.2
3.4123938566570615
% es.EY (V/m) @ t=2.2
0.4195798988075339
% es.EZ (V/m) @ t=2.2
-2.0967389623726262
% es.tEX (V/m) @ t=2.2
3.41239385665709
% es.tEY (V/m) @ t=2.2
0
% es.tEZ (V/m) @ t=2.2
-2.0967389623725907
% es.Ex (V/m) @ t=2.2
3.4123938566570615
% es.Ey (V/m) @ t=2.2
0.4195798988075339
% es.Ez (V/m) @ t=2.2
-2.0967389623726262
% es.tEx (V/m) @ t=2.2
3.41239385665709
% es.tEy (V/m) @ t=2.2
0
% es.tEz (V/m) @ t=2.2
-2.0967389623725907
% V (V) @ t=2.2
0.043965956274262336
% es.normE (V/m) @ t=2.3
4.257620192666399
% es.EX (V/m) @ t=2.3
3.588143940044951
% es.EY (V/m) @ t=2.3
0.4411855169502168
% es.EZ (V/m) @ t=2.3
-2.2047277148858164
% es.tEX (V/m) @ t=2.3
3.5881439400449864
% es.tEY (V/m) @ t=2.3
0
% es.tEZ (V/m) @ t=2.3
-2.2047277148857987
% es.Ex (V/m) @ t=2.3
3.588143940044951
% es.Ey (V/m) @ t=2.3
0.4411855169502168
% es.Ez (V/m) @ t=2.3
-2.2047277148858164
% es.tEx (V/m) @ t=2.3
3.5881439400449864
% es.tEy (V/m) @ t=2.3
0
% es.tEz (V/m) @ t=2.3
-2.2047277148857987
% V (V) @ t=2.3
0.04623086973246776
% es.normE (V/m) @ t=2.4
4.4737036978769655
% es.EX (V/m) @ t=2.4
3.7702512914827544
% es.EY (V/m) @ t=2.4
0.463571310039427
% es.EZ (V/m) @ t=2.4
-2.316622480766327
% es.tEX (V/m) @ t=2.4
3.7702512914827935
% es.tEY (V/m) @ t=2.4
0
% es.tEZ (V/m) @ t=2.4
-2.3166224807662985
% es.Ex (V/m) @ t=2.4
3.7702512914827544
% es.Ey (V/m) @ t=2.4
0.463571310039427
% es.Ez (V/m) @ t=2.4
-2.316622480766327
% es.tEx (V/m) @ t=2.4
3.7702512914827935
% es.tEy (V/m) @ t=2.4
0
% es.tEz (V/m) @ t=2.4
-2.3166224807662985
% V (V) @ t=2.4
0.04857787539496835
% es.normE (V/m) @ t=2.5
4.69640693669851
% es.EX (V/m) @ t=2.5
3.95793721605337
% es.EY (V/m) @ t=2.5
0.4866441933555876
% es.EZ (V/m) @ t=2.5
-2.431945143719396
% es.tEX (V/m) @ t=2.5
3.957937216053395
% es.tEY (V/m) @ t=2.5
0
% es.tEZ (V/m) @ t=2.5
-2.4319451437193536
% es.Ex (V/m) @ t=2.5
3.95793721605337
% es.Ey (V/m) @ t=2.5
0.4866441933555876
% es.Ez (V/m) @ t=2.5
-2.431945143719396
% es.tEx (V/m) @ t=2.5
3.957937216053395
% es.tEy (V/m) @ t=2.5
0
% es.tEz (V/m) @ t=2.5
-2.4319451437193536
% V (V) @ t=2.5
0.050996614037862514
% es.normE (V/m) @ t=2.6
4.924660308906628
% es.EX (V/m) @ t=2.6
4.150299610876964
% es.EY (V/m) @ t=2.6
0.5102963300658416
% es.EZ (V/m) @ t=2.6
-2.550141815338904
% es.tEX (V/m) @ t=2.6
4.150299610877028
% es.tEY (V/m) @ t=2.6
0
% es.tEZ (V/m) @ t=2.6
-2.5501418153388897
% es.Ex (V/m) @ t=2.6
4.150299610876964
% es.Ey (V/m) @ t=2.6
0.5102963300658416
% es.Ez (V/m) @ t=2.6
-2.550141815338904
% es.tEx (V/m) @ t=2.6
4.150299610877028
% es.tEy (V/m) @ t=2.6
0
% es.tEz (V/m) @ t=2.6
-2.5501418153388897
% V (V) @ t=2.6
0.053475084702224944
% es.normE (V/m) @ t=2.7
5.159461707839547
% es.EX (V/m) @ t=2.7
4.3481801011157515
% es.EY (V/m) @ t=2.7
0.5346283275334471
% es.EZ (V/m) @ t=2.7
-2.6717292508973145
% es.tEX (V/m) @ t=2.7
4.348180101115773
% es.tEY (V/m) @ t=2.7
0
% es.tEZ (V/m) @ t=2.7
-2.671729250897272
% es.Ex (V/m) @ t=2.7
4.3481801011157515
% es.Ey (V/m) @ t=2.7
0.5346283275334471
% es.Ez (V/m) @ t=2.7
-2.6717292508973145
% es.tEx (V/m) @ t=2.7
4.348180101115773
% es.tEy (V/m) @ t=2.7
0
% es.tEz (V/m) @ t=2.7
-2.671729250897272
% V (V) @ t=2.7
0.05602448379283943
% es.normE (V/m) @ t=2.8
5.400811133499237
% es.EX (V/m) @ t=2.8
4.551578686769403
% es.EY (V/m) @ t=2.8
0.5596401857580844
% es.EZ (V/m) @ t=2.8
-2.796707450394628
% es.tEX (V/m) @ t=2.8
4.551578686769446
% es.tEY (V/m) @ t=2.8
0
% es.tEZ (V/m) @ t=2.8
-2.796707450394578
% es.Ex (V/m) @ t=2.8
4.551578686769403
% es.Ey (V/m) @ t=2.8
0.5596401857580844
% es.Ez (V/m) @ t=2.8
-2.796707450394628
% es.tEx (V/m) @ t=2.8
4.551578686769446
% es.tEy (V/m) @ t=2.8
0
% es.tEz (V/m) @ t=2.8
-2.796707450394578
% V (V) @ t=2.8
0.058644811309705946
% es.normE (V/m) @ t=2.9
5.647324177072342
% es.EX (V/m) @ t=2.9
4.759329115000547
% es.EY (V/m) @ t=2.9
0.5851864074200321
% es.EZ (V/m) @ t=2.9
-2.924359535083056
% es.tEX (V/m) @ t=2.9
4.759329115000654
% es.tEY (V/m) @ t=2.9
0
% es.tEZ (V/m) @ t=2.9
-2.9243595350830702
% es.Ex (V/m) @ t=2.9
4.759329115000547
% es.Ey (V/m) @ t=2.9
0.5851864074200321
% es.Ez (V/m) @ t=2.9
-2.924359535083056
% es.tEx (V/m) @ t=2.9
4.759329115000654
% es.tEy (V/m) @ t=2.9
0
% es.tEz (V/m) @ t=2.9
-2.9243595350830702
% V (V) @ t=2.9
0.06132129813450016
% es.normE (V/m) @ t=3
5.896399969206718
% es.EX (V/m) @ t=3
4.969240363023943
% es.EY (V/m) @ t=3
0.6109936487528529
% es.EZ (V/m) @ t=3
-3.053338714952936
% es.tEX (V/m) @ t=3
4.969240363023971
% es.tEY (V/m) @ t=3
0
% es.tEZ (V/m) @ t=3
-3.053338714952943
% es.Ex (V/m) @ t=3
4.969240363023943
% es.Ey (V/m) @ t=3
0.6109936487528529
% es.Ez (V/m) @ t=3
-3.053338714952936
% es.tEx (V/m) @ t=3
4.969240363023971
% es.tEy (V/m) @ t=3
0
% es.tEz (V/m) @ t=3
-3.053338714952943
% V (V) @ t=3
0.06402619773257782
% es.normE (V/m) @ t=3.1
6.1489391728551475
% es.EX (V/m) @ t=3.1
5.182071166774151
% es.EY (V/m) @ t=3.1
0.637156566799554
% es.EZ (V/m) @ t=3.1
-3.1841113740069105
% es.tEX (V/m) @ t=3.1
5.182071166774165
% es.tEY (V/m) @ t=3.1
0
% es.tEZ (V/m) @ t=3.1
-3.1841113740068607
% es.Ex (V/m) @ t=3.1
5.182071166774151
% es.Ey (V/m) @ t=3.1
0.637156566799554
% es.Ez (V/m) @ t=3.1
-3.1841113740069105
% es.tEx (V/m) @ t=3.1
5.182071166774165
% es.tEy (V/m) @ t=3.1
0
% es.tEz (V/m) @ t=3.1
-3.1841113740068607
% V (V) @ t=3.1
0.0667691185356881
% es.normE (V/m) @ t=3.2
6.404372418814717
% es.EX (V/m) @ t=3.2
5.39734187857605
% es.EY (V/m) @ t=3.2
0.6636153225191634
% es.EZ (V/m) @ t=3.2
-3.3163826797578366
% es.tEX (V/m) @ t=3.2
5.397341878576114
% es.tEY (V/m) @ t=3.2
0
% es.tEZ (V/m) @ t=3.2
-3.316382679757794
% es.Ex (V/m) @ t=3.2
5.39734187857605
% es.Ey (V/m) @ t=3.2
0.6636153225191634
% es.Ez (V/m) @ t=3.2
-3.3163826797578366
% es.tEx (V/m) @ t=3.2
5.397341878576114
% es.tEy (V/m) @ t=3.2
0
% es.tEz (V/m) @ t=3.2
-3.316382679757794
% V (V) @ t=3.2
0.06954398641218597
% es.normE (V/m) @ t=3.3
6.660881259315092
% es.EX (V/m) @ t=3.3
5.613518974994726
% es.EY (V/m) @ t=3.3
0.6901858885171421
% es.EZ (V/m) @ t=3.3
-3.449210959728532
% es.tEX (V/m) @ t=3.3
5.613518974994747
% es.tEY (V/m) @ t=3.3
0
% es.tEZ (V/m) @ t=3.3
-3.4492109597285463
% es.Ex (V/m) @ t=3.3
5.613518974994726
% es.Ey (V/m) @ t=3.3
0.6901858885171421
% es.Ez (V/m) @ t=3.3
-3.449210959728532
% es.tEx (V/m) @ t=3.3
5.613518974994747
% es.tEy (V/m) @ t=3.3
0
% es.tEz (V/m) @ t=3.3
-3.4492109597285463
% V (V) @ t=3.3
0.07233048781646616
% es.normE (V/m) @ t=3.4
6.915221927462854
% es.EX (V/m) @ t=3.4
5.827866358750491
% es.EY (V/m) @ t=3.4
0.7165425265141181
% es.EZ (V/m) @ t=3.4
-3.5809164346510443
% es.tEX (V/m) @ t=3.4
5.827866358750583
% es.tEY (V/m) @ t=3.4
0
% es.tEZ (V/m) @ t=3.4
-3.5809164346509874
% es.Ex (V/m) @ t=3.4
5.827866358750491
% es.Ey (V/m) @ t=3.4
0.7165425265141181
% es.Ez (V/m) @ t=3.4
-3.5809164346510443
% es.tEx (V/m) @ t=3.4
5.827866358750583
% es.tEy (V/m) @ t=3.4
0
% es.tEz (V/m) @ t=3.4
-3.5809164346509874
% V (V) @ t=3.4
0.07509206065878918
% es.normE (V/m) @ t=3.5
7.167750368301481
% es.EX (V/m) @ t=3.5
6.0406850906670755
% es.EY (V/m) @ t=3.5
0.742717395887837
% es.EZ (V/m) @ t=3.5
-3.7116834494682394
% es.tEX (V/m) @ t=3.5
6.040685090667111
% es.tEY (V/m) @ t=3.5
0
% es.tEZ (V/m) @ t=3.5
-3.711683449468211
% es.Ex (V/m) @ t=3.5
6.0406850906670755
% es.Ey (V/m) @ t=3.5
0.742717395887837
% es.Ez (V/m) @ t=3.5
-3.7116834494682394
% es.tEx (V/m) @ t=3.5
6.040685090667111
% es.tEy (V/m) @ t=3.5
0
% es.tEz (V/m) @ t=3.5
-3.711683449468211
% V (V) @ t=3.5
0.07783317932937554
% es.normE (V/m) @ t=3.6
7.4173410802915445
% es.EX (V/m) @ t=3.6
6.251026301651152
% es.EY (V/m) @ t=3.6
0.7685953647083466
% es.EZ (V/m) @ t=3.6
-3.8409291764768057
% es.tEX (V/m) @ t=3.6
6.251026301651208
% es.tEY (V/m) @ t=3.6
0
% es.tEZ (V/m) @ t=3.6
-3.840929176476749
% es.Ex (V/m) @ t=3.6
6.251026301651152
% es.Ey (V/m) @ t=3.6
0.7685953647083466
% es.Ez (V/m) @ t=3.6
-3.8409291764768057
% es.tEx (V/m) @ t=3.6
6.251026301651208
% es.tEy (V/m) @ t=3.6
0
% es.tEz (V/m) @ t=3.6
-3.840929176476749
% V (V) @ t=3.6
0.08054142982402333
% es.normE (V/m) @ t=3.7
7.662299515600069
% es.EX (V/m) @ t=3.7
6.457463065971616
% es.EY (V/m) @ t=3.7
0.7939957537939861
% es.EZ (V/m) @ t=3.7
-3.9677761538215606
% es.tEX (V/m) @ t=3.7
6.457463065971666
% es.tEY (V/m) @ t=3.7
0
% es.tEZ (V/m) @ t=3.7
-3.9677761538214753
% es.Ex (V/m) @ t=3.7
6.457463065971616
% es.Ey (V/m) @ t=3.7
0.7939957537939861
% es.Ez (V/m) @ t=3.7
-3.9677761538215606
% es.tEx (V/m) @ t=3.7
6.457463065971666
% es.tEy (V/m) @ t=3.7
0
% es.tEz (V/m) @ t=3.7
-3.9677761538214753
% V (V) @ t=3.7
0.08319906804102395
% es.normE (V/m) @ t=3.8
7.900109177393393
% es.EX (V/m) @ t=3.8
6.65787793745325
% es.EY (V/m) @ t=3.8
0.8186432053969739
% es.EZ (V/m) @ t=3.8
-4.09092134056668
% es.tEX (V/m) @ t=3.8
6.65787793745335
% es.tEY (V/m) @ t=3.8
0
% es.tEZ (V/m) @ t=3.8
-4.09092134056668
% es.Ex (V/m) @ t=3.8
6.65787793745325
% es.Ey (V/m) @ t=3.8
0.8186432053969739
% es.Ez (V/m) @ t=3.8
-4.09092134056668
% es.tEx (V/m) @ t=3.8
6.65787793745335
% es.tEy (V/m) @ t=3.8
0
% es.tEz (V/m) @ t=3.8
-4.09092134056668
% V (V) @ t=3.8
0.08578065091374325
% es.normE (V/m) @ t=3.9
8.130125316870975
% es.EX (V/m) @ t=3.9
6.851725928119663
% es.EY (V/m) @ t=3.9
0.8424779644924101
% es.EZ (V/m) @ t=3.9
-4.2100308275690494
% es.tEX (V/m) @ t=3.9
6.85172592811972
% es.tEY (V/m) @ t=3.9
0
% es.tEZ (V/m) @ t=3.9
-4.210030827569014
% es.Ex (V/m) @ t=3.9
6.851725928119663
% es.Ey (V/m) @ t=3.9
0.8424779644924101
% es.Ez (V/m) @ t=3.9
-4.2100308275690494
% es.tEx (V/m) @ t=3.9
6.85172592811972
% es.tEy (V/m) @ t=3.9
0
% es.tEz (V/m) @ t=3.9
-4.210030827569014
% V (V) @ t=3.9
0.08827826751472334
% es.normE (V/m) @ t=4
8.350946681761272
% es.EX (V/m) @ t=4
7.037826510319256
% es.EY (V/m) @ t=4
0.8653531360065756
% es.EZ (V/m) @ t=4
-4.324379012153514
% es.tEX (V/m) @ t=4
7.037826510319263
% es.tEY (V/m) @ t=4
0
% es.tEZ (V/m) @ t=4
-4.324379012153514
% es.Ex (V/m) @ t=4
7.037826510319256
% es.Ey (V/m) @ t=4
0.8653531360065756
% es.Ez (V/m) @ t=4
-4.324379012153514
% es.tEx (V/m) @ t=4
7.037826510319263
% es.tEy (V/m) @ t=4
0
% es.tEz (V/m) @ t=4
-4.324379012153514
% V (V) @ t=4
0.0906769209602317
% es.normE (V/m) @ t=4.1
8.56151146323359
% es.EX (V/m) @ t=4.1
7.215284249638714
% es.EY (V/m) @ t=4.1
0.8871612453417441
% es.EZ (V/m) @ t=4.1
-4.433416042932905
% es.tEX (V/m) @ t=4.1
7.215284249638813
% es.tEY (V/m) @ t=4.1
0
% es.tEZ (V/m) @ t=4.1
-4.43341604293289
% es.Ex (V/m) @ t=4.1
7.215284249638714
% es.Ey (V/m) @ t=4.1
0.8871612453417441
% es.Ez (V/m) @ t=4.1
-4.433416042932905
% es.tEx (V/m) @ t=4.1
7.215284249638813
% es.tEy (V/m) @ t=4.1
0
% es.tEz (V/m) @ t=4.1
-4.43341604293289
% V (V) @ t=4.1
0.09296475247291922
% es.normE (V/m) @ t=4.2
8.761368556776329
% es.EX (V/m) @ t=4.2
7.383716632743585
% es.EY (V/m) @ t=4.2
0.9078657406394086
% es.EZ (V/m) @ t=4.2
-4.5369082687225415
% es.tEX (V/m) @ t=4.2
7.383716632743642
% es.tEY (V/m) @ t=4.2
0
% es.tEZ (V/m) @ t=4.2
-4.536908268722527
% es.Ex (V/m) @ t=4.2
7.383716632743585
% es.Ey (V/m) @ t=4.2
0.9078657406394086
% es.Ez (V/m) @ t=4.2
-4.5369082687225415
% es.tEx (V/m) @ t=4.2
7.383716632743642
% es.tEy (V/m) @ t=4.2
0
% es.tEz (V/m) @ t=4.2
-4.536908268722527
% V (V) @ t=4.2
0.09513554915086293
% es.normE (V/m) @ t=4.3
8.94878873200093
% es.EX (V/m) @ t=4.3
7.541667668269504
% es.EY (V/m) @ t=4.3
0.9272816378450699
% es.EZ (V/m) @ t=4.3
-4.633960271869526
% es.tEX (V/m) @ t=4.3
7.541667668269554
% es.tEY (V/m) @ t=4.3
0
% es.tEZ (V/m) @ t=4.3
-4.6339602718694834
% es.Ex (V/m) @ t=4.3
7.541667668269504
% es.Ey (V/m) @ t=4.3
0.9272816378450699
% es.Ez (V/m) @ t=4.3
-4.633960271869526
% es.tEx (V/m) @ t=4.3
7.541667668269554
% es.tEy (V/m) @ t=4.3
0
% es.tEz (V/m) @ t=4.3
-4.6339602718694834
% V (V) @ t=4.3
0.09717128199901501
% es.normE (V/m) @ t=4.4
9.12255087873083
% es.EX (V/m) @ t=4.4
7.688108127107888
% es.EY (V/m) @ t=4.4
0.9452829622708663
% es.EZ (V/m) @ t=4.4
-4.7239397206370555
% es.tEX (V/m) @ t=4.4
7.688108127107995
% es.tEY (V/m) @ t=4.4
0
% es.tEZ (V/m) @ t=4.4
-4.7239397206369915
% es.Ex (V/m) @ t=4.4
7.688108127107888
% es.Ey (V/m) @ t=4.4
0.9452829622708663
% es.Ez (V/m) @ t=4.4
-4.7239397206370555
% es.tEx (V/m) @ t=4.4
7.688108127107995
% es.tEy (V/m) @ t=4.4
0
% es.tEz (V/m) @ t=4.4
-4.7239397206369915
% V (V) @ t=4.4
0.099058619521875
% es.normE (V/m) @ t=4.5
9.282446312048238
% es.EX (V/m) @ t=4.5
7.822861867275726
% es.EY (V/m) @ t=4.5
0.9618492695408776
% es.EZ (V/m) @ t=4.5
-4.806738545117234
% es.tEX (V/m) @ t=4.5
7.822861867275748
% es.tEY (V/m) @ t=4.5
0
% es.tEZ (V/m) @ t=4.5
-4.8067385451171845
% es.Ex (V/m) @ t=4.5
7.822861867275726
% es.Ey (V/m) @ t=4.5
0.9618492695408776
% es.Ez (V/m) @ t=4.5
-4.806738545117234
% es.tEx (V/m) @ t=4.5
7.822861867275748
% es.tEy (V/m) @ t=4.5
0
% es.tEz (V/m) @ t=4.5
-4.8067385451171845
% V (V) @ t=4.5
0.10079514355380922
% es.normE (V/m) @ t=4.6
9.430513452455592
% es.EX (V/m) @ t=4.6
7.947646196883028
% es.EY (V/m) @ t=4.6
0.9771943426778478
% es.EZ (V/m) @ t=4.6
-4.883412288801303
% es.tEX (V/m) @ t=4.6
7.947646196883113
% es.tEY (V/m) @ t=4.6
0
% es.tEZ (V/m) @ t=4.6
-4.883412288801225
% es.Ex (V/m) @ t=4.6
7.947646196883028
% es.Ey (V/m) @ t=4.6
0.9771943426778478
% es.Ez (V/m) @ t=4.6
-4.883412288801303
% es.tEx (V/m) @ t=4.6
7.947646196883113
% es.tEy (V/m) @ t=4.6
0
% es.tEz (V/m) @ t=4.6
-4.883412288801225
% V (V) @ t=4.6
0.10240265836186742
% es.normE (V/m) @ t=4.7
9.564407620710544
% es.EX (V/m) @ t=4.7
8.06048514798772
% es.EY (V/m) @ t=4.7
0.9910750915886553
% es.EZ (V/m) @ t=4.7
-4.952746804780695
% es.tEX (V/m) @ t=4.7
8.060485147987805
% es.tEY (V/m) @ t=4.7
0
% es.tEZ (V/m) @ t=4.7
-4.9527468047806025
% es.Ex (V/m) @ t=4.7
8.06048514798772
% es.Ey (V/m) @ t=4.7
0.9910750915886553
% es.Ez (V/m) @ t=4.7
-4.952746804780695
% es.tEx (V/m) @ t=4.7
8.060485147987805
% es.tEy (V/m) @ t=4.7
0
% es.tEz (V/m) @ t=4.7
-4.9527468047806025
% V (V) @ t=4.7
0.10385572105783539
% es.normE (V/m) @ t=4.8
9.683500447498304
% es.EX (V/m) @ t=4.8
8.160848945219954
% es.EY (V/m) @ t=4.8
1.003427326024024
% es.EZ (V/m) @ t=4.8
-5.014416698936472
% es.tEX (V/m) @ t=4.8
8.160848945219954
% es.tEY (V/m) @ t=4.8
0
% es.tEZ (V/m) @ t=4.8
-5.0144166989363725
% es.Ex (V/m) @ t=4.8
8.160848945219954
% es.Ey (V/m) @ t=4.8
1.003427326024024
% es.Ez (V/m) @ t=4.8
-5.014416698936472
% es.tEx (V/m) @ t=4.8
8.160848945219954
% es.tEy (V/m) @ t=4.8
0
% es.tEz (V/m) @ t=4.8
-5.0144166989363725
% V (V) @ t=4.8
0.1051473895327616
% es.normE (V/m) @ t=4.9
9.787892153407455
% es.EX (V/m) @ t=4.9
8.248822538699812
% es.EY (V/m) @ t=4.9
1.0142593047580135
% es.EZ (V/m) @ t=4.9
-5.068473880126376
% es.tEX (V/m) @ t=4.9
8.24882253869987
% es.tEY (V/m) @ t=4.9
0
% es.tEZ (V/m) @ t=4.9
-5.068473880126334
% es.Ex (V/m) @ t=4.9
8.248822538699812
% es.Ey (V/m) @ t=4.9
1.0142593047580135
% es.Ez (V/m) @ t=4.9
-5.068473880126376
% es.tEx (V/m) @ t=4.9
8.24882253869987
% es.tEy (V/m) @ t=4.9
0
% es.tEz (V/m) @ t=4.9
-5.068473880126334
% V (V) @ t=4.9
0.10627902625369837
% es.normE (V/m) @ t=5
9.880066128704806
% es.EX (V/m) @ t=5
8.326501605300024
% es.EY (V/m) @ t=5
1.0238162625695253
% es.EZ (V/m) @ t=5
-5.11620439049112
% es.tEX (V/m) @ t=5
8.326501605300109
% es.tEY (V/m) @ t=5
0
% es.tEZ (V/m) @ t=5
-5.116204390491106
% es.Ex (V/m) @ t=5
8.326501605300024
% es.Ey (V/m) @ t=5
1.0238162625695253
% es.Ez (V/m) @ t=5
-5.11620439049112
% es.tEx (V/m) @ t=5
8.326501605300109
% es.tEy (V/m) @ t=5
0
% es.tEz (V/m) @ t=5
-5.116204390491106
% V (V) @ t=5
0.10727915741105201
% es.normE (V/m) @ t=5.1
9.95914547753722
% es.EX (V/m) @ t=5.1
8.393146682997795
% es.EY (V/m) @ t=5.1
1.032009296399906
% es.EZ (V/m) @ t=5.1
-5.1571541355423705
% es.tEX (V/m) @ t=5.1
8.393146682997894
% es.tEY (V/m) @ t=5.1
0
% es.tEZ (V/m) @ t=5.1
-5.157154135542356
% es.Ex (V/m) @ t=5.1
8.393146682997795
% es.Ey (V/m) @ t=5.1
1.032009296399906
% es.Ez (V/m) @ t=5.1
-5.1571541355423705
% es.tEx (V/m) @ t=5.1
8.393146682997894
% es.tEy (V/m) @ t=5.1
0
% es.tEz (V/m) @ t=5.1
-5.157154135542356
% V (V) @ t=5.1
0.10813800815381722
% es.normE (V/m) @ t=5.2
10.025702005650624
% es.EX (V/m) @ t=5.2
8.449240607524288
% es.EY (V/m) @ t=5.2
1.0388935581892866
% es.EZ (V/m) @ t=5.2
-5.1916192362737235
% es.tEX (V/m) @ t=5.2
8.449240607524303
% es.tEY (V/m) @ t=5.2
0
% es.tEZ (V/m) @ t=5.2
-5.191619236273738
% es.Ex (V/m) @ t=5.2
8.449240607524288
% es.Ey (V/m) @ t=5.2
1.0388935581892866
% es.Ez (V/m) @ t=5.2
-5.1916192362737235
% es.tEx (V/m) @ t=5.2
8.449240607524303
% es.tEy (V/m) @ t=5.2
0
% es.tEz (V/m) @ t=5.2
-5.191619236273738
% V (V) @ t=5.2
0.10886231614716999
% es.normE (V/m) @ t=5.3
10.080266845268586
% es.EX (V/m) @ t=5.3
8.495230972673681
% es.EY (V/m) @ t=5.3
1.0445241815576338
% es.EZ (V/m) @ t=5.3
-5.219874728852616
% es.tEX (V/m) @ t=5.3
8.495230972673738
% es.tEY (V/m) @ t=5.3
0
% es.tEZ (V/m) @ t=5.3
-5.219874728852574
% es.Ex (V/m) @ t=5.3
8.495230972673681
% es.Ey (V/m) @ t=5.3
1.0445241815576338
% es.Ez (V/m) @ t=5.3
-5.219874728852616
% es.tEx (V/m) @ t=5.3
8.495230972673738
% es.tEy (V/m) @ t=5.3
0
% es.tEz (V/m) @ t=5.3
-5.219874728852574
% V (V) @ t=5.3
0.1094578361979546
% es.normE (V/m) @ t=5.4
10.122757587635853
% es.EX (V/m) @ t=5.4
8.531044068117339