% Model:              1 neuron.mph
% Version:            COMSOL 6.1.0.252
% Date:               Mar 22 2023, 18:38
% Dimension:          0
% Nodes:              14017
% Expressions:        14017
% Description:        Electric field norm, Electric field, X component, Electric field, Y component, Electric field, Z component, Tangential electric field, X component, Tangential electric field, Y component, Tangential electric field, Z component, Electric field, x component, Electric field, y component, Electric field, z component, Tangential electric field, x component, Tangential electric field, y component, Tangential electric field, z component, Electric potential
% Length unit:        mm
% x
2
% y
12.2
% z
1
% es.normE (V/m) @ t=0
1.4065445388045847
% es.EX (V/m) @ t=0
-0.9083276176659947
% es.EY (V/m) @ t=0
0.20180886649980967
% es.EZ (V/m) @ t=0
1.0359120643338393
% es.tEX (V/m) @ t=0
-0.9083276176659911
% es.tEY (V/m) @ t=0
0
% es.tEZ (V/m) @ t=0
1.0359120643338358
% es.Ex (V/m) @ t=0
-0.9083276176659947
% es.Ey (V/m) @ t=0
0.20180886649980967
% es.Ez (V/m) @ t=0
1.0359120643338393
% es.tEx (V/m) @ t=0
-0.9083276176659911
% es.tEy (V/m) @ t=0
0
% es.tEz (V/m) @ t=0
1.0359120643338358
% V (V) @ t=0
0.013612596959340414
% es.normE (V/m) @ t=0.02
1.2148398758188546
% es.EX (V/m) @ t=0.02
-0.7845273146088507
% es.EY (V/m) @ t=0.02
0.17430337397636952
% es.EZ (V/m) @ t=0.02
0.8947226688897114
% es.tEX (V/m) @ t=0.02
-0.7845273146088516
% es.tEY (V/m) @ t=0.02
0
% es.tEZ (V/m) @ t=0.02
0.8947226688897123
% es.Ex (V/m) @ t=0.02
-0.7845273146088507
% es.Ey (V/m) @ t=0.02
0.17430337397636952
% es.Ez (V/m) @ t=0.02
0.8947226688897114
% es.tEx (V/m) @ t=0.02
-0.7845273146088516
% es.tEy (V/m) @ t=0.02
0
% es.tEz (V/m) @ t=0.02
0.8947226688897123
% V (V) @ t=0.02
0.011757271162037676
% es.normE (V/m) @ t=0.04
1.2260082236251044
% es.EX (V/m) @ t=0.04
-0.7917396835801669
% es.EY (V/m) @ t=0.04
0.1759057920237137
% es.EZ (V/m) @ t=0.04
0.9029480937070424
% es.tEX (V/m) @ t=0.04
-0.7917396835801642
% es.tEY (V/m) @ t=0.04
0
% es.tEZ (V/m) @ t=0.04
0.9029480937070504
% es.Ex (V/m) @ t=0.04
-0.7917396835801669
% es.Ey (V/m) @ t=0.04
0.1759057920237137
% es.Ez (V/m) @ t=0.04
0.9029480937070424
% es.tEx (V/m) @ t=0.04
-0.7917396835801642
% es.tEy (V/m) @ t=0.04
0
% es.tEz (V/m) @ t=0.04
0.9029480937070504
% V (V) @ t=0.04
0.011865358833965115
% es.normE (V/m) @ t=0.06
1.2372569028549818
% es.EX (V/m) @ t=0.06
-0.7990039305850507
% es.EY (V/m) @ t=0.06
0.17751973451032255
% es.EZ (V/m) @ t=0.06
0.91123268192114
% es.tEX (V/m) @ t=0.06
-0.7990039305850511
% es.tEY (V/m) @ t=0.06
0
% es.tEZ (V/m) @ t=0.06
0.9112326819211409
% es.Ex (V/m) @ t=0.06
-0.7990039305850507
% es.Ey (V/m) @ t=0.06
0.17751973451032255
% es.Ez (V/m) @ t=0.06
0.91123268192114
% es.tEx (V/m) @ t=0.06
-0.7990039305850511
% es.tEy (V/m) @ t=0.06
0
% es.tEz (V/m) @ t=0.06
0.9112326819211409
% V (V) @ t=0.06
0.011974224133436547
% es.normE (V/m) @ t=0.08
1.2487234856796459
% es.EX (V/m) @ t=0.08
-0.8064088962403826
% es.EY (V/m) @ t=0.08
0.17916494220342338
% es.EZ (V/m) @ t=0.08
0.919677755024578
% es.tEX (V/m) @ t=0.08
-0.8064088962403799
% es.tEY (V/m) @ t=0.08
0
% es.tEZ (V/m) @ t=0.08
0.9196777550245896
% es.Ex (V/m) @ t=0.08
-0.8064088962403826
% es.Ey (V/m) @ t=0.08
0.17916494220342338
% es.Ez (V/m) @ t=0.08
0.919677755024578
% es.tEx (V/m) @ t=0.08
-0.8064088962403799
% es.tEy (V/m) @ t=0.08
0
% es.tEz (V/m) @ t=0.08
0.9196777550245896
% V (V) @ t=0.08
0.012085198218897355
% es.normE (V/m) @ t=0.1
1.2602451066919973
% es.EX (V/m) @ t=0.1
-0.813849404675536
% es.EY (V/m) @ t=0.1
0.18081804687640657
% es.EZ (V/m) @ t=0.1
0.9281633634733426
% es.tEX (V/m) @ t=0.1
-0.8138494046755369
% es.tEY (V/m) @ t=0.1
0
% es.tEZ (V/m) @ t=0.1
0.9281633634733506
% es.Ex (V/m) @ t=0.1
-0.813849404675536
% es.Ey (V/m) @ t=0.1
0.18081804687640657
% es.Ez (V/m) @ t=0.1
0.9281633634733426
% es.tEx (V/m) @ t=0.1
-0.8138494046755369
% es.tEy (V/m) @ t=0.1
0
% es.tEz (V/m) @ t=0.1
0.9281633634733506
% V (V) @ t=0.1
0.012196704942468953
% es.normE (V/m) @ t=0.12
1.2717667277043505
% es.EX (V/m) @ t=0.12
-0.8212899131106957
% es.EY (V/m) @ t=0.12
0.18247115154936477
% es.EZ (V/m) @ t=0.12
0.9366489719221125
% es.tEX (V/m) @ t=0.12
-0.821289913110693
% es.tEY (V/m) @ t=0.12
0
% es.tEZ (V/m) @ t=0.12
0.9366489719221205
% es.Ex (V/m) @ t=0.12
-0.8212899131106957
% es.Ey (V/m) @ t=0.12
0.18247115154936477
% es.Ez (V/m) @ t=0.12
0.9366489719221125
% es.tEx (V/m) @ t=0.12
-0.821289913110693
% es.tEy (V/m) @ t=0.12
0
% es.tEz (V/m) @ t=0.12
0.9366489719221205
% V (V) @ t=0.12
0.012308211666040547
% es.normE (V/m) @ t=0.14
1.2836353082593204
% es.EX (V/m) @ t=0.14
-0.8289544833632694
% es.EY (V/m) @ t=0.14
0.18417403741530203
% es.EZ (V/m) @ t=0.14
0.9453901141120777
% es.tEX (V/m) @ t=0.14
-0.8289544833632667
% es.tEY (V/m) @ t=0.14
0
% es.tEZ (V/m) @ t=0.14
0.9453901141120857
% es.Ex (V/m) @ t=0.14
-0.8289544833632694
% es.Ey (V/m) @ t=0.14
0.18417403741530203
% es.Ez (V/m) @ t=0.14
0.9453901141120777
% es.tEx (V/m) @ t=0.14
-0.8289544833632667
% es.tEy (V/m) @ t=0.14
0
% es.tEz (V/m) @ t=0.14
0.9453901141120857
% V (V) @ t=0.14
0.012423076274858367
% es.normE (V/m) @ t=0.16
1.2957323708512734
% es.EX (V/m) @ t=0.16
-0.8367666042497519
% es.EY (V/m) @ t=0.16
0.1859097055136747
% es.EZ (V/m) @ t=0.16
0.9542995320302898
% es.tEX (V/m) @ t=0.16
-0.8367666042497528
% es.tEY (V/m) @ t=0.16
0
% es.tEZ (V/m) @ t=0.16
0.9542995320302969
% es.Ex (V/m) @ t=0.16
-0.8367666042497519
% es.Ey (V/m) @ t=0.16
0.1859097055136747
% es.Ez (V/m) @ t=0.16
0.9542995320302898
% es.tEx (V/m) @ t=0.16
-0.8367666042497528
% es.tEy (V/m) @ t=0.16
0
% es.tEz (V/m) @ t=0.16
0.9542995320302969
% V (V) @ t=0.16
0.012540152139937621
% es.normE (V/m) @ t=0.18
1.3078294334432385
% es.EX (V/m) @ t=0.18
-0.844578725136238
% es.EY (V/m) @ t=0.18
0.18764537361204392
% es.EZ (V/m) @ t=0.18
0.9632089499485152
% es.tEX (V/m) @ t=0.18
-0.8445787251362384
% es.tEY (V/m) @ t=0.18
0
% es.tEZ (V/m) @ t=0.18
0.9632089499485303
% es.Ex (V/m) @ t=0.18
-0.844578725136238
% es.Ey (V/m) @ t=0.18
0.18764537361204392
% es.Ez (V/m) @ t=0.18
0.9632089499485152
% es.tEx (V/m) @ t=0.18
-0.8445787251362384
% es.tEy (V/m) @ t=0.18
0
% es.tEz (V/m) @ t=0.18
0.9632089499485303
% V (V) @ t=0.18
0.012657228005016875
% es.normE (V/m) @ t=0.2
1.3199264960351962
% es.EX (V/m) @ t=0.2
-0.8523908460227241
% es.EY (V/m) @ t=0.2
0.1893810417104076
% es.EZ (V/m) @ t=0.2
0.9721183678667353
% es.tEX (V/m) @ t=0.2
-0.852390846022725
% es.tEY (V/m) @ t=0.2
0
% es.tEZ (V/m) @ t=0.2
0.9721183678667433
% es.Ex (V/m) @ t=0.2
-0.8523908460227241
% es.Ey (V/m) @ t=0.2
0.1893810417104076
% es.Ez (V/m) @ t=0.2
0.9721183678667353
% es.tEx (V/m) @ t=0.2
-0.852390846022725
% es.tEy (V/m) @ t=0.2
0
% es.tEz (V/m) @ t=0.2
0.9721183678667433
% V (V) @ t=0.2
0.01277430387009613
% es.normE (V/m) @ t=0.22
1.3320235586271543
% es.EX (V/m) @ t=0.22
-0.860202966909204
% es.EY (V/m) @ t=0.22
0.19111670980876794
% es.EZ (V/m) @ t=0.22
0.9810277857849607
% es.tEX (V/m) @ t=0.22
-0.8602029669092008
% es.tEY (V/m) @ t=0.22
0
% es.tEZ (V/m) @ t=0.22
0.9810277857849687
% es.Ex (V/m) @ t=0.22
-0.860202966909204
% es.Ey (V/m) @ t=0.22
0.19111670980876794
% es.Ez (V/m) @ t=0.22
0.9810277857849607
% es.tEx (V/m) @ t=0.22
-0.8602029669092008
% es.tEy (V/m) @ t=0.22
0
% es.tEz (V/m) @ t=0.22
0.9810277857849687
% V (V) @ t=0.22
0.012891379735175387
% es.normE (V/m) @ t=0.24
1.3441206212191186
% es.EX (V/m) @ t=0.24
-0.86801508779569
% es.EY (V/m) @ t=0.24
0.19285237790713528
% es.EZ (V/m) @ t=0.24
0.989937203703187
% es.tEX (V/m) @ t=0.24
-0.8680150877956874
% es.tEY (V/m) @ t=0.24
0
% es.tEZ (V/m) @ t=0.24
0.989937203703187
% es.Ex (V/m) @ t=0.24
-0.86801508779569
% es.Ey (V/m) @ t=0.24
0.19285237790713528
% es.Ez (V/m) @ t=0.24
0.989937203703187
% es.tEx (V/m) @ t=0.24
-0.8680150877956874
% es.tEy (V/m) @ t=0.24
0
% es.tEz (V/m) @ t=0.24
0.989937203703187
% V (V) @ t=0.24
0.013008455600254641
% es.normE (V/m) @ t=0.26
1.3564902181867047
% es.EX (V/m) @ t=0.26
-0.8760032079101583
% es.EY (V/m) @ t=0.26
0.1946271486121084
% es.EZ (V/m) @ t=0.26
0.9990473415979197
% es.tEX (V/m) @ t=0.26
-0.8760032079101552
% es.tEY (V/m) @ t=0.26
0
% es.tEZ (V/m) @ t=0.26
0.9990473415979348
% es.Ex (V/m) @ t=0.26
-0.8760032079101583
% es.Ey (V/m) @ t=0.26
0.1946271486121084
% es.Ez (V/m) @ t=0.26
0.9990473415979197
% es.tEx (V/m) @ t=0.26
-0.8760032079101552
% es.tEy (V/m) @ t=0.26
0
% es.tEz (V/m) @ t=0.26
0.9990473415979348
% V (V) @ t=0.26
0.013128169098516149
% es.normE (V/m) @ t=0.28
1.369872027929133
% es.EX (V/m) @ t=0.28
-0.8846450021401036
% es.EY (V/m) @ t=0.28
0.19654714928236316
% es.EZ (V/m) @ t=0.28
1.0089029682917667
% es.tEX (V/m) @ t=0.28
-0.8846450021401004
% es.tEY (V/m) @ t=0.28
0
% es.tEZ (V/m) @ t=0.28
1.0089029682917854
% es.Ex (V/m) @ t=0.28
-0.8846450021401036
% es.Ey (V/m) @ t=0.28
0.19654714928236316
% es.Ez (V/m) @ t=0.28
1.0089029682917667
% es.tEx (V/m) @ t=0.28
-0.8846450021401004
% es.tEy (V/m) @ t=0.28
0
% es.tEz (V/m) @ t=0.28
1.0089029682917854
% V (V) @ t=0.28
0.013257678960984225
% es.normE (V/m) @ t=0.3
1.3832538376715702
% es.EX (V/m) @ t=0.3
-0.8932867963700484
% es.EY (V/m) @ t=0.3
0.19846714995265335
% es.EZ (V/m) @ t=0.3
1.0187585949856155
% es.tEX (V/m) @ t=0.3
-0.8932867963700488
% es.tEY (V/m) @ t=0.3
0
% es.tEZ (V/m) @ t=0.3
1.0187585949856306
% es.Ex (V/m) @ t=0.3
-0.8932867963700484
% es.Ey (V/m) @ t=0.3
0.19846714995265335
% es.Ez (V/m) @ t=0.3
1.0187585949856155
% es.tEx (V/m) @ t=0.3
-0.8932867963700488
% es.tEy (V/m) @ t=0.3
0
% es.tEz (V/m) @ t=0.3
1.0187585949856306
% V (V) @ t=0.3
0.013387188823452302
% es.normE (V/m) @ t=0.32
1.3966356474140098
% es.EX (V/m) @ t=0.32
-0.9019285906000016
% es.EY (V/m) @ t=0.32
0.2003871506229259
% es.EZ (V/m) @ t=0.32
1.0286142216794696
% es.tEX (V/m) @ t=0.32
-0.9019285905999985
% es.tEY (V/m) @ t=0.32
0
% es.tEZ (V/m) @ t=0.32
1.028614221679474
% es.Ex (V/m) @ t=0.32
-0.9019285906000016
% es.Ey (V/m) @ t=0.32
0.2003871506229259
% es.Ez (V/m) @ t=0.32
1.0286142216794696
% es.tEx (V/m) @ t=0.32
-0.9019285905999985
% es.tEy (V/m) @ t=0.32
0
% es.tEz (V/m) @ t=0.32
1.028614221679474
% V (V) @ t=0.32
0.013516698685920377
% es.normE (V/m) @ t=0.34
1.4100174571564428
% es.EX (V/m) @ t=0.34
-0.910570384829946
% es.EY (V/m) @ t=0.34
0.20230715129318588
% es.EZ (V/m) @ t=0.34
1.038469848373321
% es.tEX (V/m) @ t=0.34
-0.9105703848299429
% es.tEY (V/m) @ t=0.34
0
% es.tEZ (V/m) @ t=0.34
1.0384698483733326
% es.Ex (V/m) @ t=0.34
-0.910570384829946
% es.Ey (V/m) @ t=0.34
0.20230715129318588
% es.Ez (V/m) @ t=0.34
1.038469848373321
% es.tEx (V/m) @ t=0.34
-0.9105703848299429
% es.tEy (V/m) @ t=0.34
0
% es.tEz (V/m) @ t=0.34
1.0384698483733326
% V (V) @ t=0.34
0.013646208548388453
% es.normE (V/m) @ t=0.36
1.4233992668988806
% es.EX (V/m) @ t=0.36
-0.9192121790599024
% es.EY (V/m) @ t=0.36
0.2042271519634744
% es.EZ (V/m) @ t=0.36
1.0483254750671644
% es.tEX (V/m) @ t=0.36
-0.9192121790599024
% es.tEY (V/m) @ t=0.36
0
% es.tEZ (V/m) @ t=0.36
1.048325475067176
% es.Ex (V/m) @ t=0.36
-0.9192121790599024
% es.Ey (V/m) @ t=0.36
0.2042271519634744
% es.Ez (V/m) @ t=0.36
1.0483254750671644
% es.tEx (V/m) @ t=0.36
-0.9192121790599024
% es.tEy (V/m) @ t=0.36
0
% es.tEz (V/m) @ t=0.36
1.048325475067176
% V (V) @ t=0.36
0.013775718410856527
% es.normE (V/m) @ t=0.38
1.436781076641327
% es.EX (V/m) @ t=0.38
-0.9278539732898539
% es.EY (V/m) @ t=0.38
0.20614715263373795
% es.EZ (V/m) @ t=0.38
1.0581811017610274
% es.tEX (V/m) @ t=0.38
-0.9278539732898508
% es.tEY (V/m) @ t=0.38
0
% es.tEZ (V/m) @ t=0.38
1.0581811017610496
% es.Ex (V/m) @ t=0.38
-0.9278539732898539
% es.Ey (V/m) @ t=0.38
0.20614715263373795
% es.Ez (V/m) @ t=0.38
1.0581811017610274
% es.tEx (V/m) @ t=0.38
-0.9278539732898508
% es.tEy (V/m) @ t=0.38
0
% es.tEz (V/m) @ t=0.38
1.0581811017610496
% V (V) @ t=0.38
0.013905228273324605
% es.normE (V/m) @ t=0.4
1.4501628863837595
% es.EX (V/m) @ t=0.4
-0.9364957675197991
% es.EY (V/m) @ t=0.4
0.20806715330400327
% es.EZ (V/m) @ t=0.4
1.0680367284548762
% es.tEX (V/m) @ t=0.4
-0.9364957675197991
% es.tEY (V/m) @ t=0.4
0
% es.tEZ (V/m) @ t=0.4
1.0680367284548877
% es.Ex (V/m) @ t=0.4
-0.9364957675197991
% es.Ey (V/m) @ t=0.4
0.20806715330400327
% es.Ez (V/m) @ t=0.4
1.0680367284548762
% es.tEx (V/m) @ t=0.4
-0.9364957675197991
% es.tEy (V/m) @ t=0.4
0
% es.tEz (V/m) @ t=0.4
1.0680367284548877
% V (V) @ t=0.4
0.014034738135792679
% es.normE (V/m) @ t=0.42
1.4635446961261882
% es.EX (V/m) @ t=0.42
-0.9451375617497444
% es.EY (V/m) @ t=0.42
0.2099871539742758
% es.EZ (V/m) @ t=0.42
1.0778923551487223
% es.tEX (V/m) @ t=0.42
-0.9451375617497448
% es.tEY (V/m) @ t=0.42
0
% es.tEZ (V/m) @ t=0.42
1.0778923551487374
% es.Ex (V/m) @ t=0.42
-0.9451375617497444
% es.Ey (V/m) @ t=0.42
0.2099871539742758
% es.Ez (V/m) @ t=0.42
1.0778923551487223
% es.tEx (V/m) @ t=0.42
-0.9451375617497448
% es.tEy (V/m) @ t=0.42
0
% es.tEz (V/m) @ t=0.42
1.0778923551487374
% V (V) @ t=0.42
0.014164247998260755
% es.normE (V/m) @ t=0.44
1.476926505868633
% es.EX (V/m) @ t=0.44
-0.9537793559796963
% es.EY (V/m) @ t=0.44
0.2119071546445589
% es.EZ (V/m) @ t=0.44
1.0877479818425746
% es.tEX (V/m) @ t=0.44
-0.9537793559796928
% es.tEY (V/m) @ t=0.44
0
% es.tEZ (V/m) @ t=0.44
1.0877479818425755
% es.Ex (V/m) @ t=0.44
-0.9537793559796963
% es.Ey (V/m) @ t=0.44
0.2119071546445589
% es.Ez (V/m) @ t=0.44
1.0877479818425746
% es.tEx (V/m) @ t=0.44
-0.9537793559796928
% es.tEy (V/m) @ t=0.44
0
% es.tEz (V/m) @ t=0.44
1.0877479818425755
% V (V) @ t=0.44
0.014293757860728833
% es.normE (V/m) @ t=0.46
1.4903083156110588
% es.EX (V/m) @ t=0.46
-0.962421150209642
% es.EY (V/m) @ t=0.46
0.21382715531482788
% es.EZ (V/m) @ t=0.46
1.097603608536418
% es.tEX (V/m) @ t=0.46
-0.9624211502096425
% es.tEY (V/m) @ t=0.46
0
% es.tEZ (V/m) @ t=0.46
1.0976036085364331
% es.Ex (V/m) @ t=0.46
-0.962421150209642
% es.Ey (V/m) @ t=0.46
0.21382715531482788
% es.Ez (V/m) @ t=0.46
1.097603608536418
% es.tEx (V/m) @ t=0.46
-0.9624211502096425
% es.tEy (V/m) @ t=0.46
0
% es.tEz (V/m) @ t=0.46
1.0976036085364331
% V (V) @ t=0.46
0.014423267723196907
% es.normE (V/m) @ t=0.48
1.5036901253535055
% es.EX (V/m) @ t=0.48
-0.9710629444395975
% es.EY (V/m) @ t=0.48
0.2157471559851003
% es.EZ (V/m) @ t=0.48
1.107459235230274
% es.tEX (V/m) @ t=0.48
-0.9710629444395944
% es.tEY (V/m) @ t=0.48
0
% es.tEZ (V/m) @ t=0.48
1.1074592352302783
% es.Ex (V/m) @ t=0.48
-0.9710629444395975
% es.Ey (V/m) @ t=0.48
0.2157471559851003
% es.Ez (V/m) @ t=0.48
1.107459235230274
% es.tEx (V/m) @ t=0.48
-0.9710629444395944
% es.tEy (V/m) @ t=0.48
0
% es.tEz (V/m) @ t=0.48
1.1074592352302783
% V (V) @ t=0.48
0.014552777585664983
% es.normE (V/m) @ t=0.5
1.5170719350959456
% es.EX (V/m) @ t=0.5
-0.9797047386695428
% es.EY (V/m) @ t=0.5
0.2176671566553764
% es.EZ (V/m) @ t=0.5
1.1173148619241315
% es.tEX (V/m) @ t=0.5
-0.9797047386695432
% es.tEY (V/m) @ t=0.5
0
% es.tEZ (V/m) @ t=0.5
1.117314861924143
% es.Ex (V/m) @ t=0.5
-0.9797047386695428
% es.Ey (V/m) @ t=0.5
0.2176671566553764
% es.Ez (V/m) @ t=0.5
1.1173148619241315
% es.tEx (V/m) @ t=0.5
-0.9797047386695432
% es.tEy (V/m) @ t=0.5
0
% es.tEz (V/m) @ t=0.5
1.117314861924143
% V (V) @ t=0.5
0.01468228744813306
% es.normE (V/m) @ t=0.52
1.5310754483610491
% es.EX (V/m) @ t=0.52
-0.98874802040228
% es.EY (V/m) @ t=0.52
0.21967635878031722
% es.EZ (V/m) @ t=0.52
1.1276283697992069
% es.tEX (V/m) @ t=0.52
-0.9887480204022765
% es.tEY (V/m) @ t=0.52
0
% es.tEZ (V/m) @ t=0.52
1.1276283697992007
% es.Ex (V/m) @ t=0.52
-0.98874802040228
% es.Ey (V/m) @ t=0.52
0.21967635878031722
% es.Ez (V/m) @ t=0.52
1.1276283697992069
% es.tEx (V/m) @ t=0.52
-0.9887480204022765
% es.tEy (V/m) @ t=0.52
0
% es.tEz (V/m) @ t=0.52
1.1276283697992007
% V (V) @ t=0.52
0.01481781412716004
% es.normE (V/m) @ t=0.54
1.5459013925332876
% es.EX (V/m) @ t=0.54
-0.9983224165956677
% es.EY (V/m) @ t=0.54
0.2218035625420568
% es.EZ (V/m) @ t=0.54
1.1385475934560008
% es.tEX (V/m) @ t=0.54
-0.9983224165956677
% es.tEY (V/m) @ t=0.54
0
% es.tEZ (V/m) @ t=0.54
1.1385475934560088
% es.Ex (V/m) @ t=0.54
-0.9983224165956677
% es.Ey (V/m) @ t=0.54
0.2218035625420568
% es.Ez (V/m) @ t=0.54
1.1385475934560008
% es.tEx (V/m) @ t=0.54
-0.9983224165956677
% es.tEy (V/m) @ t=0.54
0
% es.tEz (V/m) @ t=0.54
1.1385475934560088
% V (V) @ t=0.54
0.014961300252643831
% es.normE (V/m) @ t=0.56
1.5607273367055423
% es.EX (V/m) @ t=0.56
-1.007896812789062
% es.EY (V/m) @ t=0.56
0.22393076630381403
% es.EZ (V/m) @ t=0.56
1.1494668171128097
% es.tEX (V/m) @ t=0.56
-1.0078968127890588
% es.tEY (V/m) @ t=0.56
0
% es.tEZ (V/m) @ t=0.56
1.1494668171128106
% es.Ex (V/m) @ t=0.56
-1.007896812789062
% es.Ey (V/m) @ t=0.56
0.22393076630381403
% es.Ez (V/m) @ t=0.56
1.1494668171128097
% es.tEx (V/m) @ t=0.56
-1.0078968127890588
% es.tEy (V/m) @ t=0.56
0
% es.tEz (V/m) @ t=0.56
1.1494668171128106
% V (V) @ t=0.56
0.01510478637812762
% es.normE (V/m) @ t=0.58
1.5755532808777746
% es.EX (V/m) @ t=0.58
-1.017471208982446
% es.EY (V/m) @ t=0.58
0.22605797006556783
% es.EZ (V/m) @ t=0.58
1.1603860407695938
% es.tEX (V/m) @ t=0.58
-1.017471208982446
% es.tEY (V/m) @ t=0.58
0
% es.tEZ (V/m) @ t=0.58
1.1603860407696054
% es.Ex (V/m) @ t=0.58
-1.017471208982446
% es.Ey (V/m) @ t=0.58
0.22605797006556783
% es.Ez (V/m) @ t=0.58
1.1603860407695938
% es.tEx (V/m) @ t=0.58
-1.017471208982446
% es.tEy (V/m) @ t=0.58
0
% es.tEz (V/m) @ t=0.58
1.1603860407696054
% V (V) @ t=0.58
0.01524827250361141
% es.normE (V/m) @ t=0.6
1.5903792250500182
% es.EX (V/m) @ t=0.6
-1.027045605175831
% es.EY (V/m) @ t=0.6
0.22818517382732328
% es.EZ (V/m) @ t=0.6
1.1713052644263948
% es.tEX (V/m) @ t=0.6
-1.027045605175831
% es.tEY (V/m) @ t=0.6
0
% es.tEZ (V/m) @ t=0.6
1.1713052644264206
% es.Ex (V/m) @ t=0.6
-1.027045605175831
% es.Ey (V/m) @ t=0.6
0.22818517382732328
% es.Ez (V/m) @ t=0.6
1.1713052644263948
% es.tEx (V/m) @ t=0.6
-1.027045605175831
% es.tEy (V/m) @ t=0.6
0
% es.tEz (V/m) @ t=0.6
1.1713052644264206
% V (V) @ t=0.6
0.015391758629095198
% es.normE (V/m) @ t=0.62
1.6052051692222618
% es.EX (V/m) @ t=0.62
-1.0366200013692213
% es.EY (V/m) @ t=0.62
0.23031237758907164
% es.EZ (V/m) @ t=0.62
1.1822244880831905
% es.tEX (V/m) @ t=0.62
-1.0366200013692177
% es.tEY (V/m) @ t=0.62
0
% es.tEZ (V/m) @ t=0.62
1.182224488083202
% es.Ex (V/m) @ t=0.62
-1.0366200013692213
% es.Ey (V/m) @ t=0.62
0.23031237758907164
% es.Ez (V/m) @ t=0.62
1.1822244880831905
% es.tEx (V/m) @ t=0.62
-1.0366200013692177
% es.tEy (V/m) @ t=0.62
0
% es.tEz (V/m) @ t=0.62
1.182224488083202
% V (V) @ t=0.62
0.01553524475457899
% es.normE (V/m) @ t=0.64
1.6200311133945218
% es.EX (V/m) @ t=0.64
-1.046194397562616
% es.EY (V/m) @ t=0.64
0.23243958135083786
% es.EZ (V/m) @ t=0.64
1.193143711740002
% es.tEX (V/m) @ t=0.64
-1.046194397562616
% es.tEY (V/m) @ t=0.64
0
% es.tEZ (V/m) @ t=0.64
1.19314371174001
% es.Ex (V/m) @ t=0.64
-1.046194397562616
% es.Ey (V/m) @ t=0.64
0.23243958135083786
% es.Ez (V/m) @ t=0.64
1.193143711740002
% es.tEx (V/m) @ t=0.64
-1.046194397562616
% es.tEy (V/m) @ t=0.64
0
% es.tEz (V/m) @ t=0.64
1.19314371174001
% V (V) @ t=0.64
0.015678730880062778
% es.normE (V/m) @ t=0.66
1.6348570575667505
% es.EX (V/m) @ t=0.66
-1.055768793756
% es.EY (V/m) @ t=0.66
0.23456678511259166
% es.EZ (V/m) @ t=0.66
1.2040629353967818
% es.tEX (V/m) @ t=0.66
-1.0557687937559965
% es.tEY (V/m) @ t=0.66
0
% es.tEZ (V/m) @ t=0.66
1.2040629353967969
% es.Ex (V/m) @ t=0.66
-1.055768793756
% es.Ey (V/m) @ t=0.66
0.23456678511259166
% es.Ez (V/m) @ t=0.66
1.2040629353967818
% es.tEx (V/m) @ t=0.66
-1.0557687937559965
% es.tEy (V/m) @ t=0.66
0
% es.tEz (V/m) @ t=0.66
1.2040629353967969
% V (V) @ t=0.66
0.01582221700554657
% es.normE (V/m) @ t=0.68
1.6496830017390063
% es.EX (V/m) @ t=0.68
-1.0653431899493806
% es.EY (V/m) @ t=0.68
0.23669398887434012
% es.EZ (V/m) @ t=0.68
1.2149821590536005
% es.tEX (V/m) @ t=0.68
-1.0653431899493806
% es.tEY (V/m) @ t=0.68
0
% es.tEZ (V/m) @ t=0.68
1.2149821590535979
% es.Ex (V/m) @ t=0.68
-1.0653431899493806
% es.Ey (V/m) @ t=0.68
0.23669398887434012
% es.Ez (V/m) @ t=0.68
1.2149821590536005
% es.tEx (V/m) @ t=0.68
-1.0653431899493806
% es.tEy (V/m) @ t=0.68
0
% es.tEz (V/m) @ t=0.68
1.2149821590535979
% V (V) @ t=0.68
0.01596570313103036
% es.normE (V/m) @ t=0.7
1.6645089459112503
% es.EX (V/m) @ t=0.7
-1.0749175861427829
% es.EY (V/m) @ t=0.7
0.2388211926361099
% es.EZ (V/m) @ t=0.7
1.2259013827103873
% es.tEX (V/m) @ t=0.7
-1.0749175861427829
% es.tEY (V/m) @ t=0.7
0
% es.tEZ (V/m) @ t=0.7
1.225901382710406
% es.Ex (V/m) @ t=0.7
-1.0749175861427829
% es.Ey (V/m) @ t=0.7
0.2388211926361099
% es.Ez (V/m) @ t=0.7
1.2259013827103873
% es.tEx (V/m) @ t=0.7
-1.0749175861427829
% es.tEy (V/m) @ t=0.7
0
% es.tEz (V/m) @ t=0.7
1.225901382710406
% V (V) @ t=0.7
0.016109189256514146
% es.normE (V/m) @ t=0.72
1.6793348900834977
% es.EX (V/m) @ t=0.72
-1.0844919823361665
% es.EY (V/m) @ t=0.72
0.24094839639782795
% es.EZ (V/m) @ t=0.72
1.2368206063672051
% es.tEX (V/m) @ t=0.72
-1.084491982336163
% es.tEY (V/m) @ t=0.72
0
% es.tEZ (V/m) @ t=0.72
1.2368206063672087
% es.Ex (V/m) @ t=0.72
-1.0844919823361665
% es.Ey (V/m) @ t=0.72
0.24094839639782795
% es.Ez (V/m) @ t=0.72
1.2368206063672051
% es.tEx (V/m) @ t=0.72
-1.084491982336163
% es.tEy (V/m) @ t=0.72
0
% es.tEz (V/m) @ t=0.72
1.2368206063672087
% V (V) @ t=0.72
0.016252675381997934
% es.normE (V/m) @ t=0.74
1.6941608342557515
% es.EX (V/m) @ t=0.74
-1.0940663785295577
% es.EY (V/m) @ t=0.74
0.24307560015961016
% es.EZ (V/m) @ t=0.74
1.2477398300240061
% es.tEX (V/m) @ t=0.74
-1.0940663785295577
% es.tEY (V/m) @ t=0.74
0
% es.tEZ (V/m) @ t=0.74
1.2477398300240239
% es.Ex (V/m) @ t=0.74
-1.0940663785295577
% es.Ey (V/m) @ t=0.74
0.24307560015961016
% es.Ez (V/m) @ t=0.74
1.2477398300240061
% es.tEx (V/m) @ t=0.74
-1.0940663785295577
% es.tEy (V/m) @ t=0.74
0
% es.tEz (V/m) @ t=0.74
1.2477398300240239
% V (V) @ t=0.74
0.016396161507481726
% es.normE (V/m) @ t=0.76
1.7089867784279942
% es.EX (V/m) @ t=0.76
-1.103640774722956
% es.EY (V/m) @ t=0.76
0.24520280392134974
% es.EZ (V/m) @ t=0.76
1.2586590536807964
% es.tEX (V/m) @ t=0.76
-1.1036407747229555
% es.tEY (V/m) @ t=0.76
0
% es.tEZ (V/m) @ t=0.76
1.2586590536808036
% es.Ex (V/m) @ t=0.76
-1.103640774722956
% es.Ey (V/m) @ t=0.76
0.24520280392134974
% es.Ez (V/m) @ t=0.76
1.2586590536807964
% es.tEx (V/m) @ t=0.76
-1.1036407747229555
% es.tEy (V/m) @ t=0.76
0
% es.tEz (V/m) @ t=0.76
1.2586590536808036
% V (V) @ t=0.76
0.016539647632965518
% es.normE (V/m) @ t=0.78
1.7248679056621468
% es.EX (V/m) @ t=0.78
-1.1138965939864276
% es.EY (V/m) @ t=0.78
0.24748140376184447
% es.EZ (V/m) @ t=0.78
1.2703554136717496
% es.tEX (V/m) @ t=0.78
-1.1138965939864276
% es.tEY (V/m) @ t=0.78
0
% es.tEZ (V/m) @ t=0.78
1.270355413671755
% es.Ex (V/m) @ t=0.78
-1.1138965939864276
% es.Ey (V/m) @ t=0.78
0.24748140376184447
% es.Ez (V/m) @ t=0.78
1.2703554136717496
% es.tEx (V/m) @ t=0.78
-1.1138965939864276
% es.tEy (V/m) @ t=0.78
0
% es.tEz (V/m) @ t=0.78
1.270355413671755
% V (V) @ t=0.78
0.01669334586174372
% es.normE (V/m) @ t=0.8
1.7413200246593934
% es.EX (V/m) @ t=0.8
-1.1245211520728176
% es.EY (V/m) @ t=0.8
0.24984192864173882
% es.EZ (V/m) @ t=0.8
1.282472305854327
% es.tEX (V/m) @ t=0.8
-1.1245211520728136
% es.tEY (V/m) @ t=0.8
0
% es.tEZ (V/m) @ t=0.8
1.2824723058543288
% es.Ex (V/m) @ t=0.8
-1.1245211520728176
% es.Ey (V/m) @ t=0.8
0.24984192864173882
% es.Ez (V/m) @ t=0.8
1.282472305854327
% es.tEx (V/m) @ t=0.8
-1.1245211520728136
% es.tEy (V/m) @ t=0.8
0
% es.tEz (V/m) @ t=0.8
1.2824723058543288
% V (V) @ t=0.8
0.01685257017132759
% es.normE (V/m) @ t=0.82
1.7577721436566422
% es.EX (V/m) @ t=0.82
-1.1351457101592186
% es.EY (V/m) @ t=0.82
0.2522024535216424
% es.EZ (V/m) @ t=0.82
1.294589198036899
% es.tEX (V/m) @ t=0.82
-1.1351457101592146
% es.tEY (V/m) @ t=0.82
0
% es.tEZ (V/m) @ t=0.82
1.2945891980369222
% es.Ex (V/m) @ t=0.82
-1.1351457101592186
% es.Ey (V/m) @ t=0.82
0.2522024535216424
% es.Ez (V/m) @ t=0.82
1.294589198036899
% es.tEx (V/m) @ t=0.82
-1.1351457101592146
% es.tEy (V/m) @ t=0.82
0
% es.tEz (V/m) @ t=0.82
1.2945891980369222
% V (V) @ t=0.82
0.01701179448091146
% es.normE (V/m) @ t=0.84
1.7742242626538751
% es.EX (V/m) @ t=0.84
-1.145770268245597
% es.EY (V/m) @ t=0.84
0.2545629784015154
% es.EZ (V/m) @ t=0.84
1.30670609021948
% es.tEX (V/m) @ t=0.84
-1.145770268245593
% es.tEY (V/m) @ t=0.84
0
% es.tEZ (V/m) @ t=0.84
1.306706090219496
% es.Ex (V/m) @ t=0.84
-1.145770268245597
% es.Ey (V/m) @ t=0.84
0.2545629784015154
% es.Ez (V/m) @ t=0.84
1.30670609021948
% es.tEx (V/m) @ t=0.84
-1.145770268245593
% es.tEy (V/m) @ t=0.84
0
% es.tEz (V/m) @ t=0.84
1.306706090219496
% V (V) @ t=0.84
0.017171018790495325
% es.normE (V/m) @ t=0.86
1.7906763816511309
% es.EX (V/m) @ t=0.86
-1.1563948263319905
% es.EY (V/m) @ t=0.86
0.2569235032814047
% es.EZ (V/m) @ t=0.86
1.3188229824020716
% es.tEX (V/m) @ t=0.86
-1.1563948263319865
% es.tEY (V/m) @ t=0.86
0
% es.tEZ (V/m) @ t=0.86
1.3188229824020965
% es.Ex (V/m) @ t=0.86
-1.1563948263319905
% es.Ey (V/m) @ t=0.86
0.2569235032814047
% es.Ez (V/m) @ t=0.86
1.3188229824020716
% es.tEx (V/m) @ t=0.86
-1.1563948263319865
% es.tEy (V/m) @ t=0.86
0
% es.tEz (V/m) @ t=0.86
1.3188229824020965
% V (V) @ t=0.86
0.0173302431000792
% es.normE (V/m) @ t=0.88
1.8071285006483802
% es.EX (V/m) @ t=0.88
-1.1670193844183854
% es.EY (V/m) @ t=0.88
0.2592840281612976
% es.EZ (V/m) @ t=0.88
1.3309398745846508
% es.tEX (V/m) @ t=0.88
-1.1670193844183814
% es.tEY (V/m) @ t=0.88
0
% es.tEZ (V/m) @ t=0.88
1.3309398745846543
% es.Ex (V/m) @ t=0.88
-1.1670193844183854
% es.Ey (V/m) @ t=0.88
0.2592840281612976
% es.Ez (V/m) @ t=0.88
1.3309398745846508
% es.tEx (V/m) @ t=0.88
-1.1670193844183814
% es.tEy (V/m) @ t=0.88
0
% es.tEz (V/m) @ t=0.88
1.3309398745846543
% V (V) @ t=0.88
0.01748946740966307
% es.normE (V/m) @ t=0.9
1.8235806196456266
% es.EX (V/m) @ t=0.9
-1.1776439425047713
% es.EY (V/m) @ t=0.9
0.2616445530411655
% es.EZ (V/m) @ t=0.9
1.3430567667672406
% es.tEX (V/m) @ t=0.9
-1.1776439425047744
% es.tEY (V/m) @ t=0.9
0
% es.tEZ (V/m) @ t=0.9
1.3430567667672548
% es.Ex (V/m) @ t=0.9
-1.1776439425047713
% es.Ey (V/m) @ t=0.9
0.2616445530411655
% es.Ez (V/m) @ t=0.9
1.3430567667672406
% es.tEx (V/m) @ t=0.9
-1.1776439425047744
% es.tEy (V/m) @ t=0.9
0
% es.tEz (V/m) @ t=0.9
1.3430567667672548
% V (V) @ t=0.9
0.01764869171924694
% es.normE (V/m) @ t=0.92
1.8400327386428916
% es.EX (V/m) @ t=0.92
-1.1882685005911715
% es.EY (V/m) @ t=0.92
0.26400507792108485
% es.EZ (V/m) @ t=0.92
1.3551736589498287
% es.tEX (V/m) @ t=0.92
-1.1882685005911604
% es.tEY (V/m) @ t=0.92
0
% es.tEZ (V/m) @ t=0.92
1.3551736589498358
% es.Ex (V/m) @ t=0.92
-1.1882685005911715
% es.Ey (V/m) @ t=0.92
0.26400507792108485
% es.Ez (V/m) @ t=0.92
1.3551736589498287
% es.tEx (V/m) @ t=0.92
-1.1882685005911604
% es.tEy (V/m) @ t=0.92
0
% es.tEz (V/m) @ t=0.92
1.3551736589498358
% V (V) @ t=0.92
0.017807916028830813
% es.normE (V/m) @ t=0.94
1.8564848576401316
% es.EX (V/m) @ t=0.94
-1.1988930586775517
% es.EY (V/m) @ t=0.94
0.2663656028009599
% es.EZ (V/m) @ t=0.94
1.367290551132415
% es.tEX (V/m) @ t=0.94
-1.1988930586775548
% es.tEY (V/m) @ t=0.94
0
% es.tEZ (V/m) @ t=0.94
1.367290551132422
% es.Ex (V/m) @ t=0.94
-1.1988930586775517
% es.Ey (V/m) @ t=0.94
0.2663656028009599
% es.Ez (V/m) @ t=0.94
1.367290551132415
% es.tEx (V/m) @ t=0.94
-1.1988930586775548
% es.tEy (V/m) @ t=0.94
0
% es.tEz (V/m) @ t=0.94
1.367290551132422
% V (V) @ t=0.94
0.01796714033841468
% es.normE (V/m) @ t=0.96
1.872936976637376
% es.EX (V/m) @ t=0.96
-1.2095176167639377
% es.EY (V/m) @ t=0.96
0.2687261276808526
% es.EZ (V/m) @ t=0.96
1.3794074433149994
% es.tEX (V/m) @ t=0.96
-1.2095176167639403
% es.tEY (V/m) @ t=0.96
0
% es.tEZ (V/m) @ t=0.96
1.3794074433149959
% es.Ex (V/m) @ t=0.96
-1.2095176167639377
% es.Ey (V/m) @ t=0.96
0.2687261276808526
% es.Ez (V/m) @ t=0.96
1.3794074433149994
% es.tEx (V/m) @ t=0.96
-1.2095176167639403
% es.tEy (V/m) @ t=0.96
0
% es.tEz (V/m) @ t=0.96
1.3794074433149959
% V (V) @ t=0.96
0.018126364647998553
% es.normE (V/m) @ t=0.98
1.8893890956346147
% es.EX (V/m) @ t=0.98
-1.2201421748503303
% es.EY (V/m) @ t=0.98
0.2710866525607416
% es.EZ (V/m) @ t=0.98
1.3915243354975662
% es.tEX (V/m) @ t=0.98
-1.2201421748503334
% es.tEY (V/m) @ t=0.98
0
% es.tEZ (V/m) @ t=0.98
1.391524335497584
% es.Ex (V/m) @ t=0.98
-1.2201421748503303
% es.Ey (V/m) @ t=0.98
0.2710866525607416
% es.Ez (V/m) @ t=0.98
1.3915243354975662
% es.tEx (V/m) @ t=0.98
-1.2201421748503334
% es.tEy (V/m) @ t=0.98
0
% es.tEz (V/m) @ t=0.98
1.391524335497584
% V (V) @ t=0.98
0.018285588957582425
% es.normE (V/m) @ t=1
1.9058412146318593
% es.EX (V/m) @ t=1
-1.2307667329367251
% es.EY (V/m) @ t=1
0.2734471774406291
% es.EZ (V/m) @ t=1
1.4036412276801418
% es.tEX (V/m) @ t=1
-1.2307667329367278
% es.tEY (V/m) @ t=1
0
% es.tEZ (V/m) @ t=1
1.403641227680163
% es.Ex (V/m) @ t=1
-1.2307667329367251
% es.Ey (V/m) @ t=1
0.2734471774406291
% es.Ez (V/m) @ t=1
1.4036412276801418
% es.tEx (V/m) @ t=1
-1.2307667329367278
% es.tEy (V/m) @ t=1
0
% es.tEz (V/m) @ t=1
1.403641227680163
% V (V) @ t=1
0.018444813267166293
% es.normE (V/m) @ t=1.02
1.9222933336291093
% es.EX (V/m) @ t=1.02
-1.2413912910231115
% es.EY (V/m) @ t=1.02
0.27580770232053786
% es.EZ (V/m) @ t=1.02
1.415758119862728
% es.tEX (V/m) @ t=1.02
-1.241391291023107
% es.tEY (V/m) @ t=1.02
0
% es.tEZ (V/m) @ t=1.02
1.4157581198627636
% es.Ex (V/m) @ t=1.02
-1.2413912910231115
% es.Ey (V/m) @ t=1.02
0.27580770232053786
% es.Ez (V/m) @ t=1.02
1.415758119862728
% es.tEx (V/m) @ t=1.02
-1.241391291023107
% es.tEy (V/m) @ t=1.02
0
% es.tEz (V/m) @ t=1.02
1.4157581198627636
% V (V) @ t=1.02
0.018604037576750165
% es.normE (V/m) @ t=1.04
1.9394390066499876
% es.EX (V/m) @ t=1.04
-1.2524637368367095
% es.EY (V/m) @ t=1.04
0.27826773748632494
% es.EZ (V/m) @ t=1.04
1.4283858106830998
% es.tEX (V/m) @ t=1.04
-1.2524637368367055
% es.tEY (V/m) @ t=1.04
0
% es.tEZ (V/m) @ t=1.04