% Model:              1 neuron.mph
% Version:            COMSOL 6.1.0.252
% Date:               Mar 22 2023, 18:49
% Dimension:          0
% Nodes:              14017
% Expressions:        14017
% Description:        Electric field norm, Electric field, X component, Electric field, Y component, Electric field, Z component, Tangential electric field, X component, Tangential electric field, Y component, Tangential electric field, Z component, Electric field, x component, Electric field, y component, Electric field, z component, Tangential electric field, x component, Tangential electric field, y component, Tangential electric field, z component, Electric potential
% Length unit:        mm
% x
1.0000000000000002
% y
12.2
% z
2
% es.normE (V/m) @ t=0
1.2773519398097781
% es.EX (V/m) @ t=0
0.8872576884685042
% es.EY (V/m) @ t=0
0.13285708478440372
% es.EZ (V/m) @ t=0
-0.8859649891120696
% es.tEX (V/m) @ t=0
0.8872576884685093
% es.tEY (V/m) @ t=0
0
% es.tEZ (V/m) @ t=0
-0.8859649891120513
% es.Ex (V/m) @ t=0
0.8872576884685042
% es.Ey (V/m) @ t=0
0.13285708478440372
% es.Ez (V/m) @ t=0
-0.8859649891120696
% es.tEx (V/m) @ t=0
0.8872576884685093
% es.tEy (V/m) @ t=0
0
% es.tEz (V/m) @ t=0
-0.8859649891120513
% V (V) @ t=0
0.013678758021451704
% es.normE (V/m) @ t=0.02
1.1032650812125393
% es.EX (V/m) @ t=0.02
0.7663357249123903
% es.EY (V/m) @ t=0.02
0.11475035451268206
% es.EZ (V/m) @ t=0.02
-0.7652192038087198
% es.tEX (V/m) @ t=0.02
0.7663357249123872
% es.tEY (V/m) @ t=0.02
0
% es.tEZ (V/m) @ t=0.02
-0.7652192038087016
% es.Ex (V/m) @ t=0.02
0.7663357249123903
% es.Ey (V/m) @ t=0.02
0.11475035451268206
% es.Ez (V/m) @ t=0.02
-0.7652192038087198
% es.tEx (V/m) @ t=0.02
0.7663357249123872
% es.tEy (V/m) @ t=0.02
0
% es.tEz (V/m) @ t=0.02
-0.7652192038087016
% V (V) @ t=0.02
0.011814516663660216
% es.normE (V/m) @ t=0.04
1.1134175218892621
% es.EX (V/m) @ t=0.04
0.7733876824714268
% es.EY (V/m) @ t=0.04
0.11580630477249859
% es.EZ (V/m) @ t=0.04
-0.7722608871206114
% es.tEX (V/m) @ t=0.04
0.773387682471427
% es.tEY (V/m) @ t=0.04
0
% es.tEZ (V/m) @ t=0.04
-0.7722608871206003
% es.Ex (V/m) @ t=0.04
0.7733876824714268
% es.Ey (V/m) @ t=0.04
0.11580630477249859
% es.Ez (V/m) @ t=0.04
-0.7722608871206114
% es.tEx (V/m) @ t=0.04
0.773387682471427
% es.tEy (V/m) @ t=0.04
0
% es.tEz (V/m) @ t=0.04
-0.7722608871206003
% V (V) @ t=0.04
0.011923236093156504
% es.normE (V/m) @ t=0.06
1.1236436108696704
% es.EX (V/m) @ t=0.06
0.780490796416762
% es.EY (V/m) @ t=0.06
0.11686991646795847
% es.EZ (V/m) @ t=0.06
-0.7793536522296516
% es.tEX (V/m) @ t=0.06
0.7804907964167644
% es.tEY (V/m) @ t=0.06
0
% es.tEZ (V/m) @ t=0.06
-0.7793536522296476
% es.Ex (V/m) @ t=0.06
0.780490796416762
% es.Ey (V/m) @ t=0.06
0.11686991646795847
% es.Ez (V/m) @ t=0.06
-0.7793536522296516
% es.tEx (V/m) @ t=0.06
0.7804907964167644
% es.tEy (V/m) @ t=0.06
0
% es.tEz (V/m) @ t=0.06
-0.7793536522296476
% V (V) @ t=0.06
0.012032744119533827
% es.normE (V/m) @ t=0.08
1.1340664962968172
% es.EX (V/m) @ t=0.08
0.7877306065622751
% es.EY (V/m) @ t=0.08
0.11795399700324721
% es.EZ (V/m) @ t=0.08
-0.7865829143556096
% es.tEX (V/m) @ t=0.08
0.7877306065622802
% es.tEY (V/m) @ t=0.08
0
% es.tEZ (V/m) @ t=0.08
-0.786582914355602
% es.Ex (V/m) @ t=0.08
0.7877306065622751
% es.Ey (V/m) @ t=0.08
0.11795399700324721
% es.Ez (V/m) @ t=0.08
-0.7865829143556096
% es.tEx (V/m) @ t=0.08
0.7877306065622802
% es.tEy (V/m) @ t=0.08
0
% es.tEz (V/m) @ t=0.08
-0.786582914355602
% V (V) @ t=0.08
0.012144359575637068
% es.normE (V/m) @ t=0.1
1.1445413894376089
% es.EX (V/m) @ t=0.1
0.7950065416325665
% es.EY (V/m) @ t=0.1
0.11904348687175925
% es.EZ (V/m) @ t=0.1
-0.7938482487678673
% es.tEX (V/m) @ t=0.1
0.795006541632568
% es.tEY (V/m) @ t=0.1
0
% es.tEZ (V/m) @ t=0.1
-0.7938482487678602
% es.Ex (V/m) @ t=0.1
0.7950065416325665
% es.Ey (V/m) @ t=0.1
0.11904348687175925
% es.Ez (V/m) @ t=0.1
-0.7938482487678673
% es.tEx (V/m) @ t=0.1
0.795006541632568
% es.tEy (V/m) @ t=0.1
0
% es.tEz (V/m) @ t=0.1
-0.7938482487678602
% V (V) @ t=0.1
0.012256531965585097
% es.normE (V/m) @ t=0.12
1.1550162825784185
% es.EX (V/m) @ t=0.12
0.8022824767028665
% es.EY (V/m) @ t=0.12
0.12013297674026396
% es.EZ (V/m) @ t=0.12
-0.8011135831801464
% es.tEX (V/m) @ t=0.12
0.80228247670287
% es.tEY (V/m) @ t=0.12
0
% es.tEZ (V/m) @ t=0.12
-0.8011135831801317
% es.Ex (V/m) @ t=0.12
0.8022824767028665
% es.Ey (V/m) @ t=0.12
0.12013297674026396
% es.Ez (V/m) @ t=0.12
-0.8011135831801464
% es.tEx (V/m) @ t=0.12
0.80228247670287
% es.tEy (V/m) @ t=0.12
0
% es.tEz (V/m) @ t=0.12
-0.8011135831801317
% V (V) @ t=0.12
0.012368704355533122
% es.normE (V/m) @ t=0.14
1.165799772574413
% es.EX (V/m) @ t=0.14
0.8097727640758661
% es.EY (V/m) @ t=0.14
0.12125457130683598
% es.EZ (V/m) @ t=0.14
-0.808592957039103
% es.tEX (V/m) @ t=0.14
0.8097727640758703
% es.tEY (V/m) @ t=0.14
0
% es.tEZ (V/m) @ t=0.14
-0.8085929570390888
% es.Ex (V/m) @ t=0.14
0.8097727640758661
% es.Ey (V/m) @ t=0.14
0.12125457130683598
% es.Ez (V/m) @ t=0.14
-0.808592957039103
% es.tEx (V/m) @ t=0.14
0.8097727640758703
% es.tEy (V/m) @ t=0.14
0
% es.tEz (V/m) @ t=0.14
-0.8085929570390888
% V (V) @ t=0.14
0.01248418103593071
% es.normE (V/m) @ t=0.16
1.1767993172231677
% es.EX (V/m) @ t=0.16
0.8174131236597666
% es.EY (V/m) @ t=0.16
0.12239864299617509
% es.EZ (V/m) @ t=0.16
-0.8162221840723478
% es.tEX (V/m) @ t=0.16
0.817413123659767
% es.tEY (V/m) @ t=0.16
0
% es.tEZ (V/m) @ t=0.16
-0.8162221840723367
% es.Ex (V/m) @ t=0.16
0.8174131236597666
% es.Ey (V/m) @ t=0.16
0.12239864299617509
% es.Ez (V/m) @ t=0.16
-0.8162221840723478
% es.tEx (V/m) @ t=0.16
0.817413123659767
% es.tEy (V/m) @ t=0.16
0
% es.tEz (V/m) @ t=0.16
-0.8162221840723367
% V (V) @ t=0.16
0.01260197111425719
% es.normE (V/m) @ t=0.18
1.1877988618719288
% es.EX (V/m) @ t=0.18
0.8250534832436609
% es.EY (V/m) @ t=0.18
0.12354271468551842
% es.EZ (V/m) @ t=0.18
-0.8238514111056032
% es.tEX (V/m) @ t=0.18
0.8250534832436625
% es.tEY (V/m) @ t=0.18
0
% es.tEZ (V/m) @ t=0.18
-0.8238514111055855
% es.Ex (V/m) @ t=0.18
0.8250534832436609
% es.Ey (V/m) @ t=0.18
0.12354271468551842
% es.Ez (V/m) @ t=0.18
-0.8238514111056032
% es.tEx (V/m) @ t=0.18
0.8250534832436625
% es.tEy (V/m) @ t=0.18
0
% es.tEz (V/m) @ t=0.18
-0.8238514111055855
% V (V) @ t=0.18
0.01271976119258367
% es.normE (V/m) @ t=0.2
1.1987984065206923
% es.EX (V/m) @ t=0.2
0.832693842827551
% es.EY (V/m) @ t=0.2
0.12468678637484154
% es.EZ (V/m) @ t=0.2
-0.8314806381388684
% es.tEX (V/m) @ t=0.2
0.8326938428275543
% es.tEY (V/m) @ t=0.2
0
% es.tEZ (V/m) @ t=0.2
-0.8314806381388538
% es.Ex (V/m) @ t=0.2
0.832693842827551
% es.Ey (V/m) @ t=0.2
0.12468678637484154
% es.Ez (V/m) @ t=0.2
-0.8314806381388684
% es.tEx (V/m) @ t=0.2
0.8326938428275543
% es.tEy (V/m) @ t=0.2
0
% es.tEz (V/m) @ t=0.2
-0.8314806381388538
% V (V) @ t=0.2
0.012837551270910153
% es.normE (V/m) @ t=0.22
1.2097979511694552
% es.EX (V/m) @ t=0.22
0.8403342024114486
% es.EY (V/m) @ t=0.22
0.12583085806418626
% es.EZ (V/m) @ t=0.22
-0.8391098651721216
% es.tEX (V/m) @ t=0.22
0.8403342024114502
% es.tEY (V/m) @ t=0.22
0
% es.tEZ (V/m) @ t=0.22
-0.8391098651721034
% es.Ex (V/m) @ t=0.22
0.8403342024114486
% es.Ey (V/m) @ t=0.22
0.12583085806418626
% es.Ez (V/m) @ t=0.22
-0.8391098651721216
% es.tEx (V/m) @ t=0.22
0.8403342024114502
% es.tEy (V/m) @ t=0.22
0
% es.tEz (V/m) @ t=0.22
-0.8391098651721034
% V (V) @ t=0.22
0.012955341349236631
% es.normE (V/m) @ t=0.24
1.2207974958182164
% es.EX (V/m) @ t=0.24
0.8479745619953409
% es.EY (V/m) @ t=0.24
0.12697492975351277
% es.EZ (V/m) @ t=0.24
-0.8467390922053846
% es.tEX (V/m) @ t=0.24
0.847974561995342
% es.tEY (V/m) @ t=0.24
0
% es.tEZ (V/m) @ t=0.24
-0.8467390922053806
% es.Ex (V/m) @ t=0.24
0.8479745619953409
% es.Ey (V/m) @ t=0.24
0.12697492975351277
% es.Ez (V/m) @ t=0.24
-0.8467390922053846
% es.tEx (V/m) @ t=0.24
0.847974561995342
% es.tEy (V/m) @ t=0.24
0
% es.tEz (V/m) @ t=0.24
-0.8467390922053806
% V (V) @ t=0.24
0.013073131427563113
% es.normE (V/m) @ t=0.26
1.2320109476113856
% es.EX (V/m) @ t=0.26
0.8557634960447051
% es.EY (V/m) @ t=0.26
0.12814129220078674
% es.EZ (V/m) @ t=0.26
-0.8545166741038641
% es.tEX (V/m) @ t=0.26
0.8557634960447102
% es.tEY (V/m) @ t=0.26
0
% es.tEZ (V/m) @ t=0.26
-0.8545166741038459
% es.Ex (V/m) @ t=0.26
0.8557634960447051
% es.Ey (V/m) @ t=0.26
0.12814129220078674
% es.Ez (V/m) @ t=0.26
-0.8545166741038641
% es.tEx (V/m) @ t=0.26
0.8557634960447102
% es.tEy (V/m) @ t=0.26
0
% es.tEz (V/m) @ t=0.26
-0.8545166741038459
% V (V) @ t=0.26
0.013193210079297774
% es.normE (V/m) @ t=0.28
1.2441816661560188
% es.EX (V/m) @ t=0.28
0.8642173232480277
% es.EY (V/m) @ t=0.28
0.1294074091537783
% es.EZ (V/m) @ t=0.28
-0.8629581664121151
% es.tEX (V/m) @ t=0.28
0.8642173232480252
% es.tEY (V/m) @ t=0.28
0
% es.tEZ (V/m) @ t=0.28
-0.8629581664121009
% es.Ex (V/m) @ t=0.28
0.8642173232480277
% es.Ey (V/m) @ t=0.28
0.1294074091537783
% es.Ez (V/m) @ t=0.28
-0.8629581664121151
% es.tEx (V/m) @ t=0.28
0.8642173232480252
% es.tEy (V/m) @ t=0.28
0
% es.tEz (V/m) @ t=0.28
-0.8629581664121009
% V (V) @ t=0.28
0.013323530442395906
% es.normE (V/m) @ t=0.3
1.2563523847007323
% es.EX (V/m) @ t=0.3
0.8726711504513271
% es.EY (V/m) @ t=0.3
0.1306735261067356
% es.EZ (V/m) @ t=0.3
-0.871399658720351
% es.tEX (V/m) @ t=0.3
0.8726711504513376
% es.tEY (V/m) @ t=0.3
0
% es.tEZ (V/m) @ t=0.3
-0.8713996587203328
% es.Ex (V/m) @ t=0.3
0.8726711504513271
% es.Ey (V/m) @ t=0.3
0.1306735261067356
% es.Ez (V/m) @ t=0.3
-0.871399658720351
% es.tEx (V/m) @ t=0.3
0.8726711504513376
% es.tEy (V/m) @ t=0.3
0
% es.tEz (V/m) @ t=0.3
-0.8713996587203328
% V (V) @ t=0.3
0.013453850805494043
% es.normE (V/m) @ t=0.32
1.2685231032455622
% es.EX (V/m) @ t=0.32
0.8811249776546404
% es.EY (V/m) @ t=0.32
0.13193964305973427
% es.EZ (V/m) @ t=0.32
-0.879841151028598
% es.tEX (V/m) @ t=0.32
0.8811249776546455
% es.tEY (V/m) @ t=0.32
0
% es.tEZ (V/m) @ t=0.32
-0.879841151028594
% es.Ex (V/m) @ t=0.32
0.8811249776546404
% es.Ey (V/m) @ t=0.32
0.13193964305973427
% es.Ez (V/m) @ t=0.32
-0.879841151028598
% es.tEx (V/m) @ t=0.32
0.8811249776546455
% es.tEy (V/m) @ t=0.32
0
% es.tEz (V/m) @ t=0.32
-0.879841151028594
% V (V) @ t=0.32
0.013584171168592177
% es.normE (V/m) @ t=0.34
1.2806938217904857
% es.EX (V/m) @ t=0.34
0.8895788048579518
% es.EY (V/m) @ t=0.34
0.13320576001271806
% es.EZ (V/m) @ t=0.34
-0.8882826433368449
% es.tEX (V/m) @ t=0.34
0.8895788048579529
% es.tEY (V/m) @ t=0.34
0
% es.tEZ (V/m) @ t=0.34
-0.8882826433368338
% es.Ex (V/m) @ t=0.34
0.8895788048579518
% es.Ey (V/m) @ t=0.34
0.13320576001271806
% es.Ez (V/m) @ t=0.34
-0.8882826433368449
% es.tEx (V/m) @ t=0.34
0.8895788048579529
% es.tEy (V/m) @ t=0.34
0
% es.tEz (V/m) @ t=0.34
-0.8882826433368338
% V (V) @ t=0.34
0.013714491531690316
% es.normE (V/m) @ t=0.36
1.2928645403355006
% es.EX (V/m) @ t=0.36
0.8980326320612597
% es.EY (V/m) @ t=0.36
0.1344718769656743
% es.EZ (V/m) @ t=0.36
-0.8967241356450883
% es.tEX (V/m) @ t=0.36
0.8980326320612684
% es.tEY (V/m) @ t=0.36
0
% es.tEZ (V/m) @ t=0.36
-0.8967241356450808
% es.Ex (V/m) @ t=0.36
0.8980326320612597
% es.Ey (V/m) @ t=0.36
0.1344718769656743
% es.Ez (V/m) @ t=0.36
-0.8967241356450883
% es.tEx (V/m) @ t=0.36
0.8980326320612684
% es.tEy (V/m) @ t=0.36
0
% es.tEz (V/m) @ t=0.36
-0.8967241356450808
% V (V) @ t=0.36
0.013844811894788452
% es.normE (V/m) @ t=0.38
1.3050352588806042
% es.EX (V/m) @ t=0.38
0.9064864592645707
% es.EY (V/m) @ t=0.38
0.13573799391865643
% es.EZ (V/m) @ t=0.38
-0.9051656279533304
% es.tEX (V/m) @ t=0.38
0.9064864592645736
% es.tEY (V/m) @ t=0.38
0
% es.tEZ (V/m) @ t=0.38
-0.9051656279533127
% es.Ex (V/m) @ t=0.38
0.9064864592645707
% es.Ey (V/m) @ t=0.38
0.13573799391865643
% es.Ez (V/m) @ t=0.38
-0.9051656279533304
% es.tEx (V/m) @ t=0.38
0.9064864592645736
% es.tEy (V/m) @ t=0.38
0
% es.tEz (V/m) @ t=0.38
-0.9051656279533127
% V (V) @ t=0.38
0.013975132257886587
% es.normE (V/m) @ t=0.4
1.317205977425804
% es.EX (V/m) @ t=0.4
0.914940286467884
% es.EY (V/m) @ t=0.4
0.13700411087163378
% es.EZ (V/m) @ t=0.4
-0.9136071202615779
% es.tEX (V/m) @ t=0.4
0.9149402864678851
% es.tEY (V/m) @ t=0.4
0
% es.tEZ (V/m) @ t=0.4
-0.9136071202615668
% es.Ex (V/m) @ t=0.4
0.914940286467884
% es.Ey (V/m) @ t=0.4
0.13700411087163378
% es.Ez (V/m) @ t=0.4
-0.9136071202615779
% es.tEx (V/m) @ t=0.4
0.9149402864678851
% es.tEy (V/m) @ t=0.4
0
% es.tEz (V/m) @ t=0.4
-0.9136071202615668
% V (V) @ t=0.4
0.014105452620984723
% es.normE (V/m) @ t=0.42
1.3293766959710989
% es.EX (V/m) @ t=0.42
0.9233941136711972
% es.EY (V/m) @ t=0.42
0.13827022782460624
% es.EZ (V/m) @ t=0.42
-0.9220486125698382
% es.tEX (V/m) @ t=0.42
0.9233941136711996
% es.tEY (V/m) @ t=0.42
0
% es.tEZ (V/m) @ t=0.42
-0.92204861256982
% es.Ex (V/m) @ t=0.42
0.9233941136711972
% es.Ey (V/m) @ t=0.42
0.13827022782460624
% es.Ez (V/m) @ t=0.42
-0.9220486125698382
% es.tEx (V/m) @ t=0.42
0.9233941136711996
% es.tEy (V/m) @ t=0.42
0
% es.tEz (V/m) @ t=0.42
-0.92204861256982
% V (V) @ t=0.42
0.014235772984082858
% es.normE (V/m) @ t=0.44
1.3415474145164539
% es.EX (V/m) @ t=0.44
0.9318479408745068
% es.EY (V/m) @ t=0.44
0.13953634477758625
% es.EZ (V/m) @ t=0.44
-0.9304901048780709
% es.tEX (V/m) @ t=0.44
0.931847940874508
% es.tEY (V/m) @ t=0.44
0
% es.tEZ (V/m) @ t=0.44
-0.9304901048780598
% es.Ex (V/m) @ t=0.44
0.9318479408745068
% es.Ey (V/m) @ t=0.44
0.13953634477758625
% es.Ez (V/m) @ t=0.44
-0.9304901048780709
% es.tEx (V/m) @ t=0.44
0.931847940874508
% es.tEy (V/m) @ t=0.44
0
% es.tEz (V/m) @ t=0.44
-0.9304901048780598
% V (V) @ t=0.44
0.014366093347180994
% es.normE (V/m) @ t=0.46
1.3537181330619208
% es.EX (V/m) @ t=0.46
0.9403017680778258
% es.EY (V/m) @ t=0.46
0.14080246173057975
% es.EZ (V/m) @ t=0.46
-0.938931597186325
% es.tEX (V/m) @ t=0.46
0.940301768077827
% es.tEY (V/m) @ t=0.46
0
% es.tEZ (V/m) @ t=0.46
-0.9389315971863068
% es.Ex (V/m) @ t=0.46
0.9403017680778258
% es.Ey (V/m) @ t=0.46
0.14080246173057975
% es.Ez (V/m) @ t=0.46
-0.938931597186325
% es.tEx (V/m) @ t=0.46
0.940301768077827
% es.tEy (V/m) @ t=0.46
0
% es.tEz (V/m) @ t=0.46
-0.9389315971863068
% V (V) @ t=0.46
0.014496413710279134
% es.normE (V/m) @ t=0.48
1.3658888516074519
% es.EX (V/m) @ t=0.48
0.9487555952811368
% es.EY (V/m) @ t=0.48
0.1420685786835431
% es.EZ (V/m) @ t=0.48
-0.9473730894945791
% es.tEX (V/m) @ t=0.48
0.9487555952811411
% es.tEY (V/m) @ t=0.48
0
% es.tEZ (V/m) @ t=0.48
-0.947373089494568
% es.Ex (V/m) @ t=0.48
0.9487555952811368
% es.Ey (V/m) @ t=0.48
0.1420685786835431
% es.Ez (V/m) @ t=0.48
-0.9473730894945791
% es.tEx (V/m) @ t=0.48
0.9487555952811411
% es.tEy (V/m) @ t=0.48
0
% es.tEz (V/m) @ t=0.48
-0.947373089494568
% V (V) @ t=0.48
0.014626734073377265
% es.normE (V/m) @ t=0.5
1.3780595701530582
% es.EX (V/m) @ t=0.5
0.9572094224844532
% es.EY (V/m) @ t=0.5
0.14333469563654638
% es.EZ (V/m) @ t=0.5
-0.9558145818028181
% es.tEX (V/m) @ t=0.5
0.9572094224844578
% es.tEY (V/m) @ t=0.5
0
% es.tEZ (V/m) @ t=0.5
-0.9558145818027999
% es.Ex (V/m) @ t=0.5
0.9572094224844532
% es.Ey (V/m) @ t=0.5
0.14333469563654638
% es.Ez (V/m) @ t=0.5
-0.9558145818028181
% es.tEx (V/m) @ t=0.5
0.9572094224844578
% es.tEy (V/m) @ t=0.5
0
% es.tEz (V/m) @ t=0.5
-0.9558145818027999
% V (V) @ t=0.5
0.014757054436475401
% es.normE (V/m) @ t=0.52
1.390719887265858
% es.EX (V/m) @ t=0.52
0.9660033666589076
% es.EY (V/m) @ t=0.52
0.14465150011459138
% es.EZ (V/m) @ t=0.52
-0.9645957134671685
% es.tEX (V/m) @ t=0.52
0.9660033666589123
% es.tEY (V/m) @ t=0.52
0
% es.tEZ (V/m) @ t=0.52
-0.9645957134671503
% es.Ex (V/m) @ t=0.52
0.9660033666589076
% es.Ey (V/m) @ t=0.52
0.14465150011459138
% es.Ez (V/m) @ t=0.52
-0.9645957134671685
% es.tEx (V/m) @ t=0.52
0.9660033666589123
% es.tEy (V/m) @ t=0.52
0
% es.tEz (V/m) @ t=0.52
-0.9645957134671503
% V (V) @ t=0.52
0.014892629331299976
% es.normE (V/m) @ t=0.54
1.4042083528277538
% es.EX (V/m) @ t=0.54
0.9753726134609091
% es.EY (V/m) @ t=0.54
0.14605404176201664
% es.EZ (V/m) @ t=0.54
-0.973951339880498
% es.tEX (V/m) @ t=0.54
0.9753726134609129
% es.tEY (V/m) @ t=0.54
0
% es.tEZ (V/m) @ t=0.54
-0.9739513398804798
% es.Ex (V/m) @ t=0.54
0.9753726134609091
% es.Ey (V/m) @ t=0.54
0.14605404176201664
% es.Ez (V/m) @ t=0.54
-0.973951339880498
% es.tEx (V/m) @ t=0.54
0.9753726134609129
% es.tEy (V/m) @ t=0.54
0
% es.tEz (V/m) @ t=0.54
-0.9739513398804798
% V (V) @ t=0.54
0.015037092185753458
% es.normE (V/m) @ t=0.56
1.4176968183899366
% es.EX (V/m) @ t=0.56
0.9847418602629119
% es.EY (V/m) @ t=0.56
0.14745658340944273
% es.EZ (V/m) @ t=0.56
-0.983306966293855
% es.tEX (V/m) @ t=0.56
0.9847418602629165
% es.tEY (V/m) @ t=0.56
0
% es.tEZ (V/m) @ t=0.56
-0.9833069662938438
% es.Ex (V/m) @ t=0.56
0.9847418602629119
% es.Ey (V/m) @ t=0.56
0.14745658340944273
% es.Ez (V/m) @ t=0.56
-0.983306966293855
% es.tEx (V/m) @ t=0.56
0.9847418602629165
% es.tEy (V/m) @ t=0.56
0
% es.tEz (V/m) @ t=0.56
-0.9833069662938438
% V (V) @ t=0.56
0.015181555040206938
% es.normE (V/m) @ t=0.58
1.4311852839523826
% es.EX (V/m) @ t=0.58
0.9941111070649271
% es.EY (V/m) @ t=0.58
0.1488591250568957
% es.EZ (V/m) @ t=0.58
-0.9926625927071915
% es.tEX (V/m) @ t=0.58
0.9941111070649327
% es.tEY (V/m) @ t=0.58
0
% es.tEZ (V/m) @ t=0.58
-0.9926625927071733
% es.Ex (V/m) @ t=0.58
0.9941111070649271
% es.Ey (V/m) @ t=0.58
0.1488591250568957
% es.Ez (V/m) @ t=0.58
-0.9926625927071915
% es.tEx (V/m) @ t=0.58
0.9941111070649327
% es.tEy (V/m) @ t=0.58
0
% es.tEz (V/m) @ t=0.58
-0.9926625927071733
% V (V) @ t=0.58
0.015326017894660416
% es.normE (V/m) @ t=0.6
1.444673749515078
% es.EX (V/m) @ t=0.6
1.0034803538669197
% es.EY (V/m) @ t=0.6
0.1502616667043189
% es.EZ (V/m) @ t=0.6
-1.0020182191205422
% es.tEX (V/m) @ t=0.6
1.0034803538669252
% es.tEY (V/m) @ t=0.6
0
% es.tEZ (V/m) @ t=0.6
-1.0020182191205311
% es.Ex (V/m) @ t=0.6
1.0034803538669197
% es.Ey (V/m) @ t=0.6
0.1502616667043189
% es.Ez (V/m) @ t=0.6
-1.0020182191205422
% es.tEx (V/m) @ t=0.6
1.0034803538669252
% es.tEy (V/m) @ t=0.6
0
% es.tEz (V/m) @ t=0.6
-1.0020182191205311
% V (V) @ t=0.6
0.015470480749113896
% es.normE (V/m) @ t=0.62
1.4581622150780444
% es.EX (V/m) @ t=0.62
1.0128496006689243
% es.EY (V/m) @ t=0.62
0.15166420835177363
% es.EZ (V/m) @ t=0.62
-1.0113738455339063
% es.tEX (V/m) @ t=0.62
1.0128496006689298
% es.tEY (V/m) @ t=0.62
0
% es.tEZ (V/m) @ t=0.62
-1.011373845533888
% es.Ex (V/m) @ t=0.62
1.0128496006689243
% es.Ey (V/m) @ t=0.62
0.15166420835177363
% es.Ez (V/m) @ t=0.62
-1.0113738455339063
% es.tEx (V/m) @ t=0.62
1.0128496006689298
% es.tEy (V/m) @ t=0.62
0
% es.tEz (V/m) @ t=0.62
-1.011373845533888
% V (V) @ t=0.62
0.015614943603567381
% es.normE (V/m) @ t=0.64
1.4716506806412348
% es.EX (V/m) @ t=0.64
1.022218847470932
% es.EY (V/m) @ t=0.64
0.15306674999918735
% es.EZ (V/m) @ t=0.64
-1.0207294719472535
% es.tEX (V/m) @ t=0.64
1.0222188474709375
% es.tEY (V/m) @ t=0.64
0
% es.tEZ (V/m) @ t=0.64
-1.0207294719472317
% es.Ex (V/m) @ t=0.64
1.022218847470932
% es.Ey (V/m) @ t=0.64
0.15306674999918735
% es.Ez (V/m) @ t=0.64
-1.0207294719472535
% es.tEx (V/m) @ t=0.64
1.0222188474709375
% es.tEy (V/m) @ t=0.64
0
% es.tEz (V/m) @ t=0.64
-1.0207294719472317
% V (V) @ t=0.64
0.015759406458020857
% es.normE (V/m) @ t=0.66
1.485139146204655
% es.EX (V/m) @ t=0.66
1.031588094272936
% es.EY (V/m) @ t=0.66
0.15446929164663187
% es.EZ (V/m) @ t=0.66
-1.030085098360583
% es.tEX (V/m) @ t=0.66
1.0315880942729416
% es.tEY (V/m) @ t=0.66
0
% es.tEZ (V/m) @ t=0.66
-1.0300850983605683
% es.Ex (V/m) @ t=0.66
1.031588094272936
% es.Ey (V/m) @ t=0.66
0.15446929164663187
% es.Ez (V/m) @ t=0.66
-1.030085098360583
% es.tEx (V/m) @ t=0.66
1.0315880942729416
% es.tEy (V/m) @ t=0.66
0
% es.tEz (V/m) @ t=0.66
-1.0300850983605683
% V (V) @ t=0.66
0.01590386931247434
% es.normE (V/m) @ t=0.68
1.498627611768331
% es.EX (V/m) @ t=0.68
1.0409573410749433
% es.EY (V/m) @ t=0.68
0.15587183329407234
% es.EZ (V/m) @ t=0.68
-1.039440724773947
% es.tEX (V/m) @ t=0.68
1.0409573410749418
% es.tEY (V/m) @ t=0.68
0
% es.tEZ (V/m) @ t=0.68
-1.0394407247739252
% es.Ex (V/m) @ t=0.68
1.0409573410749433
% es.Ey (V/m) @ t=0.68
0.15587183329407234
% es.Ez (V/m) @ t=0.68
-1.039440724773947
% es.tEx (V/m) @ t=0.68
1.0409573410749418
% es.tEy (V/m) @ t=0.68
0
% es.tEz (V/m) @ t=0.68
-1.0394407247739252
% V (V) @ t=0.68
0.016048332166927824
% es.normE (V/m) @ t=0.7
1.5121160773322058
% es.EX (V/m) @ t=0.7
1.0503265878769408
% es.EY (V/m) @ t=0.7
0.15727437494150492
% es.EZ (V/m) @ t=0.7
-1.0487963511872906
% es.tEX (V/m) @ t=0.7
1.0503265878769388
% es.tEY (V/m) @ t=0.7
0
% es.tEZ (V/m) @ t=0.7
-1.0487963511872689
% es.Ex (V/m) @ t=0.7
1.0503265878769408
% es.Ey (V/m) @ t=0.7
0.15727437494150492
% es.Ez (V/m) @ t=0.7
-1.0487963511872906
% es.tEx (V/m) @ t=0.7
1.0503265878769388
% es.tEy (V/m) @ t=0.7
0
% es.tEz (V/m) @ t=0.7
-1.0487963511872689
% V (V) @ t=0.7
0.016192795021381302
% es.normE (V/m) @ t=0.72
1.5256045428963125
% es.EX (V/m) @ t=0.72
1.0596958346789418
% es.EY (V/m) @ t=0.72
0.1586769165889308
% es.EZ (V/m) @ t=0.72
-1.0581519776006485
% es.tEX (V/m) @ t=0.72
1.059695834678943
% es.tEY (V/m) @ t=0.72
0
% es.tEZ (V/m) @ t=0.72
-1.0581519776006196
% es.Ex (V/m) @ t=0.72
1.0596958346789418
% es.Ey (V/m) @ t=0.72
0.1586769165889308
% es.Ez (V/m) @ t=0.72
-1.0581519776006485
% es.tEx (V/m) @ t=0.72
1.059695834678943
% es.tEy (V/m) @ t=0.72
0
% es.tEz (V/m) @ t=0.72
-1.0581519776006196
% V (V) @ t=0.72
0.01633725787583478
% es.normE (V/m) @ t=0.74
1.5390930084606231
% es.EX (V/m) @ t=0.74
1.069065081480954
% es.EY (V/m) @ t=0.74
0.16007945823636327
% es.EZ (V/m) @ t=0.74
-1.0675076040139841
% es.tEX (V/m) @ t=0.74
1.0690650814809488
% es.tEY (V/m) @ t=0.74
0
% es.tEZ (V/m) @ t=0.74
-1.0675076040139553
% es.Ex (V/m) @ t=0.74
1.069065081480954
% es.Ey (V/m) @ t=0.74
0.16007945823636327
% es.Ez (V/m) @ t=0.74
-1.0675076040139841
% es.tEx (V/m) @ t=0.74
1.0690650814809488
% es.tEy (V/m) @ t=0.74
0
% es.tEz (V/m) @ t=0.74
-1.0675076040139553
% V (V) @ t=0.74
0.01648172073028826
% es.normE (V/m) @ t=0.76
1.5525814740251582
% es.EX (V/m) @ t=0.76
1.0784343282829536
% es.EY (V/m) @ t=0.76
0.16148199988379097
% es.EZ (V/m) @ t=0.76
-1.0768632304273562
% es.tEX (V/m) @ t=0.76
1.0784343282829547
% es.tEY (V/m) @ t=0.76
0
% es.tEZ (V/m) @ t=0.76
-1.0768632304273416
% es.Ex (V/m) @ t=0.76
1.0784343282829536
% es.Ey (V/m) @ t=0.76
0.16148199988379097
% es.Ez (V/m) @ t=0.76
-1.0768632304273562
% es.tEx (V/m) @ t=0.76
1.0784343282829547
% es.tEy (V/m) @ t=0.76
0
% es.tEz (V/m) @ t=0.76
-1.0768632304273416
% V (V) @ t=0.76
0.016626183584741744
% es.normE (V/m) @ t=0.78
1.5669010030678874
% es.EX (V/m) @ t=0.78
1.0883807193740294
% es.EY (V/m) @ t=0.78
0.16297170980145503
% es.EZ (V/m) @ t=0.78
-1.086795103984707
% es.tEX (V/m) @ t=0.78
1.0883807193740376
% es.tEY (V/m) @ t=0.78
0
% es.tEZ (V/m) @ t=0.78
-1.0867951039846853
% es.Ex (V/m) @ t=0.78
1.0883807193740294
% es.Ey (V/m) @ t=0.78
0.16297170980145503
% es.Ez (V/m) @ t=0.78
-1.086795103984707
% es.tEx (V/m) @ t=0.78
1.0883807193740376
% es.tEy (V/m) @ t=0.78
0
% es.tEz (V/m) @ t=0.78
-1.0867951039846853
% V (V) @ t=0.78
0.01677951026452489
% es.normE (V/m) @ t=0.8
1.5818723429435497
% es.EX (V/m) @ t=0.8
1.0987797701104485
% es.EY (V/m) @ t=0.8
0.16452978660592726
% es.EZ (V/m) @ t=0.8
-1.0971789335481907
% es.tEX (V/m) @ t=0.8
1.0987797701104531
% es.tEY (V/m) @ t=0.8
0
% es.tEZ (V/m) @ t=0.8
-1.0971789335481619
% es.Ex (V/m) @ t=0.8
1.0987797701104485
% es.Ey (V/m) @ t=0.8
0.16452978660592726
% es.Ez (V/m) @ t=0.8
-1.0971789335481907
% es.tEx (V/m) @ t=0.8
1.0987797701104531
% es.tEy (V/m) @ t=0.8
0
% es.tEz (V/m) @ t=0.8
-1.0971789335481619
% V (V) @ t=0.8
0.016939788925131413
% es.normE (V/m) @ t=0.82
1.596843682820378
% es.EX (V/m) @ t=0.82
1.1091788208468647
% es.EY (V/m) @ t=0.82
0.16608786341040394
% es.EZ (V/m) @ t=0.82
-1.1075627631116745
% es.tEX (V/m) @ t=0.82
1.1091788208468691
% es.tEY (V/m) @ t=0.82
0
% es.tEZ (V/m) @ t=0.82
-1.1075627631116598
% es.Ex (V/m) @ t=0.82
1.1091788208468647
% es.Ey (V/m) @ t=0.82
0.16608786341040394
% es.Ez (V/m) @ t=0.82
-1.1075627631116745
% es.tEx (V/m) @ t=0.82
1.1091788208468691
% es.tEy (V/m) @ t=0.82
0
% es.tEz (V/m) @ t=0.82
-1.1075627631116598
% V (V) @ t=0.82
0.017100067585737934
% es.normE (V/m) @ t=0.84
1.6118150226983312
% es.EX (V/m) @ t=0.84
1.1195778715832867
% es.EY (V/m) @ t=0.84
0.16764594021488022
% es.EZ (V/m) @ t=0.84
-1.1179465926751306
% es.tEX (V/m) @ t=0.84
1.119577871583291
% es.tEY (V/m) @ t=0.84
0
% es.tEZ (V/m) @ t=0.84
-1.1179465926751089
% es.Ex (V/m) @ t=0.84
1.1195778715832867
% es.Ey (V/m) @ t=0.84
0.16764594021488022
% es.Ez (V/m) @ t=0.84
-1.1179465926751306
% es.tEx (V/m) @ t=0.84
1.119577871583291
% es.tEy (V/m) @ t=0.84
0
% es.tEz (V/m) @ t=0.84
-1.1179465926751089
% V (V) @ t=0.84
0.017260346246344458
% es.normE (V/m) @ t=0.86
1.6267863625773904
% es.EX (V/m) @ t=0.86
1.129976922319712
% es.EY (V/m) @ t=0.86
0.16920401701933768
% es.EZ (V/m) @ t=0.86
-1.1283304222385921
% es.tEX (V/m) @ t=0.86
1.1299769223197056
% es.tEY (V/m) @ t=0.86
0
% es.tEZ (V/m) @ t=0.86
-1.1283304222385704
% es.Ex (V/m) @ t=0.86
1.129976922319712
% es.Ey (V/m) @ t=0.86
0.16920401701933768
% es.Ez (V/m) @ t=0.86
-1.1283304222385921
% es.tEx (V/m) @ t=0.86
1.1299769223197056
% es.tEy (V/m) @ t=0.86
0
% es.tEz (V/m) @ t=0.86
-1.1283304222385704
% V (V) @ t=0.86
0.017420624906950986
% es.normE (V/m) @ t=0.88
1.641757702457514
% es.EX (V/m) @ t=0.88
1.1403759730561063
% es.EY (V/m) @ t=0.88
0.17076209382380547
% es.EZ (V/m) @ t=0.88
-1.1387142518020688
% es.tEX (V/m) @ t=0.88
1.1403759730561176
% es.tEY (V/m) @ t=0.88
0
% es.tEZ (V/m) @ t=0.88
-1.138714251802054
% es.Ex (V/m) @ t=0.88
1.1403759730561063
% es.Ey (V/m) @ t=0.88
0.17076209382380547
% es.Ez (V/m) @ t=0.88
-1.1387142518020688
% es.tEx (V/m) @ t=0.88
1.1403759730561176
% es.tEy (V/m) @ t=0.88
0
% es.tEz (V/m) @ t=0.88
-1.138714251802054
% V (V) @ t=0.88
0.017580903567557506
% es.normE (V/m) @ t=0.9
1.6567290423386967
% es.EX (V/m) @ t=0.9
1.150775023792528
% es.EY (V/m) @ t=0.9
0.17232017062828708
% es.EZ (V/m) @ t=0.9
-1.1490980813655391
% es.tEX (V/m) @ t=0.9
1.1507750237925323
% es.tEY (V/m) @ t=0.9
0
% es.tEZ (V/m) @ t=0.9
-1.1490980813655245
% es.Ex (V/m) @ t=0.9
1.150775023792528
% es.Ey (V/m) @ t=0.9
0.17232017062828708
% es.Ez (V/m) @ t=0.9
-1.1490980813655391
% es.tEx (V/m) @ t=0.9
1.1507750237925323
% es.tEy (V/m) @ t=0.9
0
% es.tEz (V/m) @ t=0.9
-1.1490980813655245
% V (V) @ t=0.9
0.017741182228164027
% es.normE (V/m) @ t=0.92
1.6717003822208978
% es.EX (V/m) @ t=0.92
1.1611740745289445
% es.EY (V/m) @ t=0.92
0.1738782474327748
% es.EZ (V/m) @ t=0.92
-1.159481910929014
% es.tEX (V/m) @ t=0.92
1.1611740745289416
% es.tEY (V/m) @ t=0.92
0
% es.tEZ (V/m) @ t=0.92
-1.1594819109289922
% es.Ex (V/m) @ t=0.92
1.1611740745289445
% es.Ey (V/m) @ t=0.92
0.1738782474327748
% es.Ez (V/m) @ t=0.92
-1.159481910929014
% es.tEx (V/m) @ t=0.92
1.1611740745289416
% es.tEy (V/m) @ t=0.92
0
% es.tEz (V/m) @ t=0.92
-1.1594819109289922
% V (V) @ t=0.92
0.01790146088877055
% es.normE (V/m) @ t=0.94
1.6866717221040957
% es.EX (V/m) @ t=0.94
1.1715731252653672
% es.EY (V/m) @ t=0.94
0.17543632423723188
% es.EZ (V/m) @ t=0.94
-1.1698657404924977
% es.tEX (V/m) @ t=0.94
1.1715731252653643
% es.tEY (V/m) @ t=0.94
0
% es.tEZ (V/m) @ t=0.94
-1.169865740492476
% es.Ex (V/m) @ t=0.94
1.1715731252653672
% es.Ey (V/m) @ t=0.94
0.17543632423723188
% es.Ez (V/m) @ t=0.94
-1.1698657404924977
% es.tEx (V/m) @ t=0.94
1.1715731252653643
% es.tEy (V/m) @ t=0.94
0
% es.tEz (V/m) @ t=0.94
-1.169865740492476
% V (V) @ t=0.94
0.018061739549377075
% es.normE (V/m) @ t=0.96
1.7016430619882243
% es.EX (V/m) @ t=0.96
1.1819721760017696
% es.EY (V/m) @ t=0.96
0.17699440104170822
% es.EZ (V/m) @ t=0.96
-1.1802495700559472
% es.tEX (V/m) @ t=0.96
1.181972176001774
% es.tEY (V/m) @ t=0.96
0
% es.tEZ (V/m) @ t=0.96
-1.1802495700559321
% es.Ex (V/m) @ t=0.96
1.1819721760017696
% es.Ey (V/m) @ t=0.96
0.17699440104170822
% es.Ez (V/m) @ t=0.96
-1.1802495700559472
% es.tEx (V/m) @ t=0.96
1.181972176001774
% es.tEy (V/m) @ t=0.96
0
% es.tEz (V/m) @ t=0.96
-1.1802495700559321
% V (V) @ t=0.96
0.0182220182099836
% es.normE (V/m) @ t=0.98
1.7166144018733207
% es.EX (V/m) @ t=0.98
1.1923712267381852
% es.EY (V/m) @ t=0.98
0.17855247784615869
% es.EZ (V/m) @ t=0.98
-1.190633399619431
% es.tEX (V/m) @ t=0.98
1.1923712267381896
% es.tEY (V/m) @ t=0.98
0
% es.tEZ (V/m) @ t=0.98
-1.1906333996194016
% es.Ex (V/m) @ t=0.98
1.1923712267381852
% es.Ey (V/m) @ t=0.98
0.17855247784615869
% es.Ez (V/m) @ t=0.98
-1.190633399619431
% es.tEx (V/m) @ t=0.98
1.1923712267381896
% es.tEy (V/m) @ t=0.98
0
% es.tEz (V/m) @ t=0.98
-1.1906333996194016
% V (V) @ t=0.98
0.018382296870590124
% es.normE (V/m) @ t=1
1.7315857417593206
% es.EX (V/m) @ t=1
1.2027702774746079
% es.EY (V/m) @ t=1
0.1801105546506407
% es.EZ (V/m) @ t=1
-1.2010172291829
% es.tEX (V/m) @ t=1
1.2027702774746123
% es.tEY (V/m) @ t=1
0
% es.tEZ (V/m) @ t=1
-1.2010172291828853
% es.Ex (V/m) @ t=1
1.2027702774746079
% es.Ey (V/m) @ t=1
0.1801105546506407
% es.Ez (V/m) @ t=1
-1.2010172291829
% es.tEx (V/m) @ t=1
1.2027702774746123
% es.tEy (V/m) @ t=1
0
% es.tEz (V/m) @ t=1
-1.2010172291828853
% V (V) @ t=1
0.018542575531196644
% es.normE (V/m) @ t=1.02
1.7465570816462015
% es.EX (V/m) @ t=1.02
1.213169328211026
% es.EY (V/m) @ t=1.02
0.18166863145511325
% es.EZ (V/m) @ t=1.02
-1.2114010587463473
% es.tEX (V/m) @ t=1.02
1.2131693282110234
% es.tEY (V/m) @ t=1.02
0
% es.tEZ (V/m) @ t=1.02
-1.2114010587463255
% es.Ex (V/m) @ t=1.02
1.213169328211026
% es.Ey (V/m) @ t=1.02
0.18166863145511325
% es.Ez (V/m) @ t=1.02
-1.2114010587463473
% es.tEx (V/m) @ t=1.02
1.2131693282110234
% es.tEy (V/m) @ t=1.02
0
% es.tEz (V/m) @ t=1.02
-1.2114010587463255
% V (V) @ t=1.02
0.01870285419180317
% es.normE (V/m) @ t=1.04
1.7620709366756777
% es.EX (V/m) @ t=1.04
1.223945266332028
% es.EY (V/m) @ t=1.04
0.1832828117820015
% es.EZ (V/m) @ t=1.04
-1.2221612513652098
% es.tEX (V/m) @ t=1.04
1.223945266332028