% Model:              1 neuron.mph
% Version:            COMSOL 6.1.0.252
% Date:               Mar 22 2023, 18:47
% Dimension:          0
% Nodes:              14017
% Expressions:        14017
% Description:        Electric field norm, Electric field, X component, Electric field, Y component, Electric field, Z component, Tangential electric field, X component, Tangential electric field, Y component, Tangential electric field, Z component, Electric field, x component, Electric field, y component, Electric field, z component, Tangential electric field, x component, Tangential electric field, y component, Tangential electric field, z component, Electric potential
% Length unit:        mm
% x
1.66
% y
12.2
% z
1.33
% es.normE (V/m) @ t=0
13.878355060832064
% es.EX (V/m) @ t=0
-7.711376392247793
% es.EY (V/m) @ t=0
-0.8323759692509514
% es.EZ (V/m) @ t=0
10.325479603893879
% es.tEX (V/m) @ t=0
-7.711376392247798
% es.tEY (V/m) @ t=0
0
% es.tEZ (V/m) @ t=0
10.325479603893868
% es.Ex (V/m) @ t=0
-7.711376392247793
% es.Ey (V/m) @ t=0
-0.8323759692509514
% es.Ez (V/m) @ t=0
10.325479603893879
% es.tEx (V/m) @ t=0
-7.711376392247798
% es.tEy (V/m) @ t=0
0
% es.tEz (V/m) @ t=0
10.325479603893868
% V (V) @ t=0
0.01139780820537661
% es.normE (V/m) @ t=0.02
11.98682896318443
% es.EX (V/m) @ t=0.02
-6.660367852746167
% es.EY (V/m) @ t=0.02
-0.7189287434639033
% es.EZ (V/m) @ t=0.02
8.918186444247027
% es.tEX (V/m) @ t=0.02
-6.660367852746173
% es.tEY (V/m) @ t=0.02
0
% es.tEZ (V/m) @ t=0.02
8.918186444247013
% es.Ex (V/m) @ t=0.02
-6.660367852746167
% es.Ey (V/m) @ t=0.02
-0.7189287434639033
% es.Ez (V/m) @ t=0.02
8.918186444247027
% es.tEx (V/m) @ t=0.02
-6.660367852746173
% es.tEy (V/m) @ t=0.02
0
% es.tEz (V/m) @ t=0.02
8.918186444247013
% V (V) @ t=0.02
0.00984436389538118
% es.normE (V/m) @ t=0.04
12.097048421030973
% es.EX (V/m) @ t=0.04
-6.7216102439881364
% es.EY (V/m) @ t=0.04
-0.7255393324388175
% es.EZ (V/m) @ t=0.04
9.000189590659692
% es.tEX (V/m) @ t=0.04
-6.721610243988157
% es.tEY (V/m) @ t=0.04
0
% es.tEZ (V/m) @ t=0.04
9.00018959065968
% es.Ex (V/m) @ t=0.04
-6.7216102439881364
% es.Ey (V/m) @ t=0.04
-0.7255393324388175
% es.Ez (V/m) @ t=0.04
9.000189590659692
% es.tEx (V/m) @ t=0.04
-6.721610243988157
% es.tEy (V/m) @ t=0.04
0
% es.tEz (V/m) @ t=0.04
9.00018959065968
% V (V) @ t=0.04
0.009934883297305347
% es.normE (V/m) @ t=0.06
12.208061693171238
% es.EX (V/m) @ t=0.06
-6.783293705434183
% es.EY (V/m) @ t=0.06
-0.732197536710935
% es.EZ (V/m) @ t=0.06
9.082783335207056
% es.tEX (V/m) @ t=0.06
-6.783293705434196
% es.tEY (V/m) @ t=0.06
0
% es.tEZ (V/m) @ t=0.06
9.082783335207045
% es.Ex (V/m) @ t=0.06
-6.783293705434183
% es.Ey (V/m) @ t=0.06
-0.732197536710935
% es.Ez (V/m) @ t=0.06
9.082783335207056
% es.tEx (V/m) @ t=0.06
-6.783293705434196
% es.tEy (V/m) @ t=0.06
0
% es.tEz (V/m) @ t=0.06
9.082783335207045
% V (V) @ t=0.06
0.010026054642246901
% es.normE (V/m) @ t=0.08
12.32122327497103
% es.EX (V/m) @ t=0.08
-6.846170838370399
% es.EY (V/m) @ t=0.08
-0.7389846052024331
% es.EZ (V/m) @ t=0.08
9.166975423532511
% es.tEX (V/m) @ t=0.08
-6.846170838370419
% es.tEY (V/m) @ t=0.08
0
% es.tEZ (V/m) @ t=0.08
9.1669754235325
% es.Ex (V/m) @ t=0.08
-6.846170838370399
% es.Ey (V/m) @ t=0.08
-0.7389846052024331
% es.Ez (V/m) @ t=0.08
9.166975423532511
% es.tEx (V/m) @ t=0.08
-6.846170838370419
% es.tEy (V/m) @ t=0.08
0
% es.tEz (V/m) @ t=0.08
9.1669754235325
% V (V) @ t=0.08
0.010118990353731256
% es.normE (V/m) @ t=0.1
12.434931586650755
% es.EX (V/m) @ t=0.1
-6.909351752406117
% es.EY (V/m) @ t=0.1
-0.7458044687422825
% es.EZ (V/m) @ t=0.1
9.251574279242751
% es.tEX (V/m) @ t=0.1
-6.90935175240614
% es.tEY (V/m) @ t=0.1
0
% es.tEZ (V/m) @ t=0.1
9.251574279242746
% es.Ex (V/m) @ t=0.1
-6.909351752406117
% es.Ey (V/m) @ t=0.1
-0.7458044687422825
% es.Ez (V/m) @ t=0.1
9.251574279242751
% es.tEx (V/m) @ t=0.1
-6.90935175240614
% es.tEy (V/m) @ t=0.1
0
% es.tEz (V/m) @ t=0.1
9.251574279242746
% V (V) @ t=0.1
0.010212375084240314
% es.normE (V/m) @ t=0.12
12.548639898330528
% es.EX (V/m) @ t=0.12
-6.972532666441886
% es.EY (V/m) @ t=0.12
-0.7526243322821529
% es.EZ (V/m) @ t=0.12
9.33617313495302
% es.tEX (V/m) @ t=0.12
-6.972532666441898
% es.tEY (V/m) @ t=0.12
0
% es.tEZ (V/m) @ t=0.12
9.336173134952997
% es.Ex (V/m) @ t=0.12
-6.972532666441886
% es.Ey (V/m) @ t=0.12
-0.7526243322821529
% es.Ez (V/m) @ t=0.12
9.33617313495302
% es.tEx (V/m) @ t=0.12
-6.972532666441898
% es.tEy (V/m) @ t=0.12
0
% es.tEz (V/m) @ t=0.12
9.336173134952997
% V (V) @ t=0.12
0.010305759814749377
% es.normE (V/m) @ t=0.14
12.665760486472458
% es.EX (V/m) @ t=0.14
-7.0376096027911
% es.EY (V/m) @ t=0.14
-0.7596488297551525
% es.EZ (V/m) @ t=0.14
9.423310714665263
% es.tEX (V/m) @ t=0.14
-7.037609602791106
% es.tEY (V/m) @ t=0.14
0
% es.tEZ (V/m) @ t=0.14
9.423310714665254
% es.Ex (V/m) @ t=0.14
-7.0376096027911
% es.Ey (V/m) @ t=0.14
-0.7596488297551525
% es.Ez (V/m) @ t=0.14
9.423310714665263
% es.tEx (V/m) @ t=0.14
-7.037609602791106
% es.tEy (V/m) @ t=0.14
0
% es.tEz (V/m) @ t=0.14
9.423310714665254
% V (V) @ t=0.14
0.010401946879252243
% es.normE (V/m) @ t=0.16
12.785151068246115
% es.EX (V/m) @ t=0.16
-7.103947855046281
% es.EY (V/m) @ t=0.16
-0.7668094585557674
% es.EZ (V/m) @ t=0.16
9.512137163196039
% es.tEX (V/m) @ t=0.16
-7.103947855046293
% es.tEY (V/m) @ t=0.16
0
% es.tEZ (V/m) @ t=0.16
9.51213716319602
% es.Ex (V/m) @ t=0.16
-7.103947855046281
% es.Ey (V/m) @ t=0.16
-0.7668094585557674
% es.Ez (V/m) @ t=0.16
9.512137163196039
% es.tEx (V/m) @ t=0.16
-7.103947855046293
% es.tEy (V/m) @ t=0.16
0
% es.tEz (V/m) @ t=0.16
9.51213716319602
% V (V) @ t=0.16
0.010499998177321864
% es.normE (V/m) @ t=0.18
12.904541650019764
% es.EX (V/m) @ t=0.18
-7.1702861073014414
% es.EY (V/m) @ t=0.18
-0.7739700873563824
% es.EZ (V/m) @ t=0.18
9.600963611726833
% es.tEX (V/m) @ t=0.18
-7.170286107301456
% es.tEY (V/m) @ t=0.18
0
% es.tEZ (V/m) @ t=0.18
9.600963611726822
% es.Ex (V/m) @ t=0.18
-7.1702861073014414
% es.Ey (V/m) @ t=0.18
-0.7739700873563824
% es.Ez (V/m) @ t=0.18
9.600963611726833
% es.tEx (V/m) @ t=0.18
-7.170286107301456
% es.tEy (V/m) @ t=0.18
0
% es.tEz (V/m) @ t=0.18
9.600963611726822
% V (V) @ t=0.18
0.010598049475391487
% es.normE (V/m) @ t=0.2
13.023932231793456
% es.EX (V/m) @ t=0.2
-7.236624359556645
% es.EY (V/m) @ t=0.2
-0.7811307161570202
% es.EZ (V/m) @ t=0.2
9.689790060257625
% es.tEX (V/m) @ t=0.2
-7.236624359556657
% es.tEY (V/m) @ t=0.2
0
% es.tEZ (V/m) @ t=0.2
9.689790060257605
% es.Ex (V/m) @ t=0.2
-7.236624359556645
% es.Ey (V/m) @ t=0.2
-0.7811307161570202
% es.Ez (V/m) @ t=0.2
9.689790060257625
% es.tEx (V/m) @ t=0.2
-7.236624359556657
% es.tEy (V/m) @ t=0.2
0
% es.tEz (V/m) @ t=0.2
9.689790060257605
% V (V) @ t=0.2
0.010696100773461113
% es.normE (V/m) @ t=0.22
13.1433228135671
% es.EX (V/m) @ t=0.22
-7.302962611811825
% es.EY (V/m) @ t=0.22
-0.7882913449576265
% es.EZ (V/m) @ t=0.22
9.778616508788389
% es.tEX (V/m) @ t=0.22
-7.302962611811832
% es.tEY (V/m) @ t=0.22
0
% es.tEZ (V/m) @ t=0.22
9.778616508788382
% es.Ex (V/m) @ t=0.22
-7.302962611811825
% es.Ey (V/m) @ t=0.22
-0.7882913449576265
% es.Ez (V/m) @ t=0.22
9.778616508788389
% es.tEx (V/m) @ t=0.22
-7.302962611811832
% es.tEy (V/m) @ t=0.22
0
% es.tEz (V/m) @ t=0.22
9.778616508788382
% V (V) @ t=0.22
0.010794152071530734
% es.normE (V/m) @ t=0.24
13.262713395340743
% es.EX (V/m) @ t=0.24
-7.369300864067
% es.EY (V/m) @ t=0.24
-0.7954519737582402
% es.EZ (V/m) @ t=0.24
9.867442957319161
% es.tEX (V/m) @ t=0.24
-7.3693008640670055
% es.tEY (V/m) @ t=0.24
0
% es.tEZ (V/m) @ t=0.24
9.867442957319158
% es.Ex (V/m) @ t=0.24
-7.369300864067
% es.Ey (V/m) @ t=0.24
-0.7954519737582402
% es.Ez (V/m) @ t=0.24
9.867442957319161
% es.tEx (V/m) @ t=0.24
-7.3693008640670055
% es.tEy (V/m) @ t=0.24
0
% es.tEz (V/m) @ t=0.24
9.867442957319158
% V (V) @ t=0.24
0.01089220336960036
% es.normE (V/m) @ t=0.26
13.384733036644995
% es.EX (V/m) @ t=0.26
-7.43709970531871
% es.EY (V/m) @ t=0.26
-0.8027705021311706
% es.EZ (V/m) @ t=0.26
9.958225476783786
% es.tEX (V/m) @ t=0.26
-7.4370997053187295
% es.tEY (V/m) @ t=0.26
0
% es.tEZ (V/m) @ t=0.26
9.958225476783774
% es.Ex (V/m) @ t=0.26
-7.43709970531871
% es.Ey (V/m) @ t=0.26
-0.8027705021311706
% es.Ez (V/m) @ t=0.26
9.958225476783786
% es.tEx (V/m) @ t=0.26
-7.4370997053187295
% es.tEy (V/m) @ t=0.26
0
% es.tEz (V/m) @ t=0.26
9.958225476783774
% V (V) @ t=0.26
0.010992414296501874
% es.normE (V/m) @ t=0.28
13.516807893943685
% es.EX (V/m) @ t=0.28
-7.510484779087465
% es.EY (V/m) @ t=0.28
-0.8106929401100409
% es.EZ (V/m) @ t=0.28
10.05648927063986
% es.tEX (V/m) @ t=0.28
-7.510484779087472
% es.tEY (V/m) @ t=0.28
0
% es.tEZ (V/m) @ t=0.28
10.056489270639853
% es.Ex (V/m) @ t=0.28
-7.510484779087465
% es.Ey (V/m) @ t=0.28
-0.8106929401100409
% es.Ez (V/m) @ t=0.28
10.05648927063986
% es.tEx (V/m) @ t=0.28
-7.510484779087472
% es.tEy (V/m) @ t=0.28
0
% es.tEz (V/m) @ t=0.28
10.056489270639853
% V (V) @ t=0.28
0.01110088503422911
% es.normE (V/m) @ t=0.3
13.648882751242557
% es.EX (V/m) @ t=0.3
-7.583869852856216
% es.EY (V/m) @ t=0.3
-0.8186153780888832
% es.EZ (V/m) @ t=0.3
10.154753064495948
% es.tEX (V/m) @ t=0.3
-7.583869852856221
% es.tEY (V/m) @ t=0.3
0
% es.tEZ (V/m) @ t=0.3
10.154753064495937
% es.Ex (V/m) @ t=0.3
-7.583869852856216
% es.Ey (V/m) @ t=0.3
-0.8186153780888832
% es.Ez (V/m) @ t=0.3
10.154753064495948
% es.tEx (V/m) @ t=0.3
-7.583869852856221
% es.tEy (V/m) @ t=0.3
0
% es.tEz (V/m) @ t=0.3
10.154753064495937
% V (V) @ t=0.3
0.011209355771956349
% es.normE (V/m) @ t=0.32
13.780957608541678
% es.EX (V/m) @ t=0.32
-7.657254926624962
% es.EY (V/m) @ t=0.32
-0.8265378160677437
% es.EZ (V/m) @ t=0.32
10.253016858352066
% es.tEX (V/m) @ t=0.32
-7.657254926624967
% es.tEY (V/m) @ t=0.32
0
% es.tEZ (V/m) @ t=0.32
10.253016858352051
% es.Ex (V/m) @ t=0.32
-7.657254926624962
% es.Ey (V/m) @ t=0.32
-0.8265378160677437
% es.Ez (V/m) @ t=0.32
10.253016858352066
% es.tEx (V/m) @ t=0.32
-7.657254926624967
% es.tEy (V/m) @ t=0.32
0
% es.tEz (V/m) @ t=0.32
10.253016858352051
% V (V) @ t=0.32
0.011317826509683588
% es.normE (V/m) @ t=0.34
13.913032465840967
% es.EX (V/m) @ t=0.34
-7.730640000393702
% es.EY (V/m) @ t=0.34
-0.8344602540466144
% es.EZ (V/m) @ t=0.34
10.351280652208139
% es.tEX (V/m) @ t=0.34
-7.730640000393709
% es.tEY (V/m) @ t=0.34
0
% es.tEZ (V/m) @ t=0.34
10.351280652208136
% es.Ex (V/m) @ t=0.34
-7.730640000393702
% es.Ey (V/m) @ t=0.34
-0.8344602540466144
% es.Ez (V/m) @ t=0.34
10.351280652208139
% es.tEx (V/m) @ t=0.34
-7.730640000393709
% es.tEy (V/m) @ t=0.34
0
% es.tEz (V/m) @ t=0.34
10.351280652208136
% V (V) @ t=0.34
0.011426297247410826
% es.normE (V/m) @ t=0.36
14.045107323140456
% es.EX (V/m) @ t=0.36
-7.804025074162446
% es.EY (V/m) @ t=0.36
-0.8423826920254744
% es.EZ (V/m) @ t=0.36
10.449544446064223
% es.tEX (V/m) @ t=0.36
-7.8040250741624515
% es.tEY (V/m) @ t=0.36
0
% es.tEZ (V/m) @ t=0.36
10.44954444606422
% es.Ex (V/m) @ t=0.36
-7.804025074162446
% es.Ey (V/m) @ t=0.36
-0.8423826920254744
% es.Ez (V/m) @ t=0.36
10.449544446064223
% es.tEx (V/m) @ t=0.36
-7.8040250741624515
% es.tEy (V/m) @ t=0.36
0
% es.tEz (V/m) @ t=0.36
10.44954444606422
% V (V) @ t=0.36
0.011534767985138063
% es.normE (V/m) @ t=0.38
14.177182180440155
% es.EX (V/m) @ t=0.38
-7.8774101479311955
% es.EY (V/m) @ t=0.38
-0.8503051300043594
% es.EZ (V/m) @ t=0.38
10.54780823992033
% es.tEX (V/m) @ t=0.38
-7.87741014793121
% es.tEY (V/m) @ t=0.38
0
% es.tEZ (V/m) @ t=0.38
10.547808239920307
% es.Ex (V/m) @ t=0.38
-7.8774101479311955
% es.Ey (V/m) @ t=0.38
-0.8503051300043594
% es.Ez (V/m) @ t=0.38
10.54780823992033
% es.tEx (V/m) @ t=0.38
-7.87741014793121
% es.tEy (V/m) @ t=0.38
0
% es.tEz (V/m) @ t=0.38
10.547808239920307
% V (V) @ t=0.38
0.011643238722865304
% es.normE (V/m) @ t=0.4
14.30925703774001
% es.EX (V/m) @ t=0.4
-7.950795221699954
% es.EY (V/m) @ t=0.4
-0.858227567983195
% es.EZ (V/m) @ t=0.4
10.646072033776386
% es.tEX (V/m) @ t=0.4
-7.950795221699966
% es.tEY (V/m) @ t=0.4
0
% es.tEZ (V/m) @ t=0.4
10.64607203377637
% es.Ex (V/m) @ t=0.4
-7.950795221699954
% es.Ey (V/m) @ t=0.4
-0.858227567983195
% es.Ez (V/m) @ t=0.4
10.646072033776386
% es.tEx (V/m) @ t=0.4
-7.950795221699966
% es.tEy (V/m) @ t=0.4
0
% es.tEz (V/m) @ t=0.4
10.64607203377637
% V (V) @ t=0.4
0.011751709460592539
% es.normE (V/m) @ t=0.42
14.441331895040097
% es.EX (V/m) @ t=0.42
-8.024180295468712
% es.EY (V/m) @ t=0.42
-0.8661500059620901
% es.EZ (V/m) @ t=0.42
10.744335827632508
% es.tEX (V/m) @ t=0.42
-8.024180295468717
% es.tEY (V/m) @ t=0.42
0
% es.tEZ (V/m) @ t=0.42
10.744335827632499
% es.Ex (V/m) @ t=0.42
-8.024180295468712
% es.Ey (V/m) @ t=0.42
-0.8661500059620901
% es.Ez (V/m) @ t=0.42
10.744335827632508
% es.tEx (V/m) @ t=0.42
-8.024180295468717
% es.tEy (V/m) @ t=0.42
0
% es.tEz (V/m) @ t=0.42
10.744335827632499
% V (V) @ t=0.42
0.01186018019831978
% es.normE (V/m) @ t=0.44
14.573406752340336
% es.EX (V/m) @ t=0.44
-8.097565369237454
% es.EY (V/m) @ t=0.44
-0.874072443940936
% es.EZ (V/m) @ t=0.44
10.842599621488606
% es.tEX (V/m) @ t=0.44
-8.097565369237469
% es.tEY (V/m) @ t=0.44
0
% es.tEZ (V/m) @ t=0.44
10.842599621488597
% es.Ex (V/m) @ t=0.44
-8.097565369237454
% es.Ey (V/m) @ t=0.44
-0.874072443940936
% es.Ez (V/m) @ t=0.44
10.842599621488606
% es.tEx (V/m) @ t=0.44
-8.097565369237469
% es.tEy (V/m) @ t=0.44
0
% es.tEz (V/m) @ t=0.44
10.842599621488597
% V (V) @ t=0.44
0.011968650936047018
% es.normE (V/m) @ t=0.46
14.705481609640707
% es.EX (V/m) @ t=0.46
-8.170950443006191
% es.EY (V/m) @ t=0.46
-0.8819948819197858
% es.EZ (V/m) @ t=0.46
10.940863415344674
% es.tEX (V/m) @ t=0.46
-8.17095044300621
% es.tEY (V/m) @ t=0.46
0
% es.tEZ (V/m) @ t=0.46
10.940863415344657
% es.Ex (V/m) @ t=0.46
-8.170950443006191
% es.Ey (V/m) @ t=0.46
-0.8819948819197858
% es.Ez (V/m) @ t=0.46
10.940863415344674
% es.tEx (V/m) @ t=0.46
-8.17095044300621
% es.tEy (V/m) @ t=0.46
0
% es.tEz (V/m) @ t=0.46
10.940863415344657
% V (V) @ t=0.46
0.012077121673774257
% es.normE (V/m) @ t=0.48
14.837556466941285
% es.EX (V/m) @ t=0.48
-8.244335516774942
% es.EY (V/m) @ t=0.48
-0.8899173198986565
% es.EZ (V/m) @ t=0.48
11.039127209200775
% es.tEX (V/m) @ t=0.48
-8.244335516774948
% es.tEY (V/m) @ t=0.48
0
% es.tEZ (V/m) @ t=0.48
11.039127209200757
% es.Ex (V/m) @ t=0.48
-8.244335516774942
% es.Ey (V/m) @ t=0.48
-0.8899173198986565
% es.Ez (V/m) @ t=0.48
11.039127209200775
% es.tEx (V/m) @ t=0.48
-8.244335516774948
% es.tEy (V/m) @ t=0.48
0
% es.tEz (V/m) @ t=0.48
11.039127209200757
% V (V) @ t=0.48
0.012185592411501496
% es.normE (V/m) @ t=0.5
14.969631324242016
% es.EX (V/m) @ t=0.5
-8.317720590543699
% es.EY (V/m) @ t=0.5
-0.8978397578775272
% es.EZ (V/m) @ t=0.5
11.13739100305686
% es.tEX (V/m) @ t=0.5
-8.317720590543711
% es.tEY (V/m) @ t=0.5
0
% es.tEZ (V/m) @ t=0.5
11.137391003056845
% es.Ex (V/m) @ t=0.5
-8.317720590543699
% es.Ey (V/m) @ t=0.5
-0.8978397578775272
% es.Ez (V/m) @ t=0.5
11.13739100305686
% es.tEx (V/m) @ t=0.5
-8.317720590543711
% es.tEy (V/m) @ t=0.5
0
% es.tEz (V/m) @ t=0.5
11.137391003056845
% V (V) @ t=0.5
0.012294063149228736
% es.normE (V/m) @ t=0.52
15.107706202987266
% es.EX (V/m) @ t=0.52
-8.394439755293757
% es.EY (V/m) @ t=0.52
-0.9061218261549948
% es.EZ (V/m) @ t=0.52
11.240118748818315
% es.tEX (V/m) @ t=0.52
-8.394439755293755
% es.tEY (V/m) @ t=0.52
0
% es.tEZ (V/m) @ t=0.52
11.240118748818311
% es.Ex (V/m) @ t=0.52
-8.394439755293757
% es.Ey (V/m) @ t=0.52
-0.9061218261549948
% es.Ez (V/m) @ t=0.52
11.240118748818315
% es.tEx (V/m) @ t=0.52
-8.394439755293755
% es.tEy (V/m) @ t=0.52
0
% es.tEz (V/m) @ t=0.52
11.240118748818311
% V (V) @ t=0.52
0.012407460993095342
% es.normE (V/m) @ t=0.54
15.25404028362558
% es.EX (V/m) @ t=0.54
-8.475748392064778
% es.EY (V/m) @ t=0.54
-0.9148989358704149
% es.EZ (V/m) @ t=0.54
11.348991252622554
% es.tEX (V/m) @ t=0.54
-8.475748392064805
% es.tEY (V/m) @ t=0.54
0
% es.tEZ (V/m) @ t=0.54
11.348991252622548
% es.Ex (V/m) @ t=0.54
-8.475748392064778
% es.Ey (V/m) @ t=0.54
-0.9148989358704149
% es.Ez (V/m) @ t=0.54
11.348991252622554
% es.tEx (V/m) @ t=0.54
-8.475748392064805
% es.tEy (V/m) @ t=0.54
0
% es.tEz (V/m) @ t=0.54
11.348991252622548
% V (V) @ t=0.54
0.012527641140113776
% es.normE (V/m) @ t=0.56
15.4003743642639
% es.EX (V/m) @ t=0.56
-8.557057028835784
% es.EY (V/m) @ t=0.56
-0.9236760455858244
% es.EZ (V/m) @ t=0.56
11.457863756426793
% es.tEX (V/m) @ t=0.56
-8.55705702883579
% es.tEY (V/m) @ t=0.56
0
% es.tEZ (V/m) @ t=0.56
11.457863756426786
% es.Ex (V/m) @ t=0.56
-8.557057028835784
% es.Ey (V/m) @ t=0.56
-0.9236760455858244
% es.Ez (V/m) @ t=0.56
11.457863756426793
% es.tEx (V/m) @ t=0.56
-8.55705702883579
% es.tEy (V/m) @ t=0.56
0
% es.tEz (V/m) @ t=0.56
11.457863756426786
% V (V) @ t=0.56
0.012647821287132209
% es.normE (V/m) @ t=0.58
15.54670844490224
% es.EX (V/m) @ t=0.58
-8.638365665606827
% es.EY (V/m) @ t=0.58
-0.9324531553012116
% es.EZ (V/m) @ t=0.58
11.566736260230991
% es.tEX (V/m) @ t=0.58
-8.638365665606846
% es.tEY (V/m) @ t=0.58
0
% es.tEZ (V/m) @ t=0.58
11.566736260230979
% es.Ex (V/m) @ t=0.58
-8.638365665606827
% es.Ey (V/m) @ t=0.58
-0.9324531553012116
% es.Ez (V/m) @ t=0.58
11.566736260230991
% es.tEx (V/m) @ t=0.58
-8.638365665606846
% es.tEy (V/m) @ t=0.58
0
% es.tEz (V/m) @ t=0.58
11.566736260230979
% V (V) @ t=0.58
0.01276800143415064
% es.normE (V/m) @ t=0.6
15.693042525540601
% es.EX (V/m) @ t=0.6
-8.719674302377877
% es.EY (V/m) @ t=0.6
-0.9412302650165891
% es.EZ (V/m) @ t=0.6
11.675608764035202
% es.tEX (V/m) @ t=0.6
-8.719674302377875
% es.tEY (V/m) @ t=0.6
0
% es.tEZ (V/m) @ t=0.6
11.675608764035182
% es.Ex (V/m) @ t=0.6
-8.719674302377877
% es.Ey (V/m) @ t=0.6
-0.9412302650165891
% es.Ez (V/m) @ t=0.6
11.675608764035202
% es.tEx (V/m) @ t=0.6
-8.719674302377875
% es.tEy (V/m) @ t=0.6
0
% es.tEz (V/m) @ t=0.6
11.675608764035182
% V (V) @ t=0.6
0.012888181581169075
% es.normE (V/m) @ t=0.62
15.839376606178991
% es.EX (V/m) @ t=0.62
-8.800982939148874
% es.EY (V/m) @ t=0.62
-0.9500073747319737
% es.EZ (V/m) @ t=0.62
11.784481267839436
% es.tEX (V/m) @ t=0.62
-8.800982939148879
% es.tEY (V/m) @ t=0.62
0
% es.tEZ (V/m) @ t=0.62
11.784481267839425
% es.Ex (V/m) @ t=0.62
-8.800982939148874
% es.Ey (V/m) @ t=0.62
-0.9500073747319737
% es.Ez (V/m) @ t=0.62
11.784481267839436
% es.tEx (V/m) @ t=0.62
-8.800982939148879
% es.tEy (V/m) @ t=0.62
0
% es.tEz (V/m) @ t=0.62
11.784481267839425
% V (V) @ t=0.62
0.013008361728187506
% es.normE (V/m) @ t=0.64
15.98571068681741
% es.EX (V/m) @ t=0.64
-8.88229157591991
% es.EY (V/m) @ t=0.64
-0.9587844844473548
% es.EZ (V/m) @ t=0.64
11.893353771643673
% es.tEX (V/m) @ t=0.64
-8.882291575919915
% es.tEY (V/m) @ t=0.64
0
% es.tEZ (V/m) @ t=0.64
11.893353771643657
% es.Ex (V/m) @ t=0.64
-8.88229157591991
% es.Ey (V/m) @ t=0.64
-0.9587844844473548
% es.Ez (V/m) @ t=0.64
11.893353771643673
% es.tEx (V/m) @ t=0.64
-8.882291575919915
% es.tEy (V/m) @ t=0.64
0
% es.tEz (V/m) @ t=0.64
11.893353771643657
% V (V) @ t=0.64
0.013128541875205943
% es.normE (V/m) @ t=0.66
16.132044767455838
% es.EX (V/m) @ t=0.66
-8.963600212690924
% es.EY (V/m) @ t=0.66
-0.9675615941627393
% es.EZ (V/m) @ t=0.66
12.002226275447908
% es.tEX (V/m) @ t=0.66
-8.963600212690944
% es.tEY (V/m) @ t=0.66
0
% es.tEZ (V/m) @ t=0.66
12.002226275447887
% es.Ex (V/m) @ t=0.66
-8.963600212690924
% es.Ey (V/m) @ t=0.66
-0.9675615941627393
% es.Ez (V/m) @ t=0.66
12.002226275447908
% es.tEx (V/m) @ t=0.66
-8.963600212690944
% es.tEy (V/m) @ t=0.66
0
% es.tEz (V/m) @ t=0.66
12.002226275447887
% V (V) @ t=0.66
0.013248722022224376
% es.normE (V/m) @ t=0.68
16.278378848094277
% es.EX (V/m) @ t=0.68
-9.04490884946198
% es.EY (V/m) @ t=0.68
-0.9763387038781692
% es.EZ (V/m) @ t=0.68
12.111098779252098
% es.tEX (V/m) @ t=0.68
-9.044908849461992
% es.tEY (V/m) @ t=0.68
0
% es.tEZ (V/m) @ t=0.68
12.111098779252082
% es.Ex (V/m) @ t=0.68
-9.04490884946198
% es.Ey (V/m) @ t=0.68
-0.9763387038781692
% es.Ez (V/m) @ t=0.68
12.111098779252098
% es.tEx (V/m) @ t=0.68
-9.044908849461992
% es.tEy (V/m) @ t=0.68
0
% es.tEz (V/m) @ t=0.68
12.111098779252082
% V (V) @ t=0.68
0.01336890216924281
% es.normE (V/m) @ t=0.7
16.42471292873274
% es.EX (V/m) @ t=0.7
-9.12621748623298
% es.EY (V/m) @ t=0.7
-0.9851158135935569
% es.EZ (V/m) @ t=0.7
12.219971283056339
% es.tEX (V/m) @ t=0.7
-9.126217486233
% es.tEY (V/m) @ t=0.7
0
% es.tEZ (V/m) @ t=0.7
12.21997128305632
% es.Ex (V/m) @ t=0.7
-9.12621748623298
% es.Ey (V/m) @ t=0.7
-0.9851158135935569
% es.Ez (V/m) @ t=0.7
12.219971283056339
% es.tEx (V/m) @ t=0.7
-9.126217486233
% es.tEy (V/m) @ t=0.7
0
% es.tEz (V/m) @ t=0.7
12.21997128305632
% V (V) @ t=0.7
0.013489082316261242
% es.normE (V/m) @ t=0.72
16.571047009371238
% es.EX (V/m) @ t=0.72
-9.207526123004028
% es.EY (V/m) @ t=0.72
-0.9938929233089486
% es.EZ (V/m) @ t=0.72
12.328843786860569
% es.tEX (V/m) @ t=0.72
-9.207526123004033
% es.tEY (V/m) @ t=0.72
0
% es.tEZ (V/m) @ t=0.72
12.328843786860553
% es.Ex (V/m) @ t=0.72
-9.207526123004028
% es.Ey (V/m) @ t=0.72
-0.9938929233089486
% es.Ez (V/m) @ t=0.72
12.328843786860569
% es.tEx (V/m) @ t=0.72
-9.207526123004033
% es.tEy (V/m) @ t=0.72
0
% es.tEz (V/m) @ t=0.72
12.328843786860553
% V (V) @ t=0.72
0.013609262463279675
% es.normE (V/m) @ t=0.74
16.717381090009745
% es.EX (V/m) @ t=0.74
-9.288834759775014
% es.EY (V/m) @ t=0.74
-1.0026700330243474
% es.EZ (V/m) @ t=0.74
12.437716290664818
% es.tEX (V/m) @ t=0.74
-9.288834759775026
% es.tEY (V/m) @ t=0.74
0
% es.tEZ (V/m) @ t=0.74
12.437716290664797
% es.Ex (V/m) @ t=0.74
-9.288834759775014
% es.Ey (V/m) @ t=0.74
-1.0026700330243474
% es.Ez (V/m) @ t=0.74
12.437716290664818
% es.tEx (V/m) @ t=0.74
-9.288834759775026
% es.tEy (V/m) @ t=0.74
0
% es.tEz (V/m) @ t=0.74
12.437716290664797
% V (V) @ t=0.74
0.013729442610298107
% es.normE (V/m) @ t=0.76
16.863715170648284
% es.EX (V/m) @ t=0.76
-9.37014339654607
% es.EY (V/m) @ t=0.76
-1.0114471427397391
% es.EZ (V/m) @ t=0.76
12.546588794469033
% es.tEX (V/m) @ t=0.76
-9.370143396546087
% es.tEY (V/m) @ t=0.76
0
% es.tEZ (V/m) @ t=0.76
12.546588794469013
% es.Ex (V/m) @ t=0.76
-9.37014339654607
% es.Ey (V/m) @ t=0.76
-1.0114471427397391
% es.Ez (V/m) @ t=0.76
12.546588794469033
% es.tEx (V/m) @ t=0.76
-9.370143396546087
% es.tEy (V/m) @ t=0.76
0
% es.tEz (V/m) @ t=0.76
12.546588794469013
% V (V) @ t=0.76
0.013849622757316542
% es.normE (V/m) @ t=0.78
17.02023450167505
% es.EX (V/m) @ t=0.78
-9.457111670434584
% es.EY (V/m) @ t=0.78
-1.0208348367102795
% es.EZ (V/m) @ t=0.78
12.663039040196882
% es.tEX (V/m) @ t=0.78
-9.45711167043461
% es.tEY (V/m) @ t=0.78
0
% es.tEZ (V/m) @ t=0.78
12.663039040196853
% es.Ex (V/m) @ t=0.78
-9.457111670434584
% es.Ey (V/m) @ t=0.78
-1.0208348367102795
% es.Ez (V/m) @ t=0.78
12.663039040196882
% es.tEx (V/m) @ t=0.78
-9.45711167043461
% es.tEy (V/m) @ t=0.78
0
% es.tEz (V/m) @ t=0.78
12.663039040196853
% V (V) @ t=0.78
0.01397816705883366
% es.normE (V/m) @ t=0.8
17.182626190169202
% es.EX (V/m) @ t=0.8
-9.547343036640155
% es.EY (V/m) @ t=0.8
-1.0305745661118788
% es.EZ (V/m) @ t=0.8
12.783858271239263
% es.tEX (V/m) @ t=0.8
-9.547343036640182
% es.tEY (V/m) @ t=0.8
0
% es.tEZ (V/m) @ t=0.8
12.783858271239243
% es.Ex (V/m) @ t=0.8
-9.547343036640155
% es.Ey (V/m) @ t=0.8
-1.0305745661118788
% es.Ez (V/m) @ t=0.8
12.783858271239263
% es.tEx (V/m) @ t=0.8
-9.547343036640182
% es.tEy (V/m) @ t=0.8
0
% es.tEz (V/m) @ t=0.8
12.783858271239243
% V (V) @ t=0.8
0.014111533755800683
% es.normE (V/m) @ t=0.82
17.345017878663377
% es.EX (V/m) @ t=0.82
-9.637574402845754
% es.EY (V/m) @ t=0.82
-1.0403142955134559
% es.EZ (V/m) @ t=0.82
12.904677502281658
% es.tEX (V/m) @ t=0.82
-9.637574402845773
% es.tEY (V/m) @ t=0.82
0
% es.tEZ (V/m) @ t=0.82
12.904677502281633
% es.Ex (V/m) @ t=0.82
-9.637574402845754
% es.Ey (V/m) @ t=0.82
-1.0403142955134559
% es.Ez (V/m) @ t=0.82
12.904677502281658
% es.tEx (V/m) @ t=0.82
-9.637574402845773
% es.tEy (V/m) @ t=0.82
0
% es.tEz (V/m) @ t=0.82
12.904677502281633
% V (V) @ t=0.82
0.014244900452767707
% es.normE (V/m) @ t=0.84
17.507409567157524
% es.EX (V/m) @ t=0.84
-9.727805769051338
% es.EY (V/m) @ t=0.84
-1.0500540249150019
% es.EZ (V/m) @ t=0.84
13.025496733324038
% es.tEX (V/m) @ t=0.84
-9.72780576905135
% es.tEY (V/m) @ t=0.84
0
% es.tEZ (V/m) @ t=0.84
13.025496733324022
% es.Ex (V/m) @ t=0.84
-9.727805769051338
% es.Ey (V/m) @ t=0.84
-1.0500540249150019
% es.Ez (V/m) @ t=0.84
13.025496733324038
% es.tEx (V/m) @ t=0.84
-9.72780576905135
% es.tEy (V/m) @ t=0.84
0
% es.tEz (V/m) @ t=0.84
13.025496733324022
% V (V) @ t=0.84
0.014378267149734725
% es.normE (V/m) @ t=0.86
17.669801255651684
% es.EX (V/m) @ t=0.86
-9.818037135256903
% es.EY (V/m) @ t=0.86
-1.0597937543166296
% es.EZ (V/m) @ t=0.86
13.146315964366407
% es.tEX (V/m) @ t=0.86
-9.818037135256922
% es.tEY (V/m) @ t=0.86
0
% es.tEZ (V/m) @ t=0.86
13.14631596436638
% es.Ex (V/m) @ t=0.86
-9.818037135256903
% es.Ey (V/m) @ t=0.86
-1.0597937543166296
% es.Ez (V/m) @ t=0.86
13.146315964366407
% es.tEx (V/m) @ t=0.86
-9.818037135256922
% es.tEy (V/m) @ t=0.86
0
% es.tEz (V/m) @ t=0.86
13.14631596436638
% V (V) @ t=0.86
0.014511633846701748
% es.normE (V/m) @ t=0.88
17.832192944145852
% es.EX (V/m) @ t=0.88
-9.908268501462487
% es.EY (V/m) @ t=0.88
-1.0695334837182
% es.EZ (V/m) @ t=0.88
13.267135195408798
% es.tEX (V/m) @ t=0.88
-9.908268501462507
% es.tEY (V/m) @ t=0.88
0
% es.tEZ (V/m) @ t=0.88
13.267135195408777
% es.Ex (V/m) @ t=0.88
-9.908268501462487
% es.Ey (V/m) @ t=0.88
-1.0695334837182
% es.Ez (V/m) @ t=0.88
13.267135195408798
% es.tEx (V/m) @ t=0.88
-9.908268501462507
% es.tEy (V/m) @ t=0.88
0
% es.tEz (V/m) @ t=0.88
13.267135195408777
% V (V) @ t=0.88
0.014645000543668775
% es.normE (V/m) @ t=0.9
17.994584632640027
% es.EX (V/m) @ t=0.9
-9.99849986766809
% es.EY (V/m) @ t=0.9
-1.0792732131197527
% es.EZ (V/m) @ t=0.9
13.387954426451175
% es.tEX (V/m) @ t=0.9
-9.9984998676681
% es.tEY (V/m) @ t=0.9
0
% es.tEZ (V/m) @ t=0.9
13.387954426451158
% es.Ex (V/m) @ t=0.9
-9.99849986766809
% es.Ey (V/m) @ t=0.9
-1.0792732131197527
% es.Ez (V/m) @ t=0.9
13.387954426451175
% es.tEx (V/m) @ t=0.9
-9.9984998676681
% es.tEy (V/m) @ t=0.9
0
% es.tEz (V/m) @ t=0.9
13.387954426451158
% V (V) @ t=0.9
0.014778367240635798
% es.normE (V/m) @ t=0.92
18.156976321134188
% es.EX (V/m) @ t=0.92
-10.088731233873666
% es.EY (V/m) @ t=0.92
-1.0890129425213484
% es.EZ (V/m) @ t=0.92
13.50877365749354
% es.tEX (V/m) @ t=0.92
-10.088731233873672
% es.tEY (V/m) @ t=0.92
0
% es.tEZ (V/m) @ t=0.92
13.508773657493515
% es.Ex (V/m) @ t=0.92
-10.088731233873666
% es.Ey (V/m) @ t=0.92
-1.0890129425213484
% es.Ez (V/m) @ t=0.92
13.50877365749354
% es.tEx (V/m) @ t=0.92
-10.088731233873672
% es.tEy (V/m) @ t=0.92
0
% es.tEz (V/m) @ t=0.92
13.508773657493515
% V (V) @ t=0.92
0.014911733937602818
% es.normE (V/m) @ t=0.94
18.31936800962837
% es.EX (V/m) @ t=0.94
-10.178962600079222
% es.EY (V/m) @ t=0.94
-1.0987526719229082
% es.EZ (V/m) @ t=0.94
13.629592888535946
% es.tEX (V/m) @ t=0.94
-10.178962600079242
% es.tEY (V/m) @ t=0.94
0
% es.tEZ (V/m) @ t=0.94
13.629592888535926
% es.Ex (V/m) @ t=0.94
-10.178962600079222
% es.Ey (V/m) @ t=0.94
-1.0987526719229082
% es.Ez (V/m) @ t=0.94
13.629592888535946
% es.tEx (V/m) @ t=0.94
-10.178962600079242
% es.tEy (V/m) @ t=0.94
0
% es.tEz (V/m) @ t=0.94
13.629592888535926
% V (V) @ t=0.94
0.01504510063456984
% es.normE (V/m) @ t=0.96
18.48175969812258
% es.EX (V/m) @ t=0.96
-10.269193966284835
% es.EY (V/m) @ t=0.96
-1.1084924013245177
% es.EZ (V/m) @ t=0.96
13.750412119578339
% es.tEX (V/m) @ t=0.96
-10.269193966284847
% es.tEY (V/m) @ t=0.96
0
% es.tEZ (V/m) @ t=0.96
13.750412119578334
% es.Ex (V/m) @ t=0.96
-10.269193966284835
% es.Ey (V/m) @ t=0.96
-1.1084924013245177
% es.Ez (V/m) @ t=0.96
13.750412119578339
% es.tEx (V/m) @ t=0.96
-10.269193966284847
% es.tEy (V/m) @ t=0.96
0
% es.tEz (V/m) @ t=0.96
13.750412119578334
% V (V) @ t=0.96
0.015178467331536863
% es.normE (V/m) @ t=0.98
18.644151386616706
% es.EX (V/m) @ t=0.98
-10.359425332490378
% es.EY (V/m) @ t=0.98
-1.1182321307260992
% es.EZ (V/m) @ t=0.98
13.871231350620695
% es.tEX (V/m) @ t=0.98
-10.35942533249039
% es.tEY (V/m) @ t=0.98
0
% es.tEZ (V/m) @ t=0.98
13.871231350620679
% es.Ex (V/m) @ t=0.98
-10.359425332490378
% es.Ey (V/m) @ t=0.98
-1.1182321307260992
% es.Ez (V/m) @ t=0.98
13.871231350620695
% es.tEx (V/m) @ t=0.98
-10.35942533249039
% es.tEy (V/m) @ t=0.98
0
% es.tEz (V/m) @ t=0.98
13.871231350620679
% V (V) @ t=0.98
0.015311834028503887
% es.normE (V/m) @ t=1
18.806543075110916
% es.EX (V/m) @ t=1
-10.449656698695986
% es.EY (V/m) @ t=1
-1.1279718601276416
% es.EZ (V/m) @ t=1
13.9920505816631
% es.tEX (V/m) @ t=1
-10.449656698696005
% es.tEY (V/m) @ t=1
0
% es.tEZ (V/m) @ t=1
13.992050581663067
% es.Ex (V/m) @ t=1
-10.449656698695986
% es.Ey (V/m) @ t=1
-1.1279718601276416
% es.Ez (V/m) @ t=1
13.9920505816631
% es.tEx (V/m) @ t=1
-10.449656698696005
% es.tEy (V/m) @ t=1
0
% es.tEz (V/m) @ t=1
13.992050581663067
% V (V) @ t=1
0.015445200725470908
% es.normE (V/m) @ t=1.02
18.96893476360512
% es.EX (V/m) @ t=1.02
-10.539888064901564
% es.EY (V/m) @ t=1.02
-1.1377115895292471
% es.EZ (V/m) @ t=1.02
14.112869812705485
% es.tEX (V/m) @ t=1.02
-10.53988806490157
% es.tEY (V/m) @ t=1.02
0
% es.tEZ (V/m) @ t=1.02
14.112869812705474
% es.Ex (V/m) @ t=1.02
-10.539888064901564
% es.Ey (V/m) @ t=1.02
-1.1377115895292471
% es.Ez (V/m) @ t=1.02
14.112869812705485
% es.tEx (V/m) @ t=1.02
-10.53988806490157
% es.tEy (V/m) @ t=1.02
0
% es.tEz (V/m) @ t=1.02
14.112869812705474
% V (V) @ t=1.02
0.015578567422437932
% es.normE (V/m) @ t=1.04
19.1380128297249
% es.EX (V/m) @ t=1.04
-10.633834903674721
% es.EY (V/m) @ t=1.04
-1.1478521006187852
% es.EZ (V/m) @ t=1.04
14.238663640382383
% es.tEX (V/m) @ t=1.04
-10.63383490367474
% es.tEY (V/m) @ t=1.04
0
% es.tEZ (V/m) @ t=1.04
14.238663640382368
% es.Ex (V/m) @ t=1.04
-10.633834903674721
% es.Ey (V/m) @ t=1.04
-1.1478521006187852
% es.Ez (V/m) @ t=1.04
14.238663640382383
% es.tEx (V/m) @ t=1.04