% Model:              1 neuron.mph
% Version:            COMSOL 6.1.0.252
% Date:               Mar 22 2023, 18:55
% Dimension:          0
% Nodes:              14017
% Expressions:        14017
% Description:        Electric field norm, Electric field, X component, Electric field, Y component, Electric field, Z component, Tangential electric field, X component, Tangential electric field, Y component, Tangential electric field, Z component, Electric field, x component, Electric field, y component, Electric field, z component, Tangential electric field, x component, Tangential electric field, y component, Tangential electric field, z component, Electric potential
% Length unit:        mm
% x
1.33
% y
12.2
% z
1
% es.normE (V/m) @ t=0
2.838950697405032
% es.EX (V/m) @ t=0
0.8762793318355999
% es.EY (V/m) @ t=0
0.21229073842099222
% es.EZ (V/m) @ t=0
2.691951618744249
% es.tEX (V/m) @ t=0
0.8762793318356117
% es.tEY (V/m) @ t=0
0
% es.tEZ (V/m) @ t=0
2.691951618744266
% es.Ex (V/m) @ t=0
0.8762793318355999
% es.Ey (V/m) @ t=0
0.21229073842099222
% es.Ez (V/m) @ t=0
2.691951618744249
% es.tEx (V/m) @ t=0
0.8762793318356117
% es.tEy (V/m) @ t=0
0
% es.tEz (V/m) @ t=0
2.691951618744266
% V (V) @ t=0
0.013277847764790955
% es.normE (V/m) @ t=0.02
2.45204126851419
% es.EX (V/m) @ t=0.02
0.7568546714485229
% es.EY (V/m) @ t=0.02
0.18335846807022316
% es.EZ (V/m) @ t=0.02
2.325076114879629
% es.tEX (V/m) @ t=0.02
0.7568546714485223
% es.tEY (V/m) @ t=0.02
0
% es.tEZ (V/m) @ t=0.02
2.3250761148796304
% es.Ex (V/m) @ t=0.02
0.7568546714485229
% es.Ey (V/m) @ t=0.02
0.18335846807022316
% es.Ez (V/m) @ t=0.02
2.325076114879629
% es.tEx (V/m) @ t=0.02
0.7568546714485223
% es.tEy (V/m) @ t=0.02
0
% es.tEz (V/m) @ t=0.02
2.3250761148796304
% V (V) @ t=0.02
0.011468261813848279
% es.normE (V/m) @ t=0.04
2.474609117154667
% es.EX (V/m) @ t=0.04
0.7638205327026479
% es.EY (V/m) @ t=0.04
0.1850460442738533
% es.EZ (V/m) @ t=0.04
2.346475414828874
% es.tEX (V/m) @ t=0.04
0.7638205327026526
% es.tEY (V/m) @ t=0.04
0
% es.tEZ (V/m) @ t=0.04
2.3464754148288716
% es.Ex (V/m) @ t=0.04
0.7638205327026479
% es.Ey (V/m) @ t=0.04
0.1850460442738533
% es.Ez (V/m) @ t=0.04
2.346475414828874
% es.tEx (V/m) @ t=0.04
0.7638205327026526
% es.tEy (V/m) @ t=0.04
0
% es.tEz (V/m) @ t=0.04
2.3464754148288716
% V (V) @ t=0.04
0.01157381229606843
% es.normE (V/m) @ t=0.06
2.4973389779327326
% es.EX (V/m) @ t=0.06
0.7708363983307933
% es.EY (V/m) @ t=0.06
0.18674573517346926
% es.EZ (V/m) @ t=0.06
2.3680283389544807
% es.tEX (V/m) @ t=0.06
0.7708363983307933
% es.tEY (V/m) @ t=0.06
0
% es.tEZ (V/m) @ t=0.06
2.3680283389544847
% es.Ex (V/m) @ t=0.06
0.7708363983307933
% es.Ey (V/m) @ t=0.06
0.18674573517346926
% es.Ez (V/m) @ t=0.06
2.3680283389544807
% es.tEx (V/m) @ t=0.06
0.7708363983307933
% es.tEy (V/m) @ t=0.06
0
% es.tEz (V/m) @ t=0.06
2.3680283389544847
% V (V) @ t=0.06
0.011680120702357414
% es.normE (V/m) @ t=0.08
2.520510013098333
% es.EX (V/m) @ t=0.08
0.7779884354824406
% es.EY (V/m) @ t=0.08
0.1884784160723605
% es.EZ (V/m) @ t=0.08
2.389999594629923
% es.tEX (V/m) @ t=0.08
0.7779884354824418
% es.tEY (V/m) @ t=0.08
0
% es.tEZ (V/m) @ t=0.08
2.389999594629934
% es.Ex (V/m) @ t=0.08
0.7779884354824406
% es.Ey (V/m) @ t=0.08
0.1884784160723605
% es.Ez (V/m) @ t=0.08
2.389999594629923
% es.tEx (V/m) @ t=0.08
0.7779884354824418
% es.tEy (V/m) @ t=0.08
0
% es.tEz (V/m) @ t=0.08
2.389999594629934
% V (V) @ t=0.08
0.01178849267413705
% es.normE (V/m) @ t=0.1
2.5437911580975676
% es.EX (V/m) @ t=0.1
0.7851744587951637
% es.EY (V/m) @ t=0.1
0.19021933072971553
% es.EZ (V/m) @ t=0.1
2.412075258944346
% es.tEX (V/m) @ t=0.1
0.7851744587951615
% es.tEY (V/m) @ t=0.1
0
% es.tEZ (V/m) @ t=0.1
2.412075258944352
% es.Ex (V/m) @ t=0.1
0.7851744587951637
% es.Ey (V/m) @ t=0.1
0.19021933072971553
% es.Ez (V/m) @ t=0.1
2.412075258944346
% es.tEx (V/m) @ t=0.1
0.7851744587951615
% es.tEy (V/m) @ t=0.1
0
% es.tEz (V/m) @ t=0.1
2.412075258944352
% V (V) @ t=0.1
0.01189737967774838
% es.normE (V/m) @ t=0.12
2.56707230309683
% es.EX (V/m) @ t=0.12
0.7923604821078943
% es.EY (V/m) @ t=0.12
0.19196024538707723
% es.EZ (V/m) @ t=0.12
2.434150923258795
% es.tEX (V/m) @ t=0.12
0.7923604821078882
% es.tEY (V/m) @ t=0.12
0
% es.tEZ (V/m) @ t=0.12
2.4341509232588
% es.Ex (V/m) @ t=0.12
0.7923604821078943
% es.Ey (V/m) @ t=0.12
0.19196024538707723
% es.Ez (V/m) @ t=0.12
2.434150923258795
% es.tEx (V/m) @ t=0.12
0.7923604821078882
% es.tEy (V/m) @ t=0.12
0
% es.tEz (V/m) @ t=0.12
2.4341509232588
% V (V) @ t=0.12
0.012006266681359706
% es.normE (V/m) @ t=0.14
2.591058942495689
% es.EX (V/m) @ t=0.14
0.7997642659636981
% es.EY (V/m) @ t=0.14
0.19375391541476816
% es.EZ (V/m) @ t=0.14
2.4568955517711433
% es.tEX (V/m) @ t=0.14
0.7997642659637023
% es.tEY (V/m) @ t=0.14
0
% es.tEZ (V/m) @ t=0.14
2.4568955517711455
% es.Ex (V/m) @ t=0.14
0.7997642659636981
% es.Ey (V/m) @ t=0.14
0.19375391541476816
% es.Ez (V/m) @ t=0.14
2.4568955517711433
% es.tEx (V/m) @ t=0.14
0.7997642659637023
% es.tEy (V/m) @ t=0.14
0
% es.tEz (V/m) @ t=0.14
2.4568955517711455
% V (V) @ t=0.14
0.012118453270216623
% es.normE (V/m) @ t=0.16
2.6155027910904183
% es.EX (V/m) @ t=0.16
0.8073091737218994
% es.EY (V/m) @ t=0.16
0.19558177457342663
% es.EZ (V/m) @ t=0.16
2.480073715380531
% es.tEX (V/m) @ t=0.16
0.8073091737219045
% es.tEY (V/m) @ t=0.16
0
% es.tEZ (V/m) @ t=0.16
2.4800737153805485
% es.Ex (V/m) @ t=0.16
0.8073091737218994
% es.Ey (V/m) @ t=0.16
0.19558177457342663
% es.Ez (V/m) @ t=0.16
2.480073715380531
% es.tEx (V/m) @ t=0.16
0.8073091737219045
% es.tEy (V/m) @ t=0.16
0
% es.tEz (V/m) @ t=0.16
2.4800737153805485
% V (V) @ t=0.16
0.012232778218666043
% es.normE (V/m) @ t=0.18
2.6399466396851503
% es.EX (V/m) @ t=0.18
0.8148540814801002
% es.EY (V/m) @ t=0.18
0.19740963373213805
% es.EZ (V/m) @ t=0.18
2.503251878989917
% es.tEX (V/m) @ t=0.18
0.8148540814801066
% es.tEY (V/m) @ t=0.18
0
% es.tEZ (V/m) @ t=0.18
2.503251878989923
% es.Ex (V/m) @ t=0.18
0.8148540814801002
% es.Ey (V/m) @ t=0.18
0.19740963373213805
% es.Ez (V/m) @ t=0.18
2.503251878989917
% es.tEx (V/m) @ t=0.18
0.8148540814801066
% es.tEy (V/m) @ t=0.18
0
% es.tEz (V/m) @ t=0.18
2.503251878989923
% V (V) @ t=0.18
0.012347103167115465
% es.normE (V/m) @ t=0.2
2.6643904882798926
% es.EX (V/m) @ t=0.2
0.8223989892383068
% es.EY (V/m) @ t=0.2
0.19923749289082548
% es.EZ (V/m) @ t=0.2
2.526430042599314
% es.tEX (V/m) @ t=0.2
0.8223989892383159
% es.tEY (V/m) @ t=0.2
0
% es.tEZ (V/m) @ t=0.2
2.526430042599298
% es.Ex (V/m) @ t=0.2
0.8223989892383068
% es.Ey (V/m) @ t=0.2
0.19923749289082548
% es.Ez (V/m) @ t=0.2
2.526430042599314
% es.tEx (V/m) @ t=0.2
0.8223989892383159
% es.tEy (V/m) @ t=0.2
0
% es.tEz (V/m) @ t=0.2
2.526430042599298
% V (V) @ t=0.2
0.012461428115564888
% es.normE (V/m) @ t=0.22
2.688834336874618
% es.EX (V/m) @ t=0.22
0.8299438969965116
% es.EY (V/m) @ t=0.22
0.20106535204950116
% es.EZ (V/m) @ t=0.22
2.5496082062086947
% es.tEX (V/m) @ t=0.22
0.8299438969965252
% es.tEY (V/m) @ t=0.22
0
% es.tEZ (V/m) @ t=0.22
2.549608206208701
% es.Ex (V/m) @ t=0.22
0.8299438969965116
% es.Ey (V/m) @ t=0.22
0.20106535204950116
% es.Ez (V/m) @ t=0.22
2.5496082062086947
% es.tEx (V/m) @ t=0.22
0.8299438969965252
% es.tEy (V/m) @ t=0.22
0
% es.tEz (V/m) @ t=0.22
2.549608206208701
% V (V) @ t=0.22
0.01257575306401431
% es.normE (V/m) @ t=0.24
2.7132781854693624
% es.EX (V/m) @ t=0.24
0.8374888047547344
% es.EY (V/m) @ t=0.24
0.20289321120820947
% es.EZ (V/m) @ t=0.24
2.5727863698180866
% es.tEX (V/m) @ t=0.24
0.8374888047547344
% es.tEY (V/m) @ t=0.24
0
% es.tEZ (V/m) @ t=0.24
2.5727863698180915
% es.Ex (V/m) @ t=0.24
0.8374888047547344
% es.Ey (V/m) @ t=0.24
0.20289321120820947
% es.Ez (V/m) @ t=0.24
2.5727863698180866
% es.tEx (V/m) @ t=0.24
0.8374888047547344
% es.tEy (V/m) @ t=0.24
0
% es.tEz (V/m) @ t=0.24
2.5727863698180915
% V (V) @ t=0.24
0.012690078012463732
% es.normE (V/m) @ t=0.26
2.738291731436531
% es.EX (V/m) @ t=0.26
0.8452096155493334
% es.EY (V/m) @ t=0.26
0.20476367354610125
% es.EZ (V/m) @ t=0.26
2.5965047130523797
% es.tEX (V/m) @ t=0.26
0.8452096155493365
% es.tEY (V/m) @ t=0.26
0
% es.tEZ (V/m) @ t=0.26
2.596504713052399
% es.Ex (V/m) @ t=0.26
0.8452096155493334
% es.Ey (V/m) @ t=0.26
0.20476367354610125
% es.Ez (V/m) @ t=0.26
2.5965047130523797
% es.tEx (V/m) @ t=0.26
0.8452096155493365
% es.tEy (V/m) @ t=0.26
0
% es.tEz (V/m) @ t=0.26
2.596504713052399
% V (V) @ t=0.26
0.012807063583051777
% es.normE (V/m) @ t=0.28
2.7653277225564405
% es.EX (V/m) @ t=0.28
0.8535548881380579
% es.EY (V/m) @ t=0.28
0.20678537862695157
% es.EZ (V/m) @ t=0.28
2.6221407124263196
% es.tEX (V/m) @ t=0.28
0.8535548881380564
% es.tEY (V/m) @ t=0.28
0
% es.tEZ (V/m) @ t=0.28
2.6221407124263383
% es.Ex (V/m) @ t=0.28
0.8535548881380579
% es.Ey (V/m) @ t=0.28
0.20678537862695157
% es.Ez (V/m) @ t=0.28
2.6221407124263196
% es.tEx (V/m) @ t=0.28
0.8535548881380564
% es.tEy (V/m) @ t=0.28
0
% es.tEz (V/m) @ t=0.28
2.6221407124263383
% V (V) @ t=0.28
0.0129334944532111
% es.normE (V/m) @ t=0.3
2.7923637136764077
% es.EX (V/m) @ t=0.3
0.8619001607268069
% es.EY (V/m) @ t=0.3
0.20880708370783418
% es.EZ (V/m) @ t=0.3
2.6477767118002813
% es.tEX (V/m) @ t=0.3
0.8619001607268117
% es.tEY (V/m) @ t=0.3
0
% es.tEZ (V/m) @ t=0.3
2.6477767118002795
% es.Ex (V/m) @ t=0.3
0.8619001607268069
% es.Ey (V/m) @ t=0.3
0.20880708370783418
% es.Ez (V/m) @ t=0.3
2.6477767118002813
% es.tEx (V/m) @ t=0.3
0.8619001607268117
% es.tEy (V/m) @ t=0.3
0
% es.tEz (V/m) @ t=0.3
2.6477767118002795
% V (V) @ t=0.3
0.013059925323370428
% es.normE (V/m) @ t=0.32
2.819399704796373
% es.EX (V/m) @ t=0.32
0.8702454333155347
% es.EY (V/m) @ t=0.32
0.21082878878868083
% es.EZ (V/m) @ t=0.32
2.6734127111742225
% es.tEX (V/m) @ t=0.32
0.8702454333155387
% es.tEY (V/m) @ t=0.32
0
% es.tEZ (V/m) @ t=0.32
2.6734127111742154
% es.Ex (V/m) @ t=0.32
0.8702454333155347
% es.Ey (V/m) @ t=0.32
0.21082878878868083
% es.Ez (V/m) @ t=0.32
2.6734127111742225
% es.tEx (V/m) @ t=0.32
0.8702454333155387
% es.tEy (V/m) @ t=0.32
0
% es.tEz (V/m) @ t=0.32
2.6734127111742154
% V (V) @ t=0.32
0.01318635619352975
% es.normE (V/m) @ t=0.34
2.8464356959163903
% es.EX (V/m) @ t=0.34
0.878590705904291
% es.EY (V/m) @ t=0.34
0.2128504938695781
% es.EZ (V/m) @ t=0.34
2.699048710548177
% es.tEX (V/m) @ t=0.34
0.8785907059042941
% es.tEY (V/m) @ t=0.34
0
% es.tEZ (V/m) @ t=0.34
2.699048710548187
% es.Ex (V/m) @ t=0.34
0.878590705904291
% es.Ey (V/m) @ t=0.34
0.2128504938695781
% es.Ez (V/m) @ t=0.34
2.699048710548177
% es.tEx (V/m) @ t=0.34
0.8785907059042941
% es.tEy (V/m) @ t=0.34
0
% es.tEz (V/m) @ t=0.34
2.699048710548187
% V (V) @ t=0.34
0.013312787063689074
% es.normE (V/m) @ t=0.36
2.8734716870364014
% es.EX (V/m) @ t=0.36
0.8869359784930158
% es.EY (V/m) @ t=0.36
0.21487219895044607
% es.EZ (V/m) @ t=0.36
2.724684709922111
% es.tEX (V/m) @ t=0.36
0.8869359784930211
% es.tEY (V/m) @ t=0.36
0
% es.tEZ (V/m) @ t=0.36
2.724684709922112
% es.Ex (V/m) @ t=0.36
0.8869359784930158
% es.Ey (V/m) @ t=0.36
0.21487219895044607
% es.Ez (V/m) @ t=0.36
2.724684709922111
% es.tEx (V/m) @ t=0.36
0.8869359784930211
% es.tEy (V/m) @ t=0.36
0
% es.tEz (V/m) @ t=0.36
2.724684709922112
% V (V) @ t=0.36
0.0134392179338484
% es.normE (V/m) @ t=0.38
2.9005076781564787
% es.EX (V/m) @ t=0.38
0.8952812510817614
% es.EY (V/m) @ t=0.38
0.21689390403133957
% es.EZ (V/m) @ t=0.38
2.75032070929608
% es.tEX (V/m) @ t=0.38
0.8952812510817694
% es.tEY (V/m) @ t=0.38
0
% es.tEZ (V/m) @ t=0.38
2.75032070929608
% es.Ex (V/m) @ t=0.38
0.8952812510817614
% es.Ey (V/m) @ t=0.38
0.21689390403133957
% es.Ez (V/m) @ t=0.38
2.75032070929608
% es.tEx (V/m) @ t=0.38
0.8952812510817694
% es.tEy (V/m) @ t=0.38
0
% es.tEz (V/m) @ t=0.38
2.75032070929608
% V (V) @ t=0.38
0.013565648804007725
% es.normE (V/m) @ t=0.4
2.927543669276555
% es.EX (V/m) @ t=0.4
0.903626523670499
% es.EY (V/m) @ t=0.4
0.21891560911219332
% es.EZ (V/m) @ t=0.4
2.7759567086700283
% es.tEX (V/m) @ t=0.4
0.9036265236704963
% es.tEY (V/m) @ t=0.4
0
% es.tEZ (V/m) @ t=0.4
2.7759567086700194
% es.Ex (V/m) @ t=0.4
0.903626523670499
% es.Ey (V/m) @ t=0.4
0.21891560911219332
% es.Ez (V/m) @ t=0.4
2.7759567086700283
% es.tEx (V/m) @ t=0.4
0.9036265236704963
% es.tEy (V/m) @ t=0.4
0
% es.tEz (V/m) @ t=0.4
2.7759567086700194
% V (V) @ t=0.4
0.013692079674167046
% es.normE (V/m) @ t=0.42
2.9545796603966457
% es.EX (V/m) @ t=0.42
0.9119717962592286
% es.EY (V/m) @ t=0.42
0.2209373141930724
% es.EZ (V/m) @ t=0.42
2.8015927080439678
% es.tEX (V/m) @ t=0.42
0.9119717962592375
% es.tEY (V/m) @ t=0.42
0
% es.tEZ (V/m) @ t=0.42
2.801592708043973
% es.Ex (V/m) @ t=0.42
0.9119717962592286
% es.Ey (V/m) @ t=0.42
0.2209373141930724
% es.Ez (V/m) @ t=0.42
2.8015927080439678
% es.tEx (V/m) @ t=0.42
0.9119717962592375
% es.tEy (V/m) @ t=0.42
0
% es.tEz (V/m) @ t=0.42
2.801592708043973
% V (V) @ t=0.42
0.013818510544326371
% es.normE (V/m) @ t=0.44
2.981615651516763
% es.EX (V/m) @ t=0.44
0.9203170688479687
% es.EY (V/m) @ t=0.44
0.22295901927393702
% es.EZ (V/m) @ t=0.44
2.827228707417909
% es.tEX (V/m) @ t=0.44
0.9203170688479645
% es.tEY (V/m) @ t=0.44
0
% es.tEZ (V/m) @ t=0.44
2.8272287074179125
% es.Ex (V/m) @ t=0.44
0.9203170688479687
% es.Ey (V/m) @ t=0.44
0.22295901927393702
% es.Ez (V/m) @ t=0.44
2.827228707417909
% es.tEx (V/m) @ t=0.44
0.9203170688479645
% es.tEy (V/m) @ t=0.44
0
% es.tEz (V/m) @ t=0.44
2.8272287074179125
% V (V) @ t=0.44
0.013944941414485698
% es.normE (V/m) @ t=0.46
3.0086516426369183
% es.EX (V/m) @ t=0.46
0.9286623414367137
% es.EY (V/m) @ t=0.46
0.2249807243548132
% es.EZ (V/m) @ t=0.46
2.8528647067918653
% es.tEX (V/m) @ t=0.46
0.9286623414367199
% es.tEY (V/m) @ t=0.46
0
% es.tEZ (V/m) @ t=0.46
2.8528647067918698
% es.Ex (V/m) @ t=0.46
0.9286623414367137
% es.Ey (V/m) @ t=0.46
0.2249807243548132
% es.Ez (V/m) @ t=0.46
2.8528647067918653
% es.tEx (V/m) @ t=0.46
0.9286623414367199
% es.tEy (V/m) @ t=0.46
0
% es.tEz (V/m) @ t=0.46
2.8528647067918698
% V (V) @ t=0.46
0.014071372284645023
% es.normE (V/m) @ t=0.48
3.035687633757083
% es.EX (V/m) @ t=0.48
0.9370076140254393
% es.EY (V/m) @ t=0.48
0.22700242943569138
% es.EZ (V/m) @ t=0.48
2.8785007061658137
% es.tEX (V/m) @ t=0.48
0.9370076140254469
% es.tEY (V/m) @ t=0.48
0
% es.tEZ (V/m) @ t=0.48
2.87850070616582
% es.Ex (V/m) @ t=0.48
0.9370076140254393
% es.Ey (V/m) @ t=0.48
0.22700242943569138
% es.Ez (V/m) @ t=0.48
2.8785007061658137
% es.tEx (V/m) @ t=0.48
0.9370076140254469
% es.tEy (V/m) @ t=0.48
0
% es.tEz (V/m) @ t=0.48
2.87850070616582
% V (V) @ t=0.48
0.014197803154804347
% es.normE (V/m) @ t=0.5
3.0627236248772522
% es.EX (V/m) @ t=0.5
0.9453528866141871
% es.EY (V/m) @ t=0.5
0.22902413451654957
% es.EZ (V/m) @ t=0.5
2.90413670553974
% es.tEX (V/m) @ t=0.5
0.9453528866142022
% es.tEY (V/m) @ t=0.5
0
% es.tEZ (V/m) @ t=0.5
2.9041367055397487
% es.Ex (V/m) @ t=0.5
0.9453528866141871
% es.Ey (V/m) @ t=0.5
0.22902413451654957
% es.Ez (V/m) @ t=0.5
2.90413670553974
% es.tEx (V/m) @ t=0.5
0.9453528866142022
% es.tEy (V/m) @ t=0.5
0
% es.tEz (V/m) @ t=0.5
2.9041367055397487
% V (V) @ t=0.5
0.01432423402496367
% es.normE (V/m) @ t=0.52
3.091062560535911
% es.EX (V/m) @ t=0.52
0.954100031916054
% es.EY (V/m) @ t=0.52
0.2311432590953566
% es.EZ (V/m) @ t=0.52
2.931008281563652
% es.tEX (V/m) @ t=0.52
0.954100031916056
% es.tEY (V/m) @ t=0.52
0
% es.tEZ (V/m) @ t=0.52
2.9310082815636527
% es.Ex (V/m) @ t=0.52
0.954100031916054
% es.Ey (V/m) @ t=0.52
0.2311432590953566
% es.Ez (V/m) @ t=0.52
2.931008281563652
% es.tEx (V/m) @ t=0.52
0.954100031916056
% es.tEy (V/m) @ t=0.52
0
% es.tEz (V/m) @ t=0.52
2.9310082815636527
% V (V) @ t=0.52
0.014456778497538613
% es.normE (V/m) @ t=0.54
3.1210212990969475
% es.EX (V/m) @ t=0.54
0.9633467799008142
% es.EY (V/m) @ t=0.54
0.2333834942670714
% es.EZ (V/m) @ t=0.54
2.95941590964856
% es.tEX (V/m) @ t=0.54
0.9633467799008173
% es.tEY (V/m) @ t=0.54
0
% es.tEZ (V/m) @ t=0.54
2.9594159096485697
% es.Ex (V/m) @ t=0.54
0.9633467799008142
% es.Ey (V/m) @ t=0.54
0.2333834942670714
% es.Ez (V/m) @ t=0.54
2.95941590964856
% es.tEx (V/m) @ t=0.54
0.9633467799008173
% es.tEy (V/m) @ t=0.54
0
% es.tEz (V/m) @ t=0.54
2.9594159096485697
% V (V) @ t=0.54
0.01459692331736134
% es.normE (V/m) @ t=0.56
3.1509800376580763
% es.EX (V/m) @ t=0.56
0.9725935278855988
% es.EY (V/m) @ t=0.56
0.23562372943875776
% es.EZ (V/m) @ t=0.56
2.987823537733486
% es.tEX (V/m) @ t=0.56
0.9725935278855928
% es.tEY (V/m) @ t=0.56
0
% es.tEZ (V/m) @ t=0.56
2.9878235377334867
% es.Ex (V/m) @ t=0.56
0.9725935278855988
% es.Ey (V/m) @ t=0.56
0.23562372943875776
% es.Ez (V/m) @ t=0.56
2.987823537733486
% es.tEx (V/m) @ t=0.56
0.9725935278855928
% es.tEy (V/m) @ t=0.56
0
% es.tEz (V/m) @ t=0.56
2.9878235377334867
% V (V) @ t=0.56
0.014737068137184069
% es.normE (V/m) @ t=0.58
3.1809387762192456
% es.EX (V/m) @ t=0.58
0.9818402758703677
% es.EY (V/m) @ t=0.58
0.2378639646104468
% es.EZ (V/m) @ t=0.58
3.016231165818388
% es.tEX (V/m) @ t=0.58
0.9818402758703684
% es.tEY (V/m) @ t=0.58
0
% es.tEZ (V/m) @ t=0.58
3.0162311658184073
% es.Ex (V/m) @ t=0.58
0.9818402758703677
% es.Ey (V/m) @ t=0.58
0.2378639646104468
% es.Ez (V/m) @ t=0.58
3.016231165818388
% es.tEx (V/m) @ t=0.58
0.9818402758703684
% es.tEy (V/m) @ t=0.58
0
% es.tEz (V/m) @ t=0.58
3.0162311658184073
% V (V) @ t=0.58
0.014877212957006794
% es.normE (V/m) @ t=0.6
3.2108975147805094
% es.EX (V/m) @ t=0.6
0.9910870238551392
% es.EY (V/m) @ t=0.6
0.2401041997821156
% es.EZ (V/m) @ t=0.6
3.04463879390332
% es.tEX (V/m) @ t=0.6
0.9910870238551439
% es.tEY (V/m) @ t=0.6
0
% es.tEZ (V/m) @ t=0.6
3.0446387939033244
% es.Ex (V/m) @ t=0.6
0.9910870238551392
% es.Ey (V/m) @ t=0.6
0.2401041997821156
% es.Ez (V/m) @ t=0.6
3.04463879390332
% es.tEx (V/m) @ t=0.6
0.9910870238551439
% es.tEy (V/m) @ t=0.6
0
% es.tEz (V/m) @ t=0.6
3.0446387939033244
% V (V) @ t=0.6
0.015017357776829523
% es.normE (V/m) @ t=0.62
3.2408562533418124
% es.EX (V/m) @ t=0.62
1.000333771839899
% es.EY (V/m) @ t=0.62
0.24234443495379132
% es.EZ (V/m) @ t=0.62
3.073046421988229
% es.tEX (V/m) @ t=0.62
1.0003337718399052
% es.tEY (V/m) @ t=0.62
0
% es.tEZ (V/m) @ t=0.62
3.0730464219882414
% es.Ex (V/m) @ t=0.62
1.000333771839899
% es.Ey (V/m) @ t=0.62
0.24234443495379132
% es.Ez (V/m) @ t=0.62
3.073046421988229
% es.tEx (V/m) @ t=0.62
1.0003337718399052
% es.tEy (V/m) @ t=0.62
0
% es.tEz (V/m) @ t=0.62
3.0730464219882414
% V (V) @ t=0.62
0.01515750259665225
% es.normE (V/m) @ t=0.64
3.270814991903203
% es.EX (V/m) @ t=0.64
1.009580519824696
% es.EY (V/m) @ t=0.64
0.24458467012547058
% es.EZ (V/m) @ t=0.64
3.1014540500731522
% es.tEX (V/m) @ t=0.64
1.0095805198247092
% es.tEY (V/m) @ t=0.64
0
% es.tEZ (V/m) @ t=0.64
3.1014540500731584
% es.Ex (V/m) @ t=0.64
1.009580519824696
% es.Ey (V/m) @ t=0.64
0.24458467012547058
% es.Ez (V/m) @ t=0.64
3.1014540500731522
% es.tEx (V/m) @ t=0.64
1.0095805198247092
% es.tEy (V/m) @ t=0.64
0
% es.tEz (V/m) @ t=0.64
3.1014540500731584
% V (V) @ t=0.64
0.015297647416474977
% es.normE (V/m) @ t=0.66
3.3007737304646265
% es.EX (V/m) @ t=0.66
1.0188272678094628
% es.EY (V/m) @ t=0.66
0.24682490529716516
% es.EZ (V/m) @ t=0.66
3.129861678158054
% es.tEX (V/m) @ t=0.66
1.0188272678094705
% es.tEY (V/m) @ t=0.66
0
% es.tEZ (V/m) @ t=0.66
3.1298616781580613
% es.Ex (V/m) @ t=0.66
1.0188272678094628
% es.Ey (V/m) @ t=0.66
0.24682490529716516
% es.Ez (V/m) @ t=0.66
3.129861678158054
% es.tEx (V/m) @ t=0.66
1.0188272678094705
% es.tEy (V/m) @ t=0.66
0
% es.tEz (V/m) @ t=0.66
3.1298616781580613
% V (V) @ t=0.66
0.015437792236297706
% es.normE (V/m) @ t=0.68
3.3307324690261426
% es.EX (V/m) @ t=0.68
1.0280740157942203
% es.EY (V/m) @ t=0.68
0.2490651404688684
% es.EZ (V/m) @ t=0.68
3.1582693062429934
% es.tEX (V/m) @ t=0.68
1.0280740157942176
% es.tEY (V/m) @ t=0.68
0
% es.tEZ (V/m) @ t=0.68
3.1582693062429925
% es.Ex (V/m) @ t=0.68
1.0280740157942203
% es.Ey (V/m) @ t=0.68
0.2490651404688684
% es.Ez (V/m) @ t=0.68
3.1582693062429934
% es.tEx (V/m) @ t=0.68
1.0280740157942176
% es.tEy (V/m) @ t=0.68
0
% es.tEz (V/m) @ t=0.68
3.1582693062429925
% V (V) @ t=0.68
0.015577937056120431
% es.normE (V/m) @ t=0.7
3.36069120758769
% es.EX (V/m) @ t=0.7
1.0373207637789847
% es.EY (V/m) @ t=0.7
0.2513053756405548
% es.EZ (V/m) @ t=0.7
3.186676934327904
% es.tEX (V/m) @ t=0.7
1.0373207637789932
% es.tEY (V/m) @ t=0.7
0
% es.tEZ (V/m) @ t=0.7
3.1866769343279095
% es.Ex (V/m) @ t=0.7
1.0373207637789847
% es.Ey (V/m) @ t=0.7
0.2513053756405548
% es.Ez (V/m) @ t=0.7
3.186676934327904
% es.tEx (V/m) @ t=0.7
1.0373207637789932
% es.tEy (V/m) @ t=0.7
0
% es.tEz (V/m) @ t=0.7
3.1866769343279095
% V (V) @ t=0.7
0.01571808187594316
% es.normE (V/m) @ t=0.72
3.3906499461493
% es.EX (V/m) @ t=0.72
1.0465675117637727
% es.EY (V/m) @ t=0.72
0.25354561081224025
% es.EZ (V/m) @ t=0.72
3.215084562412814
% es.tEX (V/m) @ t=0.72
1.046567511763783
% es.tEY (V/m) @ t=0.72
0
% es.tEZ (V/m) @ t=0.72
3.2150845624128124
% es.Ex (V/m) @ t=0.72
1.0465675117637727
% es.Ey (V/m) @ t=0.72
0.25354561081224025
% es.Ez (V/m) @ t=0.72
3.215084562412814
% es.tEx (V/m) @ t=0.72
1.046567511763783
% es.tEy (V/m) @ t=0.72
0
% es.tEz (V/m) @ t=0.72
3.2150845624128124
% V (V) @ t=0.72
0.015858226695765885
% es.normE (V/m) @ t=0.74
3.4206086847109836
% es.EX (V/m) @ t=0.74
1.0558142597485614
% es.EY (V/m) @ t=0.74
0.2557858459839206
% es.EZ (V/m) @ t=0.74
3.2434921904977445
% es.tEX (V/m) @ t=0.74
1.0558142597485727
% es.tEY (V/m) @ t=0.74
0
% es.tEZ (V/m) @ t=0.74
3.2434921904977507
% es.Ex (V/m) @ t=0.74
1.0558142597485614
% es.Ey (V/m) @ t=0.74
0.2557858459839206
% es.Ez (V/m) @ t=0.74
3.2434921904977445
% es.tEx (V/m) @ t=0.74
1.0558142597485727
% es.tEy (V/m) @ t=0.74
0
% es.tEz (V/m) @ t=0.74
3.2434921904977507
% V (V) @ t=0.74
0.015998371515588614
% es.normE (V/m) @ t=0.76
3.4505674232726857
% es.EX (V/m) @ t=0.76
1.0650610077333291
% es.EY (V/m) @ t=0.76
0.25802608115558834
% es.EZ (V/m) @ t=0.76
3.2718998185826464
% es.tEX (V/m) @ t=0.76
1.0650610077333056
% es.tEY (V/m) @ t=0.76
0
% es.tEZ (V/m) @ t=0.76
3.2718998185826536
% es.Ex (V/m) @ t=0.76
1.0650610077333291
% es.Ey (V/m) @ t=0.76
0.25802608115558834
% es.Ez (V/m) @ t=0.76
3.2718998185826464
% es.tEx (V/m) @ t=0.76
1.0650610077333056
% es.tEy (V/m) @ t=0.76
0
% es.tEz (V/m) @ t=0.76
3.2718998185826536
% V (V) @ t=0.76
0.01613851633541134
% es.normE (V/m) @ t=0.78
3.4827292420408114
% es.EX (V/m) @ t=0.78
1.0749881330316644
% es.EY (V/m) @ t=0.78
0.26043107184942227
% es.EZ (V/m) @ t=0.78
3.3023963322765075
% es.tEX (V/m) @ t=0.78
1.0749881330316668
% es.tEY (V/m) @ t=0.78
0
% es.tEZ (V/m) @ t=0.78
3.302396332276519
% es.Ex (V/m) @ t=0.78
1.0749881330316644
% es.Ey (V/m) @ t=0.78
0.26043107184942227
% es.Ez (V/m) @ t=0.78
3.3023963322765075
% es.tEx (V/m) @ t=0.78
1.0749881330316668
% es.tEy (V/m) @ t=0.78
0
% es.tEz (V/m) @ t=0.78
3.302396332276519
% V (V) @ t=0.78
0.01628894079845394
% es.normE (V/m) @ t=0.8
3.515967299500418
% es.EX (V/m) @ t=0.8
1.0852476331511915
% es.EY (V/m) @ t=0.8
0.26291654815924814
% es.EZ (V/m) @ t=0.8
3.333913298838091
% es.tEX (V/m) @ t=0.8
1.085247633151198
% es.tEY (V/m) @ t=0.8
0
% es.tEZ (V/m) @ t=0.8
3.3339132988380946
% es.Ex (V/m) @ t=0.8
1.0852476331511915
% es.Ey (V/m) @ t=0.8
0.26291654815924814
% es.Ez (V/m) @ t=0.8
3.333913298838091
% es.tEx (V/m) @ t=0.8
1.085247633151198
% es.tEy (V/m) @ t=0.8
0
% es.tEz (V/m) @ t=0.8
3.3339132988380946
% V (V) @ t=0.8
0.01644438702590449
% es.normE (V/m) @ t=0.82
3.549205356960034
% es.EX (V/m) @ t=0.82
1.0955071332707473
% es.EY (V/m) @ t=0.82
0.26540202446907935
% es.EZ (V/m) @ t=0.82
3.3654302653996657
% es.tEX (V/m) @ t=0.82
1.0955071332707575
% es.tEY (V/m) @ t=0.82
0
% es.tEZ (V/m) @ t=0.82
3.365430265399688
% es.Ex (V/m) @ t=0.82
1.0955071332707473
% es.Ey (V/m) @ t=0.82
0.26540202446907935
% es.Ez (V/m) @ t=0.82
3.3654302653996657
% es.tEx (V/m) @ t=0.82
1.0955071332707575
% es.tEy (V/m) @ t=0.82
0
% es.tEz (V/m) @ t=0.82
3.365430265399688
% V (V) @ t=0.82
0.016599833253355036
% es.normE (V/m) @ t=0.84
3.5824434144196515
% es.EX (V/m) @ t=0.84
1.1057666333902683
% es.EY (V/m) @ t=0.84
0.26788750077885193
% es.EZ (V/m) @ t=0.84
3.39694723196125
% es.tEX (V/m) @ t=0.84
1.1057666333902745
% es.tEY (V/m) @ t=0.84
0
% es.tEZ (V/m) @ t=0.84
3.3969472319612457
% es.Ex (V/m) @ t=0.84
1.1057666333902683
% es.Ey (V/m) @ t=0.84
0.26788750077885193
% es.Ez (V/m) @ t=0.84
3.39694723196125
% es.tEx (V/m) @ t=0.84
1.1057666333902745
% es.tEy (V/m) @ t=0.84
0
% es.tEz (V/m) @ t=0.84
3.3969472319612457
% V (V) @ t=0.84
0.016755279480805588
% es.normE (V/m) @ t=0.86
3.615681471879296
% es.EX (V/m) @ t=0.86
1.1160261335097919
% es.EY (V/m) @ t=0.86
0.270372977088682
% es.EZ (V/m) @ t=0.86
3.4284641985228497
% es.tEX (V/m) @ t=0.86
1.1160261335097914
% es.tEY (V/m) @ t=0.86
0
% es.tEZ (V/m) @ t=0.86
3.4284641985228532
% es.Ex (V/m) @ t=0.86
1.1160261335097919
% es.Ey (V/m) @ t=0.86
0.270372977088682
% es.Ez (V/m) @ t=0.86
3.4284641985228497
% es.tEx (V/m) @ t=0.86
1.1160261335097914
% es.tEy (V/m) @ t=0.86
0
% es.tEz (V/m) @ t=0.86
3.4284641985228532
% V (V) @ t=0.86
0.016910725708256136
% es.normE (V/m) @ t=0.88
3.648919529338918
% es.EX (V/m) @ t=0.88
1.126285633629326
% es.EY (V/m) @ t=0.88
0.272858453398547
% es.EZ (V/m) @ t=0.88
3.459981165084412
% es.tEX (V/m) @ t=0.88
1.1262856336293368
% es.tEY (V/m) @ t=0.88
0
% es.tEZ (V/m) @ t=0.88
3.459981165084443
% es.Ex (V/m) @ t=0.88
1.126285633629326
% es.Ey (V/m) @ t=0.88
0.272858453398547
% es.Ez (V/m) @ t=0.88
3.459981165084412
% es.tEx (V/m) @ t=0.88
1.1262856336293368
% es.tEy (V/m) @ t=0.88
0
% es.tEz (V/m) @ t=0.88
3.459981165084443
% V (V) @ t=0.88
0.017066171935706684
% es.normE (V/m) @ t=0.9
3.682157586798582
% es.EX (V/m) @ t=0.9
1.136545133748872
% es.EY (V/m) @ t=0.9
0.27534392970836286
% es.EZ (V/m) @ t=0.9
3.4914981316460114
% es.tEX (V/m) @ t=0.9
1.136545133748882
% es.tEY (V/m) @ t=0.9
0
% es.tEZ (V/m) @ t=0.9
3.4914981316460185
% es.Ex (V/m) @ t=0.9
1.136545133748872
% es.Ey (V/m) @ t=0.9
0.27534392970836286
% es.Ez (V/m) @ t=0.9
3.4914981316460114
% es.tEx (V/m) @ t=0.9
1.136545133748882
% es.tEy (V/m) @ t=0.9
0
% es.tEz (V/m) @ t=0.9
3.4914981316460185
% V (V) @ t=0.9
0.017221618163157232
% es.normE (V/m) @ t=0.92
3.7153956442582254
% es.EX (V/m) @ t=0.92
1.1468046338684001
% es.EY (V/m) @ t=0.92
0.27782940601818584
% es.EZ (V/m) @ t=0.92
3.523015098207587
% es.tEX (V/m) @ t=0.92
1.1468046338683848
% es.tEY (V/m) @ t=0.92
0
% es.tEZ (V/m) @ t=0.92
3.5230150982075976
% es.Ex (V/m) @ t=0.92
1.1468046338684001
% es.Ey (V/m) @ t=0.92
0.27782940601818584
% es.Ez (V/m) @ t=0.92
3.523015098207587
% es.tEx (V/m) @ t=0.92
1.1468046338683848
% es.tEy (V/m) @ t=0.92
0
% es.tEz (V/m) @ t=0.92
3.5230150982075976
% V (V) @ t=0.92
0.01737706439060778
% es.normE (V/m) @ t=0.94
3.7486337017179263
% es.EX (V/m) @ t=0.94
1.1570641339879355
% es.EY (V/m) @ t=0.94
0.2803148823279973
% es.EZ (V/m) @ t=0.94
3.554532064769215
% es.tEX (V/m) @ t=0.94
1.1570641339879444
% es.tEY (V/m) @ t=0.94
0
% es.tEZ (V/m) @ t=0.94
3.55453206476923
% es.Ex (V/m) @ t=0.94
1.1570641339879355
% es.Ey (V/m) @ t=0.94
0.2803148823279973
% es.Ez (V/m) @ t=0.94
3.554532064769215
% es.tEx (V/m) @ t=0.94
1.1570641339879444
% es.tEy (V/m) @ t=0.94
0
% es.tEz (V/m) @ t=0.94
3.55453206476923
% V (V) @ t=0.94
0.017532510618058328
% es.normE (V/m) @ t=0.96
3.7818717591775934
% es.EX (V/m) @ t=0.96
1.1673236341074802
% es.EY (V/m) @ t=0.96
0.28280035863786934
% es.EZ (V/m) @ t=0.96
3.5860490313307922
% es.tEX (V/m) @ t=0.96
1.1673236341074897
% es.tEY (V/m) @ t=0.96
0
% es.tEZ (V/m) @ t=0.96
3.5860490313308055
% es.Ex (V/m) @ t=0.96
1.1673236341074802
% es.Ey (V/m) @ t=0.96
0.28280035863786934
% es.Ez (V/m) @ t=0.96
3.5860490313307922
% es.tEx (V/m) @ t=0.96
1.1673236341074897
% es.tEy (V/m) @ t=0.96
0
% es.tEz (V/m) @ t=0.96
3.5860490313308055
% V (V) @ t=0.96
0.017687956845508876
% es.normE (V/m) @ t=0.98
3.8151098166372397
% es.EX (V/m) @ t=0.98
1.1775831342269965
% es.EY (V/m) @ t=0.98
0.285285834947697
% es.EZ (V/m) @ t=0.98
3.6175659978923536
% es.tEX (V/m) @ t=0.98
1.1775831342270067
% es.tEY (V/m) @ t=0.98
0
% es.tEZ (V/m) @ t=0.98
3.617565997892367
% es.Ex (V/m) @ t=0.98
1.1775831342269965
% es.Ey (V/m) @ t=0.98
0.285285834947697
% es.Ez (V/m) @ t=0.98
3.6175659978923536
% es.tEx (V/m) @ t=0.98
1.1775831342270067
% es.tEy (V/m) @ t=0.98
0
% es.tEz (V/m) @ t=0.98
3.617565997892367
% V (V) @ t=0.98
0.017843403072959427
% es.normE (V/m) @ t=1
3.8483478740969446
% es.EX (V/m) @ t=1
1.1878426343465387
% es.EY (V/m) @ t=1
0.2877713112574738
% es.EZ (V/m) @ t=1
3.6490829644539664
% es.tEX (V/m) @ t=1
1.1878426343465236
% es.tEY (V/m) @ t=1
0
% es.tEZ (V/m) @ t=1
3.6490829644539744
% es.Ex (V/m) @ t=1
1.1878426343465387
% es.Ey (V/m) @ t=1
0.2877713112574738
% es.Ez (V/m) @ t=1
3.6490829644539664
% es.tEx (V/m) @ t=1
1.1878426343465236
% es.tEy (V/m) @ t=1
0
% es.tEz (V/m) @ t=1
3.6490829644539744
% V (V) @ t=1
0.017998849300409975
% es.normE (V/m) @ t=1.02
3.8815859315566246
% es.EX (V/m) @ t=1.02
1.198102134466067
% es.EY (V/m) @ t=1.02
0.290256787567335
% es.EZ (V/m) @ t=1.02
3.6805999310155437
% es.tEX (V/m) @ t=1.02
1.198102134466069
% es.tEY (V/m) @ t=1.02
0
% es.tEZ (V/m) @ t=1.02
3.68059993101555
% es.Ex (V/m) @ t=1.02
1.198102134466067
% es.Ey (V/m) @ t=1.02
0.290256787567335
% es.Ez (V/m) @ t=1.02
3.6805999310155437
% es.tEx (V/m) @ t=1.02
1.198102134466069
% es.tEy (V/m) @ t=1.02
0
% es.tEz (V/m) @ t=1.02
3.68059993101555
% V (V) @ t=1.02
0.018154295527860524
% es.normE (V/m) @ t=1.04
3.916277725354057
% es.EX (V/m) @ t=1.04
1.2088103204448895
% es.EY (V/m) @ t=1.04
0.2928509704078872
% es.EZ (V/m) @ t=1.04
3.7134953698141917
% es.tEX (V/m) @ t=1.04
1.2088103204448828
% es.tEY (V/m) @ t=1.04
0
% es.tEZ (V/m) @ t=1.04
3.7134953698141935
% es.Ex (V/m) @ t=1.04
1.2088103204448895
% es.Ey (V/m) @ t=1.04
0.2928509704078872
% es.Ez (V/m) @ t=1.04
3.7134953698141917
% es.tEx (V/m) @ t=1.04
1.2088103204448828
% es.tEy (V/m) @ t=1.04
0
% es.tEz (V/m) @ t=1.04
3.7134953698141935
% V (V) @ t=1.04