% Model:              1 neuron.mph
% Version:            COMSOL 6.1.0.252
% Date:               Mar 22 2023, 18:51
% Dimension:          0
% Nodes:              14017
% Expressions:        14017
% Description:        Electric field norm, Electric field, X component, Electric field, Y component, Electric field, Z component, Tangential electric field, X component, Tangential electric field, Y component, Tangential electric field, Z component, Electric field, x component, Electric field, y component, Electric field, z component, Tangential electric field, x component, Tangential electric field, y component, Tangential electric field, z component, Electric potential
% Length unit:        mm
% x
1.33
% y
12.2
% z
1.33
% es.normE (V/m) @ t=0
14.124027548567602
% es.EX (V/m) @ t=0
10.944485837752591
% es.EY (V/m) @ t=0
-1.6770195152377418
% es.EZ (V/m) @ t=0
8.743454722960696
% es.tEX (V/m) @ t=0
10.944485837752616
% es.tEY (V/m) @ t=0
0
% es.tEZ (V/m) @ t=0
8.743454722960703
% es.Ex (V/m) @ t=0
10.944485837752591
% es.Ey (V/m) @ t=0
-1.6770195152377418
% es.Ez (V/m) @ t=0
8.743454722960696
% es.tEx (V/m) @ t=0
10.944485837752616
% es.tEy (V/m) @ t=0
0
% es.tEz (V/m) @ t=0
8.743454722960703
% V (V) @ t=0
0.011664085804041378
% es.normE (V/m) @ t=0.02
12.19910836817132
% es.EX (V/m) @ t=0.02
9.452896371852388
% es.EY (V/m) @ t=0.02
-1.448463812689715
% es.EZ (V/m) @ t=0.02
7.551836847694971
% es.tEX (V/m) @ t=0.02
9.452896371852415
% es.tEY (V/m) @ t=0.02
0
% es.tEZ (V/m) @ t=0.02
7.551836847694967
% es.Ex (V/m) @ t=0.02
9.452896371852388
% es.Ey (V/m) @ t=0.02
-1.448463812689715
% es.Ez (V/m) @ t=0.02
7.551836847694971
% es.tEx (V/m) @ t=0.02
9.452896371852415
% es.tEy (V/m) @ t=0.02
0
% es.tEz (V/m) @ t=0.02
7.551836847694967
% V (V) @ t=0.02
0.010074424325540055
% es.normE (V/m) @ t=0.04
12.311373384618207
% es.EX (V/m) @ t=0.04
9.539888759687937
% es.EY (V/m) @ t=0.04
-1.4617936244912233
% es.EZ (V/m) @ t=0.04
7.6213343110227285
% es.tEX (V/m) @ t=0.04
9.539888759687951
% es.tEY (V/m) @ t=0.04
0
% es.tEZ (V/m) @ t=0.04
7.621334311022735
% es.Ex (V/m) @ t=0.04
9.539888759687937
% es.Ey (V/m) @ t=0.04
-1.4617936244912233
% es.Ez (V/m) @ t=0.04
7.6213343110227285
% es.tEx (V/m) @ t=0.04
9.539888759687951
% es.tEy (V/m) @ t=0.04
0
% es.tEz (V/m) @ t=0.04
7.621334311022735
% V (V) @ t=0.04
0.010167136464469251
% es.normE (V/m) @ t=0.06
12.424449856533066
% es.EX (V/m) @ t=0.06
9.627509931306204
% es.EY (V/m) @ t=0.06
-1.475219786579812
% es.EZ (V/m) @ t=0.06
7.691334104063271
% es.tEX (V/m) @ t=0.06
9.627509931306244
% es.tEY (V/m) @ t=0.06
0
% es.tEZ (V/m) @ t=0.06
7.691334104063281
% es.Ex (V/m) @ t=0.06
9.627509931306204
% es.Ey (V/m) @ t=0.06
-1.475219786579812
% es.Ez (V/m) @ t=0.06
7.691334104063271
% es.tEx (V/m) @ t=0.06
9.627509931306244
% es.tEy (V/m) @ t=0.06
0
% es.tEz (V/m) @ t=0.06
7.691334104063281
% V (V) @ t=0.06
0.010260518736764205
% es.normE (V/m) @ t=0.08
12.539708801846878
% es.EX (V/m) @ t=0.08
9.716822267376012
% es.EY (V/m) @ t=0.08
-1.4889050817319855
% es.EZ (V/m) @ t=0.08
7.762684954227056
% es.tEX (V/m) @ t=0.08
9.71682226737605
% es.tEY (V/m) @ t=0.08
0
% es.tEZ (V/m) @ t=0.08
7.762684954227054
% es.Ex (V/m) @ t=0.08
9.716822267376012
% es.Ey (V/m) @ t=0.08
-1.4889050817319855
% es.Ez (V/m) @ t=0.08
7.762684954227056
% es.tEx (V/m) @ t=0.08
9.71682226737605
% es.tEy (V/m) @ t=0.08
0
% es.tEz (V/m) @ t=0.08
7.762684954227054
% V (V) @ t=0.08
0.010355703358390131
% es.normE (V/m) @ t=0.1
12.655533230117518
% es.EX (V/m) @ t=0.1
9.806572787331586
% es.EY (V/m) @ t=0.1
-1.5026575187477267
% es.EZ (V/m) @ t=0.1
7.834385865829043
% es.tEX (V/m) @ t=0.1
9.806572787331596
% es.tEY (V/m) @ t=0.1
0
% es.tEZ (V/m) @ t=0.1
7.834385865829036
% es.Ex (V/m) @ t=0.1
9.806572787331586
% es.Ey (V/m) @ t=0.1
-1.5026575187477267
% es.Ez (V/m) @ t=0.1
7.834385865829043
% es.tEx (V/m) @ t=0.1
9.806572787331596
% es.tEy (V/m) @ t=0.1
0
% es.tEz (V/m) @ t=0.1
7.834385865829036
% V (V) @ t=0.1
0.01045135497211293
% es.normE (V/m) @ t=0.12
12.771357658388109
% es.EX (V/m) @ t=0.12
9.896323307287108
% es.EY (V/m) @ t=0.12
-1.5164099557634358
% es.EZ (V/m) @ t=0.12
7.906086777431014
% es.tEX (V/m) @ t=0.12
9.89632330728713
% es.tEY (V/m) @ t=0.12
0
% es.tEZ (V/m) @ t=0.12
7.906086777431013
% es.Ex (V/m) @ t=0.12
9.896323307287108
% es.Ey (V/m) @ t=0.12
-1.5164099557634358
% es.Ez (V/m) @ t=0.12
7.906086777431014
% es.tEx (V/m) @ t=0.12
9.89632330728713
% es.tEy (V/m) @ t=0.12
0
% es.tEz (V/m) @ t=0.12
7.906086777431013
% V (V) @ t=0.12
0.010547006585835725
% es.normE (V/m) @ t=0.14
12.890628532190284
% es.EX (V/m) @ t=0.14
9.988744423193529
% es.EY (V/m) @ t=0.14
-1.5305716106257083
% es.EZ (V/m) @ t=0.14
7.9799212043601475
% es.tEX (V/m) @ t=0.14
9.988744423193577
% es.tEY (V/m) @ t=0.14
0
% es.tEZ (V/m) @ t=0.14
7.979921204360155
% es.Ex (V/m) @ t=0.14
9.988744423193529
% es.Ey (V/m) @ t=0.14
-1.5305716106257083
% es.Ez (V/m) @ t=0.14
7.9799212043601475
% es.tEx (V/m) @ t=0.14
9.988744423193577
% es.tEy (V/m) @ t=0.14
0
% es.tEz (V/m) @ t=0.14
7.979921204360155
% V (V) @ t=0.14
0.010645504395921521
% es.normE (V/m) @ t=0.16
13.01224839446952
% es.EX (V/m) @ t=0.16
10.082985732994795
% es.EY (V/m) @ t=0.16
-1.5450121754539001
% es.EZ (V/m) @ t=0.16
8.055209767985566
% es.tEX (V/m) @ t=0.16
10.082985732994846
% es.tEY (V/m) @ t=0.16
0
% es.tEZ (V/m) @ t=0.16
8.055209767985572
% es.Ex (V/m) @ t=0.16
10.082985732994795
% es.Ey (V/m) @ t=0.16
-1.5450121754539001
% es.Ez (V/m) @ t=0.16
8.055209767985566
% es.tEx (V/m) @ t=0.16
10.082985732994846
% es.tEy (V/m) @ t=0.16
0
% es.tEz (V/m) @ t=0.16
8.055209767985572
% V (V) @ t=0.16
0.010745942083599695
% es.normE (V/m) @ t=0.18
13.133868256748748
% es.EX (V/m) @ t=0.18
10.177227042796053
% es.EY (V/m) @ t=0.18
-1.5594527402822127
% es.EZ (V/m) @ t=0.18
8.130498331610966
% es.tEX (V/m) @ t=0.18
10.177227042796089
% es.tEY (V/m) @ t=0.18
0
% es.tEZ (V/m) @ t=0.18
8.130498331610962
% es.Ex (V/m) @ t=0.18
10.177227042796053
% es.Ey (V/m) @ t=0.18
-1.5594527402822127
% es.Ez (V/m) @ t=0.18
8.130498331610966
% es.tEx (V/m) @ t=0.18
10.177227042796089
% es.tEy (V/m) @ t=0.18
0
% es.tEz (V/m) @ t=0.18
8.130498331610962
% V (V) @ t=0.18
0.010846379771277871
% es.normE (V/m) @ t=0.2
13.255488119027945
% es.EX (V/m) @ t=0.2
10.271468352597292
% es.EY (V/m) @ t=0.2
-1.5738933051105128
% es.EZ (V/m) @ t=0.2
8.205786895236344
% es.tEX (V/m) @ t=0.2
10.271468352597331
% es.tEY (V/m) @ t=0.2
0
% es.tEZ (V/m) @ t=0.2
8.205786895236342
% es.Ex (V/m) @ t=0.2
10.271468352597292
% es.Ey (V/m) @ t=0.2
-1.5738933051105128
% es.Ez (V/m) @ t=0.2
8.205786895236344
% es.tEx (V/m) @ t=0.2
10.271468352597331
% es.tEy (V/m) @ t=0.2
0
% es.tEz (V/m) @ t=0.2
8.205786895236342
% V (V) @ t=0.2
0.010946817458956048
% es.normE (V/m) @ t=0.22
13.37710798130722
% es.EX (V/m) @ t=0.22
10.365709662398594
% es.EY (V/m) @ t=0.22
-1.5883338699387295
% es.EZ (V/m) @ t=0.22
8.281075458861775
% es.tEX (V/m) @ t=0.22
10.36570966239863
% es.tEY (V/m) @ t=0.22
0
% es.tEZ (V/m) @ t=0.22
8.281075458861789
% es.Ex (V/m) @ t=0.22
10.365709662398594
% es.Ey (V/m) @ t=0.22
-1.5883338699387295
% es.Ez (V/m) @ t=0.22
8.281075458861775
% es.tEx (V/m) @ t=0.22
10.36570966239863
% es.tEy (V/m) @ t=0.22
0
% es.tEz (V/m) @ t=0.22
8.281075458861789
% V (V) @ t=0.22
0.011047255146634221
% es.normE (V/m) @ t=0.24
13.498727843586444
% es.EX (V/m) @ t=0.24
10.459950972199845
% es.EY (V/m) @ t=0.24
-1.6027744347670314
% es.EZ (V/m) @ t=0.24
8.356364022487174
% es.tEX (V/m) @ t=0.24
10.45995097219987
% es.tEY (V/m) @ t=0.24
0
% es.tEZ (V/m) @ t=0.24
8.356364022487163
% es.Ex (V/m) @ t=0.24
10.459950972199845
% es.Ey (V/m) @ t=0.24
-1.6027744347670314
% es.Ez (V/m) @ t=0.24
8.356364022487174
% es.tEx (V/m) @ t=0.24
10.45995097219987
% es.tEy (V/m) @ t=0.24
0
% es.tEz (V/m) @ t=0.24
8.356364022487163
% V (V) @ t=0.24
0.011147692834312401
% es.normE (V/m) @ t=0.26
13.622878390854044
% es.EX (V/m) @ t=0.26
10.556153270263568
% es.EY (V/m) @ t=0.26
-1.617515482090436
% es.EZ (V/m) @ t=0.26
8.433219201311985
% es.tEX (V/m) @ t=0.26
10.556153270263616
% es.tEY (V/m) @ t=0.26
0
% es.tEZ (V/m) @ t=0.26
8.433219201311996
% es.Ex (V/m) @ t=0.26
10.556153270263568
% es.Ey (V/m) @ t=0.26
-1.617515482090436
% es.Ez (V/m) @ t=0.26
8.433219201311985
% es.tEx (V/m) @ t=0.26
10.556153270263616
% es.tEy (V/m) @ t=0.26
0
% es.tEz (V/m) @ t=0.26
8.433219201311996
% V (V) @ t=0.26
0.011250220447408735
% es.normE (V/m) @ t=0.28
13.75743532997245
% es.EX (V/m) @ t=0.28
10.660419318801194
% es.EY (V/m) @ t=0.28
-1.633492138983268
% es.EZ (V/m) @ t=0.28
8.5165164350425
% es.tEX (V/m) @ t=0.28
10.660419318801258
% es.tEY (V/m) @ t=0.28
0
% es.tEZ (V/m) @ t=0.28
8.516516435042522
% es.Ex (V/m) @ t=0.28
10.660419318801194
% es.Ey (V/m) @ t=0.28
-1.633492138983268
% es.Ez (V/m) @ t=0.28
8.5165164350425
% es.tEx (V/m) @ t=0.28
10.660419318801258
% es.tEy (V/m) @ t=0.28
0
% es.tEz (V/m) @ t=0.28
8.516516435042522
% V (V) @ t=0.28
0.01136134201152606
% es.normE (V/m) @ t=0.3
13.891992269090832
% es.EX (V/m) @ t=0.3
10.764685367338771
% es.EY (V/m) @ t=0.3
-1.649468795876107
% es.EZ (V/m) @ t=0.3
8.59981366877303
% es.tEX (V/m) @ t=0.3
10.764685367338785
% es.tEY (V/m) @ t=0.3
0
% es.tEZ (V/m) @ t=0.3
8.599813668773036
% es.Ex (V/m) @ t=0.3
10.764685367338771
% es.Ey (V/m) @ t=0.3
-1.649468795876107
% es.Ez (V/m) @ t=0.3
8.59981366877303
% es.tEx (V/m) @ t=0.3
10.764685367338785
% es.tEy (V/m) @ t=0.3
0
% es.tEz (V/m) @ t=0.3
8.599813668773036
% V (V) @ t=0.3
0.011472463575643379
% es.normE (V/m) @ t=0.32
14.026549208209222
% es.EX (V/m) @ t=0.32
10.86895141587634
% es.EY (V/m) @ t=0.32
-1.6654454527689424
% es.EZ (V/m) @ t=0.32
8.68311090250359
% es.tEX (V/m) @ t=0.32
10.86895141587637
% es.tEY (V/m) @ t=0.32
0
% es.tEZ (V/m) @ t=0.32
8.683110902503586
% es.Ex (V/m) @ t=0.32
10.86895141587634
% es.Ey (V/m) @ t=0.32
-1.6654454527689424
% es.Ez (V/m) @ t=0.32
8.68311090250359
% es.tEx (V/m) @ t=0.32
10.86895141587637
% es.tEy (V/m) @ t=0.32
0
% es.tEz (V/m) @ t=0.32
8.683110902503586
% V (V) @ t=0.32
0.0115835851397607
% es.normE (V/m) @ t=0.34
14.16110614732759
% es.EX (V/m) @ t=0.34
10.973217464413924
% es.EY (V/m) @ t=0.34
-1.6814221096617885
% es.EZ (V/m) @ t=0.34
8.766408136234098
% es.tEX (V/m) @ t=0.34
10.973217464413928
% es.tEY (V/m) @ t=0.34
0
% es.tEZ (V/m) @ t=0.34
8.766408136234068
% es.Ex (V/m) @ t=0.34
10.973217464413924
% es.Ey (V/m) @ t=0.34
-1.6814221096617885
% es.Ez (V/m) @ t=0.34
8.766408136234098
% es.tEx (V/m) @ t=0.34
10.973217464413928
% es.tEy (V/m) @ t=0.34
0
% es.tEz (V/m) @ t=0.34
8.766408136234068
% V (V) @ t=0.34
0.011694706703878023
% es.normE (V/m) @ t=0.36
14.295663086445954
% es.EX (V/m) @ t=0.36
11.077483512951499
% es.EY (V/m) @ t=0.36
-1.69739876655456
% es.EZ (V/m) @ t=0.36
8.84970536996461
% es.tEX (V/m) @ t=0.36
11.077483512951513
% es.tEY (V/m) @ t=0.36
0
% es.tEZ (V/m) @ t=0.36
8.849705369964608
% es.Ex (V/m) @ t=0.36
11.077483512951499
% es.Ey (V/m) @ t=0.36
-1.69739876655456
% es.Ez (V/m) @ t=0.36
8.84970536996461
% es.tEx (V/m) @ t=0.36
11.077483512951513
% es.tEy (V/m) @ t=0.36
0
% es.tEz (V/m) @ t=0.36
8.849705369964608
% V (V) @ t=0.36
0.011805828267995344
% es.normE (V/m) @ t=0.38
14.430220025564402
% es.EX (V/m) @ t=0.38
11.181749561489182
% es.EY (V/m) @ t=0.38
-1.7133754234474274
% es.EZ (V/m) @ t=0.38
8.933002603695115
% es.tEX (V/m) @ t=0.38
11.18174956148921
% es.tEY (V/m) @ t=0.38
0
% es.tEZ (V/m) @ t=0.38
8.933002603695112
% es.Ex (V/m) @ t=0.38
11.181749561489182
% es.Ey (V/m) @ t=0.38
-1.7133754234474274
% es.Ez (V/m) @ t=0.38
8.933002603695115
% es.tEx (V/m) @ t=0.38
11.18174956148921
% es.tEy (V/m) @ t=0.38
0
% es.tEz (V/m) @ t=0.38
8.933002603695112
% V (V) @ t=0.38
0.011916949832112667
% es.normE (V/m) @ t=0.4
14.564776964682718
% es.EX (V/m) @ t=0.4
11.28601561002668
% es.EY (V/m) @ t=0.4
-1.7293520803402451
% es.EZ (V/m) @ t=0.4
9.016299837425645
% es.tEX (V/m) @ t=0.4
11.286015610026737
% es.tEY (V/m) @ t=0.4
0
% es.tEZ (V/m) @ t=0.4
9.016299837425642
% es.Ex (V/m) @ t=0.4
11.28601561002668
% es.Ey (V/m) @ t=0.4
-1.7293520803402451
% es.Ez (V/m) @ t=0.4
9.016299837425645
% es.tEx (V/m) @ t=0.4
11.286015610026737
% es.tEy (V/m) @ t=0.4
0
% es.tEz (V/m) @ t=0.4
9.016299837425642
% V (V) @ t=0.4
0.01202807139622999
% es.normE (V/m) @ t=0.42
14.699333903801087
% es.EX (V/m) @ t=0.42
11.390281658564257
% es.EY (V/m) @ t=0.42
-1.7453287372330841
% es.EZ (V/m) @ t=0.42
9.099597071156154
% es.tEX (V/m) @ t=0.42
11.390281658564323
% es.tEY (V/m) @ t=0.42
0
% es.tEZ (V/m) @ t=0.42
9.099597071156154
% es.Ex (V/m) @ t=0.42
11.390281658564257
% es.Ey (V/m) @ t=0.42
-1.7453287372330841
% es.Ez (V/m) @ t=0.42
9.099597071156154
% es.tEx (V/m) @ t=0.42
11.390281658564323
% es.tEy (V/m) @ t=0.42
0
% es.tEz (V/m) @ t=0.42
9.099597071156154
% V (V) @ t=0.42
0.012139192960347312
% es.normE (V/m) @ t=0.44
14.833890842919466
% es.EX (V/m) @ t=0.44
11.494547707101834
% es.EY (V/m) @ t=0.44
-1.7613053941259178
% es.EZ (V/m) @ t=0.44
9.182894304886691
% es.tEX (V/m) @ t=0.44
11.494547707101908
% es.tEY (V/m) @ t=0.44
0
% es.tEZ (V/m) @ t=0.44
9.182894304886679
% es.Ex (V/m) @ t=0.44
11.494547707101834
% es.Ey (V/m) @ t=0.44
-1.7613053941259178
% es.Ez (V/m) @ t=0.44
9.182894304886691
% es.tEx (V/m) @ t=0.44
11.494547707101908
% es.tEy (V/m) @ t=0.44
0
% es.tEz (V/m) @ t=0.44
9.182894304886679
% V (V) @ t=0.44
0.01225031452446463
% es.normE (V/m) @ t=0.46
14.968447782037838
% es.EX (V/m) @ t=0.46
11.598813755639409
% es.EY (V/m) @ t=0.46
-1.777282051018707
% es.EZ (V/m) @ t=0.46
9.266191538617221
% es.tEX (V/m) @ t=0.46
11.598813755639464
% es.tEY (V/m) @ t=0.46
0
% es.tEZ (V/m) @ t=0.46
9.266191538617205
% es.Ex (V/m) @ t=0.46
11.598813755639409
% es.Ey (V/m) @ t=0.46
-1.777282051018707
% es.Ez (V/m) @ t=0.46
9.266191538617221
% es.tEx (V/m) @ t=0.46
11.598813755639464
% es.tEy (V/m) @ t=0.46
0
% es.tEz (V/m) @ t=0.46
9.266191538617205
% V (V) @ t=0.46
0.012361436088581952
% es.normE (V/m) @ t=0.48
15.103004721156218
% es.EX (V/m) @ t=0.48
11.703079804176992
% es.EY (V/m) @ t=0.48
-1.7932587079115319
% es.EZ (V/m) @ t=0.48
9.349488772347739
% es.tEX (V/m) @ t=0.48
11.703079804177047
% es.tEY (V/m) @ t=0.48
0
% es.tEZ (V/m) @ t=0.48
9.349488772347733
% es.Ex (V/m) @ t=0.48
11.703079804176992
% es.Ey (V/m) @ t=0.48
-1.7932587079115319
% es.Ez (V/m) @ t=0.48
9.349488772347739
% es.tEx (V/m) @ t=0.48
11.703079804177047
% es.tEy (V/m) @ t=0.48
0
% es.tEz (V/m) @ t=0.48
9.349488772347733
% V (V) @ t=0.48
0.012472557652699275
% es.normE (V/m) @ t=0.5
15.23756166027467
% es.EX (V/m) @ t=0.5
11.807345852714668
% es.EY (V/m) @ t=0.5
-1.8092353648043904
% es.EZ (V/m) @ t=0.5
9.432786006078262
% es.tEX (V/m) @ t=0.5
11.807345852714718
% es.tEY (V/m) @ t=0.5
0
% es.tEZ (V/m) @ t=0.5
9.43278600607826
% es.Ex (V/m) @ t=0.5
11.807345852714668
% es.Ey (V/m) @ t=0.5
-1.8092353648043904
% es.Ez (V/m) @ t=0.5
9.432786006078262
% es.tEx (V/m) @ t=0.5
11.807345852714718
% es.tEy (V/m) @ t=0.5
0
% es.tEz (V/m) @ t=0.5
9.43278600607826
% V (V) @ t=0.5
0.012583679216816595
% es.normE (V/m) @ t=0.52
15.37790059296164
% es.EX (V/m) @ t=0.52
11.916092276058173
% es.EY (V/m) @ t=0.52
-1.8258985462861421
% es.EZ (V/m) @ t=0.52
9.519662574331589
% es.tEX (V/m) @ t=0.52
11.916092276058224
% es.tEY (V/m) @ t=0.52
0
% es.tEZ (V/m) @ t=0.52
9.519662574331583
% es.Ex (V/m) @ t=0.52
11.916092276058173
% es.Ey (V/m) @ t=0.52
-1.8258985462861421
% es.Ez (V/m) @ t=0.52
9.519662574331589
% es.tEx (V/m) @ t=0.52
11.916092276058224
% es.tEy (V/m) @ t=0.52
0
% es.tEz (V/m) @ t=0.52
9.519662574331583
% V (V) @ t=0.52
0.012699575738007373
% es.normE (V/m) @ t=0.54
15.527004200405502
% es.EX (V/m) @ t=0.54
12.031630306396234
% es.EY (V/m) @ t=0.54
-1.8436024007922729
% es.EZ (V/m) @ t=0.54
9.611964901463129
% es.tEX (V/m) @ t=0.54
12.031630306396288
% es.tEY (V/m) @ t=0.54
0
% es.tEZ (V/m) @ t=0.54
9.61196490146313
% es.Ex (V/m) @ t=0.54
12.031630306396234
% es.Ey (V/m) @ t=0.54
-1.8436024007922729
% es.Ez (V/m) @ t=0.54
9.611964901463129
% es.tEx (V/m) @ t=0.54
12.031630306396288
% es.tEy (V/m) @ t=0.54
0
% es.tEz (V/m) @ t=0.54
9.61196490146313
% V (V) @ t=0.54
0.012822710410750993
% es.normE (V/m) @ t=0.56
15.676107807849402
% es.EX (V/m) @ t=0.56
12.147168336734323
% es.EY (V/m) @ t=0.56
-1.8613062552984392
% es.EZ (V/m) @ t=0.56
9.704267228594684
% es.tEX (V/m) @ t=0.56
12.147168336734378
% es.tEY (V/m) @ t=0.56
0
% es.tEZ (V/m) @ t=0.56
9.704267228594663
% es.Ex (V/m) @ t=0.56
12.147168336734323
% es.Ey (V/m) @ t=0.56
-1.8613062552984392
% es.Ez (V/m) @ t=0.56
9.704267228594684
% es.tEx (V/m) @ t=0.56
12.147168336734378
% es.tEy (V/m) @ t=0.56
0
% es.tEz (V/m) @ t=0.56
9.704267228594663
% V (V) @ t=0.56
0.012945845083494613
% es.normE (V/m) @ t=0.58
15.825211415293305
% es.EX (V/m) @ t=0.58
12.262706367072461
% es.EY (V/m) @ t=0.58
-1.8790101098045895
% es.EZ (V/m) @ t=0.58
9.79656955572619
% es.tEX (V/m) @ t=0.58
12.262706367072525
% es.tEY (V/m) @ t=0.58
0
% es.tEZ (V/m) @ t=0.58
9.796569555726169
% es.Ex (V/m) @ t=0.58
12.262706367072461
% es.Ey (V/m) @ t=0.58
-1.8790101098045895
% es.Ez (V/m) @ t=0.58
9.79656955572619
% es.tEx (V/m) @ t=0.58
12.262706367072525
% es.tEy (V/m) @ t=0.58
0
% es.tEz (V/m) @ t=0.58
9.796569555726169
% V (V) @ t=0.58
0.013068979756238237
% es.normE (V/m) @ t=0.6
15.974315022737175
% es.EX (V/m) @ t=0.6
12.378244397410528
% es.EY (V/m) @ t=0.6
-1.8967139643107807
% es.EZ (V/m) @ t=0.6
9.888871882857723
% es.tEX (V/m) @ t=0.6
12.378244397410558
% es.tEY (V/m) @ t=0.6
0
% es.tEZ (V/m) @ t=0.6
9.88887188285773
% es.Ex (V/m) @ t=0.6
12.378244397410528
% es.Ey (V/m) @ t=0.6
-1.8967139643107807
% es.Ez (V/m) @ t=0.6
9.888871882857723
% es.tEx (V/m) @ t=0.6
12.378244397410558
% es.tEy (V/m) @ t=0.6
0
% es.tEz (V/m) @ t=0.6
9.88887188285773
% V (V) @ t=0.6
0.013192114428981855
% es.normE (V/m) @ t=0.62
16.123418630181067
% es.EX (V/m) @ t=0.62
12.49378242774861
% es.EY (V/m) @ t=0.62
-1.914417818816947
% es.EZ (V/m) @ t=0.62
9.981174209989279
% es.tEX (V/m) @ t=0.62
12.493782427748677
% es.tEY (V/m) @ t=0.62
0
% es.tEZ (V/m) @ t=0.62
9.981174209989263
% es.Ex (V/m) @ t=0.62
12.49378242774861
% es.Ey (V/m) @ t=0.62
-1.914417818816947
% es.Ez (V/m) @ t=0.62
9.981174209989279
% es.tEx (V/m) @ t=0.62
12.493782427748677
% es.tEy (V/m) @ t=0.62
0
% es.tEz (V/m) @ t=0.62
9.981174209989263
% V (V) @ t=0.62
0.013315249101725476
% es.normE (V/m) @ t=0.64
16.27252223762499
% es.EX (V/m) @ t=0.64
12.609320458086762
% es.EY (V/m) @ t=0.64
-1.9321216733231026
% es.EZ (V/m) @ t=0.64
10.073476537120797
% es.tEX (V/m) @ t=0.64
12.609320458086826
% es.tEY (V/m) @ t=0.64
0
% es.tEZ (V/m) @ t=0.64
10.073476537120795
% es.Ex (V/m) @ t=0.64
12.609320458086762
% es.Ey (V/m) @ t=0.64
-1.9321216733231026
% es.Ez (V/m) @ t=0.64
10.073476537120797
% es.tEx (V/m) @ t=0.64
12.609320458086826
% es.tEy (V/m) @ t=0.64
0
% es.tEz (V/m) @ t=0.64
10.073476537120795
% V (V) @ t=0.64
0.0134383837744691
% es.normE (V/m) @ t=0.66
16.421625845068846
% es.EX (V/m) @ t=0.66
12.724858488424807
% es.EY (V/m) @ t=0.66
-1.949825527829228
% es.EZ (V/m) @ t=0.66
10.165778864252346
% es.tEX (V/m) @ t=0.66
12.724858488424859
% es.tEY (V/m) @ t=0.66
0
% es.tEZ (V/m) @ t=0.66
10.165778864252342
% es.Ex (V/m) @ t=0.66
12.724858488424807
% es.Ey (V/m) @ t=0.66
-1.949825527829228
% es.Ez (V/m) @ t=0.66
10.165778864252346
% es.tEx (V/m) @ t=0.66
12.724858488424859
% es.tEy (V/m) @ t=0.66
0
% es.tEz (V/m) @ t=0.66
10.165778864252342
% V (V) @ t=0.66
0.01356151844721272
% es.normE (V/m) @ t=0.68
16.570729452512758
% es.EX (V/m) @ t=0.68
12.840396518762912
% es.EY (V/m) @ t=0.68
-1.9675293823354245
% es.EZ (V/m) @ t=0.68
10.258081191383901
% es.tEX (V/m) @ t=0.68
12.84039651876298
% es.tEY (V/m) @ t=0.68
0
% es.tEZ (V/m) @ t=0.68
10.258081191383889
% es.Ex (V/m) @ t=0.68
12.840396518762912
% es.Ey (V/m) @ t=0.68
-1.9675293823354245
% es.Ez (V/m) @ t=0.68
10.258081191383901
% es.tEx (V/m) @ t=0.68
12.84039651876298
% es.tEy (V/m) @ t=0.68
0
% es.tEz (V/m) @ t=0.68
10.258081191383889
% V (V) @ t=0.68
0.013684653119956341
% es.normE (V/m) @ t=0.7
16.71983305995667
% es.EX (V/m) @ t=0.7
12.955934549101057
% es.EY (V/m) @ t=0.7
-1.9852332368415926
% es.EZ (V/m) @ t=0.7
10.350383518515413
% es.tEX (V/m) @ t=0.7
12.955934549101041
% es.tEY (V/m) @ t=0.7
0
% es.tEZ (V/m) @ t=0.7
10.350383518515393
% es.Ex (V/m) @ t=0.7
12.955934549101057
% es.Ey (V/m) @ t=0.7
-1.9852332368415926
% es.Ez (V/m) @ t=0.7
10.350383518515413
% es.tEx (V/m) @ t=0.7
12.955934549101041
% es.tEy (V/m) @ t=0.7
0
% es.tEz (V/m) @ t=0.7
10.350383518515393
% V (V) @ t=0.7
0.013807787792699961
% es.normE (V/m) @ t=0.72
16.86893666740055
% es.EX (V/m) @ t=0.72
13.071472579439146
% es.EY (V/m) @ t=0.72
-2.0029370913477784
% es.EZ (V/m) @ t=0.72
10.442685845646931
% es.tEX (V/m) @ t=0.72
13.07147257943916
% es.tEY (V/m) @ t=0.72
0
% es.tEZ (V/m) @ t=0.72
10.442685845646956
% es.Ex (V/m) @ t=0.72
13.071472579439146
% es.Ey (V/m) @ t=0.72
-2.0029370913477784
% es.Ez (V/m) @ t=0.72
10.442685845646931
% es.tEx (V/m) @ t=0.72
13.07147257943916
% es.tEy (V/m) @ t=0.72
0
% es.tEz (V/m) @ t=0.72
10.442685845646956
% V (V) @ t=0.72
0.013930922465443581
% es.normE (V/m) @ t=0.74
17.018040274844438
% es.EX (V/m) @ t=0.74
13.18701060977722
% es.EY (V/m) @ t=0.74
-2.020640945853927
% es.EZ (V/m) @ t=0.74
10.534988172778487
% es.tEX (V/m) @ t=0.74
13.187010609777278
% es.tEY (V/m) @ t=0.74
0
% es.tEZ (V/m) @ t=0.74
10.534988172778474
% es.Ex (V/m) @ t=0.74
13.18701060977722
% es.Ey (V/m) @ t=0.74
-2.020640945853927
% es.Ez (V/m) @ t=0.74
10.534988172778487
% es.tEx (V/m) @ t=0.74
13.187010609777278
% es.tEy (V/m) @ t=0.74
0
% es.tEz (V/m) @ t=0.74
10.534988172778474
% V (V) @ t=0.74
0.014054057138187201
% es.normE (V/m) @ t=0.76
17.1671438822884
% es.EX (V/m) @ t=0.76
13.302548640115408
% es.EY (V/m) @ t=0.76
-2.038344800360079
% es.EZ (V/m) @ t=0.76
10.627290499910021
% es.tEX (V/m) @ t=0.76
13.302548640115454
% es.tEY (V/m) @ t=0.76
0
% es.tEZ (V/m) @ t=0.76
10.627290499910007
% es.Ex (V/m) @ t=0.76
13.302548640115408
% es.Ey (V/m) @ t=0.76
-2.038344800360079
% es.Ez (V/m) @ t=0.76
10.627290499910021
% es.tEx (V/m) @ t=0.76
13.302548640115454
% es.tEy (V/m) @ t=0.76
0
% es.tEz (V/m) @ t=0.76
10.627290499910007
% V (V) @ t=0.76
0.014177191810930826
% es.normE (V/m) @ t=0.78
17.32606677619421
% es.EX (V/m) @ t=0.78
13.425695480129498
% es.EY (V/m) @ t=0.78
-2.0572145505135033
% es.EZ (V/m) @ t=0.78
10.725671439472581
% es.tEX (V/m) @ t=0.78
13.425695480129562
% es.tEY (V/m) @ t=0.78
0
% es.tEZ (V/m) @ t=0.78
10.725671439472594
% es.Ex (V/m) @ t=0.78
13.425695480129498
% es.Ey (V/m) @ t=0.78
-2.0572145505135033
% es.Ez (V/m) @ t=0.78
10.725671439472581
% es.tEx (V/m) @ t=0.78
13.425695480129562
% es.tEy (V/m) @ t=0.78
0
% es.tEz (V/m) @ t=0.78
10.725671439472594
% V (V) @ t=0.78
0.01430843557460244
% es.normE (V/m) @ t=0.8
17.491553804228907
% es.EX (V/m) @ t=0.8
13.553928763793884
% es.EY (V/m) @ t=0.8
-2.0768636949169164
% es.EZ (V/m) @ t=0.8
10.828115895001343
% es.tEX (V/m) @ t=0.8
13.553928763793934
% es.tEY (V/m) @ t=0.8
0
% es.tEZ (V/m) @ t=0.8
10.82811589500132
% es.Ex (V/m) @ t=0.8
13.553928763793884
% es.Ey (V/m) @ t=0.8
-2.0768636949169164
% es.Ez (V/m) @ t=0.8
10.828115895001343
% es.tEx (V/m) @ t=0.8
13.553928763793934
% es.tEy (V/m) @ t=0.8
0
% es.tEz (V/m) @ t=0.8
10.82811589500132
% V (V) @ t=0.8
0.01444510021694184
% es.normE (V/m) @ t=0.82
17.65704083226357
% es.EX (V/m) @ t=0.82
13.682162047458256
% es.EY (V/m) @ t=0.82
-2.0965128393204218
% es.EZ (V/m) @ t=0.82
10.930560350530053
% es.tEX (V/m) @ t=0.82
13.682162047458334
% es.tEY (V/m) @ t=0.82
0
% es.tEZ (V/m) @ t=0.82
10.930560350530058
% es.Ex (V/m) @ t=0.82
13.682162047458256
% es.Ey (V/m) @ t=0.82
-2.0965128393204218
% es.Ez (V/m) @ t=0.82
10.930560350530053
% es.tEx (V/m) @ t=0.82
13.682162047458334
% es.tEy (V/m) @ t=0.82
0
% es.tEz (V/m) @ t=0.82
10.930560350530058
% V (V) @ t=0.82
0.01458176485928124
% es.normE (V/m) @ t=0.84
17.82252786029831
% es.EX (V/m) @ t=0.84
13.810395331122713
% es.EY (V/m) @ t=0.84
-2.1161619837239236
% es.EZ (V/m) @ t=0.84
11.033004806058779
% es.tEX (V/m) @ t=0.84
13.810395331122734
% es.tEY (V/m) @ t=0.84
0
% es.tEZ (V/m) @ t=0.84
11.033004806058798
% es.Ex (V/m) @ t=0.84
13.810395331122713
% es.Ey (V/m) @ t=0.84
-2.1161619837239236
% es.Ez (V/m) @ t=0.84
11.033004806058779
% es.tEx (V/m) @ t=0.84
13.810395331122734
% es.tEy (V/m) @ t=0.84
0
% es.tEz (V/m) @ t=0.84
11.033004806058798
% V (V) @ t=0.84
0.014718429501620639
% es.normE (V/m) @ t=0.86
17.988014888332994
% es.EX (V/m) @ t=0.86
13.938628614787085
% es.EY (V/m) @ t=0.86
-2.135811128127415
% es.EZ (V/m) @ t=0.86
11.135449261587517
% es.tEX (V/m) @ t=0.86
13.938628614787165
% es.tEY (V/m) @ t=0.86
0
% es.tEZ (V/m) @ t=0.86
11.135449261587508
% es.Ex (V/m) @ t=0.86
13.938628614787085
% es.Ey (V/m) @ t=0.86
-2.135811128127415
% es.Ez (V/m) @ t=0.86
11.135449261587517
% es.tEx (V/m) @ t=0.86
13.938628614787165
% es.tEy (V/m) @ t=0.86
0
% es.tEz (V/m) @ t=0.86
11.135449261587508
% V (V) @ t=0.86
0.014855094143960041
% es.normE (V/m) @ t=0.88
18.15350191636766
% es.EX (V/m) @ t=0.88
14.066861898451457
% es.EY (V/m) @ t=0.88
-2.1554602725309095
% es.EZ (V/m) @ t=0.88
11.237893717116231
% es.tEX (V/m) @ t=0.88
14.066861898451506
% es.tEY (V/m) @ t=0.88
0
% es.tEZ (V/m) @ t=0.88
11.237893717116222
% es.Ex (V/m) @ t=0.88
14.066861898451457
% es.Ey (V/m) @ t=0.88
-2.1554602725309095
% es.Ez (V/m) @ t=0.88
11.237893717116231
% es.tEx (V/m) @ t=0.88
14.066861898451506
% es.tEy (V/m) @ t=0.88
0
% es.tEz (V/m) @ t=0.88
11.237893717116222
% V (V) @ t=0.88
0.014991758786299438
% es.normE (V/m) @ t=0.9
18.318988944402363
% es.EX (V/m) @ t=0.9
14.195095182115857
% es.EY (V/m) @ t=0.9
-2.175109416934358
% es.EZ (V/m) @ t=0.9
11.340338172644977
% es.tEX (V/m) @ t=0.9
14.195095182115907
% es.tEY (V/m) @ t=0.9
0
% es.tEZ (V/m) @ t=0.9
11.340338172644975
% es.Ex (V/m) @ t=0.9
14.195095182115857
% es.Ey (V/m) @ t=0.9
-2.175109416934358
% es.Ez (V/m) @ t=0.9
11.340338172644977
% es.tEx (V/m) @ t=0.9
14.195095182115907
% es.tEy (V/m) @ t=0.9
0
% es.tEz (V/m) @ t=0.9
11.340338172644975
% V (V) @ t=0.9
0.015128423428638838
% es.normE (V/m) @ t=0.92
18.48447597243704
% es.EX (V/m) @ t=0.92
14.323328465780229
% es.EY (V/m) @ t=0.92
-2.1947585613378706
% es.EZ (V/m) @ t=0.92
11.442782628173703
% es.tEX (V/m) @ t=0.92
14.323328465780278
% es.tEY (V/m) @ t=0.92
0
% es.tEZ (V/m) @ t=0.92
11.4427826281737
% es.Ex (V/m) @ t=0.92
14.323328465780229
% es.Ey (V/m) @ t=0.92
-2.1947585613378706
% es.Ez (V/m) @ t=0.92
11.442782628173703
% es.tEx (V/m) @ t=0.92
14.323328465780278
% es.tEy (V/m) @ t=0.92
0
% es.tEz (V/m) @ t=0.92
11.4427826281737
% V (V) @ t=0.92
0.015265088070978233
% es.normE (V/m) @ t=0.94
18.649963000471793
% es.EX (V/m) @ t=0.94
14.4515617494447
% es.EY (V/m) @ t=0.94
-2.214407705741305
% es.EZ (V/m) @ t=0.94
11.545227083702443
% es.tEX (V/m) @ t=0.94
14.451561749444766
% es.tEY (V/m) @ t=0.94
0
% es.tEZ (V/m) @ t=0.94
11.54522708370244
% es.Ex (V/m) @ t=0.94
14.4515617494447
% es.Ey (V/m) @ t=0.94
-2.214407705741305
% es.Ez (V/m) @ t=0.94
11.545227083702443
% es.tEx (V/m) @ t=0.94
14.451561749444766
% es.tEy (V/m) @ t=0.94
0
% es.tEz (V/m) @ t=0.94
11.54522708370244
% V (V) @ t=0.94
0.015401752713317634
% es.normE (V/m) @ t=0.96
18.815450028506444
% es.EX (V/m) @ t=0.96
14.57979503310903
% es.EY (V/m) @ t=0.96
-2.2340568501448352
% es.EZ (V/m) @ t=0.96
11.647671539231176
% es.tEX (V/m) @ t=0.96
14.579795033109079
% es.tEY (V/m) @ t=0.96
0
% es.tEZ (V/m) @ t=0.96
11.647671539231165
% es.Ex (V/m) @ t=0.96
14.57979503310903
% es.Ey (V/m) @ t=0.96
-2.2340568501448352
% es.Ez (V/m) @ t=0.96
11.647671539231176
% es.tEx (V/m) @ t=0.96
14.579795033109079
% es.tEy (V/m) @ t=0.96
0
% es.tEz (V/m) @ t=0.96
11.647671539231165
% V (V) @ t=0.96
0.015538417355657034
% es.normE (V/m) @ t=0.98
18.980937056541094
% es.EX (V/m) @ t=0.98
14.708028316773387
% es.EY (V/m) @ t=0.98
-2.253705994548355
% es.EZ (V/m) @ t=0.98
11.75011599475988
% es.tEX (V/m) @ t=0.98
14.708028316773424
% es.tEY (V/m) @ t=0.98
0
% es.tEZ (V/m) @ t=0.98
11.750115994759891
% es.Ex (V/m) @ t=0.98
14.708028316773387
% es.Ey (V/m) @ t=0.98
-2.253705994548355
% es.Ez (V/m) @ t=0.98
11.75011599475988
% es.tEx (V/m) @ t=0.98
14.708028316773424
% es.tEy (V/m) @ t=0.98
0
% es.tEz (V/m) @ t=0.98
11.750115994759891
% V (V) @ t=0.98
0.015675081997996436
% es.normE (V/m) @ t=1
19.14642408457579
% es.EX (V/m) @ t=1
14.836261600437787
% es.EY (V/m) @ t=1
-2.273355138951782
% es.EZ (V/m) @ t=1
11.852560450288621
% es.tEX (V/m) @ t=1
14.836261600437853
% es.tEY (V/m) @ t=1
0
% es.tEZ (V/m) @ t=1
11.85256045028863
% es.Ex (V/m) @ t=1
14.836261600437787
% es.Ey (V/m) @ t=1
-2.273355138951782
% es.Ez (V/m) @ t=1
11.852560450288621
% es.tEx (V/m) @ t=1
14.836261600437853
% es.tEy (V/m) @ t=1
0
% es.tEz (V/m) @ t=1
11.85256045028863
% V (V) @ t=1
0.01581174664033583
% es.normE (V/m) @ t=1.02
19.31191111261049
% es.EX (V/m) @ t=1.02
14.964494884102187
% es.EY (V/m) @ t=1.02
-2.2930042833552626
% es.EZ (V/m) @ t=1.02
11.955004905817354
% es.tEX (V/m) @ t=1.02
14.964494884102253
% es.tEY (V/m) @ t=1.02
0
% es.tEZ (V/m) @ t=1.02
11.955004905817342
% es.Ex (V/m) @ t=1.02
14.964494884102187
% es.Ey (V/m) @ t=1.02
-2.2930042833552626
% es.Ez (V/m) @ t=1.02
11.955004905817354
% es.tEx (V/m) @ t=1.02
14.964494884102253
% es.tEy (V/m) @ t=1.02
0
% es.tEz (V/m) @ t=1.02
11.955004905817342
% V (V) @ t=1.02
0.015948411282675233
% es.normE (V/m) @ t=1.04
19.483823916105074
% es.EX (V/m) @ t=1.04
15.09770739946008
% es.EY (V/m) @ t=1.04
-2.3134163892731188
% es.EZ (V/m) @ t=1.04
12.061427228309242
% es.tEX (V/m) @ t=1.04
15.097707399460159
% es.tEY (V/m) @ t=1.04
0
% es.tEZ (V/m) @ t=1.04
12.061427228309238
% es.Ex (V/m) @ t=1.04
15.09770739946008
% es.Ey (V/m) @ t=1.04
-2.3134163892731188
% es.Ez (V/m) @ t=1.04
12.061427228309242
% es.tEx (V/m) @ t=1.04
15.097707399460159
% es.tEy (V/m) @ t=1.04
0
% es.tEz (V/m) @ t=1.04
12.061427228309238
% V (V) @ t=1.04
0.016090382527455545
% es.normE (V/m) @ t=1.06