% Model:              1 neuron.mph
% Version:            COMSOL 6.1.0.252
% Date:               Mar 22 2023, 18:36
% Dimension:          0
% Nodes:              14017
% Expressions:        14017
% Description:        Electric field norm, Electric field, X component, Electric field, Y component, Electric field, Z component, Tangential electric field, X component, Tangential electric field, Y component, Tangential electric field, Z component, Electric field, x component, Electric field, y component, Electric field, z component, Tangential electric field, x component, Tangential electric field, y component, Tangential electric field, z component, Electric potential
% Length unit:        mm
% x
1.66
% y
12.200000000000001
% z
1.66
% es.normE (V/m) @ t=0
37.90354655088706
% es.EX (V/m) @ t=0
-17.900237642800505
% es.EY (V/m) @ t=0
14.361531091176495
% es.EZ (V/m) @ t=0
17.21595074954532
% es.tEX (V/m) @ t=0
-17.900237642800477
% es.tEY (V/m) @ t=0
0
% es.tEZ (V/m) @ t=0
17.215950749545357
% es.Ex (V/m) @ t=0
-17.900237642800505
% es.Ey (V/m) @ t=0
14.361531091176495
% es.Ez (V/m) @ t=0
17.21595074954532
% es.tEx (V/m) @ t=0
-17.900237642800477
% es.tEy (V/m) @ t=0
0
% es.tEz (V/m) @ t=0
17.215950749545357
% V (V) @ t=0
0.011895864741008521
% es.normE (V/m) @ t=0.02
32.73750291437166
% es.EX (V/m) @ t=0.02
-15.460534312362661
% es.EY (V/m) @ t=0.02
12.404133880292406
% es.EZ (V/m) @ t=0.02
14.869511935166631
% es.tEX (V/m) @ t=0.02
-15.460534312362668
% es.tEY (V/m) @ t=0.02
0
% es.tEZ (V/m) @ t=0.02
14.869511935166656
% es.Ex (V/m) @ t=0.02
-15.460534312362661
% es.Ey (V/m) @ t=0.02
12.404133880292406
% es.Ez (V/m) @ t=0.02
14.869511935166631
% es.tEx (V/m) @ t=0.02
-15.460534312362668
% es.tEy (V/m) @ t=0.02
0
% es.tEz (V/m) @ t=0.02
14.869511935166656
% V (V) @ t=0.02
0.010274524208490088
% es.normE (V/m) @ t=0.04
33.038477455423845
% es.EX (V/m) @ t=0.04
-15.60267180716454
% es.EY (V/m) @ t=0.04
12.518172154986459
% es.EZ (V/m) @ t=0.04
15.006215863828132
% es.tEX (V/m) @ t=0.04
-15.60267180716452
% es.tEY (V/m) @ t=0.04
0
% es.tEZ (V/m) @ t=0.04
15.006215863828146
% es.Ex (V/m) @ t=0.04
-15.60267180716454
% es.Ey (V/m) @ t=0.04
12.518172154986459
% es.Ez (V/m) @ t=0.04
15.006215863828132
% es.tEx (V/m) @ t=0.04
-15.60267180716452
% es.tEy (V/m) @ t=0.04
0
% es.tEz (V/m) @ t=0.04
15.006215863828146
% V (V) @ t=0.04
0.010368983775597482
% es.normE (V/m) @ t=0.06
33.34162592297419
% es.EX (V/m) @ t=0.06
-15.74583593975757
% es.EY (V/m) @ t=0.06
12.63303411927236
% es.EZ (V/m) @ t=0.06
15.143907218965346
% es.tEX (V/m) @ t=0.06
-15.745835939757548
% es.tEY (V/m) @ t=0.06
0
% es.tEZ (V/m) @ t=0.06
15.143907218965353
% es.Ex (V/m) @ t=0.06
-15.74583593975757
% es.Ey (V/m) @ t=0.06
12.63303411927236
% es.Ez (V/m) @ t=0.06
15.143907218965346
% es.tEx (V/m) @ t=0.06
-15.745835939757548
% es.tEy (V/m) @ t=0.06
0
% es.tEz (V/m) @ t=0.06
15.143907218965353
% V (V) @ t=0.06
0.0104641256241374
% es.normE (V/m) @ t=0.08
33.65062635226121
% es.EX (V/m) @ t=0.08
-15.891763746998748
% es.EY (V/m) @ t=0.08
12.750113383911035
% es.EZ (V/m) @ t=0.08
15.284256506711841
% es.tEX (V/m) @ t=0.08
-15.89176374699877
% es.tEY (V/m) @ t=0.08
0
% es.tEZ (V/m) @ t=0.08
15.284256506711841
% es.Ex (V/m) @ t=0.08
-15.891763746998748
% es.Ey (V/m) @ t=0.08
12.750113383911035
% es.Ez (V/m) @ t=0.08
15.284256506711841
% es.tEx (V/m) @ t=0.08
-15.89176374699877
% es.tEy (V/m) @ t=0.08
0
% es.tEz (V/m) @ t=0.08
15.284256506711841
% V (V) @ t=0.08
0.01056110407509436
% es.normE (V/m) @ t=0.1
33.96113934367431
% es.EX (V/m) @ t=0.1
-16.038405883859625
% es.EY (V/m) @ t=0.1
12.867765756284584
% es.EZ (V/m) @ t=0.1
15.425292792832366
% es.tEX (V/m) @ t=0.1
-16.038405883859646
% es.tEY (V/m) @ t=0.1
0
% es.tEZ (V/m) @ t=0.1
15.42529279283238
% es.Ex (V/m) @ t=0.1
-16.038405883859625
% es.Ey (V/m) @ t=0.1
12.867765756284584
% es.Ez (V/m) @ t=0.1
15.425292792832366
% es.tEx (V/m) @ t=0.1
-16.038405883859646
% es.tEy (V/m) @ t=0.1
0
% es.tEz (V/m) @ t=0.1
15.42529279283238
% V (V) @ t=0.1
0.010658557234428073
% es.normE (V/m) @ t=0.12
34.271652335087566
% es.EX (V/m) @ t=0.12
-16.185048020720544
% es.EY (V/m) @ t=0.12
12.985418128658218
% es.EZ (V/m) @ t=0.12
15.566329078953089
% es.tEX (V/m) @ t=0.12
-16.185048020720515
% es.tEY (V/m) @ t=0.12
0
% es.tEZ (V/m) @ t=0.12
15.566329078953117
% es.Ex (V/m) @ t=0.12
-16.185048020720544
% es.Ey (V/m) @ t=0.12
12.985418128658218
% es.Ez (V/m) @ t=0.12
15.566329078953089
% es.tEx (V/m) @ t=0.12
-16.185048020720515
% es.tEy (V/m) @ t=0.12
0
% es.tEz (V/m) @ t=0.12
15.566329078953117
% V (V) @ t=0.12
0.010756010393761787
% es.normE (V/m) @ t=0.14
34.59141224435488
% es.EX (V/m) @ t=0.14
-16.336057122679833
% es.EY (V/m) @ t=0.14
13.106574138395061
% es.EZ (V/m) @ t=0.14
15.711565305339164
% es.tEX (V/m) @ t=0.14
-16.336057122679797
% es.tEY (V/m) @ t=0.14
0
% es.tEZ (V/m) @ t=0.14
15.71156530533915
% es.Ex (V/m) @ t=0.14
-16.336057122679833
% es.Ey (V/m) @ t=0.14
13.106574138395061
% es.Ez (V/m) @ t=0.14
15.711565305339164
% es.tEx (V/m) @ t=0.14
-16.336057122679797
% es.tEy (V/m) @ t=0.14
0
% es.tEz (V/m) @ t=0.14
15.71156530533915
% V (V) @ t=0.14
0.01085636564871285
% es.normE (V/m) @ t=0.16
34.91745378664915
% es.EX (V/m) @ t=0.16
-16.490032799299158
% es.EY (V/m) @ t=0.16
13.230110245427426
% es.EZ (V/m) @ t=0.16
15.859654642772611
% es.tEX (V/m) @ t=0.16
-16.49003279929915
% es.tEY (V/m) @ t=0.16
0
% es.tEZ (V/m) @ t=0.16
15.859654642772568
% es.Ex (V/m) @ t=0.16
-16.490032799299158
% es.Ey (V/m) @ t=0.16
13.230110245427426
% es.Ez (V/m) @ t=0.16
15.859654642772611
% es.tEx (V/m) @ t=0.16
-16.49003279929915
% es.tEy (V/m) @ t=0.16
0
% es.tEz (V/m) @ t=0.16
15.859654642772568
% V (V) @ t=0.16
0.010958692360528257
% es.normE (V/m) @ t=0.18
35.24349532894361
% es.EX (V/m) @ t=0.18
-16.644008475918554
% es.EY (V/m) @ t=0.18
13.353646352459883
% es.EZ (V/m) @ t=0.18
16.0077439802061
% es.tEX (V/m) @ t=0.18
-16.644008475918525
% es.tEY (V/m) @ t=0.18
0
% es.tEZ (V/m) @ t=0.18
16.0077439802061
% es.Ex (V/m) @ t=0.18
-16.644008475918554
% es.Ey (V/m) @ t=0.18
13.353646352459883
% es.Ez (V/m) @ t=0.18
16.0077439802061
% es.tEx (V/m) @ t=0.18
-16.644008475918525
% es.tEy (V/m) @ t=0.18
0
% es.tEz (V/m) @ t=0.18
16.0077439802061
% V (V) @ t=0.18
0.011061019072343664
% es.normE (V/m) @ t=0.2
35.569536871238
% es.EX (V/m) @ t=0.2
-16.797984152537964
% es.EY (V/m) @ t=0.2
13.477182459492155
% es.EZ (V/m) @ t=0.2
16.155833317639598
% es.tEX (V/m) @ t=0.2
-16.79798415253798
% es.tEY (V/m) @ t=0.2
0
% es.tEZ (V/m) @ t=0.2
16.155833317639576
% es.Ex (V/m) @ t=0.2
-16.797984152537964
% es.Ey (V/m) @ t=0.2
13.477182459492155
% es.Ez (V/m) @ t=0.2
16.155833317639598
% es.tEx (V/m) @ t=0.2
-16.79798415253798
% es.tEy (V/m) @ t=0.2
0
% es.tEz (V/m) @ t=0.2
16.155833317639576
% V (V) @ t=0.2
0.011163345784159071
% es.normE (V/m) @ t=0.22
35.89557841353227
% es.EX (V/m) @ t=0.22
-16.951959829157346
% es.EY (V/m) @ t=0.22
13.600718566524513
% es.EZ (V/m) @ t=0.22
16.303922655073002
% es.tEX (V/m) @ t=0.22
-16.951959829157303
% es.tEY (V/m) @ t=0.22
0
% es.tEZ (V/m) @ t=0.22
16.303922655072995
% es.Ex (V/m) @ t=0.22
-16.951959829157346
% es.Ey (V/m) @ t=0.22
13.600718566524513
% es.Ez (V/m) @ t=0.22
16.303922655073002
% es.tEx (V/m) @ t=0.22
-16.951959829157303
% es.tEy (V/m) @ t=0.22
0
% es.tEz (V/m) @ t=0.22
16.303922655072995
% V (V) @ t=0.22
0.011265672495974476
% es.normE (V/m) @ t=0.24
36.22161995582673
% es.EX (V/m) @ t=0.24
-17.10593550577677
% es.EY (V/m) @ t=0.24
13.724254673556885
% es.EZ (V/m) @ t=0.24
16.45201199250652
% es.tEX (V/m) @ t=0.24
-17.105935505776785
% es.tEY (V/m) @ t=0.24
0
% es.tEZ (V/m) @ t=0.24
16.45201199250647
% es.Ex (V/m) @ t=0.24
-17.10593550577677
% es.Ey (V/m) @ t=0.24
13.724254673556885
% es.Ez (V/m) @ t=0.24
16.45201199250652
% es.tEx (V/m) @ t=0.24
-17.105935505776785
% es.tEy (V/m) @ t=0.24
0
% es.tEz (V/m) @ t=0.24
16.45201199250647
% V (V) @ t=0.24
0.011367999207789886
% es.normE (V/m) @ t=0.26
36.554502233485394
% es.EX (V/m) @ t=0.26
-17.26314113852233
% es.EY (V/m) @ t=0.26
13.850382544086685
% es.EZ (V/m) @ t=0.26
16.60320923607611
% es.tEX (V/m) @ t=0.26
-17.26314113852228
% es.tEY (V/m) @ t=0.26
0
% es.tEZ (V/m) @ t=0.26
16.60320923607611
% es.Ex (V/m) @ t=0.26
-17.26314113852233
% es.Ey (V/m) @ t=0.26
13.850382544086685
% es.Ez (V/m) @ t=0.26
16.60320923607611
% es.tEx (V/m) @ t=0.26
-17.26314113852228
% es.tEy (V/m) @ t=0.26
0
% es.tEz (V/m) @ t=0.26
16.60320923607611
% V (V) @ t=0.26
0.011472473016841182
% es.normE (V/m) @ t=0.28
36.9152321760003
% es.EX (V/m) @ t=0.28
-17.43349546521803
% es.EY (V/m) @ t=0.28
13.987061116758888
% es.EZ (V/m) @ t=0.28
16.767058325371607
% es.tEX (V/m) @ t=0.28
-17.433495465218023
% es.tEY (V/m) @ t=0.28
0
% es.tEZ (V/m) @ t=0.28
16.76705832537158
% es.Ex (V/m) @ t=0.28
-17.43349546521803
% es.Ey (V/m) @ t=0.28
13.987061116758888
% es.Ez (V/m) @ t=0.28
16.767058325371607
% es.tEx (V/m) @ t=0.28
-17.433495465218023
% es.tEy (V/m) @ t=0.28
0
% es.tEz (V/m) @ t=0.28
16.76705832537158
% V (V) @ t=0.28
0.011585687354659348
% es.normE (V/m) @ t=0.3
37.27596211851611
% es.EX (V/m) @ t=0.3
-17.603849791913902
% es.EY (V/m) @ t=0.3
14.123739689431055
% es.EZ (V/m) @ t=0.3
16.930907414667217
% es.tEX (V/m) @ t=0.3
-17.603849791913888
% es.tEY (V/m) @ t=0.3
0
% es.tEZ (V/m) @ t=0.3
16.930907414667217
% es.Ex (V/m) @ t=0.3
-17.603849791913902
% es.Ey (V/m) @ t=0.3
14.123739689431055
% es.Ez (V/m) @ t=0.3
16.930907414667217
% es.tEx (V/m) @ t=0.3
-17.603849791913888
% es.tEy (V/m) @ t=0.3
0
% es.tEz (V/m) @ t=0.3
16.930907414667217
% V (V) @ t=0.3
0.01169890169247752
% es.normE (V/m) @ t=0.32
37.63669206103258
% es.EX (V/m) @ t=0.32
-17.77420411860969
% es.EY (V/m) @ t=0.32
14.260418262103258
% es.EZ (V/m) @ t=0.32
17.094756503962778
% es.tEX (V/m) @ t=0.32
-17.774204118609674
% es.tEY (V/m) @ t=0.32
0
% es.tEZ (V/m) @ t=0.32
17.0947565039628
% es.Ex (V/m) @ t=0.32
-17.77420411860969
% es.Ey (V/m) @ t=0.32
14.260418262103258
% es.Ez (V/m) @ t=0.32
17.094756503962778
% es.tEx (V/m) @ t=0.32
-17.774204118609674
% es.tEy (V/m) @ t=0.32
0
% es.tEz (V/m) @ t=0.32
17.0947565039628
% V (V) @ t=0.32
0.011812116030295689
% es.normE (V/m) @ t=0.34
37.9974220035497
% es.EX (V/m) @ t=0.34
-17.944558445305447
% es.EY (V/m) @ t=0.34
14.397096834775354
% es.EZ (V/m) @ t=0.34
17.258605593258288
% es.tEX (V/m) @ t=0.34
-17.944558445305418
% es.tEY (V/m) @ t=0.34
0
% es.tEZ (V/m) @ t=0.34
17.258605593258324
% es.Ex (V/m) @ t=0.34
-17.944558445305447
% es.Ey (V/m) @ t=0.34
14.397096834775354
% es.Ez (V/m) @ t=0.34
17.258605593258288
% es.tEx (V/m) @ t=0.34
-17.944558445305418
% es.tEy (V/m) @ t=0.34
0
% es.tEz (V/m) @ t=0.34
17.258605593258324
% V (V) @ t=0.34
0.011925330368113857
% es.normE (V/m) @ t=0.36
38.35815194606767
% es.EX (V/m) @ t=0.36
-18.114912772001304
% es.EY (V/m) @ t=0.36
14.533775407447571
% es.EZ (V/m) @ t=0.36
17.422454682553884
% es.tEX (V/m) @ t=0.36
-18.114912772001247
% es.tEY (V/m) @ t=0.36
0
% es.tEZ (V/m) @ t=0.36
17.422454682553905
% es.Ex (V/m) @ t=0.36
-18.114912772001304
% es.Ey (V/m) @ t=0.36
14.533775407447571
% es.Ez (V/m) @ t=0.36
17.422454682553884
% es.tEx (V/m) @ t=0.36
-18.114912772001247
% es.tEy (V/m) @ t=0.36
0
% es.tEz (V/m) @ t=0.36
17.422454682553905
% V (V) @ t=0.36
0.012038544705932026
% es.normE (V/m) @ t=0.38
38.71888188858617
% es.EX (V/m) @ t=0.38
-18.285267098697048
% es.EY (V/m) @ t=0.38
14.670453980119767
% es.EZ (V/m) @ t=0.38
17.58630377184945
% es.tEX (V/m) @ t=0.38
-18.28526709869702
% es.tEY (V/m) @ t=0.38
0
% es.tEZ (V/m) @ t=0.38
17.58630377184943
% es.Ex (V/m) @ t=0.38
-18.285267098697048
% es.Ey (V/m) @ t=0.38
14.670453980119767
% es.Ez (V/m) @ t=0.38
17.58630377184945
% es.tEx (V/m) @ t=0.38
-18.28526709869702
% es.tEy (V/m) @ t=0.38
0
% es.tEz (V/m) @ t=0.38
17.58630377184943
% V (V) @ t=0.38
0.012151759043750196
% es.normE (V/m) @ t=0.4
39.079611831105254
% es.EX (V/m) @ t=0.4
-18.45562142539282
% es.EY (V/m) @ t=0.4
14.807132552791828
% es.EZ (V/m) @ t=0.4
17.75015286114496
% es.tEX (V/m) @ t=0.4
-18.455621425392835
% es.tEY (V/m) @ t=0.4
0
% es.tEZ (V/m) @ t=0.4
17.750152861144954
% es.Ex (V/m) @ t=0.4
-18.45562142539282
% es.Ey (V/m) @ t=0.4
14.807132552791828
% es.Ez (V/m) @ t=0.4
17.75015286114496
% es.tEx (V/m) @ t=0.4
-18.455621425392835
% es.tEy (V/m) @ t=0.4
0
% es.tEz (V/m) @ t=0.4
17.750152861144954
% V (V) @ t=0.4
0.012264973381568366
% es.normE (V/m) @ t=0.42
39.440341773625235
% es.EX (V/m) @ t=0.42
-18.625975752088664
% es.EY (V/m) @ t=0.42
14.943811125464066
% es.EZ (V/m) @ t=0.42
17.91400195044062
% es.tEX (V/m) @ t=0.42
-18.625975752088628
% es.tEY (V/m) @ t=0.42
0
% es.tEZ (V/m) @ t=0.42
17.914001950440593
% es.Ex (V/m) @ t=0.42
-18.625975752088664
% es.Ey (V/m) @ t=0.42
14.943811125464066
% es.Ez (V/m) @ t=0.42
17.91400195044062
% es.tEx (V/m) @ t=0.42
-18.625975752088628
% es.tEy (V/m) @ t=0.42
0
% es.tEz (V/m) @ t=0.42
17.914001950440593
% V (V) @ t=0.42
0.012378187719386535
% es.normE (V/m) @ t=0.44
39.80107171614562
% es.EX (V/m) @ t=0.44
-18.796330078784436
% es.EY (V/m) @ t=0.44
15.08048969813629
% es.EZ (V/m) @ t=0.44
18.077851039736153
% es.tEX (V/m) @ t=0.44
-18.796330078784408
% es.tEY (V/m) @ t=0.44
0
% es.tEZ (V/m) @ t=0.44
18.077851039736117
% es.Ex (V/m) @ t=0.44
-18.796330078784436
% es.Ey (V/m) @ t=0.44
15.08048969813629
% es.Ez (V/m) @ t=0.44
18.077851039736153
% es.tEx (V/m) @ t=0.44
-18.796330078784408
% es.tEy (V/m) @ t=0.44
0
% es.tEz (V/m) @ t=0.44
18.077851039736117
% V (V) @ t=0.44
0.012491402057204703
% es.normE (V/m) @ t=0.46
40.1618016586666
% es.EX (V/m) @ t=0.46
-18.966684405480223
% es.EY (V/m) @ t=0.46
15.217168270808365
% es.EZ (V/m) @ t=0.46
18.241700129031706
% es.tEX (V/m) @ t=0.46
-18.966684405480187
% es.tEY (V/m) @ t=0.46
0
% es.tEZ (V/m) @ t=0.46
18.2417001290317
% es.Ex (V/m) @ t=0.46
-18.966684405480223
% es.Ey (V/m) @ t=0.46
15.217168270808365
% es.Ez (V/m) @ t=0.46
18.241700129031706
% es.tEx (V/m) @ t=0.46
-18.966684405480187
% es.tEy (V/m) @ t=0.46
0
% es.tEz (V/m) @ t=0.46
18.2417001290317
% V (V) @ t=0.46
0.012604616395022871
% es.normE (V/m) @ t=0.48
40.522531601188234
% es.EX (V/m) @ t=0.48
-19.137038732176038
% es.EY (V/m) @ t=0.48
15.353846843480625
% es.EZ (V/m) @ t=0.48
18.405549218327295
% es.tEX (V/m) @ t=0.48
-19.137038732176023
% es.tEY (V/m) @ t=0.48
0
% es.tEZ (V/m) @ t=0.48
18.405549218327337
% es.Ex (V/m) @ t=0.48
-19.137038732176038
% es.Ey (V/m) @ t=0.48
15.353846843480625
% es.Ez (V/m) @ t=0.48
18.405549218327295
% es.tEx (V/m) @ t=0.48
-19.137038732176023
% es.tEy (V/m) @ t=0.48
0
% es.tEz (V/m) @ t=0.48
18.405549218327337
% V (V) @ t=0.48
0.012717830732841042
% es.normE (V/m) @ t=0.5
40.88326154371036
% es.EX (V/m) @ t=0.5
-19.30739305887184
% es.EY (V/m) @ t=0.5
15.49052541615277
% es.EZ (V/m) @ t=0.5
18.569398307622798
% es.tEX (V/m) @ t=0.5
-19.307393058871817
% es.tEY (V/m) @ t=0.5
0
% es.tEZ (V/m) @ t=0.5
18.56939830762275
% es.Ex (V/m) @ t=0.5
-19.30739305887184
% es.Ey (V/m) @ t=0.5
15.49052541615277
% es.Ez (V/m) @ t=0.5
18.569398307622798
% es.tEx (V/m) @ t=0.5
-19.307393058871817
% es.tEy (V/m) @ t=0.5
0
% es.tEz (V/m) @ t=0.5
18.56939830762275
% V (V) @ t=0.5
0.01283104507065921
% es.normE (V/m) @ t=0.52
41.259607369659314
% es.EX (V/m) @ t=0.52
-19.485122270709525
% es.EY (V/m) @ t=0.52
15.63312084122773
% es.EZ (V/m) @ t=0.52
18.7403399831445
% es.tEX (V/m) @ t=0.52
-19.48512227070951
% es.tEY (V/m) @ t=0.52
0
% es.tEZ (V/m) @ t=0.52
18.74033998314451
% es.Ex (V/m) @ t=0.52
-19.485122270709525
% es.Ey (V/m) @ t=0.52
15.63312084122773
% es.Ez (V/m) @ t=0.52
18.7403399831445
% es.tEx (V/m) @ t=0.52
-19.48512227070951
% es.tEy (V/m) @ t=0.52
0
% es.tEz (V/m) @ t=0.52
18.74033998314451
% V (V) @ t=0.52
0.012949160343593058
% es.normE (V/m) @ t=0.54
41.65931282266656
% es.EX (V/m) @ t=0.54
-19.673883491547812
% es.EY (V/m) @ t=0.54
15.784567220277637
% es.EZ (V/m) @ t=0.54
18.921891379845405
% es.tEX (V/m) @ t=0.54
-19.673883491547798
% es.tEY (V/m) @ t=0.54
0
% es.tEZ (V/m) @ t=0.54
18.92189137984542
% es.Ex (V/m) @ t=0.54
-19.673883491547812
% es.Ey (V/m) @ t=0.54
15.784567220277637
% es.Ez (V/m) @ t=0.54
18.921891379845405
% es.tEx (V/m) @ t=0.54
-19.673883491547798
% es.tEy (V/m) @ t=0.54
0
% es.tEz (V/m) @ t=0.54
18.92189137984542
% V (V) @ t=0.54
0.013074606871084318
% es.normE (V/m) @ t=0.56
42.05901827567416
% es.EX (V/m) @ t=0.56
-19.862644712386086
% es.EY (V/m) @ t=0.56
15.936013599327644
% es.EZ (V/m) @ t=0.56
19.103442776546345
% es.tEX (V/m) @ t=0.56
-19.86264471238613
% es.tEY (V/m) @ t=0.56
0
% es.tEZ (V/m) @ t=0.56
19.103442776546274
% es.Ex (V/m) @ t=0.56
-19.862644712386086
% es.Ey (V/m) @ t=0.56
15.936013599327644
% es.Ez (V/m) @ t=0.56
19.103442776546345
% es.tEx (V/m) @ t=0.56
-19.86264471238613
% es.tEy (V/m) @ t=0.56
0
% es.tEz (V/m) @ t=0.56
19.103442776546274
% V (V) @ t=0.56
0.013200053398575579
% es.normE (V/m) @ t=0.58
42.458723728682074
% es.EX (V/m) @ t=0.58
-20.051405933224416
% es.EY (V/m) @ t=0.58
16.087459978377545
% es.EZ (V/m) @ t=0.58
19.28499417324717
% es.tEX (V/m) @ t=0.58
-20.0514059332244
% es.tEY (V/m) @ t=0.58
0
% es.tEZ (V/m) @ t=0.58
19.284994173247185
% es.Ex (V/m) @ t=0.58
-20.051405933224416
% es.Ey (V/m) @ t=0.58
16.087459978377545
% es.Ez (V/m) @ t=0.58
19.28499417324717
% es.tEx (V/m) @ t=0.58
-20.0514059332244
% es.tEy (V/m) @ t=0.58
0
% es.tEz (V/m) @ t=0.58
19.284994173247185
% V (V) @ t=0.58
0.013325499926066835
% es.normE (V/m) @ t=0.6
42.858429181690326
% es.EX (V/m) @ t=0.6
-20.240167154062604
% es.EY (V/m) @ t=0.6
16.23890635742749
% es.EZ (V/m) @ t=0.6
19.466545569948053
% es.tEX (V/m) @ t=0.6
-20.240167154062647
% es.tEY (V/m) @ t=0.6
0
% es.tEZ (V/m) @ t=0.6
19.46654556994804
% es.Ex (V/m) @ t=0.6
-20.240167154062604
% es.Ey (V/m) @ t=0.6
16.23890635742749
% es.Ez (V/m) @ t=0.6
19.466545569948053
% es.tEx (V/m) @ t=0.6
-20.240167154062647
% es.tEy (V/m) @ t=0.6
0
% es.tEz (V/m) @ t=0.6
19.46654556994804
% V (V) @ t=0.6
0.013450946453558096
% es.normE (V/m) @ t=0.62
43.258134634698884
% es.EX (V/m) @ t=0.62
-20.428928374900877
% es.EY (V/m) @ t=0.62
16.390352736477453
% es.EZ (V/m) @ t=0.62
19.64809696664888
% es.tEX (V/m) @ t=0.62
-20.428928374900877
% es.tEY (V/m) @ t=0.62
0
% es.tEZ (V/m) @ t=0.62
19.648096966648893
% es.Ex (V/m) @ t=0.62
-20.428928374900877
% es.Ey (V/m) @ t=0.62
16.390352736477453
% es.Ez (V/m) @ t=0.62
19.64809696664888
% es.tEx (V/m) @ t=0.62
-20.428928374900877
% es.tEy (V/m) @ t=0.62
0
% es.tEz (V/m) @ t=0.62
19.648096966648893
% V (V) @ t=0.62
0.013576392981049354
% es.normE (V/m) @ t=0.64
43.65784008770787
% es.EX (V/m) @ t=0.64
-20.617689595739193
% es.EY (V/m) @ t=0.64
16.541799115527347
% es.EZ (V/m) @ t=0.64
19.82964836334976
% es.tEX (V/m) @ t=0.64
-20.61768959573915
% es.tEY (V/m) @ t=0.64
0
% es.tEZ (V/m) @ t=0.64
19.829648363349804
% es.Ex (V/m) @ t=0.64
-20.617689595739193
% es.Ey (V/m) @ t=0.64
16.541799115527347
% es.Ez (V/m) @ t=0.64
19.82964836334976
% es.tEx (V/m) @ t=0.64
-20.61768959573915
% es.tEy (V/m) @ t=0.64
0
% es.tEz (V/m) @ t=0.64
19.829648363349804
% V (V) @ t=0.64
0.013701839508540613
% es.normE (V/m) @ t=0.66
44.05754554071714
% es.EX (V/m) @ t=0.66
-20.80645081657748
% es.EY (V/m) @ t=0.66
16.69324549457729
% es.EZ (V/m) @ t=0.66
20.011199760050673
% es.tEX (V/m) @ t=0.66
-20.806450816577467
% es.tEY (V/m) @ t=0.66
0
% es.tEZ (V/m) @ t=0.66
20.0111997600506
% es.Ex (V/m) @ t=0.66
-20.80645081657748
% es.Ey (V/m) @ t=0.66
16.69324549457729
% es.Ez (V/m) @ t=0.66
20.011199760050673
% es.tEx (V/m) @ t=0.66
-20.806450816577467
% es.tEy (V/m) @ t=0.66
0
% es.tEz (V/m) @ t=0.66
20.0111997600506
% V (V) @ t=0.66
0.01382728603603187
% es.normE (V/m) @ t=0.68
44.45725099372668
% es.EX (V/m) @ t=0.68
-20.995212037415712
% es.EY (V/m) @ t=0.68
16.84469187362724
% es.EZ (V/m) @ t=0.68
20.19275115675154
% es.tEX (V/m) @ t=0.68
-20.995212037415783
% es.tEY (V/m) @ t=0.68
0
% es.tEZ (V/m) @ t=0.68
20.19275115675157
% es.Ex (V/m) @ t=0.68
-20.995212037415712
% es.Ey (V/m) @ t=0.68
16.84469187362724
% es.Ez (V/m) @ t=0.68
20.19275115675154
% es.tEx (V/m) @ t=0.68
-20.995212037415783
% es.tEy (V/m) @ t=0.68
0
% es.tEz (V/m) @ t=0.68
20.19275115675157
% V (V) @ t=0.68
0.013952732563523133
% es.normE (V/m) @ t=0.7
44.85695644673658
% es.EX (V/m) @ t=0.7
-21.183973258254056
% es.EY (V/m) @ t=0.7
16.99613825267719
% es.EZ (V/m) @ t=0.7
20.37430255345246
% es.tEX (V/m) @ t=0.7
-21.183973258254028
% es.tEY (V/m) @ t=0.7
0
% es.tEZ (V/m) @ t=0.7
20.374302553452424
% es.Ex (V/m) @ t=0.7
-21.183973258254056
% es.Ey (V/m) @ t=0.7
16.99613825267719
% es.Ez (V/m) @ t=0.7
20.37430255345246
% es.tEx (V/m) @ t=0.7
-21.183973258254028
% es.tEy (V/m) @ t=0.7
0
% es.tEz (V/m) @ t=0.7
20.374302553452424
% V (V) @ t=0.7
0.014078179091014394
% es.normE (V/m) @ t=0.72
45.25666189974675
% es.EX (V/m) @ t=0.72
-21.372734479092287
% es.EY (V/m) @ t=0.72
17.147584631727135
% es.EZ (V/m) @ t=0.72
20.55585395015334
% es.tEX (V/m) @ t=0.72
-21.372734479092273
% es.tEY (V/m) @ t=0.72
0
% es.tEZ (V/m) @ t=0.72
20.55585395015339
% es.Ex (V/m) @ t=0.72
-21.372734479092287
% es.Ey (V/m) @ t=0.72
17.147584631727135
% es.Ez (V/m) @ t=0.72
20.55585395015334
% es.tEx (V/m) @ t=0.72
-21.372734479092273
% es.tEy (V/m) @ t=0.72
0
% es.tEz (V/m) @ t=0.72
20.55585395015339
% V (V) @ t=0.72
0.01420362561850565
% es.normE (V/m) @ t=0.74
45.6563673527572
% es.EX (V/m) @ t=0.74
-21.56149569993056
% es.EY (V/m) @ t=0.74
17.299031010777135
% es.EZ (V/m) @ t=0.74
20.737405346854217
% es.tEX (V/m) @ t=0.74
-21.56149569993054
% es.tEY (V/m) @ t=0.74
0
% es.tEZ (V/m) @ t=0.74
20.737405346854246
% es.Ex (V/m) @ t=0.74
-21.56149569993056
% es.Ey (V/m) @ t=0.74
17.299031010777135
% es.Ez (V/m) @ t=0.74
20.737405346854217
% es.tEx (V/m) @ t=0.74
-21.56149569993054
% es.tEy (V/m) @ t=0.74
0
% es.tEz (V/m) @ t=0.74
20.737405346854246
% V (V) @ t=0.74
0.014329072145996909
% es.normE (V/m) @ t=0.76
46.05607280576777
% es.EX (V/m) @ t=0.76
-21.75025692076879
% es.EY (V/m) @ t=0.76
17.45047738982695
% es.EZ (V/m) @ t=0.76
20.918956743555015
% es.tEX (V/m) @ t=0.76
-21.75025692076879
% es.tEY (V/m) @ t=0.76
0
% es.tEZ (V/m) @ t=0.76
20.918956743554986
% es.Ex (V/m) @ t=0.76
-21.75025692076879
% es.Ey (V/m) @ t=0.76
17.45047738982695
% es.Ez (V/m) @ t=0.76
20.918956743555015
% es.tEx (V/m) @ t=0.76
-21.75025692076879
% es.tEy (V/m) @ t=0.76
0
% es.tEz (V/m) @ t=0.76
20.918956743554986
% V (V) @ t=0.76
0.014454518673488168
% es.normE (V/m) @ t=0.78
46.482290403609795
% es.EX (V/m) @ t=0.78
-21.95153975955816
% es.EY (V/m) @ t=0.78
17.611969416128282
% es.EZ (V/m) @ t=0.78
21.112548708672072
% es.tEX (V/m) @ t=0.78
-21.95153975955816
% es.tEY (V/m) @ t=0.78
0
% es.tEZ (V/m) @ t=0.78
21.11254870867208
% es.Ex (V/m) @ t=0.78
-21.95153975955816
% es.Ey (V/m) @ t=0.78
17.611969416128282
% es.Ez (V/m) @ t=0.78
21.112548708672072
% es.tEx (V/m) @ t=0.78
-21.95153975955816
% es.tEy (V/m) @ t=0.78
0
% es.tEz (V/m) @ t=0.78
21.11254870867208
% V (V) @ t=0.78
0.014588285653498727
% es.normE (V/m) @ t=0.8
46.92588196633508
% es.EX (V/m) @ t=0.8
-22.161028277365716
% es.EY (V/m) @ t=0.8
17.780044565888126
% es.EZ (V/m) @ t=0.8
21.314031110951674
% es.tEX (V/m) @ t=0.8
-22.161028277365766
% es.tEY (V/m) @ t=0.8
0
% es.tEZ (V/m) @ t=0.8
21.314031110951646
% es.Ex (V/m) @ t=0.8
-22.161028277365716
% es.Ey (V/m) @ t=0.8
17.780044565888126
% es.Ez (V/m) @ t=0.8
21.314031110951674
% es.tEx (V/m) @ t=0.8
-22.161028277365766
% es.tEy (V/m) @ t=0.8
0
% es.tEz (V/m) @ t=0.8
21.314031110951646
% V (V) @ t=0.8
0.014727505200655631
% es.normE (V/m) @ t=0.82
47.36947352906047
% es.EX (V/m) @ t=0.82
-22.370516795173288
% es.EY (V/m) @ t=0.82
17.948119715648104
% es.EZ (V/m) @ t=0.82
21.515513513231284
% es.tEX (V/m) @ t=0.82
-22.370516795173252
% es.tEY (V/m) @ t=0.82
0
% es.tEZ (V/m) @ t=0.82
21.515513513231213
% es.Ex (V/m) @ t=0.82
-22.370516795173288
% es.Ey (V/m) @ t=0.82
17.948119715648104
% es.Ez (V/m) @ t=0.82
21.515513513231284
% es.tEx (V/m) @ t=0.82
-22.370516795173252
% es.tEy (V/m) @ t=0.82
0
% es.tEz (V/m) @ t=0.82
21.515513513231213
% V (V) @ t=0.82
0.014866724747812532
% es.normE (V/m) @ t=0.84
47.81306509178579
% es.EX (V/m) @ t=0.84
-22.580005312980788
% es.EY (V/m) @ t=0.84
18.116194865407962
% es.EZ (V/m) @ t=0.84
21.7169959155109
% es.tEX (V/m) @ t=0.84
-22.580005312980774
% es.tEY (V/m) @ t=0.84
0
% es.tEZ (V/m) @ t=0.84
21.716995915510893
% es.Ex (V/m) @ t=0.84
-22.580005312980788
% es.Ey (V/m) @ t=0.84
18.116194865407962
% es.Ez (V/m) @ t=0.84
21.7169959155109
% es.tEx (V/m) @ t=0.84
-22.580005312980774
% es.tEy (V/m) @ t=0.84
0
% es.tEz (V/m) @ t=0.84
21.716995915510893
% V (V) @ t=0.84
0.015005944294969435
% es.normE (V/m) @ t=0.86
48.25665665451113
% es.EX (V/m) @ t=0.86
-22.78949383078833
% es.EY (V/m) @ t=0.86
18.284270015167955
% es.EZ (V/m) @ t=0.86
21.91847831779053
% es.tEX (V/m) @ t=0.86
-22.78949383078833
% es.tEY (V/m) @ t=0.86
0
% es.tEZ (V/m) @ t=0.86
21.918478317790573
% es.Ex (V/m) @ t=0.86
-22.78949383078833
% es.Ey (V/m) @ t=0.86
18.284270015167955
% es.Ez (V/m) @ t=0.86
21.91847831779053
% es.tEx (V/m) @ t=0.86
-22.78949383078833
% es.tEy (V/m) @ t=0.86
0
% es.tEz (V/m) @ t=0.86
21.918478317790573
% V (V) @ t=0.86
0.015145163842126337
% es.normE (V/m) @ t=0.88
48.70024821723648
% es.EX (V/m) @ t=0.88
-22.99898234859586
% es.EY (V/m) @ t=0.88
18.452345164927813
% es.EZ (V/m) @ t=0.88
22.11996072007011
% es.tEX (V/m) @ t=0.88
-22.998982348595845
% es.tEY (V/m) @ t=0.88
0
% es.tEZ (V/m) @ t=0.88
22.119960720070083
% es.Ex (V/m) @ t=0.88
-22.99898234859586
% es.Ey (V/m) @ t=0.88
18.452345164927813
% es.Ez (V/m) @ t=0.88
22.11996072007011
% es.tEx (V/m) @ t=0.88
-22.998982348595845
% es.tEy (V/m) @ t=0.88
0
% es.tEz (V/m) @ t=0.88
22.119960720070083
% V (V) @ t=0.88
0.015284383389283236
% es.normE (V/m) @ t=0.9
49.143839779961745
% es.EX (V/m) @ t=0.9
-23.208470866403346
% es.EY (V/m) @ t=0.9
18.62042031468767
% es.EZ (V/m) @ t=0.9
22.32144312234975
% es.tEX (V/m) @ t=0.9
-23.20847086640331
% es.tEY (V/m) @ t=0.9
0
% es.tEZ (V/m) @ t=0.9
22.321443122349706
% es.Ex (V/m) @ t=0.9
-23.208470866403346
% es.Ey (V/m) @ t=0.9
18.62042031468767
% es.Ez (V/m) @ t=0.9
22.32144312234975
% es.tEx (V/m) @ t=0.9
-23.20847086640331
% es.tEy (V/m) @ t=0.9
0
% es.tEz (V/m) @ t=0.9
22.321443122349706
% V (V) @ t=0.9
0.015423602936440139
% es.normE (V/m) @ t=0.92
49.587431342687125
% es.EX (V/m) @ t=0.92
-23.417959384210874
% es.EY (V/m) @ t=0.92
18.7884954644476
% es.EZ (V/m) @ t=0.92
22.522925524629386
% es.tEX (V/m) @ t=0.92
-23.417959384210874
% es.tEY (V/m) @ t=0.92
0
% es.tEZ (V/m) @ t=0.92
22.522925524629386
% es.Ex (V/m) @ t=0.92
-23.417959384210874
% es.Ey (V/m) @ t=0.92
18.7884954644476
% es.Ez (V/m) @ t=0.92
22.522925524629386
% es.tEx (V/m) @ t=0.92
-23.417959384210874
% es.tEy (V/m) @ t=0.92
0
% es.tEz (V/m) @ t=0.92
22.522925524629386
% V (V) @ t=0.92
0.01556282248359704
% es.normE (V/m) @ t=0.94
50.03102290541262
% es.EX (V/m) @ t=0.94
-23.62744790201846
% es.EY (V/m) @ t=0.94
18.956570614207536
% es.EZ (V/m) @ t=0.94
22.724407926909073
% es.tEX (V/m) @ t=0.94
-23.62744790201848
% es.tEY (V/m) @ t=0.94
0
% es.tEZ (V/m) @ t=0.94
22.724407926909066
% es.Ex (V/m) @ t=0.94
-23.62744790201846
% es.Ey (V/m) @ t=0.94
18.956570614207536
% es.Ez (V/m) @ t=0.94
22.724407926909073
% es.tEx (V/m) @ t=0.94
-23.62744790201848
% es.tEy (V/m) @ t=0.94
0
% es.tEz (V/m) @ t=0.94
22.724407926909066
% V (V) @ t=0.94
0.01570204203075394
% es.normE (V/m) @ t=0.96
50.474614468137815
% es.EX (V/m) @ t=0.96
-23.836936419825918
% es.EY (V/m) @ t=0.96
19.12464576396743
% es.EZ (V/m) @ t=0.96
22.92589032918866
% es.tEX (V/m) @ t=0.96
-23.83693641982589
% es.tEY (V/m) @ t=0.96
0
% es.tEZ (V/m) @ t=0.96
22.92589032918869
% es.Ex (V/m) @ t=0.96
-23.836936419825918
% es.Ey (V/m) @ t=0.96
19.12464576396743
% es.Ez (V/m) @ t=0.96
22.92589032918866
% es.tEx (V/m) @ t=0.96
-23.83693641982589
% es.tEy (V/m) @ t=0.96
0
% es.tEz (V/m) @ t=0.96
22.92589032918869
% V (V) @ t=0.96
0.01584126157791084
% es.normE (V/m) @ t=0.98
50.918206030863104
% es.EX (V/m) @ t=0.98
-24.046424937633404
% es.EY (V/m) @ t=0.98
19.29272091372735
% es.EZ (V/m) @ t=0.98
23.127372731468206
% es.tEX (V/m) @ t=0.98
-24.04642493763346
% es.tEY (V/m) @ t=0.98
0
% es.tEZ (V/m) @ t=0.98
23.127372731468256
% es.Ex (V/m) @ t=0.98
-24.046424937633404
% es.Ey (V/m) @ t=0.98
19.29272091372735
% es.Ez (V/m) @ t=0.98
23.127372731468206
% es.tEx (V/m) @ t=0.98
-24.04642493763346
% es.tEy (V/m) @ t=0.98
0
% es.tEz (V/m) @ t=0.98
23.127372731468256
% V (V) @ t=0.98
0.015980481125067746
% es.normE (V/m) @ t=1
51.36179759358856
% es.EX (V/m) @ t=1
-24.255913455440933
% es.EY (V/m) @ t=1
19.46079606348728
% es.EZ (V/m) @ t=1
23.328855133747908
% es.tEX (V/m) @ t=1
-24.255913455440933
% es.tEY (V/m) @ t=1
0
% es.tEZ (V/m) @ t=1
23.32885513374788
% es.Ex (V/m) @ t=1
-24.255913455440933
% es.Ey (V/m) @ t=1
19.46079606348728
% es.Ez (V/m) @ t=1
23.328855133747908
% es.tEx (V/m) @ t=1
-24.255913455440933
% es.tEy (V/m) @ t=1
0
% es.tEz (V/m) @ t=1
23.32885513374788
% V (V) @ t=1
0.016119700672224648
% es.normE (V/m) @ t=1.02
51.805389156313865
% es.EX (V/m) @ t=1.02
-24.465401973248433
% es.EY (V/m) @ t=1.02
19.62887121324721
% es.EZ (V/m) @ t=1.02
23.530337536027425
% es.tEX (V/m) @ t=1.02
-24.46540197324839
% es.tEY (V/m) @ t=1.02
0
% es.tEZ (V/m) @ t=1.02
23.530337536027446
% es.Ex (V/m) @ t=1.02
-24.465401973248433
% es.Ey (V/m) @ t=1.02
19.62887121324721
% es.Ez (V/m) @ t=1.02
23.530337536027425
% es.tEx (V/m) @ t=1.02
-24.46540197324839
% es.tEy (V/m) @ t=1.02
0
% es.tEz (V/m) @ t=1.02
23.530337536027446
% V (V) @ t=1.02
0.016258920219381547
% es.normE (V/m) @ t=1.04
52.266333904134115
% es.EX (V/m) @ t=1.04
-24.68308691706352
% es.EY (V/m) @ t=1.04
19.803521762686017
% es.EZ (V/m) @ t=1.04
23.739700215556546
% es.tEX (V/m) @ t=1.04
-24.68308691706352
% es.tEY (V/m) @ t=1.04
0
% es.tEZ (V/m) @ t=1.04
23.739700215556525
% es.Ex (V/m) @ t=1.04
-24.68308691706352
% es.Ey (V/m) @ t=1.04
19.803521762686017
% es.Ez (V/m) @ t=1.04
23.739700215556546
% es.tEx (V/m) @ t=1.04