% Model:              1 neuron.mph
% Version:            COMSOL 6.1.0.252
% Date:               Mar 22 2023, 19:01
% Dimension:          0
% Nodes:              14017
% Expressions:        14017
% Description:        Electric field norm, Electric field, X component, Electric field, Y component, Electric field, Z component, Tangential electric field, X component, Tangential electric field, Y component, Tangential electric field, Z component, Electric field, x component, Electric field, y component, Electric field, z component, Tangential electric field, x component, Tangential electric field, y component, Tangential electric field, z component, Electric potential
% Length unit:        mm
% x
2
% y
12.2
% z
1
% es.normE (V/m) @ t=0
1.4082135275523258
% es.EX (V/m) @ t=0
-0.9094061935135707
% es.EY (V/m) @ t=0
0.2020485152783693
% es.EZ (V/m) @ t=0
1.037140537478856
% es.tEX (V/m) @ t=0
-0.9094061935135676
% es.tEY (V/m) @ t=0
0
% es.tEZ (V/m) @ t=0
1.0371405374788534
% es.Ex (V/m) @ t=0
-0.9094061935135707
% es.Ey (V/m) @ t=0
0.2020485152783693
% es.Ez (V/m) @ t=0
1.037140537478856
% es.tEx (V/m) @ t=0
-0.9094061935135676
% es.tEy (V/m) @ t=0
0
% es.tEz (V/m) @ t=0
1.0371405374788534
% V (V) @ t=0
0.013628735661751178
% es.normE (V/m) @ t=0.02
1.2162835321903491
% es.EX (V/m) @ t=0.02
-0.7854602697633486
% es.EY (V/m) @ t=0.02
0.17451066690158934
% es.EZ (V/m) @ t=0.02
0.8957852851345303
% es.tEX (V/m) @ t=0.02
-0.7854602697633495
% es.tEY (V/m) @ t=0.02
0
% es.tEZ (V/m) @ t=0.02
0.8957852851345374
% es.Ex (V/m) @ t=0.02
-0.7854602697633486
% es.Ey (V/m) @ t=0.02
0.17451066690158934
% es.Ez (V/m) @ t=0.02
0.8957852851345303
% es.tEx (V/m) @ t=0.02
-0.7854602697633495
% es.tEy (V/m) @ t=0.02
0
% es.tEz (V/m) @ t=0.02
0.8957852851345374
% V (V) @ t=0.02
0.011771231012672512
% es.normE (V/m) @ t=0.04
1.2274678908303955
% es.EX (V/m) @ t=0.04
-0.7926829847987151
% es.EY (V/m) @ t=0.04
0.17611538309895602
% es.EZ (V/m) @ t=0.04
0.9040224959721996
% es.tEX (V/m) @ t=0.04
-0.792682984798716
% es.tEY (V/m) @ t=0.04
0
% es.tEZ (V/m) @ t=0.04
0.9040224959722076
% es.Ex (V/m) @ t=0.04
-0.7926829847987151
% es.Ey (V/m) @ t=0.04
0.17611538309895602
% es.Ez (V/m) @ t=0.04
0.9040224959721996
% es.tEx (V/m) @ t=0.04
-0.792682984798716
% es.tEy (V/m) @ t=0.04
0
% es.tEz (V/m) @ t=0.04
0.9040224959722076
% V (V) @ t=0.04
0.01187947359424633
% es.normE (V/m) @ t=0.06
1.2387328686728407
% es.EX (V/m) @ t=0.06
-0.7999577626935217
% es.EY (V/m) @ t=0.06
0.1777316664487233
% es.EZ (V/m) @ t=0.06
0.912319082334494
% es.tEX (V/m) @ t=0.06
-0.7999577626935186
% es.tEY (V/m) @ t=0.06
0
% es.tEZ (V/m) @ t=0.06
0.9123190823345055
% es.Ex (V/m) @ t=0.06
-0.7999577626935217
% es.Ey (V/m) @ t=0.06
0.1777316664487233
% es.Ez (V/m) @ t=0.06
0.912319082334494
% es.tEx (V/m) @ t=0.06
-0.7999577626935186
% es.tEy (V/m) @ t=0.06
0
% es.tEz (V/m) @ t=0.06
0.9123190823345055
% V (V) @ t=0.06
0.011988496415427393
% es.normE (V/m) @ t=0.08
1.2502157030256018
% es.EX (V/m) @ t=0.08
-0.8073732295155991
% es.EY (V/m) @ t=0.08
0.1793792075387477
% es.EZ (V/m) @ t=0.08
0.9207761186747527
% es.tEX (V/m) @ t=0.08
-0.8073732295155995
% es.tEY (V/m) @ t=0.08
0
% es.tEZ (V/m) @ t=0.08
0.9207761186747678
% es.Ex (V/m) @ t=0.08
-0.8073732295155991
% es.Ey (V/m) @ t=0.08
0.1793792075387477
% es.Ez (V/m) @ t=0.08
0.9207761186747527
% es.tEx (V/m) @ t=0.08
-0.8073732295155995
% es.tEy (V/m) @ t=0.08
0
% es.tEz (V/m) @ t=0.08
0.9207761186747678
% V (V) @ t=0.08
0.012099627657459958
% es.normE (V/m) @ t=0.1
1.2617542296416644
% es.EX (V/m) @ t=0.1
-0.8148246616837209
% es.EY (V/m) @ t=0.1
0.1810347392749897
% es.EZ (V/m) @ t=0.1
0.9292741720238951
% es.tEX (V/m) @ t=0.1
-0.8148246616837218
% es.tEY (V/m) @ t=0.1
0
% es.tEZ (V/m) @ t=0.1
0.929274172023896
% es.Ex (V/m) @ t=0.1
-0.8148246616837209
% es.Ey (V/m) @ t=0.1
0.1810347392749897
% es.Ez (V/m) @ t=0.1
0.9292741720238951
% es.tEx (V/m) @ t=0.1
-0.8148246616837218
% es.tEy (V/m) @ t=0.1
0
% es.tEz (V/m) @ t=0.1
0.929274172023896
% V (V) @ t=0.1
0.01221129789063422
% es.normE (V/m) @ t=0.12
1.2732927562577225
% es.EX (V/m) @ t=0.12
-0.8222760938518454
% es.EY (V/m) @ t=0.12
0.18269027101122293
% es.EZ (V/m) @ t=0.12
0.9377722253730294
% es.tEX (V/m) @ t=0.12
-0.8222760938518427
% es.tEY (V/m) @ t=0.12
0
% es.tEZ (V/m) @ t=0.12
0.9377722253730516
% es.Ex (V/m) @ t=0.12
-0.8222760938518454
% es.Ey (V/m) @ t=0.12
0.18269027101122293
% es.Ez (V/m) @ t=0.12
0.9377722253730294
% es.tEx (V/m) @ t=0.12
-0.8222760938518427
% es.tEy (V/m) @ t=0.12
0
% es.tEz (V/m) @ t=0.12
0.9377722253730516
% V (V) @ t=0.12
0.012322968123808483
% es.normE (V/m) @ t=0.14
1.2851767919502144
% es.EX (V/m) @ t=0.14
-0.8299506513369561
% es.EY (V/m) @ t=0.14
0.18439537590205712
% es.EZ (V/m) @ t=0.14
0.9465247440203672
% es.tEX (V/m) @ t=0.14
-0.8299506513369534
% es.tEY (V/m) @ t=0.14
0
% es.tEZ (V/m) @ t=0.14
0.9465247440203752
% es.Ex (V/m) @ t=0.14
-0.8299506513369561
% es.Ey (V/m) @ t=0.14
0.18439537590205712
% es.Ez (V/m) @ t=0.14
0.9465247440203672
% es.tEx (V/m) @ t=0.14
-0.8299506513369534
% es.tEy (V/m) @ t=0.14
0
% es.tEz (V/m) @ t=0.14
0.9465247440203752
% V (V) @ t=0.14
0.012437982203422338
% es.normE (V/m) @ t=0.16
1.2972920692641496
% es.EX (V/m) @ t=0.16
-0.837774541686541
% es.EY (V/m) @ t=0.16
0.18613365901431633
% es.EZ (V/m) @ t=0.16
0.9554475706919296
% es.tEX (V/m) @ t=0.16
-0.8377745416865379
% es.tEY (V/m) @ t=0.16
0
% es.tEZ (V/m) @ t=0.16
0.9554475706919296
% es.Ex (V/m) @ t=0.16
-0.837774541686541
% es.Ey (V/m) @ t=0.16
0.18613365901431633
% es.Ez (V/m) @ t=0.16
0.9554475706919296
% es.tEx (V/m) @ t=0.16
-0.8377745416865379
% es.tEy (V/m) @ t=0.16
0
% es.tEz (V/m) @ t=0.16
0.9554475706919296
% V (V) @ t=0.16
0.01255523424587206
% es.normE (V/m) @ t=0.18
1.309407346578069
% es.EX (V/m) @ t=0.18
-0.8455984320361298
% es.EY (V/m) @ t=0.18
0.18787194212658087
% es.EZ (V/m) @ t=0.18
0.9643703973634654
% es.tEX (V/m) @ t=0.18
-0.8455984320361303
% es.tEY (V/m) @ t=0.18
0
% es.tEZ (V/m) @ t=0.18
0.9643703973634699
% es.Ex (V/m) @ t=0.18
-0.8455984320361298
% es.Ey (V/m) @ t=0.18
0.18787194212658087
% es.Ez (V/m) @ t=0.18
0.9643703973634654
% es.tEx (V/m) @ t=0.18
-0.8455984320361303
% es.tEy (V/m) @ t=0.18
0
% es.tEz (V/m) @ t=0.18
0.9643703973634699
% V (V) @ t=0.18
0.012672486288321785
% es.normE (V/m) @ t=0.2
1.3215226238919848
% es.EX (V/m) @ t=0.2
-0.8534223223857151
% es.EY (V/m) @ t=0.2
0.1896102252388614
% es.EZ (V/m) @ t=0.2
0.973293224034995
% es.tEX (V/m) @ t=0.2
-0.8534223223857156
% es.tEY (V/m) @ t=0.2
0
% es.tEZ (V/m) @ t=0.2
0.9732932240350101
% es.Ex (V/m) @ t=0.2
-0.8534223223857151
% es.Ey (V/m) @ t=0.2
0.1896102252388614
% es.Ez (V/m) @ t=0.2
0.973293224034995
% es.tEx (V/m) @ t=0.2
-0.8534223223857156
% es.tEy (V/m) @ t=0.2
0
% es.tEz (V/m) @ t=0.2
0.9732932240350101
% V (V) @ t=0.2
0.012789738330771511
% es.normE (V/m) @ t=0.22
1.333637901205912
% es.EX (V/m) @ t=0.22
-0.8612462127352969
% es.EY (V/m) @ t=0.22
0.1913485083511225
% es.EZ (V/m) @ t=0.22
0.9822160507065494
% es.tEX (V/m) @ t=0.22
-0.8612462127352942
% es.tEY (V/m) @ t=0.22
0
% es.tEZ (V/m) @ t=0.22
0.9822160507065574
% es.Ex (V/m) @ t=0.22
-0.8612462127352969
% es.Ey (V/m) @ t=0.22
0.1913485083511225
% es.Ez (V/m) @ t=0.22
0.9822160507065494
% es.tEx (V/m) @ t=0.22
-0.8612462127352942
% es.tEy (V/m) @ t=0.22
0
% es.tEz (V/m) @ t=0.22
0.9822160507065574
% V (V) @ t=0.22
0.012906990373221232
% es.normE (V/m) @ t=0.24
1.3457531785198362
% es.EX (V/m) @ t=0.24
-0.8690701030848818
% es.EY (V/m) @ t=0.24
0.19308679146340113
% es.EZ (V/m) @ t=0.24
0.9911388773780905
% es.tEX (V/m) @ t=0.24
-0.8690701030848822
% es.tEY (V/m) @ t=0.24
0
% es.tEZ (V/m) @ t=0.24
0.9911388773781127
% es.Ex (V/m) @ t=0.24
-0.8690701030848818
% es.Ey (V/m) @ t=0.24
0.19308679146340113
% es.Ez (V/m) @ t=0.24
0.9911388773780905
% es.tEx (V/m) @ t=0.24
-0.8690701030848822
% es.tEy (V/m) @ t=0.24
0
% es.tEz (V/m) @ t=0.24
0.9911388773781127
% V (V) @ t=0.24
0.013024242415670958
% es.normE (V/m) @ t=0.26
1.3581315466479884
% es.EX (V/m) @ t=0.26
-0.8770638942069344
% es.EY (V/m) @ t=0.26
0.19486282256615373
% es.EZ (V/m) @ t=0.26
1.0002554686932834
% es.tEX (V/m) @ t=0.26
-0.8770638942069349
% es.tEY (V/m) @ t=0.26
0
% es.tEZ (V/m) @ t=0.26
1.0002554686932914
% es.Ex (V/m) @ t=0.26
-0.8770638942069344
% es.Ey (V/m) @ t=0.26
0.19486282256615373
% es.Ez (V/m) @ t=0.26
1.0002554686932834
% es.tEx (V/m) @ t=0.26
-0.8770638942069349
% es.tEy (V/m) @ t=0.26
0
% es.tEz (V/m) @ t=0.26
1.0002554686932914
% V (V) @ t=0.26
0.013144040687533776
% es.normE (V/m) @ t=0.28
1.37153416505257
% es.EX (V/m) @ t=0.28
-0.8857191334060777
% es.EY (V/m) @ t=0.28
0.19678581201023293
% es.EZ (V/m) @ t=0.28
1.010126413558976
% es.tEX (V/m) @ t=0.28
-0.8857191334060786
% es.tEY (V/m) @ t=0.28
0
% es.tEZ (V/m) @ t=0.28
1.0101264135589911
% es.Ex (V/m) @ t=0.28
-0.8857191334060777
% es.Ey (V/m) @ t=0.28
0.19678581201023293
% es.Ez (V/m) @ t=0.28
1.010126413558976
% es.tEx (V/m) @ t=0.28
-0.8857191334060786
% es.tEy (V/m) @ t=0.28
0
% es.tEz (V/m) @ t=0.28
1.0101264135589911
% V (V) @ t=0.28
0.013273751795722186
% es.normE (V/m) @ t=0.3
1.384936783457161
% es.EX (V/m) @ t=0.3
-0.8943743726052173
% es.EY (V/m) @ t=0.3
0.19870880145431036
% es.EZ (V/m) @ t=0.3
1.0199973584246838
% es.tEX (V/m) @ t=0.3
-0.8943743726052142
% es.tEY (V/m) @ t=0.3
0
% es.tEZ (V/m) @ t=0.3
1.0199973584246917
% es.Ex (V/m) @ t=0.3
-0.8943743726052173
% es.Ey (V/m) @ t=0.3
0.19870880145431036
% es.Ez (V/m) @ t=0.3
1.0199973584246838
% es.tEx (V/m) @ t=0.3
-0.8943743726052142
% es.tEy (V/m) @ t=0.3
0
% es.tEz (V/m) @ t=0.3
1.0199973584246917
% V (V) @ t=0.3
0.013403462903910597
% es.normE (V/m) @ t=0.32
1.3983394018617354
% es.EX (V/m) @ t=0.32
-0.9030296118043575
% es.EY (V/m) @ t=0.32
0.200631790898386
% es.EZ (V/m) @ t=0.32
1.0298683032903702
% es.tEX (V/m) @ t=0.32
-0.9030296118043579
% es.tEY (V/m) @ t=0.32
0
% es.tEZ (V/m) @ t=0.32
1.0298683032903773
% es.Ex (V/m) @ t=0.32
-0.9030296118043575
% es.Ey (V/m) @ t=0.32
0.200631790898386
% es.Ez (V/m) @ t=0.32
1.0298683032903702
% es.tEx (V/m) @ t=0.32
-0.9030296118043579
% es.tEy (V/m) @ t=0.32
0
% es.tEz (V/m) @ t=0.32
1.0298683032903773
% V (V) @ t=0.32
0.01353317401209901
% es.normE (V/m) @ t=0.34
1.4117420202663062
% es.EX (V/m) @ t=0.34
-0.911684851003495
% es.EY (V/m) @ t=0.34
0.2025547803424601
% es.EZ (V/m) @ t=0.34
1.0397392481560503
% es.tEX (V/m) @ t=0.34
-0.9116848510034914
% es.tEY (V/m) @ t=0.34
0
% es.tEZ (V/m) @ t=0.34
1.039739248156062
% es.Ex (V/m) @ t=0.34
-0.911684851003495
% es.Ey (V/m) @ t=0.34
0.2025547803424601
% es.Ez (V/m) @ t=0.34
1.0397392481560503
% es.tEx (V/m) @ t=0.34
-0.9116848510034914
% es.tEy (V/m) @ t=0.34
0
% es.tEz (V/m) @ t=0.34
1.039739248156062
% V (V) @ t=0.34
0.01366288512028742
% es.normE (V/m) @ t=0.36
1.4251446386708986
% es.EX (V/m) @ t=0.36
-0.9203400902026306
% es.EY (V/m) @ t=0.36
0.20447776978655707
% es.EZ (V/m) @ t=0.36
1.0496101930217616
% es.tEX (V/m) @ t=0.36
-0.9203400902026275
% es.tEY (V/m) @ t=0.36
0
% es.tEZ (V/m) @ t=0.36
1.0496101930217696
% es.Ex (V/m) @ t=0.36
-0.9203400902026306
% es.Ey (V/m) @ t=0.36
0.20447776978655707
% es.Ez (V/m) @ t=0.36
1.0496101930217616
% es.tEx (V/m) @ t=0.36
-0.9203400902026275
% es.tEy (V/m) @ t=0.36
0
% es.tEz (V/m) @ t=0.36
1.0496101930217696
% V (V) @ t=0.36
0.013792596228475834
% es.normE (V/m) @ t=0.38
1.438547257075472
% es.EX (V/m) @ t=0.38
-0.9289953294017668
% es.EY (V/m) @ t=0.38
0.20640075923062917
% es.EZ (V/m) @ t=0.38
1.0594811378874507
% es.tEX (V/m) @ t=0.38
-0.9289953294017672
% es.tEY (V/m) @ t=0.38
0
% es.tEZ (V/m) @ t=0.38
1.0594811378874551
% es.Ex (V/m) @ t=0.38
-0.9289953294017668
% es.Ey (V/m) @ t=0.38
0.20640075923062917
% es.Ez (V/m) @ t=0.38
1.0594811378874507
% es.tEx (V/m) @ t=0.38
-0.9289953294017672
% es.tEy (V/m) @ t=0.38
0
% es.tEz (V/m) @ t=0.38
1.0594811378874551
% V (V) @ t=0.38
0.013922307336664243
% es.normE (V/m) @ t=0.4
1.451949875480057
% es.EX (V/m) @ t=0.4
-0.9376505686009105
% es.EY (V/m) @ t=0.4
0.2083237486747066
% es.EZ (V/m) @ t=0.4
1.0693520827531469
% es.tEX (V/m) @ t=0.4
-0.9376505686009069
% es.tEY (V/m) @ t=0.4
0
% es.tEZ (V/m) @ t=0.4
1.069352082753169
% es.Ex (V/m) @ t=0.4
-0.9376505686009105
% es.Ey (V/m) @ t=0.4
0.2083237486747066
% es.Ez (V/m) @ t=0.4
1.0693520827531469
% es.tEx (V/m) @ t=0.4
-0.9376505686009069
% es.tEy (V/m) @ t=0.4
0
% es.tEz (V/m) @ t=0.4
1.069352082753169
% V (V) @ t=0.4
0.014052018444852656
% es.normE (V/m) @ t=0.42
1.4653524938846338
% es.EX (V/m) @ t=0.42
-0.9463058078000541
% es.EY (V/m) @ t=0.42
0.21024673811878758
% es.EZ (V/m) @ t=0.42
1.0792230276188297
% es.tEX (V/m) @ t=0.42
-0.9463058078000541
% es.tEY (V/m) @ t=0.42
0
% es.tEZ (V/m) @ t=0.42
1.0792230276188333
% es.Ex (V/m) @ t=0.42
-0.9463058078000541
% es.Ey (V/m) @ t=0.42
0.21024673811878758
% es.Ez (V/m) @ t=0.42
1.0792230276188297
% es.tEx (V/m) @ t=0.42
-0.9463058078000541
% es.tEy (V/m) @ t=0.42
0
% es.tEz (V/m) @ t=0.42
1.0792230276188333
% V (V) @ t=0.42
0.014181729553041067
% es.normE (V/m) @ t=0.44
1.478755112289225
% es.EX (V/m) @ t=0.44
-0.9549610469991898
% es.EY (V/m) @ t=0.44
0.21216972756286512
% es.EZ (V/m) @ t=0.44
1.08909397248454
% es.tEX (V/m) @ t=0.44
-0.9549610469991867
% es.tEY (V/m) @ t=0.44
0
% es.tEZ (V/m) @ t=0.44
1.089093972484541
% es.Ex (V/m) @ t=0.44
-0.9549610469991898
% es.Ey (V/m) @ t=0.44
0.21216972756286512
% es.Ez (V/m) @ t=0.44
1.08909397248454
% es.tEx (V/m) @ t=0.44
-0.9549610469991867
% es.tEy (V/m) @ t=0.44
0
% es.tEz (V/m) @ t=0.44
1.089093972484541
% V (V) @ t=0.44
0.014311440661229479
% es.normE (V/m) @ t=0.46
1.4921577306938054
% es.EX (V/m) @ t=0.46
-0.96361628619833
% es.EY (V/m) @ t=0.46
0.21409271700697097
% es.EZ (V/m) @ t=0.46
1.0989649173502256
% es.tEX (V/m) @ t=0.46
-0.9636162861983264
% es.tEY (V/m) @ t=0.46
0
% es.tEZ (V/m) @ t=0.46
1.0989649173502336
% es.Ex (V/m) @ t=0.46
-0.96361628619833
% es.Ey (V/m) @ t=0.46
0.21409271700697097
% es.Ez (V/m) @ t=0.46
1.0989649173502256
% es.tEx (V/m) @ t=0.46
-0.9636162861983264
% es.tEy (V/m) @ t=0.46
0
% es.tEz (V/m) @ t=0.46
1.0989649173502336
% V (V) @ t=0.46
0.01444115176941789
% es.normE (V/m) @ t=0.48
1.5055603490983844
% es.EX (V/m) @ t=0.48
-0.972271525397463
% es.EY (V/m) @ t=0.48
0.21601570645103596
% es.EZ (V/m) @ t=0.48
1.1088358622159253
% es.tEX (V/m) @ t=0.48
-0.972271525397463
% es.tEY (V/m) @ t=0.48
0
% es.tEZ (V/m) @ t=0.48
1.1088358622159191
% es.Ex (V/m) @ t=0.48
-0.972271525397463
% es.Ey (V/m) @ t=0.48
0.21601570645103596
% es.Ez (V/m) @ t=0.48
1.1088358622159253
% es.tEx (V/m) @ t=0.48
-0.972271525397463
% es.tEy (V/m) @ t=0.48
0
% es.tEz (V/m) @ t=0.48
1.1088358622159191
% V (V) @ t=0.48
0.0145708628776063
% es.normE (V/m) @ t=0.5
1.5189629675029557
% es.EX (V/m) @ t=0.5
-0.9809267645966071
% es.EY (V/m) @ t=0.5
0.2179386958951277
% es.EZ (V/m) @ t=0.5
1.1187068070815993
% es.tEX (V/m) @ t=0.5
-0.9809267645966036
% es.tEY (V/m) @ t=0.5
0
% es.tEZ (V/m) @ t=0.5
1.118706807081618
% es.Ex (V/m) @ t=0.5
-0.9809267645966071
% es.Ey (V/m) @ t=0.5
0.2179386958951277
% es.Ez (V/m) @ t=0.5
1.1187068070815993
% es.tEx (V/m) @ t=0.5
-0.9809267645966036
% es.tEy (V/m) @ t=0.5
0
% es.tEz (V/m) @ t=0.5
1.118706807081618
% V (V) @ t=0.5
0.014700573985794715
% es.normE (V/m) @ t=0.52
1.5329662459610849
% es.EX (V/m) @ t=0.52
-0.9899699021449457
% es.EY (V/m) @ t=0.52
0.21994786704856217
% es.EZ (V/m) @ t=0.52
1.1290201345551774
% es.tEX (V/m) @ t=0.52
-0.9899699021449457
% es.tEY (V/m) @ t=0.52
0
% es.tEZ (V/m) @ t=0.52
1.1290201345551996
% es.Ex (V/m) @ t=0.52
-0.9899699021449457
% es.Ey (V/m) @ t=0.52
0.21994786704856217
% es.Ez (V/m) @ t=0.52
1.1290201345551774
% es.tEx (V/m) @ t=0.52
-0.9899699021449457
% es.tEy (V/m) @ t=0.52
0
% es.tEz (V/m) @ t=0.52
1.1290201345551996
% V (V) @ t=0.52
0.014836098251018977
% es.normE (V/m) @ t=0.54
1.5478163076537554
% es.EX (V/m) @ t=0.54
-0.9995598811502262
% es.EY (V/m) @ t=0.54
0.22207853325760185
% es.EZ (V/m) @ t=0.54
1.1399571129164618
% es.tEX (V/m) @ t=0.54
-0.9995598811502227
% es.tEY (V/m) @ t=0.54
0
% es.tEZ (V/m) @ t=0.54
1.1399571129164698
% es.Ex (V/m) @ t=0.54
-0.9995598811502262
% es.Ey (V/m) @ t=0.54
0.22207853325760185
% es.Ez (V/m) @ t=0.54
1.1399571129164618
% es.tEx (V/m) @ t=0.54
-0.9995598811502227
% es.tEy (V/m) @ t=0.54
0
% es.tEz (V/m) @ t=0.54
1.1399571129164698
% V (V) @ t=0.54
0.014979817640737818
% es.normE (V/m) @ t=0.56
1.5626663693464116
% es.EX (V/m) @ t=0.56
-1.0091498601555062
% es.EY (V/m) @ t=0.56
0.22420919946663276
% es.EZ (V/m) @ t=0.56
1.1508940912777303
% es.tEX (V/m) @ t=0.56
-1.0091498601555067
% es.tEY (V/m) @ t=0.56
0
% es.tEZ (V/m) @ t=0.56
1.1508940912777383
% es.Ex (V/m) @ t=0.56
-1.0091498601555062
% es.Ey (V/m) @ t=0.56
0.22420919946663276
% es.Ez (V/m) @ t=0.56
1.1508940912777303
% es.tEx (V/m) @ t=0.56
-1.0091498601555067
% es.tEy (V/m) @ t=0.56
0
% es.tEz (V/m) @ t=0.56
1.1508940912777383
% V (V) @ t=0.56
0.01512353703045666
% es.normE (V/m) @ t=0.58
1.5775164310390917
% es.EX (V/m) @ t=0.58
-1.0187398391607831
% es.EY (V/m) @ t=0.58
0.2263398656756742
% es.EZ (V/m) @ t=0.58
1.1618310696390326
% es.tEX (V/m) @ t=0.58
-1.0187398391607831
% es.tEY (V/m) @ t=0.58
0
% es.tEZ (V/m) @ t=0.58
1.161831069639037
% es.Ex (V/m) @ t=0.58
-1.0187398391607831
% es.Ey (V/m) @ t=0.58
0.2263398656756742
% es.Ez (V/m) @ t=0.58
1.1618310696390326
% es.tEx (V/m) @ t=0.58
-1.0187398391607831
% es.tEy (V/m) @ t=0.58
0
% es.tEz (V/m) @ t=0.58
1.161831069639037
% V (V) @ t=0.58
0.0152672564201755
% es.normE (V/m) @ t=0.6
1.592366492731753
% es.EX (V/m) @ t=0.6
-1.0283298181660712
% es.EY (V/m) @ t=0.6
0.22847053188471056
% es.EZ (V/m) @ t=0.6
1.1727680480003038
% es.tEX (V/m) @ t=0.6
-1.0283298181660716
% es.tEY (V/m) @ t=0.6
0
% es.tEZ (V/m) @ t=0.6
1.172768048000326
% es.Ex (V/m) @ t=0.6
-1.0283298181660712
% es.Ey (V/m) @ t=0.6
0.22847053188471056
% es.Ez (V/m) @ t=0.6
1.1727680480003038
% es.tEx (V/m) @ t=0.6
-1.0283298181660716
% es.tEy (V/m) @ t=0.6
0
% es.tEz (V/m) @ t=0.6
1.172768048000326
% V (V) @ t=0.6
0.015410975809894338
% es.normE (V/m) @ t=0.62
1.6072165544244266
% es.EX (V/m) @ t=0.62
-1.0379197971713512
% es.EY (V/m) @ t=0.62
0.23060119809373958
% es.EZ (V/m) @ t=0.62
1.1837050263615945
% es.tEX (V/m) @ t=0.62
-1.0379197971713476
% es.tEY (V/m) @ t=0.62
0
% es.tEZ (V/m) @ t=0.62
1.1837050263616025
% es.Ex (V/m) @ t=0.62
-1.0379197971713512
% es.Ey (V/m) @ t=0.62
0.23060119809373958
% es.Ez (V/m) @ t=0.62
1.1837050263615945
% es.tEx (V/m) @ t=0.62
-1.0379197971713476
% es.tEy (V/m) @ t=0.62
0
% es.tEz (V/m) @ t=0.62
1.1837050263616025
% V (V) @ t=0.62
0.015554695199613177
% es.normE (V/m) @ t=0.64
1.6220666161171053
% es.EX (V/m) @ t=0.64
-1.047509776176625
% es.EY (V/m) @ t=0.64
0.2327318643027847
% es.EZ (V/m) @ t=0.64
1.1946420047228994
% es.tEX (V/m) @ t=0.64
-1.0475097761766214
% es.tEY (V/m) @ t=0.64
0
% es.tEZ (V/m) @ t=0.64
1.1946420047229003
% es.Ex (V/m) @ t=0.64
-1.047509776176625
% es.Ey (V/m) @ t=0.64
0.2327318643027847
% es.Ez (V/m) @ t=0.64
1.1946420047228994
% es.tEx (V/m) @ t=0.64
-1.0475097761766214
% es.tEy (V/m) @ t=0.64
0
% es.tEz (V/m) @ t=0.64
1.1946420047229003
% V (V) @ t=0.64
0.015698414589332018
% es.normE (V/m) @ t=0.66
1.6369166778097708
% es.EX (V/m) @ t=0.66
-1.057099755181905
% es.EY (V/m) @ t=0.66
0.23486253051182626
% es.EZ (V/m) @ t=0.66
1.205578983084175
% es.tEX (V/m) @ t=0.66
-1.0570997551819015
% es.tEY (V/m) @ t=0.66
0
% es.tEZ (V/m) @ t=0.66
1.20557898308419
% es.Ex (V/m) @ t=0.66
-1.057099755181905
% es.Ey (V/m) @ t=0.66
0.23486253051182626
% es.Ez (V/m) @ t=0.66
1.205578983084175
% es.tEx (V/m) @ t=0.66
-1.0570997551819015
% es.tEy (V/m) @ t=0.66
0
% es.tEz (V/m) @ t=0.66
1.20557898308419
% V (V) @ t=0.66
0.01584213397905086
% es.normE (V/m) @ t=0.68
1.6517667395024298
% es.EX (V/m) @ t=0.68
-1.066689734187186
% es.EY (V/m) @ t=0.68
0.23699319672086072
% es.EZ (V/m) @ t=0.68
1.216515961445448
% es.tEX (V/m) @ t=0.68
-1.0666897341871855
% es.tEY (V/m) @ t=0.68
0
% es.tEZ (V/m) @ t=0.68
1.2165159614454737
% es.Ex (V/m) @ t=0.68
-1.066689734187186
% es.Ey (V/m) @ t=0.68
0.23699319672086072
% es.Ez (V/m) @ t=0.68
1.216515961445448
% es.tEx (V/m) @ t=0.68
-1.0666897341871855
% es.tEy (V/m) @ t=0.68
0
% es.tEz (V/m) @ t=0.68
1.2165159614454737
% V (V) @ t=0.68
0.0159858533687697
% es.normE (V/m) @ t=0.7
1.6666168011951006
% es.EX (V/m) @ t=0.7
-1.076279713192474
% es.EY (V/m) @ t=0.7
0.2391238629299075
% es.EZ (V/m) @ t=0.7
1.227452939806728
% es.tEX (V/m) @ t=0.7
-1.0762797131924735
% es.tEY (V/m) @ t=0.7
0
% es.tEZ (V/m) @ t=0.7
1.227452939806735
% es.Ex (V/m) @ t=0.7
-1.076279713192474
% es.Ey (V/m) @ t=0.7
0.2391238629299075
% es.Ez (V/m) @ t=0.7
1.227452939806728
% es.tEx (V/m) @ t=0.7
-1.0762797131924735
% es.tEy (V/m) @ t=0.7
0
% es.tEz (V/m) @ t=0.7
1.227452939806735
% V (V) @ t=0.7
0.01612957275848854
% es.normE (V/m) @ t=0.72
1.6814668628877683
% es.EX (V/m) @ t=0.72
-1.0858696921977509
% es.EY (V/m) @ t=0.72
0.24125452913896328
% es.EZ (V/m) @ t=0.72
1.2383899181680107
% es.tEX (V/m) @ t=0.72
-1.0858696921977504
% es.tEY (V/m) @ t=0.72
0
% es.tEZ (V/m) @ t=0.72
1.238389918168032
% es.Ex (V/m) @ t=0.72
-1.0858696921977509
% es.Ey (V/m) @ t=0.72
0.24125452913896328
% es.Ez (V/m) @ t=0.72
1.2383899181680107
% es.tEx (V/m) @ t=0.72
-1.0858696921977504
% es.tEy (V/m) @ t=0.72
0
% es.tEz (V/m) @ t=0.72
1.238389918168032
% V (V) @ t=0.72
0.016273292148207375
% es.normE (V/m) @ t=0.74
1.6963169245804381
% es.EX (V/m) @ t=0.74
-1.0954596712030278
% es.EY (V/m) @ t=0.74
0.2433851953479942
% es.EZ (V/m) @ t=0.74
1.2493268965293005
% es.tEX (V/m) @ t=0.74
-1.0954596712030238
% es.tEY (V/m) @ t=0.74
0
% es.tEZ (V/m) @ t=0.74
1.2493268965293147
% es.Ex (V/m) @ t=0.74
-1.0954596712030278
% es.Ey (V/m) @ t=0.74
0.2433851953479942
% es.Ez (V/m) @ t=0.74
1.2493268965293005
% es.tEx (V/m) @ t=0.74
-1.0954596712030238
% es.tEy (V/m) @ t=0.74
0
% es.tEz (V/m) @ t=0.74
1.2493268965293147
% V (V) @ t=0.74
0.01641701153792622
% es.normE (V/m) @ t=0.76
1.7111669862731058
% es.EX (V/m) @ t=0.76
-1.1050496502083083
% es.EY (V/m) @ t=0.76
0.24551586155703564
% es.EZ (V/m) @ t=0.76
1.2602638748905814
% es.tEX (V/m) @ t=0.76
-1.1050496502083043
% es.tEY (V/m) @ t=0.76
0
% es.tEZ (V/m) @ t=0.76
1.2602638748905868
% es.Ex (V/m) @ t=0.76
-1.1050496502083083
% es.Ey (V/m) @ t=0.76
0.24551586155703564
% es.Ez (V/m) @ t=0.76
1.2602638748905814
% es.tEx (V/m) @ t=0.76
-1.1050496502083043
% es.tEy (V/m) @ t=0.76
0
% es.tEz (V/m) @ t=0.76
1.2602638748905868
% V (V) @ t=0.76
0.01656073092764506
% es.normE (V/m) @ t=0.78
1.7270367838833653
% es.EX (V/m) @ t=0.78
-1.11529816155016
% es.EY (V/m) @ t=0.78
0.24779283805189023
% es.EZ (V/m) @ t=0.78
1.2719518824452045
% es.tEX (V/m) @ t=0.78
-1.1152981615501494
% es.tEY (V/m) @ t=0.78
0
% es.tEZ (V/m) @ t=0.78
1.271951882445217
% es.Ex (V/m) @ t=0.78
-1.11529816155016
% es.Ey (V/m) @ t=0.78
0.24779283805189023
% es.Ez (V/m) @ t=0.78
1.2719518824452045
% es.tEx (V/m) @ t=0.78
-1.1152981615501494
% es.tEy (V/m) @ t=0.78
0
% es.tEz (V/m) @ t=0.78
1.271951882445217
% V (V) @ t=0.78
0.016714319351141343
% es.normE (V/m) @ t=0.8
1.7435168779083328
% es.EX (V/m) @ t=0.8
-1.1259407944650928
% es.EY (V/m) @ t=0.8
0.25015737902431634
% es.EZ (V/m) @ t=0.8
1.2840893695328468
% es.tEX (V/m) @ t=0.8
-1.1259407944650888
% es.tEY (V/m) @ t=0.8
0
% es.tEZ (V/m) @ t=0.8
1.2840893695328468
% es.Ex (V/m) @ t=0.8
-1.1259407944650928
% es.Ey (V/m) @ t=0.8
0.25015737902431634
% es.Ez (V/m) @ t=0.8
1.2840893695328468
% es.tEx (V/m) @ t=0.8
-1.1259407944650888
% es.tEy (V/m) @ t=0.8
0
% es.tEz (V/m) @ t=0.8
1.2840893695328468
% V (V) @ t=0.8
0.016873814241034714
% es.normE (V/m) @ t=0.82
1.759996971933301
% es.EX (V/m) @ t=0.82
-1.1365834273800366
% es.EY (V/m) @ t=0.82
0.25252191999670714
% es.EZ (V/m) @ t=0.82
1.2962268566204855
% es.tEX (V/m) @ t=0.82
-1.1365834273800397
% es.tEY (V/m) @ t=0.82
0
% es.tEZ (V/m) @ t=0.82
1.2962268566204838
% es.Ex (V/m) @ t=0.82
-1.1365834273800366
% es.Ey (V/m) @ t=0.82
0.25252191999670714
% es.Ez (V/m) @ t=0.82
1.2962268566204855
% es.tEx (V/m) @ t=0.82
-1.1365834273800397
% es.tEy (V/m) @ t=0.82
0
% es.tEz (V/m) @ t=0.82
1.2962268566204838
% V (V) @ t=0.82
0.017033309130928088
% es.normE (V/m) @ t=0.84
1.776477065958279
% es.EX (V/m) @ t=0.84
-1.1472260602949795
% es.EY (V/m) @ t=0.84
0.25488646096914924
% es.EZ (V/m) @ t=0.84
1.308364343708126
% es.tEX (V/m) @ t=0.84
-1.1472260602949755
% es.tEY (V/m) @ t=0.84
0
% es.tEZ (V/m) @ t=0.84
1.3083643437081278
% es.Ex (V/m) @ t=0.84
-1.1472260602949795
% es.Ey (V/m) @ t=0.84
0.25488646096914924
% es.Ez (V/m) @ t=0.84
1.308364343708126
% es.tEx (V/m) @ t=0.84
-1.1472260602949755
% es.tEy (V/m) @ t=0.84
0
% es.tEz (V/m) @ t=0.84
1.3083643437081278
% V (V) @ t=0.84
0.017192804020821465
% es.normE (V/m) @ t=0.86
1.7929571599832475
% es.EX (V/m) @ t=0.86
-1.1578686932099087
% es.EY (V/m) @ t=0.86
0.2572510019415487
% es.EZ (V/m) @ t=0.86
1.320501830795779
% es.tEX (V/m) @ t=0.86
-1.1578686932099047
% es.tEY (V/m) @ t=0.86
0
% es.tEZ (V/m) @ t=0.86
1.3205018307957932
% es.Ex (V/m) @ t=0.86
-1.1578686932099087
% es.Ey (V/m) @ t=0.86
0.2572510019415487
% es.Ez (V/m) @ t=0.86
1.320501830795779
% es.tEx (V/m) @ t=0.86
-1.1578686932099047
% es.tEy (V/m) @ t=0.86
0
% es.tEz (V/m) @ t=0.86
1.3205018307957932
% V (V) @ t=0.86
0.017352298910714842
% es.normE (V/m) @ t=0.88
1.8094372540082095
% es.EX (V/m) @ t=0.88
-1.1685113261248525
% es.EY (V/m) @ t=0.88
0.25961554291397504
% es.EZ (V/m) @ t=0.88
1.3326393178834
% es.tEX (V/m) @ t=0.88
-1.1685113261248485
% es.tEY (V/m) @ t=0.88
0
% es.tEZ (V/m) @ t=0.88
1.332639317883423
% es.Ex (V/m) @ t=0.88
-1.1685113261248525
% es.Ey (V/m) @ t=0.88
0.25961554291397504
% es.Ez (V/m) @ t=0.88
1.3326393178834
% es.tEx (V/m) @ t=0.88
-1.1685113261248485
% es.tEy (V/m) @ t=0.88
0
% es.tEz (V/m) @ t=0.88
1.332639317883423
% V (V) @ t=0.88
0.017511793800608213
% es.normE (V/m) @ t=0.9
1.8259173480331872
% es.EX (V/m) @ t=0.9
-1.1791539590397884
% es.EY (V/m) @ t=0.9
0.26198008388639227
% es.EZ (V/m) @ t=0.9
1.3447768049710547
% es.tEX (V/m) @ t=0.9
-1.179153959039791
% es.tEY (V/m) @ t=0.9
0
% es.tEZ (V/m) @ t=0.9
1.3447768049710742
% es.Ex (V/m) @ t=0.9
-1.1791539590397884
% es.Ey (V/m) @ t=0.9
0.26198008388639227
% es.Ez (V/m) @ t=0.9
1.3447768049710547
% es.tEx (V/m) @ t=0.9
-1.179153959039791
% es.tEy (V/m) @ t=0.9
0
% es.tEz (V/m) @ t=0.9
1.3447768049710742
% V (V) @ t=0.9
0.01767128869050159
% es.normE (V/m) @ t=0.92
1.8423974420581664
% es.EX (V/m) @ t=0.92
-1.1897965919547389
% es.EY (V/m) @ t=0.92
0.26434462485882204
% es.EZ (V/m) @ t=0.92
1.356914292058697
% es.tEX (V/m) @ t=0.92
-1.1897965919547349
% es.tEY (V/m) @ t=0.92
0
% es.tEZ (V/m) @ t=0.92
1.3569142920587183
% es.Ex (V/m) @ t=0.92
-1.1897965919547389
% es.Ey (V/m) @ t=0.92
0.26434462485882204
% es.Ez (V/m) @ t=0.92
1.356914292058697
% es.tEx (V/m) @ t=0.92
-1.1897965919547349
% es.tEy (V/m) @ t=0.92
0
% es.tEz (V/m) @ t=0.92
1.3569142920587183
% V (V) @ t=0.92
0.017830783580394964
% es.normE (V/m) @ t=0.94
1.8588775360831389
% es.EX (V/m) @ t=0.94
-1.200439224869668
% es.EY (V/m) @ t=0.94
0.26670916583123594
% es.EZ (V/m) @ t=0.94
1.36905177914635
% es.tEX (V/m) @ t=0.94
-1.2004392248696711
% es.tEY (V/m) @ t=0.94
0
% es.tEZ (V/m) @ t=0.94
1.3690517791463552
% es.Ex (V/m) @ t=0.94
-1.200439224869668
% es.Ey (V/m) @ t=0.94
0.26670916583123594
% es.Ez (V/m) @ t=0.94
1.36905177914635
% es.tEx (V/m) @ t=0.94
-1.2004392248696711
% es.tEy (V/m) @ t=0.94
0
% es.tEz (V/m) @ t=0.94
1.3690517791463552
% V (V) @ t=0.94
0.01799027847028834
% es.normE (V/m) @ t=0.96
1.875357630108104
% es.EX (V/m) @ t=0.96
-1.2110818577846123
% es.EY (V/m) @ t=0.96
0.2690737068036655
% es.EZ (V/m) @ t=0.96
1.3811892662339762
% es.tEX (V/m) @ t=0.96
-1.2110818577846083
% es.tEY (V/m) @ t=0.96
0
% es.tEZ (V/m) @ t=0.96
1.381189266233985
% es.Ex (V/m) @ t=0.96
-1.2110818577846123
% es.Ey (V/m) @ t=0.96
0.2690737068036655
% es.Ez (V/m) @ t=0.96
1.3811892662339762
% es.tEx (V/m) @ t=0.96
-1.2110818577846083
% es.tEy (V/m) @ t=0.96
0
% es.tEz (V/m) @ t=0.96
1.381189266233985
% V (V) @ t=0.96
0.018149773360181712
% es.normE (V/m) @ t=0.98
1.8918377241330802
% es.EX (V/m) @ t=0.98
-1.2217244906995477
% es.EY (V/m) @ t=0.98
0.27143824777608105
% es.EZ (V/m) @ t=0.98
1.3933267533216291
% es.tEX (V/m) @ t=0.98
-1.2217244906995508
% es.tEY (V/m) @ t=0.98
0
% es.tEZ (V/m) @ t=0.98
1.3933267533216362
% es.Ex (V/m) @ t=0.98
-1.2217244906995477
% es.Ey (V/m) @ t=0.98
0.27143824777608105
% es.Ez (V/m) @ t=0.98
1.3933267533216291
% es.tEx (V/m) @ t=0.98
-1.2217244906995508
% es.tEy (V/m) @ t=0.98
0
% es.tEz (V/m) @ t=0.98
1.3933267533216362
% V (V) @ t=0.98
0.01830926825007509
% es.normE (V/m) @ t=1
1.908317818158052
% es.EX (V/m) @ t=1
-1.2323671236144915
% es.EY (V/m) @ t=1
0.2738027887484913
% es.EZ (V/m) @ t=1
1.4054642404092714
% es.tEX (V/m) @ t=1
-1.23236712361448
% es.tEY (V/m) @ t=1
0
% es.tEZ (V/m) @ t=1
1.4054642404092803
% es.Ex (V/m) @ t=1
-1.2323671236144915
% es.Ey (V/m) @ t=1
0.2738027887484913
% es.Ez (V/m) @ t=1
1.4054642404092714
% es.tEx (V/m) @ t=1
-1.23236712361448
% es.tEy (V/m) @ t=1
0
% es.tEz (V/m) @ t=1
1.4054642404092803
% V (V) @ t=1
0.018468763139968463
% es.normE (V/m) @ t=1.02
1.9247979121830294
% es.EX (V/m) @ t=1.02
-1.2430097565294282
% es.EY (V/m) @ t=1.02
0.2761673297209193
% es.EZ (V/m) @ t=1.02
1.4176017274969155
% es.tEX (V/m) @ t=1.02
-1.243009756529431
% es.tEY (V/m) @ t=1.02
0
% es.tEZ (V/m) @ t=1.02
1.4176017274969173
% es.Ex (V/m) @ t=1.02
-1.2430097565294282
% es.Ey (V/m) @ t=1.02
0.2761673297209193
% es.Ez (V/m) @ t=1.02
1.4176017274969155
% es.tEx (V/m) @ t=1.02
-1.243009756529431
% es.tEy (V/m) @ t=1.02
0
% es.tEz (V/m) @ t=1.02
1.4176017274969173
% V (V) @ t=1.02
0.018628258029861844
% es.normE (V/m) @ t=1.04
1.9419469372555143
% es.EX (V/m) @ t=1.04
-1.2540843764070022
% es.EY (V/m) @ t=1.04
0.27862784790095185
% es.EZ (V/m) @ t=1.04
1.4302318782689412
% es.tEX (V/m) @ t=1.04
-1.2540843764069978
% es.tEY (V/m) @ t=1.04
0
% es.tEZ (V/m) @ t=1.04