% Model:              1 neuron.mph
% Version:            COMSOL 6.1.0.252
% Date:               Mar 22 2023, 18:30
% Dimension:          0
% Nodes:              14017
% Expressions:        14017
% Description:        Electric field norm, Electric field, X component, Electric field, Y component, Electric field, Z component, Tangential electric field, X component, Tangential electric field, Y component, Tangential electric field, Z component, Electric field, x component, Electric field, y component, Electric field, z component, Tangential electric field, x component, Tangential electric field, y component, Tangential electric field, z component, Electric potential
% Length unit:        mm
% x
1.66
% y
12.2
% z
2
% es.normE (V/m) @ t=0
2.644239490988684
% es.EX (V/m) @ t=0
-0.7888293993130713
% es.EY (V/m) @ t=0
0.0589226794382775
% es.EZ (V/m) @ t=0
-2.518902903494653
% es.tEX (V/m) @ t=0
-0.7888293993130802
% es.tEY (V/m) @ t=0
0
% es.tEZ (V/m) @ t=0
-2.518902903494661
% es.Ex (V/m) @ t=0
-0.7888293993130713
% es.Ey (V/m) @ t=0
0.0589226794382775
% es.Ez (V/m) @ t=0
-2.518902903494653
% es.tEx (V/m) @ t=0
-0.7888293993130802
% es.tEy (V/m) @ t=0
0
% es.tEz (V/m) @ t=0
-2.518902903494661
% V (V) @ t=0
0.013291043953513895
% es.normE (V/m) @ t=0.02
2.283843217096103
% es.EX (V/m) @ t=0.02
-0.6813160001598209
% es.EY (V/m) @ t=0.02
0.050891820739309146
% es.EZ (V/m) @ t=0.02
-2.1755893632746552
% es.tEX (V/m) @ t=0.02
-0.6813160001598284
% es.tEY (V/m) @ t=0.02
0
% es.tEZ (V/m) @ t=0.02
-2.175589363274675
% es.Ex (V/m) @ t=0.02
-0.6813160001598209
% es.Ey (V/m) @ t=0.02
0.050891820739309146
% es.Ez (V/m) @ t=0.02
-2.1755893632746552
% es.tEx (V/m) @ t=0.02
-0.6813160001598284
% es.tEy (V/m) @ t=0.02
0
% es.tEz (V/m) @ t=0.02
-2.175589363274675
% V (V) @ t=0.02
0.011479542856658639
% es.normE (V/m) @ t=0.04
2.3048395191012174
% es.EX (V/m) @ t=0.04
-0.6875796161507657
% es.EY (V/m) @ t=0.04
0.051359690177726056
% es.EZ (V/m) @ t=0.04
-2.195590443403314
% es.tEX (V/m) @ t=0.04
-0.6875796161507779
% es.tEY (V/m) @ t=0.04
0
% es.tEZ (V/m) @ t=0.04
-2.1955904434033364
% es.Ex (V/m) @ t=0.04
-0.6875796161507657
% es.Ey (V/m) @ t=0.04
0.051359690177726056
% es.Ez (V/m) @ t=0.04
-2.195590443403314
% es.tEx (V/m) @ t=0.04
-0.6875796161507779
% es.tEy (V/m) @ t=0.04
0
% es.tEz (V/m) @ t=0.04
-2.1955904434033364
% V (V) @ t=0.04
0.011585078966021031
% es.normE (V/m) @ t=0.06
2.3259880437987435
% es.EX (V/m) @ t=0.06
-0.6938886423778631
% es.EY (V/m) @ t=0.06
0.051830950793284564
% es.EZ (V/m) @ t=0.06
-2.2157365311509905
% es.tEX (V/m) @ t=0.06
-0.6938886423778712
% es.tEY (V/m) @ t=0.06
0
% es.tEZ (V/m) @ t=0.06
-2.2157365311510118
% es.Ex (V/m) @ t=0.06
-0.6938886423778631
% es.Ey (V/m) @ t=0.06
0.051830950793284564
% es.Ez (V/m) @ t=0.06
-2.2157365311509905
% es.tEx (V/m) @ t=0.06
-0.6938886423778712
% es.tEy (V/m) @ t=0.06
0
% es.tEz (V/m) @ t=0.06
-2.2157365311510118
% V (V) @ t=0.06
0.01169138025441959
% es.normE (V/m) @ t=0.08
2.34754357373754
% es.EX (V/m) @ t=0.08
-0.7003190869844591
% es.EY (V/m) @ t=0.08
0.052311281495795
% es.EZ (V/m) @ t=0.08
-2.236270331960128
% es.tEX (V/m) @ t=0.08
-0.700319086984468
% es.tEY (V/m) @ t=0.08
0
% es.tEZ (V/m) @ t=0.08
-2.2362703319601573
% es.Ex (V/m) @ t=0.08
-0.7003190869844591
% es.Ey (V/m) @ t=0.08
0.052311281495795
% es.Ez (V/m) @ t=0.08
-2.236270331960128
% es.tEx (V/m) @ t=0.08
-0.700319086984468
% es.tEy (V/m) @ t=0.08
0
% es.tEz (V/m) @ t=0.08
-2.2362703319601573
% V (V) @ t=0.08
0.011799727287844012
% es.normE (V/m) @ t=0.1
2.3692064325536757
% es.EX (V/m) @ t=0.1
-0.7067815500936212
% es.EY (V/m) @ t=0.1
0.052794004015798604
% es.EZ (V/m) @ t=0.1
-2.256906374223175
% es.tEX (V/m) @ t=0.1
-0.7067815500936376
% es.tEY (V/m) @ t=0.1
0
% es.tEZ (V/m) @ t=0.1
-2.2569063742231963
% es.Ex (V/m) @ t=0.1
-0.7067815500936212
% es.Ey (V/m) @ t=0.1
0.052794004015798604
% es.Ez (V/m) @ t=0.1
-2.256906374223175
% es.tEx (V/m) @ t=0.1
-0.7067815500936376
% es.tEy (V/m) @ t=0.1
0
% es.tEz (V/m) @ t=0.1
-2.2569063742231963
% V (V) @ t=0.1
0.011908613792249846
% es.normE (V/m) @ t=0.12
2.390869291369835
% es.EX (V/m) @ t=0.12
-0.7132440132027771
% es.EY (V/m) @ t=0.12
0.053276726535809726
% es.EZ (V/m) @ t=0.12
-2.2775424164862494
% es.tEX (V/m) @ t=0.12
-0.7132440132027753
% es.tEY (V/m) @ t=0.12
0
% es.tEZ (V/m) @ t=0.12
-2.2775424164862628
% es.Ex (V/m) @ t=0.12
-0.7132440132027771
% es.Ey (V/m) @ t=0.12
0.053276726535809726
% es.Ez (V/m) @ t=0.12
-2.2775424164862494
% es.tEx (V/m) @ t=0.12
-0.7132440132027753
% es.tEy (V/m) @ t=0.12
0
% es.tEz (V/m) @ t=0.12
-2.2775424164862628
% V (V) @ t=0.12
0.01201750029665568
% es.normE (V/m) @ t=0.14
2.413170810041322
% es.EX (V/m) @ t=0.14
-0.7198970016428191
% es.EY (V/m) @ t=0.14
0.053773680942361
% es.EZ (V/m) @ t=0.14
-2.298786846103809
% es.tEX (V/m) @ t=0.14
-0.7198970016428312
% es.tEY (V/m) @ t=0.14
0
% es.tEZ (V/m) @ t=0.14
-2.298786846103839
% es.Ex (V/m) @ t=0.14
-0.7198970016428191
% es.Ey (V/m) @ t=0.14
0.053773680942361
% es.Ez (V/m) @ t=0.14
-2.298786846103809
% es.tEx (V/m) @ t=0.14
-0.7198970016428312
% es.tEy (V/m) @ t=0.14
0
% es.tEz (V/m) @ t=0.14
-2.298786846103839
% V (V) @ t=0.14
0.01212959695176738
% es.normE (V/m) @ t=0.16
2.435918157893186
% es.EX (V/m) @ t=0.16
-0.726682990069302
% es.EY (V/m) @ t=0.16
0.0542805701996292
% es.EZ (V/m) @ t=0.16
-2.3204559725820593
% es.tEX (V/m) @ t=0.16
-0.7266829900693068
% es.tEY (V/m) @ t=0.16
0
% es.tEZ (V/m) @ t=0.16
-2.3204559725820753
% es.Ex (V/m) @ t=0.16
-0.726682990069302
% es.Ey (V/m) @ t=0.16
0.0542805701996292
% es.Ez (V/m) @ t=0.16
-2.3204559725820593
% es.tEx (V/m) @ t=0.16
-0.7266829900693068
% es.tEy (V/m) @ t=0.16
0
% es.tEz (V/m) @ t=0.16
-2.3204559725820753
% V (V) @ t=0.16
0.012243934516255012
% es.normE (V/m) @ t=0.18
2.458665505745027
% es.EX (V/m) @ t=0.18
-0.7334689784957973
% es.EY (V/m) @ t=0.18
0.054787459456858506
% es.EZ (V/m) @ t=0.18
-2.34212509906028
% es.tEX (V/m) @ t=0.18
-0.7334689784958073
% es.tEY (V/m) @ t=0.18
0
% es.tEZ (V/m) @ t=0.18
-2.342125099060298
% es.Ex (V/m) @ t=0.18
-0.7334689784957973
% es.Ey (V/m) @ t=0.18
0.054787459456858506
% es.Ez (V/m) @ t=0.18
-2.34212509906028
% es.tEx (V/m) @ t=0.18
-0.7334689784958073
% es.tEy (V/m) @ t=0.18
0
% es.tEz (V/m) @ t=0.18
-2.342125099060298
% V (V) @ t=0.18
0.012358272080742645
% es.normE (V/m) @ t=0.2
2.4814128535968845
% es.EX (V/m) @ t=0.2
-0.7402549669222787
% es.EY (V/m) @ t=0.2
0.0552943487141038
% es.EZ (V/m) @ t=0.2
-2.3637942255385225
% es.tEX (V/m) @ t=0.2
-0.7402549669222864
% es.tEY (V/m) @ t=0.2
0
% es.tEZ (V/m) @ t=0.2
-2.3637942255385465
% es.Ex (V/m) @ t=0.2
-0.7402549669222787
% es.Ey (V/m) @ t=0.2
0.0552943487141038
% es.Ez (V/m) @ t=0.2
-2.3637942255385225
% es.tEx (V/m) @ t=0.2
-0.7402549669222864
% es.tEy (V/m) @ t=0.2
0
% es.tEz (V/m) @ t=0.2
-2.3637942255385465
% V (V) @ t=0.2
0.012472609645230278
% es.normE (V/m) @ t=0.22
2.504160201448731
% es.EX (V/m) @ t=0.22
-0.7470409553487659
% es.EY (V/m) @ t=0.22
0.05580123797135576
% es.EZ (V/m) @ t=0.22
-2.3854633520167514
% es.tEX (V/m) @ t=0.22
-0.7470409553487727
% es.tEY (V/m) @ t=0.22
0
% es.tEZ (V/m) @ t=0.22
-2.3854633520167683
% es.Ex (V/m) @ t=0.22
-0.7470409553487659
% es.Ey (V/m) @ t=0.22
0.05580123797135576
% es.Ez (V/m) @ t=0.22
-2.3854633520167514
% es.tEx (V/m) @ t=0.22
-0.7470409553487727
% es.tEy (V/m) @ t=0.22
0
% es.tEz (V/m) @ t=0.22
-2.3854633520167683
% V (V) @ t=0.22
0.01258694720971791
% es.normE (V/m) @ t=0.24
2.5269075493005815
% es.EX (V/m) @ t=0.24
-0.7538269437752515
% es.EY (V/m) @ t=0.24
0.056308127228599306
% es.EZ (V/m) @ t=0.24
-2.4071324784949866
% es.tEX (V/m) @ t=0.24
-0.7538269437752554
% es.tEY (V/m) @ t=0.24
0
% es.tEZ (V/m) @ t=0.24
-2.4071324784950043
% es.Ex (V/m) @ t=0.24
-0.7538269437752515
% es.Ey (V/m) @ t=0.24
0.056308127228599306
% es.Ez (V/m) @ t=0.24
-2.4071324784949866
% es.tEx (V/m) @ t=0.24
-0.7538269437752554
% es.tEy (V/m) @ t=0.24
0
% es.tEz (V/m) @ t=0.24
-2.4071324784950043
% V (V) @ t=0.24
0.012701284774205542
% es.normE (V/m) @ t=0.26
2.5501006546838125
% es.EX (V/m) @ t=0.26
-0.7607459102560657
% es.EY (V/m) @ t=0.26
0.05682494916423217
% es.EZ (V/m) @ t=0.26
-2.429226233757511
% es.tEX (V/m) @ t=0.26
-0.7607459102560767
% es.tEY (V/m) @ t=0.26
0
% es.tEZ (V/m) @ t=0.26
-2.429226233757533
% es.Ex (V/m) @ t=0.26
-0.7607459102560657
% es.Ey (V/m) @ t=0.26
0.05682494916423217
% es.Ez (V/m) @ t=0.26
-2.429226233757511
% es.tEx (V/m) @ t=0.26
-0.7607459102560767
% es.tEy (V/m) @ t=0.26
0
% es.tEz (V/m) @ t=0.26
-2.429226233757533
% V (V) @ t=0.26
0.012817862917090214
% es.normE (V/m) @ t=0.28
2.575269774040788
% es.EX (V/m) @ t=0.28
-0.768254359751908
% es.EY (V/m) @ t=0.28
0.05738580201324803
% es.EZ (V/m) @ t=0.28
-2.453202340640231
% es.tEX (V/m) @ t=0.28
-0.7682543597519214
% es.tEY (V/m) @ t=0.28
0
% es.tEZ (V/m) @ t=0.28
-2.453202340640246
% es.Ex (V/m) @ t=0.28
-0.768254359751908
% es.Ey (V/m) @ t=0.28
0.05738580201324803
% es.Ez (V/m) @ t=0.28
-2.453202340640231
% es.tEx (V/m) @ t=0.28
-0.7682543597519214
% es.tEy (V/m) @ t=0.28
0
% es.tEz (V/m) @ t=0.28
-2.453202340640246
% V (V) @ t=0.28
0.012944373397423142
% es.normE (V/m) @ t=0.3
2.600438893397754
% es.EX (V/m) @ t=0.3
-0.7757628092477404
% es.EY (V/m) @ t=0.3
0.057946654862233465
% es.EZ (V/m) @ t=0.3
-2.4771784475229444
% es.tEX (V/m) @ t=0.3
-0.7757628092477518
% es.tEY (V/m) @ t=0.3
0
% es.tEZ (V/m) @ t=0.3
-2.4771784475229595
% es.Ex (V/m) @ t=0.3
-0.7757628092477404
% es.Ey (V/m) @ t=0.3
0.057946654862233465
% es.Ez (V/m) @ t=0.3
-2.4771784475229444
% es.tEx (V/m) @ t=0.3
-0.7757628092477518
% es.tEy (V/m) @ t=0.3
0
% es.tEz (V/m) @ t=0.3
-2.4771784475229595
% V (V) @ t=0.3
0.013070883877756068
% es.normE (V/m) @ t=0.32
2.625608012754714
% es.EX (V/m) @ t=0.32
-0.7832712587435782
% es.EY (V/m) @ t=0.32
0.05850750771123692
% es.EZ (V/m) @ t=0.32
-2.50115455440565
% es.tEX (V/m) @ t=0.32
-0.7832712587435822
% es.tEY (V/m) @ t=0.32
0
% es.tEZ (V/m) @ t=0.32
-2.5011545544056712
% es.Ex (V/m) @ t=0.32
-0.7832712587435782
% es.Ey (V/m) @ t=0.32
0.05850750771123692
% es.Ez (V/m) @ t=0.32
-2.50115455440565
% es.tEx (V/m) @ t=0.32
-0.7832712587435822
% es.tEy (V/m) @ t=0.32
0
% es.tEz (V/m) @ t=0.32
-2.5011545544056712
% V (V) @ t=0.32
0.013197394358088994
% es.normE (V/m) @ t=0.34
2.650777132111669
% es.EX (V/m) @ t=0.34
-0.790779708239403
% es.EY (V/m) @ t=0.34
0.05906836056023848
% es.EZ (V/m) @ t=0.34
-2.5251306612883537
% es.tEX (V/m) @ t=0.34
-0.7907797082394126
% es.tEY (V/m) @ t=0.34
0
% es.tEZ (V/m) @ t=0.34
-2.5251306612883813
% es.Ex (V/m) @ t=0.34
-0.790779708239403
% es.Ey (V/m) @ t=0.34
0.05906836056023848
% es.Ez (V/m) @ t=0.34
-2.5251306612883537
% es.tEx (V/m) @ t=0.34
-0.7907797082394126
% es.tEy (V/m) @ t=0.34
0
% es.tEz (V/m) @ t=0.34
-2.5251306612883813
% V (V) @ t=0.34
0.01332390483842192
% es.normE (V/m) @ t=0.36
2.6759462514686505
% es.EX (V/m) @ t=0.36
-0.7982881577352433
% es.EY (V/m) @ t=0.36
0.05962921340923795
% es.EZ (V/m) @ t=0.36
-2.5491067681710815
% es.tEX (V/m) @ t=0.36
-0.7982881577352572
% es.tEY (V/m) @ t=0.36
0
% es.tEZ (V/m) @ t=0.36
-2.549106768171109
% es.Ex (V/m) @ t=0.36
-0.7982881577352433
% es.Ey (V/m) @ t=0.36
0.05962921340923795
% es.Ez (V/m) @ t=0.36
-2.5491067681710815
% es.tEx (V/m) @ t=0.36
-0.7982881577352572
% es.tEy (V/m) @ t=0.36
0
% es.tEz (V/m) @ t=0.36
-2.549106768171109
% V (V) @ t=0.36
0.013450415318754847
% es.normE (V/m) @ t=0.38
2.701115370825618
% es.EX (V/m) @ t=0.38
-0.805796607231082
% es.EY (V/m) @ t=0.38
0.0601900662582396
% es.EZ (V/m) @ t=0.38
-2.573082875053794
% es.tEX (V/m) @ t=0.38
-0.8057966072310876
% es.tEY (V/m) @ t=0.38
0
% es.tEZ (V/m) @ t=0.38
-2.5730828750538066
% es.Ex (V/m) @ t=0.38
-0.805796607231082
% es.Ey (V/m) @ t=0.38
0.0601900662582396
% es.Ez (V/m) @ t=0.38
-2.573082875053794
% es.tEx (V/m) @ t=0.38
-0.8057966072310876
% es.tEy (V/m) @ t=0.38
0
% es.tEz (V/m) @ t=0.38
-2.5730828750538066
% V (V) @ t=0.38
0.013576925799087768
% es.normE (V/m) @ t=0.4
2.72628449018259
% es.EX (V/m) @ t=0.4
-0.8133050567269136
% es.EY (V/m) @ t=0.4
0.0607509191072266
% es.EZ (V/m) @ t=0.4
-2.597058981936514
% es.tEX (V/m) @ t=0.4
-0.813305056726918
% es.tEY (V/m) @ t=0.4
0
% es.tEZ (V/m) @ t=0.4
-2.5970589819365326
% es.Ex (V/m) @ t=0.4
-0.8133050567269136
% es.Ey (V/m) @ t=0.4
0.0607509191072266
% es.Ez (V/m) @ t=0.4
-2.597058981936514
% es.tEx (V/m) @ t=0.4
-0.813305056726918
% es.tEy (V/m) @ t=0.4
0
% es.tEz (V/m) @ t=0.4
-2.5970589819365326
% V (V) @ t=0.4
0.013703436279420698
% es.normE (V/m) @ t=0.42
2.7514536095395274
% es.EX (V/m) @ t=0.42
-0.8208135062227491
% es.EY (V/m) @ t=0.42
0.06131177195623218
% es.EZ (V/m) @ t=0.42
-2.6210350888191973
% es.tEX (V/m) @ t=0.42
-0.8208135062227555
% es.tEY (V/m) @ t=0.42
0
% es.tEZ (V/m) @ t=0.42
-2.621035088819246
% es.Ex (V/m) @ t=0.42
-0.8208135062227491
% es.Ey (V/m) @ t=0.42
0.06131177195623218
% es.Ez (V/m) @ t=0.42
-2.6210350888191973
% es.tEx (V/m) @ t=0.42
-0.8208135062227555
% es.tEy (V/m) @ t=0.42
0
% es.tEz (V/m) @ t=0.42
-2.621035088819246
% V (V) @ t=0.42
0.013829946759753624
% es.normE (V/m) @ t=0.44
2.7766227288965135
% es.EX (V/m) @ t=0.44
-0.8283219557185841
% es.EY (V/m) @ t=0.44
0.06187262480523359
% es.EZ (V/m) @ t=0.44
-2.6450111957019313
% es.tEX (V/m) @ t=0.44
-0.8283219557185859
% es.tEY (V/m) @ t=0.44
0
% es.tEZ (V/m) @ t=0.44
-2.645011195701958
% es.Ex (V/m) @ t=0.44
-0.8283219557185841
% es.Ey (V/m) @ t=0.44
0.06187262480523359
% es.Ez (V/m) @ t=0.44
-2.6450111957019313
% es.tEx (V/m) @ t=0.44
-0.8283219557185859
% es.tEy (V/m) @ t=0.44
0
% es.tEz (V/m) @ t=0.44
-2.645011195701958
% V (V) @ t=0.44
0.01395645724008655
% es.normE (V/m) @ t=0.46
2.801791848253502
% es.EX (V/m) @ t=0.46
-0.8358304052144228
% es.EY (V/m) @ t=0.46
0.06243347765422971
% es.EZ (V/m) @ t=0.46
-2.6689873025846653
% es.tEX (V/m) @ t=0.46
-0.8358304052144234
% es.tEY (V/m) @ t=0.46
0
% es.tEZ (V/m) @ t=0.46
-2.6689873025846698
% es.Ex (V/m) @ t=0.46
-0.8358304052144228
% es.Ey (V/m) @ t=0.46
0.06243347765422971
% es.Ez (V/m) @ t=0.46
-2.6689873025846653
% es.tEx (V/m) @ t=0.46
-0.8358304052144234
% es.tEy (V/m) @ t=0.46
0
% es.tEz (V/m) @ t=0.46
-2.6689873025846698
% V (V) @ t=0.46
0.014082967720419478
% es.normE (V/m) @ t=0.48
2.826960967610442
% es.EX (V/m) @ t=0.48
-0.8433388547102615
% es.EY (V/m) @ t=0.48
0.06299433050323111
% es.EZ (V/m) @ t=0.48
-2.6929634094673496
% es.tEX (V/m) @ t=0.48
-0.8433388547102609
% es.tEY (V/m) @ t=0.48
0
% es.tEZ (V/m) @ t=0.48
-2.6929634094673958
% es.Ex (V/m) @ t=0.48
-0.8433388547102615
% es.Ey (V/m) @ t=0.48
0.06299433050323111
% es.Ez (V/m) @ t=0.48
-2.6929634094673496
% es.tEx (V/m) @ t=0.48
-0.8433388547102609
% es.tEy (V/m) @ t=0.48
0
% es.tEz (V/m) @ t=0.48
-2.6929634094673958
% V (V) @ t=0.48
0.014209478200752402
% es.normE (V/m) @ t=0.5
2.8521300869674207
% es.EX (V/m) @ t=0.5
-0.8508473042060949
% es.EY (V/m) @ t=0.5
0.06355518335223294
% es.EZ (V/m) @ t=0.5
-2.7169395163500756
% es.tEX (V/m) @ t=0.5
-0.8508473042061055
% es.tEY (V/m) @ t=0.5
0
% es.tEZ (V/m) @ t=0.5
-2.716939516350081
% es.Ex (V/m) @ t=0.5
-0.8508473042060949
% es.Ey (V/m) @ t=0.5
0.06355518335223294
% es.Ez (V/m) @ t=0.5
-2.7169395163500756
% es.tEx (V/m) @ t=0.5
-0.8508473042061055
% es.tEy (V/m) @ t=0.5
0
% es.tEz (V/m) @ t=0.5
-2.716939516350081
% V (V) @ t=0.5
0.014335988681085326
% es.normE (V/m) @ t=0.52
2.8783186633774567
% es.EX (V/m) @ t=0.52
-0.8586598784703341
% es.EY (V/m) @ t=0.52
0.06413875358303642
% es.EZ (V/m) @ t=0.52
-2.7418867580390254
% es.tEX (V/m) @ t=0.52
-0.8586598784703483
% es.tEY (V/m) @ t=0.52
0
% es.tEZ (V/m) @ t=0.52
-2.7418867580390547
% es.Ex (V/m) @ t=0.52
-0.8586598784703341
% es.Ey (V/m) @ t=0.52
0.06413875358303642
% es.Ez (V/m) @ t=0.52
-2.7418867580390254
% es.tEx (V/m) @ t=0.52
-0.8586598784703483
% es.tEy (V/m) @ t=0.52
0
% es.tEz (V/m) @ t=0.52
-2.7418867580390547
% V (V) @ t=0.52
0.014467623354971015
% es.normE (V/m) @ t=0.54
2.906210837687861
% es.EX (V/m) @ t=0.54
-0.8669806706289633
% es.EY (V/m) @ t=0.54
0.06476028645660944
% es.EZ (V/m) @ t=0.54
-2.768456847117073
% es.tEX (V/m) @ t=0.54
-0.8669806706289691
% es.tEY (V/m) @ t=0.54
0
% es.tEZ (V/m) @ t=0.54
-2.7684568471170934
% es.Ex (V/m) @ t=0.54
-0.8669806706289633
% es.Ey (V/m) @ t=0.54
0.06476028645660944
% es.Ez (V/m) @ t=0.54
-2.768456847117073
% es.tEx (V/m) @ t=0.54
-0.8669806706289691
% es.tEy (V/m) @ t=0.54
0
% es.tEz (V/m) @ t=0.54
-2.7684568471170934
% V (V) @ t=0.54
0.01460782098435466
% es.normE (V/m) @ t=0.56
2.9341030119982356
% es.EX (V/m) @ t=0.56
-0.8753014627875797
% es.EY (V/m) @ t=0.56
0.06538181933018072
% es.EZ (V/m) @ t=0.56
-2.795026936195092
% es.tEX (V/m) @ t=0.56
-0.8753014627875899
% es.tEY (V/m) @ t=0.56
0
% es.tEZ (V/m) @ t=0.56
-2.795026936195134
% es.Ex (V/m) @ t=0.56
-0.8753014627875797
% es.Ey (V/m) @ t=0.56
0.06538181933018072
% es.Ez (V/m) @ t=0.56
-2.795026936195092
% es.tEx (V/m) @ t=0.56
-0.8753014627875899
% es.tEy (V/m) @ t=0.56
0
% es.tEz (V/m) @ t=0.56
-2.795026936195134
% V (V) @ t=0.56
0.014748018613738305
% es.normE (V/m) @ t=0.58
2.9619951863086262
% es.EX (V/m) @ t=0.58
-0.8836222549462016
% es.EY (V/m) @ t=0.58
0.06600335220375726
% es.EZ (V/m) @ t=0.58
-2.8215970252731264
% es.tEX (V/m) @ t=0.58
-0.8836222549462107
% es.tEY (V/m) @ t=0.58
0
% es.tEZ (V/m) @ t=0.58
-2.8215970252731584
% es.Ex (V/m) @ t=0.58
-0.8836222549462016
% es.Ey (V/m) @ t=0.58
0.06600335220375726
% es.Ez (V/m) @ t=0.58
-2.8215970252731264
% es.tEx (V/m) @ t=0.58
-0.8836222549462107
% es.tEy (V/m) @ t=0.58
0
% es.tEz (V/m) @ t=0.58
-2.8215970252731584
% V (V) @ t=0.58
0.01488821624312195
% es.normE (V/m) @ t=0.6
2.989887360619055
% es.EX (V/m) @ t=0.6
-0.8919430471048255
% es.EY (V/m) @ t=0.6
0.06662488507733778
% es.EZ (V/m) @ t=0.6
-2.8481671143512015
% es.tEX (V/m) @ t=0.6
-0.8919430471048315
% es.tEY (V/m) @ t=0.6
0
% es.tEZ (V/m) @ t=0.6
-2.8481671143512095
% es.Ex (V/m) @ t=0.6
-0.8919430471048255
% es.Ey (V/m) @ t=0.6
0.06662488507733778
% es.Ez (V/m) @ t=0.6
-2.8481671143512015
% es.tEx (V/m) @ t=0.6
-0.8919430471048315
% es.tEy (V/m) @ t=0.6
0
% es.tEz (V/m) @ t=0.6
-2.8481671143512095
% V (V) @ t=0.6
0.015028413872505595
% es.normE (V/m) @ t=0.62
3.0177795349294323
% es.EX (V/m) @ t=0.62
-0.9002638392634454
% es.EY (V/m) @ t=0.62
0.06724641795091978
% es.EZ (V/m) @ t=0.62
-2.8747372034292225
% es.tEX (V/m) @ t=0.62
-0.9002638392634594
% es.tEY (V/m) @ t=0.62
0
% es.tEZ (V/m) @ t=0.62
-2.8747372034292624
% es.Ex (V/m) @ t=0.62
-0.9002638392634454
% es.Ey (V/m) @ t=0.62
0.06724641795091978
% es.Ez (V/m) @ t=0.62
-2.8747372034292225
% es.tEx (V/m) @ t=0.62
-0.9002638392634594
% es.tEy (V/m) @ t=0.62
0
% es.tEz (V/m) @ t=0.62
-2.8747372034292624
% V (V) @ t=0.62
0.015168611501889239
% es.normE (V/m) @ t=0.64
3.0456717092398193
% es.EX (V/m) @ t=0.64
-0.9085846314220694
% es.EY (V/m) @ t=0.64
0.06786795082447536
% es.EZ (V/m) @ t=0.64
-2.901307292507254
% es.tEX (V/m) @ t=0.64
-0.9085846314220731
% es.tEY (V/m) @ t=0.64
0
% es.tEZ (V/m) @ t=0.64
-2.9013072925072887
% es.Ex (V/m) @ t=0.64
-0.9085846314220694
% es.Ey (V/m) @ t=0.64
0.06786795082447536
% es.Ez (V/m) @ t=0.64
-2.901307292507254
% es.tEx (V/m) @ t=0.64
-0.9085846314220731
% es.tEy (V/m) @ t=0.64
0
% es.tEz (V/m) @ t=0.64
-2.9013072925072887
% V (V) @ t=0.64
0.015308809131272881
% es.normE (V/m) @ t=0.66
3.073563883550249
% es.EX (V/m) @ t=0.66
-0.9169054235806839
% es.EY (V/m) @ t=0.66
0.0684894836980604
% es.EZ (V/m) @ t=0.66
-2.927877381585332
% es.tEX (V/m) @ t=0.66
-0.9169054235806939
% es.tEY (V/m) @ t=0.66
0
% es.tEZ (V/m) @ t=0.66
-2.927877381585356
% es.Ex (V/m) @ t=0.66
-0.9169054235806839
% es.Ey (V/m) @ t=0.66
0.0684894836980604
% es.Ez (V/m) @ t=0.66
-2.927877381585332
% es.tEx (V/m) @ t=0.66
-0.9169054235806939
% es.tEy (V/m) @ t=0.66
0
% es.tEz (V/m) @ t=0.66
-2.927877381585356
% V (V) @ t=0.66
0.015449006760656527
% es.normE (V/m) @ t=0.68
3.1014560578606134
% es.EX (V/m) @ t=0.68
-0.9252262157393132
% es.EY (V/m) @ t=0.68
0.06911101657162494
% es.EZ (V/m) @ t=0.68
-2.954447470663337
% es.tEX (V/m) @ t=0.68
-0.9252262157393147
% es.tEY (V/m) @ t=0.68
0
% es.tEZ (V/m) @ t=0.68
-2.954447470663366
% es.Ex (V/m) @ t=0.68
-0.9252262157393132
% es.Ey (V/m) @ t=0.68
0.06911101657162494
% es.Ez (V/m) @ t=0.68
-2.954447470663337
% es.tEx (V/m) @ t=0.68
-0.9252262157393147
% es.tEy (V/m) @ t=0.68
0
% es.tEz (V/m) @ t=0.68
-2.954447470663366
% V (V) @ t=0.68
0.015589204390040173
% es.normE (V/m) @ t=0.7
3.129348232171001
% es.EX (V/m) @ t=0.7
-0.933547007897928
% es.EY (V/m) @ t=0.7
0.06973254944520375
% es.EZ (V/m) @ t=0.7
-2.98101755974137
% es.tEX (V/m) @ t=0.7
-0.9335470078979355
% es.tEY (V/m) @ t=0.7
0
% es.tEZ (V/m) @ t=0.7
-2.9810175597413906
% es.Ex (V/m) @ t=0.7
-0.933547007897928
% es.Ey (V/m) @ t=0.7
0.06973254944520375
% es.Ez (V/m) @ t=0.7
-2.98101755974137
% es.tEx (V/m) @ t=0.7
-0.9335470078979355
% es.tEy (V/m) @ t=0.7
0
% es.tEz (V/m) @ t=0.7
-2.9810175597413906
% V (V) @ t=0.7
0.015729402019423813
% es.normE (V/m) @ t=0.72
3.1572404064814026
% es.EX (V/m) @ t=0.72
-0.9418678000565481
% es.EY (V/m) @ t=0.72
0.07035408231877495
% es.EZ (V/m) @ t=0.72
-3.0075876488194178
% es.tEX (V/m) @ t=0.72
-0.9418678000565563
% es.tEY (V/m) @ t=0.72
0
% es.tEZ (V/m) @ t=0.72
-3.0075876488194435
% es.Ex (V/m) @ t=0.72
-0.9418678000565481
% es.Ey (V/m) @ t=0.72
0.07035408231877495
% es.Ez (V/m) @ t=0.72
-3.0075876488194178
% es.tEx (V/m) @ t=0.72
-0.9418678000565563
% es.tEy (V/m) @ t=0.72
0
% es.tEz (V/m) @ t=0.72
-3.0075876488194435
% V (V) @ t=0.72
0.01586959964880746
% es.normE (V/m) @ t=0.74
3.185132580791795
% es.EX (V/m) @ t=0.74
-0.9501885922151754
% es.EY (V/m) @ t=0.74
0.07097561519236037
% es.EZ (V/m) @ t=0.74
-3.034157737897451
% es.tEX (V/m) @ t=0.74
-0.9501885922151843
% es.tEY (V/m) @ t=0.74
0
% es.tEZ (V/m) @ t=0.74
-3.034157737897482
% es.Ex (V/m) @ t=0.74
-0.9501885922151754
% es.Ey (V/m) @ t=0.74
0.07097561519236037
% es.Ez (V/m) @ t=0.74
-3.034157737897451
% es.tEx (V/m) @ t=0.74
-0.9501885922151843
% es.tEy (V/m) @ t=0.74
0
% es.tEz (V/m) @ t=0.74
-3.034157737897482
% V (V) @ t=0.74
0.016009797278191105
% es.normE (V/m) @ t=0.76
3.2130247551021816
% es.EX (V/m) @ t=0.76
-0.9585093843737922
% es.EY (V/m) @ t=0.76
0.07159714806592496
% es.EZ (V/m) @ t=0.76
-3.0607278269754845
% es.tEX (V/m) @ t=0.76
-0.958509384373798
% es.tEY (V/m) @ t=0.76
0
% es.tEZ (V/m) @ t=0.76
-3.0607278269755085
% es.Ex (V/m) @ t=0.76
-0.9585093843737922
% es.Ey (V/m) @ t=0.76
0.07159714806592496
% es.Ez (V/m) @ t=0.76
-3.0607278269754845
% es.tEx (V/m) @ t=0.76
-0.958509384373798
% es.tEy (V/m) @ t=0.76
0
% es.tEz (V/m) @ t=0.76
-3.0607278269755085
% V (V) @ t=0.76
0.01614999490757475
% es.normE (V/m) @ t=0.78
3.242648959657763
% es.EX (V/m) @ t=0.78
-0.9673468757657786
% es.EY (V/m) @ t=0.78
0.07225727653889266
% es.EZ (V/m) @ t=0.78
-3.0889478482870496
% es.tEX (V/m) @ t=0.78
-0.9673468757657844
% es.tEY (V/m) @ t=0.78
0
% es.tEZ (V/m) @ t=0.78
-3.0889478482870807
% es.Ex (V/m) @ t=0.78
-0.9673468757657786
% es.Ey (V/m) @ t=0.78
0.07225727653889266
% es.Ez (V/m) @ t=0.78
-3.0889478482870496
% es.tEx (V/m) @ t=0.78
-0.9673468757657844
% es.tEy (V/m) @ t=0.78
0
% es.tEz (V/m) @ t=0.78
-3.0889478482870807
% V (V) @ t=0.78
0.016298898436253952
% es.normE (V/m) @ t=0.8
3.273608317907268
% es.EX (V/m) @ t=0.8
-0.9765826701850833
% es.EY (V/m) @ t=0.8
0.0729471568347309
% es.EZ (V/m) @ t=0.8
-3.118439737178549
% es.tEX (V/m) @ t=0.8
-0.9765826701850955
% es.tEY (V/m) @ t=0.8
0
% es.tEZ (V/m) @ t=0.8
-3.118439737178573
% es.Ex (V/m) @ t=0.8
-0.9765826701850833
% es.Ey (V/m) @ t=0.8
0.0729471568347309
% es.Ez (V/m) @ t=0.8
-3.118439737178549
% es.tEx (V/m) @ t=0.8
-0.9765826701850955
% es.tEy (V/m) @ t=0.8
0
% es.tEz (V/m) @ t=0.8
-3.118439737178573
% V (V) @ t=0.8
0.016454512998782558
% es.normE (V/m) @ t=0.82
3.3045676761567755
% es.EX (V/m) @ t=0.82
-0.9858184646043949
% es.EY (V/m) @ t=0.82
0.07363703713060836
% es.EZ (V/m) @ t=0.82
-3.14793162607005
% es.tEX (V/m) @ t=0.82
-0.9858184646044066
% es.tEY (V/m) @ t=0.82
0
% es.tEZ (V/m) @ t=0.82
-3.147931626070081
% es.Ex (V/m) @ t=0.82
-0.9858184646043949
% es.Ey (V/m) @ t=0.82
0.07363703713060836
% es.Ez (V/m) @ t=0.82
-3.14793162607005
% es.tEx (V/m) @ t=0.82
-0.9858184646044066
% es.tEy (V/m) @ t=0.82
0
% es.tEz (V/m) @ t=0.82
-3.147931626070081
% V (V) @ t=0.82
0.01661012756131116
% es.normE (V/m) @ t=0.84
3.3355270344062866
% es.EX (V/m) @ t=0.84
-0.9950542590237157
% es.EY (V/m) @ t=0.84
0.07432691742646393
% es.EZ (V/m) @ t=0.84
-3.177423514961549
% es.tEX (V/m) @ t=0.84
-0.9950542590237248
% es.tEY (V/m) @ t=0.84
0
% es.tEZ (V/m) @ t=0.84
-3.177423514961573
% es.Ex (V/m) @ t=0.84
-0.9950542590237157
% es.Ey (V/m) @ t=0.84
0.07432691742646393
% es.Ez (V/m) @ t=0.84
-3.177423514961549
% es.tEx (V/m) @ t=0.84
-0.9950542590237248
% es.tEy (V/m) @ t=0.84
0
% es.tEz (V/m) @ t=0.84
-3.177423514961573
% V (V) @ t=0.84
0.016765742123839765
% es.normE (V/m) @ t=0.86
3.3664863926557897
% es.EX (V/m) @ t=0.86
-1.0042900534430206
% es.EY (V/m) @ t=0.86
0.07501679772232703
% es.EZ (V/m) @ t=0.86
-3.2069154038530483
% es.tEX (V/m) @ t=0.86
-1.0042900534430288
% es.tEY (V/m) @ t=0.86
0
% es.tEZ (V/m) @ t=0.86
-3.206915403853092
% es.Ex (V/m) @ t=0.86
-1.0042900534430206
% es.Ey (V/m) @ t=0.86
0.07501679772232703
% es.Ez (V/m) @ t=0.86
-3.2069154038530483
% es.tEx (V/m) @ t=0.86
-1.0042900534430288
% es.tEy (V/m) @ t=0.86
0
% es.tEz (V/m) @ t=0.86
-3.206915403853092
% V (V) @ t=0.86
0.01692135668636837
% es.normE (V/m) @ t=0.88
3.3974457509052964
% es.EX (V/m) @ t=0.88
-1.0135258478623252
% es.EY (V/m) @ t=0.88
0.07570667801817949
% es.EZ (V/m) @ t=0.88
-3.2364072927445484
% es.tEX (V/m) @ t=0.88
-1.01352584786234
% es.tEY (V/m) @ t=0.88
0
% es.tEZ (V/m) @ t=0.88
-3.2364072927445697
% es.Ex (V/m) @ t=0.88
-1.0135258478623252
% es.Ey (V/m) @ t=0.88
0.07570667801817949
% es.Ez (V/m) @ t=0.88
-3.2364072927445484
% es.tEx (V/m) @ t=0.88
-1.01352584786234
% es.tEy (V/m) @ t=0.88
0
% es.tEz (V/m) @ t=0.88
-3.2364072927445697
% V (V) @ t=0.88
0.017076971248896976
% es.normE (V/m) @ t=0.9
3.4284051091547774
% es.EX (V/m) @ t=0.9
-1.0227616422816408
% es.EY (V/m) @ t=0.9
0.07639655831402484
% es.EZ (V/m) @ t=0.9
-3.265899181636019
% es.tEX (V/m) @ t=0.9
-1.022761642281651
% es.tEY (V/m) @ t=0.9
0
% es.tEZ (V/m) @ t=0.9
-3.265899181636062
% es.Ex (V/m) @ t=0.9
-1.0227616422816408
% es.Ey (V/m) @ t=0.9
0.07639655831402484
% es.Ez (V/m) @ t=0.9
-3.265899181636019
% es.tEx (V/m) @ t=0.9
-1.022761642281651
% es.tEy (V/m) @ t=0.9
0
% es.tEz (V/m) @ t=0.9
-3.265899181636062
% V (V) @ t=0.9
0.01723258581142558
% es.normE (V/m) @ t=0.92
3.459364467404341
% es.EX (V/m) @ t=0.92
-1.0319974367009594
% es.EY (V/m) @ t=0.92
0.07708643860987298
% es.EZ (V/m) @ t=0.92
-3.295391070527577
% es.tEX (V/m) @ t=0.92
-1.031997436700955
% es.tEY (V/m) @ t=0.92
0
% es.tEZ (V/m) @ t=0.92
-3.2953910705275984
% es.Ex (V/m) @ t=0.92
-1.0319974367009594
% es.Ey (V/m) @ t=0.92
0.07708643860987298
% es.Ez (V/m) @ t=0.92
-3.295391070527577
% es.tEx (V/m) @ t=0.92
-1.031997436700955
% es.tEy (V/m) @ t=0.92
0
% es.tEz (V/m) @ t=0.92
-3.2953910705275984
% V (V) @ t=0.92
0.017388200373954183
% es.normE (V/m) @ t=0.94
3.49032382565383
% es.EX (V/m) @ t=0.94
-1.0412332311202555
% es.EY (V/m) @ t=0.94
0.07777631890572899
% es.EZ (V/m) @ t=0.94
-3.324882959419062
% es.tEX (V/m) @ t=0.94
-1.0412332311202661
% es.tEY (V/m) @ t=0.94
0
% es.tEZ (V/m) @ t=0.94
-3.324882959419103
% es.Ex (V/m) @ t=0.94
-1.0412332311202555
% es.Ey (V/m) @ t=0.94
0.07777631890572899
% es.Ez (V/m) @ t=0.94
-3.324882959419062
% es.tEx (V/m) @ t=0.94
-1.0412332311202661
% es.tEy (V/m) @ t=0.94
0
% es.tEz (V/m) @ t=0.94
-3.324882959419103
% V (V) @ t=0.94
0.017543814936482792
% es.normE (V/m) @ t=0.96
3.521283183903337
% es.EX (V/m) @ t=0.96
-1.0504690255395672
% es.EY (V/m) @ t=0.96
0.0784661992015779
% es.EZ (V/m) @ t=0.96
-3.3543748483105613
% es.tEX (V/m) @ t=0.96
-1.0504690255395701
% es.tEY (V/m) @ t=0.96
0
% es.tEZ (V/m) @ t=0.96
-3.354374848310581
% es.Ex (V/m) @ t=0.96
-1.0504690255395672
% es.Ey (V/m) @ t=0.96
0.0784661992015779
% es.Ez (V/m) @ t=0.96
-3.3543748483105613
% es.tEx (V/m) @ t=0.96
-1.0504690255395701
% es.tEy (V/m) @ t=0.96
0
% es.tEz (V/m) @ t=0.96
-3.354374848310581
% V (V) @ t=0.96
0.017699429499011394
% es.normE (V/m) @ t=0.98
3.55224254215283
% es.EX (V/m) @ t=0.98
-1.059704819958874
% es.EY (V/m) @ t=0.98
0.079156079497441
% es.EZ (V/m) @ t=0.98
-3.3838667372020472
% es.tEX (V/m) @ t=0.98
-1.0597048199588883
% es.tEY (V/m) @ t=0.98
0
% es.tEZ (V/m) @ t=0.98
-3.383866737202087
% es.Ex (V/m) @ t=0.98
-1.059704819958874
% es.Ey (V/m) @ t=0.98
0.079156079497441
% es.Ez (V/m) @ t=0.98
-3.3838667372020472
% es.tEx (V/m) @ t=0.98
-1.0597048199588883
% es.tEy (V/m) @ t=0.98
0
% es.tEz (V/m) @ t=0.98
-3.383866737202087
% V (V) @ t=0.98
0.017855044061540003
% es.normE (V/m) @ t=1
3.5832019004023365
% es.EX (V/m) @ t=1
-1.0689406143781874
% es.EY (V/m) @ t=1
0.07984595979330056
% es.EZ (V/m) @ t=1
-3.4133586260935465
% es.tEX (V/m) @ t=1
-1.0689406143781923
% es.tEY (V/m) @ t=1
0
% es.tEZ (V/m) @ t=1
-3.413358626093565
% es.Ex (V/m) @ t=1
-1.0689406143781874
% es.Ey (V/m) @ t=1
0.07984595979330056
% es.Ez (V/m) @ t=1
-3.4133586260935465
% es.tEx (V/m) @ t=1
-1.0689406143781923
% es.tEy (V/m) @ t=1
0
% es.tEz (V/m) @ t=1
-3.413358626093565
% V (V) @ t=1
0.018010658624068605
% es.normE (V/m) @ t=1.02
3.614161258651847
% es.EX (V/m) @ t=1.02
-1.0781764087975083
% es.EY (V/m) @ t=1.02
0.08053584008914191
% es.EZ (V/m) @ t=1.02
-3.4428505149850457
% es.tEX (V/m) @ t=1.02
-1.0781764087975176
% es.tEY (V/m) @ t=1.02
0
% es.tEZ (V/m) @ t=1.02
-3.4428505149851016
% es.Ex (V/m) @ t=1.02
-1.0781764087975083
% es.Ey (V/m) @ t=1.02
0.08053584008914191
% es.Ez (V/m) @ t=1.02
-3.4428505149850457
% es.tEx (V/m) @ t=1.02
-1.0781764087975176
% es.tEy (V/m) @ t=1.02
0
% es.tEz (V/m) @ t=1.02
-3.4428505149851016
% V (V) @ t=1.02
0.018166273186597207
% es.normE (V/m) @ t=1.04
3.6462504297067655
% es.EX (V/m) @ t=1.04