% Model:              1 neuron.mph
% Version:            COMSOL 6.1.0.252
% Date:               Mar 22 2023, 18:44
% Dimension:          0
% Nodes:              14017
% Expressions:        14017
% Description:        Electric field norm, Electric field, X component, Electric field, Y component, Electric field, Z component, Tangential electric field, X component, Tangential electric field, Y component, Tangential electric field, Z component, Electric field, x component, Electric field, y component, Electric field, z component, Tangential electric field, x component, Tangential electric field, y component, Tangential electric field, z component, Electric potential
% Length unit:        mm
% x
1
% y
12.2
% z
1.33
% es.normE (V/m) @ t=0
2.6740421518449247
% es.EX (V/m) @ t=0
2.4711655280909293
% es.EY (V/m) @ t=0
0.15559978983581002
% es.EZ (V/m) @ t=0
0.9989983056878007
% es.tEX (V/m) @ t=0
2.4711655280909213
% es.tEY (V/m) @ t=0
0
% es.tEZ (V/m) @ t=0
0.9989983056878069
% es.Ex (V/m) @ t=0
2.4711655280909293
% es.Ey (V/m) @ t=0
0.15559978983581002
% es.Ez (V/m) @ t=0
0.9989983056878007
% es.tEx (V/m) @ t=0
2.4711655280909213
% es.tEy (V/m) @ t=0
0
% es.tEz (V/m) @ t=0
0.9989983056878069
% V (V) @ t=0
0.01333855916879049
% es.normE (V/m) @ t=0.02
2.30958834420722
% es.EX (V/m) @ t=0.02
2.134362428180933
% es.EY (V/m) @ t=0.02
0.13439259394424585
% es.EZ (V/m) @ t=0.02
0.8628416127046099
% es.tEX (V/m) @ t=0.02
2.13436242818093
% es.tEY (V/m) @ t=0.02
0
% es.tEZ (V/m) @ t=0.02
0.862841612704611
% es.Ex (V/m) @ t=0.02
2.134362428180933
% es.Ey (V/m) @ t=0.02
0.13439259394424585
% es.Ez (V/m) @ t=0.02
0.8628416127046099
% es.tEx (V/m) @ t=0.02
2.13436242818093
% es.tEy (V/m) @ t=0.02
0
% es.tEz (V/m) @ t=0.02
0.862841612704611
% V (V) @ t=0.02
0.011520604025750903
% es.normE (V/m) @ t=0.04
2.3308251760656997
% es.EX (V/m) @ t=0.04
2.1539880450651223
% es.EY (V/m) @ t=0.04
0.13562834362167775
% es.EZ (V/m) @ t=0.04
0.8707755037450118
% es.tEX (V/m) @ t=0.04
2.1539880450651285
% es.tEY (V/m) @ t=0.04
0
% es.tEZ (V/m) @ t=0.04
0.8707755037450102
% es.Ex (V/m) @ t=0.04
2.1539880450651223
% es.Ey (V/m) @ t=0.04
0.13562834362167775
% es.Ez (V/m) @ t=0.04
0.8707755037450118
% es.tEx (V/m) @ t=0.04
2.1539880450651285
% es.tEy (V/m) @ t=0.04
0
% es.tEz (V/m) @ t=0.04
0.8707755037450102
% V (V) @ t=0.04
0.011626536810880935
% es.normE (V/m) @ t=0.06
2.352214348961352
% es.EX (V/m) @ t=0.06
2.1737544450617623
% es.EY (V/m) @ t=0.06
0.13687295768260466
% es.EZ (V/m) @ t=0.06
0.8787663079853287
% es.tEX (V/m) @ t=0.06
2.1737544450617623
% es.tEY (V/m) @ t=0.06
0
% es.tEZ (V/m) @ t=0.06
0.8787663079853214
% es.Ex (V/m) @ t=0.06
2.1737544450617623
% es.Ey (V/m) @ t=0.06
0.13687295768260466
% es.Ez (V/m) @ t=0.06
0.8787663079853287
% es.tEx (V/m) @ t=0.06
2.1737544450617623
% es.tEy (V/m) @ t=0.06
0
% es.tEz (V/m) @ t=0.06
0.8787663079853214
% V (V) @ t=0.06
0.011733229505280583
% es.normE (V/m) @ t=0.08
2.3740187678475637
% es.EX (V/m) @ t=0.08
2.1939045867784888
% es.EY (V/m) @ t=0.08
0.13814173459555013
% es.EZ (V/m) @ t=0.08
0.8869122444648534
% es.tEX (V/m) @ t=0.08
2.1939045867784905
% es.tEY (V/m) @ t=0.08
0
% es.tEZ (V/m) @ t=0.08
0.8869122444648534
% es.Ex (V/m) @ t=0.08
2.1939045867784888
% es.Ey (V/m) @ t=0.08
0.13814173459555013
% es.Ez (V/m) @ t=0.08
0.8869122444648534
% es.tEx (V/m) @ t=0.08
2.1939045867784905
% es.tEy (V/m) @ t=0.08
0
% es.tEz (V/m) @ t=0.08
0.8869122444648534
% V (V) @ t=0.08
0.011841993510007491
% es.normE (V/m) @ t=0.1
2.3959266034928053
% es.EX (V/m) @ t=0.1
2.2141502991350315
% es.EY (V/m) @ t=0.1
0.13941652925198766
% es.EZ (V/m) @ t=0.1
0.8950968165332969
% es.tEX (V/m) @ t=0.1
2.2141502991350315
% es.tEY (V/m) @ t=0.1
0
% es.tEZ (V/m) @ t=0.1
0.8950968165332984
% es.Ex (V/m) @ t=0.1
2.2141502991350315
% es.Ey (V/m) @ t=0.1
0.13941652925198766
% es.Ez (V/m) @ t=0.1
0.8950968165332969
% es.tEx (V/m) @ t=0.1
2.2141502991350315
% es.tEy (V/m) @ t=0.1
0
% es.tEz (V/m) @ t=0.1
0.8950968165332984
% V (V) @ t=0.1
0.011951273373299933
% es.normE (V/m) @ t=0.12
2.417834439138053
% es.EX (V/m) @ t=0.12
2.234396011491576
% es.EY (V/m) @ t=0.12
0.14069132390840844
% es.EZ (V/m) @ t=0.12
0.9032813886017526
% es.tEX (V/m) @ t=0.12
2.234396011491576
% es.tEY (V/m) @ t=0.12
0
% es.tEZ (V/m) @ t=0.12
0.9032813886017546
% es.Ex (V/m) @ t=0.12
2.234396011491576
% es.Ey (V/m) @ t=0.12
0.14069132390840844
% es.Ez (V/m) @ t=0.12
0.9032813886017526
% es.tEx (V/m) @ t=0.12
2.234396011491576
% es.tEy (V/m) @ t=0.12
0
% es.tEz (V/m) @ t=0.12
0.9032813886017546
% V (V) @ t=0.12
0.012060553236592376
% es.normE (V/m) @ t=0.14
2.4404065354006415
% es.EX (V/m) @ t=0.14
2.255255587748362
% es.EY (V/m) @ t=0.14
0.1420047711981176
% es.EZ (V/m) @ t=0.14
0.911714122509008
% es.tEX (V/m) @ t=0.14
2.2552555877483655
% es.tEY (V/m) @ t=0.14
0
% es.tEZ (V/m) @ t=0.14
0.9117141225090188
% es.Ex (V/m) @ t=0.14
2.255255587748362
% es.Ey (V/m) @ t=0.14
0.1420047711981176
% es.Ez (V/m) @ t=0.14
0.911714122509008
% es.tEx (V/m) @ t=0.14
2.2552555877483655
% es.tEy (V/m) @ t=0.14
0
% es.tEz (V/m) @ t=0.14
0.9117141225090188
% V (V) @ t=0.14
0.012173146541067346
% es.normE (V/m) @ t=0.16
2.4634078863469684
% es.EX (V/m) @ t=0.16
2.2765118516116107
% es.EY (V/m) @ t=0.16
0.1433431963706463
% es.EZ (V/m) @ t=0.16
0.9203072221354431
% es.tEX (V/m) @ t=0.16
2.2765118516116143
% es.tEY (V/m) @ t=0.16
0
% es.tEZ (V/m) @ t=0.16
0.9203072221354391
% es.Ex (V/m) @ t=0.16
2.2765118516116107
% es.Ey (V/m) @ t=0.16
0.1433431963706463
% es.Ez (V/m) @ t=0.16
0.9203072221354431
% es.tEx (V/m) @ t=0.16
2.2765118516116143
% es.tEy (V/m) @ t=0.16
0
% es.tEz (V/m) @ t=0.16
0.9203072221354391
% V (V) @ t=0.16
0.01228788103848635
% es.normE (V/m) @ t=0.18
2.4864092372932616
% es.EX (V/m) @ t=0.18
2.2977681154748195
% es.EY (V/m) @ t=0.18
0.14468162154318998
% es.EZ (V/m) @ t=0.18
0.9289003217618821
% es.tEX (V/m) @ t=0.18
2.2977681154748186
% es.tEY (V/m) @ t=0.18
0
% es.tEZ (V/m) @ t=0.18
0.9289003217618825
% es.Ex (V/m) @ t=0.18
2.2977681154748195
% es.Ey (V/m) @ t=0.18
0.14468162154318998
% es.Ez (V/m) @ t=0.18
0.9289003217618821
% es.tEx (V/m) @ t=0.18
2.2977681154748186
% es.tEy (V/m) @ t=0.18
0
% es.tEz (V/m) @ t=0.18
0.9289003217618825
% V (V) @ t=0.18
0.012402615535905357
% es.normE (V/m) @ t=0.2
2.5094105882395805
% es.EX (V/m) @ t=0.2
2.319024379338061
% es.EY (V/m) @ t=0.2
0.14602004671572055
% es.EZ (V/m) @ t=0.2
0.9374934213883135
% es.tEX (V/m) @ t=0.2
2.3190243793380674
% es.tEY (V/m) @ t=0.2
0
% es.tEZ (V/m) @ t=0.2
0.9374934213883179
% es.Ex (V/m) @ t=0.2
2.319024379338061
% es.Ey (V/m) @ t=0.2
0.14602004671572055
% es.Ez (V/m) @ t=0.2
0.9374934213883135
% es.tEx (V/m) @ t=0.2
2.3190243793380674
% es.tEy (V/m) @ t=0.2
0
% es.tEz (V/m) @ t=0.2
0.9374934213883179
% V (V) @ t=0.2
0.012517350033324362
% es.normE (V/m) @ t=0.22
2.532411939185902
% es.EX (V/m) @ t=0.22
2.3402806432013037
% es.EY (V/m) @ t=0.22
0.14735847188825546
% es.EZ (V/m) @ t=0.22
0.9460865210147476
% es.tEX (V/m) @ t=0.22
2.340280643201302
% es.tEY (V/m) @ t=0.22
0
% es.tEZ (V/m) @ t=0.22
0.9460865210147507
% es.Ex (V/m) @ t=0.22
2.3402806432013037
% es.Ey (V/m) @ t=0.22
0.14735847188825546
% es.Ez (V/m) @ t=0.22
0.9460865210147476
% es.tEx (V/m) @ t=0.22
2.340280643201302
% es.tEy (V/m) @ t=0.22
0
% es.tEz (V/m) @ t=0.22
0.9460865210147507
% V (V) @ t=0.22
0.012632084530743366
% es.normE (V/m) @ t=0.24
2.555413290132221
% es.EX (V/m) @ t=0.24
2.361536907064539
% es.EY (V/m) @ t=0.24
0.14869689706079647
% es.EZ (V/m) @ t=0.24
0.9546796206411927
% es.tEX (V/m) @ t=0.24
2.3615369070645382
% es.tEY (V/m) @ t=0.24
0
% es.tEZ (V/m) @ t=0.24
0.9546796206411923
% es.Ex (V/m) @ t=0.24
2.361536907064539
% es.Ey (V/m) @ t=0.24
0.14869689706079647
% es.Ez (V/m) @ t=0.24
0.9546796206411927
% es.tEx (V/m) @ t=0.24
2.3615369070645382
% es.tEy (V/m) @ t=0.24
0
% es.tEz (V/m) @ t=0.24
0.9546796206411923
% V (V) @ t=0.24
0.012746819028162371
% es.normE (V/m) @ t=0.26
2.578954481966903
% es.EX (V/m) @ t=0.26
2.383292054632264
% es.EY (V/m) @ t=0.26
0.15006673407581506
% es.EZ (V/m) @ t=0.26
0.9634744001462536
% es.tEX (V/m) @ t=0.26
2.3832920546322605
% es.tEY (V/m) @ t=0.26
0
% es.tEZ (V/m) @ t=0.26
0.9634744001462465
% es.Ex (V/m) @ t=0.26
2.383292054632264
% es.Ey (V/m) @ t=0.26
0.15006673407581506
% es.Ez (V/m) @ t=0.26
0.9634744001462536
% es.tEx (V/m) @ t=0.26
2.3832920546322605
% es.tEy (V/m) @ t=0.26
0
% es.tEz (V/m) @ t=0.26
0.9634744001462465
% V (V) @ t=0.26
0.012864246378995473
% es.normE (V/m) @ t=0.28
2.604396946768693
% es.EX (V/m) @ t=0.28
2.4068042275041233
% es.EY (V/m) @ t=0.28
0.1515472008861113
% es.EZ (V/m) @ t=0.28
0.972979478758937
% es.tEX (V/m) @ t=0.28
2.406804227504116
% es.tEY (V/m) @ t=0.28
0
% es.tEZ (V/m) @ t=0.28
0.9729794787589334
% es.Ex (V/m) @ t=0.28
2.4068042275041233
% es.Ey (V/m) @ t=0.28
0.1515472008861113
% es.Ez (V/m) @ t=0.28
0.972979478758937
% es.tEx (V/m) @ t=0.28
2.406804227504116
% es.tEy (V/m) @ t=0.28
0
% es.tEz (V/m) @ t=0.28
0.9729794787589334
% V (V) @ t=0.28
0.012991157726893212
% es.normE (V/m) @ t=0.3
2.629839411570466
% es.EX (V/m) @ t=0.3
2.430316400375977
% es.EY (V/m) @ t=0.3
0.1530276676964295
% es.EZ (V/m) @ t=0.3
0.9824845573715919
% es.tEX (V/m) @ t=0.3
2.4303164003759825
% es.tEY (V/m) @ t=0.3
0
% es.tEZ (V/m) @ t=0.3
0.9824845573715848
% es.Ex (V/m) @ t=0.3
2.430316400375977
% es.Ey (V/m) @ t=0.3
0.1530276676964295
% es.Ez (V/m) @ t=0.3
0.9824845573715919
% es.tEx (V/m) @ t=0.3
2.4303164003759825
% es.tEy (V/m) @ t=0.3
0
% es.tEz (V/m) @ t=0.3
0.9824845573715848
% V (V) @ t=0.3
0.013118069074790953
% es.normE (V/m) @ t=0.32
2.655281876372249
% es.EX (V/m) @ t=0.32
2.4538285732478435
% es.EY (V/m) @ t=0.32
0.1545081345067264
% es.EZ (V/m) @ t=0.32
0.9919896359842388
% es.tEX (V/m) @ t=0.32
2.4538285732478435
% es.tEY (V/m) @ t=0.32
0
% es.tEZ (V/m) @ t=0.32
0.9919896359842353
% es.Ex (V/m) @ t=0.32
2.4538285732478435
% es.Ey (V/m) @ t=0.32
0.1545081345067264
% es.Ez (V/m) @ t=0.32
0.9919896359842388
% es.tEx (V/m) @ t=0.32
2.4538285732478435
% es.tEy (V/m) @ t=0.32
0
% es.tEz (V/m) @ t=0.32
0.9919896359842353
% V (V) @ t=0.32
0.013244980422688688
% es.normE (V/m) @ t=0.34
2.680724341174033
% es.EX (V/m) @ t=0.34
2.4773407461197046
% es.EY (V/m) @ t=0.34
0.15598860131701997
% es.EZ (V/m) @ t=0.34
1.001494714596908
% es.tEX (V/m) @ t=0.34
2.477340746119703
% es.tEY (V/m) @ t=0.34
0
% es.tEZ (V/m) @ t=0.34
1.001494714596908
% es.Ex (V/m) @ t=0.34
2.4773407461197046
% es.Ey (V/m) @ t=0.34
0.15598860131701997
% es.Ez (V/m) @ t=0.34
1.001494714596908
% es.tEx (V/m) @ t=0.34
2.477340746119703
% es.tEy (V/m) @ t=0.34
0
% es.tEz (V/m) @ t=0.34
1.001494714596908
% V (V) @ t=0.34
0.01337189177058643
% es.normE (V/m) @ t=0.36
2.706166805975819
% es.EX (V/m) @ t=0.36
2.5008529189915656
% es.EY (V/m) @ t=0.36
0.15746906812732409
% es.EZ (V/m) @ t=0.36
1.0109997932095762
% es.tEX (V/m) @ t=0.36
2.5008529189915567
% es.tEY (V/m) @ t=0.36
0
% es.tEZ (V/m) @ t=0.36
1.0109997932095798
% es.Ex (V/m) @ t=0.36
2.5008529189915656
% es.Ey (V/m) @ t=0.36
0.15746906812732409
% es.Ez (V/m) @ t=0.36
1.0109997932095762
% es.tEx (V/m) @ t=0.36
2.5008529189915567
% es.tEy (V/m) @ t=0.36
0
% es.tEz (V/m) @ t=0.36
1.0109997932095798
% V (V) @ t=0.36
0.013498803118484167
% es.normE (V/m) @ t=0.38
2.7316092707775956
% es.EX (V/m) @ t=0.38
2.5243650918634186
% es.EY (V/m) @ t=0.38
0.15894953493762298
% es.EZ (V/m) @ t=0.38
1.0205048718222427
% es.tEX (V/m) @ t=0.38
2.5243650918634195
% es.tEY (V/m) @ t=0.38
0
% es.tEZ (V/m) @ t=0.38
1.02050487182224
% es.Ex (V/m) @ t=0.38
2.5243650918634186
% es.Ey (V/m) @ t=0.38
0.15894953493762298
% es.Ez (V/m) @ t=0.38
1.0205048718222427
% es.tEx (V/m) @ t=0.38
2.5243650918634195
% es.tEy (V/m) @ t=0.38
0
% es.tEz (V/m) @ t=0.38
1.02050487182224
% V (V) @ t=0.38
0.013625714466381911
% es.normE (V/m) @ t=0.4
2.757051735579382
% es.EX (V/m) @ t=0.4
2.5478772647352876
% es.EY (V/m) @ t=0.4
0.16043000174792177
% es.EZ (V/m) @ t=0.4
1.030009950434894
% es.tEX (V/m) @ t=0.4
2.5478772647352965
% es.tEY (V/m) @ t=0.4
0
% es.tEZ (V/m) @ t=0.4
1.0300099504348923
% es.Ex (V/m) @ t=0.4
2.5478772647352876
% es.Ey (V/m) @ t=0.4
0.16043000174792177
% es.Ez (V/m) @ t=0.4
1.030009950434894
% es.tEx (V/m) @ t=0.4
2.5478772647352965
% es.tEy (V/m) @ t=0.4
0
% es.tEz (V/m) @ t=0.4
1.0300099504348923
% V (V) @ t=0.4
0.013752625814279648
% es.normE (V/m) @ t=0.42
2.7824942003811657
% es.EX (V/m) @ t=0.42
2.5713894376071487
% es.EY (V/m) @ t=0.42
0.16191046855822955
% es.EZ (V/m) @ t=0.42
1.0395150290475588
% es.tEX (V/m) @ t=0.42
2.571389437607152
% es.tEY (V/m) @ t=0.42
0
% es.tEZ (V/m) @ t=0.42
1.0395150290475632
% es.Ex (V/m) @ t=0.42
2.5713894376071487
% es.Ey (V/m) @ t=0.42
0.16191046855822955
% es.Ez (V/m) @ t=0.42
1.0395150290475588
% es.tEx (V/m) @ t=0.42
2.571389437607152
% es.tEy (V/m) @ t=0.42
0
% es.tEz (V/m) @ t=0.42
1.0395150290475632
% V (V) @ t=0.42
0.013879537162177385
% es.normE (V/m) @ t=0.44
2.807936665182956
% es.EX (V/m) @ t=0.44
2.5949016104790124
% es.EY (V/m) @ t=0.44
0.1633909353685371
% es.EZ (V/m) @ t=0.44
1.0490201076602341
% es.tEX (V/m) @ t=0.44
2.594901610479015
% es.tEY (V/m) @ t=0.44
0
% es.tEZ (V/m) @ t=0.44
1.049020107660235
% es.Ex (V/m) @ t=0.44
2.5949016104790124
% es.Ey (V/m) @ t=0.44
0.1633909353685371
% es.Ez (V/m) @ t=0.44
1.0490201076602341
% es.tEx (V/m) @ t=0.44
2.594901610479015
% es.tEy (V/m) @ t=0.44
0
% es.tEz (V/m) @ t=0.44
1.049020107660235
% V (V) @ t=0.44
0.014006448510075126
% es.normE (V/m) @ t=0.46
2.8333791299847224
% es.EX (V/m) @ t=0.46
2.6184137833508547
% es.EY (V/m) @ t=0.46
0.16487140217884289
% es.EZ (V/m) @ t=0.46
1.0585251862728962
% es.tEX (V/m) @ t=0.46
2.6184137833508654
% es.tEY (V/m) @ t=0.46
0
% es.tEZ (V/m) @ t=0.46
1.0585251862729006
% es.Ex (V/m) @ t=0.46
2.6184137833508547
% es.Ey (V/m) @ t=0.46
0.16487140217884289
% es.Ez (V/m) @ t=0.46
1.0585251862728962
% es.tEx (V/m) @ t=0.46
2.6184137833508654
% es.tEy (V/m) @ t=0.46
0
% es.tEz (V/m) @ t=0.46
1.0585251862729006
% V (V) @ t=0.46
0.014133359857972864
% es.normE (V/m) @ t=0.48
2.8588215947865216
% es.EX (V/m) @ t=0.48
2.6419259562227353
% es.EY (V/m) @ t=0.48
0.16635186898914878
% es.EZ (V/m) @ t=0.48
1.0680302648855502
% es.tEX (V/m) @ t=0.48
2.6419259562227335
% es.tEY (V/m) @ t=0.48
0
% es.tEZ (V/m) @ t=0.48
1.068030264885551
% es.Ex (V/m) @ t=0.48
2.6419259562227353
% es.Ey (V/m) @ t=0.48
0.16635186898914878
% es.Ez (V/m) @ t=0.48
1.0680302648855502
% es.tEx (V/m) @ t=0.48
2.6419259562227335
% es.tEy (V/m) @ t=0.48
0
% es.tEz (V/m) @ t=0.48
1.068030264885551
% V (V) @ t=0.48
0.014260271205870602
% es.normE (V/m) @ t=0.5
2.884264059588306
% es.EX (V/m) @ t=0.5
2.6654381290945963
% es.EY (V/m) @ t=0.5
0.1678323357994459
% es.EZ (V/m) @ t=0.5
1.0775353434982184
% es.tEX (V/m) @ t=0.5
2.6654381290945928
% es.tEY (V/m) @ t=0.5
0
% es.tEZ (V/m) @ t=0.5
1.077535343498215
% es.Ex (V/m) @ t=0.5
2.6654381290945963
% es.Ey (V/m) @ t=0.5
0.1678323357994459
% es.Ez (V/m) @ t=0.5
1.0775353434982184
% es.tEx (V/m) @ t=0.5
2.6654381290945928
% es.tEy (V/m) @ t=0.5
0
% es.tEz (V/m) @ t=0.5
1.077535343498215
% V (V) @ t=0.5
0.014387182553768344
% es.normE (V/m) @ t=0.52
2.9109371359867313
% es.EX (V/m) @ t=0.52
2.6900875485075257
% es.EY (V/m) @ t=0.52
0.16938441242514457
% es.EZ (V/m) @ t=0.52
1.0875001674058913
% es.tEX (V/m) @ t=0.52
2.690087548507524
% es.tEY (V/m) @ t=0.52
0
% es.tEZ (V/m) @ t=0.52
1.0875001674058948
% es.Ex (V/m) @ t=0.52
2.6900875485075257
% es.Ey (V/m) @ t=0.52
0.16938441242514457
% es.Ez (V/m) @ t=0.52
1.0875001674058913
% es.tEx (V/m) @ t=0.52
2.690087548507524
% es.tEy (V/m) @ t=0.52
0
% es.tEz (V/m) @ t=0.52
1.0875001674058948
% V (V) @ t=0.52
0.014520232322135633
% es.normE (V/m) @ t=0.54
2.939123272614034
% es.EX (V/m) @ t=0.54
2.7161352340479734
% es.EY (V/m) @ t=0.54
0.17102453467299916
% es.EZ (V/m) @ t=0.54
1.0980302568475455
% es.tEX (V/m) @ t=0.54
2.7161352340479805
% es.tEY (V/m) @ t=0.54
0
% es.tEZ (V/m) @ t=0.54
1.0980302568475437
% es.Ex (V/m) @ t=0.54
2.7161352340479734
% es.Ey (V/m) @ t=0.54
0.17102453467299916
% es.Ez (V/m) @ t=0.54
1.0980302568475455
% es.tEx (V/m) @ t=0.54
2.7161352340479805
% es.tEy (V/m) @ t=0.54
0
% es.tEz (V/m) @ t=0.54
1.0980302568475437
% V (V) @ t=0.54
0.01466082939454736
% es.normE (V/m) @ t=0.56
2.9673094092413335
% es.EX (V/m) @ t=0.56
2.742182919588422
% es.EY (V/m) @ t=0.56
0.17266465692083222
% es.EZ (V/m) @ t=0.56
1.1085603462891926
% es.tEX (V/m) @ t=0.56
2.7421829195884353
% es.tEY (V/m) @ t=0.56
0
% es.tEZ (V/m) @ t=0.56
1.1085603462891926
% es.Ex (V/m) @ t=0.56
2.742182919588422
% es.Ey (V/m) @ t=0.56
0.17266465692083222
% es.Ez (V/m) @ t=0.56
1.1085603462891926
% es.tEx (V/m) @ t=0.56
2.7421829195884353
% es.tEy (V/m) @ t=0.56
0
% es.tEz (V/m) @ t=0.56
1.1085603462891926
% V (V) @ t=0.56
0.014801426466959079
% es.normE (V/m) @ t=0.58
2.995495545868642
% es.EX (V/m) @ t=0.58
2.768230605128881
% es.EY (V/m) @ t=0.58
0.1743047791686816
% es.EZ (V/m) @ t=0.58
1.1190904357308344
% es.tEX (V/m) @ t=0.58
2.7682306051288794
% es.tEY (V/m) @ t=0.58
0
% es.tEZ (V/m) @ t=0.58
1.119090435730831
% es.Ex (V/m) @ t=0.58
2.768230605128881
% es.Ey (V/m) @ t=0.58
0.1743047791686816
% es.Ez (V/m) @ t=0.58
1.1190904357308344
% es.tEx (V/m) @ t=0.58
2.7682306051288794
% es.tEy (V/m) @ t=0.58
0
% es.tEz (V/m) @ t=0.58
1.119090435730831
% V (V) @ t=0.58
0.014942023539370805
% es.normE (V/m) @ t=0.6
3.023681682495928
% es.EX (V/m) @ t=0.6
2.7942782906693218
% es.EY (V/m) @ t=0.6
0.17594490141653618
% es.EZ (V/m) @ t=0.6
1.1296205251724611
% es.tEX (V/m) @ t=0.6
2.79427829066932
% es.tEY (V/m) @ t=0.6
0
% es.tEZ (V/m) @ t=0.6
1.1296205251724594
% es.Ex (V/m) @ t=0.6
2.7942782906693218
% es.Ey (V/m) @ t=0.6
0.17594490141653618
% es.Ez (V/m) @ t=0.6
1.1296205251724611
% es.tEx (V/m) @ t=0.6
2.79427829066932
% es.tEy (V/m) @ t=0.6
0
% es.tEz (V/m) @ t=0.6
1.1296205251724594
% V (V) @ t=0.6
0.015082620611782529
% es.normE (V/m) @ t=0.62
3.0518678191232285
% es.EX (V/m) @ t=0.62
2.820325976209773
% es.EY (V/m) @ t=0.62
0.17758502366439088
% es.EZ (V/m) @ t=0.62
1.1401506146141012
% es.tEX (V/m) @ t=0.62
2.8203259762097765
% es.tEY (V/m) @ t=0.62
0
% es.tEZ (V/m) @ t=0.62
1.1401506146141012
% es.Ex (V/m) @ t=0.62
2.820325976209773
% es.Ey (V/m) @ t=0.62
0.17758502366439088
% es.Ez (V/m) @ t=0.62
1.1401506146141012
% es.tEx (V/m) @ t=0.62
2.8203259762097765
% es.tEy (V/m) @ t=0.62
0
% es.tEz (V/m) @ t=0.62
1.1401506146141012
% V (V) @ t=0.62
0.015223217684194252
% es.normE (V/m) @ t=0.64
3.0800539557505475
% es.EX (V/m) @ t=0.64
2.846373661750235
% es.EY (V/m) @ t=0.64
0.17922514591221517
% es.EZ (V/m) @ t=0.64
1.1506807040557687
% es.tEX (V/m) @ t=0.64
2.8463736617502313
% es.tEY (V/m) @ t=0.64
0
% es.tEZ (V/m) @ t=0.64
1.1506807040557687
% es.Ex (V/m) @ t=0.64
2.846373661750235
% es.Ey (V/m) @ t=0.64
0.17922514591221517
% es.Ez (V/m) @ t=0.64
1.1506807040557687
% es.tEx (V/m) @ t=0.64
2.8463736617502313
% es.tEy (V/m) @ t=0.64
0
% es.tEz (V/m) @ t=0.64
1.1506807040557687
% V (V) @ t=0.64
0.015363814756605976
% es.normE (V/m) @ t=0.66
3.1082400923778275
% es.EX (V/m) @ t=0.66
2.8724213472906683
% es.EY (V/m) @ t=0.66
0.1808652681600822
% es.EZ (V/m) @ t=0.66
1.1612107934973945
% es.tEX (V/m) @ t=0.66
2.8724213472906666
% es.tEY (V/m) @ t=0.66
0
% es.tEZ (V/m) @ t=0.66
1.1612107934973963
% es.Ex (V/m) @ t=0.66
2.8724213472906683
% es.Ey (V/m) @ t=0.66
0.1808652681600822
% es.Ez (V/m) @ t=0.66
1.1612107934973945
% es.tEx (V/m) @ t=0.66
2.8724213472906666
% es.tEy (V/m) @ t=0.66
0
% es.tEz (V/m) @ t=0.66
1.1612107934973963
% V (V) @ t=0.66
0.015504411829017697
% es.normE (V/m) @ t=0.68
3.1364262290051332
% es.EX (V/m) @ t=0.68
2.898469032831116
% es.EY (V/m) @ t=0.68
0.18250539040793157
% es.EZ (V/m) @ t=0.68
1.1717408829390585
% es.tEX (V/m) @ t=0.68
2.8984690328311142
% es.tEY (V/m) @ t=0.68
0
% es.tEZ (V/m) @ t=0.68
1.1717408829390568
% es.Ex (V/m) @ t=0.68
2.898469032831116
% es.Ey (V/m) @ t=0.68
0.18250539040793157
% es.Ez (V/m) @ t=0.68
1.1717408829390585
% es.tEx (V/m) @ t=0.68
2.8984690328311142
% es.tEy (V/m) @ t=0.68
0
% es.tEz (V/m) @ t=0.68
1.1717408829390568
% V (V) @ t=0.68
0.015645008901429426
% es.normE (V/m) @ t=0.7
3.16461236563243
% es.EX (V/m) @ t=0.7
2.924516718371569
% es.EY (V/m) @ t=0.7
0.1841455126557665
% es.EZ (V/m) @ t=0.7
1.1822709723806897
% es.tEX (V/m) @ t=0.7
2.9245167183715743
% es.tEY (V/m) @ t=0.7
0
% es.tEZ (V/m) @ t=0.7
1.182270972380688
% es.Ex (V/m) @ t=0.7
2.924516718371569
% es.Ey (V/m) @ t=0.7
0.1841455126557665
% es.Ez (V/m) @ t=0.7
1.1822709723806897
% es.tEx (V/m) @ t=0.7
2.9245167183715743
% es.tEy (V/m) @ t=0.7
0
% es.tEz (V/m) @ t=0.7
1.182270972380688
% V (V) @ t=0.7
0.015785605973841148
% es.normE (V/m) @ t=0.72
3.192798502259719
% es.EX (V/m) @ t=0.72
2.950564403912008
% es.EY (V/m) @ t=0.72
0.18578563490361222
% es.EZ (V/m) @ t=0.72
1.1928010618223253
% es.tEX (V/m) @ t=0.72
2.9505644039120114
% es.tEY (V/m) @ t=0.72
0
% es.tEZ (V/m) @ t=0.72
1.192801061822327
% es.Ex (V/m) @ t=0.72
2.950564403912008
% es.Ey (V/m) @ t=0.72
0.18578563490361222
% es.Ez (V/m) @ t=0.72
1.1928010618223253
% es.tEx (V/m) @ t=0.72
2.9505644039120114
% es.tEy (V/m) @ t=0.72
0
% es.tEz (V/m) @ t=0.72
1.192801061822327
% V (V) @ t=0.72
0.01592620304625287
% es.normE (V/m) @ t=0.74
3.220984638887032
% es.EX (V/m) @ t=0.74
2.9766120894524644
% es.EY (V/m) @ t=0.74
0.18742575715148113
% es.EZ (V/m) @ t=0.74
1.2033311512639848
% es.tEX (V/m) @ t=0.74
2.9766120894524644
% es.tEY (V/m) @ t=0.74
0
% es.tEZ (V/m) @ t=0.74
1.2033311512639866
% es.Ex (V/m) @ t=0.74
2.9766120894524644
% es.Ey (V/m) @ t=0.74
0.18742575715148113
% es.Ez (V/m) @ t=0.74
1.2033311512639848
% es.tEx (V/m) @ t=0.74
2.9766120894524644
% es.tEy (V/m) @ t=0.74
0
% es.tEz (V/m) @ t=0.74
1.2033311512639866
% V (V) @ t=0.74
0.016066800118664598
% es.normE (V/m) @ t=0.76
3.2491707755143193
% es.EX (V/m) @ t=0.76
3.002659774992905
% es.EY (V/m) @ t=0.76
0.18906587939932318
% es.EZ (V/m) @ t=0.76
1.2138612407056169
% es.tEX (V/m) @ t=0.76
3.002659774992912
% es.tEY (V/m) @ t=0.76
0
% es.tEZ (V/m) @ t=0.76
1.2138612407056186
% es.Ex (V/m) @ t=0.76
3.002659774992905
% es.Ey (V/m) @ t=0.76
0.18906587939932318
% es.Ez (V/m) @ t=0.76
1.2138612407056169
% es.tEx (V/m) @ t=0.76
3.002659774992912
% es.tEy (V/m) @ t=0.76
0
% es.tEz (V/m) @ t=0.76
1.2138612407056186
% V (V) @ t=0.76
0.016207397191076313
% es.normE (V/m) @ t=0.78
3.2794447503696817
% es.EX (V/m) @ t=0.78
3.030636897007126
% es.EY (V/m) @ t=0.78
0.1908274947068529
% es.EZ (V/m) @ t=0.78
1.2251713273055271
% es.tEX (V/m) @ t=0.78
3.0306368970071187
% es.tEY (V/m) @ t=0.78
0
% es.tEZ (V/m) @ t=0.78
1.2251713273055307
% es.Ex (V/m) @ t=0.78
3.030636897007126
% es.Ey (V/m) @ t=0.78
0.1908274947068529
% es.Ez (V/m) @ t=0.78
1.2251713273055271
% es.tEx (V/m) @ t=0.78
3.0306368970071187
% es.tEy (V/m) @ t=0.78
0
% es.tEz (V/m) @ t=0.78
1.2251713273055307
% V (V) @ t=0.78
0.016358408581830946
% es.normE (V/m) @ t=0.8
3.3107198199911467
% es.EX (V/m) @ t=0.8
3.0595391619416468
% es.EY (V/m) @ t=0.8
0.19264736455947262
% es.EZ (V/m) @ t=0.8
1.2368554137020737
% es.tEX (V/m) @ t=0.8
3.059539161941643
% es.tEY (V/m) @ t=0.8
0
% es.tEZ (V/m) @ t=0.8
1.2368554137020755
% es.Ex (V/m) @ t=0.8
3.0595391619416468
% es.Ey (V/m) @ t=0.8
0.19264736455947262
% es.Ez (V/m) @ t=0.8
1.2368554137020737
% es.tEx (V/m) @ t=0.8
3.059539161941643
% es.tEy (V/m) @ t=0.8
0
% es.tEz (V/m) @ t=0.8
1.2368554137020755
% V (V) @ t=0.8
0.016514413520191683
% es.normE (V/m) @ t=0.82
3.3419948896126073
% es.EX (V/m) @ t=0.82
3.088441426876158
% es.EY (V/m) @ t=0.82
0.1944672344120677
% es.EZ (V/m) @ t=0.82
1.2485395000986346
% es.tEX (V/m) @ t=0.82
3.0884414268761606
% es.tEY (V/m) @ t=0.82
0
% es.tEZ (V/m) @ t=0.82
1.2485395000986417
% es.Ex (V/m) @ t=0.82
3.088441426876158
% es.Ey (V/m) @ t=0.82
0.1944672344120677
% es.Ez (V/m) @ t=0.82
1.2485395000986346
% es.tEx (V/m) @ t=0.82
3.0884414268761606
% es.tEy (V/m) @ t=0.82
0
% es.tEz (V/m) @ t=0.82
1.2485395000986417
% V (V) @ t=0.82
0.016670418458552425
% es.normE (V/m) @ t=0.84
3.373269959234045
% es.EX (V/m) @ t=0.84
3.1173436918106407
% es.EY (V/m) @ t=0.84
0.196287104264675
% es.EZ (V/m) @ t=0.84
1.2602235864952012
% es.tEX (V/m) @ t=0.84
3.117343691810655
% es.tEY (V/m) @ t=0.84
0
% es.tEZ (V/m) @ t=0.84
1.260223586495191
% es.Ex (V/m) @ t=0.84
3.1173436918106407
% es.Ey (V/m) @ t=0.84
0.196287104264675
% es.Ez (V/m) @ t=0.84
1.2602235864952012
% es.tEx (V/m) @ t=0.84
3.117343691810655
% es.tEy (V/m) @ t=0.84
0
% es.tEz (V/m) @ t=0.84
1.260223586495191
% V (V) @ t=0.84
0.016826423396913166
% es.normE (V/m) @ t=0.86
3.4045450288555257
% es.EX (V/m) @ t=0.86
3.1462459567451724
% es.EY (V/m) @ t=0.86
0.1981069741172703
% es.EZ (V/m) @ t=0.86
1.2719076728917678
% es.tEX (V/m) @ t=0.86
3.1462459567451795
% es.tEY (V/m) @ t=0.86
0
% es.tEZ (V/m) @ t=0.86
1.2719076728917749
% es.Ex (V/m) @ t=0.86
3.1462459567451724
% es.Ey (V/m) @ t=0.86
0.1981069741172703
% es.Ez (V/m) @ t=0.86
1.2719076728917678
% es.tEx (V/m) @ t=0.86
3.1462459567451795
% es.tEy (V/m) @ t=0.86
0
% es.tEz (V/m) @ t=0.86
1.2719076728917749
% V (V) @ t=0.86
0.01698242833527391
% es.normE (V/m) @ t=0.88
3.435820098476972
% es.EX (V/m) @ t=0.88
3.175148221679679
% es.EY (V/m) @ t=0.88
0.19992684396987248
% es.EZ (V/m) @ t=0.88
1.2835917592882984
% es.tEX (V/m) @ t=0.88
3.1751482216796756
% es.tEY (V/m) @ t=0.88
0
% es.tEZ (V/m) @ t=0.88
1.283591759288302
% es.Ex (V/m) @ t=0.88
3.175148221679679
% es.Ey (V/m) @ t=0.88
0.19992684396987248
% es.Ez (V/m) @ t=0.88
1.2835917592882984
% es.tEx (V/m) @ t=0.88
3.1751482216796756
% es.tEy (V/m) @ t=0.88
0
% es.tEz (V/m) @ t=0.88
1.283591759288302
% V (V) @ t=0.88
0.01713843327363465
% es.normE (V/m) @ t=0.9
3.467095168098462
% es.EX (V/m) @ t=0.9
3.204050486614208
% es.EY (V/m) @ t=0.9
0.2017467138224942
% es.EZ (V/m) @ t=0.9
1.2952758456848916
% es.tEX (V/m) @ t=0.9
3.204050486614209
% es.tEY (V/m) @ t=0.9
0
% es.tEZ (V/m) @ t=0.9
1.2952758456848894
% es.Ex (V/m) @ t=0.9
3.204050486614208
% es.Ey (V/m) @ t=0.9
0.2017467138224942
% es.Ez (V/m) @ t=0.9
1.2952758456848916
% es.tEx (V/m) @ t=0.9
3.204050486614209
% es.tEy (V/m) @ t=0.9
0
% es.tEz (V/m) @ t=0.9
1.2952758456848894
% V (V) @ t=0.9
0.017294438211995396
% es.normE (V/m) @ t=0.92
3.4983702377199153
% es.EX (V/m) @ t=0.92
3.2329527515487193
% es.EY (V/m) @ t=0.92
0.2035665836750875
% es.EZ (V/m) @ t=0.92
1.3069599320814334
% es.tEX (V/m) @ t=0.92
3.232952751548712
% es.tEY (V/m) @ t=0.92
0
% es.tEZ (V/m) @ t=0.92
1.3069599320814316
% es.Ex (V/m) @ t=0.92
3.2329527515487193
% es.Ey (V/m) @ t=0.92
0.2035665836750875
% es.Ez (V/m) @ t=0.92
1.3069599320814334
% es.tEx (V/m) @ t=0.92
3.232952751548712
% es.tEy (V/m) @ t=0.92
0
% es.tEz (V/m) @ t=0.92
1.3069599320814316
% V (V) @ t=0.92
0.017450443150356137
% es.normE (V/m) @ t=0.94
3.529645307341368
% es.EX (V/m) @ t=0.94
3.26185501648322
% es.EY (V/m) @ t=0.94
0.20538645352768947
% es.EZ (V/m) @ t=0.94
1.318644018477999
% es.tEX (V/m) @ t=0.94
3.261855016483233
% es.tEY (V/m) @ t=0.94
0
% es.tEZ (V/m) @ t=0.94
1.3186440184779986
% es.Ex (V/m) @ t=0.94
3.26185501648322
% es.Ey (V/m) @ t=0.94
0.20538645352768947
% es.Ez (V/m) @ t=0.94
1.318644018477999
% es.tEx (V/m) @ t=0.94
3.261855016483233
% es.tEy (V/m) @ t=0.94
0
% es.tEz (V/m) @ t=0.94
1.3186440184779986
% V (V) @ t=0.94
0.01760644808871688
% es.normE (V/m) @ t=0.96
3.5609203769628452
% es.EX (V/m) @ t=0.96
3.2907572814177337
% es.EY (V/m) @ t=0.96
0.20720632338029676
% es.EZ (V/m) @ t=0.96
1.3303281048745963
% es.tEX (V/m) @ t=0.96
3.290757281417733
% es.tEY (V/m) @ t=0.96
0
% es.tEZ (V/m) @ t=0.96
1.3303281048745959
% es.Ex (V/m) @ t=0.96
3.2907572814177337
% es.Ey (V/m) @ t=0.96
0.20720632338029676
% es.Ez (V/m) @ t=0.96
1.3303281048745963
% es.tEx (V/m) @ t=0.96
3.290757281417733
% es.tEy (V/m) @ t=0.96
0
% es.tEz (V/m) @ t=0.96
1.3303281048745959
% V (V) @ t=0.96
0.017762453027077622
% es.normE (V/m) @ t=0.98
3.592195446584304
% es.EX (V/m) @ t=0.98
3.3196595463522476
% es.EY (V/m) @ t=0.98
0.20902619323292204
% es.EZ (V/m) @ t=0.98
1.3420121912711451
% es.tEX (V/m) @ t=0.98
3.3196595463522236
% es.tEY (V/m) @ t=0.98
0
% es.tEZ (V/m) @ t=0.98
1.3420121912711451
% es.Ex (V/m) @ t=0.98
3.3196595463522476
% es.Ey (V/m) @ t=0.98
0.20902619323292204
% es.Ez (V/m) @ t=0.98
1.3420121912711451
% es.tEx (V/m) @ t=0.98
3.3196595463522236
% es.tEy (V/m) @ t=0.98
0
% es.tEz (V/m) @ t=0.98
1.3420121912711451
% V (V) @ t=0.98
0.017918457965438367
% es.normE (V/m) @ t=1
3.623470516205776
% es.EX (V/m) @ t=1
3.348561811286773
% es.EY (V/m) @ t=1
0.21084606308552112
% es.EZ (V/m) @ t=1
1.3536962776676962
% es.tEX (V/m) @ t=1
3.348561811286773
% es.tEY (V/m) @ t=1
0
% es.tEZ (V/m) @ t=1
1.353696277667705
% es.Ex (V/m) @ t=1
3.348561811286773
% es.Ey (V/m) @ t=1
0.21084606308552112
% es.Ez (V/m) @ t=1
1.3536962776676962
% es.tEx (V/m) @ t=1
3.348561811286773
% es.tEy (V/m) @ t=1
0
% es.tEz (V/m) @ t=1
1.353696277667705
% V (V) @ t=1
0.018074462903799104
% es.normE (V/m) @ t=1.02
3.6547455858272313
% es.EX (V/m) @ t=1.02
3.377464076221284
% es.EY (V/m) @ t=1.02
0.21266593293811442
% es.EZ (V/m) @ t=1.02
1.3653803640642468
% es.tEX (V/m) @ t=1.02
3.377464076221278
% es.tEY (V/m) @ t=1.02
0
% es.tEZ (V/m) @ t=1.02
1.3653803640642437
% es.Ex (V/m) @ t=1.02
3.377464076221284
% es.Ey (V/m) @ t=1.02
0.21266593293811442
% es.Ez (V/m) @ t=1.02
1.3653803640642468
% es.tEx (V/m) @ t=1.02
3.377464076221278
% es.tEy (V/m) @ t=1.02
0
% es.tEz (V/m) @ t=1.02
1.3653803640642437
% V (V) @ t=1.02
0.018230467842159852
% es.normE (V/m) @ t=1.04
3.6873964826725962
% es.EX (V/m) @ t=1.04
3.4076377857851714
% es.EY (V/m) @ t=1.04
0.21456585892141633
% es.EZ (V/m) @ t=1.04
1.3775784475115485
% es.tEX (V/m) @ t=1.04
3.407637785785159
% es.tEY (V/m) @ t=1.04
0
% es.tEZ (V/m) @ t=1.04
1.3775784475115485
% es.Ex (V/m) @ t=1.04
3.4076377857851714
% es.Ey (V/m) @ t=1.04
0.21456585892141633
% es.Ez (V/m) @ t=1.04
1.3775784475115485
% es.tEx (V/m) @ t=1.04
3.407637785785159
% es.tEy (V/m) @ t=1.04
0
% es.tEz (V/m) @ t=1.04