% Model:              1 neuron.mph
% Version:            COMSOL 6.1.0.252
% Date:               Mar 22 2023, 18:53
% Dimension:          0
% Nodes:              14017
% Expressions:        14017
% Description:        Electric field norm, Electric field, X component, Electric field, Y component, Electric field, Z component, Tangential electric field, X component, Tangential electric field, Y component, Tangential electric field, Z component, Electric field, x component, Electric field, y component, Electric field, z component, Tangential electric field, x component, Tangential electric field, y component, Tangential electric field, z component, Electric potential
% Length unit:        mm
% x
1.33
% y
12.2
% z
1
% es.normE (V/m) @ t=0
2.8494592138629145
% es.EX (V/m) @ t=0
0.8795229929952673
% es.EY (V/m) @ t=0
0.2130765535395378
% es.EZ (V/m) @ t=0
2.7019159873269407
% es.tEX (V/m) @ t=0
0.8795229929952697
% es.tEY (V/m) @ t=0
0
% es.tEZ (V/m) @ t=0
2.7019159873269523
% es.Ex (V/m) @ t=0
0.8795229929952673
% es.Ey (V/m) @ t=0
0.2130765535395378
% es.Ez (V/m) @ t=0
2.7019159873269407
% es.tEx (V/m) @ t=0
0.8795229929952697
% es.tEy (V/m) @ t=0
0
% es.tEz (V/m) @ t=0
2.7019159873269523
% V (V) @ t=0
0.013326996156757625
% es.normE (V/m) @ t=0.02
2.461112915362797
% es.EX (V/m) @ t=0.02
0.7596548098915941
% es.EY (V/m) @ t=0.02
0.18403683599421283
% es.EZ (V/m) @ t=0.02
2.333678018719999
% es.tEX (V/m) @ t=0.02
0.7596548098915932
% es.tEY (V/m) @ t=0.02
0
% es.tEZ (V/m) @ t=0.02
2.3336780187199935
% es.Ex (V/m) @ t=0.02
0.7596548098915941
% es.Ey (V/m) @ t=0.02
0.18403683599421283
% es.Ez (V/m) @ t=0.02
2.333678018719999
% es.tEx (V/m) @ t=0.02
0.7596548098915932
% es.tEy (V/m) @ t=0.02
0
% es.tEz (V/m) @ t=0.02
2.3336780187199935
% V (V) @ t=0.02
0.011510690238337073
% es.normE (V/m) @ t=0.04
2.483759436367662
% es.EX (V/m) @ t=0.04
0.7666449558865962
% es.EY (V/m) @ t=0.04
0.18573029518051143
% es.EZ (V/m) @ t=0.04
2.355151916943289
% es.tEX (V/m) @ t=0.04
0.7666449558866049
% es.tEY (V/m) @ t=0.04
0
% es.tEZ (V/m) @ t=0.04
2.355151916943278
% es.Ex (V/m) @ t=0.04
0.7666449558865962
% es.Ey (V/m) @ t=0.04
0.18573029518051143
% es.Ez (V/m) @ t=0.04
2.355151916943289
% es.tEx (V/m) @ t=0.04
0.7666449558866049
% es.tEy (V/m) @ t=0.04
0
% es.tEz (V/m) @ t=0.04
2.355151916943278
% V (V) @ t=0.04
0.011616608612012524
% es.normE (V/m) @ t=0.06
2.5065695338754965
% es.EX (V/m) @ t=0.06
0.7736855919590624
% es.EY (V/m) @ t=0.06
0.1874359860608975
% es.EZ (V/m) @ t=0.06
2.3767809217823226
% es.tEX (V/m) @ t=0.06
0.7736855919590653
% es.tEY (V/m) @ t=0.06
0
% es.tEZ (V/m) @ t=0.06
2.376780921782334
% es.Ex (V/m) @ t=0.06
0.7736855919590624
% es.Ey (V/m) @ t=0.06
0.1874359860608975
% es.Ez (V/m) @ t=0.06
2.3767809217823226
% es.tEx (V/m) @ t=0.06
0.7736855919590653
% es.tEy (V/m) @ t=0.06
0
% es.tEz (V/m) @ t=0.06
2.376780921782334
% V (V) @ t=0.06
0.01172329204538931
% es.normE (V/m) @ t=0.08
2.5298201683691435
% es.EX (V/m) @ t=0.08
0.7808622055190658
% es.EY (V/m) @ t=0.08
0.18917461947927827
% es.EZ (V/m) @ t=0.08
2.398827652879294
% es.tEX (V/m) @ t=0.08
0.780862205519071
% es.tEY (V/m) @ t=0.08
0
% es.tEZ (V/m) @ t=0.08
2.3988276528792962
% es.Ex (V/m) @ t=0.08
0.7808622055190658
% es.Ey (V/m) @ t=0.08
0.18917461947927827
% es.Ez (V/m) @ t=0.08
2.398827652879294
% es.tEx (V/m) @ t=0.08
0.780862205519071
% es.tEy (V/m) @ t=0.08
0
% es.tEz (V/m) @ t=0.08
2.3988276528792962
% V (V) @ t=0.08
0.011832035879840408
% es.normE (V/m) @ t=0.1
2.5531845363439203
% es.EX (V/m) @ t=0.1
0.7880739244016746
% es.EY (V/m) @ t=0.1
0.19092175767624076
% es.EZ (V/m) @ t=0.1
2.4209822284093256
% es.tEX (V/m) @ t=0.1
0.7880739244016723
% es.tEY (V/m) @ t=0.1
0
% es.tEZ (V/m) @ t=0.1
2.42098222840934
% es.Ex (V/m) @ t=0.1
0.7880739244016746
% es.Ey (V/m) @ t=0.1
0.19092175767624076
% es.Ez (V/m) @ t=0.1
2.4209822284093256
% es.tEx (V/m) @ t=0.1
0.7880739244016723
% es.tEy (V/m) @ t=0.1
0
% es.tEz (V/m) @ t=0.1
2.42098222840934
% V (V) @ t=0.1
0.01194131164825924
% es.normE (V/m) @ t=0.12
2.5765489043187184
% es.EX (V/m) @ t=0.12
0.7952856432842893
% es.EY (V/m) @ t=0.12
0.19266889587319236
% es.EZ (V/m) @ t=0.12
2.4431368039393786
% es.tEX (V/m) @ t=0.12
0.7952856432842879
% es.tEY (V/m) @ t=0.12
0
% es.tEZ (V/m) @ t=0.12
2.4431368039393693
% es.Ex (V/m) @ t=0.12
0.7952856432842893
% es.Ey (V/m) @ t=0.12
0.19266889587319236
% es.Ez (V/m) @ t=0.12
2.4431368039393786
% es.tEx (V/m) @ t=0.12
0.7952856432842879
% es.tEy (V/m) @ t=0.12
0
% es.tEz (V/m) @ t=0.12
2.4431368039393693
% V (V) @ t=0.12
0.01205058741667807
% es.normE (V/m) @ t=0.14
2.6006096220872137
% es.EX (V/m) @ t=0.14
0.8027122998247552
% es.EY (V/m) @ t=0.14
0.19446810567350858
% es.EZ (V/m) @ t=0.14
2.4659516726513324
% es.tEX (V/m) @ t=0.14
0.8027122998247549
% es.tEY (V/m) @ t=0.14
0
% es.tEZ (V/m) @ t=0.14
2.46595167265135
% es.Ex (V/m) @ t=0.14
0.8027122998247552
% es.Ey (V/m) @ t=0.14
0.19446810567350858
% es.Ez (V/m) @ t=0.14
2.4659516726513324
% es.tEx (V/m) @ t=0.14
0.8027122998247549
% es.tEy (V/m) @ t=0.14
0
% es.tEz (V/m) @ t=0.14
2.46595167265135
% V (V) @ t=0.14
0.012163120003717314
% es.normE (V/m) @ t=0.16
2.6251426404124816
% es.EX (V/m) @ t=0.16
0.8102847382357439
% es.EY (V/m) @ t=0.16
0.1963026331366845
% es.EZ (V/m) @ t=0.16
2.4892143864553256
% es.tEX (V/m) @ t=0.16
0.8102847382357368
% es.tEY (V/m) @ t=0.16
0
% es.tEZ (V/m) @ t=0.16
2.4892143864553145
% es.Ex (V/m) @ t=0.16
0.8102847382357439
% es.Ey (V/m) @ t=0.16
0.1963026331366845
% es.Ez (V/m) @ t=0.16
2.4892143864553256
% es.tEx (V/m) @ t=0.16
0.8102847382357368
% es.tEy (V/m) @ t=0.16
0
% es.tEz (V/m) @ t=0.16
2.4892143864553145
% V (V) @ t=0.16
0.01227786153410871
% es.normE (V/m) @ t=0.18
2.6496756587377233
% es.EX (V/m) @ t=0.18
0.81785717664673
% es.EY (V/m) @ t=0.18
0.19813716059988173
% es.EZ (V/m) @ t=0.18
2.5124771002592903
% es.tEX (V/m) @ t=0.18
0.81785717664674
% es.tEY (V/m) @ t=0.18
0
% es.tEZ (V/m) @ t=0.18
2.512477100259293
% es.Ex (V/m) @ t=0.18
0.81785717664673
% es.Ey (V/m) @ t=0.18
0.19813716059988173
% es.Ez (V/m) @ t=0.18
2.5124771002592903
% es.tEx (V/m) @ t=0.18
0.81785717664674
% es.tEy (V/m) @ t=0.18
0
% es.tEz (V/m) @ t=0.18
2.512477100259293
% V (V) @ t=0.18
0.012392603064500102
% es.normE (V/m) @ t=0.2
2.674208677062959
% es.EX (V/m) @ t=0.2
0.8254296150577203
% es.EY (V/m) @ t=0.2
0.1999716880630713
% es.EZ (V/m) @ t=0.2
2.5357398140632483
% es.tEX (V/m) @ t=0.2
0.8254296150577218
% es.tEY (V/m) @ t=0.2
0
% es.tEZ (V/m) @ t=0.2
2.535739814063243
% es.Ex (V/m) @ t=0.2
0.8254296150577203
% es.Ey (V/m) @ t=0.2
0.1999716880630713
% es.Ez (V/m) @ t=0.2
2.5357398140632483
% es.tEx (V/m) @ t=0.2
0.8254296150577218
% es.tEy (V/m) @ t=0.2
0
% es.tEz (V/m) @ t=0.2
2.535739814063243
% V (V) @ t=0.2
0.012507344594891496
% es.normE (V/m) @ t=0.22
2.698741695388189
% es.EX (V/m) @ t=0.22
0.8330020534686959
% es.EY (V/m) @ t=0.22
0.20180621552625078
% es.EZ (V/m) @ t=0.22
2.559002527867205
% es.tEX (V/m) @ t=0.22
0.8330020534686966
% es.tEY (V/m) @ t=0.22
0
% es.tEZ (V/m) @ t=0.22
2.559002527867193
% es.Ex (V/m) @ t=0.22
0.8330020534686959
% es.Ey (V/m) @ t=0.22
0.20180621552625078
% es.Ez (V/m) @ t=0.22
2.559002527867205
% es.tEx (V/m) @ t=0.22
0.8330020534686966
% es.tEy (V/m) @ t=0.22
0
% es.tEz (V/m) @ t=0.22
2.559002527867193
% V (V) @ t=0.22
0.012622086125282893
% es.normE (V/m) @ t=0.24
2.7232747137134217
% es.EX (V/m) @ t=0.24
0.8405744918796987
% es.EY (V/m) @ t=0.24
0.2036407429894257
% es.EZ (V/m) @ t=0.24
2.582265241671157
% es.tEX (V/m) @ t=0.24
0.8405744918796998
% es.tEY (V/m) @ t=0.24
0
% es.tEZ (V/m) @ t=0.24
2.582265241671184
% es.Ex (V/m) @ t=0.24
0.8405744918796987
% es.Ey (V/m) @ t=0.24
0.2036407429894257
% es.Ez (V/m) @ t=0.24
2.582265241671157
% es.tEx (V/m) @ t=0.24
0.8405744918796998
% es.tEy (V/m) @ t=0.24
0
% es.tEz (V/m) @ t=0.24
2.582265241671184
% V (V) @ t=0.24
0.012736827655674285
% es.normE (V/m) @ t=0.26
2.7483243433083606
% es.EX (V/m) @ t=0.26
0.8483063892862082
% es.EY (V/m) @ t=0.26
0.20551390154606475
% es.EZ (V/m) @ t=0.26
2.6060178168878014
% es.tEX (V/m) @ t=0.26
0.8483063892862148
% es.tEY (V/m) @ t=0.26
0
% es.tEZ (V/m) @ t=0.26
2.6060178168878085
% es.Ex (V/m) @ t=0.26
0.8483063892862082
% es.Ey (V/m) @ t=0.26
0.20551390154606475
% es.Ez (V/m) @ t=0.26
2.6060178168878014
% es.tEx (V/m) @ t=0.26
0.8483063892862148
% es.tEy (V/m) @ t=0.26
0
% es.tEz (V/m) @ t=0.26
2.6060178168878085
% V (V) @ t=0.26
0.012853985374409956
% es.normE (V/m) @ t=0.28
2.7754669816795543
% es.EX (V/m) @ t=0.28
0.8566843219162315
% es.EY (V/m) @ t=0.28
0.20754357085322162
% es.EZ (V/m) @ t=0.28
2.6317550259984968
% es.tEX (V/m) @ t=0.28
0.8566843219162337
% es.tEY (V/m) @ t=0.28
0
% es.tEZ (V/m) @ t=0.28
2.6317550259984923
% es.Ex (V/m) @ t=0.28
0.8566843219162315
% es.Ey (V/m) @ t=0.28
0.20754357085322162
% es.Ez (V/m) @ t=0.28
2.6317550259984968
% es.tEx (V/m) @ t=0.28
0.8566843219162337
% es.tEy (V/m) @ t=0.28
0
% es.tEz (V/m) @ t=0.28
2.6317550259984923
% V (V) @ t=0.28
0.012980932084804194
% es.normE (V/m) @ t=0.3
2.8026096200507413
% es.EX (V/m) @ t=0.3
0.8650622545462678
% es.EY (V/m) @ t=0.3
0.2095732401604362
% es.EZ (V/m) @ t=0.3
2.657492235109176
% es.tEX (V/m) @ t=0.3
0.8650622545462667
% es.tEY (V/m) @ t=0.3
0
% es.tEZ (V/m) @ t=0.3
2.657492235109167
% es.Ex (V/m) @ t=0.3
0.8650622545462678
% es.Ey (V/m) @ t=0.3
0.2095732401604362
% es.Ez (V/m) @ t=0.3
2.657492235109176
% es.tEx (V/m) @ t=0.3
0.8650622545462667
% es.tEy (V/m) @ t=0.3
0
% es.tEz (V/m) @ t=0.3
2.657492235109167
% V (V) @ t=0.3
0.013107878795198435
% es.normE (V/m) @ t=0.32
2.8297522584219394
% es.EX (V/m) @ t=0.32
0.8734401871763144
% es.EY (V/m) @ t=0.32
0.21160290946764992
% es.EZ (V/m) @ t=0.32
2.6832294442198643
% es.tEX (V/m) @ t=0.32
0.8734401871763211
% es.tEY (V/m) @ t=0.32
0
% es.tEZ (V/m) @ t=0.32
2.6832294442198545
% es.Ex (V/m) @ t=0.32
0.8734401871763144
% es.Ey (V/m) @ t=0.32
0.21160290946764992
% es.Ez (V/m) @ t=0.32
2.6832294442198643
% es.tEx (V/m) @ t=0.32
0.8734401871763211
% es.tEy (V/m) @ t=0.32
0
% es.tEz (V/m) @ t=0.32
2.6832294442198545
% V (V) @ t=0.32
0.013234825505592676
% es.normE (V/m) @ t=0.34
2.8568948967931136
% es.EX (V/m) @ t=0.34
0.881818119806336
% es.EY (V/m) @ t=0.34
0.21363257877482544
% es.EZ (V/m) @ t=0.34
2.7089666533305383
% es.tEX (V/m) @ t=0.34
0.88181811980634
% es.tEY (V/m) @ t=0.34
0
% es.tEZ (V/m) @ t=0.34
2.708966653330556
% es.Ex (V/m) @ t=0.34
0.881818119806336
% es.Ey (V/m) @ t=0.34
0.21363257877482544
% es.Ez (V/m) @ t=0.34
2.7089666533305383
% es.tEx (V/m) @ t=0.34
0.88181811980634
% es.tEy (V/m) @ t=0.34
0
% es.tEz (V/m) @ t=0.34
2.708966653330556
% V (V) @ t=0.34
0.013361772215986913
% es.normE (V/m) @ t=0.36
2.8840375351643215
% es.EX (V/m) @ t=0.36
0.8901960524363768
% es.EY (V/m) @ t=0.36
0.21566224808203693
% es.EZ (V/m) @ t=0.36
2.734703862441239
% es.tEX (V/m) @ t=0.36
0.8901960524363801
% es.tEY (V/m) @ t=0.36
0
% es.tEZ (V/m) @ t=0.36
2.734703862441229
% es.Ex (V/m) @ t=0.36
0.8901960524363768
% es.Ey (V/m) @ t=0.36
0.21566224808203693
% es.Ez (V/m) @ t=0.36
2.734703862441239
% es.tEx (V/m) @ t=0.36
0.8901960524363801
% es.tEy (V/m) @ t=0.36
0
% es.tEz (V/m) @ t=0.36
2.734703862441229
% V (V) @ t=0.36
0.013488718926381153
% es.normE (V/m) @ t=0.38
2.9111801735355254
% es.EX (V/m) @ t=0.38
0.8985739850664234
% es.EY (V/m) @ t=0.38
0.2176919173892251
% es.EZ (V/m) @ t=0.38
2.760441071551935
% es.tEX (V/m) @ t=0.38
0.8985739850664345
% es.tEY (V/m) @ t=0.38
0
% es.tEZ (V/m) @ t=0.38
2.760441071551945
% es.Ex (V/m) @ t=0.38
0.8985739850664234
% es.Ey (V/m) @ t=0.38
0.2176919173892251
% es.Ez (V/m) @ t=0.38
2.760441071551935
% es.tEx (V/m) @ t=0.38
0.8985739850664345
% es.tEy (V/m) @ t=0.38
0
% es.tEz (V/m) @ t=0.38
2.760441071551945
% V (V) @ t=0.38
0.013615665636775392
% es.normE (V/m) @ t=0.4
2.9383228119066915
% es.EX (V/m) @ t=0.4
0.9069519176964558
% es.EY (V/m) @ t=0.4
0.2197215866964397
% es.EZ (V/m) @ t=0.4
2.786178280662594
% es.tEX (V/m) @ t=0.4
0.9069519176964462
% es.tEY (V/m) @ t=0.4
0
% es.tEZ (V/m) @ t=0.4
2.786178280662618
% es.Ex (V/m) @ t=0.4
0.9069519176964558
% es.Ey (V/m) @ t=0.4
0.2197215866964397
% es.Ez (V/m) @ t=0.4
2.786178280662594
% es.tEx (V/m) @ t=0.4
0.9069519176964462
% es.tEy (V/m) @ t=0.4
0
% es.tEz (V/m) @ t=0.4
2.786178280662618
% V (V) @ t=0.4
0.013742612347169635
% es.normE (V/m) @ t=0.42
2.9654654502779003
% es.EX (V/m) @ t=0.42
0.9153298503264766
% es.EY (V/m) @ t=0.42
0.22175125600363277
% es.EZ (V/m) @ t=0.42
2.8119154897733036
% es.tEX (V/m) @ t=0.42
0.9153298503264864
% es.tEY (V/m) @ t=0.42
0
% es.tEZ (V/m) @ t=0.42
2.8119154897733054
% es.Ex (V/m) @ t=0.42
0.9153298503264766
% es.Ey (V/m) @ t=0.42
0.22175125600363277
% es.Ez (V/m) @ t=0.42
2.8119154897733036
% es.tEx (V/m) @ t=0.42
0.9153298503264864
% es.tEy (V/m) @ t=0.42
0
% es.tEz (V/m) @ t=0.42
2.8119154897733054
% V (V) @ t=0.42
0.013869559057563874
% es.normE (V/m) @ t=0.44
2.992608088649078
% es.EX (V/m) @ t=0.44
0.9237077829565243
% es.EY (V/m) @ t=0.44
0.22378092531084692
% es.EZ (V/m) @ t=0.44
2.8376526988839696
% es.tEX (V/m) @ t=0.44
0.9237077829565123
% es.tEY (V/m) @ t=0.44
0
% es.tEZ (V/m) @ t=0.44
2.8376526988839785
% es.Ex (V/m) @ t=0.44
0.9237077829565243
% es.Ey (V/m) @ t=0.44
0.22378092531084692
% es.Ez (V/m) @ t=0.44
2.8376526988839696
% es.tEx (V/m) @ t=0.44
0.9237077829565123
% es.tEy (V/m) @ t=0.44
0
% es.tEz (V/m) @ t=0.44
2.8376526988839785
% V (V) @ t=0.44
0.013996505767958111
% es.normE (V/m) @ t=0.46
3.019750727020257
% es.EX (V/m) @ t=0.46
0.9320857155865434
% es.EY (V/m) @ t=0.46
0.22581059461803266
% es.EZ (V/m) @ t=0.46
2.863389907994649
% es.tEX (V/m) @ t=0.46
0.9320857155865525
% es.tEY (V/m) @ t=0.46
0
% es.tEZ (V/m) @ t=0.46
2.8633899079946623
% es.Ex (V/m) @ t=0.46
0.9320857155865434
% es.Ey (V/m) @ t=0.46
0.22581059461803266
% es.Ez (V/m) @ t=0.46
2.863389907994649
% es.tEx (V/m) @ t=0.46
0.9320857155865525
% es.tEy (V/m) @ t=0.46
0
% es.tEz (V/m) @ t=0.46
2.8633899079946623
% V (V) @ t=0.46
0.014123452478352352
% es.normE (V/m) @ t=0.48
3.0468933653914716
% es.EX (V/m) @ t=0.48
0.9404636482165987
% es.EY (V/m) @ t=0.48
0.2278402639252366
% es.EZ (V/m) @ t=0.48
2.8891271171053523
% es.tEX (V/m) @ t=0.48
0.9404636482166069
% es.tEY (V/m) @ t=0.48
0
% es.tEZ (V/m) @ t=0.48
2.889127117105353
% es.Ex (V/m) @ t=0.48
0.9404636482165987
% es.Ey (V/m) @ t=0.48
0.2278402639252366
% es.Ez (V/m) @ t=0.48
2.8891271171053523
% es.tEx (V/m) @ t=0.48
0.9404636482166069
% es.tEy (V/m) @ t=0.48
0
% es.tEz (V/m) @ t=0.48
2.889127117105353
% V (V) @ t=0.48
0.014250399188746593
% es.normE (V/m) @ t=0.5
3.074036003762651
% es.EX (V/m) @ t=0.5
0.9488415808466115
% es.EY (V/m) @ t=0.5
0.22986993323241878
% es.EZ (V/m) @ t=0.5
2.9148643262160343
% es.tEX (V/m) @ t=0.5
0.9488415808466186
% es.tEY (V/m) @ t=0.5
0
% es.tEZ (V/m) @ t=0.5
2.914864326216037
% es.Ex (V/m) @ t=0.5
0.9488415808466115
% es.Ey (V/m) @ t=0.5
0.22986993323241878
% es.Ez (V/m) @ t=0.5
2.9148643262160343
% es.tEx (V/m) @ t=0.5
0.9488415808466186
% es.tEy (V/m) @ t=0.5
0
% es.tEz (V/m) @ t=0.5
2.914864326216037
% V (V) @ t=0.5
0.014377345899140833
% es.normE (V/m) @ t=0.52
3.1023585190217093
% es.EX (V/m) @ t=0.52
0.9575836977381924
% es.EY (V/m) @ t=0.52
0.2319878312404564
% es.EZ (V/m) @ t=0.52
2.9417203189978745
% es.tEX (V/m) @ t=0.52
0.9575836977382011
% es.tEY (V/m) @ t=0.52
0
% es.tEZ (V/m) @ t=0.52
2.9417203189978878
% es.Ex (V/m) @ t=0.52
0.9575836977381924
% es.Ey (V/m) @ t=0.52
0.2319878312404564
% es.Ez (V/m) @ t=0.52
2.9417203189978745
% es.tEx (V/m) @ t=0.52
0.9575836977382011
% es.tEy (V/m) @ t=0.52
0
% es.tEz (V/m) @ t=0.52
2.9417203189978878
% V (V) @ t=0.52
0.014509810953141918
% es.normE (V/m) @ t=0.54
3.132434888021784
% es.EX (V/m) @ t=0.54
0.9668671642705922
% es.EY (V/m) @ t=0.54
0.2342368787256579
% es.EZ (V/m) @ t=0.54
2.97023935217592
% es.tEX (V/m) @ t=0.54
0.9668671642705959
% es.tEY (V/m) @ t=0.54
0
% es.tEZ (V/m) @ t=0.54
2.9702393521759234
% es.Ex (V/m) @ t=0.54
0.9668671642705922
% es.Ey (V/m) @ t=0.54
0.2342368787256579
% es.Ez (V/m) @ t=0.54
2.97023935217592
% es.tEx (V/m) @ t=0.54
0.9668671642705959
% es.tEy (V/m) @ t=0.54
0
% es.tEz (V/m) @ t=0.54
2.9702393521759234
% V (V) @ t=0.54
0.014650478869389208
% es.normE (V/m) @ t=0.56
3.1625112570218175
% es.EX (V/m) @ t=0.56
0.9761506308029879
% es.EY (V/m) @ t=0.56
0.2364859262108603
% es.EZ (V/m) @ t=0.56
2.9987583853539217
% es.tEX (V/m) @ t=0.56
0.9761506308029908
% es.tEY (V/m) @ t=0.56
0
% es.tEZ (V/m) @ t=0.56
2.9987583853539306
% es.Ex (V/m) @ t=0.56
0.9761506308029879
% es.Ey (V/m) @ t=0.56
0.2364859262108603
% es.Ez (V/m) @ t=0.56
2.9987583853539217
% es.tEx (V/m) @ t=0.56
0.9761506308029908
% es.tEy (V/m) @ t=0.56
0
% es.tEz (V/m) @ t=0.56
2.9987583853539306
% V (V) @ t=0.56
0.014791146785636497
% es.normE (V/m) @ t=0.58
3.1925876260218775
% es.EX (V/m) @ t=0.58
0.9854340973353986
% es.EY (V/m) @ t=0.58
0.23873497369608598
% es.EZ (V/m) @ t=0.58
3.0272774185319467
% es.tEX (V/m) @ t=0.58
0.9854340973353857
% es.tEY (V/m) @ t=0.58
0
% es.tEZ (V/m) @ t=0.58
3.027277418531952
% es.Ex (V/m) @ t=0.58
0.9854340973353986
% es.Ey (V/m) @ t=0.58
0.23873497369608598
% es.Ez (V/m) @ t=0.58
3.0272774185319467
% es.tEx (V/m) @ t=0.58
0.9854340973353857
% es.tEy (V/m) @ t=0.58
0
% es.tEz (V/m) @ t=0.58
3.027277418531952
% V (V) @ t=0.58
0.014931814701883785
% es.normE (V/m) @ t=0.6
3.2226639950219367
% es.EX (V/m) @ t=0.6
0.9947175638677859
% es.EY (V/m) @ t=0.6
0.24098402118129836
% es.EZ (V/m) @ t=0.6
3.055796451709978
% es.tEX (V/m) @ t=0.6
0.9947175638677805
% es.tEY (V/m) @ t=0.6
0
% es.tEZ (V/m) @ t=0.6
3.0557964517099876
% es.Ex (V/m) @ t=0.6
0.9947175638677859
% es.Ey (V/m) @ t=0.6
0.24098402118129836
% es.Ez (V/m) @ t=0.6
3.055796451709978
% es.tEx (V/m) @ t=0.6
0.9947175638677805
% es.tEy (V/m) @ t=0.6
0
% es.tEz (V/m) @ t=0.6
3.0557964517099876
% V (V) @ t=0.6
0.015072482618131076
% es.normE (V/m) @ t=0.62
3.252740364021978
% es.EX (V/m) @ t=0.62
1.004001030400189
% es.EY (V/m) @ t=0.62
0.24323306866650785
% es.EZ (V/m) @ t=0.62
3.084315484887987
% es.tEX (V/m) @ t=0.62
1.0040010304001896
% es.tEY (V/m) @ t=0.62
0
% es.tEZ (V/m) @ t=0.62
3.084315484887995
% es.Ex (V/m) @ t=0.62
1.004001030400189
% es.Ey (V/m) @ t=0.62
0.24323306866650785
% es.Ez (V/m) @ t=0.62
3.084315484887987
% es.tEx (V/m) @ t=0.62
1.0040010304001896
% es.tEy (V/m) @ t=0.62
0
% es.tEz (V/m) @ t=0.62
3.084315484887995
% V (V) @ t=0.62
0.015213150534378366
% es.normE (V/m) @ t=0.64
3.2828167330220324
% es.EX (V/m) @ t=0.64
1.013284496932592
% es.EY (V/m) @ t=0.64
0.24548211615170956
% es.EZ (V/m) @ t=0.64
3.112834518066009
% es.tEX (V/m) @ t=0.64
1.0132844969325987
% es.tEY (V/m) @ t=0.64
0
% es.tEZ (V/m) @ t=0.64
3.112834518066016
% es.Ex (V/m) @ t=0.64
1.013284496932592
% es.Ey (V/m) @ t=0.64
0.24548211615170956
% es.Ez (V/m) @ t=0.64
3.112834518066009
% es.tEx (V/m) @ t=0.64
1.0132844969325987
% es.tEy (V/m) @ t=0.64
0
% es.tEz (V/m) @ t=0.64
3.112834518066016
% V (V) @ t=0.64
0.015353818450625657
% es.normE (V/m) @ t=0.66
3.312893102022077
% es.EX (V/m) @ t=0.66
1.022567963464999
% es.EY (V/m) @ t=0.66
0.2477311636369255
% es.EZ (V/m) @ t=0.66
3.141353551244018
% es.tEX (V/m) @ t=0.66
1.0225679634650078
% es.tEY (V/m) @ t=0.66
0
% es.tEZ (V/m) @ t=0.66
3.1413535512440234
% es.Ex (V/m) @ t=0.66
1.022567963464999
% es.Ey (V/m) @ t=0.66
0.2477311636369255
% es.Ez (V/m) @ t=0.66
3.141353551244018
% es.tEx (V/m) @ t=0.66
1.0225679634650078
% es.tEy (V/m) @ t=0.66
0
% es.tEz (V/m) @ t=0.66
3.1413535512440234
% V (V) @ t=0.66
0.015494486366872945
% es.normE (V/m) @ t=0.68
3.3429694710221627
% es.EX (V/m) @ t=0.68
1.0318514299974089
% es.EY (V/m) @ t=0.68
0.24998021112211988
% es.EZ (V/m) @ t=0.68
3.1698725844220723
% es.tEX (V/m) @ t=0.68
1.0318514299974169
% es.tEY (V/m) @ t=0.68
0
% es.tEZ (V/m) @ t=0.68
3.1698725844220768
% es.Ex (V/m) @ t=0.68
1.0318514299974089
% es.Ey (V/m) @ t=0.68
0.24998021112211988
% es.Ez (V/m) @ t=0.68
3.1698725844220723
% es.tEx (V/m) @ t=0.68
1.0318514299974169
% es.tEy (V/m) @ t=0.68
0
% es.tEz (V/m) @ t=0.68
3.1698725844220768
% V (V) @ t=0.68
0.015635154283120234
% es.normE (V/m) @ t=0.7
3.3730458400221828
% es.EX (V/m) @ t=0.7
1.0411348965298084
% es.EY (V/m) @ t=0.7
0.25222925860732603
% es.EZ (V/m) @ t=0.7
3.19839161760006
% es.tEX (V/m) @ t=0.7
1.041134896529826
% es.tEY (V/m) @ t=0.7
0
% es.tEZ (V/m) @ t=0.7
3.198391617600084
% es.Ex (V/m) @ t=0.7
1.0411348965298084
% es.Ey (V/m) @ t=0.7
0.25222925860732603
% es.Ez (V/m) @ t=0.7
3.19839161760006
% es.tEx (V/m) @ t=0.7
1.041134896529826
% es.tEy (V/m) @ t=0.7
0
% es.tEz (V/m) @ t=0.7
3.198391617600084
% V (V) @ t=0.7
0.015775822199367524
% es.normE (V/m) @ t=0.72
3.403122209022242
% es.EX (V/m) @ t=0.72
1.0504183630622022
% es.EY (V/m) @ t=0.72
0.2544783060925313
% es.EZ (V/m) @ t=0.72
3.2269106507780903
% es.tEX (V/m) @ t=0.72
1.0504183630621924
% es.tEY (V/m) @ t=0.72
0
% es.tEZ (V/m) @ t=0.72
3.2269106507780876
% es.Ex (V/m) @ t=0.72
1.0504183630622022
% es.Ey (V/m) @ t=0.72
0.2544783060925313
% es.Ez (V/m) @ t=0.72
3.2269106507780903
% es.tEx (V/m) @ t=0.72
1.0504183630621924
% es.tEy (V/m) @ t=0.72
0
% es.tEz (V/m) @ t=0.72
3.2269106507780876
% V (V) @ t=0.72
0.01591649011561481
% es.normE (V/m) @ t=0.74
3.433198578022254
% es.EX (V/m) @ t=0.74
1.0597018295945697
% es.EY (V/m) @ t=0.74
0.2567273535777579
% es.EZ (V/m) @ t=0.74
3.255429683956078
% es.tEX (V/m) @ t=0.74
1.059701829594573
% es.tEY (V/m) @ t=0.74
0
% es.tEZ (V/m) @ t=0.74
3.2554296839560948
% es.Ex (V/m) @ t=0.74
1.0597018295945697
% es.Ey (V/m) @ t=0.74
0.2567273535777579
% es.Ez (V/m) @ t=0.74
3.255429683956078
% es.tEx (V/m) @ t=0.74
1.059701829594573
% es.tEy (V/m) @ t=0.74
0
% es.tEz (V/m) @ t=0.74
3.2554296839560948
% V (V) @ t=0.74
0.0160571580318621
% es.normE (V/m) @ t=0.76
3.463274947022332
% es.EX (V/m) @ t=0.76
1.0689852961269801
% es.EY (V/m) @ t=0.76
0.2589764010629487
% es.EZ (V/m) @ t=0.76
3.2839487171341233
% es.tEX (V/m) @ t=0.76
1.0689852961269963
% es.tEY (V/m) @ t=0.76
0
% es.tEZ (V/m) @ t=0.76
3.2839487171341304
% es.Ex (V/m) @ t=0.76
1.0689852961269801
% es.Ey (V/m) @ t=0.76
0.2589764010629487
% es.Ez (V/m) @ t=0.76
3.2839487171341233
% es.tEx (V/m) @ t=0.76
1.0689852961269963
% es.tEy (V/m) @ t=0.76
0
% es.tEz (V/m) @ t=0.76
3.2839487171341304
% V (V) @ t=0.76
0.016197825948109392
% es.normE (V/m) @ t=0.78
3.4953548176589457
% es.EX (V/m) @ t=0.78
1.0788871788066459
% es.EY (V/m) @ t=0.78
0.2613752648971508
% es.EZ (V/m) @ t=0.78
3.314367509021233
% es.tEX (V/m) @ t=0.78
1.0788871788066388
% es.tEY (V/m) @ t=0.78
0
% es.tEZ (V/m) @ t=0.78
3.3143675090212383
% es.Ex (V/m) @ t=0.78
1.0788871788066459
% es.Ey (V/m) @ t=0.78
0.2613752648971508
% es.Ez (V/m) @ t=0.78
3.314367509021233
% es.tEx (V/m) @ t=0.78
1.0788871788066388
% es.tEy (V/m) @ t=0.78
0
% es.tEz (V/m) @ t=0.78
3.3143675090212383
% V (V) @ t=0.78
0.016347863101863057
% es.normE (V/m) @ t=0.8
3.528735177360922
% es.EX (V/m) @ t=0.8
1.0891904803933854
% es.EY (V/m) @ t=0.8
0.26387137573130115
% es.EZ (V/m) @ t=0.8
3.3460194496030846
% es.tEX (V/m) @ t=0.8
1.0891904803933699
% es.tEY (V/m) @ t=0.8
0
% es.tEZ (V/m) @ t=0.8
3.3460194496030873
% es.Ex (V/m) @ t=0.8
1.0891904803933854
% es.Ey (V/m) @ t=0.8
0.26387137573130115
% es.Ez (V/m) @ t=0.8
3.3460194496030846
% es.tEx (V/m) @ t=0.8
1.0891904803933699
% es.tEy (V/m) @ t=0.8
0
% es.tEz (V/m) @ t=0.8
3.3460194496030873
% V (V) @ t=0.8
0.016503981903220707
% es.normE (V/m) @ t=0.82
3.562115537062894
% es.EX (V/m) @ t=0.82
1.0994937819801356
% es.EY (V/m) @ t=0.82
0.2663674865655201
% es.EZ (V/m) @ t=0.82
3.377671390184922
% es.tEX (V/m) @ t=0.82
1.0994937819801436
% es.tEY (V/m) @ t=0.82
0
% es.tEZ (V/m) @ t=0.82
3.37767139018494
% es.Ex (V/m) @ t=0.82
1.0994937819801356
% es.Ey (V/m) @ t=0.82
0.2663674865655201
% es.Ez (V/m) @ t=0.82
3.377671390184922
% es.tEx (V/m) @ t=0.82
1.0994937819801436
% es.tEy (V/m) @ t=0.82
0
% es.tEz (V/m) @ t=0.82
3.37767139018494
% V (V) @ t=0.82
0.016660100704578358
% es.normE (V/m) @ t=0.84
3.5954958967648745
% es.EX (V/m) @ t=0.84
1.1097970835668824
% es.EY (V/m) @ t=0.84
0.2688635973996991
% es.EZ (V/m) @ t=0.84
3.4093233307667736
% es.tEX (V/m) @ t=0.84
1.1097970835668889
% es.tEY (V/m) @ t=0.84
0
% es.tEZ (V/m) @ t=0.84
3.4093233307667816
% es.Ex (V/m) @ t=0.84
1.1097970835668824
% es.Ey (V/m) @ t=0.84
0.2688635973996991
% es.Ez (V/m) @ t=0.84
3.4093233307667736
% es.tEx (V/m) @ t=0.84
1.1097970835668889
% es.tEy (V/m) @ t=0.84
0
% es.tEz (V/m) @ t=0.84
3.4093233307667816
% V (V) @ t=0.84
0.016816219505936005
% es.normE (V/m) @ t=0.86
3.628876256466836
% es.EX (V/m) @ t=0.86
1.1201003851536173
% es.EY (V/m) @ t=0.86
0.2713597082338435
% es.EZ (V/m) @ t=0.86
3.440975271348611
% es.tEX (V/m) @ t=0.86
1.12010038515362
% es.tEY (V/m) @ t=0.86
0
% es.tEZ (V/m) @ t=0.86
3.4409752713486306
% es.Ex (V/m) @ t=0.86
1.1201003851536173
% es.Ey (V/m) @ t=0.86
0.2713597082338435
% es.Ez (V/m) @ t=0.86
3.440975271348611
% es.tEx (V/m) @ t=0.86
1.12010038515362
% es.tEy (V/m) @ t=0.86
0
% es.tEz (V/m) @ t=0.86
3.4409752713486306
% V (V) @ t=0.86
0.01697233830729366
% es.normE (V/m) @ t=0.88
3.6622566161688104
% es.EX (V/m) @ t=0.88
1.1304036867403606
% es.EY (V/m) @ t=0.88
0.27385581906803314
% es.EZ (V/m) @ t=0.88
3.4726272119304555
% es.tEX (V/m) @ t=0.88
1.1304036867403653
% es.tEY (V/m) @ t=0.88
0
% es.tEZ (V/m) @ t=0.88
3.472627211930469
% es.Ex (V/m) @ t=0.88
1.1304036867403606
% es.Ey (V/m) @ t=0.88
0.27385581906803314
% es.Ez (V/m) @ t=0.88
3.4726272119304555
% es.tEx (V/m) @ t=0.88
1.1304036867403653
% es.tEy (V/m) @ t=0.88
0
% es.tEz (V/m) @ t=0.88
3.472627211930469
% V (V) @ t=0.88
0.017128457108651306
% es.normE (V/m) @ t=0.9
3.695636975870789
% es.EX (V/m) @ t=0.9
1.140706988327125
% es.EY (V/m) @ t=0.9
0.276351929902213
% es.EZ (V/m) @ t=0.9
3.504279152512299
% es.tEX (V/m) @ t=0.9
1.140706988327139
% es.tEY (V/m) @ t=0.9
0
% es.tEZ (V/m) @ t=0.9
3.504279152512307
% es.Ex (V/m) @ t=0.9
1.140706988327125
% es.Ey (V/m) @ t=0.9
0.276351929902213
% es.Ez (V/m) @ t=0.9
3.504279152512299
% es.tEx (V/m) @ t=0.9
1.140706988327139
% es.tEy (V/m) @ t=0.9
0
% es.tEz (V/m) @ t=0.9
3.504279152512307
% V (V) @ t=0.9
0.017284575910008957
% es.normE (V/m) @ t=0.92
3.7290173355727614
% es.EX (V/m) @ t=0.92
1.1510102899138623
% es.EY (V/m) @ t=0.92
0.2788480407363847
% es.EZ (V/m) @ t=0.92
3.5359310930941446
% es.tEX (V/m) @ t=0.92
1.15101028991387
% es.tEY (V/m) @ t=0.92
0
% es.tEZ (V/m) @ t=0.92
3.535931093094142
% es.Ex (V/m) @ t=0.92
1.1510102899138623
% es.Ey (V/m) @ t=0.92
0.2788480407363847
% es.Ez (V/m) @ t=0.92
3.5359310930941446
% es.tEx (V/m) @ t=0.92
1.15101028991387
% es.tEy (V/m) @ t=0.92
0
% es.tEz (V/m) @ t=0.92
3.535931093094142
% V (V) @ t=0.92
0.017440694711366608
% es.normE (V/m) @ t=0.94
3.7623976952747618
% es.EX (V/m) @ t=0.94
1.1613135915006074
% es.EY (V/m) @ t=0.94
0.2813441515705686
% es.EZ (V/m) @ t=0.94
3.5675830336760166
% es.tEX (V/m) @ t=0.94
1.1613135915006154
% es.tEY (V/m) @ t=0.94
0
% es.tEZ (V/m) @ t=0.94
3.5675830336759944
% es.Ex (V/m) @ t=0.94
1.1613135915006074
% es.Ey (V/m) @ t=0.94
0.2813441515705686
% es.Ez (V/m) @ t=0.94
3.5675830336760166
% es.tEx (V/m) @ t=0.94
1.1613135915006154
% es.tEy (V/m) @ t=0.94
0
% es.tEz (V/m) @ t=0.94
3.5675830336759944
% V (V) @ t=0.94
0.017596813512724255
% es.normE (V/m) @ t=0.96
3.7957780549767097
% es.EX (V/m) @ t=0.96
1.1716168930873558
% es.EY (V/m) @ t=0.96
0.2838402624047329
% es.EZ (V/m) @ t=0.96
3.5992349742578336
% es.tEX (V/m) @ t=0.96
1.1716168930873607
% es.tEY (V/m) @ t=0.96
0
% es.tEZ (V/m) @ t=0.96
3.599234974257815
% es.Ex (V/m) @ t=0.96
1.1716168930873558
% es.Ey (V/m) @ t=0.96
0.2838402624047329
% es.Ez (V/m) @ t=0.96
3.5992349742578336
% es.tEx (V/m) @ t=0.96
1.1716168930873607
% es.tEy (V/m) @ t=0.96
0
% es.tEz (V/m) @ t=0.96
3.599234974257815
% V (V) @ t=0.96
0.017752932314081905
% es.normE (V/m) @ t=0.98
3.829158414678684
% es.EX (V/m) @ t=0.98
1.1819201946741043
% es.EY (V/m) @ t=0.98
0.2863363732389168
% es.EZ (V/m) @ t=0.98
3.6308869148396763
% es.tEX (V/m) @ t=0.98
1.1819201946741202
% es.tEY (V/m) @ t=0.98
0
% es.tEZ (V/m) @ t=0.98
3.630886914839671
% es.Ex (V/m) @ t=0.98
1.1819201946741043
% es.Ey (V/m) @ t=0.98
0.2863363732389168
% es.Ez (V/m) @ t=0.98
3.6308869148396763
% es.tEx (V/m) @ t=0.98
1.1819201946741202
% es.tEy (V/m) @ t=0.98
0
% es.tEz (V/m) @ t=0.98
3.630886914839671
% V (V) @ t=0.98
0.017909051115439556
% es.normE (V/m) @ t=1
3.8625387743806394
% es.EX (V/m) @ t=1
1.1922234962608482
% es.EY (V/m) @ t=1
0.28883248407311046
% es.EZ (V/m) @ t=1
3.6625388554215004
% es.tEX (V/m) @ t=1
1.1922234962608513
% es.tEY (V/m) @ t=1
0
% es.tEZ (V/m) @ t=1
3.6625388554215057
% es.Ex (V/m) @ t=1
1.1922234962608482
% es.Ey (V/m) @ t=1
0.28883248407311046
% es.Ez (V/m) @ t=1
3.6625388554215004
% es.tEx (V/m) @ t=1
1.1922234962608513
% es.tEy (V/m) @ t=1
0
% es.tEz (V/m) @ t=1
3.6625388554215057
% V (V) @ t=1
0.018065169916797207
% es.normE (V/m) @ t=1.02
3.8959191340826247
% es.EX (V/m) @ t=1.02
1.2025267978475882
% es.EY (V/m) @ t=1.02
0.291328594907301
% es.EZ (V/m) @ t=1.02
3.6941907960033573
% es.tEX (V/m) @ t=1.02
1.2025267978475966
% es.tEY (V/m) @ t=1.02
0
% es.tEZ (V/m) @ t=1.02
3.6941907960033475
% es.Ex (V/m) @ t=1.02
1.2025267978475882
% es.Ey (V/m) @ t=1.02
0.291328594907301
% es.Ez (V/m) @ t=1.02
3.6941907960033573
% es.tEx (V/m) @ t=1.02
1.2025267978475966
% es.tEy (V/m) @ t=1.02
0
% es.tEz (V/m) @ t=1.02
3.6941907960033475
% V (V) @ t=1.02
0.01822128871815486
% es.normE (V/m) @ t=1.04
3.930611308230654
% es.EX (V/m) @ t=1.04
1.213235001424506
% es.EY (V/m) @ t=1.04
0.29392280133987203
% es.EZ (V/m) @ t=1.04
3.727086628231736
% es.tEX (V/m) @ t=1.04
1.213235001424522
% es.tEY (V/m) @ t=1.04
0
% es.tEZ (V/m) @ t=1.04
3.7270866282317527
% es.Ex (V/m) @ t=1.04
1.213235001424506
% es.Ey (V/m) @ t=1.04
0.29392280133987203
% es.Ez (V/m) @ t=1.04
3.727086628231736
% es.tEx (V/m) @ t=1.04
1.213235001424522
% es.tEy (V/m) @ t=1.04
0
% es.tEz (V/m) @ t=1.04
3.7270866282317527
% V (V) @ t=1.04