% Model:              1 neuron.mph
% Version:            COMSOL 6.1.0.252
% Date:               Mar 22 2023, 18:34
% Dimension:          0
% Nodes:              14017
% Expressions:        14017
% Description:        Electric field norm, Electric field, X component, Electric field, Y component, Electric field, Z component, Tangential electric field, X component, Tangential electric field, Y component, Tangential electric field, Z component, Electric field, x component, Electric field, y component, Electric field, z component, Tangential electric field, x component, Tangential electric field, y component, Tangential electric field, z component, Electric potential
% Length unit:        mm
% x
1.66
% y
12.2
% z
1
% es.normE (V/m) @ t=0
2.7090530524939083
% es.EX (V/m) @ t=0
-0.9656072168739858
% es.EY (V/m) @ t=0
0.3067692030812663
% es.EZ (V/m) @ t=0
2.504679865332366
% es.tEX (V/m) @ t=0
-0.965607216874
% es.tEY (V/m) @ t=0
0
% es.tEZ (V/m) @ t=0
2.5046798653323705
% es.Ex (V/m) @ t=0
-0.9656072168739858
% es.Ey (V/m) @ t=0
0.3067692030812663
% es.Ez (V/m) @ t=0
2.504679865332366
% es.tEx (V/m) @ t=0
-0.965607216874
% es.tEy (V/m) @ t=0
0
% es.tEz (V/m) @ t=0
2.5046798653323705
% V (V) @ t=0
0.01318981489993941
% es.normE (V/m) @ t=0.02
2.3398223607074904
% es.EX (V/m) @ t=0.02
-0.8339996722348783
% es.EY (V/m) @ t=0.02
0.26495805991799193
% es.EZ (V/m) @ t=0.02
2.1633042401548908
% es.tEX (V/m) @ t=0.02
-0.8339996722348889
% es.tEY (V/m) @ t=0.02
0
% es.tEZ (V/m) @ t=0.02
2.16330424015489
% es.Ex (V/m) @ t=0.02
-0.8339996722348783
% es.Ey (V/m) @ t=0.02
0.26495805991799193
% es.Ez (V/m) @ t=0.02
2.1633042401548908
% es.tEx (V/m) @ t=0.02
-0.8339996722348889
% es.tEy (V/m) @ t=0.02
0
% es.tEz (V/m) @ t=0.02
2.16330424015489
% V (V) @ t=0.02
0.011392107583813867
% es.normE (V/m) @ t=0.04
2.3613328166891874
% es.EX (V/m) @ t=0.04
-0.8416667984692405
% es.EY (V/m) @ t=0.04
0.2673938725004512
% es.EZ (V/m) @ t=0.04
2.183191929644509
% es.tEX (V/m) @ t=0.04
-0.8416667984692476
% es.tEY (V/m) @ t=0.04
0
% es.tEZ (V/m) @ t=0.04
2.183191929644506
% es.Ex (V/m) @ t=0.04
-0.8416667984692405
% es.Ey (V/m) @ t=0.04
0.2673938725004512
% es.Ez (V/m) @ t=0.04
2.183191929644509
% es.tEx (V/m) @ t=0.04
-0.8416667984692476
% es.tEy (V/m) @ t=0.04
0
% es.tEz (V/m) @ t=0.04
2.183191929644506
% V (V) @ t=0.04
0.011496837506581313
% es.normE (V/m) @ t=0.06
2.3829972379224635
% es.EX (V/m) @ t=0.06
-0.8493888034438346
% es.EY (V/m) @ t=0.06
0.2698471198222301
% es.EZ (V/m) @ t=0.06
2.2032219691939536
% es.tEX (V/m) @ t=0.06
-0.8493888034438488
% es.tEY (V/m) @ t=0.06
0
% es.tEZ (V/m) @ t=0.06
2.203221969193958
% es.Ex (V/m) @ t=0.06
-0.8493888034438346
% es.Ey (V/m) @ t=0.06
0.2698471198222301
% es.Ez (V/m) @ t=0.06
2.2032219691939536
% es.tEx (V/m) @ t=0.06
-0.8493888034438488
% es.tEy (V/m) @ t=0.06
0
% es.tEz (V/m) @ t=0.06
2.203221969193958
% V (V) @ t=0.06
0.011602317069929657
% es.normE (V/m) @ t=0.08
2.405082951944979
% es.EX (V/m) @ t=0.08
-0.8572609729388665
% es.EY (V/m) @ t=0.08
0.27234807374969394
% es.EZ (V/m) @ t=0.08
2.223641518818938
% es.tEX (V/m) @ t=0.08
-0.8572609729388843
% es.tEY (V/m) @ t=0.08
0
% es.tEZ (V/m) @ t=0.08
2.2236415188189387
% es.Ex (V/m) @ t=0.08
-0.8572609729388665
% es.Ey (V/m) @ t=0.08
0.27234807374969394
% es.Ez (V/m) @ t=0.08
2.223641518818938
% es.tEx (V/m) @ t=0.08
-0.8572609729388843
% es.tEy (V/m) @ t=0.08
0
% es.tEz (V/m) @ t=0.08
2.2236415188189387
% V (V) @ t=0.08
0.011709847811565248
% es.normE (V/m) @ t=0.1
2.427272367368382
% es.EX (V/m) @ t=0.1
-0.8651701054950749
% es.EY (V/m) @ t=0.1
0.27486077067857706
% es.EZ (V/m) @ t=0.1
2.2441569465161875
% es.tEX (V/m) @ t=0.1
-0.865170105495082
% es.tEY (V/m) @ t=0.1
0
% es.tEZ (V/m) @ t=0.1
2.2441569465161884
% es.Ex (V/m) @ t=0.1
-0.8651701054950749
% es.Ey (V/m) @ t=0.1
0.27486077067857706
% es.Ez (V/m) @ t=0.1
2.2441569465161875
% es.tEx (V/m) @ t=0.1
-0.865170105495082
% es.tEy (V/m) @ t=0.1
0
% es.tEz (V/m) @ t=0.1
2.2441569465161884
% V (V) @ t=0.1
0.011817883451616587
% es.normE (V/m) @ t=0.12
2.449461782791776
% es.EX (V/m) @ t=0.12
-0.8730792380512584
% es.EY (V/m) @ t=0.12
0.2773734676074999
% es.EZ (V/m) @ t=0.12
2.2646723742134345
% es.tEX (V/m) @ t=0.12
-0.8730792380512655
% es.tEY (V/m) @ t=0.12
0
% es.tEZ (V/m) @ t=0.12
2.2646723742134434
% es.Ex (V/m) @ t=0.12
-0.8730792380512584
% es.Ey (V/m) @ t=0.12
0.2773734676074999
% es.Ez (V/m) @ t=0.12
2.2646723742134345
% es.tEx (V/m) @ t=0.12
-0.8730792380512655
% es.tEy (V/m) @ t=0.12
0
% es.tEz (V/m) @ t=0.12
2.2646723742134434
% V (V) @ t=0.12
0.01192591909166793
% es.normE (V/m) @ t=0.14
2.472327634879197
% es.EX (V/m) @ t=0.14
-0.8812294777690775
% es.EY (V/m) @ t=0.14
0.27996276319968527
% es.EZ (V/m) @ t=0.14
2.285813207644048
% es.tEX (V/m) @ t=0.14
-0.8812294777690881
% es.tEY (V/m) @ t=0.14
0
% es.tEZ (V/m) @ t=0.14
2.2858132076440505
% es.Ex (V/m) @ t=0.14
-0.8812294777690775
% es.Ey (V/m) @ t=0.14
0.27996276319968527
% es.Ez (V/m) @ t=0.14
2.285813207644048
% es.tEx (V/m) @ t=0.14
-0.8812294777690881
% es.tEy (V/m) @ t=0.14
0
% es.tEz (V/m) @ t=0.14
2.2858132076440505
% V (V) @ t=0.14
0.012037248162896301
% es.normE (V/m) @ t=0.16
2.4956238297365747
% es.EX (V/m) @ t=0.16
-0.8895331076404971
% es.EY (V/m) @ t=0.16
0.28260079015534645
% es.EZ (V/m) @ t=0.16
2.3073519184369555
% es.tEX (V/m) @ t=0.16
-0.8895331076405149
% es.tEY (V/m) @ t=0.16
0
% es.tEZ (V/m) @ t=0.16
2.307351918436959
% es.Ex (V/m) @ t=0.16
-0.8895331076404971
% es.Ey (V/m) @ t=0.16
0.28260079015534645
% es.Ez (V/m) @ t=0.16
2.3073519184369555
% es.tEx (V/m) @ t=0.16
-0.8895331076405149
% es.tEy (V/m) @ t=0.16
0
% es.tEz (V/m) @ t=0.16
2.307351918436959
% V (V) @ t=0.16
0.012150672484679359
% es.normE (V/m) @ t=0.18
2.518920024593972
% es.EX (V/m) @ t=0.18
-0.8978367375119234
% es.EY (V/m) @ t=0.18
0.28523881711099963
% es.EZ (V/m) @ t=0.18
2.328890629229881
% es.tEX (V/m) @ t=0.18
-0.8978367375119412
% es.tEY (V/m) @ t=0.18
0
% es.tEZ (V/m) @ t=0.18
2.328890629229889
% es.Ex (V/m) @ t=0.18
-0.8978367375119234
% es.Ey (V/m) @ t=0.18
0.28523881711099963
% es.Ez (V/m) @ t=0.18
2.328890629229881
% es.tEx (V/m) @ t=0.18
-0.8978367375119412
% es.tEy (V/m) @ t=0.18
0
% es.tEz (V/m) @ t=0.18
2.328890629229889
% V (V) @ t=0.18
0.012264096806462415
% es.normE (V/m) @ t=0.2
2.542216219451374
% es.EX (V/m) @ t=0.2
-0.9061403673833499
% es.EY (V/m) @ t=0.2
0.2878768440666535
% es.EZ (V/m) @ t=0.2
2.3504293400228145
% es.tEX (V/m) @ t=0.2
-0.9061403673833535
% es.tEY (V/m) @ t=0.2
0
% es.tEZ (V/m) @ t=0.2
2.350429340022812
% es.Ex (V/m) @ t=0.2
-0.9061403673833499
% es.Ey (V/m) @ t=0.2
0.2878768440666535
% es.Ez (V/m) @ t=0.2
2.3504293400228145
% es.tEx (V/m) @ t=0.2
-0.9061403673833535
% es.tEy (V/m) @ t=0.2
0
% es.tEz (V/m) @ t=0.2
2.350429340022812
% V (V) @ t=0.2
0.012377521128245469
% es.normE (V/m) @ t=0.22
2.565512414308759
% es.EX (V/m) @ t=0.22
-0.914443997254762
% es.EY (V/m) @ t=0.22
0.2905148710223251
% es.EZ (V/m) @ t=0.22
2.37196805081573
% es.tEX (V/m) @ t=0.22
-0.9144439972547798
% es.tEY (V/m) @ t=0.22
0
% es.tEZ (V/m) @ t=0.22
2.3719680508157293
% es.Ex (V/m) @ t=0.22
-0.914443997254762
% es.Ey (V/m) @ t=0.22
0.2905148710223251
% es.Ez (V/m) @ t=0.22
2.37196805081573
% es.tEx (V/m) @ t=0.22
-0.9144439972547798
% es.tEy (V/m) @ t=0.22
0
% es.tEz (V/m) @ t=0.22
2.3719680508157293
% V (V) @ t=0.22
0.012490945450028526
% es.normE (V/m) @ t=0.24
2.588808609166159
% es.EX (V/m) @ t=0.24
-0.9227476271261885
% es.EY (V/m) @ t=0.24
0.2931528979779834
% es.EZ (V/m) @ t=0.24
2.393506761608659
% es.tEX (V/m) @ t=0.24
-0.9227476271262063
% es.tEY (V/m) @ t=0.24
0
% es.tEZ (V/m) @ t=0.24
2.393506761608652
% es.Ex (V/m) @ t=0.24
-0.9227476271261885
% es.Ey (V/m) @ t=0.24
0.2931528979779834
% es.Ez (V/m) @ t=0.24
2.393506761608659
% es.tEx (V/m) @ t=0.24
-0.9227476271262063
% es.tEy (V/m) @ t=0.24
0
% es.tEz (V/m) @ t=0.24
2.393506761608652
% V (V) @ t=0.24
0.012604369771811586
% es.normE (V/m) @ t=0.26
2.6126695122247052
% es.EX (V/m) @ t=0.26
-0.9312525399857308
% es.EY (V/m) @ t=0.26
0.2958548716888283
% es.EZ (V/m) @ t=0.26
2.4155675785537083
% es.tEX (V/m) @ t=0.26
-0.931252539985745
% es.tEY (V/m) @ t=0.26
0
% es.tEZ (V/m) @ t=0.26
2.4155675785537056
% es.Ex (V/m) @ t=0.26
-0.9312525399857308
% es.Ey (V/m) @ t=0.26
0.2958548716888283
% es.Ez (V/m) @ t=0.26
2.4155675785537083
% es.tEx (V/m) @ t=0.26
-0.931252539985745
% es.tEy (V/m) @ t=0.26
0
% es.tEz (V/m) @ t=0.26
2.4155675785537056
% V (V) @ t=0.26
0.012720543540398446
% es.normE (V/m) @ t=0.28
2.6384361658821693
% es.EX (V/m) @ t=0.28
-0.9404367331787247
% es.EY (V/m) @ t=0.28
0.29877264989254027
% es.EZ (V/m) @ t=0.28
2.4393903747122287
% es.tEX (V/m) @ t=0.28
-0.9404367331787353
% es.tEY (V/m) @ t=0.28
0
% es.tEZ (V/m) @ t=0.28
2.4393903747122287
% es.Ex (V/m) @ t=0.28
-0.9404367331787247
% es.Ey (V/m) @ t=0.28
0.29877264989254027
% es.Ez (V/m) @ t=0.28
2.4393903747122287
% es.tEx (V/m) @ t=0.28
-0.9404367331787353
% es.tEy (V/m) @ t=0.28
0
% es.tEz (V/m) @ t=0.28
2.4393903747122287
% V (V) @ t=0.28
0.012845996012362216
% es.normE (V/m) @ t=0.3
2.664202819539633
% es.EX (V/m) @ t=0.3
-0.9496209263717044
% es.EY (V/m) @ t=0.3
0.3016904280962591
% es.EZ (V/m) @ t=0.3
2.463213170870752
% es.tEX (V/m) @ t=0.3
-0.9496209263717186
% es.tEY (V/m) @ t=0.3
0
% es.tEZ (V/m) @ t=0.3
2.463213170870752
% es.Ex (V/m) @ t=0.3
-0.9496209263717044
% es.Ey (V/m) @ t=0.3
0.3016904280962591
% es.Ez (V/m) @ t=0.3
2.463213170870752
% es.tEx (V/m) @ t=0.3
-0.9496209263717186
% es.tEy (V/m) @ t=0.3
0
% es.tEz (V/m) @ t=0.3
2.463213170870752
% V (V) @ t=0.3
0.012971448484325979
% es.normE (V/m) @ t=0.32
2.689969473197104
% es.EX (V/m) @ t=0.32
-0.958805119564702
% es.EY (V/m) @ t=0.32
0.3046082062999518
% es.EZ (V/m) @ t=0.32
2.4870359670292794
% es.tEX (V/m) @ t=0.32
-0.9588051195647163
% es.tEY (V/m) @ t=0.32
0
% es.tEZ (V/m) @ t=0.32
2.4870359670292803
% es.Ex (V/m) @ t=0.32
-0.958805119564702
% es.Ey (V/m) @ t=0.32
0.3046082062999518
% es.Ez (V/m) @ t=0.32
2.4870359670292794
% es.tEx (V/m) @ t=0.32
-0.9588051195647163
% es.tEy (V/m) @ t=0.32
0
% es.tEz (V/m) @ t=0.32
2.4870359670292803
% V (V) @ t=0.32
0.013096900956289743
% es.normE (V/m) @ t=0.34
2.7157361268545683
% es.EX (V/m) @ t=0.34
-0.9679893127576782
% es.EY (V/m) @ t=0.34
0.30752598450368596
% es.EZ (V/m) @ t=0.34
2.5108587631878043
% es.tEX (V/m) @ t=0.34
-0.9679893127576924
% es.tEY (V/m) @ t=0.34
0
% es.tEZ (V/m) @ t=0.34
2.510858763187805
% es.Ex (V/m) @ t=0.34
-0.9679893127576782
% es.Ey (V/m) @ t=0.34
0.30752598450368596
% es.Ez (V/m) @ t=0.34
2.5108587631878043
% es.tEx (V/m) @ t=0.34
-0.9679893127576924
% es.tEy (V/m) @ t=0.34
0
% es.tEz (V/m) @ t=0.34
2.510858763187805
% V (V) @ t=0.34
0.01322235342825351
% es.normE (V/m) @ t=0.36
2.741502780512042
% es.EX (V/m) @ t=0.36
-0.977173505950683
% es.EY (V/m) @ t=0.36
0.3104437627074015
% es.EZ (V/m) @ t=0.36
2.534681559346329
% es.tEX (V/m) @ t=0.36
-0.9771735059506972
% es.tEY (V/m) @ t=0.36
0
% es.tEZ (V/m) @ t=0.36
2.53468155934633
% es.Ex (V/m) @ t=0.36
-0.977173505950683
% es.Ey (V/m) @ t=0.36
0.3104437627074015
% es.Ez (V/m) @ t=0.36
2.534681559346329
% es.tEx (V/m) @ t=0.36
-0.9771735059506972
% es.tEy (V/m) @ t=0.36
0
% es.tEz (V/m) @ t=0.36
2.53468155934633
% V (V) @ t=0.36
0.013347805900217277
% es.normE (V/m) @ t=0.38
2.7672694341695045
% es.EX (V/m) @ t=0.38
-0.9863576991436664
% es.EY (V/m) @ t=0.38
0.31336154091110324
% es.EZ (V/m) @ t=0.38
2.5585043555048523
% es.tEX (V/m) @ t=0.38
-0.9863576991436735
% es.tEY (V/m) @ t=0.38
0
% es.tEZ (V/m) @ t=0.38
2.5585043555048568
% es.Ex (V/m) @ t=0.38
-0.9863576991436664
% es.Ey (V/m) @ t=0.38
0.31336154091110324
% es.Ez (V/m) @ t=0.38
2.5585043555048523
% es.tEx (V/m) @ t=0.38
-0.9863576991436735
% es.tEy (V/m) @ t=0.38
0
% es.tEz (V/m) @ t=0.38
2.5585043555048568
% V (V) @ t=0.38
0.013473258372181041
% es.normE (V/m) @ t=0.4
2.793036087826965
% es.EX (V/m) @ t=0.4
-0.9955418923366568
% es.EY (V/m) @ t=0.4
0.3162793191148223
% es.EZ (V/m) @ t=0.4
2.5823271516633692
% es.tEX (V/m) @ t=0.4
-0.995541892336671
% es.tEY (V/m) @ t=0.4
0
% es.tEZ (V/m) @ t=0.4
2.5823271516633746
% es.Ex (V/m) @ t=0.4
-0.9955418923366568
% es.Ey (V/m) @ t=0.4
0.3162793191148223
% es.Ez (V/m) @ t=0.4
2.5823271516633692
% es.tEx (V/m) @ t=0.4
-0.995541892336671
% es.tEy (V/m) @ t=0.4
0
% es.tEz (V/m) @ t=0.4
2.5823271516633746
% V (V) @ t=0.4
0.013598710844144808
% es.normE (V/m) @ t=0.42
2.8188027414844337
% es.EX (V/m) @ t=0.42
-1.004726085529651
% es.EY (V/m) @ t=0.42
0.3191970973185245
% es.EZ (V/m) @ t=0.42
2.606149947821894
% es.tEX (V/m) @ t=0.42
-1.0047260855296687
% es.tEY (V/m) @ t=0.42
0
% es.tEZ (V/m) @ t=0.42
2.606149947821894
% es.Ex (V/m) @ t=0.42
-1.004726085529651
% es.Ey (V/m) @ t=0.42
0.3191970973185245
% es.Ez (V/m) @ t=0.42
2.606149947821894
% es.tEx (V/m) @ t=0.42
-1.0047260855296687
% es.tEy (V/m) @ t=0.42
0
% es.tEz (V/m) @ t=0.42
2.606149947821894
% V (V) @ t=0.42
0.013724163316108571
% es.normE (V/m) @ t=0.44
2.844569395141902
% es.EX (V/m) @ t=0.44
-1.0139102787226413
% es.EY (V/m) @ t=0.44
0.32211487552222606
% es.EZ (V/m) @ t=0.44
2.6299727439804217
% es.tEX (V/m) @ t=0.44
-1.013910278722652
% es.tEY (V/m) @ t=0.44
0
% es.tEZ (V/m) @ t=0.44
2.6299727439804297
% es.Ex (V/m) @ t=0.44
-1.0139102787226413
% es.Ey (V/m) @ t=0.44
0.32211487552222606
% es.Ez (V/m) @ t=0.44
2.6299727439804217
% es.tEx (V/m) @ t=0.44
-1.013910278722652
% es.tEy (V/m) @ t=0.44
0
% es.tEz (V/m) @ t=0.44
2.6299727439804297
% V (V) @ t=0.44
0.013849615788072336
% es.normE (V/m) @ t=0.46
2.870336048799376
% es.EX (V/m) @ t=0.46
-1.0230944719156319
% es.EY (V/m) @ t=0.46
0.32503265372596113
% es.EZ (V/m) @ t=0.46
2.65379554013895
% es.tEX (V/m) @ t=0.46
-1.0230944719156496
% es.tEY (V/m) @ t=0.46
0
% es.tEZ (V/m) @ t=0.46
2.653795540138944
% es.Ex (V/m) @ t=0.46
-1.0230944719156319
% es.Ey (V/m) @ t=0.46
0.32503265372596113
% es.Ez (V/m) @ t=0.46
2.65379554013895
% es.tEx (V/m) @ t=0.46
-1.0230944719156496
% es.tEy (V/m) @ t=0.46
0
% es.tEz (V/m) @ t=0.46
2.653795540138944
% V (V) @ t=0.46
0.013975068260036104
% es.normE (V/m) @ t=0.48
2.896102702456837
% es.EX (V/m) @ t=0.48
-1.032278665108608
% es.EY (V/m) @ t=0.48
0.3279504319296749
% es.EZ (V/m) @ t=0.48
2.6776183362974724
% es.tEX (V/m) @ t=0.48
-1.0322786651086258
% es.tEY (V/m) @ t=0.48
0
% es.tEZ (V/m) @ t=0.48
2.677618336297469
% es.Ex (V/m) @ t=0.48
-1.032278665108608
% es.Ey (V/m) @ t=0.48
0.3279504319296749
% es.Ez (V/m) @ t=0.48
2.6776183362974724
% es.tEx (V/m) @ t=0.48
-1.0322786651086258
% es.tEy (V/m) @ t=0.48
0
% es.tEz (V/m) @ t=0.48
2.677618336297469
% V (V) @ t=0.48
0.014100520731999867
% es.normE (V/m) @ t=0.5
2.9218693561143105
% es.EX (V/m) @ t=0.5
-1.0414628583016021
% es.EY (V/m) @ t=0.5
0.3308682101333871
% es.EZ (V/m) @ t=0.5
2.7014411324560017
% es.tEX (V/m) @ t=0.5
-1.0414628583016021
% es.tEY (V/m) @ t=0.5
0
% es.tEZ (V/m) @ t=0.5
2.701441132456001
% es.Ex (V/m) @ t=0.5
-1.0414628583016021
% es.Ey (V/m) @ t=0.5
0.3308682101333871
% es.Ez (V/m) @ t=0.5
2.7014411324560017
% es.tEx (V/m) @ t=0.5
-1.0414628583016021
% es.tEy (V/m) @ t=0.5
0
% es.tEz (V/m) @ t=0.5
2.701441132456001
% V (V) @ t=0.5
0.014225973203963634
% es.normE (V/m) @ t=0.52
2.948922676937948
% es.EX (V/m) @ t=0.52
-1.0511056675246795
% es.EY (V/m) @ t=0.52
0.3339316886204122
% es.EZ (V/m) @ t=0.52
2.7264535285464717
% es.tEX (V/m) @ t=0.52
-1.0511056675246973
% es.tEY (V/m) @ t=0.52
0
% es.tEZ (V/m) @ t=0.52
2.726453528546468
% es.Ex (V/m) @ t=0.52
-1.0511056675246795
% es.Ey (V/m) @ t=0.52
0.3339316886204122
% es.Ez (V/m) @ t=0.52
2.7264535285464717
% es.tEx (V/m) @ t=0.52
-1.0511056675246973
% es.tEy (V/m) @ t=0.52
0
% es.tEz (V/m) @ t=0.52
2.726453528546468
% V (V) @ t=0.52
0.014357690188597621
% es.normE (V/m) @ t=0.54
2.9774659004874477
% es.EX (V/m) @ t=0.54
-1.0612795334897838
% es.EY (V/m) @ t=0.54
0.33716388148432563
% es.EZ (V/m) @ t=0.54
2.7528434278700296
% es.tEX (V/m) @ t=0.54
-1.061279533489798
% es.tEY (V/m) @ t=0.54
0
% es.tEZ (V/m) @ t=0.54
2.7528434278700207
% es.Ex (V/m) @ t=0.54
-1.0612795334897838
% es.Ey (V/m) @ t=0.54
0.33716388148432563
% es.Ez (V/m) @ t=0.54
2.7528434278700296
% es.tEx (V/m) @ t=0.54
-1.061279533489798
% es.tEy (V/m) @ t=0.54
0
% es.tEz (V/m) @ t=0.54
2.7528434278700207
% V (V) @ t=0.54
0.014496661197231704
% es.normE (V/m) @ t=0.56
3.0060091240369777
% es.EX (V/m) @ t=0.56
-1.071453399454913
% es.EY (V/m) @ t=0.56
0.34039607434827635
% es.EZ (V/m) @ t=0.56
2.779233327193605
% es.tEX (V/m) @ t=0.56
-1.0714533994549271
% es.tEY (V/m) @ t=0.56
0
% es.tEZ (V/m) @ t=0.56
2.7792333271935963
% es.Ex (V/m) @ t=0.56
-1.071453399454913
% es.Ey (V/m) @ t=0.56
0.34039607434827635
% es.Ez (V/m) @ t=0.56
2.779233327193605
% es.tEx (V/m) @ t=0.56
-1.0714533994549271
% es.tEy (V/m) @ t=0.56
0
% es.tEz (V/m) @ t=0.56
2.7792333271935963
% V (V) @ t=0.56
0.014635632205865784
% es.normE (V/m) @ t=0.58
3.034552347586466
% es.EX (V/m) @ t=0.58
-1.081627265420017
% es.EY (V/m) @ t=0.58
0.34362826721218886
% es.EZ (V/m) @ t=0.58
2.8056232265171515
% es.tEX (V/m) @ t=0.58
-1.0816272654200418
% es.tEY (V/m) @ t=0.58
0
% es.tEZ (V/m) @ t=0.58
2.8056232265171523
% es.Ex (V/m) @ t=0.58
-1.081627265420017
% es.Ey (V/m) @ t=0.58
0.34362826721218886
% es.Ez (V/m) @ t=0.58
2.8056232265171515
% es.tEx (V/m) @ t=0.58
-1.0816272654200418
% es.tEy (V/m) @ t=0.58
0
% es.tEz (V/m) @ t=0.58
2.8056232265171523
% V (V) @ t=0.58
0.014774603214499867
% es.normE (V/m) @ t=0.6
3.063095571135959
% es.EX (V/m) @ t=0.6
-1.0918011313851286
% es.EY (V/m) @ t=0.6
0.3468604600761238
% es.EZ (V/m) @ t=0.6
2.832013125840696
% es.tEX (V/m) @ t=0.6
-1.0918011313851428
% es.tEY (V/m) @ t=0.6
0
% es.tEZ (V/m) @ t=0.6
2.8320131258406995
% es.Ex (V/m) @ t=0.6
-1.0918011313851286
% es.Ey (V/m) @ t=0.6
0.3468604600761238
% es.Ez (V/m) @ t=0.6
2.832013125840696
% es.tEx (V/m) @ t=0.6
-1.0918011313851428
% es.tEy (V/m) @ t=0.6
0
% es.tEz (V/m) @ t=0.6
2.8320131258406995
% V (V) @ t=0.6
0.014913574223133951
% es.normE (V/m) @ t=0.62
3.0916387946854766
% es.EX (V/m) @ t=0.62
-1.1019749973502433
% es.EY (V/m) @ t=0.62
0.350092652940047
% es.EZ (V/m) @ t=0.62
2.858403025164267
% es.tEX (V/m) @ t=0.62
-1.1019749973502575
% es.tEY (V/m) @ t=0.62
0
% es.tEZ (V/m) @ t=0.62
2.8584030251642627
% es.Ex (V/m) @ t=0.62
-1.1019749973502433
% es.Ey (V/m) @ t=0.62
0.350092652940047
% es.Ez (V/m) @ t=0.62
2.858403025164267
% es.tEx (V/m) @ t=0.62
-1.1019749973502575
% es.tEy (V/m) @ t=0.62
0
% es.tEz (V/m) @ t=0.62
2.8584030251642627
% V (V) @ t=0.62
0.01505254523176803
% es.normE (V/m) @ t=0.64
3.1201820182349795
% es.EX (V/m) @ t=0.64
-1.1121488633153584
% es.EY (V/m) @ t=0.64
0.3533248458039757
% es.EZ (V/m) @ t=0.64
2.8847929244878214
% es.tEX (V/m) @ t=0.64
-1.1121488633153727
% es.tEY (V/m) @ t=0.64
0
% es.tEZ (V/m) @ t=0.64
2.884792924487824
% es.Ex (V/m) @ t=0.64
-1.1121488633153584
% es.Ey (V/m) @ t=0.64
0.3533248458039757
% es.Ez (V/m) @ t=0.64
2.8847929244878214
% es.tEx (V/m) @ t=0.64
-1.1121488633153727
% es.tEy (V/m) @ t=0.64
0
% es.tEz (V/m) @ t=0.64
2.884792924487824
% V (V) @ t=0.64
0.015191516240402114
% es.normE (V/m) @ t=0.66
3.1487252417844775
% es.EX (V/m) @ t=0.66
-1.1223227292804592
% es.EY (V/m) @ t=0.66
0.35655703866791777
% es.EZ (V/m) @ t=0.66
2.911182823811374
% es.tEX (V/m) @ t=0.66
-1.1223227292804734
% es.tEY (V/m) @ t=0.66
0
% es.tEZ (V/m) @ t=0.66
2.911182823811375
% es.Ex (V/m) @ t=0.66
-1.1223227292804592
% es.Ey (V/m) @ t=0.66
0.35655703866791777
% es.Ez (V/m) @ t=0.66
2.911182823811374
% es.tEx (V/m) @ t=0.66
-1.1223227292804734
% es.tEy (V/m) @ t=0.66
0
% es.tEz (V/m) @ t=0.66
2.911182823811375
% V (V) @ t=0.66
0.015330487249036193
% es.normE (V/m) @ t=0.68
3.177268465333982
% es.EX (V/m) @ t=0.68
-1.132496595245574
% es.EY (V/m) @ t=0.68
0.3597892315318463
% es.EZ (V/m) @ t=0.68
2.937572723134932
% es.tEX (V/m) @ t=0.68
-1.132496595245588
% es.tEY (V/m) @ t=0.68
0
% es.tEZ (V/m) @ t=0.68
2.9375727231349273
% es.Ex (V/m) @ t=0.68
-1.132496595245574
% es.Ey (V/m) @ t=0.68
0.3597892315318463
% es.Ez (V/m) @ t=0.68
2.937572723134932
% es.tEx (V/m) @ t=0.68
-1.132496595245588
% es.tEy (V/m) @ t=0.68
0
% es.tEz (V/m) @ t=0.68
2.9375727231349273
% V (V) @ t=0.68
0.01546945825767028
% es.normE (V/m) @ t=0.7
3.205811688883492
% es.EX (V/m) @ t=0.7
-1.142670461210689
% es.EY (V/m) @ t=0.7
0.3630214243957768
% es.EZ (V/m) @ t=0.7
2.9639626224584923
% es.tEX (V/m) @ t=0.7
-1.1426704612107033
% es.tEY (V/m) @ t=0.7
0
% es.tEZ (V/m) @ t=0.7
2.963962622458496
% es.Ex (V/m) @ t=0.7
-1.142670461210689
% es.Ey (V/m) @ t=0.7
0.3630214243957768
% es.Ez (V/m) @ t=0.7
2.9639626224584923
% es.tEx (V/m) @ t=0.7
-1.1426704612107033
% es.tEy (V/m) @ t=0.7
0
% es.tEz (V/m) @ t=0.7
2.963962622458496
% V (V) @ t=0.7
0.015608429266304357
% es.normE (V/m) @ t=0.72
3.2343549124329902
% es.EX (V/m) @ t=0.72
-1.1528443271758038
% es.EY (V/m) @ t=0.72
0.3662536172597255
% es.EZ (V/m) @ t=0.72
2.9903525217820404
% es.tEX (V/m) @ t=0.72
-1.152844327175818
% es.tEY (V/m) @ t=0.72
0
% es.tEZ (V/m) @ t=0.72
2.990352521782043
% es.Ex (V/m) @ t=0.72
-1.1528443271758038
% es.Ey (V/m) @ t=0.72
0.3662536172597255
% es.Ez (V/m) @ t=0.72
2.9903525217820404
% es.tEx (V/m) @ t=0.72
-1.152844327175818
% es.tEy (V/m) @ t=0.72
0
% es.tEz (V/m) @ t=0.72
2.990352521782043
% V (V) @ t=0.72
0.01574740027493844
% es.normE (V/m) @ t=0.74
3.2628981359825007
% es.EX (V/m) @ t=0.74
-1.163018193140919
% es.EY (V/m) @ t=0.74
0.3694858101236618
% es.EZ (V/m) @ t=0.74
3.0167424211056035
% es.tEX (V/m) @ t=0.74
-1.1630181931409331
% es.tEY (V/m) @ t=0.74
0
% es.tEZ (V/m) @ t=0.74
3.016742421105615
% es.Ex (V/m) @ t=0.74
-1.163018193140919
% es.Ey (V/m) @ t=0.74
0.3694858101236618
% es.Ez (V/m) @ t=0.74
3.0167424211056035
% es.tEx (V/m) @ t=0.74
-1.1630181931409331
% es.tEy (V/m) @ t=0.74
0
% es.tEz (V/m) @ t=0.74
3.016742421105615
% V (V) @ t=0.74
0.015886371283572523
% es.normE (V/m) @ t=0.76
3.2914413595320053
% es.EX (V/m) @ t=0.76
-1.1731920591060194
% es.EY (V/m) @ t=0.76
0.3727180029875856
% es.EZ (V/m) @ t=0.76
3.043132320429166
% es.tEX (V/m) @ t=0.76
-1.1731920591060336
% es.tEY (V/m) @ t=0.76
0
% es.tEZ (V/m) @ t=0.76
3.043132320429171
% es.Ex (V/m) @ t=0.76
-1.1731920591060194
% es.Ey (V/m) @ t=0.76
0.3727180029875856
% es.Ez (V/m) @ t=0.76
3.043132320429166
% es.tEx (V/m) @ t=0.76
-1.1731920591060336
% es.tEy (V/m) @ t=0.76
0
% es.tEz (V/m) @ t=0.76
3.043132320429171
% V (V) @ t=0.76
0.016025342292206604
% es.normE (V/m) @ t=0.78
3.322167241772174
% es.EX (V/m) @ t=0.78
-1.1841439057719942
% es.EY (V/m) @ t=0.78
0.37619735692587564
% es.EZ (V/m) @ t=0.78
3.0715402168780406
% es.tEX (V/m) @ t=0.78
-1.1841439057720085
% es.tEY (V/m) @ t=0.78
0
% es.tEZ (V/m) @ t=0.78
3.0715402168780432
% es.Ex (V/m) @ t=0.78
-1.1841439057719942
% es.Ey (V/m) @ t=0.78
0.37619735692587564
% es.Ez (V/m) @ t=0.78
3.0715402168780406
% es.tEx (V/m) @ t=0.78
-1.1841439057720085
% es.tEy (V/m) @ t=0.78
0
% es.tEz (V/m) @ t=0.78
3.0715402168780432
% V (V) @ t=0.78
0.016174940210978206
% es.normE (V/m) @ t=0.8
3.3538365025768155
% es.EX (V/m) @ t=0.8
-1.1954320076297915
% es.EY (V/m) @ t=0.8
0.37978353767156836
% es.EZ (V/m) @ t=0.8
3.1008203226372144
% es.tEX (V/m) @ t=0.8
-1.19543200762982
% es.tEY (V/m) @ t=0.8
0
% es.tEZ (V/m) @ t=0.8
3.100820322637217
% es.Ex (V/m) @ t=0.8
-1.1954320076297915
% es.Ey (V/m) @ t=0.8
0.37978353767156836
% es.Ez (V/m) @ t=0.8
3.1008203226372144
% es.tEx (V/m) @ t=0.8
-1.19543200762982
% es.tEy (V/m) @ t=0.8
0
% es.tEz (V/m) @ t=0.8
3.100820322637217
% V (V) @ t=0.8
0.01632913124331051
% es.normE (V/m) @ t=0.82
3.3855057633814605
% es.EX (V/m) @ t=0.82
-1.2067201094876105
% es.EY (V/m) @ t=0.82
0.3833697184172351
% es.EZ (V/m) @ t=0.82
3.13010042839639
% es.tEX (V/m) @ t=0.82
-1.2067201094876319
% es.tEY (V/m) @ t=0.82
0
% es.tEZ (V/m) @ t=0.82
3.1301004283963874
% es.Ex (V/m) @ t=0.82
-1.2067201094876105
% es.Ey (V/m) @ t=0.82
0.3833697184172351
% es.Ez (V/m) @ t=0.82
3.13010042839639
% es.tEx (V/m) @ t=0.82
-1.2067201094876319
% es.tEy (V/m) @ t=0.82
0
% es.tEz (V/m) @ t=0.82
3.1301004283963874
% V (V) @ t=0.82
0.016483322275642812
% es.normE (V/m) @ t=0.84
3.417175024186116
% es.EX (V/m) @ t=0.84
-1.2180082113454223
% es.EY (V/m) @ t=0.84
0.38695589916291206
% es.EZ (V/m) @ t=0.84
3.1593805341555763
% es.tEX (V/m) @ t=0.84
-1.2180082113454436
% es.tEY (V/m) @ t=0.84
0
% es.tEZ (V/m) @ t=0.84
3.159380534155572
% es.Ex (V/m) @ t=0.84
-1.2180082113454223
% es.Ey (V/m) @ t=0.84
0.38695589916291206
% es.Ez (V/m) @ t=0.84
3.1593805341555763
% es.tEx (V/m) @ t=0.84
-1.2180082113454436
% es.tEy (V/m) @ t=0.84
0
% es.tEz (V/m) @ t=0.84
3.159380534155572
% V (V) @ t=0.84
0.016637513307975117
% es.normE (V/m) @ t=0.86
3.4488442849907566
% es.EX (V/m) @ t=0.86
-1.22929631320322
% es.EY (V/m) @ t=0.86
0.3905420799085999
% es.EZ (V/m) @ t=0.86
3.1886606399147537
% es.tEX (V/m) @ t=0.86
-1.2292963132032413
% es.tEY (V/m) @ t=0.86
0
% es.tEZ (V/m) @ t=0.86
3.1886606399147563
% es.Ex (V/m) @ t=0.86
-1.22929631320322
% es.Ey (V/m) @ t=0.86
0.3905420799085999
% es.Ez (V/m) @ t=0.86
3.1886606399147537
% es.tEx (V/m) @ t=0.86
-1.2292963132032413
% es.tEy (V/m) @ t=0.86
0
% es.tEz (V/m) @ t=0.86
3.1886606399147563
% V (V) @ t=0.86
0.016791704340307422
% es.normE (V/m) @ t=0.88
3.4805135457953895
% es.EX (V/m) @ t=0.88
-1.2405844150609957
% es.EY (V/m) @ t=0.88
0.39412826065429973
% es.EZ (V/m) @ t=0.88
3.2179407456739275
% es.tEX (V/m) @ t=0.88
-1.24058441506101
% es.tEY (V/m) @ t=0.88
0
% es.tEZ (V/m) @ t=0.88
3.2179407456739284
% es.Ex (V/m) @ t=0.88
-1.2405844150609957
% es.Ey (V/m) @ t=0.88
0.39412826065429973
% es.Ez (V/m) @ t=0.88
3.2179407456739275
% es.tEx (V/m) @ t=0.88
-1.24058441506101
% es.tEy (V/m) @ t=0.88
0
% es.tEz (V/m) @ t=0.88
3.2179407456739284
% V (V) @ t=0.88
0.016945895372639724
% es.normE (V/m) @ t=0.9
3.5121828066000513
% es.EX (V/m) @ t=0.9
-1.2518725169188218
% es.EY (V/m) @ t=0.9
0.39771444139998025
% es.EZ (V/m) @ t=0.9
3.2472208514331156
% es.tEX (V/m) @ t=0.9
-1.251872516918836
% es.tEY (V/m) @ t=0.9
0
% es.tEZ (V/m) @ t=0.9
3.247220851433106
% es.Ex (V/m) @ t=0.9
-1.2518725169188218
% es.Ey (V/m) @ t=0.9
0.39771444139998025
% es.Ez (V/m) @ t=0.9
3.2472208514331156
% es.tEx (V/m) @ t=0.9
-1.251872516918836
% es.tEy (V/m) @ t=0.9
0
% es.tEz (V/m) @ t=0.9
3.247220851433106
% V (V) @ t=0.9
0.01710008640497203
% es.normE (V/m) @ t=0.92
3.543852067404708
% es.EX (V/m) @ t=0.92
-1.2631606187766338
% es.EY (V/m) @ t=0.92
0.40130062214567896
% es.EZ (V/m) @ t=0.92
3.2765009571923
% es.tEX (V/m) @ t=0.92
-1.263160618776648
% es.tEY (V/m) @ t=0.92
0
% es.tEZ (V/m) @ t=0.92
3.276500957192301
% es.Ex (V/m) @ t=0.92
-1.2631606187766338
% es.Ey (V/m) @ t=0.92
0.40130062214567896
% es.Ez (V/m) @ t=0.92
3.2765009571923
% es.tEx (V/m) @ t=0.92
-1.263160618776648
% es.tEy (V/m) @ t=0.92
0
% es.tEz (V/m) @ t=0.92
3.276500957192301
% V (V) @ t=0.92
0.017254277437304334
% es.normE (V/m) @ t=0.94
3.57552132820935
% es.EX (V/m) @ t=0.94
-1.2744487206344384
% es.EY (V/m) @ t=0.94
0.4048868028913457
% es.EZ (V/m) @ t=0.94
3.3057810629514774
% es.tEX (V/m) @ t=0.94
-1.2744487206344597
% es.tEY (V/m) @ t=0.94
0
% es.tEZ (V/m) @ t=0.94
3.305781062951482
% es.Ex (V/m) @ t=0.94
-1.2744487206344384
% es.Ey (V/m) @ t=0.94
0.4048868028913457
% es.Ez (V/m) @ t=0.94
3.3057810629514774
% es.tEx (V/m) @ t=0.94
-1.2744487206344597
% es.tEy (V/m) @ t=0.94
0
% es.tEz (V/m) @ t=0.94
3.305781062951482
% V (V) @ t=0.94
0.017408468469636635
% es.normE (V/m) @ t=0.96
3.6071905890139893
% es.EX (V/m) @ t=0.96
-1.2857368224922285
% es.EY (V/m) @ t=0.96
0.4084729836370169
% es.EZ (V/m) @ t=0.96
3.3350611687106557
% es.tEX (V/m) @ t=0.96
-1.2857368224922427
% es.tEY (V/m) @ t=0.96
0
% es.tEZ (V/m) @ t=0.96
3.3350611687106504
% es.Ex (V/m) @ t=0.96
-1.2857368224922285
% es.Ey (V/m) @ t=0.96
0.4084729836370169
% es.Ez (V/m) @ t=0.96
3.3350611687106557
% es.tEx (V/m) @ t=0.96
-1.2857368224922427
% es.tEy (V/m) @ t=0.96
0
% es.tEz (V/m) @ t=0.96
3.3350611687106504
% V (V) @ t=0.96
0.017562659501968936
% es.normE (V/m) @ t=0.98
3.6388598498186377
% es.EX (V/m) @ t=0.98
-1.2970249243500402
% es.EY (V/m) @ t=0.98
0.4120591643826832
% es.EZ (V/m) @ t=0.98
3.3643412744698376
% es.tEX (V/m) @ t=0.98
-1.2970249243500545
% es.tEY (V/m) @ t=0.98
0
% es.tEZ (V/m) @ t=0.98
3.364341274469828
% es.Ex (V/m) @ t=0.98
-1.2970249243500402
% es.Ey (V/m) @ t=0.98
0.4120591643826832
% es.Ez (V/m) @ t=0.98
3.3643412744698376
% es.tEx (V/m) @ t=0.98
-1.2970249243500545
% es.tEy (V/m) @ t=0.98
0
% es.tEz (V/m) @ t=0.98
3.364341274469828
% V (V) @ t=0.98
0.01771685053430124
% es.normE (V/m) @ t=1
3.6705291106232814
% es.EX (V/m) @ t=1
-1.3083130262078377
% es.EY (V/m) @ t=1
0.4156453451283979
% es.EZ (V/m) @ t=1
3.3936213802290114
% es.tEX (V/m) @ t=1
-1.308313026207852
% es.tEY (V/m) @ t=1
0
% es.tEZ (V/m) @ t=1
3.393621380229016
% es.Ex (V/m) @ t=1
-1.3083130262078377
% es.Ey (V/m) @ t=1
0.4156453451283979
% es.Ez (V/m) @ t=1
3.3936213802290114
% es.tEx (V/m) @ t=1
-1.308313026207852
% es.tEy (V/m) @ t=1
0
% es.tEz (V/m) @ t=1
3.393621380229016
% V (V) @ t=1
0.017871041566633543
% es.normE (V/m) @ t=1.02
3.702198371427929
% es.EX (V/m) @ t=1.02
-1.3196011280656499
% es.EY (V/m) @ t=1.02
0.4192315258740682
% es.EZ (V/m) @ t=1.02
3.4229014859881923
% es.tEX (V/m) @ t=1.02
-1.319601128065664
% es.tEY (V/m) @ t=1.02
0
% es.tEZ (V/m) @ t=1.02
3.4229014859881968
% es.Ex (V/m) @ t=1.02
-1.3196011280656499
% es.Ey (V/m) @ t=1.02
0.4192315258740682
% es.Ez (V/m) @ t=1.02
3.4229014859881923
% es.tEx (V/m) @ t=1.02
-1.319601128065664
% es.tEy (V/m) @ t=1.02
0
% es.tEz (V/m) @ t=1.02
3.4229014859881968
% V (V) @ t=1.02
0.018025232598965848
% es.normE (V/m) @ t=1.04
3.735308725143837
% es.EX (V/m) @ t=1.04
-1.3314028890133545
% es.EY (V/m) @ t=1.04
0.42298089386101445
% es.EZ (V/m) @ t=1.04
3.453513967424894
% es.tEX (V/m) @ t=1.04
-1.3314028890133829
% es.tEY (V/m) @ t=1.04
0
% es.tEZ (V/m) @ t=1.04
3.453513967424902
% es.Ex (V/m) @ t=1.04
-1.3314028890133545
% es.Ey (V/m) @ t=1.04
0.42298089386101445