% Model:              1 neuron.mph
% Version:            COMSOL 6.1.0.252
% Date:               Mar 22 2023, 18:32
% Dimension:          0
% Nodes:              14017
% Expressions:        14017
% Description:        Electric field norm, Electric field, X component, Electric field, Y component, Electric field, Z component, Tangential electric field, X component, Tangential electric field, Y component, Tangential electric field, Z component, Electric field, x component, Electric field, y component, Electric field, z component, Tangential electric field, x component, Tangential electric field, y component, Tangential electric field, z component, Electric potential
% Length unit:        mm
% x
1
% y
12.2
% z
1
% es.normE (V/m) @ t=0
1.450190588146644
% es.EX (V/m) @ t=0
0.9846985513331745
% es.EY (V/m) @ t=0
0.2796670465075426
% es.EZ (V/m) @ t=0
1.00049703432488
% es.tEX (V/m) @ t=0
0.9846985513331532
% es.tEY (V/m) @ t=0
0
% es.tEZ (V/m) @ t=0
1.0004970343248587
% es.Ex (V/m) @ t=0
0.9846985513331745
% es.Ey (V/m) @ t=0
0.2796670465075426
% es.Ez (V/m) @ t=0
1.00049703432488
% es.tEx (V/m) @ t=0
0.9846985513331532
% es.tEy (V/m) @ t=0
0
% es.tEz (V/m) @ t=0
1.0004970343248587
% V (V) @ t=0
0.01359883951427314
% es.normE (V/m) @ t=0.02
1.2525463411866897
% es.EX (V/m) @ t=0.02
0.8504954988517355
% es.EY (V/m) @ t=0.02
0.2415516543086138
% es.EZ (V/m) @ t=0.02
0.8641408308791121
% es.tEX (V/m) @ t=0.02
0.8504954988517
% es.tEY (V/m) @ t=0.02
0
% es.tEZ (V/m) @ t=0.02
0.8641408308790943
% es.Ex (V/m) @ t=0.02
0.8504954988517355
% es.Ey (V/m) @ t=0.02
0.2415516543086138
% es.Ez (V/m) @ t=0.02
0.8641408308791121
% es.tEx (V/m) @ t=0.02
0.8504954988517
% es.tEy (V/m) @ t=0.02
0
% es.tEz (V/m) @ t=0.02
0.8641408308790943
% V (V) @ t=0.02
0.01174547457945497
% es.normE (V/m) @ t=0.04
1.264070724576665
% es.EX (V/m) @ t=0.04
0.8583207074374037
% es.EY (V/m) @ t=0.04
0.24377411343619748
% es.EZ (V/m) @ t=0.04
0.8720915869930437
% es.tEX (V/m) @ t=0.04
0.858320707437386
% es.tEY (V/m) @ t=0.04
0
% es.tEZ (V/m) @ t=0.04
0.8720915869930295
% es.Ex (V/m) @ t=0.04
0.8583207074374037
% es.Ey (V/m) @ t=0.04
0.24377411343619748
% es.Ez (V/m) @ t=0.04
0.8720915869930437
% es.tEx (V/m) @ t=0.04
0.858320707437386
% es.tEy (V/m) @ t=0.04
0
% es.tEz (V/m) @ t=0.04
0.8720915869930295
% V (V) @ t=0.04
0.01185354195332327
% es.normE (V/m) @ t=0.06
1.2756792313102099
% es.EX (V/m) @ t=0.06
0.8662030368180176
% es.EY (V/m) @ t=0.06
0.24601279593353986
% es.EZ (V/m) @ t=0.06
0.8801003803178249
% es.tEX (V/m) @ t=0.06
0.8662030368180069
% es.tEY (V/m) @ t=0.06
0
% es.tEZ (V/m) @ t=0.06
0.8801003803178205
% es.Ex (V/m) @ t=0.06
0.8662030368180176
% es.Ey (V/m) @ t=0.06
0.24601279593353986
% es.Ez (V/m) @ t=0.06
0.8801003803178249
% es.tEx (V/m) @ t=0.06
0.8662030368180069
% es.tEy (V/m) @ t=0.06
0
% es.tEz (V/m) @ t=0.06
0.8801003803178205
% V (V) @ t=0.06
0.01196239815879958
% es.normE (V/m) @ t=0.08
1.2875099707566675
% es.EX (V/m) @ t=0.08
0.874236265085532
% es.EY (V/m) @ t=0.08
0.2482943359443368
% es.EZ (V/m) @ t=0.08
0.8882624935241115
% es.tEX (V/m) @ t=0.08
0.8742362650855142
% es.tEY (V/m) @ t=0.08
0
% es.tEZ (V/m) @ t=0.08
0.8882624935241097
% es.Ex (V/m) @ t=0.08
0.874236265085532
% es.Ey (V/m) @ t=0.08
0.2482943359443368
% es.Ez (V/m) @ t=0.08
0.8882624935241115
% es.tEx (V/m) @ t=0.08
0.8742362650855142
% es.tEy (V/m) @ t=0.08
0
% es.tEz (V/m) @ t=0.08
0.8882624935241097
% V (V) @ t=0.08
0.012073338287732136
% es.normE (V/m) @ t=0.1
1.2994013857539168
% es.EX (V/m) @ t=0.1
0.8823106928369278
% es.EY (V/m) @ t=0.1
0.25058757721733826
% es.EZ (V/m) @ t=0.1
0.8964664672114013
% es.tEX (V/m) @ t=0.1
0.8823106928369526
% es.tEY (V/m) @ t=0.1
0
% es.tEZ (V/m) @ t=0.1
0.8964664672113827
% es.Ex (V/m) @ t=0.1
0.8823106928369278
% es.Ey (V/m) @ t=0.1
0.25058757721733826
% es.Ez (V/m) @ t=0.1
0.8964664672114013
% es.tEx (V/m) @ t=0.1
0.8823106928369526
% es.tEy (V/m) @ t=0.1
0
% es.tEz (V/m) @ t=0.1
0.8964664672113827
% V (V) @ t=0.1
0.012184847384220644
% es.normE (V/m) @ t=0.12
1.3112928007511864
% es.EX (V/m) @ t=0.12
0.890385120588352
% es.EY (V/m) @ t=0.12
0.2528808184902527
% es.EZ (V/m) @ t=0.12
0.9046704408987178
% es.tEX (V/m) @ t=0.12
0.8903851205883626
% es.tEY (V/m) @ t=0.12
0
% es.tEZ (V/m) @ t=0.12
0.9046704408987125
% es.Ex (V/m) @ t=0.12
0.890385120588352
% es.Ey (V/m) @ t=0.12
0.2528808184902527
% es.Ez (V/m) @ t=0.12
0.9046704408987178
% es.tEx (V/m) @ t=0.12
0.8903851205883626
% es.tEy (V/m) @ t=0.12
0
% es.tEz (V/m) @ t=0.12
0.9046704408987125
% V (V) @ t=0.12
0.012296356480709151
% es.normE (V/m) @ t=0.14
1.3235286609680235
% es.EX (V/m) @ t=0.14
0.89869343112289
% es.EY (V/m) @ t=0.14
0.2552404857793551
% es.EZ (V/m) @ t=0.14
0.9131120497737726
% es.tEX (V/m) @ t=0.14
0.8986934311228794
% es.tEY (V/m) @ t=0.14
0
% es.tEZ (V/m) @ t=0.14
0.9131120497737584
% es.Ex (V/m) @ t=0.14
0.89869343112289
% es.Ey (V/m) @ t=0.14
0.2552404857793551
% es.Ez (V/m) @ t=0.14
0.9131120497737726
% es.tEx (V/m) @ t=0.14
0.8986934311228794
% es.tEy (V/m) @ t=0.14
0
% es.tEz (V/m) @ t=0.14
0.9131120497737584
% V (V) @ t=0.14
0.01241109552309249
% es.normE (V/m) @ t=0.16
1.3360166992138216
% es.EX (V/m) @ t=0.16
0.9071729738183407
% es.EY (V/m) @ t=0.16
0.2576487854222851
% es.EZ (V/m) @ t=0.16
0.9217276380506441
% es.tEX (V/m) @ t=0.16
0.9071729738183194
% es.tEY (V/m) @ t=0.16
0
% es.tEZ (V/m) @ t=0.16
0.9217276380506263
% es.Ex (V/m) @ t=0.16
0.9071729738183407
% es.Ey (V/m) @ t=0.16
0.2576487854222851
% es.Ez (V/m) @ t=0.16
0.9217276380506441
% es.tEx (V/m) @ t=0.16
0.9071729738183194
% es.tEy (V/m) @ t=0.16
0
% es.tEz (V/m) @ t=0.16
0.9217276380506263
% V (V) @ t=0.16
0.012528199299671621
% es.normE (V/m) @ t=0.18
1.3485047374595853
% es.EX (V/m) @ t=0.18
0.9156525165136884
% es.EY (V/m) @ t=0.18
0.2600570850652968
% es.EZ (V/m) @ t=0.18
0.9303432263275315
% es.tEX (V/m) @ t=0.18
0.9156525165137026
% es.tEY (V/m) @ t=0.18
0
% es.tEZ (V/m) @ t=0.18
0.9303432263275084
% es.Ex (V/m) @ t=0.18
0.9156525165136884
% es.Ey (V/m) @ t=0.18
0.2600570850652968
% es.Ez (V/m) @ t=0.18
0.9303432263275315
% es.tEx (V/m) @ t=0.18
0.9156525165137026
% es.tEy (V/m) @ t=0.18
0
% es.tEz (V/m) @ t=0.18
0.9303432263275084
% V (V) @ t=0.18
0.01264530307625075
% es.normE (V/m) @ t=0.2
1.3609927757053304
% es.EX (V/m) @ t=0.2
0.9241320592090645
% es.EY (V/m) @ t=0.2
0.2624653847082765
% es.EZ (V/m) @ t=0.2
0.9389588146043906
% es.tEX (V/m) @ t=0.2
0.9241320592090716
% es.tEY (V/m) @ t=0.2
0
% es.tEZ (V/m) @ t=0.2
0.9389588146043835
% es.Ex (V/m) @ t=0.2
0.9241320592090645
% es.Ey (V/m) @ t=0.2
0.2624653847082765
% es.Ez (V/m) @ t=0.2
0.9389588146043906
% es.tEx (V/m) @ t=0.2
0.9241320592090716
% es.tEy (V/m) @ t=0.2
0
% es.tEz (V/m) @ t=0.2
0.9389588146043835
% V (V) @ t=0.2
0.01276240685282988
% es.normE (V/m) @ t=0.22
1.3734808139511272
% es.EX (V/m) @ t=0.22
0.9326116019045116
% es.EY (V/m) @ t=0.22
0.26487368435122427
% es.EZ (V/m) @ t=0.22
0.9475744028812585
% es.tEX (V/m) @ t=0.22
0.9326116019045116
% es.tEY (V/m) @ t=0.22
0
% es.tEZ (V/m) @ t=0.22
0.9475744028812514
% es.Ex (V/m) @ t=0.22
0.9326116019045116
% es.Ey (V/m) @ t=0.22
0.26487368435122427
% es.Ez (V/m) @ t=0.22
0.9475744028812585
% es.tEx (V/m) @ t=0.22
0.9326116019045116
% es.tEy (V/m) @ t=0.22
0
% es.tEz (V/m) @ t=0.22
0.9475744028812514
% V (V) @ t=0.22
0.012879510629409011
% es.normE (V/m) @ t=0.24
1.3859688521969047
% es.EX (V/m) @ t=0.24
0.9410911445999091
% es.EY (V/m) @ t=0.24
0.26728198399423775
% es.EZ (V/m) @ t=0.24
0.9561899911581229
% es.tEX (V/m) @ t=0.24
0.9410911445998948
% es.tEY (V/m) @ t=0.24
0
% es.tEZ (V/m) @ t=0.24
0.9561899911581122
% es.Ex (V/m) @ t=0.24
0.9410911445999091
% es.Ey (V/m) @ t=0.24
0.26728198399423775
% es.Ez (V/m) @ t=0.24
0.9561899911581229
% es.tEx (V/m) @ t=0.24
0.9410911445998948
% es.tEy (V/m) @ t=0.24
0
% es.tEz (V/m) @ t=0.24
0.9561899911581122
% V (V) @ t=0.24
0.012996614405988139
% es.normE (V/m) @ t=0.26
1.3986713151927064
% es.EX (V/m) @ t=0.26
0.9497162862374644
% es.EY (V/m) @ t=0.26
0.26973162778192616
% es.EZ (V/m) @ t=0.26
0.9649535146758499
% es.tEX (V/m) @ t=0.26
0.9497162862374466
% es.tEY (V/m) @ t=0.26
0
% es.tEZ (V/m) @ t=0.26
0.9649535146758339
% es.Ex (V/m) @ t=0.26
0.9497162862374644
% es.Ey (V/m) @ t=0.26
0.26973162778192616
% es.Ez (V/m) @ t=0.26
0.9649535146758499
% es.tEx (V/m) @ t=0.26
0.9497162862374466
% es.tEy (V/m) @ t=0.26
0
% es.tEz (V/m) @ t=0.26
0.9649535146758339
% V (V) @ t=0.26
0.013115729253368713
% es.normE (V/m) @ t=0.28
1.4124918874637356
% es.EX (V/m) @ t=0.28
0.9591006477303026
% es.EY (V/m) @ t=0.28
0.2723968589575847
% es.EZ (V/m) @ t=0.28
0.9744884405847998
% es.tEX (V/m) @ t=0.28
0.9591006477302813
% es.tEY (V/m) @ t=0.28
0
% es.tEZ (V/m) @ t=0.28
0.9744884405847856
% es.Ex (V/m) @ t=0.28
0.9591006477303026
% es.Ey (V/m) @ t=0.28
0.2723968589575847
% es.Ez (V/m) @ t=0.28
0.9744884405847998
% es.tEx (V/m) @ t=0.28
0.9591006477302813
% es.tEy (V/m) @ t=0.28
0
% es.tEz (V/m) @ t=0.28
0.9744884405847856
% V (V) @ t=0.28
0.01324533074893602
% es.normE (V/m) @ t=0.3
1.4263124597347683
% es.EX (V/m) @ t=0.3
0.9684850092231123
% es.EY (V/m) @ t=0.3
0.27506209013329297
% es.EZ (V/m) @ t=0.3
0.9840233664937479
% es.tEX (V/m) @ t=0.3
0.9684850092230874
% es.tEY (V/m) @ t=0.3
0
% es.tEZ (V/m) @ t=0.3
0.9840233664937372
% es.Ex (V/m) @ t=0.3
0.9684850092231123
% es.Ey (V/m) @ t=0.3
0.27506209013329297
% es.Ez (V/m) @ t=0.3
0.9840233664937479
% es.tEx (V/m) @ t=0.3
0.9684850092230874
% es.tEy (V/m) @ t=0.3
0
% es.tEz (V/m) @ t=0.3
0.9840233664937372
% V (V) @ t=0.3
0.01337493224450333
% es.normE (V/m) @ t=0.32
1.440133032005798
% es.EX (V/m) @ t=0.32
0.9778693707159505
% es.EY (V/m) @ t=0.32
0.2777273213089355
% es.EZ (V/m) @ t=0.32
0.9935582924026942
% es.tEX (V/m) @ t=0.32
0.9778693707159221
% es.tEY (V/m) @ t=0.32
0
% es.tEZ (V/m) @ t=0.32
0.993558292402696
% es.Ex (V/m) @ t=0.32
0.9778693707159505
% es.Ey (V/m) @ t=0.32
0.2777273213089355
% es.Ez (V/m) @ t=0.32
0.9935582924026942
% es.tEx (V/m) @ t=0.32
0.9778693707159221
% es.tEy (V/m) @ t=0.32
0
% es.tEz (V/m) @ t=0.32
0.993558292402696
% V (V) @ t=0.32
0.013504533740070636
% es.normE (V/m) @ t=0.34
1.4539536042768386
% es.EX (V/m) @ t=0.34
0.987253732208778
% es.EY (V/m) @ t=0.34
0.2803925524845514
% es.EZ (V/m) @ t=0.34
1.0030932183116672
% es.tEX (V/m) @ t=0.34
0.9872537322087709
% es.tEY (V/m) @ t=0.34
0
% es.tEZ (V/m) @ t=0.34
1.0030932183116477
% es.Ex (V/m) @ t=0.34
0.987253732208778
% es.Ey (V/m) @ t=0.34
0.2803925524845514
% es.Ez (V/m) @ t=0.34
1.0030932183116672
% es.tEx (V/m) @ t=0.34
0.9872537322087709
% es.tEy (V/m) @ t=0.34
0
% es.tEz (V/m) @ t=0.34
1.0030932183116477
% V (V) @ t=0.34
0.013634135235637945
% es.normE (V/m) @ t=0.36
1.4677741765478762
% es.EX (V/m) @ t=0.36
0.9966380937016162
% es.EY (V/m) @ t=0.36
0.28305778366017975
% es.EZ (V/m) @ t=0.36
1.0126281442206206
% es.tEX (V/m) @ t=0.36
0.9966380937016055
% es.tEY (V/m) @ t=0.36
0
% es.tEZ (V/m) @ t=0.36
1.0126281442205993
% es.Ex (V/m) @ t=0.36
0.9966380937016162
% es.Ey (V/m) @ t=0.36
0.28305778366017975
% es.Ez (V/m) @ t=0.36
1.0126281442206206
% es.tEx (V/m) @ t=0.36
0.9966380937016055
% es.tEy (V/m) @ t=0.36
0
% es.tEz (V/m) @ t=0.36
1.0126281442205993
% V (V) @ t=0.36
0.013763736731205255
% es.normE (V/m) @ t=0.38
1.4815947488188836
% es.EX (V/m) @ t=0.38
1.006022455194401
% es.EY (V/m) @ t=0.38
0.2857230148358916
% es.EZ (V/m) @ t=0.38
1.0221630701295528
% es.tEX (V/m) @ t=0.38
1.0060224551943833
% es.tEY (V/m) @ t=0.38
0
% es.tEZ (V/m) @ t=0.38
1.0221630701295368
% es.Ex (V/m) @ t=0.38
1.006022455194401
% es.Ey (V/m) @ t=0.38
0.2857230148358916
% es.Ez (V/m) @ t=0.38
1.0221630701295528
% es.tEx (V/m) @ t=0.38
1.0060224551943833
% es.tEy (V/m) @ t=0.38
0
% es.tEz (V/m) @ t=0.38
1.0221630701295368
% V (V) @ t=0.38
0.013893338226772559
% es.normE (V/m) @ t=0.4
1.4954153210899266
% es.EX (V/m) @ t=0.4
1.015406816687225
% es.EY (V/m) @ t=0.4
0.2883882460115146
% es.EZ (V/m) @ t=0.4
1.031697996038515
% es.tEX (V/m) @ t=0.4
1.0154068166872037
% es.tEY (V/m) @ t=0.4
0
% es.tEZ (V/m) @ t=0.4
1.0316979960384884
% es.Ex (V/m) @ t=0.4
1.015406816687225
% es.Ey (V/m) @ t=0.4
0.2883882460115146
% es.Ez (V/m) @ t=0.4
1.031697996038515
% es.tEx (V/m) @ t=0.4
1.0154068166872037
% es.tEy (V/m) @ t=0.4
0
% es.tEz (V/m) @ t=0.4
1.0316979960384884
% V (V) @ t=0.4
0.014022939722339867
% es.normE (V/m) @ t=0.42
1.5092358933609837
% es.EX (V/m) @ t=0.42
1.0247911781800916
% es.EY (V/m) @ t=0.42
0.2910534771871056
% es.EZ (V/m) @ t=0.42
1.0412329219474667
% es.tEX (V/m) @ t=0.42
1.024791178180081
% es.tEY (V/m) @ t=0.42
0
% es.tEZ (V/m) @ t=0.42
1.0412329219474543
% es.Ex (V/m) @ t=0.42
1.0247911781800916
% es.Ey (V/m) @ t=0.42
0.2910534771871056
% es.Ez (V/m) @ t=0.42
1.0412329219474667
% es.tEx (V/m) @ t=0.42
1.024791178180081
% es.tEy (V/m) @ t=0.42
0
% es.tEz (V/m) @ t=0.42
1.0412329219474543
% V (V) @ t=0.42
0.014152541217907176
% es.normE (V/m) @ t=0.44
1.5230564656320364
% es.EX (V/m) @ t=0.44
1.0341755396729368
% es.EY (V/m) @ t=0.44
0.29371870836272507
% es.EZ (V/m) @ t=0.44
1.0507678478564202
% es.tEX (V/m) @ t=0.44
1.0341755396729155
% es.tEY (V/m) @ t=0.44
0
% es.tEZ (V/m) @ t=0.44
1.050767847856406
% es.Ex (V/m) @ t=0.44
1.0341755396729368
% es.Ey (V/m) @ t=0.44
0.29371870836272507
% es.Ez (V/m) @ t=0.44
1.0507678478564202
% es.tEx (V/m) @ t=0.44
1.0341755396729155
% es.tEy (V/m) @ t=0.44
0
% es.tEz (V/m) @ t=0.44
1.050767847856406
% V (V) @ t=0.44
0.014282142713474485
% es.normE (V/m) @ t=0.46
1.5368770379030512
% es.EX (V/m) @ t=0.46
1.0435599011657146
% es.EY (V/m) @ t=0.46
0.2963839395384049
% es.EZ (V/m) @ t=0.46
1.0603027737653647
% es.tEX (V/m) @ t=0.46
1.0435599011657075
% es.tEY (V/m) @ t=0.46
0
% es.tEZ (V/m) @ t=0.46
1.0603027737653505
% es.Ex (V/m) @ t=0.46
1.0435599011657146
% es.Ey (V/m) @ t=0.46
0.2963839395384049
% es.Ez (V/m) @ t=0.46
1.0603027737653647
% es.tEx (V/m) @ t=0.46
1.0435599011657075
% es.tEy (V/m) @ t=0.46
0
% es.tEz (V/m) @ t=0.46
1.0603027737653505
% V (V) @ t=0.46
0.014411744209041793
% es.normE (V/m) @ t=0.48
1.5506976101741277
% es.EX (V/m) @ t=0.48
1.0529442626585563
% es.EY (V/m) @ t=0.48
0.299049170714067
% es.EZ (V/m) @ t=0.48
1.069837699674336
% es.tEX (V/m) @ t=0.48
1.0529442626585421
% es.tEY (V/m) @ t=0.48
0
% es.tEZ (V/m) @ t=0.48
1.0698376996743164
% es.Ex (V/m) @ t=0.48
1.0529442626585563
% es.Ey (V/m) @ t=0.48
0.299049170714067
% es.Ez (V/m) @ t=0.48
1.069837699674336
% es.tEx (V/m) @ t=0.48
1.0529442626585421
% es.tEy (V/m) @ t=0.48
0
% es.tEz (V/m) @ t=0.48
1.0698376996743164
% V (V) @ t=0.48
0.014541345704609103
% es.normE (V/m) @ t=0.5
1.564518182445204
% es.EX (V/m) @ t=0.5
1.06232862415143
% es.EY (V/m) @ t=0.5
0.301714401889722
% es.EZ (V/m) @ t=0.5
1.0793726255832858
% es.tEX (V/m) @ t=0.5
1.0623286241514052
% es.tEY (V/m) @ t=0.5
0
% es.tEZ (V/m) @ t=0.5
1.079372625583268
% es.Ex (V/m) @ t=0.5
1.06232862415143
% es.Ey (V/m) @ t=0.5
0.301714401889722
% es.Ez (V/m) @ t=0.5
1.0793726255832858
% es.tEx (V/m) @ t=0.5
1.0623286241514052
% es.tEy (V/m) @ t=0.5
0
% es.tEz (V/m) @ t=0.5
1.079372625583268
% V (V) @ t=0.5
0.01467094720017641
% es.normE (V/m) @ t=0.52
1.5788304434640608
% es.EX (V/m) @ t=0.52
1.0720468479716878
% es.EY (V/m) @ t=0.52
0.30447445858994016
% es.EZ (V/m) @ t=0.52
1.0892467698102877
% es.tEX (V/m) @ t=0.52
1.0720468479716772
% es.tEY (V/m) @ t=0.52
0
% es.tEZ (V/m) @ t=0.52
1.0892467698102806
% es.Ex (V/m) @ t=0.52
1.0720468479716878
% es.Ey (V/m) @ t=0.52
0.30447445858994016
% es.Ez (V/m) @ t=0.52
1.0892467698102877
% es.tEx (V/m) @ t=0.52
1.0720468479716772
% es.tEy (V/m) @ t=0.52
0
% es.tEz (V/m) @ t=0.52
1.0892467698102806
% V (V) @ t=0.52
0.014805159174637168
% es.normE (V/m) @ t=0.54
1.5941496278073644
% es.EX (V/m) @ t=0.54
1.082448784336048
% es.EY (V/m) @ t=0.54
0.30742870731274863
% es.EZ (V/m) @ t=0.54
1.0998155950484918
% es.tEX (V/m) @ t=0.54
1.0824487843360373
% es.tEY (V/m) @ t=0.54
0
% es.tEZ (V/m) @ t=0.54
1.0998155950484687
% es.Ex (V/m) @ t=0.54
1.082448784336048
% es.Ey (V/m) @ t=0.54
0.30742870731274863
% es.Ez (V/m) @ t=0.54
1.0998155950484918
% es.tEx (V/m) @ t=0.54
1.0824487843360373
% es.tEy (V/m) @ t=0.54
0
% es.tEz (V/m) @ t=0.54
1.0998155950484687
% V (V) @ t=0.54
0.014948812891980355
% es.normE (V/m) @ t=0.56
1.6094688121507594
% es.EX (V/m) @ t=0.56
1.0928507207005325
% es.EY (V/m) @ t=0.56
0.31038295603553223
% es.EZ (V/m) @ t=0.56
1.1103844202867084
% es.tEX (V/m) @ t=0.56
1.0928507207005396
% es.tEY (V/m) @ t=0.56
0
% es.tEZ (V/m) @ t=0.56
1.1103844202866853
% es.Ex (V/m) @ t=0.56
1.0928507207005325
% es.Ey (V/m) @ t=0.56
0.31038295603553223
% es.Ez (V/m) @ t=0.56
1.1103844202867084
% es.tEx (V/m) @ t=0.56
1.0928507207005396
% es.tEy (V/m) @ t=0.56
0
% es.tEz (V/m) @ t=0.56
1.1103844202866853
% V (V) @ t=0.56
0.015092466609323544
% es.normE (V/m) @ t=0.58
1.624787996494082
% es.EX (V/m) @ t=0.58
1.1032526570649779
% es.EY (V/m) @ t=0.58
0.31333720475829097
% es.EZ (V/m) @ t=0.58
1.1209532455248805
% es.tEX (V/m) @ t=0.58
1.1032526570649566
% es.tEY (V/m) @ t=0.58
0
% es.tEZ (V/m) @ t=0.58
1.1209532455248663
% es.Ex (V/m) @ t=0.58
1.1032526570649779
% es.Ey (V/m) @ t=0.58
0.31333720475829097
% es.Ez (V/m) @ t=0.58
1.1209532455248805
% es.tEx (V/m) @ t=0.58
1.1032526570649566
% es.tEy (V/m) @ t=0.58
0
% es.tEz (V/m) @ t=0.58
1.1209532455248663
% V (V) @ t=0.58
0.01523612032666673
% es.normE (V/m) @ t=0.6
1.640107180837452
% es.EX (V/m) @ t=0.6
1.1136545934294233
% es.EY (V/m) @ t=0.6
0.3162914534810959
% es.EZ (V/m) @ t=0.6
1.1315220707630953
% es.tEX (V/m) @ t=0.6
1.1136545934294304
% es.tEY (V/m) @ t=0.6
0
% es.tEZ (V/m) @ t=0.6
1.1315220707630758
% es.Ex (V/m) @ t=0.6
1.1136545934294233
% es.Ey (V/m) @ t=0.6
0.3162914534810959
% es.Ez (V/m) @ t=0.6
1.1315220707630953
% es.tEx (V/m) @ t=0.6
1.1136545934294304
% es.tEy (V/m) @ t=0.6
0
% es.tEz (V/m) @ t=0.6
1.1315220707630758
% V (V) @ t=0.6
0.01537977404400992
% es.normE (V/m) @ t=0.62
1.6554263651808063
% es.EX (V/m) @ t=0.62
1.1240565297938403
% es.EY (V/m) @ t=0.62
0.3192457022039221
% es.EZ (V/m) @ t=0.62
1.1420908960013119
% es.tEX (V/m) @ t=0.62
1.124056529793819
% es.tEY (V/m) @ t=0.62
0
% es.tEZ (V/m) @ t=0.62
1.1420908960012923
% es.Ex (V/m) @ t=0.62
1.1240565297938403
% es.Ey (V/m) @ t=0.62
0.3192457022039221
% es.Ez (V/m) @ t=0.62
1.1420908960013119
% es.tEx (V/m) @ t=0.62
1.124056529793819
% es.tEy (V/m) @ t=0.62
0
% es.tEz (V/m) @ t=0.62
1.1420908960012923
% V (V) @ t=0.62
0.015523427761353108
% es.normE (V/m) @ t=0.64
1.6707455495241557
% es.EX (V/m) @ t=0.64
1.1344584661582573
% es.EY (V/m) @ t=0.64
0.3221999509267448
% es.EZ (V/m) @ t=0.64
1.152659721239507
% es.tEX (V/m) @ t=0.64
1.1344584661582644
% es.tEY (V/m) @ t=0.64
0
% es.tEZ (V/m) @ t=0.64
1.1526597212394947
% es.Ex (V/m) @ t=0.64
1.1344584661582573
% es.Ey (V/m) @ t=0.64
0.3221999509267448
% es.Ez (V/m) @ t=0.64
1.152659721239507
% es.tEx (V/m) @ t=0.64
1.1344584661582644
% es.tEy (V/m) @ t=0.64
0
% es.tEz (V/m) @ t=0.64
1.1526597212394947
% V (V) @ t=0.64
0.015667081478696297
% es.normE (V/m) @ t=0.66
1.6860647338675054
% es.EX (V/m) @ t=0.66
1.1448604025226814
% es.EY (V/m) @ t=0.66
0.3251541996495071
% es.EZ (V/m) @ t=0.66
1.163228546477736
% es.tEX (V/m) @ t=0.66
1.1448604025226814
% es.tEY (V/m) @ t=0.66
0
% es.tEZ (V/m) @ t=0.66
1.1632285464777183
% es.Ex (V/m) @ t=0.66
1.1448604025226814
% es.Ey (V/m) @ t=0.66
0.3251541996495071
% es.Ez (V/m) @ t=0.66
1.163228546477736
% es.tEx (V/m) @ t=0.66
1.1448604025226814
% es.tEy (V/m) @ t=0.66
0
% es.tEz (V/m) @ t=0.66
1.1632285464777183
% V (V) @ t=0.66
0.015810735196039483
% es.normE (V/m) @ t=0.68
1.7013839182108588
% es.EX (V/m) @ t=0.68
1.1552623388870984
% es.EY (V/m) @ t=0.68
0.3281084483723724
% es.EZ (V/m) @ t=0.68
1.1737973717159313
% es.tEX (V/m) @ t=0.68
1.1552623388870984
% es.tEY (V/m) @ t=0.68
0
% es.tEZ (V/m) @ t=0.68
1.1737973717159065
% es.Ex (V/m) @ t=0.68
1.1552623388870984
% es.Ey (V/m) @ t=0.68
0.3281084483723724
% es.Ez (V/m) @ t=0.68
1.1737973717159313
% es.tEx (V/m) @ t=0.68
1.1552623388870984
% es.tEy (V/m) @ t=0.68
0
% es.tEz (V/m) @ t=0.68
1.1737973717159065
% V (V) @ t=0.68
0.01595438891338267
% es.normE (V/m) @ t=0.7
1.7167031025542274
% es.EX (V/m) @ t=0.7
1.1656642752515651
% es.EY (V/m) @ t=0.7
0.33106269709512404
% es.EZ (V/m) @ t=0.7
1.184366196954132
% es.tEX (V/m) @ t=0.7
1.1656642752515438
% es.tEY (V/m) @ t=0.7
0
% es.tEZ (V/m) @ t=0.7
1.184366196954116
% es.Ex (V/m) @ t=0.7
1.1656642752515651
% es.Ey (V/m) @ t=0.7
0.33106269709512404
% es.Ez (V/m) @ t=0.7
1.184366196954132
% es.tEx (V/m) @ t=0.7
1.1656642752515438
% es.tEy (V/m) @ t=0.7
0
% es.tEz (V/m) @ t=0.7
1.184366196954116
% V (V) @ t=0.7
0.01609804263072586
% es.normE (V/m) @ t=0.72
1.7320222868975388
% es.EX (V/m) @ t=0.72
1.1760662116159395
% es.EY (V/m) @ t=0.72
0.33401694581796093
% es.EZ (V/m) @ t=0.72
1.19493502219232
% es.tEX (V/m) @ t=0.72
1.1760662116159324
% es.tEY (V/m) @ t=0.72
0
% es.tEZ (V/m) @ t=0.72
1.194935022192304
% es.Ex (V/m) @ t=0.72
1.1760662116159395
% es.Ey (V/m) @ t=0.72
0.33401694581796093
% es.Ez (V/m) @ t=0.72
1.19493502219232
% es.tEx (V/m) @ t=0.72
1.1760662116159324
% es.tEy (V/m) @ t=0.72
0
% es.tEz (V/m) @ t=0.72
1.194935022192304
% V (V) @ t=0.72
0.016241696348069046
% es.normE (V/m) @ t=0.74
1.7473414712409503
% es.EX (V/m) @ t=0.74
1.1864681479804062
% es.EY (V/m) @ t=0.74
0.3369711945408014
% es.EZ (V/m) @ t=0.74
1.2055038474305526
% es.tEX (V/m) @ t=0.74
1.1864681479804062
% es.tEY (V/m) @ t=0.74
0
% es.tEZ (V/m) @ t=0.74
1.2055038474305348
% es.Ex (V/m) @ t=0.74
1.1864681479804062
% es.Ey (V/m) @ t=0.74
0.3369711945408014
% es.Ez (V/m) @ t=0.74
1.2055038474305526
% es.tEx (V/m) @ t=0.74
1.1864681479804062
% es.tEy (V/m) @ t=0.74
0
% es.tEz (V/m) @ t=0.74
1.2055038474305348
% V (V) @ t=0.74
0.016385350065412238
% es.normE (V/m) @ t=0.76
1.762660655584292
% es.EX (V/m) @ t=0.76
1.1968700843448374
% es.EY (V/m) @ t=0.76
0.3399254432635672
% es.EZ (V/m) @ t=0.76
1.2160726726687443
% es.tEX (V/m) @ t=0.76
1.1968700843448232
% es.tEY (V/m) @ t=0.76
0
% es.tEZ (V/m) @ t=0.76
1.216072672668723
% es.Ex (V/m) @ t=0.76
1.1968700843448374
% es.Ey (V/m) @ t=0.76
0.3399254432635672
% es.Ez (V/m) @ t=0.76
1.2160726726687443
% es.tEx (V/m) @ t=0.76
1.1968700843448232
% es.tEy (V/m) @ t=0.76
0
% es.tEz (V/m) @ t=0.76
1.216072672668723
% V (V) @ t=0.76
0.01652900378275542
% es.normE (V/m) @ t=0.78
1.7788160746739496
% es.EX (V/m) @ t=0.78
1.2078398325863944
% es.EY (V/m) @ t=0.78
0.34304096890799585
% es.EZ (V/m) @ t=0.78
1.2272184196784899
% es.tEX (V/m) @ t=0.78
1.2078398325863873
% es.tEY (V/m) @ t=0.78
0
% es.tEZ (V/m) @ t=0.78
1.2272184196784721
% es.Ex (V/m) @ t=0.78
1.2078398325863944
% es.Ey (V/m) @ t=0.78
0.34304096890799585
% es.Ez (V/m) @ t=0.78
1.2272184196784899
% es.tEx (V/m) @ t=0.78
1.2078398325863873
% es.tEy (V/m) @ t=0.78
0
% es.tEz (V/m) @ t=0.78
1.2272184196784721
% V (V) @ t=0.78
0.016680498644840603
% es.normE (V/m) @ t=0.8
1.795823676852648
% es.EX (V/m) @ t=0.8
1.2193882217916396
% es.EY (V/m) @ t=0.8
0.3463208472845558
% es.EZ (V/m) @ t=0.8
1.2389520912866292
% es.tEX (V/m) @ t=0.8
1.2193882217916325
% es.tEY (V/m) @ t=0.8
0
% es.tEZ (V/m) @ t=0.8
1.2389520912866132
% es.Ex (V/m) @ t=0.8
1.2193882217916396
% es.Ey (V/m) @ t=0.8
0.3463208472845558
% es.Ez (V/m) @ t=0.8
1.2389520912866292
% es.tEx (V/m) @ t=0.8
1.2193882217916325
% es.tEy (V/m) @ t=0.8
0
% es.tEz (V/m) @ t=0.8
1.2389520912866132
% V (V) @ t=0.8
0.01683998419492072
% es.normE (V/m) @ t=0.82
1.8128312790313195
% es.EX (V/m) @ t=0.82
1.2309366109968352
% es.EY (V/m) @ t=0.82
0.34960072566115485
% es.EZ (V/m) @ t=0.82
1.2506857628947525
% es.tEX (V/m) @ t=0.82
1.230936610996821
% es.tEY (V/m) @ t=0.82
0
% es.tEZ (V/m) @ t=0.82
1.250685762894733
% es.Ex (V/m) @ t=0.82
1.2309366109968352
% es.Ey (V/m) @ t=0.82
0.34960072566115485
% es.Ez (V/m) @ t=0.82
1.2506857628947525
% es.tEx (V/m) @ t=0.82
1.230936610996821
% es.tEy (V/m) @ t=0.82
0
% es.tEz (V/m) @ t=0.82
1.250685762894733
% V (V) @ t=0.82
0.01699946974500084
% es.normE (V/m) @ t=0.84
1.8298388812100082
% es.EX (V/m) @ t=0.84
1.2424850002020662
% es.EY (V/m) @ t=0.84
0.352880604037761
% es.EZ (V/m) @ t=0.84
1.262419434502874
% es.tEX (V/m) @ t=0.84
1.2424850002020378
% es.tEY (V/m) @ t=0.84
0
% es.tEZ (V/m) @ t=0.84
1.2624194345028528
% es.Ex (V/m) @ t=0.84
1.2424850002020662
% es.Ey (V/m) @ t=0.84
0.352880604037761
% es.Ez (V/m) @ t=0.84
1.262419434502874
% es.tEx (V/m) @ t=0.84
1.2424850002020378
% es.tEy (V/m) @ t=0.84
0
% es.tEz (V/m) @ t=0.84
1.2624194345028528
% V (V) @ t=0.84
0.017158955295080953
% es.normE (V/m) @ t=0.86
1.8468464833887
% es.EX (V/m) @ t=0.86
1.2540333894072901
% es.EY (V/m) @ t=0.86
0.3561604824143352
% es.EZ (V/m) @ t=0.86
1.274153106111024
% es.tEX (V/m) @ t=0.86
1.254033389407283
% es.tEY (V/m) @ t=0.86
0
% es.tEZ (V/m) @ t=0.86
1.2741531061110152
% es.Ex (V/m) @ t=0.86
1.2540333894072901
% es.Ey (V/m) @ t=0.86
0.3561604824143352
% es.Ez (V/m) @ t=0.86
1.274153106111024
% es.tEx (V/m) @ t=0.86
1.254033389407283
% es.tEy (V/m) @ t=0.86
0
% es.tEz (V/m) @ t=0.86
1.2741531061110152
% V (V) @ t=0.86
0.01731844084516107
% es.normE (V/m) @ t=0.88
1.8638540855674506
% es.EX (V/m) @ t=0.88
1.265581778612578
% es.EY (V/m) @ t=0.88
0.35944036079089514
% es.EZ (V/m) @ t=0.88
1.2858867777191847
% es.tEX (V/m) @ t=0.88
1.2655817786125567
% es.tEY (V/m) @ t=0.88
0
% es.tEZ (V/m) @ t=0.88
1.2858867777191563
% es.Ex (V/m) @ t=0.88
1.265581778612578
% es.Ey (V/m) @ t=0.88
0.35944036079089514
% es.Ez (V/m) @ t=0.88
1.2858867777191847
% es.tEx (V/m) @ t=0.88
1.2655817786125567
% es.tEy (V/m) @ t=0.88
0
% es.tEz (V/m) @ t=0.88
1.2858867777191563
% V (V) @ t=0.88
0.01747792639524119
% es.normE (V/m) @ t=0.9
1.8808616877461364
% es.EX (V/m) @ t=0.9
1.2771301678178233
% es.EY (V/m) @ t=0.9
0.36272023916745155
% es.EZ (V/m) @ t=0.9
1.2976204493273062
% es.tEX (V/m) @ t=0.9
1.277130167817802
% es.tEY (V/m) @ t=0.9
0
% es.tEZ (V/m) @ t=0.9
1.2976204493272974
% es.Ex (V/m) @ t=0.9
1.2771301678178233
% es.Ey (V/m) @ t=0.9
0.36272023916745155
% es.Ez (V/m) @ t=0.9
1.2976204493273062
% es.tEx (V/m) @ t=0.9
1.277130167817802
% es.tEy (V/m) @ t=0.9
0
% es.tEz (V/m) @ t=0.9
1.2976204493272974
% V (V) @ t=0.9
0.017637411945321303
% es.normE (V/m) @ t=0.92
1.8978692899248322
% es.EX (V/m) @ t=0.92
1.2886785570230614
% es.EY (V/m) @ t=0.92
0.36600011754403283
% es.EZ (V/m) @ t=0.92
1.3093541209354367
% es.tEX (V/m) @ t=0.92
1.2886785570230472
% es.tEY (V/m) @ t=0.92
0
% es.tEZ (V/m) @ t=0.92
1.3093541209354242
% es.Ex (V/m) @ t=0.92
1.2886785570230614
% es.Ey (V/m) @ t=0.92
0.36600011754403283
% es.Ez (V/m) @ t=0.92
1.3093541209354367
% es.tEx (V/m) @ t=0.92
1.2886785570230472
% es.tEy (V/m) @ t=0.92
0
% es.tEz (V/m) @ t=0.92
1.3093541209354242
% V (V) @ t=0.92
0.01779689749540142
% es.normE (V/m) @ t=0.94
1.914876892103508
% es.EX (V/m) @ t=0.94
1.3002269462282428
% es.EY (V/m) @ t=0.94
0.36927999592061056
% es.EZ (V/m) @ t=0.94
1.321087792543592
% es.tEX (V/m) @ t=0.94
1.3002269462282356
% es.tEY (V/m) @ t=0.94
0
% es.tEZ (V/m) @ t=0.94
1.3210877925435653
% es.Ex (V/m) @ t=0.94
1.3002269462282428
% es.Ey (V/m) @ t=0.94
0.36927999592061056
% es.Ez (V/m) @ t=0.94
1.321087792543592
% es.tEx (V/m) @ t=0.94
1.3002269462282356
% es.tEy (V/m) @ t=0.94
0
% es.tEz (V/m) @ t=0.94
1.3210877925435653
% V (V) @ t=0.94
0.01795638304548154
% es.normE (V/m) @ t=0.96
1.9318844942822342
% es.EX (V/m) @ t=0.96
1.3117753354335306
% es.EY (V/m) @ t=0.96
0.37255987429714565
% es.EZ (V/m) @ t=0.96
1.3328214641517313
% es.tEX (V/m) @ t=0.96
1.3117753354335377
% es.tEY (V/m) @ t=0.96
0
% es.tEZ (V/m) @ t=0.96
1.3328214641517206
% es.Ex (V/m) @ t=0.96
1.3117753354335306
% es.Ey (V/m) @ t=0.96
0.37255987429714565
% es.Ez (V/m) @ t=0.96
1.3328214641517313
% es.tEx (V/m) @ t=0.96
1.3117753354335377
% es.tEy (V/m) @ t=0.96
0
% es.tEz (V/m) @ t=0.96
1.3328214641517206
% V (V) @ t=0.96
0.018115868595561656
% es.normE (V/m) @ t=0.98
1.9488920964609762
% es.EX (V/m) @ t=0.98
1.3233237246388114
% es.EY (V/m) @ t=0.98
0.37583975267372693
% es.EZ (V/m) @ t=0.98
1.3445551357598866
% es.tEX (V/m) @ t=0.98
1.323323724638783
% es.tEY (V/m) @ t=0.98
0
% es.tEZ (V/m) @ t=0.98
1.3445551357598617
% es.Ex (V/m) @ t=0.98
1.3233237246388114
% es.Ey (V/m) @ t=0.98
0.37583975267372693
% es.Ez (V/m) @ t=0.98
1.3445551357598866
% es.tEx (V/m) @ t=0.98
1.323323724638783
% es.tEy (V/m) @ t=0.98
0
% es.tEz (V/m) @ t=0.98
1.3445551357598617
% V (V) @ t=0.98
0.018275354145641774
% es.normE (V/m) @ t=1
1.9658996986396233
% es.EX (V/m) @ t=1
1.3348721138439927
% es.EY (V/m) @ t=1
0.37911963105028335
% es.EZ (V/m) @ t=1
1.3562888073680135
% es.tEX (V/m) @ t=1
1.3348721138440283
% es.tEY (V/m) @ t=1
0
% es.tEZ (V/m) @ t=1
1.3562888073679886
% es.Ex (V/m) @ t=1
1.3348721138439927
% es.Ey (V/m) @ t=1
0.37911963105028335
% es.Ez (V/m) @ t=1
1.3562888073680135
% es.tEx (V/m) @ t=1
1.3348721138440283
% es.tEy (V/m) @ t=1
0
% es.tEz (V/m) @ t=1
1.3562888073679886
% V (V) @ t=1
0.01843483969572189
% es.normE (V/m) @ t=1.02
1.9829073008183074
% es.EX (V/m) @ t=1.02
1.3464205030492309
% es.EY (V/m) @ t=1.02
0.3823995094268966
% es.EZ (V/m) @ t=1.02
1.3680224789761244
% es.tEX (V/m) @ t=1.02
1.346420503049245
% es.tEY (V/m) @ t=1.02
0
% es.tEZ (V/m) @ t=1.02
1.3680224789761013
% es.Ex (V/m) @ t=1.02
1.3464205030492309
% es.Ey (V/m) @ t=1.02
0.3823995094268966
% es.Ez (V/m) @ t=1.02
1.3680224789761244
% es.tEx (V/m) @ t=1.02
1.346420503049245
% es.tEy (V/m) @ t=1.02
0
% es.tEz (V/m) @ t=1.02
1.3680224789761013
% V (V) @ t=1.02
0.018594325245802006
% es.normE (V/m) @ t=1.04
2.000457022204141
% es.EX (V/m) @ t=1.04
1.3583369952240787
% es.EY (V/m) @ t=1.04
0.3857839477902232
% es.EZ (V/m) @ t=1.04
1.3801301590196413
% es.tEX (V/m) @ t=1.04
1.3583369952241071
% es.tEY (V/m) @ t=1.04
0
% es.tEZ (V/m) @ t=1.04
1.3801301590196147
% es.Ex (V/m) @ t=1.04
1.3583369952240787
% es.Ey (V/m) @ t=1.04
0.3857839477902232
% es.Ez (V/m) @ t=1.04
1.3801301590196413
% es.tEx (V/m) @ t=1.04
1.3583369952241071
% es.tEy (V/m) @ t=1.04
0