% Model:              1 neuron.mph
% Version:            COMSOL 6.1.0.252
% Date:               Mar 22 2023, 18:30
% Dimension:          0
% Nodes:              14017
% Expressions:        14017
% Description:        Electric field norm, Electric field, X component, Electric field, Y component, Electric field, Z component, Tangential electric field, X component, Tangential electric field, Y component, Tangential electric field, Z component, Electric field, x component, Electric field, y component, Electric field, z component, Tangential electric field, x component, Tangential electric field, y component, Tangential electric field, z component, Electric potential
% Length unit:        mm
% x
2
% y
12.2
% z
1
% es.normE (V/m) @ t=0
1.4081614552293062
% es.EX (V/m) @ t=0
-0.9093714176245831
% es.EY (V/m) @ t=0
0.2020407313080892
% es.EZ (V/m) @ t=0
1.0371032951218533
% es.tEX (V/m) @ t=0
-0.9093714176245804
% es.tEY (V/m) @ t=0
0
% es.tEZ (V/m) @ t=0
1.0371032951218604
% es.Ex (V/m) @ t=0
-0.9093714176245831
% es.Ey (V/m) @ t=0
0.2020407313080892
% es.Ez (V/m) @ t=0
1.0371032951218533
% es.tEx (V/m) @ t=0
-0.9093714176245804
% es.tEy (V/m) @ t=0
0
% es.tEz (V/m) @ t=0
1.0371032951218604
% V (V) @ t=0
0.013628248863068407
% es.normE (V/m) @ t=0.02
1.2162362743735606
% es.EX (V/m) @ t=0.02
-0.7854287594734584
% es.EY (V/m) @ t=0.02
0.1745036164505238
% es.EZ (V/m) @ t=0.02
0.8957514375262265
% es.tEX (V/m) @ t=0.02
-0.7854287594734557
% es.tEY (V/m) @ t=0.02
0
% es.tEZ (V/m) @ t=0.02
0.8957514375262274
% es.Ex (V/m) @ t=0.02
-0.7854287594734584
% es.Ey (V/m) @ t=0.02
0.1745036164505238
% es.Ez (V/m) @ t=0.02
0.8957514375262265
% es.tEx (V/m) @ t=0.02
-0.7854287594734557
% es.tEy (V/m) @ t=0.02
0
% es.tEz (V/m) @ t=0.02
0.8957514375262274
% V (V) @ t=0.02
0.011770788467410007
% es.normE (V/m) @ t=0.04
1.227417629954381
% es.EX (V/m) @ t=0.04
-0.792649525993872
% es.EY (V/m) @ t=0.04
0.1761078994305023
% es.EZ (V/m) @ t=0.04
0.9039864454225262
% es.tEX (V/m) @ t=0.04
-0.7926495259938728
% es.tEY (V/m) @ t=0.04
0
% es.tEZ (V/m) @ t=0.04
0.9039864454225333
% es.Ex (V/m) @ t=0.04
-0.792649525993872
% es.Ey (V/m) @ t=0.04
0.1761078994305023
% es.Ez (V/m) @ t=0.04
0.9039864454225262
% es.tEx (V/m) @ t=0.04
-0.7926495259938728
% es.tEy (V/m) @ t=0.04
0
% es.tEz (V/m) @ t=0.04
0.9039864454225333
% V (V) @ t=0.04
0.011879002116463767
% es.normE (V/m) @ t=0.06
1.2386800522496617
% es.EX (V/m) @ t=0.06
-0.7999226445764034
% es.EY (V/m) @ t=0.06
0.17772381305477059
% es.EZ (V/m) @ t=0.06
0.9122811585638191
% es.tEX (V/m) @ t=0.06
-0.7999226445763972
% es.tEY (V/m) @ t=0.06
0
% es.tEZ (V/m) @ t=0.06
0.9122811585638164
% es.Ex (V/m) @ t=0.06
-0.7999226445764034
% es.Ey (V/m) @ t=0.06
0.17772381305477059
% es.Ez (V/m) @ t=0.06
0.9122811585638191
% es.tEx (V/m) @ t=0.06
-0.7999226445763972
% es.tEy (V/m) @ t=0.06
0
% es.tEz (V/m) @ t=0.06
0.9122811585638164
% V (V) @ t=0.06
0.011988000356522588
% es.normE (V/m) @ t=0.08
1.2501592192945106
% es.EX (V/m) @ t=0.08
-0.8073357337499787
% es.EY (V/m) @ t=0.08
0.17937082535267423
% es.EZ (V/m) @ t=0.08
0.9207355030058579
% es.tEX (V/m) @ t=0.08
-0.8073357337499725
% es.tEY (V/m) @ t=0.08
0
% es.tEZ (V/m) @ t=0.08
0.9207355030058588
% es.Ex (V/m) @ t=0.08
-0.8073357337499787
% es.Ey (V/m) @ t=0.08
0.17937082535267423
% es.Ez (V/m) @ t=0.08
0.9207355030058579
% es.tEx (V/m) @ t=0.08
-0.8073357337499725
% es.tEy (V/m) @ t=0.08
0
% es.tEz (V/m) @ t=0.08
0.9207355030058588
% V (V) @ t=0.08
0.012099096244777651
% es.normE (V/m) @ t=0.1
1.2616955427793577
% es.EX (V/m) @ t=0.1
-0.8147857337170223
% es.EY (V/m) @ t=0.1
0.18102603849273724
% es.EZ (V/m) @ t=0.1
0.9292319428475881
% es.tEX (V/m) @ t=0.1
-0.8147857337170232
% es.tEY (V/m) @ t=0.1
0
% es.tEZ (V/m) @ t=0.1
0.9292319428475961
% es.Ex (V/m) @ t=0.1
-0.8147857337170223
% es.Ey (V/m) @ t=0.1
0.18102603849273724
% es.Ez (V/m) @ t=0.1
0.9292319428475881
% es.tEx (V/m) @ t=0.1
-0.8147857337170232
% es.tEy (V/m) @ t=0.1
0
% es.tEz (V/m) @ t=0.1
0.9292319428475961
% V (V) @ t=0.1
0.012210745291083585
% es.normE (V/m) @ t=0.12
1.2732318662641968
% es.EX (V/m) @ t=0.12
-0.8222357336840633
% es.EY (V/m) @ t=0.12
0.18268125163277538
% es.EZ (V/m) @ t=0.12
0.9377283826893104
% es.tEX (V/m) @ t=0.12
-0.8222357336840602
% es.tEY (V/m) @ t=0.12
0
% es.tEZ (V/m) @ t=0.12
0.9377283826893112
% es.Ex (V/m) @ t=0.12
-0.8222357336840633
% es.Ey (V/m) @ t=0.12
0.18268125163277538
% es.Ez (V/m) @ t=0.12
0.9377283826893104
% es.tEx (V/m) @ t=0.12
-0.8222357336840602
% es.tEy (V/m) @ t=0.12
0
% es.tEz (V/m) @ t=0.12
0.9377283826893112
% V (V) @ t=0.12
0.01232239433738952
% es.normE (V/m) @ t=0.14
1.2851083003040136
% es.EX (V/m) @ t=0.14
-0.8299053722739065
% es.EY (V/m) @ t=0.14
0.1843852635669655
% es.EZ (V/m) @ t=0.14
0.9464753120988796
% es.tEX (V/m) @ t=0.14
-0.8299053722739069
% es.tEY (V/m) @ t=0.14
0
% es.tEZ (V/m) @ t=0.14
0.9464753120988876
% es.Ex (V/m) @ t=0.14
-0.8299053722739065
% es.Ey (V/m) @ t=0.14
0.1843852635669655
% es.Ez (V/m) @ t=0.14
0.9464753120988796
% es.tEx (V/m) @ t=0.14
-0.8299053722739069
% es.tEy (V/m) @ t=0.14
0
% es.tEz (V/m) @ t=0.14
0.9464753120988876
% V (V) @ t=0.14
0.012437334979134757
% es.normE (V/m) @ t=0.16
1.297222155263083
% es.EX (V/m) @ t=0.16
-0.8377283339610955
% es.EY (V/m) @ t=0.16
0.18612334046733892
% es.EZ (V/m) @ t=0.16
0.9553971007199351
% es.tEX (V/m) @ t=0.16
-0.8377283339610964
% es.tEY (V/m) @ t=0.16
0
% es.tEZ (V/m) @ t=0.16
0.9553971007199502
% es.Ex (V/m) @ t=0.16
-0.8377283339610955
% es.Ey (V/m) @ t=0.16
0.18612334046733892
% es.Ez (V/m) @ t=0.16
0.9553971007199351
% es.tEx (V/m) @ t=0.16
-0.8377283339610964
% es.tEy (V/m) @ t=0.16
0
% es.tEz (V/m) @ t=0.16
0.9553971007199502
% V (V) @ t=0.16
0.012554573384367626
% es.normE (V/m) @ t=0.18
1.3093360102221672
% es.EX (V/m) @ t=0.18
-0.8455512956482933
% es.EY (V/m) @ t=0.18
0.187861417367709
% es.EZ (V/m) @ t=0.18
0.9643188893410075
% es.tEX (V/m) @ t=0.18
-0.8455512956482902
% es.tEY (V/m) @ t=0.18
0
% es.tEZ (V/m) @ t=0.18
0.964318889341012
% es.Ex (V/m) @ t=0.18
-0.8455512956482933
% es.Ey (V/m) @ t=0.18
0.187861417367709
% es.Ez (V/m) @ t=0.18
0.9643188893410075
% es.tEx (V/m) @ t=0.18
-0.8455512956482902
% es.tEy (V/m) @ t=0.18
0
% es.tEz (V/m) @ t=0.18
0.964318889341012
% V (V) @ t=0.18
0.012671811789600487
% es.normE (V/m) @ t=0.2
1.3214498651812447
% es.EX (V/m) @ t=0.2
-0.8533742573354797
% es.EY (V/m) @ t=0.2
0.1895994942680843
% es.EZ (V/m) @ t=0.2
0.9732406779620799
% es.tEX (V/m) @ t=0.2
-0.8533742573354801
% es.tEY (V/m) @ t=0.2
0
% es.tEZ (V/m) @ t=0.2
0.9732406779620808
% es.Ex (V/m) @ t=0.2
-0.8533742573354797
% es.Ey (V/m) @ t=0.2
0.1895994942680843
% es.Ez (V/m) @ t=0.2
0.9732406779620799
% es.tEx (V/m) @ t=0.2
-0.8533742573354801
% es.tEy (V/m) @ t=0.2
0
% es.tEz (V/m) @ t=0.2
0.9732406779620808
% V (V) @ t=0.2
0.012789050194833349
% es.normE (V/m) @ t=0.22
1.3335637201403143
% es.EX (V/m) @ t=0.22
-0.8611972190226833
% es.EY (V/m) @ t=0.22
0.19133757116847372
% es.EZ (V/m) @ t=0.22
0.9821624665831203
% es.tEX (V/m) @ t=0.22
-0.8611972190226802
% es.tEY (V/m) @ t=0.22
0
% es.tEZ (V/m) @ t=0.22
0.9821624665831283
% es.Ex (V/m) @ t=0.22
-0.8611972190226833
% es.Ey (V/m) @ t=0.22
0.19133757116847372
% es.Ez (V/m) @ t=0.22
0.9821624665831203
% es.tEx (V/m) @ t=0.22
-0.8611972190226802
% es.tEy (V/m) @ t=0.22
0
% es.tEz (V/m) @ t=0.22
0.9821624665831283
% V (V) @ t=0.22
0.012906288600066214
% es.normE (V/m) @ t=0.24
1.3456775750993994
% es.EX (V/m) @ t=0.24
-0.8690201807098696
% es.EY (V/m) @ t=0.24
0.19307564806885613
% es.EZ (V/m) @ t=0.24
0.9910842552042007
% es.tEX (V/m) @ t=0.24
-0.869020180709867
% es.tEY (V/m) @ t=0.24
0
% es.tEZ (V/m) @ t=0.24
0.9910842552042052
% es.Ex (V/m) @ t=0.24
-0.8690201807098696
% es.Ey (V/m) @ t=0.24
0.19307564806885613
% es.Ez (V/m) @ t=0.24
0.9910842552042007
% es.tEx (V/m) @ t=0.24
-0.869020180709867
% es.tEy (V/m) @ t=0.24
0
% es.tEz (V/m) @ t=0.24
0.9910842552042052
% V (V) @ t=0.24
0.013023527005299075
% es.normE (V/m) @ t=0.26
1.3580288142687027
% es.EX (V/m) @ t=0.26
-0.876996441983704
% es.EY (V/m) @ t=0.26
0.19484778422909887
% es.EZ (V/m) @ t=0.26
1.0001808760246993
% es.tEX (V/m) @ t=0.26
-0.876996441983704
% es.tEY (V/m) @ t=0.26
0
% es.tEZ (V/m) @ t=0.26
1.0001808760247073
% es.Ex (V/m) @ t=0.26
-0.876996441983704
% es.Ey (V/m) @ t=0.26
0.19484778422909887
% es.Ez (V/m) @ t=0.26
1.0001808760246993
% es.tEx (V/m) @ t=0.26
-0.876996441983704
% es.tEy (V/m) @ t=0.26
0
% es.tEz (V/m) @ t=0.26
1.0001808760247073
% V (V) @ t=0.26
0.013143062833820045
% es.normE (V/m) @ t=0.28
1.3714323621115825
% es.EX (V/m) @ t=0.28
-0.8856522702957772
% es.EY (V/m) @ t=0.28
0.19677090286013477
% es.EZ (V/m) @ t=0.28
1.0100525165472964
% es.tEX (V/m) @ t=0.28
-0.8856522702957741
% es.tEY (V/m) @ t=0.28
0
% es.tEZ (V/m) @ t=0.28
1.0100525165473115
% es.Ex (V/m) @ t=0.28
-0.8856522702957772
% es.Ey (V/m) @ t=0.28
0.19677090286013477
% es.Ez (V/m) @ t=0.28
1.0100525165472964
% es.tEx (V/m) @ t=0.28
-0.8856522702957741
% es.tEy (V/m) @ t=0.28
0
% es.tEz (V/m) @ t=0.28
1.0100525165473115
% V (V) @ t=0.28
0.013272782989472381
% es.normE (V/m) @ t=0.3
1.3848359099544685
% es.EX (V/m) @ t=0.3
-0.8943080986078611
% es.EY (V/m) @ t=0.3
0.1986940214911761
% es.EZ (V/m) @ t=0.3
1.0199241570698936
% es.tEX (V/m) @ t=0.3
-0.8943080986078584
% es.tEY (V/m) @ t=0.3
0
% es.tEZ (V/m) @ t=0.3
1.0199241570699087
% es.Ex (V/m) @ t=0.3
-0.8943080986078611
% es.Ey (V/m) @ t=0.3
0.1986940214911761
% es.Ez (V/m) @ t=0.3
1.0199241570698936
% es.tEx (V/m) @ t=0.3
-0.8943080986078584
% es.tEy (V/m) @ t=0.3
0
% es.tEz (V/m) @ t=0.3
1.0199241570699087
% V (V) @ t=0.3
0.013402503145124717
% es.normE (V/m) @ t=0.32
1.3982394577973412
% es.EX (V/m) @ t=0.32
-0.9029639269199312
% es.EY (V/m) @ t=0.32
0.200617140122196
% es.EZ (V/m) @ t=0.32
1.0297957975924907
% es.tEX (V/m) @ t=0.32
-0.9029639269199317
% es.tEY (V/m) @ t=0.32
0
% es.tEZ (V/m) @ t=0.32
1.0297957975924987
% es.Ex (V/m) @ t=0.32
-0.9029639269199312
% es.Ey (V/m) @ t=0.32
0.200617140122196
% es.Ez (V/m) @ t=0.32
1.0297957975924907
% es.tEx (V/m) @ t=0.32
-0.9029639269199317
% es.tEy (V/m) @ t=0.32
0
% es.tEz (V/m) @ t=0.32
1.0297957975924987
% V (V) @ t=0.32
0.013532223300777052
% es.normE (V/m) @ t=0.34
1.4116430056402138
% es.EX (V/m) @ t=0.34
-0.911619755232012
% es.EY (V/m) @ t=0.34
0.20254025875324444
% es.EZ (V/m) @ t=0.34
1.0396674381150666
% es.tEX (V/m) @ t=0.34
-0.9116197552320089
% es.tEY (V/m) @ t=0.34
0
% es.tEZ (V/m) @ t=0.34
1.0396674381150746
% es.Ex (V/m) @ t=0.34
-0.911619755232012
% es.Ey (V/m) @ t=0.34
0.20254025875324444
% es.Ez (V/m) @ t=0.34
1.0396674381150666
% es.tEx (V/m) @ t=0.34
-0.9116197552320089
% es.tEy (V/m) @ t=0.34
0
% es.tEz (V/m) @ t=0.34
1.0396674381150746
% V (V) @ t=0.34
0.013661943456429388
% es.normE (V/m) @ t=0.36
1.4250465534830945
% es.EX (V/m) @ t=0.36
-0.9202755835440888
% es.EY (V/m) @ t=0.36
0.20446337738427856
% es.EZ (V/m) @ t=0.36
1.0495390786376637
% es.tEX (V/m) @ t=0.36
-0.9202755835440857
% es.tEY (V/m) @ t=0.36
0
% es.tEZ (V/m) @ t=0.36
1.0495390786376788
% es.Ex (V/m) @ t=0.36
-0.9202755835440888
% es.Ey (V/m) @ t=0.36
0.20446337738427856
% es.Ez (V/m) @ t=0.36
1.0495390786376637
% es.tEx (V/m) @ t=0.36
-0.9202755835440857
% es.tEy (V/m) @ t=0.36
0
% es.tEz (V/m) @ t=0.36
1.0495390786376788
% V (V) @ t=0.36
0.013791663612081721
% es.normE (V/m) @ t=0.38
1.4384501013259758
% es.EX (V/m) @ t=0.38
-0.9289314118561696
% es.EY (V/m) @ t=0.38
0.20638649601531278
% es.EZ (V/m) @ t=0.38
1.0594107191602573
% es.tEX (V/m) @ t=0.38
-0.92893141185617
% es.tEY (V/m) @ t=0.38
0
% es.tEZ (V/m) @ t=0.38
1.0594107191602617
% es.Ex (V/m) @ t=0.38
-0.9289314118561696
% es.Ey (V/m) @ t=0.38
0.20638649601531278
% es.Ez (V/m) @ t=0.38
1.0594107191602573
% es.tEx (V/m) @ t=0.38
-0.92893141185617
% es.tEy (V/m) @ t=0.38
0
% es.tEz (V/m) @ t=0.38
1.0594107191602617
% V (V) @ t=0.38
0.013921383767734058
% es.normE (V/m) @ t=0.4
1.4518536491688478
% es.EX (V/m) @ t=0.4
-0.9375872401682428
% es.EY (V/m) @ t=0.4
0.20830961464634157
% es.EZ (V/m) @ t=0.4
1.0692823596828473
% es.tEX (V/m) @ t=0.4
-0.9375872401682392
% es.tEY (V/m) @ t=0.4
0
% es.tEZ (V/m) @ t=0.4
1.069282359682859
% es.Ex (V/m) @ t=0.4
-0.9375872401682428
% es.Ey (V/m) @ t=0.4
0.20830961464634157
% es.Ez (V/m) @ t=0.4
1.0692823596828473
% es.tEx (V/m) @ t=0.4
-0.9375872401682392
% es.tEy (V/m) @ t=0.4
0
% es.tEz (V/m) @ t=0.4
1.069282359682859
% V (V) @ t=0.4
0.014051103923386394
% es.normE (V/m) @ t=0.42
1.4652571970117179
% es.EX (V/m) @ t=0.42
-0.9462430684803165
% es.EY (V/m) @ t=0.42
0.2102327332773669
% es.EZ (V/m) @ t=0.42
1.0791540002054338
% es.tEX (V/m) @ t=0.42
-0.9462430684803165
% es.tEY (V/m) @ t=0.42
0
% es.tEZ (V/m) @ t=0.42
1.0791540002054418
% es.Ex (V/m) @ t=0.42
-0.9462430684803165
% es.Ey (V/m) @ t=0.42
0.2102327332773669
% es.Ez (V/m) @ t=0.42
1.0791540002054338
% es.tEx (V/m) @ t=0.42
-0.9462430684803165
% es.tEy (V/m) @ t=0.42
0
% es.tEz (V/m) @ t=0.42
1.0791540002054418
% V (V) @ t=0.42
0.014180824079038732
% es.normE (V/m) @ t=0.44
1.4786607448546065
% es.EX (V/m) @ t=0.44
-0.9548988967924044
% es.EY (V/m) @ t=0.44
0.21215585190840813
% es.EZ (V/m) @ t=0.44
1.089025640728031
% es.tEX (V/m) @ t=0.44
-0.9548988967924008
% es.tEY (V/m) @ t=0.44
0
% es.tEZ (V/m) @ t=0.44
1.089025640728039
% es.Ex (V/m) @ t=0.44
-0.9548988967924044
% es.Ey (V/m) @ t=0.44
0.21215585190840813
% es.Ez (V/m) @ t=0.44
1.089025640728031
% es.tEx (V/m) @ t=0.44
-0.9548988967924008
% es.tEy (V/m) @ t=0.44
0
% es.tEz (V/m) @ t=0.44
1.089025640728039
% V (V) @ t=0.44
0.014310544234691065
% es.normE (V/m) @ t=0.46
1.4920642926974805
% es.EX (V/m) @ t=0.46
-0.9635547251044705
% es.EY (V/m) @ t=0.46
0.21407897053945302
% es.EZ (V/m) @ t=0.46
1.0988972812506246
% es.tEX (V/m) @ t=0.46
-0.9635547251044709
% es.tEY (V/m) @ t=0.46
0
% es.tEZ (V/m) @ t=0.46
1.098897281250629
% es.Ex (V/m) @ t=0.46
-0.9635547251044705
% es.Ey (V/m) @ t=0.46
0.21407897053945302
% es.Ez (V/m) @ t=0.46
1.0988972812506246
% es.tEx (V/m) @ t=0.46
-0.9635547251044709
% es.tEy (V/m) @ t=0.46
0
% es.tEz (V/m) @ t=0.46
1.098897281250629
% V (V) @ t=0.46
0.014440264390343398
% es.normE (V/m) @ t=0.48
1.5054678405403477
% es.EX (V/m) @ t=0.48
-0.9722105534165473
% es.EY (V/m) @ t=0.48
0.21600208917048713
% es.EZ (V/m) @ t=0.48
1.1087689217732004
% es.tEX (V/m) @ t=0.48
-0.9722105534165442
% es.tEY (V/m) @ t=0.48
0
% es.tEZ (V/m) @ t=0.48
1.108768921773219
% es.Ex (V/m) @ t=0.48
-0.9722105534165473
% es.Ey (V/m) @ t=0.48
0.21600208917048713
% es.Ez (V/m) @ t=0.48
1.1087689217732004
% es.tEx (V/m) @ t=0.48
-0.9722105534165442
% es.tEy (V/m) @ t=0.48
0
% es.tEz (V/m) @ t=0.48
1.108768921773219
% V (V) @ t=0.48
0.014569984545995738
% es.normE (V/m) @ t=0.5
1.5188713883832323
% es.EX (V/m) @ t=0.5
-0.9808663817286245
% es.EY (V/m) @ t=0.5
0.2179252078014965
% es.EZ (V/m) @ t=0.5
1.1186405622958082
% es.tEX (V/m) @ t=0.5
-0.9808663817286245
% es.tEY (V/m) @ t=0.5
0
% es.tEZ (V/m) @ t=0.5
1.1186405622958162
% es.Ex (V/m) @ t=0.5
-0.9808663817286245
% es.Ey (V/m) @ t=0.5
0.2179252078014965
% es.Ez (V/m) @ t=0.5
1.1186405622958082
% es.tEx (V/m) @ t=0.5
-0.9808663817286245
% es.tEy (V/m) @ t=0.5
0
% es.tEz (V/m) @ t=0.5
1.1186405622958162
% V (V) @ t=0.5
0.014699704701648076
% es.normE (V/m) @ t=0.52
1.5328178361712106
% es.EX (V/m) @ t=0.52
-0.989872807267858
% es.EY (V/m) @ t=0.52
0.21992622114130245
% es.EZ (V/m) @ t=0.52
1.1289120456767838
% es.tEX (V/m) @ t=0.52
-0.989872807267858
% es.tEY (V/m) @ t=0.52
0
% es.tEZ (V/m) @ t=0.52
1.128912045676799
% es.Ex (V/m) @ t=0.52
-0.989872807267858
% es.Ey (V/m) @ t=0.52
0.21992622114130245
% es.Ez (V/m) @ t=0.52
1.1289120456767838
% es.tEx (V/m) @ t=0.52
-0.989872807267858
% es.tEy (V/m) @ t=0.52
0
% es.tEz (V/m) @ t=0.52
1.128912045676799
% V (V) @ t=0.52
0.014834679056503488
% es.normE (V/m) @ t=0.54
1.547671515120903
% es.EX (V/m) @ t=0.54
-0.9994651100622791
% es.EY (V/m) @ t=0.54
0.22205740304669563
% es.EZ (V/m) @ t=0.54
1.139851699876706
% es.tEX (V/m) @ t=0.54
-0.999465110062276
% es.tEY (V/m) @ t=0.54
0
% es.tEZ (V/m) @ t=0.54
1.1398516998767212
% es.Ex (V/m) @ t=0.54
-0.9994651100622791
% es.Ey (V/m) @ t=0.54
0.22205740304669563
% es.Ez (V/m) @ t=0.54
1.139851699876706
% es.tEx (V/m) @ t=0.54
-0.999465110062276
% es.tEy (V/m) @ t=0.54
0
% es.tEz (V/m) @ t=0.54
1.1398516998767212
% V (V) @ t=0.54
0.014978433617159113
% es.normE (V/m) @ t=0.56
1.5625251940705929
% es.EX (V/m) @ t=0.56
-1.0090574128566936
% es.EY (V/m) @ t=0.56
0.2241885849521068
% es.EZ (V/m) @ t=0.56
1.1507913540766266
% es.tEX (V/m) @ t=0.56
-1.0090574128566905
% es.tEY (V/m) @ t=0.56
0
% es.tEZ (V/m) @ t=0.56
1.1507913540766346
% es.Ex (V/m) @ t=0.56
-1.0090574128566936
% es.Ey (V/m) @ t=0.56
0.2241885849521068
% es.Ez (V/m) @ t=0.56
1.1507913540766266
% es.tEx (V/m) @ t=0.56
-1.0090574128566905
% es.tEy (V/m) @ t=0.56
0
% es.tEz (V/m) @ t=0.56
1.1507913540766346
% V (V) @ t=0.56
0.015122188177814735
% es.normE (V/m) @ t=0.58
1.5773788730202711
% es.EX (V/m) @ t=0.58
-1.0186497156511116
% es.EY (V/m) @ t=0.58
0.22631976685748412
% es.EZ (V/m) @ t=0.58
1.1617310082765409
% es.tEX (V/m) @ t=0.58
-1.0186497156511116
% es.tEY (V/m) @ t=0.58
0
% es.tEZ (V/m) @ t=0.58
1.161731008276556
% es.Ex (V/m) @ t=0.58
-1.0186497156511116
% es.Ey (V/m) @ t=0.58
0.22631976685748412
% es.Ez (V/m) @ t=0.58
1.1617310082765409
% es.tEx (V/m) @ t=0.58
-1.0186497156511116
% es.tEy (V/m) @ t=0.58
0
% es.tEz (V/m) @ t=0.58
1.161731008276556
% V (V) @ t=0.58
0.01526594273847036
% es.normE (V/m) @ t=0.6
1.5922325519699723
% es.EX (V/m) @ t=0.6
-1.0282420184455394
% es.EY (V/m) @ t=0.6
0.22845094876288086
% es.EZ (V/m) @ t=0.6
1.1726706624764676
% es.tEX (V/m) @ t=0.6
-1.0282420184455394
% es.tEY (V/m) @ t=0.6
0
% es.tEZ (V/m) @ t=0.6
1.172670662476479
% es.Ex (V/m) @ t=0.6
-1.0282420184455394
% es.Ey (V/m) @ t=0.6
0.22845094876288086
% es.Ez (V/m) @ t=0.6
1.1726706624764676
% es.tEx (V/m) @ t=0.6
-1.0282420184455394
% es.tEy (V/m) @ t=0.6
0
% es.tEz (V/m) @ t=0.6
1.172670662476479
% V (V) @ t=0.6
0.015409697299125986
% es.normE (V/m) @ t=0.62
1.607086230919664
% es.EX (V/m) @ t=0.62
-1.037834321239961
% es.EY (V/m) @ t=0.62
0.23058213066826883
% es.EZ (V/m) @ t=0.62
1.1836103166763952
% es.tEX (V/m) @ t=0.62
-1.0378343212399574
% es.tEY (V/m) @ t=0.62
0
% es.tEZ (V/m) @ t=0.62
1.1836103166764067
% es.Ex (V/m) @ t=0.62
-1.037834321239961
% es.Ey (V/m) @ t=0.62
0.23058213066826883
% es.Ez (V/m) @ t=0.62
1.1836103166763952
% es.tEx (V/m) @ t=0.62
-1.0378343212399574
% es.tEy (V/m) @ t=0.62
0
% es.tEz (V/m) @ t=0.62
1.1836103166764067
% V (V) @ t=0.62
0.015553451859781606
% es.normE (V/m) @ t=0.64
1.621939909869342
% es.EX (V/m) @ t=0.64
-1.0474266240343861
% es.EY (V/m) @ t=0.64
0.2327133125736799
% es.EZ (V/m) @ t=0.64
1.194549970876289
% es.tEX (V/m) @ t=0.64
-1.0474266240343826
% es.tEY (V/m) @ t=0.64
0
% es.tEZ (V/m) @ t=0.64
1.1945499708763005
% es.Ex (V/m) @ t=0.64
-1.0474266240343861
% es.Ey (V/m) @ t=0.64
0.2327133125736799
% es.Ez (V/m) @ t=0.64
1.194549970876289
% es.tEx (V/m) @ t=0.64
-1.0474266240343826
% es.tEy (V/m) @ t=0.64
0
% es.tEz (V/m) @ t=0.64
1.1945499708763005
% V (V) @ t=0.64
0.015697206420437235
% es.normE (V/m) @ t=0.66
1.6367935888190224
% es.EX (V/m) @ t=0.66
-1.0570189268288037
% es.EY (V/m) @ t=0.66
0.23484449447905542
% es.EZ (V/m) @ t=0.66
1.2054896250762033
% es.tEX (V/m) @ t=0.66
-1.0570189268288002
% es.tEY (V/m) @ t=0.66
0
% es.tEZ (V/m) @ t=0.66
1.2054896250762148
% es.Ex (V/m) @ t=0.66
-1.0570189268288037
% es.Ey (V/m) @ t=0.66
0.23484449447905542
% es.Ez (V/m) @ t=0.66
1.2054896250762033
% es.tEx (V/m) @ t=0.66
-1.0570189268288002
% es.tEy (V/m) @ t=0.66
0
% es.tEz (V/m) @ t=0.66
1.2054896250762148
% V (V) @ t=0.66
0.015840960981092857
% es.normE (V/m) @ t=0.68
1.6516472677687402
% es.EX (V/m) @ t=0.68
-1.0666112296232293
% es.EY (V/m) @ t=0.68
0.23697567638444705
% es.EZ (V/m) @ t=0.68
1.2164292792761628
% es.tEX (V/m) @ t=0.68
-1.0666112296232293
% es.tEY (V/m) @ t=0.68
0
% es.tEZ (V/m) @ t=0.68
1.2164292792761637
% es.Ex (V/m) @ t=0.68
-1.0666112296232293
% es.Ey (V/m) @ t=0.68
0.23697567638444705
% es.Ez (V/m) @ t=0.68
1.2164292792761628
% es.tEx (V/m) @ t=0.68
-1.0666112296232293
% es.tEy (V/m) @ t=0.68
0
% es.tEz (V/m) @ t=0.68
1.2164292792761637
% V (V) @ t=0.68
0.015984715541748483
% es.normE (V/m) @ t=0.7
1.6665009467184122
% es.EX (V/m) @ t=0.7
-1.0762035324176473
% es.EY (V/m) @ t=0.7
0.23910685828984923
% es.EZ (V/m) @ t=0.7
1.227368933476063
% es.tEX (V/m) @ t=0.7
-1.0762035324176438
% es.tEY (V/m) @ t=0.7
0
% es.tEZ (V/m) @ t=0.7
1.2273689334760718
% es.Ex (V/m) @ t=0.7
-1.0762035324176473
% es.Ey (V/m) @ t=0.7
0.23910685828984923
% es.Ez (V/m) @ t=0.7
1.227368933476063
% es.tEx (V/m) @ t=0.7
-1.0762035324176438
% es.tEy (V/m) @ t=0.7
0
% es.tEz (V/m) @ t=0.7
1.2273689334760718
% V (V) @ t=0.7
0.016128470102404105
% es.normE (V/m) @ t=0.72
1.6813546256681047
% es.EX (V/m) @ t=0.72
-1.0857958352120685
% es.EY (V/m) @ t=0.72
0.2412380401952674
% es.EZ (V/m) @ t=0.72
1.2383085876759772
% es.tEX (V/m) @ t=0.72
-1.0857958352120685
% es.tEY (V/m) @ t=0.72
0
% es.tEZ (V/m) @ t=0.72
1.2383085876759932
% es.Ex (V/m) @ t=0.72
-1.0857958352120685
% es.Ey (V/m) @ t=0.72
0.2412380401952674
% es.Ez (V/m) @ t=0.72
1.2383085876759772
% es.tEx (V/m) @ t=0.72
-1.0857958352120685
% es.tEy (V/m) @ t=0.72
0
% es.tEz (V/m) @ t=0.72
1.2383085876759932
% V (V) @ t=0.72
0.01627222466305973
% es.normE (V/m) @ t=0.74
1.6962083046178011
% es.EX (V/m) @ t=0.74
-1.0953881380064932
% es.EY (V/m) @ t=0.74
0.2433692221006447
% es.EZ (V/m) @ t=0.74
1.2492482418759057
% es.tEX (V/m) @ t=0.74
-1.0953881380064896
% es.tEY (V/m) @ t=0.74
0
% es.tEZ (V/m) @ t=0.74
1.2492482418759217
% es.Ex (V/m) @ t=0.74
-1.0953881380064932
% es.Ey (V/m) @ t=0.74
0.2433692221006447
% es.Ez (V/m) @ t=0.74
1.2492482418759057
% es.tEx (V/m) @ t=0.74
-1.0953881380064896
% es.tEy (V/m) @ t=0.74
0
% es.tEz (V/m) @ t=0.74
1.2492482418759217
% V (V) @ t=0.74
0.01641597922371536
% es.normE (V/m) @ t=0.76
1.711061983567487
% es.EX (V/m) @ t=0.76
-1.1049804408009143
% es.EY (V/m) @ t=0.76
0.2455004040060379
% es.EZ (V/m) @ t=0.76
1.2601878960758217
% es.tEX (V/m) @ t=0.76
-1.1049804408009143
% es.tEY (V/m) @ t=0.76
0
% es.tEZ (V/m) @ t=0.76
1.260187896075836
% es.Ex (V/m) @ t=0.76
-1.1049804408009143
% es.Ey (V/m) @ t=0.76
0.2455004040060379
% es.Ez (V/m) @ t=0.76
1.2601878960758217
% es.tEx (V/m) @ t=0.76
-1.1049804408009143
% es.tEy (V/m) @ t=0.76
0
% es.tEz (V/m) @ t=0.76
1.260187896075836
% V (V) @ t=0.76
0.016559733784370978
% es.normE (V/m) @ t=0.78
1.7268380365597622
% es.EX (V/m) @ t=0.78
-1.115168400124392
% es.EY (V/m) @ t=0.78
0.24776392669132885
% es.EZ (V/m) @ t=0.78
1.2718068737666215
% es.tEX (V/m) @ t=0.78
-1.1151684001243916
% es.tEY (V/m) @ t=0.78
0
% es.tEZ (V/m) @ t=0.78
1.2718068737666428
% es.Ex (V/m) @ t=0.78
-1.115168400124392
% es.Ey (V/m) @ t=0.78
0.24776392669132885
% es.Ez (V/m) @ t=0.78
1.2718068737666215
% es.tEx (V/m) @ t=0.78
-1.1151684001243916
% es.tEy (V/m) @ t=0.78
0
% es.tEz (V/m) @ t=0.78
1.2718068737666428
% V (V) @ t=0.78
0.016712415120353
% es.normE (V/m) @ t=0.8
1.743325111264034
% es.EX (V/m) @ t=0.8
-1.1258155275353459
% es.EY (V/m) @ t=0.8
0.2501294656558488
% es.EZ (V/m) @ t=0.8
1.2839495151005504
% es.tEX (V/m) @ t=0.8
-1.1258155275353419
% es.tEY (V/m) @ t=0.8
0
% es.tEZ (V/m) @ t=0.8
1.2839495151005718
% es.Ex (V/m) @ t=0.8
-1.1258155275353459
% es.Ey (V/m) @ t=0.8
0.2501294656558488
% es.Ez (V/m) @ t=0.8
1.2839495151005504
% es.tEx (V/m) @ t=0.8
-1.1258155275353419
% es.tEy (V/m) @ t=0.8
0
% es.tEz (V/m) @ t=0.8
1.2839495151005718
% V (V) @ t=0.8
0.016871977754791122
% es.normE (V/m) @ t=0.82
1.7598121859683322
% es.EX (V/m) @ t=0.82
-1.1364626549462828
% es.EY (V/m) @ t=0.82
0.2524950046203832
% es.EZ (V/m) @ t=0.82
1.2960921564345274
% es.tEX (V/m) @ t=0.82
-1.1364626549462793
% es.tEY (V/m) @ t=0.82
0
% es.tEZ (V/m) @ t=0.82
1.2960921564345487
% es.Ex (V/m) @ t=0.82
-1.1364626549462828
% es.Ey (V/m) @ t=0.82
0.2524950046203832
% es.Ez (V/m) @ t=0.82
1.2960921564345274
% es.tEx (V/m) @ t=0.82
-1.1364626549462793
% es.tEy (V/m) @ t=0.82
0
% es.tEz (V/m) @ t=0.82
1.2960921564345487
% V (V) @ t=0.82
0.017031540389229244
% es.normE (V/m) @ t=0.84
1.7762992606725982
% es.EX (V/m) @ t=0.84
-1.1471097823572256
% es.EY (V/m) @ t=0.84
0.25486054358488
% es.EZ (V/m) @ t=0.84
1.3082347977684652
% es.tEX (V/m) @ t=0.84
-1.1471097823572287
% es.tEY (V/m) @ t=0.84
0
% es.tEZ (V/m) @ t=0.84
1.3082347977684936
% es.Ex (V/m) @ t=0.84
-1.1471097823572256
% es.Ey (V/m) @ t=0.84
0.25486054358488
% es.Ez (V/m) @ t=0.84
1.3082347977684652
% es.tEx (V/m) @ t=0.84
-1.1471097823572287
% es.tEy (V/m) @ t=0.84
0
% es.tEz (V/m) @ t=0.84
1.3082347977684936
% V (V) @ t=0.84
0.017191103023667366
% es.normE (V/m) @ t=0.86
1.7927863353769078
% es.EX (V/m) @ t=0.86
-1.1577569097681684
% es.EY (V/m) @ t=0.86
0.25722608254940704
% es.EZ (V/m) @ t=0.86
1.320377439102451
% es.tEX (V/m) @ t=0.86
-1.1577569097681644
% es.tEY (V/m) @ t=0.86
0
% es.tEZ (V/m) @ t=0.86
1.3203774391024723
% es.Ex (V/m) @ t=0.86
-1.1577569097681684
% es.Ey (V/m) @ t=0.86
0.25722608254940704
% es.Ez (V/m) @ t=0.86
1.320377439102451
% es.tEx (V/m) @ t=0.86
-1.1577569097681644
% es.tEy (V/m) @ t=0.86
0
% es.tEz (V/m) @ t=0.86
1.3203774391024723
% V (V) @ t=0.86
0.017350665658105488
% es.normE (V/m) @ t=0.88
1.8092734100811705
% es.EX (V/m) @ t=0.88
-1.168404037179112
% es.EY (V/m) @ t=0.88
0.25959162151393433
% es.EZ (V/m) @ t=0.88
1.3325200804363782
% es.tEX (V/m) @ t=0.88
-1.168404037179108
% es.tEY (V/m) @ t=0.88
0
% es.tEZ (V/m) @ t=0.88
1.3325200804363782
% es.Ex (V/m) @ t=0.88
-1.168404037179112
% es.Ey (V/m) @ t=0.88
0.25959162151393433
% es.Ez (V/m) @ t=0.88
1.3325200804363782
% es.tEx (V/m) @ t=0.88
-1.168404037179108
% es.tEy (V/m) @ t=0.88
0
% es.tEz (V/m) @ t=0.88
1.3325200804363782
% V (V) @ t=0.88
0.017510228292543607
% es.normE (V/m) @ t=0.9
1.8257604847854578
% es.EX (V/m) @ t=0.9
-1.1790511645900477
% es.EY (V/m) @ t=0.9
0.2619571604784615
% es.EZ (V/m) @ t=0.9
1.3446627217703426
% es.tEX (V/m) @ t=0.9
-1.1790511645900508
% es.tEY (V/m) @ t=0.9
0
% es.tEZ (V/m) @ t=0.9
1.3446627217703497
% es.Ex (V/m) @ t=0.9
-1.1790511645900477
% es.Ey (V/m) @ t=0.9
0.2619571604784615
% es.Ez (V/m) @ t=0.9
1.3446627217703426
% es.tEx (V/m) @ t=0.9
-1.1790511645900508
% es.tEy (V/m) @ t=0.9
0
% es.tEz (V/m) @ t=0.9
1.3446627217703497
% V (V) @ t=0.9
0.017669790926981732
% es.normE (V/m) @ t=0.92
1.8422475594897327
% es.EX (V/m) @ t=0.92
-1.1896982920009984
% es.EY (V/m) @ t=0.92
0.2643226994429744
% es.EZ (V/m) @ t=0.92
1.3568053631042787
% es.tEX (V/m) @ t=0.92
-1.189698292000994
% es.tEY (V/m) @ t=0.92
0
% es.tEZ (V/m) @ t=0.92
1.3568053631043
% es.Ex (V/m) @ t=0.92
-1.1896982920009984
% es.Ey (V/m) @ t=0.92
0.2643226994429744
% es.Ez (V/m) @ t=0.92
1.3568053631042787
% es.tEx (V/m) @ t=0.92
-1.189698292000994
% es.tEy (V/m) @ t=0.92
0
% es.tEz (V/m) @ t=0.92
1.3568053631043
% V (V) @ t=0.92
0.017829353561419854
% es.normE (V/m) @ t=0.94
1.8587346341940227
% es.EX (V/m) @ t=0.94
-1.2003454194119487
% es.EY (V/m) @ t=0.94
0.26668823840748546
% es.EZ (V/m) @ t=0.94
1.3689480044382396
% es.tEX (V/m) @ t=0.94
-1.2003454194119447
% es.tEY (V/m) @ t=0.94
0
% es.tEZ (V/m) @ t=0.94
1.3689480044382574
% es.Ex (V/m) @ t=0.94
-1.2003454194119487
% es.Ey (V/m) @ t=0.94
0.26668823840748546
% es.Ez (V/m) @ t=0.94
1.3689480044382396
% es.tEx (V/m) @ t=0.94
-1.2003454194119447
% es.tEy (V/m) @ t=0.94
0
% es.tEz (V/m) @ t=0.94
1.3689480044382574
% V (V) @ t=0.94
0.01798891619585797
% es.normE (V/m) @ t=0.96
1.8752217088983067
% es.EX (V/m) @ t=0.96
-1.2109925468228777
% es.EY (V/m) @ t=0.96
0.26905377737202496
% es.EZ (V/m) @ t=0.96
1.3810906457722005
% es.tEX (V/m) @ t=0.96
-1.2109925468228808
% es.tEY (V/m) @ t=0.96
0
% es.tEZ (V/m) @ t=0.96
1.3810906457721934
% es.Ex (V/m) @ t=0.96
-1.2109925468228777
% es.Ey (V/m) @ t=0.96
0.26905377737202496
% es.Ez (V/m) @ t=0.96
1.3810906457722005
% es.tEx (V/m) @ t=0.96
-1.2109925468228808
% es.tEy (V/m) @ t=0.96
0
% es.tEz (V/m) @ t=0.96
1.3810906457721934
% V (V) @ t=0.96
0.018148478830296095
% es.normE (V/m) @ t=0.98
1.8917087836025814
% es.EX (V/m) @ t=0.98
-1.2216396742338351
% es.EY (V/m) @ t=0.98
0.27141931633653615
% es.EZ (V/m) @ t=0.98
1.393233287106133
% es.tEX (V/m) @ t=0.98
-1.2216396742338311
% es.tEY (V/m) @ t=0.98
0
% es.tEZ (V/m) @ t=0.98
1.3932332871061366
% es.Ex (V/m) @ t=0.98
-1.2216396742338351
% es.Ey (V/m) @ t=0.98
0.27141931633653615
% es.Ez (V/m) @ t=0.98
1.393233287106133
% es.tEx (V/m) @ t=0.98
-1.2216396742338311
% es.tEy (V/m) @ t=0.98
0
% es.tEz (V/m) @ t=0.98
1.3932332871061366
% V (V) @ t=0.98
0.018308041464734217
% es.normE (V/m) @ t=1
1.9081958583068679
% es.EX (V/m) @ t=1
-1.2322868016447792
% es.EY (V/m) @ t=1
0.27378485530106866
% es.EZ (V/m) @ t=1
1.405375928440085
% es.tEX (V/m) @ t=1
-1.2322868016447677
% es.tEY (V/m) @ t=1
0
% es.tEZ (V/m) @ t=1
1.4053759284400993
% es.Ex (V/m) @ t=1
-1.2322868016447792
% es.Ey (V/m) @ t=1
0.27378485530106866
% es.Ez (V/m) @ t=1
1.405375928440085
% es.tEx (V/m) @ t=1
-1.2322868016447677
% es.tEy (V/m) @ t=1
0
% es.tEz (V/m) @ t=1
1.4053759284400993
% V (V) @ t=1
0.01846760409917234
% es.normE (V/m) @ t=1.02
1.9246829330111481
% es.EX (V/m) @ t=1.02
-1.2429339290557229
% es.EY (V/m) @ t=1.02
0.2761503942655763
% es.EZ (V/m) @ t=1.02
1.4175185697740424
% es.tEX (V/m) @ t=1.02
-1.2429339290557184
% es.tEY (V/m) @ t=1.02
0
% es.tEZ (V/m) @ t=1.02
1.4175185697740424
% es.Ex (V/m) @ t=1.02
-1.2429339290557229
% es.Ey (V/m) @ t=1.02
0.2761503942655763
% es.Ez (V/m) @ t=1.02
1.4175185697740424
% es.tEx (V/m) @ t=1.02
-1.2429339290557184
% es.tEy (V/m) @ t=1.02
0
% es.tEz (V/m) @ t=1.02
1.4175185697740424
% V (V) @ t=1.02
0.018627166733610458
% es.normE (V/m) @ t=1.04
1.9417716773903675
% es.EX (V/m) @ t=1.04
-1.2539696065101822
% es.EY (V/m) @ t=1.04
0.27860225983513764
% es.EZ (V/m) @ t=1.04
1.430104337570624
% es.tEX (V/m) @ t=1.04
-1.2539696065101777
% es.tEY (V/m) @ t=1.04
0