% Model:              1 neuron.mph
% Version:            COMSOL 6.1.0.252
% Date:               Mar 22 2023, 18:57
% Dimension:          0
% Nodes:              14017
% Expressions:        14017
% Description:        Electric field norm, Electric field, X component, Electric field, Y component, Electric field, Z component, Tangential electric field, X component, Tangential electric field, Y component, Tangential electric field, Z component, Electric field, x component, Electric field, y component, Electric field, z component, Tangential electric field, x component, Tangential electric field, y component, Tangential electric field, z component, Electric potential
% Length unit:        mm
% x
2
% y
12.199999999999998
% z
2
% es.normE (V/m) @ t=0
1.33633261028191
% es.EX (V/m) @ t=0
-0.9566908218522587
% es.EY (V/m) @ t=0
0.36434124691670844
% es.EZ (V/m) @ t=0
-0.8537005938872664
% es.tEX (V/m) @ t=0
-0.9566908218522578
% es.tEY (V/m) @ t=0
0
% es.tEZ (V/m) @ t=0
-0.8537005938872664
% es.Ex (V/m) @ t=0
-0.9566908218522587
% es.Ey (V/m) @ t=0
0.36434124691670844
% es.Ez (V/m) @ t=0
-0.8537005938872664
% es.tEx (V/m) @ t=0
-0.9566908218522578
% es.tEy (V/m) @ t=0
0
% es.tEz (V/m) @ t=0
-0.8537005938872664
% V (V) @ t=0
0.013599579999367204
% es.normE (V/m) @ t=0.02
1.1542074435866954
% es.EX (V/m) @ t=0.02
-0.8263060104400626
% es.EY (V/m) @ t=0.02
0.3146861612708356
% es.EZ (V/m) @ t=0.02
-0.7373520427349405
% es.tEX (V/m) @ t=0.02
-0.8263060104400664
% es.tEY (V/m) @ t=0.02
0
% es.tEZ (V/m) @ t=0.02
-0.7373520427349387
% es.Ex (V/m) @ t=0.02
-0.8263060104400626
% es.Ey (V/m) @ t=0.02
0.3146861612708356
% es.Ez (V/m) @ t=0.02
-0.7373520427349405
% es.tEx (V/m) @ t=0.02
-0.8263060104400664
% es.tEy (V/m) @ t=0.02
0
% es.tEz (V/m) @ t=0.02
-0.7373520427349387
% V (V) @ t=0.02
0.01174612992240356
% es.normE (V/m) @ t=0.04
1.1648287478267925
% es.EX (V/m) @ t=0.04
-0.8339098840486463
% es.EY (V/m) @ t=0.04
0.31758198152900974
% es.EZ (V/m) @ t=0.04
-0.7441373398859854
% es.tEX (V/m) @ t=0.04
-0.8339098840486456
% es.tEY (V/m) @ t=0.04
0
% es.tEZ (V/m) @ t=0.04
-0.7441373398859881
% es.Ex (V/m) @ t=0.04
-0.8339098840486463
% es.Ey (V/m) @ t=0.04
0.31758198152900974
% es.Ez (V/m) @ t=0.04
-0.7441373398859854
% es.tEx (V/m) @ t=0.04
-0.8339098840486456
% es.tEy (V/m) @ t=0.04
0
% es.tEz (V/m) @ t=0.04
-0.7441373398859881
% V (V) @ t=0.04
0.011854220739891045
% es.normE (V/m) @ t=0.06
1.1755262148152799
% es.EX (V/m) @ t=0.06
-0.8415682831079165
% es.EY (V/m) @ t=0.06
0.3204985667687992
% es.EZ (V/m) @ t=0.06
-0.750971292903106
% es.tEX (V/m) @ t=0.06
-0.8415682831079212
% es.tEY (V/m) @ t=0.06
0
% es.tEZ (V/m) @ t=0.06
-0.750971292903106
% es.Ex (V/m) @ t=0.06
-0.8415682831079165
% es.Ey (V/m) @ t=0.06
0.3204985667687992
% es.Ez (V/m) @ t=0.06
-0.750971292903106
% es.tEx (V/m) @ t=0.06
-0.8415682831079212
% es.tEy (V/m) @ t=0.06
0
% es.tEz (V/m) @ t=0.06
-0.750971292903106
% V (V) @ t=0.06
0.011963086659756572
% es.normE (V/m) @ t=0.08
1.1864315057191381
% es.EX (V/m) @ t=0.08
-0.8493754649755088
% es.EY (V/m) @ t=0.08
0.3234718140945039
% es.EZ (V/m) @ t=0.08
-0.7579380115199426
% es.tEX (V/m) @ t=0.08
-0.849375464975509
% es.tEY (V/m) @ t=0.08
0
% es.tEZ (V/m) @ t=0.08
-0.7579380115199399
% es.Ex (V/m) @ t=0.08
-0.8493754649755088
% es.Ey (V/m) @ t=0.08
0.3234718140945039
% es.Ez (V/m) @ t=0.08
-0.7579380115199426
% es.tEx (V/m) @ t=0.08
-0.849375464975509
% es.tEy (V/m) @ t=0.08
0
% es.tEz (V/m) @ t=0.08
-0.7579380115199399
% V (V) @ t=0.08
0.012074067542700793
% es.normE (V/m) @ t=0.1
1.197388390258264
% es.EX (V/m) @ t=0.1
-0.8572195831405003
% es.EY (V/m) @ t=0.1
0.32645912815062506
% es.EZ (V/m) @ t=0.1
-0.7649376900582565
% es.tEX (V/m) @ t=0.1
-0.8572195831404983
% es.tEY (V/m) @ t=0.1
0
% es.tEZ (V/m) @ t=0.1
-0.7649376900582556
% es.Ex (V/m) @ t=0.1
-0.8572195831405003
% es.Ey (V/m) @ t=0.1
0.32645912815062506
% es.Ez (V/m) @ t=0.1
-0.7649376900582565
% es.tEx (V/m) @ t=0.1
-0.8572195831404983
% es.tEy (V/m) @ t=0.1
0
% es.tEz (V/m) @ t=0.1
-0.7649376900582556
% V (V) @ t=0.1
0.012185573478950435
% es.normE (V/m) @ t=0.12
1.2083452747973864
% es.EX (V/m) @ t=0.12
-0.8650637013055027
% es.EY (V/m) @ t=0.12
0.32944644220676
% es.EZ (V/m) @ t=0.12
-0.7719373685965429
% es.tEX (V/m) @ t=0.12
-0.8650637013054991
% es.tEY (V/m) @ t=0.12
0
% es.tEZ (V/m) @ t=0.12
-0.7719373685965483
% es.Ex (V/m) @ t=0.12
-0.8650637013055027
% es.Ey (V/m) @ t=0.12
0.32944644220676
% es.Ez (V/m) @ t=0.12
-0.7719373685965429
% es.tEx (V/m) @ t=0.12
-0.8650637013054991
% es.tEy (V/m) @ t=0.12
0
% es.tEz (V/m) @ t=0.12
-0.7719373685965483
% V (V) @ t=0.12
0.012297079415200073
% es.normE (V/m) @ t=0.14
1.2196349550633827
% es.EX (V/m) @ t=0.14
-0.8731460705050573
% es.EY (V/m) @ t=0.14
0.3325244906508167
% es.EZ (V/m) @ t=0.14
-0.7791496497740757
% es.tEX (V/m) @ t=0.14
-0.873146070505058
% es.tEY (V/m) @ t=0.14
0
% es.tEZ (V/m) @ t=0.14
-0.7791496497740695
% es.Ex (V/m) @ t=0.14
-0.8731460705050573
% es.Ey (V/m) @ t=0.14
0.3325244906508167
% es.Ez (V/m) @ t=0.14
-0.7791496497740757
% es.tEx (V/m) @ t=0.14
-0.873146070505058
% es.tEy (V/m) @ t=0.14
0
% es.tEz (V/m) @ t=0.14
-0.7791496497740695
% V (V) @ t=0.14
0.012411972141324924
% es.normE (V/m) @ t=0.16
1.2311387777916059
% es.EX (V/m) @ t=0.16
-0.8813817459494249
% es.EY (V/m) @ t=0.16
0.3356609235140948
% es.EZ (V/m) @ t=0.16
-0.7864987333470692
% es.tEX (V/m) @ t=0.16
-0.8813817459494229
% es.tEY (V/m) @ t=0.16
0
% es.tEZ (V/m) @ t=0.16
-0.7864987333470701
% es.Ex (V/m) @ t=0.16
-0.8813817459494249
% es.Ey (V/m) @ t=0.16
0.3356609235140948
% es.Ez (V/m) @ t=0.16
-0.7864987333470692
% es.tEx (V/m) @ t=0.16
-0.8813817459494229
% es.tEy (V/m) @ t=0.16
0
% es.tEz (V/m) @ t=0.16
-0.7864987333470701
% V (V) @ t=0.16
0.01252904414880556
% es.normE (V/m) @ t=0.18
1.242642600519813
% es.EX (V/m) @ t=0.18
-0.8896174213937711
% es.EY (V/m) @ t=0.18
0.3387973563773725
% es.EZ (V/m) @ t=0.18
-0.7938478169200609
% es.tEX (V/m) @ t=0.18
-0.8896174213937678
% es.tEY (V/m) @ t=0.18
0
% es.tEZ (V/m) @ t=0.18
-0.7938478169200653
% es.Ex (V/m) @ t=0.18
-0.8896174213937711
% es.Ey (V/m) @ t=0.18
0.3387973563773725
% es.Ez (V/m) @ t=0.18
-0.7938478169200609
% es.tEx (V/m) @ t=0.18
-0.8896174213937678
% es.tEy (V/m) @ t=0.18
0
% es.tEz (V/m) @ t=0.18
-0.7938478169200653
% V (V) @ t=0.18
0.012646116156286191
% es.normE (V/m) @ t=0.2
1.254146423248024
% es.EX (V/m) @ t=0.2
-0.8978530968381173
% es.EY (V/m) @ t=0.2
0.3419337892406693
% es.EZ (V/m) @ t=0.2
-0.8011969004930499
% es.tEX (V/m) @ t=0.2
-0.8978530968381202
% es.tEY (V/m) @ t=0.2
0
% es.tEZ (V/m) @ t=0.2
-0.8011969004930481
% es.Ex (V/m) @ t=0.2
-0.8978530968381173
% es.Ey (V/m) @ t=0.2
0.3419337892406693
% es.Ez (V/m) @ t=0.2
-0.8011969004930499
% es.tEx (V/m) @ t=0.2
-0.8978530968381202
% es.tEy (V/m) @ t=0.2
0
% es.tEz (V/m) @ t=0.2
-0.8011969004930481
% V (V) @ t=0.2
0.012763188163766826
% es.normE (V/m) @ t=0.22
1.2656502459762455
% es.EX (V/m) @ t=0.22
-0.9060887722824742
% es.EY (V/m) @ t=0.22
0.34507022210394345
% es.EZ (V/m) @ t=0.22
-0.808545984066054
% es.tEX (V/m) @ t=0.22
-0.9060887722824669
% es.tEY (V/m) @ t=0.22
0
% es.tEZ (V/m) @ t=0.22
-0.8085459840660576
% es.Ex (V/m) @ t=0.22
-0.9060887722824742
% es.Ey (V/m) @ t=0.22
0.34507022210394345
% es.Ez (V/m) @ t=0.22
-0.808545984066054
% es.tEx (V/m) @ t=0.22
-0.9060887722824669
% es.tEy (V/m) @ t=0.22
0
% es.tEz (V/m) @ t=0.22
-0.8085459840660576
% V (V) @ t=0.22
0.012880260171247462
% es.normE (V/m) @ t=0.24
1.2771540687044678
% es.EX (V/m) @ t=0.24
-0.9143244477268366
% es.EY (V/m) @ t=0.24
0.34820665496725445
% es.EZ (V/m) @ t=0.24
-0.8158950676390377
% es.tEX (V/m) @ t=0.24
-0.914324447726834
% es.tEY (V/m) @ t=0.24
0
% es.tEZ (V/m) @ t=0.24
-0.8158950676390404
% es.Ex (V/m) @ t=0.24
-0.9143244477268366
% es.Ey (V/m) @ t=0.24
0.34820665496725445
% es.Ez (V/m) @ t=0.24
-0.8158950676390377
% es.tEx (V/m) @ t=0.24
-0.914324447726834
% es.tEy (V/m) @ t=0.24
0
% es.tEz (V/m) @ t=0.24
-0.8158950676390404
% V (V) @ t=0.24
0.012997332178728095
% es.normE (V/m) @ t=0.26
1.288930305133766
% es.EX (V/m) @ t=0.26
-0.9227551455831653
% es.EY (V/m) @ t=0.26
0.3514173535142784
% es.EZ (V/m) @ t=0.26
-0.8234181834249084
% es.tEX (V/m) @ t=0.26
-0.9227551455831615
% es.tEY (V/m) @ t=0.26
0
% es.tEZ (V/m) @ t=0.26
-0.8234181834249217
% es.Ex (V/m) @ t=0.26
-0.9227551455831653
% es.Ey (V/m) @ t=0.26
0.3514173535142784
% es.Ez (V/m) @ t=0.26
-0.8234181834249084
% es.tEx (V/m) @ t=0.26
-0.9227551455831615
% es.tEy (V/m) @ t=0.26
0
% es.tEz (V/m) @ t=0.26
-0.8234181834249217
% V (V) @ t=0.26
0.013117176725831911
% es.normE (V/m) @ t=0.28
1.301654747641582
% es.EX (V/m) @ t=0.28
-0.9318646691951205
% es.EY (V/m) @ t=0.28
0.35488655290934323
% es.EZ (V/m) @ t=0.28
-0.8315470631699782
% es.tEX (V/m) @ t=0.28
-0.9318646691951211
% es.tEY (V/m) @ t=0.28
0
% es.tEZ (V/m) @ t=0.28
-0.8315470631699764
% es.Ex (V/m) @ t=0.28
-0.9318646691951205
% es.Ey (V/m) @ t=0.28
0.35488655290934323
% es.Ez (V/m) @ t=0.28
-0.8315470631699782
% es.tEx (V/m) @ t=0.28
-0.9318646691951211
% es.tEy (V/m) @ t=0.28
0
% es.tEz (V/m) @ t=0.28
-0.8315470631699764
% V (V) @ t=0.28
0.01324667181148458
% es.normE (V/m) @ t=0.3
1.3143791901494124
% es.EX (V/m) @ t=0.3
-0.9409741928070903
% es.EY (V/m) @ t=0.3
0.35835575230441963
% es.EZ (V/m) @ t=0.3
-0.8396759429150498
% es.tEX (V/m) @ t=0.3
-0.9409741928070847
% es.tEY (V/m) @ t=0.3
0
% es.tEZ (V/m) @ t=0.3
-0.8396759429150524
% es.Ex (V/m) @ t=0.3
-0.9409741928070903
% es.Ey (V/m) @ t=0.3
0.35835575230441963
% es.Ez (V/m) @ t=0.3
-0.8396759429150498
% es.tEx (V/m) @ t=0.3
-0.9409741928070847
% es.tEy (V/m) @ t=0.3
0
% es.tEz (V/m) @ t=0.3
-0.8396759429150524
% V (V) @ t=0.3
0.01337616689713725
% es.normE (V/m) @ t=0.32
1.3271036326572228
% es.EX (V/m) @ t=0.32
-0.9500837164190417
% es.EY (V/m) @ t=0.32
0.3618249516994769
% es.EZ (V/m) @ t=0.32
-0.8478048226601116
% es.tEX (V/m) @ t=0.32
-0.9500837164190443
% es.tEY (V/m) @ t=0.32
0
% es.tEZ (V/m) @ t=0.32
-0.8478048226601125
% es.Ex (V/m) @ t=0.32
-0.9500837164190417
% es.Ey (V/m) @ t=0.32
0.3618249516994769
% es.Ez (V/m) @ t=0.32
-0.8478048226601116
% es.tEx (V/m) @ t=0.32
-0.9500837164190443
% es.tEy (V/m) @ t=0.32
0
% es.tEz (V/m) @ t=0.32
-0.8478048226601125
% V (V) @ t=0.32
0.01350566198278992
% es.normE (V/m) @ t=0.34
1.3398280751650644
% es.EX (V/m) @ t=0.34
-0.9591932400310232
% es.EY (V/m) @ t=0.34
0.36529415109456
% es.EZ (V/m) @ t=0.34
-0.8559337024051832
% es.tEX (V/m) @ t=0.34
-0.9591932400310252
% es.tEY (V/m) @ t=0.34
0
% es.tEZ (V/m) @ t=0.34
-0.8559337024051867
% es.Ex (V/m) @ t=0.34
-0.9591932400310232
% es.Ey (V/m) @ t=0.34
0.36529415109456
% es.Ez (V/m) @ t=0.34
-0.8559337024051832
% es.tEx (V/m) @ t=0.34
-0.9591932400310252
% es.tEy (V/m) @ t=0.34
0
% es.tEz (V/m) @ t=0.34
-0.8559337024051867
% V (V) @ t=0.34
0.013635157068442587
% es.normE (V/m) @ t=0.36
1.3525525176728839
% es.EX (V/m) @ t=0.36
-0.9683027636429891
% es.EY (V/m) @ t=0.36
0.36876335048962394
% es.EZ (V/m) @ t=0.36
-0.8640625821502397
% es.tEX (V/m) @ t=0.36
-0.9683027636429888
% es.tEY (V/m) @ t=0.36
0
% es.tEZ (V/m) @ t=0.36
-0.8640625821502486
% es.Ex (V/m) @ t=0.36
-0.9683027636429891
% es.Ey (V/m) @ t=0.36
0.36876335048962394
% es.Ez (V/m) @ t=0.36
-0.8640625821502397
% es.tEx (V/m) @ t=0.36
-0.9683027636429888
% es.tEy (V/m) @ t=0.36
0
% es.tEz (V/m) @ t=0.36
-0.8640625821502486
% V (V) @ t=0.36
0.013764652154095256
% es.normE (V/m) @ t=0.38
1.365276960180706
% es.EX (V/m) @ t=0.38
-0.9774122872549402
% es.EY (V/m) @ t=0.38
0.3722325498846941
% es.EZ (V/m) @ t=0.38
-0.8721914618953139
% es.tEX (V/m) @ t=0.38
-0.9774122872549413
% es.tEY (V/m) @ t=0.38
0
% es.tEZ (V/m) @ t=0.38
-0.8721914618953139
% es.Ex (V/m) @ t=0.38
-0.9774122872549402
% es.Ey (V/m) @ t=0.38
0.3722325498846941
% es.Ez (V/m) @ t=0.38
-0.8721914618953139
% es.tEx (V/m) @ t=0.38
-0.9774122872549413
% es.tEy (V/m) @ t=0.38
0
% es.tEz (V/m) @ t=0.38
-0.8721914618953139
% V (V) @ t=0.38
0.013894147239747925
% es.normE (V/m) @ t=0.4
1.3780014026885345
% es.EX (V/m) @ t=0.4
-0.9865218108668989
% es.EY (V/m) @ t=0.4
0.3757017492797794
% es.EZ (V/m) @ t=0.4
-0.8803203416403811
% es.tEX (V/m) @ t=0.4
-0.9865218108669005
% es.tEY (V/m) @ t=0.4
0
% es.tEZ (V/m) @ t=0.4
-0.8803203416403829
% es.Ex (V/m) @ t=0.4
-0.9865218108668989
% es.Ey (V/m) @ t=0.4
0.3757017492797794
% es.Ez (V/m) @ t=0.4
-0.8803203416403811
% es.tEx (V/m) @ t=0.4
-0.9865218108669005
% es.tEy (V/m) @ t=0.4
0
% es.tEz (V/m) @ t=0.4
-0.8803203416403829
% V (V) @ t=0.4
0.014023642325400595
% es.normE (V/m) @ t=0.42
1.3907258451963682
% es.EX (V/m) @ t=0.42
-0.9956313344788772
% es.EY (V/m) @ t=0.42
0.37917094867484913
% es.EZ (V/m) @ t=0.42
-0.8884492213854402
% es.tEX (V/m) @ t=0.42
-0.995631334478877
% es.tEY (V/m) @ t=0.42
0
% es.tEZ (V/m) @ t=0.42
-0.8884492213854429
% es.Ex (V/m) @ t=0.42
-0.9956313344788772
% es.Ey (V/m) @ t=0.42
0.37917094867484913
% es.Ez (V/m) @ t=0.42
-0.8884492213854402
% es.tEx (V/m) @ t=0.42
-0.995631334478877
% es.tEy (V/m) @ t=0.42
0
% es.tEz (V/m) @ t=0.42
-0.8884492213854429
% V (V) @ t=0.42
0.014153137411053266
% es.normE (V/m) @ t=0.44
1.4034502877041863
% es.EX (V/m) @ t=0.44
-1.004740858090831
% es.EY (V/m) @ t=0.44
0.3826401480698953
% es.EZ (V/m) @ t=0.44
-0.8965781011305101
% es.tEX (V/m) @ t=0.44
-1.004740858090837
% es.tEY (V/m) @ t=0.44
0
% es.tEZ (V/m) @ t=0.44
-0.896578101130519
% es.Ex (V/m) @ t=0.44
-1.004740858090831
% es.Ey (V/m) @ t=0.44
0.3826401480698953
% es.Ez (V/m) @ t=0.44
-0.8965781011305101
% es.tEx (V/m) @ t=0.44
-1.004740858090837
% es.tEy (V/m) @ t=0.44
0
% es.tEz (V/m) @ t=0.44
-0.896578101130519
% V (V) @ t=0.44
0.014282632496705933
% es.normE (V/m) @ t=0.46
1.4161747302120276
% es.EX (V/m) @ t=0.46
-1.013850381702795
% es.EY (V/m) @ t=0.46
0.3861093474649997
% es.EZ (V/m) @ t=0.46
-0.9047069808755781
% es.tEX (V/m) @ t=0.46
-1.013850381702794
% es.tEY (V/m) @ t=0.46
0
% es.tEZ (V/m) @ t=0.46
-0.9047069808755808
% es.Ex (V/m) @ t=0.46
-1.013850381702795
% es.Ey (V/m) @ t=0.46
0.3861093474649997
% es.Ez (V/m) @ t=0.46
-0.9047069808755781
% es.tEx (V/m) @ t=0.46
-1.013850381702794
% es.tEy (V/m) @ t=0.46
0
% es.tEz (V/m) @ t=0.46
-0.9047069808755808
% V (V) @ t=0.46
0.014412127582358606
% es.normE (V/m) @ t=0.48
1.4288991727198588
% es.EX (V/m) @ t=0.48
-1.0229599053147589
% es.EY (V/m) @ t=0.48
0.38957854686005655
% es.EZ (V/m) @ t=0.48
-0.9128358606206497
% es.tEX (V/m) @ t=0.48
-1.0229599053147642
% es.tEY (V/m) @ t=0.48
0
% es.tEZ (V/m) @ t=0.48
-0.9128358606206621
% es.Ex (V/m) @ t=0.48
-1.0229599053147589
% es.Ey (V/m) @ t=0.48
0.38957854686005655
% es.Ez (V/m) @ t=0.48
-0.9128358606206497
% es.tEx (V/m) @ t=0.48
-1.0229599053147642
% es.tEy (V/m) @ t=0.48
0
% es.tEz (V/m) @ t=0.48
-0.9128358606206621
% V (V) @ t=0.48
0.014541622668011274
% es.normE (V/m) @ t=0.5
1.4416236152276967
% es.EX (V/m) @ t=0.5
-1.0320694289267245
% es.EY (V/m) @ t=0.5
0.3930477462551387
% es.EZ (V/m) @ t=0.5
-0.9209647403657186
% es.tEX (V/m) @ t=0.5
-1.0320694289267225
% es.tEY (V/m) @ t=0.5
0
% es.tEZ (V/m) @ t=0.5
-0.9209647403657151
% es.Ex (V/m) @ t=0.5
-1.0320694289267245
% es.Ey (V/m) @ t=0.5
0.3930477462551387
% es.Ez (V/m) @ t=0.5
-0.9209647403657186
% es.tEx (V/m) @ t=0.5
-1.0320694289267225
% es.tEy (V/m) @ t=0.5
0
% es.tEz (V/m) @ t=0.5
-0.9209647403657151
% V (V) @ t=0.5
0.014671117753663945
% es.normE (V/m) @ t=0.52
1.4549690691671018
% es.EX (V/m) @ t=0.52
-1.0416235405891305
% es.EY (V/m) @ t=0.52
0.3966862691954378
% es.EZ (V/m) @ t=0.52
-0.9294903397687317
% es.tEX (V/m) @ t=0.52
-1.0416235405891276
% es.tEY (V/m) @ t=0.52
0
% es.tEZ (V/m) @ t=0.52
-0.9294903397687424
% es.Ex (V/m) @ t=0.52
-1.0416235405891305
% es.Ey (V/m) @ t=0.52
0.3966862691954378
% es.Ez (V/m) @ t=0.52
-0.9294903397687317
% es.tEx (V/m) @ t=0.52
-1.0416235405891276
% es.tEy (V/m) @ t=0.52
0
% es.tEz (V/m) @ t=0.52
-0.9294903397687424
% V (V) @ t=0.52
0.014806932356685037
% es.normE (V/m) @ t=0.54
1.4690656435940648
% es.EX (V/m) @ t=0.54
-1.0517153866252162
% es.EY (V/m) @ t=0.54
0.40052959091621787
% es.EZ (V/m) @ t=0.54
-0.9384957761727399
% es.tEX (V/m) @ t=0.54
-1.0517153866252178
% es.tEY (V/m) @ t=0.54
0
% es.tEZ (V/m) @ t=0.54
-0.9384957761727417
% es.Ex (V/m) @ t=0.54
-1.0517153866252162
% es.Ey (V/m) @ t=0.54
0.40052959091621787
% es.Ez (V/m) @ t=0.54
-0.9384957761727399
% es.tEx (V/m) @ t=0.54
-1.0517153866252178
% es.tEy (V/m) @ t=0.54
0
% es.tEz (V/m) @ t=0.54
-0.9384957761727417
% V (V) @ t=0.54
0.014950390488835862
% es.normE (V/m) @ t=0.56
1.4831622180210546
% es.EX (V/m) @ t=0.56
-1.0618072326613246
% es.EY (V/m) @ t=0.56
0.4043729126370139
% es.EZ (V/m) @ t=0.56
-0.947501212576757
% es.tEX (V/m) @ t=0.56
-1.0618072326613217
% es.tEY (V/m) @ t=0.56
0
% es.tEZ (V/m) @ t=0.56
-0.9475012125767552
% es.Ex (V/m) @ t=0.56
-1.0618072326613246
% es.Ey (V/m) @ t=0.56
0.4043729126370139
% es.Ez (V/m) @ t=0.56
-0.947501212576757
% es.tEx (V/m) @ t=0.56
-1.0618072326613217
% es.tEy (V/m) @ t=0.56
0
% es.tEz (V/m) @ t=0.56
-0.9475012125767552
% V (V) @ t=0.56
0.015093848620986687
% es.normE (V/m) @ t=0.58
1.4972587924480263
% es.EX (V/m) @ t=0.58
-1.0718990786974085
% es.EY (V/m) @ t=0.58
0.4082162343578024
% es.EZ (V/m) @ t=0.58
-0.9565066489807759
% es.tEX (V/m) @ t=0.58
-1.071899078697402
% es.tEY (V/m) @ t=0.58
0
% es.tEZ (V/m) @ t=0.58
-0.9565066489807847
% es.Ex (V/m) @ t=0.58
-1.0718990786974085
% es.Ey (V/m) @ t=0.58
0.4082162343578024
% es.Ez (V/m) @ t=0.58
-0.9565066489807759
% es.tEx (V/m) @ t=0.58
-1.071899078697402
% es.tEy (V/m) @ t=0.58
0
% es.tEz (V/m) @ t=0.58
-0.9565066489807847
% V (V) @ t=0.58
0.015237306753137508
% es.normE (V/m) @ t=0.6
1.5113553668750184
% es.EX (V/m) @ t=0.6
-1.081990924733515
% es.EY (V/m) @ t=0.6
0.41205955607858424
% es.EZ (V/m) @ t=0.6
-0.9655120853848018
% es.tEX (V/m) @ t=0.6
-1.081990924733513
% es.tEY (V/m) @ t=0.6
0
% es.tEZ (V/m) @ t=0.6
-0.9655120853848107
% es.Ex (V/m) @ t=0.6
-1.081990924733515
% es.Ey (V/m) @ t=0.6
0.41205955607858424
% es.Ez (V/m) @ t=0.6
-0.9655120853848018
% es.tEx (V/m) @ t=0.6
-1.081990924733513
% es.tEy (V/m) @ t=0.6
0
% es.tEz (V/m) @ t=0.6
-0.9655120853848107
% V (V) @ t=0.6
0.015380764885288332
% es.normE (V/m) @ t=0.62
1.5254519413019902
% es.EX (V/m) @ t=0.62
-1.0920827707696026
% es.EY (V/m) @ t=0.62
0.4159028777993772
% es.EZ (V/m) @ t=0.62
-0.9745175217888153
% es.tEX (V/m) @ t=0.62
-1.0920827707695961
% es.tEY (V/m) @ t=0.62
0
% es.tEZ (V/m) @ t=0.62
-0.9745175217888118
% es.Ex (V/m) @ t=0.62
-1.0920827707696026
% es.Ey (V/m) @ t=0.62
0.4159028777993772
% es.Ez (V/m) @ t=0.62
-0.9745175217888153
% es.tEx (V/m) @ t=0.62
-1.0920827707695961
% es.tEy (V/m) @ t=0.62
0
% es.tEz (V/m) @ t=0.62
-0.9745175217888118
% V (V) @ t=0.62
0.015524223017439156
% es.normE (V/m) @ t=0.64
1.5395485157289737
% es.EX (V/m) @ t=0.64
-1.1021746168056985
% es.EY (V/m) @ t=0.64
0.41974619952016123
% es.EZ (V/m) @ t=0.64
-0.9835229581928413
% es.tEX (V/m) @ t=0.64
-1.1021746168056965
% es.tEY (V/m) @ t=0.64
0
% es.tEZ (V/m) @ t=0.64
-0.9835229581928466
% es.Ex (V/m) @ t=0.64
-1.1021746168056985
% es.Ey (V/m) @ t=0.64
0.41974619952016123
% es.Ez (V/m) @ t=0.64
-0.9835229581928413
% es.tEx (V/m) @ t=0.64
-1.1021746168056965
% es.tEy (V/m) @ t=0.64
0
% es.tEz (V/m) @ t=0.64
-0.9835229581928466
% V (V) @ t=0.64
0.015667681149589982
% es.normE (V/m) @ t=0.66
1.5536450901559737
% es.EX (V/m) @ t=0.66
-1.1122664628418055
% es.EY (V/m) @ t=0.66
0.4235895212409373
% es.EZ (V/m) @ t=0.66
-0.9925283945968841
% es.tEX (V/m) @ t=0.66
-1.1122664628418
% es.tEY (V/m) @ t=0.66
0
% es.tEZ (V/m) @ t=0.66
-0.9925283945968957
% es.Ex (V/m) @ t=0.66
-1.1122664628418055
% es.Ey (V/m) @ t=0.66
0.4235895212409373
% es.Ez (V/m) @ t=0.66
-0.9925283945968841
% es.tEx (V/m) @ t=0.66
-1.1122664628418
% es.tEy (V/m) @ t=0.66
0
% es.tEz (V/m) @ t=0.66
-0.9925283945968957
% V (V) @ t=0.66
0.015811139281740806
% es.normE (V/m) @ t=0.68
1.567741664582946
% es.EX (V/m) @ t=0.68
-1.1223583088779068
% es.EY (V/m) @ t=0.68
0.4274328429617458
% es.EZ (V/m) @ t=0.68
-1.0015338310008746
% es.tEX (V/m) @ t=0.68
-1.1223583088779048
% es.tEY (V/m) @ t=0.68
0
% es.tEZ (V/m) @ t=0.68
-1.0015338310008666
% es.Ex (V/m) @ t=0.68
-1.1223583088779068
% es.Ey (V/m) @ t=0.68
0.4274328429617458
% es.Ez (V/m) @ t=0.68
-1.0015338310008746
% es.tEx (V/m) @ t=0.68
-1.1223583088779048
% es.tEy (V/m) @ t=0.68
0
% es.tEz (V/m) @ t=0.68
-1.0015338310008666
% V (V) @ t=0.68
0.01595459741389163
% es.normE (V/m) @ t=0.7
1.5818382390099255
% es.EX (V/m) @ t=0.7
-1.1324501549139938
% es.EY (V/m) @ t=0.7
0.4312761646825565
% es.EZ (V/m) @ t=0.7
-1.0105392674048916
% es.tEX (V/m) @ t=0.7
-1.132450154913991
% es.tEY (V/m) @ t=0.7
0
% es.tEZ (V/m) @ t=0.7
-1.0105392674048996
% es.Ex (V/m) @ t=0.7
-1.1324501549139938
% es.Ey (V/m) @ t=0.7
0.4312761646825565
% es.Ez (V/m) @ t=0.7
-1.0105392674048916
% es.tEx (V/m) @ t=0.7
-1.132450154913991
% es.tEy (V/m) @ t=0.7
0
% es.tEz (V/m) @ t=0.7
-1.0105392674048996
% V (V) @ t=0.7
0.016098055546042454
% es.normE (V/m) @ t=0.72
1.595934813436915
% es.EX (V/m) @ t=0.72
-1.1425420009500973
% es.EY (V/m) @ t=0.72
0.4351194864033361
% es.EZ (V/m) @ t=0.72
-1.0195447038089203
% es.tEX (V/m) @ t=0.72
-1.1425420009500953
% es.tEY (V/m) @ t=0.72
0
% es.tEZ (V/m) @ t=0.72
-1.019544703808922
% es.Ex (V/m) @ t=0.72
-1.1425420009500973
% es.Ey (V/m) @ t=0.72
0.4351194864033361
% es.Ez (V/m) @ t=0.72
-1.0195447038089203
% es.tEx (V/m) @ t=0.72
-1.1425420009500953
% es.tEy (V/m) @ t=0.72
0
% es.tEz (V/m) @ t=0.72
-1.019544703808922
% V (V) @ t=0.72
0.016241513678193275
% es.normE (V/m) @ t=0.74
1.6100313878638932
% es.EX (V/m) @ t=0.74
-1.1526338469861972
% es.EY (V/m) @ t=0.74
0.43896280812409616
% es.EZ (V/m) @ t=0.74
-1.0285501402129453
% es.tEX (V/m) @ t=0.74
-1.152633846986189
% es.tEY (V/m) @ t=0.74
0
% es.tEZ (V/m) @ t=0.74
-1.0285501402129515
% es.Ex (V/m) @ t=0.74
-1.1526338469861972
% es.Ey (V/m) @ t=0.74
0.43896280812409616
% es.Ez (V/m) @ t=0.74
-1.0285501402129453
% es.tEx (V/m) @ t=0.74
-1.152633846986189
% es.tEy (V/m) @ t=0.74
0
% es.tEz (V/m) @ t=0.74
-1.0285501402129515
% V (V) @ t=0.74
0.016384971810344102
% es.normE (V/m) @ t=0.76
1.624127962290855
% es.EX (V/m) @ t=0.76
-1.162725693022279
% es.EY (V/m) @ t=0.76
0.4428061298448891
% es.EZ (V/m) @ t=0.76
-1.0375555766169509
% es.tEX (V/m) @ t=0.76
-1.1627256930222796
% es.tEY (V/m) @ t=0.76
0
% es.tEZ (V/m) @ t=0.76
-1.0375555766169562
% es.Ex (V/m) @ t=0.76
-1.162725693022279
% es.Ey (V/m) @ t=0.76
0.4428061298448891
% es.Ez (V/m) @ t=0.76
-1.0375555766169509
% es.tEx (V/m) @ t=0.76
-1.1627256930222796
% es.tEy (V/m) @ t=0.76
0
% es.tEz (V/m) @ t=0.76
-1.0375555766169562
% V (V) @ t=0.76
0.016528429942494927
% es.normE (V/m) @ t=0.78
1.6392782147082785
% es.EX (V/m) @ t=0.78
-1.1735718753456965
% es.EY (V/m) @ t=0.78
0.44693673249425414
% es.EZ (V/m) @ t=0.78
-1.0472341410942692
% es.tEX (V/m) @ t=0.78
-1.1735718753456936
% es.tEY (V/m) @ t=0.78
0
% es.tEZ (V/m) @ t=0.78
-1.0472341410942594
% es.Ex (V/m) @ t=0.78
-1.1735718753456965
% es.Ey (V/m) @ t=0.78
0.44693673249425414
% es.Ez (V/m) @ t=0.78
-1.0472341410942692
% es.tEx (V/m) @ t=0.78
-1.1735718753456936
% es.tEy (V/m) @ t=0.78
0
% es.tEz (V/m) @ t=0.78
-1.0472341410942594
% V (V) @ t=0.78
0.016682611007083115
% es.normE (V/m) @ t=0.8
1.6549197694822222
% es.EX (V/m) @ t=0.8
-1.184769784856116
% es.EY (V/m) @ t=0.8
0.4512012866909316
% es.EZ (V/m) @ t=0.8
-1.0572265675024983
% es.tEX (V/m) @ t=0.8
-1.1847697848561132
% es.tEY (V/m) @ t=0.8
0
% es.tEZ (V/m) @ t=0.8
-1.0572265675025037
% es.Ex (V/m) @ t=0.8
-1.184769784856116
% es.Ey (V/m) @ t=0.8
0.4512012866909316
% es.Ez (V/m) @ t=0.8
-1.0572265675024983
% es.tEx (V/m) @ t=0.8
-1.1847697848561132
% es.tEy (V/m) @ t=0.8
0
% es.tEz (V/m) @ t=0.8
-1.0572265675025037
% V (V) @ t=0.8
0.01684179189327092
% es.normE (V/m) @ t=0.82
1.670561324256151
% es.EX (V/m) @ t=0.82
-1.1959676943665316
% es.EY (V/m) @ t=0.82
0.45546584088761133
% es.EZ (V/m) @ t=0.82
-1.0672189939107088
% es.tEX (V/m) @ t=0.82
-1.1959676943665327
% es.tEY (V/m) @ t=0.82
0
% es.tEZ (V/m) @ t=0.82
-1.0672189939107035
% es.Ex (V/m) @ t=0.82
-1.1959676943665316
% es.Ey (V/m) @ t=0.82
0.45546584088761133
% es.Ez (V/m) @ t=0.82
-1.0672189939107088
% es.tEx (V/m) @ t=0.82
-1.1959676943665327
% es.tEy (V/m) @ t=0.82
0
% es.tEz (V/m) @ t=0.82
-1.0672189939107035
% V (V) @ t=0.82
0.017000972779458726
% es.normE (V/m) @ t=0.84
1.686202879030093
% es.EX (V/m) @ t=0.84
-1.2071656038769654
% es.EY (V/m) @ t=0.84
0.45973039508429236
% es.EZ (V/m) @ t=0.84
-1.0772114203189211
% es.tEX (V/m) @ t=0.84
-1.2071656038769607
% es.tEY (V/m) @ t=0.84
0
% es.tEZ (V/m) @ t=0.84
-1.0772114203189176
% es.Ex (V/m) @ t=0.84
-1.2071656038769654
% es.Ey (V/m) @ t=0.84
0.45973039508429236
% es.Ez (V/m) @ t=0.84
-1.0772114203189211
% es.tEx (V/m) @ t=0.84
-1.2071656038769607
% es.tEy (V/m) @ t=0.84
0
% es.tEz (V/m) @ t=0.84
-1.0772114203189176
% V (V) @ t=0.84
0.017160153665646525
% es.normE (V/m) @ t=0.86
1.7018444338040384
% es.EX (V/m) @ t=0.86
-1.2183635133873938
% es.EY (V/m) @ t=0.86
0.46399494928097473
% es.EZ (V/m) @ t=0.86
-1.0872038467271423
% es.tEX (V/m) @ t=0.86
-1.2183635133873918
% es.tEY (V/m) @ t=0.86
0
% es.tEZ (V/m) @ t=0.86
-1.0872038467271548
% es.Ex (V/m) @ t=0.86
-1.2183635133873938
% es.Ey (V/m) @ t=0.86
0.46399494928097473
% es.Ez (V/m) @ t=0.86
-1.0872038467271423
% es.tEx (V/m) @ t=0.86
-1.2183635133873918
% es.tEy (V/m) @ t=0.86
0
% es.tEz (V/m) @ t=0.86
-1.0872038467271548
% V (V) @ t=0.86
0.01731933455183433
% es.normE (V/m) @ t=0.88
1.7174859885779878
% es.EX (V/m) @ t=0.88
-1.229561422897804
% es.EY (V/m) @ t=0.88
0.46825950347764955
% es.EZ (V/m) @ t=0.88
-1.0971962731353901
% es.tEX (V/m) @ t=0.88
-1.2295614228977954
% es.tEY (V/m) @ t=0.88
0
% es.tEZ (V/m) @ t=0.88
-1.097196273135383
% es.Ex (V/m) @ t=0.88
-1.229561422897804
% es.Ey (V/m) @ t=0.88
0.46825950347764955
% es.Ez (V/m) @ t=0.88
-1.0971962731353901
% es.tEx (V/m) @ t=0.88
-1.2295614228977954
% es.tEy (V/m) @ t=0.88
0
% es.tEz (V/m) @ t=0.88
-1.097196273135383
% V (V) @ t=0.88
0.017478515438022132
% es.normE (V/m) @ t=0.9
1.7331275433519175
% es.EX (V/m) @ t=0.9
-1.2407593324082389
% es.EY (V/m) @ t=0.9
0.4725240576743168
% es.EZ (V/m) @ t=0.9
-1.1071886995435873
% es.tEX (V/m) @ t=0.9
-1.2407593324082438
% es.tEY (V/m) @ t=0.9
0
% es.tEZ (V/m) @ t=0.9
-1.1071886995435953
% es.Ex (V/m) @ t=0.9
-1.2407593324082389
% es.Ey (V/m) @ t=0.9
0.4725240576743168
% es.Ez (V/m) @ t=0.9
-1.1071886995435873
% es.tEx (V/m) @ t=0.9
-1.2407593324082438
% es.tEy (V/m) @ t=0.9
0
% es.tEz (V/m) @ t=0.9
-1.1071886995435953
% V (V) @ t=0.9
0.017637696324209935
% es.normE (V/m) @ t=0.92
1.7487690981258524
% es.EX (V/m) @ t=0.92
-1.251957241918656
% es.EY (V/m) @ t=0.92
0.4767886118710125
% es.EZ (V/m) @ t=0.92
-1.117181125951797
% es.tEX (V/m) @ t=0.92
-1.2519572419186566
% es.tEY (V/m) @ t=0.92
0
% es.tEZ (V/m) @ t=0.92
-1.1171811259518076
% es.Ex (V/m) @ t=0.92
-1.251957241918656
% es.Ey (V/m) @ t=0.92
0.4767886118710125
% es.Ez (V/m) @ t=0.92
-1.117181125951797
% es.tEx (V/m) @ t=0.92
-1.2519572419186566
% es.tEy (V/m) @ t=0.92
0
% es.tEz (V/m) @ t=0.92
-1.1171811259518076
% V (V) @ t=0.92
0.01779687721039774
% es.normE (V/m) @ t=0.94
1.7644106528997958
% es.EX (V/m) @ t=0.94
-1.2631551514290702
% es.EY (V/m) @ t=0.94
0.48105316606767357
% es.EZ (V/m) @ t=0.94
-1.1271735523600404
% es.tEX (V/m) @ t=0.94
-1.2631551514290655
% es.tEY (V/m) @ t=0.94
0
% es.tEZ (V/m) @ t=0.94
-1.1271735523600306
% es.Ex (V/m) @ t=0.94
-1.2631551514290702
% es.Ey (V/m) @ t=0.94
0.48105316606767357
% es.Ez (V/m) @ t=0.94
-1.1271735523600404
% es.tEx (V/m) @ t=0.94
-1.2631551514290655
% es.tEy (V/m) @ t=0.94
0
% es.tEz (V/m) @ t=0.94
-1.1271735523600306
% V (V) @ t=0.94
0.017956058096585542
% es.normE (V/m) @ t=0.96
1.7800522076737404
% es.EX (V/m) @ t=0.96
-1.2743530609394884
% es.EY (V/m) @ t=0.96
0.48531772026436526
% es.EZ (V/m) @ t=0.96
-1.1371659787682677
% es.tEX (V/m) @ t=0.96
-1.274353060939486
% es.tEY (V/m) @ t=0.96
0
% es.tEZ (V/m) @ t=0.96
-1.1371659787682749
% es.Ex (V/m) @ t=0.96
-1.2743530609394884
% es.Ey (V/m) @ t=0.96
0.48531772026436526
% es.Ez (V/m) @ t=0.96
-1.1371659787682677
% es.tEx (V/m) @ t=0.96
-1.274353060939486
% es.tEy (V/m) @ t=0.96
0
% es.tEz (V/m) @ t=0.96
-1.1371659787682749
% V (V) @ t=0.96
0.018115238982773348
% es.normE (V/m) @ t=0.98
1.7956937624476947
% es.EX (V/m) @ t=0.98
-1.2855509704499248
% es.EY (V/m) @ t=0.98
0.48958227446104496
% es.EZ (V/m) @ t=0.98
-1.1471584051764934
% es.tEX (V/m) @ t=0.98
-1.2855509704499255
% es.tEY (V/m) @ t=0.98
0
% es.tEZ (V/m) @ t=0.98
-1.1471584051764872
% es.Ex (V/m) @ t=0.98
-1.2855509704499248
% es.Ey (V/m) @ t=0.98
0.48958227446104496
% es.Ez (V/m) @ t=0.98
-1.1471584051764934
% es.tEx (V/m) @ t=0.98
-1.2855509704499255
% es.tEy (V/m) @ t=0.98
0
% es.tEz (V/m) @ t=0.98
-1.1471584051764872
% V (V) @ t=0.98
0.018274419868961153
% es.normE (V/m) @ t=1
1.8113353172216284
% es.EX (V/m) @ t=1
-1.2967488799603546
% es.EY (V/m) @ t=1
0.49384682865771223
% es.EZ (V/m) @ t=1
-1.157150831584703
% es.tEX (V/m) @ t=1
-1.2967488799603522
% es.tEY (V/m) @ t=1
0
% es.tEZ (V/m) @ t=1
-1.1571508315847012
% es.Ex (V/m) @ t=1
-1.2967488799603546
% es.Ey (V/m) @ t=1
0.49384682865771223
% es.Ez (V/m) @ t=1
-1.157150831584703
% es.tEx (V/m) @ t=1
-1.2967488799603522
% es.tEy (V/m) @ t=1
0
% es.tEz (V/m) @ t=1
-1.1571508315847012
% V (V) @ t=1
0.01843360075514896
% es.normE (V/m) @ t=1.02
1.8269768719955575
% es.EX (V/m) @ t=1.02
-1.3079467894707528
% es.EY (V/m) @ t=1.02
0.4981113828543915
% es.EZ (V/m) @ t=1.02
-1.1671432579929322
% es.tEX (V/m) @ t=1.02
-1.307946789470758
% es.tEY (V/m) @ t=1.02
0
% es.tEZ (V/m) @ t=1.02
-1.1671432579929455
% es.Ex (V/m) @ t=1.02
-1.3079467894707528
% es.Ey (V/m) @ t=1.02
0.4981113828543915
% es.Ez (V/m) @ t=1.02
-1.1671432579929322
% es.tEx (V/m) @ t=1.02
-1.307946789470758
% es.tEy (V/m) @ t=1.02
0
% es.tEz (V/m) @ t=1.02
-1.1671432579929455
% V (V) @ t=1.02
0.018592781641336757
% es.normE (V/m) @ t=1.04